/*--------------------------------*- C++ -*----------------------------------*\
| =========                 |                                                 |
| \\      /  F ield         | OpenFOAM: The Open Source CFD Toolbox           |
|  \\    /   O peration     | Version:  2.4.0                                 |
|   \\  /    A nd           | Web:      www.OpenFOAM.org                      |
|    \\/     M anipulation  |                                                 |
\*---------------------------------------------------------------------------*/
FoamFile
{
    version     2.0;
    format      ascii;
    class       volScalarField;
    location    "0.07";
    object      p;
}
// * * * * * * * * * * * * * * * * * * * * * * * * * * * * * * * * * * * * * //

dimensions      [0 2 -2 0 0 0 0];

internalField   nonuniform List<scalar> 
4400
(
107.089
86.9157
79.3218
75.9652
73.5383
71.1708
68.8666
66.5616
64.62
63.3797
105.153
86.984
79.3592
75.9768
73.5407
71.1713
68.8662
66.5566
64.6227
63.2882
103.938
87.3027
79.4949
76.0156
73.5611
71.1804
68.8684
66.5465
64.6368
63.199
103.204
87.6893
79.6761
76.0735
73.6039
71.2077
68.8811
66.5371
64.6551
63.1118
102.61
88.0442
79.8595
76.1331
73.6625
71.2543
68.9077
66.5351
64.6761
63.0213
102.098
88.3382
80.0215
76.1769
73.717
71.3072
68.9434
66.5398
64.6939
62.9265
101.675
88.5717
80.1567
76.2025
73.7577
71.3551
68.977
66.5473
64.6847
62.9161
101.352
88.7463
80.2637
76.2185
73.781
71.3933
69.0007
66.5591
64.622
62.912
101.135
88.8634
80.3363
76.2266
73.792
71.4238
69.0172
66.5654
64.5946
62.944
101.026
88.9212
80.3722
76.2335
73.7939
71.4422
69.0277
66.5737
64.5823
62.897
101.027
88.919
80.372
76.2402
73.7867
71.453
69.0326
66.5821
64.5777
62.8501
101.139
88.8558
80.3349
76.245
73.7721
71.4506
69.0322
66.5891
64.5815
62.8
101.359
88.7334
80.2613
76.2483
73.7477
71.436
69.0272
66.5943
64.5972
62.7347
101.684
88.5545
80.1536
76.2451
73.713
71.4097
69.0155
66.5961
64.6301
62.6638
102.108
88.3188
80.0191
76.2287
73.6667
71.3689
68.9985
66.5989
64.6678
62.5917
102.62
88.0238
79.8576
76.1922
73.6095
71.3215
68.9786
66.6015
64.6981
62.5491
103.214
87.6694
79.6732
76.1378
73.5503
71.279
68.9619
66.6072
64.7167
62.5303
103.95
87.2829
79.4911
76.0825
73.508
71.2539
68.9534
66.6156
64.7225
62.5309
105.167
86.9648
79.3551
76.044
73.4881
71.2456
68.9506
66.622
64.7203
62.555
107.103
86.8969
79.3177
76.032
73.4852
71.2464
68.9494
66.6247
64.7165
62.6409
61.4346
60.5479
58.1835
52.8287
44.6546
37.4617
33.1785
31.5672
30.9916
30.8665
33.2987
38.7636
42.0447
46.3309
56.7015
66.0487
73.0527
80.4613
83.0088
78.6808
71.6807
64.8262
60.0756
57.1309
54.744
54.704
56.0303
56.8705
59.6614
64.9063
70.6247
76.4094
81.6227
84.0161
82.7683
77.5086
66.5616
54.1493
41.472
30.5481
22.9617
17.3615
15.729
19.5815
27.8866
36.5387
44.3881
52.617
61.2655
68.0797
72.6956
74.6526
75.0966
74.2119
73.3073
72.6219
73.4069
75.8263
78.8869
81.9667
84.2618
85.7983
86.859
87.3728
87.9332
87.8835
88.3584
88.1417
88.6626
88.3119
88.7682
88.252
88.7825
88.2765
88.9036
88.2384
88.8307
88.156
88.8774
88.1313
88.7484
87.9471
88.5937
87.8647
88.2773
87.4961
87.8685
87.0435
87.0728
86.2206
86.1069
84.9867
84.6264
83.1591
82.759
80.3891
80.3256
75.6564
75.8251
51.5588
60.8897
59.9378
57.9736
53.3717
45.9045
38.7955
34.2712
32.5486
31.8276
31.9454
34.2307
39.5937
43.5996
47.3031
56.4096
64.7908
70.7047
77.1151
79.4011
76.1758
70.7884
65.1683
61.3308
59.3266
57.4748
57.1689
58.788
60.3002
62.816
67.2702
72.5306
78.1606
83.168
85.3241
83.882
77.9732
66.3239
52.9945
39.6914
28.7427
20.6527
14.56
13.0716
17.0242
25.8821
35.1352
43.4226
51.7227
60.6157
67.9696
73.2353
75.5051
76.1716
75.4658
74.6792
74.0859
74.8288
77.1082
79.8639
82.6004
84.6849
86.0228
86.9757
87.4057
87.8496
87.7661
88.1871
87.9553
88.4679
88.0856
88.5405
87.9467
88.5467
87.9894
88.6697
87.8578
88.5754
87.7792
88.6607
87.6899
88.5342
87.4678
88.4394
87.3374
88.1472
86.9269
87.7507
86.4694
86.8753
85.5564
85.8578
84.2107
84.1136
82.1015
81.9968
78.6299
78.8839
71.6521
71.0226
43.5068
60.3029
59.2549
57.6411
53.5522
46.81
39.9571
35.604
33.9282
32.9365
33.4548
35.8275
40.5541
45.0242
48.4345
56.0131
63.3874
68.4011
73.9048
75.9967
73.8187
69.8778
65.4293
62.4257
61.2767
59.957
59.5934
61.3183
63.2158
65.6184
69.4547
74.2851
79.7693
84.5628
86.5087
84.8865
78.5264
66.4652
52.4325
38.5523
27.699
18.862
12.321
11.0502
15.0736
24.5252
34.267
42.9329
51.3195
60.3374
68.263
74.0938
76.7143
77.6902
77.1945
76.5329
75.9215
76.4931
78.5955
81.0145
83.3682
85.1101
86.2197
87.0366
87.3459
87.7228
87.6202
88.0055
87.7663
88.2491
87.8452
88.2454
87.6488
88.2683
87.679
88.3402
87.4564
88.2265
87.3499
88.3147
87.1559
88.1578
86.89
88.1078
86.6343
87.8136
86.1777
87.5141
85.6311
86.6066
84.7251
85.6015
83.2424
83.5504
80.8798
80.9692
76.6576
77.2822
68.4488
65.6861
41.4622
59.6917
58.5999
57.4098
53.7602
47.7969
41.3897
37.2744
35.7778
34.5367
35.2529
37.8255
41.7718
46.2046
49.4288
55.4802
61.8788
66.2761
71.0408
72.8869
71.6095
68.9455
65.6184
63.3817
62.9859
62.2529
61.9852
63.6664
65.7418
68.0919
71.4121
75.77
81.0838
85.6896
87.4168
85.6047
79.005
66.7679
52.3705
38.0368
27.1546
17.5837
10.8094
9.85364
13.8083
23.8854
33.9981
42.9482
51.3084
60.405
68.9211
75.1051
78.2848
79.4637
79.1251
78.5872
77.9731
78.3576
80.1862
82.2658
84.2142
85.6106
86.5114
87.0929
87.2795
87.5774
87.432
87.8198
87.582
87.9795
87.5525
87.9117
87.3461
87.9388
87.3545
87.9332
87.027
87.7966
86.9218
87.8435
86.5698
87.6281
86.2855
87.571
85.7922
87.2206
85.3023
87.0186
84.4813
86.1214
83.5152
85.2603
81.9724
83.0152
79.5305
79.94
74.7398
74.9115
65.6426
59.6757
41.2699
59.2154
58.1204
57.328
54.0969
48.8997
43.0916
39.1829
37.9455
36.7144
37.3792
39.9426
43.127
47.1671
50.1636
54.9452
60.356
64.1355
68.4587
70.697
69.6605
68.0096
65.7332
64.2424
64.5029
64.3689
64.2929
65.9038
67.9801
70.2215
73.1059
76.9059
81.9797
86.4196
87.9738
86.0379
79.3895
67.2316
52.7318
38.1785
27.0941
17.0287
10.3739
9.50206
13.234
24.0308
34.2942
43.4094
51.6063
60.9826
69.9341
76.4345
80.0491
81.2686
81.1598
80.738
80.1714
80.429
81.8703
83.5465
85.0383
86.1175
86.7919
87.1801
87.2602
87.4547
87.328
87.6604
87.4091
87.6769
87.2419
87.5557
87.071
87.5993
87.003
87.4458
86.6
87.3371
86.4776
87.2488
85.978
87.0001
85.6768
86.8262
84.957
86.3782
84.3804
86.0394
83.1015
84.9375
82.0074
84.2328
79.9933
82.0802
77.5915
79.0166
72.9548
72.5339
63.6611
53.2103
40.8354
58.9969
57.856
57.3317
54.5263
49.9857
45.0342
41.3917
40.3042
39.2546
39.657
41.9791
44.5343
47.9598
50.514
54.2293
58.8879
62.0951
65.9561
68.3384
67.7846
67.0302
65.8384
65.0857
65.857
66.235
66.4694
68.0001
69.9301
71.9822
74.4436
77.7099
82.4872
86.6986
88.0834
86.048
79.592
67.8911
53.4836
38.9013
27.7969
17.4686
11.2217
10.4693
13.4182
24.8652
35.1101
44.3794
51.9457
62.0406
71.2432
78.2516
82.1751
83.4395
83.5499
83.107
82.555
82.6272
83.6343
84.8389
85.8821
86.5943
87.028
87.2396
87.2348
87.3486
87.2411
87.4846
87.2228
87.3443
86.9457
87.2114
86.826
87.2182
86.6193
86.9231
86.1973
86.8535
86.0205
86.5762
85.3911
86.3374
85.0954
85.9958
84.2073
85.516
83.6454
84.9823
82.0919
83.8207
80.8737
82.7559
77.9106
80.3074
74.8735
76.7371
69.4538
68.8581
60.6556
49.6659
41.7265
59.1421
57.8593
57.3101
54.7804
50.945
47.0453
43.7792
42.6361
41.8511
42.0471
43.9165
45.798
48.5254
50.6785
53.4297
57.3267
59.9994
63.3629
65.8678
65.8674
65.9895
65.9246
65.9176
67.0295
67.8545
68.4663
69.881
71.601
73.4036
75.404
78.1244
82.5709
86.4949
87.6621
85.5234
79.529
68.6912
54.5143
40.0784
29.42
18.9496
13.2003
11.8244
14.4377
26.3719
36.4035
45.7582
52.2458
63.5602
72.7926
80.4602
84.6615
85.9692
86.3323
85.7047
85.0466
84.8693
85.3684
86.0992
86.7116
87.0628
87.3067
87.3106
87.2483
87.2799
87.1763
87.2931
87.0464
87.0307
86.7023
86.8835
86.5908
86.8043
86.2249
86.4024
85.8451
86.3465
85.5241
85.8559
84.8605
85.6618
84.4694
85.0869
83.5188
84.6662
82.8967
83.838
81.4138
82.8495
79.9737
81.0275
76.597
78.3226
72.5828
73.2463
65.4932
63.8952
56.5465
48.3193
42.213
59.6935
58.304
57.3434
55.0087
51.8096
48.8362
46.1156
44.902
44.2747
44.286
45.6468
46.9764
48.9347
50.6371
52.5709
55.6852
57.8061
60.5529
63.22
63.9443
64.9013
65.8992
66.6999
68.1147
69.304
70.2416
71.5389
73.0026
74.5599
76.1094
78.2164
82.2012
85.7786
86.7074
84.5018
79.1914
69.525
55.845
41.8175
31.7602
21.2
15.9475
13.9034
16.402
28.2585
38.1667
47.4111
52.5144
65.4584
74.2923
82.906
87.1643
88.694
89.2913
88.3359
87.4502
87.0331
86.9301
87.272
87.5048
87.5362
87.6169
87.4362
87.3198
87.2825
87.173
87.1587
86.9327
86.7699
86.5448
86.6092
86.383
86.3951
85.9026
85.9427
85.5395
85.8087
85.0501
85.1664
84.3805
84.9502
83.8307
84.1581
82.833
83.7531
82.0045
82.6119
80.529
81.662
78.6759
79.0984
75.3773
75.8992
70.6876
69.5922
63.4603
60.3075
54.5101
47.9042
41.5568
60.2366
58.7614
57.5346
55.3887
52.6487
50.4348
48.2978
47.0127
46.4758
46.3496
47.199
48.0786
49.2846
50.5123
51.6889
53.8388
55.4847
57.7493
60.4838
61.9883
63.7814
65.8149
67.4223
69.0922
70.6074
71.8557
73.043
74.2516
75.5981
76.6238
77.9684
81.3731
84.5846
85.2243
83.0394
78.6166
70.3948
57.6559
44.2964
34.4198
23.9835
19.045
16.5518
19.1715
30.4053
40.458
48.845
52.6957
67.7814
75.5045
85.4455
89.3869
91.417
92.0808
90.8427
89.7601
89.0282
88.3914
88.3496
88.2829
88.026
87.9019
87.6135
87.4317
87.363
87.2527
87.1192
86.8923
86.6282
86.4876
86.449
86.2532
86.0787
85.6885
85.5839
85.3111
85.3064
84.6648
84.5569
83.9859
84.2223
83.2274
83.2503
82.1788
82.7409
81.0616
81.3168
79.4814
80.1897
77.2128
77.1367
73.9479
73.1721
69.0989
66.7919
62.7853
58.5116
54.6244
47.732
41.0073
60.6805
59.2146
57.8631
55.9667
53.5441
51.8564
50.316
49.0355
48.5002
48.2711
48.6578
49.1811
49.6651
50.2861
50.7736
51.9266
53.1407
55.0461
57.8133
60.0964
62.7052
65.6745
68.0773
70.0818
71.8447
73.279
74.4665
75.5052
76.5909
76.9293
77.3466
80.179
83.0762
83.4883
81.3158
77.9082
71.3194
59.9664
47.46
37.2575
27.0733
22.3906
19.5861
22.4968
32.4815
43.2232
49.8644
52.9426
70.2347
76.241
88.047
91.2356
94.0757
94.6649
93.1004
91.8682
90.8
89.6779
89.3435
88.9885
88.523
88.2551
87.8676
87.6354
87.5441
87.4191
87.189
86.9798
86.6487
86.5616
86.4477
86.2513
85.9374
85.6538
85.4456
85.2141
84.9804
84.4597
84.1462
83.7236
83.5941
82.7677
82.447
81.6328
81.6657
80.2043
80.0144
78.4703
78.4596
75.9047
75.1961
72.7245
70.8974
68.1119
65.5145
62.8641
58.2261
55.9248
47.8652
41.6061
61.0209
59.6594
58.2547
56.6274
54.54
53.1683
52.1177
50.9421
50.4034
50.142
50.1161
50.2803
50.1015
50.0526
49.8879
50.0813
50.8899
52.5679
55.3286
58.2781
61.7284
65.5489
68.6644
71.0505
72.993
74.6298
75.8573
76.7147
77.4246
77.0166
76.5146
78.7073
81.4783
81.6685
79.5526
77.1751
72.3499
62.6318
51.0485
40.2792
30.5468
25.993
22.935
26.0397
34.8189
46.1536
50.1629
53.775
72.8163
76.3873
90.5639
92.6977
96.5408
96.8501
95.0018
93.7403
92.3709
90.8335
90.2265
89.6418
89.0295
88.6782
88.1926
87.9497
87.7402
87.6853
87.3428
87.2328
86.7933
86.7893
86.5432
86.4328
85.9991
85.8449
85.5038
85.3072
84.9103
84.5313
84.0354
83.6801
83.2734
82.623
81.9749
81.3148
80.8276
79.659
79.0074
77.7229
76.9247
75.0736
73.8721
71.9372
69.668
67.9505
65.1678
63.6738
58.6769
57.2489
48.6404
42.9899
61.2839
60.0806
58.6781
57.2999
55.5874
54.4202
53.7395
52.7595
52.2027
51.942
51.5657
51.3237
50.5863
49.8747
49.1059
48.4912
48.9241
50.4244
53.0857
56.6375
60.9015
65.369
69.1452
72.0034
74.14
75.9103
77.1117
77.7809
78.0341
76.9206
75.7392
77.5103
80.0892
80.0147
77.9741
76.562
73.5227
65.6104
54.9103
43.8312
34.6762
29.9156
26.6203
29.685
37.1776
49.2065
50.2841
55.4295
74.4639
76.4339
92.8241
93.8639
98.838
98.6935
96.7305
95.4699
93.6924
91.8744
90.9937
90.2314
89.5084
89.1442
88.5442
88.3204
87.9554
88.0011
87.557
87.5978
87.0294
87.1292
86.724
86.7974
86.2128
86.2367
85.6789
85.6551
85.079
84.9278
84.1766
83.958
83.3056
82.8703
81.9335
81.369
80.4894
79.5914
78.5859
77.4912
76.1502
74.9035
73.3509
72.011
69.4821
68.7422
65.5747
64.9991
59.5536
58.2268
49.9095
44.105
61.4414
60.4733
59.1586
57.9596
56.6729
55.6882
55.2164
54.4621
53.8792
53.5632
52.9194
52.2722
51.1058
49.8146
48.4992
47.3213
47.4416
48.7733
51.3866
55.3647
60.2251
65.2439
69.645
72.8504
75.1417
76.9962
78.1479
78.7111
78.4893
76.759
75.1815
76.7788
79.1693
78.7864
76.8096
76.2119
74.8381
68.8396
59.0787
48.1837
39.5308
34.1476
30.5047
33.2983
39.3441
52.3158
50.8482
58.5871
75.6647
76.9163
94.3907
95.174
100.793
100.161
98.2388
96.9111
94.7666
92.7873
91.6624
90.7378
89.9345
89.5856
88.9203
88.7198
88.1946
88.3245
87.7926
87.9908
87.3253
87.5483
86.9648
87.2493
86.5138
86.783
85.9679
86.2248
85.3837
85.6015
84.5065
84.5924
83.5611
83.5502
82.2134
81.9696
80.6111
80.2044
78.688
78.0389
76.1125
75.6287
73.5645
73.0375
70.0816
70.2755
66.488
66.4252
60.5714
58.7979
51.0166
44.8178
61.4592
60.7591
59.6533
58.6579
57.7741
56.9103
56.4877
55.9397
55.3538
54.935
54.1026
53.1224
51.6311
49.8823
48.1317
46.624
46.5057
47.6743
50.2795
54.5571
59.8311
65.2637
70.0402
73.5064
75.985
77.8039
78.8822
79.3614
78.7918
76.7027
75.0074
76.6033
78.8285
78.1585
76.2164
76.2227
76.2177
72.1092
63.4466
53.0598
44.635
38.4425
34.5536
36.8655
41.5522
54.6447
52.1712
62.8429
76.0806
78.7457
95.2112
97.1782
102.377
101.327
99.6223
98.0977
95.6889
93.6363
92.2441
91.2022
90.287
89.987
89.2669
89.1492
88.4281
88.6257
88.0059
88.3648
87.6318
87.9769
87.2199
87.6879
86.8543
87.3783
86.3302
86.8501
85.7563
86.379
84.977
85.4527
83.9696
84.5456
82.7319
83.0585
81.0773
81.4482
79.1401
79.3395
76.7382
77.194
74.2699
74.7237
71.1245
71.9703
67.5976
67.5548
61.5324
59.0129
51.8439
45.3879
61.4099
60.9796
60.1717
59.3126
58.6939
57.9843
57.5527
57.0944
56.5281
56.0263
55.0589
53.8196
52.1162
50.0788
48.0447
46.3672
46.0487
47.0675
49.7475
54.2062
59.7012
65.3556
70.3135
73.9891
76.5544
78.2794
79.3208
79.7505
78.9531
76.7983
75.3563
77.0114
79.0618
78.1755
76.3571
76.6113
77.5598
75.1648
67.7502
58.0357
49.5171
42.5929
38.705
40.3719
43.7203
56.1381
53.3395
67.5786
76.6039
83.332
95.439
99.8444
103.752
102.341
100.775
98.9598
96.3944
94.4066
92.7921
91.6645
90.5778
90.3125
89.5276
89.5131
88.6987
88.8715
88.1691
88.6717
87.9358
88.3975
87.4912
88.1008
87.1822
87.9623
86.7421
87.4668
86.1261
87.1455
85.5133
86.3645
84.4442
85.6289
83.3937
84.3552
81.7433
83.0281
79.9069
81.0165
77.702
79.1158
75.3057
76.4978
72.3025
73.3496
68.6249
68.2566
62.2556
58.9793
52.4064
45.9682
61.3587
61.1011
60.5835
59.8865
59.4111
58.7951
58.3486
57.9381
57.359
56.7614
55.7575
54.3876
52.5607
50.382
48.1877
46.4172
45.9695
47.0486
49.6819
54.1988
59.773
65.4922
70.5083
74.2772
76.7985
78.3857
79.4694
79.8814
79.0173
77.0978
76.1685
77.9262
79.7497
78.6707
76.9009
77.2245
78.7376
77.688
71.7261
62.8059
54.09
46.7299
43.077
43.9777
45.8558
57.4809
54.0185
71.4822
76.8038
90.7703
97.2987
102.73
104.598
103.326
101.636
99.5869
96.9549
95.0328
93.2575
92.0904
90.821
90.5325
89.6875
89.7665
88.9586
89.1379
88.3259
88.9013
88.1859
88.8146
87.7701
88.4598
87.4509
88.4676
87.1338
88.0342
86.4656
87.8049
86.0283
87.2251
84.9351
86.6243
84.0817
85.6254
82.4739
84.5772
80.8366
82.7045
78.7662
80.964
76.3987
78.0267
73.4013
74.3178
69.4575
68.5518
62.7943
58.8585
52.8028
46.5728
61.3824
61.2209
60.8859
60.2927
59.8777
59.3396
58.8646
58.4466
57.8746
57.2138
56.1985
54.7904
52.9354
50.7109
48.4541
46.6772
46.1831
47.2566
49.8994
54.4394
59.9876
65.6435
70.6141
74.3344
76.7744
78.3589
79.4408
79.8189
79.0221
77.5438
77.2508
79.0922
80.5492
79.2795
77.4502
77.7821
79.4954
79.3645
74.9326
66.9833
58.1884
50.7043
47.3779
47.671
48.0025
58.7953
55.5347
74.3457
76.8674
97.5814
98.5212
105.319
105.128
104.307
102.289
100.073
97.3615
95.4427
93.5534
92.4315
91.0335
90.693
89.7913
89.9113
89.1199
89.3912
88.532
89.0924
88.3372
89.1071
88.0368
88.7932
87.6712
88.8224
87.4381
88.5316
86.8082
88.33
86.4267
87.9748
85.4455
87.4551
84.6786
86.7581
83.1882
85.8544
81.7658
84.2031
79.737
82.4536
77.4151
79.1886
74.3063
74.9348
70.0612
68.5367
63.1605
58.7742
53.0744
47.1628
61.4891
61.337
61.0528
60.5276
60.1193
59.6221
59.1366
58.6906
58.1166
57.4288
56.4291
55.0174
53.1887
50.9992
48.7673
47.0238
46.5364
47.6028
50.2485
54.7849
60.2378
65.7779
70.6275
74.2438
76.658
78.2703
79.3295
79.6629
79.0223
78.048
78.3487
80.1353
81.0996
79.6362
77.7086
78.0221
79.7686
80.0237
76.9196
70.1722
61.6381
54.2057
50.7485
50.3035
49.7503
60.2626
58.7798
79.0145
77.9399
100.29
97.6413
107.223
105.727
104.995
102.759
100.426
97.7455
95.7418
93.7537
92.6476
91.1726
90.8032
89.8606
89.9635
89.1692
89.5411
88.6749
89.2442
88.4503
89.2384
88.1943
89.0769
87.8719
89.0131
87.6262
88.9353
87.1333
88.6895
86.7103
88.5673
85.9392
88.0615
85.1417
87.6745
83.882
86.7501
82.5361
85.4216
80.5396
83.4921
78.2493
79.9694
74.9793
75.3413
70.4636
68.361
63.3766
58.7501
53.2503
47.6941
61.5986
61.4208
61.112
60.6153
60.198
59.7139
59.2191
58.7516
58.1794
57.4776
56.4949
55.0835
53.2989
51.1651
49.0123
47.3802
46.9229
47.9881
50.6867
55.1183
60.4729
65.8947
70.6091
74.1649
76.5949
78.2246
79.235
79.5313
79.0347
78.5108
79.1118
80.7948
81.3452
79.6978
77.7465
77.8789
79.6197
80.0018
77.5733
71.9137
64.1903
56.9576
52.9704
51.3412
50.6663
61.411
58.1621
84.4841
79.7933
100.963
97.2654
108.606
106.412
105.326
103.073
100.667
98.0016
95.9299
93.8731
92.7127
91.2267
90.849
89.8712
89.9914
89.1727
89.5924
88.7182
89.3426
88.4877
89.3022
88.2483
89.2212
87.9671
89.1362
87.704
89.138
87.3043
88.9141
86.8536
88.8776
86.2207
88.4374
85.4181
88.1843
84.3467
87.2834
83.016
86.1592
81.1397
84.0481
78.8211
80.4152
75.4249
75.539
70.8722
68.1556
63.5257
58.7747
53.3486
48.0845
61.7737
61.4777
61.1153
60.6334
60.2002
59.7153
59.2156
58.7262
58.1455
57.4254
56.4462
55.0122
53.2834
51.2228
49.1445
47.6
47.1846
48.2563
51.0359
55.3981
60.6506
65.9751
70.613
74.1458
76.574
78.2072
79.1917
79.467
78.9948
78.4014
79.2805
80.9508
81.3745
79.7171
77.7789
77.8969
79.5705
79.7049
76.9336
72.2673
65.4678
58.3646
54.0488
51.985
51.3859
62.0344
59.2964
87.504
80.8587
101.065
97.0886
109.269
106.276
105.394
103.07
100.701
98.0479
95.9549
93.9121
92.7432
91.267
90.8808
89.8906
90.0112
89.1725
89.6119
88.7282
89.3674
88.4865
89.328
88.2481
89.2526
87.9741
89.1842
87.7051
89.1848
87.3112
89.0029
86.8632
88.966
86.2357
88.5912
85.447
88.347
84.4056
87.5031
83.0913
86.4155
81.2905
84.2491
78.9732
80.581
75.5476
75.5685
70.9452
68.0314
63.5506
58.7592
53.3699
48.0351
48.959
48.0114
46.3285
44.1225
42.6092
42.9023
44.8516
47.6362
48.6979
50.0637
53.2829
57.1633
61.4359
64.5976
66.015
65.7156
63.7701
61.3802
59.5171
59.1784
61.5984
63.8033
63.5026
60.9699
55.6194
50.3276
47.8918
49.0064
53.5796
62.8791
77.3037
93.5715
109.95
120.654
123.743
120.858
114.762
107.618
100.676
94.6159
89.7954
86.3873
84.2905
83.2659
82.9299
82.7249
82.2098
81.3505
80.5019
79.9435
79.6279
79.3444
78.9817
78.5619
78.2862
78.3249
78.8403
79.8611
81.221
82.7536
84.2585
85.572
86.6611
87.4977
88.1087
88.5577
88.8636
89.0828
89.2406
89.3534
89.449
89.5285
89.6046
89.6838
89.7663
89.8561
89.9578
90.068
90.1888
90.3213
90.4591
90.6019
90.7437
90.8764
90.9913
91.0819
91.1497
91.198
91.2223
91.2192
91.2042
91.186
91.0988
90.7786
90.3468
89.9046
89.1485
89.0023
90.0447
92.1088
49.023
48.021
46.2314
43.9405
42.2323
42.3418
44.0888
47.0905
48.2359
49.5324
52.6763
56.7648
60.9891
64.1911
65.6675
65.3772
63.4454
61.0827
59.2753
59.1096
61.6186
64.2118
64.0872
60.1118
54.2508
48.9049
46.6542
48.0253
52.711
61.4616
75.7625
92.2511
108.677
119.664
123.007
120.309
114.331
107.205
100.244
94.1907
89.4463
86.1727
84.2085
83.2461
82.9455
82.774
82.2419
81.3282
80.4483
79.9048
79.6251
79.3587
78.9905
78.5455
78.2417
78.2595
78.757
79.8019
81.1839
82.7388
84.2635
85.5875
86.6799
87.5191
88.1243
88.5711
88.8728
89.0883
89.2452
89.3549
89.4499
89.5289
89.6033
89.6833
89.7648
89.8544
89.9561
90.0666
90.1869
90.3205
90.4584
90.6021
90.7454
90.8787
90.9965
91.0905
91.1626
91.2121
91.2313
91.2178
91.1923
91.1733
91.0977
90.8098
90.3703
89.8029
88.8925
88.6713
89.6846
91.7133
49.1631
48.0596
46.0949
43.5473
41.5354
41.179
42.5803
45.7484
47.3099
48.8672
52.0971
56.1836
60.3795
63.5199
65.0396
64.7066
62.7447
60.4115
58.7798
58.9929
61.6985
63.9284
62.9257
57.7844
51.4551
46.4661
44.5351
46.348
51.0171
59.3115
73.0282
89.7261
106.203
117.448
121.13
118.7
112.973
106.078
99.256
93.2293
88.5085
85.3802
83.6318
82.8626
82.7105
82.654
82.1717
81.2362
80.3353
79.8395
79.6269
79.385
78.9996
78.5167
78.1623
78.1462
78.6369
79.6976
81.1225
82.7147
84.2721
85.6119
86.7095
87.5485
88.1464
88.5877
88.8837
89.0935
89.2481
89.3533
89.4489
89.5242
89.5984
89.6764
89.7579
89.8446
89.9471
90.055
90.1744
90.3073
90.4439
90.5875
90.7311
90.8659
90.9866
91.0851
91.1591
91.2102
91.2302
91.2187
91.1888
91.1714
91.1331
90.9287
90.494
89.7065
88.4766
88.0804
89.0259
91.0127
49.3869
48.1487
45.9299
43.0394
40.8047
39.7241
40.8497
44.0058
46.5869
49.6562
51.8023
55.432
59.6174
62.624
64.2613
63.9444
61.9229
59.5149
58.0427
58.3509
61.0972
62.7167
60.2379
54.187
47.7938
43.6291
42.0581
44.2726
49.3211
56.9212
69.5649
86.3074
102.795
114.109
118.155
116.089
110.762
104.26
97.6545
91.6443
86.9044
83.8676
82.321
81.8439
82.0273
82.2527
81.929
81.046
80.1914
79.788
79.6584
79.4325
79.0128
78.4763
78.0553
77.9927
78.4853
79.554
81.0373
82.6731
84.2693
85.6328
86.7347
87.5754
88.1642
88.6003
88.8896
89.0932
89.2444
89.347
89.4371
89.5147
89.5825
89.6621
89.7382
89.8241
89.922
90.0282
90.142
90.2733
90.4046
90.5451
90.6865
90.8199
90.9443
91.0482
91.1325
91.1933
91.2235
91.2181
91.1932
91.186
91.2126
91.1428
90.6538
89.5907
88.0708
87.4387
88.3071
90.2043
49.7218
48.3325
45.8662
42.6395
40.2155
38.4458
39.21
42.0703
45.7393
50.1612
51.1305
54.3464
58.4528
61.3978
63.3051
63.1265
61.1567
58.6144
56.9581
57.4969
60.171
60.6223
56.58
50.1203
43.992
40.6194
39.5007
41.9416
47.4651
54.4851
65.7121
82.2362
98.8252
109.973
114.228
112.648
107.839
101.809
95.4365
89.4502
84.7036
81.7235
80.3384
80.1497
80.7597
81.4425
81.4533
80.7581
80.0488
79.7834
79.7374
79.5081
79.0281
78.4121
77.8995
77.7627
78.246
79.3255
80.8949
82.5906
84.2418
85.6389
86.7487
87.5901
88.1734
88.5999
88.887
89.082
89.2322
89.3309
89.4191
89.4909
89.56
89.6328
89.7098
89.7847
89.8852
89.9784
90.0918
90.212
90.3389
90.4709
90.6066
90.7355
90.8584
90.9658
91.0563
91.1289
91.1751
91.1951
91.1988
91.2191
91.2768
91.2744
90.76
89.4626
87.7003
86.8566
87.682
89.4941
50.2304
48.7344
46.0792
42.5708
39.8544
37.6292
37.8268
40.1949
44.4238
49.3765
49.7714
52.4833
56.5966
59.5954
62.1295
62.4074
60.751
58.2765
56.5197
57.0841
59.2433
58.1054
52.916
46.1562
40.4764
37.6362
37.0149
39.6283
45.6743
52.3459
62.1054
78.0909
94.3996
105.492
109.704
108.649
104.422
98.8983
92.7704
86.7913
82.0133
79.0284
77.7563
77.8181
78.8863
80.1589
80.6942
80.3633
79.9098
79.8181
79.8375
79.5743
79.0049
78.2815
77.6513
77.4203
77.8852
78.9928
80.6785
82.4581
84.1858
85.6301
86.7545
87.599
88.18
88.5939
88.8811
89.0641
89.2149
89.3092
89.3919
89.4654
89.5257
89.6
89.6669
89.7421
89.8284
89.9211
90.0181
90.1357
90.2456
90.3716
90.492
90.6156
90.7284
90.8345
90.925
91.0059
91.0668
91.1131
91.1577
91.2122
91.3094
91.2996
90.7627
89.3174
87.4484
86.4244
87.1996
89.0376
50.9649
49.4299
46.6085
42.9565
39.8255
37.1894
36.8372
38.6354
42.6874
47.0327
47.2438
49.5507
53.716
57.1349
60.7384
61.9311
61.1027
59.0534
57.3923
58.0523
58.6083
55.5631
49.7446
42.798
37.4181
34.9031
34.6857
37.1675
43.872
50.6099
59.2001
74.2169
89.9618
100.935
105.033
104.38
100.815
95.7339
89.8266
83.849
78.9943
75.9318
74.6507
74.912
76.4304
78.3704
79.6035
79.8145
79.7241
79.8434
79.9072
79.5863
78.9085
78.0632
77.2962
76.9609
77.4083
78.5639
80.3897
82.2837
84.1022
85.6113
86.7482
87.6079
88.1841
88.5903
88.8719
89.0492
89.1953
89.2874
89.3643
89.4427
89.4868
89.5641
89.6218
89.6914
89.7722
89.8518
89.9448
90.0428
90.1471
90.25
90.3642
90.4663
90.5712
90.6617
90.7506
90.8241
90.8961
90.9589
91.0313
91.1213
91.2228
91.211
90.6259
89.1821
87.3087
86.2358
86.9949
88.937
51.9547
50.4341
47.5193
43.6773
40.0176
37.0611
36.1812
37.2606
40.4952
43.4001
43.486
45.6828
49.9613
54.2757
59.1129
61.8662
62.2692
61.355
60.1836
60.1761
58.8443
53.5125
47.039
40.3145
35.1299
32.8927
32.4089
34.8089
42.0542
49.0403
56.7434
70.6291
85.8967
96.5258
100.575
100.111
97.2485
92.5392
86.7508
80.7585
75.7686
72.6035
71.164
71.5079
73.4451
76.0909
78.1391
79.0499
79.4316
79.7862
79.8864
79.5041
78.7193
77.752
76.8366
76.3817
76.8276
78.0372
80.0395
82.069
84.0069
85.57
86.7456
87.6097
88.1871
88.587
88.8631
89.0328
89.1778
89.2627
89.3402
89.4064
89.4643
89.5164
89.5817
89.6347
89.714
89.7801
89.866
89.9492
90.0392
90.1325
90.2222
90.3153
90.3932
90.4763
90.5417
90.6122
90.6668
90.741
90.8123
90.9187
91.0092
90.9653
90.3925
89.0221
87.2853
86.3132
87.146
89.212
53.1759
51.7192
48.7514
44.6083
40.2601
36.9525
35.7001
36.158
38.2586
39.6029
39.1856
41.8263
46.1285
51.3437
57.4266
62.2365
64.3462
65.1045
64.6955
63.6299
59.8487
52.3061
44.9776
38.75
33.8428
31.8865
31.3005
33.0439
40.4048
47.7736
54.8816
67.2636
82.1706
92.546
96.4603
96.15
93.8248
89.4278
83.6265
77.5933
72.5438
69.1611
67.445
67.743
70.0383
73.3715
76.2878
77.9937
78.9408
79.5861
79.7489
79.306
78.4308
77.3415
76.2767
75.677
76.1413
77.4174
79.63
81.8306
83.8886
85.5265
86.7446
87.6045
88.1953
88.5828
88.8516
89.023
89.1551
89.2424
89.3121
89.3758
89.4202
89.4826
89.5278
89.5875
89.6452
89.7154
89.7775
89.8591
89.9288
90.0091
90.0834
90.1539
90.2214
90.2739
90.3324
90.3681
90.4191
90.4607
90.532
90.5975
90.6723
90.5813
90.053
88.8609
87.3385
86.5872
87.593
89.8469
54.5177
53.1679
50.1442
45.4968
40.2281
36.4752
35.1081
35.339
36.4593
36.535
35.8796
38.9179
43.2301
48.8649
56.0936
62.9035
67.2164
69.8868
70.2542
68.0447
61.4183
51.7883
43.8098
38.0537
33.5643
31.7878
30.8756
31.8662
39.0519
46.8919
53.9438
64.8557
78.9083
89.1209
92.7959
92.602
90.6101
86.3961
80.4223
74.3211
69.2153
65.6073
63.5955
63.8008
66.37
70.2897
74.0243
76.581
78.2073
79.2116
79.4523
78.9851
78.0463
76.8474
75.6251
74.8558
75.3571
76.7176
79.1863
81.5613
83.7744
85.4838
86.7382
87.6064
88.2016
88.5776
88.8445
89.0121
89.1335
89.2224
89.284
89.3427
89.3866
89.4357
89.4826
89.5305
89.5843
89.6401
89.6974
89.7603
89.8236
89.8811
89.9451
89.993
90.0435
90.0768
90.1068
90.1278
90.1443
90.1674
90.1871
90.2274
90.2201
90.1147
89.6639
88.6609
87.5101
87.0229
88.2294
90.831
55.8782
54.7078
51.49
46.1402
39.6689
35.3141
34.0839
34.4539
34.9121
34.1703
33.6065
36.8171
41.1547
47.0621
55.2733
63.5929
70.5662
75.0583
76.2078
72.6777
63.4001
51.9298
43.6605
38.2419
34.2968
32.5769
31.2046
31.3855
38.1959
46.4228
53.3833
63.4021
76.3255
86.2025
89.6712
89.4446
87.5441
83.3551
77.0946
70.8066
65.6533
61.8654
59.6433
59.8104
62.5635
66.9233
71.374
74.8159
77.184
78.6275
79.0063
78.5551
77.5763
76.2649
74.901
73.9317
74.5029
75.9729
78.7073
81.2883
83.6678
85.435
86.7442
87.6067
88.211
88.5727
88.8418
88.9947
89.1166
89.1986
89.2605
89.307
89.3542
89.3839
89.4356
89.4744
89.5174
89.57
89.6082
89.668
89.7095
89.7594
89.7994
89.8394
89.8573
89.8789
89.8799
89.8811
89.8666
89.8457
89.8325
89.7992
89.7532
89.5833
89.225
88.4818
87.684
87.7109
89.2081
92.0823
57.0755
56.0377
52.663
46.4227
38.5809
33.6089
32.5681
33.1845
33.2854
32.2933
32.2296
35.3043
39.6292
45.8317
54.7417
64.4032
73.8463
79.9955
81.8481
76.9436
65.5891
52.9794
44.2351
39.2653
35.9375
34.3505
32.4108
31.5745
37.914
46.4373
53.2431
62.5982
74.4734
83.7637
87.0093
86.6399
84.6015
80.1677
73.5848
66.9362
61.7135
57.8072
55.518
55.7968
58.7268
63.4063
68.406
72.703
75.8963
77.8507
78.4217
78.0043
77.0347
75.6141
74.1358
72.9639
73.6121
75.2328
78.2281
81.0255
83.5681
85.3926
86.7471
87.6153
88.2181
88.5721
88.836
88.9799
89.0968
89.1797
89.2303
89.2786
89.3141
89.3449
89.3857
89.4201
89.4513
89.4943
89.526
89.5679
89.6017
89.6306
89.6632
89.6728
89.6809
89.6738
89.659
89.6219
89.5793
89.5179
89.4527
89.3719
89.2565
89.0963
88.7482
88.2949
87.9632
88.4002
90.4097
93.0975
57.9769
57.1074
53.6077
46.4928
37.4171
31.9932
31.0175
31.6566
31.6101
30.8414
31.4557
34.5766
38.7929
45.2042
54.5276
65.4161
76.5095
84.4561
86.7695
80.5813
67.7815
54.3023
45.2314
40.5664
37.8429
36.6624
33.8492
32.2178
38.2574
47.0542
53.8346
62.6115
73.4707
81.8964
84.7629
84.161
81.785
76.7416
69.825
62.732
57.3127
53.3503
51.1277
51.7368
54.943
59.8187
65.2634
70.3187
74.3825
76.8849
77.6995
77.3795
76.4464
74.9301
73.3513
72.0244
72.7408
74.5578
77.7667
80.7916
83.4885
85.3444
86.7606
87.6121
88.2299
88.5701
88.8335
88.962
89.0839
89.1547
89.2056
89.2458
89.2755
89.2988
89.3412
89.3566
89.3911
89.4134
89.4441
89.4673
89.4928
89.5066
89.5173
89.5174
89.4986
89.4743
89.4273
89.3659
89.2821
89.1842
89.0692
88.937
88.7771
88.5598
88.3148
87.9857
88.0226
88.9242
90.9614
94.2758
58.5916
57.8692
54.3084
46.5212
36.4825
30.7899
29.7485
30.2363
30.1329
29.7767
31.1829
34.5766
38.7136
45.1151
54.6807
66.3049
78.3333
88.205
90.6088
83.2801
69.724
55.7596
46.4203
41.8727
39.5262
38.4308
35.4377
33.3073
39.1351
48.2106
55.0346
63.2094
73.1023
80.6223
82.9768
82.0597
79.0981
73.1183
65.784
58.2491
52.5086
48.5188
46.4237
47.5786
51.2051
56.2765
62.0461
67.7592
72.6388
75.7879
76.8753
76.6859
75.8311
74.2383
72.6197
71.1978
71.9769
73.9726
77.3402
80.5902
83.3952
85.3011
86.7676
87.5959
88.2406
88.5566
88.8349
88.9355
89.0773
89.1247
89.1854
89.2106
89.2383
89.2495
89.2901
89.303
89.3192
89.3413
89.3543
89.3744
89.3769
89.3846
89.3756
89.3587
89.3221
89.2674
89.2027
89.1006
88.9907
88.8475
88.6948
88.4952
88.2767
88.0196
87.765
87.6909
87.8543
89.0321
91.7375
94.2876
59.0439
58.3943
54.8113
46.6827
35.9996
30.0991
28.8537
29.1312
29.0421
29.2011
31.2621
34.8964
38.9285
45.1179
54.8887
66.9091
79.5542
90.4518
93.1632
85.0538
71.1813
57.3546
47.9657
43.3373
41.1514
40.4811
37.4609
35.0195
40.6847
49.9173
56.7664
64.3266
73.282
79.8524
81.6332
80.3487
76.5484
69.4717
61.5514
53.5731
47.437
43.3731
41.4667
43.2923
47.4946
52.8501
58.808
65.1329
70.7922
74.5347
75.9899
75.9415
75.2531
73.6179
72.0071
70.5744
71.3699
73.5241
76.9902
80.4287
83.2997
85.2578
86.7486
87.5609
88.2359
88.5228
88.8263
88.8979
89.0702
89.0874
89.1711
89.1707
89.2016
89.2035
89.2419
89.2425
89.255
89.2631
89.2696
89.275
89.2686
89.2582
89.2369
89.2001
89.1435
89.0653
88.969
88.8453
88.6932
88.5094
88.293