/*--------------------------------*- C++ -*----------------------------------*\
| =========                 |                                                 |
| \\      /  F ield         | OpenFOAM: The Open Source CFD Toolbox           |
|  \\    /   O peration     | Version:  2.4.0                                 |
|   \\  /    A nd           | Web:      www.OpenFOAM.org                      |
|    \\/     M anipulation  |                                                 |
\*---------------------------------------------------------------------------*/
FoamFile
{
    version     2.0;
    format      ascii;
    class       volVectorField;
    location    "0.07";
    object      U_0;
}
// * * * * * * * * * * * * * * * * * * * * * * * * * * * * * * * * * * * * * //

dimensions      [0 1 -1 0 0 0 0];

internalField   nonuniform List<vector> 
4400
(
(5.40403 0.316816 0)
(3.31643 0.0607319 0)
(2.58454 0.00136076 0)
(2.23237 -0.00181023 0)
(2.08661 -0.0018102 0)
(1.99462 -0.000535038 0)
(1.95837 -0.000191778 0)
(1.90192 0.000963373 0)
(1.91224 0.00148507 0)
(1.62236 -0.0598589 0)
(8.68326 0.85727 0)
(7.54537 0.344369 0)
(6.62786 0.116405 0)
(5.90809 0.0550514 0)
(5.53737 0.0260233 0)
(5.26304 0.0159218 0)
(5.1597 0.0101814 0)
(5.00544 0.00750348 0)
(5.05294 0.0224415 0)
(4.59821 -0.0883138 0)
(9.88589 0.937196 0)
(10.0008 0.476787 0)
(9.49037 0.214078 0)
(8.74439 0.128842 0)
(8.29873 0.0739769 0)
(7.89675 0.0465179 0)
(7.75697 0.02936 0)
(7.51243 0.0177546 0)
(7.6029 0.0389728 0)
(7.11638 -0.0759797 0)
(10.109 0.806778 0)
(11.13 0.496692 0)
(11.2743 0.268451 0)
(10.8095 0.19466 0)
(10.4864 0.128918 0)
(10.0607 0.0860982 0)
(9.94117 0.0566481 0)
(9.62721 0.0321189 0)
(9.75213 0.0526064 0)
(9.33262 -0.0533752 0)
(10.025 0.647041 0)
(11.3421 0.433513 0)
(11.996 0.251305 0)
(11.9365 0.213643 0)
(11.9188 0.162576 0)
(11.6259 0.120974 0)
(11.6111 0.0837073 0)
(11.2919 0.0519969 0)
(11.4587 0.0566222 0)
(11.1341 -0.0134324 0)
(9.9792 0.516459 0)
(11.2467 0.352796 0)
(12.0772 0.196899 0)
(12.2218 0.181459 0)
(12.4838 0.152058 0)
(12.4434 0.126858 0)
(12.5978 0.0970325 0)
(12.376 0.0634316 0)
(12.6189 0.0554851 0)
(12.4418 0.0396126 0)
(9.95043 0.402433 0)
(11.1812 0.275956 0)
(12.0233 0.146079 0)
(12.1977 0.13926 0)
(12.4788 0.113249 0)
(12.6951 0.106504 0)
(12.8892 0.0852293 0)
(12.8037 0.0632133 0)
(13.1274 0.027567 0)
(13.1462 0.0983626 0)
(9.92831 0.287535 0)
(11.2424 0.191363 0)
(11.9025 0.10671 0)
(12.1625 0.111668 0)
(12.4093 0.0583707 0)
(12.7637 0.0750132 0)
(12.8057 0.0716118 0)
(12.8909 0.0569249 0)
(13.2197 -0.0189244 0)
(13.2626 0.0831129 0)
(9.99771 0.171632 0)
(11.2111 0.105002 0)
(11.748 0.0829498 0)
(12.241 0.0648309 0)
(12.4536 0.015525 0)
(12.5911 0.0511581 0)
(12.7233 0.0605336 0)
(13.0187 0.0186436 0)
(13.2294 -0.0396589 0)
(13.1341 0.0129774 0)
(10.0436 0.054762 0)
(11.075 0.0337542 0)
(11.783 0.0383659 0)
(12.3103 0.0168007 0)
(12.3858 -0.0117085 0)
(12.4976 0.0311884 0)
(12.7894 0.0180665 0)
(13.043 -0.00258834 0)
(13.1422 -0.0576767 0)
(13.1448 -0.0493891 0)
(10.0144 -0.0510866 0)
(11.0599 -0.0532621 0)
(11.8819 -0.0090357 0)
(12.2425 -0.018137 0)
(12.3809 -0.0344464 0)
(12.5645 -0.00794857 0)
(12.7425 -0.0118712 0)
(13.026 -0.0252276 0)
(13.1705 -0.0778632 0)
(13.171 -0.092418 0)
(9.9984 -0.161463 0)
(11.1422 -0.142386 0)
(11.8763 -0.045957 0)
(12.1996 -0.0538401 0)
(12.4595 -0.0761403 0)
(12.5454 -0.0290811 0)
(12.7389 -0.0378159 0)
(13.0846 -0.0607242 0)
(13.1874 -0.0953538 0)
(13.0791 -0.0962034 0)
(10.0447 -0.276302 0)
(11.161 -0.225274 0)
(11.8872 -0.0818789 0)
(12.219 -0.0992998 0)
(12.4929 -0.103217 0)
(12.549 -0.054706 0)
(12.8352 -0.0770183 0)
(13.089 -0.0871383 0)
(13.141 -0.0942721 0)
(13.096 -0.135697 0)
(10.071 -0.396467 0)
(11.1545 -0.295149 0)
(11.9663 -0.126854 0)
(12.2449 -0.140354 0)
(12.5332 -0.139799 0)
(12.5866 -0.086117 0)
(12.8772 -0.104269 0)
(12.956 -0.103289 0)
(13.0247 -0.108446 0)
(12.9388 -0.176947 0)
(10.051 -0.517155 0)
(11.2163 -0.361652 0)
(12.0425 -0.182705 0)
(12.2721 -0.18685 0)
(12.458 -0.1706 0)
(12.4279 -0.110405 0)
(12.5677 -0.118876 0)
(12.4404 -0.10759 0)
(12.4487 -0.109141 0)
(12.2005 -0.175998 0)
(10.0686 -0.647748 0)
(11.3068 -0.436949 0)
(11.9842 -0.243689 0)
(11.9757 -0.21842 0)
(11.866 -0.17537 0)
(11.6376 -0.108867 0)
(11.5688 -0.105188 0)
(11.2949 -0.0887559 0)
(11.2356 -0.0940076 0)
(10.877 -0.151569 0)
(10.1329 -0.807787 0)
(11.1023 -0.498363 0)
(11.275 -0.264632 0)
(10.8347 -0.1977 0)
(10.4332 -0.137629 0)
(10.0751 -0.078656 0)
(9.89777 -0.0732068 0)
(9.58606 -0.0612288 0)
(9.50366 -0.0719015 0)
(9.09349 -0.103235 0)
(9.89646 -0.93744 0)
(9.98231 -0.477251 0)
(9.49543 -0.212612 0)
(8.75796 -0.13008 0)
(8.25565 -0.0796755 0)
(7.90503 -0.0421929 0)
(7.71817 -0.0402824 0)
(7.44414 -0.0355066 0)
(7.36434 -0.0451721 0)
(6.94518 -0.05999 0)
(8.68797 -0.857405 0)
(7.53569 -0.344654 0)
(6.63092 -0.116141 0)
(5.91399 -0.0550498 0)
(5.50902 -0.0291352 0)
(5.26362 -0.0139649 0)
(5.12921 -0.0150693 0)
(4.93752 -0.015271 0)
(4.86901 -0.0197643 0)
(4.51692 -0.0264319 0)
(5.4047 -0.316777 0)
(3.31409 -0.0607323 0)
(2.58391 -0.00144539 0)
(2.23465 0.00221907 0)
(2.07554 0.000942684 0)
(1.99093 0.00116668 0)
(1.94432 -0.00016746 0)
(1.86939 -0.00104587 0)
(1.83033 -0.000796418 0)
(1.6647 0.00852983 0)
(2.65054 0.0876244 0)
(2.42742 0.341307 0)
(3.50473 0.680095 0)
(4.75726 1.33225 0)
(6.27025 1.1359 0)
(7.11697 0.648703 0)
(7.48681 -0.0378703 0)
(7.64902 -0.514716 0)
(7.77511 -0.685613 0)
(8.04988 -1.43397 0)
(8.97797 -2.38523 0)
(9.68869 -2.53678 0)
(10.2557 -2.9329 0)
(11.5173 -3.8901 0)
(11.2313 -3.92434 0)
(10.7015 -3.14352 0)
(10.7648 -2.75981 0)
(10.0596 -1.94796 0)
(9.60882 -0.183132 0)
(9.94974 0.789976 0)
(10.1091 1.05206 0)
(10.6283 1.11834 0)
(11.0898 0.968245 0)
(10.797 0.758845 0)
(11.1513 -0.273889 0)
(11.1629 -0.830809 0)
(10.9763 -1.04046 0)
(11.5044 -2.56217 0)
(11.1892 -3.64054 0)
(10.2149 -3.77871 0)
(9.96094 -4.91116 0)
(9.42172 -6.00397 0)
(7.79566 -5.29645 0)
(6.15196 -4.37218 0)
(5.06066 -5.21138 0)
(5.17585 -6.79955 0)
(4.92977 -7.87574 0)
(6.35026 -7.14392 0)
(5.92758 -6.13189 0)
(6.38968 -4.34794 0)
(7.04453 -2.78026 0)
(7.39247 -1.00075 0)
(7.9818 0.872084 0)
(8.47649 3.05604 0)
(8.50536 4.37563 0)
(8.29424 5.15427 0)
(8.79654 6.00406 0)
(9.04557 7.40109 0)
(9.69948 7.90809 0)
(8.75023 8.05211 0)
(9.0631 6.85252 0)
(7.83224 6.13543 0)
(7.88284 4.27323 0)
(6.71425 4.01088 0)
(7.34256 1.98444 0)
(6.94408 1.71718 0)
(7.3735 -0.979393 0)
(7.084 -0.923012 0)
(7.102 -2.93815 0)
(6.71874 -1.82938 0)
(6.60627 -2.92821 0)
(6.13371 -1.36898 0)
(6.28385 -2.24866 0)
(5.93126 -0.52359 0)
(6.14252 -1.66766 0)
(5.87327 0.00116858 0)
(6.04271 -1.14418 0)
(5.80425 0.171761 0)
(5.99195 -0.883235 0)
(5.73867 0.45686 0)
(5.92988 -0.822122 0)
(5.78414 0.497346 0)
(5.92275 -0.546301 0)
(5.71839 0.570953 0)
(5.97936 -0.526453 0)
(5.79435 0.671564 0)
(5.9286 -0.315824 0)
(5.78094 0.667645 0)
(6.03147 -0.224676 0)
(5.82029 0.768154 0)
(5.9722 -0.0151256 0)
(5.80932 0.780817 0)
(6.08456 0.107158 0)
(5.84063 0.871625 0)
(6.03504 0.411532 0)
(5.87619 0.917754 0)
(6.05109 0.582556 0)
(5.98988 1.08215 0)
(6.05572 0.889499 0)
(6.00781 1.2981 0)
(5.97563 1.10569 0)
(6.03119 1.60951 0)
(5.86523 1.5008 0)
(5.81148 2.09684 0)
(6.10194 1.9956 0)
(5.84107 2.98886 0)
(6.53979 2.69585 0)
(6.01784 4.47412 0)
(7.06217 4.86551 0)
(3.92953 9.0078 0)
(5.22005 0.205664 0)
(4.92753 0.350801 0)
(5.13689 0.394038 0)
(5.78864 0.744695 0)
(6.84804 0.653002 0)
(7.61029 0.418379 0)
(8.22348 -0.163265 0)
(8.54045 -0.709772 0)
(9.14084 -0.90875 0)
(10.0133 -1.56832 0)
(10.8126 -2.62818 0)
(11.3206 -2.8486 0)
(11.7254 -3.08511 0)
(12.6305 -3.94509 0)
(12.1757 -3.78053 0)
(11.2818 -2.98324 0)
(11.3862 -2.68648 0)
(10.5512 -1.83563 0)
(10.0493 -0.183266 0)
(10.5226 0.707902 0)
(10.6198 1.00536 0)
(11.0373 0.99026 0)
(11.2814 0.901093 0)
(10.91 0.761882 0)
(11.2675 -0.289594 0)
(11.244 -0.856213 0)
(11.0288 -1.11917 0)
(11.3888 -2.52677 0)
(10.9364 -3.3753 0)
(10.0667 -3.59519 0)
(9.94843 -4.8124 0)
(9.30406 -5.57327 0)
(7.55185 -4.60836 0)
(5.77785 -3.79615 0)
(4.71003 -4.96508 0)
(4.54751 -6.83139 0)
(4.39918 -7.9913 0)
(5.49949 -7.28237 0)
(4.87092 -6.17987 0)
(5.50211 -4.49096 0)
(6.08143 -3.08741 0)
(6.60945 -1.11866 0)
(7.09447 0.695846 0)
(7.53191 2.94644 0)
(7.79859 4.2937 0)
(7.51201 5.15127 0)
(8.1842 5.79483 0)
(8.37841 7.23148 0)
(9.44932 7.83157 0)
(8.56776 8.15463 0)
(8.94299 6.92654 0)
(7.87648 6.35236 0)
(8.37562 4.43133 0)
(7.38631 4.21255 0)
(7.67788 1.96517 0)
(7.41589 1.75592 0)
(7.81163 -1.05261 0)
(7.5311 -0.851055 0)
(7.47347 -2.93867 0)
(7.12144 -1.69047 0)
(6.90423 -2.85294 0)
(6.37521 -1.17326 0)
(6.36417 -2.24314 0)
(5.92338 -0.346675 0)
(5.92872 -1.7398 0)
(5.78428 0.151969 0)
(5.80509 -1.26712 0)
(5.59716 0.347946 0)
(5.80215 -1.03839 0)
(5.59933 0.617792 0)
(5.74897 -1.01268 0)
(5.61426 0.676866 0)
(5.8808 -0.750411 0)
(5.56891 0.727142 0)
(5.9632 -0.757302 0)
(5.7032 0.853993 0)
(6.04084 -0.567008 0)
(5.71771 0.816775 0)
(6.20334 -0.4629 0)
(5.8691 0.954155 0)
(6.20412 -0.280819 0)
(5.9324 0.95138 0)
(6.3132 -0.126682 0)
(6.07287 1.09542 0)
(6.17109 0.137796 0)
(6.09701 1.1193 0)
(6.12855 0.346086 0)
(6.16182 1.33032 0)
(5.96065 0.624641 0)
(6.11345 1.51158 0)
(6.03982 0.920839 0)
(6.00711 1.84246 0)
(6.24365 1.2601 0)
(6.14216 2.35312 0)
(6.28972 1.82521 0)
(5.92427 3.41771 0)
(6.39365 2.65845 0)
(4.92906 4.78482 0)
(8.61192 4.04819 0)
(6.40065 9.37603 0)
(7.49028 0.176258 0)
(7.41645 0.270693 0)
(7.41256 0.28031 0)
(7.90272 0.50469 0)
(8.5181 0.441211 0)
(9.04602 0.216771 0)
(9.8561 -0.327968 0)
(10.2276 -0.855712 0)
(10.7298 -1.30641 0)
(11.7175 -1.97844 0)
(12.3148 -2.85569 0)
(12.5414 -3.11981 0)
(12.7882 -3.23362 0)
(13.2399 -3.95597 0)
(12.6731 -3.59915 0)
(11.7635 -2.68215 0)
(11.7987 -2.49676 0)
(11.0207 -1.61489 0)
(10.3921 -0.121195 0)
(10.7253 0.601628 0)
(10.8031 0.934279 0)
(11.2855 0.929087 0)
(11.3353 0.8881 0)
(10.97 0.718083 0)
(11.3455 -0.29331 0)
(11.1762 -0.796068 0)
(10.9361 -1.22318 0)
(11.2827 -2.4712 0)
(10.7596 -3.06528 0)
(10.0261 -3.38266 0)
(9.95701 -4.59367 0)
(9.11437 -5.06409 0)
(7.20162 -3.86792 0)
(5.4153 -3.18095 0)
(4.27056 -4.65598 0)
(3.907 -6.81189 0)
(3.76436 -8.02 0)
(4.52963 -7.36608 0)
(4.00472 -6.21028 0)
(4.85656 -4.63977 0)
(5.10275 -3.41936 0)
(5.69859 -1.21484 0)
(6.12578 0.526246 0)
(6.56925 2.83487 0)
(6.84988 4.20008 0)
(6.77238 5.07913 0)
(7.56059 5.58792 0)
(7.6396 6.99008 0)
(8.96206 7.69503 0)
(8.35259 8.25766 0)
(8.80647 6.97952 0)
(7.92667 6.51269 0)
(8.33285 4.44124 0)
(7.92722 4.31761 0)
(8.09261 2.02542 0)
(7.81583 1.77377 0)
(8.17398 -1.08318 0)
(7.95459 -0.747085 0)
(7.71196 -2.84831 0)
(7.32928 -1.53156 0)
(7.12699 -2.7665 0)
(6.58824 -1.03267 0)
(6.66916 -2.22714 0)
(6.11302 -0.173553 0)
(6.16207 -1.80288 0)
(5.92871 0.281771 0)
(5.90669 -1.31462 0)
(5.67289 0.454947 0)
(5.86271 -1.14061 0)
(5.61499 0.767016 0)
(5.7482 -1.1326 0)
(5.61037 0.789605 0)
(5.83581 -0.863051 0)
(5.51899 0.877609 0)
(5.91581 -0.946123 0)
(5.61512 1.01568 0)
(6.02476 -0.727088 0)
(5.60104 0.973872 0)
(6.27243 -0.707569 0)
(5.75318 1.14569 0)
(6.38894 -0.490502 0)
(5.87463 1.10876 0)
(6.7463 -0.396637 0)
(6.06475 1.29579 0)
(6.84731 -0.0574026 0)
(6.25844 1.32964 0)
(7.03314 0.113056 0)
(6.36545 1.53647 0)
(6.9967 0.533433 0)
(6.25615 1.70654 0)
(6.72662 0.738472 0)
(6.09312 1.98491 0)
(6.70413 0.995763 0)
(6.0364 2.44695 0)
(7.09521 1.33724 0)
(6.29622 3.33373 0)
(8.81885 2.43909 0)
(5.64085 5.19357 0)
(9.34439 3.48568 0)
(7.03439 9.60272 0)
(9.50049 0.192254 0)
(9.65159 0.21025 0)
(9.48616 0.137424 0)
(9.96633 0.280457 0)
(10.5132 0.305547 0)
(10.8706 0.0418713 0)
(11.583 -0.601206 0)
(11.9085 -0.990983 0)
(12.4325 -1.51277 0)
(13.189 -2.25522 0)
(13.4431 -2.88891 0)
(13.3906 -3.23124 0)
(13.5045 -3.28733 0)
(13.6409 -3.73307 0)
(12.7636 -3.33039 0)
(11.9791 -2.4557 0)
(11.7943 -2.36469 0)
(10.9803 -1.45814 0)
(10.5355 -0.0390243 0)
(10.7423 0.543197 0)
(10.7422 0.844882 0)
(11.2407 0.88467 0)
(11.254 0.936518 0)
(11.0651 0.704392 0)
(11.3878 -0.211955 0)
(11.0682 -0.696559 0)
(10.967 -1.2758 0)
(11.1797 -2.38175 0)
(10.5467 -2.81026 0)
(9.94154 -3.23582 0)
(9.90374 -4.38318 0)
(8.86127 -4.48681 0)
(6.76754 -3.11133 0)
(4.90294 -2.60965 0)
(3.82492 -4.38437 0)
(3.25746 -6.74248 0)
(3.07377 -8.04576 0)
(3.54793 -7.43249 0)
(3.32825 -6.28467 0)
(4.31905 -4.77963 0)
(3.9967 -3.66846 0)
(4.69083 -1.30405 0)
(5.07901 0.363758 0)
(5.43589 2.73807 0)
(5.99044 4.01303 0)
(5.7922 4.96268 0)
(6.87399 5.35399 0)
(6.93773 6.72765 0)
(8.46089 7.4494 0)
(8.16904 8.22751 0)
(8.66285 7.03155 0)
(7.92893 6.61897 0)
(8.1358 4.36097 0)
(7.84073 4.31105 0)
(8.3004 1.95796 0)
(8.24133 1.81295 0)
(8.34814 -1.14214 0)
(8.32009 -0.635361 0)
(7.73901 -2.75001 0)
(7.38353 -1.33547 0)
(6.99666 -2.67687 0)
(6.4735 -0.831144 0)
(6.50357 -2.24287 0)
(6.06516 0.0375168 0)
(6.03957 -1.89339 0)
(5.88508 0.434368 0)
(5.94451 -1.40723 0)
(5.55376 0.594719 0)
(5.98671 -1.29891 0)
(5.55818 0.936209 0)
(5.8259 -1.30884 0)
(5.51993 0.927391 0)
(6.01322 -1.04261 0)
(5.39126 1.04305 0)
(6.05387 -1.16354 0)
(5.5052 1.1841 0)
(6.205 -0.952889 0)
(5.40289 1.14493 0)
(6.42602 -0.967071 0)
(5.56762 1.36425 0)
(6.58864 -0.807707 0)
(5.60411 1.28673 0)
(7.00458 -0.71783 0)
(5.84397 1.55194 0)
(7.25248 -0.476712 0)
(6.11284 1.53018 0)
(7.75353 -0.2544 0)
(6.50547 1.80427 0)
(7.96032 0.140838 0)
(6.7809 2.07472 0)
(7.98604 0.534962 0)
(6.73819 2.4155 0)
(7.59165 0.885187 0)
(5.97174 2.98301 0)
(7.30248 1.11353 0)
(4.90655 3.56809 0)
(8.91673 1.61338 0)
(5.88387 5.17991 0)
(11.5311 2.22618 0)
(8.82046 8.76741 0)
(11.1266 0.168364 0)
(11.4586 0.110526 0)
(11.4143 0.0505706 0)
(11.7536 0.0887 0)
(12.1155 0.104169 0)
(12.4926 -0.106608 0)
(13.1323 -0.783247 0)
(13.1579 -1.1177 0)
(13.7185 -1.69256 0)
(14.1854 -2.48998 0)
(14.0551 -2.89014 0)
(13.9953 -3.23853 0)
(13.8018 -3.30022 0)
(13.6503 -3.4828 0)
(12.633 -3.06591 0)
(12.1184 -2.248 0)
(12.0526 -2.08632 0)
(11.0113 -1.20934 0)
(10.5786 0.0627163 0)
(10.6829 0.525546 0)
(10.6139 0.768308 0)
(11.0882 0.852855 0)
(11.1464 0.89879 0)
(11.1806 0.600902 0)
(11.3605 -0.135663 0)
(10.9692 -0.572668 0)
(10.9601 -1.32213 0)
(10.9663 -2.27617 0)
(10.2678 -2.51126 0)
(9.83607 -3.07537 0)
(9.72224 -4.16092 0)
(8.60223 -3.86772 0)
(6.41651 -2.28521 0)
(4.57372 -1.99352 0)
(3.42872 -4.00742 0)
(2.67512 -6.60706 0)
(2.38604 -8.00798 0)
(2.60117 -7.52293 0)
(2.62928 -6.36946 0)
(3.53915 -4.89541 0)
(2.74826 -3.77998 0)
(3.59995 -1.34092 0)
(3.87357 0.139313 0)
(4.34291 2.63214 0)
(4.91227 3.81854 0)
(4.92492 4.77979 0)
(6.12095 5.06085 0)
(6.19894 6.4419 0)
(7.64525 7.08071 0)
(7.77645 8.16304 0)
(8.437 7.03081 0)
(8.03239 6.77691 0)
(8.28381 4.50053 0)
(8.07186 4.35766 0)
(8.28696 1.8494 0)
(8.73526 1.80187 0)
(8.46331 -1.14426 0)
(8.60763 -0.508844 0)
(7.86608 -2.5763 0)
(7.64287 -1.13036 0)
(7.06912 -2.5056 0)
(6.69427 -0.648764 0)
(6.34881 -2.19927 0)
(6.20525 0.211407 0)
(5.83793 -1.92172 0)
(5.9306 0.55088 0)
(5.77142 -1.4033 0)
(5.57881 0.692801 0)
(5.73214 -1.3899 0)
(5.60913 1.09466 0)
(5.55266 -1.42005 0)
(5.50671 1.01574 0)
(5.78421 -1.12386 0)
(5.37364 1.1843 0)
(5.75764 -1.35395 0)
(5.47904 1.3191 0)
(5.94614 -1.08065 0)
(5.32323 1.28429 0)
(6.13449 -1.21779 0)
(5.49672 1.53881 0)
(6.3539 -1.0083 0)
(5.42465 1.45201 0)
(6.76927 -1.05949 0)
(5.67046 1.76622 0)
(7.24038 -0.822071 0)
(5.79854 1.69319 0)
(8.03566 -0.795544 0)
(6.26375 2.02121 0)
(9.11457 -0.374132 0)
(6.62674 2.19573 0)
(10.3768 -0.0945407 0)
(7.30017 2.51399 0)
(11.7004 0.634291 0)
(6.87132 3.14963 0)
(12.1655 1.34904 0)
(5.67636 3.93968 0)
(10.9987 1.60573 0)
(5.10943 5.74582 0)
(9.53149 1.26453 0)
(9.00216 8.21229 0)
(12.4243 0.143029 0)
(12.6225 -0.105139 0)
(12.7021 -0.152931 0)
(13.1474 -0.0115556 0)
(13.3157 0.00844695 0)
(13.6569 -0.209439 0)
(14.189 -0.876672 0)
(14.0173 -1.21957 0)
(14.5326 -1.80894 0)
(14.7776 -2.52242 0)
(14.2889 -2.78573 0)
(14.2473 -3.20149 0)
(13.7713 -3.21195 0)
(13.4285 -3.13513 0)
(12.6788 -2.7811 0)
(12.159 -2.12182 0)
(12.1751 -1.89541 0)
(11.1713 -1.01946 0)
(10.8347 0.159487 0)
(11.0575 0.556524 0)
(10.9313 0.738768 0)
(10.9937 0.839283 0)
(10.9021 0.854188 0)
(11.0295 0.530064 0)
(11.0925 -0.0118359 0)
(10.8437 -0.460769 0)
(10.8749 -1.32105 0)
(10.562 -2.09757 0)
(9.81304 -2.30259 0)
(9.64655 -2.97773 0)
(9.59779 -3.86874 0)
(8.23424 -3.22502 0)
(6.02515 -1.49794 0)
(4.20939 -1.3771 0)
(3.04241 -3.6312 0)
(2.10771 -6.40174 0)
(1.64763 -7.92237 0)
(1.70843 -7.5737 0)
(1.78918 -6.43695 0)
(2.46753 -4.95436 0)
(1.40821 -3.76147 0)
(2.50862 -1.4421 0)
(2.57245 -0.125761 0)
(3.13804 2.56668 0)
(3.89015 3.53622 0)
(3.91345 4.56422 0)
(5.35581 4.73782 0)
(5.55661 6.24357 0)
(7.02148 6.63357 0)
(7.37995 7.93607 0)
(8.24472 6.82493 0)
(8.03277 6.81011 0)
(8.25809 4.45138 0)
(8.38147 4.34778 0)
(8.52295 1.72723 0)
(8.93476 1.79946 0)
(8.70957 -1.11739 0)
(8.69619 -0.34134 0)
(8.02974 -2.42855 0)
(7.64206 -0.911063 0)
(7.22673 -2.40345 0)
(6.69402 -0.427435 0)
(6.51658 -2.19693 0)
(6.17012 0.390911 0)
(6.06157 -1.96324 0)
(5.81529 0.671138 0)
(5.96526 -1.47974 0)
(5.53847 0.839585 0)
(5.85483 -1.56239 0)
(5.54919 1.2555 0)
(5.75562 -1.53485 0)
(5.39382 1.12774 0)
(5.94761 -1.28294 0)
(5.32683 1.37425 0)
(5.8215 -1.54892 0)
(5.37712 1.45921 0)
(6.05381 -1.24508 0)
(5.19916 1.47636 0)
(6.10681 -1.45975 0)
(5.34502 1.72725 0)
(6.33021 -1.21474 0)
(5.16876 1.67602 0)
(6.58014 -1.33133 0)
(5.31444 2.00206 0)
(7.03395 -1.05712 0)
(5.13408 2.03037 0)
(7.55255 -1.10535 0)
(5.28171 2.3069 0)
(8.75446 -0.723705 0)
(5.18635 2.54123 0)
(10.0911 -0.644169 0)
(5.67154 2.73999 0)
(12.31 -0.0401377 0)
(6.44462 3.33312 0)
(14.0413 0.473799 0)
(7.71552 4.20901 0)
(14.2866 0.874405 0)
(8.60417 5.86763 0)
(11.502 1.434 0)
(8.92998 7.28355 0)
(13.2658 0.114534 0)
(13.4058 -0.239582 0)
(13.3453 -0.386655 0)
(13.6509 -0.165788 0)
(13.8379 -0.108221 0)
(14.1986 -0.31728 0)
(14.5577 -0.929063 0)
(14.5286 -1.30778 0)
(14.8475 -1.86563 0)
(14.7938 -2.50425 0)
(14.2725 -2.73392 0)
(14.253 -3.09924 0)
(13.6839 -2.99382 0)
(13.1738 -2.86696 0)
(12.9207 -2.66088 0)
(12.4716 -2.01288 0)
(12.4097 -1.67619 0)
(11.6027 -0.866828 0)
(11.2658 0.132909 0)
(11.464 0.508965 0)
(11.2452 0.801167 0)
(10.8937 1.00901 0)
(10.7881 0.845589 0)
(10.9254 0.420472 0)
(10.758 0.0383954 0)
(10.5853 -0.436925 0)
(10.5244 -1.2629 0)
(10.0594 -1.87183 0)
(9.4357 -2.18244 0)
(9.519 -2.98711 0)
(9.42601 -3.56512 0)
(7.9315 -2.48906 0)
(5.62072 -0.674371 0)
(3.84923 -0.792712 0)
(2.71051 -3.21604 0)
(1.64023 -6.11134 0)
(0.958745 -7.76415 0)
(0.905321 -7.6197 0)
(0.882062 -6.49572 0)
(1.32103 -4.88027 0)
(0.250678 -3.7221 0)
(1.44414 -1.54691 0)
(1.25118 -0.394076 0)
(2.0124 2.43347 0)
(2.81311 3.27882 0)
(2.8652 4.2846 0)
(4.48052 4.21543 0)
(4.84358 6.0749 0)
(5.95678 6.09131 0)
(6.65445 7.70989 0)
(7.6548 6.52586 0)
(8.10357 6.77088 0)
(8.20925 4.36367 0)
(8.60197 4.27999 0)
(8.69792 1.63175 0)
(9.12169 1.82884 0)
(8.60165 -1.08101 0)
(8.81817 -0.169087 0)
(7.7426 -2.25235 0)
(7.61892 -0.688838 0)
(6.8916 -2.25432 0)
(6.69022 -0.220242 0)
(6.23234 -2.15142 0)
(6.24551 0.544065 0)
(5.82371 -1.95129 0)
(5.87546 0.760553 0)
(5.71826 -1.50638 0)
(5.64902 0.928542 0)
(5.60654 -1.63993 0)
(5.59649 1.34957 0)
(5.58145 -1.60421 0)
(5.43337 1.18889 0)
(5.66995 -1.4005 0)
(5.40412 1.49453 0)
(5.59553 -1.69923 0)
(5.37759 1.53985 0)
(5.83892 -1.36923 0)
(5.25687 1.59845 0)
(5.83426 -1.67489 0)
(5.3575 1.83591 0)
(6.11657 -1.37696 0)
(5.21638 1.76829 0)
(6.23698 -1.58776 0)
(5.36322 2.07743 0)
(6.60116 -1.25577 0)
(5.18706 2.06701 0)
(6.73243 -1.40672 0)
(5.38082 2.29437 0)
(7.27995 -0.952566 0)
(5.02358 2.63684 0)
(7.33724 -1.08736 0)
(5.16239 3.01042 0)
(8.29623 -0.573848 0)
(5.68507 3.79643 0)
(9.26332 -0.367809 0)
(7.04264 4.76656 0)
(11.501 0.184181 0)
(9.10171 6.0169 0)
(13.3096 1.99929 0)
(9.95841 6.52764 0)
(13.5015 0.106641 0)
(13.8139 -0.286082 0)
(13.5905 -0.428947 0)
(13.4832 -0.185444 0)
(13.7254 -0.252444 0)
(14.15 -0.431305 0)
(14.386 -0.989005 0)
(14.5457 -1.42922 0)
(14.6968 -1.87742 0)
(14.4834 -2.406 0)
(14.2207 -2.5999 0)
(14.0504 -2.95921 0)
(13.5893 -2.81242 0)
(13.2749 -2.65818 0)
(13.2013 -2.58477 0)
(12.6501 -1.94718 0)
(12.554 -1.5598 0)
(12.1691 -0.773959 0)
(11.6257 0.24078 0)
(11.6414 0.602694 0)
(11.4649 0.892723 0)
(10.9464 1.11184 0)
(10.9284 0.832823 0)
(10.7084 0.470702 0)
(10.2844 0.176833 0)
(10.2606 -0.374136 0)
(10.1076 -1.19121 0)
(9.66115 -1.74409 0)
(9.43394 -2.13124 0)
(9.61469 -2.91028 0)
(9.22632 -3.17933 0)
(7.53801 -1.7502 0)
(5.21876 0.122359 0)
(3.58057 -0.210573 0)
(2.48306 -2.7652 0)
(1.30315 -5.73081 0)
(0.372383 -7.57261 0)
(0.154315 -7.62738 0)
(0.0660858 -6.52908 0)
(0.387273 -4.77182 0)
(-0.618958 -3.68984 0)
(0.546598 -1.72394 0)
(0.0347762 -0.58303 0)
(0.971572 2.27217 0)
(1.67045 2.90566 0)
(2.15422 4.04298 0)
(3.48942 3.61822 0)
(4.39614 5.99633 0)
(5.27692 5.63154 0)
(6.1671 7.38293 0)
(6.91053 5.98219 0)
(7.92472 6.632 0)
(7.96936 4.16887 0)
(8.57978 4.14307 0)
(8.42236 1.49536 0)
(9.19964 1.84073 0)
(8.39911 -1.0448 0)
(8.78117 0.0396294 0)
(7.60553 -2.04469 0)
(7.66666 -0.46687 0)
(6.92553 -2.09524 0)
(6.74826 -0.0493074 0)
(6.26832 -2.09651 0)
(6.25385 0.676226 0)
(5.83982 -1.93943 0)
(5.83868 0.854869 0)
(5.77206 -1.54058 0)
(5.58295 1.04814 0)
(5.6646 -1.73581 0)
(5.53326 1.471 0)
(5.64347 -1.68059 0)
(5.3755 1.30494 0)
(5.6802 -1.53405 0)
(5.36449 1.65485 0)
(5.65053 -1.81592 0)
(5.27778 1.64854 0)
(5.81707 -1.52247 0)
(5.22099 1.79179 0)
(5.80273 -1.87788 0)
(5.2181 1.96181 0)
(6.0902 -1.5538 0)
(5.11991 2.00802 0)
(6.13589 -1.87398 0)
(5.18851 2.23682 0)
(6.54596 -1.4961 0)
(5.11622 2.34317 0)
(6.65169 -1.7677 0)
(5.22195 2.42327 0)
(7.1803 -1.27659 0)
(5.33176 2.89797 0)
(7.23113 -1.4765 0)
(5.60717 2.97569 0)
(7.56977 -1.19994 0)
(6.32218 3.93124 0)
(7.6143 -1.10217 0)
(6.86742 4.98154 0)
(9.02585 -0.550619 0)
(8.09234 5.73097 0)
(12.0731 1.73145 0)
(10.7869 5.98375 0)
(13.5333 0.0375823 0)
(13.7793 -0.281241 0)
(13.3083 -0.284369 0)
(13.3173 -0.147704 0)
(13.7247 -0.414992 0)
(14.0897 -0.559966 0)
(14.3302 -1.06899 0)
(14.4031 -1.5008 0)
(14.4439 -1.80156 0)
(14.1907 -2.36801 0)
(14.1251 -2.56516 0)
(13.8887 -2.79183 0)
(13.5241 -2.71722 0)
(13.4224 -2.62025 0)
(13.2204 -2.53915 0)
(12.7109 -1.82672 0)
(12.5468 -1.39401 0)
(12.1092 -0.645045 0)
(11.5933 0.35008 0)
(11.8135 0.638227 0)
(11.3383 1.02165 0)
(10.692 1.27349 0)
(10.8532 0.935424 0)
(10.4317 0.628749 0)
(10.0572 0.273805 0)
(10.036 -0.357626 0)
(9.80843 -1.07436 0)
(9.58519 -1.63384 0)
(9.52043 -2.15381 0)
(9.56304 -2.80367 0)
(8.92727 -2.66164 0)
(7.0591 -0.927354 0)
(4.79368 0.89075 0)
(3.37066 0.342174 0)
(2.35793 -2.31195 0)
(1.11173 -5.29611 0)
(-0.0856102 -7.30155 0)
(-0.533581 -7.55831 0)
(-0.61133 -6.47951 0)
(-0.391455 -4.72268 0)
(-1.19493 -3.69546 0)
(-0.221038 -1.84478 0)
(-1.06402 -0.656319 0)
(0.0244213 2.04548 0)
(0.633592 2.62892 0)
(1.04632 3.69151 0)
(2.44448 2.81813 0)
(3.69751 5.84298 0)
(3.9988 4.9516 0)
(5.43123 7.24461 0)
(5.83853 5.45183 0)
(7.60116 6.49845 0)
(7.45422 3.95565 0)
(8.53434 4.07821 0)
(8.21485 1.44242 0)
(9.06106 1.83041 0)
(8.27478 -0.945682 0)
(8.59684 0.244945 0)
(7.53621 -1.872 0)
(7.60884 -0.312617 0)
(6.84031 -1.93325 0)
(6.70673 0.0965464 0)
(6.20027 -1.98977 0)
(6.22247 0.781831 0)
(5.81766 -1.85027 0)
(5.85252 0.905813 0)
(5.71274 -1.50517 0)
(5.67403 1.09773 0)
(5.56534 -1.73436 0)
(5.59562 1.48199 0)
(5.56366 -1.68003 0)
(5.44037 1.34377 0)
(5.53737 -1.59597 0)
(5.43992 1.69109 0)
(5.52621 -1.89662 0)
(5.33016 1.71692 0)
(5.62804 -1.65001 0)
(5.30256 1.86075 0)
(5.65971 -1.99722 0)
(5.25069 2.059 0)
(5.85301 -1.73166 0)
(5.23557 2.0795 0)
(5.91173 -2.04036 0)
(5.22047 2.33652 0)
(6.18301 -1.73642 0)
(5.22537 2.45973 0)
(6.23014 -2.02079 0)
(5.2821 2.60179 0)
(6.54858 -1.60192 0)
(5.42654 3.10229 0)
(6.59972 -1.86158 0)
(5.58017 3.28087 0)
(7.01593 -1.65755 0)
(6.3711 4.18793 0)
(7.48256 -1.2747 0)
(6.90546 4.82941 0)
(8.10582 -0.688291 0)
(7.75572 5.26845 0)
(9.64973 1.15913 0)
(10.6564 5.36703 0)
(13.4796 0.0149168 0)
(13.453 -0.121607 0)
(13.1645 -0.203906 0)
(13.6048 -0.247986 0)
(13.9333 -0.586068 0)
(14.073 -0.687959 0)
(14.2298 -1.05829 0)
(14.1363 -1.50526 0)
(14.2201 -1.77161 0)
(14.0904 -2.28496 0)
(13.9961 -2.47592 0)
(13.711 -2.67978 0)
(13.4245 -2.70786 0)
(13.3676 -2.5308 0)
(12.8592 -2.36453 0)
(12.4056 -1.71832 0)
(12.2816 -1.2209 0)
(11.7526 -0.480491 0)
(11.4697 0.383009 0)
(11.4928 0.800976 0)
(10.7044 1.32 0)
(10.554 1.34609 0)
(10.5581 1.01159 0)
(9.96057 0.800334 0)
(9.88868 0.333987 0)
(9.8121 -0.276398 0)
(9.61359 -0.955331 0)
(9.61053 -1.58606 0)
(9.46103 -2.11443 0)
(9.13218 -2.5898 0)
(8.34835 -2.0945 0)
(6.48649 -0.134868 0)
(4.41355 1.57392 0)
(3.26201 0.836073 0)
(2.40791 -1.82695 0)
(1.09663 -4.76397 0)
(-0.388882 -6.92275 0)
(-1.14088 -7.39834 0)
(-1.21111 -6.39167 0)
(-1.13298 -4.71509 0)
(-1.66155 -3.66659 0)
(-0.892683 -1.90436 0)
(-2.0814 -0.734903 0)
(-0.718795 1.76047 0)
(-0.562127 2.2598 0)
(0.729693 3.40323 0)
(1.09003 2.03691 0)
(3.2267 5.9111 0)
(3.10918 4.3862 0)
(5.03011 6.97796 0)
(4.74618 4.7253 0)
(7.22165 6.2508 0)
(6.7262 3.59082 0)
(8.092 3.88096 0)
(7.87734 1.28154 0)
(8.78338 1.82818 0)
(7.91272 -0.879624 0)
(8.45946 0.425962 0)
(7.19943 -1.69248 0)
(7.5822 -0.130041 0)
(6.48372 -1.72972 0)
(6.71216 0.238663 0)
(5.94091 -1.87363 0)
(6.2175 0.866061 0)
(5.63979 -1.74493 0)
(5.86916 0.926219 0)
(5.53417 -1.43639 0)
(5.6841 1.14861 0)
(5.45609 -1.70069 0)
(5.55898 1.53845 0)
(5.49242 -1.60109 0)
(5.44314 1.41097 0)
(5.41609 -1.59475 0)
(5.41885 1.79278 0)
(5.49634 -1.86008 0)
(5.2954 1.76819 0)
(5.53727 -1.68619 0)
(5.27153 1.98068 0)
(5.62308 -2.07962 0)
(5.20634 2.1218 0)
(5.78307 -1.87391 0)
(5.17859 2.26246 0)
(5.88457 -2.2458 0)
(5.15003 2.4807 0)
(6.12075 -1.98465 0)
(5.2762 2.6982 0)
(6.26189 -2.31458 0)
(5.28046 2.78151 0)
(6.44895 -2.0063 0)
(5.67972 3.38363 0)
(6.69595 -2.14815 0)
(5.91038 3.42447 0)
(6.7711 -2.0616 0)
(6.59969 4.15959 0)
(7.16625 -1.35336 0)
(7.09868 4.67994 0)
(7.46888 -0.659131 0)
(7.94827 4.69784 0)
(8.38749 0.929666 0)
(10.0324 4.54539 0)
(13.2134 0.0393407 0)
(13.2773 -0.0649713 0)
(13.4292 -0.330107 0)
(13.7805 -0.360189 0)
(13.8407 -0.588983 0)
(13.8547 -0.731905 0)
(14.0022 -1.0427 0)
(13.9935 -1.46871 0)
(14.1115 -1.74281 0)
(13.956 -2.22513 0)
(13.7807 -2.41068 0)
(13.4858 -2.54392 0)
(13.1028 -2.62156 0)
(12.8026 -2.38892 0)
(12.1935 -2.16382 0)
(11.9054 -1.59844 0)
(11.6785 -1.04579 0)
(11.0587 -0.361862 0)
(10.9739 0.431938 0)
(10.8128 1.01321 0)
(10.3439 1.38242 0)
(10.4524 1.30544 0)
(9.96843 1.22162 0)
(9.7034 0.928598 0)
(9.85952 0.331266 0)
(9.53488 -0.196236 0)
(9.33596 -0.930795 0)
(9.33467 -1.5924 0)
(8.99117 -1.99122 0)
(8.43217 -2.25044 0)
(7.56473 -1.50206 0)
(5.83452 0.565686 0)
(4.07497 2.13458 0)
(3.27685 1.22226 0)
(2.61299 -1.35587 0)
(1.2658 -4.18067 0)
(-0.48518 -6.42323 0)
(-1.63508 -7.16993 0)
(-1.79365 -6.27554 0)
(-1.84928 -4.78695 0)
(-2.17535 -3.65603 0)
(-1.74743 -1.85303 0)
(-3.16025 -0.72738 0)
(-1.45478 1.54444 0)
(-1.73247 2.00823 0)
(-0.108766 3.04325 0)
(-0.104109 1.22616 0)
(2.64581 5.70789 0)
(1.51358 3.51463 0)
(4.42632 6.99517 0)
(3.50671 4.00666 0)
(6.75068 6.06049 0)
(5.86471 3.26171 0)
(7.85185 3.70554 0)
(7.38006 1.21788 0)
(8.63618 1.76739 0)
(7.54168 -0.750349 0)
(8.22385 0.561713 0)
(7.00302 -1.52906 0)
(7.47759 0.00796778 0)
(6.34212 -1.54273 0)
(6.68163 0.274773 0)
(5.97918 -1.69073 0)
(6.13417 0.863648 0)
(5.7513 -1.6277 0)
(5.90661 0.937354 0)
(5.57726 -1.37564 0)
(5.73326 1.12174 0)
(5.53614 -1.59702 0)
(5.59366 1.4834 0)
(5.45761 -1.57245 0)
(5.53302 1.40818 0)
(5.3786 -1.5523 0)
(5.45983 1.71701 0)
(5.43583 -1.79496 0)
(5.37285 1.79486 0)
(5.39504 -1.66337 0)
(5.35514 1.95711 0)
(5.52098 -1.99759 0)
(5.26374 2.17749 0)
(5.56735 -1.86439 0)
(5.2761 2.27179 0)
(5.70565 -2.22597 0)
(5.24433 2.51593 0)
(5.82413 -2.10559 0)
(5.35517 2.7433 0)
(5.98593 -2.39292 0)
(5.3833 2.93257 0)
(6.10843 -2.22212 0)
(5.73097 3.42523 0)
(6.42961 -2.26715 0)
(6.01324 3.49589 0)
(6.62241 -2.12113 0)
(6.60003 4.16098 0)
(7.15376 -1.30519 0)
(7.26821 4.36925 0)
(7.63765 -0.519781 0)
(8.16513 4.04515 0)
(8.6646 1.0325 0)
(9.65243 3.67428 0)
(13.1276 0.0125136 0)
(13.4854 -0.139856 0)
(13.5966 -0.389184 0)
(13.6072 -0.326199 0)
(13.6841 -0.555124 0)
(13.7956 -0.784212 0)
(13.8976 -1.05948 0)
(13.85 -1.48168 0)
(13.8793 -1.7307 0)
(13.5585 -2.09129 0)
(13.2222 -2.29973 0)
(12.8309 -2.40595 0)
(12.3015 -2.42107 0)
(11.8087 -2.16385 0)
(11.1998 -1.97681 0)
(10.8978 -1.4891 0)
(10.4766 -0.83769 0)
(10.0167 -0.242986 0)
(10.0945 0.45063 0)
(9.85174 1.10723 0)
(9.8082 1.40049 0)
(9.79976 1.43283 0)
(9.29759 1.37739 0)
(9.41912 0.906822 0)
(9.32577 0.411348 0)
(9.00178 -0.0878893 0)
(9.06852 -0.89575 0)
(8.87999 -1.49762 0)
(8.20951 -1.79036 0)
(7.51185 -1.85213 0)
(6.60641 -0.900084 0)
(5.08823 1.18447 0)
(3.74458 2.53517 0)
(3.40576 1.50104 0)
(2.98434 -0.907413 0)
(1.65136 -3.52662 0)
(-0.354016 -5.79253 0)
(-1.97119 -6.81472 0)
(-2.42493 -6.15698 0)
(-2.66662 -4.81541 0)
(-2.92815 -3.52219 0)
(-2.80023 -1.76037 0)
(-3.9888 -0.758499 0)
(-1.9095 1.25456 0)
(-3.03476 1.68064 0)
(-0.533644 2.57943 0)
(-1.85714 0.663493 0)
(1.80734 5.69883 0)
(0.00277245 2.68144 0)
(4.14772 6.89032 0)
(2.15659 3.1574 0)
(6.47972 5.75485 0)
(4.973 2.78262 0)
(7.59846 3.43037 0)
(6.81149 1.04361 0)
(8.14012 1.64364 0)
(7.21868 -0.662606 0)
(7.83522 0.662448 0)
(6.85845 -1.39086 0)
(7.33229 0.121357 0)
(6.13291 -1.33131 0)
(6.68514 0.284918 0)
(5.79182 -1.52939 0)
(6.13085 0.853385 0)
(5.5806 -1.52014 0)
(5.94642 0.869756 0)
(5.33991 -1.23271 0)
(5.81953 1.0265 0)
(5.29914 -1.48885 0)
(5.62522 1.42914 0)
(5.27079 -1.44246 0)
(5.57351 1.33106 0)
(5.22307 -1.43377 0)
(5.46615 1.69027 0)
(5.28697 -1.71644 0)
(5.40366 1.76438 0)
(5.30264 -1.58798 0)
(5.34923 1.93662 0)
(5.43795 -1.95496 0)
(5.26536 2.17307 0)
(5.50638 -1.83056 0)
(5.29922 2.27994 0)
(5.66851 -2.18083 0)
(5.24058 2.57918 0)
(5.78853 -2.07097 0)
(5.38848 2.83694 0)
(6.01357 -2.38373 0)
(5.45765 2.96611 0)
(6.1129 -2.26185 0)
(5.83154 3.49446 0)
(6.47287 -2.22303 0)
(6.19774 3.49738 0)
(6.70249 -2.0699 0)
(6.67871 3.94246 0)
(7.22183 -1.18649 0)
(7.27598 3.92719 0)