/*--------------------------------*- C++ -*----------------------------------*\
| =========                 |                                                 |
| \\      /  F ield         | OpenFOAM: The Open Source CFD Toolbox           |
|  \\    /   O peration     | Version:  2.4.0                                 |
|   \\  /    A nd           | Web:      www.OpenFOAM.org                      |
|    \\/     M anipulation  |                                                 |
\*---------------------------------------------------------------------------*/
FoamFile
{
    version     2.0;
    format      ascii;
    class       volScalarField;
    location    "0.197";
    object      k_0;
}
// * * * * * * * * * * * * * * * * * * * * * * * * * * * * * * * * * * * * * //

dimensions      [0 2 -2 0 0 0 0];

internalField   nonuniform List<scalar> 
17600
(
9.29066
7.41377
5.12385
3.93502
3.33934
2.95793
2.68977
2.49336
2.3195
2.2301
2.12274
2.07283
2.00499
1.99046
1.97755
1.9357
2.13356
2.02468
2.40256
3.13577
4.50839
6.20771
5.84255
5.05276
4.41628
3.93844
3.5885
3.33991
3.09546
2.97376
2.82103
2.7302
2.64691
2.60406
2.54963
2.49761
2.64481
2.50591
2.78904
3.25454
1.32635
3.28297
3.99703
3.96198
3.76666
3.46916
3.21227
3.03665
2.82803
2.72268
2.59474
2.49825
2.42485
2.38365
2.30476
2.2599
2.30923
2.21475
2.31329
2.39348
0.208367
1.19564
1.92605
2.3245
2.51362
2.51779
2.46485
2.41295
2.3016
2.23454
2.16401
2.09165
2.0302
2.01037
1.93476
1.90661
1.88337
1.85287
1.81656
1.74471
0.0260965
0.267935
0.642281
0.961187
1.23758
1.44326
1.52426
1.61134
1.62177
1.61481
1.60902
1.59406
1.55507
1.55431
1.51619
1.50179
1.44113
1.45145
1.37395
1.34085
0.00275213
0.0441513
0.142166
0.265205
0.403053
0.58707
0.69006
0.811849
0.913366
0.947001
1.0035
1.03793
1.04049
1.05712
1.05904
1.05891
1.01151
1.02493
0.953955
0.965056
0.000283598
0.00636921
0.0216511
0.0514248
0.0837214
0.156953
0.214202
0.273638
0.369597
0.405488
0.466529
0.51862
0.552977
0.569628
0.615357
0.624305
0.606024
0.609877
0.561827
0.563033
5.03852e-05
0.000867465
0.00297667
0.00704746
0.0126281
0.0263237
0.0465664
0.0610178
0.0982786
0.117918
0.148149
0.178569
0.209466
0.219463
0.257333
0.270241
0.270739
0.275465
0.239431
0.231858
2.81983e-05
0.000140176
0.000476304
0.000873729
0.00154841
0.0030975
0.00712082
0.00975452
0.0175887
0.0229206
0.0297705
0.0420987
0.0528766
0.0555773
0.0710395
0.0770346
0.0798229
0.08404
0.0695426
0.0665968
2.50073e-05
4.89145e-05
9.96162e-05
0.00017835
0.000239589
0.0004337
0.000964459
0.00129593
0.0026199
0.00339395
0.00436046
0.00710798
0.00867555
0.00909215
0.0130371
0.014311
0.0152291
0.0160574
0.0131969
0.0123522
2.32856e-05
3.96281e-05
5.2644e-05
8.21238e-05
8.45622e-05
0.000117901
0.000173846
0.000224295
0.000421943
0.000517784
0.000712222
0.0010586
0.00112183
0.00118198
0.00167329
0.00175084
0.0018847
0.00236113
0.00194299
0.00177724
2.23246e-05
3.14414e-05
5.33444e-05
5.58552e-05
7.4373e-05
7.56523e-05
8.11955e-05
9.77706e-05
0.000115174
0.000184503
0.000243264
0.000255494
0.000276813
0.000272457
0.00028145
0.000299037
0.000318521
0.000438941
0.000426586
0.000423374
2.18227e-05
3.20175e-05
3.87819e-05
5.87204e-05
7.22496e-05
6.98095e-05
7.6858e-05
7.41714e-05
7.55478e-05
0.000116189
0.000127131
0.000133191
0.00016917
0.000157926
0.000158893
0.000166858
0.000159987
0.00015996
0.00019598
0.000239024
2.12864e-05
3.14957e-05
3.46798e-05
6.53049e-05
6.65803e-05
6.89396e-05
7.655e-05
7.07813e-05
7.82548e-05
8.21263e-05
8.67272e-05
0.000109424
0.000125385
0.000119838
0.000127108
0.00012264
0.000110732
0.000109694
0.000121671
0.000171224
2.0835e-05
2.72953e-05
3.59895e-05
4.95359e-05
5.09009e-05
6.11592e-05
6.22973e-05
5.90566e-05
6.28593e-05
6.13786e-05
6.37647e-05
8.80577e-05
8.85373e-05
9.1893e-05
9.31281e-05
8.87627e-05
8.58457e-05
9.05381e-05
9.07828e-05
0.000103038
2.0711e-05
2.65983e-05
4.4082e-05
4.53024e-05
5.00589e-05
5.16698e-05
5.23248e-05
5.75432e-05
5.67476e-05
5.67216e-05
6.05993e-05
6.517e-05
6.66935e-05
7.4517e-05
7.38726e-05
7.6092e-05
7.71424e-05
7.95125e-05
8.01181e-05
8.6388e-05
2.11978e-05
2.75331e-05
4.12199e-05
4.12269e-05
4.35031e-05
4.414e-05
4.71468e-05
5.33917e-05
5.32058e-05
5.45484e-05
5.72794e-05
5.78937e-05
6.77858e-05
6.71961e-05
6.80177e-05
7.2302e-05
7.37794e-05
7.37724e-05
7.64783e-05
8.30053e-05
2.10194e-05
3.03831e-05
3.32515e-05
3.9264e-05
4.03002e-05
4.10934e-05
4.80427e-05
4.83942e-05
4.87225e-05
5.06009e-05
5.14521e-05
5.34165e-05
5.84421e-05
5.82954e-05
6.08319e-05
6.39822e-05
6.48294e-05
6.55613e-05
7.08878e-05
7.05094e-05
2.05347e-05
2.49309e-05
3.12607e-05
3.81429e-05
3.9656e-05
4.00067e-05
4.05907e-05
4.21635e-05
4.5014e-05
4.48887e-05
4.48146e-05
4.79567e-05
4.91783e-05
5.22567e-05
5.61494e-05
5.77348e-05
5.63209e-05
5.81544e-05
5.93368e-05
6.17708e-05
2.05414e-05
2.5249e-05
3.0698e-05
3.73628e-05
3.91312e-05
3.93385e-05
4.07569e-05
4.35978e-05
4.38183e-05
4.31903e-05
4.32079e-05
4.38174e-05
4.66758e-05
5.12884e-05
5.18151e-05
5.10622e-05
5.09255e-05
5.36063e-05
5.44362e-05
5.91667e-05
2.0553e-05
2.52791e-05
2.98851e-05
3.66829e-05
3.81964e-05
3.99625e-05
3.98673e-05
4.02375e-05
4.14983e-05
4.16316e-05
4.20747e-05
4.45806e-05
4.68726e-05
4.69774e-05
4.71185e-05
4.74782e-05
4.97197e-05
5.11734e-05
5.13751e-05
5.60331e-05
2.05963e-05
2.4641e-05
3.15614e-05
3.61639e-05
3.81734e-05
3.83555e-05
3.848e-05
4.0367e-05
4.28236e-05
4.24747e-05
4.32147e-05
4.29489e-05
4.33335e-05
4.40887e-05
4.68535e-05
4.86751e-05
5.03888e-05
5.02398e-05
5.09162e-05
6.48866e-05
2.07047e-05
2.80792e-05
3.06826e-05
3.61468e-05
3.98147e-05
4.02072e-05
4.12873e-05
4.53046e-05
4.45927e-05
4.29771e-05
4.38294e-05
4.35256e-05
4.4006e-05
4.82015e-05
4.98161e-05
5.06161e-05
5.06643e-05
5.12974e-05
5.30799e-05
6.45298e-05
2.08239e-05
2.62916e-05
3.01167e-05
4.12076e-05
4.29266e-05
4.28133e-05
4.55359e-05
4.54776e-05
4.45764e-05
4.4789e-05
4.71125e-05
4.75236e-05
4.83602e-05
5.2095e-05
5.21606e-05
5.25669e-05
5.36084e-05
5.61857e-05
6.02018e-05
6.63602e-05
2.09149e-05
2.57509e-05
3.50114e-05
4.47564e-05
4.42508e-05
4.46644e-05
4.63221e-05
4.66495e-05
4.83819e-05
5.22457e-05
5.30446e-05
5.25018e-05
5.27876e-05
5.44335e-05
5.51187e-05
5.82602e-05
6.30085e-05
6.47356e-05
6.85899e-05
8.54683e-05
2.12742e-05
2.84333e-05
3.9614e-05
4.40413e-05
4.39139e-05
4.65832e-05
5.03061e-05
5.57347e-05
6.06221e-05
6.01752e-05
5.79143e-05
5.72988e-05
5.81532e-05
6.24456e-05
6.87669e-05
7.43212e-05
7.74506e-05
8.06771e-05
9.31068e-05
0.000173806
2.15827e-05
3.20677e-05
3.7887e-05
4.22282e-05
4.93601e-05
5.54322e-05
6.37407e-05
7.01251e-05
7.04041e-05
6.56168e-05
6.3604e-05
6.39978e-05
6.77948e-05
8.49834e-05
9.40112e-05
9.90192e-05
0.000107902
0.000130415
0.000215925
0.00065729
2.17482e-05
3.24473e-05
3.74163e-05
4.83755e-05
6.1348e-05
7.07273e-05
8.05579e-05
8.19613e-05
7.72431e-05
7.07229e-05
7.31933e-05
7.94722e-05
9.84087e-05
0.000144153
0.000157535
0.000183294
0.000247021
0.000427237
0.000989749
0.00327893
2.30938e-05
3.04351e-05
4.18341e-05
6.34982e-05
8.72329e-05
9.24899e-05
0.00010047
9.57781e-05
9.36526e-05
9.55761e-05
0.00013863
0.000177397
0.000243646
0.000424497
0.000508171
0.000729378
0.00125415
0.00251785
0.00559698
0.0167068
2.34041e-05
3.27762e-05
5.70179e-05
0.000107588
0.000137575
0.000145456
0.000169176
0.000193093
0.00023986
0.000325177
0.000746972
0.000982485
0.00134039
0.00246502
0.0031661
0.00499357
0.00816654
0.0149606
0.027581
0.0746564
2.41354e-05
4.68494e-05
0.000112316
0.000281766
0.000334708
0.000444884
0.00077995
0.001215
0.00176715
0.00267267
0.00583462
0.00735265
0.00951105
0.0164071
0.0204274
0.0304109
0.042656
0.0703687
0.105299
0.230499
2.79085e-05
0.000140878
0.000415944
0.00127826
0.00181562
0.00302016
0.00662811
0.0102659
0.0146199
0.0212319
0.0379792
0.0448695
0.0546436
0.0827758
0.0964929
0.127119
0.160051
0.229234
0.297195
0.51717
5.05669e-05
0.000852411
0.00270261
0.00856993
0.0135041
0.0233336
0.0483614
0.0638271
0.0896043
0.117811
0.16732
0.186175
0.217718
0.283039
0.308957
0.364403
0.427991
0.527536
0.614845
0.841959
0.000287819
0.00618403
0.0202169
0.0573305
0.0864054
0.141183
0.23121
0.273789
0.352477
0.415287
0.497863
0.52658
0.585022
0.654998
0.684863
0.74428
0.817188
0.9023
0.980568
1.15808
0.00278155
0.0428529
0.137226
0.282527
0.398206
0.563752
0.721324
0.797348
0.907218
0.966548
1.03367
1.04722
1.09017
1.1207
1.14143
1.17255
1.22664
1.26832
1.32823
1.41945
0.0262212
0.259545
0.647221
0.969838
1.23205
1.42782
1.55483
1.5876
1.63351
1.62651
1.62844
1.60148
1.60499
1.58593
1.58563
1.57763
1.59061
1.58904
1.60515
1.59104
0.208654
1.18746
1.93601
2.32029
2.51534
2.51244
2.4783
2.39031
2.32869
2.2232
2.17901
2.08652
2.06059
1.98475
1.96634
1.90633
1.88304
1.81536
1.76531
1.6593
1.3263
3.27376
4.00614
3.95425
3.77839
3.45226
3.22322
3.01205
2.85823
2.68613
2.60066
2.46865
2.41475
2.2855
2.24822
2.12948
2.05769
1.90785
1.7927
1.58451
4.50641
6.19607
5.85333
5.02585
4.44825
3.91662
3.59038
3.31642
3.11567
2.91541
2.80612
2.6581
2.58359
2.41206
2.35508
2.18096
2.05982
1.82529
1.63207
1.32816
9.28586
7.39762
5.14419
3.90722
3.36229
2.94039
2.68546
2.4698
2.32083
2.17426
2.08363
1.97104
1.90973
1.75436
1.68907
1.52473
1.39179
1.15665
0.962874
0.690017
1.60535
1.11574
0.763491
0.609665
0.661822
0.83284
0.827076
0.735278
0.504076
0.307581
0.172432
0.094951
0.0397677
0.0281987
0.0183153
0.0205778
0.0253216
0.0289212
0.027166
0.0296503
0.0551035
0.183671
0.2605
0.267699
0.257279
0.222394
0.168745
0.133703
0.10733
0.0883839
0.0735336
0.0606854
0.0509772
0.0462588
0.0439215
0.0431698
0.0443165
0.0507562
0.0543176
0.0558613
0.0579718
0.0642772
0.0893855
0.0955219
0.0901175
0.0933653
0.144051
0.221352
0.235206
0.210225
0.125626
0.077853
0.0623616
0.0592225
0.0586783
0.0559361
0.0473046
0.0386955
0.0349781
0.0337645
0.0336115
0.0362828
0.0430734
0.0503869
0.062221
0.0740674
0.0814288
0.0837091
0.080644
0.0742331
0.0648588
0.0526188
0.0442191
0.0411194
0.0362237
0.0285682
0.024097
0.0220499
0.0212148
0.0214901
0.0213449
0.0196542
0.0169038
0.013454
0.0106617
0.00953741
0.00950023
0.0108019
0.0144988
0.0162027
0.0178459
0.0217118
0.0379475
0.0597859
0.0636812
0.0616812
0.0601468
0.0612405
0.0646286
0.0654502
0.0637622
0.0555237
0.0480356
0.0422334
0.0382643
0.0365276
0.0367529
0.0452981
0.0538034
0.0562892
0.060081
0.0626835
0.0626496
0.0603753
0.0567176
0.0561833
0.0589798
0.0792679
0.114169
0.14015
0.1444
0.119258
0.0751304
0.0587085
0.0429174
0.0285082
0.0204943
0.0163771
0.0136047
0.0119116
0.0115703
0.0117798
0.0131091
0.0146297
0.0166879
0.0186947
0.0198782
0.0216471
0.0280281
0.0367494
0.0418465
0.0435956
0.0448623
0.046432
0.0480202
0.0534304
0.0614158
0.0652108
0.0650634
0.05826
0.0447521
0.0395015
0.0328044
0.0315307
0.0336319
0.0355408
0.0364987
0.0380197
0.040431
0.0403526
0.0341004
0.0303974
0.0241384
0.0222055
0.0215742
0.0225531
0.0239795
0.0248088
0.0267401
0.0286167
0.0318819
0.0424275
0.0578015
0.0750188
0.0862346
0.0871381
0.0859842
0.0848077
0.087217
0.0867939
0.0839088
0.0790781
0.0732153
0.0537627
0.0332671
0.0216388
0.0181136
0.0182808
0.0221567
0.025513
0.0236601
0.0188
0.0166468
0.0162913
0.0172145
0.0212613
0.0285048
0.0432392
0.11221
0.494177
2.50496
1.5609
1.11096
1.00064
1.04333
0.983296
0.866774
0.614536
0.381817
0.215629
0.100163
0.0514368
0.0212733
0.0151082
0.0116999
0.0134547
0.0233406
0.0241954
0.0224757
0.0239336
0.031324
0.0856013
0.188707
0.235912
0.242764
0.230016
0.187045
0.149703
0.120053
0.0986249
0.0809941
0.0645812
0.0527794
0.04661
0.0439612
0.0428896
0.0439606
0.0503547
0.054787
0.0573001
0.0602574
0.072603
0.0973081
0.0985444
0.0904168
0.0974564
0.166895
0.232219
0.235881
0.191273
0.111291
0.0755242
0.0634838
0.062625
0.0620583
0.056718
0.0444411
0.0369047
0.0345462
0.0335149
0.0330407
0.0335904
0.0395958
0.0464518
0.0551303
0.0664
0.0749142
0.0782555
0.0781737
0.0745447
0.0656089
0.0543381
0.0467575
0.0441287
0.0397652
0.0322502
0.0280989
0.0261183
0.0244477
0.0240119
0.023086
0.0208715
0.0178577
0.0140945
0.0109947
0.00961908
0.00944151
0.0101685
0.0133531
0.0151578
0.0164469
0.019241
0.0281584
0.0543062
0.0636211
0.0633319
0.0605513
0.0598733
0.0609755
0.0625382
0.0616318
0.0560976
0.0505758
0.0462634
0.0416285
0.0392537
0.0405983
0.051301
0.0569641
0.0593163
0.0636688
0.0649226
0.0634628
0.0595421
0.056549
0.0561883
0.0599012
0.0844281
0.115767
0.138855
0.143
0.119859
0.0750973
0.0596244
0.0431621
0.0275444
0.0197348
0.0160858
0.0134007
0.0116085
0.0110792
0.0111712
0.0120811
0.0134661
0.015543
0.0178339
0.0191591
0.0208308
0.026633
0.0353072
0.0401178
0.0418635
0.0436664
0.0457744
0.0473959
0.0530048
0.0602475
0.063841
0.0639952
0.0583037
0.0456
0.0395598
0.032883
0.0315069
0.0338448
0.0364314
0.0363632
0.0370988
0.039085
0.0390734
0.0342481
0.0309818
0.025694
0.0235752
0.0226052
0.0231439
0.024484
0.0252717
0.026433
0.0278031
0.0314595
0.0446478
0.0620465
0.0783917
0.087051
0.0883777
0.0858844
0.0849127
0.0873517
0.0879409
0.0840478
0.078764
0.0727041
0.0540349
0.0337674
0.021201
0.016446
0.0160771
0.019346
0.0256657
0.0280314
0.0256301
0.0211621
0.0186407
0.0200632
0.0246581
0.0316587
0.0427578
0.111225
0.384793
2.22433
1.97957
1.63892
1.42802
1.2446
0.971152
0.702355
0.4511
0.248072
0.122068
0.0496858
0.0277088
0.0128972
0.00986917
0.0084693
0.00883351
0.0149236
0.0157774
0.0158916
0.0170461
0.0210284
0.0440639
0.141392
0.209224
0.225521
0.222142
0.204864
0.165093
0.130492
0.107444
0.0884533
0.0695157
0.0555963
0.0484636
0.0453212
0.0436287
0.0447903
0.0518709
0.0571218
0.060081
0.0638713
0.083999
0.104047
0.100357
0.0902927
0.103193
0.190354
0.241283
0.235261
0.164737
0.104428
0.0750362
0.0669142
0.0657419
0.0636315
0.0556665
0.0420619
0.0359635
0.0344006
0.0337016
0.0329689
0.0332024
0.0374915
0.0443467
0.0505966
0.0599422
0.068835
0.0731424
0.0742076
0.0733073
0.0658193
0.0543257
0.0479976
0.0458249
0.0416798
0.0350623
0.0315616
0.029986
0.0276948
0.0264412
0.0250186
0.0223646
0.0187444
0.0145984
0.011237
0.00970526
0.00939157
0.00977728
0.0123084
0.0141274
0.0151538
0.0171639
0.0225661
0.0436616
0.061689
0.0646108
0.062953
0.0600413
0.0601469
0.0613581
0.0609449
0.0563799
0.0518205
0.0480354
0.043412
0.0417421
0.0464063
0.0570121
0.0602816
0.0634976
0.0667414
0.0661621
0.0627689
0.0593391
0.0567359
0.0565132
0.0609486
0.0896959
0.117324
0.1373
0.141013
0.120347
0.0752346
0.0605574
0.0437792
0.0267633
0.0189966
0.015858
0.0133283
0.0114452
0.0108247
0.0108444
0.0115773
0.0126647
0.0145562
0.0168027
0.0181055
0.0198891
0.0257381
0.0338796
0.0382757
0.0400319
0.0425274
0.0449119
0.0467684
0.0526399
0.0593874
0.0626887
0.0631873
0.0582998
0.0463179
0.0400402
0.0330159
0.0312666
0.0330354
0.0362964
0.0352809
0.0355128
0.0377781
0.03802
0.0350362
0.0328731
0.0283581
0.025249
0.0236084
0.0238266
0.0251774
0.0257795
0.0264412
0.0274791
0.0314522
0.047246
0.066241
0.081498
0.0880157
0.0889828
0.0847133
0.0841623
0.0864828
0.0890599
0.0852298
0.079526
0.0725442
0.0534034
0.0339304
0.0209686
0.0153378
0.0143529
0.0160152
0.0239122
0.0286475
0.031694
0.0309954
0.0299848
0.0298438
0.0313626
0.0403501
0.0441913
0.103798
0.288069
1.53877
1.51106
1.43597
1.24961
1.02182
0.682209
0.452797
0.24088
0.106544
0.0526749
0.0228232
0.0144932
0.00873833
0.00661417
0.00644996
0.00579421
0.00802911
0.0117645
0.0133271
0.0149909
0.0180755
0.028993
0.103244
0.185125
0.212018
0.213445
0.206479
0.180877
0.141186
0.116415
0.0960145
0.075588
0.0604768
0.0523397
0.0477815
0.0457303
0.0482495
0.0563545
0.0608687
0.0637632
0.0690943
0.097512
0.110649
0.0995701
0.0896122
0.112922
0.214547
0.248208
0.228317
0.137666
0.101225
0.0768604
0.0687909
0.0669159
0.0638975
0.0515443
0.0402036
0.0357205
0.0344913
0.0343591
0.0333828
0.0334666
0.0366133
0.0421385
0.0478463
0.0554046
0.0636252
0.0686032
0.0706996
0.0709655
0.0654
0.054001
0.0484556
0.0466801
0.0428536
0.0373006
0.0344735
0.033128
0.0309252
0.0289268
0.0269574
0.0237954
0.0196569
0.0152196
0.0116391
0.009841
0.00939425
0.00957153
0.0114912
0.0132743
0.0141199
0.0155984
0.0191819
0.0316699
0.0566812
0.0648942
0.0655718
0.0623618
0.0604531
0.0613219
0.061037
0.0570546
0.0522444
0.0482224
0.0451514
0.0457241
0.055796
0.0625258
0.0642589
0.0671259
0.0694303
0.0669387
0.0622737
0.0592561
0.0570668
0.0570432
0.0623814
0.094128
0.119368
0.136348
0.139429
0.120105
0.0749755
0.0610225
0.0445922
0.0265164
0.0182227
0.0157512
0.0133251
0.0113953
0.0106982
0.0106991
0.0113542
0.0121633
0.0138573
0.0157229
0.0170375
0.0192353
0.0250809
0.0325759
0.036404
0.0384303
0.0412567
0.0438495
0.0463387
0.0520796
0.0588492
0.0618075
0.0624048
0.0580633
0.0468421
0.0413889
0.0335688
0.0309804
0.0313225
0.0337879
0.0328071
0.033438
0.036213
0.0368066
0.0349488
0.0335872
0.0303173
0.0262553
0.0245025
0.0245708
0.0258856
0.0262091
0.026496
0.027401
0.0321772
0.0508171
0.070544
0.0840639
0.0893395
0.0895198
0.083214
0.0822967
0.0844908
0.0893664
0.0874265
0.0805793
0.0715393
0.0526827
0.034105
0.0211304
0.0148656
0.0132261
0.0137335
0.0181076
0.0271172
0.0316578
0.0368706
0.0365037
0.039855
0.0386897
0.0477671
0.0480035
0.0873027
0.208073
1.13583
1.01021
0.933691
0.778964
0.591079
0.385386
0.200966
0.0941597
0.0443178
0.0232923
0.0105269
0.00618537
0.00609347
0.00486879
0.00537508
0.004967
0.00468522
0.00669139
0.0119997
0.0156053
0.0182267
0.024616
0.0637094
0.14176
0.181701
0.197194
0.19605
0.184453
0.148581
0.124128
0.102722
0.0816652
0.0657858
0.0566028
0.0511373
0.0503115
0.0564113
0.0630924
0.0656915
0.0683653
0.0785741
0.11204
0.114249
0.0947758
0.0884349
0.13097
0.236987
0.253681
0.213902
0.122407
0.100752
0.0815332
0.0696895
0.0677619
0.0636979
0.0488902
0.0394796
0.0358301
0.035059
0.0350477
0.0343702
0.0338807
0.036089
0.0397391
0.0452542
0.0522839
0.0594445
0.0646732
0.0676338
0.0683108
0.0638558
0.0529065
0.0483391
0.0468671
0.0434222
0.0391168
0.0370392
0.0358124
0.0336912
0.0313737
0.0290919
0.0254804
0.0208082
0.0159737
0.0121195
0.0100083
0.00942088
0.00948205
0.0109506
0.0126707
0.0134094
0.0144682
0.0169229
0.0236717
0.0458541
0.0622895
0.06806
0.0677274
0.0637762
0.0631138
0.0627617
0.0583879
0.0526154
0.0494833
0.0491888
0.0568476
0.0652883
0.0673006
0.0679701
0.070868
0.0711908
0.0657217
0.0617059
0.0592701
0.0575939
0.057792
0.0640634
0.0991573
0.122259
0.136355
0.138494
0.120168
0.0746925
0.0621993
0.046663
0.0267987
0.0175873
0.0156844
0.0135717
0.0114147
0.0106541
0.0106535
0.0111378
0.0118471
0.0136693
0.0151828
0.016808
0.0189064
0.0244363
0.0310453
0.0345636
0.0368131
0.0400649
0.0424658
0.0461918
0.0512675
0.0586048
0.0611523
0.0618563
0.057724
0.0473612
0.0417886
0.0340522
0.0303738
0.029889
0.0309005
0.0303822
0.0322435
0.0348403
0.0354437
0.0345155
0.0333527
0.030773
0.0266013
0.0250624
0.0251856
0.0263802
0.0264083
0.0264927
0.0274622
0.033833
0.0551778
0.0742374
0.0872672
0.0915531
0.0904376
0.0812304
0.0793386
0.0819294
0.0887214
0.0880286
0.0814344
0.0708257
0.0524447
0.0343534
0.0216337
0.0150902
0.0123435
0.0122918
0.0135287
0.0186208
0.0280972
0.0363506
0.0370272
0.0424326
0.0405302
0.0595892
0.0523226
0.0748969
0.156511
0.862406
0.712441
0.627859
0.481879
0.318964
0.167457
0.0792097
0.0360923
0.0175186
0.00913713
0.00483409
0.00336068
0.00424674
0.00408647
0.0047159
0.00482685
0.00396263
0.00426195
0.00847322
0.0126883
0.0150409
0.02015
0.0364359
0.0904584
0.148801
0.184909
0.186952
0.181736
0.155478
0.133794
0.112816
0.0903133
0.0723463
0.0626687
0.0589038
0.0600224
0.0667387
0.0689811
0.0705162
0.0739925
0.0975499
0.121477
0.117515
0.087664
0.0871208
0.157433
0.25296
0.255562
0.188234
0.117055
0.104709
0.0849219
0.0699871
0.0684163
0.0626713
0.0462339
0.0392457
0.0366317
0.0360975
0.0358679
0.0352734
0.0345832
0.0354566
0.0377497
0.0422054
0.0494143
0.0562901
0.061408
0.0649445
0.0658534
0.0625099
0.051931
0.047931
0.0467831
0.0439072
0.0405159
0.0390568
0.0379667
0.0359419
0.0336613
0.031245
0.0272355
0.0220153
0.0167415
0.0126823
0.0102549
0.00947921
0.00945735
0.0105804
0.012182
0.0127576
0.0134533
0.0151405
0.0193628
0.0316938
0.0557479
0.0669841
0.0694548
0.0709856
0.0706475
0.0695519
0.062297
0.0582985
0.0587179
0.0631054
0.0707339
0.0720676
0.071149
0.071634
0.0736516
0.0723936
0.0640801
0.0614471
0.05972
0.0584106
0.0586643
0.0657395
0.103128
0.124997
0.136995
0.137867
0.119166
0.0734216
0.062903
0.0495131
0.0274206
0.0174385
0.0155319
0.0140507
0.0115543
0.0106549
0.0106604
0.0110185
0.0117899
0.0137514
0.0151423
0.0169218
0.0188594
0.0238093
0.0294959
0.0326404
0.0351938
0.0388991
0.0413283
0.0460535
0.0508213
0.0584884
0.0606962
0.0617444
0.0577185
0.0477795
0.0414751
0.033672
0.029703
0.0287942
0.0291053
0.0292953
0.0321749
0.0338419
0.034026
0.0331786
0.0323638
0.0310483
0.0268405
0.0257426
0.0259217
0.0266069
0.0264763
0.0265401
0.0278142
0.0363286
0.0600112
0.0789668
0.090914
0.0944673
0.0918874
0.0802733
0.0775278
0.0797759
0.0864899
0.0872983
0.0818759
0.0696951
0.0524604
0.0345293
0.0222493
0.0155869
0.0124719
0.0117478
0.0120697
0.014122
0.0186858
0.0313149
0.0329645
0.0451363
0.0436657
0.0674509
0.0587245
0.066679
0.114693
0.519709
0.452976
0.381673
0.241422
0.129467
0.0619544
0.0273008
0.0129343
0.00677791
0.00358634
0.00268079
0.00233269
0.00335886
0.00347566
0.00376077
0.00463437
0.00383778
0.00374911
0.00523549
0.00668304
0.0086158
0.013671
0.0244532
0.061439
0.122904
0.166291
0.174839
0.173999
0.167896
0.152777
0.129273
0.102148
0.081392
0.0713918
0.0682557
0.0704138
0.0729024
0.0742946
0.0769989
0.0853661
0.121189
0.129419
0.111265
0.080978
0.0871342
0.187757
0.267804
0.25946
0.169326
0.116014
0.108353
0.0859679
0.0698646
0.0686054
0.0607374
0.0455129
0.0397418
0.037097
0.0372084
0.0368411
0.0360753
0.0353499
0.0353239
0.0361462
0.0389599
0.0463826
0.0534318
0.0589231
0.0627429
0.0637506
0.0610566
0.0513982
0.0478481
0.0469759
0.0443493
0.0415902
0.040569
0.0396201
0.0376858
0.0356223
0.0332214
0.0286712
0.023068
0.0175117
0.0133738
0.0106766
0.00960216
0.0094959
0.0102001
0.011647
0.0121028
0.0125902
0.0137717
0.0165397
0.0234945
0.0424616
0.0624019
0.0683447
0.0721844
0.0762704
0.0763951
0.0744195
0.0734159
0.0740135
0.0772727
0.0788628
0.0759904
0.0737012
0.0745389
0.0748446
0.0711269
0.0628771
0.0616654
0.0605946
0.0594511
0.0596761
0.0679115
0.107291
0.129252
0.138537
0.137859
0.118327
0.0720448
0.0641031
0.0532053
0.0284308
0.0174997
0.0154748
0.0147027
0.0119229
0.0106831
0.0106394
0.010942
0.0119885
0.0140197
0.015333
0.0173759
0.0189353
0.0231638
0.0280921
0.0307002
0.0337488
0.0376778
0.0407063
0.0454777
0.0507143
0.0582248
0.0601361
0.0618521
0.0581224
0.0481191
0.0411796
0.0331555
0.029297
0.0283739
0.0284411
0.0291051
0.0319086
0.0325256
0.0324676
0.0317807
0.0318764
0.0312126
0.0272211
0.0261847
0.0263451
0.0266665
0.0263706
0.0265284
0.0283693
0.0400286
0.0654358
0.0838293
0.0946124
0.0976673
0.0931047
0.0804605
0.077272
0.0789846
0.0842792
0.0855987
0.081642
0.0679046
0.0522152
0.0344535
0.0231201
0.017621
0.0131616
0.0121981
0.0122451
0.0145304
0.0169016
0.0271472
0.0299586
0.0491662
0.0444624
0.0717082
0.0623757
0.0644715
0.0926983
0.206451
0.174376
0.134655
0.080507
0.0412409
0.0195711
0.00897316
0.00497462
0.00297786
0.00181465
0.00175562
0.00187184
0.00232436
0.00256309
0.00229331
0.00325045
0.00348973
0.00345256
0.00391047
0.00419953
0.00507151
0.00838029
0.0169313
0.0356546
0.0882204
0.1255
0.146267
0.16095
0.164797
0.163828
0.154821
0.121677
0.0950651
0.0832505
0.0806033
0.0817837
0.0833442
0.0851968
0.0902648
0.113788
0.135043
0.132892
0.0965224
0.0743233
0.0917379
0.223846
0.282597
0.259402
0.15989
0.122493
0.11498
0.0855792
0.0686349
0.0685739
0.0582177
0.0456259
0.0404124
0.0371406
0.037799
0.0376371
0.0368106
0.0361093
0.0356079
0.0357232
0.0369881
0.042472
0.0503935
0.0563287
0.0602975
0.061476
0.0595653
0.0512188
0.0479831
0.0472673
0.0447551
0.0425828
0.0417688
0.0409409
0.0393134
0.0375074
0.0350435
0.029815
0.0239472
0.0182225
0.013983
0.0111791
0.00982415
0.00957094
0.00996978
0.0112908
0.0117784
0.0121403
0.0129863
0.014816
0.019186
0.0301003
0.0522722
0.0643336
0.0709097
0.0760209
0.0792666
0.0808794
0.0812922
0.081886
0.0826403
0.0818764
0.0767016
0.0755158
0.0758593
0.0754493
0.0681438
0.0623752
0.062487
0.0622183
0.0605476
0.0606402
0.0696724
0.111271
0.133827
0.140763
0.138248
0.116614
0.0697383
0.0649587
0.0570302
0.0298164
0.0177889
0.0154542
0.0151844
0.0125823
0.0107616
0.0106513
0.0111075
0.0125935
0.0145719
0.0163738
0.0180674
0.0191016
0.0223552
0.0266961
0.0288958
0.0324883
0.036597
0.0405081
0.0450057
0.0508392
0.0576492
0.0595414
0.061632
0.0584964
0.048336
0.0404254
0.0335945
0.0291377
0.0283069
0.0282662
0.0291064
0.0316491
0.0316584
0.0315213
0.0314771
0.0320783
0.0312208
0.0272906
0.0263354
0.0265183
0.0265141
0.0259776
0.0263954
0.0291604
0.0448951
0.0718466
0.0894934
0.0986226
0.100246
0.0935551
0.0808371
0.0778842
0.0798989
0.0817816
0.0831627
0.0804559
0.0664745
0.0512544
0.0359238
0.0230982
0.0206339
0.0149589
0.0170242
0.0148486
0.0432118
0.0258085
0.045785
0.035791
0.0607006
0.0498186
0.0746475
0.0723949
0.0673336
0.0813064
0.0592262
0.0482511
0.0350024
0.0219551
0.011591
0.00622157
0.00336241
0.00236452
0.00155901
0.00122389
0.00129171
0.00167775
0.00168162
0.00192321
0.00174695
0.00178663
0.00267302
0.00299313
0.00329915
0.00361876
0.00399163
0.00555766
0.00983394
0.0271103
0.0456272
0.0511227
0.0789941
0.127534
0.165052
0.175811
0.17456
0.153474
0.12177
0.109632
0.103604
0.101863
0.102761
0.105846
0.115469
0.136236
0.139579
0.127266
0.0767476
0.0678938
0.104029
0.259311
0.29582
0.257183
0.156399
0.135243
0.117232
0.0787943
0.0667689
0.0685082
0.0567477
0.0475263
0.0403934
0.037
0.0381217
0.0382863
0.0379172
0.0370806
0.0358546
0.0358713
0.0369744
0.0402251
0.0472096
0.0538302
0.0582024
0.0594549
0.0581325
0.051199
0.0483126
0.0475316
0.0450442
0.0434181
0.0426622
0.0418495
0.040679
0.0391632
0.0365814
0.0310003
0.0246767
0.0186885
0.0142562
0.01144
0.010003
0.00970573
0.00999771
0.011239
0.011764
0.0121081
0.0127181
0.0138808
0.0165962
0.02269
0.0392271
0.0548647
0.0661874
0.073485
0.0785425
0.0816036
0.0826246
0.083062
0.0833757
0.0814882
0.0769436
0.0762613
0.0762312
0.0738297
0.0657818
0.0636909
0.0648666
0.0643463
0.0617196
0.0616517
0.0717756
0.115776
0.138816
0.142959
0.137838
0.114939
0.0678201
0.0662135
0.0608012
0.0317078
0.01846
0.0154932
0.0156054
0.0135275
0.0109964
0.0108257
0.0116074
0.0133853
0.0160165
0.0188311
0.0193646
0.0196056
0.0214223
0.0253948
0.0273289
0.0313386
0.0359102
0.0405844
0.0448692
0.0512855
0.05726
0.0591638
0.0604692
0.0583983
0.047976
0.0390512
0.0338598
0.0294546
0.0280665
0.0279821
0.0290581
0.0317387
0.0315464
0.0313722
0.0316593
0.0328619
0.0312728
0.0271758
0.0262154
0.0262361
0.0258518
0.0254782
0.0263993
0.0306567
0.0512974
0.0785705
0.0948037
0.102049
0.102553
0.0932516
0.0807573
0.07939
0.0807868
0.0809224
0.0806637
0.0784616
0.0644026
0.0510491
0.0381563
0.0251071
0.053374
0.0322059
0.0607239
0.0329748
0.150916
0.0708243
0.155938
0.0725866
0.115571
0.0736386
0.0786962
0.0761375
0.0691765
0.0767324
0.0113465
0.0100571
0.00750997
0.0058046
0.00343492
0.00229015
0.00156261
0.0013157
0.00095881
0.000957259
0.00104739
0.00138683
0.00135837
0.00161815
0.00166814
0.00162347
0.00212915
0.00260704
0.00277287
0.00353781
0.00393394
0.00495286
0.0115066
0.0223213
0.0251779
0.0262295
0.0440986
0.10985
0.160387
0.173993
0.173798
0.163622
0.146603
0.141302
0.136494
0.133302
0.132281
0.13279
0.136909
0.142414
0.14052
0.104463
0.0629259
0.0640913
0.132332
0.288099
0.308334
0.256963
0.168678
0.147493
0.114859
0.0741632
0.0661508
0.0687517
0.0561501
0.0488974
0.0399699
0.0368516
0.0385609
0.0392148
0.0388243
0.0383216
0.0363003
0.0360969
0.0375129
0.0400132
0.0450034
0.0512865
0.0559377
0.0574096
0.0566136
0.0512887
0.0490116
0.0479983
0.0454925
0.0440802
0.0432229
0.0424191
0.041694
0.040535
0.0382513
0.0321324
0.025148
0.0190675
0.014507
0.0115819
0.0101268
0.00985033
0.0101041
0.0113627
0.011939
0.0122472
0.0127844
0.0134256
0.0149776
0.01853
0.027881
0.044058
0.0547834
0.0652537
0.0744273
0.0801057
0.0814995
0.081791
0.0817329
0.0781363
0.0750891
0.0747095
0.0739322
0.0705833
0.066136
0.0665224
0.0689317
0.0673407
0.0625589
0.0622585
0.0734709
0.12016
0.144193
0.143641
0.135488
0.112783
0.0666317
0.0671742
0.0642703
0.0341648
0.019569
0.0157205
0.0159041
0.0148196
0.0115347
0.0110459
0.0118892
0.0143879
0.0182893
0.0207468
0.0204317
0.0200802
0.0210844
0.024295
0.0260475
0.0304184
0.0357107
0.0406462
0.0449238
0.0517336
0.0571011
0.0590694
0.0593503
0.0576382
0.046323
0.0363744
0.0327585
0.0293956
0.0272848
0.0271266
0.0287867
0.0324594
0.0319559
0.0318348
0.0327166
0.0335289
0.0306522
0.0263927
0.0254306
0.0253892
0.0249425
0.0249267
0.0267597
0.0332896
0.0587994
0.0853521
0.100209
0.105777
0.104939
0.0920768
0.0807539
0.0801536
0.081067
0.0806277
0.0787379
0.0759409
0.0622997
0.051357
0.0384976
0.0375416
0.0614501
0.0426457
0.0676649
0.0486407
0.743847
0.36789
0.487993
0.209957
0.411492
0.189593
0.16662
0.101932
0.0787059
0.0794563
0.00167802
0.00162934
0.00142915
0.0013299
0.00107376
0.000812176
0.000762076
0.000706805
0.000620503
0.000681457
0.000724386
0.000928147
0.0010595
0.00123465
0.00166644
0.0015174
0.00198744
0.00211625
0.00204695
0.00227698
0.00323832
0.00544365
0.0151931
0.0184819
0.0175047
0.0177419
0.034232
0.0980728
0.141594
0.150072
0.14984
0.148217
0.147814
0.148167
0.148359
0.144929
0.140256
0.139044
0.140895
0.142257
0.130967
0.0728258
0.051728
0.0616524
0.170383
0.314381
0.321454
0.261268
0.193319
0.150582
0.0994612
0.0714626
0.0658659
0.0687576
0.055965
0.0487429
0.0396294
0.0371342
0.0386816
0.0402824
0.0391812
0.0394351
0.0376914
0.0366611
0.038618
0.040621
0.0435325
0.0490769
0.0535549
0.0553288
0.05495
0.0513657
0.0497796
0.048288
0.0460862
0.0446847
0.0437619
0.0430544
0.0426447
0.0417928
0.0397968
0.0332994
0.0259624
0.0199743
0.0152177
0.0119596
0.0103221
0.00995808
0.0101983
0.0117932
0.0127014
0.0129158
0.0131135
0.0133938
0.0140501
0.0158872
0.0204239
0.033727
0.04375
0.0504817
0.0636894
0.0728258
0.0749508
0.0755032
0.0750442
0.0720065
0.0719498
0.0722685
0.0716268
0.0691243
0.0694085
0.0722688
0.0747298
0.0692019
0.0627751
0.062498
0.0761009
0.125285
0.147407
0.143111
0.131907
0.111331
0.0662827
0.0667896
0.068387
0.0377612
0.0210637
0.0162898
0.016036
0.0162988
0.0130086