/*--------------------------------*- C++ -*----------------------------------*\
| =========                 |                                                 |
| \\      /  F ield         | OpenFOAM: The Open Source CFD Toolbox           |
|  \\    /   O peration     | Version:  2.4.0                                 |
|   \\  /    A nd           | Web:      www.OpenFOAM.org                      |
|    \\/     M anipulation  |                                                 |
\*---------------------------------------------------------------------------*/
FoamFile
{
    version     2.0;
    format      ascii;
    class       volVectorField;
    location    "0.182";
    object      U;
}
// * * * * * * * * * * * * * * * * * * * * * * * * * * * * * * * * * * * * * //

dimensions      [0 1 -1 0 0 0 0];

internalField   nonuniform List<vector> 
17600
(
(5.32676 0.309543 0)
(2.98548 0.0605322 0)
(2.19557 -0.00155895 0)
(1.84874 -0.00340999 0)
(1.70426 -0.00146105 0)
(1.61595 -0.000252938 0)
(1.5295 0.000591824 0)
(1.48665 -0.000586946 0)
(1.43172 -0.00036582 0)
(1.4028 0.00112156 0)
(1.37298 -0.00136049 0)
(1.35013 0.000888323 0)
(1.33548 -0.00025706 0)
(1.29426 0.000639096 0)
(1.30622 -0.00075977 0)
(1.2684 -2.93448e-05 0)
(1.2552 0.00163084 0)
(1.25689 -0.0019639 0)
(1.27373 -0.00141624 0)
(1.08693 -0.0380356 0)
(8.59539 0.872225 0)
(6.95207 0.383008 0)
(5.80593 0.121994 0)
(5.06002 0.0511902 0)
(4.6474 0.0274763 0)
(4.38982 0.0210702 0)
(4.15515 0.0172301 0)
(4.04506 0.0107864 0)
(3.87485 0.00931028 0)
(3.80445 0.010475 0)
(3.7219 0.00260265 0)
(3.63921 0.00763447 0)
(3.61673 0.00507863 0)
(3.49716 0.00546193 0)
(3.53937 0.00163657 0)
(3.41311 0.00565496 0)
(3.40205 0.00532519 0)
(3.40744 -0.00375234 0)
(3.37582 0.00626968 0)
(3.12364 -0.0724817 0)
(9.851 1.02268 0)
(9.3514 0.576544 0)
(8.46359 0.241926 0)
(7.64997 0.130432 0)
(7.08356 0.0801261 0)
(6.71474 0.0596113 0)
(6.36646 0.0451811 0)
(6.21438 0.0316974 0)
(5.94837 0.027533 0)
(5.84431 0.0249497 0)
(5.72726 0.0125524 0)
(5.57739 0.0183835 0)
(5.56852 0.0144272 0)
(5.36705 0.0132539 0)
(5.45084 0.00669371 0)
(5.23809 0.0161093 0)
(5.24115 0.00875449 0)
(5.24094 -0.00303136 0)
(5.16619 0.0148212 0)
(4.89267 -0.0989905 0)
(10.1502 0.948509 0)
(10.5814 0.66744 0)
(10.241 0.331707 0)
(9.65835 0.210533 0)
(9.10339 0.144414 0)
(8.72317 0.111349 0)
(8.3024 0.0824971 0)
(8.14383 0.0602442 0)
(7.81042 0.053628 0)
(7.67624 0.0432988 0)
(7.5513 0.0284454 0)
(7.32808 0.0324051 0)
(7.3537 0.0277126 0)
(7.06539 0.0236778 0)
(7.20148 0.0140314 0)
(6.90755 0.0309308 0)
(6.92941 0.0122531 0)
(6.92191 -0.000607012 0)
(6.80444 0.028005 0)
(6.55161 -0.117215 0)
(10.0581 0.806395 0)
(10.9431 0.668251 0)
(11.1048 0.35923 0)
(10.9201 0.256896 0)
(10.55 0.197915 0)
(10.2951 0.163884 0)
(9.87781 0.123086 0)
(9.75997 0.0916958 0)
(9.41424 0.0852459 0)
(9.25537 0.0633919 0)
(9.16107 0.0485067 0)
(8.86779 0.0489162 0)
(8.94558 0.0434296 0)
(8.57932 0.0362138 0)
(8.76961 0.0224892 0)
(8.41599 0.0493081 0)
(8.44762 0.0147635 0)
(8.44913 0.00586016 0)
(8.28381 0.0361684 0)
(8.06717 -0.106332 0)
(9.96243 0.691691 0)
(10.8947 0.634284 0)
(11.2722 0.337534 0)
(11.4098 0.253297 0)
(11.2787 0.216412 0)
(11.2659 0.198107 0)
(10.9555 0.155622 0)
(10.9384 0.11737 0)
(10.6661 0.117578 0)
(10.5031 0.0824847 0)
(10.4801 0.0693821 0)
(10.1458 0.066759 0)
(10.2829 0.0597252 0)
(9.86996 0.0502016 0)
(10.1041 0.0302157 0)
(9.7319 0.0709525 0)
(9.75694 0.0151074 0)
(9.79098 0.0135852 0)
(9.56244 0.0506688 0)
(9.44477 -0.120575 0)
(9.93052 0.601281 0)
(10.7902 0.600251 0)
(11.181 0.309051 0)
(11.4523 0.224182 0)
(11.4083 0.199774 0)
(11.6115 0.202253 0)
(11.4461 0.168111 0)
(11.549 0.124281 0)
(11.4448 0.140078 0)
(11.3186 0.0942057 0)
(11.4015 0.0849661 0)
(11.088 0.0825576 0)
(11.2891 0.0738717 0)
(10.8794 0.0639394 0)
(11.1448 0.0361248 0)
(10.7978 0.0922211 0)
(10.821 0.0168189 0)
(10.8957 0.0162099 0)
(10.5979 0.0714856 0)
(10.6252 -0.115625 0)
(9.91249 0.520923 0)
(10.7036 0.56169 0)
(11.0815 0.292347 0)
(11.4172 0.200461 0)
(11.3317 0.17602 0)
(11.5892 0.187595 0)
(11.5361 0.167328 0)
(11.6535 0.112105 0)
(11.7299 0.146101 0)
(11.662 0.0933048 0)
(11.8358 0.0880184 0)
(11.6126 0.0901269 0)
(11.8749 0.0798198 0)
(11.5262 0.0742514 0)
(11.8213 0.0359663 0)
(11.5311 0.111761 0)
(11.5922 0.0115089 0)
(11.6856 0.0335569 0)
(11.3988 0.0591811 0)
(11.4615 -0.00846366 0)
(9.92299 0.451255 0)
(10.5991 0.512123 0)
(10.9853 0.275641 0)
(11.3768 0.182526 0)
(11.317 0.160864 0)
(11.4833 0.167199 0)
(11.5187 0.162852 0)
(11.5615 0.094281 0)
(11.7187 0.139212 0)
(11.7199 0.0856394 0)
(11.8846 0.0802825 0)
(11.7852 0.0887299 0)
(12.0482 0.0756661 0)
(11.7943 0.0776463 0)
(12.0817 0.0281091 0)
(11.8847 0.122707 0)
(11.984 0.00129828 0)
(12.0955 0.0391344 0)
(11.9553 0.059023 0)
(11.8209 0.0169353 0)
(9.96662 0.39145 0)
(10.4891 0.462416 0)
(10.8915 0.256667 0)
(11.2752 0.156009 0)
(11.3338 0.149402 0)
(11.4283 0.149476 0)
(11.4874 0.16094 0)
(11.4887 0.0795461 0)
(11.6089 0.127479 0)
(11.7104 0.0741175 0)
(11.7836 0.070884 0)
(11.8187 0.0794039 0)
(12.013 0.0711427 0)
(11.8621 0.0753979 0)
(12.0511 0.0214985 0)
(11.9742 0.118515 0)
(12.032 -0.0024194 0)
(12.2014 0.0111555 0)
(12.1915 0.0825722 0)
(11.7179 -0.0326092 0)
(10.0042 0.336676 0)
(10.4264 0.416624 0)
(10.8292 0.238742 0)
(11.1355 0.129818 0)
(11.2942 0.129071 0)
(11.3928 0.135872 0)
(11.4537 0.157611 0)
(11.4629 0.0721827 0)
(11.5302 0.110939 0)
(11.6701 0.0676789 0)
(11.6504 0.0562595 0)
(11.7961 0.0711188 0)
(11.9276 0.0612168 0)
(11.8903 0.0794835 0)
(11.9899 0.0115357 0)
(11.9509 0.117269 0)
(12.0002 -0.016337 0)
(12.2271 -0.00965774 0)
(11.999 0.101393 0)
(11.6994 -0.0788796 0)
(10.0342 0.286098 0)
(10.3896 0.370304 0)
(10.7619 0.228963 0)
(11.03 0.104151 0)
(11.2421 0.107536 0)
(11.3366 0.117177 0)
(11.4084 0.153692 0)
(11.4518 0.0615173 0)
(11.5051 0.102843 0)
(11.5922 0.0624991 0)
(11.5564 0.0454459 0)
(11.7424 0.0548353 0)
(11.842 0.0527976 0)
(11.8939 0.0725843 0)
(11.9757 0.0136309 0)
(11.8731 0.10804 0)
(12.0332 -0.028079 0)
(12.1456 -0.00997961 0)
(11.7194 0.107136 0)
(12.1058 -0.181198 0)
(10.0498 0.238768 0)
(10.3315 0.32869 0)
(10.7071 0.216092 0)
(10.9842 0.0816477 0)
(11.216 0.0848929 0)
(11.2767 0.101614 0)
(11.3304 0.142822 0)
(11.4241 0.0513901 0)
(11.4776 0.0935961 0)
(11.5425 0.0651926 0)
(11.5444 0.0284048 0)
(11.6832 0.0447701 0)
(11.7683 0.038272 0)
(11.8564 0.0645029 0)
(11.9126 0.0168581 0)
(11.8291 0.0969528 0)
(12.0398 -0.0375349 0)
(11.9661 0.00333573 0)
(11.8308 0.068837 0)
(12.3876 -0.233386 0)
(10.0333 0.199448 0)
(10.2937 0.286186 0)
(10.6912 0.194131 0)
(10.9602 0.0603648 0)
(11.1727 0.0698152 0)
(11.2153 0.0900279 0)
(11.2684 0.132899 0)
(11.3842 0.0350096 0)
(11.4455 0.0855327 0)
(11.5344 0.0598757 0)
(11.5554 0.0193555 0)
(11.6228 0.0367712 0)
(11.6837 0.0283069 0)
(11.8174 0.053572 0)
(11.8026 0.0238009 0)
(11.8525 0.074395 0)
(11.9916 -0.0310636 0)
(11.8385 -0.0132129 0)
(12.108 0.0188669 0)
(12.2194 -0.182174 0)
(10.0142 0.162309 0)
(10.289 0.242351 0)
(10.6813 0.165349 0)
(10.9183 0.0487915 0)
(11.1094 0.0571788 0)
(11.1817 0.0788592 0)
(11.2478 0.117447 0)
(11.3536 0.0220242 0)
(11.4207 0.0703698 0)
(11.5099 0.0598821 0)
(11.5398 0.00837241 0)
(11.5693 0.0390334 0)
(11.6355 0.0109807 0)
(11.7817 0.049525 0)
(11.749 0.0167395 0)
(11.8964 0.0615351 0)
(11.8895 -0.0336343 0)
(11.8432 -0.0253179 0)
(12.1944 -0.0213514 0)
(11.8318 -0.131779 0)
(10.0168 0.130425 0)
(10.2753 0.194781 0)
(10.6403 0.139604 0)
(10.877 0.0377317 0)
(11.097 0.0450231 0)
(11.1727 0.0621514 0)
(11.2126 0.105056 0)
(11.3343 0.00624769 0)
(11.3903 0.0610565 0)
(11.4693 0.0538059 0)
(11.5206 0.00424282 0)
(11.5444 0.0317523 0)
(11.6482 0.00196579 0)
(11.7172 0.0330999 0)
(11.7628 0.0183477 0)
(11.88 0.0361625 0)
(11.7768 -0.0118701 0)
(11.951 -0.072826 0)
(12.039 -0.0121529 0)
(11.6276 -0.129453 0)
(10.0161 0.099048 0)
(10.2474 0.152045 0)
(10.603 0.110739 0)
(10.884 0.023936 0)
(11.0978 0.0308785 0)
(11.1273 0.0546974 0)
(11.1776 0.08871 0)
(11.3345 -0.00690744 0)
(11.3505 0.0464692 0)
(11.4515 0.0520375 0)
(11.513 -0.00733682 0)
(11.5378 0.0284531 0)
(11.6389 -0.00815442 0)
(11.6673 0.0277764 0)
(11.7685 0.00652572 0)
(11.7873 0.0410271 0)
(11.803 -0.0371661 0)
(11.9835 -0.0714727 0)
(11.8085 -0.00621744 0)
(11.7248 -0.0658477 0)
(10.0031 0.0726846 0)
(10.2346 0.106815 0)
(10.608 0.0782941 0)
(10.8854 0.0094862 0)
(11.0465 0.0258759 0)
(11.0808 0.0461576 0)
(11.2048 0.0666221 0)
(11.3397 -0.0189272 0)
(11.3058 0.035111 0)
(11.4364 0.0463799 0)
(11.501 -0.0162582 0)
(11.5272 0.0269675 0)
(11.5913 -0.0165915 0)
(11.6695 0.0191754 0)
(11.7473 0.00226899 0)
(11.7336 0.0318036 0)
(11.9079 -0.0536482 0)
(11.8595 -0.0640375 0)
(11.7336 -0.00840157 0)
(11.8448 -0.0264288 0)
(9.994 0.0476259 0)
(10.2455 0.0585403 0)
(10.6124 0.0477009 0)
(10.8377 0.00055959 0)
(11.0093 0.0213342 0)
(11.1004 0.0279321 0)
(11.2414 0.0443421 0)
(11.3096 -0.0250974 0)
(11.267 0.0272148 0)
(11.4162 0.0353633 0)
(11.4929 -0.0199807 0)
(11.5286 0.0172707 0)
(11.5733 -0.01737 0)
(11.6779 -0.00421673 0)
(11.7062 0.0118083 0)
(11.7844 -0.00140242 0)
(11.885 -0.0409445 0)
(11.7217 -0.0689919 0)
(11.8307 -0.0239127 0)
(11.9104 -0.112335 0)
(9.99828 0.0214627 0)
(10.2514 0.0119237 0)
(10.5818 0.0206135 0)
(10.8096 -0.00853624 0)
(11.0352 0.00756206 0)
(11.1332 0.0130666 0)
(11.221 0.0249899 0)
(11.2647 -0.0249848 0)
(11.2695 0.0114791 0)
(11.4116 0.0282822 0)
(11.5089 -0.0345851 0)
(11.5332 0.0206504 0)
(11.5725 -0.031387 0)
(11.6586 -0.00621437 0)
(11.6925 -0.00417231 0)
(11.8253 0.000835154 0)
(11.7618 -0.0539234 0)
(11.7713 -0.0558867 0)
(11.9271 -0.0764963 0)
(11.9031 -0.147841 0)
(10.0042 -0.00378171 0)
(10.2397 -0.0327329 0)
(10.5637 -0.00608731 0)
(10.8351 -0.0255298 0)
(11.0573 -0.00301056 0)
(11.1264 0.000354597 0)
(11.186 0.0128896 0)
(11.2622 -0.0357274 0)
(11.3018 0.000336361 0)
(11.4097 0.0124516 0)
(11.5218 -0.0360002 0)
(11.5203 0.00978089 0)
(11.5669 -0.0253003 0)
(11.6488 -0.0282967 0)
(11.735 -0.00124092 0)
(11.7677 -0.0238209 0)
(11.7496 -0.0335391 0)
(11.8902 -0.103775 0)
(11.8845 -0.0578935 0)
(11.8616 -0.208732 0)
(9.99937 -0.0289671 0)
(10.2358 -0.0763706 0)
(10.5833 -0.038213 0)
(10.8641 -0.0390957 0)
(11.0419 -0.012889 0)
(11.1156 -0.00635947 0)
(11.1847 -0.00794228 0)
(11.2916 -0.0424489 0)
(11.3156 -0.0143881 0)
(11.4026 0.00521909 0)
(11.521 -0.0442343 0)
(11.5168 0.00956003 0)
(11.5788 -0.0367187 0)
(11.6697 -0.0376927 0)
(11.7454 -0.0120654 0)
(11.7032 -0.0149386 0)
(11.8408 -0.0663328 0)
(11.8973 -0.0886472 0)
(11.8171 -0.0829246 0)
(11.8141 -0.129611 0)
(9.9866 -0.0554459 0)
(10.2567 -0.121647 0)
(10.6086 -0.0706202 0)
(10.8657 -0.0481281 0)
(11.0323 -0.0213101 0)
(11.1307 -0.0198957 0)
(11.2052 -0.0259404 0)
(11.3151 -0.054011 0)
(11.3126 -0.0218869 0)
(11.4058 -0.00714195 0)
(11.5243 -0.0504858 0)
(11.5318 0.00428013 0)
(11.5999 -0.0434798 0)
(11.695 -0.048716 0)
(11.6985 -0.0125826 0)
(11.7396 -0.0258442 0)
(11.8744 -0.0824199 0)
(11.8477 -0.0819785 0)
(11.8447 -0.102922 0)
(11.8265 -0.0531403 0)
(9.97968 -0.0807916 0)
(10.2812 -0.171535 0)
(10.6196 -0.0971261 0)
(10.8711 -0.0588487 0)
(11.061 -0.0323718 0)
(11.1521 -0.0348888 0)
(11.2218 -0.0441743 0)
(11.3218 -0.0622432 0)
(11.3239 -0.0287189 0)
(11.4178 -0.02295 0)
(11.5356 -0.0506425 0)
(11.554 -0.00966927 0)
(11.6278 -0.0422842 0)
(11.6996 -0.0621457 0)
(11.6847 -0.00976252 0)
(11.7981 -0.0542311 0)
(11.8591 -0.0740386 0)
(11.8549 -0.102755 0)
(11.8716 -0.0893586 0)
(11.8189 -0.12224 0)
(9.97657 -0.115155 0)
(10.2995 -0.211573 0)
(10.64 -0.131645 0)
(10.9016 -0.0630819 0)
(11.0968 -0.0508765 0)
(11.1583 -0.0416153 0)
(11.2371 -0.0645651 0)
(11.3288 -0.0675834 0)
(11.3537 -0.0410198 0)
(11.4396 -0.0315907 0)
(11.5514 -0.061509 0)
(11.5866 -0.0126561 0)
(11.6563 -0.0551062 0)
(11.6872 -0.0574289 0)
(11.7267 -0.0283805 0)
(11.8193 -0.0501158 0)
(11.8555 -0.0947366 0)
(11.8863 -0.0959997 0)
(11.8984 -0.112106 0)
(11.8423 -0.151952 0)
(9.97438 -0.142326 0)
(10.3235 -0.265958 0)
(10.6766 -0.153316 0)
(10.9373 -0.0817305 0)
(11.115 -0.0554401 0)
(11.1727 -0.0608381 0)
(11.2568 -0.0755299 0)
(11.3549 -0.0837958 0)
(11.3907 -0.0428087 0)
(11.4609 -0.052187 0)
(11.5793 -0.057862 0)
(11.6237 -0.0339474 0)
(11.6583 -0.0433847 0)
(11.7113 -0.0784456 0)
(11.777 -0.0225137 0)
(11.8265 -0.0779044 0)
(11.8808 -0.0817272 0)
(11.922 -0.124389 0)
(11.9162 -0.09744 0)
(11.8833 -0.20139 0)
(9.97777 -0.185147 0)
(10.35 -0.303184 0)
(10.7214 -0.189623 0)
(10.9698 -0.0809815 0)
(11.1364 -0.0786225 0)
(11.2037 -0.0655764 0)
(11.2816 -0.0990012 0)
(11.3899 -0.0887246 0)
(11.429 -0.0554716 0)
(11.4911 -0.0596528 0)
(11.6202 -0.0707811 0)
(11.651 -0.0334694 0)
(11.6706 -0.0555997 0)
(11.7622 -0.0771684 0)
(11.8159 -0.0428242 0)
(11.8408 -0.0689426 0)
(11.917 -0.107707 0)
(11.9579 -0.114657 0)
(11.9421 -0.125304 0)
(11.923 -0.13566 0)
(9.98838 -0.220947 0)
(10.3775 -0.357646 0)
(10.7814 -0.207158 0)
(10.999 -0.0969632 0)
(11.1666 -0.089131 0)
(11.236 -0.0829287 0)
(11.3182 -0.113448 0)
(11.4366 -0.101004 0)
(11.4753 -0.0628216 0)
(11.5352 -0.0738443 0)
(11.6618 -0.0756109 0)
(11.6707 -0.0410375 0)
(11.7059 -0.0599758 0)
(11.8141 -0.0856157 0)
(11.8362 -0.0500053 0)
(11.8804 -0.0728489 0)
(11.9616 -0.124593 0)
(11.9881 -0.108731 0)
(11.9833 -0.153258 0)
(11.9792 -0.0810863 0)
(10.008 -0.269904 0)
(10.413 -0.403147 0)
(10.8483 -0.224233 0)
(11.0072 -0.107174 0)
(11.2184 -0.10734 0)
(11.2711 -0.0984452 0)
(11.3772 -0.127248 0)
(11.4855 -0.116521 0)
(11.53 -0.0645765 0)
(11.5724 -0.0924025 0)
(11.6952 -0.0734789 0)
(11.7004 -0.053889 0)
(11.7541 -0.0597657 0)
(11.8488 -0.10109 0)
(11.8777 -0.0455091 0)
(11.933 -0.0984471 0)
(11.9971 -0.110364 0)
(12.0289 -0.142792 0)
(12.0336 -0.132676 0)
(12.0068 -0.153948 0)
(10.0364 -0.322966 0)
(10.4445 -0.450568 0)
(10.9077 -0.235363 0)
(11.0124 -0.119587 0)
(11.3089 -0.136953 0)
(11.3031 -0.10559 0)
(11.4515 -0.151105 0)
(11.5257 -0.118113 0)
(11.5917 -0.0794537 0)
(11.5921 -0.0955693 0)
(11.75 -0.0859756 0)
(11.7357 -0.0545186 0)
(11.8109 -0.0740245 0)
(11.8823 -0.0999361 0)
(11.947 -0.0616372 0)
(11.9671 -0.0974206 0)
(12.0427 -0.124778 0)
(12.0738 -0.143303 0)
(12.0775 -0.148356 0)
(12.0332 -0.194058 0)
(10.0488 -0.381408 0)
(10.4826 -0.49994 0)
(10.9542 -0.236346 0)
(11.0622 -0.148132 0)
(11.4138 -0.155444 0)
(11.3263 -0.124786 0)
(11.5409 -0.160158 0)
(11.561 -0.132411 0)
(11.6515 -0.0799232 0)
(11.6215 -0.110055 0)
(11.828 -0.0914537 0)
(11.7592 -0.0609028 0)
(11.8868 -0.0825572 0)
(11.9126 -0.107546 0)
(12.0114 -0.0664769 0)
(11.9808 -0.106449 0)
(12.0862 -0.128014 0)
(12.0581 -0.150943 0)
(12.0697 -0.156444 0)
(11.9819 -0.228471 0)
(10.0393 -0.449951 0)
(10.534 -0.53761 0)
(11.0053 -0.251292 0)
(11.1807 -0.171418 0)
(11.4812 -0.183059 0)
(11.3693 -0.133017 0)
(11.6321 -0.179171 0)
(11.5889 -0.137001 0)
(11.7072 -0.0867015 0)
(11.6771 -0.12282 0)
(11.8714 -0.0979111 0)
(11.7721 -0.0674717 0)
(11.9325 -0.0917971 0)
(11.8742 -0.111927 0)
(11.9902 -0.0726377 0)
(11.8909 -0.111768 0)
(11.9798 -0.123365 0)
(11.8546 -0.161559 0)
(11.8594 -0.140664 0)
(11.666 -0.259185 0)
(10.0185 -0.519019 0)
(10.6025 -0.580178 0)
(11.099 -0.266155 0)
(11.314 -0.203816 0)
(11.5058 -0.199215 0)
(11.4511 -0.149992 0)
(11.6928 -0.190321 0)
(11.5871 -0.141641 0)
(11.7319 -0.0974003 0)
(11.6554 -0.129001 0)
(11.7697 -0.102801 0)
(11.6526 -0.0717872 0)
(11.7571 -0.0957881 0)
(11.6008 -0.108154 0)
(11.6837 -0.0761116 0)
(11.5094 -0.10259 0)
(11.5303 -0.123821 0)
(11.3343 -0.139755 0)
(11.2862 -0.148935 0)
(11.0248 -0.200678 0)
(9.99824 -0.600984 0)
(10.705 -0.610468 0)
(11.2205 -0.290737 0)
(11.4166 -0.231352 0)
(11.5067 -0.216883 0)
(11.496 -0.168187 0)
(11.6001 -0.192011 0)
(11.4133 -0.142787 0)
(11.5032 -0.101909 0)
(11.3066 -0.123925 0)
(11.3152 -0.0969491 0)
(11.1536 -0.0690908 0)
(11.1654 -0.0871834 0)
(10.9353 -0.0962479 0)
(10.9772 -0.0682032 0)
(10.745 -0.0909548 0)
(10.719 -0.106478 0)
(10.4737 -0.123638 0)
(10.3987 -0.128256 0)
(10.0877 -0.159551 0)
(10.0085 -0.690092 0)
(10.8349 -0.641343 0)
(11.3132 -0.325444 0)
(11.3933 -0.260348 0)
(11.3136 -0.227907 0)
(11.1978 -0.172029 0)
(11.0772 -0.175626 0)
(10.7844 -0.128584 0)
(10.7627 -0.0911719 0)
(10.4672 -0.103186 0)
(10.401 -0.0806466 0)
(10.2106 -0.0572536 0)
(10.1592 -0.0698619 0)
(9.90613 -0.0782581 0)
(9.91749 -0.0561889 0)
(9.66464 -0.0730627 0)
(9.6111 -0.0861963 0)
(9.34829 -0.10354 0)
(9.25277 -0.0974242 0)
(8.91679 -0.143996 0)
(10.0896 -0.805235 0)
(10.9021 -0.672878 0)
(11.141 -0.351822 0)
(10.9079 -0.261944 0)
(10.5557 -0.205632 0)
(10.261 -0.145515 0)
(9.96585 -0.137159 0)
(9.61805 -0.0993772 0)
(9.52112 -0.0682456 0)
(9.19946 -0.0751323 0)
(9.10364 -0.0602992 0)
(8.9135 -0.0417314 0)
(8.83296 -0.0501459 0)
(8.593 -0.0592995 0)
(8.58159 -0.0422367 0)
(8.3372 -0.0533261 0)
(8.26877 -0.0664295 0)
(8.01313 -0.0764734 0)
(7.8994 -0.0797779 0)
(7.58616 -0.0850377 0)
(10.1705 -0.947348 0)
(10.5541 -0.670459 0)
(10.2696 -0.327538 0)
(9.64883 -0.213444 0)
(9.09544 -0.149647 0)
(8.71148 -0.0995082 0)
(8.36033 -0.090662 0)
(8.02962 -0.0665406 0)
(7.9052 -0.0431615 0)
(7.61458 -0.0479598 0)
(7.51662 -0.0404974 0)
(7.34588 -0.0262889 0)
(7.26372 -0.0316326 0)
(7.05645 -0.0410551 0)
(7.02872 -0.0279415 0)
(6.81561 -0.0349296 0)
(6.74353 -0.045724 0)
(6.50879 -0.0528877 0)
(6.39761 -0.0539662 0)
(6.10095 -0.0536805 0)
(9.86336 -1.0218 0)
(9.3353 -0.578509 0)
(8.48283 -0.239814 0)
(7.64366 -0.131589 0)
(7.07181 -0.0836542 0)
(6.71329 -0.0528287 0)
(6.40211 -0.0486217 0)
(6.13258 -0.0371123 0)
(6.01679 -0.0214027 0)
(5.79282 -0.0252339 0)
(5.70781 -0.0231698 0)
(5.57066 -0.013143 0)
(5.50636 -0.016332 0)
(5.34155 -0.0246175 0)
(5.3054 -0.0151989 0)
(5.14056 -0.0190047 0)
(5.07305 -0.026925 0)
(4.87451 -0.0311514 0)
(4.77757 -0.0310215 0)
(4.51216 -0.0299034 0)
(8.60246 -0.871774 0)
(6.94431 -0.384107 0)
(5.81516 -0.121084 0)
(5.05771 -0.0512489 0)
(4.63778 -0.0297253 0)
(4.38907 -0.0178751 0)
(4.17763 -0.0177833 0)
(3.99441 -0.0147672 0)
(3.91205 -0.00620254 0)
(3.77358 -0.00901267 0)
(3.71087 -0.00979642 0)
(3.6188 -0.00398322 0)
(3.58108 -0.0054707 0)
(3.46774 -0.0111979 0)
(3.4322 -0.00563326 0)
(3.32661 -0.00702219 0)
(3.27251 -0.0116811 0)
(3.12799 -0.0136634 0)
(3.0525 -0.0125799 0)
(2.85351 -0.0121761 0)
(5.32916 -0.309342 0)
(2.98393 -0.0607925 0)
(2.1965 0.00171829 0)
(1.84967 0.00368698 0)
(1.69994 0.000661096 0)
(1.61355 0.000925282 0)
(1.5404 -0.000170544 0)
(1.46907 -0.00093272 0)
(1.4379 0.00117672 0)
(1.39641 -6.52937e-05 0)
(1.36823 -0.00101683 0)
(1.3322 0.000589415 0)
(1.32425 0.000389503 0)
(1.27836 -0.00152232 0)
(1.25589 0.000118165 0)
(1.21962 8.96631e-05 0)
(1.19441 -0.00103304 0)
(1.1295 -0.00133379 0)
(1.09067 -0.000519123 0)
(1.00868 0.00559089 0)
(1.79597 -0.327893 0)
(1.88367 -0.512883 0)
(1.84331 -0.670604 0)
(1.45546 -0.702095 0)
(1.09147 -0.394438 0)
(1.11169 0.326558 0)
(2.26221 1.20834 0)
(2.87748 1.87271 0)
(4.26375 1.96685 0)
(5.02721 2.15474 0)
(5.8203 2.3037 0)
(6.67923 1.61992 0)
(7.0692 0.714823 0)
(6.44113 1.04537 0)
(7.22873 1.83 0)
(8.17856 1.84584 0)
(9.7217 0.887569 0)
(10.1527 0.102823 0)
(11.1927 -1.04296 0)
(11.526 -1.9307 0)
(11.0938 -2.48228 0)
(11.1029 -3.10457 0)
(11.3748 -3.72089 0)
(12.255 -4.73734 0)
(13.0201 -5.65078 0)
(13.206 -6.12739 0)
(13.3115 -6.63306 0)
(12.9074 -6.79478 0)
(12.2873 -6.61888 0)
(12.037 -6.79063 0)
(11.6094 -6.72297 0)
(10.9383 -6.49207 0)
(10.7946 -6.61017 0)
(10.74 -6.716 0)
(10.5418 -6.70229 0)
(10.0774 -6.52375 0)
(10.4254 -6.60412 0)
(10.8783 -7.18106 0)
(11.0254 -7.20322 0)
(11.4265 -6.9763 0)
(11.4256 -6.9623 0)
(11.6512 -6.44943 0)
(11.8127 -5.94283 0)
(12.229 -5.36128 0)
(12.5639 -4.60076 0)
(12.6064 -3.70643 0)
(12.7624 -2.45975 0)
(12.7895 -1.44293 0)
(12.4051 -0.328211 0)
(12.1233 0.865086 0)
(11.9315 1.6961 0)
(11.7388 2.9597 0)
(11.1251 3.75306 0)
(10.3112 3.70739 0)
(9.5079 4.01516 0)
(8.75894 3.99248 0)
(8.10368 3.31797 0)
(7.6836 3.43988 0)
(7.22096 3.72469 0)
(6.75386 3.03043 0)
(6.47735 2.4965 0)
(6.35001 2.92996 0)
(6.18088 3.44292 0)
(6.00376 2.99396 0)
(5.70439 1.78736 0)
(5.45756 1.40361 0)
(5.58565 2.52152 0)
(5.59445 3.72487 0)
(5.43928 4.52735 0)
(5.32078 5.13816 0)
(5.51058 5.56436 0)
(5.82594 5.86358 0)
(6.08794 5.9551 0)
(6.52791 5.62203 0)
(6.48946 5.84574 0)
(5.9851 7.06334 0)
(6.02196 7.88938 0)
(6.3031 7.82531 0)
(6.34373 7.18381 0)
(6.55199 6.0358 0)
(6.61141 4.87684 0)
(6.525 3.96957 0)
(6.57621 2.72755 0)
(6.76613 0.942004 0)
(6.7567 -1.33906 0)
(6.33888 -3.65359 0)
(6.13153 -5.20249 0)
(6.21277 -6.13902 0)
(5.99895 -7.59491 0)
(5.21322 -9.17577 0)
(4.79626 -9.60308 0)
(4.54036 -8.95176 0)
(4.40566 -8.2853 0)
(4.4453 -8.22361 0)
(4.72755 -8.39787 0)
(4.99785 -8.65873 0)
(5.61683 -8.98186 0)
(6.22871 -9.4209 0)
(6.61301 -9.73065 0)
(6.84503 -9.59814 0)
(7.34577 -9.34381 0)
(7.69192 -8.94573 0)
(7.86463 -8.02467 0)
(7.89267 -6.58068 0)
(7.85089 -5.044 0)
(7.85853 -3.88189 0)
(7.89538 -3.32047 0)
(8.12591 -2.87568 0)
(8.42904 -1.72672 0)
(8.69807 0.274998 0)
(8.66805 2.02706 0)
(8.73783 3.14037 0)
(8.39193 4.37806 0)
(7.95934 5.50774 0)
(7.7732 6.43166 0)
(7.40783 7.0089 0)
(7.26563 7.31248 0)
(7.17581 8.2656 0)
(6.64338 9.75502 0)
(6.25013 9.90613 0)
(6.25768 7.9423 0)
(6.14208 6.22291 0)
(5.82348 5.77538 0)
(5.34771 6.55658 0)
(5.09083 7.77685 0)
(5.10606 8.7547 0)
(5.32621 9.241 0)
(5.78792 9.41938 0)
(6.26324 8.72668 0)
(6.78692 7.56791 0)
(6.9428 6.50504 0)
(7.33782 5.14952 0)
(7.42064 3.6397 0)
(7.80692 2.31306 0)
(7.33406 1.16966 0)
(7.29063 0.225129 0)
(6.74495 0.0813258 0)
(6.76112 -0.00578584 0)
(6.47269 -0.322367 0)
(6.4947 -1.31326 0)
(6.4466 -2.74087 0)
(6.63381 -4.26024 0)
(6.74761 -5.35919 0)
(7.26199 -5.79491 0)
(7.29378 -5.73793 0)
(7.76799 -5.38534 0)
(7.75325 -4.92488 0)
(7.97477 -4.25343 0)
(7.96457 -3.85129 0)
(7.98663 -3.54932 0)
(7.56844 -3.36296 0)
(7.864 -3.19089 0)
(7.56206 -2.74799 0)
(7.8918 -2.41355 0)
(7.19896 -2.74072 0)
(7.43595 -2.41539 0)
(6.97413 -1.92093 0)
(7.47335 -1.29485 0)
(6.65291 -1.6182 0)
(6.9729 -1.70696 0)
(5.88215 -2.19356 0)
(6.56516 -1.76222 0)
(6.13045 -2.54802 0)
(7.36719 -2.59501 0)
(6.89158 -3.66641 0)
(7.91944 -3.73415 0)
(7.66082 -4.3705 0)
(8.08624 -4.84473 0)
(7.97103 -5.10792 0)
(8.0419 -4.91494 0)
(8.12507 -5.02644 0)
(8.23337 -5.26792 0)
(8.40874 -5.35403 0)
(8.6586 -5.15034 0)
(8.90026 -4.67911 0)
(9.12549 -3.78793 0)
(9.31794 -2.68772 0)
(9.46909 -1.479 0)
(9.61486 -0.425397 0)
(9.97086 0.604243 0)
(10.21 1.98683 0)
(10.0522 3.25288 0)
(9.85041 4.34508 0)
(9.60406 5.5995 0)
(9.24623 6.62831 0)
(8.75142 7.2684 0)
(8.32689 8.22192 0)
(7.98086 9.4782 0)
(7.51098 10.0474 0)
(6.84925 9.74669 0)
(6.26387 9.07774 0)
(5.67799 8.34909 0)
(5.13742 7.97188 0)
(4.90426 7.64127 0)
(4.60494 7.69832 0)
(4.39856 7.72793 0)
(4.37669 7.75106 0)
(4.18691 8.66117 0)
(4.33634 9.38438 0)
(2.5469 10.684 0)
(3.65581 -0.300837 0)
(3.54118 -0.450623 0)
(3.55859 -0.570261 0)
(3.26226 -0.566482 0)
(2.9112 -0.281426 0)
(2.59821 0.248041 0)
(2.83211 0.84256 0)
(3.45704 1.26497 0)
(4.68366 1.39469 0)
(5.6758 1.78104 0)
(6.62315 2.08044 0)
(7.51535 1.45241 0)
(7.78158 0.623526 0)
(7.55719 0.847064 0)
(8.09483 1.57818 0)
(9.06256 1.46264 0)
(10.3344 0.642569 0)
(10.8322 -0.16925 0)
(11.6345 -1.30544 0)
(11.3079 -1.85594 0)
(11.1381 -2.35957 0)
(11.7479 -3.18143 0)
(12.2866 -3.97098 0)
(13.1884 -5.0293 0)
(13.6945 -5.79956 0)
(13.5722 -6.1944 0)
(13.483 -6.58974 0)
(12.9295 -6.58452 0)
(12.3181 -6.42779 0)
(12.037 -6.6119 0)
(11.4833 -6.49361 0)
(10.8974 -6.34575 0)
(10.9236 -6.5943 0)
(10.7577 -6.65516 0)
(10.4165 -6.53698 0)
(10.0974 -6.50818 0)
(10.5255 -6.76431 0)
(10.9633 -7.34087 0)
(10.9272 -7.3471 0)
(11.2206 -6.98205 0)
(11.1701 -7.01265 0)
(11.4161 -6.5623 0)
(11.7103 -6.03226 0)
(12.1178 -5.53745 0)
(12.4753 -4.70728 0)
(12.5125 -3.69669 0)
(12.5561 -2.48725 0)
(12.6287 -1.40275 0)
(12.3155 -0.180005 0)
(11.9288 0.995208 0)
(11.6243 1.77602 0)
(11.508 3.10132 0)
(11.0071 4.01664 0)
(10.2344 4.03149 0)
(9.44132 4.33803 0)
(8.69504 4.27664 0)
(8.03312 3.55862 0)
(7.61405 3.64569 0)
(7.17007 3.90645 0)
(6.68215 3.16958 0)
(6.40764 2.58418 0)
(6.2934 2.9984 0)
(6.1398 3.51307 0)
(5.93443 3.07783 0)
(5.65002 1.89387 0)
(5.39636 1.43387 0)
(5.5196 2.4869 0)
(5.60869 3.74405 0)
(5.47862 4.57199 0)
(5.38529 5.10264 0)
(5.58529 5.42492 0)
(5.92941 5.70954 0)
(6.3413 5.7869 0)
(6.87712 5.54506 0)
(6.75965 5.96277 0)
(6.2738 7.15498 0)
(6.38405 7.85089 0)
(6.60791 7.81729 0)
(6.71548 7.16451 0)
(6.96565 6.00132 0)
(7.05152 4.88081 0)
(7.02713 3.99332 0)
(7.17274 2.72035 0)
(7.43922 0.935997 0)
(7.50475 -1.2273 0)
(7.0399 -3.52549 0)
(6.66522 -5.16177 0)
(6.65062 -6.07406 0)
(6.41805 -7.38722 0)
(5.62146 -8.957 0)
(5.10446 -9.49165 0)
(4.81822 -8.86548 0)
(4.63248 -8.29376 0)
(4.68809 -8.25716 0)
(4.78053 -8.51072 0)
(5.01508 -8.87403 0)
(5.5548 -9.20664 0)
(6.05546 -9.59401 0)
(6.28277 -9.90611 0)
(6.43955 -9.77686 0)
(6.88294 -9.4829 0)
(7.13435 -8.98155 0)
(7.26492 -8.01368 0)
(7.27443 -6.55266 0)
(7.24812 -5.02694 0)
(7.30975 -3.89372 0)
(7.3799 -3.37078 0)
(7.5349 -2.90978 0)
(7.71598 -1.77107 0)
(7.91402 0.204677 0)
(7.98708 1.96016 0)
(8.17004 3.2026 0)
(7.86653 4.49233 0)
(7.54684 5.59182 0)
(7.31723 6.53981 0)
(7.02969 7.09618 0)
(6.91985 7.40587 0)
(6.85258 8.42694 0)
(6.27133 9.8893 0)
(5.9415 9.93519 0)
(6.03902 7.93065 0)
(5.87933 6.32801 0)
(5.50008 5.95536 0)
(5.26705 6.70319 0)
(4.80024 7.83414 0)
(5.12966 8.63674 0)
(5.29216 9.06717 0)
(5.83376 9.1553 0)
(6.39092 8.53944 0)
(6.90461 7.42308 0)
(7.07939 6.37454 0)
(7.58694 5.02811 0)
(7.66487 3.58066 0)
(8.07561 2.31476 0)
(7.64393 1.27218 0)
(7.66388 0.323323 0)
(7.0885 0.163856 0)
(7.14883 0.0767212 0)
(6.85695 -0.257355 0)
(6.95513 -1.28338 0)
(6.94485 -2.78585 0)
(7.13061 -4.33342 0)
(7.23954 -5.49077 0)
(7.72987 -5.92381 0)
(7.69466 -5.83566 0)
(8.16197 -5.48598 0)
(8.04447 -4.95506 0)
(8.26032 -4.29576 0)
(8.22205 -3.82664 0)
(8.21542 -3.49536 0)
(7.84265 -3.29229 0)
(7.95278 -3.1944 0)
(7.65813 -2.72587 0)
(7.91526 -2.37069 0)
(7.32307 -2.6109 0)
(7.4445 -2.38432 0)
(7.00316 -1.91975 0)
(7.5142 -1.23763 0)
(6.83883 -1.51788 0)
(7.16611 -1.59744 0)
(6.12609 -2.03189 0)
(6.6992 -1.86988 0)
(6.21509 -2.70576 0)
(7.28216 -2.6935 0)
(6.72796 -3.8616 0)
(7.85198 -3.79941 0)
(7.40614 -4.57023 0)
(7.90508 -4.79977 0)
(7.71318 -5.14057 0)
(7.75646 -4.97126 0)
(7.90845 -5.04313 0)
(8.08952 -5.31597 0)
(8.26674 -5.45401 0)
(8.49961 -5.27239 0)
(8.68374 -4.70344 0)
(8.88497 -3.88802 0)
(9.02356 -2.7446 0)
(9.111 -1.51358 0)
(9.25898 -0.595745 0)
(9.57424 0.512749 0)
(9.73667 2.15439 0)
(9.59205 3.59537 0)
(9.46549 4.68592 0)
(9.27264 5.90546 0)
(8.92373 6.88663 0)
(8.50805 7.4702 0)
(8.19755 8.34464 0)
(7.87499 9.59273 0)
(7.42983 10.2863 0)
(6.76705 9.98335 0)
(6.19442 9.28552 0)
(5.75144 8.59068 0)
(5.27791 8.14813 0)
(5.06588 7.85696 0)
(4.7694 7.79473 0)
(4.49165 7.84191 0)
(4.48 7.75619 0)
(4.56021 8.65688 0)
(5.49823 9.2329 0)
(3.7704 11.3473 0)
(5.34924 -0.29912 0)
(5.23849 -0.374347 0)
(5.10973 -0.547461 0)
(4.94901 -0.46815 0)
(4.81184 -0.187488 0)
(4.40228 0.247874 0)
(4.53812 0.855731 0)
(4.94379 1.09822 0)
(5.0312 0.974921 0)
(5.69216 1.23124 0)
(6.81169 1.61636 0)
(8.00666 1.22976 0)
(7.99118 0.595952 0)
(7.8876 0.633857 0)
(8.33047 1.21017 0)
(9.43069 0.959606 0)
(10.4839 0.280225 0)
(10.8329 -0.467818 0)
(11.4039 -1.3984 0)
(11.2359 -1.79226 0)
(11.7915 -2.48545 0)
(12.6497 -3.4549 0)
(13.2077 -4.28635 0)
(13.9937 -5.27734 0)
(14.1542 -5.86875 0)
(13.7942 -6.17035 0)
(13.5586 -6.42863 0)
(12.8406 -6.31187 0)
(12.226 -6.22798 0)
(11.9714 -6.43662 0)
(11.4028 -6.30212 0)
(10.9531 -6.23854 0)
(11.0045 -6.55469 0)
(10.684 -6.54618 0)
(10.2548 -6.39585 0)
(10.1328 -6.57314 0)
(10.5951 -6.95377 0)
(10.8971 -7.42452 0)
(10.7463 -7.41311 0)
(10.9312 -6.96842 0)
(10.9251 -7.0557 0)
(11.2103 -6.73216 0)
(11.6168 -6.14831 0)
(11.9978 -5.69222 0)
(12.3019 -4.82992 0)
(12.3777 -3.664 0)
(12.3127 -2.47777 0)
(12.3535 -1.37587 0)
(12.1575 -0.0332925 0)
(11.7249 1.14479 0)
(11.3059 1.85436 0)
(11.234 3.20986 0)
(10.8275 4.24105 0)
(10.1012 4.33321 0)
(9.35578 4.64735 0)
(8.61025 4.5659 0)
(7.93236 3.80678 0)
(7.52509 3.82807 0)
(7.10208 4.07938 0)
(6.59513 3.33093 0)
(6.32676 2.67467 0)
(6.21928 3.05401 0)
(6.08669 3.58895 0)
(5.88513 3.18354 0)
(5.60937 2.01302 0)
(5.35878 1.47931 0)
(5.45289 2.43126 0)
(5.61195 3.73685 0)
(5.52551 4.61409 0)
(5.46534 5.08873 0)
(5.64232 5.31779 0)
(5.96521 5.53434 0)
(6.50299 5.56346 0)
(7.10068 5.45451 0)
(6.92797 6.05947 0)
(6.5331 7.20942 0)
(6.69829 7.78263 0)
(6.88605 7.78252 0)
(7.07961 7.1106 0)
(7.36667 5.93117 0)
(7.49877 4.85061 0)
(7.55532 3.97147 0)
(7.7802 2.64573 0)
(8.09844 0.896294 0)
(8.21474 -1.12074 0)
(7.73313 -3.36812 0)
(7.21142 -5.0656 0)
(7.10006 -5.97009 0)
(6.84489 -7.14932 0)
(6.03912 -8.70432 0)
(5.40537 -9.31713 0)
(5.11213 -8.74494 0)
(4.89935 -8.26482 0)
(4.87434 -8.26028 0)
(4.86761 -8.58356 0)
(5.02668 -9.04628 0)
(5.41484 -9.35681 0)
(5.83694 -9.70215 0)
(5.94502 -9.99235 0)
(6.06466 -9.91343 0)
(6.4298 -9.56367 0)
(6.58617 -8.9892 0)
(6.67144 -7.97566 0)
(6.6648 -6.52876 0)
(6.65786 -5.0329 0)
(6.79079 -3.93669 0)
(6.89084 -3.39419 0)
(6.95594 -2.899 0)
(6.9694 -1.76181 0)
(7.087 0.162845 0)
(7.27716 1.91602 0)
(7.53702 3.26242 0)
(7.29034 4.59918 0)
(7.08344 5.71254 0)
(6.84243 6.65375 0)
(6.67403 7.13489 0)
(6.57379 7.47164 0)
(6.49248 8.58593 0)
(5.8935 10.028 0)
(5.6244 9.94149 0)
(5.81118 7.92122 0)
(5.5531 6.45345 0)
(5.26419 6.08649 0)
(5.09445 6.83713 0)
(4.63609 7.8869 0)
(5.14671 8.48112 0)
(5.26167 8.86359 0)
(5.87959 8.86014 0)
(6.45234 8.3245 0)
(6.99681 7.27288 0)
(7.19405 6.21219 0)
(7.83845 4.89585 0)
(7.87425 3.51533 0)
(8.3029 2.29692 0)
(7.92409 1.35804 0)
(7.99796 0.412868 0)
(7.39587 0.232773 0)
(7.50965 0.150561 0)
(7.22525 -0.200456 0)
(7.37884 -1.2629 0)
(7.39026 -2.82343 0)
(7.63927 -4.42046 0)
(7.73483 -5.61535 0)
(8.19235 -6.03119 0)
(8.1222 -5.90801 0)
(8.52485 -5.55463 0)
(8.32765 -4.96231 0)
(8.52174 -4.32508 0)
(8.40647 -3.80298 0)
(8.4108 -3.43535 0)
(8.05815 -3.21036 0)
(8.0368 -3.16258 0)
(7.72962 -2.67415 0)
(7.90494 -2.33864 0)
(7.43077 -2.49316 0)
(7.41876 -2.34525 0)
(7.0526 -1.87318 0)
(7.45842 -1.27535 0)
(6.99216 -1.41429 0)
(7.23522 -1.46673 0)