/*--------------------------------*- C++ -*----------------------------------*\
| =========                 |                                                 |
| \\      /  F ield         | OpenFOAM: The Open Source CFD Toolbox           |
|  \\    /   O peration     | Version:  2.4.0                                 |
|   \\  /    A nd           | Web:      www.OpenFOAM.org                      |
|    \\/     M anipulation  |                                                 |
\*---------------------------------------------------------------------------*/
FoamFile
{
    version     2.0;
    format      ascii;
    class       volScalarField;
    location    "0.09";
    object      nuSgs;
}
// * * * * * * * * * * * * * * * * * * * * * * * * * * * * * * * * * * * * * //

dimensions      [0 2 -1 0 0 0 0];

internalField   nonuniform List<scalar> 
17600
(
0.000292922
0.000698878
0.000907553
0.000960305
0.000947322
0.000906667
0.00084934
0.00079582
0.000751725
0.000714412
0.000686019
0.00066171
0.00064311
0.000626158
0.000613213
0.00060002
0.000590399
0.000579764
0.000572221
0.000563237
0.000557448
0.000549578
0.00054509
0.000538091
0.00053475
0.000528297
0.000525794
0.000520088
0.000518324
0.000513022
0.000512205
0.000507075
0.00050732
0.000502094
0.000503541
0.000496949
0.000499057
0.00049023
0.000490721
0.000476064
3.8165e-05
0.000178926
0.000339301
0.000472094
0.000544854
0.000580691
0.000594633
0.000594128
0.000591498
0.000585467
0.0005797
0.000572486
0.000567084
0.000559693
0.000554549
0.000547765
0.000543079
0.000536789
0.000532755
0.000526888
0.000523338
0.000518051
0.000514949
0.000509871
0.000507483
0.00050256
0.000500479
0.000495959
0.000494254
0.000489907
0.000488584
0.000484547
0.000483531
0.000479886
0.000479194
0.000476308
0.000475792
0.000473879
0.000472713
0.000469768
3.25307e-06
2.82574e-05
7.19648e-05
0.000126864
0.000192328
0.000239952
0.000275419
0.00029775
0.00031247
0.000322147
0.000329372
0.000333053
0.00033776
0.000341498
0.000344302
0.000347782
0.000350832
0.000353138
0.000355536
0.000358218
0.000359785
0.000361828
0.000363655
0.000365298
0.000366319
0.000367947
0.000368803
0.0003697
0.00037044
0.000371357
0.000371537
0.00037232
0.000372303
0.000372936
0.000372672
0.000373889
0.000373911
0.000375862
0.000376997
0.000376569
1.51293e-06
3.99317e-06
1.22756e-05
2.60624e-05
4.50088e-05
6.97613e-05
9.01017e-05
0.000110753
0.000124006
0.000136073
0.000145508
0.000152564
0.000157987
0.000164358
0.000167674
0.000172084
0.000176016
0.000179417
0.000182289
0.000185858
0.000188721
0.000191149
0.000194225
0.000197482
0.000199309
0.00020259
0.000204996
0.000207665
0.000209568
0.000212992
0.000214433
0.000217656
0.000219099
0.000222255
0.000223628
0.000226929
0.000228108
0.00023116
0.000231741
0.000233656
1.49584e-06
1.58414e-06
2.38827e-06
4.78168e-06
8.85133e-06
1.54871e-05
2.12785e-05
3.07246e-05
3.53286e-05
4.31224e-05
4.73433e-05
5.26351e-05
5.59297e-05
6.13425e-05
6.36908e-05
6.72002e-05
6.98054e-05
7.29582e-05
7.55276e-05
7.79689e-05
8.05164e-05
8.21602e-05
8.42076e-05
8.68434e-05
8.80924e-05
8.9947e-05
9.19493e-05
9.34777e-05
9.47626e-05
9.69369e-05
9.78057e-05
9.94725e-05
0.000100948
0.000102201
0.00010385
0.000105652
0.000106531
0.000107933
0.000108587
0.000109872
1.49184e-06
1.51564e-06
1.57865e-06
1.7706e-06
2.24656e-06
3.378e-06
4.56375e-06
7.0119e-06
8.23025e-06
1.07203e-05
1.18434e-05
1.40837e-05
1.50535e-05
1.72764e-05
1.81378e-05
2.00582e-05
2.08487e-05
2.26717e-05
2.34712e-05
2.53612e-05
2.60619e-05
2.76611e-05
2.82717e-05
2.98366e-05
3.03812e-05
3.18895e-05
3.24174e-05
3.377e-05
3.4198e-05
3.55255e-05
3.58012e-05
3.69158e-05
3.72099e-05
3.82467e-05
3.85008e-05
3.97565e-05
4.00231e-05
4.14531e-05
4.22033e-05
4.43043e-05
1.48932e-06
1.51355e-06
1.54431e-06
1.6465e-06
1.71612e-06
1.90191e-06
2.02624e-06
2.3666e-06
2.54888e-06
2.99396e-06
3.20028e-06
3.67972e-06
3.88477e-06
4.39861e-06
4.60423e-06
5.10656e-06
5.31051e-06
5.8159e-06
6.03578e-06
6.60842e-06
6.82252e-06
7.34758e-06
7.53748e-06
8.03407e-06
8.20563e-06
8.73723e-06
8.9231e-06
9.40473e-06
9.55951e-06
1.00196e-05
1.00997e-05
1.04448e-05
1.05369e-05
1.08523e-05
1.09364e-05
1.13253e-05
1.13868e-05
1.17133e-05
1.18046e-05
1.22895e-05
1.48855e-06
1.49988e-06
1.52919e-06
1.60166e-06
1.65965e-06
1.7574e-06
1.86219e-06
1.94726e-06
1.99619e-06
2.06635e-06
2.10537e-06
2.16779e-06
2.19296e-06
2.24037e-06
2.26663e-06
2.31314e-06
2.34039e-06
2.39744e-06
2.44634e-06
2.48374e-06
2.54169e-06
2.60732e-06
2.64383e-06
2.70355e-06
2.73419e-06
2.79847e-06
2.8742e-06
2.90879e-06
2.98411e-06
3.0251e-06
3.05494e-06
3.07419e-06
3.10038e-06
3.11084e-06
3.15368e-06
3.1815e-06
3.24703e-06
3.25873e-06
3.287e-06
3.49452e-06
1.48682e-06
1.50582e-06
1.52529e-06
1.61117e-06
1.65203e-06
1.7729e-06
1.81782e-06
1.92892e-06
1.95599e-06
2.02653e-06
2.03916e-06
2.07307e-06
2.07895e-06
2.10025e-06
2.10442e-06
2.12355e-06
2.12793e-06
2.14381e-06
2.14719e-06
2.16119e-06
2.16478e-06
2.17742e-06
2.17938e-06
2.19058e-06
2.19344e-06
2.20484e-06
2.20858e-06
2.22164e-06
2.22462e-06
2.23668e-06
2.23961e-06
2.24948e-06
2.25051e-06
2.25927e-06
2.2625e-06
2.28562e-06
2.29053e-06
2.31184e-06
2.33684e-06
2.60594e-06
1.48654e-06
1.49576e-06
1.51757e-06
1.5806e-06
1.62447e-06
1.71289e-06
1.80324e-06
1.85044e-06
1.90487e-06
1.97091e-06
1.99005e-06
1.99454e-06
2.00424e-06
2.01159e-06
2.02876e-06
2.04223e-06
2.04778e-06
2.04777e-06
2.04982e-06
2.05182e-06
2.06138e-06
2.0668e-06
2.071e-06
2.07177e-06
2.07415e-06
2.07477e-06
2.08133e-06
2.0879e-06
2.09444e-06
2.0959e-06
2.10055e-06
2.10166e-06
2.10424e-06
2.10642e-06
2.11856e-06
2.12686e-06
2.15225e-06
2.16805e-06
2.21001e-06
2.45407e-06
1.4864e-06
1.51674e-06
1.53485e-06
1.61535e-06
1.64876e-06
1.78545e-06
1.82336e-06
1.93725e-06
1.96289e-06
2.03693e-06
2.04107e-06
2.07598e-06
2.07941e-06
2.10484e-06
2.10889e-06
2.1396e-06
2.14037e-06
2.15847e-06
2.16035e-06
2.17715e-06
2.17733e-06
2.1965e-06
2.1975e-06
2.21314e-06
2.21525e-06
2.23497e-06
2.23663e-06
2.2568e-06
2.25909e-06
2.27775e-06
2.27991e-06
2.29984e-06
2.30024e-06
2.31991e-06
2.32228e-06
2.35533e-06
2.36138e-06
2.42642e-06
2.47248e-06
2.92914e-06
1.48753e-06
1.50518e-06
1.52679e-06
1.58856e-06
1.64018e-06
1.78995e-06
1.83092e-06
1.94192e-06
1.97237e-06
2.03627e-06
2.04468e-06
2.09402e-06
2.10181e-06
2.13264e-06
2.14072e-06
2.17021e-06
2.16933e-06
2.19198e-06
2.19479e-06
2.21281e-06
2.21568e-06
2.24444e-06
2.24672e-06
2.27036e-06
2.2756e-06
2.30501e-06
2.30789e-06
2.34003e-06
2.34368e-06
2.3766e-06
2.38061e-06
2.42097e-06
2.42492e-06
2.47383e-06
2.48809e-06
2.57308e-06
2.6156e-06
2.82582e-06
2.95553e-06
3.41915e-06
1.49966e-06
1.50796e-06
1.5786e-06
1.60029e-06
1.77003e-06
1.81366e-06
1.95925e-06
1.99513e-06
2.12311e-06
2.14347e-06
2.23976e-06
2.27013e-06
2.34399e-06
2.36893e-06
2.44106e-06
2.46607e-06
2.51164e-06
2.58839e-06
2.62769e-06
2.69623e-06
2.74035e-06
2.84021e-06
2.88886e-06
2.99702e-06
3.04659e-06
3.15708e-06
3.21125e-06
3.35004e-06
3.42198e-06
3.60284e-06
3.69446e-06
3.91989e-06
4.03166e-06
4.31505e-06
4.49174e-06
4.93021e-06
5.24922e-06
6.03636e-06
6.53084e-06
7.51563e-06
1.49346e-06
1.50648e-06
1.56115e-06
1.61389e-06
1.75951e-06
1.85279e-06
2.09256e-06
2.26852e-06
2.6681e-06
2.86724e-06
3.33542e-06
3.55209e-06
3.99923e-06
4.23685e-06
4.73593e-06
4.95873e-06
5.48893e-06
5.73084e-06
6.24357e-06
6.50132e-06
7.06612e-06
7.30707e-06
7.87697e-06
8.13708e-06
8.69435e-06
8.97176e-06
9.60622e-06
9.90546e-06
1.06039e-05
1.10027e-05
1.17097e-05
1.21906e-05
1.29935e-05
1.37914e-05
1.44411e-05
1.56489e-05
1.65686e-05
1.83973e-05
1.9553e-05
2.18111e-05
1.51021e-06
1.53391e-06
1.60535e-06
1.80267e-06
2.31347e-06
3.24426e-06
5.10485e-06
6.47354e-06
8.95673e-06
1.01513e-05
1.25284e-05
1.35799e-05
1.56695e-05
1.66997e-05
1.86921e-05
1.9597e-05
2.15788e-05
2.24335e-05
2.41831e-05
2.50591e-05
2.68142e-05
2.75638e-05
2.92753e-05
3.0034e-05
3.15712e-05
3.23728e-05
3.40872e-05
3.48633e-05
3.66536e-05
3.75523e-05
3.93771e-05
4.03371e-05
4.24115e-05
4.36128e-05
4.538e-05
4.76091e-05
4.94992e-05
5.23511e-05
5.41999e-05
5.7808e-05
1.50215e-06
1.59454e-06
2.3994e-06
4.77894e-06
9.20933e-06
1.47884e-05
2.34756e-05
2.87685e-05
3.77636e-05
4.15104e-05
4.88123e-05
5.17202e-05
5.74634e-05
5.99443e-05
6.48041e-05
6.67625e-05
7.11505e-05
7.28089e-05
7.64357e-05
7.80152e-05
8.14098e-05
8.26715e-05
8.59149e-05
8.71375e-05
9.00075e-05
9.13014e-05
9.44637e-05
9.56582e-05
9.89305e-05
0.000100291
0.000103628
0.000105129
0.000108951
0.000110594
0.000114837
0.000116678
0.000120676
0.000123653
0.000126245
0.000132185
1.5083e-06
3.97901e-06
1.22677e-05
2.61838e-05
4.72197e-05
6.85263e-05
9.15502e-05
0.000109463
0.000125873
0.000134282
0.000146739
0.000151377
0.000159335
0.000163105
0.000169098
0.000171597
0.000177075
0.000179125
0.000183597
0.000185642
0.000189977
0.000191676
0.000196107
0.000197825
0.000201948
0.000203866
0.000208472
0.000210213
0.000214965
0.000216873
0.000221658
0.000223739
0.000229081
0.000231179
0.000236775
0.000238801
0.000243896
0.000245593
0.000247813
0.000254111
3.25562e-06
2.82629e-05
7.18289e-05
0.000128115
0.000190894
0.000241621
0.000273863
0.00029921
0.000311507
0.000322986
0.000328483
0.000334298
0.000336845
0.000342342
0.000344328
0.000348407
0.000350597
0.000353931
0.000355515
0.00035912
0.000360375
0.000362813
0.000364551
0.000366652
0.000367713
0.000370221
0.000371187
0.000372806
0.000374013
0.000375599
0.00037641
0.000378226
0.000379019
0.000380591
0.000381136
0.000382253
0.000382194
0.000382296
0.000382382
0.000386139
3.82111e-05
0.000179104
0.000338411
0.000472464
0.000544178
0.000581539
0.00059422
0.00059425
0.000590713
0.000586822
0.000578144
0.000574184
0.000565232
0.000561494
0.000552714
0.000549413
0.000541343
0.000538375
0.000531002
0.000528452
0.000521596
0.000519446
0.000513249
0.000511276
0.000505575
0.000503836
0.000498391
0.000496842
0.000491761
0.000490229
0.000485368
0.000483824
0.000478953
0.000477261
0.000472224
0.000470305
0.000465198
0.000463852
0.000460773
0.000459774
0.000292813
0.000699679
0.00090682
0.000960579
0.000947252
0.00090726
0.000848245
0.000796915
0.000749946
0.000716096
0.000683714
0.00066364
0.000640526
0.000628165
0.000610158
0.000602266
0.000586866
0.000581475
0.00056869
0.00056445
0.000553412
0.000550193
0.000540143
0.000537556
0.00052846
0.000526059
0.000517493
0.000515214
0.000506956
0.000504415
0.000496426
0.000493233
0.000485411
0.000481028
0.000474116
0.000467717
0.00046357
0.000454994
0.000451558
0.000436972
0.000225873
0.000199846
0.000184192
0.000172122
0.000159575
0.000147356
0.000135393
0.000125652
0.000117823
0.000110925
0.000104975
0.000100001
9.5503e-05
9.18686e-05
8.84126e-05
8.57978e-05
8.33707e-05
8.16093e-05
8.02406e-05
8.02298e-05
8.05437e-05
8.14407e-05
8.27752e-05
8.47359e-05
8.63764e-05
8.84672e-05
9.03613e-05
9.23061e-05
9.43449e-05
9.6435e-05
9.81743e-05
0.000100452
0.000101878
0.000103088
0.000103776
0.000104238
0.00010429
0.000104431
0.000104637
0.000104635
0.000104598
0.000104434
0.000104311
0.00010405
0.000103826
0.000103358
0.000102883
0.00010223
0.000101805
0.000101173
0.000100803
0.000100248
0.000100016
9.95247e-05
9.9261e-05
9.86401e-05
9.82513e-05
9.76014e-05
9.70671e-05
9.64305e-05
9.60952e-05
9.54408e-05
9.50617e-05
9.458e-05
9.4257e-05
9.36897e-05
9.33814e-05
9.27876e-05
9.23489e-05
9.17542e-05
9.11641e-05
9.05928e-05
9.00467e-05
8.93719e-05
8.90085e-05
8.83428e-05
8.79057e-05
8.74066e-05
8.69112e-05
8.66129e-05
8.59857e-05
8.56424e-05
8.5057e-05
8.44588e-05
8.39141e-05
8.29197e-05
8.24027e-05
8.13291e-05
8.06485e-05
7.98073e-05
7.89215e-05
7.8244e-05
7.7258e-05
7.65e-05
7.56242e-05
7.46136e-05
7.36197e-05
7.24113e-05
7.09554e-05
6.95108e-05
6.75836e-05
6.55767e-05
6.32886e-05
6.04993e-05
5.77101e-05
5.42493e-05
5.06845e-05
4.67296e-05
4.21361e-05
3.7854e-05
3.37566e-05
3.00695e-05
2.68803e-05
2.41239e-05
2.19303e-05
1.99888e-05
1.84949e-05
1.75391e-05
1.63057e-05
1.56251e-05
1.48885e-05
1.37375e-05
1.25558e-05
1.14001e-05
1.06031e-05
1.01717e-05
9.88816e-06
9.71896e-06
9.55139e-06
9.51905e-06
9.73277e-06
1.09036e-05
1.16841e-05
1.24194e-05
1.36078e-05
1.45908e-05
1.5523e-05
1.60072e-05
1.61602e-05
1.62945e-05
1.66884e-05
1.69428e-05
1.71433e-05
1.75496e-05
1.82264e-05
1.87672e-05
1.97302e-05
2.14502e-05
2.26698e-05
2.38509e-05
2.60313e-05
3.0742e-05
4.22522e-05
5.26841e-05
6.17448e-05
6.83371e-05
7.25107e-05
7.33917e-05
7.28595e-05
7.11239e-05
6.633e-05
6.06477e-05
5.66387e-05
5.35229e-05
5.13831e-05
5.03301e-05
4.94919e-05
4.89373e-05
4.81469e-05
4.7586e-05
4.66054e-05
4.56186e-05
4.47451e-05
4.36931e-05
4.29306e-05
4.19917e-05
4.12381e-05
4.0452e-05
3.97924e-05
3.90706e-05
3.85586e-05
3.80611e-05
3.77911e-05
3.75332e-05
3.74976e-05
3.75241e-05
3.76325e-05
3.78504e-05
3.82487e-05
3.85886e-05
3.92136e-05
3.98266e-05
4.03915e-05
4.14068e-05
4.21787e-05
4.29255e-05
4.44259e-05
4.59719e-05
4.69048e-05
4.68753e-05
4.65273e-05
4.57319e-05
4.51513e-05
4.40731e-05
4.2546e-05
4.04914e-05
3.84567e-05
3.58738e-05
3.19992e-05
2.82085e-05
2.56595e-05
2.44102e-05
2.37896e-05
2.37756e-05
2.39146e-05
2.44482e-05
2.5727e-05
2.84578e-05
3.15714e-05
3.40323e-05
3.6211e-05
3.74486e-05
3.81532e-05
3.81762e-05
3.80159e-05
3.75169e-05
3.72113e-05
3.68936e-05
3.67182e-05
3.66169e-05
3.65211e-05
3.6365e-05
3.60613e-05
3.58263e-05
3.54005e-05
3.51752e-05
3.47625e-05
3.44391e-05
3.39558e-05
3.36088e-05
3.32654e-05
3.31271e-05
3.27966e-05
3.25546e-05
3.25441e-05
3.32651e-05
3.61242e-05
3.88068e-05
4.02465e-05
4.06017e-05
4.00629e-05
3.91554e-05
3.8396e-05
3.70049e-05
3.26601e-05
2.77299e-05
2.38122e-05
2.10087e-05
1.9505e-05
1.83215e-05
1.77785e-05
1.74407e-05
1.77605e-05
1.86298e-05
2.02975e-05
2.12522e-05
2.2168e-05
2.23727e-05
2.23912e-05
2.23271e-05
2.21731e-05
2.21208e-05
2.1691e-05
2.14881e-05
2.08984e-05
2.08436e-05
2.05653e-05
2.06174e-05
2.03893e-05
2.04128e-05
2.01895e-05
2.01722e-05
2.00109e-05
1.99568e-05
1.96066e-05
1.91443e-05
1.85844e-05
1.77663e-05
1.69663e-05
1.58326e-05
1.49323e-05
1.39983e-05
1.34442e-05
1.30942e-05
1.29987e-05
1.30257e-05
1.30418e-05
1.3148e-05
1.3134e-05
1.30786e-05
1.25634e-05
1.20207e-05
1.16133e-05
1.14705e-05
1.15296e-05
1.17105e-05
1.18597e-05
1.18752e-05
1.18616e-05
1.17545e-05
1.16029e-05
1.14649e-05
1.14267e-05
1.14123e-05
1.14478e-05
1.14543e-05
1.15143e-05
1.15178e-05
1.16088e-05
1.15945e-05
1.16362e-05
1.15519e-05
1.1517e-05
1.12921e-05
1.12195e-05
1.09947e-05
1.0953e-05
1.08082e-05
1.07834e-05
1.06359e-05
1.05285e-05
1.01958e-05
9.99021e-06
9.54033e-06
9.30702e-06
8.88334e-06
8.66672e-06
8.27213e-06
8.07752e-06
7.70814e-06
7.52021e-06
7.12743e-06
6.93962e-06
6.52858e-06
6.33978e-06
5.91501e-06
5.72554e-06
5.31452e-06
5.10282e-06
4.79423e-06
4.56783e-06
4.43458e-06
4.26454e-06
4.2415e-06
4.17051e-06
4.23277e-06
4.22865e-06
4.36975e-06
4.39652e-06
4.62937e-06
4.67311e-06
4.96395e-06
5.02622e-06
5.3251e-06
5.37643e-06
5.59207e-06
5.56501e-06
5.61623e-06
5.50072e-06
5.45275e-06
5.20777e-06
5.14211e-06
4.9865e-06
4.99376e-06
5.06904e-06
5.1167e-06
5.38768e-06
5.46685e-06
5.87864e-06
5.95352e-06
6.46261e-06
6.53079e-06
6.8694e-06
6.79316e-06
6.82251e-06
6.63013e-06
6.63703e-06
6.82728e-06
6.93246e-06
7.91646e-06
8.22545e-06
1.056e-05
1.12005e-05
1.43591e-05
1.56754e-05
1.85724e-05
2.53877e-05
3.59109e-05
8.09778e-05
0.000183832
0.000244843
0.000230991
0.000218544
0.000208901
0.00020171
0.000195062
0.000188966
0.000182256
0.000175677
0.000169035
0.000162578
0.000156539
0.000151189
0.000146183
0.000141968
0.000137906
0.000134608
0.000131679
0.000129174
0.000126822
0.000124487
0.000122688
0.000120631
0.000118938
0.000117645
0.000116294
0.000115129
0.000114474
0.000113188
0.000112508
0.000111612
0.00011049
0.000109705
0.000108482
0.000107054
0.000106078
0.000104115
0.000102851
0.000101221
9.90017e-05
9.78778e-05
9.55139e-05
9.3921e-05
9.22898e-05
8.98401e-05
8.86205e-05
8.57169e-05
8.38549e-05
8.1528e-05
7.91729e-05
7.77749e-05
7.59839e-05
7.51792e-05
7.44514e-05
7.39664e-05
7.36721e-05
7.31992e-05
7.27948e-05
7.20984e-05
7.12992e-05
7.01626e-05
6.9243e-05
6.80898e-05
6.71479e-05
6.64274e-05
6.55679e-05
6.51832e-05
6.44281e-05
6.39552e-05
6.3017e-05
6.2161e-05
6.07665e-05
5.94966e-05
5.77084e-05
5.61907e-05
5.44211e-05
5.29961e-05
5.16353e-05
5.05096e-05
4.9562e-05
4.88085e-05
4.80522e-05
4.75584e-05
4.67986e-05
4.63236e-05
4.54349e-05
4.47492e-05
4.36955e-05
4.27511e-05
4.16058e-05
4.05e-05
3.93516e-05
3.82742e-05
3.71919e-05
3.62651e-05
3.52545e-05
3.44523e-05
3.35165e-05
3.26828e-05
3.17884e-05
3.07954e-05
2.97921e-05
2.86158e-05
2.73579e-05
2.59872e-05
2.44489e-05
2.2885e-05
2.1203e-05
1.95668e-05
1.80408e-05
1.66747e-05
1.55659e-05
1.47201e-05
1.40813e-05
1.3621e-05
1.30165e-05
1.27297e-05
1.23252e-05
1.19537e-05
1.1402e-05
1.05839e-05
9.80184e-06
9.07233e-06
8.76407e-06
8.90246e-06
9.30326e-06
9.54527e-06
9.76922e-06
9.87408e-06
9.98645e-06
1.14716e-05
1.29313e-05
1.36002e-05
1.49502e-05
1.55993e-05
1.5939e-05
1.64067e-05
1.66376e-05
1.68135e-05
1.72957e-05
1.81374e-05
1.85195e-05
1.90031e-05
2.00759e-05
2.06474e-05
2.15532e-05
2.34101e-05
2.45272e-05
2.53906e-05
2.68667e-05
2.93001e-05
3.98986e-05
5.04169e-05
5.90914e-05
6.80452e-05
7.34421e-05
7.5253e-05
7.48819e-05
7.28143e-05
6.72137e-05
6.16931e-05
5.71772e-05
5.41341e-05
5.13801e-05
5.00808e-05
4.90172e-05
4.85454e-05
4.77771e-05
4.70439e-05
4.59846e-05
4.47945e-05
4.38358e-05
4.26835e-05
4.17916e-05
4.07344e-05
3.98503e-05
3.88521e-05
3.80585e-05
3.73374e-05
3.66766e-05
3.62044e-05
3.58356e-05
3.54687e-05
3.52799e-05
3.50827e-05
3.49313e-05
3.49306e-05
3.49869e-05
3.51584e-05
3.541e-05
3.59066e-05
3.6545e-05
3.71636e-05
3.81195e-05
3.92606e-05
4.00791e-05
4.08443e-05
4.22714e-05
4.42188e-05
4.55828e-05
4.58415e-05
4.56302e-05
4.50533e-05
4.45472e-05
4.35232e-05
4.22685e-05
4.04477e-05
3.89869e-05
3.65796e-05
3.3446e-05
2.96825e-05
2.67316e-05
2.51045e-05
2.42891e-05
2.42106e-05
2.43605e-05
2.47877e-05
2.55666e-05
2.7889e-05
3.02097e-05
3.21357e-05
3.36646e-05
3.45485e-05
3.52932e-05
3.55875e-05
3.57253e-05
3.56637e-05
3.55775e-05
3.53489e-05
3.51892e-05
3.48525e-05
3.46447e-05
3.40618e-05
3.34364e-05
3.26898e-05
3.21957e-05
3.1496e-05
3.08147e-05
3.01597e-05
2.98311e-05
2.97469e-05
2.97784e-05
2.99853e-05
3.03636e-05
3.08494e-05
3.42474e-05
3.78506e-05
3.96179e-05
3.98214e-05
3.93882e-05
3.81283e-05
3.75128e-05
3.6596e-05
3.37092e-05
2.90572e-05
2.51622e-05
2.17693e-05
2.00612e-05
1.83783e-05
1.7124e-05
1.57418e-05
1.52679e-05
1.52995e-05
1.64212e-05
1.77059e-05
1.82616e-05
1.87937e-05
1.92563e-05
2.03426e-05
2.1025e-05
2.18312e-05
2.20595e-05
2.23593e-05
2.23365e-05
2.23832e-05
2.21605e-05
2.20256e-05
2.15492e-05
2.14218e-05
2.10718e-05
2.09699e-05
2.0589e-05
2.03914e-05
1.98378e-05
1.93669e-05
1.85765e-05
1.76403e-05
1.64525e-05
1.52076e-05
1.40207e-05
1.30803e-05
1.24008e-05
1.20956e-05
1.19664e-05
1.20301e-05
1.2121e-05
1.25546e-05
1.27043e-05
1.2923e-05
1.28423e-05
1.25328e-05
1.21826e-05
1.19676e-05
1.19253e-05
1.19047e-05
1.20723e-05
1.21745e-05
1.24898e-05
1.25481e-05
1.26964e-05
1.2662e-05
1.274e-05
1.26756e-05
1.27081e-05
1.26453e-05
1.26435e-05
1.25175e-05
1.23385e-05
1.21812e-05
1.20252e-05
1.19472e-05
1.17952e-05
1.17258e-05
1.15598e-05
1.14672e-05
1.1267e-05
1.10885e-05
1.09083e-05
1.06581e-05
1.04624e-05
1.01154e-05
9.88449e-06
9.46784e-06
9.25581e-06
8.81732e-06
8.63251e-06
8.23531e-06
8.0857e-06
7.74552e-06
7.63215e-06
7.34631e-06
7.25582e-06
7.00551e-06
6.93546e-06
6.70343e-06
6.6593e-06
6.49269e-06
6.4698e-06
6.37792e-06
6.35898e-06
6.26289e-06
6.22077e-06
6.07177e-06
6.01274e-06
5.82452e-06
5.74428e-06
5.49969e-06
5.40465e-06
5.15262e-06
5.08335e-06
4.96105e-06
4.92434e-06
4.98694e-06
5.00423e-06
5.21259e-06
5.25963e-06
5.61867e-06
5.67772e-06
6.13388e-06
6.2043e-06
6.71398e-06
6.75752e-06
7.0837e-06
7.01402e-06
7.12314e-06
6.92616e-06
6.86814e-06
6.5175e-06
6.44223e-06
6.3448e-06
6.35284e-06
6.61634e-06
6.69189e-06
7.3467e-06
7.40733e-06
8.41125e-06
8.45684e-06
9.22558e-06
8.94741e-06
9.25785e-06
9.06604e-06
9.37375e-06
1.09497e-05
1.18828e-05
1.74055e-05
1.8634e-05
2.84527e-05
3.15574e-05
4.64006e-05
9.24533e-05
0.000200615
0.00019392
0.000187211
0.000181091
0.000175934
0.00017165
0.000167869
0.000164683
0.000162121
0.00015876
0.000156232
0.000152468
0.00014937
0.000146288
0.000142962
0.000140252
0.000137504
0.000134497
0.000132208
0.000129088
0.00012654
0.000123885
0.000120938
0.00011852
0.00011577
0.000113077
0.000110641
0.000107231
0.000104588
0.000101211
9.81208e-05
9.55514e-05
9.19092e-05
8.98488e-05
8.61128e-05
8.31732e-05
7.96749e-05
7.53205e-05
7.19225e-05
6.69932e-05
6.36207e-05
5.9665e-05
5.65962e-05
5.4556e-05
5.18663e-05
5.07169e-05
4.8515e-05
4.70571e-05
4.53527e-05
4.31989e-05
4.16555e-05
3.94469e-05
3.79856e-05
3.66311e-05
3.55889e-05
3.51492e-05
3.48045e-05
3.48168e-05
3.47955e-05
3.47137e-05
3.42785e-05
3.35877e-05
3.26988e-05
3.16263e-05
3.0628e-05
2.95691e-05
2.87695e-05
2.8167e-05
2.77984e-05
2.76746e-05
2.75289e-05
2.746e-05
2.72029e-05
2.68863e-05
2.62939e-05
2.55928e-05
2.47199e-05
2.37485e-05
2.27719e-05
2.18121e-05
2.09812e-05
2.03209e-05
1.98297e-05
1.95791e-05
1.94373e-05
1.93956e-05
1.93413e-05
1.92645e-05
1.90477e-05
1.87479e-05
1.82811e-05
1.77389e-05
1.7098e-05
1.64354e-05
1.57651e-05
1.5117e-05
1.45919e-05
1.41071e-05
1.37737e-05
1.35413e-05
1.33608e-05
1.32732e-05
1.3079e-05
1.29192e-05
1.25749e-05
1.22055e-05
1.16673e-05
1.11151e-05
1.05801e-05
1.01029e-05
9.75048e-06
9.49635e-06
9.34634e-06
9.26091e-06
9.01006e-06
8.9229e-06
8.95624e-06
9.00424e-06
9.03633e-06
8.9778e-06
8.77034e-06
8.51542e-06
8.23404e-06
8.17558e-06
8.5763e-06
9.5208e-06
1.05096e-05
1.11018e-05
1.12703e-05
1.20873e-05
1.39154e-05
1.47686e-05
1.58737e-05
1.6652e-05
1.68841e-05
1.71038e-05
1.75992e-05
1.78624e-05
1.83052e-05
1.94364e-05
1.9999e-05
2.04024e-05
2.14433e-05
2.24453e-05
2.30207e-05
2.48033e-05
2.66647e-05
2.79296e-05
2.94274e-05
3.10283e-05
3.59431e-05
4.53952e-05
5.72499e-05
6.88763e-05
7.61422e-05
7.95363e-05
7.90748e-05
7.64749e-05
7.07112e-05
6.45892e-05
5.89108e-05
5.43198e-05
5.12611e-05
4.95332e-05
4.88008e-05
4.8351e-05
4.80741e-05
4.73485e-05
4.65549e-05
4.51764e-05
4.40414e-05
4.27629e-05
4.17394e-05
4.04526e-05
3.93723e-05
3.82943e-05
3.7371e-05
3.66483e-05
3.59947e-05
3.54948e-05
3.50967e-05
3.47719e-05
3.44908e-05
3.43109e-05
3.41886e-05
3.40784e-05
3.38517e-05
3.37395e-05
3.37539e-05
3.38222e-05
3.40378e-05
3.43163e-05
3.49425e-05
3.54695e-05
3.66508e-05
3.77116e-05
3.84709e-05
3.91569e-05
4.07154e-05
4.27562e-05
4.41913e-05
4.48806e-05
4.47532e-05
4.44273e-05
4.39331e-05
4.29207e-05
4.16444e-05
4.01762e-05
3.90383e-05
3.69823e-05
3.44613e-05
3.0912e-05
2.80028e-05
2.59999e-05
2.50379e-05
2.47977e-05
2.48901e-05
2.52006e-05
2.60517e-05
2.79695e-05
2.89836e-05
3.04189e-05
3.10852e-05
3.19387e-05
3.25194e-05
3.31499e-05
3.34155e-05
3.34202e-05
3.33597e-05
3.32396e-05
3.30771e-05
3.23996e-05
3.17452e-05
3.08183e-05
3.01498e-05
2.94591e-05
2.89402e-05
2.83251e-05
2.80059e-05
2.79159e-05
2.83732e-05
2.88823e-05
2.91893e-05
2.96777e-05
3.32841e-05
3.67543e-05
3.9236e-05
3.98029e-05
3.92304e-05
3.70842e-05
3.61447e-05
3.55426e-05
3.47947e-05
3.14723e-05
2.72946e-05
2.32164e-05
2.01193e-05
1.77655e-05
1.61819e-05
1.503e-05
1.43201e-05
1.40041e-05
1.40637e-05
1.54797e-05
1.70847e-05
1.78128e-05
1.78718e-05
1.73048e-05
1.65408e-05
1.63919e-05
1.7221e-05
1.85884e-05
2.02845e-05
2.11754e-05
2.20768e-05
2.22125e-05
2.24153e-05
2.22597e-05
2.21542e-05
2.15228e-05
2.10863e-05
2.02681e-05
1.9533e-05
1.85167e-05
1.74021e-05
1.62608e-05
1.51181e-05
1.41246e-05
1.32191e-05
1.24776e-05
1.18645e-05
1.1423e-05
1.11307e-05
1.10079e-05
1.09714e-05
1.10725e-05
1.13733e-05
1.17842e-05
1.19106e-05
1.20204e-05
1.19614e-05
1.19017e-05
1.16536e-05
1.16181e-05
1.15634e-05
1.15933e-05
1.16975e-05
1.18114e-05
1.19273e-05
1.19331e-05
1.19503e-05
1.18655e-05
1.18358e-05
1.17904e-05
1.18019e-05
1.18356e-05
1.18931e-05
1.19978e-05
1.20493e-05
1.21217e-05
1.21197e-05
1.21635e-05
1.2138e-05
1.21833e-05
1.21368e-05
1.2155e-05
1.21071e-05
1.20563e-05
1.18904e-05
1.16486e-05
1.14443e-05
1.11856e-05
1.09276e-05
1.07002e-05
1.03891e-05
1.02025e-05
9.82042e-06
9.62143e-06
9.1789e-06
8.95663e-06
8.47815e-06
8.17667e-06
7.76545e-06
7.38243e-06
7.13772e-06
6.73606e-06
6.58966e-06
6.26184e-06
6.19616e-06
6.0046e-06
6.03552e-06
5.97994e-06
6.10332e-06
6.09854e-06
6.27131e-06
6.29489e-06
6.54859e-06
6.61471e-06
6.90023e-06
6.94013e-06
7.13302e-06
7.11791e-06
7.17659e-06
7.07541e-06
7.04952e-06
6.83723e-06
6.75407e-06
6.47582e-06
6.45017e-06
6.39952e-06
6.4165e-06
6.58497e-06
6.65474e-06
7.07324e-06
7.18149e-06
7.77682e-06
7.871e-06
8.6329e-06
8.72982e-06
9.33306e-06
9.25065e-06
9.4734e-06
9.06701e-06
9.02551e-06
8.61736e-06
8.60827e-06
8.8e-06
8.93773e-06
1.02282e-05
1.03716e-05
1.28406e-05
1.23467e-05
1.62305e-05
1.55566e-05
2.0062e-05
1.99952e-05
2.25021e-05
2.76195e-05
3.11091e-05
4.81289e-05
0.000126613
0.000125327
0.000122555
0.000120905
0.000117762
0.000115295
0.000113158
0.00011072
0.000109832
0.000108461
0.000107557
0.000106914
0.000105251
0.000104157
0.000101476
9.93947e-05
9.65824e-05
9.37391e-05
9.11847e-05
8.83531e-05
8.6147e-05
8.35229e-05
8.13354e-05
7.85625e-05
7.58462e-05
7.23946e-05
6.87961e-05
6.51143e-05
6.12193e-05
5.78668e-05
5.43716e-05
5.17445e-05
4.91485e-05
4.7135e-05
4.5337e-05
4.3405e-05
4.17603e-05
3.95671e-05
3.75658e-05
3.51677e-05
3.28241e-05
3.06459e-05
2.84923e-05
2.70144e-05
2.55477e-05
2.48122e-05
2.40753e-05
2.35468e-05
2.30339e-05
2.21948e-05
2.14409e-05
2.02715e-05
1.92303e-05
1.814e-05
1.72755e-05
1.66854e-05
1.63274e-05
1.62744e-05
1.62829e-05
1.63511e-05
1.63608e-05
1.61533e-05
1.57545e-05
1.51223e-05
1.44596e-05
1.37297e-05
1.31333e-05
1.26555e-05
1.23894e-05
1.22617e-05
1.22167e-05
1.22437e-05
1.22551e-05
1.22454e-05
1.20887e-05
1.17676e-05
1.13454e-05
1.0786e-05
1.02551e-05
9.71278e-06
9.29108e-06
8.99743e-06
8.78458e-06
8.70807e-06
8.66004e-06
8.66651e-06
8.67208e-06
8.66761e-06
8.61649e-06
8.45657e-06
8.253e-06
7.97871e-06
7.68514e-06
7.38279e-06
7.09995e-06
6.88363e-06
6.7263e-06
6.64064e-06
6.60461e-06
6.5977e-06
6.6165e-06
6.61993e-06
6.64035e-06
6.63161e-06
6.57233e-06
6.54219e-06
6.40372e-06
6.39436e-06
6.40227e-06
6.42707e-06
6.53791e-06
6.57928e-06
6.67544e-06
6.72465e-06
6.72474e-06
6.90418e-06
7.20093e-06
7.70075e-06
8.08991e-06
8.40766e-06
8.58991e-06
8.61725e-06
8.52714e-06
8.64311e-06
9.95093e-06
1.16589e-05
1.29447e-05
1.34667e-05
1.36427e-05
1.46982e-05
1.55985e-05
1.65981e-05
1.77031e-05
1.81604e-05
1.84139e-05
1.90169e-05
1.95097e-05
1.99122e-05
2.12817e-05
2.21399e-05
2.25385e-05
2.35611e-05
2.49827e-05
2.56354e-05
2.64445e-05
2.83383e-05
3.1137e-05
3.36054e-05
3.58758e-05
3.86616e-05
4.31283e-05
5.58533e-05
7.10226e-05
8.03516e-05
8.34833e-05
8.32388e-05
8.06794e-05
7.4139e-05
6.71798e-05
6.06254e-05
5.55419e-05
5.19924e-05
4.99243e-05
4.8819e-05
4.83755e-05
4.81137e-05
4.76507e-05
4.66045e-05
4.52704e-05
4.39146e-05
4.2544e-05
4.12997e-05
4.00124e-05
3.86102e-05
3.7655e-05
3.66948e-05
3.59932e-05
3.54584e-05
3.50939e-05
3.4762e-05
3.45398e-05
3.42479e-05
3.40053e-05
3.36987e-05
3.35336e-05
3.33573e-05
3.32313e-05
3.29585e-05
3.28387e-05
3.28247e-05
3.28742e-05
3.29977e-05
3.32739e-05
3.38353e-05
3.45279e-05
3.58586e-05
3.65348e-05
3.74614e-05
3.82917e-05
4.04008e-05
4.2164e-05
4.33514e-05
4.39249e-05
4.39298e-05
4.37929e-05
4.30648e-05
4.23313e-05
4.09037e-05
4.01751e-05
3.91206e-05
3.7584e-05
3.53105e-05
3.19084e-05
2.91014e-05
2.68166e-05
2.5788e-05
2.53206e-05
2.5411e-05
2.59239e-05
2.68939e-05
2.7725e-05
2.82155e-05
2.88119e-05
2.91909e-05
3.03525e-05
3.08024e-05
3.14659e-05
3.16421e-05
3.17355e-05
3.16677e-05
3.15696e-05
3.14038e-05
3.10725e-05
3.03518e-05
2.98351e-05
2.93051e-05
2.88413e-05
2.85219e-05
2.84366e-05
2.84309e-05
2.84568e-05
2.88745e-05
3.04009e-05
3.31452e-05
3.63944e-05
3.85785e-05
3.92409e-05
3.85763e-05
3.59182e-05
3.36028e-05
3.23128e-05
3.17558e-05
3.13061e-05
2.90811e-05
2.57638e-05
2.22323e-05
1.93961e-05
1.70607e-05
1.55828e-05
1.45976e-05
1.40784e-05
1.3742e-05
1.36857e-05
1.45456e-05
1.64203e-05
1.73832e-05
1.76119e-05
1.72092e-05
1.59729e-05
1.50312e-05
1.4231e-05
1.40311e-05
1.3974e-05
1.47391e-05
1.54348e-05
1.74026e-05
1.81047e-05
1.92994e-05
1.94054e-05
1.94695e-05
1.87648e-05
1.7829e-05
1.69991e-05
1.60701e-05
1.55833e-05
1.47343e-05
1.43185e-05
1.35247e-05
1.3212e-05
1.2748e-05
1.26786e-05
1.25685e-05
1.26088e-05
1.25511e-05
1.25825e-05
1.25553e-05
1.25055e-05
1.24819e-05
1.24136e-05
1.24218e-05
1.23173e-05
1.23041e-05
1.21071e-05
1.20546e-05
1.18455e-05
1.18069e-05
1.17132e-05
1.17138e-05
1.16863e-05
1.17234e-05
1.18485e-05
1.20202e-05
1.21004e-05
1.21454e-05
1.21377e-05
1.20125e-05
1.18618e-05
1.17587e-05
1.1743e-05
1.17433e-05
1.18065e-05
1.18318e-05
1.1895e-05
1.18612e-05
1.18774e-05
1.17515e-05
1.17233e-05
1.15354e-05
1.15096e-05
1.13053e-05
1.12908e-05
1.11232e-05
1.11424e-05
1.10035e-05
1.10676e-05
1.09566e-05
1.10258e-05
1.09252e-05
1.09659e-05
1.08613e-05
1.08391e-05
1.06354e-05
1.05102e-05
1.01476e-05
9.96999e-06
9.52774e-06
9.32648e-06
8.85253e-06
8.65441e-06
8.18159e-06
8.0002e-06
7.55569e-06
7.38776e-06
7.00324e-06
6.84617e-06
6.70533e-06
6.53449e-06
6.53525e-06
6.50891e-06
6.65716e-06
6.68358e-06
7.00783e-06
7.07995e-06
7.5626e-06
7.63985e-06
8.23206e-06
8.36933e-06
9.03843e-06
9.13216e-06
9.6467e-06
9.65341e-06
9.90796e-06
9.75521e-06
9.80463e-06
9.43368e-06
9.37156e-06
9.05893e-06
8.94115e-06
8.95946e-06
9.01189e-06
9.47484e-06
9.64053e-06
1.07197e-05
1.08364e-05
1.23892e-05
1.21596e-05
1.41896e-05
1.37792e-05
1.61275e-05
1.54986e-05
1.74715e-05
1.68759e-05
1.78366e-05
1.77686e-05
1.82423e-05
2.04058e-05
2.08858e-05
2.47951e-05
2.59437e-05
3.07061e-05
5.97321e-05
5.92802e-05
5.82457e-05
5.76086e-05
5.66914e-05
5.56809e-05
5.50247e-05
5.40717e-05
5.36099e-05
5.31596e-05
5.28448e-05
5.2683e-05
5.23458e-05
5.20339e-05
5.12582e-05
5.03832e-05
4.88857e-05
4.72396e-05
4.57323e-05
4.37863e-05
4.25222e-05
4.08723e-05
3.98416e-05
3.85819e-05
3.73362e-05
3.6085e-05
3.43525e-05
3.28e-05
3.06868e-05
2.8899e-05
2.69274e-05
2.52475e-05
2.38964e-05
2.26297e-05
2.18989e-05
2.09818e-05
2.03332e-05
1.94514e-05
1.8471e-05
1.7416e-05
1.61175e-05
1.49944e-05
1.37773e-05
1.28948e-05
1.21468e-05
1.17207e-05
1.1458e-05
1.12596e-05
1.10905e-05