/*--------------------------------*- C++ -*----------------------------------*\
| =========                 |                                                 |
| \\      /  F ield         | OpenFOAM: The Open Source CFD Toolbox           |
|  \\    /   O peration     | Version:  2.4.0                                 |
|   \\  /    A nd           | Web:      www.OpenFOAM.org                      |
|    \\/     M anipulation  |                                                 |
\*---------------------------------------------------------------------------*/
FoamFile
{
    version     2.0;
    format      ascii;
    class       surfaceScalarField;
    location    "0.09";
    object      phi;
}
// * * * * * * * * * * * * * * * * * * * * * * * * * * * * * * * * * * * * * //

dimensions      [0 3 -1 0 0 0 0];

internalField   nonuniform List<scalar> 
34880
(
5.48642e-06
7.01358e-06
3.12525e-06
2.36117e-06
2.47306e-06
6.5219e-07
2.21978e-06
2.53273e-07
2.07166e-06
1.48121e-07
1.96999e-06
1.0167e-07
1.8869e-06
8.30902e-08
1.81505e-06
7.18581e-08
1.77613e-06
3.89117e-08
1.73267e-06
4.34612e-08
1.7023e-06
3.03782e-08
1.66952e-06
3.27727e-08
1.65438e-06
1.51412e-08
1.61993e-06
3.44527e-08
1.59572e-06
2.42026e-08
1.5851e-06
1.06278e-08
1.57416e-06
1.09405e-08
1.54099e-06
3.3169e-08
1.52645e-06
1.4541e-08
-4.99681e-08
1.57641e-06
1.01082e-05
9.40538e-06
7.82939e-06
4.63998e-06
6.71249e-06
1.76909e-06
6.06194e-06
9.03825e-07
5.64404e-06
5.66018e-07
5.35072e-06
3.94986e-07
5.12152e-06
3.12289e-07
4.93799e-06
2.55389e-07
4.80984e-06
1.67063e-07
4.69424e-06
1.59058e-07
4.60058e-06
1.24043e-07
4.52559e-06
1.07765e-07
4.45804e-06
8.26876e-08
4.38274e-06
1.09756e-07
4.32732e-06
7.96215e-08
4.28009e-06
5.78585e-08
4.23918e-06
5.18428e-08
4.1741e-06
9.82485e-08
4.1706e-06
1.80466e-08
9.25278e-08
4.0281e-06
1.24227e-05
9.48273e-06
1.1001e-05
6.0616e-06
9.98554e-06
2.78458e-06
9.19825e-06
1.69111e-06
8.6191e-06
1.14516e-06
8.19049e-06
8.23598e-07
7.8548e-06
6.4798e-07
7.58866e-06
5.21532e-07
7.38565e-06
3.7007e-07
7.21544e-06
3.29267e-07
7.06508e-06
2.74409e-07
6.95947e-06
2.13372e-07
6.84305e-06
1.99111e-07
6.74082e-06
2.1198e-07
6.65952e-06
1.60927e-07
6.57969e-06
1.37687e-07
6.50992e-06
1.21615e-07
6.43478e-06
1.73381e-07
6.4103e-06
4.25348e-08
9.13214e-08
6.4115e-06
1.34105e-05
8.57225e-06
1.28826e-05
6.58946e-06
1.23348e-05
3.33243e-06
1.17093e-05
2.31657e-06
1.11348e-05
1.71965e-06
1.06612e-05
1.29718e-06
1.02671e-05
1.04211e-06
9.95626e-06
8.3238e-07
9.69991e-06
6.26427e-07
9.49414e-06
5.35031e-07
9.29902e-06
4.69536e-07
9.17202e-06
3.40368e-07
9.01858e-06
3.5255e-07
8.8913e-06
3.39259e-07
8.7951e-06
2.57128e-07
8.68782e-06
2.44969e-07
8.59502e-06
2.14412e-07
8.50021e-06
2.68186e-07
8.49146e-06
5.12917e-08
-1.73795e-08
8.60016e-06
1.35912e-05
7.48105e-06
1.36487e-05
6.53199e-06
1.36361e-05
3.34505e-06
1.33922e-05
2.56047e-06
1.30177e-05
2.09414e-06
1.26337e-05
1.68111e-06
1.22613e-05
1.41455e-06
1.19654e-05
1.12824e-06
1.16934e-05
8.98506e-07
1.14839e-05
7.44498e-07
1.1266e-05
6.87413e-07
1.11309e-05
4.75468e-07
1.09627e-05
5.208e-07
1.08131e-05
4.88851e-07
1.07158e-05
3.54384e-07
1.05897e-05
3.71086e-07
1.04912e-05
3.12904e-07
1.03478e-05
4.11608e-07
1.04194e-05
-2.03083e-08
-2.08309e-07
1.06103e-05
1.34889e-05
6.49212e-06
1.3734e-05
6.28697e-06
1.40127e-05
3.06634e-06
1.41369e-05
2.43622e-06
1.40739e-05
2.15721e-06
1.39182e-05
1.83677e-06
1.36754e-05
1.65735e-06
1.3482e-05
1.32164e-06
1.32553e-05
1.12521e-06
1.30896e-05
9.10223e-07
1.28874e-05
8.89603e-07
1.27618e-05
6.00992e-07
1.26137e-05
6.68979e-07
1.24529e-05
6.49572e-07
1.23701e-05
4.3721e-07
1.22393e-05
5.01917e-07
1.21559e-05
3.96295e-07
1.1954e-05
6.13473e-07
1.20853e-05
-1.51554e-07
-2.40799e-07
1.21178e-05
1.33815e-05
5.61063e-06
1.36633e-05
6.00513e-06
1.3946e-05
2.78371e-06
1.42237e-05
2.15848e-06
1.43658e-05
2.01511e-06
1.444e-05
1.7626e-06
1.43727e-05
1.72463e-06
1.4354e-05
1.34032e-06
1.42419e-05
1.23729e-06
1.41804e-05
9.71732e-07
1.40548e-05
1.01519e-06
1.39678e-05
6.87989e-07
1.38835e-05
7.53288e-07
1.37383e-05
7.94811e-07
1.36881e-05
4.87424e-07
1.35781e-05
6.1191e-07
1.35198e-05
4.54616e-07
1.33023e-05
8.30887e-07
1.34015e-05
-2.50758e-07
-1.62027e-07
1.33228e-05
1.32989e-05
4.81176e-06
1.36703e-05
5.63368e-06
1.38179e-05
2.63614e-06
1.41237e-05
1.85265e-06
1.43039e-05
1.83495e-06
1.44754e-05
1.5911e-06
1.45059e-05
1.69415e-06
1.46145e-05
1.23173e-06
1.46114e-05
1.24039e-06
1.46659e-05
9.17223e-07
1.46633e-05
1.01774e-06
1.46431e-05
7.08243e-07
1.46625e-05
7.33885e-07
1.45733e-05
8.83925e-07
1.45788e-05
4.81952e-07
1.45276e-05
6.63166e-07
1.44986e-05
4.83594e-07
1.43544e-05
9.75096e-07
1.43542e-05
-2.5061e-07
3.94628e-08
1.41527e-05
1.32147e-05
4.09702e-06
1.36406e-05
5.20781e-06
1.37111e-05
2.5657e-06
1.40268e-05
1.53693e-06
1.42179e-05
1.64384e-06
1.43903e-05
1.41871e-06
1.44454e-05
1.639e-06
1.45857e-05
1.09148e-06
1.46241e-05
1.20193e-06
1.47135e-05
8.2786e-07
1.48017e-05
9.29496e-07
1.48329e-05
6.77096e-07
1.49339e-05
6.32905e-07
1.49172e-05
9.00612e-07
1.49803e-05
4.18828e-07
1.50102e-05
6.33285e-07
1.50117e-05
4.8212e-07
1.5029e-05
9.57755e-07
1.50333e-05
-2.54916e-07
-8.33121e-07
1.59059e-05
1.31237e-05
3.47328e-06
1.36091e-05
4.72243e-06
1.36392e-05
2.5356e-06
1.39211e-05
1.25501e-06
1.41537e-05
1.41132e-06
1.4312e-05
1.26041e-06
1.43701e-05
1.58089e-06
1.45026e-05
9.58987e-07
1.45757e-05
1.12878e-06
1.46375e-05
7.66075e-07
1.47503e-05
8.1667e-07
1.48087e-05
6.18699e-07
1.49251e-05
5.16553e-07
1.49441e-05
8.81603e-07
1.50291e-05
3.33811e-07
1.51111e-05
5.51245e-07
1.5125e-05
4.68315e-07
1.53186e-05
7.64064e-07
1.53238e-05
-2.6006e-07
-1.31333e-06
1.5804e-05
1.30531e-05
2.92021e-06
1.35701e-05
4.20541e-06
1.35952e-05
2.51051e-06
1.38135e-05
1.03668e-06
1.40633e-05
1.16155e-06
1.42296e-05
1.09409e-06
1.43012e-05
1.50925e-06
1.44402e-05
8.20069e-07
1.45495e-05
1.01948e-06
1.45845e-05
7.31003e-07
1.46791e-05
7.22095e-07
1.47446e-05
5.5316e-07
1.48445e-05
4.16677e-07
1.48722e-05
8.53915e-07
1.49648e-05
2.41167e-07
1.50695e-05
4.46579e-07
1.50872e-05
4.50607e-07
1.53987e-05
4.52604e-07
1.53423e-05
-2.0368e-07
-1.33094e-06
1.53599e-05
1.29976e-05
2.42263e-06
1.35018e-05
3.70115e-06
1.35615e-05
2.45083e-06
1.37473e-05
8.50905e-07
1.39713e-05
9.37567e-07
1.41391e-05
9.26271e-07
1.42572e-05
1.39119e-06
1.44025e-05
6.74765e-07
1.44909e-05
9.31094e-07
1.45262e-05
6.95653e-07
1.46264e-05
6.21912e-07
1.46659e-05
5.13636e-07
1.47476e-05
3.3499e-07
1.48234e-05
7.78112e-07
1.49151e-05
1.49468e-07
1.50074e-05
3.5427e-07
1.50588e-05
3.99257e-07
1.53524e-05
1.58936e-07
1.52243e-05
-7.55026e-08
-1.37002e-06
1.52633e-05
1.29317e-05
1.99097e-06
1.34047e-05
3.2281e-06
1.35666e-05
2.28892e-06
1.37347e-05
6.828e-07
1.39017e-05
7.70559e-07
1.40692e-05
7.58748e-07
1.42231e-05
1.23736e-06
1.43268e-05
5.71066e-07
1.43999e-05
8.5798e-07
1.44677e-05
6.2782e-07
1.45827e-05
5.06977e-07
1.46033e-05
4.92966e-07
1.4696e-05
2.42275e-07
1.48089e-05
6.653e-07
1.48684e-05
8.99444e-08
1.49459e-05
2.76785e-07
1.50211e-05
3.24043e-07
1.52084e-05
-2.83866e-08
1.5207e-05
-7.4118e-08
-1.59835e-06
1.54353e-05
1.28644e-05
1.62657e-06
1.33325e-05
2.76002e-06
1.36103e-05
2.01109e-06
1.37226e-05
5.70474e-07
1.38441e-05
6.49113e-07
1.40208e-05
5.82001e-07
1.41613e-05
1.09691e-06
1.42343e-05
4.98018e-07
1.43504e-05
7.41896e-07
1.44373e-05
5.40929e-07
1.45409e-05
4.03326e-07
1.45747e-05
4.59225e-07
1.46777e-05
1.3928e-07
1.47648e-05
5.78191e-07
1.48024e-05
5.2383e-08
1.48943e-05
1.84803e-07
1.49504e-05
2.68019e-07
1.51103e-05
-1.88278e-07
1.52916e-05
-2.55435e-07
-1.62033e-06
1.53135e-05
1.28186e-05
1.30796e-06
1.33127e-05
2.26594e-06
1.36084e-05
1.71538e-06
1.3681e-05
4.97821e-07
1.38074e-05
5.22792e-07
1.39787e-05
4.10636e-07
1.40917e-05
9.83913e-07
1.4192e-05
3.97747e-07
1.43495e-05
5.84384e-07
1.44055e-05
4.84908e-07
1.44953e-05
3.13599e-07
1.45481e-05
4.06358e-07
1.46338e-05
5.36585e-08
1.47043e-05
5.07619e-07
1.47459e-05
1.07873e-08
1.48511e-05
7.95774e-08
1.49117e-05
2.07429e-07
1.51054e-05
-3.8193e-07
1.52776e-05
-4.27608e-07
-1.31677e-06
1.4974e-05
1.28034e-05
1.00455e-06
1.32925e-05
1.77685e-06
1.35622e-05
1.44571e-06
1.36552e-05
4.04793e-07
1.37988e-05
3.79184e-07
1.39327e-05
2.76735e-07
1.40574e-05
8.59267e-07
1.4189e-05
2.66101e-07
1.43268e-05
4.46603e-07
1.435e-05
4.61683e-07
1.44563e-05
2.07322e-07
1.45177e-05
3.44972e-07
1.45778e-05
-6.43936e-09
1.46769e-05
4.08444e-07
1.4725e-05
-3.72769e-08
1.48176e-05
-1.29908e-08
1.49149e-05
1.10105e-07
1.50991e-05
-5.66094e-07
1.51064e-05
-4.34916e-07
-1.08952e-06
1.48791e-05
1.27906e-05
7.1399e-07
1.32329e-05
1.33449e-06
1.35199e-05
1.15869e-06
1.36729e-05
2.51788e-07
1.37831e-05
2.69032e-07
1.38871e-05
1.7269e-07
1.40523e-05
6.94112e-07
1.41656e-05
1.52783e-07
1.42739e-05
3.38315e-07
1.43155e-05
4.20057e-07
1.44422e-05
8.06092e-08
1.44961e-05
2.91083e-07
1.45507e-05
-6.1057e-08
1.46739e-05
2.85287e-07
1.47051e-05
-6.84354e-08
1.47893e-05
-9.72644e-08
1.49184e-05
-1.8983e-08
1.50089e-05
-6.56618e-07
1.49559e-05
-3.81867e-07
-1.27961e-06
1.5146e-05
1.2755e-05
4.58969e-07
1.31917e-05
8.97819e-07
1.35368e-05
8.13538e-07
1.36852e-05
1.03427e-07
1.3742e-05
2.12213e-07
1.38624e-05
5.23473e-08
1.40407e-05
5.15775e-07
1.41223e-05
7.11733e-08
1.42493e-05
2.11317e-07
1.43197e-05
3.49693e-07
1.44326e-05
-3.22684e-08
1.44775e-05
2.46126e-07
1.45317e-05
-1.15219e-07
1.46619e-05
1.55027e-07
1.46598e-05
-6.62761e-08
1.47722e-05
-2.09715e-07
1.49076e-05
-1.54374e-07
1.48931e-05
-6.42059e-07
1.49975e-05
-4.86297e-07
-1.73795e-06
1.54558e-05
1.27339e-05
2.2509e-07
1.32067e-05
4.25017e-07
1.35501e-05
4.7011e-07
1.36528e-05
7.55513e-10
1.37166e-05
1.48373e-07
1.38609e-05
-9.19113e-08
1.40244e-05
3.52222e-07
1.41072e-05
-1.15559e-08
1.42569e-05
6.15731e-08
1.43162e-05
2.90401e-07
1.44101e-05
-1.26131e-07
1.44488e-05
2.07348e-07
1.45198e-05
-1.86197e-07
1.46337e-05
4.11203e-08
1.46459e-05
-7.84726e-08
1.47697e-05
-3.33529e-07
1.48816e-05
-2.66203e-07
1.48652e-05
-6.25706e-07
1.51353e-05
-7.56379e-07
-1.90594e-06
1.53033e-05
1.27464e-05
-2.13484e-08
1.32137e-05
-4.22121e-08
1.35115e-05
1.72243e-07
1.36285e-05
-1.16235e-07
1.37334e-05
4.3541e-08
1.38652e-05
-2.2371e-07
1.40184e-05
1.98978e-07
1.41135e-05
-1.06697e-07
1.42483e-05
-7.32211e-08
1.43009e-05
2.37838e-07
1.43858e-05
-2.11066e-07
1.44425e-05
1.50706e-07
1.45268e-05
-2.70528e-07
1.46281e-05
-6.01421e-08
1.46411e-05
-9.15451e-08
1.47918e-05
-4.84158e-07
1.48422e-05
-3.16663e-07
1.4904e-05
-6.87438e-07
1.51382e-05
-9.90636e-07
-1.74505e-06
1.49773e-05
1.2754e-05
-2.7538e-07
1.31898e-05
-4.77985e-07
1.34922e-05
-1.3014e-07
1.36518e-05
-2.7581e-07
1.37564e-05
-6.10742e-08
1.38571e-05
-3.2447e-07
1.40137e-05
4.23922e-08
1.41122e-05
-2.0522e-07
1.42299e-05
-1.90899e-07
1.43044e-05
1.63326e-07
1.43785e-05
-2.85151e-07
1.44643e-05
6.49526e-08
1.45403e-05
-3.46588e-07
1.46102e-05
-1.29989e-07
1.46543e-05
-1.35645e-07
1.47885e-05
-6.18396e-07
1.48351e-05
-3.63195e-07
1.4899e-05
-7.51427e-07
1.50397e-05
-1.13134e-06
-1.82092e-06
1.51156e-05
1.27503e-05
-5.25702e-07
1.31903e-05
-9.17967e-07
1.35206e-05
-4.604e-07
1.36698e-05
-4.25085e-07
1.37514e-05
-1.42603e-07
1.38443e-05
-4.17401e-07
1.40191e-05
-1.32455e-07
1.41164e-05
-3.02523e-07
1.42356e-05
-3.10076e-07
1.43237e-05
7.52674e-08
1.43816e-05
-3.431e-07
1.44841e-05
-3.7469e-08
1.45414e-05
-4.03981e-07
1.45686e-05
-1.57136e-07
1.47039e-05
-2.70951e-07
1.4763e-05
-6.77536e-07
1.48418e-05
-4.41932e-07
1.48708e-05
-7.80415e-07
1.49011e-05
-1.1617e-06
-7.47128e-07
1.38273e-05
1.27603e-05
-7.85983e-07
1.32156e-05
-1.37331e-06
1.3543e-05
-7.87782e-07
1.36575e-05
-5.39531e-07
1.37436e-05
-2.28732e-07
1.38628e-05
-5.36621e-07
1.4044e-05
-3.13632e-07
1.41337e-05
-3.92197e-07
1.42508e-05
-4.27246e-07
1.43409e-05
-1.483e-08
1.43755e-05
-3.77656e-07
1.4514e-05
-1.76007e-07
1.45156e-05
-4.05574e-07
1.45961e-05
-2.37648e-07
1.47249e-05
-3.99718e-07
1.47766e-05
-7.29226e-07
1.48252e-05
-4.90521e-07
1.49372e-05
-8.92496e-07
1.50043e-05
-1.22874e-06
-1.16795e-06
1.54251e-05
1.27815e-05
-1.06746e-06
1.3236e-05
-1.82787e-06
1.35518e-05
-1.1035e-06
1.36528e-05
-6.40592e-07
1.37676e-05
-3.43531e-07
1.39057e-05
-6.74733e-07
1.40639e-05
-4.71788e-07
1.41441e-05
-4.72376e-07
1.42707e-05
-5.53919e-07
1.43435e-05
-8.76097e-08
1.4399e-05
-4.33165e-07
1.45399e-05
-3.16867e-07
1.45236e-05
-3.89288e-07
1.46387e-05
-3.52733e-07
1.47585e-05
-5.19576e-07
1.47559e-05
-7.26605e-07
1.48536e-05
-5.88152e-07
1.499e-05
-1.02898e-06
1.50115e-05
-1.25022e-06
-1.3878e-06
1.52314e-05
1.28063e-05
-1.37379e-06
1.32596e-05
-2.28117e-06
1.35694e-05
-1.41324e-06
1.3672e-05
-7.43248e-07
1.38051e-05
-4.76576e-07
1.39353e-05
-8.05002e-07
1.40684e-05
-6.04858e-07
1.4172e-05
-5.75957e-07
1.42918e-05
-6.73674e-07
1.43616e-05
-1.57447e-07
1.44474e-05
-5.19001e-07
1.45604e-05
-4.29795e-07
1.45452e-05
-3.74097e-07
1.46878e-05
-4.95401e-07
1.47555e-05
-5.87238e-07
1.47646e-05
-7.35721e-07
1.49097e-05
-7.33237e-07
1.49859e-05
-1.10515e-06
1.50358e-05
-1.30019e-06
-1.51499e-06
1.5163e-05
1.28373e-05
-1.71113e-06
1.32931e-05
-2.73689e-06
1.3597e-05
-1.71723e-06
1.36983e-05
-8.44531e-07
1.38335e-05
-6.11793e-07
1.39559e-05
-9.27371e-07
1.40962e-05
-7.45159e-07
1.42232e-05
-7.02937e-07
1.43087e-05
-7.59157e-07
1.44024e-05
-2.51167e-07
1.44913e-05
-6.0793e-07
1.45693e-05
-5.07792e-07
1.45838e-05
-3.88574e-07
1.47252e-05
-6.36823e-07
1.47517e-05
-6.13681e-07
1.48255e-05
-8.09516e-07
1.493e-05
-8.37811e-07
1.50001e-05
-1.1752e-06
1.51063e-05
-1.4064e-06
-1.6428e-06
1.52341e-05
1.28747e-05
-2.08581e-06
1.33376e-05
-3.19977e-06
1.36263e-05
-2.00593e-06
1.37211e-05
-9.39363e-07
1.38636e-05
-7.54268e-07
1.39982e-05
-1.06203e-06
1.41515e-05
-8.98395e-07
1.42648e-05
-8.16234e-07
1.43303e-05
-8.24655e-07
1.44554e-05
-3.76269e-07
1.45195e-05
-6.72051e-07
1.45925e-05
-5.80802e-07
1.46463e-05
-4.42379e-07
1.47496e-05
-7.40082e-07
1.47907e-05
-6.54856e-07
1.48794e-05
-8.9823e-07
1.49434e-05
-9.01719e-07
1.50609e-05
-1.2927e-06
1.51704e-05
-1.5159e-06
-1.73738e-06
1.52649e-05
1.29218e-05
-2.50759e-06
1.33919e-05
-3.6699e-06
1.36172e-05
-2.23119e-06
1.37478e-05
-1.06998e-06
1.39143e-05
-9.20761e-07
1.40609e-05
-1.20863e-06
1.42022e-05
-1.03972e-06
1.42956e-05
-9.09608e-07
1.43767e-05
-9.05785e-07
1.45082e-05
-5.07797e-07
1.45507e-05
-7.1451e-07
1.46517e-05
-6.81793e-07
1.47051e-05
-4.95832e-07
1.47853e-05
-8.20249e-07
1.4844e-05
-7.13573e-07
1.49176e-05
-9.71802e-07
1.49842e-05
-9.68364e-07
1.51239e-05
-1.43237e-06
1.51871e-05
-1.57906e-06
-1.8244e-06
1.52741e-05
1.29786e-05
-2.98615e-06
1.34493e-05
-4.1406e-06
1.36261e-05
-2.40806e-06
1.37899e-05
-1.23371e-06
1.39796e-05
-1.11053e-06
1.41214e-05
-1.35036e-06
1.42448e-05
-1.1632e-06
1.43381e-05
-1.00289e-06
1.44408e-05
-1.00847e-06
1.45514e-05
-6.18344e-07
1.46066e-05
-7.69789e-07
1.47139e-05
-7.89096e-07
1.47586e-05
-5.40502e-07
1.48341e-05
-8.95708e-07
1.48978e-05
-7.77345e-07
1.49662e-05
-1.04018e-06
1.50356e-05
-1.03773e-06
1.51547e-05
-1.55147e-06
1.52087e-05
-1.63311e-06
-2.01083e-06
1.53952e-05
1.30413e-05
-3.52741e-06
1.3515e-05
-4.61434e-06
1.36656e-05
-2.55869e-06
1.38381e-05
-1.40614e-06
1.40445e-05
-1.317e-06
1.41799e-05
-1.48573e-06
1.42952e-05
-1.27855e-06
1.43982e-05
-1.10581e-06
1.45026e-05
-1.11295e-06
1.4598e-05
-7.13674e-07
1.46773e-05
-8.49103e-07
1.47671e-05
-8.78891e-07
1.48233e-05
-5.96691e-07
1.489e-05
-9.62434e-07
1.49614e-05
-8.4875e-07
1.50214e-05
-1.10022e-06
1.50723e-05
-1.08856e-06
1.5178e-05
-1.65716e-06
1.52509e-05
-1.70607e-06
-2.26103e-06
1.55011e-05
1.31113e-05
-4.13866e-06
1.35881e-05
-5.09116e-06
1.37052e-05
-2.67586e-06
1.38888e-05
-1.58972e-06
1.41177e-05
-1.54583e-06
1.42483e-05
-1.61643e-06
1.43606e-05
-1.39083e-06
1.44728e-05
-1.21795e-06
1.45674e-05
-1.20754e-06
1.46608e-05
-8.07127e-07
1.47536e-05
-9.41889e-07
1.48242e-05
-9.49528e-07
1.48936e-05
-6.66083e-07
1.49432e-05
-1.01206e-06
1.50134e-05
-9.18912e-07
1.50454e-05
-1.13222e-06
1.50778e-05
-1.12092e-06
1.5142e-05
-1.72135e-06
1.51805e-05
-1.74462e-06
-2.45155e-06
1.5371e-05
1.31904e-05
-4.82909e-06
1.36518e-05
-5.55257e-06
1.37454e-05
-2.76946e-06
1.39655e-05
-1.80979e-06
1.42111e-05
-1.79141e-06
1.43338e-05
-1.73909e-06
1.44477e-05
-1.50482e-06
1.45617e-05
-1.33191e-06
1.46359e-05
-1.28176e-06
1.47286e-05
-8.99835e-07
1.48036e-05
-1.01688e-06
1.48426e-05
-9.88515e-07
1.48992e-05
-7.22701e-07
1.4909e-05
-1.02187e-06
1.49365e-05
-9.46415e-07
1.49122e-05
-1.10783e-06
1.48976e-05
-1.10639e-06
1.48471e-05
-1.67079e-06
1.47963e-05
-1.69387e-06
-2.55293e-06
1.48977e-05
1.32766e-05
-5.60568e-06
1.36947e-05
-5.97065e-06
1.38148e-05
-2.88954e-06
1.40829e-05
-2.07789e-06
1.4322e-05
-2.03052e-06
1.44305e-05
-1.84765e-06
1.4526e-05
-1.60026e-06
1.45991e-05
-1.40505e-06
1.462e-05
-1.30264e-06
1.46659e-05
-9.45772e-07
1.46627e-05
-1.0137e-06
1.46293e-05
-9.55104e-07
1.46225e-05
-7.15849e-07
1.45503e-05
-9.49663e-07
1.44949e-05
-8.91041e-07
1.43935e-05
-1.00638e-06
1.43045e-05
-1.01744e-06
1.41288e-05
-1.49511e-06
1.39705e-05
-1.5355e-06
-1.92288e-06
1.33404e-05
1.33711e-05
-6.47681e-06
1.36844e-05
-6.28391e-06
1.39312e-05
-3.1364e-06
1.42143e-05
-2.36096e-06
1.43781e-05
-2.19429e-06
1.4407e-05
-1.87662e-06
1.43942e-05
-1.58737e-06
1.434e-05
-1.35094e-06
1.4241e-05
-1.20359e-06
1.4172e-05
-8.76817e-07
1.40531e-05
-8.94806e-07
1.39298e-05
-8.31752e-07
1.38408e-05
-6.26872e-07
1.36943e-05
-8.03133e-07
1.35684e-05
-7.65202e-07
1.34135e-05
-8.5146e-07
1.32621e-05
-8.65998e-07
1.3022e-05
-1.25507e-06
1.28109e-05
-1.32434e-06
-1.76806e-06
1.2656e-05
1.34888e-05
-7.46563e-06
1.37466e-05
-6.54168e-06
1.39967e-05
-3.38651e-06
1.41425e-05
-2.50671e-06
1.40739e-05
-2.12576e-06
1.38975e-05
-1.70022e-06
1.36898e-05
-1.37966e-06
1.34706e-05
-1.13171e-06
1.32473e-05
-9.80352e-07
1.30777e-05
-7.07169e-07
1.28825e-05
-6.99599e-07
1.27067e-05
-6.55926e-07
1.25703e-05
-4.90504e-07
1.23895e-05
-6.22299e-07
1.22294e-05
-6.05156e-07
1.20482e-05
-6.70244e-07
1.1865e-05
-6.82755e-07
1.15983e-05
-9.88408e-07
1.1328e-05
-1.05401e-06
-1.20906e-06
1.0769e-05
1.35946e-05
-8.56021e-06
1.36547e-05
-6.60175e-06
1.36225e-05
-3.35434e-06
1.34005e-05
-2.2847e-06
1.30115e-05
-1.7368e-06
1.2622e-05
-1.31071e-06
1.22693e-05
-1.02699e-06
1.19574e-05
-8.19728e-07
1.16803e-05
-7.03258e-07
1.14715e-05
-4.98432e-07
1.12558e-05
-4.83913e-07
1.10688e-05
-4.68857e-07
1.0919e-05
-3.40686e-07
1.07342e-05
-4.37575e-07
1.0566e-05
-4.36924e-07
1.03792e-05
-4.83453e-07
1.01879e-05
-4.91429e-07
9.91553e-06
-7.16053e-07
9.645e-06
-7.83479e-07
-7.98551e-07
9.23448e-06
1.34141e-05
-9.47426e-06
1.28847e-05
-6.07237e-06
1.23248e-05
-2.7945e-06
1.17157e-05
-1.67561e-06
1.11284e-05
-1.14942e-06
1.06549e-05
-8.37236e-07
1.02695e-05
-6.41601e-07
9.95222e-06
-5.02448e-07
9.68286e-06
-4.33894e-07
9.48225e-06
-2.97828e-07
9.28456e-06
-2.86223e-07
9.11161e-06
-2.959e-07
8.97264e-06
-2.01715e-07
8.805e-06
-2.69944e-07
8.64628e-06
-2.78205e-07
8.47131e-06
-3.08482e-07
8.28916e-06
-3.09275e-07
8.03536e-06
-4.62251e-07
7.77059e-06
-5.18715e-07
-4.92486e-07
7.46453e-06
1.24261e-05
-9.4004e-06
1.1001e-05
-4.64726e-06
9.9789e-06
-1.77237e-06
9.20176e-06
-8.98465e-07
8.61536e-06
-5.63023e-07
8.18592e-06
-4.07792e-07
7.8531e-06
-3.08787e-07
7.58886e-06
-2.38206e-07
7.36621e-06
-2.1124e-07
7.20487e-06
-1.36489e-07
7.04938e-06
-1.30738e-07
6.90584e-06
-1.52357e-07
6.79527e-06
-9.11493e-08
6.65867e-06
-1.33346e-07
6.52332e-06
-1.42847e-07
6.37445e-06
-1.59616e-07
6.21883e-06
-1.53656e-07
6.00055e-06
-2.43973e-07
5.75825e-06
-2.76416e-07
-2.43632e-07
5.5094e-06
1.01113e-05
-7.01174e-06
7.8282e-06
-2.36413e-06
6.70847e-06
-6.52636e-07
6.06303e-06
-2.53025e-07
5.64372e-06
-1.43705e-07
5.34526e-06
-1.09338e-07
5.11864e-06
-8.21645e-08
4.94185e-06
-6.14194e-08
4.79018e-06
-5.95724e-08
4.68704e-06
-3.3341e-08
4.58753e-06
-3.12345e-08
4.48381e-06
-4.86328e-08
4.41406e-06
-2.1398e-08
4.31848e-06
-3.77744e-08
4.21982e-06
-4.41854e-08
4.11033e-06
-5.0127e-08
3.99976e-06
-4.30827e-08
3.83398e-06
-7.81957e-08
3.64562e-06
-8.80523e-08
-7.71732e-08
3.47916e-06
5.48826e-06
3.12413e-06
2.47149e-06
2.21847e-06
2.07476e-06
1.96543e-06
1.88326e-06
1.82184e-06
1.76227e-06
1.72893e-06
1.6977e-06
1.64906e-06
1.62766e-06
1.58989e-06
1.5457e-06
1.49558e-06
1.45249e-06
1.3743e-06
1.28625e-06
1.20907e-06
2.32941e-06
8.99692e-07
-1.65269e-06
2.93667e-06
-1.91321e-07
-4.15934e-07
3.06231e-06
-1.12335e-06
9.97703e-07
2.84488e-06
-1.64425e-06
1.86167e-06
2.67292e-06
-1.84164e-06
2.0136e-06
2.13465e-06
-1.42046e-06
1.95873e-06
2.23859e-06
2.86928e-07
-3.90867e-07
2.91361e-06
9.14676e-07
-1.58969e-06
4.29983e-06
1.6446e-06
-3.03082e-06
5.92137e-06
2.72616e-06
-4.3477e-06
7.19324e-06
3.35544e-06
-4.62731e-06
8.04149e-06
3.32105e-06
-4.1693e-06
8.90399e-06
4.09317e-06
-4.95568e-06
9.56578e-06
4.95911e-06
-5.62089e-06
1.03277e-05
4.50336e-06
-5.26533e-06
1.08709e-05
2.96353e-06
-3.50669e-06
1.11831e-05
1.71797e-06
-2.03015e-06
1.19005e-05
3.08192e-07
-1.0256e-06
1.24735e-05
-1.17002e-06
5.96966e-07
1.27463e-05
-2.99865e-06
2.72586e-06
1.30824e-05
-4.80167e-06
4.46557e-06
1.32292e-05
-6.49408e-06
6.34727e-06
1.31548e-05
-7.83977e-06
7.91424e-06
1.30974e-05
-8.68376e-06
8.74109e-06
1.35861e-05
-1.04712e-05
9.98254e-06
1.45926e-05
-1.22334e-05
1.12268e-05
1.54987e-05
-1.45347e-05
1.36286e-05
1.62356e-05
-1.654e-05
1.58032e-05
1.65124e-05
-1.81544e-05
1.78776e-05
1.63658e-05
-1.92943e-05
1.94409e-05
1.60192e-05
-1.96444e-05
1.9991e-05
1.55434e-05
-2.01371e-05
2.06129e-05
1.52048e-05
-2.00248e-05
2.03634e-05
1.49743e-05
-2.0538e-05
2.07685e-05
1.49692e-05
-2.07153e-05
2.07204e-05
1.51054e-05
-2.09467e-05
2.08105e-05
1.51906e-05
-2.13488e-05
2.12637e-05
1.53185e-05
-2.03171e-05
2.01892e-05
1.56187e-05
-2.03484e-05
2.00482e-05
1.60745e-05
-2.00192e-05
1.95635e-05
1.66111e-05
-1.8448e-05
1.79113e-05
1.7046e-05
-1.764e-05
1.72051e-05
1.72415e-05
-1.58194e-05
1.56239e-05
1.72138e-05
-1.27257e-05
1.27534e-05
1.71511e-05
-1.0673e-05
1.07357e-05
1.69038e-05
-8.14927e-06
8.39648e-06
1.63564e-05
-4.51902e-06
5.06649e-06
1.57328e-05
-2.02374e-06
2.64735e-06
1.49482e-05
-4.73778e-07
1.2584e-06
1.39371e-05
1.83637e-06
-8.25357e-07
1.32163e-05
3.49181e-06
-2.77095e-06
1.26036e-05
3.03824e-06
-2.4255e-06
1.17544e-05
3.20099e-06
-2.35179e-06
1.12291e-05
4.09165e-06
-3.56643e-06
1.10838e-05
3.39866e-06
-3.25329e-06
1.09771e-05
1.90281e-06
-1.79611e-06
1.07614e-05
1.75381e-06
-1.53816e-06
1.05568e-05
1.82101e-06
-1.61641e-06
1.05527e-05
2.13008e-06
-2.12597e-06
1.08532e-05
3.00527e-06
-3.30577e-06
1.13269e-05
2.33604e-06
-2.80974e-06
1.19523e-05
1.55164e-06
-2.17702e-06
1.26015e-05
2.14226e-06
-2.79152e-06
1.29792e-05
2.95263e-06
-3.33033e-06
1.30232e-05
4.48395e-06
-4.5279e-06
1.29502e-05
5.04819e-06
-4.97526e-06
1.29764e-05
4.72956e-06
-4.75569e-06
1.31429e-05
5.90238e-06
-6.06894e-06
1.32259e-05
8.86496e-06
-8.94789e-06
1.29779e-05
1.23681e-05
-1.21201e-05
1.25047e-05
1.42941e-05
-1.38209e-05
1.20685e-05
1.65419e-05
-1.61057e-05
1.17584e-05
1.98778e-05
-1.95677e-05
1.14493e-05
2.28871e-05
-2.25779e-05
1.10012e-05
2.47055e-05
-2.42575e-05
1.04914e-05
2.44956e-05
-2.39858e-05
1.00631e-05
2.33219e-05
-2.28936e-05
9.74349e-06
2.10073e-05
-2.06877e-05
9.52184e-06
1.78913e-05
-1.76696e-05
9.33128e-06
1.43324e-05
-1.41419e-05
9.03582e-06
1.04599e-05
-1.01644e-05
8.62972e-06
5.30093e-06
-4.89483e-06
8.27294e-06
-8.82489e-07
1.23927e-06
8.05824e-06
-7.63531e-06
7.85001e-06
8.031e-06
-1.50402e-05
1.50675e-05
8.05032e-06
-2.16471e-05
2.16278e-05
7.95188e-06
-2.61834e-05
2.62818e-05
7.75636e-06
-2.55588e-05
2.57543e-05
7.5651e-06
-2.31143e-05
2.33056e-05
6.98153e-06
-1.91701e-05
1.97537e-05
6.5037e-06
-1.46088e-05
1.50866e-05
6.39535e-06
-1.26072e-05
1.27155e-05
6.191e-06
-1.13325e-05
1.15369e-05
6.06633e-06
-1.09007e-05
1.10254e-05
6.15018e-06
-1.12514e-05
1.11676e-05
6.19168e-06
-1.30414e-05
1.29999e-05
6.05156e-06
-1.33745e-05
1.35146e-05
6.12825e-06
-1.4144e-05
1.40674e-05
6.45432e-06
-1.56809e-05
1.53549e-05
6.62596e-06
-1.73836e-05
1.72119e-05
6.67389e-06
-1.93257e-05
1.92778e-05
6.84881e-06
-1.93485e-05
1.91735e-05
7.1239e-06
-1.83467e-05
1.80716e-05
7.41727e-06
-1.90217e-05
1.87284e-05
7.80969e-06
-1.95562e-05
1.91638e-05
8.19411e-06
-1.83673e-05
1.79829e-05
8.57155e-06
-1.70006e-05
1.66231e-05
8.95077e-06
-1.55359e-05
1.51567e-05
9.30196e-06
-1.278e-05
1.24288e-05
9.64399e-06
-9.06446e-06
8.72243e-06
9.98736e-06
-5.5717e-06
5.22832e-06
1.02781e-05
-2.57401e-06
2.28325e-06
1.05707e-05
8.9451e-07
-1.18706e-06
1.08563e-05
5.27128e-06
-5.55687e-06
1.10819e-05
9.25286e-06
-9.47852e-06
1.12291e-05
1.20779e-05
-1.22252e-05
1.13637e-05
1.44721e-05
-1.46066e-05
1.15357e-05
1.68848e-05
-1.70568e-05
1.16369e-05
1.89046e-05
-1.90058e-05
1.16169e-05
2.00911e-05
-2.00711e-05
1.15288e-05
2.03688e-05
-2.02806e-05
1.15126e-05
1.97174e-05
-1.97012e-05
1.15788e-05
1.83835e-05
-1.84497e-05
1.16488e-05
1.68962e-05
-1.69662e-05
1.1737e-05
1.54418e-05
-1.55301e-05
1.19607e-05
1.3821e-05
-1.40447e-05
1.20729e-05
1.21626e-05
-1.22749e-05
1.2029e-05
1.0545e-05
-1.0501e-05
1.19946e-05
8.87303e-06
-8.83866e-06
1.1844e-05
7.07668e-06
-6.92613e-06
1.15943e-05
5.54892e-06
-5.29916e-06
1.10447e-05
5.01139e-06
-4.46183e-06
1.04306e-05
5.19813e-06
-4.58401e-06
9.81838e-06
5.65836e-06
-5.04613e-06
9.31693e-06
5.7222e-06
-5.22075e-06
8.94971e-06
5.34684e-06
-4.97962e-06
8.61249e-06
4.62235e-06
-4.28513e-06
8.40877e-06
3.71742e-06
-3.51371e-06
8.16929e-06
2.84561e-06
-2.60612e-06
8.02426e-06
2.02993e-06
-1.88489e-06
7.82128e-06
1.46587e-06
-1.26289e-06
7.69892e-06
9.99987e-07
-8.77624e-07
7.50683e-06
8.09233e-07
-6.17145e-07
7.39063e-06
6.7257e-07
-5.56366e-07
7.21683e-06
7.19244e-07
-5.45448e-07
7.1218e-06
7.36873e-07
-6.41838e-07
6.97094e-06
8.78706e-07
-7.2785e-07
6.92213e-06
9.08005e-07
-8.59193e-07
6.82889e-06
1.00741e-06
-9.14176e-07
6.81888e-06
1.01064e-06
-1.00062e-06
6.77107e-06
1.05782e-06
-1.01001e-06
6.79299e-06
1.00917e-06
-1.03109e-06
6.78481e-06
1.00968e-06
-1.0015e-06
6.80028e-06
9.62373e-07
-9.77834e-07
6.80792e-06
9.54971e-07
-9.62616e-07
6.81168e-06
9.2083e-07
-9.24591e-07
6.83956e-06
9.10031e-07
-9.37908e-07
6.815e-06
9.13281e-07
-8.88726e-07
6.85053e-06
9.31265e-07
-9.66787e-07
6.80516e-06
9.65357e-07
-9.19988e-07
6.86985e-06
9.76889e-07
-1.04158e-06
6.80995e-06
1.03056e-06
-9.70667e-07
6.87285e-06
1.07706e-06
-1.13996e-06
6.80507e-06
1.17067e-06
-1.10289e-06
6.89167e-06
1.19864e-06
-1.28523e-06
6.83907e-06
1.29124e-06
-1.23865e-06
6.91036e-06
1.33339e-06
-1.40468e-06
6.84099e-06
1.53238e-06
-1.46301e-06
6.93203e-06
1.5196e-06
-1.61064e-06
6.90189e-06
1.70632e-06
-1.67618e-06
6.97506e-06
1.72713e-06
-1.80029e-06
6.92555e-06
1.98416e-06
-1.93466e-06
6.98322e-06
1.98903e-06
-2.0467e-06
7.00498e-06
2.26489e-06
-2.28665e-06
7.03564e-06
2.29998e-06
-2.33064e-06
7.09516e-06
2.54759e-06
-2.6071e-06
7.06316e-06
2.67627e-06
-2.64427e-06
7.15266e-06
2.91635e-06
-3.00585e-06
7.12255e-06
3.14102e-06
-3.11091e-06
7.25388e-06
3.31187e-06
-3.4432e-06
7.18259e-06
3.65395e-06
-3.58266e-06
7.31134e-06
3.84422e-06
-3.97296e-06
7.26666e-06
4.16825e-06
-4.12357e-06
7.35383e-06
4.48516e-06
-4.57233e-06
7.35895e-06
4.84562e-06
-4.85073e-06
7.33376e-06
5.24217e-06
-5.21697e-06
7.39767e-06
5.64378e-06
-5.70769e-06
7.29553e-06
6.16672e-06
-6.06457e-06
7.4229e-06
6.55788e-06
-6.68525e-06
7.33843e-06
7.2562e-06
-7.17174e-06
7.3404e-06
7.8251e-06
-7.82707e-06
7.30093e-06
8.71302e-06
-8.67355e-06
7.00073e-06
9.58173e-06
-9.28153e-06
7.15707e-06
1.04e-05
-1.05563e-05
7.02121e-06
1.19922e-05
-1.18563e-05
6.79302e-06
1.32113e-05
-1.29831e-05
7.12208e-06
1.50423e-05
-1.53713e-05
6.33847e-06
1.90043e-05
-1.82207e-05
6.15103e-06
2.09544e-05
-2.07669e-05
3.10557e-05
-3.06008e-05
5.6961e-06
4.61725e-06
3.10542e-07
4.98706e-06
-5.61127e-07
5.10904e-06
-1.24533e-06
4.98232e-06
-1.51752e-06
4.72009e-06
-1.57941e-06
4.38862e-06
-1.089e-06
4.56861e-06
1.06943e-07
4.72763e-06
7.55652e-07
5.11276e-06
1.25947e-06
6.04786e-06
1.79106e-06
7.21081e-06
2.1925e-06
8.27211e-06
2.25974e-06
9.4162e-06
2.94909e-06
1.03613e-05
4.01402e-06
1.12481e-05
3.61651e-06
1.17025e-05
2.50916e-06
1.19479e-05
1.47253e-06
1.24543e-05
-1.98166e-07
1.28002e-05
-1.51588e-06
1.30257e-05
-3.22419e-06
1.3238e-05
-5.01393e-06
1.32937e-05
-6.54981e-06
1.34266e-05
-7.97267e-06
1.3918e-05
-9.17513e-06
1.48257e-05
-1.13789e-05
1.58139e-05
-1.32215e-05
1.6415e-05
-1.51358e-05
1.67815e-05
-1.69065e-05
1.66806e-05
-1.80536e-05
1.62533e-05
-1.8867e-05
1.58148e-05
-1.92059e-05
1.53057e-05
-1.9628e-05
1.50231e-05
-1.97421e-05
1.4945e-05
-2.046e-05
1.50252e-05
-2.07955e-05
1.50868e-05
-2.10083e-05
1.51304e-05
-2.13924e-05
1.53335e-05
-2.05202e-05
1.58056e-05
-2.08205e-05
1.64288e-05
-2.06425e-05
1.69755e-05
-1.89946e-05
1.7307e-05
-1.79715e-05
1.74238e-05
-1.59362e-05
1.73682e-05
-1.26701e-05
1.72201e-05
-1.05249e-05
1.69346e-05
-7.86377e-06
1.64654e-05
-4.04983e-06
1.59276e-05
-1.48595e-06
1.51391e-05
3.14739e-07
1.41148e-05
2.86068e-06
1.33498e-05
4.2568e-06
1.25661e-05
3.82187e-06
1.16914e-05
4.07569e-06
1.12353e-05
4.54778e-06
1.10672e-05
3.56674e-06
1.09028e-05
2.06727e-06
1.07085e-05
1.94808e-06
1.05667e-05
1.96275e-06
1.05892e-05
2.10759e-06
1.09808e-05
2.61375e-06
1.15621e-05
1.7547e-06
1.21629e-05
9.50836e-07
1.26607e-05
1.64452e-06
1.29606e-05
2.65265e-06
1.30354e-05
4.40915e-06
1.29632e-05
5.1204e-06
1.29002e-05
4.79258e-06
1.29794e-05
5.82322e-06
1.30714e-05
8.77289e-06
1.28904e-05
1.25491e-05
1.24718e-05
1.47127e-05
1.20554e-05
1.69584e-05
1.17448e-05
2.01883e-05
1.14544e-05
2.31776e-05
1.10362e-05
2.51238e-05
1.05346e-05
2.49971e-05
1.01197e-05
2.37368e-05
9.81955e-06
2.13075e-05
9.62706e-06
1.80838e-05
9.49269e-06
1.44668e-05
9.2516e-06
1.0701e-05
8.8993e-06
5.65323e-06
8.57274e-06
-5.55927e-07
8.38105e-06
-7.44362e-06
8.36949e-06
-1.50287e-05
8.36307e-06
-2.16407e-05
8.22537e-06
-2.60457e-05
8.00622e-06
-2.53397e-05
7.69108e-06
-2.27992e-05
7.0217e-06
-1.85007e-05
6.52948e-06
-1.41166e-05
6.39064e-06
-1.24683e-05
6.16454e-06
-1.11064e-05
6.00925e-06
-1.07455e-05
6.08129e-06
-1.13235e-05
6.03856e-06
-1.29987e-05
5.87214e-06
-1.32081e-05
6.01632e-06
-1.42882e-05
6.29126e-06
-1.59559e-05
6.36202e-06
-1.74543e-05
6.32827e-06
-1.9292e-05
6.4453e-06
-1.94655e-05
6.71467e-06
-1.8616e-05
6.93521e-06
-1.92423e-05
7.2365e-06
-1.98575e-05
7.55714e-06