/*--------------------------------*- C++ -*----------------------------------*\
| =========                 |                                                 |
| \\      /  F ield         | OpenFOAM: The Open Source CFD Toolbox           |
|  \\    /   O peration     | Version:  2.4.0                                 |
|   \\  /    A nd           | Web:      www.OpenFOAM.org                      |
|    \\/     M anipulation  |                                                 |
\*---------------------------------------------------------------------------*/
FoamFile
{
    version     2.0;
    format      ascii;
    class       volScalarField;
    location    "0.025";
    object      p;
}
// * * * * * * * * * * * * * * * * * * * * * * * * * * * * * * * * * * * * * //

dimensions      [0 2 -2 0 0 0 0];

internalField   nonuniform List<scalar> 
17600
(
71.5331
69.7591
67.1578
64.2066
61.2849
58.7571
56.7097
55.0903
53.9853
53.106
52.4151
51.9839
51.4622
51.0388
50.7348
50.2719
49.9039
49.601
49.1101
48.7876
48.473
47.9396
47.6758
47.3754
46.8564
46.6012
46.3812
45.9003
45.5954
45.3884
45.0034
44.73
44.5751
44.2831
44.0813
44.007
43.9011
43.8156
43.8909
44.1267
69.7946
68.5409
66.4321
63.8436
61.1288
58.7341
56.7699
55.1715
54.0959
53.2048
52.4815
52.0603
51.5074
51.0638
50.7765
50.2802
49.9071
49.6256
49.0933
48.7818
48.4956
47.904
47.6755
47.4039
46.8236
46.5883
46.4089
45.877
45.565
45.4101
44.9871
44.7093
44.584
44.2704
44.0563
43.9917
43.8876
43.7623
43.7964
43.9152
68.434
67.4781
65.8066
63.6302
61.2473
59.0775
57.2004
55.6021
54.4637
53.4719
52.6813
52.2037
51.5931
51.1422
50.8428
50.3114
49.9462
49.6658
49.0876
48.785
48.5243
47.8929
47.6808
47.4438
46.8272
46.5934
46.4099
45.8657
45.5756
45.4517
44.9695
44.6877
44.5782
44.262
44.0098
43.9397
43.7776
43.7018
43.9014
44.7858
67.3562
66.6041
65.2697
63.4725
61.3921
59.3915
57.5882
55.9966
54.7722
53.7173
52.8791
52.3104
51.6998
51.2477
50.9091
50.3691
50.0275
49.7028
49.113
48.7962
48.5339
47.9274
47.6844
47.4583
46.8931
46.6247
46.3635
45.8596
45.6368
45.4953
44.9698
44.6622
44.5701
44.2577
44.0023
43.8899
43.6503
43.3827
43.3351
44.6232
66.5354
65.9029
64.8177
63.3071
61.48
59.6189
57.8893
56.3101
55.0276
53.9266
53.0483
52.3977
51.7992
51.3449
50.9738
50.4345
50.1193
49.7428
49.1446
48.8018
48.5384
47.9787
47.684
47.462
46.9976
46.6569
46.2867
45.8636
45.7346
45.5281
44.9846
44.6316
44.5574
44.2611
43.9983
43.8412
43.8644
44.146
44.7763
44.667
65.9091
65.3562
64.4262
63.1466
61.4981
59.7783
58.1126
56.553
55.2409
54.1094
53.174
52.485
51.8676
51.4301
51.0149
50.5037
50.1865
49.784
49.1637
48.8088
48.5405
48.0207
47.6772
47.4874
47.0887
46.6776
46.2128
45.8795
45.8287
45.5654
44.9865
44.6141
44.5355
44.2998
43.9867
43.7232
43.4962
43.376
43.4179
45.2927
65.4312
64.9481
64.1161
62.9898
61.4913
59.8871
58.2767
56.7389
55.4181
54.2552
53.283
52.5577
51.9121
51.4953
51.0516
50.5523
50.2518
49.8151
49.1812
48.811
48.5429
48.0475
47.6886
47.5172
47.1527
46.6877
46.1619
45.8944
45.912
45.6017
44.9813
44.6083
44.5244
44.3372
43.95
43.6413
43.4185
43.514
44.0955
46.4762
65.1072
64.6597
63.8756
62.8592
61.4753
59.9476
58.4084
56.8695
55.5472
54.3783
53.3662
52.6134
51.9488
51.5249
51.0922
50.5836
50.3039
49.8415
49.2033
48.7977
48.5389
48.0709
47.708
47.537
47.1999
46.6909
46.1296
45.9071
45.9767
45.6296
44.9786
44.617
44.5187
44.3245
43.9653
43.6015
43.3808
43.381
43.8895
46.1751
64.869
64.4686
63.728
62.763
61.462
59.9871
58.4878
56.9647
55.6297
54.4699
53.416
52.6557
51.9631
51.5511
51.1186
50.6052
50.3312
49.8808
49.2013
48.8026
48.5319
48.0825
47.7274
47.5478
47.2303
46.7004
46.1109
45.9179
46.0196
45.658
44.9822
44.6391
44.5345
44.3736
44.0034
43.5904
43.3507
43.3588
43.8792
46.2797
64.7585
64.3849
63.658
62.7074
61.4609
59.9915
58.5322
57.0123
55.664
54.5218
53.4432
52.6651
51.9851
51.5352
51.1403
50.6103
50.3406
49.9146
49.1928
48.8118
48.5281
48.0848
47.753
47.5446
47.2514
46.7094
46.0988
45.9299
46.0554
45.6711
45.0035
44.6701
44.5689
44.4249
44.0679
43.6175
43.3744
43.3615
43.8355
46.0848
64.7471
64.3845
63.6739
62.699
61.4643
59.9888
58.5322
57.0215
55.6467
54.5318
53.4426
52.6537
52.002
51.5165
51.1515
50.617
50.3232
49.9423
49.1748
48.829
48.5301
48.0863
47.7653
47.5459
47.2459
46.7364
46.0897
45.9597
46.07
45.6777
45.0332
44.7138
44.6019
44.5013
44.1621
43.7158
43.4525
43.4034
43.6236
45.779
64.8476
64.4805
63.7635
62.736
61.4809
59.9687
58.4901
56.9888
55.5886
54.495
53.4242
52.6164
52.0128
51.4916
51.1444
50.6196
50.2834
49.9427
49.1641
48.8287
48.5457
48.0643
47.7793
47.5317
47.2292
46.7624
46.0805
45.9694
46.0741
45.6601
45.0702
44.7645
44.629
44.567
44.2771
43.8868
43.6703
43.5339
43.2883
44.5156
65.0692
64.667
63.9213
62.8244
61.4948
59.9344
58.4056
56.9058
55.4992
54.4069
53.3842
52.5602
52.0185
51.4591
51.1272
50.6117
50.2474
49.9127
49.1811
48.8215
48.5904
48.0265
47.8008
47.5092
47.2136
46.7696
46.12
45.9745
46.0872
45.6269
45.1169
44.8135
44.6764
44.6259
44.4084
44.0666
44.0067
44.0534
44.0439
43.0302
65.4074
64.9594
64.1551
62.9512
61.5137
59.8732
58.2752
56.7777
55.3686
54.2838
53.3093
52.4943
51.9893
51.4355
51.0672
50.6027
50.1972
49.8714
49.18
48.8244
48.5843
48.0247
47.7815
47.4943
47.1881
46.7854
46.1419
45.9895
46.0667
45.607
45.1505
44.8682
44.7098
44.6797
44.5155
44.2512
44.2404
44.2111
43.8547
41.9691
65.8881
65.3697
64.455
63.1138
61.5126
59.7764
58.1069
56.5905
55.202
54.1242
53.211
52.4223
51.9306
51.4027
50.9969
50.5732
50.1478
49.8091
49.195
48.8185
48.5606
48.0518
47.7474
47.4782
47.1601
46.7815
46.1944
46.0115
46.0028
45.5939
45.1853
44.9129
44.737
44.7052
44.5661
44.3565
44.3215
44.2309
43.7259
41.8501
66.5278
65.9087
64.8297
63.2859
61.4809
59.6289
57.8767
56.3475
54.9992
53.9299
53.0904
52.3426
51.8414
51.3602
50.9173
50.5191
50.1097
49.7113
49.2317
48.8192
48.5126
48.0873
47.7235
47.4362
47.1398
46.7408
46.2793
46.0508
45.9065
45.5719
45.2263
44.9396
44.7685
44.6852
44.5464
44.3825
44.3321
44.1917
43.7396
41.8011
67.3646
66.6053
65.2793
63.453
61.3959
59.3975
57.5709
56.0347
54.7474
53.7103
52.9288
52.256
51.7293
51.2997
50.8228
50.4538
50.0693
49.6068
49.2485
48.8395
48.4321
48.1227
47.7129
47.3868
47.1251
46.6899
46.3432
46.1142
45.802
45.5393
45.2655
44.9601
44.7886
44.6478
44.4756
44.3391
44.2473
44.1281
43.9116
42.6848
68.4407
67.4824
65.8118
63.6165
61.251
59.0832
57.1818
55.6441
54.4416
53.4616
52.7383
52.1492
51.6112
51.2147
50.7435
50.3839
50.0269
49.534
49.2403
48.8551
48.376
48.1306
47.714
47.3516
47.0975
46.6634
46.3839
46.153
45.7393
45.5126
45.2847
44.9822
44.7914
44.6185
44.4201
44.2915
44.0669
43.7432
43.3348
43.3471
69.7942
68.5466
66.4445
63.8319
61.1322
58.7419
56.7469
55.2081
54.0834
53.1883
52.5345
52.0175
51.5146
51.1365
50.693
50.338
49.99
49.5123
49.2294
48.8533
48.3722
48.1194
47.7143
47.3389
47.07
46.6684
46.4062
46.1495
45.7276
45.5
45.2877
44.9994
44.791
44.5972
44.3957
44.2678
44.0911
43.8914
43.6831
43.4983
71.5337
69.7646
67.1661
64.1982
61.2884
58.762
56.6937
55.1197
53.9769
53.0967
52.4539
51.951
51.4708
51.0951
50.6743
50.3193
49.9694
49.5265
49.2169
48.8469
48.3948
48.1101
47.7164
47.3474
47.0618
46.688
46.4078
46.1381
45.7462
45.5049
45.2858
45.0085
44.7926
44.5952
44.4035
44.2605
44.0947
43.8859
43.713
43.5402
44.3615
44.4742
44.7057
45.0682
45.3956
45.5418
45.448
45.1176
44.5945
43.9274
43.1587
42.3074
41.3669
40.3304
39.1984
37.9585
36.6026
35.1354
33.5622
31.878
30.0847
28.2143
26.2966
24.3488
22.4212
20.5506
18.7546
17.093
15.5791
14.2048
13.0319
12.1195
11.4806
11.0999
10.969
11.0304
11.2263
11.6741
12.4248
13.2549
14.1303
15.2697
16.6107
18.0712
19.8773
21.8568
23.7512
26.1036
28.8926
31.4243
33.9891
36.9891
40.1307
42.889
44.9396
46.8003
48.8439
50.7157
52.3889
53.9493
55.2904
56.5293
57.774
58.9746
60.1902
61.3298
62.1411
62.7731
63.557
64.4367
65.2255
65.9251
66.5632
67.1337
67.6751
68.1928
68.6102
68.8804
69.0667
69.283
69.5698
69.8639
70.1109
70.3139
70.4786
70.6084
70.7238
70.8506
71.0012
71.1564
71.2645
71.2879
71.2455
71.1958
71.1898
71.2458
71.3515
71.479
71.6001
71.698
71.7702
71.8227
71.8625
71.8948
71.9227
71.9474
71.9695
71.989
72.006
72.021
72.0343
72.0463
72.0573
72.0674
72.0767
72.0852
72.0929
72.0997
72.1058
72.111
72.1155
72.1191
72.122
72.1241
72.1255
72.1263
72.1264
72.1259
72.1249
72.1233
72.1213
72.1189
72.116
72.1128
72.1093
72.1054
72.1013
72.0969
72.0923
72.0875
72.0825
72.0773
72.0719
72.0664
72.0608
72.0551
72.0492
72.0433
72.0373
72.0311
72.0249
72.0187
72.0123
72.0059
71.9995
71.993
71.9864
71.9799
71.9733
71.9666
71.9599
71.9532
71.9464
71.9397
71.9329
71.9261
71.9192
71.9124
71.9055
71.8986
71.8917
71.8848
71.8779
71.871
71.864
71.857
71.8501
71.8431
71.8361
71.8291
71.8221
71.8151
71.8081
71.8011
71.7941
71.7871
71.78
71.773
71.766
71.7589
71.7519
71.7448
71.7378
71.7307
71.7236
71.7166
71.7095
71.7024
71.6954
71.6883
71.6812
71.6742
71.6671
71.66
71.6529
71.6458
71.6387
71.6317
71.6246
71.6175
71.6104
71.6033
71.5962
71.5891
71.582
71.5749
71.5678
71.5607
71.5536
71.5465
71.5394
71.5323
71.5252
71.5181
71.5109
71.5038
71.4967
71.4896
71.4825
71.4753
71.4682
71.4611
71.454
71.4468
71.4397
71.4326
71.4254
71.4183
71.4111
71.404
71.3968
71.3897
71.3825
71.3753
71.3682
71.361
71.3538
71.3466
71.3394
71.3323
71.3251
71.3178
71.3106
71.3034
71.2962
71.2889
71.2817
71.2744
71.2672
71.2599
71.2526
71.2453
71.238
71.2306
71.2233
71.2159
71.2086
71.2012
71.1938
71.1863
71.1789
71.1714
71.1639
71.1564
71.1489
71.1414
71.1338
71.1262
71.1186
71.1111
71.1035
71.0959
71.0883
71.0807
71.0732
71.0658
71.0585
71.0512
71.0441
71.0372
71.0306
71.0242
71.0182
71.0126
71.0075
71.0028
70.999
70.9953
70.9929
70.9899
70.9887
70.9857
70.9856
70.9811
70.9819
70.9744
70.9762
70.9638
70.9674
70.9487
70.9548
70.9287
70.9369
70.9037
70.917
70.8827
70.8961
70.8473
70.8559
70.8076
70.8078
70.7797
70.7783
70.7766
70.7543
70.7637
70.7192
70.7475
70.685
70.7072
70.6505
70.6558
70.64
70.6267
70.6122
70.616
70.5711
70.6039
70.5285
70.5445
70.5057
70.4841
70.4841
70.4452
70.4328
70.4068
70.3773
70.3431
70.3228
70.2802
70.2467
70.2248
70.1625
70.1341
70.093
70.0112
70.0087
69.8949
69.8853
69.7778
69.7449
69.6348
69.5987
69.4669
69.4267
69.2902
69.2271
69.0849
69.0052
68.8525
68.7396
68.5737
68.4271
68.2413
68.0491
67.8428
67.6038
67.3589
67.031
66.7574
66.3038
65.9703
65.4138
64.9439
64.2979
63.6418
62.8607
61.9406
60.9533
59.6645
58.3869
56.6182
54.6214
52.1544
48.9485
45.2409
39.4649
31.6008
20.4776
-2.07751
44.4652
44.5893
44.565
44.6113
44.7115
44.7813
44.7143
44.4794
44.0599
43.4554
42.7185
41.8845
40.9355
39.8914
38.7818
37.5907
36.311
34.9591
33.5257
31.9905
30.3538
28.6474
26.919
25.1687
23.4014
21.7096
20.1313
18.6439
17.3065
16.1751
15.221
14.5054
14.0352
13.6767
13.4588
13.4755
13.6674
14.1102
14.9045
15.8984
16.9883
18.2365
19.75
21.4535
23.2085
25.2427
27.4624
29.6328
32.1766
34.9873
37.5831
39.8768
41.7545
43.5873
45.7233
47.7295
49.4178
51.0074
52.5771
54.116
55.5511
56.856
58.0366
58.9962
59.8706
60.9202
61.9077
62.5741
63.2042
63.9795
64.7064
65.3446
66.016
66.6524
67.1372
67.5254
67.914
68.2892
68.5957
68.8732
69.1832
69.4959
69.7661
69.986
70.148
70.2661
70.3818
70.5182
70.6727
70.8227
70.9236
70.9423
70.9078
70.8946
70.961
71.1067
71.2859
71.45
71.5729
71.6522
71.6983
71.7257
71.7468
71.7688
71.7934
71.8192
71.8442
71.8672
71.8879
71.9067
71.9242
71.9409
71.9568
71.9721
71.9865
72.0001
72.0127
72.0243
72.0348
72.0442
72.0525
72.0598
72.0661
72.0714
72.0757
72.0792
72.0819
72.0838
72.0851
72.0856
72.0856
72.085
72.0839
72.0823
72.0803
72.0779
72.0752
72.0721
72.0687
72.0651
72.0612
72.057
72.0527
72.0481
72.0434
72.0385
72.0335
72.0283
72.023
72.0176
72.0121
72.0064
72.0007
71.9949
71.9889
71.983
71.9769
71.9708
71.9646
71.9584
71.9521
71.9458
71.9394
71.9329
71.9265
71.92
71.9134
71.9069
71.9003
71.8936
71.887
71.8803
71.8736
71.8668
71.8601
71.8533
71.8465
71.8397
71.8329
71.826
71.8192
71.8123
71.8054
71.7985
71.7916
71.7847
71.7778
71.7708
71.7639
71.7569
71.7499
71.743
71.736
71.729
71.722
71.715
71.7079
71.7009
71.6939
71.6869
71.6798
71.6728
71.6658
71.6587
71.6516
71.6446
71.6375
71.6304
71.6234
71.6163
71.6092
71.6021
71.595
71.5879
71.5808
71.5737
71.5666
71.5595
71.5524
71.5452
71.5381
71.531
71.5238
71.5167
71.5096
71.5024
71.4952
71.4881
71.4809
71.4737
71.4666
71.4594
71.4522
71.445
71.4378
71.4306
71.4234
71.4162
71.409
71.4017
71.3945
71.3872
71.38
71.3727
71.3654
71.3581
71.3508
71.3435
71.3362
71.3288
71.3215
71.3141
71.3068
71.2994
71.292
71.2845
71.2771
71.2696
71.2621
71.2546
71.2471
71.2395
71.2319
71.2243
71.2167
71.209
71.2013
71.1936
71.1858
71.178
71.1702
71.1623
71.1543
71.1464
71.1383
71.1303
71.1221
71.114
71.1058
71.0975
71.0892
71.0808
71.0725
71.0641
71.0557
71.0472
71.0389
71.0306
71.0223
71.0143
71.0064
70.9988
70.9917
70.9849
70.9788
70.9732
70.9687
70.9646
70.962
70.9593
70.9584
70.9562
70.9567
70.9532
70.9542
70.9472
70.9488
70.9367
70.9395
70.9234
70.9274
70.9087
70.9039
70.8825
70.8698
70.8493
70.8188
70.8133
70.7802
70.7914
70.7528
70.7515
70.7268
70.688
70.7089
70.6351
70.6995
70.6034
70.6619
70.579
70.5964
70.5382
70.5323
70.499
70.4944
70.4356
70.4507
70.3982
70.4145
70.361
70.3453
70.3119
70.2907
70.2397
70.2404
70.1603
70.1762
70.0907
70.0812
70.0222
69.9746
69.9393
69.8756
69.8371
69.7739
69.7095
69.6568
69.5732
69.5075
69.4282
69.3317
69.2601
69.137
69.0597
68.9293
68.8249
68.6639
68.5628
68.3431
68.2281
67.9903
67.8498
67.5617
67.4058
67.0852
66.8769
66.5493
66.2506
65.8891
65.4999
65.0473
64.5266
64.0052
63.3
62.6695
61.7474
60.9063
59.79
58.5613
57.1237
55.3732
53.5078
50.8353
47.9982
44.1049
39.0502
32.9521
23.2376
11.9308
-3.67081
45.9234
45.5828
44.2905
43.2896
42.8143
42.8143
43.0032
43.0795
42.9652
42.5903
41.9933
41.2578
40.4019
39.4743
38.4867
37.3954
36.2238
34.9636
33.5906
32.1807
30.7433
29.217
27.67
26.1638
24.6571
23.2094
21.8948
20.6919
19.6089
18.6961
17.971
17.4035
17.0013
16.7427
16.613
16.7016
17.0458
17.6298
18.4464
19.4795
20.7522
22.1585
23.622
25.3313
27.1567
28.9551
31.077
33.3135
35.2865
37.2741
39.2796
41.1794
43.0991
44.931
46.6799
48.5604
50.4186
51.8872
53.1172
54.4716
55.7528
56.8552
58.0984
59.2973
60.0902
60.792
61.6735
62.5152
63.2827
64.0497
64.6549
65.1036
65.6333
66.2679
66.8055
67.1895
67.5552
67.9663
68.338
68.6481
68.9501
69.2303
69.4681
69.6725
69.8294
69.9547
70.1059
70.2968
70.4853
70.6257
70.6925
70.6882
70.6607
70.6853
70.8116
71.0252
71.2534
71.4309
71.5416
71.6005
71.6263
71.635
71.64
71.6502
71.6669
71.6884
71.7132
71.7389
71.7638
71.7878
71.8112
71.8339
71.856
71.8772
71.8974
71.9165
71.9342
71.9507
71.9657
71.9793
71.9915
72.0024
72.0121
72.0205
72.0278
72.0339
72.0391
72.0433
72.0467
72.0493
72.0511
72.0523
72.0528
72.0528
72.0523
72.0513
72.0499
72.048
72.0458
72.0433
72.0404
72.0373
72.0339
72.0303
72.0264
72.0224
72.0181
72.0137
72.0091
72.0043
71.9994
71.9944
71.9893
71.984
71.9786
71.9731
71.9676
71.9619
71.9561
71.9503
71.9444
71.9385
71.9324
71.9263
71.9202
71.914
71.9077
71.9014
71.8951
71.8887
71.8823
71.8758
71.8693
71.8628
71.8562
71.8496
71.843
71.8363
71.8297
71.823
71.8163
71.8095
71.8027
71.796
71.7892
71.7823
71.7755
71.7687
71.7618
71.7549
71.748
71.7411
71.7342
71.7273
71.7203
71.7134
71.7064
71.6994
71.6925
71.6855
71.6785
71.6715
71.6644
71.6574
71.6504
71.6433
71.6363
71.6292
71.6222
71.6151
71.608
71.6009
71.5938
71.5867
71.5796
71.5725
71.5654
71.5583
71.5511
71.544
71.5368
71.5297
71.5225
71.5154
71.5082
71.501
71.4938
71.4866
71.4794
71.4722
71.465
71.4577
71.4505
71.4432
71.436
71.4287
71.4214
71.4141
71.4068
71.3995
71.3921
71.3848
71.3774
71.3701
71.3627
71.3553
71.3479
71.3404
71.3329
71.3255
71.318
71.3105
71.3029
71.2954
71.2878
71.2802
71.2725
71.2648
71.2571
71.2494
71.2416
71.2338
71.226
71.2181
71.2102
71.2022
71.1942
71.1861
71.178
71.1698
71.1615
71.1532
71.1449
71.1364
71.1279
71.1193
71.1106
71.1019
71.093
71.0841
71.075
71.0659
71.0567
71.0474
71.038
71.0286
71.0191
71.0096
71.0002
70.9908
70.9815
70.9725
70.9638
70.9556
70.948
70.9416
70.9356
70.9318
70.9278
70.9277
70.925
70.9289
70.925
70.9325
70.9238
70.9349
70.9169
70.9322
70.9009
70.9211
70.8766
70.9041
70.8301
70.835
70.7823
70.7879
70.7595
70.7525
70.725
70.7013
70.6809
70.6478
70.6312
70.5973
70.5741
70.5707
70.508
70.5375
70.4509
70.4857
70.4245
70.4194
70.4066
70.3601
70.367
70.3197
70.2712
70.2652
70.1972
70.2096
70.1527
70.1329
70.0946
70.0651
69.9922
69.982
69.8914
69.8728
69.8052
69.7649
69.6783
69.6692
69.5211
69.5402
69.3882
69.3702
69.2531
69.1937
69.0835
69.0105
68.8821
68.8004
68.6604
68.5473
68.3982
68.2637
68.1093
67.9472
67.7669
67.5868
67.3862
67.1361
66.9317
66.6129
66.3863
65.9691
65.7175
65.2048
64.8675
64.2941
63.8227
63.2208
62.5566
61.8213
60.9615
60.0894
58.8748
57.823
56.1544
54.6632
52.6989
50.3474
47.6604
43.908
40.3422
34.4036
28.4239
20.0004
10.6834
0.906665
47.9867
47.9015
45.7745
43.8828
42.612
41.9685
41.7666
41.7355
41.6697
41.4515
41.0419
40.4956
39.8525
39.1132
38.2942
37.381
36.3428
35.1907
33.9748
32.7227
31.4288
30.1505
28.8976
27.6266
26.4142
25.2555
24.1664
23.2271
22.3877
21.6729
21.1638
20.7825
20.4701
20.3276
20.4016
20.5858
20.9437
21.5863
22.4218
23.4205
24.6327
26.0889
27.6158
29.039
30.6138
32.2843
33.7704
35.4336
37.335
39.0433
40.7062
42.5305
44.3099
46.0083
47.5593
48.8525
50.249
51.8797
53.3534
54.7167
56.0582
57.104
58.0051
59.0886
60.1726
61.0314
61.7009
62.2886
62.9915
63.862
64.5945
65.0447
65.4806
66.0514
66.5761
66.9469
67.3019
67.7453
68.1875
68.536
68.8023
69.0145
69.2069
69.3954
69.5468
69.6712
69.8416
70.083
70.3304
70.5044
70.5913
70.6452
70.7164
70.8079
70.8859
70.9427
71.0261
71.1717
71.341
71.4636
71.5156
71.5258
71.5233
71.5262
71.5381
71.5555
71.5822
71.6116
71.6412
71.6708
71.7005
71.7298
71.7584
71.7859
71.8121
71.8368
71.8598
71.881
71.9004
71.9181
71.934
71.9483
71.9611
71.9724
71.9823
71.991
71.9985
72.0048
72.0102
72.0146
72.0182
72.021
72.0231
72.0246
72.0254
72.0257
72.0255
72.0248
72.0237
72.0223
72.0204
72.0182
72.0158
72.013
72.01
72.0067
72.0032
71.9995
71.9956
71.9915
71.9872
71.9827
71.9781
71.9734
71.9685
71.9635
71.9584
71.9532
71.9479
71.9425
71.9369
71.9313
71.9256
71.9199
71.914
71.9081
71.9021
71.8961
71.89
71.8839
71.8777
71.8714
71.8651
71.8588
71.8524
71.846
71.8395
71.8331
71.8265
71.82
71.8134
71.8068
71.8001
71.7935
71.7868
71.7801
71.7733
71.7666
71.7598
71.753
71.7462
71.7393
71.7325
71.7256
71.7187
71.7118
71.7049
71.698
71.691
71.6841
71.6771
71.6702
71.6632
71.6562
71.6492
71.6421
71.6351
71.6281
71.621
71.6139
71.6069
71.5998
71.5927
71.5856
71.5785
71.5714
71.5642
71.5571
71.5499
71.5428
71.5356
71.5284
71.5212
71.514
71.5068
71.4996
71.4924
71.4851
71.4779
71.4706
71.4634
71.4561
71.4488
71.4415
71.4341
71.4268
71.4194
71.4121
71.4047
71.3973
71.3898
71.3824
71.375
71.3675
71.36
71.3525
71.3449
71.3374
71.3298
71.3222
71.3145
71.3069
71.2992
71.2914
71.2837
71.2759
71.268
71.2602
71.2522
71.2443
71.2363
71.2282
71.2201
71.212
71.2038
71.1955
71.1872
71.1788
71.1703
71.1617
71.1531
71.1444
71.1356
71.1267
71.1177
71.1086
71.0993
71.09
71.0805
71.0709
71.0611
71.0512
71.0412
71.031
71.0206
71.0101
70.9995
70.9886
70.9778
70.9668
70.9561
70.945
70.9348
70.9242
70.9153
70.9062
70.8998
70.8936
70.8914
70.8895
70.8921
70.8943
70.9003
70.9034
70.9093
70.9077
70.9109
70.8993
70.9
70.8705
70.867
70.8114
70.8383
70.7771
70.7962
70.7222
70.7351
70.6755
70.6699
70.6384
70.6084
70.6043
70.5454
70.5713
70.4819
70.5122
70.4276
70.4374
70.3965
70.3696
70.3497
70.3284
70.2652
70.2704
70.1964
70.2037
70.1616
70.1198
70.0901
70.0617
69.9881
69.9783
69.899
69.8721
69.8336
69.7654
69.7381
69.6585
69.6095
69.538
69.4791
69.3953
69.3307
69.2326
69.1597
69.0449
68.9785
68.819
68.7681
68.5776
68.5154
68.3049
68.2251
67.9939
67.9052
67.6317
67.5348
67.2501
67.1111
66.8298
66.6456
66.3368
66.1019
65.7739
65.4527
65.0788
64.6735
64.242
63.7009
63.267
62.5219
62.0453
61.0859
60.4346
59.3631
58.3783
57.18
55.7951
54.3191
52.242
50.6375
47.5131
45.1837
41.0438
37.2365
32.218
26.4016
20.0917
12.902
5.891
42.5911
42.5319
43.3457
43.713
43.5585
43.0282
42.4079
41.7702
41.1379
40.6915
40.3191
39.9034
39.4622
38.9351
38.2747
37.5525
36.7188
35.7204
34.7048
33.6286
32.4525
31.36
30.2706
29.1854
28.223
27.2672
26.4505
25.7988
25.1301
24.63
24.2906
23.9958
23.869
23.8242
23.8813
24.1772
24.6301
25.2338
26.0094
26.9872
28.114
29.2208
30.4709
31.8259
32.9633
34.205
35.7264
37.134
38.6244
40.4658
42.2288
43.7196
45.1164
46.4848
48.0232
49.7431
51.2771
52.5191
53.6371
54.7154
55.7946
56.8601
57.9012
58.9163
59.8332
60.6749
61.5302
62.314
62.9769
63.6491
64.2987
64.7854
65.2422
65.8379
66.411
66.7546
66.9877
67.3501
67.8443
68.2951
68.5966
68.7768
68.937
69.1358
69.3344
69.5033
69.6823
69.8936
70.1039
70.281
70.4192
70.5295
70.6339
70.741
70.8233
70.8445
70.8172
70.7947
70.8259
70.9231
71.0636
71.2216
71.3097
71.3464
71.3448
71.3192
71.3602
71.4115
71.4628
71.5144
71.5641
71.6102
71.6521
71.69
71.7247
71.7565
71.7857
71.8125
71.8369
71.8591
71.8791
71.8971
71.9131
71.9273
71.9399
71.9509
71.9605
71.9689
71.9761
71.9822
71.9873
71.9916
71.9951
71.9978
71.9999
72.0014
72.0023
72.0027
72.0026
72.0021
72.0012
72
71.9983
71.9964
71.9941
71.9916
71.9888
71.9858
71.9825
71.979
71.9753
71.9715
71.9674
71.9632
71.9588
71.9543
71.9496
71.9448
71.9399
71.9348
71.9297
71.9244
71.919
71.9136
71.9081
71.9024
71.8967
71.891
71.8851
71.8792
71.8732
71.8672
71.8611
71.8549
71.8487
71.8425
71.8362
71.8299
71.8235
71.8171
71.8106
71.8041
71.7976
71.791
71.7844
71.7778
71.7712
71.7645
71.7578
71.7511
71.7444
71.7376
71.7308
71.724
71.7172
71.7103
71.7034
71.6966
71.6897
71.6827
71.6758
71.6689
71.6619
71.6549
71.6479
71.6409
71.6339
71.6269
71.6199
71.6128
71.6057
71.5986
71.5916
71.5845
71.5773
71.5702
71.5631
71.5559
71.5488
71.5416
71.5344
71.5272
71.52
71.5128
71.5055
71.4983
71.491
71.4837
71.4764
71.4691
71.4618
71.4545
71.4471
71.4397
71.4323
71.4249
71.4175
71.4101
71.4026
71.3951
71.3876
71.3801
71.3725
71.365
71.3573
71.3497
71.3421
71.3344
71.3267
71.3189
71.3111
71.3033
71.2955
71.2876
71.2797
71.2717
71.2637
71.2556
71.2475
71.2393
71.2311
71.2228
71.2144
71.206
71.1975
71.189
71.1803
71.1716
71.1628
71.1539
71.1449
71.1358
71.1266
71.1172
71.1077
71.0981
71.0883
71.0784
71.0683
71.0581
71.0476
71.0369
71.026
71.0149
71.0036
70.9919
70.9802
70.9679
70.9557
70.9428
70.9304
70.9169
70.9048
70.8909
70.8801
70.8667
70.8595
70.8485
70.8484
70.8425
70.8533
70.8539
70.8763
70.879
70.9071
70.9014
70.9227
70.901
70.9096
70.8747
70.8615
70.8138
70.7763
70.7559
70.7008
70.7071
70.6496
70.6551
70.6095
70.5765
70.5668
70.4907
70.5184
70.4283
70.4763
70.3765
70.4017
70.316
70.3183
70.2629
70.2321
70.2036
70.1793
70.1195
70.1179
70.0116
70.0357
69.9339
69.9233
69.866
69.8493
69.766
69.7517
69.6391
69.6296
69.5341
69.5072
69.409
69.3833
69.2457
69.2258
69.0958
69.0273
68.9374
68.8309
68.7233
68.6176
68.4782
68.3701
68.2267
68.0827
67.9543
67.7853
67.6262
67.4193
67.2621
67.0097
66.8293
66.5103
66.3484
65.9778
65.7929
65.3072
65.0948
64.556
64.2661
63.6624
63.2709
62.6659
62.1105
61.442
60.702
59.891
58.8529
58.0676
56.5281
55.6877
53.6459
52.52
50.0594
48.2798
45.4327
42.5584
39.215
35.3507
31.3147
26.3963
21.5664
16.0695
10.3711
49.5679
49.2831
46.1333
43.2896
41.2924
40.1132
39.6402
39.6043
39.7301
39.8602
39.8696
39.6983
39.4178
39.0169
38.4506
37.829
37.0864
36.2159
35.3468
34.3985
33.4148
32.5074
31.5602
30.6615
29.9126
29.198
28.5682
28.0715
27.647
27.313
27.0649
26.8854
26.7962
26.8341
26.9959
27.2072
27.5553
28.1309
28.8063
29.5905
30.5679
31.6183
32.5896
33.5669
34.7762
36.063
37.2778
38.7764
40.4585
41.8579
43.1648
44.6521
46.1524
47.5417
48.789
49.9776
51.3053
52.6643
53.8041
54.864
56.0092
57.0125
57.8259
58.7398
59.7089
60.4696
61.1302
61.8708
62.6135
63.3302
64.0617
64.6585
65.04
65.4162
65.9357
66.4708
66.8815
67.184
67.4616
67.7731
68.1062
68.4017
68.654
68.9056
69.1397
69.3286
69.5098
69.701
69.8623
69.9843
70.0944
70.2117
70.3587
70.5303
70.6498
70.657
70.5837
70.5202
70.532
70.6225
70.7493
70.8584
70.9817
71.0836
71.1734
71.2683
71.3113
71.3856
71.4247
71.4647
71.5079
71.5498
71.5891
71.6267
71.6626
71.6964
71.7279
71.7569
71.7836
71.8081
71.8304
71.8507
71.8691
71.8856
71.9004
71.9134
71.925
71.9351
71.944
71.9517
71.9583
71.9639
71.9686
71.9726
71.9758
71.9784
71.9804
71.9818
71.9826
71.9831
71.983
71.9826
71.9817
71.9806
71.979
71.9772
71.9751
71.9727
71.97
71.9671
71.964
71.9607
71.9571
71.9534
71.9495
71.9454
71.9411
71.9367
71.9322
71.9275
71.9227
71.9178
71.9127
71.9076
71.9023
71.897
71.8915
71.886
71.8804
71.8747
71.8689
71.8631
71.8572
71.8512
71.8452
71.8391
71.833
71.8268
71.8205
71.8143
71.8079
71.8016
71.7951
71.7887
71.7822
71.7757
71.7691
71.7625
71.7559
71.7493
71.7426
71.7359
71.7292
71.7224
71.7156
71.7088
71.702
71.6952
71.6883
71.6814
71.6746
71.6676
71.6607
71.6537
71.6468
71.6398
71.6328
71.6258
71.6187
71.6117
71.6046
71.5976
71.5905
71.5834
71.5762
71.5691
71.562
71.5548
71.5476
71.5404
71.5332
71.526
71.5188
71.5115
71.5042
71.4969
71.4896
71.4823
71.475
71.4676
71.4603
71.4529
71.4455
71.438
71.4306
71.4231
71.4156
71.4081
71.4006
71.393
71.3854
71.3778
71.3702
71.3625
71.3548
71.3471
71.3393
71.3315
71.3237
71.3158
71.3079
71.2999
71.2919
71.2839
71.2758
71.2676
71.2594
71.2512
71.2428
71.2345
71.226
71.2175
71.2089
71.2003
71.1915
71.1827
71.1737
71.1647
71.1556
71.1463
71.137
71.1275
71.1179
71.1081
71.0982
71.0881
71.0778
71.0673
71.0567
71.0458
71.0346
71.0232
71.0115
70.9995
70.9873
70.9745
70.9616
70.9478
70.9343
70.9194
70.9053
70.8889
70.8745
70.8564
70.8427
70.8235
70.8124
70.7949
70.7911
70.7821
70.7924
70.8037
70.831
70.8714
70.8985
70.9519
70.9366
70.9704
70.9003
70.9177
70.8285
70.8471
70.7355
70.7308
70.6394
70.6187
70.5679
70.5261
70.5216
70.4574
70.4754
70.4031
70.4055
70.3493
70.3117
70.2978
70.2466
70.2446
70.2064
70.1628
70.148
70.0742
70.0486
70.0109
69.9574
69.9332
69.8869
69.8317
69.7855
69.7162
69.6432
69.63
69.5334
69.5196
69.4333
69.3719
69.2678
69.2324
69.0989
69.077
68.9229
68.8689
68.701
68.6671
68.4514
68.4389
68.1933
68.1535
67.9188
67.8581
67.5703
67.5326
67.2076
67.1305
66.8234
66.6664
66.3694
66.1729
65.8524
65.5878
65.2805
64.9476
64.5746
64.1899
63.7962
63.277
62.9268
62.1879
61.8541
60.8766
60.5675
59.3003
58.8417
57.342
56.6158
54.9583
53.8586
52.0791
50.3992
48.4363
46.2394
43.9189
41.0101
38.2369
34.8218
31.4875
27.5688
23.5015
19.0744
14.3036
50.0726
49.3539
45.4847
41.958
39.6083
38.4356
38.2504
38.6388
39.1579
39.5791
39.8135
39.8138
39.6602
39.3061
38.7797
38.1936
37.4915
36.709
35.9585
35.1418
34.3002
33.5494
32.7912
32.0855
31.5048
30.9369
30.4853
30.1845
29.866
29.5863
29.4121
29.3087
29.2579
29.2527
29.3894
29.6263
29.913
30.3924
31.0121
31.7182
32.5426
33.4125
34.4269
35.5315
36.5674
37.7566
39.0719
40.2745
41.5331
42.921
44.2227
45.381
46.5234
47.7872
49.1225
50.327
51.4247
52.5776
53.7311
54.7971
55.8835
57.0022
57.9861
58.8184
59.5987
60.3764
61.1745
61.919
62.4703
62.9284
63.5229
64.2123
64.8039
65.2831
65.7456
66.1927
66.5773
66.9171
67.2502
67.5675
67.8499
68.1052
68.3564
68.619
68.88
69.1203
69.3304
69.4962
69.6145
69.7043
69.7922
69.911
70.0823
70.266
70.3825
70.4256
70.4443
70.4871
70.5597
70.6477
70.7401
70.8309
70.9205
70.9969
71.0514
71.0804
71.123
71.1461
71.2166
71.2534
71.3263
71.3982
71.4591
71.5142
71.5652
71.6124
71.6557
71.6949
71.7299
71.7609
71.7882
71.8123
71.8335
71.8521
71.8685
71.8829
71.8955
71.9066
71.9164
71.925
71.9325
71.939
71.9447
71.9496
71.9537
71.9571
71.96
71.9622
71.9639
71.9651
71.9659
71.9662
71.9661
71.9656
71.9648
71.9636
71.9621
71.9603
71.9582
71.9559
71.9532
71.9504
71.9473
71.9441
71.9406
71.9369
71.9331
71.929
71.9249
71.9205
71.916
71.9114
71.9067
71.9018
71.8968
71.8917
71.8865
71.8813
71.8759
71.8704
71.8648
71.8592
71.8535
71.8477
71.8418
71.8359
71.8299
71.8238
71.8177
71.8116
71.8054
71.7991
71.7928
71.7864
71.7801
71.7736
71.7672
71.7606
71.7541
71.7475
71.7409
71.7343
71.7276
71.7209
71.7142
71.7074
71.7007
71.6939
71.687
71.6802
71.6733
71.6664
71.6595
71.6526
71.6457
71.6387
71.6317
71.6247
71.6177
71.6106
71.6036
71.5965
71.5894
71.5823
71.5752
71.568
71.5609
71.5537
71.5465
71.5393
71.5321
71.5248
71.5176
71.5103
71.503
71.4957
71.4883
71.481
71.4736
71.4662
71.4588
71.4514
71.4439
71.4364
71.4289
71.4214
71.4138
71.4062
71.3986
71.391
71.3833
71.3756
71.3679
71.3601
71.3523
71.3445
71.3366
71.3287
71.3207
71.3127
71.3047
71.2966
71.2885
71.2803
71.272
71.2637
71.2553
71.2469
71.2384
71.2298
71.2212
71.2124
71.2036
71.1947
71.1857
71.1766
71.1674
71.1581
71.1487
71.1391
71.1294
71.1196
71.1096
71.0994
71.0891
71.0785
71.0678
71.0568
71.0456
71.0341
71.0224
71.0103
70.9979
70.985
70.9719
70.958
70.9442
70.9289
70.9143
70.8971
70.8818
70.8617
70.846
70.8216
70.8062
70.7759
70.7623
70.7259
70.7193
70.6824
70.6973
70.6783
70.7386
70.7603
70.8748
70.9335
71.0583
71.0884
71.1254
71.0734
71.018
70.9126
70.8161
70.752
70.6502
70.6479
70.5315
70.5528
70.4571
70.4786
70.3792
70.3686
70.3005
70.2934
70.2208
70.2295
70.1621
70.1478
70.1249
70.0634
70.0456
70.0141
69.9153
69.9364
69.8079
69.7893
69.7497
69.6984
69.6717
69.6257
69.4944
69.4815
69.3519
69.3034
69.2736
69.1758
69.0838
69.0379
68.8979
68.8083
68.7406
68.6122
68.4916
68.3697
68.2489
68.1121
67.9504
67.8236
67.6759
67.448
67.3261
67.0823
66.9195
66.6353
66.4723
66.1028
65.9883
65.5176
65.3863
64.8068
64.6978
64.0249
63.9193
63.1154
62.9866
62.1469
61.9427
60.9759
60.6222
59.6047
59.0026
57.9484
57.0354
55.9284
54.7533
53.4697
52.1056
50.656
48.8418
47.2085
45.0339
43.0101
40.472
37.9972
35.1321
32.1503
28.8547
25.2982
21.5151
17.4964
50.0236
49.4732
45.6672
42.0959
39.6624
38.38
38.1131
38.4665
39.0175
39.5186
39.8347
39.9458
39.8776
39.5878
39.1359
38.5901
37.9293
37.2393
36.5543
35.8331
35.1743
34.5513
33.9144
33.4029
32.9619
32.5355
32.2356
31.9655
31.6937
31.5284
31.3846
31.2491
31.2159
31.2694
31.3802
31.5612
31.8945
32.3756
32.9267
33.6349
34.4416
35.2164
36.1163
37.1157
38.0587
39.08
40.2049
41.2725
42.2611
43.3119
44.5929
45.9984
47.239
48.2879
49.2863
50.4244
51.7708
53.0388
54.0605
55.0275
55.9557
56.7059
57.4597
58.4079
59.3533
60.0732
60.7336
61.5459
62.3608
63.0007
63.5643
64.1264
64.6205
65.0484
65.4878
65.9431
66.3593
66.7342
67.1118
67.468
67.7578
68.0185
68.2964
68.5632
68.7854
68.9734
69.1394
69.2866
69.438
69.6113
69.7813
69.9183