/*--------------------------------*- C++ -*----------------------------------*\
| =========                 |                                                 |
| \\      /  F ield         | OpenFOAM: The Open Source CFD Toolbox           |
|  \\    /   O peration     | Version:  2.4.0                                 |
|   \\  /    A nd           | Web:      www.OpenFOAM.org                      |
|    \\/     M anipulation  |                                                 |
\*---------------------------------------------------------------------------*/
FoamFile
{
    version     2.0;
    format      ascii;
    class       volSymmTensorField;
    location    "0.025";
    object      UPrime2Mean;
}
// * * * * * * * * * * * * * * * * * * * * * * * * * * * * * * * * * * * * * //

dimensions      [0 2 -2 0 0 0 0];

internalField   nonuniform List<symmTensor> 
17600
(
(0.109193 0.00553091 0 0.000591651 0 0)
(0.00986297 -0.00242932 0 0.00778033 0 0)
(0.18567 -0.0432044 0 0.0124164 0 0)
(0.545606 -0.0692835 0 0.00972389 0 0)
(1.00739 -0.0706551 0 0.00528596 0 0)
(1.55194 -0.0555791 0 0.0021536 0 0)
(2.12767 -0.0329541 0 0.000632141 0 0)
(2.65463 -0.00973465 0 0.000112758 0 0)
(3.09539 0.00866916 0 7.11245e-05 0 0)
(3.40944 0.0200406 0 0.000172769 0 0)
(3.64609 0.0240632 0 0.000247858 0 0)
(3.78189 0.0232054 0 0.000249317 0 0)
(3.89886 0.0196959 0 0.000195575 0 0)
(3.94166 0.0159181 0 0.000149103 0 0)
(4.01142 0.0115486 0 8.70413e-05 0 0)
(4.01222 0.00844608 0 6.63249e-05 0 0)
(4.072 0.00503274 0 3.7376e-05 0 0)
(4.05405 0.00327399 0 1.73145e-05 0 0)
(4.12004 0.00116895 0 1.04439e-05 0 0)
(4.09003 0.000531218 0 9.60649e-06 0 0)
(4.16386 -0.000522928 0 8.55051e-06 0 0)
(4.12257 -0.000320863 0 1.38372e-05 0 0)
(4.20133 -0.000761437 0 1.77511e-05 0 0)
(4.14921 -0.00135488 0 1.66162e-05 0 0)
(4.22936 -0.000625443 0 2.09959e-05 0 0)
(4.17473 -0.0013555 0 2.39184e-05 0 0)
(4.24733 -0.00114649 0 3.7743e-05 0 0)
(4.21111 -0.0013034 0 4.17727e-05 0 0)
(4.25416 -0.00217686 0 8.79942e-05 0 0)
(4.26198 -0.00117671 0 9.00792e-05 0 0)
(4.26616 -0.00621376 0 0.000221539 0 0)
(4.33346 0.000248124 0 0.000255723 0 0)
(4.36634 -0.0192651 0 0.000702189 0 0)
(4.3875 0.0126586 0 0.00131785 0 0)
(4.78635 -0.0817224 0 0.00449608 0 0)
(4.38847 0.0878377 0 0.0118879 0 0)
(5.99071 -0.364709 0 0.0379991 0 0)
(4.78229 0.372839 0 0.0832288 0 0)
(9.07489 -1.47774 0 0.28408 0 0)
(8.77027 0.567811 0 0.0994414 0 0)
(0.111244 0.00925724 0 0.00122281 0 0)
(0.0196623 0.0139938 0 0.010277 0 0)
(0.00158798 0.00478952 0 0.0246745 0 0)
(0.00335572 -0.00557553 0 0.0352278 0 0)
(0.0124026 -0.0157847 0 0.0381605 0 0)
(0.024585 -0.0266664 0 0.0351074 0 0)
(0.0607933 -0.0421978 0 0.0302515 0 0)
(0.121851 -0.0528044 0 0.0239096 0 0)
(0.230895 -0.0605516 0 0.0180536 0 0)
(0.3434 -0.0566802 0 0.0120853 0 0)
(0.499978 -0.052094 0 0.00784984 0 0)
(0.619228 -0.0410842 0 0.00454358 0 0)
(0.794022 -0.0354951 0 0.00278015 0 0)
(0.887214 -0.0251169 0 0.00145995 0 0)
(1.06822 -0.0228895 0 0.000952045 0 0)
(1.11725 -0.0147992 0 0.000542148 0 0)
(1.29907 -0.0148822 0 0.000418877 0 0)
(1.30351 -0.00967068 0 0.000433163 0 0)
(1.48017 -0.0113967 0 0.000291377 0 0)
(1.46098 -0.00680538 0 0.000288642 0 0)
(1.61465 -0.0105266 0 0.000255853 0 0)
(1.59181 -0.0044767 0 0.000237682 0 0)
(1.70715 -0.00810731 0 0.000209843 0 0)
(1.70704 -0.0042101 0 0.000335006 0 0)
(1.75331 -0.00506733 0 0.000309151 0 0)
(1.81272 -0.00611905 0 0.000513591 0 0)
(1.76798 -0.00210559 0 0.000548282 0 0)
(1.91543 -0.0138507 0 0.00099928 0 0)
(1.76428 0.00966269 0 0.00129188 0 0)
(1.99962 -0.0331646 0 0.00235262 0 0)
(1.77229 0.0261555 0 0.00329232 0 0)
(2.06875 -0.0697024 0 0.00608657 0 0)
(1.85297 0.0491404 0 0.00816917 0 0)
(2.14154 -0.128502 0 0.015376 0 0)
(2.0686 0.0698366 0 0.018002 0 0)
(2.33966 -0.22808 0 0.039008 0 0)
(2.53728 0.0439369 0 0.030546 0 0)
(2.97985 -0.4628 0 0.116778 0 0)
(3.56295 -0.263274 0 0.0398404 0 0)
(4.24858 -1.3786 0 0.803731 0 0)
(0.110592 0.0066134 0 0.000615185 0 0)
(0.0200968 0.0112523 0 0.0066598 0 0)
(0.00393463 0.00730542 0 0.0181469 0 0)
(0.00750171 0.0118634 0 0.0293588 0 0)
(0.0235941 0.0208764 0 0.0342749 0 0)
(0.0475788 0.0339224 0 0.0337657 0 0)
(0.0576201 0.035518 0 0.0305681 0 0)
(0.0653002 0.0359785 0 0.0265551 0 0)
(0.0542977 0.0257874 0 0.0224267 0 0)
(0.0530071 0.0204596 0 0.0179506 0 0)
(0.0390421 0.00953975 0 0.0135411 0 0)
(0.0366609 0.00731169 0 0.0101329 0 0)
(0.0299659 -0.000428231 0 0.00741875 0 0)
(0.0278961 -0.000134812 0 0.00524693 0 0)
(0.0342668 -0.00591141 0 0.00458858 0 0)
(0.0321428 -0.00465776 0 0.00338924 0 0)
(0.0516 -0.00941919 0 0.00352287 0 0)
(0.0481916 -0.00679963 0 0.00209278 0 0)
(0.076345 -0.0104429 0 0.00265413 0 0)
(0.0760329 -0.0074344 0 0.00186622 0 0)
(0.104312 -0.0114012 0 0.00208999 0 0)
(0.109823 -0.00664266 0 0.00129377 0 0)
(0.133259 -0.0113675 0 0.00169594 0 0)
(0.148026 -0.00566927 0 0.00111032 0 0)
(0.156268 -0.0104502 0 0.00141797 0 0)
(0.187971 -0.00343052 0 0.0011134 0 0)
(0.176411 -0.0115015 0 0.00158794 0 0)
(0.22702 -0.00163501 0 0.00134165 0 0)
(0.192623 -0.00995523 0 0.00144469 0 0)
(0.25964 -0.000262215 0 0.00160999 0 0)
(0.204501 -0.0111288 0 0.00198923 0 0)
(0.289873 -0.00156803 0 0.00228072 0 0)
(0.22618 -0.0144475 0 0.0035339 0 0)
(0.320689 -0.00793825 0 0.00387138 0 0)
(0.263734 -0.0214202 0 0.00844177 0 0)
(0.378004 -0.0285756 0 0.00823213 0 0)
(0.350715 -0.0563643 0 0.0316243 0 0)
(0.520165 -0.115108 0 0.0389545 0 0)
(0.552498 -0.229373 0 0.197191 0 0)
(0.735919 -0.506771 0 0.596428 0 0)
(0.110623 0.00520886 0 0.00039525 0 0)
(0.0199443 0.00827845 0 0.00374093 0 0)
(0.00341616 0.00450397 0 0.0112636 0 0)
(0.00532262 0.00738201 0 0.0180205 0 0)
(0.0195346 0.0154614 0 0.0228424 0 0)
(0.0492646 0.0285605 0 0.0215813 0 0)
(0.0757857 0.0357466 0 0.0210829 0 0)
(0.110042 0.0404529 0 0.0168083 0 0)
(0.124553 0.0403788 0 0.0164992 0 0)
(0.152808 0.0373037 0 0.0124733 0 0)
(0.155711 0.0342556 0 0.0124144 0 0)
(0.178256 0.0292504 0 0.00816877 0 0)
(0.172716 0.0271827 0 0.00838795 0 0)
(0.190102 0.0217395 0 0.00480038 0 0)
(0.178394 0.0223507 0 0.00568094 0 0)
(0.193651 0.015762 0 0.00347731 0 0)
(0.178503 0.0179541 0 0.00424428 0 0)
(0.19327 0.0115311 0 0.0035212 0 0)
(0.177608 0.0151074 0 0.00294661 0 0)
(0.19052 0.00775725 0 0.00319962 0 0)
(0.174221 0.0129596 0 0.00273341 0 0)
(0.18641 0.00498548 0 0.00235952 0 0)
(0.170107 0.00987949 0 0.00237163 0 0)
(0.179867 0.00309057 0 0.00249578 0 0)
(0.166276 0.0075284 0 0.00190055 0 0)
(0.173283 0.00165426 0 0.00241752 0 0)
(0.161711 0.00631093 0 0.00227749 0 0)
(0.165482 0.00130144 0 0.00280836 0 0)
(0.154886 0.00390306 0 0.00220078 0 0)
(0.156731 0.00279949 0 0.00319864 0 0)
(0.146399 0.00405182 0 0.00299639 0 0)
(0.143533 0.00664715 0 0.00410646 0 0)
(0.129444 0.00674154 0 0.004511 0 0)
(0.120999 0.0142514 0 0.00618696 0 0)
(0.0991249 0.0153446 0 0.00784302 0 0)
(0.0816934 0.0263546 0 0.0156446 0 0)
(0.052598 0.0311763 0 0.0265043 0 0)
(0.0348109 0.0375233 0 0.0644187 0 0)
(0.019932 0.0439019 0 0.163852 0 0)
(0.0205105 0.0575602 0 0.35731 0 0)
(0.111238 0.00392213 0 0.000366672 0 0)
(0.0182644 0.00596519 0 0.0024174 0 0)
(0.00342219 0.00296303 0 0.00671761 0 0)
(0.0031323 0.00363288 0 0.0111265 0 0)
(0.0140371 0.0101481 0 0.0144312 0 0)
(0.0355166 0.0188838 0 0.0140986 0 0)
(0.0610868 0.0259849 0 0.0137172 0 0)
(0.088136 0.0293084 0 0.0110623 0 0)
(0.111756 0.0312586 0 0.0105146 0 0)
(0.135542 0.0295581 0 0.008426 0 0)
(0.15426 0.0288612 0 0.00801789 0 0)
(0.174012 0.0253891 0 0.00609973 0 0)
(0.188525 0.024277 0 0.00572213 0 0)
(0.204094 0.0206869 0 0.0033429 0 0)
(0.214682 0.0205719 0 0.00406097 0 0)
(0.229493 0.0173531 0 0.00249043 0 0)
(0.234819 0.0177609 0 0.00343899 0 0)
(0.251442 0.0149892 0 0.00207154 0 0)
(0.253988 0.0159742 0 0.00261058 0 0)
(0.26943 0.0123183 0 0.0021728 0 0)
(0.269033 0.0147711 0 0.00223849 0 0)
(0.287016 0.00988939 0 0.00170924 0 0)
(0.279604 0.0120478 0 0.00184325 0 0)
(0.298379 0.0088158 0 0.00206395 0 0)
(0.289736 0.00939361 0 0.00131553 0 0)
(0.305861 0.00758897 0 0.0015426 0 0)
(0.294427 0.00875638 0 0.00177763 0 0)
(0.307525 0.00700931 0 0.00154622 0 0)
(0.291452 0.0061592 0 0.00125978 0 0)
(0.304836 0.00823144 0 0.00161017 0 0)
(0.286075 0.00940474 0 0.00144309 0 0)
(0.291186 0.0134204 0 0.00199104 0 0)
(0.26408 0.0176142 0 0.00242297 0 0)
(0.264488 0.0258767 0 0.0038905 0 0)
(0.226936 0.0355015 0 0.00647443 0 0)
(0.214619 0.0550128 0 0.0156611 0 0)
(0.164516 0.0715469 0 0.0333001 0 0)
(0.143228 0.106606 0 0.0862906 0 0)
(0.109522 0.132624 0 0.184691 0 0)
(0.162947 0.24863 0 0.434724 0 0)
(0.111536 0.00313279 0 0.000159429 0 0)
(0.0179143 0.00443674 0 0.0012278 0 0)
(0.00369582 0.00204232 0 0.00386934 0 0)
(0.00259634 0.00194944 0 0.00650628 0 0)
(0.0108564 0.00667669 0 0.0089638 0 0)
(0.027296 0.0129295 0 0.00905563 0 0)
(0.0485742 0.0186845 0 0.00888942 0 0)
(0.0707027 0.0212577 0 0.00722703 0 0)
(0.0923283 0.0229547 0 0.00658388 0 0)
(0.11298 0.022073 0 0.00536834 0 0)
(0.131166 0.0212543 0 0.00483812 0 0)
(0.148564 0.0198313 0 0.00413252 0 0)
(0.163813 0.0176389 0 0.00321395 0 0)
(0.178015 0.016932 0 0.00329756 0 0)
(0.190647 0.0145846 0 0.00162652 0 0)
(0.203952 0.015594 0 0.00255331 0 0)
(0.212688 0.0109655 0 0.000988848 0 0)
(0.227426 0.0158827 0 0.00308787 0 0)
(0.23496 0.00819808 0 0.000991924 0 0)
(0.246872 0.0158093 0 0.00253217 0 0)
(0.252824 0.00561306 0 0.000815752 0 0)
(0.267155 0.0153975 0 0.00232141 0 0)
(0.26735 0.00254274 0 0.000680749 0 0)
(0.28183 0.0160091 0 0.00273678 0 0)
(0.282238 -0.000554361 0 0.000814517 0 0)
(0.293279 0.0166296 0 0.00215306 0 0)
(0.290484 -0.00127684 0 0.0013252 0 0)
(0.298322 0.0170507 0 0.00223065 0 0)
(0.291027 -0.0031744 0 0.00115594 0 0)
(0.300694 0.0195247 0 0.00253493 0 0)
(0.290914 0.000887402 0 0.00130504 0 0)
(0.291292 0.0256711 0 0.00347292 0 0)
(0.273841 0.0108897 0 0.00190035 0 0)
(0.271797 0.0391726 0 0.00707271 0 0)
(0.247298 0.0331723 0 0.0056762 0 0)
(0.23774 0.0716042 0 0.0235701 0 0)
(0.210986 0.0834378 0 0.0349079 0 0)
(0.207817 0.147668 0 0.110773 0 0)
(0.203395 0.199743 0 0.207812 0 0)
(0.219565 0.310895 0 0.470081 0 0)
(0.11166 0.00236072 0 0.000196735 0 0)
(0.017485 0.00316118 0 0.000826314 0 0)
(0.00387124 0.00140275 0 0.0022392 0 0)
(0.00237904 0.0009718 0 0.00362924 0 0)
(0.00895241 0.00439831 0 0.00541341 0 0)
(0.0220966 0.0086136 0 0.00531996 0 0)
(0.0403933 0.0132456 0 0.00574176 0 0)
(0.058728 0.0145289 0 0.0042345 0 0)
(0.0795364 0.0168282 0 0.00434367 0 0)
(0.0967479 0.0148673 0 0.00291822 0 0)
(0.115809 0.0163844 0 0.00330038 0 0)
(0.129109 0.012832 0 0.00210069 0 0)
(0.1462 0.0147963 0 0.00266115 0 0)
(0.155688 0.0102389 0 0.00111222 0 0)
(0.171728 0.013082 0 0.00195417 0 0)
(0.180164 0.00807909 0 0.000772154 0 0)
(0.193901 0.0121301 0 0.00163922 0 0)
(0.202297 0.00662983 0 0.000761328 0 0)
(0.215419 0.0118152 0 0.00143379 0 0)
(0.219956 0.00506996 0 0.00070494 0 0)
(0.232827 0.0114985 0 0.00130084 0 0)
(0.23929 0.003137 0 0.000392438 0 0)
(0.247423 0.010566 0 0.00102902 0 0)
(0.253882 0.00217443 0 0.000675489 0 0)
(0.262612 0.0103157 0 0.00108073 0 0)
(0.266446 0.00169284 0 0.000382554 0 0)
(0.271222 0.0113447 0 0.00104123 0 0)
(0.271814 0.0014815 0 0.000593526 0 0)
(0.273224 0.0114646 0 0.000824074 0 0)
(0.277805 0.00405771 0 0.000547874 0 0)
(0.276095 0.0164405 0 0.00138295 0 0)
(0.273053 0.0110729 0 0.000881575 0 0)
(0.264352 0.026384 0 0.00300709 0 0)
(0.262212 0.0269464 0 0.00324847 0 0)
(0.250288 0.0487811 0 0.0100696 0 0)
(0.246755 0.0639972 0 0.0172244 0 0)
(0.234328 0.100136 0 0.0442877 0 0)
(0.2374 0.138002 0 0.0827191 0 0)
(0.236569 0.197012 0 0.171122 0 0)
(0.2413 0.247725 0 0.265368 0 0)
(0.111593 0.00153131 0 4.41481e-05 0 0)
(0.0174597 0.00220341 0 0.000324742 0 0)
(0.0040129 0.000807977 0 0.000968526 0 0)
(0.00242508 0.000488364 0 0.00177905 0 0)
(0.00789092 0.00263458 0 0.00247574 0 0)
(0.0190775 0.00558125 0 0.00278835 0 0)
(0.0348774 0.00842428 0 0.00265808 0 0)
(0.0515452 0.00983919 0 0.00228281 0 0)
(0.0703752 0.0106019 0 0.00190809 0 0)
(0.0869544 0.0103988 0 0.00156365 0 0)
(0.104701 0.00988673 0 0.00126518 0 0)
(0.117562 0.00965727 0 0.00123399 0 0)
(0.133264 0.00837452 0 0.000943431 0 0)
(0.14308 0.00847195 0 0.00113021 0 0)
(0.157618 0.0070574 0 0.000600415 0 0)
(0.166539 0.00778479 0 0.000729116 0 0)
(0.178908 0.00532891 0 0.000338272 0 0)
(0.188364 0.00714762 0 0.000778817 0 0)
(0.199585 0.00467517 0 0.00067587 0 0)
(0.205618 0.00706594 0 0.000711989 0 0)
(0.215918 0.00416554 0 0.000378961 0 0)
(0.223775 0.00618541 0 0.000629408 0 0)
(0.230982 0.00260549 0 0.000274257 0 0)
(0.238502 0.00639294 0 0.000740778 0 0)
(0.246084 0.00217092 0 0.000591064 0 0)
(0.251646 0.00673753 0 0.000573167 0 0)
(0.25502 0.00317024 0 0.000482592 0 0)
(0.256789 0.00726774 0 0.000752804 0 0)
(0.25909 0.00391192 0 0.000445977 0 0)
(0.265383 0.0106322 0 0.000844121 0 0)
(0.264961 0.00936983 0 0.000765986 0 0)
(0.264152 0.0178608 0 0.00166808 0 0)
(0.259326 0.0200869 0 0.0019196 0 0)
(0.260769 0.0341142 0 0.00487634 0 0)
(0.256898 0.0435586 0 0.00793119 0 0)
(0.260769 0.0706518 0 0.019646 0 0)
(0.259871 0.0953878 0 0.0359069 0 0)
(0.275473 0.145865 0 0.0787333 0 0)
(0.287882 0.199167 0 0.139998 0 0)
(0.299778 0.272967 0 0.252451 0 0)
(0.111562 0.000990188 0 4.1606e-05 0 0)
(0.0173619 0.00125471 0 0.000150147 0 0)
(0.0040483 0.000487962 0 0.000378169 0 0)
(0.00246694 0.000225676 0 0.000614658 0 0)
(0.00722187 0.00145189 0 0.00095127 0 0)
(0.0172835 0.00306933 0 0.000964005 0 0)
(0.0314893 0.00486817 0 0.00110006 0 0)
(0.047135 0.00529935 0 0.00076606 0 0)
(0.0648218 0.00638811 0 0.00085337 0 0)
(0.0811331 0.00535599 0 0.000502278 0 0)
(0.0981089 0.00633862 0 0.000636948 0 0)
(0.110825 0.00476429 0 0.000408156 0 0)
(0.125589 0.00595859 0 0.000565641 0 0)
(0.135076 0.00392032 0 0.000273719 0 0)
(0.148901 0.00537743 0 0.000446134 0 0)
(0.157959 0.00284629 0 0.000172594 0 0)
(0.170207 0.00489852 0 0.000373361 0 0)
(0.179683 0.00204453 0 0.000214842 0 0)
(0.190708 0.00486042 0 0.000405563 0 0)
(0.196114 0.00192659 0 0.000224869 0 0)
(0.206325 0.0046206 0 0.000343336 0 0)
(0.213612 0.00169108 0 0.000219599 0 0)
(0.221704 0.00362839 0 0.000199151 0 0)
(0.228536 0.00183894 0 0.000289938 0 0)
(0.236857 0.00351424 0 0.000368046 0 0)
(0.242251 0.0025247 0 0.000316212 0 0)
(0.246221 0.00466565 0 0.000296546 0 0)
(0.247668 0.00383047 0 0.000377092 0 0)
(0.251596 0.00603646 0 0.000409036 0 0)
(0.258551 0.00747024 0 0.000472938 0 0)
(0.259918 0.0116127 0 0.000812067 0 0)
(0.260553 0.0148941 0 0.00120309 0 0)
(0.259076 0.0223577 0 0.00225755 0 0)
(0.263829 0.0308812 0 0.00397644 0 0)
(0.266785 0.045337 0 0.00819862 0 0)
(0.277559 0.0655757 0 0.0160193 0 0)
(0.287583 0.095557 0 0.0323946 0 0)
(0.314334 0.139054 0 0.0624816 0 0)
(0.338194 0.196935 0 0.115728 0 0)
(0.347859 0.258024 0 0.193866 0 0)
(0.111521 0.000294686 0 7.08804e-06 0 0)
(0.0173486 0.000416205 0 2.11374e-05 0 0)
(0.00410459 0.00013306 0 4.1459e-05 0 0)
(0.00250637 6.27106e-05 0 7.35176e-05 0 0)
(0.00697211 0.000443282 0 0.00010647 0 0)
(0.0164876 0.000972709 0 0.000120069 0 0)
(0.0299351 0.00155313 0 0.00015247 0 0)
(0.0450934 0.00165882 0 0.000108264 0 0)
(0.0622042 0.00212295 0 0.00014061 0 0)
(0.078241 0.00164788 0 9.1225e-05 0 0)
(0.0950497 0.00210277 0 0.000111814 0 0)
(0.107441 0.00144276 0 7.86676e-05 0 0)
(0.121909 0.00198731 0 0.000114689 0 0)
(0.131441 0.000887699 0 0.000108363 0 0)
(0.144757 0.00218961 0 0.000202162 0 0)
(0.15403 0.000237135 0 0.000136261 0 0)
(0.165781 0.00236996 0 0.000248264 0 0)
(0.175537 -0.000969404 0 0.000176512 0 0)
(0.186421 0.00279838 0 0.000320732 0 0)
(0.191815 -0.00126811 0 0.000222445 0 0)
(0.201974 0.00330879 0 0.000316597 0 0)
(0.208681 -0.00117442 0 0.00020926 0 0)
(0.217316 0.00292306 0 0.000262972 0 0)
(0.224059 -0.00143561 0 0.000217572 0 0)
(0.232625 0.00365752 0 0.000321993 0 0)
(0.238322 -0.000768967 0 0.000251538 0 0)
(0.242577 0.00503395 0 0.000315938 0 0)
(0.243966 0.0011297 0 0.000247264 0 0)
(0.249129 0.00692243 0 0.000385604 0 0)
(0.256832 0.00517489 0 0.000328767 0 0)
(0.259557 0.0124179 0 0.000757029 0 0)
(0.261772 0.0127979 0 0.000809391 0 0)
(0.263186 0.0231262 0 0.0022328 0 0)
(0.270787 0.0284042 0 0.00316177 0 0)
(0.279018 0.0446418 0 0.0074202 0 0)
(0.296456 0.0600195 0 0.0125754 0 0)
(0.315787 0.0901714 0 0.0262347 0 0)
(0.353869 0.126951 0 0.0462567 0 0)
(0.388304 0.184474 0 0.0882289 0 0)
(0.399666 0.243167 0 0.149661 0 0)
(0.111519 -0.000242154 0 3.71494e-06 0 0)
(0.0173354 -0.000427939 0 2.18131e-05 0 0)
(0.00407122 -0.000138447 0 4.21441e-05 0 0)
(0.00251654 -6.89021e-05 0 7.77583e-05 0 0)
(0.00694734 -0.000430591 0 0.000107963 0 0)
(0.0165063 -0.00104946 0 0.000165241 0 0)
(0.0298738 -0.00143919 0 0.000128266 0 0)
(0.0451447 -0.00203638 0 0.000175774 0 0)
(0.0621295 -0.00171717 0 9.95874e-05 0 0)
(0.0783483 -0.00228973 0 0.000137333 0 0)
(0.0949643 -0.0016216 0 9.10477e-05 0 0)
(0.107677 -0.00216924 0 0.000115817 0 0)
(0.121687 -0.00129241 0 8.23421e-05 0 0)
(0.13175 -0.0022198 0 0.000145164 0 0)
(0.14428 -0.000717478 0 9.57175e-05 0 0)
(0.154285 -0.00257586 0 0.000200848 0 0)
(0.165334 -0.000257347 0 0.000125555 0 0)
(0.175804 -0.00300112 0 0.000206795 0 0)
(0.186404 6.81572e-05 0 0.000115132 0 0)
(0.192014 -0.00279308 0 0.000196041 0 0)
(0.202072 0.000387063 0 0.000135458 0 0)
(0.208583 -0.00220804 0 0.000195702 0 0)
(0.217352 0.000453711 0 0.000179813 0 0)
(0.224285 -0.00200943 0 0.000205894 0 0)
(0.233129 0.00111463 0 0.000179506 0 0)
(0.238696 -0.00108317 0 0.000182458 0 0)
(0.243873 0.00229625 0 0.000224072 0 0)
(0.244707 0.00158561 0 0.000242624 0 0)
(0.25149 0.00436968 0 0.000274277 0 0)
(0.259057 0.00634733 0 0.000473305 0 0)
(0.263677 0.00926619 0 0.000565592 0 0)
(0.266674 0.0143114 0 0.00106381 0 0)
(0.270936 0.0194517 0 0.00170654 0 0)
(0.280107 0.0297915 0 0.00345805 0 0)
(0.293289 0.0386238 0 0.00555245 0 0)
(0.314837 0.0584268 0 0.0112229 0 0)
(0.34282 0.0753336 0 0.017451 0 0)
(0.39082 0.113933 0 0.0338368 0 0)
(0.442884 0.152925 0 0.0537061 0 0)
(0.457108 0.231297 0 0.118208 0 0)
(0.111493 -0.000870451 0 1.41538e-05 0 0)
(0.0173653 -0.001318 0 0.000115316 0 0)
(0.00402111 -0.000448305 0 0.00032855 0 0)
(0.00248133 -0.000248087 0 0.000628461 0 0)
(0.00719321 -0.0014009 0 0.000861415 0 0)
(0.0173537 -0.00318499 0 0.00103695 0 0)
(0.0313698 -0.00464983 0 0.000910126 0 0)
(0.0473086 -0.00578043 0 0.000886176 0 0)
(0.0647142 -0.00582799 0 0.000616246 0 0)
(0.0811626 -0.0061871 0 0.000594341 0 0)
(0.0980729 -0.0055296 0 0.000428248 0 0)
(0.110992 -0.00586587 0 0.000491064 0 0)
(0.125075 -0.00461444 0 0.000340292 0 0)
(0.135698 -0.00577613 0 0.000530271 0 0)
(0.148095 -0.00326609 0 0.000213583 0 0)
(0.158408 -0.00595659 0 0.000640038 0 0)
(0.169544 -0.00204728 0 0.000214945 0 0)
(0.179735 -0.00642452 0 0.000647569 0 0)
(0.191047 -0.00103155 0 0.00018496 0 0)
(0.196212 -0.0069377 0 0.000660194 0 0)
(0.207194 0.000423296 0 0.000112287 0 0)
(0.212956 -0.00724259 0 0.000728217 0 0)
(0.222528 0.00230831 0 0.000225324 0 0)
(0.22883 -0.0085283 0 0.000877711 0 0)
(0.238608 0.00503443 0 0.000362033 0 0)
(0.243405 -0.00960089 0 0.000887786 0 0)
(0.250532 0.00826938 0 0.000595392 0 0)
(0.249709 -0.00864356 0 0.0008198 0 0)
(0.259171 0.0128439 0 0.000921687 0 0)
(0.265116 -0.00603936 0 0.000583918 0 0)
(0.272893 0.0195621 0 0.00174333 0 0)
(0.275013 -0.000441425 0 0.000508079 0 0)
(0.283724 0.0313454 0 0.00371397 0 0)
(0.291885 0.0119231 0 0.00117707 0 0)
(0.310889 0.0511217 0 0.00858894 0 0)
(0.331777 0.0338403 0 0.00450806 0 0)
(0.367525 0.0830391 0 0.0191292 0 0)
(0.42011 0.0688447 0 0.0131536 0 0)
(0.501032 0.134029 0 0.0369326 0 0)
(0.550924 0.137078 0 0.0359494 0 0)
(0.111472 -0.00149176 0 3.1679e-05 0 0)
(0.0174579 -0.00224542 0 0.000316212 0 0)
(0.00391243 -0.000803154 0 0.000946848 0 0)
(0.00245002 -0.000539878 0 0.0017731 0 0)
(0.00778199 -0.00259381 0 0.00244757 0 0)
(0.0191889 -0.00570623 0 0.00282504 0 0)
(0.0345946 -0.00832211 0 0.00257934 0 0)
(0.0518466 -0.0100511 0 0.00233254 0 0)
(0.0700435 -0.010523 0 0.00183493 0 0)
(0.0873177 -0.0105527 0 0.00154475 0 0)
(0.104342 -0.0100638 0 0.00127774 0 0)
(0.118407 -0.00970987 0 0.00119449 0 0)
(0.132155 -0.00855634 0 0.000951633 0 0)
(0.144343 -0.0088894 0 0.00102689 0 0)
(0.155734 -0.00678911 0 0.000535802 0 0)
(0.16764 -0.00836134 0 0.000870175 0 0)
(0.177446 -0.00565702 0 0.000396488 0 0)
(0.189317 -0.00800294 0 0.000767094 0 0)
(0.199055 -0.00481092 0 0.000332222 0 0)
(0.206741 -0.00804282 0 0.000749813 0 0)
(0.215567 -0.00336432 0 0.000158244 0 0)
(0.224354 -0.00787645 0 0.000711257 0 0)
(0.230623 -0.00140261 0 0.000122664 0 0)
(0.240697 -0.00815978 0 0.000764213 0 0)
(0.246698 0.000884349 0 0.000166634 0 0)
(0.255698 -0.00837457 0 0.000679705 0 0)
(0.259201 0.00373218 0 0.000224368 0 0)
(0.262828 -0.00697808 0 0.000604643 0 0)
(0.268884 0.00860093 0 0.000424946 0 0)
(0.278925 -0.00396769 0 0.00032009 0 0)
(0.283609 0.0150024 0 0.00105872 0 0)
(0.290998 0.00156214 0 0.00037286 0 0)
(0.297286 0.0264722 0 0.0025258 0 0)
(0.310602 0.0131505 0 0.00107985 0 0)
(0.328175 0.0449534 0 0.00630745 0 0)
(0.353747 0.0316864 0 0.00379515 0 0)
(0.386234 0.0718802 0 0.0136829 0 0)
(0.437945 0.0566692 0 0.00930676 0 0)
(0.509404 0.110323 0 0.0248996 0 0)
(0.669931 0.105889 0 0.0201473 0 0)
(0.111448 -0.00217883 0 6.57907e-05 0 0)
(0.0175678 -0.00333341 0 0.000679151 0 0)
(0.00377972 -0.00128087 0 0.00198414 0 0)
(0.00242843 -0.00106657 0 0.00368488 0 0)
(0.00886101 -0.00423566 0 0.00498441 0 0)
(0.0222942 -0.00888119 0 0.00555465 0 0)
(0.0400379 -0.0128038 0 0.00513491 0 0)
(0.0592251 -0.0152024 0 0.00451774 0 0)
(0.0790358 -0.01602 0 0.00368846 0 0)
(0.0971703 -0.0158838 0 0.00311269 0 0)
(0.115266 -0.0151653 0 0.00263869 0 0)
(0.130078 -0.0143962 0 0.0023955 0 0)
(0.144709 -0.0128251 0 0.00188351 0 0)
(0.157522 -0.0126468 0 0.00176618 0 0)
(0.169587 -0.0106599 0 0.00106031 0 0)
(0.181442 -0.0111274 0 0.00117361 0 0)
(0.192126 -0.00964985 0 0.000906782 0 0)
(0.20363 -0.0096968 0 0.000997005 0 0)
(0.214041 -0.00910319 0 0.00089068 0 0)
(0.222086 -0.00883082 0 0.000859812 0 0)
(0.231517 -0.00795071 0 0.000692795 0 0)
(0.240504 -0.00759687 0 0.000505823 0 0)
(0.247164 -0.00676038 0 0.000517321 0 0)
(0.256981 -0.00555167 0 0.000364194 0 0)
(0.2632 -0.00633074 0 0.00059767 0 0)
(0.27239 -0.00331133 0 0.000228597 0 0)
(0.276261 -0.00555845 0 0.000559231 0 0)
(0.280527 5.20108e-05 0 0.000236565 0 0)
(0.286498 -0.0022428 0 0.000185468 0 0)
(0.297248 0.00530932 0 0.000210349 0 0)
(0.301847 0.00155907 0 0.000286718 0 0)
(0.311309 0.0125204 0 0.000710275 0 0)
(0.317734 0.0102693 0 0.000575424 0 0)
(0.333475 0.0256196 0 0.0021194 0 0)
(0.350583 0.0250213 0 0.00221995 0 0)
(0.378712 0.0446637 0 0.00555145 0 0)
(0.410571 0.0465711 0 0.00611661 0 0)
(0.470578 0.0751023 0 0.0126677 0 0)
(0.559523 0.0924193 0 0.0165459 0 0)
(0.778809 0.173496 0 0.0393887 0 0)
(0.111383 -0.00299427 0 0.000124038 0 0)
(0.01779 -0.00459258 0 0.00126752 0 0)
(0.00358916 -0.00198135 0 0.00370117 0 0)
(0.00253036 -0.00200452 0 0.00662819 0 0)
(0.01072 -0.00660612 0 0.00869411 0 0)
(0.0272825 -0.0130826 0 0.00922186 0 0)
(0.0484221 -0.0185131 0 0.00861154 0 0)
(0.0706619 -0.0214993 0 0.00733517 0 0)
(0.0924969 -0.0228367 0 0.00640745 0 0)
(0.112622 -0.0220917 0 0.00526725 0 0)
(0.13162 -0.0214289 0 0.00474332 0 0)
(0.148498 -0.0196549 0 0.00396916 0 0)
(0.163569 -0.0180064 0 0.00328195 0 0)
(0.178116 -0.0168634 0 0.00267204 0 0)
(0.190154 -0.0152244 0 0.0019535 0 0)
(0.202989 -0.0144878 0 0.00172054 0 0)
(0.213688 -0.0138598 0 0.00164278 0 0)
(0.225915 -0.0125314 0 0.00146356 0 0)
(0.236136 -0.0126605 0 0.00151369 0 0)
(0.245808 -0.0118904 0 0.00143017 0 0)
(0.254688 -0.0103503 0 0.000977497 0 0)
(0.264889 -0.0111403 0 0.00119704 0 0)
(0.271192 -0.00840936 0 0.000531807 0 0)
(0.28109 -0.00907724 0 0.000810587 0 0)
(0.287277 -0.00701281 0 0.000591858 0 0)
(0.296314 -0.00737854 0 0.000787367 0 0)
(0.300578 -0.00528982 0 0.000562551 0 0)
(0.305284 -0.00526019 0 0.000564051 0 0)
(0.311504 -0.000175876 0 0.000171326 0 0)
(0.321329 -0.000859182 0 0.000129649 0 0)
(0.326991 0.00382899 0 0.000242821 0 0)
(0.336672 0.005262 0 0.000361019 0 0)
(0.344819 0.0123016 0 0.000592322 0 0)
(0.360685 0.016908 0 0.00101381 0 0)
(0.379538 0.027281 0 0.00216352 0 0)
(0.408163 0.0350569 0 0.00339848 0 0)
(0.443955 0.0507853 0 0.00618706 0 0)
(0.508183 0.0676234 0 0.00966154 0 0)
(0.609196 0.0968036 0 0.0161125 0 0)
(0.834619 0.13816 0 0.0240902 0 0)
(0.111241 -0.00395856 0 0.000212252 0 0)
(0.0181365 -0.00620996 0 0.00223747 0 0)
(0.00338192 -0.00306707 0 0.00644959 0 0)
(0.00304543 -0.00379148 0 0.0111718 0 0)
(0.0139736 -0.0102283 0 0.01394 0 0)
(0.0353785 -0.0191326 0 0.0143114 0 0)
(0.0610141 -0.0258798 0 0.013031 0 0)
(0.0879809 -0.0298531 0 0.0112563 0 0)
(0.111753 -0.0309001 0 0.0098083 0 0)
(0.135476 -0.030172 0 0.00840614 0 0)
(0.154053 -0.0282672 0 0.00735882 0 0)
(0.174686 -0.0263497 0 0.00623376 0 0)
(0.187359 -0.0233866 0 0.00493373 0 0)
(0.20554 -0.0221907 0 0.00401297 0 0)
(0.21322 -0.019772 0 0.00309756 0 0)
(0.22973 -0.0184688 0 0.00253166 0 0)
(0.234578 -0.017875 0 0.0027498 0 0)
(0.251117 -0.0153445 0 0.00210368 0 0)
(0.253873 -0.0161521 0 0.00250808 0 0)
(0.269517 -0.0141573 0 0.002008 0 0)
(0.269389 -0.0132981 0 0.00174142 0 0)
(0.285797 -0.0126623 0 0.00141049 0 0)
(0.281966 -0.0114669 0 0.00119642 0 0)
(0.298412 -0.00946553 0 0.000849583 0 0)
(0.293153 -0.0100217 0 0.00127205 0 0)
(0.309376 -0.00711586 0 0.000849002 0 0)
(0.302284 -0.00806187 0 0.0010722 0 0)
(0.315381 -0.00517003 0 0.000756467 0 0)
(0.310286 -0.00292665 0 0.000280959 0 0)
(0.326482 -0.000777954 0 0.000168377 0 0)
(0.32233 0.000472925 0 0.000252854 0 0)
(0.339288 0.00449508 0 0.000302166 0 0)
(0.339295 0.00760057 0 0.000409963 0 0)
(0.361653 0.0144153 0 0.000743675 0 0)
(0.373775 0.0215592 0 0.00140823 0 0)
(0.407547 0.0317914 0 0.00271487 0 0)
(0.439172 0.0461002 0 0.00510311 0 0)
(0.505954 0.0642717 0 0.00849104 0 0)
(0.60043 0.0835258 0 0.0123296 0 0)
(0.824173 0.0976983 0 0.0128225 0 0)
(0.11105 -0.00516111 0 0.000353712 0 0)
(0.0186479 -0.00833408 0 0.00384934 0 0)
(0.00332357 -0.00483202 0 0.0110041 0 0)
(0.00449109 -0.00704014 0 0.0184369 0 0)
(0.019579 -0.0160033 0 0.0222964 0 0)
(0.0476823 -0.0282148 0 0.0222287 0 0)
(0.0769062 -0.0360702 0 0.0203129 0 0)
(0.107378 -0.0407224 0 0.0175791 0 0)
(0.126551 -0.0401372 0 0.0156378 0 0)
(0.149987 -0.0381637 0 0.0132211 0 0)
(0.157521 -0.0336139 0 0.0114314 0 0)
(0.176433 -0.0307505 0 0.00913129 0 0)
(0.173149 -0.0258029 0 0.0073852 0 0)
(0.189651 -0.0242459 0 0.00556286 0 0)
(0.177458 -0.0201417 0 0.00488112 0 0)
(0.19419 -0.0186416 0 0.00360681 0 0)
(0.176517 -0.0161861 0 0.00417485 0 0)
(0.195176 -0.0139593 0 0.00274916 0 0)
(0.173977 -0.0130898 0 0.00370192 0 0)
(0.193392 -0.0111733 0 0.0022545 0 0)
(0.169428 -0.0100989 0 0.00267413 0 0)
(0.19028 -0.00831182 0 0.00142476 0 0)
(0.163381 -0.00830015 0 0.00204403 0 0)
(0.186483 -0.00475816 0 0.000749732 0 0)
(0.158176 -0.00691208 0 0.00188492 0 0)
(0.182538 -0.00196112 0 0.00071892 0 0)
(0.154222 -0.00589295 0 0.00154457 0 0)
(0.178057 0.000347076 0 0.000670728 0 0)
(0.1523 -0.00429693 0 0.000559801 0 0)
(0.178051 0.00333208 0 0.000251435 0 0)
(0.154292 -0.00320492 0 0.000397503 0 0)
(0.18216 0.0067404 0 0.000416409 0 0)
(0.162574 -0.000721244 0 0.00026588 0 0)
(0.194654 0.0128208 0 0.0010389 0 0)
(0.183582 0.00522845 0 0.000385088 0 0)
(0.224981 0.0248626 0 0.00308918 0 0)
(0.228972 0.0197194 0 0.00210107 0 0)
(0.292311 0.0533653 0 0.0103077 0 0)
(0.336499 0.0551413 0 0.00942273 0 0)
(0.49936 0.106371 0 0.0229817 0 0)
(0.111033 -0.00669485 0 0.000604694 0 0)
(0.0191406 -0.0111165 0 0.00661538 0 0)
(0.0039122 -0.00774934 0 0.0182019 0 0)
(0.00670606 -0.0112923 0 0.0293285 0 0)
(0.0236848 -0.0217892 0 0.034366 0 0)
(0.0458679 -0.0329815 0 0.033799 0 0)
(0.0585532 -0.0366844 0 0.0306467 0 0)
(0.0625176 -0.0349779 0 0.0265765 0 0)
(0.0557155 -0.027001 0 0.0225181 0 0)
(0.0499563 -0.0194375 0 0.0178094 0 0)
(0.0397003 -0.0107854 0 0.013687 0 0)
(0.0346545 -0.00636614 0 0.0100173 0 0)
(0.0290735 -0.000560956 0 0.00736868 0 0)
(0.0274954 0.000845881 0 0.00542196 0 0)
(0.032053 0.00531386 0 0.00437087 0 0)
(0.0325281 0.00494329 0 0.00334496 0 0)
(0.0499156 0.00880718 0 0.00318579 0 0)
(0.048165 0.00677948 0 0.00229039 0 0)
(0.077908 0.0105492 0 0.00244541 0 0)
(0.0719117 0.00766749 0 0.00168849 0 0)
(0.112151 0.0106893 0 0.00160741 0 0)
(0.0995952 0.00735776 0 0.00101511 0 0)
(0.150448 0.0104774 0 0.00107936 0 0)
(0.128011 0.00578749 0 0.000517541 0 0)
(0.187099 0.00962579 0 0.000828207 0 0)
(0.156313 0.00431691 0 0.000434208 0 0)
(0.217229 0.00851848 0 0.000648242 0 0)
(0.186783 0.00290596 0 0.000320476 0 0)
(0.239223 0.00462736 0 0.000165792 0 0)
(0.207098 7.33831e-05 0 9.09649e-05 0 0)
(0.253634 0.00279477 0 8.86236e-05 0 0)
(0.220004 -0.00162373 0 0.00014233 0 0)
(0.259643 -0.000406026 0 9.27996e-05 0 0)
(0.224339 -0.00477814 0 0.000449676 0 0)
(0.250055 -0.00513002 0 0.000297712 0 0)
(0.213731 -0.0074542 0 0.00145021 0 0)
(0.225478 -0.00856916 0 0.00136965 0 0)
(0.186853 -0.00667874 0 0.00471739 0 0)
(0.188194 -0.00196309 0 0.00462271 0 0)
(0.167902 0.0110621 0 0.00863807 0 0)
(0.111374 -0.00921654 0 0.00121412 0 0)
(0.0195382 -0.0139863 0 0.0103027 0 0)
(0.00163045 -0.00493633 0 0.0246205 0 0)
(0.00339974 0.00577137 0 0.0353327 0 0)
(0.0119642 0.0154271 0 0.0380902 0 0)
(0.0253273 0.0271595 0 0.035278 0 0)
(0.0592353 0.0417057 0 0.0302001 0 0)
(0.124305 0.0535449 0 0.0240731 0 0)
(0.227123 0.0599098 0 0.0179773 0 0)
(0.348974 0.0574914 0 0.0121751 0 0)
(0.493087 0.051358 0 0.00777973 0 0)
(0.629864 0.0419997 0 0.00459045 0 0)
(0.78233 0.034541 0 0.00269958 0 0)
(0.904575 0.0263757 0 0.00148534 0 0)
(1.05135 0.0219635 0 0.000939169 0 0)
(1.14114 0.0156585 0 0.000508734 0 0)
(1.28055 0.0147383 0 0.000447156 0 0)
(1.33062 0.0100372 0 0.000274702 0 0)
(1.46697 0.0115678 0 0.000297617 0 0)
(1.48353 0.00805517 0 0.000196756 0 0)
(1.61532 0.0098156 0 0.000188612 0 0)
(1.60316 0.00591745 0 0.000100708 0 0)
(1.7334 0.00895666 0 0.000111204 0 0)
(1.69211 0.00272533 0 2.54106e-05 0 0)
(1.82026 0.00826093 0 8.27952e-05 0 0)
(1.75779 0.00160551 0 5.54117e-05 0 0)