/*--------------------------------*- C++ -*----------------------------------*\
| =========                 |                                                 |
| \\      /  F ield         | OpenFOAM: The Open Source CFD Toolbox           |
|  \\    /   O peration     | Version:  2.4.0                                 |
|   \\  /    A nd           | Web:      www.OpenFOAM.org                      |
|    \\/     M anipulation  |                                                 |
\*---------------------------------------------------------------------------*/
FoamFile
{
    version     2.0;
    format      ascii;
    class       volScalarField;
    location    "0.296";
    object      p;
}
// * * * * * * * * * * * * * * * * * * * * * * * * * * * * * * * * * * * * * //

dimensions      [0 2 -2 0 0 0 0];

internalField   nonuniform List<scalar> 
17600
(
99.278
83.5865
79.1596
78.0567
77.0561
76.1329
75.2476
74.464
73.6365
73.0165
72.141
71.4214
70.7193
69.7979
69.3044
67.9459
67.7463
66.3606
65.1206
64.9672
97.3698
83.6364
79.2004
78.0665
77.0594
76.1331
75.2482
74.4645
73.6364
73.0166
72.1416
71.4198
70.7212
69.7966
69.3055
67.9467
67.7404
66.3698
65.0982
64.8207
95.9566
83.8923
79.3441
78.1053
77.073
76.1375
75.2508
74.4667
73.6369
73.0186
72.1421
71.419
70.7241
69.7949
69.3096
67.9464
67.7345
66.3839
65.0431
64.37
94.9809
84.2336
79.5641
78.171
77.1021
76.1529
75.2602
74.4731
73.6417
73.0233
72.1446
71.4196
70.729
69.7953
69.3149
67.9549
67.7241
66.4116
64.9679
63.8595
94.1593
84.5681
79.8284
78.2533
77.1443
76.1821
75.28
74.4874
73.6546
73.0323
72.1517
71.4226
70.7377
69.799
69.3207
67.9796
67.7057
66.457
64.8822
63.4592
93.3856
84.86
80.1063
78.3359
77.1867
76.2191
75.309
74.51
73.6768
73.0465
72.1651
71.4287
70.7517
69.8082
69.3264
68.0279
67.6797
66.5202
64.801
63.1392
92.6572
85.1064
80.3825
78.4134
77.219
76.2537
75.3411
74.5376
73.7062
73.0645
72.1847
71.4378
70.7713
69.8239
69.3327
68.0971
67.6525
66.5806
64.7776
62.8825
91.984
85.3099
80.6511
78.4881
77.2403
76.2808
75.3719
74.5672
73.7389
73.0832
72.2077
71.4486
70.7947
69.8454
69.3398
68.1826
67.6261
66.6371
64.8177
62.8076
91.3715
85.4752
80.9044
78.5652
77.2526
76.2993
75.3993
74.5968
73.7726
73.1006
72.2319
71.4604
70.8187
69.8716
69.3457
68.287
67.5959
66.7181
64.8439
62.7718
90.8214
85.6039
81.1406
78.6468
77.2581
76.3098
75.4227
74.6249
73.8061
73.1158
72.2549
71.4738
70.8406
69.901
69.3516
68.3824
67.5815
66.7832
64.9317
62.9393
90.3314
85.6977
81.3583
78.7332
77.2594
76.3129
75.4422
74.6506
73.8394
73.129
72.2762
71.4875
70.8593
69.9335
69.3559
68.4795
67.5898
66.8292
65.0842
63.1761
89.9002
85.7605
81.5555
78.8245
77.2578
76.3092
75.4585
74.6746
73.8717
73.141
72.2975
71.5002
70.8743
69.9681
69.3634
68.5574
67.616
66.883
65.252
63.4243
89.5258
85.7999
81.731
78.9193
77.254
76.3011
75.472
74.6959
73.9033
73.1524
72.3173
71.5154
70.8864
70.0037
69.3842
68.6286
67.6618
66.9333
65.4376
63.7079
89.2055
85.8221
81.8849
79.0117
77.2505
76.2888
75.4841
74.7149
73.9321
73.1637
72.3362
71.5298
70.897
70.0425
69.3933
68.703
67.7203
66.9923
65.6406
64.0378
88.9351
85.8333
82.0176
79.0937
77.2483
76.2757
75.4934
74.7315
73.9596
73.1726
72.3533
71.5442
70.9058
70.0814
69.4098
68.7678
67.7879
67.0623
65.865
64.3714
88.7116
85.8391
82.1271
79.1643
77.2482
76.2622
75.5018
74.7445
73.9851
73.1808
72.3676
71.5606
70.9153
70.1187
69.4309
68.8282
67.8676
67.1342
66.1056
64.7546
88.5358
85.8415
82.2133
79.2215
77.2507
76.2492
75.5085
74.7554
74.0064
73.1888
72.382
71.5755
70.9251
70.1571
69.4553
68.8841
67.9533
67.2182
66.3224
65.173
88.4044
85.8428
82.2763
79.266
77.2539
76.2389
75.5139
74.7631
74.025
73.1959
72.3936
71.5933
70.9317
70.1979
69.4838
68.94
68.0399
67.3193
66.4938
65.4922
88.3169
85.8435
82.3183
79.2947
77.2585
76.2301
75.5188
74.7669
74.0388
73.2029
72.4023
71.6117
70.9393
70.2372
69.5129
68.9968
68.1315
67.4311
66.6458
65.885
88.2734
85.8449
82.3392
79.3087
77.2621
76.2253
75.5226
74.7698
74.0495
73.2067
72.412
71.6296
70.9512
70.2716
69.5509
69.0468
68.2251
67.5464
66.8318
66.298
88.272
85.8475
82.3397
79.3074
77.2645
76.2238
75.5259
74.7695
74.0555
73.2111
72.4174
71.6479
70.9622
70.3036
69.5937
69.0954
68.3264
67.6579
67.0455
66.7112
88.3144
85.8509
82.32
79.2899
77.2687
76.2257
75.5294
74.7673
74.0566
73.2145
72.4205
71.665
70.9731
70.3387
69.6344
69.1473
68.4286
67.7802
67.2528
67.1146
88.3989
85.8553
82.2788
79.2576
77.2688
76.232
75.5301
74.7625
74.0543
73.2159
72.4275
71.6825
70.9847
70.3715
69.6782
69.2026
68.5242
67.9184
67.4317
67.3622
88.5287
85.8582
82.2172
79.2094
77.2733
76.2396
75.5317
74.7564
74.0457
73.2181
72.4272
71.7004
70.9993
70.4007
69.7245
69.2583
68.6225
68.0632
67.5917
67.6351
88.7023
85.8603
82.1322
79.1488
77.2755
76.2503
75.5301
74.7477
74.035
73.2157
72.4324
71.7155
71.0154
70.4284
69.7745
69.3111
68.7263
68.2058
67.7787
67.9177
88.9233
85.8582
82.0248
79.0745
77.2817
76.261
75.527
74.7375
74.0201
73.213
72.4351
71.7295
71.0333
70.4542
69.8255
69.3648
68.8343
68.3436
67.9969
68.1896
89.1927
85.8499
81.8947
78.9879
77.2903
76.2719
75.5216
74.7253
74.0013
73.21
72.4357
71.7433
71.0515
70.4797
69.8751
69.424
68.9391
68.4881
68.2109
68.4706
89.5111
85.8322
81.742
78.8942
77.2994
76.2827
75.5123
74.7112
73.9809
73.2033
72.4375
71.7544
71.07
70.5064
69.9231
69.4869
69.0419
68.6418
68.3934
68.663
89.8845
85.7941
81.5693
78.7954
77.3103
76.2899
75.5
74.6962
73.9581
73.1958
72.4379
71.7636
71.09
70.5312
69.9714
69.5512
69.1455
68.8005
68.5658
68.8817
90.3125
85.7316
81.3763
78.701
77.3168
76.2935
75.483
74.6795
73.9355
73.1855
72.4381
71.7708
71.1107
70.5541
70.0216
69.614
69.2532
68.9569
68.768
69.1132
90.8002
85.6372
81.164
78.6113
77.3188
76.2922
75.4607
74.6624
73.9114
73.1733
72.4382
71.7747
71.1316
70.5768
70.0701
69.6751
69.3658
69.1099
69.0015
69.3326
91.3497
85.5068
80.9325
78.5264
77.3163
76.2842
75.4337
74.6438
73.8868
73.1592
72.4364
71.778
71.1509
70.5989
70.1155
69.7362
69.4742
69.259
69.246
69.5325
91.9618
85.3391
80.6814
78.447
77.3064
76.2693
75.402
74.6233
73.8634
73.1423
72.4342
71.7799
71.1681
70.6204
70.1571
69.794
69.5728
69.3998
69.4596
69.7163
92.6356
85.1321
80.4145
78.3702
77.2877
76.2467
75.3667
74.6015
73.8407
73.125
72.4313
71.7808
71.1832
70.6393
70.1929
69.8445
69.6564
69.5199
69.6262
69.8518
93.3645
84.8831
80.1396
78.2913
77.2578
76.2159
75.3315
74.5793
73.8204
73.1091
72.428
71.7818
71.1956
70.655
70.2219
69.885
69.7216
69.612
69.7493
69.988
94.1389
84.5889
79.8636
78.2081
77.2168
76.1819
75.3011
74.5602
73.8049
73.0977
72.4262
71.7834
71.2051
70.6671
70.2433
69.9143
69.7673
69.6753
69.8329
70.0891
94.9613
84.2526
79.6008
78.1259
77.1747
76.1548
75.2812
74.5478
73.796
73.0915
72.4261
71.7854
71.2118
70.6752
70.257
69.9327
69.7945
69.7129
69.8825
70.1581
95.9377
83.9104
79.3814
78.061
77.1452
76.1404
75.2727
74.542
73.7924
73.0894
72.4267
71.7871
71.2155
70.6795
70.2641
69.9419
69.807
69.7303
69.9061
70.2029
97.3516
83.6539
79.2377
78.0232
77.131
76.136
75.271
74.5401
73.7912
73.089
72.4272
71.7879
71.2165
70.6806
70.266
69.9442
69.8092
69.7338
69.9115
70.2288
99.26
83.604
79.1967
78.0137
77.1278
76.135
75.2713
74.5396
73.7907
73.089
72.4272
71.7879
71.2163
70.6801
70.2657
69.9434
69.8075
69.731
69.9079
70.2423
61.3899
56.2549
47.2734
36.9585
27.591
19.9825
14.7982
14.2524
19.9196
28.5136
38.3689
50.3345
62.7757
72.7312
80.7037
87.0525
92.1866
96.7616
101.586
104.235
106.752
109.247
104.501
93.2818
82.2691
75.3576
69.8603
63.1079
56.7551
52.3554
47.5058
42.7461
40.1856
38.1847
35.8126
34.5937
34.7986
35.7262
37.4346
39.8959
42.8552
46.1328
49.4083
52.7349
56.344
59.9673
63.0245
65.4152
67.2286
68.1557
67.9094
66.8024
64.7797
62.2543
59.349
56.1354
52.6778
48.8224
44.6287
40.0736
35.0705
29.8493
24.1033
18.6739
14.0693
10.0823
7.6004
6.73546
6.87584
8.20802
10.9957
14.8865
19.3377
24.0687
29.1973
34.806
40.5082
46.426
52.7362
58.0623
62.6723
66.9524
70.6573
73.4359
75.7732
77.8574
79.4936
80.6095
81.6902
82.8604
83.4808
83.9621
84.4107
84.4506
84.6203
84.9018
84.6997
84.4371
84.2325
83.686
83.1068
82.0748
80.7231
79.5131
77.4641
74.6949
72.0618
69.1952
65.4658
61.4905
57.973
55.0277
52.5932
50.5559
49.2209
49.0121
49.9353
51.6986
54.2377
57.308
60.6788
64.1175
66.7287
68.5672
69.9379
70.1804
69.1062
66.9868
64.0221
60.2467
56.1408
51.6975
46.5436
41.2375
36.0789
31.2627
27.3616
24.1518
21.7144
20.4764
21.0458
23.2598
25.819
28.1506
31.3453
35.6484
40.7831
46.6362
52.5939
57.353
61.2392
65.6544
69.7638
72.4289
74.1413
75.5361
76.6003
77.3039
77.6074
77.3208
76.5819
75.3688
73.3637
70.9269
67.9242
64.4556
60.1025
54.6402
48.6546
42.0243
37.2649
32.9647
29.2007
26.157
25.962
25.2441
26.6125
28.756
33.3253
38.6344
43.4121
48.2193
54.4224
60.9518
67.011
72.7771
77.8194
82.3624
84.9721
86.1971
86.4204
85.973
85.469
84.8043
84.4071
83.794
82.2224
77.5998
70.1608
37.5337
60.8959
56.5329
48.5847
39.0586
30.6152
23.5669
18.2762
17.5896
23.7808
33.1373
42.7472
53.3984
64.7445
74.0075
81.5695
87.4349
92.4906
96.7023
101.365
104.288
106.314
109.201
105.309
94.776
84.0904
76.8782
71.2523
64.5388
58.3301
54.1342
49.1901
44.4162
41.9749
40.0762
37.9247
36.9066
37.2123
38.2752
40.0787
42.5428
45.5348
48.8297
51.9863
55.0715
58.3861
61.7952
64.7443
67.0379
68.7235
69.445
69.027
67.7981
65.545
62.8411
59.8198
56.4672
52.8924
48.8042
44.2896
39.4293
34.0514
28.3992
22.2609
16.3678
11.4103
7.26166
4.68826
3.69516
3.83943
5.39688
8.43651
12.7523
17.6723
22.7336
28.1414
33.9403
39.6409
45.6718
52.106
57.4958
62.3331
66.862
70.6414
73.535
75.9531
78.0395
79.7229
80.8828
81.9544
83.0994
83.6987
84.1503
84.5761
84.6137
84.7867
85.0445
84.8429
84.5759
84.344
83.8344
83.2104
82.1966
81.0174
79.9038
77.9236
75.4548
73.1834
70.5051
67.1263
63.7262
60.4836
57.5512
55.4088
53.7098
52.4364
52.2868
53.323
55.0163
57.4302
60.4101
63.5924
66.8041
69.2552
70.8371
71.8796
71.7688
70.252
67.6203
64.1885
60.0326
55.611
50.8501
45.3751
39.7639
34.3848
29.4867
25.4653
22.1918
19.7708
18.6605
19.4795
21.8519
24.3558
26.6072
29.7887
34.1326
39.4823
45.5983
51.7274
56.6294
60.5947
65.2387
69.3808
72.0763
73.7311
75.2639
76.2659
77.0251
77.3191
77.0691
76.4683
75.2228
73.2814
71.021
68.2087
64.9425
60.8521
55.6145
49.7975
43.2683
38.5991
34.2944
30.7118
27.4596
27.2059
26.4734
27.5901
29.6615
33.7239
38.8077
43.4368
48.0112
54.119
60.6101
66.6329
72.293
77.523
82.1413
85.0339
86.1638
86.1698
85.4656
84.5887
83.5395
83.1884
82.0979
80.5918
74.0297
65.8878
28.5866
60.1934
56.3837
49.5459
40.4694
32.3286
26.6308
21.9704
21.5444
27.8969
37.4451
46.835
56.413
66.6798
75.2838
82.4742
87.8996
92.662
96.7875
100.771
103.341
105.527
108.272
105.401
96.049
86.0552
78.6051
72.7137
65.9692
59.914
55.8793
50.8357
46.0952
43.8342
42.1247
40.1844
39.3566
39.8221
41.0523
42.882
45.2802
48.2381
51.483
54.5042
57.368
60.403
63.6017
66.4383
68.6675
70.2489
70.7647
70.222
68.8554
66.3599
63.5258
60.4341
56.9205
53.2123
48.8254
43.9834
38.8398
33.0888
26.9986
20.475
14.1244
8.81508
4.52424
1.81899
0.675066
0.856537
2.61872
5.93753
10.6903
16.0063
21.3943
27.1786
33.2225
38.9574
45.0825
51.5398
56.9808
62.0693
66.8226
70.6483
73.6799
76.1736
78.261
79.9998
81.2015
82.2499
83.3597
83.931
84.3522
84.7601
84.7937
84.972
85.201
85.008
84.7482
84.4864
83.9992
83.3179
82.3443
81.3387
80.2965
78.3929
76.2057
74.2302
71.7094
68.6662
65.8495
62.8986
60.0009
58.1419
56.7315
55.4923
55.4197
56.5786
58.185
60.4854
63.3994
66.4142
69.4289
71.7345
73.1041
73.869
73.4341
71.4898
68.3818
64.4739
59.9653
55.2627
50.1973
44.4107
38.5168
32.9206
27.9472
23.795
20.4871
18.1359
17.1574
18.2301
20.7296
23.1329
25.3015
28.4317
32.7929
38.3475
44.7223
50.998
55.9967
60.0561
64.9306
69.0931
71.7537
73.3906
75.0202
75.9577
76.7727
77.0542
76.8842
76.4541
75.1828
73.4844
71.3993
68.6771
65.5668
61.6655
56.6226
51.0861
44.6682
40.0935
35.6847
32.3865
28.9477
28.5469
27.893
28.6146
30.6913
34.2437
39.0315
43.352
47.6813
53.5335
60.0618
66.2942
71.7248
77.1752
81.7135
84.9438
86.0795
85.9608
84.8875
83.7565
82.1914
82.0267
80.0588
79.4678
70.2604
61.857
26.4624
59.6913
56.4194
50.7445
42.0741
34.3242
29.6519
26.0957
26.086
32.0958
41.2505
50.3187
59.0877
68.4549
76.468
83.2232
88.3722
92.6511
96.7689
100.253
102.681
104.425
106.588
104.644
96.848
87.7964
80.2462
74.1212
67.4659
61.6236
57.6363
52.4989
47.875
45.8383
44.2842
42.5384
41.9259
42.6311
44.0757
45.8745
48.1017
50.931
54.0717
56.9151
59.5738
62.3856
65.3888
68.1012
70.3024
71.7729
72.1302
71.4788
69.9499
67.2232
64.2828
61.1584
57.4634
53.6055
48.9083
43.7505
38.3371
32.2072
25.6685
18.7609
11.9931
6.37398
1.92415
-0.95465
-2.25077
-1.99585
-0.0569987
3.54165
8.71692
14.3687
20.0956
26.3176
32.6346
38.426
44.6324
51.0665
56.557
61.8805
66.819
70.6848
73.8644
76.4292
78.5346
80.3378
81.5556
82.5815
83.6608
84.1986
84.5797
84.9618
84.9932
85.1768
85.3734
85.1989
84.9528
84.6456
84.1671
83.4494
82.5193
81.6624
80.6834
78.8721
76.9303
75.1927
72.808
70.0921
67.8038
65.1284
62.3601
60.7639
59.54
58.3585
58.3887
59.6101
61.1488
63.3927
66.2364
69.0936
71.9548
74.1516
75.352
75.8927
75.1599
72.8068
69.2546
64.8845
60.0372
55.0953
49.7271
43.6678
37.5001
31.709
26.6564
22.3833
19.0502
16.782
15.9647
17.284
19.8614
22.1563
24.2638
27.3099
31.6724
37.4131
44.0108
50.407
55.4661
59.6548
64.6839
68.8809
71.4452
73.1404
74.7939
75.7366
76.5844
76.9018
76.8096
76.5259
75.2927
73.8686
71.8006
69.1428
66.1535
62.4745
57.7095
52.5574
46.2382
41.7357
37.1458
34.1414
30.6186
29.963
29.4128
29.6859
31.7792
34.9758
39.3508
43.4111
47.3911
52.7761
59.1148
65.79
71.088
76.7913
81.11
84.6732
85.8759
85.6928
84.3075
82.8715
80.5425
81.0435
77.7341
78.8004
66.7543
58.1061
27.8601
59.498
56.6126
52.0495
44.1315
36.5722
32.5733
30.2823
30.7129
36.044
44.4964
53.22
61.3035
69.8447
77.4309
83.6509
88.6552
92.5353
96.5076
99.8605
102.173
103.341
104.808
103.428
97.0532
89.0134
81.6503
75.4905
69.1357
63.5814
59.4686
54.3002
49.8702
48.0331
46.624
45.0789
44.696
45.6522
47.2801
48.9914
50.9624
53.5675
56.5352
59.2046
61.6711
64.3056
67.1342
69.7466
71.9325
73.2938
73.5391
72.7996
71.0729
68.1385
65.1231
61.9639
58.0753
54.0443
49.0663
43.6159
37.93
31.4065
24.4255
17.1481
10.0206
4.16239
-0.46418
-3.57673
-4.9899
-4.62369
-2.55801
1.31507
6.87892
12.7769
18.8483
25.5551
32.1479
38.0412
44.3454
50.7201
56.2444
61.7742
66.8468
70.758
74.0968
76.7342
78.8593
80.7263
81.959
82.9634
83.9948
84.49
84.8324
85.1866
85.2234
85.3969
85.5518
85.4107
85.1682
84.8052
84.3392
83.6066
82.7153
81.971
81.0564
79.3634
77.6191
76.0612
73.833
71.4153
69.5341
67.1401
64.5951
63.2031
62.1053
61.0059
61.1353
62.3993
63.8862
66.0943
68.8798
71.6152
74.3821
76.489
77.5622
77.9306
76.931
74.1847
70.233
65.4224
60.27
55.0807
49.4267
43.1319
36.7232
30.7716
25.6385
21.2557
17.9136
15.7193
15.0916
16.6509
19.2577
21.4784
23.5643
26.4734
30.7962
36.7035
43.5003
49.935
55.0419
59.3779
64.5228
68.7875
71.196
72.9549
74.6124
75.6169
76.4486
76.8458
76.8137
76.6199
75.4434
74.1626
72.1143
69.6294
66.7301
63.3935
58.9051
54.1391
47.9014
43.461
38.6394
35.8631
32.4197
31.3502
30.9247
30.8195
32.793
35.8772
39.7408
43.7105
47.2798
52.1319
57.9023
64.7277
70.0573
76.029
80.3685
84.1276
85.515
85.3417
83.5279
82.0266
78.6292
79.8741
75.0926
78.0892
63.4048
54.3287
29.5349
59.6927
57.0372
53.0125
46.3118
39.2104
35.4633
34.1693
35.1349
39.9215
47.499
55.7898
63.2344
70.8603
78.0778
83.7592
88.6537
92.3008
96.0808
99.4594
101.685
102.342
103.257
102.026
96.5998
89.6091
82.7624
76.8529
71.0352
65.7477
61.4448
56.4007
52.2196
50.5752
49.296
47.9137
47.7067
48.8058
50.5196
52.1232
53.7835
56.1063
58.8541
61.3437
63.6369
66.1571
68.8311
71.3712
73.5246
74.8217
74.9656
74.1514
72.2312
69.0871
66.0316
62.78
58.7506
54.5219
49.2889
43.5822
37.6202
30.7105
23.3112
15.6749
8.27167
2.2337
-2.57975
-5.94929
-7.42999
-6.94106
-4.79784
-0.694014
5.17288
11.2848
17.7163
24.8698
31.7243
37.7864
44.2192
50.5115
56.0343
61.7627
66.9254
70.8797
74.3677
77.0724
79.2324
81.1696
82.3958
83.3632
84.3522
84.8217
85.1342
85.4454
85.4821
85.6253
85.7368
85.6341
85.3827
84.9784
84.5199
83.7888
82.9353
82.2564
81.419
79.8581
78.2621
76.8508
74.8118
72.6465
71.0448
68.9196
66.6725
65.438
64.3918
63.4182
63.6709
64.9233
66.369
68.5786
71.3306
73.9643
76.6669
78.7344
79.7121
79.9697
78.7289
75.6302
71.2903
66.103
60.6711
55.2141
49.29
42.7902
36.1755
30.1116
24.9085
20.4414
17.0961
14.9856
14.5835
16.3502
18.9359
21.1415
23.2132
25.9402
30.2127
36.2596
43.1861
49.5888
54.775
59.2455
64.4983
68.7668
71.0073
72.8172
74.5144
75.5692
76.3792
76.8403
76.9214
76.7057
75.6405
74.4599
72.6193
70.2805
67.5067
64.4984
60.1643
55.7479
49.5466
45.2192
40.1169
37.4784
34.2831
32.7111
32.3416
31.9893
33.6983
36.8045
40.181
44.044
47.3674
51.7161
56.8875
63.1159
68.3676
74.2981
79.1417
83.1942
84.7808
84.7544
82.6559
80.9491
76.069
78.3993
72.4501
76.6116
60.3074
50.1406
30.0213
60.0994
57.6312
53.9344
48.4835
42.22
38.7143
38.0211
39.4913
43.8989
50.4949
58.0318
64.9224
71.6379
78.4291
83.6639
88.4078
91.8962
95.4734
98.9127
100.799
101.271
101.82
100.424
95.6373
89.6918
83.549
78.141
72.9721
67.9266
63.5974
58.8689
55.0047
53.4619
52.2345
51.016
50.8914
51.9844
53.6651
55.1302
56.4922
58.5138
61.014
63.336
65.4891
67.9051
70.4738
72.9782
75.081
76.3412
76.4017
75.5004
73.4046
70.0755
66.9875
63.5494
59.4595
55.0336
49.5529
43.629
37.4113
30.1458
22.3758
14.3802
6.75968
0.600338
-4.39787
-7.98791
-9.47613
-8.87133
-6.71222
-2.44144
3.62634
9.90015
16.7141
24.2935
31.3845
37.6663
44.2581
50.4148
55.9426
61.8844
67.0249
71.0335
74.6956
77.4419
79.6506
81.6433
82.8522
83.8021
84.7489
85.1895
85.4734
85.7271
85.7542
85.8628
85.9289
85.8549
85.5905
85.1658
84.7111
84.0012
83.1807
82.5218
81.7668
80.3379
78.854
77.5774
75.7646
73.7915
72.349
70.5012
68.5802
67.4462
66.417
65.5987
65.9781
67.1864
68.6243
70.8599
73.5429
76.1298
78.8085
80.8695
81.7882
81.9811
80.5475
77.1287
72.4142
66.9228
61.2301
55.5154
49.3408
42.6585
35.8474
29.7011
24.4529
19.9359
16.6006
14.5999
14.4569
16.3716
18.9031
21.1338
23.1667
25.7169
29.9466
36.103
43.0561
49.4049
54.6728
59.2614
64.5831
68.7901
70.8944
72.7253
74.5111
75.5975
76.4349
76.9087
77.1629
76.8587
76.0222
74.8907
73.371
71.0618
68.4879
65.6038
61.3859
57.3467
51.1162
47.0025
41.6556
39.0096
36.1641
34.0559
33.6499
33.1948
34.5607
37.545
40.6398
44.2793
47.5722
51.5061
56.1998
61.7557
66.6188
71.9992
77.0752
81.626
83.2318
83.7136
81.0735
79.9099
73.49
75.6279
69.9609
73.1262
56.9555
45.4533
29.3168
60.5805
58.2216
54.7451
50.3398
45.1643
42.1097
41.8024
43.5787
47.6474
53.2583
59.9691
66.3254
72.3474
78.6168
83.5215
87.9882
91.3791
94.6853
98.1194
99.6707
100.049
100.353
98.7667
94.5233
89.4572
84.0712
79.2815
74.6785
69.899
65.8537
61.5718
58.0473
56.4964
55.3032
54.3001
54.154
55.067
56.6082
57.9139
59.024
60.7849
63.049
65.1749
67.2237
69.5541
72.0622
74.5319
76.609
77.847
77.8351
76.8321
74.5539
71.0913
67.9687
64.3028
60.1708
55.5747
49.8636
43.7495
37.2776
29.707
21.654
13.3092
5.49369
-0.775939
-5.93415
-9.65884
-11.0864
-10.3954
-8.27667
-3.91952
2.25176
8.68915
15.8865
23.7972
31.119
37.7026
44.4296
50.4137
56.0052
62.0969
67.1429
71.2879
75.0749
77.8197
80.1313
82.1522
83.3317
84.2757
85.1581
85.5715
85.8355
86.0233
86.0399
86.1096
86.1237
86.0614
85.7931
85.3813
84.9256
84.2495
83.4494
82.7608
82.0717
80.7725
79.3941
78.2764
76.6912
74.836
73.4943
71.9313
70.3102
69.2374
68.2308
67.5643
68.0535
69.2263
70.6507
72.9244
75.5515
78.1188
80.8032
82.8539
83.787
83.9442
82.3817
78.6592
73.605
67.835
61.9309
55.989
49.6113
42.7502
35.7475
29.5093
24.2362
19.7153
16.4058
14.5414
14.6887
16.6683
19.1201
21.3808
23.3356
25.7594
29.9829
36.2382
43.0882
49.3437
54.6717
59.441
64.7663
68.897
70.8409
72.6895
74.5966
75.694
76.5632
77.0286
77.4317
77.142
76.5721
75.3895
74.2236
71.8856
69.4872
66.5918
62.5335
58.9145
52.6764
48.8531
43.3764
40.483
37.9823
35.4177
34.8951
34.3842
35.435
38.1898
41.1419
44.534
47.6892
51.4461
55.5622
61.0944
65.6673
70.4427
74.5774
79.2908
80.49
81.8319
78.5897
78.4295
71.348
71.2379
66.2416
67.0124
52.2874
40.4207
28.1454
61.6052
59.4083
55.4804
51.6553
47.5801
45.0622
45.0767
46.8872
50.7231
55.6062
61.6197
67.4731
72.9549
78.7864
83.4392
87.526
90.8223
93.8295
97.1009
98.4558
98.6893
98.8097
97.1987
93.479
89.0759
84.4054
80.209
76.0239
71.6228
68.0572
64.2806
61.1515
59.5215
58.3973
57.5881
57.3182
57.9445
59.2849
60.4271
61.36
62.9113
64.9488
66.8818
68.8522
71.1158
73.596
76.0375
78.1006
79.3037
79.2427
78.1275
75.6278
72.093
68.9465
65.0779
60.8838
56.1428
50.234
43.9631
37.2078
29.4069
21.1509
12.4976
4.50289
-1.89707
-7.18738
-10.9697
-12.2903
-11.5734
-9.52485
-5.13825
1.08223
7.69442
15.2265
23.4006
30.962
37.8649
44.6745
50.5138
56.2264
62.3885
67.327
71.6181
75.46
78.2353
80.6727
82.6618
83.8184
84.7822
85.5823
85.9656
86.2158
86.3281
86.3215
86.3581
86.3312
86.264
86.0095
85.6366
85.1629
84.5191
83.7245
82.9762
82.3173
81.152
79.9023
78.9496
77.5441
75.7896
74.5383
73.2283
71.8662
70.8296
69.851
69.3535
69.9175
71.0368
72.4821
74.7938
77.3602
79.9163
82.6583
84.7065
85.6917
85.8637
84.1897
80.2101
74.843
68.8172
62.7337
56.6196
50.1029
43.0742
35.8903
29.5488
24.24
19.7442
16.5009
14.7689
15.1796
17.1723
19.5395
21.8018
23.6449
26.0351
30.2937
36.6395
43.2496
49.4352
54.852
59.7806
65.0425
69.0426
70.8262
72.7606
74.7025
75.8417
76.7796
77.2168
77.7121
77.5995
77.161
75.9571
75.0281
72.6825
70.4601
67.5916
63.6912
60.5212
54.3403
50.7227
45.2507
41.8795
39.685
36.8147
36.1163
35.5771
36.3729
38.9366
41.6976
44.8704
47.6459
51.1353
54.713
60.2987
65.3571
69.7837
72.7231
76.4659
77.2033
79.5237
75.8878
75.4208
69.6082
66.3755
61.6929
56.2696
45.6826
36.1949
27.2999
62.5526
60.5213
56.2134
52.719
49.6179
47.5846
47.7403
49.4122
53.0798
57.5722
62.9175
68.3837
73.4183
78.8461
83.3603
87.0948
90.2574
92.9832
95.9396
97.2029
97.2683
97.2169
95.8263
92.6022
88.6651
84.6193
80.9474
77.0732
73.1141
70.0497
66.8772
64.1151
62.3599
61.3431
60.6603
60.2353
60.5515
61.6555
62.674
63.5033
64.889
66.7287
68.4793
70.3844
72.614
75.0746
77.481
79.5531
80.7034
80.5923
79.389
76.6124
73.0297
69.8785
65.8894
61.6062
56.7234
50.6636
44.2605
37.2431
29.2611
20.8395
11.9527
3.82843
-2.74491
-8.14214
-11.9336
-13.1781
-12.4878
-10.5204
-6.10551
0.150373
6.94118
14.7694
23.1328
30.92
38.1536
44.9924
50.7525
56.6186
62.7269
67.5582
72.0127
75.8647
78.6885
81.2306
83.1756
84.338
85.3262
86.0153
86.3603
86.6012
86.6326
86.5946
86.6176
86.5639
86.473
86.2516
85.918
85.395
84.7744
83.9963
83.1796
82.5212
81.4994
80.3957
79.5688
78.287
76.6769
75.5228
74.4086
73.2444
72.2375
71.3205
70.9663
71.582
72.658
74.1318
76.4507
78.9777
81.5613
84.3653
86.4229
87.477
87.7183
85.9509
81.7506
76.105
69.8675
63.6132
57.3792
50.7793
43.6233
36.2992
29.8498
24.5082
20.0372
16.8567
15.2428
15.89
17.823
20.1155
22.343
24.079
26.5267
30.8624
37.2657
43.4953
49.679
55.2053
60.1866
65.414
69.2105
70.9021
72.9074
74.7761
76.1035
77.0882
77.4856
78.0828
78.1573
77.6408
76.5733
75.717
73.5094
71.484
68.7495
64.9356
62.243
56.1156
52.5052
47.1297
43.1786
41.3057
38.268
37.3639
36.8767
37.3829
39.8528
42.4219
45.2411
47.6491
50.3878
53.7338
58.8472
64.7578
69.0739
71.4592
74.1923
74.4895
76.6467
72.9456
71.8759
66.7026
62.5792
56.8856
46.5964
40.4161
33.6124
27.0297
63.2082
61.4506
57.1886
53.8686
51.3853
49.7423
49.965
51.5342
55.027
59.2804
64.0518
69.1202
73.845
78.8372
83.1053
86.6073
89.6686
92.1598
94.7505
95.991
95.8976
95.7365
94.6958
91.8264
88.254
84.8072
81.5489
77.8879
74.3788
71.8102
69.2438
66.7152
64.8664
63.9563
63.3561
62.7879
62.8467
63.7322
64.6664
65.4695
66.7279
68.3858
69.9827
71.827
74.0429
76.4782
78.8553
80.9141
82.0382
81.8577
80.5697
77.516
73.8842
70.7063
66.729
62.327
57.3108
51.1848
44.6519
37.3988
29.2548
20.7037
11.6726
3.48646
-3.26579
-8.77173
-12.5599
-13.8075
-13.2025
-11.2727
-6.77535
-0.472211
6.48278
14.5187
23.0084
31.0301
38.5561
45.3772
51.1406
57.1336
63.093
67.895
72.4747
76.2734
79.172
81.7977
83.6953
84.884
85.8939
86.4607
86.7699
86.9941
86.9403
86.8756
86.9055
86.8361
86.7016
86.5122
86.19
85.6037
85.0062
84.2607
83.4059
82.743
81.846
80.8637
80.1054
78.9294
77.5102
76.449
75.4731
74.4668
73.515
72.6597
72.4283
73.0642
74.0947
75.609
77.9316
80.4157
83.0342
85.9025
87.9951
89.1455
89.477
87.6443
83.2511
77.3854
70.9687
64.5515
58.242
51.5842
44.366
36.9667
30.4349
25.0696
20.6473
17.4965
15.9493
16.753
18.5796
20.8433
22.9917
24.6804
27.2559
31.714
38.0087
43.8121
50.0997
55.6882
60.6508
65.8716
69.3836
71.059
73.0791
74.9533
76.5173
77.4165
77.8682
78.5368
78.6699
78.0125
77.2895
76.4175
74.5224
72.5537
70.054
66.2607
64.0444
57.9195
54.1572
48.9151
44.4707
42.8975
39.8162
38.6606
38.3068
38.5856
40.9223
43.4276
45.6154
47.7873
49.8341
52.9346
57.5165
63.7879
67.721
70.107
72.4646
72.3482
73.3648
69.6672
68.2399
62.4039
58.4288
52.0412
43.8558
40.9031
32.8821
27.5715
63.7674
62.3517
58.3
55.0374
52.9747
51.6865
51.9833
53.5075
56.7714
60.7501
65.097
69.7795
74.1585
78.839
82.7639
85.9893
88.9872
91.2933
93.5919
94.8561
94.6464
94.4631
93.6651
91.0371
87.8759
84.9569
81.9855
78.5521
75.4582
73.3035
71.1912
68.8359
67.0108
66.182
65.639
65.0169
64.8811
65.5881
66.4687
67.2843
68.4798
69.954
71.4036
73.1704
75.3912
77.7905
80.147
82.1535
83.2459
83.0119
81.6268
78.3466
74.668
71.4074
67.5147
63.0095
57.9186
51.7865
45.149
37.6953
29.4027
20.7487
11.6503
3.44544
-3.43376
-9.02698
-12.8372
-14.1774
-13.6796
-11.7098
-7.10725
-0.752827
6.34486
14.5085
23.0732
31.2983
39.0597
45.8445
51.6679
57.7428
63.5201
68.3504
72.9519
76.7051
79.6962
82.3734
84.2296
85.4676
86.4645
86.9104
87.1965
87.4002
87.2664
87.1697
87.2117
87.1363
86.9615
86.7738
86.4309
85.7844
85.2143
84.5329
83.6888
83.0005
82.2065
81.3011
80.5641
79.4937
78.2764
77.3204
76.4368
75.5568
74.6716
73.8877
73.7496
74.3751
75.375
76.9389
79.2368
81.6749
84.3492
87.2725
89.4086
90.6787
91.1308
89.2584
84.6997
78.6612
72.083
65.5429
59.1714
52.4817
45.256
37.8658
31.2848
25.9102
21.5665
18.4392
16.9093
17.7733
19.4554
21.7365
23.7638
25.5127
28.2849
32.8415
38.7512
44.2632
50.7561
56.2993
61.2307
66.3717
69.5516
71.2539
73.3114
75.3044
77.0101
77.8213
78.4043
78.9744
79.1659
78.4595
78.1614
77.1785
75.6956
73.6037
71.4171
67.6119
65.7973
59.7044
55.7167
50.624
45.8487
44.4448
41.4619
40.0631
39.8569
40.0187
42.0628
44.6266
46.2564
47.8558
49.7583
52.5116
56.8943
63.1618
66.1908
68.6907
70.0243
69.8916
70.2069
66.64
63.9434
58.9979
54.4215
49.0005
44.1602
43.2841
34.0753
29.0649
64.2394
63.098
59.3098
56.211
54.432
53.4563
53.848
55.2999
58.3403
62.0172
65.9736
70.3694
74.3739
78.7398
82.438
85.3976
88.2485
90.337
92.4351
93.7669
93.5267
93.3242
92.6299
90.3078
87.5617
85.0313
82.3296
79.183
76.4196
74.5717
72.7354
70.5391
68.8253
68.0559
67.6251
67.0033
66.7437
67.3455
68.188
69.0273
70.1781
71.439
72.7278
74.4165
76.6177
78.9912
81.3164
83.2691
84.3083
84.0276
82.533
79.1149
75.3669
72.02
68.1623
63.6116
58.5587
52.3618
45.7369
38.1725
29.7591
21.0385
11.854
3.68849
-3.21475
-8.8949
-12.7365
-14.2138
-13.8161
-11.7474
-7.03605
-0.666816
6.52136
14.7521
23.347
31.7459
39.6718
46.3959
52.3228
58.4214
64.0167
68.8995
73.4398
77.1864
80.2734
82.9582
84.7721
86.0715
87.02
87.3794
87.6572
87.8081
87.616
87.5003
87.5354
87.4519
87.2485
87.0264
86.6435
85.954
85.4359
84.8469
84.0168
83.2776
82.5672
81.7127
80.9663
79.9974
78.9834
78.1315
77.3073
76.5379
75.7214
74.9969
74.9313
75.5446
76.5041
78.109
80.3832
82.7679
85.4951
88.4561
90.6574
92.0919
92.6694
90.7881
86.079
79.8986
73.1835
66.5761
60.1412
53.4671
46.2589
38.9508
32.3515
26.9787
22.7457
19.6711
18.1421
18.9578
20.4858
22.8197
24.7046
26.6089
29.5934
34.1156
39.4645
44.9258
51.5615
56.979
61.9396
66.8949
69.7609
71.5013
73.6514
75.7481
77.502
78.2699
78.9392
79.4319
79.7773
79.095
79.0394
77.9137
76.9125
74.603
72.7403
68.9326
67.3927
61.5062
57.1644
52.2549
47.322
45.9827
43.2555
41.6049
41.4147
41.6168
43.3014
45.7988
47.0846
47.8028
49.7703
52.5528
56.9365
63.0961
65.5871
67.7293
67.2217
67.1743
66.958
63.8182
59.7026
56.0947
52.2073
49.1328
45.3459
44.55
35.6355
30.7949
64.5889
63.6398
60.232
57.3416
55.7123
54.9999
55.6015
56.8934
59.6134
63.0685
66.6915
70.8153
74.531
78.5303
82.0391
84.8313
87.5733
89.4695
91.3311
92.6592
92.5007
92.2419
91.6681
89.7159
87.2111
84.9635
82.6348
79.8074
77.3218
75.6779
74.0125
72.0092
70.425
69.7055
69.3825
68.8177
68.5623
69.0896
69.8179
70.6544
71.7632
72.8184
73.9247
75.5496
77.7287
80.0666
82.346
84.2312
85.2057
84.8842
83.2552
79.7565
75.9215
72.5744
68.669
64.1336
59.191
52.8736
46.4047
38.7959
30.3718
21.6427
12.3108
4.23165
-2.58419
-8.38135
-12.2356
-13.8475
-13.5108
-11.3412
-6.58531
-0.244543
6.9966
15.239
23.8306
32.3587
40.3741
47.05
53.089
59.1592
64.5996
69.5098
73.937
77.7236
80.8702
83.5186
85.3196
86.7069
87.5706
87.865
88.1467
88.2066
87.9937
87.8677
87.8669
87.7743
87.549
87.2727
86.8401
86.1472
85.7073
85.199
84.3394
83.5537
82.9113
82.1003
81.3256
80.4798
79.6497
78.8637
78.0942
77.4197
76.6578
75.995
75.9777
76.5709
77.4993
79.1251
81.3648
83.6844
86.4622
89.47
91.7306
93.3644
94.0847
92.2279
87.3994
81.0769
74.293
67.6097
61.1836
54.5239
47.3913
40.1482
33.6001
28.2264
24.1164
21.1443
19.6408
20.3634
21.7276
24.08
25.8464
27.9636
31.072
35.39
40.2562
45.885
52.499
57.7605
62.715
67.4082
69.9883
71.8295
74.0851
76.1989
78.0195
78.7646
79.4707
80.0068
80.4446
79.7873
79.8086
78.636
78.1197
75.5053
73.9792
70.1918
68.7946
63.2087
58.42
53.712
48.9543
47.5454
45.1089
43.2243
42.9036
43.2667
44.6087
46.8797
47.9207
47.9238
49.7411
52.9272
57.2542
63.0557
65.6791
66.8465
65.5465
65.4793
63.8617
61.1197
57.4718
54.6888
51.3453
50.0386
47.4762
46.0733
37.2641
32.1349
64.8363
64.0894
61.0939
58.4095
56.9899
56.4011
57.0562
58.2376
60.706
63.996
67.3417
71.1615
74.5727
78.2338
81.5991
84.188
86.8242
88.6893
90.3492
91.6406
91.5528
91.1906
90.7883
89.1701
86.7951
84.8483
82.9194
80.3829
78.1248
76.5984
75.1432
73.4326
71.9597
71.2344
70.9679
70.5414
70.3453
70.715
71.277
72.1253
73.1991
74.0702
75.0355
76.6047
78.7425
80.9983
83.2061
85.017
85.9098
85.5464
83.7903
80.1924
76.304
73.0373
69.0677
64.6114
59.7405
53.4195
47.071
39.4818
31.2275
22.47
13.1177
5.09027
-1.6419
-7.49719
-11.326
-13.0476
-12.7478
-10.5257
-5.83051
0.455341
7.73851
15.9349
24.5241
33.1518
41.1798
47.8052
53.9423
59.9502
65.2503
70.1326
74.4489
78.3081