/*--------------------------------*- C++ -*----------------------------------*\
| =========                 |                                                 |
| \\      /  F ield         | OpenFOAM: The Open Source CFD Toolbox           |
|  \\    /   O peration     | Version:  2.4.0                                 |
|   \\  /    A nd           | Web:      www.OpenFOAM.org                      |
|    \\/     M anipulation  |                                                 |
\*---------------------------------------------------------------------------*/
FoamFile
{
    version     2.0;
    format      ascii;
    class       surfaceScalarField;
    location    "0.019";
    object      phi;
}
// * * * * * * * * * * * * * * * * * * * * * * * * * * * * * * * * * * * * * //

dimensions      [0 3 -1 0 0 0 0];

internalField   nonuniform List<scalar> 
34880
(
1.2158e-05
3.42006e-07
1.18568e-05
3.01193e-07
1.157e-05
2.86779e-07
1.12861e-05
2.83842e-07
1.10137e-05
2.72446e-07
1.07571e-05
2.56562e-07
1.05179e-05
2.39134e-07
1.02965e-05
2.21386e-07
1.00926e-05
2.03905e-07
9.90548e-06
1.87045e-07
9.73445e-06
1.71006e-07
9.57843e-06
1.55958e-07
9.43636e-06
1.42044e-07
9.30675e-06
1.29558e-07
9.18774e-06
1.18974e-07
9.07659e-06
1.11197e-07
8.96827e-06
1.08151e-07
8.85387e-06
1.14427e-07
8.71046e-06
1.43151e-07
3.65727e-07
8.34457e-06
1.24955e-05
3.46536e-07
1.24494e-05
3.47218e-07
1.23924e-05
3.43781e-07
1.23212e-05
3.55049e-07
1.22379e-05
3.55762e-07
1.21453e-05
3.49084e-07
1.20459e-05
3.38551e-07
1.19416e-05
3.25663e-07
1.18342e-05
3.11248e-07
1.17253e-05
2.95942e-07
1.1616e-05
2.80232e-07
1.15074e-05
2.64575e-07
1.14e-05
2.49424e-07
1.1294e-05
2.35496e-07
1.1189e-05
2.23872e-07
1.10837e-05
2.16609e-07
1.09738e-05
2.17788e-07
1.08511e-05
2.37129e-07
1.06859e-05
3.08054e-07
5.74514e-07
1.04769e-05
1.25262e-05
3.20308e-07
1.25337e-05
3.39741e-07
1.25359e-05
3.41554e-07
1.25341e-05
3.56804e-07
1.25273e-05
3.62609e-07
1.25155e-05
3.60847e-07
1.24989e-05
3.55116e-07
1.24776e-05
3.46945e-07
1.24517e-05
3.37132e-07
1.24213e-05
3.26334e-07
1.23864e-05
3.1508e-07
1.2347e-05
3.03914e-07
1.2303e-05
2.93408e-07
1.2254e-05
2.84512e-07
1.21991e-05
2.78749e-07
1.21367e-05
2.79004e-07
1.20631e-05
2.91345e-07
1.19704e-05
3.29886e-07
1.1838e-05
4.40291e-07
7.31001e-07
1.16814e-05
1.25308e-05
2.89479e-07
1.25492e-05
3.21388e-07
1.2564e-05
3.26697e-07
1.2578e-05
3.4285e-07
1.259e-05
3.50531e-07
1.26001e-05
3.50787e-07
1.2608e-05
3.47184e-07
1.26136e-05
3.41259e-07
1.2617e-05
3.33792e-07
1.26178e-05
3.25437e-07
1.26161e-05
3.16755e-07
1.26117e-05
3.0836e-07
1.26041e-05
3.00943e-07
1.25929e-05
2.95687e-07
1.25771e-05
2.94508e-07
1.2555e-05
3.01123e-07
1.2523e-05
3.23162e-07
1.24747e-05
3.7821e-07
1.23963e-05
5.18463e-07
8.30199e-07
1.2297e-05
1.253e-05
2.5947e-07
1.25512e-05
3.00134e-07
1.257e-05
3.07891e-07
1.25889e-05
3.24005e-07
1.2607e-05
3.3243e-07
1.26241e-05
3.33689e-07
1.264e-05
3.31238e-07
1.26546e-05
3.26594e-07
1.26679e-05
3.20507e-07
1.26797e-05
3.13628e-07
1.26899e-05
3.06529e-07
1.26983e-05
2.99875e-07
1.27048e-05
2.94449e-07
1.27088e-05
2.91625e-07
1.27097e-05
2.93679e-07
1.27059e-05
3.04937e-07
1.26946e-05
3.3439e-07
1.26712e-05
4.01692e-07
1.26271e-05
5.62388e-07
8.90599e-07
1.25667e-05
1.25277e-05
2.31726e-07
1.25498e-05
2.78062e-07
1.25701e-05
2.87543e-07
1.25909e-05
3.03191e-07
1.26115e-05
3.11856e-07
1.26315e-05
3.1368e-07
1.26508e-05
3.11968e-07
1.26691e-05
3.08192e-07
1.26866e-05
3.03077e-07
1.27029e-05
2.97259e-07
1.27181e-05
2.91322e-07
1.2732e-05
2.85968e-07
1.27443e-05
2.82064e-07
1.27548e-05
2.81142e-07
1.27627e-05
2.85753e-07
1.27669e-05
3.00804e-07
1.27649e-05
3.36225e-07
1.27533e-05
4.13181e-07
1.27267e-05
5.88824e-07
9.2872e-07
1.26885e-05
1.25253e-05
2.0645e-07
1.25474e-05
2.55934e-07
1.25683e-05
2.66612e-07
1.259e-05
2.81537e-07
1.26117e-05
2.90139e-07
1.2633e-05
2.92281e-07
1.26539e-05
2.9108e-07
1.26741e-05
2.87957e-07
1.26936e-05
2.83597e-07
1.27122e-05
2.78629e-07
1.27299e-05
2.73638e-07
1.27464e-05
2.69359e-07
1.27618e-05
2.66733e-07
1.27754e-05
2.67434e-07
1.27869e-05
2.74298e-07
1.27951e-05
2.92653e-07
1.27979e-05
3.33342e-07
1.27928e-05
4.18328e-07
1.27763e-05
6.05295e-07
9.53134e-07
1.27519e-05
1.2523e-05
1.83438e-07
1.25448e-05
2.34084e-07
1.25659e-05
2.45533e-07
1.25879e-05
2.59564e-07
1.26101e-05
2.67898e-07
1.26322e-05
2.7019e-07
1.26539e-05
2.69354e-07
1.26751e-05
2.66743e-07
1.26957e-05
2.63011e-07
1.27155e-05
2.58763e-07
1.27346e-05
2.54591e-07
1.27526e-05
2.51256e-07
1.27696e-05
2.49767e-07
1.27851e-05
2.51924e-07
1.27986e-05
2.60777e-07
1.28091e-05
2.82102e-07
1.2815e-05
3.27337e-07
1.28141e-05
4.19132e-07
1.28044e-05
6.14913e-07
9.67548e-07
1.27899e-05
1.2521e-05
1.62404e-07
1.25425e-05
2.12644e-07
1.25635e-05
2.24492e-07
1.25855e-05
2.37525e-07
1.2608e-05
2.45444e-07
1.26304e-05
2.4777e-07
1.26525e-05
2.47194e-07
1.26742e-05
2.44999e-07
1.26954e-05
2.41801e-07
1.2716e-05
2.38186e-07
1.27358e-05
2.34742e-07
1.27548e-05
2.32254e-07
1.27727e-05
2.31791e-07
1.27894e-05
2.35269e-07
1.28042e-05
2.45972e-07
1.28163e-05
2.69974e-07
1.28243e-05
3.19339e-07
1.28266e-05
4.1693e-07
1.28221e-05
6.1927e-07
9.74208e-07
1.28155e-05
1.25193e-05
1.43074e-07
1.25403e-05
1.91652e-07
1.25612e-05
2.03562e-07
1.25832e-05
2.15532e-07
1.26057e-05
2.22937e-07
1.26282e-05
2.25214e-07
1.26506e-05
2.24826e-07
1.26726e-05
2.22978e-07
1.26942e-05
2.2025e-07
1.27151e-05
2.17203e-07
1.27354e-05
2.14423e-07
1.27549e-05
2.12714e-07
1.27735e-05
2.13201e-07
1.27909e-05
2.17897e-07
1.28066e-05
2.30251e-07
1.28199e-05
2.56673e-07
1.28295e-05
3.09569e-07
1.28343e-05
4.1203e-07
1.28343e-05
6.192e-07
9.74228e-07
1.28342e-05
1.25179e-05
1.25195e-07
1.25384e-05
1.71102e-07
1.25592e-05
1.82763e-07
1.25811e-05
1.9363e-07
1.26036e-05
2.00448e-07
1.26262e-05
2.02619e-07
1.26486e-05
2.02369e-07
1.26707e-05
2.00821e-07
1.26925e-05
1.98514e-07
1.27136e-05
1.95987e-07
1.27342e-05
1.93818e-07
1.27541e-05
1.92827e-07
1.27731e-05
1.94187e-07
1.27909e-05
2e-07
1.28073e-05
2.13899e-07
1.28215e-05
2.42491e-07
1.28325e-05
2.98564e-07
1.28395e-05
4.05061e-07
1.28433e-05
6.15325e-07
9.68624e-07
1.2849e-05
1.25166e-05
1.08547e-07
1.25368e-05
1.50972e-07
1.25574e-05
1.62096e-07
1.25792e-05
1.7183e-07
1.26016e-05
1.78007e-07
1.26242e-05
1.80033e-07
1.26467e-05
1.79889e-07
1.26689e-05
1.78607e-07
1.26907e-05
1.76689e-07
1.2712e-05
1.74648e-07
1.27328e-05
1.73054e-07
1.27528e-05
1.72738e-07
1.27721e-05
1.74916e-07
1.27903e-05
1.81763e-07
1.28072e-05
1.97026e-07
1.28221e-05
2.27548e-07
1.28343e-05
2.86243e-07
1.28433e-05
3.95967e-07
1.28505e-05
6.08023e-07
9.57962e-07
1.28612e-05
1.25156e-05
9.29336e-08
1.25353e-05
1.31226e-07
1.25559e-05
1.41553e-07
1.25776e-05
1.5013e-07
1.25999e-05
1.55624e-07
1.26225e-05
1.57472e-07
1.2645e-05
1.5741e-07
1.26672e-05
1.56374e-07
1.2689e-05
1.54821e-07
1.27104e-05
1.53238e-07
1.27313e-05
1.52187e-07
1.27514e-05
1.52504e-07
1.27709e-05
1.5544e-07
1.27894e-05
1.63234e-07
1.28066e-05
1.79767e-07
1.28222e-05
2.11984e-07
1.28355e-05
2.72979e-07
1.28463e-05
3.85204e-07
1.28566e-05
5.97658e-07
9.42869e-07
1.28717e-05
1.25147e-05
7.81816e-08
1.25341e-05
1.11824e-07
1.25546e-05
1.21121e-07
1.25762e-05
1.2852e-07
1.25985e-05
1.33298e-07
1.2621e-05
1.34943e-07
1.26434e-05
1.34949e-07
1.26657e-05
1.34141e-07
1.26875e-05
1.32939e-07
1.27089e-05
1.31798e-07
1.27299e-05
1.31269e-07
1.27501e-05
1.32189e-07
1.27697e-05
1.3584e-07
1.27885e-05
1.44507e-07
1.2806e-05
1.62137e-07
1.28222e-05
1.95817e-07
1.28365e-05
2.58593e-07
1.2849e-05
3.72598e-07
1.28621e-05
5.84458e-07
9.2374e-07
1.28813e-05
1.2514e-05
6.41362e-08
1.25331e-05
9.27212e-08
1.25535e-05
1.00786e-07
1.2575e-05
1.06989e-07
1.25972e-05
1.11022e-07
1.26197e-05
1.12445e-07
1.26422e-05
1.12504e-07
1.26644e-05
1.11914e-07
1.26862e-05
1.11048e-07
1.27077e-05
1.10334e-07
1.27286e-05
1.10303e-07
1.2749e-05
1.11795e-07
1.27687e-05
1.16109e-07
1.27876e-05
1.25571e-07
1.28055e-05
1.44213e-07
1.28222e-05
1.79137e-07
1.28374e-05
2.43392e-07
1.28515e-05
3.58545e-07
1.28673e-05
5.68673e-07
9.01005e-07
1.289e-05
1.25135e-05
5.06583e-08
1.25323e-05
7.38719e-08
1.25526e-05
8.05331e-08
1.2574e-05
8.55237e-08
1.25962e-05
8.87906e-08
1.26187e-05
8.99738e-08
1.26411e-05
9.00771e-08
1.26633e-05
8.9696e-08
1.26852e-05
8.91603e-08
1.27066e-05
8.88609e-08
1.27276e-05
8.9316e-08
1.2748e-05
9.13557e-08
1.27678e-05
9.6298e-08
1.27869e-05
1.06485e-07
1.28051e-05
1.25971e-07
1.28223e-05
1.61912e-07
1.28384e-05
2.27173e-07
1.28541e-05
3.42826e-07
1.28722e-05
5.50472e-07
8.7499e-07
1.28982e-05
1.2513e-05
3.76205e-08
1.25317e-05
5.52263e-08
1.25518e-05
6.03467e-08
1.25732e-05
6.41111e-08
1.25954e-05
6.65938e-08
1.26179e-05
6.75236e-08
1.26403e-05
6.7663e-08
1.26625e-05
6.74835e-08
1.26843e-05
6.72677e-08
1.27058e-05
6.73723e-08
1.27268e-05
6.82944e-08
1.27473e-05
7.08546e-08
1.27672e-05
7.63759e-08
1.27864e-05
8.72153e-08
1.28049e-05
1.07463e-07
1.28226e-05
1.44219e-07
1.28396e-05
2.10205e-07
1.28567e-05
3.25812e-07
1.28771e-05
5.30039e-07
8.45997e-07
1.29061e-05
1.25127e-05
2.49052e-08
1.25312e-05
3.67349e-08
1.25513e-05
4.02112e-08
1.25727e-05
4.27388e-08
1.25948e-05
4.44234e-08
1.26173e-05
4.50902e-08
1.26397e-05
4.52602e-08
1.26618e-05
4.52774e-08
1.26837e-05
4.5377e-08
1.27052e-05
4.58778e-08
1.27262e-05
4.72564e-08
1.27467e-05
5.0316e-08
1.27667e-05
5.63845e-08
1.27861e-05
6.78064e-08
1.28049e-05
8.86568e-08
1.28231e-05
1.26004e-07
1.28409e-05
1.92286e-07
1.28594e-05
3.0727e-07
1.28819e-05
5.07514e-07
8.1432e-07
1.29136e-05
1.25125e-05
1.24011e-08
1.25309e-05
1.83458e-08
1.2551e-05
2.01094e-08
1.25723e-05
2.13918e-08
1.25945e-05
2.22706e-08
1.26169e-05
2.26659e-08
1.26392e-05
2.28622e-08
1.26614e-05
2.307e-08
1.26833e-05
2.34783e-08
1.27048e-05
2.43646e-08
1.27259e-05
2.61834e-08
1.27464e-05
2.97161e-08
1.27665e-05
3.62843e-08
1.2786e-05
4.82211e-08
1.28051e-05
6.95908e-08
1.28238e-05
1.07348e-07
1.28424e-05
1.73655e-07
1.28622e-05
2.87554e-07
1.28866e-05
4.83037e-07
7.80168e-07
1.29208e-05
1.25124e-05
1.75531e-12
1.25307e-05
8.38993e-12
1.25508e-05
2.50262e-11
1.25721e-05
5.9093e-11
1.25943e-05
1.25777e-10
1.26167e-05
2.47218e-10
1.2639e-05
4.66759e-10
1.26612e-05
8.6372e-10
1.26831e-05
1.57674e-09
1.27046e-05
2.84338e-09
1.27257e-05
5.09228e-09
1.27463e-05
9.07848e-09
1.27665e-05
1.61162e-08
1.27862e-05
2.84972e-08
1.28055e-05
5.02388e-08
1.28247e-05
8.8183e-08
1.28441e-05
1.54142e-07
1.28651e-05
2.66436e-07
1.28914e-05
4.56739e-07
7.43821e-07
1.29278e-05
1.25124e-05
-1.23977e-08
1.25307e-05
-1.83297e-08
1.25508e-05
-2.00597e-08
1.25721e-05
-2.12754e-08
1.25943e-05
-2.20194e-08
1.26167e-05
-2.21745e-08
1.26391e-05
-2.19324e-08
1.26612e-05
-2.13509e-08
1.26832e-05
-2.03377e-08
1.27047e-05
-1.87009e-08
1.27258e-05
-1.60368e-08
1.27464e-05
-1.16223e-08
1.27667e-05
-4.16198e-09
1.27866e-05
8.60108e-09
1.28062e-05
3.06298e-08
1.28258e-05
6.86023e-08
1.28459e-05
1.33953e-07
1.28682e-05
2.44258e-07
1.28962e-05
4.28727e-07
7.05422e-07
1.29346e-05
1.25125e-05
-2.49019e-08
1.25309e-05
-3.67185e-08
1.2551e-05
-4.0162e-08
1.25723e-05
-4.26222e-08
1.25945e-05
-4.41751e-08
1.26169e-05
-4.46019e-08
1.26393e-05
-4.43379e-08
1.26615e-05
-4.35704e-08
1.26834e-05
-4.22599e-08
1.27049e-05
-4.02561e-08
1.27261e-05
-3.71864e-08
1.27468e-05
-3.23619e-08
1.27671e-05
-2.45068e-08
1.27871e-05
-1.14323e-08
1.2807e-05
1.07494e-08
1.28271e-05
4.85301e-08
1.2848e-05
1.12953e-07
1.28714e-05
2.20803e-07
1.29009e-05
3.99131e-07
6.65242e-07
1.29412e-05
1.25127e-05
-3.76175e-08
1.25312e-05
-5.52111e-08
1.25513e-05
-6.02986e-08
1.25727e-05
-6.39982e-08
1.25949e-05
-6.6349e-08
1.26173e-05
-6.70448e-08
1.26397e-05
-6.67554e-08
1.26619e-05
-6.58055e-08
1.26838e-05
-6.41995e-08
1.27054e-05
-6.1839e-08
1.27266e-05
-5.8376e-08
1.27473e-05
-5.31662e-08
1.27678e-05
-4.49607e-08
1.27879e-05
-3.1631e-08
1.2808e-05
-9.38321e-09
1.28285e-05
2.80748e-08
1.28501e-05
9.13126e-08
1.28746e-05
1.96399e-07
1.29057e-05
3.68035e-07
6.23381e-07
1.29476e-05
1.2513e-05
-5.06557e-08
1.25317e-05
-7.3857e-08
1.25518e-05
-8.04863e-08
1.25733e-05
-8.54126e-08
1.25954e-05
-8.8552e-08
1.26179e-05
-8.95043e-08
1.26403e-05
-8.91881e-08
1.26625e-05
-8.80506e-08
1.26845e-05
-8.61515e-08
1.27061e-05
-8.34342e-08
1.27273e-05
-7.95874e-08
1.27481e-05
-7.40072e-08
1.27686e-05
-6.54772e-08
1.27889e-05
-5.19604e-08
1.28093e-05
-2.97623e-08
1.28302e-05
7.15636e-09
1.28525e-05
6.89514e-08
1.2878e-05
1.70851e-07
1.29104e-05
3.35571e-07
5.80105e-07
1.29537e-05
1.25135e-05
-6.4134e-08
1.25323e-05
-9.27079e-08
1.25526e-05
-1.00741e-07
1.2574e-05
-1.06883e-07
1.25963e-05
-1.1079e-07
1.26187e-05
-1.11991e-07
1.26412e-05
-1.1164e-07
1.26634e-05
-1.10317e-07
1.26854e-05
-1.08124e-07
1.2707e-05
-1.05059e-07
1.27282e-05
-1.00837e-07
1.27491e-05
-9.49087e-08
1.27697e-05
-8.60946e-08
1.27901e-05
-7.24392e-08
1.28107e-05
-5.0377e-08
1.2832e-05
-1.41003e-08
1.28549e-05
4.60016e-08
1.28814e-05
1.44475e-07
1.29151e-05
3.01812e-07
5.35492e-07
1.29597e-05
1.2514e-05
-7.818e-08
1.25331e-05
-1.11811e-07
1.25535e-05
-1.21078e-07
1.2575e-05
-1.28418e-07
1.25973e-05
-1.33075e-07
1.26198e-05
-1.34505e-07
1.26422e-05
-1.34115e-07
1.26645e-05
-1.32596e-07
1.26865e-05
-1.30108e-07
1.27081e-05
-1.26691e-07
1.27293e-05
-1.22102e-07
1.27502e-05
-1.15835e-07
1.27709e-05
-1.06758e-07
1.27915e-05
-9.30251e-08
1.28123e-05
-7.11952e-08
1.2834e-05
-3.5767e-08
1.28574e-05
2.24432e-08
1.28848e-05
1.1711e-07
1.29196e-05
2.66904e-07
4.89805e-07
1.29654e-05
1.25147e-05
-9.29328e-08
1.25341e-05
-1.31215e-07
1.25546e-05
-1.41513e-07
1.25762e-05
-1.50035e-07
1.25985e-05
-1.55411e-07
1.2621e-05
-1.57055e-07
1.26435e-05
-1.56612e-07
1.26658e-05
-1.54897e-07
1.26878e-05
-1.52108e-07
1.27094e-05
-1.48344e-07
1.27307e-05
-1.43388e-07
1.27516e-05
-1.36801e-07
1.27723e-05
-1.27491e-07
1.2793e-05
-1.1372e-07
1.2814e-05
-9.22038e-08
1.2836e-05
-5.76967e-08
1.286e-05
-1.6236e-09
1.28881e-05
8.90583e-08
1.2924e-05
2.30922e-07
4.43128e-07
1.29707e-05
1.25156e-05
-1.08547e-07
1.25353e-05
-1.50962e-07
1.25559e-05
-1.6206e-07
1.25776e-05
-1.7174e-07
1.26e-05
-1.77807e-07
1.26225e-05
-1.79636e-07
1.2645e-05
-1.7913e-07
1.26673e-05
-1.77201e-07
1.26893e-05
-1.74104e-07
1.27109e-05
-1.69979e-07
1.27322e-05
-1.64658e-07
1.27531e-05
-1.57748e-07
1.27739e-05
-1.48219e-07
1.27946e-05
-1.34457e-07
1.28157e-05
-1.13326e-07
1.28379e-05
-7.99308e-08
1.28624e-05
-2.61326e-08
1.28912e-05
6.02245e-08
1.2928e-05
1.94042e-07
3.95727e-07
1.29755e-05
1.25166e-05
-1.25196e-07
1.25368e-05
-1.71096e-07
1.25574e-05
-1.8273e-07
1.25792e-05
-1.93548e-07
1.26017e-05
-2.0026e-07
1.26243e-05
-2.0225e-07
1.26468e-05
-2.01656e-07
1.26691e-05
-1.99501e-07
1.2691e-05
-1.96077e-07
1.27126e-05
-1.91586e-07
1.27338e-05
-1.85888e-07
1.27547e-05
-1.78661e-07
1.27754e-05
-1.68928e-07
1.27961e-05
-1.55198e-07
1.28172e-05
-1.3452e-07
1.28397e-05
-1.02281e-07
1.28644e-05
-5.09852e-08
1.28938e-05
3.09206e-08
1.29314e-05
1.56376e-07
3.47722e-07
1.29794e-05
1.25179e-05
-1.43075e-07
1.25384e-05
-1.91646e-07
1.25592e-05
-2.03532e-07
1.25811e-05
-2.15456e-07
1.26036e-05
-2.22764e-07
1.26262e-05
-2.24869e-07
1.26487e-05
-2.24162e-07
1.26709e-05
-2.21744e-07
1.26928e-05
-2.1797e-07
1.27143e-05
-2.13081e-07
1.27354e-05
-2.06989e-07
1.27561e-05
-1.99426e-07
1.27767e-05
-1.89486e-07
1.27973e-05
-1.75815e-07
1.28184e-05
-1.55633e-07
1.28408e-05
-1.24714e-07
1.28658e-05
-7.60029e-08
1.28956e-05
1.14268e-09
1.29338e-05
1.18163e-07
2.99404e-07
1.29821e-05
1.25193e-05
-1.62407e-07
1.25403e-05
-2.12641e-07
1.25612e-05
-2.24466e-07
1.25832e-05
-2.37459e-07
1.26057e-05
-2.45286e-07
1.26283e-05
-2.47457e-07
1.26507e-05
-2.46583e-07
1.26728e-05
-2.43865e-07
1.26946e-05
-2.39697e-07
1.27158e-05
-2.3438e-07
1.27367e-05
-2.27861e-07
1.27572e-05
-2.19943e-07
1.27774e-05
-2.0979e-07
1.27978e-05
-1.96175e-07
1.28186e-05
-1.76539e-07
1.28409e-05
-1.46943e-07
1.28659e-05
-1.01032e-07
1.28958e-05
-2.87275e-08
1.29343e-05
7.96091e-08
2.50964e-07
1.29828e-05
1.2521e-05
-1.83441e-07
1.25425e-05
-2.34082e-07
1.25635e-05
-2.45511e-07
1.25855e-05
-2.59505e-07
1.2608e-05
-2.67757e-07
1.26304e-05
-2.69906e-07
1.26526e-05
-2.688e-07
1.26745e-05
-2.6571e-07
1.26959e-05
-2.6109e-07
1.27167e-05
-2.55283e-07
1.27372e-05
-2.48291e-07
1.27572e-05
-2.39971e-07
1.27769e-05
-2.29571e-07
1.27968e-05
-2.16012e-07
1.28171e-05
-1.96923e-07
1.2839e-05
-1.68786e-07
1.28636e-05
-1.25689e-07
1.28934e-05
-5.85144e-08
1.29319e-05
4.11103e-08
2.02773e-07
1.29801e-05
1.2523e-05
-2.06455e-07
1.25449e-05
-2.55934e-07
1.25659e-05
-2.66594e-07
1.25879e-05
-2.81488e-07
1.26102e-05
-2.90014e-07
1.26323e-05
-2.92032e-07
1.2654e-05
-2.90588e-07
1.26754e-05
-2.87037e-07
1.26961e-05
-2.81877e-07
1.27163e-05
-2.75507e-07
1.2736e-05
-2.67967e-07
1.27552e-05
-2.59186e-07
1.27741e-05
-2.48494e-07
1.2793e-05
-2.3494e-07
1.28124e-05
-2.16414e-07
1.28334e-05
-1.89676e-07
1.28572e-05
-1.496e-07
1.28863e-05
-8.75894e-08
1.29242e-05
3.12609e-09
1.55193e-07
1.29718e-05
1.25253e-05
-2.31732e-07
1.25474e-05
-2.78063e-07
1.25683e-05
-2.87529e-07
1.259e-05
-3.0315e-07
1.26117e-05
-3.1175e-07
1.26331e-05
-3.13464e-07
1.26541e-05
-3.11539e-07
1.26744e-05
-3.07386e-07
1.26941e-05
-3.01562e-07
1.27131e-05
-2.94502e-07
1.27314e-05
-2.86305e-07
1.27491e-05
-2.76952e-07
1.27665e-05
-2.65866e-07
1.27838e-05
-2.52254e-07
1.28016e-05
-2.34211e-07
1.28209e-05
-2.08951e-07
1.2843e-05
-1.71807e-07
1.28707e-05
-1.15241e-07
1.29072e-05
-3.34053e-08
1.08878e-07
1.29535e-05
1.25277e-05
-2.59477e-07
1.25498e-05
-3.00139e-07
1.25702e-05
-3.07882e-07
1.2591e-05
-3.23975e-07
1.26116e-05
-3.32342e-07
1.26316e-05
-3.33511e-07
1.26509e-05
-3.30875e-07
1.26694e-05
-3.25911e-07
1.26871e-05
-3.19213e-07
1.27038e-05
-3.11268e-07
1.27197e-05
-3.02211e-07
1.27348e-05
-2.92098e-07
1.27493e-05
-2.8044e-07
1.27636e-05
-2.66581e-07
1.27783e-05
-2.48907e-07
1.27944e-05
-2.2493e-07
1.28133e-05
-1.90836e-07
1.28378e-05
-1.39694e-07
1.28712e-05
-6.69117e-08
6.49385e-08
1.29152e-05
1.253e-05
-2.89486e-07
1.25513e-05
-3.21394e-07
1.25701e-05
-3.26692e-07
1.25889e-05
-3.42828e-07
1.2607e-05
-3.50462e-07
1.26241e-05
-3.50644e-07
1.26401e-05
-3.4689e-07
1.26549e-05
-3.40701e-07
1.26684e-05
-3.32725e-07
1.26806e-05
-3.23485e-07
1.26916e-05
-3.13168e-07
1.27013e-05
-3.01889e-07
1.27101e-05
-2.89251e-07
1.27183e-05
-2.74775e-07
1.27264e-05
-2.5706e-07
1.27357e-05
-2.34145e-07
1.27475e-05
-2.02712e-07
1.27649e-05
-1.57146e-07
1.27914e-05
-9.3462e-08
2.60581e-08
1.28304e-05
1.25308e-05
-3.20315e-07
1.25492e-05
-3.39749e-07
1.2564e-05
-3.41553e-07
1.2578e-05
-3.56792e-07
1.25901e-05
-3.62559e-07
1.26002e-05
-3.60743e-07
1.26082e-05
-3.54892e-07
1.2614e-05
-3.46519e-07
1.26175e-05
-3.3631e-07
1.26188e-05
-3.24824e-07
1.26179e-05
-3.12293e-07
1.26149e-05
-2.98875e-07
1.26099e-05
-2.843e-07
1.26033e-05
-2.68194e-07
1.25958e-05
-2.49559e-07
1.25885e-05
-2.26757e-07
1.25832e-05
-1.97553e-07
1.25833e-05
-1.57208e-07
1.25931e-05
-1.03336e-07
-8.45117e-10
1.262e-05
1.25262e-05
-3.46544e-07
1.25337e-05
-3.47227e-07
1.25359e-05
-3.43783e-07
1.25342e-05
-3.55048e-07
1.25273e-05
-3.5573e-07
1.25156e-05
-3.49021e-07
1.24991e-05
-3.38403e-07
1.24779e-05
-3.25382e-07
1.24523e-05
-3.10697e-07
1.24224e-05
-2.94931e-07
1.23884e-05
-2.78354e-07
1.23507e-05
-2.61181e-07
1.23097e-05
-2.43292e-07
1.2266e-05
-2.24511e-07
1.22207e-05
-2.04293e-07
1.21756e-05
-1.81555e-07
1.2133e-05
-1.55149e-07
1.20975e-05
-1.21624e-07
1.20744e-05
-8.02899e-08
-5.07008e-09
1.20786e-05
1.24955e-05
-3.42014e-07
1.24494e-05
-3.01203e-07
1.23924e-05
-2.86785e-07
1.23212e-05
-2.8385e-07
1.22379e-05
-2.72434e-07
1.21454e-05
-2.56541e-07
1.20461e-05
-2.39069e-07
1.19419e-05
-2.21264e-07
1.18349e-05
-2.03654e-07
1.17265e-05
-1.86584e-07
1.16182e-05
-1.70129e-07
1.15114e-05
-1.54365e-07
1.14072e-05
-1.3915e-07
1.1307e-05
-1.24333e-07
1.12124e-05
-1.09673e-07
1.11254e-05
-9.44272e-08
1.10485e-05
-7.84231e-08
1.09861e-05
-5.92308e-08
1.09434e-05
-3.76186e-08
1.36593e-09
1.09369e-05
1.2158e-05
1.18568e-05
1.157e-05
1.12861e-05
1.10137e-05
1.07572e-05
1.05181e-05
1.02968e-05
1.00932e-05
9.9066e-06
9.73647e-06
9.58211e-06
9.44296e-06
9.31862e-06
9.20895e-06
9.11452e-06
9.0361e-06
8.97687e-06
8.93925e-06
8.94061e-06
8.10306e-06
1.68676e-07
7.28719e-08
7.79222e-06
2.03818e-07
1.07098e-07
7.48185e-06
2.46992e-07
6.33292e-08
7.2079e-06
3.04472e-07
-3.05177e-08
6.97796e-06
3.6896e-07
-1.39025e-07
6.79913e-06
4.37395e-07
-2.58572e-07
6.66874e-06
5.09874e-07
-3.79505e-07
6.57885e-06
5.84881e-07
-4.95019e-07
6.52063e-06
6.59873e-07
-6.01676e-07
6.48664e-06
7.32139e-07
-6.98178e-07
6.47143e-06
7.99363e-07
-7.84179e-07
6.47121e-06
8.59882e-07
-8.59699e-07
6.48337e-06
9.12702e-07
-9.24891e-07
6.50595e-06
9.57359e-07
-9.79978e-07
6.53741e-06
9.93744e-07
-1.02523e-06
6.57637e-06
1.02196e-06
-1.06095e-06
6.62159e-06
1.04221e-06
-1.08747e-06
6.67193e-06
1.05477e-06
-1.10513e-06
6.72629e-06
1.05992e-06
-1.1143e-06
6.78366e-06
1.05794e-06
-1.11533e-06
6.84309e-06
1.0491e-06
-1.10856e-06
6.90377e-06
1.03366e-06
-1.09436e-06
6.96498e-06
1.01185e-06
-1.07308e-06
7.0261e-06
9.83909e-07
-1.04505e-06
7.08668e-06
9.5004e-07
-1.01064e-06
7.14637e-06
9.10461e-07
-9.70161e-07
7.20493e-06
8.65376e-07
-9.23952e-07
7.26224e-06
8.14982e-07
-8.72316e-07
7.3183e-06
7.59465e-07
-8.15545e-07
7.37319e-06
6.98993e-07
-7.53898e-07
7.42706e-06
6.33713e-07
-6.8761e-07
7.48018e-06
5.63743e-07
-6.16877e-07
7.53285e-06
4.89173e-07
-5.41868e-07
7.58548e-06
4.1006e-07
-4.6271e-07
7.63855e-06
3.26416e-07
-3.79498e-07
7.69259e-06
2.38252e-07
-2.92302e-07
7.74826e-06
1.4518e-07
-2.00858e-07
7.8068e-06
4.47854e-08
-1.03316e-07
7.86852e-06
-6.45525e-08
2.846e-09
7.93312e-06
-1.82491e-07
1.17918e-07
8.00107e-06
-3.09609e-07
2.4168e-07
8.07288e-06
-4.46954e-07
3.75176e-07
8.14904e-06
-5.95685e-07
5.19551e-07
8.23006e-06
-7.57085e-07
6.76101e-07
8.31639e-06
-9.32565e-07
8.46268e-07
8.40845e-06
-1.12365e-06
1.03162e-06
8.50658e-06
-1.33194e-06
1.23383e-06
8.61104e-06
-1.55902e-06
1.45458e-06
8.72192e-06
-1.80642e-06
1.69556e-06
8.83919e-06
-2.07551e-06
1.95826e-06
8.96256e-06
-2.36732e-06
2.24395e-06
9.09153e-06
-2.68247e-06
2.55351e-06
9.22526e-06
-3.02098e-06
2.88725e-06
9.36257e-06
-3.38206e-06
3.24476e-06
9.50185e-06
-3.76399e-06
3.62471e-06
9.64107e-06
-4.16391e-06
4.0247e-06
9.77771e-06
-4.57771e-06
4.44107e-06
9.90882e-06
-4.99995e-06
4.86884e-06
1.00311e-05
-5.42389e-06
5.30166e-06
1.01408e-05
-5.84167e-06
5.73193e-06
1.02344e-05
-6.24453e-06
6.15099e-06
1.03081e-05
-6.62331e-06
6.54954e-06
1.0359e-05
-6.96895e-06
6.9181e-06
1.03845e-05
-7.27315e-06
7.24765e-06
1.03833e-05
-7.52895e-06
7.53023e-06
1.03549e-05
-7.73122e-06
7.75955e-06
1.03006e-05
-7.877e-06
7.93138e-06
1.02223e-05
-7.96556e-06
8.04384e-06
1.01233e-05
-7.99832e-06
8.09732e-06
1.00075e-05
-7.97844e-06
8.09433e-06
9.87898e-06
-7.91051e-06
8.03903e-06
9.74214e-06
-7.79995e-06
7.93683e-06
9.60099e-06
-7.65265e-06
7.79383e-06
9.45917e-06
-7.47454e-06
7.61639e-06
9.31972e-06
-7.2713e-06
7.41078e-06
9.18506e-06
-7.04817e-06
7.18286e-06
9.05701e-06
-6.80984e-06
6.93793e-06
8.93681e-06
-6.56041e-06
6.68064e-06
8.82523e-06
-6.30339e-06
6.41499e-06
8.72264e-06
-6.04174e-06
6.14434e-06
8.62912e-06
-5.77793e-06
5.87148e-06
8.54449e-06
-5.51399e-06
5.59864e-06
8.4684e-06
-5.25155e-06
5.32766e-06
8.40038e-06
-4.99191e-06
5.05995e-06
8.33987e-06
-4.7361e-06
4.79663e-06
8.28627e-06
-4.48491e-06
4.53853e-06
8.23894e-06
-4.23895e-06
4.28629e-06
8.19724e-06
-3.99864e-06
4.04036e-06
8.16054e-06
-3.76433e-06
3.80105e-06
8.12823e-06
-3.53623e-06
3.56856e-06
8.09971e-06
-3.3145e-06
3.34303e-06
8.07445e-06
-3.09923e-06
3.12451e-06
8.05193e-06
-2.89047e-06
2.91301e-06
8.03167e-06
-2.68825e-06
2.70853e-06
8.01325e-06
-2.49258e-06
2.51101e-06
7.99629e-06
-2.30343e-06
2.32042e-06
7.98042e-06
-2.12079e-06
2.13667e-06
7.96535e-06
-1.94462e-06
1.95971e-06
7.95081e-06
-1.7749e-06
1.78945e-06
7.93658e-06
-1.61158e-06
1.62584e-06
7.92245e-06
-1.45464e-06
1.46878e-06
7.90827e-06
-1.30401e-06
1.3182e-06
7.89391e-06
-1.15966e-06
1.17404e-06
7.87926e-06
-1.02154e-06
1.0362e-06
7.86425e-06
-8.89587e-07
9.0461e-07
7.84882e-06
-7.63743e-07
7.7918e-07
7.83295e-06
-6.4394e-07
6.59823e-07
7.81662e-06
-5.30102e-07
5.46444e-07
7.79983e-06
-4.22146e-07
4.38942e-07
7.78261e-06
-3.19977e-07
3.37208e-07
7.76497e-06
-2.23488e-07
2.41127e-07
7.74697e-06
-1.32557e-07
1.50566e-07
7.72861e-06
-4.7013e-08
6.53711e-08
7.70992e-06
3.34909e-08
-1.47951e-08
7.69093e-06
1.09177e-07
-9.01875e-08
7.67171e-06
1.80149e-07
-1.60937e-07
7.65235e-06
2.46506e-07
-2.27141e-07
7.6329e-06
3.08352e-07
-2.88912e-07
7.61345e-06
3.65804e-07
-3.46355e-07
7.59405e-06
4.18981e-07
-3.99593e-07
7.57478e-06
4.68011e-07
-4.48738e-07
7.55567e-06
5.13021e-07
-4.93915e-07
7.53676e-06
5.54141e-07
-5.35238e-07
7.51808e-06
5.91499e-07
-5.72827e-07
7.49964e-06
6.25225e-07
-6.06794e-07
7.48145e-06
6.55444e-07
-6.37258e-07
7.46348e-06
6.82286e-07
-6.64331e-07
7.44573e-06
7.05881e-07
-6.88138e-07
7.42816e-06
7.26363e-07
-7.08803e-07
7.41074e-06
7.43875e-07
-7.26471e-07
7.39345e-06
7.58573e-07
-7.41293e-07
7.37627e-06
7.70623e-07
-7.53448e-07
7.35917e-06
7.80215e-07
-7.63127e-07
7.34216e-06
7.87549e-07
-7.70548e-07
7.32524e-06
7.9285e-07
-7.75944e-07
7.30844e-06
7.96355e-07
-7.79565e-07
7.29179e-06
7.98315e-07
-7.81672e-07
7.27532e-06
7.98988e-07
-7.82532e-07
7.25909e-06
7.98637e-07
-7.8241e-07
7.24312e-06
7.97525e-07
-7.81571e-07
7.22747e-06
7.95907e-07
-7.80266e-07
7.21218e-06
7.94031e-07
-7.78742e-07
7.19726e-06
7.92135e-07
-7.77228e-07
7.18275e-06
7.90445e-07
-7.75944e-07
7.16867e-06
7.89174e-07
-7.75097e-07
7.15502e-06
7.88526e-07
-7.74883e-07
7.14181e-06
7.88695e-07
-7.75488e-07
7.12903e-06
7.89868e-07
-7.77095e-07
7.11668e-06
7.92223e-07
-7.79877e-07
7.10474e-06
7.95939e-07
-7.84009e-07
7.09321e-06
8.01189e-07
-7.89661e-07
7.08206e-06
8.08152e-07
-7.97009e-07
7.07128e-06
8.17004e-07
-8.06228e-07
7.06085e-06
8.27932e-07
-8.17504e-07
7.05074e-06
8.41125e-07
-8.31025e-07
7.04095e-06
8.56785e-07
-8.46994e-07
7.03144e-06
8.75124e-07
-8.65623e-07
7.02221e-06
8.96366e-07
-8.87137e-07
7.01323e-06
9.20753e-07
-9.11779e-07
7.00449e-06
9.48544e-07
-9.39809e-07
6.99598e-06
9.80016e-07
-9.71505e-07
6.98767e-06
1.01547e-06
-1.00717e-06
6.97957e-06
1.05524e-06
-1.04714e-06
6.97165e-06
1.09967e-06
-1.09176e-06
6.96392e-06
1.14915e-06
-1.14142e-06
6.95635e-06
1.2041e-06
-1.19654e-06
6.94896e-06
1.26498e-06
-1.25758e-06
6.94172e-06
1.33228e-06
-1.32505e-06
6.93464e-06
1.40656e-06
-1.39949e-06
6.92771e-06
1.48842e-06
-1.48149e-06
6.92093e-06
1.5785e-06
-1.57172e-06
6.91428e-06
1.67754e-06
-1.6709e-06
6.90775e-06
1.78634e-06
-1.77982e-06
6.90134e-06
1.90576e-06
-1.89935e-06
6.89501e-06
2.03679e-06
-2.03047e-06
6.88875e-06
2.1805e-06
-2.17424e-06
6.88249e-06
2.33812e-06
-2.33187e-06
6.8762e-06
2.51098e-06
-2.50468e-06
6.86978e-06
2.70062e-06
-2.6942e-06
6.86313e-06
2.90877e-06
-2.90213e-06
6.85613e-06
3.13741e-06
-3.1304e-06
6.84858e-06
3.3888e-06
-3.38126e-06
6.84026e-06
3.66561e-06
-3.65729e-06
6.83088e-06
3.97092e-06
-3.96155e-06
6.82007e-06
4.30843e-06
-4.29762e-06
6.80733e-06
4.68257e-06
-4.66983e-06
6.79208e-06
5.09873e-06
-5.08347e-06
6.77351e-06
5.56361e-06
-5.54505e-06
6.75063e-06
6.08569e-06
-6.06282e-06
6.72213e-06
6.67589e-06
-6.64739e-06
6.68625e-06
7.34859e-06
-7.31271e-06
6.64056e-06
8.12322e-06
-8.07754e-06
6.58161e-06
9.02652e-06
-8.96757e-06
6.50424e-06
1.00964e-05
-1.0019e-05
6.40023e-06
1.13867e-05
-1.12827e-05
6.2573e-06
1.29805e-05
-1.28375e-05
6.04973e-06
1.49887e-05
-1.47811e-05
5.76221e-06
1.76062e-05
-1.73187e-05
5.35843e-06
2.08832e-05
-2.04794e-05
2.6465e-05
-2.80553e-05
6.94871e-06
1.0393e-05
2.52593e-07
1.02593e-05
3.37476e-07
1.00813e-05
4.25023e-07
9.86834e-06
5.1743e-07
9.62882e-06
6.08485e-07
9.37485e-06
6.91364e-07
9.12072e-06
7.64004e-07
8.87909e-06
8.26496e-07
8.65902e-06
8.79941e-07
8.46534e-06
9.25804e-07
8.29937e-06
9.65318e-07
8.16005e-06
9.99183e-07
8.04513e-06
1.02761e-06
7.95197e-06
1.05051e-06
7.878e-06
1.0677e-06
7.82093e-06
1.07901e-06
7.77876e-06
1.08437e-06
7.74972e-06
1.08379e-06
7.73228e-06
1.07735e-06
7.72504e-06
1.06517e-06
7.7267e-06
1.04743e-06
7.73608e-06
1.02428e-06
7.75204e-06
9.95887e-07
7.77356e-06
9.62392e-07
7.79967e-06
9.23922e-07
7.82955e-06
8.8058e-07
7.86247e-06
8.32455e-07
7.89784e-06
7.79614e-07
7.93519e-06
7.22113e-07
7.97419e-06
6.59991e-07
8.01463e-06
5.93267e-07
8.05643e-06
5.21939e-07
8.09962e-06
4.45974e-07
8.14437e-06
3.65307e-07
8.19097e-06
2.79816e-07
8.23989e-06
1.89339e-07
8.29199e-06
9.30803e-08
8.34796e-06
-1.11668e-08
8.40761e-06
-1.24187e-07
8.47095e-06
-2.458e-07
8.53836e-06
-3.76993e-07
8.61025e-06
-5.18816e-07
8.68703e-06
-6.7243e-07
8.76909e-06
-8.39106e-07
8.85679e-06
-1.02023e-06
8.95043e-06
-1.21726e-06
9.05024e-06
-1.43171e-06
9.15631e-06
-1.66506e-06
9.26859e-06
-1.91868e-06
9.38684e-06
-2.19373e-06
9.51056e-06
-2.49102e-06
9.63897e-06
-2.81086e-06
9.77093e-06
-3.15293e-06
9.90492e-06
-3.51604e-06
1.0039e-05
-3.89803e-06
1.01706e-05
-4.29557e-06
1.0297e-05
-4.70409e-06
1.04148e-05
-5.11774e-06
1.05204e-05
-5.52946e-06
1.06099e-05
-5.93121e-06
1.06797e-05
-6.31433e-06
1.07264e-05
-6.67002e-06
1.07474e-05
-6.98989e-06
1.07408e-05
-7.26662e-06
1.07063e-05
-7.49444e-06
1.06446e-05
-7.66953e-06
1.05578e-05
-7.79019e-06
1.04491e-05
-7.85678e-06
1.03223e-05
-7.8715e-06
1.01818e-05
-7.83797e-06
1.00321e-05
-7.76085e-06
9.87759e-06
-7.6454e-06
9.722e-06
-7.49705e-06
9.56861e-06
-7.32114e-06
9.42003e-06
-7.12271e-06
9.27823e-06
-6.90637e-06
9.14461e-06
-6.6762e-06
9.02003e-06
-6.43582e-06
8.90496e-06
-6.18831e-06
8.79955e-06
-5.93632e-06
8.70367e-06
-5.68205e-06
8.61702e-06
-5.42734e-06
8.53915e-06
-5.17368e-06
8.46952e-06
-4.92228e-06
8.40752e-06
-4.6741e-06
8.35251e-06
-4.4299e-06
8.30382e-06
-4.19026e-06
8.26082e-06
-3.95563e-06
8.22284e-06
-3.72635e-06
8.18928e-06
-3.50267e-06
8.15954e-06
-3.28476e-06
8.13308e-06
-3.07275e-06
8.10937e-06
-2.86675e-06
8.08794e-06
-2.66682e-06
8.06837e-06
-2.473e-06
8.05027e-06
-2.28532e-06
8.03329e-06
-2.1038e-06
8.01712e-06
-1.92845e-06
8.00151e-06
-1.75928e-06
7.98623e-06
-1.59629e-06
7.97108e-06
-1.43947e-06
7.95589e-06
-1.28882e-06
7.94055e-06
-1.14431e-06
7.92495e-06
-1.00593e-06
7.90901e-06
-8.73637e-07
7.89268e-06
-7.47405e-07
7.87594e-06
-6.27183e-07
7.85876e-06
-5.12915e-07
7.84116e-06
-4.04532e-07
7.82315e-06
-3.01957e-07