/*--------------------------------*- C++ -*----------------------------------*\
| =========                 |                                                 |
| \\      /  F ield         | OpenFOAM: The Open Source CFD Toolbox           |
|  \\    /   O peration     | Version:  2.4.0                                 |
|   \\  /    A nd           | Web:      www.OpenFOAM.org                      |
|    \\/     M anipulation  |                                                 |
\*---------------------------------------------------------------------------*/
FoamFile
{
    version     2.0;
    format      ascii;
    class       volScalarField;
    location    "0.098";
    object      pPrime2Mean;
}
// * * * * * * * * * * * * * * * * * * * * * * * * * * * * * * * * * * * * * //

dimensions      [0 4 -4 0 0 0 0];

internalField   nonuniform List<scalar> 
17600
(
6.59338e+06
6.42712e+06
6.24835e+06
6.07118e+06
5.89652e+06
5.72443e+06
5.55488e+06
5.38786e+06
5.22338e+06
5.06143e+06
4.902e+06
4.74506e+06
4.59058e+06
4.43845e+06
4.28854e+06
4.14054e+06
3.99388e+06
3.84741e+06
3.69849e+06
3.53825e+06
6.59352e+06
6.42711e+06
6.24834e+06
6.07118e+06
5.89652e+06
5.72443e+06
5.55488e+06
5.38786e+06
5.22338e+06
5.06143e+06
4.902e+06
4.74507e+06
4.59058e+06
4.43846e+06
4.28855e+06
4.14056e+06
3.99392e+06
3.84749e+06
3.69871e+06
3.53866e+06
6.59362e+06
6.42709e+06
6.24833e+06
6.07117e+06
5.89652e+06
5.72443e+06
5.55488e+06
5.38786e+06
5.22338e+06
5.06143e+06
4.902e+06
4.74507e+06
4.59058e+06
4.43847e+06
4.28857e+06
4.1406e+06
3.994e+06
3.84766e+06
3.69909e+06
3.5403e+06
6.59369e+06
6.42707e+06
6.24832e+06
6.07117e+06
5.89652e+06
5.72443e+06
5.55487e+06
5.38786e+06
5.22338e+06
5.06144e+06
4.90201e+06
4.74507e+06
4.59059e+06
4.43849e+06
4.2886e+06
4.14066e+06
3.99412e+06
3.84791e+06
3.69968e+06
3.54259e+06
6.59375e+06
6.42704e+06
6.2483e+06
6.07116e+06
5.89652e+06
5.72443e+06
5.55487e+06
5.38786e+06
5.22338e+06
5.06144e+06
4.90201e+06
4.74508e+06
4.59061e+06
4.43851e+06
4.28864e+06
4.14073e+06
3.99427e+06
3.84824e+06
3.70044e+06
3.54534e+06
6.59381e+06
6.42702e+06
6.24828e+06
6.07116e+06
5.89652e+06
5.72442e+06
5.55487e+06
5.38786e+06
5.22338e+06
5.06144e+06
4.90201e+06
4.74509e+06
4.59062e+06
4.43853e+06
4.28869e+06
4.14083e+06
3.99446e+06
3.84864e+06
3.70138e+06
3.54834e+06
6.59386e+06
6.427e+06
6.24826e+06
6.07115e+06
5.89651e+06
5.72442e+06
5.55487e+06
5.38786e+06
5.22338e+06
5.06144e+06
4.90202e+06
4.7451e+06
4.59064e+06
4.43857e+06
4.28875e+06
4.14095e+06
3.99469e+06
3.8491e+06
3.70244e+06
3.55149e+06
6.59391e+06
6.42699e+06
6.24824e+06
6.07115e+06
5.89651e+06
5.72442e+06
5.55487e+06
5.38786e+06
5.22338e+06
5.06144e+06
4.90202e+06
4.74511e+06
4.59066e+06
4.4386e+06
4.28882e+06
4.14108e+06
3.99494e+06
3.84963e+06
3.70363e+06
3.5547e+06
6.59395e+06
6.42697e+06
6.24822e+06
6.07114e+06
5.89651e+06
5.72442e+06
5.55487e+06
5.38786e+06
5.22338e+06
5.06144e+06
4.90203e+06
4.74512e+06
4.59068e+06
4.43865e+06
4.2889e+06
4.14122e+06
3.99523e+06
3.8502e+06
3.7049e+06
3.55792e+06
6.59399e+06
6.42696e+06
6.2482e+06
6.07114e+06
5.89651e+06
5.72442e+06
5.55487e+06
5.38785e+06
5.22338e+06
5.06145e+06
4.90204e+06
4.74513e+06
4.5907e+06
4.43869e+06
4.28898e+06
4.14138e+06
3.99554e+06
3.85083e+06
3.70625e+06
3.56111e+06
6.59403e+06
6.42695e+06
6.24819e+06
6.07113e+06
5.89651e+06
5.72442e+06
5.55487e+06
5.38785e+06
5.22338e+06
5.06145e+06
4.90204e+06
4.74515e+06
4.59073e+06
4.43874e+06
4.28908e+06
4.14156e+06
3.99587e+06
3.85149e+06
3.70765e+06
3.56424e+06
6.59406e+06
6.42695e+06
6.24817e+06
6.07112e+06
5.89651e+06
5.72442e+06
5.55486e+06
5.38785e+06
5.22339e+06
5.06146e+06
4.90205e+06
4.74516e+06
4.59076e+06
4.43879e+06
4.28917e+06
4.14174e+06
3.99623e+06
3.85219e+06
3.70908e+06
3.5673e+06
6.59409e+06
6.42695e+06
6.24816e+06
6.07112e+06
5.89651e+06
5.72442e+06
5.55486e+06
5.38785e+06
5.22339e+06
5.06146e+06
4.90206e+06
4.74518e+06
4.59079e+06
4.43885e+06
4.28928e+06
4.14194e+06
3.9966e+06
3.85291e+06
3.71054e+06
3.57026e+06
6.59411e+06
6.42694e+06
6.24815e+06
6.07111e+06
5.89651e+06
5.72442e+06
5.55486e+06
5.38785e+06
5.22339e+06
5.06146e+06
4.90207e+06
4.7452e+06
4.59082e+06
4.43891e+06
4.28939e+06
4.14215e+06
3.99699e+06
3.85366e+06
3.71201e+06
3.57313e+06
6.59413e+06
6.42694e+06
6.24814e+06
6.0711e+06
5.89651e+06
5.72442e+06
5.55486e+06
5.38785e+06
5.22339e+06
5.06147e+06
4.90208e+06
4.74522e+06
4.59086e+06
4.43897e+06
4.28951e+06
4.14236e+06
3.99739e+06
3.85442e+06
3.71347e+06
3.57589e+06
6.59414e+06
6.42694e+06
6.24813e+06
6.0711e+06
5.89651e+06
5.72442e+06
5.55487e+06
5.38785e+06
5.22339e+06
5.06147e+06
4.90209e+06
4.74524e+06
4.59089e+06
4.43904e+06
4.28962e+06
4.14258e+06
3.9978e+06
3.85519e+06
3.71493e+06
3.57853e+06
6.59416e+06
6.42694e+06
6.24812e+06
6.0711e+06
5.89651e+06
5.72443e+06
5.55487e+06
5.38785e+06
5.22339e+06
5.06148e+06
4.9021e+06
4.74525e+06
4.59093e+06
4.4391e+06
4.28975e+06
4.1428e+06
3.99821e+06
3.85596e+06
3.71636e+06
3.58107e+06
6.59417e+06
6.42694e+06
6.24812e+06
6.07109e+06
5.89651e+06
5.72443e+06
5.55487e+06
5.38786e+06
5.2234e+06
5.06148e+06
4.90211e+06
4.74527e+06
4.59097e+06
4.43917e+06
4.28987e+06
4.14303e+06
3.99863e+06
3.85673e+06
3.71777e+06
3.58349e+06
6.59417e+06
6.42694e+06
6.24812e+06
6.07109e+06
5.89652e+06
5.72443e+06
5.55487e+06
5.38786e+06
5.2234e+06
5.06149e+06
4.90212e+06
4.7453e+06
4.591e+06
4.43924e+06
4.28999e+06
4.14326e+06
3.99905e+06
3.8575e+06
3.71914e+06
3.58579e+06
6.59418e+06
6.42694e+06
6.24812e+06
6.07109e+06
5.89652e+06
5.72443e+06
5.55487e+06
5.38786e+06
5.2234e+06
5.0615e+06
4.90214e+06
4.74532e+06
4.59104e+06
4.43931e+06
4.29012e+06
4.14349e+06
3.99947e+06
3.85825e+06
3.72048e+06
3.58798e+06
6.59418e+06
6.42694e+06
6.24812e+06
6.07109e+06
5.89652e+06
5.72443e+06
5.55487e+06
5.38786e+06
5.22341e+06
5.0615e+06
4.90215e+06
4.74534e+06
4.59108e+06
4.43938e+06
4.29025e+06
4.14372e+06
3.99988e+06
3.85899e+06
3.72177e+06
3.59006e+06
6.59417e+06
6.42694e+06
6.24812e+06
6.07109e+06
5.89652e+06
5.72443e+06
5.55487e+06
5.38786e+06
5.22341e+06
5.06151e+06
4.90216e+06
4.74536e+06
4.59112e+06
4.43945e+06
4.29037e+06
4.14394e+06
4.00029e+06
3.85972e+06
3.72301e+06
3.59202e+06
6.59417e+06
6.42694e+06
6.24812e+06
6.07109e+06
5.89652e+06
5.72443e+06
5.55487e+06
5.38787e+06
5.22341e+06
5.06152e+06
4.90217e+06
4.74538e+06
4.59115e+06
4.43951e+06
4.29049e+06
4.14416e+06
4.00069e+06
3.86042e+06
3.7242e+06
3.59387e+06
6.59416e+06
6.42694e+06
6.24813e+06
6.0711e+06
5.89652e+06
5.72443e+06
5.55487e+06
5.38787e+06
5.22342e+06
5.06152e+06
4.90218e+06
4.7454e+06
4.59119e+06
4.43958e+06
4.29061e+06
4.14438e+06
4.00107e+06
3.8611e+06
3.72534e+06
3.59561e+06
6.59415e+06
6.42694e+06
6.24813e+06
6.0711e+06
5.89652e+06
5.72443e+06
5.55487e+06
5.38787e+06
5.22342e+06
5.06153e+06
4.90219e+06
4.74542e+06
4.59122e+06
4.43964e+06
4.29073e+06
4.14459e+06
4.00145e+06
3.86175e+06
3.72642e+06
3.59724e+06
6.59413e+06
6.42694e+06
6.24814e+06
6.07111e+06
5.89652e+06
5.72443e+06
5.55488e+06
5.38787e+06
5.22343e+06
5.06153e+06
4.9022e+06
4.74544e+06
4.59126e+06
4.43971e+06
4.29084e+06
4.1448e+06
4.00181e+06
3.86237e+06
3.72743e+06
3.59876e+06
6.59411e+06
6.42695e+06
6.24815e+06
6.07111e+06
5.89652e+06
5.72443e+06
5.55488e+06
5.38788e+06
5.22343e+06
5.06154e+06
4.90221e+06
4.74545e+06
4.59129e+06
4.43977e+06
4.29095e+06
4.14499e+06
4.00215e+06
3.86296e+06
3.72839e+06
3.60017e+06
6.59409e+06
6.42695e+06
6.24816e+06
6.07112e+06
5.89652e+06
5.72443e+06
5.55488e+06
5.38788e+06
5.22343e+06
5.06155e+06
4.90222e+06
4.74547e+06
4.59132e+06
4.43982e+06
4.29106e+06
4.14518e+06
4.00248e+06
3.86351e+06
3.72929e+06
3.60148e+06
6.59406e+06
6.42695e+06
6.24817e+06
6.07113e+06
5.89652e+06
5.72443e+06
5.55488e+06
5.38788e+06
5.22344e+06
5.06155e+06
4.90223e+06
4.74549e+06
4.59135e+06
4.43988e+06
4.29115e+06
4.14535e+06
4.00278e+06
3.86403e+06
3.73011e+06
3.60268e+06
6.59403e+06
6.42696e+06
6.24819e+06
6.07113e+06
5.89652e+06
5.72443e+06
5.55488e+06
5.38789e+06
5.22344e+06
5.06156e+06
4.90224e+06
4.7455e+06
4.59138e+06
4.43993e+06
4.29125e+06
4.14551e+06
4.00307e+06
3.86451e+06
3.73088e+06
3.60378e+06
6.59399e+06
6.42696e+06
6.2482e+06
6.07114e+06
5.89652e+06
5.72443e+06
5.55488e+06
5.38789e+06
5.22345e+06
5.06156e+06
4.90225e+06
4.74552e+06
4.59141e+06
4.43998e+06
4.29133e+06
4.14566e+06
4.00333e+06
3.86495e+06
3.73157e+06
3.60478e+06
6.59395e+06
6.42697e+06
6.24822e+06
6.07115e+06
5.89652e+06
5.72443e+06
5.55489e+06
5.38789e+06
5.22345e+06
5.06157e+06
4.90226e+06
4.74553e+06
4.59143e+06
4.44002e+06
4.29141e+06
4.1458e+06
4.00357e+06
3.86535e+06
3.7322e+06
3.60567e+06
6.59391e+06
6.42699e+06
6.24824e+06
6.07115e+06
5.89652e+06
5.72443e+06
5.55489e+06
5.3879e+06
5.22345e+06
5.06157e+06
4.90226e+06
4.74555e+06
4.59146e+06
4.44006e+06
4.29148e+06
4.14593e+06
4.00378e+06
3.86571e+06
3.73276e+06
3.60647e+06
6.59386e+06
6.427e+06
6.24826e+06
6.07116e+06
5.89652e+06
5.72443e+06
5.55489e+06
5.3879e+06
5.22346e+06
5.06158e+06
4.90227e+06
4.74556e+06
4.59147e+06
4.4401e+06
4.29154e+06
4.14604e+06
4.00397e+06
3.86602e+06
3.73325e+06
3.60716e+06
6.59381e+06
6.42702e+06
6.24828e+06
6.07116e+06
5.89652e+06
5.72444e+06
5.5549e+06
5.3879e+06
5.22346e+06
5.06158e+06
4.90228e+06
4.74557e+06
4.59149e+06
4.44013e+06
4.2916e+06
4.14613e+06
4.00414e+06
3.86629e+06
3.73367e+06
3.60776e+06
6.59375e+06
6.42705e+06
6.2483e+06
6.07117e+06
5.89653e+06
5.72444e+06
5.5549e+06
5.3879e+06
5.22346e+06
5.06158e+06
4.90228e+06
4.74557e+06
4.59151e+06
4.44015e+06
4.29164e+06
4.14621e+06
4.00427e+06
3.86652e+06
3.73402e+06
3.60825e+06
6.59369e+06
6.42707e+06
6.24832e+06
6.07117e+06
5.89653e+06
5.72444e+06
5.5549e+06
5.3879e+06
5.22346e+06
5.06159e+06
4.90228e+06
4.74558e+06
4.59152e+06
4.44017e+06
4.29168e+06
4.14628e+06
4.00439e+06
3.8667e+06
3.7343e+06
3.60864e+06
6.59362e+06
6.4271e+06
6.24834e+06
6.07118e+06
5.89653e+06
5.72444e+06
5.5549e+06
5.38791e+06
5.22346e+06
5.06159e+06
4.90229e+06
4.74559e+06
4.59153e+06
4.44019e+06
4.29171e+06
4.14633e+06
4.00447e+06
3.86684e+06
3.73451e+06
3.60893e+06
6.59352e+06
6.42712e+06
6.24835e+06
6.07118e+06
5.89653e+06
5.72444e+06
5.5549e+06
5.38791e+06
5.22347e+06
5.06159e+06
4.90229e+06
4.74559e+06
4.59153e+06
4.4402e+06
4.29172e+06
4.14636e+06
4.00453e+06
3.86693e+06
3.73465e+06
3.60913e+06
6.59338e+06
6.42712e+06
6.24835e+06
6.07118e+06
5.89653e+06
5.72444e+06
5.5549e+06
5.38791e+06
5.22347e+06
5.06159e+06
4.90229e+06
4.74559e+06
4.59153e+06
4.4402e+06
4.29173e+06
4.14638e+06
4.00455e+06
3.86698e+06
3.73472e+06
3.60922e+06
3.38649e+06
3.35012e+06
3.32195e+06
3.29725e+06
3.2741e+06
3.25196e+06
3.23053e+06
3.20965e+06
3.18918e+06
3.16903e+06
3.14917e+06
3.12953e+06
3.11008e+06
3.09079e+06
3.07164e+06
3.05262e+06
3.03371e+06
3.01488e+06
2.99614e+06
2.97748e+06
2.9589e+06
2.94038e+06
2.92191e+06
2.9035e+06
2.88514e+06
2.86683e+06
2.84856e+06
2.83035e+06
2.8122e+06
2.79411e+06
2.77608e+06
2.75813e+06
2.74024e+06
2.72241e+06
2.70466e+06
2.68697e+06
2.66935e+06
2.65179e+06
2.6343e+06
2.61687e+06
2.59951e+06
2.58222e+06
2.56499e+06
2.54783e+06
2.53074e+06
2.5137e+06
2.49672e+06
2.4798e+06
2.46295e+06
2.44615e+06
2.42941e+06
2.41273e+06
2.3961e+06
2.37953e+06
2.36301e+06
2.34654e+06
2.33013e+06
2.31377e+06
2.29746e+06
2.28122e+06
2.26503e+06
2.2489e+06
2.23284e+06
2.21685e+06
2.20091e+06
2.18504e+06
2.16923e+06
2.15349e+06
2.1378e+06
2.12217e+06
2.10661e+06
2.0911e+06
2.07565e+06
2.06026e+06
2.04493e+06
2.02965e+06
2.01444e+06
1.99927e+06
1.98417e+06
1.96912e+06
1.95413e+06
1.93919e+06
1.92431e+06
1.90948e+06
1.89471e+06
1.87999e+06
1.86533e+06
1.85072e+06
1.83616e+06
1.82166e+06
1.80722e+06
1.79283e+06
1.7785e+06
1.76422e+06
1.75e+06
1.73584e+06
1.72174e+06
1.7077e+06
1.69372e+06
1.6798e+06
1.66593e+06
1.65212e+06
1.63837e+06
1.62468e+06
1.61104e+06
1.59747e+06
1.58394e+06
1.57048e+06
1.55707e+06
1.54371e+06
1.53042e+06
1.51718e+06
1.50399e+06
1.49087e+06
1.4778e+06
1.46478e+06
1.45183e+06
1.43892e+06
1.42608e+06
1.41329e+06
1.40055e+06
1.38786e+06
1.37523e+06
1.36265e+06
1.35013e+06
1.33766e+06
1.32526e+06
1.31291e+06
1.30062e+06
1.2884e+06
1.27624e+06
1.26414e+06
1.25211e+06
1.24014e+06
1.22823e+06
1.21637e+06
1.20458e+06
1.19285e+06
1.18117e+06
1.16955e+06
1.15799e+06
1.14648e+06
1.13503e+06
1.12364e+06
1.1123e+06
1.10103e+06
1.08981e+06
1.07865e+06
1.06754e+06
1.0565e+06
1.04551e+06
1.03458e+06
1.02371e+06
1.01289e+06
1.00214e+06
991437
980794
970208
959678
949206
938791
928432
918130
907885
897696
887564
877488
867467
857503
847594
837741
827943
818199
808509
798874
789291
779761
770282
760853
751474
742142
732857
723615
714414
705252
696123
687024
677949
668890
659838
650782
641706
632590
623408
614123
604675
594983
584919
574006
562113
3.40369e+06
3.36408e+06
3.33296e+06
3.30625e+06
3.28174e+06
3.25855e+06
3.2363e+06
3.21472e+06
3.19367e+06
3.17303e+06
3.15274e+06
3.13272e+06
3.11294e+06
3.09336e+06
3.07395e+06
3.05469e+06
3.03557e+06
3.01656e+06
2.99765e+06
2.97883e+06
2.96011e+06
2.94146e+06
2.92288e+06
2.90437e+06
2.88592e+06
2.86753e+06
2.84919e+06
2.83092e+06
2.81271e+06
2.79457e+06
2.7765e+06
2.75851e+06
2.74058e+06
2.72272e+06
2.70494e+06
2.68723e+06
2.66958e+06
2.652e+06
2.63449e+06
2.61704e+06
2.59967e+06
2.58236e+06
2.56512e+06
2.54795e+06
2.53084e+06
2.5138e+06
2.49682e+06
2.4799e+06
2.46303e+06
2.44623e+06
2.42949e+06
2.4128e+06
2.39617e+06
2.37959e+06
2.36307e+06
2.34661e+06
2.33019e+06
2.31383e+06
2.29752e+06
2.28128e+06
2.26509e+06
2.24897e+06
2.23291e+06
2.21691e+06
2.20098e+06
2.18511e+06
2.1693e+06
2.15355e+06
2.13786e+06
2.12224e+06
2.10667e+06
2.09116e+06
2.07571e+06
2.06032e+06
2.04498e+06
2.02971e+06
2.01449e+06
1.99932e+06
1.98422e+06
1.96916e+06
1.95417e+06
1.93923e+06
1.92434e+06
1.90951e+06
1.89473e+06
1.88001e+06
1.86534e+06
1.85073e+06
1.83617e+06
1.82167e+06
1.80722e+06
1.79283e+06
1.7785e+06
1.76423e+06
1.75001e+06
1.73585e+06
1.72175e+06
1.70771e+06
1.69373e+06
1.6798e+06
1.66594e+06
1.65213e+06
1.63838e+06
1.62469e+06
1.61106e+06
1.59748e+06
1.58396e+06
1.57049e+06
1.55708e+06
1.54373e+06
1.53043e+06
1.51719e+06
1.50401e+06
1.49088e+06
1.47781e+06
1.4648e+06
1.45184e+06
1.43894e+06
1.42609e+06
1.4133e+06
1.40056e+06
1.38787e+06
1.37524e+06
1.36266e+06
1.35013e+06
1.33767e+06
1.32525e+06
1.3129e+06
1.30062e+06
1.28839e+06
1.27623e+06
1.26413e+06
1.25209e+06
1.24012e+06
1.22821e+06
1.21635e+06
1.20456e+06
1.19282e+06
1.18114e+06
1.16952e+06
1.15796e+06
1.14645e+06
1.135e+06
1.12361e+06
1.11227e+06
1.10099e+06
1.08977e+06
1.07861e+06
1.0675e+06
1.05645e+06
1.04546e+06
1.03453e+06
1.02365e+06
1.01283e+06
1.00207e+06
991360
980710
970116
959578
949097
938671
928302
917988
907729
897526
887378
877284
867245
857260
847329
837451
827626
817852
808131
798460
788839
779266
769741
760262
750828
741436
732084
722769
713488
704237
695010
685803
676606
667412
658209
648981
639710
630368
620920
611317
601476
591274
580512
568562
554477
3.41728e+06
3.37634e+06
3.34331e+06
3.31495e+06
3.28919e+06
3.26503e+06
3.24198e+06
3.21974e+06
3.19813e+06
3.17701e+06
3.15628e+06
3.1359e+06
3.11579e+06
3.09591e+06
3.07625e+06
3.05676e+06
3.03743e+06
3.01823e+06
2.99915e+06
2.98018e+06
2.96132e+06
2.94254e+06
2.92385e+06
2.90524e+06
2.8867e+06
2.86823e+06
2.84982e+06
2.83149e+06
2.81323e+06
2.79504e+06
2.77692e+06
2.75888e+06
2.74092e+06
2.72304e+06
2.70522e+06
2.68748e+06
2.66981e+06
2.65221e+06
2.63468e+06
2.61721e+06
2.59982e+06
2.5825e+06
2.56525e+06
2.54807e+06
2.53095e+06
2.51391e+06
2.49692e+06
2.47999e+06
2.46312e+06
2.44631e+06
2.42957e+06
2.41287e+06
2.39624e+06
2.37966e+06
2.36314e+06
2.34667e+06
2.33025e+06
2.31389e+06
2.29759e+06
2.28134e+06
2.26515e+06
2.24903e+06
2.23297e+06
2.21697e+06
2.20104e+06
2.18517e+06
2.16936e+06
2.15361e+06
2.13792e+06
2.1223e+06
2.10673e+06
2.09122e+06
2.07576e+06
2.06037e+06
2.04503e+06
2.02975e+06
2.01453e+06
1.99937e+06
1.98426e+06
1.9692e+06
1.9542e+06
1.93926e+06
1.92437e+06
1.90953e+06
1.89475e+06
1.88002e+06
1.86535e+06
1.85073e+06
1.83617e+06
1.82167e+06
1.80722e+06
1.79283e+06
1.7785e+06
1.76422e+06
1.75001e+06
1.73585e+06
1.72175e+06
1.70771e+06
1.69373e+06
1.67981e+06
1.66594e+06
1.65214e+06
1.63839e+06
1.6247e+06
1.61106e+06
1.59748e+06
1.58396e+06
1.5705e+06
1.55709e+06
1.54374e+06
1.53044e+06
1.5172e+06
1.50402e+06
1.49089e+06
1.47782e+06
1.46481e+06
1.45185e+06
1.43895e+06
1.42611e+06
1.41331e+06
1.40057e+06
1.38788e+06
1.37525e+06
1.36266e+06
1.35014e+06
1.33767e+06
1.32525e+06
1.3129e+06
1.30061e+06
1.28838e+06
1.27622e+06
1.26412e+06
1.25208e+06
1.2401e+06
1.22819e+06
1.21633e+06
1.20453e+06
1.1928e+06
1.18112e+06
1.1695e+06
1.15793e+06
1.14642e+06
1.13497e+06
1.12358e+06
1.11224e+06
1.10096e+06
1.08973e+06
1.07857e+06
1.06746e+06
1.05641e+06
1.04541e+06
1.03447e+06
1.02359e+06
1.01277e+06
1.002e+06
991284
980626
970025
959478
948988
938552
928171
917845
907574
897356
887192
877081
867023
857018
847064
837162
827310
817507
807754
798048
788388
778774
769203
759675
750185
740733
731315
721928
712568
703229
693906
684591
675276
665950
656599
647204
637742
628183
618482
608577
598375
587707
576365
563648
548407
3.42843e+06
3.38722e+06
3.35296e+06
3.32327e+06
3.29641e+06
3.27136e+06
3.24755e+06
3.22468e+06
3.20252e+06
3.18093e+06
3.15979e+06
3.13904e+06
3.11861e+06
3.09845e+06
3.07853e+06
3.05881e+06
3.03927e+06
3.01989e+06
3.00064e+06
2.98152e+06
2.96251e+06
2.94362e+06
2.92481e+06
2.9061e+06
2.88747e+06
2.86892e+06
2.85045e+06
2.83205e+06
2.81374e+06
2.7955e+06
2.77734e+06
2.75926e+06
2.74126e+06
2.72335e+06
2.7055e+06
2.68773e+06
2.67004e+06
2.65242e+06
2.63487e+06
2.61739e+06
2.59998e+06
2.58264e+06
2.56538e+06
2.54819e+06
2.53107e+06
2.51401e+06
2.49702e+06
2.48009e+06
2.46321e+06
2.4464e+06
2.42964e+06
2.41295e+06
2.39631e+06
2.37973e+06
2.3632e+06
2.34673e+06
2.33031e+06
2.31395e+06
2.29765e+06
2.2814e+06
2.26522e+06
2.24909e+06
2.23303e+06
2.21704e+06
2.2011e+06
2.18523e+06
2.16942e+06
2.15367e+06
2.13798e+06
2.12235e+06
2.10678e+06
2.09127e+06
2.07581e+06
2.06042e+06
2.04508e+06
2.0298e+06
2.01457e+06
1.9994e+06
1.98429e+06
1.96923e+06
1.95423e+06
1.93928e+06
1.92438e+06
1.90954e+06
1.89476e+06
1.88002e+06
1.86535e+06
1.85073e+06
1.83616e+06
1.82166e+06
1.80721e+06
1.79282e+06
1.77849e+06
1.76421e+06
1.75e+06
1.73584e+06
1.72175e+06
1.70771e+06
1.69373e+06
1.67981e+06
1.66594e+06
1.65214e+06
1.63839e+06
1.6247e+06
1.61107e+06
1.59749e+06
1.58397e+06
1.5705e+06
1.55709e+06
1.54374e+06
1.53045e+06
1.51721e+06
1.50403e+06
1.4909e+06
1.47783e+06
1.46482e+06
1.45186e+06
1.43896e+06
1.42611e+06
1.41332e+06
1.40058e+06
1.38789e+06
1.37525e+06
1.36267e+06
1.35014e+06
1.33767e+06
1.32525e+06
1.31289e+06
1.3006e+06
1.28837e+06
1.27621e+06
1.2641e+06
1.25206e+06
1.24009e+06
1.22817e+06
1.21631e+06
1.20451e+06
1.19277e+06
1.18109e+06
1.16947e+06
1.1579e+06
1.14639e+06
1.13494e+06
1.12355e+06
1.11221e+06
1.10092e+06
1.0897e+06
1.07853e+06
1.06742e+06
1.05636e+06
1.04536e+06
1.03442e+06
1.02353e+06
1.0127e+06
1.00193e+06
991207
980543
969934
959379
948879
938433
928042
917704
907419
897187
887007
876879
866803
856777
846801
836874
826995
817164
807378
797638
787940
778285
768669
759091
749547
740036
730553
721094
711655
702230
692812
683393
673961
664506
655010
645454
635809
626041
616101
605911
595389
584305
572502
559243
543608
3.43792e+06
3.39687e+06
3.36186e+06
3.33116e+06
3.30336e+06
3.2775e+06
3.253e+06
3.22952e+06
3.20684e+06
3.18479e+06
3.16325e+06
3.14214e+06
3.1214e+06
3.10096e+06
3.08078e+06
3.06084e+06
3.04109e+06
3.02152e+06
3.00211e+06
2.98284e+06
2.9637e+06
2.94468e+06
2.92577e+06
2.90696e+06
2.88824e+06
2.86961e+06
2.85107e+06
2.83261e+06
2.81424e+06
2.79596e+06
2.77776e+06
2.75964e+06
2.74161e+06
2.72365e+06
2.70578e+06
2.68799e+06
2.67027e+06
2.65262e+06
2.63506e+06
2.61756e+06
2.60014e+06
2.58279e+06
2.56552e+06
2.54831e+06
2.53118e+06
2.51412e+06
2.49712e+06
2.48018e+06
2.4633e+06
2.44648e+06
2.42972e+06
2.41302e+06
2.39638e+06
2.37979e+06
2.36326e+06
2.34679e+06
2.33037e+06
2.31401e+06
2.29771e+06
2.28146e+06
2.26528e+06
2.24915e+06
2.23309e+06
2.2171e+06
2.20116e+06
2.18529e+06
2.16948e+06
2.15373e+06
2.13804e+06
2.1224e+06
2.10683e+06
2.09132e+06
2.07586e+06
2.06046e+06
2.04512e+06
2.02983e+06
2.01461e+06
1.99943e+06
1.98432e+06
1.96926e+06
1.95425e+06
1.93929e+06
1.92439e+06
1.90955e+06
1.89476e+06
1.88002e+06
1.86534e+06
1.85072e+06
1.83615e+06
1.82164e+06
1.8072e+06
1.7928e+06
1.77847e+06
1.7642e+06
1.74998e+06
1.73583e+06
1.72173e+06
1.7077e+06
1.69372e+06
1.6798e+06
1.66594e+06
1.65213e+06
1.63839e+06
1.6247e+06
1.61106e+06
1.59748e+06
1.58396e+06
1.5705e+06
1.55709e+06
1.54374e+06
1.53044e+06
1.51721e+06
1.50403e+06
1.4909e+06
1.47783e+06
1.46482e+06
1.45187e+06
1.43897e+06
1.42612e+06
1.41332e+06
1.40058e+06
1.38789e+06
1.37525e+06
1.36267e+06
1.35014e+06
1.33766e+06
1.32525e+06
1.31289e+06
1.30059e+06
1.28836e+06
1.27619e+06
1.26409e+06
1.25205e+06
1.24007e+06
1.22815e+06
1.21629e+06
1.20449e+06
1.19275e+06
1.18107e+06
1.16945e+06
1.15788e+06
1.14637e+06
1.13491e+06
1.12352e+06
1.11217e+06
1.10089e+06
1.08966e+06
1.07849e+06
1.06737e+06
1.05632e+06
1.04531e+06
1.03437e+06
1.02347e+06
1.01264e+06
1.00186e+06
991132
980460
969843
959280
948771
938315
927913
917563
907265
897019
886823
876679
866583
856537
846539
836588
826683
816823
807006
797231
787496
777799
768139
758511
748914
739344
729797
720268
710752
701242
691731
682209
672664
663083
653448
643735
633916
623947
613789
603329
592531
581081
568929
555335
539670
3.44616e+06
3.4055e+06
3.37007e+06
3.33861e+06
3.31002e+06
3.28343e+06
3.25829e+06
3.23425e+06
3.21107e+06
3.18858e+06
3.16665e+06
3.1452e+06
3.12415e+06
3.10343e+06
3.083e+06
3.06284e+06
3.04289e+06
3.02314e+06
3.00356e+06
2.98415e+06
2.96487e+06
2.94573e+06
2.92671e+06
2.9078e+06
2.889e+06
2.8703e+06
2.85169e+06
2.83317e+06
2.81475e+06
2.79641e+06
2.77817e+06
2.76001e+06
2.74195e+06
2.72396e+06
2.70606e+06
2.68824e+06
2.6705e+06
2.65283e+06
2.63525e+06
2.61774e+06
2.6003e+06
2.58294e+06
2.56565e+06
2.54844e+06
2.5313e+06
2.51423e+06
2.49723e+06
2.48028e+06
2.46339e+06
2.44656e+06
2.4298e+06
2.41309e+06
2.39644e+06
2.37985e+06
2.36332e+06
2.34685e+06
2.33043e+06
2.31407e+06
2.29776e+06
2.28152e+06
2.26534e+06
2.24921e+06
2.23315e+06
2.21715e+06
2.20122e+06
2.18535e+06
2.16953e+06
2.15378e+06
2.13809e+06
2.12245e+06
2.10688e+06
2.09136e+06
2.0759e+06
2.0605e+06
2.04515e+06
2.02986e+06
2.01463e+06
1.99946e+06
1.98434e+06
1.96927e+06
1.95426e+06
1.9393e+06
1.9244e+06
1.90955e+06
1.89475e+06
1.88001e+06
1.86533e+06
1.8507e+06
1.83613e+06
1.82162e+06
1.80717e+06
1.79278e+06
1.77845e+06
1.76418e+06
1.74997e+06
1.73581e+06
1.72172e+06
1.70768e+06
1.6937e+06
1.67978e+06
1.66592e+06
1.65212e+06
1.63837e+06
1.62469e+06
1.61105e+06
1.59748e+06
1.58396e+06
1.57049e+06
1.55708e+06
1.54373e+06
1.53044e+06
1.5172e+06
1.50402e+06
1.4909e+06
1.47783e+06
1.46482e+06
1.45186e+06
1.43896e+06
1.42612e+06
1.41332e+06
1.40058e+06
1.38789e+06
1.37525e+06
1.36267e+06
1.35014e+06
1.33766e+06
1.32524e+06
1.31288e+06
1.30059e+06
1.28835e+06
1.27618e+06
1.26408e+06
1.25203e+06
1.24005e+06
1.22813e+06
1.21628e+06
1.20447e+06
1.19273e+06
1.18105e+06
1.16942e+06
1.15785e+06
1.14634e+06
1.13489e+06
1.12349e+06
1.11214e+06
1.10086e+06
1.08963e+06
1.07845e+06
1.06733e+06
1.05627e+06
1.04526e+06
1.03431e+06
1.02342e+06
1.01258e+06
1.00179e+06
991056
980378
969753
959182
948664
938198
927785
917423
907112
896852
886641
876479
866366
856300
846280
836305
826373
816484
806636
796827
787055
777318
767613
757938
748288
738660
729050
719452
709860
700267
690665
681042
671388
661684
651915
642049
632069
621905
611552
600838
589806
578050
565634
551868
536331
3.45341e+06
3.41327e+06
3.37763e+06
3.34562e+06
3.31638e+06
3.28915e+06
3.26342e+06
3.23885e+06
3.2152e+06
3.19229e+06
3.16999e+06
3.14821e+06
3.12685e+06
3.10586e+06
3.08519e+06
3.0648e+06
3.04466e+06
3.02473e+06
3.005e+06
2.98543e+06
2.96603e+06
2.94677e+06
2.92764e+06
2.90864e+06
2.88975e+06
2.87097e+06
2.8523e+06
2.83372e+06
2.81525e+06
2.79687e+06
2.77858e+06
2.76039e+06
2.74228e+06
2.72427e+06
2.70633e+06
2.68849e+06
2.67072e+06
2.65304e+06
2.63544e+06
2.61791e+06
2.60046e+06
2.58309e+06
2.56579e+06
2.54857e+06
2.53142e+06
2.51434e+06
2.49733e+06
2.48037e+06
2.46348e+06
2.44665e+06
2.42987e+06
2.41316e+06
2.39651e+06
2.37991e+06
2.36338e+06
2.3469e+06
2.33049e+06
2.31412e+06
2.29782e+06
2.28158e+06
2.26539e+06
2.24927e+06
2.23321e+06
2.21721e+06
2.20127e+06
2.1854e+06
2.16958e+06
2.15383e+06
2.13813e+06
2.12249e+06
2.10691e+06
2.09139e+06
2.07593e+06
2.06052e+06
2.04518e+06
2.02989e+06
2.01465e+06
1.99947e+06
1.98435e+06
1.96928e+06
1.95427e+06
1.9393e+06
1.9244e+06
1.90954e+06
1.89474e+06
1.88e+06
1.86531e+06
1.85068e+06
1.83611e+06
1.8216e+06
1.80715e+06
1.79276e+06
1.77843e+06
1.76415e+06
1.74994e+06
1.73579e+06
1.72169e+06
1.70766e+06
1.69368e+06
1.67977e+06
1.66591e+06
1.6521e+06
1.63836e+06
1.62467e+06
1.61104e+06
1.59746e+06
1.58394e+06
1.57048e+06
1.55707e+06
1.54372e+06
1.53043e+06
1.51719e+06
1.50401e+06
1.49089e+06
1.47782e+06
1.46481e+06
1.45186e+06
1.43896e+06
1.42611e+06
1.41332e+06
1.40058e+06
1.38789e+06
1.37525e+06
1.36266e+06
1.35013e+06
1.33765e+06
1.32523e+06
1.31287e+06
1.30058e+06
1.28834e+06
1.27617e+06
1.26406e+06
1.25202e+06
1.24004e+06
1.22812e+06
1.21626e+06
1.20446e+06
1.19272e+06
1.18103e+06
1.1694e+06
1.15783e+06
1.14632e+06
1.13486e+06
1.12346e+06
1.11211e+06
1.10083e+06
1.08959e+06
1.07842e+06
1.06729e+06
1.05623e+06
1.04522e+06
1.03426e+06
1.02336e+06
1.01251e+06
1.00172e+06
990982
980296
969665
959084
948558
938082
927658
917284
906961
896686
886461
876282
866151
856064
846023
836024
826067
816149
806271
796428
786620
776842
767094
757370
747669
737984
728312
718646
708980
699306
689615
679894
670134
660309
650416
640400
630274
619920
609395
598449
587214
575218
562599
548779
533427
3.4599e+06
3.42031e+06
3.38461e+06
3.3522e+06
3.32242e+06
3.29464e+06
3.26838e+06
3.24332e+06
3.21923e+06
3.19592e+06
3.17326e+06
3.15115e+06
3.1295e+06
3.10825e+06
3.08735e+06
3.06674e+06
3.04641e+06
3.0263e+06
3.00641e+06
2.9867e+06
2.96717e+06
2.9478e+06
2.92857e+06
2.90947e+06
2.8905e+06
2.87164e+06
2.8529e+06
2.83427e+06
2.81574e+06
2.79732e+06
2.77899e+06
2.76075e+06
2.74261e+06
2.72457e+06
2.70661e+06
2.68874e+06
2.67095e+06
2.65325e+06
2.63563e+06
2.61809e+06
2.60063e+06
2.58325e+06
2.56594e+06
2.5487e+06
2.53154e+06
2.51445e+06
2.49743e+06
2.48047e+06
2.46357e+06
2.44673e+06
2.42995e+06
2.41323e+06
2.39657e+06
2.37997e+06
2.36344e+06
2.34696e+06
2.33054e+06
2.31418e+06
2.29787e+06
2.28163e+06
2.26545e+06
2.24932e+06
2.23326e+06
2.21726e+06
2.20132e+06
2.18544e+06
2.16963e+06
2.15387e+06
2.13817e+06
2.12253e+06
2.10694e+06
2.09142e+06
2.07595e+06
2.06054e+06
2.04519e+06
2.0299e+06
2.01466e+06
1.99948e+06
1.98436e+06
1.96928e+06
1.95426e+06
1.9393e+06
1.92438e+06
1.90953e+06
1.89472e+06
1.87998e+06
1.86528e+06
1.85065e+06
1.83608e+06
1.82157e+06
1.80712e+06
1.79273e+06
1.7784e+06
1.76413e+06
1.74991e+06
1.73576e+06
1.72167e+06
1.70763e+06
1.69366e+06
1.67974e+06
1.66588e+06
1.65208e+06
1.63834e+06
1.62465e+06
1.61102e+06
1.59744e+06
1.58392e+06
1.57046e+06
1.55705e+06
1.5437e+06
1.53041e+06
1.51718e+06
1.504e+06
1.49087e+06
1.47781e+06
1.4648e+06
1.45184e+06
1.43895e+06
1.4261e+06
1.41331e+06
1.40057e+06
1.38788e+06
1.37524e+06
1.36266e+06
1.35012e+06
1.33765e+06
1.32522e+06
1.31286e+06
1.30057e+06
1.28833e+06
1.27616e+06
1.26405e+06
1.25201e+06
1.24003e+06
1.2281e+06
1.21624e+06
1.20444e+06
1.1927e+06
1.18101e+06
1.16938e+06
1.15781e+06
1.14629e+06
1.13483e+06
1.12343e+06
1.11208e+06
1.10079e+06
1.08956e+06
1.07838e+06
1.06725e+06
1.05618e+06
1.04517e+06
1.03421e+06
1.0233e+06
1.01245e+06
1.00165e+06
990909
980215
969577
958988
948453
937967
927533
917147
906812
896522
886282
876087
865938
855831
845769
835746
825764
815818
805910
796033
786190
776372
766581
756810
747059
737317
727586
717851
708116
698359
688586
678765
668909
658962
648956
638791
628534
617999
607320
596168
584755
572588
559804
545997
530844
3.46576e+06
3.42671e+06
3.39105e+06
3.35836e+06
3.32816e+06
3.29989e+06
3.27316e+06
3.24766e+06
3.22315e+06
3.19946e+06
3.17646e+06
3.15404e+06
3.13211e+06
3.1106e+06
3.08947e+06
3.06865e+06
3.04812e+06
3.02785e+06
3.0078e+06
2.98796e+06
2.9683e+06
2.94881e+06
2.92948e+06
2.91029e+06
2.89124e+06
2.87231e+06
2.85351e+06
2.83482e+06
2.81623e+06
2.79776e+06
2.77939e+06
2.76112e+06
2.74295e+06
2.72487e+06
2.70688e+06
2.68899e+06
2.67118e+06
2.65346e+06
2.63582e+06
2.61827e+06
2.6008e+06
2.5834e+06
2.56608e+06
2.54884e+06
2.53166e+06
2.51456e+06
2.49753e+06
2.48056e+06
2.46365e+06
2.44681e+06
2.43002e+06
2.41329e+06
2.39663e+06
2.38003e+06
2.36349e+06
2.34702e+06
2.33059e+06
2.31423e+06
2.29793e+06
2.28168e+06
2.26549e+06
2.24937e+06
2.23331e+06
2.2173e+06
2.20137e+06
2.18549e+06
2.16967e+06
2.15391e+06
2.1382e+06
2.12256e+06
2.10697e+06
2.09144e+06
2.07597e+06
2.06056e+06
2.0452e+06
2.0299e+06
2.01466e+06
1.99948e+06
1.98435e+06
1.96928e+06
1.95425e+06
1.93928e+06
1.92437e+06
1.90951e+06
1.8947e+06
1.87995e+06
1.86525e+06
1.85062e+06
1.83605e+06
1.82154e+06
1.80708e+06
1.79269e+06
1.77836e+06
1.76409e+06
1.74988e+06
1.73573e+06
1.72164e+06
1.70761e+06
1.69363e+06
1.67972e+06
1.66586e+06
1.65206e+06
1.63831e+06
1.62463e+06
1.61099e+06
1.59742e+06
1.5839e+06
1.57044e+06
1.55703e+06
1.54368e+06
1.53039e+06
1.51716e+06
1.50398e+06
1.49086e+06
1.47779e+06
1.46478e+06
1.45183e+06
1.43893e+06
1.42609e+06
1.4133e+06
1.40056e+06
1.38787e+06
1.37523e+06
1.36265e+06
1.35011e+06
1.33764e+06
1.32521e+06
1.31286e+06
1.30056e+06
1.28832e+06
1.27615e+06
1.26404e+06
1.25199e+06
1.24001e+06
1.22809e+06
1.21623e+06
1.20442e+06
1.19268e+06
1.18099e+06
1.16936e+06
1.15779e+06
1.14627e+06
1.13481e+06
1.12341e+06
1.11206e+06
1.10076e+06
1.08952e+06
1.07834e+06
1.06721e+06
1.05614e+06
1.04512e+06
1.03416e+06
1.02325e+06
1.01239e+06
1.00159e+06
990837
980135
969492
958893
948351
937853
927411
917011
906665
896360
886107
875893
865729
855601
845519
835471
825466
815491
805555
795644
785766
775908
766078
756258
746459
736660
726873
717069
707268
697428
687579
677659
667713
657646
647537
637230
626850
616149
605326
594004
582421
570159
557231
543449
528497
3.47112e+06
3.43258e+06
3.39701e+06
3.36414e+06
3.33358e+06
3.30491e+06
3.27776e+06
3.25185e+06
3.22695e+06
3.20291e+06
3.17958e+06
3.15686e+06
3.13466e+06
3.11291e+06
3.09155e+06