/*--------------------------------*- C++ -*----------------------------------*\
| =========                 |                                                 |
| \\      /  F ield         | OpenFOAM: The Open Source CFD Toolbox           |
|  \\    /   O peration     | Version:  2.4.0                                 |
|   \\  /    A nd           | Web:      www.OpenFOAM.org                      |
|    \\/     M anipulation  |                                                 |
\*---------------------------------------------------------------------------*/
FoamFile
{
    version     2.0;
    format      ascii;
    class       volScalarField;
    location    "0.004";
    object      nuSgs;
}
// * * * * * * * * * * * * * * * * * * * * * * * * * * * * * * * * * * * * * //

dimensions      [0 2 -1 0 0 0 0];

internalField   nonuniform List<scalar> 
17600
(
0.00100958
0.000929913
0.000835812
0.000785288
0.000772861
0.00077852
0.000784087
0.000784727
0.000784235
0.000784216
0.000784508
0.000785076
0.000786095
0.0007881
0.000791374
0.000803067
0.000800034
0.000883893
0.000851456
0.000943212
0.000691702
0.000837373
0.000858909
0.000848962
0.000829805
0.000823821
0.000825372
0.000826735
0.000826775
0.00082673
0.000826788
0.000827057
0.000827364
0.000828625
0.000828974
0.000837259
0.000829309
0.000880478
0.000823212
0.000976608
0.000362656
0.000571822
0.000656004
0.000662919
0.000646912
0.000627046
0.000623823
0.000624342
0.000624373
0.000624197
0.000624062
0.000624123
0.000623757
0.000624585
0.000621597
0.000627659
0.00061872
0.00061354
0.000643167
0.000522337
0.000137416
0.000321526
0.000380636
0.000382885
0.000363019
0.000333625
0.000324713
0.000323406
0.000322874
0.000322502
0.000322285
0.000322195
0.000321698
0.000321616
0.000319352
0.000319685
0.000316184
0.000301077
0.000298234
0.000203608
4.51089e-05
0.00014443
0.000158914
0.000150676
0.00012054
9.90777e-05
9.1213e-05
8.94903e-05
8.88712e-05
8.85779e-05
8.84501e-05
8.83948e-05
8.81609e-05
8.80903e-05
8.70126e-05
8.71804e-05
8.45441e-05
7.97555e-05
7.63891e-05
4.97535e-05
1.31841e-05
5.17585e-05
5.04149e-05
3.87632e-05
2.2984e-05
1.45757e-05
1.1574e-05
1.0928e-05
1.06965e-05
1.05982e-05
1.05682e-05
1.05578e-05
1.05186e-05
1.05074e-05
1.03326e-05
1.0362e-05
9.93029e-06
9.29919e-06
9.225e-06
1.6957e-05
3.84847e-06
1.57046e-05
1.3846e-05
8.43541e-06
4.33428e-06
2.22351e-06
1.26574e-06
8.76872e-07
7.25558e-07
6.75968e-07
6.64025e-07
6.61492e-07
6.57974e-07
6.57871e-07
6.46414e-07
6.73639e-07
6.62384e-07
1.68975e-06
3.3799e-06
6.79996e-06
1.86038e-06
4.93547e-06
4.36858e-06
3.26333e-06
2.3407e-06
1.51812e-06
8.98274e-07
4.90835e-07
2.51821e-07
1.24753e-07
6.48648e-08
4.23238e-08
3.61142e-08
3.54437e-08
3.51743e-08
4.24291e-08
1.89922e-07
5.27878e-07
4.33372e-06
5.73811e-06
1.63906e-06
2.76692e-06
2.83975e-06
2.71026e-06
2.30882e-06
1.52076e-06
8.9781e-07
4.88471e-07
2.48517e-07
1.19338e-07
5.4505e-08
2.38939e-08
1.01306e-08
5.08405e-09
5.05973e-09
3.82465e-08
1.3793e-07
8.39981e-07
1.56972e-06
5.90191e-06
1.5995e-06
2.43814e-06
2.69569e-06
2.62162e-06
2.28678e-06
1.51213e-06
8.94074e-07
4.86734e-07
2.47725e-07
1.18987e-07
5.43366e-08
2.37742e-08
9.96129e-09
4.65166e-09
4.52485e-09
1.93448e-08
1.08668e-07
2.73726e-07
9.85446e-07
5.67206e-06
1.57514e-06
2.3151e-06
2.6377e-06
2.57731e-06
2.26664e-06
1.50361e-06
8.90416e-07
4.85098e-07
2.47005e-07
1.18681e-07
5.42121e-08
2.37242e-08
9.94657e-09
4.64291e-09
4.66213e-09
2.23309e-08
8.30392e-08
2.12136e-07
1.17543e-06
4.64998e-06
1.55647e-06
2.22367e-06
2.59457e-06
2.54402e-06
2.25043e-06
1.49633e-06
8.87215e-07
4.8366e-07
2.46374e-07
1.18414e-07
5.4103e-08
2.368e-08
9.93983e-09
4.56697e-09
4.8731e-09
1.69134e-08
8.23495e-08
2.05858e-07
8.61633e-07
2.56909e-06
1.54202e-06
2.15202e-06
2.56095e-06
2.51787e-06
2.23681e-06
1.49001e-06
8.84405e-07
4.82399e-07
2.45823e-07
1.18181e-07
5.40079e-08
2.36413e-08
9.93256e-09
4.54549e-09
5.04261e-09
1.67132e-08
8.0659e-08
1.88614e-07
8.03677e-07
2.58302e-06
1.5309e-06
2.09575e-06
2.53477e-06
2.49741e-06
2.22568e-06
1.48471e-06
8.82019e-07
4.81321e-07
2.45349e-07
1.1798e-07
5.39259e-08
2.36072e-08
9.92929e-09
4.50642e-09
5.25842e-09
1.58227e-08
7.81039e-08
1.86211e-07
6.76871e-07
2.75442e-06
1.52242e-06
2.05189e-06
2.51457e-06
2.48153e-06
2.21668e-06
1.48033e-06
8.80025e-07
4.80415e-07
2.44949e-07
1.1781e-07
5.38563e-08
2.35776e-08
9.92866e-09
4.47866e-09
5.39629e-09
1.52085e-08
7.53609e-08
1.79139e-07
6.2964e-07
2.29527e-06
1.51605e-06
2.01824e-06
2.4992e-06
2.46937e-06
2.20954e-06
1.47679e-06
8.78397e-07
4.79672e-07
2.44622e-07
1.17671e-07
5.37998e-08
2.35539e-08
9.92813e-09
4.45579e-09
5.50507e-09
1.48475e-08
7.15745e-08
1.75615e-07
5.73066e-07
2.12759e-06
1.51138e-06
1.99311e-06
2.48781e-06
2.46031e-06
2.20402e-06
1.47402e-06
8.77137e-07
4.79119e-07
2.44398e-07
1.17592e-07
5.3778e-08
2.35501e-08
9.93752e-09
4.44382e-09
5.57326e-09
1.45699e-08
6.80793e-08
1.70675e-07
5.31372e-07
1.90044e-06
1.50813e-06
1.97526e-06
2.47978e-06
2.45389e-06
2.20003e-06
1.47198e-06
8.76165e-07
4.78645e-07
2.44166e-07
1.17476e-07
5.37191e-08
2.35188e-08
9.92827e-09
4.42558e-09
5.59692e-09
1.44003e-08
6.44596e-08
1.66458e-07
4.94464e-07
1.72632e-06
1.50606e-06
1.96382e-06
2.47465e-06
2.44977e-06
2.19741e-06
1.47064e-06
8.75533e-07
4.78352e-07
2.44034e-07
1.17419e-07
5.36947e-08
2.35075e-08
9.92906e-09
4.41707e-09
5.59355e-09
1.42863e-08
6.1086e-08
1.61813e-07
4.62726e-07
1.62614e-06
1.50507e-06
1.95822e-06
2.47215e-06
2.44775e-06
2.19612e-06
1.46997e-06
8.75217e-07
4.78205e-07
2.43968e-07
1.1739e-07
5.36824e-08
2.35015e-08
9.93095e-09
4.41234e-09
5.56524e-09
1.42088e-08
5.79264e-08
1.57226e-07
4.36597e-07
1.49418e-06
1.50507e-06
1.95822e-06
2.47213e-06
2.44773e-06
2.19611e-06
1.46996e-06
8.7521e-07
4.782e-07
2.43966e-07
1.17388e-07
5.36811e-08
2.34999e-08
9.93359e-09
4.41056e-09
5.51854e-09
1.41468e-08
5.50378e-08
1.52599e-07
4.13379e-07
1.40458e-06
1.50606e-06
1.96379e-06
2.47461e-06
2.44972e-06
2.19738e-06
1.47062e-06
8.75513e-07
4.78339e-07
2.44027e-07
1.17413e-07
5.36909e-08
2.35029e-08
9.93709e-09
4.4111e-09
5.45908e-09
1.40889e-08
5.24177e-08
1.48019e-07
3.93336e-07
1.32e-06
1.50813e-06
1.97522e-06
2.47969e-06
2.45381e-06
2.19998e-06
1.47194e-06
8.76129e-07
4.78621e-07
2.44152e-07
1.17466e-07
5.37118e-08
2.35104e-08
9.94154e-09
4.41338e-09
5.39174e-09
1.40263e-08
5.00589e-08
1.43537e-07
3.75507e-07
1.24675e-06
1.51138e-06
1.99305e-06
2.48769e-06
2.4602e-06
2.20396e-06
1.47397e-06
8.77068e-07
4.79052e-07
2.44342e-07
1.17546e-07
5.37441e-08
2.35225e-08
9.94713e-09
4.41691e-09
5.32051e-09
1.39545e-08
4.79434e-08
1.39196e-07
3.5951e-07
1.18186e-06
1.51605e-06
2.01815e-06
2.49904e-06
2.46923e-06
2.20944e-06
1.47671e-06
8.78337e-07
4.79632e-07
2.44598e-07
1.17655e-07
5.37879e-08
2.35393e-08
9.95396e-09
4.42124e-09
5.24862e-09
1.38709e-08
4.60508e-08
1.35031e-07
3.44947e-07
1.12673e-06
1.52242e-06
2.05178e-06
2.51437e-06
2.48135e-06
2.21656e-06
1.48024e-06
8.79955e-07
4.8037e-07
2.44924e-07
1.17793e-07
5.38435e-08
2.35608e-08
9.96224e-09
4.42601e-09
5.17857e-09
1.37748e-08
4.43599e-08
1.31064e-07
3.31505e-07
1.07947e-06
1.5309e-06
2.09561e-06
2.53452e-06
2.49719e-06
2.22553e-06
1.4846e-06
8.81936e-07
4.81269e-07
2.4532e-07
1.1796e-07
5.39112e-08
2.35871e-08
9.97208e-09
4.43094e-09
5.11231e-09
1.3666e-08
4.28524e-08
1.27306e-07
3.18931e-07
1.04043e-06
1.54202e-06
2.15187e-06
2.56066e-06
2.51761e-06
2.23664e-06
1.48989e-06
8.84314e-07
4.82343e-07
2.45792e-07
1.1816e-07
5.39927e-08
2.36191e-08
9.98418e-09
4.43615e-09
5.05158e-09
1.35451e-08
4.15135e-08
1.23756e-07
3.07007e-07
1.00987e-06
1.55647e-06
2.2235e-06
2.59424e-06
2.54372e-06
2.25022e-06
1.4962e-06
8.87136e-07
4.83632e-07
2.46378e-07
1.18423e-07
5.41103e-08
2.36715e-08
1.00073e-08
4.44621e-09
5.00049e-09
1.34137e-08
4.03344e-08
1.20396e-07
2.95575e-07
9.82096e-07
1.57515e-06
2.31489e-06
2.63732e-06
2.57697e-06
2.26643e-06
1.50346e-06
8.9031e-07
4.85032e-07
2.46969e-07
1.18657e-07
5.41941e-08
2.36975e-08
1.00131e-08
4.4449e-09
4.94937e-09
1.32647e-08
3.92868e-08
1.1712e-07
2.84134e-07
9.59147e-07
1.59955e-06
2.43787e-06
2.69524e-06
2.62122e-06
2.28654e-06
1.51197e-06
8.9396e-07
4.86663e-07
2.47686e-07
1.1896e-07
5.43166e-08
2.37451e-08
1.00315e-08
4.45636e-09
4.93168e-09
1.31518e-08
3.85483e-08
1.14306e-07
2.74233e-07
9.43648e-07
1.63965e-06
2.76704e-06
2.83909e-06
2.70963e-06
2.30853e-06
1.5206e-06
8.97696e-07
4.884e-07
2.48478e-07
1.19313e-07
5.44909e-08
2.38969e-08
1.03859e-08
5.93181e-09
7.76435e-09
1.72362e-08
4.49869e-08
1.20649e-07
2.86557e-07
9.47551e-07
1.86452e-06
4.94056e-06
4.36935e-06
3.26214e-06
2.33996e-06
1.51779e-06
8.98096e-07
4.90792e-07
2.52028e-07
1.25197e-07
6.64713e-08
4.69105e-08
4.8253e-08
5.74372e-08
7.93885e-08
1.22931e-07
2.1687e-07
3.54943e-07
7.20699e-07
1.21898e-06
3.85818e-06
1.57238e-05
1.38554e-05
8.4367e-06
4.33242e-06
2.2222e-06
1.26407e-06
8.81692e-07
7.42509e-07
6.93766e-07
6.96294e-07
7.19018e-07
7.72416e-07
8.72396e-07
1.05036e-06
1.34522e-06
1.92624e-06
2.47555e-06
4.12852e-06
3.92021e-06
1.31856e-05
5.17845e-05
5.0439e-05
3.87758e-05
2.29865e-05
1.45749e-05
1.1561e-05
1.09535e-05
1.07855e-05
1.06994e-05
1.073e-05
1.08542e-05
1.1125e-05
1.15978e-05
1.24547e-05
1.3706e-05
1.62646e-05
1.79331e-05
2.33323e-05
2.07652e-05
4.50984e-05
0.000144426
0.000158931
0.000150698
0.000120549
9.90584e-05
9.11642e-05
8.95072e-05
8.90146e-05
8.87817e-05
8.88202e-05
8.90323e-05
8.95334e-05
9.04042e-05
9.20271e-05
9.42179e-05
9.91089e-05
0.000101194
0.000109862
0.000101156
0.000137418
0.000321497
0.000380627
0.000382892
0.000363017
0.000333581
0.000324664
0.000323404
0.000322958
0.000322682
0.000322702
0.00032287
0.00032328
0.000323937
0.00032515
0.00032653
0.000329786
0.000329108
0.000332248
0.000320365
0.000362686
0.000571807
0.000655989
0.000662909
0.000646898
0.000627024
0.000623809
0.000624338
0.000624398
0.000624235
0.000624202
0.000624247
0.000624352
0.000624412
0.000624452
0.000624097
0.000623323
0.000618751
0.000614528
0.000598531
0.000691713
0.000837352
0.000858906
0.000848932
0.00082979
0.00082382
0.000825357
0.000826666
0.000826651
0.000826482
0.000826333
0.00082609
0.000825617
0.00082464
0.000822961
0.000819638
0.000814371
0.00080438
0.000793196
0.000766237
0.00100958
0.000929887
0.000835817
0.000785235
0.000772851
0.000778506
0.000784026
0.000784572
0.000783941
0.000783604
0.000783357
0.00078281
0.000781743
0.000779737
0.000776308
0.000770396
0.000760868
0.000746657
0.000730975
0.000683491
0.000492849
0.000360761
0.000193331
9.42442e-05
4.60293e-05
2.87658e-05
2.72581e-05
2.46734e-05
1.92736e-05
1.32301e-05
8.74841e-06
5.84086e-06
3.99065e-06
2.84098e-06
2.09498e-06
1.57436e-06
1.20135e-06
9.2925e-07
7.27303e-07
5.74898e-07
4.58153e-07
3.67574e-07
2.96535e-07
2.40308e-07
1.95461e-07
1.59463e-07
1.30421e-07
1.06887e-07
8.7747e-08
7.21349e-08
5.93709e-08
4.89135e-08
4.03302e-08
3.32757e-08
2.74719e-08
2.26916e-08
1.87509e-08
1.55003e-08
1.28178e-08
1.06027e-08
8.77259e-09
7.2603e-09
6.01032e-09
4.9767e-09
4.12167e-09
3.4143e-09
2.82909e-09
2.34474e-09
1.94372e-09
1.61173e-09
1.3369e-09
1.10926e-09
9.2066e-10
7.64435e-10
6.3503e-10
5.27764e-10
4.38825e-10
3.65117e-10
3.04031e-10
2.53356e-10
2.11307e-10
1.76438e-10
1.4752e-10
1.23509e-10
1.03565e-10
8.7016e-11
7.32817e-11
6.18634e-11
5.23692e-11
4.44861e-11
3.79423e-11
3.24972e-11
2.79669e-11
2.42091e-11
2.1094e-11
1.85036e-11
1.63489e-11
1.45629e-11
1.30835e-11
1.18513e-11
1.08256e-11
9.97635e-12
9.27417e-12
8.68999e-12
8.20343e-12
7.80259e-12
7.47302e-12
7.1985e-12
6.9697e-12
6.78152e-12
6.6273e-12
6.49814e-12
6.39024e-12
6.30252e-12
6.23208e-12
6.17405e-12
6.12623e-12
6.08869e-12
6.05975e-12
6.03725e-12
6.01932e-12
6.00631e-12
6.00033e-12
5.99986e-12
6.00118e-12
6.00573e-12
6.01678e-12
6.03423e-12
6.05611e-12
6.08518e-12
6.1238e-12
6.16988e-12
6.22573e-12
6.29454e-12
6.38253e-12
6.4854e-12
6.61162e-12
6.76348e-12
6.95252e-12
7.17986e-12
7.44999e-12
7.77806e-12
8.18073e-12
8.66232e-12
9.23797e-12
9.93777e-12
1.07921e-11
1.18204e-11
1.3055e-11
1.45527e-11
1.63725e-11
1.85607e-11
2.119e-11
2.43733e-11
2.82341e-11
3.28802e-11
3.84715e-11
4.52373e-11
5.34342e-11
6.33086e-11
7.52072e-11
8.96018e-11
1.07026e-10
1.28033e-10
1.53374e-10
1.84025e-10
2.21111e-10
2.65849e-10
3.19866e-10
3.8519e-10
4.64251e-10
5.59567e-10
6.75009e-10
8.13922e-10
9.83751e-10
1.18496e-09
1.43526e-09
1.72724e-09
2.09412e-09
2.52442e-09
3.05231e-09
3.69138e-09
4.46071e-09
5.39246e-09
6.52162e-09
7.88836e-09
9.54238e-09
1.15434e-08
1.39682e-08
1.69074e-08
2.04706e-08
2.47887e-08
3.00299e-08
3.63961e-08
4.4134e-08
5.35445e-08
6.50093e-08
7.89997e-08
9.61046e-08
1.17047e-07
1.42822e-07
1.74484e-07
2.1398e-07
2.62684e-07
3.23921e-07
4.03119e-07
4.96211e-07
6.32396e-07
7.89345e-07
9.81797e-07
1.33113e-06
1.53353e-06
2.34033e-06
2.72813e-06
4.18778e-06
5.85442e-06
8.70167e-06
1.12611e-05
2.76773e-05
0.000132041
0.00042768
0.000264813
0.0001257
5.66806e-05
2.94372e-05
1.96105e-05
2.0996e-05
2.37615e-05
2.08281e-05
1.44999e-05
9.37503e-06
6.00545e-06
3.97984e-06
2.76881e-06
2.02352e-06
1.52963e-06
1.17709e-06
9.16349e-07
7.20215e-07
5.70818e-07
4.55702e-07
3.66054e-07
2.95564e-07
2.39671e-07
1.95033e-07
1.59172e-07
1.3022e-07
1.06745e-07
8.76446e-08
7.206e-08
5.93163e-08
4.88733e-08
4.02996e-08
3.32523e-08
2.74547e-08
2.26796e-08
1.87418e-08
1.54931e-08
1.28127e-08
1.05994e-08
8.76995e-09
7.25777e-09
6.00837e-09
4.97537e-09
4.12033e-09
3.41285e-09
2.82798e-09
2.34405e-09
1.94308e-09
1.61103e-09
1.33644e-09
1.10912e-09
9.20545e-10
7.64236e-10
6.34953e-10
5.27885e-10
4.38948e-10
3.6515e-10
3.041e-10
2.53512e-10
2.11422e-10
1.76449e-10
1.47524e-10
1.23555e-10
1.03575e-10
8.69501e-11
7.32184e-11
6.18495e-11
5.23483e-11
4.4431e-11
3.79075e-11
3.25174e-11
2.79997e-11
2.42207e-11
2.11112e-11
1.85458e-11
1.63845e-11
1.45685e-11
1.3084e-11
1.18691e-11
1.08401e-11
9.9707e-12
9.26779e-12
8.69968e-12
8.21386e-12
7.79788e-12
7.46659e-12
7.20344e-12
6.9736e-12
6.77365e-12
6.61916e-12
6.50158e-12
6.39657e-12
6.3018e-12
6.23118e-12
6.18061e-12
6.13329e-12
6.0865e-12
6.0573e-12
6.04056e-12
6.02014e-12
6.00374e-12
5.99899e-12
5.99901e-12
6.00035e-12
6.00494e-12
6.01479e-12
6.03624e-12
6.06045e-12
6.081e-12
6.11657e-12
6.17469e-12
6.23348e-12
6.29004e-12
6.37408e-12
6.4944e-12
6.62398e-12
6.75749e-12
6.94005e-12
7.18868e-12
7.46325e-12
7.76173e-12
8.15511e-12
8.6748e-12
9.26723e-12
9.92884e-12
1.0771e-11
1.1854e-11
1.31077e-11
1.45341e-11
1.63241e-11
1.85964e-11
2.12565e-11
2.43277e-11
2.81435e-11
3.29281e-11
3.85731e-11
4.51706e-11
5.33014e-11
6.33869e-11
7.53651e-11
8.9508e-11
1.06834e-10
1.28148e-10
1.53597e-10
1.83879e-10
2.20819e-10
2.6599e-10
3.20152e-10
3.84942e-10
4.63759e-10
5.59715e-10
6.75248e-10
8.13632e-10
9.82464e-10
1.18573e-09
1.43419e-09
1.72779e-09
2.09103e-09
2.52444e-09
3.05199e-09
3.68815e-09
4.4568e-09
5.38974e-09
6.51794e-09
7.88048e-09
9.53104e-09
1.15321e-08
1.3954e-08
1.68847e-08
2.04388e-08
2.47506e-08
2.9981e-08
3.63257e-08
4.40388e-08
5.34198e-08
6.4848e-08
7.87772e-08
9.58105e-08
1.16652e-07
1.42311e-07
1.73789e-07
2.13163e-07
2.61252e-07
3.23191e-07
4.00185e-07
4.95003e-07
6.36853e-07
7.71237e-07
1.05252e-06
1.25623e-06
1.68295e-06
2.28956e-06
2.59266e-06
4.3716e-06
5.34983e-06
8.03025e-06
1.10705e-05
3.29476e-05
0.000111568
0.000161144
9.07487e-05
4.71175e-05
2.77905e-05
2.12108e-05
1.70856e-05
1.62063e-05
1.79796e-05
1.87054e-05
1.44008e-05
9.39587e-06
6.02787e-06
3.96888e-06
2.7353e-06
1.98391e-06
1.49628e-06
1.15461e-06
9.02685e-07
7.12167e-07
5.66056e-07
4.52829e-07
3.64277e-07
2.9444e-07
2.38943e-07
1.94552e-07
1.58851e-07
1.30002e-07
1.06594e-07
8.75391e-08
7.19877e-08
5.9266e-08
4.88363e-08
4.02722e-08
3.32332e-08
2.7441e-08
2.26682e-08
1.87324e-08
1.54865e-08
1.28078e-08
1.0595e-08
8.76616e-09
7.25534e-09
6.00687e-09
4.97394e-09
4.11911e-09
3.41233e-09
2.82789e-09
2.34381e-09
1.94275e-09
1.611e-09
1.33657e-09
1.10905e-09
9.20339e-10
7.64201e-10
6.35021e-10
5.27799e-10
4.38756e-10
3.65055e-10
3.04072e-10
2.53395e-10
2.1125e-10
1.76363e-10
1.47506e-10
1.23492e-10
1.03486e-10
8.69314e-11
7.32534e-11
6.18502e-11
5.23238e-11
4.4448e-11
3.79525e-11
3.25257e-11
2.79734e-11
2.42103e-11
2.11166e-11
1.8529e-11
1.63508e-11
1.45553e-11
1.30899e-11
1.18623e-11
1.08213e-11
9.96634e-12
9.2763e-12
8.69708e-12
8.20016e-12
7.79372e-12
7.47218e-12
7.20131e-12
6.96455e-12
6.7732e-12
6.62648e-12
6.50211e-12
6.38954e-12
6.29899e-12
6.23285e-12
6.17725e-12
6.12492e-12
6.08334e-12
6.05887e-12
6.038e-12
6.01519e-12
6.00234e-12
5.99901e-12
5.99807e-12
5.99877e-12
6.00307e-12
6.01462e-12
6.03532e-12
6.05355e-12
6.07871e-12
6.1215e-12
6.17327e-12
6.22434e-12
6.28808e-12
6.38048e-12
6.49213e-12
6.61071e-12
6.75445e-12
6.9498e-12
7.18622e-12
7.44669e-12
7.76228e-12
8.17561e-12
8.67618e-12
9.24256e-12
9.92304e-12
1.07915e-11
1.18468e-11
1.30648e-11
1.45259e-11
1.63625e-11
1.85954e-11
2.12005e-11
2.43248e-11
2.82103e-11
3.29324e-11
3.84904e-11
4.51631e-11
5.33942e-11
6.33874e-11
7.52378e-11
8.94867e-11
1.06954e-10
1.28139e-10
1.53406e-10
1.83831e-10
2.20962e-10
2.65962e-10
3.19855e-10
3.8483e-10
4.63878e-10
5.59643e-10
6.74683e-10
8.1348e-10
9.82052e-10
1.1861e-09
1.43198e-09
1.72846e-09
2.08862e-09
2.52413e-09
3.04965e-09
3.68469e-09
4.45414e-09
5.38601e-09
6.51112e-09
7.87201e-09
9.52093e-09
1.15188e-08
1.39342e-08
1.68593e-08
2.04058e-08
2.47081e-08
2.99209e-08
3.62467e-08
4.39335e-08
5.32835e-08
6.46621e-08
7.85281e-08
9.5481e-08
1.16216e-07
1.41724e-07
1.73055e-07
2.12024e-07
2.5995e-07
3.22232e-07
3.94374e-07
5.01765e-07
6.20414e-07
7.78133e-07
1.06113e-06
1.20397e-06
1.97311e-06
1.95452e-06
3.67096e-06
3.951e-06
5.38239e-06
8.65561e-06
1.15396e-05
3.52404e-05
9.0398e-05
5.54776e-05
3.49524e-05
2.46882e-05
1.92263e-05
1.86949e-05
1.76003e-05
1.66005e-05
1.60807e-05
1.46796e-05
1.16668e-05
8.0962e-06
5.42873e-06
3.70418e-06
2.62296e-06
1.92795e-06
1.4624e-06
1.13242e-06
8.88362e-07
7.03162e-07
5.60461e-07
4.49339e-07
3.62071e-07
2.93022e-07
2.38019e-07
1.93943e-07
1.58441e-07
1.29721e-07
1.06402e-07
8.74062e-08
7.18933e-08
5.91977e-08
4.87876e-08
4.02381e-08
3.32082e-08
2.7422e-08
2.26545e-08
1.8723e-08
1.54795e-08
1.28022e-08
1.05909e-08
8.76355e-09
7.25337e-09
6.00506e-09
4.9726e-09
4.11837e-09
3.41174e-09
2.82717e-09
2.34323e-09
1.94249e-09
1.61079e-09
1.33625e-09
1.10878e-09
9.20264e-10
7.64151e-10
6.34873e-10
5.27673e-10
4.38744e-10
3.65061e-10
3.04016e-10
2.53351e-10
2.11277e-10
1.76398e-10
1.47492e-10
1.2348e-10
1.03518e-10
8.69619e-11
7.32425e-11
6.18351e-11
5.23367e-11
4.44577e-11
3.79314e-11
3.25002e-11
2.79699e-11
2.42108e-11
2.11019e-11
1.85152e-11
1.63539e-11
1.45607e-11
1.30825e-11
1.18537e-11
1.08238e-11
9.96982e-12
9.26994e-12
8.68945e-12
8.20096e-12
7.79583e-12
7.46725e-12
7.19582e-12
6.96526e-12
6.77416e-12
6.62137e-12
6.49594e-12
6.38797e-12
6.29825e-12
6.22849e-12
6.17277e-12
6.12436e-12
6.08321e-12
6.05519e-12
6.03446e-12
6.01466e-12
6.0012e-12
5.99581e-12
5.99515e-12
5.99636e-12
6.00105e-12
6.01157e-12
6.03163e-12
6.05362e-12
6.07886e-12
6.11678e-12
6.16827e-12
6.22479e-12
6.28879e-12
6.37488e-12
6.48602e-12
6.61228e-12
6.75672e-12
6.94291e-12
7.17907e-12
7.45064e-12
7.76641e-12
8.16548e-12
8.66432e-12
9.24706e-12
9.9298e-12
1.07794e-11
1.18329e-11
1.30754e-11
1.45393e-11
1.63456e-11
1.85737e-11
2.12157e-11
2.43443e-11
2.81842e-11
3.28979e-11
3.85113e-11
4.51917e-11
5.33568e-11
6.33353e-11
7.52649e-11
8.95256e-11
1.06899e-10
1.28057e-10
1.53432e-10
1.83873e-10
2.20873e-10
2.65816e-10
3.19853e-10
3.84845e-10
4.6371e-10
5.59352e-10
6.7455e-10
8.13381e-10
9.81605e-10
1.1855e-09
1.43134e-09
1.72804e-09
2.08733e-09
2.5225e-09
3.04784e-09
3.6823e-09
4.45062e-09
5.38088e-09
6.50511e-09
7.86414e-09
9.51e-09
1.15035e-08
1.39149e-08
1.68339e-08
2.03715e-08
2.46611e-08
2.98591e-08
3.6165e-08
4.38234e-08
5.31358e-08
6.44643e-08
7.82624e-08
9.51366e-08
1.15706e-07
1.41199e-07
1.71875e-07
2.1173e-07
2.56618e-07
3.23578e-07
3.8788e-07
5.05157e-07
6.06847e-07
8.26503e-07
9.79332e-07
1.42733e-06
1.7352e-06
2.65411e-06
3.28762e-06
6.44849e-06
6.07086e-06
1.88049e-05
1.50336e-05
3.62679e-05
7.45115e-05
1.92352e-05
1.89249e-05
1.6632e-05
1.54571e-05
1.54253e-05
1.78662e-05
1.82295e-05
1.72118e-05
1.38885e-05
9.68324e-06
6.4647e-06
4.349e-06
3.0852e-06
2.31997e-06
1.79864e-06
1.40666e-06
1.10452e-06
8.72522e-07
6.93523e-07
5.54426e-07
4.45513e-07
3.5962e-07
2.91435e-07
2.36977e-07
1.93249e-07
1.57974e-07
1.29405e-07
1.06185e-07
8.72553e-08
7.17877e-08
5.91239e-08
4.87355e-08
4.02003e-08
3.31807e-08
2.74023e-08
2.26403e-08
1.87124e-08
1.54714e-08
1.27964e-08
1.05867e-08
8.76027e-09
7.25075e-09
6.00318e-09
4.9713e-09
4.1173e-09
3.41082e-09
2.82653e-09
2.34284e-09
1.94215e-09
1.61046e-09
1.33603e-09
1.10868e-09
9.20161e-10
7.64018e-10
6.34794e-10
5.2766e-10
4.3872e-10
3.65008e-10
3.03988e-10
2.53357e-10
2.11271e-10
1.76367e-10
1.47475e-10
1.23484e-10
1.03511e-10
8.69379e-11
7.32281e-11
6.18366e-11
5.23314e-11
4.44408e-11
3.79222e-11
3.25035e-11
2.797e-11
2.42029e-11
2.10979e-11
1.8518e-11
1.63529e-11
1.45534e-11
1.30779e-11
1.18542e-11
1.08219e-11
9.96357e-12
9.26587e-12
8.68919e-12
8.19903e-12
7.79066e-12
7.4635e-12
7.19462e-12
6.96252e-12
6.76905e-12
6.61752e-12
6.49429e-12
6.38562e-12
6.29432e-12
6.22535e-12
6.171e-12
6.1218e-12
6.07936e-12
6.05192e-12
6.03235e-12
6.01186e-12
5.99742e-12
5.99278e-12
5.99256e-12
5.99366e-12
5.99799e-12
6.00815e-12
6.02945e-12
6.05089e-12
6.07486e-12
6.11352e-12
6.16651e-12
6.22221e-12
6.28449e-12
6.37157e-12
6.48474e-12
6.60989e-12
6.75202e-12
6.93945e-12
7.17828e-12
7.44802e-12
7.76031e-12
8.16135e-12
8.66451e-12
9.24538e-12
9.92343e-12
1.07754e-11
1.18345e-11
1.30737e-11
1.45305e-11
1.63402e-11
1.85768e-11
2.12141e-11
2.43325e-11
2.81771e-11
3.29029e-11
3.85098e-11
4.51751e-11
5.33456e-11
6.3341e-11
7.52613e-11
8.94993e-11
1.06877e-10
1.28057e-10
1.53419e-10
1.83824e-10
2.2082e-10
2.6579e-10
3.19806e-10
3.84732e-10
4.6357e-10
5.59233e-10
6.74378e-10
8.13072e-10
9.81218e-10
1.18506e-09
1.43077e-09
1.72713e-09
2.08616e-09
2.52105e-09
3.04595e-09
3.67963e-09
4.44704e-09
5.37631e-09
6.49908e-09
7.85583e-09
9.49886e-09
1.14889e-08
1.38957e-08
1.68076e-08
2.03363e-08
2.4614e-08
2.97968e-08
3.60806e-08
4.37103e-08
5.2983e-08
6.42617e-08
7.79822e-08
9.47853e-08
1.1513e-07
1.40762e-07
1.70269e-07
2.12066e-07
2.52327e-07
3.2451e-07
3.84837e-07
5.05768e-07
6.03616e-07
8.33934e-07
9.74623e-07
1.5487e-06
1.64189e-06
3.20487e-06
3.31728e-06
6.51933e-06
6.50757e-06
1.78901e-05
1.64075e-05
3.47388e-05
6.19235e-05
9.20409e-06
7.88989e-06
1.18177e-05
1.54548e-05
1.51828e-05
1.70192e-05
1.85951e-05
1.83157e-05
1.4886e-05
1.00924e-05
6.49415e-06
4.25097e-06
2.96416e-06
2.20305e-06
1.7013e-06
1.34179e-06
1.06826e-06
8.52505e-07
6.81995e-07
5.47468e-07
4.41169e-07
3.56845e-07
2.89632e-07
2.35792e-07
1.92461e-07
1.57445e-07
1.29045e-07
1.05938e-07
8.7085e-08
7.16694e-08
5.90406e-08
4.86765e-08
4.01585e-08
3.3151e-08
2.73809e-08
2.26247e-08
1.87011e-08
1.54632e-08
1.27903e-08
1.05821e-08
8.7569e-09
7.24831e-09
6.00135e-09
4.96986e-09
4.11623e-09
3.41007e-09
2.82597e-09
2.34237e-09
1.94179e-09
1.61023e-09
1.33586e-09
1.10853e-09
9.20042e-10
7.63953e-10
6.34752e-10
5.27611e-10
4.3868e-10
3.6499e-10
3.03976e-10
2.53335e-10
2.11249e-10
1.76358e-10
1.47468e-10
1.2347e-10
1.03497e-10
8.69328e-11
7.32251e-11
6.18283e-11
5.23233e-11
4.44392e-11
3.79222e-11
3.2499e-11
2.79644e-11
2.42007e-11
2.10961e-11
1.85128e-11
1.63472e-11
1.45505e-11
1.30755e-11
1.18496e-11
1.08169e-11
9.96077e-12
9.26344e-12
8.68492e-12
8.1944e-12
7.78751e-12
7.46047e-12
7.19022e-12
6.95807e-12
6.76588e-12
6.61458e-12
6.49038e-12
6.38159e-12
6.29109e-12
6.22216e-12
6.16698e-12
6.11776e-12
6.07609e-12
6.04845e-12
6.02836e-12
6.00812e-12
5.99395e-12
5.98922e-12
5.9889e-12
5.98995e-12
5.9943e-12
6.00459e-12
6.02546e-12
6.04715e-12
6.07184e-12
6.11019e-12
6.1623e-12
6.21835e-12
6.28161e-12
6.36832e-12
6.48032e-12
6.60593e-12
6.74949e-12
6.93617e-12
7.17326e-12
7.44378e-12
7.75816e-12
8.15829e-12
8.65898e-12
9.24099e-12
9.92223e-12
1.07729e-11
1.1828e-11
1.30687e-11
1.45305e-11
1.6338e-11
1.85682e-11
2.12078e-11
2.43339e-11
2.8175e-11
3.28908e-11
3.8501e-11
4.51776e-11
5.33425e-11
6.33222e-11
7.52464e-11
8.94994e-11
1.06868e-10
1.28023e-10
1.53388e-10
1.83811e-10
2.20789e-10
2.65718e-10
3.19728e-10
3.84668e-10
4.63466e-10
5.59051e-10
6.74162e-10
8.12838e-10
9.80879e-10
1.18455e-09
1.43013e-09
1.72634e-09
2.08508e-09
2.51953e-09
3.04396e-09
3.67706e-09
4.44357e-09
5.37159e-09
6.49284e-09
7.8476e-09
9.4878e-09
1.1474e-08
1.38758e-08
1.67812e-08
2.03007e-08
2.45663e-08
2.97329e-08
3.59945e-08
4.35944e-08
5.28264e-08
6.40518e-08
7.76934e-08
9.44144e-08
1.1454e-07
1.40273e-07
1.68665e-07
2.11914e-07
2.49861e-07
3.24498e-07
3.79962e-07
5.14626e-07
5.95394e-07
8.74305e-07
1.04696e-06
1.64592e-06
1.9926e-06
3.86358e-06
3.93446e-06
1.05896e-05
8.33766e-06
4.00735e-05
2.41263e-05
3.5305e-05
5.29789e-05
5.26831e-06
6.72018e-06
1.39229e-05
1.71139e-05
1.39829e-05
1.28463e-05
1.62203e-05
1.77425e-05
1.60175e-05
1.11261e-05
7.01276e-06
4.43215e-06
3.00129e-06
2.18933e-06
1.67457e-06
1.3129e-06
1.04327e-06
8.34727e-07
6.70405e-07
5.40099e-07
4.36469e-07
3.53814e-07
2.87651e-07
2.34482e-07
1.91586e-07
1.56854e-07
1.28644e-07
1.05663e-07
8.68949e-08
7.15371e-08
5.89479e-08
4.86113e-08
4.01124e-08
3.31182e-08
2.73573e-08
2.26077e-08
1.86889e-08
1.54544e-08
1.27838e-08
1.05774e-08
8.75345e-09
7.24579e-09
5.99945e-09
4.96845e-09
4.11522e-09
3.40933e-09
2.8254e-09
2.34195e-09
1.94151e-09
1.61003e-09
1.3357e-09
1.10841e-09
9.19975e-10
7.63915e-10
6.34714e-10
5.27583e-10
4.38672e-10
3.64991e-10
3.03969e-10
2.53327e-10
2.1125e-10
1.76362e-10
1.47465e-10
1.23464e-10
1.03498e-10
8.69352e-11
7.32231e-11
6.18246e-11
5.23235e-11
4.4441e-11
3.79208e-11
3.24959e-11
2.79631e-11
2.42003e-11
2.10933e-11
1.85086e-11
1.63442e-11
1.45485e-11
1.3072e-11
1.1845e-11
1.08133e-11
9.95796e-12
9.25967e-12
8.68026e-12
8.19033e-12
7.78406e-12
7.45633e-12
7.18543e-12
6.9538e-12
6.76218e-12
6.61045e-12
6.48575e-12
6.37732e-12
6.28722e-12
6.21798e-12
6.16237e-12
6.1134e-12
6.0722e-12
6.04411e-12
6.02376e-12
6.00395e-12
5.98978e-12
5.98481e-12
5.98453e-12
5.98568e-12
5.99006e-12
6.00022e-12
6.02082e-12
6.04283e-12
6.06806e-12
6.10611e-12
6.15756e-12
6.21392e-12
6.27793e-12
6.36433e-12
6.47547e-12
6.60141e-12
6.74609e-12
6.93227e-12
7.16794e-12
7.43898e-12
7.75502e-12
8.15456e-12
8.65323e-12
9.23602e-12
9.91997e-12
1.07699e-11
1.18218e-11
1.30632e-11
1.45293e-11
1.63358e-11
1.85603e-11
2.12008e-11
2.43339e-11
2.81736e-11
3.28801e-11
3.84913e-11
4.51788e-11
5.33411e-11
6.33061e-11
7.52309e-11
8.94994e-11
1.06863e-10
1.27994e-10
1.53358e-10
1.83799e-10
2.20765e-10
2.65653e-10
3.19653e-10
3.84609e-10
4.63375e-10
5.58882e-10
6.73952e-10
8.12618e-10
9.80566e-10
1.18406e-09
1.4295e-09
1.72558e-09
2.08404e-09
2.51803e-09
3.04199e-09
3.67456e-09
4.44018e-09
5.36691e-09
6.48662e-09
7.83948e-09
9.47685e-09
1.14591e-08
1.3856e-08
1.67547e-08
2.02651e-08
2.4518e-08
2.96681e-08
3.59073e-08
4.34766e-08
5.2667e-08
6.38342e-08
7.74038e-08
9.40048e-08
1.14012e-07
1.39525e-07
1.67506e-07
2.10991e-07
2.47267e-07
3.24887e-07
3.72401e-07
5.43339e-07
5.64864e-07
1.12651e-06
1.07142e-06
3.27764e-06
3.00213e-06
1.16691e-05
7.53437e-06
5.64005e-05
3.44162e-05
8.21674e-05
5.0761e-05
5.15119e-05
5.46409e-05
5.22921e-06
8.27606e-06
7.54715e-06
1.01927e-05
1.21412e-05
1.22707e-05
1.20755e-05
1.14873e-05
1.02066e-05
8.24967e-06
5.69747e-06
3.84132e-06
2.71411e-06
2.05079e-06
1.61011e-06
1.28052e-06
1.02241e-06
8.19761e-07
6.59822e-07
5.32865e-07
4.31638e-07
3.50615e-07
2.85532e-07
2.3307e-07
1.90638e-07
1.56214e-07
1.28207e-07
1.05362e-07
8.66871e-08
7.13924e-08
5.88463e-08
4.85394e-08
4.00614e-08
3.30817e-08
2.7331e-08
2.25886e-08
1.8675e-08
1.54442e-08
1.27763e-08
1.05718e-08
8.7493e-09
7.24269e-09
5.99707e-09
4.96665e-09
4.11388e-09
3.40832e-09
2.82459e-09
2.34132e-09
1.94105e-09
1.60968e-09
1.3354e-09
1.10817e-09
9.1981e-10
7.63789e-10
6.346e-10
5.27487e-10
4.38606e-10
3.64938e-10
3.03915e-10
2.53279e-10
2.11217e-10
1.76335e-10
1.47436e-10
1.23437e-10
1.0348e-10
8.69213e-11
7.32064e-11
6.18091e-11
5.23141e-11
4.44339e-11
3.79111e-11
3.24858e-11
2.79564e-11
2.41948e-11
2.10858e-11
1.85005e-11
1.63383e-11
1.45436e-11
1.30657e-11
1.18381e-11
1.0808e-11
9.95351e-12
9.25408e-12
8.67409e-12
8.18521e-12
7.77954e-12
7.45091e-12
7.17955e-12
6.9488e-12
6.7577e-12
6.60534e-12
6.48024e-12
6.3724e-12
6.28266e-12
6.21296e-12
6.15698e-12
6.10843e-12
6.06764e-12
6.03899e-12
6.01843e-12
5.99918e-12
5.98496e-12
5.97974e-12
5.9795e-12
5.98074e-12
5.98516e-12
5.9952e-12
6.01551e-12
6.038e-12
6.06369e-12
6.10121e-12
6.15208e-12
6.20902e-12
6.27369e-12
6.35946e-12
6.46981e-12
6.59648e-12
6.74213e-12
6.92734e-12
7.16175e-12
7.43393e-12
7.75144e-12
8.14963e-12
8.64645e-12
9.23087e-12
9.91723e-12
1.07654e-11
1.18142e-11
1.30577e-11
1.45274e-11
1.63312e-11
1.85504e-11
2.1194e-11
2.43332e-11
2.81686e-11
3.28664e-11
3.8482e-11
4.51786e-11
5.33342e-11
6.32849e-11
7.52156e-11
8.94969e-11
1.06849e-10
1.27957e-10
1.53326e-10
1.83783e-10
2.20727e-10
2.65574e-10
3.19574e-10
3.84541e-10
4.6326e-10
5.5869e-10
6.73732e-10
8.12379e-10
9.80212e-10
1.18353e-09
1.42885e-09
1.72479e-09
2.08294e-09
2.51647e-09
3.03999e-09
3.67198e-09
4.43667e-09
5.36211e-09
6.48033e-09
7.83122e-09
9.46569e-09
1.1444e-08
1.38358e-08
1.67279e-08
2.02289e-08
2.44689e-08
2.96021e-08
3.58185e-08
4.3356e-08
5.25041e-08
6.36092e-08
7.71137e-08
9.35487e-08
1.13588e-07
1.38339e-07
1.67385e-07
2.08212e-07
2.44994e-07
3.23913e-07
3.64898e-07
5.56086e-07
5.48488e-07
1.42477e-06
1.21653e-06
7.24212e-06
5.37509e-06
2.9063e-05
2.12208e-05
5.5586e-05
4.34362e-05
6.86297e-05
6.42245e-05
5.912e-05
5.98181e-05
3.32349e-06
4.72234e-06
6.74039e-06
1.21811e-05
1.38808e-05
1.27054e-05
1.1302e-05
1.07611e-05
9.08075e-06
6.20747e-06
4.15743e-06
2.936e-06
2.24357e-06
1.80287e-06
1.47128e-06
1.20213e-06
9.80533e-07
7.96896e-07
6.46508e-07
5.24658e-07
4.26392e-07
3.47192e-07
2.83272e-07
2.31564e-07
1.89628e-07
1.5553e-07
1.27741e-07
1.05043e-07
8.64673e-08
7.12399e-08
5.87398e-08
4.84647e-08
4.00088e-08
3.30444e-08
2.73044e-08
2.25695e-08
1.86613e-08
1.54343e-08
1.2769e-08
1.05664e-08
8.74543e-09
7.23984e-09
5.99494e-09
4.96505e-09
4.11272e-09
3.40745e-09
2.82393e-09
2.34082e-09
1.94068e-09
1.60941e-09
1.33519e-09