/*--------------------------------*- C++ -*----------------------------------*\
| =========                 |                                                 |
| \\      /  F ield         | OpenFOAM: The Open Source CFD Toolbox           |
|  \\    /   O peration     | Version:  2.4.0                                 |
|   \\  /    A nd           | Web:      www.OpenFOAM.org                      |
|    \\/     M anipulation  |                                                 |
\*---------------------------------------------------------------------------*/
FoamFile
{
    version     2.0;
    format      ascii;
    class       volScalarField;
    location    "0.004";
    object      pPrime2Mean;
}
// * * * * * * * * * * * * * * * * * * * * * * * * * * * * * * * * * * * * * //

dimensions      [0 4 -4 0 0 0 0];

internalField   nonuniform List<scalar> 
17600
(
1.60656e+08
1.56614e+08
1.5226e+08
1.4794e+08
1.43683e+08
1.3949e+08
1.35359e+08
1.3129e+08
1.27283e+08
1.23338e+08
1.19454e+08
1.1563e+08
1.11867e+08
1.08161e+08
1.04509e+08
1.00904e+08
9.73334e+07
9.37686e+07
9.01507e+07
8.62797e+07
1.60659e+08
1.56614e+08
1.5226e+08
1.4794e+08
1.43683e+08
1.3949e+08
1.35359e+08
1.3129e+08
1.27283e+08
1.23338e+08
1.19454e+08
1.1563e+08
1.11867e+08
1.08161e+08
1.04509e+08
1.00905e+08
9.73343e+07
9.37706e+07
9.01558e+07
8.62757e+07
1.60661e+08
1.56614e+08
1.5226e+08
1.4794e+08
1.43683e+08
1.3949e+08
1.35359e+08
1.3129e+08
1.27283e+08
1.23338e+08
1.19454e+08
1.1563e+08
1.11867e+08
1.08161e+08
1.0451e+08
1.00906e+08
9.73362e+07
9.37748e+07
9.01633e+07
8.63076e+07
1.60662e+08
1.56613e+08
1.52259e+08
1.4794e+08
1.43683e+08
1.3949e+08
1.35359e+08
1.3129e+08
1.27283e+08
1.23338e+08
1.19454e+08
1.1563e+08
1.11867e+08
1.08162e+08
1.04511e+08
1.00907e+08
9.7339e+07
9.37802e+07
9.01764e+07
8.63573e+07
1.60663e+08
1.56613e+08
1.52259e+08
1.4794e+08
1.43683e+08
1.3949e+08
1.35359e+08
1.3129e+08
1.27283e+08
1.23338e+08
1.19454e+08
1.15631e+08
1.11867e+08
1.08162e+08
1.04512e+08
1.00909e+08
9.73426e+07
9.3788e+07
9.01933e+07
8.64197e+07
1.60665e+08
1.56613e+08
1.52259e+08
1.4794e+08
1.43683e+08
1.3949e+08
1.35359e+08
1.3129e+08
1.27283e+08
1.23338e+08
1.19454e+08
1.15631e+08
1.11868e+08
1.08163e+08
1.04513e+08
1.00911e+08
9.73472e+07
9.37972e+07
9.02143e+07
8.64896e+07
1.60666e+08
1.56613e+08
1.52259e+08
1.4794e+08
1.43683e+08
1.3949e+08
1.35359e+08
1.3129e+08
1.27283e+08
1.23338e+08
1.19454e+08
1.15631e+08
1.11868e+08
1.08164e+08
1.04514e+08
1.00914e+08
9.73525e+07
9.38079e+07
9.02392e+07
8.6563e+07
1.60667e+08
1.56613e+08
1.52259e+08
1.4794e+08
1.43683e+08
1.3949e+08
1.35359e+08
1.3129e+08
1.27283e+08
1.23338e+08
1.19454e+08
1.15631e+08
1.11869e+08
1.08164e+08
1.04516e+08
1.00917e+08
9.73585e+07
9.38203e+07
9.02663e+07
8.6639e+07
1.60667e+08
1.56613e+08
1.52259e+08
1.4794e+08
1.43683e+08
1.3949e+08
1.35359e+08
1.3129e+08
1.27283e+08
1.23338e+08
1.19454e+08
1.15632e+08
1.11869e+08
1.08165e+08
1.04518e+08
1.00921e+08
9.73652e+07
9.38338e+07
9.02961e+07
8.67155e+07
1.60668e+08
1.56613e+08
1.52258e+08
1.4794e+08
1.43683e+08
1.3949e+08
1.35359e+08
1.3129e+08
1.27283e+08
1.23338e+08
1.19454e+08
1.15632e+08
1.1187e+08
1.08167e+08
1.0452e+08
1.00925e+08
9.73725e+07
9.38485e+07
9.03277e+07
8.67913e+07
1.60669e+08
1.56613e+08
1.52258e+08
1.4794e+08
1.43683e+08
1.3949e+08
1.35359e+08
1.3129e+08
1.27283e+08
1.23338e+08
1.19455e+08
1.15632e+08
1.1187e+08
1.08168e+08
1.04522e+08
1.00929e+08
9.73804e+07
9.38641e+07
9.03606e+07
8.68661e+07
1.60669e+08
1.56613e+08
1.52258e+08
1.4794e+08
1.43683e+08
1.3949e+08
1.35359e+08
1.3129e+08
1.27283e+08
1.23338e+08
1.19455e+08
1.15633e+08
1.11871e+08
1.08169e+08
1.04524e+08
1.00933e+08
9.73888e+07
9.38806e+07
9.03946e+07
8.69391e+07
1.6067e+08
1.56613e+08
1.52258e+08
1.4794e+08
1.43683e+08
1.3949e+08
1.35359e+08
1.3129e+08
1.27283e+08
1.23338e+08
1.19455e+08
1.15633e+08
1.11872e+08
1.0817e+08
1.04527e+08
1.00938e+08
9.73976e+07
9.38977e+07
9.04291e+07
8.70101e+07
1.6067e+08
1.56613e+08
1.52258e+08
1.4794e+08
1.43683e+08
1.3949e+08
1.35359e+08
1.3129e+08
1.27284e+08
1.23339e+08
1.19455e+08
1.15633e+08
1.11873e+08
1.08172e+08
1.04529e+08
1.00943e+08
9.74068e+07
9.39154e+07
9.0464e+07
8.70787e+07
1.60671e+08
1.56613e+08
1.52258e+08
1.4794e+08
1.43683e+08
1.3949e+08
1.35359e+08
1.3129e+08
1.27284e+08
1.23339e+08
1.19456e+08
1.15634e+08
1.11873e+08
1.08173e+08
1.04532e+08
1.00948e+08
9.74163e+07
9.39334e+07
9.04989e+07
8.71449e+07
1.60671e+08
1.56613e+08
1.52258e+08
1.4794e+08
1.43683e+08
1.3949e+08
1.35359e+08
1.3129e+08
1.27284e+08
1.23339e+08
1.19456e+08
1.15634e+08
1.11874e+08
1.08175e+08
1.04535e+08
1.00953e+08
9.7426e+07
9.39517e+07
9.05336e+07
8.72085e+07
1.60671e+08
1.56613e+08
1.52258e+08
1.4794e+08
1.43683e+08
1.3949e+08
1.35359e+08
1.31291e+08
1.27284e+08
1.23339e+08
1.19456e+08
1.15635e+08
1.11875e+08
1.08176e+08
1.04538e+08
1.00958e+08
9.74358e+07
9.397e+07
9.05679e+07
8.72694e+07
1.60671e+08
1.56613e+08
1.52258e+08
1.4794e+08
1.43683e+08
1.3949e+08
1.35359e+08
1.31291e+08
1.27284e+08
1.23339e+08
1.19456e+08
1.15635e+08
1.11876e+08
1.08178e+08
1.04541e+08
1.00964e+08
9.74458e+07
9.39884e+07
9.06015e+07
8.73277e+07
1.60672e+08
1.56613e+08
1.52258e+08
1.4794e+08
1.43683e+08
1.3949e+08
1.35359e+08
1.31291e+08
1.27284e+08
1.23339e+08
1.19457e+08
1.15636e+08
1.11877e+08
1.0818e+08
1.04544e+08
1.00969e+08
9.74558e+07
9.40067e+07
9.06345e+07
8.73831e+07
1.60672e+08
1.56613e+08
1.52258e+08
1.4794e+08
1.43683e+08
1.3949e+08
1.35359e+08
1.31291e+08
1.27284e+08
1.23339e+08
1.19457e+08
1.15636e+08
1.11878e+08
1.08181e+08
1.04547e+08
1.00975e+08
9.74657e+07
9.40247e+07
9.06664e+07
8.74359e+07
1.60672e+08
1.56613e+08
1.52258e+08
1.4794e+08
1.43683e+08
1.3949e+08
1.35359e+08
1.31291e+08
1.27284e+08
1.2334e+08
1.19457e+08
1.15637e+08
1.11879e+08
1.08183e+08
1.0455e+08
1.0098e+08
9.74756e+07
9.40424e+07
9.06974e+07
8.7486e+07
1.60672e+08
1.56613e+08
1.52258e+08
1.4794e+08
1.43683e+08
1.3949e+08
1.35359e+08
1.31291e+08
1.27284e+08
1.2334e+08
1.19457e+08
1.15637e+08
1.1188e+08
1.08185e+08
1.04553e+08
1.00985e+08
9.74853e+07
9.40597e+07
9.07272e+07
8.75333e+07
1.60671e+08
1.56613e+08
1.52258e+08
1.4794e+08
1.43683e+08
1.3949e+08
1.35359e+08
1.31291e+08
1.27284e+08
1.2334e+08
1.19458e+08
1.15638e+08
1.11881e+08
1.08186e+08
1.04556e+08
1.00991e+08
9.74948e+07
9.40766e+07
9.07559e+07
8.75779e+07
1.60671e+08
1.56613e+08
1.52258e+08
1.4794e+08
1.43683e+08
1.3949e+08
1.35359e+08
1.31291e+08
1.27284e+08
1.2334e+08
1.19458e+08
1.15638e+08
1.11881e+08
1.08188e+08
1.04559e+08
1.00996e+08
9.75041e+07
9.40928e+07
9.07832e+07
8.76199e+07
1.60671e+08
1.56613e+08
1.52258e+08
1.4794e+08
1.43683e+08
1.3949e+08
1.35359e+08
1.31291e+08
1.27284e+08
1.2334e+08
1.19458e+08
1.15639e+08
1.11882e+08
1.08189e+08
1.04561e+08
1.01001e+08
9.7513e+07
9.41084e+07
9.08091e+07
8.76593e+07
1.60671e+08
1.56613e+08
1.52258e+08
1.4794e+08
1.43683e+08
1.3949e+08
1.35359e+08
1.31291e+08
1.27285e+08
1.2334e+08
1.19458e+08
1.15639e+08
1.11883e+08
1.08191e+08
1.04564e+08
1.01006e+08
9.75217e+07
9.41233e+07
9.08337e+07
8.7696e+07
1.6067e+08
1.56613e+08
1.52258e+08
1.4794e+08
1.43683e+08
1.3949e+08
1.35359e+08
1.31291e+08
1.27285e+08
1.2334e+08
1.19459e+08
1.1564e+08
1.11884e+08
1.08192e+08
1.04567e+08
1.0101e+08
9.75299e+07
9.41374e+07
9.08567e+07
8.77302e+07
1.6067e+08
1.56613e+08
1.52258e+08
1.4794e+08
1.43683e+08
1.3949e+08
1.35359e+08
1.31291e+08
1.27285e+08
1.23341e+08
1.19459e+08
1.1564e+08
1.11885e+08
1.08194e+08
1.04569e+08
1.01015e+08
9.75377e+07
9.41507e+07
9.08783e+07
8.77618e+07
1.60669e+08
1.56613e+08
1.52258e+08
1.4794e+08
1.43683e+08
1.3949e+08
1.35359e+08
1.31291e+08
1.27285e+08
1.23341e+08
1.19459e+08
1.15641e+08
1.11885e+08
1.08195e+08
1.04572e+08
1.01019e+08
9.7545e+07
9.41632e+07
9.08983e+07
8.77909e+07
1.60669e+08
1.56613e+08
1.52258e+08
1.4794e+08
1.43683e+08
1.3949e+08
1.35359e+08
1.31291e+08
1.27285e+08
1.23341e+08
1.19459e+08
1.15641e+08
1.11886e+08
1.08196e+08
1.04574e+08
1.01023e+08
9.75519e+07
9.41748e+07
9.09168e+07
8.78175e+07
1.60668e+08
1.56613e+08
1.52259e+08
1.4794e+08
1.43683e+08
1.3949e+08
1.35359e+08
1.31291e+08
1.27285e+08
1.23341e+08
1.1946e+08
1.15641e+08
1.11887e+08
1.08197e+08
1.04576e+08
1.01027e+08
9.75582e+07
9.41854e+07
9.09336e+07
8.78416e+07
1.60667e+08
1.56613e+08
1.52259e+08
1.4794e+08
1.43683e+08
1.3949e+08
1.3536e+08
1.31291e+08
1.27285e+08
1.23341e+08
1.1946e+08
1.15642e+08
1.11887e+08
1.08198e+08
1.04578e+08
1.0103e+08
9.7564e+07
9.41951e+07
9.09488e+07
8.78633e+07
1.60667e+08
1.56613e+08
1.52259e+08
1.4794e+08
1.43683e+08
1.3949e+08
1.3536e+08
1.31291e+08
1.27285e+08
1.23341e+08
1.1946e+08
1.15642e+08
1.11888e+08
1.08199e+08
1.04579e+08
1.01033e+08
9.75691e+07
9.42037e+07
9.09624e+07
8.78826e+07
1.60666e+08
1.56613e+08
1.52259e+08
1.4794e+08
1.43683e+08
1.3949e+08
1.3536e+08
1.31291e+08
1.27285e+08
1.23341e+08
1.1946e+08
1.15642e+08
1.11888e+08
1.082e+08
1.04581e+08
1.01036e+08
9.75737e+07
9.42114e+07
9.09744e+07
8.78994e+07
1.60665e+08
1.56613e+08
1.52259e+08
1.4794e+08
1.43683e+08
1.3949e+08
1.3536e+08
1.31291e+08
1.27285e+08
1.23341e+08
1.1946e+08
1.15642e+08
1.11889e+08
1.08201e+08
1.04582e+08
1.01038e+08
9.75777e+07
9.42179e+07
9.09846e+07
8.79138e+07
1.60664e+08
1.56613e+08
1.52259e+08
1.4794e+08
1.43683e+08
1.3949e+08
1.3536e+08
1.31291e+08
1.27285e+08
1.23341e+08
1.1946e+08
1.15643e+08
1.11889e+08
1.08202e+08
1.04583e+08
1.0104e+08
9.7581e+07
9.42235e+07
9.09932e+07
8.79259e+07
1.60662e+08
1.56613e+08
1.5226e+08
1.4794e+08
1.43683e+08
1.3949e+08
1.3536e+08
1.31291e+08
1.27285e+08
1.23341e+08
1.1946e+08
1.15643e+08
1.11889e+08
1.08202e+08
1.04584e+08
1.01041e+08
9.75837e+07
9.42279e+07
9.10001e+07
8.79356e+07
1.60661e+08
1.56614e+08
1.5226e+08
1.4794e+08
1.43683e+08
1.3949e+08
1.3536e+08
1.31291e+08
1.27285e+08
1.23341e+08
1.1946e+08
1.15643e+08
1.1189e+08
1.08202e+08
1.04585e+08
1.01043e+08
9.75857e+07
9.42312e+07
9.10053e+07
8.79429e+07
1.60659e+08
1.56614e+08
1.5226e+08
1.47941e+08
1.43683e+08
1.3949e+08
1.3536e+08
1.31291e+08
1.27285e+08
1.23341e+08
1.1946e+08
1.15643e+08
1.1189e+08
1.08203e+08
1.04585e+08
1.01043e+08
9.75871e+07
9.42335e+07
9.10088e+07
8.79479e+07
1.60656e+08
1.56614e+08
1.5226e+08
1.47941e+08
1.43683e+08
1.3949e+08
1.3536e+08
1.31291e+08
1.27285e+08
1.23341e+08
1.1946e+08
1.15643e+08
1.1189e+08
1.08203e+08
1.04586e+08
1.01044e+08
9.75878e+07
9.42346e+07
9.10106e+07
8.79502e+07
8.25999e+07
8.16786e+07
8.09634e+07
8.03439e+07
7.9769e+07
7.92218e+07
7.86934e+07
7.81785e+07
7.76747e+07
7.71797e+07
7.66917e+07
7.62095e+07
7.57321e+07
7.5259e+07
7.47896e+07
7.43234e+07
7.38602e+07
7.33996e+07
7.29415e+07
7.24856e+07
7.20319e+07
7.15802e+07
7.11303e+07
7.06823e+07
7.02361e+07
6.97916e+07
6.93487e+07
6.89075e+07
6.84678e+07
6.80298e+07
6.75932e+07
6.71582e+07
6.67247e+07
6.62927e+07
6.58621e+07
6.54331e+07
6.50054e+07
6.45793e+07
6.41545e+07
6.37312e+07
6.33094e+07
6.2889e+07
6.247e+07
6.20524e+07
6.16362e+07
6.12215e+07
6.08082e+07
6.03962e+07
5.99857e+07
5.95767e+07
5.9169e+07
5.87627e+07
5.83579e+07
5.79544e+07
5.75524e+07
5.71517e+07
5.67525e+07
5.63546e+07
5.59582e+07
5.55632e+07
5.51695e+07
5.47773e+07
5.43865e+07
5.3997e+07
5.3609e+07
5.32224e+07
5.28372e+07
5.24533e+07
5.20709e+07
5.16899e+07
5.13103e+07
5.09321e+07
5.05552e+07
5.01798e+07
4.98058e+07
4.94332e+07
4.9062e+07
4.86921e+07
4.83237e+07
4.79567e+07
4.75911e+07
4.72269e+07
4.6864e+07
4.65026e+07
4.61426e+07
4.5784e+07
4.54268e+07
4.50709e+07
4.47165e+07
4.43635e+07
4.40119e+07
4.36616e+07
4.33128e+07
4.29654e+07
4.26194e+07
4.22747e+07
4.19315e+07
4.15897e+07
4.12492e+07
4.09102e+07
4.05726e+07
4.02363e+07
3.99015e+07
3.95681e+07
3.9236e+07
3.89054e+07
3.85761e+07
3.82483e+07
3.79218e+07
3.75968e+07
3.72732e+07
3.69509e+07
3.66301e+07
3.63106e+07
3.59926e+07
3.56759e+07
3.53607e+07
3.50468e+07
3.47344e+07
3.44233e+07
3.41136e+07
3.38054e+07
3.34985e+07
3.31931e+07
3.2889e+07
3.25863e+07
3.22851e+07
3.19852e+07
3.16867e+07
3.13897e+07
3.1094e+07
3.07997e+07
3.05068e+07
3.02154e+07
2.99253e+07
2.96366e+07
2.93493e+07
2.90634e+07
2.8779e+07
2.84959e+07
2.82142e+07
2.79339e+07
2.7655e+07
2.73775e+07
2.71014e+07
2.68267e+07
2.65533e+07
2.62814e+07
2.60109e+07
2.57418e+07
2.5474e+07
2.52077e+07
2.49427e+07
2.46792e+07
2.4417e+07
2.41563e+07
2.38969e+07
2.36389e+07
2.33823e+07
2.3127e+07
2.28732e+07
2.26208e+07
2.23697e+07
2.212e+07
2.18717e+07
2.16247e+07
2.13791e+07
2.11349e+07
2.08921e+07
2.06505e+07
2.04104e+07
2.01716e+07
1.99341e+07
1.96979e+07
1.9463e+07
1.92294e+07
1.89971e+07
1.87661e+07
1.85363e+07
1.83076e+07
1.80802e+07
1.78538e+07
1.76285e+07
1.74043e+07
1.71809e+07
1.69584e+07
1.67367e+07
1.65155e+07
1.62947e+07
1.60742e+07
1.58535e+07
1.56324e+07
1.54103e+07
1.51866e+07
1.49605e+07
1.47304e+07
1.44945e+07
1.42502e+07
1.39841e+07
1.36994e+07
8.30013e+07
8.20162e+07
8.12324e+07
8.05639e+07
7.99559e+07
7.93838e+07
7.88356e+07
7.83043e+07
7.77864e+07
7.72793e+07
7.67809e+07
7.62896e+07
7.58042e+07
7.5324e+07
7.48482e+07
7.43763e+07
7.3908e+07
7.34429e+07
7.29806e+07
7.25211e+07
7.2064e+07
7.16092e+07
7.11567e+07
7.07062e+07
7.02578e+07
6.98112e+07
6.93665e+07
6.89236e+07
6.84825e+07
6.8043e+07
6.76053e+07
6.71691e+07
6.67346e+07
6.63017e+07
6.58703e+07
6.54405e+07
6.50121e+07
6.45853e+07
6.41601e+07
6.37362e+07
6.33139e+07
6.28931e+07
6.24737e+07
6.20558e+07
6.16393e+07
6.12243e+07
6.08107e+07
6.03985e+07
5.99878e+07
5.95786e+07
5.91707e+07
5.87643e+07
5.83593e+07
5.79557e+07
5.75535e+07
5.71528e+07
5.67534e+07
5.63555e+07
5.5959e+07
5.55639e+07
5.51702e+07
5.47779e+07
5.4387e+07
5.39975e+07
5.36094e+07
5.32228e+07
5.28375e+07
5.24537e+07
5.20712e+07
5.16902e+07
5.13105e+07
5.09323e+07
5.05554e+07
5.018e+07
4.9806e+07
4.94333e+07
4.90621e+07
4.86923e+07
4.83238e+07
4.79568e+07
4.75912e+07
4.72269e+07
4.68641e+07
4.65027e+07
4.61427e+07
4.5784e+07
4.54268e+07
4.5071e+07
4.47165e+07
4.43635e+07
4.40119e+07
4.36617e+07
4.33128e+07
4.29654e+07
4.26194e+07
4.22747e+07
4.19315e+07
4.15897e+07
4.12492e+07
4.09102e+07
4.05726e+07
4.02363e+07
3.99015e+07
3.9568e+07
3.9236e+07
3.89054e+07
3.85761e+07
3.82483e+07
3.79218e+07
3.75968e+07
3.72731e+07
3.69509e+07
3.663e+07
3.63106e+07
3.59925e+07
3.56759e+07
3.53606e+07
3.50467e+07
3.47343e+07
3.44232e+07
3.41136e+07
3.38053e+07
3.34984e+07
3.3193e+07
3.28889e+07
3.25862e+07
3.22849e+07
3.19851e+07
3.16866e+07
3.13895e+07
3.10938e+07
3.07995e+07
3.05066e+07
3.02151e+07
2.9925e+07
2.96363e+07
2.9349e+07
2.90631e+07
2.87785e+07
2.84954e+07
2.82137e+07
2.79333e+07
2.76544e+07
2.73768e+07
2.71007e+07
2.68259e+07
2.65525e+07
2.62805e+07
2.60099e+07
2.57407e+07
2.54728e+07
2.52064e+07
2.49413e+07
2.46776e+07
2.44153e+07
2.41544e+07
2.38948e+07
2.36366e+07
2.33798e+07
2.31244e+07
2.28703e+07
2.26176e+07
2.23662e+07
2.21162e+07
2.18675e+07
2.16202e+07
2.13742e+07
2.11295e+07
2.08861e+07
2.06441e+07
2.04033e+07
2.01638e+07
1.99256e+07
1.96887e+07
1.94529e+07
1.92184e+07
1.89851e+07
1.87529e+07
1.85219e+07
1.82919e+07
1.8063e+07
1.7835e+07
1.76079e+07
1.73817e+07
1.71562e+07
1.69314e+07
1.6707e+07
1.64828e+07
1.62588e+07
1.60346e+07
1.58097e+07
1.55838e+07
1.53562e+07
1.51261e+07
1.48921e+07
1.46526e+07
1.4404e+07
1.41431e+07
1.38514e+07
1.35133e+07
8.33175e+07
8.23102e+07
8.14849e+07
8.07768e+07
8.01382e+07
7.95425e+07
7.89754e+07
7.84283e+07
7.78968e+07
7.7378e+07
7.68693e+07
7.6369e+07
7.58757e+07
7.53884e+07
7.49064e+07
7.44289e+07
7.39556e+07
7.34859e+07
7.30196e+07
7.25563e+07
7.20959e+07
7.16382e+07
7.11829e+07
7.073e+07
7.02793e+07
6.98308e+07
6.93843e+07
6.89397e+07
6.84971e+07
6.80563e+07
6.76173e+07
6.718e+07
6.67445e+07
6.63106e+07
6.58784e+07
6.54478e+07
6.50188e+07
6.45914e+07
6.41656e+07
6.37412e+07
6.33185e+07
6.28972e+07
6.24774e+07
6.20591e+07
6.16424e+07
6.1227e+07
6.08132e+07
6.04008e+07
5.99899e+07
5.95804e+07
5.91724e+07
5.87658e+07
5.83607e+07
5.7957e+07
5.75547e+07
5.71538e+07
5.67544e+07
5.63564e+07
5.59598e+07
5.55646e+07
5.51708e+07
5.47785e+07
5.43875e+07
5.3998e+07
5.36099e+07
5.32232e+07
5.28379e+07
5.2454e+07
5.20715e+07
5.16904e+07
5.13108e+07
5.09325e+07
5.05556e+07
5.01802e+07
4.98061e+07
4.94335e+07
4.90622e+07
4.86924e+07
4.83239e+07
4.79569e+07
4.75913e+07
4.7227e+07
4.68642e+07
4.65027e+07
4.61427e+07
4.57841e+07
4.54268e+07
4.5071e+07
4.47166e+07
4.43635e+07
4.40119e+07
4.36617e+07
4.33129e+07
4.29654e+07
4.26194e+07
4.22747e+07
4.19315e+07
4.15897e+07
4.12492e+07
4.09102e+07
4.05726e+07
4.02363e+07
3.99015e+07
3.9568e+07
3.9236e+07
3.89053e+07
3.85761e+07
3.82483e+07
3.79218e+07
3.75968e+07
3.72731e+07
3.69508e+07
3.663e+07
3.63105e+07
3.59925e+07
3.56758e+07
3.53606e+07
3.50467e+07
3.47342e+07
3.44232e+07
3.41135e+07
3.38052e+07
3.34983e+07
3.31929e+07
3.28888e+07
3.25861e+07
3.22848e+07
3.19849e+07
3.16864e+07
3.13893e+07
3.10936e+07
3.07993e+07
3.05064e+07
3.02148e+07
2.99247e+07
2.9636e+07
2.93486e+07
2.90627e+07
2.87781e+07
2.8495e+07
2.82132e+07
2.79328e+07
2.76538e+07
2.73762e+07
2.71e+07
2.68251e+07
2.65517e+07
2.62796e+07
2.60089e+07
2.57396e+07
2.54716e+07
2.52051e+07
2.49399e+07
2.46761e+07
2.44136e+07
2.41525e+07
2.38928e+07
2.36344e+07
2.33774e+07
2.31217e+07
2.28674e+07
2.26144e+07
2.23627e+07
2.21124e+07
2.18634e+07
2.16156e+07
2.13692e+07
2.11241e+07
2.08802e+07
2.06376e+07
2.03963e+07
2.01561e+07
1.99172e+07
1.96795e+07
1.94429e+07
1.92074e+07
1.89731e+07
1.87398e+07
1.85075e+07
1.82762e+07
1.80458e+07
1.78163e+07
1.75875e+07
1.73593e+07
1.71317e+07
1.69045e+07
1.66775e+07
1.64505e+07
1.62232e+07
1.59954e+07
1.57665e+07
1.5536e+07
1.53031e+07
1.50668e+07
1.48254e+07
1.45772e+07
1.4317e+07
1.40424e+07
1.37318e+07
1.33643e+07
8.3578e+07
8.25692e+07
8.17192e+07
8.09804e+07
8.03151e+07
7.96975e+07
7.91124e+07
7.85502e+07
7.80056e+07
7.74753e+07
7.69567e+07
7.64476e+07
7.59465e+07
7.54523e+07
7.49641e+07
7.44811e+07
7.40027e+07
7.35286e+07
7.30582e+07
7.25914e+07
7.21277e+07
7.1667e+07
7.1209e+07
7.07537e+07
7.03008e+07
6.98502e+07
6.94019e+07
6.89557e+07
6.85116e+07
6.80695e+07
6.76292e+07
6.71909e+07
6.67543e+07
6.63196e+07
6.58865e+07
6.54552e+07
6.50255e+07
6.45975e+07
6.4171e+07
6.37462e+07
6.3323e+07
6.29013e+07
6.24811e+07
6.20625e+07
6.16454e+07
6.12298e+07
6.08157e+07
6.04031e+07
5.9992e+07
5.95823e+07
5.91741e+07
5.87674e+07
5.83621e+07
5.79582e+07
5.75558e+07
5.71549e+07
5.67553e+07
5.63572e+07
5.59606e+07
5.55653e+07
5.51715e+07
5.4779e+07
5.43881e+07
5.39985e+07
5.36103e+07
5.32236e+07
5.28382e+07
5.24543e+07
5.20718e+07
5.16907e+07
5.1311e+07
5.09327e+07
5.05558e+07
5.01804e+07
4.98063e+07
4.94336e+07
4.90624e+07
4.86925e+07
4.8324e+07
4.7957e+07
4.75913e+07
4.72271e+07
4.68643e+07
4.65028e+07
4.61428e+07
4.57841e+07
4.54269e+07
4.50711e+07
4.47166e+07
4.43636e+07
4.40119e+07
4.36617e+07
4.33129e+07
4.29654e+07
4.26194e+07
4.22748e+07
4.19315e+07
4.15897e+07
4.12492e+07
4.09102e+07
4.05726e+07
4.02363e+07
3.99015e+07
3.9568e+07
3.9236e+07
3.89053e+07
3.85761e+07
3.82482e+07
3.79218e+07
3.75967e+07
3.72731e+07
3.69508e+07
3.663e+07
3.63105e+07
3.59924e+07
3.56758e+07
3.53605e+07
3.50466e+07
3.47342e+07
3.44231e+07
3.41134e+07
3.38051e+07
3.34982e+07
3.31927e+07
3.28887e+07
3.2586e+07
3.22847e+07
3.19847e+07
3.16862e+07
3.13891e+07
3.10934e+07
3.07991e+07
3.05061e+07
3.02146e+07
2.99244e+07
2.96357e+07
2.93483e+07
2.90623e+07
2.87777e+07
2.84945e+07
2.82127e+07
2.79323e+07
2.76532e+07
2.73755e+07
2.70993e+07
2.68244e+07
2.65508e+07
2.62787e+07
2.60079e+07
2.57385e+07
2.54704e+07
2.52038e+07
2.49385e+07
2.46745e+07
2.44119e+07
2.41507e+07
2.38908e+07
2.36322e+07
2.3375e+07
2.31191e+07
2.28645e+07
2.26112e+07
2.23593e+07
2.21086e+07
2.18592e+07
2.16111e+07
2.13643e+07
2.11187e+07
2.08743e+07
2.06312e+07
2.03892e+07
2.01485e+07
1.99088e+07
1.96703e+07
1.94329e+07
1.91965e+07
1.89612e+07
1.87268e+07
1.84933e+07
1.82607e+07
1.80289e+07
1.77977e+07
1.75672e+07
1.73371e+07
1.71074e+07
1.68779e+07
1.66483e+07
1.64185e+07
1.61881e+07
1.59568e+07
1.57239e+07
1.5489e+07
1.5251e+07
1.50089e+07
1.47604e+07
1.45047e+07
1.4234e+07
1.39484e+07
1.36249e+07
1.32463e+07
8.38018e+07
8.27979e+07
8.19343e+07
8.11732e+07
8.04853e+07
7.98479e+07
7.9246e+07
7.86695e+07
7.81124e+07
7.75711e+07
7.70428e+07
7.65252e+07
7.60165e+07
7.55155e+07
7.50212e+07
7.45327e+07
7.40495e+07
7.35709e+07
7.30966e+07
7.26261e+07
7.21592e+07
7.16955e+07
7.12349e+07
7.07772e+07
7.03221e+07
6.98696e+07
6.94194e+07
6.89716e+07
6.8526e+07
6.80825e+07
6.76411e+07
6.72016e+07
6.67641e+07
6.63284e+07
6.58946e+07
6.54625e+07
6.50321e+07
6.46035e+07
6.41765e+07
6.37512e+07
6.33274e+07
6.29053e+07
6.24848e+07
6.20659e+07
6.16484e+07
6.12326e+07
6.08182e+07
6.04054e+07
5.9994e+07
5.95842e+07
5.91758e+07
5.87689e+07
5.83635e+07
5.79595e+07
5.7557e+07
5.71559e+07
5.67563e+07
5.63581e+07
5.59613e+07
5.5566e+07
5.51721e+07
5.47796e+07
5.43886e+07
5.39989e+07
5.36107e+07
5.3224e+07
5.28386e+07
5.24546e+07
5.20721e+07
5.1691e+07
5.13112e+07
5.09329e+07
5.0556e+07
5.01805e+07
4.98064e+07
4.94338e+07
4.90625e+07
4.86926e+07
4.83242e+07
4.79571e+07
4.75914e+07
4.72272e+07
4.68643e+07
4.65029e+07
4.61428e+07
4.57842e+07
4.54269e+07
4.50711e+07
4.47167e+07
4.43636e+07
4.4012e+07
4.36617e+07
4.33129e+07
4.29655e+07
4.26194e+07
4.22748e+07
4.19315e+07
4.15897e+07
4.12492e+07
4.09102e+07
4.05726e+07
4.02363e+07
3.99015e+07
3.9568e+07
3.9236e+07
3.89053e+07
3.85761e+07
3.82482e+07
3.79218e+07
3.75967e+07
3.7273e+07
3.69508e+07
3.66299e+07
3.63105e+07
3.59924e+07
3.56757e+07
3.53604e+07
3.50466e+07
3.47341e+07
3.4423e+07
3.41133e+07
3.3805e+07
3.34981e+07
3.31926e+07
3.28885e+07
3.25858e+07
3.22845e+07
3.19846e+07
3.16861e+07
3.13889e+07
3.10932e+07
3.07988e+07
3.05059e+07
3.02143e+07
2.99241e+07
2.96354e+07
2.9348e+07
2.90619e+07
2.87773e+07
2.84941e+07
2.82122e+07
2.79317e+07
2.76526e+07
2.73749e+07
2.70986e+07
2.68236e+07
2.655e+07
2.62778e+07
2.60069e+07
2.57374e+07
2.54693e+07
2.52025e+07
2.4937e+07
2.4673e+07
2.44102e+07
2.41488e+07
2.38887e+07
2.363e+07
2.33725e+07
2.31164e+07
2.28616e+07
2.26081e+07
2.23558e+07
2.21048e+07
2.18551e+07
2.16066e+07
2.13594e+07
2.11133e+07
2.08685e+07
2.06248e+07
2.03823e+07
2.01409e+07
1.99005e+07
1.96612e+07
1.9423e+07
1.91857e+07
1.89494e+07
1.87139e+07
1.84792e+07
1.82453e+07
1.8012e+07
1.77793e+07
1.75471e+07
1.73151e+07
1.70833e+07
1.68515e+07
1.66195e+07
1.63869e+07
1.61535e+07
1.59188e+07
1.56821e+07
1.5443e+07
1.52e+07
1.49527e+07
1.46975e+07
1.44352e+07
1.41556e+07
1.38614e+07
1.35303e+07
1.31498e+07
8.39967e+07
8.30031e+07
8.21325e+07
8.13549e+07
8.06483e+07
7.99931e+07
7.93757e+07
7.87858e+07
7.8217e+07
7.76652e+07
7.71275e+07
7.66016e+07
7.60855e+07
7.55779e+07
7.50776e+07
7.45838e+07
7.40958e+07
7.36128e+07
7.31346e+07
7.26606e+07
7.21904e+07
7.17238e+07
7.12606e+07
7.08005e+07
7.03432e+07
6.98887e+07
6.94368e+07
6.89874e+07
6.85403e+07
6.80955e+07
6.76529e+07
6.72123e+07
6.67738e+07
6.63372e+07
6.59025e+07
6.54697e+07
6.50387e+07
6.46094e+07
6.41819e+07
6.37561e+07
6.33319e+07
6.29094e+07
6.24885e+07
6.20692e+07
6.16515e+07
6.12353e+07
6.08207e+07
6.04076e+07
5.99961e+07
5.9586e+07
5.91775e+07
5.87704e+07
5.83649e+07
5.79608e+07
5.75581e+07
5.71569e+07
5.67572e+07
5.63589e+07
5.59621e+07
5.55667e+07
5.51727e+07
5.47802e+07
5.43891e+07
5.39994e+07
5.36112e+07
5.32243e+07
5.28389e+07
5.24549e+07
5.20724e+07
5.16912e+07
5.13115e+07
5.09331e+07
5.05562e+07
5.01807e+07
4.98066e+07
4.94339e+07
4.90626e+07
4.86927e+07
4.83243e+07
4.79572e+07
4.75915e+07
4.72273e+07
4.68644e+07
4.65029e+07
4.61429e+07
4.57842e+07
4.5427e+07
4.50711e+07
4.47167e+07
4.43636e+07
4.4012e+07
4.36618e+07
4.33129e+07
4.29655e+07
4.26194e+07
4.22748e+07
4.19315e+07
4.15897e+07
4.12493e+07
4.09102e+07
4.05726e+07
4.02363e+07
3.99015e+07
3.9568e+07
3.9236e+07
3.89053e+07
3.85761e+07
3.82482e+07
3.79217e+07
3.75967e+07
3.7273e+07
3.69508e+07
3.66299e+07
3.63104e+07
3.59923e+07
3.56757e+07
3.53604e+07
3.50465e+07
3.4734e+07
3.44229e+07
3.41132e+07
3.38049e+07
3.3498e+07
3.31925e+07
3.28884e+07
3.25857e+07
3.22844e+07
3.19844e+07
3.16859e+07
3.13888e+07
3.1093e+07
3.07986e+07
3.05057e+07
3.02141e+07
2.99239e+07
2.9635e+07
2.93476e+07
2.90616e+07
2.87769e+07
2.84936e+07
2.82117e+07
2.79312e+07
2.76521e+07
2.73743e+07
2.70979e+07
2.68228e+07
2.65492e+07
2.62769e+07
2.60059e+07
2.57363e+07
2.54681e+07
2.52012e+07
2.49356e+07
2.46714e+07
2.44085e+07
2.4147e+07
2.38867e+07
2.36278e+07
2.33702e+07
2.31138e+07
2.28587e+07
2.26049e+07
2.23524e+07
2.21011e+07
2.18511e+07
2.16022e+07
2.13545e+07
2.1108e+07
2.08627e+07
2.06185e+07
2.03754e+07
2.01333e+07
1.98923e+07
1.96522e+07
1.94132e+07
1.9175e+07
1.89376e+07
1.87011e+07
1.84652e+07
1.823e+07
1.79954e+07
1.77611e+07
1.75272e+07
1.72934e+07
1.70596e+07
1.68256e+07
1.65911e+07
1.63559e+07
1.61194e+07
1.58815e+07
1.56412e+07
1.53981e+07
1.51504e+07
1.48984e+07
1.46369e+07
1.43689e+07
1.4082e+07
1.37809e+07
1.34467e+07
1.30685e+07
8.41696e+07
8.31892e+07
8.23147e+07
8.15252e+07
8.08037e+07
8.01331e+07
7.95014e+07
7.8899e+07
7.8319e+07
7.77572e+07
7.72106e+07
7.66767e+07
7.61534e+07
7.56393e+07
7.51332e+07
7.46342e+07
7.41414e+07
7.36542e+07
7.31721e+07
7.26946e+07
7.22213e+07
7.17518e+07
7.1286e+07
7.08235e+07
7.03641e+07
6.99077e+07
6.94541e+07
6.9003e+07
6.85545e+07
6.81084e+07
6.76646e+07
6.72229e+07
6.67834e+07
6.63459e+07
6.59105e+07
6.54769e+07
6.50452e+07
6.46153e+07
6.41873e+07
6.37609e+07
6.33363e+07
6.29134e+07
6.24921e+07
6.20725e+07
6.16544e+07
6.1238e+07
6.08232e+07
6.04099e+07
5.99981e+07
5.95879e+07
5.91792e+07
5.87719e+07
5.83662e+07
5.7962e+07
5.75592e+07
5.7158e+07
5.67581e+07
5.63598e+07
5.59629e+07
5.55674e+07
5.51734e+07
5.47808e+07
5.43896e+07
5.39999e+07
5.36116e+07
5.32247e+07
5.28393e+07
5.24553e+07
5.20727e+07
5.16915e+07
5.13117e+07
5.09334e+07
5.05564e+07
5.01809e+07
4.98068e+07
4.94341e+07
4.90628e+07
4.86929e+07
4.83244e+07
4.79573e+07
4.75916e+07
4.72273e+07
4.68645e+07
4.6503e+07
4.61429e+07
4.57843e+07
4.5427e+07
4.50712e+07
4.47167e+07
4.43637e+07
4.4012e+07
4.36618e+07
4.33129e+07
4.29655e+07
4.26194e+07
4.22748e+07
4.19315e+07
4.15897e+07
4.12493e+07
4.09102e+07
4.05726e+07
4.02363e+07
3.99015e+07
3.9568e+07
3.92359e+07
3.89053e+07
3.8576e+07
3.82482e+07
3.79217e+07
3.75967e+07
3.7273e+07
3.69507e+07
3.66298e+07
3.63104e+07
3.59923e+07
3.56756e+07
3.53603e+07
3.50464e+07
3.4734e+07
3.44229e+07
3.41132e+07
3.38049e+07
3.34979e+07
3.31924e+07
3.28883e+07
3.25856e+07
3.22842e+07
3.19843e+07
3.16857e+07
3.13886e+07
3.10928e+07
3.07984e+07
3.05054e+07
3.02138e+07
2.99236e+07
2.96347e+07
2.93473e+07
2.90612e+07
2.87765e+07
2.84932e+07
2.82112e+07
2.79307e+07
2.76515e+07
2.73737e+07
2.70972e+07
2.68221e+07
2.65484e+07
2.6276e+07
2.60049e+07
2.57353e+07
2.54669e+07
2.51999e+07
2.49342e+07
2.46699e+07
2.44069e+07
2.41452e+07
2.38847e+07
2.36256e+07
2.33678e+07
2.31112e+07
2.28559e+07
2.26019e+07
2.2349e+07
2.20974e+07
2.1847e+07
2.15978e+07
2.13497e+07
2.11028e+07
2.0857e+07
2.06122e+07
2.03685e+07
2.01258e+07
1.98841e+07
1.96433e+07
1.94034e+07
1.91644e+07
1.8926e+07
1.86884e+07
1.84514e+07
1.82149e+07
1.79789e+07
1.77431e+07
1.75075e+07
1.7272e+07
1.70362e+07
1.68e+07
1.65632e+07
1.63253e+07
1.6086e+07
1.5845e+07
1.56011e+07
1.53544e+07
1.51022e+07
1.4846e+07
1.45789e+07
1.43057e+07
1.40136e+07
1.37068e+07
1.3372e+07
1.29978e+07
8.43249e+07
8.33576e+07
8.24822e+07
8.16845e+07
8.0951e+07
8.02675e+07
7.9623e+07
7.90089e+07
7.84185e+07
7.78472e+07
7.7292e+07
7.67503e+07
7.62201e+07
7.56997e+07
7.5188e+07
7.46838e+07
7.41864e+07
7.3695e+07
7.32091e+07
7.27282e+07
7.22518e+07
7.17795e+07
7.13111e+07
7.08463e+07
7.03848e+07
6.99265e+07
6.94711e+07
6.90185e+07
6.85685e+07
6.81211e+07
6.76761e+07
6.72334e+07
6.67929e+07
6.63546e+07
6.59183e+07
6.5484e+07
6.50516e+07
6.46212e+07
6.41926e+07
6.37657e+07
6.33407e+07
6.29173e+07
6.24957e+07
6.20757e+07
6.16574e+07
6.12407e+07
6.08256e+07
6.04121e+07
6.00001e+07
5.95897e+07
5.91808e+07
5.87734e+07
5.83676e+07
5.79632e+07
5.75604e+07
5.7159e+07
5.67591e+07
5.63606e+07
5.59636e+07
5.55681e+07
5.5174e+07
5.47813e+07
5.43901e+07
5.40003e+07
5.3612e+07
5.32251e+07
5.28396e+07
5.24556e+07
5.20729e+07
5.16917e+07
5.13119e+07
5.09336e+07
5.05566e+07
5.01811e+07
4.98069e+07
4.94342e+07
4.90629e+07
4.8693e+07
4.83245e+07
4.79574e+07
4.75917e+07
4.72274e+07
4.68645e+07
4.65031e+07
4.6143e+07
4.57843e+07
4.54271e+07
4.50712e+07
4.47168e+07
4.43637e+07
4.40121e+07
4.36618e+07
4.3313e+07
4.29655e+07
4.26195e+07
4.22748e+07
4.19316e+07
4.15897e+07
4.12493e+07
4.09102e+07
4.05726e+07
4.02363e+07
3.99014e+07
3.9568e+07
3.92359e+07
3.89053e+07
3.8576e+07
3.82482e+07
3.79217e+07
3.75966e+07
3.7273e+07
3.69507e+07
3.66298e+07
3.63103e+07
3.59923e+07
3.56756e+07
3.53603e+07
3.50464e+07
3.47339e+07
3.44228e+07
3.41131e+07
3.38048e+07
3.34979e+07
3.31923e+07
3.28882e+07
3.25855e+07
3.22841e+07
3.19841e+07
3.16856e+07
3.13884e+07
3.10926e+07
3.07982e+07
3.05052e+07
3.02136e+07
2.99233e+07
2.96344e+07
2.9347e+07
2.90608e+07
2.87761e+07
2.84928e+07
2.82108e+07
2.79302e+07
2.76509e+07
2.7373e+07
2.70965e+07
2.68214e+07
2.65475e+07
2.62751e+07
2.6004e+07
2.57342e+07
2.54658e+07
2.51987e+07
2.49329e+07
2.46684e+07
2.44052e+07
2.41433e+07
2.38828e+07
2.36235e+07
2.33654e+07
2.31086e+07
2.28531e+07
2.25988e+07
2.23457e+07
2.20938e+07
2.1843e+07
2.15934e+07
2.1345e+07
2.10976e+07
2.08513e+07
2.0606e+07
2.03618e+07
2.01184e+07
1.98761e+07
1.96345e+07
1.93938e+07
1.91539e+07
1.89146e+07
1.86759e+07
1.84378e+07
1.82001e+07
1.79627e+07
1.77254e+07
1.74882e+07
1.72509e+07
1.70132e+07
1.67749e+07
1.65357e+07
1.62954e+07
1.60533e+07
1.58093e+07
1.55621e+07
1.5312e+07
1.50556e+07
1.47953e+07
1.45236e+07
1.42455e+07
1.39503e+07
1.3639e+07
1.33038e+07
1.29342e+07
8.44657e+07
8.35112e+07
8.26374e+07
8.1834e+07
8.10907e+07
8.03959e+07
7.974e+07
7.91152e+07
7.8515e+07
7.79348e+07
7.73714e+07
7.68223e+07
7.62854e+07
7.5759e+07
7.52417e+07
7.47326e+07
7.42307e+07
7.37352e+07
7.32456e+07
7.27613e+07
7.22818e+07
7.18068e+07
7.13358e+07
7.08687e+07
7.04052e+07
6.9945e+07
6.94879e+07
6.90337e+07
6.85824e+07
6.81337e+07
6.76875e+07
6.72438e+07
6.68023e+07
6.63631e+07
6.5926e+07
6.5491e+07
6.5058e+07
6.4627e+07
6.41978e+07
6.37705e+07
6.3345e+07
6.29212e+07
6.24992e+07
6.20789e+07
6.16603e+07
6.12433e+07
6.0828e+07
6.04142e+07
6.00021e+07
5.95915e+07
5.91824e+07
5.87749e+07
5.83689e+07
5.79644e+07
5.75615e+07
5.716e+07
5.676e+07
5.63614e+07