/*--------------------------------*- C++ -*----------------------------------*\
| =========                 |                                                 |
| \\      /  F ield         | OpenFOAM: The Open Source CFD Toolbox           |
|  \\    /   O peration     | Version:  2.4.0                                 |
|   \\  /    A nd           | Web:      www.OpenFOAM.org                      |
|    \\/     M anipulation  |                                                 |
\*---------------------------------------------------------------------------*/
FoamFile
{
    version     2.0;
    format      ascii;
    class       surfaceScalarField;
    location    "0.125";
    object      phi;
}
// * * * * * * * * * * * * * * * * * * * * * * * * * * * * * * * * * * * * * //

dimensions      [0 3 -1 0 0 0 0];

internalField   nonuniform List<scalar> 
34880
(
5.48905e-06
7.01095e-06
3.12044e-06
2.36861e-06
2.47568e-06
6.44765e-07
2.21993e-06
2.5575e-07
2.0683e-06
1.51628e-07
1.97298e-06
9.53195e-08
1.89154e-06
8.14396e-08
1.81267e-06
7.88686e-08
1.77823e-06
3.44463e-08
1.74907e-06
2.91594e-08
1.69747e-06
5.15937e-08
1.69327e-06
4.20241e-09
1.66864e-06
2.46338e-08
1.66041e-06
8.22413e-09
1.62852e-06
3.1894e-08
1.68822e-06
-5.97055e-08
1.64788e-06
4.03401e-08
1.76763e-06
-1.19747e-07
1.62687e-06
1.40759e-07
-1.01243e-06
2.6393e-06
1.01092e-05
9.40174e-06
7.82421e-06
4.65361e-06
6.71644e-06
1.75253e-06
6.06258e-06
9.09611e-07
5.63631e-06
5.77896e-07
5.35952e-06
3.72109e-07
5.1242e-06
3.16763e-07
4.93489e-06
2.68172e-07
4.82372e-06
1.45621e-07
4.70631e-06
1.46567e-07
4.61152e-06
1.46389e-07
4.5555e-06
6.02154e-08
4.49546e-06
8.46761e-08
4.44743e-06
5.62598e-08
4.40151e-06
7.78093e-08
4.46856e-06
-1.26755e-07
4.38105e-06
1.27847e-07
4.63894e-06
-3.77631e-07
4.59075e-06
1.88942e-07
-1.56271e-06
5.14104e-06
1.24198e-05
9.48189e-06
1.09976e-05
6.07582e-06
9.98849e-06
2.76168e-06
9.19963e-06
1.69847e-06
8.60916e-06
1.16837e-06
8.20364e-06
7.7763e-07
7.85474e-06
6.65658e-07
7.58403e-06
5.38884e-07
7.41126e-06
3.18388e-07
7.21519e-06
3.4264e-07
7.09368e-06
2.67902e-07
6.98338e-06
1.70511e-07
6.89718e-06
1.70876e-07
6.80979e-06
1.43654e-07
6.75586e-06
1.31735e-07
6.79835e-06
-1.69247e-07
6.6953e-06
2.30897e-07
6.9676e-06
-6.4993e-07
7.05936e-06
9.71806e-08
-2.09066e-06
7.58731e-06
1.34035e-05
8.57842e-06
1.28792e-05
6.60006e-06
1.2336e-05
3.30493e-06
1.17118e-05
2.3226e-06
1.11233e-05
1.75696e-06
1.06755e-05
1.22536e-06
1.02704e-05
1.0708e-06
9.94282e-06
8.66443e-07
9.73895e-06
5.22257e-07
9.47989e-06
6.01698e-07
9.33975e-06
4.08048e-07
9.1903e-06
3.1996e-07
9.07886e-06
2.8231e-07
8.96089e-06
2.61623e-07
8.8984e-06
1.94234e-07
8.90728e-06
-1.78128e-07
8.80685e-06
3.3132e-07
9.0306e-06
-8.73672e-07
9.20137e-06
-7.35945e-08
-2.69557e-06
9.80628e-06
1.3579e-05
7.49943e-06
1.3645e-05
6.53407e-06
1.36368e-05
3.31307e-06
1.33942e-05
2.56528e-06
1.3007e-05
2.14409e-06
1.26425e-05
1.58994e-06
1.22745e-05
1.43878e-06
1.19368e-05
1.20412e-06
1.17459e-05
7.13187e-07
1.14577e-05
8.89885e-07
1.13115e-05
5.54219e-07
1.11478e-05
4.83657e-07
1.10181e-05
4.12011e-07
1.08838e-05
3.95942e-07
1.0814e-05
2.64009e-07
1.07982e-05
-1.62335e-07
1.06997e-05
4.29833e-07
1.08648e-05
-1.0387e-06
1.10754e-05
-2.84194e-07
-3.29975e-06
1.16795e-05
1.34656e-05
6.53382e-06
1.37282e-05
6.27143e-06
1.4015e-05
3.02635e-06
1.41343e-05
2.44589e-06
1.40741e-05
2.20431e-06
1.39121e-05
1.75199e-06
1.37046e-05
1.64623e-06
1.34356e-05
1.47312e-06
1.33174e-05
8.3142e-07
1.30568e-05
1.15047e-06
1.29271e-05
6.83958e-07
1.27847e-05
6.26053e-07
1.26529e-05
5.43786e-07
1.25292e-05
5.19611e-07
1.24501e-05
3.43142e-07
1.24342e-05
-1.46399e-07
1.23369e-05
5.27068e-07
1.24507e-05
-1.15245e-06
1.26536e-05
-4.87086e-07
-3.31625e-06
1.26701e-05
1.33408e-05
5.69306e-06
1.36484e-05
5.96384e-06
1.3955e-05
2.71971e-06
1.42127e-05
2.18816e-06
1.43914e-05
2.02567e-06
1.44065e-05
1.73689e-06
1.44258e-05
1.62692e-06
1.42905e-05
1.60838e-06
1.43018e-05
8.20135e-07
1.41501e-05
1.30218e-06
1.40779e-05
7.5612e-07
1.40011e-05
7.02876e-07
1.38941e-05
6.5084e-07
1.38246e-05
5.89119e-07
1.37423e-05
4.25401e-07
1.37445e-05
-1.4864e-07
1.36733e-05
5.98312e-07
1.37431e-05
-1.2222e-06
1.39408e-05
-6.84844e-07
-2.88245e-06
1.3507e-05
1.32517e-05
4.94134e-06
1.36264e-05
5.58917e-06
1.38261e-05
2.52e-06
1.4096e-05
1.91824e-06
1.43638e-05
1.75787e-06
1.44108e-05
1.68988e-06
1.45796e-05
1.45812e-06
1.4548e-05
1.64003e-06
1.46507e-05
7.17413e-07
1.46421e-05
1.31077e-06
1.4662e-05
7.36273e-07
1.4686e-05
6.78825e-07
1.46324e-05
7.04421e-07
1.46629e-05
5.58675e-07
1.46116e-05
4.76645e-07
1.46387e-05
-1.75704e-07
1.46392e-05
5.97787e-07
1.46848e-05
-1.26783e-06
1.48467e-05
-8.46723e-07
-2.1515e-06
1.41158e-05
1.31999e-05
4.24148e-06
1.35545e-05
5.23458e-06
1.36992e-05
2.3752e-06
1.39714e-05
1.64608e-06
1.42908e-05
1.4385e-06
1.43188e-05
1.66183e-06
1.45258e-05
1.25113e-06
1.45508e-05
1.61508e-06
1.46372e-05
6.31014e-07
1.46949e-05
1.25302e-06
1.4775e-05
6.56204e-07
1.4875e-05
5.78811e-07
1.4862e-05
7.17419e-07
1.49875e-05
4.33211e-07
1.49957e-05
4.68429e-07
1.50558e-05
-2.35788e-07
1.51473e-05
5.06222e-07
1.52058e-05
-1.32627e-06
1.53599e-05
-1.0009e-06
-2.70083e-06
1.59093e-05
1.31653e-05
3.57613e-06
1.35274e-05
4.87255e-06
1.35937e-05
2.30891e-06
1.38496e-05
1.39011e-06
1.42042e-05
1.08393e-06
1.42377e-05
1.62834e-06
1.44281e-05
1.06076e-06
1.45284e-05
1.51475e-06
1.45825e-05
5.76859e-07
1.46395e-05
1.19608e-06
1.47325e-05
5.63143e-07
1.48543e-05
4.56998e-07
1.48369e-05
7.34829e-07
1.49864e-05
2.83728e-07
1.50202e-05
4.34667e-07
1.51147e-05
-3.30338e-07
1.52651e-05
3.55876e-07
1.53017e-05
-1.3629e-06
1.54684e-05
-1.16757e-06
-3.27175e-06
1.60393e-05
1.31167e-05
2.95942e-06
1.35393e-05
4.44993e-06
1.35503e-05
2.29791e-06
1.37815e-05
1.1589e-06
1.40881e-05
7.77387e-07
1.41321e-05
1.58429e-06
1.43192e-05
8.7376e-07
1.44903e-05
1.34361e-06
1.45551e-05
5.12093e-07
1.4626e-05
1.1251e-06
1.46995e-05
4.89723e-07
1.48156e-05
3.40881e-07
1.47833e-05
7.67132e-07
1.49186e-05
1.48398e-07
1.49581e-05
3.95147e-07
1.50712e-05
-4.4345e-07
1.52053e-05
2.21806e-07
1.52093e-05
-1.36686e-06
1.54725e-05
-1.43083e-06
-3.90392e-06
1.61047e-05
1.30621e-05
2.39728e-06
1.34942e-05
4.01787e-06
1.35274e-05
2.26467e-06
1.37541e-05
9.3229e-07
1.39878e-05
5.43637e-07
1.40734e-05
1.49872e-06
1.42583e-05
6.88834e-07
1.44336e-05
1.16832e-06
1.44939e-05
4.51806e-07
1.46011e-05
1.01788e-06
1.46329e-05
4.57862e-07
1.47363e-05
2.37539e-07
1.47313e-05
7.72096e-07
1.4872e-05
7.74771e-09
1.49462e-05
3.20935e-07
1.5033e-05
-5.30229e-07
1.51278e-05
1.26978e-07
1.51688e-05
-1.40787e-06
1.54949e-05
-1.75694e-06
-4.26037e-06
1.58514e-05
1.29832e-05
1.91409e-06
1.33677e-05
3.6334e-06
1.35345e-05
2.09783e-06
1.37347e-05
7.32134e-07
1.3929e-05
3.49324e-07
1.40904e-05
1.33733e-06
1.4223e-05
5.56144e-07
1.43429e-05
1.04847e-06
1.43984e-05
3.96275e-07
1.45277e-05
8.88664e-07
1.45257e-05
4.59805e-07
1.46442e-05
1.19027e-07
1.47035e-05
7.12866e-07
1.48393e-05
-1.28069e-07
1.49391e-05
2.21144e-07
1.49784e-05
-5.69528e-07
1.50802e-05
2.51813e-08
1.51743e-05
-1.50197e-06
1.54267e-05
-2.00936e-06
-4.14111e-06
1.53074e-05
1.28748e-05
1.53924e-06
1.33003e-05
3.2079e-06
1.36068e-05
1.79135e-06
1.37156e-05
6.23347e-07
1.38846e-05
1.80296e-07
1.4083e-05
1.13896e-06
1.41259e-05
5.13288e-07
1.42334e-05
9.40879e-07
1.43197e-05
3.09992e-07
1.44474e-05
7.6103e-07
1.4456e-05
4.51216e-07
1.46094e-05
-3.44499e-08
1.46948e-05
6.275e-07
1.47879e-05
-2.21151e-07
1.48906e-05
1.18377e-07
1.48931e-05
-5.72023e-07
1.5044e-05
-1.25686e-07
1.51504e-05
-1.60836e-06
1.52731e-05
-2.13202e-06
-3.89756e-06
1.50295e-05
1.28101e-05
1.22915e-06
1.3335e-05
2.683e-06
1.36388e-05
1.48754e-06
1.3671e-05
5.91184e-07
1.3833e-05
1.82826e-08
1.4018e-05
9.53944e-07
1.40217e-05
5.09612e-07
1.41886e-05
7.7392e-07
1.4288e-05
2.10643e-07
1.4404e-05
6.44974e-07
1.44532e-05
4.02085e-07
1.45935e-05
-1.74799e-07
1.46583e-05
5.62707e-07
1.47135e-05
-2.76314e-07
1.48128e-05
1.90864e-08
1.48426e-05
-6.01879e-07
1.50056e-05
-2.88704e-07
1.5093e-05
-1.69569e-06
1.51667e-05
-2.20575e-06
-3.79267e-06
1.50618e-05
1.28131e-05
9.16067e-07
1.33355e-05
2.16059e-06
1.35718e-05
1.25126e-06
1.36321e-05
5.3086e-07
1.37992e-05
-1.48848e-07
1.39527e-05
8.0049e-07
1.40008e-05
4.61527e-07
1.42226e-05
5.52097e-07
1.42739e-05
1.59336e-07
1.43894e-05
5.29498e-07
1.44582e-05
3.33263e-07
1.45326e-05
-2.49188e-07
1.45995e-05
4.95835e-07
1.46468e-05
-3.23611e-07
1.47768e-05
-1.10992e-07
1.48117e-05
-6.36749e-07
1.49853e-05
-4.62337e-07
1.5006e-05
-1.71633e-06
1.51302e-05
-2.33e-06
-3.87909e-06
1.52166e-05
1.28123e-05
6.03772e-07
1.32555e-05
1.71743e-06
1.3514e-05
9.92752e-07
1.36601e-05
3.8477e-07
1.37689e-05
-2.57702e-07
1.39097e-05
6.59686e-07
1.40278e-05
3.43448e-07
1.42322e-05
3.47694e-07
1.4233e-05
1.58528e-07
1.43686e-05
3.93931e-07
1.44352e-05
2.66644e-07
1.44636e-05
-2.77615e-07
1.4578e-05
3.81409e-07
1.46137e-05
-3.59228e-07
1.47765e-05
-2.73809e-07
1.47743e-05
-6.34565e-07
1.49419e-05
-6.29989e-07
1.49405e-05
-1.71493e-06
1.50524e-05
-2.44184e-06
-2.62614e-06
1.37994e-05
1.27613e-05
3.42429e-07
1.31942e-05
1.28461e-06
1.35572e-05
6.29739e-07
1.36947e-05
2.47209e-07
1.3713e-05
-2.75938e-07
1.38917e-05
4.80926e-07
1.40256e-05
2.09584e-07
1.41732e-05
2.0012e-07
1.41864e-05
1.45294e-07
1.43541e-05
2.2629e-07
1.44122e-05
2.08449e-07
1.44468e-05
-3.12126e-07
1.45752e-05
2.53008e-07
1.46087e-05
-3.92732e-07
1.47371e-05
-4.02212e-07
1.47511e-05
-6.48594e-07
1.48795e-05
-7.58441e-07
1.49702e-05
-1.80561e-06
1.50297e-05
-2.50132e-06
-3.05912e-06
1.54627e-05
1.27179e-05
1.24528e-07
1.32079e-05
7.94622e-07
1.35942e-05
2.43377e-07
1.36594e-05
1.82027e-07
1.36748e-05
-2.91268e-07
1.38923e-05
2.63351e-07
1.39963e-05
1.05649e-07
1.41318e-05
6.45928e-08
1.41927e-05
8.44182e-08
1.43539e-05
6.50921e-08
1.44117e-05
1.50648e-07
1.44354e-05
-3.3586e-07
1.4559e-05
1.29406e-07
1.45865e-05
-4.20243e-07
1.47054e-05
-5.21101e-07
1.4724e-05
-6.67186e-07
1.48675e-05
-9.01932e-07
1.49578e-05
-1.89587e-06
1.49936e-05
-2.53716e-06
-3.42151e-06
1.5356e-05
1.27269e-05
-1.02393e-07
1.32413e-05
2.80254e-07
1.35559e-05
-7.12097e-08
1.36117e-05
1.26213e-07
1.3688e-05
-3.67533e-07
1.38999e-05
5.13859e-08
1.39843e-05
2.12755e-08
1.41421e-05
-9.32568e-08
1.42175e-05
9.02999e-09
1.43474e-05
-6.48061e-08
1.43928e-05
1.05308e-07
1.44154e-05
-3.58466e-07
1.4549e-05
-4.20336e-09
1.45876e-05
-4.58896e-07
1.46795e-05
-6.12968e-07
1.47269e-05
-7.14561e-07
1.48682e-05
-1.04326e-06
1.48965e-05
-1.92417e-06
1.49898e-05
-2.63042e-06
-3.78673e-06
1.5355e-05
1.27499e-05
-3.52311e-07
1.32325e-05
-2.0228e-07
1.35094e-05
-3.48148e-07
1.3619e-05
1.66096e-08
1.37305e-05
-4.78993e-07
1.39099e-05
-1.28076e-07
1.39823e-05
-5.11273e-08
1.41433e-05
-2.54287e-07
1.42199e-05
-6.75012e-08
1.43233e-05
-1.68272e-07
1.43754e-05
5.32203e-08
1.44247e-05
-4.07745e-07
1.45766e-05
-1.56122e-07
1.45883e-05
-4.70577e-07
1.46677e-05
-6.92345e-07
1.4738e-05
-7.84893e-07
1.48488e-05
-1.154e-06
1.48555e-05
-1.9309e-06
1.49934e-05
-2.76835e-06
-4.15072e-06
1.53574e-05
1.27572e-05
-6.09534e-07
1.32014e-05
-6.46409e-07
1.35023e-05
-6.49069e-07
1.36602e-05
-1.41343e-07
1.37643e-05
-5.83073e-07
1.38999e-05
-2.63632e-07
1.39728e-05
-1.24031e-07
1.41374e-05
-4.18926e-07
1.42203e-05
-1.50418e-07
1.43138e-05
-2.61771e-07
1.44034e-05
-3.63548e-08
1.44546e-05
-4.58942e-07
1.45932e-05
-2.94761e-07
1.4571e-05
-4.48355e-07
1.46732e-05
-7.94539e-07
1.47368e-05
-8.48458e-07
1.48332e-05
-1.25045e-06
1.48637e-05
-1.9614e-06
1.48438e-05
-2.74848e-06
-3.06216e-06
1.37553e-05
1.27558e-05
-8.65353e-07
1.32e-05
-1.09055e-06
1.35362e-05
-9.85353e-07
1.3695e-05
-3.00122e-07
1.37641e-05
-6.52128e-07
1.38754e-05
-3.74996e-07
1.39773e-05
-2.25851e-07
1.41609e-05
-6.02574e-07
1.42348e-05
-2.24313e-07
1.43393e-05
-3.66278e-07
1.44305e-05
-1.27568e-07
1.44767e-05
-5.05111e-07
1.45634e-05
-3.81499e-07
1.4582e-05
-4.66882e-07
1.46678e-05
-8.80364e-07
1.47587e-05
-9.394e-07
1.48306e-05
-1.32234e-06
1.4891e-05
-2.02174e-06
1.49554e-05
-2.81289e-06
-3.43647e-06
1.53297e-05
1.27664e-05
-1.1318e-06
1.32306e-05
-1.55473e-06
1.35783e-05
-1.33303e-06
1.3699e-05
-4.20869e-07
1.37458e-05
-6.98889e-07
1.38781e-05
-5.07248e-07
1.40194e-05
-3.67243e-07
1.41953e-05
-7.7842e-07
1.42616e-05
-2.90605e-07
1.4357e-05
-4.61695e-07
1.44413e-05
-2.1184e-07
1.44761e-05
-5.39958e-07
1.45596e-05
-4.64994e-07
1.46101e-05
-5.17346e-07
1.46837e-05
-9.54015e-07
1.47827e-05
-1.03832e-06
1.48322e-05
-1.37186e-06
1.49146e-05
-2.10415e-06
1.49953e-05
-2.89364e-06
-3.70469e-06
1.52636e-05
1.27937e-05
-1.42548e-06
1.32686e-05
-2.02969e-06
1.35967e-05
-1.66113e-06
1.36852e-05
-5.09279e-07
1.37557e-05
-7.69393e-07
1.3925e-05
-6.76571e-07
1.40756e-05
-5.17848e-07
1.42224e-05
-9.25186e-07
1.42754e-05
-3.43625e-07
1.4362e-05
-5.48302e-07
1.44537e-05
-3.03552e-07
1.45002e-05
-5.86497e-07
1.4592e-05
-5.56771e-07
1.4647e-05
-5.72334e-07
1.47175e-05
-1.02455e-06
1.48016e-05
-1.12242e-06
1.48382e-05
-1.40844e-06
1.49382e-05
-2.20418e-06
1.50324e-05
-2.98785e-06
-3.77923e-06
1.5107e-05
1.2828e-05
-1.75353e-06
1.3304e-05
-2.50565e-06
1.36064e-05
-1.96349e-06
1.36958e-05
-5.9868e-07
1.38046e-05
-8.78252e-07
1.39796e-05
-8.51592e-07
1.41108e-05
-6.48972e-07
1.42355e-05
-1.04991e-06
1.42897e-05
-3.97821e-07
1.43886e-05
-6.47235e-07
1.44941e-05
-4.09028e-07
1.45522e-05
-6.4463e-07
1.46191e-05
-6.2367e-07
1.46831e-05
-6.36299e-07
1.4744e-05
-1.08547e-06
1.48117e-05
-1.19008e-06
1.48571e-05
-1.45391e-06
1.49852e-05
-2.33227e-06
1.50343e-05
-3.0369e-06
-3.72463e-06
1.49797e-05
1.28677e-05
-2.1212e-06
1.33434e-05
-2.98142e-06
1.36268e-05
-2.24681e-06
1.37272e-05
-6.99124e-07
1.38547e-05
-1.00573e-06
1.402e-05
-1.01687e-06
1.41389e-05
-7.67938e-07
1.42594e-05
-1.17041e-06
1.4335e-05
-4.73406e-07
1.44392e-05
-7.51431e-07
1.45448e-05
-5.1463e-07
1.45875e-05
-6.87356e-07
1.46379e-05
-6.74071e-07
1.47238e-05
-7.22122e-07
1.47712e-05
-1.13296e-06
1.48383e-05
-1.25715e-06
1.4904e-05
-1.51955e-06
1.50194e-05
-2.44774e-06
1.50327e-05
-3.05016e-06
-3.71507e-06
1.50231e-05
1.29147e-05
-2.53587e-06
1.3392e-05
-3.45878e-06
1.36215e-05
-2.47623e-06
1.37585e-05
-8.36163e-07
1.39029e-05
-1.15009e-06
1.40691e-05
-1.18312e-06
1.41871e-05
-8.85879e-07
1.43051e-05
-1.28843e-06
1.43926e-05
-5.60964e-07
1.44826e-05
-8.41367e-07
1.45808e-05
-6.12857e-07
1.46168e-05
-7.23301e-07
1.46804e-05
-7.37728e-07
1.47801e-05
-8.21862e-07
1.48108e-05
-1.16366e-06
1.48913e-05
-1.33757e-06
1.49479e-05
-1.57615e-06
1.50401e-05
-2.53998e-06
1.50789e-05
-3.089e-06
-3.85738e-06
1.52212e-05
1.29679e-05
-3.0038e-06
1.34512e-05
-3.94203e-06
1.3636e-05
-2.6611e-06
1.37906e-05
-9.90713e-07
1.39684e-05
-1.32785e-06
1.41347e-05
-1.34945e-06
1.42447e-05
-9.95929e-07
1.43518e-05
-1.39549e-06
1.44442e-05
-6.53396e-07
1.45171e-05
-9.14231e-07
1.46218e-05
-7.17584e-07
1.46696e-05
-7.71105e-07
1.47467e-05
-8.14839e-07
1.4833e-05
-9.08169e-07
1.48614e-05
-1.19198e-06
1.49424e-05
-1.41864e-06
1.49769e-05
-1.61064e-06
1.5074e-05
-2.63711e-06
1.51273e-05
-3.14228e-06
-3.99283e-06
1.52628e-05
1.30262e-05
-3.52996e-06
1.35224e-05
-4.43829e-06
1.36691e-05
-2.80781e-06
1.38362e-05
-1.1578e-06
1.40535e-05
-1.54512e-06
1.41981e-05
-1.49411e-06
1.43013e-05
-1.09909e-06
1.44009e-05
-1.4951e-06
1.44981e-05
-7.50622e-07
1.45601e-05
-9.76172e-07
1.4684e-05
-8.41509e-07
1.47351e-05
-8.22173e-07
1.48093e-05
-8.89104e-07
1.48812e-05
-9.80058e-07
1.49223e-05
-1.23302e-06
1.4983e-05
-1.47941e-06
1.50183e-05
-1.64588e-06
1.51014e-05
-2.72018e-06
1.51298e-05
-3.17073e-06
-4.15574e-06
1.52927e-05
1.30896e-05
-4.11954e-06
1.36051e-05
-4.95379e-06
1.37087e-05
-2.91143e-06
1.39043e-05
-1.35346e-06
1.41425e-05
-1.78323e-06
1.42557e-05
-1.60733e-06
1.43668e-05
-1.21024e-06
1.44605e-05
-1.58881e-06
1.45598e-05
-8.49915e-07
1.46251e-05
-1.04146e-06
1.47549e-05
-9.71285e-07
1.48001e-05
-8.67344e-07
1.48698e-05
-9.58836e-07
1.4934e-05
-1.04423e-06
1.49718e-05
-1.27082e-06
1.50014e-05
-1.5091e-06
1.50276e-05
-1.67205e-06
1.50228e-05
-2.71538e-06
1.49745e-05
-3.12244e-06
-4.27559e-06
1.50944e-05
1.31722e-05
-4.79178e-06
1.36873e-05
-5.46887e-06
1.37515e-05
-2.97565e-06
1.39933e-05
-1.5952e-06
1.42248e-05
-2.01475e-06
1.4321e-05
-1.70357e-06
1.44554e-05
-1.34464e-06
1.45306e-05
-1.66392e-06
1.46326e-05
-9.51922e-07
1.47013e-05
-1.11019e-06
1.4796e-05
-1.06596e-06
1.483e-05
-9.01399e-07
1.48707e-05
-9.99522e-07
1.48973e-05
-1.07079e-06
1.48874e-05
-1.26097e-06
1.48515e-05
-1.47321e-06
1.48076e-05
-1.62816e-06
1.46565e-05
-2.56422e-06
1.44697e-05
-2.93569e-06
-4.27379e-06
1.44679e-05
1.32734e-05
-5.56519e-06
1.37379e-05
-5.93338e-06
1.38094e-05
-3.04716e-06
1.41086e-05
-1.89441e-06
1.43124e-05
-2.21847e-06
1.44102e-05
-1.80143e-06
1.45408e-05
-1.47525e-06
1.45554e-05
-1.67847e-06
1.4632e-05
-1.02856e-06
1.46461e-05
-1.12423e-06
1.46469e-05
-1.06684e-06
1.46275e-05
-8.81965e-07
1.4586e-05
-9.57997e-07
1.45258e-05
-1.01065e-06
1.44292e-05
-1.16434e-06
1.4299e-05
-1.34306e-06
1.41559e-05
-1.48503e-06
1.38726e-05
-2.28089e-06
1.35305e-05
-2.59363e-06
-3.30514e-06
1.25619e-05
1.33795e-05
-6.4447e-06
1.37156e-05
-6.26944e-06
1.39126e-05
-3.24421e-06
1.42391e-05
-2.22089e-06
1.4357e-05
-2.33635e-06
1.43946e-05
-1.83903e-06
1.4415e-05
-1.49572e-06
1.42954e-05
-1.55882e-06
1.42637e-05
-9.96886e-07
1.41543e-05
-1.01484e-06
1.40324e-05
-9.44868e-07
1.39296e-05
-7.79179e-07
1.37956e-05
-8.2401e-07
1.36543e-05
-8.69353e-07
1.3485e-05
-9.95032e-07
1.32861e-05
-1.14421e-06
1.30672e-05
-1.26611e-06
1.27095e-05
-1.92323e-06
1.23196e-05
-2.20365e-06
-3.03183e-06
1.20462e-05
1.34991e-05
-7.4438e-06
1.37645e-05
-6.5348e-06
1.3978e-05
-3.45771e-06
1.41677e-05
-2.41062e-06
1.4053e-05
-2.22166e-06
1.38926e-05
-1.67864e-06
1.37085e-05
-1.31163e-06
1.34318e-05
-1.28206e-06
1.32707e-05
-8.35793e-07
1.30589e-05
-8.03086e-07
1.28599e-05
-7.45836e-07
1.27025e-05
-6.21809e-07
1.25189e-05
-6.40375e-07
1.23366e-05
-6.87029e-07
1.21317e-05
-7.90121e-07
1.18971e-05
-9.0966e-07
1.16379e-05
-1.0069e-06
1.12461e-05
-1.53143e-06
1.08001e-05
-1.75764e-06
-2.2705e-06
1.00388e-05
1.36028e-05
-8.54655e-06
1.36652e-05
-6.59725e-06
1.36085e-05
-3.401e-06
1.34208e-05
-2.22288e-06
1.2994e-05
-1.79491e-06
1.26201e-05
-1.30477e-06
1.22822e-05
-9.73739e-07
1.19259e-05
-9.2571e-07
1.16995e-05
-6.09454e-07
1.14523e-05
-5.55829e-07
1.12341e-05
-5.27676e-07
1.10587e-05
-4.46423e-07
1.08643e-05
-4.45971e-07
1.06726e-05
-4.9532e-07
1.04584e-05
-5.75865e-07
1.02133e-05
-6.64592e-07
9.9418e-06
-7.354e-07
9.53872e-06
-1.12835e-06
9.08461e-06
-1.30352e-06
-1.63391e-06
8.44802e-06
1.34203e-05
-9.46686e-06
1.28913e-05
-6.06823e-06
1.23148e-05
-2.82449e-06
1.173e-05
-1.63809e-06
1.11153e-05
-1.18021e-06
1.06533e-05
-8.42786e-07
1.02782e-05
-5.98639e-07
9.9276e-06
-5.75108e-07
9.69617e-06
-3.78027e-07
9.46495e-06
-3.24609e-07
9.26361e-06
-3.26334e-07
9.09625e-06
-2.79063e-07
8.91876e-06
-2.68476e-07
8.7386e-06
-3.15166e-07
8.53424e-06
-3.71501e-07
8.30066e-06
-4.31008e-07
8.03835e-06
-4.73098e-07
7.65305e-06
-7.43047e-07
7.20979e-06
-8.60262e-07
-1.08933e-06
6.66522e-06
1.24306e-05
-9.3975e-06
1.10056e-05
-4.64323e-06
9.97124e-06
-1.79009e-06
9.21119e-06
-8.7804e-07
8.60694e-06
-5.75962e-07
8.18258e-06
-4.18419e-07
7.86066e-06
-2.76724e-07
7.56904e-06
-2.83486e-07
7.37345e-06
-1.82442e-07
7.1922e-06
-1.43351e-07
7.0281e-06
-1.62234e-07
6.88813e-06
-1.391e-07
6.74626e-06
-1.26601e-07
6.59277e-06
-1.61677e-07
6.41541e-06
-1.94141e-07
6.21188e-06
-2.27485e-07
5.98161e-06
-2.42825e-07
5.63913e-06
-4.00566e-07
5.23773e-06
-4.58858e-07
-6.12526e-07
4.76092e-06
1.01138e-05
-7.01133e-06
7.83221e-06
-2.36162e-06
6.70199e-06
-6.59866e-07
6.06948e-06
-2.45534e-07
5.63972e-06
-1.46204e-07
5.33904e-06
-1.17731e-07
5.12787e-06
-6.55559e-08
4.92502e-06
-8.06373e-08
4.7931e-06
-5.05217e-08
4.68061e-06
-3.0867e-08
4.56615e-06
-4.77712e-08
4.46852e-06
-4.14682e-08
4.37474e-06
-3.28209e-08
4.26202e-06
-4.89529e-08
4.12956e-06
-6.169e-08
3.9754e-06
-7.33227e-08
3.80467e-06
-7.20896e-08
3.5361e-06
-1.32003e-07
3.22532e-06
-1.4808e-07
-2.33683e-07
2.84648e-06
5.48867e-06
3.12705e-06
2.46719e-06
2.22165e-06
2.07545e-06
1.95772e-06
1.89216e-06
1.81153e-06
1.761e-06
1.73014e-06
1.68237e-06
1.6409e-06
1.60808e-06
1.55912e-06
1.49743e-06
1.42411e-06
1.35202e-06
1.22002e-06
1.07194e-06
8.38257e-07
3.78009e-06
-3.15913e-07
-8.2488e-07
3.94194e-06
-1.6968e-06
1.53495e-06
4.03634e-06
-2.19012e-06
2.09572e-06
4.04982e-06
-2.16294e-06
2.14946e-06
4.34012e-06
-1.58766e-06
1.29736e-06
4.67182e-06
-3.71275e-07
3.95713e-08
5.13622e-06
3.20478e-07
-7.84874e-07
6.00217e-06
-8.18446e-07
-4.75027e-08
7.4018e-06
-6.09729e-08
-1.33866e-06
9.09705e-06
2.60638e-06
-4.30163e-06
1.0725e-05
3.55792e-06
-5.18592e-06
1.20091e-05
3.1304e-06
-4.41444e-06
1.27957e-05
2.53589e-06
-3.32253e-06
1.35256e-05
2.23362e-06
-2.9635e-06
1.4385e-05
8.97334e-07
-1.75678e-06
1.49503e-05
-1.17791e-06
6.12611e-07
1.4999e-05
-2.68063e-06
2.63196e-06
1.52078e-05
-5.09284e-06
4.88404e-06
1.5383e-05
-7.87326e-06
7.69804e-06
1.50882e-05
-9.24958e-06
9.54437e-06
1.48067e-05
-1.03728e-05
1.06543e-05
1.50805e-05
-1.20732e-05
1.17995e-05
1.58913e-05
-1.41728e-05
1.3362e-05
1.65732e-05
-1.65491e-05
1.58672e-05
1.65938e-05
-1.81095e-05
1.80889e-05
1.60886e-05
-1.8637e-05
1.91422e-05
1.55197e-05
-1.87118e-05
1.92807e-05
1.48573e-05
-1.82598e-05
1.89222e-05
1.42009e-05
-1.73984e-05
1.80548e-05
1.35764e-05
-1.63712e-05
1.69956e-05
1.29611e-05
-1.58972e-05
1.65126e-05
1.24161e-05
-1.45125e-05
1.50574e-05
1.18727e-05
-1.33393e-05
1.38827e-05
1.12774e-05
-1.22209e-05
1.28162e-05
1.07162e-05
-1.11554e-05
1.17166e-05
1.02761e-05
-9.98575e-06
1.04258e-05
9.67367e-06
-9.47131e-06
1.00737e-05
9.08622e-06
-9.76689e-06
1.03543e-05
8.61817e-06
-8.41926e-06
8.88732e-06
8.19535e-06
-6.85008e-06
7.27289e-06
7.8666e-06
-8.72807e-06
9.05682e-06
7.36332e-06
-1.11422e-05
1.16455e-05
6.94065e-06
-8.67213e-06
9.0948e-06
6.86056e-06
-1.88763e-06
1.96772e-06
7.07183e-06
4.14446e-06
-4.35572e-06
6.9941e-06
8.14841e-06
-8.07068e-06
6.89858e-06
1.29175e-05
-1.2822e-05
6.51366e-06
1.82165e-05
-1.78316e-05
6.19348e-06
2.72511e-05
-2.6931e-05
6.48714e-06
3.0765e-05
-3.10586e-05
6.5676e-06
2.97748e-05
-2.98553e-05
6.74261e-06
2.98653e-05
-3.00403e-05
7.10309e-06
2.73683e-05
-2.77288e-05
7.0197e-06
2.41436e-05
-2.40603e-05
7.34077e-06
1.9152e-05
-1.94731e-05
7.79805e-06
1.14727e-05
-1.193e-05
7.45741e-06
7.2448e-06
-6.90416e-06
7.22757e-06
4.6166e-06
-4.38676e-06
7.64729e-06
-5.28702e-07
1.08978e-07
7.96258e-06
-6.70172e-06
6.38644e-06
7.95793e-06
-1.33206e-05
1.33252e-05
7.82442e-06
-1.68278e-05
1.69613e-05
7.51629e-06
-1.57951e-05
1.61032e-05
7.04276e-06
-1.52598e-05
1.57333e-05
6.60797e-06
-1.64988e-05
1.69336e-05
6.15585e-06
-1.62852e-05
1.67373e-05
5.57242e-06
-1.36071e-05
1.41905e-05
4.87346e-06
-9.73454e-06
1.04335e-05
4.21101e-06
-7.58197e-06
8.24443e-06
3.65929e-06
-7.64306e-06
8.19478e-06
3.17899e-06
-9.65028e-06
1.01306e-05
2.77335e-06
-1.31695e-05
1.35751e-05
2.57599e-06
-1.80177e-05
1.8215e-05
2.54477e-06
-2.42482e-05
2.42794e-05
2.7926e-06
-3.06458e-05
3.0398e-05
3.40094e-06
-3.44291e-05
3.38208e-05
4.16279e-06
-3.37893e-05
3.30275e-05
4.71907e-06
-3.14578e-05
3.09015e-05
5.15737e-06
-2.95283e-05
2.909e-05
5.56595e-06
-2.6746e-05
2.63375e-05
5.94101e-06
-2.40849e-05
2.37099e-05
6.30909e-06
-2.1826e-05
2.14579e-05
6.66872e-06
-1.93232e-05
1.89636e-05
7.0959e-06
-1.65135e-05
1.60863e-05
7.65084e-06
-1.30914e-05
1.25365e-05
8.15831e-06
-9.54221e-06
9.03473e-06
8.56414e-06
-5.24134e-06
4.83551e-06
9.00409e-06
-5.46143e-07
1.06196e-07
9.47666e-06
3.01113e-06
-3.48369e-06
9.83869e-06
6.15299e-06
-6.51503e-06
9.99264e-06
9.54277e-06
-9.69671e-06
1.00063e-05
1.31546e-05
-1.31683e-05
9.99483e-06
1.68482e-05
-1.68367e-05
9.92147e-06
1.87846e-05
-1.87113e-05
9.90451e-06
1.73266e-05
-1.73097e-05
9.95246e-06
1.51045e-05
-1.51524e-05
1.0093e-05
1.61824e-05
-1.63229e-05
1.02038e-05
1.98354e-05
-1.99462e-05
1.03533e-05
2.32115e-05
-2.3361e-05
1.05349e-05
2.50287e-05
-2.52102e-05
1.07161e-05
2.55611e-05
-2.57423e-05
1.0668e-05
2.523e-05
-2.51819e-05
1.05702e-05
2.29698e-05
-2.2872e-05
1.03814e-05
2.06753e-05
-2.04865e-05
1.02776e-05
1.7973e-05
-1.78693e-05
1.01721e-05
1.59952e-05
-1.58896e-05
1.02804e-05
1.39747e-05
-1.4083e-05
1.04265e-05
1.38688e-05
-1.40149e-05
1.0476e-05
1.2842e-05
-1.28915e-05
1.03212e-05
1.25704e-05
-1.24156e-05
1.04269e-05
1.03257e-05
-1.04315e-05
1.02536e-05
1.0578e-05
-1.04047e-05
1.03524e-05
9.01699e-06
-9.11577e-06
1.01302e-05
9.33673e-06
-9.11454e-06
9.62577e-06
7.01751e-06
-6.51308e-06
8.98764e-06
7.40449e-06
-6.76637e-06
8.2159e-06
4.64393e-06
-3.87219e-06
7.838e-06
5.53728e-06
-5.15938e-06
7.91518e-06
5.06478e-06
-5.14196e-06
8.2784e-06
7.35531e-06
-7.71853e-06
8.66595e-06
7.47391e-06
-7.86146e-06
8.99432e-06
1.01859e-05
-1.05143e-05
9.20677e-06
1.01978e-05
-1.04102e-05
9.41179e-06
1.21872e-05
-1.23922e-05
9.41206e-06
9.82847e-06
-9.82874e-06
9.76651e-06
1.1264e-05
-1.16185e-05
9.98167e-06
9.43974e-06
-9.6549e-06
1.04989e-05
9.87765e-06
-1.03949e-05
1.08265e-05
7.54783e-06
-7.87544e-06
1.14494e-05
8.78597e-06
-9.40887e-06
1.17679e-05
6.83983e-06
-7.15829e-06
1.20508e-05
6.66393e-06
-6.94681e-06
1.18329e-05
2.75763e-06
-2.53981e-06
1.19169e-05
1.05091e-06
-1.13481e-06
1.18808e-05
-2.90084e-06
2.93685e-06
1.15389e-05
-3.8323e-06
4.17426e-06
1.12297e-05
-9.0902e-06
9.39942e-06
1.10644e-05
-9.18521e-06
9.35051e-06
1.0682e-05
-1.22449e-05
1.26273e-05
1.04366e-05
-1.17937e-05
1.2039e-05
1.00143e-05
-1.38192e-05
1.42415e-05
9.72248e-06
-1.42729e-05
1.45647e-05
9.31374e-06
-1.7581e-05
1.79898e-05
9.03576e-06
-1.40802e-05
1.43581e-05
9.16224e-06
-1.68765e-05
1.675e-05
8.90233e-06
-1.35011e-05
1.3761e-05
8.95781e-06
-1.31921e-05
1.31367e-05
8.65306e-06
-1.12384e-05
1.15431e-05
8.84687e-06
-1.37358e-05
1.3542e-05
9.05526e-06
-1.15519e-05
1.13435e-05
9.38216e-06
-1.01241e-05
9.79719e-06
9.34667e-06
-9.49535e-06
9.53084e-06
9.58301e-06
-9.14475e-06
8.90841e-06
9.70173e-06
-6.10633e-06
5.9876e-06
9.68106e-06
-3.77861e-06
3.79929e-06
9.61071e-06
-3.77132e-06
3.84167e-06
9.7022e-06
-4.8933e-06
4.80181e-06
9.79563e-06
-5.13917e-06
5.04573e-06
9.90389e-06
-5.38552e-06
5.27726e-06
1.00833e-05
-5.9758e-06
5.79639e-06
1.0334e-05
-6.23392e-06
5.98319e-06
1.05554e-05
-5.7719e-06
5.5505e-06
1.07547e-05
-5.05162e-06
4.85235e-06
1.10844e-05
-4.76504e-06
4.43532e-06
1.16038e-05
-4.79575e-06
4.27632e-06
1.23581e-05
-5.41865e-06
4.66442e-06
1.3215e-05
-6.28616e-06
5.4292e-06
1.39776e-05
-7.20382e-06
6.44125e-06
1.4542e-05
-7.32602e-06
6.7616e-06
1.49165e-05
-6.45273e-06
6.07819e-06
1.51739e-05
-5.06074e-06
4.80334e-06
1.52284e-05
-3.435e-06
3.38051e-06
1.5045e-05
-1.19949e-06
1.38293e-06
1.46532e-05
1.79746e-06
-1.40565e-06
1.40375e-05
4.80092e-06
-4.18523e-06
1.33232e-05
7.4176e-06
-6.70329e-06
1.25658e-05
1.03208e-05
-9.56345e-06
1.17344e-05
1.32882e-05
-1.24567e-05
1.09606e-05
1.55628e-05
-1.4789e-05
1.0142e-05
1.66816e-05
-1.5863e-05
9.37934e-06
1.64737e-05
-1.5711e-05
8.57001e-06
1.61252e-05
-1.53159e-05
7.80978e-06
1.57836e-05
-1.50234e-05
7.11598e-06
1.63015e-05
-1.56077e-05
6.18444e-06
1.73025e-05
-1.6371e-05
5.03873e-06
1.86193e-05
-1.74736e-05
4.22835e-06
1.88918e-05
-1.80814e-05
3.4782e-06
1.98791e-05
-1.9129e-05
3.55254e-06
1.7078e-05
-1.71524e-05
1.99673e-06
2.14546e-05
-1.98988e-05
1.50564e-06
1.35568e-05
-1.30657e-05
2.35919e-06
1.3713e-05
-1.45665e-05
3.99897e-06
6.8587e-06
-8.49848e-06
3.76122e-06
9.98943e-06
-9.75168e-06
4.73391e-06
4.76565e-06
-5.73834e-06
4.12519e-06
8.59184e-06
-7.98312e-06
4.63053e-06
4.33466e-06
-4.84e-06
2.41629e-06
8.60968e-06
-6.39544e-06
2.50258e-06
5.52505e-06
-5.61133e-06
1.13253e-05
-1.11535e-05
2.33077e-06
5.79076e-06
-9.65639e-07
5.97019e-06
-1.87623e-06
6.2351e-06
-2.45503e-06
6.30838e-06
-2.23621e-06
6.36346e-06
-1.64275e-06
6.88493e-06
-8.92746e-07
7.47485e-06
-2.69439e-07
7.44663e-06
-7.90229e-07
7.47924e-06
-9.35814e-08
8.59237e-06
1.49325e-06
1.0357e-05
1.7933e-06
1.15954e-05
1.89197e-06
1.24394e-05
1.69187e-06
1.33566e-05
1.31642e-06
1.40891e-05
1.64907e-07
1.44562e-05
-1.54503e-06
1.46002e-05
-2.8246e-06
1.48755e-05
-5.3682e-06
1.50506e-05
-8.04839e-06
1.50197e-05
-9.2186e-06
1.53656e-05
-1.07187e-05
1.60969e-05
-1.28045e-05
1.68519e-05
-1.49279e-05
1.71391e-05
-1.68363e-05
1.68326e-05
-1.7803e-05
1.62049e-05
-1.80093e-05
1.56136e-05
-1.81205e-05
1.49554e-05
-1.76016e-05
1.43083e-05
-1.67513e-05
1.37149e-05
-1.57778e-05
1.30969e-05
-1.52792e-05
1.25734e-05
-1.39889e-05
1.20483e-05
-1.28142e-05
1.14843e-05
-1.16569e-05
1.08697e-05
-1.05408e-05
1.04157e-05
-9.53181e-06
9.86522e-06
-8.92081e-06
9.22589e-06
-9.12756e-06
8.71613e-06
-7.90951e-06
8.28098e-06
-6.41493e-06
7.94097e-06
-8.38805e-06
7.37622e-06
-1.05775e-05
6.92421e-06
-8.22012e-06
6.95438e-06
-1.91781e-06
7.22612e-06
3.87271e-06
7.10191e-06
8.27262e-06
7.02401e-06
1.29954e-05
6.58019e-06
1.86604e-05
6.16839e-06
2.76629e-05
6.45282e-06
3.04805e-05
6.51626e-06
2.97114e-05
6.78971e-06
2.95919e-05
7.12688e-06
2.70312e-05
7.03985e-06
2.42307e-05
7.53069e-06
1.86611e-05
7.91749e-06
1.10859e-05
7.44798e-06
7.71431e-06
7.32731e-06
4.73727e-06
7.82097e-06
-1.02237e-06
8.15762e-06
-7.03837e-06
8.12673e-06
-1.32897e-05
8.00058e-06
-1.67017e-05
7.6887e-06
-1.54832e-05
7.19444e-06
-1.47655e-05
6.77505e-06
-1.60794e-05
6.34839e-06
-1.58585e-05
5.746e-06
-1.30047e-05
5.07269e-06
-9.06124e-06
4.40389e-06
-6.91317e-06
3.83803e-06
-7.0772e-06
3.35344e-06
-9.16569e-06
2.8917e-06
-1.27077e-05
2.59632e-06
-1.77223e-05
2.42019e-06
-2.4072e-05
2.44915e-06
-3.06748e-05
2.9186e-06
-3.48986e-05
3.64443e-06
-3.45152e-05
4.15501e-06
-3.19683e-05
4.53449e-06
-2.99078e-05
4.87808e-06
-2.70896e-05
5.17307e-06
-2.43799e-05
5.48659e-06
-2.21395e-05
5.83209e-06
-1.96687e-05
6.25868e-06
-1.69401e-05
6.84244e-06
-1.36752e-05
7.40082e-06
-1.01006e-05
7.88539e-06
-5.72591e-06
8.40574e-06
-1.0665e-06
8.90976e-06
2.50711e-06
9.22404e-06
5.8387e-06
9.32146e-06
9.44535e-06
9.31136e-06
1.31647e-05
9.31954e-06
1.684e-05
9.34039e-06
1.87638e-05
9.44138e-06
1.72256e-05
9.51411e-06
1.50318e-05
9.62216e-06
1.60744e-05
9.68602e-06
1.97716e-05
9.80945e-06
2.30881e-05
1.00021e-05
2.4836e-05
1.02282e-05
2.5335e-05
1.02552e-05
2.5203e-05
1.02132e-05
2.30119e-05
1.00782e-05
2.08102e-05
9.99093e-06