/*--------------------------------*- C++ -*----------------------------------*\
| =========                 |                                                 |
| \\      /  F ield         | OpenFOAM: The Open Source CFD Toolbox           |
|  \\    /   O peration     | Version:  2.4.0                                 |
|   \\  /    A nd           | Web:      www.OpenFOAM.org                      |
|    \\/     M anipulation  |                                                 |
\*---------------------------------------------------------------------------*/
FoamFile
{
    version     2.0;
    format      ascii;
    class       volScalarField;
    location    "0.033";
    object      p;
}
// * * * * * * * * * * * * * * * * * * * * * * * * * * * * * * * * * * * * * //

dimensions      [0 2 -2 0 0 0 0];

internalField   nonuniform List<scalar> 
17600
(
35.0073
34.2445
33.9655
33.7854
33.5946
33.4012
33.2121
33.0267
32.8444
32.6654
32.4899
32.3181
32.1501
31.986
31.826
31.6701
31.5187
31.3731
31.2345
31.1577
34.4599
34.0578
33.8797
33.7402
33.5705
33.3883
33.2052
33.0231
32.8427
32.6648
32.49
32.3187
32.151
31.9873
31.8274
31.6716
31.5203
31.3748
31.2358
31.1192
34.423
34.134
33.9336
33.7713
33.5895
33.4001
33.2126
33.0279
32.8461
32.6673
32.4921
32.3207
32.153
31.9893
31.8296
31.6739
31.5227
31.377
31.2367
31.1113
34.4
34.139
33.9267
33.7602
33.5808
33.3941
33.2088
33.0257
32.8449
32.6669
32.4922
32.3211
32.1536
31.99
31.8303
31.6746
31.5232
31.3773
31.2354
31.105
34.3676
34.1324
33.9229
33.7567
33.5794
33.3941
33.2093
33.0264
32.8458
32.6678
32.4931
32.322
32.1545
31.9909
31.8311
31.6753
31.5238
31.3774
31.234
31.1009
34.3344
34.1257
33.9214
33.7546
33.5782
33.3936
33.2092
33.0265
32.846
32.6682
32.4936
32.3225
32.1551
31.9914
31.8317
31.6758
31.5241
31.3774
31.2326
31.0979
34.3051
34.1198
33.9203
33.7527
33.577
33.3932
33.2092
33.0267
32.8464
32.6687
32.4942
32.3231
32.1557
31.992
31.8322
31.6763
31.5244
31.3773
31.2313
31.0959
34.2793
34.1137
33.9191
33.7508
33.5758
33.3928
33.2092
33.027
32.8469
32.6692
32.4948
32.3237
32.1563
31.9926
31.8327
31.6767
31.5247
31.3772
31.2303
31.0944
34.2563
34.1074
33.9177
33.749
33.5748
33.3926
33.2093
33.0273
32.8473
32.6698
32.4954
32.3244
32.1569
31.9932
31.8333
31.6772
31.5249
31.3771
31.2294
31.0935
34.236
34.1011
33.9162
33.7475
33.5739
33.3923
33.2094
33.0277
32.8478
32.6703
32.496
32.325
32.1575
31.9938
31.8338
31.6776
31.5252
31.377
31.2287
31.0928
34.2181
34.095
33.9148
33.746
33.573
33.3921
33.2095
33.028
32.8482
32.6708
32.4965
32.3255
32.1581
31.9943
31.8343
31.678
31.5254
31.3769
31.2281
31.0924
34.2024
34.0893
33.9133
33.7447
33.5722
33.3919
33.2096
33.0282
32.8486
32.6713
32.497
32.3261
32.1586
31.9948
31.8347
31.6783
31.5255
31.3768
31.2276
31.0921
34.1888
34.084
33.912
33.7435
33.5714
33.3917
33.2097
33.0285
32.849
32.6717
32.4975
32.3265
32.1591
31.9952
31.8351
31.6786
31.5257
31.3767
31.2271
31.0919
34.1771
34.0792
33.9107
33.7425
33.5708
33.3915
33.2098
33.0287
32.8493
32.6721
32.4979
32.327
32.1595
31.9956
31.8354
31.6788
31.5258
31.3766
31.2267
31.0917
34.1673
34.075
33.9095
33.7416
33.5702
33.3913
33.2098
33.0289
32.8495
32.6724
32.4982
32.3273
32.1598
31.9959
31.8357
31.679
31.5258
31.3764
31.2264
31.0916
34.1593
34.0715
33.9086
33.7408
33.5698
33.3912
33.2099
33.029
32.8497
32.6727
32.4985
32.3276
32.1601
31.9962
31.8359
31.6791
31.5258
31.3762
31.226
31.0914
34.1529
34.0686
33.9077
33.7402
33.5694
33.3911
33.2099
33.0291
32.8499
32.6729
32.4988
32.3278
32.1603
31.9964
31.836
31.6792
31.5257
31.3759
31.2256
31.0912
34.1482
34.0664
33.9071
33.7398
33.5691
33.391
33.2099
33.0292
32.85
32.673
32.4989
32.328
32.1605
31.9965
31.8361
31.6792
31.5256
31.3756
31.2253
31.091
34.1451
34.0649
33.9067
33.7395
33.5689
33.3909
33.2099
33.0293
32.8501
32.6731
32.499
32.3281
32.1606
31.9966
31.8362
31.6792
31.5254
31.3753
31.2249
31.0907
34.1435
34.0642
33.9065
33.7393
33.5688
33.3909
33.21
33.0293
32.8502
32.6732
32.4991
32.3281
32.1606
31.9966
31.8361
31.679
31.5252
31.3749
31.2244
31.0904
34.1435
34.0642
33.9065
33.7393
33.5688
33.3909
33.21
33.0293
32.8502
32.6732
32.4991
32.3281
32.1606
31.9965
31.836
31.6789
31.5249
31.3744
31.224
31.0899
34.1451
34.0649
33.9067
33.7395
33.5689
33.3909
33.2099
33.0293
32.8501
32.6731
32.499
32.328
32.1605
31.9964
31.8358
31.6786
31.5245
31.3739
31.2235
31.0893
34.1482
34.0664
33.9071
33.7398
33.5691
33.391
33.2099
33.0292
32.85
32.673
32.4989
32.3279
32.1603
31.9962
31.8356
31.6783
31.5241
31.3734
31.2229
31.0886
34.1529
34.0686
33.9077
33.7402
33.5694
33.3911
33.2099
33.0291
32.8499
32.6728
32.4987
32.3277
32.1601
31.996
31.8353
31.678
31.5237
31.3728
31.2223
31.0877
34.1593
34.0715
33.9086
33.7408
33.5698
33.3912
33.2099
33.029
32.8497
32.6726
32.4984
32.3274
32.1598
31.9957
31.835
31.6776
31.5232
31.3721
31.2216
31.0867
34.1673
34.075
33.9095
33.7416
33.5702
33.3913
33.2098
33.0288
32.8495
32.6724
32.4981
32.3271
32.1595
31.9953
31.8346
31.6771
31.5227
31.3714
31.2209
31.0854
34.1771
34.0792
33.9107
33.7425
33.5708
33.3915
33.2098
33.0287
32.8492
32.672
32.4978
32.3267
32.1591
31.9949
31.8341
31.6766
31.5221
31.3707
31.2201
31.0839
34.1888
34.084
33.912
33.7435
33.5714
33.3916
33.2097
33.0285
32.8489
32.6717
32.4974
32.3263
32.1586
31.9944
31.8336
31.6761
31.5214
31.3698
31.2192
31.0822
34.2024
34.0893
33.9133
33.7447
33.5722
33.3918
33.2096
33.0282
32.8486
32.6712
32.4969
32.3258
32.1581
31.9939
31.8331
31.6755
31.5207
31.369
31.2183
31.0801
34.218
34.095
33.9147
33.746
33.573
33.3921
33.2095
33.0279
32.8482
32.6708
32.4963
32.3252
32.1575
31.9933
31.8324
31.6748
31.52
31.3681
31.2173
31.0778
34.236
34.1011
33.9162
33.7475
33.5738
33.3923
33.2094
33.0276
32.8477
32.6702
32.4958
32.3246
32.1569
31.9926
31.8318
31.6741
31.5193
31.3672
31.2162
31.0751
34.2563
34.1074
33.9177
33.749
33.5748
33.3926
33.2093
33.0273
32.8473
32.6697
32.4952
32.324
32.1562
31.992
31.8311
31.6734
31.5185
31.3662
31.2151
31.072
34.2792
34.1137
33.9191
33.7508
33.5758
33.3928
33.2092
33.027
32.8468
32.6691
32.4945
32.3233
32.1555
31.9913
31.8305
31.6728
31.5178
31.3653
31.214
31.0685
34.3051
34.1198
33.9203
33.7527
33.577
33.3932
33.2091
33.0267
32.8464
32.6686
32.4939
32.3227
32.1549
31.9907
31.8298
31.6721
31.517
31.3644
31.2128
31.0646
34.3344
34.1257
33.9213
33.7546
33.5781
33.3936
33.2091
33.0265
32.846
32.6681
32.4934
32.3221
32.1543
31.99
31.8291
31.6714
31.5163
31.3635
31.2116
31.0602
34.3676
34.1324
33.9229
33.7567
33.5794
33.3941
33.2093
33.0264
32.8457
32.6677
32.4929
32.3215
32.1537
31.9894
31.8285
31.6707
31.5156
31.3626
31.2104
31.0553
34.4
34.139
33.9267
33.7602
33.5808
33.3941
33.2088
33.0256
32.8448
32.6668
32.492
32.3206
32.1528
31.9885
31.8276
31.6699
31.5147
31.3616
31.209
31.0501
34.4229
34.134
33.9336
33.7713
33.5895
33.4001
33.2126
33.0279
32.846
32.6672
32.4919
32.3202
32.1522
31.9878
31.8268
31.6691
31.5138
31.3606
31.2077
31.0454
34.4599
34.0578
33.8797
33.7402
33.5705
33.3883
33.2052
33.0231
32.8426
32.6646
32.4897
32.3182
32.1501
31.9857
31.8246
31.6667
31.5113
31.3579
31.2047
31.0407
35.0073
34.2445
33.9655
33.7854
33.5946
33.4012
33.2121
33.0267
32.8444
32.6652
32.4896
32.3176
32.1492
31.9845
31.8232
31.6651
31.5096
31.3561
31.2029
31.0386
30.8389
30.937
30.7976
30.7058
30.6574
30.6147
30.572
30.5287
30.4829
30.434
30.3817
30.3268
30.2701
30.2129
30.1566
30.1027
30.0521
30.0057
29.9649
29.9304
29.9028
29.8825
29.8699
29.8649
29.8675
29.8773
29.8937
29.9161
29.9435
29.9749
30.0091
30.045
30.0812
30.1164
30.1493
30.1784
30.2026
30.2206
30.2314
30.234
30.2276
30.2113
30.1848
30.1474
30.0989
30.0391
29.9679
29.8854
29.7917
29.6873
29.5723
29.4474
29.3133
29.1705
29.0197
28.8614
28.6967
28.5269
28.3532
28.1766
27.9983
27.8198
27.6425
27.468
27.2978
27.134
26.9794
26.8362
26.7064
26.5918
26.4943
26.4156
26.3575
26.3215
26.3093
26.3223
26.3621
26.43
26.5274
26.6555
26.8153
27.0079
27.234
27.4944
27.7895
28.1195
28.4845
28.8844
29.3188
29.7871
30.2884
30.8216
31.3854
31.9782
32.5981
33.2432
33.9112
34.5997
35.306
36.0274
36.7611
37.504
38.2531
39.0053
39.7575
40.5067
41.2499
41.9842
42.7068
43.4151
44.1068
44.7797
45.4317
46.0613
46.667
47.2475
47.8021
48.33
48.8308
49.3045
49.751
50.1706
50.5638
50.9311
51.2733
51.5912
51.8857
52.1578
52.4086
52.6392
52.8506
53.0441
53.2207
53.3816
53.528
53.6608
53.7812
53.8903
53.9889
54.0781
54.1589
54.232
54.2984
54.3588
54.4139
54.4645
54.5113
54.5548
54.5956
54.6343
54.6713
54.707
54.7419
54.7764
54.8107
54.8452
54.8799
54.915
54.9503
54.9859
55.0218
55.0579
55.0943
55.1308
55.167
55.2028
55.2377
55.2711
55.3025
55.3312
55.3564
55.3771
55.3923
55.4007
55.401
55.3916
55.3707
55.3364
55.2865
55.2183
55.1289
55.0149
54.8724
54.6965
54.4816
54.2208
53.9056
53.5252
53.0654
52.5079
51.8274
50.9883
49.9395
48.6004
46.8564
44.4674
41.2081
35.8849
28.8589
4.33089
30.8342
30.7969
30.7304
30.7004
30.6921
30.6748
30.6446
30.6046
30.5569
30.5032
30.4453
30.3853
30.3246
30.2647
30.2072
30.1531
30.103
30.0576
30.0178
29.9843
29.9577
29.9383
29.9264
29.9221
29.9251
29.9353
29.9521
29.9747
30.0023
30.0338
30.0681
30.104
30.1402
30.1754
30.2082
30.2372
30.2613
30.2792
30.2899
30.2923
30.2855
30.269
30.2419
30.204
30.1549
30.0943
30.0222
29.9386
29.8438
29.738
29.6216
29.4951
29.3591
29.2145
29.0619
28.9019
28.7355
28.5637
28.3879
28.2092
28.0287
27.848
27.6686
27.4919
27.3196
27.1543
26.9984
26.8539
26.7228
26.6069
26.5082
26.4285
26.3695
26.3328
26.3199
26.3325
26.372
26.4398
26.5372
26.6654
26.8255
27.0185
27.2451
27.506
27.8017
28.1324
28.4981
28.8988
29.3339
29.8028
30.3048
30.8385
31.4028
31.9959
32.616
33.2611
33.929
34.617
35.3227
36.0433
36.7758
37.5172
38.2645
39.0146
39.7644
40.5108
41.2509
41.9818
42.7007
43.4051
44.0926
44.761
45.4085
46.0334
46.6342
47.21
47.7597
48.2829
48.7792
49.2484
49.6906
50.1061
50.4955
50.8592
51.1981
51.5129
51.8045
52.0741
52.3226
52.5511
52.7606
52.9525
53.1276
53.2872
53.4324
53.5642
53.6838
53.792
53.8899
53.9785
54.0587
54.1313
54.1972
54.2571
54.3118
54.3619
54.4082
54.4512
54.4914
54.5295
54.5658
54.6007
54.6348
54.6683
54.7016
54.7349
54.7684
54.8019
54.8355
54.8691
54.9028
54.9366
54.9704
55.004
55.0371
55.0694
55.1004
55.1297
55.1566
55.1803
55.2
55.2146
55.2231
55.2241
55.2162
55.1978
55.167
55.1216
55.0593
54.9772
54.8724
54.741
54.5787
54.3804
54.1398
53.8494
53.4997
53.0784
52.57
51.9536
51.2005
50.2701
49.1039
47.6091
45.6505
42.9494
39.2018
33.0405
24.3414
1.28948
30.8815
30.8328
30.7889
30.7525
30.726
30.697
30.6624
30.6234
30.5805
30.5336
30.4831
30.4295
30.3734
30.3161
30.2596
30.2052
30.1543
30.1079
30.0671
30.0331
30.0064
29.9873
29.9758
29.9718
29.9753
29.9858
30.0027
30.0253
30.0527
30.084
30.1181
30.1538
30.1897
30.2247
30.2573
30.2862
30.3102
30.3281
30.3387
30.3411
30.3344
30.3178
30.2907
30.2527
30.2034
30.1425
30.0701
29.986
29.8906
29.7841
29.6668
29.5394
29.4023
29.2564
29.1024
28.9413
28.7737
28.6006
28.4233
28.2429
28.0608
27.8784
27.6973
27.5189
27.3453
27.1789
27.0219
26.8763
26.7442
26.6275
26.528
26.4476
26.388
26.3509
26.3378
26.3503
26.3898
26.4577
26.5554
26.684
26.8446
27.0382
27.2655
27.5272
27.8237
28.1553
28.5219
28.9234
29.3593
29.8291
30.3317
30.866
31.4307
32.0242
32.6444
33.2895
33.957
34.6445
35.3494
36.0688
36.7999
37.5396
38.2848
39.0324
39.7794
40.5227
41.2593
41.9864
42.7012
43.4012
44.0841
44.7477
45.3902
46.0101
46.6058
47.1764
47.7211
48.2393
48.7307
49.1952
49.6329
50.0442
50.4295
50.7895
51.1249
51.4364
51.7252
51.992
52.2381
52.4643
52.6719
52.8619
53.0355
53.1936
53.3375
53.4682
53.5867
53.694
53.7911
53.879
53.9585
54.0305
54.0957
54.1551
54.2092
54.2588
54.3045
54.3469
54.3865
54.4239
54.4594
54.4936
54.5267
54.5592
54.5914
54.6235
54.6556
54.6876
54.7194
54.7511
54.7826
54.814
54.8451
54.8758
54.9058
54.9346
54.9619
54.987
55.0094
55.0281
55.0423
55.0509
55.0528
55.0465
55.0305
55.0031
54.9623
54.9058
54.8311
54.7353
54.6149
54.466
54.2839
54.063
53.7967
53.4764
53.0919
52.6299
52.073
51.3979
50.5731
49.5533
48.2732
46.63
44.472
41.4959
37.3462
30.6907
21.193
2.32728
30.8982
30.8335
30.7858
30.7451
30.7141
30.6851
30.6528
30.6164
30.5759
30.5317
30.4841
30.4344
30.3837
30.3332
30.2837
30.236
30.1909
30.1493
30.112
30.08
30.0541
30.0347
30.0223
30.0172
30.0193
30.0286
30.0445
30.0662
30.0929
30.1236
30.1572
30.1924
30.228
30.2626
30.2949
30.3236
30.3476
30.3654
30.3762
30.3788
30.3723
30.3561
30.3294
30.2918
30.2428
30.1823
30.1101
30.0263
29.931
29.8244
29.707
29.5793
29.4418
29.2954
29.1408
28.9791
28.8109
28.6371
28.4588
28.2773
28.0941
27.9105
27.7283
27.549
27.3745
27.2074
27.0497
26.9034
26.7706
26.6533
26.5534
26.4727
26.4129
26.3757
26.3627
26.3753
26.4151
26.4835
26.5818
26.711
26.8724
27.0669
27.2951
27.5578
27.8553
28.1878
28.5555
28.9579
29.3948
29.8654
30.3688
30.9038
31.4689
32.0626
32.683
33.3279
33.995
34.6819
35.3857
36.1039
36.8332
37.5709
38.3137
39.0586
39.8025
40.5423
41.275
41.9979
42.7082
43.4035
44.0814
44.7398
45.377
45.9914
46.5818
47.1469
47.6863
48.1992
48.6855
49.1451
49.5781
49.985
50.3661
50.7222
51.0539
51.3621
51.6478
51.9118
52.1552
52.3791
52.5846
52.7726
52.9444
53.101
53.2435
53.3729
53.4902
53.5965
53.6927
53.7797
53.8584
53.9296
53.9942
54.0529
54.1064
54.1554
54.2004
54.2421
54.2811
54.3176
54.3524
54.3857
54.4179
54.4494
54.4804
54.5113
54.542
54.5724
54.6023
54.632
54.6613
54.6903
54.7187
54.7465
54.7733
54.7987
54.8223
54.8433
54.8611
54.8749
54.8837
54.8864
54.8817
54.8681
54.8441
54.8078
54.7571
54.6896
54.6026
54.493
54.3571
54.1907
53.9888
53.7454
53.4533
53.1033
52.6842
52.1816
51.5766
50.844
49.9491
48.8429
47.4546
45.6735
43.3362
40.1292
35.6695
28.7719
18.8356
2.27381
30.912
30.8417
30.7955
30.7573
30.725
30.6939
30.6598
30.6219
30.5804
30.5357
30.4885
30.4394
30.3896
30.34
30.2914
30.2448
30.2013
30.1622
30.1284
30.1003
30.0782
30.0623
30.053
30.0503
30.054
30.064
30.0797
30.1005
30.1258
30.1549
30.1867
30.2203
30.2545
30.288
30.3196
30.3479
30.3716
30.3896
30.4006
30.4036
30.3978
30.3823
30.3564
30.3197
30.2717
30.2122
30.141
30.058
29.9635
29.8577
29.7409
29.6137
29.4768
29.3308
29.1766
29.0149
28.8466
28.6726
28.4939
28.312
28.1282
27.9442
27.7616
27.5819
27.4073
27.2399
27.0818
26.9353
26.8023
26.6849
26.5849
26.5043
26.4447
26.4078
26.3951
26.4083
26.4487
26.5178
26.6169
26.7471
26.9095
27.105
27.3343
27.5982
27.8968
28.2306
28.5993
29.0029
29.4408
29.9122
30.4164
30.952
31.5176
32.1116
32.7319
33.3765
34.0431
34.7291
35.4318
36.1483
36.8758
37.6111
38.3513
39.0931
39.8334
40.5694
41.2979
42.0162
42.7217
43.4118
44.0844
44.7373
45.3688
45.9775
46.5621
47.1215
47.6552
48.1627
48.6437
49.0982
49.5264
49.9286
50.3054
50.6575
50.9854
51.2901
51.5725
51.8335
52.0742
52.2956
52.4988
52.6847
52.8546
53.0095
53.1504
53.2784
53.3945
53.4996
53.5947
53.6807
53.7585
53.829
53.8928
53.9507
54.0035
54.0518
54.0961
54.1371
54.1753
54.2111
54.2449
54.2773
54.3085
54.3389
54.3688
54.3985
54.4277
54.4564
54.4845
54.5121
54.5392
54.5657
54.5916
54.6165
54.6401
54.6621
54.6819
54.6989
54.7122
54.7212
54.7246
54.7214
54.7102
54.6895
54.6575
54.6124
54.5519
54.4735
54.3743
54.251
54.0998
53.9161
53.6945
53.4288
53.111
52.7315
52.2782
51.7357
51.0835
50.2948
49.3324
48.144
46.6546
44.7483
42.2549
38.8623
34.1763
27.1845
17.0836
1.93205
30.9211
30.848
30.8016
30.7633
30.7283
30.6943
30.6587
30.6204
30.5793
30.5356
30.4898
30.4425
30.3946
30.3469
30.3002
30.2554
30.2137
30.176
30.1429
30.115
30.0927
30.0765
30.0669
30.064
30.0677
30.0778
30.0939
30.1152
30.141
30.1705
30.2026
30.2361
30.2699
30.3027
30.3334
30.3607
30.3836
30.401
30.4118
30.4151
30.4099
30.3953
30.3708
30.3356
30.2892
30.2314
30.1618
30.0806
29.9878
29.8836
29.7684
29.6428
29.5072
29.3622
29.2088
29.0478
28.8801
28.7064
28.5281
28.3464
28.1629
27.9791
27.7967
27.6175
27.4433
27.2761
27.1182
26.9718
26.839
26.7219
26.6224
26.5422
26.4831
26.4468
26.4349
26.4489
26.4902
26.5604
26.6605
26.7919
26.9555
27.1523
27.383
27.6481
27.9481
28.2832
28.6532
29.0579
29.4968
29.9693
30.4742
31.0105
31.5765
32.1706
32.7909
33.4352
34.1011
34.786
35.4873
36.2021
36.9274
37.6602
38.3973
39.1357
39.8722
40.6039
41.3279
42.0413
42.7415
43.4261
44.093
44.74
45.3656
45.9682
46.5467
47.1003
47.6281
48.1299
48.6054
49.0546
49.4778
49.8753
50.2476
50.5954
50.9194
51.2205
51.4995
51.7574
51.9951
52.2139
52.4146
52.5983
52.7662
52.9192
53.0584
53.1849
53.2995
53.4033
53.4973
53.5822
53.6591
53.7286
53.7915
53.8487
53.9007
53.9482
53.9918
54.032
54.0693
54.1043
54.1373
54.1687
54.1989
54.2282
54.2569
54.2852
54.313
54.34
54.3662
54.3917
54.4166
54.4407
54.4638
54.4858
54.5064
54.525
54.5411
54.554
54.563
54.5671
54.5653
54.5563
54.5387
54.511
54.4712
54.4175
54.3473
54.2582
54.147
54.0102
53.8438
53.6429
53.402
53.1141
52.771
52.3625
51.8756
51.294
50.5961
49.7532
48.7264
47.461
45.8788
43.8616
41.2365
37.7019
32.8658
25.8835
15.8836
1.98862
30.9278
30.8539
30.8076
30.7694
30.733
30.6975
30.6611
30.6226
30.5817
30.5387
30.4938
30.4476
30.4011
30.3548
30.3097
30.2665
30.2262
30.1897
30.1576
30.1304
30.1086
30.0925
30.0826
30.0788
30.0811
30.0893
30.1029
30.1215
30.1446
30.1714
30.2012
30.2329
30.2655
30.2978
30.3285
30.3563
30.3801
30.3985
30.4103
30.4147
30.4106
30.3973
30.3741
30.3404
30.2958
30.24
30.1726
30.0936
30.0031
29.9011
29.7882
29.6646
29.531
29.3879
29.2362
29.0767
28.9103
28.7379
28.5608
28.3802
28.1977
28.0148
27.8333
27.6552
27.4822
27.3159
27.1587
27.0131
26.881
26.7647
26.666
26.5867
26.5285
26.4932
26.4823
26.4975
26.54
26.6115
26.713
26.8457
27.0108
27.2091
27.4413
27.7079
28.0094
28.3458
28.7172
29.1232
29.5633
30.0368
30.5425
31.0794
31.6458
32.24
32.8601
33.5039
34.169
34.8527
35.5524
36.2652
36.988
37.7179
38.4517
39.1863
39.9187
40.6458
41.3648
42.0729
42.7676
43.4463
44.1071
44.7479
45.3672
45.9635
46.5358
47.0831
47.6049
48.1008
48.5706
49.0143
49.4323
49.8249
50.1926
50.536
50.856
51.1532
51.4286
51.6833
51.918
52.1339
52.3321
52.5135
52.6791
52.8302
52.9676
53.0923
53.2055
53.3079
53.4006
53.4844
53.5601
53.6287
53.6907
53.747
53.7981
53.8448
53.8876
53.927
53.9635
53.9976
54.0296
54.06
54.0892
54.1173
54.1448
54.1718
54.1981
54.2233
54.2476
54.2711
54.2937
54.3153
54.3358
54.355
54.3724
54.3876
54.4001
54.4091
54.4137
54.4131
54.4061
54.3915
54.3676
54.333
54.2856
54.2234
54.1438
54.0441
53.9211
53.7711
53.5898
53.3721
53.1121
52.8025
52.4347
51.9977
51.4781
50.8586
50.1165
49.222
48.1346
46.7979
45.1323
43.0191
40.2869
36.6509
31.733
24.8406
15.1295
2.3967
30.9329
30.8593
30.8131
30.7748
30.7373
30.7004
30.6631
30.6242
30.5835
30.541
30.497
30.452
30.4068
30.362
30.3184
30.2768
30.2379
30.2026
30.1714
30.1449
30.1235
30.1076
30.0974
30.093
30.0943
30.1011
30.1129
30.1294
30.15
30.174
30.2006
30.229
30.258
30.2868
30.3143
30.3394
30.3612
30.3786
30.3905
30.3959
30.3937
30.3827
30.3622
30.3313
30.2895
30.2363
30.1716
30.0953
30.0076
29.9085
29.7984
29.6778
29.547
29.4067
29.2576
29.1006
28.9365
28.7663
28.5913
28.4127
28.232
28.0509
27.8711
27.6948
27.5237
27.3593
27.2035
27.0591
26.9283
26.8132
26.7158
26.6378
26.581
26.5471
26.5377
26.5543
26.5984
26.6713
26.7745
26.9089
27.0757
27.2756
27.5095
27.7778
28.0809
28.4189
28.7917
29.1991
29.6403
30.1148
30.6214
31.1588
31.7256
32.3198
32.9397
33.5828
34.2468
34.9291
35.627
36.3374
37.0575
37.7842
38.5144
39.2449
39.9727
40.6949
41.4086
42.111
42.7996
43.4722
44.1266
44.7609
45.3736
45.9634
46.5291
47.07
47.5855
48.0753
48.5393
48.9774
49.3901
49.7776
50.1405
50.4794
50.7951
51.0883
51.3601
51.6113
51.8428
52.0558
52.2513
52.4301
52.5935
52.7425
52.8779
53.0009
53.1124
53.2134
53.3047
53.3873
53.4619
53.5294
53.5904
53.6458
53.696
53.7419
53.7838
53.8223
53.858
53.8912
53.9223
53.9517
53.9797
54.0068
54.033
54.0586
54.0833
54.1068
54.1292
54.1505
54.1708
54.19
54.2079
54.2242
54.2385
54.2504
54.2593
54.2643
54.2648
54.2595
54.2475
54.2273
54.1973
54.1559
54.1011
54.0306
53.9418
53.8318
53.6973
53.5344
53.3385
53.1044
52.8258
52.4951
52.1031
51.6386
51.0874
50.4313
49.6471
48.7039
47.5601
46.1585
44.419
42.225
39.4097
35.7087
30.7676
24.025
14.7098
3.01371
30.937
30.8642
30.8181
30.7797
30.7415
30.7036
30.6656
30.6265
30.586
30.544
30.5008
30.457
30.413
30.3695
30.3272
30.2869
30.2493
30.215
30.1847
30.1589
30.1378
30.1219
30.1114
30.1064
30.1066
30.112
30.1222
30.1367
30.1551
30.1766
30.2005
30.2259
30.2519
30.2775
30.3017
30.3235
30.342
30.3563
30.3654
30.3685
30.3647
30.3534
30.3336
30.3047
30.2658
30.2164
30.1559
30.084
30.0004
29.9053
29.7991
29.6821
29.5549
29.4182
29.2726
29.119
28.9582
28.7912
28.6192
28.4435
28.2656
28.0871
27.9099
27.7359
27.5674
27.4057
27.2523
27.1098
26.9809
26.8676
26.7719
26.6958
26.6408
26.6086
26.601
26.6194
26.6654
26.7403
26.8453
26.9816
27.1503
27.3521
27.5878
27.858
28.1628
28.5024
28.8768
29.2855
29.728
30.2035
30.7109
31.2489
31.8158
32.41
33.0294
33.6717
34.3345
35.0151
35.7109
36.4187
37.1358
37.8589
38.5851
39.3111
40.034
40.7509
41.4588
42.1552
42.8375
43.5035
44.1512
44.7787
45.3846
45.9675
46.5265
47.0608
47.5699
48.0534
48.5114
48.9437
49.3509
49.7331
50.0911
50.4253
50.7366
51.0258
51.2938
51.5414
51.7697
51.9796
52.1722
52.3485
52.5095
52.6562
52.7896
52.9107
53.0206
53.12
53.2099
53.2911
53.3645
53.4309
53.4909
53.5453
53.5947
53.6396
53.6807
53.7184
53.7532
53.7854
53.8156
53.844
53.871
53.8968
53.9219
53.9461
53.9691
53.9908
54.0112
54.0304
54.0485
54.0652
54.0804
54.0939
54.1052
54.1138
54.1191
54.1203
54.1166
54.1068
54.0898
54.0641
54.0282
53.9803
53.9182
53.8396
53.7418
53.6219
53.4762
53.3007
53.0906
52.8406
52.5439
52.1927
51.7775
51.2864
50.7048
50.014
49.19
48.2012
47.0055
45.5457
43.7424
41.4824
38.6062
34.8724
29.9558
23.4051
14.5418
3.76957
30.9404
30.8686
30.8227
30.7842
30.7454
30.7068
30.6683
30.6291
30.5887
30.5472
30.5048
30.4619
30.419
30.3767
30.3358
30.2967
30.2602
30.2269
30.1974
30.1721
30.1513
30.1355
30.1246
30.1189
30.1182
30.1223
30.1309
30.1435
30.1597
30.1788
30.2001
30.2227
30.2458
30.2684
30.2896
30.3086
30.3243
30.3358
30.3423
30.3429
30.3369
30.3236
30.3022
30.2722
30.2332
30.1846
30.1262
30.0576
29.9784
29.8885
29.7876
29.676
29.554
29.4221
29.2811
29.1317
28.9751
28.8121
28.644
28.4722
28.298
28.1231
27.9493
27.7786
27.6131
27.4548
27.3048
27.1652
27.0387
26.9278
26.8345
26.7606
26.7079
26.678
26.6725
26.6932
26.7413
26.8183
26.9255
27.064
27.2347
27.4387
27.6764
27.9485
28.2552
28.5966
28.9725
29.3827
29.8264
30.3029
30.811
31.3494
31.9165
32.5104
33.1292
33.7705
34.4318
35.1105
35.8038
36.5088
37.2224
37.9417
38.6634
39.3846
40.1022
40.8133
41.5152
42.2052
42.8809
43.54
44.1807
44.8012
45.3999
45.9758
46.5279
47.0554
47.5578
48.0349
48.4866
48.9131
49.3146
49.6915
50.0443
50.3738
50.6806
50.9656
51.2297
51.4736
51.6985
51.9053
52.095
52.2685
52.427
52.5714
52.7027
52.8219
52.93
53.0278
53.1162
53.1961
53.2683
53.3335
53.3925
53.4459
53.4944
53.5385
53.5787
53.6155
53.6495
53.6808
53.7101
53.7374
53.7633
53.788
53.8118
53.8346
53.856
53.8758
53.8943
53.9114
53.9271
53.9414
53.954
53.9646
53.9729
53.9782
53.98
53.9775
53.9696
53.9554
53.9335
53.9026
53.8608
53.8065
53.7373
53.6509
53.5444
53.4148
53.2582
53.0706
52.8469
52.5814
52.2674
51.8965
51.4589
50.9424
50.3319
49.6082
48.7469
47.7161
46.4734
44.9622
43.1049
40.793
37.8764
34.137
29.2827
22.9523
14.5655
4.62411
30.9434
30.8725
30.827
30.7884
30.7493
30.7101
30.6712
30.6318
30.5917
30.5506
30.5089
30.4669
30.425
30.3839
30.344
30.3061
30.2706
30.2382
30.2094
30.1846
30.1641
30.1482
30.1371
30.1307
30.129
30.1319
30.139
30.1498
30.1639
30.1807
30.1995
30.2195
30.2398
30.2597
30.2781
30.2943
30.3073
30.3162
30.3203
30.3187
30.3107
30.2956
30.2727
30.2416
30.2018
30.1528
30.0944
30.0264
29.9487
29.8613
29.7642
29.6574
29.5411
29.4153
29.2805
29.1372
28.9863
28.8287
28.6656
28.4986
28.329
28.1585
27.989
27.8224
27.6608
27.5062
27.3605
27.2249
27.1016
26.9938
26.9034
26.8323
26.7823
26.755
26.7522
26.7754
26.826
26.9055
27.0151
27.156
27.3291
27.5353
27.7752
28.0494
28.358
28.7012
29.0788
29.4904
29.9353
30.4127
30.9215
31.4602
32.0273
32.6208
33.2387
33.8787
34.5383
35.2148
35.9053
36.6071
37.317
38.0319
38.7489
39.4648
40.1768
40.8818
41.5773
42.2605
42.9292
43.5812
44.2146
44.8278
45.4193
45.9879
46.5328
47.0533
47.5489
48.0194
48.4648
48.8853
49.281
49.6524
50.0001
50.3248
50.627
50.9078
51.1678
51.4081
51.6295
51.833
52.0197
52.1904
52.3463
52.4884
52.6175
52.7347
52.8409
52.937
53.0239
53.1025
53.1734
53.2375
53.2955
53.348
53.3955
53.4388
53.4782
53.5142
53.5473
53.5778
53.6061
53.6325
53.6574
53.6809
53.7035
53.7248
53.7445
53.7625
53.779
53.7939
53.8074
53.8192
53.8292
53.837
53.8423
53.8444
53.8428
53.8364
53.8246
53.8059
53.7793
53.7431
53.6957
53.6351
53.5591
53.465
53.3502
53.2111
53.0441
52.8448
52.6079
52.3277
51.997
51.6072
51.1483
50.6078
49.97
49.2156
48.3197
47.2504
45.9658
44.41
42.5083
40.1577
37.2188
33.4969
28.7334
22.6411
14.7347
5.54317
30.946
30.8762
30.831
30.7923
30.7529
30.7134
30.6742
30.6348
30.5948
30.5542
30.5131
30.4719
30.431
30.3908
30.352
30.3151
30.2806
30.249
30.2208
30.1964
30.1761
30.1602
30.1487
30.1417
30.1392
30.1409
30.1465
30.1556
30.1678
30.1824
30.1988
30.2163
30.2341
30.2513
30.2671
30.2806
30.2911
30.2976
30.2994
30.2957
30.2858
30.269
30.2448
30.2126
30.1721
30.1227
30.0644
29.9968
29.92
29.8338
29.7385
29.6342
29.5211
29.3996
29.27
29.1328
28.9885
28.8378
28.6816
28.521
28.3575
28.1928
28.0287
27.8671
27.7102
27.5602
27.419
27.2882
27.1693
27.0652
26.9783
26.9106
26.8639
26.8397
26.8399
26.866
26.9195
27.0018
27.1141
27.2576
27.4332
27.6418
27.884
28.1604
28.471
28.8161
29.1953
29.6083
30.0544
30.5327
31.042
31.5809
32.1477
32.7407
33.3575
33.996
34.6535
35.3274
36.0149
36.713
37.4188
38.1291
38.8409
39.5513
40.2571
40.9557
41.6444
42.3206
42.982
43.6266
44.2525
44.8581
45.4421
46.0032
46.5408
47.0542
47.5429
48.0067
48.4457
48.86
49.25
49.6159
49.9584
50.2782
50.5759
50.8523
51.1083
51.3447
51.5626
51.7628
51.9464
52.1143
52.2676
52.4072
52.5341
52.6492
52.7536
52.848
52.9334
53.0106
53.0803
53.1433
53.2003
53.2518
53.2985
53.341
53.3796
53.4149
53.4472
53.4769
53.5044
53.5299
53.5537
53.5761
53.5975
53.6174
53.6354
53.6515
53.666
53.6789
53.6901
53.6995
53.7069
53.712
53.7142
53.7132
53.7081
53.6981
53.6822
53.6592
53.6279
53.5866
53.5336
53.4669
53.3842
53.2828
53.1597
53.0116
52.8345
52.6239
52.3745
52.0801
51.7335
51.3259
50.8468
50.2836
49.6203
48.8373
47.9098
46.8059
45.4843
43.8908
41.9536
39.5766
36.6312
32.9453
28.2938
22.4486
15.0125
6.49848
30.9483
30.8795
30.8346
30.796
30.7564
30.7166
30.6773
30.6379
30.5981
30.5578
30.5173
30.4769
30.4368
30.3976
30.3597
30.3237
30.29
30.2592
30.2316
30.2076
30.1875
30.1714
30.1596
30.1521
30.1487
30.1492
30.1534
30.1609
30.1713
30.1838
30.198
30.2132
30.2285
30.2432
30.2565
30.2676
30.2756
30.2798
30.2795
30.2738
30.2621
30.2438
30.2184
30.1852
30.144
30.0944
30.0361
29.9689
29.8929
29.808
29.7143
29.612
29.5014
29.3829
29.2568
29.1238
28.9845
28.8395
28.6898
28.5363
28.3802
28.2228
28.0658
27.9109
27.7602
27.6157
27.4798
27.3544
27.2409
27.1415
27.0589
26.9952
26.9522
26.9317
26.9353
26.9647
27.0214
27.1068
27.222
27.3683
27.5467
27.7579
28.0026
28.2812
28.5939
28.9408
29.3217
29.7361
30.1832
30.6623
31.172
31.7109
32.2773
32.8694
33.4849
34.1215
34.7767
35.4477
36.1318
36.8259
37.5271
38.2324
38.9387
39.6431
40.3425
41.0344
41.7159
42.3848
43.0386
43.6755
44.2937
44.8915
45.4677
46.0213
46.5514
47.0576
47.5393
47.9965
48.4291
48.8373
49.2214
49.5819
49.9192
50.2341
50.5271
50.7992
51.0511
51.2837
51.4979
51.6948
51.8753
52.0403
52.1909
52.328
52.4526
52.5657
52.6682
52.761
52.8449
52.9208
52.9893
53.0512
53.1073
53.158
53.2039
53.2457
53.2836
53.3182
53.3499
53.3789
53.4055
53.4302
53.4531
53.4745
53.4946
53.513
53.5293
53.5437
53.5562
53.567
53.576
53.5831
53.5879
53.5903
53.5896
53.5854
53.5769
53.5632
53.5434
53.5162
53.4802
53.4339
53.3754
53.3027
53.2134
53.1048
52.9738
52.817
52.6302
52.4088
52.1473
51.8395
51.4778
51.0533
50.5553
49.9708
49.2839
48.4748
47.5186
46.3839
45.0303
43.4055
41.4415
39.0488
36.1106
32.4757
27.9505
22.3552
15.3704
7.46833
30.9505
30.8825
30.8381
30.7995
30.7598
30.7199
30.6804
30.641
30.6014
30.5615
30.5216
30.4818
30.4425
30.4041
30.3671
30.3319
30.299
30.2688
30.2417
30.2181
30.1981
30.182
30.1699
30.1617
30.1575
30.157
30.1599
30.1658
30.1744
30.185
30.1971
30.21
30.2231
30.2354
30.2464
30.2551
30.2609
30.2629
30.2606
30.253
30.2397
30.22
30.1933
30.1593
30.1175
30.0676
30.0094
29.9427
29.8674
29.7837
29.6916
29.5913
29.4831
29.3674
29.2446
29.1153
28.9801
28.8398
28.6952
28.5475
28.3977
28.2472
28.0975
27.9502
27.807
27.6698
27.5406
27.4217
27.3146
27.2212
27.1439
27.085
27.0464
27.03
27.0376
27.0708
27.131
27.2198
27.3383
27.4877
27.6689
27.8829
28.1301
28.4111
28.7259
29.0747
29.4572
29.8729
30.321
30.8007
31.3106
31.8493
32.4151
33.006
33.6199
34.2544
34.9069
35.5747
36.2549
36.9447
37.6411
38.3409
39.0413
39.7393
40.432
41.1167
41.7908
42.452
43.0981
43.727
44.3372
44.9271
45.4955
46.0415
46.5642
47.0631
47.538
47.9885
48.4148
48.817
49.1954
49.5504
49.8826
50.1925
50.481
50.7486
50.9964
51.2251
51.4357
51.6292
51.8065
51.9685
52.1164
52.2511
52.3735
52.4845
52.5852
52.6764
52.7588
52.8334
52.9008
52.9618
53.017
53.0669
53.1122
53.1533
53.1907
53.2247
53.2558
53.2842
53.3102
53.3341
53.3562
53.3766
53.3956
53.4125
53.4272
53.4398
53.4505
53.4593
53.4662
53.4709
53.4733
53.473
53.4695
53.4622
53.4503
53.433
53.4093
53.3778
53.3372
53.2859
53.222
53.1434
53.0476
52.932
52.7933
52.628
52.4318
52.2001
51.9271
51.6065
51.2306
50.7902
50.2745
49.6704
48.9618
48.1289
47.1471
45.9854
44.6047
42.9549
40.9719
38.5732
35.6536
32.0812
27.6916
22.3436
15.7859
8.43681
30.9524
30.8853
30.8413
30.8028
30.7631
30.723
30.6835
30.6441
30.6047
30.5652
30.5258
30.4866
30.4481
30.4105
30.3742
30.3398
30.3076
30.278
30.2513
30.228
30.2081
30.1919
30.1795
30.1707
30.1657
30.1641
30.1658
30.1703
30.1772
30.186
30.1961
30.2069
30.2178
30.2279
30.2367
30.2432
30.2468
30.2469
30.2425
30.2333
30.2184
30.1973
30.1696
30.1348
30.0925
30.0424
29.9842
29.918
29.8436
29.761
29.6704
29.5721
29.4662
29.3531
29.2335
29.1077
28.9765
28.8406
28.7009
28.5585
28.4144
28.27
28.1268
27.9862
27.8501
27.7202
27.5984
27.4866
27.3869
27.3007
27.2301
27.1773
27.1443
27.133
27.1453
27.1828
27.2471
27.3396
27.4617
27.6145
27.7989
28.0158
28.2657
28.5491
28.8661
29.2168
29.6008
30.0178
30.4668
30.9469
31.4568
31.9952
32.5601
33.1496
33.7615