/*--------------------------------*- C++ -*----------------------------------*\
| =========                 |                                                 |
| \\      /  F ield         | OpenFOAM: The Open Source CFD Toolbox           |
|  \\    /   O peration     | Version:  2.4.0                                 |
|   \\  /    A nd           | Web:      www.OpenFOAM.org                      |
|    \\/     M anipulation  |                                                 |
\*---------------------------------------------------------------------------*/
FoamFile
{
    version     2.0;
    format      ascii;
    class       volScalarField;
    location    "0.031";
    object      pPrime2Mean;
}
// * * * * * * * * * * * * * * * * * * * * * * * * * * * * * * * * * * * * * //

dimensions      [0 4 -4 0 0 0 0];

internalField   nonuniform List<scalar> 
17600
(
2.08334e+07
2.03082e+07
1.97434e+07
1.91835e+07
1.86316e+07
1.80878e+07
1.75521e+07
1.70244e+07
1.65047e+07
1.5993e+07
1.54892e+07
1.49933e+07
1.45052e+07
1.40245e+07
1.35508e+07
1.30832e+07
1.26198e+07
1.2157e+07
1.16866e+07
1.11807e+07
2.08339e+07
2.03082e+07
1.97434e+07
1.91835e+07
1.86316e+07
1.80878e+07
1.75521e+07
1.70244e+07
1.65047e+07
1.5993e+07
1.54892e+07
1.49933e+07
1.45052e+07
1.40245e+07
1.35509e+07
1.30833e+07
1.262e+07
1.21573e+07
1.16873e+07
1.11818e+07
2.08342e+07
2.03081e+07
1.97433e+07
1.91835e+07
1.86316e+07
1.80878e+07
1.75521e+07
1.70244e+07
1.65047e+07
1.5993e+07
1.54892e+07
1.49933e+07
1.45052e+07
1.40246e+07
1.35509e+07
1.30834e+07
1.26202e+07
1.21579e+07
1.16885e+07
1.11869e+07
2.08344e+07
2.03081e+07
1.97433e+07
1.91835e+07
1.86316e+07
1.80878e+07
1.75521e+07
1.70244e+07
1.65047e+07
1.5993e+07
1.54892e+07
1.49934e+07
1.45052e+07
1.40246e+07
1.3551e+07
1.30836e+07
1.26206e+07
1.21586e+07
1.16903e+07
1.11941e+07
2.08346e+07
2.0308e+07
1.97432e+07
1.91835e+07
1.86316e+07
1.80878e+07
1.75521e+07
1.70244e+07
1.65047e+07
1.5993e+07
1.54892e+07
1.49934e+07
1.45053e+07
1.40247e+07
1.35512e+07
1.30838e+07
1.26211e+07
1.21597e+07
1.16927e+07
1.12027e+07
2.08348e+07
2.03079e+07
1.97432e+07
1.91835e+07
1.86316e+07
1.80878e+07
1.75521e+07
1.70244e+07
1.65047e+07
1.5993e+07
1.54892e+07
1.49934e+07
1.45053e+07
1.40248e+07
1.35513e+07
1.30841e+07
1.26217e+07
1.21609e+07
1.16957e+07
1.12122e+07
2.08349e+07
2.03079e+07
1.97431e+07
1.91835e+07
1.86316e+07
1.80878e+07
1.75521e+07
1.70244e+07
1.65047e+07
1.5993e+07
1.54893e+07
1.49934e+07
1.45054e+07
1.40249e+07
1.35515e+07
1.30845e+07
1.26224e+07
1.21624e+07
1.1699e+07
1.12221e+07
2.08351e+07
2.03078e+07
1.9743e+07
1.91834e+07
1.86316e+07
1.80878e+07
1.75521e+07
1.70244e+07
1.65047e+07
1.5993e+07
1.54893e+07
1.49935e+07
1.45054e+07
1.4025e+07
1.35517e+07
1.30849e+07
1.26232e+07
1.2164e+07
1.17028e+07
1.12322e+07
2.08352e+07
2.03078e+07
1.9743e+07
1.91834e+07
1.86316e+07
1.80878e+07
1.75521e+07
1.70243e+07
1.65047e+07
1.5993e+07
1.54893e+07
1.49935e+07
1.45055e+07
1.40251e+07
1.3552e+07
1.30854e+07
1.26241e+07
1.21659e+07
1.17068e+07
1.12424e+07
2.08353e+07
2.03077e+07
1.97429e+07
1.91834e+07
1.86316e+07
1.80878e+07
1.75521e+07
1.70243e+07
1.65047e+07
1.5993e+07
1.54893e+07
1.49935e+07
1.45056e+07
1.40253e+07
1.35522e+07
1.30859e+07
1.26251e+07
1.21678e+07
1.1711e+07
1.12524e+07
2.08355e+07
2.03077e+07
1.97429e+07
1.91834e+07
1.86316e+07
1.80878e+07
1.7552e+07
1.70243e+07
1.65047e+07
1.5993e+07
1.54893e+07
1.49936e+07
1.45057e+07
1.40254e+07
1.35525e+07
1.30864e+07
1.26261e+07
1.21699e+07
1.17154e+07
1.12623e+07
2.08355e+07
2.03077e+07
1.97428e+07
1.91834e+07
1.86316e+07
1.80878e+07
1.7552e+07
1.70243e+07
1.65047e+07
1.5993e+07
1.54894e+07
1.49936e+07
1.45058e+07
1.40256e+07
1.35528e+07
1.3087e+07
1.26272e+07
1.21721e+07
1.17199e+07
1.1272e+07
2.08356e+07
2.03077e+07
1.97428e+07
1.91834e+07
1.86316e+07
1.80878e+07
1.7552e+07
1.70243e+07
1.65047e+07
1.5993e+07
1.54894e+07
1.49937e+07
1.45059e+07
1.40258e+07
1.35532e+07
1.30876e+07
1.26284e+07
1.21744e+07
1.17245e+07
1.12813e+07
2.08357e+07
2.03077e+07
1.97428e+07
1.91833e+07
1.86316e+07
1.80878e+07
1.7552e+07
1.70243e+07
1.65047e+07
1.59931e+07
1.54894e+07
1.49938e+07
1.4506e+07
1.4026e+07
1.35535e+07
1.30883e+07
1.26296e+07
1.21768e+07
1.17292e+07
1.12904e+07
2.08358e+07
2.03077e+07
1.97427e+07
1.91833e+07
1.86316e+07
1.80878e+07
1.7552e+07
1.70243e+07
1.65047e+07
1.59931e+07
1.54895e+07
1.49938e+07
1.45061e+07
1.40262e+07
1.35539e+07
1.3089e+07
1.26309e+07
1.21792e+07
1.17338e+07
1.12991e+07
2.08358e+07
2.03077e+07
1.97427e+07
1.91833e+07
1.86316e+07
1.80878e+07
1.7552e+07
1.70243e+07
1.65047e+07
1.59931e+07
1.54895e+07
1.49939e+07
1.45062e+07
1.40264e+07
1.35543e+07
1.30896e+07
1.26322e+07
1.21816e+07
1.17384e+07
1.13074e+07
2.08359e+07
2.03077e+07
1.97427e+07
1.91833e+07
1.86316e+07
1.80878e+07
1.7552e+07
1.70243e+07
1.65047e+07
1.59931e+07
1.54895e+07
1.49939e+07
1.45063e+07
1.40266e+07
1.35546e+07
1.30904e+07
1.26335e+07
1.2184e+07
1.17429e+07
1.13154e+07
2.08359e+07
2.03077e+07
1.97427e+07
1.91833e+07
1.86316e+07
1.80878e+07
1.7552e+07
1.70243e+07
1.65047e+07
1.59931e+07
1.54896e+07
1.4994e+07
1.45064e+07
1.40268e+07
1.3555e+07
1.30911e+07
1.26348e+07
1.21865e+07
1.17474e+07
1.13231e+07
2.08359e+07
2.03077e+07
1.97427e+07
1.91833e+07
1.86316e+07
1.80878e+07
1.7552e+07
1.70244e+07
1.65047e+07
1.59932e+07
1.54896e+07
1.49941e+07
1.45065e+07
1.4027e+07
1.35554e+07
1.30918e+07
1.26361e+07
1.21889e+07
1.17517e+07
1.13303e+07
2.08359e+07
2.03077e+07
1.97427e+07
1.91833e+07
1.86316e+07
1.80878e+07
1.75521e+07
1.70244e+07
1.65047e+07
1.59932e+07
1.54896e+07
1.49941e+07
1.45067e+07
1.40272e+07
1.35558e+07
1.30925e+07
1.26375e+07
1.21913e+07
1.17559e+07
1.13373e+07
2.08359e+07
2.03077e+07
1.97427e+07
1.91833e+07
1.86316e+07
1.80878e+07
1.75521e+07
1.70244e+07
1.65048e+07
1.59932e+07
1.54897e+07
1.49942e+07
1.45068e+07
1.40274e+07
1.35562e+07
1.30932e+07
1.26388e+07
1.21936e+07
1.176e+07
1.13438e+07
2.08359e+07
2.03077e+07
1.97427e+07
1.91833e+07
1.86316e+07
1.80878e+07
1.75521e+07
1.70244e+07
1.65048e+07
1.59932e+07
1.54897e+07
1.49943e+07
1.45069e+07
1.40277e+07
1.35566e+07
1.30939e+07
1.264e+07
1.21959e+07
1.17639e+07
1.135e+07
2.08359e+07
2.03077e+07
1.97427e+07
1.91833e+07
1.86316e+07
1.80878e+07
1.75521e+07
1.70244e+07
1.65048e+07
1.59932e+07
1.54897e+07
1.49943e+07
1.4507e+07
1.40279e+07
1.3557e+07
1.30947e+07
1.26413e+07
1.21981e+07
1.17677e+07
1.13558e+07
2.08359e+07
2.03077e+07
1.97427e+07
1.91833e+07
1.86316e+07
1.80878e+07
1.75521e+07
1.70244e+07
1.65048e+07
1.59933e+07
1.54898e+07
1.49944e+07
1.45071e+07
1.40281e+07
1.35574e+07
1.30953e+07
1.26425e+07
1.22002e+07
1.17713e+07
1.13613e+07
2.08358e+07
2.03077e+07
1.97427e+07
1.91833e+07
1.86316e+07
1.80878e+07
1.75521e+07
1.70244e+07
1.65048e+07
1.59933e+07
1.54898e+07
1.49945e+07
1.45072e+07
1.40283e+07
1.35578e+07
1.3096e+07
1.26437e+07
1.22023e+07
1.17747e+07
1.13665e+07
2.08358e+07
2.03077e+07
1.97428e+07
1.91833e+07
1.86316e+07
1.80878e+07
1.75521e+07
1.70244e+07
1.65048e+07
1.59933e+07
1.54898e+07
1.49945e+07
1.45074e+07
1.40285e+07
1.35581e+07
1.30966e+07
1.26449e+07
1.22043e+07
1.17779e+07
1.13713e+07
2.08357e+07
2.03077e+07
1.97428e+07
1.91833e+07
1.86316e+07
1.80878e+07
1.75521e+07
1.70244e+07
1.65048e+07
1.59933e+07
1.54899e+07
1.49946e+07
1.45075e+07
1.40287e+07
1.35585e+07
1.30973e+07
1.26459e+07
1.22061e+07
1.17809e+07
1.13757e+07
2.08356e+07
2.03077e+07
1.97428e+07
1.91834e+07
1.86316e+07
1.80878e+07
1.75521e+07
1.70244e+07
1.65048e+07
1.59933e+07
1.54899e+07
1.49946e+07
1.45076e+07
1.40289e+07
1.35588e+07
1.30978e+07
1.2647e+07
1.22079e+07
1.17837e+07
1.13799e+07
2.08356e+07
2.03077e+07
1.97429e+07
1.91834e+07
1.86316e+07
1.80878e+07
1.75521e+07
1.70244e+07
1.65048e+07
1.59933e+07
1.54899e+07
1.49947e+07
1.45077e+07
1.4029e+07
1.35591e+07
1.30984e+07
1.26479e+07
1.22095e+07
1.17863e+07
1.13837e+07
2.08355e+07
2.03077e+07
1.97429e+07
1.91834e+07
1.86316e+07
1.80878e+07
1.75521e+07
1.70244e+07
1.65049e+07
1.59934e+07
1.549e+07
1.49947e+07
1.45077e+07
1.40292e+07
1.35594e+07
1.30989e+07
1.26488e+07
1.2211e+07
1.17887e+07
1.13871e+07
2.08353e+07
2.03077e+07
1.97429e+07
1.91834e+07
1.86316e+07
1.80878e+07
1.75521e+07
1.70245e+07
1.65049e+07
1.59934e+07
1.549e+07
1.49948e+07
1.45078e+07
1.40293e+07
1.35597e+07
1.30994e+07
1.26497e+07
1.22124e+07
1.17909e+07
1.13903e+07
2.08352e+07
2.03078e+07
1.9743e+07
1.91834e+07
1.86316e+07
1.80878e+07
1.75521e+07
1.70245e+07
1.65049e+07
1.59934e+07
1.549e+07
1.49948e+07
1.45079e+07
1.40295e+07
1.35599e+07
1.30998e+07
1.26504e+07
1.22137e+07
1.17929e+07
1.13931e+07
2.08351e+07
2.03078e+07
1.97431e+07
1.91834e+07
1.86316e+07
1.80878e+07
1.75521e+07
1.70245e+07
1.65049e+07
1.59934e+07
1.549e+07
1.49949e+07
1.4508e+07
1.40296e+07
1.35601e+07
1.31002e+07
1.26511e+07
1.22148e+07
1.17947e+07
1.13956e+07
2.08349e+07
2.03079e+07
1.97431e+07
1.91835e+07
1.86316e+07
1.80879e+07
1.75521e+07
1.70245e+07
1.65049e+07
1.59934e+07
1.54901e+07
1.49949e+07
1.4508e+07
1.40297e+07
1.35603e+07
1.31006e+07
1.26517e+07
1.22158e+07
1.17962e+07
1.13978e+07
2.08348e+07
2.03079e+07
1.97432e+07
1.91835e+07
1.86316e+07
1.80879e+07
1.75521e+07
1.70245e+07
1.65049e+07
1.59934e+07
1.54901e+07
1.49949e+07
1.45081e+07
1.40298e+07
1.35605e+07
1.31009e+07
1.26522e+07
1.22167e+07
1.17976e+07
1.13997e+07
2.08346e+07
2.0308e+07
1.97432e+07
1.91835e+07
1.86316e+07
1.80879e+07
1.75522e+07
1.70245e+07
1.65049e+07
1.59934e+07
1.54901e+07
1.49949e+07
1.45081e+07
1.40299e+07
1.35606e+07
1.31011e+07
1.26526e+07
1.22174e+07
1.17987e+07
1.14013e+07
2.08344e+07
2.03081e+07
1.97433e+07
1.91835e+07
1.86317e+07
1.80879e+07
1.75522e+07
1.70245e+07
1.65049e+07
1.59934e+07
1.54901e+07
1.4995e+07
1.45082e+07
1.403e+07
1.35608e+07
1.31013e+07
1.2653e+07
1.22179e+07
1.17996e+07
1.14025e+07
2.08342e+07
2.03081e+07
1.97433e+07
1.91835e+07
1.86317e+07
1.80879e+07
1.75522e+07
1.70245e+07
1.65049e+07
1.59934e+07
1.54901e+07
1.4995e+07
1.45082e+07
1.403e+07
1.35608e+07
1.31015e+07
1.26533e+07
1.22184e+07
1.18002e+07
1.14034e+07
2.08339e+07
2.03082e+07
1.97434e+07
1.91835e+07
1.86317e+07
1.80879e+07
1.75522e+07
1.70245e+07
1.65049e+07
1.59934e+07
1.54901e+07
1.4995e+07
1.45082e+07
1.403e+07
1.35609e+07
1.31016e+07
1.26534e+07
1.22187e+07
1.18007e+07
1.1404e+07
2.08335e+07
2.03082e+07
1.97434e+07
1.91835e+07
1.86317e+07
1.80879e+07
1.75522e+07
1.70245e+07
1.65049e+07
1.59934e+07
1.54901e+07
1.4995e+07
1.45082e+07
1.40301e+07
1.35609e+07
1.31016e+07
1.26535e+07
1.22188e+07
1.18009e+07
1.14043e+07
1.07015e+07
1.05864e+07
1.04973e+07
1.04193e+07
1.03461e+07
1.0276e+07
1.02081e+07
1.01419e+07
1.0077e+07
1.00132e+07
9.95025e+06
9.88797e+06
9.82629e+06
9.76511e+06
9.70435e+06
9.64396e+06
9.58388e+06
9.52406e+06
9.46446e+06
9.40507e+06
9.34586e+06
9.28684e+06
9.22803e+06
9.16944e+06
9.11109e+06
9.05297e+06
8.99511e+06
8.93748e+06
8.8801e+06
8.82296e+06
8.76606e+06
8.7094e+06
8.65297e+06
8.59677e+06
8.54079e+06
8.48503e+06
8.42948e+06
8.37414e+06
8.319e+06
8.26406e+06
8.20932e+06
8.15477e+06
8.10042e+06
8.04626e+06
7.99228e+06
7.9385e+06
7.8849e+06
7.83148e+06
7.77825e+06
7.72521e+06
7.67235e+06
7.61968e+06
7.56718e+06
7.51487e+06
7.46275e+06
7.4108e+06
7.35904e+06
7.30746e+06
7.25606e+06
7.20485e+06
7.15381e+06
7.10296e+06
7.05229e+06
7.0018e+06
6.95149e+06
6.90137e+06
6.85142e+06
6.80166e+06
6.75208e+06
6.70268e+06
6.65347e+06
6.60443e+06
6.55558e+06
6.5069e+06
6.45841e+06
6.4101e+06
6.36198e+06
6.31403e+06
6.26627e+06
6.21868e+06
6.17128e+06
6.12406e+06
6.07702e+06
6.03016e+06
5.98349e+06
5.93699e+06
5.89068e+06
5.84455e+06
5.79859e+06
5.75283e+06
5.70724e+06
5.66183e+06
5.61661e+06
5.57156e+06
5.5267e+06
5.48202e+06
5.43752e+06
5.3932e+06
5.34906e+06
5.30511e+06
5.26133e+06
5.21774e+06
5.17433e+06
5.1311e+06
5.08805e+06
5.04518e+06
5.0025e+06
4.95999e+06
4.91767e+06
4.87553e+06
4.83356e+06
4.79178e+06
4.75019e+06
4.70877e+06
4.66753e+06
4.62648e+06
4.58561e+06
4.54491e+06
4.5044e+06
4.46407e+06
4.42393e+06
4.38396e+06
4.34418e+06
4.30457e+06
4.26515e+06
4.22591e+06
4.18685e+06
4.14797e+06
4.10927e+06
4.07076e+06
4.03242e+06
3.99427e+06
3.95629e+06
3.9185e+06
3.88089e+06
3.84346e+06
3.80622e+06
3.76915e+06
3.73226e+06
3.69556e+06
3.65904e+06
3.62269e+06
3.58653e+06
3.55055e+06
3.51475e+06
3.47913e+06
3.44369e+06
3.40843e+06
3.37336e+06
3.33846e+06
3.30375e+06
3.26921e+06
3.23486e+06
3.20069e+06
3.16669e+06
3.13288e+06
3.09925e+06
3.0658e+06
3.03252e+06
2.99943e+06
2.96652e+06
2.93378e+06
2.90123e+06
2.86885e+06
2.83665e+06
2.80463e+06
2.77279e+06
2.74112e+06
2.70963e+06
2.67832e+06
2.64718e+06
2.61621e+06
2.58542e+06
2.55479e+06
2.52434e+06
2.49405e+06
2.46393e+06
2.43397e+06
2.40417e+06
2.37453e+06
2.34503e+06
2.31568e+06
2.28647e+06
2.25739e+06
2.22844e+06
2.19959e+06
2.17083e+06
2.14215e+06
2.11353e+06
2.08493e+06
2.05632e+06
2.02765e+06
1.99886e+06
1.96987e+06
1.94056e+06
1.91074e+06
1.88017e+06
1.84843e+06
1.81401e+06
1.77657e+06
1.07556e+07
1.06304e+07
1.0532e+07
1.04476e+07
1.03701e+07
1.02967e+07
1.02263e+07
1.01579e+07
1.00913e+07
1.00259e+07
9.96156e+06
9.8981e+06
9.83538e+06
9.77327e+06
9.71169e+06
9.65057e+06
9.58982e+06
9.52942e+06
9.4693e+06
9.40944e+06
9.34982e+06
9.29043e+06
9.23129e+06
9.17241e+06
9.11379e+06
9.05543e+06
8.99735e+06
8.93952e+06
8.88196e+06
8.82466e+06
8.76761e+06
8.71081e+06
8.65426e+06
8.59794e+06
8.54186e+06
8.486e+06
8.43036e+06
8.37494e+06
8.31973e+06
8.26472e+06
8.20992e+06
8.15532e+06
8.10092e+06
8.04671e+06
7.99269e+06
7.93887e+06
7.88523e+06
7.83179e+06
7.77853e+06
7.72546e+06
7.67258e+06
7.61988e+06
7.56737e+06
7.51504e+06
7.4629e+06
7.41094e+06
7.35917e+06
7.30757e+06
7.25617e+06
7.20494e+06
7.1539e+06
7.10304e+06
7.05236e+06
7.00186e+06
6.95155e+06
6.90142e+06
6.85147e+06
6.8017e+06
6.75212e+06
6.70272e+06
6.6535e+06
6.60446e+06
6.5556e+06
6.50693e+06
6.45844e+06
6.41012e+06
6.36199e+06
6.31405e+06
6.26628e+06
6.21869e+06
6.17129e+06
6.12407e+06
6.07703e+06
6.03017e+06
5.98349e+06
5.937e+06
5.89068e+06
5.84455e+06
5.7986e+06
5.75283e+06
5.70724e+06
5.66183e+06
5.61661e+06
5.57157e+06
5.5267e+06
5.48202e+06
5.43752e+06
5.3932e+06
5.34906e+06
5.30511e+06
5.26133e+06
5.21774e+06
5.17433e+06
5.1311e+06
5.08805e+06
5.04518e+06
5.00249e+06
4.95999e+06
4.91766e+06
4.87552e+06
4.83356e+06
4.79178e+06
4.75018e+06
4.70876e+06
4.66753e+06
4.62647e+06
4.5856e+06
4.54491e+06
4.50439e+06
4.46406e+06
4.42392e+06
4.38395e+06
4.34416e+06
4.30456e+06
4.26513e+06
4.22589e+06
4.18683e+06
4.14795e+06
4.10925e+06
4.07073e+06
4.03239e+06
3.99424e+06
3.95626e+06
3.91847e+06
3.88086e+06
3.84342e+06
3.80617e+06
3.7691e+06
3.73221e+06
3.6955e+06
3.65897e+06
3.62262e+06
3.58646e+06
3.55047e+06
3.51466e+06
3.47903e+06
3.44358e+06
3.40832e+06
3.37323e+06
3.33832e+06
3.30359e+06
3.26904e+06
3.23467e+06
3.20048e+06
3.16647e+06
3.13264e+06
3.09898e+06
3.06551e+06
3.03221e+06
2.99908e+06
2.96614e+06
2.93337e+06
2.90078e+06
2.86836e+06
2.83611e+06
2.80404e+06
2.77214e+06
2.74042e+06
2.70886e+06
2.67748e+06
2.64626e+06
2.61521e+06
2.58432e+06
2.5536e+06
2.52303e+06
2.49262e+06
2.46237e+06
2.43226e+06
2.4023e+06
2.37249e+06
2.3428e+06
2.31324e+06
2.2838e+06
2.25447e+06
2.22523e+06
2.19607e+06
2.16697e+06
2.13791e+06
2.10886e+06
2.07978e+06
2.05063e+06
2.02134e+06
1.99184e+06
1.96201e+06
1.93169e+06
1.90063e+06
1.86845e+06
1.8345e+06
1.79679e+06
1.75243e+06
1.07984e+07
1.0669e+07
1.05646e+07
1.0475e+07
1.03935e+07
1.03171e+07
1.02442e+07
1.01738e+07
1.01053e+07
1.00384e+07
9.97279e+06
9.90817e+06
9.84442e+06
9.7814e+06
9.719e+06
9.65714e+06
9.59575e+06
9.53476e+06
9.47411e+06
9.41379e+06
9.35375e+06
9.294e+06
9.23453e+06
9.17536e+06
9.11647e+06
9.05788e+06
8.99957e+06
8.94155e+06
8.88381e+06
8.82635e+06
8.76915e+06
8.71222e+06
8.65554e+06
8.59911e+06
8.54292e+06
8.48697e+06
8.43124e+06
8.37574e+06
8.32046e+06
8.26538e+06
8.21052e+06
8.15586e+06
8.10141e+06
8.04715e+06
7.9931e+06
7.93923e+06
7.88557e+06
7.83209e+06
7.77881e+06
7.72571e+06
7.6728e+06
7.62009e+06
7.56756e+06
7.51521e+06
7.46305e+06
7.41108e+06
7.35929e+06
7.30769e+06
7.25627e+06
7.20503e+06
7.15398e+06
7.10311e+06
7.05243e+06
7.00193e+06
6.95161e+06
6.90147e+06
6.85152e+06
6.80175e+06
6.75216e+06
6.70275e+06
6.65353e+06
6.60449e+06
6.55563e+06
6.50695e+06
6.45846e+06
6.41014e+06
6.36201e+06
6.31406e+06
6.26629e+06
6.21871e+06
6.1713e+06
6.12408e+06
6.07704e+06
6.03018e+06
5.9835e+06
5.937e+06
5.89069e+06
5.84456e+06
5.7986e+06
5.75283e+06
5.70725e+06
5.66184e+06
5.61661e+06
5.57157e+06
5.5267e+06
5.48202e+06
5.43752e+06
5.3932e+06
5.34907e+06
5.30511e+06
5.26133e+06
5.21774e+06
5.17433e+06
5.1311e+06
5.08805e+06
5.04518e+06
5.00249e+06
4.95999e+06
4.91766e+06
4.87552e+06
4.83356e+06
4.79178e+06
4.75018e+06
4.70876e+06
4.66752e+06
4.62647e+06
4.58559e+06
4.5449e+06
4.50439e+06
4.46406e+06
4.42391e+06
4.38394e+06
4.34415e+06
4.30454e+06
4.26512e+06
4.22588e+06
4.18681e+06
4.14793e+06
4.10923e+06
4.07071e+06
4.03237e+06
3.99421e+06
3.95623e+06
3.91844e+06
3.88082e+06
3.84338e+06
3.80613e+06
3.76905e+06
3.73216e+06
3.69544e+06
3.65891e+06
3.62256e+06
3.58638e+06
3.55038e+06
3.51457e+06
3.47893e+06
3.44347e+06
3.4082e+06
3.3731e+06
3.33818e+06
3.30344e+06
3.26887e+06
3.23449e+06
3.20028e+06
3.16625e+06
3.1324e+06
3.09872e+06
3.06522e+06
3.03189e+06
2.99874e+06
2.96576e+06
2.93296e+06
2.90033e+06
2.86787e+06
2.83558e+06
2.80346e+06
2.7715e+06
2.73972e+06
2.7081e+06
2.67664e+06
2.64535e+06
2.61421e+06
2.58323e+06
2.5524e+06
2.52173e+06
2.4912e+06
2.46081e+06
2.43056e+06
2.40045e+06
2.37045e+06
2.34058e+06
2.31081e+06
2.28115e+06
2.25156e+06
2.22205e+06
2.19258e+06
2.16315e+06
2.13371e+06
2.10425e+06
2.0747e+06
2.04502e+06
2.01513e+06
1.98494e+06
1.95431e+06
1.92304e+06
1.89083e+06
1.85717e+06
1.8214e+06
1.78125e+06
1.73323e+06
1.08334e+07
1.07032e+07
1.0595e+07
1.05012e+07
1.04163e+07
1.0337e+07
1.02617e+07
1.01893e+07
1.01192e+07
1.00508e+07
9.98388e+06
9.91812e+06
9.85336e+06
9.78944e+06
9.72624e+06
9.66366e+06
9.60162e+06
9.54004e+06
9.47889e+06
9.4181e+06
9.35766e+06
9.29754e+06
9.23775e+06
9.17829e+06
9.11914e+06
9.06031e+06
9.00178e+06
8.94357e+06
8.88565e+06
8.82803e+06
8.77069e+06
8.71362e+06
8.65682e+06
8.60028e+06
8.54398e+06
8.48793e+06
8.43212e+06
8.37654e+06
8.32118e+06
8.26604e+06
8.21112e+06
8.15641e+06
8.1019e+06
8.0476e+06
7.9935e+06
7.9396e+06
7.8859e+06
7.83239e+06
7.77908e+06
7.72596e+06
7.67303e+06
7.62029e+06
7.56774e+06
7.51538e+06
7.46321e+06
7.41122e+06
7.35942e+06
7.3078e+06
7.25637e+06
7.20513e+06
7.15407e+06
7.10319e+06
7.0525e+06
7.00199e+06
6.95166e+06
6.90152e+06
6.85156e+06
6.80179e+06
6.7522e+06
6.70279e+06
6.65356e+06
6.60452e+06
6.55565e+06
6.50698e+06
6.45848e+06
6.41016e+06
6.36203e+06
6.31408e+06
6.26631e+06
6.21872e+06
6.17132e+06
6.12409e+06
6.07705e+06
6.03019e+06
5.98351e+06
5.93701e+06
5.8907e+06
5.84456e+06
5.79861e+06
5.75284e+06
5.70725e+06
5.66184e+06
5.61662e+06
5.57157e+06
5.52671e+06
5.48202e+06
5.43752e+06
5.3932e+06
5.34907e+06
5.30511e+06
5.26133e+06
5.21774e+06
5.17433e+06
5.1311e+06
5.08805e+06
5.04518e+06
5.00249e+06
4.95998e+06
4.91766e+06
4.87552e+06
4.83355e+06
4.79177e+06
4.75017e+06
4.70875e+06
4.66752e+06
4.62646e+06
4.58558e+06
4.54489e+06
4.50438e+06
4.46405e+06
4.4239e+06
4.38393e+06
4.34414e+06
4.30453e+06
4.2651e+06
4.22586e+06
4.18679e+06
4.14791e+06
4.10921e+06
4.07069e+06
4.03234e+06
3.99418e+06
3.9562e+06
3.9184e+06
3.88078e+06
3.84334e+06
3.80608e+06
3.76901e+06
3.73211e+06
3.69539e+06
3.65885e+06
3.62249e+06
3.5863e+06
3.5503e+06
3.51448e+06
3.47883e+06
3.44337e+06
3.40808e+06
3.37297e+06
3.33804e+06
3.30328e+06
3.2687e+06
3.2343e+06
3.20008e+06
3.16603e+06
3.13216e+06
3.09846e+06
3.06493e+06
3.03158e+06
2.9984e+06
2.96539e+06
2.93255e+06
2.89988e+06
2.86738e+06
2.83504e+06
2.80287e+06
2.77086e+06
2.73902e+06
2.70734e+06
2.67581e+06
2.64444e+06
2.61321e+06
2.58214e+06
2.55122e+06
2.52043e+06
2.48978e+06
2.45927e+06
2.42887e+06
2.3986e+06
2.36844e+06
2.33838e+06
2.30841e+06
2.27851e+06
2.24868e+06
2.21889e+06
2.18913e+06
2.15936e+06
2.12956e+06
2.09969e+06
2.06968e+06
2.03949e+06
2.00903e+06
1.97818e+06
1.94679e+06
1.91462e+06
1.8814e+06
1.84641e+06
1.80919e+06
1.76731e+06
1.71804e+06
1.08633e+07
1.07336e+07
1.0623e+07
1.0526e+07
1.04382e+07
1.03564e+07
1.02789e+07
1.02046e+07
1.01328e+07
1.0063e+07
9.9948e+06
9.92793e+06
9.86218e+06
9.79738e+06
9.73339e+06
9.6701e+06
9.60742e+06
9.54528e+06
9.48361e+06
9.42238e+06
9.36153e+06
9.30106e+06
9.24095e+06
9.18119e+06
9.12179e+06
9.06272e+06
9.00398e+06
8.94558e+06
8.88749e+06
8.82971e+06
8.77222e+06
8.71502e+06
8.65809e+06
8.60144e+06
8.54504e+06
8.48889e+06
8.43299e+06
8.37733e+06
8.3219e+06
8.2667e+06
8.21171e+06
8.15694e+06
8.10239e+06
8.04804e+06
7.9939e+06
7.93997e+06
7.88623e+06
7.83269e+06
7.77935e+06
7.72621e+06
7.67325e+06
7.62049e+06
7.56793e+06
7.51555e+06
7.46336e+06
7.41136e+06
7.35954e+06
7.30791e+06
7.25647e+06
7.20522e+06
7.15415e+06
7.10327e+06
7.05257e+06
7.00205e+06
6.95172e+06
6.90157e+06
6.85161e+06
6.80183e+06
6.75223e+06
6.70282e+06
6.65359e+06
6.60455e+06
6.55568e+06
6.507e+06
6.4585e+06
6.41018e+06
6.36205e+06
6.31409e+06
6.26632e+06
6.21873e+06
6.17133e+06
6.1241e+06
6.07706e+06
6.0302e+06
5.98352e+06
5.93702e+06
5.8907e+06
5.84457e+06
5.79861e+06
5.75284e+06
5.70725e+06
5.66184e+06
5.61662e+06
5.57157e+06
5.52671e+06
5.48203e+06
5.43752e+06
5.39321e+06
5.34907e+06
5.30511e+06
5.26133e+06
5.21774e+06
5.17433e+06
5.13109e+06
5.08804e+06
5.04518e+06
5.00249e+06
4.95998e+06
4.91766e+06
4.87551e+06
4.83355e+06
4.79177e+06
4.75017e+06
4.70875e+06
4.66751e+06
4.62645e+06
4.58558e+06
4.54488e+06
4.50437e+06
4.46404e+06
4.42389e+06
4.38392e+06
4.34413e+06
4.30452e+06
4.26509e+06
4.22584e+06
4.18678e+06
4.14789e+06
4.10919e+06
4.07066e+06
4.03232e+06
3.99415e+06
3.95617e+06
3.91837e+06
3.88075e+06
3.8433e+06
3.80604e+06
3.76896e+06
3.73205e+06
3.69533e+06
3.65878e+06
3.62242e+06
3.58623e+06
3.55022e+06
3.51439e+06
3.47874e+06
3.44326e+06
3.40796e+06
3.37284e+06
3.3379e+06
3.30313e+06
3.26854e+06
3.23412e+06
3.19988e+06
3.16581e+06
3.13192e+06
3.09819e+06
3.06464e+06
3.03126e+06
2.99805e+06
2.96501e+06
2.93214e+06
2.89943e+06
2.86689e+06
2.83451e+06
2.80229e+06
2.77023e+06
2.73833e+06
2.70658e+06
2.67498e+06
2.64353e+06
2.61223e+06
2.58107e+06
2.55004e+06
2.51915e+06
2.48838e+06
2.45773e+06
2.4272e+06
2.39677e+06
2.36644e+06
2.33619e+06
2.30602e+06
2.2759e+06
2.24583e+06
2.21577e+06
2.18572e+06
2.15563e+06
2.12547e+06
2.09519e+06
2.06475e+06
2.03406e+06
2.00305e+06
1.97156e+06
1.93948e+06
1.90646e+06
1.87237e+06
1.83622e+06
1.79789e+06
1.75495e+06
1.70556e+06
1.08893e+07
1.07608e+07
1.06489e+07
1.05495e+07
1.04592e+07
1.03751e+07
1.02955e+07
1.02195e+07
1.01462e+07
1.0075e+07
1.00056e+07
9.9376e+06
9.87088e+06
9.80522e+06
9.74045e+06
9.67646e+06
9.61316e+06
9.55045e+06
9.48829e+06
9.42661e+06
9.36537e+06
9.30454e+06
9.24411e+06
9.18407e+06
9.12441e+06
9.06511e+06
9.00617e+06
8.94758e+06
8.88932e+06
8.83137e+06
8.77374e+06
8.71641e+06
8.65936e+06
8.60259e+06
8.54609e+06
8.48985e+06
8.43386e+06
8.37812e+06
8.32261e+06
8.26734e+06
8.2123e+06
8.15748e+06
8.10287e+06
8.04848e+06
7.9943e+06
7.94033e+06
7.88656e+06
7.83299e+06
7.77962e+06
7.72645e+06
7.67348e+06
7.6207e+06
7.56811e+06
7.51571e+06
7.46351e+06
7.41149e+06
7.35967e+06
7.30803e+06
7.25658e+06
7.20531e+06
7.15423e+06
7.10334e+06
7.05263e+06
7.00211e+06
6.95178e+06
6.90162e+06
6.85166e+06
6.80187e+06
6.75227e+06
6.70286e+06
6.65362e+06
6.60457e+06
6.55571e+06
6.50702e+06
6.45852e+06
6.4102e+06
6.36206e+06
6.31411e+06
6.26634e+06
6.21875e+06
6.17134e+06
6.12411e+06
6.07707e+06
6.0302e+06
5.98352e+06
5.93703e+06
5.89071e+06
5.84457e+06
5.79862e+06
5.75285e+06
5.70726e+06
5.66185e+06
5.61662e+06
5.57157e+06
5.52671e+06
5.48203e+06
5.43753e+06
5.39321e+06
5.34907e+06
5.30511e+06
5.26133e+06
5.21774e+06
5.17433e+06
5.13109e+06
5.08804e+06
5.04517e+06
5.00249e+06
4.95998e+06
4.91765e+06
4.87551e+06
4.83355e+06
4.79176e+06
4.75016e+06
4.70874e+06
4.6675e+06
4.62645e+06
4.58557e+06
4.54488e+06
4.50436e+06
4.46403e+06
4.42388e+06
4.3839e+06
4.34411e+06
4.3045e+06
4.26507e+06
4.22583e+06
4.18676e+06
4.14787e+06
4.10916e+06
4.07064e+06
4.03229e+06
3.99413e+06
3.95614e+06
3.91834e+06
3.88071e+06
3.84326e+06
3.806e+06
3.76891e+06
3.732e+06
3.69527e+06
3.65872e+06
3.62235e+06
3.58616e+06
3.55014e+06
3.5143e+06
3.47864e+06
3.44315e+06
3.40785e+06
3.37271e+06
3.33776e+06
3.30298e+06
3.26837e+06
3.23394e+06
3.19968e+06
3.16559e+06
3.13168e+06
3.09793e+06
3.06436e+06
3.03095e+06
2.99772e+06
2.96464e+06
2.93174e+06
2.89899e+06
2.86641e+06
2.83398e+06
2.80171e+06
2.7696e+06
2.73764e+06
2.70583e+06
2.67416e+06
2.64264e+06
2.61125e+06
2.58e+06
2.54887e+06
2.51787e+06
2.48699e+06
2.45621e+06
2.42554e+06
2.39496e+06
2.36446e+06
2.33403e+06
2.30366e+06
2.27332e+06
2.24301e+06
2.21269e+06
2.18235e+06
2.15194e+06
2.12143e+06
2.09077e+06
2.05991e+06
2.02874e+06
1.99721e+06
1.96511e+06
1.93241e+06
1.89859e+06
1.86376e+06
1.82663e+06
1.78748e+06
1.74399e+06
1.69499e+06
1.09121e+07
1.07853e+07
1.06728e+07
1.05716e+07
1.04792e+07
1.03931e+07
1.03117e+07
1.0234e+07
1.01592e+07
1.00867e+07
1.00161e+07
9.94711e+06
9.87945e+06
9.81293e+06
9.74741e+06
9.68274e+06
9.61882e+06
9.55557e+06
9.49291e+06
9.43079e+06
9.36916e+06
9.30799e+06
9.24725e+06
9.18693e+06
9.12701e+06
9.06749e+06
9.00834e+06
8.94956e+06
8.89113e+06
8.83303e+06
8.77525e+06
8.71778e+06
8.66061e+06
8.60373e+06
8.54712e+06
8.49079e+06
8.43472e+06
8.3789e+06
8.32332e+06
8.26799e+06
8.21288e+06
8.15801e+06
8.10335e+06
8.04892e+06
7.9947e+06
7.94069e+06
7.88688e+06
7.83329e+06
7.77989e+06
7.72669e+06
7.6737e+06
7.6209e+06
7.56829e+06
7.51588e+06
7.46366e+06
7.41163e+06
7.35979e+06
7.30814e+06
7.25668e+06
7.2054e+06
7.15432e+06
7.10342e+06
7.0527e+06
7.00218e+06
6.95183e+06
6.90168e+06
6.8517e+06
6.80191e+06
6.75231e+06
6.70289e+06
6.65365e+06
6.6046e+06
6.55573e+06
6.50704e+06
6.45854e+06
6.41022e+06
6.36208e+06
6.31412e+06
6.26635e+06
6.21876e+06
6.17135e+06
6.12412e+06
6.07708e+06
6.03021e+06
5.98353e+06
5.93703e+06
5.89071e+06
5.84458e+06
5.79862e+06
5.75285e+06
5.70726e+06
5.66185e+06
5.61662e+06
5.57158e+06
5.52671e+06
5.48203e+06
5.43753e+06
5.39321e+06
5.34907e+06
5.30511e+06
5.26133e+06
5.21774e+06
5.17433e+06
5.13109e+06
5.08804e+06
5.04517e+06
5.00248e+06
4.95998e+06
4.91765e+06
4.87551e+06
4.83354e+06
4.79176e+06
4.75016e+06
4.70874e+06
4.6675e+06
4.62644e+06
4.58556e+06
4.54487e+06
4.50435e+06
4.46402e+06
4.42387e+06
4.38389e+06
4.3441e+06
4.30449e+06
4.26506e+06
4.22581e+06
4.18674e+06
4.14785e+06
4.10914e+06
4.07062e+06
4.03227e+06
3.9941e+06
3.95611e+06
3.9183e+06
3.88067e+06
3.84323e+06
3.80595e+06
3.76886e+06
3.73195e+06
3.69522e+06
3.65866e+06
3.62228e+06
3.58608e+06
3.55006e+06
3.51421e+06
3.47854e+06
3.44305e+06
3.40773e+06
3.37259e+06
3.33762e+06
3.30282e+06
3.26821e+06
3.23376e+06
3.19949e+06
3.16538e+06
3.13145e+06
3.09768e+06
3.06408e+06
3.03065e+06
2.99738e+06
2.96427e+06
2.93134e+06
2.89855e+06
2.86593e+06
2.83346e+06
2.80114e+06
2.76898e+06
2.73696e+06
2.70508e+06
2.67335e+06
2.64175e+06
2.61028e+06
2.57894e+06
2.54772e+06
2.51661e+06
2.48561e+06
2.45471e+06
2.4239e+06
2.39317e+06
2.3625e+06
2.33189e+06
2.30133e+06
2.27078e+06
2.24023e+06
2.20966e+06
2.17903e+06
2.14831e+06
2.11748e+06
2.08643e+06
2.05517e+06
2.02354e+06
1.99154e+06
1.95884e+06
1.9256e+06
1.89103e+06
1.85558e+06
1.81767e+06
1.77789e+06
1.73423e+06
1.6858e+06
1.09326e+07
1.08075e+07
1.06948e+07
1.05923e+07
1.04982e+07
1.04104e+07
1.03274e+07
1.02481e+07
1.01719e+07
1.00982e+07
1.00265e+07
9.95644e+06
9.88786e+06
9.82053e+06
9.75426e+06
9.68893e+06
9.62441e+06
9.56062e+06
9.49748e+06
9.43493e+06
9.37292e+06
9.3114e+06
9.25035e+06
9.18975e+06
9.12959e+06
9.06984e+06
9.01049e+06
8.95152e+06
8.89292e+06
8.83466e+06
8.77674e+06
8.71914e+06
8.66185e+06
8.60486e+06
8.54815e+06
8.49173e+06
8.43557e+06
8.37967e+06
8.32402e+06
8.26862e+06
8.21346e+06
8.15853e+06
8.10383e+06
8.04935e+06
7.99509e+06
7.94104e+06
7.88721e+06
7.83358e+06
7.78016e+06
7.72693e+06
7.67392e+06
7.62109e+06
7.56847e+06
7.51604e+06
7.4638e+06
7.41176e+06
7.35991e+06
7.30825e+06
7.25678e+06
7.20549e+06
7.1544e+06
7.10349e+06
7.05277e+06
7.00224e+06
6.95189e+06
6.90173e+06
6.85175e+06
6.80196e+06
6.75235e+06
6.70292e+06
6.65369e+06
6.60463e+06
6.55576e+06
6.50707e+06
6.45856e+06
6.41024e+06
6.3621e+06
6.31414e+06
6.26636e+06
6.21877e+06
6.17136e+06
6.12413e+06
6.07709e+06
6.03022e+06
5.98354e+06
5.93704e+06
5.89072e+06
5.84458e+06
5.79863e+06
5.75286e+06
5.70726e+06
5.66185e+06
5.61663e+06
5.57158e+06
5.52671e+06
5.48203e+06
5.43753e+06
5.39321e+06
5.34907e+06
5.30511e+06
5.26133e+06
5.21774e+06
5.17432e+06
5.13109e+06
5.08804e+06
5.04517e+06
5.00248e+06
4.95997e+06
4.91765e+06
4.8755e+06
4.83354e+06
4.79176e+06
4.75015e+06
4.70873e+06
4.66749e+06
4.62644e+06
4.58556e+06
4.54486e+06
4.50434e+06
4.46401e+06
4.42386e+06
4.38388e+06
4.34409e+06
4.30448e+06
4.26505e+06
4.22579e+06
4.18672e+06
4.14783e+06
4.10912e+06
4.07059e+06
4.03224e+06
3.99407e+06
3.95608e+06
3.91827e+06
3.88064e+06
3.84319e+06
3.80591e+06
3.76882e+06
3.7319e+06
3.69516e+06
3.6586e+06
3.62222e+06
3.58601e+06
3.54998e+06
3.51412e+06
3.47845e+06
3.44294e+06
3.40762e+06
3.37246e+06
3.33749e+06
3.30268e+06
3.26805e+06
3.23358e+06
3.19929e+06
3.16516e+06
3.13121e+06
3.09742e+06
3.06381e+06
3.03034e+06
2.99705e+06
2.96391e+06
2.93094e+06
2.89812e+06
2.86546e+06
2.83294e+06
2.80058e+06
2.76836e+06
2.73629e+06
2.70434e+06
2.67255e+06
2.64087e+06
2.60932e+06
2.57789e+06
2.54658e+06
2.51536e+06
2.48425e+06
2.45322e+06
2.42228e+06
2.3914e+06
2.36058e+06
2.32979e+06
2.29903e+06
2.26827e+06
2.2375e+06
2.20667e+06
2.17578e+06
2.14475e+06
2.1136e+06
2.08218e+06
2.05056e+06
2.01845e+06
1.98604e+06
1.95277e+06
1.91905e+06
1.88382e+06
1.84781e+06
1.80934e+06
1.76905e+06
1.72546e+06
1.67763e+06
1.09511e+07
1.08277e+07
1.07151e+07
1.06118e+07
1.05163e+07
1.04269e+07
1.03424e+07
1.02618e+07
1.01843e+07
1.01093e+07
1.00366e+07
9.96557e+06
9.89612e+06
9.82798e+06
9.761e+06
9.69502e+06
9.62992e+06
9.56561e+06
9.50199e+06
9.43902e+06
9.37662e+06
9.31477e+06
9.25342e+06
9.19255e+06
9.13214e+06
9.07217e+06
9.01262e+06
8.95347e+06
8.89469e+06
8.83628e+06
8.77822e+06
8.72049e+06
8.66307e+06
8.60597e+06
8.54917e+06
8.49265e+06
8.43641e+06
8.38043e+06
8.32471e+06
8.26925e+06
8.21403e+06
8.15905e+06
8.1043e+06
8.04978e+06
7.99548e+06
7.94139e+06
7.88752e+06