/*--------------------------------*- C++ -*----------------------------------*\
| =========                 |                                                 |
| \\      /  F ield         | OpenFOAM: The Open Source CFD Toolbox           |
|  \\    /   O peration     | Version:  2.4.0                                 |
|   \\  /    A nd           | Web:      www.OpenFOAM.org                      |
|    \\/     M anipulation  |                                                 |
\*---------------------------------------------------------------------------*/
FoamFile
{
    version     2.0;
    format      ascii;
    class       volScalarField;
    location    "0.208";
    object      p;
}
// * * * * * * * * * * * * * * * * * * * * * * * * * * * * * * * * * * * * * //

dimensions      [0 2 -2 0 0 0 0];

internalField   nonuniform List<scalar> 
17600
(
94.882
79.2589
74.7834
73.6911
72.7085
71.7281
70.9413
70.0333
69.4036
68.6144
67.8587
67.1681
66.4927
65.7094
65.059
64.5163
63.7385
63.1614
62.485
62.6467
92.9743
79.309
74.8243
73.7003
72.7124
71.7282
70.942
70.0338
69.4027
68.6157
67.8579
67.1681
66.4935
65.7093
65.0575
64.5172
63.7384
63.1592
62.4881
62.6272
91.5613
79.565
74.968
73.7382
72.7266
71.732
70.9452
70.035
69.4037
68.6175
67.8572
67.1684
66.4947
65.7087
65.0562
64.5185
63.7376
63.1502
62.4953
62.6403
90.5861
79.9057
75.1885
73.8032
72.7555
71.747
70.955
70.0407
69.4087
68.6217
67.8572
67.1706
66.4956
65.709
65.0562
64.5187
63.7385
63.1344
62.5141
62.6267
89.7647
80.2396
75.454
73.885
72.7964
71.7765
70.9751
70.0548
69.42
68.6308
67.8597
67.1765
66.4963
65.7122
65.0588
64.5169
63.7435
63.1149
62.539
62.5656
88.9909
80.5313
75.7337
73.9669
72.8359
71.8145
71.004
70.078
69.4388
68.6458
67.8664
67.1875
66.4966
65.72
65.0652
64.5129
63.753
63.0946
62.5573
62.4596
88.2623
80.7779
76.013
74.0436
72.8652
71.8499
71.0358
70.107
69.463
68.6655
67.877
67.2037
66.4967
65.733
65.0765
64.5066
63.7672
63.0733
62.5595
62.2989
87.5893
80.9817
76.284
74.117
72.8849
71.8768
71.0666
70.1381
69.4893
68.6868
67.8896
67.2225
66.4958
65.7499
65.0917
64.4994
63.7845
63.0538
62.5147
62.2039
86.978
81.1459
76.5388
74.192
72.8972
71.8953
71.0934
70.1699
69.5148
68.7089
67.9015
67.2424
66.4936
65.7686
65.1079
64.493
63.8002
63.0441
62.4039
62.1276
86.43
81.2719
76.7748
74.2704
72.9044
71.9051
71.1164
70.201
69.5387
68.7312
67.9121
67.2613
66.4908
65.7865
65.1258
64.4864
63.8161
63.0261
62.3417
62.0784
85.9433
81.3633
76.9917
74.3536
72.9075
71.9073
71.1337
70.2321
69.5598
68.7533
67.9207
67.2791
66.4885
65.802
65.146
64.4795
63.8323
63.0129
62.3223
62.0448
85.5159
81.4247
77.1887
74.4433
72.9078
71.9032
71.1462
70.2626
69.5781
68.7751
67.9279
67.2951
66.4875
65.8144
65.1678
64.473
63.8473
63.0173
62.3173
62.0376
85.1456
81.4607
77.3655
74.5377
72.906
71.8943
71.1555
70.2916
69.5948
68.7954
67.9348
67.3083
66.4906
65.8248
65.191
64.4679
63.864
63.0314
62.3298
62.045
84.829
81.4766
77.5218
74.6303
72.9025
71.8828
71.1614
70.3194
69.609
68.8144
67.9415
67.3179
66.4966
65.8329
65.2158
64.4649
63.8814
63.0598
62.3384
62.0775
84.562
81.48
77.6572
74.7125
72.9
71.8702
71.1648
70.3453
69.6209
68.8318
67.9483
67.3253
66.5033
65.8401
65.2384
64.4668
63.8961
63.1035
62.3617
62.1096
84.3429
81.478
77.7691
74.7832
72.8995
71.8581
71.1659
70.3688
69.6304
68.8462
67.9573
67.3297
66.5127
65.8459
65.2612
64.471
63.9178
63.1371
62.4393
62.1194
84.1707
81.4731
77.858
74.8408
72.9005
71.8471
71.1649
70.3902
69.6372
68.8579
67.9668
67.3311
66.5247
65.8509
65.284
64.4798
63.9423
63.1723
62.5274
62.2584
84.0434
81.467
77.9237
74.8847
72.9023
71.8389
71.1626
70.4089
69.6411
68.8675
67.9761
67.3315
66.5353
65.8593
65.2994
64.4979
63.9517
63.2267
62.5318
62.2889
83.9599
81.4612
77.9671
74.9142
72.9044
71.8338
71.1591
70.4245
69.6424
68.8735
67.9873
67.3294
66.5478
65.8658
65.3141
64.5181
63.9693
63.276
62.5628
62.4716
83.9196
81.4562
77.9893
74.929
72.9062
71.8318
71.1549
70.437
69.6408
68.8767
67.9991
67.3274
66.5597
65.876
65.3276
64.5409
63.9911
63.3234
62.6381
62.6044
83.9221
81.4532
77.9901
74.9289
72.9073
71.833
71.1508
70.4456
69.6368
68.8764
68.0113
67.323
66.5722
65.8867
65.3398
64.5654
64.0179
63.3687
62.7534
62.7124
83.9672
81.4516
77.9701
74.9135
72.9078
71.8381
71.1462
70.4511
69.63
68.8733
68.0239
67.3174
66.5876
65.8991
65.3507
64.592
64.0479
63.416
62.8582
62.8834
84.0553
81.4513
77.9285
74.8837
72.9079
71.8463
71.1415
70.4528
69.6199
68.869
68.036
67.3115
66.5961
65.9165
65.3575
64.6256
64.0731
63.4766
62.9028
62.9571
84.187
81.4517
77.8644
74.84
72.9077
71.8566
71.1367
70.4504
69.6078
68.8615
68.0484
67.3048
66.6055
65.9355
65.3634
64.6596
64.1035
63.5365
62.9511
63.0917
84.3637
81.4508
77.7772
74.7827
72.9101
71.868
71.1313
70.4441
69.5928
68.8518
68.0609
67.2976
66.6154
65.9546
65.3696
64.6931
64.1407
63.5917
63.039
63.2088
84.5866
81.4477
77.6659
74.713
72.9147
71.8802
71.1251
70.4337
69.5755
68.8401
68.0728
67.29
66.6252
65.9736
65.3784
64.724
64.1846
63.6441
63.1686
63.3018
84.8569
81.4399
77.5307
74.632
72.9215
71.892
71.1177
70.4204
69.5555
68.8274
68.0833
67.2822
66.6324
65.9951
65.3868
64.7561
64.2305
63.7025
63.2871
63.4285
85.1767
81.4229
77.3733
74.5409
72.9301
71.9026
71.1087
70.404
69.5331
68.8141
68.0919
67.2746
66.6366
66.0197
65.393
64.7929
64.2741
63.7723
63.3494
63.4896
85.5493
81.3888
77.1948
74.4462
72.9391
71.9103
71.0972
70.3841
69.5096
68.7993
68.0999
67.2661
66.6407
66.0436
65.4016
64.827
64.3234
63.8439
63.4117
63.591
85.9775
81.329
76.9966
74.3545
72.9452
71.9133
71.0836
70.3609
69.4848
68.7836
68.1061
67.2567
66.6454
66.0661
65.4123
64.8582
64.3792
63.9155
63.5097
63.6739
86.4647
81.2378
76.7787
74.2682
72.9462
71.9107
71.0673
70.3349
69.4586
68.768
68.1097
67.246
66.6497
66.0879
65.4243
64.8866
64.4396
63.9887
63.6422
63.7328
87.0138
81.1112
76.5411
74.1873
72.942
71.9
71.0475
70.3079
69.4298
68.7528
68.1121
67.2338
66.6523
66.1096
65.4369
64.9116
64.5021
64.0626
63.7962
63.7706
87.6255
80.9475
76.285
74.1112
72.9314
71.8804
71.0239
70.2805
69.3996
68.7372
68.1133
67.2217
66.653
66.13
65.4493
64.9349
64.5589
64.1364
63.9291
63.8224
88.2981
80.7457
76.0134
74.0369
72.9125
71.8524
70.9964
70.2537
69.3703
68.7209
68.113
67.2112
66.6524
66.1466
65.4614
64.9557
64.6061
64.2036
64.0248
63.8411
89.0257
80.5014
75.7355
73.9581
72.8828
71.8174
70.9673
70.2281
69.3445
68.7057
68.1107
67.2041
66.6522
66.1583
65.4728
64.9727
64.6427
64.2555
64.094
63.8922
89.7987
80.2115
75.4574
73.8734
72.8428
71.7808
70.9407
70.2063
69.3258
68.6943
68.1078
67.2015
66.6529
66.1654
65.4826
64.9857
64.6679
64.2916
64.1394
63.9227
90.6194
79.8787
75.1932
73.7895
72.8015
71.7524
70.9229
70.1915
69.3158
68.6882
68.1049
67.2023
66.6546
66.1685
65.4897
64.9948
64.6824
64.3137
64.1631
63.9446
91.5934
79.5387
74.9731
73.7234
72.7723
71.7379
70.9153
70.1837
69.3128
68.6865
68.102
67.2047
66.6568
66.1684
65.4939
65.0002
64.6885
64.3244
64.1724
63.962
93.0052
79.2831
74.8292
73.6851
72.758
71.7339
70.9139
70.1802
69.3126
68.6874
68.0991
67.2065
66.659
66.1664
65.4951
65.0027
64.6891
64.3269
64.1726
63.9791
94.9125
79.2332
74.7881
73.6758
72.7543
71.7333
70.9145
70.1786
69.3125
68.6892
68.0967
67.2066
66.661
66.164
65.4946
65.0035
64.6878
64.3256
64.1694
64.0011
62.3666
62.4161
59.9411
55.5994
48.5779
39.9832
31.514
23.1888
14.7126
7.79049
4.4176
3.00881
2.0794
3.3946
6.61693
10.2181
14.7233
21.4742
29.849
38.5274
46.5657
53.2804
59.891
64.6798
68.6434
71.4942
73.8009
75.6265
76.0316
75.3393
74.0683
71.9537
68.9657
64.9746
61.3518
58.0263
52.2836
47.0058
38.4532
30.2993
21.7954
14.4379
8.80393
6.94191
8.79664
12.8135
17.5498
23.1829
30.4826
38.2472
45.3139
51.3658
56.1948
60.2825
64.0951
67.498
69.6657
71.303
72.9803
74.2845
74.8832
75.1179
74.7512
73.7807
70.8228
65.8868
60.2995
54.2041
47.0317
39.1327
30.9004
22.5419
14.6212
7.26524
0.0792723
-7.04019
-13.433
-17.6225
-18.5864
-17.0628
-14.4276
-10.4319
-4.47456
3.96693
14.089
22.9558
29.4569
34.5844
39.9104
45.2591
50.7023
56.4543
61.6582
65.8563
69.02
71.5323
73.1561
74.0281
74.4981
74.7257
74.8247
74.9289
74.6144
74.2029
74.0795
73.5395
72.7789
72.1462
71.1696
69.9328
68.6329
67.0439
65.5233
64.1372
62.7246
61.0839
59.5912
58.4352
56.6525
54.9602
54.3525
53.7753
53.797
55.3291
57.1478
58.9961
61.4233
64.0739
66.2426
68.0281
69.8298
71.4566
72.5655
73.2188
73.3639
72.8542
71.7148
69.8017
66.5081
62.3083
57.4318
51.803
45.6526
39.1241
32.7834
26.7354
21.5048
17.3762
14.2217
11.7529
10.0531
10.2178
12.5896
16.1566
20.4168
25.7213
31.9704
38.2933
44.1613
49.7181
55.2998
60.2693
63.4263
64.9591
65.66
65.789
65.6954
65.0923
63.8508
62.3075
59.8132
56.372
52.1938
47.7598
42.9605
38.116
34.1055
29.9411
26.9811
23.9739
23.3201
21.3399
22.017
21.1875
22.4557
22.1613
24.2243
26.1972
30.966
35.28
41.4447
46.7632
54.2977
60.4802
68.8926
73.3338
78.9732
80.8245
83.8824
66.1365
62.1758
61.8508
59.5698
55.8596
49.4111
41.2663
33.2221
25.5465
17.814
11.027
7.37337
6.16303
5.43593
6.47065
9.21581
12.7473
17.4189
24.2212
32.2956
40.623
48.0969
54.3317
60.5122
65.1988
68.9868
71.8269
74.2051
76.0751
76.5595
75.9256
74.9398
73.2292
70.4202
66.4279
62.9013
59.4227
54.1489
48.7578
40.2681
32.2875
23.6278
16.4712
11.1523
9.22939
10.4705
14.2431
19.2946
25.1354
32.26
39.7009
46.4801
52.3327
56.963
60.8328
64.5344
67.8712
69.9983
71.5963
73.303
74.6198
75.2555
75.5765
75.3148
74.2894
71.2402
66.1538
60.4352
54.2575
46.9402
38.824
30.4207
21.9115
13.8814
6.62018
-0.371513
-7.37668
-13.7542
-17.9957
-19.0621
-17.7358
-15.2264
-11.1156
-4.95294
3.73425
13.933
22.8329
29.3129
34.533
40.0504
45.4877
51.0496
56.8993
62.1849
66.4025
69.5678
72.0692
73.7433
74.6517
75.1211
75.3535
75.458
75.5422
75.1504
74.6467
74.4395
73.8308
73.0071
72.3805
71.4378
70.17
68.8796
67.3386
65.8476
64.4698
63.1603
61.7689
60.504
59.5763
58.0206
56.4457
55.8486
55.2818
55.3407
56.8201
58.5517
60.3983
62.7122
65.1176
67.117
68.8211
70.5138
72.0395
73.0443
73.6348
73.7235
73.0934
71.8826
69.8373
66.3166
62.022
56.9716
51.2561
44.9824
38.194
31.671
25.5556
20.2173
15.9066
12.539
9.84569
7.97876
8.02714
10.3712
14.1186
18.6209
24.0247
30.3999
37.0426
43.1111
48.7385
54.4585
59.6555
62.9764
64.5986
65.4522
65.6079
65.5216
65.0102
63.7556
62.3813
59.9313
56.6413
52.5124
48.225
43.6664
38.7993
35.0809
30.6118
27.9793
24.8155
24.4216
22.4286
22.9965
22.291
23.3695
22.9494
24.9214
26.9379
31.2394
35.1533
40.5988
45.5388
52.8331
57.9862
67.0344
70.368
77.4761
77.521
79.8242
60.3852
61.7846
60.9245
58.9153
55.8994
50.0726
42.2449
34.5528
27.4959
20.3322
13.7752
10.0223
8.85318
8.28618
9.24133
11.81
15.4839
20.4116
27.0323
34.5994
42.5092
49.4919
55.3024
61.124
65.7885
69.3146
72.2022
74.5849
76.484
77.0515
76.4934
75.7626
74.4206
71.7938
68.0244
64.5511
60.9003
56.2582
50.5065
42.6179
34.3452
25.7822
18.806
13.8632
11.8879
12.4908
15.969
21.2582
27.3058
34.225
41.2629
47.6639
53.2603
57.7309
61.4353
65.0019
68.2218
70.3218
71.9127
73.6818
75.0083
75.6996
76.0997
75.9528
74.874
71.7251
66.4769
60.6033
54.3549
46.917
38.6583
30.1468
21.5459
13.3999
6.18024
-0.535971
-7.31013
-13.6002
-17.9072
-19.2414
-18.2347
-15.809
-11.5121
-5.11305
3.80855
14.0444
22.8653
29.2791
34.6199
40.2864
45.786
51.4882
57.4065
62.7595
66.9735
70.1092
72.5917
74.3071
75.2293
75.6992
75.9153
76.0458
76.13
75.6591
75.0849
74.7889
74.1271
73.2655
72.6238
71.7023
70.4166
69.1397
67.6655
66.2007
64.8318
63.5949
62.401
61.3265
60.5533
59.1971
57.7784
57.1722
56.6229
56.7499
58.1628
59.8104
61.6663
63.8682
66.0481
67.9023
69.5395
71.1431
72.5976
73.5327
74.0814
74.1393
73.404
72.1192
69.9558
66.2275
61.8215
56.6049
50.8306
44.4479
37.4874
30.754
24.4823
19.0501
14.5578
10.9851
8.07822
6.03082
5.99874
8.38055
12.3315
17.0455
22.5239
29.0787
36.0461
42.294
47.9888
53.8946
59.2349
62.6623
64.436
65.356
65.5503
65.3921
64.9885
63.7229
62.5012
60.0788
56.9993
53.0053
48.7733
44.4609
39.4487
36.086
31.3682
28.9513
25.7771
25.4917
23.5636
23.7597
23.4151
24.1323
23.7811
25.5481
27.774
31.4433
35.0582
39.8087
44.3843
50.6518
54.7845
63.1222
65.6482
74.7442
72.1643
72.9075
57.0446
61.2091
60.032
58.3796
55.8557
50.416
42.7869
35.503
28.8904
22.2824
16.1902
12.4776
11.3942
11.1583
12.1329
14.6582
18.5505
23.59
29.7835
36.7124
44.1357
50.7559
56.1552
61.6559
66.3966
69.6113
72.5684
74.9735
76.8899
77.5153
77.0723
76.5312
75.4179
72.8598
69.507
66.3949
62.5722
58.631
52.3308
45.146
36.5638
28.2288
21.4079
16.8402
14.7963
14.8294
18.0106
23.4667
29.6648
36.3274
42.8987
48.8937
54.2073
58.4945
62.0476
65.4777
68.5855
70.6494
72.2442
74.0798
75.4517
76.2041
76.6895
76.6484
75.5325
72.2689
66.874
60.8567
54.558
47.0043
38.6028
30.029
21.3934
13.139
5.96411
-0.505611
-6.95444
-13.0552
-17.4423
-19.1601
-18.5124
-16.1187
-11.6078
-4.94705
4.20859
14.4085
23.0349
29.378
34.8422
40.6033
46.1796
52.0213
57.9671
63.3754
67.5573
70.6456
73.1239
74.8469
75.7841
76.2398
76.4216
76.5929
76.6775
76.1381
75.5121
75.1166
74.4351
73.5501
72.865
71.9559
70.6729
69.4353
68.034
66.6095
65.2783
64.0765
63.03
62.091
61.4006
60.2167
58.9681
58.3482
57.7981
58.0166
59.3971
60.9241
62.7671
64.9072
66.8769
68.5942
70.1844
71.7216
73.1146
73.9975
74.5272
74.5934
73.7751
72.4016
70.1327
66.3001
61.7141
56.3167
50.5092
44.0565
36.975
30.0716
23.592
18.038
13.3823
9.57493
6.46249
4.29481
4.22157
6.67667
10.8371
15.7244
21.2791
28.0563
35.3165
41.7207
47.5422
53.564
59.044
62.6244
64.4652
65.354
65.6121
65.3851
65.0529
63.7892
62.679
60.3512
57.4392
53.6735
49.3281
45.2915
40.1475
37.081
32.2639
29.9083
26.8266
26.4424
24.681
24.4206
24.3492
24.5654
24.4797
26.053
28.3912
31.6089
34.7195
38.811
43.1792
48.2509
51.5393
57.3473
59.9381
69.1457
64.7954
62.3399
53.0997
60.6724
59.2523
57.8853
55.6912
50.532
43.2609
36.3687
30.2029
24.2882
18.717
15.0696
14.2131
14.3712
15.3412
17.7407
21.7204
26.6958
32.3692
38.6527
45.5115
51.8482
56.923
62.0772
66.9219
69.9428
72.9351
75.3244
77.2836
77.9633
77.6902
77.318
76.2974
73.7961
70.9378
68.1289
64.5299
60.8817
54.2722
47.586
39.0077
30.9297
24.256
19.9938
17.8584
17.478
20.3878
25.9175
32.1635
38.5215
44.5992
50.1486
55.1468
59.2549
62.6688
65.9704
68.9637
70.9814
72.5719
74.4785
75.9464
76.7558
77.3269
77.3925
76.2394
72.899
67.4073
61.2758
54.913
47.2576
38.7095
30.0296
21.4087
13.0675
5.93317
-0.287219
-6.4089
-12.2505
-16.6742
-18.7665
-18.4945
-16.0818
-11.351
-4.41145
4.9492
14.9903
23.3461
29.6169
35.199
41.0079
46.6686
52.6327
58.5804
64.0375
68.1546
71.1978
73.6597
75.3586
76.3265
76.7423
76.8864
77.1002
77.1829
76.6012
75.9272
75.4294
74.7595
73.8475
73.0962
72.1936
70.9593
69.7839
68.4436
67.0881
65.8
64.6113
63.6581
62.8067
62.1486
61.0977
60.026
59.4011
58.8382
59.1786
60.511
61.8974
63.74
65.805
67.5728
69.2068
70.7866
72.2662
73.6166
74.4636
74.9665
75.0766
74.211
72.7172
70.3617
66.5008
61.722
56.1387
50.2913
43.7659
36.5925
29.5267
22.9038
17.2242
12.4023
8.40046
5.0746
2.81518
2.77536
5.3422
9.68555
14.6856
20.363
27.3549
34.8259
41.3889
47.3544
53.5349
59.0014
62.8186
64.7164
65.4578
65.8208
65.5194
65.2312
63.9992
62.9329
60.8336
57.8814
54.4361
49.9598
46.2321
41.0018
38.1379
33.3835
30.7841
27.9033
27.1192
25.6373
25.1339
25.0365
24.9063
25.1148
26.5724
28.7866
31.7638
34.0859
38.0538
41.5385
45.8648
48.5823
51.9946
55.9819
59.8041
57.2669
54.6797
48.6837
60.2301
58.6172
57.4172
55.4549
50.6269
43.8401
37.3325
31.6897
26.4475
21.3541
17.9071
17.304
17.6994
18.6444
20.9196
24.77
29.5575
34.7095
40.4356
46.7119
52.7432
57.6178
62.4983
67.2613
70.2551
73.2868
75.6917
77.6268
78.4173
78.3117
78.1485
77.2917
74.9124
72.5145
69.8598
66.8152
62.8858
56.321
49.8149
41.6774
33.8863
27.3269
23.2467
21.0308
20.4225
23.1114
28.6003
34.752
40.7555
46.3414
51.424
56.0819
60.0175
63.2831
66.469
69.3759
71.3594
72.9203
74.8815
76.4745
77.3617
78.0084
78.1702
76.9909
73.6069
68.0394
61.8016
55.3549
47.6926
39.0171
30.2181
21.5667
13.2057
6.0886
0.0787672
-5.68631
-11.2507
-15.6658
-18.0635
-18.0971
-15.6199
-10.6837
-3.4568
6.02376
15.7384
23.7861
30.0045
35.6718
41.4837
47.2615
53.3176
59.2392
64.7419
68.7688
71.7717
74.1783
75.8487
76.8436
77.2107
77.3256
77.5818
77.6586
77.0677
76.3268
75.7293
75.0916
74.1493
73.3181
72.4442
71.2892
70.1766
68.8981
67.6262
66.3826
65.1912
64.2791
63.4776
62.8112
61.8905
60.9826
60.3417
59.8026
60.2386
61.4962
62.7704
64.5756
66.5569
68.1952
69.7504
71.2939
72.7377
74.0687
74.9127
75.3779
75.527
74.6767
73.0695
70.6381
66.7517
61.8456
56.1552
50.2217
43.5913
36.3433
29.0996
22.3487
16.646
11.6664
7.48131
4.02122
1.71794
1.74298
4.4436
8.90174
13.9786
19.7647
26.9497
34.5835
41.3378
47.4215
53.7549
59.2674
63.1448
65.1745
65.7485
66.1321
65.7998
65.4767
64.4199
63.2288
61.3929
58.3286
55.2116
50.6361
47.2768
41.9648
39.2134
34.7252
31.6913
28.9199
27.6404
26.486
25.9518
25.4658
25.3901
25.902
27.1768
28.8687
31.3995
33.6874
37.4081
40.0034
43.0543
45.7498
48.3441
52.2433
50.6683
53.305
49.4283
45.3035
59.9641
58.1837
56.9858
55.1875
50.7289
44.4938
38.4708
33.3985
28.7325
24.1972
20.9972
20.423
20.9888
21.9847
24.0851
27.5929
32.0829
36.8126
41.9916
47.7063
53.4705
58.1888
62.9335
67.5244
70.5316
73.5145
76.0605
77.9112
78.9019
78.9602
79.0106
78.4491
76.3845
74.2299
72.1318
69.5323
64.7698
58.292
51.9834
44.5628
37.0097
30.5193
26.5491
24.3005
23.6563
26.1786
31.4939
37.3938
42.978
48.1129
52.7427
57.012
60.7677
63.915
66.9647
69.7731
71.731
73.2954
75.311
77.0235
78.0035
78.7262
78.9722
77.7924
74.3557
68.6784
62.3383
55.8676
48.2855
39.538
30.6392
21.9437
13.5572
6.46769
0.618624
-4.82592
-10.0382
-14.4055
-16.9933
-17.2006
-14.6521
-9.56027
-2.05728
7.36441
16.6208
24.3702
30.534
36.2276
42.0521
47.9744
54.0634
59.9536
65.48
69.3891
72.3575
74.6783
76.3238
77.3275
77.6533
77.7501
78.0378
78.1123
77.5378
76.7031
76.0191
75.4191
74.463
73.5628
72.7192
71.6418
70.5876
69.3796
68.2245
67.0278
65.8247
64.904
64.1072
63.4288
62.6264
61.8573
61.2141
60.7176
61.2212
62.3902
63.5474
65.3061
67.2046
68.7304
70.245
71.763
73.1694
74.4598
75.313
75.7624
75.9288
75.1182
73.4459
70.9509
67.0105
62.0359
56.3814
50.3334
43.6159
36.3157
28.8975
21.9832
16.2702
11.239
6.91
3.35105
1.10081
1.23651
4.01916
8.51656
13.6081
19.4873
26.8311
34.6563
41.58
47.7966
54.2151
59.7662
63.7041
65.8248
66.2176
66.5791
66.2171
65.8121
64.9159
63.5993
62.022
58.7492
56.0255
51.2522
48.3128
43.0297
40.2168
36.153
32.652
29.8021
28.2871
27.4636
26.6166
25.8149
25.9621
26.8033
27.6626
28.7685
30.5029
33.5086
36.3191
39.0666
40.2187
43.5356
45.1787
48.4943
47.9497
53.1819
46.6067
43.8418
60.0102
58.0154
56.4559
54.7504
50.7429
45.1789
39.8333
35.1933
31.0667
27.1241
24.1626
23.5048
24.2134
25.2702
27.0789
30.1556
34.3028
38.7206
43.4103
48.515
54.0264
58.6519
63.1889
67.673
70.7779
73.6743
76.3439
78.1462
79.3825
79.651
79.9769
79.8043
78.2198
76.2339
74.9554
72.2562
66.5632
60.3257
54.3479
47.4244
40.1175
33.7989
29.9115
27.6771
27.1726
29.5637
34.5565
40.0838
45.2025
49.8625
54.0836
57.9937
61.5167
64.5146
67.4191
70.1503
72.0842
73.6665
75.7297
77.5623
78.6597
79.4653
79.7924
78.6226
75.1099
69.3061
62.8953
56.4673
48.9896
40.2281
31.2675
22.5577
14.1688
7.08239
1.37972
-3.81313
-8.6444
-12.8301
-15.4687
-15.7342
-13.1406
-7.92408
-0.22942
8.89954
17.6291
25.1007
31.1776
36.8599
42.7314
48.807
54.8677
60.7355
66.2265
70.0229
72.9506
75.1723
76.799
77.7917
78.0794
78.1608
78.4511
78.5331
77.9813
77.057
76.3109
75.7497
74.794
73.836
73.0088
71.9881
70.9791
69.8995
68.8788
67.7178
66.4827
65.5144
64.728
64.0385
63.3173
62.66
62.0319
61.6047
62.1541
63.1987
64.2679
65.9761
67.7545
69.1934
70.7056
72.192
73.567
74.8313
75.686
76.1271
76.2923
75.5154
73.7991
71.2681
67.2965
62.2586
56.6922
50.5867
43.8286
36.5788
28.9714
21.921
16.1481
11.0994
6.75377
3.17972
1.01593
1.2752
4.08816
8.53762
13.5744
19.5249
27.0212
35.052
42.1167
48.4243
54.9727
60.5496
64.3673
66.6607
66.9379
67.1374
66.7825
66.2124
65.4883
63.9716
62.6929
59.1654
56.799
51.9931
49.2506
44.146
41.0987
37.5152
33.7439
30.8075
29.2913
28.6217
27.1341
26.2366
26.6136
27.5074
27.8661
28.958
30.1064
33.9005
35.6569
38.364
38.6626
42.5931
43.4075
48.1586
48.7566
52.8693
45.8639
43.6828
60.4925
58.4484
56.0763
54.1545
50.6458
45.8368
41.1367
36.9646
33.345
29.9167
27.2114
26.5101
27.2104
28.2746
29.8176
32.4874
36.2773
40.3939
44.6891
49.257
54.4654
59.0822
63.3162
67.5844
70.8496
73.8014
76.531
78.359
79.8211
80.3509
80.9903
81.3985
80.3701
78.7673
78.1082
74.9143
68.8206
62.735
56.6874
50.0483
43.2342
37.2027
33.3617
31.2896
30.9271
33.1767
37.7486
42.8006
47.4247
51.5822
55.3787
58.9522
62.2576
65.1035
67.8384
70.4782
72.4068
74.0434
76.1564
78.0819
79.3001
80.199
80.6018
79.4543
75.8792
70.0111
63.5388
57.0971
49.764
41.0206
32.0465
23.3574
15.0544
7.9683
2.34385
-2.61418
-7.07538
-10.944
-13.4553
-13.6575
-11.0697
-5.76846
1.933
10.5501
18.7551
25.9651
31.8989
37.5729
43.535
49.755
55.7268
61.6046
66.9749
70.6811
73.5415
75.6645
77.2923
78.2485
78.496
78.5498
78.8159
78.9204
78.3759
77.4
76.6298
76.0981
75.1278
74.119
73.295
72.3194
71.3865
70.4802
69.5304
68.382
67.1111
66.1265
65.3573
64.67
63.9969
63.4057
62.8197
62.4823
63.0226
63.9485
64.9615
66.575
68.2347
69.6346
71.1346
72.5668
73.9051
75.1569
76.016
76.4489
76.607
75.8739
74.1182
71.5504
67.6161
62.5336
56.9749
50.8639
44.1449
37.0357
29.2947
22.1372
16.3349
11.2899
6.98515
3.52065
1.51544
1.85837
4.64275
8.94783
13.8691
19.8829
27.5356
35.7464
42.9577
49.3379
55.9305
61.726
65.2885
67.5607
67.9098
67.7715
67.5633
66.665
66.0551
64.3248
63.2901
59.6555
57.5306
52.8188
50.186
45.2587
42.0899
38.6375
34.8717
31.8588
30.4389
29.7872
27.6572
26.7841
27.3378
28.2683
28.1692
29.8172
30.8716
34.5405
35.8583
38.3565
38.972
43.2039
44.5884
49.9696
49.0309
52.15
46.328
43.5
60.8869
58.809
55.9357
53.7298
50.5787
46.468
42.405
38.6841
35.5199
32.4874
30.0555
29.3292
29.852
30.9224
32.3168
34.5565
37.9901
41.8623
45.8021
49.8688
54.7826
59.4129
63.4776
67.4614
70.7268
73.7994
76.6129
78.5643
80.1897
81.0425
82.0177
83.0338
82.5234
81.3528
81.0323
77.7415
71.6341
65.0932
58.7691
52.6762
46.4556
40.7774
36.9415
35.0274
34.8509
36.9482
40.9828
45.4836
49.6013
53.2489
56.6031
59.8616
62.9662
65.6436
68.2151
70.7838
72.7195
74.398
76.5636
78.586
79.9181
80.9083
81.3733
80.2519
76.6728
70.8263
64.2399
57.7163
50.554
41.9304
32.9338
24.3209
16.1944
9.13394
3.54136
-1.23435
-5.32624
-8.78648
-11.018
-11.0513
-8.49519
-3.17204
4.27622
12.258
20.0112
26.9225
32.6842
38.3924
44.4718
50.7956
56.6524
62.5543
67.7176
71.3525
74.1172
76.1581
77.7975
78.6919
78.9018
78.9183
79.1641
79.2859
78.7266
77.7433
76.9706
76.4352
75.4512
74.4089
73.5864
72.6899
71.8505
71.034
70.0798
68.9635
67.7053
66.7336
65.9891
65.3062
64.6473
64.1149
63.6117
63.3554
63.8529
64.663
65.6283
67.1334
68.653
70.0363
71.5618
72.9509
74.225
75.4482
76.3104
76.7427
76.9023
76.2098
74.4257
71.793
67.9333
62.8962
57.3004
51.1248
44.5095
37.5322
29.7741
22.6134
16.7647
11.7931
7.61789
4.31756
2.54156
2.92954
5.59998
9.65625
14.4472
20.5586
28.339
36.725
44.0674
50.5687
57.0788
63.111
66.5009
68.5804
68.9786
68.509
68.4597
67.2268
66.6812
64.7747
63.7977
60.3019
58.2828
53.7041
51.0842
46.3982
43.134
39.4892
35.8213
33.0179
31.5832
31.0037
28.5877
27.7367
28.0528
29.3346
29.1071
31.1028
32.4747
35.1721
36.1489
39.453
40.7589
45.0301
46.6366
51.0939
48.6754
52.0568
46.9165
42.6201
61.1689
59.1394
55.9876
53.5503
50.6454
47.1107
43.5615
40.3232
37.5479
34.8551
32.7046
31.8672
32.2229
33.2919
34.585
36.4615
39.5509
43.1607
46.7901
50.4
55.0213
59.6198
63.5022
67.388
70.6292
73.6929
76.5699
78.715
80.5031
81.6804
83.0305
84.5229
84.4536
83.5685
83.3148
80.4152
74.2691
67.2558
61.0401
55.5389
49.8287
44.496
40.5962
38.8147
38.8529
40.7514
44.197
48.0961
51.6734
54.8636
57.8089
60.7314
63.6406
66.1651
68.5548
71.0252
72.9839
74.7228
76.9391
79.0505
80.4904
81.5622
82.0859
81.0062
77.4778
71.6684
64.9703
58.3993
51.3801
42.9627
33.9675
25.4702
17.5545
10.5584
4.98661
0.344301
-3.43507
-6.45055
-8.288
-8.09703
-5.56431
-0.344855
6.63937
14.0143
21.3666
27.928
33.5611
39.3284
45.5232
51.895
57.6528
63.5582
68.4681
72.0172
74.6592
76.6505
78.281
79.1114
79.2943
79.2814
79.5354
79.6381
79.0569
78.0735
77.289
76.732
75.7757
74.7242
73.9112
73.0908
72.3025
71.4762
70.5324
69.4855
68.2936
67.3655
66.6237
65.9081
65.2503
64.7885
64.4148
64.2238
64.6378
65.3482
66.2881
67.6637
69.0344
70.4218
71.9753
73.3113
74.513
75.7181
76.5765
76.9988
77.1399
76.4843
74.7184
72.0094
68.2135
63.3327
57.7906
51.5402
44.9622
38.0864
30.3776
23.2909
17.4152
12.5213
8.56592
5.50625
3.93807
4.36564
6.85035
10.6127
15.3122
21.5316
29.457
37.9796
45.4404
52.0485
58.4918
64.683
67.7917
69.6786
70.1669
69.2432
69.362
67.8985
67.304
65.3134
64.2606
61.0891
58.9779
54.7459
51.7604
47.5127
44.1212
40.6288
37.1446
34.6334
32.9286
32.1669
30.1438
29.2785
28.9016
30.6402
30.6679
32.4588
33.9342
36.5298
36.9477
40.9764
42.7947
46.7317
47.1807
50.0883
48.8608
51.6718
46.9302
41.4994
61.3077
59.3912
56.1844
53.5815
50.8736
47.7617
44.6296
41.846
39.3648
37.0012
35.156
34.2283
34.4604
35.4805
36.6503
38.2333
40.979
44.3162
47.6434
50.9146
55.2002
59.7698
63.3746
67.1132
70.5255
73.593
76.4563
78.776
80.758
82.2408
83.9476
85.7845
86.0989
85.5546
85.368
82.8591
76.7559
69.7641
63.8542
58.5326
53.266
48.2411
44.3097
42.6281
42.8259
44.4922
47.3257
50.6188
53.6679
56.4113
58.9982
61.6141
64.2834
66.6202
68.85
71.2385
73.1943
74.9699
77.2485
79.45
80.994
82.1387
82.7087
81.6939
78.2278
72.442
65.7426
59.1913
52.2984
44.1159
35.2173
26.8512
19.097
12.2469
6.68345
2.11175
-1.42334
-4.04945
-5.44947
-5.00235
-2.43055
2.45571
8.93676
15.7994
22.7455
28.9686
34.5435
40.3792
46.6831
53.0417
58.7447
64.5795
69.2244
72.6734
75.1762
77.1342
78.7216
79.5103
79.6807
79.6687
79.9437
79.9821
79.3864
78.388
77.5744
77.0039
76.118
75.0533
74.2423
73.448
72.6851
71.8615
70.9635
69.9767
68.8664
67.9876
67.2393
66.5011
65.8473
65.4416
65.1962
65.0392
65.3587
66.0154
66.9194
68.1511
69.4018
70.8
72.3717
73.6498
74.7572
75.9439
76.8024
77.2137
77.3286
76.7065
75.0034
72.2552
68.4904
63.7592
58.3849
52.2208
45.6413
38.8089
31.2271
24.1398
18.2294
13.4663
9.73009
6.93474
5.60049
6.01732
8.26998
11.7726
16.4278
22.7677
30.8849
39.4443
47.0392
53.7981
60.1751
66.4143
69.391
70.7915
71.4071
70.2363
70.2987
68.7913
67.979
65.9123
64.7451
61.9347
59.7702
55.9964
52.3076
48.5585
45.2767
42.1178
38.7996
36.3048
34.2349
33.0969
31.6347
31.1148
30.2717
32.5644
32.4758
33.8226
34.8865
38.0372
38.9131
42.3466
43.9437
46.9423
46.7985
49.6904
49.1464
50.2628
46.2918
40.5577
61.3802
59.638
56.4812
53.7473
51.2022
48.4207
45.629
43.2047
40.9985
38.9764
37.4153
36.4797
36.5596
37.4392
38.5027
39.8814
42.2443
45.3039
48.3469
51.3333
55.2832
59.7188
63.1903
66.7133
70.2215
73.3878
76.3027
78.7801
80.9184
82.669
84.7089
86.71
87.3343
87.1708
87.2932
85.1516
79.3319
72.6493
66.9137
61.501
56.6987
51.9274
48.0158
46.4357
46.7189
48.0797
50.3259
53.0399
55.5841
57.8995
60.1389
62.4523
64.8807
67.0214
69.0736
71.3856
73.3593
75.1641
77.4819
79.75
81.3886
82.6039
83.2093
82.2698
78.8735
73.1672
66.5276
60.0148
53.3169
45.4415
36.7099
28.4763
20.8444
14.186
8.63265
4.0725
0.696473
-1.63092
-2.64866
-1.97316
0.601384
5.15629
11.1342
17.5666
24.1076
30.0617
35.6576
41.5588
47.9494
54.216
59.9167
65.5888
70.0113
73.3362
75.679
77.6013
79.1281
79.8906
80.0684
80.0835
80.3345
80.3068
79.7339
78.7134
77.8596
77.2786
76.4521
75.3689
74.537
73.7597
73.035
72.2447
71.3751
70.4184
69.3826
68.5606
67.8406
67.0994
66.4487
66.0727
65.9006
65.763
65.9997
66.6302
67.527
68.6271
69.7417
71.1509
72.7485
73.9649
74.9646
76.1166
76.975
77.3854
77.4954
76.8872
75.2502
72.5495
68.853
64.1955
58.9961
53.0301
46.5447
39.7502
32.3139
25.2547
19.1912
14.5617
11.0749
8.49464
7.33412
7.74282
9.77024
13.0879
17.7654
24.2225
32.5602
41.129
48.8101
55.8102
62.1319
68.1992
71.3059
72.0579
72.6915
71.6231
71.4458
69.8291
68.6018
66.6082
65.3073
62.6189
60.7368
57.1675
53.1021
49.5767
46.4243
43.3486
40.166
37.9762
35.6279
34.277
33.1451
32.8968
31.9259
34.583
34.2812
34.8645
35.9648
39.2193
40.5127
43.3982
44.283
46.2896
46.6034
49.1716
48.8248
48.0639
45.3425
39.8734
61.4228
59.8418
56.8386
54.0452
51.6111
49.1137
46.5898
44.4503
42.5213
40.8368
39.496
38.542
38.4755
39.221
40.206
41.4308
43.4189
46.1491
48.969
51.6702
55.2997
59.4865
62.8222
66.2894
69.8408
72.9854
75.9882
78.7124
81.012
82.9596
85.2722
87.3913
88.232
88.4149
88.8147
87.0563
81.6892
75.5123
69.8322
64.4746
60.0119
55.4712
51.7102
50.2241
50.4583
51.4727
53.1699
55.337
57.4277
59.3349
61.2205
63.2496
65.4223
67.345
69.2261
71.4647
73.4657
75.291
77.6157
79.9231
81.6422
82.9229
83.5531
82.6757
79.3808
73.8567
67.2729
60.7908
54.3833
46.9139
38.3684
30.3197
22.8378
16.3684
10.7862
6.23577
2.9095
0.799213
0.0433291
0.874465
3.42298
7.68959
13.2186
19.2888
25.4638
31.2609
36.9181
42.856
49.2996
55.4159
61.1294
66.5689
70.8241
73.9851
76.1722
78.0463
79.5103
80.2382
80.4342
80.4738
80.658
80.6158
80.0822
79.041
78.1387
77.5478
76.7547
75.6716
74.8092
74.0668
73.3747
72.6125
71.742
70.7999
69.8425
69.0844
68.4028
67.672
67.0312
66.6504
66.4931
66.3925
66.5874
67.1859
68.0881
69.0979
70.08
71.4686
73.0773
74.2361
75.1422
76.2411
77.0891
77.4892
77.5916
76.9999
75.4369
72.8263
69.3077
64.7806
59.6705
53.8643
47.5137
40.8469
33.5217
26.5441
20.3749
15.7866
12.5217
10.1231
9.09109
9.47639
11.3458
14.5782
19.2875
25.9221
34.4542
43.023
50.7415
58.0025
64.4516
69.9916
73.199
73.53
74.1593
73.0605
72.6834
70.5608
69.0516
67.1946
65.892
63.0099
61.3691
57.9077
53.9813
50.3648
47.6883
44.3657
41.3377
40.0761
37.4322
35.9583
35.0708
34.5642
33.4839
36.0122
35.7453
36.0157
37.1716
40.3582
41.3457
43.5769
44.3978
45.5774
46.2132
48.0132
47.9118
45.9355
44.3782
39.3702
61.427
59.966
57.2174
54.4645
52.12
49.846
47.5475
45.6575
43.9805
42.5669
41.3659
40.4065
40.277
40.9034
41.7922
42.8405
44.5081
46.9116
49.501
51.9989
55.2789
59.1804
62.3303
65.6991
69.366
72.527
75.5562
78.4744
80.9579
83.115
85.5275
87.8957
89.0501
89.6325
90.0587
88.4697
83.6862
78.1701
72.5429
67.3756
63.1233
58.9259
55.3799
53.9498
53.9995
54.6179
55.8502
57.5195
59.1703
60.74
62.2841
63.9935
65.9129
67.6219
69.3147
71.4437
73.4786
75.3435
77.6335
79.9321
81.7294
83.0683
83.6955
82.8681
79.7256
74.469
67.9966
61.5726
55.3992
48.3816
40.0916
32.3182
25.0588
18.7413
13.1226
8.61107
5.26376
3.25646
2.61779
3.52656
6.02067
10.0793
15.2062