/*--------------------------------*- C++ -*----------------------------------*\
| =========                 |                                                 |
| \\      /  F ield         | OpenFOAM: The Open Source CFD Toolbox           |
|  \\    /   O peration     | Version:  2.4.0                                 |
|   \\  /    A nd           | Web:      www.OpenFOAM.org                      |
|    \\/     M anipulation  |                                                 |
\*---------------------------------------------------------------------------*/
FoamFile
{
    version     2.0;
    format      ascii;
    class       volVectorField;
    location    "0.208";
    object      U;
}
// * * * * * * * * * * * * * * * * * * * * * * * * * * * * * * * * * * * * * //

dimensions      [0 1 -1 0 0 0 0];

internalField   nonuniform List<vector> 
17600
(
(5.32715 0.309508 0)
(2.98597 0.0605372 0)
(2.19313 -0.00144432 0)
(1.85239 -0.00374881 0)
(1.70296 -0.00115146 0)
(1.61347 6.03927e-05 0)
(1.53923 -0.000656164 0)
(1.47486 0.00103446 0)
(1.44532 -0.00128137 0)
(1.39092 0.000753283 0)
(1.3945 -0.000220419 0)
(1.32934 2.52919e-05 0)
(1.36936 -0.000308961 0)
(1.28393 0.000736215 0)
(1.3327 -1.94751e-05 0)
(1.27302 -0.000873776 0)
(1.31323 0.00101824 0)
(1.23337 0.00144497 0)
(1.37071 0.00330234 0)
(0.849358 -0.04433 0)
(8.59646 0.872103 0)
(6.95236 0.383289 0)
(5.80035 0.122045 0)
(5.0694 0.0501231 0)
(4.64026 0.0288129 0)
(4.3879 0.0209871 0)
(4.18009 0.0147532 0)
(4.00344 0.0147741 0)
(3.92888 0.00670407 0)
(3.75345 0.00881925 0)
(3.78714 0.00647185 0)
(3.58011 0.0037843 0)
(3.70664 0.00445561 0)
(3.45431 0.00597931 0)
(3.61225 0.00123675 0)
(3.42463 0.000388229 0)
(3.54338 0.00649395 0)
(3.32467 -0.00660878 0)
(3.73674 0.0400262 0)
(2.64974 -0.123005 0)
(9.85281 1.02242 0)
(9.35174 0.577316 0)
(8.45505 0.24166 0)
(7.66418 0.128678 0)
(7.07185 0.0829169 0)
(6.7102 0.0578956 0)
(6.40982 0.0430486 0)
(6.13828 0.0369668 0)
(6.04706 0.0234449 0)
(5.74801 0.0220964 0)
(5.83655 0.0190056 0)
(5.48119 0.0110885 0)
(5.70068 0.0130221 0)
(5.29851 0.0149164 0)
(5.54754 0.0031822 0)
(5.25908 0.00456627 0)
(5.42552 0.0156598 0)
(5.12759 -0.0200582 0)
(5.62469 0.0712272 0)
(4.73296 -0.138222 0)
(10.1526 0.948015 0)
(10.5823 0.668973 0)
(10.2293 0.330927 0)
(9.67594 0.207935 0)
(9.09173 0.149486 0)
(8.70705 0.106314 0)
(8.374 0.082616 0)
(8.02449 0.065516 0)
(7.95888 0.0483467 0)
(7.53251 0.0396464 0)
(7.69964 0.0367703 0)
(7.20377 0.0221354 0)
(7.5071 0.0244289 0)
(6.99156 0.0279919 0)
(7.29178 0.0055433 0)
(6.95351 0.0121515 0)
(7.10896 0.0255713 0)
(6.83729 -0.0279978 0)
(7.2063 0.0802211 0)
(6.75582 -0.130139 0)
(10.0602 0.805586 0)
(10.945 0.670931 0)
(11.0894 0.357775 0)
(10.9377 0.252878 0)
(10.5474 0.206617 0)
(10.2554 0.153628 0)
(9.988 0.127121 0)
(9.59174 0.0963722 0)
(9.60988 0.0781905 0)
(9.07386 0.0604533 0)
(9.329 0.0570157 0)
(8.7369 0.0369293 0)
(9.09208 0.0367493 0)
(8.52719 0.0451927 0)
(8.82505 0.00716431 0)
(8.5007 0.0238899 0)
(8.59104 0.0332868 0)
(8.40859 -0.0269831 0)
(8.61108 0.0729398 0)
(8.48495 -0.0879435 0)
(9.96439 0.690357 0)
(10.8958 0.638584 0)
(11.2511 0.335617 0)
(11.4211 0.246635 0)
(11.2988 0.230648 0)
(11.1891 0.180619 0)
(11.1109 0.164489 0)
(10.7272 0.12231 0)
(10.8897 0.106525 0)
(10.3088 0.0828376 0)
(10.6403 0.0761083 0)
(10.0318 0.0546534 0)
(10.3963 0.0478372 0)
(9.86089 0.0655982 0)
(10.1136 0.00771929 0)
(9.84429 0.0384004 0)
(9.87016 0.038916 0)
(9.7597 -0.0208343 0)
(9.87674 0.0602932 0)
(9.87812 -0.0251415 0)
(9.93384 0.599692 0)
(10.787 0.605978 0)
(11.1535 0.308012 0)
(11.4425 0.212751 0)
(11.4776 0.222338 0)
(11.484 0.175721 0)
(11.6468 0.181504 0)
(11.3192 0.132451 0)
(11.6587 0.121384 0)
(11.1436 0.101171 0)
(11.5306 0.0877287 0)
(11.0093 0.071979 0)
(11.3495 0.055477 0)
(10.919 0.0860061 0)
(11.1161 0.00818501 0)
(10.9081 0.0513723 0)
(10.9212 0.0456068 0)
(10.8454 -0.0184478 0)
(10.9449 0.056045 0)
(10.9054 0.0461899 0)
(9.92927 0.519622 0)
(10.7033 0.568389 0)
(11.0295 0.292937 0)
(11.3508 0.180031 0)
(11.4597 0.209398 0)
(11.436 0.152337 0)
(11.7514 0.182485 0)
(11.4686 0.12767 0)
(11.8803 0.116732 0)
(11.5389 0.10848 0)
(11.9159 0.0866378 0)
(11.5771 0.0810185 0)
(11.8718 0.0563089 0)
(11.6138 0.0991816 0)
(11.7647 0.00832457 0)
(11.6197 0.0613996 0)
(11.6805 0.0474227 0)
(11.6304 -0.0109851 0)
(11.714 0.0433495 0)
(11.602 0.16272 0)
(9.93194 0.448045 0)
(10.6383 0.524769 0)
(10.9314 0.283322 0)
(11.2433 0.146421 0)
(11.4256 0.197689 0)
(11.364 0.129171 0)
(11.6838 0.17333 0)
(11.5002 0.12468 0)
(11.7766 0.0974201 0)
(11.6573 0.110235 0)
(11.9237 0.0711935 0)
(11.7721 0.0852818 0)
(11.9837 0.0440311 0)
(11.9307 0.105193 0)
(12.0117 0.00372737 0)
(11.9459 0.0642184 0)
(12.0815 0.0400076 0)
(12.0417 -0.00184412 0)
(12.1249 0.0380256 0)
(12.035 0.197769 0)
(9.94304 0.383698 0)
(10.6088 0.475964 0)
(10.8613 0.279412 0)
(11.1608 0.111691 0)
(11.3003 0.18351 0)
(11.3373 0.107598 0)
(11.5375 0.162959 0)
(11.5543 0.120741 0)
(11.623 0.0832693 0)
(11.691 0.101664 0)
(11.842 0.0607659 0)
(11.7859 0.0795563 0)
(11.9217 0.0326013 0)
(12.0075 0.0982307 0)
(12.005 0.00573811 0)
(12.0194 0.0504982 0)
(12.1724 0.036205 0)
(12.1239 -0.0115382 0)
(12.2205 0.0475995 0)
(12.1579 0.13251 0)
(9.99078 0.320755 0)
(10.4876 0.431516 0)
(10.8496 0.275303 0)
(11.1219 0.0911439 0)
(11.1312 0.165829 0)
(11.3358 0.0874548 0)
(11.4281 0.141067 0)
(11.5294 0.122438 0)
(11.5429 0.0626666 0)
(11.6847 0.098955 0)
(11.75 0.0446638 0)
(11.7514 0.0849313 0)
(11.8787 0.0116729 0)
(11.9456 0.0967027 0)
(11.9512 0.00421595 0)
(12.0179 0.0373615 0)
(12.1414 0.0306368 0)
(12.088 -0.00956259 0)
(12.1737 0.0220401 0)
(12.0838 0.0987287 0)
(10.0058 0.271783 0)
(10.3187 0.38225 0)
(10.9091 0.262437 0)
(11.0524 0.0826066 0)
(11.1041 0.149164 0)
(11.3462 0.0596614 0)
(11.3392 0.132746 0)
(11.4554 0.112422 0)
(11.5068 0.0483338 0)
(11.6161 0.0912909 0)
(11.6407 0.0399 0)
(11.7332 0.0711558 0)
(11.8373 0.00802016 0)
(11.8501 0.0870391 0)
(11.8878 0.00299891 0)
(11.9999 0.0186984 0)
(12.0884 0.0296718 0)
(12.0393 -0.0144168 0)
(12.1252 0.00862718 0)
(12.078 0.0299422 0)
(9.9812 0.234427 0)
(10.2937 0.322952 0)
(10.8974 0.240919 0)
(10.9838 0.0790912 0)
(11.1484 0.123584 0)
(11.2876 0.0474277 0)
(11.259 0.120696 0)
(11.4313 0.104491 0)
(11.4551 0.0298097 0)
(11.5259 0.0928331 0)
(11.6236 0.0240763 0)
(11.7078 0.0607046 0)
(11.7629 0.00538558 0)
(11.8009 0.0791461 0)
(11.8387 -0.00249383 0)
(11.947 0.00106833 0)
(12.0241 0.0288918 0)
(12.024 -0.0219175 0)
(12.1186 -0.0162354 0)
(12.1027 -0.0122383 0)
(9.97644 0.197507 0)
(10.3533 0.265926 0)
(10.7756 0.221684 0)
(10.954 0.0695232 0)
(11.1235 0.109442 0)
(11.2079 0.0363137 0)
(11.2301 0.104524 0)
(11.426 0.0924298 0)
(11.4074 0.0212112 0)
(11.4745 0.0836796 0)
(11.6366 0.00990668 0)
(11.6673 0.0552193 0)
(11.6926 0.00591385 0)
(11.7593 0.0655638 0)
(11.812 -0.00198868 0)
(11.8835 -0.0146439 0)
(11.9648 0.0206631 0)
(12.0174 -0.0272245 0)
(12.1022 -0.0436171 0)
(12.1269 -0.0528393 0)
(10.0066 0.15669 0)
(10.3227 0.220545 0)
(10.659 0.197752 0)
(10.9492 0.0622827 0)
(11.078 0.0968412 0)
(11.1825 0.0252748 0)
(11.2527 0.0824799 0)
(11.3879 0.0841411 0)
(11.3755 0.0115086 0)
(11.458 0.0742185 0)
(11.5856 -0.00301072 0)
(11.6104 0.0514879 0)
(11.6601 0.00509525 0)
(11.7259 0.0518412 0)
(11.7805 -0.00747185 0)
(11.8461 -0.0243382 0)
(11.9284 0.0034046 0)
(11.9739 -0.0362313 0)
(12.0733 -0.0674005 0)
(12.1579 -0.118317 0)
(10.0396 0.12457 0)
(10.207 0.179142 0)
(10.6547 0.164998 0)
(10.9298 0.0505888 0)
(11.0455 0.0874967 0)
(11.2102 0.00786895 0)
(11.2518 0.065751 0)
(11.33 0.0778524 0)
(11.3566 0.000675386 0)
(11.4224 0.065469 0)
(11.5279 -0.00815683 0)
(11.5733 0.0376263 0)
(11.6513 0.00864231 0)
(11.7088 0.0311868 0)
(11.7476 -0.00271041 0)
(11.8331 -0.043393 0)
(11.8977 0.000614859 0)
(11.9263 -0.0596935 0)
(12.0561 -0.0733004 0)
(12.1208 -0.192297 0)
(10.021 0.0977738 0)
(10.2007 0.134017 0)
(10.6675 0.126125 0)
(10.8716 0.0454449 0)
(11.0523 0.072777 0)
(11.2119 -0.00781422 0)
(11.1962 0.0543097 0)
(11.2965 0.0704626 0)
(11.3392 -0.0103 0)
(11.3908 0.0595243 0)
(11.5227 -0.0197797 0)
(11.5654 0.0283656 0)
(11.634 0.00541762 0)
(11.6871 0.0226206 0)
(11.7326 -0.0121511 0)
(11.8291 -0.046442 0)
(11.8602 -0.0210061 0)
(11.8943 -0.0503436 0)
(12.0287 -0.116709 0)
(12.0145 -0.113405 0)
(9.99059 0.0702682 0)
(10.2783 0.0862476 0)
(10.5833 0.0967085 0)
(10.8465 0.0364596 0)
(11.0794 0.0557894 0)
(11.1671 -0.0156829 0)
(11.1593 0.0397939 0)
(11.292 0.058628 0)
(11.3334 -0.0204167 0)
(11.3999 0.0487204 0)
(11.5209 -0.0276112 0)
(11.5339 0.0187285 0)
(11.6072 0.00629163 0)
(11.6783 0.00929192 0)
(11.7316 -0.0205926 0)
(11.803 -0.0483878 0)
(11.8163 -0.0384972 0)
(11.8811 -0.0514054 0)
(12.0192 -0.142739 0)
(11.9351 -0.0547821 0)
(10.0148 0.0407287 0)
(10.2488 0.0461557 0)
(10.5209 0.0704305 0)
(10.8779 0.0170552 0)
(11.0639 0.0466922 0)
(11.1456 -0.0237366 0)
(11.1699 0.0231442 0)
(11.2813 0.0452118 0)
(11.3408 -0.0305397 0)
(11.4036 0.0387321 0)
(11.4872 -0.0284974 0)
(11.5038 0.00572614 0)
(11.5982 0.00656917 0)
(11.6863 -0.00980043 0)
(11.7188 -0.0194352 0)
(11.7672 -0.0580318 0)
(11.7877 -0.0422741 0)
(11.8865 -0.0785602 0)
(12.0034 -0.141058 0)
(11.895 -0.123977 0)
(10.0287 0.014525 0)
(10.1934 0.00831295 0)
(10.5619 0.0325336 0)
(10.879 0.00128514 0)
(11.034 0.0380654 0)
(11.159 -0.0340432 0)
(11.1785 0.00814467 0)
(11.25 0.0320456 0)
(11.3455 -0.0401836 0)
(11.3918 0.0317068 0)
(11.4611 -0.0318252 0)
(11.5115 -0.00521175 0)
(11.6114 -0.000379727 0)
(11.6801 -0.0190847 0)
(11.6942 -0.0250182 0)
(11.7575 -0.0566078 0)
(11.803 -0.0660527 0)
(11.8874 -0.0852402 0)
(11.9593 -0.153603 0)
(11.9059 -0.202168 0)
(9.99894 -0.00924426 0)
(10.2337 -0.0347674 0)
(10.5868 -0.00309946 0)
(10.8393 -0.00896475 0)
(11.0395 0.0265014 0)
(11.1748 -0.0449739 0)
(11.161 -0.00351365 0)
(11.239 0.0174289 0)
(11.362 -0.0503654 0)
(11.3853 0.0217893 0)
(11.4584 -0.032395 0)
(11.5338 -0.0247988 0)
(11.6127 0.00160766 0)
(11.6605 -0.0357025 0)
(11.6902 -0.0237213 0)
(11.7777 -0.0726809 0)
(11.8171 -0.0685849 0)
(11.8577 -0.108524 0)
(11.9264 -0.152858 0)
(11.9243 -0.276357 0)
(10.0022 -0.036799 0)
(10.2586 -0.0795225 0)
(10.5575 -0.0298334 0)
(10.8365 -0.0230929 0)
(11.0669 0.0123201 0)
(11.1692 -0.0535383 0)
(11.1606 -0.0149381 0)
(11.2577 0.000162656 0)
(11.3748 -0.0609752 0)
(11.3801 0.0184253 0)
(11.4693 -0.0409425 0)
(11.5429 -0.0345346 0)
(11.602 -0.00246215 0)
(11.6587 -0.0391931 0)
(11.708 -0.0387916 0)
(11.7916 -0.0687435 0)
(11.8017 -0.090928 0)
(11.8331 -0.101823 0)
(11.9304 -0.186957 0)
(11.9576 -0.253348 0)
(10.0171 -0.0653781 0)
(10.2459 -0.117555 0)
(10.5566 -0.0622297 0)
(10.8789 -0.03852 0)
(11.0781 -0.0011831 0)
(11.1591 -0.0605557 0)
(11.1809 -0.0289858 0)
(11.2751 -0.0176935 0)
(11.3698 -0.0655067 0)
(11.3827 0.00790459 0)
(11.4853 -0.0445893 0)
(11.5564 -0.0474977 0)
(11.6012 -0.00380429 0)
(11.668 -0.049727 0)
(11.7314 -0.048439 0)
(11.79 -0.0688855 0)
(11.7888 -0.104456 0)
(11.8483 -0.105496 0)
(11.9577 -0.219131 0)
(11.9597 -0.240162 0)
(10.01 -0.0940654 0)
(10.2584 -0.158393 0)
(10.5912 -0.0961853 0)
(10.9102 -0.0521361 0)
(11.0705 -0.0115058 0)
(11.166 -0.0705009 0)
(11.2105 -0.043172 0)
(11.2817 -0.0326896 0)
(11.3742 -0.0718823 0)
(11.4098 -0.002934 0)
(11.5037 -0.0493885 0)
(11.5753 -0.0602229 0)
(11.6097 -0.00372119 0)
(11.6822 -0.0648002 0)
(11.7453 -0.0536099 0)
(11.7951 -0.0749412 0)
(11.8078 -0.108244 0)
(11.8729 -0.130854 0)
(11.9799 -0.220567 0)
(11.9353 -0.300773 0)
(10.0101 -0.126459 0)
(10.2809 -0.200363 0)
(10.6211 -0.128997 0)
(10.9258 -0.0626464 0)
(11.0709 -0.0224568 0)
(11.1925 -0.0844085 0)
(11.2418 -0.0553638 0)
(11.291 -0.0482743 0)
(11.4003 -0.0776162 0)
(11.4407 -0.0149961 0)
(11.5222 -0.0541741 0)
(11.5882 -0.0689613 0)
(11.6263 -0.00741691 0)
(11.7086 -0.0763516 0)
(11.7573 -0.058926 0)
(11.8098 -0.0804346 0)
(11.8385 -0.117721 0)
(11.8904 -0.146599 0)
(11.9897 -0.226212 0)
(11.8809 -0.352752 0)
(10.0153 -0.159665 0)
(10.3004 -0.241639 0)
(10.6516 -0.161351 0)
(10.9465 -0.071277 0)
(11.0985 -0.0384925 0)
(11.2266 -0.0971039 0)
(11.2618 -0.0677901 0)
(11.3127 -0.0621968 0)
(11.4304 -0.0853739 0)
(11.4678 -0.0265567 0)
(11.5348 -0.056917 0)
(11.6102 -0.0799175 0)
(11.6672 -0.0115953 0)
(11.7307 -0.0872878 0)
(11.7721 -0.0622659 0)
(11.8386 -0.0930422 0)
(11.8601 -0.115348 0)
(11.907 -0.173079 0)
(12.001 -0.218762 0)
(11.8813 -0.402478 0)
(10.0223 -0.199574 0)
(10.316 -0.282379 0)
(10.6932 -0.192013 0)
(10.9842 -0.0822372 0)
(11.1387 -0.0546033 0)
(11.245 -0.109739 0)
(11.2909 -0.0774259 0)
(11.3424 -0.0774524 0)
(11.4612 -0.0938345 0)
(11.5014 -0.034642 0)
(11.5578 -0.0654691 0)
(11.6535 -0.0870475 0)
(11.7106 -0.0213222 0)
(11.7458 -0.0868159 0)
(11.8007 -0.0780479 0)
(11.8648 -0.0877761 0)
(11.8845 -0.13628 0)
(11.9419 -0.170803 0)
(12.0193 -0.247083 0)
(11.9492 -0.35714 0)
(10.0397 -0.240347 0)
(10.3266 -0.323415 0)
(10.7532 -0.219969 0)
(11.03 -0.0948345 0)
(11.1719 -0.0706158 0)
(11.2626 -0.121636 0)
(11.3379 -0.090234 0)
(11.3719 -0.0910618 0)
(11.5056 -0.100533 0)
(11.5431 -0.0461981 0)
(11.5961 -0.0707966 0)
(11.7086 -0.0980995 0)
(11.7383 -0.0254054 0)
(11.766 -0.0924229 0)
(11.8376 -0.0871969 0)
(11.8955 -0.0932424 0)
(11.9196 -0.146626 0)
(11.9914 -0.180005 0)
(12.0616 -0.268727 0)
(11.9973 -0.32356 0)
(10.0672 -0.285953 0)
(10.3285 -0.368511 0)
(10.8482 -0.240768 0)
(11.0533 -0.109671 0)
(11.2201 -0.0878254 0)
(11.2799 -0.13664 0)
(11.4045 -0.100573 0)
(11.3921 -0.104722 0)
(11.5772 -0.109055 0)
(11.582 -0.0560261 0)
(11.6531 -0.077666 0)
(11.7446 -0.107709 0)
(11.7658 -0.0267252 0)
(11.7924 -0.101314 0)
(11.8803 -0.0916507 0)
(11.9349 -0.105404 0)
(11.9779 -0.146609 0)
(12.042 -0.204587 0)
(12.0941 -0.265823 0)
(12.0344 -0.36158 0)
(10.0901 -0.338152 0)
(10.3378 -0.41271 0)
(10.9563 -0.25842 0)
(11.0649 -0.124601 0)
(11.283 -0.109679 0)
(11.2997 -0.149253 0)
(11.4858 -0.113391 0)
(11.4138 -0.118509 0)
(11.6806 -0.117851 0)
(11.6033 -0.0661006 0)
(11.7211 -0.0856469 0)
(11.7545 -0.111245 0)
(11.8174 -0.0322428 0)
(11.8176 -0.108455 0)
(11.9533 -0.0997156 0)
(11.9793 -0.115408 0)
(12.0503 -0.151001 0)
(12.0671 -0.21928 0)
(12.1114 -0.266697 0)
(12.0319 -0.415089 0)
(10.0829 -0.392372 0)
(10.3791 -0.461905 0)
(11.0593 -0.274046 0)
(11.0818 -0.140266 0)
(11.3425 -0.132731 0)
(11.3564 -0.164606 0)
(11.559 -0.125074 0)
(11.4713 -0.131671 0)
(11.7735 -0.129408 0)
(11.6101 -0.0683525 0)
(11.7916 -0.0966439 0)
(11.7644 -0.113674 0)
(11.8938 -0.0415368 0)
(11.8566 -0.113958 0)
(12.0332 -0.111776 0)
(11.995 -0.12182 0)
(12.0861 -0.152159 0)
(12.0195 -0.228244 0)
(12.0666 -0.264186 0)
(11.8941 -0.456035 0)
(10.0464 -0.454597 0)
(10.4637 -0.511962 0)
(11.1379 -0.286909 0)
(11.1113 -0.156308 0)
(11.4356 -0.160373 0)
(11.4373 -0.180916 0)
(11.6157 -0.133582 0)
(11.5615 -0.147602 0)
(11.8083 -0.13374 0)
(11.6301 -0.0724588 0)
(11.8583 -0.107341 0)
(11.7685 -0.116848 0)
(11.9365 -0.0528632 0)
(11.8512 -0.118388 0)
(11.9945 -0.119173 0)
(11.884 -0.122335 0)
(11.9533 -0.151603 0)
(11.7853 -0.224932 0)
(11.7895 -0.25692 0)
(11.4724 -0.456929 0)
(10.0037 -0.522649 0)
(10.5756 -0.558677 0)
(11.1977 -0.2982 0)
(11.1989 -0.179359 0)
(11.5515 -0.191137 0)
(11.489 -0.192079 0)
(11.6652 -0.144601 0)
(11.618 -0.157994 0)
(11.7595 -0.136119 0)
(11.6144 -0.0807366 0)
(11.7981 -0.113824 0)
(11.6138 -0.116484 0)
(11.7655 -0.0611771 0)
(11.5959 -0.115185 0)
(11.6505 -0.116516 0)
(11.4805 -0.116251 0)
(11.4794 -0.144154 0)
(11.2312 -0.205285 0)
(11.1434 -0.248435 0)
(10.741 -0.390655 0)
(9.97032 -0.60055 0)
(10.7092 -0.597927 0)
(11.2728 -0.31425 0)
(11.3275 -0.211281 0)
(11.6025 -0.216366 0)
(11.4633 -0.198928 0)
(11.6022 -0.154198 0)
(11.4613 -0.159071 0)
(11.4641 -0.131387 0)
(11.3018 -0.0834202 0)
(11.3554 -0.107623 0)
(11.0803 -0.105435 0)
(11.1833 -0.0599775 0)
(10.9312 -0.101489 0)
(10.9167 -0.103339 0)
(10.7025 -0.103589 0)
(10.6468 -0.125368 0)
(10.3423 -0.180163 0)
(10.1987 -0.217937 0)
(9.73374 -0.323613 0)
(9.97842 -0.689518 0)
(10.8577 -0.633343 0)
(11.3302 -0.341309 0)
(11.3429 -0.24591 0)
(11.4057 -0.228826 0)
(11.1259 -0.192968 0)
(11.1111 -0.148196 0)
(10.8201 -0.141222 0)
(10.6948 -0.112712 0)
(10.4898 -0.0729857 0)
(10.4328 -0.0878377 0)
(10.124 -0.0861822 0)
(10.1837 -0.0507268 0)
(9.89448 -0.0807263 0)
(9.84524 -0.0849186 0)
(9.61213 -0.0856632 0)
(9.52246 -0.101705 0)
(9.19658 -0.149915 0)
(9.01523 -0.17589 0)
(8.51199 -0.27182 0)
(10.0651 -0.80384 0)
(10.9292 -0.668392 0)
(11.1406 -0.361927 0)
(10.8831 -0.252884 0)
(10.6284 -0.206169 0)
(10.1819 -0.15978 0)
(10.0148 -0.119049 0)
(9.63601 -0.106843 0)
(9.45007 -0.0845983 0)
(9.23434 -0.0543273 0)
(9.12239 -0.0628553 0)
(8.83069 -0.0649697 0)
(8.85694 -0.0379036 0)
(8.5722 -0.0584065 0)
(8.50927 -0.0649839 0)
(8.27735 -0.0652122 0)
(8.16865 -0.0768783 0)
(7.85211 -0.114413 0)
(7.63909 -0.136836 0)
(7.15397 -0.199695 0)
(10.1544 -0.946427 0)
(10.5791 -0.668063 0)
(10.262 -0.333622 0)
(9.63879 -0.208397 0)
(9.14661 -0.148984 0)
(8.64292 -0.109287 0)
(8.40937 -0.0796645 0)
(8.03406 -0.0692217 0)
(7.84588 -0.0560285 0)
(7.64704 -0.034627 0)
(7.5256 -0.0391245 0)
(7.27797 -0.0446852 0)
(7.27814 -0.0243971 0)
(7.0308 -0.0375428 0)
(6.96537 -0.0452112 0)
(6.75027 -0.0445677 0)
(6.63958 -0.0518863 0)
(6.35092 -0.0796688 0)
(6.13236 -0.0949909 0)
(5.67287 -0.136673 0)
(9.85451 -1.02143 0)
(9.35443 -0.577235 0)
(8.47441 -0.243084 0)
(7.64011 -0.129375 0)
(7.1045 -0.0819463 0)
(6.66365 -0.0595355 0)
(6.43959 -0.0426945 0)
(6.13168 -0.0364181 0)
(5.97497 -0.0312955 0)
(5.81194 -0.0174363 0)
(5.71439 -0.019649 0)
(5.52215 -0.0266713 0)
(5.50576 -0.0123859 0)
(5.31836 -0.0200262 0)
(5.25631 -0.0270377 0)
(5.07387 -0.0255478 0)
(4.97652 -0.029323 0)
(4.73406 -0.0473415 0)
(4.53099 -0.0554214 0)
(4.13078 -0.0821367 0)
(8.59812 -0.87164 0)
(6.95619 -0.38349 0)
(5.80991 -0.122508 0)
(5.05512 -0.0506696 0)
(4.65745 -0.0279044 0)
(4.35913 -0.0219103 0)
(4.19844 -0.0151828 0)
(3.99476 -0.0128168 0)
(3.88768 -0.012572 0)
(3.77698 -0.00531099 0)
(3.71911 -0.00621145 0)
(3.59037 -0.0121083 0)
(3.56793 -0.00382203 0)
(3.45255 -0.00716889 0)
(3.40111 -0.0120634 0)
(3.26898 -0.010441 0)
(3.19768 -0.0116031 0)
(3.02292 -0.0205373 0)
(2.86159 -0.0230673 0)
(2.56898 -0.0365891 0)
(5.32814 -0.309396 0)
(2.98795 -0.0607036 0)
(2.19549 0.00150833 0)
(1.84663 0.00356871 0)
(1.70818 0.00158624 0)
(1.60456 -0.000429025 0)
(1.5429 0.000364706 0)
(1.47287 0.000271189 0)
(1.43103 -0.000974411 0)
(1.38871 0.000758484 0)
(1.37601 0.000596976 0)
(1.3253 -0.00175135 0)
(1.30884 0.000688049 0)
(1.27357 0.000174935 0)
(1.24831 -0.00128193 0)
(1.1905 -0.000453555 0)
(1.16044 -0.000207738 0)
(1.08708 -0.00160444 0)
(1.01209 -0.00127233 0)
(0.886499 0.000977949 0)
(2.00709 -0.163717 0)
(1.11356 0.699161 0)
(3.19679 1.15012 0)
(5.37158 1.72072 0)
(6.24591 2.48545 0)
(7.61237 2.421 0)
(8.63889 2.04703 0)
(9.30444 1.72898 0)
(10.1881 1.0895 0)
(11.2597 -0.097972 0)
(11.3567 -0.796607 0)
(11.3255 -1.48718 0)
(11.9816 -2.91102 0)
(11.8741 -3.78025 0)
(11.0244 -3.72164 0)
(10.8162 -3.98662 0)
(11.738 -5.21247 0)
(12.0311 -6.33947 0)
(11.7933 -6.90972 0)
(11.021 -7.1475 0)
(10.1017 -6.87948 0)
(9.22696 -6.54427 0)
(8.59753 -6.13277 0)
(7.78361 -5.84073 0)
(7.5299 -4.91692 0)
(6.5418 -4.56098 0)
(6.10211 -4.57785 0)
(5.52101 -3.69974 0)
(4.94587 -3.30765 0)
(4.17015 -3.40533 0)
(3.76758 -3.02979 0)
(3.62125 -1.64703 0)
(3.87816 0.788973 0)
(4.43765 3.81595 0)
(4.69303 7.13636 0)
(4.37329 10.388 0)
(4.15364 12.7076 0)
(4.94852 11.6985 0)
(5.48273 10.5646 0)
(6.25639 8.98637 0)
(6.61476 7.33567 0)
(6.67212 5.77816 0)
(7.71872 3.17332 0)
(8.20343 0.713471 0)
(7.97326 -1.03471 0)
(8.03417 -2.46112 0)
(8.57286 -3.90738 0)
(9.13734 -5.46025 0)
(9.25749 -6.46286 0)
(9.13651 -6.64466 0)
(8.66024 -6.60352 0)
(8.08061 -6.34398 0)
(7.75561 -5.82467 0)
(7.50799 -5.58775 0)
(7.27885 -5.66967 0)
(6.97176 -5.13919 0)
(6.74079 -4.37298 0)
(6.60603 -4.21282 0)
(6.31291 -4.70834 0)
(6.03869 -4.48902 0)
(6.05612 -3.56438 0)
(5.9195 -3.28758 0)
(5.88843 -4.30527 0)
(5.81303 -6.17472 0)
(5.68325 -8.14398 0)
(5.82494 -8.94583 0)
(5.59646 -9.00694 0)
(5.49653 -8.97449 0)
(5.47771 -8.89062 0)
(5.63638 -8.61528 0)
(5.696 -8.22964 0)
(5.88823 -7.58369 0)
(6.05068 -6.66243 0)
(6.00763 -5.89385 0)
(5.7671 -5.27865 0)
(5.74041 -4.53685 0)
(6.04021 -3.33096 0)
(6.24585 -1.56322 0)
(6.44242 0.188525 0)
(6.50905 1.45364 0)
(6.85782 2.45266 0)
(7.08348 3.57236 0)
(7.09854 4.98183 0)
(7.22978 6.43082 0)
(7.08282 7.17114 0)
(7.23048 6.9969 0)
(7.43198 6.60591 0)
(7.61891 6.65081 0)
(7.61645 6.81428 0)
(7.61744 7.20928 0)
(7.72746 7.6083 0)
(7.73703 7.81241 0)
(7.77095 7.49226 0)
(7.89299 7.00262 0)
(8.09027 6.64149 0)
(8.28292 5.9812 0)
(8.37404 5.31688 0)
(8.51984 4.70087 0)
(8.70445 4.08227 0)
(8.70981 3.64466 0)
(8.71041 3.11427 0)
(8.43775 2.45112 0)
(8.39268 1.94717 0)
(8.47205 1.74068 0)
(8.23714 1.55855 0)
(8.0039 1.20567 0)
(7.85301 1.35252 0)
(8.06687 1.62994 0)
(8.29789 1.69916 0)
(8.46422 1.73976 0)
(7.81447 1.55708 0)
(7.76531 1.44598 0)
(7.72659 1.395 0)
(7.83838 0.89727 0)
(8.02362 0.351733 0)
(8.60853 -0.0199293 0)
(9.20518 0.0147292 0)
(9.72998 0.180309 0)
(10.4842 -0.198588 0)
(11.0297 -0.494178 0)
(11.1775 -0.573418 0)
(11.4882 -0.849082 0)
(11.6724 -0.991076 0)
(11.387 -1.13169 0)
(11.2647 -1.50996 0)
(10.9262 -1.72822 0)
(10.5881 -2.31329 0)
(10.0581 -2.84798 0)
(9.33842 -2.85039 0)
(8.86475 -3.09978 0)
(8.60128 -3.89592 0)
(8.07522 -4.36933 0)
(7.63611 -4.45824 0)
(7.24189 -4.33671 0)
(6.58083 -4.50977 0)
(6.48987 -4.81994 0)
(6.45713 -5.35487 0)
(6.55932 -6.32114 0)
(6.5133 -7.22724 0)
(6.69409 -7.50903 0)
(6.57904 -7.48303 0)
(6.66033 -7.38806 0)
(6.62365 -7.33126 0)
(6.81687 -6.76006 0)
(7.11461 -5.95951 0)
(7.13335 -5.10264 0)
(7.26599 -4.0252 0)
(7.58923 -2.87094 0)
(7.83742 -1.85733 0)
(7.99545 -0.873677 0)
(8.35265 0.27361 0)
(8.69166 1.75747 0)
(8.75239 3.25738 0)
(8.7173 4.33921 0)
(8.61003 5.30823 0)
(8.60426 6.51628 0)
(8.51327 7.58867 0)
(8.26529 8.19288 0)
(8.16018 8.83034 0)
(8.20558 9.98916 0)
(8.16358 10.8351 0)
(7.80383 10.586 0)
(7.2084 9.41411 0)
(6.77397 8.0168 0)
(6.24721 6.80043 0)
(6.0002 5.89638 0)
(5.68204 5.35922 0)
(5.32448 5.25494 0)
(5.27727 5.42723 0)
(5.42556 5.46455 0)
(5.74897 5.94073 0)
(6.07793 6.15197 0)
(6.35756 6.06222 0)
(6.69941 5.94196 0)
(7.03386 5.44124 0)
(7.02566 5.13316 0)
(7.6152 4.19632 0)
(6.9803 4.26051 0)
(8.1488 2.86708 0)
(6.98063 2.8455 0)
(8.9284 1.2315 0)
(7.29564 1.9379 0)
(10.0495 0.135076 0)
(7.14529 1.21175 0)
(11.0724 -0.700521 0)
(7.08344 0.681088 0)
(10.897 -1.90445 0)
(6.95393 -0.569141 0)
(10.8653 -3.19038 0)
(6.55554 -1.49573 0)
(10.1617 -3.9625 0)
(6.57515 -1.73927 0)
(9.57227 -3.77052 0)
(5.86517 -1.9258 0)
(7.78939 -3.08734 0)
(5.71561 -0.976656 0)
(6.25249 -1.45835 0)
(3.96089 1.04849 0)
(6.58911 2.34454 0)
(3.73326 7.16223 0)
(4.0922 0.105402 0)
(3.19828 0.620038 0)
(3.73505 0.434912 0)
(4.93189 1.02944 0)
(6.09219 1.95504 0)
(7.59461 1.8785 0)
(8.70601 1.6748 0)
(9.26741 1.45631 0)
(10.4411 0.736593 0)
(11.1357 -0.241157 0)
(11.1813 -0.886136 0)
(11.3826 -1.68208 0)
(11.8272 -2.9918 0)
(11.5354 -3.58503 0)
(10.9921 -3.6139 0)
(11.4581 -4.27063 0)
(12.5244 -5.47446 0)
(12.552 -6.28952 0)
(11.9956 -6.71147 0)
(11.1908 -6.80404 0)
(10.1376 -6.524 0)
(9.40756 -6.20824 0)
(8.64776 -5.81762 0)
(7.93917 -5.56712 0)
(7.5415 -4.69072 0)
(6.89744 -4.28276 0)
(6.26296 -4.37434 0)
(5.69471 -3.50705 0)
(5.15146 -2.99834 0)
(4.35802 -3.1441 0)
(3.90954 -2.93968 0)
(3.75005 -1.68958 0)
(3.89803 0.577677 0)
(4.3565 3.66015 0)
(4.52506 7.08521 0)
(4.2497 10.4938 0)
(4.14356 12.5022 0)
(5.24365 11.3202 0)
(5.5148 10.3354 0)
(6.65073 8.78075 0)
(6.95286 7.19748 0)
(7.25481 5.49938 0)
(8.26334 2.93467 0)
(8.6401 0.674126 0)
(8.46869 -1.05591 0)
(8.59711 -2.62389 0)
(9.09173 -4.10556 0)
(9.60042 -5.57786 0)
(9.65004 -6.45192 0)
(9.44186 -6.51865 0)
(8.92444 -6.42132 0)
(8.3792 -6.17386 0)
(8.10862 -5.68448 0)
(7.87005 -5.46678 0)
(7.56029 -5.55237 0)
(7.20751 -5.02447 0)
(6.9305 -4.25362 0)
(6.73502 -4.13097 0)
(6.40282 -4.6081 0)
(6.11247 -4.4157 0)
(6.09543 -3.50991 0)
(5.92115 -3.24539 0)
(5.80285 -4.27925 0)
(5.69048 -6.17349 0)
(5.4947 -8.10094 0)
(5.60582 -8.86584 0)
(5.36319 -8.91832 0)
(5.15825 -8.92059 0)
(5.12106 -8.90281 0)
(5.31517 -8.65692 0)
(5.34784 -8.2791 0)
(5.48595 -7.64075 0)
(5.66769 -6.67335 0)
(5.58217 -5.81197 0)
(5.29362 -5.20404 0)
(5.16979 -4.53511 0)
(5.27765 -3.36756 0)
(5.49192 -1.64885 0)
(5.86521 0.0699354 0)
(6.07727 1.33684 0)
(6.40608 2.38804 0)
(6.53164 3.54119 0)
(6.47048 5.00086 0)
(6.5612 6.41453 0)
(6.48351 7.11359 0)
(6.70171 6.90927 0)
(6.94315 6.55472 0)
(7.20938 6.61982 0)
(7.19667 6.78807 0)
(7.21919 7.20536 0)
(7.33611 7.57958 0)
(7.3762 7.78954 0)
(7.41765 7.44994 0)
(7.57138 6.94215 0)
(7.78539 6.55453 0)
(7.97815 5.91806 0)
(8.10483 5.26508 0)
(8.26215 4.63467 0)
(8.46824 4.0242 0)
(8.49121 3.63759 0)
(8.54113 3.1649 0)
(8.30087 2.50236 0)
(8.27204 1.96418 0)
(8.33563 1.74878 0)
(8.19764 1.63111 0)
(8.03388 1.31494 0)
(7.82506 1.35769 0)
(7.91922 1.51793 0)
(8.23777 1.58745 0)
(8.63352 1.80754 0)
(8.10989 1.72074 0)
(7.96745 1.51445 0)
(7.83847 1.38628 0)
(7.88469 0.84701 0)
(8.04197 0.21486 0)
(8.44646 -0.224015 0)
(8.86176 -0.214141 0)
(9.33634 -0.0967576 0)
(10.0981 -0.439455 0)
(10.6483 -0.650696 0)
(10.8694 -0.709733 0)
(11.267 -0.911716 0)
(11.4127 -0.967643 0)
(11.1236 -1.09956 0)
(11.076 -1.40216 0)
(10.7471 -1.56906 0)
(10.4123 -2.16089 0)
(9.88504 -2.60457 0)
(9.19382 -2.5743 0)
(8.77098 -2.95222 0)
(8.52076 -3.76392 0)
(8.0032 -4.18812 0)
(7.57566 -4.28212 0)
(7.15134 -4.11353 0)
(6.4938 -4.35853 0)
(6.36536 -4.80333 0)
(6.34507 -5.36106 0)
(6.38821 -6.33585 0)
(6.30581 -7.25438 0)
(6.44985 -7.50147 0)
(6.29324 -7.48132 0)
(6.42934 -7.36694 0)
(6.31873 -7.36594 0)
(6.45899 -6.85552 0)
(6.74096 -6.04179 0)
(6.80269 -5.13666 0)
(6.92958 -4.10741 0)
(7.18809 -2.98731 0)
(7.4707 -1.95207 0)
(7.68285 -0.977542 0)
(8.00572 0.170397 0)
(8.26796 1.70077 0)
(8.31474 3.24811 0)
(8.30836 4.35672 0)
(8.19545 5.3112 0)
(8.22948 6.4995 0)
(8.14809 7.62484 0)
(7.93606 8.24283 0)
(7.84706 8.86667 0)
(7.98086 9.97125 0)
(7.95856 10.8939 0)
(7.69165 10.7465 0)
(7.32764 9.65621 0)
(6.70271 8.2344 0)
(6.40305 6.92888 0)
(6.02178 6.03202 0)
(5.9187 5.48284 0)
(5.62144 5.31791 0)
(5.46205 5.39257 0)
(5.77856 5.36734 0)
(5.94364 5.82216 0)
(6.34011 5.9989 0)
(6.72034 5.93706 0)
(6.80813 5.81612 0)
(7.45521 5.27904 0)
(7.28463 5.19 0)
(8.07458 3.91945 0)
(7.17788 4.34283 0)
(8.86334 2.6454 0)
(7.05013 2.88461 0)
(9.79121 0.947406 0)
(7.1984 1.9527 0)
(10.9429 -0.146028 0)
(6.95385 1.34396 0)
(12.1437 -1.04316 0)
(7.35097 1.05809 0)
(12.2201 -2.1197 0)
(7.21722 -0.20931 0)
(12.1152 -3.40375 0)
(6.73389 -0.924623 0)
(11.3437 -4.39803 0)
(6.58453 -1.36014 0)
(11.0745 -4.02926 0)
(5.98797 -1.31649 0)
(9.80269 -3.50034 0)
(6.36423 -0.337887 0)
(8.93302 -1.34007 0)
(4.2731 1.47529 0)
(8.57643 1.46085 0)
(5.5626 7.82023 0)
(5.41214 0.0801999 0)
(5.25111 0.622184 0)
(5.25781 0.411623 0)
(5.252 0.657839 0)
(6.19882 1.32369 0)
(7.51566 1.24973 0)
(8.34529 1.18515 0)
(9.1711 0.866467 0)
(10.2596 0.308568 0)
(10.7074 -0.371686 0)
(11.0946 -1.13588 0)
(11.4374 -1.99165 0)
(11.8883 -3.03992 0)
(11.7486 -3.4604 0)
(11.7314 -3.7039 0)
(12.6002 -4.57781 0)
(13.269 -5.59764 0)
(12.8716 -6.1494 0)
(12.1238 -6.4406 0)
(11.314 -6.41497 0)
(10.1711 -6.15162 0)
(9.48447 -5.8899 0)
(8.62918 -5.58395 0)
(8.06294 -5.29898 0)
(7.45002 -4.49206 0)
(7.19931 -3.99428 0)
(6.39327 -4.14705 0)
(5.88969 -3.3175 0)
(5.31757 -2.69568 0)
(4.55447 -2.88902 0)
(4.10742 -2.8655 0)
(4.0126 -1.73697 0)
(4.21355 0.402441 0)
(4.39306 3.51694 0)
(4.30189 7.13928 0)
(4.08569 10.6693 0)
(4.11892 12.2191 0)
(5.52246 10.9565 0)
(5.54135 9.99537 0)
(6.97064 8.57091 0)
(7.31428 7.02943 0)
(7.84408 5.17071 0)
(8.78917 2.68684 0)
(9.03366 0.668525 0)
(8.93538 -1.0633 0)
(9.14569 -2.79898 0)
(9.63942 -4.29434 0)
(10.0603 -5.64373 0)
(9.98211 -6.41933 0)
(9.71214 -6.37888 0)
(9.22137 -6.21689 0)
(8.71236 -6.01676 0)
(8.44695 -5.56741 0)
(8.16668 -5.34343 0)
(7.78117 -5.42932 0)
(7.37878 -4.91432 0)
(7.08961 -4.11496 0)
(6.83952 -4.01645 0)
(6.46711 -4.48127 0)
(6.15819 -4.33918 0)
(6.11217 -3.44395 0)
(5.90811 -3.18452 0)
(5.70502 -4.21831 0)
(5.55039 -6.14886 0)
(5.27843 -8.05034 0)
(5.3541 -8.80115 0)
(5.09623 -8.83593 0)
(4.80192 -8.87672 0)
(4.74431 -8.94471 0)
(4.98155 -8.70214 0)
(4.98909 -8.30027 0)
(5.05979 -7.67076 0)
(5.25125 -6.66193 0)
(5.18149 -5.73203 0)
(4.8528 -5.07051 0)
(4.6254 -4.44604 0)
(4.56979 -3.39256 0)
(4.76801 -1.76155 0)
(5.25897 -0.0908221 0)
(5.59358 1.20401 0)
(5.91865 2.32964 0)
(5.95376 3.52257 0)
(5.83481 5.0181 0)
(5.9165 6.36488 0)
(5.8789 7.02579 0)
(6.16307 6.80831 0)
(6.48274 6.46884 0)
(6.78714 6.55995 0)
(6.7619 6.77075 0)
(6.82037 7.19207 0)
(6.9521 7.52683 0)
(6.99611 7.7532 0)
(7.07015 7.38987 0)
(7.25363 6.87288 0)
(7.50742 6.46921 0)
(7.69085 5.85619 0)
(7.86353 5.20468 0)
(8.02522 4.58066 0)
(8.24157 3.97016 0)
(8.30421 3.61894 0)
(8.34928 3.19941 0)
(8.12227 2.53057 0)
(8.17236 1.98231 0)
(8.19815 1.75008 0)
(8.10086 1.66836 0)
(8.02394 1.41049 0)
(7.81725 1.39958 0)
(7.80472 1.42107 0)
(8.14406 1.43683 0)
(8.67821 1.79503 0)
(8.33749 1.84887 0)
(8.21816 1.6011 0)
(8.04425 1.41118 0)
(8.07423 0.832824 0)
(8.23645 0.108771 0)
(8.48513 -0.344812 0)
(8.67034 -0.380292 0)
(9.01866 -0.361886 0)
(9.72136 -0.671999 0)
(10.2472 -0.823818 0)
(10.5413 -0.865921 0)
(10.9717 -1.00011 0)
(11.0883 -0.946876 0)
(10.8591 -1.03381 0)
(10.8444 -1.31905 0)
(10.5287 -1.44703 0)
(10.203 -1.97499 0)
(9.65903 -2.35091 0)
(9.00527 -2.35505 0)
(8.68432 -2.82393 0)
(8.45831 -3.58362 0)
(7.96866 -3.95918 0)
(7.51912 -4.06252 0)
(7.07105 -3.87152 0)
(6.40777 -4.19129 0)
(6.23008 -4.76272 0)
(6.22356 -5.35291 0)
(6.18757 -6.33869 0)
(6.08079 -7.25949 0)
(6.17853 -7.48941 0)
(5.98639 -7.49375 0)
(6.18404 -7.35297 0)
(5.97924 -7.39016 0)
(6.10116 -6.92597 0)
(6.35483 -6.12846 0)
(6.45404 -5.18804 0)
(6.59691 -4.18237 0)
(6.79582 -3.1153 0)
(7.06901 -2.06206 0)
(7.33123 -1.06669 0)
(7.63619 0.0684949 0)
(7.80583 1.62237 0)
(7.83708 3.2451 0)
(7.82964 4.39298 0)
(7.74813 5.35616 0)
(7.7906 6.53001 0)
(7.7505 7.67724 0)
(7.5764 8.30306 0)