/*--------------------------------*- C++ -*----------------------------------*\
| =========                 |                                                 |
| \\      /  F ield         | OpenFOAM: The Open Source CFD Toolbox           |
|  \\    /   O peration     | Version:  2.4.0                                 |
|   \\  /    A nd           | Web:      www.OpenFOAM.org                      |
|    \\/     M anipulation  |                                                 |
\*---------------------------------------------------------------------------*/
FoamFile
{
    version     2.0;
    format      ascii;
    class       volVectorField;
    location    "0.026";
    object      U_0;
}
// * * * * * * * * * * * * * * * * * * * * * * * * * * * * * * * * * * * * * //

dimensions      [0 1 -1 0 0 0 0];

internalField   nonuniform List<vector> 
17600
(
(5.32759 0.309498 0)
(2.98238 0.0606368 0)
(2.19705 -0.00175757 0)
(1.84973 -0.00329015 0)
(1.70712 -0.00158271 0)
(1.60652 0.000277406 0)
(1.53836 -8.17999e-05 0)
(1.47194 -0.000414879 0)
(1.44346 0.00015192 0)
(1.38496 6.83405e-05 0)
(1.38018 4.91726e-05 0)
(1.34942 -0.000534805 0)
(1.33787 0.00064631 0)
(1.29794 0.000258455 0)
(1.26411 0.000804491 0)
(1.24155 0.000670837 0)
(1.23436 -0.000142464 0)
(1.20133 0.00104002 0)
(1.20629 0.00223571 0)
(0.963418 -0.0495657 0)
(8.59758 0.872325 0)
(6.94342 0.383419 0)
(5.81158 0.120781 0)
(5.05922 0.0517666 0)
(4.65553 0.0278603 0)
(4.3647 0.021844 0)
(4.18773 0.0161669 0)
(3.99416 0.0109826 0)
(3.91603 0.0111916 0)
(3.75254 0.00759585 0)
(3.7416 0.00475424 0)
(3.64683 0.00402811 0)
(3.61149 0.00782387 0)
(3.52095 0.00823273 0)
(3.43774 0.00703973 0)
(3.39527 0.00388707 0)
(3.39018 0.00322366 0)
(3.29756 0.00360149 0)
(3.36179 0.0232959 0)
(2.96794 -0.102959 0)
(9.85517 1.02304 0)
(9.3374 0.577196 0)
(8.47338 0.239401 0)
(7.64457 0.131426 0)
(7.10109 0.0815801 0)
(6.67169 0.0597288 0)
(6.42664 0.0447732 0)
(6.12649 0.0317452 0)
(6.01937 0.0304503 0)
(5.76716 0.0214302 0)
(5.7472 0.0133814 0)
(5.60331 0.0132533 0)
(5.54052 0.0185202 0)
(5.42596 0.0206613 0)
(5.30106 0.0168767 0)
(5.24013 0.00736792 0)
(5.24722 0.00943393 0)
(5.09825 0.00598052 0)
(5.19522 0.0395896 0)
(4.87856 -0.107167 0)
(10.157 0.949629 0)
(10.5611 0.66869 0)
(10.2548 0.3277 0)
(9.64396 0.211359 0)
(9.14065 0.148045 0)
(8.65168 0.10959 0)
(8.39976 0.0836092 0)
(8.01693 0.0604876 0)
(7.90772 0.0563265 0)
(7.58889 0.0414037 0)
(7.55414 0.0253417 0)
(7.38357 0.0268984 0)
(7.28838 0.0319775 0)
(7.1705 0.0365986 0)
(7.01329 0.0308432 0)
(6.92752 0.0111407 0)
(6.95224 0.0178618 0)
(6.76332 0.0118127 0)
(6.83429 0.0456487 0)
(6.70179 -0.08243 0)
(10.0688 0.807798 0)
(10.9152 0.66929 0)
(11.123 0.353888 0)
(10.8893 0.256924 0)
(10.6201 0.204633 0)
(10.1882 0.159675 0)
(10.0152 0.125883 0)
(9.60133 0.0934955 0)
(9.52258 0.0852973 0)
(9.18075 0.0661007 0)
(9.12862 0.0394432 0)
(8.96113 0.0436891 0)
(8.83585 0.0474081 0)
(8.73033 0.0536627 0)
(8.56052 0.0484762 0)
(8.44387 0.0154849 0)
(8.48435 0.0267266 0)
(8.27808 0.0223151 0)
(8.30582 0.0475493 0)
(8.27497 -0.0566858 0)
(9.97542 0.695417 0)
(10.8518 0.637197 0)
(11.2946 0.330514 0)
(11.3522 0.249829 0)
(11.3979 0.226809 0)
(11.1264 0.191378 0)
(11.1264 0.158263 0)
(10.7689 0.123686 0)
(10.7613 0.111834 0)
(10.4626 0.0922944 0)
(10.404 0.0539814 0)
(10.2718 0.0612069 0)
(10.1371 0.0640227 0)
(10.0512 0.0695285 0)
(9.9005 0.0684221 0)
(9.75661 0.0213116 0)
(9.80598 0.0341875 0)
(9.59508 0.0375025 0)
(9.61161 0.042834 0)
(9.57709 0.00494628 0)
(9.96329 0.604059 0)
(10.7291 0.600573 0)
(11.2017 0.306444 0)
(11.3253 0.215778 0)
(11.5906 0.214234 0)
(11.4553 0.196845 0)
(11.6367 0.16883 0)
(11.4047 0.138675 0)
(11.501 0.125276 0)
(11.3219 0.112418 0)
(11.2908 0.0645779 0)
(11.2248 0.0748724 0)
(11.124 0.0795282 0)
(11.0699 0.082182 0)
(10.9676 0.0874526 0)
(10.8237 0.0293197 0)
(10.8696 0.0399218 0)
(10.6725 0.0535877 0)
(10.6989 0.0373235 0)
(10.6396 0.0483568 0)
(9.95687 0.530704 0)
(10.6463 0.564577 0)
(11.1168 0.288565 0)
(11.1939 0.180736 0)
(11.5225 0.187696 0)
(11.4709 0.183295 0)
(11.7046 0.162018 0)
(11.585 0.141707 0)
(11.7318 0.121016 0)
(11.6961 0.117934 0)
(11.718 0.0670274 0)
(11.7294 0.0790187 0)
(11.7038 0.0873195 0)
(11.7121 0.0875303 0)
(11.6767 0.101643 0)
(11.5835 0.035223 0)
(11.6139 0.0471089 0)
(11.4683 0.0615468 0)
(11.4989 0.0418203 0)
(11.4255 0.0431397 0)
(9.9443 0.453822 0)
(10.6077 0.513115 0)
(11.0213 0.294641 0)
(11.1572 0.154997 0)
(11.3984 0.158299 0)
(11.421 0.174405 0)
(11.6168 0.1469 0)
(11.5794 0.135735 0)
(11.6958 0.111447 0)
(11.7487 0.112155 0)
(11.7976 0.0585036 0)
(11.846 0.0754551 0)
(11.8841 0.0863852 0)
(11.953 0.0812238 0)
(11.9791 0.103896 0)
(11.9685 0.0386491 0)
(11.9897 0.0492764 0)
(11.9239 0.0638634 0)
(11.9531 0.0385472 0)
(11.8087 0.0564566 0)
(9.96091 0.398589 0)
(10.5244 0.463506 0)
(10.9488 0.276696 0)
(11.1474 0.136308 0)
(11.2895 0.135253 0)
(11.3974 0.148789 0)
(11.4999 0.138146 0)
(11.5284 0.132933 0)
(11.6443 0.0943317 0)
(11.693 0.104032 0)
(11.7495 0.0568544 0)
(11.8197 0.0650847 0)
(11.8693 0.0790416 0)
(11.9415 0.0736556 0)
(12.0097 0.0978586 0)
(12.048 0.0333481 0)
(12.0601 0.0475647 0)
(12.0603 0.0617179 0)
(12.0556 0.043798 0)
(11.8341 0.0726776 0)
(9.96779 0.334483 0)
(10.4692 0.410927 0)
(10.8675 0.277956 0)
(11.1205 0.115358 0)
(11.2441 0.109891 0)
(11.3406 0.146231 0)
(11.422 0.118709 0)
(11.4812 0.118926 0)
(11.5767 0.0914352 0)
(11.6392 0.0940521 0)
(11.7025 0.0430473 0)
(11.7608 0.0640586 0)
(11.8208 0.0756945 0)
(11.8929 0.0572253 0)
(11.9548 0.0873571 0)
(11.9978 0.0344036 0)
(12.023 0.0419995 0)
(12.0357 0.0560317 0)
(11.9935 0.0478503 0)
(11.8591 0.0435007 0)
(9.97516 0.290695 0)
(10.4206 0.365207 0)
(10.7956 0.253346 0)
(11.092 0.101485 0)
(11.1954 0.0935076 0)
(11.2908 0.12044 0)
(11.3778 0.111514 0)
(11.4201 0.114511 0)
(11.5251 0.0702971 0)
(11.5966 0.0867777 0)
(11.6488 0.0478726 0)
(11.7124 0.0492073 0)
(11.7816 0.0668954 0)
(11.8483 0.0545859 0)
(11.8918 0.079189 0)
(11.9391 0.0256497 0)
(11.9738 0.0360603 0)
(11.9754 0.0552002 0)
(11.9475 0.041658 0)
(11.9223 0.0025645 0)
(9.98462 0.24151 0)
(10.3724 0.3114 0)
(10.7469 0.248501 0)
(11.0442 0.0817581 0)
(11.1554 0.0717547 0)
(11.2593 0.119629 0)
(11.3286 0.0911296 0)
(11.3736 0.0976937 0)
(11.4922 0.0706243 0)
(11.5398 0.0735145 0)
(11.6065 0.0356935 0)
(11.6854 0.0484845 0)
(11.7335 0.0643734 0)
(11.8044 0.0363803 0)
(11.8504 0.0701596 0)
(11.89 0.0289771 0)
(11.921 0.0299461 0)
(11.9304 0.0452136 0)
(11.9311 0.031369 0)
(11.8876 0.00457669 0)
(9.98916 0.204269 0)
(10.3379 0.270834 0)
(10.6964 0.213533 0)
(11.005 0.0738641 0)
(11.1221 0.0596906 0)
(11.2224 0.0962243 0)
(11.2986 0.0813257 0)
(11.3361 0.0923597 0)
(11.448 0.0506811 0)
(11.5075 0.0664297 0)
(11.5717 0.0386897 0)
(11.644 0.0343363 0)
(11.7031 0.054387 0)
(11.7756 0.0359829 0)
(11.8033 0.0611402 0)
(11.8436 0.0203088 0)
(11.8881 0.0227853 0)
(11.9017 0.0426952 0)
(11.8992 0.0232579 0)
(11.815 -0.00272373 0)
(9.99057 0.166518 0)
(10.3127 0.220138 0)
(10.654 0.192653 0)
(10.9694 0.0613425 0)
(11.0937 0.042171 0)
(11.1939 0.0932373 0)
(11.2728 0.0636093 0)
(11.3019 0.075543 0)
(11.4173 0.0501444 0)
(11.4774 0.0533277 0)
(11.5359 0.0281146 0)
(11.6187 0.0312364 0)
(11.6774 0.0516688 0)
(11.7408 0.0215938 0)
(11.7693 0.0502709 0)
(11.8108 0.0235165 0)
(11.8563 0.0166953 0)
(11.8711 0.0307655 0)
(11.8615 0.0166997 0)
(11.7505 0.0112469 0)
(9.99356 0.133292 0)
(10.2891 0.182028 0)
(10.6203 0.153551 0)
(10.9392 0.0538181 0)
(11.0702 0.033278 0)
(11.1712 0.074086 0)
(11.2515 0.0495363 0)
(11.2755 0.0688883 0)
(11.391 0.0342814 0)
(11.4519 0.0422292 0)
(11.5103 0.0310674 0)
(11.5959 0.0189546 0)
(11.6525 0.0414986 0)
(11.718 0.0196794 0)
(11.742 0.0418805 0)
(11.7785 0.0162648 0)
(11.8321 0.00855004 0)
(11.8468 0.0273737 0)
(11.8279 0.0175366 0)
(11.7441 0.00585206 0)
(9.99382 0.103928 0)
(10.2723 0.132978 0)
(10.5942 0.125524 0)
(10.9138 0.0436047 0)
(11.0533 0.0181816 0)
(11.1531 0.0666031 0)
(11.2346 0.0336127 0)
(11.2548 0.0529632 0)
(11.3707 0.0300612 0)
(11.432 0.0315438 0)
(11.4886 0.0227748 0)
(11.5792 0.0130045 0)
(11.634 0.0378212 0)
(11.6977 0.00992529 0)
(11.7197 0.0292664 0)
(11.756 0.0166211 0)
(11.8122 0.00348988 0)
(11.8258 0.0186907 0)
(11.814 0.00596173 0)
(11.7478 -0.00979808 0)
(9.99464 0.0742924 0)
(10.2595 0.0936538 0)
(10.5746 0.0897516 0)
(10.8951 0.0333444 0)
(11.0407 0.00968645 0)
(11.1386 0.0515019 0)
(11.2234 0.0178852 0)
(11.2394 0.043922 0)
(11.3543 0.0191374 0)
(11.4185 0.0184585 0)
(11.4729 0.023032 0)
(11.5654 0.00362582 0)
(11.62 0.0281472 0)
(11.684 0.00574729 0)
(11.7031 0.0210997 0)
(11.7376 0.0116181 0)
(11.7975 -0.00379228 0)
(11.8138 0.0116565 0)
(11.7986 0.00315098 0)
(11.7007 0.00607491 0)
(9.99487 0.0486307 0)
(10.2505 0.047797 0)
(10.5631 0.0582403 0)
(10.8813 0.0228217 0)
(11.0333 -0.0026351 0)
(11.1295 0.0416356 0)
(11.2154 0.00266845 0)
(11.2296 0.0296876 0)
(11.3436 0.0125397 0)
(11.4095 0.00775563 0)
(11.4616 0.0170862 0)
(11.5575 -0.00395882 0)
(11.6112 0.0231078 0)
(11.6733 -0.00115551 0)
(11.6927 0.00900728 0)
(11.7264 0.00921399 0)
(11.7876 -0.00917539 0)
(11.8036 0.00471398 0)
(11.7839 -0.00210694 0)
(11.7112 -0.0164142 0)
(9.99489 0.0215607 0)
(10.2461 0.00707564 0)
(10.5576 0.0241226 0)
(10.8738 0.0107122 0)
(11.0307 -0.0107624 0)
(11.1241 0.0287814 0)
(11.212 -0.0135466 0)
(11.2256 0.0186429 0)
(11.337 0.0037023 0)
(11.4061 -0.00498346 0)
(11.4559 0.0152672 0)
(11.553 -0.0120627 0)
(11.6069 0.0138971 0)
(11.6678 -0.0061144 0)
(11.6883 4.24316e-05 0)
(11.7199 0.00510172 0)
(11.7818 -0.0153875 0)
(11.7991 -0.00293755 0)
(11.7848 -0.00969639 0)
(11.7159 -0.0134594 0)
(9.99485 -0.00348988 0)
(10.2452 -0.03654 0)
(10.5592 -0.00915886 0)
(10.872 -0.000764933 0)
(11.0327 -0.0211521 0)
(11.1232 0.0172857 0)
(11.2126 -0.0287788 0)
(11.2268 0.00507793 0)
(11.3355 -0.00383213 0)
(11.4077 -0.0162167 0)
(11.4552 0.0107692 0)
(11.553 -0.0201828 0)
(11.6074 0.00735492 0)
(11.6668 -0.0116882 0)
(11.6892 -0.0110436 0)
(11.7187 0.0010723 0)
(11.7811 -0.0201249 0)
(11.8009 -0.0109136 0)
(11.7888 -0.0147105 0)
(11.6941 -0.0128619 0)
(9.99479 -0.0299807 0)
(10.2482 -0.0786798 0)
(10.5673 -0.0422401 0)
(10.8759 -0.0130083 0)
(11.0395 -0.0303744 0)
(11.1263 0.00531523 0)
(11.2173 -0.0448598 0)
(11.2337 -0.0067605 0)
(11.3384 -0.0119663 0)
(11.4147 -0.0279746 0)
(11.4596 0.00708361 0)
(11.557 -0.0271182 0)
(11.6128 -0.000925765 0)
(11.6706 -0.0175062 0)
(11.6951 -0.0202932 0)
(11.7236 -0.0035124 0)
(11.7859 -0.0251568 0)
(11.8072 -0.019636 0)
(11.7874 -0.0199913 0)
(11.6744 -0.00514616 0)
(9.99473 -0.0567664 0)
(10.2551 -0.121584 0)
(10.582 -0.0755531 0)
(10.8859 -0.0240305 0)
(11.0508 -0.0405626 0)
(11.1338 -0.00706102 0)
(11.2263 -0.0597638 0)
(11.2457 -0.0194962 0)
(11.3463 -0.0201972 0)
(11.4268 -0.0392034 0)
(11.4691 0.0025829 0)
(11.5654 -0.0340752 0)
(11.623 -0.00899604 0)
(11.6789 -0.02303 0)
(11.7067 -0.0299021 0)
(11.7343 -0.00878706 0)
(11.7953 -0.029611 0)
(11.8148 -0.0267261 0)
(11.79 -0.0220727 0)
(11.7264 -0.0187228 0)
(9.99469 -0.085235 0)
(10.2661 -0.164884 0)
(10.6035 -0.108193 0)
(10.9017 -0.0347818 0)
(11.0668 -0.0510899 0)
(11.1457 -0.0194382 0)
(11.2396 -0.0753024 0)
(11.2633 -0.0316719 0)
(11.359 -0.0286947 0)
(11.4441 -0.0503761 0)
(11.4839 -0.00186744 0)
(11.578 -0.0407879 0)
(11.6378 -0.0174773 0)
(11.6922 -0.0288235 0)
(11.7238 -0.0390432 0)
(11.7506 -0.0144513 0)
(11.809 -0.0331606 0)
(11.8287 -0.0343745 0)
(11.817 -0.0341167 0)
(11.7609 -0.0325861 0)
(9.99466 -0.115674 0)
(10.2813 -0.208393 0)
(10.6318 -0.140999 0)
(10.9234 -0.0449717 0)
(11.0873 -0.062076 0)
(11.1621 -0.0326151 0)
(11.2576 -0.090233 0)
(11.2863 -0.0440146 0)
(11.3769 -0.0377105 0)
(11.4669 -0.0605396 0)
(11.504 -0.00689105 0)
(11.5952 -0.0469293 0)
(11.6576 -0.0261528 0)
(11.7106 -0.0349569 0)
(11.7463 -0.0478598 0)
(11.7729 -0.0201007 0)
(11.8286 -0.0366791 0)
(11.8507 -0.0443739 0)
(11.8353 -0.038559 0)
(11.7142 -0.00815829 0)
(9.99453 -0.148815 0)
(10.301 -0.252138 0)
(10.6673 -0.173142 0)
(10.9511 -0.0549924 0)
(11.1126 -0.0739175 0)
(11.1833 -0.0458817 0)
(11.2803 -0.104742 0)
(11.3148 -0.0561849 0)
(11.4002 -0.0472047 0)
(11.4952 -0.0708651 0)
(11.5296 -0.0123477 0)
(11.6169 -0.0520028 0)
(11.6821 -0.0354178 0)
(11.7342 -0.0413052 0)
(11.7746 -0.0563364 0)
(11.8017 -0.0265601 0)
(11.8539 -0.0398182 0)
(11.8739 -0.0522775 0)
(11.8491 -0.0411784 0)
(11.7745 -0.0241299 0)
(9.99409 -0.185526 0)
(10.326 -0.296076 0)
(10.7096 -0.203393 0)
(10.9847 -0.0653879 0)
(11.1427 -0.0863515 0)
(11.2095 -0.0597638 0)
(11.3085 -0.118794 0)
(11.349 -0.0675256 0)
(11.4293 -0.0570388 0)
(11.5295 -0.0805606 0)
(11.5611 -0.0185257 0)
(11.6436 -0.0572629 0)
(11.7117 -0.0448476 0)
(11.7634 -0.0472946 0)
(11.809 -0.0645051 0)
(11.8373 -0.0336624 0)
(11.8845 -0.0416996 0)
(11.9028 -0.0602621 0)
(11.8885 -0.0515894 0)
(11.8293 -0.0410879 0)
(9.99298 -0.225824 0)
(10.3577 -0.341657 0)
(10.7588 -0.228648 0)
(11.0241 -0.0778443 0)
(11.1778 -0.10029 0)
(11.2414 -0.074032 0)
(11.3429 -0.132579 0)
(11.3897 -0.0791944 0)
(11.4649 -0.0670286 0)
(11.5698 -0.0888668 0)
(11.5988 -0.024899 0)
(11.6755 -0.0622066 0)
(11.7465 -0.0549399 0)
(11.7984 -0.0543777 0)
(11.8496 -0.0722346 0)
(11.8802 -0.0400678 0)
(11.9218 -0.0437833 0)
(11.94 -0.069892 0)
(11.9234 -0.0585695 0)
(11.827 -0.0229471 0)
(9.99036 -0.270504 0)
(10.3991 -0.389152 0)
(10.8151 -0.246781 0)
(11.0667 -0.0941842 0)
(11.2163 -0.116571 0)
(11.2794 -0.0889388 0)
(11.3846 -0.145637 0)
(11.4366 -0.0911394 0)
(11.5069 -0.0782121 0)
(11.6157 -0.0971303 0)
(11.6424 -0.0310273 0)
(11.7122 -0.0658481 0)
(11.7861 -0.0655196 0)
(11.8393 -0.0616773 0)
(11.8971 -0.080672 0)
(11.9311 -0.0463593 0)
(11.9667 -0.0459676 0)
(11.9823 -0.0773527 0)
(11.9612 -0.0622915 0)
(11.8883 -0.0527149 0)
(9.98408 -0.321187 0)
(10.455 -0.437424 0)
(10.8789 -0.259851 0)
(11.1085 -0.113115 0)
(11.2563 -0.134414 0)
(11.3251 -0.104987 0)
(11.4379 -0.157627 0)
(11.4895 -0.102083 0)
(11.5561 -0.0900575 0)
(11.6657 -0.105133 0)
(11.6931 -0.0381707 0)
(11.7536 -0.0687742 0)
(11.8318 -0.0763065 0)
(11.8862 -0.068315 0)
(11.9533 -0.0900345 0)
(11.9892 -0.052158 0)
(12.0202 -0.047276 0)
(12.0295 -0.0853852 0)
(12.0108 -0.0728465 0)
(11.948 -0.0513525 0)
(9.9715 -0.378503 0)
(10.5294 -0.486353 0)
(10.9475 -0.270308 0)
(11.1477 -0.132979 0)
(11.2989 -0.15369 0)
(11.3831 -0.122586 0)
(11.5106 -0.168775 0)
(11.5432 -0.112157 0)
(11.6178 -0.101576 0)
(11.7139 -0.113008 0)
(11.7545 -0.0456913 0)
(11.7976 -0.0721592 0)
(11.8858 -0.087039 0)
(11.9326 -0.0765875 0)
(12.0128 -0.0990094 0)
(12.0293 -0.0586331 0)
(12.0642 -0.0480053 0)
(12.0467 -0.0908976 0)
(12.0302 -0.0757055 0)
(11.9398 -0.0826431 0)
(9.95626 -0.443039 0)
(10.6169 -0.535473 0)
(11.0092 -0.277979 0)
(11.1948 -0.154347 0)
(11.3563 -0.175488 0)
(11.4586 -0.143162 0)
(11.5986 -0.177576 0)
(11.5876 -0.121527 0)
(11.6963 -0.112974 0)
(11.7418 -0.120808 0)
(11.8125 -0.0545099 0)
(11.8171 -0.0759894 0)
(11.9142 -0.0965115 0)
(11.9182 -0.0851269 0)
(11.9951 -0.105258 0)
(11.9398 -0.0634366 0)
(11.9869 -0.0464859 0)
(11.8987 -0.0948574 0)
(11.8905 -0.0750462 0)
(11.7693 -0.0994172 0)
(9.95092 -0.515881 0)
(10.6989 -0.580193 0)
(11.0616 -0.28434 0)
(11.2832 -0.18004 0)
(11.4393 -0.199832 0)
(11.5432 -0.165318 0)
(11.6562 -0.182639 0)
(11.6059 -0.129778 0)
(11.7304 -0.123358 0)
(11.674 -0.124681 0)
(11.7494 -0.0631295 0)
(11.6817 -0.0777036 0)
(11.7462 -0.100796 0)
(11.6612 -0.0873101 0)
(11.6955 -0.103816 0)
(11.5404 -0.0597687 0)
(11.5991 -0.0433035 0)
(11.4269 -0.0881255 0)
(11.4349 -0.0714607 0)
(11.2431 -0.119487 0)
(9.95792 -0.598011 0)
(10.7747 -0.613087 0)
(11.1487 -0.298525 0)
(11.4139 -0.213793 0)
(11.4947 -0.222765 0)
(11.552 -0.182408 0)
(11.5601 -0.181834 0)
(11.448 -0.133915 0)
(11.489 -0.124667 0)
(11.2993 -0.118247 0)
(11.3264 -0.0631626 0)
(11.1696 -0.0721262 0)
(11.1723 -0.093234 0)
(11.0019 -0.080106 0)
(10.9934 -0.0908853 0)
(10.7653 -0.0503834 0)
(10.8445 -0.0362839 0)
(10.6108 -0.0762603 0)
(10.6428 -0.0651125 0)
(10.4015 -0.112653 0)
(9.98241 -0.689054 0)
(10.8781 -0.642381 0)
(11.2543 -0.329549 0)
(11.4202 -0.249195 0)
(11.3115 -0.233225 0)
(11.2197 -0.182509 0)
(11.0451 -0.166274 0)
(10.8243 -0.122329 0)
(10.7355 -0.108962 0)
(10.4524 -0.0983176 0)
(10.429 -0.0528145 0)
(10.2212 -0.0579815 0)
(10.1847 -0.0771144 0)
(9.97018 -0.0659387 0)
(9.93814 -0.0725905 0)
(9.67878 -0.0390907 0)
(9.78025 -0.0283257 0)
(9.51369 -0.0623844 0)
(9.5688 -0.0550503 0)
(9.28751 -0.101516 0)
(10.0725 -0.804488 0)
(10.9311 -0.673293 0)
(11.0989 -0.354126 0)
(10.9398 -0.254777 0)
(10.5514 -0.209384 0)
(10.2681 -0.153424 0)
(9.94098 -0.130185 0)
(9.65706 -0.0944767 0)
(9.48789 -0.0811827 0)
(9.18474 -0.0722895 0)
(9.13652 -0.037868 0)
(8.92561 -0.0412241 0)
(8.87222 -0.0582267 0)
(8.64891 -0.0497015 0)
(8.60443 -0.0532494 0)
(8.35029 -0.0282204 0)
(8.46181 -0.0209565 0)
(8.19005 -0.0469583 0)
(8.25752 -0.0457751 0)
(7.95911 -0.0721046 0)
(10.1608 -0.947154 0)
(10.5728 -0.67043 0)
(10.2397 -0.328809 0)
(9.67827 -0.20928 0)
(9.08993 -0.151869 0)
(8.71129 -0.105149 0)
(8.34167 -0.0860743 0)
(8.06378 -0.0624221 0)
(7.87296 -0.0518673 0)
(7.60167 -0.0471927 0)
(7.54705 -0.0232892 0)
(7.36538 -0.0256771 0)
(7.30733 -0.0395743 0)
(7.10139 -0.0334757 0)
(7.05192 -0.0349452 0)
(6.8302 -0.018941 0)
(6.93428 -0.0138281 0)
(6.68315 -0.0324706 0)
(6.74997 -0.0346258 0)
(6.45268 -0.0417387 0)
(9.85805 -1.02183 0)
(9.34635 -0.578236 0)
(8.46365 -0.240667 0)
(7.6656 -0.129366 0)
(7.06725 -0.0845476 0)
(6.71097 -0.0565944 0)
(6.38762 -0.0461166 0)
(6.15967 -0.0337153 0)
(5.99194 -0.0266031 0)
(5.78104 -0.0260539 0)
(5.73201 -0.0113447 0)
(5.59816 -0.012958 0)
(5.54444 -0.0228671 0)
(5.3752 -0.0189069 0)
(5.32665 -0.0193776 0)
(5.1547 -0.0113502 0)
(5.23455 -0.00738687 0)
(5.02907 -0.0197476 0)
(5.08022 -0.0217094 0)
(4.8028 -0.0209928 0)
(8.59967 -0.871818 0)
(6.95009 -0.383813 0)
(5.8051 -0.121677 0)
(5.07012 -0.0502425 0)
(4.63578 -0.0297204 0)
(4.38751 -0.0200716 0)
(4.16535 -0.0167819 0)
(4.01324 -0.0123556 0)
(3.89838 -0.00862461 0)
(3.76305 -0.0104338 0)
(3.72704 -0.00340869 0)
(3.64825 -0.00403966 0)
(3.60706 -0.00966907 0)
(3.48973 -0.00760766 0)
(3.4494 -0.00789289 0)
(3.33573 -0.00543827 0)
(3.38134 -0.00256849 0)
(3.24283 -0.00922233 0)
(3.26471 -0.00970404 0)
(3.0497 -0.00961976 0)
(5.32835 -0.3094 0)
(2.98575 -0.0606907 0)
(2.19362 0.00150226 0)
(1.85293 0.0038791 0)
(1.70086 0.000885467 0)
(1.61319 0.000294458 0)
(1.53248 -6.82004e-05 0)
(1.47684 -5.59738e-05 0)
(1.43735 0.000767432 0)
(1.38946 -0.00101434 0)
(1.37295 0.000449213 0)
(1.35123 0.000488356 0)
(1.33414 -0.00082135 0)
(1.28648 -0.000251137 0)
(1.266 -0.000635268 0)
(1.21938 -0.000905802 0)
(1.23006 0.00035678 0)
(1.17721 -0.00123525 0)
(1.17168 -0.000774716 0)
(1.08166 0.0058655 0)
(1.92819 -0.181646 0)
(1.32068 0.00121727 0)
(1.67396 0.00131911 0)
(2.11909 -0.20847 0)
(1.4161 0.248218 0)
(2.57225 0.471418 0)
(2.87796 0.682687 0)
(2.97063 1.1356 0)
(3.68861 1.19086 0)
(4.21009 1.29201 0)
(5.23509 1.31454 0)
(6.08794 1.42837 0)
(6.25681 1.61315 0)
(6.45444 1.2756 0)
(7.9189 0.280001 0)
(10.1812 -0.449444 0)
(10.5805 0.186583 0)
(10.2372 0.657149 0)
(10.4537 -0.721635 0)
(9.69391 -2.13764 0)
(8.70547 -2.29583 0)
(9.15762 -2.5139 0)
(10.381 -3.6664 0)
(10.9186 -4.83235 0)
(10.8072 -5.19611 0)
(10.7169 -4.90753 0)
(10.7991 -4.54028 0)
(10.8622 -4.5197 0)
(10.5335 -4.71729 0)
(9.7373 -4.67565 0)
(9.00414 -4.42024 0)
(8.50136 -4.23178 0)
(8.02284 -4.04431 0)
(7.61251 -3.76723 0)
(7.22236 -3.43047 0)
(6.83827 -3.07264 0)
(6.59544 -2.74399 0)
(6.46737 -2.48204 0)
(6.34218 -2.28131 0)
(6.19725 -2.10667 0)
(6.0614 -1.92347 0)
(5.95927 -1.71731 0)
(5.89698 -1.49876 0)
(5.85505 -1.29516 0)
(5.80463 -1.13099 0)
(5.73262 -1.01203 0)
(5.64659 -0.926363 0)
(5.5626 -0.856318 0)
(5.4927 -0.789046 0)
(5.44048 -0.719765 0)
(5.40329 -0.649532 0)
(5.37629 -0.581526 0)
(5.35533 -0.518465 0)
(5.33783 -0.461702 0)
(5.3226 -0.4114 0)
(5.30921 -0.367051 0)
(5.29751 -0.327906 0)
(5.28741 -0.29323 0)
(5.27878 -0.262399 0)
(5.27148 -0.234903 0)
(5.26533 -0.210331 0)
(5.26017 -0.188342 0)
(5.25584 -0.168652 0)
(5.25222 -0.151014 0)
(5.24919 -0.135212 0)
(5.24664 -0.121052 0)
(5.24451 -0.108364 0)
(5.24273 -0.0969949 0)
(5.24124 -0.0868077 0)
(5.23998 -0.0776789 0)
(5.23893 -0.0694991 0)
(5.23804 -0.0621706 0)
(5.2373 -0.0556046 0)
(5.23668 -0.0497213 0)
(5.23615 -0.0444502 0)
(5.23571 -0.0397283 0)
(5.23534 -0.0354982 0)
(5.23502 -0.031708 0)
(5.23475 -0.0283121 0)
(5.23453 -0.0252697 0)
(5.23434 -0.0225435 0)
(5.23418 -0.0200998 0)
(5.23404 -0.0179088 0)
(5.23393 -0.0159444 0)
(5.23383 -0.014182 0)
(5.23374 -0.0125998 0)
(5.23367 -0.0111784 0)
(5.23361 -0.009901 0)
(5.23356 -0.00875154 0)
(5.23352 -0.00771543 0)
(5.23347 -0.0067802 0)
(5.23344 -0.00593489 0)
(5.23342 -0.00516899 0)
(5.23339 -0.00447258 0)
(5.23337 -0.00383733 0)
(5.23335 -0.00325609 0)
(5.23334 -0.00272159 0)
(5.23333 -0.00222704 0)
(5.23332 -0.00176667 0)
(5.23331 -0.00133554 0)
(5.23331 -0.000928494 0)
(5.2333 -0.000540451 0)
(5.23329 -0.00016692 0)
(5.23329 0.000195333 0)
(5.23329 0.00055072 0)
(5.23329 0.000903537 0)
(5.23329 0.00125717 0)
(5.23329 0.00161469 0)
(5.2333 0.00197998 0)
(5.2333 0.00235714 0)
(5.2333 0.00274954 0)
(5.23331 0.00316042 0)
(5.23332 0.00359382 0)
(5.23333 0.0040542 0)
(5.23334 0.00454552 0)
(5.23335 0.00507179 0)
(5.23337 0.00563784 0)
(5.23338 0.00624921 0)
(5.2334 0.00691111 0)
(5.23342 0.00762903 0)
(5.23345 0.00840943 0)
(5.23348 0.00925989 0)
(5.23351 0.0101877 0)
(5.23355 0.0112011 0)
(5.2336 0.0123092 0)
(5.23364 0.0135238 0)
(5.2337 0.0148545 0)
(5.23376 0.0163177 0)
(5.23384 0.0179209 0)
(5.23392 0.0196959 0)
(5.23402 0.0216338 0)
(5.2341 0.0238094 0)
(5.23426 0.0261493 0)
(5.23431 0.0288673 0)
(5.23454 0.0316665 0)
(5.23449 0.03518 0)
(5.23489 0.0384266 0)
(5.23454 0.0432304 0)
(5.2352 0.0467191 0)
(5.23419 0.0537791 0)
(5.23516 0.0568887 0)
(5.23292 0.0679057 0)
(5.23373 0.0693856 0)
(5.22972 0.0866458 0)
(5.22856 0.0847524 0)
(5.22295 0.109523 0)
(5.2157 0.103148 0)
(5.21102 0.131959 0)
(5.19168 0.122982 0)
(5.19522 0.144698 0)
(5.15717 0.140347 0)
(5.18392 0.139074 0)
(5.11791 0.154029 0)
(5.19001 0.112872 0)
(5.08711 0.174423 0)
(5.20476 0.0761747 0)
(5.10317 0.205122 0)
(5.16793 0.0739921 0)
(5.21805 0.197821 0)
(5.02988 0.167145 0)
(5.39667 0.124495 0)
(4.87279 0.306238 0)
(5.49646 0.08941 0)
(4.84335 0.348444 0)
(5.46636 0.192855 0)
(4.89002 0.281967 0)
(5.43729 0.356438 0)
(4.90455 0.250813 0)
(5.39891 0.437249 0)
(4.99187 0.342661 0)
(5.27102 0.438689 0)
(5.11651 0.469774 0)
(5.20028 0.504204 0)
(5.12017 0.520309 0)
(5.28164 0.651761 0)
(5.02268 0.592175 0)
(5.37606 0.770108 0)
(4.96777 0.739467 0)
(5.45376 0.885141 0)
(4.96631 0.932441 0)
(5.3835 1.01406 0)
(5.07276 1.18759 0)
(5.3106 1.18921 0)
(5.21878 1.45529 0)
(5.11176 1.4044 0)
(5.40973 1.7541 0)
(4.91992 1.84123 0)
(5.39786 2.06175 0)
(5.05801 2.2551 0)
(5.22409 2.43258 0)
(5.13318 2.89711 0)
(5.04722 3.12023 0)
(4.98802 3.50305 0)
(4.72817 4.09338 0)
(4.66004 4.46586 0)
(5.13764 4.88194 0)
(4.78967 5.78842 0)
(4.66952 6.70512 0)
(5.14602 7.78251 0)
(2.94243 11.0639 0)
(3.61913 -0.0762591 0)
(3.30594 0.0585452 0)
(3.06909 -0.033701 0)
(3.80133 -0.0777287 0)
(2.73457 0.16698 0)
(3.21877 0.233285 0)
(3.67251 0.540493 0)
(3.63999 1.04513 0)
(4.15509 1.10424 0)
(4.7436 0.948364 0)
(5.24727 0.927151 0)
(5.38711 1.28419 0)
(5.57853 1.43032 0)
(6.43035 0.576248 0)
(8.33643 -0.754542 0)
(10.0084 -0.991851 0)
(10.1497 0.167669 0)
(10.2641 0.612002 0)
(10.6038 -0.6581 0)
(10.0326 -1.84343 0)
(9.73382 -2.24831 0)
(10.6476 -2.88191 0)
(11.5699 -4.0019 0)
(11.6099 -4.92049 0)
(11.1796 -5.17169 0)
(11.0059 -4.87028 0)
(11.0065 -4.50182 0)
(10.8582 -4.39402 0)
(10.399 -4.44897 0)
(9.60914 -4.38044 0)
(8.96468 -4.17305 0)
(8.60396 -4.02805 0)
(8.19256 -3.87862 0)
(7.75989 -3.59829 0)
(7.36631 -3.26296 0)
(6.98229 -2.95414 0)
(6.72988 -2.6725 0)
(6.61579 -2.42249 0)
(6.50459 -2.21841 0)
(6.34212 -2.04268 0)
(6.15942 -1.86399 0)
(5.99452 -1.67065 0)
(5.87519 -1.46943 0)
(5.8065 -1.27672 0)
(5.76593 -1.11191 0)
(5.72509 -0.985984 0)
(5.67066 -0.894932 0)
(5.60606 -0.824916 0)
(5.54174 -0.762151 0)
(5.48604 -0.698986 0)
(5.44186 -0.634187 0)
(5.40798 -0.570043 0)
(5.38159 -0.509407 0)
(5.36014 -0.454144 0)
(5.342 -0.404877 0)
(5.32635 -0.361363 0)
(5.31277 -0.322967 0)
(5.30102 -0.288979 0)
(5.29094 -0.25877 0)
(5.28235 -0.231824 0)
(5.27505 -0.207729 0)
(5.26886 -0.186148 0)
(5.26361 -0.166803 0)
(5.25918 -0.149457 0)
(5.25542 -0.133899 0)
(5.25222 -0.119944 0)
(5.24951 -0.107428 0)
(5.24721 -0.0962045 0)
(5.24525 -0.0861392 0)
(5.24358 -0.0771129 0)
(5.24215 -0.0690194 0)
(5.24093 -0.0617636 0)
(5.23989 -0.055259 0)
(5.23899 -0.0494273 0)
(5.23823 -0.0441998 0)
(5.23757 -0.0395149 0)
(5.23701 -0.035316 0)
(5.23652 -0.0315522 0)
(5.23609 -0.0281785 0)
(5.23573 -0.0251553 0)
(5.23542 -0.0224453 0)
(5.23514 -0.0200153 0)
(5.2349 -0.017836 0)
(5.2347 -0.0158816 0)
(5.23453 -0.0141279 0)
(5.23437 -0.0125529 0)
(5.23423 -0.0111378 0)
(5.23412 -0.00986587 0)
(5.23402 -0.00872115 0)
(5.23393 -0.00768905 0)
(5.23384 -0.00675721 0)
(5.23378 -0.00591508 0)
(5.23372 -0.00515188 0)
(5.23367 -0.00445774 0)
(5.23362 -0.00382452 0)
(5.23359 -0.00324516 0)
(5.23356 -0.00271237 0)
(5.23353 -0.00221924 0)
(5.2335 -0.00176015 0)
(5.23349 -0.00133029 0)
(5.23347 -0.00092447 0)
(5.23346 -0.00053723 0)
(5.23344 -0.000164853 0)
(5.23344 0.00019686 0)
(5.23344 0.000551441 0)
(5.23344 0.000903368 0)
(5.23344 0.00125618 0)
(5.23344 0.00161294 0)
(5.23345 0.00197745 0)
(5.23346 0.00235385 0)
(5.23347 0.00274547 0)
(5.23349 0.00315548 0)
(5.23351 0.00358789 0)
(5.23353 0.00404734 0)
(5.23355 0.00453762 0)
(5.23358 0.00506267 0)
(5.23361 0.00562735 0)
(5.23365 0.00623734 0)
(5.23369 0.00689765 0)
(5.23374 0.00761373 0)
(5.23379 0.00839203 0)
(5.23385 0.00924029 0)
(5.23391 0.0101655 0)
(5.23399 0.011176 0)
(5.23408 0.0122807 0)
(5.23417 0.0134918 0)
(5.23428 0.0148182 0)
(5.2344 0.016277 0)
(5.23455 0.0178742 0)
(5.23469 0.019645 0)
(5.23488 0.0215739 0)
(5.23504 0.0237484 0)
(5.23531 0.0260709 0)
(5.23546 0.0288026 0)
(5.23586 0.031559 0)
(5.2359 0.0351385 0)
(5.23658 0.0382618 0)
(5.23625 0.0432962 0)
(5.23744 0.0464255 0)
(5.23626 0.0541806 0)
(5.23823 0.0563074 0)
(5.2354 0.0691888 0)
(5.23799 0.0682421 0)
(5.23255 0.0899198 0)
(5.23429 0.0827047 0)
(5.22557 0.116562 0)
(5.22294 0.0997872 0)
(5.21153 0.144759 0)
(5.20059 0.116967 0)
(5.19001 0.165117 0)
(5.16844 0.126673 0)
(5.17158 0.170704 0)
(5.12817 0.121823 0)
(5.18439 0.161981 0)
(5.07157 0.115373 0)
(5.25727 0.140308 0)
(4.98309 0.137446 0)
(5.38774 0.122055 0)
(4.85423 0.179724 0)
(5.53768 0.134991 0)
(4.74153 0.218463 0)
(5.59502 0.164911 0)
(4.78433 0.253856 0)
(5.46722 0.21544 0)
(4.96423 0.263051 0)
(5.29916 0.305484 0)
(5.08928 0.262553 0)
(5.22495 0.385061 0)
(5.1437 0.327095 0)
(5.16672 0.401929 0)
(5.23467 0.437867 0)
(5.07656 0.456767 0)
(5.29211 0.490884 0)
(5.12562 0.585965 0)
(5.18954 0.550798 0)
(5.24485 0.707158 0)
(5.10356 0.662407 0)
(5.40144 0.831939 0)
(4.96165 0.805514 0)
(5.50287 0.989423 0)
(4.95797 1.0162 0)
(5.55385 1.13317 0)
(5.01758 1.26866 0)
(5.43732 1.32121 0)
(5.21177 1.62821 0)
(5.20195 1.59392 0)
(5.42705 1.95537 0)
(5.0937 1.96387 0)
(5.58208 2.26596 0)
(5.12222 2.58492 0)
(5.3363 2.74296 0)
(5.51059 3.06806 0)
(5.49696 3.36935 0)
(5.67857 3.73471 0)
(5.39331 4.46871 0)
(5.02158 5.15837 0)
(5.13308 5.7686 0)
(4.93084 6.92658 0)
(6.21261 7.78415 0)
(4.10548 11.9164 0)
(5.03653 -0.0893192 0)
(5.14749 0.0875823 0)
(4.64666 -0.0418285 0)
(5.25737 -0.105766 0)
(4.81346 0.279325 0)
(4.70555 0.267335 0)
(5.08698 0.402581 0)
(4.88375 0.87949 0)
(5.13957 0.954746 0)
(5.94853 0.792599 0)
(6.214 0.885556 0)
(6.10239 1.25778 0)
(6.6193 1.12484 0)
(7.67669 -0.0442881 0)
(8.733 -1.31689 0)
(9.41556 -1.16052 0)
(9.58019 0.168105 0)
(10.1603 0.499387 0)
(10.8047 -0.653841 0)
(10.7726 -1.69438 0)
(11.1207 -2.29162 0)
(11.9902 -3.11898 0)
(12.4069 -4.12294 0)
(12.1204 -4.79928 0)
(11.4555 -4.9525 0)
(11.0349 -4.71966 0)
(10.816 -4.40819 0)
(10.5186 -4.26873 0)
(10.0981 -4.22538 0)
(9.46064 -4.13585 0)
(8.945 -4.00581 0)
(8.68521 -3.87819 0)
(8.31324 -3.71341 0)
(7.85672 -3.43152 0)
(7.4699 -3.09146 0)
(7.11039 -2.82253 0)
(6.85091 -2.6116 0)
(6.73146 -2.38566 0)
(6.62486 -2.15729 0)
(6.44979 -1.95951 0)
(6.23496 -1.77957 0)
(6.02515 -1.59903 0)
(5.85289 -1.41898 0)
(5.74002 -1.24818 0)
(5.68328 -1.09665 0)
(5.65724 -0.972748 0)
(5.63515 -0.877366 0)
(5.60336 -0.803035 0)
(5.56171 -0.739242 0)
(5.51658 -0.678188 0)
(5.4742 -0.616947 0)
(5.43769 -0.556301 0)
(5.40741 -0.498411 0)
(5.38232 -0.445103 0)
(5.36122 -0.397231 0)
(5.34321 -0.35479 0)
(5.3277 -0.317291 0)
(5.31433 -0.28409 0)
(5.30283 -0.254578 0)
(5.29298 -0.228245 0)
(5.28457 -0.204681 0)
(5.27738 -0.183556 0)
(5.27125 -0.164599 0)
(5.26602 -0.147581 0)
(5.26155 -0.132302 0)
(5.25772 -0.118583 0)
(5.25444 -0.106266 0)
(5.25163 -0.0952103 0)
(5.24921 -0.085288 0)
(5.24713 -0.0763829 0)
(5.24533 -0.0683925 0)
(5.24379 -0.0612246 0)
(5.24245 -0.0547947 0)
(5.24129 -0.049027 0)
(5.24028 -0.0438541 0)
(5.23941 -0.0392159 0)
(5.23866 -0.0350572 0)
(5.238 -0.0313277 0)
(5.23742 -0.0279837 0)
(5.23692 -0.0249859 0)
(5.23649 -0.022298 0)
(5.2361 -0.0198869 0)
(5.23576 -0.017724 0)
(5.23547 -0.0157839 0)
(5.23522 -0.0140427 0)
(5.23499 -0.0124785 0)
(5.23479 -0.0110727 0)
(5.23462 -0.00980906 0)
(5.23447 -0.00867165 0)
(5.23433 -0.00764584 0)
(5.23421 -0.00671959 0)
(5.23411 -0.00588239 0)
(5.23403 -0.00512354 0)
(5.23395 -0.00443319 0)
(5.23387 -0.00380331 0)
(5.23382 -0.00322691 0)
(5.23377 -0.00269684 0)
(5.23373 -0.00220602 0)
(5.23369 -0.00174897 0)
(5.23366 -0.00132111 0)
(5.23364 -0.000917024 0)
(5.23362 -0.000531429 0)
(5.2336 -0.000160419 0)
(5.23359 0.000199649 0)
(5.23359 0.000552742 0)
(5.23358 0.000903309 0)
(5.23358 0.00125479 0)
(5.23359 0.00161017 0)
(5.23361 0.00197325 0)
(5.23362 0.00234818 0)
(5.23364 0.00273835 0)
(5.23366 0.00314682 0)
(5.23369 0.00357758 0)
(5.23372 0.00403528 0)
(5.23376 0.00452376 0)
(5.23381 0.00504682 0)
(5.23386 0.00560933 0)
(5.23391 0.00621696 0)
(5.23397 0.00687471 0)
(5.23405 0.00758786 0)
(5.23413 0.00836294 0)
(5.23422 0.00920757 0)