/*--------------------------------*- C++ -*----------------------------------*\
| =========                 |                                                 |
| \\      /  F ield         | OpenFOAM: The Open Source CFD Toolbox           |
|  \\    /   O peration     | Version:  2.4.0                                 |
|   \\  /    A nd           | Web:      www.OpenFOAM.org                      |
|    \\/     M anipulation  |                                                 |
\*---------------------------------------------------------------------------*/
FoamFile
{
    version     2.0;
    format      ascii;
    class       volScalarField;
    location    "0.037";
    object      nuSgs;
}
// * * * * * * * * * * * * * * * * * * * * * * * * * * * * * * * * * * * * * //

dimensions      [0 2 -1 0 0 0 0];

internalField   nonuniform List<scalar> 
17600
(
0.00101272
0.000904333
0.000753171
0.000658493
0.000607663
0.000571466
0.000544108
0.000523474
0.000506434
0.000492173
0.000482504
0.000472502
0.000465206
0.000457143
0.000447472
0.000441247
0.000428964
0.000423174
0.000407253
0.000402139
0.000705407
0.00082763
0.000803662
0.00074654
0.000698928
0.000659526
0.000628962
0.000606016
0.000586321
0.000568972
0.000557663
0.000545675
0.000537266
0.000528874
0.000518371
0.000513025
0.000501825
0.000495198
0.000484295
0.000476106
0.000382461
0.000601796
0.000664557
0.00066153
0.000645155
0.000618939
0.000596054
0.000577325
0.000561288
0.000545431
0.000535327
0.000524178
0.000516303
0.000509442
0.00050062
0.000495818
0.000488789
0.000480614
0.00047654
0.000467636
0.00015164
0.000362978
0.00046075
0.000507456
0.000526862
0.000527051
0.000523233
0.000514256
0.000506422
0.00049563
0.000488984
0.000480698
0.000474773
0.000469815
0.000464667
0.000459434
0.000457199
0.000449473
0.000448765
0.000443163
5.37107e-05
0.000172243
0.000264381
0.000327782
0.000369981
0.000397031
0.000414121
0.000419631
0.000424238
0.000423382
0.000422362
0.000419604
0.000417703
0.000415154
0.00041472
0.000411516
0.000412013
0.000408044
0.000409028
0.0004064
1.74676e-05
6.97077e-05
0.000119905
0.000174783
0.00021358
0.000248948
0.000281673
0.000298228
0.000316459
0.000326482
0.000334444
0.000338337
0.000342858
0.000344557
0.000349846
0.000350633
0.00035419
0.000354417
0.000357323
0.000358595
5.59223e-06
2.62411e-05
4.6235e-05
7.56165e-05
0.000100623
0.00012306
0.000159513
0.000175431
0.000198092
0.000215222
0.000229397
0.000239592
0.000250394
0.000256296
0.000268327
0.000274231
0.000281634
0.000287739
0.000291903
0.000301374
2.31617e-06
9.58786e-06
1.66703e-05
2.75153e-05
3.91733e-05
5.03599e-05
7.24114e-05
8.42045e-05
0.000100408
0.000117595
0.000129533
0.000141628
0.000153144
0.000161937
0.000174967
0.00018752
0.000195632
0.000208708
0.000214642
0.000230289
1.72006e-06
3.87549e-06
6.24147e-06
9.75557e-06
1.34681e-05
1.78496e-05
2.69856e-05
3.37477e-05
4.04819e-05
5.2944e-05
5.90086e-05
6.9084e-05
7.55992e-05
8.37901e-05
9.23168e-05
0.000106061
0.00011316
0.00012704
0.000133689
0.000151486
1.63683e-06
2.37283e-06
3.21707e-06
4.42025e-06
5.23501e-06
6.42743e-06
9.25204e-06
1.17563e-05
1.42967e-05
1.96705e-05
2.25194e-05
2.75752e-05
3.02752e-05
3.48384e-05
3.90574e-05
4.76787e-05
5.30448e-05
6.31255e-05
6.82457e-05
8.16268e-05
1.60826e-06
2.10035e-06
2.5436e-06
3.11017e-06
3.36576e-06
3.50816e-06
3.98045e-06
4.48442e-06
5.23566e-06
7.07092e-06
8.14593e-06
9.9725e-06
1.08686e-05
1.20957e-05
1.37159e-05
1.71981e-05
2.01224e-05
2.55751e-05
2.85388e-05
3.587e-05
1.57733e-06
1.93081e-06
2.29939e-06
2.79805e-06
2.97794e-06
2.96952e-06
2.97807e-06
2.97957e-06
3.04806e-06
3.44183e-06
4.01947e-06
4.53745e-06
4.74959e-06
4.92106e-06
5.26857e-06
6.06508e-06
7.08573e-06
9.15278e-06
1.04585e-05
1.32654e-05
1.55745e-06
1.81687e-06
2.21982e-06
2.60388e-06
2.72593e-06
2.73529e-06
2.71238e-06
2.66675e-06
2.67062e-06
2.7681e-06
3.07392e-06
3.29476e-06
3.38461e-06
3.40368e-06
3.43829e-06
3.51018e-06
3.67015e-06
4.12286e-06
4.52034e-06
5.27897e-06
1.5427e-06
1.76382e-06
2.06585e-06
2.42569e-06
2.55002e-06
2.55966e-06
2.55497e-06
2.52973e-06
2.5168e-06
2.53935e-06
2.6939e-06
2.87765e-06
2.96164e-06
2.97916e-06
2.99207e-06
2.99658e-06
3.00653e-06
3.04765e-06
3.15721e-06
3.5389e-06
1.52959e-06
1.72327e-06
1.99063e-06
2.26179e-06
2.36931e-06
2.40223e-06
2.41757e-06
2.41101e-06
2.39682e-06
2.40564e-06
2.47606e-06
2.60485e-06
2.68315e-06
2.70232e-06
2.7072e-06
2.70446e-06
2.70365e-06
2.71559e-06
2.789e-06
2.91335e-06
1.52109e-06
1.70541e-06
1.92482e-06
2.14405e-06
2.2487e-06
2.28738e-06
2.30416e-06
2.30023e-06
2.28405e-06
2.28511e-06
2.32213e-06
2.41943e-06
2.47858e-06
2.48996e-06
2.4954e-06
2.49289e-06
2.49151e-06
2.498e-06
2.53031e-06
2.59075e-06
1.51469e-06
1.68098e-06
1.89642e-06
2.06769e-06
2.14927e-06
2.19111e-06
2.20958e-06
2.20508e-06
2.19159e-06
2.19314e-06
2.22322e-06
2.28696e-06
2.32389e-06
2.32992e-06
2.33032e-06
2.32636e-06
2.32575e-06
2.33207e-06
2.35432e-06
2.41463e-06
1.51038e-06
1.68507e-06
1.84888e-06
2.00509e-06
2.09167e-06
2.13215e-06
2.14567e-06
2.14061e-06
2.12323e-06
2.12108e-06
2.13831e-06
2.18788e-06
2.21145e-06
2.21346e-06
2.21436e-06
2.21252e-06
2.21171e-06
2.21667e-06
2.23357e-06
2.2955e-06
1.50787e-06
1.67313e-06
1.83113e-06
1.9799e-06
2.05121e-06
2.08468e-06
2.0971e-06
2.0897e-06
2.07365e-06
2.07341e-06
2.09481e-06
2.12961e-06
2.14234e-06
2.14286e-06
2.14111e-06
2.13601e-06
2.13624e-06
2.14298e-06
2.15656e-06
2.20127e-06
1.50653e-06
1.68106e-06
1.8167e-06
1.95433e-06
2.0296e-06
2.06471e-06
2.07608e-06
2.06879e-06
2.05316e-06
2.05154e-06
2.06709e-06
2.09904e-06
2.10783e-06
2.10775e-06
2.1051e-06
2.10235e-06
2.10301e-06
2.10908e-06
2.12036e-06
2.15591e-06
1.50688e-06
1.68226e-06
1.81807e-06
1.95512e-06
2.02747e-06
2.05782e-06
2.07054e-06
2.06398e-06
2.0506e-06
2.05022e-06
2.06961e-06
2.1027e-06
2.11019e-06
2.11076e-06
2.10829e-06
2.10415e-06
2.10448e-06
2.11019e-06
2.12262e-06
2.15867e-06
1.50838e-06
1.69679e-06
1.83199e-06
1.96e-06
2.03934e-06
2.0733e-06
2.0904e-06
2.08548e-06
2.07482e-06
2.07488e-06
2.09328e-06
2.13321e-06
2.14361e-06
2.1455e-06
2.14479e-06
2.1417e-06
2.14224e-06
2.14889e-06
2.16794e-06
2.20387e-06
1.51145e-06
1.71159e-06
1.86014e-06
1.98386e-06
2.07163e-06
2.10547e-06
2.13177e-06
2.12955e-06
2.12166e-06
2.12298e-06
2.14441e-06
2.19849e-06
2.2151e-06
2.22046e-06
2.22099e-06
2.21829e-06
2.21884e-06
2.22839e-06
2.25256e-06
2.28872e-06
1.51619e-06
1.73403e-06
1.90432e-06
2.02027e-06
2.11912e-06
2.15594e-06
2.19872e-06
2.20099e-06
2.19738e-06
2.20006e-06
2.22335e-06
2.2955e-06
2.323e-06
2.33502e-06
2.33741e-06
2.33541e-06
2.33657e-06
2.3488e-06
2.37314e-06
2.4324e-06
1.52292e-06
1.75996e-06
1.95926e-06
2.07735e-06
2.19238e-06
2.22743e-06
2.28662e-06
2.29803e-06
2.29742e-06
2.30344e-06
2.33346e-06
2.42986e-06
2.47296e-06
2.49324e-06
2.49967e-06
2.49846e-06
2.49993e-06
2.51192e-06
2.54548e-06
2.6708e-06
1.5321e-06
1.79981e-06
2.02272e-06
2.15448e-06
2.29101e-06
2.32767e-06
2.39746e-06
2.41577e-06
2.41954e-06
2.43634e-06
2.48781e-06
2.61798e-06
2.67513e-06
2.7036e-06
2.71269e-06
2.71252e-06
2.71462e-06
2.73224e-06
2.78557e-06
2.98284e-06
1.54324e-06
1.86138e-06
2.07598e-06
2.25644e-06
2.43164e-06
2.47616e-06
2.53675e-06
2.54996e-06
2.559e-06
2.60357e-06
2.72772e-06
2.89991e-06
2.95955e-06
2.98889e-06
2.99605e-06
3.00212e-06
3.01581e-06
3.08103e-06
3.18794e-06
3.49738e-06
1.55531e-06
1.94209e-06
2.12779e-06
2.36294e-06
2.6101e-06
2.66027e-06
2.70837e-06
2.71383e-06
2.73624e-06
2.87918e-06
3.1616e-06
3.40012e-06
3.4444e-06
3.47445e-06
3.50379e-06
3.57839e-06
3.73541e-06
4.18582e-06
4.55775e-06
5.46205e-06
1.57038e-06
2.0245e-06
2.21078e-06
2.44526e-06
2.83311e-06
2.89723e-06
3.0422e-06
3.0887e-06
3.2286e-06
3.75647e-06
4.25194e-06
4.83676e-06
4.95747e-06
5.20222e-06
5.54218e-06
6.39742e-06
7.31041e-06
9.33301e-06
1.05807e-05
1.35092e-05
1.59123e-06
2.10786e-06
2.35654e-06
2.65885e-06
3.33449e-06
3.56092e-06
4.39031e-06
4.83085e-06
5.62944e-06
7.55289e-06
8.57494e-06
1.04876e-05
1.11705e-05
1.27987e-05
1.44155e-05
1.79119e-05
2.05151e-05
2.59381e-05
2.88662e-05
3.62161e-05
1.62673e-06
2.39462e-06
3.02327e-06
3.99876e-06
5.52939e-06
6.59801e-06
1.00222e-05
1.1922e-05
1.47565e-05
2.0474e-05
2.31872e-05
2.83978e-05
3.06845e-05
3.59956e-05
4.00467e-05
4.83958e-05
5.3343e-05
6.36548e-05
6.86989e-05
8.22074e-05
1.72774e-06
3.97734e-06
6.18072e-06
9.28061e-06
1.43628e-05
1.81049e-05
2.77998e-05
3.34588e-05
4.07543e-05
5.42506e-05
5.97192e-05
7.05245e-05
7.53071e-05
8.60406e-05
9.27507e-05
0.0001064
0.000113224
0.000127641
0.000134021
0.000150828
2.33348e-06
9.812e-06
1.66098e-05
2.58949e-05
4.13923e-05
5.09708e-05
7.24614e-05
8.37078e-05
9.9981e-05
0.000120054
0.000128369
0.000144531
0.000151226
0.000165403
0.000173398
0.000188851
0.000195418
0.00020934
0.000214786
0.00022909
5.61295e-06
2.67549e-05
4.59522e-05
7.15157e-05
0.000105362
0.000122942
0.000158877
0.00017427
0.00019853
0.000216801
0.000227603
0.00024237
0.00024821
0.000259476
0.000266513
0.000276285
0.000280251
0.000288826
0.000291871
0.000299927
1.75151e-05
7.09331e-05
0.000118739
0.00017219
0.000217395
0.000244496
0.000284232
0.000296718
0.000317399
0.000326402
0.000334273
0.000339467
0.000341957
0.000345788
0.000349202
0.000351572
0.000352845
0.000355456
0.000356204
0.000357999
5.38985e-05
0.000174292
0.000263076
0.000326915
0.000370966
0.000394955
0.000415634
0.000418484
0.000425039
0.000422745
0.000422654
0.000419593
0.000418275
0.00041521
0.000414761
0.000412035
0.00041127
0.000408883
0.000407351
0.000405354
0.000152216
0.000363407
0.000460045
0.000507133
0.000526741
0.000526758
0.000523454
0.000513287
0.000507933
0.000494302
0.000490195
0.000479446
0.000476277
0.000468256
0.00046584
0.000458676
0.000456702
0.000450113
0.000446844
0.000442413
0.000383814
0.000601215
0.00066418
0.00066136
0.000644722
0.000619427
0.000596158
0.000576395
0.000563295
0.000543162
0.000537198
0.000521994
0.000518212
0.000506729
0.000503277
0.000492736
0.000489995
0.000479216
0.000475541
0.000467631
0.000706218
0.000826813
0.00080339
0.000746784
0.000698276
0.000660535
0.000628617
0.000605508
0.000588101
0.000566583
0.000559964
0.000542824
0.000539464
0.000525601
0.000521839
0.000508501
0.000505532
0.000491025
0.000487619
0.000474784
0.00101331
0.000903587
0.000753101
0.000658896
0.000607036
0.000572326
0.000543746
0.000523263
0.000507663
0.000490331
0.000484661
0.000469712
0.00046763
0.00045409
0.000451089
0.000437022
0.000434787
0.000419364
0.000416825
0.000398987
0.000169903
0.000143881
0.000137246
0.000132003
0.000115265
0.000102477
8.06659e-05
6.30839e-05
5.515e-05
4.3482e-05
3.81312e-05
3.9479e-05
4.93263e-05
5.27966e-05
5.17485e-05
4.92457e-05
4.76799e-05
4.63847e-05
4.58263e-05
4.61679e-05
4.90217e-05
5.13717e-05
5.1483e-05
4.90666e-05
4.78204e-05
4.87608e-05
6.15235e-05
8.14326e-05
8.97459e-05
9.18138e-05
9.06664e-05
8.50658e-05
6.85699e-05
4.87351e-05
3.32247e-05
2.25704e-05
1.58305e-05
1.12104e-05
8.27091e-06
7.28848e-06
7.27494e-06
8.1804e-06
9.74267e-06
1.04259e-05
1.073e-05
1.0644e-05
1.04453e-05
1.124e-05
1.30606e-05
1.33685e-05
1.3073e-05
1.17329e-05
1.06182e-05
1.0058e-05
9.94103e-06
1.01053e-05
1.05559e-05
1.06823e-05
1.06943e-05
1.07082e-05
1.08154e-05
1.12572e-05
1.15343e-05
1.15712e-05
1.15427e-05
1.14004e-05
1.12384e-05
1.10914e-05
1.08498e-05
1.0274e-05
9.42124e-06
8.41429e-06
7.33461e-06
6.25697e-06
5.23982e-06
4.32005e-06
3.51571e-06
2.83135e-06
2.26198e-06
1.79674e-06
1.422e-06
1.12344e-06
8.87459e-07
7.01907e-07
5.56397e-07
4.42349e-07
3.52848e-07
2.82429e-07
2.26828e-07
1.82751e-07
1.47665e-07
1.19621e-07
9.71196e-08
7.90034e-08
6.43727e-08
5.25252e-08
4.29094e-08
3.50896e-08
2.87197e-08
2.35235e-08
1.92798e-08
1.58104e-08
1.29719e-08
1.06477e-08
8.74372e-09
7.18314e-09
5.90366e-09
4.85416e-09
3.99354e-09
3.28707e-09
2.70854e-09
2.23236e-09
1.84562e-09
1.52271e-09
1.27061e-09
1.04485e-09
8.97256e-10
7.22806e-10
6.68761e-10
5.2642e-10
5.27648e-10
4.6936e-10
5.74511e-10
5.84015e-10
7.7126e-10
1.1008e-09
1.32232e-09
2.70987e-09
2.62639e-09
5.58127e-09
5.41504e-09
8.96364e-09
1.12485e-08
1.45093e-08
2.51523e-08
3.60784e-08
6.16366e-08
9.7471e-08
1.42128e-07
2.22298e-07
2.50123e-07
3.25868e-07
3.29657e-07
3.37093e-07
3.65924e-07
4.04988e-07
4.7879e-07
5.19129e-07
6.25055e-07
6.54001e-07
7.12295e-07
7.35669e-07
8.01877e-07
8.31793e-07
8.9706e-07
9.24376e-07
1.00603e-06
1.04409e-06
1.14789e-06
1.19291e-06
1.33775e-06
1.39105e-06
1.56e-06
1.59569e-06
1.74338e-06
1.78458e-06
1.95365e-06
1.96516e-06
2.07493e-06
2.02479e-06
2.06182e-06
1.94292e-06
1.89887e-06
1.69726e-06
1.64456e-06
1.4954e-06
1.50531e-06
1.51517e-06
1.57456e-06
1.72491e-06
1.85263e-06
2.25526e-06
2.22109e-06
2.45637e-06
2.14887e-06
2.10614e-06
1.90906e-06
1.99739e-06
2.44266e-06
2.33487e-06
2.55396e-06
2.7736e-06
3.11576e-06
3.96103e-06
4.88297e-06
6.67672e-06
1.01485e-05
1.53125e-05
3.34614e-05
0.000138046
0.00022484
0.000190947
0.00016822
0.000160922
0.000151554
0.000143139
0.000130673
0.000114515
0.000104538
7.90334e-05
5.49366e-05
5.11377e-05
5.66628e-05
5.80148e-05
5.34036e-05
4.95049e-05
4.68318e-05
4.50438e-05
4.46383e-05
4.56543e-05
5.15389e-05
5.72746e-05
5.83108e-05
5.60929e-05
5.53864e-05
5.90675e-05
7.61373e-05
8.55957e-05
9.03138e-05
8.98374e-05
8.48453e-05
6.85014e-05
4.691e-05
3.16853e-05
2.18054e-05
1.54139e-05
1.11234e-05
8.13007e-06
6.35782e-06
5.99443e-06
6.22084e-06
6.86517e-06
7.87767e-06
8.59333e-06
9.84863e-06
1.0365e-05
1.03411e-05
1.03496e-05
1.19288e-05
1.31627e-05
1.31877e-05
1.24712e-05
1.11868e-05
1.03584e-05
1.00483e-05
1.00883e-05
1.0399e-05
1.04828e-05
1.04506e-05
1.04314e-05
1.04865e-05
1.09681e-05
1.18153e-05
1.22142e-05
1.22893e-05
1.22578e-05
1.2074e-05
1.16083e-05
1.09963e-05
1.02331e-05
9.3276e-06
8.3197e-06
7.26604e-06
6.22228e-06
5.23345e-06
4.33229e-06
3.53799e-06
2.85722e-06
2.28737e-06
1.81953e-06
1.44137e-06
1.13935e-06
9.00223e-07
7.11992e-07
5.64282e-07
4.48467e-07
3.57566e-07
2.86048e-07
2.29591e-07
1.84852e-07
1.49254e-07
1.20818e-07
9.80178e-08
7.96745e-08
6.48723e-08
5.28959e-08
4.31836e-08
3.52917e-08
2.88683e-08
2.36324e-08
1.93594e-08
1.58686e-08
1.30142e-08
1.06784e-08
8.76598e-09
7.19921e-09
5.91522e-09
4.86244e-09
3.99946e-09
3.29121e-09
2.71155e-09
2.23423e-09
1.84733e-09
1.52304e-09
1.27242e-09
1.04322e-09
9.01332e-10
7.19165e-10
6.71673e-10
5.31161e-10
5.47755e-10
4.85602e-10
6.76778e-10
6.80085e-10
1.12939e-09
1.51283e-09
2.15604e-09
4.03731e-09
4.71585e-09
1.00678e-08
1.05033e-08
1.97123e-08
2.13445e-08
3.42047e-08
3.95979e-08
5.393e-08
6.55426e-08
7.06283e-08
9.02603e-08
9.15905e-08
1.07267e-07
1.08298e-07
1.21657e-07
1.5209e-07
2.04099e-07
2.65832e-07
3.24556e-07
4.06479e-07
4.19314e-07
4.39085e-07
4.73662e-07
5.12897e-07
5.35913e-07
5.74832e-07
6.17243e-07
6.69449e-07
7.06473e-07
7.79132e-07
8.31366e-07
9.4213e-07
1.0123e-06
1.16414e-06
1.23935e-06
1.40371e-06
1.49605e-06
1.69469e-06
1.78248e-06
1.98252e-06
2.05001e-06
2.26381e-06
2.32012e-06
2.55187e-06
2.58708e-06
2.74548e-06
2.63706e-06
2.614e-06
2.30988e-06
2.1505e-06
1.83997e-06
1.8425e-06
1.87796e-06
2.0002e-06
2.32109e-06
2.38993e-06
2.82207e-06
2.49673e-06
2.40229e-06
2.19165e-06
2.36144e-06
3.00338e-06
2.80487e-06
2.88085e-06
3.19965e-06
3.81762e-06
5.23124e-06
6.54488e-06
9.33019e-06
1.41978e-05
3.55338e-05
0.000116846
0.000231226
0.000205162
0.000185443
0.000172268
0.000165642
0.000157876
0.000152119
0.00014448
0.000137982
0.000127544
0.00010131
8.90291e-05
9.06052e-05
8.99621e-05
7.36117e-05
5.81696e-05
4.96293e-05
4.60429e-05
4.56029e-05
4.82239e-05
6.16012e-05
7.33323e-05
7.63155e-05
7.65667e-05
7.74393e-05
8.67118e-05
9.01243e-05
8.84236e-05
8.54414e-05
7.93178e-05
6.26001e-05
4.34249e-05
3.02327e-05
2.10651e-05
1.4928e-05
1.08453e-05
8.01064e-06
6.2138e-06
5.3812e-06
5.30863e-06
5.76708e-06
6.30563e-06
7.28084e-06
7.91296e-06
8.87139e-06
1.01729e-05
1.03815e-05
1.03384e-05
1.06899e-05
1.23302e-05
1.27922e-05
1.26187e-05
1.18905e-05
1.10591e-05
1.04522e-05
1.02434e-05
1.02506e-05
1.02511e-05
1.01927e-05
1.0152e-05
1.01754e-05
1.03956e-05
1.1455e-05
1.23631e-05
1.26955e-05
1.27397e-05
1.2692e-05
1.23979e-05
1.14835e-05
1.04614e-05
9.40833e-06
8.33102e-06
7.253e-06
6.20679e-06
5.22509e-06
4.33345e-06
3.5471e-06
2.87139e-06
2.30374e-06
1.83593e-06
1.45644e-06
1.15244e-06
9.11154e-07
7.20863e-07
5.71332e-07
4.53981e-07
3.61826e-07
2.89309e-07
2.32068e-07
1.86722e-07
1.5066e-07
1.2187e-07
9.88034e-08
8.02597e-08
6.53074e-08
5.3219e-08
4.34233e-08
3.54694e-08
2.89999e-08
2.37299e-08
1.94316e-08
1.59219e-08
1.30536e-08
1.07076e-08
8.78748e-09
7.21506e-09
5.92689e-09
4.87099e-09
4.00574e-09
3.29573e-09
2.71493e-09
2.23643e-09
1.84935e-09
1.5236e-09
1.27454e-09
1.04171e-09
9.05565e-10
7.1679e-10
6.74827e-10
5.36868e-10
5.78194e-10
5.09171e-10
8.09833e-10
8.14284e-10
1.58385e-09
2.07111e-09
3.15516e-09
5.63256e-09
6.95913e-09
1.38499e-08
1.47147e-08
2.50334e-08
2.71681e-08
3.82071e-08
4.28572e-08
5.11579e-08
6.13535e-08
6.43521e-08
6.71843e-08
8.26152e-08
1.03179e-07
1.38666e-07
1.94566e-07
2.65713e-07
3.42098e-07
3.53676e-07
3.84043e-07
3.99535e-07
4.05514e-07
4.12652e-07
4.31968e-07
4.49573e-07
4.54802e-07
4.69008e-07
4.89193e-07
5.0921e-07
5.19724e-07
5.45171e-07
5.68475e-07
5.88024e-07
6.27304e-07
6.73368e-07
7.09549e-07
7.87557e-07
8.58509e-07
9.63554e-07
1.11315e-06
1.25939e-06
1.5272e-06
1.68251e-06
1.99825e-06
2.16864e-06
2.51978e-06
2.6336e-06
2.98012e-06
3.03842e-06
3.35109e-06
3.23838e-06
3.19496e-06
2.73784e-06
2.477e-06
2.18712e-06
2.23566e-06
2.43533e-06
2.59952e-06
3.15786e-06
2.81313e-06
2.84421e-06
2.5748e-06
2.79461e-06
3.54034e-06
3.21658e-06
3.32029e-06
3.81389e-06
4.78164e-06
6.34568e-06
9.90783e-06
1.31603e-05
3.47793e-05
9.49154e-05
0.000224698
0.000204859
0.000189049
0.00017564
0.000168304
0.000161673
0.000156593
0.0001518
0.000145989
0.00014448
0.000138063
0.000123049
0.000120868
0.000121538
0.000116223
9.01291e-05
6.819e-05
6.09036e-05
6.15678e-05
7.25473e-05
8.95304e-05
9.74043e-05
9.99707e-05
0.000100496
0.000100506
9.93021e-05
9.45108e-05
8.56874e-05
7.64315e-05
5.734e-05
4.10031e-05
2.87818e-05
2.02322e-05
1.43249e-05
1.03747e-05
7.79358e-06
6.03034e-06
5.1187e-06
4.9007e-06
4.97472e-06
5.5062e-06
6.01034e-06
6.99044e-06
7.9565e-06
8.63216e-06
1.00962e-05
1.07854e-05
1.07177e-05
1.06458e-05
1.11292e-05
1.18812e-05
1.20706e-05
1.2041e-05
1.1827e-05
1.12606e-05
1.05864e-05
1.02276e-05
1.00398e-05
9.91737e-06
9.87182e-06
9.87587e-06
9.93015e-06
1.02607e-05
1.15535e-05
1.24885e-05
1.28007e-05
1.28205e-05
1.27192e-05
1.21635e-05
1.09363e-05
9.688e-06
8.47613e-06
7.31873e-06
6.23252e-06
5.23446e-06
4.33855e-06
3.5531e-06
2.87973e-06
2.31405e-06
1.84721e-06
1.46771e-06
1.16294e-06
9.20451e-07
7.28781e-07
5.77876e-07
4.59264e-07
3.66013e-07
2.92577e-07
2.34588e-07
1.88645e-07
1.52115e-07
1.22964e-07
9.9621e-08
8.08682e-08
6.57588e-08
5.35529e-08
4.36698e-08
3.56512e-08
2.91338e-08
2.38285e-08
1.95041e-08
1.59752e-08
1.30928e-08
1.07364e-08
8.80865e-09
7.2306e-09
5.93831e-09
4.87937e-09
4.01191e-09
3.30021e-09
2.7183e-09
2.23869e-09
1.85143e-09
1.52423e-09
1.27674e-09
1.04028e-09
9.09937e-10
7.14864e-10
6.7984e-10
5.44627e-10
6.2228e-10
5.49194e-10
1.01936e-09
1.04638e-09
2.35821e-09
3.10259e-09
5.18327e-09
9.08306e-09
1.22503e-08
2.42924e-08
2.75299e-08
4.73268e-08
5.84962e-08
7.81295e-08
1.191e-07
1.49307e-07
2.28032e-07
2.86771e-07
3.42428e-07
4.7939e-07
4.85474e-07
5.54788e-07
5.69384e-07
6.05334e-07
6.06366e-07
6.10486e-07
6.23276e-07
6.34786e-07
6.69774e-07
6.83185e-07
7.38748e-07
7.3986e-07
7.58257e-07
7.65467e-07
8.07702e-07
8.14433e-07
8.58889e-07
8.50328e-07
8.63982e-07
8.50345e-07
8.72083e-07
8.61555e-07
8.82717e-07
8.78955e-07
9.12462e-07
9.1963e-07
9.65655e-07
9.83542e-07
1.05393e-06
1.10077e-06
1.20778e-06
1.31925e-06
1.54587e-06
1.92076e-06
2.20326e-06
2.75989e-06
3.00932e-06
3.5936e-06
3.65437e-06
4.00636e-06
3.74032e-06
3.49953e-06
2.81296e-06
2.70063e-06
2.72192e-06
2.88058e-06
3.58336e-06
3.20108e-06
3.22932e-06
2.99349e-06
3.25412e-06
3.97665e-06
3.6301e-06
4.01824e-06
5.28189e-06
6.24819e-06
1.09729e-05
1.31436e-05
3.33178e-05
7.70277e-05
0.000209791
0.000195378
0.000182087
0.000171447
0.000164155
0.000158081
0.000153615
0.000150678
0.000144664
0.000143903
0.000143113
0.000136173
0.000127925
0.000129248
0.000130091
0.000126299
0.000108486
9.82249e-05
9.79832e-05
0.00010212
0.000103818
0.000104126
0.000104411
0.00010428
0.000103156
9.96991e-05
8.8551e-05
7.47535e-05
5.49532e-05
3.87603e-05
2.72373e-05
1.92001e-05
1.358e-05
9.77816e-06
7.31133e-06
5.80467e-06
4.85821e-06
4.55326e-06
4.6098e-06
4.83375e-06
5.24512e-06
5.76514e-06
6.67996e-06
8.33805e-06
8.96411e-06
9.80242e-06
1.1126e-05
1.14676e-05
1.12241e-05
1.08688e-05
1.07399e-05
1.09575e-05
1.15539e-05
1.1855e-05
1.18251e-05
1.12751e-05
1.04114e-05
9.99644e-06
9.79561e-06
9.65852e-06
9.58141e-06
9.5683e-06
9.60301e-06
9.87713e-06
1.10701e-05
1.2053e-05
1.24275e-05
1.24711e-05
1.23392e-05
1.15105e-05
1.01095e-05
8.75074e-06
7.48133e-06
6.32128e-06
5.27995e-06
4.36133e-06
3.56546e-06
2.8882e-06
2.3216e-06
1.85483e-06
1.47543e-06
1.17046e-06
9.27436e-07
7.34995e-07
5.83207e-07
4.63703e-07
3.69621e-07
2.95452e-07
2.36844e-07
1.90392e-07
1.53454e-07
1.23982e-07
1.00389e-07
8.14447e-08
6.61894e-08
5.38735e-08
4.39078e-08
3.58274e-08
2.92641e-08
2.39247e-08
1.95751e-08
1.60277e-08
1.31315e-08
1.07649e-08
8.82964e-09
7.24606e-09
5.94968e-09
4.88771e-09
4.01804e-09
3.30464e-09
2.72159e-09
2.24087e-09
1.85335e-09
1.52481e-09
1.27871e-09
1.03896e-09
9.14042e-10
7.13316e-10
6.86481e-10
5.55874e-10
6.80044e-10
6.09401e-10
1.31767e-09
1.38443e-09
3.63507e-09
4.65619e-09
9.29296e-09
1.48301e-08
2.28297e-08
3.98005e-08
5.13683e-08
8.79859e-08
1.07088e-07
1.5365e-07
1.97786e-07
2.32924e-07
3.15182e-07
3.20706e-07
3.59128e-07
3.81367e-07
4.44672e-07
4.59609e-07
5.16848e-07
5.50994e-07
5.57473e-07
6.14783e-07
6.55259e-07
7.61391e-07
7.5982e-07
8.12071e-07
8.31216e-07
8.78044e-07
8.9527e-07
9.72662e-07
1.00261e-06
1.10367e-06
1.12541e-06
1.21427e-06
1.24919e-06
1.38048e-06
1.39372e-06
1.49114e-06
1.49172e-06
1.56022e-06
1.53789e-06
1.58644e-06
1.51669e-06
1.52738e-06
1.45202e-06
1.46043e-06
1.40817e-06
1.44341e-06
1.452e-06
1.5131e-06
1.60168e-06
1.80829e-06
2.0591e-06
2.50768e-06
3.34001e-06
3.65448e-06
4.48963e-06
4.44808e-06
4.56401e-06
3.89319e-06
3.30786e-06
3.05385e-06
3.26313e-06
3.85738e-06
3.67589e-06
4.08674e-06
3.70172e-06
3.8963e-06
4.22259e-06
4.24539e-06
5.72024e-06
6.28664e-06
1.3538e-05
1.38341e-05
3.00004e-05
6.27563e-05
0.000187861
0.00017812
0.000167375
0.000158774
0.000153187
0.000148189
0.000143801
0.000142663
0.000139035
0.00013715
0.000137608
0.00013556
0.000127461
0.000125791
0.00012739
0.000127562
0.000125517
0.000118893
0.000115239
0.000111534
0.000106971
0.00010276
9.94308e-05
9.68698e-05
9.29734e-05
8.32046e-05
6.67021e-05
4.78843e-05
3.42922e-05
2.45314e-05
1.76063e-05
1.2678e-05
9.07369e-06
6.74592e-06
5.34646e-06
4.48874e-06
4.14998e-06
4.17999e-06
4.34318e-06
4.74627e-06
5.12127e-06
5.42416e-06
5.83997e-06
8.04302e-06
9.37917e-06
9.7289e-06
1.077e-05
1.19235e-05
1.20242e-05
1.14072e-05
1.05133e-05
1.02114e-05
1.04474e-05
1.14904e-05
1.17769e-05
1.16064e-05
1.07402e-05
1.0076e-05
9.75557e-06
9.55003e-06
9.40575e-06
9.35887e-06
9.37237e-06
9.49801e-06
1.01422e-05
1.09968e-05
1.15047e-05
1.17002e-05
1.17139e-05
1.15427e-05
1.05128e-05
9.05036e-06
7.69392e-06
6.46091e-06
5.36483e-06
4.40975e-06
3.5921e-06
2.9032e-06
2.33112e-06
1.86212e-06
1.48192e-06
1.17659e-06
9.33222e-07
7.403e-07
5.87904e-07
4.67725e-07
3.72965e-07
2.98165e-07
2.39e-07
1.92077e-07
1.54754e-07
1.24974e-07
1.0114e-07
8.20094e-08
6.66119e-08
5.41883e-08
4.41417e-08
3.60008e-08
2.93924e-08
2.40195e-08
1.96451e-08
1.60792e-08
1.31695e-08
1.07928e-08
8.85018e-09
7.26113e-09
5.96071e-09
4.89575e-09
4.02389e-09
3.30884e-09
2.72466e-09
2.24292e-09
1.85506e-09
1.52541e-09
1.28039e-09
1.038e-09
9.17775e-10
7.12618e-10
6.94427e-10
5.71831e-10
7.46435e-10
6.91767e-10
1.64299e-09
1.78807e-09
5.02944e-09
6.31883e-09
1.41193e-08
2.06778e-08
3.32745e-08
5.35987e-08
7.37995e-08
1.13441e-07
1.48895e-07
1.84877e-07
2.89498e-07
2.9904e-07
4.38789e-07
4.28595e-07
4.96074e-07
5.13739e-07
5.16054e-07
5.2116e-07
6.41164e-07
6.95541e-07
8.93357e-07
8.9232e-07
9.82265e-07
9.94618e-07
1.02369e-06
1.0151e-06
1.04384e-06
1.05128e-06
1.06673e-06
1.09245e-06
1.1158e-06
1.16134e-06
1.18824e-06
1.25777e-06
1.29987e-06
1.4009e-06
1.43767e-06
1.5221e-06
1.60322e-06
1.67763e-06
1.79348e-06
1.85243e-06
1.98458e-06
2.05325e-06
2.22548e-06
2.23887e-06
2.30665e-06
2.25009e-06
2.26876e-06
2.12596e-06
2.07679e-06
1.95422e-06
1.9838e-06
2.04694e-06
2.26361e-06
2.62054e-06
3.27533e-06
4.41712e-06
4.56169e-06
5.40551e-06
4.76171e-06
4.39646e-06
3.60456e-06
3.77146e-06
4.00393e-06
4.14838e-06
4.79014e-06
4.66082e-06
4.84179e-06
4.63615e-06
6.92691e-06
6.99265e-06
1.86685e-05
1.57693e-05
2.79485e-05
5.1801e-05
0.000159674
0.000153773
0.000145447
0.00013875
0.00013435
0.000131187
0.000127956
0.000127016
0.000125684
0.000123343
0.000123602
0.000123726
0.000121403
0.000117198
0.000116897
0.000118273
0.000118263
0.000117136
0.00011447
0.000109314
0.000102162
9.26404e-05
8.36693e-05
7.81219e-05
6.79703e-05
5.32687e-05
4.01022e-05
2.94306e-05
2.1425e-05
1.55554e-05
1.13774e-05
8.39492e-06
6.23075e-06
4.97769e-06
4.28276e-06
3.77894e-06
3.64261e-06
3.66801e-06
3.8796e-06
4.50229e-06
5.02749e-06
5.35321e-06
5.5932e-06
6.83841e-06
9.18523e-06
9.75932e-06
1.00473e-05
1.15975e-05
1.2282e-05
1.21399e-05
1.09861e-05
1.01756e-05
1.00652e-05
1.06339e-05
1.13463e-05
1.13781e-05
1.08736e-05
1.00776e-05
9.63084e-06
9.41806e-06
9.32705e-06
9.31883e-06
9.41075e-06
9.88957e-06
1.04767e-05
1.09057e-05
1.11572e-05
1.12422e-05
1.1239e-05
1.11294e-05
1.04814e-05
9.10618e-06
7.76108e-06
6.52048e-06
5.41151e-06
4.44363e-06
3.61546e-06
2.9189e-06
2.34179e-06
1.86983e-06
1.48807e-06
1.18196e-06
9.38113e-07
7.44768e-07
5.91909e-07
4.71219e-07
3.75929e-07
3.00615e-07
2.4098e-07
1.93648e-07
1.55979e-07
1.25918e-07
1.0186e-07
8.25536e-08
6.70207e-08
5.44939e-08
4.43691e-08
3.61696e-08
2.95174e-08
2.41119e-08
1.97133e-08
1.61295e-08
1.32065e-08
1.082e-08
8.87018e-09
7.27579e-09
5.97144e-09
4.90359e-09
4.02958e-09
3.31295e-09
2.7276e-09
2.24496e-09
1.85661e-09
1.52611e-09
1.28174e-09
1.03742e-09
9.21287e-10
7.12677e-10
7.04852e-10
5.95424e-10
8.37185e-10
8.21684e-10
2.09647e-09
2.42726e-09
7.24269e-09
9.18718e-09
2.2994e-08
3.15589e-08
5.86841e-08
8.42784e-08
1.32689e-07
1.7275e-07
2.88056e-07
3.09824e-07
5.77597e-07
5.31453e-07
1.0113e-06
8.44797e-07
1.4442e-06
1.26134e-06
1.4888e-06
1.45014e-06
1.7823e-06
1.59837e-06
2.14905e-06
1.96079e-06
2.18402e-06
2.12936e-06
2.22475e-06
2.1137e-06
2.23992e-06
2.12622e-06
2.12363e-06
2.06198e-06
2.05522e-06
1.97776e-06
1.93788e-06
1.92863e-06
1.86083e-06
1.85655e-06
1.80734e-06
1.81888e-06
1.80554e-06
1.81803e-06
1.85381e-06
1.88608e-06
1.96281e-06
1.99576e-06
2.13985e-06
2.20936e-06
2.35058e-06
2.45371e-06
2.5363e-06
2.76264e-06
2.80386e-06
2.9496e-06
2.75502e-06
2.76369e-06
2.57663e-06
2.62207e-06
2.73208e-06
3.15918e-06
3.94325e-06
4.67665e-06
5.98271e-06
5.83435e-06
5.47291e-06
4.56206e-06
4.38176e-06
4.67575e-06
5.14548e-06
4.8987e-06
5.89919e-06
5.47203e-06
1.19786e-05
8.8885e-06
2.18568e-05
1.77855e-05
2.48514e-05
4.39294e-05
0.000123447
0.000120754
0.00011603
0.00011005
0.00010745
0.000105865
0.000104671
0.000104629
0.000104725
0.000104101
0.000104244
0.000104237
0.000103492
0.00010078
0.000100109
0.000100314
0.000100276
9.98355e-05
9.81233e-05
9.44058e-05
8.70138e-05
7.58887e-05
6.68319e-05
5.5828e-05
4.36972e-05
3.32415e-05
2.47238e-05
1.81427e-05
1.33523e-05
9.8588e-06
7.3809e-06
5.78909e-06
4.71307e-06
4.11321e-06
3.79965e-06
3.48893e-06
3.31153e-06
3.31585e-06
3.44113e-06
4.15989e-06
4.91868e-06
5.55209e-06
5.88111e-06
6.68389e-06
9.03637e-06
9.75991e-06
9.89764e-06
1.05648e-05
1.20512e-05
1.22402e-05
1.17444e-05
1.06393e-05
1.02267e-05
1.02835e-05
1.06525e-05
1.07111e-05
1.05259e-05
9.84863e-06
9.39254e-06
9.24363e-06
9.25441e-06
9.40785e-06
1.0162e-05
1.10375e-05
1.15102e-05
1.16462e-05
1.16414e-05
1.15685e-05
1.13774e-05
1.09078e-05
9.94804e-06
8.80938e-06
7.61705e-06
6.45827e-06
5.3887e-06
4.43794e-06
3.61652e-06
2.92248e-06
2.34631e-06
1.87469e-06
1.49295e-06
1.18665e-06
9.4252e-07
7.48829e-07
5.95563e-07
4.74422e-07
3.78664e-07
3.02892e-07
2.42834e-07
1.95128e-07
1.57142e-07
1.26819e-07
1.0255e-07
8.30776e-08
6.74157e-08
5.479e-08
4.45901e-08
3.6334e-08
2.96393e-08
2.42021e-08
1.97799e-08
1.61787e-08
1.32427e-08
1.08467e-08
8.88973e-09
7.29012e-09
5.98189e-09
4.91119e-09
4.03506e-09
3.3169e-09
2.73034e-09
2.24692e-09
1.85784e-09
1.527e-09
1.28243e-09
1.03772e-09
9.23651e-10
7.14626e-10
7.1674e-10
6.27556e-10
9.30891e-10
9.98132e-10
2.57699e-09
3.25305e-09
9.90148e-09
1.30023e-08
3.56139e-08
4.6675e-08
1.03623e-07
1.31413e-07
2.49585e-07
2.7983e-07
5.40938e-07
5.3003e-07
1.15637e-06
1.00454e-06
2.38276e-06
1.98022e-06
3.58586e-06
3.19424e-06
4.35545e-06
4.06077e-06
4.91922e-06
4.62523e-06
5.2249e-06
5.19317e-06
5.27466e-06
5.58547e-06
5.79654e-06
5.59652e-06
6.20493e-06
6.06027e-06
6.30196e-06
6.42048e-06
6.49099e-06
6.37307e-06
6.60759e-06
6.34456e-06
6.33247e-06
6.05057e-06
5.92276e-06
5.4694e-06
5.32925e-06
4.89684e-06
4.76358e-06
4.37578e-06
4.16474e-06
3.65899e-06
3.54283e-06
3.2316e-06
3.05877e-06
2.91792e-06
2.90841e-06
2.92985e-06
2.9511e-06
3.06456e-06
3.24346e-06
3.24832e-06
3.37639e-06
3.10743e-06
3.20789e-06
3.18526e-06
3.34845e-06
3.74711e-06
4.9381e-06
5.66502e-06
6.695e-06
6.39908e-06
5.39841e-06
4.97484e-06
7.53929e-06
6.32971e-06
9.88618e-06
7.46542e-06
1.42738e-05
1.14062e-05
3.50731e-05
2.29606e-05
2.45769e-05
3.70778e-05
8.21381e-05
8.139e-05
8.0251e-05
7.65035e-05
7.40194e-05
7.35924e-05
7.39169e-05
7.49363e-05
7.66996e-05
7.73749e-05
7.83028e-05
7.94914e-05
7.91925e-05
7.77574e-05
7.73011e-05
7.72075e-05
7.69914e-05
7.62854e-05
7.44217e-05
7.06064e-05
6.33385e-05
5.35319e-05
4.29509e-05
3.36508e-05
2.58151e-05
1.94709e-05
1.44664e-05
1.08257e-05
8.25027e-06
6.37859e-06
5.14641e-06
4.46997e-06
4.01892e-06
3.68898e-06
3.55708e-06
3.27905e-06
3.19842e-06
3.23804e-06
3.37301e-06
3.93121e-06
4.63863e-06
5.58054e-06
6.49727e-06
7.37763e-06
9.19358e-06
1.00649e-05
1.0162e-05
1.03216e-05
1.14232e-05
1.19507e-05
1.1904e-05
1.13867e-05
1.08852e-05