/*--------------------------------*- C++ -*----------------------------------*\
| =========                 |                                                 |
| \\      /  F ield         | OpenFOAM: The Open Source CFD Toolbox           |
|  \\    /   O peration     | Version:  2.4.0                                 |
|   \\  /    A nd           | Web:      www.OpenFOAM.org                      |
|    \\/     M anipulation  |                                                 |
\*---------------------------------------------------------------------------*/
FoamFile
{
    version     2.0;
    format      ascii;
    class       volVectorField;
    location    "0.037";
    object      U_0;
}
// * * * * * * * * * * * * * * * * * * * * * * * * * * * * * * * * * * * * * //

dimensions      [0 1 -1 0 0 0 0];

internalField   nonuniform List<vector> 
17600
(
(5.32742 0.309499 0)
(2.98348 0.0605853 0)
(2.19996 -0.00168595 0)
(1.84662 -0.00331118 0)
(1.70549 -0.00137223 0)
(1.61229 -0.000378911 0)
(1.53636 0.000390228 0)
(1.47761 -0.000138664 0)
(1.43403 -0.000297508 0)
(1.39735 0.00013544 0)
(1.37124 -5.6349e-05 0)
(1.34406 0.000158697 0)
(1.32252 0.000205226 0)
(1.29917 4.69336e-05 0)
(1.26962 0.00046955 0)
(1.24333 0.000689414 0)
(1.20248 0.000234218 0)
(1.17915 0.000981477 0)
(1.11098 0.00181411 0)
(1.10431 -0.0136372 0)
(8.59777 0.872277 0)
(6.94476 0.382906 0)
(5.82051 0.121444 0)
(5.05151 0.0521105 0)
(4.65297 0.0275569 0)
(4.38116 0.0203509 0)
(4.17257 0.0173195 0)
(4.01727 0.0121504 0)
(3.89197 0.00937124 0)
(3.78482 0.00827382 0)
(3.71377 0.00619231 0)
(3.63788 0.00609255 0)
(3.58167 0.00577724 0)
(3.52192 0.00614394 0)
(3.4447 0.00703399 0)
(3.39205 0.00875243 0)
(3.29335 0.00681603 0)
(3.24476 0.0110812 0)
(3.1043 0.0116931 0)
(3.08264 0.00800703 0)
(9.85598 1.02297 0)
(9.33648 0.575925 0)
(8.48861 0.240872 0)
(7.63483 0.13255 0)
(7.09448 0.0800031 0)
(6.70102 0.0580172 0)
(6.39532 0.046312 0)
(6.16891 0.0336993 0)
(5.98115 0.0273456 0)
(5.81449 0.0227611 0)
(5.70841 0.0174409 0)
(5.59126 0.016509 0)
(5.50664 0.0148976 0)
(5.42092 0.0163437 0)
(5.30674 0.0169717 0)
(5.23741 0.0205177 0)
(5.10377 0.0171789 0)
(5.02548 0.0250884 0)
(4.8662 0.0256886 0)
(4.77729 0.0202945 0)
(10.1609 0.949407 0)
(10.555 0.66605 0)
(10.2751 0.329652 0)
(9.63754 0.214248 0)
(9.12206 0.144245 0)
(8.70032 0.108312 0)
(8.34744 0.0853878 0)
(8.08015 0.062839 0)
(7.85652 0.0523715 0)
(7.64493 0.0428436 0)
(7.51553 0.0331586 0)
(7.36565 0.0311053 0)
(7.25898 0.0270915 0)
(7.15477 0.0300832 0)
(7.01663 0.0299516 0)
(6.92894 0.034844 0)
(6.78755 0.0314754 0)
(6.66464 0.0413345 0)
(6.52584 0.0443266 0)
(6.36075 0.035064 0)
(10.0781 0.808428 0)
(10.9013 0.666322 0)
(11.146 0.355497 0)
(10.8948 0.262238 0)
(10.5804 0.197752 0)
(10.2578 0.15888 0)
(9.94289 0.128118 0)
(9.68201 0.0954663 0)
(9.46574 0.0815388 0)
(9.23422 0.0666144 0)
(9.10201 0.0517592 0)
(8.93351 0.0487135 0)
(8.81787 0.0413301 0)
(8.70116 0.0457005 0)
(8.56239 0.0454502 0)
(8.44752 0.0497111 0)
(8.33024 0.0487162 0)
(8.15282 0.0582592 0)
(8.05578 0.0661017 0)
(7.82972 0.0586535 0)
(9.99948 0.694671 0)
(10.832 0.631339 0)
(11.3146 0.331726 0)
(11.3779 0.260937 0)
(11.3266 0.216909 0)
(11.2098 0.190597 0)
(11.0416 0.16217 0)
(10.8576 0.123764 0)
(10.711 0.109502 0)
(10.5025 0.0907851 0)
(10.3986 0.0709705 0)
(10.234 0.0674341 0)
(10.1328 0.0565859 0)
(10.0094 0.0611616 0)
(9.90124 0.0623208 0)
(9.75646 0.064335 0)
(9.68515 0.0659806 0)
(9.46388 0.0777161 0)
(9.41502 0.0802501 0)
(9.1433 0.113296 0)
(9.99033 0.606554 0)
(10.7088 0.598919 0)
(11.2149 0.298667 0)
(11.4072 0.230789 0)
(11.4842 0.201551 0)
(11.53 0.193551 0)
(11.5451 0.174963 0)
(11.4845 0.135867 0)
(11.4698 0.126117 0)
(11.3424 0.107977 0)
(11.3105 0.085616 0)
(11.1843 0.0832288 0)
(11.1311 0.070395 0)
(11.0184 0.0743997 0)
(10.9662 0.0780784 0)
(10.8163 0.0779587 0)
(10.7916 0.0813813 0)
(10.5631 0.0964797 0)
(10.5514 0.0921228 0)
(10.2843 0.154806 0)
(9.99805 0.526153 0)
(10.6354 0.562334 0)
(11.0928 0.280888 0)
(11.3309 0.206456 0)
(11.4358 0.17813 0)
(11.4966 0.177828 0)
(11.6187 0.169669 0)
(11.6267 0.131062 0)
(11.7283 0.126061 0)
(11.6968 0.111265 0)
(11.7582 0.0904643 0)
(11.6989 0.0904377 0)
(11.7195 0.0775938 0)
(11.6525 0.0807122 0)
(11.6718 0.0891309 0)
(11.5658 0.086632 0)
(11.5839 0.0945173 0)
(11.4012 0.108219 0)
(11.4058 0.106374 0)
(11.2027 0.155488 0)
(9.99308 0.45478 0)
(10.5739 0.521005 0)
(11.0075 0.264039 0)
(11.2607 0.1782 0)
(11.3947 0.161571 0)
(11.4224 0.164924 0)
(11.5591 0.158298 0)
(11.5681 0.120244 0)
(11.6999 0.116758 0)
(11.731 0.10278 0)
(11.8414 0.0839839 0)
(11.8372 0.0884078 0)
(11.9033 0.0765539 0)
(11.8927 0.0782484 0)
(11.9691 0.089825 0)
(11.9412 0.0883611 0)
(11.9974 0.0986834 0)
(11.9059 0.115001 0)
(11.9262 0.109079 0)
(11.8136 0.145855 0)
(9.98473 0.390235 0)
(10.5168 0.469604 0)
(10.9335 0.25649 0)
(11.1909 0.156952 0)
(11.354 0.139322 0)
(11.3884 0.149457 0)
(11.4843 0.149716 0)
(11.5109 0.110514 0)
(11.6119 0.103752 0)
(11.6716 0.0920829 0)
(11.7841 0.0777765 0)
(11.8219 0.0821201 0)
(11.8845 0.0711238 0)
(11.9088 0.0711371 0)
(11.9897 0.0844436 0)
(12.0233 0.0809607 0)
(12.0811 0.0951857 0)
(12.0753 0.110132 0)
(12.1132 0.10592 0)
(12.0856 0.120654 0)
(9.99253 0.334048 0)
(10.4519 0.423688 0)
(10.8564 0.24035 0)
(11.13 0.129268 0)
(11.2933 0.123068 0)
(11.3533 0.140327 0)
(11.4261 0.138708 0)
(11.4829 0.103955 0)
(11.548 0.0944946 0)
(11.611 0.0773971 0)
(11.7139 0.0656499 0)
(11.7734 0.0764188 0)
(11.8299 0.0664334 0)
(11.8784 0.0628529 0)
(11.941 0.0773829 0)
(11.9946 0.0744391 0)
(12.0345 0.0896964 0)
(12.0665 0.098444 0)
(12.1119 0.0960301 0)
(12.0718 0.100795 0)
(9.99823 0.28274 0)
(10.3925 0.372888 0)
(10.7996 0.233143 0)
(11.074 0.111225 0)
(11.2274 0.0986516 0)
(11.3119 0.124815 0)
(11.3811 0.129413 0)
(11.4476 0.0931848 0)
(11.5073 0.0836989 0)
(11.5647 0.0707803 0)
(11.6551 0.0596052 0)
(11.7209 0.0678839 0)
(11.7862 0.0599866 0)
(11.8444 0.0566792 0)
(11.8938 0.0712565 0)
(11.9487 0.0645805 0)
(11.9854 0.0811572 0)
(12.0207 0.0864614 0)
(12.0449 0.0883217 0)
(11.9616 0.104197 0)
(10.0009 0.239693 0)
(10.356 0.327866 0)
(10.7421 0.212089 0)
(11.0244 0.0886155 0)
(11.1818 0.085528 0)
(11.2635 0.111556 0)
(11.3366 0.114748 0)
(11.4173 0.0854396 0)
(11.4717 0.0774226 0)
(11.5192 0.0572603 0)
(11.612 0.0492332 0)
(11.6809 0.0610346 0)
(11.743 0.0535535 0)
(11.8045 0.0476928 0)
(11.8566 0.0647136 0)
(11.9093 0.0588489 0)
(11.9426 0.0732642 0)
(11.9705 0.0769421 0)
(11.9862 0.0803669 0)
(11.9668 0.0746415 0)
(10.0029 0.198745 0)
(10.3259 0.279139 0)
(10.6961 0.193826 0)
(10.9811 0.0771237 0)
(11.1376 0.0662334 0)
(11.2269 0.096229 0)
(11.3036 0.102826 0)
(11.3818 0.073334 0)
(11.4387 0.0662532 0)
(11.487 0.0526559 0)
(11.5745 0.0422906 0)
(11.6416 0.0531604 0)
(11.7065 0.0456833 0)
(11.7711 0.0430343 0)
(11.8196 0.0567997 0)
(11.8709 0.0492334 0)
(11.9075 0.064582 0)
(11.9339 0.0679324 0)
(11.9617 0.0654256 0)
(11.9526 0.0558277 0)
(10.0027 0.162472 0)
(10.3009 0.237851 0)
(10.66 0.162872 0)
(10.9429 0.0605891 0)
(11.1048 0.0572577 0)
(11.2002 0.0830001 0)
(11.2718 0.0859634 0)
(11.3505 0.0648268 0)
(11.4123 0.060253 0)
(11.4564 0.0409494 0)
(11.5437 0.0334835 0)
(11.6134 0.0465988 0)
(11.6755 0.0391557 0)
(11.7391 0.0328036 0)
(11.788 0.0499587 0)
(11.841 0.0430687 0)
(11.8788 0.0573219 0)
(11.9063 0.0560044 0)
(11.9311 0.055015 0)
(11.8521 0.0716643 0)
(10.0015 0.129731 0)
(10.2814 0.189733 0)
(10.6306 0.136378 0)
(10.912 0.0521291 0)
(11.0785 0.0427578 0)
(11.1775 0.0666585 0)
(11.2468 0.0735808 0)
(11.3244 0.052514 0)
(11.3882 0.0477816 0)
(11.4328 0.0361058 0)
(11.5205 0.0279119 0)
(11.5882 0.0373876 0)
(11.6493 0.0310765 0)
(11.7143 0.0283975 0)
(11.7618 0.0422932 0)
(11.8148 0.0339962 0)
(11.856 0.0469921 0)
(11.8823 0.047872 0)
(11.8924 0.0497938 0)
(11.8189 0.0612509 0)
(10.0006 0.0990608 0)
(10.2667 0.147388 0)
(10.6056 0.10611 0)
(10.8877 0.0360566 0)
(11.0592 0.0337072 0)
(11.1596 0.0544802 0)
(11.2264 0.0558805 0)
(11.304 0.0420481 0)
(11.3694 0.0409481 0)
(11.413 0.0270696 0)
(11.5012 0.0181633 0)
(11.5698 0.031186 0)
(11.6285 0.024476 0)
(11.6937 0.0197385 0)
(11.7414 0.0331488 0)
(11.7955 0.0282845 0)
(11.8378 0.0381712 0)
(11.8611 0.0389893 0)
(11.8703 0.0409959 0)
(11.8275 0.0486108 0)
(9.99917 0.0715238 0)
(10.2561 0.100142 0)
(10.5881 0.0774824 0)
(10.8701 0.0257048 0)
(11.0435 0.0232092 0)
(11.1466 0.0386141 0)
(11.212 0.0418317 0)
(11.2878 0.0308474 0)
(11.355 0.0287805 0)
(11.3991 0.0200324 0)
(11.4872 0.0135965 0)
(11.5551 0.0220239 0)
(11.6128 0.0167303 0)
(11.6796 0.0140546 0)
(11.7259 0.0266894 0)
(11.7802 0.0189992 0)
(11.8246 0.0281385 0)
(11.8472 0.0309559 0)
(11.8586 0.0335451 0)
(11.8218 0.0343837 0)
(9.99781 0.0443299 0)
(10.2499 0.0566245 0)
(10.576 0.0486991 0)
(10.8579 0.00941303 0)
(11.0342 0.014466 0)
(11.138 0.0267302 0)
(11.2017 0.0250235 0)
(11.2773 0.0196266 0)
(11.3461 0.0203384 0)
(11.3888 0.0127207 0)
(11.4775 0.00520427 0)
(11.5462 0.0142077 0)
(11.6022 0.010925 0)
(11.6694 0.00678096 0)
(11.7158 0.0164635 0)
(11.771 0.0122134 0)
(11.816 0.019712 0)
(11.8382 0.0222314 0)
(11.8511 0.0237454 0)
(11.8016 0.0314148 0)
(9.99637 0.0189816 0)
(10.2471 0.0107641 0)
(10.5708 0.0192067 0)
(10.8519 -0.00369825 0)
(11.0295 0.00636385 0)
(11.1334 0.0124069 0)
(11.1967 0.0093464 0)
(11.2719 0.00890164 0)
(11.3413 0.00911197 0)
(11.3837 0.00464499 0)
(11.4731 9.50691e-05 0)
(11.5415 0.00564071 0)
(11.5964 0.00370553 0)
(11.6649 0.000263126 0)
(11.7111 0.00882281 0)
(11.7661 0.00486278 0)
(11.812 0.00885427 0)
(11.8347 0.0144866 0)
(11.8468 0.0167069 0)
(11.7936 0.027867 0)
(9.99484 -0.00675745 0)
(10.2484 -0.0335466 0)
(10.5715 -0.00958296 0)
(10.8515 -0.0194096 0)
(11.0303 -0.00219158 0)
(11.1329 0.000283391 0)
(11.1963 -0.00721939 0)
(11.2718 -0.00252374 0)
(11.3413 -0.000448431 0)
(11.3834 -0.00253733 0)
(11.473 -0.00670176 0)
(11.5416 -0.0035934 0)
(11.5959 -0.00207189 0)
(11.6652 -0.00698272 0)
(11.7111 -0.000406725 0)
(11.766 -0.00280469 0)
(11.8131 -0.000273364 0)
(11.8356 0.00626045 0)
(11.8474 0.0078447 0)
(11.7917 0.017935 0)
(9.9932 -0.0323707 0)
(10.2532 -0.0788692 0)
(10.5786 -0.0390537 0)
(10.8573 -0.0333232 0)
(11.0357 -0.0102442 0)
(11.1363 -0.0129543 0)
(11.2009 -0.0234322 0)
(11.2764 -0.0130142 0)
(11.346 -0.01126 0)
(11.3884 -0.0108268 0)
(11.4775 -0.0118421 0)
(11.5463 -0.012636 0)
(11.6005 -0.00825865 0)
(11.6702 -0.0143156 0)
(11.7162 -0.00877472 0)
(11.771 -0.010059 0)
(11.8186 -0.010239 0)
(11.8404 -0.00249222 0)
(11.8516 0.00148731 0)
(11.7985 0.0172474 0)
(9.99143 -0.0591292 0)
(10.2622 -0.123971 0)
(10.5921 -0.0678371 0)
(10.8685 -0.0469902 0)
(11.0463 -0.0199204 0)
(11.1441 -0.0255086 0)
(11.2102 -0.0400267 0)
(11.2863 -0.023801 0)
(11.3556 -0.0212111 0)
(11.3982 -0.0187432 0)
(11.4865 -0.0176388 0)
(11.5559 -0.0222563 0)
(11.6102 -0.0137442 0)
(11.68 -0.021256 0)
(11.7265 -0.0177204 0)
(11.7807 -0.0180662 0)
(11.8285 -0.0194125 0)
(11.85 -0.010691 0)
(11.8676 -0.00767106 0)
(11.8374 -0.00415626 0)
(9.98959 -0.0871201 0)
(10.2752 -0.169778 0)
(10.6121 -0.0972323 0)
(10.8857 -0.0588685 0)
(11.0616 -0.0299413 0)
(11.1559 -0.0387983 0)
(11.2244 -0.0568309 0)
(11.3016 -0.0340228 0)
(11.3698 -0.0313403 0)
(11.4133 -0.027311 0)
(11.5004 -0.023004 0)
(11.5702 -0.0320446 0)
(11.6251 -0.0193415 0)
(11.6947 -0.029007 0)
(11.7419 -0.0255704 0)
(11.7949 -0.0253506 0)
(11.8433 -0.0290732 0)
(11.8669 -0.0207038 0)
(11.8913 -0.0180571 0)
(11.8347 -0.00445672 0)
(9.98763 -0.117413 0)
(10.2926 -0.215533 0)
(10.6389 -0.126215 0)
(10.9087 -0.0701178 0)
(11.0818 -0.0417252 0)
(11.1724 -0.0519901 0)
(11.2435 -0.0734031 0)
(11.3222 -0.0441978 0)
(11.3889 -0.0416551 0)
(11.4338 -0.0354199 0)
(11.5189 -0.0284214 0)
(11.5897 -0.0423501 0)
(11.6453 -0.0244904 0)
(11.7144 -0.0371541 0)
(11.7628 -0.0334516 0)
(11.8138 -0.0331975 0)
(11.8633 -0.0379702 0)
(11.8895 -0.031025 0)
(11.909 -0.0247519 0)
(11.8343 -0.00430065 0)
(9.98565 -0.150272 0)
(10.3145 -0.26133 0)
(10.6724 -0.155425 0)
(10.9375 -0.080715 0)
(11.1071 -0.0542313 0)
(11.1936 -0.0652548 0)
(11.2675 -0.0899954 0)
(11.3481 -0.0538518 0)
(11.4127 -0.0517985 0)
(11.4599 -0.0441309 0)
(11.5426 -0.0339259 0)
(11.6146 -0.0522505 0)
(11.6708 -0.0300316 0)
(11.7395 -0.0451747 0)
(11.7888 -0.0413847 0)
(11.8385 -0.0408559 0)
(11.8882 -0.0470728 0)
(11.9151 -0.040887 0)
(11.9338 -0.0332166 0)
(11.8871 -0.0229588 0)
(9.98374 -0.186959 0)
(10.3416 -0.307076 0)
(10.7125 -0.182801 0)
(10.972 -0.0911499 0)
(11.1379 -0.0680729 0)
(11.2203 -0.0784395 0)
(11.2965 -0.106355 0)
(11.379 -0.0628993 0)
(11.4411 -0.0621432 0)
(11.4921 -0.0527595 0)
(11.572 -0.0394208 0)
(11.6458 -0.0619403 0)
(11.7018 -0.0353601 0)
(11.7703 -0.0536302 0)
(11.82 -0.0488098 0)
(11.8686 -0.0487 0)
(11.918 -0.0552435 0)
(11.9465 -0.0523172 0)
(11.9703 -0.043523 0)
(11.9352 -0.0326576 0)
(9.98278 -0.227237 0)
(10.375 -0.354278 0)
(10.7588 -0.205273 0)
(11.0117 -0.103678 0)
(11.1757 -0.0839175 0)
(11.2537 -0.0916647 0)
(11.3307 -0.122095 0)
(11.4136 -0.0719127 0)
(11.4734 -0.0721007 0)
(11.5312 -0.0618083 0)
(11.6092 -0.0459314 0)
(11.6846 -0.0707648 0)
(11.739 -0.040836 0)
(11.8068 -0.0622257 0)
(11.8563 -0.0550215 0)
(11.9048 -0.0581795 0)
(11.9537 -0.0621209 0)
(11.9843 -0.0643719 0)
(12.0124 -0.0537648 0)
(11.9853 -0.0446792 0)
(9.98547 -0.271982 0)
(10.4167 -0.403237 0)
(10.8114 -0.220815 0)
(11.0518 -0.119431 0)
(11.2213 -0.102867 0)
(11.2913 -0.105088 0)
(11.3698 -0.136948 0)
(11.4471 -0.0808177 0)
(11.5093 -0.0828456 0)
(11.5765 -0.0709821 0)
(11.6574 -0.0537737 0)
(11.7312 -0.0792315 0)
(11.7828 -0.0467647 0)
(11.8469 -0.0694122 0)
(11.8971 -0.0627771 0)
(11.9466 -0.065475 0)
(11.9964 -0.0705658 0)
(12.0295 -0.075987 0)
(12.0634 -0.0666354 0)
(12.0443 -0.0599989 0)
(9.9967 -0.323632 0)
(10.4653 -0.451279 0)
(10.8711 -0.231984 0)
(11.0876 -0.137878 0)
(11.2783 -0.123634 0)
(11.3241 -0.118267 0)
(11.4195 -0.150247 0)
(11.4741 -0.0884569 0)
(11.5568 -0.0949772 0)
(11.6265 -0.0804806 0)
(11.7237 -0.0626926 0)
(11.7815 -0.0862079 0)
(11.8371 -0.0532227 0)
(11.8849 -0.0763967 0)
(11.9463 -0.0694149 0)
(11.9924 -0.0738832 0)
(12.05 -0.0774053 0)
(12.0794 -0.089122 0)
(12.1202 -0.0780189 0)
(12.0939 -0.0829184 0)
(10.0173 -0.382766 0)
(10.5136 -0.498049 0)
(10.9359 -0.240934 0)
(11.1261 -0.158869 0)
(11.3461 -0.145004 0)
(11.3432 -0.131039 0)
(11.4901 -0.1623 0)
(11.4969 -0.096211 0)
(11.6368 -0.107859 0)
(11.6752 -0.0925163 0)
(11.8112 -0.0712391 0)
(11.8219 -0.0924794 0)
(11.9038 -0.0594626 0)
(11.9108 -0.082466 0)
(12.0049 -0.076742 0)
(12.0202 -0.08309 0)
(12.0981 -0.0821036 0)
(12.0908 -0.102778 0)
(12.1361 -0.0851678 0)
(12.0721 -0.113528 0)
(10.0351 -0.449258 0)
(10.5585 -0.542407 0)
(11.0013 -0.25023 0)
(11.1934 -0.182902 0)
(11.4046 -0.165884 0)
(11.3729 -0.144186 0)
(11.5787 -0.174212 0)
(11.5403 -0.106624 0)
(11.7454 -0.121214 0)
(11.7078 -0.104255 0)
(11.8859 -0.0809622 0)
(11.8207 -0.096151 0)
(11.9393 -0.0664932 0)
(11.8784 -0.0867045 0)
(11.9961 -0.08442 0)
(11.9318 -0.0883928 0)
(12.017 -0.0853564 0)
(11.9188 -0.109391 0)
(11.9567 -0.0873378 0)
(11.8086 -0.133867 0)
(10.0353 -0.522575 0)
(10.6092 -0.581487 0)
(11.0831 -0.264098 0)
(11.2938 -0.20857 0)
(11.4466 -0.185576 0)
(11.4582 -0.160653 0)
(11.6513 -0.184716 0)
(11.5872 -0.119425 0)
(11.7845 -0.13082 0)
(11.6479 -0.111276 0)
(11.8196 -0.0877239 0)
(11.6561 -0.0956995 0)
(11.7704 -0.0705582 0)
(11.6187 -0.0862063 0)
(11.7106 -0.0854625 0)
(11.5428 -0.0858606 0)
(11.6104 -0.0823094 0)
(11.4096 -0.104622 0)
(11.438 -0.0826468 0)
(11.2069 -0.142912 0)
(10.022 -0.603258 0)
(10.6893 -0.612443 0)
(11.2042 -0.286315 0)
(11.3932 -0.235015 0)
(11.4799 -0.207239 0)
(11.5137 -0.178236 0)
(11.5696 -0.187521 0)
(11.4461 -0.126703 0)
(11.528 -0.129885 0)
(11.2823 -0.107771 0)
(11.3815 -0.0848926 0)
(11.1213 -0.0865719 0)
(11.1953 -0.0657019 0)
(10.9662 -0.0773223 0)
(11.0171 -0.0765739 0)
(10.7774 -0.0754272 0)
(10.83 -0.0717615 0)
(10.5614 -0.0920796 0)
(10.5885 -0.0710728 0)
(10.3021 -0.136258 0)
(10.0274 -0.693118 0)
(10.8113 -0.641721 0)
(11.3106 -0.321151 0)
(11.3775 -0.262531 0)
(11.3116 -0.221525 0)
(11.2127 -0.180018 0)
(11.0518 -0.171704 0)
(10.8281 -0.117181 0)
(10.7637 -0.112418 0)
(10.4428 -0.090641 0)
(10.4694 -0.070714 0)
(10.1629 -0.0692302 0)
(10.2058 -0.053653 0)
(9.94182 -0.062448 0)
(9.96646 -0.0620406 0)
(9.69922 -0.0609616 0)
(9.74084 -0.0583096 0)
(9.44529 -0.0738329 0)
(9.46714 -0.0603296 0)
(9.16525 -0.101662 0)
(10.1018 -0.80743 0)
(10.8811 -0.672629 0)
(11.1459 -0.348546 0)
(10.8974 -0.263447 0)
(10.5637 -0.201742 0)
(10.27 -0.151265 0)
(9.94494 -0.134442 0)
(9.66275 -0.0913575 0)
(9.50777 -0.0833086 0)
(9.18202 -0.0666477 0)
(9.16551 -0.0516422 0)
(8.86476 -0.049888 0)
(8.89061 -0.0394185 0)
(8.62774 -0.0459255 0)
(8.63715 -0.0460409 0)
(8.37501 -0.0456511 0)
(8.40523 -0.0435459 0)
(8.11468 -0.0541638 0)
(8.13034 -0.0485659 0)
(7.84029 -0.0557533 0)
(10.1773 -0.948939 0)
(10.5374 -0.670019 0)
(10.2769 -0.32524 0)
(9.6415 -0.214491 0)
(9.10689 -0.147372 0)
(8.71517 -0.103228 0)
(8.34452 -0.0892494 0)
(8.06943 -0.0607778 0)
(7.88639 -0.0529921 0)
(7.60496 -0.0432286 0)
(7.56574 -0.0328827 0)
(7.30761 -0.0320322 0)
(7.32211 -0.025595 0)
(7.08812 -0.0300557 0)
(7.08838 -0.0306042 0)
(6.85492 -0.0308612 0)
(6.87357 -0.0287389 0)
(6.61257 -0.0361337 0)
(6.62658 -0.033266 0)
(6.35328 -0.0282117 0)
(9.86604 -1.02254 0)
(9.32326 -0.578105 0)
(8.49005 -0.238461 0)
(7.63923 -0.132321 0)
(7.08294 -0.0824188 0)
(6.71363 -0.0548611 0)
(6.39105 -0.0483194 0)
(6.16358 -0.0330221 0)
(6.00056 -0.0271603 0)
(5.7874 -0.0233987 0)
(5.74335 -0.0169624 0)
(5.54878 -0.0173178 0)
(5.55378 -0.013681 0)
(5.37029 -0.0164053 0)
(5.36436 -0.017166 0)
(5.17721 -0.0176846 0)
(5.18474 -0.0156266 0)
(4.9748 -0.0204994 0)
(4.98685 -0.0192236 0)
(4.7393 -0.011614 0)
(8.60323 -0.872084 0)
(6.93695 -0.383926 0)
(5.82025 -0.120462 0)
(5.05581 -0.0517006 0)
(4.64586 -0.0291313 0)
(4.38862 -0.0186936 0)
(4.17 -0.0180794 0)
(4.01482 -0.0122461 0)
(3.90277 -0.00889305 0)
(3.76938 -0.00886192 0)
(3.73425 -0.0057111 0)
(3.61241 -0.00669314 0)
(3.61022 -0.00493526 0)
(3.49196 -0.00624667 0)
(3.48218 -0.00690485 0)
(3.35584 -0.00732964 0)
(3.35437 -0.0057551 0)
(3.21409 -0.00857653 0)
(3.2178 -0.00753588 0)
(3.0291 -0.00465556 0)
(5.32902 -0.309377 0)
(2.98134 -0.0607329 0)
(2.19843 0.00178314 0)
(1.8495 0.00353888 0)
(1.70304 0.000844479 0)
(1.61383 0.000847952 0)
(1.53639 -0.000514047 0)
(1.47675 -6.38833e-05 0)
(1.43733 0.000605743 0)
(1.39278 -0.000432036 0)
(1.37801 0.000326917 0)
(1.33591 -0.000419482 0)
(1.3321 0.000113668 0)
(1.29102 -0.000146629 0)
(1.28382 -0.000328684 0)
(1.2348 -0.000501942 0)
(1.23029 0.000107713 0)
(1.17802 -0.00070023 0)
(1.17276 -9.29398e-05 0)
(1.09694 0.00632685 0)
(1.09514 0.0439025 0)
(1.47935 -0.0197458 0)
(1.67457 -0.00152832 0)
(1.46164 -0.0334392 0)
(1.53805 0.011572 0)
(1.74146 0.10925 0)
(1.9872 0.289286 0)
(2.06406 0.541835 0)
(2.68666 0.554515 0)
(3.26378 0.723249 0)
(3.7163 1.39996 0)
(4.21721 1.79161 0)
(5.00062 1.3483 0)
(6.14433 0.894801 0)
(7.11576 1.13896 0)
(7.63164 1.77932 0)
(8.24572 1.5509 0)
(8.66576 0.688908 0)
(8.84269 0.257712 0)
(8.87974 0.240362 0)
(9.08822 -0.162757 0)
(9.65307 -0.985711 0)
(10.1343 -1.42949 0)
(10.2653 -1.34547 0)
(10.1228 -1.38285 0)
(9.96239 -2.01178 0)
(9.83009 -2.93339 0)
(9.50411 -3.44662 0)
(9.41048 -3.4099 0)
(10.0058 -3.46102 0)
(10.9561 -3.93389 0)
(11.6283 -4.45094 0)
(11.8142 -4.70517 0)
(11.8705 -4.73417 0)
(11.8911 -4.67564 0)
(11.7499 -4.54501 0)
(11.3978 -4.38604 0)
(10.9846 -4.26939 0)
(10.6672 -4.14023 0)
(10.3206 -3.98884 0)
(9.94441 -3.75683 0)
(9.52207 -3.4549 0)
(8.99794 -3.18497 0)
(8.51061 -2.89279 0)
(8.09902 -2.55805 0)
(7.7522 -2.22575 0)
(7.51036 -1.92746 0)
(7.24893 -1.71605 0)
(6.88478 -1.5463 0)
(6.54583 -1.31742 0)
(6.30352 -1.0781 0)
(6.12693 -0.935292 0)
(6.02707 -0.86632 0)
(6.00192 -0.787235 0)
(5.96929 -0.683537 0)
(5.86576 -0.584605 0)
(5.72463 -0.495762 0)
(5.60836 -0.409342 0)
(5.52954 -0.33381 0)
(5.46111 -0.282443 0)
(5.38378 -0.254152 0)
(5.30494 -0.236636 0)
(5.24467 -0.219624 0)
(5.21581 -0.200647 0)
(5.21693 -0.181889 0)
(5.23726 -0.165414 0)
(5.26416 -0.151375 0)
(5.28822 -0.138734 0)
(5.30477 -0.126413 0)
(5.31323 -0.113864 0)
(5.31527 -0.101099 0)
(5.3132 -0.0884855 0)
(5.30902 -0.0764976 0)
(5.30409 -0.065528 0)
(5.29916 -0.0558005 0)
(5.29459 -0.0473662 0)
(5.29055 -0.0401506 0)
(5.28706 -0.0340126 0)
(5.28408 -0.0287922 0)
(5.28158 -0.0243392 0)
(5.2795 -0.0205245 0)
(5.27778 -0.0172425 0)
(5.27637 -0.0144089 0)
(5.27521 -0.0119555 0)
(5.27426 -0.00982607 0)
(5.27349 -0.00797388 0)
(5.27287 -0.00635975 0)
(5.27235 -0.00495018 0)
(5.27193 -0.00371536 0)
(5.2716 -0.00262944 0)
(5.27133 -0.0016705 0)
(5.2711 -0.000819081 0)
(5.27092 -5.73587e-05 0)
(5.27078 0.000631113 0)
(5.27066 0.00126016 0)
(5.27057 0.00183856 0)
(5.27049 0.00237966 0)
(5.27044 0.00289604 0)
(5.2704 0.00339543 0)
(5.27036 0.0038854 0)
(5.27034 0.00437464 0)
(5.27032 0.00487215 0)
(5.27032 0.00538393 0)
(5.27032 0.0059191 0)
(5.27032 0.00648185 0)
(5.27033 0.00708676 0)
(5.27036 0.00772831 0)
(5.27037 0.00843792 0)
(5.27042 0.00918264 0)
(5.27043 0.0100483 0)
(5.27053 0.0109107 0)
(5.27048 0.0120176 0)
(5.27069 0.0129756 0)
(5.27051 0.0144982 0)
(5.27096 0.0154317 0)
(5.27044 0.0177444 0)
(5.27136 0.018291 0)
(5.27014 0.0222021 0)
(5.27195 0.0214899 0)
(5.26942 0.0286227 0)
(5.27253 0.0248694 0)
(5.26797 0.0381111 0)
(5.27241 0.0282864 0)
(5.26536 0.0517842 0)
(5.26971 0.0318995 0)
(5.26084 0.069489 0)
(5.26139 0.036358 0)
(5.25305 0.0876195 0)
(5.24523 0.0420051 0)
(5.24037 0.0986178 0)
(5.22375 0.0470515 0)
(5.22302 0.0954141 0)
(5.20477 0.048448 0)
(5.2059 0.0755903 0)
(5.19753 0.051059 0)
(5.19138 0.0379621 0)
(5.21758 0.0707123 0)
(5.15918 -0.00982131 0)
(5.29201 0.102939 0)
(5.07768 -0.0253242 0)
(5.41269 0.0954428 0)
(4.97548 0.0313933 0)
(5.49011 0.0319091 0)
(4.95509 0.116171 0)
(5.4358 -0.00953042 0)
(5.06963 0.132663 0)
(5.27762 0.0278754 0)
(5.22975 0.0885472 0)
(5.15071 0.0927391 0)
(5.30351 0.0601678 0)
(5.12211 0.123605 0)
(5.3082 0.075318 0)
(5.1086 0.121153 0)
(5.34374 0.112822 0)
(5.05771 0.113969 0)
(5.39152 0.150117 0)
(5.03603 0.129236 0)
(5.38508 0.163065 0)
(5.07038 0.175395 0)
(5.34456 0.172628 0)
(5.10967 0.210165 0)
(5.32971 0.216786 0)
(5.11515 0.234501 0)
(5.32712 0.2576 0)
(5.14073 0.293131 0)
(5.29949 0.280876 0)
(5.16566 0.357705 0)
(5.28691 0.340203 0)
(5.20652 0.403718 0)
(5.23369 0.403448 0)
(5.27797 0.491734 0)
(5.17956 0.461549 0)
(5.36117 0.579421 0)
(5.10619 0.54506 0)
(5.46397 0.690858 0)
(5.02455 0.652952 0)
(5.56379 0.790568 0)
(4.97852 0.804808 0)
(5.63346 0.913108 0)
(5.00938 0.976969 0)
(5.53579 1.07684 0)
(5.156 1.2065 0)
(5.44814 1.20405 0)
(5.32269 1.52005 0)
(5.24203 1.42725 0)
(5.50953 1.78625 0)
(5.12447 1.79835 0)
(5.51194 2.0367 0)
(5.17525 2.33143 0)
(5.25574 2.37809 0)
(5.46013 2.75665 0)
(5.16873 3.07609 0)
(5.21022 3.32291 0)
(5.0774 3.88848 0)
(4.95785 4.27645 0)
(5.38313 4.66371 0)
(5.14087 5.63879 0)
(4.87603 6.66963 0)
(5.22428 7.63652 0)
(2.94758 10.9176 0)
(2.89554 0.0336245 0)
(3.00746 -0.0476333 0)
(3.11612 -0.0656209 0)
(3.0787 -0.0108188 0)
(3.00731 0.0477671 0)
(3.08143 0.0617194 0)
(3.10536 0.210077 0)
(3.09769 0.470265 0)
(3.5459 0.418197 0)
(3.55745 0.5567 0)
(3.70705 1.18948 0)
(4.37043 1.42997 0)
(5.09561 0.854916 0)
(5.96955 0.460912 0)
(6.80026 0.919325 0)
(7.57459 1.56247 0)
(8.34043 1.30866 0)
(8.61853 0.577857 0)
(8.52649 0.246925 0)
(8.50341 0.194547 0)
(8.92419 -0.361927 0)
(9.46369 -1.19206 0)
(9.77562 -1.50963 0)
(9.93089 -1.33893 0)
(10.0213 -1.36565 0)
(10.2859 -2.02072 0)
(10.629 -2.94294 0)
(10.6358 -3.48238 0)
(10.7419 -3.57436 0)
(11.4 -3.75778 0)
(12.118 -4.21382 0)
(12.495 -4.58099 0)
(12.4788 -4.71781 0)
(12.3423 -4.69643 0)
(12.1528 -4.58231 0)
(11.8227 -4.40393 0)
(11.423 -4.23311 0)
(11.0721 -4.14146 0)
(10.8428 -4.03381 0)
(10.5123 -3.8652 0)
(10.0775 -3.60876 0)
(9.65478 -3.26479 0)
(9.16819 -2.96924 0)
(8.69506 -2.70119 0)
(8.27545 -2.39059 0)
(7.87732 -2.09677 0)
(7.59448 -1.83269 0)
(7.37008 -1.59252 0)
(7.04073 -1.38727 0)
(6.66366 -1.17943 0)
(6.36782 -0.981672 0)
(6.15707 -0.869899 0)
(6.01586 -0.831364 0)
(5.95217 -0.772153 0)
(5.91647 -0.658274 0)
(5.83088 -0.535262 0)
(5.6935 -0.4398 0)
(5.56823 -0.368065 0)
(5.49735 -0.308593 0)
(5.46698 -0.261028 0)
(5.43942 -0.228128 0)
(5.3936 -0.208255 0)
(5.33581 -0.196597 0)
(5.28504 -0.188579 0)
(5.25536 -0.181144 0)
(5.24911 -0.172422 0)
(5.2597 -0.161419 0)
(5.27756 -0.148051 0)
(5.29473 -0.133011 0)
(5.30684 -0.117346 0)
(5.31286 -0.102021 0)
(5.3138 -0.0877204 0)
(5.31139 -0.0748337 0)
(5.30722 -0.0635208 0)
(5.30243 -0.0537778 0)
(5.29766 -0.0454921 0)
(5.29329 -0.0384907 0)
(5.28945 -0.032581 0)
(5.28615 -0.0275787 0)
(5.28336 -0.0233225 0)
(5.28102 -0.0196793 0)
(5.27909 -0.016544 0)
(5.2775 -0.0138343 0)
(5.27618 -0.0114843 0)
(5.2751 -0.00944014 0)
(5.27422 -0.00765811 0)
(5.2735 -0.006102 0)
(5.2729 -0.00473998 0)
(5.27242 -0.00354382 0)
(5.27202 -0.00248953 0)
(5.2717 -0.00155682 0)
(5.27144 -0.000727006 0)
(5.27122 1.73409e-05 0)
(5.27105 0.000691244 0)
(5.27091 0.00130842 0)
(5.2708 0.00187589 0)
(5.27071 0.00240969 0)
(5.27065 0.00291966 0)
(5.2706 0.00341242 0)
(5.27056 0.00389692 0)
(5.27054 0.00438209 0)
(5.27053 0.004876 0)
(5.27054 0.00538392 0)
(5.27054 0.00591563 0)
(5.27057 0.00647502 0)
(5.27059 0.0070772 0)
(5.27064 0.00771457 0)
(5.27067 0.00842225 0)
(5.27076 0.00916094 0)
(5.27079 0.0100284 0)
(5.27094 0.0108772 0)
(5.27091 0.0119975 0)
(5.27121 0.0129204 0)
(5.27101 0.0144946 0)
(5.27164 0.0153279 0)
(5.27102 0.0178052 0)
(5.27232 0.0180691 0)
(5.27077 0.022457 0)
(5.27336 0.020983 0)
(5.27002 0.0293865 0)
(5.2747 0.0237201 0)
(5.26845 0.0400756 0)
(5.2757 0.0258429 0)
(5.26564 0.0562637 0)
(5.27425 0.0272128 0)
(5.26106 0.0784865 0)
(5.26628 0.0284044 0)
(5.25403 0.103202 0)
(5.24726 0.0298702 0)
(5.24481 0.12172 0)
(5.21617 0.029097 0)
(5.2385 0.126245 0)
(5.17506 0.0202803 0)
(5.25062 0.115685 0)
(5.12261 0.00727549 0)
(5.2991 0.0860599 0)
(5.05995 0.0171294 0)
(5.37557 0.0317073 0)
(5.00463 0.0671551 0)
(5.43744 -0.0157489 0)
(4.97706 0.109018 0)
(5.45418 -0.0117972 0)
(4.99128 0.103183 0)
(5.40166 0.028848 0)
(5.08431 0.0822037 0)
(5.25693 0.0589937 0)
(5.25173 0.0698181 0)
(5.09566 0.088663 0)
(5.36946 0.0533813 0)
(5.03734 0.129734 0)
(5.37611 0.0495454 0)
(5.04536 0.136655 0)
(5.38078 0.0935722 0)
(5.00808 0.104457 0)
(5.4465 0.155509 0)
(4.94362 0.0937343 0)
(5.49345 0.183597 0)
(4.93951 0.129118 0)
(5.47329 0.188371 0)
(4.97221 0.173432 0)
(5.46952 0.212211 0)
(4.96309 0.204703 0)
(5.48709 0.255727 0)
(4.97573 0.240988 0)
(5.47271 0.293059 0)
(4.99258 0.299141 0)
(5.47569 0.337158 0)
(5.02171 0.350305 0)
(5.44009 0.397334 0)
(5.07828 0.425001 0)
(5.40872 0.449169 0)
(5.14517 0.510933 0)
(5.3451 0.520985 0)
(5.26939 0.613456 0)
(5.22555 0.609682 0)
(5.41195 0.735191 0)
(5.16663 0.687714 0)
(5.53066 0.904043 0)
(5.04458 0.834294 0)
(5.67252 1.01537 0)
(5.01875 1.06363 0)
(5.71833 1.15191 0)
(5.12237 1.31825 0)
(5.55177 1.35148 0)
(5.38014 1.59071 0)
(5.33908 1.60308 0)
(5.59133 1.95501 0)
(5.15323 1.97971 0)
(5.67011 2.27273 0)
(5.28747 2.53848 0)
(5.25443 2.68428 0)
(5.54646 3.10353 0)
(5.3413 3.46456 0)
(5.48951 3.74336 0)
(5.40273 4.41802 0)
(5.06727 5.034 0)
(5.28548 5.60496 0)
(5.24844 6.80413 0)
(6.41907 7.601 0)
(4.18574 11.7629 0)
(4.64797 0.0153661 0)
(4.6724 -0.0199375 0)
(4.71526 -0.0610365 0)
(4.71747 -0.0332305 0)
(4.65502 0.0504241 0)
(4.67244 0.086171 0)
(4.67757 0.204591 0)
(4.57028 0.422669 0)
(4.84086 0.392823 0)
(4.59949 0.4981 0)
(4.61951 1.05435 0)
(5.4184 1.265 0)
(5.84021 0.664798 0)
(5.76663 0.212122 0)
(6.28942 0.600686 0)
(7.41559 1.14069 0)
(8.25953 1.04095 0)
(8.39339 0.545738 0)
(8.22878 0.247573 0)
(8.41557 0.0210493 0)
(8.91802 -0.622852 0)
(9.2283 -1.33043 0)
(9.40759 -1.58812 0)
(9.68355 -1.45294 0)
(10.1536 -1.50686 0)
(10.8736 -2.19835 0)
(11.5348 -3.09385 0)
(11.7956 -3.57227 0)
(12.0189 -3.69693 0)
(12.5294 -3.91899 0)
(12.8605 -4.33401 0)
(12.8995 -4.59112 0)
(12.7102 -4.65259 0)
(12.419 -4.6172 0)
(12.131 -4.46919 0)
(11.8006 -4.27242 0)
(11.4974 -4.10963 0)
(11.1961 -4.02786 0)
(10.9353 -3.90439 0)
(10.5597 -3.68937 0)
(10.0461 -3.42279 0)
(9.60363 -3.09413 0)
(9.17181 -2.78757 0)
(8.75253 -2.51339 0)
(8.37932 -2.20693 0)
(7.96827 -1.93726 0)
(7.61722 -1.72702 0)
(7.39081 -1.497 0)
(7.12364 -1.24854 0)
(6.77111 -1.02857 0)
(6.46186 -0.865811 0)
(6.23841 -0.790717 0)
(6.06279 -0.779304 0)
(5.93712 -0.74181 0)
(5.86227 -0.630618 0)
(5.78383 -0.491256 0)
(5.66673 -0.38581 0)
(5.54567 -0.326529 0)
(5.47399 -0.290675 0)
(5.4642 -0.257777 0)
(5.48376 -0.223319 0)
(5.49038 -0.1933 0)
(5.4646 -0.174222 0)
(5.41487 -0.166938 0)
(5.36197 -0.16674 0)
(5.32247 -0.167063 0)
(5.30209 -0.163076 0)
(5.2976 -0.153179 0)
(5.30196 -0.138479 0)
(5.30857 -0.121314 0)
(5.31335 -0.103929 0)
(5.31484 -0.0878272 0)
(5.31331 -0.0737201 0)
(5.30976 -0.0617602 0)
(5.3052 -0.0517945 0)
(5.30038 -0.0435448 0)
(5.29579 -0.036711 0)
(5.29167 -0.03102 0)
(5.28809 -0.0262434 0)
(5.28504 -0.0221976 0)
(5.28247 -0.0187405 0)
(5.28034 -0.0157655 0)
(5.27858 -0.0131916 0)
(5.27712 -0.010955 0)
(5.27591 -0.00900462 0)
(5.27492 -0.00730006 0)
(5.27411 -0.00580814 0)
(5.27344 -0.00449893 0)
(5.27289 -0.00334592 0)
(5.27244 -0.00232727 0)
(5.27207 -0.0014243 0)
(5.27176 -0.000618962 0)
(5.27151 0.000105803 0)
(5.27132 0.000762388 0)
(5.27116 0.00136315 0)
(5.27103 0.00191988 0)
(5.27093 0.0024449 0)
(5.27085 0.00294562 0)
(5.2708 0.00342987 0)
(5.27076 0.00390775 0)
(5.27074 0.00438775 0)
(5.27074 0.00487671 0)
(5.27075 0.00537944 0)
(5.27077 0.00590635 0)
(5.27081 0.00646114 0)
(5.27085 0.00705924 0)
(5.27092 0.00769106 0)
(5.27097 0.00839531 0)
(5.27109 0.00912633 0)
(5.27114 0.00999376 0)
(5.27135 0.0108266 0)
(5.27133 0.0119588 0)
(5.27173 0.0128416 0)
(5.27151 0.0144689 0)
(5.27234 0.015188 0)
(5.27157 0.0178438 0)
(5.27331 0.0177827 0)
(5.27133 0.0227058 0)
(5.27488 0.0203408 0)
(5.27047 0.0302094 0)
(5.27715 0.0222628 0)
(5.26858 0.0422932 0)
(5.27967 0.0227087 0)
(5.26515 0.0614747 0)
(5.28042 0.0211279 0)
(5.25928 0.0891816 0)
(5.27536 0.0180731 0)
(5.24889 0.121909 0)
(5.261 0.0146399 0)