/*--------------------------------*- C++ -*----------------------------------*\
| =========                 |                                                 |
| \\      /  F ield         | OpenFOAM: The Open Source CFD Toolbox           |
|  \\    /   O peration     | Version:  2.4.0                                 |
|   \\  /    A nd           | Web:      www.OpenFOAM.org                      |
|    \\/     M anipulation  |                                                 |
\*---------------------------------------------------------------------------*/
FoamFile
{
    version     2.0;
    format      ascii;
    class       volVectorField;
    location    "0.078";
    object      UMean;
}
// * * * * * * * * * * * * * * * * * * * * * * * * * * * * * * * * * * * * * //

dimensions      [0 1 -1 0 0 0 0];

internalField   nonuniform List<vector> 
4400
(
(5.46339 0.310638 0)
(3.49489 0.0620001 0)
(2.77594 0.00162636 0)
(2.45043 -0.00236363 0)
(2.31783 -0.00153515 0)
(2.26561 -0.000757912 0)
(2.22506 -0.000184455 0)
(2.23167 -0.000541535 0)
(2.23413 -0.000965605 0)
(2.10142 -0.0486724 0)
(8.6604 0.832721 0)
(7.69935 0.334213 0)
(6.81765 0.110731 0)
(6.15634 0.049017 0)
(5.79892 0.0207549 0)
(5.63486 0.0113869 0)
(5.50272 0.00517557 0)
(5.5142 0.000953115 0)
(5.39391 0.00917219 0)
(5.61006 -0.174955 0)
(9.79963 0.904051 0)
(10.0738 0.457683 0)
(9.5911 0.200526 0)
(8.91928 0.11634 0)
(8.46248 0.0607367 0)
(8.21906 0.034819 0)
(8.02983 0.0157408 0)
(8.00807 0.0114494 0)
(7.87201 -0.00933812 0)
(8.04401 -0.175684 0)
(10.0036 0.775157 0)
(11.1317 0.47302 0)
(11.2596 0.2476 0)
(10.8644 0.176932 0)
(10.488 0.107003 0)
(10.229 0.0671389 0)
(10.0537 0.0321197 0)
(9.96175 0.0235969 0)
(9.91578 -0.0131256 0)
(9.86528 -0.175015 0)
(9.93218 0.622165 0)
(11.3198 0.413127 0)
(11.9091 0.228751 0)
(11.8898 0.194104 0)
(11.7833 0.138107 0)
(11.5921 0.091994 0)
(11.5471 0.0550638 0)
(11.3874 0.0280899 0)
(11.4464 0.00119187 0)
(11.3099 -0.196664 0)
(9.9066 0.495224 0)
(11.2385 0.34113 0)
(11.9668 0.174956 0)
(12.1489 0.166221 0)
(12.2914 0.131552 0)
(12.276 0.098581 0)
(12.3672 0.0582952 0)
(12.3111 0.0397385 0)
(12.3836 -0.0132892 0)
(12.3208 -0.160325 0)
(9.90091 0.382144 0)
(11.1805 0.272191 0)
(11.8974 0.12829 0)
(12.1414 0.124261 0)
(12.3254 0.105405 0)
(12.4438 0.0785726 0)
(12.5938 0.0514608 0)
(12.6886 0.0271197 0)
(12.7835 -0.0196184 0)
(12.8269 -0.126206 0)
(9.89489 0.266135 0)
(11.1455 0.204419 0)
(11.8427 0.0832467 0)
(12.1158 0.0924492 0)
(12.2802 0.0693943 0)
(12.4287 0.0624018 0)
(12.5873 0.0241796 0)
(12.7267 0.0212684 0)
(12.8436 -0.0489465 0)
(12.915 -0.127451 0)
(9.88908 0.161252 0)
(11.1229 0.121581 0)
(11.8123 0.0500551 0)
(12.0965 0.052543 0)
(12.2485 0.0439311 0)
(12.408 0.0330725 0)
(12.5601 0.0129898 0)
(12.7011 -0.0047926 0)
(12.8139 -0.0569167 0)
(12.8721 -0.166627 0)
(9.8912 0.0513513 0)
(11.1075 0.0438878 0)
(11.7994 0.0119352 0)
(12.0813 0.0215686 0)
(12.2387 0.00833007 0)
(12.3957 0.0138982 0)
(12.5473 -0.0100189 0)
(12.6825 -0.0175473 0)
(12.794 -0.0780951 0)
(12.835 -0.184626 0)
(9.89493 -0.0531675 0)
(11.1031 -0.0393293 0)
(11.8005 -0.0192618 0)
(12.0809 -0.0164804 0)
(12.2403 -0.0204302 0)
(12.394 -0.012916 0)
(12.5476 -0.0260419 0)
(12.6783 -0.0365436 0)
(12.7862 -0.096052 0)
(12.8134 -0.196497 0)
(9.89691 -0.161831 0)
(11.1155 -0.118388 0)
(11.8178 -0.0557156 0)
(12.0907 -0.0501217 0)
(12.252 -0.0529686 0)
(12.4048 -0.0356315 0)
(12.557 -0.0447591 0)
(12.6847 -0.0544079 0)
(12.7866 -0.111554 0)
(12.8069 -0.207438 0)
(9.91125 -0.269439 0)
(11.1327 -0.198469 0)
(11.8573 -0.0915641 0)
(12.0995 -0.0857207 0)
(12.2867 -0.0838712 0)
(12.4175 -0.0589478 0)
(12.5854 -0.0632818 0)
(12.6919 -0.0701396 0)
(12.7962 -0.126484 0)
(12.7866 -0.21823 0)
(9.92276 -0.38238 0)
(11.1594 -0.270774 0)
(11.9165 -0.132142 0)
(12.1176 -0.121442 0)
(12.3402 -0.115277 0)
(12.4174 -0.0814835 0)
(12.5993 -0.0812932 0)
(12.6268 -0.08476 0)
(12.7161 -0.137156 0)
(12.5946 -0.222583 0)
(9.91738 -0.497879 0)
(11.2259 -0.337901 0)
(11.9745 -0.179964 0)
(12.1361 -0.161073 0)
(12.2962 -0.143625 0)
(12.257 -0.0978608 0)
(12.3533 -0.0918192 0)
(12.239 -0.08741 0)
(12.2548 -0.13534 0)
(11.9773 -0.205765 0)
(9.94157 -0.623338 0)
(11.3076 -0.411111 0)
(11.9169 -0.232122 0)
(11.8762 -0.190519 0)
(11.7892 -0.148141 0)
(11.5646 -0.0928806 0)
(11.5255 -0.0816756 0)
(11.2896 -0.0736305 0)
(11.2496 -0.11823 0)
(10.8508 -0.166708 0)
(10.0073 -0.77632 0)
(11.1215 -0.471684 0)
(11.2677 -0.25016 0)
(10.8461 -0.174115 0)
(10.5053 -0.115705 0)
(10.1731 -0.0660653 0)
(10.0634 -0.0575367 0)
(9.78655 -0.0519094 0)
(9.73218 -0.0921611 0)
(9.25181 -0.115483 0)
(9.79994 -0.90446 0)
(10.0682 -0.456927 0)
(9.59587 -0.201945 0)
(8.90528 -0.115012 0)
(8.47569 -0.0658469 0)
(8.16124 -0.0353726 0)
(8.04335 -0.0322485 0)
(7.79308 -0.0312091 0)
(7.7366 -0.0612851 0)
(7.2241 -0.0643272 0)
(8.66 -0.832926 0)
(7.69673 -0.333938 0)
(6.81933 -0.111373 0)
(6.14783 -0.0485661 0)
(5.80434 -0.0230869 0)
(5.59057 -0.0121008 0)
(5.50246 -0.0125696 0)
(5.32398 -0.0144123 0)
(5.26223 -0.029475 0)
(4.81643 -0.0269499 0)
(5.46294 -0.310671 0)
(3.49423 -0.0619405 0)
(2.77577 -0.00174 0)
(2.44725 0.00245881 0)
(2.31727 0.00130297 0)
(2.24577 0.000475882 0)
(2.21137 -0.000374514 0)
(2.13884 -0.00132631 0)
(2.08814 -0.00295122 0)
(1.868 0.0102733 0)
(3.49001 -0.476472 0)
(3.8689 -0.289205 0)
(4.62287 -0.277447 0)
(5.15263 -0.304281 0)
(5.81826 -0.502531 0)
(6.25127 -0.663278 0)
(6.67047 -0.832876 0)
(7.0633 -0.98939 0)
(7.44247 -1.20595 0)
(7.72545 -1.42618 0)
(7.9475 -1.57549 0)
(8.10871 -1.6783 0)
(8.30464 -1.80233 0)
(8.48339 -1.92514 0)
(8.65845 -2.03458 0)
(8.84811 -2.12065 0)
(9.06043 -2.19964 0)
(9.23466 -2.24291 0)
(9.35368 -2.24199 0)
(9.44682 -2.21581 0)
(9.47616 -2.1851 0)
(9.45504 -2.13311 0)
(9.40441 -2.10065 0)
(9.39862 -2.12127 0)
(9.36131 -2.16248 0)
(9.25502 -2.1815 0)
(9.03821 -2.15918 0)
(8.72883 -2.07085 0)
(8.36573 -1.93144 0)
(8.00277 -1.75343 0)
(7.66533 -1.55085 0)
(7.38758 -1.35231 0)
(7.14307 -1.15946 0)
(6.94888 -0.942976 0)
(6.75433 -0.751059 0)
(6.65427 -0.538133 0)
(6.50274 -0.374877 0)
(6.47809 -0.14675 0)
(6.39042 -0.0430849 0)
(6.42089 0.151488 0)
(6.39394 0.265025 0)
(6.4208 0.525474 0)
(6.43175 0.67601 0)
(6.40779 0.936549 0)
(6.46063 1.0239 0)
(6.38431 1.25428 0)
(6.48897 1.22863 0)
(6.28231 1.40966 0)
(6.45597 1.23659 0)
(6.15958 1.38541 0)
(6.30248 1.01565 0)
(6.00183 1.20252 0)
(6.16968 0.700946 0)
(5.78563 0.920146 0)
(6.01317 0.286816 0)
(5.63494 0.60892 0)
(5.88117 -0.0846642 0)
(5.53997 0.375551 0)
(5.81156 -0.339203 0)
(5.49707 0.224147 0)
(5.76805 -0.523146 0)
(5.4596 0.119102 0)
(5.7338 -0.631177 0)
(5.43189 0.0992092 0)
(5.71346 -0.641838 0)
(5.41685 0.16415 0)
(5.7041 -0.57446 0)
(5.41259 0.263096 0)
(5.71141 -0.494145 0)
(5.42532 0.352998 0)
(5.73098 -0.427207 0)
(5.45169 0.419597 0)
(5.75945 -0.366608 0)
(5.48999 0.469871 0)
(5.79192 -0.306601 0)
(5.53823 0.51513 0)
(5.81691 -0.232787 0)
(5.58735 0.558487 0)
(5.82992 -0.141036 0)
(5.63013 0.608231 0)
(5.82011 -0.0263593 0)
(5.64936 0.663942 0)
(5.78603 0.113277 0)
(5.62869 0.730313 0)
(5.71517 0.287977 0)
(5.55956 0.820994 0)
(5.62054 0.492305 0)
(5.45514 0.949016 0)
(5.52784 0.735148 0)
(5.36805 1.14974 0)
(5.48433 1.03715 0)
(5.37692 1.50141 0)
(5.52363 1.44994 0)
(5.43478 2.12994 0)
(5.58851 2.0359 0)
(5.27616 3.07199 0)
(6.01709 3.00743 0)
(5.21701 4.93022 0)
(6.16377 5.34184 0)
(3.55295 9.64099 0)
(5.8676 -0.493787 0)
(6.00447 -0.402555 0)
(6.33277 -0.447565 0)
(6.55986 -0.514185 0)
(6.97771 -0.696635 0)
(7.31981 -0.845655 0)
(7.66458 -0.998891 0)
(7.97092 -1.15396 0)
(8.27212 -1.3437 0)
(8.47 -1.53238 0)
(8.62874 -1.67284 0)
(8.79125 -1.76985 0)
(9.02492 -1.88543 0)
(9.24105 -2.00451 0)
(9.42883 -2.11085 0)
(9.58722 -2.19004 0)
(9.71831 -2.25134 0)
(9.7889 -2.27643 0)
(9.8148 -2.26521 0)
(9.79995 -2.22615 0)
(9.72486 -2.16829 0)
(9.64066 -2.11118 0)
(9.57495 -2.08685 0)
(9.54229 -2.10352 0)
(9.4303 -2.11379 0)
(9.22847 -2.08861 0)
(8.92214 -2.02858 0)
(8.55194 -1.91901 0)
(8.15913 -1.77581 0)
(7.7852 -1.60859 0)
(7.44247 -1.42773 0)
(7.15641 -1.24612 0)
(6.9043 -1.06217 0)
(6.68815 -0.859294 0)
(6.48903 -0.679453 0)
(6.37027 -0.4844 0)
(6.21806 -0.335 0)
(6.19221 -0.126277 0)
(6.10663 -0.0374314 0)
(6.14356 0.154404 0)
(6.12012 0.254015 0)
(6.16124 0.52674 0)
(6.18097 0.663316 0)
(6.17266 0.943452 0)
(6.26007 1.00934 0)
(6.17402 1.26167 0)
(6.3511 1.22291 0)
(6.13812 1.42979 0)
(6.36076 1.2351 0)
(6.09863 1.43196 0)
(6.27552 1.02536 0)
(5.96946 1.25622 0)
(6.19914 0.713913 0)
(5.80516 0.991164 0)
(6.03454 0.283172 0)
(5.66685 0.672778 0)
(5.9191 -0.103391 0)
(5.5687 0.433846 0)
(5.84993 -0.374734 0)
(5.51814 0.282419 0)
(5.80853 -0.565001 0)
(5.4671 0.183875 0)
(5.76877 -0.684145 0)
(5.41735 0.171687 0)
(5.74138 -0.706221 0)
(5.37518 0.246327 0)
(5.72967 -0.652579 0)
(5.34759 0.35413 0)
(5.73926 -0.589184 0)
(5.33836 0.453071 0)
(5.7696 -0.538771 0)
(5.34679 0.529526 0)
(5.81909 -0.496121 0)
(5.37096 0.589599 0)
(5.88366 -0.454945 0)
(5.41577 0.644576 0)
(5.95679 -0.398696 0)
(5.47795 0.696829 0)
(6.03044 -0.319147 0)
(5.55699 0.757501 0)
(6.08405 -0.20796 0)
(5.64034 0.82798 0)
(6.098 -0.0632067 0)
(5.70875 0.913602 0)
(6.0425 0.118448 0)
(5.72893 1.02482 0)
(5.89468 0.326254 0)
(5.67475 1.17612 0)
(5.66234 0.551374 0)
(5.55782 1.38831 0)
(5.45231 0.806249 0)
(5.48325 1.73278 0)
(5.50929 1.18382 0)
(5.54978 2.36001 0)
(5.88646 1.91578 0)
(5.40108 3.42845 0)
(5.85519 2.78169 0)
(4.87684 5.08765 0)
(8.22921 4.54798 0)
(5.80893 10.0806 0)
(8.11414 -0.459323 0)
(8.07895 -0.454332 0)
(8.27153 -0.527248 0)
(8.40485 -0.608669 0)
(8.61803 -0.775009 0)
(8.81952 -0.931097 0)
(9.01204 -1.08198 0)
(9.19254 -1.23932 0)
(9.35748 -1.41075 0)
(9.46706 -1.57668 0)
(9.56168 -1.71764 0)
(9.67789 -1.84105 0)
(9.85815 -1.96747 0)
(10.0328 -2.08107 0)
(10.1582 -2.16945 0)
(10.2248 -2.225 0)
(10.2364 -2.25769 0)
(10.1911 -2.26366 0)
(10.1265 -2.24417 0)
(10.0027 -2.18938 0)
(9.86731 -2.12728 0)
(9.76604 -2.08495 0)
(9.68288 -2.06436 0)
(9.58536 -2.05741 0)
(9.37255 -2.02446 0)
(9.07841 -1.95948 0)
(8.70526 -1.87339 0)
(8.30139 -1.75245 0)
(7.89382 -1.61405 0)
(7.51279 -1.46306 0)
(7.1656 -1.29814 0)
(6.87248 -1.13132 0)
(6.60766 -0.960204 0)
(6.38394 -0.775307 0)
(6.18605 -0.608782 0)
(6.06511 -0.433992 0)
(5.91244 -0.291735 0)
(5.8869 -0.102264 0)
(5.79359 -0.0266079 0)
(5.84261 0.157145 0)
(5.81367 0.242061 0)
(5.87308 0.523997 0)
(5.89602 0.643599 0)
(5.91608 0.940469 0)
(6.01853 0.987092 0)
(5.94571 1.25497 0)
(6.16291 1.20625 0)
(5.97937 1.43743 0)
(6.21186 1.21682 0)
(6.02585 1.45828 0)
(6.21463 1.03307 0)
(5.93156 1.29143 0)
(6.15735 0.711746 0)
(5.83786 1.04208 0)
(6.03519 0.287514 0)
(5.70831 0.721482 0)
(5.93425 -0.113254 0)
(5.62609 0.478013 0)
(5.8676 -0.396096 0)
(5.57286 0.326746 0)
(5.82083 -0.591184 0)
(5.52084 0.233608 0)
(5.77101 -0.7197 0)
(5.46307 0.226542 0)
(5.73065 -0.75203 0)
(5.40809 0.305893 0)
(5.70451 -0.711411 0)
(5.36932 0.420002 0)
(5.70572 -0.661589 0)
(5.34886 0.525536 0)
(5.73122 -0.627971 0)
(5.34671 0.609642 0)
(5.78522 -0.601352 0)
(5.36035 0.680894 0)
(5.86184 -0.581213 0)
(5.39438 0.74822 0)
(5.96301 -0.548855 0)
(5.45242 0.812397 0)
(6.09197 -0.49749 0)
(5.54518 0.884403 0)
(6.24005 -0.410905 0)
(5.67311 0.965272 0)
(6.39887 -0.280674 0)
(5.829 1.07306 0)
(6.53234 -0.0938924 0)
(5.97364 1.21085 0)
(6.59063 0.147264 0)
(6.03055 1.38681 0)
(6.50049 0.430609 0)
(5.8985 1.59914 0)
(6.23571 0.715437 0)
(5.57187 1.87861 0)
(6.03593 1.01357 0)
(5.38438 2.36354 0)
(6.60148 1.51597 0)
(5.73636 3.54306 0)
(7.92706 2.6267 0)
(4.89545 5.52786 0)
(8.83203 3.887 0)
(6.74523 10.1395 0)
(9.98346 -0.488897 0)
(9.87082 -0.531965 0)
(9.94749 -0.603416 0)
(10.0527 -0.679965 0)
(10.1702 -0.8142 0)
(10.2773 -0.971065 0)
(10.3517 -1.12648 0)
(10.4229 -1.28517 0)
(10.4736 -1.44105 0)
(10.5157 -1.59512 0)
(10.5681 -1.73742 0)
(10.628 -1.87152 0)
(10.6872 -2.00356 0)
(10.7295 -2.11369 0)
(10.725 -2.18543 0)
(10.6694 -2.22085 0)
(10.5703 -2.22766 0)
(10.4385 -2.21532 0)
(10.2954 -2.18407 0)
(10.1054 -2.12443 0)
(9.96246 -2.07664 0)
(9.84846 -2.04639 0)
(9.709 -2.01042 0)
(9.51157 -1.96522 0)
(9.19367 -1.89215 0)
(8.82785 -1.79998 0)
(8.41074 -1.70069 0)
(7.98627 -1.57979 0)
(7.56856 -1.45271 0)
(7.18373 -1.31378 0)
(6.83288 -1.1653 0)
(6.5312 -1.01476 0)
(6.26573 -0.854985 0)
(6.03645 -0.68548 0)
(5.853 -0.536598 0)
(5.72816 -0.379735 0)
(5.58311 -0.248844 0)
(5.55454 -0.0816194 0)
(5.45953 -0.0192725 0)
(5.52251 0.159108 0)
(5.48531 0.228 0)
(5.56291 0.520498 0)
(5.59512 0.619493 0)
(5.63221 0.934859 0)
(5.76106 0.958272 0)
(5.68953 1.24365 0)
(5.95825 1.16593 0)
(5.8081 1.44131 0)
(6.05358 1.18074 0)
(5.89428 1.46673 0)
(6.15469 1.0204 0)
(5.88251 1.33293 0)
(6.12206 0.702069 0)
(5.80946 1.09252 0)
(6.0529 0.2813 0)
(5.71133 0.777862 0)
(5.95506 -0.131535 0)
(5.63547 0.528468 0)
(5.89325 -0.428351 0)
(5.5786 0.376825 0)
(5.84637 -0.629438 0)
(5.51726 0.2927 0)
(5.79862 -0.765793 0)
(5.44563 0.295332 0)
(5.75381 -0.807777 0)
(5.37189 0.384424 0)
(5.72288 -0.781926 0)
(5.31497 0.505691 0)
(5.72108 -0.7489 0)
(5.27735 0.619941 0)
(5.74554 -0.730496 0)
(5.256 0.712595 0)
(5.80148 -0.721276 0)
(5.24613 0.794855 0)
(5.88546 -0.719648 0)
(5.25259 0.876257 0)
(6.00381 -0.708763 0)
(5.27179 0.957196 0)
(6.16565 -0.685622 0)
(5.32085 1.04826 0)
(6.37928 -0.635404 0)
(5.4086 1.14481 0)
(6.65975 -0.547363 0)
(5.56111 1.26248 0)
(6.99896 -0.399512 0)
(5.78377 1.40707 0)
(7.35926 -0.170254 0)
(6.05311 1.61066 0)
(7.62137 0.158731 0)
(6.24705 1.90591 0)
(7.59148 0.549398 0)
(6.11237 2.29387 0)
(7.05472 0.891797 0)
(5.4379 2.84633 0)
(6.5392 1.02096 0)
(4.8823 3.66797 0)
(8.54769 1.88002 0)
(5.6731 5.47536 0)
(11.1363 2.70056 0)
(8.21999 9.47996 0)
(11.4044 -0.427741 0)
(11.3452 -0.485656 0)
(11.3232 -0.591337 0)
(11.3484 -0.697147 0)
(11.3955 -0.82758 0)
(11.4324 -0.981606 0)
(11.4364 -1.13571 0)
(11.4284 -1.29047 0)
(11.4124 -1.44193 0)
(11.4039 -1.59687 0)
(11.3996 -1.74437 0)
(11.3739 -1.87256 0)
(11.3102 -1.99005 0)
(11.2205 -2.0849 0)
(11.0932 -2.1441 0)
(10.9388 -2.17067 0)
(10.7549 -2.16675 0)
(10.5703 -2.15 0)
(10.3722 -2.11474 0)
(10.1767 -2.06418 0)
(10.0412 -2.02707 0)
(9.87404 -1.98633 0)
(9.63516 -1.91498 0)
(9.32251 -1.83178 0)
(8.91514 -1.73045 0)
(8.50285 -1.62531 0)
(8.05518 -1.52244 0)
(7.6197 -1.40686 0)
(7.19468 -1.28824 0)
(6.80964 -1.1627 0)
(6.45571 -1.03095 0)
(6.1616 -0.89619 0)
(5.89856 -0.750587 0)
(5.67846 -0.601618 0)
(5.49662 -0.465076 0)
(5.36351 -0.325609 0)
(5.22308 -0.204707 0)
(5.19295 -0.0618546 0)
(5.09955 -0.00766043 0)
(5.17715 0.158446 0)
(5.1272 0.211462 0)
(5.23197 0.512495 0)
(5.26644 0.587019 0)
(5.32619 0.918533 0)
(5.4844 0.925211 0)
(5.4285 1.21983 0)
(5.70742 1.11835 0)
(5.62148 1.427 0)
(5.87604 1.14262 0)
(5.77413 1.4651 0)
(6.01992 0.989984 0)
(5.82785 1.34985 0)
(6.0574 0.689395 0)
(5.80429 1.12427 0)
(6.0075 0.275332 0)
(5.75001 0.815404 0)
(5.94145 -0.133887 0)
(5.68202 0.564481 0)
(5.88489 -0.441713 0)
(5.63006 0.412279 0)
(5.83851 -0.64523 0)
(5.56806 0.336261 0)
(5.78649 -0.788208 0)
(5.48788 0.345085 0)
(5.72677 -0.839846 0)
(5.40654 0.439659 0)
(5.68444 -0.827752 0)
(5.34214 0.564431 0)
(5.66929 -0.811844 0)
(5.29942 0.683429 0)
(5.68389 -0.809538 0)
(5.27137 0.781937 0)
(5.72546 -0.816454 0)
(5.25417 0.873324 0)
(5.79058 -0.834302 0)
(5.24898 0.96423 0)
(5.88815 -0.843694 0)
(5.25134 1.05688 0)
(6.02659 -0.847301 0)
(5.2723 1.16387 0)
(6.22282 -0.831119 0)
(5.31513 1.28178 0)
(6.50896 -0.795734 0)
(5.40744 1.4248 0)
(6.93101 -0.725061 0)
(5.58031 1.5868 0)
(7.54895 -0.600919 0)
(5.89663 1.79347 0)
(8.39864 -0.360854 0)
(6.35064 2.07177 0)
(9.42325 0.0400221 0)
(6.75661 2.48495 0)
(10.3604 0.649956 0)
(6.51212 3.13234 0)
(10.6562 1.37429 0)
(4.9544 3.97561 0)
(10.1333 1.72292 0)
(4.62067 5.98758 0)
(10.1664 1.50387 0)
(8.91334 8.78579 0)
(12.3639 -0.422307 0)
(12.3255 -0.539381 0)
(12.2812 -0.646249 0)
(12.2619 -0.742926 0)
(12.2645 -0.851036 0)
(12.2416 -0.979321 0)
(12.1928 -1.11983 0)
(12.1307 -1.26958 0)
(12.0688 -1.42386 0)
(11.9974 -1.57721 0)
(11.9099 -1.72112 0)
(11.7895 -1.83597 0)
(11.6403 -1.93349 0)
(11.4677 -2.00934 0)
(11.2713 -2.0604 0)
(11.0622 -2.08784 0)
(10.8397 -2.08862 0)
(10.6307 -2.07304 0)
(10.4258 -2.04041 0)
(10.2485 -1.99785 0)
(10.075 -1.95341 0)
(9.80254 -1.8794 0)
(9.45504 -1.76852 0)
(9.04117 -1.65711 0)
(8.57543 -1.54242 0)
(8.12969 -1.43548 0)
(7.6597 -1.33574 0)
(7.2125 -1.22749 0)
(6.78455 -1.12295 0)
(6.40023 -1.01331 0)
(6.05904 -0.89889 0)
(5.76926 -0.776784 0)
(5.51581 -0.647493 0)
(5.30327 -0.517216 0)
(5.12703 -0.398755 0)
(4.99033 -0.273713 0)
(4.86033 -0.162246 0)
(4.8248 -0.0393251 0)
(4.73702 0.00200945 0)
(4.82261 0.154759 0)
(4.76229 0.194159 0)
(4.89172 0.498661 0)
(4.9266 0.545497 0)
(5.01633 0.894516 0)
(5.18471 0.878112 0)
(5.16096 1.18805 0)
(5.45437 1.04251 0)
(5.42068 1.41527 0)
(5.67297 1.06449 0)
(5.62022 1.45018 0)
(5.91662 0.94833 0)
(5.73464 1.36722 0)
(5.98809 0.668536 0)
(5.76384 1.15439 0)
(5.97882 0.26206 0)
(5.726 0.850466 0)
(5.94679 -0.147139 0)
(5.68124 0.604605 0)
(5.90048 -0.456715 0)
(5.62423 0.453699 0)
(5.85285 -0.666676 0)
(5.55464 0.385425 0)
(5.79817 -0.816719 0)
(5.46249 0.404624 0)
(5.73704 -0.876791 0)
(5.37075 0.506831 0)
(5.69338 -0.879681 0)
(5.29645 0.639101 0)
(5.67809 -0.879579 0)
(5.24234 0.764569 0)
(5.69293 -0.895074 0)
(5.20413 0.871303 0)
(5.73842 -0.918897 0)
(5.17612 0.973421 0)
(5.80638 -0.954664 0)
(5.15478 1.075 0)
(5.90647 -0.982464 0)
(5.13546 1.18026 0)
(6.04156 -1.00799 0)
(5.12411 1.30116 0)
(6.22845 -1.01269 0)
(5.11215 1.43761 0)
(6.48974 -0.998636 0)
(5.10338 1.60722 0)
(6.87373 -0.946804 0)
(5.08695 1.81005 0)
(7.46652 -0.863421 0)
(5.08499 2.05436 0)
(8.42055 -0.717471 0)
(5.15313 2.32894 0)
(9.89812 -0.465215 0)
(5.47804 2.69486 0)
(11.8854 -0.00683906 0)
(6.14642 3.24574 0)
(13.7323 0.632177 0)
(6.89316 4.25187 0)
(13.7772 1.05454 0)
(7.54253 6.12819 0)
(10.8873 1.3158 0)
(8.88226 7.99746 0)
(12.8156 -0.433328 0)
(12.7941 -0.570435 0)
(12.7699 -0.646737 0)
(12.743 -0.715594 0)
(12.7046 -0.807901 0)
(12.6371 -0.928163 0)
(12.5529 -1.07096 0)
(12.4626 -1.22857 0)
(12.3597 -1.38671 0)
(12.2325 -1.5335 0)
(12.0798 -1.667 0)
(11.903 -1.77209 0)
(11.7129 -1.8593 0)
(11.508 -1.9257 0)
(11.296 -1.97714 0)
(11.0833 -2.00832 0)
(10.8737 -2.01379 0)
(10.674 -1.99629 0)
(10.4788 -1.96461 0)
(10.2713 -1.9172 0)
(9.99714 -1.84493 0)
(9.60717 -1.72775 0)
(9.16536 -1.58537 0)
(8.68115 -1.46097 0)
(8.17907 -1.34525 0)
(7.71417 -1.24269 0)
(7.22404 -1.14928 0)
(6.77803 -1.05276 0)
(6.3531 -0.961776 0)
(5.98757 -0.869126 0)
(5.66287 -0.772723 0)
(5.38467 -0.665972 0)
(5.13281 -0.550462 0)
(4.92404 -0.435951 0)
(4.75076 -0.330766 0)
(4.61417 -0.21993 0)
(4.48928 -0.119202 0)
(4.44697 -0.018978 0)
(4.36828 0.0119263 0)
(4.46138 0.149232 0)
(4.39372 0.176153 0)
(4.55137 0.481327 0)
(4.58526 0.500624 0)
(4.70179 0.864622 0)
(4.8959 0.834131 0)
(4.89071 1.15311 0)
(5.17682 0.957641 0)
(5.23177 1.39254 0)
(5.47928 1.00978 0)
(5.46645 1.4225 0)
(5.73689 0.884167 0)
(5.65895 1.35697 0)
(5.87768 0.64062 0)
(5.73505 1.16428 0)
(5.92256 0.258288 0)
(5.73599 0.869854 0)
(5.89744 -0.148231 0)
(5.71136 0.623775 0)
(5.87027 -0.454942 0)
(5.6592 0.475725 0)
(5.82316 -0.665729 0)
(5.59281 0.41575 0)
(5.76662 -0.816777 0)
(5.50344 0.44215 0)
(5.69904 -0.883772 0)
(5.40743 0.547375 0)
(5.64308 -0.900211 0)
(5.32842 0.681133 0)
(5.61633 -0.91563 0)
(5.27032 0.809711 0)
(5.6176 -0.946224 0)
(5.22725 0.92179 0)
(5.64484 -0.987545 0)
(5.19427 1.03171 0)
(5.69518 -1.04182 0)
(5.16751 1.1422 0)
(5.77398 -1.08959 0)
(5.14354 1.25745 0)
(5.88038 -1.13771 0)
(5.12575 1.38621 0)
(6.02658 -1.16532 0)
(5.10865 1.52387 0)
(6.21671 -1.17755 0)
(5.09379 1.68538 0)
(6.46553 -1.14835 0)
(5.06299 1.87366 0)
(6.77552 -1.08243 0)
(4.99461 2.11757 0)
(7.17686 -0.965149 0)
(4.85975 2.46466 0)
(7.72546 -0.805374 0)
(4.76509 2.98052 0)
(8.63394 -0.553897 0)
(5.18083 3.6715 0)
(10.0872 -0.175187 0)
(6.71228 4.72774 0)
(11.7865 0.324454 0)
(8.74704 6.28014 0)
(12.6158 1.72876 0)
(9.70797 7.1206 0)
(12.8596 -0.398135 0)
(12.8548 -0.547631 0)
(12.8505 -0.641881 0)
(12.8152 -0.714481 0)
(12.7557 -0.805009 0)
(12.6784 -0.922487 0)
(12.5876 -1.05939 0)
(12.4847 -1.20907 0)
(12.3556 -1.35292 0)
(12.2012 -1.48459 0)
(12.0239 -1.6033 0)
(11.8371 -1.7021 0)
(11.6445 -1.78477 0)
(11.4521 -1.85062 0)
(11.2623 -1.90273 0)
(11.0768 -1.93459 0)
(10.8865 -1.93861 0)
(10.6832 -1.91831 0)
(10.4482 -1.8744 0)
(10.1495 -1.79828 0)
(9.75638 -1.68277 0)
(9.26999 -1.52822 0)
(8.77136 -1.37477 0)
(8.24277 -1.25367 0)
(7.73011 -1.14239 0)
(7.25159 -1.04346 0)
(6.75756 -0.959284 0)
(6.32228 -0.876821 0)
(5.91626 -0.802932 0)
(5.57114 -0.725395 0)
(5.26058 -0.64401 0)
(4.99333 -0.554872 0)
(4.75204 -0.461373 0)
(4.55488 -0.36461 0)
(4.39165 -0.270212 0)
(4.25819 -0.170819 0)
(4.14036 -0.083826 0)
(4.09154 -0.00187647 0)
(4.02633 0.0125978 0)
(4.11483 0.135949 0)
(4.04693 0.151876 0)
(4.22562 0.446498 0)
(4.25009 0.441269 0)
(4.40824 0.815475 0)
(4.5854 0.766614 0)
(4.65246 1.10099 0)
(4.90663 0.847488 0)
(5.02538 1.35602 0)
(5.24175 0.883104 0)
(5.32117 1.40325 0)
(5.58675 0.816107 0)
(5.5458 1.35426 0)
(5.77221 0.597997 0)
(5.66978 1.16648 0)
(5.85402 0.239272 0)
(5.71701 0.880128 0)
(5.87062 -0.152516 0)
(5.70397 0.639421 0)
(5.85674 -0.454116 0)
(5.66366 0.496185 0)
(5.81764 -0.66447 0)
(5.59693 0.444205 0)
(5.76395 -0.8174 0)
(5.50068 0.479099 0)
(5.69221 -0.891776 0)
(5.39523 0.593 0)
(5.63412 -0.921475 0)
(5.30634 0.732422 0)
(5.60715 -0.954315 0)
(5.24297 0.866918 0)
(5.61232 -1.00075 0)
(5.19467 0.986395 0)
(5.64112 -1.05723 0)
(5.15551 1.10582 0)
(5.69166 -1.12725 0)
(5.11934 1.22571 0)
(5.76819 -1.19456 0)
(5.08585 1.3534 0)
(5.87254 -1.26805 0)
(5.05443 1.4947 0)
(6.01535 -1.32312 0)
(5.02402 1.64949 0)
(6.20078 -1.3678 0)
(4.99912 1.82376 0)
(6.44384 -1.37457 0)
(4.98278 2.01446 0)
(6.73709 -1.34899 0)
(4.99068 2.23397 0)
(7.06862 -1.27225 0)
(5.0677 2.53455 0)
(7.35142 -1.16168 0)
(5.27523 2.99027 0)
(7.4811 -1.05021 0)
(5.72353 3.77347 0)
(7.62149 -0.983168 0)
(6.6028 5.04568 0)
(8.95609 -0.447935 0)
(8.04519 6.23849 0)
(11.734 1.65773 0)
(10.4304 6.50674 0)
(12.8072 -0.386969 0)
(12.8044 -0.50506 0)
(12.8137 -0.592317 0)
(12.788 -0.664682 0)
(12.7344 -0.753443 0)
(12.6521 -0.865889 0)
(12.5478 -0.996406 0)
(12.4248 -1.13707 0)
(12.2806 -1.27452 0)
(12.1236 -1.40283 0)
(11.9552 -1.52109 0)
(11.7877 -1.6229 0)
(11.6157 -1.70811 0)
(11.4472 -1.7772 0)
(11.2685 -1.82753 0)
(11.0794 -1.85543 0)
(10.8588 -1.8538 0)
(10.5973 -1.82002 0)
(10.2666 -1.74386 0)
(9.8534 -1.62661 0)
(9.35209 -1.47448 0)
(8.80743 -1.30495 0)
(8.27877 -1.15863 0)
(7.73361 -1.04785 0)
(7.22425 -0.938314 0)
(6.74077 -0.844275 0)
(6.25682 -0.772004 0)
(5.84664 -0.70565 0)
(5.46309 -0.649485 0)
(5.13472 -0.589849 0)
(4.82407 -0.526275 0)
(4.56766 -0.450356 0)
(4.33954 -0.370886 0)
(4.16203 -0.290288 0)
(4.01447 -0.208682 0)
(3.89678 -0.121523 0)
(3.79729 -0.0445215 0)
(3.75408 0.0151409 0)
(3.70879 0.0163804 0)
(3.79451 0.125931 0)
(3.73593 0.13522 0)
(3.93187 0.413321 0)
(3.94592 0.392124 0)
(4.14102 0.770122 0)
(4.31065 0.707976 0)
(4.43422 1.05048 0)
(4.63985 0.731124 0)
(4.86601 1.33346 0)
(5.03609 0.806301 0)
(5.16633 1.35133 0)
(5.38019 0.717537 0)
(5.46666 1.32235 0)
(5.63124 0.557119 0)
(5.64321 1.14743 0)
(5.75684 0.23623 0)
(5.71224 0.867562 0)
(5.80378 -0.140321 0)
(5.73379 0.63322 0)
(5.80085 -0.427024 0)
(5.70279 0.492276 0)
(5.76679 -0.632105 0)
(5.63706 0.447346 0)
(5.70916 -0.779597 0)
(5.53869 0.489793 0)
(5.62968 -0.853988 0)
(5.43311 0.605436 0)
(5.56422 -0.892219 0)
(5.34673 0.743881 0)
(5.52795 -0.93727 0)
(5.2833 0.878367 0)
(5.5202 -0.999527 0)
(5.23523 1.00243 0)
(5.53553 -1.07544 0)
(5.1955 1.12999 0)
(5.57152 -1.16672 0)
(5.15802 1.26235 0)
(5.62852 -1.25634 0)
(5.1234 1.40358 0)
(5.70861 -1.35086 0)
(5.09018 1.55842 0)
(5.8168 -1.43034 0)
(5.05994 1.72423 0)
(5.95566 -1.5068 0)
(5.03404 1.91352 0)
(6.1311 -1.55766 0)
(5.01689 2.13478 0)
(6.33362 -1.58363 0)
(5.01993 2.40925 0)
(6.56299 -1.56877 0)
(5.09538 2.77467 0)
(6.81367 -1.5401 0)
(5.33916 3.26559 0)
(7.10717 -1.51842 0)
(5.91143 4.00641 0)
(7.485 -1.39199 0)
(6.80937 4.99537 0)
(8.19182 -0.741882 0)
(7.78804 5.8186 0)
(9.79824 1.17102 0)
(10.4583 5.79523 0)
(12.7561 -0.359486 0)
(12.7486 -0.449399 0)
(12.7573 -0.536179 0)
(12.7276 -0.623538 0)
(12.6636 -0.722129 0)
(12.5639 -0.836448 0)
(12.4434 -0.96116 0)
(12.3161 -1.09436 0)
(12.1868 -1.22796 0)
(12.0537 -1.3545 0)
(11.9121 -1.46999 0)
(11.7612 -1.56851 0)
(11.5965 -1.6494 0)
(11.4139 -1.71151 0)
(11.2007 -1.74992 0)
(10.955 -1.76237 0)
(10.6569 -1.74211 0)
(10.2939 -1.67773 0)
(9.85133 -1.56532 0)
(9.3329 -1.41682 0)
(8.76776 -1.24501 0)
(8.2121 -1.07359 0)
(7.68509 -0.939718 0)
(7.14792 -0.834479 0)
(6.6565 -0.725592 0)
(6.18315 -0.644479 0)
(5.72502 -0.591637 0)
(5.34213 -0.539684 0)
(4.98186 -0.500644 0)
(4.67492 -0.461794 0)
(4.38495 -0.419323 0)
(4.14756 -0.35963 0)
(3.9376 -0.296385 0)
(3.77447 -0.230177 0)
(3.63902 -0.162403 0)
(3.53452 -0.0862886 0)
(3.44945 -0.0235188 0)
(3.41395 0.0168527 0)
(3.3892 0.00805309 0)
(3.46472 0.0992772 0)
(3.41798 0.106214 0)
(3.62653 0.356053 0)
(3.62421 0.326339 0)
(3.87046 0.698933 0)
(3.98905 0.617979 0)
(4.24097 0.975662 0)
(4.33556 0.611789 0)
(4.66698 1.26942 0)
(4.73762 0.647257 0)
(5.03898 1.33491 0)
(5.17809 0.627146 0)
(5.34914 1.29993 0)
(5.4702 0.48999 0)
(5.57481 1.12408 0)
(5.66393 0.216111 0)
(5.69114 0.850007 0)
(5.73268 -0.138424 0)
(5.73149 0.620478 0)
(5.76171 -0.407707 0)
(5.71082 0.487493 0)
(5.73624 -0.605576 0)
(5.64784 0.449727 0)
(5.6791 -0.746736 0)
(5.54966 0.498994 0)
(5.59963 -0.820306 0)
(5.44319 0.615932 0)
(5.53473 -0.86346 0)
(5.35735 0.75452 0)
(5.50095 -0.913781 0)
(5.29312 0.892894 0)
(5.49372 -0.979868 0)
(5.24328 1.02347 0)
(5.50719 -1.06157 0)
(5.1999 1.15743 0)
(5.54229 -1.1639 0)
(5.15881 1.29539 0)
(5.59685 -1.27269 0)
(5.12074 1.44591 0)
(5.6761 -1.39858 0)
(5.08494 1.61444 0)
(5.78404 -1.52297 0)
(5.05477 1.80504 0)
(5.92078 -1.64311 0)
(5.03843 2.02262 0)
(6.08788 -1.73737 0)
(5.0551 2.26916 0)
(6.27423 -1.81403 0)
(5.13261 2.55877 0)
(6.46228 -1.86571 0)
(5.32398 2.93754 0)
(6.6304 -1.90236 0)
(5.67707 3.44106 0)
(6.7838 -1.87351 0)
(6.24135 4.10094 0)
(7.03695 -1.58859 0)
(6.97869 4.87485 0)
(7.59372 -0.70041 0)
(7.89505 5.30332 0)
(8.54894 0.96318 0)
(9.98301 4.96508 0)
(12.725 -0.333175 0)
(12.7143 -0.404714 0)
(12.7277 -0.491775 0)
(12.702 -0.586018 0)
(12.6397 -0.688732 0)
(12.5416 -0.801676 0)
(12.4269 -0.919424 0)
(12.3088 -1.04297 0)
(12.1862 -1.16748 0)
(12.0465 -1.28481 0)
(11.8869 -1.39057 0)
(11.7038 -1.47947 0)
(11.4988 -1.55036 0)
(11.2572 -1.60074 0)
(10.9735 -1.62308 0)
(10.637 -1.61491 0)
(10.2337 -1.5668 0)
(9.75877 -1.47325 0)
(9.21133 -1.33767 0)
(8.63067 -1.1781 0)
(8.05251 -1.00672 0)
(7.5097 -0.847085 0)
(6.99447 -0.730734 0)
(6.4848 -0.630534 0)
(6.04399 -0.524705 0)
(5.61079 -0.453476 0)
(5.18414 -0.417618 0)
(4.83426 -0.383848 0)
(4.49715 -0.36216 0)
(4.22517 -0.331627 0)
(3.96652 -0.299311 0)
(3.76066 -0.257329 0)
(3.5802 -0.208663 0)
(3.43808 -0.158331 0)
(3.32142 -0.101686 0)
(3.23629 -0.0396041 0)
(3.17178 0.00937794 0)
(3.14994 0.0274435 0)
(3.14335 0.0133537 0)
(3.20951 0.0838409 0)
(3.17486 0.0890031 0)
(3.3831 0.310754 0)
(3.35751 0.281673 0)
(3.6459 0.635067 0)
(3.7102 0.536348 0)
(4.08901 0.901146 0)
(4.02655 0.500101 0)
(4.55959 1.23662 0)
(4.46857 0.556297 0)
(4.88546 1.25859 0)
(4.92696 0.497584 0)
(5.26934 1.24674 0)
(5.29304 0.425136 0)
(5.54299 1.07596 0)
(5.52673 0.206456 0)
(5.69845 0.806721 0)
(5.64141 -0.112596 0)
(5.75816 0.581654 0)
(5.67863 -0.365725 0)
(5.75645 0.454208 0)
(5.65642 -0.549744 0)
(5.70086 0.420907 0)
(5.5967 -0.679414 0)
(5.60446 0.47397 0)
(5.51259 -0.749942 0)
(5.50069 0.589079 0)
(5.441 -0.7968 0)
(5.41706 0.722868 0)
(5.39932 -0.853731 0)
(5.35622 0.858462 0)
(5.38362 -0.926749 0)
(5.3095 0.989047 0)
(5.38642 -1.01317 0)
(5.26854 1.12618 0)
(5.40673 -1.11655 0)
(5.23015 1.27533 0)
(5.44183 -1.227 0)
(5.1952 1.44029 0)
(5.49772 -1.35466 0)
(5.16164 1.62752 0)
(5.57771 -1.49528 0)
(5.13507 1.82792 0)
(5.685 -1.65267 0)
(5.12447 2.06086 0)
(5.82079 -1.80859 0)
(5.14847 2.3397 0)
(5.98643 -1.95951 0)
(5.23328 2.68239 0)
(6.17591 -2.06805 0)
(5.43553 3.09839 0)
(6.40275 -2.11268 0)
(5.81351 3.56685 0)
(6.68375 -2.02889 0)
(6.40343 4.11884 0)
(7.06815 -1.60133 0)
(7.15199 4.61835 0)
(7.66817 -0.639767 0)
(8.0883 4.6365 0)
(8.66911 1.02722 0)
(9.65403 4.04183 0)
(12.7119 -0.311885 0)
(12.6962 -0.363466 0)
(12.7003 -0.438256 0)
(12.6646 -0.528863 0)
(12.591 -0.633403 0)
(12.4845 -0.749431 0)
(12.3605 -0.868828 0)
(12.2243 -0.987922 0)
(12.0715 -1.10546 0)
(11.8924 -1.21337 0)
(11.687 -1.30944 0)
(11.4507 -1.38585 0)
(11.179 -1.44212 0)
(10.855 -1.47404 0)
(10.4779 -1.47503 0)
(10.0332 -1.43897 0)
(9.52282 -1.36119 0)
(8.95188 -1.24171 0)
(8.3517 -1.09408 0)
(7.7589 -0.935416 0)
(7.18048 -0.772294 0)
(6.64741 -0.629131 0)
(6.14332 -0.53107 0)
(5.67926 -0.445056 0)
(5.31322 -0.348814 0)
(4.93092 -0.285374 0)
(4.54464 -0.269107 0)
(4.24188 -0.252605 0)
(3.94409 -0.25039 0)
(3.71029 -0.236423 0)
(3.48574 -0.220791 0)
(3.31624 -0.189174 0)
(3.16407 -0.15147 0)
(3.04975 -0.110621 0)
(2.95512 -0.0626565 0)
(2.89336 -0.0109063 0)
(2.85364 0.0259479 0)
(2.85178 0.028148 0)
(2.86803 0.0107717 0)
(2.92882 0.0596026 0)
(2.92231 0.0679086 0)
(3.12133 0.257025 0)
(3.09248 0.229954 0)
(3.42495 0.552708 0)
(3.4026 0.444122 0)
(3.93514 0.805474 0)
(3.69438 0.413595 0)
(4.4039 1.142 0)
(4.11661 0.416134 0)
(4.79695 1.22172 0)
(4.667 0.399298 0)
(5.17117 1.20352 0)
(5.07001 0.337742 0)
(5.49323 1.02562 0)
(5.38159 0.174402 0)
(5.6775 0.759008 0)
(5.5419 -0.103433 0)
(5.77427 0.542601 0)
(5.60022 -0.332448 0)
(5.78226 0.422151 0)
(5.59102 -0.50251 0)
(5.73148 0.392373 0)
(5.53351 -0.619416 0)
(5.63754 0.445654 0)
(5.45145 -0.683491 0)
(5.53884 0.553817 0)
(5.38274 -0.728768 0)
(5.46056 0.67864 0)
(5.3415 -0.785008 0)
(5.4002 0.808835 0)
(5.32528 -0.857317 0)
(5.35347 0.938882 0)
(5.32738 -0.944425 0)
(5.31244 1.08031 0)
(5.34851 -1.05258 0)
(5.27444 1.23448 0)
(5.38564 -1.17215 0)
(5.24044 1.40454 0)
(5.44337 -1.31221 0)
(5.20922 1.59805 0)
(5.52329 -1.45833 0)
(5.18844 1.81883 0)