/*--------------------------------*- C++ -*----------------------------------*\
| =========                 |                                                 |
| \\      /  F ield         | OpenFOAM: The Open Source CFD Toolbox           |
|  \\    /   O peration     | Version:  2.4.0                                 |
|   \\  /    A nd           | Web:      www.OpenFOAM.org                      |
|    \\/     M anipulation  |                                                 |
\*---------------------------------------------------------------------------*/
FoamFile
{
    version     2.0;
    format      ascii;
    class       volScalarField;
    location    "0.121";
    object      pPrime2Mean;
}
// * * * * * * * * * * * * * * * * * * * * * * * * * * * * * * * * * * * * * //

dimensions      [0 4 -4 0 0 0 0];

internalField   nonuniform List<scalar> 
4400
(
5.26457e+06
4.99376e+06
4.71161e+06
4.43684e+06
4.17027e+06
3.91187e+06
3.66146e+06
3.41845e+06
3.18086e+06
2.93949e+06
5.26469e+06
4.99376e+06
4.71161e+06
4.43684e+06
4.17027e+06
3.91187e+06
3.66147e+06
3.4185e+06
3.18103e+06
2.94038e+06
5.26476e+06
4.99374e+06
4.7116e+06
4.43684e+06
4.17027e+06
3.91188e+06
3.6615e+06
3.4186e+06
3.18137e+06
2.94239e+06
5.26481e+06
4.99372e+06
4.71159e+06
4.43684e+06
4.17028e+06
3.9119e+06
3.66155e+06
3.41874e+06
3.18187e+06
2.94501e+06
5.26484e+06
4.99369e+06
4.71158e+06
4.43684e+06
4.17028e+06
3.91191e+06
3.6616e+06
3.41892e+06
3.18251e+06
2.94797e+06
5.26487e+06
4.99368e+06
4.71158e+06
4.43684e+06
4.17028e+06
3.91193e+06
3.66166e+06
3.41914e+06
3.18324e+06
2.95106e+06
5.26489e+06
4.99366e+06
4.71157e+06
4.43684e+06
4.17029e+06
3.91195e+06
3.66174e+06
3.41938e+06
3.18406e+06
2.95416e+06
5.26491e+06
4.99365e+06
4.71156e+06
4.43684e+06
4.17029e+06
3.91197e+06
3.66182e+06
3.41964e+06
3.18492e+06
2.95719e+06
5.26493e+06
4.99365e+06
4.71156e+06
4.43684e+06
4.1703e+06
3.912e+06
3.6619e+06
3.41991e+06
3.18581e+06
2.96009e+06
5.26493e+06
4.99364e+06
4.71156e+06
4.43685e+06
4.17031e+06
3.91203e+06
3.66199e+06
3.42019e+06
3.18669e+06
2.96281e+06
5.26493e+06
4.99364e+06
4.71156e+06
4.43685e+06
4.17032e+06
3.91206e+06
3.66208e+06
3.42047e+06
3.18755e+06
2.96534e+06
5.26493e+06
4.99365e+06
4.71156e+06
4.43685e+06
4.17033e+06
3.91209e+06
3.66217e+06
3.42074e+06
3.18837e+06
2.96764e+06
5.26492e+06
4.99365e+06
4.71157e+06
4.43686e+06
4.17034e+06
3.91211e+06
3.66225e+06
3.421e+06
3.18913e+06
2.9697e+06
5.2649e+06
4.99366e+06
4.71158e+06
4.43686e+06
4.17035e+06
3.91214e+06
3.66233e+06
3.42123e+06
3.18983e+06
2.97153e+06
5.26487e+06
4.99368e+06
4.71158e+06
4.43686e+06
4.17036e+06
3.91217e+06
3.6624e+06
3.42145e+06
3.19045e+06
2.97309e+06
5.26484e+06
4.9937e+06
4.71159e+06
4.43687e+06
4.17037e+06
3.91219e+06
3.66247e+06
3.42163e+06
3.19097e+06
2.97441e+06
5.26481e+06
4.99372e+06
4.71161e+06
4.43687e+06
4.17038e+06
3.91221e+06
3.66252e+06
3.42178e+06
3.1914e+06
2.97546e+06
5.26476e+06
4.99374e+06
4.71162e+06
4.43688e+06
4.17038e+06
3.91222e+06
3.66256e+06
3.4219e+06
3.19173e+06
2.97625e+06
5.26469e+06
4.99376e+06
4.71162e+06
4.43688e+06
4.17039e+06
3.91223e+06
3.66259e+06
3.42198e+06
3.19195e+06
2.97677e+06
5.26458e+06
4.99377e+06
4.71163e+06
4.43688e+06
4.17039e+06
3.91224e+06
3.6626e+06
3.42202e+06
3.19206e+06
2.97703e+06
2.73284e+06
2.68497e+06
2.6467e+06
2.6116e+06
2.57809e+06
2.5456e+06
2.5138e+06
2.48254e+06
2.45167e+06
2.42114e+06
2.39089e+06
2.3609e+06
2.33116e+06
2.30162e+06
2.2723e+06
2.24322e+06
2.21436e+06
2.1857e+06
2.15723e+06
2.12894e+06
2.10084e+06
2.07292e+06
2.04518e+06
2.01763e+06
1.99026e+06
1.96308e+06
1.9361e+06
1.9093e+06
1.88269e+06
1.85628e+06
1.83006e+06
1.80403e+06
1.77821e+06
1.75258e+06
1.72716e+06
1.70192e+06
1.67688e+06
1.65203e+06
1.62737e+06
1.60289e+06
1.57856e+06
1.5544e+06
1.5304e+06
1.50657e+06
1.48293e+06
1.45948e+06
1.43622e+06
1.41317e+06
1.39031e+06
1.36764e+06
1.34517e+06
1.32289e+06
1.30079e+06
1.27888e+06
1.25715e+06
1.23561e+06
1.21425e+06
1.19307e+06
1.17206e+06
1.15125e+06
1.1306e+06
1.11014e+06
1.08987e+06
1.06979e+06
1.0499e+06
1.03022e+06
1.01073e+06
991441
972330
953421
934680
916143
897773
879604
861598
843785
826137
808681
791390
774297
757370
740649
724092
707747
691558
675580
659744
644114
628616
613311
598123
583104
568168
553356
538553
523772
508813
493596
477511
459368
2.75495e+06
2.70096e+06
2.65832e+06
2.62048e+06
2.58508e+06
2.55118e+06
2.51831e+06
2.48618e+06
2.45463e+06
2.42353e+06
2.39284e+06
2.36248e+06
2.33244e+06
2.30266e+06
2.27314e+06
2.24389e+06
2.21489e+06
2.18612e+06
2.15756e+06
2.1292e+06
2.10104e+06
2.07308e+06
2.0453e+06
2.01772e+06
1.99034e+06
1.96315e+06
1.93616e+06
1.90936e+06
1.88275e+06
1.85634e+06
1.83013e+06
1.80411e+06
1.77829e+06
1.75267e+06
1.72725e+06
1.70201e+06
1.67697e+06
1.65211e+06
1.62745e+06
1.60297e+06
1.57864e+06
1.55447e+06
1.53046e+06
1.50662e+06
1.48296e+06
1.4595e+06
1.43623e+06
1.41317e+06
1.3903e+06
1.36763e+06
1.34515e+06
1.32287e+06
1.30077e+06
1.27886e+06
1.25713e+06
1.23559e+06
1.21422e+06
1.19305e+06
1.17204e+06
1.15123e+06
1.13059e+06
1.11014e+06
1.08987e+06
1.06979e+06
1.04991e+06
1.03023e+06
1.01074e+06
991447
972334
953423
934677
916134
897756
879581
861560
843734
826064
808589
791269
774146
757178
740415
723804
707405
691142
675087
659149
643409
627767
612302
596910
581657
566426
551265
536014
520682
504977
488751
471106
450107
2.77179e+06
2.71502e+06
2.66922e+06
2.62901e+06
2.59187e+06
2.55664e+06
2.52272e+06
2.48976e+06
2.45754e+06
2.4259e+06
2.39476e+06
2.36404e+06
2.3337e+06
2.30368e+06
2.27397e+06
2.24455e+06
2.21542e+06
2.18653e+06
2.15788e+06
2.12945e+06
2.10124e+06
2.07323e+06
2.04543e+06
2.01782e+06
1.99042e+06
1.96322e+06
1.93622e+06
1.90942e+06
1.88282e+06
1.85641e+06
1.83021e+06
1.8042e+06
1.77838e+06
1.75276e+06
1.72733e+06
1.70209e+06
1.67704e+06
1.65219e+06
1.62752e+06
1.60304e+06
1.5787e+06
1.55453e+06
1.53051e+06
1.50667e+06
1.48299e+06
1.45951e+06
1.43623e+06
1.41316e+06
1.39028e+06
1.36761e+06
1.34513e+06
1.32284e+06
1.30074e+06
1.27883e+06
1.2571e+06
1.23556e+06
1.21419e+06
1.19303e+06
1.17202e+06
1.15121e+06
1.13057e+06
1.11013e+06
1.08986e+06
1.06979e+06
1.04991e+06
1.03023e+06
1.01074e+06
991449
972333
953419
934669
916122
897735
879554
861517
843681
825989
808496
791147
773996
756988
740184
723519
707066
690730
674599
658562
642712
626930
611308
595717
580236
564720
549224
533551
517703
501324
484228
465425
443122
2.78516e+06
2.72728e+06
2.67928e+06
2.63709e+06
2.59838e+06
2.56191e+06
2.527e+06
2.49324e+06
2.46037e+06
2.42821e+06
2.39663e+06
2.36556e+06
2.33493e+06
2.30468e+06
2.27477e+06
2.24519e+06
2.21593e+06
2.18694e+06
2.1582e+06
2.1297e+06
2.10143e+06
2.07338e+06
2.04554e+06
2.01792e+06
1.9905e+06
1.9633e+06
1.93629e+06
1.90949e+06
1.88289e+06
1.85649e+06
1.83029e+06
1.80428e+06
1.77847e+06
1.75284e+06
1.72741e+06
1.70216e+06
1.67711e+06
1.65225e+06
1.62758e+06
1.60311e+06
1.57876e+06
1.55459e+06
1.53055e+06
1.5067e+06
1.483e+06
1.45952e+06
1.43622e+06
1.41314e+06
1.39026e+06
1.36758e+06
1.34509e+06
1.3228e+06
1.3007e+06
1.27879e+06
1.25706e+06
1.23553e+06
1.21416e+06
1.193e+06
1.17199e+06
1.15119e+06
1.13055e+06
1.11011e+06
1.08985e+06
1.06978e+06
1.04991e+06
1.03023e+06
1.01074e+06
991445
972326
953410
934654
916104
897709
879524
861470
843625
825909
808403
791022
773848
756799
739957
723239
706731
690327
674120
657986
642030
626112
610338
594553
578853
563062
547247
531181
514858
497897
480079
460490
437718
2.79607e+06
2.73792e+06
2.68842e+06
2.64465e+06
2.60457e+06
2.56696e+06
2.53113e+06
2.49661e+06
2.46312e+06
2.43045e+06
2.39845e+06
2.36704e+06
2.33613e+06
2.30565e+06
2.27556e+06
2.24582e+06
2.21642e+06
2.18733e+06
2.15851e+06
2.12994e+06
2.10162e+06
2.07353e+06
2.04567e+06
2.01802e+06
1.99059e+06
1.96338e+06
1.93637e+06
1.90957e+06
1.88297e+06
1.85657e+06
1.83037e+06
1.80436e+06
1.77855e+06
1.75292e+06
1.72748e+06
1.70222e+06
1.67716e+06
1.65229e+06
1.62764e+06
1.60316e+06
1.57881e+06
1.55464e+06
1.53059e+06
1.50672e+06
1.48301e+06
1.4595e+06
1.4362e+06
1.41311e+06
1.39022e+06
1.36754e+06
1.34504e+06
1.32276e+06
1.30065e+06
1.27875e+06
1.25701e+06
1.23548e+06
1.21411e+06
1.19296e+06
1.17195e+06
1.15116e+06
1.13052e+06
1.11009e+06
1.08983e+06
1.06977e+06
1.0499e+06
1.03022e+06
1.01073e+06
991436
972313
953395
934632
916082
897677
879489
861417
843566
825824
808310
790894
773704
756611
739734
722964
706403
689933
673652
657428
641367
625321
609399
593430
577521
561468
545354
528917
512166
494707
476309
456240
433393
2.80518e+06
2.74717e+06
2.69668e+06
2.65165e+06
2.61039e+06
2.57177e+06
2.53507e+06
2.49984e+06
2.46576e+06
2.43261e+06
2.40022e+06
2.36847e+06
2.33729e+06
2.30659e+06
2.27632e+06
2.24643e+06
2.21691e+06
2.18771e+06
2.15881e+06
2.13018e+06
2.10181e+06
2.07368e+06
2.04579e+06
2.01813e+06
1.99068e+06
1.96346e+06
1.93645e+06
1.90965e+06
1.88304e+06
1.85665e+06
1.83044e+06
1.80444e+06
1.77862e+06
1.75298e+06
1.72753e+06
1.70226e+06
1.6772e+06
1.65233e+06
1.62768e+06
1.6032e+06
1.57886e+06
1.55468e+06
1.53061e+06
1.50673e+06
1.483e+06
1.45948e+06
1.43616e+06
1.41307e+06
1.39017e+06
1.36749e+06
1.34498e+06
1.3227e+06
1.30059e+06
1.2787e+06
1.25696e+06
1.23544e+06
1.21406e+06
1.19292e+06
1.17191e+06
1.15114e+06
1.13049e+06
1.11007e+06
1.08981e+06
1.06976e+06
1.04988e+06
1.03021e+06
1.01071e+06
991423
972296
953377
934606
916057
897641
879451
861360
843505
825735
808216
790764
773563
756424
739518
722697
706085
689551
673196
656888
640722
624557
608489
592352
576243
559949
543560
526785
509661
491777
472924
452544
429813
2.81288e+06
2.75522e+06
2.7041e+06
2.65808e+06
2.61582e+06
2.57629e+06
2.53881e+06
2.50292e+06
2.46829e+06
2.43468e+06
2.40191e+06
2.36986e+06
2.33842e+06
2.3075e+06
2.27706e+06
2.24703e+06
2.21739e+06
2.18809e+06
2.15911e+06
2.13042e+06
2.102e+06
2.07384e+06
2.04592e+06
2.01823e+06
1.99078e+06
1.96355e+06
1.93653e+06
1.90972e+06
1.88311e+06
1.85671e+06
1.83051e+06
1.8045e+06
1.77867e+06
1.75303e+06
1.72756e+06
1.70229e+06
1.67722e+06
1.65235e+06
1.62771e+06
1.60322e+06
1.57888e+06
1.5547e+06
1.53062e+06
1.50673e+06
1.48298e+06
1.45945e+06
1.43613e+06
1.41303e+06
1.39011e+06
1.36743e+06
1.34492e+06
1.32265e+06
1.30053e+06
1.27864e+06
1.2569e+06
1.23539e+06
1.21401e+06
1.19288e+06
1.17187e+06
1.15111e+06
1.13045e+06
1.11005e+06
1.08978e+06
1.06974e+06
1.04986e+06
1.03019e+06
1.01069e+06
991406
972272
953356
934576
916030
897601
879410
861300
843442
825646
808121
790636
773425
756240
739311
722438
705777
689185
672756
656368
640099
623824
607613
591321
575016
558507
541857
524795
507342
489110
469915
449322
426799
2.81947e+06
2.76223e+06
2.71072e+06
2.66395e+06
2.62084e+06
2.58052e+06
2.54233e+06
2.50584e+06
2.4707e+06
2.43666e+06
2.40354e+06
2.37118e+06
2.3395e+06
2.30838e+06
2.27777e+06
2.24761e+06
2.21785e+06
2.18846e+06
2.15941e+06
2.13066e+06
2.10219e+06
2.07399e+06
2.04605e+06
2.01834e+06
1.99087e+06
1.96363e+06
1.9366e+06
1.90978e+06
1.88318e+06
1.85677e+06
1.83057e+06
1.80455e+06
1.77871e+06
1.75306e+06
1.72758e+06
1.7023e+06
1.67722e+06
1.65236e+06
1.62772e+06
1.60323e+06
1.5789e+06
1.5547e+06
1.53061e+06
1.50672e+06
1.48295e+06
1.45941e+06
1.43608e+06
1.41298e+06
1.39006e+06
1.36737e+06
1.34486e+06
1.32259e+06
1.30047e+06
1.27858e+06
1.25684e+06
1.23533e+06
1.21396e+06
1.19284e+06
1.17182e+06
1.15108e+06
1.13042e+06
1.11003e+06
1.08975e+06
1.06972e+06
1.04983e+06
1.03017e+06
1.01067e+06
991384
972244
953331
934543
915998
897558
879365
861240
843378
825557
808025
790511
773289
756064
739112
722190
705484
688836
672337
655875
639509
623128
606782
590344
573854
557150
540252
522944
505185
486678
467220
446510
424235
2.82518e+06
2.76836e+06
2.71662e+06
2.66926e+06
2.62545e+06
2.58443e+06
2.54562e+06
2.50858e+06
2.47297e+06
2.43853e+06
2.40507e+06
2.37245e+06
2.34053e+06
2.30923e+06
2.27846e+06
2.24817e+06
2.2183e+06
2.18882e+06
2.1597e+06
2.13089e+06
2.10238e+06
2.07415e+06
2.04617e+06
2.01845e+06
1.99096e+06
1.9637e+06
1.93666e+06
1.90984e+06
1.88323e+06
1.85682e+06
1.83061e+06
1.80458e+06
1.77874e+06
1.75307e+06
1.72759e+06
1.7023e+06
1.67722e+06
1.65235e+06
1.62772e+06
1.60322e+06
1.57889e+06
1.55468e+06
1.5306e+06
1.50669e+06
1.48291e+06
1.45937e+06
1.43604e+06
1.41293e+06
1.39e+06
1.36731e+06
1.3448e+06
1.32253e+06
1.30041e+06
1.27852e+06
1.25678e+06
1.23528e+06
1.2139e+06
1.19279e+06
1.17177e+06
1.15104e+06
1.13038e+06
1.11e+06
1.08971e+06
1.0697e+06
1.0498e+06
1.03015e+06
1.01064e+06
991357
972211
953301
934506
915961
897511
879316
861179
843311
825470
807930
790390
773151
755896
738919
721954
705204
688506
671941
655411
638953
622474
606002
589427
572765
555884
538757
521233
503196
484466
464803
444057
422023
2.83013e+06
2.77371e+06
2.72183e+06
2.67403e+06
2.62964e+06
2.58803e+06
2.54866e+06
2.51112e+06
2.47508e+06
2.44028e+06
2.40652e+06
2.37363e+06
2.3415e+06
2.31002e+06
2.27911e+06
2.24869e+06
2.21873e+06
2.18917e+06
2.15998e+06
2.13112e+06
2.10257e+06
2.0743e+06
2.04629e+06
2.01854e+06
1.99104e+06
1.96377e+06
1.93672e+06
1.90988e+06
1.88327e+06
1.85685e+06
1.83063e+06
1.8046e+06
1.77875e+06
1.75307e+06
1.72758e+06
1.70228e+06
1.6772e+06
1.65233e+06
1.6277e+06
1.6032e+06
1.57887e+06
1.55465e+06
1.53057e+06
1.50665e+06
1.48287e+06
1.45932e+06
1.43599e+06
1.41288e+06
1.38994e+06
1.36726e+06
1.34474e+06
1.32247e+06
1.30035e+06
1.27846e+06
1.25672e+06
1.23522e+06
1.21385e+06
1.19274e+06
1.17173e+06
1.15101e+06
1.13034e+06
1.10998e+06
1.08968e+06
1.06967e+06
1.04977e+06
1.03012e+06
1.0106e+06
991325
972173
953265
934465
915917
897461
879259
861117
843238
825385
807833
790275
773013
755737
738728
721732
704939
688198
671570
654978
638433
621863
605272
588575
571752
554709
537375
519651
501380
482463
462649
441916
420091
2.83444e+06
2.77837e+06
2.72643e+06
2.67828e+06
2.63342e+06
2.59129e+06
2.55144e+06
2.51346e+06
2.47703e+06
2.4419e+06
2.40786e+06
2.37474e+06
2.34241e+06
2.31076e+06
2.27971e+06
2.24919e+06
2.21913e+06
2.1895e+06
2.16024e+06
2.13133e+06
2.10274e+06
2.07443e+06
2.0464e+06
2.01863e+06
1.99111e+06
1.96382e+06
1.93676e+06
1.90992e+06
1.88329e+06
1.85687e+06
1.83064e+06
1.8046e+06
1.77874e+06
1.75305e+06
1.72756e+06
1.70226e+06
1.67717e+06
1.6523e+06
1.62766e+06
1.60316e+06
1.57883e+06
1.5546e+06
1.53053e+06
1.5066e+06
1.48282e+06
1.45927e+06
1.43594e+06
1.41282e+06
1.38989e+06
1.3672e+06
1.34469e+06
1.32241e+06
1.3003e+06
1.27841e+06
1.25667e+06
1.23517e+06
1.2138e+06
1.19268e+06
1.17168e+06
1.15096e+06
1.1303e+06
1.10994e+06
1.08964e+06
1.06964e+06
1.04973e+06
1.03009e+06
1.01056e+06
991288
972133
953223
934420
915865
897408
879193
861054
843158
825302
807730
790163
772874
755585
738540
721523
704688
687910
671223
654574
637946
621297
604594
587786
570815
553624
536105
518203
499735
480669
460752
440047
418403
2.83818e+06
2.78242e+06
2.73044e+06
2.68203e+06
2.63678e+06
2.59423e+06
2.55395e+06
2.51558e+06
2.47881e+06
2.44338e+06
2.40908e+06
2.37575e+06
2.34324e+06
2.31145e+06
2.28028e+06
2.24965e+06
2.21951e+06
2.1898e+06
2.16049e+06
2.13153e+06
2.1029e+06
2.07455e+06
2.04649e+06
2.0187e+06
1.99117e+06
1.96386e+06
1.93679e+06
1.90994e+06
1.8833e+06
1.85687e+06
1.83063e+06
1.80458e+06
1.77871e+06
1.75302e+06
1.72752e+06
1.70222e+06
1.67714e+06
1.65225e+06
1.6276e+06
1.6031e+06
1.57878e+06
1.55454e+06
1.53048e+06
1.50654e+06
1.48278e+06
1.45922e+06
1.4359e+06
1.41277e+06
1.38984e+06
1.36714e+06
1.34464e+06
1.32235e+06
1.30025e+06
1.27835e+06
1.25663e+06
1.23511e+06
1.21376e+06
1.19263e+06
1.17164e+06
1.15091e+06
1.13026e+06
1.1099e+06
1.0896e+06
1.0696e+06
1.04969e+06
1.03005e+06
1.01052e+06
991245
972088
953172
934371
915803
897351
879117
860987
843068
825220
807619
790053
772733
755438
738359
721328
704453
687641
670898
654196
637493
620770
603967
587057
569953
552628
534946
516892
498262
479079
459098
438421
416941
2.84141e+06
2.78591e+06
2.73392e+06
2.68531e+06
2.63974e+06
2.59683e+06
2.55619e+06
2.51748e+06
2.4804e+06
2.44471e+06
2.41019e+06
2.37666e+06
2.344e+06
2.31207e+06
2.28079e+06
2.25007e+06
2.21985e+06
2.19008e+06
2.16071e+06
2.13171e+06
2.10304e+06
2.07466e+06
2.04658e+06
2.01877e+06
1.99122e+06
1.96389e+06
1.9368e+06
1.90994e+06
1.8833e+06
1.85686e+06
1.83061e+06
1.80455e+06
1.77868e+06
1.75298e+06
1.72748e+06
1.70218e+06
1.67709e+06
1.6522e+06
1.62753e+06
1.60303e+06
1.57871e+06
1.55447e+06
1.53042e+06
1.50647e+06
1.48272e+06
1.45916e+06
1.43585e+06
1.4127e+06
1.38978e+06
1.36708e+06
1.34459e+06
1.3223e+06
1.3002e+06
1.2783e+06
1.25658e+06
1.23506e+06
1.21371e+06
1.19257e+06
1.17159e+06
1.15084e+06
1.13022e+06
1.10984e+06
1.08957e+06
1.06955e+06
1.04965e+06
1.03e+06
1.01048e+06
991193
972041
953111
934318
915731
897290
879032
860919
842970
825138
807502
789946
772592
755301
738189
721151
704235
687392
670595
653846
637073
620287
603389
586391
569166
551726
533901
515721
496963
477687
457669
437021
415686
2.84417e+06
2.78888e+06
2.7369e+06
2.68813e+06
2.6423e+06
2.59909e+06
2.55815e+06
2.51915e+06
2.48181e+06
2.44589e+06
2.41117e+06
2.37748e+06
2.34467e+06
2.31263e+06
2.28125e+06
2.25045e+06
2.22016e+06
2.19033e+06
2.16091e+06
2.13187e+06
2.10316e+06
2.07476e+06
2.04664e+06
2.01882e+06
1.99125e+06
1.96391e+06
1.93681e+06
1.90994e+06
1.88328e+06
1.85683e+06
1.83058e+06
1.80451e+06
1.77863e+06
1.75293e+06
1.72743e+06
1.70214e+06
1.67704e+06
1.65214e+06
1.62745e+06
1.60295e+06
1.57862e+06
1.55439e+06
1.53035e+06
1.5064e+06
1.48266e+06
1.4591e+06
1.4358e+06
1.41263e+06
1.38973e+06
1.36702e+06
1.34455e+06
1.32224e+06
1.30016e+06
1.27824e+06
1.25653e+06
1.235e+06
1.21366e+06
1.19251e+06
1.17155e+06
1.15078e+06
1.13017e+06
1.10978e+06
1.08953e+06
1.0695e+06
1.04961e+06
1.02995e+06
1.01044e+06
991136
971991
953046
934262
915656
897226
878944
860849
842870
825060
807386
789849
772458
755181
738033
720992
704032
687166
670313
653530
636690
619851
602866
585794
568460
550926
532982
514697
495841
476490
456452
435832
414619
2.84648e+06
2.79138e+06
2.7394e+06
2.69051e+06
2.64448e+06
2.60102e+06
2.55983e+06
2.52059e+06
2.48303e+06
2.44691e+06
2.41202e+06
2.37819e+06
2.34526e+06
2.31311e+06
2.28165e+06
2.25077e+06
2.22043e+06
2.19055e+06
2.16109e+06
2.13201e+06
2.10327e+06
2.07484e+06
2.0467e+06
2.01886e+06
1.99128e+06
1.96393e+06
1.93681e+06
1.90992e+06
1.88326e+06
1.8568e+06
1.83053e+06
1.80446e+06
1.77857e+06
1.75287e+06
1.72738e+06
1.70208e+06
1.67698e+06
1.65207e+06
1.62737e+06
1.60286e+06
1.57853e+06
1.55431e+06
1.53027e+06
1.50632e+06
1.4826e+06
1.45903e+06
1.43574e+06
1.41257e+06
1.38968e+06
1.36696e+06
1.3445e+06
1.32218e+06
1.30011e+06
1.27818e+06
1.25649e+06
1.23495e+06
1.21362e+06
1.19245e+06
1.1715e+06
1.15071e+06
1.13013e+06
1.10971e+06
1.08949e+06
1.06944e+06
1.04958e+06
1.02989e+06
1.0104e+06
991078
971944
952981
934207
915582
897163
878861
860780
842778
824988
807283
789763
772340
755075
737891
720850
703842
686964
670059
653251
636350
619467
602406
585272
567849
550233
532197
513823
494893
475481
455432
434839
413722
2.84838e+06
2.79342e+06
2.74146e+06
2.69247e+06
2.64628e+06
2.60263e+06
2.56123e+06
2.52179e+06
2.48405e+06
2.44777e+06
2.41274e+06
2.37878e+06
2.34575e+06
2.31352e+06
2.28198e+06
2.25105e+06
2.22065e+06
2.19073e+06
2.16123e+06
2.13212e+06
2.10335e+06
2.0749e+06
2.04675e+06
2.01889e+06
1.99129e+06
1.96393e+06
1.9368e+06
1.9099e+06
1.88322e+06
1.85675e+06
1.83048e+06
1.8044e+06
1.77851e+06
1.75281e+06
1.72732e+06
1.70203e+06
1.67691e+06
1.65199e+06
1.62728e+06
1.60277e+06
1.57843e+06
1.55423e+06
1.53019e+06
1.50625e+06
1.48255e+06
1.45897e+06
1.43569e+06
1.41251e+06
1.38963e+06
1.36691e+06
1.34446e+06
1.32213e+06
1.30007e+06
1.27813e+06
1.25645e+06
1.2349e+06
1.21359e+06
1.19241e+06
1.17147e+06
1.15066e+06
1.13009e+06
1.10965e+06
1.08945e+06
1.06938e+06
1.04954e+06
1.02984e+06
1.01036e+06
991026
971903
952923
934157
915517
897104
878788
860713
842698
824921
807196
789688
772237
754984
737762
720726
703670
686789
669842
653013
636060
619140
602018
584830
567338
549654
531546
513100
494114
474653
454598
434028
412987
2.84988e+06
2.79503e+06
2.74308e+06
2.69402e+06
2.64772e+06
2.60392e+06
2.56236e+06
2.52276e+06
2.48488e+06
2.44847e+06
2.41332e+06
2.37927e+06
2.34616e+06
2.31386e+06
2.28226e+06
2.25128e+06
2.22084e+06
2.19088e+06
2.16135e+06
2.13221e+06
2.10342e+06
2.07495e+06
2.04679e+06
2.01891e+06
1.9913e+06
1.96392e+06
1.93678e+06
1.90988e+06
1.88319e+06
1.85671e+06
1.83042e+06
1.80434e+06
1.77844e+06
1.75275e+06
1.72726e+06
1.70197e+06
1.67685e+06
1.65192e+06
1.6272e+06
1.60268e+06
1.57834e+06
1.55415e+06
1.53011e+06
1.50618e+06
1.48249e+06
1.45891e+06
1.43565e+06
1.41246e+06
1.3896e+06
1.36686e+06
1.34443e+06
1.32209e+06
1.30004e+06
1.27809e+06
1.25642e+06
1.23486e+06
1.21356e+06
1.19237e+06
1.17144e+06
1.15062e+06
1.13006e+06
1.10961e+06
1.08942e+06
1.06934e+06
1.04951e+06
1.0298e+06
1.01033e+06
990983
971867
952876
934116
915464
897054
878728
860656
842631
824863
807121
789627
772147
754908
737648
720621
703529
686647
669665
652818
635825
618873
601705
584473
566928
549189
531028
512523
493496
473997
453940
433389
412404
2.85098e+06
2.79622e+06
2.74429e+06
2.69519e+06
2.64879e+06
2.60488e+06
2.5632e+06
2.52349e+06
2.4855e+06
2.44899e+06
2.41376e+06
2.37964e+06
2.34646e+06
2.31411e+06
2.28247e+06
2.25145e+06
2.22098e+06
2.19099e+06
2.16144e+06
2.13228e+06
2.10347e+06
2.07499e+06
2.04681e+06
2.01892e+06
1.9913e+06
1.96391e+06
1.93677e+06
1.90985e+06
1.88315e+06
1.85666e+06
1.83037e+06
1.80428e+06
1.77838e+06
1.75269e+06
1.72721e+06
1.70191e+06
1.67679e+06
1.65186e+06
1.62713e+06
1.6026e+06
1.57826e+06
1.55407e+06
1.53004e+06
1.50613e+06
1.48245e+06
1.45887e+06
1.43561e+06
1.41242e+06
1.38958e+06
1.36683e+06
1.3444e+06
1.32206e+06
1.30001e+06
1.27807e+06
1.2564e+06
1.23483e+06
1.21354e+06
1.19234e+06
1.17142e+06
1.1506e+06
1.13004e+06
1.10959e+06
1.0894e+06
1.06932e+06
1.04949e+06
1.02978e+06
1.01031e+06
990954
971843
952844
934087
915427
897021
878684
860616
842579
824821
807060
789580
772074
754847
737557
720537
703424
686539
669532
652670
635647
618671
601468
584204
566619
548841
530639
512092
493036
473508
453449
432915
411971
2.85171e+06
2.797e+06
2.74509e+06
2.69596e+06
2.64951e+06
2.60553e+06
2.56377e+06
2.52398e+06
2.48592e+06
2.44934e+06
2.41406e+06
2.37988e+06
2.34667e+06
2.31428e+06
2.28261e+06
2.25156e+06
2.22107e+06
2.19106e+06
2.16149e+06
2.13232e+06
2.1035e+06
2.07501e+06
2.04683e+06
2.01893e+06
1.99129e+06
1.9639e+06
1.93675e+06
1.90982e+06
1.88312e+06
1.85662e+06
1.83033e+06
1.80423e+06
1.77834e+06
1.75265e+06
1.72717e+06
1.70187e+06
1.67675e+06
1.65182e+06
1.62708e+06
1.60255e+06
1.5782e+06
1.55401e+06
1.52998e+06
1.50609e+06
1.48242e+06
1.45884e+06
1.43559e+06
1.4124e+06
1.38956e+06
1.36681e+06
1.34439e+06
1.32205e+06
1.3e+06
1.27805e+06
1.25639e+06
1.23482e+06
1.21353e+06
1.19233e+06
1.17141e+06
1.15058e+06
1.13003e+06
1.10958e+06
1.08939e+06
1.06931e+06
1.04948e+06
1.02976e+06
1.01029e+06
990939
971830
952826
934072
915406
897002
878658
860593
842546
824793
807021
789547
772027
754803
737499
720481
703357
686468
669444
652571
635530
618537
601311
584025
566414
548608
530381
511804
492730
473183
453124
432602
411684
2.85207e+06
2.79739e+06
2.74548e+06
2.69634e+06
2.64986e+06
2.60585e+06
2.56405e+06
2.52423e+06
2.48613e+06
2.44952e+06
2.41421e+06
2.38001e+06
2.34677e+06
2.31436e+06
2.28268e+06
2.25162e+06
2.22111e+06
2.1911e+06
2.16152e+06
2.13234e+06
2.10352e+06
2.07502e+06
2.04683e+06
2.01893e+06
1.99129e+06
1.9639e+06
1.93674e+06
1.90981e+06
1.8831e+06
1.85661e+06
1.83031e+06
1.80422e+06
1.77832e+06
1.75263e+06
1.72715e+06
1.70185e+06
1.67674e+06
1.65181e+06
1.62707e+06
1.60253e+06
1.57817e+06
1.55398e+06
1.52995e+06
1.50607e+06
1.4824e+06
1.45882e+06
1.43557e+06
1.41238e+06
1.38955e+06
1.3668e+06
1.34438e+06
1.32203e+06
1.29999e+06
1.27804e+06
1.25638e+06
1.23481e+06
1.21352e+06
1.19232e+06
1.1714e+06
1.15058e+06
1.13003e+06
1.10957e+06
1.08938e+06
1.0693e+06
1.04947e+06
1.02976e+06
1.01029e+06
990934
971825
952820
934067
915398
896995
878647
860583
842532
824781
807004
789533
772005
754783
737471
720456
703325
686435
669403
652524
635473
618473
601235
583938
566313
548493
530253
511661
492578
473023
452963
432447
411545
2.52333e+06
2.51957e+06
2.51223e+06
2.50157e+06
2.48789e+06
2.47158e+06
2.45303e+06
2.43259e+06
2.41062e+06
2.38738e+06
2.36311e+06
2.33801e+06
2.31227e+06
2.28604e+06
2.25943e+06
2.23255e+06
2.20547e+06
2.17828e+06
2.15103e+06
2.12376e+06
2.09649e+06
2.06925e+06
2.04207e+06
2.01497e+06
1.98797e+06
1.9611e+06
1.93437e+06
1.9078e+06
1.88136e+06
1.85506e+06
1.82889e+06
1.80287e+06
1.77701e+06
1.75134e+06
1.72586e+06
1.7006e+06
1.67553e+06
1.65067e+06
1.62601e+06
1.60154e+06
1.57725e+06
1.55316e+06
1.52924e+06
1.50551e+06
1.48196e+06
1.4586e+06
1.43541e+06
1.41241e+06
1.38958e+06
1.36696e+06
1.3445e+06
1.32225e+06
1.30017e+06
1.27828e+06
1.25658e+06
1.23507e+06
1.21373e+06
1.19259e+06
1.17163e+06
1.15085e+06
1.13025e+06
1.10983e+06
1.0896e+06
1.06956e+06
1.04972e+06
1.03008e+06
1.01064e+06
991391
972341
953488
934833
916379
898128
880082
862246
844625
827224
810049
793108
776413
759973
743804
727921
712345
697099
682211
667715
653651
640067
627021
614581
602829
591861
581790
572744
564863
558300
553203
549691
547887
2.52399e+06
2.52021e+06
2.51283e+06
2.50211e+06
2.48837e+06
2.472e+06
2.45338e+06
2.43289e+06
2.41087e+06
2.38759e+06
2.36329e+06
2.33817e+06
2.3124e+06
2.28614e+06
2.25952e+06
2.23263e+06
2.20554e+06
2.17833e+06
2.15108e+06
2.12381e+06
2.09654e+06
2.06929e+06
2.04211e+06
2.01501e+06
1.98801e+06
1.96114e+06
1.93441e+06
1.90783e+06
1.88139e+06
1.85509e+06
1.82891e+06
1.8029e+06
1.77703e+06
1.75136e+06
1.72588e+06
1.70061e+06
1.67555e+06
1.65069e+06
1.62602e+06
1.60155e+06
1.57726e+06
1.55316e+06
1.52924e+06
1.50552e+06
1.48197e+06
1.45861e+06
1.43541e+06
1.41241e+06
1.38958e+06
1.36696e+06
1.3445e+06
1.32225e+06
1.30017e+06
1.27829e+06
1.25658e+06
1.23507e+06
1.21374e+06
1.1926e+06
1.17163e+06
1.15085e+06
1.13025e+06
1.10983e+06
1.0896e+06
1.06956e+06
1.04972e+06
1.03008e+06
1.01064e+06
991389
972339
953486
934831
916376
898124
880078
862241
844619
827216
810039
793097
776399
759957
743784
727898
712317
697066
682171
667667
653593
639998
626938
614483
602713
591723
581627
572554
564645
558055
552935
549402
547588
2.52532e+06
2.5215e+06
2.51403e+06
2.50319e+06
2.48932e+06
2.47282e+06
2.45408e+06
2.43348e+06
2.41137e+06
2.38802e+06
2.36365e+06
2.33847e+06
2.31265e+06
2.28636e+06
2.25972e+06
2.23279e+06
2.20568e+06
2.17847e+06
2.1512e+06
2.12392e+06
2.09664e+06
2.06939e+06
2.0422e+06
2.0151e+06
1.9881e+06
1.96122e+06
1.93448e+06
1.90789e+06
1.88145e+06
1.85515e+06
1.82896e+06
1.80295e+06
1.77707e+06
1.75139e+06
1.72591e+06
1.70064e+06
1.67557e+06
1.65071e+06
1.62604e+06
1.60157e+06
1.57728e+06
1.55318e+06
1.52926e+06
1.50554e+06
1.48198e+06
1.45862e+06
1.43543e+06
1.41242e+06
1.3896e+06
1.36697e+06
1.34451e+06
1.32226e+06
1.30018e+06
1.2783e+06
1.25659e+06
1.23508e+06
1.21375e+06
1.19261e+06
1.17164e+06
1.15086e+06
1.13026e+06
1.10984e+06
1.0896e+06
1.06956e+06
1.04972e+06
1.03008e+06
1.01063e+06
991387
972336
953482
934826
916371
898117
880070
862231
844606
827201
810021
793075
776372
759925
743745
727851
712261
696999
682091
667571
653478
639860
626774
614287
602480
591447
581302
572173
564207
557563
552394
548823
546986
2.52733e+06
2.52343e+06
2.51582e+06
2.50481e+06
2.49074e+06
2.47405e+06
2.45513e+06
2.43437e+06
2.41212e+06
2.38865e+06
2.36419e+06
2.33893e+06
2.31305e+06
2.2867e+06
2.26e+06
2.23304e+06
2.2059e+06
2.17866e+06
2.15138e+06
2.12409e+06
2.09679e+06
2.06952e+06
2.04232e+06
2.01522e+06
1.98822e+06
1.96133e+06
1.93458e+06
1.90798e+06
1.88153e+06
1.85522e+06
1.82903e+06
1.803e+06
1.77713e+06
1.75143e+06
1.72594e+06
1.70067e+06
1.6756e+06
1.65074e+06
1.62608e+06
1.6016e+06
1.57731e+06
1.55321e+06
1.52929e+06
1.50556e+06
1.48201e+06
1.45865e+06
1.43545e+06
1.41244e+06
1.38962e+06
1.36699e+06
1.34453e+06
1.32228e+06
1.30019e+06
1.27831e+06
1.25661e+06
1.2351e+06
1.21377e+06
1.19263e+06
1.17166e+06
1.15088e+06
1.13027e+06
1.10985e+06
1.08961e+06
1.06956e+06
1.04972e+06
1.03008e+06
1.01063e+06
991384
972332
953477
934820
916363
898107
880057
862216
844588
827178
809994
793042
776333
759877
743688
727782
712179
696899
681972
667428
653307
639656
626529
613995
602132
591034
580814
571603
563549
556822
551577
547946
546074
2.53002e+06
2.52602e+06
2.51823e+06
2.50697e+06
2.49263e+06
2.47568e+06
2.45652e+06
2.43554e+06
2.41312e+06
2.3895e+06
2.36491e+06
2.33954e+06
2.31357e+06
2.28715e+06
2.26038e+06
2.23337e+06
2.20619e+06
2.17892e+06
2.15162e+06
2.1243e+06
2.09698e+06
2.06969e+06
2.04248e+06
2.01537e+06
1.98837e+06
1.96146e+06
1.93469e+06
1.90807e+06
1.88161e+06
1.85529e+06
1.82909e+06
1.80306e+06
1.77719e+06
1.75148e+06
1.72599e+06
1.70071e+06
1.67564e+06
1.65078e+06
1.62611e+06
1.60164e+06
1.57735e+06
1.55324e+06
1.52932e+06
1.5056e+06
1.48204e+06
1.45868e+06
1.43548e+06
1.41247e+06
1.38964e+06
1.36701e+06
1.34455e+06
1.3223e+06
1.30022e+06
1.27834e+06
1.25664e+06
1.23513e+06
1.2138e+06
1.19265e+06
1.17168e+06
1.1509e+06
1.13029e+06
1.10986e+06
1.08962e+06
1.06957e+06
1.04972e+06
1.03008e+06
1.01063e+06
991382
972329
953472
934812
916353
898094
880041
862196
844564
827149
809958
792999
776281
759814
743613
727692
712070
696768
681815
667240
653081
639385
626205
613608
601671
590487
580167
570845
562672
555831
550479
546765
544844
2.53343e+06
2.52929e+06
2.52125e+06
2.50966e+06
2.49498e+06
2.4777e+06
2.45824e+06
2.43701e+06
2.41436e+06
2.39055e+06
2.36581e+06
2.3403e+06
2.31421e+06
2.28769e+06
2.26085e+06
2.23376e+06
2.20653e+06
2.17922e+06
2.15188e+06
2.12454e+06
2.09719e+06
2.06988e+06
2.04265e+06
2.01554e+06
1.98852e+06
1.9616e+06
1.93481e+06
1.90817e+06
1.88169e+06
1.85537e+06
1.82917e+06
1.80313e+06
1.77725e+06
1.75154e+06
1.72604e+06
1.70076e+06
1.6757e+06
1.65083e+06
1.62616e+06
1.60169e+06
1.5774e+06
1.55328e+06
1.52936e+06
1.50563e+06
1.48208e+06
1.45871e+06
1.43552e+06
1.41251e+06
1.38967e+06
1.36705e+06
1.34458e+06
1.32233e+06
1.30025e+06
1.27837e+06
1.25667e+06
1.23516e+06
1.21383e+06
1.19268e+06
1.17171e+06
1.15093e+06
1.13031e+06
1.10988e+06
1.08964e+06
1.06958e+06
1.04973e+06
1.03008e+06
1.01063e+06
991379
972324
953466
934804
916342
898080
880023
862173
844535
827113
809915
792946
776217
759737
743519
727579
711935
696607
681620
667007
652802
639050
625804
613128
601099
589807
579363
569901
561579
554586
549095
545269
543287
2.53757e+06
2.53325e+06
2.52488e+06