/*--------------------------------*- C++ -*----------------------------------*\
| =========                 |                                                 |
| \\      /  F ield         | OpenFOAM: The Open Source CFD Toolbox           |
|  \\    /   O peration     | Version:  2.4.0                                 |
|   \\  /    A nd           | Web:      www.OpenFOAM.org                      |
|    \\/     M anipulation  |                                                 |
\*---------------------------------------------------------------------------*/
FoamFile
{
    version     2.0;
    format      ascii;
    class       volScalarField;
    location    "0.14";
    object      k_0;
}
// * * * * * * * * * * * * * * * * * * * * * * * * * * * * * * * * * * * * * //

dimensions      [0 2 -2 0 0 0 0];

internalField   nonuniform List<scalar> 
17600
(
0.776821
4.42322
7.45758
8.34838
8.12495
7.44224
6.53194
5.73379
5.1158
4.6207
4.26221
3.9608
3.74782
3.54563
3.40715
3.25546
3.15859
3.03648
2.96786
2.8632
2.816
2.72314
2.68809
2.60871
2.58269
2.51099
2.49313
2.42734
2.41566
2.35458
2.34887
2.28957
2.28909
2.23008
2.23164
2.16572
2.16299
2.08029
2.06654
1.92715
0.0131817
0.28995
1.04258
2.01713
2.68801
3.05299
3.20132
3.19569
3.16797
3.10126
3.04652
2.96463
2.91466
2.83194
2.78915
2.71197
2.67553
2.6042
2.57335
2.5095
2.48283
2.42607
2.4027
2.35113
2.33141
2.28458
2.26745
2.22492
2.2097
2.17014
2.15759
2.12156
2.11068
2.0783
2.06908
2.04083
2.03362
2.01268
1.99804
1.9719
9.56529e-05
0.00723254
0.0468897
0.145465
0.334104
0.520608
0.6895
0.799552
0.887904
0.937247
0.982234
1.00518
1.03491
1.05152
1.07772
1.09302
1.11492
1.13042
1.14595
1.16231
1.17299
1.18808
1.19719
1.21083
1.21698
1.2302
1.23452
1.24502
1.24782
1.25593
1.25709
1.26512
1.26537
1.27333
1.27349
1.28258
1.28532
1.30099
1.31456
1.31521
2.07556e-05
0.000144316
0.00136487
0.00613818
0.0183278
0.0428575
0.0766887
0.109051
0.139563
0.168572
0.189106
0.212327
0.226668
0.243385
0.254493
0.269602
0.278672
0.293544
0.300466
0.314486
0.321055
0.334449
0.341045
0.354464
0.360861
0.374738
0.381112
0.395032
0.401738
0.415826
0.422126
0.436477
0.442835
0.457469
0.464842
0.481304
0.489128
0.506488
0.512456
0.527482
2.02526e-05
2.26843e-05
5.16441e-05
0.000207088
0.00071056
0.00212163
0.00416883
0.00857079
0.0113172
0.0169982
0.0197925
0.025615
0.0283397
0.0338032
0.0363397
0.0414489
0.0438376
0.0487819
0.0510616
0.0558565
0.0580297
0.0624838
0.0645081
0.0685827
0.0704301
0.0745108
0.0764011
0.0805532
0.0826427
0.0868993
0.0888363
0.0929504
0.094934
0.099067
0.101661
0.107009
0.109853
0.115724
0.118057
0.122455
2.01205e-05
2.07721e-05
2.26416e-05
2.84123e-05
4.57206e-05
0.000101903
0.000191582
0.000448512
0.000616111
0.00104306
0.00126115
0.00181176
0.00206735
0.00269253
0.00296443
0.00364091
0.00393187
0.00469504
0.00501471
0.00586208
0.00619583
0.00704865
0.00736026
0.00817563
0.00846341
0.00933282
0.00962737
0.0105412
0.0108748
0.0118565
0.0121501
0.0131127
0.0133701
0.0142841
0.0145761
0.01566
0.0161544
0.0179468
0.0189336
0.0215601
2.00918e-05
2.08036e-05
2.16307e-05
2.45348e-05
2.67475e-05
3.29903e-05
3.73381e-05
5.07363e-05
5.90306e-05
8.21795e-05
9.30778e-05
0.000123709
0.000137587
0.000174936
0.000191749
0.000237685
0.000256531
0.000310628
0.000332892
0.000399991
0.00042751
0.000504175
0.000531008
0.0006047
0.000628589
0.000707669
0.000733917
0.000823194
0.000858867
0.000970098
0.00100606
0.00111547
0.00114059
0.00122859
0.00125415
0.00136839
0.00141516
0.00157892
0.00166675
0.00196518
2.00642e-05
2.03845e-05
2.1173e-05
2.31927e-05
2.49314e-05
2.80155e-05
3.10684e-05
3.49439e-05
3.62235e-05
3.86583e-05
3.98688e-05
4.2707e-05
4.37863e-05
4.59797e-05
4.69277e-05
4.85972e-05
4.95242e-05
5.19575e-05
5.34962e-05
5.68554e-05
5.92663e-05
6.30969e-05
6.46435e-05
6.71132e-05
6.89107e-05
7.21635e-05
7.51496e-05
7.77131e-05
8.28815e-05
8.67466e-05
9.20206e-05
9.42704e-05
9.84324e-05
9.9636e-05
0.000102255
0.00010407
0.000108401
0.000114356
0.000119728
0.000140638
2.00091e-05
2.05097e-05
2.10598e-05
2.32999e-05
2.45126e-05
2.82286e-05
2.98108e-05
3.35287e-05
3.43351e-05
3.67753e-05
3.73877e-05
3.87946e-05
3.89715e-05
3.97533e-05
3.98672e-05
4.03899e-05
4.05707e-05
4.14751e-05
4.16397e-05
4.20761e-05
4.21388e-05
4.25717e-05
4.26631e-05
4.31866e-05
4.33882e-05
4.39638e-05
4.40851e-05
4.45405e-05
4.46257e-05
4.50038e-05
4.51137e-05
4.5707e-05
4.5925e-05
4.66192e-05
4.67008e-05
4.7318e-05
4.74274e-05
4.79205e-05
4.88771e-05
6.13343e-05
2.00056e-05
2.02776e-05
2.08675e-05
2.25699e-05
2.38344e-05
2.62815e-05
2.97464e-05
3.22732e-05
3.27119e-05
3.34185e-05
3.54752e-05
3.67486e-05
3.71448e-05
3.72143e-05
3.71393e-05
3.71142e-05
3.76541e-05
3.81551e-05
3.83174e-05
3.83084e-05
3.83526e-05
3.84273e-05
3.87719e-05
3.90169e-05
3.92149e-05
3.91895e-05
3.92356e-05
3.92705e-05
3.94384e-05
3.95187e-05
3.97548e-05
3.984e-05
4.01158e-05
4.02028e-05
4.04678e-05
4.06238e-05
4.13033e-05
4.178e-05
4.32282e-05
5.38109e-05
2.00062e-05
2.08768e-05
2.12688e-05
2.3429e-05
2.46777e-05
2.93225e-05
3.03602e-05
3.36759e-05
3.44102e-05
3.72609e-05
3.7814e-05
3.95341e-05
3.95645e-05
4.02507e-05
4.01656e-05
4.10649e-05
4.12536e-05
4.20869e-05
4.20516e-05
4.27931e-05
4.29023e-05
4.35953e-05
4.36067e-05
4.42738e-05
4.43428e-05
4.50774e-05
4.51302e-05
4.56066e-05
4.5549e-05
4.61056e-05
4.62107e-05
4.7246e-05
4.74592e-05
4.8461e-05
4.84726e-05
4.95391e-05
4.96476e-05
5.19318e-05
5.37488e-05
7.46931e-05
2.00336e-05
2.04778e-05
2.09801e-05
2.32142e-05
2.48088e-05
2.8892e-05
2.99362e-05
3.38418e-05
3.5126e-05
3.79713e-05
3.82948e-05
3.96635e-05
3.98434e-05
4.10633e-05
4.14262e-05
4.28691e-05
4.28044e-05
4.32293e-05
4.32735e-05
4.44496e-05
4.47315e-05
4.59178e-05
4.60793e-05
4.70243e-05
4.71129e-05
4.82275e-05
4.82333e-05
4.89931e-05
4.91147e-05
5.08449e-05
5.13117e-05
5.32948e-05
5.33459e-05
5.47332e-05
5.49134e-05
5.75824e-05
5.87571e-05
6.61851e-05
6.99467e-05
9.07327e-05
2.03288e-05
2.05328e-05
2.2532e-05
2.32794e-05
2.76961e-05
2.90069e-05
3.4332e-05
3.57651e-05
4.02193e-05
4.11207e-05
4.45664e-05
4.56747e-05
4.87146e-05
4.98689e-05
5.24543e-05
5.33958e-05
5.45593e-05
5.80397e-05
6.08846e-05
6.5536e-05
6.71525e-05
7.06677e-05
7.22306e-05
7.67911e-05
7.9287e-05
8.64619e-05
8.93422e-05
9.6917e-05
0.000100096
0.000109221
0.000112782
0.000124128
0.000129479
0.000145706
0.000156017
0.000185439
0.000204455
0.000257537
0.000286939
0.000366656
2.02218e-05
2.0548e-05
2.22261e-05
2.36293e-05
2.79126e-05
3.09666e-05
3.96801e-05
4.64135e-05
6.49673e-05
7.58242e-05
0.000101292
0.000114457
0.000145039
0.000162245
0.000201139
0.000222025
0.000270708
0.000296389
0.000352705
0.00038069
0.000443333
0.000475427
0.000550687
0.000589855
0.000676157
0.000718406
0.000812047
0.000859599
0.000972048
0.00103381
0.00113818
0.00124881
0.00137747
0.00152272
0.00169145
0.00194118
0.00211641
0.00248232
0.00271053
0.00326337
2.06239e-05
2.12878e-05
2.33009e-05
2.92729e-05
4.83049e-05
9.42408e-05
0.000234948
0.000376988
0.000727901
0.000938913
0.00142103
0.00167201
0.00223431
0.00252024
0.00315385
0.00347231
0.00417938
0.0045253
0.0052839
0.00564741
0.00645169
0.00682963
0.00768024
0.00808218
0.00896068
0.00938572
0.0103317
0.0107848
0.0118205
0.012318
0.0134246
0.0140212
0.0152985
0.0160504
0.0174668
0.018696
0.0199161
0.0216057
0.022616
0.0246661
2.04337e-05
2.3041e-05
5.19204e-05
0.000207433
0.0007761
0.00194795
0.00500306
0.00745432
0.0128706
0.0156555
0.0216177
0.0242762
0.0299739
0.0324734
0.0379482
0.0403144
0.0456004
0.0478239
0.0528458
0.0549032
0.0597539
0.0616934
0.0664584
0.0683513
0.0730501
0.07497
0.0798793
0.0818276
0.0870835
0.089179
0.0948013
0.0972791
0.103797
0.106465
0.113669
0.11636
0.122894
0.1265
0.129949
0.137046
2.06049e-05
0.000143226
0.00135932
0.00623969
0.0207552
0.040822
0.0772079
0.10716
0.143204
0.164832
0.19436
0.207622
0.230542
0.23992
0.258928
0.266665
0.283138
0.289956
0.305058
0.311341
0.326158
0.332174
0.347119
0.353129
0.36829
0.374545
0.390732
0.397044
0.41427
0.420896
0.439017
0.446297
0.465919
0.473046
0.493281
0.499102
0.516272
0.51815
0.52295
0.537653
9.5959e-05
0.00723031
0.0466845
0.150099
0.329191
0.527293
0.680752
0.808777
0.878739
0.94593
0.974969
1.01247
1.02794
1.05955
1.07276
1.09956
1.11104
1.13441
1.14436
1.16469
1.17504
1.19076
1.20155
1.21466
1.2236
1.23548
1.24406
1.25264
1.26215
1.26914
1.27666
1.28404
1.28938
1.29475
1.29891
1.29921
1.29687
1.29302
1.2839
1.30118
0.0132163
0.290393
1.03638
2.0223
2.6798
3.06283
3.19709
3.19728
3.15939
3.11789
3.02544
2.98503
2.89245
2.85458
2.76609
2.73304
2.65313
2.62471
2.55286
2.52873
2.4641
2.44361
2.38526
2.36766
2.31515
2.29949
2.25108
2.23727
2.1921
2.17935
2.13737
2.12458
2.08407
2.07087
2.03065
2.01642
1.9773
1.96945
1.95008
1.94416
0.776309
4.43144
7.44597
8.35416
8.12392
7.45395
6.51278
5.75231
5.09085
4.64389
4.23302
3.98819
3.71438
3.57587
3.36962
3.28699
3.12026
3.06367
2.93025
2.88929
2.7764
2.74606
2.64767
2.62438
2.53664
2.5173
2.4378
2.42003
2.34663
2.32837
2.26038
2.23861
2.17672
2.14907
2.09865
2.05844
2.03643
1.98563
1.97999
1.88867
1.42205
1.08251
0.878882
0.746958
0.643875
0.563175
0.497068
0.442985
0.397453
0.360112
0.328342
0.300729
0.277252
0.257738
0.240854
0.229667
0.220483
0.215124
0.215404
0.218358
0.227344
0.243938
0.264586
0.286712
0.3095
0.329622
0.345323
0.35583
0.358938
0.358212
0.35607
0.356382
0.35994
0.365677
0.369609
0.373459
0.378345
0.380127
0.379935
0.377378
0.376831
0.383097
0.403836
0.414742
0.416647
0.413714
0.401851
0.377587
0.331027
0.270383
0.216422
0.178911
0.154681
0.139412
0.129076
0.122312
0.117589
0.114011
0.111888
0.109956
0.108676
0.10745
0.106575
0.104754
0.103163
0.101465
0.0999135
0.0975553
0.0960275
0.0935727
0.09153
0.0888777
0.0863863
0.0833224
0.0800668
0.0770432
0.0748518
0.0720961
0.0701079
0.0697673
0.0700246
0.0710177
0.0733277
0.0765194
0.0840006
0.0926643
0.102169
0.11146
0.118264
0.122459
0.124996
0.125316
0.125266
0.124834
0.123775
0.121175
0.117938
0.110898
0.104569
0.0944998
0.0831119
0.069218
0.0569876
0.0441897
0.0333844
0.0253182
0.0192644
0.0147338
0.0113516
0.00878742
0.00687357
0.0054237
0.00433358
0.00348426
0.00286012
0.00238196
0.00201162
0.00174278
0.00153761
0.00140022
0.00129209
0.00124066
0.00119397
0.00119345
0.00120708
0.00122613
0.00125953
0.0013096
0.00136813
0.00147713
0.00156679
0.00176962
0.00197149
0.00239721
0.00273515
0.0034249
0.00442731
0.00528135
0.00714502
0.00865063
0.0119769
0.0143871
0.0193984
0.024258
0.0312619
0.0414959
0.0520209
0.070885
0.0889438
0.112856
0.140994
0.161683
0.180961
0.189896
0.190552
0.18902
0.185483
0.180272
0.174853
0.169296
0.16384
0.158756
0.153719
0.149061
0.144507
0.140043
0.135554
0.131245
0.12636
0.121116
0.115052
0.10825
0.100722
0.0927431
0.0838338
0.0744085
0.0651594
0.0564058
0.0480751
0.0406391
0.0347346
0.0300163
0.0262075
0.0231138
0.0205458
0.0184265
0.0165546
0.0149551
0.0135756
0.0123375
0.0112114
0.0101741
0.00921818
0.00836538
0.00749731
0.00671966
0.00601351
0.00539851
0.00491701
0.00460545
0.0043905
0.00425233
0.00419252
0.00414596
0.00412523
0.00412962
0.00415703
0.00419749
0.00429995
0.00438608
0.0045712
0.00473023
0.00496251
0.00526327
0.00547293
0.00589446
0.00615452
0.00667252
0.00696563
0.00757608
0.00789793
0.00857273
0.00891234
0.00961877
0.00996549
0.0106766
0.0109902
0.0116737
0.0119627
0.0125891
0.0128515
0.0133912
0.0136227
0.0140615
0.0142707
0.0145698
0.0146465
0.0148389
0.0149177
0.0149533
0.0149731
0.0149599
0.014873
0.0148531
0.0147997
0.014673
0.0144796
0.0141984
0.0133085
0.0126649
0.0119734
0.0113164
0.0107628
0.0105701
0.0105672
0.0104753
0.0102215
0.0102229
0.0117504
0.0136568
0.0147672
0.0152188
0.015827
0.0191006
0.0235166
0.0265188
0.0273409
0.0261396
0.0218172
0.0173794
0.0138036
0.0113244
0.0100583
0.0096965
0.00984674
0.0104976
0.0115389
0.0117667
0.011918
0.0118925
0.011815
0.0115103
0.0113343
0.0111389
0.0105506
0.00941919
0.0090061
0.00905765
0.00907781
0.00891136
0.00894168
0.00997366
0.0118804
0.0128729
0.0139441
0.0170517
0.0330876
0.0491112
0.0746255
0.0946174
0.124256
0.146246
0.173773
0.191067
0.207537
0.211119
0.211674
0.208865
0.206733
0.200546
0.19642
0.18863
0.186404
0.182028
0.179611
0.17658
0.175598
0.172821
0.165421
0.158221
0.137428
0.0903705
0.0557011
0.0367866
0.0337035
0.0352917
0.0442177
0.0557359
0.0626864
0.0615155
0.0545691
0.0407317
0.0320517
0.0277608
0.0256667
0.0243256
0.0233014
0.0213483
0.0193566
0.0171489
0.0155542
0.0144756
0.0138809
0.0136478
0.0136462
0.0137529
0.0140816
0.0146521
0.0165958
0.0180454
0.0201376
0.0201586
0.0202309
0.0196194
0.0191892
0.0193214
0.0192785
0.0205009
0.0214162
0.0251986
0.0258232
0.0275185
0.0270684
0.0265009
0.0251804
0.0223253
0.0220567
0.0204082
0.0210946
0.0197778
0.021166
0.0201277
0.0214628
0.0206408
0.0218222
0.0214698
0.0218575
0.0225348
0.0229333
0.0243114
0.024564
0.0258481
0.0257545
0.0264761
0.0260827
0.0264815
0.0260551
0.0260552
0.0256398
0.0252101
0.0241559
0.022891
0.0215102
0.0207041
0.0207842
0.0212252
0.0224829
0.0265561
0.0310881
0.0937751
1.78157
1.58191
1.41576
1.28881
1.18935
1.10529
1.031
0.964063
0.903691
0.849556
0.801627
0.758556
0.719059
0.683495
0.650546
0.620194
0.593435
0.568536
0.547419
0.529983
0.512811
0.496036
0.48008
0.465048
0.450557
0.436074
0.42367
0.41101
0.400234
0.391612
0.383286
0.376034
0.370531
0.359725
0.346219
0.331507
0.312364
0.293268
0.277664
0.260065
0.247286
0.245348
0.24699
0.255045
0.269279
0.284075
0.309772
0.343049
0.368987
0.378408
0.378111
0.372071
0.351815
0.320277
0.285189
0.246761
0.209374
0.177472
0.154765
0.139901
0.130199
0.121916
0.116915
0.112669
0.108578
0.105836
0.102944
0.0997618
0.0975211
0.0948567
0.0916061
0.0892526
0.0869631
0.0837187
0.0807381
0.0799675
0.0802209
0.0817786
0.0847716
0.0927644
0.100004
0.107952
0.117366
0.124115
0.129782
0.132628
0.132698
0.132565
0.132004
0.13063
0.12828
0.124207
0.118267
0.111502
0.101543
0.0896262
0.0749822
0.0618548
0.0477827
0.0358517
0.026928
0.0202566
0.015307
0.0115974
0.00883492
0.00678379
0.00525583
0.00411506
0.00326163
0.00260943
0.00213623
0.00178011
0.00150661
0.00130788
0.00117667
0.00108121
0.00102023
0.000990334
0.000989644
0.000994626
0.0010087
0.0010411
0.00108948
0.00114393
0.00128428
0.00138244
0.0015726
0.00180027
0.00210808
0.00247722
0.00287028
0.00362705
0.00420952
0.00545768
0.0063362
0.00837902
0.00994609
0.0131028
0.0160612
0.0200235
0.0266063
0.0317495
0.0426144
0.0520881
0.0725681
0.0908625
0.125705
0.162321
0.200484
0.224355
0.231083
0.229426
0.22437
0.216011
0.207805
0.198768
0.191154
0.183061
0.176082
0.169335
0.163645
0.158389
0.153659
0.149258
0.145197
0.141515
0.137694
0.134369
0.130851
0.127621
0.123738
0.119756
0.115037
0.109867
0.103872
0.097356
0.0899472
0.0823065
0.0743846
0.0664612
0.0583734
0.0504862
0.0433179
0.0371003
0.0316012
0.0271459
0.0236731
0.0208246
0.018481
0.0165018
0.0148248
0.01337
0.0120894
0.0109834
0.0100091
0.00915229
0.00836828
0.00769309
0.00705472
0.0064501
0.00591636
0.00542647
0.00502627
0.00473769
0.00453116
0.00437895
0.00428617
0.00421356
0.00418907
0.00416386
0.00416466
0.00417348
0.00419383
0.00424232
0.00428075
0.00437575
0.00443412
0.00457068
0.00465779
0.00482715
0.00497904
0.00514779
0.00533448
0.00555033
0.00579903
0.00597844
0.00631086
0.00648012
0.00682209
0.00699923
0.00736466
0.00753771
0.00791523
0.00806163
0.0084096
0.00856278
0.00888791
0.00900047
0.00925379
0.00926243
0.00928175
0.00922623
0.00915816
0.00896732
0.00891736
0.00880998
0.00876187
0.00869359
0.0086929
0.00867597
0.00852528
0.00829577
0.00821524
0.0084179
0.00902488
0.0094668
0.0095355
0.00950968
0.0102914
0.0127264
0.0147314
0.0158454
0.0165573
0.0187601
0.0234624
0.02751
0.0294194
0.0291104
0.0241448
0.0184473
0.0141922
0.0114837
0.0100239
0.00963761
0.00969305
0.0100547
0.00998891
0.00968152
0.00953048
0.00980624
0.0100951
0.010123
0.00998025
0.00939366
0.00880202
0.00866503
0.00907921
0.00965664
0.0097761
0.00991032
0.0107938
0.0121842
0.0127284
0.0129147
0.0132828
0.0189876
0.0336518
0.0563912
0.0825728
0.117523
0.151264
0.182157
0.204202
0.217091
0.219781
0.218275
0.214956
0.20555
0.199121
0.183824
0.177
0.166742
0.161164
0.154257
0.153841
0.153899
0.157546
0.159293
0.159607
0.158847
0.156209
0.150571
0.125681
0.0785128
0.0502239
0.0427973
0.0435605
0.050977
0.0602937
0.0705404
0.0723615
0.0701654
0.0611337
0.050784
0.0434392
0.0391418
0.0351617
0.0305563
0.0261485
0.0224474
0.0192436
0.0171713
0.0156846
0.0148433
0.0143388
0.0141341
0.0141936
0.0144083
0.0150374
0.0173908
0.0189082
0.02182
0.0219083
0.0223948
0.0215804
0.0219485
0.0213456
0.0216607
0.0221761
0.0234623
0.0262854
0.0262001
0.0282293
0.0266349
0.0274584
0.0243845
0.024389
0.0221016
0.0219152
0.0205535
0.020339
0.0200696
0.0200323
0.020563
0.0204813
0.0215646
0.0215445
0.0227354
0.022822
0.0239312
0.024058
0.0247496
0.0247506
0.0249299
0.0249276
0.0248408
0.0247444
0.0242295
0.0239344
0.0230196
0.0222471
0.0205074
0.0201578
0.0201517
0.0207528
0.0215744
0.0229139
0.0250306
0.026741
0.0316679
1.24503
1.16298
1.08066
1.01307
0.955336
0.906886
0.863382
0.825364
0.790166
0.758709
0.728717
0.701278
0.674787
0.650135
0.626214
0.6035
0.580732
0.558508
0.536668
0.514829
0.492867
0.471913
0.449852
0.428907
0.40739
0.386209
0.365377
0.344968
0.324207
0.303713
0.281555
0.260823
0.239252
0.218497
0.199942
0.182794
0.16878
0.157528
0.148819
0.142975
0.140072
0.140155
0.141602
0.144612
0.149421
0.158806
0.16564
0.179842
0.196775
0.217399
0.24313
0.27051
0.292587
0.301401
0.30298
0.302586
0.300007
0.294634
0.282783
0.265949
0.25103
0.233555
0.2172
0.20369
0.188115
0.176794
0.166365
0.156785
0.149876
0.144583
0.139572
0.136662
0.136062
0.136426
0.137816
0.140647
0.144027
0.147763
0.150039
0.15023
0.149923
0.149196
0.148104
0.145489
0.142557
0.138692
0.132439
0.126628
0.117973
0.107372
0.0940409
0.0793776
0.0658533
0.0512539
0.0388201
0.0293396
0.0221683
0.0167561
0.0126743
0.00963245
0.00734908
0.00563669
0.00435844
0.00339206
0.00266507
0.0021217
0.00171787
0.00142358
0.00120321
0.00105548
0.000955958
0.000898337
0.000860266
0.000857151
0.000861112
0.000874054
0.000897268
0.000955819
0.00101152
0.00112448
0.0012428
0.00145297
0.00168477
0.00194346
0.00244698
0.00274126
0.00340429
0.00401725
0.0048486
0.00564008
0.00716827
0.00819713
0.0101446
0.0126666
0.0145342
0.0189533
0.022133
0.0283869
0.0332111
0.0431227
0.0516404
0.0659566
0.0864301
0.114047
0.158725
0.213072
0.25644
0.271896
0.269958
0.263332
0.251296
0.237551
0.224271
0.20741
0.192863
0.18094
0.173074
0.166667
0.162694
0.158505
0.155463
0.151258
0.148279
0.144092
0.14129
0.137645
0.135219
0.13244
0.130957
0.128824
0.127256
0.124693
0.122337
0.118804
0.115175
0.110432
0.105422
0.0992335
0.0931955
0.0862047
0.0793518
0.071876
0.0648747
0.0576902
0.0513857
0.0450834
0.0394391
0.0342894
0.0297964
0.0259345
0.0226364
0.0199529
0.0177283
0.0158778
0.0142876
0.0129412
0.0117665
0.0107459
0.00984146
0.00905748
0.00831017
0.00767542
0.00706175
0.0065188
0.00603484
0.00563844
0.0052965
0.00503222
0.00480704
0.00464984
0.00452098
0.00444699
0.00436911
0.00434571
0.00432469
0.00432991
0.00434802
0.00436562
0.00440384
0.0044317
0.00449509
0.00453032
0.00461501
0.00466314
0.00477389
0.00483089
0.0049664
0.00502282
0.00515678
0.00521944
0.00535511
0.00542593
0.00558444
0.0056626
0.00583099
0.00596134
0.00607915
0.00618949
0.00634336
0.00641461
0.00646201
0.0065685
0.00664008
0.00666919
0.00671238
0.0068194
0.00686618
0.00688167
0.00700558
0.00728826
0.00749201
0.00759553
0.00768567
0.00811207
0.00886171
0.00958996
0.0099718
0.0100024
0.0101501
0.0109173
0.0117737
0.0129158
0.0147228
0.0170517
0.0204618
0.0248339
0.0283765
0.0295602
0.0288577
0.023928
0.0182817
0.013913
0.011302
0.0103419
0.0102567
0.0103211
0.0101235
0.00953795
0.00947348
0.00973278
0.0097733
0.00965288
0.00921864
0.00871009
0.00852451
0.00885973
0.00944883
0.00945347
0.00953373
0.0111011
0.0126938
0.0136871
0.0139196
0.0141223
0.0157088
0.0243877
0.0410413
0.0705349
0.107155
0.150417
0.185748
0.213968
0.225019
0.228215
0.225124
0.218981
0.201966
0.187385
0.163425
0.148347
0.13275
0.123358
0.113156
0.10917
0.108837
0.110304
0.113831
0.121381
0.133077
0.144488
0.148162
0.14849
0.144811
0.13671
0.0959222
0.0639603
0.0503341
0.0505564
0.0531869
0.0651749
0.0715601
0.0763279
0.076648
0.0745843
0.0689859
0.0629986
0.0586746
0.0521924
0.0461217
0.037009
0.0293636
0.0237908
0.0202264
0.017915
0.0164004
0.0156502
0.015105
0.0151034
0.0153118
0.0167113
0.0178741
0.0210044
0.0221862
0.022559
0.022719
0.0225201
0.0231981
0.022892
0.0247821
0.024659
0.0278202
0.0272142
0.0289872
0.0276562
0.0276611
0.0262257
0.0242201
0.0229173
0.0211505
0.020709
0.0197305
0.0199647
0.0195932
0.0201254
0.0199209
0.0205398
0.0205331
0.021182
0.0213789
0.0219785
0.02211
0.0222184
0.0221921
0.0221597
0.0220479
0.0219501
0.0218001
0.0217639
0.0215458
0.0208971
0.0200565
0.0197553
0.0197093
0.0201291
0.0207645
0.0231779
0.0243381
0.0264241
0.026812
0.0324084
0.516277
0.503408
0.485419
0.46748
0.448433
0.430183
0.414498
0.399748
0.3875
0.376302
0.366427
0.356912
0.347565
0.33793
0.327503
0.316228
0.304412
0.291948
0.278559
0.265171
0.250574
0.236097
0.221127
0.205498
0.190534
0.174441
0.159436
0.143991
0.129129
0.115736
0.103329
0.0924931
0.0832106
0.0746138
0.0681043
0.0619484
0.0570049
0.0532202
0.0491596
0.0468792
0.0446361
0.0429679
0.0427984
0.0430292
0.0441464
0.045742
0.0490246
0.053026
0.0578767
0.0667339
0.0762694
0.0870162
0.102008
0.125297
0.14876
0.169706
0.189821
0.20764
0.221173
0.229212
0.230497
0.229614
0.227001
0.223828
0.220725
0.215263
0.212293
0.207154
0.203316
0.199333
0.195821
0.192244
0.189427
0.186295
0.182875
0.178158
0.173727
0.16826
0.161944
0.155315
0.148009
0.139856
0.128597
0.116675
0.103898
0.0893311
0.0762065
0.0623715
0.048819
0.0380353
0.0294104
0.0227258
0.0175206
0.0134647
0.0103506
0.00797382
0.00615589
0.0047504
0.00369099
0.00287233
0.00225259
0.00178976
0.00144609
0.00119133
0.00101881
0.00089843
0.000826391
0.000783025
0.000769286
0.000769061
0.000775742
0.000801575
0.000832163
0.000906497
0.000991806
0.00113136
0.00128338
0.00155674
0.00180713
0.00218879
0.00267909
0.00317119
0.00398477
0.00457578
0.00584283
0.00664751
0.00817989
0.00962571
0.0113572
0.0134697
0.0159905
0.0186003
0.0226135
0.0261134
0.0310966
0.0374734
0.0437813
0.0528535
0.0653376
0.0781876
0.100534
0.130076
0.187651
0.263138
0.310064
0.316562
0.311002
0.296909
0.276297
0.248855
0.218652
0.194889
0.176659
0.1692
0.166027
0.165221
0.164066
0.162509
0.16135
0.159092
0.157312
0.153858
0.15105
0.146873
0.143263
0.138851
0.135941
0.132451
0.130793
0.129011
0.128345
0.127132
0.126528
0.125154
0.124004
0.121445
0.11889
0.11444
0.110238
0.104497
0.0988475
0.0923662
0.0858441
0.0790177
0.0723502
0.0658473
0.0596564
0.053728
0.0481599
0.0431299
0.0384405
0.0343353
0.0304428
0.0272431
0.0242428
0.0218122
0.0195266
0.0177182
0.0159642
0.0146227
0.013272
0.0122323
0.0112027
0.0103629
0.0094967
0.00883364
0.00811225
0.00758917
0.00702276
0.00654549
0.00618753
0.00584475
0.00560079
0.00534359
0.00519232
0.00500098
0.00493183
0.00481318
0.0047866
0.00472958
0.00472891
0.00472322
0.00473799
0.00475916
0.00479936
0.00485937
0.00489685
0.00497769
0.0050176
0.00510486
0.00514686
0.00525198
0.00529402
0.00539688
0.00544347
0.00556241
0.00562679
0.00579503
0.00586837
0.00603551
0.00611126
0.00628741
0.00636327
0.00649436
0.00655155
0.00671472
0.00684927
0.006999
0.00735465
0.00796354
0.00840612
0.00867819
0.00885526
0.00936542
0.0100394
0.0105516
0.010778
0.0108017
0.0107157
0.0107702
0.0117631
0.0127459
0.0132215
0.0135859
0.0161584
0.0216823
0.0264456
0.0284656
0.0288058
0.0270322
0.0222058
0.0170635
0.01366
0.0124167
0.0125962
0.0126753
0.0120717
0.0108397
0.0105949
0.0103401
0.010275
0.0099149
0.00920785
0.00882794
0.00914414
0.00966016
0.0096156
0.00939411
0.0100371
0.0116244
0.0132072
0.0138888
0.0148401
0.0163337
0.0196642
0.0260227
0.0443265
0.080127
0.129351
0.174589
0.211957
0.231479
0.237324
0.234275
0.226286
0.203699
0.173189
0.148285
0.124637
0.10719
0.0916211
0.0827478
0.0742236
0.0698486
0.0682736
0.0688857
0.0706863
0.0763288
0.0827775
0.0995561
0.118977
0.13424
0.137757
0.136333
0.130211
0.105721
0.072117
0.0566545
0.0549777
0.056061
0.0627074
0.071661
0.0756117
0.0782714
0.0789485
0.0777957
0.0749001
0.0719354
0.0663299
0.0601654
0.0525399
0.0444949
0.0336475
0.0267883
0.0219645
0.0192039
0.0173285
0.0163432
0.0162005
0.0164476
0.0179409
0.0191576
0.0231306
0.0238799
0.0261974
0.0254795
0.027135
0.0262356
0.0276081
0.0269079
0.0278744
0.0275723
0.0278511
0.0276714
0.0267877
0.0262647
0.0242992
0.0234406
0.0213711
0.0208927
0.0197154
0.0197006
0.0193646
0.0194712
0.0193488
0.0194882
0.0194811
0.0195838
0.0196658
0.0198564
0.0202067
0.0203651
0.0204849
0.0204772
0.0204691
0.0205409
0.0205097
0.0205508
0.0200807
0.0199068
0.019288
0.0193977
0.0194179
0.0201436
0.0205155
0.0213834
0.0218157
0.0233788
0.0251103
0.0284126
0.120831
0.118812
0.115226
0.111927
0.109473
0.10677
0.104605
0.102299
0.100354
0.0982846
0.0964825
0.0944639
0.0926189
0.0904902
0.0882717
0.0858174
0.0828438
0.0798294
0.0760451
0.0724402
0.06816
0.0640884
0.059751
0.0554406
0.0513
0.0470158
0.0431038
0.0391478
0.0354961
0.0320842
0.0289097
0.026086
0.023648
0.0213556
0.0196004
0.0179164
0.0165239
0.015523
0.0143534
0.0137755
0.0131398
0.0127016
0.0126539
0.012705
0.01293
0.0134367
0.013937
0.0152311
0.0163254
0.0184824
0.0207287
0.0240706
0.02828
0.0321
0.0404273
0.0456386
0.0558203
0.0634506
0.0726706
0.0862113
0.0971007
0.110584
0.120341
0.12897
0.135543
0.139481
0.143114
0.143761
0.143477
0.142279
0.140031
0.136067
0.131228
0.125315
0.118373
0.110896
0.102515
0.0931697
0.0837534
0.0738719
0.0631733
0.0534018
0.0445543
0.0368772
0.0302171
0.0245302
0.0198172
0.015835
0.0125938
0.00999275
0.00786689
0.00620405
0.00487686
0.00382116
0.0029924
0.00235885
0.00186557
0.00149279
0.00121656
0.00101519
0.000876499
0.00079003
0.000729687
0.000707505
0.00069929
0.000701092
0.000712123
0.000737641
0.000799086
0.00086186
0.000990721
0.00117653
0.00132956
0.00173018
0.00202197
0.00248559
0.00311742
0.00366134
0.00472985
0.00537934
0.00698378
0.00791918
0.0100682
0.0114212
0.0137934
0.0161778
0.0186808
0.0220757
0.0245326
0.0296905
0.0326045
0.0387067
0.0433627
0.0511955
0.057791
0.0681054
0.0815426
0.0947882
0.119802
0.149537
0.210001
0.303875
0.359476
0.362868
0.355935
0.334104
0.284578
0.233613
0.188026
0.167775
0.158159
0.155746
0.156976
0.160334
0.163261
0.166787
0.169162
0.172248
0.174196
0.175365
0.175315
0.174873
0.173244
0.169199
0.163462
0.156534
0.149135
0.142199
0.137736
0.134762
0.133176
0.132324
0.132017
0.131644
0.130952
0.130265
0.128821
0.127399
0.124451
0.121568
0.116931
0.112661
0.106776
0.101296
0.0945844
0.0884467
0.0814045
0.0754023
0.0687322
0.0629254
0.0569001
0.0515771
0.0464591
0.0420739
0.0379459
0.0344063
0.0311655
0.0283307
0.0257519
0.0234841
0.0214397
0.0195998
0.0180045
0.0164652
0.015227
0.0139609
0.0129896
0.0118938
0.0112319
0.0103007
0.00980667
0.00904242
0.00868719
0.00813672
0.0077969
0.00747297
0.0071441
0.0069158
0.00661912
0.00643217
0.00617186
0.00607696
0.00588594
0.00583793
0.00571996
0.00570992
0.00566779
0.00568529
0.00569637
0.00574399
0.00576465
0.00583396
0.00587388
0.00596885
0.00602113
0.00614805
0.00623576
0.00633702
0.00653892
0.00668393
0.00685022
0.00708281
0.00736242
0.00748176
0.00771561
0.00786651
0.0081431
0.00838248
0.00881787
0.00913058
0.00939918
0.00944708
0.0094134
0.00939178
0.00985309
0.0104249
0.0107345
0.0107775
0.0107204
0.0106942
0.0115247
0.0130039
0.0136441
0.0135704
0.0134345
0.0163483
0.022983
0.0263841
0.0278207
0.0279405
0.0252041
0.0190789
0.0149476
0.0135946
0.01376
0.0138551
0.0132781
0.0119491
0.0111126
0.0108818
0.0108858
0.0103315
0.00968564
0.00970309
0.00990981
0.00986388
0.00922726
0.00913819
0.0103496
0.0119299
0.0127328
0.0134881
0.0155717
0.0184813
0.0207909
0.0223878
0.0323151
0.0809191
0.149509
0.205653
0.242282
0.252237
0.249105
0.237288
0.207082
0.167976
0.137417
0.110155
0.092307
0.0765948
0.0670612
0.0600235
0.0552337
0.0509671
0.0493178
0.0492636
0.0500624
0.0516484
0.056715
0.0629724
0.0713021
0.0929974
0.115872
0.125653
0.125861
0.120746
0.107649
0.0759487
0.0612149
0.0567802
0.0567053
0.0591251
0.0654594
0.0738475
0.0772112
0.0814424
0.0817105
0.081459
0.0785772
0.075544
0.0695604
0.0625126
0.0574017
0.0481294
0.0383591
0.0296037
0.0255201
0.0210485
0.020252
0.0189037
0.0198962
0.0202351
0.0229781
0.0238142
0.0265773
0.026831
0.0276297
0.0274794
0.0276192
0.0277605
0.0275664
0.0280337
0.0275593
0.0278164
0.0269385
0.0267308
0.0251434
0.0245028
0.0225576
0.021902
0.0203539
0.0200732
0.0195062
0.0193934
0.0190909
0.0190206
0.0188455
0.0187621
0.0186362
0.0186159
0.0186329
0.0188358
0.0188915
0.0190185
0.0190162
0.019067
0.0189962
0.0190282
0.0188988
0.0189538
0.0187778
0.0187795
0.0186505
0.0186536
0.0186932
0.0191725
0.0198728
0.0215791
0.0225368
0.0231151
0.0213786
0.0210396
0.020547
0.0198822
0.0195681
0.0192254
0.0189749
0.0187406
0.0184291
0.0181755
0.0178665
0.0175227
0.017247
0.0168166
0.016524
0.0160692
0.0156116
0.0150847
0.0144151
0.0137965
0.0129931
0.0123087
0.0115058
0.010782
0.0100671
0.00931777
0.008666
0.00793879
0.00729886
0.00666335
0.00606384
0.00554308
0.00508276
0.00464855
0.00434295
0.00400683
0.00376327
0.0035688
0.00333698
0.00324791
0.00311675
0.00306562
0.00306534
0.00308063
0.00313233
0.00323839
0.00336389
0.0036347
0.00388542
0.00441616
0.00488577
0.0056853
0.00673095
0.00751233
0.00960896
0.01084
0.0132567
0.0155838
0.0181009
0.0216855
0.0243184
0.0283956
0.0316892
0.0350129
0.038277
0.0408117
0.0427295
0.0444317
0.0450668
0.0449356
0.0444179
0.043127
0.0410741
0.0385542
0.0356966
0.0325632
0.0293284
0.0260118
0.0228245
0.0197136
0.0168297
0.0142224
0.0118633
0.00982237
0.00805858
0.00655435
0.00530723
0.00426234
0.00342277
0.00273401
0.00218151
0.00175905
0.00141813
0.00115997
0.000968492
0.000834129
0.000740103
0.000680076
0.000648119
0.000636167
0.000634806
0.000641588
0.000662791
0.000694132
0.000767914
0.000848813
0.00101394
0.00120242
0.00152379
0.00176907
0.00235523
0.00282206
0.00349141
0.00453719
0.00521384
0.00672388
0.0079839
0.00960526
0.0119673
0.0134912
0.0171022
0.0194491
0.0232413
0.0268419
0.0309123
0.0362824
0.039809
0.046913
0.0508235
0.058714