/*--------------------------------*- C++ -*----------------------------------*\
| =========                 |                                                 |
| \\      /  F ield         | OpenFOAM: The Open Source CFD Toolbox           |
|  \\    /   O peration     | Version:  2.4.0                                 |
|   \\  /    A nd           | Web:      www.OpenFOAM.org                      |
|    \\/     M anipulation  |                                                 |
\*---------------------------------------------------------------------------*/
FoamFile
{
    version     2.0;
    format      ascii;
    class       volScalarField;
    location    "0.14";
    object      nuSgs;
}
// * * * * * * * * * * * * * * * * * * * * * * * * * * * * * * * * * * * * * //

dimensions      [0 2 -1 0 0 0 0];

internalField   nonuniform List<scalar> 
17600
(
0.00101245
0.000905133
0.00075058
0.000661198
0.000604253
0.000574749
0.000541102
0.000526346
0.000504611
0.000495064
0.000484141
0.000470054
0.000472096
0.000451902
0.000459482
0.000443906
0.000444175
0.000444674
0.000428568
0.00048751
0.00070495
0.000828798
0.000801579
0.000748729
0.000694599
0.000663543
0.000625364
0.000608952
0.000584462
0.000570895
0.000560617
0.000541343
0.000543543
0.00052268
0.000528548
0.000513597
0.00051048
0.000508878
0.000497359
0.000516705
0.000380776
0.000604307
0.000662221
0.000661845
0.00064216
0.000622783
0.000592809
0.000579494
0.000560244
0.000545181
0.000539226
0.000519331
0.000521365
0.000504077
0.000506814
0.000495908
0.000492244
0.000486347
0.000484179
0.000481147
0.00015085
0.000366738
0.000456785
0.000509501
0.000523041
0.000528787
0.000521597
0.000514935
0.000506765
0.000493183
0.000492159
0.000477151
0.000478874
0.000466325
0.000466557
0.000459792
0.000457448
0.000448452
0.000451432
0.000445302
5.3419e-05
0.000181788
0.000258812
0.000330283
0.000366157
0.000398572
0.000412367
0.000418673
0.000424914
0.000420736
0.000425019
0.000417138
0.000420041
0.000414432
0.000413375
0.000410368
0.000410513
0.000402126
0.000406268
0.000400597
1.73476e-05
7.96986e-05
0.000119571
0.000176746
0.000211119
0.000249494
0.000281269
0.000294948
0.000318567
0.000322706
0.000337241
0.000337747
0.000342495
0.000346623
0.000345983
0.000347103
0.000351029
0.000345439
0.000349926
0.000343004
5.49828e-06
3.19958e-05
4.96576e-05
7.68565e-05
0.000102087
0.00012278
0.000159634
0.000173346
0.000200334
0.000209774
0.000230869
0.000240476
0.000246711
0.00026352
0.000264793
0.00026916
0.000277665
0.000277292
0.000280359
0.000274263
2.25146e-06
1.25749e-05
1.93042e-05
2.81071e-05
4.14873e-05
5.11626e-05
7.25738e-05
8.28555e-05
0.000103021
0.000111967
0.000128798
0.000144699
0.0001504
0.000169744
0.000173289
0.000182032
0.000190493
0.000199879
0.000197818
0.000199675
1.7378e-06
5.70627e-06
8.03723e-06
1.06209e-05
1.52788e-05
1.86649e-05
2.73861e-05
3.23199e-05
4.30159e-05
4.84485e-05
5.77556e-05
7.11541e-05
7.5413e-05
9.04604e-05
9.37489e-05
0.000101631
0.000109542
0.000120916
0.000117642
0.000129186
1.76539e-06
4.02181e-06
4.5489e-06
5.67696e-06
6.95473e-06
7.56678e-06
9.93359e-06
1.13502e-05
1.53636e-05
1.75328e-05
2.15953e-05
2.84461e-05
3.06925e-05
3.94552e-05
4.14169e-05
4.53935e-05
5.31284e-05
5.76465e-05
5.89905e-05
7.01293e-05
1.72115e-06
3.2711e-06
3.39012e-06
3.78347e-06
4.78848e-06
4.89184e-06
5.25584e-06
5.24659e-06
5.83555e-06
6.38005e-06
7.61517e-06
1.03097e-05
1.11836e-05
1.50738e-05
1.56858e-05
1.70885e-05
2.03215e-05
2.29504e-05
2.34737e-05
2.81744e-05
1.5968e-06
2.36054e-06
2.47041e-06
2.86894e-06
3.61255e-06
3.85959e-06
3.99523e-06
3.69236e-06
3.55165e-06
3.57503e-06
3.87011e-06
4.9847e-06
5.32101e-06
6.27928e-06
6.42964e-06
6.67252e-06
7.13132e-06
9.13969e-06
9.86352e-06
1.11386e-05
1.54984e-06
1.86573e-06
2.45362e-06
2.59671e-06
2.62591e-06
2.83864e-06
3.24379e-06
3.23202e-06
3.21933e-06
3.26421e-06
3.40574e-06
3.62137e-06
3.57199e-06
3.63601e-06
4.34915e-06
4.45784e-06
5.16287e-06
5.31693e-06
5.82642e-06
9.95972e-06
1.55164e-06
1.82047e-06
2.43422e-06
2.3046e-06
2.23134e-06
2.39707e-06
3.02844e-06
3.27251e-06
3.26462e-06
3.19268e-06
3.02261e-06
3.02672e-06
3.01995e-06
3.29966e-06
3.93826e-06
3.93882e-06
4.73243e-06
4.63235e-06
4.50915e-06
6.89048e-06
1.53468e-06
1.81649e-06
2.1436e-06
2.09421e-06
2.11904e-06
2.37686e-06
2.92948e-06
3.06964e-06
3.00615e-06
2.77844e-06
2.66211e-06
2.76611e-06
2.90939e-06
3.46538e-06
3.45618e-06
3.56368e-06
3.49706e-06
3.59093e-06
4.36942e-06
5.05701e-06
1.50922e-06
1.69793e-06
1.9568e-06
2.23448e-06
2.35237e-06
2.3715e-06
2.46177e-06
2.50864e-06
2.51118e-06
2.49014e-06
2.49329e-06
2.69174e-06
2.78788e-06
2.85281e-06
2.83539e-06
3.02683e-06
3.21221e-06
3.59151e-06
4.74403e-06
4.60612e-06
1.50887e-06
1.70082e-06
2.08365e-06
2.299e-06
2.27485e-06
2.18777e-06
2.21076e-06
2.36885e-06
2.51575e-06
2.50384e-06
2.51642e-06
2.53781e-06
2.53887e-06
2.55067e-06
2.76595e-06
2.81375e-06
2.99194e-06
3.84673e-06
3.8545e-06
4.30493e-06
1.51459e-06
1.6822e-06
2.08799e-06
2.15415e-06
2.13558e-06
2.09586e-06
2.15714e-06
2.41019e-06
2.45497e-06
2.43492e-06
2.43229e-06
2.41998e-06
2.4193e-06
2.46466e-06
2.76879e-06
2.93908e-06
3.23866e-06
3.41881e-06
3.42605e-06
3.60667e-06
1.51808e-06
1.65705e-06
1.94979e-06
2.12037e-06
2.11545e-06
2.06674e-06
2.08129e-06
2.19263e-06
2.33961e-06
2.3414e-06
2.35978e-06
2.35717e-06
2.35058e-06
2.42979e-06
2.53697e-06
2.63192e-06
3.01755e-06
3.01984e-06
3.09959e-06
3.35497e-06
1.50708e-06
1.63432e-06
1.97405e-06
2.07646e-06
2.06458e-06
2.01659e-06
2.04378e-06
2.21194e-06
2.30089e-06
2.3491e-06
2.32733e-06
2.35086e-06
2.33767e-06
2.36995e-06
2.55645e-06
2.77034e-06
2.77856e-06
2.8421e-06
2.8825e-06
3.07046e-06
1.50638e-06
1.64297e-06
1.96823e-06
1.99851e-06
1.97648e-06
1.97657e-06
2.13993e-06
2.22805e-06
2.22741e-06
2.24973e-06
2.27088e-06
2.33747e-06
2.3474e-06
2.42677e-06
2.45173e-06
2.54623e-06
2.66252e-06
2.70281e-06
2.74296e-06
2.80754e-06
1.51035e-06
1.66752e-06
1.87453e-06
1.92993e-06
2.04892e-06
2.1135e-06
2.16331e-06
2.14992e-06
2.13374e-06
2.14063e-06
2.29072e-06
2.31066e-06
2.29095e-06
2.3273e-06
2.38156e-06
2.36895e-06
2.49239e-06
2.54036e-06
2.56379e-06
2.95199e-06
1.51197e-06
1.67199e-06
1.83797e-06
2.04169e-06
2.15132e-06
2.16199e-06
2.12094e-06
2.09273e-06
2.10539e-06
2.26043e-06
2.3401e-06
2.31805e-06
2.26367e-06
2.25388e-06
2.25968e-06
2.38302e-06
2.46594e-06
2.48582e-06
2.48266e-06
2.49479e-06
1.51882e-06
1.66095e-06
1.91306e-06
2.15077e-06
2.2063e-06
2.16791e-06
2.11556e-06
2.13156e-06
2.25214e-06
2.39855e-06
2.37936e-06
2.31095e-06
2.29846e-06
2.30302e-06
2.42027e-06
2.51826e-06
2.50381e-06
2.49706e-06
2.49808e-06
2.64324e-06
1.52355e-06
1.6786e-06
2.0328e-06
2.24029e-06
2.24441e-06
2.17923e-06
2.18246e-06
2.27377e-06
2.43522e-06
2.47817e-06
2.43293e-06
2.4398e-06
2.45118e-06
2.51655e-06
2.62193e-06
2.59039e-06
2.57356e-06
2.5989e-06
2.65012e-06
2.75901e-06
1.53258e-06
1.70679e-06
2.1605e-06
2.3312e-06
2.30958e-06
2.25781e-06
2.27658e-06
2.36459e-06
2.60979e-06
2.6313e-06
2.61731e-06
2.68152e-06
2.68283e-06
2.71507e-06
2.70465e-06
2.69003e-06
2.73244e-06
2.89069e-06
2.9555e-06
3.11423e-06
1.54265e-06
1.74391e-06
2.29687e-06
2.38749e-06
2.35719e-06
2.33326e-06
2.35338e-06
2.57688e-06
2.93061e-06
2.92662e-06
2.91335e-06
2.927e-06
2.87642e-06
2.8551e-06
2.85224e-06
2.9237e-06
3.19146e-06
3.34225e-06
3.51089e-06
3.88928e-06
1.55175e-06
1.78764e-06
2.39314e-06
2.40283e-06
2.40577e-06
2.43243e-06
2.63116e-06
3.20123e-06
3.33519e-06
3.27237e-06
3.19404e-06
3.13377e-06
3.07949e-06
3.14106e-06
3.29991e-06
3.81844e-06
4.20028e-06
4.80823e-06
5.56833e-06
7.25539e-06
1.5814e-06
1.84365e-06
2.50612e-06
2.51182e-06
2.70243e-06
2.9162e-06
3.49807e-06
3.81132e-06
3.85953e-06
3.76757e-06
3.80936e-06
4.04647e-06
4.22075e-06
5.08333e-06
5.77845e-06
7.29678e-06
8.56703e-06
1.10159e-05
1.34194e-05
1.83497e-05
1.60934e-06
1.96198e-06
2.80859e-06
2.91253e-06
3.62117e-06
4.1669e-06
4.73241e-06
5.35902e-06
6.09367e-06
6.3968e-06
7.34074e-06
9.61448e-06
1.05131e-05
1.34963e-05
1.5515e-05
1.97416e-05
2.29728e-05
2.94343e-05
3.45058e-05
4.57648e-05
1.6563e-06
2.40998e-06
3.82607e-06
4.39728e-06
6.28169e-06
7.58341e-06
9.11582e-06
1.21259e-05
1.5567e-05
1.73759e-05
2.11864e-05
2.80706e-05
3.05371e-05
3.75459e-05
4.19394e-05
5.11038e-05
5.70602e-05
6.92571e-05
7.73499e-05
9.76005e-05
1.77808e-06
4.17084e-06
7.56645e-06
9.88429e-06
1.52806e-05
1.97205e-05
2.46126e-05
3.45353e-05
4.34527e-05
4.81752e-05
5.76326e-05
7.10043e-05
7.57351e-05
8.79731e-05
9.52765e-05
0.000109621
0.000117775
0.000134618
0.000144705
0.000170403
2.34257e-06
1.00487e-05
1.93864e-05
2.66969e-05
4.23606e-05
5.40385e-05
6.60143e-05
8.81225e-05
0.00010301
0.000111109
0.000128451
0.000145087
0.000151604
0.000167383
0.000177359
0.000191654
0.000199843
0.000216342
0.000225331
0.000245462
5.54269e-06
2.68691e-05
5.24847e-05
7.06799e-05
0.000106877
0.000126334
0.000151861
0.000180948
0.000198041
0.000208668
0.000230198
0.000242352
0.000248437
0.000262205
0.00027011
0.000278028
0.000284137
0.000294816
0.000300389
0.000311925
1.73501e-05
7.06943e-05
0.00012895
0.000164333
0.000222042
0.000246738
0.000278965
0.00030113
0.000315158
0.000322986
0.000335863
0.000339353
0.000342935
0.000347969
0.000351282
0.000352765
0.000355957
0.000359241
0.000362395
0.000365533
5.35029e-05
0.000174017
0.000266483
0.000323953
0.000374694
0.000394229
0.000414119
0.000419852
0.000423364
0.000422219
0.000422904
0.000419765
0.000419001
0.000416433
0.000415687
0.000412833
0.00041248
0.000410702
0.000410194
0.00040825
0.000151271
0.000364286
0.000460816
0.000506483
0.000528027
0.000526155
0.000523265
0.000512906
0.000506739
0.000495168
0.000490151
0.000479555
0.000476633
0.000468227
0.000465433
0.000458655
0.000455974
0.000449457
0.000445591
0.000440132
0.000381957
0.000602931
0.000664194
0.000661473
0.000645278
0.000617247
0.000598507
0.000573896
0.000562804
0.00054513
0.00053614
0.000522351
0.000517945
0.000505332
0.000501345
0.000491387
0.000486622
0.000475254
0.000468562
0.000457817
0.000705597
0.000828359
0.000803134
0.000747166
0.000697639
0.00065856
0.000631587
0.000601846
0.000588657
0.000568509
0.000558203
0.000542913
0.000538097
0.000522974
0.000518084
0.000505344
0.000498897
0.000483012
0.000473754
0.000455947
0.00101311
0.000905051
0.000751799
0.000659573
0.000606238
0.000570936
0.000546106
0.000520164
0.00050825
0.000491427
0.000483135
0.000468829
0.000464953
0.000450979
0.000445415
0.00043171
0.000424828
0.000406798
0.000394764
0.000370977
0.000192571
0.000162513
0.000157033
0.000157109
0.000159438
0.000160103
0.000167095
0.000155978
0.000130822
0.000108461
0.000115626
0.000121978
0.000113663
0.000103189
8.7569e-05
8.6872e-05
8.4837e-05
8.24288e-05
7.70091e-05
6.80924e-05
6.16289e-05
5.84599e-05
5.87164e-05
6.21056e-05
7.04352e-05
8.65794e-05
9.26511e-05
9.15206e-05
8.43925e-05
5.92693e-05
3.71366e-05
2.30785e-05
1.55123e-05
1.16507e-05
8.86595e-06
7.82744e-06
7.80859e-06
7.83522e-06
8.26543e-06
1.14497e-05
2.14405e-05
4.49494e-05
6.18582e-05
6.73675e-05
6.72934e-05
6.44162e-05
5.81345e-05
5.42267e-05
5.13884e-05
4.94686e-05
4.79267e-05
4.71082e-05
4.70547e-05
4.83208e-05
5.27419e-05
5.44988e-05
5.4643e-05
5.34371e-05
4.76115e-05
3.93347e-05
3.03888e-05
2.47593e-05
2.2969e-05
2.12872e-05
2.00076e-05
1.98438e-05
2.02532e-05
2.17502e-05
2.19786e-05
2.16378e-05
2.23707e-05
3.0362e-05
3.75233e-05
4.01003e-05
4.08806e-05
4.03955e-05
3.75314e-05
3.53498e-05
3.45561e-05
3.57763e-05
3.63598e-05
3.6447e-05
4.45986e-05
4.87707e-05
4.9121e-05
4.93266e-05
4.90939e-05
4.56004e-05
3.88191e-05
3.53845e-05
3.48527e-05
3.62018e-05
3.90583e-05
4.12315e-05
5.23372e-05
6.43101e-05
6.45974e-05
6.2384e-05
6.297e-05
6.43632e-05
6.27303e-05
5.31567e-05
4.43316e-05
4.03857e-05
4.0104e-05
4.16952e-05
4.20796e-05
4.00598e-05
3.49062e-05
3.21998e-05
3.00282e-05
2.80191e-05
2.72211e-05
2.72147e-05
2.7638e-05
2.93656e-05
3.11048e-05
3.17721e-05
3.25445e-05
3.44667e-05
3.82979e-05
4.73396e-05
7.45497e-05
8.96727e-05
9.07386e-05
8.55452e-05
6.51637e-05
4.91847e-05
3.7341e-05
2.97251e-05
2.71501e-05
2.49328e-05
2.63265e-05
2.53893e-05
2.67239e-05
2.75897e-05
3.40619e-05
3.32884e-05
4.20047e-05
3.96815e-05
4.47417e-05
4.12326e-05
4.19002e-05
3.97933e-05
3.99822e-05
4.02584e-05
4.19739e-05
4.18512e-05
4.21642e-05
4.19725e-05
4.18793e-05
4.1189e-05
4.04448e-05
3.89492e-05
3.75592e-05
3.64539e-05
3.49995e-05
3.35025e-05
3.26291e-05
3.20931e-05
3.10343e-05
2.77975e-05
2.55906e-05
2.40747e-05
2.29067e-05
2.22402e-05
2.22265e-05
2.23934e-05
2.27973e-05
2.40429e-05
2.85291e-05
3.33339e-05
3.54286e-05
3.9541e-05
4.21994e-05
4.33389e-05
4.33559e-05
4.15747e-05
3.58692e-05
3.01117e-05
2.67499e-05
2.52301e-05
2.46032e-05
2.45763e-05
2.50564e-05
2.5108e-05
2.51075e-05
2.49089e-05
2.38754e-05
2.29419e-05
2.22788e-05
2.21479e-05
2.22879e-05
2.32658e-05
2.67577e-05
2.8789e-05
3.09654e-05
3.65246e-05
5.93205e-05
0.000135931
0.000245473
0.000204831
0.000184629
0.000167142
0.00016463
0.00015965
0.000166537
0.000166204
0.000161534
0.00012097
0.0001128
0.000109245
0.000104093
9.41353e-05
8.38047e-05
8.22127e-05
7.62784e-05
7.18148e-05
6.67024e-05
6.11005e-05
6.00035e-05
6.14161e-05
6.63974e-05
7.94076e-05
9.1173e-05
9.51926e-05
9.42854e-05
8.80822e-05
6.59213e-05
4.10548e-05
2.63347e-05
1.69679e-05
1.20151e-05
9.52426e-06
7.91463e-06
7.59341e-06
7.74922e-06
7.8674e-06
8.79776e-06
1.35406e-05
2.71026e-05
5.32075e-05
6.588e-05
6.81265e-05
6.72821e-05
6.15665e-05
5.63082e-05
5.26266e-05
4.98962e-05
4.83709e-05
4.73478e-05
4.64401e-05
4.61937e-05
4.65534e-05
5.00704e-05
5.32074e-05
5.41858e-05
5.38082e-05
4.99482e-05
4.16195e-05
3.224e-05
2.5826e-05
2.34042e-05
2.1498e-05
2.00197e-05
1.98025e-05
2.01029e-05
2.14265e-05
2.16699e-05
2.12636e-05
2.1693e-05
2.8936e-05
3.71879e-05
4.02369e-05
4.12652e-05
4.08688e-05
3.8104e-05
3.53824e-05
3.44871e-05
3.48324e-05
3.41313e-05
3.49678e-05
4.40985e-05
4.73133e-05
4.83277e-05
5.00824e-05
5.01023e-05
4.47001e-05
3.79331e-05
3.51978e-05
3.49082e-05
3.62307e-05
3.87918e-05
4.10675e-05
5.22774e-05
6.53043e-05
6.5707e-05
6.36046e-05
6.43418e-05
6.56103e-05
6.33483e-05
5.24258e-05
4.35705e-05
3.94003e-05
3.9252e-05
4.15905e-05
4.21032e-05
3.95239e-05
3.39084e-05
3.14026e-05
2.95464e-05
2.76842e-05
2.69007e-05
2.68982e-05
2.72783e-05
2.88021e-05
3.06368e-05
3.13798e-05
3.21255e-05
3.39899e-05
3.76867e-05
4.57556e-05
7.19474e-05
8.78038e-05
8.9076e-05
8.44048e-05
6.45644e-05
4.83668e-05
3.78609e-05
2.97244e-05
2.65517e-05
2.58739e-05
2.65482e-05
2.6096e-05
3.17972e-05
3.38495e-05
4.10091e-05
3.97143e-05
4.53966e-05
4.52513e-05
5.02264e-05
4.99378e-05
5.09342e-05
4.70668e-05
4.5875e-05
4.52769e-05
4.36264e-05
4.21779e-05
4.22576e-05
4.17589e-05
4.15665e-05
4.07284e-05
3.98513e-05
3.84332e-05
3.73773e-05
3.64314e-05
3.50889e-05
3.35199e-05
3.26754e-05
3.19323e-05
2.97785e-05
2.66655e-05
2.51125e-05
2.39506e-05
2.28949e-05
2.24341e-05
2.24716e-05
2.2645e-05
2.30948e-05
2.51404e-05
3.12644e-05
3.50239e-05
3.76252e-05
4.06602e-05
4.29257e-05
4.43515e-05
4.47539e-05
4.39286e-05
3.886e-05
3.23364e-05
2.76116e-05
2.5421e-05
2.4567e-05
2.43337e-05
2.4631e-05
2.495e-05
2.4954e-05
2.4807e-05
2.3889e-05
2.3059e-05
2.20975e-05
2.1853e-05
2.19128e-05
2.24578e-05
2.53737e-05
2.85918e-05
3.10512e-05
3.49685e-05
5.74582e-05
0.000117794
0.000239824
0.000210935
0.000191914
0.000170355
0.000164785
0.000156919
0.000160077
0.000159702
0.000162677
0.000155558
0.000126876
0.000109698
9.9766e-05
8.82997e-05
8.03431e-05
7.79732e-05
7.22262e-05
6.85715e-05
6.55203e-05
6.46961e-05
6.75709e-05
7.76277e-05
9.12771e-05
9.83113e-05
9.83419e-05
9.70277e-05
9.05166e-05
6.98118e-05
4.41232e-05
2.83463e-05
1.86773e-05
1.24222e-05
9.76921e-06
8.37352e-06
7.46823e-06
7.47112e-06
7.63782e-06
7.86496e-06
9.52457e-06
1.63548e-05
3.48462e-05
5.99763e-05
6.78812e-05
6.83677e-05
6.57325e-05
5.81903e-05
5.41022e-05
5.12745e-05
4.88846e-05
4.75997e-05
4.70251e-05
4.60957e-05
4.56022e-05
4.56937e-05
4.75711e-05
5.17118e-05
5.35344e-05
5.35594e-05
5.16282e-05
4.39615e-05
3.4218e-05
2.69649e-05
2.40706e-05
2.17792e-05
1.99886e-05
1.9666e-05
1.98705e-05
2.11505e-05
2.14663e-05
2.09978e-05
2.11848e-05
2.75494e-05
3.68644e-05
4.03713e-05
4.16541e-05
4.14161e-05
3.87194e-05
3.58516e-05
3.48827e-05
3.36526e-05
3.23125e-05
3.44288e-05
4.35263e-05
4.58401e-05
4.82524e-05
5.13938e-05
5.06357e-05
4.29423e-05
3.69665e-05
3.49975e-05
3.48903e-05
3.61921e-05
3.85485e-05
4.09624e-05
5.22345e-05
6.61898e-05
6.68533e-05
6.48592e-05
6.57626e-05
6.69484e-05
6.40193e-05
5.22159e-05
4.28134e-05
3.87275e-05
3.90284e-05
4.20652e-05
4.27077e-05
3.93811e-05
3.29318e-05
3.04308e-05
2.8936e-05
2.7398e-05
2.6642e-05
2.66569e-05
2.70468e-05
2.84649e-05
3.02268e-05
3.10117e-05
3.17962e-05
3.36415e-05
3.71206e-05
4.44979e-05
6.93549e-05
8.60576e-05
8.73773e-05
8.31297e-05
6.41217e-05
4.70196e-05
3.77465e-05
2.97125e-05
2.58119e-05
2.60082e-05
2.62673e-05
2.74171e-05
3.62636e-05
3.82178e-05
4.46553e-05
4.35434e-05
4.77964e-05
4.91368e-05
5.18944e-05
5.49752e-05
5.4072e-05
5.35094e-05
5.20033e-05
5.13644e-05
4.69863e-05
4.45635e-05
4.47354e-05
4.38381e-05
4.2786e-05
4.10841e-05
3.99963e-05
3.86891e-05
3.77588e-05
3.71343e-05
3.53681e-05
3.34558e-05
3.24442e-05
3.12787e-05
2.80308e-05
2.58417e-05
2.49166e-05
2.39199e-05
2.29723e-05
2.28055e-05
2.28948e-05
2.31335e-05
2.39029e-05
2.80584e-05
3.41388e-05
3.78825e-05
4.1094e-05
4.26161e-05
4.39649e-05
4.4966e-05
4.5713e-05
4.54125e-05
4.19934e-05
3.47003e-05
2.88531e-05
2.5818e-05
2.46832e-05
2.41788e-05
2.41956e-05
2.45934e-05
2.46296e-05
2.45462e-05
2.41231e-05
2.32359e-05
2.21289e-05
2.16411e-05
2.1641e-05
2.19344e-05
2.36029e-05
2.76969e-05
3.17694e-05
3.41655e-05
5.32467e-05
9.84315e-05
0.000225275
0.000202421
0.000187164
0.000168232
0.000160351
0.000151727
0.00015072
0.000152197
0.000152261
0.000159337
0.000154151
0.000136274
0.000116708
9.76702e-05
8.67943e-05
8.47057e-05
8.07573e-05
7.95643e-05
8.09828e-05
8.48117e-05
9.76686e-05
0.000103221
0.000103898
0.000102535
9.94632e-05
9.17533e-05
6.904e-05
4.55808e-05
2.94549e-05
1.97011e-05
1.34132e-05
9.60517e-06
8.49274e-06
7.66659e-06
7.16805e-06
7.18286e-06
7.39627e-06
7.94433e-06
1.0782e-05
2.01255e-05
4.44793e-05
6.43242e-05
6.90441e-05
6.84782e-05
6.27278e-05
5.65793e-05
5.33303e-05
5.09403e-05
4.85534e-05
4.72146e-05
4.68204e-05
4.6014e-05
4.52033e-05
4.51498e-05
4.59349e-05
4.99044e-05
5.26897e-05
5.33014e-05
5.24688e-05
4.66193e-05
3.60413e-05
2.81811e-05
2.48221e-05
2.21391e-05
2.00014e-05
1.95162e-05
1.96278e-05
2.07725e-05
2.12276e-05
2.08085e-05
2.08362e-05
2.62379e-05
3.6546e-05
4.04883e-05
4.20028e-05
4.1952e-05
3.94394e-05
3.68025e-05
3.52943e-05
3.26773e-05
3.15107e-05
3.47265e-05
4.27616e-05
4.45882e-05
4.9346e-05
5.23904e-05
4.99096e-05
4.09432e-05
3.62081e-05
3.49121e-05
3.49396e-05
3.61537e-05
3.83674e-05
4.08849e-05
5.23659e-05
6.71164e-05
6.81154e-05
6.6176e-05
6.71388e-05
6.83302e-05
6.49826e-05
5.22284e-05
4.21952e-05
3.87715e-05
3.95308e-05
4.38625e-05
4.40671e-05
3.91361e-05
3.17844e-05
2.93045e-05
2.82603e-05
2.71682e-05
2.65704e-05
2.65893e-05
2.69093e-05
2.81742e-05
2.98978e-05
3.06957e-05
3.14741e-05
3.33593e-05
3.67179e-05
4.35781e-05
6.72625e-05
8.44601e-05
8.56209e-05
8.18188e-05
6.36857e-05
4.61456e-05
3.7292e-05
2.94534e-05
2.58915e-05
2.54612e-05
2.63759e-05
3.04257e-05
4.26443e-05
4.24727e-05
4.89303e-05
4.79184e-05
5.09921e-05
5.20004e-05
5.26413e-05
5.49138e-05
5.33362e-05
5.47879e-05
5.27549e-05
5.31174e-05
5.03547e-05
5.02115e-05
4.91733e-05
4.7375e-05
4.43198e-05
4.32963e-05
4.10966e-05
4.00674e-05
3.83354e-05
3.74848e-05
3.502e-05
3.26088e-05
3.12669e-05
2.92605e-05
2.67105e-05
2.54698e-05
2.49181e-05
2.40555e-05
2.33979e-05
2.33148e-05
2.3422e-05
2.38043e-05
2.52363e-05
3.19039e-05
3.84473e-05
4.16875e-05
4.45059e-05
4.54945e-05
4.55198e-05
4.5619e-05
4.62144e-05
4.63607e-05
4.45377e-05
3.68834e-05
3.04037e-05
2.65185e-05
2.48967e-05
2.41129e-05
2.39581e-05
2.4067e-05
2.42925e-05
2.44885e-05
2.43391e-05
2.36298e-05
2.23179e-05
2.16064e-05
2.14793e-05
2.16148e-05
2.26935e-05
2.55879e-05
3.31498e-05
3.43365e-05
4.85195e-05
8.21753e-05
0.000205736
0.000188892
0.000174599
0.00016177
0.000149175
0.000146505
0.000139411
0.000141159
0.000140336
0.00014961
0.000151616
0.000145746
0.00014085
0.00012864
0.000116067
0.000113807
0.000112585
0.000112031
0.000112725
0.000113672
0.000113241
0.000109895
0.000106347
9.90506e-05
8.97305e-05
6.52745e-05
4.47461e-05
3.01219e-05
2.00365e-05
1.39838e-05
9.98847e-06
7.95036e-06
7.60212e-06
7.03731e-06
6.70967e-06
6.87635e-06
7.33951e-06
8.556e-06
1.28455e-05
2.51181e-05
5.26717e-05
6.75401e-05
6.96217e-05
6.74558e-05
6.02521e-05
5.57693e-05
5.29022e-05
5.07888e-05
4.83837e-05
4.70437e-05
4.66409e-05
4.60949e-05
4.49934e-05
4.47243e-05
4.50578e-05
4.80968e-05
5.16155e-05
5.28295e-05
5.26689e-05
4.85257e-05
3.7636e-05
2.93495e-05
2.55574e-05
2.24803e-05
2.00682e-05
1.93838e-05
1.94082e-05
2.03848e-05
2.10062e-05
2.06948e-05
2.06135e-05
2.49962e-05
3.61424e-05
4.05645e-05
4.23393e-05
4.25064e-05
4.05552e-05
3.75214e-05
3.54678e-05
3.25649e-05
3.16919e-05
3.60393e-05
4.21073e-05
4.41486e-05
5.08292e-05
5.26115e-05
4.75839e-05
3.92581e-05
3.57411e-05
3.48976e-05
3.50476e-05
3.61866e-05
3.82741e-05
4.08463e-05
5.24303e-05
6.79787e-05
6.95096e-05
6.75192e-05
6.85188e-05
6.97662e-05
6.6149e-05
5.23779e-05
4.21193e-05
3.95186e-05
4.15596e-05
4.67087e-05
4.59207e-05
3.79853e-05
3.01058e-05
2.78729e-05
2.74393e-05
2.68676e-05
2.65688e-05
2.66303e-05
2.69072e-05
2.8003e-05
2.96397e-05
3.04064e-05
3.11763e-05
3.30307e-05
3.62428e-05
4.28182e-05
6.59839e-05
8.29941e-05
8.40841e-05
8.06465e-05
6.2956e-05
4.56648e-05
3.64953e-05
2.91121e-05
2.75683e-05
2.59303e-05
3.0098e-05
3.65279e-05
4.65354e-05
4.52525e-05
5.0199e-05
5.06982e-05
5.20633e-05
5.2425e-05
4.99354e-05
5.13832e-05
5.03553e-05
5.27268e-05
5.03496e-05
5.0467e-05
4.92014e-05
5.0852e-05
4.88668e-05
4.80574e-05
4.47957e-05
4.37426e-05
4.1127e-05
4.01913e-05
3.79453e-05
3.64588e-05
3.29395e-05
3.05375e-05
2.91252e-05
2.78717e-05
2.62185e-05
2.53639e-05
2.52017e-05
2.45202e-05
2.40874e-05
2.40191e-05
2.41843e-05
2.49675e-05
2.80268e-05
3.73676e-05
4.32573e-05
4.55353e-05
4.68614e-05
4.72392e-05
4.70677e-05
4.67191e-05
4.68603e-05
4.72737e-05
4.61429e-05
3.90828e-05
3.22074e-05
2.74889e-05
2.51861e-05
2.42158e-05
2.38238e-05
2.37882e-05
2.41305e-05
2.49591e-05
2.50367e-05
2.44716e-05
2.28971e-05
2.17508e-05
2.13926e-05
2.13782e-05
2.22007e-05
2.38651e-05
3.41788e-05
3.49541e-05
4.446e-05
6.91363e-05
0.000177888
0.000167889
0.000154891
0.00014829
0.000135747
0.000132007
0.000126454
0.000127198
0.000126105
0.000128898
0.000138054
0.000138012
0.000137694
0.000135944
0.00013135
0.000126424
0.000125176
0.000124104
0.000120865
0.000118681
0.000113559
0.000104646
9.60757e-05
8.20701e-05
6.19052e-05
4.36427e-05
2.99693e-05
2.02995e-05
1.38757e-05
1.02094e-05
7.84864e-06
6.97616e-06
6.80311e-06
6.46793e-06
6.45803e-06
6.80282e-06
7.66999e-06
9.65082e-06
1.54302e-05
3.14327e-05
5.99716e-05
6.96834e-05
6.97824e-05
6.51019e-05
5.8814e-05
5.52871e-05
5.27092e-05
5.07438e-05
4.83544e-05
4.69107e-05
4.64615e-05
4.61007e-05
4.49411e-05
4.43878e-05
4.4511e-05
4.64419e-05
5.058e-05
5.24405e-05
5.2721e-05
5.01365e-05
3.93422e-05
3.03915e-05
2.63867e-05
2.31462e-05
2.02334e-05
1.92468e-05
1.918e-05
1.99642e-05
2.08681e-05
2.06858e-05
2.05413e-05
2.39419e-05
3.57236e-05
4.06386e-05
4.26154e-05
4.30747e-05
4.18026e-05
3.82086e-05
3.58025e-05
3.35719e-05
3.3495e-05
3.7911e-05
4.17105e-05
4.43609e-05
5.15351e-05
5.19701e-05
4.4502e-05
3.79264e-05
3.55042e-05
3.50011e-05
3.52314e-05
3.6293e-05
3.82496e-05
4.08306e-05
5.25135e-05
6.90153e-05
7.08593e-05
6.88947e-05
6.98331e-05
7.11541e-05
6.74664e-05
5.26274e-05
4.23398e-05
4.12374e-05
4.54034e-05
4.97781e-05
4.64663e-05
3.55242e-05
2.83967e-05
2.65598e-05
2.65625e-05
2.65985e-05
2.65591e-05
2.66513e-05
2.69174e-05
2.78768e-05
2.9492e-05
3.02581e-05
3.10044e-05
3.28542e-05
3.58502e-05
4.20431e-05
6.48553e-05
8.19792e-05
8.3111e-05
7.93618e-05
6.21502e-05
4.48842e-05
3.57491e-05
2.92587e-05
2.85169e-05
2.77773e-05
3.48202e-05
4.28146e-05
4.71825e-05
4.6308e-05
4.92911e-05
5.08526e-05
5.02281e-05
5.06911e-05
4.79816e-05
4.93753e-05
4.91721e-05
5.07415e-05
4.80101e-05
4.64694e-05
4.4757e-05
4.55047e-05
4.29524e-05
4.27461e-05
4.10155e-05
4.03575e-05
3.8214e-05
3.68808e-05
3.46375e-05
3.26708e-05
3.13106e-05
2.94153e-05
2.86365e-05
2.7532e-05
2.61715e-05
2.58109e-05
2.57971e-05
2.54241e-05
2.50861e-05
2.5083e-05
2.54781e-05
2.71178e-05
3.37053e-05
4.27867e-05
4.6872e-05
4.78766e-05
4.80685e-05
4.80322e-05
4.7963e-05
4.74554e-05
4.74962e-05
4.78648e-05
4.71911e-05
4.11432e-05
3.39053e-05
2.86163e-05
2.57101e-05
2.44634e-05
2.38524e-05
2.37116e-05
2.43658e-05
2.63465e-05
2.69526e-05
2.65091e-05
2.45722e-05
2.2379e-05
2.16163e-05
2.12183e-05
2.24349e-05
2.32446e-05
3.45336e-05
3.52626e-05
4.17001e-05
5.92795e-05
0.000143474
0.000139425
0.00013069
0.000125419
0.000117412
0.000109603
0.000105431
0.000106427
0.000106484
0.000108159
0.000113658
0.000115819
0.000118983
0.000125622
0.000125598
0.000123345
0.000121824
0.000119902
0.00011532
0.000111111
9.9582e-05
9.00938e-05
7.71484e-05
5.83795e-05
4.18924e-05
2.885e-05
1.98154e-05
1.36184e-05
9.83e-06
7.87518e-06
6.60132e-06
6.24981e-06
6.29754e-06
6.23859e-06
6.33189e-06
6.96249e-06
8.25917e-06
1.10315e-05
1.84639e-05
4.01696e-05
6.52065e-05
7.07248e-05
6.93479e-05
6.25203e-05
5.74795e-05
5.48882e-05
5.26501e-05
5.07376e-05
4.84459e-05
4.66989e-05
4.61133e-05
4.57982e-05
4.47986e-05
4.40894e-05
4.41074e-05
4.53048e-05
4.93941e-05
5.18831e-05
5.2638e-05
5.0932e-05
4.09911e-05
3.16679e-05
2.74057e-05
2.37882e-05
2.0487e-05
1.91245e-05
1.89379e-05
1.95917e-05
2.07772e-05
2.07206e-05
2.05471e-05
2.32026e-05
3.51704e-05
4.07694e-05
4.2863e-05
4.36262e-05
4.2971e-05
3.93199e-05
3.63931e-05
3.52238e-05
3.57721e-05
3.93734e-05
4.1589e-05
4.5156e-05
5.13855e-05
4.9944e-05
4.15851e-05
3.70036e-05
3.5508e-05
3.52552e-05
3.55092e-05
3.64899e-05
3.8314e-05
4.08453e-05
5.26244e-05
7.01375e-05
7.22784e-05
7.02872e-05
7.11338e-05
7.25808e-05
6.89177e-05
5.28711e-05
4.32419e-05
4.35827e-05
5.00311e-05
5.08018e-05
4.58323e-05
3.26442e-05
2.68072e-05
2.54879e-05
2.55936e-05
2.60798e-05
2.64029e-05
2.6624e-05
2.69079e-05
2.77994e-05
2.92984e-05
2.99932e-05
3.0768e-05
3.26284e-05
3.55241e-05
4.1157e-05
6.43047e-05
8.13318e-05
8.20552e-05
7.77149e-05
6.09248e-05
4.39577e-05
3.48984e-05
2.94935e-05
2.85108e-05
2.90281e-05
3.81087e-05
4.55857e-05
4.71062e-05
4.6787e-05
4.78991e-05
4.85989e-05
4.73674e-05
4.81195e-05
4.70696e-05
4.87132e-05
4.89906e-05
4.98934e-05
4.71073e-05
4.41578e-05
4.22368e-05
4.09001e-05
3.73973e-05
3.65621e-05
3.51489e-05
3.42827e-05
3.41976e-05
3.30738e-05
3.30327e-05
3.18796e-05
3.13519e-05
2.94225e-05
2.89098e-05
2.74852e-05
2.68339e-05
2.68439e-05
2.67969e-05
2.64499e-05
2.63957e-05
2.65208e-05
2.74236e-05
3.06538e-05
4.0533e-05
4.66709e-05
4.89553e-05
4.9264e-05
4.90452e-05
4.87286e-05
4.83615e-05
4.7812e-05
4.77836e-05
4.8353e-05
4.80405e-05
4.30109e-05
3.55721e-05
2.98516e-05
2.64772e-05
2.46981e-05
2.39252e-05
2.3859e-05
2.48146e-05
2.68113e-05
2.84254e-05
2.90236e-05
2.83458e-05
2.50957e-05
2.29889e-05
2.15151e-05
2.33497e-05
2.35076e-05
3.41146e-05
3.51357e-05
3.93934e-05
5.23726e-05
0.000107077
0.000104899
0.000100444
9.37266e-05
8.77482e-05
7.75837e-05
7.56583e-05
7.69393e-05
7.88965e-05
8.36233e-05
8.76258e-05
9.12577e-05
9.29968e-05
9.61444e-05
0.000102991
0.000102796
0.000101989
9.98723e-05
9.56809e-05
8.87597e-05
7.95326e-05
6.76959e-05
5.13403e-05
3.72189e-05
2.65297e-05
1.83228e-05
1.29513e-05
9.34257e-06
7.48377e-06
6.56544e-06
5.89367e-06
5.89403e-06
6.05397e-06
6.02374e-06
6.26218e-06
7.19829e-06
8.96648e-06
1.28057e-05
2.24559e-05
4.93528e-05
6.88687e-05
7.15496e-05
6.76163e-05
5.99724e-05
5.6484e-05
5.44958e-05
5.27261e-05
5.07706e-05
4.86539e-05
4.639e-05
4.54776e-05
4.51629e-05
4.43902e-05
4.37453e-05
4.37337e-05
4.45196e-05
4.83115e-05
5.126e-05
5.24087e-05
5.13274e-05
4.261e-05
3.2937e-05
2.84641e-05
2.4546e-05
2.07605e-05
1.90487e-05
1.87248e-05
1.92502e-05
2.0717e-05
2.0796e-05
2.06117e-05
2.28087e-05
3.48926e-05
4.115e-05
4.31133e-05
4.40665e-05
4.38694e-05
4.09142e-05
3.73054e-05
3.65628e-05
3.73951e-05
4.00749e-05
4.12768e-05
4.56309e-05
4.99272e-05
4.68982e-05
3.94702e-05
3.64455e-05
3.56532e-05
3.55197e-05
3.57911e-05
3.67528e-05
3.84243e-05
4.08988e-05
5.27425e-05
7.13174e-05
7.37256e-05
7.16866e-05
7.24228e-05
7.39473e-05
7.02845e-05
5.31428e-05
4.47718e-05
4.65234e-05
5.17642e-05
5.0794e-05
4.2212e-05
3.11638e-05
2.61971e-05
2.48868e-05
2.49077e-05
2.55253e-05
2.61275e-05
2.65102e-05
2.6873e-05
2.77829e-05
2.9268e-05
2.99404e-05
3.06301e-05
3.24195e-05
3.52202e-05
4.06598e-05
6.35174e-05
8.04392e-05
8.07385e-05
7.58268e-05
5.88819e-05
4.30641e-05
3.30755e-05
2.93608e-05
2.84429e-05
3.02554e-05
4.11076e-05
4.59787e-05
4.85364e-05
4.7592e-05
4.83019e-05
4.7178e-05
4.67063e-05
4.71799e-05
4.70292e-05
4.77779e-05
4.85309e-05
4.85382e-05
4.63629e-05
4.37243e-05
4.16581e-05
3.78073e-05
3.52116e-05
3.37485e-05
3.34948e-05
3.30023e-05
3.34785e-05
3.27529e-05
3.31205e-05
3.1891e-05
3.16405e-05
2.97725e-05
2.93635e-05
2.78098e-05
2.78847e-05
2.80043e-05
2.80357e-05
2.79194e-05
2.78813e-05
2.81409e-05
2.97355e-05
3.66054e-05
4.50232e-05
4.89376e-05
5.01516e-05
5.01444e-05
4.94189e-05
4.90882e-05
4.84473e-05
4.796e-05
4.7947e-05
4.86817e-05
4.84733e-05
4.42908e-05
3.68974e-05
3.0996e-05
2.70606e-05
2.49632e-05
2.4383e-05
2.46117e-05
2.53702e-05
2.67856e-05
2.88055e-05
3.00112e-05
3.08016e-05
2.93562e-05
2.77494e-05
2.3081e-05
2.5522e-05
2.44793e-05
3.39173e-05
3.491e-05
3.7094e-05
4.68199e-05
6.97251e-05
6.86161e-05
6.42568e-05
5.78468e-05
5.29713e-05
4.7172e-05
4.70695e-05
4.82736e-05
5.05972e-05
5.66635e-05
6.01665e-05
6.52044e-05
6.72682e-05
6.82966e-05
7.21781e-05
7.26999e-05
7.2243e-05
7.05491e-05
6.66499e-05
6.21767e-05
5.20088e-05
4.15616e-05
3.10674e-05
2.27438e-05
1.63398e-05
1.16257e-05
8.86152e-06
7.04253e-06
6.34641e-06
5.85948e-06
5.52781e-06
5.65775e-06
5.68996e-06
5.71871e-06
6.21096e-06
7.60586e-06
1.01044e-05
1.5335e-05
2.77043e-05
5.73912e-05
7.13937e-05
7.19004e-05
6.51428e-05
5.76475e-05
5.52837e-05
5.39309e-05
5.2977e-05
5.08492e-05
4.86528e-05