/*--------------------------------*- C++ -*----------------------------------*\
| =========                 |                                                 |
| \\      /  F ield         | OpenFOAM: The Open Source CFD Toolbox           |
|  \\    /   O peration     | Version:  2.4.0                                 |
|   \\  /    A nd           | Web:      www.OpenFOAM.org                      |
|    \\/     M anipulation  |                                                 |
\*---------------------------------------------------------------------------*/
FoamFile
{
    version     2.0;
    format      ascii;
    class       volScalarField;
    location    "0.14";
    object      pMean;
}
// * * * * * * * * * * * * * * * * * * * * * * * * * * * * * * * * * * * * * //

dimensions      [0 2 -2 0 0 0 0];

internalField   nonuniform List<scalar> 
17600
(
109.881
93.716
88.8821
87.4085
86.1176
84.813
83.5785
82.4022
81.2708
80.1369
79.0231
77.8984
76.8097
75.704
74.6405
73.5286
72.4256
71.2159
69.8141
67.6748
107.985
93.765
88.9226
87.4179
86.1208
84.8135
83.5788
82.4024
81.271
80.137
79.0231
77.8986
76.8097
75.7046
74.6404
73.5301
72.4262
71.2197
69.8224
67.9535
106.581
94.0181
89.0647
87.4555
86.1346
84.8179
83.5808
82.4039
81.2722
80.1376
79.0234
77.8984
76.81
75.7043
74.6411
73.5294
72.429
71.2191
69.8741
68.0992
105.61
94.355
89.2812
87.5194
86.1636
84.8332
83.5894
82.41
81.2763
80.1402
79.0246
77.8998
76.8104
75.7071
74.6418
73.5365
72.4305
71.2377
69.9198
68.2706
104.792
94.6848
89.5404
87.5994
86.2053
84.8621
83.6086
82.4241
81.2862
80.1471
79.0286
77.9018
76.8126
75.7082
74.6458
73.5374
72.4426
71.2488
69.995
68.4569
104.023
94.9725
89.8123
87.6797
86.2466
84.8989
83.6373
82.4469
81.303
80.1596
79.0358
77.9083
76.8156
75.7157
74.6491
73.5494
72.4508
71.2734
70.0798
68.6684
103.299
95.2153
90.083
87.7546
86.2781
84.9331
83.67
82.4752
81.325
80.1765
79.0469
77.916
76.8218
75.7225
74.6564
73.5604
72.4625
71.307
70.157
68.9183
102.63
95.4163
90.3462
87.8265
86.2993
84.9597
83.702
82.5056
81.3488
80.1952
79.059
77.926
76.8288
75.7325
74.6665
73.5747
72.4835
71.3403
70.2368
69.2251
102.022
95.5794
90.5942
87.9006
86.3121
84.9779
83.7308
82.5358
81.3731
80.2142
79.0711
77.9364
76.8351
75.744
74.6735
73.5946
72.4965
71.3887
70.2924
69.5307
101.476
95.7058
90.8239
87.9793
86.3186
84.9884
83.7556
82.5647
81.3967
80.232
79.0826
77.9454
76.8426
75.7543
74.6854
73.612
72.5205
71.4355
70.3769
69.8655
100.991
95.7978
91.0343
88.0627
86.32
84.9923
83.7764
82.5921
81.4195
80.2488
79.0928
77.9543
76.8483
75.765
74.6948
73.6314
72.5472
71.4846
70.4913
70.149
100.565
95.8596
91.2254
88.1503
86.3175
84.9906
83.7932
82.6176
81.4416
80.2645
79.1021
77.9618
76.8552
75.7749
74.7072
73.6507
72.5764
71.5408
70.6108
70.3992
100.194
95.8969
91.3967
88.2404
86.3127
84.9844
83.8067
82.6411
81.4624
80.2788
79.1104
77.9685
76.8614
75.7849
74.7203
73.6707
72.6114
71.5999
70.7331
70.627
99.8762
95.9166
91.5476
88.3282
86.3075
84.9752
83.8173
82.6621
81.4821
80.2918
79.118
77.9745
76.8683
75.7947
74.7344
73.692
72.6484
71.6624
70.8545
70.8353
99.6083
95.9258
91.6771
88.4071
86.3037
84.9648
83.8257
82.6807
81.4998
80.3034
79.1248
77.9799
76.8748
75.805
74.7492
73.7152
72.6868
71.7279
70.9738
71.0234
99.388
95.9292
91.7841
88.4748
86.3018
84.9542
83.832
82.6964
81.5154
80.3135
79.1307
77.9852
76.8815
75.815
74.765
73.7383
72.7286
71.7927
71.097
71.192
99.2139
95.9294
91.8684
88.5301
86.3017
84.9442
83.8367
82.7091
81.5285
80.3217
79.1361
77.9898
76.8886
75.8254
74.7821
73.7627
72.7716
71.858
71.2154
71.3655
99.0847
95.9281
91.9305
88.5726
86.3028
84.936
83.84
82.7191
81.5386
80.3289
79.1404
77.9949
76.8949
75.8367
74.7979
73.7905
72.8129
71.9281
71.3126
71.5217
98.9993
95.9264
91.9715
88.6014
86.3045
84.9298
83.8423
82.7258
81.5461
80.334
79.1447
77.9994
76.9023
75.8473
74.8162
73.8169
72.8568
71.9962
71.4108
71.6812
98.9569
95.9252
91.9918
88.6161
86.3057
84.9266
83.8436
82.7296
81.5501
80.3379
79.1478
78.0044
76.909
75.8588
74.8338
73.845
72.9004
72.0638
71.5134
71.8153
98.957
95.9251
91.9919
88.6162
86.3059
84.9266
83.844
82.7303
81.551
80.3401
79.1503
78.0092
76.9161
75.8703
74.8526
73.8727
72.9457
72.128
71.625
71.9284
98.9998
95.9259
91.9722
88.6013
86.3055
84.9297
83.8439
82.7276
81.5491
80.3401
79.1528
78.0132
76.924
75.8807
74.8726
73.9003
72.9919
72.1901
71.7312
72.0658
99.0854
95.9275
91.9317
88.5725
86.3043
84.9361
83.8425
82.7223
81.5435
80.3395
79.1536
78.0189
76.9303
75.8938
74.8901
73.9317
73.0328
72.2583
71.7976
72.1655
99.215
95.9285
91.87
88.53
86.3039
84.9444
83.8402
82.7137
81.5353
80.3363
79.1545
78.0232
76.9377
75.9055
74.9093
73.962
73.0759
72.322
71.8647
72.2938
99.3893
95.9281
91.786
88.4748
86.3046
84.9544
83.8365
82.7021
81.5245
80.3316
79.1549
78.0273
76.9454
75.9171
74.9293
73.9918
73.1207
72.3816
71.9398
72.4016
99.6098
95.9245
91.6792
88.4074
86.3069
84.9652
83.831
82.6877
81.5109
80.3253
79.1543
78.0314
76.9525
75.9292
74.9487
74.0228
73.165
72.4426
72.0121
72.4926
99.8781
95.9151
91.55
88.3286
86.3112
84.9759
83.8235
82.6705
81.4953
80.3172
79.1532
78.0347
76.9599
75.941
74.9685
74.0541
73.2099
72.5048
72.0803
72.568
100.196
95.8955
91.3991
88.2409
86.3168
84.9855
83.8137
82.6507
81.478
80.3075
79.1513
78.0372
76.9672
75.9527
74.9885
74.0857
73.2557
72.5685
72.1455
72.6258
100.567
95.8582
91.2277
88.1508
86.322
84.9922
83.8009
82.6285
81.4593
80.2962
79.1486
78.0386
76.9744
75.964
75.0086
74.1171
73.303
72.6336
72.2114
72.6634
100.993
95.7963
91.0367
88.0633
86.3247
84.9947
83.7846
82.6041
81.4396
80.2836
79.1449
78.039
76.9815
75.9745
75.0289
74.1478
73.3517
72.6997
72.2831
72.6776
101.478
95.7041
90.8264
87.9802
86.3233
84.9917
83.7644
82.578
81.4189
80.2697
79.14
78.0383
76.9881
75.9842
75.0492
74.1774
73.4019
72.7661
72.3646
72.6676
102.024
95.5776
90.5968
87.9018
86.3168
84.9821
83.7401
82.5503
81.3973
80.2547
79.1338
78.0365
76.994
75.9929
75.0691
74.205
73.453
72.8303
72.4575
72.6387
102.632
95.4146
90.3488
87.8279
86.3039
84.9648
83.7119
82.5215
81.3751
80.2388
79.1264
78.034
76.9988
76.0008
75.0873
74.2306
73.5011
72.891
72.5483
72.6124
103.301
95.2136
90.0855
87.7563
86.2827
84.9391
83.6805
82.4924
81.353
80.223
79.1186
78.0313
77.0026
76.0078
75.1029
74.2537
73.5424
72.9458
72.6225
72.5778
104.025
94.9709
89.8148
87.6816
86.2513
84.9056
83.6485
82.4652
81.3328
80.2086
79.1117
78.029
77.0058
76.0139
75.1159
74.273
73.5761
72.9901
72.6803
72.5721
104.795
94.6834
89.5428
87.6015
86.2101
84.8693
83.6203
82.4433
81.3173
80.1982
79.1073
78.0281
77.009
76.0193
75.1261
74.2881
73.601
73.0233
72.7184
72.5679
105.613
94.3537
89.2836
87.5216
86.1685
84.8408
83.6015
82.4298
81.3083
80.1926
79.1055
78.0285
77.0118
76.0235
75.1333
74.2987
73.6172
73.0457
72.7387
72.5723
106.584
94.017
89.0671
87.4578
86.1396
84.8258
83.5932
82.4241
81.3047
80.1907
79.1053
78.0294
77.0137
76.0263
75.1375
74.3048
73.6259
73.0582
72.7484
72.5842
107.988
93.764
88.9251
87.4202
86.1259
84.8215
83.5913
82.4226
81.3038
80.1903
79.1055
78.0301
77.0145
76.0274
75.1391
74.3071
73.629
73.0627
72.7509
72.6044
109.884
93.715
88.8846
87.4107
86.1226
84.821
83.591
82.4224
81.3036
80.1903
79.1055
78.0302
77.0145
76.0275
75.1392
74.3072
73.6292
73.0628
72.75
72.6447
65.8604
65.5083
64.8215
63.9753
63.0257
62.0084
60.8786
59.629
58.4816
57.3979
56.4995
55.8033
55.2631
54.7739
54.246
53.621
52.8865
52.2088
51.6771
51.3842
51.3778
51.6137
52.0983
52.812
53.7228
54.8165
56.0245
57.2839
58.5372
59.7222
60.8043
61.765
62.6048
63.3421
63.9878
64.5452
65.0558
65.5537
66.0479
66.5066
66.8912
67.1943
67.4479
67.702
67.9716
68.261
68.6014
68.9895
69.3653
69.7149
70.0621
70.4047
70.7006
70.9159
71.0706
71.1853
71.2598
71.2893
71.2865
71.2675
71.2387
71.1975
71.1216
71.0262
70.9283
70.8186
70.6925
70.5577
70.4083
70.2387
70.0527
69.8449
69.6096
69.343
69.051
68.7686
68.5461
68.403
68.3341
68.3464
68.4432
68.6182
68.862
69.1541
69.4889
69.8533
70.2338
70.6229
71.0127
71.3978
71.7702
72.1167
72.4372
72.7224
72.9647
73.1582
73.3183
73.449
73.5682
73.6704
73.764
73.8517
73.9492
74.0606
74.2002
74.3555
74.533
74.7233
74.9363
75.1601
75.3946
75.6251
75.861
76.084
76.3134
76.5299
76.7536
76.9564
77.1526
77.352
77.5333
77.7026
77.8336
77.9395
78.0394
78.1149
78.2251
78.2917
78.3867
78.4677
78.5355
78.6319
78.689
78.7705
78.8269
78.8979
78.956
79.0193
79.0779
79.1294
79.1852
79.2187
79.2684
79.2939
79.3385
79.3632
79.4099
79.4423
79.5051
79.5603
79.638
79.7112
79.8034
79.8912
79.9826
80.0649
80.1445
80.2104
80.2673
80.3059
80.3325
80.3461
80.3468
80.3348
80.3157
80.2845
80.2503
80.2056
80.1639
80.1117
80.0629
80.0041
79.9519
79.8819
79.8237
79.7382
79.678
79.5755
79.5205
79.3944
79.3461
79.1837
79.1308
78.9108
78.8298
78.5406
78.3962
78.0136
77.7672
77.254
76.8368
76.1206
75.4093
74.3197
73.0059
71.1367
68.4483
63.9609
58.4739
33.322
66.3285
65.8011
65.1783
64.4355
63.5778
62.6468
61.6266
60.4955
59.4488
58.4639
57.6217
56.9623
56.4181
55.9143
55.3885
54.7858
54.081
53.4105
52.8854
52.571
52.5363
52.7549
53.2239
53.9215
54.8114
55.8666
57.0284
58.2332
59.4293
60.5713
61.626
62.5677
63.3879
64.101
64.7175
65.2327
65.6884
66.1225
66.5463
66.9382
67.2635
67.5048
67.6898
67.8734
68.0758
68.2966
68.5819
68.9387
69.3013
69.6378
69.965
70.2901
70.5726
70.7791
70.9221
71.0165
71.0624
71.0585
71.0184
70.9591
70.8938
70.8177
70.7036
70.5753
70.4479
70.3095
70.1561
69.9951
69.8198
69.6275
69.4245
69.2036
68.958
68.6861
68.3985
68.1359
67.9444
67.8402
67.819
67.8882
68.0474
68.2853
68.5907
68.9406
69.3252
69.7317
70.1491
70.5689
70.9863
71.3979
71.792
72.1557
72.4899
72.7847
73.0343
73.2324
73.3966
73.5284
73.6454
73.741
73.8253
73.8998
73.9841
74.0851
74.2184
74.3684
74.5455
74.7392
74.9625
75.196
75.4396
75.6727
75.9074
76.1229
76.3443
76.55
76.7613
76.9555
77.1392
77.3312
77.5076
77.6727
77.8018
77.9042
78.0035
78.0801
78.1887
78.2653
78.3581
78.4567
78.5253
78.6346
78.7076
78.7987
78.8694
78.9505
79.02
79.0934
79.1591
79.2213
79.2812
79.3219
79.3736
79.4002
79.4444
79.4661
79.5114
79.5391
79.5999
79.6454
79.7178
79.7771
79.8584
79.9283
80.0057
80.0695
80.134
80.1818
80.2226
80.2436
80.2532
80.2489
80.2309
80.2004
80.1615
80.1108
80.0573
79.9934
79.9335
79.8623
79.7984
79.7236
79.6616
79.5766
79.512
79.4101
79.3439
79.22
79.1572
79.0083
78.951
78.7677
78.7023
78.4622
78.3601
78.0473
77.8696
77.454
77.1566
76.5932
76.1013
75.2959
74.4624
73.2177
71.6856
69.4289
66.5291
60.491
54.7496
26.3335
66.7856
66.2042
65.5417
64.8193
64.0171
63.1475
62.2155
61.1979
60.2435
59.35
58.5601
57.9389
57.4019
56.8919
56.3721
55.8046
55.1575
54.5295
54.0395
53.7308
53.6924
53.9071
54.3618
55.0376
55.8945
56.9014
58.0095
59.161
60.3056
61.4075
62.4337
63.3554
64.1586
64.8509
65.4426
65.9239
66.3292
66.7036
67.0612
67.3834
67.6453
67.8239
67.9413
68.0541
68.1899
68.3452
68.5751
68.8999
69.2505
69.5784
69.893
70.2046
70.4774
70.6803
70.8176
70.897
70.9181
70.883
70.8067
70.7077
70.6063
70.4922
70.3405
70.1806
70.0245
69.8572
69.6771
69.4904
69.2897
69.076
68.8562
68.622
68.367
68.0927
67.8139
67.5754
67.4174
67.353
67.38
67.5054
67.727
68.0273
68.3927
68.8002
69.2348
69.6833
70.1372
70.5882
71.032
71.4669
71.8795
72.2586
72.6059
72.9089
73.1655
73.368
73.5356
73.6679
73.7823
73.8708
73.9464
74.0076
74.0798
74.1692
74.295
74.4375
74.6132
74.8088
75.0426
75.2851
75.5382
75.7741
76.0088
76.2183
76.4325
76.6275
76.8241
77.0065
77.1766
77.3567
77.5262
77.6826
77.8079
77.9038
78.0009
78.0761
78.1795
78.2651
78.3531
78.4662
78.5367
78.6556
78.7437
78.8448
78.927
79.0211
79.1019
79.1859
79.2574
79.3287
79.3908
79.4383
79.49
79.5189
79.5614
79.5809
79.6223
79.6466
79.7022
79.7382
79.8045
79.8522
79.9231
79.9781
80.0421
80.0896
80.1387
80.1696
80.1935
80.1981
80.1914
80.1693
80.134
80.0834
80.0259
79.9542
79.8818
79.7965
79.7186
79.6263
79.5488
79.4554
79.3843
79.2827
79.2123
79.0939
79.02
78.8771
78.8023
78.6348
78.5604
78.3611
78.2735
78.0186
77.8872
77.5542
77.3349
76.8918
76.528
75.9251
75.3446
74.4657
73.4959
72.0766
70.3832
67.612
64.818
57.0256
51.1587
24.5659
67.155
66.6081
65.9471
65.1852
64.384
63.5575
62.7121
61.8114
60.9461
60.1395
59.4063
58.8104
58.2826
57.7781
57.2737
56.7521
56.169
55.6051
55.1683
54.8969
54.8705
55.083
55.5146
56.1568
56.9728
57.9272
58.9763
60.071
61.1633
62.2216
63.216
64.1159
64.9031
65.5796
66.1528
66.6092
66.9723
67.2902
67.5829
67.8371
68.0328
68.1497
68.2019
68.2475
68.3198
68.4165
68.5925
68.8806
69.2166
69.5385
69.8483
70.1512
70.4186
70.6223
70.7581
70.8251
70.8245
70.7615
70.6513
70.5144
70.3771
70.2229
70.0348
69.8464
69.6616
69.4661
69.2596
69.0478
68.8234
68.5905
68.3558
68.109
67.8458
67.5715
67.3055
67.0942
66.9714
66.9471
67.0217
67.2021
67.4836
67.8446
68.2684
68.7331
69.2177
69.7077
70.1982
70.6801
71.1492
71.6043
72.0326
72.4252
72.7844
73.0938
73.3565
73.563
73.7338
73.8653
73.9767
74.0571
74.124
74.1725
74.2339
74.3109
74.428
74.5611
74.7341
74.93
75.1739
75.4248
75.687
75.9263
76.1629
76.3678
76.5762
76.7599
76.9413
77.1082
77.2644
77.4277
77.589
77.7326
77.8532
77.9394
78.0333
78.1042
78.2017
78.2922
78.3761
78.4959
78.572
78.6968
78.7964
78.9085
79.0005
79.1073
79.1998
79.295
79.3724
79.4509
79.5147
79.5674
79.6188
79.6504
79.6908
79.708
79.7451
79.7642
79.8124
79.8376
79.8985
79.9344
79.9984
80.0391
80.0933
80.1237
80.1598
80.1718
80.1816
80.1683
80.1474
80.1063
80.0553
79.9838
79.9084
79.8145
79.7225
79.6159
79.5196
79.4066
79.3138
79.2028
79.1194
79.0023
78.9225
78.7904
78.7062
78.5462
78.4563
78.2713
78.1765
77.9621
77.8468
77.5805
77.4123
77.0651
76.7963
76.3298
75.8911
75.2481
74.5718
73.6088
72.5336
70.8831
69.1981
65.673
63.2908
53.8439
47.7142
25.2584
67.4727
66.988
66.356
65.5517
64.7229
63.931
63.1702
62.3906
61.6265
60.9053
60.227
59.648
59.1367
58.6497
58.1681
57.6947
57.1819
56.6887
56.3113
56.0886
56.0815
56.2863
56.6824
57.2797
58.0468
58.9422
59.9274
60.9615
61.9992
63.0083
63.9656
64.8413
65.6139
66.2764
66.8358
67.2769
67.6086
67.8741
68.1027
68.2921
68.4236
68.4815
68.4724
68.4562
68.4714
68.5168
68.6409
68.8882
69.2042
69.522
69.8324
70.134
70.4012
70.6082
70.7442
70.8002
70.7798
70.6923
70.5516
70.3795
70.2074
70.0126
69.791
69.5762
69.363
69.1395
68.9069
68.671
68.4259
68.1774
67.9301
67.6728
67.4028
67.1311
66.8813
66.6989
66.6118
66.6274
66.7484
66.9813
67.3197
67.7392
68.2194
68.739
69.2727
69.8042
70.331
70.8434
71.3368
71.8097
72.2515
72.6552
73.0238
73.3375
73.605
73.8141
73.9881
74.1178
74.2254
74.2964
74.3544
74.3909
74.4434
74.508
74.6149
74.7368
74.9064
75.1006
75.3532
75.6109
75.883
76.1252
76.366
76.5675
76.7716
76.9439
77.1108
77.2589
77.4016
77.544
77.6955
77.8228
77.9379
78.011
78.1013
78.1649
78.2573
78.3468
78.4299
78.5473
78.6326
78.7575
78.8661
78.9875
79.0896
79.2065
79.3107
79.4177
79.5037
79.5864
79.6542
79.7086
79.7608
79.7918
79.8321
79.844
79.8789
79.8898
79.9315
79.9448
80.0004
80.024
80.084
80.111
80.1573
80.1709
80.1954
80.1893
80.1864
80.1549
80.1198
80.06
79.9928
79.9016
79.8075
79.6916
79.5803
79.4513
79.3376
79.202
79.0956
78.9644
78.8685
78.7342
78.646
78.4983
78.4043
78.227
78.1204
77.9188
77.8007
77.573
77.4268
77.1491
76.9408
76.5804
76.2621
75.7664
75.2646
74.5676
73.8189
72.7101
71.6183
69.5652
68.1448
63.62
61.8549
51.1349
44.3169
26.0848
67.8187
67.3803
66.7356
65.8906
65.0351
64.2766
63.6019
62.9467
62.2939
61.6562
61.0369
60.4823
59.9948
59.5349
59.0833
58.6546
58.2159
57.7931
57.4718
57.2916
57.3013
57.5003
57.862
58.407
59.1137
59.942
60.8603
61.8312
62.8133
63.7707
64.684
65.5313
66.2897
66.9405
67.4843
67.9115
68.2212
68.4421
68.6113
68.741
68.8137
68.8187
68.7566
68.6853
68.6518
68.6521
68.725
68.9289
69.2213
69.5348
69.8503
70.1569
70.4285
70.6405
70.7757
70.8217
70.7828
70.6747
70.5073
70.3024
70.0961
69.8636
69.6127
69.3735
69.1315
68.879
68.621
68.364
68.1023
67.8419
67.5852
67.32
67.0464
66.7808
66.5492
66.3962
66.344
66.3973
66.5629
66.8458
67.2377
67.7126
68.2464
68.8177
69.3985
69.9709
70.5332
71.0755
71.5927
72.082
72.5353
72.9476
73.3232
73.6384
73.909
74.1183
74.2946
74.4216
74.5248
74.5849
74.6338
74.6593
74.7051
74.7581
74.8539
74.9624
75.1279
75.3189
75.5783
75.8405
76.1224
76.3678
76.6132
76.8127
77.0139
77.1754
77.3291
77.4565
77.5867
77.7055
77.8449
77.953
78.0616
78.1189
78.205
78.2588
78.3464
78.431
78.5145
78.6235
78.7179
78.8384
78.9538
79.0802
79.1964
79.3173
79.4336
79.5513
79.6495
79.7338
79.8089
79.8617
79.9157
79.9411
79.9832
79.987
80.0224
80.0231
80.0609
80.0623
80.1133
80.1226
80.1801
80.191
80.2332
80.2287
80.2462
80.2211
80.2091
80.1566
80.1101
80.0278
79.948
79.8336
79.7244
79.5835
79.456
79.3023
79.1732
79.0141
78.8948
78.7428
78.6343
78.4826
78.384
78.2206
78.1142
77.9215
77.7959
77.5772
77.4353
77.1893
77.018
76.7204
76.4817
76.095
75.7402
75.1912
74.6638
73.8528
73.1203
71.7307
70.8327
68.1253
67.209
61.5512
60.2292
48.9199
40.8944
26.2247
68.2708
67.8235
67.0788
66.1676
65.2959
64.582
64.0025
63.472
62.9365
62.3855
61.8333
61.3187
60.8582
60.4305
60.0159
59.6281
59.2572
58.9019
58.6285
58.4815
58.505
58.702
59.0398
59.5327
60.1738
60.932
61.7819
62.6884
63.6108
64.5137
65.3804
66.1909
66.9283
67.5667
68.0937
68.5011
68.792
68.9791
69.0996
69.1768
69.1988
69.159
69.0545
68.9357
68.8633
68.8249
68.849
69.0086
69.2759
69.5832
69.9056
70.2207
70.4992
70.7153
70.8492
70.8874
70.8339
70.7079
70.5155
70.2793
70.0417
69.7766
69.5017
69.2393
68.9675
68.686
68.4039
68.1303
67.8566
67.5884
67.3255
67.0561
66.783
66.5267
66.3154
66.1915
66.1722
66.2613
66.4691
66.7987
67.24
67.7661
68.3503
68.9691
69.5938
70.2052
70.8016
71.3724
71.9135
72.4184
72.8821
73.3006
73.6806
73.9945
74.2663
74.473
74.6497
74.7716
74.8697
74.9186
74.9584
74.9739
75.0151
75.0575
75.1423
75.2363
75.3966
75.5836
75.8467
76.1112
76.4017
76.6503
76.9009
77.0989
77.2982
77.4494
77.5924
77.6985
77.8169
77.9112
78.0371
78.1229
78.2242
78.2632
78.344
78.3857
78.4695
78.5452
78.6299
78.7248
78.8277
78.9376
79.0596
79.186
79.3206
79.4386
79.5729
79.6921
79.8083
79.8895
79.9766
80.0222
80.0828
80.0957
80.1435
80.1331
80.1751
80.1594
80.2026
80.1858
80.2401
80.2275
80.288
80.2742
80.3218
80.2926
80.314
80.2627
80.2508
80.1691
80.1189
80.0058
79.9209
79.7764
79.6581
79.4887
79.35
79.1692
79.028
78.844
78.7147
78.5389
78.4204
78.2468
78.1397
77.955
77.8402
77.6252
77.488
77.2419
77.0856
76.8073
76.6254
76.2888
76.0438
75.599
75.2463
74.5842
74.1227
73.0559
72.5029
70.603
70.1039
66.581
66.2414
59.5931
58.2388
47.1328
37.4623
25.8588
68.8648
68.3487
67.3791
66.3456
65.472
64.8328
64.3629
63.9561
63.5372
63.0802
62.6037
62.1399
61.7108
61.3176
60.9455
60.5972
60.2798
59.9867
59.7589
59.6404
59.6734
59.8685
60.1919
60.6438
61.2245
61.9147
62.6947
63.5325
64.392
65.2398
66.0581
66.8271
67.5308
68.1471
68.6539
69.0393
69.311
69.4754
69.5581
69.593
69.5753
69.4985
69.3601
69.2047
69.1026
69.0329
69.0125
69.1305
69.3712
69.6687
69.9961
70.3207
70.6069
70.8277
70.9621
70.9955
70.9315
70.7887
70.5705
70.3056
70.0417
69.751
69.4578
69.1717
68.8697
68.56
68.2571
67.9724
67.692
67.4202
67.1545
66.8842
66.6155
66.3717
66.1823
66.0871
66.1002
66.223
66.4697
66.8426
67.3285
67.9015
68.5315
69.1929
69.8568
70.5042
71.1319
71.7294
72.2939
72.8143
73.2886
73.7114
74.0936
74.404
74.674
74.876
75.0503
75.1648
75.2563
75.2931
75.3239
75.3307
75.3686
75.402
75.477
75.5566
75.7108
75.8924
76.1565
76.4208
76.7183
76.9694
77.2252
77.4218
77.6204
77.7614
77.8963
77.9819
78.0891
78.1596
78.2708
78.3324
78.4252
78.4449
78.5187
78.5459
78.6264
78.6885
78.7747
78.8523
78.9614
79.0554
79.1845
79.3044
79.4556
79.5708
79.7261
79.8373
79.9749
80.0487
80.1518
80.1854
80.2582
80.2529
80.3103
80.2791
80.3328
80.2946
80.352
80.3104
80.3779
80.3353
80.4056
80.3578
80.4215
80.3582
80.3959
80.3073
80.3086
80.1858
80.1451
79.9886
79.9118
79.7242
79.6115
79.4025
79.267
79.0469
78.9077
78.6859
78.5603
78.3466
78.2326
78.0231
77.9205
77.6995
77.5899
77.3355
77.2042
76.9077
76.7598
76.414
76.2571
75.8246
75.6399
75.0411
74.8019
73.8894
73.6459
72.145
71.9236
69.3779
69.3452
65.0024
65.0855
57.8455
55.5035
45.5771
34.644
25.5627
69.6686
69.0286
67.6666
66.4601
65.5935
65.0444
64.6877
64.3976
64.0914
63.7339
63.3359
62.9283
62.5361
62.1777
61.8464
61.5378
61.2631
61.0241
60.8436
60.7552
60.7944
60.983
61.296
61.7189
62.251
62.8803
63.5896
64.3561
65.1522
65.946
66.7156
67.4404
68.1016
68.6827
69.1613
69.5222
69.7752
69.923
69.9809
69.983
69.9364
69.8323
69.6654
69.4816
69.3574
69.2657
69.2088
69.2911
69.5049
69.7889
70.1178
70.4506
70.7471
70.9765
71.1148
71.147
71.074
70.9122
70.666
70.3775
70.0937
69.7848
69.4768
69.1683
68.8365
68.5008
68.1823
67.8925
67.6105
67.3386
67.0731
66.8058
66.5455
66.3164
66.1495
66.0831
66.1285
66.2842
66.5668
66.9795
67.505
68.1193
68.7898
69.4882
70.185
70.8631
71.5191
72.1405
72.7274
73.2636
73.7489
74.1746
74.5579
74.8634
75.1292
75.3249
75.4938
75.599
75.6811
75.705
75.726
75.7249
75.7611
75.7862
75.854
75.9199
76.0676
76.2421
76.5054
76.767
77.0692
77.3223
77.5829
77.7775
77.976
78.1073
78.2356
78.3028
78.3993
78.4472
78.5432
78.5801
78.6625
78.6629
78.7286
78.7396
78.8153
78.8601
78.9469
79.0061
79.119
79.1944
79.3301
79.4338
79.6
79.7125
79.887
79.9857
80.1453
80.2083
80.3291
80.3482
80.437
80.411
80.4794
80.4237
80.4899
80.4254
80.5011
80.431
80.5193
80.4416
80.53
80.441
80.528
80.4194
80.4852
80.346
80.3766
80.1973
80.1846
79.9669
79.9183
79.6683
79.5845
79.3144
79.2081
78.9251
78.8144
78.5304
78.4357
78.1583
78.0778
77.8031
77.7354
77.4431
77.3733
77.0347
76.9532
76.5516
76.4669
75.9844
75.9215
75.306
75.265
74.4073
74.3716
73.099
73.123
71.1121
71.2255
68.0647
68.4536
63.5203
63.4073
56.4182
51.973
44.0704
33.1279
25.9175
70.3213
69.6132
67.9852
66.6339
65.7418
65.2482
64.9861
64.8025
64.6031
64.3424
64.0211
63.6712
63.32
62.9944
62.6988
62.4291
62.1925
61.9977
61.8633
61.8082
61.8572
62.0385
62.3405
62.7417
63.2368
63.8142
64.4588
65.1562
65.8874
66.6252
67.3454
68.0245
68.6396
69.1779
69.6207
69.9535
70.1848
70.3162
70.3589
70.3391
70.2729
70.152
69.9637
69.7587
69.6156
69.5124
69.4302
69.4829
69.6726
69.941
70.2678
70.6089
70.9182
71.1605
71.3079
71.3419
71.2575
71.0724
70.7972
70.4924
70.1961
69.8749
69.5546
69.2242
68.8661
68.5088
68.1807
67.8921
67.612
67.3436
67.0816
66.8212
66.5729
66.3603
66.216
66.1779
66.2553
66.4431
66.76
67.2086
67.7692
68.4186
69.1232
69.8522
70.5749
71.2775
71.9567
72.5991
73.2068
73.7572
74.2543
74.6835
75.0676
75.3679
75.6278
75.8161
75.9767
76.0711
76.1415
76.1495
76.1612
76.151
76.1869
76.2046
76.2679
76.3225
76.4634
76.63
76.89
77.1479
77.4515
77.7055
77.97
78.1621
78.3606
78.4821
78.6041
78.6551
78.7413
78.7692
78.8496
78.8624
78.9321
78.9138
78.9705
78.964
79.033
79.0587
79.143
79.1832
79.2973
79.3537
79.4954
79.5774
79.7582
79.8637
80.0544
80.1388
80.3177
80.3679
80.5052
80.509
80.6143
80.5672
80.6476
80.5664
80.6435
80.551
80.6446
80.5444
80.6552
80.541
80.653
80.5201
80.6325
80.4712
80.5708
80.3705
80.4411
80.1923
80.2223
79.9277
79.9261
79.5929
79.5648
79.2076
79.1625
78.7877
78.7415
78.3627
78.3366
77.96
77.9523
77.5703
77.579
77.1676
77.1806
76.7086
76.7206
76.1641
76.1866
75.5132
75.5817
74.725
74.8562
73.6891
73.8792
72.2096
72.5014
70.0186
70.4259
66.8637
67.2011
62.3125
60.8535
55.0023
48.8643
42.8688
32.8825
26.857
70.8362
70.1224
68.3419
66.8703
65.927
65.4546
65.2655
65.1751
65.0713
64.8993
64.6529
64.3612
64.0537
63.7595
63.494
63.2588
63.0571
62.9006
62.8065
62.7859
62.8509
63.0283
63.3188
63.702
64.1673
64.7023
65.2932
65.9289
66.5966
67.2767
67.9449
68.574
69.1404
69.632
70.0344
70.337
70.5443
70.6576
70.6873
70.6529
70.576
70.4492
70.2514
70.0318
69.8732
69.7679
69.6719
69.7021
69.8701
70.1237
70.4464
70.7968
71.1214
71.3781
71.5381
71.5771
71.4783
71.2637
70.9606
70.6489
70.3478
70.0188
69.6875
69.3369
68.956
68.5834
68.2527
67.9707
67.6965
67.4351
67.1806
66.9307
66.6975
66.5026
66.3805
66.3696
66.4776
66.6968
67.0459
67.527
68.1183
68.7962
69.5282
70.2804
71.0224
71.7422
72.4401
73.099
73.724
74.2858
74.7948
75.2287
75.6151
75.911
76.1637
76.3442
76.4948
76.5768
76.6349
76.6248
76.6277
76.608
76.6422
76.6535
76.7131
76.7598
76.8939
77.0527
77.3078
77.5606
77.8635
78.1173
78.3833
78.5727
78.7703
78.8818
78.9968
79.0337
79.1103
79.1197
79.1849
79.1739
79.2293
79.1928
79.24
79.2148
79.2756
79.2808
79.3598
79.3795
79.4919
79.5296
79.677
79.7392
79.9305
80.0242
80.2272
80.2967
80.4891
80.5268
80.6778
80.6665
80.7855
80.7188
80.8105
80.706
80.7915
80.6731
80.7787
80.6509
80.7787
80.6326
80.7648
80.5934
80.7237
80.5155
80.6379
80.3802
80.4828
80.1673
80.2395
79.8656
79.917
79.492
79.5318
79.0721
79.1075
78.6205
78.6655
78.1635
78.2381
77.7267
77.8294
77.3025
77.4271
76.858
76.9901
76.3478
76.4821
75.7311
75.8806
74.983
75.1793
74.0586
74.3412
72.8695
73.2567
71.2731
71.7142
69.0495
69.366
66.0068
65.3561
61.2136
58.0257
53.3673
46.951
42.4323
33.6629
28.054
71.2442
70.5583
68.704
67.1486
66.1553
65.6804
65.5368
65.5178
65.495
65.4049
65.233
65.0005
64.7374
64.474
64.2337
64.0272
63.8585
63.7354
63.6746
63.6842
63.7689
63.947
64.2264
64.5933
65.0333
65.5335
66.081
66.6654
67.2759
67.8995
68.5125
69.0869
69.6022
70.0452
70.404
70.6736
70.8553
70.9523
70.9686
70.9227
70.8407
70.7189
70.5255
70.2981
70.1309
70.0291
69.9319
69.9459
70.0962
70.3359
70.6545
71.0144
71.3582
71.6315
71.8035
71.8457
71.731
71.4829
71.1549
70.8457
70.547
70.2132
69.8711
69.5037
69.1056
68.7238
68.398
68.1282
67.8635
67.6123
67.3695
67.134
66.9178
66.742
66.6417
66.6564
66.7931
67.0409
67.4192
67.9286
68.5463
69.2464
69.9993
70.7681
71.523
72.2535
72.9649
73.6345
74.2728
74.8406
75.36
75.8007
76.1899
76.4837
76.7302
76.9016
77.0432
77.1123
77.1583
77.1303
77.125
77.0945
77.1255
77.129
77.1852
77.2253
77.3545
77.5053
77.7558
78.002
78.3028
78.5547
78.8196
79.0056
79.2007
79.3025
79.4094
79.4341
79.5009
79.4934
79.5441
79.5102
79.5491
79.4945
79.5312
79.4883
79.5381
79.5229
79.5932
79.5921
79.6989
79.72
79.8706
79.918
80.1119
80.192
80.4016
80.4573
80.6566
80.6834
80.8438
80.8188
80.9461
80.8633
80.9626
80.8396
80.9306
80.7917
80.9015
80.7513
80.8851
80.7149
80.8567
80.6569
80.7952
80.5525
80.6802
80.3783
80.4924
80.1254
80.2201
79.7849
79.8674
79.3709
79.4549
78.9101
79.0056
78.4165
78.5397
77.9143
78.0877
77.4286
77.6569
76.9581
77.2299
76.462
76.7547
75.8914
76.1969
75.2059
75.5196
74.3864
74.7036
73.3922
73.7425
72.1655
72.5234
70.5578
70.7261
68.338
67.9029
65.115
63.1605
59.7856
55.8259
52.0783
46.1136
42.73
34.9765
29.255
71.5771
70.9304
69.0576
67.4545
66.4177
65.9214
65.7972
65.8324
65.8814
65.8681
65.7677
65.5927
65.3732
65.1411
64.9247
64.7427
64.6024
64.5089
64.4749
64.509
64.6129
64.7949
65.0642
65.4145
65.8321
66.3037
66.8147
67.355
67.9156
68.485
69.0416
69.5599
70.0227
70.4172
70.7334
70.9679
71.1221
71.2013
71.2066
71.152
71.0684
70.9571
70.7822
70.5566
70.3865
70.2941
70.2076
70.2114
70.3509
70.5787
70.8946
71.2647
71.6285
71.9209
72.1053
72.145
72.0098
71.727
71.3787
71.0798
70.7913
70.4549
70.102
69.7225
69.3143
68.9306
68.6153
68.3614
68.1103
67.8735
67.6472
67.4298
67.2321
67.0766
66.9978
67.036
67.1984
67.4712
67.8745
68.4073
69.0459
69.7625
70.5298
71.3099
72.0723
72.8076
73.528
74.2022
74.8493
75.4163
75.9418
76.3887
76.781
77.0754
77.3187
77.4802
77.6151
77.6721
77.7088
77.6637
77.6513
77.6076
77.6353
77.6282
77.6814
77.7139
77.8412
77.9825
78.2307
78.4677
78.7681
79.0137
79.2754
79.4569
79.6476
79.7399
79.8391
79.8526
79.9099
79.886
79.9235
79.8664
79.888
79.8143
79.8385
79.7784
79.8168
79.781
79.8406
79.8186
79.9174
79.9226
80.0718
80.107
80.2988
80.3647
80.5763
80.6197
80.8204
80.8371
81.0019
80.9642
81.0948
80.9985
81.1014
80.9643
81.0581
80.9036
81.0124
80.8441
80.974
80.7842
80.9248
80.7048
80.8411
80.575
80.6947
80.3633
80.4687
80.0701
80.1637
79.6929
79.7789
79.2427
79.3358
78.7413
78.8529
78.2059
78.3496
77.656
77.8558
77.1148
77.377
76.5878
76.8972
76.026
76.3631
75.3829
75.7418
74.6303
74.9936
73.7533
74.0894
72.7121
73.0046
71.4516
71.6024
69.7882
69.5017
67.4103
66.2251
63.7603
61.2821
58.3317
54.4578
51.6408
46.219
43.4841
36.3663
30.3447
71.8562
71.2539
69.3954
67.7679
66.6973
66.1753
66.0587
66.136
66.2448
66.2986
66.2628
66.1428
65.9663
65.7665
65.574
65.413
65.2955
65.2267
65.2149
65.2679
65.3884
65.5765
65.8383
66.1716
66.5669
67.0124
67.4919
67.9932
68.5075
69.025
69.5253
69.9881
70.3998
70.7481
71.0253
71.2264
71.3516
71.4094
71.4045
71.346
71.2636
71.1633
71.015
70.8062
70.6401
70.5605
70.4914
70.497
70.6324
70.8518
71.1654
71.5474
71.9301
72.2398
72.4381
72.4739
72.3125
71.9943
71.6304
71.3473
71.074
70.7377
70.3787
69.9942
69.5835
69.2041
68.9029
68.6667
68.4337
68.2154
68.01
67.8147
67.6376
67.5032
67.4459
67.5055
67.6893
67.9829
68.4058
68.9564
69.6105
70.338
71.1135
71.8994
72.6653
73.4011
74.1269
74.7988
75.4508
76.0087
76.5353
76.9851
77.378
77.6745
77.9203
78.0701
78.2027
78.2481
78.2793
78.2183
78.2027
78.1423
78.1692
78.1477
78.2001
78.2205
78.3505
78.4788
78.7286
78.9521
79.2558
79.4891
79.7469
79.9219
80.1071
80.1897
80.2828
80.2855
80.3347
80.2942
80.3196
80.2389
80.2435
80.1484
80.1584
80.0806
80.1067
80.0512
80.0997
80.0588
80.1472
80.1358
80.2789
80.3026
80.4911
80.5436
80.7533
80.7852
80.982
80.9877
81.1522
81.1024
81.2315
81.1236
81.2269
81.0795
81.1741
81.007
81.1122
80.9285
81.0481
80.8416
80.9721
80.7353
80.8606
80.5774
80.6813
80.3312
80.417
80.0019
80.077
79.5905
79.6595
79.1098
79.1846
78.5738
78.6675
78.008
78.128
77.4261
77.5958
76.8444
77.0727
76.2688
76.5362
75.6437
75.9262
74.9254
75.2109
74.0813
74.354
73.1023
73.3308
71.9378
72.0834
70.4999
70.4349
68.5905
68.0353
65.92
64.4724
62.1265
59.7663
57.2818
53.853
51.8821
46.9427
44.3157
37.5927
31.3521
72.0941
71.5381
69.7172
68.0858
66.9955
66.4495
66.33
66.4336
66.5886
66.6989
66.7228
66.6567
66.5239
66.3566
66.1875
66.0445
65.9443
65.8953
65.9027
65.9717
66.1043
66.2979
66.5539
66.8712
67.2442
67.6627
68.112
68.5773
69.0476
69.5152
69.962
70.3718
70.7336
71.0382
71.2797
71.4501
71.5489
71.5848
71.5682
71.509
71.43
71.3413
71.222
71.043
70.8906
70.8247
70.7795
70.798
70.9361
71.1533
71.4631
71.8565
72.2571
72.5804
72.7914
72.8235
72.6372
72.2841
71.9093
71.647
71.3923
71.0579
70.7002
70.3204
69.9139
69.5438
69.2579
69.04
68.8295
68.6335
68.453
68.2838
68.1301
68.0171
67.9813
68.06
68.2618
68.5711
69.0063
69.5698
70.2336
70.9667
71.7443
72.5306
73.2973
74.0294
74.7586
75.4213
76.0763
76.6157
77.1381
77.5837
77.9746
78.2706
78.5261
78.663
78.7977
78.8308
78.8621