/*--------------------------------*- C++ -*----------------------------------*\
| =========                 |                                                 |
| \\      /  F ield         | OpenFOAM: The Open Source CFD Toolbox           |
|  \\    /   O peration     | Version:  2.4.0                                 |
|   \\  /    A nd           | Web:      www.OpenFOAM.org                      |
|    \\/     M anipulation  |                                                 |
\*---------------------------------------------------------------------------*/
FoamFile
{
    version     2.0;
    format      ascii;
    class       volScalarField;
    location    "0.114";
    object      k;
}
// * * * * * * * * * * * * * * * * * * * * * * * * * * * * * * * * * * * * * //

dimensions      [0 2 -2 0 0 0 0];

internalField   nonuniform List<scalar> 
4400
(
9.54101
8.47215
6.53796
5.27682
4.65082
4.20443
4.02344
3.76297
3.66401
3.57632
4.4197
6.73872
6.75245
6.2885
5.72351
5.20733
4.9911
4.63882
4.61041
4.39972
1.18966
3.1332
4.22981
4.53041
4.48393
4.26403
4.16747
3.89226
3.92223
3.75677
0.166914
0.929878
1.70976
2.31415
2.69013
2.77532
2.89365
2.82549
2.87644
2.86026
0.0176264
0.153165
0.396779
0.748857
1.10019
1.308
1.54654
1.65393
1.71915
1.86982
0.00151
0.0170575
0.0504362
0.136283
0.249159
0.384932
0.51584
0.683251
0.745415
0.915287
0.000141116
0.00150511
0.00416728
0.0132821
0.0284333
0.0618931
0.0909518
0.160985
0.192364
0.286697
4.18034e-05
0.000258224
0.000393749
0.000877346
0.00192601
0.00469927
0.00796031
0.0182825
0.0241952
0.0458193
3.43099e-05
0.000160374
0.000177978
0.000210997
0.000252263
0.000361305
0.000534454
0.00123644
0.00151588
0.00292569
3.31645e-05
0.000137534
0.000191774
0.000199517
0.000195269
0.000197552
0.000214008
0.00026901
0.000274305
0.000313359
3.25971e-05
0.000136833
0.000200058
0.000201929
0.000194112
0.000194735
0.00021259
0.000239794
0.000264603
0.000375879
3.33715e-05
0.0001332
0.000217716
0.000232561
0.000266685
0.000381334
0.000589503
0.000877544
0.00149499
0.00432209
3.98988e-05
0.000202271
0.000514901
0.000907344
0.00186123
0.00501637
0.0083923
0.015858
0.0244208
0.0555697
0.000135363
0.00149425
0.00509281
0.0120031
0.0268224
0.0656028
0.0941065
0.15313
0.195969
0.322687
0.00144611
0.0167655
0.0616311
0.124354
0.241623
0.412282
0.518887
0.667865
0.759137
0.974182
0.0169923
0.149316
0.437397
0.723625
1.0921
1.34736
1.52255
1.65797
1.74977
1.89893
0.161394
0.937324
1.7317
2.29463
2.69189
2.80055
2.86637
2.85351
2.86495
2.87381
1.15558
3.17317
4.22881
4.5258
4.48438
4.26844
4.14404
3.93431
3.8819
3.77143
4.39385
6.78582
6.73932
6.29031
5.7214
5.19084
4.97888
4.65301
4.57437
4.30774
9.51974
8.51514
6.50101
5.29487
4.6468
4.19026
4.0138
3.74025
3.66844
3.28306
2.26301
1.06678
0.630943
0.475652
0.409138
0.414367
0.436514
0.523353
0.741139
0.799987
0.767029
0.609026
0.576681
0.814619
1.17375
1.17171
0.729839
0.35781
0.196181
0.172144
0.170415
0.173661
0.229334
0.267285
0.296302
0.376773
0.409136
0.374619
0.239712
0.115967
0.0810421
0.0753077
0.0814328
0.10423
0.141139
0.146813
0.154625
0.162507
0.195711
0.214571
0.213236
0.203019
0.18172
0.131636
0.100038
0.0914225
0.115463
0.185649
0.199705
0.196715
0.145725
0.121758
0.117823
0.118122
0.111418
0.096641
0.0912786
0.0919309
0.0990359
0.113384
0.143198
0.184019
0.194396
0.191167
0.199611
0.241095
0.22623
0.224425
0.319244
0.324221
0.307155
0.262088
0.235708
0.198168
0.171822
0.168766
0.172029
0.182132
0.205886
0.216601
0.213863
0.189791
0.121868
0.0865261
0.0653259
0.0470948
0.0495792
0.0444943
0.083194
0.0801456
0.111153
0.104476
0.119274
0.119446
0.198467
0.205555
0.357799
0.315339
0.353947
0.349423
3.33507
2.37894
1.70275
1.39066
1.14705
0.971027
0.94376
0.941641
0.93449
0.874968
0.787825
0.552722
0.475117
0.483708
0.894882
1.06361
0.78477
0.423023
0.238739
0.187582
0.18062
0.197104
0.252793
0.276346
0.343545
0.406712
0.398331
0.306386
0.134812
0.0832393
0.0755473
0.0821974
0.111508
0.17982
0.209568
0.211864
0.225358
0.245086
0.305433
0.303877
0.294832
0.267046
0.239618
0.182373
0.125737
0.102362
0.108972
0.165191
0.189427
0.197542
0.170007
0.131162
0.124496
0.121365
0.108044
0.0991614
0.0964671
0.0986216
0.107925
0.122566
0.159258
0.197214
0.206593
0.207842
0.226693
0.238455
0.204304
0.208901
0.318387
0.324442
0.299571
0.228835
0.187867
0.162345
0.151119
0.151514
0.154745
0.164117
0.189264
0.207013
0.205721
0.188009
0.126088
0.0856488
0.0695023
0.0482179
0.0645821
0.0555164
0.0792473
0.0775539
0.0703417
0.0622995
0.0518942
0.0537146
0.0594526
0.0856912
0.191562
0.287553
0.583646
0.520016
3.04596
2.55994
2.1031
1.77526
1.59058
1.40357
1.26373
1.1083
1.01172
0.847388
0.76118
0.537951
0.379036
0.343304
0.451793
0.916085
0.839067
0.492058
0.289907
0.220018
0.216908
0.236541
0.261146
0.315088
0.405322
0.414202
0.359824
0.173128
0.0881462
0.0747686
0.0817324
0.115497
0.209025
0.291019
0.298088
0.299843
0.334224
0.36863
0.404747
0.383338
0.340765
0.294814
0.261198
0.22971
0.162846
0.1148
0.110913
0.148647
0.178189
0.19451
0.18229
0.145891
0.128832
0.124889
0.109116
0.104263
0.102977
0.106672
0.116299
0.136275
0.18373
0.21274
0.220958
0.225905
0.241795
0.230291
0.188274
0.198857
0.338609
0.342581
0.292674
0.212585
0.162153
0.134405
0.130911
0.13304
0.138408
0.148882
0.175353
0.199014
0.19813
0.185395
0.130229
0.0836913
0.0792953
0.0565514
0.0676768
0.0608637
0.0612455
0.0612868
0.0529204
0.0423097
0.0418616
0.0402683
0.0402702
0.0459259
0.05782
0.141229
0.370605
0.490288
2.47553
2.18437
1.95397
1.67146
1.45379
1.3211
1.18955
1.03595
0.920871
0.715941
0.61559
0.473073
0.278728
0.220769
0.231142
0.653218
0.853998
0.675734
0.3835
0.27414
0.262739
0.272941
0.306278
0.412186
0.431104
0.39404
0.218958
0.0971276
0.0728564
0.0788003
0.116559
0.220523
0.369496
0.41951
0.410769
0.415878
0.472576
0.4847
0.464731
0.405584
0.339049
0.293351
0.259145
0.238655
0.191176
0.138833
0.116364
0.131663
0.168205
0.18683
0.181832
0.157115
0.132585
0.127046
0.113025
0.110421
0.11044
0.114852
0.12625
0.156282
0.209921
0.232462
0.23993
0.247097
0.246302
0.215633
0.186023
0.210023
0.362179
0.345733
0.245936
0.185545
0.146333
0.119083
0.114627
0.116373
0.122555
0.137173
0.162169
0.192516
0.1924
0.182717
0.139598
0.0862015
0.0863591
0.0667711
0.0664738
0.0622677
0.0577728
0.0527773
0.0452812
0.0437379
0.0408665
0.0405574
0.0398419
0.0413235
0.0463195
0.080822
0.123063
0.326021
1.71998
1.56818
1.46444
1.28917
1.08083
0.916553
0.838394
0.711715
0.613387
0.498782
0.394965
0.344694
0.203929
0.147623
0.132427
0.286515
0.792224
0.78276
0.597638
0.387137
0.34681
0.361837
0.448668
0.472208
0.439697
0.272459
0.111035
0.0702688
0.0720539
0.110957
0.228378
0.430339
0.541788
0.549595
0.525676
0.546709
0.604408
0.57221
0.483797
0.394405
0.30669
0.258776
0.244156
0.232734
0.210124
0.158406
0.124159
0.126065
0.147148
0.177748
0.1784
0.168743
0.140868
0.126066
0.11712
0.114972
0.117232
0.125047
0.140706
0.184021
0.238042
0.261227
0.26784
0.266894
0.246709
0.186533
0.176694
0.272958
0.376311
0.308903
0.206039
0.151947
0.128505
0.106904
0.102837
0.10386
0.109579
0.127817
0.149811
0.184657
0.184352
0.179623
0.152146
0.095761
0.0893939
0.0684857
0.06514
0.0614889
0.0547323
0.0505364
0.0424357
0.041569
0.0397147
0.0417801
0.0406033
0.0450599
0.0454182
0.0642927
0.0776141
0.200565
0.878311
0.86893
0.849879
0.791156
0.637934
0.474793
0.381122
0.293379
0.243493
0.217369
0.160656
0.135936
0.076836
0.0680116
0.0628702
0.0964256
0.527531
0.73855
0.703382
0.575006
0.52211
0.53381
0.53639
0.502696
0.328696
0.129718
0.0687159
0.0659631
0.0971905
0.224338
0.478879
0.636774
0.654296
0.626725
0.606277
0.674326
0.669594
0.602108
0.445228
0.345512
0.279153
0.223268
0.211799
0.21202
0.205577
0.170694
0.130033
0.124143
0.132059
0.163411
0.170768
0.167661
0.152094
0.12783
0.121543
0.121695
0.128339
0.138506
0.161123
0.21719
0.269261
0.290001
0.287953
0.287181
0.243559
0.186612
0.183895
0.373221
0.371504
0.290148
0.202208
0.139894
0.115584
0.0970481
0.0967038
0.0958818
0.100452
0.120501
0.145114
0.178352
0.176249
0.181191
0.160791
0.103639
0.0931401
0.0708035
0.0674217
0.061548
0.0534212
0.0503925
0.0436947
0.043009
0.0408991
0.0430698
0.0419734
0.0444599
0.0443473
0.0536378
0.0577833
0.121845
0.294875
0.317308
0.324141
0.309375
0.245238
0.155379
0.105911
0.0765092
0.0669161
0.0616375
0.0522154
0.0447946
0.026298
0.0240527
0.0240392
0.0317348
0.161381
0.577505
0.658814
0.630066
0.603914
0.583706
0.533445
0.362795
0.148311
0.0698416
0.0587507
0.0802715
0.195514
0.502921
0.693838
0.731126
0.697744
0.639484
0.64251
0.740604
0.690884
0.568048
0.378775
0.296151
0.23968
0.203643
0.188913
0.186682
0.189532
0.175372
0.136721
0.124747
0.126741
0.149788
0.163696
0.163712
0.157906
0.136174
0.130706
0.132236
0.140742
0.153847
0.191152
0.257745
0.308257
0.314467
0.296595
0.292233
0.228052
0.214407
0.217512
0.410811
0.366108
0.300628
0.212211
0.136269
0.111687
0.0933847
0.0949674
0.0931022
0.0974981
0.116933
0.140186
0.177951
0.175453
0.187109
0.167097
0.1082
0.0986949
0.0769328
0.0725888
0.0618936
0.0577962
0.0513079
0.0459507
0.0429295
0.0432052
0.0428672
0.0459135
0.0449404
0.0458747
0.0515467
0.0545705
0.0764378
0.0585938
0.0700496
0.0722361
0.0679076
0.0496655
0.0283589
0.0169651
0.0124566
0.0126069
0.0136183
0.0134107
0.0122028
0.00918394
0.00945601
0.0101349
0.0113113
0.0431981
0.23667
0.484119
0.551618
0.543493
0.499255
0.355977
0.157814
0.0708343
0.0527503
0.063305
0.154043
0.4704
0.745622
0.788911
0.764925
0.686897
0.638468
0.674295
0.775075
0.672506
0.513613
0.317061
0.25277
0.208981
0.193806
0.174069
0.170313
0.172564
0.171115
0.145067
0.126243
0.125291
0.13517
0.158937
0.161141
0.159655
0.147352
0.142755
0.145606
0.155573
0.174985
0.233887
0.306672
0.341939
0.329881
0.296649
0.27199
0.195866
0.187353
0.23848
0.394634
0.368563
0.348409
0.217839
0.132203
0.111048
0.0886105
0.0917198
0.0909336
0.0980484
0.117916
0.136724
0.180486
0.177269
0.182974
0.168103
0.116735
0.107367
0.0828303
0.0760917
0.0623762
0.0585044
0.0500832
0.0470408
0.0430777
0.0458132
0.0448707
0.0479362
0.0473294
0.0477433
0.0536959
0.0570249
0.0683604
0.00526395
0.00823724
0.00835353
0.00721264
0.0044317
0.00257814
0.00184637
0.00176392
0.00209767
0.00274429
0.00312841
0.00372561
0.00509549
0.00674531
0.00679317
0.00643703
0.0125421
0.0561534
0.197826
0.305074
0.300913
0.259885
0.142823
0.0651543
0.045426
0.0509554
0.109474
0.374593
0.770574
0.847674
0.818355
0.743559
0.617873
0.620651
0.72639
0.750725
0.597445
0.462008
0.283191
0.247805
0.213122
0.188584
0.172326
0.162999
0.160725
0.162656
0.152407
0.128727
0.125624
0.128836
0.146794
0.16
0.161866
0.159072
0.157913
0.162717
0.174929
0.204451
0.290024
0.355095
0.360631
0.332992
0.277356
0.227065
0.182978
0.17081
0.296195
0.360498
0.418744
0.356079
0.179144
0.123027
0.117325
0.0884579
0.0896423
0.0905256
0.100636
0.121423
0.13641
0.195143
0.18789
0.170929
0.16846
0.127962
0.116697
0.0862173
0.0789529
0.0639518
0.0597532
0.0501374
0.0494218
0.0467962
0.0498235
0.0494157
0.0514009
0.0505257
0.0510531
0.0559994
0.0590608
0.0693174
0.000406097
0.000665809
0.000649858
0.000558545
0.000560497
0.000704129
0.00109466
0.00139532
0.00159728
0.00187833
0.00254791
0.00388489
0.00851615
0.0105524
0.00985255
0.00717206
0.0073573
0.0152462
0.0649167
0.124318
0.124417
0.10101
0.0506585
0.0370425
0.0411725
0.084395
0.265145
0.750398
0.89826
0.875629
0.775866
0.609791
0.54791
0.596999
0.73838
0.706603
0.568256
0.421708
0.275653
0.265647
0.249697
0.190597
0.178978
0.161927
0.159557
0.158393
0.156097
0.13407
0.127694
0.12912
0.135496
0.156596
0.160654
0.166743
0.169202
0.177454
0.1925
0.252926
0.352298
0.380326
0.36879
0.306285
0.229274
0.186268
0.166448
0.167446
0.284053
0.369494
0.435241
0.278549
0.151543
0.119709
0.135791
0.0938427
0.0898375
0.0904833
0.102139
0.125987
0.138385
0.218782
0.223615
0.175623
0.176801
0.136144
0.123096
0.0902197
0.0842262
0.0683949
0.0640004
0.0528285
0.0538988
0.0522201
0.0567276
0.0568755
0.0597509
0.058405
0.0593153
0.0619421
0.0644251
0.0713145
0.000414733
0.000394821
0.000407321
0.000536184
0.000907674
0.0027196
0.0053833
0.00691598
0.00840062
0.0096675
0.0124094
0.0193102
0.0295289
0.030492
0.0273959
0.0178013
0.0103162
0.010633
0.0218829
0.0410542
0.0403726
0.0294926
0.0270445
0.0330556
0.0710452
0.216964
0.681164
0.93789
0.932089
0.828164
0.588341
0.478011
0.487343
0.608866
0.712015
0.644057
0.563335
0.405313
0.276131
0.263695
0.253432
0.185908
0.198455
0.166684
0.163577
0.158281
0.161268
0.144798
0.134513
0.132285
0.134408
0.150281
0.157226
0.17248
0.175949
0.18495
0.211595
0.329113
0.387563
0.389705
0.353461
0.249611
0.175274
0.150847
0.143932
0.173624
0.228875
0.393904
0.389309
0.232435
0.157454
0.130902
0.154279
0.0981173
0.0940622
0.0915333
0.101306
0.13534
0.1455
0.206866
0.270145
0.194284
0.187069
0.139973
0.129374
0.0982352
0.0924432
0.075137
0.0711033
0.0601249
0.0606335
0.059669
0.0663528
0.0662242
0.0722586
0.0691996
0.0755194
0.0749768
0.0780166
0.0791408
0.0046772
0.0040601
0.00419493
0.00589932
0.00870164
0.0192136
0.0309802
0.0368702
0.0443699
0.0483997
0.0573111
0.0786212
0.0856914
0.0831402
0.0720092
0.0487901
0.0265989
0.0161073
0.0164796
0.0190801
0.0189949
0.020934
0.0324041
0.0737891
0.200817
0.58252
0.939386
0.989865
0.894687
0.602245
0.438109
0.414715
0.45662
0.619406
0.637832
0.593615
0.596837
0.408266
0.274628
0.229852
0.219262
0.176506
0.230526
0.176118
0.177831
0.162573
0.1659
0.155099
0.141706
0.140307
0.137665
0.148127
0.158587
0.17421
0.179082
0.194518
0.269459
0.393285
0.400235
0.384361
0.290632
0.204033
0.142706
0.129213
0.128554
0.178737
0.215914
0.381181
0.343283
0.239336
0.195495
0.178322
0.155709
0.0908328
0.119941
0.0949599
0.106403
0.163719
0.178423
0.188572
0.26767
0.197708
0.189372
0.145928
0.135079
0.106074
0.101881
0.087731
0.0805487
0.0655054
0.0667521
0.0671791
0.0824527
0.0854689
0.100508
0.0968448
0.116822
0.114342
0.122024
0.115206
0.0579471
0.0522428
0.0527123
0.0626318
0.073035
0.106133
0.134411
0.146949
0.164221
0.170869
0.194143
0.213859
0.211462
0.199452
0.1657
0.116768
0.073266
0.0422559
0.0295688
0.0292972
0.0334058
0.0511842
0.0994914
0.218265
0.537343
0.901191
1.02273
0.973081
0.666999
0.418593
0.373558
0.387546
0.462298
0.603391
0.541464
0.572306
0.642711
0.503599
0.294263
0.22601
0.209466
0.193248
0.227245
0.177582
0.208712
0.176293
0.173838
0.169581
0.154753
0.157506
0.148519
0.152702
0.164621
0.175511
0.187182
0.226599
0.360588
0.415285
0.396475
0.334393
0.222456
0.167967
0.121832
0.11596
0.117366
0.167039
0.205093
0.353862
0.339761
0.330358
0.245224
0.20153
0.139057
0.104088
0.177325
0.103735
0.131083
0.206353
0.324963
0.198782
0.256597
0.198369
0.190815
0.150022
0.140019
0.114541
0.111648
0.0963901
0.0885649
0.075256
0.0786668
0.0846088
0.112665
0.117794
0.149407
0.164011
0.272711
0.27783
0.300617
0.273035
0.320365
0.289164
0.286585
0.305656
0.320492
0.365332
0.39078
0.396202
0.408432
0.413089
0.435436
0.434723
0.419642
0.387342
0.316048
0.245519
0.180324
0.11685
0.0906705
0.0936552
0.115355
0.176
0.289522
0.554595
0.877243
1.01585
1.01369
0.78518
0.413554
0.337892
0.345609
0.378394
0.467167
0.545017
0.466358
0.578125
0.734366
0.669712
0.362012
0.259676
0.2309
0.23352
0.204477
0.191516
0.210551
0.197909
0.184302
0.185976
0.169849
0.171809
0.164193
0.165219
0.174507
0.185729
0.211453
0.318915
0.405404
0.408095
0.33524
0.255893
0.164436
0.131731
0.106866
0.106747
0.110704
0.145843
0.19154
0.330766
0.388838
0.440823
0.263493
0.18613
0.152961
0.146087
0.210862
0.132027
0.215655
0.20768
0.405432
0.217696
0.253764
0.201975
0.200325
0.157628
0.158729
0.135036
0.137095
0.115172
0.114273
0.101799
0.109561
0.108655
0.126435
0.181227
0.312725
0.475924
0.551573
0.567462
0.561958
0.523039
0.925468
0.823599
0.778546
0.77743
0.765648
0.778508
0.773774
0.738446
0.727015
0.708978
0.7035
0.68913
0.650512
0.584987
0.492906
0.406855
0.334793
0.270613
0.257181
0.271833
0.329539
0.423249
0.624206
0.891155
1.00858
1.01975
0.884132
0.448971
0.303032
0.301223
0.326717
0.374429
0.444666
0.460737
0.42324
0.583887
0.850132
0.87155
0.47422
0.314668
0.268285
0.260874
0.231101
0.235096
0.212299
0.247855
0.19887
0.222554
0.205798
0.192894
0.19551
0.193526
0.201838
0.221721
0.296847
0.388269
0.405946
0.347696
0.224829
0.160049
0.103971
0.0899577
0.0901356
0.0952744
0.104974
0.12713
0.171253
0.300329
0.433298
0.493839
0.271788
0.196374
0.197206
0.20392
0.225791
0.223797
0.346376
0.202225
0.374235
0.224993
0.249494
0.215743
0.216435
0.175197
0.18868
0.165483
0.169042
0.139935
0.140079
0.127967
0.132718
0.171475
0.221465
0.409527
0.46587
0.562769
0.543269
0.533832
0.494703
0.456715
1.73199
1.50181
1.40112
1.31548
1.22394
1.1847
1.08619
1.01707
0.987134
0.954414
0.937835
0.901996
0.815234
0.735167
0.650752
0.573543
0.518266
0.492727
0.495907
0.524783
0.593978
0.741404
0.932859
1.02433
1.02088
0.904717
0.492079
0.280187
0.253344
0.258551
0.287724
0.340936
0.377898
0.37064
0.383011
0.526427
0.925139
1.16902
0.73838
0.393348
0.300667
0.283848
0.276854
0.27867
0.240646
0.325352
0.223812
0.256676
0.253084
0.228214
0.242211
0.243167
0.273181
0.315467
0.392306
0.396295
0.348207
0.204959
0.138664
0.101607
0.0814221
0.0753326
0.0781896
0.0881318
0.0967424
0.110891
0.140372
0.248369
0.434279
0.528222
0.343734
0.246375
0.211674
0.203099
0.221854
0.261405
0.27272
0.193396
0.25133
0.271724
0.22407
0.215944
0.190396
0.186442
0.187179
0.185015
0.170219
0.167184
0.169807
0.189042
0.198744
0.230628
0.266669
0.333045
0.426005
0.46574
0.624237
0.638721
0.651632
0.605285
2.52889
2.14918
1.91106
1.67813
1.52939
1.40186
1.27261
1.22559
1.17723
1.14556
1.11494
1.03495
0.950945
0.893129
0.827219
0.774247
0.751491
0.747514
0.758214
0.797224
0.89086
1.00977
1.05155
1.02217
0.880478
0.492065
0.247734
0.211435
0.23193
0.235424
0.24933
0.280962
0.328822
0.364968
0.35954
0.414112
0.900985
1.41143
1.34205
0.655336
0.397866
0.336262
0.320612
0.31835
0.302499
0.376598
0.279175
0.304532
0.359772
0.310529
0.351636
0.357377
0.379708
0.389793
0.390055
0.322734
0.209115
0.140664
0.10934
0.0893438
0.0814107
0.0796508
0.0799181
0.0841813
0.0873334
0.0943338
0.110444
0.194998
0.400013
0.548777
0.474183
0.337509
0.244878
0.210362
0.250686
0.249622
0.254422
0.214405
0.226083
0.306234
0.232662
0.213995
0.215768
0.244678
0.245619
0.246646
0.232305
0.244239
0.248204
0.257011
0.287379
0.33407
0.466514
0.585737
0.97598
1.20049
1.28351
1.24561
1.22187
1.08762
3.09823
2.50908
2.10603
1.80903
1.64312
1.49511
1.42005
1.3721
1.31517
1.2858
1.22723
1.15558
1.1147
1.06761
1.0203
1.00204
0.99793
0.999322
1.01448
1.06689
1.09627
1.08698
1.01356
0.76699
0.433919
0.218425
0.15151
0.184864
0.230276
0.234913
0.246878
0.291222
0.353577
0.423232
0.359643
0.330626
0.564652
1.47181
1.90364
1.45709
0.744804
0.50585
0.424308
0.39638
0.409753
0.481515
0.412674
0.372095
0.518211
0.42814
0.435456
0.425887
0.395342
0.357532
0.256062
0.194419
0.157982
0.130516
0.118596
0.117085
0.121824
0.101341
0.0882572
0.0872385
0.0904567
0.101051
0.11971
0.199616
0.38051
0.529709
0.571656
0.475913
0.373988
0.309185
0.310272
0.306795
0.332248
0.285314
0.319648
0.312231
0.338254
0.292725
0.363775
0.377486
0.385293
0.376259
0.382301
0.403488
0.483146
0.6042
0.878022
1.22703
1.76258
1.93715
1.93013
1.82527
1.52073
1.28484
1.21287
1.08309
3.20407
2.47668
2.04801
1.81933
1.68545
1.57307
1.51429
1.43871
1.36737
1.31051
1.23308
1.19261
1.17035
1.13703
1.13611
1.15115
1.16406
1.18136
1.19883
1.19448
1.13419
0.936494
0.640881
0.375632
0.193818
0.117512
0.118537
0.180295
0.275191
0.309511
0.311234
0.370962
0.44274
0.4428
0.369413
0.358322
0.388605
0.855111
2.07583
2.33627
2.27112
1.56074
1.06059
0.557831
0.516922
0.522187
0.502717
0.413148
0.471772
0.490405
0.404332
0.399827
0.346457
0.324601
0.283036
0.301224
0.275727
0.260586
0.209193
0.221843
0.205099
0.204632
0.169745
0.184497
0.196759
0.313428
0.406224
0.500506
0.467833
0.492609
0.600858
0.599469
0.665486
0.431509
0.512361
0.395704
0.431703
0.455812
0.464315
0.433785
0.613854
0.614184
0.834606
0.952796
1.21953
1.4789
1.67652
2.14512
2.4648
3.12773
3.22983
3.30686
3.07342
2.7224
2.04364
1.76384
1.449
1.39354
1.37122
1.39842
2.18292
1.80304
1.62015
1.50107
1.37821
1.24203
1.10076
0.95215
0.820973
0.715086
0.641244
0.61292
0.617928
0.648663
0.714214
0.804241
0.905728
1.01337
1.09331
1.09865
0.990339
0.753854
0.501702
0.314851
0.217692
0.185075
0.181602
0.202421
0.27799
0.379684
0.419158
0.373785
0.344917
0.399467
0.60715
0.765716
0.791458
0.698835
0.604685
2.04687
3.99965
4.89945
5.10489
3.7481
2.61276
1.95846
0.943286
0.38141
0.382867
0.417408
0.397336
0.679323
0.889248
1.24957
1.28729
1.27323
0.882769
0.668781
0.338059
0.33806
0.200824
0.332612
0.295758
0.573474
0.657954
1.16577
1.07186
1.15135
0.736848
0.661309
0.5666
0.657665
1.21393
0.743129
1.57813
0.445174
0.880803
0.560009
0.64615
0.824886
1.48492
2.29195
2.79059
4.00982
3.98817
4.93475
4.82006
5.59855
5.14125
5.34104
4.39955
4.17997
3.18122
3.08138
2.48574
2.60554
2.30412
2.60065
2.60579
3.08351
0.0331346
0.126951
0.161661
0.302973
0.458609
0.655256
0.821415
1.02667
1.47725
2.02798
2.18926
1.87847
1.07296
0.515772
0.291015
0.294129
0.377667
0.612998
0.985847
1.11937
0.962704
0.611381
0.97785
2.13091
3.29684
4.09541
4.70602
4.96833
4.92222
4.40766
3.51018
3.00827
2.18177
1.45115
0.707263
0.530069
0.291319
0.246775
0.306469
0.477477
0.785063
1.11748
1.63045
2.15595
2.51771
2.54378
2.4597
2.18346
1.74686
1.14179
0.684953
0.604232
0.758772
1.04109
1.19578
0.939618
0.842735
0.473174
0.294542
0.226659
0.208605
0.238171
0.29823
0.351754
0.408251
0.436928
0.456875
0.452354
0.449731
0.443907
0.454445
0.466783
0.489478
0.505917
0.514929
0.505661
0.472066
0.410903
0.331246
0.246383
0.173607
0.124096
0.0988454
0.0927919
0.100579
0.119504
0.141912
0.161039
0.173367
0.181924
0.187587
0.173888
0.124918
0.0820302
0.0708215
0.123765
0.344398
0.43709
0.211255
0.130621
0.0701277
0.117562
0.0958917
0.104203
0.122744
0.154193
0.184408
0.234247
0.28564
0.375538
0.657697
1.15894
1.13486
0.973658
0.633184
0.380143
0.289192
0.294312
0.326096
0.439808
1.14016
2.06575
2.22722
2.28473
2.14443
1.76867
1.58897
1.18668
0.930188
0.628949
0.499658
0.463605
0.380908
0.348485
0.306295
0.301062
0.313358
0.287508
0.280546
0.277654
0.283987
0.306986
0.36344
0.471581
0.774586
1.23776
1.41988
1.35526
0.955882
0.631414
0.549661
0.612287
0.584213
0.549775
0.363125
0.303152
0.238915
0.26023
0.260396
0.237979
0.228241
0.218213
0.22338
0.228632
0.234969
0.239869
0.250081
0.268443
0.302154
0.341346
0.396318
0.446136
0.472468
0.467767
0.423295
0.336121
0.255417
0.189073
0.141499
0.11109
0.0946415
0.0869738
0.0857715
0.0863537
0.0843379
0.0783602
0.0690615
0.0588321
0.0524562
0.0495087
0.0478392
0.0460729
0.0479921
0.0521894
0.0636592
0.118252
0.170928
0.148154
0.103003
0.133738
0.112131
0.0906872
0.0673566
0.0737597
0.0952728
0.12112
0.137196
0.210147
0.221688
0.218925
0.227046
0.301371
0.556987
0.661225
0.59153
0.379022
0.214929
0.205597
0.294724
1.03038
1.97398
1.97642
1.53916
1.01863
0.573688
0.441589
0.384693
0.340588
0.330093
0.328835
0.349848
0.333469
0.351229
0.344725
0.337008
0.360999
0.346444
0.338236
0.314343
0.277855
0.242894
0.201716
0.179145
0.183117
0.225135
0.310966
0.365973
0.460168
0.554598
0.563847
0.519661
0.49501
0.320496
0.290354
0.214868
0.232662
0.21474
0.259147
0.278376
0.257434
0.232188
0.170545
0.141018
0.130767
0.131822
0.136481
0.139204
0.141249
0.146744
0.161097
0.178335
0.194027
0.217701
0.247725
0.262724
0.256799
0.208685
0.148818
0.118201
0.106476
0.104198
0.106231
0.109893
0.111999
0.109601
0.0988967
0.0808255
0.0616717
0.0445348
0.0362391
0.0342586
0.0358477
0.0434631
0.0500813
0.0595969
0.0826168
0.0885499
0.0746735
0.0763698
0.125371
0.108161
0.0729046
0.05866
0.0695676
0.0918327
0.134528
0.169263
0.27271
0.30737
0.295465
0.254208
0.210498
0.234788
0.300028
0.335689
0.257994
0.170853
0.2294
0.719223
1.6379
1.84366
1.17218
0.605951
0.385034
0.304884
0.299174
0.327562
0.337422
0.348498
0.337923
0.370444
0.349367
0.343545
0.373215
0.353907
0.3812
0.35845
0.355276
0.330748
0.286767
0.259722
0.218762
0.182484
0.15857
0.16271
0.171166
0.179347
0.242655
0.443633
0.526967
0.453893
0.334195
0.207356
0.198782
0.164033
0.171558
0.168715
0.178381
0.224541
0.245963
0.267403
0.22509
0.156824
0.117988
0.106415
0.106227
0.112886
0.12027
0.121998
0.12448
0.135054
0.151108
0.160465
0.167423
0.18594
0.207435
0.206421
0.169511
0.122309
0.105769
0.10452
0.109388
0.118647
0.125547
0.129674
0.129042
0.127053
0.119558
0.100948
0.0729886
0.0577596
0.0550295
0.0549324
0.0539945
0.0534901
0.061141
0.0617716
0.0526472
0.0651111
0.125377
0.0926599
0.0594693
0.0566677
0.0722167
0.0904509
0.14391
0.212642
0.297551
0.387543
0.37041
0.308283
0.226009
0.184652
0.183726
0.191809
0.156698
0.157233
0.387475
1.17197
1.60238
1.19172
0.523752
0.318774
0.269855
0.26389
0.281058
0.310794
0.313116
0.315725
0.305346
0.32807
0.353014
0.335394
0.36712
0.361632
0.387612
0.363068
0.355019
0.330377
0.276293
0.232956
0.203228
0.183437
0.160673
0.151701
0.152339
0.156053
0.215482
0.42077
0.47884
0.371752
0.262658
0.163913
0.15107
0.14532
0.151584
0.156055
0.162443
0.197854
0.206966
0.239817
0.243847
0.22472
0.167758
0.126621
0.111527
0.10941
0.112256
0.122376
0.139202
0.153622
0.160783
0.168616
0.17491
0.17763
0.184481
0.189345
0.17921
0.132344
0.102896
0.0979783
0.100512
0.108536
0.11562
0.120709
0.122601
0.125381
0.128086
0.129501
0.13397
0.127204
0.10364
0.0920279
0.0825273
0.0584738
0.0514099
0.0495125
0.0402288
0.0539189
0.127458
0.078455
0.0576447
0.0642599
0.0828193
0.11273
0.200913
0.303199
0.341223
0.43322
0.421949
0.357866
0.247636
0.173213
0.149649
0.145762
0.126431
0.17416
0.638341
1.26515
1.34741
0.595441
0.300049
0.231719
0.220582
0.234994
0.251022
0.263225
0.265198
0.268989
0.287752
0.28962
0.3302
0.332021
0.362844
0.359984
0.382813
0.367353
0.33053
0.303084
0.268939
0.218445
0.187025
0.166931
0.158228
0.151001
0.151929
0.157337
0.216591
0.403021
0.435257
0.310715
0.220256
0.155622
0.132341
0.141242
0.151906
0.155527
0.165969
0.196861
0.200819
0.228915
0.23672
0.234287
0.222157
0.182629
0.1495
0.131345
0.121993
0.120945
0.124651
0.139453
0.183382
0.193189
0.187602
0.185083
0.184835
0.185215
0.182658
0.151425
0.104243
0.0817727
0.0779529
0.0797472
0.0836169
0.0863548
0.0884227
0.091739
0.0988367
0.108198
0.122768
0.131074
0.142448
0.14103
0.134941
0.0989464
0.0537126
0.0452295
0.0344231
0.0501365
0.128003
0.0776664
0.0641131
0.0897935
0.120615
0.184178
0.278088
0.342896
0.382386
0.437037
0.431475
0.39307
0.293202
0.1858
0.142622
0.121077
0.116347
0.223146
0.844045
1.22503
0.84744
0.341664
0.217895
0.196142
0.19548
0.209031
0.236544
0.250537
0.256456
0.258408
0.296729
0.299912
0.349856
0.36314
0.375657
0.388877
0.380674
0.366486
0.307697
0.241897
0.215356
0.187173
0.165071
0.150406
0.148653
0.148578
0.15922
0.174426
0.231673
0.381217
0.392995
0.255595
0.174994
0.153727
0.137501
0.145821
0.145923
0.140884
0.163202
0.180274
0.202731
0.236479
0.241246
0.22965
0.22481
0.220547
0.188662
0.165167
0.158613
0.148446
0.137815
0.136977
0.141158
0.168082
0.184188
0.183694
0.186979
0.189808
0.188148
0.169502
0.113674
0.0781688
0.0627577
0.0593383
0.0588415
0.057076
0.0546541
0.0515229
0.051494
0.0538781
0.0654643
0.0855969
0.115221
0.129405
0.157324
0.155388
0.091004
0.0466257
0.0319697
0.0502665
0.127862
0.0788537
0.083277
0.120554
0.169155
0.237732
0.294691
0.344265
0.385495
0.404041
0.423276
0.403045
0.318361
0.217519
0.149118
0.114095
0.116258
0.295396
0.956412
1.06886
0.491295
0.223843
0.178291
0.181686
0.194967
0.207652
0.23958
0.268734
0.287696
0.279259
0.338507
0.352812
0.425154
0.446272
0.437266
0.429214
0.394076
0.354889
0.282166
0.213136
0.166056
0.137355
0.127231
0.127823
0.13038
0.137319
0.166987
0.202957
0.265526
0.359251
0.363279
0.223491
0.14353
0.142866
0.139585
0.14687
0.13208
0.130635
0.140183
0.131529
0.172345
0.232505
0.245929
0.236318
0.216081
0.221454
0.226144
0.202086
0.175314
0.175656
0.186847
0.1845
0.158252
0.14383
0.147247
0.15656
0.175996
0.187068
0.190135
0.182631
0.138074
0.085372
0.0613447
0.0503002
0.0468269
0.0431828
0.0393683
0.0356841
0.0326166
0.0307598
0.0315892
0.0359767
0.0468897
0.0655816
0.108827
0.156357
0.161428
0.0587955
0.0395494
0.0636818
0.127987
0.0846586
0.100044
0.131163
0.179124
0.230395
0.260309
0.322647
0.370928
0.379685
0.397247
0.397796
0.279998
0.211725
0.148142
0.112751
0.124495
0.38046
0.9811
0.787149
0.309382
0.177139
0.160435
0.179905
0.203912
0.219341
0.238639
0.247581
0.298986
0.28287
0.349929
0.374682
0.454101
0.467011
0.456988
0.436305
0.388109
0.310199
0.22929
0.173275
0.134558
0.108205
0.0993573
0.100901
0.106616
0.122534
0.174854
0.239755
0.281524
0.332172
0.326084
0.209348
0.13867
0.140272
0.132983
0.135517
0.130575
0.129115
0.126743
0.124109
0.133778
0.165559
0.226883
0.22949
0.210848
0.199224
0.223936
0.233489
0.213183
0.180403
0.179733
0.182635
0.172576
0.140812
0.136489
0.145796
0.17095
0.187409
0.192267
0.189827
0.162742
0.0994532
0.0639746
0.0487052
0.0418459
0.0387763
0.0355333
0.0322177
0.0294323
0.0272509
0.0257379
0.0243273
0.0252618
0.0289208
0.0411043
0.0847553
0.150572
0.105334
0.0652675
0.0779924
0.129146
0.0921279
0.104872
0.126633
0.166187
0.211374
0.24162
0.310364
0.347835
0.37428
0.387887
0.389315
0.27411
0.185898
0.140493
0.115196
0.149449
0.472286
0.966825
0.568863
0.22193
0.157898
0.160389
0.179316
0.202103
0.215403
0.233927
0.233853
0.283206
0.278392
0.352968
0.38637
0.460843
0.467247
0.457465
0.422512
0.346072
0.244457
0.166348
0.116722
0.0912642
0.0798871
0.0757715
0.0776039
0.0835279
0.10745
0.175589
0.261431
0.284359
0.300822
0.272915
0.191816
0.144645
0.150145
0.123567
0.124192
0.119408
0.125912
0.126083
0.126117
0.1208
0.134696
0.185832
0.198468
0.193202
0.16442
0.167018
0.212493
0.227109
0.217002
0.175726
0.153751
0.137843
0.128758
0.129383
0.148997
0.184874
0.196655
0.196616
0.194958
0.181669
0.125949
0.0729564
0.0502138
0.0421053
0.0379756
0.035395
0.0325377
0.0302665
0.0291689
0.0279074
0.026287
0.0251226
0.0238053
0.0249509
0.034031
0.0927303
0.110488
0.0906879
0.0910983
0.130267
0.0954462
0.102104
0.114602
0.150061
0.197849
0.241431
0.301404
0.344748
0.391751
0.404112
0.407736
0.364913
0.198144
0.140229
0.123727
0.197997
0.563966
0.912874
0.422498
0.174278
0.143857
0.16448
0.176074
0.185001
0.188848