/*--------------------------------*- C++ -*----------------------------------*\
| =========                 |                                                 |
| \\      /  F ield         | OpenFOAM: The Open Source CFD Toolbox           |
|  \\    /   O peration     | Version:  2.4.0                                 |
|   \\  /    A nd           | Web:      www.OpenFOAM.org                      |
|    \\/     M anipulation  |                                                 |
\*---------------------------------------------------------------------------*/
FoamFile
{
    version     2.0;
    format      ascii;
    class       volScalarField;
    location    "0.114";
    object      nuSgs;
}
// * * * * * * * * * * * * * * * * * * * * * * * * * * * * * * * * * * * * * //

dimensions      [0 2 -1 0 0 0 0];

internalField   nonuniform List<scalar> 
4400
(
0.0020531
0.00193468
0.00169955
0.00152686
0.00143343
0.00136291
0.00133325
0.00128937
0.0012723
0.00125699
0.00139736
0.00172545
0.0017272
0.00166681
0.00159017
0.00151677
0.00148495
0.00143158
0.00142719
0.0013942
0.000724977
0.00117654
0.00136701
0.00141476
0.00140748
0.00137253
0.0013569
0.00131134
0.00131637
0.00128831
0.000271556
0.000640953
0.000869122
0.00101113
0.00109018
0.00110731
0.00113067
0.00111727
0.0011273
0.00112413
8.82458e-05
0.000260131
0.000418685
0.000575191
0.000697183
0.000760181
0.000826597
0.000854813
0.000871505
0.000908893
2.58287e-05
8.68102e-05
0.000149274
0.000245377
0.000331781
0.000412387
0.000477387
0.000549418
0.000573868
0.000635904
7.8959e-06
2.57868e-05
4.29081e-05
7.6603e-05
0.00011208
0.000165361
0.000200456
0.000266689
0.000291524
0.000355897
4.29753e-06
1.0681e-05
1.31893e-05
1.96879e-05
2.91704e-05
4.55646e-05
5.93032e-05
8.98733e-05
0.00010339
0.000142278
3.89334e-06
8.41744e-06
8.86741e-06
9.65496e-06
1.0557e-05
1.26343e-05
1.53663e-05
2.33722e-05
2.58788e-05
3.59523e-05
3.8278e-06
7.79504e-06
9.20466e-06
9.38865e-06
9.28816e-06
9.3423e-06
9.72362e-06
1.09018e-05
1.10085e-05
1.17661e-05
3.79492e-06
7.77515e-06
9.40137e-06
9.44523e-06
9.2606e-06
9.27544e-06
9.69135e-06
1.02928e-05
1.08121e-05
1.28866e-05
3.83973e-06
7.67122e-06
9.80749e-06
1.01363e-05
1.08545e-05
1.29797e-05
1.61382e-05
1.96901e-05
2.56999e-05
4.36978e-05
4.19849e-06
9.45321e-06
1.50825e-05
2.00216e-05
2.86756e-05
4.70769e-05
6.0891e-05
8.37023e-05
0.000103871
0.000156687
7.73325e-06
2.56936e-05
4.74342e-05
7.28213e-05
0.000108858
0.000170245
0.000203903
0.000260101
0.000294244
0.000377576
2.52763e-05
8.6064e-05
0.000165011
0.000234392
0.000326725
0.000426786
0.000478795
0.000543197
0.000579126
0.000656044
8.66441e-05
0.000256842
0.000439593
0.000565418
0.000694615
0.000771533
0.000820159
0.000855857
0.000879233
0.000915941
0.000267028
0.000643513
0.00087468
0.00100686
0.00109054
0.00111233
0.00112533
0.0011228
0.00112505
0.00112679
0.000714517
0.00118402
0.00136685
0.00141404
0.00140755
0.00137324
0.00135308
0.0013184
0.00130959
0.00129082
0.00139327
0.00173147
0.00172552
0.00166705
0.00158988
0.00151437
0.00148313
0.00143377
0.0014216
0.00137955
0.00205081
0.00193958
0.00169474
0.00152947
0.00143281
0.00136061
0.00133165
0.00128547
0.00127307
0.00120435
0.000547667
0.000376019
0.00028918
0.000251083
0.000232867
0.000234351
0.000240532
0.000263373
0.000313418
0.000325623
0.000318845
0.000284113
0.000276466
0.000328587
0.000394422
0.000394079
0.000311019
0.000217771
0.000161251
0.00015105
0.000150289
0.000151714
0.000174344
0.000188218
0.000198171
0.000223467
0.000232867
0.000222827
0.000178245
0.000123977
0.00010364
9.99064e-05
0.00010389
0.000117536
0.000136772
0.000139494
0.000143157
0.000146761
0.000161058
0.000168639
0.000168114
0.000164037
0.000155194
0.000132087
0.000115148
0.000110078
0.000123707
0.000156863
0.000162692
0.00016147
0.000138976
0.000127035
0.000124965
0.000125123
0.000121521
0.000113176
0.000109991
0.000110384
0.00011457
0.000122588
0.000137766
0.000156173
0.000160516
0.000159177
0.000162654
0.000178759
0.00017316
0.000172468
0.0002057
0.000207298
0.000201768
0.000186379
0.00017675
0.000162065
0.000150908
0.00014956
0.000150999
0.00015537
0.000165191
0.000169435
0.000168361
0.000158603
0.000127092
0.00010709
9.305e-05
7.9006e-05
8.10631e-05
7.67937e-05
0.000105007
0.000103066
0.000121377
0.000117675
0.000125732
0.000125823
0.000162188
0.000165058
0.000217768
0.000204438
0.000216592
0.000215203
0.000664853
0.00056152
0.00047506
0.000429323
0.000389911
0.000358748
0.000353675
0.000353278
0.000351934
0.000340541
0.000323138
0.000270662
0.000250942
0.000253201
0.000344395
0.000375462
0.000322511
0.000236786
0.000177883
0.000157677
0.000154724
0.00016163
0.000183044
0.000191382
0.000213386
0.000232176
0.000229771
0.000201515
0.000133671
0.000105036
0.000100065
0.000104376
0.00012157
0.00015438
0.000166662
0.000167572
0.000172826
0.000180232
0.000201202
0.000200689
0.000197679
0.000188134
0.00017821
0.000155472
0.000129094
0.000116478
0.000120179
0.000147967
0.000158451
0.000161809
0.000150109
0.000131849
0.000128455
0.000126829
0.000119667
0.000114642
0.000113074
0.00011433
0.000119601
0.000127455
0.000145286
0.000161675
0.000165474
0.000165974
0.000173338
0.000177777
0.000164555
0.000166396
0.000205424
0.000207368
0.000199261
0.000174155
0.000157797
0.000146687
0.000141525
0.00014171
0.000143213
0.000147486
0.000158382
0.000165643
0.000165125
0.000157857
0.000129274
0.000106545
9.59783e-05
7.99425e-05
9.25187e-05
8.57796e-05
0.000102486
0.000101385
9.65561e-05
9.0869e-05
8.29341e-05
8.43762e-05
8.87685e-05
0.000106572
0.000159341
0.000195224
0.00027813
0.000262532
0.000635383
0.000582489
0.000527963
0.000485069
0.000459146
0.000431311
0.000409262
0.000383268
0.000366187
0.000335131
0.000317627
0.000267021
0.000224137
0.000213311
0.000244705
0.000348451
0.000333482
0.000255377
0.000196021
0.000170767
0.000169555
0.000177063
0.000186044
0.000204357
0.000231779
0.000234304
0.000218383
0.000151481
0.000108087
9.95481e-05
0.000104081
0.000123725
0.000166446
0.000196397
0.000198768
0.000199352
0.000210471
0.000221039
0.000231614
0.000225405
0.000212521
0.000197673
0.000186062
0.000174487
0.000146913
0.000123351
0.000121245
0.000140362
0.000153679
0.000160562
0.000155437
0.000139055
0.000130673
0.000128658
0.000120259
0.000117555
0.000116827
0.000118905
0.000124154
0.000134395
0.00015605
0.000167918
0.000171131
0.000173036
0.000179018
0.000174708
0.000157968
0.000162347
0.000211847
0.000213086
0.000196954
0.000167857
0.000146601
0.000133469
0.000131723
0.00013279
0.000135442
0.000140474
0.000152451
0.000162411
0.00016205
0.000156755
0.00013138
0.000105321
0.000102517
8.65756e-05
9.47094e-05
8.98158e-05
9.00971e-05
9.01274e-05
8.375e-05
7.48848e-05
7.44871e-05
7.30559e-05
7.30576e-05
7.80193e-05
8.75412e-05
0.000136816
0.00022163
0.000254917
0.000572806
0.000538067
0.0005089
0.000470676
0.000438959
0.000418448
0.000397067
0.000370547
0.00034936
0.000308043
0.00028564
0.000250402
0.000192205
0.000171058
0.00017503
0.000294241
0.000336436
0.000299269
0.000225453
0.000190616
0.00018661
0.000190199
0.00020148
0.000233733
0.000239037
0.00022853
0.000170355
0.000113461
9.82669e-05
0.000102197
0.000124293
0.000170962
0.000221298
0.000235801
0.000233331
0.000234778
0.00025027
0.00025346
0.000248184
0.000231854
0.000211985
0.000197182
0.00018533
0.000177852
0.00015918
0.00013565
0.000124189
0.000132101
0.000149311
0.000157361
0.000155242
0.000144306
0.000132563
0.000129764
0.000122394
0.000120976
0.000120986
0.000123379
0.000129357
0.000143922
0.000166802
0.000175529
0.000178326
0.00018097
0.000180679
0.000169056
0.000157021
0.000166843
0.000219096
0.000214064
0.000180545
0.000156819
0.000139266
0.000125631
0.000123258
0.000124194
0.00012745
0.000134836
0.000146608
0.000159738
0.000159689
0.000155619
0.000136023
0.000106888
0.000106986
9.40736e-05
9.38639e-05
9.08458e-05
8.75055e-05
8.36368e-05
7.74698e-05
7.61382e-05
7.35965e-05
7.33177e-05
7.2668e-05
7.40069e-05
7.8353e-05
0.0001035
0.000127714
0.000207872
0.000477458
0.000455902
0.000440564
0.000413359
0.000378489
0.00034854
0.000333348
0.000307133
0.000285129
0.000257116
0.000228798
0.000213742
0.000164404
0.000139878
0.000132484
0.000194871
0.000324039
0.000322098
0.000281444
0.00022652
0.000214397
0.000218993
0.000243857
0.000250173
0.000241407
0.000190031
0.000121312
9.65061e-05
9.77243e-05
0.000121269
0.000173981
0.000238825
0.000267971
0.000269895
0.000263957
0.000269186
0.000283034
0.000275392
0.000253224
0.000228636
0.000201615
0.000185198
0.00017989
0.000175632
0.000166883
0.000144897
0.000128281
0.000129262
0.000139653
0.000153489
0.00015377
0.00014955
0.00013664
0.000129262
0.000124592
0.000123444
0.000124651
0.000128739
0.000136562
0.000156174
0.000177623
0.000186073
0.000188413
0.00018808
0.000180828
0.000157236
0.000153033
0.000190205
0.00022333
0.000202341
0.000165252
0.000141912
0.000130507
0.000119034
0.000116748
0.000117327
0.000120514
0.000130157
0.000140911
0.000156443
0.000156314
0.000154296
0.000142005
0.000112659
0.00010885
9.52738e-05
9.29175e-05
9.02759e-05
8.51717e-05
8.18419e-05
7.49962e-05
7.42264e-05
7.25519e-05
7.44146e-05
7.33591e-05
7.72803e-05
7.75869e-05
9.23112e-05
0.000101425
0.000163043
0.000341191
0.000339364
0.000335623
0.000323821
0.000290778
0.000250857
0.000224753
0.000197192
0.000179646
0.000169735
0.000145922
0.000134227
0.000100915
9.49434e-05
9.12843e-05
0.00011305
0.000264422
0.00031287
0.00030533
0.000276064
0.00026306
0.000265991
0.000266633
0.000258123
0.000208723
0.000131121
9.54337e-05
9.35027e-05
0.000113497
0.000172435
0.000251934
0.000290513
0.000294483
0.000288212
0.000283471
0.000298957
0.000297906
0.000282495
0.000242921
0.000213996
0.000192351
0.000172023
0.000167547
0.000167634
0.000165067
0.000150412
0.000131281
0.000128273
0.000132299
0.000147168
0.000150445
0.00014907
0.000141981
0.000130164
0.000126922
0.000127002
0.000130423
0.00013549
0.000146134
0.000169665
0.000188912
0.000196053
0.000195359
0.000195097
0.00017967
0.000157269
0.00015612
0.000222411
0.000221899
0.000196103
0.000163709
0.000136167
0.000123772
0.000113414
0.000113213
0.000112731
0.000115386
0.000126377
0.000138685
0.000153749
0.00015284
0.000154968
0.000145984
0.000117202
0.000111107
9.68726e-05
9.45308e-05
9.03193e-05
8.41454e-05
8.17253e-05
7.61006e-05
7.5501e-05
7.36259e-05
7.55544e-05
7.45866e-05
7.67641e-05
7.66668e-05
8.43158e-05
8.75134e-05
0.00012708
0.000197694
0.000205076
0.000207272
0.000202496
0.000180288
0.000143506
0.00011848
0.0001007
9.41757e-05
9.03849e-05
8.31903e-05
7.70524e-05
5.90384e-05
5.64618e-05
5.6446e-05
6.48547e-05
0.000146251
0.000276663
0.000295498
0.000288979
0.000282918
0.000278145
0.0002659
0.000219282
0.000140204
9.62123e-05
8.8243e-05
0.000103146
0.000160977
0.000258181
0.000303251
0.000311293
0.000304104
0.000291131
0.000291819
0.000313304
0.000302605
0.000274389
0.00022406
0.000198121
0.000178234
0.000164289
0.000158236
0.000157298
0.000158495
0.000152459
0.000134614
0.000128584
0.000129608
0.000140901
0.000147297
0.000147304
0.000144668
0.000134345
0.00013162
0.000132388
0.000136579
0.000142797
0.000159171
0.000184828
0.00020213
0.000204155
0.000198269
0.000196806
0.000173856
0.000168575
0.000169791
0.000233343
0.000220282
0.000199613
0.000167709
0.000134391
0.000121668
0.000111253
0.000112192
0.000111085
0.000113677
0.000124492
0.000136309
0.000153576
0.000152495
0.000157478
0.000148819
0.000119753
0.000114372
0.000100979
9.80863e-05
9.05725e-05
8.75232e-05
8.24642e-05
7.80404e-05
7.54313e-05
7.56731e-05
7.53765e-05
7.80088e-05
7.71777e-05
7.79758e-05
8.26559e-05
8.50458e-05
0.000100653
8.81251e-05
9.63554e-05
9.78477e-05
9.48708e-05
8.11336e-05
6.13081e-05
4.74189e-05
4.06324e-05
4.08768e-05
4.24849e-05
4.21598e-05
4.02164e-05
3.4889e-05
3.5402e-05
3.66508e-05
3.87196e-05
7.56668e-05
0.000177111
0.000253308
0.000270391
0.000268393
0.000257238
0.000217212
0.000144626
9.68937e-05
8.36154e-05
9.15994e-05
0.000142887
0.000249693
0.000314364
0.000323361
0.000318407
0.000301731
0.0002909
0.00029895
0.000320513
0.000298553
0.00026091
0.000204996
0.000183036
0.000166428
0.000160272
0.000151892
0.000150244
0.000151234
0.000150597
0.000138662
0.000129353
0.000128865
0.000133849
0.00014514
0.000146142
0.000145467
0.00013975
0.000137553
0.00013892
0.000143595
0.000152291
0.000176066
0.000201609
0.000212886
0.000209099
0.000198287
0.000189867
0.000161121
0.000157581
0.000177787
0.000228702
0.000221019
0.000214891
0.000169919
0.000132371
0.000121319
0.000108372
0.000110257
0.000109783
0.000113997
0.000125014
0.000134616
0.000154666
0.000153282
0.000155728
0.000149266
0.000124386
0.000119292
0.000104778
0.000100425
9.09249e-05
8.80578e-05
8.14741e-05
7.89607e-05
7.55613e-05
7.79236e-05
7.71179e-05
7.97086e-05
7.92025e-05
7.95481e-05
8.43614e-05
8.69372e-05
9.51866e-05
2.64137e-05
3.30418e-05
3.32743e-05
3.09187e-05
2.42359e-05
1.84853e-05
1.56435e-05
1.52902e-05
1.66741e-05
1.90717e-05
2.03627e-05
2.22214e-05
2.59876e-05
2.99002e-05
3.00061e-05
2.9209e-05
4.07717e-05
8.62703e-05
0.000161926
0.000201083
0.000199707
0.000185594
0.000137586
9.29277e-05
7.75936e-05
8.21805e-05
0.000120456
0.00022282
0.000319581
0.000335188
0.00032934
0.000313929
0.000286169
0.000286812
0.000310283
0.000315438
0.000281399
0.000247456
0.000193737
0.000181229
0.000168069
0.000158098
0.000151129
0.000146983
0.000145954
0.000146828
0.000142127
0.00013062
0.000129036
0.000130675
0.000139485
0.000145624
0.000146471
0.000145201
0.000144671
0.000146856
0.000152267
0.000164615
0.000196061
0.000216943
0.000218628
0.000210083
0.000191731
0.00017348
0.00015573
0.000150463
0.000198136
0.000218587
0.000235585
0.000217243
0.00015409
0.000127695
0.0001247
0.000108278
0.000109001
0.000109537
0.000115492
0.00012686
0.000134461
0.000160824
0.000157806
0.000150516
0.000149425
0.000130231
0.000124367
0.000106898
0.000102296
9.20661e-05
8.89926e-05
8.15182e-05
8.09343e-05
7.87551e-05
8.12626e-05
8.09293e-05
8.25389e-05
8.18332e-05
8.22592e-05
8.61519e-05
8.84755e-05
9.58506e-05
7.33649e-06
9.39395e-06
9.28074e-06
8.60405e-06
8.61906e-06
9.6605e-06
1.20452e-05
1.35991e-05
1.455e-05
1.57783e-05
1.83766e-05
2.26915e-05
3.35966e-05
3.73981e-05
3.61366e-05
3.08316e-05
3.12272e-05
4.49526e-05
9.27581e-05
0.000128363
0.000128414
0.000115706
8.19407e-05
7.00687e-05
7.38715e-05
0.000105763
0.000187463
0.000315369
0.000345044
0.00034067
0.000320676
0.000284291
0.000269481
0.000281294
0.000312834
0.000306028
0.000274439
0.000236417
0.000191141
0.00018764
0.00018192
0.000158939
0.000154019
0.000146498
0.000145423
0.000144891
0.000143837
0.000133303
0.000130095
0.000130819
0.00013401
0.000144067
0.000145921
0.000148661
0.000149753
0.000153362
0.000159731
0.000183092
0.000216087
0.000224518
0.000221087
0.000201482
0.000174321
0.000157124
0.000148529
0.000148974
0.000194032
0.000221298
0.000240181
0.000192143
0.000141723
0.000125961
0.000134155
0.000111525
0.000109119
0.000109511
0.000116351
0.000129222
0.000135431
0.000170286
0.000172157
0.000152568
0.000153079
0.00013433
0.000127731
0.000109351
0.000105657
9.52106e-05
9.21011e-05
8.36773e-05
8.45207e-05
8.31941e-05
8.67103e-05
8.68233e-05
8.89909e-05
8.79829e-05
8.8666e-05
9.0608e-05
9.24062e-05
9.72215e-05
7.41409e-06
7.23392e-06
7.34754e-06
8.43006e-06
1.09683e-05
1.89857e-05
2.67115e-05
3.02761e-05
3.33679e-05
3.57957e-05
4.05554e-05
5.05903e-05
6.256e-05
6.35721e-05
6.02582e-05
4.85735e-05
3.69771e-05
3.75407e-05
5.3855e-05
7.37653e-05
7.31505e-05
6.25216e-05
5.98705e-05
6.61905e-05
9.70377e-05
0.000169577
0.000300469
0.000352573
0.000351481
0.000331308
0.000279247
0.000251705
0.00025415
0.000284076
0.000307198
0.00029217
0.000273248
0.000231776
0.000191307
0.000186949
0.000183275
0.000156972
0.000162183
0.000148635
0.000147243
0.00014484
0.0001462
0.000138533
0.000133523
0.000132413
0.000133471
0.000141132
0.000144356
0.000151197
0.00015271
0.000156567
0.000167466
0.000208856
0.000226644
0.00022727
0.000216443
0.000181889
0.000152417
0.000141398
0.000138118
0.000151698
0.00017417
0.000228491
0.000227154
0.000175519
0.000144461
0.000131719
0.000142997
0.000114037
0.000111656
0.000110145
0.000115876
0.000133933
0.000138869
0.000165584
0.000189222
0.000160469
0.000157462
0.000136206
0.000130948
0.000114106
0.000110691
9.97931e-05
9.70774e-05
8.9269e-05
8.96458e-05
8.89299e-05
9.37785e-05
9.36876e-05
9.78629e-05
9.5769e-05
0.000100047
9.96866e-05
0.000101687
0.000102417
2.48981e-05
2.31975e-05
2.35796e-05
2.79624e-05
3.39605e-05
5.04635e-05
6.4079e-05
6.99055e-05
7.66863e-05
8.0093e-05
8.71551e-05
0.000102081
0.000106572
0.000104973
9.76939e-05
8.04154e-05
5.93752e-05
4.62046e-05
4.67354e-05
5.0288e-05
5.01755e-05
5.26743e-05
6.5535e-05
9.88939e-05
0.000163145
0.000277862
0.000352854
0.000362211
0.000344357
0.000282527
0.000240971
0.000234449
0.000246009
0.000286524
0.000290755
0.000280495
0.000281256
0.000232619
0.000190786
0.000174541
0.000170473
0.000152951
0.000174797
0.000152783
0.000153524
0.00014679
0.000148285
0.000143377
0.000137046
0.000136368
0.000135078
0.000140117
0.00014498
0.000151953
0.000154063
0.000160566
0.000188982
0.000228311
0.00023032
0.000225706
0.000196266
0.000164446
0.000137529
0.000130866
0.000130532
0.000153915
0.000169166
0.00022477
0.000213304
0.000178105
0.000160969
0.000153736
0.000143658
0.000109722
0.000126083
0.000112187
0.000118755
0.000147307
0.00015378
0.000158093
0.000188353
0.000161877
0.000158428
0.000139073
0.000133803
0.000118571
0.000116204
0.000107833
0.000103324
9.31777e-05
9.40602e-05
9.43606e-05
0.000104538
0.000106433
0.000115418
0.000113295
0.000124433
0.000123105
0.000127173
0.000123569
8.76373e-05
8.32121e-05
8.35852e-05
9.1111e-05
9.83873e-05
0.000118604
0.000133472
0.000139559
0.000147532
0.000150489
0.000160411
0.000168359
0.000167413
0.00016259
0.000148195
0.000124404
9.85427e-05
7.48372e-05
6.26023e-05
6.23141e-05
6.65403e-05
8.23648e-05
0.000114833
0.000170085
0.00026687
0.000345606
0.000368175
0.000359127
0.000297328
0.000235543
0.000222512
0.000226639
0.000247534
0.000282796
0.000267891
0.000275415
0.000291865
0.000258354
0.000197488
0.000173076
0.000166621
0.000160041
0.000173548
0.000153417
0.000166321
0.000152859
0.000151791
0.000149921
0.000143216
0.000144485
0.000140302
0.000142264
0.000147712
0.00015252
0.000157509
0.000173302
0.000218614
0.00023461
0.000229235
0.000210524
0.00017171
0.000149206
0.000127073
0.000123973
0.000124723
0.000148793
0.000164873
0.000216566
0.000212207
0.00020925
0.000180283
0.000163434
0.000135759
0.000117456
0.000153306
0.000117256
0.000131809
0.000165379
0.000207535
0.000162316
0.000184416
0.000162147
0.00015903
0.00014101
0.000136228
0.000123212
0.000121646
0.000113029
0.000108344
9.9872e-05
0.00010211
0.000105896
0.000122199
0.000124949
0.000140721
0.000147438
0.000190119
0.000191895
0.000199609
0.000190232
0.000206061
0.00019577
0.000194895
0.000201275
0.000206102
0.000220048
0.000227583
0.000229156
0.000232666
0.000233989
0.000240235
0.000240038
0.000235837
0.000226579
0.000204668
0.000180392
0.000154597
0.000124448
0.000109624
0.000111414
0.000123649
0.000152732
0.000195891
0.00027112
0.000340984
0.000366934
0.000366543
0.000322595
0.00023412
0.000211623
0.000214026
0.000223947
0.000248834
0.000268769
0.000248618
0.000276812
0.000311982
0.000297932
0.000219046
0.00018552
0.000174939
0.000175928
0.000164625
0.000159322
0.000167052
0.00016196
0.000156293
0.000157001
0.000150039
0.000150902
0.00014752
0.00014798
0.000152083
0.000156896
0.00016741
0.000205594
0.000231802
0.00023257
0.000210791
0.000184163
0.000147629
0.000132135
0.000119013
0.000118946
0.000121131
0.000139032
0.000159332
0.000209379
0.000227017
0.000241716
0.000186878
0.000157066
0.000142385
0.000139149
0.000167176
0.000132283
0.000169065
0.000165909
0.00023181
0.000169863
0.000183395
0.000163615
0.000162945
0.000144541
0.000145045
0.000133782
0.000134798
0.000123551
0.000123068
0.000116157
0.000120504
0.000120005
0.000129451
0.000154983
0.000203589
0.000251155
0.00027038
0.000274247
0.000272914
0.000263294
0.000350231
0.000330393
0.00032123
0.000320999
0.000318558
0.000321222
0.000320244
0.000312848
0.000310417
0.000306542
0.000305355
0.000302221
0.00029363
0.00027845
0.000255597
0.000232217
0.00021065
0.000189386
0.000184626
0.000189812
0.000208991
0.000236849
0.000287632
0.000343677
0.000365619
0.000367638
0.00034232
0.00024394
0.000200409
0.00019981
0.000208094
0.000222771
0.000242768
0.000247116
0.000236847
0.000278188
0.000335673
0.000339875
0.000250705
0.000204221
0.000188569
0.000185947
0.000175015
0.000176521
0.000167744
0.000181248
0.000162352
0.000171748
0.000165156
0.000159894
0.000160975
0.000160156
0.000163559
0.000171426
0.000198353
0.000226851
0.000231957
0.000214671
0.000172624
0.000145646
0.00011739
0.000109192
0.0001093
0.000112373
0.000117955
0.000129807
0.000150658
0.000199513
0.000239644
0.000255839
0.000189797
0.00016133
0.000161671
0.0001644
0.000172992
0.000172227
0.000214263
0.000163716
0.000222713
0.000172686
0.000181846
0.000169099
0.00016937
0.000152383
0.000158138
0.000148098
0.000149683
0.000136187
0.000136257
0.000130234
0.000132629
0.000150756
0.000171327
0.000232978
0.000248488
0.000273111
0.000268337
0.000265996
0.000256062
0.000246034
0.000479122
0.000446149
0.000430935
0.000417557
0.000402767
0.000396258
0.000379426
0.000367155
0.000361711
0.000355666
0.000352563
0.000345761
0.000328711
0.000312152
0.000293685
0.000275713
0.00026209
0.000255551
0.000256374
0.000263732
0.000280581
0.000313474
0.000351626
0.000368462
0.000367842
0.000346282
0.000255382
0.000192707
0.000183243
0.000185117
0.000195282
0.000212574
0.0002238
0.000221641
0.000225309
0.000264145
0.000350168
0.000393627
0.000312834
0.000228329
0.000199626
0.000193962
0.000191557
0.000192185
0.000178592
0.000207659
0.000172232
0.000184445
0.000183149
0.000173918
0.000179172
0.000179525
0.000190283
0.00020448
0.000228027
0.000229183
0.000214829
0.000164819
0.000135567
0.000116047
0.000103883
9.99229e-05
0.0001018
0.000108079
0.000113235
0.000121233
0.0001364
0.000181435
0.000239915
0.000264595
0.000213444
0.000180706
0.000167497
0.000164069
0.000171477
0.000186136
0.000190122
0.000160102
0.000182514
0.000189774
0.000172332
0.000169178
0.000158855
0.000157198
0.000157508
0.000156595
0.000150203
0.000148857
0.000150021
0.00015829
0.000162301
0.000174836
0.000188001
0.0002101
0.000237619
0.000248454
0.000287639
0.000290957
0.000293883
0.000283239
0.000578946
0.000533715
0.000503281
0.000471613
0.000450227
0.000431048
0.000410697
0.000403038
0.000395006
0.000389657
0.000384414
0.000370368
0.000355019
0.000344057
0.000331119
0.000320342
0.000315599
0.000314763
0.000317007
0.00032506
0.00034362
0.000365835
0.000373327
0.000368075
0.000341612
0.000255379
0.000181203
0.000167402
0.000175328
0.000176644
0.000181786
0.000192973
0.000208763
0.000219938
0.000218297
0.000234278
0.000345567
0.000432517
0.000421753
0.000294717
0.000229637
0.000211112
0.00020614
0.000205412
0.000200233
0.000223415
0.000192359
0.000200905
0.000218367
0.000202873
0.000215884
0.000217639
0.000224336
0.000227295
0.000227372
0.000206821
0.000166481
0.000136541
0.000120382
0.000108819
0.000103876
0.000102747
0.000102919
0.000105629
0.000107588
0.000111817
0.000120989
0.000160764
0.000230256
0.000269694
0.000250696
0.000211503
0.000180156
0.000166977
0.00018228
0.000181892
0.000183633
0.000168574
0.000173104
0.000201465
0.000175605
0.000168413
0.000169109
0.000180082
0.000180428
0.000180805
0.00017547
0.00017992
0.000181375
0.000184565
0.000195165
0.000210422
0.00024866
0.000278628
0.000359661
0.00039889
0.000412451
0.000406317
0.000402425
0.000379675
0.000640812
0.000576675
0.000528331
0.000489663
0.000466668
0.000445154
0.000433836
0.000426448
0.000417507
0.000412819
0.000403307
0.000391357
0.000384372
0.000376167
0.000367737
0.000364432
0.000363683
0.000363937
0.000366687
0.00037604
0.000381182
0.000379563
0.00036652
0.000318837
0.000239816
0.000170147
0.000141708
0.000156531
0.000174702
0.000176452
0.00018089
0.000196465
0.000216479
0.000236844
0.000218328
0.000209335
0.000273567
0.000441671
0.000502303
0.000439458
0.000314192
0.000258931
0.000237145
0.000229208
0.000233042
0.000252626
0.000233871
0.000222075
0.000262076
0.000238213
0.00024024
0.000237586
0.000228908
0.000217686
0.000184224
0.000160525
0.000144703
0.000131524
0.000125374
0.000124573
0.000127069
0.000115895
0.000108155
0.000107529
0.000109495
0.00011573
0.000125962
0.000162656
0.000224572
0.000264967
0.000275259
0.000251152
0.000222639
0.000202434
0.000202789
0.00020165
0.000209848
0.000194462
0.00020583
0.000203428
0.000211736
0.000196972
0.000219579
0.000223678
0.000225979
0.000223314
0.0002251
0.000231254
0.000253054
0.000282985
0.000341135
0.000403274
0.000483335
0.000506705
0.000505786
0.000491855
0.000448952
0.000412666
0.000400942
0.000378884
0.000651665
0.000572939
0.000521002
0.000491054
0.000472641
0.000456613
0.000448
0.000436677
0.000425713
0.000416767
0.000404268
0.000397579
0.00039385
0.000388203
0.000388046
0.000390607
0.00039279
0.000395698
0.000398613
0.00039789
0.000387718
0.000352311
0.000291449
0.000223128
0.000160277
0.0001248
0.000125343
0.000154584
0.000190981
0.00020254
0.000203103
0.000221737
0.000242241
0.000242258
0.000221274
0.000217927
0.000226949
0.000336655
0.000524529
0.000556461
0.000548648
0.000454819
0.000374928
0.00027191
0.00026175
0.000263079
0.000258128
0.000234006
0.000250057
0.000254947
0.000231496
0.000230202
0.000214288
0.000207419
0.000193684
0.000199811
0.000191167
0.000185844
0.000166513
0.000171473
0.000164875
0.000164687
0.000149993
0.000156375
0.000161488
0.000203818
0.000232036
0.00025756
0.000249011
0.00025552
0.000282202
0.000281875
0.000296991
0.000239149
0.000260592
0.000229012
0.000239203
0.000245791
0.000248073
0.000239779
0.000285237
0.000285314
0.000332594
0.000355364
0.000402041
0.000442734
0.000471387
0.000533211
0.000571563
0.000643855
0.00065428
0.000662036
0.000638241
0.000600688
0.000520446
0.000483507
0.000438235
0.000429768
0.000426312
0.000430519
0.000537888
0.000488851
0.000463394
0.000446041
0.000427397
0.000405732
0.000381962
0.000355243
0.000329866
0.00030786
0.000291531
0.00028502
0.000286182
0.000293213
0.000307672
0.000326488
0.000346475
0.000366487
0.000380667
0.000381595
0.000362298
0.000316095
0.000257867
0.00020428
0.000169861
0.00015662
0.000155143
0.000163795
0.00019195
0.000224329
0.000235701
0.000222579
0.000213811
0.000230098
0.000283675
0.000318572
0.000323882
0.000304341
0.000283099
0.000520857
0.000728089
0.000805837
0.000822558
0.000704822
0.000588469
0.000509485
0.000353586
0.000224838
0.000225267
0.000235209
0.000229484
0.000300062
0.000343309
0.000406962
0.000413059
0.000410796
0.000342056
0.000297725
0.000211675
0.000211675
0.000163148
0.000209963
0.000197989
0.000275696
0.000295305
0.000393079
0.000376914
0.000390641
0.000312509
0.000296057
0.000274039
0.00029524
0.000401116
0.000313838
0.000457346
0.000242906
0.000341675
0.00027244
0.000292644
0.000330651
0.000443634
0.000551158
0.000608165
0.000729014
0.000727044
0.000808734
0.000799282
0.000861413
0.000825483
0.000841369
0.000763621
0.000744321
0.000649337
0.000639067
0.000573986
0.000587655
0.000552619
0.000587104
0.000587683
0.000639287
6.62696e-05
0.000129715
0.000146378
0.00020039
0.000246544
0.000294699
0.000329955
0.000368884
0.000442487
0.000518448
0.000538669
0.000498971
0.000377108
0.000261458
0.000196395
0.000197443
0.000223732
0.000285038
0.000361475
0.000385176
0.000357207
0.000284662
0.000360006
0.000531442
0.000661032
0.000736753
0.00078977
0.000811482
0.000807707
0.000764324
0.000682085
0.000631439
0.000537747
0.000438561
0.000306171
0.000265057
0.000196498
0.000180852
0.000201543
0.000251565
0.000322571
0.000384851
0.000464865
0.000534556
0.000577665
0.000580649
0.000570972
0.000537955
0.000481175
0.000389016
0.000301303
0.000282993
0.000317124
0.000371464
0.000398107
0.000352898
0.00033421
0.000250429
0.000197582
0.000173325
0.000166279
0.000177672
0.000198815
0.00021592
0.000232615
0.000240646
0.000246078
0.000244857
0.000244146
0.00024256
0.000245422
0.000248732
0.000254707
0.000258948
0.000261245
0.000258883
0.000250135
0.000233369
0.000209531
0.000180709
0.00015169
0.000128248
0.000114459
0.000110899
0.000115459
0.000125854
0.000137146
0.000146096
0.000151585
0.000155281
0.000157679
0.000151813
0.000128672
0.00010427
9.68849e-05
0.000128078
0.00021365
0.000240691
0.000167331
0.000131577
9.64092e-05
0.000124826
0.000112736
0.00011752
0.000127548
0.000142957
0.000156338
0.000176202
0.000194573
0.0002231
0.000295248
0.000391926
0.000387833
0.000359233
0.000289693
0.000224464
0.000195779
0.000197505
0.000207896
0.000241438
0.000388737
0.000523254
0.000543319
0.000550289
0.000533125
0.000484169
0.000458914
0.000396589
0.000351123
0.000288723
0.000257342
0.000247884
0.00022469
0.000214915
0.000201485
0.000199757
0.000203795
0.000195208
0.00019283
0.000191834
0.000194009
0.000201713
0.000219477
0.000250007
0.000320412
0.000405034
0.00043381
0.000423823
0.000355939
0.000289288
0.000269911
0.000284873
0.000278265
0.000269939
0.000219382
0.000200449
0.000177949
0.000185717
0.000185776
0.0001776
0.000173928
0.000170065
0.000172066
0.000174077
0.000176473
0.000178304
0.00018206
0.000188625
0.000200119
0.000212702
0.00022919
0.000243168
0.000250242
0.000248994
0.000236862
0.000211068
0.000183992
0.000158303
0.000136946
0.000121342
0.000111999
0.000107366
0.000106622
0.000106983
0.000105727
0.000101911
9.56735e-05
8.83041e-05
8.33819e-05
8.10054e-05
7.9628e-05
7.81441e-05
7.97551e-05
8.31696e-05
9.18553e-05
0.000125192
0.000150515
0.00014013
0.000116842
0.000133138
0.000121909
0.000109634
9.44851e-05
9.88742e-05
0.000112372
0.000126702
0.000134848
0.000166892
0.000171413
0.000170342
0.000173472
0.000199859
0.000271704
0.000296038
0.000280002
0.000224133
0.00016878
0.000165075
0.000197643
0.00036955
0.0005115
0.000511815
0.000451664
0.000367436
0.000275747
0.000241926
0.000225804
0.000212465
0.000209166
0.000208767
0.000215334
0.000210233
0.000215759
0.000213752
0.000211346
0.000218739
0.000214284
0.000211731
0.000204115
0.000191903
0.000179425
0.00016351
0.00015409
0.000155789
0.000172741
0.000203016
0.000220241
0.000246963
0.000271121
0.000273372
0.000262442
0.000256142
0.000206103
0.000196172
0.000168756
0.000175605