/*--------------------------------*- C++ -*----------------------------------*\
| =========                 |                                                 |
| \\      /  F ield         | OpenFOAM: The Open Source CFD Toolbox           |
|  \\    /   O peration     | Version:  2.4.0                                 |
|   \\  /    A nd           | Web:      www.OpenFOAM.org                      |
|    \\/     M anipulation  |                                                 |
\*---------------------------------------------------------------------------*/
FoamFile
{
    version     2.0;
    format      ascii;
    class       volVectorField;
    location    "0.114";
    object      U;
}
// * * * * * * * * * * * * * * * * * * * * * * * * * * * * * * * * * * * * * //

dimensions      [0 1 -1 0 0 0 0];

internalField   nonuniform List<vector> 
4400
(
(5.40544 0.316734 0)
(3.31218 0.060746 0)
(2.58791 0.00136041 0)
(2.22927 -0.00192353 0)
(2.08448 -0.00170561 0)
(1.98981 -0.000237434 0)
(1.95724 -0.000928415 0)
(1.89763 0.000519228 0)
(1.84718 0.00329201 0)
(1.81216 -0.0487319 0)
(8.69192 0.857458 0)
(7.52783 0.3446 0)
(6.64369 0.115836 0)
(5.90003 0.0560044 0)
(5.5305 0.0259439 0)
(5.25627 0.0169232 0)
(5.16046 0.00901343 0)
(4.98125 0.0128466 0)
(4.91958 0.0147983 0)
(4.82653 -0.0648769 0)
(9.905 0.93761 0)
(9.96667 0.476942 0)
(9.51575 0.211936 0)
(8.73692 0.131875 0)
(8.28728 0.0736243 0)
(7.88686 0.047599 0)
(7.76935 0.0284038 0)
(7.46539 0.0306444 0)
(7.48742 0.033645 0)
(7.17554 -0.0775441 0)
(10.1503 0.808496 0)
(11.0768 0.497832 0)
(11.2999 0.263315 0)
(10.8069 0.20032 0)
(10.4748 0.128899 0)
(10.0386 0.0858533 0)
(9.97872 0.0571381 0)
(9.55054 0.0504619 0)
(9.69769 0.0582119 0)
(9.31758 -0.0569255 0)
(10.0991 0.648927 0)
(11.2688 0.436685 0)
(12.008 0.241452 0)
(11.9386 0.222144 0)
(11.9154 0.164147 0)
(11.5795 0.117425 0)
(11.6745 0.0868299 0)
(11.2082 0.0724773 0)
(11.4229 0.0703322 0)
(11.2074 -0.00582744 0)
(10.103 0.518096 0)
(11.1812 0.362837 0)
(12.0498 0.178126 0)
(12.2171 0.189607 0)
(12.5019 0.158359 0)
(12.3585 0.119285 0)
(12.6665 0.10081 0)
(12.3345 0.088176 0)
(12.5687 0.072354 0)
(12.5627 0.0223531 0)
(10.1145 0.396446 0)
(11.1525 0.301752 0)
(11.9735 0.125887 0)
(12.1916 0.141902 0)
(12.526 0.122655 0)
(12.5454 0.0976139 0)
(12.9281 0.0815815 0)
(12.8393 0.0935996 0)
(13.0708 0.0474339 0)
(13.2439 0.0645067 0)
(10.055 0.270713 0)
(11.1615 0.234783 0)
(11.943 0.0803445 0)
(12.1779 0.109558 0)
(12.3967 0.0814321 0)
(12.607 0.0726907 0)
(12.88 0.0497753 0)
(12.9613 0.0863133 0)
(13.1118 0.0180085 0)
(13.4149 0.0359181 0)
(10.0044 0.160457 0)
(11.1473 0.142425 0)
(11.8821 0.0522117 0)
(12.1712 0.0726038 0)
(12.3932 0.0436014 0)
(12.6383 0.0290258 0)
(12.8076 0.0352969 0)
(12.9611 0.0612033 0)
(13.1134 0.00735771 0)
(13.3988 -0.0349237 0)
(10.0136 0.044524 0)
(11.0966 0.0623506 0)
(11.8377 0.0107607 0)
(12.2121 0.0369845 0)
(12.4343 -0.00146203 0)
(12.5708 0.0110587 0)
(12.7619 0.00716493 0)
(12.955 0.0423259 0)
(13.175 -0.0250559 0)
(13.2812 -0.0325746 0)
(10.0163 -0.0613131 0)
(11.0753 -0.0265449 0)
(11.8404 -0.023628 0)
(12.2342 -0.00982446 0)
(12.4207 -0.0263301 0)
(12.5819 -0.0230526 0)
(12.7542 -0.0153172 0)
(12.9565 0.00501752 0)
(13.1478 -0.0330649 0)
(13.2568 -0.0554099 0)
(10.0178 -0.173315 0)
(11.0861 -0.109507 0)
(11.8763 -0.0674544 0)
(12.2405 -0.0475301 0)
(12.4335 -0.0649849 0)
(12.5986 -0.04623 0)
(12.7765 -0.0374126 0)
(12.9668 -0.0189113 0)
(13.1471 -0.0591049 0)
(13.3358 -0.10527 0)
(10.0203 -0.281774 0)
(11.1124 -0.197667 0)
(11.9402 -0.106816 0)
(12.239 -0.0893027 0)
(12.4577 -0.0940525 0)
(12.625 -0.0792948 0)
(12.8491 -0.0624126 0)
(12.9968 -0.0477906 0)
(13.1722 -0.0824146 0)
(13.3433 -0.139576 0)
(10.0174 -0.398146 0)
(11.1524 -0.275663 0)
(12.0207 -0.153323 0)
(12.2388 -0.12644 0)
(12.5337 -0.131845 0)
(12.6346 -0.10951 0)
(12.8703 -0.0855661 0)
(12.9043 -0.0674531 0)
(13.0966 -0.104366 0)
(13.1122 -0.164037 0)
(9.99297 -0.515562 0)
(11.2528 -0.350777 0)
(12.072 -0.203141 0)
(12.25 -0.172924 0)
(12.4899 -0.165203 0)
(12.431 -0.130595 0)
(12.5597 -0.0975807 0)
(12.43 -0.0806304 0)
(12.5487 -0.107269 0)
(12.3328 -0.161966 0)
(10.0246 -0.645889 0)
(11.3546 -0.431687 0)
(11.9835 -0.257311 0)
(11.9589 -0.207335 0)
(11.9062 -0.172284 0)
(11.62 -0.122178 0)
(11.5725 -0.0886874 0)
(11.3154 -0.0675361 0)
(11.3398 -0.0987024 0)
(10.9708 -0.101714 0)
(10.1058 -0.806288 0)
(11.1422 -0.495694 0)
(11.2619 -0.27273 0)
(10.8255 -0.190415 0)
(10.4709 -0.135157 0)
(10.051 -0.0874192 0)
(9.91245 -0.06145 0)
(9.61919 -0.0464655 0)
(9.60262 -0.0752802 0)
(9.17222 -0.0440314 0)
(9.88211 -0.936927 0)
(10.0109 -0.476003 0)
(9.48017 -0.216929 0)
(8.75408 -0.126115 0)
(8.28568 -0.0776359 0)
(7.8848 -0.0475065 0)
(7.73715 -0.0332753 0)
(7.47773 -0.0266967 0)
(7.45324 -0.0455212 0)
(7.02582 -0.0226659 0)
(8.68101 -0.857245 0)
(7.55232 -0.344014 0)
(6.6206 -0.117861 0)
(5.91198 -0.0536115 0)
(5.5291 -0.0275782 0)
(5.25218 -0.0167248 0)
(5.1441 -0.0120324 0)
(4.96522 -0.0109872 0)
(4.93757 -0.0206318 0)
(4.59341 -0.00914189 0)
(5.40302 -0.31687 0)
(3.31909 -0.060615 0)
(2.5814 -0.00166241 0)
(2.23233 0.00222342 0)
(2.0843 0.0015724 0)
(1.98872 0.000343896 0)
(1.94871 0.000224032 0)
(1.88311 -0.000558541 0)
(1.85651 -0.00178199 0)
(1.71092 0.0111623 0)
(2.45584 -0.0737319 0)
(2.30299 0.373788 0)
(2.99881 0.645238 0)
(3.35929 0.694676 0)
(4.29845 0.767161 0)
(5.08061 0.437813 0)
(5.65508 -0.054633 0)
(6.57305 -0.568527 0)
(6.49518 -1.48475 0)
(7.01577 -2.472 0)
(6.90028 -3.24686 0)
(6.00771 -3.62355 0)
(5.97344 -3.21237 0)
(4.8013 -2.32326 0)
(3.5657 -2.47305 0)
(3.32688 -1.65814 0)
(3.8681 2.41617 0)
(4.02396 5.3313 0)
(5.62134 4.99461 0)
(6.00809 4.27124 0)
(6.73923 2.99132 0)
(6.97956 2.03354 0)
(7.47866 0.593213 0)
(9.21589 -1.24036 0)
(9.56664 -2.41549 0)
(10.0483 -3.10789 0)
(11.4718 -4.50103 0)
(13.4577 -5.8865 0)
(13.578 -6.54447 0)
(14.4085 -6.80776 0)
(13.7877 -6.79565 0)
(14.2065 -6.32518 0)
(13.1937 -5.80951 0)
(13.6605 -5.03226 0)
(12.0784 -4.22713 0)
(11.8968 -3.5016 0)
(11.4264 -3.12494 0)
(10.4851 -2.71849 0)
(11.1777 -2.40241 0)
(10.1662 -1.3803 0)
(10.9963 -0.750719 0)
(9.80646 0.265585 0)
(10.823 1.43293 0)
(9.1481 2.5769 0)
(10.6035 3.35826 0)
(7.87777 4.47763 0)
(9.58052 5.0407 0)
(6.03039 5.61441 0)
(8.82785 5.49559 0)
(5.83207 6.54088 0)
(7.33007 6.01665 0)
(7.54212 6.5847 0)
(6.97223 4.88789 0)
(8.99307 3.98234 0)
(8.28318 2.46327 0)
(10.262 0.228983 0)
(9.3161 -1.8649 0)
(10.7174 -3.13237 0)
(9.45316 -5.23554 0)
(11.3324 -6.12012 0)
(9.57042 -6.48177 0)
(10.3371 -5.89292 0)
(8.6554 -5.18515 0)
(9.24305 -3.36507 0)
(7.90713 -3.8119 0)
(7.58914 -1.78922 0)
(4.74523 -0.947862 0)
(4.74077 0.326814 0)
(5.37332 -3.14533 0)
(7.38201 -3.32376 0)
(8.51233 -3.79758 0)
(9.67127 -2.74063 0)
(10.6674 -1.82799 0)
(11.1097 -0.914252 0)
(11.2519 0.222425 0)
(11.0424 1.41847 0)
(10.7688 2.55555 0)
(10.1601 3.5104 0)
(9.52802 4.59113 0)
(8.51674 5.20417 0)
(7.84258 5.14565 0)
(6.9646 4.77746 0)
(6.54462 3.92436 0)
(5.88768 4.29473 0)
(5.83406 3.94077 0)
(4.94647 5.02173 0)
(5.89226 3.68052 0)
(4.04717 4.41533 0)
(6.96966 2.28313 0)
(3.62428 2.47343 0)
(8.19584 0.000624496 0)
(4.9957 0.724006 0)
(8.89978 -1.03264 0)
(6.18492 0.408084 0)
(8.53733 -0.502705 0)
(6.27775 0.794663 0)
(8.29878 0.553151 0)
(4.22655 1.71203 0)
(6.50492 1.39212 0)
(3.95357 5.47734 0)
(5.13703 0.0762195 0)
(4.64492 0.37192 0)
(4.98713 0.545885 0)
(5.14137 0.467949 0)
(5.72585 0.329888 0)
(6.61722 0.112248 0)
(7.08399 -0.331597 0)
(8.10073 -0.809571 0)
(8.35506 -1.52998 0)
(8.71675 -2.49303 0)
(8.61005 -3.11619 0)
(7.4112 -3.34362 0)
(7.38375 -3.21052 0)
(6.19952 -1.97389 0)
(5.93139 -1.76068 0)
(4.7971 -1.60064 0)
(4.32164 1.98865 0)
(5.28154 5.05765 0)
(6.70579 4.72042 0)
(7.12802 4.00923 0)
(7.71409 2.93013 0)
(8.16223 1.85172 0)
(9.01457 0.159076 0)
(10.372 -1.62061 0)
(10.6207 -2.68075 0)
(11.3362 -3.57252 0)
(12.9297 -5.08085 0)
(14.2605 -6.19697 0)
(14.1682 -6.70879 0)
(14.6375 -6.84662 0)
(13.8461 -6.63242 0)
(14.2048 -6.21199 0)
(13.377 -5.69927 0)
(13.538 -4.77229 0)
(11.6685 -3.82189 0)
(11.8408 -3.25098 0)
(10.7369 -2.99358 0)
(10.1492 -2.57428 0)
(10.3734 -2.33625 0)
(9.62198 -1.26403 0)
(10.4623 -0.736057 0)
(9.38854 0.32983 0)
(10.6356 1.56725 0)
(8.716 2.65042 0)
(10.5614 3.5253 0)
(7.86162 4.67035 0)
(9.79332 5.28692 0)
(6.45384 5.76895 0)
(8.73597 5.53191 0)
(6.75795 6.7152 0)
(7.34011 5.91111 0)
(8.15365 6.38999 0)
(7.56141 4.67982 0)
(9.43481 3.69594 0)
(9.08944 2.37961 0)
(10.7541 0.081053 0)
(10.1045 -2.04934 0)
(11.1962 -3.12204 0)
(9.9851 -5.23083 0)
(12.0217 -6.19891 0)
(9.70356 -6.29509 0)
(10.7237 -5.63879 0)
(8.64553 -4.95008 0)
(9.43254 -3.14893 0)
(7.32246 -3.41008 0)
(6.98146 -1.0082 0)
(4.18938 -0.59087 0)
(5.35385 0.201843 0)
(5.33337 -3.96911 0)
(7.67999 -3.76057 0)
(8.30772 -4.34435 0)
(9.16115 -2.96047 0)
(9.80562 -2.10157 0)
(10.1271 -0.96552 0)
(10.3099 0.242731 0)
(10.0739 1.517 0)
(9.97194 2.69809 0)
(9.53127 3.72882 0)
(9.03343 4.83432 0)
(8.16838 5.54954 0)
(7.61297 5.34012 0)
(6.8013 5.14604 0)
(6.66847 3.98145 0)
(5.85398 4.63841 0)
(6.25739 3.84021 0)
(4.98148 5.25576 0)
(7.51643 3.66918 0)
(3.36635 4.48448 0)
(8.94912 1.83666 0)
(4.12295 2.61437 0)
(9.8046 -0.592906 0)
(5.3833 0.699547 0)
(10.4797 -1.28372 0)
(5.99465 0.361559 0)
(10.8513 -0.765712 0)
(6.83675 0.953241 0)
(10.6514 0.426744 0)
(6.39193 2.73522 0)
(8.57651 1.18732 0)
(5.54835 5.76126 0)
(7.53667 0.0510023 0)
(7.27457 0.411868 0)
(7.35256 0.493204 0)
(7.46604 0.357405 0)
(7.8821 0.0945516 0)
(8.47619 -0.193321 0)
(8.9315 -0.552625 0)
(9.82926 -1.05889 0)
(10.1495 -1.60671 0)
(10.2753 -2.40206 0)
(10.3637 -2.89138 0)
(8.78289 -2.953 0)
(8.94104 -3.01583 0)
(7.07095 -1.84763 0)
(7.86129 -1.20453 0)
(6.13475 -1.15968 0)
(4.76166 1.84714 0)
(6.2769 4.76331 0)
(7.88056 4.53143 0)
(8.25086 3.88379 0)
(8.89024 2.81588 0)
(9.6692 1.51235 0)
(10.4556 -0.197977 0)
(11.2992 -1.8235 0)
(11.6612 -2.97652 0)
(12.7824 -4.14919 0)
(14.1123 -5.52912 0)
(14.6546 -6.30729 0)
(14.3946 -6.75678 0)
(14.6362 -6.8721 0)
(13.8897 -6.50823 0)
(14.2326 -6.06819 0)
(13.3761 -5.43083 0)
(13.0139 -4.41781 0)
(11.1322 -3.45622 0)
(11.4408 -2.9648 0)
(9.73214 -2.73049 0)
(9.48305 -2.36398 0)
(9.08097 -2.22755 0)
(9.01402 -1.17388 0)
(9.7213 -0.834871 0)
(8.90021 0.346784 0)
(10.3408 1.68032 0)
(8.35737 2.67633 0)
(10.3345 3.58989 0)
(7.80217 4.86524 0)
(9.60724 5.57118 0)
(7.07519 5.99714 0)
(8.38738 5.5499 0)
(7.58201 6.82972 0)
(7.5763 5.85798 0)
(8.58743 6.17303 0)
(8.35606 4.53347 0)
(9.59569 3.40315 0)
(9.87813 2.15095 0)
(11.0946 -0.0302685 0)
(10.749 -2.14583 0)
(11.4498 -3.19983 0)
(10.5679 -5.31856 0)
(12.3465 -6.20066 0)
(9.70834 -6.09405 0)
(10.9784 -5.37555 0)
(8.48465 -4.65926 0)
(9.53402 -2.87765 0)
(6.55303 -2.82764 0)
(6.52606 -0.329967 0)
(3.90424 -0.309079 0)
(6.31464 -0.03795 0)
(4.95296 -4.46129 0)
(7.66473 -4.12759 0)
(7.73856 -4.79546 0)
(8.64918 -2.96676 0)
(8.84436 -2.32039 0)
(9.07762 -0.953589 0)
(9.1791 0.262729 0)
(8.97248 1.62306 0)
(9.0424 2.80474 0)
(8.74574 3.95475 0)
(8.43963 5.05896 0)
(7.69112 5.88822 0)
(7.35504 5.48739 0)
(6.59675 5.51904 0)
(6.68924 3.91213 0)
(5.71715 4.98282 0)
(7.21513 3.74733 0)
(4.38824 5.32281 0)
(9.15601 3.54654 0)
(3.77875 4.66908 0)
(10.1039 1.46761 0)
(4.50867 2.49028 0)
(10.5575 -0.676123 0)
(4.98351 0.881675 0)
(10.2947 -1.80186 0)
(6.06256 0.74728 0)
(10.5176 -1.38295 0)
(6.52728 1.28638 0)
(10.9703 -0.0993209 0)
(7.5083 3.01281 0)
(11.7065 1.20834 0)
(7.6028 5.56612 0)
(9.35826 -0.0530433 0)
(9.33075 0.379445 0)
(9.65676 0.544809 0)
(9.64872 0.262298 0)
(9.97257 -0.0901287 0)
(10.5536 -0.412332 0)
(10.705 -0.767898 0)
(11.4297 -1.26244 0)
(11.8508 -1.67236 0)
(11.4323 -2.34687 0)
(11.6959 -2.73592 0)
(9.86685 -2.57574 0)
(10.2882 -2.73804 0)
(7.95945 -1.75437 0)
(8.95293 -0.850446 0)
(7.88773 -0.549696 0)
(5.48362 1.68313 0)
(7.03393 4.15826 0)
(8.92758 4.12546 0)
(9.38986 3.56974 0)
(10.1567 2.46267 0)
(10.9394 1.09416 0)
(11.5123 -0.454637 0)
(12.1554 -1.95998 0)
(12.8701 -3.32327 0)
(14.1171 -4.70847 0)
(14.7235 -5.80904 0)
(14.661 -6.30615 0)
(14.5055 -6.70274 0)
(14.6524 -6.79456 0)
(13.9401 -6.38311 0)
(14.0282 -5.89179 0)
(12.9823 -5.09327 0)
(12.2676 -3.97369 0)
(10.4895 -3.06296 0)
(10.5738 -2.63816 0)
(8.34492 -2.40951 0)
(8.52282 -2.16423 0)
(7.76512 -2.1852 0)
(8.65356 -1.17891 0)
(8.92645 -0.963731 0)
(8.45992 0.303155 0)
(9.88319 1.7241 0)
(8.00848 2.76567 0)
(9.79963 3.62635 0)
(7.9569 4.99328 0)
(9.16816 5.58333 0)
(7.70231 6.18848 0)
(8.01097 5.53615 0)
(8.12407 6.80119 0)
(8.027 5.75802 0)
(9.01617 5.93963 0)
(9.10519 4.35484 0)
(9.71569 2.98443 0)
(10.4314 1.80924 0)
(11.3037 -0.13862 0)
(11.1597 -2.23644 0)
(11.6643 -3.31917 0)
(11.1874 -5.31568 0)
(12.3494 -6.01248 0)
(9.8445 -5.82225 0)
(11.0323 -5.09135 0)
(8.21176 -4.27527 0)
(9.47108 -2.51921 0)
(5.66365 -2.18545 0)
(6.55293 0.141091 0)
(3.75144 -0.18331 0)
(7.37634 -0.302834 0)
(4.39988 -4.52675 0)
(7.27052 -4.41248 0)
(6.75699 -5.23681 0)
(7.94478 -2.8903 0)
(7.71338 -2.56467 0)
(8.00579 -0.807243 0)
(8.01767 0.187901 0)
(7.9279 1.70654 0)
(8.09681 2.78427 0)
(7.8969 4.12398 0)
(7.75933 5.08976 0)
(7.12212 6.21875 0)
(7.00823 5.41502 0)
(6.3039 5.90353 0)
(7.03302 3.7845 0)
(5.12513 5.18712 0)
(8.59169 3.65505 0)
(3.92938 5.30203 0)
(10.2958 3.19852 0)
(4.29659 4.63612 0)
(10.827 1.26325 0)
(5.53776 2.64907 0)
(9.7855 -1.20732 0)
(5.97099 1.07241 0)
(9.70991 -2.15022 0)
(6.12545 0.802106 0)
(10.1203 -1.49826 0)
(6.01754 1.63455 0)
(10.2411 -0.649894 0)
(6.99371 3.23175 0)
(11.537 0.890118 0)
(9.24286 5.27798 0)
(11.072 -0.058269 0)
(10.8516 0.260262 0)
(11.24 0.438942 0)
(11.3643 0.162929 0)
(11.608 -0.228786 0)
(12.1865 -0.575429 0)
(12.332 -0.863704 0)
(12.7649 -1.37337 0)
(13.1495 -1.67962 0)
(12.4734 -2.17926 0)
(12.6746 -2.53007 0)
(10.9823 -2.17259 0)
(11.1517 -2.38863 0)
(8.97109 -1.57591 0)
(9.32709 -0.682869 0)
(9.51623 -0.00667855 0)
(6.80089 1.65041 0)
(7.75668 3.45729 0)
(9.58369 3.56468 0)
(10.2848 3.12545 0)
(11.057 2.11883 0)
(11.8113 0.777311 0)
(12.3885 -0.690191 0)
(13.0559 -2.18368 0)
(14.0561 -3.73434 0)
(14.9655 -5.08588 0)
(14.8416 -5.83788 0)
(14.582 -6.20456 0)
(14.5466 -6.65849 0)
(14.4965 -6.74673 0)
(13.7618 -6.27919 0)
(13.4934 -5.59266 0)
(12.1282 -4.57987 0)
(11.2004 -3.46575 0)
(9.51183 -2.61693 0)
(9.24387 -2.16985 0)
(6.67048 -2.03344 0)
(7.42043 -2.09523 0)
(6.75933 -2.30873 0)
(8.49303 -1.35942 0)
(8.18268 -1.0785 0)
(8.13854 0.308975 0)
(9.13611 1.71042 0)
(7.82221 2.82987 0)
(9.06016 3.51561 0)
(8.02501 5.18581 0)
(8.48539 5.60418 0)
(8.10195 6.32758 0)
(7.87789 5.61197 0)
(8.2947 6.59485 0)
(8.42773 5.61545 0)
(9.33423 5.69435 0)
(9.66802 4.24081 0)
(10.0657 2.64803 0)
(10.6827 1.49896 0)
(11.5311 -0.245569 0)
(11.412 -2.25983 0)
(11.9362 -3.49484 0)
(11.5937 -5.28897 0)
(12.0653 -5.8302 0)
(10.1072 -5.57094 0)
(10.679 -4.79468 0)
(7.92174 -3.83296 0)
(9.13447 -2.10045 0)
(4.85386 -1.55451 0)
(7.06229 0.304591 0)
(3.67269 -0.170879 0)
(7.84699 -0.731246 0)
(3.72495 -4.38317 0)
(6.89845 -4.65358 0)
(5.88378 -5.56481 0)
(7.21196 -2.73191 0)
(6.46245 -2.87781 0)
(6.99727 -0.567499 0)
(6.84162 -0.0260048 0)
(6.93493 1.86853 0)
(7.1096 2.66098 0)
(7.03319 4.36183 0)
(7.01077 5.05581 0)
(6.5277 6.59977 0)
(6.68176 5.23018 0)
(5.74769 6.21743 0)
(7.8527 3.75067 0)
(4.20634 5.17861 0)
(9.87568 3.49189 0)
(3.90812 5.28993 0)
(10.8357 2.81422 0)
(5.33166 4.68007 0)
(10.591 0.816318 0)
(6.30822 2.85892 0)
(10.2714 -1.19968 0)
(6.2835 1.13061 0)
(10.5082 -2.27018 0)
(6.53002 0.942804 0)
(10.4816 -1.86434 0)
(6.90673 1.91167 0)
(9.61856 -1.14833 0)
(7.40105 3.24764 0)
(10.0406 0.443887 0)
(9.31735 4.84671 0)
(12.518 -0.0142758 0)
(12.2225 0.216831 0)
(12.4713 0.354472 0)
(12.5638 0.0546586 0)
(12.7051 -0.375378 0)
(13.1566 -0.744786 0)
(13.3111 -0.985982 0)
(13.6187 -1.43387 0)
(13.8522 -1.62729 0)
(13.2986 -1.91086 0)
(13.0625 -2.30774 0)
(11.7475 -1.83235 0)
(11.7675 -2.01313 0)
(10.174 -1.27948 0)
(9.57508 -0.554545 0)
(10.4749 0.256761 0)
(8.5296 1.80155 0)
(8.80512 3.08089 0)
(10.2201 3.15916 0)
(11.0168 2.80536 0)
(11.7252 1.88891 0)
(12.6727 0.446616 0)
(13.2998 -0.999634 0)
(14.0605 -2.47054 0)
(14.9828 -4.05097 0)
(15.2028 -5.18187 0)
(14.6192 -5.76555 0)
(14.5042 -6.20884 0)
(14.5074 -6.61322 0)
(14.1805 -6.55747 0)
(13.2277 -5.99327 0)
(12.4828 -5.16429 0)
(10.9546 -4.0337 0)
(9.91282 -2.93557 0)
(8.17853 -2.12435 0)
(7.48413 -1.63214 0)
(4.84227 -1.75388 0)
(6.44723 -2.29412 0)
(6.06313 -2.55473 0)
(8.01807 -1.63885 0)
(7.20779 -1.17233 0)
(7.7958 0.299102 0)
(8.1852 1.62251 0)
(7.58658 2.97606 0)
(8.01783 3.42659 0)
(7.94573 5.31905 0)
(7.91611 5.52455 0)
(8.10625 6.32137 0)
(7.81903 5.73358 0)
(8.27764 6.2898 0)
(8.64933 5.41269 0)
(9.61481 5.37204 0)
(10.0721 4.1514 0)
(10.6299 2.44416 0)
(10.8119 1.26947 0)
(11.7855 -0.326039 0)
(11.5474 -2.32281 0)
(12.2197 -3.68939 0)
(11.6816 -5.16359 0)
(11.7526 -5.56034 0)
(10.2847 -5.19649 0)
(9.99249 -4.39423 0)
(7.85455 -3.30174 0)
(8.35627 -1.57557 0)
(4.43914 -1.05809 0)
(6.93066 0.3437 0)
(3.70674 -0.0656006 0)
(7.25387 -0.94031 0)
(3.114 -4.27602 0)
(6.71606 -4.98255 0)
(5.24121 -5.71165 0)
(6.60065 -2.5251 0)
(5.2279 -3.13394 0)
(6.07955 -0.307201 0)
(5.72324 -0.34792 0)
(6.04365 2.10212 0)
(6.12325 2.36762 0)
(6.18613 4.63151 0)
(6.24152 4.79546 0)
(5.91424 6.92645 0)
(6.55946 4.99298 0)
(4.85379 6.31542 0)
(8.8946 3.70417 0)
(3.50046 5.1365 0)
(10.6216 3.03559 0)
(4.4393 5.3506 0)
(10.9179 2.30348 0)
(6.14682 4.7848 0)
(10.9136 0.778682 0)
(6.71448 2.98073 0)
(10.6252 -1.19927 0)
(7.22539 1.23866 0)
(9.92407 -2.43641 0)
(7.50942 1.10564 0)
(9.37696 -2.00529 0)
(7.57831 2.03976 0)
(9.35223 -1.06396 0)
(7.78727 3.07088 0)
(9.76831 0.317331 0)
(9.26246 4.14173 0)
(13.3044 -0.0298398 0)
(13.1002 0.147173 0)
(13.386 0.238785 0)
(13.3966 -0.0169898 0)
(13.4576 -0.444731 0)
(13.7219 -0.85144 0)
(13.6656 -1.1223 0)
(13.9235 -1.46815 0)
(13.8869 -1.59069 0)
(13.4891 -1.70959 0)
(13.0258 -1.99846 0)
(11.9618 -1.55206 0)
(11.7952 -1.70431 0)
(10.8777 -1.00001 0)
(9.91857 -0.359271 0)
(10.7388 0.245805 0)
(9.95552 1.84335 0)
(10.047 2.98395 0)
(11.1655 2.95997 0)
(11.796 2.57985 0)
(12.5944 1.62087 0)
(13.6841 0.0967175 0)
(14.2141 -1.3026 0)
(14.9245 -2.76795 0)
(15.2845 -4.20647 0)
(14.9148 -5.08964 0)
(14.4817 -5.64065 0)
(14.5134 -6.17212 0)
(14.1909 -6.47359 0)
(13.408 -6.27206 0)
(12.2273 -5.59196 0)
(11.1166 -4.59811 0)
(9.52084 -3.42722 0)
(8.43739 -2.36315 0)
(6.75473 -1.52096 0)
(5.61236 -1.01204 0)
(3.36083 -1.70888 0)
(5.59202 -2.74361 0)
(5.2237 -2.73878 0)
(6.90357 -1.85094 0)
(5.93639 -1.20544 0)
(7.09576 0.28688 0)
(6.98846 1.54834 0)
(7.22776 3.04083 0)
(7.09566 3.31707 0)
(7.57281 5.3356 0)
(7.37684 5.51202 0)
(7.88121 6.14748 0)
(7.69864 5.79763 0)
(8.2425 5.96885 0)
(8.57438 5.15842 0)
(9.82132 5.03624 0)
(10.2311 4.04428 0)
(11.1017 2.30623 0)
(10.9094 1.07801 0)
(11.9535 -0.433671 0)
(11.6209 -2.37395 0)
(12.3874 -3.79101 0)
(11.499 -4.97296 0)
(11.4882 -5.31731 0)
(10.0174 -4.78883 0)
(9.19119 -3.98741 0)
(7.66573 -2.76773 0)
(7.24578 -1.00223 0)
(4.20279 -0.617629 0)
(5.63794 0.409144 0)
(3.84243 -0.0314434 0)
(6.14678 -0.915094 0)
(3.21424 -4.2667 0)
(6.52929 -5.46495 0)
(4.33752 -5.63186 0)
(6.02668 -2.28744 0)
(4.08781 -3.31885 0)
(5.22914 -0.0629887 0)
(4.54201 -0.769275 0)
(5.22128 2.32295 0)
(5.13225 1.94259 0)
(5.30337 5.00744 0)
(5.44157 4.41217 0)
(5.12255 7.26429 0)
(6.86814 4.84349 0)
(3.59349 6.22435 0)
(9.77609 3.39342 0)
(3.4908 5.18664 0)
(10.7322 2.36358 0)
(5.12589 5.41552 0)
(10.7933 1.91193 0)
(6.81625 4.79183 0)
(10.8372 0.748515 0)
(7.95991 2.95757 0)
(10.2939 -1.29754 0)
(8.245 1.26853 0)
(9.83629 -2.39154 0)
(8.03061 1.1167 0)
(9.73478 -1.74462 0)
(7.7806 2.09526 0)
(9.57782 -0.800153 0)
(7.91566 2.91049 0)
(9.45301 0.421244 0)
(9.15059 3.4827 0)
(13.3817 -0.0401628 0)
(13.2563 0.139381 0)
(13.7039 0.142028 0)
(13.6656 -0.0637958 0)
(13.8064 -0.456644 0)
(14.0081 -0.841021 0)
(13.7796 -1.13948 0)
(13.8845 -1.42827 0)
(13.5893 -1.49437 0)
(13.2297 -1.51222 0)
(12.7209 -1.70193 0)
(11.9286 -1.33987 0)
(11.7449 -1.43019 0)
(11.1023 -0.803117 0)
(10.3654 -0.128601 0)
(10.738 0.192715 0)
(10.5152 1.69717 0)
(10.9872 2.82976 0)
(12.1227 2.76787 0)
(12.6929 2.32573 0)
(13.6771 1.27926 0)
(14.4821 -0.155897 0)
(14.8176 -1.55723 0)
(15.2588 -2.99334 0)
(15.049 -4.11923 0)
(14.578 -4.86826 0)
(14.4179 -5.5912 0)
(14.2283 -6.13124 0)
(13.4214 -6.19414 0)
(12.2466 -5.75816 0)
(10.858 -4.99205 0)
(9.54911 -3.95651 0)
(7.9689 -2.82384 0)
(6.88245 -1.80755 0)
(5.21713 -0.864029 0)
(3.71738 -0.425288 0)
(2.45243 -1.96629 0)
(4.42237 -3.13665 0)
(4.00048 -2.75899 0)
(5.62457 -1.99083 0)
(4.80332 -1.23662 0)
(6.09276 0.198585 0)
(5.8287 1.434 0)
(6.60957 2.97594 0)
(6.16283 3.28915 0)
(6.93603 5.22217 0)
(6.93037 5.45353 0)
(7.46554 5.9094 0)
(7.36038 5.8235 0)
(8.1849 5.65807 0)
(8.21695 4.82923 0)
(9.89072 4.63964 0)
(10.1599 3.80764 0)
(11.2711 2.15941 0)
(10.9437 0.899539 0)
(12.0103 -0.530548 0)
(11.6192 -2.42829 0)
(12.3078 -3.8276 0)
(11.1602 -4.75064 0)
(11.134 -4.95957 0)
(9.41421 -4.28828 0)
(8.52708 -3.47672 0)
(7.06962 -2.20775 0)
(6.32991 -0.47909 0)
(4.01633 -0.150546 0)
(4.42221 0.456227 0)
(3.61929 -0.131489 0)
(5.16744 -0.960314 0)
(3.67432 -4.2732 0)
(5.58543 -5.82485 0)
(2.70136 -5.44396 0)
(5.29702 -2.14106 0)
(2.97158 -3.46718 0)
(4.45656 0.228808 0)
(3.39253 -1.15287 0)
(4.40183 2.6759 0)
(4.01601 1.43227 0)
(4.49887 5.356 0)
(4.73799 3.90646 0)
(4.16698 7.42969 0)
(7.49602 4.65903 0)
(2.57433 6.10199 0)
(10.0833 2.7487 0)
(3.99887 5.28081 0)
(10.4007 1.85059 0)
(5.80887 5.43369 0)
(10.6089 1.71267 0)
(7.40909 4.71806 0)
(10.7735 0.51051 0)
(8.60708 2.91335 0)
(10.8601 -1.15222 0)
(8.45306 1.28004 0)
(10.6748 -2.16919 0)
(8.1971 1.11387 0)
(10.4807 -1.67367 0)
(8.24402 1.89343 0)
(10.2222 -0.656231 0)
(8.47378 2.53778 0)
(9.66311 0.426719 0)
(9.42021 2.85332 0)
(13.1293 0.00386301 0)
(13.1468 0.188668 0)
(13.692 0.0774359 0)
(13.6489 -0.127295 0)
(13.9245 -0.477549 0)
(14.0957 -0.844653 0)
(13.7631 -1.11216 0)
(13.701 -1.30688 0)
(13.2689 -1.32131 0)
(12.911 -1.3147 0)
(12.6026 -1.43667 0)
(12.0293 -1.18947 0)
(11.8971 -1.20781 0)
(11.3079 -0.696838 0)
(10.8726 0.0129928 0)
(10.7953 0.253691 0)
(10.5788 1.45039 0)
(11.4465 2.42576 0)
(12.4708 2.45724 0)
(13.2935 1.97511 0)
(14.1923 0.974483 0)
(14.5826 -0.318545 0)
(14.9378 -1.75595 0)
(15.0533 -3.01695 0)
(14.6145 -3.93263 0)
(14.3682 -4.7537 0)
(14.2331 -5.49897 0)
(13.5239 -5.84966 0)
(12.1718 -5.70195 0)
(10.7027 -5.17217 0)
(9.28923 -4.36367 0)
(7.92847 -3.33905 0)
(6.52183 -2.25596 0)
(5.43192 -1.21261 0)
(3.44234 -0.14262 0)
(2.04475 -0.075346 0)
(1.69254 -2.29572 0)
(2.83848 -3.32689 0)
(2.90009 -2.82954 0)
(4.70753 -2.33352 0)
(3.84314 -1.32136 0)
(4.9774 0.0790782 0)
(4.63194 1.34033 0)
(5.65845 2.83184 0)
(5.26692 3.24217 0)
(6.15317 4.94338 0)
(6.31888 5.30879 0)
(7.06056 5.67446 0)
(7.01481 5.73324 0)
(8.07826 5.41211 0)
(7.77061 4.51699 0)
(9.68293 4.21528 0)
(9.86925 3.50447 0)
(11.1237 1.99655 0)
(10.8489 0.74848 0)
(11.887 -0.646491 0)
(11.4669 -2.47609 0)
(12.0241 -3.76057 0)
(10.6716 -4.45928 0)
(10.5732 -4.53969 0)
(8.51045 -3.79945 0)
(7.91487 -2.98263 0)
(6.18411 -1.67211 0)
(5.77713 -0.0118907 0)
(3.49135 0.318187 0)
(4.04387 0.533177 0)
(2.68913 -0.191283 0)
(4.65416 -1.15104 0)
(3.36005 -4.05845 0)
(3.80052 -5.56316 0)
(0.615224 -5.17849 0)
(4.55917 -2.28645 0)
(1.98912 -3.50563 0)
(3.78598 0.331031 0)
(2.29207 -1.56877 0)
(3.6262 2.86988 0)
(2.95899 0.882096 0)
(3.61737 5.71817 0)
(4.14913 3.44901 0)
(2.97648 7.40016 0)
(8.17327 4.37515 0)
(2.40316 6.06423 0)
(9.82049 2.00317 0)
(4.46528 5.39777 0)
(10.0147 1.42126 0)
(6.27189 5.40516 0)
(10.4034 1.46797 0)
(7.83622 4.50562 0)
(10.9843 0.499371 0)
(8.87575 2.72505 0)
(10.9789 -0.900988 0)
(8.78847 1.20001 0)
(10.4493 -1.93972 0)
(8.57341 0.908972 0)
(10.2684 -1.36355 0)
(8.43539 1.69749 0)
(9.91019 -0.441915 0)
(8.94558 2.26859 0)
(9.78085 0.514149 0)
(9.95827 2.39818 0)
(13.057 -0.0106615 0)
(13.2768 0.155708 0)
(13.7576 -0.0183276 0)
(13.6908 -0.214702 0)
(13.8591 -0.481622 0)
(13.9458 -0.83066 0)
(13.5662 -1.02202 0)
(13.4192 -1.14968 0)
(13.0895 -1.16359 0)
(12.807 -1.18127 0)
(12.7241 -1.30644 0)
(12.2513 -1.08361 0)
(12.0776 -1.00992 0)
(11.6079 -0.599501 0)
(11.1761 0.152616 0)
(10.9495 0.400729 0)
(10.7428 1.19485 0)
(11.2401 2.04505 0)
(12.153 2.09209 0)
(13.2537 1.56343 0)
(13.8622 0.744963 0)
(14.2995 -0.493576 0)
(14.7428 -1.86472 0)
(14.6423 -2.91572 0)
(14.3274 -3.77551 0)
(14.125 -4.62674 0)
(13.5807 -5.25248 0)
(12.2829 -5.38652 0)
(10.5828 -5.06097 0)
(9.02738 -4.49793 0)
(7.73135 -3.70783 0)
(6.41273 -2.74907 0)
(5.1349 -1.74226 0)
(3.99278 -0.546039 0)
(1.75619 0.60567 0)
(0.861646 0.07972 0)
(0.807063 -2.48425 0)
(1.32255 -3.63713 0)
(2.16855 -3.25771 0)
(3.45671 -2.71089 0)
(2.43269 -1.36845 0)
(3.72258 0.00151142 0)
(3.38274 1.16572 0)
(4.5836 2.65174 0)
(4.11606 3.20508 0)
(5.31449 4.67838 0)
(5.48818 5.08677 0)
(6.52813 5.46359 0)
(6.59031 5.56974 0)
(7.85863 5.19958 0)
(7.52888 4.20335 0)
(9.24939 3.77888 0)
(9.55817 3.12614 0)
(10.7458 1.81213 0)
(10.6355 0.55677 0)
(11.5757 -0.794802 0)
(11.2105 -2.45777 0)
(11.5066 -3.61178 0)
(10.0188 -4.13379 0)
(9.78101 -4.02932 0)
(7.52669 -3.26104 0)
(7.21204 -2.44885 0)
(5.25318 -1.12543 0)
(5.40187 0.376588 0)
(2.93648 0.73916 0)
(4.04133 0.653961 0)
(1.82947 -0.151028 0)
(4.33451 -1.48848 0)
(2.23669 -3.61175 0)
(2.33131 -4.92153 0)
(-0.751119 -5.1475 0)
(3.99647 -2.66826 0)
(1.03736 -3.42856 0)
(3.12177 0.596528 0)
(1.28927 -1.80999 0)
(2.78351 3.25805 0)
(1.90293 0.371878 0)
(2.65925 5.99029 0)
(3.86707 3.13332 0)
(1.34481 7.05161 0)
(8.3323 3.57509 0)
(2.84901 6.12067 0)
(9.12452 1.36883 0)
(4.87626 5.46245 0)
(9.49484 1.1036 0)
(6.49179 5.21535 0)
(10.2186 1.29524 0)
(8.09217 4.15089 0)
(11.1019 0.474093 0)
(9.07462 2.58726 0)
(10.9329 -0.727447 0)
(8.98337 1.05378 0)
(10.5578 -1.66785 0)
(8.90298 0.731462 0)
(10.1245 -1.14047 0)
(8.82281 1.53882 0)
(9.56275 -0.323345 0)
(9.31434 1.97834 0)
(9.80953 0.5465 0)
(10.2027 2.0094 0)
(13.2237 -0.100702 0)
(13.4531 0.126584 0)
(13.7598 -0.05171 0)
(13.6404 -0.243852 0)
(13.7424 -0.428411 0)
(13.8143 -0.842728 0)
(13.4315 -0.930704 0)
(13.2826 -1.01587 0)
(13.1052 -1.08306 0)
(12.8928 -1.08314 0)
(12.8003 -1.19397 0)
(12.3954 -0.995178 0)
(12.23 -0.854871 0)
(11.8014 -0.469042 0)
(11.195 0.294805 0)
(11.072 0.550234 0)
(10.8205 1.10148 0)
(10.9179 1.74607 0)
(11.8838 1.68086 0)
(12.8151 1.27424 0)
(13.4329 0.519211 0)
(14.1115 -0.700944 0)
(14.3845 -1.84759 0)
(14.227 -2.80527 0)
(13.9817 -3.69635 0)
(13.5265 -4.43792 0)
(12.4688 -4.77934 0)
(10.664 -4.68933 0)
(8.7567 -4.36433 0)
(7.33656 -3.89275 0)
(6.22154 -3.1723 0)
(5.09573 -2.23117 0)
(3.88315 -1.19381 0)
(2.53659 0.174447 0)
(0.283641 1.19439 0)
(-0.0595744 0.152198 0)
(-0.0252555 -2.59781 0)
(-0.0177984 -3.98985 0)
(0.962444 -3.66159 0)
(1.55088 -2.65699 0)
(0.472922 -1.33233 0)
(2.65946 -0.172221 0)
(1.80976 0.931256 0)
(3.44166 2.47245 0)
(2.94306 3.01153 0)
(4.57057 4.38467 0)
(4.35297 4.77756 0)
(5.9063 5.14763 0)
(6.02425 5.24928 0)
(7.5047 4.94726 0)
(7.33748 3.93047 0)
(8.68529 3.40419 0)
(9.26151 2.75411 0)
(10.2773 1.64508 0)
(10.3774 0.378097 0)
(11.1655 -0.921161 0)
(10.823 -2.41862 0)
(10.7727 -3.36036 0)
(9.24548 -3.69808 0)
(8.74445 -3.48583 0)
(6.5396 -2.74897 0)
(6.45507 -1.98764 0)
(4.41102 -0.727811 0)
(5.00931 0.675652 0)
(2.61063 1.07038 0)
(3.7983 0.819083 0)
(1.52224 -0.0755245 0)
(3.60838 -1.70713 0)
(1.15126 -3.17264 0)
(1.93898 -4.48352 0)
(-0.921155 -5.45078 0)
(3.38376 -3.28594 0)
(-0.154572 -3.08937 0)
(2.40187 0.530119 0)
(0.263764 -2.01607 0)
(1.99785 3.29639 0)
(1.0118 0.00720742 0)
(1.66047 6.06393 0)
(4.14518 3.00574 0)
(-0.00181047 6.62978 0)
(7.56053 2.47148 0)
(3.23589 6.23218 0)
(8.21337 0.912057 0)
(5.00353 5.40969 0)
(8.94939 0.842859 0)
(6.49689 4.90467 0)
(10.0046 1.10731 0)
(8.10675 3.82096 0)
(11.0706 0.48259 0)
(9.05407 2.40491 0)
(10.9061 -0.511687 0)
(9.21287 0.912363 0)
(10.5903 -1.47728 0)
(9.43193 0.560023 0)
(10.0496 -0.90701 0)
(9.24486 1.35019 0)
(9.60473 -0.171343 0)
(9.58068 1.65841 0)
(10.0557 0.588232 0)
(10.3303 1.66296 0)
(13.3176 -0.155385 0)
(13.421 0.176558 0)
(13.6575 -0.0414266 0)
(13.5521 -0.296272 0)
(13.6595 -0.366763 0)
(13.6655 -0.801264 0)
(13.3296 -0.839331 0)
(13.2642 -0.900652 0)
(13.1168 -1.0478 0)
(12.9223 -0.987509 0)
(12.8169 -1.09822 0)
(12.4397 -0.938845 0)
(12.1666 -0.678045 0)
(11.7624 -0.285087 0)
(11.2701 0.391007 0)
(11.1946 0.672636 0)
(10.9865 1.04142 0)
(11.0994 1.45681 0)
(11.8324 1.44935 0)
(12.5826 1.05192 0)
(13.362 0.186842 0)
(13.8436 -0.83374 0)
(13.9201 -1.79434 0)
(13.8161 -2.74095 0)
(13.3861 -3.52611 0)
(12.4733 -4.01517 0)
(10.8643 -4.10921 0)
(8.76969 -3.92676 0)
(6.99269 -3.71459 0)
(5.84713 -3.36894 0)
(4.89709 -2.69803 0)
(3.88996 -1.76849 0)
(2.65948 -0.597748 0)
(1.12774 0.899164 0)
(-0.843544 1.66006 0)
(-0.69205 0.151685 0)
(-0.845741 -2.55677 0)
(-1.23995 -4.10624 0)
(-0.570021 -3.75911 0)
(-0.0206998 -2.41657 0)
(-1.04953 -1.53642 0)
(1.73089 -0.484683 0)
(-0.0226648 0.67439 0)
(2.33997 2.30626 0)
(1.57031 2.70382 0)
(3.59 4.14872 0)
(3.20567 4.38936 0)
(5.15578 4.77498 0)
(5.30222 4.84001 0)
(7.01837 4.59537 0)
(7.09282 3.67023 0)
(8.18402 3.04265 0)
(8.87684 2.38793 0)
(9.73762 1.44501 0)
(10.1133 0.19371 0)
(10.6864 -1.00942 0)
(10.2599 -2.29509 0)
(9.81753 -3.00978 0)
(8.30352 -3.2137 0)
(7.59617 -2.9474 0)
(5.63991 -2.31236 0)
(5.61978 -1.57659 0)
(3.76879 -0.386405 0)
(4.53011 0.919458 0)
(2.52768 1.30623 0)
(3.43698 1.03375 0)
(1.90251 0.0404271 0)
(2.91828 -1.52421 0)
(0.78886 -2.88314 0)
(2.28067 -4.38518 0)
(-0.619057 -5.56412 0)
(2.11377 -3.41289 0)
(-1.74833 -2.8014 0)
(1.67871 0.545043 0)
(-0.658281 -1.93813 0)
(1.09046 3.5192 0)
(0.455289 -0.188945 0)
(0.250809 5.9905 0)
(4.48263 2.66175 0)
(-0.0492057 6.30828 0)
(6.15015 1.3909 0)
(3.31762 6.2743 0)
(7.22666 0.540452 0)
(4.91744 5.24217 0)
(8.38643 0.619729 0)
(6.36412 4.54463 0)
(9.65134 0.947512 0)
(8.22351 3.32988 0)
(10.937 0.506169 0)
(8.96599 2.25242 0)
(10.8468 -0.357354 0)
(9.74009 0.681611 0)
(10.7065 -1.29896 0)
(9.62742 0.422119 0)
(9.80165 -0.602693 0)
(8.94144 1.26778 0)
(9.53024 0.00952382 0)