/*--------------------------------*- C++ -*----------------------------------*\
| =========                 |                                                 |
| \\      /  F ield         | OpenFOAM: The Open Source CFD Toolbox           |
|  \\    /   O peration     | Version:  2.4.0                                 |
|   \\  /    A nd           | Web:      www.OpenFOAM.org                      |
|    \\/     M anipulation  |                                                 |
\*---------------------------------------------------------------------------*/
FoamFile
{
    version     2.0;
    format      ascii;
    class       surfaceScalarField;
    location    "0.264";
    object      phi_0;
}
// * * * * * * * * * * * * * * * * * * * * * * * * * * * * * * * * * * * * * //

dimensions      [0 3 -1 0 0 0 0];

internalField   nonuniform List<scalar> 
34880
(
5.48689e-06
7.01311e-06
3.12447e-06
2.36242e-06
2.47355e-06
6.50918e-07
2.21784e-06
2.55712e-07
2.07734e-06
1.40503e-07
1.96664e-06
1.10695e-07
1.88424e-06
8.23998e-08
1.82741e-06
5.68348e-08
1.76923e-06
5.81806e-08
1.73837e-06
3.08551e-08
1.71262e-06
2.5757e-08
1.67637e-06
3.62479e-08
1.66399e-06
1.23729e-08
1.64406e-06
1.99397e-08
1.62362e-06
2.04368e-08
1.6258e-06
-2.18097e-09
1.61722e-06
8.5807e-09
1.63176e-06
-1.45383e-08
1.56031e-06
7.14505e-08
-6.34247e-07
2.19455e-06
1.01094e-05
9.40369e-06
7.82801e-06
4.64383e-06
6.71039e-06
1.76854e-06
6.06364e-06
9.02457e-07
5.64797e-06
5.5618e-07
5.34813e-06
4.10531e-07
5.12243e-06
3.08101e-07
4.9505e-06
2.28765e-07
4.80546e-06
2.03218e-07
4.70202e-06
1.34295e-07
4.62203e-06
1.05752e-07
4.53544e-06
1.2284e-07
4.48797e-06
5.98368e-08
4.42842e-06
7.94951e-08
4.38607e-06
6.27862e-08
4.36892e-06
1.49697e-08
4.34613e-06
3.13654e-08
4.39259e-06
-6.09938e-08
4.28716e-06
1.76882e-07
-1.16736e-06
4.82027e-06
1.24246e-05
9.47904e-06
1.10006e-05
6.06788e-06
9.97922e-06
2.78992e-06
9.20364e-06
1.67804e-06
8.61953e-06
1.14029e-06
8.18965e-06
8.40407e-07
7.85935e-06
6.38401e-07
7.59687e-06
4.91244e-07
7.38791e-06
4.12182e-07
7.21917e-06
3.03026e-07
7.09491e-06
2.30012e-07
6.9675e-06
2.50249e-07
6.88649e-06
1.40854e-07
6.79618e-06
1.69798e-07
6.73301e-06
1.25964e-07
6.69405e-06
5.39264e-08
6.65621e-06
6.92087e-08
6.71611e-06
-1.20899e-07
6.60894e-06
2.8406e-07
-1.59309e-06
7.03467e-06
1.34127e-05
8.56635e-06
1.28859e-05
6.59471e-06
1.23229e-05
3.35288e-06
1.17182e-05
2.28277e-06
1.11318e-05
1.72666e-06
1.06577e-05
1.31449e-06
1.02792e-05
1.01692e-06
9.95694e-06
8.13504e-07
9.70972e-06
6.59404e-07
9.49341e-06
5.19338e-07
9.33335e-06
3.90072e-07
9.17818e-06
4.05417e-07
9.06531e-06
2.53725e-07
8.95341e-06
2.81701e-07
8.86965e-06
2.09721e-07
8.81377e-06
1.09802e-07
8.75753e-06
1.25449e-07
8.81085e-06
-1.74214e-07
8.75938e-06
3.35528e-07
-1.67303e-06
8.83931e-06
1.35919e-05
7.47448e-06
1.36594e-05
6.52716e-06
1.36174e-05
3.39491e-06
1.34025e-05
2.49768e-06
1.30143e-05
2.11482e-06
1.26212e-05
1.70762e-06
1.22842e-05
1.35391e-06
1.19563e-05
1.14144e-06
1.17113e-05
9.04369e-07
1.14808e-05
7.49811e-07
1.12989e-05
5.72029e-07
1.11383e-05
5.66007e-07
1.10019e-05
3.90109e-07
1.0881e-05
4.02585e-07
1.07825e-05
3.08189e-07
1.07172e-05
1.75179e-07
1.06473e-05
1.95274e-07
1.06747e-05
-2.01583e-07
1.07108e-05
2.99408e-07
-1.35318e-06
1.0391e-05
1.34831e-05
6.49134e-06
1.37574e-05
6.25285e-06
1.3987e-05
3.1654e-06
1.41423e-05
2.34234e-06
1.40761e-05
2.18106e-06
1.38888e-05
1.89492e-06
1.37104e-05
1.53225e-06
1.3463e-05
1.38888e-06
1.32791e-05
1.08829e-06
1.30893e-05
9.39588e-07
1.29122e-05
7.49126e-07
1.27762e-05
7.01998e-07
1.26367e-05
5.29603e-07
1.25231e-05
5.16192e-07
1.24245e-05
4.06822e-07
1.23583e-05
2.41314e-07
1.22865e-05
2.67094e-07
1.2297e-05
-2.12072e-07
1.23542e-05
2.42194e-07
-8.51903e-07
1.18529e-05
1.33597e-05
5.63168e-06
1.37252e-05
5.88732e-06
1.3917e-05
2.97361e-06
1.42046e-05
2.05473e-06
1.43759e-05
2.00975e-06
1.43861e-05
1.88475e-06
1.4419e-05
1.4993e-06
1.43279e-05
1.48001e-06
1.42683e-05
1.14793e-06
1.41901e-05
1.01774e-06
1.40673e-05
8.71942e-07
1.39934e-05
7.75921e-07
1.3887e-05
6.35939e-07
1.38037e-05
5.99543e-07
1.37284e-05
4.82072e-07
1.36758e-05
2.93899e-07
1.36181e-05
3.24864e-07
1.36295e-05
-2.23486e-07
1.37013e-05
1.70389e-07
-1.05466e-06
1.3904e-05
1.32549e-05
4.87675e-06
1.37236e-05
5.41865e-06
1.38062e-05
2.89099e-06
1.40581e-05
1.80284e-06
1.431e-05
1.75791e-06
1.44002e-05
1.79451e-06
1.4551e-05
1.34847e-06
1.45889e-05
1.44216e-06
1.46404e-05
1.09643e-06
1.46933e-05
9.64786e-07
1.46663e-05
8.98974e-07
1.4681e-05
7.61253e-07
1.46479e-05
6.68977e-07
1.46281e-05
6.19385e-07
1.4604e-05
5.06105e-07
1.45912e-05
3.06765e-07
1.45834e-05
3.32671e-07
1.45887e-05
-2.28781e-07
1.46103e-05
1.48719e-07
-2.52826e-07
1.38085e-05
1.3147e-05
4.22975e-06
1.36725e-05
4.89316e-06
1.37673e-05
2.79615e-06
1.39498e-05
1.62034e-06
1.41794e-05
1.5283e-06
1.42914e-05
1.68258e-06
1.44605e-05
1.17931e-06
1.45558e-05
1.34692e-06
1.46498e-05
1.00239e-06
1.47649e-05
8.49665e-07
1.48117e-05
8.52237e-07
1.48826e-05
6.90303e-07
1.49065e-05
6.45047e-07
1.49575e-05
5.68386e-07
1.49857e-05
4.77905e-07
1.50424e-05
2.50089e-07
1.50947e-05
2.80378e-07
1.51223e-05
-2.56394e-07
1.5219e-05
5.20086e-08
-8.71082e-07
1.58373e-05
1.30668e-05
3.66294e-06
1.35745e-05
4.38543e-06
1.37382e-05
2.63252e-06
1.3921e-05
1.43748e-06
1.40719e-05
1.37743e-06
1.41843e-05
1.57022e-06
1.43523e-05
1.01125e-06
1.44691e-05
1.23009e-06
1.4577e-05
8.94527e-07
1.46905e-05
7.3619e-07
1.47701e-05
7.72627e-07
1.48551e-05
6.0531e-07
1.48894e-05
6.10696e-07
1.49635e-05
4.94332e-07
1.50237e-05
4.17729e-07
1.51215e-05
1.52258e-07
1.52118e-05
1.90106e-07
1.52825e-05
-3.27167e-07
1.54225e-05
-8.79858e-08
-1.5234e-06
1.60748e-05
1.30163e-05
3.14665e-06
1.3448e-05
3.95367e-06
1.36727e-05
2.40788e-06
1.39151e-05
1.19507e-06
1.40204e-05
1.2721e-06
1.41159e-05
1.47475e-06
1.42757e-05
8.51435e-07
1.43919e-05
1.1139e-06
1.44772e-05
8.09292e-07
1.45846e-05
6.2878e-07
1.46877e-05
6.69498e-07
1.47795e-05
5.13454e-07
1.48363e-05
5.5394e-07
1.49187e-05
4.11953e-07
1.49704e-05
3.65977e-07
1.50445e-05
7.81959e-08
1.51624e-05
7.21855e-08
1.52772e-05
-4.41983e-07
1.54524e-05
-2.63188e-07
-1.77011e-06
1.56992e-05
1.29479e-05
2.69871e-06
1.33849e-05
3.51673e-06
1.3627e-05
2.16573e-06
1.38647e-05
9.57405e-07
1.40082e-05
1.12857e-06
1.40811e-05
1.40191e-06
1.41899e-05
7.4259e-07
1.43152e-05
9.8863e-07
1.44191e-05
7.05417e-07
1.45246e-05
5.23193e-07
1.46258e-05
5.68374e-07
1.47186e-05
4.20622e-07
1.47973e-05
4.7528e-07
1.48616e-05
3.47611e-07
1.48899e-05
3.37658e-07
1.49624e-05
5.74604e-09
1.50907e-05
-5.61498e-08
1.52132e-05
-5.64463e-07
1.54167e-05
-4.66713e-07
-1.69791e-06
1.53445e-05
1.29048e-05
2.29387e-06
1.33862e-05
3.03541e-06
1.36022e-05
1.94973e-06
1.37929e-05
7.66647e-07
1.39806e-05
9.40931e-07
1.40333e-05
1.34914e-06
1.40954e-05
6.80538e-07
1.42608e-05
8.23243e-07
1.44267e-05
5.39448e-07
1.45143e-05
4.35631e-07
1.45711e-05
5.11562e-07
1.46528e-05
3.38959e-07
1.47311e-05
3.96907e-07
1.47678e-05
3.10939e-07
1.482e-05
2.85506e-07
1.49144e-05
-8.8676e-08
1.50398e-05
-1.81576e-07
1.51538e-05
-6.78424e-07
1.53626e-05
-6.75531e-07
-1.60728e-06
1.5272e-05
1.29069e-05
1.88698e-06
1.33442e-05
2.59809e-06
1.3563e-05
1.73092e-06
1.37392e-05
5.90506e-07
1.39334e-05
7.46699e-07
1.39932e-05
1.2893e-06
1.40663e-05
6.07499e-07
1.42427e-05
6.46835e-07
1.43912e-05
3.9089e-07
1.44722e-05
3.5471e-07
1.4505e-05
4.78682e-07
1.45704e-05
2.73577e-07
1.46722e-05
2.95097e-07
1.47252e-05
2.58015e-07
1.4796e-05
2.14641e-07
1.4885e-05
-1.77628e-07
1.4994e-05
-2.90613e-07
1.50998e-05
-7.84264e-07
1.52983e-05
-8.73959e-07
-1.67164e-06
1.53626e-05
1.28813e-05
1.50573e-06
1.32676e-05
2.21173e-06
1.35198e-05
1.47871e-06
1.37091e-05
4.01248e-07
1.38859e-05
5.69874e-07
1.39834e-05
1.19184e-06
1.40803e-05
5.1057e-07
1.42166e-05
5.10578e-07
1.4309e-05
2.98431e-07
1.4419e-05
2.44696e-07
1.44668e-05
4.30887e-07
1.45265e-05
2.13919e-07
1.46447e-05
1.76864e-07
1.471e-05
1.92693e-07
1.47788e-05
1.45905e-07
1.48485e-05
-2.47405e-07
1.49375e-05
-3.79534e-07
1.50279e-05
-8.7466e-07
1.52327e-05
-1.07877e-06
-1.94811e-06
1.55091e-05
1.28262e-05
1.1795e-06
1.32443e-05
1.79365e-06
1.35408e-05
1.18222e-06
1.36788e-05
2.6327e-07
1.38207e-05
4.27958e-07
1.39643e-05
1.0482e-06
1.40652e-05
4.09744e-07
1.4172e-05
4.03745e-07
1.42697e-05
2.00706e-07
1.44027e-05
1.11715e-07
1.44515e-05
3.82072e-07
1.45074e-05
1.58047e-07
1.46184e-05
6.58166e-08
1.46613e-05
1.49869e-07
1.47567e-05
5.04882e-08
1.48024e-05
-2.93132e-07
1.49042e-05
-4.81296e-07
1.49567e-05
-9.27219e-07
1.51702e-05
-1.29229e-06
-2.5084e-06
1.57305e-05
1.28039e-05
8.75638e-07
1.32537e-05
1.34382e-06
1.35354e-05
9.00502e-07
1.36378e-05
1.60846e-07
1.3762e-05
3.03781e-07
1.39344e-05
8.75821e-07
1.40485e-05
2.95673e-07
1.41608e-05
2.91371e-07
1.42585e-05
1.03018e-07
1.43741e-05
-3.88444e-09
1.44271e-05
3.29103e-07
1.44665e-05
1.18647e-07
1.45863e-05
-5.40105e-08
1.46266e-05
1.09535e-07
1.47428e-05
-6.57081e-08
1.47727e-05
-3.23012e-07
1.48954e-05
-6.04013e-07
1.49301e-05
-9.61872e-07
1.49902e-05
-1.35241e-06
-1.55994e-06
1.40418e-05
1.27944e-05
5.81219e-07
1.32274e-05
9.10856e-07
1.35065e-05
6.21372e-07
1.36191e-05
4.82689e-08
1.37344e-05
1.88467e-07
1.3922e-05
6.88205e-07
1.40563e-05
1.61412e-07
1.41746e-05
1.73026e-07
1.42255e-05
5.21231e-08
1.43416e-05
-1.19999e-07
1.43946e-05
2.7614e-07
1.44357e-05
7.75065e-08
1.45618e-05
-1.80085e-07
1.46265e-05
4.48933e-08
1.47138e-05
-1.53078e-07
1.47774e-05
-3.8663e-07
1.48641e-05
-6.90714e-07
1.49184e-05
-1.01613e-06
1.51202e-05
-1.55424e-06
-1.9768e-06
1.55371e-05
1.2766e-05
3.15208e-07
1.3206e-05
4.70863e-07
1.3515e-05
3.12351e-07
1.3625e-05
-6.16923e-08
1.37181e-05
9.53679e-08
1.39087e-05
4.97575e-07
1.40513e-05
1.88146e-08
1.41623e-05
6.20752e-08
1.42036e-05
1.07543e-08
1.43305e-05
-2.46908e-07
1.43805e-05
2.26132e-07
1.44351e-05
2.29947e-08
1.45549e-05
-2.99973e-07
1.4612e-05
-1.21439e-08
1.46833e-05
-2.24422e-07
1.47793e-05
-4.82561e-07
1.48253e-05
-7.36768e-07
1.49214e-05
-1.11225e-06
1.51127e-05
-1.74548e-06
-2.26174e-06
1.53976e-05
1.27519e-05
6.33347e-08
1.32177e-05
5.08393e-09
1.35282e-05
1.8417e-09
1.36202e-05
-1.53733e-07
1.36997e-05
1.59129e-08
1.38962e-05
3.01014e-07
1.40338e-05
-1.18787e-07
1.41475e-05
-5.16437e-08
1.42094e-05
-5.11243e-08
1.43236e-05
-3.61124e-07
1.43736e-05
1.76185e-07
1.44452e-05
-4.85794e-08
1.45467e-05
-4.01494e-07
1.45891e-05
-5.45238e-08
1.46714e-05
-3.06794e-07
1.47757e-05
-5.86784e-07
1.48101e-05
-7.71205e-07
1.49293e-05
-1.2315e-06
1.51083e-05
-1.92443e-06
-2.50968e-06
1.53562e-05
1.27621e-05
-1.98719e-07
1.3228e-05
-4.60827e-07
1.35089e-05
-2.79085e-07
1.36079e-05
-2.52694e-07
1.37129e-05
-8.9107e-08
1.39043e-05
1.09571e-07
1.40219e-05
-2.36411e-07
1.4156e-05
-1.85718e-07
1.42217e-05
-1.16769e-07
1.43093e-05
-4.48752e-07
1.43799e-05
1.05576e-07
1.44554e-05
-1.24043e-07
1.45352e-05
-4.81311e-07
1.4573e-05
-9.23371e-08
1.4677e-05
-4.10807e-07
1.47598e-05
-6.69624e-07
1.48286e-05
-8.4e-07
1.49306e-05
-1.33347e-06
1.5066e-05
-2.05984e-06
-2.86139e-06
1.54177e-05
1.27743e-05
-4.73007e-07
1.32229e-05
-9.09431e-07
1.3498e-05
-5.54209e-07
1.3629e-05
-3.83682e-07
1.37403e-05
-2.00361e-07
1.39005e-05
-5.06759e-08
1.4018e-05
-3.53881e-07
1.41658e-05
-3.33533e-07
1.42272e-05
-1.78189e-07
1.43171e-05
-5.38684e-07
1.44055e-05
1.72592e-08
1.44593e-05
-1.77885e-07
1.45288e-05
-5.50804e-07
1.45786e-05
-1.42168e-07
1.46869e-05
-5.19086e-07
1.47475e-05
-7.30217e-07
1.48503e-05
-9.42818e-07
1.49389e-05
-1.42203e-06
1.48951e-05
-2.01602e-06
-1.83281e-06
1.38665e-05
1.27836e-05
-7.56654e-07
1.32245e-05
-1.3503e-06
1.35192e-05
-8.48878e-07
1.36599e-05
-5.24357e-07
1.37365e-05
-2.76996e-07
1.38879e-05
-2.02115e-07
1.4036e-05
-5.01977e-07
1.4181e-05
-4.78482e-07
1.42406e-05
-2.37841e-07
1.43449e-05
-6.42942e-07
1.44141e-05
-5.19064e-08
1.4469e-05
-2.32788e-07
1.45271e-05
-6.08987e-07
1.46152e-05
-2.30233e-07
1.4685e-05
-5.88872e-07
1.47641e-05
-8.09278e-07
1.48562e-05
-1.03499e-06
1.49557e-05
-1.52152e-06
1.5017e-05
-2.07735e-06
-2.28545e-06
1.54697e-05
1.27979e-05
-1.05453e-06
1.32444e-05
-1.79682e-06
1.35489e-05
-1.15337e-06
1.36633e-05
-6.38817e-07
1.3732e-05
-3.45682e-07
1.39149e-05
-3.8497e-07
1.40703e-05
-6.57418e-07
1.4197e-05
-6.05146e-07
1.42682e-05
-3.09041e-07
1.43551e-05
-7.29896e-07
1.44165e-05
-1.13257e-07
1.44892e-05
-3.05448e-07
1.45486e-05
-6.68387e-07
1.46436e-05
-3.25229e-07
1.46833e-05
-6.28579e-07
1.47868e-05
-9.12839e-07
1.48586e-05
-1.10678e-06
1.49687e-05
-1.6316e-06
1.50431e-05
-2.15178e-06
-2.64963e-06
1.54073e-05
1.28193e-05
-1.37381e-06
1.32793e-05
-2.25682e-06
1.35746e-05
-1.4487e-06
1.36621e-05
-7.26359e-07
1.37612e-05
-4.4476e-07
1.39625e-05
-5.86207e-07
1.40894e-05
-7.84327e-07
1.42077e-05
-7.23491e-07
1.42954e-05
-3.96779e-07
1.4365e-05
-7.99497e-07
1.44393e-05
-1.87521e-07
1.45273e-05
-3.93468e-07
1.45787e-05
-7.19705e-07
1.46617e-05
-4.08236e-07
1.46932e-05
-6.60111e-07
1.4815e-05
-1.03463e-06
1.48792e-05
-1.17095e-06
1.49733e-05
-1.72572e-06
1.50733e-05
-2.2518e-06
-2.99894e-06
1.54226e-05
1.28535e-05
-1.72729e-06
1.33237e-05
-2.72708e-06
1.35929e-05
-1.71781e-06
1.36791e-05
-8.12563e-07
1.38074e-05
-5.73054e-07
1.3989e-05
-7.6788e-07
1.41062e-05
-9.01453e-07
1.42354e-05
-8.52738e-07
1.43292e-05
-4.90586e-07
1.43963e-05
-8.66576e-07
1.44891e-05
-2.80316e-07
1.45538e-05
-4.58179e-07
1.46096e-05
-7.75469e-07
1.46813e-05
-4.79957e-07
1.47283e-05
-7.07162e-07
1.48435e-05
-1.14977e-06
1.49255e-05
-1.253e-06
1.49825e-05
-1.78273e-06
1.51046e-05
-2.37383e-06
-3.48474e-06
1.55904e-05
1.29021e-05
-2.1294e-06
1.33687e-05
-3.19363e-06
1.36042e-05
-1.95334e-06
1.37079e-05
-9.16262e-07
1.38489e-05
-7.14049e-07
1.40157e-05
-9.34716e-07
1.41568e-05
-1.04255e-06
1.42811e-05
-9.77041e-07
1.4366e-05
-5.75447e-07
1.44408e-05
-9.41442e-07
1.45273e-05
-3.66753e-07
1.45717e-05
-5.02625e-07
1.46472e-05
-8.50915e-07
1.47175e-05
-5.50271e-07
1.47758e-05
-7.65477e-07
1.48827e-05
-1.25667e-06
1.49649e-05
-1.33525e-06
1.50169e-05
-1.83472e-06
1.50186e-05
-2.3755e-06
-2.45241e-06
1.39863e-05
1.29588e-05
-2.58824e-06
1.34062e-05
-3.64101e-06
1.35888e-05
-2.13593e-06
1.37421e-05
-1.06955e-06
1.39013e-05
-8.73274e-07
1.40715e-05
-1.10493e-06
1.4224e-05
-1.19501e-06
1.43227e-05
-1.07573e-06
1.44008e-05
-6.53568e-07
1.44821e-05
-1.02269e-06
1.45516e-05
-4.36337e-07
1.46154e-05
-5.66346e-07
1.46902e-05
-9.25718e-07
1.47769e-05
-6.37055e-07
1.48158e-05
-8.04371e-07
1.49373e-05
-1.37811e-06
1.49909e-05
-1.38885e-06
1.50733e-05
-1.91719e-06
1.51713e-05
-2.47346e-06
-2.88551e-06
1.56044e-05
1.30133e-05
-3.10155e-06
1.34383e-05
-4.06596e-06
1.3582e-05
-2.2797e-06
1.37894e-05
-1.27694e-06
1.3975e-05
-1.05881e-06
1.41431e-05
-1.27306e-06
1.42858e-05
-1.33776e-06
1.43545e-05
-1.14438e-06
1.44441e-05
-7.43224e-07
1.45178e-05
-1.09632e-06
1.45947e-05
-5.13228e-07
1.46658e-05
-6.37476e-07
1.47486e-05
-1.00854e-06
1.48335e-05
-7.21917e-07
1.48709e-05
-8.41822e-07
1.4993e-05
-1.50019e-06
1.50253e-05
-1.42111e-06
1.51355e-05
-2.02739e-06
1.52162e-05
-2.55415e-06
-3.28017e-06
1.56108e-05
1.30595e-05
-3.661e-06
1.34813e-05
-4.48777e-06
1.36224e-05
-2.42089e-06
1.38592e-05
-1.51366e-06
1.40571e-05
-1.25673e-06
1.42087e-05
-1.4247e-06
1.43434e-05
-1.47242e-06
1.43897e-05
-1.19071e-06
1.44928e-05
-8.46267e-07
1.4563e-05
-1.16654e-06
1.46524e-05
-6.02626e-07
1.4724e-05
-7.09052e-07
1.48219e-05
-1.10653e-06
1.48965e-05
-7.96438e-07
1.49537e-05
-8.99082e-07
1.50483e-05
-1.59479e-06
1.50773e-05
-1.45012e-06
1.5164e-05
-2.11404e-06
1.52232e-05
-2.61341e-06
-3.55617e-06
1.54992e-05
1.31085e-05
-4.26946e-06
1.35429e-05
-4.92223e-06
1.3691e-05
-2.56896e-06
1.3938e-05
-1.76068e-06
1.41286e-05
-1.44735e-06
1.42766e-05
-1.57263e-06
1.43975e-05
-1.59333e-06
1.44343e-05
-1.22751e-06
1.45586e-05
-9.70634e-07
1.46298e-05
-1.23767e-06
1.47225e-05
-6.95346e-07
1.4809e-05
-7.95539e-07
1.48989e-05
-1.1965e-06
1.49609e-05
-8.58401e-07
1.50232e-05
-9.6134e-07
1.50609e-05
-1.63252e-06
1.50768e-05
-1.46599e-06
1.50828e-05
-2.12009e-06
1.5072e-05
-2.60259e-06
-3.731e-06
1.52468e-05
1.31713e-05
-4.94076e-06
1.36147e-05
-5.36567e-06
1.37722e-05
-2.72642e-06
1.40083e-05
-1.99682e-06
1.42052e-05
-1.64425e-06
1.43625e-05
-1.72985e-06
1.44598e-05
-1.6907e-06
1.45105e-05
-1.2782e-06
1.46467e-05
-1.10684e-06
1.46979e-05
-1.28887e-06
1.47829e-05
-7.80311e-07
1.48624e-05
-8.75035e-07
1.48928e-05
-1.2269e-06
1.49229e-05
-8.88545e-07
1.49422e-05
-9.8064e-07
1.48882e-05
-1.57844e-06
1.48467e-05
-1.42451e-06
1.47335e-05
-2.00694e-06
1.45997e-05
-2.46873e-06
-3.79348e-06
1.46621e-05
1.32481e-05
-5.68887e-06
1.36806e-05
-5.79813e-06
1.38564e-05
-2.90228e-06
1.40939e-05
-2.23425e-06
1.43172e-05
-1.86754e-06
1.44567e-05
-1.86942e-06
1.45168e-05
-1.75076e-06
1.45673e-05
-1.32872e-06
1.46489e-05
-1.18839e-06
1.46292e-05
-1.26922e-06
1.46606e-05
-8.11712e-07
1.46619e-05
-8.76383e-07
1.45864e-05
-1.15136e-06
1.45466e-05
-8.48777e-07
1.44809e-05
-9.14865e-07
1.43231e-05
-1.42064e-06
1.41999e-05
-1.30136e-06
1.39775e-05
-1.78456e-06
1.36936e-05
-2.18486e-06
-2.87657e-06
1.27767e-05
1.33415e-05
-6.53041e-06
1.36902e-05
-6.14681e-06
1.39642e-05
-3.17623e-06
1.4205e-05
-2.47511e-06
1.43886e-05
-2.05116e-06
1.4426e-05
-1.90676e-06
1.43776e-05
-1.70244e-06
1.43324e-05
-1.2835e-06
1.42691e-05
-1.12507e-06
1.41301e-05
-1.13023e-06
1.40603e-05
-7.41848e-07
1.39539e-05
-7.70038e-07
1.37831e-05
-9.80551e-07
1.3674e-05
-7.39639e-07
1.35346e-05
-7.75528e-07
1.33094e-05
-1.19545e-06
1.31215e-05
-1.11338e-06
1.28343e-05
-1.49742e-06
1.24964e-05
-1.84694e-06
-2.64549e-06
1.22653e-05
1.3465e-05
-7.49539e-06
1.3765e-05
-6.44685e-06
1.40163e-05
-3.42751e-06
1.41269e-05
-2.58566e-06
1.40934e-05
-2.01771e-06
1.39096e-05
-1.72292e-06
1.36722e-05
-1.46508e-06
1.34736e-05
-1.08485e-06
1.3267e-05
-9.18543e-07
1.30353e-05
-8.98444e-07
1.289e-05
-5.96638e-07
1.27187e-05
-5.98739e-07
1.25039e-05
-7.65724e-07
1.23565e-05
-5.92219e-07
1.218e-05
-5.99034e-07
1.19251e-05
-9.40502e-07
1.17015e-05
-8.89825e-07
1.13835e-05
-1.17946e-06
1.09937e-05
-1.45708e-06
-1.94722e-06
1.02954e-05
1.35795e-05
-8.57486e-06
1.36751e-05
-6.54252e-06
1.36331e-05
-3.38543e-06
1.33853e-05
-2.33796e-06
1.30309e-05
-1.66326e-06
1.26288e-05
-1.32081e-06
1.2253e-05
-1.08927e-06
1.19625e-05
-7.94345e-07
1.16925e-05
-6.48581e-07
1.14325e-05
-6.38444e-07
1.12602e-05
-4.24377e-07
1.10711e-05
-4.09641e-07
1.08517e-05
-5.46311e-07
1.06916e-05
-4.32057e-07
1.05068e-05
-4.14267e-07
1.02485e-05
-6.82229e-07
1.00133e-05
-6.5464e-07
9.68573e-06
-8.51848e-07
9.29241e-06
-1.06375e-06
-1.37632e-06
8.72152e-06
1.34059e-05
-9.48076e-06
1.29028e-05
-6.03939e-06
1.233e-05
-2.81267e-06
1.17028e-05
-1.71079e-06
1.11442e-05
-1.10465e-06
1.06594e-05
-8.3601e-07
1.02562e-05
-6.86051e-07
9.95514e-06
-4.93264e-07
9.69111e-06
-3.84557e-07
9.44836e-06
-3.95691e-07
9.28298e-06
-2.58997e-07
9.1098e-06
-2.36461e-07
8.9094e-06
-3.45909e-07
8.7551e-06
-2.7776e-07
8.58541e-06
-2.44575e-07
8.3443e-06
-4.41117e-07
8.1156e-06
-4.25941e-07
7.80707e-06
-5.43322e-07
7.42941e-06
-6.86095e-07
-8.84653e-07
6.93774e-06
1.24224e-05
-9.40313e-06
1.1015e-05
-4.63203e-06
9.98182e-06
-1.77947e-06
9.19101e-06
-9.1999e-07
8.62631e-06
-5.39948e-07
8.19067e-06
-4.00373e-07
7.84239e-06
-3.37771e-07
7.58745e-06
-2.38317e-07
7.37459e-06
-1.71697e-07
7.17602e-06
-1.97125e-07
7.04091e-06
-1.2389e-07
6.9062e-06
-1.01743e-07
6.7394e-06
-1.79115e-07
6.60636e-06
-1.44714e-07
6.47046e-06
-1.0868e-07
6.26239e-06
-2.33049e-07
6.06011e-06
-2.23658e-07
5.79524e-06
-2.78449e-07
5.46208e-06
-3.52938e-07
-4.67417e-07
5.04484e-06
1.01095e-05
-7.01265e-06
7.83727e-06
-2.35979e-06
6.71121e-06
-6.53409e-07
6.0535e-06
-2.62281e-07
5.64997e-06
-1.36415e-07
5.35192e-06
-1.0232e-07
5.10935e-06
-9.52093e-08
4.9361e-06
-6.50598e-08
4.80189e-06
-3.74922e-08
4.66335e-06
-5.85853e-08
4.57398e-06
-3.45215e-08
4.49151e-06
-1.92719e-08
4.36915e-06
-5.6752e-08
4.27139e-06
-4.69567e-08
4.18508e-06
-2.23733e-08
4.02664e-06
-7.46017e-08
3.87437e-06
-7.13933e-08
3.67929e-06
-8.33665e-08
3.4314e-06
-1.05043e-07
-1.57833e-07
3.12181e-06
5.48735e-06
3.12756e-06
2.47415e-06
2.21187e-06
2.07546e-06
1.97314e-06
1.87793e-06
1.81287e-06
1.77538e-06
1.71679e-06
1.68227e-06
1.663e-06
1.60625e-06
1.55929e-06
1.53692e-06
1.46231e-06
1.39092e-06
1.30755e-06
1.20251e-06
1.04468e-06
2.40507e-06
-3.76397e-07
1.65881e-07
2.62498e-06
-3.08343e-07
8.84353e-08
2.85118e-06
-2.6704e-07
4.08391e-08
2.88078e-06
4.87679e-07
-5.17276e-07
3.75512e-06
7.60196e-07
-1.63454e-06
5.83781e-06
1.76585e-06
-3.84854e-06
7.60742e-06
4.12082e-06
-5.89043e-06
8.64009e-06
4.71761e-06
-5.75028e-06
9.85244e-06
3.79004e-06
-5.00238e-06
1.10743e-05
3.41132e-06
-4.63319e-06
1.21192e-05
3.53315e-06
-4.57805e-06
1.31549e-05
1.56579e-06
-2.60146e-06
1.37544e-05
-6.58884e-07
5.93444e-08
1.4054e-05
-1.32209e-06
1.02255e-06
1.44738e-05
-2.99637e-06
2.57648e-06
1.48448e-05
-5.01098e-06
4.64005e-06
1.48299e-05
-6.70919e-06
6.72407e-06
1.45086e-05
-8.10226e-06
8.42356e-06
1.44351e-05
-9.22937e-06
9.3029e-06
1.50533e-05
-1.10194e-05
1.04012e-05
1.60195e-05
-1.33793e-05
1.24131e-05
1.67322e-05
-1.59908e-05
1.5278e-05
1.68981e-05
-1.78169e-05
1.7651e-05
1.66874e-05
-1.8705e-05
1.89157e-05
1.62354e-05
-1.8462e-05
1.89141e-05
1.56641e-05
-1.81705e-05
1.87418e-05
1.52571e-05
-1.75055e-05
1.79124e-05
1.47623e-05
-1.69836e-05
1.74784e-05
1.43423e-05
-1.57882e-05
1.62082e-05
1.39743e-05
-1.45855e-05
1.49535e-05
1.3423e-05
-1.35405e-05
1.40918e-05
1.28938e-05
-1.18793e-05
1.24085e-05
1.24544e-05
-1.00174e-05
1.04568e-05
1.19261e-05
-8.70767e-06
9.23604e-06
1.15292e-05
-7.65335e-06
8.05017e-06
1.11124e-05
-6.06798e-06
6.48485e-06
1.04938e-05
-5.13876e-06
5.75736e-06
1.00598e-05
-4.19069e-06
4.62466e-06
9.71229e-06
-2.01973e-06
2.36723e-06
8.92904e-06
-6.64504e-07
1.44776e-06
8.46921e-06
-2.32092e-06
2.78075e-06
8.48532e-06
-6.90143e-07
6.74032e-07
8.04709e-06
2.20709e-06
-1.76886e-06
7.48194e-06
2.091e-06
-1.52585e-06
7.37172e-06
2.32408e-06
-2.21386e-06
7.29951e-06
3.10897e-06
-3.03676e-06
7.2128e-06
2.02704e-06
-1.94033e-06
7.46584e-06
1.90095e-06
-2.15399e-06
8.04904e-06
5.36014e-06
-5.94335e-06
9.0118e-06
1.10938e-05
-1.20565e-05
1.02936e-05
1.64226e-05
-1.77044e-05
1.1545e-05
2.13145e-05
-2.2566e-05
1.21939e-05
2.48079e-05
-2.54568e-05
1.22452e-05
2.64047e-05
-2.6456e-05
1.20056e-05
2.61151e-05
-2.58755e-05
1.17439e-05
2.44019e-05
-2.41401e-05
1.15409e-05
2.23034e-05
-2.21004e-05
1.13339e-05
2.02791e-05
-2.00721e-05
1.10712e-05
1.793e-05
-1.76673e-05
1.07235e-05
1.47693e-05
-1.44216e-05
1.02935e-05
1.0681e-05
-1.0251e-05
9.78879e-06
6.09578e-06
-5.59106e-06
9.17822e-06
1.47057e-06
-8.60002e-07
8.62055e-06
-3.53685e-06
4.09452e-06
8.33443e-06
-8.46583e-06
8.75194e-06
8.162e-06
-1.20607e-05
1.22331e-05
7.89684e-06
-1.52774e-05
1.55425e-05
7.71433e-06
-1.96469e-05
1.98294e-05
7.86985e-06
-2.40548e-05
2.38993e-05
8.27198e-06
-2.65302e-05
2.61281e-05
8.59943e-06
-2.72263e-05
2.68988e-05
8.7776e-06
-2.74157e-05
2.72375e-05
9.05292e-06
-2.5517e-05
2.52417e-05
9.33496e-06
-1.96903e-05
1.94083e-05
9.1554e-06
-1.46806e-05
1.48601e-05
8.59472e-06
-1.55204e-05
1.60811e-05
8.06102e-06
-1.9935e-05
2.04687e-05
7.6572e-06
-2.41303e-05
2.45342e-05
7.32307e-06
-2.71312e-05
2.74654e-05
7.07098e-06
-2.86902e-05
2.89423e-05
6.9396e-06
-2.97502e-05
2.98816e-05
6.75445e-06
-3.06276e-05
3.08128e-05
6.82551e-06
-2.91764e-05
2.91053e-05
7.04127e-06
-2.53485e-05
2.51327e-05
7.3742e-06
-2.33767e-05
2.30437e-05
7.86296e-06
-2.09918e-05
2.0503e-05
8.06192e-06
-1.70724e-05
1.68734e-05
8.42383e-06
-1.27046e-05
1.23427e-05
8.98302e-06
-8.54012e-06
7.98093e-06
9.25656e-06
-4.71976e-06
4.44621e-06
9.51265e-06
1.01407e-06
-1.27016e-06
9.85453e-06
6.6909e-06
-7.03278e-06
1.00499e-05
9.17661e-06
-9.37193e-06
1.02189e-05
1.11354e-05
-1.13044e-05
1.04476e-05
1.52766e-05
-1.55053e-05
1.0449e-05
1.90337e-05
-1.90351e-05
1.03209e-05
2.02299e-05
-2.01018e-05
1.03714e-05
2.11332e-05
-2.11838e-05
1.04126e-05
2.25861e-05
-2.26272e-05
1.02088e-05
2.26292e-05
-2.24254e-05
9.70899e-06
2.0647e-05
-2.01472e-05
9.3805e-06
1.73608e-05
-1.70323e-05
9.53308e-06
1.50033e-05
-1.51559e-05
1.03214e-05
1.44125e-05
-1.52008e-05
1.13414e-05
1.63464e-05
-1.73663e-05
1.22185e-05
1.86891e-05
-1.95661e-05
1.26502e-05
1.97739e-05
-2.02057e-05
1.27025e-05
2.03235e-05
-2.03758e-05
1.24414e-05
2.0189e-05
-1.99279e-05
1.16703e-05
1.92706e-05
-1.84995e-05
1.06738e-05
1.64647e-05
-1.54683e-05
9.57809e-06
1.32695e-05
-1.21737e-05
8.71214e-06
1.00276e-05
-9.16168e-06
8.06625e-06
9.55258e-06
-8.9067e-06
7.9651e-06
8.6284e-06
-8.52724e-06
8.59441e-06
9.88669e-06
-1.0516e-05
9.43355e-06
1.13668e-05
-1.22059e-05
1.03708e-05
1.27897e-05
-1.3727e-05
1.12204e-05
1.39409e-05
-1.47905e-05
1.1679e-05
1.46216e-05
-1.50802e-05
1.19091e-05
1.28125e-05
-1.30425e-05
1.1946e-05
1.15809e-05
-1.16178e-05
1.19375e-05
8.53109e-06
-8.52266e-06
1.17435e-05
5.52731e-06
-5.33333e-06
1.13412e-05
3.75708e-06
-3.35473e-06
1.1098e-05
8.56282e-07
-6.13045e-07
1.10421e-05
-2.24896e-06
2.30485e-06
1.12029e-05
-5.53642e-06
5.37564e-06
1.11277e-05
-8.51756e-06
8.59275e-06
1.0655e-05
-9.30997e-06
9.78266e-06
1.02124e-05
-9.48457e-06
9.92719e-06
1.00594e-05
-9.4354e-06
9.58832e-06
1.03354e-05
-1.07947e-05
1.05187e-05
1.07201e-05
-1.38601e-05
1.34753e-05
1.08009e-05
-1.72076e-05
1.71269e-05
1.05654e-05
-1.88896e-05
1.9125e-05
1.03238e-05
-1.90097e-05
1.92514e-05
9.9689e-06
-1.87618e-05
1.91166e-05
9.377e-06
-1.8514e-05
1.91059e-05
8.90499e-06
-1.86624e-05
1.91345e-05
8.71252e-06
-1.86364e-05
1.88289e-05
8.44338e-06
-1.77916e-05
1.80607e-05
7.73284e-06
-1.66329e-05
1.73435e-05
6.83038e-06
-1.29609e-05
1.38634e-05
5.98335e-06
-1.01651e-05
1.10121e-05
5.33448e-06
-8.85999e-06
9.50886e-06
5.18502e-06
-9.03846e-06
9.18791e-06
5.38359e-06
-7.96962e-06
7.77105e-06
6.01593e-06
-8.42383e-06
7.79149e-06
6.68806e-06
-9.03217e-06
8.36003e-06
7.26553e-06
-9.53586e-06
8.95839e-06
7.67887e-06
-8.94533e-06
8.53199e-06
8.33458e-06
-9.61205e-06
8.95634e-06
9.06431e-06
-9.47221e-06
8.74248e-06
1.00407e-05
-1.01e-05
9.12362e-06
1.05933e-05
-9.24857e-06
8.69599e-06
1.09692e-05
-8.48237e-06
8.10642e-06
1.13701e-05
-7.14588e-06
6.74499e-06
1.18374e-05
-5.65239e-06
5.18512e-06
1.21755e-05
-4.68693e-06
4.34886e-06
1.24509e-05
-2.97226e-06
2.69686e-06
1.2726e-05
-4.50859e-07
1.75705e-07
1.27904e-05
1.43545e-06
-1.49986e-06
1.27407e-05
3.73352e-06
-3.68377e-06
1.24482e-05
6.8442e-06
-6.55169e-06
1.18922e-05
8.62211e-06
-8.06619e-06
1.14025e-05
1.05132e-05
-1.00234e-05
1.09683e-05
1.30544e-05
-1.26202e-05
1.05772e-05
1.49928e-05
-1.46018e-05
1.01201e-05
1.75023e-05
-1.70452e-05
9.48377e-06
1.96173e-05
-1.8981e-05
8.82872e-06
1.97133e-05
-1.90583e-05
7.99174e-06
1.90233e-05
-1.81863e-05
7.26659e-06
1.82135e-05
-1.74884e-05
6.58514e-06
1.84591e-05
-1.77777e-05
5.78313e-06
1.88269e-05
-1.80249e-05
4.93494e-06
1.85845e-05
-1.77364e-05
4.00155e-06
1.88495e-05
-1.79161e-05
3.08879e-06
1.87713e-05
-1.78585e-05
2.64352e-06
1.98535e-05
-1.94082e-05
2.32092e-06
2.20008e-05
-2.16782e-05
2.33238e-06
2.40924e-05
-2.41039e-05
2.66128e-06
2.56438e-05
-2.59727e-05
2.61229e-06
2.71273e-05
-2.70783e-05
3.83255e-06
2.41377e-05
-2.53579e-05
3.46985e-06
2.73475e-05
-2.69848e-05
3.78915e-06
2.01666e-05
-2.04858e-05
4.45897e-06
1.97357e-05
-2.04055e-05
6.21203e-06
1.0074e-05
-1.1827e-05
6.86103e-06
1.21281e-05
-1.27771e-05
6.30944e-06
1.85786e-06
-1.30627e-06
6.29529e-06
1.91816e-06
-1.90401e-06
5.66647e-06
-4.62346e-06
5.25228e-06
4.95013e-06
-8.63584e-07
1.57993e-06
4.00446e-06
-8.24979e-06
9.19546e-06
4.16647e-06
-5.32682e-06
5.16481e-06
3.63607e-06
-1.22733e-05
1.28036e-05
4.253e-06
-7.19414e-06
6.57721e-06
3.46847e-06
-1.10753e-05
1.18598e-05
-2.13417e-06
2.16005e-06
3.44259e-06
4.86172e-06
-4.17852e-07
4.81961e-06
-2.66235e-07
5.0462e-06
-4.93629e-07
5.0609e-06
4.72981e-07
4.96358e-06
8.57517e-07
5.93769e-06
7.91739e-07
7.29339e-06
2.76513e-06
8.21504e-06
3.79596e-06
9.21895e-06
2.78612e-06
1.0339e-05
2.29126e-06
1.17129e-05
2.15928e-06
1.28537e-05
4.24965e-07
1.33137e-05
-1.1189e-06
1.36876e-05
-1.69593e-06
1.42658e-05
-3.57458e-06
1.45589e-05
-5.30416e-06
1.44718e-05
-6.622e-06
1.45558e-05
-8.18634e-06
1.51501e-05
-9.82359e-06
1.61115e-05
-1.19808e-05
1.70151e-05
-1.42829e-05
1.74241e-05
-1.63998e-05
1.72723e-05
-1.76651e-05
1.68449e-05
-1.82776e-05
1.63382e-05
-1.79553e-05
1.57693e-05
-1.76016e-05
1.54118e-05
-1.7148e-05
1.48803e-05
-1.6452e-05
1.44517e-05
-1.53596e-05
1.41621e-05
-1.42959e-05
1.36609e-05
-1.30393e-05
1.31861e-05
-1.14046e-05
1.28275e-05
-9.65879e-06
1.22231e-05
-8.1033e-06
1.16864e-05
-7.11665e-06
1.12237e-05
-5.60533e-06
1.06118e-05
-4.52681e-06
1.01533e-05
-3.73221e-06
9.81814e-06
-1.68457e-06
9.15361e-06
3.43885e-11
8.60869e-06
-1.77601e-06
8.62209e-06
-7.03549e-07
8.31183e-06
2.51735e-06
7.66023e-06
2.7426e-06
7.44913e-06
2.53518e-06
7.51231e-06
3.04579e-06
7.41772e-06
2.12163e-06
7.60867e-06
1.71e-06
8.13357e-06
4.83524e-06
9.08547e-06
1.01419e-05
1.04047e-05
1.51033e-05
1.17567e-05
1.99625e-05
1.25831e-05
2.39815e-05
1.27616e-05
2.62263e-05
1.25733e-05
2.63034e-05
1.23359e-05
2.46392e-05
1.21703e-05
2.2469e-05
1.20169e-05
2.04325e-05
1.18148e-05
1.81322e-05
1.15206e-05
1.50636e-05
1.11212e-05
1.10804e-05
1.0614e-05
6.60302e-06
9.96335e-06
2.12118e-06
9.33501e-06
-2.90851e-06
8.98858e-06
-8.1194e-06
8.79518e-06
-1.18673e-05
8.54905e-06
-1.50312e-05
8.37916e-06
-1.9477e-05
8.47754e-06
-2.41532e-05
8.78756e-06
-2.68403e-05
9.05843e-06
-2.74971e-05
9.15948e-06
-2.75167e-05
9.28215e-06
-2.56397e-05
9.42703e-06
-1.98352e-05
9.17788e-06
-1.44314e-05
8.56994e-06
-1.49124e-05
8.01887e-06
-1.93839e-05
7.59307e-06
-2.37045e-05
7.20682e-06
-2.6745e-05
6.89526e-06
-2.83786e-05
6.69038e-06
-2.95453e-05
6.43119e-06
-3.03684e-05
6.46336e-06
-2.92085e-05
6.6788e-06
-2.5564e-05
6.92036e-06
-2.36182e-05
7.31135e-06
-2.13828e-05
7.4527e-06
-1.72138e-05
7.74207e-06
-1.2994e-05
8.27586e-06
-9.07391e-06
8.55284e-06
-4.99674e-06
8.79e-06
7.76916e-07
9.16628e-06
6.31462e-06
9.48457e-06
8.85832e-06
9.74012e-06
1.08798e-05
9.97399e-06
1.50428e-05
9.99043e-06
1.90173e-05
9.89965e-06
2.03207e-05
9.96927e-06
2.10636e-05
1.00494e-05
2.25059e-05
9.92202e-06
2.27566e-05
9.49243e-06
2.10766e-05
9.10547e-06
1.77478e-05
9.15041e-06
1.49584e-05
9.80975e-06
1.37531e-05