/*--------------------------------*- C++ -*----------------------------------*\
| =========                 |                                                 |
| \\      /  F ield         | OpenFOAM: The Open Source CFD Toolbox           |
|  \\    /   O peration     | Version:  2.4.0                                 |
|   \\  /    A nd           | Web:      www.OpenFOAM.org                      |
|    \\/     M anipulation  |                                                 |
\*---------------------------------------------------------------------------*/
FoamFile
{
    version     2.0;
    format      ascii;
    class       volScalarField;
    location    "0.003";
    object      pPrime2Mean;
}
// * * * * * * * * * * * * * * * * * * * * * * * * * * * * * * * * * * * * * //

dimensions      [0 4 -4 0 0 0 0];

internalField   nonuniform List<scalar> 
17600
(
2.13821e+08
2.08445e+08
2.02651e+08
1.96902e+08
1.91237e+08
1.85656e+08
1.80158e+08
1.74743e+08
1.6941e+08
1.64159e+08
1.5899e+08
1.53902e+08
1.48893e+08
1.43961e+08
1.391e+08
1.34303e+08
1.2955e+08
1.24807e+08
1.19993e+08
1.14849e+08
2.13825e+08
2.08445e+08
2.02651e+08
1.96902e+08
1.91237e+08
1.85656e+08
1.80158e+08
1.74743e+08
1.6941e+08
1.64159e+08
1.5899e+08
1.53902e+08
1.48893e+08
1.43961e+08
1.39101e+08
1.34304e+08
1.29552e+08
1.24809e+08
1.2e+08
1.14839e+08
2.13827e+08
2.08445e+08
2.02651e+08
1.96902e+08
1.91237e+08
1.85656e+08
1.80158e+08
1.74743e+08
1.6941e+08
1.64159e+08
1.5899e+08
1.53902e+08
1.48893e+08
1.43961e+08
1.39101e+08
1.34305e+08
1.29554e+08
1.24815e+08
1.20009e+08
1.1488e+08
2.13829e+08
2.08445e+08
2.02651e+08
1.96902e+08
1.91237e+08
1.85656e+08
1.80158e+08
1.74743e+08
1.6941e+08
1.64159e+08
1.5899e+08
1.53902e+08
1.48893e+08
1.43962e+08
1.39102e+08
1.34307e+08
1.29558e+08
1.24822e+08
1.20027e+08
1.14945e+08
2.1383e+08
2.08445e+08
2.0265e+08
1.96902e+08
1.91237e+08
1.85656e+08
1.80158e+08
1.74743e+08
1.6941e+08
1.64159e+08
1.5899e+08
1.53902e+08
1.48894e+08
1.43962e+08
1.39104e+08
1.34309e+08
1.29563e+08
1.24832e+08
1.20049e+08
1.15027e+08
2.13832e+08
2.08445e+08
2.0265e+08
1.96902e+08
1.91236e+08
1.85656e+08
1.80158e+08
1.74743e+08
1.6941e+08
1.64159e+08
1.5899e+08
1.53902e+08
1.48894e+08
1.43963e+08
1.39105e+08
1.34312e+08
1.29569e+08
1.24845e+08
1.20077e+08
1.1512e+08
2.13833e+08
2.08444e+08
2.0265e+08
1.96902e+08
1.91236e+08
1.85656e+08
1.80158e+08
1.74743e+08
1.6941e+08
1.6416e+08
1.58991e+08
1.53903e+08
1.48895e+08
1.43964e+08
1.39107e+08
1.34316e+08
1.29576e+08
1.24859e+08
1.2011e+08
1.15217e+08
2.13834e+08
2.08444e+08
2.0265e+08
1.96902e+08
1.91236e+08
1.85656e+08
1.80158e+08
1.74743e+08
1.6941e+08
1.6416e+08
1.58991e+08
1.53903e+08
1.48895e+08
1.43965e+08
1.39109e+08
1.3432e+08
1.29584e+08
1.24875e+08
1.20146e+08
1.15318e+08
2.13836e+08
2.08444e+08
2.0265e+08
1.96902e+08
1.91236e+08
1.85656e+08
1.80158e+08
1.74743e+08
1.6941e+08
1.6416e+08
1.58991e+08
1.53903e+08
1.48896e+08
1.43967e+08
1.39112e+08
1.34325e+08
1.29593e+08
1.24893e+08
1.20185e+08
1.15419e+08
2.13836e+08
2.08444e+08
2.0265e+08
1.96902e+08
1.91236e+08
1.85656e+08
1.80159e+08
1.74743e+08
1.69411e+08
1.6416e+08
1.58991e+08
1.53904e+08
1.48897e+08
1.43968e+08
1.39115e+08
1.3433e+08
1.29603e+08
1.24913e+08
1.20227e+08
1.1552e+08
2.13837e+08
2.08445e+08
2.0265e+08
1.96902e+08
1.91236e+08
1.85656e+08
1.80159e+08
1.74743e+08
1.69411e+08
1.6416e+08
1.58991e+08
1.53904e+08
1.48898e+08
1.4397e+08
1.39118e+08
1.34335e+08
1.29613e+08
1.24933e+08
1.20271e+08
1.1562e+08
2.13838e+08
2.08445e+08
2.0265e+08
1.96902e+08
1.91236e+08
1.85656e+08
1.80159e+08
1.74743e+08
1.69411e+08
1.6416e+08
1.58992e+08
1.53905e+08
1.48899e+08
1.43972e+08
1.39121e+08
1.34341e+08
1.29624e+08
1.24955e+08
1.20316e+08
1.15717e+08
2.13839e+08
2.08445e+08
2.0265e+08
1.96902e+08
1.91236e+08
1.85656e+08
1.80159e+08
1.74744e+08
1.69411e+08
1.6416e+08
1.58992e+08
1.53905e+08
1.489e+08
1.43973e+08
1.39124e+08
1.34347e+08
1.29636e+08
1.24978e+08
1.20362e+08
1.15811e+08
2.13839e+08
2.08445e+08
2.02649e+08
1.96902e+08
1.91236e+08
1.85656e+08
1.80159e+08
1.74744e+08
1.69411e+08
1.64161e+08
1.58992e+08
1.53906e+08
1.48901e+08
1.43975e+08
1.39128e+08
1.34354e+08
1.29648e+08
1.25002e+08
1.20408e+08
1.15902e+08
2.1384e+08
2.08445e+08
2.02649e+08
1.96902e+08
1.91236e+08
1.85656e+08
1.80159e+08
1.74744e+08
1.69411e+08
1.64161e+08
1.58993e+08
1.53906e+08
1.48902e+08
1.43977e+08
1.39131e+08
1.34361e+08
1.29661e+08
1.25025e+08
1.20455e+08
1.1599e+08
2.1384e+08
2.08445e+08
2.02649e+08
1.96902e+08
1.91236e+08
1.85656e+08
1.80159e+08
1.74744e+08
1.69411e+08
1.64161e+08
1.58993e+08
1.53907e+08
1.48903e+08
1.43979e+08
1.39135e+08
1.34368e+08
1.29674e+08
1.2505e+08
1.20501e+08
1.16075e+08
2.1384e+08
2.08445e+08
2.02649e+08
1.96902e+08
1.91236e+08
1.85656e+08
1.80159e+08
1.74744e+08
1.69411e+08
1.64161e+08
1.58993e+08
1.53908e+08
1.48904e+08
1.43981e+08
1.39139e+08
1.34375e+08
1.29687e+08
1.25074e+08
1.20546e+08
1.16156e+08
2.13841e+08
2.08445e+08
2.02649e+08
1.96902e+08
1.91236e+08
1.85656e+08
1.80159e+08
1.74744e+08
1.69411e+08
1.64161e+08
1.58994e+08
1.53908e+08
1.48905e+08
1.43984e+08
1.39143e+08
1.34382e+08
1.297e+08
1.25099e+08
1.20591e+08
1.16233e+08
2.13841e+08
2.08445e+08
2.02649e+08
1.96902e+08
1.91236e+08
1.85656e+08
1.80159e+08
1.74744e+08
1.69411e+08
1.64161e+08
1.58994e+08
1.53909e+08
1.48906e+08
1.43986e+08
1.39147e+08
1.34389e+08
1.29713e+08
1.25123e+08
1.20635e+08
1.16307e+08
2.13841e+08
2.08445e+08
2.02649e+08
1.96902e+08
1.91236e+08
1.85656e+08
1.80159e+08
1.74744e+08
1.69412e+08
1.64162e+08
1.58994e+08
1.5391e+08
1.48908e+08
1.43988e+08
1.39151e+08
1.34396e+08
1.29727e+08
1.25147e+08
1.20677e+08
1.16377e+08
2.13841e+08
2.08445e+08
2.02649e+08
1.96902e+08
1.91236e+08
1.85656e+08
1.80159e+08
1.74744e+08
1.69412e+08
1.64162e+08
1.58995e+08
1.5391e+08
1.48909e+08
1.4399e+08
1.39155e+08
1.34404e+08
1.2974e+08
1.2517e+08
1.20718e+08
1.16444e+08
2.13841e+08
2.08445e+08
2.02649e+08
1.96902e+08
1.91237e+08
1.85656e+08
1.80159e+08
1.74744e+08
1.69412e+08
1.64162e+08
1.58995e+08
1.53911e+08
1.4891e+08
1.43992e+08
1.39159e+08
1.34411e+08
1.29753e+08
1.25193e+08
1.20758e+08
1.16507e+08
2.13841e+08
2.08445e+08
2.02649e+08
1.96902e+08
1.91237e+08
1.85656e+08
1.80159e+08
1.74744e+08
1.69412e+08
1.64162e+08
1.58996e+08
1.53912e+08
1.48911e+08
1.43994e+08
1.39163e+08
1.34418e+08
1.29765e+08
1.25216e+08
1.20796e+08
1.16566e+08
2.1384e+08
2.08445e+08
2.02649e+08
1.96902e+08
1.91237e+08
1.85656e+08
1.80159e+08
1.74744e+08
1.69412e+08
1.64162e+08
1.58996e+08
1.53912e+08
1.48912e+08
1.43997e+08
1.39166e+08
1.34425e+08
1.29778e+08
1.25237e+08
1.20832e+08
1.16622e+08
2.1384e+08
2.08445e+08
2.02649e+08
1.96902e+08
1.91237e+08
1.85656e+08
1.80159e+08
1.74744e+08
1.69412e+08
1.64163e+08
1.58996e+08
1.53913e+08
1.48913e+08
1.43999e+08
1.3917e+08
1.34432e+08
1.29789e+08
1.25258e+08
1.20867e+08
1.16674e+08
2.1384e+08
2.08445e+08
2.02649e+08
1.96902e+08
1.91237e+08
1.85656e+08
1.80159e+08
1.74744e+08
1.69412e+08
1.64163e+08
1.58997e+08
1.53914e+08
1.48915e+08
1.44001e+08
1.39174e+08
1.34438e+08
1.29801e+08
1.25278e+08
1.209e+08
1.16723e+08
2.13839e+08
2.08445e+08
2.0265e+08
1.96902e+08
1.91237e+08
1.85656e+08
1.80159e+08
1.74744e+08
1.69412e+08
1.64163e+08
1.58997e+08
1.53914e+08
1.48916e+08
1.44003e+08
1.39177e+08
1.34444e+08
1.29812e+08
1.25297e+08
1.2093e+08
1.16769e+08
2.13839e+08
2.08445e+08
2.0265e+08
1.96902e+08
1.91237e+08
1.85656e+08
1.80159e+08
1.74744e+08
1.69412e+08
1.64163e+08
1.58997e+08
1.53915e+08
1.48917e+08
1.44004e+08
1.39181e+08
1.3445e+08
1.29822e+08
1.25314e+08
1.20959e+08
1.16811e+08
2.13838e+08
2.08445e+08
2.0265e+08
1.96902e+08
1.91237e+08
1.85656e+08
1.80159e+08
1.74744e+08
1.69412e+08
1.64163e+08
1.58997e+08
1.53915e+08
1.48918e+08
1.44006e+08
1.39184e+08
1.34456e+08
1.29832e+08
1.25331e+08
1.20986e+08
1.1685e+08
2.13837e+08
2.08445e+08
2.0265e+08
1.96902e+08
1.91237e+08
1.85656e+08
1.80159e+08
1.74744e+08
1.69413e+08
1.64164e+08
1.58998e+08
1.53916e+08
1.48919e+08
1.44008e+08
1.39187e+08
1.34461e+08
1.29841e+08
1.25346e+08
1.2101e+08
1.16885e+08
2.13837e+08
2.08445e+08
2.0265e+08
1.96902e+08
1.91237e+08
1.85656e+08
1.80159e+08
1.74744e+08
1.69413e+08
1.64164e+08
1.58998e+08
1.53916e+08
1.48919e+08
1.44009e+08
1.39189e+08
1.34466e+08
1.29849e+08
1.25361e+08
1.21032e+08
1.16917e+08
2.13836e+08
2.08444e+08
2.0265e+08
1.96902e+08
1.91237e+08
1.85656e+08
1.80159e+08
1.74745e+08
1.69413e+08
1.64164e+08
1.58998e+08
1.53917e+08
1.4892e+08
1.44011e+08
1.39192e+08
1.3447e+08
1.29857e+08
1.25373e+08
1.21053e+08
1.16946e+08
2.13835e+08
2.08444e+08
2.0265e+08
1.96902e+08
1.91237e+08
1.85656e+08
1.80159e+08
1.74745e+08
1.69413e+08
1.64164e+08
1.58998e+08
1.53917e+08
1.48921e+08
1.44012e+08
1.39194e+08
1.34474e+08
1.29864e+08
1.25385e+08
1.21071e+08
1.16971e+08
2.13833e+08
2.08445e+08
2.0265e+08
1.96902e+08
1.91237e+08
1.85656e+08
1.80159e+08
1.74745e+08
1.69413e+08
1.64164e+08
1.58999e+08
1.53917e+08
1.48921e+08
1.44013e+08
1.39196e+08
1.34478e+08
1.2987e+08
1.25395e+08
1.21087e+08
1.16994e+08
2.13832e+08
2.08445e+08
2.0265e+08
1.96902e+08
1.91237e+08
1.85656e+08
1.80159e+08
1.74745e+08
1.69413e+08
1.64164e+08
1.58999e+08
1.53918e+08
1.48922e+08
1.44014e+08
1.39198e+08
1.34481e+08
1.29875e+08
1.25404e+08
1.211e+08
1.17013e+08
2.13831e+08
2.08445e+08
2.0265e+08
1.96902e+08
1.91237e+08
1.85656e+08
1.80159e+08
1.74745e+08
1.69413e+08
1.64164e+08
1.58999e+08
1.53918e+08
1.48922e+08
1.44015e+08
1.39199e+08
1.34483e+08
1.2988e+08
1.25411e+08
1.21112e+08
1.17029e+08
2.13829e+08
2.08445e+08
2.02651e+08
1.96902e+08
1.91237e+08
1.85656e+08
1.80159e+08
1.74745e+08
1.69413e+08
1.64164e+08
1.58999e+08
1.53918e+08
1.48923e+08
1.44015e+08
1.392e+08
1.34485e+08
1.29883e+08
1.25417e+08
1.21121e+08
1.17042e+08
2.13827e+08
2.08445e+08
2.02651e+08
1.96902e+08
1.91237e+08
1.85656e+08
1.80159e+08
1.74745e+08
1.69413e+08
1.64164e+08
1.58999e+08
1.53918e+08
1.48923e+08
1.44016e+08
1.39201e+08
1.34487e+08
1.29886e+08
1.25422e+08
1.21128e+08
1.17052e+08
2.13825e+08
2.08445e+08
2.02651e+08
1.96902e+08
1.91237e+08
1.85656e+08
1.80159e+08
1.74745e+08
1.69413e+08
1.64164e+08
1.58999e+08
1.53918e+08
1.48923e+08
1.44016e+08
1.39202e+08
1.34488e+08
1.29888e+08
1.25424e+08
1.21133e+08
1.17059e+08
2.13822e+08
2.08445e+08
2.02651e+08
1.96902e+08
1.91237e+08
1.85656e+08
1.80159e+08
1.74745e+08
1.69413e+08
1.64164e+08
1.58999e+08
1.53918e+08
1.48923e+08
1.44016e+08
1.39202e+08
1.34488e+08
1.29889e+08
1.25426e+08
1.21135e+08
1.17062e+08
1.09958e+08
1.08711e+08
1.07752e+08
1.06929e+08
1.06167e+08
1.0544e+08
1.04737e+08
1.04052e+08
1.03382e+08
1.02724e+08
1.02075e+08
1.01433e+08
1.00798e+08
1.00168e+08
9.95433e+07
9.89229e+07
9.83063e+07
9.76933e+07
9.70836e+07
9.64768e+07
9.58729e+07
9.52716e+07
9.46729e+07
9.40766e+07
9.34826e+07
9.2891e+07
9.23015e+07
9.17142e+07
9.1129e+07
9.05459e+07
8.99649e+07
8.93859e+07
8.88088e+07
8.82338e+07
8.76607e+07
8.70896e+07
8.65204e+07
8.59532e+07
8.53878e+07
8.48244e+07
8.42629e+07
8.37033e+07
8.31456e+07
8.25898e+07
8.20359e+07
8.14838e+07
8.09337e+07
8.03854e+07
7.9839e+07
7.92945e+07
7.87519e+07
7.82112e+07
7.76723e+07
7.71353e+07
7.66001e+07
7.60669e+07
7.55354e+07
7.50059e+07
7.44782e+07
7.39524e+07
7.34285e+07
7.29064e+07
7.23862e+07
7.18679e+07
7.13514e+07
7.08368e+07
7.0324e+07
6.98131e+07
6.93041e+07
6.8797e+07
6.82917e+07
6.77883e+07
6.72867e+07
6.6787e+07
6.62892e+07
6.57932e+07
6.52991e+07
6.48069e+07
6.43165e+07
6.3828e+07
6.33413e+07
6.28565e+07
6.23736e+07
6.18926e+07
6.14134e+07
6.0936e+07
6.04605e+07
5.99869e+07
5.95152e+07
5.90453e+07
5.85773e+07
5.81111e+07
5.76468e+07
5.71844e+07
5.67238e+07
5.62651e+07
5.58083e+07
5.53533e+07
5.49002e+07
5.44489e+07
5.39995e+07
5.3552e+07
5.31063e+07
5.26625e+07
5.22205e+07
5.17804e+07
5.13422e+07
5.09058e+07
5.04713e+07
5.00387e+07
4.96079e+07
4.9179e+07
4.8752e+07
4.83268e+07
4.79034e+07
4.7482e+07
4.70624e+07
4.66446e+07
4.62287e+07
4.58147e+07
4.54026e+07
4.49923e+07
4.45838e+07
4.41773e+07
4.37725e+07
4.33697e+07
4.29687e+07
4.25696e+07
4.21723e+07
4.17769e+07
4.13834e+07
4.09917e+07
4.06019e+07
4.02139e+07
3.98278e+07
3.94436e+07
3.90612e+07
3.86807e+07
3.8302e+07
3.79252e+07
3.75503e+07
3.71772e+07
3.6806e+07
3.64366e+07
3.60692e+07
3.57035e+07
3.53397e+07
3.49778e+07
3.46177e+07
3.42595e+07
3.39032e+07
3.35487e+07
3.3196e+07
3.28452e+07
3.24963e+07
3.21492e+07
3.1804e+07
3.14606e+07
3.1119e+07
3.07793e+07
3.04415e+07
3.01055e+07
2.97713e+07
2.94389e+07
2.91084e+07
2.87797e+07
2.84529e+07
2.81278e+07
2.78046e+07
2.74831e+07
2.71635e+07
2.68456e+07
2.65295e+07
2.62151e+07
2.59025e+07
2.55916e+07
2.52824e+07
2.49749e+07
2.4669e+07
2.43647e+07
2.4062e+07
2.37607e+07
2.34608e+07
2.31623e+07
2.28651e+07
2.25689e+07
2.22738e+07
2.19794e+07
2.16856e+07
2.1392e+07
2.10983e+07
2.0804e+07
2.05085e+07
2.02109e+07
1.99099e+07
1.96037e+07
1.92896e+07
1.89643e+07
1.86098e+07
1.8232e+07
1.10487e+08
1.09163e+08
1.08112e+08
1.07223e+08
1.06416e+08
1.05656e+08
1.04927e+08
1.0422e+08
1.03531e+08
1.02857e+08
1.02193e+08
1.0154e+08
1.00894e+08
1.00254e+08
9.96213e+07
9.89933e+07
9.837e+07
9.77509e+07
9.71357e+07
9.6524e+07
9.59156e+07
9.53103e+07
9.4708e+07
9.41084e+07
9.35115e+07
9.29171e+07
9.23252e+07
9.17357e+07
9.11485e+07
9.05636e+07
8.99809e+07
8.94004e+07
8.8822e+07
8.82458e+07
8.76716e+07
8.70995e+07
8.65294e+07
8.59613e+07
8.53952e+07
8.48311e+07
8.4269e+07
8.37088e+07
8.31506e+07
8.25943e+07
8.204e+07
8.14875e+07
8.09371e+07
8.03885e+07
7.98418e+07
7.9297e+07
7.87542e+07
7.82132e+07
7.76741e+07
7.7137e+07
7.66017e+07
7.60683e+07
7.55367e+07
7.50071e+07
7.44793e+07
7.39534e+07
7.34293e+07
7.29072e+07
7.23869e+07
7.18685e+07
7.1352e+07
7.08373e+07
7.03245e+07
6.98136e+07
6.93045e+07
6.87973e+07
6.8292e+07
6.77886e+07
6.7287e+07
6.67873e+07
6.62894e+07
6.57934e+07
6.52993e+07
6.4807e+07
6.43166e+07
6.38281e+07
6.33414e+07
6.28566e+07
6.23737e+07
6.18926e+07
6.14134e+07
6.09361e+07
6.04606e+07
5.9987e+07
5.95152e+07
5.90453e+07
5.85773e+07
5.81112e+07
5.76469e+07
5.71844e+07
5.67238e+07
5.62651e+07
5.58083e+07
5.53533e+07
5.49002e+07
5.44489e+07
5.39995e+07
5.3552e+07
5.31063e+07
5.26625e+07
5.22205e+07
5.17804e+07
5.13422e+07
5.09058e+07
5.04713e+07
5.00387e+07
4.96079e+07
4.9179e+07
4.87519e+07
4.83267e+07
4.79034e+07
4.74819e+07
4.70623e+07
4.66445e+07
4.62286e+07
4.58146e+07
4.54024e+07
4.49921e+07
4.45837e+07
4.41771e+07
4.37724e+07
4.33695e+07
4.29685e+07
4.25694e+07
4.21721e+07
4.17767e+07
4.13831e+07
4.09914e+07
4.06015e+07
4.02136e+07
3.98274e+07
3.94432e+07
3.90607e+07
3.86802e+07
3.83015e+07
3.79246e+07
3.75496e+07
3.71765e+07
3.68052e+07
3.64358e+07
3.60682e+07
3.57025e+07
3.53386e+07
3.49766e+07
3.46164e+07
3.42581e+07
3.39016e+07
3.35469e+07
3.31941e+07
3.28431e+07
3.2494e+07
3.21467e+07
3.18012e+07
3.14576e+07
3.11158e+07
3.07758e+07
3.04376e+07
3.01012e+07
2.97666e+07
2.94339e+07
2.91029e+07
2.87737e+07
2.84463e+07
2.81206e+07
2.77967e+07
2.74745e+07
2.71541e+07
2.68353e+07
2.65183e+07
2.62029e+07
2.58891e+07
2.5577e+07
2.52664e+07
2.49574e+07
2.46499e+07
2.43438e+07
2.40391e+07
2.37356e+07
2.34334e+07
2.31323e+07
2.28322e+07
2.25329e+07
2.22342e+07
2.19359e+07
2.16377e+07
2.13392e+07
2.104e+07
2.07394e+07
2.04366e+07
2.01304e+07
1.9819e+07
1.95002e+07
1.91691e+07
1.8822e+07
1.84332e+07
1.79841e+07
1.10903e+08
1.09556e+08
1.08451e+08
1.07507e+08
1.06659e+08
1.05868e+08
1.05113e+08
1.04385e+08
1.03678e+08
1.02988e+08
1.02311e+08
1.01645e+08
1.00989e+08
1.0034e+08
9.96988e+07
9.90633e+07
9.84333e+07
9.78082e+07
9.71875e+07
9.65709e+07
9.59581e+07
9.53489e+07
9.47429e+07
9.41401e+07
9.35402e+07
9.29431e+07
9.23488e+07
9.17571e+07
9.11679e+07
9.05812e+07
8.99969e+07
8.94149e+07
8.88352e+07
8.82577e+07
8.76824e+07
8.71093e+07
8.65383e+07
8.59694e+07
8.54025e+07
8.48377e+07
8.4275e+07
8.37143e+07
8.31555e+07
8.25988e+07
8.2044e+07
8.14912e+07
8.09404e+07
8.03915e+07
7.98446e+07
7.92996e+07
7.87565e+07
7.82153e+07
7.7676e+07
7.71387e+07
7.66032e+07
7.60696e+07
7.5538e+07
7.50082e+07
7.44803e+07
7.39543e+07
7.34302e+07
7.2908e+07
7.23876e+07
7.18691e+07
7.13525e+07
7.08378e+07
7.0325e+07
6.9814e+07
6.93049e+07
6.87977e+07
6.82923e+07
6.77888e+07
6.72872e+07
6.67875e+07
6.62896e+07
6.57936e+07
6.52995e+07
6.48072e+07
6.43168e+07
6.38282e+07
6.33416e+07
6.28568e+07
6.23738e+07
6.18927e+07
6.14135e+07
6.09362e+07
6.04607e+07
5.9987e+07
5.95153e+07
5.90454e+07
5.85774e+07
5.81112e+07
5.76469e+07
5.71844e+07
5.67239e+07
5.62651e+07
5.58083e+07
5.53533e+07
5.49002e+07
5.44489e+07
5.39995e+07
5.3552e+07
5.31063e+07
5.26624e+07
5.22205e+07
5.17804e+07
5.13422e+07
5.09058e+07
5.04713e+07
5.00386e+07
4.96078e+07
4.91789e+07
4.87519e+07
4.83267e+07
4.79033e+07
4.74818e+07
4.70622e+07
4.66445e+07
4.62286e+07
4.58145e+07
4.54023e+07
4.4992e+07
4.45836e+07
4.4177e+07
4.37722e+07
4.33694e+07
4.29683e+07
4.25692e+07
4.21719e+07
4.17764e+07
4.13828e+07
4.09911e+07
4.06012e+07
4.02132e+07
3.9827e+07
3.94427e+07
3.90603e+07
3.86797e+07
3.83009e+07
3.7924e+07
3.7549e+07
3.71758e+07
3.68044e+07
3.64349e+07
3.60673e+07
3.57015e+07
3.53375e+07
3.49754e+07
3.46151e+07
3.42566e+07
3.39e+07
3.35452e+07
3.31922e+07
3.28411e+07
3.24917e+07
3.21442e+07
3.17985e+07
3.14546e+07
3.11125e+07
3.07722e+07
3.04337e+07
3.0097e+07
2.9762e+07
2.94288e+07
2.90974e+07
2.87677e+07
2.84397e+07
2.81134e+07
2.77888e+07
2.74659e+07
2.71447e+07
2.68251e+07
2.65071e+07
2.61906e+07
2.58758e+07
2.55624e+07
2.52505e+07
2.494e+07
2.46308e+07
2.43229e+07
2.40163e+07
2.37107e+07
2.34062e+07
2.31025e+07
2.27996e+07
2.24971e+07
2.2195e+07
2.18928e+07
2.15904e+07
2.12871e+07
2.09825e+07
2.06758e+07
2.03659e+07
2.00515e+07
1.97302e+07
1.94e+07
1.90533e+07
1.8688e+07
1.82741e+07
1.77854e+07
1.11246e+08
1.09901e+08
1.08764e+08
1.07779e+08
1.06895e+08
1.06074e+08
1.05296e+08
1.04547e+08
1.03823e+08
1.03118e+08
1.02427e+08
1.0175e+08
1.01083e+08
1.00425e+08
9.97756e+07
9.91327e+07
9.84961e+07
9.7865e+07
9.7239e+07
9.66176e+07
9.60004e+07
9.53872e+07
9.47776e+07
9.41716e+07
9.35687e+07
9.29691e+07
9.23723e+07
9.17784e+07
9.11873e+07
9.05988e+07
9.00128e+07
8.94293e+07
8.88483e+07
8.82696e+07
8.76932e+07
8.71191e+07
8.65471e+07
8.59774e+07
8.54098e+07
8.48444e+07
8.4281e+07
8.37197e+07
8.31605e+07
8.26033e+07
8.20481e+07
8.14949e+07
8.09438e+07
8.03946e+07
7.98473e+07
7.93021e+07
7.87587e+07
7.82173e+07
7.76779e+07
7.71404e+07
7.66047e+07
7.6071e+07
7.55392e+07
7.50094e+07
7.44814e+07
7.39553e+07
7.34311e+07
7.29087e+07
7.23883e+07
7.18698e+07
7.13531e+07
7.08383e+07
7.03254e+07
6.98144e+07
6.93053e+07
6.8798e+07
6.82926e+07
6.77891e+07
6.72875e+07
6.67877e+07
6.62898e+07
6.57938e+07
6.52996e+07
6.48074e+07
6.43169e+07
6.38284e+07
6.33417e+07
6.28569e+07
6.23739e+07
6.18928e+07
6.14136e+07
6.09362e+07
6.04607e+07
5.99871e+07
5.95153e+07
5.90454e+07
5.85774e+07
5.81112e+07
5.76469e+07
5.71845e+07
5.67239e+07
5.62652e+07
5.58083e+07
5.53533e+07
5.49002e+07
5.44489e+07
5.39995e+07
5.35519e+07
5.31063e+07
5.26624e+07
5.22205e+07
5.17804e+07
5.13421e+07
5.09058e+07
5.04713e+07
5.00386e+07
4.96078e+07
4.91789e+07
4.87518e+07
4.83266e+07
4.79033e+07
4.74818e+07
4.70621e+07
4.66444e+07
4.62285e+07
4.58144e+07
4.54022e+07
4.49919e+07
4.45834e+07
4.41768e+07
4.37721e+07
4.33692e+07
4.29681e+07
4.2569e+07
4.21716e+07
4.17762e+07
4.13826e+07
4.09908e+07
4.06009e+07
4.02129e+07
3.98267e+07
3.94423e+07
3.90598e+07
3.86792e+07
3.83004e+07
3.79234e+07
3.75483e+07
3.71751e+07
3.68037e+07
3.64341e+07
3.60663e+07
3.57004e+07
3.53364e+07
3.49741e+07
3.46137e+07
3.42552e+07
3.38984e+07
3.35434e+07
3.31903e+07
3.2839e+07
3.24895e+07
3.21417e+07
3.17958e+07
3.14517e+07
3.11093e+07
3.07687e+07
3.04299e+07
3.00928e+07
2.97574e+07
2.94238e+07
2.90919e+07
2.87616e+07
2.84331e+07
2.81062e+07
2.7781e+07
2.74574e+07
2.71353e+07
2.68149e+07
2.64959e+07
2.61785e+07
2.58625e+07
2.55479e+07
2.52346e+07
2.49226e+07
2.46119e+07
2.43023e+07
2.39937e+07
2.3686e+07
2.33792e+07
2.3073e+07
2.27672e+07
2.24617e+07
2.21561e+07
2.18502e+07
2.15436e+07
2.12357e+07
2.09258e+07
2.06132e+07
2.02965e+07
1.99746e+07
1.96439e+07
1.93035e+07
1.8943e+07
1.8563e+07
1.8132e+07
1.7628e+07
1.11543e+08
1.10205e+08
1.09052e+08
1.08037e+08
1.07122e+08
1.06274e+08
1.05474e+08
1.04706e+08
1.03965e+08
1.03245e+08
1.02542e+08
1.01853e+08
1.01176e+08
1.0051e+08
9.98516e+07
9.92015e+07
9.85584e+07
9.79214e+07
9.72901e+07
9.66638e+07
9.60423e+07
9.54252e+07
9.48121e+07
9.42028e+07
9.35971e+07
9.29948e+07
9.23957e+07
9.17996e+07
9.12065e+07
9.06162e+07
9.00286e+07
8.94437e+07
8.88613e+07
8.82814e+07
8.77039e+07
8.71288e+07
8.6556e+07
8.59854e+07
8.54171e+07
8.48509e+07
8.4287e+07
8.37251e+07
8.31654e+07
8.26077e+07
8.20521e+07
8.14986e+07
8.09471e+07
8.03976e+07
7.98501e+07
7.93045e+07
7.8761e+07
7.82194e+07
7.76797e+07
7.7142e+07
7.66063e+07
7.60724e+07
7.55405e+07
7.50105e+07
7.44824e+07
7.39562e+07
7.34319e+07
7.29095e+07
7.2389e+07
7.18704e+07
7.13537e+07
7.08389e+07
7.03259e+07
6.98148e+07
6.93057e+07
6.87984e+07
6.8293e+07
6.77894e+07
6.72878e+07
6.6788e+07
6.629e+07
6.5794e+07
6.52998e+07
6.48075e+07
6.43171e+07
6.38285e+07
6.33418e+07
6.2857e+07
6.2374e+07
6.18929e+07
6.14137e+07
6.09363e+07
6.04608e+07
5.99872e+07
5.95154e+07
5.90455e+07
5.85774e+07
5.81113e+07
5.76469e+07
5.71845e+07
5.67239e+07
5.62652e+07
5.58083e+07
5.53533e+07
5.49002e+07
5.44489e+07
5.39995e+07
5.35519e+07
5.31063e+07
5.26624e+07
5.22205e+07
5.17804e+07
5.13421e+07
5.09057e+07
5.04712e+07
5.00386e+07
4.96078e+07
4.91788e+07
4.87518e+07
4.83265e+07
4.79032e+07
4.74817e+07
4.70621e+07
4.66443e+07
4.62284e+07
4.58143e+07
4.54021e+07
4.49918e+07
4.45833e+07
4.41767e+07
4.37719e+07
4.3369e+07
4.2968e+07
4.25688e+07
4.21714e+07
4.17759e+07
4.13823e+07
4.09905e+07
4.06006e+07
4.02125e+07
3.98263e+07
3.94419e+07
3.90594e+07
3.86787e+07
3.82998e+07
3.79228e+07
3.75477e+07
3.71744e+07
3.68029e+07
3.64332e+07
3.60654e+07
3.56994e+07
3.53353e+07
3.49729e+07
3.46124e+07
3.42537e+07
3.38968e+07
3.35417e+07
3.31884e+07
3.28369e+07
3.24872e+07
3.21393e+07
3.17931e+07
3.14487e+07
3.11061e+07
3.07652e+07
3.0426e+07
3.00886e+07
2.97528e+07
2.94188e+07
2.90864e+07
2.87557e+07
2.84266e+07
2.80991e+07
2.77732e+07
2.74489e+07
2.71261e+07
2.68047e+07
2.64849e+07
2.61664e+07
2.58493e+07
2.55334e+07
2.52189e+07
2.49054e+07
2.45931e+07
2.42817e+07
2.39713e+07
2.36615e+07
2.33524e+07
2.30437e+07
2.27352e+07
2.24267e+07
2.21178e+07
2.18082e+07
2.14975e+07
2.11851e+07
2.08701e+07
2.05519e+07
2.02288e+07
1.98998e+07
1.95604e+07
1.92112e+07
1.88387e+07
1.8447e+07
1.80063e+07
1.74996e+07
1.11801e+08
1.10478e+08
1.09317e+08
1.0828e+08
1.07339e+08
1.06468e+08
1.05647e+08
1.04861e+08
1.04104e+08
1.0337e+08
1.02655e+08
1.01955e+08
1.01268e+08
1.00593e+08
9.99267e+07
9.92695e+07
9.86199e+07
9.79772e+07
9.73406e+07
9.67097e+07
9.60839e+07
9.54629e+07
9.48463e+07
9.42338e+07
9.36252e+07
9.30203e+07
9.24188e+07
9.18206e+07
9.12256e+07
9.06335e+07
9.00443e+07
8.94579e+07
8.88742e+07
8.82931e+07
8.77145e+07
8.71384e+07
8.65647e+07
8.59933e+07
8.54243e+07
8.48575e+07
8.42929e+07
8.37305e+07
8.31703e+07
8.26122e+07
8.20562e+07
8.15022e+07
8.09504e+07
8.04006e+07
7.98528e+07
7.9307e+07
7.87632e+07
7.82214e+07
7.76816e+07
7.71437e+07
7.66078e+07
7.60738e+07
7.55417e+07
7.50116e+07
7.44834e+07
7.39571e+07
7.34327e+07
7.29103e+07
7.23897e+07
7.1871e+07
7.13542e+07
7.08394e+07
7.03264e+07
6.98153e+07
6.93061e+07
6.87987e+07
6.82933e+07
6.77897e+07
6.7288e+07
6.67882e+07
6.62903e+07
6.57942e+07
6.53e+07
6.48077e+07
6.43172e+07
6.38286e+07
6.33419e+07
6.28571e+07
6.23741e+07
6.1893e+07
6.14137e+07
6.09364e+07
6.04609e+07
5.99872e+07
5.95154e+07
5.90455e+07
5.85775e+07
5.81113e+07
5.7647e+07
5.71845e+07
5.67239e+07
5.62652e+07
5.58083e+07
5.53533e+07
5.49002e+07
5.44489e+07
5.39995e+07
5.35519e+07
5.31062e+07
5.26624e+07
5.22204e+07
5.17803e+07
5.13421e+07
5.09057e+07
5.04712e+07
5.00385e+07
4.96077e+07
4.91788e+07
4.87517e+07
4.83265e+07
4.79031e+07
4.74816e+07
4.7062e+07
4.66442e+07
4.62283e+07
4.58142e+07
4.5402e+07
4.49917e+07
4.45832e+07
4.41765e+07
4.37718e+07
4.33688e+07
4.29678e+07
4.25686e+07
4.21712e+07
4.17757e+07
4.1382e+07
4.09902e+07
4.06003e+07
4.02122e+07
3.98259e+07
3.94415e+07
3.90589e+07
3.86782e+07
3.82993e+07
3.79223e+07
3.7547e+07
3.71737e+07
3.68021e+07
3.64324e+07
3.60645e+07
3.56984e+07
3.53342e+07
3.49717e+07
3.46111e+07
3.42523e+07
3.38952e+07
3.354e+07
3.31866e+07
3.28349e+07
3.2485e+07
3.21368e+07
3.17905e+07
3.14458e+07
3.11029e+07
3.07617e+07
3.04222e+07
3.00844e+07
2.97483e+07
2.94138e+07
2.9081e+07
2.87498e+07
2.84201e+07
2.80921e+07
2.77655e+07
2.74405e+07
2.71169e+07
2.67947e+07
2.64739e+07
2.61544e+07
2.58362e+07
2.55192e+07
2.52033e+07
2.48884e+07
2.45745e+07
2.42614e+07
2.39491e+07
2.36373e+07
2.33259e+07
2.30148e+07
2.27036e+07
2.23921e+07
2.208e+07
2.17668e+07
2.14522e+07
2.11354e+07
2.08156e+07
2.04921e+07
2.01628e+07
1.98274e+07
1.948e+07
1.9123e+07
1.8741e+07
1.83396e+07
1.78952e+07
1.73915e+07
1.12031e+08
1.10725e+08
1.0956e+08
1.08507e+08
1.07546e+08
1.06654e+08
1.05814e+08
1.05012e+08
1.0424e+08
1.03493e+08
1.02766e+08
1.02055e+08
1.01359e+08
1.00674e+08
1.00001e+08
9.93366e+07
9.86807e+07
9.80323e+07
9.73906e+07
9.6755e+07
9.6125e+07
9.55002e+07
9.48801e+07
9.42645e+07
9.36531e+07
9.30456e+07
9.24417e+07
9.18414e+07
9.12444e+07
9.06506e+07
9.00599e+07
8.9472e+07
8.8887e+07
8.83047e+07
8.77251e+07
8.7148e+07
8.65734e+07
8.60012e+07
8.54314e+07
8.48639e+07
8.42988e+07
8.37358e+07
8.31751e+07
8.26165e+07
8.20601e+07
8.15059e+07
8.09537e+07
8.04035e+07
7.98555e+07
7.93094e+07
7.87654e+07
7.82234e+07
7.76834e+07
7.71454e+07
7.66093e+07
7.60752e+07
7.5543e+07
7.50127e+07
7.44844e+07
7.3958e+07
7.34336e+07
7.2911e+07
7.23904e+07
7.18716e+07
7.13548e+07
7.08399e+07
7.03268e+07
6.98157e+07
6.93064e+07
6.87991e+07
6.82936e+07
6.779e+07
6.72883e+07
6.67884e+07
6.62905e+07
6.57944e+07
6.53002e+07
6.48078e+07
6.43174e+07
6.38288e+07
6.3342e+07
6.28572e+07
6.23742e+07
6.18931e+07
6.14138e+07
6.09364e+07
6.04609e+07
5.99873e+07
5.95155e+07
5.90456e+07
5.85775e+07
5.81113e+07
5.7647e+07
5.71845e+07
5.67239e+07
5.62652e+07
5.58083e+07
5.53533e+07
5.49002e+07
5.44489e+07
5.39995e+07
5.35519e+07
5.31062e+07
5.26624e+07
5.22204e+07
5.17803e+07
5.13421e+07
5.09057e+07
5.04712e+07
5.00385e+07
4.96077e+07
4.91788e+07
4.87517e+07
4.83264e+07
4.79031e+07
4.74816e+07
4.70619e+07
4.66441e+07
4.62282e+07
4.58141e+07
4.54019e+07
4.49916e+07
4.45831e+07
4.41764e+07
4.37716e+07
4.33687e+07
4.29676e+07
4.25684e+07
4.2171e+07
4.17755e+07
4.13818e+07
4.099e+07
4.06e+07
4.02118e+07
3.98255e+07
3.94411e+07
3.90585e+07
3.86777e+07
3.82988e+07
3.79217e+07
3.75464e+07
3.7173e+07
3.68014e+07
3.64316e+07
3.60636e+07
3.56974e+07
3.53331e+07
3.49705e+07
3.46098e+07
3.42509e+07
3.38937e+07
3.35383e+07
3.31847e+07
3.28329e+07
3.24828e+07
3.21344e+07
3.17878e+07
3.14429e+07
3.10997e+07
3.07583e+07
3.04184e+07
3.00803e+07
2.97438e+07
2.94089e+07
2.90756e+07
2.87439e+07
2.84137e+07
2.80851e+07
2.77579e+07
2.74321e+07
2.71078e+07
2.67847e+07
2.6463e+07
2.61425e+07
2.58232e+07
2.5505e+07
2.51878e+07
2.48716e+07
2.45561e+07
2.42414e+07
2.39272e+07
2.36134e+07
2.32998e+07
2.29863e+07
2.26724e+07
2.23581e+07
2.20428e+07
2.17262e+07
2.14077e+07
2.10867e+07
2.07623e+07
2.04337e+07
2.00988e+07
1.97573e+07
1.9403e+07
1.90386e+07
1.86499e+07
1.8241e+07
1.77955e+07
1.72974e+07
1.12237e+08
1.10949e+08
1.09783e+08
1.0872e+08
1.07742e+08
1.06833e+08
1.05976e+08
1.05159e+08
1.04373e+08
1.03613e+08
1.02874e+08
1.02153e+08
1.01447e+08
1.00755e+08
1.00074e+08
9.94027e+07
9.87406e+07
9.80866e+07
9.74399e+07
9.67997e+07
9.61656e+07
9.5537e+07
9.49135e+07
9.42948e+07
9.36806e+07
9.30705e+07
9.24644e+07
9.1862e+07
9.12631e+07
9.06676e+07
9.00752e+07
8.9486e+07
8.88997e+07
8.83162e+07
8.77355e+07
8.71574e+07
8.6582e+07
8.6009e+07
8.54385e+07
8.48704e+07
8.43046e+07
8.37411e+07
8.31799e+07
8.26209e+07
8.20641e+07
8.15094e+07
8.09569e+07
8.04065e+07
7.98581e+07
7.93119e+07
7.87676e+07
7.82254e+07
7.76852e+07
7.7147e+07
7.66108e+07
7.60765e+07
7.55442e+07
7.50138e+07
7.44854e+07
7.3959e+07
7.34344e+07
7.29118e+07
7.23911e+07
7.18723e+07
7.13554e+07
7.08404e+07
7.03273e+07
6.98161e+07
6.93068e+07
6.87994e+07
6.82939e+07
6.77903e+07
6.72885e+07
6.67887e+07
6.62907e+07
6.57946e+07
6.53003e+07
6.4808e+07
6.43175e+07
6.38289e+07
6.33421e+07
6.28573e+07
6.23743e+07
6.18931e+07
6.14139e+07
6.09365e+07
6.0461e+07
5.99873e+07
5.95155e+07
5.90456e+07
5.85775e+07
5.81114e+07
5.7647e+07
5.71846e+07
5.6724e+07
5.62652e+07
5.58084e+07
5.53533e+07
5.49002e+07
5.44489e+07
5.39995e+07
5.35519e+07
5.31062e+07
5.26624e+07
5.22204e+07
5.17803e+07
5.13421e+07
5.09057e+07
5.04711e+07
5.00385e+07
4.96077e+07
4.91787e+07
4.87516e+07
4.83264e+07
4.7903e+07
4.74815e+07
4.70619e+07
4.66441e+07
4.62281e+07
4.5814e+07
4.54018e+07
4.49914e+07
4.45829e+07
4.41763e+07
4.37715e+07
4.33685e+07
4.29674e+07
4.25682e+07
4.21708e+07
4.17752e+07
4.13815e+07
4.09897e+07
4.05997e+07
4.02115e+07
3.98252e+07
3.94407e+07
3.9058e+07
3.86772e+07
3.82982e+07
3.79211e+07
3.75458e+07
3.71723e+07
3.68006e+07
3.64307e+07
3.60627e+07
3.56965e+07
3.5332e+07
3.49694e+07
3.46085e+07
3.42494e+07
3.38922e+07
3.35366e+07
3.31829e+07
3.28308e+07
3.24806e+07
3.2132e+07
3.17852e+07
3.14401e+07
3.10966e+07
3.07548e+07
3.04147e+07
3.00762e+07
2.97393e+07
2.9404e+07
2.90703e+07
2.87381e+07
2.84074e+07
2.80781e+07
2.77503e+07
2.74239e+07
2.70987e+07
2.67749e+07
2.64523e+07
2.61308e+07
2.58105e+07
2.54911e+07
2.51726e+07
2.48549e+07
2.4538e+07
2.42216e+07
2.39056e+07
2.35898e+07
2.32741e+07
2.29582e+07
2.26418e+07
2.23246e+07
2.20063e+07
2.16863e+07
2.13641e+07
2.10391e+07
2.07103e+07
2.03769e+07
2.00367e+07
1.96896e+07
1.93294e+07
1.89583e+07
1.85651e+07
1.81508e+07
1.77046e+07
1.72125e+07
1.12424e+08
1.11153e+08
1.09989e+08
1.08919e+08
1.07929e+08
1.07004e+08
1.06132e+08
1.053e+08
1.04501e+08
1.03729e+08
1.0298e+08
1.02249e+08
1.01534e+08
1.00834e+08
1.00145e+08
9.94676e+07
9.87996e+07
9.81401e+07
9.74884e+07
9.68438e+07
9.62056e+07
9.55733e+07
9.49465e+07
9.43247e+07
9.37077e+07
9.30952e+07
9.24868e+07
9.18823e+07
9.12815e+07
9.06843e+07
9.00904e+07
8.94997e+07
8.89122e+07
8.83275e+07
8.77458e+07
8.71668e+07
8.65904e+07
8.60167e+07
8.54455e+07
8.48767e+07
8.43103e+07
8.37463e+07
8.31846e+07
8.26252e+07
8.2068e+07
8.1513e+07
8.09601e+07
8.04094e+07
7.98608e+07
7.93143e+07