/*--------------------------------*- C++ -*----------------------------------*\
| =========                 |                                                 |
| \\      /  F ield         | OpenFOAM: The Open Source CFD Toolbox           |
|  \\    /   O peration     | Version:  2.4.0                                 |
|   \\  /    A nd           | Web:      www.OpenFOAM.org                      |
|    \\/     M anipulation  |                                                 |
\*---------------------------------------------------------------------------*/
FoamFile
{
    version     2.0;
    format      ascii;
    class       volScalarField;
    location    "0.099";
    object      pMean;
}
// * * * * * * * * * * * * * * * * * * * * * * * * * * * * * * * * * * * * * //

dimensions      [0 2 -2 0 0 0 0];

internalField   nonuniform List<scalar> 
17600
(
122.381
106.02
101.011
99.3976
97.9658
96.518
95.1299
93.7991
92.5045
91.2136
89.9366
88.6601
87.4115
86.1633
84.9447
83.6937
82.4535
81.1012
79.532
77.0158
120.49
106.069
101.051
99.4069
97.969
96.5185
95.1301
93.7993
92.5047
91.2136
89.9366
88.6603
87.4116
86.164
84.9448
83.6956
82.4545
81.1065
79.5431
77.4277
119.09
106.321
101.193
99.4442
97.9827
96.5228
95.1321
93.8008
92.5057
91.2141
89.9368
88.66
87.4118
86.1633
84.9455
83.6939
82.4579
81.1051
79.6113
77.6488
118.121
106.656
101.408
99.5074
98.0115
96.538
95.1406
93.8065
92.5095
91.2164
89.9377
88.6613
87.4118
86.1664
84.9456
83.7021
82.4581
81.1285
79.6654
77.8901
117.305
106.983
101.665
99.5865
98.0529
96.5669
95.1598
93.8202
92.519
91.2226
89.9413
88.6623
87.4137
86.1658
84.9493
83.6998
82.4713
81.1379
79.753
78.1335
116.537
107.269
101.935
99.6658
98.0938
96.6036
95.1888
93.8425
92.5352
91.2341
89.9475
88.6682
87.4156
86.1728
84.9509
83.7113
82.4768
81.1625
79.8425
78.3883
115.815
107.509
102.204
99.7398
98.1251
96.6378
95.2218
93.8702
92.5566
91.2496
89.9577
88.6742
87.4211
86.1769
84.9566
83.719
82.4845
81.1968
79.9127
78.666
115.148
107.708
102.465
99.8108
98.1461
96.6646
95.2543
93.9002
92.5799
91.267
89.9686
88.6827
87.4268
86.1844
84.9651
83.7291
82.5038
81.2257
79.9979
78.9803
114.542
107.87
102.711
99.8838
98.159
96.6833
95.2836
93.93
92.6037
91.2847
89.9795
88.6914
87.4318
86.1929
84.9694
83.7448
82.5121
81.2706
80.0653
79.2888
113.999
107.994
102.938
99.961
98.1658
96.6943
95.3091
93.9586
92.6269
91.301
89.9899
88.6985
87.4385
86.1998
84.98
83.757
82.5331
81.3146
80.1538
79.6082
113.516
108.085
103.147
100.043
98.1676
96.6986
95.3305
93.9857
92.6491
91.3167
89.9989
88.7057
87.4426
86.2077
84.9863
83.7723
82.5553
81.3614
80.2658
79.8798
113.091
108.146
103.336
100.128
98.1658
96.6973
95.3481
94.0109
92.6706
91.3311
90.0071
88.7114
87.4484
86.2147
84.9963
83.7876
82.5791
81.415
80.379
80.1183
112.722
108.182
103.506
100.216
98.1615
96.6914
95.3624
94.0342
92.6907
91.3442
90.0142
88.7166
87.4529
86.2218
85.0064
83.8039
82.6092
81.4696
80.4946
80.3351
112.406
108.201
103.656
100.302
98.1567
96.6826
95.3737
94.055
92.7095
91.3561
90.0205
88.7213
87.4582
86.2291
85.0172
83.8216
82.6406
81.5262
80.6096
80.5325
112.139
108.21
103.784
100.379
98.1531
96.6725
95.3826
94.0735
92.7263
91.3665
90.026
88.7251
87.4632
86.2366
85.0293
83.841
82.6737
81.584
80.7215
80.714
111.92
108.213
103.89
100.445
98.1511
96.6625
95.3894
94.0891
92.741
91.3756
90.0308
88.729
87.4684
86.2442
85.0419
83.861
82.7085
81.6434
80.8291
80.8823
111.747
108.212
103.974
100.499
98.1508
96.6532
95.3944
94.102
92.7531
91.3831
90.0351
88.7324
87.4737
86.2525
85.0551
83.8824
82.7442
81.7029
80.932
81.0394
111.618
108.21
104.036
100.541
98.1516
96.6455
95.3977
94.1119
92.7625
91.3892
90.0386
88.7358
87.479
86.2609
85.069
83.9047
82.7811
81.7621
81.0302
81.1859
111.533
108.208
104.076
100.569
98.1528
96.6399
95.3998
94.1188
92.7692
91.3937
90.0419
88.739
87.4849
86.2692
85.0839
83.927
82.819
81.8208
81.1233
81.3217
111.491
108.207
104.096
100.583
98.1537
96.637
95.4008
94.1225
92.7729
91.3966
90.0443
88.7424
87.4902
86.2783
85.0979
83.9515
82.8554
81.8807
81.2107
81.4423
111.492
108.206
104.096
100.583
98.1538
96.6372
95.4008
94.1233
92.7735
91.3982
90.0462
88.7459
87.4959
86.2877
85.1133
83.9752
82.8937
81.9362
81.3034
81.5382
111.534
108.207
104.076
100.569
98.1532
96.6403
95.4
94.1206
92.7713
91.3977
90.048
88.7487
87.5021
86.2961
85.1295
83.9985
82.9332
81.9889
81.3936
81.6446
111.62
108.208
104.036
100.541
98.1523
96.6463
95.3981
94.1151
92.766
91.3962
90.0487
88.7526
87.5072
86.3066
85.1439
84.0251
82.9681
82.0472
81.4527
81.7385
111.749
108.209
103.974
100.5
98.1519
96.6542
95.3952
94.1062
92.7581
91.3926
90.0494
88.7555
87.5132
86.316
85.1598
84.0504
83.0049
82.101
81.5131
81.8452
111.923
108.209
103.891
100.446
98.1526
96.6636
95.3906
94.0944
92.7475
91.3877
90.0493
88.7586
87.519
86.3257
85.1759
84.0757
83.0428
82.1515
81.5774
81.9241
112.143
108.205
103.785
100.38
98.155
96.6737
95.3844
94.0796
92.7344
91.3812
90.0485
88.7616
87.5243
86.3359
85.1915
84.102
83.0796
82.2031
81.6354
81.988
112.41
108.196
103.656
100.303
98.1592
96.6836
95.3763
94.0618
92.7193
91.373
90.0472
88.7638
87.5298
86.3458
85.2076
84.1282
83.1172
82.2548
81.6878
82.0392
112.727
108.177
103.506
100.218
98.1645
96.6926
95.3657
94.0416
92.7023
91.3634
90.0452
88.7656
87.5352
86.3556
85.2238
84.1544
83.1556
82.3068
81.7368
82.0758
113.097
108.14
103.336
100.13
98.1695
96.6986
95.3522
94.0188
92.6839
91.3524
90.0424
88.7665
87.5406
86.3649
85.2403
84.1801
83.1952
82.3593
81.7855
82.0943
113.522
108.079
103.147
100.044
98.1719
96.7003
95.3353
93.994
92.6644
91.3401
90.0385
88.7664
87.5458
86.3735
85.257
84.2053
83.2358
82.4127
81.8373
82.0911
114.005
107.988
102.938
99.9622
98.1703
96.6966
95.3146
93.9675
92.6438
91.3267
90.0334
88.7655
87.5505
86.3813
85.2735
84.2294
83.2775
82.4666
81.8964
82.0636
114.549
107.864
102.71
99.8852
98.1636
96.6863
95.29
93.9394
92.6222
91.3122
90.0271
88.7636
87.5547
86.3881
85.2898
84.2516
83.3201
82.5188
81.9659
82.0125
115.155
107.703
102.464
99.8124
98.1506
96.6682
95.2614
93.9103
92.5999
91.2969
90.0198
88.761
87.558
86.3941
85.3048
84.272
83.3609
82.5682
82.0382
81.9577
115.822
107.504
102.203
99.7417
98.1295
96.6419
95.2298
93.8811
92.5779
91.2816
90.0121
88.7582
87.5605
86.3993
85.3176
84.2905
83.3964
82.6131
82.1017
81.9064
116.544
107.263
101.934
99.6678
98.0983
96.608
95.1976
93.8538
92.5578
91.2678
90.0053
88.7559
87.5627
86.4041
85.3284
84.3064
83.4257
82.6504
82.1526
81.8774
117.312
106.978
101.665
99.5885
98.0574
96.5715
95.1694
93.832
92.5425
91.2579
90.001
88.7549
87.5651
86.4085
85.3371
84.3194
83.4475
82.6795
82.1852
81.8565
118.128
106.651
101.407
99.5093
98.016
96.5429
95.1506
93.8187
92.5337
91.2527
89.9993
88.7553
87.5674
86.4121
85.3434
84.3287
83.4619
82.6998
82.2017
81.8495
119.096
106.316
101.192
99.446
97.9872
96.5278
95.1424
93.8132
92.5302
91.2509
89.9991
88.7562
87.5691
86.4145
85.3471
84.3343
83.4699
82.7116
82.2094
81.854
120.497
106.064
101.051
99.4086
97.9735
96.5235
95.1404
93.8118
92.5293
91.2507
89.9993
88.7568
87.5699
86.4156
85.3486
84.3366
83.4728
82.7162
82.2113
81.8713
122.388
106.016
101.01
99.3993
97.9703
96.5231
95.1402
93.8116
92.5292
91.2507
89.9993
88.7569
87.5699
86.4156
85.3488
84.3369
83.4732
82.7166
82.2105
81.9162
74.9602
74.9112
74.5183
73.9651
73.3227
72.5815
71.6987
70.6599
69.667
68.7488
67.9575
67.2586
66.646
65.9518
65.1485
64.1809
63.1185
62.2453
61.5445
61.0415
60.8456
60.9198
61.2555
61.8401
62.6562
63.7013
64.9418
66.3082
67.7284
69.1529
70.5405
71.8436
73.0416
74.1308
75.094
75.9168
76.6406
77.2954
77.8941
78.4242
78.8567
79.1738
79.3802
79.5086
79.5944
79.6809
79.8269
80.0206
80.1785
80.3079
80.4642
80.652
80.8397
81.0099
81.2003
81.4446
81.7516
82.1001
82.474
82.8893
83.3204
83.7275
84.1022
84.4459
84.7551
85.0217
85.2358
85.3992
85.5192
85.6024
85.6546
85.682
85.688
85.67
85.6344
85.5903
85.5375
85.4798
85.4095
85.3341
85.2639
85.201
85.1582
85.1293
85.1282
85.1603
85.2194
85.3092
85.4267
85.5695
85.7327
85.9077
86.1003
86.3005
86.5064
86.7063
86.8996
87.08
87.2428
87.3792
87.4964
87.5951
87.6769
87.7351
87.7799
87.8245
87.8755
87.9272
87.9813
88.0397
88.1047
88.1745
88.2509
88.3329
88.4238
88.5222
88.6339
88.7583
88.9024
89.0674
89.2671
89.5031
89.7727
90.0783
90.4164
90.7671
91.1242
91.4837
91.8276
92.1377
92.4118
92.6464
92.8311
92.9635
93.0506
93.1024
93.126
93.1285
93.1162
93.0984
93.0809
93.0681
93.0609
93.0624
93.0703
93.0849
93.0993
93.1111
93.1138
93.1053
93.0809
93.0404
92.9831
92.9124
92.8315
92.7437
92.651
92.5541
92.4538
92.3497
92.2425
92.131
92.0164
91.8969
91.7738
91.645
91.5118
91.3719
91.2267
91.0732
90.9135
90.7439
90.5669
90.3779
90.1798
89.9685
89.7451
89.5079
89.2554
88.9877
88.7015
88.3984
88.0732
87.7265
87.354
86.9507
86.5134
86.0323
85.5002
84.8974
84.208
83.4049
82.4312
81.233
79.6362
77.5922
74.5044
69.6224
63.5615
36.7631
75.6384
75.2748
74.9029
74.4238
73.8423
73.1594
72.3614
71.4217
70.5005
69.6628
68.9238
68.2489
67.6238
66.9386
66.1696
65.2433
64.213
63.3517
62.6605
62.1516
61.9371
61.9924
62.3142
62.8866
63.6802
64.6842
65.8685
67.1732
68.5357
69.9061
71.2492
72.5199
73.6894
74.7516
75.6876
76.4763
77.1654
77.786
78.3388
78.8202
79.2122
79.4893
79.6533
79.7356
79.766
79.7816
79.8622
80.0169
80.1576
80.267
80.3938
80.5527
80.7147
80.865
81.0336
81.2495
81.5194
81.8277
82.1641
82.5439
82.9411
83.32
83.6722
83.997
84.2911
84.5493
84.7625
84.9315
85.0625
85.1595
85.2275
85.272
85.2978
85.3022
85.288
85.2644
85.2324
85.1982
85.1548
85.1079
85.07
85.0411
85.0338
85.0433
85.0775
85.143
85.2317
85.3433
85.4768
85.6316
85.7982
85.971
86.1588
86.3499
86.5424
86.7265
86.9054
87.0714
87.2197
87.3411
87.4476
87.5364
87.6103
87.6596
87.6999
87.7396
87.7872
87.8338
87.8865
87.9431
88.0071
88.0743
88.1482
88.2254
88.3132
88.4086
88.5206
88.6453
88.7934
88.9625
89.1697
89.4139
89.6957
90.0127
90.3644
90.7288
91.103
91.4796
91.8432
92.1728
92.4688
92.7243
92.9307
93.0798
93.1821
93.2445
93.2769
93.2823
93.2713
93.2502
93.2281
93.2072
93.191
93.1791
93.1742
93.1722
93.1716
93.1666
93.1555
93.1325
93.0966
93.045
92.98
92.9022
92.8166
92.7239
92.6276
92.5266
92.4227
92.3148
92.2037
92.0886
91.9694
91.8462
91.7179
91.585
91.4458
91.3014
91.1491
90.9904
90.8226
90.6465
90.46
90.263
90.054
89.8322
89.5963
89.3452
89.0782
88.7927
88.4888
88.1638
87.8165
87.4429
87.041
86.6047
86.1284
85.602
85.0141
84.3476
83.5748
82.6724
81.5614
80.2128
78.3656
75.9481
72.6326
66.1592
59.919
29.691
76.2843
75.7992
75.3165
74.8222
74.2707
73.6274
72.8903
72.0447
71.1921
70.4145
69.7206
69.0795
68.4541
67.7747
67.0373
66.1662
65.1885
64.3613
63.7073
63.2146
62.9984
63.05
63.3644
63.9284
64.7016
65.6662
66.7947
68.0388
69.3432
70.659
71.9516
73.1789
74.3133
75.3469
76.2589
77.0216
77.6803
78.2743
78.7928
79.2256
79.5696
79.8039
79.9272
79.9668
79.9476
79.8979
79.9107
80.0241
80.1489
80.2446
80.3495
80.4833
80.6231
80.7582
80.9096
81.0981
81.3315
81.5993
81.8979
82.2402
82.6019
82.952
83.2828
83.5893
83.868
84.1173
84.33
84.5047
84.6468
84.7587
84.8431
84.9053
84.9509
84.9779
84.987
84.9858
84.9757
84.9647
84.9486
84.9313
84.9262
84.9319
84.9601
85.0085
85.0797
85.1788
85.297
85.4304
85.579
85.7433
85.9115
86.0813
86.2638
86.4448
86.6238
86.7909
86.9545
87.1042
87.2366
87.342
87.437
87.5142
87.579
87.6187
87.6551
87.6896
87.7336
87.7745
87.8267
87.8803
87.9436
88.0072
88.0797
88.1512
88.2358
88.3261
88.4372
88.5591
88.7098
88.8803
89.094
89.3432
89.6361
89.9617
90.3254
90.7006
91.09
91.4803
91.8616
92.2072
92.5225
92.7955
93.0212
93.1858
93.3025
93.3754
93.4169
93.4262
93.4164
93.3927
93.3662
93.3372
93.3122
93.2887
93.2706
93.2542
93.2385
93.2192
93.1939
93.1581
93.1102
93.0492
92.9758
92.8924
92.8011
92.7049
92.6039
92.5
92.3916
92.2809
92.1652
92.0469
91.9231
91.7961
91.6628
91.5254
91.381
91.2309
91.0732
90.9074
90.7336
90.5489
90.3553
90.148
89.93
89.6961
89.4485
89.1835
88.9008
88.5992
88.2749
87.9306
87.5578
87.159
86.7266
86.2567
85.7421
85.1698
84.5255
83.7957
82.9409
81.9507
80.6918
79.1653
77.1416
74.2016
71.0443
62.7212
56.4576
28.0512
76.7915
76.3096
75.7806
75.2043
74.6277
74.0172
73.3469
72.601
71.8256
71.1032
70.4453
69.8259
69.202
68.5266
67.8192
67.0123
66.0918
65.3111
64.7125
64.2655
64.0634
64.1173
64.4189
64.9704
65.7253
66.6529
67.7259
68.9072
70.1485
71.4031
72.637
73.8136
74.908
75.9109
76.8024
77.5501
78.1859
78.7548
79.2441
79.6346
79.9276
80.1172
80.2016
80.2032
80.1406
80.0346
79.9825
80.0488
80.1548
80.2402
80.3317
80.4459
80.5677
80.6912
80.8277
80.9881
81.1857
81.4155
81.6768
81.9813
82.3077
82.6291
82.9389
83.2276
83.49
83.7304
83.9425
84.123
84.2764
84.4041
84.507
84.5878
84.6536
84.7032
84.7362
84.7584
84.7714
84.7834
84.7942
84.8068
84.8344
84.8749
84.938
85.0255
85.1346
85.2661
85.4131
85.568
85.7309
85.9026
86.0711
86.2371
86.4138
86.5833
86.7485
86.8983
87.0463
87.1782
87.2946
87.383
87.4652
87.5289
87.5835
87.6128
87.6454
87.6739
87.7145
87.7499
87.8022
87.8518
87.9147
87.9734
88.0454
88.1106
88.1929
88.2761
88.386
88.5023
88.6541
88.8225
89.0412
89.2914
89.5942
89.9246
90.2998
90.6824
91.0868
91.4865
91.8841
92.2414
92.5749
92.861
93.1046
93.2809
93.4125
93.4937
93.5454
93.5579
93.5517
93.5245
93.4952
93.4579
93.4252
93.3903
93.3609
93.3299
93.3015
93.2674
93.23
93.1807
93.1229
93.0515
92.972
92.8813
92.7867
92.685
92.5815
92.4726
92.362
92.2462
92.1281
92.0047
91.8781
91.7457
91.6091
91.4659
91.3174
91.1611
90.998
90.8257
90.6449
90.4533
90.2504
90.0356
89.8056
89.5627
89.3006
89.0237
88.7241
88.4062
88.0627
87.6959
87.3008
86.8732
86.4123
85.9072
85.352
84.7377
84.0296
83.2424
82.3009
81.2105
79.8564
78.0723
76.0937
72.3284
69.7039
59.5501
53.157
29.0417
77.2037
76.7685
76.2237
75.5673
74.9407
74.3574
73.7601
73.1185
72.4329
71.7686
71.1399
70.5298
69.9185
69.2583
68.5777
67.837
66.9891
66.2618
65.7226
65.3345
65.1607
65.2163
65.4939
66.0208
66.752
67.6397
68.6562
69.7709
70.9426
72.1301
73.3011
74.4239
75.4748
76.4434
77.3164
78.0589
78.682
79.2232
79.6811
80.0349
80.2832
80.4301
80.4772
80.4438
80.3455
80.1938
80.0819
80.0975
80.1783
80.2559
80.3409
80.4438
80.5544
80.6676
80.7879
80.9202
81.0824
81.2768
81.5027
81.7707
82.064
82.3579
82.6465
82.916
83.1621
83.3932
83.6044
83.7903
83.9552
84.1001
84.2233
84.3249
84.4115
84.4835
84.5404
84.5862
84.623
84.6583
84.6949
84.7367
84.7965
84.8712
84.9686
85.0938
85.2395
85.4026
85.5774
85.753
85.9293
86.1066
86.2745
86.4362
86.606
86.7622
86.9134
87.0459
87.1784
87.292
87.3921
87.4631
87.5321
87.5801
87.6236
87.6421
87.671
87.6921
87.7298
87.7597
87.813
87.8577
87.9206
87.9727
88.0446
88.103
88.1843
88.2592
88.3682
88.4761
88.6281
88.7905
89.0127
89.259
89.5702
89.9007
90.2873
90.6732
91.0936
91.498
91.9121
92.2754
92.6274
92.9204
93.1827
93.3643
93.5127
93.5971
93.6626
93.6742
93.6764
93.6429
93.6152
93.5665
93.5309
93.4808
93.4456
93.3972
93.3607
93.3094
93.2636
93.1992
93.1344
93.0518
92.9677
92.8696
92.7721
92.665
92.5591
92.4456
92.3321
92.2124
92.0907
91.9637
91.8328
91.6967
91.5551
91.408
91.2537
91.0929
90.9231
90.7455
90.557
90.3587
90.1471
89.9235
89.6837
89.4291
89.1556
88.8635
88.5495
88.213
87.8514
87.463
87.0426
86.5913
86.0949
85.5618
84.9603
84.3032
83.5414
82.6867
81.6927
80.4228
79.0907
76.8487
75.2288
70.317
68.5008
56.8521
49.8215
30.1457
77.643
77.2281
76.607
75.8776
75.2081
74.6503
74.131
73.5972
73.0123
72.4099
71.8139
71.2188
70.6318
70.0002
69.3482
68.6713
67.9119
67.2437
66.7589
66.4244
66.2813
66.3429
66.5987
67.0886
67.7785
68.6165
69.5729
70.6197
71.7208
72.8401
73.9481
75.0161
76.0224
76.9551
77.8039
78.5412
79.1562
79.6693
80.0942
80.4174
80.6305
80.7419
80.7554
80.6895
80.564
80.3781
80.2124
80.1759
80.2283
80.2985
80.3828
80.4824
80.5864
80.6901
80.7903
80.894
81.0226
81.1854
81.3788
81.6127
81.875
82.1431
82.4095
82.6594
82.889
83.11
83.3196
83.5105
83.6873
83.8497
83.9952
84.1197
84.2284
84.3239
84.4037
84.4724
84.5334
84.5916
84.6534
84.7231
84.8136
84.9212
85.0519
85.2127
85.3927
85.5853
85.786
85.9815
86.1704
86.3519
86.5184
86.6753
86.8372
86.9782
87.1155
87.2302
87.3484
87.4429
87.5273
87.5803
87.6362
87.6675
87.6998
87.7071
87.7318
87.7445
87.7794
87.8038
87.8583
87.8978
87.9612
88.0052
88.0767
88.1275
88.2084
88.2747
88.3833
88.4812
88.6327
88.7853
89.0092
89.247
89.5641
89.8902
90.2871
90.6732
91.1095
91.5148
91.9445
92.309
92.6791
92.9738
93.2546
93.4366
93.6023
93.685
93.7666
93.7739
93.7886
93.7459
93.7251
93.6613
93.6282
93.5599
93.5238
93.4556
93.4156
93.3444
93.2951
93.2126
93.1457
93.0485
92.9646
92.8554
92.7592
92.6433
92.5384
92.4172
92.3043
92.1773
92.0556
91.9214
91.7898
91.6467
91.5036
91.3492
91.1926
91.0241
90.8511
90.6651
90.472
90.2644
90.0465
89.8123
89.5637
89.2971
89.0113
88.7055
88.3749
88.0222
87.6393
87.2294
86.7849
86.3061
85.782
85.2083
84.5771
83.8461
83.0747
82.0841
81.1364
79.5411
78.4823
75.4663
74.5104
68.2513
67.0683
54.6502
46.3162
30.4135
78.1937
77.736
76.9442
76.1182
75.4172
74.8887
74.4553
74.0321
73.5539
73.0226
72.4725
71.9077
71.349
70.755
70.1397
69.5242
68.8584
68.2549
67.817
67.5293
67.4139
67.4838
67.7252
68.1713
68.8074
69.585
70.4777
71.4569
72.4878
73.5381
74.582
75.5932
76.5549
77.4519
78.2707
78.9898
79.5917
80.0801
80.4763
80.7758
80.963
81.0466
81.0333
80.9389
80.7961
80.5868
80.3754
80.2902
80.314
80.375
80.461
80.562
80.6611
80.7519
80.8308
80.9086
81.0087
81.1428
81.3063
81.509
81.7425
81.986
82.2309
82.4609
82.6735
82.8845
83.0916
83.2869
83.4748
83.6556
83.824
83.9737
84.1071
84.2269
84.329
84.4203
84.5042
84.5851
84.6711
84.7678
84.887
85.0255
85.1876
85.3805
85.5919
85.8115
86.0358
86.2494
86.4502
86.6339
86.7991
86.9503
87.1036
87.2274
87.3507
87.4475
87.5515
87.6264
87.6963
87.7321
87.7754
87.7898
87.8114
87.8074
87.8276
87.8312
87.8634
87.8824
87.9376
87.9715
88.0355
88.0711
88.1413
88.1837
88.2641
88.3212
88.4298
88.5169
88.6673
88.8075
89.0312
89.2565
89.5766
89.8938
90.2994
90.6819
91.1339
91.5359
91.9804
92.3409
92.7292
93.0203
93.3201
93.4966
93.6811
93.7559
93.8565
93.854
93.887
93.8295
93.8231
93.7385
93.7161
93.6228
93.5952
93.499
93.4666
93.3662
93.3251
93.2145
93.158
93.0357
92.9644
92.8329
92.7503
92.6139
92.5224
92.3821
92.2813
92.1364
92.0249
91.8742
91.7508
91.5926
91.4557
91.2873
91.1348
90.9531
90.7819
90.5832
90.3898
90.1692
89.9488
89.7003
89.4471
89.1636
88.8717
88.5444
88.2064
87.8252
87.4342
86.9863
86.537
86.0065
85.4853
84.8339
84.2195
83.346
82.666
81.3728
80.6612
78.4601
77.9437
73.9178
73.7188
66.2715
65.1874
52.8367
42.637
30.0593
78.8086
78.2917
77.2584
76.2842
75.5533
75.073
74.7334
74.4186
74.0456
73.5979
73.1092
72.5868
72.0596
71.5097
70.94
70.3845
69.8067
69.2721
68.8794
68.6336
68.5424
68.6192
68.8501
69.2561
69.8363
70.5504
71.3742
72.2816
73.2405
74.2221
75.2026
76.1579
77.0717
77.9282
78.7098
79.4006
79.9816
80.4495
80.8215
81.1033
81.274
81.3371
81.3026
81.1888
81.0381
80.8166
80.5681
80.4418
80.4378
80.4862
80.5727
80.6759
80.7694
80.8459
80.9049
80.9616
81.0396
81.1483
81.2842
81.4592
81.666
81.8864
82.1116
82.322
82.5189
82.7192
82.9229
83.122
83.3206
83.5196
83.7113
83.8871
84.0471
84.192
84.317
84.4312
84.5375
84.64
84.7491
84.8715
85.0172
85.1842
85.3753
85.5962
85.8348
86.0783
86.3233
86.5527
86.7638
86.9485
87.1124
87.2567
87.4002
87.5063
87.6149
87.6941
87.7837
87.839
87.8945
87.9145
87.9458
87.9446
87.956
87.9415
87.9572
87.9515
87.9815
87.9949
88.0506
88.0783
88.1425
88.1698
88.2382
88.2709
88.3506
88.3976
88.5061
88.5815
88.7305
88.8567
89.0786
89.2886
89.6093
89.9139
90.3251
90.6999
91.1654
91.5608
92.0183
92.3706
92.7753
93.0588
93.3768
93.5436
93.7466
93.8088
93.9289
93.9122
93.9664
93.8904
93.9032
93.7939
93.7888
93.665
93.6545
93.523
93.5086
93.3703
93.3492
93.2003
93.1671
93.008
92.9634
92.7961
92.7423
92.571
92.5085
92.3341
92.2614
92.0835
91.9989
91.8159
91.7179
91.5281
91.4144
91.2154
91.084
90.8725
90.7203
90.492
90.3157
90.0648
89.86
89.5789
89.3405
89.0198
88.7429
88.3709
88.0497
87.6115
87.2426
86.7179
86.3076
85.6619
85.2169
84.38
83.9096
82.7308
82.3377
80.5045
80.2516
77.2388
77.3426
72.3053
72.6842
64.4668
62.3895
51.2312
39.4847
29.7242
79.5316
78.9215
77.5596
76.4086
75.6495
75.2228
74.9729
74.7578
74.4873
74.1329
73.715
73.2434
72.7524
72.249
71.7284
71.2293
70.7314
70.2673
69.921
69.714
69.6447
69.7258
69.9478
70.3202
70.85
71.5053
72.2591
73.09
73.9758
74.891
75.8113
76.7116
77.572
78.379
79.1168
79.7706
80.3246
80.7739
81.1272
81.3926
81.5549
81.6062
81.5555
81.4287
81.2765
81.0545
80.7804
80.6237
80.5949
80.6278
80.7117
80.8146
80.904
80.9701
81.0134
81.0542
81.1136
81.1991
81.3111
81.4621
81.6438
81.8425
82.0499
82.2435
82.426
82.6161
82.8161
83.0179
83.227
83.4431
83.6572
83.8594
84.0471
84.218
84.3668
84.5043
84.6331
84.7569
84.8877
85.0338
85.2039
85.3968
85.6134
85.8581
86.1188
86.3825
86.6454
86.8876
87.1069
87.2912
87.454
87.5889
87.7218
87.8104
87.9039
87.9669
88.041
88.0774
88.1181
88.1234
88.1425
88.1268
88.1306
88.1061
88.1181
88.1031
88.1319
88.1395
88.1958
88.2167
88.2805
88.2993
88.3662
88.388
88.4663
88.5027
88.6098
88.6732
88.8203
88.9317
89.15
89.3433
89.6621
89.9516
90.3656
90.729
91.2033
91.5887
92.0563
92.3979
92.8161
93.089
93.4229
93.5772
93.7967
93.8435
93.9817
93.9481
94.0232
93.927
93.9604
93.825
93.8401
93.6838
93.6939
93.5246
93.5326
93.3529
93.3582
93.1654
93.1648
92.96
92.9539
92.7389
92.7282
92.5066
92.4906
92.2635
92.2403
92.0069
91.9742
91.7337
91.6885
91.4401
91.3791
91.1203
91.0412
90.7688
90.6686
90.3773
90.2534
89.9362
89.7847
89.4316
89.2489
88.847
88.6311
88.1629
87.9127
87.3541
87.0772
86.3917
86.1131
85.2401
84.9869
83.822
83.622
81.9834
81.9506
79.4744
79.665
75.8907
76.5343
70.7568
71.068
63.0067
58.4701
49.6222
37.8076
30.1491
80.1283
79.4639
77.8803
76.5859
75.7738
75.3671
75.1852
75.0613
74.8908
74.6295
74.2839
73.8682
73.4186
72.9597
72.4879
72.0402
71.6109
71.2132
70.9155
70.7439
70.6968
70.7842
70.9997
71.3456
71.8314
72.4343
73.1232
73.8802
74.6931
75.5418
76.4017
77.2465
78.0522
78.806
79.494
80.1033
80.6233
81.0498
81.3889
81.6398
81.7971
81.8455
81.7842
81.6495
81.4972
81.2859
81.0003
80.8244
80.7778
80.7955
80.8724
80.9745
81.062
81.1223
81.1569
81.1856
81.2263
81.2921
81.3861
81.5162
81.6742
81.8532
82.0453
82.2251
82.3957
82.5765
82.7728
82.9764
83.1946
83.4266
83.6619
83.89
84.1052
84.3025
84.4762
84.6374
84.7889
84.9336
85.0853
85.2533
85.4453
85.6614
85.9001
86.1635
86.4414
86.7214
86.9986
87.2501
87.4753
87.657
87.8178
87.9419
88.0633
88.135
88.214
88.2614
88.3189
88.3371
88.3626
88.3521
88.3604
88.33
88.3288
88.2962
88.3062
88.283
88.3115
88.3134
88.3701
88.3846
88.447
88.4572
88.5219
88.5327
88.6087
88.6337
88.7371
88.7882
88.9323
89.0292
89.2426
89.4187
89.7336
90.0063
90.4196
90.7685
91.2463
91.6183
92.0916
92.4205
92.8488
93.1097
93.4561
93.5969
93.8295
93.8599
94.0127
93.9616
94.0548
93.9385
93.9912
93.8303
93.8653
93.6774
93.708
93.5012
93.5321
93.3107
93.3438
93.1058
93.1397
92.8863
92.9227
92.6539
92.6937
92.4117
92.4543
92.159
92.2018
91.8931
91.9329
91.611
91.6447
91.3089
91.3334
90.9802
90.993
90.619
90.6156
90.2164
90.1938
89.7611
89.7151
89.2369
89.1646
88.6242
88.5259
87.901
87.78
87.0364
86.9101
85.9937
85.9002
84.7287
84.7098
83.1567
83.2483
81.1161
81.4086
78.353
78.9199
74.6238
75.3207
69.5221
68.3147
61.562
54.8839
48.2669
37.5614
31.2756
80.6064
79.9451
78.2292
76.8112
75.9265
75.5147
75.3835
75.3407
75.2603
75.0837
74.8097
74.4535
74.0501
73.6334
73.2076
72.8052
72.4325
72.0956
71.8449
71.7069
71.6827
71.7796
71.9928
72.3185
72.7661
73.3221
73.9559
74.6473
75.3907
76.1724
76.969
77.7559
78.5077
79.2066
79.8407
80.4028
80.8854
81.2845
81.6073
81.8448
81.9976
82.0488
81.984
81.8443
81.6946
81.5036
81.2218
81.0378
80.9792
80.9845
81.0531
81.1545
81.2435
81.3003
81.3302
81.3516
81.3743
81.4248
81.5072
81.6195
81.756
81.9186
82.0987
82.267
82.4275
82.6011
82.7937
82.9985
83.2246
83.4713
83.7258
83.9778
84.2196
84.4431
84.6422
84.8275
85.0013
85.1669
85.3391
85.527
85.7383
85.9747
86.232
86.5092
86.7996
87.0918
87.3794
87.6358
87.8652
88.0417
88.1984
88.3101
88.4192
88.4754
88.5395
88.5718
88.6126
88.6123
88.624
88.5973
88.5959
88.5522
88.5457
88.5076
88.5162
88.4884
88.5165
88.5136
88.5696
88.5788
88.6392
88.6412
88.7024
88.7023
88.7751
88.7881
88.8858
88.924
89.0634
89.1457
89.3528
89.5112
89.8203
90.0757
90.4849
90.8161
91.2925
91.6473
92.1222
92.436
92.8708
93.1181
93.4732
93.5998
93.8422
93.8558
94.0194
93.951
94.0582
93.9231
93.9918
93.8081
93.8594
93.644
93.6909
93.4517
93.5007
93.2433
93.2985
93.0211
93.0829
92.7867
92.8579
92.5412
92.6224
92.2862
92.3779
92.0201
92.1215
91.7404
91.8507
91.4436
91.5625
91.1254
91.2499
90.7806
90.9081
90.4038
90.5289
89.986
90.1042
89.515
89.6203
88.9713
89.0575
88.3318
88.3975
87.5698
87.6143
86.6426
86.6846
85.5077
85.5807
84.0993
84.2736
82.3491
82.688
80.154
80.6563
77.3402
77.866
73.7815
73.3481
68.4625
65.0292
59.7542
52.7246
47.8108
38.4849
32.6869
80.992
80.3587
78.5722
77.0648
76.1172
75.6863
75.5843
75.6008
75.5941
75.4953
75.2933
74.9997
74.6451
74.2681
73.8834
73.5213
73.1965
72.9129
72.7055
72.5994
72.5973
72.7043
72.9174
73.2292
73.6448
74.1594
74.7472
75.3851
76.0666
76.7827
77.5152
78.2413
78.9364
79.5792
80.1587
80.6734
81.1181
81.4896
81.7898
82.0117
82.1586
82.2155
82.1529
82.0087
81.866
81.7022
81.4437
81.2609
81.1965
81.1923
81.2541
81.3558
81.4511
81.5071
81.5314
81.5447
81.5534
81.595
81.6722
81.7706
81.8883
82.0385
82.2083
82.3671
82.5198
82.6884
82.8782
83.0845
83.3174
83.5763
83.8484
84.122
84.3877
84.637
84.862
85.0713
85.2668
85.453
85.6447
85.8506
86.0784
86.332
86.6048
86.8911
87.1901
87.4905
87.7845
88.0411
88.2727
88.44
88.59
88.6886
88.7828
88.8251
88.8752
88.8905
88.9169
88.8986
88.8991
88.8579
88.8472
88.7918
88.7791
88.7362
88.7434
88.7126
88.7416
88.7353
88.7906
88.7948
88.8532
88.8481
88.9046
88.8945
88.9627
88.9637
89.0532
89.0783
89.2102
89.2779
89.4775
89.6185
89.9186
90.1563
90.5585
90.8702
91.3391
91.6747
92.1454
92.4442
92.88
93.1141
93.4722
93.5854
93.8321
93.8308
93.9993
93.9158
94.0309
93.8799
93.9587
93.7569
93.8181
93.5817
93.6374
93.3739
93.4323
93.1485
93.2155
92.9096
92.9867
92.6601
92.751
92.4008
92.5055
92.1315
92.2517
91.8497
91.9863
91.5524
91.7061
91.2352
91.4078
90.8927
91.0848
90.5212
90.7344
90.114
90.3491
89.6632
89.9188
89.155
89.4305
88.5715
88.8611
87.8909
88.1832
87.0826
87.3656
86.1035
86.3692
84.9051
85.1493
83.4311
83.7088
81.6463
81.9739
79.453
79.6577
76.6907
76.2844
72.9642
70.7923
66.9319
62.4515
58.2394
51.8157
48.2429
40.0363
34.0806
81.305
80.709
78.9015
77.3401
76.3389
75.8749
75.7803
75.8409
75.8993
75.8734
75.7409
75.5079
75.2021
74.8642
74.5177
74.1922
73.9084
73.6702
73.5016
73.4246
73.4434
73.5597
73.7723
74.074
74.4644
74.9435
75.4916
76.085
76.7136
77.3699
78.0396
78.7027
79.3383
79.9256
80.4529
80.9211
81.3274
81.6685
81.9431
82.1463
82.2836
82.344
82.2905
82.1443
82.0089
81.8783
81.6611
81.4897
81.4302
81.4203
81.4784
81.584
81.6876
81.7455
81.7642
81.7641
81.7609
81.7989
81.8767
81.9651
82.0715
82.2134
82.3737
82.5243
82.6713
82.8363
83.0237
83.2317
83.471
83.7405
84.0284
84.321
84.6081
84.8815
85.1324
85.3655
85.5821
85.7877
85.9973
86.2188
86.4602
86.7275
87.012
87.305
87.6091
87.9134
88.2103
88.4618
88.6943
88.8473
88.9867
89.0712
89.1476
89.1767
89.214
89.2111
89.2257
89.1917
89.1853
89.1305
89.1118
89.0452
89.0273
88.978
88.9843
88.9508
88.9821
88.9738
89.0293
89.0285
89.0853
89.0734
89.125
89.1057
89.1686
89.1573
89.2379
89.2489
89.3715
89.4238
89.6147
89.7376
90.0261
90.2446
90.636
90.9272
91.3849
91.6989
92.1603
92.4435
92.8758
93.0963
93.4528
93.5528
93.7993
93.7845
93.9529
93.8556
93.9733
93.8086
93.8915
93.6761
93.7405
93.4888
93.5461
93.2652
93.325
93.023
93.092
92.767
92.8479
92.5018
92.5984
92.2277
92.3396
91.9434
92.0724
91.6455
91.7931
91.3307
91.4978
90.9938
91.1824
90.6279
90.8404
90.2288
90.4673
89.786
90.0539
89.2913
89.5889
88.729
89.0564
88.0866
88.4411
87.3457
87.7234
86.473
86.8586
85.44
85.8042
84.1945
84.5045
82.7033
82.9425
80.9277
81.0149
78.7224
78.3438
75.8046
74.3979
71.5327
68.6077
65.2643
60.8907
57.7648
51.9932
49.2314
41.6729
35.3157
81.5682
81.0121
79.2092
77.6137
76.5709
76.0756
75.9826
76.0777
76.1906
76.2276
76.157
75.9809
75.7234
75.4249
75.1145
74.8227
74.574
74.374
74.2398
74.1886
74.2266
74.3515
74.5635
74.8567
75.2266
75.6747
76.1865
76.7402
77.3224
77.9259
78.536
79.1362
79.7126
80.246
80.724
81.1483
81.5167
81.8241
82.071
82.254
82.3778
82.4352
82.3952
82.256
82.1281
82.031
81.8635
81.7199
81.6756
81.6672
81.7253
81.8402
81.9532
82.0121
82.0274
82.0123
81.9972
82.036
82.1168
82.1998
82.3023
82.4409
82.5933
82.7374
82.8804
83.0421
83.2266
83.4367
83.6821
83.9608
84.2626
84.5722
84.8786
85.1746
85.45
85.7064
85.9432
86.1668
86.3921
86.6263
86.8784
87.1556
87.448
87.7447
88.0522
88.3558
88.6533
88.8932
89.1258
89.258
89.3836
89.4516
89.5072
89.5224
89.55
89.5259
89.5338
89.4855
89.4758
89.4074
89.3855
89.3077
89.2882
89.2306
89.2375
89.1986
89.2337
89.2229
89.2804
89.275
89.3317
89.3123
89.3601
89.3331
89.3907
89.3663
89.4385
89.4335
89.5461
89.582
89.7629
89.8663
90.1416
90.3373
90.7153
90.9839
91.4272
91.7188
92.1675
92.4342
92.8587
93.0652
93.4158
93.5031
93.745
93.7174
93.882
93.7716
93.8873
93.7108
93.7921
93.5666
93.6282
93.3662
93.4191
93.1264
93.1811
92.8671
92.9307
92.5937
92.6692
92.312
92.4032
92.0218
92.1282
91.7214
91.8441
91.4072
91.5474
91.0752
91.2329
90.7204
90.8966
90.3357
90.5318
89.9159
90.132
89.4493
89.6875
88.9264
89.1858
88.3292
88.6115
87.644
87.9468
86.8486
87.1615
85.9043
86.2108
84.7873
85.0484
83.4428
83.6306
81.838
81.9039
79.8815
79.6991
77.4005
76.6684
74.1137
72.3525
69.6066
66.8477
64.0193
60.2545
58.1718
52.9261
50.3254
43.114
36.4342
81.7972
81.2762
79.4904
77.8809
76.8158
76.2979
76.1997
76.3151
76.4688
76.5582
76.5448
76.4241
76.2147
75.9555
75.679
75.4176
75.1984
75.0312
74.9271
74.8997
74.9542
75.0872
75.2988
75.5837
75.9359
76.355
76.8322
77.3488
77.8884
78.4429
78.9973
79.5381
80.0565
80.5374
80.9695
81.3531
81.6846
81.9576
82.1759
82.3374
82.445
82.4956
82.4688
82.3468
82.2289
82.1606
82.0469
81.9441
81.9253
81.9299
81.9901
82.1193
82.2438
82.3018
82.3125
82.2839
82.2614
82.3066
82.393
82.4778
82.5831
82.7197
82.8651
83.0042
83.1434
83.3018
83.4831
83.6951
83.9464
84.2333
84.5471
84.8724
85.1965
85.5128
85.8112
86.0893
86.3459
86.586
86.8238
87.0681
87.328
87.6108
87.9068
88.2041
88.5139
88.8114
89.1097
89.3306
89.564
89.6665
89.7766