/*--------------------------------*- C++ -*----------------------------------*\
| =========                 |                                                 |
| \\      /  F ield         | OpenFOAM: The Open Source CFD Toolbox           |
|  \\    /   O peration     | Version:  2.4.0                                 |
|   \\  /    A nd           | Web:      www.OpenFOAM.org                      |
|    \\/     M anipulation  |                                                 |
\*---------------------------------------------------------------------------*/
FoamFile
{
    version     2.0;
    format      ascii;
    class       volVectorField;
    location    "0.198";
    object      U_0;
}
// * * * * * * * * * * * * * * * * * * * * * * * * * * * * * * * * * * * * * //

dimensions      [0 1 -1 0 0 0 0];

internalField   nonuniform List<vector> 
4400
(
(5.40435 0.316791 0)
(3.31631 0.0606795 0)
(2.58193 0.00154546 0)
(2.23669 -0.00236431 0)
(2.08134 -0.00110615 0)
(1.9952 -0.000875938 0)
(1.96742 -0.000583021 0)
(1.89618 0.000487556 0)
(1.9264 0.00365386 0)
(1.71766 -0.083231 0)
(8.68657 0.85725 0)
(7.54243 0.34462 0)
(6.62361 0.116589 0)
(5.91929 0.0537628 0)
(5.52008 0.0286221 0)
(5.26595 0.0128771 0)
(5.18515 0.0120092 0)
(4.96245 0.00359154 0)
(5.09618 0.0263943 0)
(4.70918 -0.1293 0)
(9.89329 0.936973 0)
(9.99439 0.477449 0)
(9.48379 0.213751 0)
(8.76307 0.127055 0)
(8.27201 0.0794362 0)
(7.89718 0.0384629 0)
(7.79749 0.0357882 0)
(7.45155 0.0109465 0)
(7.64729 0.0431667 0)
(7.19418 -0.145785 0)
(10.1258 0.806605 0)
(11.1211 0.498564 0)
(11.2621 0.266994 0)
(10.8354 0.192275 0)
(10.4549 0.138432 0)
(10.0544 0.0715907 0)
(9.98509 0.0672155 0)
(9.58242 0.0244195 0)
(9.77624 0.055173 0)
(9.42219 -0.128564 0)
(10.0546 0.646072 0)
(11.3355 0.437386 0)
(11.9754 0.248289 0)
(11.9693 0.210291 0)
(11.8885 0.17743 0)
(11.6125 0.0995685 0)
(11.6404 0.0960303 0)
(11.2886 0.0435155 0)
(11.4513 0.0602194 0)
(11.2689 -0.108513 0)
(10.0208 0.51376 0)
(11.2592 0.360816 0)
(12.0455 0.190883 0)
(12.2708 0.176078 0)
(12.4615 0.174085 0)
(12.4205 0.100156 0)
(12.6061 0.107839 0)
(12.4211 0.0541872 0)
(12.5978 0.0604501 0)
(12.5513 -0.0914227 0)
(10.021 0.39421 0)
(11.174 0.29046 0)
(11.9969 0.139619 0)
(12.2782 0.129578 0)
(12.477 0.142722 0)
(12.6366 0.0755772 0)
(12.8902 0.0901733 0)
(12.8938 0.0540357 0)
(13.1338 0.0311698 0)
(13.1557 -0.00957001 0)
(10.0096 0.275941 0)
(11.1224 0.214642 0)
(11.9833 0.0882953 0)
(12.2165 0.100973 0)
(12.4223 0.102423 0)
(12.6449 0.0454636 0)
(12.8263 0.0615183 0)
(12.9927 0.041907 0)
(13.2278 -0.00190898 0)
(13.2414 -0.00194644 0)
(10.0053 0.168391 0)
(11.1368 0.119845 0)
(11.8812 0.0563475 0)
(12.1723 0.0616999 0)
(12.4518 0.0669529 0)
(12.5905 0.0166849 0)
(12.7889 0.0379895 0)
(12.9929 0.0062897 0)
(13.1563 -0.0106281 0)
(13.1735 -0.0586846 0)
(10.0068 0.0522545 0)
(11.1165 0.0403307 0)
(11.8138 0.0195239 0)
(12.2064 0.019422 0)
(12.4322 0.0274469 0)
(12.6036 -0.0074684 0)
(12.7678 0.0059954 0)
(12.9315 -0.00482845 0)
(13.1193 -0.0331461 0)
(13.2009 -0.108183 0)
(10.0056 -0.0552942 0)
(11.1109 -0.0468617 0)
(11.8431 -0.0166659 0)
(12.1919 -0.0235591 0)
(12.4208 -0.00875621 0)
(12.5938 -0.0333211 0)
(12.7539 -0.0131456 0)
(12.9525 -0.0373527 0)
(13.1375 -0.0641973 0)
(13.2426 -0.141908 0)
(10.0144 -0.169261 0)
(11.1385 -0.132029 0)
(11.8543 -0.0506221 0)
(12.1877 -0.0622757 0)
(12.4242 -0.0455175 0)
(12.6162 -0.0632538 0)
(12.7872 -0.0436258 0)
(12.9651 -0.0588942 0)
(13.1341 -0.0847186 0)
(13.2279 -0.162541 0)
(10.0491 -0.282365 0)
(11.1272 -0.214113 0)
(11.9047 -0.0881848 0)
(12.2047 -0.103142 0)
(12.4799 -0.0871787 0)
(12.619 -0.0875918 0)
(12.8122 -0.0657899 0)
(12.9649 -0.0823097 0)
(13.1548 -0.108644 0)
(13.2102 -0.19173 0)
(10.069 -0.399821 0)
(11.1263 -0.288959 0)
(12.0013 -0.133021 0)
(12.2198 -0.143839 0)
(12.5369 -0.123398 0)
(12.5941 -0.111191 0)
(12.8465 -0.0944166 0)
(12.8883 -0.102733 0)
(13.0611 -0.128697 0)
(12.9707 -0.214849 0)
(10.0513 -0.519198 0)
(11.1985 -0.357382 0)
(12.0726 -0.187604 0)
(12.229 -0.186498 0)
(12.4844 -0.159562 0)
(12.4072 -0.131512 0)
(12.5576 -0.10918 0)
(12.4066 -0.110052 0)
(12.4768 -0.12827 0)
(12.1731 -0.211503 0)
(10.068 -0.648893 0)
(11.2961 -0.43469 0)
(12.0043 -0.246592 0)
(11.9386 -0.217991 0)
(11.9024 -0.168683 0)
(11.6078 -0.123071 0)
(11.5695 -0.099344 0)
(11.2758 -0.0905936 0)
(11.2447 -0.115459 0)
(10.8213 -0.156839 0)
(10.1324 -0.808412 0)
(11.0967 -0.497114 0)
(11.288 -0.266183 0)
(10.8062 -0.197669 0)
(10.4687 -0.133099 0)
(10.0438 -0.088404 0)
(9.90396 -0.0697549 0)
(9.56815 -0.0631721 0)
(9.5026 -0.0881616 0)
(9.01816 -0.099276 0)
(9.89598 -0.93776 0)
(9.97919 -0.476681 0)
(9.50326 -0.213293 0)
(8.73831 -0.130324 0)
(8.2836 -0.0767992 0)
(7.8785 -0.0482826 0)
(7.72401 -0.0385871 0)
(7.42457 -0.0373244 0)
(7.35709 -0.0543506 0)
(6.8572 -0.0612903 0)
(8.68753 -0.857514 0)
(7.53398 -0.34444 0)
(6.63524 -0.116292 0)
(5.90236 -0.0554688 0)
(5.52656 -0.0275499 0)
(5.24584 -0.0170234 0)
(5.13003 -0.0145496 0)
(4.91924 -0.0161693 0)
(4.85503 -0.0245147 0)
(4.44227 -0.0261034 0)
(5.40452 -0.316796 0)
(3.31345 -0.0607146 0)
(2.58553 -0.00141366 0)
(2.2302 0.0019622 0)
(2.08171 0.00145727 0)
(1.98412 0.000448602 0)
(1.94007 -4.94102e-05 0)
(1.85791 -0.00114309 0)
(1.81511 -0.00158315 0)
(1.62824 0.00843883 0)
(2.81656 0.134564 0)
(2.76337 0.0341766 0)
(3.42757 -0.0995537 0)
(3.33098 -0.338391 0)
(4.04737 -0.236941 0)
(3.97305 -0.163436 0)
(4.12422 -0.321326 0)
(4.40849 -0.348453 0)
(3.98384 -0.34937 0)
(4.03684 -0.45861 0)
(4.06095 -0.28673 0)
(4.06285 0.118005 0)
(4.62547 0.412374 0)
(5.37202 0.975801 0)
(6.59815 1.37099 0)
(7.87344 1.07344 0)
(8.91201 0.293391 0)
(9.48986 -0.549272 0)
(9.60762 -1.1931 0)
(9.99243 -1.7902 0)
(10.6199 -2.51448 0)
(11.1428 -2.95609 0)
(11.9338 -3.55103 0)
(12.8553 -4.11969 0)
(12.7636 -4.21318 0)
(13.0113 -4.07252 0)
(13.1751 -3.80085 0)
(13.2857 -3.48601 0)
(12.9366 -2.90784 0)
(12.6491 -2.02543 0)
(11.8254 -1.0668 0)
(11.3681 0.278304 0)
(11.2013 1.73644 0)
(10.6238 2.5303 0)
(10.6535 3.10459 0)
(11.2231 3.57245 0)
(11.9883 3.79616 0)
(11.8842 3.2659 0)
(11.4939 1.65091 0)
(11.2887 0.522809 0)
(10.8624 0.169303 0)
(10.8615 -1.0137 0)
(10.0603 -2.55297 0)
(9.80153 -2.8624 0)
(8.92612 -2.93937 0)
(8.3926 -3.46289 0)
(7.78668 -3.15299 0)
(7.54016 -1.89298 0)
(7.9448 -0.554675 0)
(7.74344 -1.05864 0)
(7.00299 -3.39628 0)
(6.16143 -6.46449 0)
(5.80056 -8.71474 0)
(5.53274 -9.37695 0)
(6.08643 -8.20028 0)
(6.09323 -6.32134 0)
(6.63174 -3.18983 0)
(6.81085 0.489195 0)
(6.30109 2.37291 0)
(6.50898 3.84872 0)
(8.38477 6.47505 0)
(9.72322 9.05809 0)
(10.6037 10.0895 0)
(9.46726 9.86251 0)
(9.90589 8.39049 0)
(6.98735 6.57763 0)
(7.73906 4.5484 0)
(5.33963 3.7405 0)
(6.21404 2.03469 0)
(4.27358 2.31039 0)
(4.47439 0.849364 0)
(4.39076 1.13953 0)
(4.53852 0.00661191 0)
(4.70224 -0.248157 0)
(4.57845 -0.131685 0)
(6.96899 0.437827 0)
(6.94432 -0.42229 0)
(8.27364 0.0144151 0)
(8.4037 -0.207524 0)
(9.58667 -0.372822 0)
(9.51029 -0.803408 0)
(10.1601 -1.27359 0)
(10.1667 -2.44006 0)
(8.99018 -1.50247 0)
(9.17874 -2.7027 0)
(8.37973 -2.53034 0)
(7.8273 -2.44632 0)
(7.45314 -0.682904 0)
(8.51346 -1.69226 0)
(7.49917 -1.89028 0)
(7.60354 -1.74505 0)
(6.7875 -0.0618994 0)
(6.44832 -0.0150808 0)
(6.51094 1.75805 0)
(6.81818 1.32126 0)
(6.90305 2.75248 0)
(7.3458 2.34221 0)
(6.40991 4.48729 0)
(8.13218 5.54449 0)
(4.59875 10.7819 0)
(5.33246 0.11176 0)
(5.23366 0.0567554 0)
(5.558 -0.197312 0)
(5.60527 -0.376865 0)
(6.01587 -0.421152 0)
(6.17175 -0.232261 0)
(6.25533 -0.267945 0)
(6.42617 -0.397824 0)
(6.18414 -0.330851 0)
(6.24519 -0.355356 0)
(6.16256 -0.343909 0)
(6.169 0.0260762 0)
(6.46758 0.308186 0)
(6.86557 0.543034 0)
(7.60101 0.796635 0)
(8.71462 0.576884 0)
(9.68758 -0.000616863 0)
(10.2693 -0.703268 0)
(10.6154 -1.36876 0)
(11.3329 -2.0136 0)
(12.0659 -2.85904 0)
(12.4976 -3.24139 0)
(13.0346 -3.75388 0)
(13.6699 -4.31748 0)
(13.341 -4.24483 0)
(13.3812 -4.05846 0)
(13.4853 -3.80786 0)
(13.4544 -3.37429 0)
(13.1012 -2.7408 0)
(12.7182 -1.81008 0)
(12.1278 -0.796457 0)
(11.487 0.392115 0)
(11.4322 1.77954 0)
(11.1216 2.63177 0)
(11.009 3.09958 0)
(11.2881 3.37707 0)
(11.9043 3.63683 0)
(12.0592 3.29834 0)
(11.7694 1.73615 0)
(11.6845 0.638892 0)
(11.1838 0.343305 0)
(11.1754 -0.861743 0)
(10.5153 -2.37744 0)
(10.0636 -2.66675 0)
(9.28313 -2.65519 0)
(8.65902 -3.24265 0)
(8.09834 -2.98242 0)
(7.62234 -1.8136 0)
(7.98235 -0.576195 0)
(7.69226 -0.876646 0)
(6.94362 -3.08655 0)
(6.01108 -6.21021 0)
(5.47905 -8.59592 0)
(5.15537 -9.4227 0)
(5.64153 -8.32338 0)
(5.51928 -6.29378 0)
(5.85828 -3.19064 0)
(6.11927 0.490788 0)
(5.67312 2.29135 0)
(5.69643 3.48681 0)
(7.54165 5.81578 0)
(8.98522 8.62631 0)
(10.4999 9.93843 0)
(9.47501 9.99731 0)
(10.3181 8.7806 0)
(7.73555 7.13711 0)
(8.19499 4.8397 0)
(5.86322 4.04768 0)
(6.5033 2.24796 0)
(5.0026 2.46986 0)
(5.1868 1.10782 0)
(4.79545 0.898846 0)
(5.13874 0.0253076 0)
(5.96425 -0.316505 0)
(4.84989 -0.549568 0)
(7.25737 -0.0397161 0)
(7.24247 -0.715685 0)
(8.84995 -0.363775 0)
(8.65444 -0.36412 0)
(10.0234 -0.623504 0)
(9.82585 -0.974667 0)
(10.6655 -1.25827 0)
(10.3622 -2.39309 0)
(9.29604 -1.30328 0)
(9.54974 -2.65605 0)
(8.78732 -2.33352 0)
(8.50248 -2.43041 0)
(7.75138 -0.582331 0)
(9.12633 -1.78741 0)
(7.86294 -1.57324 0)
(8.01375 -1.76104 0)
(6.91534 0.471081 0)
(6.99927 -0.329045 0)
(6.61936 2.00757 0)
(7.48566 0.897454 0)
(7.05552 2.94161 0)
(8.5291 2.06504 0)
(6.63882 4.8198 0)
(10.1591 5.01992 0)
(6.61949 11.6979 0)
(7.57643 0.0126783 0)
(7.71944 0.0927954 0)
(7.79814 -0.292994 0)
(7.79651 -0.478749 0)
(8.17319 -0.478236 0)
(8.19172 -0.407107 0)
(8.2552 -0.265193 0)
(8.52541 -0.307214 0)
(8.15028 -0.366382 0)
(8.19479 -0.320962 0)
(8.28615 -0.332179 0)
(8.18828 -0.0830906 0)
(8.4779 0.195927 0)
(8.88771 0.348405 0)
(9.32277 0.520063 0)
(10.1586 0.257681 0)
(10.8954 -0.2509 0)
(11.5858 -0.874855 0)
(12.0597 -1.61045 0)
(12.7662 -2.23255 0)
(13.3817 -3.08425 0)
(13.5596 -3.45314 0)
(13.7829 -3.86624 0)
(14.0772 -4.37668 0)
(13.5988 -4.18888 0)
(13.4616 -4.01281 0)
(13.6091 -3.78379 0)
(13.5108 -3.22946 0)
(13.2174 -2.51608 0)
(12.8969 -1.64276 0)
(12.6171 -0.595752 0)
(11.9026 0.579421 0)
(11.5377 1.84001 0)
(11.3197 2.68665 0)
(11.2218 3.14768 0)
(11.3167 3.28026 0)
(11.7147 3.49046 0)
(12.0558 3.27247 0)
(11.8337 1.77224 0)
(11.8272 0.744129 0)
(11.3598 0.516813 0)
(11.365 -0.736055 0)
(10.833 -2.18626 0)
(10.2006 -2.42226 0)
(9.54376 -2.36822 0)
(8.91014 -2.9838 0)
(8.38021 -2.78593 0)
(7.77609 -1.66335 0)
(7.94239 -0.532545 0)
(7.60862 -0.701893 0)
(6.82108 -2.75766 0)
(5.73472 -5.89408 0)
(5.1497 -8.45808 0)
(4.71454 -9.45102 0)
(5.17795 -8.41128 0)
(4.91426 -6.26336 0)
(5.13238 -3.20461 0)
(5.39529 0.519813 0)
(5.02519 2.2817 0)
(4.87401 3.24039 0)
(6.74493 5.08993 0)
(8.25861 7.95295 0)
(10.2736 9.64875 0)
(9.34478 10.0752 0)
(10.5071 9.05549 0)
(8.30311 7.62024 0)
(8.71213 5.24897 0)
(6.51706 4.40423 0)
(7.00845 2.57521 0)
(5.59413 2.49068 0)
(5.92201 1.30977 0)
(5.53103 0.751746 0)
(5.58949 -0.142631 0)
(7.00862 -0.345602 0)
(5.69414 -0.746139 0)
(7.69482 -0.511789 0)
(7.51543 -1.02705 0)
(9.31682 -0.727652 0)
(8.91286 -0.5824 0)
(10.4678 -0.777069 0)
(10.1416 -1.14435 0)
(11.0774 -1.31369 0)
(10.5297 -2.21688 0)
(9.87915 -1.11611 0)
(9.98088 -2.43979 0)
(9.18827 -2.07246 0)
(9.0113 -2.37659 0)
(8.10757 -0.500578 0)
(9.5096 -1.9274 0)
(8.17837 -1.26591 0)
(8.4871 -1.80814 0)
(6.97906 0.949662 0)
(7.7226 -0.633018 0)
(6.84824 2.27206 0)
(8.62853 0.306394 0)
(7.12754 3.24315 0)
(10.0763 1.58364 0)
(6.78313 5.37713 0)
(11.9403 4.0979 0)
(8.48305 11.7319 0)
(9.41666 -0.104576 0)
(9.64079 0.0496146 0)
(9.90952 -0.2688 0)
(9.7926 -0.554665 0)
(10.1295 -0.519295 0)
(10.235 -0.430346 0)
(10.0702 -0.30312 0)
(10.3188 -0.260348 0)
(10.0312 -0.305955 0)
(9.89681 -0.322829 0)
(10.0374 -0.352584 0)
(9.92395 -0.165802 0)
(10.2409 0.0375394 0)
(10.6723 0.154778 0)
(11.0227 0.320696 0)
(11.8049 -0.00718197 0)
(12.3346 -0.464126 0)
(12.9725 -1.02906 0)
(13.4076 -1.82026 0)
(13.9496 -2.40389 0)
(14.2823 -3.2214 0)
(14.1466 -3.53976 0)
(14.1314 -3.80135 0)
(14.1446 -4.32983 0)
(13.6242 -4.08824 0)
(13.3744 -3.92141 0)
(13.6078 -3.75777 0)
(13.471 -3.16097 0)
(13.2772 -2.40722 0)
(13.0409 -1.57682 0)
(12.8815 -0.487636 0)
(12.4023 0.780843 0)
(11.9221 1.96676 0)
(11.5605 2.77862 0)
(11.3339 3.23773 0)
(11.3582 3.21957 0)
(11.5418 3.33149 0)
(11.9377 3.18911 0)
(11.7409 1.7788 0)
(11.789 0.826692 0)
(11.3959 0.643599 0)
(11.4258 -0.624547 0)
(10.9857 -1.97829 0)
(10.2426 -2.16228 0)
(9.64423 -2.13449 0)
(9.08626 -2.74271 0)
(8.55486 -2.58852 0)
(7.96071 -1.50969 0)
(7.90607 -0.445391 0)
(7.52552 -0.498883 0)
(6.6904 -2.40009 0)
(5.518 -5.54905 0)
(4.88105 -8.27954 0)
(4.27578 -9.44557 0)
(4.68809 -8.41971 0)
(4.25344 -6.14738 0)
(4.41144 -3.18803 0)
(4.64098 0.519503 0)
(4.4995 2.22157 0)
(4.20976 2.96603 0)
(5.93937 4.39012 0)
(7.33948 7.3135 0)
(9.95046 9.27883 0)
(9.19818 9.98704 0)
(10.5056 9.12793 0)
(8.70455 8.02956 0)
(9.33272 5.68873 0)
(7.28089 4.71698 0)
(7.82495 2.99186 0)
(6.53755 2.49976 0)
(6.69371 1.46296 0)
(6.74185 0.731187 0)
(6.37022 -0.415443 0)
(7.82387 -0.458362 0)
(6.88515 -0.873041 0)
(8.35207 -0.874981 0)
(7.99783 -1.26243 0)
(9.68047 -1.07977 0)
(9.05877 -0.776004 0)
(10.8046 -1.01224 0)
(10.4244 -1.33127 0)
(11.5497 -1.30541 0)
(10.5627 -2.05559 0)
(10.4014 -1.04631 0)
(10.2248 -2.28819 0)
(9.74177 -1.85294 0)
(9.66189 -2.31802 0)
(8.43947 -0.316641 0)
(9.95995 -2.04758 0)
(8.32626 -0.929467 0)
(9.05329 -1.87893 0)
(6.80789 1.45021 0)
(8.91917 -1.13725 0)
(6.51027 2.47581 0)
(10.5848 -0.344157 0)
(6.92608 3.51144 0)
(12.446 0.846287 0)
(7.1402 5.91877 0)
(13.1195 2.91616 0)
(9.92515 11.3992 0)
(11.0506 -0.0823082 0)
(11.1532 -0.0328868 0)
(11.4212 -0.342958 0)
(11.3422 -0.611119 0)
(11.6355 -0.58126 0)
(11.8178 -0.433025 0)
(11.6759 -0.298493 0)
(11.8388 -0.218459 0)
(11.6059 -0.214999 0)
(11.4218 -0.312576 0)
(11.5238 -0.366835 0)
(11.3614 -0.212969 0)
(11.6673 -0.141086 0)
(12.029 -0.0545643 0)
(12.3435 0.114042 0)
(13.0708 -0.265637 0)
(13.4541 -0.668886 0)
(14.0299 -1.15208 0)
(14.3 -2.00891 0)
(14.5414 -2.51993 0)
(14.6392 -3.18617 0)
(14.2013 -3.58104 0)
(14.0096 -3.75526 0)
(13.8802 -4.25099 0)
(13.5305 -4.0457 0)
(13.3454 -3.9083 0)
(13.6394 -3.77925 0)
(13.5508 -3.13337 0)
(13.3919 -2.38595 0)
(13.355 -1.5548 0)
(13.1453 -0.401542 0)
(12.6813 0.945945 0)
(12.2678 2.1073 0)
(11.8333 2.893 0)
(11.4328 3.35686 0)
(11.3817 3.2371 0)
(11.2909 3.27075 0)
(11.6733 3.14291 0)
(11.615 1.81446 0)
(11.6644 0.909663 0)
(11.3496 0.730319 0)
(11.3689 -0.550895 0)
(10.9776 -1.78086 0)
(10.172 -1.90389 0)
(9.66724 -1.94353 0)
(9.27524 -2.50695 0)
(8.76242 -2.33918 0)
(8.09443 -1.29719 0)
(7.85772 -0.29093 0)
(7.43825 -0.273282 0)
(6.56593 -2.00264 0)
(5.40586 -5.16971 0)
(4.61806 -8.02502 0)
(3.78928 -9.33211 0)
(4.04246 -8.31531 0)
(3.58662 -6.03189 0)
(3.78876 -3.14491 0)
(3.88818 0.490298 0)
(4.04936 2.17627 0)
(3.56183 2.76916 0)
(5.37929 3.71014 0)
(6.51418 6.44199 0)
(9.49079 8.71275 0)
(8.98793 9.85471 0)
(10.4113 9.10106 0)
(8.9507 8.27593 0)
(9.75147 5.99337 0)
(7.97641 4.91421 0)
(8.5669 3.34571 0)
(7.89361 2.62053 0)
(7.64962 1.61131 0)
(8.14304 0.781896 0)
(7.68443 -0.612581 0)
(8.51433 -0.63275 0)
(8.11481 -0.874754 0)
(9.19246 -1.12445 0)
(8.58099 -1.43234 0)
(9.95135 -1.29036 0)
(9.11333 -1.02015 0)
(11.0004 -1.22256 0)
(10.5452 -1.5051 0)
(11.9406 -1.31001 0)
(10.4788 -1.81577 0)
(11.0365 -1.0361 0)
(10.2939 -2.09258 0)
(10.2336 -1.69809 0)
(9.99077 -2.21534 0)
(8.73683 -0.212446 0)
(10.3464 -2.06574 0)
(8.32124 -0.544901 0)
(9.52005 -1.83744 0)
(6.67393 1.82769 0)
(9.53632 -1.53311 0)
(5.77945 2.76469 0)
(11.856 -1.20964 0)
(6.52739 3.81297 0)
(14.6151 -0.215194 0)
(8.44457 6.84136 0)
(13.784 1.72779 0)
(11.0314 10.9104 0)
(12.3091 -0.0128321 0)
(12.4169 -0.0727473 0)
(12.601 -0.43575 0)
(12.4432 -0.681705 0)
(12.6538 -0.677926 0)
(12.785 -0.465401 0)
(12.7058 -0.289165 0)
(12.8634 -0.20526 0)
(12.6811 -0.129569 0)
(12.5402 -0.257369 0)
(12.6332 -0.37521 0)
(12.4526 -0.236437 0)
(12.7176 -0.262456 0)
(12.9586 -0.238667 0)
(13.2684 -0.0628728 0)
(13.8577 -0.430817 0)
(14.0511 -0.854269 0)
(14.5448 -1.26803 0)
(14.6889 -2.05173 0)
(14.5781 -2.54034 0)
(14.4626 -3.10555 0)
(13.9812 -3.5345 0)
(13.7787 -3.65513 0)
(13.7184 -4.13171 0)
(13.4991 -4.04901 0)
(13.4244 -3.91098 0)
(13.5788 -3.80092 0)
(13.4805 -3.12813 0)
(13.2604 -2.40245 0)
(13.2535 -1.54375 0)
(13.0603 -0.285944 0)
(12.6972 1.04221 0)
(12.5197 2.23227 0)
(12.093 3.10721 0)
(11.493 3.51585 0)
(11.3787 3.26089 0)
(11.1053 3.20711 0)
(11.4336 3.03892 0)
(11.4466 1.7938 0)
(11.4064 0.988261 0)
(11.1639 0.785375 0)
(11.1745 -0.473431 0)
(10.8479 -1.55904 0)
(10.065 -1.64438 0)
(9.67497 -1.79774 0)
(9.40506 -2.32171 0)
(8.90826 -2.11023 0)
(8.17802 -1.07075 0)
(7.75926 -0.110215 0)
(7.33658 -0.0200981 0)
(6.48127 -1.6255 0)
(5.30336 -4.73406 0)
(4.22898 -7.65638 0)
(3.26404 -9.15621 0)
(3.25815 -8.19242 0)
(2.95175 -5.90873 0)
(3.26845 -3.07626 0)
(3.11685 0.414706 0)
(3.69563 2.08527 0)
(3.06611 2.51293 0)
(4.92122 3.19276 0)
(5.48884 5.73085 0)
(8.86949 8.12767 0)
(8.70071 9.67662 0)
(10.2047 8.97566 0)
(8.96735 8.38478 0)
(9.90491 6.19719 0)
(8.57785 4.97836 0)
(8.93812 3.5019 0)
(8.96494 2.65373 0)
(8.62677 1.70146 0)
(9.20343 0.810539 0)
(9.02897 -0.621287 0)
(9.12751 -0.756746 0)
(9.15961 -0.94928 0)
(9.93644 -1.19298 0)
(9.2413 -1.46443 0)
(10.2093 -1.36197 0)
(9.11107 -1.2046 0)
(11.0639 -1.5082 0)
(10.4984 -1.71305 0)
(12.0666 -1.30541 0)
(10.2763 -1.59231 0)
(11.5411 -1.09976 0)
(10.1821 -1.90416 0)
(10.6626 -1.60878 0)
(10.1506 -2.05349 0)
(9.0077 -0.127466 0)
(10.4766 -2.02312 0)
(8.51895 -0.295325 0)
(9.72989 -1.68379 0)
(6.38191 2.20938 0)
(9.36355 -1.62026 0)
(5.14362 2.73921 0)
(10.5833 -1.97125 0)
(6.33269 4.25314 0)
(10.9252 -2.43898 0)
(9.51166 7.0574 0)
(13.6337 0.644068 0)
(11.8338 10.3317 0)
(12.985 -0.0497733 0)
(13.2244 -0.184479 0)
(13.3925 -0.513607 0)
(13.1427 -0.67391 0)
(13.2248 -0.70707 0)
(13.2084 -0.496986 0)
(13.0754 -0.284089 0)
(13.2267 -0.219433 0)
(13.1232 -0.114074 0)
(13.0425 -0.220218 0)
(13.1854 -0.392344 0)
(13.075 -0.276332 0)
(13.2497 -0.329796 0)
(13.4486 -0.37997 0)
(13.7137 -0.235221 0)
(14.0245 -0.524205 0)
(14.2038 -0.962327 0)
(14.5607 -1.39514 0)
(14.4377 -2.04898 0)
(14.2013 -2.46914 0)
(14.1107 -3.02302 0)
(13.7792 -3.50411 0)
(13.579 -3.57547 0)
(13.6069 -4.02167 0)
(13.4407 -4.13548 0)
(13.2824 -3.96424 0)
(13.1906 -3.73198 0)
(12.963 -3.06291 0)
(12.668 -2.32803 0)
(12.6278 -1.43784 0)
(12.3849 -0.16166 0)
(12.1381 1.09824 0)
(12.3623 2.2318 0)
(12.1564 3.26499 0)
(11.4306 3.72687 0)
(11.2153 3.38106 0)
(10.7776 3.24058 0)
(10.9918 2.96708 0)
(11.0761 1.78894 0)
(10.9995 1.07049 0)
(10.8479 0.803866 0)
(10.8736 -0.397369 0)
(10.6196 -1.34454 0)
(9.87185 -1.43539 0)
(9.67509 -1.69672 0)
(9.51362 -2.1459 0)
(9.00972 -1.83207 0)
(8.17 -0.787506 0)
(7.6452 0.115455 0)
(7.19411 0.241882 0)
(6.38939 -1.24205 0)
(5.11294 -4.22428 0)
(3.79151 -7.22621 0)
(2.74998 -8.90905 0)
(2.42868 -8.17485 0)
(2.37548 -5.90932 0)
(2.75801 -3.0209 0)
(2.39578 0.295065 0)
(3.38339 1.97411 0)
(2.64729 2.31265 0)
(4.55452 2.67635 0)
(4.89395 4.93206 0)
(8.1737 7.26922 0)
(8.33197 9.30855 0)
(9.92151 8.77804 0)
(8.99753 8.37474 0)
(9.92111 6.31631 0)
(9.02719 4.95564 0)
(9.11407 3.52281 0)
(9.50117 2.50178 0)
(9.28069 1.60825 0)
(9.71498 0.740529 0)
(9.90208 -0.635768 0)
(9.65912 -0.859297 0)
(9.92211 -1.04971 0)
(10.5292 -1.22762 0)
(9.85779 -1.39309 0)
(10.4265 -1.32811 0)
(9.35954 -1.41753 0)
(11.1 -1.70342 0)
(10.4136 -1.85975 0)
(11.846 -1.31749 0)
(10.0127 -1.46816 0)
(11.8171 -1.18576 0)
(9.90092 -1.70042 0)
(11.014 -1.54854 0)
(9.89902 -1.82844 0)
(9.23837 -0.0930962 0)
(10.5028 -1.92966 0)
(8.82532 -0.0628008 0)
(9.42747 -1.38662 0)
(6.57743 2.67961 0)
(8.19354 -1.74007 0)
(6.18763 3.36575 0)
(6.62666 -2.82291 0)
(7.70735 5.04229 0)
(3.93792 -3.1981 0)
(8.61009 7.47765 0)
(10.1271 -0.83421 0)
(11.7889 9.50681 0)
(13.1223 -0.0725729 0)
(13.4796 -0.237272 0)
(13.6636 -0.541616 0)
(13.385 -0.59634 0)
(13.3817 -0.636065 0)
(13.1939 -0.461185 0)
(12.945 -0.225476 0)
(13.1314 -0.207708 0)
(13.1082 -0.140684 0)
(13.0906 -0.217611 0)
(13.3604 -0.402541 0)
(13.2758 -0.32493 0)
(13.302 -0.358822 0)
(13.5565 -0.465857 0)
(13.6693 -0.339328 0)
(13.7223 -0.558168 0)
(14.0163 -1.06739 0)
(14.2498 -1.45232 0)
(13.9804 -1.98176 0)
(13.851 -2.41957 0)
(13.9123 -2.92242 0)
(13.6485 -3.4354 0)
(13.4469 -3.54695 0)
(13.431 -3.91857 0)
(13.1571 -4.08126 0)
(12.7313 -3.88271 0)
(12.3137 -3.56134 0)
(11.9685 -2.91157 0)
(11.5768 -2.22388 0)
(11.4436 -1.30865 0)
(11.2696 -0.0722761 0)
(11.2371 1.04326 0)
(11.6293 2.19868 0)
(11.6352 3.44741 0)
(11.0888 3.88016 0)
(10.8229 3.47449 0)
(10.3021 3.29304 0)
(10.5085 2.86472 0)
(10.6717 1.76112 0)
(10.5214 1.13678 0)
(10.3823 0.791444 0)
(10.4615 -0.356028 0)
(10.3175 -1.18409 0)
(9.65462 -1.29242 0)
(9.60921 -1.64549 0)
(9.51969 -1.98843 0)
(8.99233 -1.55091 0)
(8.07832 -0.490077 0)
(7.49361 0.352504 0)
(7.04303 0.490315 0)
(6.28759 -0.85125 0)
(4.91517 -3.66405 0)
(3.42688 -6.77474 0)
(2.30183 -8.59382 0)
(1.68849 -8.15645 0)
(1.70425 -6.00965 0)
(2.16224 -2.97176 0)
(1.65573 0.131127 0)
(3.13405 1.76008 0)
(2.47135 2.07226 0)
(4.41065 2.23017 0)
(4.1287 4.45257 0)
(7.2404 6.60998 0)
(7.80722 8.94962 0)
(9.51175 8.54538 0)
(8.90668 8.30308 0)
(9.8292 6.44262 0)
(9.34992 4.97632 0)
(9.29391 3.50619 0)
(9.72894 2.3353 0)
(9.7203 1.47482 0)
(10.158 0.617136 0)
(10.5339 -0.627054 0)
(10.3364 -0.93329 0)
(10.5794 -1.20363 0)
(10.9231 -1.25053 0)
(10.3724 -1.32716 0)
(10.6981 -1.24457 0)
(9.89302 -1.52182 0)
(11.1053 -1.85571 0)
(10.3302 -1.94828 0)
(11.4974 -1.31104 0)
(9.93836 -1.38865 0)
(11.756 -1.24614 0)
(9.62829 -1.52422 0)
(11.149 -1.54776 0)
(9.37897 -1.45699 0)
(9.57528 -0.287888 0)
(10.3976 -1.75296 0)
(8.80203 0.170436 0)
(9.14345 -0.932843 0)
(6.81077 3.01011 0)
(6.92226 -1.66495 0)
(6.92695 3.61766 0)
(4.56572 -3.06397 0)
(9.05273 5.56345 0)
(2.68314 -3.14646 0)
(8.65092 7.54078 0)
(5.30385 -2.20788 0)
(10.4242 8.28967 0)
(13.1862 -0.103875 0)
(13.5394 -0.254643 0)
(13.6357 -0.528738 0)
(13.3459 -0.503433 0)
(13.2956 -0.524186 0)
(13.0696 -0.416906 0)
(12.8184 -0.201565 0)
(13.106 -0.228184 0)
(13.1685 -0.217485 0)
(13.1401 -0.255585 0)
(13.4612 -0.420886 0)
(13.343 -0.37564 0)
(13.2534 -0.372693 0)
(13.472 -0.486633 0)
(13.4291 -0.415731 0)
(13.5833 -0.634914 0)
(13.8927 -1.11332 0)
(13.9064 -1.44418 0)
(13.7917 -1.91462 0)
(13.7893 -2.37749 0)
(13.8154 -2.83441 0)
(13.5058 -3.31783 0)
(13.1916 -3.49415 0)
(12.9526 -3.80156 0)
(12.3788 -3.92931 0)
(11.6572 -3.65459 0)
(10.9872 -3.29555 0)
(10.5726 -2.70105 0)
(10.1863 -2.0524 0)
(10.0173 -1.18665 0)
(9.90527 -0.0556446 0)
(10.0334 0.941703 0)
(10.4051 2.15355 0)
(10.6973 3.53642 0)
(10.5033 3.99095 0)
(10.2205 3.66744 0)
(9.88544 3.36143 0)
(10.11 2.75712 0)
(10.1838 1.77745 0)
(9.94254 1.2219 0)
(9.88183 0.759373 0)
(10.1213 -0.342712 0)
(10.0554 -1.04444 0)
(9.45578 -1.21505 0)
(9.50668 -1.61428 0)
(9.49202 -1.81349 0)
(8.85452 -1.22472 0)
(7.85703 -0.171457 0)
(7.28782 0.596745 0)
(6.88054 0.730566 0)
(6.18075 -0.440801 0)
(4.80198 -3.10015 0)
(3.20672 -6.23736 0)
(1.88015 -8.17606 0)
(1.07456 -8.01203 0)
(0.988115 -6.09791 0)
(1.36578 -2.93321 0)
(1.07605 -0.0685426 0)
(2.82574 1.39878 0)
(2.40482 1.91195 0)
(3.94018 1.84089 0)
(3.90071 3.98524 0)
(6.51024 5.69142 0)
(7.14281 8.328 0)
(9.01387 8.17957 0)
(8.73911 8.13908 0)
(9.72217 6.45855 0)
(9.58875 5.01182 0)
(9.7446 3.58051 0)
(10.0713 2.27901 0)
(10.2339 1.38252 0)
(10.7305 0.46235 0)
(11.1015 -0.687125 0)
(11.097 -0.968397 0)
(11.2534 -1.24567 0)
(11.3495 -1.21397 0)
(10.7927 -1.18186 0)
(10.8469 -1.19042 0)
(10.3842 -1.61402 0)
(11.1189 -1.82072 0)
(10.2919 -1.88383 0)
(11.0854 -1.3141 0)
(9.83849 -1.3989 0)
(11.4994 -1.27795 0)
(9.31823 -1.34946 0)
(10.9599 -1.43676 0)
(8.886 -1.18267 0)
(10.0776 -0.607785 0)
(10.0082 -1.46131 0)
(8.89896 0.357257 0)
(8.73027 -0.580396 0)
(7.22684 3.70065 0)
(5.54466 -2.10678 0)
(7.9859 4.51676 0)
(4.40693 -3.75195 0)
(9.23788 5.74029 0)
(5.84614 -3.45183 0)
(9.25535 7.4271 0)
(4.12484 -2.17066 0)
(8.6227 6.57865 0)
(13.2954 -0.159215 0)
(13.4732 -0.20212 0)
(13.466 -0.429104 0)
(13.2164 -0.394381 0)
(13.1941 -0.378805 0)
(13.1167 -0.389707 0)
(12.9837 -0.23167 0)
(13.1995 -0.266118 0)
(13.2041 -0.300564 0)
(13.1477 -0.293279 0)
(13.3476 -0.413908 0)
(13.2676 -0.407598 0)
(13.2291 -0.369595 0)
(13.3975 -0.448566 0)
(13.469 -0.539273 0)
(13.6633 -0.752666 0)
(13.7182 -1.04358 0)
(13.714 -1.41596 0)
(13.697 -1.91773 0)
(13.6003 -2.2915 0)
(13.4772 -2.71089 0)
(13.1159 -3.20968 0)
(12.6916 -3.38626 0)
(12.1027 -3.52972 0)
(11.1095 -3.56917 0)
(10.1288 -3.29528 0)
(9.354 -2.97005 0)
(8.91861 -2.49015 0)
(8.57066 -1.88536 0)
(8.47282 -1.09099 0)
(8.45951 -0.0748269 0)
(8.59977 0.856157 0)
(9.11356 2.0087 0)
(9.88418 3.34893 0)
(9.81307 3.96 0)
(9.54478 3.78356 0)
(9.41865 3.37659 0)
(9.52121 2.72772 0)
(9.53118 1.85536 0)
(9.38016 1.30403 0)
(9.49321 0.667357 0)
(9.81692 -0.362073 0)
(9.78532 -0.924173 0)
(9.21805 -1.15954 0)
(9.28535 -1.58956 0)
(9.32877 -1.63338 0)
(8.58514 -0.886536 0)
(7.54507 0.143628 0)
(7.02007 0.809038 0)
(6.72806 0.952109 0)
(6.08256 -0.041442 0)
(4.77256 -2.52036 0)
(3.07749 -5.61132 0)
(1.47822 -7.6565 0)
(0.573586 -7.70511 0)
(0.204939 -5.99236 0)
(0.496064 -2.91802 0)
(0.745436 -0.417936 0)
(2.18958 0.959176 0)
(2.42704 1.71907 0)
(3.60913 1.30139 0)
(3.86735 3.73123 0)
(5.30843 5.14252 0)
(6.44717 7.75929 0)
(8.23175 7.74439 0)
(8.51164 7.83216 0)
(9.5169 6.33748 0)
(9.68527 4.9617 0)
(10.2403 3.58307 0)
(10.5525 2.24573 0)
(10.7928 1.29169 0)
(11.4321 0.290712 0)
(11.5781 -0.76812 0)
(11.6677 -1.04257 0)
(11.6755 -1.26853 0)
(11.5986 -1.13863 0)
(10.9845 -1.00012 0)
(10.9669 -1.1123 0)
(10.6296 -1.64107 0)
(10.9425 -1.76297 0)
(10.2296 -1.85053 0)
(10.7293 -1.32981 0)
(9.68888 -1.36398 0)
(11.008 -1.24263 0)
(8.89235 -1.25244 0)
(10.6653 -1.39671 0)
(8.59427 -1.00433 0)
(10.5234 -0.939358 0)
(9.35897 -1.03695 0)
(9.21222 0.358642 0)
(8.36935 0.0463311 0)
(7.07894 4.08937 0)
(4.87245 -2.40312 0)
(8.70888 4.91558 0)
(3.44376 -4.66027 0)
(9.77041 6.17282 0)
(5.28557 -3.93285 0)
(10.0075 7.07697 0)
(6.03598 -1.18841 0)
(6.75834 4.4074 0)
(13.2171 -0.158898 0)
(13.2494 -0.10659 0)
(13.3522 -0.345355 0)
(13.1816 -0.365554 0)
(13.201 -0.346781 0)
(13.24 -0.441806 0)
(13.0878 -0.274409 0)
(13.1685 -0.233083 0)
(13.1804 -0.343583 0)
(13.1312 -0.3113 0)
(13.2848 -0.359982 0)
(13.3159 -0.476255 0)
(13.2443 -0.416306 0)
(13.4028 -0.435436 0)
(13.5723 -0.639443 0)
(13.3935 -0.754253 0)
(13.334 -0.957611 0)
(13.6478 -1.4112 0)
(13.4643 -1.8787 0)
(13.1238 -2.22286 0)
(13.0106 -2.59745 0)
(12.4999 -3.00053 0)
(11.7309 -3.12771 0)
(10.7482 -3.12473 0)
(9.40826 -3.09112 0)
(8.29726 -2.90924 0)
(7.63721 -2.6722 0)
(7.31359 -2.3014 0)
(7.03805 -1.76781 0)
(6.98379 -1.04215 0)
(7.01187 -0.150214 0)
(7.23005 0.667882 0)
(7.86528 1.77036 0)
(8.58963 3.2228 0)
(8.63055 3.97391 0)
(8.78448 3.8143 0)
(8.81278 3.38254 0)
(8.83405 2.73178 0)
(8.96954 1.8991 0)
(8.99408 1.30699 0)
(9.2115 0.532878 0)
(9.48088 -0.377853 0)
(9.42828 -0.82852 0)
(8.86894 -1.11834 0)
(8.92262 -1.55555 0)
(8.95789 -1.43258 0)
(8.11519 -0.514576 0)
(7.07704 0.453451 0)
(6.64346 0.977798 0)
(6.52555 1.13572 0)
(6.01145 0.326901 0)
(4.82122 -1.929 0)
(3.01494 -4.9111 0)
(1.14833 -7.09226 0)
(0.0560664 -7.37716 0)
(-0.436804 -5.81903 0)
(-0.347366 -3.01192 0)
(0.620311 -0.781301 0)
(1.34569 0.518738 0)
(2.3568 1.46493 0)
(2.84291 0.981635 0)
(3.22302 3.70272 0)
(4.56878 4.60565 0)
(5.68252 7.10812 0)
(7.36115 7.17511 0)
(8.04253 7.39742 0)
(9.13985 6.09074 0)
(9.65011 4.73631 0)
(10.4807 3.41163 0)
(10.9005 2.12844 0)
(11.1475 1.13688 0)
(11.8823 0.140986 0)
(11.7428 -0.799989 0)
(11.9012 -1.04822 0)
(11.7303 -1.22268 0)
(11.6079 -0.998479 0)
(10.8993 -0.804723 0)
(11.0932 -1.08268 0)
(10.7211 -1.59376 0)
(10.7538 -1.65219 0)
(10.0748 -1.73368 0)
(10.3626 -1.26975 0)
(9.40133 -1.37931 0)
(10.4123 -1.12466 0)
(8.46401 -1.13112 0)
(10.365 -1.34925 0)
(8.45418 -1.09704 0)
(10.5711 -1.16057 0)
(8.56482 -0.575101 0)
(9.65536 0.362281 0)
(7.11602 0.605578 0)
(7.75286 4.77312 0)
(4.2402 -2.96054 0)
(9.48545 5.39665 0)
(3.48274 -4.86979 0)
(9.93474 6.04879 0)
(3.80056 -3.97839 0)
(9.79391 6.58295 0)
(7.68387 0.0542603 0)
(5.29791 2.58253 0)
(13.1645 -0.154346 0)
(13.2287 -0.0861793 0)
(13.3696 -0.335377 0)
(13.2711 -0.366844 0)
(13.2795 -0.279789 0)
(13.2492 -0.400701 0)
(13.0818 -0.272439 0)
(13.1344 -0.202492 0)
(13.1981 -0.389323 0)
(13.1288 -0.35382 0)
(13.2578 -0.359141 0)
(13.3188 -0.518108 0)
(13.1528 -0.433443 0)
(13.2829 -0.43035 0)
(13.3429 -0.620051 0)
(13.1331 -0.70247 0)
(13.2481 -0.98404 0)
(13.2867 -1.41879 0)
(12.9028 -1.73249 0)
(12.6288 -2.06853 0)
(12.2205 -2.42639 0)
(11.3541 -2.67761 0)
(10.2808 -2.70237 0)
(8.92348 -2.59332 0)
(7.4481 -2.55208 0)
(6.46991 -2.56899 0)
(6.037 -2.51115 0)
(5.87072 -2.22108 0)
(5.66863 -1.72986 0)
(5.62252 -1.04716 0)
(5.60677 -0.212568 0)
(5.68951 0.610783 0)
(6.13705 1.70716 0)
(6.90644 3.06681 0)
(7.41732 3.76538 0)
(7.74397 3.75437 0)
(7.88205 3.40462 0)
(8.05414 2.7009 0)
(8.43811 1.85549 0)
(8.62852 1.23037 0)
(8.81216 0.417729 0)
(9.02907 -0.345523 0)
(8.94523 -0.729814 0)
(8.36045 -1.08318 0)
(8.37582 -1.47697 0)
(8.36358 -1.18674 0)
(7.45134 -0.159435 0)
(6.45887 0.708998 0)
(6.19006 1.08176 0)
(6.29763 1.2474 0)
(5.96231 0.64554 0)
(4.93636 -1.33981 0)
(3.0381 -4.14481 0)
(0.896426 -6.43274 0)
(-0.459004 -7.03387 0)
(-1.03988 -5.73205 0)
(-0.999415 -3.34572 0)
(0.434696 -1.21719 0)
(0.304929 0.250818 0)
(2.08629 1.1759 0)
(1.5878 0.521605 0)
(3.32349 3.39286 0)
(3.36746 4.01524 0)
(4.73735 6.56669 0)
(6.33409 6.56897 0)
(7.27148 6.80806 0)
(8.62817 5.64214 0)
(9.22904 4.37914 0)
(10.2963 3.07933 0)
(10.8008 1.91947 0)
(11.1379 0.969867 0)
(11.8572 0.0232066 0)
(11.5972 -0.821189 0)
(11.8633 -1.05847 0)
(11.5193 -1.12322 0)
(11.2697 -0.818534 0)
(10.6314 -0.718475 0)
(11.1491 -1.0834 0)
(10.6535 -1.45891 0)
(10.4959 -1.54003 0)
(9.81566 -1.59336 0)
(9.91365 -1.16213 0)
(9.09006 -1.26996 0)
(9.69387 -1.03074 0)
(8.23947 -1.16728 0)
(10.0738 -1.42474 0)