/*--------------------------------*- C++ -*----------------------------------*\
| =========                 |                                                 |
| \\      /  F ield         | OpenFOAM: The Open Source CFD Toolbox           |
|  \\    /   O peration     | Version:  2.4.0                                 |
|   \\  /    A nd           | Web:      www.OpenFOAM.org                      |
|    \\/     M anipulation  |                                                 |
\*---------------------------------------------------------------------------*/
FoamFile
{
    version     2.0;
    format      ascii;
    class       volVectorField;
    location    "0.149";
    object      U;
}
// * * * * * * * * * * * * * * * * * * * * * * * * * * * * * * * * * * * * * //

dimensions      [0 1 -1 0 0 0 0];

internalField   nonuniform List<vector> 
4400
(
(5.40275 0.316917 0)
(3.31633 0.060561 0)
(2.58054 0.00158835 0)
(2.2384 -0.00220622 0)
(2.08315 -0.00163264 0)
(1.99095 0.000132419 0)
(1.96918 -0.00151401 0)
(1.90236 0.000622072 0)
(1.88543 0.00456146 0)
(1.7782 -0.0708961 0)
(8.68122 0.857586 0)
(7.54576 0.344153 0)
(6.6147 0.116658 0)
(5.92773 0.0537414 0)
(5.5207 0.0276249 0)
(5.25848 0.0159499 0)
(5.19198 0.00758748 0)
(4.97887 0.00930448 0)
(5.01179 0.0214672 0)
(4.83046 -0.115309 0)
(9.88348 0.93774 0)
(10.0034 0.476741 0)
(9.46459 0.2138 0)
(8.78104 0.126623 0)
(8.26562 0.0782579 0)
(7.89231 0.0436892 0)
(7.80683 0.0264581 0)
(7.46236 0.0236568 0)
(7.57865 0.0363545 0)
(7.317 -0.126387 0)
(10.1089 0.807556 0)
(11.1391 0.497843 0)
(11.2292 0.267201 0)
(10.8658 0.191004 0)
(10.4374 0.137362 0)
(10.0553 0.0785647 0)
(10.0011 0.0543566 0)
(9.56245 0.0411703 0)
(9.75629 0.0481505 0)
(9.53224 -0.0907655 0)
(10.0284 0.647195 0)
(11.3666 0.43661 0)
(11.9216 0.248769 0)
(12.013 0.207981 0)
(11.8591 0.177018 0)
(11.6173 0.107149 0)
(11.6679 0.0821785 0)
(11.236 0.0633051 0)
(11.4638 0.048126 0)
(11.3537 -0.0509705 0)
(9.98311 0.514529 0)
(11.3206 0.361387 0)
(11.9586 0.191466 0)
(12.323 0.171389 0)
(12.4245 0.175279 0)
(12.4226 0.105828 0)
(12.6352 0.096166 0)
(12.3671 0.0752331 0)
(12.612 0.049301 0)
(12.6138 -0.027708 0)
(9.96663 0.393373 0)
(11.2759 0.291717 0)
(11.9135 0.144905 0)
(12.3091 0.12181 0)
(12.4712 0.146597 0)
(12.6215 0.0800204 0)
(12.8932 0.0769996 0)
(12.879 0.0793616 0)
(13.114 0.022865 0)
(13.2408 0.0377735 0)
(9.96534 0.270934 0)
(11.2026 0.21449 0)
(11.8984 0.102924 0)
(12.2711 0.0847817 0)
(12.4194 0.110598 0)
(12.6289 0.0533427 0)
(12.8344 0.0454384 0)
(12.984 0.0667011 0)
(13.1639 -0.00489601 0)
(13.4385 0.0278051 0)
(9.98394 0.163747 0)
(11.1486 0.122224 0)
(11.8449 0.0672713 0)
(12.2489 0.0445822 0)
(12.3919 0.0790874 0)
(12.6087 0.0214968 0)
(12.7968 0.0221065 0)
(12.9741 0.0412773 0)
(13.1381 -0.0250532 0)
(13.4436 -0.073761 0)
(10.01 0.0485196 0)
(11.1165 0.040246 0)
(11.8176 0.0278491 0)
(12.2311 0.00664537 0)
(12.3621 0.0403509 0)
(12.6124 -0.00294439 0)
(12.8008 -0.00938776 0)
(12.9346 0.0236818 0)
(13.1347 -0.0599286 0)
(13.3007 -0.0753327 0)
(10.0114 -0.0596773 0)
(11.1038 -0.0463457 0)
(11.8408 -0.00787917 0)
(12.1973 -0.0306091 0)
(12.3678 0.00357824 0)
(12.6407 -0.0384615 0)
(12.7829 -0.027558 0)
(12.9259 -0.00429621 0)
(13.134 -0.0735058 0)
(13.2102 -0.103977 0)
(10.0143 -0.17241 0)
(11.1254 -0.132446 0)
(11.8552 -0.0427986 0)
(12.1892 -0.068179 0)
(12.4323 -0.041436 0)
(12.6296 -0.0630703 0)
(12.7683 -0.0502247 0)
(12.9648 -0.0280001 0)
(13.1349 -0.0939702 0)
(13.2954 -0.158753 0)
(10.0609 -0.284744 0)
(11.1128 -0.214624 0)
(11.9002 -0.08126 0)
(12.2156 -0.109905 0)
(12.4852 -0.0794088 0)
(12.6028 -0.0861295 0)
(12.8227 -0.0756597 0)
(12.9875 -0.0564547 0)
(13.1611 -0.115985 0)
(13.339 -0.196546 0)
(10.0834 -0.402087 0)
(11.1049 -0.287799 0)
(12.0107 -0.1287 0)
(12.2267 -0.14958 0)
(12.5364 -0.118421 0)
(12.6055 -0.110434 0)
(12.8524 -0.10208 0)
(12.8948 -0.0792681 0)
(13.0843 -0.137071 0)
(13.0393 -0.198366 0)
(10.0619 -0.520853 0)
(11.1834 -0.356649 0)
(12.088 -0.185245 0)
(12.2305 -0.190668 0)
(12.4793 -0.155467 0)
(12.4267 -0.130228 0)
(12.5407 -0.114177 0)
(12.4216 -0.0915521 0)
(12.5031 -0.133794 0)
(12.1927 -0.182828 0)
(10.0761 -0.65044 0)
(11.2852 -0.434043 0)
(12.0132 -0.244967 0)
(11.9354 -0.220608 0)
(11.8959 -0.165834 0)
(11.6264 -0.121995 0)
(11.5461 -0.101992 0)
(11.3029 -0.0776861 0)
(11.2595 -0.116271 0)
(10.8403 -0.127534 0)
(10.1361 -0.809542 0)
(11.0879 -0.49656 0)
(11.2936 -0.265162 0)
(10.802 -0.199242 0)
(10.464 -0.131455 0)
(10.0594 -0.0871062 0)
(9.88265 -0.0714699 0)
(9.59899 -0.0541891 0)
(9.51038 -0.0860719 0)
(9.0638 -0.0773525 0)
(9.89686 -0.938374 0)
(9.97277 -0.476314 0)
(9.50702 -0.212693 0)
(8.73503 -0.131178 0)
(8.28044 -0.0760067 0)
(7.89038 -0.0469895 0)
(7.70926 -0.0397936 0)
(7.45256 -0.0313455 0)
(7.36728 -0.0521958 0)
(6.92608 -0.0483968 0)
(8.68733 -0.857789 0)
(7.52982 -0.344275 0)
(6.63739 -0.115989 0)
(5.90058 -0.0558394 0)
(5.5245 -0.0272934 0)
(5.25421 -0.0160428 0)
(5.12313 -0.0153029 0)
(4.94084 -0.0129828 0)
(4.87074 -0.0232775 0)
(4.51054 -0.0194652 0)
(5.40404 -0.316848 0)
(3.31169 -0.0606684 0)
(2.58633 -0.00135757 0)
(2.22997 0.0019025 0)
(2.08091 0.00143485 0)
(1.98844 0.000802563 0)
(1.93997 -0.000404511 0)
(1.86919 -0.00042255 0)
(1.82894 -0.00154373 0)
(1.67229 0.0106227 0)
(2.78284 0.0790402 0)
(2.71968 0.347494 0)
(3.39265 0.202339 0)
(3.94727 0.0972462 0)
(4.17544 0.142668 0)
(4.98554 0.329608 0)
(5.67221 0.5395 0)
(5.93619 0.293757 0)
(6.54607 -0.14845 0)
(6.76756 -0.411263 0)
(7.57416 -1.32917 0)
(7.9812 -1.91429 0)
(8.09417 -1.59589 0)
(8.75439 -1.44843 0)
(9.81479 -1.86475 0)
(8.70932 -1.02457 0)
(9.46614 -0.439106 0)
(10.385 -0.526523 0)
(9.89863 -0.540039 0)
(10.0386 -0.845019 0)
(10.3962 -1.63494 0)
(10.047 -1.94709 0)
(9.86578 -1.90399 0)
(10.8037 -2.61886 0)
(11.3541 -3.64353 0)
(10.4547 -3.85352 0)
(10.7903 -4.18773 0)
(11.5086 -5.48849 0)
(12.4105 -6.43498 0)
(12.9701 -6.82167 0)
(13.0844 -7.19819 0)
(12.8744 -6.44431 0)
(12.4973 -5.19017 0)
(12.379 -3.47671 0)
(11.6063 -1.05409 0)
(10.8644 0.274778 0)
(10.8777 2.08888 0)
(10.6651 5.0777 0)
(9.30052 5.63267 0)
(8.13148 4.63088 0)
(8.39791 4.99274 0)
(7.88748 7.05724 0)
(8.67877 7.65682 0)
(7.85466 7.1537 0)
(8.27412 6.22627 0)
(7.73145 5.25859 0)
(7.98505 3.76869 0)
(7.77541 1.38462 0)
(7.94699 -0.38233 0)
(7.59901 -2.10713 0)
(7.9001 -4.4356 0)
(7.05381 -6.9313 0)
(7.10288 -6.77561 0)
(6.44618 -6.14909 0)
(6.5239 -3.81531 0)
(6.22323 -3.90896 0)
(6.85231 -4.92194 0)
(5.44713 -6.87697 0)
(6.73105 -8.00631 0)
(6.82448 -6.95394 0)
(7.72311 -4.41653 0)
(7.40237 -2.92911 0)
(7.68183 -1.97736 0)
(8.07733 0.775613 0)
(8.26905 3.24057 0)
(7.8807 4.68833 0)
(8.67783 6.78463 0)
(8.54375 8.96588 0)
(8.18285 8.77145 0)
(6.34823 7.16659 0)
(7.23804 5.91232 0)
(5.75121 6.18099 0)
(7.2648 5.85176 0)
(6.41892 5.91212 0)
(8.13039 4.74986 0)
(7.89356 3.82973 0)
(8.14028 1.45284 0)
(8.07556 1.44474 0)
(9.50226 -1.10212 0)
(8.60333 -2.25176 0)
(8.80223 -3.50689 0)
(7.81514 -3.60934 0)
(7.67103 -4.34838 0)
(7.78484 -3.2532 0)
(7.86506 -4.25112 0)
(7.51607 -2.71109 0)
(7.6661 -1.4438 0)
(7.51099 -0.837662 0)
(7.21937 -1.82047 0)
(7.3279 -0.205167 0)
(6.9909 1.19776 0)
(6.99634 1.97017 0)
(6.68702 0.272794 0)
(6.98944 0.523863 0)
(6.98018 -0.0385329 0)
(6.38966 0.93855 0)
(6.90976 2.63687 0)
(6.97616 5.70108 0)
(7.95518 7.55035 0)
(4.48898 12.274 0)
(5.34217 0.143961 0)
(5.2017 0.370385 0)
(5.28762 0.141705 0)
(5.72275 0.0313146 0)
(5.74583 -0.0020494 0)
(6.13782 -0.0573617 0)
(6.77691 0.218516 0)
(7.613 0.139632 0)
(8.31263 -0.416177 0)
(8.34296 -0.656274 0)
(9.53049 -1.48429 0)
(10.0125 -2.03432 0)
(9.29822 -1.79724 0)
(10.3106 -1.79429 0)
(11.1927 -1.87251 0)
(10.1233 -0.97136 0)
(10.7215 -0.601679 0)
(11.0684 -0.666842 0)
(11.0902 -0.64899 0)
(11.5486 -0.869041 0)
(11.9206 -1.44862 0)
(11.4656 -1.76194 0)
(10.9515 -1.95205 0)
(11.7501 -2.82259 0)
(11.6681 -3.53435 0)
(10.7871 -3.79994 0)
(11.4543 -4.44922 0)
(12.0431 -5.76769 0)
(12.39 -6.68247 0)
(12.4265 -6.89161 0)
(12.378 -7.06129 0)
(12.2659 -6.36716 0)
(11.8124 -5.0113 0)
(11.6577 -3.15942 0)
(10.7614 -0.857761 0)
(10.1504 0.420004 0)
(10.2518 2.24486 0)
(10.0822 5.36992 0)
(8.91323 5.97545 0)
(7.86686 4.81947 0)
(8.42195 4.97818 0)
(8.03111 6.96697 0)
(9.03069 7.6501 0)
(8.34163 7.18941 0)
(8.75767 6.2424 0)
(8.4641 5.31951 0)
(8.76107 3.79839 0)
(8.58966 1.40319 0)
(8.67185 -0.363642 0)
(8.28804 -1.96489 0)
(8.5117 -4.28938 0)
(7.65631 -6.72887 0)
(7.63373 -6.69774 0)
(6.69426 -5.87964 0)
(6.40045 -3.65267 0)
(6.41955 -4.03263 0)
(6.20704 -4.72668 0)
(5.27804 -7.0661 0)
(6.56591 -8.20855 0)
(6.39198 -7.07675 0)
(7.15059 -4.63715 0)
(6.96174 -2.97359 0)
(7.10586 -1.9751 0)
(7.32734 0.684875 0)
(7.66808 3.2144 0)
(7.17727 4.82158 0)
(8.02841 6.78931 0)
(7.96364 9.10077 0)
(8.10285 9.0311 0)
(6.24971 7.42658 0)
(7.20982 5.90319 0)
(5.9932 6.22856 0)
(7.43984 5.70137 0)
(7.00956 5.55261 0)
(8.55532 4.47779 0)
(8.84087 3.84853 0)
(8.77185 1.53814 0)
(8.74186 1.12509 0)
(10.0637 -1.19433 0)
(8.89483 -2.00104 0)
(9.04833 -3.17665 0)
(7.92374 -3.22738 0)
(7.9761 -4.43148 0)
(8.20678 -3.22196 0)
(8.30346 -4.23374 0)
(7.75577 -2.58001 0)
(7.8781 -1.48554 0)
(7.58671 -0.635631 0)
(7.49403 -2.0182 0)
(7.70127 -0.0480959 0)
(7.16906 1.13672 0)
(7.06392 2.23533 0)
(7.15168 0.0317523 0)
(7.31367 0.697888 0)
(7.57915 -0.111435 0)
(6.59517 1.20163 0)
(7.36494 2.25936 0)
(7.16979 5.8483 0)
(9.70074 7.26108 0)
(6.4699 13.2893 0)
(7.49424 0.051076 0)
(7.71113 0.334794 0)
(7.63932 0.136388 0)
(7.85856 -0.0931276 0)
(7.98713 -0.0877723 0)
(8.3631 -0.115303 0)
(8.56892 -0.0118312 0)
(9.26512 -0.205364 0)
(10.2631 -0.620018 0)
(10.3203 -0.764867 0)
(11.0382 -1.82378 0)
(11.4981 -2.21066 0)
(10.8935 -1.74033 0)
(11.7397 -2.0073 0)
(11.6749 -1.99208 0)
(11.1499 -1.06304 0)
(11.9674 -0.620283 0)
(11.6772 -0.611599 0)
(11.7777 -0.838357 0)
(11.9739 -1.10554 0)
(12.2489 -1.49465 0)
(12.1441 -1.67383 0)
(11.873 -1.92412 0)
(12.4224 -2.76796 0)
(12.0242 -3.35393 0)
(11.5064 -3.73984 0)
(11.9569 -4.57886 0)
(11.971 -5.8256 0)
(11.9114 -6.70672 0)
(11.7019 -6.85182 0)
(11.5887 -6.91019 0)
(11.4845 -6.26052 0)
(10.9644 -4.80693 0)
(10.7283 -2.84488 0)
(9.75607 -0.688263 0)
(9.30945 0.539337 0)
(9.49539 2.40469 0)
(9.34141 5.56165 0)
(8.41464 6.20791 0)
(7.53978 4.96012 0)
(8.34108 4.89053 0)
(8.10967 6.79178 0)
(9.26145 7.59563 0)
(8.75054 7.18002 0)
(9.19105 6.22223 0)
(9.08843 5.32602 0)
(9.38 3.80634 0)
(9.30393 1.42308 0)
(9.29721 -0.327918 0)
(8.88389 -1.83145 0)
(8.99975 -4.19278 0)
(8.19585 -6.58781 0)
(8.04101 -6.59532 0)
(6.89696 -5.48211 0)
(6.37016 -3.52914 0)
(6.47102 -3.94259 0)
(5.52286 -4.49119 0)
(5.49042 -7.29768 0)
(6.10936 -8.24378 0)
(5.83251 -7.12181 0)
(6.56025 -4.78835 0)
(6.46838 -2.95685 0)
(6.40683 -1.90291 0)
(6.5704 0.701863 0)
(6.89031 2.99439 0)
(6.62082 4.66977 0)
(7.55176 6.54363 0)
(7.58386 8.98214 0)
(7.96311 9.19067 0)
(6.28387 7.67501 0)
(6.96915 5.90358 0)
(6.09479 6.13595 0)
(7.54559 5.4815 0)
(7.51196 5.16387 0)
(8.71522 4.17997 0)
(9.30061 3.80922 0)
(9.1613 1.60918 0)
(9.51361 0.893137 0)
(10.2807 -1.10691 0)
(8.77552 -1.92395 0)
(8.8657 -3.20587 0)
(8.05126 -3.11921 0)
(8.46073 -4.60934 0)
(8.62164 -3.24889 0)
(8.67138 -4.17863 0)
(7.97967 -2.39361 0)
(8.08189 -1.5292 0)
(7.69781 -0.40998 0)
(7.5979 -2.17532 0)
(7.67231 0.203041 0)
(7.25998 1.03679 0)
(6.99881 2.52807 0)
(7.58008 -0.333019 0)
(7.57109 0.925954 0)
(8.3065 -0.270005 0)
(6.72569 1.68299 0)
(8.07207 1.64207 0)
(7.16383 5.99427 0)
(11.1999 6.50459 0)
(8.21551 13.4195 0)
(9.32077 -0.0427027 0)
(9.67917 0.183257 0)
(9.71107 0.101758 0)
(9.8503 -0.121922 0)
(10.0947 -0.227141 0)
(10.3734 -0.280805 0)
(10.5032 -0.144034 0)
(11.3624 -0.385167 0)
(11.7708 -0.878468 0)
(11.9226 -0.970292 0)
(12.8811 -1.83362 0)
(12.4321 -2.22359 0)
(11.9379 -1.87214 0)
(12.8924 -1.99457 0)
(12.0232 -1.81237 0)
(11.798 -1.23601 0)
(12.4903 -0.702447 0)
(12.2797 -0.493833 0)
(12.4888 -0.80394 0)
(12.1499 -1.10343 0)
(12.1891 -1.53229 0)
(12.0894 -1.69392 0)
(11.9705 -1.93527 0)
(12.4574 -2.65129 0)
(12.0657 -3.12589 0)
(11.6513 -3.64829 0)
(11.6799 -4.60805 0)
(11.4103 -5.75499 0)
(11.1892 -6.60364 0)
(10.8328 -6.79242 0)
(10.6534 -6.77346 0)
(10.5285 -6.0846 0)
(9.97716 -4.54033 0)
(9.65925 -2.52774 0)
(8.6564 -0.52752 0)
(8.39068 0.620708 0)
(8.62548 2.57558 0)
(8.40049 5.70228 0)
(7.75799 6.3214 0)
(7.1348 5.03087 0)
(8.11731 4.79431 0)
(8.04407 6.55549 0)
(9.37891 7.42656 0)
(9.11493 7.07491 0)
(9.59139 6.14162 0)
(9.59276 5.3069 0)
(9.81586 3.80977 0)
(9.846 1.40066 0)
(9.77823 -0.259695 0)
(9.43789 -1.65269 0)
(9.43885 -4.0175 0)
(8.76954 -6.36741 0)
(8.28717 -6.37772 0)
(7.03326 -5.00542 0)
(6.36821 -3.41514 0)
(6.30404 -3.67863 0)
(4.99644 -4.34086 0)
(5.52911 -7.53154 0)
(5.05153 -8.18958 0)
(4.94848 -7.25339 0)
(5.88114 -5.02974 0)
(5.86718 -2.95986 0)
(5.74691 -1.87043 0)
(5.79623 0.767011 0)
(6.13554 2.98085 0)
(5.89451 4.66226 0)
(6.92899 6.40315 0)
(6.86736 8.86941 0)
(7.51388 9.29695 0)
(6.33548 7.89397 0)
(6.72373 5.93865 0)
(6.22875 5.97678 0)
(7.58465 5.22477 0)
(7.79109 4.80525 0)
(8.73653 3.88607 0)
(9.30037 3.6242 0)
(9.35944 1.52911 0)
(9.83556 0.571893 0)
(10.1157 -0.89854 0)
(9.07502 -1.57701 0)
(9.04735 -2.93786 0)
(8.58346 -3.02478 0)
(9.0475 -4.77788 0)
(8.9744 -3.23298 0)
(8.9444 -4.08817 0)
(8.20955 -2.18831 0)
(8.28255 -1.59182 0)
(7.89086 -0.135127 0)
(7.72022 -2.29363 0)
(7.4746 0.531779 0)
(7.31627 0.974835 0)
(6.75907 2.71663 0)
(7.70278 -0.91637 0)
(7.31291 1.16914 0)
(9.17541 -0.604913 0)
(6.69928 2.3037 0)
(8.97616 0.966693 0)
(7.1577 6.13313 0)
(12.3063 5.51407 0)
(9.64138 13.1893 0)
(11.0171 -0.0505213 0)
(11.3126 0.0822675 0)
(11.4248 0.0616528 0)
(11.3463 -0.19517 0)
(11.6836 -0.394148 0)
(12.0736 -0.315891 0)
(11.9592 -0.284762 0)
(12.9751 -0.639857 0)
(13.0814 -0.922899 0)
(13.1131 -1.15809 0)
(13.9039 -1.89148 0)
(13.1476 -2.07348 0)
(12.8966 -1.95912 0)
(13.3289 -1.9019 0)
(12.3502 -1.56895 0)
(12.301 -1.3256 0)
(12.2951 -0.774412 0)
(12.4686 -0.53209 0)
(12.6914 -0.738901 0)
(12.2211 -0.988172 0)
(12.2653 -1.45829 0)
(11.8468 -1.63148 0)
(11.6389 -1.98055 0)
(12.0647 -2.61019 0)
(11.516 -2.95177 0)
(11.099 -3.60155 0)
(11.0572 -4.64452 0)
(10.7068 -5.69507 0)
(10.3458 -6.47188 0)
(9.89952 -6.68533 0)
(9.63503 -6.63412 0)
(9.38096 -5.88412 0)
(8.85436 -4.26374 0)
(8.47589 -2.23638 0)
(7.50234 -0.398142 0)
(7.38722 0.691831 0)
(7.68326 2.71419 0)
(7.41693 5.76088 0)
(7.02429 6.31199 0)
(6.69783 4.99565 0)
(7.7784 4.61496 0)
(7.87044 6.2524 0)
(9.34001 7.17838 0)
(9.25135 6.94941 0)
(9.70225 6.06503 0)
(9.834 5.30115 0)
(10.0477 3.76635 0)
(10.2821 1.36413 0)
(10.1237 -0.180043 0)
(9.87635 -1.52424 0)
(9.73851 -3.91304 0)
(9.22487 -6.137 0)
(8.43849 -6.08 0)
(7.16596 -4.51361 0)
(6.34527 -3.21172 0)
(5.98454 -3.35849 0)
(4.81996 -4.24783 0)
(5.07936 -7.43113 0)
(3.58922 -7.92074 0)
(3.84911 -7.4257 0)
(5.10127 -5.27877 0)
(5.19135 -3.0048 0)
(5.08598 -1.75746 0)
(4.97696 0.666963 0)
(5.36002 2.71377 0)
(5.07447 4.55336 0)
(6.36518 6.32144 0)
(6.22507 8.70462 0)
(7.17309 9.24594 0)
(6.4203 8.03358 0)
(6.30922 5.93695 0)
(6.54776 5.73497 0)
(7.71758 4.97484 0)
(7.82476 4.49639 0)
(8.77766 3.5738 0)
(9.16824 3.36626 0)
(9.49288 1.43751 0)
(10.0206 0.425922 0)
(9.57169 -0.722451 0)
(9.24492 -1.53857 0)
(9.12834 -2.90897 0)
(9.20991 -3.03645 0)
(9.52972 -4.80876 0)
(9.21441 -3.2017 0)
(9.06034 -3.96743 0)
(8.34429 -1.99636 0)
(8.38372 -1.62474 0)
(7.9381 0.108174 0)
(7.74696 -2.40325 0)
(7.3144 0.826574 0)
(7.45475 0.799214 0)
(6.78769 3.04137 0)
(7.32031 -1.54048 0)
(6.6847 1.20027 0)
(9.73568 -1.04417 0)
(6.65321 2.9375 0)
(10.0977 0.0764591 0)
(7.1388 6.37364 0)
(12.8532 4.18918 0)
(10.7271 12.7139 0)
(12.3658 -0.0447046 0)
(12.5267 -0.0414371 0)
(12.7497 -0.0228029 0)
(12.6614 -0.149286 0)
(12.9269 -0.503345 0)
(13.0616 -0.421093 0)
(13.0494 -0.400399 0)
(14.0491 -0.762011 0)
(13.7075 -0.93838 0)
(13.9927 -1.33839 0)
(14.252 -1.80996 0)
(13.4508 -1.91797 0)
(13.5001 -1.96468 0)
(13.1401 -1.69954 0)
(12.6243 -1.41511 0)
(12.5805 -1.23684 0)
(12.0062 -0.7217 0)
(12.4873 -0.635334 0)
(12.3903 -0.658749 0)
(12.133 -0.893437 0)
(12.2194 -1.3607 0)
(11.5326 -1.49916 0)
(11.4282 -1.99917 0)
(11.5655 -2.49287 0)
(10.7566 -2.76041 0)
(10.5527 -3.61696 0)
(10.5554 -4.67498 0)
(9.98732 -5.52479 0)
(9.42306 -6.22164 0)
(8.84304 -6.51795 0)
(8.4334 -6.47413 0)
(8.0742 -5.6794 0)
(7.61689 -4.00779 0)
(7.25917 -1.99656 0)
(6.42046 -0.312519 0)
(6.39004 0.755003 0)
(6.6309 2.92074 0)
(6.33721 5.82514 0)
(6.15565 6.23851 0)
(6.14036 4.8941 0)
(7.31047 4.3855 0)
(7.5644 5.89767 0)
(9.0159 6.8819 0)
(9.0647 6.76307 0)
(9.58529 5.95967 0)
(9.91156 5.24607 0)
(10.1897 3.68128 0)
(10.632 1.30997 0)
(10.3629 -0.111003 0)
(10.2318 -1.35996 0)
(9.9764 -3.75537 0)
(9.63484 -5.8682 0)
(8.52699 -5.69032 0)
(7.27112 -4.0298 0)
(6.32757 -2.90125 0)
(5.62845 -3.02987 0)
(4.90457 -4.15109 0)
(4.40548 -6.94906 0)
(2.30842 -7.63975 0)
(3.0082 -7.72711 0)
(4.36068 -5.51597 0)
(4.39502 -3.01812 0)
(4.33375 -1.63103 0)
(4.06435 0.821742 0)
(4.57055 2.65801 0)
(4.63377 4.25437 0)
(5.93524 5.97223 0)
(5.50949 8.3397 0)
(6.63989 9.0681 0)
(6.29461 8.15693 0)
(5.92977 5.84268 0)
(6.79804 5.36669 0)
(7.61996 4.84472 0)
(7.91514 4.19956 0)
(8.83818 3.3979 0)
(9.29957 3.16214 0)
(9.55815 1.33749 0)
(10.2655 0.368945 0)
(9.14353 -0.461342 0)
(9.7415 -1.50798 0)
(9.22357 -2.88195 0)
(9.73071 -3.21538 0)
(9.84359 -4.75054 0)
(9.33077 -3.139 0)
(9.00537 -3.73668 0)
(8.5362 -1.79498 0)
(8.15508 -1.56947 0)
(7.99627 0.353073 0)
(7.46016 -2.44541 0)
(7.22259 1.05692 0)
(7.30839 0.62362 0)
(7.06678 3.28131 0)
(6.94542 -1.69194 0)
(5.44917 1.21586 0)
(9.37378 -1.95964 0)
(6.48698 3.50556 0)
(10.8968 -0.98896 0)
(7.54917 6.66251 0)
(12.8307 2.80115 0)
(11.4507 12.128 0)
(13.1719 -0.0801557 0)
(13.3081 -0.153624 0)
(13.4339 -0.189468 0)
(13.2878 -0.238995 0)
(13.7325 -0.534262 0)
(13.5426 -0.44798 0)
(13.6051 -0.569372 0)
(14.3547 -0.84921 0)
(13.9787 -0.953241 0)
(14.4344 -1.42798 0)
(14.0399 -1.65916 0)
(13.6087 -1.84708 0)
(13.6014 -1.87113 0)
(12.7777 -1.45683 0)
(12.8475 -1.34878 0)
(12.4576 -1.05309 0)
(11.9128 -0.687856 0)
(12.4536 -0.71161 0)
(12.0176 -0.551639 0)
(12.2456 -0.845196 0)
(12.1057 -1.20522 0)
(11.278 -1.40545 0)
(11.3966 -1.99571 0)
(10.9807 -2.25632 0)
(10.1844 -2.59914 0)
(10.3975 -3.63468 0)
(10.1064 -4.52784 0)
(9.12342 -5.21605 0)
(8.32355 -5.92597 0)
(7.67098 -6.31967 0)
(7.12985 -6.28638 0)
(6.693 -5.468 0)
(6.3175 -3.7762 0)
(6.0532 -1.82102 0)
(5.36829 -0.257998 0)
(5.40519 0.810928 0)
(5.4408 3.11387 0)
(5.16159 5.83674 0)
(5.28297 6.03667 0)
(5.54637 4.68892 0)
(6.72727 4.13068 0)
(7.1044 5.54249 0)
(8.49213 6.56485 0)
(8.74534 6.51063 0)
(9.37301 5.78972 0)
(9.86001 5.13047 0)
(10.2624 3.53403 0)
(10.8635 1.2309 0)
(10.4974 -0.0166126 0)
(10.4713 -1.23424 0)
(10.1368 -3.67195 0)
(9.91613 -5.61226 0)
(8.53212 -5.25765 0)
(7.32996 -3.5175 0)
(6.20213 -2.49426 0)
(5.34144 -2.76595 0)
(4.96824 -4.03295 0)
(3.89808 -6.27831 0)
(1.62937 -7.40006 0)
(2.6847 -8.13712 0)
(3.36811 -5.74755 0)
(3.51155 -3.00343 0)
(3.69439 -1.62292 0)
(3.31432 0.645893 0)
(3.9164 2.48801 0)
(3.75386 4.16432 0)
(5.14057 6.10434 0)
(4.74893 8.14064 0)
(5.9654 8.86656 0)
(6.11224 8.2559 0)
(5.88309 5.718 0)
(6.5738 5.03225 0)
(7.29424 4.67999 0)
(8.3043 3.81173 0)
(8.56039 3.28134 0)
(9.76909 2.98362 0)
(9.73653 1.32637 0)
(10.6385 0.412304 0)
(8.92497 -0.290026 0)
(10.3635 -1.59118 0)
(9.29356 -2.87636 0)
(10.3989 -3.39684 0)
(10.0454 -4.52157 0)
(9.49759 -3.00741 0)
(8.89003 -3.53263 0)
(8.82628 -1.59426 0)
(7.57305 -1.47648 0)
(8.34166 0.554614 0)
(7.08201 -2.2426 0)
(7.1528 1.33754 0)
(6.75085 0.469219 0)
(7.35167 3.48297 0)
(6.68733 -1.3604 0)
(4.8373 1.38957 0)
(6.86166 -3.05181 0)
(5.89883 3.81502 0)
(9.59204 -2.32889 0)
(7.91588 6.88259 0)
(12.1873 1.39431 0)
(11.7806 11.3742 0)
(13.41 -0.115111 0)
(13.5086 -0.147508 0)
(13.5211 -0.244277 0)
(13.3761 -0.314765 0)
(13.7607 -0.500938 0)
(13.569 -0.476396 0)
(13.8526 -0.68579 0)
(14.0424 -0.853278 0)
(13.978 -1.03052 0)
(14.3311 -1.42221 0)
(13.7202 -1.5004 0)
(13.7772 -1.76429 0)
(13.3695 -1.63448 0)
(12.761 -1.32833 0)
(13.0277 -1.30296 0)
(12.3261 -0.84863 0)
(12.2927 -0.692388 0)
(12.4072 -0.696933 0)
(11.9102 -0.52561 0)
(12.4778 -0.815606 0)
(11.9645 -0.939059 0)
(11.3627 -1.30055 0)
(11.3555 -1.88481 0)
(10.3772 -1.96318 0)
(9.99569 -2.50858 0)
(10.3161 -3.5587 0)
(9.39195 -4.22475 0)
(8.03558 -4.82287 0)
(7.15113 -5.58947 0)
(6.44935 -6.09046 0)
(5.79668 -6.09217 0)
(5.25045 -5.24624 0)
(4.97884 -3.61738 0)
(4.85063 -1.72666 0)
(4.31532 -0.251249 0)
(4.39643 0.894464 0)
(4.22822 3.28036 0)
(4.03094 5.73657 0)
(4.40106 5.75089 0)
(4.92114 4.44366 0)
(6.10692 3.84829 0)
(6.58554 5.20382 0)
(7.84154 6.20483 0)
(8.30429 6.18941 0)
(9.02868 5.578 0)
(9.71152 4.94205 0)
(10.306 3.29778 0)
(10.993 1.17081 0)
(10.5209 0.0669056 0)
(10.6032 -1.1428 0)
(10.2951 -3.55758 0)
(10.1058 -5.2582 0)
(8.46188 -4.72746 0)
(7.32399 -2.9738 0)
(5.9798 -2.08264 0)
(5.28073 -2.46847 0)
(4.8058 -3.81658 0)
(3.67172 -5.64655 0)
(1.54844 -7.22029 0)
(2.49324 -8.43074 0)
(2.05315 -5.97489 0)
(2.73938 -3.06185 0)
(3.00473 -1.48799 0)
(2.37199 0.69906 0)
(3.48667 2.28479 0)
(3.18413 3.64341 0)
(4.45766 5.88296 0)
(4.44401 7.77837 0)
(5.16799 8.50148 0)
(5.95202 8.12676 0)
(5.70771 5.67262 0)
(6.3061 4.68481 0)
(7.1276 4.28087 0)
(8.53356 3.47301 0)
(8.06867 3.12268 0)
(10.3555 2.61666 0)
(9.93957 1.27696 0)
(10.8765 0.552546 0)
(9.00458 -0.142464 0)
(10.8073 -1.64581 0)
(9.3413 -2.90589 0)
(10.9831 -3.61355 0)
(9.86874 -4.25834 0)
(9.70323 -2.84133 0)
(8.83776 -3.31352 0)
(8.87643 -1.29885 0)
(6.96219 -1.32267 0)
(8.73622 0.557102 0)
(6.59633 -1.94858 0)
(7.18065 1.6235 0)
(6.01317 0.161623 0)
(7.47604 3.58616 0)
(6.90936 -0.851619 0)
(5.52181 1.78348 0)
(4.43634 -3.49362 0)
(5.5634 4.09599 0)
(5.56434 -3.8684 0)
(7.63234 6.8354 0)
(10.8408 0.1844 0)
(11.7156 10.4678 0)
(13.2654 -0.111302 0)
(13.3516 0.0162401 0)
(13.4752 -0.194664 0)
(13.4106 -0.357302 0)
(13.5634 -0.457285 0)
(13.6341 -0.599355 0)
(13.8968 -0.731377 0)
(13.7235 -0.852844 0)
(13.9338 -1.12326 0)
(14.0019 -1.32131 0)
(13.6536 -1.44231 0)
(13.7298 -1.71831 0)
(13.1498 -1.48983 0)
(13.0664 -1.30671 0)
(13.0699 -1.21727 0)
(12.4717 -0.762423 0)
(12.7857 -0.687564 0)
(12.3911 -0.599618 0)
(12.0862 -0.559727 0)
(12.3949 -0.750436 0)
(11.6581 -0.739072 0)
(11.4545 -1.23147 0)
(11.1016 -1.62934 0)
(10.0336 -1.6287 0)
(10.1154 -2.43724 0)
(10.0425 -3.35722 0)
(8.45911 -3.73735 0)
(6.87094 -4.35634 0)
(5.97863 -5.23405 0)
(5.22068 -5.79117 0)
(4.43266 -5.8135 0)
(3.775 -5.01346 0)
(3.56004 -3.46833 0)
(3.57582 -1.68761 0)
(3.10481 -0.244914 0)
(3.22986 1.0714 0)
(3.02068 3.48028 0)
(3.0016 5.53592 0)
(3.62361 5.3688 0)
(4.26395 4.13249 0)
(5.42774 3.55448 0)
(6.02118 4.83004 0)
(7.16332 5.79363 0)
(7.87009 5.81406 0)
(8.68553 5.29353 0)
(9.5828 4.65887 0)
(10.3373 3.01488 0)
(10.9762 1.11612 0)
(10.4224 0.172425 0)
(10.645 -1.07632 0)
(10.3634 -3.45972 0)
(10.1431 -4.93185 0)
(8.30501 -4.20234 0)
(7.25179 -2.41328 0)
(5.72073 -1.6495 0)
(5.3473 -2.14967 0)
(4.47032 -3.52686 0)
(3.66537 -5.05074 0)
(1.79591 -7.00902 0)
(2.09539 -8.35342 0)
(0.464135 -5.91233 0)
(1.99545 -3.22517 0)
(2.29923 -1.76185 0)
(1.78977 0.741709 0)
(2.5986 2.20066 0)
(2.39322 3.73484 0)
(3.50181 5.76492 0)
(4.10166 7.56438 0)
(4.01576 8.15567 0)
(5.75318 7.91749 0)
(5.36057 5.64955 0)
(6.39064 4.29651 0)
(7.02511 3.87278 0)
(8.39213 3.21544 0)
(7.96289 2.7008 0)
(10.6611 2.05312 0)
(9.7816 1.21407 0)
(10.5414 0.675747 0)
(9.13992 -0.180717 0)
(11.0405 -1.76351 0)
(9.74817 -2.97696 0)
(11.544 -3.69332 0)
(9.5376 -3.9091 0)
(10.1011 -2.70839 0)
(8.54918 -3.07146 0)
(8.69509 -0.928366 0)
(6.6038 -1.30427 0)
(8.9067 0.553941 0)
(6.2489 -1.575 0)
(7.16202 1.86963 0)
(5.85739 -0.036987 0)
(6.91972 3.44112 0)
(7.63689 -0.734201 0)
(6.56081 2.40857 0)
(5.35706 -3.13602 0)
(5.97689 4.45353 0)
(3.28576 -4.46611 0)
(7.07498 6.64043 0)
(8.65681 -1.15086 0)
(11.2117 9.28951 0)
(13.0685 -0.104837 0)
(13.3295 0.0426583 0)
(13.6374 -0.245732 0)
(13.6153 -0.350378 0)
(13.6521 -0.409385 0)
(13.7638 -0.725586 0)
(13.6742 -0.696068 0)
(13.6235 -0.806941 0)
(13.8898 -1.16203 0)
(13.6736 -1.28528 0)
(13.6584 -1.47181 0)
(13.6028 -1.59708 0)
(13.1607 -1.38746 0)
(13.2716 -1.30585 0)
(12.9821 -1.09294 0)
(12.7144 -0.720926 0)
(12.881 -0.621519 0)
(12.259 -0.465456 0)
(12.1239 -0.511129 0)
(11.9559 -0.548919 0)
(11.2635 -0.574939 0)
(11.2594 -1.11126 0)
(10.6941 -1.2767 0)
(9.93598 -1.43296 0)
(10.1632 -2.35703 0)
(9.49305 -2.9072 0)
(7.37687 -3.07171 0)
(5.71654 -3.86454 0)
(4.84303 -4.86435 0)
(3.9949 -5.4256 0)
(3.0385 -5.46502 0)
(2.28256 -4.78539 0)
(2.06584 -3.33998 0)
(2.13036 -1.65781 0)
(1.77737 -0.279417 0)
(1.89737 1.19997 0)
(1.6441 3.64236 0)
(2.01598 5.25963 0)
(2.79338 5.01303 0)
(3.5151 3.83466 0)
(4.67718 3.27609 0)
(5.45493 4.50023 0)
(6.56956 5.37745 0)
(7.50921 5.40175 0)
(8.36255 4.9642 0)
(9.43805 4.30349 0)
(10.3061 2.71129 0)
(10.8093 1.10603 0)
(10.2425 0.251534 0)
(10.6291 -1.08622 0)
(10.3649 -3.33681 0)
(10.0808 -4.52853 0)
(8.12672 -3.59109 0)
(7.10137 -1.87426 0)
(5.4612 -1.27728 0)
(5.44524 -1.85067 0)
(4.18904 -3.12159 0)
(3.76177 -4.52441 0)
(1.97894 -6.55275 0)
(1.46095 -7.72045 0)
(-1.02152 -5.87259 0)
(1.57232 -3.54008 0)
(1.31617 -1.74425 0)
(1.35325 0.787792 0)
(2.02831 1.65153 0)
(1.98301 3.65981 0)
(2.98086 5.46933 0)
(3.55077 7.41541 0)
(3.20279 7.7727 0)
(5.55729 7.54235 0)
(5.10951 5.48988 0)
(6.50352 3.94835 0)
(6.73318 3.50149 0)
(8.21974 2.85092 0)
(8.13366 2.17146 0)
(10.3046 1.69051 0)
(9.26002 1.32297 0)
(10.0508 0.719807 0)
(9.52143 -0.337798 0)
(11.2252 -1.88508 0)
(10.3834 -3.05008 0)
(11.8236 -3.64601 0)
(9.30993 -3.56879 0)
(10.5705 -2.50973 0)
(8.08236 -2.73101 0)
(8.74277 -0.524805 0)
(6.62599 -1.35042 0)
(8.76556 0.521896 0)
(6.3569 -1.23026 0)
(7.06265 1.97407 0)
(6.49132 -0.199224 0)
(6.47678 3.46864 0)
(7.50965 -1.28557 0)
(7.3278 2.80529 0)
(7.89389 -3.21272 0)
(6.82632 4.77417 0)
(5.56165 -4.49506 0)
(6.90289 6.36468 0)
(6.58369 -2.10368 0)
(10.3633 7.89562 0)
(13.211 -0.192569 0)
(13.5075 -0.0157994 0)
(13.6873 -0.272425 0)
(13.58 -0.343123 0)
(13.6366 -0.376411 0)
(13.6704 -0.730242 0)
(13.4129 -0.649793 0)
(13.6445 -0.883714 0)
(13.7931 -1.18802 0)
(13.5808 -1.20458 0)
(13.6531 -1.502 0)
(13.4431 -1.55134 0)
(13.2708 -1.34013 0)
(13.2804 -1.28896 0)
(12.8486 -1.00651 0)
(12.762 -0.662265 0)
(12.5184 -0.486543 0)
(11.9085 -0.317644 0)
(11.8629 -0.383439 0)
(11.3994 -0.340461 0)
(11.0105 -0.454999 0)
(11.0711 -0.950463 0)
(10.369 -1.03449 0)
(9.88573 -1.34795 0)
(9.89774 -2.13855 0)
(8.56914 -2.28254 0)
(6.15582 -2.36354 0)
(4.59387 -3.36916 0)
(3.72444 -4.47834 0)
(2.79707 -4.98455 0)
(1.71516 -5.03825 0)
(0.759074 -4.47979 0)
(0.534494 -3.26296 0)
(0.476215 -1.62714 0)
(0.254126 -0.236925 0)
(0.513337 1.33114 0)
(0.422647 3.64716 0)
(1.18491 4.84082 0)
(2.02278 4.61637 0)
(2.96261 3.40248 0)
(4.1223 2.81103 0)
(5.03486 4.0196 0)
(6.11274 4.85693 0)
(7.20994 4.95795 0)
(8.05977 4.5702 0)
(9.30508 3.87969 0)
(10.2013 2.44233 0)
(10.4796 1.1436 0)
(10.0276 0.299198 0)
(10.584 -1.12186 0)
(10.309 -3.20589 0)
(9.89271 -4.06871 0)
(7.8427 -2.97049 0)
(6.87408 -1.35845 0)
(5.28412 -0.919602 0)
(5.4991 -1.60843 0)
(4.03821 -2.79762 0)
(3.86843 -4.15812 0)
(2.02134 -5.94174 0)
(0.854673 -6.95486 0)
(-1.93868 -6.00746 0)
(0.991062 -4.10804 0)
(0.048621 -1.89191 0)
(0.682623 0.667994 0)
(1.22489 1.48348 0)
(1.49681 3.50201 0)
(1.80807 5.06303 0)
(3.19536 7.31603 0)
(2.6458 7.26044 0)
(5.14378 7.0656 0)
(4.76392 5.3064 0)
(6.43372 3.6821 0)
(6.4739 3.15729 0)
(8.1757 2.51255 0)
(8.13802 1.88427 0)
(9.547 1.60827 0)
(8.87264 1.3886 0)
(9.89987 0.569519 0)
(10.062 -0.613689 0)
(11.4404 -2.08252 0)
(10.972 -3.11063 0)
(11.8093 -3.44915 0)
(9.23632 -3.22762 0)
(10.6596 -2.27459 0)
(7.65693 -2.26902 0)
(8.67361 -0.327486 0)
(7.04075 -1.26775 0)
(8.19731 0.624571 0)
(6.56461 -0.992913 0)
(7.14284 2.12053 0)
(6.36082 -0.345728 0)
(6.75118 3.63505 0)
(6.52302 -1.8045 0)
(7.38493 3.06837 0)
(7.0361 -3.7726 0)
(7.37285 4.96966 0)
(6.98879 -3.90628 0)
(7.42932 5.86292 0)
(5.81152 -2.44326 0)
(9.40165 6.30504 0)
(13.3285 -0.232933 0)
(13.4041 0.0301983 0)
(13.4949 -0.225898 0)
(13.3783 -0.335288 0)
(13.548 -0.347178 0)
(13.5347 -0.708654 0)
(13.469 -0.673548 0)
(13.7013 -0.925039 0)
(13.5222 -1.14612 0)
(13.527 -1.17544 0)
(13.5114 -1.49603 0)
(13.1241 -1.46243 0)
(13.0536 -1.29492 0)
(12.8289 -1.20355 0)
(12.3313 -0.844474 0)
(12.2247 -0.536808 0)
(11.8249 -0.318321 0)
(11.5091 -0.198743 0)
(11.4149 -0.263117 0)
(10.9213 -0.185323 0)
(10.8369 -0.385984 0)
(10.7059 -0.780713 0)
(9.9111 -0.808768 0)
(9.60323 -1.21881 0)
(9.25252 -1.74357 0)
(7.44576 -1.50194 0)
(4.99715 -1.63518 0)
(3.5519 -2.87757 0)
(2.6389 -4.07125 0)
(1.69161 -4.54737 0)
(0.490973 -4.56663 0)
(-0.645723 -4.15736 0)
(-1.13653 -3.03083 0)
(-1.2492 -1.61044 0)
(-1.25855 -0.375515 0)
(-0.735727 1.20398 0)
(-0.566543 3.43155 0)
(0.381061 4.41987 0)
(1.31797 4.20866 0)
(2.56384 3.00852 0)
(3.66372 2.49588 0)
(4.78401 3.58403 0)
(5.88901 4.32234 0)
(6.96955 4.49764 0)
(7.74819 4.1422 0)
(9.11484 3.44633 0)
(9.89462 2.22188 0)
(9.9863 1.19 0)
(9.79669 0.26097 0)
(10.5155 -1.20262 0)
(10.1662 -3.04175 0)
(9.56893 -3.54353 0)
(7.44329 -2.34072 0)
(6.54994 -0.851823 0)
(5.10874 -0.672048 0)
(5.52825 -1.37462 0)
(4.00964 -2.48872 0)
(3.95141 -3.76478 0)
(1.96775 -5.287 0)
(0.231176 -6.14286 0)
(-2.66372 -5.75388 0)
(-0.62224 -4.56926 0)
(-1.82499 -1.79879 0)
(-0.316733 0.739188 0)
(-0.457651 0.987151 0)
(0.629301 3.77754 0)
(0.172521 4.46765 0)
(2.94135 7.31903 0)
(1.704 6.82797 0)
(4.64092 6.58103 0)
(4.3895 5.04757 0)
(6.38432 3.39125 0)
(6.42615 2.81407 0)
(8.20805 2.2165 0)
(7.97022 1.73747 0)
(9.11875 1.47358 0)
(8.87436 1.26984 0)
(10.1722 0.231264 0)
(10.5669 -0.985964 0)
(11.7745 -2.32948 0)
(11.3369 -3.07498 0)
(11.7326 -3.12467 0)
(9.09018 -2.90411 0)
(10.499 -1.9903 0)
(7.33184 -1.80815 0)
(8.59703 -0.31491 0)
(7.16928 -1.04856 0)
(7.68633 0.70589 0)
(6.16446 -0.835189 0)
(7.51083 2.29175 0)
(5.47171 -0.384681 0)
(6.6053 3.69244 0)
(5.75726 -2.03701 0)
(7.64552 3.12566 0)
(5.17065 -3.38296 0)
(7.45582 4.96746 0)
(5.74512 -3.67887 0)