/*--------------------------------*- C++ -*----------------------------------*\
| =========                 |                                                 |
| \\      /  F ield         | OpenFOAM: The Open Source CFD Toolbox           |
|  \\    /   O peration     | Version:  2.4.0                                 |
|   \\  /    A nd           | Web:      www.OpenFOAM.org                      |
|    \\/     M anipulation  |                                                 |
\*---------------------------------------------------------------------------*/
FoamFile
{
    version     2.0;
    format      ascii;
    class       surfaceScalarField;
    location    "0.103";
    object      phi_0;
}
// * * * * * * * * * * * * * * * * * * * * * * * * * * * * * * * * * * * * * //

dimensions      [0 3 -1 0 0 0 0];

internalField   nonuniform List<scalar> 
34880
(
5.48914e-06
7.01086e-06
3.12601e-06
2.36313e-06
2.47184e-06
6.54168e-07
2.21724e-06
2.54602e-07
2.07688e-06
1.40361e-07
1.96842e-06
1.0846e-07
1.88511e-06
8.33031e-08
1.82311e-06
6.20092e-08
1.77413e-06
4.89764e-08
1.73638e-06
3.77498e-08
1.71908e-06
1.73011e-08
1.67193e-06
4.7144e-08
1.69079e-06
-1.88601e-08
1.64546e-06
4.53344e-08
1.6545e-06
-9.04527e-09
1.70403e-06
-4.95222e-08
1.73092e-06
-2.68922e-08
1.80294e-06
-7.20191e-08
1.93733e-06
-1.34395e-07
-9.72894e-07
2.91023e-06
1.01132e-05
9.39766e-06
7.8326e-06
4.64374e-06
6.70852e-06
1.77824e-06
6.06235e-06
9.00775e-07
5.6478e-06
5.54909e-07
5.34965e-06
4.06617e-07
5.12181e-06
3.11142e-07
4.94747e-06
2.36344e-07
4.80661e-06
1.89838e-07
4.70367e-06
1.40693e-07
4.62236e-06
9.86144e-08
4.53559e-06
1.33908e-07
4.51436e-06
2.37276e-09
4.4229e-06
1.36796e-07
4.4426e-06
-2.87477e-08
4.45774e-06
-6.46623e-08
4.50134e-06
-7.04902e-08
4.62896e-06
-1.99645e-07
4.94088e-06
-4.46311e-07
-1.6253e-06
5.59328e-06
1.24283e-05
9.46938e-06
1.10079e-05
6.06415e-06
9.97862e-06
2.80749e-06
9.20181e-06
1.67758e-06
8.62062e-06
1.13609e-06
8.19075e-06
8.36489e-07
7.85663e-06
6.45259e-07
7.59748e-06
4.95496e-07
7.38202e-06
4.05299e-07
7.22759e-06
2.95125e-07
7.08564e-06
2.40559e-07
6.97492e-06
2.44634e-07
6.90477e-06
7.25211e-08
6.78206e-06
2.59509e-07
6.8033e-06
-4.99939e-08
6.76924e-06
-3.06018e-08
6.79703e-06
-9.82765e-08
6.95482e-06
-3.57441e-07
7.37506e-06
-8.6655e-07
-2.0403e-06
7.79006e-06
1.34147e-05
8.55467e-06
1.28943e-05
6.58453e-06
1.23249e-05
3.37691e-06
1.17162e-05
2.2863e-06
1.1135e-05
1.71733e-06
1.06596e-05
1.31186e-06
1.02724e-05
1.03244e-06
9.96329e-06
8.04617e-07
9.69617e-06
6.72417e-07
9.50911e-06
4.82185e-07
9.31564e-06
4.34028e-07
9.18952e-06
3.7075e-07
9.08296e-06
1.79082e-07
8.92249e-06
4.19985e-07
8.95416e-06
-8.16666e-08
8.87692e-06
4.66318e-08
8.86258e-06
-8.39358e-08
9.02437e-06
-5.19231e-07
9.47726e-06
-1.31943e-06
-2.53323e-06
9.97019e-06
1.35915e-05
7.4632e-06
1.36667e-05
6.50926e-06
1.3624e-05
3.4196e-06
1.34008e-05
2.50951e-06
1.30195e-05
2.09864e-06
1.26267e-05
1.70464e-06
1.22703e-05
1.38884e-06
1.19706e-05
1.10432e-06
1.16896e-05
9.53443e-07
1.15021e-05
6.69663e-07
1.12772e-05
6.58929e-07
1.11471e-05
5.00877e-07
1.10302e-05
2.95968e-07
1.08261e-05
6.24098e-07
1.08802e-05
-1.358e-07
1.07775e-05
1.49404e-07
1.07151e-05
-2.15458e-08
1.08629e-05
-6.6703e-07
1.12876e-05
-1.74419e-06
-3.22661e-06
1.1981e-05
1.34795e-05
6.48372e-06
1.37597e-05
6.22906e-06
1.40018e-05
3.17747e-06
1.41424e-05
2.36892e-06
1.40832e-05
2.15787e-06
1.39037e-05
1.88407e-06
1.3688e-05
1.60463e-06
1.34853e-05
1.30693e-06
1.32512e-05
1.18763e-06
1.31117e-05
8.09078e-07
1.2893e-05
8.77719e-07
1.27728e-05
6.21065e-07
1.26875e-05
3.81202e-07
1.24426e-05
8.68987e-07
1.25288e-05
-2.21964e-07
1.24268e-05
2.51436e-07
1.23244e-05
8.08582e-08
1.24448e-05
-7.87476e-07
1.28828e-05
-2.1822e-06
-3.77394e-06
1.34302e-05
1.33532e-05
5.63053e-06
1.36943e-05
5.88793e-06
1.39436e-05
2.92818e-06
1.42153e-05
2.09723e-06
1.43851e-05
1.98809e-06
1.44179e-05
1.85129e-06
1.43899e-05
1.63258e-06
1.43552e-05
1.34162e-06
1.42396e-05
1.30331e-06
1.42072e-05
8.41473e-07
1.40575e-05
1.0274e-06
1.39704e-05
7.08201e-07
1.39659e-05
3.85699e-07
1.3705e-05
1.12982e-06
1.38276e-05
-3.44499e-07
1.37583e-05
3.2069e-07
1.36359e-05
2.03254e-07
1.37405e-05
-8.92085e-07
1.41671e-05
-2.60882e-06
-3.37593e-06
1.37691e-05
1.32547e-05
4.87586e-06
1.3678e-05
5.46462e-06
1.38273e-05
2.77886e-06
1.40875e-05
1.837e-06
1.43157e-05
1.75988e-06
1.4447e-05
1.72006e-06
1.45214e-05
1.55818e-06
1.46122e-05
1.25082e-06
1.46214e-05
1.29404e-06
1.47014e-05
7.61454e-07
1.46707e-05
1.05818e-06
1.46406e-05
7.38266e-07
1.47509e-05
2.75433e-07
1.45262e-05
1.35454e-06
1.46929e-05
-5.11223e-07
1.46814e-05
3.32171e-07
1.45727e-05
3.11903e-07
1.4724e-05
-1.04338e-06
1.50151e-05
-2.89987e-06
-2.6992e-06
1.43384e-05
1.31868e-05
4.18908e-06
1.36121e-05
5.03928e-06
1.37337e-05
2.6573e-06
1.39797e-05
1.59099e-06
1.41876e-05
1.55193e-06
1.43357e-05
1.57196e-06
1.44371e-05
1.45682e-06
1.45509e-05
1.13696e-06
1.46461e-05
1.1989e-06
1.47652e-05
6.42317e-07
1.48205e-05
1.00286e-06
1.48462e-05
7.12572e-07
1.5016e-05
1.05649e-07
1.48715e-05
1.49908e-06
1.50791e-05
-7.18813e-07
1.51281e-05
2.83162e-07
1.50542e-05
3.85788e-07
1.52994e-05
-1.28854e-06
1.55526e-05
-3.15313e-06
-3.29148e-06
1.61449e-05
1.31347e-05
3.5544e-06
1.35619e-05
4.61203e-06
1.36533e-05
2.56594e-06
1.39025e-05
1.34183e-06
1.41021e-05
1.35228e-06
1.42317e-05
1.44233e-06
1.43536e-05
1.33496e-06
1.44008e-05
1.08971e-06
1.45839e-05
1.01582e-06
1.46827e-05
5.43535e-07
1.47591e-05
9.26461e-07
1.48673e-05
6.04369e-07
1.49565e-05
1.64291e-08
1.49205e-05
1.5351e-06
1.51272e-05
-9.25512e-07
1.51881e-05
2.223e-07
1.51603e-05
4.13602e-07
1.54688e-05
-1.59712e-06
1.56633e-05
-3.34754e-06
-3.87625e-06
1.6248e-05
1.30619e-05
2.99254e-06
1.35264e-05
4.14751e-06
1.36063e-05
2.48604e-06
1.38401e-05
1.108e-06
1.40296e-05
1.16276e-06
1.41789e-05
1.29309e-06
1.43242e-05
1.18967e-06
1.4271e-05
1.14285e-06
1.45276e-05
7.59202e-07
1.45777e-05
4.9346e-07
1.4661e-05
8.43157e-07
1.48438e-05
4.21612e-07
1.48057e-05
5.45293e-08
1.49176e-05
1.42317e-06
1.50518e-05
-1.05969e-06
1.50781e-05
1.95963e-07
1.51433e-05
3.48388e-07
1.54282e-05
-1.88201e-06
1.55838e-05
-3.50309e-06
-4.41911e-06
1.61266e-05
1.29884e-05
2.5041e-06
1.34916e-05
3.64431e-06
1.35824e-05
2.39525e-06
1.37825e-05
9.07973e-07
1.39558e-05
9.8942e-07
1.41574e-05
1.09154e-06
1.4278e-05
1.06904e-06
1.42343e-05
1.18649e-06
1.44831e-05
5.10467e-07
1.44635e-05
5.13069e-07
1.46114e-05
6.9524e-07
1.47693e-05
2.63635e-07
1.47056e-05
1.18242e-07
1.49302e-05
1.19859e-06
1.49356e-05
-1.06509e-06
1.49574e-05
1.74219e-07
1.5132e-05
1.73702e-07
1.53436e-05
-2.09357e-06
1.54293e-05
-3.58877e-06
-4.8283e-06
1.58385e-05
1.29404e-05
2.0637e-06
1.3433e-05
3.15169e-06
1.35788e-05
2.24945e-06
1.37376e-05
7.49224e-07
1.39065e-05
8.20469e-07
1.41099e-05
8.88134e-07
1.42011e-05
9.77903e-07
1.42719e-05
1.11567e-06
1.44136e-05
3.68748e-07
1.43855e-05
5.41176e-07
1.46109e-05
4.69805e-07
1.46488e-05
2.25737e-07
1.46716e-05
9.54766e-08
1.49253e-05
9.4491e-07
1.4775e-05
-9.14773e-07
1.4922e-05
2.717e-08
1.51393e-05
-4.35818e-08
1.52256e-05
-2.17993e-06
1.52982e-05
-3.66137e-06
-5.05319e-06
1.55231e-05
1.28974e-05
1.66632e-06
1.33494e-05
2.69969e-06
1.36013e-05
1.99752e-06
1.37189e-05
6.3165e-07
1.38697e-05
6.69714e-07
1.40283e-05
7.29492e-07
1.41485e-05
8.57683e-07
1.42833e-05
9.8088e-07
1.43242e-05
3.27808e-07
1.43983e-05
4.67112e-07
1.45693e-05
2.98809e-07
1.45416e-05
2.53416e-07
1.46782e-05
-4.11414e-08
1.48446e-05
7.78561e-07
1.46658e-05
-7.35979e-07
1.49688e-05
-2.75866e-07
1.51069e-05
-1.81645e-07
1.51216e-05
-2.19466e-06
1.52224e-05
-3.76215e-06
-5.21856e-06
1.53878e-05
1.28472e-05
1.31911e-06
1.32956e-05
2.25129e-06
1.36103e-05
1.68287e-06
1.36931e-05
5.48767e-07
1.38241e-05
5.38743e-07
1.39582e-05
5.95446e-07
1.41274e-05
6.88393e-07
1.42437e-05
8.64636e-07
1.42744e-05
2.97049e-07
1.44389e-05
3.02613e-07
1.44704e-05
2.67385e-07
1.45115e-05
2.12288e-07
1.46677e-05
-1.9739e-07
1.47273e-05
7.18959e-07
1.46897e-05
-6.98369e-07
1.4979e-05
-5.65173e-07
1.50267e-05
-2.29275e-07
1.50694e-05
-2.23742e-06
1.51949e-05
-3.88759e-06
-5.4242e-06
1.54005e-05
1.28144e-05
1.00474e-06
1.32816e-05
1.78407e-06
1.35892e-05
1.37529e-06
1.36526e-05
4.85386e-07
1.37898e-05
4.01495e-07
1.39316e-05
4.53687e-07
1.40989e-05
5.21083e-07
1.41942e-05
7.69332e-07
1.42817e-05
2.09518e-07
1.44134e-05
1.70928e-07
1.43954e-05
2.85384e-07
1.45427e-05
6.49759e-08
1.4602e-05
-2.56718e-07
1.46595e-05
6.61465e-07
1.47507e-05
-7.89529e-07
1.49015e-05
-7.15993e-07
1.49448e-05
-2.72538e-07
1.50604e-05
-2.35304e-06
1.51845e-05
-4.01173e-06
-5.46714e-06
1.52275e-05
1.27978e-05
7.069e-07
1.32489e-05
1.33301e-06
1.35395e-05
1.08466e-06
1.36476e-05
3.77282e-07
1.3781e-05
2.68129e-07
1.39163e-05
3.18349e-07
1.4044e-05
3.93468e-07
1.41686e-05
6.4472e-07
1.42957e-05
8.24126e-08
1.43366e-05
1.29998e-07
1.44056e-05
2.16356e-07
1.45516e-05
-8.10106e-08
1.45052e-05
-2.10266e-07
1.46693e-05
4.97332e-07
1.47445e-05
-8.64772e-07
1.47943e-05
-7.65777e-07
1.49108e-05
-3.89e-07
1.50728e-05
-2.51502e-06
1.51033e-05
-4.04226e-06
-5.23968e-06
1.48758e-05
1.27722e-05
4.3471e-07
1.32083e-05
8.96854e-07
1.35268e-05
7.66178e-07
1.36675e-05
2.36603e-07
1.3763e-05
1.72634e-07
1.38779e-05
2.03453e-07
1.39996e-05
2.71742e-07
1.41834e-05
4.60993e-07
1.42706e-05
-4.81937e-09
1.42905e-05
1.1011e-07
1.44482e-05
5.86817e-08
1.44882e-05
-1.2103e-07
1.44483e-05
-1.70441e-07
1.47083e-05
2.37428e-07
1.46873e-05
-8.43842e-07
1.47324e-05
-8.10852e-07
1.49279e-05
-5.8447e-07
1.5043e-05
-2.63014e-06
1.49679e-05
-3.96713e-06
-5.09853e-06
1.48267e-05
1.27555e-05
1.79206e-07
1.32053e-05
4.47036e-07
1.35348e-05
4.36705e-07
1.36595e-05
1.11878e-07
1.37355e-05
9.66696e-08
1.38501e-05
8.87909e-08
1.40037e-05
1.18186e-07
1.4199e-05
2.65646e-07
1.42181e-05
-2.39048e-08
1.43003e-05
2.79126e-08
1.44479e-05
-8.88887e-08
1.44119e-05
-8.50146e-08
1.44851e-05
-2.43672e-07
1.46997e-05
2.28934e-08
1.4648e-05
-7.922e-07
1.47296e-05
-8.924e-07
1.49272e-05
-7.82124e-07
1.49697e-05
-2.67262e-06
1.49078e-05
-3.90523e-06
-5.17371e-06
1.4983e-05
1.27626e-05
-8.33536e-08
1.32101e-05
-5.43695e-10
1.35138e-05
1.33087e-07
1.36491e-05
-2.34706e-08
1.37308e-05
1.50101e-08
1.38532e-05
-3.36057e-08
1.40226e-05
-5.12173e-08
1.41735e-05
1.1473e-07
1.41826e-05
-3.29968e-08
1.434e-05
-1.295e-07
1.44103e-05
-1.59187e-07
1.44072e-05
-8.19606e-08
1.45313e-05
-3.67728e-07
1.46652e-05
-1.10994e-07
1.46208e-05
-7.47857e-07
1.47459e-05
-1.01743e-06
1.48948e-05
-9.3109e-07
1.49183e-05
-2.69612e-06
1.49122e-05
-3.89915e-06
-5.38972e-06
1.51283e-05
1.27717e-05
-3.5502e-07
1.31926e-05
-4.21501e-07
1.34952e-05
-1.69468e-07
1.36677e-05
-1.96031e-07
1.37307e-05
-4.79026e-08
1.38631e-05
-1.66036e-07
1.40224e-05
-2.10498e-07
1.4132e-05
5.09939e-09
1.42089e-05
-1.09894e-07
1.43628e-05
-2.83413e-07
1.43819e-05
-1.78322e-07
1.44313e-05
-1.31335e-07
1.45394e-05
-4.75779e-07
1.46259e-05
-1.97526e-07
1.46272e-05
-7.49165e-07
1.47484e-05
-1.13862e-06
1.48951e-05
-1.07779e-06
1.48814e-05
-2.68242e-06
1.48913e-05
-3.90902e-06
-5.69333e-06
1.51949e-05
1.27709e-05
-6.25938e-07
1.31757e-05
-8.26265e-07
1.35132e-05
-5.07001e-07
1.36801e-05
-3.62883e-07
1.37177e-05
-8.55851e-08
1.38819e-05
-3.30153e-07
1.4018e-05
-3.46667e-07
1.4121e-05
-9.78497e-08
1.42681e-05
-2.56964e-07
1.43445e-05
-3.59895e-07
1.43706e-05
-2.04389e-07
1.44489e-05
-2.09672e-07
1.45416e-05
-5.68395e-07
1.46009e-05
-2.56896e-07
1.46632e-05
-8.11454e-07
1.47437e-05
-1.21912e-06
1.48899e-05
-1.22396e-06
1.48616e-05
-2.65414e-06
1.47909e-05
-3.83827e-06
-4.48836e-06
1.35859e-05
1.27672e-05
-8.93182e-07
1.31906e-05
-1.24958e-06
1.35496e-05
-8.66042e-07
1.36706e-05
-4.83846e-07
1.3721e-05
-1.36019e-07
1.39145e-05
-5.23699e-07
1.40097e-05
-4.41812e-07
1.41491e-05
-2.37248e-07
1.42919e-05
-3.998e-07
1.43226e-05
-3.9057e-07
1.4378e-05
-2.59811e-07
1.44906e-05
-3.22232e-07
1.45268e-05
-6.04658e-07
1.4626e-05
-3.56101e-07
1.46691e-05
-8.54479e-07
1.47581e-05
-1.30813e-06
1.48583e-05
-1.32418e-06
1.48753e-05
-2.67113e-06
1.48773e-05
-3.8403e-06
-4.72194e-06
1.51109e-05
1.27762e-05
-1.16935e-06
1.32371e-05
-1.71054e-06
1.35756e-05
-1.20456e-06
1.36548e-05
-5.63026e-07
1.37563e-05
-2.37492e-07
1.394e-05
-7.0735e-07
1.40027e-05
-5.04521e-07
1.4188e-05
-4.22551e-07
1.43004e-05
-5.12227e-07
1.43179e-05
-4.08105e-07
1.44308e-05
-3.72674e-07
1.45093e-05
-4.00723e-07
1.45289e-05
-6.24307e-07
1.46433e-05
-4.70466e-07
1.46827e-05
-8.93869e-07
1.47621e-05
-1.38754e-06
1.48556e-05
-1.41769e-06
1.49011e-05
-2.71667e-06
1.49003e-05
-3.83947e-06
-4.84244e-06
1.50208e-05
1.28097e-05
-1.47905e-06
1.32898e-05
-2.19066e-06
1.35712e-05
-1.48594e-06
1.36633e-05
-6.5512e-07
1.38053e-05
-3.7954e-07
1.39403e-05
-8.42319e-07
1.40246e-05
-5.88799e-07
1.42312e-05
-6.2914e-07
1.43038e-05
-5.84858e-07
1.43496e-05
-4.53928e-07
1.44731e-05
-4.96114e-07
1.45143e-05
-4.41962e-07
1.45485e-05
-6.58519e-07
1.46686e-05
-5.90582e-07
1.47092e-05
-9.34456e-07
1.47756e-05
-1.45392e-06
1.48765e-05
-1.51857e-06
1.49247e-05
-2.76488e-06
1.49075e-05
-3.82229e-06
-4.83779e-06
1.49029e-05
1.28552e-05
-1.83422e-06
1.33181e-05
-2.65362e-06
1.35675e-05
-1.73533e-06
1.37035e-05
-7.91074e-07
1.38357e-05
-5.11726e-07
1.39497e-05
-9.56399e-07
1.40825e-05
-7.21526e-07
1.42617e-05
-8.08353e-07
1.43225e-05
-6.45652e-07
1.43936e-05
-5.25086e-07
1.44929e-05
-5.95382e-07
1.45432e-05
-4.92256e-07
1.45807e-05
-6.96023e-07
1.47086e-05
-7.18498e-07
1.47345e-05
-9.60352e-07
1.47993e-05
-1.51868e-06
1.48937e-05
-1.61299e-06
1.49495e-05
-2.82071e-06
1.49172e-05
-3.78996e-06
-4.77767e-06
1.48571e-05
1.28932e-05
-2.2274e-06
1.33425e-05
-3.10289e-06
1.35973e-05
-1.9902e-06
1.37415e-05
-9.35256e-07
1.38538e-05
-6.24015e-07
1.39998e-05
-1.1024e-06
1.41442e-05
-8.659e-07
1.42842e-05
-9.48414e-07
1.43596e-05
-7.21056e-07
1.44313e-05
-5.96708e-07
1.45261e-05
-6.90267e-07
1.45876e-05
-5.53672e-07
1.46225e-05
-7.3095e-07
1.47465e-05
-8.42545e-07
1.47676e-05
-9.81404e-07
1.48295e-05
-1.58058e-06
1.49201e-05
-1.70363e-06
1.49724e-05
-2.87296e-06
1.49398e-05
-3.7574e-06
-4.78483e-06
1.4947e-05
1.29307e-05
-2.65806e-06
1.33941e-05
-3.56633e-06
1.3605e-05
-2.20114e-06
1.37588e-05
-1.08906e-06
1.38969e-05
-7.62039e-07
1.40701e-05
-1.27559e-06
1.41921e-05
-9.8798e-07
1.43176e-05
-1.07383e-06
1.44044e-05
-8.07882e-07
1.44764e-05
-6.6869e-07
1.45739e-05
-7.87853e-07
1.4634e-05
-6.13757e-07
1.4667e-05
-7.63926e-07
1.47886e-05
-9.64169e-07
1.48143e-05
-1.00706e-06
1.48709e-05
-1.63717e-06
1.49481e-05
-1.78084e-06
1.50056e-05
-2.93046e-06
1.49835e-05
-3.73529e-06
-4.84529e-06
1.50439e-05
1.29862e-05
-3.14423e-06
1.34604e-05
-4.04059e-06
1.36049e-05
-2.34561e-06
1.37816e-05
-1.26575e-06
1.39664e-05
-9.46809e-07
1.41307e-05
-1.43994e-06
1.42475e-05
-1.10478e-06
1.43632e-05
-1.18954e-06
1.44565e-05
-9.01166e-07
1.45272e-05
-7.39334e-07
1.46243e-05
-8.85033e-07
1.46791e-05
-6.68534e-07
1.47226e-05
-8.07444e-07
1.48416e-05
-1.08316e-06
1.48714e-05
-1.03678e-06
1.49164e-05
-1.68219e-06
1.49839e-05
-1.8484e-06
1.50409e-05
-2.9874e-06
1.50208e-05
-3.71525e-06
-4.89924e-06
1.50748e-05
1.30549e-05
-3.6991e-06
1.35123e-05
-4.49807e-06
1.36216e-05
-2.4549e-06
1.38286e-05
-1.47267e-06
1.40436e-05
-1.16184e-06
1.41938e-05
-1.59012e-06
1.43185e-05
-1.22954e-06
1.44132e-05
-1.28426e-06
1.45107e-05
-9.98634e-07
1.4577e-05
-8.0564e-07
1.46777e-05
-9.85753e-07
1.47356e-05
-7.264e-07
1.47967e-05
-8.68489e-07
1.48997e-05
-1.18619e-06
1.49344e-05
-1.07154e-06
1.49654e-05
-1.71312e-06
1.50157e-05
-1.89876e-06
1.50498e-05
-3.02144e-06
1.5016e-05
-3.68148e-06
-4.94111e-06
1.50578e-05
1.31184e-05
-4.31751e-06
1.35532e-05
-4.9329e-06
1.36615e-05
-2.56315e-06
1.38989e-05
-1.71011e-06
1.41305e-05
-1.39336e-06
1.42671e-05
-1.72675e-06
1.43919e-05
-1.35438e-06
1.44696e-05
-1.36193e-06
1.45674e-05
-1.0964e-06
1.46443e-05
-8.82612e-07
1.47435e-05
-1.08488e-06
1.4807e-05
-7.8993e-07
1.48739e-05
-9.35377e-07
1.49478e-05
-1.26007e-06
1.49824e-05
-1.10619e-06
1.49794e-05
-1.71006e-06
1.50001e-05
-1.91949e-06
1.49603e-05
-2.98166e-06
1.48617e-05
-3.58283e-06
-4.95677e-06
1.48773e-05
1.31758e-05
-4.99333e-06
1.36015e-05
-5.3586e-06
1.37343e-05
-2.69589e-06
1.39897e-05
-1.96556e-06
1.42261e-05
-1.62978e-06
1.43487e-05
-1.84937e-06
1.44739e-05
-1.47954e-06
1.45414e-05
-1.42942e-06
1.46362e-05
-1.19118e-06
1.47223e-05
-9.68721e-07
1.47867e-05
-1.1493e-06
1.48403e-05
-8.43529e-07
1.48823e-05
-9.77356e-07
1.4894e-05
-1.27174e-06
1.48948e-05
-1.10699e-06
1.48233e-05
-1.63864e-06
1.47708e-05
-1.867e-06
1.45911e-05
-2.80192e-06
1.4367e-05
-3.3587e-06
-4.87982e-06
1.429e-05
1.3241e-05
-5.73437e-06
1.36633e-05
-5.78091e-06
1.38368e-05
-2.86935e-06
1.40964e-05
-2.22512e-06
1.43361e-05
-1.86952e-06
1.44368e-05
-1.9501e-06
1.4542e-05
-1.58471e-06
1.45778e-05
-1.46518e-06
1.46266e-05
-1.23997e-06
1.46643e-05
-1.00644e-06
1.46408e-05
-1.12584e-06
1.46357e-05
-8.38365e-07
1.45978e-05
-9.39508e-07
1.45099e-05
-1.18384e-06
1.4436e-05
-1.03308e-06
1.42754e-05
-1.47802e-06
1.41157e-05
-1.70735e-06
1.38073e-05
-2.49346e-06
1.34232e-05
-2.97468e-06
-3.81461e-06
1.2358e-05
1.33306e-05
-6.56499e-06
1.36869e-05
-6.1372e-06
1.39591e-05
-3.14157e-06
1.42091e-05
-2.47511e-06
1.43981e-05
-2.05853e-06
1.44062e-05
-1.9582e-06
1.44021e-05
-1.5806e-06
1.43275e-05
-1.39056e-06
1.42479e-05
-1.16041e-06
1.41683e-05
-9.2679e-07
1.40291e-05
-9.86679e-07
1.39347e-05
-7.43998e-07
1.38059e-05
-8.10629e-07
1.36347e-05
-1.01264e-06
1.34924e-05
-8.90794e-07
1.32678e-05
-1.25342e-06
1.30249e-05
-1.46447e-06
1.26433e-05
-2.11189e-06
1.22086e-05
-2.53998e-06
-3.47408e-06
1.18681e-05
1.34558e-05
-7.52084e-06
1.3759e-05
-6.44032e-06
1.40152e-05
-3.39782e-06
1.41285e-05
-2.58839e-06
1.40965e-05
-2.02649e-06
1.38945e-05
-1.75619e-06
1.36931e-05
-1.37928e-06
1.34634e-05
-1.16078e-06
1.32516e-05
-9.48682e-07
1.30701e-05
-7.45305e-07
1.2858e-05
-7.74525e-07
1.27067e-05
-5.92702e-07
1.25284e-05
-6.32307e-07
1.23172e-05
-8.01469e-07
1.21385e-05
-7.12057e-07
1.18815e-05
-9.96477e-07
1.15945e-05
-1.17742e-06
1.11768e-05
-1.69424e-06
1.06796e-05
-2.04279e-06
-2.63406e-06
9.83961e-06
1.35719e-05
-8.59278e-06
1.36695e-05
-6.53786e-06
1.36338e-05
-3.36216e-06
1.33868e-05
-2.34135e-06
1.30309e-05
-1.67063e-06
1.26186e-05
-1.34385e-06
1.22701e-05
-1.03079e-06
1.19516e-05
-8.42287e-07
1.1682e-05
-6.79064e-07
1.14615e-05
-5.24761e-07
1.12317e-05
-5.44796e-07
1.10634e-05
-4.24376e-07
1.08728e-05
-4.41679e-07
1.06543e-05
-5.8299e-07
1.04639e-05
-5.21682e-07
1.01983e-05
-7.30863e-07
9.89577e-06
-8.74899e-07
9.46417e-06
-1.26264e-06
8.95621e-06
-1.53483e-06
-1.93123e-06
8.25338e-06
1.33994e-05
-9.49221e-06
1.28978e-05
-6.03623e-06
1.2332e-05
-2.79635e-06
1.17047e-05
-1.71408e-06
1.11433e-05
-1.10926e-06
1.06524e-05
-8.52925e-07
1.02694e-05
-6.47811e-07
9.9462e-06
-5.1906e-07
9.68274e-06
-4.15599e-07
9.47154e-06
-3.13565e-07
9.26047e-06
-3.33726e-07
9.10143e-06
-2.65328e-07
8.92539e-06
-2.65645e-07
8.7211e-06
-3.78697e-07
8.53733e-06
-3.37914e-07
8.2838e-06
-4.77332e-07
7.98724e-06
-5.78338e-07
7.57053e-06
-8.45932e-07
7.06897e-06
-1.03327e-06
-1.33275e-06
6.47049e-06
1.24168e-05
-9.40904e-06
1.1011e-05
-4.63042e-06
9.98463e-06
-1.76996e-06
9.19307e-06
-9.22523e-07
8.62557e-06
-5.41751e-07
8.18495e-06
-4.12306e-07
7.85237e-06
-3.15232e-07
7.58185e-06
-2.48544e-07
7.3652e-06
-1.98942e-07
7.19523e-06
-1.43597e-07
7.02502e-06
-1.63523e-07
6.89273e-06
-1.33032e-07
6.7508e-06
-1.23714e-07
6.57486e-06
-2.02762e-07
6.41376e-06
-1.7681e-07
6.19111e-06
-2.54687e-07
5.92368e-06
-3.10906e-07
5.54629e-06
-4.68546e-07
5.08193e-06
-5.68905e-07
-7.88112e-07
4.53729e-06
1.01054e-05
-7.01449e-06
7.83438e-06
-2.35935e-06
6.71431e-06
-6.49896e-07
6.05528e-06
-2.63486e-07
5.64993e-06
-1.36404e-07
5.34603e-06
-1.08406e-07
5.11699e-06
-8.61917e-08
4.93444e-06
-6.59919e-08
4.78932e-06
-5.38266e-08
4.68021e-06
-3.4487e-08
4.56378e-06
-4.70891e-08
4.47103e-06
-4.02781e-08
4.3777e-06
-3.03882e-08
4.24253e-06
-6.75889e-08
4.12211e-06
-5.63947e-08
3.95079e-06
-8.3364e-08
3.74197e-06
-1.02089e-07
3.4363e-06
-1.62873e-07
3.06283e-06
-1.95442e-07
-3.26773e-07
2.6015e-06
5.48551e-06
3.12616e-06
2.47627e-06
2.21278e-06
2.07638e-06
1.96797e-06
1.88178e-06
1.81579e-06
1.76196e-06
1.72747e-06
1.68038e-06
1.64011e-06
1.60972e-06
1.54213e-06
1.48573e-06
1.40237e-06
1.30028e-06
1.13741e-06
9.41965e-07
6.15193e-07
4.0921e-06
-2.74586e-07
-9.07287e-07
4.93571e-06
1.24447e-07
-9.68056e-07
5.75732e-06
2.53013e-07
-1.07463e-06
6.88937e-06
-9.21789e-07
-2.10256e-07
7.89839e-06
-2.23528e-06
1.22626e-06
8.55641e-06
-4.86758e-06
4.20956e-06
9.40895e-06
-8.62099e-06
7.76846e-06
9.62606e-06
-1.08214e-05
1.06043e-05
9.43114e-06
-1.35412e-05
1.37361e-05
8.98435e-06
-1.44441e-05
1.48908e-05
8.4662e-06
-1.44021e-05
1.49202e-05
7.91074e-06
-1.33088e-05
1.38643e-05
6.92709e-06
-1.05228e-05
1.15065e-05
5.90483e-06
-7.58149e-06
8.60375e-06
4.28127e-06
-5.27167e-06
6.89523e-06
2.63483e-06
-2.10758e-06
3.75402e-06
2.74697e-06
-6.4664e-08
-4.74778e-08
4.18682e-06
2.19457e-06
-3.63441e-06
5.05224e-06
1.3445e-05
-1.43104e-05
5.9297e-06
1.7643e-05
-1.85205e-05
6.61072e-06
1.39268e-05
-1.46078e-05
7.50438e-06
1.31911e-05
-1.40848e-05
8.44601e-06
1.16113e-05
-1.25529e-05
9.09742e-06
1.07474e-05
-1.13988e-05
9.54356e-06
1.01167e-05
-1.05628e-05
9.98711e-06
8.94195e-06
-9.3855e-06
1.07524e-05
6.83848e-06
-7.60381e-06
1.16668e-05
5.05901e-06
-5.97336e-06
1.22657e-05
3.3692e-06
-3.96809e-06
1.23245e-05
6.12257e-07
-6.71081e-07
1.23708e-05
-1.53129e-06
1.48502e-06
1.27642e-05
-3.81834e-06
3.42491e-06
1.35203e-05
-7.96949e-06
7.21338e-06
1.45942e-05
-1.24979e-05
1.1424e-05
1.56321e-05
-1.59342e-05
1.48964e-05
1.62104e-05
-1.89022e-05
1.83239e-05
1.62668e-05
-2.06048e-05
2.05483e-05
1.59833e-05
-2.1068e-05
2.13515e-05
1.54538e-05
-2.11457e-05
2.16752e-05
1.48086e-05
-2.04649e-05
2.11101e-05
1.41961e-05
-1.98226e-05
2.04351e-05
1.36793e-05
-1.93126e-05
1.98294e-05
1.31546e-05
-1.86534e-05
1.91781e-05
1.26114e-05
-1.7796e-05
1.83392e-05
1.21588e-05
-1.70115e-05
1.74641e-05
1.16758e-05
-1.69109e-05
1.73939e-05
1.11691e-05
-1.58619e-05
1.63686e-05
1.07504e-05
-1.49724e-05
1.53911e-05
1.04478e-05
-1.54203e-05
1.57229e-05
1.01797e-05
-1.64342e-05
1.67022e-05
9.46595e-06
-1.56801e-05
1.63938e-05
8.7541e-06
-1.34225e-05
1.41344e-05
8.71066e-06
-1.36783e-05
1.37218e-05
8.61084e-06
-1.5203e-05
1.53028e-05
8.48334e-06
-1.68963e-05
1.70238e-05
8.60984e-06
-2.03546e-05
2.02281e-05
8.88306e-06
-2.23308e-05
2.20575e-05
9.00631e-06
-2.12484e-05
2.11251e-05
8.95864e-06
-2.12475e-05
2.12951e-05
9.05848e-06
-2.18509e-05
2.17511e-05
9.39322e-06
-2.09934e-05
2.06586e-05
9.6329e-06
-1.86869e-05
1.84472e-05
9.75623e-06
-1.55817e-05
1.54584e-05
1.00376e-05
-1.14812e-05
1.11999e-05
1.03072e-05
-6.59406e-06
6.32446e-06
1.03853e-05
-1.62996e-06
1.55183e-06
1.04766e-05
3.08161e-06
-3.17283e-06
1.05624e-05
8.08099e-06
-8.16683e-06
1.06217e-05
1.40293e-05
-1.40886e-05
1.06481e-05
1.87949e-05
-1.88213e-05
1.05758e-05
2.16904e-05
-2.16182e-05
1.04059e-05
2.39622e-05
-2.37922e-05
1.01355e-05
2.48149e-05
-2.45445e-05
9.84867e-06
2.37589e-05
-2.34721e-05
9.50742e-06
2.29107e-05
-2.25695e-05
9.21421e-06
2.18737e-05
-2.15805e-05
8.9588e-06
1.9494e-05
-1.92386e-05
8.75639e-06
1.80454e-05
-1.7843e-05
8.58133e-06
1.77939e-05
-1.76188e-05
8.43237e-06
1.66649e-05
-1.65159e-05
8.39957e-06
1.55409e-05
-1.55081e-05
8.38985e-06
1.48794e-05
-1.48697e-05
8.42948e-06
1.45327e-05
-1.45724e-05
8.55516e-06
1.44661e-05
-1.45917e-05
8.7281e-06
1.46435e-05
-1.48165e-05
8.87043e-06
1.49179e-05
-1.50602e-05
8.97846e-06
1.48309e-05
-1.49389e-05
9.11395e-06
1.45374e-05
-1.46729e-05
9.39161e-06
1.42699e-05
-1.45475e-05
9.82989e-06
1.41742e-05
-1.46124e-05
1.03583e-05
1.43103e-05
-1.48388e-05
1.09022e-05
1.44672e-05
-1.50111e-05
1.14566e-05
1.427e-05
-1.48244e-05
1.19498e-05
1.36966e-05
-1.41898e-05
1.22742e-05
1.27409e-05
-1.30653e-05
1.24404e-05
1.11979e-05
-1.13642e-05
1.25147e-05
9.07501e-06
-9.14929e-06
1.2269e-05
7.07578e-06
-6.83006e-06
1.17359e-05
4.76933e-06
-4.23624e-06
1.11711e-05
1.79657e-06
-1.23175e-06
1.0904e-05
-8.07571e-07
1.07467e-06
1.07751e-05
-1.79664e-06
1.92557e-06
1.04885e-05
-1.85521e-06
2.14179e-06
9.90214e-06
-2.67568e-06
3.26203e-06
9.40245e-06
-5.21042e-06
5.7101e-06
9.20311e-06
-7.28965e-06
7.48899e-06
9.06942e-06
-7.81452e-06
7.94821e-06
8.68167e-06
-7.96232e-06
8.35008e-06
7.99059e-06
-8.85423e-06
9.5453e-06
7.40949e-06
-1.02645e-05
1.08456e-05
7.11922e-06
-1.08777e-05
1.1168e-05
7.15454e-06
-1.02369e-05
1.02016e-05
7.0709e-06
-9.78308e-06
9.86673e-06
7.01525e-06
-8.90179e-06
8.95744e-06
6.61669e-06
-1.00114e-05
1.041e-05
6.11814e-06
-1.14932e-05
1.19918e-05
5.49619e-06
-1.46706e-05
1.52925e-05
5.47961e-06
-1.60144e-05
1.6031e-05
5.61149e-06
-1.82451e-05
1.81132e-05
5.97646e-06
-1.68129e-05
1.64479e-05
6.21043e-06
-1.81165e-05
1.78825e-05
6.24904e-06
-1.71983e-05
1.71597e-05
6.56901e-06
-1.98008e-05
1.94808e-05
6.80702e-06
-1.94186e-05
1.91806e-05
7.29391e-06
-2.07561e-05
2.02692e-05
7.6276e-06
-2.1893e-05
2.15593e-05
8.25644e-06
-2.25065e-05
2.18777e-05
8.86382e-06
-2.11268e-05
2.05194e-05
9.18496e-06
-1.92305e-05
1.89093e-05
9.57635e-06
-1.65821e-05
1.61907e-05
1.02389e-05
-1.25959e-05
1.19334e-05
1.07842e-05
-8.50462e-06
7.95928e-06
1.10986e-05
-3.66877e-06
3.35438e-06
1.13721e-05
1.77112e-06
-2.04465e-06
1.16721e-05
6.25605e-06
-6.55602e-06
1.20683e-05
1.0635e-05
-1.10312e-05
1.24146e-05
1.58817e-05
-1.6228e-05
1.24945e-05
1.99646e-05
-2.00446e-05
1.24215e-05
2.19378e-05
-2.18648e-05
1.24313e-05
2.3078e-05
-2.30878e-05
1.25935e-05
2.44023e-05
-2.45645e-05
1.27788e-05
2.58134e-05
-2.59987e-05
1.28167e-05
2.62857e-05
-2.63236e-05
1.25776e-05
2.54279e-05
-2.51887e-05
1.23837e-05
2.38718e-05
-2.3678e-05
1.26919e-05
2.25129e-05
-2.2821e-05
1.32028e-05
2.17722e-05
-2.22831e-05
1.3532e-05
2.09927e-05
-2.1322e-05
1.38858e-05
1.90662e-05
-1.942e-05
1.4109e-05
1.59393e-05
-1.61624e-05
1.41342e-05
1.21074e-05
-1.21327e-05
1.41466e-05
8.54235e-06
-8.55471e-06
1.40178e-05
4.63216e-06
-4.50341e-06
1.37531e-05
1.64593e-07
1.00171e-07
1.32566e-05
-3.73585e-06
4.23227e-06
1.25999e-05
-6.37757e-06
7.03427e-06
1.2057e-05
-8.62521e-06
9.16818e-06
1.15022e-05
-1.07923e-05
1.1347e-05
1.10268e-05
-1.25843e-05
1.30597e-05
1.03634e-05
-1.3068e-05
1.37314e-05
9.73309e-06
-1.20497e-05
1.26801e-05
9.11231e-06
-1.00118e-05
1.06326e-05
8.59314e-06
-7.52785e-06
8.04703e-06
8.1937e-06
-5.52022e-06
5.91966e-06
7.91475e-06
-3.91876e-06
4.19771e-06
7.68355e-06
-2.89026e-06
3.12146e-06
7.54854e-06
-2.03901e-06
2.17401e-06
7.38084e-06
-1.46732e-06
1.63502e-06
7.3175e-06
-8.94497e-07
9.57834e-07
7.19731e-06
-3.79768e-07
4.99963e-07
7.19611e-06
4.57652e-08
-4.45676e-08
7.09044e-06
5.88283e-07
-4.82612e-07
7.10395e-06
8.60096e-07
-8.73605e-07
7.07135e-06
1.39134e-06
-1.35874e-06
7.08038e-06
1.51938e-06
-1.52841e-06
7.12789e-06
1.98457e-06
-2.03209e-06
7.07516e-06
2.1517e-06
-2.09896e-06
7.20749e-06
2.40655e-06
-2.53888e-06
7.09983e-06
2.80103e-06
-2.69336e-06
7.28893e-06
2.83388e-06
-3.02298e-06
7.17402e-06
3.42267e-06
-3.30776e-06
7.30746e-06
3.39496e-06
-3.5284e-06
7.27772e-06
3.98842e-06
-3.95867e-06
7.30563e-06
4.12094e-06
-4.14886e-06
7.41096e-06
4.57322e-06
-4.67855e-06
7.34813e-06
5.06793e-06
-5.0051e-06
7.48737e-06
5.30638e-06
-5.44561e-06
7.42664e-06
6.01692e-06
-5.95619e-06
7.50286e-06
6.36567e-06
-6.4419e-06
7.50149e-06
7.04099e-06
-7.03962e-06
7.4509e-06
7.72292e-06
-7.67233e-06
7.47368e-06
8.32975e-06
-8.35253e-06
7.19113e-06
9.47023e-06
-9.18768e-06
7.1987e-06
1.01448e-05
-1.01523e-05
7.13433e-06
1.14853e-05
-1.14209e-05
6.93229e-06
1.29258e-05
-1.27238e-05
7.1855e-06
1.44543e-05
-1.47075e-05
6.3684e-06
1.82467e-05
-1.74296e-05
6.24523e-06
2.02944e-05
-2.01712e-05
3.07173e-05
-3.02488e-05
5.7768e-06
6.3819e-06
-1.0632e-06
7.17138e-06
-6.65035e-07
7.64199e-06
-2.176e-07
8.30857e-06
-1.58837e-06
9.45031e-06
-3.37703e-06
1.01948e-05
-5.61209e-06
1.07161e-05
-9.14225e-06
1.08334e-05
-1.09388e-05
1.04484e-05
-1.31561e-05
1.00014e-05
-1.3997e-05
9.36261e-06
-1.37633e-05
8.87047e-06
-1.28167e-05
7.91457e-06
-9.56694e-06
7.1143e-06
-6.78122e-06
5.75236e-06
-3.90973e-06
4.00215e-06
-3.57373e-07
3.99644e-06
-5.89536e-08
4.83757e-06
1.35344e-06
5.80065e-06
1.24819e-05
6.90682e-06
1.65368e-05
7.27501e-06
1.35586e-05
8.09428e-06
1.23718e-05
8.98531e-06
1.07203e-05
9.61225e-06
1.01204e-05
1.01536e-05
9.5753e-06
1.09292e-05
8.16641e-06
1.19274e-05
5.84024e-06
1.26267e-05
4.35974e-06
1.28061e-05
3.18974e-06
1.27577e-05
6.60657e-07
1.30414e-05
-1.81499e-06
1.36936e-05
-4.47047e-06
1.46389e-05
-8.91487e-06
1.56475e-05
-1.35064e-05
1.6432e-05
-1.67188e-05
1.67451e-05
-1.92154e-05
1.65647e-05
-2.04244e-05
1.60781e-05
-2.05814e-05
1.54562e-05
-2.05238e-05
1.48458e-05
-1.98544e-05
1.42927e-05
-1.92695e-05
1.37765e-05
-1.87964e-05
1.32671e-05
-1.8144e-05
1.27455e-05
-1.72745e-05
1.22588e-05
-1.65247e-05
1.17612e-05
-1.64133e-05
1.12667e-05
-1.53674e-05
1.082e-05
-1.45257e-05
1.04988e-05
-1.50991e-05
1.00836e-05
-1.6019e-05
9.28715e-06
-1.48836e-05
8.70907e-06
-1.28444e-05
8.58637e-06
-1.35556e-05
8.35854e-06
-1.49752e-05
8.2558e-06
-1.67935e-05
8.40516e-06
-2.0504e-05
8.62244e-06
-2.2548e-05
8.72976e-06
-2.13557e-05
8.68611e-06
-2.12038e-05
8.69254e-06
-2.18573e-05
8.90879e-06
-2.12096e-05
9.09923e-06
-1.88773e-05
9.12539e-06
-1.56078e-05
9.32905e-06
-1.16849e-05
9.59437e-06
-6.85937e-06
9.73487e-06
-1.77046e-06
9.83645e-06
2.98003e-06
9.87821e-06
8.03923e-06
9.91845e-06
1.39891e-05
9.98671e-06
1.87267e-05
9.98852e-06
2.16886e-05
9.88916e-06
2.40615e-05
9.68105e-06
2.5023e-05
9.46261e-06
2.39774e-05
9.17927e-06
2.3194e-05
8.93192e-06
2.21211e-05
8.7054e-06
1.97205e-05
8.52409e-06
1.82267e-05
8.38737e-06
1.79306e-05
8.26279e-06
1.67895e-05
8.25139e-06
1.55523e-05
8.28151e-06
1.48493e-05
8.35117e-06
1.44631e-05
8.49506e-06
1.43222e-05
8.71459e-06
1.4424e-05
8.91832e-06
1.47142e-05
9.05664e-06
1.46925e-05
9.21726e-06
1.43768e-05
9.45768e-06
1.40294e-05
9.84307e-06
1.37888e-05
1.03468e-05
1.38066e-05
1.08856e-05
1.39285e-05
1.14403e-05
1.37153e-05
1.19253e-05
1.32116e-05
1.22839e-05
1.23823e-05
1.25098e-05
1.0972e-05
1.26211e-05
8.96365e-06
1.24443e-05
7.25258e-06
1.19562e-05
5.25747e-06
1.13988e-05
2.35394e-06
1.10631e-05
-4.71811e-07
1.09271e-05
-1.66072e-06