/*--------------------------------*- C++ -*----------------------------------*\
| =========                 |                                                 |
| \\      /  F ield         | OpenFOAM: The Open Source CFD Toolbox           |
|  \\    /   O peration     | Version:  2.4.0                                 |
|   \\  /    A nd           | Web:      www.OpenFOAM.org                      |
|    \\/     M anipulation  |                                                 |
\*---------------------------------------------------------------------------*/
FoamFile
{
    version     2.0;
    format      ascii;
    class       volScalarField;
    location    "0.105";
    object      p;
}
// * * * * * * * * * * * * * * * * * * * * * * * * * * * * * * * * * * * * * //

dimensions      [0 2 -2 0 0 0 0];

internalField   nonuniform List<scalar> 
17600
(
78.9401
63.2475
58.8278
57.6862
56.7406
55.7877
54.9049
54.1003
53.3958
52.5472
51.9513
51.0628
50.3167
49.7282
48.7124
47.8618
47.4041
46.0632
44.6197
45.4672
77.0321
63.2974
58.8688
57.6959
56.7438
55.7884
54.9054
54.1003
53.3967
52.5467
51.9508
51.0644
50.3139
49.7306
48.7133
47.8555
47.4047
46.0711
44.6177
45.0027
75.6192
63.5535
59.0126
57.7343
56.7577
55.7929
54.9076
54.1019
53.399
52.5464
51.9522
51.0659
50.3113
49.7357
48.7139
47.8511
47.4096
46.0727
44.6041
44.4219
74.644
63.8948
59.2324
57.7998
56.7872
55.8081
54.9162
54.1087
53.4044
52.5496
51.9551
51.0689
50.3101
49.7435
48.716
47.8526
47.4203
46.0809
44.5814
43.9541
73.8224
64.2296
59.496
57.8826
56.8299
55.8366
54.9354
54.1242
53.4155
52.5594
51.9603
51.0755
50.3117
49.7542
48.7221
47.8622
47.4367
46.101
44.558
43.6779
73.0488
64.522
59.773
57.966
56.8723
55.8726
54.9641
54.1487
53.4332
52.5776
51.9685
51.0878
50.3168
49.7674
48.7352
47.8812
47.4577
46.134
44.5573
43.565
72.3204
64.769
60.0491
58.0444
56.9046
55.9053
54.9966
54.1788
53.4553
52.603
51.9788
51.1061
50.3257
49.7816
48.7577
47.9102
47.4812
46.1757
44.5938
43.6128
71.6472
64.9737
60.318
58.1195
56.9266
55.9296
55.0288
54.2101
53.4793
52.6324
51.9885
51.1286
50.3371
49.7953
48.7887
47.9496
47.5031
46.2422
44.6395
43.7404
71.0348
65.1403
60.5711
58.1968
56.9397
55.945
55.0583
54.2404
53.5037
52.6635
51.9958
51.1532
50.3479
49.8079
48.826
47.9962
47.5229
46.3238
44.6991
43.8762
70.4853
65.2702
60.8059
58.2792
56.946
55.9522
55.0842
54.2691
53.5278
52.6938
52.001
51.1785
50.3577
49.819
48.8681
48.0425
47.5455
46.4073
44.8152
44.0617
69.9973
65.3651
61.0211
58.3674
56.9465
55.9533
55.1062
54.2966
53.551
52.722
52.0059
51.2042
50.3671
49.83
48.913
48.0862
47.5758
46.4936
44.9783
44.2909
69.568
65.4291
61.2161
58.461
56.9429
55.9492
55.1236
54.3234
53.5733
52.7482
52.0111
51.2288
50.3793
49.8403
48.9601
48.1278
47.6156
46.5847
45.1855
44.569
69.1949
65.4672
61.3909
58.5578
56.9371
55.9409
55.1365
54.3482
53.5945
52.7727
52.0168
51.2511
50.3956
49.8514
49.0078
48.1711
47.6626
46.6857
45.4116
44.8583
68.8751
65.4863
61.5452
58.6522
56.9309
55.9302
55.146
54.3706
53.6146
52.7956
52.0221
51.2701
50.415
49.8638
49.0546
48.2176
47.7145
46.7967
45.6353
45.198
68.6048
65.4948
61.6781
58.7363
56.926
55.9185
55.1535
54.3908
53.6327
52.8164
52.0276
51.2847
50.4357
49.8761
49.1016
48.2652
47.7728
46.9132
45.8509
45.5665
68.382
65.4977
61.7879
58.8082
56.9229
55.9072
55.1595
54.4076
53.6493
52.8348
52.0361
51.2974
50.4555
49.8877
49.148
48.3143
47.8356
47.0357
46.0589
45.9386
68.2058
65.4983
61.874
58.8672
56.9219
55.8971
55.1639
54.4213
53.6636
52.8505
52.0422
51.3095
50.4754
49.9004
49.195
48.3676
47.8987
47.1638
46.2714
46.2809
68.0743
65.498
61.9369
58.9128
56.9222
55.8892
55.1664
54.4316
53.6759
52.8631
52.0493
51.3206
50.497
49.914
49.2415
48.4264
47.9632
47.2959
46.4937
46.5856
67.987
65.4971
61.9779
58.944
56.9232
55.8836
55.1698
54.4384
53.6854
52.8729
52.0567
51.3308
50.5183
49.9307
49.2729
48.4874
48.0346
47.4249
46.7229
46.8799
67.9428
65.4972
61.998
58.9603
56.9236
55.8813
55.172
54.4421
53.6911
52.8817
52.0626
51.3406
50.5398
49.9478
49.3181
48.5481
48.1099
47.5541
46.958
47.1855
67.9414
65.4982
61.9973
58.9614
56.9231
55.8823
55.174
54.4423
53.6939
52.8868
52.0691
51.3483
50.5623
49.9658
49.3639
48.6111
48.187
47.6844
47.1916
47.5224
67.9829
65.5002
61.977
58.9463
56.9224
55.8859
55.1756
54.4392
53.6936
52.8882
52.0751
51.3551
50.5838
49.9861
49.4064
48.6768
48.2651
47.8152
47.4095
47.8763
68.0672
65.5032
61.9359
58.9166
56.9204
55.8952
55.1764
54.4336
53.6874
52.8918
52.08
51.3652
50.6029
50.0094
49.4453
48.7446
48.3417
47.9505
47.5951
48.0896
68.196
65.506
61.874
58.8717
56.9197
55.9053
55.1767
54.4246
53.68
52.8914
52.0853
51.3725
50.6229
50.0334
49.4848
48.8133
48.4193
48.0869
47.7592
48.3537
68.3697
65.5071
61.7894
58.813
56.9198
55.9173
55.1759
54.4134
53.6687
52.889
52.0904
51.3783
50.6447
50.0568
49.5257
48.8809
48.5024
48.2172
47.9303
48.6531
68.5901
65.5046
61.6817
58.7409
56.922
55.9308
55.1733
54.4005
53.6529
52.8856
52.0941
51.3853
50.6646
50.0818
49.5662
48.9477
48.59
48.343
48.114
48.9267
68.8592
65.4953
61.5515
58.6564
56.9271
55.9434
55.1691
54.3854
53.6344
52.8798
52.0978
51.3904
50.685
50.1071
49.6059
49.0159
48.6791
48.4713
48.3009
49.1639
69.1781
65.4756
61.4
58.5625
56.9334
55.9552
55.162
54.3688
53.6137
52.8714
52.102
51.3927
50.7066
50.1324
49.6444
49.0872
48.7675
48.6056
48.4854
49.3552
69.5507
65.4373
61.2277
58.4662
56.9391
55.9638
55.152
54.3507
53.5907
52.8613
52.1058
51.3934
50.7275
50.1578
49.6824
49.159
48.8576
48.7446
48.6698
49.5079
69.9797
65.3724
61.0356
58.3724
56.9428
55.968
55.1376
54.3317
53.5658
52.8493
52.1089
51.3923
50.7479
50.1833
49.7204
49.2283
48.9537
48.8823
48.8658
49.638
70.4671
65.2765
60.824
58.2835
56.943
55.9667
55.1177
54.3122
53.54
52.835
52.1122
51.3885
50.7681
50.2084
49.757
49.2961
49.0533
49.0169
49.0754
49.7611
71.0164
65.145
60.5931
58.2003
56.9376
55.9594
55.0928
54.291
53.5143
52.8184
52.1148
51.3831
50.787
50.2331
49.7924
49.3616
49.1509
49.1485
49.2921
49.8852
71.6283
64.9762
60.3447
58.1222
56.9248
55.9453
55.0632
54.2682
53.489
52.7998
52.1161
51.3776
50.8024
50.2574
49.825
49.4218
49.2418
49.2725
49.4866
50.0057
72.3016
64.769
60.0801
58.0476
56.9025
55.9223
55.0308
54.2445
53.4646
52.781
52.1158
51.3729
50.8151
50.2793
49.853
49.4746
49.3199
49.3806
49.6402
50.08
73.0305
64.5192
59.8073
57.9711
56.8692
55.8909
54.9982
54.2208
53.4428
52.7638
52.1142
51.37
50.8254
50.297
49.8765
49.5172
49.3827
49.4651
49.7559
50.1841
73.8049
64.2243
59.5321
57.8898
56.8261
55.8561
54.9696
54.201
53.4262
52.7512
52.1129
51.3697
50.8336
50.3105
49.8946
49.5485
49.4287
49.5247
49.8365
50.2686
74.6279
63.8872
59.2693
57.8088
56.7832
55.8282
54.9504
54.1884
53.4168
52.7444
52.1125
51.3714
50.8396
50.3195
49.9068
49.5689
49.4581
49.5617
49.8859
50.3357
75.6053
63.5443
59.0498
57.7442
56.7538
55.8133
54.9419
54.1827
53.4133
52.7421
52.1123
51.3737
50.8433
50.3244
49.9132
49.5796
49.4736
49.5797
49.9108
50.3893
77.0202
63.2877
58.9061
57.7059
56.7402
55.809
54.9398
54.1809
53.4125
52.742
52.1116
51.3751
50.8449
50.3257
49.915
49.5829
49.4786
49.5837
49.9174
50.429
78.9291
63.2379
58.8653
57.6957
56.7372
55.8085
54.9395
54.1804
53.4121
52.7426
52.1109
51.3753
50.8455
50.3249
49.9145
49.5822
49.4782
49.5811
49.9138
50.4557
37.5925
30.6241
23.4826
18.8615
15.9263
15.6793
17.6546
18.6364
21.9588
27.4693
36.1221
47.1793
56.5515
66.397
73.0652
77.5112
82.1619
81.013
78.3375
77.9476
75.4859
68.8359
61.7058
54.3089
46.4392
39.3456
33.1039
27.8334
23.1031
19.1652
15.5758
11.3724
7.60588
4.81906
2.52979
1.22654
1.18113
1.98231
3.96658
8.07033
14.3476
21.4257
27.7171
33.2294
38.2894
43.0901
47.2144
50.6349
53.9849
56.7406
58.3491
59.4799
60.0657
60.0458
59.2707
57.399
55.4066
52.3895
48.131
43.0125
36.8292
30.9344
25.7242
19.9507
13.3152
6.75834
0.440526
-5.11252
-8.32476
-9.53829
-9.34212
-6.62158
-1.15961
6.17474
15.2706
25.6545
35.028
42.6457
49.3446
54.5512
58.337
61.2723
63.5395
65.3273
66.5074
67.1236
67.4451
67.4388
66.9318
65.9699
64.6023
62.7729
60.3332
57.3086
53.5877
49.4468
45.4445
41.8661
39.254
37.6437
36.9344
37.1703
38.0921
39.566
41.7462
44.1831
46.291
48.054
49.6839
51.7409
54.2486
56.6468
58.7623
60.4869
62.103
63.3261
64.3108
64.9223
65.4689
66.0302
66.5823
67.08
67.402
67.8914
67.5078
67.0281
65.9403
63.9719
61.1234
56.92
51.5233
45.161
39.0288
33.4004
27.7525
23.1232
21.1199
20.8876
21.4239
23.7232
28.0144
32.8776
37.2631
41.0839
44.2924
46.5027
47.553
47.6906
46.8897
45.042
42.3024
38.9215
35.2679
32.1133
30.0865
29.3665
30.0345
32.3107
36.3034
41.1257
46.0625
50.9305
56.0072
60.9862
65.2547
68.4142
70.3762
71.564
72.2236
72.6317
72.8439
72.985
73.0138
73.0432
72.9381
72.8552
72.7169
72.5522
72.3666
72.1368
71.9052
71.6385
71.3513
71.047
70.7115
70.3613
69.9692
69.554
69.0921
68.5864
68.018
67.3759
66.6312
65.7567
64.6187
63.158
61.0139
57.3045
52.8767
29.5885
37.5509
30.7419
23.873
20.0251
17.7173
17.3145
19.5777
20.9563
24.2568
30.3288
38.3657
48.7329
57.305
66.4265
72.6905
76.4742
81.281
80.0082
77.6816
78.169
75.9206
70.1447
63.1747
55.7862
47.8473
40.7906
34.6852
29.4259
24.6442
20.9515
17.4738
13.2448
9.68308
7.54442
5.60933
3.99572
3.6314
4.68882
7.11732
11.0572
16.6261
23.0338
28.9975
34.1798
38.8369
43.413
47.4169
50.7442
54.061
56.8388
58.5163
59.6903
60.3155
60.343
59.5239
57.5083
55.3429
52.0936
47.533
42.0482
35.4671
29.3528
24.0721
18.1731
11.2538
4.42616
-2.08868
-7.65327
-10.8882
-12.179
-11.9025
-8.93002
-3.2237
4.36061
13.8585
24.6163
34.1966
42.0881
49.0356
54.3592
58.2237
61.2244
63.5198
65.3333
66.5356
67.146
67.4832
67.5192
67.0205
66.1269
64.909
63.2152
60.9682
58.2253
54.8401
51.1192
47.4881
44.0887
41.5536
39.9706
39.1711
39.2255
39.9323
41.1487
43.0391
45.239
47.1524
48.7288
50.2265
52.1652
54.6439
57.0262
59.0951
60.7878
62.3247
63.4561
64.4223
65.0294
65.5426
66.0548
66.5743
66.9655
67.2343
67.57
67.0349
66.5085
65.1796
63.1567
60.234
55.7521
50.106
43.4696
37.0324
31.1387
25.297
20.4799
18.4244
18.311
18.9434
21.297
25.7813
30.9906
35.8547
40.0735
43.5114
46.0732
47.5513
47.9986
47.568
46.2447
44.0268
41.1211
37.9616
35.1636
33.3283
32.6714
33.288
35.3796
39.0051
43.4128
47.8881
52.4285
57.1569
61.8285
65.8676
68.7728
70.629
71.6944
72.3022
72.6501
72.8361
72.9448
72.9599
72.9159
72.8597
72.7396
72.6061
72.4102
72.2241
71.9693
71.7174
71.4367
71.1174
70.8045
70.4246
70.0526
69.6267
69.1694
68.6697
68.0905
67.4564
66.7311
65.8344
64.8289
63.4425
61.5471
59.2227
53.8546
48.9263
22.2504
37.3154
31.1714
24.805
21.347
19.7956
19.4185
21.5767
23.5535
26.7603
33.1095
40.7423
50.1522
58.1448
66.2949
72.3487
75.5006
80.1559
79.1916
77.4356
78.4869
76.5902
71.5545
64.6594
57.2588
49.4041
42.3333
36.3807
31.1494
26.3948
22.8206
19.4335
15.2645
11.8769
10.2533
8.72189
6.97085
6.32132
7.50019
10.2524
14.0335
18.9602
24.6201
30.1575
35.0875
39.4116
43.6991
47.5846
50.8723
54.159
56.9555
58.7333
60.0066
60.6671
60.7323
59.8751
57.7921
55.4249
51.8746
46.9913
41.104
34.1845
27.8882
22.5698
16.4858
9.34464
2.2609
-4.41678
-10.0212
-13.3026
-14.6278
-14.2016
-10.9584
-5.01699
2.82315
12.7174
23.7945
33.5346
41.6843
48.8462
54.2507
58.1883
61.2457
63.5711
65.4042
66.6177
67.222
67.5821
67.6479
67.1918
66.3891
65.2637
63.6841
61.6238
59.1286
56.0497
52.706
49.4154
46.2061
43.7581
42.2271
41.3501
41.24
41.7654
42.7501
44.3743
46.3188
48.0221
49.4095
50.7874
52.6339
55.088
57.4455
59.4611
61.0991
62.5711
63.634
64.5408
65.1697
65.6527
66.1213
66.5985
66.9127
67.1586
67.3108
66.7403
66.1359
64.5294
62.4473
59.4598
54.7316
48.8765
41.986
35.2099
29.0952
23.1185
18.1889
16.091
16.0124
16.7125
19.1204
23.7939
29.3738
34.6413
39.2469
43.0104
45.8329
47.6433
48.5011
48.4163
47.5145
45.8286
43.4207
40.6986
38.2758
36.6366
36.0192
36.6008
38.4901
41.7821
45.7178
49.7716
53.9244
58.3066
62.7448
66.4347
69.1898
70.8475
71.8394
72.3734
72.6811
72.8253
72.9096
72.9074
72.8488
72.7698
72.6363
72.4895
72.2833
72.0701
71.8083
71.5273
71.2374
70.8911
70.5477
70.1474
69.7381
69.2933
68.7808
68.2233
67.6046
66.8749
66.0879
65.0704
63.8359
62.3547
59.8332
57.645
50.4344
45.119
20.2661
37.0781
31.9035
26.3684
23.0154
21.9336
21.8842
23.7833
26.1833
29.4664
35.7202
43.0706
51.4455
58.9606
66.1241
72.0377
74.7705
79.0059
78.4781
77.3472
78.7566
77.307
72.7117
65.9671
58.6099
50.8817
43.7907
38.0418
32.9027
28.115
24.5824
21.466
17.5529
14.2784
12.9228
11.7644
10.0612
9.24913
10.426
13.3243
16.9477
21.2572
26.1689
31.2263
35.8796
39.9528
43.9767
47.729
50.9784
54.2594
57.1114
58.9951
60.3752
61.0888
61.2068
60.2997
58.1639
55.6309
51.7543
46.5003
40.2114
32.9292
26.5288
21.1792
14.9397
7.56375
0.290991
-6.52367
-12.1908
-15.5292
-16.8576
-16.2194
-12.691
-6.52123
1.58052
11.8651
23.1845
33.0286
41.4333
48.7749
54.2269
58.2305
61.3338
63.685
65.5321
66.7522
67.3581
67.7537
67.8512
67.4474
66.7
65.6396
64.1767
62.3087
60.0249
57.2102
54.1949
51.2042
48.1894
45.8536
44.3771
43.4422
43.1956
43.5554
44.3341
45.7164
47.409
48.8891
50.1076
51.3767
53.1552
55.5478
57.8893
59.8562
61.4303
62.8314
63.8432
64.6729
65.3146
65.7973
66.2293
66.68
66.9393
67.1628
67.1344
66.5956
65.8783
64.0809
61.903
58.7913
53.8992
47.8712
40.7214
33.6561
27.3174
21.2644
16.3114
14.1353
14.0467
14.7953
17.2507
22.0596
28.0228
33.7157
38.611
42.6806
45.8751
47.9872
49.1337
49.4365
48.9269
47.6384
45.7554
43.5042
41.4045
39.9622
39.4058
39.9204
41.6067
44.5712
48.0397
51.7259
55.419
59.5487
63.5586
67.0539
69.5686
71.0693
71.9822
72.435
72.7138
72.8195
72.88
72.856
72.8645
72.6908
72.5321
72.3765
72.1467
71.9272
71.6403
71.3423
71.0252
70.6623
70.2973
69.8616
69.4243
68.9379
68.4039
67.7867
67.1033
66.3207
65.3854
64.3291
62.7907
61.391
57.9957
56.2965
47.2981
41.4415
20.6403
36.9647
32.5694
28.2155
25.0549
24.1169
24.4728
26.1887
28.741
32.1791
38.1732
45.1077
52.6198
59.5379
66.0437
71.6558
74.2827
77.9566
77.9362
77.1827
79.0477
77.8673
73.5665
67.0708
59.8021
52.1845
45.2254
39.7168
34.6557
29.8114
26.4287
23.7198
20.1569
16.8732
15.5221
14.6417
13.186
12.3802
13.4874
16.3183
19.685
23.46
27.6596
32.1876
36.5941
40.4729
44.2157
47.8285
51.0675
54.3522
57.2617
59.3058
60.8298
61.6085
61.7285
60.7981
58.5917
55.8766
51.6786
46.068
39.3584
31.753
25.2643
19.9075
13.5296
5.93589
-1.45631
-8.37413
-14.1227
-17.5339
-18.8204
-17.9318
-14.1088
-7.7133
0.67801
11.3376
22.8167
32.7066
41.3517
48.8337
54.2984
58.3453
61.4878
63.8582
65.72
66.9342
67.5559
67.9933
68.1172
67.7533
67.0382
66.0565
64.7153
63.005
60.8996
58.3238
55.5852
52.8554
50.0414
47.8321
46.4022
45.4307
45.0703
45.2729
45.8699
47.0367
48.4827
49.7459
50.827
52.0271
53.7487
56.0326
58.3175
60.2481
61.7783
63.0973
64.0887
64.8187
65.4678
65.9542
66.3615
66.7958
67.0241
67.2481
67.0414
66.5321
65.7181
63.8139
61.561
58.1777
53.2909
47.1269
39.716
32.4269
25.8608
19.7751
14.8642
12.6195
12.4379
13.189
15.7031
20.6544
26.9341
33.0428
38.2354
42.5059
45.9809
48.5067
49.9605
50.5148
50.4329
49.5628
48.0787
46.3244
44.565
43.264
42.7662
43.2232
44.6967
47.3048
50.3634
53.6537
57.0522
60.7994
64.4093
67.6506
69.8668
71.3203
72.08
72.53
72.719
72.8289
72.8306
72.821
72.6602
72.6131
72.4203
72.2708
72.0213
71.775
71.475
71.1478
70.8324
70.4233
70.0415
69.5757
69.1036
68.6056
67.9884
67.356
66.5676
65.8044
64.6555
63.6492
61.5709
60.5876
56.0179
54.8987
44.6574
37.8091
20.9793
37.198
33.1927
30.1259
27.4089
26.3302
26.9041
28.5921
31.2619
34.6937
40.367
46.7523
53.6944
59.8982
66.03
71.1898
73.912
77.0608
77.5587
76.879
78.8029
78.1317
74.1863
67.9805
60.9441
53.5713
46.837
41.4936
36.5532
31.6838
28.3381
25.9553
22.7323
19.5002
18.0274
17.3608
16.3381
15.6981
16.6362
19.2002
22.2323
25.509
29.1018
33.1236
37.238
40.9298
44.4479
47.9079
51.0981
54.415
57.4111
59.6285
61.3185
62.228
62.344
61.3929
59.119
56.1423
51.6009
45.6814
38.5479
30.6751
24.1222
18.7844
12.2491
4.51025
-2.99142
-9.93999
-15.7472
-19.2558
-20.4767
-19.3056
-15.1843
-8.56934
0.113321
11.1075
22.6868
32.5811
41.4406
49.0117
54.4586
58.5443
61.7132
64.0943
65.9681
67.1582
67.8041
68.2853
68.4103
68.0955
67.4276
66.5269
65.2871
63.6827
61.7356
59.393
56.88
54.3675
51.7594
49.6747
48.2893
47.2968
46.8368
46.9039
47.3437
48.3126
49.5221
50.593
51.5791
52.7534
54.4301
56.5681
58.7177
60.6106
62.1164
63.3656
64.3433
64.9897
65.6262
66.1086
66.5026
66.9039
67.1403
67.3646
67.0477
66.5428
65.5982
63.6863
61.4187
57.6312
52.8806
46.6476
39.0066
31.5266
24.7414
18.667
13.8531
11.528
11.2295
11.9342
14.4832
19.5991
26.1773
32.6053
38.0841
42.5932
46.2478
49.0535
50.8875
51.7285
51.9349
51.4985
50.4505
49.0658
47.6497
46.5287
46.0378
46.4724
47.7188
49.9912
52.6189
55.5657
58.6671
62.0865
65.3763
68.169
70.1777
71.4795
72.1816
72.5968
72.7427
72.8339
72.7962
72.7796
72.6374
72.5335
72.3253
72.1502
71.8937
71.6237
71.3125
70.9596
70.6108
70.2013
69.7729
69.313
68.7588
68.2721
67.5576
66.944
65.9766
65.3261
63.7215
63.1454
60.2062
59.8168
54.1181
53.231
42.4754
34.1413
20.7118
37.7551
34.0615
31.8454
29.806
28.5515
29.1275
30.8562
33.7174
37.0086
42.2938
48.0758
54.5946
60.2681
65.9557
70.7538
73.4915
76.3825
77.2283
76.5057
78.2208
78.0286
74.4769
68.5779
61.9216
54.8585
48.288
43.1038
38.3855
33.5007
30.0718
27.9414
25.2045
22.197
20.6214
20.1208
19.5331
19.0681
19.8083
21.9585
24.5537
27.4165
30.5011
34.0069
37.838
41.3336
44.6131
47.9271
51.0878
54.4194
57.5087
59.9411
61.826
62.8737
63.0249
62.0713
59.7636
56.4923
51.5182
45.2731
37.766
29.6836
23.1417
17.7823
11.1371
3.29503
-4.27197
-11.2042
-17.0332
-20.6244
-21.7723
-20.3109
-15.9035
-9.07613
-0.105328
11.1797
22.7898
32.658
41.6933
49.2928
54.7055
58.8339
62.0093
64.3897
66.2563
67.4207
68.1141
68.62
68.7419
68.4985
67.8731
67.0531
65.8743
64.3486
62.5513
60.4142
58.0859
55.7384
53.3353
51.3799
50.0223
49.0256
48.4929
48.4395
48.7399
49.5327
50.5291
51.4355
52.3673
53.5457
55.195
57.1612
59.131
60.9363
62.4219
63.6203
64.5852
65.1789
65.7844
66.2678
66.6412
66.9963
67.2465
67.4527
67.1382
66.648
65.5124
63.6422
61.4412
57.3356
52.6084
46.4063
38.6026
30.9619
23.9437
17.9213
13.2487
10.8342
10.3761
11.0255
13.6207
18.8761
25.7547
32.459
38.1244
42.8639
46.7792
49.8018
51.8526
53.0234
53.5343
53.3698
52.7681
51.7674
50.5941
49.691
49.2399
49.6015
50.6541
52.598
54.8085
57.4395
60.1649
63.3667
66.2519
68.7584
70.4608
71.6226
72.2373
72.6376
72.7508
72.8351
72.7574
72.7529
72.583
72.455
72.2135
72.0555
71.7619
71.4846
71.1167
70.7826
70.3811
69.989
69.4799
69.052
68.3995
67.9802
67.0431
66.6123
65.2348
64.9617
62.644
62.5508
58.776
58.9121
52.2805
51.1214
40.6994
30.4905
20.1521
39.0321
35.4393
33.3188
31.9317
30.6719
31.1222
32.9003
35.977
39.0814
43.9247
49.2313
55.2055
60.6366
65.7285
70.3749
72.9568
75.8234
76.8432
76.1441
77.5011
77.5956
74.4181
68.9572
62.79
56.1319
49.675
44.5909
40.1372
35.4149
31.9484
30.0084
27.7796
25.1429
23.4979
22.9828
22.6523
22.3559
22.8932
24.5749
26.7051
29.1562
31.8185
34.843
38.3382
41.6365
44.7125
47.8695
50.9896
54.3454
57.5598
60.2226
62.32
63.5242
63.7509
62.8019
60.4532
56.9382
51.4758
44.8168
36.9382
28.7982
22.3339
16.9591
10.2013
2.27599
-5.27483
-12.153
-17.9507
-21.59
-22.6474
-20.9024
-16.2438
-9.21311
0.0592495
11.5732
23.1247
32.9503
42.11
49.689
55.0519
59.1959
62.3602
64.7412
66.5743
67.7188
68.477
68.9709
69.1084
68.9441
68.3444
67.6108
66.4926
65.0202
63.3562
61.3916
59.1985
56.9934
54.7889
52.9422
51.6034
50.6154
50.0347
49.8747
50.0642
50.6926
51.5005
52.29
53.1982
54.3867
55.9895
57.7841
59.5728
61.2615
62.7102
63.8569
64.808
65.374
65.9421
66.4232
66.7882
67.0953
67.3574
67.5134
67.2459
66.8142
65.5316
63.6828
61.5507
57.3945
52.5114
46.3305
38.5296
30.7174
23.4647
17.5211
12.9539
10.509
9.87788
10.4499
13.1195
18.5131
25.6301
32.6069
38.4354
43.2921
47.434
50.7349
52.9955
54.3466
55.1881
55.3054
54.9725
54.3921
53.4567
52.7092
52.3077
52.5941
53.4683
55.0966
56.9374
59.2345
61.6795
64.5047
67.0179
69.2634
70.6764
71.794
72.2511
72.6876
72.7166
72.8449
72.6922
72.7278
72.4916
72.3914
72.0849
71.9615
71.5964
71.3532
70.9128
70.6215
70.0935
69.7967
69.1177
68.8362
67.8956
67.7253
66.3937
66.3175
64.3659
64.43
61.4719
61.8495
57.2773
57.841
50.7319
47.7905
38.9843
28.0801
20.0391
40.7984
37.3528
34.7346
33.711
32.6553
32.9971
34.7322
37.9687
40.9257
45.2476
50.2388
55.6267
60.9183
65.3717
69.952
72.3753
75.1757
76.4332
75.7664
76.762
76.9413
74.133
69.2609
63.7888
57.7535
51.4224
46.29
42.0805
37.7314
34.1941
32.1834
30.4224
28.2344
26.5631
25.902
25.6651
25.4987
25.8664
27.0605
28.6841
30.7429
33.0361
35.6146
38.77
41.8757
44.7555
47.7282
50.808
54.1794
57.519
60.4475
62.791
64.1622
64.4876
63.563
61.1593
57.3688
51.5319
44.3391
36.1237
27.9751
21.6769
16.3305
9.4381
1.48089
-6.02392
-12.7867
-18.49
-22.1255
-23.0693
-21.0636
-16.1845
-8.974
0.577092
12.2381
23.6685
33.4638
42.6879
50.2047
55.4913
59.6188
62.7684
65.1489
66.9057
68.0511
68.8773
69.3396
69.5178
69.4121
68.831
68.2005
67.1376
65.7081
64.1492
62.3157
60.241
58.163
56.1316
54.3721
53.051
52.0794
51.4701
51.2213
51.3228
51.7954
52.4299
53.1588
54.0603
55.2526
56.7788
58.3945
60.0295
61.6085
62.9979
64.0962
65.0155
65.5832
66.114
66.5847
66.952
67.2292
67.503
67.6064
67.3742
66.9722
65.6791
63.8813
61.6332
57.7021
52.6277
46.383
38.7348
30.7542
23.3025
17.4128
12.9476
10.4575
9.68593
10.2241
12.974
18.547
25.8414
33.0001
38.9907
43.9463
48.1994
51.7024
54.2449
55.7692
56.8303
57.2344
57.1475
56.8766
56.1752
55.5901
55.1858
55.4417
56.1024
57.4663
58.992
61.0122
63.1924
65.6134
67.7534
69.5621
70.8026
71.8253
72.1928
72.7015
72.6568
72.8417
72.5948
72.7032
72.3888
72.3093
71.9
71.8804
71.4142
71.2177
70.6199
70.4802
69.7437
69.6418
68.6645
68.6261
67.3175
67.4003
65.6491
65.8147
63.3614
63.7259
60.1966
61.0384
56.0445
55.7159
49.4155
43.9098
37.272
27.0615
20.7037
42.2612
39.2375
36.2169
35.2375
34.4332
34.7665
36.3889
39.6359
42.5411
46.3794
51.1273
55.932
61.1005
65.0275
69.4044
71.8464
74.3132
75.9182
75.3399
75.9752
76.237
73.8069
69.4614
64.6581
59.4069
53.3882
48.1887
44.1765
40.2681
36.6599
34.512
33.0442
31.3013
29.7325
28.9239
28.6451
28.5075
28.6571
29.3791
30.5306
32.1868
34.1551
36.3745
39.1674
42.0219
44.7436
47.5152
50.4834
53.8964
57.4104
60.5894
63.1903
64.7732
65.2267
64.3377
61.9075
57.7569
51.6282
43.9097
35.393
27.2324
21.1899
15.8387
8.84965
0.887888
-6.53539
-13.1051
-18.6497
-22.2221
-23.0103
-20.7753
-15.7033
-8.31188
1.48528
13.16
24.4079
34.1936
43.4137
50.8257
56.0128
60.1047
63.2363
65.6104
67.2641
68.4419
69.3079
69.7249
69.9676
69.8867
69.3456
68.8285
67.803
66.4296
64.9305
63.1927
61.2418
59.2686
57.3809
55.6956
54.3818
53.4352
52.8142
52.4865
52.5074
52.8425
53.3422
54.0264
54.9347
56.1077
57.5358
58.9611
60.4725
61.9749
63.3067
64.3506
65.2231
65.8047
66.3022
66.7641
67.1335
67.4269
67.7096
67.7847
67.5798
67.1132
65.9217
64.2054
61.723
58.1224
52.9635
46.5295
39.146
31.0609
23.4752
17.5679
13.1979
10.6759
9.75678
10.3171
13.1802
18.9201
26.3774
33.6537
39.7394
44.8172
49.1857
52.7682
55.5056
57.2587
58.5115
59.1006
59.2498
59.259
58.6995
58.2954
57.9221
58.0775
58.5899
59.699
60.9986
62.7355
64.629
66.7182
68.4635
69.8936
70.8722
71.7204
71.9753
72.5705
72.4432
72.772
72.4619
72.6595
72.2198
72.2818
71.711
71.7647
71.1539
71.0582
70.3023
70.289
69.2881
69.3664
68.1183
68.2446
66.5772
66.911
64.773
65.1854
62.347
62.9646
59.3314
59.4894
55.122
52.6057
47.7403
41.3622
36.3978
27.3404
21.7613
43.5197
40.9136
37.6093
36.5376
36.0277
36.4235
37.8877
41.0155
43.9906
47.3781
51.9062
56.1841
61.1589
64.766
68.7368
71.3639
73.3104
75.1824
74.8776
75.1045
75.499
73.5544
69.5178
65.1723
60.6884
55.2787
50.1583
46.2636
42.8058
39.4072
37.023
35.6625
34.3534
32.9818
32.0422
31.5751
31.2806
31.2162
31.548
32.2601
33.5361
35.1832
37.0737
39.5096
42.0817
44.617
47.2028
50.0181
53.4267
57.1594
60.6362
63.5124
65.3375
65.9494
65.1222
62.6652
58.2075
51.6643
43.5821
34.7496
26.6437
20.8416
15.4899
8.42223
0.457221
-6.80639
-13.1385
-18.4443
-21.8703
-22.465
-20.019
-14.7891
-7.23145
2.77572
14.3329
25.3469
35.1181
44.2715
51.5478
56.6097
60.6412
63.765
66.1179
67.6535
68.8638
69.7304
70.1123
70.44
70.3625
69.8969
69.4715
68.4884
67.1816
65.6985
64.0405
62.2033
60.3228
58.5501
56.9235
55.6208
54.693
54.0655
53.6839
53.6278
53.8365
54.2601
54.8916
55.7874
56.9121
58.2228
59.4831
60.8883
62.3379
63.6272
64.6208
65.4395
66.039
66.5084
66.9519
67.3202
67.6513
67.9656
68.0634
67.9005
67.3477
66.2139
64.5568
61.9567
58.633
53.5285
46.7563
39.7656
31.6821
23.9856
18.065
13.6599
11.1321
10.1302
10.7368
13.7839
19.6834
27.237
34.5901
40.6964
45.8161
50.3188
53.9639
56.8321
58.7957
60.2133
60.9843
61.2647
61.5256
61.0903
60.7995
60.4956
60.5046
60.9054
61.8094
62.8925
64.3293
65.9982
67.7469
69.1401
70.2948
70.988
71.6281
71.7067
72.3403
72.0894
72.5245
72.0801
72.5028
71.841
72.1035
71.3412
71.7189
70.7837
70.8921
69.8238
70.0016
68.7372
68.9818
67.456
67.6825
65.8071
66.3333
64.0461
64.3446
61.6971
61.6948
58.7741
57.1129
53.7762
49.9284
45.9644
40.0821
36.4481
28.549
22.9451
44.4191
42.2493
38.9361
37.7933
37.4741
37.936
39.2673
42.1682
45.2825
48.3006
52.5547
56.4179
61.1135
64.5876
68.0136
70.8529
72.37
74.3066
74.4666
74.2479
74.6426
73.305
69.5671
65.4213
61.6361
57.0988
52.1673
48.3472
45.3392
42.2851
39.7381
38.3641
37.3532
36.1605
35.084
34.3602
33.8518
33.5667
33.5823
33.9047
34.7952
36.1185
37.7233
39.7918
42.0462
44.3851
46.7762
49.4224
52.8134
56.7528
60.5356
63.7228
65.8417
66.6388
65.9186
63.3728
58.683
51.6434
43.2302
34.2503
26.259
20.6419
15.2741
8.12403
0.216617
-6.84697
-12.903
-17.8958
-21.0776
-21.442
-18.8103
-13.4551
-5.78259
4.37689
15.7174
26.4698
36.2159
45.2581
52.36
57.2789
61.2425
64.3471
66.6308
68.0757
69.3228
70.1495
70.5173
70.9143
70.8315
70.4719
70.1053
69.1892
67.9515
66.4626
64.8651
63.133
61.3319
59.6445
58.0657
56.78
55.863
55.231
54.8158
54.696
54.8006
55.1803
55.7604
56.6097
57.6433
58.8059
59.9399
61.2806
62.7017
63.9408
64.8967
65.6562
66.2662
66.7201
67.1432
67.5141
67.88
68.2261
68.3836
68.3156
67.766
66.5986
64.9368
62.3238
59.1989
54.2269
47.2612
40.5792
32.6332
24.8885
18.9042
14.4198
11.8247
10.8063
11.5103
14.7304
20.7823
28.3819
35.7626
41.8826
46.9709
51.5521
55.2214
58.2267
60.3961
61.8872
62.8574
63.2385
63.6337
63.3532
63.1388
62.8745
62.7757
63.0106
63.7419
64.6252
65.8381
67.3014
68.7613
69.7997
70.6856
71.1241
71.6127
71.5302
72.0747
71.7521
72.1702
71.624
72.0943
71.1878
71.6697
70.8568
71.2559
69.9502
70.4947
69.2333
69.4836
68.0063
68.5386
66.8465
67.0153
65.3218
65.6146
63.5533
63.2243
61.1228
59.9295
57.5933
54.9905
52.1225
48.205
45.2199
39.8379
37.0966
29.9625
24.0344
45.1422
43.4262
40.2441
38.9807
38.7237
39.2284
40.5471
43.2297
46.4014
49.1198
53.0715
56.6639
60.9914
64.4297
67.2858
70.2857
71.6529
73.3981
74.0559
73.5127
73.6732
72.9823
69.6696
65.5915
62.3759
58.745
54.2195
50.4906
47.8128
45.101
42.545
41.0943
40.1914
39.1156
37.9833
37.0238
36.2719
35.7541
35.48
35.4586
35.9806
36.9948
38.3129
40.0026
41.9473
44.0737
46.245
48.7252
52.0966
56.2198
60.3046
63.8141
66.2541
67.2635
66.7017
64.0433
59.0791
51.6263
42.8153
33.8761
26.0563
20.64
15.198
8.00216
0.203838
-6.65301
-12.4021
-17.007
-19.816
-19.9578
-17.1661
-11.7122
-3.97051
6.28008
17.304
27.7485
37.4557
46.356
53.2407
58.0362
61.9254
64.965
67.1428
68.5492
69.811
70.5549
70.9409
71.3739
71.29
71.0527
70.7159
69.8931
68.7254
67.2284
65.6778
64.0421
62.3017
60.6741
59.1391
57.8684
56.9667
56.3378
55.8893
55.7208
55.7553
56.0843
56.6346
57.4025
58.2945
59.2857
60.3213
61.6378
63.065
64.2498
65.1698
65.8811
66.481
66.9176
67.3247
67.7089
68.117
68.4916
68.7084
68.7517
68.314
67.1751
65.4357
62.8071
59.7576
55.0553
48.2174
41.5867
33.8926
26.2293
20.0939
15.5
12.8443
11.7937
12.6554
16.0717
22.2464
29.8359
37.1336
43.228
48.2619
52.8651
56.505
59.6137
62.0334
63.5445
64.6808
65.1746
65.609
65.4736
65.3101
65.075
64.8821
64.9137
65.5124
66.2678
67.2457
68.4598
69.6591
70.3883
71.0719
71.2647
71.6685
71.5018
71.8595
71.5284
71.8598
71.3116
71.6412
70.7183
71.1558
70.4429
70.6695
69.1595
69.6842
68.6338
68.7667
67.2244
67.6825
65.957
66.0336
64.5897
64.4519
62.3589
61.8084
59.7835
58.0295
55.8141
53.3854
50.9155
47.449
45.4782
40.4877
37.9835
31.2427
24.9984
45.7841
44.443
41.4343
40.0452
39.8197
40.4181
41.7801
44.158
47.2715
49.8424
53.4927
56.9183
60.8156
64.247
66.6387
69.6345
71.0602
72.4484
73.5386
72.9207
72.7144
72.5219
69.7653
65.8114
62.933
60.09
56.1782
52.5898
50.094
47.6895
45.3222
43.808
42.8479
41.8616
40.7026
39.5368
38.5867
37.8323
37.2397
36.9144
37.0891
37.7791
38.8431
40.1541
41.7583
43.6851
45.6322
47.9496
51.3163
55.5876
59.9609
63.8012
66.5639
67.8004
67.406
64.6794
59.4115
51.5737
42.4741
33.6037
26.0581
20.7732
15.3001
8.10105
0.416295
-6.19435
-11.6323
-15.8112
-18.1935
-18.0703
-15.1332
-9.62766
-1.86391
8.43232
19.0741
29.1539
38.8168
47.54
54.1637
58.8666
62.6765
65.6266
67.67
69.0623
70.3078
70.9703
71.3969
71.8165
71.7313
71.6113
71.2879
70.5698
69.4671
67.9746
66.471
64.919
63.2315
61.6507
60.1575
58.8954
58.0199
57.4052
56.9218
56.7107
56.7137
57.0111
57.507
58.1572
58.892
59.6986
60.6415
61.9493
63.4112
64.5548
65.4318
66.1026
66.687
67.1095
67.4967
67.9059
68.3757
68.7874
69.0661
69.1667
68.8622
67.8935
66.129
63.4777
60.4409
56.1241
49.5813
42.8348
35.4702
27.9581
21.6943
16.9117
14.2319
13.1599
14.1809
17.7823
24.0628
31.5751
38.6638
44.7193
49.6448
54.2046
57.8635
60.9935
63.6764
65.2331
66.4614
67.0664
67.4867
67.4496
67.341
67.1042
66.8158
66.6661
67.1867
67.8267
68.5304
69.4939
70.4083
70.8599
71.3591
71.3417
71.6678
71.3982
71.6616
71.2646
71.5447
70.9858
71.1572
70.4001
70.779
69.9874
69.9467
68.6849
69.1358
68.0888
68.0031
66.52
66.7777
64.9468
65.0441
63.5471
63.008
60.7096
60.2277
58.0113
56.2324
54.2798
52.2425
50.3401
47.3849
46.0974
41.4571
38.6637
32.2463
25.9156
46.3658
45.3008
42.5189
41.0672
40.8789
41.5009
42.8266
44.9456
47.9827
50.5133
53.8427
57.1339
60.6005
64.0057
66.1215
68.9168
70.4876
71.5359
72.8328
72.4062
71.8793
71.8503
69.7402
66.0893
63.3418
61.0998
57.8834
54.581
52.2193
50.1411
48.0353
46.4291
45.3226
44.3423
43.195
41.9645
40.8612
39.8239
38.8859
38.247
38.1166
38.5046
39.273
40.2498
41.5518
43.2729
45.0078
47.1659
50.5151
54.891
59.5349
63.7002
66.7633
68.2324
67.9659
65.2524
59.7146
51.4241
42.1816
33.4339
26.27
21.0196
15.5703
8.39427
0.864409
-5.47577
-10.6007
-14.346
-16.3092
-15.8614
-12.7851
-7.26749
0.472695
10.7311
20.9928
30.6706
40.2841
48.7657
55.108
59.7522