/*--------------------------------*- C++ -*----------------------------------*\
| =========                 |                                                 |
| \\      /  F ield         | OpenFOAM: The Open Source CFD Toolbox           |
|  \\    /   O peration     | Version:  2.4.0                                 |
|   \\  /    A nd           | Web:      www.OpenFOAM.org                      |
|    \\/     M anipulation  |                                                 |
\*---------------------------------------------------------------------------*/
FoamFile
{
    version     2.0;
    format      ascii;
    class       volScalarField;
    location    "0.259797";
    object      k;
}
// * * * * * * * * * * * * * * * * * * * * * * * * * * * * * * * * * * * * * //

dimensions      [0 2 -2 0 0 0 0];

internalField   nonuniform List<scalar> 
17600
(
0.554945
0.712113
0.829528
0.904995
0.945222
0.959879
0.95804
0.946828
0.931241
0.914476
0.898388
0.883911
0.87138
0.860776
0.851876
0.844377
0.837923
0.832253
0.826682
0.822981
0.373914
0.373471
0.374573
0.378394
0.384906
0.394006
0.405804
0.420342
0.437443
0.456687
0.477458
0.499012
0.520567
0.541396
0.560899
0.578655
0.594448
0.608229
0.620793
0.629893
0.362707
0.350142
0.335734
0.320593
0.305715
0.291914
0.279914
0.270287
0.26341
0.259477
0.258529
0.260486
0.26517
0.272327
0.281647
0.292777
0.305357
0.31901
0.333736
0.348212
0.361234
0.347645
0.333774
0.31962
0.305438
0.291508
0.278117
0.265528
0.253966
0.243611
0.234595
0.227016
0.220937
0.216395
0.213403
0.211952
0.212019
0.213581
0.216654
0.221385
0.361179
0.347825
0.334769
0.321875
0.309149
0.296667
0.284528
0.272836
0.261688
0.251166
0.241337
0.232253
0.223953
0.216465
0.209807
0.203993
0.199035
0.194942
0.19175
0.189539
0.361235
0.348124
0.335585
0.32347
0.311707
0.300277
0.289193
0.278482
0.268178
0.258312
0.248914
0.240007
0.231609
0.223732
0.216386
0.209575
0.203301
0.197565
0.192377
0.187745
0.361267
0.348283
0.336018
0.324338
0.313148
0.302387
0.292021
0.282035
0.272424
0.26319
0.254337
0.245871
0.237795
0.230112
0.222823
0.215926
0.209421
0.203301
0.197569
0.19222
0.36128
0.34835
0.336213
0.324754
0.31388
0.303516
0.293605
0.284107
0.274994
0.266248
0.257856
0.249809
0.242101
0.234723
0.227673
0.220943
0.214529
0.208423
0.202621
0.197125
0.361284
0.348374
0.336291
0.324936
0.314224
0.304078
0.294435
0.285243
0.276462
0.268061
0.260014
0.252301
0.244908
0.23782
0.231027
0.224518
0.218286
0.212319
0.206611
0.201168
0.361284
0.348381
0.336319
0.325009
0.314373
0.304339
0.294843
0.285831
0.277257
0.269081
0.261271
0.253802
0.24665
0.239796
0.233225
0.226923
0.220877
0.215075
0.209509
0.204186
0.361284
0.348382
0.336327
0.325035
0.314432
0.304451
0.295031
0.286118
0.277663
0.269625
0.261969
0.254663
0.247681
0.241
0.234601
0.228466
0.222581
0.21693
0.211504
0.206309
0.361284
0.348382
0.336328
0.325042
0.314453
0.304496
0.295112
0.286249
0.277859
0.2699
0.262336
0.255133
0.248264
0.241702
0.235425
0.229415
0.223654
0.218126
0.212818
0.207737
0.361284
0.348381
0.336327
0.325043
0.314458
0.304511
0.295144
0.286305
0.277948
0.270032
0.26252
0.255378
0.248578
0.242092
0.235898
0.229974
0.224302
0.218865
0.213649
0.208659
0.361284
0.34838
0.336325
0.325041
0.314458
0.304514
0.295154
0.286326
0.277985
0.270091
0.262607
0.255499
0.248739
0.2423
0.236158
0.23029
0.224678
0.219305
0.214155
0.209232
0.361283
0.348379
0.336323
0.325039
0.314456
0.304513
0.295155
0.286332
0.277998
0.270114
0.262644
0.255555
0.248818
0.242405
0.236294
0.230461
0.224888
0.219556
0.21445
0.209575
0.361283
0.348378
0.336322
0.325037
0.314453
0.304511
0.295153
0.286331
0.278001
0.270122
0.262659
0.255579
0.248854
0.242456
0.236362
0.23055
0.225
0.219694
0.214617
0.209772
0.361283
0.348378
0.336321
0.325035
0.314451
0.304508
0.295151
0.28633
0.278
0.270123
0.262663
0.255588
0.248868
0.242478
0.236394
0.230593
0.225057
0.219767
0.214707
0.209882
0.361283
0.348377
0.33632
0.325034
0.31445
0.304506
0.295149
0.286327
0.277999
0.270122
0.262664
0.25559
0.248874
0.242487
0.236408
0.230614
0.225085
0.219804
0.214754
0.20994
0.361283
0.348377
0.33632
0.325033
0.314448
0.304505
0.295147
0.286326
0.277997
0.270121
0.262663
0.255591
0.248875
0.242491
0.236413
0.230622
0.225097
0.219821
0.214777
0.209969
0.361283
0.348377
0.336319
0.325033
0.314448
0.304504
0.295146
0.286325
0.277996
0.27012
0.262662
0.25559
0.248875
0.242492
0.236415
0.230625
0.225102
0.219827
0.214786
0.20998
0.361283
0.348377
0.336319
0.325033
0.314448
0.304504
0.295146
0.286325
0.277996
0.27012
0.262662
0.25559
0.248875
0.242492
0.236415
0.230625
0.225102
0.219828
0.214786
0.20998
0.361283
0.348377
0.33632
0.325033
0.314448
0.304505
0.295147
0.286326
0.277997
0.270121
0.262663
0.255591
0.248875
0.242491
0.236414
0.230622
0.225097
0.219821
0.214777
0.209969
0.361283
0.348377
0.33632
0.325034
0.31445
0.304506
0.295149
0.286327
0.277999
0.270122
0.262664
0.255591
0.248874
0.242488
0.236408
0.230614
0.225085
0.219804
0.214755
0.20994
0.361283
0.348378
0.336321
0.325035
0.314451
0.304508
0.295151
0.28633
0.278
0.270123
0.262663
0.255588
0.248869
0.242478
0.236394
0.230594
0.225058
0.219768
0.214709
0.209882
0.361283
0.348378
0.336322
0.325037
0.314453
0.304511
0.295153
0.286332
0.278001
0.270122
0.262659
0.255579
0.248854
0.242456
0.236362
0.23055
0.225001
0.219696
0.214619
0.209774
0.361283
0.348379
0.336323
0.325039
0.314456
0.304513
0.295155
0.286332
0.277998
0.270114
0.262644
0.255555
0.248818
0.242406
0.236294
0.230462
0.224889
0.219558
0.214453
0.209577
0.361284
0.34838
0.336325
0.325041
0.314458
0.304514
0.295154
0.286326
0.277985
0.270091
0.262607
0.255499
0.24874
0.2423
0.236158
0.230291
0.22468
0.219308
0.214159
0.209237
0.361284
0.348381
0.336327
0.325043
0.314458
0.304511
0.295144
0.286305
0.277948
0.270032
0.26252
0.255378
0.248578
0.242093
0.235899
0.229976
0.224305
0.218869
0.213655
0.208667
0.361284
0.348382
0.336328
0.325042
0.314453
0.304496
0.295112
0.286249
0.277859
0.2699
0.262336
0.255133
0.248264
0.241702
0.235426
0.229417
0.223657
0.218132
0.212827
0.20775
0.361284
0.348382
0.336327
0.325035
0.314432
0.304451
0.295031
0.286118
0.277663
0.269625
0.261969
0.254663
0.247681
0.241001
0.234602
0.228469
0.222585
0.216938
0.211517
0.206328
0.361284
0.348381
0.336319
0.325009
0.314373
0.304339
0.294843
0.285831
0.277257
0.269081
0.261271
0.253802
0.24665
0.239797
0.233227
0.226926
0.220882
0.215085
0.209526
0.204212
0.361284
0.348374
0.336291
0.324936
0.314224
0.304078
0.294435
0.285243
0.276463
0.268061
0.260014
0.252302
0.244908
0.237821
0.231029
0.224522
0.218292
0.212331
0.206632
0.201203
0.36128
0.34835
0.336213
0.324754
0.31388
0.303516
0.293605
0.284107
0.274994
0.266248
0.257857
0.24981
0.242101
0.234725
0.227675
0.220948
0.214537
0.208437
0.202644
0.197166
0.361267
0.348283
0.336018
0.324338
0.313148
0.302387
0.292021
0.282035
0.272424
0.26319
0.254338
0.245872
0.237796
0.230114
0.222825
0.215931
0.209428
0.203315
0.197587
0.192253
0.361235
0.348124
0.335585
0.32347
0.311707
0.300277
0.289193
0.278482
0.268178
0.258312
0.248914
0.240007
0.23161
0.223734
0.216389
0.209579
0.203306
0.197572
0.192373
0.18772
0.361179
0.347825
0.334769
0.321875
0.309149
0.296667
0.284528
0.272836
0.261688
0.251166
0.241337
0.232254
0.223954
0.216466
0.209808
0.203993
0.19903
0.194922
0.191673
0.189289
0.361234
0.347645
0.333774
0.31962
0.305438
0.291508
0.278117
0.265528
0.253966
0.243611
0.234595
0.227016
0.220937
0.216393
0.213397
0.211938
0.211984
0.213487
0.216379
0.220579
0.362707
0.350142
0.335734
0.320593
0.305715
0.291914
0.279914
0.270286
0.263409
0.259476
0.258528
0.260483
0.265164
0.272316
0.281625
0.292734
0.305266
0.318837
0.333087
0.347645
0.373914
0.373471
0.374573
0.378394
0.384906
0.394006
0.405804
0.420342
0.437441
0.456684
0.477452
0.499001
0.520547
0.54136
0.560837
0.578544
0.594236
0.607843
0.619451
0.629195
0.554945
0.712113
0.829528
0.904995
0.945222
0.959879
0.958041
0.946829
0.931243
0.91448
0.898395
0.883922
0.871401
0.860812
0.85194
0.844486
0.838134
0.832599
0.827638
0.823068
1.16338
1.49222
1.79962
2.06847
2.28724
2.4545
2.57643
2.66296
2.72439
2.76923
2.80366
2.83166
2.85566
2.87708
2.89678
2.91534
2.93313
2.95051
2.96773
2.98502
3.00252
3.02034
3.03857
3.05725
3.07644
3.09619
3.11652
3.13746
3.15905
3.18128
3.20416
3.22767
3.2518
3.27653
3.30181
3.3276
3.35387
3.38055
3.40758
3.43491
3.46246
3.49014
3.5179
3.54564
3.57328
3.60075
3.62796
3.65483
3.68128
3.70724
3.73263
3.75739
3.78144
3.80473
3.82719
3.84878
3.86945
3.88916
3.90786
3.92552
3.94212
3.95763
3.97204
3.98532
3.99748
4.0085
4.01839
4.02714
4.03477
4.04128
4.04669
4.05102
4.05427
4.05648
4.05766
4.05784
4.05705
4.0553
4.05264
4.04909
4.04467
4.03942
4.03337
4.02655
4.01899
4.01071
4.00176
3.99214
3.98191
3.97108
3.95967
3.94772
3.93526
3.92229
3.90886
3.89498
3.88067
3.86596
3.85086
3.8354
3.81959
3.80345
3.787
3.77025
3.75321
3.73592
3.71837
3.70058
3.68257
3.66434
3.64591
3.62729
3.6085
3.58954
3.57042
3.55115
3.53174
3.51221
3.49256
3.47279
3.45293
3.43297
3.41294
3.39282
3.37264
3.3524
3.33212
3.31179
3.29143
3.27105
3.25065
3.23025
3.20985
3.18946
3.1691
3.14877
3.12849
3.10826
3.08809
3.06801
3.04801
3.02812
3.00836
2.98872
2.96924
2.94992
2.9308
2.91188
2.89319
2.87475
2.85659
2.83874
2.82122
2.80407
2.78732
2.77101
2.75519
2.73989
2.72517
2.71108
2.69767
2.68503
2.6732
2.66228
2.65235
2.64351
2.63585
2.62947
2.62448
2.62096
2.61912
2.61914
2.62125
2.62567
2.63272
2.64272
2.65607
2.67328
2.69492
2.72173
2.75465
2.79488
2.84401
2.90418
2.97837
3.07071
3.18701
3.33533
3.52653
3.77455
4.09613
4.50953
5.03241
5.67907
6.45687
7.36128
8.36861
9.41521
10.4556
6.69353
0.655088
0.70121
0.772585
0.871502
0.997113
1.14402
1.30422
1.46885
1.6295
1.77948
1.91454
2.03291
2.13487
2.22209
2.29686
2.36158
2.41834
2.46883
2.51431
2.55575
2.59385
2.62919
2.66227
2.6935
2.72325
2.75183
2.77953
2.80654
2.83306
2.85921
2.88512
2.91088
2.93655
2.96221
2.9879
3.01364
3.03947
3.06538
3.09136
3.1174
3.14348
3.16956
3.19559
3.22154
3.24736
3.27298
3.29837
3.32345
3.34817
3.37248
3.39631
3.41962
3.44233
3.46442
3.48581
3.50648
3.52638
3.54548
3.56373
3.5811
3.59758
3.61314
3.62776
3.64142
3.65413
3.66586
3.67663
3.68642
3.69524
3.7031
3.71001
3.71598
3.72103
3.72516
3.7284
3.73077
3.73229
3.73298
3.73286
3.73196
3.7303
3.7279
3.7248
3.721
3.71655
3.71146
3.70576
3.69948
3.69262
3.68522
3.6773
3.66888
3.65998
3.65062
3.64082
3.6306
3.61996
3.60894
3.59755
3.5858
3.5737
3.56128
3.54853
3.53549
3.52215
3.50853
3.49464
3.4805
3.4661
3.45147
3.43661
3.42152
3.40623
3.39074
3.37505
3.35918
3.34313
3.32691
3.31053
3.29399
3.27731
3.26049
3.24355
3.22648
3.20929
3.192
3.17461
3.15713
3.13956
3.12193
3.10423
3.08647
3.06867
3.05083
3.03297
3.01508
2.9972
2.97932
2.96145
2.94362
2.92583
2.9081
2.89045
2.87288
2.85543
2.83809
2.82091
2.80389
2.78706
2.77044
2.75407
2.73797
2.72216
2.70669
2.6916
2.67691
2.66268
2.64895
2.63577
2.6232
2.6113
2.60014
2.58979
2.58032
2.57184
2.56443
2.5582
2.55325
2.54965
2.54756
2.54714
2.5486
2.55214
2.55803
2.56655
2.57804
2.59291
2.61164
2.63482
2.6632
2.69768
2.73947
2.79015
2.85184
2.92748
3.02119
3.13879
3.28842
3.48113
3.73136
4.05665
4.4765
5.01033
5.67454
6.47905
7.42369
8.48782
9.64946
10.7083
7.78229
0.353652
0.360997
0.371701
0.387533
0.410426
0.442955
0.487407
0.545455
0.618067
0.705197
0.805421
0.916172
1.03413
1.15549
1.27648
1.39381
1.50495
1.60834
1.70328
1.78985
1.8686
1.94036
2.00603
2.06647
2.1224
2.17445
2.22311
2.26881
2.31192
2.35277
2.39165
2.42883
2.46456
2.49904
2.53246
2.56496
2.59667
2.62768
2.65808
2.68794
2.71729
2.74617
2.77462
2.80264
2.83024
2.85741
2.88415
2.91042
2.93622
2.96152
2.98628
3.01048
3.03409
3.05707
3.0794
3.10105
3.12199
3.14219
3.16163
3.18029
3.19815
3.21519
3.23141
3.24678
3.26131
3.27498
3.2878
3.29976
3.31088
3.32115
3.33058
3.33918
3.34697
3.35396
3.36016
3.36558
3.37025
3.37419
3.37741
3.37992
3.38176
3.38294
3.38348
3.3834
3.38273
3.38147
3.37965
3.3773
3.37441
3.37103
3.36716
3.36281
3.35801
3.35277
3.34711
3.34103
3.33456
3.3277
3.32047
3.31287
3.30493
3.29664
3.28803
3.27909
3.26985
3.26029
3.25045
3.24032
3.2299
3.21922
3.20827
3.19707
3.18561
3.17391
3.16198
3.14981
3.13743
3.12482
3.11201
3.09899
3.08578
3.07237
3.05879
3.04503
3.0311
3.01701
3.00276
2.98838
2.97385
2.9592
2.94443
2.92955
2.91456
2.89949
2.88433
2.8691
2.85382
2.83849
2.82312
2.80773
2.79234
2.77695
2.76159
2.74627
2.73101
2.71582
2.70074
2.68578
2.67096
2.65632
2.64188
2.62766
2.61371
2.60006
2.58674
2.57381
2.56129
2.54924
2.53772
2.52678
2.51649
2.50691
2.49811
2.49019
2.48324
2.47734
2.47262
2.46916
2.46702
2.46639
2.46745
2.47038
2.4754
2.48277
2.49278
2.50577
2.52215
2.54239
2.56709
2.59698
2.63296
2.67622
2.72831
2.79133
2.86817
2.9629
3.08129
3.23146
3.42459
3.67537
4.00193
4.42476
4.96453
5.63922
6.46015
7.4291
8.52402
9.73376
10.7594
8.76667
0.223052
0.224823
0.226863
0.229381
0.232688
0.237222
0.243548
0.252362
0.264495
0.2809
0.30284
0.331628
0.368402
0.414102
0.469313
0.53398
0.607536
0.688849
0.776279
0.867845
0.961432
1.05501
1.14682
1.23548
1.32007
1.40009
1.47538
1.54606
1.6124
1.67475
1.73349
1.78898
1.84154
1.89145
1.93897
1.98433
2.02772
2.06933
2.10934
2.14791
2.18516
2.22122
2.2562
2.29016
2.3232
2.35535
2.38667
2.41719
2.44694
2.47594
2.50419
2.5317
2.55849
2.58454
2.60985
2.63443
2.65825
2.68133
2.70364
2.72518
2.74594
2.76593
2.78513
2.80355
2.82117
2.83801
2.85406
2.86933
2.88383
2.89755
2.91051
2.92273
2.9342
2.94494
2.95496
2.96429
2.97293
2.98089
2.9882
2.99488
3.00093
3.00637
3.01122
3.0155
3.01923
3.02241
3.02506
3.0272
3.02885
3.03002
3.03071
3.03095
3.03074
3.0301
3.02904
3.02757
3.02569
3.02343
3.02078
3.01775
3.01435
3.0106
3.00649
3.00204
2.99724
2.99211
2.98666
2.98088
2.97478
2.96837
2.96166
2.95464
2.94733
2.93972
2.93183
2.92367
2.91522
2.90651
2.89753
2.8883
2.87881
2.86908
2.85911
2.8489
2.83847
2.82782
2.81696
2.8059
2.79463
2.78319
2.77156
2.75976
2.7478
2.7357
2.72345
2.71108
2.69859
2.68599
2.67331
2.66054
2.64772
2.63485
2.62195
2.60904
2.59613
2.58326
2.57043
2.55768
2.54503
2.5325
2.52013
2.50794
2.49597
2.48426
2.47285
2.46178
2.45109
2.44084
2.43108
2.42187
2.41328
2.40537
2.39823
2.39193
2.38658
2.38227
2.37911
2.3772
2.37658
2.37747
2.38003
2.38447
2.391
2.39988
2.41139
2.42588
2.44376
2.46549
2.49167
2.52301
2.56041
2.60504
2.65841
2.72257
2.80036
2.89575
3.01443
3.16441
3.35684
3.60652
3.93194
4.3542
4.89486
5.57282
6.39992
7.37792
8.48194
9.69207
10.7112
9.47902
0.18899
0.188498
0.188069
0.187721
0.187492
0.187436
0.187625
0.188156
0.189154
0.190781
0.193254
0.196852
0.201914
0.208856
0.218166
0.230559
0.246747
0.267433
0.29331
0.324994
0.362931
0.407321
0.458065
0.514736
0.576604
0.642685
0.711833
0.782843
0.854549
0.925914
0.996086
1.06443
1.1305
1.19408
1.25505
1.31345
1.36936
1.42289
1.47421
1.52345
1.57076
1.61626
1.66009
1.70234
1.74312
1.78253
1.82066
1.85757
1.89335
1.92804
1.9617
1.99438
2.02611
2.05692
2.08684
2.11589
2.14409
2.17145
2.19798
2.2237
2.24861
2.27273
2.29606
2.3186
2.34038
2.36139
2.38164
2.40115
2.41991
2.43795
2.45527
2.47188
2.4878
2.50304
2.5176
2.53151
2.54478
2.55742
2.56944
2.58087
2.5917
2.60197
2.61167
2.62083
2.62946
2.63757
2.64517
2.65227
2.65889
2.66503
2.67072
2.67594
2.68073
2.68507
2.68899
2.69249
2.69557
2.69824
2.70051
2.70238
2.70386
2.70495
2.70566
2.70599
2.70594
2.70553
2.70474
2.70359
2.70209
2.70022
2.698
2.69544
2.69252
2.68926
2.68567
2.68174
2.67748
2.6729
2.66799
2.66277
2.65723
2.65139
2.64525
2.63882
2.6321
2.6251
2.61783
2.61028
2.60249
2.59444
2.58615
2.57763
2.56888
2.55993
2.55077
2.54143
2.53191
2.52222
2.51239
2.50242
2.49233
2.48213
2.47185
2.4615
2.4511
2.44068
2.43026
2.41985
2.4095
2.39922
2.38904
2.37901
2.36915
2.3595
2.35011
2.34101
2.33226
2.3239
2.316
2.30862
2.30182
2.29567
2.29026
2.28566
2.28199
2.27933
2.27779
2.27748
2.27842
2.28087
2.28498
2.29095
2.29901
2.30941
2.32243
2.33841
2.35777
2.38096
2.40858
2.44131
2.48006
2.52594
2.58045
2.64557
2.72406
2.81978
2.93826
3.08734
3.27802
3.52503
3.84694
4.26519
4.8018
5.47605
6.29967
7.27314
8.36921
9.55194
10.5748
9.92027
0.186398
0.185106
0.18386
0.182662
0.181515
0.180425
0.179402
0.178456
0.177606
0.176876
0.176298
0.175914
0.175778
0.175959
0.176541
0.177636
0.179383
0.181975
0.185636
0.190627
0.197253
0.205868
0.216867
0.23067
0.247701
0.268358
0.292971
0.321765
0.354828
0.392087
0.433298
0.478066
0.525866
0.576087
0.628076
0.681186
0.734817
0.788441
0.841624
0.894026
0.945402
0.995588
1.04448
1.09205
1.13827
1.18316
1.22675
1.26909
1.31021
1.35016
1.38898
1.42671
1.4634
1.49907
1.53377
1.56752
1.60035
1.6323
1.66339
1.69363
1.72305
1.75166
1.77949
1.80655
1.83285
1.8584
1.88322
1.90733
1.93073
1.95343
1.97546
1.99682
2.01752
2.03758
2.057
2.07581
2.09402
2.11163
2.12866
2.14512
2.16102
2.17638
2.1912
2.2055
2.21928
2.23256
2.24535
2.25765
2.26947
2.28083
2.29172
2.30215
2.31214
2.32168
2.33078
2.33945
2.34769
2.3555
2.36288
2.36985
2.37639
2.38252
2.38823
2.39353
2.39842
2.4029
2.40697
2.41064
2.4139
2.41676
2.41922
2.42128
2.42294
2.4242
2.42508
2.42556
2.42566
2.42537
2.42471
2.42367
2.42226
2.42048
2.41834
2.41585
2.41301
2.40982
2.4063
2.40244
2.39827
2.39378
2.38899
2.3839
2.37852
2.37288
2.36696
2.3608
2.3544
2.34777
2.34093
2.33389
2.32667
2.31929
2.31176
2.30411
2.29635
2.28852
2.28062
2.27269
2.26475
2.25683
2.24898
2.2412
2.23356
2.22608
2.2188
2.21178
2.20506
2.1987
2.19275
2.18727
2.18234
2.17803
2.17441
2.17159
2.16964
2.16869
2.16883
2.17015
2.1727
2.17674
2.18242
2.18995
2.19955
2.21146
2.22599
2.24346
2.26427
2.28889
2.31789
2.35196
2.39196
2.43899
2.49449
2.56039
2.63933
2.73506
2.85287
3.0004
3.18835
3.4312
3.7474
4.15839
4.68628
5.35034
6.16174
7.11915
8.19382
9.33457
10.3495
10.1151
0.190632
0.189095
0.187594
0.186128
0.184698
0.183304
0.181947
0.180628
0.179349
0.178115
0.176931
0.175805
0.174745
0.173766
0.172882
0.172115
0.171488
0.171038
0.170809
0.17085
0.171224
0.172005
0.17328
0.175157
0.177762
0.18124
0.185762
0.191521
0.198727
0.207608
0.218398
0.231325
0.246598
0.26439
0.284823
0.307949
0.333751
0.362131
0.392918
0.425878
0.460728
0.497157
0.534838
0.573452
0.612698
0.652305
0.692035
0.731693
0.771118
0.810183
0.848793
0.886876
0.924384
0.961279
0.99754
1.03315
1.06811
1.1024
1.13603
1.169
1.20131
1.23297
1.26399
1.29436
1.3241
1.35322
1.38172
1.4096
1.43689
1.46357
1.48968
1.5152
1.54015
1.56454
1.58838
1.61167
1.63442
1.65665
1.67836
1.69955
1.72023
1.74042
1.76012
1.77934
1.79807
1.81634
1.83414
1.85148
1.86836
1.88479
1.90078
1.91631
1.93141
1.94606
1.96027
1.97405
1.98738
2.00028
2.01275
2.02477
2.03636
2.04752
2.05823
2.0685
2.07834
2.08773
2.09668
2.10519
2.11326
2.12088
2.12806
2.1348
2.14109
2.14694
2.15235
2.15732
2.16185
2.16594
2.1696
2.17283
2.17563
2.17801
2.17997
2.18151
2.18264
2.18337
2.1837
2.18364
2.18319
2.18237
2.18118
2.17964
2.17774
2.17551
2.17295
2.17008
2.16691
2.16345
2.15971
2.15572
2.15148
2.14703
2.14236
2.13752
2.1325
2.12735
2.12208
2.11673
2.11131
2.10586
2.10041
2.095
2.08966
2.08443
2.07937
2.0745
2.06989
2.0656
2.06167
2.05817
2.05517
2.05275
2.051
2.04999
2.04983
2.05062
2.05247
2.05546
2.05964
2.06529
2.07256
2.08166
2.0928
2.10623
2.12225
2.14118
2.16341
2.18941
2.21973
2.25505
2.29621
2.34427
2.40063
2.46712
2.54629
2.6417
2.75844
2.90381
3.08813
3.32549
3.63396
4.03471
4.54965
5.19768
5.98923
6.92108
7.9638
9.05549
10.0461
10.0965
0.195481
0.193885
0.192316
0.190776
0.189264
0.18778
0.186324
0.184895
0.183493
0.18212
0.180776
0.179462
0.17818
0.176933
0.175725
0.174559
0.173443
0.172383
0.171389
0.170473
0.16965
0.168935
0.16835
0.167919
0.167669
0.167633
0.167851
0.168367
0.169233
0.170508
0.172263
0.174574
0.177531
0.181231
0.18578
0.191293
0.197889
0.205686
0.214802
0.225344
0.237406
0.251059
0.266352
0.283301
0.301895
0.322087
0.343805
0.366949
0.391398
0.417018
0.443665
0.471194
0.499459
0.528324
0.55766
0.58735
0.61729
0.647387
0.677563
0.707747
0.737882
0.767916
0.797806
0.827518
0.857019
0.886283
0.915289
0.944015
0.972447
1.00057
1.02837
1.05584
1.08297
1.10976
1.13619
1.16226
1.18797
1.21331
1.23828
1.26289
1.28711
1.31097
1.33444
1.35754
1.38026
1.4026
1.42455
1.44612
1.4673
1.48809
1.50849
1.52849
1.54809
1.5673
1.5861
1.60449
1.62247
1.64003
1.65717
1.67388
1.69017
1.70602
1.72143
1.7364
1.75092
1.76499
1.77861
1.79176
1.80445
1.81667
1.82843
1.83971
1.85051
1.86084
1.8707
1.88007
1.88897
1.89738
1.90532
1.91278
1.91977
1.92628
1.93232
1.93789
1.94301
1.94766
1.95186
1.95562
1.95893
1.96181
1.96427
1.96631
1.96794
1.96918
1.97003
1.9705
1.97062
1.97039
1.96982
1.96894
1.96776
1.96629
1.96456
1.96259
1.96039
1.958
1.95544
1.95272
1.94989
1.94698
1.94401
1.94103
1.93806
1.93516
1.93236
1.92972
1.92728
1.9251
1.92325
1.92178
1.92077
1.92029
1.92043
1.92128
1.92293
1.9255
1.92907
1.93371
1.93956
1.94683
1.9557
1.96636
1.97903
1.99396
2.01144
2.03179
2.0554
2.08272
2.1143
2.15079
2.193
2.24197
2.29902
2.36593
2.4451
2.5399
2.65518
2.79785
2.97776
3.20845
3.5074
3.89528
4.39353
5.02046
5.78572
6.68444
7.68714
8.72646
9.67984
9.91147
0.199535
0.197946
0.19638
0.194838
0.193319
0.191823
0.19035
0.1889
0.187472
0.186066
0.184682
0.183321
0.181983
0.180668
0.179377
0.178111
0.176873
0.175663
0.174483
0.173337
0.172229
0.171162
0.170143
0.169178
0.168275
0.167443
0.166692
0.166034
0.165483
0.165055
0.164767
0.164639
0.164695
0.164959
0.165461
0.166232
0.167309
0.16873
0.17054
0.172785
0.175518
0.178794
0.182669
0.187204
0.192461
0.198498
0.205374
0.213144
0.221856
0.231553
0.242265
0.254015
0.266814
0.28066
0.295542
0.311435
0.328306
0.346112
0.364804
0.384325
0.404617
0.425617
0.447263
0.469493
0.492244
0.515458
0.539079
0.563053
0.58733
0.611863
0.636608
0.661526
0.686578
0.71173
0.736949
0.762206
0.787473
0.812723
0.837934
0.863082
0.888147
0.913109
0.937948
0.962648
0.987191
1.01156
1.03574
1.05972
1.08349
1.10702
1.13031
1.15333
1.17609
1.19857
1.22074
1.24261
1.26416
1.28537
1.30623
1.32674
1.34688
1.36664
1.38601
1.40498
1.42354
1.44167
1.45938
1.47664
1.49346
1.50982
1.52571
1.54114
1.55608
1.57055
1.58452
1.59801
1.61099
1.62348
1.63547
1.64695
1.65793
1.6684
1.67837
1.68783
1.6968
1.70526
1.71324
1.72072
1.72771
1.73423
1.74027
1.74585
1.75097
1.75565
1.75988
1.76369
1.76709
1.77008
1.77269
1.77492
1.7768
1.77834
1.77957
1.78049
1.78114
1.78153
1.7817
1.78166
1.78146
1.78111
1.78066
1.78013
1.77957
1.77903
1.77853
1.77814
1.77791
1.77789
1.77813
1.77872
1.77972
1.7812
1.78326
1.78597
1.78945
1.7938
1.79911
1.80539
1.8129
1.82178
1.83223
1.84443
1.8586
1.875
1.89389
1.91562
1.94054
1.96911
2.00186
2.03941
2.08257
2.13231
2.1899
2.25704
2.33598
2.42992
2.54337
2.68287
2.8577
3.08071
3.36864
3.74142
4.2198
4.8214
5.55508
6.41482
7.37158
8.3569
9.26548
9.60652
0.202585
0.201026
0.199488
0.197971
0.196474
0.194997
0.193539
0.192102
0.190684
0.189285
0.187905
0.186545
0.185203
0.183881
0.182577
0.181294
0.18003
0.178786
0.177563
0.176361
0.175181
0.174025
0.172894
0.17179
0.170715
0.169672
0.168665
0.167696
0.166771
0.165894
0.165069
0.164305
0.163607
0.162983
0.162442
0.161994
0.161648
0.161416
0.161311
0.161346
0.161538
0.161902
0.162456
0.163221
0.164217
0.165467
0.166997
0.168834
0.171005
0.17354
0.176473
0.179835
0.183661
0.187986
0.192844
0.198271
0.2043
0.210964
0.218293
0.226314
0.235052
0.244528
0.254757
0.265751
0.277516
0.290053
0.30336
0.317426
0.332239
0.34778
0.364029
0.38096
0.398544
0.416751
0.435548
0.454902
0.474776
0.495135
0.515943
0.537163
0.558759
0.580695
0.602937
0.625448
0.648196
0.671146
0.694266
0.717523
0.740887
0.764327
0.787813
0.811316
0.834806
0.858258
0.881642
0.904934
0.928106
0.951135
0.973995
0.996664
1.01912
1.04133
1.06329
1.08497
1.10634
1.1274
1.14812
1.16849
1.18848
1.20809
1.22729
1.24608
1.26443
1.28234
1.2998
1.3168
1.33332
1.34936
1.3649
1.37996
1.39451
1.40855
1.42209
1.43511
1.44762
1.45961
1.47109
1.48205
1.49251
1.50246
1.5119
1.52085
1.5293
1.53727
1.54476
1.55179
1.55836
1.56449
1.57018
1.57546
1.58034
1.58483
1.58895
1.59273
1.59618
1.59933
1.60221
1.60483
1.60722
1.60943
1.61148
1.61341
1.61525
1.61706
1.61887
1.62073
1.62269
1.62482
1.62717
1.62981
1.6328
1.63624
1.6402
1.64477
1.65006
1.65617
1.66318
1.67111
1.68023
1.69069
1.70268
1.71638
1.732
1.7498
1.77005
1.79307
1.81923
1.84895
1.88276
1.92127
1.96524
2.01561
2.07358
2.14075
2.21925
2.31205
2.42338
2.5593
2.72848
2.943
3.21869
3.57455
4.03048
4.60333
5.30131
6.1177
7.02441
7.95491
8.81515
9.21874
0.204746
0.203223
0.201719
0.200233
0.198766
0.197318
0.195888
0.194475
0.19308
0.191703
0.190343
0.189
0.187675
0.186366
0.185075
0.1838
0.182542
0.181301
0.180077
0.17887
0.17768
0.176507
0.175353
0.174217
0.1731
0.172003
0.170927
0.169873
0.168842
0.167837
0.166858
0.165909
0.16499
0.164105
0.163257
0.162449
0.161684
0.160966
0.160299
0.159689
0.159139
0.158656
0.158245
0.157913
0.157666
0.157511
0.157458
0.157513
0.157688
0.157991
0.158434
0.159028
0.159787
0.160725
0.161856
0.163197
0.164765
0.16658
0.168662
0.171032
0.173714
0.176733
0.180113
0.183882
0.188068
0.192699
0.197803
0.20341
0.209548
0.216246
0.22353
0.231425
0.239954
0.249139
0.258997
0.269542
0.280785
0.292732
0.305387
0.318748
0.332809
0.34756
0.362988
0.379073
0.395796
0.413131
0.43105
0.449524
0.46852
0.488004
0.507939
0.52829
0.549016
0.570081
0.591445
0.613068
0.634911
0.656936
0.679102
0.701372
0.723708
0.746073
0.768431
0.790747
0.812986
0.835117
0.857106
0.878923
0.900538
0.921925
0.943055
0.963903
0.984445
1.00466
1.02452
1.04402
1.06312
1.08182
1.1001
1.11794
1.13534
1.15227
1.16873
1.18471
1.20021
1.21521
1.22971
1.24371
1.2572
1.27019
1.28267
1.29465
1.30612
1.3171
1.32758
1.33758
1.3471
1.35615
1.36474
1.37288
1.38059
1.38788
1.39476
1.40127
1.40741
1.4132
1.41868
1.42386
1.42878
1.43347
1.43795
1.44226
1.44645
1.45055
1.4546
1.45866
1.46278
1.46701
1.47141
1.47606
1.48101
1.48636
1.49218
1.49856
1.50561
1.51342
1.52209
1.5316
1.54228
1.55426
1.56771
1.58284
1.59984
1.61896
1.64048
1.66469
1.69198
1.72275
1.7575
1.79682
1.84145
1.89228
1.95045
2.01746
2.0953
2.18673
2.29564
2.42763
2.59072
2.79611
3.05862
3.39617
3.8277
4.3692
5.02839
5.79837
6.65238
7.52775
8.33869
8.77516
0.206208
0.204717
0.203245
0.20179
0.200353
0.198934
0.197532
0.196146
0.194777
0.193425
0.192088
0.190768
0.189464
0.188176
0.186904
0.185647
0.184405
0.183179
0.181967
0.180771
0.17959
0.178424
0.177273
0.176138
0.175018
0.173913
0.172825
0.171752
0.170697
0.169658
0.168638
0.167635
0.166652
0.165689
0.164747
0.163827
0.16293
0.162058
0.161212
0.160394
0.159606
0.158849
0.158125
0.157438
0.156788
0.15618
0.155615
0.155096
0.154628
0.154212
0.153854
0.153557
0.153326
0.153164
0.153078
0.153074
0.153156
0.153332
0.15361
0.153998
0.154503
0.155138
0.155911
0.156835
0.157923
0.159189
0.160649
0.162319
0.164219
0.166366
0.168784
0.171495
0.174523
0.177894
0.181635
0.185774
0.190341
0.195364
0.200875
0.206902
0.213476
0.220625
0.228375
0.236752
0.245778
0.255472
0.26585
0.276922
0.288697
0.301176
0.314357
0.328233
0.34279
0.358012
0.373877
0.390359
0.407428
0.425051
0.443191
0.46181
0.480866
0.500317
0.52012
0.540229
0.560599
0.581187
0.601946
0.622833
0.643805
0.664818
0.685833
0.706808
0.727706
0.748489
0.769123
0.789574
0.809809
0.829801
0.84952
0.868939
0.888036
0.906787
0.925171
0.943171
0.960768
0.977947
0.994696
1.011
1.02685
1.04225
1.05717
1.07162
1.0856
1.0991
1.11212
1.12466
1.13673
1.14833
1.15947
1.17016
1.1804
1.19021
1.1996
1.20859
1.21719
1.22543
1.23332
1.24088
1.24815
1.25515
1.26192
1.26848
1.27488
1.28114
1.28733
1.29348
1.29964
1.30587
1.31223
1.31878
1.3256
1.33276
1.34035
1.34845
1.35716
1.36659
1.3768
1.38782
1.39996
1.41336
1.42819
1.44463
1.4629
1.48323
1.50589
1.53118
1.55946
1.59112
1.62666
1.66664
1.71175
1.76286
1.82103
1.88767
1.96462
2.05443
2.16067
2.28845
2.4451
2.6409
2.88958
3.20786
3.61358
4.12192
4.74021
5.4618
6.26165
7.08199
7.84409
8.29501
0.207157
0.205693
0.204247
0.202818
0.201407
0.200013
0.198635
0.197273
0.195928
0.194598
0.193285
0.191986
0.190703
0.189436
0.188183
0.186945
0.185721
0.184512
0.183317
0.182136
0.180969
0.179816
0.178677
0.177552
0.176441
0.175343
0.17426
0.17319
0.172134
0.171092
0.170065
0.169052
0.168053
0.16707
0.166101
0.165149
0.164212
0.163292
0.162388
0.161502
0.160635
0.159786
0.158957
0.158148
0.15736
0.156594
0.155852
0.155134
0.154441
0.153775
0.153137
0.152528
0.151951
0.151406
0.150895
0.150421
0.149986
0.149591
0.149241
0.148937
0.148682
0.148481
0.148336
0.148253
0.148236
0.14829
0.148422
0.148637
0.148943
0.149348
0.149861
0.150492
0.151252
0.152153
0.153208
0.154433
0.155842
0.157454
0.159288
0.161365
0.163707
0.166338
0.169284
0.172571
0.176229
0.180287
0.184776
0.189727
0.19517
0.201137
0.207658
0.214762
0.222475
0.230821
0.23982
0.249489
0.25984
0.270881
0.282612
0.295031
0.308127
0.321887
0.33629
0.35131
0.366918
0.38308
0.399757
0.41691
0.434494
0.452464
0.470775
0.489377
0.508225
0.52727
0.546465
0.565763
0.585121
0.604494
0.623839
0.643117
0.66229
0.68132
0.700174
0.71882
0.737227
0.755368
0.773217
0.790751
0.80795
0.824794
0.841266
0.857353
0.873041
0.888321
0.903185
0.917625
0.931639
0.945223
0.95838
0.971109
0.983416
0.995307
1.00679
1.01788
1.02858
1.03891
1.04889
1.05854
1.06788
1.07694
1.08574
1.09431
1.1027
1.11092
1.11904
1.12709
1.13511
1.14317
1.15132
1.15963
1.16815
1.17698
1.18618
1.19585
1.20609
1.21698
1.22855
1.24097
1.25444
1.26912
1.28518
1.3028
1.32218
1.34357
1.36721
1.3934
1.42249
1.45488
1.49101
1.53145
1.57685
1.62801
1.68596
1.752
1.82782
1.91577
2.01909
2.14241
2.29237
2.4783
2.71275
3.01118
3.39025
3.86431
4.44046
5.11263
5.85779
6.6236
7.33801
7.79195
0.20775
0.206306
0.20488
0.203472
0.20208
0.200705
0.199347
0.198005
0.196678
0.195368
0.194073
0.192793
0.191528
0.190278
0.189042
0.187821
0.186614
0.18542
0.184241
0.183075
0.181923
0.180784
0.179658
0.178545
0.177445
0.176358
0.175284
0.174222
0.173174
0.172138
0.171115
0.170104
0.169106
0.168121
0.167149
0.166189
0.165243
0.16431
0.16339
0.162484
0.161591
0.160712
0.159847
0.158997
0.158161
0.15734
0.156535
0.155745
0.154971
0.154214
0.153474
0.152751
0.152046
0.15136
0.150692
0.150045
0.149418
0.148813
0.148229
0.147669
0.147133
0.146623
0.14614
0.145685
0.14526
0.144867
0.144508
0.144185
0.143901
0.143659
0.143462
0.143315
0.14322
0.143183
0.14321
0.143306
0.143477
0.143731
0.144077
0.144523
0.145079