/*--------------------------------*- C++ -*----------------------------------*\
| =========                 |                                                 |
| \\      /  F ield         | OpenFOAM: The Open Source CFD Toolbox           |
|  \\    /   O peration     | Version:  2.4.0                                 |
|   \\  /    A nd           | Web:      www.OpenFOAM.org                      |
|    \\/     M anipulation  |                                                 |
\*---------------------------------------------------------------------------*/
FoamFile
{
    version     2.0;
    format      ascii;
    class       volScalarField;
    location    "0.259797";
    object      nut;
}
// * * * * * * * * * * * * * * * * * * * * * * * * * * * * * * * * * * * * * //

dimensions      [0 2 -1 0 0 0 0];

internalField   nonuniform List<scalar> 
17600
(
0.000104556
0.00011844
0.000127832
0.00013352
0.000136456
0.000137509
0.000137378
0.000136572
0.000135443
0.000134218
0.000133032
0.000131956
0.000131017
0.000130218
0.000129543
0.000128971
0.000128477
0.000128042
0.000127613
0.000127327
0.000341433
0.000221415
0.0001724
0.000148313
0.000136257
0.000131029
0.000130061
0.00013196
0.000135881
0.00014124
0.000147577
0.000154502
0.000161679
0.000168829
0.000175731
0.00018223
0.000188236
0.000193672
0.000198696
0.00020067
0.000674785
0.000521458
0.000416415
0.000343305
0.00029127
0.000253577
0.000225842
0.000205269
0.000190075
0.000179097
0.000171543
0.000166841
0.000164555
0.000164322
0.000165826
0.000168772
0.000172897
0.000177871
0.000183685
0.00018814
0.000803782
0.000728344
0.000650842
0.000580673
0.000520487
0.000470059
0.000427976
0.000392636
0.000362656
0.000336959
0.000314746
0.000295454
0.0002787
0.000264238
0.000251907
0.000241595
0.000233224
0.000226599
0.000221778
0.000217198
0.000837701
0.000809004
0.000770666
0.000727818
0.000684466
0.000643139
0.000605005
0.000570352
0.000539025
0.000510681
0.000484917
0.000461352
0.000439653
0.000419552
0.000400849
0.000383398
0.000367119
0.00035185
0.000337674
0.000323216
0.000845944
0.000834619
0.000817654
0.000795887
0.00077084
0.000744143
0.000717089
0.000690544
0.00066501
0.000640731
0.000617776
0.000596108
0.000575631
0.000556227
0.000537771
0.000520138
0.000503225
0.00048685
0.00047097
0.000454633
0.000847925
0.000842162
0.00083404
0.000823218
0.000809839
0.0007944
0.000777522
0.000759791
0.000741694
0.000723598
0.000705754
0.000688319
0.000671378
0.000654965
0.000639078
0.000623687
0.00060875
0.000594159
0.000579866
0.000565358
0.000848403
0.000844311
0.000839419
0.000833357
0.000825917
0.000817087
0.000807005
0.000795894
0.000784003
0.000771576
0.000758826
0.000745928
0.000733014
0.000720182
0.000707497
0.000694996
0.000682698
0.00067057
0.000658599
0.000646564
0.000848518
0.000844912
0.000841123
0.000836936
0.000832158
0.000826666
0.00082041
0.000813408
0.000805726
0.000797461
0.000788726
0.000779628
0.00077027
0.00076074
0.000751112
0.000741442
0.000731772
0.000722114
0.000712481
0.00070281
0.000848546
0.000845078
0.00084165
0.000838155
0.00083448
0.000830518
0.000826189
0.000821443
0.000816263
0.000810656
0.000804655
0.0007983
0.000791643
0.000784736
0.00077763
0.000770369
0.000762993
0.000755524
0.000747987
0.000740394
0.000848553
0.000845122
0.000841809
0.00083856
0.000835315
0.000832008
0.000828577
0.000824968
0.000821141
0.000817071
0.000812747
0.000808171
0.000803355
0.000798317
0.00079308
0.000787669
0.000782108
0.000776413
0.000770607
0.000764729
0.000848554
0.000845134
0.000841855
0.00083869
0.000835607
0.000832567
0.000829531
0.000826458
0.000823313
0.000820065
0.000816692
0.000813178
0.000809515
0.0008057
0.000801736
0.000797631
0.000793393
0.000789029
0.000784552
0.000780009
0.000848554
0.000845136
0.000841868
0.000838731
0.000835706
0.00083277
0.0008299
0.000827068
0.000824248
0.000821415
0.000818548
0.000815627
0.000812638
0.000809569
0.000806414
0.000803168
0.00079983
0.000796399
0.000792878
0.000789315
0.000848554
0.000845136
0.00084187
0.000838742
0.000835737
0.000832842
0.000830038
0.000827309
0.000824638
0.000822004
0.000819393
0.000816786
0.00081417
0.000811531
0.000808859
0.000806146
0.000803384
0.000800569
0.000797698
0.000794814
0.000848553
0.000845135
0.00084187
0.000838744
0.000835746
0.000832865
0.000830088
0.000827402
0.000824795
0.000822254
0.000819766
0.000817318
0.000814898
0.000812495
0.000810099
0.000807699
0.000805288
0.000802859
0.000800407
0.000797971
0.000848553
0.000845135
0.000841869
0.000838744
0.000835748
0.000832872
0.000830104
0.000827436
0.000824856
0.000822356
0.000819926
0.000817555
0.000815235
0.000812956
0.000810709
0.000808486
0.000806279
0.000804081
0.000801886
0.000799733
0.000848553
0.000845134
0.000841868
0.000838743
0.000835748
0.000832873
0.000830109
0.000827447
0.000824879
0.000822396
0.000819992
0.000817658
0.000815386
0.00081317
0.000811001
0.000808873
0.00080678
0.000804714
0.000802671
0.000800688
0.000848553
0.000845134
0.000841868
0.000838742
0.000835747
0.000832873
0.00083011
0.00082745
0.000824886
0.000822411
0.000820018
0.0008177
0.000815452
0.000813266
0.000811137
0.000809059
0.000807026
0.000805033
0.000803075
0.000801189
0.000848553
0.000845133
0.000841867
0.000838742
0.000835746
0.000832872
0.000830109
0.000827451
0.000824889
0.000822416
0.000820028
0.000817717
0.000815479
0.000813307
0.000811197
0.000809143
0.00080714
0.000805184
0.000803271
0.000801437
0.000848553
0.000845133
0.000841867
0.000838741
0.000835746
0.000832871
0.000830109
0.000827451
0.000824889
0.000822418
0.000820031
0.000817723
0.000815488
0.000813322
0.000811219
0.000809175
0.000807185
0.000805245
0.00080335
0.000801538
0.000848553
0.000845133
0.000841867
0.000838741
0.000835746
0.000832871
0.000830109
0.000827451
0.000824889
0.000822418
0.000820031
0.000817723
0.000815488
0.000813322
0.000811219
0.000809175
0.000807185
0.000805245
0.000803351
0.000801539
0.000848553
0.000845133
0.000841867
0.000838742
0.000835746
0.000832872
0.000830109
0.000827451
0.000824889
0.000822416
0.000820028
0.000817717
0.000815479
0.000813307
0.000811197
0.000809143
0.000807141
0.000805185
0.000803273
0.000801438
0.000848553
0.000845134
0.000841868
0.000838742
0.000835747
0.000832873
0.00083011
0.00082745
0.000824886
0.000822411
0.000820018
0.0008177
0.000815452
0.000813266
0.000811137
0.000809059
0.000807027
0.000805035
0.000803078
0.000801192
0.000848553
0.000845134
0.000841868
0.000838743
0.000835748
0.000832873
0.000830109
0.000827447
0.000824879
0.000822396
0.000819992
0.000817658
0.000815386
0.00081317
0.000811002
0.000808875
0.000806782
0.000804718
0.000802677
0.000800694
0.000848553
0.000845135
0.000841869
0.000838744
0.000835748
0.000832872
0.000830104
0.000827436
0.000824856
0.000822356
0.000819926
0.000817555
0.000815235
0.000812956
0.00081071
0.000808487
0.000806282
0.000804086
0.000801895
0.000799745
0.000848553
0.000845135
0.00084187
0.000838744
0.000835746
0.000832865
0.000830088
0.000827402
0.000824795
0.000822254
0.000819766
0.000817318
0.000814899
0.000812496
0.0008101
0.000807701
0.000805293
0.000802868
0.000800423
0.000797995
0.000848554
0.000845136
0.00084187
0.000838742
0.000835737
0.000832842
0.000830038
0.000827309
0.000824638
0.000822004
0.000819393
0.000816786
0.00081417
0.000811532
0.000808861
0.00080615
0.000803392
0.000800584
0.000797725
0.000794857
0.000848554
0.000845136
0.000841868
0.000838731
0.000835706
0.00083277
0.0008299
0.000827068
0.000824248
0.000821415
0.000818548
0.000815628
0.000812639
0.000809571
0.000806417
0.000803175
0.000799842
0.000796424
0.000792923
0.00078939
0.000848554
0.000845134
0.000841855
0.00083869
0.000835607
0.000832567
0.000829531
0.000826458
0.000823313
0.000820066
0.000816693
0.000813179
0.000809516
0.000805703
0.000801742
0.000797641
0.000793413
0.000789069
0.000784623
0.000780136
0.000848553
0.000845122
0.000841809
0.00083856
0.000835315
0.000832008
0.000828577
0.000824968
0.000821141
0.000817071
0.000812747
0.000808172
0.000803357
0.000798321
0.000793088
0.000787685
0.000782138
0.000776475
0.000770718
0.000764938
0.000848546
0.000845078
0.00084165
0.000838155
0.00083448
0.000830518
0.000826189
0.000821443
0.000816263
0.000810657
0.000804656
0.000798302
0.000791647
0.000784743
0.000777642
0.000770393
0.000763039
0.000755617
0.000748157
0.000740732
0.000848518
0.000844912
0.000841123
0.000836936
0.000832158
0.000826666
0.00082041
0.000813408
0.000805726
0.000797462
0.000788727
0.000779631
0.000770275
0.00076075
0.00075113
0.000741477
0.000731838
0.00072225
0.000712733
0.00070335
0.000848403
0.000844311
0.000839419
0.000833357
0.000825917
0.000817087
0.000807006
0.000795894
0.000784003
0.000771577
0.000758828
0.000745932
0.000733022
0.000720196
0.000707523
0.000695046
0.000682791
0.000670765
0.000658965
0.00064742
0.000847925
0.000842162
0.00083404
0.000823218
0.000809839
0.000794401
0.000777522
0.000759791
0.000741695
0.000723599
0.000705757
0.000688325
0.000671389
0.000654985
0.000639115
0.000623756
0.000608876
0.000594433
0.000580381
0.000566707
0.000845944
0.000834619
0.000817654
0.000795887
0.000770841
0.000744143
0.000717089
0.000690544
0.000665011
0.000640734
0.000617781
0.000596116
0.000575646
0.000556254
0.000537819
0.000520228
0.000503386
0.000487213
0.000471647
0.000456659
0.000837701
0.000809004
0.000770666
0.000727818
0.000684466
0.00064314
0.000605005
0.000570353
0.000539027
0.000510684
0.000484923
0.000461362
0.000439671
0.000419584
0.000400904
0.0003835
0.000367294
0.000352256
0.000338384
0.000325689
0.000803782
0.000728344
0.000650842
0.000580673
0.000520487
0.00047006
0.000427977
0.000392637
0.000362658
0.000336962
0.000314752
0.000295463
0.000278716
0.000264264
0.00025195
0.000241671
0.000233341
0.000226875
0.000222177
0.000219102
0.000674785
0.000521458
0.000416415
0.000343305
0.00029127
0.000253577
0.000225843
0.000205269
0.000190076
0.000179099
0.000171545
0.000166845
0.000164561
0.000164332
0.000165841
0.000168797
0.000172931
0.000177988
0.000183744
0.000189952
0.000341433
0.000221415
0.0001724
0.000148313
0.000136257
0.000131029
0.000130061
0.00013196
0.000135881
0.00014124
0.000147577
0.000154501
0.000161678
0.000168826
0.000175726
0.000182222
0.000188223
0.000193688
0.000198627
0.000203048
0.000104556
0.00011844
0.000127832
0.00013352
0.000136456
0.000137509
0.000137378
0.000136572
0.000135443
0.000134218
0.000133033
0.000131957
0.000131019
0.00013022
0.000129548
0.00012898
0.000128494
0.000128069
0.000127686
0.000127333
0.000174207
0.000232007
0.000297785
0.000366923
0.000435214
0.000500215
0.000561231
0.000618754
0.000673763
0.000727192
0.000779704
0.000831678
0.000883306
0.000934702
0.000985968
0.00103722
0.00108858
0.00114018
0.00119214
0.00124454
0.00129748
0.00135102
0.00140521
0.00146014
0.00151585
0.00157242
0.00162991
0.00168837
0.00174784
0.00180838
0.00187
0.00193274
0.00199662
0.00206165
0.00212783
0.00219516
0.00226363
0.00233321
0.00240387
0.00247558
0.00254829
0.00262193
0.00269645
0.00277177
0.00284783
0.00292454
0.00300181
0.00307957
0.00315773
0.00323618
0.00331485
0.00339365
0.00347248
0.00355125
0.00362989
0.0037083
0.00378642
0.00386416
0.00394146
0.00401824
0.00409445
0.00417002
0.00424491
0.00431906
0.00439242
0.00446497
0.00453667
0.00460748
0.00467738
0.00474635
0.00481436
0.00488141
0.00494748
0.00501257
0.00507668
0.00513979
0.00520191
0.00526305
0.0053232
0.00538239
0.0054406
0.00549786
0.00555418
0.00560956
0.00566402
0.00571757
0.00577022
0.00582199
0.0058729
0.00592294
0.00597215
0.00602052
0.00606808
0.00611483
0.00616078
0.00620595
0.00625034
0.00629397
0.00633684
0.00637897
0.00642035
0.00646099
0.00650091
0.00654011
0.00657859
0.00661635
0.00665341
0.00668976
0.00672541
0.00676036
0.00679461
0.00682817
0.00686104
0.00689321
0.0069247
0.0069555
0.00698562
0.00701505
0.00704379
0.00707186
0.00709924
0.00712595
0.00715198
0.00717734
0.00720203
0.00722604
0.0072494
0.00727209
0.00729413
0.00731551
0.00733625
0.00735635
0.00737582
0.00739467
0.00741291
0.00743054
0.00744757
0.00746403
0.00747993
0.00749528
0.00751011
0.00752443
0.00753826
0.00755164
0.00756459
0.00757714
0.00758934
0.00760122
0.00761282
0.0076242
0.0076354
0.0076465
0.00765755
0.00766863
0.00767983
0.00769122
0.00770292
0.00771503
0.00772767
0.00774097
0.00775509
0.00777018
0.00778642
0.00780402
0.00782319
0.00784416
0.00786719
0.00789254
0.00792039
0.00795108
0.0079851
0.00802291
0.00806502
0.00811204
0.00816465
0.00822363
0.00828992
0.00836463
0.00844908
0.00854489
0.00865409
0.00877924
0.00892367
0.00909174
0.00928925
0.00952375
0.00980479
0.0101434
0.0105504
0.0110322
0.0115835
0.012179
0.012764
0.0132477
0.0134966
0.0133225
0.0124556
0.0105008
0.00708672
0.00132906
0.0002039
0.000211695
0.000225881
0.000248301
0.000279616
0.00031913
0.000365282
0.000416114
0.000469635
0.000524156
0.000578503
0.000632048
0.000684626
0.000736382
0.000787588
0.000838518
0.000889371
0.000940259
0.000991239
0.00104234
0.00109361
0.00114508
0.00119685
0.00124899
0.0013016
0.00135473
0.00140848
0.00146289
0.00151801
0.00157389
0.00163058
0.00168811
0.00174653
0.00180586
0.00186614
0.00192738
0.0019896
0.00205278
0.00211694
0.00218204
0.00224808
0.00231502
0.00238282
0.00245144
0.00252083
0.00259093
0.00266169
0.00273303
0.00280489
0.0028772
0.00294988
0.00302284
0.00309603
0.00316936
0.00324276
0.00331614
0.00338945
0.00346261
0.00353555
0.0036082
0.00368051
0.00375242
0.00382388
0.00389483
0.00396524
0.00403505
0.00410423
0.00417275
0.00424058
0.00430769
0.00437406
0.00443967
0.0045045
0.00456855
0.00463181
0.00469425
0.0047559
0.00481673
0.00487675
0.00493597
0.00499438
0.00505199
0.00510881
0.00516484
0.00522009
0.00527456
0.00532827
0.00538123
0.00543343
0.0054849
0.00553564
0.00558565
0.00563494
0.00568353
0.00573142
0.00577861
0.00582511
0.00587093
0.00591606
0.00596052
0.0060043
0.00604742
0.00608987
0.00613165
0.00617276
0.00621321
0.006253
0.00629212
0.00633058
0.00636838
0.00640551
0.00644197
0.00647777
0.00651289
0.00654735
0.00658114
0.00661425
0.00664669
0.00667845
0.00670954
0.00673995
0.00676969
0.00679874
0.00682712
0.00685483
0.00688185
0.00690821
0.00693389
0.0069589
0.00698325
0.00700694
0.00702997
0.00705235
0.00707409
0.0070952
0.00711569
0.00713556
0.00715483
0.00717351
0.00719163
0.0072092
0.00722624
0.00724277
0.00725882
0.00727442
0.00728961
0.00730441
0.00731887
0.00733304
0.00734697
0.00736071
0.00737432
0.00738787
0.00740144
0.00741512
0.00742898
0.00744314
0.00745771
0.00747282
0.00748859
0.00750518
0.00752276
0.0075415
0.00756162
0.00758333
0.00760688
0.00763252
0.0076605
0.00769098
0.00772441
0.00776122
0.00780189
0.00784695
0.00789699
0.00795271
0.0080149
0.0080845
0.00816261
0.00825057
0.00834999
0.00846288
0.0085918
0.00874006
0.00891201
0.00911345
0.00935201
0.00963742
0.00998121
0.010395
0.0108863
0.0114516
0.0120669
0.0126782
0.0131949
0.0134835
0.0133571
0.0125502
0.0107175
0.00751838
0.00212757
0.00018955
0.000191154
0.00019342
0.000197044
0.000202876
0.000211815
0.000224935
0.000243246
0.00026745
0.000297823
0.000334107
0.000375612
0.000421363
0.000470223
0.000521061
0.000572905
0.000625026
0.000676986
0.000728604
0.000779893
0.000830975
0.000882002
0.000933112
0.000984401
0.00103593
0.00108772
0.0011398
0.00119219
0.00124494
0.0012981
0.00135172
0.00140587
0.00146059
0.00151594
0.00157197
0.00162869
0.00168615
0.00174436
0.00180333
0.00186307
0.00192359
0.00198489
0.00204696
0.00210977
0.00217331
0.00223754
0.00230243
0.00236794
0.00243401
0.0025006
0.00256765
0.0026351
0.0027029
0.00277099
0.0028393
0.00290778
0.00297635
0.00304496
0.00311355
0.00318206
0.00325044
0.00331863
0.00338659
0.00345425
0.00352159
0.00358855
0.00365511
0.00372122
0.00378685
0.00385197
0.00391657
0.00398062
0.00404409
0.00410697
0.00416926
0.00423093
0.00429198
0.00435241
0.0044122
0.00447135
0.00452987
0.00458775
0.00464499
0.00470159
0.00475757
0.00481291
0.00486762
0.00492171
0.00497518
0.00502803
0.00508027
0.00513189
0.00518291
0.00523333
0.00528314
0.00533234
0.00538095
0.00542896
0.00547637
0.00552318
0.00556939
0.00561499
0.00565999
0.00570439
0.00574817
0.00579135
0.0058339
0.00587584
0.00591716
0.00595785
0.00599791
0.00603733
0.00607611
0.00611425
0.00615174
0.00618857
0.00622475
0.00626027
0.00629512
0.0063293
0.00636281
0.00639564
0.0064278
0.00645928
0.00649007
0.00652019
0.00654962
0.00657837
0.00660644
0.00663383
0.00666054
0.00668658
0.00671196
0.00673667
0.00676073
0.00678415
0.00680693
0.00682909
0.00685064
0.00687159
0.00689198
0.00691181
0.00693111
0.0069499
0.00696822
0.0069861
0.00700358
0.0070207
0.00703749
0.00705403
0.00707035
0.00708653
0.00710264
0.00711874
0.00713494
0.00715132
0.00716798
0.00718505
0.00720265
0.00722091
0.00723999
0.00726007
0.00728133
0.00730397
0.00732823
0.00735434
0.00738257
0.00741315
0.00744624
0.00748235
0.0075219
0.00756537
0.0076133
0.00766627
0.007725
0.00779029
0.00786305
0.00794441
0.00803569
0.00813849
0.00825481
0.00838718
0.00853889
0.00871423
0.00891897
0.00916075
0.0094494
0.0097968
0.0102153
0.0107136
0.0112897
0.0119213
0.0125557
0.013103
0.0134308
0.0133558
0.012623
0.010933
0.00798353
0.00315299
0.000216115
0.000215155
0.000214319
0.000213611
0.000213035
0.000212642
0.000212589
0.000213189
0.000214928
0.00021846
0.000224503
0.000233886
0.000247439
0.000265826
0.000289461
0.000318415
0.000352472
0.00039115
0.000433758
0.000479478
0.000527471
0.000576964
0.000627326
0.0006781
0.000729009
0.000779932
0.00083086
0.000881849
0.000932983
0.000984339
0.00103598
0.00108795
0.00114028
0.00119299
0.00124609
0.00129962
0.00135361
0.00140808
0.00146308
0.00151863
0.00157476
0.00163149
0.00168883
0.00174677
0.00180533
0.0018645
0.00192425
0.00198459
0.00204547
0.00210687
0.00216877
0.00223112
0.00229389
0.00235704
0.00242052
0.00248428
0.00254827
0.00261246
0.00267679
0.00274121
0.00280567
0.00287014
0.00293456
0.00299889
0.00306309
0.00312713
0.00319096
0.00325456
0.00331788
0.00338091
0.00344361
0.00350597
0.00356795
0.00362955
0.00369074
0.00375151
0.00381184
0.00387174
0.00393118
0.00399016
0.00404867
0.00410671
0.00416428
0.00422137
0.00427797
0.00433409
0.00438973
0.00444488
0.00449954
0.00455371
0.0046074
0.00466058
0.00471328
0.00476547
0.00481717
0.00486837
0.00491906
0.00496923
0.0050189
0.00506805
0.00511667
0.00516476
0.00521232
0.00525933
0.0053058
0.00535171
0.00539705
0.00544183
0.00548603
0.00552964
0.00557265
0.00561507
0.00565688
0.00569806
0.00573863
0.00577856
0.00581785
0.00585649
0.00589448
0.00593181
0.00596848
0.00600447
0.00603979
0.00607442
0.00610837
0.00614164
0.00617421
0.0062061
0.00623729
0.00626779
0.0062976
0.00632672
0.00635515
0.00638291
0.00640999
0.00643641
0.00646217
0.00648729
0.00651177
0.00653564
0.00655891
0.0065816
0.00660374
0.00662534
0.00664645
0.00666709
0.0066873
0.00670712
0.00672661
0.0067458
0.00676477
0.00678357
0.00680227
0.00682096
0.00683972
0.00685865
0.00687785
0.00689745
0.00691756
0.00693834
0.00695994
0.00698253
0.0070063
0.00703147
0.00705826
0.00708693
0.00711772
0.00715089
0.00718655
0.00722529
0.00726752
0.00731373
0.00736443
0.00742026
0.00748189
0.00755013
0.00762592
0.00771036
0.00780475
0.0079107
0.00803019
0.00816569
0.00832045
0.0084987
0.00870612
0.00895028
0.00924106
0.00959055
0.0100116
0.0105142
0.011098
0.0117423
0.0123964
0.0129719
0.0133385
0.0133186
0.0126731
0.0111406
0.00848203
0.00430087
0.000319076
0.00031517
0.000311493
0.000308014
0.000304662
0.000301348
0.000297986
0.000294493
0.000290809
0.000286915
0.000282832
0.000278667
0.000274664
0.00027122
0.000268888
0.000268195
0.00026991
0.000274836
0.000283676
0.000296968
0.000315047
0.000338029
0.00036581
0.000398084
0.000434385
0.00047413
0.000516684
0.00056142
0.000607766
0.000655249
0.000703509
0.000752304
0.000801491
0.000851007
0.000900842
0.000951014
0.00100155
0.00105249
0.00110385
0.00115564
0.00120789
0.0012606
0.00131379
0.00136745
0.00142159
0.00147624
0.00153138
0.00158703
0.00164318
0.00169982
0.00175694
0.00181453
0.00187256
0.00193102
0.00198987
0.00204909
0.00210864
0.0021685
0.00222862
0.00228898
0.00234953
0.00241024
0.00247107
0.002532
0.00259298
0.00265398
0.00271496
0.00277591
0.00283678
0.00289755
0.0029582
0.0030187
0.00307902
0.00313916
0.00319908
0.00325877
0.00331822
0.00337741
0.00343633
0.00349497
0.00355332
0.00361137
0.0036691
0.00372652
0.00378362
0.00384038
0.00389681
0.00395289
0.00400862
0.004064
0.00411901
0.00417366
0.00422793
0.00428182
0.00433531
0.00438841
0.00444111
0.00449339
0.00454525
0.00459668
0.00464766
0.00469819
0.00474826
0.00479786
0.00484697
0.00489559
0.00494371
0.0049913
0.00503837
0.00508489
0.00513086
0.00517627
0.00522111
0.00526535
0.005309
0.00535205
0.00539447
0.00543626
0.00547742
0.00551793
0.00555778
0.00559696
0.00563548
0.00567331
0.00571046
0.00574692
0.00578268
0.00581775
0.00585211
0.00588577
0.00591873
0.00595099
0.00598254
0.0060134
0.00604356
0.00607304
0.00610183
0.00612997
0.00615744
0.00618428
0.00621049
0.0062361
0.00626112
0.00628559
0.00630954
0.00633299
0.00635599
0.00637857
0.00640079
0.0064227
0.00644435
0.00646581
0.00648716
0.00650847
0.00652983
0.00655134
0.00657311
0.00659525
0.00661791
0.00664122
0.00666534
0.00669045
0.00671674
0.00674442
0.00677374
0.00680494
0.00683827
0.00687398
0.00691218
0.00695349
0.00699834
0.00704719
0.0071006
0.00715917
0.00722358
0.00729466
0.00737331
0.00746065
0.00755796
0.00766683
0.0077892
0.00792751
0.00808493
0.0082656
0.00847508
0.00872084
0.00901266
0.00936274
0.00978443
0.0102886
0.0108767
0.0115301
0.0122004
0.0128014
0.0132062
0.0132451
0.0126974
0.0113344
0.00898803
0.00546984
0.000449733
0.000445011
0.000440455
0.000436066
0.00043182
0.000427676
0.000423589
0.000419507
0.000415372
0.000411123
0.000406688
0.000401988
0.00039695
0.000391505
0.000385615
0.000379246
0.000372429
0.000365177
0.000357698
0.000350372
0.000343714
0.000338357
0.00033499
0.000334304
0.00033692
0.000343344
0.000353929
0.000368861
0.000388164
0.000411707
0.000439233
0.000470383
0.000504732
0.000541825
0.000581211
0.00062247
0.000665238
0.000709217
0.000754177
0.000799953
0.000846434
0.000893552
0.000941266
0.000989558
0.00103841
0.00108783
0.0011378
0.00118831
0.00123936
0.00129094
0.00134304
0.00139564
0.00144873
0.0015023
0.00155634
0.00161082
0.00166573
0.00172105
0.00177676
0.00183282
0.00188922
0.00194593
0.00200293
0.00206018
0.00211765
0.00217533
0.00223318
0.00229117
0.00234928
0.00240749
0.00246577
0.0025241
0.00258245
0.00264081
0.00269915
0.00275746
0.00281572
0.00287391
0.00293201
0.00299002
0.00304792
0.00310569
0.00316333
0.00322082
0.00327815
0.0033353
0.00339228
0.00344906
0.00350564
0.003562
0.00361814
0.00367405
0.0037297
0.0037851
0.00384022
0.00389506
0.0039496
0.00400383
0.00405774
0.00411131
0.00416453
0.00421739
0.00426986
0.00432194
0.0043736
0.00442484
0.00447564
0.00452597
0.00457584
0.00462521
0.00467409
0.00472244
0.00477026
0.00481752
0.00486422
0.00491035
0.00495588
0.00500081
0.00504511
0.00508879
0.00513182
0.0051742
0.00521591
0.00525695
0.00529731
0.00533698
0.00537595
0.00541422
0.00545178
0.00548862
0.00552476
0.00556017
0.00559488
0.00562886
0.00566214
0.00569471
0.00572659
0.00575777
0.00578828
0.00581813
0.00584732
0.00587589
0.00590385
0.00593122
0.00595805
0.00598435
0.00601018
0.00603556
0.00606055
0.00608521
0.00610958
0.00613374
0.00615776
0.00618171
0.0062057
0.00622981
0.00625417
0.00627888
0.00630409
0.00632993
0.00635658
0.0063842
0.006413
0.00644319
0.00647501
0.00650871
0.00654455
0.00658274
0.00662342
0.00666725
0.00671464
0.00676607
0.00682208
0.00688328
0.00695036
0.00702412
0.00710548
0.00719553
0.00729555
0.00740709
0.00753206
0.00767285
0.00783254
0.00801516
0.00822612
0.00847269
0.00876453
0.00911377
0.00953409
0.0100373
0.0106263
0.0112852
0.0119679
0.0125917
0.0130341
0.0131341
0.0126915
0.0115068
0.00947358
0.00656919
0.000560954
0.000556679
0.000552504
0.000548433
0.00054446
0.000540572
0.000536753
0.000532986
0.000529253
0.000525535
0.000521808
0.000518044
0.000514212
0.000510274
0.000506187
0.0005019
0.000497356
0.000492471
0.000487114
0.000481205
0.000474676
0.000467493
0.00045967
0.000451292
0.000442533
0.000433668
0.000425073
0.000417215
0.000410619
0.000405832
0.000403382
0.000403735
0.000407269
0.000414252
0.000424839
0.00043907
0.000456887
0.000478145
0.000502632
0.000530091
0.000560236
0.000592775
0.000627421
0.000663911
0.000702009
0.000741514
0.00078226
0.000824111
0.000866962
0.000910732
0.000955357
0.00100079
0.00104698
0.0010939
0.00114152
0.00118981
0.00123874
0.00128828
0.00133841
0.0013891
0.00144033
0.00149206
0.00154428
0.00159696
0.00165007
0.00170358
0.00175749
0.00181175
0.00186634
0.00192125
0.00197644
0.00203189
0.00208759
0.00214351
0.00219962
0.00225591
0.00231236
0.00236895
0.00242566
0.00248247
0.00253937
0.00259633
0.00265335
0.00271041
0.00276748
0.00282456
0.00288163
0.00293868
0.00299568
0.00305263
0.0031095
0.00316628
0.00322296
0.00327951
0.00333593
0.00339219
0.00344827
0.00350416
0.00355984
0.00361529
0.00367049
0.00372543
0.00378007
0.00383441
0.00388842
0.00394209
0.00399539
0.0040483
0.0041008
0.00415287
0.0042045
0.00425566
0.00430634
0.00435651
0.00440616
0.00445527
0.00450382
0.0045518
0.00459918
0.00464596
0.00469211
0.00473763
0.0047825
0.0048267
0.00487023
0.00491308
0.00495523
0.00499668
0.00503742
0.00507744
0.00511674
0.00515531
0.00519316
0.00523029
0.00526668
0.00530236
0.00533732
0.00537157
0.00540513
0.005438
0.00547019
0.00550174
0.00553265
0.00556295
0.00559268
0.00562186
0.00565053
0.00567874
0.00570653
0.00573395
0.00576106
0.00578793
0.00581464
0.00584125
0.00586788
0.00589461
0.00592155
0.00594883
0.00597659
0.00600497
0.00603413
0.00606425
0.00609554
0.00612821
0.0061625
0.00619867
0.00623695
0.00627755
0.00632067
0.00636694
0.0064168
0.00647072
0.00652922
0.00659293
0.00666254
0.00673883
0.00682272
0.00691529
0.00701779
0.00713176
0.00725905
0.00740198
0.00756355
0.00774766
0.00795952
0.00820618
0.00849705
0.00884411
0.0092612
0.00976085
0.0103477
0.0110082
0.0116997
0.0123432
0.0128219
0.0129844
0.0126507
0.0116481
0.00991663
0.00754085
0.0006429
0.000639338
0.000635836
0.000632395
0.000629016
0.000625693
0.00062242
0.000619192
0.000616004
0.000612851
0.000609728
0.000606629
0.000603548
0.000600478
0.000597409
0.00059433
0.000591232
0.000588079
0.000584825
0.000581432
0.000577855
0.00057404
0.000569929
0.000565461
0.000560572
0.000555206
0.000549315
0.000542873
0.000535886
0.000528398
0.000520506
0.000512364
0.00050419
0.000496263
0.000488911
0.000482498
0.000477403
0.000473996
0.000472616
0.000473556
0.000477049
0.000483262
0.000492292
0.000504176
0.000518892
0.00053637
0.000556503
0.000579156
0.000604177
0.000631404
0.000660673
0.000691826
0.000724712
0.000759195
0.000795149
0.000832465
0.000871045
0.000910804
0.000951669
0.000993575
0.00103646
0.00108028
0.00112498
0.00117052
0.00121686
0.00126396
0.00131178
0.00136029
0.00140945
0.00145923
0.0015096
0.00156054
0.001612
0.00166397
0.00171641
0.00176931
0.00182263
0.00187634
0.00193044
0.00198488
0.00203966
0.00209474
0.00215011
0.00220574
0.00226161
0.0023177
0.00237398
0.00243044
0.00248706
0.00254381
0.00260067
0.00265762
0.00271464
0.0027717
0.00282878
0.00288586
0.00294292
0.00299992
0.00305685
0.00311368
0.0031704
0.00322696
0.00328335
0.00333954
0.00339551
0.00345124
0.00350669
0.00356184
0.00361666
0.00367114
0.00372525
0.00377896
0.00383225
0.0038851
0.00393748
0.00398936
0.00404074
0.00409159
0.00414188
0.0041916
0.00424074
0.00428926
0.00433715
0.00438441
0.004431
0.00447693
0.00452217
0.00456672
0.00461056
0.00465369
0.0046961
0.00473778
0.00477873
0.00481894
0.00485842
0.00489717
0.00493519
0.00497248
0.00500906
0.00504494
0.00508012
0.00511463
0.00514849
0.00518171
0.00521434
0.00524639
0.0052779
0.00530893
0.00533951
0.00536969
0.00539954
0.00542913
0.00545852
0.00548779
0.00551705
0.00554638
0.00557591
0.00560575
0.00563603
0.00566692
0.00569857
0.00573117
0.00576492
0.00580003
0.00583674
0.00587531
0.00591598
0.00595886
0.00600438
0.00605303
0.00610526
0.00616155
0.00622243
0.00628852
0.0063605
0.00643916
0.0065254
0.00662028
0.00672503
0.00684116
0.00697047
0.00711522
0.00727829
0.00746342
0.00767564
0.0079217
0.00821068
0.00855433
0.00896644
0.00946014
0.0100416
0.0107
0.0113965
0.0120566
0.0125697
0.0127946
0.0125703
0.0117486
0.0103003
0.0083624
0.000699864
0.000696998
0.000694164
0.000691364
0.0006886
0.000685868
0.000683168
0.000680497
0.000677853
0.000675237
0.000672647
0.000670083
0.000667545
0.000665033
0.000662548
0.00066009
0.000657666
0.000655253
0.000652847
0.000650439
0.000648021
0.000645581
0.000643102
0.000640566
0.000637948
0.000635223
0.000632358
0.000629318
0.000626066
0.000622562
0.000618767
0.000614645
0.000610166
0.000605311
0.000600076
0.000594476
0.000588552
0.000582373
0.00057604
0.000569687
0.000563483
0.000557622
0.000552324
0.000547821
0.000544352
0.00054215
0.000541435
0.000542401
0.000545219
0.000550024
0.000556919
0.000565975
0.000577228
0.000590691
0.000606348
0.000624166
0.000644092
0.000666063
0.000690006
0.000715843
0.000743492
0.00077287
0.000803897
0.000836492
0.00087058
0.000906087
0.000942946
0.000981092
0.00102046
0.001061
0.00110266
0.00114538
0.00118911
0.00123381
0.00127944
0.00132595
0.00137329
0.00142145
0.00147036
0.00152
0.00157034
0.00162132
0.00167294
0.00172514
0.00177789
0.00183117
0.00188494
0.00193917
0.00199384
0.00204889
0.00210432
0.00216008
0.00221614
0.00227248
0.00232906
0.00238584
0.00244281
0.00249992
0.00255714
0.00261444
0.0026718
0.00272917
0.00278653
0.00284383
0.00290106
0.00295818
0.00301515
0.00307194
0.00312853
0.00318488
0.00324096
0.00329674
0.00335219
0.00340729
0.00346199
0.00351628
0.00357013
0.00362352
0.00367641
0.00372878
0.00378061
0.00383187
0.00388255
0.00393263
0.00398208
0.00403089
0.00407904
0.00412651
0.0041733
0.00421939
0.00426476
0.00430942
0.00435335
0.00439655
0.00443901
0.00448073
0.00452172
0.00456198
0.00460151
0.00464033
0.00467844
0.00471586
0.00475261
0.0047887
0.00482418
0.00485906
0.00489339
0.00492719
0.00496053
0.00499345
0.00502601
0.00505827
0.00509031
0.00512221
0.00515407
0.00518598
0.00521805
0.00525041
0.00528319
0.00531655
0.00535064
0.00538567
0.00542181
0.0054593
0.00549837
0.00553928
0.00558225
0.00562734
0.00567514
0.00572606
0.00578055
0.00583909
0.00590222
0.00597053
0.00604472
0.00612557