/*--------------------------------*- C++ -*----------------------------------*\
| =========                 |                                                 |
| \\      /  F ield         | OpenFOAM: The Open Source CFD Toolbox           |
|  \\    /   O peration     | Version:  2.4.0                                 |
|   \\  /    A nd           | Web:      www.OpenFOAM.org                      |
|    \\/     M anipulation  |                                                 |
\*---------------------------------------------------------------------------*/
FoamFile
{
    version     2.0;
    format      ascii;
    class       volVectorField;
    location    "0.055";
    object      U_0;
}
// * * * * * * * * * * * * * * * * * * * * * * * * * * * * * * * * * * * * * //

dimensions      [0 1 -1 0 0 0 0];

internalField   nonuniform List<vector> 
4400
(
(5.40333 0.316845 0)
(3.31922 0.0607056 0)
(2.57995 0.00150641 0)
(2.24281 -0.00233639 0)
(2.07755 -0.00115053 0)
(2.0133 -0.00130541 0)
(1.96201 -0.000187184 0)
(1.94744 -0.000824654 0)
(2.01578 -0.00226049 0)
(1.84602 -0.0471613 0)
(8.67928 0.857135 0)
(7.55502 0.344421 0)
(6.61257 0.116471 0)
(5.93714 0.0537291 0)
(5.50464 0.0277194 0)
(5.31038 0.0120623 0)
(5.14962 0.0100696 0)
(5.0922 -0.00329654 0)
(5.18876 -0.00141513 0)
(4.87962 -0.0466806 0)
(9.87697 0.936816 0)
(10.0192 0.477239 0)
(9.46244 0.213615 0)
(8.79458 0.127334 0)
(8.24026 0.07701 0)
(7.96739 0.0383661 0)
(7.72143 0.0293962 0)
(7.64484 -0.00192922 0)
(7.72416 0.00175517 0)
(7.25777 -0.0521953 0)
(10.0914 0.805698 0)
(11.1596 0.498019 0)
(11.2312 0.266911 0)
(10.8837 0.192987 0)
(10.4066 0.133808 0)
(10.1496 0.0741568 0)
(9.86274 0.0544198 0)
(9.82584 0.00162555 0)
(9.85111 0.016717 0)
(9.27728 -0.0723969 0)
(9.99166 0.645094 0)
(11.3861 0.435836 0)
(11.9337 0.248553 0)
(12.0354 0.212244 0)
(11.8333 0.170328 0)
(11.7233 0.106316 0)
(11.4811 0.0767911 0)
(11.5613 0.0057812 0)
(11.5138 0.0408985 0)
(10.9902 -0.106478 0)
(9.93282 0.514301 0)
(11.2978 0.356857 0)
(11.9889 0.190163 0)
(12.3385 0.17812 0)
(12.4366 0.164709 0)
(12.5103 0.113621 0)
(12.4344 0.081614 0)
(12.7093 0.00216965 0)
(12.5971 0.0649052 0)
(12.269 -0.127484 0)
(9.95388 0.400041 0)
(11.1887 0.280817 0)
(11.9133 0.139796 0)
(12.2849 0.128558 0)
(12.571 0.134222 0)
(12.6199 0.0960015 0)
(12.765 0.0527998 0)
(13.1661 -0.0102516 0)
(13.0011 0.0592912 0)
(13.0489 -0.121753 0)
(9.9907 0.283583 0)
(11.138 0.210318 0)
(11.8525 0.0902739 0)
(12.24 0.076375 0)
(12.5317 0.10227 0)
(12.5284 0.0827137 0)
(12.8909 0.00544531 0)
(13.0986 -0.0170986 0)
(12.9759 0.0323721 0)
(13.4666 -0.189429 0)
(9.9971 0.176137 0)
(11.1297 0.120921 0)
(11.8518 0.0569043 0)
(12.2236 0.0324076 0)
(12.3736 0.0781608 0)
(12.5831 0.0355603 0)
(12.9473 -0.0209126 0)
(12.8519 -0.0200748 0)
(13.0826 -0.0149421 0)
(13.6279 -0.297971 0)
(9.99518 0.0610066 0)
(11.1169 0.0394224 0)
(11.8719 0.0149296 0)
(12.1792 0.000234124 0)
(12.3329 0.0357888 0)
(12.6641 0.000808801 0)
(12.8184 -0.0318581 0)
(12.8302 -0.0394794 0)
(13.2534 -0.0835465 0)
(13.3413 -0.305702 0)
(9.98618 -0.0460825 0)
(11.1182 -0.0547818 0)
(11.8934 -0.0132279 0)
(12.1532 -0.031601 0)
(12.3659 -0.00994329 0)
(12.6429 -0.0341753 0)
(12.7709 -0.0509065 0)
(12.9426 -0.0750229 0)
(13.1697 -0.111148 0)
(13.1086 -0.27585 0)
(9.98722 -0.159259 0)
(11.1488 -0.140973 0)
(11.8951 -0.0501916 0)
(12.166 -0.0683337 0)
(12.41 -0.0511967 0)
(12.626 -0.0593057 0)
(12.8103 -0.0751561 0)
(12.9498 -0.0977552 0)
(13.0519 -0.126284 0)
(13.2309 -0.333633 0)
(10.0273 -0.271414 0)
(11.1614 -0.229096 0)
(11.9261 -0.0836707 0)
(12.1887 -0.10288 0)
(12.4871 -0.0959193 0)
(12.6159 -0.0883733 0)
(12.8488 -0.0988255 0)
(12.888 -0.111288 0)
(13.0654 -0.160152 0)
(13.2487 -0.364918 0)
(10.0696 -0.391461 0)
(11.1684 -0.301875 0)
(11.9977 -0.128259 0)
(12.2204 -0.145879 0)
(12.5579 -0.135854 0)
(12.5814 -0.108649 0)
(12.8492 -0.116729 0)
(12.7842 -0.128841 0)
(12.9837 -0.185365 0)
(12.9345 -0.364093 0)
(10.0733 -0.514321 0)
(11.2244 -0.369084 0)
(12.0644 -0.181804 0)
(12.2366 -0.187557 0)
(12.4827 -0.16942 0)
(12.3795 -0.127574 0)
(12.5465 -0.128625 0)
(12.3208 -0.131647 0)
(12.3995 -0.189571 0)
(12.0751 -0.347905 0)
(10.0959 -0.647178 0)
(11.2973 -0.441415 0)
(11.9932 -0.241521 0)
(11.9426 -0.219703 0)
(11.8909 -0.175991 0)
(11.5822 -0.12084 0)
(11.5571 -0.113632 0)
(11.1965 -0.112079 0)
(11.1585 -0.168084 0)
(10.619 -0.279098 0)
(10.1512 -0.807689 0)
(11.0881 -0.500801 0)
(11.2804 -0.263022 0)
(10.8105 -0.199172 0)
(10.4532 -0.138215 0)
(10.0217 -0.0871257 0)
(9.88949 -0.0806117 0)
(9.49388 -0.0809562 0)
(9.39418 -0.128892 0)
(8.75298 -0.199357 0)
(9.90664 -0.937281 0)
(9.97056 -0.478649 0)
(9.49913 -0.211599 0)
(8.74167 -0.13128 0)
(8.26823 -0.0798582 0)
(7.86065 -0.0478655 0)
(7.70634 -0.0459408 0)
(7.35607 -0.0494067 0)
(7.22989 -0.0830442 0)
(6.58428 -0.120559 0)
(8.69301 -0.857384 0)
(7.5285 -0.345264 0)
(6.63247 -0.115672 0)
(5.90431 -0.0558231 0)
(5.51452 -0.0290191 0)
(5.23236 -0.0171071 0)
(5.11069 -0.0185199 0)
(4.85962 -0.0224386 0)
(4.73161 -0.0388383 0)
(4.20386 -0.0567682 0)
(5.40574 -0.316715 0)
(3.31202 -0.0607785 0)
(2.58377 -0.00135923 0)
(2.23099 0.0019867 0)
(2.07611 0.00118446 0)
(1.97655 0.000429465 0)
(1.92598 -0.000820831 0)
(1.82169 -0.00185256 0)
(1.73853 -0.0039973 0)
(1.48868 0.00201377 0)
(2.53736 0.171962 0)
(3.23684 0.254484 0)
(4.32067 0.088637 0)
(5.55751 -0.656229 0)
(6.16311 -1.63866 0)
(6.21607 -2.47039 0)
(6.09518 -2.77276 0)
(5.00386 -2.49184 0)
(4.72144 -1.99801 0)
(3.38865 -1.92576 0)
(3.30665 0.306414 0)
(3.20623 4.00989 0)
(5.73966 4.24324 0)
(7.60192 3.03224 0)
(7.81236 2.60457 0)
(9.35409 1.31196 0)
(10.3638 -0.615592 0)
(10.6441 -2.424 0)
(10.8593 -3.86297 0)
(11.1321 -4.5706 0)
(12.1554 -5.35939 0)
(13.124 -6.35234 0)
(12.6354 -6.63862 0)
(12.1333 -6.67674 0)
(12.0501 -7.07819 0)
(11.8226 -7.14295 0)
(10.7913 -6.76156 0)
(9.75259 -6.29771 0)
(9.25837 -5.84461 0)
(9.23934 -5.49508 0)
(9.7388 -4.58414 0)
(10.0349 -3.2957 0)
(10.1573 -2.09435 0)
(10.7719 -0.428454 0)
(10.6531 1.0814 0)
(10.1 2.0288 0)
(10.4206 3.17024 0)
(10.8978 4.46953 0)
(10.6821 5.15416 0)
(9.99704 5.16683 0)
(9.50316 4.67408 0)
(9.10231 4.07552 0)
(8.86059 3.16118 0)
(8.33607 2.47305 0)
(8.05077 1.46512 0)
(7.30045 1.26886 0)
(7.3051 0.401709 0)
(6.45273 0.929989 0)
(6.92691 -0.114198 0)
(5.85452 0.97899 0)
(6.76268 -0.439052 0)
(5.41846 0.979934 0)
(6.69972 -0.580855 0)
(5.14413 0.804304 0)
(6.65758 -0.560478 0)
(5.10841 0.616228 0)
(6.43042 -0.539631 0)
(5.37885 0.593381 0)
(5.95629 -0.578858 0)
(5.70566 0.667098 0)
(5.53189 -0.631817 0)
(5.81811 0.738229 0)
(5.33158 -0.681048 0)
(5.79743 0.735387 0)
(5.32329 -0.64291 0)
(5.71714 0.639954 0)
(5.47859 -0.522318 0)
(5.62866 0.613892 0)
(5.57341 -0.52828 0)
(5.6637 0.709451 0)
(5.6007 -0.580702 0)
(5.70086 0.694681 0)
(5.71691 -0.426349 0)
(5.70116 0.653016 0)
(5.84702 -0.413558 0)
(5.74652 0.788445 0)
(5.91845 -0.370156 0)
(5.88383 0.683752 0)
(6.05219 -0.134723 0)
(5.92314 0.779165 0)
(6.15687 -0.0907425 0)
(6.11883 0.761743 0)
(6.21052 0.200337 0)
(6.08797 0.867248 0)
(6.27144 0.335928 0)
(6.10977 0.882199 0)
(6.15546 0.671756 0)
(5.82941 1.06867 0)
(5.86779 0.842143 0)
(5.58794 1.16265 0)
(5.53196 1.08938 0)
(5.42716 1.52642 0)
(5.40187 1.3788 0)
(5.72938 2.07525 0)
(6.1011 2.03629 0)
(5.4117 2.91422 0)
(6.34397 2.80128 0)
(5.44941 4.7382 0)
(6.20319 5.1831 0)
(3.51228 9.43868 0)
(5.41539 0.0641197 0)
(5.84537 -0.0531217 0)
(6.58164 -0.309025 0)
(7.67816 -0.88171 0)
(8.04479 -1.71409 0)
(7.99781 -2.47311 0)
(8.06381 -2.54305 0)
(6.88144 -2.23421 0)
(6.42715 -1.71249 0)
(5.79227 -1.35821 0)
(3.93494 0.213666 0)
(3.98821 3.41737 0)
(6.61529 3.49284 0)
(8.63542 2.46412 0)
(9.15824 2.15866 0)
(10.6209 0.987977 0)
(11.4577 -0.81365 0)
(11.691 -2.57651 0)
(12.0859 -3.98114 0)
(12.5301 -4.83022 0)
(13.1987 -5.69279 0)
(13.4298 -6.34967 0)
(12.4825 -6.38077 0)
(12.042 -6.44175 0)
(11.9941 -6.8912 0)
(11.3618 -6.83817 0)
(10.1108 -6.27342 0)
(9.08087 -5.92781 0)
(8.63223 -5.79881 0)
(8.65176 -5.60316 0)
(9.02611 -4.76247 0)
(9.39676 -3.4161 0)
(9.47997 -2.18991 0)
(9.97429 -0.506774 0)
(9.93545 1.16275 0)
(9.3383 2.12433 0)
(9.50256 3.06207 0)
(10.0164 4.34526 0)
(9.94797 5.21938 0)
(9.41479 5.34965 0)
(9.00952 4.83311 0)
(8.62638 4.20575 0)
(8.4265 3.29284 0)
(7.91822 2.65451 0)
(7.77236 1.65244 0)
(7.03551 1.46914 0)
(7.24853 0.538889 0)
(6.24409 1.07789 0)
(7.02108 -0.0502858 0)
(5.60204 1.10511 0)
(6.94872 -0.434999 0)
(5.17267 1.11954 0)
(6.79194 -0.647349 0)
(5.09386 0.971016 0)
(6.38409 -0.709113 0)
(5.37101 0.817918 0)
(5.76545 -0.738133 0)
(5.72401 0.797269 0)
(5.26402 -0.751288 0)
(5.83663 0.829398 0)
(5.1241 -0.755986 0)
(5.7505 0.862225 0)
(5.26072 -0.787612 0)
(5.63038 0.837121 0)
(5.53187 -0.733103 0)
(5.49425 0.743366 0)
(5.80622 -0.628506 0)
(5.3741 0.765353 0)
(5.89776 -0.682176 0)
(5.47663 0.860729 0)
(5.84568 -0.73126 0)
(5.5457 0.83499 0)
(5.97452 -0.600598 0)
(5.46902 0.835027 0)
(6.0215 -0.602979 0)
(5.58715 0.944399 0)
(6.02379 -0.581552 0)
(5.62151 0.880999 0)
(6.16461 -0.346291 0)
(5.67616 0.952337 0)
(6.14383 -0.335262 0)
(5.8649 0.988582 0)
(6.23817 -0.0288704 0)
(5.91964 1.04159 0)
(6.28071 0.0661548 0)
(6.12712 1.14604 0)
(6.25516 0.417189 0)
(6.16485 1.30024 0)
(6.14418 0.57805 0)
(6.16513 1.48742 0)
(5.93886 0.844031 0)
(5.86858 1.81924 0)
(5.80701 1.13602 0)
(5.51031 2.28048 0)
(6.07997 1.83436 0)
(5.78558 3.38806 0)
(5.9798 2.62176 0)
(4.91682 4.85665 0)
(8.43178 4.28068 0)
(5.91716 9.84291 0)
(7.95119 -0.143112 0)
(8.4421 -0.361908 0)
(8.84163 -0.642588 0)
(9.78853 -1.06586 0)
(10.0528 -1.67158 0)
(9.80347 -2.38762 0)
(9.4872 -2.43713 0)
(8.83782 -1.94807 0)
(7.98847 -1.46553 0)
(7.73938 -0.892641 0)
(6.03405 0.461696 0)
(5.24026 2.65876 0)
(7.58672 2.5866 0)
(9.43656 1.72114 0)
(10.2205 1.51986 0)
(11.4868 0.55314 0)
(12.3474 -1.0056 0)
(12.7864 -2.68003 0)
(13.2621 -4.088 0)
(13.6892 -4.9238 0)
(13.717 -5.71598 0)
(13.1663 -6.11755 0)
(12.1375 -6.0369 0)
(11.803 -6.35119 0)
(11.8303 -6.74465 0)
(10.8683 -6.40082 0)
(9.2026 -5.78078 0)
(8.26979 -5.63353 0)
(7.8377 -5.78814 0)
(7.93204 -5.66719 0)
(8.16102 -4.86702 0)
(8.48458 -3.53844 0)
(8.61015 -2.26139 0)
(8.988 -0.554322 0)
(9.02874 1.1849 0)
(8.54101 2.1925 0)
(8.57215 3.05999 0)
(9.00082 4.31068 0)
(9.07599 5.25584 0)
(8.71243 5.47642 0)
(8.40614 4.97966 0)
(8.08722 4.33586 0)
(7.94473 3.4234 0)
(7.48852 2.81932 0)
(7.44949 1.7988 0)
(6.73283 1.61093 0)
(7.07705 0.630988 0)
(5.987 1.1738 0)
(6.96563 -0.00698449 0)
(5.38754 1.19434 0)
(6.92989 -0.442225 0)
(5.09267 1.2319 0)
(6.63034 -0.718979 0)
(5.2639 1.1113 0)
(5.97521 -0.839918 0)
(5.70773 0.971552 0)
(5.33337 -0.874062 0)
(5.94169 0.930504 0)
(5.18262 -0.851435 0)
(5.79892 0.933156 0)
(5.48037 -0.831753 0)
(5.5231 0.944936 0)
(5.86628 -0.860198 0)
(5.40308 0.917111 0)
(6.0239 -0.828448 0)
(5.45596 0.827899 0)
(6.04259 -0.738361 0)
(5.42542 0.869649 0)
(6.05892 -0.855452 0)
(5.51535 1.02938 0)
(5.93278 -0.926711 0)
(5.62377 0.945578 0)
(6.02161 -0.73894 0)
(5.53263 0.948542 0)
(6.15436 -0.83289 0)
(5.62886 1.12362 0)
(6.2027 -0.79203 0)
(5.71513 0.988895 0)
(6.38117 -0.582282 0)
(5.79379 1.15523 0)
(6.45607 -0.622193 0)
(6.03281 1.12726 0)
(6.59352 -0.282162 0)
(6.1328 1.27774 0)
(6.70412 -0.208933 0)
(6.34874 1.33606 0)
(6.80136 0.211758 0)
(6.3522 1.56945 0)
(6.78407 0.408053 0)
(6.34376 1.66112 0)
(6.7457 0.837417 0)
(5.90858 1.97313 0)
(6.54531 1.06836 0)
(5.59438 2.32985 0)
(6.77097 1.32553 0)
(5.93583 3.4117 0)
(8.43247 2.60173 0)
(4.97432 5.44127 0)
(8.78925 3.73136 0)
(6.66903 9.9345 0)
(10.0258 -0.31395 0)
(10.5963 -0.586255 0)
(10.6926 -0.884734 0)
(11.5292 -1.1683 0)
(11.6344 -1.6113 0)
(11.3146 -2.22025 0)
(10.7899 -2.22138 0)
(10.2532 -1.7109 0)
(9.50548 -1.15463 0)
(9.11687 -0.538626 0)
(8.24436 0.758652 0)
(7.24763 2.37017 0)
(9.01249 2.07244 0)
(10.4981 1.22681 0)
(11.21 1.02114 0)
(12.3414 0.20576 0)
(13.3209 -1.16881 0)
(13.8762 -2.80565 0)
(14.1002 -4.21787 0)
(13.9783 -5.00451 0)
(13.6035 -5.53771 0)
(12.6993 -5.76573 0)
(11.976 -5.79191 0)
(12.0007 -6.27154 0)
(11.5329 -6.50788 0)
(10.0935 -5.84565 0)
(8.19247 -5.21931 0)
(7.3266 -5.35107 0)
(6.91206 -5.76759 0)
(7.02969 -5.72677 0)
(7.25375 -4.91287 0)
(7.47978 -3.57736 0)
(7.549 -2.2988 0)
(7.80709 -0.602349 0)
(7.8654 1.21814 0)
(7.56771 2.24795 0)
(7.64192 2.99082 0)
(8.01277 4.17629 0)
(8.12204 5.21782 0)
(7.87978 5.54598 0)
(7.71775 5.07291 0)
(7.48697 4.44316 0)
(7.42364 3.5325 0)
(7.01147 2.92597 0)
(7.11224 1.90512 0)
(6.351 1.70775 0)
(6.91868 0.730139 0)
(5.66491 1.24347 0)
(6.94879 0.0476986 0)
(5.11158 1.27148 0)
(6.94613 -0.473751 0)
(4.93747 1.39172 0)
(6.54039 -0.880228 0)
(5.31171 1.35589 0)
(5.74886 -1.06619 0)
(5.83012 1.19359 0)
(5.21011 -1.023 0)
(5.90453 1.04114 0)
(5.35897 -0.89541 0)
(5.5472 0.970234 0)
(5.7871 -0.860573 0)
(5.25619 1.00884 0)
(5.89582 -0.972451 0)
(5.35635 1.05037 0)
(5.6244 -1.01064 0)
(5.519 0.96097 0)
(5.5471 -0.888949 0)
(5.3975 0.996488 0)
(5.6069 -1.01589 0)
(5.48501 1.1849 0)
(5.47073 -1.09118 0)
(5.53055 1.09063 0)
(5.70629 -0.889767 0)
(5.29489 1.12033 0)
(5.88013 -1.0179 0)
(5.46466 1.29807 0)
(5.93867 -1.00136 0)
(5.39599 1.20461 0)
(6.28319 -0.824214 0)
(5.48576 1.36271 0)
(6.43224 -0.922788 0)
(5.66469 1.37329 0)
(6.8787 -0.59158 0)
(5.77183 1.47964 0)
(7.25906 -0.594716 0)
(6.17072 1.57476 0)
(7.69929 -0.150225 0)
(6.35968 1.78946 0)
(8.09173 0.0627522 0)
(6.70863 2.01499 0)
(8.03435 0.589471 0)
(6.53146 2.43602 0)
(7.57178 0.89668 0)
(5.82173 2.90435 0)
(7.0109 0.914566 0)
(4.83642 3.54227 0)
(8.81114 1.68344 0)
(5.89404 5.31274 0)
(11.5537 2.59683 0)
(8.25835 9.27504 0)
(11.664 -0.479271 0)
(12.1803 -0.79046 0)
(12.1398 -1.0303 0)
(12.6597 -1.25644 0)
(12.7838 -1.50455 0)
(12.4153 -1.99355 0)
(11.6946 -2.00096 0)
(11.12 -1.51989 0)
(10.5974 -0.927861 0)
(10.2045 -0.30143 0)
(9.88795 0.864957 0)
(9.28408 2.20469 0)
(10.6413 1.75348 0)
(11.7711 0.919301 0)
(12.2927 0.645764 0)
(13.3321 -0.136 0)
(14.2115 -1.44241 0)
(14.6387 -2.97892 0)
(14.5587 -4.15379 0)
(13.9371 -4.83935 0)
(13.2652 -5.30819 0)
(12.4479 -5.49252 0)
(11.9927 -5.70763 0)
(12.0159 -6.11927 0)
(10.8931 -5.96639 0)
(8.88495 -5.07497 0)
(6.97497 -4.65197 0)
(6.24045 -5.12529 0)
(5.85364 -5.75705 0)
(5.91439 -5.7877 0)
(6.09262 -4.96776 0)
(6.34123 -3.61493 0)
(6.34614 -2.26097 0)
(6.46614 -0.615028 0)
(6.53707 1.18041 0)
(6.44165 2.27943 0)
(6.60433 3.01695 0)
(6.93972 4.13579 0)
(7.09391 5.17684 0)
(6.98919 5.56241 0)
(6.95815 5.13444 0)
(6.8217 4.49948 0)
(6.87785 3.58111 0)
(6.49501 2.99576 0)
(6.7085 2.0172 0)
(5.9781 1.80549 0)
(6.70908 0.833991 0)
(5.42647 1.30071 0)
(6.82473 0.108735 0)
(4.94096 1.34081 0)
(6.80713 -0.495184 0)
(4.89515 1.53455 0)
(6.3158 -0.997906 0)
(5.43834 1.53826 0)
(5.47227 -1.18095 0)
(5.97095 1.30848 0)
(5.04827 -1.05312 0)
(5.92106 1.06276 0)
(5.31283 -0.897938 0)
(5.51656 0.981297 0)
(5.64359 -0.932345 0)
(5.36232 1.08695 0)
(5.54938 -1.1309 0)
(5.54235 1.17715 0)
(5.36192 -1.15204 0)
(5.59116 1.04954 0)
(5.53042 -0.945615 0)
(5.40032 1.06654 0)
(5.70973 -1.11691 0)
(5.43974 1.32894 0)
(5.61522 -1.2419 0)
(5.5189 1.1755 0)
(5.83782 -0.970807 0)
(5.27484 1.21993 0)
(5.97564 -1.21983 0)
(5.44995 1.4835 0)
(5.88839 -1.19059 0)
(5.39733 1.30465 0)
(6.19361 -1.02419 0)
(5.40013 1.57098 0)
(6.22299 -1.2095 0)
(5.55538 1.52404 0)
(6.63526 -0.858866 0)
(5.54101 1.71358 0)
(6.99655 -1.04062 0)
(5.89498 1.78311 0)
(7.79389 -0.59668 0)
(6.12893 2.00725 0)
(8.74041 -0.575169 0)
(6.78619 2.16879 0)
(9.95722 0.0777864 0)
(7.12155 2.60525 0)
(11.0776 0.628229 0)
(6.95319 3.19809 0)
(11.3942 1.42459 0)
(5.06665 3.95142 0)
(10.3232 1.69096 0)
(4.35858 5.90877 0)
(10.0656 1.35198 0)
(8.94574 8.5714 0)
(12.9856 -0.616695 0)
(13.3302 -0.96711 0)
(13.0984 -1.14683 0)
(13.3151 -1.2912 0)
(13.2991 -1.40897 0)
(12.9804 -1.76931 0)
(12.2287 -1.71595 0)
(11.6335 -1.29961 0)
(11.2111 -0.770938 0)
(10.8197 -0.155811 0)
(10.8284 0.84724 0)
(10.7377 1.94296 0)
(11.9702 1.45675 0)
(12.7797 0.714025 0)
(13.2672 0.333599 0)
(14.1534 -0.455938 0)
(14.8137 -1.64391 0)
(14.9745 -2.99683 0)
(14.4784 -4.02219 0)
(13.8149 -4.58905 0)
(13.1776 -4.98787 0)
(12.5117 -5.24809 0)
(12.045 -5.55385 0)
(11.5988 -5.73307 0)
(9.80271 -5.21358 0)
(7.43571 -4.26901 0)
(5.74529 -4.16143 0)
(5.21242 -4.93064 0)
(4.84492 -5.70735 0)
(4.81502 -5.78626 0)
(4.83571 -4.96052 0)
(5.03116 -3.61751 0)
(5.01756 -2.21528 0)
(5.01367 -0.587631 0)
(5.1032 1.10899 0)
(5.24727 2.17777 0)
(5.54982 2.92883 0)
(5.85607 4.04086 0)
(6.00477 5.10537 0)
(5.99753 5.52071 0)
(6.12772 5.09882 0)
(6.12645 4.49039 0)
(6.25655 3.63432 0)
(5.93573 3.06586 0)
(6.30486 2.08443 0)
(5.59001 1.80314 0)
(6.4812 0.876827 0)
(5.06339 1.27706 0)
(6.66988 0.140022 0)
(4.62534 1.35799 0)
(6.69238 -0.554101 0)
(4.70958 1.656 0)
(6.19201 -1.1692 0)
(5.38311 1.7431 0)
(5.35236 -1.34087 0)
(5.96568 1.44309 0)
(5.0102 -1.09757 0)
(5.84805 1.08208 0)
(5.40609 -0.894211 0)
(5.37139 1.00709 0)
(5.79883 -0.99965 0)
(5.26981 1.20701 0)
(5.70794 -1.25451 0)
(5.45739 1.30364 0)
(5.62762 -1.22475 0)
(5.39082 1.13137 0)
(5.81291 -1.02793 0)
(5.30101 1.20145 0)
(5.73211 -1.31322 0)
(5.45623 1.50622 0)
(5.56585 -1.40125 0)
(5.38672 1.26773 0)
(5.83534 -1.09923 0)
(5.22022 1.39007 0)
(5.7994 -1.46841 0)
(5.44658 1.63673 0)
(5.84594 -1.33652 0)
(5.19694 1.4424 0)
(6.22315 -1.27106 0)
(5.31979 1.77162 0)
(6.25383 -1.43736 0)
(5.26088 1.69972 0)
(6.75686 -1.13669 0)
(5.28944 1.9538 0)
(7.08082 -1.3019 0)
(5.27396 2.02941 0)
(7.91013 -0.917721 0)
(5.24628 2.30809 0)
(8.90596 -0.981233 0)
(5.31543 2.45156 0)
(10.6289 -0.492404 0)
(5.75531 2.84564 0)
(12.6674 -0.114894 0)
(6.57551 3.25579 0)
(14.7486 0.594612 0)
(7.43295 4.26074 0)
(14.5845 1.05512 0)
(7.87359 6.07762 0)
(10.9532 1.34901 0)
(8.67443 7.8059 0)
(13.7558 -0.703227 0)
(13.836 -1.04328 0)
(13.4962 -1.14797 0)
(13.397 -1.251 0)
(13.2232 -1.31648 0)
(13.0219 -1.55117 0)
(12.2835 -1.43732 0)
(11.7906 -1.09408 0)
(11.3717 -0.641057 0)
(11.0435 -0.075667 0)
(11.1792 0.742559 0)
(11.5052 1.57426 0)
(12.6784 1.1148 0)
(13.2224 0.494595 0)
(13.8568 0.0463464 0)
(14.5588 -0.699363 0)
(14.9556 -1.75559 0)
(14.8178 -2.91952 0)
(14.1184 -3.78149 0)
(13.5554 -4.32585 0)
(13.1548 -4.72384 0)
(12.5771 -4.97153 0)
(11.8551 -5.25535 0)
(10.7826 -5.16215 0)
(8.60883 -4.28055 0)
(6.14438 -3.47409 0)
(4.64452 -3.8048 0)
(4.23698 -4.80207 0)
(3.87139 -5.63695 0)
(3.70925 -5.73336 0)
(3.59731 -4.92965 0)
(3.69354 -3.57587 0)
(3.64076 -2.16199 0)
(3.5927 -0.565484 0)
(3.7121 1.03195 0)
(4.00862 2.0873 0)
(4.373 2.8995 0)
(4.65796 4.00507 0)
(4.85849 5.0153 0)
(4.99816 5.40875 0)
(5.27131 5.03671 0)
(5.35082 4.4845 0)
(5.60474 3.64642 0)
(5.35456 3.03463 0)
(5.89559 2.10912 0)
(5.17426 1.80251 0)
(6.24171 0.978551 0)
(4.83679 1.30589 0)
(6.50303 0.229605 0)
(4.56817 1.39767 0)
(6.48554 -0.539609 0)
(4.75271 1.74859 0)
(5.99301 -1.22921 0)
(5.46051 1.86944 0)
(5.22841 -1.38215 0)
(6.02581 1.49005 0)
(4.96071 -1.05178 0)
(5.84396 1.0456 0)
(5.43049 -0.842955 0)
(5.3153 1.02063 0)
(5.78115 -1.06885 0)
(5.32767 1.32384 0)
(5.48236 -1.40378 0)
(5.61128 1.403 0)
(5.27038 -1.31765 0)
(5.49876 1.18298 0)
(5.38033 -1.12564 0)
(5.42565 1.28531 0)
(5.25236 -1.42787 0)
(5.55362 1.58037 0)
(5.28039 -1.46832 0)
(5.37295 1.34113 0)
(5.53081 -1.17833 0)
(5.28047 1.49001 0)
(5.48748 -1.62169 0)
(5.40165 1.7909 0)
(5.63037 -1.44497 0)
(5.1793 1.53356 0)
(5.86548 -1.43484 0)
(5.29468 1.9574 0)
(5.80308 -1.63796 0)
(5.18289 1.80489 0)
(6.27674 -1.30987 0)
(5.22607 2.09457 0)
(6.29501 -1.55527 0)
(5.14126 2.11994 0)
(6.88367 -1.12706 0)
(5.11791 2.39456 0)
(7.09746 -1.25258 0)
(4.88833 2.62242 0)
(7.90889 -0.876185 0)
(5.00714 3.16208 0)
(8.59281 -0.732921 0)
(5.32339 3.71023 0)
(10.3416 -0.325269 0)
(7.09751 4.81208 0)
(12.408 0.32634 0)
(9.15191 6.22031 0)
(13.4435 1.91971 0)
(9.6544 6.87489 0)
(13.865 -0.715315 0)
(13.6381 -0.969332 0)
(13.3544 -1.03226 0)
(13.1223 -1.10531 0)
(12.9406 -1.1949 0)
(12.8035 -1.3534 0)
(12.1742 -1.19125 0)
(11.7886 -0.898437 0)
(11.3284 -0.50045 0)
(11.1801 -0.0424875 0)
(11.2754 0.595034 0)
(11.882 1.17451 0)
(12.8537 0.827899 0)
(13.352 0.32288 0)
(14.0082 -0.210761 0)
(14.4426 -0.872952 0)
(14.5986 -1.80317 0)
(14.2804 -2.8406 0)
(13.7369 -3.5369 0)
(13.3581 -4.07379 0)
(13.0247 -4.51187 0)
(12.3462 -4.70521 0)
(11.4369 -4.79554 0)
(9.74234 -4.43926 0)
(7.26813 -3.36874 0)
(5.03468 -2.71191 0)
(3.71118 -3.40875 0)
(3.27171 -4.61966 0)
(2.81124 -5.50596 0)
(2.48349 -5.62571 0)
(2.28849 -4.87441 0)
(2.35919 -3.55862 0)
(2.29486 -2.10935 0)
(2.28109 -0.590418 0)
(2.46475 0.853882 0)
(2.84906 1.89589 0)
(3.23018 2.78873 0)
(3.48566 3.91357 0)
(3.70096 4.89451 0)
(3.94135 5.27805 0)
(4.34436 4.92588 0)
(4.54285 4.38553 0)
(4.9373 3.59783 0)
(4.77797 2.99268 0)
(5.48478 2.13083 0)
(4.84497 1.74186 0)
(5.99779 0.998969 0)
(4.53138 1.21265 0)
(6.23488 0.251122 0)
(4.17145 1.33512 0)
(6.27326 -0.585651 0)
(4.39087 1.77605 0)
(5.90096 -1.37161 0)
(5.20282 1.9792 0)
(5.21601 -1.51397 0)
(5.87286 1.53044 0)
(4.96239 -1.03786 0)
(5.76215 0.965665 0)
(5.40184 -0.780132 0)
(5.27233 1.01245 0)
(5.71986 -1.14476 0)
(5.33572 1.45156 0)
(5.41785 -1.51483 0)
(5.64846 1.46627 0)
(5.30927 -1.31968 0)
(5.4682 1.20023 0)
(5.55479 -1.17217 0)
(5.34419 1.40563 0)
(5.54866 -1.55879 0)
(5.44715 1.69182 0)
(5.59527 -1.53704 0)
(5.27906 1.40874 0)
(5.75267 -1.33985 0)
(5.2728 1.65848 0)
(5.68831 -1.81399 0)
(5.31761 1.87643 0)
(5.83841 -1.56907 0)
(5.16789 1.6606 0)
(5.93423 -1.72094 0)
(5.28491 2.11531 0)
(6.0336 -1.78979 0)
(5.08874 1.89067 0)
(6.41792 -1.63096 0)
(5.20477 2.32692 0)
(6.43732 -1.8071 0)
(5.06836 2.19222 0)
(6.97608 -1.50077 0)
(5.23528 2.59655 0)
(7.07258 -1.55367 0)
(5.08232 2.63883 0)
(7.46551 -1.3621 0)
(5.57288 3.26453 0)
(7.39876 -1.16825 0)
(5.79237 3.89465 0)
(7.55243 -1.22607 0)
(6.82604 5.13833 0)
(9.35201 -0.425038 0)
(8.11404 6.12829 0)
(12.615 1.88311 0)
(10.6181 6.34905 0)
(13.3697 -0.652017 0)
(13.0289 -0.837471 0)
(13.0454 -0.916866 0)
(12.9994 -0.955186 0)
(12.89 -1.10586 0)
(12.6387 -1.20733 0)
(12.1744 -1.00785 0)
(11.8397 -0.745737 0)
(11.5245 -0.454155 0)
(11.5313 -0.0870023 0)
(11.5973 0.397069 0)
(12.3846 0.753229 0)
(13.0737 0.576527 0)
(13.4375 0.136643 0)
(13.7605 -0.372177 0)
(13.956 -0.924878 0)
(14.0275 -1.81649 0)
(13.8264 -2.67517 0)
(13.5674 -3.29811 0)
(13.2257 -3.90729 0)
(12.6501 -4.30956 0)
(11.7808 -4.39766 0)
(10.715 -4.1912 0)
(8.7175 -3.44777 0)
(5.92342 -2.3584 0)
(3.80939 -2.04865 0)
(2.75184 -3.09734 0)
(2.24691 -4.41062 0)
(1.69673 -5.30877 0)
(1.24408 -5.47555 0)
(0.997611 -4.79769 0)
(1.01977 -3.56498 0)
(0.987761 -2.10053 0)
(1.04896 -0.621577 0)
(1.27368 0.706399 0)
(1.64532 1.76137 0)
(1.95932 2.74432 0)
(2.18304 3.87376 0)
(2.4845 4.76305 0)
(2.88378 5.07402 0)
(3.43421 4.74628 0)
(3.74017 4.25886 0)
(4.27267 3.52916 0)
(4.24773 2.86124 0)
(5.13461 2.06517 0)
(4.47587 1.619 0)
(5.68098 1.06938 0)
(4.18744 1.19226 0)
(5.96122 0.365399 0)
(4.10785 1.33 0)
(6.0762 -0.540398 0)
(4.56322 1.75226 0)
(5.77463 -1.3662 0)
(5.30988 1.97617 0)
(5.23076 -1.48694 0)
(5.88921 1.48888 0)
(4.98296 -0.926761 0)
(5.8191 0.839385 0)
(5.3269 -0.647378 0)
(5.35189 0.936788 0)
(5.67467 -1.13818 0)
(5.34466 1.54256 0)
(5.42196 -1.56208 0)
(5.67915 1.54503 0)
(5.21082 -1.26943 0)
(5.52981 1.21504 0)
(5.37044 -1.15724 0)
(5.40363 1.46445 0)
(5.25947 -1.60984 0)
(5.53749 1.73288 0)
(5.15989 -1.58115 0)
(5.36721 1.45068 0)
(5.3024 -1.39434 0)
(5.33314 1.71202 0)
(5.25223 -1.88356 0)
(5.35107 1.95988 0)
(5.40209 -1.66488 0)
(5.18668 1.75597 0)
(5.51346 -1.83149 0)
(5.26031 2.24407 0)
(5.63689 -1.92458 0)
(5.09067 2.00677 0)
(5.88732 -1.80957 0)
(5.17515 2.47217 0)
(5.98452 -2.01026 0)
(5.05714 2.34825 0)
(6.36753 -1.78362 0)
(5.20201 2.81539 0)
(6.42889 -1.87201 0)
(5.04195 2.93101 0)
(6.86443 -1.79715 0)
(5.63282 3.53165 0)
(7.17223 -1.62997 0)
(5.95612 4.07423 0)
(7.49854 -1.65669 0)
(6.92022 4.99204 0)
(8.52839 -0.701042 0)
(7.71755 5.66131 0)
(10.1636 1.24801 0)
(10.7412 5.72029 0)
(12.8874 -0.503935 0)
(12.9171 -0.753864 0)
(13.2364 -0.931459 0)
(13.2155 -0.910647 0)
(12.9428 -0.961956 0)
(12.5706 -1.01361 0)
(12.3054 -0.876346 0)
(12.1087 -0.666206 0)
(11.9223 -0.438449 0)
(12.0289 -0.144696 0)
(12.2108 0.133978 0)
(12.5787 0.438388 0)
(12.6839 0.475959 0)
(12.9486 0.111294 0)
(13.266 -0.377063 0)
(13.549 -0.961093 0)
(13.7155 -1.76378 0)
(13.5404 -2.55581 0)
(13.2604 -3.2037 0)
(12.8762 -3.7178 0)
(12.1158 -3.9692 0)
(11.027 -3.92566 0)
(9.54204 -3.52474 0)
(7.26143 -2.48965 0)
(4.51358 -1.38631 0)
(2.70371 -1.50406 0)
(1.84864 -2.83381 0)
(1.22082 -4.1865 0)
(0.619156 -5.10101 0)
(0.0717773 -5.30417 0)
(-0.251988 -4.71497 0)
(-0.323554 -3.54056 0)
(-0.317691 -2.14246 0)
(-0.168474 -0.703639 0)
(0.0661442 0.56675 0)
(0.383276 1.63201 0)
(0.658786 2.66549 0)
(0.916274 3.76262 0)
(1.31145 4.55295 0)
(1.83875 4.82377 0)
(2.52634 4.53187 0)
(2.95327 4.05877 0)
(3.6786 3.36604 0)
(3.78126 2.6592 0)
(4.76079 2.02057 0)
(4.13015 1.53773 0)
(5.32679 1.14274 0)
(4.05288 1.10379 0)
(5.66751 0.384937 0)
(4.15751 1.19008 0)
(5.80032 -0.571489 0)
(4.52874 1.67562 0)
(5.64065 -1.44801 0)
(5.10327 2.00167 0)
(5.29104 -1.5641 0)
(5.64369 1.49645 0)
(5.03414 -0.89591 0)
(5.73105 0.730059 0)
(5.23775 -0.526198 0)
(5.38907 0.81103 0)
(5.56672 -1.08905 0)
(5.33855 1.55101 0)
(5.31579 -1.58623 0)
(5.73042 1.56781 0)
(5.01633 -1.22641 0)
(5.64676 1.17369 0)
(5.20245 -1.15824 0)
(5.44464 1.51998 0)
(5.25283 -1.67013 0)
(5.52043 1.78674 0)
(5.3126 -1.49729 0)
(5.34018 1.45206 0)
(5.48236 -1.39846 0)
(5.32448 1.80946 0)
(5.47023 -1.93249 0)
(5.28939 1.98386 0)
(5.6553 -1.66278 0)
(5.18515 1.82523 0)
(5.66873 -1.99077 0)
(5.2389 2.31234 0)
(5.82328 -2.01751 0)
(5.121 2.07208 0)
(5.96455 -2.05769 0)
(5.16585 2.64169 0)
(6.11921 -2.19247 0)
(5.09826 2.46809 0)
(6.28525 -2.14003 0)
(5.32253 3.062 0)
(6.44387 -2.10122 0)
(5.3902 3.04319 0)
(6.57314 -2.30149 0)
(5.83248 3.74636 0)
(6.81532 -1.87499 0)
(6.21694 4.22102 0)
(6.89252 -1.82217 0)
(7.00521 4.83757 0)
(7.60624 -0.658242 0)
(7.86234 5.15954 0)
(8.3438 0.91836 0)
(10.101 4.93931 0)
(13.1072 -0.509045 0)
(13.3643 -0.832366 0)
(13.366 -0.899655 0)
(13.0282 -0.731295 0)
(12.8042 -0.787683 0)
(12.6514 -0.911272 0)
(12.5318 -0.860161 0)
(12.3128 -0.66735 0)
(12.193 -0.451101 0)
(12.1949 -0.238243 0)
(11.9078 0.144129 0)
(11.8675 0.551503 0)
(12.3205 0.450836 0)
(12.9901 -0.0561953 0)
(13.1942 -0.560059 0)
(13.2949 -1.02364 0)
(13.3842 -1.6984 0)
(13.1175 -2.46983 0)
(12.7209 -3.04892 0)
(12.219 -3.42044 0)
(11.2088 -3.5768 0)
(9.83848 -3.37993 0)
(8.13096 -2.65579 0)
(5.68031 -1.43323 0)
(3.22557 -0.551868 0)
(1.90911 -1.05855 0)
(1.08723 -2.50707 0)
(0.404526 -3.91778 0)
(-0.263878 -4.84664 0)
(-0.965656 -5.08749 0)
(-1.45472 -4.58713 0)
(-1.63501 -3.45711 0)
(-1.66682 -2.13074 0)
(-1.48438 -0.779623 0)
(-1.26395 0.451143 0)
(-0.988607 1.52794 0)
(-0.72219 2.59336 0)
(-0.414342 3.6443 0)
(0.126359 4.33768 0)
(0.869057 4.51972 0)
(1.70764 4.24722 0)
(2.2503 3.79135 0)
(3.15524 3.16992 0)
(3.37885 2.44017 0)
(4.36267 1.9471 0)
(3.86677 1.3928 0)
(4.94226 1.15249 0)
(3.99088 0.961593 0)
(5.3275 0.430089 0)
(4.21122 1.06529 0)
(5.56367 -0.499163 0)
(4.56491 1.56255 0)
(5.56476 -1.36192 0)
(5.04085 1.89305 0)
(5.36888 -1.47927 0)
(5.53797 1.42061 0)
(5.08823 -0.800274 0)
(5.77819 0.612869 0)
(5.06318 -0.370594 0)
(5.61213 0.637753 0)
(5.33132 -0.952254 0)
(5.42641 1.46169 0)
(5.28683 -1.55238 0)
(5.70189 1.57044 0)
(5.0216 -1.17484 0)
(5.73366 1.12952 0)
(5.15617 -1.0616 0)
(5.47092 1.47468 0)
(5.28112 -1.58309 0)
(5.47831 1.76954 0)
(5.18033 -1.45142 0)
(5.43855 1.44835 0)
(5.18069 -1.38422 0)
(5.38406 1.7881 0)
(5.18689 -1.83317 0)
(5.34528 1.97467 0)
(5.24609 -1.62095 0)
(5.25518 1.87448 0)
(5.2956 -1.91865 0)
(5.25594 2.34976 0)
(5.47292 -1.96343 0)
(5.17567 2.14911 0)
(5.57218 -2.07574 0)
(5.1683 2.69205 0)
(5.77543 -2.27909 0)
(5.20565 2.5817 0)
(5.95692 -2.3217 0)
(5.32596 3.17148 0)
(6.18658 -2.38522 0)
(5.50608 3.26831 0)
(6.36867 -2.48706 0)
(5.93248 3.85588 0)
(6.78194 -2.049 0)
(6.4379 4.20188 0)
(7.10128 -1.84106 0)
(7.19562 4.49109 0)
(7.63377 -0.627331 0)
(8.17283 4.546 0)
(8.46979 1.02368 0)
(9.59746 3.99369 0)
(13.3086 -0.566489 0)
(13.2588 -0.742296 0)
(13.0617 -0.677524 0)
(12.8793 -0.601736 0)
(12.8332 -0.773068 0)
(12.8003 -0.855002 0)
(12.6265 -0.781647 0)
(12.1955 -0.610193 0)
(12.0241 -0.365965 0)
(11.8489 -0.0527275 0)
(11.6782 0.229679 0)
(12.1039 0.25739 0)
(12.6823 0.068904 0)
(12.8807 -0.18123 0)
(12.7262 -0.456269 0)
(12.8898 -0.919581 0)
(12.9477 -1.66384 0)
(12.6071 -2.35596 0)
(12.0286 -2.84982 0)
(11.164 -3.10041 0)
(9.85556 -3.04189 0)
(8.2641 -2.65924 0)
(6.48701 -1.76805 0)
(4.18946 -0.481558 0)
(2.25513 0.126571 0)
(1.25913 -0.67867 0)
(0.472111 -2.2261 0)
(-0.262315 -3.64468 0)
(-1.04643 -4.54676 0)
(-1.88694 -4.80367 0)
(-2.55064 -4.38014 0)
(-2.84271 -3.36674 0)
(-2.97483 -2.12072 0)
(-2.84965 -0.828272 0)
(-2.68243 0.380783 0)
(-2.42851 1.45272 0)
(-2.0948 2.4944 0)
(-1.61693 3.43263 0)
(-0.848809 4.00479 0)
(0.0263744 4.13814 0)
(0.93044 3.92788 0)
(1.63432 3.4615 0)
(2.70696 2.89514 0)
(3.04429 2.16563 0)
(3.92653 1.84063 0)
(3.66397 1.24867 0)
(4.50578 1.15766 0)
(4.10454 0.831069 0)
(4.95419 0.444545 0)
(4.55535 0.915351 0)
(5.26029 -0.465476 0)
(4.82427 1.40484 0)
(5.42617 -1.3021 0)
(4.97163 1.78528 0)
(5.46343 -1.44674 0)
(5.28906 1.38174 0)
(5.20722 -0.778921 0)
(5.68771 0.552963 0)
(4.95092 -0.280955 0)
(5.77208 0.503353 0)
(5.12102 -0.824717 0)
(5.50833 1.35373 0)
(5.26137 -1.47687 0)
(5.6305 1.51804 0)
(4.91376 -1.07711 0)
(5.85765 0.995133 0)
(4.82152 -0.932462 0)
(5.63376 1.36314 0)
(5.02013 -1.54008 0)
(5.52129 1.73443 0)
(5.01214 -1.36662 0)
(5.53959 1.3535 0)
(5.01145 -1.26762 0)
(5.42737 1.71954 0)
(5.20602 -1.76738 0)
(5.34884 1.93201 0)
(5.26765 -1.54065 0)
(5.29782 1.8097 0)
(5.42438 -1.8824 0)
(5.22744 2.30948 0)
(5.52387 -1.91213 0)
(5.21918 2.13812 0)
(5.5912 -2.03823 0)
(5.23274 2.72388 0)
(5.81262 -2.1974 0)
(5.25335 2.62221 0)
(5.85089 -2.34005 0)
(5.37019 3.29379 0)
(6.11605 -2.31162 0)
(5.68628 3.24457 0)
(6.28484 -2.53898 0)
(6.05753 3.85437 0)
(6.55732 -1.9448 0)
(6.54796 4.11911 0)
(7.0683 -1.68003 0)
(7.18943 4.09333 0)
(7.80058 -0.440255 0)
(8.18443 3.91246 0)