/*--------------------------------*- C++ -*----------------------------------*\
| =========                 |                                                 |
| \\      /  F ield         | OpenFOAM: The Open Source CFD Toolbox           |
|  \\    /   O peration     | Version:  2.4.0                                 |
|   \\  /    A nd           | Web:      www.OpenFOAM.org                      |
|    \\/     M anipulation  |                                                 |
\*---------------------------------------------------------------------------*/
FoamFile
{
    version     2.0;
    format      ascii;
    class       volScalarField;
    location    "0.185";
    object      k_0;
}
// * * * * * * * * * * * * * * * * * * * * * * * * * * * * * * * * * * * * * //

dimensions      [0 2 -2 0 0 0 0];

internalField   nonuniform List<scalar> 
4400
(
9.53615
8.48462
6.52876
5.28137
4.65465
4.21933
4.0226
3.82448
3.78468
3.61524
4.41265
6.75339
6.74802
6.28432
5.7264
5.22144
4.96737
4.69615
4.65534
4.50033
1.17872
3.14504
4.23359
4.52197
4.47913
4.28602
4.13
3.92315
3.90505
3.80324
0.165093
0.930668
1.72386
2.30208
2.67682
2.80882
2.85589
2.82489
2.84478
2.82101
0.017423
0.149014
0.417486
0.738918
1.07771
1.34529
1.52291
1.61665
1.74047
1.75588
0.00148543
0.0167816
0.0521269
0.131685
0.234827
0.398657
0.530278
0.629746
0.757908
0.831116
0.000137756
0.00148679
0.00429345
0.0120881
0.0257226
0.0596691
0.102366
0.133319
0.178089
0.262878
4.05692e-05
0.000248443
0.000418143
0.000853183
0.00166036
0.00442022
0.00939361
0.0125118
0.0189343
0.0434518
3.40666e-05
0.000147546
0.000200827
0.000233396
0.000248897
0.0003596
0.000581208
0.000711868
0.00104963
0.00266966
3.29821e-05
0.000129646
0.000200859
0.000207367
0.000200169
0.000197861
0.000203084
0.000222057
0.000243775
0.000292364
3.29578e-05
0.000135385
0.000172752
0.000182859
0.000208597
0.000234887
0.000242236
0.000252498
0.000271889
0.000379335
3.41188e-05
0.000112966
0.000189891
0.000237328
0.000324192
0.000392449
0.000538624
0.00100144
0.00174647
0.00400898
4.01466e-05
0.000221454
0.000470096
0.000895619
0.00190952
0.00422713
0.00775827
0.017583
0.0271236
0.0539269
0.000136428
0.00151512
0.0047695
0.0117445
0.0274388
0.0607024
0.0918919
0.162811
0.207567
0.341623
0.00146116
0.0169495
0.0582272
0.122964
0.254936
0.390858
0.522424
0.692
0.780866
1.02411
0.0171582
0.150299
0.427293
0.732583
1.09941
1.32929
1.53441
1.68325
1.76464
1.96959
0.162839
0.940583
1.72278
2.30254
2.68853
2.79344
2.87948
2.86613
2.87724
2.93788
1.16447
3.16666
4.2237
4.52899
4.47921
4.2697
4.14939
3.92319
3.87701
3.78109
4.40188
6.77463
6.73705
6.29356
5.70499
5.20046
4.96848
4.61127
4.51751
4.22997
9.52701
8.504
6.50364
5.2949
4.63043
4.19096
3.99036
3.67614
3.55308
3.13874
2.15797
1.51299
1.32505
1.31265
1.28702
1.2667
1.09105
0.855775
0.657731
0.501242
0.321081
0.307618
0.357756
0.40465
0.538651
0.597254
0.621574
0.616998
0.584861
0.503618
0.323507
0.173615
0.126707
0.113368
0.122692
0.214681
0.443797
0.489185
0.46153
0.392984
0.336565
0.281789
0.24487
0.224976
0.168771
0.12839
0.163622
0.309378
0.340722
0.308318
0.329223
0.345231
0.310919
0.228585
0.213676
0.19038
0.151019
0.140574
0.146944
0.194644
0.23118
0.237481
0.227395
0.177709
0.152047
0.149769
0.155509
0.156988
0.15155
0.140814
0.118558
0.0830626
0.0660912
0.0692158
0.0784075
0.104022
0.12346
0.141557
0.144177
0.139836
0.124443
0.107267
0.105957
0.106478
0.102277
0.0860687
0.0738934
0.065396
0.0640314
0.0624063
0.0626322
0.0658615
0.0918008
0.194873
0.282431
0.279082
0.252139
0.222717
0.223978
0.222792
0.203682
0.16189
0.142769
0.151402
0.197547
0.202522
0.166387
0.109263
0.128193
0.40098
3.32078
2.45131
1.90076
1.69114
1.46424
1.45336
1.38151
1.23153
1.08382
1.027
0.816111
0.746391
0.723773
0.720729
0.713375
0.68035
0.656287
0.605947
0.514982
0.324087
0.160319
0.0819914
0.0604941
0.0591801
0.0627863
0.0930345
0.192097
0.315131
0.362238
0.349977
0.318793
0.265028
0.234113
0.202052
0.120693
0.101271
0.175384
0.339289
0.349516
0.320465
0.365541
0.376681
0.318965
0.231206
0.20177
0.193593
0.159885
0.149354
0.15264
0.180426
0.219547
0.23177
0.228756
0.193434
0.155697
0.15015
0.153022
0.152495
0.141642
0.130162
0.114489
0.0807546
0.0610523
0.0605688
0.0662382
0.0898164
0.104858
0.124594
0.13362
0.134084
0.124149
0.112863
0.110446
0.108421
0.0986584
0.0754345
0.0702987
0.0643742
0.0640982
0.0630176
0.063987
0.0699395
0.104223
0.205294
0.302727
0.300234
0.269404
0.223789
0.215384
0.214462
0.20464
0.162603
0.141092
0.143512
0.18253
0.19452
0.170486
0.110231
0.137449
0.325676
3.10448
2.45626
1.94331
1.72337
1.4736
1.40777
1.35707
1.25481
1.17128
1.10776
1.01905
0.953829
0.844451
0.808023
0.737945
0.62978
0.569463
0.458412
0.276522
0.136193
0.065443
0.0395102
0.0323964
0.0332848
0.0361507
0.0460478
0.0726235
0.129847
0.215309
0.234348
0.22688
0.201945
0.176827
0.125016
0.0775414
0.0865077
0.215082
0.362854
0.354414
0.332548
0.383189
0.426883
0.335765
0.243015
0.195705
0.194743
0.169775
0.1617
0.170743
0.188759
0.214963
0.226089
0.226432
0.200432
0.161912
0.153677
0.154426
0.149473
0.135328
0.124806
0.110352
0.0782715
0.0573515
0.0541663
0.0565548
0.073864
0.0887187
0.106508
0.11937
0.12266
0.117289
0.11197
0.109802
0.104728
0.0876495
0.070369
0.0655328
0.0627514
0.0629856
0.0626756
0.0645156
0.0739101
0.1172
0.213167
0.332449
0.332773
0.30029
0.235495
0.205452
0.20175
0.195939
0.161815
0.137889
0.13954
0.175412
0.1899
0.17024
0.11281
0.142916
0.260417
2.45403
2.08759
1.64821
1.46233
1.22983
1.13497
1.08704
1.03423
1.01199
0.938659
0.905899
0.841624
0.734695
0.687362
0.584827
0.458808
0.355861
0.201057
0.104553
0.0513093
0.0283115
0.0220216
0.0225771
0.0251277
0.0273138
0.0304414
0.0374416
0.052419
0.0922762
0.127912
0.127933
0.11723
0.0954704
0.0656697
0.0552683
0.0802336
0.263001
0.379288
0.35052
0.348912
0.416771
0.489314
0.346588
0.253589
0.195154
0.195814
0.170592
0.164006
0.176355
0.201988
0.218224
0.226384
0.225538
0.201837
0.166376
0.157251
0.156053
0.148927
0.135178
0.123542
0.106546
0.0766369
0.0552746
0.0498184
0.0499289
0.0585903
0.0742957
0.089667
0.0990076
0.110497
0.106737
0.105715
0.103274
0.0969452
0.0801968
0.0679202
0.0641254
0.0634505
0.0632929
0.0627058
0.0662312
0.0797481
0.129489
0.242338
0.376655
0.36008
0.324905
0.254437
0.196997
0.181272
0.176179
0.156369
0.132635
0.134015
0.169822
0.187687
0.172581
0.118952
0.144845
0.211475
1.60389
1.46319
1.17094
1.05212
0.880184
0.792043
0.720425
0.693651
0.68517
0.646694
0.631617
0.582822
0.501147
0.454171
0.348034
0.235614
0.138179
0.0721794
0.0363194
0.0204313
0.015772
0.0160553
0.020065
0.024753
0.0263615
0.0299566
0.0310438
0.033912
0.0417666
0.0624063
0.0627214
0.0579057
0.0532799
0.0434462
0.0461026
0.0956899
0.314418
0.388104
0.347628
0.355764
0.472158
0.528494
0.364667
0.263097
0.201885
0.197724
0.169365
0.155605
0.161488
0.200637
0.221794
0.228154
0.226061
0.205281
0.171046
0.158854
0.157805
0.150743
0.136065
0.120888
0.102425
0.0750588
0.0540547
0.0480208
0.0460883
0.0487924
0.0575912
0.0782575
0.0812319
0.0924042
0.0930383
0.0959574
0.0939726
0.0887403
0.075286
0.0668571
0.0639499
0.0663883
0.0682134
0.0671927
0.0740267
0.0938786
0.146133
0.322167
0.403831
0.364498
0.327053
0.266949
0.190827
0.158431
0.149003
0.142377
0.127329
0.127426
0.158693
0.182465
0.176332
0.133132
0.151315
0.202502
0.791186
0.747142
0.629726
0.535925
0.4526
0.384813
0.332296
0.329193
0.326332
0.315353
0.312108
0.290935
0.246037
0.193799
0.127664
0.0744898
0.0403398
0.0222047
0.0138839
0.0123685
0.0130772
0.0152373
0.025247
0.0346444
0.0371042
0.0367933
0.034547
0.0318325
0.0320345
0.035527
0.0356337
0.0363662
0.0359328
0.0340797
0.0429996
0.136032
0.358959
0.391499
0.337463
0.36792
0.523105
0.567379
0.426593
0.282136
0.225201
0.207726
0.174463
0.153385
0.153722
0.191341
0.220222
0.232491
0.229371
0.210588
0.17969
0.161269
0.161096
0.154791
0.139254
0.116278
0.0991746
0.0747516
0.0529727
0.0466492
0.0444437
0.0443356
0.0472802
0.0648318
0.0695521
0.0766295
0.0808781
0.083887
0.082857
0.0802987
0.0707185
0.0654138
0.0655656
0.0693598
0.0756245
0.0743947
0.0844645
0.109751
0.169437
0.415473
0.412503
0.358206
0.322002
0.272229
0.187411
0.146666
0.128464
0.124308
0.120851
0.123529
0.148138
0.169419
0.172304
0.14038
0.15395
0.200812
0.256957
0.24567
0.206905
0.162771
0.13711
0.107469
0.0925226
0.093113
0.0936022
0.0939216
0.0932716
0.0878606
0.0740061
0.0524681
0.0332793
0.0189162
0.0117461
0.00987271
0.010124
0.0117191
0.0158901
0.0260944
0.0538923
0.0656581
0.0647207
0.0602679
0.0486454
0.0367605
0.031711
0.0302327
0.0298466
0.0304002
0.0294583
0.0305691
0.0524569
0.207903
0.385225
0.3847
0.320544
0.382997
0.56358
0.665169
0.518058
0.307806
0.238695
0.209703
0.190279
0.156225
0.152278
0.189394
0.214456
0.234462
0.233285
0.220726
0.197142
0.16626
0.169526
0.165348
0.142487
0.113655
0.0992415
0.0742242
0.05213
0.0442588
0.044497
0.0424316
0.0429512
0.0551419
0.0605709
0.0627238
0.0700396
0.0743982
0.0744734
0.0729417
0.0661757
0.0648607
0.0679668
0.074387
0.0844674
0.0829528
0.0942337
0.122645
0.201995
0.45677
0.40519
0.3574
0.321903
0.27929
0.177061
0.12304
0.108399
0.110688
0.11132
0.117344
0.144815
0.167397
0.168892
0.14408
0.150189
0.190621
0.0431367
0.0414621
0.0347073
0.0262219
0.0223645
0.0173027
0.015311
0.0153055
0.0159614
0.0168958
0.0166866
0.0157474
0.0130556
0.00923515
0.00643982
0.0065113
0.00738321
0.00920306
0.0138729
0.023688
0.0384708
0.0754387
0.11508
0.117043
0.112391
0.0983064
0.07301
0.04895
0.0383695
0.0332926
0.029965
0.0281983
0.0279422
0.0346536
0.0834094
0.288345
0.399488
0.365551
0.30127
0.38999
0.618987
0.763411
0.670455
0.355413
0.244467
0.209064
0.198101
0.153986
0.148234
0.191638
0.205483
0.232431
0.233828
0.230207
0.215278
0.188861
0.19183
0.179019
0.143083
0.112059
0.0985749
0.0726206
0.0514704
0.0433975
0.0444319
0.0425626
0.0410414
0.0496026
0.0508666
0.0517018
0.0603365
0.068002
0.0688876
0.0666361
0.0636178
0.0654027
0.0776165
0.0856887
0.0959945
0.0947783
0.105144
0.139775
0.240322
0.45993
0.394889
0.373179
0.342402
0.285779
0.162619
0.106659
0.0950225
0.099278
0.103489
0.110419
0.136072
0.174929
0.173847
0.148143
0.139262
0.179719
0.0026742
0.00262979
0.00247223
0.00223034
0.00211226
0.00178054
0.00157847
0.00153829
0.00156084
0.00165136
0.00166289
0.00171593
0.0018805
0.00237459
0.00359038
0.00695796
0.015239
0.0227644
0.0422042
0.0656327
0.103417
0.184636
0.208312
0.201612
0.182368
0.153607
0.109287
0.0755755
0.0574273
0.0419193
0.0351653
0.0344284
0.0371895
0.0560377
0.156983
0.352985
0.398429
0.331789
0.280808
0.386789
0.658988
0.882271
0.897005
0.466368
0.264917
0.212034
0.194731
0.149759
0.146702
0.179414
0.204118
0.222211
0.229913
0.23006
0.223091
0.207512
0.20547
0.181629
0.138727
0.108085
0.0911768
0.0705645
0.0511819
0.0437275
0.0447243
0.0441345
0.0399326
0.0455054
0.0452877
0.045144
0.051162
0.0596671
0.0611168
0.0608952
0.0616671
0.0686703
0.0911762
0.100009
0.110695
0.1111
0.118871
0.161434
0.265371
0.377462
0.402667
0.384972
0.369643
0.304209
0.152581
0.0936485
0.0827191
0.0875313
0.0963692
0.10565
0.127236
0.177301
0.194659
0.159041
0.137022
0.170118
0.000359891
0.000462674
0.000521505
0.000553313
0.000643191
0.000849187
0.000925458
0.000915767
0.000882773
0.000886683
0.000987141
0.00137706
0.00253119
0.00581253
0.0127074
0.0291967
0.0497317
0.0677984
0.11245
0.161209
0.256136
0.343415
0.347144
0.329967
0.293927
0.227084
0.157359
0.120963
0.0846862
0.0574887
0.0516998
0.0526855
0.061227
0.0999756
0.260334
0.384083
0.386441
0.290693
0.256972
0.373225
0.656101
0.999717
1.1496
0.686805
0.321074
0.227705
0.193286
0.151877
0.14516
0.16631
0.2017
0.216588
0.226991
0.219499
0.222672
0.210837
0.205886
0.172335
0.126694
0.0981045
0.0806886
0.0706905
0.0528506
0.0465136
0.0460305
0.0454987
0.0400816
0.0438774
0.0446067
0.0435547
0.045013
0.050336
0.0552648
0.0575616
0.0615012
0.0785862
0.107844
0.115427
0.121311
0.124942
0.135414
0.175708
0.266079
0.329248
0.48869
0.388095
0.373574
0.329971
0.152876
0.0852127
0.0793854
0.0820453
0.0900334
0.105467
0.128543
0.167972
0.202441
0.177496
0.140318
0.15058
0.000556136
0.000737195
0.00107704
0.00199659
0.00379644
0.00462125
0.00486564
0.00484754
0.00484716
0.00501534
0.00594083
0.00906817
0.0157479
0.031162
0.0569176
0.0919667
0.126131
0.165914
0.252923
0.363605
0.490899
0.550102
0.53811
0.495071
0.426404
0.303793
0.212998
0.159587
0.107787
0.0842063
0.0833497
0.0874162
0.105803
0.191216
0.35278
0.39334
0.357533
0.247603
0.232083
0.344524
0.611618
1.01685
1.38373
1.04942
0.420511
0.254503
0.207274
0.159532
0.14425
0.152495
0.18987
0.212867
0.22695
0.207123
0.215646
0.208531
0.199486
0.162974
0.121966
0.0930096
0.081865
0.0723204
0.0576331
0.0549367
0.0513603
0.0462258
0.0420941
0.0448544
0.0459832
0.043984
0.0439644
0.0460423
0.052278
0.0566734
0.0650981
0.0955113
0.126636
0.138168
0.14147
0.145782
0.158829
0.183591
0.260356
0.327348
0.533538
0.381353
0.36311
0.332569
0.140839
0.0768403
0.07773
0.0781293
0.0893486
0.107838
0.138313
0.153962
0.19221
0.183944
0.15013
0.144238
0.00693394
0.0105911
0.0133187
0.0196894
0.0265656
0.0280864
0.028687
0.0288585
0.0289843
0.0302052
0.0350618
0.0519278
0.0725056
0.117243
0.169847
0.218089
0.269266
0.359918
0.504867
0.659926
0.750581
0.747344
0.701639
0.64164
0.533528
0.388196
0.302136
0.226458
0.158077
0.142312
0.142843
0.148782
0.180621
0.325532
0.398732
0.386745
0.292605
0.210251
0.210588
0.306931
0.524454
0.952689
1.48038
1.52444
0.625565
0.294582
0.228104
0.185055
0.151321
0.146788
0.166897
0.201602
0.223975
0.202731
0.210806
0.204847
0.189092
0.15994
0.114964
0.0939737
0.0857534
0.0722547
0.0628102
0.0597065
0.0548276
0.0470696
0.0465701
0.0488826
0.0493055
0.0460157
0.0450362
0.0475354
0.0527418
0.0582995
0.0746992
0.117662
0.153024
0.174003
0.176964
0.177629
0.191805
0.207423
0.257768
0.358684
0.541664
0.395681
0.339009
0.317298
0.132976
0.069345
0.0747581
0.0773969
0.0898831
0.122821
0.163144
0.155882
0.173864
0.188522
0.158693
0.138139
0.074925
0.0945634
0.101703
0.116478
0.12786
0.126955
0.125238
0.125091
0.12563
0.130528
0.147506
0.190098
0.232951
0.305486
0.35957
0.417039
0.499781
0.6597
0.815305
0.879512
0.872973
0.825935
0.746473
0.688009
0.578959
0.479854
0.403514
0.29546
0.239932
0.229436
0.2266
0.236166
0.316628
0.424257
0.416826
0.335774
0.224376
0.182312
0.191925
0.273416
0.420759
0.759653
1.48672
1.91175
1.05495
0.380254
0.252513
0.219944
0.1702
0.154759
0.154236
0.174164
0.204274
0.195122
0.20465
0.194397
0.166884
0.151614
0.104159
0.0932872
0.082416
0.0743041
0.0664675
0.0647183
0.0617016
0.0512698
0.0504963
0.0557825
0.0552244
0.0505466
0.0490483
0.0506927
0.0545017
0.0627203
0.0994375
0.144461
0.195971
0.230871
0.229768
0.21298
0.210891
0.217967
0.244142
0.390637
0.536745
0.476689
0.28671
0.22804
0.141947
0.0667594
0.0754519
0.0801272
0.0913858
0.140976
0.227178
0.168956
0.168975
0.189145
0.162385
0.137443
0.367822
0.381681
0.380976
0.386732
0.388948
0.378271
0.361029
0.35639
0.356886
0.365117
0.397538
0.450815
0.502093
0.551537
0.592229
0.662856
0.816985
0.91854
0.960403
0.949208
0.908648
0.825431
0.751066
0.67234
0.595747
0.547594
0.46233
0.379012
0.360025
0.331487
0.323596
0.348907
0.463365
0.469184
0.382891
0.243897
0.175511
0.162576
0.182952
0.264862
0.35259
0.535497
1.27354
2.04056
1.81139
0.603147
0.302164
0.24864
0.219389
0.180192
0.15773
0.158229
0.170649
0.1732
0.183312
0.16543
0.144922
0.126348
0.0924368
0.0854761
0.0779764
0.078006
0.0771447
0.0783691
0.0752008
0.06048
0.0592567
0.0659565
0.0635166
0.0561666
0.0553477
0.0560336
0.0601959
0.0746937
0.14029
0.192274
0.28186
0.321434
0.309388
0.258216
0.223485
0.214804
0.239209
0.387569
0.557923
0.529076
0.25144
0.204269
0.199861
0.0752936
0.0837548
0.0966963
0.0981873
0.143751
0.256171
0.202663
0.168928
0.185094
0.169592
0.14223
0.988652
0.955347
0.883693
0.846675
0.815173
0.744357
0.70157
0.685446
0.683583
0.690258
0.715872
0.735594
0.751473
0.777328
0.833924
0.924319
0.988593
1.00661
0.995802
0.953524
0.865798
0.782639
0.710838
0.655135
0.620663
0.576108
0.508719
0.476888
0.447919
0.415358
0.421965
0.503965
0.527115
0.449807
0.258707
0.16989
0.14532
0.148175
0.186331
0.274942
0.326366
0.405636
0.81324
2.02007
2.43256
1.12184
0.411354
0.293694
0.269589
0.234511
0.188712
0.164631
0.164518
0.165905
0.17439
0.152392
0.139989
0.113677
0.0926908
0.0848437
0.0808857
0.0906274
0.105785
0.110351
0.0995841
0.0810095
0.0765346
0.0796075
0.0756148
0.0662297
0.0656865
0.0667756
0.0755721
0.111225
0.218954
0.314776
0.449732
0.45549
0.382665
0.292279
0.22391
0.198064
0.252723
0.341199
0.57732
0.539012
0.274873
0.266661
0.219578
0.0893255
0.132289
0.165037
0.13629
0.150216
0.245747
0.229251
0.183268
0.185536
0.17994
0.1629
1.81562
1.64234
1.4348
1.32114
1.21497
1.10191
1.0496
1.01031
0.976009
0.959303
0.933965
0.929212
0.938189
0.972575
1.01772
1.03428
1.03395
1.01324
0.941956
0.829074
0.750618
0.700173
0.672844
0.644222
0.615582
0.580134
0.556443
0.543745
0.526403
0.526838
0.565222
0.570384
0.503529
0.28512
0.154498
0.12151
0.120883
0.13369
0.183387
0.276225
0.303727
0.319995
0.447747
1.48593
2.61763
2.19569
0.737373
0.379658
0.317914
0.299768
0.275506
0.217214
0.185527
0.178867
0.185839
0.158565
0.161307
0.121923
0.108202
0.0992647
0.103609
0.135843
0.146408
0.139031
0.107731
0.0987067
0.101099
0.104206
0.101391
0.0894806
0.0877574
0.0922251
0.118947
0.219141
0.411956
0.62294
0.635696
0.53966
0.387183
0.28249
0.216733
0.19384
0.251754
0.331017
0.564382
0.657728
0.328563
0.270575
0.217367
0.114702
0.18265
0.204162
0.243535
0.168052
0.226126
0.270924
0.222879
0.200221
0.186865
0.184388
2.58437
2.17947
1.85625
1.65509
1.47613
1.34624
1.26486
1.19163
1.13584
1.10532
1.08532
1.07949
1.08077
1.07894
1.06975
1.04218
0.971551
0.835925
0.710874
0.642147
0.623121
0.625695
0.632502
0.626341
0.616284
0.616634
0.622354
0.619794
0.610642
0.599906
0.569674
0.486204
0.291177
0.152073
0.110162
0.10693
0.113429
0.135393
0.179148
0.228861
0.243077
0.267511
0.329514
0.701753
2.4377
3.01578
1.68271
0.652501
0.411875
0.359329
0.342732
0.320722
0.290164
0.269973
0.264668
0.231941
0.27428
0.171334
0.17324
0.169144
0.180076
0.188203
0.173093
0.142869
0.12086
0.118551
0.122168
0.122571
0.11881
0.112878
0.117806
0.15424
0.275145
0.579107
0.881743
0.851298
0.726622
0.42758
0.292436
0.23708
0.198117
0.187359
0.23977
0.325943
0.540155
0.78104
0.402835
0.276006
0.249688
0.247319
0.281647
0.202946
0.301297
0.215304
0.226286
0.282869
0.242405
0.221823
0.206268
0.203542
3.08766
2.41268
2.02087
1.75823
1.55623
1.4365
1.34923
1.28492
1.24465
1.20838
1.17553
1.14383
1.11157
1.05502
0.957682
0.820712
0.65908
0.542012
0.480665
0.461334
0.480756
0.512567
0.547858
0.572241
0.584798
0.592835
0.590985
0.574886
0.528603
0.464927
0.352891
0.238006
0.172234
0.134213
0.117671
0.117464
0.125526
0.153761
0.190889
0.217482
0.275555
0.372015
0.37614
0.450029
1.3207
3.17954
3.18675
1.71979
0.866919
0.559361
0.421615
0.365036
0.350719
0.346508
0.318287
0.312159
0.324438
0.245177
0.255184
0.241624
0.218348
0.197994
0.162809
0.147922
0.140668
0.146906
0.154565
0.164558
0.174231
0.205051
0.290445
0.559525
1.04137
1.20409
1.13633
0.850241
0.508754
0.326784
0.217554
0.194908
0.201661
0.205175
0.268873
0.348248
0.501451
0.823168
0.667404
0.414912
0.312764
0.281583
0.277871
0.217289
0.304211
0.322903
0.267328
0.29473
0.280144
0.264193
0.254864
0.259248
3.09365
2.32811
1.93593
1.6908
1.55044
1.47007
1.39929
1.33732
1.27705
1.20986
1.12965
1.03105
0.90617
0.754179
0.591036
0.440957
0.33133
0.280685
0.289514
0.328859
0.353705
0.364401
0.366074
0.368092
0.378192
0.381185
0.361388
0.322687
0.267215
0.2438
0.229345
0.217616
0.223195
0.243615
0.24095
0.245701
0.281279
0.380999
0.589248
0.964355
1.26553
1.3597
1.23889
0.814267
0.795124
1.91282
3.56223
3.3312
3.04978
2.25043
1.60601
0.9039
0.549633
0.415975
0.348006
0.327362
0.325515
0.298567
0.248992
0.256066
0.218637
0.209842
0.203199
0.229016
0.272819
0.38178
0.440583
0.59862
0.747355
1.14012
1.5494
1.81211
1.7062
1.47861
0.840902
0.61187
0.393722
0.376699
0.273109
0.272288
0.345651
0.481743
0.470608
0.424371
0.463822
0.814122
0.980501
0.872295
0.598509
0.368323
0.439356
0.373356
0.352976
0.484883
0.417205
0.422216
0.488666
0.671941
0.824067
1.07452
2.03209
1.61296
1.41766
1.3
1.21644
1.13606
1.04538
0.944685
0.838643
0.727446
0.606704
0.476215
0.342667
0.219631
0.131709
0.0906492
0.093743
0.140328
0.231977
0.364066
0.509141
0.599006
0.628951
0.564923
0.448071
0.330201
0.243742
0.199826
0.187471
0.220801
0.324468
0.476678
0.744504
0.950762
1.07283
1.32367
1.89433
3.00476
3.9687
4.18911
4.07499
3.41529
2.53532
2.01184
1.73032
1.12082
0.798863
2.39026
4.49717
5.70596
6.13869
5.77775
4.52876
2.82236
1.66653
1.04607
0.810899
0.301146
0.25632
0.214157
0.243968
0.385269
0.519958
0.80289
1.02534
1.41481
1.74349
2.31589
2.5221
2.7316
2.55401
2.27718
1.36697
1.07816
0.505921
0.540511
0.307793
0.389169
0.39021
0.639937
0.846095
1.03046
0.943858
0.92809
0.805028
0.705078
0.979706
1.42837
1.71726
0.881453
1.16926
0.525406
0.436358
0.5402
0.88188
1.53017
2.5614
4.70675
5.35182
7.56358
0.0368758
0.0454964
0.0809805
0.269585
0.197035
0.102069
0.14983
0.188114
0.137651
0.129499
0.136442
0.135965
0.139236
0.250101
0.232823
0.443491
0.605609
0.575969
0.381385
0.316731
0.313606
0.43121
0.731308
1.11874
1.02611
0.920128
1.02728
1.04167
0.780844
1.10096
2.68129
4.14856
4.78624
4.36786
2.89932
1.73224
0.985709
0.723746
0.574821
0.688661
1.11792
2.03952
3.31009
4.52205
5.02273
4.91023
4.39527
3.40277
2.31148
1.31807
0.588856
0.202567
0.088354
0.077592
0.100724
0.117128
0.115101
0.0947468
0.0815708
0.0799264
0.0966934
0.139575
0.254818
0.485083
0.678232
0.708615
0.56322
0.28661
0.274445
0.543173
0.90263
1.13383
1.257
1.38641
1.03764
0.844236
0.537842
0.395139
0.329123
0.287724
0.302086
0.378677
0.519535
0.796842
1.19502
1.60066
1.74128
1.58671
1.18977
0.883428
0.722029
0.661665
0.661406
0.689416
0.695748
0.61935
0.360041
0.148191
0.0644655
0.0199456
0.0590468
0.0622477
0.0882022
0.119525
0.206208
0.171154
0.134939
0.113121
0.0991883
0.134499
0.158826
0.182681
0.249929
0.304773
0.238835
0.367924
0.52441
0.406086
0.395427
0.420187
0.409532
0.395152
0.369029
0.409898
0.581594
0.60802
0.553343
0.719071
1.63834
2.03733
2.22624
1.93515
1.38749
0.852225
0.655961
0.664824
0.687299
0.754644
0.756012
0.772549
0.760964
0.793801
0.890735
1.04945
1.37941
1.73185
2.01131
2.00277
1.87672
1.50925
1.09192
0.78703
0.516623
0.314277
0.218216
0.174129
0.138028
0.11344
0.0872995
0.076177
0.076667
0.0822585
0.0949429
0.120874
0.158667
0.211314
0.246827
0.237761
0.294219
0.413816
0.447219
0.375163
0.311806
0.324269
0.193713
0.202234
0.186081
0.181629
0.190778
0.200822
0.221084
0.257247
0.294472
0.345364
0.419148
0.578582
0.899364
1.05804
1.01585
0.765367
0.537645
0.421034
0.3449
0.294806
0.271699
0.257063
0.208726
0.0922028
0.0407373
0.0228679
0.0669551
0.074095
0.0895711
0.0846487
0.176642
0.188087
0.091399
0.0786765
0.108555
0.159992
0.223616
0.324145
0.365834
0.476316
0.333582
0.521924
0.418019
0.360072
0.416511
0.483805
0.404765
0.325397
0.254308
0.227674
0.269315
0.266733
0.350067
1.12003
1.73575
1.4989
0.94592
0.692035
0.546058
0.497987
0.530142
0.541236
0.578516
0.642518
0.60998
0.591634
0.56564
0.564904
0.571641
0.591269
0.638639
0.732265
0.868212
0.955414
1.00127
1.05709
1.0045
0.872907
0.728412
0.583502
0.422927
0.302717
0.210356
0.146528
0.0931207
0.0697055
0.0645446
0.0673891
0.0777506
0.107333
0.157903
0.19279
0.209457
0.213902
0.246834
0.25851
0.202435
0.152362
0.137873
0.157976
0.153361
0.15807
0.169105
0.165128
0.177641
0.17864
0.191433
0.204966
0.227664
0.247438
0.258398
0.272073
0.300363
0.427541
0.631067
0.628743
0.483375
0.255342
0.144545
0.111197
0.112287
0.136596
0.130195
0.0626324
0.0315768
0.0230324
0.0721141
0.0868936
0.0794155
0.0748359
0.142008
0.191978
0.0853627
0.0802156
0.135485
0.194977
0.309988
0.391584
0.416622
0.465478
0.485489
0.528805
0.440157
0.528592
0.608019
0.635477
0.539848
0.359535
0.27428
0.205088
0.185022
0.196491
0.467039
1.39086
1.51255
0.771051
0.502805
0.428304
0.405363
0.414489
0.397151
0.372941
0.39845
0.434812
0.43333
0.419126
0.381177
0.365642
0.366881
0.380712
0.424158
0.507237
0.612374
0.70553
0.745459
0.754533
0.765087
0.767959
0.720564
0.63202
0.529977
0.434842
0.311908
0.216027
0.133758
0.0841526
0.0667036
0.0697492
0.0892447
0.138636
0.179795
0.199294
0.205544
0.203527
0.202842
0.196238
0.149406
0.130862
0.133718
0.147175
0.153096
0.141879
0.155366
0.158266
0.175851
0.176886
0.185034
0.187216
0.201561
0.222209
0.22893
0.231072
0.235838
0.248868
0.324418
0.46105
0.447885
0.304488
0.148601
0.1002
0.101137
0.108025
0.0908497
0.0476337
0.0292284
0.0231053
0.0764416
0.0929053
0.0764443
0.0716198
0.115403
0.191185
0.0878688
0.0933408
0.162725
0.229626
0.333592
0.403878
0.430764
0.492318
0.575964
0.588643
0.641657
0.627793
0.612458
0.605027
0.584671
0.379523
0.319108
0.243401
0.193015
0.22234
0.714212
1.39352
0.946544
0.468919
0.362101
0.349578
0.357702
0.35238
0.312857
0.302099
0.323206
0.347334
0.34537
0.33439
0.303326
0.27844
0.268429
0.269426
0.278657
0.305289
0.375783
0.536994
0.654688
0.680858
0.673957
0.636012
0.625033
0.593653
0.524109
0.449405
0.381492
0.298399
0.212848
0.130486
0.0887887
0.0880079
0.10853
0.147143
0.158696
0.181973
0.198213
0.194484
0.187204
0.167649
0.133594
0.123666
0.12728
0.130664
0.120117
0.113593
0.121058
0.131745
0.141047
0.159067
0.164094
0.160701
0.164116
0.179076
0.19307
0.203563
0.214085
0.22026
0.235496
0.309896
0.384936
0.357797
0.217137
0.120119
0.109113
0.109962
0.0874428
0.0502946
0.0315243
0.0244857
0.0825386
0.0956592
0.0755553
0.0679788
0.0994428
0.186316
0.0947745
0.111756
0.185637
0.262152
0.355423
0.392504
0.407079
0.474949
0.554221
0.594351
0.659455
0.540681
0.464464
0.448604
0.550868
0.399389
0.34585
0.291069
0.233896
0.288821
0.903378
1.28702
0.572232
0.332993
0.293772
0.292942
0.31983
0.311892
0.275546
0.269919
0.279023
0.255967
0.24606
0.24284
0.231691
0.221973
0.216811
0.213992
0.215337
0.223422
0.248999
0.31317
0.497461
0.622634
0.638355
0.619042
0.556175
0.500637
0.456478
0.413991
0.369164
0.324616
0.272639
0.190048
0.123186
0.108728
0.120126
0.147593
0.147462
0.153791
0.173627
0.169779
0.156924
0.14065
0.119568
0.1083
0.103396
0.11534
0.105352
0.101918
0.111329
0.119189
0.123271
0.127463
0.139988
0.143658
0.14812
0.15946
0.169125
0.172891
0.182227
0.199072
0.207595
0.231195
0.32121
0.341483
0.293208
0.164411
0.11674
0.112337
0.0929969
0.0674082
0.0423924
0.0293356
0.0877186
0.0993095
0.0760865
0.0671241
0.0896798
0.175179
0.102859
0.126662
0.218096
0.299535
0.336337
0.340239
0.337781
0.39484
0.427182
0.50119
0.530794
0.425768
0.360219
0.392813
0.453734
0.449416
0.359803
0.337051
0.298624
0.401078
0.984145
1.03004
0.387731
0.261058
0.248405
0.257923
0.292136
0.27162
0.251996
0.237184
0.230673
0.203631
0.200321
0.203032
0.200939
0.199272
0.197699
0.194776
0.189285
0.189049
0.195008
0.218581
0.288726
0.49653
0.599118
0.601606
0.560587
0.480244
0.399922
0.3412
0.310978
0.294408
0.273223
0.236612
0.16605
0.131703
0.132723
0.14689
0.141098
0.151987
0.1534
0.144266
0.135501
0.122337
0.104032
0.0962048
0.0981273
0.107631
0.104268
0.0937095
0.107488
0.115109
0.119756
0.113145
0.108224
0.113627
0.125545
0.143416
0.157342
0.160814
0.162884
0.172285
0.182701
0.197501
0.257575
0.322492
0.313007
0.213347
0.128557
0.110336
0.0916443
0.0734288
0.059537
0.0401589
0.0930147
0.10524
0.0814023
0.0694842
0.0810365
0.168889
0.111243
0.141546
0.240896
0.28503
0.292447
0.287105
0.294322
0.326574
0.35362
0.379999
0.385024
0.336282
0.30612
0.370205
0.429066
0.451956
0.37046
0.379482
0.375555
0.542625
0.990915
0.771889
0.292984
0.21215
0.207927
0.212232
0.28941
0.229686
0.227162
0.194391
0.184353
0.174585
0.178141
0.185259
0.190354
0.19424
0.194376
0.192591
0.187459
0.178028
0.176582
0.18153
0.206654
0.294095
0.50867
0.576285
0.563435
0.494683
0.403109
0.317717
0.265454
0.244183
0.242333
0.234388
0.20365
0.15882
0.146363
0.147091
0.133744
0.140887
0.13722
0.123942
0.117515
0.103245
0.0915301
0.0918023
0.106077
0.0970069
0.104221
0.103007
0.104683
0.118088
0.117941
0.106843
0.100035
0.0964574
0.0971757
0.114988
0.13864
0.149866
0.152294
0.158434
0.16982
0.179101
0.205357
0.291743
0.309072
0.273756
0.156368
0.109267
0.083761
0.073418
0.0665636
0.0483104
0.0989296
0.110692
0.0883328
0.0754264
0.0760273
0.162077
0.113519
0.154655
0.249536
0.280775
0.282108
0.282545
0.312923
0.356221
0.378917
0.384018
0.357533
0.299459
0.280522
0.341067
0.426274
0.448784
0.40788
0.420041
0.451762
0.649673
0.968698
0.550544
0.241211
0.171157
0.181249
0.183657
0.2529
0.21194
0.193313
0.165202
0.163897
0.159851
0.16603
0.179128
0.189256
0.199889
0.207622
0.207491
0.203153
0.194348
0.175603
0.168718
0.172991
0.203126
0.333398
0.514419
0.54669
0.519751
0.424387
0.325396
0.254595
0.214925
0.207524
0.211378
0.20599
0.186338
0.162392
0.155617
0.137619
0.131554
0.125474
0.109165
0.101398
0.0952566
0.0919099
0.0936642
0.106124
0.108429
0.101379
0.147579
0.106727
0.12702
0.111859
0.10079
0.0979197
0.0890865
0.0832334
0.0903342
0.124122
0.14312
0.148793
0.150148
0.155088
0.162257
0.17673
0.242156
0.292141
0.276036
0.200456
0.119003
0.0766169
0.0680835
0.0671243
0.0669172
0.102834
0.115081
0.0977239
0.0813659
0.076169
0.149933
0.112018
0.151785
0.255063
0.285695
0.291281
0.317637
0.434159
0.489888
0.508924
0.457156
0.35144
0.292785
0.275004
0.299512
0.426512
0.493915
0.468797
0.452734
0.522911
0.694104
0.87047
0.392686
0.209118
0.15486
0.173462
0.174928
0.199901
0.186057
0.166202
0.153501
0.153286
0.15062
0.161286
0.179126
0.205726
0.222752
0.224181
0.225997
0.226989
0.225126
0.213395
0.180878
0.16646
0.170865
0.213397
0.383161
0.506763
0.508937
0.465726
0.349089
0.264278
0.206339
0.183748
0.185105
0.1938
0.195535
0.182202
0.166761
0.149644
0.133801
0.119949
0.1014
0.0959129
0.0944825
0.115226
0.122741
0.0902415
0.170954
0.0971938
0.154621
0.103079
0.120242
0.103224
0.0939168
0.0927969
0.0831056
0.076729
0.0828059
0.119671
0.14241
0.14866
0.14829
0.150512
0.157333
0.166334
0.20811
0.280349
0.272125
0.206873
0.137433
0.0785343
0.0618818
0.0636749
0.0749716
0.107252
0.121487
0.110498
0.0906747
0.0787796
0.139574
0.107804
0.138628
0.251239
0.306816
0.328362
0.391783
0.472134
0.492489
0.492967
0.45037
0.33909
0.296068
0.292995