/*--------------------------------*- C++ -*----------------------------------*\
| =========                 |                                                 |
| \\      /  F ield         | OpenFOAM: The Open Source CFD Toolbox           |
|  \\    /   O peration     | Version:  2.4.0                                 |
|   \\  /    A nd           | Web:      www.OpenFOAM.org                      |
|    \\/     M anipulation  |                                                 |
\*---------------------------------------------------------------------------*/
FoamFile
{
    version     2.0;
    format      ascii;
    class       surfaceScalarField;
    location    "0.185";
    object      phi;
}
// * * * * * * * * * * * * * * * * * * * * * * * * * * * * * * * * * * * * * //

dimensions      [0 3 -1 0 0 0 0];

internalField   nonuniform List<scalar> 
8640
(
1.1466e-05
1.3534e-05
7.17539e-06
4.29062e-06
5.9216e-06
1.25379e-06
5.36705e-06
5.54557e-07
5.09829e-06
2.68752e-07
4.94963e-06
1.48666e-07
4.8368e-06
1.12823e-07
4.79535e-06
4.14553e-08
4.58858e-06
2.06766e-07
-1.40842e-06
5.997e-06
2.10476e-05
1.74864e-05
1.74557e-05
7.88248e-06
1.55221e-05
3.18741e-06
1.425e-05
1.82665e-06
1.34984e-05
1.02034e-06
1.30392e-05
6.07944e-07
1.27171e-05
4.34925e-07
1.25694e-05
1.89113e-07
1.23384e-05
4.37748e-07
-1.81777e-06
1.27478e-05
2.56935e-05
1.67929e-05
2.41087e-05
9.46728e-06
2.2625e-05
4.67107e-06
2.12288e-05
3.22289e-06
2.02444e-05
2.00474e-06
1.95784e-05
1.27392e-06
1.90965e-05
9.16821e-07
1.88756e-05
4.09953e-07
1.86718e-05
6.41613e-07
-1.83409e-06
1.86881e-05
2.74497e-05
1.43432e-05
2.7736e-05
9.18096e-06
2.7391e-05
5.01608e-06
2.65153e-05
4.09867e-06
2.5686e-05
2.83396e-06
2.50112e-05
1.94878e-06
2.44723e-05
1.45575e-06
2.42115e-05
6.70669e-07
2.41318e-05
7.21337e-07
-1.64454e-06
2.39423e-05
2.76407e-05
1.17025e-05
2.88882e-05
7.93343e-06
2.96349e-05
4.26935e-06
2.96666e-05
4.06704e-06
2.94335e-05
3.06703e-06
2.90473e-05
2.33502e-06
2.86498e-05
1.85319e-06
2.84377e-05
8.82757e-07
2.85547e-05
6.04359e-07
-1.29232e-06
2.82025e-05
2.74907e-05
9.21178e-06
2.88872e-05
6.537e-06
3.00101e-05
3.14643e-06
3.06606e-05
3.4165e-06
3.11541e-05
2.57352e-06
3.12781e-05
2.21107e-06
3.12653e-05
1.86599e-06
3.12989e-05
8.49137e-07
3.16223e-05
2.8098e-07
-2.35416e-07
3.05654e-05
2.73948e-05
6.81696e-06
2.88564e-05
5.07545e-06
2.98904e-05
2.1124e-06
3.06018e-05
2.70506e-06
3.14014e-05
1.77393e-06
3.18456e-05
1.76687e-06
3.22268e-05
1.48479e-06
3.26316e-05
4.44364e-07
3.29943e-05
-8.177e-08
1.1005e-06
3.16584e-05
2.73252e-05
4.49173e-06
2.90256e-05
3.37512e-06
2.97754e-05
1.36258e-06
3.046e-05
2.02047e-06
3.12453e-05
9.88589e-07
3.17863e-05
1.22583e-06
3.23715e-05
8.99613e-07
3.28902e-05
-7.43342e-08
3.31355e-05
-3.27015e-07
3.05911e-07
3.393e-05
2.72746e-05
2.21711e-06
2.89399e-05
1.70985e-06
2.96396e-05
6.62837e-07
3.04938e-05
1.1663e-06
3.12264e-05
2.55979e-07
3.17896e-05
6.62601e-07
3.23384e-05
3.50905e-07
3.27156e-05
-4.51551e-07
3.30812e-05
-6.9262e-07
-7.9647e-07
3.41836e-05
2.72137e-05
3.44745e-09
2.88542e-05
6.92813e-08
2.96556e-05
-1.38535e-07
3.05319e-05
2.89973e-07
3.11811e-05
-3.93214e-07
3.17458e-05
9.79237e-08
3.22652e-05
-1.68446e-07
3.27262e-05
-9.12573e-07
3.32561e-05
-1.22256e-06
-1.72598e-06
3.41856e-05
2.7209e-05
-2.20558e-06
2.89224e-05
-1.6441e-06
2.96598e-05
-8.75921e-07
3.04579e-05
-5.08128e-07
3.11349e-05
-1.07027e-06
3.1778e-05
-5.45087e-07
3.23257e-05
-7.16221e-07
3.2816e-05
-1.40284e-06
3.32479e-05
-1.65448e-06
-2.13518e-06
3.36571e-05
2.72698e-05
-4.47541e-06
2.89451e-05
-3.31941e-06
2.96255e-05
-1.55631e-06
3.04937e-05
-1.37624e-06
3.12421e-05
-1.81875e-06
3.18584e-05
-1.16134e-06
3.23615e-05
-1.2193e-06
3.27867e-05
-1.8281e-06
3.31032e-05
-1.971e-06
-2.45628e-06
3.34243e-05
2.73144e-05
-6.78984e-06
2.89437e-05
-4.94869e-06
2.97359e-05
-2.34856e-06
3.06415e-05
-2.28176e-06
3.13214e-05
-2.49872e-06
3.18735e-05
-1.71337e-06
3.23721e-05
-1.71792e-06
3.27327e-05
-2.1887e-06
3.30234e-05
-2.26169e-06
-3.06807e-06
3.36352e-05
2.73737e-05
-9.16353e-06
2.8877e-05
-6.45197e-06
2.98976e-05
-3.36921e-06
3.07622e-05
-3.14637e-06
3.1372e-05
-3.10853e-06
3.1867e-05
-2.20834e-06
3.22551e-05
-2.10602e-06
3.24049e-05
-2.33843e-06
3.2598e-05
-2.45481e-06
-3.54528e-06
3.30752e-05
2.74901e-05
-1.16536e-05
2.89537e-05
-7.91557e-06
3.00197e-05
-4.43523e-06
3.07546e-05
-3.8813e-06
3.10777e-05
-3.43159e-06
3.12379e-05
-2.36854e-06
3.12398e-05
-2.10792e-06
3.10236e-05
-2.12221e-06
3.09032e-05
-2.33448e-06
-3.54181e-06
3.08998e-05
2.7658e-05
-1.43116e-05
2.89271e-05
-9.1847e-06
2.9613e-05
-5.12112e-06
2.97115e-05
-3.97985e-06
2.93564e-05
-3.07642e-06
2.89877e-05
-1.99992e-06
2.8572e-05
-1.69214e-06
2.808e-05
-1.6303e-06
2.76873e-05
-1.94174e-06
-2.46551e-06
2.6611e-05
2.74647e-05
-1.67763e-05
2.7753e-05
-9.47297e-06
2.73661e-05
-4.73423e-06
2.65384e-05
-3.15223e-06
2.56151e-05
-2.15304e-06
2.49436e-05
-1.32842e-06
2.43499e-05
-1.09848e-06
2.37903e-05
-1.07066e-06
2.32517e-05
-1.40318e-06
-1.58922e-06
2.23754e-05
2.57046e-05
-1.74809e-05
2.41147e-05
-7.88303e-06
2.26017e-05
-3.2213e-06
2.12398e-05
-1.79031e-06
2.01835e-05
-1.09674e-06
1.95079e-05
-6.5279e-07
1.8947e-05
-5.37623e-07
1.84433e-05
-5.669e-07
1.78358e-05
-7.95712e-07
-7.62293e-07
1.70089e-05
2.10529e-05
-1.35337e-05
1.74583e-05
-4.28848e-06
1.55035e-05
-1.26645e-06
1.42556e-05
-5.42449e-07
1.34519e-05
-2.93043e-07
1.29715e-05
-1.72333e-07
1.25767e-05
-1.4289e-07
1.21917e-05
-1.81851e-07
1.1665e-05
-2.69041e-07
-2.25226e-07
1.11279e-05
1.14663e-05
7.17777e-06
5.91133e-06
5.36888e-06
5.07583e-06
4.9035e-06
4.76061e-06
4.57876e-06
4.30972e-06
4.08449e-06
7.1704e-06
5.34071e-07
-1.70747e-06
8.0031e-06
1.41439e-07
-9.7414e-07
8.49214e-06
-1.36459e-06
8.75543e-07
8.59589e-06
-2.43346e-06
2.32971e-06
8.33725e-06
-3.13893e-06
3.39757e-06
8.99575e-06
-6.38751e-08
-5.94629e-07
9.93461e-06
-5.41481e-07
-3.97379e-07
1.07736e-05
6.23488e-08
-9.01321e-07
1.18271e-05
1.29134e-06
-2.3449e-06
1.36883e-05
1.51897e-06
-3.38012e-06
1.53407e-05
2.47389e-06
-4.12628e-06
1.70766e-05
1.71846e-06
-3.45437e-06
1.80994e-05
-1.76142e-06
7.38584e-07
1.89655e-05
-2.57966e-06
1.71353e-06
2.04747e-05
-5.63797e-06
4.12878e-06
2.1388e-05
-9.89815e-06
8.98489e-06
2.33196e-05
-1.09167e-05
8.98506e-06
2.558e-05
-1.35066e-05
1.12461e-05
2.68813e-05
-1.78026e-05
1.65013e-05
2.79008e-05
-2.05869e-05
1.95674e-05
2.78468e-05
-2.35743e-05
2.36283e-05
2.63152e-05
-2.44575e-05
2.5989e-05
2.45809e-05
-1.72339e-05
1.89683e-05
2.3491e-05
-1.03903e-05
1.14803e-05
2.27859e-05
-6.68881e-06
7.39388e-06
2.34053e-05
4.79616e-06
-5.41561e-06
2.52599e-05
1.15614e-05
-1.34159e-05
2.6714e-05
1.14413e-05
-1.28954e-05
2.76862e-05
1.0461e-05
-1.14332e-05
2.81585e-05
5.22804e-06
-5.70031e-06
2.7789e-05
-2.05973e-06
2.4292e-06
2.73913e-05
-7.9805e-06
8.37814e-06
2.70163e-05
-1.30933e-05
1.34684e-05
2.61901e-05
-1.72713e-05
1.80976e-05
2.52911e-05
-2.34058e-05
2.43048e-05
2.36185e-05
-3.1227e-05
3.28996e-05
2.06242e-05
-3.45472e-05
3.75414e-05
1.68926e-05
-3.24241e-05
3.61557e-05
1.3282e-05
-2.90508e-05
3.26614e-05
1.02384e-05
-2.82829e-05
3.13264e-05
8.9512e-06
-3.11842e-05
3.24715e-05
9.51472e-06
-3.87528e-05
3.81893e-05
1.11627e-05
-4.31674e-05
4.15194e-05
1.27407e-05
-3.84928e-05
3.69148e-05
1.49156e-05
-3.07026e-05
2.85277e-05
1.66867e-05
-1.85295e-05
1.67585e-05
1.67419e-05
-1.04922e-05
1.04369e-05
1.70664e-05
-8.51344e-06
8.18903e-06
1.82626e-05
-4.9806e-06
3.78434e-06
1.9841e-05
1.46881e-06
-3.04721e-06
2.14916e-05
1.09905e-05
-1.26411e-05
2.32374e-05
2.2364e-05
-2.41098e-05
2.53227e-05
3.25847e-05
-3.46701e-05
2.68269e-05
4.13866e-05
-4.28908e-05
2.74904e-05
4.58894e-05
-4.65529e-05
2.75589e-05
4.58935e-05
-4.5962e-05
2.68924e-05
4.10961e-05
-4.04296e-05
2.59061e-05
3.34442e-05
-3.24579e-05
2.4984e-05
2.64738e-05
-2.55518e-05
2.32975e-05
2.1987e-05
-2.03004e-05
2.16562e-05
1.60034e-05
-1.43622e-05
2.03271e-05
1.31361e-05
-1.18069e-05
2.08097e-05
1.16162e-05
-1.20987e-05
2.00486e-05
1.72906e-05
-1.65296e-05
1.90105e-05
1.50195e-05
-1.39814e-05
1.84125e-05
1.76464e-05
-1.70484e-05
1.87025e-05
1.38487e-05
-1.41387e-05
1.98182e-05
2.13187e-05
-2.24345e-05
2.15561e-05
1.13416e-05
-1.30795e-05
2.33165e-05
1.48248e-05
-1.65851e-05
2.33898e-05
7.82299e-06
-7.89634e-06
2.36537e-05
4.85051e-06
-5.11436e-06
2.25351e-05
-5.43978e-06
6.55833e-06
2.12761e-05
-7.94886e-06
9.20783e-06
2.02941e-05
-1.21446e-05
1.31266e-05
1.98383e-05
-1.76038e-05
1.80597e-05
1.87286e-05
-2.45188e-05
2.56285e-05
1.95357e-05
-1.95108e-05
1.87037e-05
1.95003e-05
-2.68717e-05
2.69071e-05
1.94508e-05
-1.80293e-05
1.80788e-05
1.99571e-05
-2.29847e-05
2.24785e-05
2.00097e-05
-2.07692e-05
2.07166e-05
1.86084e-05
-1.57744e-05
1.71757e-05
1.74798e-05
-1.75065e-05
1.86351e-05
1.98957e-05
-3.65979e-05
3.41821e-05
2.12352e-05
-3.14924e-05
3.01529e-05
2.09586e-05
-2.30466e-05
2.33232e-05
2.0684e-05
-1.93658e-05
1.96404e-05
2.16357e-05
-9.85171e-06
8.89997e-06
2.20569e-05
1.68665e-06
-2.10786e-06
2.16201e-05
8.2772e-06
-7.84034e-06
2.12394e-05
1.98023e-05
-1.94217e-05
2.08405e-05
3.63147e-05
-3.59158e-05
1.9682e-05
4.76408e-05
-4.64824e-05
1.75702e-05
4.83364e-05
-4.62246e-05
1.52985e-05
4.51051e-05
-4.28333e-05
1.45358e-05
4.22601e-05
-4.14974e-05
1.20411e-05
4.56285e-05
-4.31338e-05
1.23645e-05
4.17679e-05
-4.20913e-05
6.47932e-05
-6.34783e-05
1.10495e-05
1.33768e-05
-9.49386e-08
1.37513e-05
-2.33106e-07
1.40362e-05
-1.64942e-06
1.40889e-05
-2.48615e-06
1.4137e-05
-3.18706e-06
1.48316e-05
-7.58485e-07
1.53139e-05
-1.02384e-06
1.57797e-05
-4.03398e-07
1.6413e-05
6.58014e-07
1.76349e-05
2.97097e-07
1.87215e-05
1.38734e-06
2.05068e-05
-6.68921e-08
2.15879e-05
-2.84251e-06
2.25581e-05
-3.54983e-06
2.45957e-05
-7.67559e-06
2.57529e-05
-1.10554e-05
2.71305e-05
-1.22943e-05
2.92244e-05
-1.56005e-05
3.00572e-05
-1.86354e-05
3.05243e-05
-2.1054e-05
3.02181e-05
-2.3268e-05
2.81266e-05
-2.2366e-05
2.63917e-05
-1.54991e-05
2.56177e-05
-9.61631e-06
2.49178e-05
-5.98886e-06
2.54846e-05
4.22939e-06
2.69037e-05
1.01422e-05
2.79962e-05
1.03488e-05
2.88257e-05
9.63156e-06
2.91716e-05
4.88211e-06
2.86724e-05
-1.56055e-06
2.80822e-05
-7.39026e-06
2.73376e-05
-1.23488e-05
2.62561e-05
-1.61898e-05
2.51639e-05
-2.23136e-05
2.31526e-05
-2.92158e-05
1.97878e-05
-3.11824e-05
1.56323e-05
-2.82686e-05
1.1682e-05
-2.51005e-05
8.3745e-06
-2.49753e-05
6.81671e-06
-2.96264e-05
7.17609e-06
-3.91122e-05
9.01782e-06
-4.50091e-05
1.10122e-05
-4.04872e-05
1.26692e-05
-3.23596e-05
1.4406e-05
-2.02664e-05
1.47905e-05
-1.08766e-05
1.52798e-05
-9.00275e-06
1.64774e-05
-6.17821e-06
1.78493e-05
9.68388e-08
1.92202e-05
9.61966e-06
2.06728e-05
2.09114e-05
2.26054e-05
3.06522e-05
2.42216e-05
3.97704e-05
2.54666e-05
4.46444e-05
2.60662e-05
4.52939e-05
2.56964e-05
4.14659e-05
2.50047e-05
3.41359e-05
2.45787e-05
2.68998e-05
2.32197e-05
2.33459e-05
2.17055e-05
1.75177e-05
2.02789e-05
1.45627e-05
2.08858e-05
1.10092e-05
2.09217e-05
1.72548e-05
1.98734e-05
1.60678e-05
1.94081e-05
1.81117e-05
1.93041e-05
1.39527e-05
2.01504e-05
2.04724e-05
2.17029e-05
9.78913e-06
2.38921e-05
1.26355e-05
2.39153e-05
7.79986e-06
2.43534e-05
4.41238e-06
2.28397e-05
-3.92613e-06
2.15739e-05
-6.68299e-06
2.05283e-05
-1.1099e-05
2.0448e-05
-1.75235e-05
1.97251e-05
-2.37959e-05
1.99516e-05
-1.97372e-05
1.97985e-05
-2.67186e-05
1.95603e-05
-1.77911e-05
1.97317e-05
-2.31561e-05
1.93999e-05
-2.04374e-05
1.8508e-05
-1.48825e-05
1.74599e-05
-1.64584e-05
1.90553e-05
-3.81934e-05
2.03191e-05
-3.27561e-05
2.02085e-05
-2.29361e-05
1.97928e-05
-1.89501e-05
2.07317e-05
-1.07906e-05
2.14509e-05
9.67451e-07
2.10349e-05
8.69316e-06
2.06481e-05
2.01892e-05
2.01421e-05
3.68206e-05
1.95621e-05
4.82209e-05
1.82476e-05
4.96509e-05
1.59696e-05
4.7383e-05
1.55157e-05
4.2714e-05
1.32014e-05
4.79428e-05
1.62966e-05
3.86727e-05
6.48187e-05
1.62712e-05
1.90595e-05
-4.66357e-07
1.92703e-05
-4.43895e-07
1.95212e-05
-1.90032e-06
1.95883e-05
-2.55328e-06
1.97065e-05
-3.30525e-06
2.04538e-05
-1.50578e-06
2.08647e-05
-1.43471e-06
2.10171e-05
-5.55843e-07
2.15938e-05
8.13517e-08
2.26443e-05
-7.53402e-07
2.33194e-05
7.12213e-07
2.47138e-05
-1.46131e-06
2.59813e-05
-4.11001e-06
2.7021e-05
-4.5895e-06
2.84289e-05
-9.08349e-06
2.95919e-05
-1.22184e-05
3.0678e-05
-1.33804e-05
3.20049e-05
-1.69274e-05
3.23814e-05
-1.90119e-05
3.2215e-05
-2.08876e-05
3.12995e-05
-2.23525e-05
2.88135e-05
-1.988e-05
2.75648e-05
-1.42504e-05
2.74404e-05
-9.49191e-06
2.64291e-05
-4.97758e-06
2.66753e-05
3.98312e-06
2.79386e-05
8.87893e-06
2.87442e-05
9.54317e-06
2.94119e-05
8.96393e-06
2.96751e-05
4.61885e-06
2.91268e-05
-1.0122e-06
2.84869e-05
-6.75037e-06
2.74748e-05
-1.13367e-05
2.62115e-05
-1.49265e-05
2.49024e-05
-2.10045e-05
2.25524e-05
-2.68658e-05
1.88553e-05
-2.74853e-05
1.44073e-05
-2.38205e-05
1.01381e-05
-2.08314e-05
6.507e-06
-2.13442e-05
4.68962e-06
-2.78091e-05
4.76012e-06
-3.91827e-05
6.36538e-06
-4.66144e-05
8.60807e-06
-4.27299e-05
9.86518e-06
-3.36167e-05
1.15055e-05
-2.19067e-05
1.23102e-05
-1.16812e-05
1.2843e-05
-9.53559e-06
1.40229e-05
-7.35816e-06
1.54223e-05
-1.30253e-06
1.67281e-05
8.31385e-06
1.81755e-05
1.9464e-05
1.99221e-05
2.89056e-05
2.14927e-05
3.81998e-05
2.30341e-05
4.3103e-05
2.41321e-05
4.41958e-05
2.42528e-05
4.13452e-05
2.38118e-05
3.4577e-05
2.37804e-05
2.69312e-05
2.28342e-05
2.42922e-05
2.16078e-05
1.8744e-05
2.03233e-05
1.58473e-05
2.06958e-05
1.06366e-05
2.14711e-05
1.64796e-05
2.08348e-05
1.67041e-05
2.05369e-05
1.84096e-05
2.02057e-05
1.42839e-05
2.04726e-05
2.02055e-05
2.1509e-05
8.75277e-06
2.40659e-05
1.00786e-05
2.39903e-05
7.87542e-06
2.44097e-05
3.99295e-06
2.30074e-05
-2.52378e-06
2.2115e-05
-5.79065e-06
2.11067e-05
-1.00906e-05
2.08766e-05
-1.72935e-05
2.01422e-05
-2.30614e-05
2.03437e-05
-1.99387e-05
2.03144e-05
-2.66894e-05
2.00747e-05
-1.75513e-05
1.97041e-05
-2.27855e-05
1.86179e-05
-1.93512e-05
1.83175e-05
-1.45821e-05
1.77357e-05
-1.58766e-05
1.81806e-05
-3.86383e-05
1.91739e-05
-3.37494e-05
1.96227e-05
-2.33849e-05
1.90978e-05
-1.84252e-05
1.96345e-05
-1.13273e-05
2.05875e-05
1.45072e-08
2.02051e-05
9.07553e-06
1.96508e-05
2.07434e-05
1.90928e-05
3.73787e-05
1.85903e-05
4.87233e-05
1.79932e-05
5.0248e-05
1.61348e-05
4.92414e-05
1.67205e-05
4.21284e-05
1.49433e-05
4.97201e-05
1.95331e-05
3.40828e-05
6.39903e-05
2.03616e-05
2.39308e-05
-4.54941e-07
2.3935e-05
-4.48089e-07
2.41555e-05
-2.12081e-06
2.43014e-05
-2.69916e-06
2.44087e-05
-3.41256e-06
2.51697e-05
-2.26674e-06
2.576e-05
-2.02505e-06
2.59332e-05
-7.29051e-07
2.64116e-05
-3.97027e-07
2.70771e-05
-1.4189e-06
2.78684e-05
-7.90889e-08
2.8923e-05
-2.51587e-06
2.98013e-05
-4.98832e-06
3.09598e-05
-5.74802e-06
3.18447e-05
-9.96838e-06
3.25287e-05
-1.29024e-05
3.33907e-05
-1.42424e-05
3.38192e-05
-1.73558e-05
3.37603e-05
-1.8953e-05
3.33635e-05
-2.04908e-05
3.18259e-05
-2.08149e-05
2.91898e-05
-1.7244e-05
2.83032e-05
-1.33638e-05
2.83824e-05
-9.57109e-06
2.70442e-05
-3.63937e-06
2.69593e-05
4.06804e-06
2.80504e-05
7.78778e-06
2.86927e-05
8.90094e-06
2.94475e-05
8.20906e-06
2.9644e-05
4.42241e-06
2.91743e-05
-5.42493e-07
2.86399e-05
-6.21604e-06
2.73526e-05
-1.00493e-05
2.5802e-05
-1.33758e-05
2.43161e-05
-1.95186e-05
2.17627e-05
-2.43125e-05
1.77766e-05
-2.34991e-05
1.31772e-05
-1.92212e-05
8.6888e-06
-1.6343e-05
4.9118e-06
-1.75672e-05
2.61005e-06
-2.55073e-05
1.84896e-06
-3.84216e-05
2.9262e-06
-4.76916e-05
5.31563e-06
-4.51193e-05
6.54772e-06
-3.48488e-05
8.24653e-06
-2.36055e-05
9.47865e-06
-1.29133e-05
9.85445e-06
-9.91138e-06
1.10006e-05
-8.50435e-06
1.25707e-05
-2.87255e-06
1.39516e-05
6.93289e-06
1.55041e-05
1.79116e-05
1.71217e-05
2.72879e-05
1.87631e-05
3.65584e-05
2.04374e-05
4.14287e-05
2.16138e-05
4.30194e-05
2.24124e-05
4.05467e-05
2.26669e-05
3.43225e-05
2.29052e-05
2.66928e-05
2.22803e-05
2.49171e-05
2.12042e-05
1.98201e-05
2.02295e-05
1.68221e-05
2.03354e-05
1.05306e-05
2.16177e-05
1.51973e-05
2.15495e-05
1.67723e-05
2.14161e-05
1.8543e-05
2.11951e-05
1.45049e-05
2.09528e-05
2.04478e-05
2.11982e-05
8.50742e-06
2.39112e-05
7.36562e-06
2.40318e-05
7.75479e-06
2.42568e-05
3.76794e-06
2.32274e-05
-1.49434e-06
2.24855e-05
-5.04881e-06
2.17768e-05
-9.38185e-06
2.16253e-05
-1.71419e-05
2.1099e-05
-2.25352e-05
2.10041e-05
-1.98439e-05
2.00276e-05
-2.57129e-05
1.99718e-05
-1.74955e-05
1.92272e-05
-2.2041e-05
1.7615e-05
-1.77391e-05
1.79486e-05
-1.49157e-05
1.78202e-05
-1.57482e-05
1.72767e-05
-3.80947e-05
1.8295e-05
-3.47677e-05
1.88075e-05
-2.38974e-05
1.80188e-05
-1.76364e-05
1.84701e-05
-1.17786e-05
1.91929e-05
-7.08282e-07
1.91612e-05
9.10724e-06
1.8661e-05
2.12436e-05
1.86184e-05
3.74213e-05
1.80213e-05
4.93205e-05
1.74741e-05
5.07951e-05
1.5515e-05
5.12005e-05
1.72432e-05
4.04002e-05
1.66846e-05
5.02786e-05
2.19863e-05
2.87811e-05
6.23783e-05
2.35982e-05
2.78855e-05
-1.37973e-07
2.78413e-05
-4.03868e-07
2.80746e-05
-2.35413e-06
2.82803e-05
-2.90487e-06
2.81926e-05
-3.32484e-06
2.88403e-05
-2.91437e-06
2.9395e-05
-2.57976e-06
2.96988e-05
-1.03284e-06
3.03503e-05
-1.04857e-06
3.07145e-05
-1.78305e-06
3.15139e-05
-8.785e-07
3.22279e-05
-3.22985e-06
3.27712e-05
-5.53163e-06
3.38352e-05
-6.81202e-06
3.41388e-05
-1.0272e-05
3.43011e-05
-1.30647e-05
3.48733e-05
-1.48145e-05
3.47341e-05
-1.72166e-05
3.4283e-05
-1.85019e-05
3.34266e-05
-1.96344e-05
3.16441e-05
-1.90324e-05
2.99234e-05
-1.55233e-05
2.95536e-05
-1.2994e-05
2.8885e-05
-8.90254e-06
2.71144e-05
-1.86874e-06
2.7048e-05
4.13447e-06
2.76634e-05
7.17237e-06
2.80768e-05
8.48753e-06
2.88845e-05
7.4014e-06
2.89897e-05
4.31715e-06
2.8785e-05
-3.37788e-07
2.81526e-05
-5.58359e-06
2.64993e-05
-8.39605e-06
2.5044e-05
-1.19205e-05
2.36818e-05
-1.81564e-05
2.09868e-05
-2.16176e-05
1.67526e-05
-1.92648e-05
1.19989e-05
-1.44676e-05
7.39742e-06
-1.17414e-05
3.47627e-06
-1.36461e-05
6.69653e-07
-2.27007e-05
-8.83986e-07
-3.6868e-05
-4.71743e-07
-4.81039e-05
2.30844e-06
-4.78995e-05
3.9343e-06
-3.64747e-05
5.56454e-06
-2.52358e-05
6.99415e-06
-1.4343e-05
7.25132e-06
-1.01685e-05
8.15202e-06
-9.40505e-06
9.60909e-06
-4.32962e-06
1.09712e-05
5.57078e-06
1.27651e-05
1.61176e-05
1.42416e-05
2.58115e-05
1.59565e-05
3.48435e-05
1.77442e-05
3.9641e-05
1.93261e-05
4.14376e-05
2.08158e-05
3.90569e-05
2.12231e-05
3.39153e-05
2.14321e-05
2.64837e-05
2.1301e-05
2.50482e-05
2.06167e-05
2.05044e-05
1.99745e-05
1.74642e-05
1.9712e-05
1.07932e-05
2.13027e-05
1.36066e-05
2.20076e-05
1.60674e-05
2.20796e-05
1.8471e-05
2.21867e-05
1.43978e-05
2.19017e-05
2.07327e-05
2.13806e-05
9.02848e-06
2.37416e-05
5.00463e-06
2.40431e-05
7.45334e-06
2.39683e-05
3.84269e-06
2.35596e-05
-1.08558e-06
2.29028e-05
-4.39204e-06
2.25019e-05
-8.98093e-06
2.20776e-05
-1.67177e-05
2.18655e-05
-2.2323e-05
2.19754e-05
-1.99538e-05
2.04743e-05
-2.42118e-05
2.03896e-05
-1.74108e-05
1.85699e-05
-2.02212e-05
1.62443e-05
-1.54134e-05
1.68641e-05
-1.55355e-05
1.69206e-05
-1.58048e-05
1.58602e-05
-3.70343e-05
1.69282e-05
-3.58357e-05
1.71848e-05
-2.4154e-05
1.64837e-05
-1.69354e-05
1.68185e-05
-1.21134e-05
1.72082e-05
-1.0979e-06
1.76829e-05
8.63247e-06
1.71202e-05
2.18063e-05
1.74935e-05
3.7048e-05
1.74968e-05
4.93172e-05
1.72937e-05
5.09982e-05
1.56198e-05
5.28744e-05
1.77043e-05
3.83156e-05
1.74648e-05
5.05182e-05
2.35492e-05
2.26968e-05
6.01335e-05
2.57939e-05
3.06651e-05
-2.37714e-07
3.08806e-05
-6.19382e-07
3.11453e-05
-2.61875e-06
3.14064e-05
-3.16606e-06
3.12195e-05
-3.13786e-06
3.163e-05
-3.32487e-06
3.19157e-05
-2.86552e-06
3.22973e-05
-1.41446e-06
3.28801e-05
-1.63129e-06
3.30218e-05
-1.92483e-06
3.38899e-05
-1.74659e-06
3.42864e-05
-3.62634e-06
3.44822e-05
-5.72746e-06
3.53203e-05
-7.65009e-06
3.51562e-05
-1.01079e-05
3.50814e-05
-1.29899e-05
3.53451e-05
-1.50782e-05
3.47647e-05
-1.66362e-05
3.42762e-05
-1.80134e-05
3.31748e-05
-1.8533e-05
3.13759e-05
-1.72335e-05
3.06003e-05
-1.47477e-05
3.04216e-05
-1.28153e-05
2.89967e-05
-7.47763e-06
2.74716e-05
-3.43599e-07
2.74721e-05
4.13391e-06
2.75057e-05
7.13883e-06
2.7791e-05
8.20224e-06
2.82856e-05
6.90681e-06
2.82403e-05
4.36241e-06
2.81285e-05
-2.25944e-07
2.70402e-05
-4.49536e-06
2.53932e-05
-6.74896e-06
2.44455e-05
-1.09729e-05
2.30747e-05
-1.67857e-05
2.00729e-05
-1.86158e-05
1.56805e-05
-1.48724e-05
1.09094e-05
-9.69649e-06
6.33952e-06
-7.17152e-06
2.25273e-06
-9.55927e-06
-8.07948e-07
-1.964e-05
-2.6669e-06
-3.5009e-05
-2.88507e-06
-4.78857e-05
-4.06715e-07
-5.03778e-05
1.86073e-06
-3.87421e-05
3.49854e-06
-2.68736e-05
5.0076e-06
-1.5852e-05
5.24033e-06
-1.04013e-05
5.78943e-06
-9.95415e-06
6.79832e-06
-5.3385e-06
8.02107e-06
4.34803e-06
9.8907e-06
1.4248e-05
1.11993e-05
2.45029e-05
1.31827e-05
3.28601e-05
1.5265e-05
3.75587e-05
1.69671e-05
3.97355e-05
1.86166e-05
3.74074e-05
1.95631e-05
3.29688e-05
2.01495e-05
2.58973e-05
2.03094e-05
2.48883e-05
1.99263e-05
2.08875e-05
1.96398e-05
1.77508e-05
1.91156e-05
1.13174e-05
2.05387e-05
1.21835e-05
2.21095e-05
1.44966e-05
2.25031e-05
1.80773e-05
2.26081e-05
1.42928e-05
2.27729e-05
2.05679e-05
2.20327e-05
9.76871e-06
2.36788e-05
3.35853e-06
2.41182e-05
7.01392e-06
2.38792e-05
4.08173e-06
2.3762e-05
-9.68343e-07
2.29632e-05
-3.59331e-06
2.3211e-05
-9.22869e-06
2.30566e-05
-1.65633e-05
2.28495e-05
-2.21159e-05
2.26625e-05
-1.97668e-05
2.07052e-05
-2.22544e-05
2.06507e-05
-1.73564e-05
1.81471e-05
-1.77175e-05
1.56347e-05
-1.29011e-05
1.57015e-05
-1.56023e-05
1.5454e-05
-1.55573e-05
1.43796e-05
-3.596e-05
1.54117e-05
-3.68677e-05
1.52807e-05
-2.4023e-05
1.44979e-05
-1.61525e-05
1.56381e-05
-1.32537e-05
1.61671e-05
-1.62689e-06
1.63463e-05
8.4533e-06
1.59077e-05
2.2245e-05
1.6505e-05
3.64506e-05
1.69461e-05
4.8876e-05
1.78127e-05
5.01317e-05
1.66874e-05
5.39997e-05
1.92338e-05
3.57693e-05
1.80308e-05
5.17211e-05
2.35852e-05
1.71425e-05
5.64431e-05
2.72756e-05
3.22188e-05
-7.98108e-07
3.28838e-05
-1.28441e-06
3.31778e-05
-2.91268e-06
3.33222e-05
-3.31052e-06
3.31252e-05
-2.94087e-06
3.32074e-05
-3.40704e-06
3.31861e-05
-2.84424e-06
3.35688e-05
-1.79718e-06
3.39171e-05
-1.97949e-06
3.39485e-05
-1.95632e-06
3.46748e-05
-2.47281e-06
3.4851e-05
-3.8026e-06
3.48924e-05
-5.76881e-06
3.54298e-05
-8.18755e-06
3.51306e-05
-9.8087e-06
3.49708e-05
-1.28301e-05
3.50159e-05
-1.51233e-05
3.43127e-05
-1.5933e-05
3.37692e-05
-1.74699e-05
3.28708e-05
-1.76345e-05
3.19441e-05
-1.63068e-05
3.18471e-05
-1.46508e-05
3.09317e-05
-1.18998e-05
2.91165e-05
-5.66243e-06
2.84052e-05
3.67632e-07
2.8375e-05
4.16411e-06
2.79323e-05
7.58158e-06
2.79361e-05
8.19842e-06
2.79112e-05
6.93174e-06
2.77026e-05
4.57096e-06
2.72542e-05
2.22425e-07
2.58253e-05
-3.06641e-06
2.46664e-05
-5.59004e-06
2.416e-05
-1.04665e-05
2.254e-05
-1.51657e-05
1.90803e-05
-1.51561e-05
1.45389e-05
-1.03309e-05
9.93961e-06
-5.09721e-06
5.57344e-06
-2.80535e-06
1.58434e-06
-5.57016e-06
-1.80527e-06
-1.62504e-05
-4.20862e-06
-3.26057e-05
-5.25322e-06
-4.68411e-05
-3.50613e-06
-5.21249e-05
-7.82854e-07
-4.14654e-05
1.11467e-06
-2.87711e-05
2.65422e-06
-1.73916e-05
3.02279e-06
-1.07699e-05
3.30123e-06
-1.02326e-05
3.89385e-06
-5.93113e-06
4.90736e-06
3.33452e-06
6.70883e-06
1.24465e-05
8.15753e-06
2.30542e-05
1.03841e-05
3.06335e-05
1.23707e-05
3.55721e-05
1.43915e-05
3.77147e-05
1.6584e-05
3.52149e-05
1.7945e-05
3.16078e-05
1.86758e-05
2.51665e-05
1.92016e-05
2.43626e-05
1.90806e-05
2.10084e-05
1.90046e-05
1.78268e-05
1.85657e-05
1.17563e-05
1.95545e-05
1.11948e-05
2.17035e-05
1.23476e-05
2.28782e-05
1.69026e-05
2.27971e-05
1.4374e-05
2.35678e-05
1.97972e-05
2.31896e-05
1.01469e-05
2.36429e-05
2.9052e-06
2.42776e-05
6.3793e-06
2.41502e-05
4.20904e-06
2.39678e-05
-7.85931e-07
2.31748e-05
-2.80022e-06
2.37257e-05
-9.77967e-06
2.37645e-05
-1.66021e-05
2.34462e-05
-2.17976e-05
2.33046e-05
-1.96253e-05
2.12249e-05
-2.01747e-05
2.06419e-05
-1.67734e-05
1.76074e-05
-1.4683e-05
1.50361e-05
-1.03297e-05
1.42012e-05
-1.47674e-05
1.38521e-05
-1.52082e-05
1.30445e-05
-3.51524e-05
1.37844e-05
-3.76076e-05
1.3492e-05
-2.37306e-05
1.27163e-05
-1.53768e-05
1.42055e-05
-1.47428e-05
1.4145e-05
-1.56639e-06
1.43059e-05
8.29236e-06
1.41331e-05
2.24177e-05
1.49557e-05
3.5628e-05
1.52899e-05
4.85419e-05
1.79281e-05
4.74935e-05
1.75575e-05
5.43703e-05
2.07358e-05
3.25909e-05
1.89258e-05
5.35311e-05
2.26771e-05
1.33912e-05
5.10977e-05
2.80224e-05
3.3984e-05
-8.52026e-07
3.40272e-05
-1.32762e-06
3.39823e-05
-2.86782e-06
3.38764e-05
-3.20458e-06
3.36398e-05
-2.70426e-06
3.3302e-05
-3.06928e-06
3.31566e-05
-2.69879e-06
3.34582e-05
-2.09879e-06
3.35731e-05
-2.09443e-06
3.37155e-05
-2.09873e-06
3.42979e-05
-3.05523e-06
3.45243e-05
-4.02901e-06
3.46192e-05
-5.8637e-06
3.48291e-05
-8.39738e-06
3.47732e-05
-9.75289e-06
3.47342e-05
-1.27911e-05
3.4535e-05
-1.49241e-05
3.3923e-05
-1.5321e-05
3.35289e-05
-1.70758e-05
3.2945e-05
-1.70507e-05
3.24113e-05
-1.57731e-05
3.22317e-05
-1.44712e-05
3.09228e-05
-1.05909e-05
2.95853e-05
-4.32488e-06
2.95105e-05
4.42454e-07
2.90558e-05
4.61881e-06
2.83539e-05
8.2834e-06
2.81366e-05
8.41574e-06
2.76097e-05
7.45867e-06
2.70495e-05
5.13112e-06
2.61943e-05
1.07765e-06
2.50061e-05
-1.87823e-06
2.44443e-05
-5.02825e-06
2.37822e-05
-9.80435e-06
2.16416e-05
-1.30251e-05
1.79019e-05
-1.14164e-05
1.33815e-05
-5.8105e-06
9.05762e-06
-7.73358e-07
5.06245e-06
1.18982e-06
1.33879e-06
-1.8465e-06
-2.1902e-06
-1.27214e-05
-5.11935e-06
-2.96765e-05
-7.01514e-06
-4.49453e-05
-6.47977e-06
-5.26603e-05
-3.64522e-06
-4.42999e-05
-1.63109e-06
-3.07852e-05
-4.5454e-09
-1.90181e-05
3.70605e-07
-1.1145e-05
4.00419e-07
-1.02624e-05
9.85395e-07
-6.5161e-06
1.96032e-06
2.35959e-06
3.48806e-06
1.09188e-05
5.04623e-06
2.1496e-05
7.3864e-06
2.82933e-05
9.7303e-06
3.32282e-05
1.22148e-05
3.52302e-05
1.43747e-05
3.3055e-05
1.61634e-05
2.9819e-05
1.72736e-05
2.40563e-05
1.77308e-05
2.39054e-05
1.79426e-05
2.07966e-05
1.84063e-05
1.7363e-05
1.81209e-05
1.20417e-05
1.88103e-05
1.05054e-05
2.10067e-05
1.01513e-05
2.29396e-05
1.49697e-05
2.26196e-05
1.4694e-05
2.37491e-05
1.86676e-05
2.42928e-05
9.60324e-06
2.36334e-05
3.56454e-06
2.40374e-05
5.97532e-06
2.44858e-05
3.76064e-06
2.40733e-05
-3.73452e-07
2.35389e-05
-2.26579e-06
2.43603e-05
-1.06011e-05
2.44961e-05
-1.67379e-05
2.38169e-05
-2.11183e-05
2.31266e-05
-1.8935e-05
2.11442e-05
-1.81922e-05
2.0336e-05
-1.59653e-05
1.73826e-05
-1.17296e-05
1.43709e-05
-7.31808e-06
1.26123e-05
-1.30088e-05
1.24697e-05
-1.50656e-05
1.18282e-05
-3.45109e-05
1.19398e-05
-3.77192e-05
1.1332e-05
-2.31229e-05
1.05601e-05
-1.4605e-05
1.17182e-05
-1.59008e-05
1.14065e-05
-1.25472e-06
1.28053e-05
6.8936e-06
1.23292e-05
2.28938e-05
1.33724e-05
3.45848e-05
1.35079e-05
4.84064e-05
1.72088e-05
4.37927e-05
1.75467e-05
5.40324e-05
2.1553e-05
2.85846e-05
2.06093e-05
5.44747e-05
2.18032e-05
1.21974e-05
4.50521e-05
2.78488e-05
3.4388e-05
-1.05646e-06
3.45031e-05
-1.44274e-06
3.40018e-05
-2.36647e-06
3.34936e-05
-2.69642e-06
3.31082e-05
-2.31887e-06
3.27157e-05
-2.67676e-06
3.26686e-05
-2.65169e-06
3.28745e-05
-2.30466e-06
3.31783e-05
-2.39829e-06
3.35429e-05
-2.46333e-06
3.39442e-05
-3.45649e-06
3.43816e-05
-4.46644e-06
3.44704e-05
-5.95249e-06
3.44344e-05
-8.36138e-06
3.46354e-05
-9.9539e-06
3.44763e-05
-1.2632e-05
3.40917e-05
-1.45395e-05
3.37466e-05
-1.49759e-05
3.33985e-05
-1.67276e-05
3.30498e-05
-1.6702e-05
3.2572e-05
-1.52952e-05
3.17421e-05
-1.36414e-05
3.03391e-05
-9.18782e-06
2.97088e-05
-3.69461e-06
2.95327e-05
6.18522e-07
2.84881e-05
5.66345e-06
2.79048e-05
8.86664e-06
2.75376e-05
8.78298e-06
2.66457e-05
8.35053e-06
2.61301e-05
5.64677e-06
2.54538e-05
1.75392e-06
2.45801e-05
-1.00455e-06
2.41051e-05
-4.55317e-06
2.30788e-05
-8.77813e-06
2.04848e-05
-1.04311e-05
1.65469e-05
-7.47853e-06
1.22695e-05
-1.53301e-06
8.40813e-06
3.08797e-06
4.91566e-06
4.68228e-06
1.66088e-06
1.40829e-06
-1.59219e-06
-9.46837e-06
-5.04548e-06
-2.62232e-05
-8.03515e-06
-4.19556e-05
-8.83786e-06
-5.18576e-05
-6.24567e-06
-4.68921e-05
-4.28738e-06
-3.27435e-05
-2.82345e-06
-2.0482e-05
-1.8751e-06
-1.20934e-05
-1.97223e-06
-1.01653e-05
-1.8556e-06
-6.63274e-06
-1.03941e-06
1.54341e-06
2.15254e-07
9.66412e-06
1.9375e-06
1.97738e-05
4.4686e-06
2.57622e-05
6.84003e-06
3.08568e-05
9.49988e-06
3.25703e-05
1.20961e-05
3.04588e-05
1.41633e-05
2.77519e-05
1.53399e-05
2.28797e-05
1.59882e-05
2.32571e-05
1.67244e-05
2.00604e-05
1.7601e-05
1.64864e-05
1.7491e-05
1.21517e-05
1.81364e-05
9.85996e-06
2.01838e-05
8.10393e-06
2.26581e-05
1.24953e-05
2.2261e-05
1.50911e-05
2.3559e-05
1.73696e-05
2.47755e-05
8.38679e-06
2.3812e-05
4.52797e-06
2.38472e-05
5.94018e-06
2.45902e-05
3.01765e-06
2.4215e-05
1.66512e-09
2.40936e-05
-2.14436e-06
2.47836e-05
-1.12911e-05
2.47966e-05
-1.67509e-05
2.37207e-05
-2.00424e-05
2.29346e-05
-1.81489e-05
2.1002e-05
-1.62596e-05
1.94734e-05
-1.44367e-05
1.68189e-05
-9.07504e-06
1.36485e-05
-4.14767e-06
1.13423e-05
-1.07026e-05
1.18063e-05
-1.55297e-05
1.03629e-05
-3.30675e-05
9.892e-06
-3.72483e-05
9.46014e-06
-2.2691e-05
8.90403e-06
-1.40489e-05
9.39651e-06
-1.63933e-05
9.1307e-06
-9.88911e-07
1.09018e-05
5.12251e-06
9.96847e-06
2.38271e-05
1.1992e-05
3.25612e-05
1.22087e-05
4.81897e-05
1.58862e-05
4.01152e-05
1.64892e-05
5.34294e-05
2.19352e-05
2.31386e-05
2.23357e-05
5.40743e-05
2.20633e-05
1.24697e-05
3.93657e-05
2.77498e-05
3.41857e-05
-1.05652e-06
3.39447e-05
-1.20179e-06
3.32724e-05
-1.69412e-06
3.28726e-05
-2.29658e-06
3.28565e-05
-2.30282e-06
3.28492e-05
-2.66946e-06
3.29911e-05
-2.79354e-06
3.32307e-05
-2.54428e-06
3.35026e-05
-2.6702e-06
3.37075e-05
-2.66823e-06
3.38548e-05
-3.60377e-06
3.41012e-05
-4.71291e-06
3.4058e-05
-5.90929e-06
3.40769e-05
-8.38029e-06
3.43523e-05
-1.02293e-05
3.40112e-05
-1.22909e-05
3.35885e-05
-1.41168e-05
3.34447e-05
-1.48321e-05
3.29156e-05
-1.61985e-05
3.22459e-05
-1.60324e-05
3.15497e-05
-1.4599e-05
3.03919e-05
-1.24835e-05
2.91255e-05
-7.9214e-06
2.86143e-05
-3.18346e-06
2.79122e-05
1.32061e-06
2.68701e-05
6.70563e-06
2.65423e-05
9.19443e-06
2.59402e-05
9.38505e-06
2.53695e-05
8.9212e-06
2.52701e-05
5.74619e-06
2.46306e-05
2.39347e-06
2.39849e-05
-3.58853e-07
2.34943e-05
-4.06258e-06
2.19968e-05
-7.28065e-06
1.9052e-05
-7.48623e-06
1.51673e-05
-3.59384e-06
1.13375e-05
2.29677e-06
8.06202e-06
6.36343e-06
5.26165e-06
7.48265e-06
2.61841e-06
4.05152e-06
-2.46725e-07
-6.60323e-06
-4.23725e-06
-2.22327e-05
-8.20501e-06
-3.79879e-05
-1.04314e-05
-4.96312e-05
-8.49299e-06
-4.88305e-05
-6.3679e-06
-3.48686e-05
-5.11836e-06
-2.17316e-05
-3.97995e-06