/*--------------------------------*- C++ -*----------------------------------*\
| =========                 |                                                 |
| \\      /  F ield         | OpenFOAM: The Open Source CFD Toolbox           |
|  \\    /   O peration     | Version:  2.4.0                                 |
|   \\  /    A nd           | Web:      www.OpenFOAM.org                      |
|    \\/     M anipulation  |                                                 |
\*---------------------------------------------------------------------------*/
FoamFile
{
    version     2.0;
    format      ascii;
    class       surfaceScalarField;
    location    "0.076";
    object      phi_0;
}
// * * * * * * * * * * * * * * * * * * * * * * * * * * * * * * * * * * * * * //

dimensions      [0 3 -1 0 0 0 0];

internalField   nonuniform List<scalar> 
34880
(
5.4875e-06
7.0125e-06
3.12545e-06
2.36205e-06
2.47335e-06
6.52105e-07
2.21623e-06
2.57114e-07
2.07713e-06
1.39102e-07
1.96617e-06
1.10961e-07
1.88724e-06
7.89236e-08
1.82034e-06
6.69054e-08
1.76868e-06
5.16604e-08
1.73895e-06
2.97295e-08
1.70427e-06
3.46756e-08
1.67132e-06
3.29481e-08
1.65695e-06
1.43788e-08
1.64088e-06
1.6071e-08
1.59509e-06
4.57825e-08
1.62088e-06
-2.57832e-08
1.58605e-06
3.48293e-08
1.61918e-06
-3.3136e-08
1.48149e-06
1.37696e-07
-7.13309e-07
2.1948e-06
1.01095e-05
9.40299e-06
7.83187e-06
4.63969e-06
6.71043e-06
1.77355e-06
6.06109e-06
9.06456e-07
5.64751e-06
5.52676e-07
5.34735e-06
4.11126e-07
5.12388e-06
3.02393e-07
4.9415e-06
2.49286e-07
4.80333e-06
1.89828e-07
4.69984e-06
1.33214e-07
4.60795e-06
1.26568e-07
4.52264e-06
1.18258e-07
4.47367e-06
6.33515e-08
4.40512e-06
8.46221e-08
4.33562e-06
1.15281e-07
4.34091e-06
-3.10716e-08
4.26135e-06
1.14386e-07
4.34148e-06
-1.13261e-07
4.17913e-06
3.00046e-07
-1.28456e-06
4.75038e-06
1.24228e-05
9.48017e-06
1.10069e-05
6.05557e-06
9.9803e-06
2.80018e-06
9.20056e-06
1.68619e-06
8.61958e-06
1.13366e-06
8.18917e-06
8.41535e-07
7.85825e-06
6.33314e-07
7.58929e-06
5.18243e-07
7.3835e-06
3.95618e-07
7.21575e-06
3.00966e-07
7.07933e-06
2.62987e-07
6.94924e-06
2.48354e-07
6.87059e-06
1.42002e-07
6.75567e-06
1.99537e-07
6.67655e-06
1.94399e-07
6.64521e-06
2.69928e-10
6.54316e-06
2.16444e-07
6.62533e-06
-1.95433e-07
6.50106e-06
4.24312e-07
-1.70779e-06
6.92429e-06
1.34081e-05
8.57205e-06
1.28926e-05
6.5711e-06
1.23259e-05
3.36689e-06
1.17152e-05
2.29683e-06
1.1133e-05
1.71594e-06
1.06586e-05
1.3159e-06
1.02755e-05
1.01639e-06
9.95075e-06
8.43007e-07
9.7048e-06
6.41577e-07
9.48855e-06
5.17211e-07
9.31877e-06
4.32766e-07
9.15473e-06
4.12395e-07
9.0545e-06
2.42235e-07
8.89939e-06
3.54644e-07
8.81539e-06
2.78403e-07
8.75295e-06
6.27135e-08
8.63266e-06
3.36731e-07
8.69101e-06
-2.53787e-07
8.65444e-06
4.60883e-07
-1.96063e-06
8.90729e-06
1.35846e-05
7.48743e-06
1.36643e-05
6.49143e-06
1.36239e-05
3.40728e-06
1.3401e-05
2.51973e-06
1.30166e-05
2.10039e-06
1.26247e-05
1.70772e-06
1.22783e-05
1.36281e-06
1.19502e-05
1.17108e-06
1.17069e-05
8.84906e-07
1.14733e-05
7.50777e-07
1.12888e-05
6.17324e-07
1.11085e-05
5.92681e-07
1.1002e-05
3.4874e-07
1.08188e-05
5.37804e-07
1.0732e-05
3.65239e-07
1.06585e-05
1.36231e-07
1.05211e-05
4.74076e-07
1.05363e-05
-2.68943e-07
1.05842e-05
4.12976e-07
-2.15809e-06
1.07816e-05
1.34733e-05
6.51409e-06
1.37565e-05
6.20822e-06
1.39992e-05
3.16459e-06
1.4145e-05
2.37397e-06
1.40805e-05
2.16485e-06
1.38974e-05
1.89087e-06
1.37052e-05
1.55498e-06
1.3455e-05
1.42129e-06
1.32764e-05
1.06348e-06
1.30773e-05
9.49948e-07
1.29096e-05
7.85006e-07
1.27398e-05
7.62431e-07
1.26494e-05
4.39206e-07
1.24634e-05
7.23735e-07
1.23712e-05
4.57486e-07
1.23167e-05
1.90722e-07
1.21718e-05
6.19012e-07
1.21433e-05
-2.40517e-07
1.2227e-05
3.29275e-07
-1.95139e-06
1.20203e-05
1.33503e-05
5.66377e-06
1.36925e-05
5.86607e-06
1.39335e-05
2.92356e-06
1.4221e-05
2.08643e-06
1.43863e-05
1.99955e-06
1.44012e-05
1.87602e-06
1.44209e-05
1.53533e-06
1.43153e-05
1.5268e-06
1.42676e-05
1.11117e-06
1.41727e-05
1.04492e-06
1.40714e-05
8.86236e-07
1.39513e-05
8.82556e-07
1.3908e-05
4.82542e-07
1.37618e-05
8.69914e-07
1.36681e-05
5.51223e-07
1.36559e-05
2.0288e-07
1.35315e-05
7.43382e-07
1.34713e-05
-1.80322e-07
1.35851e-05
2.15532e-07
-1.39492e-06
1.30286e-05
1.32588e-05
4.90494e-06
1.369e-05
5.43492e-06
1.38065e-05
2.80702e-06
1.40912e-05
1.80174e-06
1.43332e-05
1.75752e-06
1.44127e-05
1.79657e-06
1.45665e-05
1.38148e-06
1.4571e-05
1.52235e-06
1.46317e-05
1.05046e-06
1.46717e-05
1.00488e-06
1.46741e-05
8.83902e-07
1.46324e-05
9.24246e-07
1.46685e-05
4.46409e-07
1.46158e-05
9.22675e-07
1.45438e-05
6.23165e-07
1.45839e-05
1.62777e-07
1.45233e-05
8.04032e-07
1.44719e-05
-1.28922e-07
1.46069e-05
8.04563e-08
-4.91729e-07
1.37038e-05
1.3185e-05
4.21998e-06
1.36466e-05
4.97326e-06
1.37192e-05
2.73447e-06
1.3969e-05
1.55195e-06
1.4233e-05
1.49348e-06
1.42973e-05
1.73222e-06
1.44931e-05
1.18574e-06
1.45469e-05
1.46855e-06
1.46188e-05
9.78588e-07
1.47382e-05
8.85442e-07
1.48181e-05
8.04023e-07
1.48243e-05
9.18064e-07
1.49166e-05
3.54102e-07
1.49787e-05
8.6053e-07
1.49487e-05
6.53175e-07
1.50217e-05
8.98081e-08
1.50583e-05
7.67398e-07
1.50877e-05
-1.58283e-07
1.52468e-05
-7.86606e-08
-7.2913e-07
1.54842e-05
1.31103e-05
3.60973e-06
1.3604e-05
4.4795e-06
1.36644e-05
2.67404e-06
1.38995e-05
1.31689e-06
1.4157e-05
1.23596e-06
1.42018e-05
1.6874e-06
1.44044e-05
9.83132e-07
1.44778e-05
1.39523e-06
1.45286e-05
9.27706e-07
1.46717e-05
7.42405e-07
1.47748e-05
7.00871e-07
1.47976e-05
8.95247e-07
1.48843e-05
2.67474e-07
1.50178e-05
7.27008e-07
1.50249e-05
6.46061e-07
1.50788e-05
3.59228e-08
1.51975e-05
6.48681e-07
1.53126e-05
-2.73318e-07
1.54328e-05
-1.98936e-07
-9.83125e-07
1.56868e-05
1.30528e-05
3.05691e-06
1.35489e-05
3.98346e-06
1.3634e-05
2.5889e-06
1.38722e-05
1.07871e-06
1.40597e-05
1.04848e-06
1.41509e-05
1.59616e-06
1.43336e-05
8.0042e-07
1.43956e-05
1.33326e-06
1.44775e-05
8.45838e-07
1.46106e-05
6.09261e-07
1.46864e-05
6.25025e-07
1.47469e-05
8.34777e-07
1.48135e-05
2.00892e-07
1.49492e-05
5.9126e-07
1.4978e-05
6.1732e-07
1.50357e-05
-2.18113e-08
1.51813e-05
5.03084e-07
1.52941e-05
-3.86122e-07
1.53939e-05
-2.98728e-07
-1.23332e-06
1.56441e-05
1.30099e-05
2.54701e-06
1.34613e-05
3.53205e-06
1.36207e-05
2.42947e-06
1.38129e-05
8.86572e-07
1.39488e-05
9.12556e-07
1.41261e-05
1.41881e-06
1.42499e-05
6.76648e-07
1.43228e-05
1.26037e-06
1.44589e-05
7.09745e-07
1.45464e-05
5.21801e-07
1.4594e-05
5.77378e-07
1.47127e-05
7.16081e-07
1.47588e-05
1.54826e-07
1.48512e-05
4.98816e-07
1.49038e-05
5.64741e-07
1.50107e-05
-1.28704e-07
1.51321e-05
3.81712e-07
1.52043e-05
-4.58314e-07
1.53006e-05
-3.95112e-07
-1.43426e-06
1.55016e-05
1.29429e-05
2.10415e-06
1.337e-05
3.10486e-06
1.36191e-05
2.1804e-06
1.37247e-05
7.81035e-07
1.3891e-05
7.46177e-07
1.40908e-05
1.21905e-06
1.41706e-05
5.96832e-07
1.4292e-05
1.13899e-06
1.44247e-05
5.77072e-07
1.44746e-05
4.719e-07
1.45336e-05
5.1836e-07
1.46858e-05
5.63848e-07
1.46918e-05
1.4882e-07
1.4763e-05
4.27675e-07
1.48628e-05
4.64908e-07
1.49613e-05
-2.27185e-07
1.50652e-05
2.77823e-07
1.51301e-05
-5.23239e-07
1.52141e-05
-4.79083e-07
-1.60129e-06
1.53811e-05
1.28634e-05
1.74072e-06
1.33264e-05
2.64185e-06
1.36188e-05
1.88804e-06
1.36828e-05
7.17015e-07
1.38815e-05
5.47463e-07
1.40331e-05
1.06748e-06
1.41215e-05
5.08437e-07
1.42816e-05
9.78935e-07
1.43607e-05
4.97971e-07
1.44206e-05
4.11989e-07
1.45122e-05
4.26723e-07
1.4637e-05
4.39007e-07
1.46234e-05
1.62498e-07
1.47219e-05
3.29126e-07
1.48376e-05
3.49184e-07
1.48835e-05
-2.73049e-07
1.50119e-05
1.49389e-07
1.5083e-05
-5.94324e-07
1.51635e-05
-5.5954e-07
-1.80549e-06
1.53677e-05
1.28277e-05
1.41298e-06
1.33194e-05
2.15023e-06
1.35831e-05
1.6243e-06
1.36946e-05
6.05455e-07
1.38513e-05
3.90767e-07
1.39694e-05
9.49449e-07
1.40984e-05
3.79414e-07
1.4253e-05
8.24312e-07
1.42972e-05
4.53793e-07
1.43961e-05
3.13114e-07
1.44989e-05
3.23943e-07
1.45701e-05
3.67715e-07
1.45823e-05
1.50304e-07
1.47117e-05
1.99792e-07
1.47977e-05
2.6312e-07
1.48224e-05
-2.97735e-07
1.49752e-05
-3.42808e-09
1.50453e-05
-6.64335e-07
1.5176e-05
-6.90262e-07
-1.88318e-06
1.52537e-05
1.28312e-05
1.08176e-06
1.32825e-05
1.69893e-06
1.35554e-05
1.35137e-06
1.36976e-05
4.63314e-07
1.37837e-05
3.04676e-07
1.39277e-05
8.0543e-07
1.40844e-05
2.22689e-07
1.41998e-05
7.08912e-07
1.4262e-05
3.91589e-07
1.43965e-05
1.78688e-07
1.44522e-05
2.68174e-07
1.45147e-05
3.05207e-07
1.45831e-05
8.19223e-08
1.46818e-05
1.01124e-07
1.47473e-05
1.97613e-07
1.47991e-05
-3.49577e-07
1.49428e-05
-1.47105e-07
1.50115e-05
-7.33057e-07
1.51836e-05
-8.62367e-07
-1.75384e-06
1.50543e-05
1.28099e-05
7.71828e-07
1.32152e-05
1.29363e-06
1.3546e-05
1.02058e-06
1.36675e-05
3.41862e-07
1.3733e-05
2.39198e-07
1.39259e-05
6.12483e-07
1.40545e-05
9.4078e-08
1.41537e-05
6.09728e-07
1.42625e-05
2.82818e-07
1.43803e-05
6.08889e-08
1.4392e-05
2.56395e-07
1.45003e-05
1.96946e-07
1.45827e-05
-4.63348e-10
1.4627e-05
5.68103e-08
1.47197e-05
1.04942e-07
1.47874e-05
-4.1726e-07
1.4902e-05
-2.61727e-07
1.49971e-05
-8.2818e-07
1.51429e-05
-1.00817e-06
-1.47117e-06
1.48602e-05
1.27577e-05
5.14127e-07
1.31926e-05
8.5877e-07
1.35463e-05
6.66832e-07
1.36404e-05
2.47791e-07
1.37345e-05
1.45102e-07
1.39296e-05
4.17386e-07
1.40055e-05
1.81005e-08
1.41441e-05
4.71222e-07
1.42703e-05
1.56596e-07
1.43309e-05
3.06254e-10
1.43719e-05
2.15383e-07
1.45039e-05
6.49555e-08
1.45493e-05
-4.5891e-08
1.45916e-05
1.4485e-08
1.47184e-05
-2.18864e-08
1.47606e-05
-4.59455e-07
1.48705e-05
-3.71629e-07
1.49916e-05
-9.49252e-07
1.50668e-05
-1.08337e-06
-1.20066e-06
1.47963e-05
1.27392e-05
2.74937e-07
1.32217e-05
3.76225e-07
1.35283e-05
3.60281e-07
1.36387e-05
1.37341e-07
1.3752e-05
3.1854e-08
1.3896e-05
2.73377e-07
1.39775e-05
-6.34178e-08
1.41604e-05
2.88296e-07
1.42485e-05
6.85279e-08
1.42992e-05
-5.03921e-08
1.43878e-05
1.26745e-07
1.44853e-05
-3.25253e-08
1.45203e-05
-8.08818e-08
1.45891e-05
-5.43229e-08
1.47112e-05
-1.43959e-07
1.47407e-05
-4.88991e-07
1.48621e-05
-4.92997e-07
1.49651e-05
-1.05226e-06
1.49963e-05
-1.11457e-06
-1.10413e-06
1.48998e-05
1.27648e-05
1.01817e-08
1.32238e-05
-8.27747e-08
1.34928e-05
9.12725e-08
1.36525e-05
-2.2377e-08
1.37413e-05
-5.69457e-08
1.38567e-05
1.57909e-07
1.39933e-05
-1.99962e-07
1.41632e-05
1.1839e-07
1.42184e-05
1.33478e-08
1.43118e-05
-1.43812e-07
1.43927e-05
4.58238e-08
1.4459e-05
-9.8764e-08
1.45208e-05
-1.42745e-07
1.4594e-05
-1.2753e-07
1.46969e-05
-2.46783e-07
1.47406e-05
-5.3274e-07
1.48551e-05
-6.07534e-07
1.49269e-05
-1.12407e-06
1.49897e-05
-1.17728e-06
-1.18197e-06
1.50675e-05
1.27746e-05
-2.64433e-07
1.31868e-05
-4.94961e-07
1.34855e-05
-2.0745e-07
1.36673e-05
-2.0417e-07
1.37177e-05
-1.07381e-07
1.38636e-05
1.20457e-08
1.40171e-05
-3.53412e-07
1.41433e-05
-7.80065e-09
1.42184e-05
-6.17748e-08
1.43303e-05
-2.55735e-07
1.43806e-05
-4.49932e-09
1.44539e-05
-1.72086e-07
1.45304e-05
-2.19156e-07
1.4594e-05
-1.91148e-07
1.46906e-05
-3.43383e-07
1.47444e-05
-5.8652e-07
1.48449e-05
-7.08034e-07
1.48972e-05
-1.17642e-06
1.50384e-05
-1.31851e-06
-1.3142e-06
1.51707e-05
1.27577e-05
-5.22171e-07
1.31827e-05
-9.19904e-07
1.35188e-05
-5.43567e-07
1.36676e-05
-3.52929e-07
1.37177e-05
-1.57531e-07
1.3895e-05
-1.65204e-07
1.40132e-05
-4.71631e-07
1.41332e-05
-1.27866e-07
1.42392e-05
-1.67741e-07
1.43329e-05
-3.49398e-07
1.43787e-05
-5.03349e-08
1.44622e-05
-2.55547e-07
1.45396e-05
-2.9656e-07
1.4597e-05
-2.48554e-07
1.46896e-05
-4.35971e-07
1.47504e-05
-6.47384e-07
1.48408e-05
-7.98367e-07
1.48933e-05
-1.22896e-06
1.50762e-05
-1.50145e-06
-1.06721e-06
1.48292e-05
1.27624e-05
-7.84561e-07
1.32248e-05
-1.38229e-06
1.35421e-05
-8.60878e-07
1.36536e-05
-4.64459e-07
1.37392e-05
-2.43141e-07
1.39081e-05
-3.34044e-07
1.4006e-05
-5.69543e-07
1.41501e-05
-2.72017e-07
1.42586e-05
-2.76167e-07
1.43357e-05
-4.26554e-07
1.43915e-05
-1.06147e-07
1.44788e-05
-3.4278e-07
1.45514e-05
-3.69246e-07
1.46057e-05
-3.02843e-07
1.46965e-05
-5.26751e-07
1.47658e-05
-7.1667e-07
1.48437e-05
-8.76224e-07
1.49148e-05
-1.30014e-06
1.50855e-05
-1.67211e-06
-1.17942e-06
1.51977e-05
1.27956e-05
-1.08015e-06
1.32561e-05
-1.84284e-06
1.35361e-05
-1.14082e-06
1.36546e-05
-5.83015e-07
1.37644e-05
-3.52861e-07
1.39164e-05
-4.86037e-07
1.40274e-05
-6.80563e-07
1.41785e-05
-4.23153e-07
1.42749e-05
-3.7259e-07
1.4348e-05
-4.9958e-07
1.44124e-05
-1.70627e-07
1.45055e-05
-4.35793e-07
1.45621e-05
-4.25886e-07
1.4625e-05
-3.65715e-07
1.47141e-05
-6.15838e-07
1.4785e-05
-7.87625e-07
1.48619e-05
-9.53115e-07
1.49318e-05
-1.37003e-06
1.50429e-05
-1.78321e-06
-1.34184e-06
1.52053e-05
1.28243e-05
-1.40444e-06
1.32653e-05
-2.28389e-06
1.35461e-05
-1.42156e-06
1.36807e-05
-7.17626e-07
1.37901e-05
-4.62283e-07
1.39431e-05
-6.39069e-07
1.40657e-05
-8.03135e-07
1.42023e-05
-5.59754e-07
1.42907e-05
-4.60996e-07
1.437e-05
-5.78889e-07
1.44426e-05
-2.43191e-07
1.45312e-05
-5.24431e-07
1.45801e-05
-4.74708e-07
1.46562e-05
-4.41874e-07
1.47325e-05
-6.92161e-07
1.48136e-05
-8.68738e-07
1.48856e-05
-1.02506e-06
1.49251e-05
-1.40951e-06
1.50357e-05
-1.89387e-06
-1.63129e-06
1.53252e-05
1.28461e-05
-1.75054e-06
1.32936e-05
-2.73136e-06
1.35866e-05
-1.71459e-06
1.37066e-05
-8.37597e-07
1.38174e-05
-5.73149e-07
1.39813e-05
-8.02927e-07
1.41013e-05
-9.23184e-07
1.42206e-05
-6.78999e-07
1.43168e-05
-5.57257e-07
1.44067e-05
-6.68787e-07
1.44739e-05
-3.10315e-07
1.45598e-05
-6.10401e-07
1.46149e-05
-5.29748e-07
1.4689e-05
-5.15997e-07
1.47556e-05
-7.58719e-07
1.4855e-05
-9.68214e-07
1.48953e-05
-1.06529e-06
1.49372e-05
-1.45144e-06
1.51128e-05
-2.06949e-06
-1.93201e-06
1.54135e-05
1.28816e-05
-2.13211e-06
1.33484e-05
-3.19817e-06
1.3619e-05
-1.98519e-06
1.37201e-05
-9.3877e-07
1.38533e-05
-7.0632e-07
1.40251e-05
-9.74713e-07
1.41358e-05
-1.03386e-06
1.425e-05
-7.93266e-07
1.43634e-05
-6.70575e-07
1.44474e-05
-7.52808e-07
1.45069e-05
-3.69857e-07
1.46031e-05
-7.06588e-07
1.46547e-05
-5.81291e-07
1.47239e-05
-5.85203e-07
1.4796e-05
-8.309e-07
1.4892e-05
-1.06421e-06
1.49019e-05
-1.07512e-06
1.50086e-05
-1.55816e-06
1.51968e-05
-2.25765e-06
-2.05724e-06
1.5322e-05
1.29332e-05
-2.56532e-06
1.34027e-05
-3.66767e-06
1.36012e-05
-2.18369e-06
1.37429e-05
-1.08047e-06
1.39098e-05
-8.73166e-07
1.40748e-05
-1.13972e-06
1.41817e-05
-1.14081e-06
1.42979e-05
-9.09416e-07
1.44142e-05
-7.86958e-07
1.44854e-05
-8.2398e-07
1.45549e-05
-4.39318e-07
1.46514e-05
-8.03135e-07
1.46952e-05
-6.25032e-07
1.47747e-05
-6.64724e-07
1.48465e-05
-9.02698e-07
1.49198e-05
-1.13748e-06
1.49399e-05
-1.09528e-06
1.51046e-05
-1.72281e-06
1.51971e-05
-2.35017e-06
-2.07054e-06
1.52104e-05
1.2991e-05
-3.05637e-06
1.34514e-05
-4.12801e-06
1.3603e-05
-2.33526e-06
1.37881e-05
-1.2656e-06
1.39758e-05
-1.06086e-06
1.41265e-05
-1.29042e-06
1.42427e-05
-1.25701e-06
1.43464e-05
-1.01314e-06
1.44597e-05
-9.00308e-07
1.45301e-05
-8.94359e-07
1.46144e-05
-5.23595e-07
1.46985e-05
-8.87193e-07
1.47516e-05
-6.78149e-07
1.48342e-05
-7.47313e-07
1.48978e-05
-9.66313e-07
1.4959e-05
-1.19869e-06
1.50065e-05
-1.14274e-06
1.51547e-05
-1.871e-06
1.5155e-05
-2.35055e-06
-2.1988e-06
1.52833e-05
1.30525e-05
-3.60887e-06
1.35073e-05
-4.5828e-06
1.3642e-05
-2.47001e-06
1.38399e-05
-1.46345e-06
1.4039e-05
-1.26002e-06
1.41856e-05
-1.437e-06
1.43085e-05
-1.37991e-06
1.4395e-05
-1.09963e-06
1.4515e-05
-1.02027e-06
1.45835e-05
-9.62887e-07
1.46801e-05
-6.20218e-07
1.47556e-05
-9.62625e-07
1.48225e-05
-7.45041e-07
1.48924e-05
-8.17218e-07
1.49571e-05
-1.03102e-06
1.50102e-05
-1.25184e-06
1.50596e-05
-1.19215e-06
1.51557e-05
-1.96708e-06
1.5154e-05
-2.34887e-06
-2.47829e-06
1.54335e-05
1.31182e-05
-4.22709e-06
1.35671e-05
-5.03171e-06
1.36852e-05
-2.58809e-06
1.38959e-05
-1.67413e-06
1.41121e-05
-1.47624e-06
1.42599e-05
-1.58479e-06
1.43773e-05
-1.49731e-06
1.44621e-05
-1.18439e-06
1.45851e-05
-1.1433e-06
1.46459e-05
-1.02373e-06
1.47557e-05
-7.29936e-07
1.48216e-05
-1.02853e-06
1.48891e-05
-8.12579e-07
1.49473e-05
-8.7541e-07
1.50049e-05
-1.0886e-06
1.50309e-05
-1.27788e-06
1.50614e-05
-1.22266e-06
1.50955e-05
-2.00119e-06
1.50835e-05
-2.33686e-06
-2.70617e-06
1.53114e-05
1.31857e-05
-4.91279e-06
1.36223e-05
-5.46832e-06
1.37408e-05
-2.70654e-06
1.39752e-05
-1.90855e-06
1.42076e-05
-1.70867e-06
1.43529e-05
-1.73003e-06
1.44585e-05
-1.60294e-06
1.45503e-05
-1.27623e-06
1.46559e-05
-1.2489e-06
1.47094e-05
-1.07719e-06
1.481e-05
-8.30611e-07
1.48439e-05
-1.0624e-06
1.4887e-05
-8.55698e-07
1.49147e-05
-9.03037e-07
1.49221e-05
-1.09599e-06
1.48907e-05
-1.24658e-06
1.48702e-05
-1.20213e-06
1.47917e-05
-1.92263e-06
1.46806e-05
-2.22578e-06
-2.77266e-06
1.47471e-05
1.32594e-05
-5.6722e-06
1.36736e-05
-5.88253e-06
1.38275e-05
-2.86038e-06
1.40866e-05
-2.16766e-06
1.43247e-05
-1.94677e-06
1.44495e-05
-1.8549e-06
1.4525e-05
-1.6784e-06
1.45953e-05
-1.34656e-06
1.46365e-05
-1.29013e-06
1.46433e-05
-1.08392e-06
1.46752e-05
-8.62559e-07
1.46294e-05
-1.01662e-06
1.46034e-05
-8.2966e-07
1.45566e-05
-8.56199e-07
1.44737e-05
-1.0131e-06
1.43642e-05
-1.13709e-06
1.42649e-05
-1.10282e-06
1.40638e-05
-1.7216e-06
1.3846e-05
-2.00792e-06
-2.56264e-06
1.3636e-05
1.33504e-05
-6.5226e-06
1.368e-05
-6.21214e-06
1.3948e-05
-3.12836e-06
1.42097e-05
-2.42936e-06
1.43873e-05
-2.1244e-06
1.44196e-05
-1.88716e-06
1.43867e-05
-1.64557e-06
1.43444e-05
-1.30419e-06
1.42511e-05
-1.19684e-06
1.41494e-05
-9.82268e-07
1.40677e-05
-7.80824e-07
1.39262e-05
-8.75098e-07
1.38196e-05
-7.23032e-07
1.36982e-05
-7.34868e-07
1.3543e-05
-8.57896e-07
1.33758e-05
-9.69882e-07
1.32143e-05
-9.4126e-07
1.29417e-05
-1.44901e-06
1.2653e-05
-1.71923e-06
-2.26163e-06
1.2352e-05
1.34716e-05
-7.49415e-06
1.37502e-05
-6.49083e-06
1.40085e-05
-3.3866e-06
1.41337e-05
-2.55456e-06
1.40854e-05
-2.0761e-06
1.39047e-05
-1.7065e-06
1.3681e-05
-1.42186e-06
1.34778e-05
-1.10095e-06
1.32521e-05
-9.71177e-07
1.30574e-05
-7.87528e-07
1.28957e-05
-6.19104e-07
1.27007e-05
-6.80104e-07
1.25492e-05
-5.71536e-07
1.23889e-05
-5.74612e-07
1.22019e-05
-6.70839e-07
1.20049e-05
-7.72937e-07
1.18105e-05
-7.46835e-07
1.1505e-05
-1.14355e-06
1.11689e-05
-1.38307e-06
-1.60778e-06
1.0515e-05
1.35826e-05
-8.57672e-06
1.36611e-05
-6.56935e-06
1.36302e-05
-3.35574e-06
1.33924e-05
-2.31671e-06
1.30216e-05
-1.70534e-06
1.2626e-05
-1.31084e-06
1.22616e-05
-1.05755e-06
1.19639e-05
-8.03212e-07
1.16818e-05
-6.89042e-07
1.14544e-05
-5.60166e-07
1.12659e-05
-4.30599e-07
1.10619e-05
-4.76137e-07
1.0899e-05
-4.08553e-07
1.07292e-05
-4.04843e-07
1.05377e-05
-4.79335e-07
1.03328e-05
-5.68094e-07
1.01276e-05
-5.41596e-07
9.81611e-06
-8.32067e-07
9.4716e-06
-1.03856e-06
-1.10143e-06
8.96525e-06
1.34063e-05
-9.48302e-06
1.28911e-05
-6.05417e-06
1.23298e-05
-2.79445e-06
1.17093e-05
-1.69622e-06
1.11361e-05
-1.13207e-06
1.06577e-05
-8.32458e-07
1.02638e-05
-6.63634e-07
9.95625e-06
-4.9568e-07
9.68357e-06
-4.16362e-07
9.46781e-06
-3.44406e-07
9.29058e-06
-2.53374e-07
9.1062e-06
-2.91755e-07
8.95356e-06
-2.55913e-07
8.79614e-06
-2.47416e-07
8.61886e-06
-3.02065e-07
8.42337e-06
-3.72597e-07
8.22572e-06
-3.43951e-07
7.93355e-06
-5.39898e-07
7.59303e-06
-6.98039e-07
-7.00149e-07
7.19175e-06
1.24213e-05
-9.40437e-06
1.10063e-05
-4.6391e-06
9.98266e-06
-1.77084e-06
9.19695e-06
-9.10513e-07
8.62016e-06
-5.55283e-07
8.18885e-06
-4.01149e-07
7.84864e-06
-3.23429e-07
7.58985e-06
-2.36889e-07
7.36826e-06
-1.94772e-07
7.19189e-06
-1.68035e-07
7.05168e-06
-1.13163e-07
6.90344e-06
-1.43515e-07
6.77638e-06
-1.2885e-07
6.64775e-06
-1.18789e-07
6.49883e-06
-1.53138e-07
6.32705e-06
-2.00822e-07
6.15609e-06
-1.72989e-07
5.902e-06
-2.85806e-07
5.58707e-06
-3.83114e-07
-3.71457e-07
5.25838e-06
1.01085e-05
-7.0129e-06
7.83143e-06
-2.362e-06
6.71181e-06
-6.5122e-07
6.05916e-06
-2.57869e-07
5.64578e-06
-1.41898e-07
5.34911e-06
-1.0448e-07
5.11458e-06
-8.89021e-08
4.94028e-06
-6.25902e-08
4.79491e-06
-4.94034e-08
4.67488e-06
-4.80021e-08
4.5874e-06
-2.56808e-08
4.48507e-06
-4.11847e-08
4.3955e-06
-3.928e-08
4.30832e-06
-3.1612e-08
4.20077e-06
-4.5581e-08
4.0678e-06
-6.78578e-08
3.94472e-06
-4.99042e-08
3.7496e-06
-9.06814e-08
3.4972e-06
-1.30721e-07
-1.3457e-07
3.26032e-06
5.4871e-06
3.1251e-06
2.47388e-06
2.21601e-06
2.07411e-06
1.96963e-06
1.88073e-06
1.81814e-06
1.76874e-06
1.72074e-06
1.69506e-06
1.65387e-06
1.61459e-06
1.58298e-06
1.5374e-06
1.46954e-06
1.41964e-06
1.32896e-06
1.19823e-06
1.06366e-06
2.88301e-06
-1.91198e-07
-4.97015e-07
3.0793e-06
-1.17405e-06
9.77759e-07
3.07882e-06
-1.68925e-06
1.68973e-06
2.88167e-06
-7.66076e-07
9.63229e-07
3.05941e-06
-2.72564e-07
9.48254e-08
4.22003e-06
-1.78801e-07
-9.81826e-07
5.95945e-06
2.6852e-06
-4.42461e-06
8.02364e-06
4.45925e-06
-6.52345e-06
9.61861e-06
3.56582e-06
-5.16079e-06
1.06831e-05
3.7952e-06
-4.85971e-06
1.16943e-05
4.01351e-06
-5.02466e-06
1.21799e-05
2.59331e-06
-3.07899e-06
1.26052e-05
1.78963e-06
-2.21487e-06
1.32239e-05
6.82125e-07
-1.30081e-06
1.37214e-05
-8.47869e-07
3.50374e-07
1.42022e-05
-1.28225e-06
8.01421e-07
1.45143e-05
-3.61724e-06
3.30515e-06
1.44421e-05
-5.92869e-06
6.00089e-06
1.4211e-05
-6.92349e-06
7.15458e-06
1.39908e-05
-8.8078e-06
9.02802e-06
1.36004e-05
-1.03246e-05
1.07151e-05
1.33994e-05
-1.2012e-05
1.22129e-05
1.37379e-05
-1.33346e-05
1.2996e-05
1.45993e-05
-1.46097e-05
1.37483e-05
1.50912e-05
-1.66474e-05
1.61555e-05
1.50855e-05
-1.75639e-05
1.75696e-05
1.44221e-05
-1.80125e-05
1.86759e-05
1.34702e-05
-1.81016e-05
1.90535e-05
1.25034e-05
-1.65966e-05
1.75634e-05
1.16536e-05
-1.66114e-05
1.74612e-05
1.08237e-05
-1.57291e-05
1.6559e-05
1.0016e-05
-1.44779e-05
1.52856e-05
9.35748e-06
-1.43591e-05
1.50176e-05
8.55084e-06
-1.39931e-05
1.47997e-05
7.71285e-06
-1.24622e-05
1.33002e-05
6.88462e-06
-1.20692e-05
1.28974e-05
6.2583e-06
-1.26974e-05
1.33237e-05
5.33161e-06
-1.18212e-05
1.27479e-05
4.07038e-06
-1.26737e-05
1.3935e-05
3.18625e-06
-1.17978e-05
1.26819e-05
2.31718e-06
-8.04893e-06
8.91799e-06
1.55787e-06
-4.02516e-06
4.78448e-06
1.04682e-06
1.02259e-06
-5.11543e-07
7.45114e-07
6.80697e-06
-6.50526e-06
4.01944e-07
1.29975e-05
-1.26544e-05
-1.19465e-08
1.86113e-05
-1.81974e-05
-8.00989e-07
2.37738e-05
-2.29847e-05
-6.86976e-07
2.78798e-05
-2.79938e-05
9.98964e-08
3.02642e-05
-3.1051e-05
1.95899e-06
2.74987e-05
-2.93577e-05
3.65779e-06
2.20364e-05
-2.37353e-05
5.0919e-06
1.87419e-05
-2.0176e-05
5.98259e-06
1.53153e-05
-1.6206e-05
7.01336e-06
1.10871e-05
-1.21179e-05
8.34218e-06
7.36621e-06
-8.69503e-06
1.00156e-05
2.79743e-06
-4.47085e-06
1.09733e-05
-2.27295e-06
1.31521e-06
1.07136e-05
-4.15048e-06
4.41021e-06
1.08379e-05
-5.90342e-06
5.77909e-06
1.15719e-05
-9.77258e-06
9.03861e-06
1.2034e-05
-1.31036e-05
1.26414e-05
1.20403e-05
-1.51224e-05
1.51161e-05
1.17739e-05
-1.6105e-05
1.63715e-05
1.14464e-05
-1.62555e-05
1.6583e-05
1.1222e-05
-1.686e-05
1.70843e-05
1.10244e-05
-1.78818e-05
1.80794e-05
1.07447e-05
-1.80139e-05
1.82936e-05
1.05386e-05
-1.79605e-05
1.81666e-05
1.05046e-05
-1.915e-05
1.9184e-05
1.03701e-05
-2.06588e-05
2.07932e-05
9.85757e-06
-2.05927e-05
2.11052e-05
9.00647e-06
-1.87411e-05
1.95922e-05
8.14562e-06
-1.64666e-05
1.73275e-05
7.56326e-06
-1.51557e-05
1.57381e-05
7.3268e-06
-1.52555e-05
1.54919e-05
7.3739e-06
-1.62375e-05
1.61903e-05
7.60988e-06
-1.79537e-05
1.77177e-05
7.93242e-06
-2.00937e-05
1.97711e-05
8.26079e-06
-2.17403e-05
2.1412e-05
8.53953e-06
-2.27219e-05
2.24431e-05
8.72121e-06
-2.28845e-05
2.27028e-05
8.80992e-06
-2.20037e-05
2.1915e-05
8.86508e-06
-2.0329e-05
2.02738e-05
8.91933e-06
-1.82918e-05
1.82376e-05
8.95281e-06
-1.59343e-05
1.59009e-05
8.95757e-06
-1.30095e-05
1.30047e-05
8.97645e-06
-9.50087e-06
9.48199e-06
8.97308e-06
-5.7983e-06
5.80168e-06
8.88054e-06
-2.12994e-06
2.22247e-06
8.77324e-06
1.75223e-06
-1.64493e-06
8.77204e-06
5.43432e-06
-5.43313e-06
8.75735e-06
8.4506e-06
-8.4359e-06
8.67092e-06
1.10582e-05
-1.09717e-05
8.52866e-06
1.3924e-05
-1.37817e-05
8.42502e-06
1.6304e-05
-1.62003e-05
8.38393e-06
1.70915e-05
-1.70504e-05
8.3507e-06
1.63354e-05
-1.63021e-05
8.24964e-06
1.53536e-05
-1.52525e-05
8.13041e-06
1.52265e-05
-1.51073e-05
8.08586e-06
1.62034e-05
-1.61588e-05
8.1511e-06
1.7617e-05
-1.76823e-05
8.22772e-06
1.85998e-05
-1.86764e-05
8.25083e-06
1.8514e-05
-1.85371e-05
8.25921e-06
1.72691e-05
-1.72774e-05
8.22376e-06
1.52766e-05
-1.52411e-05
8.12037e-06
1.3072e-05
-1.29686e-05
7.95628e-06
1.10809e-05
-1.09168e-05
7.8082e-06
9.47543e-06
-9.32735e-06
7.65435e-06
8.24402e-06
-8.09017e-06
7.54219e-06
7.18498e-06
-7.07282e-06
7.45e-06
6.27861e-06
-6.18642e-06
7.35276e-06
5.46245e-06
-5.36521e-06
7.26868e-06
4.75709e-06
-4.67301e-06
7.16715e-06
4.18051e-06
-4.07898e-06
7.08996e-06
3.69944e-06
-3.62226e-06
7.0062e-06
3.33031e-06
-3.24654e-06
6.93274e-06
3.07164e-06
-2.99818e-06
6.85423e-06
2.87324e-06
-2.79473e-06
6.79103e-06
2.7238e-06
-2.6606e-06
6.72972e-06
2.60643e-06
-2.54512e-06
6.69369e-06
2.45826e-06
-2.42222e-06
6.67549e-06
2.30726e-06
-2.28907e-06
6.67337e-06
2.14469e-06
-2.14257e-06
6.68697e-06
1.96371e-06
-1.97731e-06
6.71045e-06
1.78061e-06
-1.80409e-06
6.73331e-06
1.62217e-06
-1.64504e-06
6.75644e-06
1.4607e-06
-1.48383e-06
6.77321e-06
1.30968e-06
-1.32645e-06
6.78511e-06
1.20122e-06
-1.21312e-06
6.78727e-06
1.05018e-06
-1.05234e-06
6.77791e-06
1.00239e-06
-9.93032e-07
6.78558e-06
8.34582e-07
-8.42252e-07
6.74383e-06
8.15327e-07
-7.73578e-07
6.75805e-06
7.46001e-07
-7.60218e-07
6.71979e-06
5.72103e-07
-5.33842e-07
6.71228e-06
6.98193e-07
-6.90683e-07
6.70306e-06
4.77234e-07
-4.6802e-07
6.68839e-06
4.86924e-07
-4.72247e-07
6.67097e-06
5.51359e-07
-5.33943e-07
6.69208e-06
3.33173e-07
-3.54285e-07
6.64699e-06
4.78408e-07
-4.33319e-07
6.6821e-06
4.15732e-07
-4.50841e-07
6.65663e-06
3.40086e-07
-3.14613e-07
6.67098e-06
4.37833e-07
-4.52183e-07
6.64748e-06
4.06827e-07
-3.83332e-07
6.68925e-06
3.49628e-07
-3.914e-07
6.63826e-06
4.53109e-07
-4.02118e-07
6.68414e-06
4.26508e-07
-4.72381e-07
6.6521e-06
4.19689e-07
-3.87657e-07
6.69067e-06
4.5071e-07
-4.89276e-07
6.64321e-06
5.32185e-07
-4.84723e-07
6.70266e-06
4.57017e-07
-5.16467e-07
6.65666e-06
5.62058e-07
-5.16057e-07
6.70248e-06
5.52221e-07
-5.98045e-07
6.65927e-06
6.47565e-07
-6.04353e-07
6.72063e-06
5.94242e-07
-6.55598e-07
6.67468e-06
7.208e-07
-6.74853e-07
6.7199e-06
7.20112e-07
-7.65332e-07
6.68994e-06
8.15956e-07
-7.85998e-07
6.73837e-06
8.12743e-07
-8.61174e-07
6.71603e-06
9.21235e-07
-8.98897e-07
6.73979e-06
9.50372e-07
-9.7413e-07
6.74086e-06
1.07489e-06
-1.07596e-06
6.76068e-06
1.09241e-06
-1.11223e-06
6.78626e-06
1.18152e-06
-1.2071e-06
6.76356e-06
1.28611e-06
-1.26341e-06
6.82758e-06
1.38552e-06
-1.44954e-06
6.79106e-06
1.4869e-06
-1.45038e-06
6.88401e-06
1.53114e-06
-1.62408e-06
6.81589e-06
1.71815e-06
-1.65003e-06
6.92777e-06
1.79737e-06
-1.90925e-06
6.85497e-06
2.0035e-06
-1.9307e-06
6.9883e-06
2.02655e-06
-2.15988e-06
6.92074e-06
2.27515e-06
-2.20759e-06
7.01123e-06
2.35182e-06
-2.44232e-06
6.99178e-06
2.6479e-06
-2.62845e-06
7.04655e-06
2.73717e-06
-2.79194e-06
7.11008e-06
3.00931e-06
-3.07284e-06
7.07181e-06
3.18667e-06
-3.1484e-06
7.23423e-06
3.39793e-06
-3.56035e-06
7.12725e-06
3.76776e-06
-3.66079e-06
7.30683e-06
3.94143e-06
-4.12101e-06
7.18746e-06
4.40599e-06
-4.28662e-06
7.30726e-06
4.57539e-06
-4.69519e-06
7.34701e-06
5.07616e-06
-5.11592e-06
7.33642e-06
5.3389e-06
-5.32831e-06
7.4744e-06
5.81185e-06
-5.94983e-06
7.33161e-06
6.41228e-06
-6.26948e-06
7.47769e-06
6.74203e-06
-6.88811e-06
7.44001e-06
7.42644e-06
-7.38875e-06
7.38131e-06
8.05512e-06
-7.99643e-06
7.45838e-06
8.74958e-06
-8.82665e-06
7.21787e-06
9.68658e-06
-9.44608e-06
7.32483e-06
1.03245e-05
-1.04314e-05
7.30365e-06
1.17819e-05
-1.17607e-05
7.05513e-06
1.30786e-05
-1.28301e-05
7.25991e-06
1.46137e-05
-1.48185e-05
6.39795e-06
1.83507e-05
-1.74887e-05
6.28394e-06
2.02672e-05
-2.01531e-05
3.0968e-05
-3.04995e-05
5.81538e-06
5.05964e-06
-5.00456e-07
4.97302e-06
-1.08743e-06
4.96633e-06
-1.68256e-06
5.17292e-06
-9.72671e-07
5.11528e-06
-2.14926e-07
4.85225e-06
8.4234e-08
5.67296e-06
1.86448e-06
7.46532e-06
2.6669e-06
8.8783e-06
2.15284e-06
1.02037e-05
2.46985e-06
1.13988e-05
2.81835e-06
1.20729e-05
1.9192e-06
1.27173e-05
1.14531e-06
1.32543e-05
1.45074e-07
1.37198e-05
-1.31334e-06
1.41658e-05
-1.72832e-06
1.42685e-05
-3.71988e-06
1.40865e-05
-5.74673e-06
1.38259e-05
-6.66292e-06
1.38008e-05
-8.78271e-06
1.39539e-05
-1.04776e-05
1.43315e-05
-1.23896e-05
1.49388e-05
-1.39419e-05
1.5559e-05
-1.52298e-05
1.56081e-05
-1.66966e-05
1.52065e-05
-1.71622e-05
1.43605e-05
-1.71665e-05
1.33796e-05
-1.71207e-05
1.25576e-05
-1.57746e-05
1.18011e-05
-1.58549e-05
1.10541e-05
-1.49821e-05
1.03043e-05
-1.37281e-05
9.61912e-06
-1.3674e-05
8.74881e-06
-1.31228e-05
7.8413e-06
-1.15546e-05
7.035e-06
-1.12629e-05
6.2874e-06
-1.19498e-05
5.35214e-06
-1.08859e-05
3.9978e-06
-1.13194e-05
3.01011e-06
-1.08101e-05
2.10284e-06
-7.14167e-06
1.21942e-06
-3.14173e-06
4.68178e-07
1.77383e-06
-1.23213e-07
7.39836e-06
-5.4823e-07
1.34226e-05
-1.0187e-06
1.90817e-05
-1.6655e-06
2.44206e-05
-1.10493e-06
2.73192e-05
4.24483e-07
2.87348e-05
2.41051e-06
2.55126e-05
4.03448e-06
2.04125e-05
5.17001e-06
1.76064e-05
6.18426e-06
1.4301e-05
7.49148e-06
9.77986e-06
8.94084e-06
5.91685e-06
1.05351e-05
1.20322e-06
1.09308e-05
-2.66872e-06
1.0667e-05
-3.8867e-06
1.11969e-05
-6.4333e-06
1.20124e-05
-1.05881e-05
1.23408e-05
-1.34319e-05
1.22364e-05
-1.50181e-05
1.19185e-05
-1.57871e-05
1.15936e-05
-1.59306e-05
1.1397e-05
-1.66633e-05
1.11692e-05
-1.7654e-05
1.08252e-05
-1.76699e-05
1.05895e-05
-1.77248e-05
1.05087e-05
-1.90692e-05
1.02558e-05
-2.04059e-05
9.612e-06
-1.99489e-05
8.68614e-06
-1.78152e-05
7.80908e-06
-1.55896e-05
7.25884e-06
-1.46055e-05
7.0641e-06
-1.50608e-05
7.09585e-06
-1.62692e-05
7.27727e-06
-1.81351e-05
7.53404e-06
-2.03504e-05
7.76779e-06
-2.19741e-05
7.92433e-06
-2.28784e-05
8.00348e-06
-2.29636e-05
8.02932e-06
-2.20296e-05
8.04226e-06
-2.03419e-05
8.06282e-06
-1.83124e-05
8.06249e-06
-1.5934e-05
8.01677e-06
-1.29638e-05
7.98119e-06
-9.46529e-06
7.93681e-06
-5.75393e-06
7.84996e-06
-2.04309e-06
7.77946e-06
1.82273e-06
7.82045e-06
5.39334e-06
7.85125e-06
8.41979e-06
7.76221e-06
1.11472e-05
7.66546e-06
1.40207e-05
7.65228e-06
1.63171e-05
7.68514e-06
1.70586e-05
7.72409e-06
1.62964e-05
7.7071e-06
1.53706e-05
7.63941e-06
1.52942e-05
7.59167e-06
1.62511e-05
7.6248e-06
1.75839e-05
7.7454e-06
1.84792e-05
7.85899e-06
1.84004e-05
7.90584e-06
1.72222e-05
7.91028e-06