/*--------------------------------*- C++ -*----------------------------------*\
| =========                 |                                                 |
| \\      /  F ield         | OpenFOAM: The Open Source CFD Toolbox           |
|  \\    /   O peration     | Version:  2.4.0                                 |
|   \\  /    A nd           | Web:      www.OpenFOAM.org                      |
|    \\/     M anipulation  |                                                 |
\*---------------------------------------------------------------------------*/
FoamFile
{
    version     2.0;
    format      ascii;
    class       volScalarField;
    location    "0.005";
    object      epsilon;
}
// * * * * * * * * * * * * * * * * * * * * * * * * * * * * * * * * * * * * * //

dimensions      [0 2 -3 0 0 0 0];

internalField   nonuniform List<scalar> 
17600
(
289.884
448.319
585.79
685.683
746.55
774.856
779.452
768.534
748.501
723.884
697.683
671.787
647.322
624.91
604.849
587.229
572
559.027
547.93
540.502
38.1426
61.6304
80.4449
95.0116
105.269
111.979
116.232
119.034
121.169
123.187
125.443
128.144
131.387
135.179
139.468
144.148
149.084
154.126
159.332
165.403
13.4547
19.1235
23.7379
27.3408
29.9623
31.7475
32.9159
33.697
34.2949
34.8749
35.5629
36.4509
37.6029
39.0602
40.8458
42.9663
45.4142
48.1735
51.2907
55.0991
8.97988
10.7717
12.4021
13.746
14.7677
15.4846
15.947
16.2179
16.3615
16.4364
16.4935
16.5748
16.7143
16.9395
17.2722
17.7298
18.3264
19.0756
20.0119
21.223
7.81791
8.38162
8.99671
9.55481
10.007
10.3385
10.5552
10.6735
10.7147
10.7008
10.6529
10.59
10.5286
10.4826
10.4639
10.4824
10.5467
10.6651
10.8522
11.1265
7.45707
7.54132
7.71181
7.90259
8.07319
8.20271
8.28377
8.31722
8.30851
8.26543
8.19666
8.11082
8.01601
7.91952
7.82777
7.74632
7.68006
7.63352
7.61287
7.62259
7.33725
7.2203
7.1747
7.16909
7.1773
7.18148
7.17146
7.14268
7.09432
7.02793
6.94638
6.8532
6.75216
6.64695
6.54102
6.4375
6.33927
6.24892
6.16954
6.10279
7.29643
7.09458
6.94231
6.82805
6.73795
6.65995
6.58523
6.5082
6.42579
6.33679
6.24128
6.14015
6.03479
5.92679
5.81786
5.70964
5.60373
5.50163
5.40503
5.31484
7.28236
7.04529
6.84154
6.66815
6.5191
6.38746
6.2671
6.15322
6.04244
5.93261
5.82256
5.71185
5.60056
5.48907
5.378
5.26806
5.16003
5.05467
4.95288
4.85531
7.27747
7.02608
6.79829
6.59391
6.41072
6.24527
6.09381
5.95291
5.81973
5.69208
5.56842
5.44773
5.32942
5.21322
5.09909
4.98716
4.87766
4.77087
4.6672
4.56714
7.27575
7.01863
6.77999
6.56
6.3579
6.17208
6.00042
5.8407
5.69082
5.54895
5.41363
5.28369
5.15828
5.03682
4.9189
4.80431
4.69294
4.58475
4.47985
4.37859
7.27512
7.01574
6.77233
6.54477
6.33266
6.13513
5.95099
5.77883
5.61719
5.4647
5.3201
5.18232
5.0505
4.92392
4.80203
4.68442
4.57079
4.46092
4.35471
4.25242
7.27488
7.0146
6.76914
6.53803
6.32081
6.11685
5.92536
5.74539
5.57592
5.41593
5.26442
5.12049
4.98333
4.85224
4.72664
4.60603
4.49003
4.37831
4.27064
4.16725
7.27478
7.01414
6.7678
6.53506
6.31533
6.10798
5.91235
5.7277
5.55327
5.38827
5.2319
5.08342
4.94212
4.80737
4.67859
4.5553
4.43706
4.3235
4.21434
4.10978
7.27473
7.01394
6.76723
6.53376
6.31282
6.10373
5.90585
5.71852
5.54109
5.3729
5.21329
5.06163
4.91731
4.77976
4.64846
4.52294
4.40276
4.28755
4.177
4.07131
7.27471
7.01385
6.76697
6.53317
6.31166
6.10172
5.90266
5.71385
5.53468
5.36454
5.20287
5.0491
4.90268
4.76312
4.62994
4.50268
4.38095
4.26436
4.1526
4.0459
7.27469
7.01379
6.76685
6.5329
6.31113
6.10077
5.90111
5.7115
5.53136
5.36009
5.19716
5.04205
4.89426
4.75333
4.61881
4.49029
4.36738
4.24972
4.13701
4.02948
7.27467
7.01376
6.76678
6.53277
6.31088
6.10031
5.90036
5.71035
5.52968
5.35778
5.19412
5.0382
4.88956
4.74775
4.61235
4.48298
4.35925
4.24082
4.1274
4.01924
7.27467
7.01374
6.76675
6.5327
6.31076
6.1001
5.90001
5.7098
5.52886
5.35663
5.19258
5.03623
4.8871
4.74478
4.60885
4.47895
4.35471
4.2358
4.12192
4.01333
7.27466
7.01373
6.76673
6.53268
6.31071
6.10002
5.89987
5.70958
5.52854
5.35617
5.19195
5.03539
4.88605
4.74349
4.60733
4.47718
4.35269
4.23354
4.11944
4.01064
7.27466
7.01373
6.76673
6.53268
6.31071
6.10002
5.89987
5.70958
5.52854
5.35617
5.19195
5.03539
4.88605
4.74349
4.60733
4.47718
4.35269
4.23354
4.11943
4.01063
7.27467
7.01374
6.76675
6.5327
6.31076
6.1001
5.90001
5.7098
5.52886
5.35663
5.19258
5.03622
4.8871
4.74478
4.60885
4.47895
4.35471
4.23579
4.1219
4.0133
7.27467
7.01376
6.76678
6.53277
6.31088
6.10031
5.90036
5.71035
5.52968
5.35778
5.19412
5.0382
4.88956
4.74775
4.61235
4.48297
4.35924
4.24081
4.12737
4.01918
7.27469
7.01379
6.76685
6.5329
6.31113
6.10077
5.90111
5.7115
5.53136
5.36009
5.19716
5.04205
4.89426
4.75333
4.61881
4.49029
4.36738
4.24971
4.13698
4.02941
7.27471
7.01385
6.76697
6.53317
6.31166
6.10172
5.90266
5.71385
5.53468
5.36454
5.20287
5.0491
4.90268
4.76312
4.62994
4.50268
4.38094
4.26434
4.15257
4.04583
7.27473
7.01394
6.76723
6.53376
6.31282
6.10373
5.90585
5.71852
5.54109
5.3729
5.21329
5.06163
4.91731
4.77976
4.64846
4.52294
4.40276
4.28754
4.17697
4.07124
7.27478
7.01414
6.7678
6.53506
6.31533
6.10798
5.91235
5.7277
5.55327
5.38827
5.2319
5.08342
4.94212
4.80737
4.67859
4.5553
4.43706
4.3235
4.21432
4.10973
7.27488
7.0146
6.76914
6.53803
6.32081
6.11685
5.92536
5.74539
5.57592
5.41593
5.26442
5.12049
4.98333
4.85224
4.72664
4.60604
4.49005
4.37832
4.27063
4.1672
7.27512
7.01574
6.77233
6.54477
6.33266
6.13513
5.95099
5.77883
5.61719
5.4647
5.3201
5.18233
5.0505
4.92392
4.80204
4.68443
4.57081
4.46095
4.3547
4.25235
7.27575
7.01863
6.77999
6.56
6.3579
6.17208
6.00042
5.8407
5.69082
5.54895
5.41363
5.28369
5.15828
5.03682
4.91892
4.80434
4.69298
4.58479
4.47982
4.37843
7.27747
7.02608
6.79829
6.59391
6.41072
6.24527
6.09381
5.95291
5.81973
5.69208
5.56842
5.44773
5.32942
5.21323
5.09912
4.9872
4.87771
4.77091
4.6671
4.56671
7.28236
7.04529
6.84154
6.66815
6.5191
6.38746
6.2671
6.15322
6.04244
5.93261
5.82256
5.71186
5.60057
5.48909
5.37804
5.26812
5.16011
5.05471
4.95257
4.85418
7.29643
7.09458
6.94231
6.82804
6.73795
6.65995
6.58523
6.5082
6.42579
6.33679
6.24128
6.14016
6.0348
5.92682
5.81791
5.70973
5.60384
5.50162
5.4042
5.3119
7.33725
7.2203
7.1747
7.16909
7.1773
7.18148
7.17145
7.14267
7.09432
7.02793
6.94638
6.85321
6.75219
6.647
6.5411
6.43765
6.33942
6.24875
6.16737
6.09484
7.45707
7.54132
7.7118
7.90258
8.07318
8.20271
8.28377
8.31721
8.3085
8.26543
8.19667
8.11084
8.01605
7.9196
7.82792
7.74656
7.68028
7.63291
7.60694
7.59931
7.81791
8.38162
8.99671
9.55481
10.007
10.3385
10.5551
10.6735
10.7147
10.7008
10.653
10.5901
10.5287
10.4828
10.4642
10.4828
10.547
10.6632
10.8348
11.05
8.97988
10.7717
12.4021
13.746
14.7677
15.4846
15.947
16.2179
16.3614
16.4364
16.4936
16.5749
16.7145
16.9399
17.2729
17.7308
18.3269
19.0696
19.9585
20.9534
13.4547
19.1235
23.7379
27.3407
29.9623
31.7475
32.9158
33.697
34.2949
34.8749
35.563
36.4511
37.6032
39.061
40.8472
42.9683
45.4147
48.159
51.15
54.277
38.1426
61.6304
80.4448
95.0115
105.269
111.979
116.232
119.034
121.169
123.187
125.443
128.145
131.387
135.18
139.469
144.149
149.081
154.104
159.043
163.773
289.884
448.319
585.789
685.683
746.55
774.856
779.452
768.534
748.501
723.883
697.682
671.785
647.318
624.903
604.837
587.209
571.972
558.989
548.107
538.804
676.565
787.412
861.892
908.385
930.521
932.29
919.306
896.728
868.826
838.808
808.797
780.007
752.996
727.954
704.849
683.541
663.855
645.628
628.719
613.011
598.397
584.777
572.054
560.139
548.953
538.42
528.472
519.047
510.087
501.538
493.35
485.478
477.88
470.521
463.367
456.39
449.566
442.872
436.293
429.812
423.418
417.105
410.868
404.705
398.62
392.62
386.714
380.915
375.238
369.703
364.329
359.139
354.156
349.404
344.907
340.687
336.764
333.157
329.881
326.946
324.357
322.114
320.211
318.636
317.37
316.391
315.67
315.177
314.878
314.739
314.726
314.806
314.948
315.121
315.3
315.458
315.574
315.626
315.596
315.466
315.223
314.851
314.339
313.678
312.859
311.875
310.724
309.402
307.908
306.243
304.407
302.404
300.235
297.905
295.415
292.772
289.981
287.047
283.976
280.775
277.449
274.003
270.444
266.775
263.003
259.133
255.171
251.123
246.995
242.795
238.527
234.199
229.818
225.389
220.92
216.417
211.887
207.335
202.769
198.194
193.616
189.042
184.477
179.926
175.396
170.892
166.418
161.98
157.582
153.229
148.925
144.674
140.481
136.348
132.279
128.278
124.347
120.489
116.706
113.001
109.375
105.831
102.37
98.9938
95.7029
92.4986
89.3818
86.353
83.4127
80.5613
77.7989
75.1255
72.5411
70.0455
67.6384
65.3194
63.088
60.9438
58.8861
56.9143
55.0279
53.2262
51.5085
49.8743
48.3231
46.8543
45.4676
44.1628
42.9397
41.7984
40.7392
39.7628
38.87
38.0617
37.3359
36.6871
36.1183
35.6337
35.2389
34.9408
34.7487
34.6743
34.7331
34.9453
35.3387
35.9513
36.8371
38.0756
39.7886
42.1732
45.5672
50.5861
58.4091
71.3552
93.9789
134.95
211.052
357.517
703.968
1380.63
174.102
191.1
215.815
247.717
285.343
326.568
368.862
409.627
446.557
477.953
502.885
521.19
533.324
540.15
542.708
542.027
539.008
534.368
528.645
522.22
515.357
508.24
500.994
493.709
486.448
479.257
472.166
465.193
458.344
451.618
445.008
438.505
432.095
425.767
419.51
413.313
407.167
401.067
395.006
388.982
382.995
377.046
371.141
365.288
359.496
353.779
348.154
342.639
337.254
332.025
326.974
322.128
317.514
313.158
309.088
305.328
301.903
298.833
296.136
293.825
291.908
290.385
289.253
288.498
288.1
288.033
288.264
288.755
289.464
290.346
291.357
292.455
293.598
294.748
295.872
296.939
297.924
298.803
299.558
300.17
300.627
300.915
301.025
300.948
300.678
300.211
299.545
298.679
297.613
296.35
294.892
293.242
291.405
289.386
287.19
284.823
282.292
279.604
276.766
273.784
270.665
267.416
264.043
260.553
256.95
253.241
249.434
245.534
241.548
237.483
233.346
229.143
224.883
220.571
216.214
211.82
207.394
202.945
198.477
193.998
189.514
185.03
180.553
176.089
171.642
167.219
162.825
158.464
154.142
149.863
145.631
141.451
137.327
133.261
129.259
125.322
121.453
117.657
113.934
110.288
106.72
103.232
99.8259
96.503
93.2645
90.1114
87.0445
84.0646
81.172
78.3672
75.6502
73.0213
70.4802
68.0268
65.6609
63.382
61.1898
59.0836
57.063
55.1272
53.2757
51.5079
49.8231
48.2206
46.7
45.2608
43.9025
42.6248
41.4277
40.311
39.2752
38.3208
37.4485
36.6591
35.9498
35.3162
34.7612
34.2891
33.9052
33.6163
33.4314
33.362
33.4232
33.6351
34.0247
34.6294
35.5021
36.7205
38.4037
40.7439
44.0711
48.9887
56.663
69.418
91.8867
133.066
210.293
360.548
682.954
1195.06
56.3226
58.0849
60.6752
64.5252
70.2132
78.1142
88.5172
101.647
117.561
136.103
156.885
179.303
202.589
225.898
248.402
269.377
288.273
304.749
318.67
330.076
339.142
346.122
351.3
354.96
357.355
358.704
359.185
358.939
358.081
356.7
354.87
352.649
350.087
347.226
344.101
340.743
337.177
333.427
329.516
325.463
321.289
317.016
312.663
308.255
303.815
299.369
294.944
290.568
286.271
282.083
278.037
274.163
270.496
267.067
263.908
261.049
258.519
256.345
254.548
253.149
252.161
251.591
251.439
251.698
252.351
253.375
254.735
256.39
258.293
260.392
262.633
264.962
267.328
269.681
271.977
274.18
276.256
278.177
279.923
281.474
282.817
283.94
284.835
285.496
285.919
286.102
286.045
285.75
285.219
284.457
283.469
282.259
280.835
279.202
277.369
275.345
273.137
270.754
268.204
265.495
262.634
259.631
256.491
253.223
249.832
246.326
242.712
238.997
235.188
231.293
227.32
223.274
219.165
214.999
210.784
206.526
202.232
197.91
193.567
189.208
184.84
180.469
176.102
171.745
167.403
163.081
158.785
154.521
150.293
146.105
141.962
137.869
133.829
129.846
125.924
122.065
118.273
114.551
110.901
107.326
103.827
100.406
97.0654
93.8063
90.6299
87.5374
84.5295
81.607
78.7704
76.02
73.3561
70.7787
68.2878
65.8833
63.5648
61.3321
59.1846
57.1219
55.1435
53.2486
51.4368
49.7073
48.0595
46.4928
45.0066
43.6004
42.2737
41.0263
39.858
38.7688
37.7588
36.8285
35.9787
35.2101
34.5191
33.9023
33.3627
32.9042
32.532
32.2527
32.075
32.0101
32.0727
32.2823
32.6652
33.2576
34.111
35.3006
36.9412
39.2179
42.4479
47.2121
54.6387
66.9979
88.8581
129.182
204.893
350.953
633.834
1025.96
21.5649
21.9243
22.3267
22.8115
23.4483
24.3188
25.553
27.2543
29.552
32.592
36.5294
41.5179
47.694
55.1588
63.9581
74.0666
85.3778
97.7034
110.784
124.306
137.934
151.332
164.197
176.281
187.396
197.426
206.319
214.074
220.73
226.352
231.019
234.812
237.811
240.092
241.722
242.762
243.268
243.292
242.881
242.08
240.932
239.478
237.759
235.815
233.685
231.409
229.026
226.576
224.098
221.632
219.217
216.894
214.702
212.679
210.864
209.293
208.001
207.022
206.386
206.12
206.247
206.783
207.739
209.118
210.912
213.105
215.67
218.569
221.755
225.173
228.764
232.462
236.205
239.931
243.584
247.114
250.478
253.641
256.575
259.258
261.674
263.81
265.66
267.218
268.482
269.455
270.137
270.534
270.651
270.495
270.073
269.393
268.465
267.295
265.898
264.286
262.466
260.45
258.246
255.864
253.314
250.605
247.745
244.743
241.607
238.343
234.96
231.466
227.87
224.178
220.4
216.543
212.614
208.623
204.576
200.481
196.345
192.176
187.98
183.764
179.535
175.3
171.065
166.835
162.617
158.416
154.238
150.088
145.971
141.892
137.855
133.865
129.925
126.04
122.213
118.447
114.746
111.112
107.547
104.055
100.637
97.2958
94.0322
90.848
87.7446
84.7231
81.7842
78.9289
76.1575
73.4706
70.8684
68.351
65.9184
63.5705
61.3069
59.1275
57.0317
55.0191
53.0892
51.2413
49.4748
47.7891
46.1836
44.6576
43.2105
41.8419
40.5512
39.3381
38.2024
37.144
36.1631
35.2601
34.4356
33.6903
33.02
32.4221
31.8995
31.4559
31.0964
30.8273
30.657
30.5962
30.6591
30.8645
31.2378
31.8138
32.6418
33.7939
35.3796
37.5746
40.6791
45.2417
52.3301
64.1049
84.9389
123.439
195.45
331.857
575.84
875.061
11.2046
11.2813
11.3581
11.438
11.5288
11.6402
11.7853
11.9864
12.2631
12.6399
13.1467
13.8196
14.7013
15.8416
17.2972
19.131
21.4097
24.201
27.5678
31.5623
36.2184
41.5455
47.5228
54.0969
61.1822
68.665
76.4103
84.2709
92.0975
99.7483
107.097
114.038
120.492
126.401
131.734
136.478
140.635
144.223
147.266
149.795
151.847
153.458
154.669
155.52
156.054
156.313
156.339
156.177
155.87
155.462
154.997
154.518
154.07
153.694
153.434
153.33
153.425
153.757
154.364
155.281
156.541
158.173
160.198
162.635
165.49
168.761
172.436
176.487
180.877
185.553
190.456
195.516
200.66
205.815
210.909
215.876
220.66
225.211
229.491
233.468
237.122
240.435
243.4
246.01
248.265
250.167
251.722
252.936
253.817
254.376
254.623
254.568
254.223
253.599
252.718
251.591
250.229
248.644
246.848
244.852
242.668
240.305
237.774
235.086
232.249
229.27
226.159
222.925
219.577
216.123
212.574
208.937
205.221
201.433
197.583
193.679
189.727
185.736
181.713
177.664
173.598
169.52
165.438
161.357
157.283
153.223
149.182
145.165
141.178
137.225
133.311
129.44
125.617
121.845
118.128
114.47
110.873
107.341
103.875
100.479
97.1554
93.905
90.7301
87.6322
84.6126
81.6726
78.8129
76.0345
73.338
70.7237
68.1919
65.743
63.3767
61.0932
58.8921
56.7731
54.7359
52.78
50.9049
49.11
47.3947
45.7583
44.2003
42.72
41.3167
39.9901
38.7395
37.5647
36.4653
35.4412
34.4927
33.6199
32.8235
32.1039
31.4566
30.8798
30.376
29.9489
29.6032
29.3451
29.1825
29.1257
29.1882
29.388
29.7493
30.3054
31.103
32.2104
33.7308
35.8287
38.7838
43.1049
49.7805
60.8159
80.2805
116.177
182.874
306.377
514.808
746.183
7.62476
7.62637
7.6274
7.62798
7.62913
7.63217
7.63884
7.65253
7.67717
7.71671
7.7761
7.86143
7.98006
8.14085
8.35432
8.63288
8.99105
9.44564
10.016
10.7238
11.5936
12.6515
13.9256
15.4439
17.233
19.3162
21.7105
24.4244
27.4552
30.7882
34.3953
38.2357
42.2579
46.4022
50.604
54.7977
58.9202
62.9139
66.7294
70.3271
73.6774
76.7616
79.5706
82.1046
84.3716
86.3863
88.1692
89.7452
91.143
92.3942
93.5327
94.5941
95.6156
96.6353
97.6924
98.8266
100.078
101.488
103.096
104.944
107.07
109.513
112.308
115.485
119.071
123.08
127.521
132.384
137.65
143.28
149.224
155.413
161.772
168.218
174.664
181.027
187.232
193.21
198.903
204.267
209.267
213.879
218.085
221.877
225.253
228.213
230.764
232.915
234.674
236.056
237.071
237.736
238.063
238.072
237.787
237.222
236.391
235.306
233.982
232.433
230.671
228.709
226.559
224.233
221.742
219.092
216.295
213.36
210.299
207.12
203.835
200.451
196.978
193.426
189.803
186.117
182.376
178.59
174.764
170.908
167.028
163.131
159.224
155.313
151.405
147.506
143.621
139.756
135.917
132.108
128.334
124.599
120.909
117.266
113.675
110.139
106.661
103.244
99.8908
96.6043
93.3865
90.2395
87.165
84.1646
81.2399
78.3919
75.6217
72.9301
70.3177
67.7852
65.3328
62.9606
60.6689
58.4576
56.3264
54.2751
52.3033
50.4107
48.5967
46.8608
45.2024
43.6208
42.1154
40.6857
39.331
38.0507
36.8444
35.7117
34.6522
33.666
32.7529
31.9132
31.1475
30.4562
29.8342
29.2803
28.7971
28.388
28.0575
27.8113
27.657
27.6043
27.6661
27.8594
28.207
28.7403
29.5035
30.5603
32.0069
33.9955
36.7824
40.8313
47.0382
57.2196
75.0627
107.794
168.112
277.182
453.492
635.903
6.08239
6.06207
6.04156
6.02083
6.00006
5.97949
5.95939
5.94044
5.92355
5.90949
5.89922
5.89397
5.89525
5.90488
5.92506
5.9584
6.00791
6.07714
6.17012
6.29147
6.44644
6.64096
6.88168
7.17602
7.53216
7.95901
8.46608
9.06331
9.76074
10.5681
11.4943
12.5467
13.7304
15.0475
16.4965
18.0718
19.7637
21.5582
23.4377
25.382
27.369
29.3762
31.3819
33.366
35.3117
37.2057
39.0391
40.8074
42.511
44.1548
45.748
47.304
48.84
50.3766
51.9377
53.5502
55.2438
57.0508
59.0061
61.147
63.513
66.1451
69.0852
72.3751
76.0546
80.1591
84.7171
89.7465
95.2515
101.22
107.619
114.399
121.49
128.808
136.258
143.74
151.157
158.416
165.436
172.148
178.496
184.437
189.942
194.991
199.573
203.685
207.33
210.514
213.248
215.546
217.422
218.893
219.975
220.704
221.098
221.172
220.943
220.427
219.64
218.598
217.317
215.811
214.094
212.179
210.081
207.806
205.365
202.772
200.036
197.169
194.183
191.086
187.89
184.604
181.237
177.799
174.298
170.742
167.141
163.501
159.831
156.138
152.429
148.71
144.988
141.27
137.562
133.868
130.195
126.548
122.932
119.35
115.809
112.311
108.86
105.461
102.116
98.8289
95.6019
92.4377
89.3388
86.3072
83.3449
80.4535
77.6345
74.8891
72.2185
69.6235
67.1049
64.6632
62.2988
60.012
57.8029
55.6715
53.6176
51.6412
49.7417
47.9189
46.1723
44.5013
42.9054
41.3839
39.9364
38.5621
37.2604
36.0308
34.8729
33.7861
32.7702
31.8249
30.9503
30.1467
29.4143
28.7535
28.159
27.6301
27.1693
26.7797
26.4655
26.2322
26.0869
26.0387
26.0996
26.2857
26.6185
27.1271
27.8528
28.8546
30.221
32.091
34.6964
38.4521
44.1542
53.4098
69.4762
98.7063
152.074
246.427
394.027
540.305
5.28739
5.26029
5.23315
5.20598
5.17882
5.15173
5.12477
5.09812
5.07205
5.04674
5.02238
4.99926
4.97773
4.95823
4.94129
4.92758
4.91786
4.91303
4.91414
4.92237
4.93906
4.96572
5.00401
5.05575
5.12297
5.20783
5.31269
5.4401
5.59273
5.77342
5.98513
6.23085
6.51359
6.83626
7.20156
7.61186
8.06909
8.57457
9.12889
9.73186
10.3824
11.0786
11.8178
12.5966
13.4113
14.2582
15.1337
16.0347
16.9594
17.9068
18.8781
19.8761
20.9059
21.9752
23.0941
24.276
25.5371
26.8974
28.3803
30.0135
31.8286
33.8621
36.1548
38.7515
41.7006
45.0519
48.8548
53.1544
57.9872
63.3761
69.3256
75.8173
82.8081
90.2302
97.9941
105.994
114.116
122.243
130.263
138.077
145.597
152.753
159.491
165.769
171.561
176.85
181.631
185.903
189.674
192.954
195.757
198.101
200.023
201.547
202.692
203.475
203.916
204.033
203.845
203.369
202.625
201.627
200.394
198.939
197.279
195.424
193.383
191.171
188.8
186.283
183.631
180.856
177.969
174.98
171.9
168.738
165.504
162.206
158.855
155.457
152.021
148.555
145.066
141.561
138.046
134.53
131.017
127.514
124.026
120.558
117.117
113.705
110.329
106.991
103.697
100.449
97.2518
94.1077
91.0198
87.9908
85.0232
82.1192
79.2806
76.5094
73.807
71.1747
68.6138
66.1252
63.7096
61.3678
59.1001
56.9069
54.7884
52.7446
50.7755
48.8809
47.0605
45.3139
43.6407
42.0405
40.5127
39.0567
37.672
36.3578
35.1137
33.9391
32.8334
31.7963
30.8273
29.9263
29.0932
28.3281
27.6315
27.0036
26.4385
25.9365
25.4997
25.1311
24.8346
24.6152
24.4795
24.4362
24.4964
24.6751
24.9922
25.4748
26.1608
27.1045
28.3865
30.1319
32.5475
35.9986
41.1789
49.4784
63.7052
89.3068
135.572
215.745
338.04
456.831
4.82559
4.79639
4.76723
4.73813
4.70909
4.68015
4.65129
4.62267
4.59432
4.5663
4.53866
4.51146
4.48478
4.45874
4.43348
4.40918
4.38606
4.36436
4.3444
4.32653
4.31115
4.29872
4.28975
4.2848
4.28449
4.28948
4.30048
4.31822
4.34351
4.37715
4.41999
4.4729
4.53673
4.61237
4.70067
4.80247
4.91857
5.0497
5.19656
5.35972
5.53972
5.73696
5.95178
6.18445
6.43519
6.70423
6.99186
7.29852
7.6249
7.97203
8.34145
8.73533
9.15667
9.60948
10.099
10.6321
11.2174
11.8658
12.5908
13.4094
14.3425
15.4155
16.6598
18.1129
19.8196
21.8324
24.2104
27.0188
30.3247
34.1927
38.6776
43.8169
49.6228
56.0764
63.1255
70.6862
78.6485
86.8849
95.2601
103.641
111.903
119.936
127.651
134.972
141.844
148.227
154.094
159.432
164.236
168.511
172.266
175.542
178.357
180.731
182.682
184.23
185.395
186.2
186.663
186.806
186.648
186.208
185.504
184.553
183.374
181.981
180.381
178.589
176.62
174.488
172.205
169.785
167.238
164.577
161.813
158.956
156.016
153.003
149.927
146.795
143.617
140.401
137.154
133.884
130.598
127.303
124.005
120.711
117.426
114.156
110.905
107.68
104.485
101.323
98.1999
95.1184
92.0823
89.095
86.1594
83.2783
80.4542
77.6895
74.9862
72.3461
69.7709
67.2621
64.8207
62.448
60.1447
57.9115
55.7491
53.6577
51.6376
49.689
47.8118
46.0059
44.2711
42.607
41.0134
39.4897
38.0354
36.65
35.3329
34.0836
32.9014
31.7857
30.7361
29.7522
28.8335
27.9797
27.1909
26.4671
25.8086
25.2155
24.6819
24.2085
23.7973
23.451
23.1732
22.9686
22.8434
22.8054
22.8652
23.0364
23.3374
23.7931
24.4383
25.322
26.517
28.1348
30.3572
33.501
38.1594
45.5092
57.9149
79.9378
119.287
186.31
286.613
383.814
4.53665
4.5068
4.47706
4.44743
4.41792
4.38855
4.35929
4.33026
4.30144
4.27286
4.24453
4.21645
4.18866
4.16117
4.13403
4.10728
4.08098
4.05521
4.03006
4.00564
3.98207
3.95951
3.93813
3.91812
3.8997
3.88308
3.86854
3.85633
3.84674
3.84007
3.83661
3.83668
3.84059
3.84865
3.86116
3.87842
3.90071
3.9283
3.96146
4.00041
4.04538
4.09659
4.15424
4.21853
4.28968
4.36794
4.45358
4.54696
4.64855
4.75892
4.87885
5.00935
5.15173
5.30767
5.47935
5.66957
5.88189
6.12085
6.39226
6.70355
7.06424
7.48654
7.98622
8.58359
9.30484
10.1836
11.2626
12.5954
14.2474
16.2957
18.8265
21.9291
25.6868
30.1642
35.3949
41.3717
48.0429
55.3153
63.0632
71.1411
79.3961
87.6799
95.8567
103.808
111.436
118.661
125.423
131.687
137.42
142.63
147.335
151.54
155.254
158.493
161.274
163.616
165.54
167.068
168.22
169.02
169.487
169.642
169.506
169.097
168.435
167.539
166.416
165.08
163.547
161.833
159.951
157.916
155.74
153.436
151.015
148.49
145.87
143.167
140.389
137.547
134.65
131.705
128.722
125.707
122.669
119.615
116.551
113.484
110.419
107.363
104.321
101.298
98.2991
95.3285
92.3905
89.4891
86.628
83.8105
81.0399
78.3189
75.6502
73.0363
70.4793
67.9811
65.5434
63.1678
60.8557
58.608
56.4259
54.31
52.261
50.2793
48.3653
46.5191
44.7407
43.0302
41.3874
39.812
38.3037
36.862
35.4865
34.1766
32.9319
31.7518
30.6356
29.5829
28.593
27.6656
26.8003
25.9968
25.2549
24.5747
23.9564
23.4
22.8997
22.4565
22.0723
21.7495
21.4915
21.3025
21.1883
21.1562
21.2157
21.3794
21.6642
22.0927
22.6963
23.5194
24.6265
26.1162
28.1463
30.9874
35.1383
41.5748
52.2431
70.8756
103.749
158.92
240.349
320.077
4.34774
4.31764
4.28769
4.25792
4.22832
4.1989
4.16964
4.14061
4.1118
4.08321
4.05485
4.02671
3.99881
3.97114
3.94371
3.91653
3.88962
3.86299
3.83668
3.81071
3.78513
3.75998
3.73532
3.71122
3.68776
3.66501
3.64308
3.62207
3.60208
3.58325
3.5657
3.54955
3.53494
3.52201
3.51088
3.5017
3.49458
3.48966
3.48706
3.48689
3.48925
3.49425
3.50199
3.51258
3.52611
3.54269
3.56246
3.58557
3.6122
3.64258
3.67701
3.71587
3.75962
3.80888
3.86442
3.92724
3.99858
4.08006
4.17374
4.28226
4.40902
4.55849
4.73649
4.95073
5.21149
5.53257
5.9326
6.43678
7.07911
7.90507
8.97434
10.3629
12.1632
14.4797
17.42
21.079
25.5211
30.7636
36.7692
43.4485
50.6706
58.2802
66.1127
74.0069
81.8133
89.4066
96.6748
103.557
110.023
116.032
121.562
126.602
131.15
135.212
138.797
141.922
144.603
146.861
148.715
150.188
151.301
152.075
152.531
152.69
152.572
152.196
151.579
150.728
149.659
148.391
146.938
145.314
143.535
141.613
139.561
137.392
135.116
132.744
130.288
127.757
125.161
122.509
119.808
117.069
114.297
111.502
108.689
105.866
103.038
100.212
97.3939
94.5882
91.8002
89.0346
86.2957
83.5877
80.9143
78.2792
75.6855
73.1363
70.6344
68.1821
65.7819
63.4358
61.1455
58.9127
56.7389
54.6252
52.5727
50.5822
48.6544
46.79
44.9892
43.2524
41.5796
39.9709
38.4261
36.9451
35.5276
34.1731
32.8814
31.6518
30.4839
29.3772
28.331
27.3448
26.4182
25.5505
24.7415
23.9908
23.2983
22.6639
22.0877
21.5699
21.1044
20.6928
20.3367
20.0384
19.801
19.6284
19.5257
19.4997
19.5592
19.7155
19.984
20.3852
20.9472
21.7096
22.7295
24.0927
25.9347
28.4838
32.1524
37.7342
46.7962
62.3244
89.3298
134.071
199.482
264.737
4.22128
4.19097
4.16087
4.131
4.10135
4.07189
4.04267
4.0137
3.98496
3.95646
3.92819
3.90016
3.87235
3.84478
3.81743
3.79031
3.76342
3.73676
3.71033
3.68415
3.65823
3.63257
3.6072
3.58214
3.55741
3.53305
3.50909
3.48557
3.46255
3.44006
3.41816
3.39692
3.37639
3.35664
3.33773
3.31973
3.30271
3.28673
3.27186
3.25817
3.24571
3.23454
3.22472
3.21631
3.20937
3.20396
3.20014
3.19797
3.19755
3.19896
3.20232
3.20777
3.2155
3.22573
3.23873
3.25488
3.27461
3.29851
3.32729
3.36191
3.40355
3.45377
3.5146
3.58871
3.67966
3.79226
3.93305
4.11104
4.33878
4.63384
5.02093
5.5347
6.22314
7.15123
8.40353
10.0835
12.307
15.1878
18.8165
23.2392
28.4426
34.3529
40.8447
47.7573
54.9064
62.1466
69.3607
76.4213
83.2295
89.7076
95.7995
101.467
106.685
111.443
115.737
119.571
122.957
125.908
128.44
130.572
132.325
133.717
134.771
135.505
135.941
136.1
136.002
135.653
135.068
134.266
133.261
132.071
130.708
129.189
127.526
125.732
123.82
121.8
119.685
117.484
115.208
112.865
110.466
108.018
105.53
103.009
100.464
97.8997
95.3241
92.7431
90.1625
87.5878
85.0242
82.4766
79.9494
77.4471
74.9734
72.5321
70.1266
67.76
65.4352
63.1548
60.9212
58.7366
56.6029
54.5218
52.4948
50.5232
48.6083
46.7508
44.9517
43.2116
41.5309
39.9099
38.3488
36.8478
35.4068
34.0256
32.704
31.4418
30.2384
29.0935
28.0065
26.9771
26.0045
25.0883
24.2279
23.423
22.6729
21.9775
21.3365
20.7498
20.2175
19.7396
19.3102
18.9313
18.6044
18.3314
18.1152
17.9594
17.8686
17.849
17.9085
18.0575
18.3097
18.6836
19.2043
19.9067
20.8408
22.0808
23.7418
26.0138
29.2328
34.033
41.6493
54.4183
76.2607
112.015
163.976
217.069
4.13579
4.10523
4.07494
4.04492
4.01515
3.98563
3.95638
3.9274
3.89867
3.87021
3.842
3.81404
3.78633
3.75886
3.73163
3.70463
3.67787
3.65134
3.62503
3.59895
3.5731
3.54749
3.5221
3.49696
3.47206
3.44743
3.42306
3.39899
3.37522
3.35178
3.3287
3.30599
3.2837
3.26184
3.24047
3.2196
3.19928
3.17954
3.16043
3.14197
3.12421
3.10718
3.09092
3.07546
3.06084
3.04708
3.03423
3.02231
3.01137
3.00145
2.99259
2.98485
2.9783
2.97303
2.96914
2.96676
2.96607
2.96727
2.97065
2.97655
2.9854
2.9978
3.01447
3.03638
3.06482
3.10147
3.14864
3.20946
3.28825
3.3911
3.5266
3.70709
3.95033
4.28194
4.73866
5.37222
6.25321
7.47293
9.14042
11.3716
14.2697
17.9006
22.2664
27.3066
32.9455
39.0386
45.4322
51.9728
58.5209
64.9569
71.1834
77.1244
82.7238
87.9423
92.7547
97.1477
101.117
104.665
107.799
110.533
112.881
114.86
116.487
117.781
118.762
119.449
119.864
120.021
119.927
119.599
119.053
118.307
117.374
116.271
115.011
113.608
112.073
110.42
108.66
106.804
104.862
102.844
100.76
98.6183
96.4276
94.1959
91.9308
89.6395
87.3289
85.0054
82.675
80.3434
78.016
75.6978
73.3937
71.1078
68.8444
66.6073
64.4
62.2257
60.0875
57.9881
55.93
53.9154
51.9465
50.0251
48.1527
46.3308
44.5606
42.8431
41.1793
39.5699
38.0154
36.5161
35.0725
33.6846
32.3525
31.0761
29.8551
28.6894
27.5787
26.5224
25.5201
24.5714
23.6757
22.8325
22.0412
21.3015
20.6127
19.9747
19.387
18.8497
18.3626
17.9257
17.5335
17.1883
16.8912
16.6442
16.4497
16.3109
16.2321
16.2189
16.2783
16.4198
16.6557
17.0025
17.4822
18.1257
18.9763
20.0975
21.5861
23.5988
26.4055
30.5044
36.8495
47.2292
64.6479
92.8161
133.604
176.413
4.07798
4.04715
4.01662
3.98639
3.95645
3.9268
3.89746
3.8684
3.83962
3.81113
3.78291
3.75496
3.72728
3.69986
3.67269
3.64578
3.61911
3.59269
3.56651
3.54056
3.51485
3.48936
3.46411
3.43909
3.41431
3.38976
3.36545
3.34138
3.31757
3.29403
3.27076
3.24777
3.22509
3.20273
3.18071
3.15905
3.13776
3.11688
3.09641
3.07639
3.05684
3.03777
3.01921
3.00118
2.9837
2.96678
2.95045
2.93472
2.9196
2.90511
2.89128
2.87811
2.86564
2.85389
2.8429
2.83271
2.82339
2.81502
2.80769
2.80154
2.79673
2.7935
2.79212
2.79296
2.79651
2.80342
2.81452
2.83099
2.85437
2.88683
2.93142
2.99241
3.076
3.19113
3.35089
3.57444
3.88973
4.33698
4.97255
5.8718
7.1286
8.84752
11.1273
14.0557
17.66
21.9101
26.7248
31.9859
37.5567
43.2991
49.0846
54.8011
60.3562
65.6765
70.7068
75.4078
79.7532
83.7281
87.3259
90.5472
93.3977
95.887
98.0274
99.8335
101.321
102.507
103.411
104.053
104.438
104.576
104.486
104.183
103.682
102.998
102.146
101.139
99.9906
98.7124
97.3167
95.8146
94.2169
92.5338
90.7751
88.9498
87.0668
85.1344
83.1603
81.152
79.1166
77.0607
74.9904
72.9118
70.8303
68.7512
66.6792
64.619
62.5748
60.5506
58.5499
56.5762
54.6327
52.7221
50.8471
49.0101
47.2131
45.4583
43.7472
42.0814
40.4623
38.8909
37.3682
35.8951
34.4722
33.0999
31.7787
30.5086
29.2899
28.1226
27.0064
25.9411
24.9266
23.9624
23.048
22.1831
21.3671
20.5994
19.8796
19.2072
18.5817
18.0027
17.4699
16.9832
16.5424
16.1465
15.7927
15.4818
15.2152
14.9944
14.8217
14.7
14.6331
14.626
14.6851
14.8189
15.0383
15.3578
15.7971
16.3829
17.1526
18.1602
19.4864
21.2589
23.6922
27.1717
32.4206
40.7785
54.4978
76.3896
108.009
142.134
4.03917
4.00805
3.97727
3.94681
3.91667
3.88686
3.85737
3.82818
3.79931
3.77073
3.74245
3.71445
3.68675
3.65932
3.63216
3.60527
3.57865
3.55228
3.52617
3.50031
3.4747
3.44933
3.4242
3.39931
3.37467
3.35026
3.32609
3.30217
3.27849
3.25506
3.23189
3.20898
3.18634
3.16399
3.14192
3.12016
3.09872
3.0776
3.05683
3.03642
3.01637
2.9967
2.97743
2.95856
2.94011
2.92208
2.90448
2.88732
2.8706
2.85432
2.83849
2.8231
2.80817
2.79369
2.77966
2.76611
2.75304
2.74048
2.72846
2.71702
2.70622
2.69616
2.68693
2.67869
2.67163
2.666
2.66213
2.66048
2.66164
2.66644
2.67599
2.69188
2.71632
2.75251
2.80506
2.88073
2.98947
3.14591
3.37154
3.69748
4.16781
4.84263
5.80584
7.14992
8.96469
11.3214
14.2552
17.7549
21.7635
26.1885
30.9169
35.8302
40.8152
45.7708
50.6119
55.2699