/*--------------------------------*- C++ -*----------------------------------*\
| =========                 |                                                 |
| \\      /  F ield         | OpenFOAM: The Open Source CFD Toolbox           |
|  \\    /   O peration     | Version:  2.4.0                                 |
|   \\  /    A nd           | Web:      www.OpenFOAM.org                      |
|    \\/     M anipulation  |                                                 |
\*---------------------------------------------------------------------------*/
FoamFile
{
    version     2.0;
    format      ascii;
    class       volSymmTensorField;
    location    "0.005";
    object      UPrime2Mean;
}
// * * * * * * * * * * * * * * * * * * * * * * * * * * * * * * * * * * * * * //

dimensions      [0 2 -2 0 0 0 0];

internalField   nonuniform List<symmTensor> 
17600
(
(0.035986 -0.00560486 0 0.000977951 0 0)
(0.122695 -0.00601084 0 0.000486909 0 0)
(0.280239 -0.0089365 0 0.00050375 0 0)
(0.439861 -0.00775224 0 0.000237234 0 0)
(0.538388 -0.00498805 0 0.000111957 0 0)
(0.59414 -0.00280102 0 7.0911e-05 0 0)
(0.632239 -0.00139736 0 4.79154e-05 0 0)
(0.662114 -0.00050224 0 3.43704e-05 0 0)
(0.686876 -2.90336e-05 0 3.01782e-05 0 0)
(0.707513 0.000145076 0 2.83005e-05 0 0)
(0.728141 9.68388e-05 0 2.52592e-05 0 0)
(0.745583 -1.15969e-05 0 2.15525e-05 0 0)
(0.762707 -9.57618e-05 0 1.7076e-05 0 0)
(0.78456 -0.000251206 0 1.36783e-05 0 0)
(0.802956 -0.000463908 0 1.15766e-05 0 0)
(0.823532 -0.000781119 0 1.02992e-05 0 0)
(0.848677 -0.00133087 0 1.05957e-05 0 0)
(0.886732 -0.00258508 0 1.97283e-05 0 0)
(0.920307 -0.00143389 0 4.87725e-05 0 0)
(1.47108 -0.0279341 0 0.001084 0 0)
(0.0526939 0.00223183 0 0.00203878 0 0)
(0.166674 -0.00303121 0 0.00184814 0 0)
(0.261381 -0.00729154 0 0.000891667 0 0)
(0.348511 -0.0053015 0 0.000476236 0 0)
(0.405994 -0.00286797 0 0.000400782 0 0)
(0.44181 -0.00144747 0 0.000318512 0 0)
(0.467151 -0.00068886 0 0.000233819 0 0)
(0.486568 -0.000320072 0 0.000191885 0 0)
(0.501412 -0.000271806 0 0.000174558 0 0)
(0.513348 -0.000365573 0 0.000151384 0 0)
(0.525457 -0.000587109 0 0.00012622 0 0)
(0.534574 -0.000748945 0 0.000104912 0 0)
(0.544932 -0.0008823 0 8.32796e-05 0 0)
(0.558318 -0.00111083 0 6.94835e-05 0 0)
(0.569685 -0.0014057 0 6.27443e-05 0 0)
(0.582666 -0.00185067 0 5.9801e-05 0 0)
(0.598692 -0.00267195 0 6.67194e-05 0 0)
(0.624219 -0.00474067 0 0.000125433 0 0)
(0.643112 -0.0144408 0 0.00073205 0 0)
(0.933713 -0.0329432 0 0.00237159 0 0)
(0.0575932 0.00259773 0 0.00177709 0 0)
(0.155435 -0.00111286 0 0.00207063 0 0)
(0.21673 -0.00457507 0 0.000883154 0 0)
(0.269432 -0.00322184 0 0.000615026 0 0)
(0.305835 -0.00136401 0 0.000647468 0 0)
(0.330598 -0.000209633 0 0.000524155 0 0)
(0.348726 0.000310442 0 0.0003863 0 0)
(0.362089 0.000384204 0 0.00033543 0 0)
(0.371331 0.000195396 0 0.000311144 0 0)
(0.378181 -3.5784e-05 0 0.00026639 0 0)
(0.384834 -0.000339249 0 0.00022099 0 0)
(0.388639 -0.000549263 0 0.00018806 0 0)
(0.393197 -0.000734404 0 0.000155204 0 0)
(0.399546 -0.000987583 0 0.000132971 0 0)
(0.404368 -0.00129866 0 0.000122896 0 0)
(0.410178 -0.00174567 0 0.000121767 0 0)
(0.418035 -0.00256082 0 0.000144431 0 0)
(0.432616 -0.0046148 0 0.000284997 0 0)
(0.441765 -0.0120847 0 0.00138618 0 0)
(0.622046 -0.0327705 0 0.00450503 0 0)
(0.0586964 0.00305655 0 0.00186246 0 0)
(0.14767 0.000163835 0 0.0020634 0 0)
(0.189687 -0.00316849 0 0.00101285 0 0)
(0.223556 -0.00228199 0 0.000923513 0 0)
(0.248164 -0.000615953 0 0.000948038 0 0)
(0.266366 0.000420743 0 0.000742483 0 0)
(0.279972 0.000721162 0 0.000564624 0 0)
(0.289681 0.000584024 0 0.000505256 0 0)
(0.296116 0.0003129 0 0.000456304 0 0)
(0.300774 6.69147e-05 0 0.000377859 0 0)
(0.305182 -0.000237678 0 0.000309002 0 0)
(0.307091 -0.000445732 0 0.000263415 0 0)
(0.309436 -0.000621285 0 0.0002185 0 0)
(0.312898 -0.0008373 0 0.000187402 0 0)
(0.315033 -0.00109309 0 0.000174136 0 0)
(0.317675 -0.00146346 0 0.000176798 0 0)
(0.321501 -0.00215943 0 0.000221265 0 0)
(0.32951 -0.00391012 0 0.000456609 0 0)
(0.332699 -0.0101667 0 0.00229569 0 0)
(0.439603 -0.0295654 0 0.00704807 0 0)
(0.0588865 0.00311611 0 0.00175221 0 0)
(0.142829 0.000785376 0 0.00193394 0 0)
(0.17388 -0.00241755 0 0.00101949 0 0)
(0.197128 -0.00172562 0 0.00101671 0 0)
(0.2146 -9.73669e-05 0 0.00103636 0 0)
(0.228104 0.000851209 0 0.000806044 0 0)
(0.238186 0.00100335 0 0.000632225 0 0)
(0.245217 0.000787977 0 0.000577056 0 0)
(0.249951 0.000520521 0 0.000512051 0 0)
(0.253498 0.000282149 0 0.000416581 0 0)
(0.256865 -1.56349e-05 0 0.000340271 0 0)
(0.258295 -0.000218115 0 0.000291889 0 0)
(0.260002 -0.000386086 0 0.000243052 0 0)
(0.262334 -0.000565419 0 0.000209368 0 0)
(0.263714 -0.000759234 0 0.000197145 0 0)
(0.265374 -0.00103806 0 0.000206731 0 0)
(0.26776 -0.0015682 0 0.000275789 0 0)
(0.272601 -0.00286865 0 0.000601976 0 0)
(0.273914 -0.00734822 0 0.00303781 0 0)
(0.33981 -0.0245818 0 0.00941585 0 0)
(0.0587312 0.00294089 0 0.00152638 0 0)
(0.139957 0.00098573 0 0.00172572 0 0)
(0.165088 -0.00202651 0 0.000948473 0 0)
(0.182571 -0.00140494 0 0.000988853 0 0)
(0.195828 0.00016649 0 0.00100514 0 0)
(0.206155 0.00103736 0 0.000789099 0 0)
(0.213807 0.00114375 0 0.000640278 0 0)
(0.219202 0.000957973 0 0.000589913 0 0)
(0.223106 0.000738614 0 0.0005148 0 0)
(0.226291 0.000521926 0 0.000414356 0 0)
(0.229369 0.000243958 0 0.000339753 0 0)
(0.231031 5.85413e-05 0 0.000293037 0 0)
(0.23279 -9.73987e-05 0 0.000244925 0 0)
(0.234775 -0.000244068 0 0.000212785 0 0)
(0.23609 -0.000378694 0 0.000204368 0 0)
(0.23749 -0.000566147 0 0.000222942 0 0)
(0.239248 -0.000916882 0 0.00031916 0 0)
(0.24204 -0.00174689 0 0.000737554 0 0)
(0.242243 -0.00448734 0 0.00367129 0 0)
(0.28546 -0.0191668 0 0.0114113 0 0)
(0.0585273 0.0026737 0 0.00127402 0 0)
(0.138451 0.000964643 0 0.00148776 0 0)
(0.160585 -0.00182833 0 0.000835611 0 0)
(0.175103 -0.00124559 0 0.000889043 0 0)
(0.186008 0.000242505 0 0.000905874 0 0)
(0.194394 0.00106168 0 0.000722342 0 0)
(0.200595 0.00119023 0 0.000602705 0 0)
(0.20515 0.00107485 0 0.00055719 0 0)
(0.208764 0.000909843 0 0.000480629 0 0)
(0.211977 0.000718365 0 0.000385377 0 0)
(0.215128 0.00046875 0 0.000318294 0 0)
(0.217249 0.000309017 0 0.000276285 0 0)
(0.219311 0.000172019 0 0.000232362 0 0)
(0.221262 5.85608e-05 0 0.000204671 0 0)
(0.222734 -1.88526e-05 0 0.000201892 0 0)
(0.224085 -0.000116384 0 0.000230798 0 0)
(0.225445 -0.000284642 0 0.000356223 0 0)
(0.226681 -0.000676604 0 0.000869293 0 0)
(0.225614 -0.00195448 0 0.0042138 0 0)
(0.255349 -0.0138658 0 0.0130352 0 0)
(0.058363 0.00240003 0 0.0010394 0 0)
(0.137814 0.000864223 0 0.00125187 0 0)
(0.158592 -0.00170998 0 0.000710096 0 0)
(0.171658 -0.00117209 0 0.000760032 0 0)
(0.181284 0.000214398 0 0.00077977 0 0)
(0.188523 0.000993633 0 0.000632626 0 0)
(0.193859 0.00116186 0 0.000539009 0 0)
(0.19792 0.00111196 0 0.000498821 0 0)
(0.201342 0.000990811 0 0.000427542 0 0)
(0.204534 0.000825086 0 0.000343164 0 0)
(0.207691 0.000609391 0 0.000285838 0 0)
(0.210077 0.000481447 0 0.000249837 0 0)
(0.212314 0.000372029 0 0.000212115 0 0)
(0.214247 0.000295304 0 0.000190201 0 0)
(0.215818 0.000273846 0 0.000193689 0 0)
(0.217119 0.00026296 0 0.00023326 0 0)
(0.218187 0.000266403 0 0.000388035 0 0)
(0.218411 0.000244865 0 0.000991825 0 0)
(0.216345 8.40121e-05 0 0.00463892 0 0)
(0.238614 -0.009012 0 0.0142756 0 0)
(0.0582421 0.0021455 0 0.000836379 0 0)
(0.137664 0.000751101 0 0.00103441 0 0)
(0.157966 -0.00161449 0 0.000588353 0 0)
(0.170359 -0.00113189 0 0.000628551 0 0)
(0.179269 0.000146242 0 0.000651616 0 0)
(0.185801 0.000889699 0 0.00053775 0 0)
(0.190565 0.00109255 0 0.000465162 0 0)
(0.194223 0.00108965 0 0.00043048 0 0)
(0.197348 0.000999345 0 0.000367982 0 0)
(0.200296 0.000857497 0 0.000296422 0 0)
(0.203217 0.000676173 0 0.000248921 0 0)
(0.205517 0.000580199 0 0.000219112 0 0)
(0.207655 0.00050187 0 0.000188173 0 0)
(0.209425 0.0004628 0 0.000172272 0 0)
(0.210945 0.000493155 0 0.00018181 0 0)
(0.212147 0.000560406 0 0.000231468 0 0)
(0.213041 0.000712226 0 0.000413553 0 0)
(0.21284 0.000984546 0 0.0010963 0 0)
(0.210464 0.00164558 0 0.00493005 0 0)
(0.22926 -0.00477685 0 0.0151224 0 0)
(0.0581506 0.00191286 0 0.000665664 0 0)
(0.137753 0.000649549 0 0.000841227 0 0)
(0.158023 -0.00151711 0 0.000478157 0 0)
(0.170129 -0.00109591 0 0.000507828 0 0)
(0.178627 7.29916e-05 0 0.000532961 0 0)
(0.184715 0.000780742 0 0.000446976 0 0)
(0.189097 0.00100875 0 0.00039105 0 0)
(0.192427 0.00103778 0 0.000361757 0 0)
(0.195217 0.000969778 0 0.000309052 0 0)
(0.19781 0.000849713 0 0.000250054 0 0)
(0.200364 0.000699664 0 0.00021142 0 0)
(0.202381 0.000631448 0 0.000187335 0 0)
(0.204253 0.000583335 0 0.00016307 0 0)
(0.205773 0.000579355 0 0.000152812 0 0)
(0.207138 0.000654977 0 0.00016766 0 0)
(0.208222 0.000789524 0 0.000226198 0 0)
(0.209046 0.00106526 0 0.000431926 0 0)
(0.20883 0.00157138 0 0.00117741 0 0)
(0.206657 0.00284635 0 0.00509393 0 0)
(0.224249 -0.00121478 0 0.0155918 0 0)
(0.0580763 0.00169876 0 0.000523504 0 0)
(0.137947 0.00056485 0 0.0006729 0 0)
(0.158392 -0.00140922 0 0.000381746 0 0)
(0.17039 -0.00105105 0 0.000402313 0 0)
(0.178638 8.54758e-06 0 0.000427763 0 0)
(0.184444 0.000677102 0 0.000364143 0 0)
(0.188586 0.000920863 0 0.000321511 0 0)
(0.191693 0.000972524 0 0.000297346 0 0)
(0.194215 0.000922982 0 0.000254144 0 0)
(0.19649 0.000823419 0 0.000206528 0 0)
(0.198702 0.000700793 0 0.000175572 0 0)
(0.20041 0.000655462 0 0.000156582 0 0)
(0.201993 0.000633325 0 0.000138263 0 0)
(0.203264 0.000661065 0 0.000132967 0 0)
(0.204462 0.000776168 0 0.000152191 0 0)
(0.205448 0.000968981 0 0.000218066 0 0)
(0.206279 0.00134893 0 0.000442841 0 0)
(0.206256 0.00204799 0 0.00123349 0 0)
(0.204484 0.00378263 0 0.00514708 0 0)
(0.222013 0.00169586 0 0.0157223 0 0)
(0.058013 0.00149914 0 0.000405512 0 0)
(0.13818 0.000495603 0 0.000527915 0 0)
(0.158889 -0.00128891 0 0.000298746 0 0)
(0.170856 -0.000992062 0 0.000312292 0 0)
(0.178933 -4.16135e-05 0 0.000336538 0 0)
(0.184545 0.000582106 0 0.000290568 0 0)
(0.18854 0.000832728 0 0.000258684 0 0)
(0.191517 0.00090107 0 0.000239298 0 0)
(0.19387 0.000868486 0 0.000204737 0 0)
(0.195926 0.000788689 0 0.000167025 0 0)
(0.197889 0.000689996 0 0.00014257 0 0)
(0.199358 0.00066285 0 0.000127925 0 0)
(0.200719 0.000663604 0 0.000114774 0 0)
(0.201795 0.000719517 0 0.00011361 0 0)
(0.202851 0.000869745 0 0.000136172 0 0)
(0.203775 0.00111376 0 0.00020764 0 0)
(0.204672 0.00158196 0 0.000446304 0 0)
(0.204936 0.00244177 0 0.00126448 0 0)
(0.203586 0.00451183 0 0.00510605 0 0)
(0.221572 0.00400946 0 0.0155637 0 0)
(0.0579572 0.00131039 0 0.000307645 0 0)
(0.138424 0.000438612 0 0.000404258 0 0)
(0.159433 -0.00115665 0 0.000227985 0 0)
(0.171403 -0.000917424 0 0.000236406 0 0)
(0.179349 -7.62653e-05 0 0.000258422 0 0)
(0.184808 0.000496516 0 0.000226334 0 0)
(0.188696 0.000745918 0 0.000203225 0 0)
(0.191597 0.000826518 0 0.000188203 0 0)
(0.193857 0.000810162 0 0.000161271 0 0)
(0.195786 0.000749614 0 0.000132028 0 0)
(0.197601 0.000672142 0 0.000113053 0 0)
(0.198918 0.000659986 0 0.000102065 0 0)
(0.200127 0.000680037 0 9.31256e-05 0 0)
(0.201077 0.000761237 0 9.52288e-05 0 0)
(0.202042 0.000943619 0 0.000120121 0 0)
(0.202938 0.00123372 0 0.000195366 0 0)
(0.203953 0.00177618 0 0.000442605 0 0)
(0.204552 0.00276751 0 0.00127163 0 0)
(0.203584 0.00506925 0 0.00498691 0 0)
(0.22227 0.00579963 0 0.0151694 0 0)
(0.0579068 0.00112989 0 0.000226723 0 0)
(0.138667 0.000390388 0 0.000299955 0 0)
(0.159988 -0.00101358 0 0.000168279 0 0)
(0.171978 -0.000827033 0 0.000173093 0 0)
(0.179817 -9.49672e-05 0 0.000192229 0 0)
(0.185142 0.000421169 0 0.000171037 0 0)
(0.188937 0.000662209 0 0.000155107 0 0)
(0.191782 0.000751214 0 0.000143985 0 0)
(0.193985 0.000750158 0 0.000123661 0 0)
(0.195844 0.000707999 0 0.00010158 0 0)
(0.197573 0.000649677 0 8.71878e-05 0 0)
(0.198806 0.000649982 0 7.92013e-05 0 0)
(0.199943 0.00068744 0 7.36812e-05 0 0)
(0.200823 0.000791243 0 7.82406e-05 0 0)
(0.201733 0.00100332 0 0.000104497 0 0)
(0.202629 0.00133537 0 0.000181685 0 0)
(0.203805 0.0019394 0 0.000432255 0 0)
(0.204774 0.00303266 0 0.00125689 0 0)
(0.20415 0.00547863 0 0.00480388 0 0)
(0.223626 0.00713874 0 0.0145899 0 0)
(0.0578617 0.000955314 0 0.000160365 0 0)
(0.138909 0.000347577 0 0.000213291 0 0)
(0.160541 -0.000860991 0 0.00011868 0 0)
(0.172561 -0.000721476 0 0.000120966 0 0)
(0.180313 -9.85813e-05 0 0.000136882 0 0)
(0.185516 0.000355977 0 0.000124126 0 0)
(0.189219 0.000582528 0 0.000114014 0 0)
(0.192008 0.000676527 0 0.000106297 0 0)
(0.194166 0.000689605 0 9.16218e-05 0 0)
(0.195976 0.000664795 0 7.55685e-05 0 0)
(0.197658 0.000623824 0 6.49875e-05 0 0)
(0.198849 0.000635626 0 5.94986e-05 0 0)
(0.199946 0.000687534 0 5.65587e-05 0 0)
(0.200797 0.000812129 0 6.28545e-05 0 0)
(0.201691 0.00105153 0 8.96102e-05 0 0)
(0.202606 0.00142272 0 0.000166982 0 0)
(0.203978 0.00207693 0 0.000416015 0 0)
(0.205344 0.0032443 0 0.00122302 0 0)
(0.205043 0.00576208 0 0.00457057 0 0)
(0.225348 0.00809419 0 0.0138691 0 0)
(0.0578216 0.000784873 0 0.00010688 0 0)
(0.139149 0.000307249 0 0.000142852 0 0)
(0.161084 -0.000700209 0 7.84515e-05 0 0)
(0.173145 -0.000601552 0 7.90156e-05 0 0)
(0.180827 -8.74798e-05 0 9.15638e-05 0 0)
(0.185921 0.000301155 0 8.51498e-05 0 0)
(0.189531 0.000507921 0 7.96196e-05 0 0)
(0.19226 0.00060364 0 7.47908e-05 0 0)
(0.19437 0.000629379 0 6.48557e-05 0 0)
(0.19613 0.000620576 0 5.37841e-05 0 0)
(0.197771 0.000595751 0 4.63536e-05 0 0)
(0.198943 0.000617793 0 4.28778e-05 0 0)
(0.200044 0.000683318 0 4.19313e-05 0 0)
(0.200883 0.000826136 0 4.92885e-05 0 0)
(0.201773 0.00109063 0 7.57553e-05 0 0)
(0.202721 0.00149818 0 0.000151664 0 0)
(0.204304 0.00219243 0 0.000394757 0 0)
(0.206091 0.00340624 0 0.00117281 0 0)
(0.206105 0.00593478 0 0.00429855 0 0)
(0.227228 0.0087208 0 0.0130446 0 0)
(0.0577864 0.000616952 0 6.50308e-05 0 0)
(0.139384 0.000267042 0 8.74928e-05 0 0)
(0.161611 -0.000532245 0 4.7059e-05 0 0)
(0.173722 -0.000468091 0 4.64874e-05 0 0)
(0.181355 -6.2864e-05 0 5.57142e-05 0 0)
(0.186352 0.000256161 0 5.37776e-05 0 0)
(0.18987 0.000438526 0 5.16702e-05 0 0)
(0.192532 0.000532988 0 4.91836e-05 0 0)
(0.19459 0.000569697 0 4.31254e-05 0 0)
(0.196294 0.000575766 0 3.60811e-05 0 0)
(0.1979 0.000566198 0 3.12137e-05 0 0)
(0.199062 0.000598227 0 2.93669e-05 0 0)
(0.200155 0.000675426 0 2.98244e-05 0 0)
(0.201003 0.000834119 0 3.76463e-05 0 0)
(0.201907 0.00112102 0 6.312e-05 0 0)
(0.202899 0.00156258 0 0.000136129 0 0)
(0.204683 0.00228791 0 0.000369469 0 0)
(0.20691 0.00352396 0 0.00110926 0 0)
(0.207249 0.00601318 0 0.00399879 0 0)
(0.229173 0.00906621 0 0.0121486 0 0)
(0.0577555 0.000450248 0 3.39621e-05 0 0)
(0.13961 0.000225339 0 4.63101e-05 0 0)
(0.162105 -0.000357733 0 2.40974e-05 0 0)
(0.174272 -0.000322013 0 2.29036e-05 0 0)
(0.181877 -2.56791e-05 0 2.89967e-05 0 0)
(0.186798 0.000220427 0 2.98352e-05 0 0)
(0.190233 0.000374438 0 3.00262e-05 0 0)
(0.192827 0.000464828 0 2.92946e-05 0 0)
(0.194822 0.000510812 0 2.62501e-05 0 0)
(0.196462 0.000530515 0 2.23256e-05 0 0)
(0.198027 0.000536131 0 1.9508e-05 0 0)
(0.199182 0.000577158 0 1.88863e-05 0 0)
(0.200289 0.000665606 0 2.03103e-05 0 0)
(0.201148 0.000836831 0 2.80667e-05 0 0)
(0.202062 0.00114339 0 5.19291e-05 0 0)
(0.203106 0.00161542 0 0.000120828 0 0)
(0.205067 0.00236423 0 0.000341122 0 0)
(0.207743 0.00359994 0 0.00103505 0 0)
(0.208418 0.00600477 0 0.00368034 0 0)
(0.231103 0.00916845 0 0.0112091 0 0)
(0.0577279 0.000283775 0 1.31235e-05 0 0)
(0.139807 0.000181763 0 1.86186e-05 0 0)
(0.162526 -0.000176722 0 9.30023e-06 0 0)
(0.174742 -0.000164303 0 7.98227e-06 0 0)
(0.182345 2.1743e-05 0 1.12588e-05 0 0)
(0.18722 0.000192155 0 1.32459e-05 0 0)
(0.190591 0.000314619 0 1.46352e-05 0 0)
(0.193124 0.000398603 0 1.50242e-05 0 0)
(0.195054 0.0004525 0 1.41119e-05 0 0)
(0.196632 0.000485163 0 1.2456e-05 0 0)
(0.198162 0.000505751 0 1.11951e-05 0 0)
(0.199313 0.000556014 0 1.14699e-05 0 0)
(0.200406 0.00065301 0 1.33579e-05 0 0)
(0.201291 0.000834469 0 2.06417e-05 0 0)
(0.202234 0.00115717 0 4.23665e-05 0 0)
(0.20333 0.00165566 0 0.000106151 0 0)
(0.205445 0.00242139 0 0.000310738 0 0)
(0.208575 0.00363786 0 0.000953063 0 0)
(0.209594 0.00592063 0 0.00335185 0 0)
(0.232997 0.00906071 0 0.0102491 0 0)
(0.057704 0.00011724 0 2.21705e-06 0 0)
(0.13994 0.000136717 0 3.95095e-06 0 0)
(0.162817 1.09951e-05 0 2.51129e-06 0 0)
(0.175051 3.21287e-06 0 1.64222e-06 0 0)
(0.182659 7.64411e-05 0 2.4694e-06 0 0)
(0.187534 0.000168294 0 4.0097e-06 0 0)
(0.190882 0.000257178 0 5.49164e-06 0 0)
(0.193379 0.000332929 0 6.34164e-06 0 0)
(0.195256 0.000394194 0 6.64077e-06 0 0)
(0.196781 0.000439708 0 6.42678e-06 0 0)
(0.198284 0.000475796 0 6.27308e-06 0 0)
(0.199424 0.000533961 0 7.03305e-06 0 0)
(0.200541 0.000638934 0 9.05767e-06 0 0)
(0.201443 0.000827341 0 1.54862e-05 0 0)
(0.202424 0.00116281 0 3.4653e-05 0 0)
(0.203566 0.00168221 0 9.2453e-05 0 0)
(0.20582 0.00245901 0 0.00027931 0 0)
(0.209399 0.00363743 0 0.000866015 0 0)
(0.21075 0.00576426 0 0.00302027 0 0)
(0.234813 0.00876989 0 0.00928883 0 0)
(0.0577057 -4.95692e-05 0 1.14902e-06 0 0)
(0.139972 9.01256e-05 0 2.19639e-06 0 0)
(0.162884 0.000202329 0 3.69496e-06 0 0)
(0.175109 0.000176335 0 3.90739e-06 0 0)
(0.182731 0.000134297 0 2.72666e-06 0 0)
(0.187638 0.000144741 0 2.19583e-06 0 0)
(0.191022 0.000198259 0 2.63744e-06 0 0)
(0.19353 0.000265179 0 3.24591e-06 0 0)
(0.195389 0.000334515 0 3.81473e-06 0 0)
(0.196895 0.000393887 0 4.23209e-06 0 0)
(0.198387 0.00044565 0 4.72277e-06 0 0)
(0.199528 0.000511462 0 5.60849e-06 0 0)
(0.20064 0.000621999 0 7.41054e-06 0 0)
(0.201585 0.000815467 0 1.26847e-05 0 0)
(0.20262 0.0011594 0 2.89704e-05 0 0)
(0.203813 0.00169417 0 8.00981e-05 0 0)
(0.2062 0.00247645 0 0.00024789 0 0)
(0.210209 0.00360144 0 0.000776692 0 0)
(0.211882 0.00554437 0 0.00269215 0 0)
(0.236549 0.00831949 0 0.00834444 0 0)
(0.0577333 -0.000216793 0 9.97251e-06 0 0)
(0.139885 4.07067e-05 0 1.35775e-05 0 0)
(0.162682 0.000389434 0 1.27853e-05 0 0)
(0.174884 0.000346417 0 1.46983e-05 0 0)
(0.182539 0.000190721 0 1.20875e-05 0 0)
(0.18751 0.000118793 0 7.91554e-06 0 0)
(0.190965 0.000135519 0 6.17258e-06 0 0)
(0.193521 0.000193261 0 5.8312e-06 0 0)
(0.195414 0.000271904 0 5.70088e-06 0 0)
(0.19694 0.000346379 0 5.89777e-06 0 0)
(0.19843 0.00041505 0 6.57727e-06 0 0)
(0.199577 0.00048707 0 7.21408e-06 0 0)
(0.200737 0.000602884 0 8.50163e-06 0 0)
(0.201719 0.000798316 0 1.23179e-05 0 0)
(0.202817 0.00114693 0 2.55249e-05 0 0)
(0.204067 0.00169062 0 6.94963e-05 0 0)
(0.206578 0.00247347 0 0.000217476 0 0)
(0.210979 0.00352993 0 0.000687499 0 0)
(0.212956 0.00526295 0 0.00237276 0 0)
(0.238171 0.00773086 0 0.00743027 0 0)
(0.0577657 -0.000384516 0 2.8831e-05 0 0)
(0.139709 -1.0029e-05 0 3.84055e-05 0 0)
(0.162297 0.000568831 0 2.97348e-05 0 0)
(0.174462 0.000506623 0 3.38601e-05 0 0)
(0.182166 0.000239051 0 3.04509e-05 0 0)
(0.187221 8.75424e-05 0 2.11812e-05 0 0)
(0.190752 6.89971e-05 0 1.61646e-05 0 0)
(0.193368 0.000117675 0 1.42475e-05 0 0)
(0.195326 0.000205776 0 1.24615e-05 0 0)
(0.196902 0.000296254 0 1.15311e-05 0 0)
(0.198413 0.000382739 0 1.191e-05 0 0)
(0.199595 0.000461438 0 1.19426e-05 0 0)
(0.200767 0.000579942 0 1.23968e-05 0 0)
(0.201823 0.000775475 0 1.4484e-05 0 0)
(0.203002 0.00112462 0 2.45096e-05 0 0)
(0.204327 0.00167118 0 6.10623e-05 0 0)
(0.206946 0.00244951 0 0.000189022 0 0)
(0.211677 0.00342562 0 0.000600708 0 0)
(0.213959 0.00492912 0 0.00206727 0 0)
(0.239671 0.0070207 0 0.00655756 0 0)
(0.0578001 -0.000552899 0 5.80563e-05 0 0)
(0.1395 -6.0457e-05 0 7.71255e-05 0 0)
(0.161833 0.000740337 0 5.46887e-05 0 0)
(0.173962 0.000653744 0 6.13897e-05 0 0)
(0.181719 0.000275464 0 5.77466e-05 0 0)
(0.186865 4.81976e-05 0 4.19656e-05 0 0)
(0.190482 -1.88263e-06 0 3.26561e-05 0 0)
(0.193164 3.94392e-05 0 2.86145e-05 0 0)
(0.195171 0.000137076 0 2.42457e-05 0 0)
(0.196798 0.000243225 0 2.1269e-05 0 0)
(0.198343 0.000348705 0 2.08242e-05 0 0)
(0.199551 0.000433319 0 1.98624e-05 0 0)
(0.200788 0.000554449 0 1.92126e-05 0 0)
(0.201899 0.000746392 0 1.92897e-05 0 0)
(0.203171 0.00109293 0 2.61169e-05 0 0)
(0.204591 0.00163585 0 5.51899e-05 0 0)
(0.207296 0.00240347 0 0.000163392 0 0)
(0.212272 0.00328767 0 0.000518321 0 0)
(0.214841 0.00454275 0 0.00177934 0 0)
(0.241011 0.00620683 0 0.00573657 0 0)
(0.0578378 -0.000722854 0 9.82411e-05 0 0)
(0.139281 -0.000110516 0 0.000130356 0 0)
(0.161337 0.00090398 0 8.79024e-05 0 0)
(0.173438 0.000786809 0 9.7553e-05 0 0)
(0.181264 0.000298035 0 9.40672e-05 0 0)
(0.186509 -8.22395e-07 0 7.03012e-05 0 0)
(0.190208 -7.80908e-05 0 5.57145e-05 0 0)
(0.192942 -4.15285e-05 0 4.90734e-05 0 0)
(0.195007 6.65106e-05 0 4.11973e-05 0 0)
(0.196671 0.000188365 0 3.52277e-05 0 0)
(0.198245 0.000312653 0 3.34353e-05 0 0)
(0.199507 0.000403732 0 3.10548e-05 0 0)
(0.200752 0.000525777 0 2.90011e-05 0 0)
(0.201947 0.000711784 0 2.68311e-05 0 0)
(0.203316 0.00105204 0 3.04813e-05 0 0)
(0.204845 0.001585 0 5.22286e-05 0 0)
(0.20763 0.00233431 0 0.000141405 0 0)
(0.21277 0.0031188 0 0.000442221 0 0)
(0.215603 0.004108 0 0.00151267 0 0)
(0.242157 0.00529906 0 0.00497473 0 0)
(0.0578795 -0.000895615 0 0.000150273 0 0)
(0.139058 -0.000161691 0 0.000198946 0 0)
(0.160827 0.0010592 0 0.000129772 0 0)
(0.172907 0.000904948 0 0.000142832 0 0)
(0.180817 0.000305878 0 0.00013975 0 0)
(0.186174 -6.02926e-05 0 0.000106354 0 0)
(0.189954 -0.00015973 0 8.55039e-05 0 0)
(0.192737 -0.000125263 0 7.58485e-05 0 0)
(0.194837 -5.79643e-06 0 6.35325e-05 0 0)
(0.196542 0.000132262 0 5.35411e-05 0 0)
(0.19814 0.00027598 0 4.98365e-05 0 0)
(0.199429 0.000372742 0 4.56387e-05 0 0)
(0.200749 0.000496107 0 4.18003e-05 0 0)
(0.201987 0.000672905 0 3.71602e-05 0 0)
(0.203456 0.00100372 0 3.77079e-05 0 0)
(0.205102 0.00151969 0 5.24766e-05 0 0)
(0.207956 0.00224327 0 0.000123766 0 0)
(0.213181 0.00292014 0 0.000374016 0 0)
(0.216208 0.00362729 0 0.00127088 0 0)
(0.243053 0.00431442 0 0.00427902 0 0)
(0.0579256 -0.00107277 0 0.000215438 0 0)
(0.138832 -0.000216116 0 0.000283977 0 0)
(0.160308 0.00120523 0 0.000180784 0 0)
(0.172376 0.00100774 0 0.000197996 0 0)
(0.180387 0.000298281 0 0.000195363 0 0)
(0.185862 -0.00013036 0 0.00015046 0 0)
(0.189724 -0.000246497 0 0.000122286 0 0)
(0.192547 -0.000211146 0 0.00010926 0 0)
(0.194687 -7.93308e-05 0 9.15432e-05 0 0)
(0.196428 7.54705e-05 0 7.64264e-05 0 0)
(0.19806 0.000239563 0 7.01755e-05 0 0)
(0.199409 0.000342805 0 6.36639e-05 0 0)
(0.200751 0.000466598 0 5.76454e-05 0 0)
(0.20207 0.000632937 0 5.02682e-05 0 0)
(0.203639 0.000950502 0 4.78049e-05 0 0)
(0.205409 0.00144306 0 5.61414e-05 0 0)
(0.208342 0.00213415 0 0.000111045 0 0)
(0.213554 0.00269462 0 0.000315032 0 0)
(0.216682 0.00311052 0 0.00105757 0 0)
(0.243582 0.00326618 0 0.00365397 0 0)
(0.0579767 -0.00125618 0 0.000295511 0 0)
(0.138603 -0.000276646 0 0.000386797 0 0)
(0.159787 0.0013409 0 0.000241639 0 0)
(0.171851 0.0010943 0 0.000264081 0 0)
(0.179976 0.000274348 0 0.000261804 0 0)
(0.185583 -0.000211669 0 0.000203145 0 0)
(0.189526 -0.000338393 0 0.000166498 0 0)
(0.192394 -0.000298895 0 0.000149747 0 0)
(0.194574 -0.000153954 0 0.000125596 0 0)
(0.196373 1.82365e-05 0 0.000104114 0 0)
(0.198068 0.000204341 0 9.45205e-05 0 0)
(0.199474 0.000314867 0 8.52096e-05 0 0)
(0.200936 0.000440492 0 7.64473e-05 0 0)
(0.202317 0.000595113 0 6.60376e-05 0 0)
(0.203981 0.000896264 0 6.06882e-05 0 0)
(0.20588 0.00136025 0 6.32456e-05 0 0)
(0.208895 0.00201133 0 0.000103549 0 0)
(0.213982 0.00244425 0 0.00026626 0 0)
(0.217055 0.00256653 0 0.000874843 0 0)
(0.243698 0.00218176 0 0.00310373 0 0)
(0.0580336 -0.00144816 0 0.000392892 0 0)
(0.138375 -0.000346359 0 0.000509001 0 0)
(0.159275 0.00146514 0 0.000313204 0 0)
(0.171346 0.00116433 0 0.000342511 0 0)
(0.179606 0.000233653 0 0.000340257 0 0)
(0.185358 -0.000304113 0 0.000265076 0 0)
(0.189395 -0.000434545 0 0.000218612 0 0)
(0.192318 -0.000387326 0 0.00019784 0 0)
(0.194582 -0.000228665 0 0.000166132 0 0)
(0.196488 -3.83565e-05 0 0.000136859 0 0)
(0.198302 0.000171662 0 0.000122976 0 0)
(0.199859 0.000292179 0 0.000110233 0 0)
(0.201418 0.000421263 0 9.80642e-05 0 0)
(0.202945 0.000565411 0 8.42214e-05 0 0)
(0.204699 0.000847461 0 7.61417e-05 0 0)
(0.206719 0.00127829 0 7.36209e-05 0 0)
(0.209788 0.00187942 0 0.000101327 0 0)
(0.214662 0.00217723 0 0.000228514 0 0)
(0.217472 0.00200343 0 0.000723918 0 0)
(0.243324 0.0011041 0 0.00262865 0 0)
(0.0580977 -0.00165147 0 0.000510646 0 0)
(0.138158 -0.000428889 0 0.00065243 0 0)
(0.158806 0.00157692 0 0.000396612 0 0)
(0.170906 0.00121799 0 0.000434962 0 0)
(0.179329 0.000175857 0 0.000432187 0 0)
(0.185262 -0.000408137 0 0.000336952 0 0)
(0.189426 -0.00053454 0 0.000279032 0 0)
(0.192459 -0.000475356 0 0.000253979 0 0)
(0.19487 -0.000302465 0 0.000213529 0 0)
(0.19698 -9.29871e-05 0 0.000174779 0 0)
(0.199019 0.000143733 0 0.000155408 0 0)
(0.20078 0.0002779 0 0.000138594 0 0)
(0.202585 0.000414318 0 0.000122135 0 0)
(0.204264 0.000549618 0 0.000104446 0 0)
(0.206125 0.000811477 0 9.3756e-05 0 0)
(0.208229 0.00120492 0 8.68903e-05 0 0)
(0.211305 0.00174628 0 0.000104235 0 0)
(0.215832 0.00190573 0 0.000202052 0 0)
(0.218143 0.00145869 0 0.000604884 0 0)
(0.242465 5.56871e-05 0 0.00222627 0 0)
(0.0581728 -0.00186942 0 0.00065257 0 0)
(0.137983 -0.000527522 0 0.000818953 0 0)
(0.158455 0.00167617 0 0.00049296 0 0)
(0.170641 0.00125748 0 0.000543046 0 0)
(0.179289 0.000102267 0 0.000538902 0 0)
(0.185472 -0.000523381 0 0.000419152 0 0)
(0.189844 -0.000637537 0 0.000347609 0 0)
(0.193072 -0.0005606 0 0.000318092 0 0)
(0.195747 -0.00037246 0 0.000267804 0 0)
(0.198175 -0.000142503 0 0.000217701 0 0)
(0.200552 0.000124562 0 0.0001914 0 0)
(0.202653 0.000278587 0 0.000169688 0 0)
(0.204695 0.000425011 0 0.000148206 0 0)
(0.206638 0.000555148 0 0.000126227 0 0)
(0.208604 0.000796909 0 0.000112916 0 0)
(0.210727 0.00114976 0 0.00010245 0 0)
(0.213714 0.00162379 0 0.000111756 0 0)
(0.217768 0.00164776 0 0.000186359 0 0)
(0.219256 0.000959148 0 0.000515854 0 0)
(0.241368 -0.000930419 0 0.00189308 0 0)
(0.0582656 -0.00210594 0 0.000823004 0 0)
(0.137912 -0.000643852 0 0.00101002 0 0)
(0.158399 0.00176535 0 0.000602582 0 0)
(0.170813 0.00128856 0 0.000666925 0 0)
(0.17981 1.71696e-05 0 0.000660803 0 0)
(0.186384 -0.000649189 0 0.000511238 0 0)
(0.19109 -0.000742802 0 0.00042303 0 0)
(0.194624 -0.00063931 0 0.000388939 0 0)
(0.197637 -0.000432854 0 0.000328151 0 0)
(0.20046 -0.00018077 0 0.000264884 0 0)
(0.203248 0.000120651 0 0.00022996 0 0)
(0.205684 0.000299851 0 0.000202611 0 0)
(0.208085 0.00046124 0 0.000175359 0 0)
(0.210258 0.000588927 0 0.000148789 0 0)
(0.21231 0.000813071 0 0.000132757 0 0)
(0.214354 0.00112396 0 0.000119379 0 0)
(0.217075 0.0015278 0 0.000122751 0 0)
(0.220468 0.0014285 0 0.000180188 0 0)
(0.220787 0.000554145 0 0.000453773 0 0)
(0.240015 -0.00180396 0 0.00162585 0 0)
(0.0583874 -0.00236424 0 0.00102555 0 0)
(0.138078 -0.000772417 0 0.00122496 0 0)
(0.158999 0.00185348 0 0.000723345 0 0)
(0.171973 0.00132564 0 0.000802901 0 0)
(0.181572 -6.61888e-05 0 0.000795222 0 0)
(0.188751 -0.000777903 0 0.000610725 0 0)
(0.193951 -0.000843959 0 0.000501495 0 0)
(0.197837 -0.00069992 0 0.000462842 0 0)
(0.201165 -0.000468446 0 0.00039211 0 0)
(0.20429 -0.000192827 0 0.000314571 0 0)
(0.207393 0.000145919 0 0.000269269 0 0)
(0.210081 0.000354403 0 0.000235273 0 0)
(0.212638 0.000531621 0 0.000202497 0 0)
(0.215033 0.000662197 0 0.000171155 0 0)
(0.217048 0.000873629 0 0.000152186 0 0)
(0.218861 0.00114531 0 0.000136404 0 0)
(0.22108 0.00148197 0 0.000135526 0 0)
(0.223543 0.00128428 0 0.000181299 0 0)
(0.222457 0.000305801 0 0.000413892 0 0)
(0.237942 -0.002474 0 0.00142066 0 0)
(0.0585516 -0.00264165 0 0.00125954 0 0)
(0.138726 -0.000889406 0 0.00145805 0 0)
(0.160934 0.00196514 0 0.000847615 0 0)
(0.175174 0.00139847 0 0.000938251 0 0)
(0.18585 -0.000112568 0 0.000932389 0 0)
(0.193992 -0.000880978 0 0.000710367 0 0)
(0.199881 -0.000918011 0 0.000574559 0 0)
(0.204112 -0.000715287 0 0.000531368 0 0)
(0.207537 -0.000447542 0 0.000453806 0 0)
(0.210652 -0.000147223 0 0.000362895 0 0)
(0.21374 0.000227159 0 0.000306104 0 0)
(0.216249 0.000460289 0 0.000265123 0 0)
(0.218772 0.000655367 0 0.00022694 0 0)
(0.221131 0.000792926 0 0.000191272 0 0)
(0.222914 0.00100194 0 0.000169409 0 0)
(0.224287 0.00124629 0 0.000151572 0 0)
(0.225775 0.00153015 0 0.000147544 0 0)
(0.227101 0.00128443 0 0.000185459 0 0)
(0.224531 0.000293289 0 0.000387797 0 0)
(0.23539 -0.00278344 0 0.00126945 0 0)
(0.0587541 -0.0029126 0 0.00151107 0 0)
(0.14024 -0.000928276 0 0.00169349 0 0)
(0.165349 0.00215654 0 0.000959346 0 0)
(0.182289 0.00156294 0 0.00104601 0 0)
(0.195008 -4.77049e-05 0 0.00104759 0 0)
(0.204761 -0.000889214 0 0.000793301 0 0)
(0.211754 -0.00091656 0 0.000626405 0 0)
(0.216442 -0.000647076 0 0.000578502 0 0)
(0.21982 -0.000331714 0 0.000500834 0 0)
(0.222605 -7.37025e-06 0 0.000401533 0 0)
(0.225348 0.000396188 0 0.000334076 0 0)
(0.227327 0.000638296 0 0.000286765 0 0)
(0.229394 0.000848743 0 0.000244387 0 0)
(0.231705 0.000995656 0 0.000205748 0 0)
(0.233114 0.00122038 0 0.000181462 0 0)
(0.233946 0.00145881 0 0.00016171 0 0)
(0.234672 0.00171784 0 0.000154821 0 0)
(0.234923 0.00148647 0 0.000185803 0 0)
(0.231086 0.000563294 0 0.000361616 0 0)
(0.236608 -0.0025956 0 0.00115602 0 0)
(0.0589067 -0.00309304 0 0.00173658 0 0)
(0.143114 -0.00074692 0 0.00190077 0 0)
(0.174043 0.0025397 0 0.00102844 0 0)
(0.196459 0.00189974 0 0.00108007 0 0)
(0.213011 0.000235197 0 0.00109438 0 0)
(0.225518 -0.000700093 0 0.000828899 0 0)
(0.234458 -0.000787889 0 0.000634338 0 0)
(0.24021 -0.000489773 0 0.000580787 0 0)
(0.243854 -0.00013198 0 0.000512476 0 0)
(0.246478 0.000213727 0 0.000415363 0 0)
(0.248998 0.000634656 0 0.000342361 0 0)
(0.25045 0.000864926 0 0.000291406 0 0)
(0.252271 0.00108379 0 0.000246993 0 0)
(0.254691 0.0012391 0 0.000208058 0 0)
(0.255951 0.00149758 0 0.000183029 0 0)
(0.256488 0.00175375 0 0.000162076 0 0)
(0.256817 0.00201373 0 0.000152216 0 0)
(0.256527 0.00183937 0 0.000175067 0 0)
(0.25195 0.00100647 0 0.000323164 0 0)