/*--------------------------------*- C++ -*----------------------------------*\
| =========                 |                                                 |
| \\      /  F ield         | OpenFOAM: The Open Source CFD Toolbox           |
|  \\    /   O peration     | Version:  2.4.0                                 |
|   \\  /    A nd           | Web:      www.OpenFOAM.org                      |
|    \\/     M anipulation  |                                                 |
\*---------------------------------------------------------------------------*/
FoamFile
{
    version     2.0;
    format      ascii;
    class       surfaceScalarField;
    location    "0.134";
    object      phi_0;
}
// * * * * * * * * * * * * * * * * * * * * * * * * * * * * * * * * * * * * * //

dimensions      [0 3 -1 0 0 0 0];

internalField   nonuniform List<scalar> 
34880
(
5.48563e-06
7.01437e-06
3.12638e-06
2.35925e-06
2.4739e-06
6.5248e-07
2.21829e-06
2.55609e-07
2.07097e-06
1.47319e-07
1.97218e-06
9.87864e-08
1.88436e-06
8.78214e-08
1.82395e-06
6.04098e-08
1.7675e-06
5.64542e-08
1.74044e-06
2.70608e-08
1.705e-06
3.54335e-08
1.6685e-06
3.64983e-08
1.66247e-06
6.03813e-09
1.61732e-06
4.51464e-08
1.62519e-06
-7.86987e-09
1.55977e-06
6.54233e-08
1.61094e-06
-5.11729e-08
1.53415e-06
7.67925e-08
1.5725e-06
-3.83571e-08
-7.49821e-08
1.64748e-06
1.01055e-05
9.40884e-06
7.83291e-06
4.63187e-06
6.71487e-06
1.77052e-06
6.05923e-06
9.11247e-07
5.64405e-06
5.62503e-07
5.3512e-06
3.91633e-07
5.1228e-06
3.16223e-07
4.94471e-06
2.385e-07
4.80454e-06
1.96625e-07
4.70362e-06
1.27976e-07
4.60835e-06
1.30706e-07
4.52975e-06
1.15103e-07
4.46881e-06
6.69751e-08
4.40118e-06
1.12773e-07
4.35837e-06
3.49445e-08
4.2667e-06
1.57086e-07
4.33938e-06
-1.23849e-07
4.12702e-06
2.89149e-07
4.28215e-06
-1.93487e-07
-1.17391e-08
4.21891e-06
1.24171e-05
9.49177e-06
1.10058e-05
6.04317e-06
9.9899e-06
2.78639e-06
9.1944e-06
1.70675e-06
8.62117e-06
1.13573e-06
8.18859e-06
8.24218e-07
7.86075e-06
6.44058e-07
7.58929e-06
5.09957e-07
7.38795e-06
3.97971e-07
7.22089e-06
2.95029e-07
7.07812e-06
2.73482e-07
6.96891e-06
2.24312e-07
6.85107e-06
1.8481e-07
6.78016e-06
1.83691e-07
6.67943e-06
1.35675e-07
6.58723e-06
2.49276e-07
6.64207e-06
-1.78684e-07
6.3997e-06
5.31522e-07
6.49746e-06
-2.91254e-07
-1.52178e-07
6.6379e-06
1.34024e-05
8.58938e-06
1.28853e-05
6.56025e-06
1.23413e-05
3.33038e-06
1.1704e-05
2.3441e-06
1.11406e-05
1.69911e-06
1.06563e-05
1.3085e-06
1.02784e-05
1.02195e-06
9.95078e-06
8.37597e-07
9.70768e-06
6.41078e-07
9.49738e-06
5.05328e-07
9.31165e-06
4.59206e-07
9.18884e-06
3.47123e-07
9.01831e-06
3.55342e-07
8.94999e-06
2.52014e-07
8.80091e-06
2.84756e-07
8.71315e-06
3.37032e-07
8.72627e-06
-1.91806e-07
8.51651e-06
7.4128e-07
8.53436e-06
-3.09099e-07
-1.87238e-07
8.56942e-06
1.35822e-05
7.50714e-06
1.36461e-05
6.49634e-06
1.36454e-05
3.3311e-06
1.33848e-05
2.6047e-06
1.30291e-05
2.0548e-06
1.26247e-05
1.71298e-06
1.22784e-05
1.36816e-06
1.1955e-05
1.16107e-06
1.17022e-05
8.93824e-07
1.1488e-05
7.19525e-07
1.1272e-05
6.75237e-07
1.11572e-05
4.61919e-07
1.095e-05
5.62595e-07
1.08875e-05
3.14503e-07
1.07106e-05
4.61612e-07
1.06248e-05
4.22795e-07
1.06016e-05
-1.68596e-07
1.04088e-05
9.34118e-07
1.04478e-05
-3.48074e-07
-2.03617e-07
1.04642e-05
1.34813e-05
6.52584e-06
1.37207e-05
6.25691e-06
1.40233e-05
3.02856e-06
1.41259e-05
2.50204e-06
1.40936e-05
2.0871e-06
1.3906e-05
1.9006e-06
1.36976e-05
1.57658e-06
1.34707e-05
1.38796e-06
1.326e-05
1.10447e-06
1.30989e-05
8.80668e-07
1.28805e-05
8.93685e-07
1.28e-05
5.42389e-07
1.25888e-05
7.73787e-07
1.25312e-05
3.72053e-07
1.23637e-05
6.29205e-07
1.22721e-05
5.14305e-07
1.2238e-05
-1.34492e-07
1.20466e-05
1.12555e-06
1.2111e-05
-4.12484e-07
9.35802e-08
1.18138e-05
1.3385e-05
5.64086e-06
1.36329e-05
6.00897e-06
1.39501e-05
2.71137e-06
1.42036e-05
2.24851e-06
1.43943e-05
1.89647e-06
1.44272e-05
1.86767e-06
1.43983e-05
1.60551e-06
1.43488e-05
1.43746e-06
1.42369e-05
1.21634e-06
1.42011e-05
9.16486e-07
1.40283e-05
1.06646e-06
1.4014e-05
5.5667e-07
1.38526e-05
9.35246e-07
1.38054e-05
4.19247e-07
1.36898e-05
7.44741e-07
1.35986e-05
6.05575e-07
1.35736e-05
-1.09526e-07
1.33954e-05
1.30374e-06
1.34594e-05
-4.76493e-07
7.66429e-07
1.27866e-05
1.33254e-05
4.81546e-06
1.36475e-05
5.68691e-06
1.38112e-05
2.54766e-06
1.40815e-05
1.97816e-06
1.43343e-05
1.6437e-06
1.44687e-05
1.73323e-06
1.45264e-05
1.5479e-06
1.46174e-05
1.34637e-06
1.45914e-05
1.2424e-06
1.46986e-05
8.09226e-07
1.46135e-05
1.15162e-06
1.46848e-05
4.85335e-07
1.46323e-05
9.87783e-07
1.46191e-05
4.32398e-07
1.45961e-05
7.67812e-07
1.4528e-05
6.73642e-07
1.45366e-05
-1.18137e-07
1.44046e-05
1.43572e-06
1.44258e-05
-4.97683e-07
1.57994e-06
1.36123e-05
1.32552e-05
4.06025e-06
1.36587e-05
5.28344e-06
1.37268e-05
2.47957e-06
1.39673e-05
1.73766e-06
1.42183e-05
1.39267e-06
1.4401e-05
1.55051e-06
1.44667e-05
1.48222e-06
1.45893e-05
1.22373e-06
1.45886e-05
1.24315e-06
1.47522e-05
6.45567e-07
1.47311e-05
1.17277e-06
1.48484e-05
3.68033e-07
1.49063e-05
9.29834e-07
1.49372e-05
4.01592e-07
1.50211e-05
6.83907e-07
1.49943e-05
7.00405e-07
1.50471e-05
-1.70938e-07
1.50366e-05
1.44626e-06
1.50413e-05
-5.02408e-07
1.08757e-06
1.55337e-05
1.31466e-05
3.41363e-06
1.36471e-05
4.78296e-06
1.36999e-05
2.42681e-06
1.3887e-05
1.55052e-06
1.40979e-05
1.18177e-06
1.43317e-05
1.31671e-06
1.44239e-05
1.39004e-06
1.45231e-05
1.12454e-06
1.45336e-05
1.23263e-06
1.46729e-05
5.06217e-07
1.46716e-05
1.17412e-06
1.47759e-05
2.63724e-07
1.48806e-05
8.25152e-07
1.49334e-05
3.48767e-07
1.50976e-05
5.19738e-07
1.50886e-05
7.09363e-07
1.51669e-05
-2.49234e-07
1.53053e-05
1.30786e-06
1.52288e-05
-4.25939e-07
4.58814e-07
1.58576e-05
1.30304e-05
2.88321e-06
1.3583e-05
4.23042e-06
1.36891e-05
2.32067e-06
1.38396e-05
1.40003e-06
1.39847e-05
1.03671e-06
1.42498e-05
1.05158e-06
1.43648e-05
1.27498e-06
1.44556e-05
1.0338e-06
1.44916e-05
1.19666e-06
1.46132e-05
3.84602e-07
1.46444e-05
1.14293e-06
1.47035e-05
2.04559e-07
1.47899e-05
7.38807e-07
1.48435e-05
2.95166e-07
1.50234e-05
3.39805e-07
1.50227e-05
7.10114e-07
1.51241e-05
-3.50663e-07
1.53452e-05
1.0867e-06
1.52926e-05
-3.73303e-07
-2.70893e-07
1.60223e-05
1.29381e-05
2.44513e-06
1.35153e-05
3.65316e-06
1.36777e-05
2.15827e-06
1.37977e-05
1.28005e-06
1.39004e-05
9.34048e-07
1.41509e-05
8.01038e-07
1.42634e-05
1.16249e-06
1.43927e-05
9.04466e-07
1.44536e-05
1.13582e-06
1.45741e-05
2.64091e-07
1.46397e-05
1.07731e-06
1.4654e-05
1.90221e-07
1.4732e-05
6.60861e-07
1.47771e-05
2.50034e-07
1.49238e-05
1.9313e-07
1.49523e-05
6.81586e-07
1.50687e-05
-4.67045e-07
1.53329e-05
8.2251e-07
1.53792e-05
-4.19649e-07
-6.11026e-07
1.57194e-05
1.28927e-05
2.0524e-06
1.34703e-05
3.07558e-06
1.36546e-05
1.97402e-06
1.37436e-05
1.19099e-06
1.38433e-05
8.34371e-07
1.40616e-05
5.82686e-07
1.41902e-05
1.03395e-06
1.43721e-05
7.22584e-07
1.44159e-05
1.09201e-06
1.45019e-05
1.78065e-07
1.45807e-05
9.98481e-07
1.45926e-05
1.78374e-07
1.47041e-05
5.49318e-07
1.47402e-05
2.14007e-07
1.48734e-05
5.99146e-08
1.49379e-05
6.17086e-07
1.50261e-05
-5.55227e-07
1.52865e-05
5.62102e-07
1.52894e-05
-4.22639e-07
-5.15909e-07
1.51943e-05
1.28821e-05
1.67034e-06
1.33978e-05
2.55988e-06
1.36013e-05
1.77046e-06
1.37135e-05
1.07879e-06
1.38155e-05
7.324e-07
1.40024e-05
3.9575e-07
1.4162e-05
8.74328e-07
1.43358e-05
5.48858e-07
1.43525e-05
1.0753e-06
1.44128e-05
1.17747e-07
1.45206e-05
8.90683e-07
1.45522e-05
1.46825e-07
1.46996e-05
4.01914e-07
1.47132e-05
2.0038e-07
1.48379e-05
-6.4774e-08
1.49202e-05
5.34758e-07
1.49547e-05
-5.89762e-07
1.51615e-05
3.55369e-07
1.5086e-05
-3.47161e-07
-7.62591e-07
1.53327e-05
1.2852e-05
1.31837e-06
1.32858e-05
2.12603e-06
1.35517e-05
1.50459e-06
1.37323e-05
8.98152e-07
1.37983e-05
6.66401e-07
1.3958e-05
2.36121e-07
1.41149e-05
7.17386e-07
1.42531e-05
4.10649e-07
1.42982e-05
1.03024e-06
1.43679e-05
4.80339e-08
1.45064e-05
7.52163e-07
1.45404e-05
1.12785e-07
1.46733e-05
2.69036e-07
1.46892e-05
1.84539e-07
1.47757e-05
-1.51312e-07
1.48728e-05
4.37611e-07
1.48683e-05
-5.85231e-07
1.50543e-05
1.69337e-07
1.50869e-05
-3.79678e-07
-1.43752e-06
1.57618e-05
1.27916e-05
1.02681e-06
1.32249e-05
1.69272e-06
1.35702e-05
1.15928e-06
1.37316e-05
7.36697e-07
1.37643e-05
6.33738e-07
1.39248e-05
7.55651e-08
1.40604e-05
5.81851e-07
1.41929e-05
2.78121e-07
1.42905e-05
9.3267e-07
1.43555e-05
-1.70085e-08
1.4494e-05
6.13673e-07
1.44998e-05
1.0698e-07
1.46308e-05
1.38072e-07
1.46534e-05
1.61948e-07
1.47189e-05
-2.16816e-07
1.48263e-05
3.30159e-07
1.48704e-05
-6.29328e-07
1.50056e-05
3.41981e-08
1.52037e-05
-5.77836e-07
-1.97988e-06
1.57461e-05
1.27593e-05
7.6747e-07
1.32404e-05
1.21164e-06
1.35648e-05
8.34872e-07
1.36709e-05
6.30597e-07
1.37481e-05
5.56586e-07
1.39135e-05
-8.98175e-08
1.40295e-05
4.65792e-07
1.41682e-05
1.39424e-07
1.42944e-05
8.06512e-07
1.43346e-05
-5.72051e-08
1.44658e-05
4.82479e-07
1.44456e-05
1.2713e-07
1.46127e-05
-2.89964e-08
1.462e-05
1.54669e-07
1.46861e-05
-2.82929e-07
1.48224e-05
1.93802e-07
1.48957e-05
-7.02537e-07
1.49579e-05
-2.80799e-08
1.50494e-05
-6.69293e-07
-7.86852e-07
1.38564e-05
1.27647e-05
5.02791e-07
1.32325e-05
7.43781e-07
1.3489e-05
5.78367e-07
1.36438e-05
4.75837e-07
1.37813e-05
4.19065e-07
1.38996e-05
-2.08098e-07
1.39997e-05
3.6565e-07
1.41342e-05
4.94122e-09
1.42753e-05
6.65485e-07
1.43158e-05
-9.77068e-08
1.4423e-05
3.75208e-07
1.44448e-05
1.05371e-07
1.46032e-05
-1.87447e-07
1.46061e-05
1.5177e-07
1.46476e-05
-3.24392e-07
1.48567e-05
-1.52969e-08
1.48172e-05
-6.63031e-07
1.49312e-05
-1.42042e-07
1.51278e-05
-8.65919e-07
-1.02896e-06
1.53699e-05
1.27564e-05
2.46391e-07
1.31816e-05
3.18597e-07
1.34494e-05
3.10503e-07
1.36852e-05
2.40078e-07
1.38026e-05
3.01674e-07
1.38601e-05
-2.65588e-07
1.39779e-05
2.47788e-07
1.40951e-05
-1.12175e-07
1.4272e-05
4.88562e-07
1.42935e-05
-1.19255e-07
1.44014e-05
2.67366e-07
1.44578e-05
4.89535e-08
1.45871e-05
-3.16774e-07
1.45659e-05
1.72952e-07
1.46523e-05
-4.10736e-07
1.48345e-05
-1.97475e-07
1.47431e-05
-5.71661e-07
1.49658e-05
-3.64771e-07
1.51307e-05
-1.03081e-06
-1.20054e-06
1.53023e-05
1.2733e-05
1.3344e-08
1.31649e-05
-1.13293e-07
1.34795e-05
-4.01854e-09
1.37147e-05
4.7977e-09
1.37707e-05
2.45682e-07
1.38259e-05
-3.20774e-07
1.39794e-05
9.43326e-08
1.41011e-05
-2.33946e-07
1.4281e-05
3.08756e-07
1.42799e-05
-1.18204e-07
1.43953e-05
1.51953e-07
1.44692e-05
-2.49246e-08
1.45393e-05
-3.86883e-07
1.45555e-05
1.5677e-07
1.46763e-05
-5.31547e-07
1.48033e-05
-3.24469e-07
1.47554e-05
-5.23803e-07
1.50174e-05
-6.26719e-07
1.50836e-05
-1.09706e-06
-1.40965e-06
1.52927e-05
1.27285e-05
-2.15201e-07
1.31855e-05
-5.70245e-07
1.35032e-05
-3.21683e-07
1.36943e-05
-1.86325e-07
1.37378e-05
2.02207e-07
1.38276e-05
-4.10627e-07
1.40134e-05
-9.14077e-08
1.4124e-05
-3.4461e-07
1.4269e-05
1.6377e-07
1.42682e-05
-1.17439e-07
1.44018e-05
1.84033e-08
1.44718e-05
-9.49194e-08
1.4512e-05
-4.27069e-07
1.45943e-05
7.44262e-08
1.47028e-05
-6.40042e-07
1.47693e-05
-3.90964e-07
1.48103e-05
-5.64772e-07
1.49837e-05
-8.0019e-07
1.4988e-05
-1.10129e-06
-1.83526e-06
1.54136e-05
1.2741e-05
-4.56248e-07
1.32081e-05
-1.03728e-06
1.35036e-05
-6.17174e-07
1.3656e-05
-3.38783e-07
1.37401e-05
1.18116e-07
1.38642e-05
-5.34676e-07
1.40512e-05
-2.78485e-07
1.41148e-05
-4.08137e-07
1.42447e-05
3.383e-08
1.42699e-05
-1.4264e-07
1.44129e-05
-1.24544e-07
1.44749e-05
-1.56958e-07
1.45315e-05
-4.83696e-07
1.46293e-05
-2.33176e-08
1.46969e-05
-7.07698e-07
1.47477e-05
-4.41733e-07
1.48489e-05
-6.65932e-07
1.48991e-05
-8.5047e-07
1.48358e-05
-1.03794e-06
-1.04319e-06
1.40437e-05
1.27599e-05
-7.16131e-07
1.32257e-05
-1.50314e-06
1.35017e-05
-8.93132e-07
1.36413e-05
-4.78388e-07
1.37714e-05
-1.1977e-08
1.39044e-05
-6.67647e-07
1.40533e-05
-4.27407e-07
1.40945e-05
-4.4938e-07
1.42387e-05
-1.10354e-07
1.43089e-05
-2.1282e-07
1.44179e-05
-2.33578e-07
1.4506e-05
-2.45007e-07
1.45396e-05
-5.17284e-07
1.46472e-05
-1.30963e-07
1.46613e-05
-7.21827e-07
1.47789e-05
-5.59248e-07
1.484e-05
-7.27115e-07
1.4895e-05
-9.05397e-07
1.51019e-05
-1.24486e-06
-1.66966e-06
1.57284e-05
1.27849e-05
-1.00098e-06
1.32416e-05
-1.95986e-06
1.35091e-05
-1.1607e-06
1.36506e-05
-6.19818e-07
1.38097e-05
-1.7107e-07
1.39215e-05
-7.79462e-07
1.40474e-05
-5.53292e-07
1.40985e-05
-5.00526e-07
1.42681e-05
-2.79936e-07
1.43515e-05
-2.96245e-07
1.44347e-05
-3.16764e-07
1.4523e-05
-3.33277e-07
1.45428e-05
-5.37086e-07
1.46512e-05
-2.39432e-07
1.46712e-05
-7.41786e-07
1.48151e-05
-7.03177e-07
1.48386e-05
-7.50541e-07
1.4969e-05
-1.03584e-06
1.52027e-05
-1.47851e-06
-1.87803e-06
1.5411e-05
1.28106e-05
-1.31154e-06
1.32649e-05
-2.41417e-06
1.35333e-05
-1.42915e-06
1.36702e-05
-7.56668e-07
1.38343e-05
-3.35216e-07
1.39343e-05
-8.7949e-07
1.40659e-05
-6.84834e-07
1.41364e-05
-5.71025e-07
1.43053e-05
-4.48809e-07
1.43852e-05
-3.7623e-07
1.44428e-05
-3.743e-07
1.4531e-05
-4.21526e-07
1.4564e-05
-5.70033e-07
1.46759e-05
-3.51404e-07
1.47215e-05
-7.87356e-07
1.4835e-05
-8.16644e-07
1.4867e-05
-7.82522e-07
1.5033e-05
-1.20185e-06
1.51742e-05
-1.61975e-06
-1.86427e-06
1.51605e-05
1.28418e-05
-1.65332e-06
1.32994e-05
-2.87178e-06
1.35634e-05
-1.6931e-06
1.36883e-05
-8.81599e-07
1.38565e-05
-5.03434e-07
1.39668e-05
-9.89824e-07
1.41078e-05
-8.25774e-07
1.41787e-05
-6.41974e-07
1.43317e-05
-6.01804e-07
1.4415e-05
-4.59469e-07
1.44507e-05
-4.10068e-07
1.45683e-05
-5.39111e-07
1.46125e-05
-6.14251e-07
1.47168e-05
-4.55645e-07
1.47566e-05
-8.27166e-07
1.48496e-05
-9.09659e-07
1.49083e-05
-8.41225e-07
1.50576e-05
-1.3512e-06
1.51383e-05
-1.70039e-06
-1.9224e-06
1.51964e-05
1.28798e-05
-2.03309e-06
1.33375e-05
-3.32948e-06
1.35903e-05
-1.94594e-06
1.37153e-05
-1.00664e-06
1.38948e-05
-6.82928e-07
1.4016e-05
-1.11101e-06
1.41508e-05
-9.60518e-07
1.42152e-05
-7.06408e-07
1.43655e-05
-7.52122e-07
1.44473e-05
-5.41294e-07
1.44841e-05
-4.46796e-07
1.46304e-05
-6.85435e-07
1.46573e-05
-6.41135e-07
1.47451e-05
-5.43443e-07
1.47877e-05
-8.69814e-07
1.4882e-05
-1.00393e-06
1.49523e-05
-9.1158e-07
1.5084e-05
-1.48288e-06
1.51748e-05
-1.79121e-06
-1.99854e-06
1.5251e-05
1.29214e-05
-2.4545e-06
1.33823e-05
-3.79038e-06
1.35931e-05
-2.15669e-06
1.37592e-05
-1.17281e-06
1.39465e-05
-8.70195e-07
1.40664e-05
-1.23089e-06
1.41895e-05
-1.0836e-06
1.42601e-05
-7.77013e-07
1.44094e-05
-9.01503e-07
1.44866e-05
-6.18455e-07
1.45422e-05
-5.02398e-07
1.46845e-05
-8.27698e-07
1.46933e-05
-6.49984e-07
1.47853e-05
-6.35407e-07
1.48388e-05
-9.23303e-07
1.49347e-05
-1.09985e-06
1.49965e-05
-9.73347e-07
1.51243e-05
-1.61073e-06
1.52272e-05
-1.89412e-06
-2.21795e-06
1.54466e-05
1.29713e-05
-2.92578e-06
1.34449e-05
-4.26399e-06
1.36298e-05
-2.34156e-06
1.38076e-05
-1.35068e-06
1.39951e-05
-1.05763e-06
1.41107e-05
-1.3465e-06
1.42335e-05
-1.20641e-06
1.43118e-05
-8.55326e-07
1.44541e-05
-1.04378e-06
1.45363e-05
-7.00656e-07
1.46082e-05
-5.74333e-07
1.47288e-05
-9.48327e-07
1.47519e-05
-6.7308e-07
1.48429e-05
-7.2638e-07
1.49036e-05
-9.83943e-07
1.49898e-05
-1.18609e-06
1.5031e-05
-1.01453e-06
1.51572e-05
-1.73693e-06
1.52635e-05
-2.00047e-06
-2.45154e-06
1.54971e-05
1.30355e-05
-3.46129e-06
1.35266e-05
-4.75506e-06
1.36814e-05
-2.4964e-06
1.38451e-05
-1.51431e-06
1.40382e-05
-1.25079e-06
1.41612e-05
-1.46946e-06
1.42853e-05
-1.33049e-06
1.4367e-05
-9.37038e-07
1.45105e-05
-1.18731e-06
1.45959e-05
-7.86078e-07
1.46784e-05
-6.56781e-07
1.47857e-05
-1.05562e-06
1.48309e-05
-7.18355e-07
1.4901e-05
-7.96475e-07
1.49739e-05
-1.05682e-06
1.50289e-05
-1.24106e-06
1.50659e-05
-1.05156e-06
1.51856e-05
-1.85666e-06
1.52812e-05
-2.09601e-06
-2.71755e-06
1.55472e-05
1.31172e-05
-4.07854e-06
1.36102e-05
-5.24799e-06
1.37148e-05
-2.60101e-06
1.38778e-05
-1.67733e-06
1.40954e-05
-1.46836e-06
1.42292e-05
-1.6033e-06
1.43457e-05
-1.44695e-06
1.44465e-05
-1.03784e-06
1.45847e-05
-1.32555e-06
1.4665e-05
-8.66385e-07
1.47614e-05
-7.53116e-07
1.48509e-05
-1.14515e-06
1.48994e-05
-7.66878e-07
1.49532e-05
-8.50236e-07
1.50203e-05
-1.12393e-06
1.50363e-05
-1.25703e-06
1.50776e-05
-1.09292e-06
1.51304e-05
-1.9094e-06
1.51653e-05
-2.13095e-06
-2.95378e-06
1.54015e-05
1.32125e-05
-4.79103e-06
1.36661e-05
-5.70165e-06
1.37372e-05
-2.67202e-06
1.39368e-05
-1.877e-06
1.41842e-05
-1.71575e-06
1.43223e-05
-1.74136e-06
1.44312e-05
-1.5559e-06
1.45555e-05
-1.16216e-06
1.46576e-05
-1.42761e-06
1.47308e-05
-9.39638e-07
1.48206e-05
-8.42853e-07
1.48607e-05
-1.18528e-06
1.48918e-05
-7.97995e-07
1.49161e-05
-8.74483e-07
1.49283e-05
-1.13614e-06
1.48909e-05
-1.21968e-06
1.48875e-05
-1.08945e-06
1.48106e-05
-1.83255e-06
1.47299e-05
-2.05028e-06
-3.10693e-06
1.48831e-05
1.33036e-05
-5.5946e-06
1.3684e-05
-6.08204e-06
1.37939e-05
-2.78195e-06
1.40507e-05
-2.13384e-06
1.4307e-05
-1.97198e-06
1.44292e-05
-1.86358e-06
1.45108e-05
-1.63748e-06
1.46129e-05
-1.26427e-06
1.46316e-05
-1.44629e-06
1.46596e-05
-9.67661e-07
1.46843e-05
-8.67536e-07
1.46288e-05
-1.12983e-06
1.46038e-05
-7.72962e-07
1.45557e-05
-8.26356e-07
1.4472e-05
-1.05245e-06
1.43598e-05
-1.10751e-06
1.42769e-05
-1.00659e-06
1.40779e-05
-1.63355e-06
1.3849e-05
-1.82134e-06
-2.25308e-06
1.29952e-05
1.33872e-05
-6.48181e-06
1.36591e-05
-6.35397e-06
1.39177e-05
-3.04051e-06
1.41921e-05
-2.40824e-06
1.43766e-05
-2.15644e-06
1.44097e-05
-1.8967e-06
1.43811e-05
-1.60892e-06
1.4362e-05
-1.24513e-06
1.42392e-05
-1.32347e-06
1.41612e-05
-8.89746e-07
1.40746e-05
-7.80908e-07
1.39158e-05
-9.71011e-07
1.38178e-05
-6.74955e-07
1.36968e-05
-7.05333e-07
1.35353e-05
-8.90989e-07
1.33691e-05
-9.41353e-07
1.32209e-05
-8.5833e-07
1.29542e-05
-1.36688e-06
1.26889e-05
-1.55607e-06
-2.13085e-06
1.25667e-05
1.34941e-05
-7.47589e-06
1.37209e-05
-6.58084e-06
1.39961e-05
-3.3157e-06
1.41294e-05
-2.54152e-06
1.40773e-05
-2.10434e-06
1.38988e-05
-1.71818e-06
1.36794e-05
-1.3895e-06
1.34919e-05
-1.05764e-06
1.32383e-05
-1.06986e-06
1.3067e-05
-7.18418e-07
1.29005e-05
-6.14467e-07
1.26862e-05
-7.56674e-07
1.2546e-05
-5.34802e-07
1.23871e-05
-5.46448e-07
1.21908e-05
-6.94637e-07
1.19974e-05
-7.47969e-07
1.18141e-05
-6.75031e-07
1.15183e-05
-1.07102e-06
1.11978e-05
-1.23565e-06
-1.50204e-06
1.0569e-05
1.35944e-05
-8.57027e-06
1.36355e-05
-6.62192e-06
1.36275e-05
-3.30771e-06
1.33928e-05
-2.30691e-06
1.30154e-05
-1.72693e-06
1.26208e-05
-1.32351e-06
1.22623e-05
-1.03105e-06
1.19753e-05
-7.70626e-07
1.16683e-05
-7.62839e-07
1.14624e-05
-5.12515e-07
1.12693e-05
-4.2137e-07
1.10466e-05
-5.34011e-07
1.08951e-05
-3.83285e-07
1.07272e-05
-3.78535e-07
1.05261e-05
-4.93551e-07
1.03259e-05
-5.4773e-07
1.01324e-05
-4.81563e-07
9.82957e-06
-7.68193e-07
9.50416e-06
-9.10246e-07
-1.01691e-06
9.01903e-06
1.3411e-05
-9.48125e-06
1.28714e-05
-6.08233e-06
1.23307e-05
-2.76699e-06
1.17116e-05
-1.68784e-06
1.11313e-05
-1.14665e-06
1.06518e-05
-8.44009e-07
1.02654e-05
-6.44636e-07
9.96612e-06
-4.71342e-07
9.67135e-06
-4.68066e-07
9.47382e-06
-3.14987e-07
9.2935e-06
-2.41046e-07
9.09208e-06
-3.32594e-07
8.94948e-06
-2.4068e-07
8.79484e-06
-2.23899e-07
8.60966e-06
-3.08377e-07
8.41955e-06
-3.5762e-07
8.2351e-06
-2.9711e-07
7.95355e-06
-4.86638e-07
7.63813e-06
-5.94825e-07
-6.30243e-07
7.25146e-06
1.24224e-05
-9.40363e-06
1.09924e-05
-4.65233e-06
9.98408e-06
-1.75869e-06
9.20001e-06
-9.03765e-07
8.61686e-06
-5.6351e-07
8.18255e-06
-4.09692e-07
7.85046e-06
-3.12547e-07
7.59922e-06
-2.20107e-07
7.35762e-06
-2.26465e-07
7.19567e-06
-1.53031e-07
7.05558e-06
-1.00954e-07
6.89163e-06
-1.68648e-07
6.77241e-06
-1.21462e-07
6.64909e-06
-1.00578e-07
6.49509e-06
-1.54377e-07
6.32906e-06
-1.91591e-07
6.17371e-06
-1.41756e-07
5.93501e-06
-2.47942e-07
5.65206e-06
-3.11871e-07
-3.09913e-07
5.33172e-06
1.01088e-05
-7.01243e-06
7.8226e-06
-2.36613e-06
6.71223e-06
-6.4832e-07
6.06264e-06
-2.54174e-07
5.64393e-06
-1.44802e-07
5.3431e-06
-1.0886e-07
5.11565e-06
-8.50967e-08
4.94968e-06
-5.41332e-08
4.78586e-06
-6.2643e-08
4.67661e-06
-4.37849e-08
4.59342e-06
-1.77613e-08
4.47624e-06
-5.14664e-08
4.39245e-06
-3.76772e-08
4.31383e-06
-2.19568e-08
4.20411e-06
-4.46559e-08
4.07683e-06
-6.43154e-08
3.97128e-06
-3.62001e-08
3.79638e-06
-7.30442e-08
3.58152e-06
-9.70079e-08
-9.21782e-08
3.36378e-06
5.48757e-06
3.12144e-06
2.47312e-06
2.21895e-06
2.07415e-06
1.96529e-06
1.88019e-06
1.82606e-06
1.76341e-06
1.71963e-06
1.70187e-06
1.6504e-06
1.61272e-06
1.59077e-06
1.54611e-06
1.48179e-06
1.44559e-06
1.37255e-06
1.27554e-06
1.18336e-06
1.99045e-06
4.97859e-07
-8.40827e-07
2.29538e-06
1.16374e-07
-4.21299e-07
2.36537e-06
-3.99931e-07
3.29935e-07
2.24537e-06
-3.54014e-07
4.7402e-07
2.00878e-06
-2.40014e-07
4.76599e-07
1.90597e-06
4.91592e-07
-3.88776e-07
2.1591e-06
1.30925e-06
-1.56239e-06
2.54562e-06
1.19586e-06
-1.58237e-06
3.53625e-06
2.72659e-06
-3.71722e-06
5.09165e-06
4.87038e-06
-6.42578e-06
6.16011e-06
4.86281e-06
-5.93127e-06
6.65218e-06
2.76203e-06
-3.2541e-06
7.23545e-06
2.34338e-06
-2.92665e-06
8.07311e-06
1.32755e-06
-2.16522e-06
8.95755e-06
-1.32043e-07
-7.5239e-07
1.00254e-05
-1.00988e-06
-5.79903e-08
1.11774e-05
-2.33681e-06
1.18486e-06
1.22663e-05
-3.32211e-06
2.23321e-06
1.29263e-05
-3.9837e-06
3.32363e-06
1.34495e-05
-4.59488e-06
4.07172e-06
1.41784e-05
-6.47909e-06
5.75016e-06
1.48646e-05
-8.51699e-06
7.83078e-06
1.56273e-05
-1.13033e-05
1.05406e-05
1.62636e-05
-1.37728e-05
1.31365e-05
1.66593e-05
-1.46169e-05
1.42211e-05
1.70056e-05
-1.62019e-05
1.58557e-05
1.7105e-05
-1.73043e-05
1.72048e-05
1.6708e-05
-1.80516e-05
1.84486e-05
1.61718e-05
-1.88658e-05
1.94019e-05
1.57469e-05
-1.89903e-05
1.94152e-05
1.53716e-05
-1.99946e-05
2.03699e-05
1.50984e-05
-2.02752e-05
2.05483e-05
1.50048e-05
-2.02427e-05
2.03363e-05
1.50782e-05
-2.10169e-05
2.09435e-05
1.5054e-05
-2.01784e-05
2.02026e-05
1.51601e-05
-1.94663e-05
1.93601e-05
1.55128e-05
-1.96281e-05
1.92755e-05
1.58775e-05
-1.80686e-05
1.77039e-05
1.62785e-05
-1.63643e-05
1.59634e-05
1.65642e-05
-1.54127e-05
1.5127e-05
1.66702e-05
-1.24793e-05
1.23732e-05
1.66179e-05
-9.83379e-06
9.88617e-06
1.6355e-05
-7.81477e-06
8.07768e-06
1.58785e-05
-4.15631e-06
4.6328e-06
1.52945e-05
-1.96676e-06
2.55077e-06
1.47119e-05
-2.75602e-07
8.58148e-07
1.39951e-05
2.65294e-06
-1.93617e-06
1.32117e-05
3.85036e-06
-3.06693e-06
1.25486e-05
4.17586e-06
-3.51272e-06
1.1872e-05
5.60457e-06
-4.92799e-06
1.12324e-05
6.51083e-06
-5.87126e-06
1.07759e-05
5.98462e-06
-5.52814e-06
1.03476e-05
5.73473e-06
-5.3064e-06
9.82532e-06
6.75939e-06
-6.2371e-06
9.4638e-06
7.32606e-06
-6.96454e-06
9.48946e-06
7.09236e-06
-7.11801e-06
9.58859e-06
7.30972e-06
-7.40886e-06
9.41728e-06
7.13724e-06
-6.96593e-06
9.11239e-06
5.46081e-06
-5.15592e-06
8.86318e-06
2.92449e-06
-2.67528e-06
8.99608e-06
2.96906e-06
-3.10196e-06
9.47809e-06
8.04608e-06
-8.52809e-06
9.87437e-06
1.57143e-05
-1.61105e-05
9.9444e-06
2.27187e-05
-2.27887e-05
9.62726e-06
2.75085e-05
-2.71914e-05
8.92127e-06
2.93683e-05
-2.86623e-05
7.91561e-06
2.82685e-05
-2.72628e-05
6.80125e-06
2.50753e-05
-2.39609e-05
5.77888e-06
2.10782e-05
-2.00558e-05
4.96754e-06
1.73643e-05
-1.6553e-05
4.3702e-06
1.44385e-05
-1.38412e-05
3.93508e-06
1.21856e-05
-1.17505e-05
3.6559e-06
9.96097e-06
-9.68179e-06
3.60509e-06
7.16242e-06
-7.11161e-06
3.80817e-06
3.89269e-06
-4.09577e-06
4.20854e-06
4.40412e-07
-8.40783e-07
4.57379e-06
-2.50959e-06
2.14433e-06
4.70321e-06
-5.70693e-06
5.57751e-06
4.92476e-06
-9.74817e-06
9.52662e-06
5.43594e-06
-1.43874e-05
1.38762e-05
6.1429e-06
-1.93681e-05
1.86612e-05
7.12315e-06
-2.28718e-05
2.18915e-05
8.1147e-06
-2.34005e-05
2.24089e-05
8.77678e-06
-2.25368e-05
2.18747e-05
8.94954e-06
-2.21803e-05
2.20075e-05
8.86635e-06
-2.0968e-05
2.10512e-05
8.71656e-06
-1.70069e-05
1.71567e-05
8.41783e-06
-1.36601e-05
1.39589e-05
8.17836e-06
-1.50055e-05
1.5245e-05
8.02738e-06
-1.93372e-05
1.94882e-05
7.90498e-06
-2.41748e-05
2.42972e-05
7.85354e-06
-2.68366e-05
2.68881e-05
7.5989e-06
-2.88408e-05
2.90955e-05
7.39097e-06
-3.02234e-05
3.04313e-05
7.37376e-06
-2.74228e-05
2.744e-05
7.15221e-06
-2.37404e-05
2.39619e-05
6.96782e-06
-2.38086e-05
2.3993e-05
7.23371e-06
-2.27104e-05
2.24445e-05
7.63899e-06
-1.85631e-05
1.81578e-05
7.74876e-06
-1.47854e-05
1.46756e-05
7.93098e-06
-1.09087e-05
1.07265e-05
8.33834e-06
-5.24701e-06
4.83965e-06
8.77017e-06
8.91233e-07
-1.32306e-06
9.08134e-06
5.69957e-06
-6.01073e-06
9.24827e-06
8.94316e-06
-9.11009e-06
9.35396e-06
1.29478e-05
-1.30535e-05
9.45634e-06
1.91843e-05
-1.92866e-05
9.42696e-06
2.4418e-05
-2.43887e-05
9.26448e-06
2.57759e-05
-2.56134e-05
9.20755e-06
2.5796e-05
-2.57391e-05
9.38964e-06
2.70966e-05
-2.72787e-05
9.63816e-06
2.97123e-05
-2.99608e-05
9.73103e-06
3.1548e-05
-3.16409e-05
9.58543e-06
3.17391e-05
-3.15935e-05
9.11211e-06
3.07905e-05
-3.03171e-05
8.45671e-06
2.88732e-05
-2.82178e-05
7.82641e-06
2.6378e-05
-2.57477e-05
7.06739e-06
2.3728e-05
-2.2969e-05
6.5644e-06
1.97641e-05
-1.92611e-05
6.10251e-06
1.72805e-05
-1.68186e-05
5.52459e-06
1.45304e-05
-1.39525e-05
4.66067e-06
1.38429e-05
-1.29789e-05
4.01772e-06
1.00008e-05
-9.35786e-06
3.85072e-06
8.9303e-06
-8.7633e-06
3.94528e-06
3.27367e-06
-3.36824e-06
4.50835e-06
3.09575e-06
-3.65881e-06
5.26093e-06
-1.80371e-06
1.05113e-06
5.7141e-06
6.14164e-07
-1.06733e-06
6.45616e-06
-3.08423e-06
2.34216e-06
6.4263e-06
1.35337e-06
-1.32351e-06
6.53342e-06
-2.24961e-06
2.14248e-06
6.93781e-06
1.6428e-06
-2.04719e-06
7.2974e-06
-8.75285e-07
5.15693e-07
7.74962e-06
2.46139e-06
-2.9136e-06
8.07968e-06
1.03808e-06
-1.36814e-06
8.45917e-06
3.47442e-06
-3.85391e-06
8.9491e-06
2.00437e-06
-2.4943e-06
9.31841e-06
4.87528e-06
-5.24459e-06
9.88007e-06
3.43364e-06
-3.9953e-06
1.04018e-05
5.15428e-06
-5.676e-06
1.10824e-05
3.0156e-06
-3.69619e-06
1.15096e-05
4.60553e-06
-5.03274e-06
1.21315e-05
1.96849e-06
-2.59037e-06
1.26352e-05
1.60181e-06
-2.10556e-06
1.29928e-05
-1.00955e-06
6.51968e-07
1.32276e-05
-1.71515e-06
1.48032e-06
1.35001e-05
-5.16921e-06
4.89673e-06
1.35113e-05
-5.2887e-06
5.27752e-06
1.36066e-05
-8.04649e-06
7.95115e-06
1.34969e-05
-9.07648e-06
9.18624e-06
1.33304e-05
-1.1123e-05
1.12895e-05
1.30052e-05
-1.10803e-05
1.14054e-05
1.27868e-05
-1.32537e-05
1.34722e-05
1.24227e-05
-1.2931e-05
1.3295e-05
1.22309e-05
-1.36449e-05
1.38367e-05
1.20035e-05
-1.32936e-05
1.35211e-05
1.2042e-05
-1.31472e-05
1.31086e-05
1.20102e-05
-1.24252e-05
1.2457e-05
1.19924e-05
-1.25273e-05
1.25451e-05
1.19249e-05
-1.10989e-05
1.11664e-05
1.19136e-05
-9.24749e-06
9.25877e-06
1.18142e-05
-8.65544e-06
8.75486e-06
1.1642e-05
-7.99089e-06
8.16304e-06
1.1504e-05
-5.83981e-06
5.97789e-06
1.13187e-05
-4.27766e-06
4.46292e-06
1.10642e-05
-4.216e-06
4.47054e-06
1.07297e-05
-4.14846e-06
4.48295e-06
1.03609e-05
-3.51646e-06
3.88521e-06
1.01883e-05
-3.48842e-06
3.661e-06
1.00631e-05
-3.94335e-06
4.06855e-06
9.85961e-06
-4.04707e-06
4.25059e-06
9.67576e-06
-3.57331e-06
3.75716e-06
9.57405e-06
-2.96007e-06
3.06178e-06
9.59781e-06
-2.49008e-06
2.46633e-06
9.91511e-06
-1.95089e-06
1.63359e-06
1.03625e-05
-1.04492e-06
5.97511e-07
1.07298e-05
-2.33235e-07
-1.34058e-07
1.11597e-05
2.81796e-07
-7.11707e-07
1.14204e-05
1.30502e-06
-1.56569e-06
1.17034e-05
2.19557e-06
-2.4786e-06
1.18547e-05
3.20202e-06
-3.35326e-06
1.19799e-05
4.28441e-06
-4.40961e-06
1.19307e-05
5.22014e-06
-5.17098e-06
1.19019e-05
6.0421e-06
-6.01328e-06
1.20011e-05
7.1651e-06
-7.26436e-06
1.19771e-05
8.95056e-06
-8.92655e-06
1.18899e-05
1.04921e-05
-1.0405e-05
1.16867e-05
1.2098e-05
-1.18947e-05
1.15127e-05
1.36395e-05
-1.34655e-05
1.10745e-05
1.47608e-05
-1.43226e-05
1.04633e-05
1.52604e-05
-1.46492e-05
9.8674e-06
1.49254e-05
-1.43295e-05
9.23814e-06
1.47872e-05
-1.41579e-05
8.83696e-06
1.49391e-05
-1.45379e-05
8.5027e-06
1.54081e-05
-1.50739e-05
8.07069e-06
1.64068e-05
-1.59748e-05
7.71261e-06
1.80008e-05
-1.76427e-05
6.87134e-06
2.08111e-05
-1.99698e-05
6.38138e-06
2.26481e-05
-2.21581e-05
3.23299e-05
-3.18058e-05
5.85732e-06
4.2067e-06
5.10068e-07
4.07576e-06
2.47311e-07
4.083e-06
-4.07163e-07
4.17434e-06
-4.45363e-07
4.17348e-06
-2.39146e-07
4.24433e-06
4.20739e-07
4.40948e-06
1.1441e-06
4.3841e-06
1.22123e-06
4.66885e-06
2.44185e-06
5.90744e-06
3.63178e-06
7.21459e-06
3.55566e-06
8.00745e-06
1.96917e-06
8.70797e-06
1.64286e-06
9.49496e-06
5.40556e-07
1.01633e-05
-8.00333e-07
1.09433e-05
-1.78991e-06
1.19315e-05
-3.32501e-06
1.26767e-05
-4.06735e-06
1.329e-05
-4.59698e-06
1.42562e-05
-5.56112e-06
1.52146e-05
-7.43744e-06
1.59698e-05
-9.27224e-06
1.65935e-05
-1.19269e-05
1.6956e-05
-1.41353e-05
1.71871e-05
-1.4848e-05
1.71649e-05
-1.61798e-05
1.68002e-05
-1.69396e-05
1.62923e-05
-1.75436e-05
1.59011e-05
-1.84746e-05
1.56014e-05
-1.86905e-05
1.5257e-05
-1.96501e-05
1.50553e-05
-2.00735e-05
1.5067e-05
-2.02543e-05
1.51197e-05
-2.10696e-05
1.51155e-05
-2.01742e-05
1.53058e-05
-1.96566e-05
1.57746e-05
-2.0097e-05
1.6234e-05
-1.8528e-05
1.67143e-05
-1.68446e-05
1.70169e-05
-1.57153e-05
1.70776e-05
-1.25399e-05
1.70768e-05
-9.83307e-06
1.68524e-05
-7.5903e-06
1.63491e-05
-3.65307e-06
1.57064e-05
-1.32398e-06
1.50587e-05
3.7204e-07
1.42684e-05
3.44321e-06
1.34337e-05
4.6851e-06
1.26999e-05
4.90961e-06
1.19884e-05
6.31612e-06
1.13213e-05
7.17794e-06
1.08237e-05
6.48225e-06
1.03892e-05
6.16923e-06
9.87954e-06
7.26903e-06
9.49374e-06
7.71186e-06
9.4672e-06
7.1189e-06
9.56174e-06
7.21518e-06
9.40947e-06
7.28951e-06
9.11655e-06
5.75373e-06
8.84711e-06
3.19392e-06
8.9321e-06
2.88408e-06
9.43321e-06
7.54497e-06
9.94749e-06
1.52e-05
1.01675e-05
2.24987e-05
9.99405e-06
2.7682e-05
9.41619e-06
2.99461e-05
8.49983e-06
2.91848e-05
7.43858e-06
2.61366e-05
6.43096e-06
2.20858e-05
5.6191e-06
1.81762e-05
5.04066e-06
1.5017e-05
4.68605e-06
1.25402e-05
4.55544e-06
1.00916e-05
4.64094e-06
7.07692e-06
4.92778e-06
3.60585e-06
5.36415e-06
4.03858e-09
5.75285e-06
-2.8983e-06
5.79446e-06
-5.74854e-06
5.82218e-06
-9.77588e-06
6.1909e-06
-1.47561e-05
6.77241e-06
-1.99496e-05
7.62423e-06
-2.37236e-05
8.5117e-06
-2.42879e-05
9.08432e-06
-2.31094e-05
9.18462e-06
-2.22806e-05
9.02645e-06
-2.08099e-05
8.7813e-06
-1.67618e-05
8.40817e-06
-1.3287e-05
8.09113e-06
-1.46885e-05
7.88644e-06
-1.91325e-05
7.69019e-06
-2.39785e-05
7.57222e-06
-2.67186e-05
7.27674e-06
-2.85453e-05
7.03385e-06
-2.99805e-05
6.99933e-06
-2.73883e-05
6.7879e-06
-2.35289e-05
6.52316e-06
-2.35439e-05
6.6961e-06
-2.28833e-05
7.07849e-06
-1.89455e-05
7.13555e-06
-1.48424e-05
7.2395e-06
-1.10127e-05
7.63784e-06
-5.64535e-06
8.14418e-06
3.84893e-07
8.56234e-06
5.28141e-06
8.78028e-06