/*--------------------------------*- C++ -*----------------------------------*\
| =========                 |                                                 |
| \\      /  F ield         | OpenFOAM: The Open Source CFD Toolbox           |
|  \\    /   O peration     | Version:  2.4.0                                 |
|   \\  /    A nd           | Web:      www.OpenFOAM.org                      |
|    \\/     M anipulation  |                                                 |
\*---------------------------------------------------------------------------*/
FoamFile
{
    version     2.0;
    format      ascii;
    class       surfaceScalarField;
    location    "0.11";
    object      phi;
}
// * * * * * * * * * * * * * * * * * * * * * * * * * * * * * * * * * * * * * //

dimensions      [0 3 -1 0 0 0 0];

internalField   nonuniform List<scalar> 
8640
(
1.14663e-05
1.35337e-05
7.17577e-06
4.29048e-06
5.92232e-06
1.25345e-06
5.35789e-06
5.64434e-07
5.10249e-06
2.55393e-07
4.91887e-06
1.83623e-07
4.82517e-06
9.37009e-08
4.71112e-06
1.14044e-07
4.66486e-06
4.62641e-08
2.29451e-07
4.43541e-06
2.10462e-05
1.74876e-05
1.74606e-05
7.87599e-06
1.55244e-05
3.18967e-06
1.42355e-05
1.85338e-06
1.35028e-05
9.88124e-07
1.29852e-05
7.0116e-07
1.27095e-05
3.6946e-07
1.23767e-05
4.46767e-07
1.22445e-05
1.78467e-07
9.6336e-07
1.15106e-05
2.56883e-05
1.67993e-05
2.41174e-05
9.44689e-06
2.26319e-05
4.67517e-06
2.12121e-05
3.27323e-06
2.02498e-05
1.95039e-06
1.95204e-05
1.43053e-06
1.90845e-05
8.05371e-07
1.86789e-05
8.52425e-07
1.8363e-05
4.94373e-07
1.53877e-06
1.77876e-05
2.74366e-05
1.43627e-05
2.7745e-05
9.13849e-06
2.74076e-05
5.01259e-06
2.64996e-05
4.1812e-06
2.5692e-05
2.75792e-06
2.49667e-05
2.15591e-06
2.44404e-05
1.33158e-06
2.40595e-05
1.23338e-06
2.36925e-05
8.61353e-07
1.8851e-06
2.33462e-05
2.76086e-05
1.17541e-05
2.88819e-05
7.86521e-06
2.96637e-05
4.23073e-06
2.96605e-05
4.18442e-06
2.94366e-05
2.98181e-06
2.90268e-05
2.56577e-06
2.86094e-05
1.74896e-06
2.83002e-05
1.5426e-06
2.80469e-05
1.11465e-06
1.56502e-06
2.83669e-05
2.74336e-05
9.32057e-06
2.88264e-05
6.47235e-06
3.00431e-05
3.01402e-06
3.06828e-05
3.54481e-06
3.11511e-05
2.5135e-06
3.12714e-05
2.44545e-06
3.12513e-05
1.76908e-06
3.11279e-05
1.66596e-06
3.10974e-05
1.14518e-06
1.35599e-06
3.13064e-05
2.73735e-05
6.94711e-06
2.8712e-05
5.13378e-06
2.98373e-05
1.88873e-06
3.06406e-05
2.74154e-06
3.14134e-05
1.74068e-06
3.18434e-05
2.01542e-06
3.22202e-05
1.39232e-06
3.2399e-05
1.48717e-06
3.26468e-05
8.97349e-07
1.42628e-06
3.25765e-05
2.73543e-05
4.59282e-06
2.88468e-05
3.64127e-06
2.96505e-05
1.08506e-06
3.05549e-05
1.83708e-06
3.13778e-05
9.17834e-07
3.17925e-05
1.60072e-06
3.22251e-05
9.59726e-07
3.26848e-05
1.02747e-06
3.32238e-05
3.58343e-07
2.88781e-07
3.43613e-05
2.72547e-05
2.3381e-06
2.88926e-05
2.00341e-06
2.96676e-05
3.10028e-07
3.05389e-05
9.65834e-07
3.1242e-05
2.14678e-07
3.17372e-05
1.1055e-06
3.22174e-05
4.79517e-07
3.27584e-05
4.86534e-07
3.33639e-05
-2.47154e-07
-4.48632e-07
3.41013e-05
2.71962e-05
1.41882e-07
2.89621e-05
2.37513e-07
2.97027e-05
-4.3058e-07
3.04113e-05
2.57266e-07
3.11158e-05
-4.89798e-07
3.18204e-05
4.00917e-07
3.23004e-05
-5.05847e-10
3.27739e-05
1.29982e-08
3.3317e-05
-7.90228e-07
-8.12411e-07
3.36808e-05
2.71894e-05
-2.04755e-06
2.89961e-05
-1.56915e-06
2.97004e-05
-1.13486e-06
3.03953e-05
-4.37682e-07
3.11114e-05
-1.20589e-06
3.18213e-05
-3.09004e-07
3.23055e-05
-4.84664e-07
3.28267e-05
-5.08185e-07
3.32723e-05
-1.23587e-06
-1.08293e-06
3.35428e-05
2.72399e-05
-4.28748e-06
2.90217e-05
-3.35093e-06
2.97178e-05
-1.83092e-06
3.04421e-05
-1.16205e-06
3.1155e-05
-1.91873e-06
3.18575e-05
-1.01149e-06
3.23546e-05
-9.81763e-07
3.28622e-05
-1.01583e-06
3.32184e-05
-1.592e-06
-1.42146e-06
3.35569e-05
2.73223e-05
-6.6098e-06
2.90271e-05
-5.05571e-06
2.97548e-05
-2.5586e-06
3.05716e-05
-1.97888e-06
3.13066e-05
-2.65374e-06
3.19318e-05
-1.63668e-06
3.23515e-05
-1.40141e-06
3.28014e-05
-1.46579e-06
3.31661e-05
-1.95666e-06
-1.96966e-06
3.37143e-05
2.74157e-05
-9.02546e-06
2.8924e-05
-6.56403e-06
2.98667e-05
-3.50129e-06
3.07561e-05
-2.86831e-06
3.13959e-05
-3.29351e-06
3.18811e-05
-2.1219e-06
3.22319e-05
-1.75222e-06
3.25254e-05
-1.75927e-06
3.27676e-05
-2.19887e-06
-2.3868e-06
3.31847e-05
2.75376e-05
-1.15631e-05
2.89782e-05
-8.00461e-06
2.99795e-05
-4.50254e-06
3.07819e-05
-3.67078e-06
3.10761e-05
-3.58764e-06
3.12337e-05
-2.27952e-06
3.12769e-05
-1.79543e-06
3.11813e-05
-1.66363e-06
3.11093e-05
-2.12693e-06
-2.41435e-06
3.11369e-05
2.7693e-05
-1.42561e-05
2.89306e-05
-9.24223e-06
2.95864e-05
-5.15832e-06
2.97532e-05
-3.83762e-06
2.9347e-05
-3.18143e-06
2.8991e-05
-1.92352e-06
2.865e-05
-1.45439e-06
2.82601e-05
-1.27375e-06
2.79139e-05
-1.78074e-06
-1.46408e-06
2.69636e-05
2.74888e-05
-1.67449e-05
2.77514e-05
-9.50484e-06
2.73507e-05
-4.75766e-06
2.65758e-05
-3.06273e-06
2.56063e-05
-2.21189e-06
2.49605e-05
-1.27771e-06
2.44466e-05
-9.40544e-07
2.39834e-05
-8.10542e-07
2.35125e-05
-1.30979e-06
-7.81718e-07
2.28301e-05
2.57212e-05
-1.7466e-05
2.41127e-05
-7.89642e-06
2.25921e-05
-3.23703e-06
2.12701e-05
-1.74071e-06
2.01802e-05
-1.12204e-06
1.95326e-05
-6.301e-07
1.9044e-05
-4.51873e-07
1.86403e-05
-4.06907e-07
1.81051e-05
-7.74595e-07
-2.75764e-07
1.75992e-05
2.10635e-05
-1.35295e-05
1.74582e-05
-4.29116e-06
1.54955e-05
-1.27433e-06
1.42788e-05
-5.23947e-07
1.34548e-05
-2.98037e-07
1.29941e-05
-1.694e-07
1.26575e-05
-1.15329e-07
1.23683e-05
-1.17736e-07
1.18812e-05
-2.87399e-07
-2.26564e-08
1.1628e-05
1.14705e-05
7.17932e-06
5.90499e-06
5.38104e-06
5.08301e-06
4.91361e-06
4.79828e-06
4.68054e-06
4.39314e-06
4.37049e-06
5.62511e-06
1.58929e-07
-1.34863e-06
7.414e-06
1.31193e-06
-3.10082e-06
8.52623e-06
2.94847e-06
-4.06071e-06
9.6665e-06
2.94656e-06
-4.08682e-06
1.06764e-05
1.71125e-06
-2.72111e-06
1.15733e-05
-2.13732e-06
1.24042e-06
1.25396e-05
-6.29103e-06
5.32472e-06
1.24685e-05
-9.35827e-06
9.42935e-06
1.155e-05
-1.22808e-05
1.31992e-05
9.87605e-06
-1.32475e-05
1.49215e-05
7.71558e-06
-1.32642e-05
1.54247e-05
4.15558e-06
-1.02715e-05
1.38315e-05
2.1271e-06
-4.8886e-06
6.91707e-06
4.00593e-06
-4.68234e-07
-1.41059e-06
6.10485e-06
1.30745e-05
-1.51735e-05
1.00782e-05
2.90235e-05
-3.29969e-05
1.45376e-05
2.33922e-05
-2.78516e-05
1.67657e-05
1.70509e-05
-1.9279e-05
1.91169e-05
9.87786e-06
-1.2229e-05
2.10157e-05
2.2685e-06
-4.1673e-06
2.22576e-05
-3.09434e-06
1.85242e-06
2.36649e-05
-8.77518e-06
7.36786e-06
2.51405e-05
-1.32207e-05
1.17451e-05
2.72122e-05
-1.69708e-05
1.48992e-05
2.99636e-05
-2.44664e-05
2.17149e-05
3.18405e-05
-2.9714e-05
2.78371e-05
3.32669e-05
-3.15625e-05
3.01361e-05
3.3879e-05
-3.28423e-05
3.22302e-05
3.31303e-05
-3.31761e-05
3.39248e-05
3.21968e-05
-3.02249e-05
3.11584e-05
3.13557e-05
-2.81271e-05
2.89682e-05
3.00002e-05
-2.57406e-05
2.70961e-05
2.81039e-05
-2.29742e-05
2.48705e-05
2.73502e-05
-2.17531e-05
2.25068e-05
2.71586e-05
-2.20783e-05
2.22699e-05
2.66501e-05
-2.14662e-05
2.19746e-05
2.63988e-05
-1.96501e-05
1.99014e-05
2.60297e-05
-1.44266e-05
1.47958e-05
2.64985e-05
-1.12665e-05
1.07976e-05
2.64453e-05
-3.08966e-06
3.14291e-06
2.61623e-05
4.37496e-06
-4.09198e-06
2.58275e-05
1.22468e-05
-1.1912e-05
2.55175e-05
2.1718e-05
-2.1408e-05
2.41782e-05
3.03283e-05
-2.8989e-05
2.33302e-05
3.24923e-05
-3.16443e-05
2.24204e-05
3.66952e-05
-3.57855e-05
2.29885e-05
3.7648e-05
-3.82161e-05
2.31903e-05
4.08233e-05
-4.10251e-05
2.28973e-05
3.49201e-05
-3.4627e-05
2.36143e-05
3.16862e-05
-3.24032e-05
2.40843e-05
2.04639e-05
-2.09339e-05
2.50898e-05
1.35709e-05
-1.45764e-05
2.52985e-05
2.30728e-06
-2.51603e-06
2.58788e-05
-1.15854e-05
1.10051e-05
2.63391e-05
-2.01654e-05
1.97051e-05
2.57956e-05
-2.60636e-05
2.66071e-05
2.54455e-05
-3.50361e-05
3.53863e-05
2.54749e-05
-3.2396e-05
3.23666e-05
2.31288e-05
-3.21654e-05
3.45114e-05
2.19343e-05
-2.63451e-05
2.75397e-05
2.12247e-05
-2.04908e-05
2.12003e-05
2.023e-05
-1.54485e-05
1.64432e-05
1.83226e-05
-2.0995e-05
2.29024e-05
1.34394e-05
-5.14526e-06
1.00284e-05
1.23934e-05
-3.26942e-06
4.31541e-06
1.50329e-05
-2.755e-06
1.15527e-07
2.10002e-05
-2.38611e-05
1.78938e-05
2.39591e-05
-2.47389e-05
2.178e-05
2.65785e-05
-2.56955e-05
2.30761e-05
2.68181e-05
-1.9113e-05
1.88734e-05
2.59869e-05
-1.16834e-05
1.25146e-05
2.48072e-05
-2.08052e-06
3.26023e-06
2.37303e-05
6.47961e-06
-5.40274e-06
2.26184e-05
1.44956e-05
-1.33837e-05
2.13802e-05
2.47665e-05
-2.35283e-05
1.98674e-05
3.41262e-05
-3.26134e-05
1.85117e-05
3.75724e-05
-3.62167e-05
1.63966e-05
3.63773e-05
-3.42621e-05
1.57419e-05
2.92524e-05
-2.85977e-05
1.39582e-05
2.95257e-05
-2.77421e-05
1.42991e-05
2.39971e-05
-2.4338e-05
1.31133e-05
3.09294e-05
-2.97436e-05
1.38121e-05
2.33222e-05
-2.40209e-05
1.33656e-05
2.77303e-05
-2.72838e-05
1.48308e-05
1.30327e-05
-1.44979e-05
1.45343e-05
1.56891e-05
-1.53925e-05
1.68685e-05
-1.44613e-06
-8.88086e-07
1.64357e-05
5.08505e-06
-4.65226e-06
1.82577e-05
-7.5568e-06
5.73482e-06
1.70385e-05
1.94526e-06
-7.26107e-07
1.84416e-05
-8.12276e-06
6.71963e-06
1.70044e-05
2.17671e-06
-7.39462e-07
1.83491e-05
-5.08516e-06
3.74045e-06
1.67857e-05
5.30724e-06
-3.74382e-06
1.70014e-05
1.59625e-07
-3.75398e-07
1.45126e-05
9.54185e-06
-7.05299e-06
1.45649e-05
2.9783e-06
-3.03062e-06
1.20819e-05
1.41699e-05
-1.16869e-05
1.35228e-05
1.07678e-05
-1.22087e-05
3.80308e-05
-3.65158e-05
1.20078e-05
1.18877e-05
-2.18158e-07
1.2811e-05
3.88602e-07
1.34769e-05
2.2826e-06
1.43823e-05
2.04114e-06
1.53687e-05
7.24909e-07
1.61123e-05
-2.881e-06
1.71879e-05
-7.36656e-06
1.72419e-05
-9.41233e-06
1.6937e-05
-1.19758e-05
1.5375e-05
-1.16855e-05
1.29712e-05
-1.08605e-05
1.02581e-05
-7.55837e-06
7.4713e-06
-2.10184e-06
7.26815e-06
-2.65085e-07
8.93222e-06
1.14105e-05
1.31374e-05
2.48183e-05
1.73536e-05
1.9176e-05
2.01643e-05
1.42402e-05
2.2495e-05
7.54712e-06
2.40046e-05
7.58892e-07
2.47513e-05
-3.84099e-06
2.60299e-05
-1.00538e-05
2.82231e-05
-1.54139e-05
3.08598e-05
-1.96074e-05
3.30615e-05
-2.66681e-05
3.42196e-05
-3.08721e-05
3.49284e-05
-3.22714e-05
3.4835e-05
-3.27489e-05
3.35205e-05
-3.18616e-05
3.23906e-05
-2.9095e-05
3.13757e-05
-2.71123e-05
2.97126e-05
-2.40774e-05
2.78394e-05
-2.11011e-05
2.71898e-05
-2.11035e-05
2.65568e-05
-2.14452e-05
2.55815e-05
-2.04909e-05
2.53253e-05
-1.9394e-05
2.51836e-05
-1.42849e-05
2.57012e-05
-1.17841e-05
2.57445e-05
-3.133e-06
2.56991e-05
4.42033e-06
2.5369e-05
1.2577e-05
2.56268e-05
2.14602e-05
2.45545e-05
3.14006e-05
2.39174e-05
3.31294e-05
2.3091e-05
3.75217e-05
2.35272e-05
3.72118e-05
2.43221e-05
4.00284e-05
2.42392e-05
3.5003e-05
2.50612e-05
3.08642e-05
2.5645e-05
1.988e-05
2.69956e-05
1.22204e-05
2.72064e-05
2.09642e-06
2.75055e-05
-1.18845e-05
2.78595e-05
-2.05194e-05
2.71788e-05
-2.53829e-05
2.67817e-05
-3.46391e-05
2.61394e-05
-3.17537e-05
2.35788e-05
-2.96047e-05
2.23803e-05
-2.51466e-05
2.12089e-05
-1.93195e-05
1.94015e-05
-1.36411e-05
1.61718e-05
-1.77652e-05
1.17973e-05
-7.70755e-07
1.21536e-05
-3.62576e-06
1.59235e-05
-6.52492e-06
2.13519e-05
-2.92895e-05
2.29677e-05
-2.63546e-05
2.47983e-05
-2.75261e-05
2.43639e-05
-1.86786e-05
2.38033e-05
-1.11228e-05
2.27586e-05
-1.03587e-06
2.20199e-05
7.2183e-06
2.11245e-05
1.5391e-05
2.01807e-05
2.57103e-05
1.87474e-05
3.55595e-05
1.79537e-05
3.83661e-05
1.59539e-05
3.83771e-05
1.59293e-05
2.9277e-05
1.42807e-05
3.11743e-05
1.5001e-05
2.32768e-05
1.42467e-05
3.16837e-05
1.53743e-05
2.21945e-05
1.50617e-05
2.80429e-05
1.69996e-05
1.10947e-05
1.67481e-05
1.59407e-05
1.88516e-05
-3.5497e-06
1.86713e-05
5.26541e-06
2.02398e-05
-9.1253e-06
1.93417e-05
2.84336e-06
2.05409e-05
-9.32203e-06
1.90788e-05
3.63885e-06
2.10979e-05
-7.10424e-06
1.92638e-05
7.14127e-06
2.11982e-05
-1.77473e-06
1.92037e-05
1.15363e-05
1.86228e-05
3.55919e-06
1.44371e-05
1.83556e-05
1.8489e-05
6.71595e-06
3.80169e-05
1.8503e-05
1.81975e-05
-6.28095e-07
1.90361e-05
-4.50024e-07
1.94529e-05
1.86582e-06
1.99067e-05
1.58729e-06
2.08848e-05
-2.53151e-07
2.12243e-05
-3.22054e-06
2.18524e-05
-7.99464e-06
2.19627e-05
-9.52264e-06
2.13088e-05
-1.13219e-05
2.01465e-05
-1.05232e-05
1.79859e-05
-8.69986e-06
1.62236e-05
-5.79605e-06
1.37096e-05
4.12162e-07
1.16012e-05
1.84332e-06
1.26533e-05
1.03584e-05
1.66514e-05
2.08202e-05
1.99758e-05
1.58516e-05
2.27317e-05
1.14843e-05
2.48303e-05
5.44853e-06
2.62554e-05
-6.66219e-07
2.75006e-05
-5.08611e-06
2.91853e-05
-1.17386e-05
3.16039e-05
-1.78325e-05
3.42869e-05
-2.22904e-05
3.57406e-05
-2.81218e-05
3.59388e-05
-3.10703e-05
3.58569e-05
-3.21895e-05
3.52638e-05
-3.21558e-05
3.37525e-05
-3.03503e-05
3.25465e-05
-2.7889e-05
3.13153e-05
-2.58811e-05
2.93816e-05
-2.21437e-05
2.76996e-05
-1.94191e-05
2.6891e-05
-2.02949e-05
2.54723e-05
-2.00265e-05
2.42004e-05
-1.9219e-05
2.41036e-05
-1.92971e-05
2.42749e-05
-1.44562e-05
2.47988e-05
-1.2308e-05
2.49194e-05
-3.25363e-06
2.49538e-05
4.38598e-06
2.45259e-05
1.30048e-05
2.51664e-05
2.08197e-05
2.46439e-05
3.19231e-05
2.42834e-05
3.34899e-05
2.3837e-05
3.7968e-05
2.38624e-05
3.71865e-05
2.49797e-05
3.89111e-05
2.53262e-05
3.46565e-05
2.61223e-05
3.00681e-05
2.65779e-05
1.94245e-05
2.81297e-05
1.06686e-05
2.85702e-05
1.65584e-06
2.87788e-05
-1.20931e-05
2.89441e-05
-2.06847e-05
2.84388e-05
-2.48776e-05
2.78494e-05
-3.40496e-05
2.6359e-05
-3.02633e-05
2.39044e-05
-2.71501e-05
2.26161e-05
-2.38584e-05
2.07935e-05
-1.74968e-05
1.83377e-05
-1.11852e-05
1.39446e-05
-1.33722e-05
1.11901e-05
1.98379e-06
1.23869e-05
-4.82263e-06
1.66325e-05
-1.07705e-05
2.10105e-05
-3.36674e-05
2.18756e-05
-2.72198e-05
2.32204e-05
-2.88709e-05
2.18074e-05
-1.72656e-05
2.15393e-05
-1.08546e-05
2.05048e-05
-1.41893e-09
2.01904e-05
7.53269e-06
1.93732e-05
1.62082e-05
1.88604e-05
2.62231e-05
1.74743e-05
3.69456e-05
1.73239e-05
3.85164e-05
1.54407e-05
4.02603e-05
1.59554e-05
2.87623e-05
1.47282e-05
3.24015e-05
1.56998e-05
2.23053e-05
1.53656e-05
3.20178e-05
1.7022e-05
2.05381e-05
1.68797e-05
2.81853e-05
1.87203e-05
9.25413e-06
1.85965e-05
1.60644e-05
2.00556e-05
-5.00874e-06
1.97893e-05
5.53169e-06
2.1274e-05
-1.061e-05
2.00584e-05
4.05894e-06
2.14968e-05
-1.07605e-05
1.99479e-05
5.18779e-06
2.14175e-05
-8.57379e-06
2.12662e-05
7.29249e-06
2.33466e-05
-3.85505e-06
2.1028e-05
1.38549e-05
2.49474e-05
-3.60211e-07
2.03186e-05
2.29843e-05
2.22395e-05
4.79508e-06
3.71661e-05
2.30903e-05
2.35359e-05
-8.17832e-07
2.39675e-05
-8.8162e-07
2.47379e-05
1.09542e-06
2.50205e-05
1.30471e-06
2.5578e-05
-8.10638e-07
2.60571e-05
-3.69962e-06
2.60139e-05
-7.95146e-06
2.61324e-05
-9.64113e-06
2.54251e-05
-1.06146e-05
2.45159e-05
-9.61404e-06
2.2559e-05
-6.74294e-06
2.08603e-05
-4.09736e-06
1.93609e-05
1.91155e-06
1.70381e-05
4.16608e-06
1.75073e-05
9.88927e-06
2.07764e-05
1.7551e-05
2.33279e-05
1.33002e-05
2.55165e-05
9.29565e-06
2.75082e-05
3.4569e-06
2.92774e-05
-2.43543e-06
3.10161e-05
-6.82478e-06
3.29182e-05
-1.36407e-05
3.50164e-05
-1.99307e-05
3.69539e-05
-2.4228e-05
3.73076e-05
-2.84755e-05
3.66753e-05
-3.0438e-05
3.60749e-05
-3.1589e-05
3.52015e-05
-3.12824e-05
3.37955e-05
-2.89442e-05
3.25729e-05
-2.66665e-05
3.10873e-05
-2.43954e-05
2.89667e-05
-2.00231e-05
2.74423e-05
-1.78948e-05
2.60246e-05
-1.88772e-05
2.37126e-05
-1.77145e-05
2.25296e-05
-1.8036e-05
2.26502e-05
-1.94177e-05
2.32129e-05
-1.50189e-05
2.36933e-05
-1.27884e-05
2.39363e-05
-3.49665e-06
2.40486e-05
4.27366e-06
2.36522e-05
1.34012e-05
2.42361e-05
2.02357e-05
2.43215e-05
3.18378e-05
2.40476e-05
3.37638e-05
2.42673e-05
3.77483e-05
2.41087e-05
3.7345e-05
2.52145e-05
3.78053e-05
2.60782e-05
3.37929e-05
2.69732e-05
2.9173e-05
2.72976e-05
1.91001e-05
2.88565e-05
9.1096e-06
2.96292e-05
8.83153e-07
2.98145e-05
-1.22784e-05
2.97469e-05
-2.06171e-05
2.94532e-05
-2.4584e-05
2.83428e-05
-3.29392e-05
2.62542e-05
-2.81747e-05
2.40319e-05
-2.49278e-05
2.23451e-05
-2.21716e-05
1.99636e-05
-1.51153e-05
1.715e-05
-8.37164e-06
1.25525e-05
-8.77462e-06
1.20392e-05
2.49706e-06
1.29555e-05
-5.73893e-06
1.68511e-05
-1.46661e-05
1.93711e-05
-3.61875e-05
2.00045e-05
-2.78532e-05
2.12585e-05
-3.01248e-05
1.92367e-05
-1.52438e-05
1.95033e-05
-1.11212e-05
1.82488e-05
1.25308e-06
1.86191e-05
7.16238e-06
1.75233e-05
1.7304e-05
1.75206e-05
2.62258e-05
1.60602e-05
3.8406e-05
1.66573e-05
3.79193e-05
1.5001e-05
4.19167e-05
1.59097e-05
2.78536e-05
1.52525e-05
3.30587e-05
1.64992e-05
2.10586e-05
1.64643e-05
3.20527e-05
1.86316e-05
1.83708e-05
1.85315e-05
2.82854e-05
2.01369e-05
7.64865e-06
1.96576e-05
1.65438e-05
2.09203e-05
-6.27149e-06
2.0369e-05
6.08297e-06
2.16332e-05
-1.18742e-05
2.06804e-05
5.0118e-06
2.08589e-05
-1.09391e-05
1.96203e-05
6.42645e-06
2.09855e-05
-9.93903e-06
1.90549e-05
9.22311e-06
2.26163e-05
-7.41642e-06
2.03027e-05
1.61685e-05
2.39511e-05
-4.00869e-06
2.35071e-05
2.34284e-05
2.51915e-05
3.11067e-06
3.54169e-05
2.69407e-05
2.85391e-05
-9.90004e-07
2.82722e-05
-6.14718e-07
2.86674e-05
7.00266e-07
2.89719e-05
1.00017e-06
2.89241e-05
-7.62838e-07
2.93336e-05
-4.10908e-06
2.89815e-05
-7.59937e-06
2.89729e-05
-9.63259e-06
2.84705e-05
-1.01122e-05
2.77371e-05
-8.88063e-06
2.64773e-05
-5.48316e-06
2.4671e-05
-2.29107e-06
2.37912e-05
2.79135e-06
2.23478e-05
5.60955e-06
2.26518e-05
9.58527e-06
2.53889e-05
1.48139e-05
2.74561e-05
1.1233e-05
2.91727e-05
7.57907e-06
3.08661e-05
1.76348e-06
3.2741e-05
-4.31036e-06
3.4709e-05
-8.79272e-06
3.61983e-05
-1.513e-05
3.73797e-05
-2.11121e-05
3.82523e-05
-2.51006e-05
3.77655e-05
-2.79887e-05
3.67578e-05
-2.94303e-05
3.59958e-05
-3.0827e-05
3.50352e-05
-3.03219e-05
3.378e-05
-2.7689e-05
3.24539e-05
-2.53404e-05
3.05418e-05
-2.24833e-05
2.81983e-05
-1.76796e-05
2.6449e-05
-1.61455e-05
2.38325e-05
-1.62606e-05
2.08605e-05
-1.47426e-05
2.02198e-05
-1.73953e-05
2.05676e-05
-1.97656e-05
2.15626e-05
-1.60139e-05
2.20224e-05
-1.32482e-05
2.25589e-05
-4.03311e-06
2.28311e-05
4.00147e-06
2.261e-05
1.36223e-05
2.29443e-05
1.99015e-05
2.38284e-05
3.09536e-05
2.36963e-05
3.38959e-05
2.43494e-05
3.70952e-05
2.43645e-05
3.733e-05
2.53118e-05
3.68579e-05
2.65245e-05
3.25802e-05
2.77181e-05
2.79795e-05
2.8222e-05
1.85962e-05
2.9548e-05
7.78357e-06
3.05164e-05
-8.52525e-08
3.05542e-05
-1.23162e-05
3.03215e-05
-2.03843e-05
3.00446e-05
-2.43071e-05
2.82881e-05
-3.11827e-05
2.60703e-05
-2.59569e-05
2.38572e-05
-2.27147e-05
2.16568e-05
-1.99713e-05
1.90566e-05
-1.25151e-05
1.59109e-05
-5.2259e-06
1.24382e-05
-5.30198e-06
1.32506e-05
1.6847e-06
1.33622e-05
-5.8505e-06
1.61989e-05
-1.75027e-05
1.657e-05
-3.65586e-05
1.74125e-05
-2.86957e-05
1.87358e-05
-3.14481e-05
1.67011e-05
-1.32091e-05
1.74991e-05
-1.19193e-05
1.58801e-05
2.87214e-06
1.70115e-05
6.03089e-06
1.55167e-05
1.87988e-05
1.61753e-05
2.55672e-05
1.45922e-05
3.99892e-05
1.59013e-05
3.66102e-05
1.47099e-05
4.3108e-05
1.5829e-05
2.67345e-05
1.56661e-05
3.32215e-05
1.74416e-05
1.92831e-05
1.73711e-05
3.21232e-05
1.9959e-05
1.57829e-05
1.99071e-05
2.83373e-05
2.1538e-05
6.0177e-06
2.10938e-05
1.6988e-05
2.20967e-05
-7.27439e-06
2.16216e-05
6.55807e-06
2.25749e-05
-1.28275e-05
2.14653e-05
6.12146e-06
2.19498e-05
-1.14236e-05
1.97317e-05
8.64453e-06
2.11377e-05
-1.1345e-05
1.86334e-05
1.17273e-05
2.07484e-05
-9.53139e-06
1.98141e-05
1.71028e-05
2.11862e-05
-5.38082e-06
2.13154e-05
2.32992e-05
2.41092e-05
3.16808e-07
3.08961e-05
2.86299e-05
3.19374e-05
-1.62103e-06
3.18726e-05
-5.49856e-07
3.18541e-05
7.18702e-07
3.20378e-05
8.16487e-07
3.16313e-05
-3.56348e-07
3.17852e-05
-4.26302e-06
3.11931e-05
-7.00722e-06
3.07318e-05
-9.1713e-06
3.0334e-05
-9.71441e-06
2.95906e-05
-8.13718e-06
2.90514e-05
-4.94396e-06
2.77428e-05
-9.8251e-07
2.71329e-05
3.40132e-06
2.66159e-05
6.12656e-06
2.69294e-05
9.27171e-06
2.93753e-05
1.2368e-05
3.12928e-05
9.31556e-06
3.29058e-05
5.96606e-06
3.42189e-05
4.50309e-07
3.573e-05
-5.82146e-06
3.74687e-05
-1.05313e-05
3.83845e-05
-1.60458e-05
3.85299e-05
-2.12575e-05
3.82329e-05
-2.48036e-05
3.73545e-05
-2.71102e-05
3.65486e-05
-2.86244e-05
3.58426e-05
-3.0121e-05
3.48199e-05
-2.92992e-05
3.36375e-05
-2.65065e-05
3.21332e-05
-2.38361e-05
2.96871e-05
-2.00372e-05
2.70055e-05
-1.49981e-05
2.45227e-05
-1.36627e-05
2.06113e-05
-1.23492e-05
1.76748e-05
-1.18061e-05
1.77037e-05
-1.74241e-05
1.82822e-05
-2.03441e-05
1.9576e-05
-1.73077e-05
1.99157e-05
-1.35879e-05
2.06387e-05
-4.75604e-06
2.12173e-05
3.42287e-06
2.14239e-05
1.34157e-05
2.14348e-05
1.98906e-05
2.27796e-05
2.96089e-05
2.30403e-05
3.36352e-05
2.39787e-05
3.61567e-05
2.44657e-05
3.6843e-05
2.54447e-05
3.5879e-05
2.68259e-05
3.1199e-05
2.8257e-05
2.65484e-05
2.9091e-05
1.77622e-05
3.00694e-05
6.80512e-06
3.10569e-05
-1.07269e-06
3.09558e-05
-1.22151e-05
3.06647e-05
-2.00932e-05
3.01912e-05
-2.38336e-05
2.78261e-05
-2.88176e-05
2.56887e-05
-2.38195e-05
2.32144e-05
-2.02404e-05
2.09465e-05
-1.77034e-05
1.82345e-05
-9.80307e-06
1.47651e-05
-1.75655e-06
1.2354e-05
-2.8909e-06
1.32871e-05
7.51661e-07
1.30801e-05
-5.64348e-06
1.41539e-05
-1.85765e-05
1.32102e-05
-3.56149e-05
1.47885e-05
-3.02741e-05
1.59417e-05
-3.26013e-05
1.41982e-05
-1.14656e-05
1.55723e-05
-1.32933e-05
1.38081e-05
4.63633e-06
1.54378e-05
4.40121e-06
1.34309e-05
2.08056e-05
1.4775e-05
2.42232e-05
1.30856e-05
4.16785e-05
1.4963e-05
3.47328e-05
1.45062e-05
4.35649e-05
1.59345e-05
2.53062e-05
1.59681e-05
3.31879e-05
1.84704e-05
1.67808e-05
1.83446e-05
3.2249e-05
2.08401e-05
1.32875e-05
2.1027e-05
2.81504e-05
2.25614e-05
4.48331e-06
2.23567e-05
1.71928e-05
2.2874e-05
-7.79177e-06
2.20883e-05
7.34381e-06
2.28915e-05
-1.36307e-05
2.16091e-05
7.40391e-06
2.22889e-05
-1.21034e-05
2.07737e-05
1.01597e-05
2.15939e-05
-1.21652e-05
2.07693e-05
1.25519e-05
2.13864e-05
-1.01484e-05
2.11296e-05
1.73596e-05
2.2716e-05
-6.96713e-06
2.21183e-05
2.38969e-05
2.18208e-05
6.14335e-07
2.52863e-05
2.74306e-05
3.34314e-05
-2.47595e-06
3.37976e-05
-9.16002e-07
3.3782e-05
7.34324e-07
3.39953e-05
6.0313e-07
3.36334e-05
5.61799e-09
3.36085e-05
-4.2382e-06
3.29523e-05
-6.35094e-06
3.20028e-05
-8.22183e-06
3.14157e-05
-9.12734e-06
3.04336e-05
-7.15507e-06
3.0111e-05
-4.62141e-06
2.94216e-05
-2.93047e-07
2.91309e-05
3.69199e-06
2.93225e-05
5.93495e-06
2.99076e-05
8.68664e-06
3.20255e-05
1.025e-05
3.39341e-05
7.40695e-06
3.55639e-05
4.33629e-06
3.65222e-05
-5.07977e-07
3.75546e-05
-6.85386e-06
3.88129e-05
-1.17897e-05
3.89946e-05
-1.62275e-05
3.82307e-05
-2.04936e-05
3.73838e-05
-2.39567e-05
3.6768e-05
-2.64944e-05
3.63649e-05
-2.82213e-05
3.55891e-05
-2.93452e-05
3.43105e-05
-2.80207e-05
3.28695e-05
-2.50654e-05
3.07794e-05
-2.1746e-05
2.77142e-05
-1.69719e-05
2.48947e-05
-1.21786e-05
2.17648e-05
-1.05329e-05
1.72338e-05
-7.81811e-06
1.48678e-05
-9.4401e-06
1.52208e-05
-1.77772e-05
1.61403e-05
-2.12636e-05
1.75666e-05
-1.87339e-05
1.75916e-05
-1.36129e-05
1.83499e-05
-5.51435e-06
1.91132e-05
2.65951e-06
1.95989e-05
1.293e-05
1.97378e-05
1.97517e-05
2.13545e-05
2.79921e-05
2.21921e-05
3.27975e-05
2.32025e-05
3.51463e-05
2.40976e-05
3.59479e-05
2.53469e-05
3.46296e-05
2.68096e-05
2.97363e-05
2.84474e-05
2.49107e-05
2.96447e-05
1.65648e-05
3.03186e-05
6.13124e-06
3.12669e-05
-2.02098e-06
3.10856e-05
-1.20339e-05
3.06132e-05
-1.96207e-05
2.9776e-05
-2.29965e-05
2.7074e-05
-2.61156e-05
2.49895e-05
-2.1735e-05
2.23016e-05
-1.75524e-05
1.99328e-05
-1.53347e-05
1.6912e-05
-6.78219e-06
1.3432e-05
1.72337e-06
1.13789e-05
-8.3776e-07
1.22775e-05
-1.46879e-07
1.23855e-05
-5.7515e-06
1.14162e-05
-1.76072e-05
1.06234e-05
-3.48221e-05
1.30926e-05
-3.27434e-05
1.33749e-05
-3.28835e-05
1.19571e-05
-1.00478e-05
1.34356e-05
-1.47718e-05
1.15652e-05
6.50677e-06
1.36403e-05
2.32611e-06
1.1285e-05
2.3161e-05
1.32878e-05
2.22203e-05
1.16889e-05
4.32775e-05
1.38493e-05
3.25724e-05
1.42428e-05
4.31714e-05
1.63157e-05
2.32333e-05
1.62285e-05
3.3275e-05
1.91395e-05
1.38699e-05
1.91859e-05
3.22026e-05
2.13905e-05
1.1083e-05
2.17254e-05
2.78154e-05
2.29408e-05
3.26796e-06
2.27073e-05
1.74262e-05
2.29069e-05
-7.99134e-06
2.2172e-05
8.07875e-06
2.25909e-05
-1.40496e-05
2.17948e-05
8.19999e-06
2.19994e-05
-1.2308e-05
2.12212e-05
1.09379e-05
2.11955e-05
-1.21394e-05
2.06497e-05
1.30977e-05
2.09483e-05
-1.04471e-05
2.09239e-05
1.7384e-05
2.05303e-05
-6.57352e-06
2.30662e-05
2.1361e-05
2.16683e-05
2.01225e-06
2.0694e-05
2.62606e-05
3.43144e-05
-2.42909e-06
3.40274e-05
-6.28962e-07
3.39377e-05
8.23999e-07
3.42931e-05
2.4779e-07
3.43585e-05
-5.98548e-08
3.42934e-05
-4.17303e-06
3.37414e-05
-5.79895e-06
3.2692e-05
-7.17248e-06
3.18041e-05
-8.23939e-06
3.05719e-05
-5.92287e-06
2.99826e-05
-4.03214e-06
2.96439e-05
4.56673e-08
2.95904e-05
3.74544e-06
3.02043e-05
5.32104e-06
3.13013e-05
7.5897e-06
3.31877e-05
8.36359e-06
3.50294e-05
5.56528e-06
3.66505e-05
2.71517e-06
3.74867e-05
-1.34421e-06
3.8119e-05
-7.48616e-06
3.85809e-05
-1.22516e-05
3.81406e-05
-1.57872e-05
3.72444e-05
-1.95975e-05
3.66452e-05
-2.33575e-05
3.63999e-05
-2.62491e-05
3.60062e-05
-2.78276e-05
3.47968e-05
-2.81357e-05
3.30504e-05
-2.62743e-05
3.11671e-05
-2.31821e-05
2.85133e-05
-1.90923e-05
2.52063e-05
-1.36649e-05
2.2366e-05
-9.33819e-06
1.85304e-05
-6.69737e-06
1.3841e-05
-3.12871e-06
1.19998e-05
-7.59885e-06
1.25286e-05
-1.8306e-05
1.39102e-05
-2.26452e-05
1.50998e-05
-1.99235e-05
1.49727e-05
-1.34858e-05
1.58087e-05
-6.35034e-06
1.67008e-05
1.76738e-06
1.75235e-05
1.21073e-05
1.81481e-05
1.91271e-05
1.94648e-05
2.66755e-05
2.09401e-05
3.13223e-05
2.21054e-05
3.3981e-05
2.33547e-05
3.46986e-05
2.4857e-05
3.31273e-05
2.64264e-05
2.81669e-05
2.82868e-05
2.30503e-05
2.97458e-05
1.51058e-05
3.02391e-05
5.63793e-06
3.11018e-05
-2.8837e-06
3.08547e-05
-1.17868e-05
3.01218e-05
-1.88878e-05
2.87879e-05
-2.16625e-05
2.59996e-05
-2.33273e-05
2.39448e-05
-1.96802e-05
2.12722e-05
-1.48798e-05
1.86904e-05
-1.27529e-05
1.57179e-05
-3.80971e-06
1.29915e-05
4.44972e-06
1.06396e-05
1.51416e-06
1.11243e-05
-6.31593e-07
1.12976e-05
-5.92476e-06
9.87046e-06
-1.61801e-05
9.50614e-06
-3.44578e-05
1.22199e-05
-3.54571e-05
1.0884e-05
-3.15476e-05
9.76916e-06
-8.933e-06
1.11093e-05
-1.6112e-05
9.44872e-06
8.16736e-06
1.17483e-05
2.65776e-08
9.17577e-06
2.57335e-05
1.16826e-05
1.97135e-05
1.04981e-05
4.44619e-05
1.26739e-05
3.03966e-05
1.36406e-05
4.22047e-05
1.67797e-05
2.00942e-05
1.65061e-05
3.35487e-05
1.93455e-05
1.10305e-05
1.96043e-05
3.19438e-05
2.16572e-05
9.03004e-06
2.2231e-05
2.72417e-05
2.30128e-05
2.48617e-06
2.28889e-05
1.75501e-05
2.30065e-05
-8.10892e-06
2.26101e-05
8.47518e-06
2.26973e-05
-1.41369e-05
2.23803e-05
8.51702e-06
2.21185e-05
-1.20462e-05
2.17532e-05
1.13033e-05
2.13077e-05
-1.16939e-05
2.1241e-05
1.31644e-05
2.05969e-05
-9.80302e-06
2.1733e-05
1.62478e-05
2.01369e-05
-4.97742e-06
2.29117e-05
1.85862e-05
2.14724e-05
3.4516e-06
1.71769e-05
2.49894e-05
3.3714e-05
-2.04178e-06
3.34653e-05
-3.80282e-07
3.345e-05
8.3929e-07
3.38977e-05
-1.99927e-07
3.43721e-05
-5.3425e-07
3.4217e-05
-4.01791e-06
3.38635e-05
-5.44549e-06
3.28789e-05
-6.1878e-06
3.16856e-05
-7.04618e-06
3.04218e-05
-4.65903e-06
2.94087e-05
-3.01907e-06
2.91799e-05
2.74471e-07
2.93926e-05
3.53277e-06
3.03133e-05
4.4003e-06
3.19004e-05
6.00269e-06
3.37073e-05
6.55667e-06
3.52173e-05
4.05525e-06
3.6623e-05
1.3095e-06
3.75596e-05
-2.2808e-06
3.77464e-05
-7.67296e-06
3.73498e-05
-1.1855e-05
3.68509e-05
-1.52883e-05
3.65573e-05
-1.93038e-05
3.63267e-05
-2.31269e-05
3.59241e-05
-2.58465e-05
3.49602e-05
-2.68638e-05
3.30997e-05
-2.62752e-05
3.08535e-05
-2.40281e-05
2.84213e-05
-2.07499e-05
2.5346e-05
-1.6017e-05
2.21171e-05
-1.0436e-05
1.91494e-05
-6.37044e-06
1.48433e-05
-2.39129e-06
1.04198e-05
1.29474e-06
9.00134e-06
-6.18036e-06
9.78379e-06
-1.90884e-05
1.12702e-05
-2.41317e-05
1.17184e-05
-2.03717e-05
1.18019e-05
-1.35693e-05
1.30067e-05
-7.55507e-06
1.3981e-05
7.93043e-07
1.48305e-05
1.12578e-05
1.60411e-05
1.79164e-05
1.73999e-05
2.53167e-05
1.94285e-05
2.92937e-05
2.07576e-05
3.26519e-05
2.2384e-05
3.30722e-05
2.40726e-05
3.14388e-05
2.57923e-05
2.64472e-05
2.77197e-05
2.11228e-05
2.92269e-05
1.35986e-05
2.98001e-05
5.06473e-06
3.0563e-05
-3.64663e-06
3.01466e-05
-1.13704e-05
2.90849e-05
-1.78261e-05
2.73778e-05
-1.99554e-05
2.4737e-05
-2.06865e-05
2.24611e-05
-1.74042e-05
1.97966e-05
-1.22153e-05
1.69729e-05
-9.92916e-06
1.43854e-05
-1.2222e-06
1.26781e-05
6.15701e-06
1.02863e-05
3.90597e-06
9.9808e-06
-3.26111e-07
9.91525e-06
-5.85922e-06
9.69712e-06
-1.5962e-05
8.83311e-06
-3.35938e-05
9.88506e-06
-3.65091e-05
7.63663e-06
-2.92992e-05
7.60584e-06
-8.90221e-06
8.55441e-06
-1.70606e-05
7.16854e-06
9.55323e-06
9.39167e-06
-2.19655e-06
7.16794e-06
2.79572e-05
9.98969e-06
1.68918e-05
9.52528e-06
4.49263e-05
1.19234e-05
2.79985e-05
1.28018e-05
4.13263e-05
1.677e-05
1.6126e-05
1.65944e-05
3.37242e-05
1.91201e-05
8.50478e-06
1.9678e-05
3.13859e-05
2.15865e-05
7.12159e-06
2.25037e-05
2.63244e-05
2.30483e-05
1.94162e-06
2.30744e-05
1.7524e-05
2.29311e-05
-7.96569e-06
2.30977e-05
8.30863e-06
2.27381e-05
-1.37773e-05
2.27565e-05
8.49862e-06
2.21235e-05
-1.14132e-05
2.22565e-05
1.11703e-05
2.13699e-05
-1.08073e-05
2.25521e-05
1.19822e-05
2.13856e-05
-8.63644e-06
2.31363e-05
1.44971e-05
2.13596e-05
-3.20079e-06
2.41034e-05
1.58424e-05
2.31086e-05
4.44639e-06
1.49147e-05
2.53708e-05
3.33089e-05
-1.66987e-06
3.33317e-05
-4.03073e-07
3.33226e-05
8.48387e-07
3.38403e-05
-7.177e-07
3.44389e-05
-1.13278e-06
3.40428e-05
-3.62183e-06
3.37596e-05
-5.1623e-06
3.27596e-05
-5.18783e-06
3.15004e-05
-5.78699e-06
3.04817e-05
-3.64033e-06
2.93102e-05
-1.84758e-06
2.92677e-05
3.17027e-07
2.99985e-05
2.80191e-06
3.09972e-05
3.40164e-06
3.24641e-05
4.53575e-06
3.3994e-05
5.02679e-06
3.50665e-05
2.98274e-06
3.61541e-05
2.21876e-07
3.68816e-05
-3.00828e-06
3.65114e-05
-7.30272e-06
3.59758e-05
-1.13194e-05
3.60724e-05
-1.53848e-05
3.6204e-05
-1.94355e-05
3.57009e-05
-2.26238e-05
3.45387e-05
-2.46842e-05
3.27433e-05
-2.50684e-05
3.02901e-05
-2.38221e-05
2.76215e-05
-2.13595e-05
2.47497e-05
-1.78781e-05
2.16509e-05
-1.29181e-05
1.88427e-05
-7.62785e-06
1.56718e-05
-3.19955e-06
1.09836e-05
2.29689e-06
7.11746e-06
5.16091e-06
6.21693e-06
-5.27983e-06
6.97717e-06
-1.98486e-05
8.06225e-06
-2.52168e-05
8.01056e-06
-2.032e-05
8.65864e-06
-1.42174e-05
1.0019e-05
-8.91547e-06
1.07687e-05
4.33559e-08
1.1845e-05
1.01816e-05
1.38152e-05
1.59462e-05
1.51296e-05
2.40023e-05
1.7365e-05
2.70582e-05
1.92918e-05
3.07251e-05
2.13002e-05
3.10638e-05
2.30249e-05
2.97141e-05
2.48897e-05
2.45824e-05
2.67636e-05
1.9249e-05
2.825e-05
1.21122e-05
2.9013e-05
4.30172e-06