/*--------------------------------*- C++ -*----------------------------------*\
| =========                 |                                                 |
| \\      /  F ield         | OpenFOAM: The Open Source CFD Toolbox           |
|  \\    /   O peration     | Version:  2.4.0                                 |
|   \\  /    A nd           | Web:      www.OpenFOAM.org                      |
|    \\/     M anipulation  |                                                 |
\*---------------------------------------------------------------------------*/
FoamFile
{
    version     2.0;
    format      ascii;
    class       surfaceScalarField;
    location    "0.11";
    object      phi_0;
}
// * * * * * * * * * * * * * * * * * * * * * * * * * * * * * * * * * * * * * //

dimensions      [0 3 -1 0 0 0 0];

internalField   nonuniform List<scalar> 
8640
(
1.14663e-05
1.35337e-05
7.17584e-06
4.29049e-06
5.92226e-06
1.25358e-06
5.3579e-06
5.64361e-07
5.10248e-06
2.55422e-07
4.91823e-06
1.84244e-07
4.82526e-06
9.29683e-08
4.71203e-06
1.13238e-07
4.65606e-06
5.59676e-08
1.99679e-07
4.45638e-06
2.10463e-05
1.74873e-05
1.74609e-05
7.87595e-06
1.55242e-05
3.19023e-06
1.42356e-05
1.85302e-06
1.35027e-05
9.8823e-07
1.29844e-05
7.02583e-07
1.27097e-05
3.67701e-07
1.2375e-05
4.47925e-07
1.22347e-05
1.96233e-07
8.97257e-07
1.15371e-05
2.56886e-05
1.67988e-05
2.41179e-05
9.44657e-06
2.26315e-05
4.67662e-06
2.12121e-05
3.27244e-06
2.02501e-05
1.9503e-06
1.95193e-05
1.43336e-06
1.90847e-05
8.02281e-07
1.86774e-05
8.55234e-07
1.83517e-05
5.2197e-07
1.44324e-06
1.78057e-05
2.74366e-05
1.43622e-05
2.77459e-05
9.13721e-06
2.74072e-05
5.0154e-06
2.64995e-05
4.18013e-06
2.56928e-05
2.75694e-06
2.49651e-05
2.16114e-06
2.44399e-05
1.3274e-06
2.40597e-05
1.23552e-06
2.36892e-05
8.92473e-07
1.80426e-06
2.33281e-05
2.7608e-05
1.17542e-05
2.88835e-05
7.86171e-06
2.96638e-05
4.23512e-06
2.96601e-05
4.18386e-06
2.9438e-05
2.97899e-06
2.90251e-05
2.57403e-06
2.86073e-05
1.74518e-06
2.82998e-05
1.54306e-06
2.80595e-05
1.13281e-06
1.48579e-06
2.83779e-05
2.74313e-05
9.32293e-06
2.88284e-05
6.46456e-06
3.00447e-05
3.01887e-06
3.06821e-05
3.54643e-06
3.11529e-05
2.50822e-06
3.12703e-05
2.45657e-06
3.12479e-05
1.76758e-06
3.11255e-05
1.66548e-06
3.11165e-05
1.14186e-06
1.24637e-06
3.13559e-05
2.73698e-05
6.95309e-06
2.87118e-05
5.12259e-06
2.98394e-05
1.89132e-06
3.06412e-05
2.74458e-06
3.14147e-05
1.73472e-06
3.18422e-05
2.02905e-06
3.22178e-05
1.392e-06
3.23973e-05
1.48596e-06
3.26601e-05
8.79119e-07
1.27849e-06
3.26279e-05
2.7351e-05
4.60211e-06
2.88433e-05
3.6303e-06
2.96538e-05
1.08081e-06
3.05603e-05
1.83805e-06
3.13759e-05
9.19154e-07
3.17867e-05
1.61819e-06
3.22241e-05
9.5462e-07
3.26888e-05
1.02133e-06
3.32323e-05
3.35552e-07
1.49549e-07
3.43613e-05
2.72529e-05
2.34923e-06
2.88921e-05
1.99105e-06
2.96713e-05
3.01621e-07
3.05402e-05
9.69194e-07
3.12376e-05
2.21734e-07
3.17348e-05
1.12094e-06
3.2219e-05
4.7043e-07
3.27651e-05
4.75213e-07
3.33648e-05
-2.64075e-07
-5.14779e-07
3.40291e-05
2.71971e-05
1.52142e-07
2.89641e-05
2.24025e-07
2.9701e-05
-4.35253e-07
3.04081e-05
2.62038e-07
3.11178e-05
-4.87922e-07
3.18241e-05
4.14616e-07
3.22997e-05
-5.15528e-09
3.27743e-05
6.38006e-10
3.33069e-05
-7.9669e-07
-8.20097e-07
3.36122e-05
2.71913e-05
-2.03915e-06
2.89981e-05
-1.5828e-06
2.96971e-05
-1.1342e-06
3.03924e-05
-4.33331e-07
3.11138e-05
-1.20925e-06
3.18252e-05
-2.96824e-07
3.23067e-05
-4.86636e-07
3.28245e-05
-5.1716e-07
3.32584e-05
-1.2306e-06
-1.06371e-06
3.3502e-05
2.7242e-05
-4.28116e-06
2.90228e-05
-3.36362e-06
2.97144e-05
-1.82575e-06
3.04398e-05
-1.1588e-06
3.11571e-05
-1.9265e-06
3.18617e-05
-1.0014e-06
3.23562e-05
-9.81166e-07
3.28571e-05
-1.01808e-06
3.32046e-05
-1.57812e-06
-1.40425e-06
3.35452e-05
2.73241e-05
-6.60528e-06
2.90268e-05
-5.06626e-06
2.97529e-05
-2.55192e-06
3.05723e-05
-1.97814e-06
3.13079e-05
-2.66214e-06
3.19321e-05
-1.62561e-06
3.23502e-05
-1.39926e-06
3.27973e-05
-1.46519e-06
3.31618e-05
-1.94257e-06
-1.96442e-06
3.37219e-05
2.74175e-05
-9.02275e-06
2.89231e-05
-6.57187e-06
2.9866e-05
-3.49489e-06
3.07568e-05
-2.86888e-06
3.13946e-05
-3.29998e-06
3.18804e-05
-2.11142e-06
3.22317e-05
-1.7505e-06
3.25248e-05
-1.75833e-06
3.27698e-05
-2.18759e-06
-2.37749e-06
3.31829e-05
2.7539e-05
-1.15618e-05
2.89767e-05
-8.0095e-06
2.99792e-05
-4.49744e-06
3.07822e-05
-3.67182e-06
3.10745e-05
-3.59228e-06
3.12342e-05
-2.27121e-06
3.12772e-05
-1.79349e-06
3.11821e-05
-1.66325e-06
3.11139e-05
-2.11937e-06
-2.3891e-06
3.11255e-05
2.76937e-05
-1.42554e-05
2.89292e-05
-9.24504e-06
2.95867e-05
-5.15496e-06
2.97533e-05
-3.83838e-06
2.93456e-05
-3.18461e-06
2.89921e-05
-1.91769e-06
2.86507e-05
-1.45208e-06
2.82617e-05
-1.27424e-06
2.79174e-05
-1.77513e-06
-1.42672e-06
2.69551e-05
2.74891e-05
-1.67445e-05
2.77504e-05
-9.50633e-06
2.73512e-05
-4.75578e-06
2.65758e-05
-3.06299e-06
2.56053e-05
-2.21405e-06
2.49616e-05
-1.27407e-06
2.44476e-05
-9.38077e-07
2.3985e-05
-8.11619e-07
2.35148e-05
-1.30492e-06
-7.44715e-07
2.28328e-05
2.57213e-05
-1.74658e-05
2.41121e-05
-7.89714e-06
2.25925e-05
-3.23622e-06
2.12701e-05
-1.74057e-06
2.01795e-05
-1.12342e-06
1.95336e-05
-6.28222e-07
1.90452e-05
-4.49671e-07
1.86416e-05
-4.08031e-07
1.81079e-05
-7.71172e-07
-2.49779e-07
1.7613e-05
2.10636e-05
-1.35294e-05
1.74579e-05
-4.29141e-06
1.54958e-05
-1.27414e-06
1.42789e-05
-5.23716e-07
1.34542e-05
-2.98664e-07
1.29948e-05
-1.68847e-07
1.26591e-05
-1.13964e-07
1.23694e-05
-1.18359e-07
1.18847e-05
-2.86444e-07
-9.26693e-09
1.16442e-05
1.14706e-05
7.17917e-06
5.90503e-06
5.38132e-06
5.08265e-06
4.91381e-06
4.79984e-06
4.68148e-06
4.39504e-06
4.38577e-06
5.66367e-06
1.40671e-07
-1.34796e-06
7.41899e-06
1.43567e-06
-3.19099e-06
8.48212e-06
3.03161e-06
-4.09474e-06
9.60257e-06
2.86876e-06
-3.9892e-06
1.06153e-05
1.49934e-06
-2.51207e-06
1.15348e-05
-2.39153e-06
1.47199e-06
1.24754e-05
-6.35816e-06
5.4176e-06
1.23496e-05
-9.27911e-06
9.40493e-06
1.13836e-05
-1.21205e-05
1.30865e-05
9.68244e-06
-1.30325e-05
1.47337e-05
7.49249e-06
-1.30413e-05
1.52313e-05
3.9412e-06
-9.9572e-06
1.35085e-05
2.08771e-06
-4.49229e-06
6.34578e-06
4.02108e-06
1.3014e-07
-2.06351e-06
6.13985e-06
1.38839e-05
-1.60027e-05
1.02054e-05
2.88669e-05
-3.29325e-05
1.46623e-05
2.26111e-05
-2.7068e-05
1.69581e-05
1.65799e-05
-1.88756e-05
1.93153e-05
9.30218e-06
-1.16594e-05
2.11344e-05
1.91499e-06
-3.73412e-06
2.23366e-05
-3.29218e-06
2.09004e-06
2.3734e-05
-8.99745e-06
7.60005e-06
2.52125e-05
-1.33178e-05
1.18393e-05
2.73315e-05
-1.72358e-05
1.51168e-05
3.00606e-05
-2.47591e-05
2.20301e-05
3.18588e-05
-2.97166e-05
2.79184e-05
3.32652e-05
-3.14283e-05
3.00219e-05
3.381e-05
-3.2741e-05
3.21962e-05
3.30225e-05
-3.29319e-05
3.37194e-05
3.21139e-05
-2.99183e-05
3.08268e-05
3.12672e-05
-2.79545e-05
2.88012e-05
2.98718e-05
-2.55408e-05
2.69362e-05
2.80148e-05
-2.28905e-05
2.47474e-05
2.73396e-05
-2.17792e-05
2.24545e-05
2.7141e-05
-2.21769e-05
2.23755e-05
2.66304e-05
-2.15184e-05
2.2029e-05
2.63926e-05
-1.95179e-05
1.97557e-05
2.60506e-05
-1.43884e-05
1.47304e-05
2.65513e-05
-1.1083e-05
1.05824e-05
2.64569e-05
-2.75699e-06
2.85132e-06
2.61754e-05
4.64645e-06
-4.36489e-06
2.58545e-05
1.26951e-05
-1.23743e-05
2.55394e-05
2.22705e-05
-2.19554e-05
2.41747e-05
3.06352e-05
-2.92706e-05
2.33532e-05
3.25688e-05
-3.17473e-05
2.2491e-05
3.69732e-05
-3.6111e-05
2.30605e-05
3.77421e-05
-3.83117e-05
2.32746e-05
4.06892e-05
-4.09033e-05
2.29824e-05
3.47242e-05
-3.4432e-05
2.37431e-05
3.10256e-05
-3.17863e-05
2.42345e-05
1.97917e-05
-2.02832e-05
2.51725e-05
1.29398e-05
-1.38778e-05
2.53749e-05
1.20811e-06
-1.41044e-06
2.59635e-05
-1.24402e-05
1.18516e-05
2.63489e-05
-2.05198e-05
2.01344e-05
2.57857e-05
-2.67002e-05
2.72634e-05
2.54303e-05
-3.5135e-05
3.54904e-05
2.53631e-05
-3.19592e-05
3.20264e-05
2.29673e-05
-3.20511e-05
3.44469e-05
2.18449e-05
-2.56634e-05
2.67858e-05
2.11582e-05
-1.99616e-05
2.06483e-05
2.01138e-05
-1.55806e-05
1.6625e-05
1.81255e-05
-2.07598e-05
2.27481e-05
1.32277e-05
-4.29066e-06
9.18838e-06
1.25291e-05
-3.13761e-06
3.83627e-06
1.54049e-05
-3.63059e-06
7.54792e-07
2.13072e-05
-2.45195e-05
1.86171e-05
2.42439e-05
-2.51327e-05
2.2196e-05
2.67461e-05
-2.54945e-05
2.29923e-05
2.68005e-05
-1.87295e-05
1.86752e-05
2.58429e-05
-1.11091e-05
1.20667e-05
2.46578e-05
-1.46164e-06
2.6467e-06
2.35894e-05
7.00657e-06
-5.93813e-06
2.24747e-05
1.5198e-05
-1.40833e-05
2.1241e-05
2.56801e-05
-2.44463e-05
1.97027e-05
3.48261e-05
-3.32879e-05
1.83637e-05
3.76479e-05
-3.63088e-05
1.62542e-05
3.61615e-05
-3.40521e-05
1.56504e-05
2.8875e-05
-2.82712e-05
1.38966e-05
2.94593e-05
-2.77055e-05
1.4267e-05
2.39988e-05
-2.43692e-05
1.31142e-05
3.1014e-05
-2.98612e-05
1.38407e-05
2.30834e-05
-2.38099e-05
1.34124e-05
2.73052e-05
-2.68769e-05
1.49341e-05
1.232e-05
-1.38418e-05
1.46526e-05
1.50415e-05
-1.476e-05
1.69635e-05
-1.94894e-06
-3.62006e-07
1.64955e-05
4.79016e-06
-4.32216e-06
1.82555e-05
-7.63614e-06
5.87617e-06
1.69942e-05
1.88404e-06
-6.22742e-07
1.84027e-05
-8.13912e-06
6.73066e-06
1.69658e-05
2.2189e-06
-7.82055e-07
1.83229e-05
-5.00575e-06
3.64862e-06
1.6739e-05
5.40437e-06
-3.82045e-06
1.69362e-05
1.98406e-07
-3.95608e-07
1.44729e-05
9.49918e-06
-7.03586e-06
1.45342e-05
2.93388e-06
-2.99519e-06
1.20558e-05
1.42255e-05
-1.17471e-05
1.35403e-05
1.08665e-05
-1.2351e-05
3.82357e-05
-3.67267e-05
1.20313e-05
1.19293e-05
-2.51448e-07
1.28149e-05
5.50073e-07
1.34438e-05
2.40267e-06
1.43379e-05
1.97469e-06
1.53077e-05
5.29547e-07
1.60856e-05
-3.16953e-06
1.71517e-05
-7.42416e-06
1.71607e-05
-9.28818e-06
1.68044e-05
-1.17642e-05
1.51661e-05
-1.13942e-05
1.27557e-05
-1.0631e-05
1.00369e-05
-7.23837e-06
7.35364e-06
-1.80904e-06
7.28681e-06
1.96965e-07
9.09463e-06
1.20761e-05
1.33817e-05
2.45798e-05
1.74929e-05
1.85e-05
2.03205e-05
1.37522e-05
2.26127e-05
7.00997e-06
2.40416e-05
4.86083e-07
2.47824e-05
-4.03295e-06
2.61293e-05
-1.03444e-05
2.83665e-05
-1.55551e-05
3.09679e-05
-1.98371e-05
3.31019e-05
-2.68931e-05
3.42063e-05
-3.0821e-05
3.48988e-05
-3.21208e-05
3.47354e-05
-3.25776e-05
3.33947e-05
-3.15912e-05
3.23066e-05
-2.88301e-05
3.12695e-05
-2.69174e-05
2.95701e-05
-2.38414e-05
2.77555e-05
-2.1076e-05
2.71713e-05
-2.1195e-05
2.65131e-05
-2.15187e-05
2.5552e-05
-2.05572e-05
2.53368e-05
-1.93027e-05
2.52071e-05
-1.42587e-05
2.57562e-05
-1.16321e-05
2.57661e-05
-2.76692e-06
2.57176e-05
4.69501e-06
2.54086e-05
1.30041e-05
2.56678e-05
2.20113e-05
2.45668e-05
3.17362e-05
2.3939e-05
3.31967e-05
2.31913e-05
3.77209e-05
2.35975e-05
3.73359e-05
2.43944e-05
3.98923e-05
2.43358e-05
3.47829e-05
2.51706e-05
3.01908e-05
2.57898e-05
1.91725e-05
2.7099e-05
1.16306e-05
2.72552e-05
1.05196e-06
2.75768e-05
-1.27619e-05
2.78665e-05
-2.08096e-05
2.71334e-05
-2.59672e-05
2.67253e-05
-3.47269e-05
2.60171e-05
-3.1251e-05
2.34004e-05
-2.94344e-05
2.22725e-05
-2.45355e-05
2.11029e-05
-1.87919e-05
1.92036e-05
-1.36813e-05
1.59168e-05
-1.7473e-05
1.165e-05
-2.38543e-08
1.23684e-05
-3.85593e-06
1.62575e-05
-7.51975e-06
2.15391e-05
-2.9801e-05
2.30416e-05
-2.66352e-05
2.48206e-05
-2.72735e-05
2.43378e-05
-1.82467e-05
2.36944e-05
-1.04658e-05
2.26515e-05
-4.18695e-07
2.19136e-05
7.74441e-06
2.10008e-05
1.61108e-05
2.00643e-05
2.66166e-05
1.8608e-05
3.62825e-05
1.7839e-05
3.84169e-05
1.58468e-05
3.81537e-05
1.58635e-05
2.88583e-05
1.42573e-05
3.10655e-05
1.49949e-05
2.32612e-05
1.4275e-05
3.17339e-05
1.54484e-05
2.19099e-05
1.51348e-05
2.76189e-05
1.70919e-05
1.0363e-05
1.68452e-05
1.52882e-05
1.8937e-05
-4.04079e-06
1.87159e-05
5.01134e-06
2.0236e-05
-9.15631e-06
1.92945e-05
2.82552e-06
2.04768e-05
-9.32134e-06
1.90419e-05
3.65377e-06
2.10417e-05
-7.00555e-06
1.92049e-05
7.24118e-06
2.11772e-05
-1.77389e-06
1.91023e-05
1.1574e-05
1.8497e-05
3.53918e-06
1.44384e-05
1.82841e-05
1.85551e-05
6.74983e-06
3.82468e-05
1.8544e-05
1.82506e-05
-6.96416e-07
1.90597e-05
-2.59001e-07
1.94145e-05
2.04791e-06
1.98721e-05
1.51707e-06
2.08318e-05
-4.30141e-07
2.11717e-05
-3.5094e-06
2.18318e-05
-8.08431e-06
2.18977e-05
-9.35405e-06
2.12168e-05
-1.10833e-05
1.99946e-05
-1.0172e-05
1.78085e-05
-8.44493e-06
1.60599e-05
-5.48974e-06
1.35821e-05
6.68765e-07
1.16269e-05
2.1522e-06
1.28849e-05
1.0818e-05
1.69413e-05
2.05235e-05
2.01378e-05
1.53034e-05
2.28451e-05
1.10449e-05
2.48989e-05
4.95608e-06
2.63024e-05
-9.17325e-07
2.75718e-05
-5.30243e-06
2.93004e-05
-1.20729e-05
3.17606e-05
-1.80152e-05
3.43837e-05
-2.24602e-05
3.57281e-05
-2.82376e-05
3.58816e-05
-3.09744e-05
3.58055e-05
-3.20447e-05
3.51547e-05
-3.19268e-05
3.36148e-05
-3.00513e-05
3.24458e-05
-2.76611e-05
3.1182e-05
-2.56536e-05
2.9237e-05
-2.18964e-05
2.76154e-05
-1.94544e-05
2.68301e-05
-2.04097e-05
2.53892e-05
-2.00778e-05
2.41609e-05
-1.93289e-05
2.41291e-05
-1.92709e-05
2.43021e-05
-1.44317e-05
2.48429e-05
-1.21729e-05
2.49393e-05
-2.86333e-06
2.49633e-05
4.67096e-06
2.45739e-05
1.33936e-05
2.52295e-05
2.13556e-05
2.46948e-05
3.22709e-05
2.43101e-05
3.35814e-05
2.39502e-05
3.80808e-05
2.39486e-05
3.73374e-05
2.50535e-05
3.87874e-05
2.54327e-05
3.44037e-05
2.62079e-05
2.94155e-05
2.67137e-05
1.86667e-05
2.82633e-05
1.00811e-05
2.86204e-05
6.94892e-07
2.88406e-05
-1.2982e-05
2.89617e-05
-2.09307e-05
2.838e-05
-2.53855e-05
2.77661e-05
-3.4113e-05
2.62164e-05
-2.97012e-05
2.37239e-05
-2.69419e-05
2.25039e-05
-2.33155e-05
2.06563e-05
-1.69443e-05
1.80806e-05
-1.11056e-05
1.36871e-05
-1.30795e-05
1.11405e-05
2.52271e-06
1.26313e-05
-5.34667e-06
1.69337e-05
-1.18222e-05
2.1252e-05
-3.41194e-05
2.1892e-05
-2.72752e-05
2.31408e-05
-2.85223e-05
2.17385e-05
-1.68444e-05
2.14471e-05
-1.01743e-05
2.04402e-05
5.88145e-07
2.01128e-05
8.07183e-06
1.92711e-05
1.69526e-05
1.87713e-05
2.71163e-05
1.73658e-05
3.76881e-05
1.72494e-05
3.85333e-05
1.53777e-05
4.00254e-05
1.59119e-05
2.8324e-05
1.47406e-05
3.22368e-05
1.57237e-05
2.22781e-05
1.54155e-05
3.20421e-05
1.71202e-05
2.02052e-05
1.69691e-05
2.77699e-05
1.8785e-05
8.54706e-06
1.86604e-05
1.54128e-05
2.0116e-05
-5.49639e-06
1.98518e-05
5.27557e-06
2.12715e-05
-1.0576e-05
2.00246e-05
4.07243e-06
2.14567e-05
-1.07535e-05
1.98632e-05
5.24727e-06
2.14642e-05
-8.6065e-06
2.13115e-05
7.39381e-06
2.32548e-05
-3.71716e-06
2.10105e-05
1.38184e-05
2.49403e-05
-3.90675e-07
2.02247e-05
2.29998e-05
2.22312e-05
4.74328e-06
3.73445e-05
2.31335e-05
2.35306e-05
-8.98865e-07
2.39861e-05
-7.14524e-07
2.47249e-05
1.3091e-06
2.49744e-05
1.26756e-06
2.55478e-05
-1.00357e-06
2.60154e-05
-3.97696e-06
2.60023e-05
-8.07125e-06
2.61258e-05
-9.47747e-06
2.53788e-05
-1.03363e-05
2.44168e-05
-9.20993e-06
2.24007e-05
-6.42887e-06
2.07442e-05
-3.83317e-06
1.92886e-05
2.12432e-06
1.70845e-05
4.35624e-06
1.77492e-05
1.01533e-05
2.10638e-05
1.7209e-05
2.35167e-05
1.28505e-05
2.56528e-05
8.90881e-06
2.76158e-05
2.99315e-06
2.93823e-05
-2.6839e-06
3.1143e-05
-7.06311e-06
3.305e-05
-1.39799e-05
3.51354e-05
-2.01007e-05
3.69873e-05
-2.43121e-05
3.72491e-05
-2.84994e-05
3.66077e-05
-3.03329e-05
3.6017e-05
-3.14541e-05
3.51012e-05
-3.10111e-05
3.36756e-05
-2.86257e-05
3.24722e-05
-2.64576e-05
3.09556e-05
-2.41371e-05
2.88568e-05
-1.97977e-05
2.73814e-05
-1.79789e-05
2.59509e-05
-1.89792e-05
2.36466e-05
-1.77734e-05
2.25323e-05
-1.82146e-05
2.27178e-05
-1.94564e-05
2.32642e-05
-1.49782e-05
2.37342e-05
-1.26428e-05
2.39637e-05
-3.09281e-06
2.4059e-05
4.57562e-06
2.37032e-05
1.37494e-05
2.43011e-05
2.07577e-05
2.4401e-05
3.2171e-05
2.40941e-05
3.38883e-05
2.43777e-05
3.77972e-05
2.42229e-05
3.74923e-05
2.53195e-05
3.76908e-05
2.62033e-05
3.35199e-05
2.70585e-05
2.85603e-05
2.74388e-05
1.82864e-05
2.90251e-05
8.49472e-06
2.9706e-05
1.40556e-08
2.98599e-05
-1.3136e-05
2.9766e-05
-2.08368e-05
2.93864e-05
-2.50059e-05
2.82387e-05
-3.29654e-05
2.60909e-05
-2.75534e-05
2.38566e-05
-2.47076e-05
2.22264e-05
-2.16853e-05
1.98028e-05
-1.45208e-05
1.68768e-05
-8.17955e-06
1.23441e-05
-8.54684e-06
1.209e-05
2.77682e-06
1.31276e-05
-6.38428e-06
1.70988e-05
-1.57934e-05
1.97205e-05
-3.67411e-05
2.00982e-05
-2.76529e-05
2.12011e-05
-2.96253e-05
1.91579e-05
-1.48012e-05
1.94287e-05
-1.04451e-05
1.82198e-05
1.79702e-06
1.8557e-05
7.73462e-06
1.74445e-05
1.80651e-05
1.74502e-05
2.71106e-05
1.59907e-05
3.91475e-05
1.662e-05
3.7904e-05
1.49886e-05
4.16568e-05
1.58997e-05
2.7413e-05
1.52837e-05
3.28528e-05
1.65654e-05
2.09964e-05
1.65381e-05
3.20695e-05
1.8726e-05
1.80174e-05
1.86273e-05
2.78686e-05
2.0172e-05
7.00239e-06
1.97039e-05
1.58809e-05
2.09759e-05
-6.76842e-06
2.04205e-05
5.83101e-06
2.16676e-05
-1.18232e-05
2.06257e-05
5.1144e-06
2.08032e-05
-1.0931e-05
1.96091e-05
6.44141e-06
2.09466e-05
-9.94397e-06
1.91047e-05
9.2357e-06
2.26922e-05
-7.30466e-06
2.02996e-05
1.62109e-05
2.40093e-05
-4.10038e-06
2.34902e-05
2.35189e-05
2.51523e-05
3.08118e-06
3.55777e-05
2.69191e-05
2.84843e-05
-1.00523e-06
2.8202e-05
-4.32199e-07
2.86289e-05
8.82229e-07
2.88953e-05
1.00113e-06
2.8871e-05
-9.79263e-07
2.93054e-05
-4.41135e-06
2.89825e-05
-7.74836e-06
2.90348e-05
-9.52979e-06
2.85093e-05
-9.81083e-06
2.77372e-05
-8.43784e-06
2.63888e-05
-5.08042e-06
2.4573e-05
-2.01742e-06
2.37639e-05
2.93346e-06
2.24216e-05
5.69851e-06
2.28696e-05
9.70531e-06
2.56483e-05
1.44304e-05
2.76596e-05
1.08391e-05
2.93282e-05
7.2402e-06
3.10009e-05
1.32049e-06
3.28901e-05
-4.57311e-06
3.48499e-05
-9.02292e-06
3.62866e-05
-1.54166e-05
3.74371e-05
-2.12511e-05
3.82492e-05
-2.51243e-05
3.76942e-05
-2.79444e-05
3.66935e-05
-2.93322e-05
3.59302e-05
-3.06907e-05
3.49313e-05
-3.00122e-05
3.36625e-05
-2.73569e-05
3.23298e-05
-2.5125e-05
3.0404e-05
-2.22113e-05
2.8116e-05
-1.75096e-05
2.63917e-05
-1.62546e-05
2.37472e-05
-1.63348e-05
2.084e-05
-1.48662e-05
2.02871e-05
-1.76618e-05
2.06751e-05
-1.98443e-05
2.16401e-05
-1.59431e-05
2.20778e-05
-1.30805e-05
2.26122e-05
-3.62728e-06
2.28519e-05
4.33599e-06
2.26612e-05
1.394e-05
2.30172e-05
2.04017e-05
2.39317e-05
3.12565e-05
2.37813e-05
3.40387e-05
2.44538e-05
3.71247e-05
2.45048e-05
3.74413e-05
2.54743e-05
3.67213e-05
2.66947e-05
3.22996e-05
2.78413e-05
2.74137e-05
2.83798e-05
1.7748e-05
2.97356e-05
7.13885e-06
3.0592e-05
-8.42303e-07
3.05765e-05
-1.31205e-05
3.03302e-05
-2.05906e-05
2.99568e-05
-2.46324e-05
2.81593e-05
-3.11679e-05
2.58949e-05
-2.52889e-05
2.3685e-05
-2.24977e-05
2.15163e-05
-1.95166e-05
1.88663e-05
-1.18708e-05
1.56689e-05
-4.98213e-06
1.22934e-05
-5.1714e-06
1.33252e-05
1.74505e-06
1.34449e-05
-6.50397e-06
1.64095e-05
-1.8758e-05
1.69432e-05
-3.72748e-05
1.7564e-05
-2.82737e-05
1.87548e-05
-3.08161e-05
1.6651e-05
-1.26974e-05
1.74519e-05
-1.1246e-05
1.58703e-05
3.3786e-06
1.69711e-05
6.63377e-06
1.54635e-05
1.95728e-05
1.61227e-05
2.64514e-05
1.45629e-05
4.07073e-05
1.58838e-05
3.65831e-05
1.47407e-05
4.27999e-05
1.5864e-05
2.62897e-05
1.57109e-05
3.30059e-05
1.7541e-05
1.91663e-05
1.74775e-05
3.2133e-05
2.00361e-05
1.54588e-05
2.00054e-05
2.78993e-05
2.15805e-05
5.42723e-06
2.11174e-05
1.6344e-05
2.2133e-05
-7.78394e-06
2.16406e-05
6.32336e-06
2.25716e-05
-1.27542e-05
2.14229e-05
6.26313e-06
2.18632e-05
-1.13713e-05
1.96864e-05
8.61818e-06
2.11098e-05
-1.13674e-05
1.8574e-05
1.17715e-05
2.07628e-05
-9.49338e-06
1.97417e-05
1.7232e-05
2.11143e-05
-5.47301e-06
2.13619e-05
2.32713e-05
2.4201e-05
2.42103e-07
3.11025e-05
2.86761e-05
3.1907e-05
-1.55641e-06
3.17545e-05
-2.79686e-07
3.17705e-05
8.66274e-07
3.19406e-05
8.30974e-07
3.1551e-05
-5.89646e-07
3.17353e-05
-4.59563e-06
3.11487e-05
-7.16179e-06
3.07822e-05
-9.16323e-06
3.04121e-05
-9.44072e-06
2.96676e-05
-7.69334e-06
2.90729e-05
-4.48578e-06
2.76959e-05
-6.40424e-07
2.713e-05
3.49942e-06
2.6691e-05
6.13751e-06
2.71102e-05
9.28605e-06
2.9585e-05
1.19556e-05
3.14844e-05
8.93971e-06
3.3053e-05
5.67159e-06
3.43468e-05
2.67447e-08
3.58684e-05
-6.09478e-06
3.75892e-05
-1.07437e-05
3.84242e-05
-1.62516e-05
3.85178e-05
-2.13447e-05
3.81982e-05
-2.48047e-05
3.73045e-05
-2.70508e-05
3.65051e-05
-2.85328e-05
3.57735e-05
-2.99591e-05
3.47271e-05
-2.89659e-05
3.35519e-05
-2.61816e-05
3.20254e-05
-2.35985e-05
2.95655e-05
-1.97513e-05
2.69261e-05
-1.48703e-05
2.44274e-05
-1.37559e-05
2.04953e-05
-1.24026e-05
1.76737e-05
-1.20447e-05
1.77946e-05
-1.77826e-05
1.83791e-05
-2.04289e-05
1.96332e-05
-1.71972e-05
1.99617e-05
-1.3409e-05
2.07178e-05
-4.38335e-06
2.12657e-05
3.78805e-06
2.14673e-05
1.37384e-05
2.15027e-05
2.03664e-05
2.28814e-05
2.98778e-05
2.31632e-05
3.37569e-05
2.40886e-05
3.61993e-05
2.46147e-05
3.69152e-05
2.56454e-05
3.56906e-05
2.70315e-05
3.09135e-05
2.8417e-05
2.60282e-05
2.92444e-05
1.69205e-05
3.02288e-05
6.15447e-06
3.11285e-05
-1.74194e-06
3.09615e-05
-1.29535e-05
3.06622e-05
-2.02913e-05
3.00694e-05
-2.40396e-05
2.76596e-05
-2.87582e-05
2.55144e-05
-2.31437e-05
2.30502e-05
-2.00335e-05
2.08014e-05
-1.72678e-05
1.80227e-05
-9.09209e-06
1.456e-05
-1.51948e-06
1.22626e-05
-2.87396e-06
1.3327e-05
6.80635e-07
1.31392e-05
-6.31616e-06
1.43333e-05
-1.99521e-05
1.34511e-05
-3.63926e-05
1.48521e-05
-2.96746e-05
1.5984e-05
-3.1948e-05
1.41789e-05
-1.08923e-05
1.557e-05
-1.26372e-05
1.38107e-05
5.13792e-06
1.54068e-05
5.03772e-06
1.33912e-05
2.15883e-05
1.47369e-05
2.51057e-05
1.3102e-05
4.23423e-05
1.49616e-05
3.47234e-05
1.4567e-05
4.31945e-05
1.60297e-05
2.4827e-05
1.60429e-05
3.29927e-05
1.85748e-05
1.66344e-05
1.84755e-05
3.22322e-05
2.09097e-05
1.30246e-05
2.11104e-05
2.76986e-05
2.25941e-05
3.94347e-06
2.23448e-05
1.65934e-05
2.28387e-05
-8.2779e-06
2.20631e-05
7.09901e-06
2.28599e-05
-1.3551e-05
2.15519e-05
7.5711e-06
2.22384e-05
-1.20578e-05
2.06921e-05
1.01645e-05
2.15721e-05
-1.22474e-05
2.07023e-05
1.26412e-05
2.13634e-05
-1.01544e-05
2.12043e-05
1.73911e-05
2.27145e-05
-6.98324e-06
2.20104e-05
2.39755e-05
2.18201e-05
4.32317e-07
2.54226e-05
2.75e-05
3.34329e-05
-2.36136e-06
3.37141e-05
-5.60873e-07
3.37124e-05
8.67991e-07
3.39278e-05
6.15535e-07
3.35737e-05
-2.35506e-07
3.35595e-05
-4.58146e-06
3.28656e-05
-6.46789e-06
3.19833e-05
-8.28095e-06
3.14534e-05
-8.91081e-06
3.05057e-05
-6.74561e-06
3.01943e-05
-4.17439e-06
2.9448e-05
1.05898e-07
2.9164e-05
3.78335e-06
2.93972e-05
5.90435e-06
3.00549e-05
8.62831e-06
3.21867e-05
9.82379e-06
3.40989e-05
7.02755e-06
3.56951e-05
4.07534e-06
3.66103e-05
-8.88377e-07
3.76688e-05
-7.15332e-06
3.88855e-05
-1.19604e-05
3.89722e-05
-1.63383e-05
3.81834e-05
-2.05558e-05
3.7361e-05
-2.39823e-05
3.67556e-05
-2.64454e-05
3.63343e-05
-2.81114e-05
3.5517e-05
-2.91418e-05
3.42311e-05
-2.768e-05
3.28005e-05
-2.47511e-05
3.06825e-05
-2.14805e-05
2.76288e-05
-1.66976e-05
2.48457e-05
-1.20872e-05
2.16624e-05
-1.05726e-05
1.71227e-05
-7.86291e-06
1.48927e-05
-9.81464e-06
1.53165e-05
-1.82064e-05
1.62111e-05
-2.13235e-05
1.75949e-05
-1.85811e-05
1.76185e-05
-1.34325e-05
1.84294e-05
-5.19427e-06
1.91718e-05
3.04565e-06
1.96556e-05
1.32546e-05
1.98523e-05
2.01697e-05
2.14768e-05
2.82532e-05
2.23413e-05
3.28925e-05
2.33216e-05
3.52189e-05
2.4245e-05
3.59919e-05
2.55464e-05
3.43892e-05
2.70245e-05
2.94353e-05
2.86394e-05
2.44133e-05
2.97824e-05
1.57776e-05
3.04423e-05
5.49461e-06
3.1332e-05
-2.63172e-06
3.10691e-05
-1.26906e-05
3.05864e-05
-1.98086e-05
2.96344e-05
-2.30875e-05
2.6881e-05
-2.60048e-05
2.48195e-05
-2.10822e-05
2.21215e-05
-1.73355e-05
1.97711e-05
-1.49174e-05
1.66964e-05
-6.01733e-06
1.32473e-05
1.92964e-06
1.1342e-05
-9.68695e-07
1.2333e-05
-3.10391e-07
1.2432e-05
-6.41514e-06
1.14296e-05
-1.89497e-05
1.05618e-05
-3.55248e-05
1.29407e-05
-3.20536e-05
1.33722e-05
-3.23794e-05
1.19397e-05
-9.45974e-06
1.34536e-05
-1.41511e-05
1.1569e-05
7.0225e-06
1.36273e-05
2.97947e-06
1.12628e-05
2.39528e-05
1.3274e-05
2.30946e-05
1.17667e-05
4.38495e-05
1.38775e-05
3.26127e-05
1.43084e-05
4.27636e-05
1.64492e-05
2.26862e-05
1.6339e-05
3.31028e-05
1.92264e-05
1.3747e-05
1.93136e-05
3.21449e-05
2.14594e-05
1.08789e-05
2.17829e-05
2.73751e-05
2.29396e-05
2.78674e-06
2.26637e-05
1.68693e-05
2.28539e-05
-8.46811e-06
2.21295e-05
7.82343e-06
2.2568e-05
-1.39895e-05
2.17338e-05
8.40532e-06
2.19468e-05
-1.22707e-05
2.11568e-05
1.09545e-05
2.11489e-05
-1.22395e-05
2.06697e-05
1.31204e-05
2.09901e-05
-1.04749e-05
2.09361e-05
1.74451e-05
2.05689e-05
-6.61611e-06
2.30138e-05
2.15306e-05
2.16182e-05
1.82796e-06
2.07347e-05
2.63061e-05
3.42929e-05
-2.29299e-06
3.39795e-05
-2.47467e-07
3.39153e-05
9.32214e-07
3.42972e-05
2.33619e-07
3.43647e-05
-3.03001e-07
3.42769e-05
-4.49372e-06
3.36698e-05
-5.86078e-06
3.26297e-05
-7.24083e-06
3.17739e-05
-8.05505e-06
3.05816e-05
-5.55324e-06
3.0048e-05
-3.64082e-06
2.97051e-05
4.48829e-07
2.96538e-05
3.83459e-06
3.0309e-05
5.24915e-06
3.1464e-05
7.47337e-06
3.33331e-05
7.95463e-06
3.51701e-05
5.19059e-06
3.67646e-05
2.48084e-06
3.75592e-05
-1.68295e-06
3.81807e-05
-7.77488e-06
3.85824e-05
-1.23621e-05
3.80903e-05
-1.58462e-05
3.72132e-05
-1.96787e-05
3.66456e-05
-2.34147e-05
3.63989e-05
-2.61987e-05
3.59647e-05
-2.76772e-05
3.47199e-05
-2.7897e-05
3.29914e-05
-2.59515e-05
3.11234e-05
-2.28831e-05
2.84418e-05
-1.87989e-05
2.51593e-05
-1.34151e-05
2.23334e-05
-9.26127e-06
1.84212e-05
-6.6604e-06
1.37599e-05
-3.20164e-06
1.20655e-05
-8.12015e-06
1.26312e-05
-1.87721e-05
1.39749e-05
-2.26672e-05
1.51502e-05
-1.97564e-05
1.50178e-05
-1.33001e-05
1.58833e-05
-6.05976e-06
1.67855e-05
2.1435e-06
1.76081e-05
1.2432e-05
1.82728e-05
1.95049e-05
1.96023e-05
2.69238e-05
2.1112e-05
3.13827e-05
2.22452e-05
3.40858e-05
2.35203e-05
3.47167e-05
2.5048e-05
3.28615e-05
2.66494e-05
2.78339e-05
2.84994e-05
2.25633e-05
2.98603e-05
1.44167e-05
3.03313e-05
5.02365e-06
3.11611e-05
-3.46161e-06
3.08174e-05
-1.23469e-05
3.0057e-05
-1.90482e-05
2.86271e-05
-2.16576e-05
2.57974e-05
-2.31751e-05
2.37963e-05
-1.90812e-05
2.10839e-05
-1.46231e-05
1.8519e-05
-1.23525e-05
1.55504e-05
-3.04871e-06
1.28476e-05
4.63243e-06
1.06061e-05
1.27277e-06
1.11884e-05
-8.92699e-07
1.12907e-05
-6.51737e-06
9.63202e-06
-1.72911e-05
9.21282e-06
-3.51056e-05
1.20119e-05
-3.48527e-05
1.08816e-05
-3.12491e-05
9.75093e-06
-8.32908e-06
1.11546e-05
-1.55547e-05
9.45771e-06
8.71937e-06
1.17453e-05
6.91844e-07
9.17371e-06
2.65244e-05
1.17005e-05
2.05678e-05
1.0639e-05
4.4911e-05
1.27828e-05
3.04689e-05
1.37179e-05
4.18285e-05
1.68988e-05
1.95052e-05
1.66313e-05
3.33704e-05
1.94189e-05
1.09594e-05
1.97211e-05
3.18428e-05
2.17337e-05
8.86625e-06
2.22699e-05
2.6839e-05
2.29959e-05
2.06071e-06
2.28482e-05
1.70169e-05
2.29681e-05
-8.58802e-06
2.25663e-05
8.22529e-06
2.26798e-05
-1.41031e-05
2.2331e-05
8.75409e-06
2.20557e-05
-1.19954e-05
2.17057e-05
1.13045e-05
2.12602e-05
-1.1794e-05
2.11932e-05
1.31874e-05
2.05755e-05
-9.85717e-06
2.16424e-05
1.63782e-05
2.00627e-05
-5.0364e-06
2.28659e-05
1.87274e-05
2.14144e-05
3.27941e-06
1.71274e-05
2.50216e-05
3.36468e-05
-1.9107e-06
3.34541e-05
-5.47675e-08
3.34823e-05
9.04051e-07
3.39741e-05
-2.58214e-07
3.44243e-05
-7.53171e-07
3.42201e-05
-4.28953e-06
3.38206e-05
-5.46126e-06
3.27875e-05
-6.20778e-06
3.15991e-05
-6.86661e-06
3.03654e-05
-4.31953e-06
2.94208e-05
-2.69623e-06
2.92668e-05
6.0284e-07
2.95264e-05
3.57491e-06
3.05043e-05
4.27128e-06
3.21209e-05
5.85679e-06
3.38518e-05
6.22375e-06
3.5324e-05
3.71838e-06
3.67298e-05
1.07498e-06
3.76165e-05
-2.56961e-06
3.77271e-05
-7.88547e-06
3.72964e-05
-1.19314e-05
3.68327e-05
-1.53825e-05
3.65726e-05
-1.94187e-05
3.63356e-05
-2.31776e-05
3.59089e-05
-2.57721e-05
3.49059e-05
-2.66742e-05
3.30298e-05
-2.60209e-05
3.08136e-05
-2.37353e-05
2.83955e-05
-2.04651e-05
2.53075e-05
-1.57109e-05
2.21042e-05
-1.02118e-05
1.91254e-05
-6.28253e-06
1.47482e-05
-2.28322e-06
1.03838e-05
1.16278e-06
9.08175e-06
-6.81807e-06
9.87659e-06
-1.9567e-05
1.13398e-05
-2.41304e-05
1.18044e-05
-2.02211e-05
1.18791e-05
-1.33748e-05
1.30793e-05
-7.26001e-06
1.40744e-05
1.1484e-06
1.49086e-05
1.15978e-05
1.61786e-05
1.82349e-05
1.75737e-05
2.55288e-05
1.9592e-05
2.93644e-05
2.09258e-05
3.27519e-05
2.25906e-05
3.3052e-05
2.42662e-05
3.11859e-05
2.60132e-05
2.60869e-05
2.79177e-05
2.06588e-05
2.93288e-05
1.30055e-05
2.98831e-05
4.46933e-06
3.06042e-05
-4.18269e-06
3.00801e-05
-1.18228e-05
2.89848e-05
-1.79529e-05
2.72156e-05
-1.98885e-05
2.45327e-05
-2.04922e-05
2.23119e-05
-1.68603e-05
1.96102e-05
-1.19214e-05
1.68012e-05
-9.54349e-06
1.42858e-05
-5.33355e-07
1.25982e-05
6.32009e-06
1.02314e-05
3.63957e-06
1.00201e-05
-6.8142e-07
9.89112e-06
-6.38842e-06
9.40218e-06
-1.68021e-05
8.63665e-06
-3.434e-05
1.00141e-05
-3.62302e-05
7.78624e-06
-2.90212e-05
7.5882e-06
-8.13104e-06
8.60363e-06
-1.65702e-05
7.17552e-06
1.01475e-05
9.40107e-06
-1.5337e-06
7.18865e-06
2.87368e-05
1.00282e-05
1.77282e-05
9.70381e-06
4.52355e-05
1.21552e-05
2.80175e-05
1.29404e-05
4.10434e-05
1.686e-05
1.55856e-05
1.67166e-05
3.35138e-05
1.91947e-05
8.48127e-06
1.9797e-05
3.12405e-05
2.16724e-05
6.99087e-06
2.25413e-05
2.59701e-05
2.30228e-05
1.57923e-06
2.3033e-05
1.70067e-05
2.29144e-05
-8.46939e-06
2.30678e-05
8.07186e-06
2.27121e-05
-1.37473e-05
2.27111e-05
8.75507e-06
2.20713e-05
-1.13556e-05
2.2204e-05
1.11718e-05
2.13539e-05
-1.09439e-05
2.25208e-05
1.20206e-05
2.13365e-05
-8.67289e-06
2.30752e-05
1.46395e-05
2.13314e-05
-3.29259e-06
2.4118e-05
1.59408e-05
2.30682e-05
4.32923e-06
1.48319e-05
2.53638e-05
3.32775e-05
-1.57601e-06
3.33566e-05
-1.33813e-07
3.33908e-05
8.69806e-07
3.39533e-05
-8.20741e-07
3.44805e-05
-1.2803e-06
3.40231e-05
-3.83218e-06
3.37122e-05
-5.15032e-06
3.26509e-05
-5.14652e-06
3.14057e-05
-5.62135e-06
3.04086e-05
-3.32244e-06
2.93178e-05
-1.6054e-06
2.94217e-05
4.9886e-07
3.02115e-05
2.78519e-06
3.12113e-05
3.27145e-06
3.2658e-05
4.41013e-06
3.41088e-05
4.77287e-06
3.51372e-05
2.68999e-06
3.62116e-05
6.06509e-10
3.68595e-05
-3.21754e-06
3.64364e-05
-7.4624e-06
3.59589e-05
-1.14539e-05
3.61184e-05
-1.5542e-05
3.62327e-05
-1.95331e-05
3.56815e-05
-2.26264e-05
3.45e-05
-2.45905e-05
3.26964e-05
-2.48706e-05
3.02473e-05
-2.35718e-05
2.76059e-05
-2.10939e-05
2.47455e-05
-1.76047e-05
2.16594e-05
-1.26248e-05
1.8863e-05
-7.41531e-06
1.56336e-05
-3.05316e-06
1.08954e-05
2.45495e-06
7.12585e-06
4.93237e-06
6.29738e-06
-5.9896e-06
7.07193e-06
-2.03415e-05
8.15512e-06
-2.52136e-05
8.10164e-06
-2.01676e-05
8.72065e-06
-1.39938e-05
1.00673e-05
-8.60661e-06
1.08627e-05
3.52992e-07
1.19332e-05
1.05273e-05
1.39388e-05
1.62293e-05
1.52838e-05
2.41838e-05
1.75178e-05
2.71304e-05
1.94744e-05
3.07953e-05
2.14961e-05
3.10303e-05
2.32153e-05
2.94667e-05
2.51005e-05
2.42016e-05
2.69376e-05
1.88218e-05
2.8356e-05
1.15871e-05
2.90879e-05