/*--------------------------------*- C++ -*----------------------------------*\
| =========                 |                                                 |
| \\      /  F ield         | OpenFOAM: The Open Source CFD Toolbox           |
|  \\    /   O peration     | Version:  2.4.0                                 |
|   \\  /    A nd           | Web:      www.OpenFOAM.org                      |
|    \\/     M anipulation  |                                                 |
\*---------------------------------------------------------------------------*/
FoamFile
{
    version     2.0;
    format      ascii;
    class       volVectorField;
    location    "0.11";
    object      UMean;
}
// * * * * * * * * * * * * * * * * * * * * * * * * * * * * * * * * * * * * * //

dimensions      [0 1 -1 0 0 0 0];

internalField   nonuniform List<vector> 
4400
(
(5.44618 0.31243 0)
(3.44313 0.061627 0)
(2.71936 0.00158483 0)
(2.38846 -0.00230574 0)
(2.24829 -0.00149307 0)
(2.18875 -0.000749714 0)
(2.14453 -0.000184585 0)
(2.14002 -0.00042487 0)
(2.13019 0.000158603 0)
(2.01292 -0.0461309 0)
(8.66748 0.839838 0)
(7.65475 0.337262 0)
(6.76015 0.112365 0)
(6.0887 0.0506152 0)
(5.71543 0.02263 0)
(5.53344 0.0125055 0)
(5.39465 0.00681647 0)
(5.37591 0.00284976 0)
(5.26048 0.0103241 0)
(5.41068 -0.131757 0)
(9.82558 0.913594 0)
(10.053 0.463528 0)
(9.55752 0.204209 0)
(8.877 0.119945 0)
(8.40207 0.065176 0)
(8.13649 0.0377056 0)
(7.93752 0.0200519 0)
(7.88075 0.0145128 0)
(7.74578 -0.000581431 0)
(7.85633 -0.128318 0)
(10.036 0.784162 0)
(11.1327 0.480578 0)
(11.2563 0.252965 0)
(10.8617 0.182243 0)
(10.4703 0.114299 0)
(10.1944 0.071791 0)
(10.0038 0.0394687 0)
(9.88809 0.0286131 0)
(9.82289 0.000332507 0)
(9.74935 -0.12693 0)
(9.96149 0.628941 0)
(11.3304 0.420407 0)
(11.9221 0.233953 0)
(11.9211 0.200151 0)
(11.8038 0.146689 0)
(11.6168 0.099054 0)
(11.5458 0.0634428 0)
(11.3875 0.0374035 0)
(11.4148 0.0149593 0)
(11.2695 -0.146056 0)
(9.93006 0.500427 0)
(11.2496 0.347168 0)
(11.9816 0.178927 0)
(12.1905 0.170857 0)
(12.3335 0.140075 0)
(12.3331 0.104959 0)
(12.4157 0.069423 0)
(12.3609 0.0475432 0)
(12.4279 0.00918111 0)
(12.3523 -0.120177 0)
(9.92915 0.386099 0)
(11.1824 0.277216 0)
(11.918 0.130971 0)
(12.1747 0.127583 0)
(12.3765 0.111758 0)
(12.5016 0.0843334 0)
(12.6673 0.0599665 0)
(12.758 0.0374261 0)
(12.8717 -0.00123162 0)
(12.9085 -0.0775371 0)
(9.92687 0.26924 0)
(11.1448 0.207605 0)
(11.8627 0.0855725 0)
(12.1453 0.0944825 0)
(12.3301 0.0743314 0)
(12.4862 0.0655966 0)
(12.6589 0.0319389 0)
(12.8038 0.02914 0)
(12.9377 -0.0305407 0)
(13.0215 -0.0788442 0)
(9.9215 0.163437 0)
(11.1228 0.122846 0)
(11.8278 0.0520373 0)
(12.129 0.0534352 0)
(12.2968 0.0471926 0)
(12.4656 0.0347967 0)
(12.6269 0.0185166 0)
(12.7828 0.00160897 0)
(12.907 -0.0402584 0)
(12.9847 -0.126477 0)
(9.92426 0.0523638 0)
(11.1061 0.0437208 0)
(11.8164 0.0132222 0)
(12.1142 0.0213897 0)
(12.2874 0.00996913 0)
(12.4506 0.0143817 0)
(12.6158 -0.00683677 0)
(12.7627 -0.0123952 0)
(12.889 -0.0643932 0)
(12.946 -0.14736 0)
(9.92451 -0.0530702 0)
(11.1068 -0.0415697 0)
(11.8161 -0.0183078 0)
(12.1148 -0.0178422 0)
(12.2873 -0.0199842 0)
(12.4512 -0.01454 0)
(12.6145 -0.0243417 0)
(12.7615 -0.0341385 0)
(12.8804 -0.0830364 0)
(12.931 -0.164593 0)
(9.92992 -0.163124 0)
(11.1187 -0.122225 0)
(11.8334 -0.0550599 0)
(12.1231 -0.0524217 0)
(12.3019 -0.0543555 0)
(12.4608 -0.0385432 0)
(12.6271 -0.0453775 0)
(12.768 -0.0531824 0)
(12.8856 -0.101256 0)
(12.9275 -0.180292 0)
(9.94797 -0.271819 0)
(11.1335 -0.203895 0)
(11.8753 -0.0913933 0)
(12.1329 -0.0895859 0)
(12.3385 -0.0865042 0)
(12.4739 -0.0637564 0)
(12.6584 -0.0654924 0)
(12.7761 -0.071472 0)
(12.8982 -0.118181 0)
(12.9117 -0.197258 0)
(9.9626 -0.386482 0)
(11.1564 -0.276749 0)
(11.9404 -0.133129 0)
(12.1488 -0.126161 0)
(12.3956 -0.119773 0)
(12.4719 -0.0876264 0)
(12.6756 -0.0856902 0)
(12.7043 -0.0875395 0)
(12.815 -0.131462 0)
(12.7075 -0.206953 0)
(9.9547 -0.503329 0)
(11.2243 -0.344281 0)
(11.9996 -0.182504 0)
(12.1673 -0.167295 0)
(12.3487 -0.149873 0)
(12.3034 -0.105587 0)
(12.4142 -0.0969929 0)
(12.2888 -0.0917832 0)
(12.3211 -0.12986 0)
(12.046 -0.196955 0)
(9.9778 -0.630337 0)
(11.3087 -0.418442 0)
(11.9383 -0.23655 0)
(11.8988 -0.197658 0)
(11.819 -0.155143 0)
(11.5798 -0.10022 0)
(11.5394 -0.0865995 0)
(11.2878 -0.0767653 0)
(11.2537 -0.114328 0)
(10.8596 -0.156655 0)
(10.0436 -0.785406 0)
(11.117 -0.47935 0)
(11.2701 -0.254968 0)
(10.8385 -0.180352 0)
(10.4914 -0.121429 0)
(10.1382 -0.0715811 0)
(10.0181 -0.0608046 0)
(9.72693 -0.0537881 0)
(9.67226 -0.0889188 0)
(9.20554 -0.104174 0)
(9.82785 -0.914028 0)
(10.044 -0.462804 0)
(9.56634 -0.205354 0)
(8.85979 -0.119077 0)
(8.41729 -0.0694118 0)
(8.08145 -0.0385379 0)
(7.9517 -0.0338536 0)
(7.69076 -0.0320479 0)
(7.63326 -0.058127 0)
(7.14097 -0.0579404 0)
(8.66803 -0.840041 0)
(7.65038 -0.337033 0)
(6.76416 -0.112877 0)
(6.07832 -0.0503607 0)
(5.7221 -0.0245555 0)
(5.49213 -0.0132756 0)
(5.39546 -0.0130078 0)
(5.21082 -0.0144571 0)
(5.15006 -0.02756 0)
(4.72676 -0.0244239 0)
(5.44594 -0.312451 0)
(3.44201 -0.0615793 0)
(2.71985 -0.00166949 0)
(2.38473 0.00236988 0)
(2.24843 0.00130469 0)
(2.17047 0.000499876 0)
(2.13336 -0.000273941 0)
(2.05966 -0.00121907 0)
(2.01162 -0.00264969 0)
(1.80637 0.00992609 0)
(3.1136 -0.331657 0)
(3.63597 -0.17759 0)
(4.18467 -0.217919 0)
(4.73092 -0.294045 0)
(5.16308 -0.403951 0)
(5.54002 -0.588494 0)
(5.87459 -0.640988 0)
(6.10359 -0.7515 0)
(6.56707 -0.869954 0)
(6.72795 -0.877395 0)
(7.12497 -0.959388 0)
(7.34931 -0.967915 0)
(7.72294 -1.09077 0)
(8.09248 -1.22932 0)
(8.40622 -1.32005 0)
(8.75331 -1.49453 0)
(9.13892 -1.75537 0)
(9.39867 -1.96499 0)
(9.60763 -2.15885 0)
(9.77076 -2.31016 0)
(9.86649 -2.42328 0)
(9.9313 -2.47964 0)
(9.98277 -2.51456 0)
(10.0886 -2.53177 0)
(10.158 -2.53828 0)
(10.1479 -2.46977 0)
(10.0003 -2.35845 0)
(9.82617 -2.18377 0)
(9.52897 -1.98256 0)
(9.3094 -1.74905 0)
(9.01304 -1.53166 0)
(8.8531 -1.31077 0)
(8.5896 -1.113 0)
(8.48893 -0.893343 0)
(8.2388 -0.703226 0)
(8.17363 -0.459315 0)
(7.93937 -0.285324 0)
(7.90927 -0.0457111 0)
(7.69571 0.0778679 0)
(7.68975 0.282668 0)
(7.47315 0.351828 0)
(7.50004 0.500775 0)
(7.24331 0.514321 0)
(7.31026 0.613248 0)
(7.09377 0.495057 0)
(7.15177 0.595098 0)
(6.98459 0.439177 0)
(6.96357 0.555232 0)
(6.86641 0.304536 0)
(6.84627 0.438082 0)
(6.73581 0.107273 0)
(6.74951 0.344982 0)
(6.5978 -0.0492932 0)
(6.62403 0.312135 0)
(6.49935 -0.132502 0)
(6.49491 0.379 0)
(6.49527 -0.14347 0)
(6.31855 0.501094 0)
(6.52269 -0.102397 0)
(6.18485 0.600715 0)
(6.48691 -0.0639579 0)
(6.06092 0.630275 0)
(6.40904 -0.0722346 0)
(5.92513 0.673025 0)
(6.36703 -0.106739 0)
(5.87669 0.659485 0)
(6.3877 -0.135377 0)
(5.81819 0.730435 0)
(6.34959 -0.072138 0)
(5.70343 0.842031 0)
(6.27541 -0.0256535 0)
(5.59865 0.901093 0)
(6.21111 -0.033441 0)
(5.53085 0.890172 0)
(6.15398 -0.0887477 0)
(5.49463 0.815289 0)
(6.10802 -0.178958 0)
(5.50034 0.712798 0)
(6.08125 -0.23136 0)
(5.53943 0.648492 0)
(6.06287 -0.21272 0)
(5.58531 0.612353 0)
(6.03506 -0.148867 0)
(5.61724 0.590953 0)
(5.97521 -0.0267569 0)
(5.62177 0.627069 0)
(5.88406 0.17572 0)
(5.59393 0.749436 0)
(5.79335 0.454256 0)
(5.56897 0.972824 0)
(5.74755 0.80603 0)
(5.60886 1.34962 0)
(5.75963 1.26059 0)
(5.65603 1.97825 0)
(5.75655 1.86389 0)
(5.46915 2.9027 0)
(6.10395 2.7919 0)
(5.44957 4.67407 0)
(6.4652 5.10558 0)
(3.76542 9.30988 0)
(5.55856 -0.355888 0)
(5.76968 -0.298163 0)
(6.02255 -0.353567 0)
(6.27758 -0.460748 0)
(6.5851 -0.566994 0)
(6.84578 -0.716604 0)
(7.14236 -0.787173 0)
(7.31579 -0.874589 0)
(7.648 -0.989366 0)
(7.76305 -1.00966 0)
(8.0268 -1.08672 0)
(8.22898 -1.10931 0)
(8.55577 -1.22309 0)
(8.91392 -1.36892 0)
(9.19772 -1.47712 0)
(9.51027 -1.64174 0)
(9.82256 -1.87166 0)
(10.0183 -2.0585 0)
(10.1643 -2.22766 0)
(10.2623 -2.35944 0)
(10.3089 -2.44482 0)
(10.356 -2.49458 0)
(10.3981 -2.53101 0)
(10.4472 -2.54341 0)
(10.4011 -2.51998 0)
(10.2595 -2.41517 0)
(10.0199 -2.27266 0)
(9.76922 -2.07812 0)
(9.44309 -1.87006 0)
(9.20058 -1.64204 0)
(8.89673 -1.43571 0)
(8.71291 -1.2233 0)
(8.43815 -1.02789 0)
(8.30925 -0.815883 0)
(8.04027 -0.627609 0)
(7.96919 -0.394849 0)
(7.73334 -0.231223 0)
(7.72961 -0.00095026 0)
(7.52255 0.115712 0)
(7.53988 0.328858 0)
(7.33518 0.385991 0)
(7.36132 0.551816 0)
(7.12255 0.549843 0)
(7.18988 0.647685 0)
(7.00383 0.51767 0)
(7.02884 0.631587 0)
(6.90744 0.472357 0)
(6.84936 0.586719 0)
(6.80425 0.319094 0)
(6.7793 0.472498 0)
(6.69463 0.121383 0)
(6.65815 0.386879 0)
(6.58837 -0.029737 0)
(6.54377 0.368219 0)
(6.44591 -0.129575 0)
(6.44476 0.425522 0)
(6.39397 -0.149863 0)
(6.29343 0.542743 0)
(6.43098 -0.123657 0)
(6.13497 0.660672 0)
(6.44803 -0.0945131 0)
(5.99179 0.719713 0)
(6.39041 -0.11087 0)
(5.87442 0.753754 0)
(6.3727 -0.177099 0)
(5.83982 0.735878 0)
(6.4008 -0.204039 0)
(5.75582 0.832054 0)
(6.37095 -0.138909 0)
(5.63986 0.954887 0)
(6.32506 -0.106838 0)
(5.54261 1.02206 0)
(6.30029 -0.136156 0)
(5.48076 1.02106 0)
(6.29043 -0.213738 0)
(5.44596 0.956298 0)
(6.29976 -0.329169 0)
(5.45918 0.861898 0)
(6.33502 -0.404501 0)
(5.51882 0.805685 0)
(6.37837 -0.400225 0)
(5.61115 0.782538 0)
(6.39461 -0.342102 0)
(5.71935 0.778443 0)
(6.34528 -0.220084 0)
(5.80332 0.834013 0)
(6.21042 -0.014327 0)
(5.81479 0.975499 0)
(6.00877 0.257121 0)
(5.75417 1.20667 0)
(5.83323 0.578423 0)
(5.71471 1.57571 0)
(5.89045 1.01021 0)
(5.7852 2.21463 0)
(6.199 1.73681 0)
(5.63317 3.29159 0)
(6.11692 2.62845 0)
(4.94051 4.90655 0)
(8.33082 4.36368 0)
(6.0137 9.76293 0)
(7.89608 -0.34669 0)
(7.92022 -0.359293 0)
(8.07731 -0.424792 0)
(8.20901 -0.532584 0)
(8.38681 -0.644931 0)
(8.52144 -0.771353 0)
(8.69527 -0.859797 0)
(8.78206 -0.939007 0)
(8.95968 -1.04856 0)
(9.02547 -1.0814 0)
(9.17551 -1.15589 0)
(9.33732 -1.21033 0)
(9.57222 -1.33029 0)
(9.86483 -1.48121 0)
(10.0829 -1.59392 0)
(10.2953 -1.74457 0)
(10.4937 -1.94327 0)
(10.606 -2.10934 0)
(10.689 -2.25648 0)
(10.7062 -2.36568 0)
(10.7064 -2.44062 0)
(10.7141 -2.49905 0)
(10.6949 -2.53357 0)
(10.6336 -2.52499 0)
(10.4583 -2.46156 0)
(10.2164 -2.32694 0)
(9.91356 -2.16183 0)
(9.61096 -1.95425 0)
(9.26811 -1.74458 0)
(9.00313 -1.52679 0)
(8.6854 -1.32617 0)
(8.48054 -1.12097 0)
(8.1866 -0.932413 0)
(8.04413 -0.734418 0)
(7.7668 -0.548546 0)
(7.70638 -0.336593 0)
(7.47621 -0.177643 0)
(7.49864 0.0419632 0)
(7.28774 0.154921 0)
(7.33407 0.369901 0)
(7.13161 0.415702 0)
(7.16362 0.59658 0)
(6.95396 0.578865 0)
(7.02595 0.67767 0)
(6.85541 0.542249 0)
(6.87373 0.6621 0)
(6.75269 0.502966 0)
(6.72504 0.608925 0)
(6.66313 0.327781 0)
(6.69403 0.498029 0)
(6.58496 0.148407 0)
(6.54356 0.412107 0)
(6.49375 -0.0202761 0)
(6.43215 0.402338 0)
(6.38399 -0.132138 0)
(6.33684 0.462241 0)
(6.30386 -0.156913 0)
(6.24216 0.577024 0)
(6.29365 -0.134343 0)
(6.10284 0.697862 0)
(6.33962 -0.109476 0)
(5.95122 0.777368 0)
(6.33032 -0.139006 0)
(5.86446 0.808825 0)
(6.3424 -0.226987 0)
(5.83147 0.791129 0)
(6.36016 -0.2515 0)
(5.74522 0.90455 0)
(6.33222 -0.18904 0)
(5.6378 1.03508 0)
(6.31163 -0.169948 0)
(5.55865 1.10965 0)
(6.31538 -0.215479 0)
(5.50438 1.11694 0)
(6.34102 -0.314267 0)
(5.47331 1.06187 0)
(6.39775 -0.457032 0)
(5.48177 0.975637 0)
(6.50058 -0.56247 0)
(5.53661 0.927642 0)
(6.63709 -0.586639 0)
(5.64537 0.914428 0)
(6.77629 -0.550894 0)
(5.80892 0.931055 0)
(6.88351 -0.433963 0)
(5.98377 1.01139 0)
(6.9241 -0.204251 0)
(6.08815 1.17808 0)
(6.84468 0.111315 0)
(6.02922 1.41574 0)
(6.61437 0.450133 0)
(5.79965 1.7417 0)
(6.42583 0.794594 0)
(5.68182 2.25656 0)
(6.92832 1.31156 0)
(5.97207 3.37243 0)
(8.26666 2.44005 0)
(5.19216 5.29095 0)
(9.06908 3.68103 0)
(6.94581 9.82922 0)
(9.8557 -0.373855 0)
(9.79701 -0.423982 0)
(9.87767 -0.488157 0)
(9.96351 -0.579861 0)
(10.0675 -0.682563 0)
(10.1318 -0.794755 0)
(10.2005 -0.893891 0)
(10.2237 -0.972032 0)
(10.2805 -1.06899 0)
(10.3128 -1.11828 0)
(10.3955 -1.19382 0)
(10.5108 -1.27046 0)
(10.6406 -1.39097 0)
(10.8036 -1.54872 0)
(10.9188 -1.66974 0)
(11.0134 -1.80417 0)
(11.0922 -1.97149 0)
(11.1173 -2.12036 0)
(11.1156 -2.24918 0)
(11.05 -2.34393 0)
(11.0014 -2.42326 0)
(10.9483 -2.48546 0)
(10.8376 -2.50119 0)
(10.656 -2.45672 0)
(10.3775 -2.35557 0)
(10.062 -2.19878 0)
(9.70866 -2.02077 0)
(9.36089 -1.81022 0)
(9.00357 -1.60919 0)
(8.70886 -1.40017 0)
(8.37964 -1.20998 0)
(8.14909 -1.01352 0)
(7.85188 -0.835562 0)
(7.69535 -0.647534 0)
(7.43405 -0.472164 0)
(7.38324 -0.283435 0)
(7.17655 -0.132101 0)
(7.21017 0.0754085 0)
(7.00306 0.184598 0)
(7.07125 0.403203 0)
(6.87735 0.440408 0)
(6.91407 0.638955 0)
(6.74878 0.599827 0)
(6.80792 0.707994 0)
(6.66982 0.56438 0)
(6.66849 0.697722 0)
(6.56198 0.516965 0)
(6.5803 0.637799 0)
(6.48982 0.325929 0)
(6.54567 0.522158 0)
(6.44629 0.163028 0)
(6.42437 0.456036 0)
(6.36501 -0.00169898 0)
(6.28363 0.449443 0)
(6.29922 -0.123966 0)
(6.15942 0.519105 0)
(6.22302 -0.177784 0)
(6.08085 0.631602 0)
(6.18573 -0.165334 0)
(5.99962 0.742489 0)
(6.21249 -0.141226 0)
(5.88822 0.829731 0)
(6.26678 -0.182619 0)
(5.82246 0.867225 0)
(6.32232 -0.284908 0)
(5.76655 0.87036 0)
(6.32852 -0.315039 0)
(5.68053 1.00251 0)
(6.31566 -0.258898 0)
(5.57465 1.13763 0)
(6.31323 -0.257607 0)
(5.49893 1.21468 0)
(6.3409 -0.321675 0)
(5.44274 1.23422 0)
(6.39428 -0.441194 0)
(5.40353 1.19284 0)
(6.48611 -0.606234 0)
(5.38631 1.12012 0)
(6.6303 -0.738465 0)
(5.40495 1.08662 0)
(6.8228 -0.796269 0)
(5.47694 1.09136 0)
(7.05275 -0.800828 0)
(5.62181 1.12186 0)
(7.31544 -0.726482 0)
(5.84569 1.21322 0)
(7.59538 -0.521914 0)
(6.12586 1.40789 0)
(7.81461 -0.179681 0)
(6.35416 1.72196 0)
(7.81199 0.247681 0)
(6.28963 2.14559 0)
(7.41296 0.663279 0)
(5.6997 2.72787 0)
(7.04807 0.921685 0)
(5.06345 3.54767 0)
(8.82917 1.74565 0)
(5.79922 5.31902 0)
(11.1498 2.50121 0)
(8.44349 9.14343 0)
(11.3633 -0.331604 0)
(11.3274 -0.390569 0)
(11.3338 -0.485603 0)
(11.3573 -0.588543 0)
(11.4006 -0.694197 0)
(11.4173 -0.799514 0)
(11.4216 -0.90042 0)
(11.4005 -0.978033 0)
(11.3952 -1.06739 0)
(11.4001 -1.13708 0)
(11.4327 -1.21903 0)
(11.477 -1.30575 0)
(11.5132 -1.41588 0)
(11.5554 -1.56177 0)
(11.5686 -1.69125 0)
(11.5608 -1.81892 0)
(11.5318 -1.9651 0)
(11.4747 -2.10559 0)
(11.3901 -2.22485 0)
(11.2765 -2.31779 0)
(11.1869 -2.39608 0)
(11.0528 -2.44223 0)
(10.8362 -2.42316 0)
(10.547 -2.34515 0)
(10.1812 -2.21584 0)
(9.80738 -2.04922 0)
(9.40897 -1.86603 0)
(9.03216 -1.66121 0)
(8.65789 -1.46637 0)
(8.33724 -1.26744 0)
(7.99537 -1.08729 0)
(7.74928 -0.902518 0)
(7.45028 -0.738174 0)
(7.29216 -0.566255 0)
(7.04117 -0.403237 0)
(7.00696 -0.239161 0)
(6.8207 -0.0902911 0)
(6.86157 0.101997 0)
(6.66698 0.216128 0)
(6.75324 0.427983 0)
(6.568 0.464035 0)
(6.62428 0.670437 0)
(6.49125 0.612031 0)
(6.54981 0.729118 0)
(6.4423 0.585871 0)
(6.43439 0.727083 0)
(6.32628 0.525401 0)
(6.40426 0.654193 0)
(6.2877 0.326372 0)
(6.40052 0.549204 0)
(6.23761 0.166094 0)
(6.30063 0.48021 0)
(6.17368 0.00695635 0)
(6.17464 0.468945 0)
(6.11904 -0.122167 0)
(6.04453 0.549698 0)
(6.07444 -0.181741 0)
(5.93579 0.672842 0)
(6.0602 -0.18899 0)
(5.88887 0.779106 0)
(6.08571 -0.170654 0)
(5.85728 0.854398 0)
(6.15754 -0.215236 0)
(5.81958 0.892074 0)
(6.23253 -0.322025 0)
(5.74208 0.922485 0)
(6.24836 -0.361919 0)
(5.65747 1.06923 0)
(6.24757 -0.314127 0)
(5.57164 1.20799 0)
(6.25927 -0.326452 0)
(5.51273 1.28712 0)
(6.30272 -0.405731 0)
(5.47442 1.31286 0)
(6.37123 -0.541278 0)
(5.44063 1.27813 0)
(6.47458 -0.725549 0)
(5.41849 1.21232 0)
(6.61636 -0.880462 0)
(5.41738 1.18937 0)
(6.79373 -0.968704 0)
(5.44818 1.21449 0)
(7.02318 -1.01504 0)
(5.5191 1.27118 0)
(7.35303 -1.00726 0)
(5.65846 1.38383 0)
(7.85511 -0.902446 0)
(5.93097 1.58249 0)
(8.59337 -0.654674 0)
(6.34535 1.87761 0)
(9.5458 -0.236415 0)
(6.73211 2.30582 0)
(10.4996 0.385623 0)
(6.58626 2.96625 0)
(10.9091 1.14042 0)
(5.32314 3.85278 0)
(10.3869 1.54736 0)
(5.0758 5.8227 0)
(10.08 1.42044 0)
(9.00208 8.48151 0)
(12.4056 -0.335854 0)
(12.3766 -0.436191 0)
(12.3572 -0.53205 0)
(12.3474 -0.618142 0)
(12.3506 -0.706286 0)
(12.3267 -0.792325 0)
(12.2839 -0.884481 0)
(12.2294 -0.964659 0)
(12.1881 -1.05422 0)
(12.1516 -1.13613 0)
(12.1246 -1.22067 0)
(12.0929 -1.30829 0)
(12.059 -1.40879 0)
(12.0205 -1.53605 0)
(11.9616 -1.66739 0)
(11.8842 -1.79635 0)
(11.7832 -1.93355 0)
(11.67 -2.06625 0)
(11.5428 -2.18217 0)
(11.4064 -2.27399 0)
(11.2566 -2.33915 0)
(11.0136 -2.35285 0)
(10.6957 -2.29921 0)
(10.3113 -2.1942 0)
(9.88554 -2.04844 0)
(9.47133 -1.87594 0)
(9.04801 -1.69239 0)
(8.64702 -1.49407 0)
(8.2569 -1.31022 0)
(7.90485 -1.12407 0)
(7.55901 -0.957993 0)
(7.28793 -0.785136 0)
(6.99722 -0.640367 0)
(6.83269 -0.483846 0)
(6.60403 -0.34625 0)
(6.58565 -0.202605 0)
(6.42279 -0.0543596 0)
(6.46821 0.126854 0)
(6.29661 0.24248 0)
(6.39019 0.445015 0)
(6.21866 0.48284 0)
(6.29737 0.690091 0)
(6.18973 0.612096 0)
(6.25924 0.747078 0)
(6.16418 0.597604 0)
(6.16614 0.758536 0)
(6.08075 0.508129 0)
(6.18931 0.684231 0)
(6.07281 0.293585 0)
(6.19362 0.582057 0)
(6.06708 0.16224 0)
(6.13377 0.528967 0)
(5.98829 0.0153066 0)
(6.04806 0.515643 0)
(5.91285 -0.113625 0)
(5.92474 0.580643 0)
(5.89515 -0.188117 0)
(5.80873 0.703787 0)
(5.93741 -0.220293 0)
(5.74376 0.818601 0)
(6.01806 -0.216737 0)
(5.74361 0.891838 0)
(6.08102 -0.256682 0)
(5.73563 0.932427 0)
(6.14933 -0.367571 0)
(5.65848 0.986444 0)
(6.18799 -0.417402 0)
(5.58266 1.153 0)
(6.20941 -0.385631 0)
(5.51338 1.29628 0)
(6.24813 -0.4134 0)
(5.464 1.37961 0)
(6.31023 -0.507577 0)
(5.42635 1.41176 0)
(6.40235 -0.660216 0)
(5.39324 1.38544 0)
(6.52568 -0.86135 0)
(5.3689 1.32929 0)
(6.67232 -1.03274 0)
(5.35631 1.32092 0)
(6.82802 -1.14016 0)
(5.3492 1.36582 0)
(7.02003 -1.20215 0)
(5.32147 1.45072 0)
(7.30291 -1.208 0)
(5.26394 1.6039 0)
(7.76041 -1.13828 0)
(5.2072 1.84143 0)
(8.53729 -0.976605 0)
(5.22564 2.14114 0)
(9.79691 -0.699625 0)
(5.49485 2.53397 0)
(11.5517 -0.240111 0)
(6.15015 3.1118 0)
(13.2569 0.395145 0)
(7.02349 4.1261 0)
(13.4454 0.865207 0)
(7.82613 5.95523 0)
(11.011 1.3158 0)
(8.99664 7.66503 0)
(12.9194 -0.354761 0)
(12.9045 -0.481421 0)
(12.8967 -0.550693 0)
(12.8814 -0.6046 0)
(12.8497 -0.674025 0)
(12.7937 -0.754342 0)
(12.7204 -0.847156 0)
(12.6468 -0.94003 0)
(12.5755 -1.03261 0)
(12.499 -1.11901 0)
(12.4254 -1.20239 0)
(12.3458 -1.28895 0)
(12.2724 -1.3866 0)
(12.1922 -1.50315 0)
(12.0995 -1.63299 0)
(11.9944 -1.76468 0)
(11.8734 -1.89444 0)
(11.7427 -2.0179 0)
(11.5947 -2.12946 0)
(11.4148 -2.21263 0)
(11.1677 -2.24879 0)
(10.8194 -2.22291 0)
(10.417 -2.13644 0)
(9.96944 -2.01411 0)
(9.50834 -1.85997 0)
(9.07423 -1.69019 0)
(8.62325 -1.51221 0)
(8.20301 -1.32792 0)
(7.79181 -1.15542 0)
(7.4264 -0.983861 0)
(7.07948 -0.829247 0)
(6.79561 -0.672192 0)
(6.51005 -0.543121 0)
(6.33264 -0.40451 0)
(6.13287 -0.295646 0)
(6.12026 -0.170272 0)
(5.97327 -0.0228235 0)
(6.03159 0.142509 0)
(5.87946 0.262931 0)
(5.99088 0.454814 0)
(5.82614 0.498601 0)
(5.94173 0.700468 0)
(5.84682 0.607161 0)
(5.93787 0.755195 0)
(5.86102 0.611905 0)
(5.87002 0.780189 0)
(5.81147 0.48576 0)
(5.95321 0.698681 0)
(5.86823 0.2905 0)
(5.96756 0.601979 0)
(5.84235 0.137436 0)
(5.95585 0.55188 0)
(5.77471 0.00155115 0)
(5.926 0.538542 0)
(5.71139 -0.10816 0)
(5.83325 0.608916 0)
(5.67314 -0.185835 0)
(5.73163 0.711851 0)
(5.75 -0.237363 0)
(5.65711 0.815923 0)
(5.89025 -0.254914 0)
(5.64184 0.904802 0)
(5.97277 -0.294391 0)
(5.66603 0.953711 0)
(6.02846 -0.392379 0)
(5.61508 1.01867 0)
(6.06232 -0.454365 0)
(5.55875 1.1997 0)
(6.11316 -0.436378 0)
(5.51049 1.34834 0)
(6.1673 -0.474648 0)
(5.48188 1.4328 0)
(6.24369 -0.580603 0)
(5.46119 1.46755 0)
(6.3472 -0.746606 0)
(5.4484 1.44482 0)
(6.47362 -0.961841 0)
(5.43941 1.3951 0)
(6.59926 -1.15086 0)
(5.44598 1.39699 0)
(6.70843 -1.27534 0)
(5.4493 1.44658 0)
(6.83218 -1.35599 0)
(5.42456 1.52716 0)
(6.99071 -1.3828 0)
(5.36122 1.66841 0)
(7.19752 -1.33113 0)
(5.25484 1.90203 0)
(7.47376 -1.20351 0)
(5.10347 2.25855 0)
(7.87024 -1.01964 0)
(5.00325 2.78765 0)
(8.55732 -0.75684 0)
(5.37176 3.50739 0)
(9.77095 -0.371498 0)
(6.78672 4.58314 0)
(11.4203 0.177513 0)
(8.74296 6.07977 0)
(12.5264 1.70705 0)
(9.80588 6.8272 0)
(12.9892 -0.330383 0)
(12.9898 -0.466335 0)
(13.0037 -0.546657 0)
(12.9843 -0.599278 0)
(12.9356 -0.663729 0)
(12.8717 -0.742695 0)
(12.7914 -0.832111 0)
(12.7095 -0.925627 0)
(12.6178 -1.01157 0)
(12.5217 -1.09392 0)
(12.4287 -1.17497 0)
(12.3347 -1.25971 0)
(12.2509 -1.35867 0)
(12.1657 -1.47027 0)
(12.0753 -1.59655 0)
(11.9755 -1.72578 0)
(11.8568 -1.84873 0)
(11.7101 -1.96189 0)
(11.5208 -2.05813 0)
(11.2619 -2.11185 0)
(10.9169 -2.10723 0)
(10.4831 -2.04212 0)
(10.0249 -1.93745 0)
(9.53065 -1.81208 0)
(9.05132 -1.6626 0)
(8.58928 -1.49805 0)
(8.11607 -1.32916 0)
(7.68262 -1.15641 0)
(7.26863 -0.993384 0)
(6.89998 -0.831565 0)
(6.55699 -0.688678 0)
(6.26831 -0.553067 0)
(5.99753 -0.446679 0)
(5.81304 -0.333684 0)
(5.65439 -0.254415 0)
(5.63082 -0.13792 0)
(5.50307 0.000769369 0)
(5.57336 0.155137 0)
(5.43712 0.272329 0)
(5.56825 0.454439 0)
(5.41438 0.501106 0)
(5.56883 0.694596 0)
(5.46809 0.588806 0)
(5.6012 0.75356 0)
(5.51091 0.606959 0)
(5.57272 0.787105 0)
(5.5391 0.440933 0)
(5.6888 0.707083 0)
(5.62111 0.227536 0)
(5.72083 0.640011 0)
(5.65316 0.112062 0)
(5.73876 0.599586 0)
(5.60551 -0.0118953 0)
(5.73254 0.584923 0)
(5.52712 -0.120259 0)
(5.68481 0.646176 0)
(5.50619 -0.201644 0)
(5.62843 0.736448 0)
(5.59865 -0.258176 0)
(5.58343 0.830186 0)
(5.76132 -0.280917 0)
(5.53748 0.925865 0)
(5.8679 -0.332692 0)
(5.55202 0.984542 0)
(5.92846 -0.423381 0)
(5.5267 1.06089 0)
(5.96419 -0.494197 0)
(5.4937 1.25246 0)
(6.05318 -0.49648 0)
(5.46428 1.41175 0)
(6.12845 -0.548287 0)
(5.44913 1.49915 0)
(6.22957 -0.664247 0)
(5.44181 1.5364 0)
(6.35413 -0.842029 0)
(5.44009 1.51871 0)
(6.49466 -1.069 0)
(5.43937 1.48157 0)
(6.61187 -1.27914 0)
(5.45041 1.50211 0)
(6.71199 -1.42304 0)
(5.44077 1.57276 0)
(6.83149 -1.52653 0)
(5.40266 1.67428 0)
(6.98245 -1.58441 0)
(5.34478 1.82433 0)
(7.17586 -1.57005 0)
(5.30222 2.04454 0)
(7.39924 -1.48338 0)
(5.3306 2.36316 0)
(7.59048 -1.34818 0)
(5.50282 2.83937 0)
(7.65107 -1.21235 0)
(5.91573 3.61908 0)
(7.73416 -1.10277 0)
(6.72707 4.84607 0)
(8.92484 -0.514121 0)
(8.05111 5.95392 0)
(11.5444 1.57318 0)
(10.4651 6.20634 0)
(12.9367 -0.321504 0)
(12.9427 -0.423701 0)
(12.9707 -0.498053 0)
(12.9608 -0.554966 0)
(12.9163 -0.619582 0)
(12.8477 -0.696953 0)
(12.7561 -0.782862 0)
(12.6629 -0.875679 0)
(12.5579 -0.960814 0)
(12.4613 -1.04703 0)
(12.3687 -1.13379 0)
(12.2843 -1.22373 0)
(12.2053 -1.32519 0)
(12.1297 -1.43631 0)
(12.0381 -1.5554 0)
(11.9307 -1.67861 0)
(11.7819 -1.79121 0)
(11.5864 -1.88648 0)
(11.3173 -1.94808 0)
(10.965 -1.96136 0)
(10.5222 -1.91864 0)
(10.0233 -1.83241 0)
(9.51692 -1.72524 0)
(8.98987 -1.60786 0)
(8.49078 -1.46166 0)
(8.00251 -1.30173 0)
(7.51728 -1.14134 0)
(7.08578 -0.980357 0)
(6.67197 -0.827389 0)
(6.30461 -0.682071 0)
(5.95984 -0.556689 0)
(5.67585 -0.44111 0)
(5.42316 -0.350937 0)
(5.25431 -0.270773 0)
(5.1323 -0.216559 0)
(5.10669 -0.10974 0)
(5.01038 0.0198424 0)
(5.08981 0.162855 0)
(4.96764 0.278132 0)
(5.12843 0.451355 0)
(4.99004 0.501441 0)
(5.1923 0.684928 0)
(5.0736 0.572137 0)
(5.25535 0.750307 0)
(5.16196 0.605852 0)
(5.26532 0.781728 0)
(5.2521 0.393552 0)
(5.44082 0.720551 0)
(5.38434 0.22162 0)
(5.47123 0.63843 0)
(5.40942 0.0703757 0)
(5.52456 0.6024 0)
(5.40132 -0.0437762 0)
(5.56411 0.608117 0)
(5.3522 -0.121942 0)
(5.52664 0.669019 0)
(5.33574 -0.209204 0)
(5.52128 0.741236 0)
(5.40652 -0.272739 0)
(5.52292 0.822276 0)
(5.55855 -0.290929 0)
(5.48371 0.915305 0)
(5.68346 -0.343004 0)
(5.46825 0.979272 0)
(5.76378 -0.42956 0)
(5.45965 1.06704 0)
(5.81003 -0.503513 0)
(5.466 1.25581 0)
(5.92008 -0.518782 0)
(5.46757 1.42636 0)
(6.01813 -0.580471 0)
(5.48015 1.51427 0)
(6.13553 -0.704847 0)
(5.49943 1.55483 0)
(6.26829 -0.89218 0)
(5.52022 1.54039 0)
(6.4003 -1.13161 0)
(5.5478 1.51852 0)
(6.48609 -1.35459 0)
(5.57267 1.5557 0)
(6.55668 -1.51162 0)
(5.56513 1.63918 0)
(6.63796 -1.63817 0)
(5.52601 1.75801 0)
(6.73194 -1.73092 0)
(5.46453 1.93725 0)
(6.84187 -1.76383 0)
(5.41682 2.20634 0)
(6.96861 -1.73453 0)
(5.43714 2.58446 0)
(7.11744 -1.67605 0)
(5.62538 3.09629 0)
(7.3124 -1.6177 0)
(6.12059 3.82921 0)
(7.60536 -1.428 0)
(6.92596 4.7701 0)
(8.2187 -0.720531 0)
(7.83901 5.52689 0)
(9.65659 1.11452 0)
(10.4196 5.5026 0)
(12.8899 -0.295934 0)
(12.8939 -0.371704 0)
(12.9245 -0.445343 0)
(12.9122 -0.515978 0)
(12.8635 -0.591223 0)
(12.7787 -0.671606 0)
(12.6796 -0.756072 0)
(12.5826 -0.846529 0)
(12.4905 -0.934062 0)
(12.4056 -1.02122 0)
(12.3287 -1.11068 0)
(12.2499 -1.20015 0)
(12.1692 -1.29795 0)
(12.0734 -1.40081 0)
(11.9505 -1.50738 0)
(11.791 -1.61357 0)
(11.5782 -1.70674 0)
(11.2951 -1.76959 0)
(10.9277 -1.79242 0)
(10.4727 -1.76948 0)
(9.95298 -1.7024 0)
(9.41284 -1.60579 0)
(8.88027 -1.50302 0)
(8.33693 -1.39022 0)
(7.82636 -1.24599 0)
(7.3212 -1.09539 0)
(6.83395 -0.949988 0)
(6.40199 -0.799961 0)
(5.99348 -0.662071 0)
(5.63975 -0.537953 0)
(5.31596 -0.433386 0)
(5.04636 -0.338457 0)
(4.81927 -0.269655 0)
(4.67185 -0.220128 0)
(4.57462 -0.18752 0)
(4.54924 -0.0919889 0)
(4.49347 0.0238299 0)
(4.56477 0.158914 0)
(4.46627 0.268273 0)
(4.64963 0.430412 0)
(4.52207 0.484925 0)
(4.7785 0.655644 0)
(4.64123 0.540124 0)
(4.87548 0.728771 0)
(4.76129 0.577998 0)
(4.96071 0.751148 0)
(4.91623 0.333654 0)
(5.15489 0.701079 0)
(5.04146 0.141668 0)
(5.23484 0.666208 0)
(5.1492 0.0438516 0)
(5.28591 0.636879 0)
(5.18803 -0.0608757 0)
(5.32154 0.630828 0)
(5.15432 -0.147269 0)
(5.33141 0.687261 0)
(5.1341 -0.242626 0)
(5.36794 0.748941 0)
(5.19862 -0.298204 0)
(5.40807 0.819443 0)
(5.34174 -0.311605 0)
(5.3968 0.91037 0)
(5.48237 -0.3577 0)
(5.38008 0.976795 0)
(5.59813 -0.438973 0)
(5.39024 1.07355 0)
(5.68017 -0.517049 0)
(5.42525 1.25749 0)
(5.81748 -0.53805 0)
(5.4463 1.44279 0)
(5.95113 -0.605159 0)
(5.4802 1.53297 0)
(6.08793 -0.72976 0)
(5.52017 1.56973 0)
(6.23868 -0.917494 0)
(5.56259 1.55815 0)
(6.37431 -1.16488 0)
(5.61357 1.55223 0)
(6.45379 -1.40333 0)
(5.6393 1.60787 0)
(6.52736 -1.59191 0)
(5.62887 1.71756 0)
(6.6125 -1.75276 0)
(5.59326 1.86879 0)
(6.70539 -1.88173 0)
(5.55667 2.07556 0)
(6.80635 -1.96056 0)
(5.56995 2.36348 0)
(6.90739 -1.98823 0)
(5.68936 2.7516 0)
(6.99524 -1.98131 0)
(5.97434 3.25792 0)
(7.08146 -1.89847 0)
(6.46568 3.89013 0)
(7.25947 -1.56599 0)
(7.12723 4.62587 0)
(7.72565 -0.670628 0)
(7.99373 4.99866 0)
(8.58917 0.943023 0)
(9.95456 4.68079 0)
(12.865 -0.275271 0)
(12.8693 -0.332901 0)
(12.9013 -0.404443 0)
(12.8943 -0.482131 0)
(12.8456 -0.561815 0)
(12.7659 -0.64541 0)
(12.672 -0.727178 0)
(12.5819 -0.812765 0)
(12.4935 -0.896691 0)
(12.4026 -0.979525 0)
(12.3088 -1.06459 0)
(12.2032 -1.14934 0)
(12.0823 -1.23761 0)
(11.9354 -1.33033 0)
(11.7483 -1.42045 0)
(11.5102 -1.50467 0)
(11.2038 -1.56889 0)
(10.816 -1.60002 0)
(10.3392 -1.59045 0)
(9.80198 -1.54506 0)
(9.23654 -1.46782 0)
(8.67648 -1.37394 0)
(8.12773 -1.28214 0)
(7.57783 -1.17439 0)
(7.0721 -1.03262 0)
(6.56916 -0.890387 0)
(6.08251 -0.758524 0)
(5.66132 -0.62468 0)
(5.27065 -0.504547 0)
(4.9491 -0.39546 0)
(4.65493 -0.306228 0)
(4.41886 -0.234503 0)
(4.22558 -0.186705 0)
(4.10378 -0.168845 0)
(4.03194 -0.151651 0)
(4.01316 -0.0722333 0)
(3.99839 0.035104 0)
(4.0613 0.15893 0)
(3.99644 0.261566 0)
(4.19814 0.405402 0)
(4.08332 0.465443 0)
(4.37787 0.626494 0)
(4.22798 0.519109 0)
(4.50741 0.705662 0)
(4.3734 0.55187 0)
(4.67266 0.712604 0)
(4.55454 0.279764 0)
(4.92982 0.711135 0)
(4.70304 0.130671 0)
(4.98642 0.645284 0)
(4.82371 -0.00766181 0)
(5.07349 0.615016 0)
(4.91498 -0.104185 0)
(5.15456 0.64434 0)
(4.90219 -0.147937 0)
(5.17341 0.692995 0)
(4.88505 -0.243849 0)
(5.20399 0.72428 0)
(4.92721 -0.317361 0)
(5.29508 0.784719 0)
(5.06575 -0.3172 0)
(5.32696 0.873047 0)
(5.22637 -0.343543 0)
(5.32103 0.934892 0)
(5.36598 -0.422238 0)
(5.34206 1.03264 0)
(5.48336 -0.505317 0)
(5.39903 1.20859 0)
(5.63526 -0.528455 0)
(5.46455 1.3981 0)
(5.80188 -0.602197 0)
(5.53417 1.49003 0)
(5.95502 -0.721083 0)
(5.60743 1.52655 0)
(6.1114 -0.898691 0)
(5.68276 1.51977 0)
(6.22844 -1.13713 0)
(5.76153 1.5337 0)
(6.2847 -1.36077 0)
(5.79158 1.60884 0)
(6.34016 -1.55235 0)
(5.78178 1.7309 0)
(6.40707 -1.73811 0)
(5.74749 1.90057 0)
(6.47872 -1.91336 0)
(5.71241 2.13786 0)
(6.56326 -2.05387 0)
(5.72683 2.46757 0)
(6.66618 -2.12769 0)
(5.84884 2.88009 0)
(6.80551 -2.12963 0)
(6.147 3.34776 0)
(7.00469 -1.98823 0)
(6.64986 3.88997 0)
(7.31508 -1.53472 0)
(7.31475 4.34413 0)
(7.84248 -0.56976 0)
(8.19567 4.35617 0)
(8.77599 1.03 0)
(9.67264 3.80489 0)
(12.8591 -0.259781 0)
(12.8584 -0.296656 0)
(12.8831 -0.357319 0)
(12.867 -0.433025 0)
(12.8124 -0.516878 0)
(12.7288 -0.606049 0)
(12.6296 -0.691514 0)
(12.5248 -0.774267 0)
(12.4157 -0.856727 0)
(12.2938 -0.934433 0)
(12.1624 -1.01396 0)
(12.0082 -1.0898 0)
(11.8287 -1.16606 0)
(11.6088 -1.24244 0)
(11.3372 -1.31188 0)
(10.9978 -1.36662 0)
(10.5853 -1.39834 0)
(10.0892 -1.39608 0)
(9.53086 -1.36165 0)
(8.94593 -1.3041 0)
(8.3497 -1.2261 0)
(7.76861 -1.14053 0)
(7.19602 -1.05983 0)
(6.643 -0.959167 0)
(6.1605 -0.82363 0)
(5.67488 -0.689476 0)
(5.20901 -0.577689 0)
(4.8241 -0.46471 0)
(4.47164 -0.369201 0)
(4.18753 -0.281934 0)
(3.93073 -0.212971 0)
(3.73504 -0.158672 0)
(3.57542 -0.135168 0)
(3.48922 -0.142189 0)
(3.442 -0.13626 0)
(3.43414 -0.0720249 0)
(3.45141 0.0277197 0)
(3.51266 0.148296 0)
(3.49826 0.241583 0)
(3.69293 0.369528 0)
(3.62156 0.435174 0)
(3.93971 0.580263 0)
(3.80334 0.486883 0)
(4.12681 0.662823 0)
(3.9565 0.505919 0)
(4.37776 0.650838 0)
(4.15263 0.234977 0)
(4.64524 0.668307 0)
(4.27388 0.0665424 0)
(4.77863 0.652321 0)
(4.46305 -0.0146933 0)
(4.86173 0.621162 0)
(4.59699 -0.10608 0)
(4.93462 0.63703 0)
(4.59484 -0.167339 0)
(4.9934 0.688324 0)
(4.59119 -0.25658 0)
(5.05232 0.717459 0)
(4.64715 -0.328443 0)
(5.14834 0.754459 0)
(4.79747 -0.326042 0)
(5.21389 0.836805 0)
(4.97629 -0.345203 0)
(5.2393 0.894216 0)
(5.13486 -0.416068 0)
(5.2934 0.985432 0)
(5.28522 -0.491675 0)
(5.36511 1.15627 0)
(5.4595 -0.514015 0)
(5.47509 1.33715 0)
(5.67527 -0.584244 0)
(5.57343 1.43111 0)
(5.86012 -0.701207 0)
(5.67819 1.46179 0)
(6.03157 -0.874051 0)
(5.78648 1.46039 0)
(6.14554 -1.10581 0)
(5.88206 1.48864 0)