/*--------------------------------*- C++ -*----------------------------------*\
| =========                 |                                                 |
| \\      /  F ield         | OpenFOAM: The Open Source CFD Toolbox           |
|  \\    /   O peration     | Version:  2.4.0                                 |
|   \\  /    A nd           | Web:      www.OpenFOAM.org                      |
|    \\/     M anipulation  |                                                 |
\*---------------------------------------------------------------------------*/
FoamFile
{
    version     2.0;
    format      ascii;
    class       surfaceScalarField;
    location    "0.042";
    object      phi;
}
// * * * * * * * * * * * * * * * * * * * * * * * * * * * * * * * * * * * * * //

dimensions      [0 3 -1 0 0 0 0];

internalField   nonuniform List<scalar> 
8640
(
1.1465e-05
1.3535e-05
7.17191e-06
4.29309e-06
5.91882e-06
1.25309e-06
5.3856e-06
5.33217e-07
5.07062e-06
3.14987e-07
4.96073e-06
1.09888e-07
4.81876e-06
1.41968e-07
4.87882e-06
-6.00626e-08
4.32671e-06
5.52115e-07
-2.85916e-06
7.18586e-06
2.10502e-05
1.74848e-05
1.74401e-05
7.90321e-06
1.55274e-05
3.16582e-06
1.4264e-05
1.79659e-06
1.34464e-05
1.13265e-06
1.30772e-05
4.7905e-07
1.26621e-05
5.57019e-07
1.27136e-05
-1.11514e-07
1.20575e-05
1.20819e-06
-4.03405e-06
1.32324e-05
2.57043e-05
1.67805e-05
2.40793e-05
9.52816e-06
2.26407e-05
4.60439e-06
2.12363e-05
3.20099e-06
2.01683e-05
2.20065e-06
1.96348e-05
1.01262e-06
1.9033e-05
1.15873e-06
1.89884e-05
-6.68682e-08
1.85857e-05
1.61087e-06
-4.03997e-06
1.85916e-05
2.74778e-05
1.43027e-05
2.76941e-05
9.31187e-06
2.74123e-05
4.88616e-06
2.653e-05
4.08338e-06
2.5577e-05
3.15365e-06
2.50702e-05
1.5194e-06
2.44333e-05
1.79557e-06
2.42402e-05
1.26248e-07
2.41812e-05
1.66988e-06
-3.63602e-06
2.37773e-05
2.77081e-05
1.15946e-05
2.8846e-05
8.17394e-06
2.96532e-05
4.07901e-06
2.97063e-05
4.03026e-06
2.92885e-05
3.57148e-06
2.90885e-05
1.71935e-06
2.86428e-05
2.24127e-06
2.83912e-05
3.77887e-07
2.85839e-05
1.47715e-06
-3.18171e-06
2.81296e-05
2.75917e-05
9.00285e-06
2.89074e-05
6.85828e-06
3.00831e-05
2.90328e-06
3.0785e-05
3.3284e-06
3.09835e-05
3.37293e-06
3.12799e-05
1.42302e-06
3.12751e-05
2.24605e-06
3.11651e-05
4.8787e-07
3.16353e-05
1.00696e-06
-2.4844e-06
3.0938e-05
2.74675e-05
6.53531e-06
2.88519e-05
5.4739e-06
2.99833e-05
1.77185e-06
3.0858e-05
2.45375e-06
3.13374e-05
2.89356e-06
3.18695e-05
8.90932e-07
3.22431e-05
1.87242e-06
3.23614e-05
3.69571e-07
3.31145e-05
2.53853e-07
-1.5966e-06
3.22267e-05
2.73529e-05
4.18238e-06
2.89792e-05
3.84765e-06
2.97953e-05
9.55721e-07
3.06469e-05
1.60221e-06
3.1303e-05
2.23738e-06
3.18995e-05
2.94447e-07
3.23457e-05
1.42629e-06
3.26251e-05
9.01185e-08
3.34352e-05
-5.56222e-07
-2.19442e-06
3.4033e-05
2.7297e-05
1.88533e-06
2.899e-05
2.15467e-06
2.96062e-05
3.39508e-07
3.04296e-05
7.78837e-07
3.12487e-05
1.4183e-06
3.18715e-05
-3.28403e-07
3.23217e-05
9.76163e-07
3.27123e-05
-3.00522e-07
3.32928e-05
-1.13676e-06
-2.50784e-06
3.36063e-05
2.72588e-05
-3.7345e-07
2.896e-05
4.53446e-07
2.9561e-05
-2.615e-07
3.03774e-05
-3.75305e-08
3.12049e-05
5.90784e-07
3.18018e-05
-9.2526e-07
3.23269e-05
4.51017e-07
3.27207e-05
-6.94286e-07
3.31721e-05
-1.5882e-06
-2.98808e-06
3.36523e-05
2.72571e-05
-2.63059e-06
2.89741e-05
-1.26356e-06
2.95705e-05
-8.57866e-07
3.03504e-05
-8.17453e-07
3.11979e-05
-2.56666e-07
3.18023e-05
-1.52966e-06
3.23301e-05
-7.67613e-08
3.27179e-05
-1.08216e-06
3.31952e-05
-2.06545e-06
-3.50197e-06
3.37091e-05
2.7283e-05
-4.91364e-06
2.89665e-05
-2.94699e-06
2.95905e-05
-1.48189e-06
3.03948e-05
-1.62178e-06
3.12628e-05
-1.12463e-06
3.18044e-05
-2.07127e-06
3.23406e-05
-6.12935e-07
3.27328e-05
-1.47437e-06
3.31791e-05
-2.51174e-06
-3.56433e-06
3.32414e-05
2.72972e-05
-7.21083e-06
2.89263e-05
-4.57608e-06
2.96646e-05
-2.2202e-06
3.053e-05
-2.48717e-06
3.1372e-05
-1.96661e-06
3.18077e-05
-2.50702e-06
3.23594e-05
-1.16466e-06
3.27392e-05
-1.85412e-06
3.31424e-05
-2.91492e-06
-3.98137e-06
3.35594e-05
2.72945e-05
-9.50531e-06
2.88195e-05
-6.10111e-06
2.98459e-05
-3.2466e-06
3.07445e-05
-3.38573e-06
3.14822e-05
-2.70436e-06
3.17553e-05
-2.78006e-06
3.22525e-05
-1.66193e-06
3.24986e-05
-2.10016e-06
3.26851e-05
-3.10144e-06
-4.11103e-06
3.28148e-05
2.73694e-05
-1.18747e-05
2.88988e-05
-7.63052e-06
3.00433e-05
-4.3911e-06
3.07512e-05
-4.09363e-06
3.11759e-05
-3.12909e-06
3.11411e-05
-2.74522e-06
3.12813e-05
-1.80207e-06
3.11447e-05
-1.96364e-06
3.0877e-05
-2.83367e-06
-3.70593e-06
3.04719e-05
2.75625e-05
-1.44372e-05
2.89298e-05
-8.9979e-06
2.96483e-05
-5.10956e-06
2.96913e-05
-4.13663e-06
2.94268e-05
-2.86456e-06
2.89214e-05
-2.23989e-06
2.86183e-05
-1.49896e-06
2.8176e-05
-1.52133e-06
2.76314e-05
-2.28905e-06
-2.89005e-06
2.68155e-05
2.74069e-05
-1.68441e-05
2.77766e-05
-9.3676e-06
2.73916e-05
-4.72459e-06
2.65145e-05
-3.25944e-06
2.56637e-05
-2.01383e-06
2.4899e-05
-1.47516e-06
2.43898e-05
-9.89784e-07
2.38606e-05
-9.92126e-07
2.31834e-05
-1.61185e-06
-1.86059e-06
2.2154e-05
2.56684e-05
-1.75125e-05
2.41359e-05
-7.83511e-06
2.26204e-05
-3.20909e-06
2.12165e-05
-1.85552e-06
2.02187e-05
-1.01608e-06
1.94772e-05
-7.33592e-07
1.89759e-05
-4.88557e-07
1.84954e-05
-5.11625e-07
1.77941e-05
-9.1051e-07
-9.61226e-07
1.68947e-05
2.10306e-05
-1.3543e-05
1.74715e-05
-4.2761e-06
1.55197e-05
-1.25725e-06
1.42336e-05
-5.69398e-07
1.34796e-05
-2.62087e-07
1.2948e-05
-2.02026e-07
1.25917e-05
-1.32279e-07
1.22346e-05
-1.54504e-07
1.16359e-05
-3.11758e-07
-3.31943e-07
1.10066e-05
1.1457e-05
7.18089e-06
5.92364e-06
5.35424e-06
5.09215e-06
4.89013e-06
4.75785e-06
4.60334e-06
4.29158e-06
3.95964e-06
7.91581e-06
-1.70788e-06
9.77931e-07
7.70485e-06
-9.93115e-07
1.20407e-06
7.83652e-06
-2.16044e-06
2.02878e-06
7.82587e-06
-2.03783e-06
2.04848e-06
7.91339e-06
-7.7196e-07
6.8444e-07
9.11622e-06
1.5651e-06
-2.76793e-06
1.18438e-05
4.25923e-06
-6.98679e-06
1.57588e-05
5.36767e-06
-9.28269e-06
1.7621e-05
8.32212e-06
-1.01843e-05
1.8315e-05
1.02064e-05
-1.09004e-05
2.09101e-05
2.97664e-06
-5.57171e-06
2.37415e-05
-6.63505e-06
3.80365e-06
2.5509e-05
-1.12135e-05
9.44592e-06
2.64188e-05
-1.28811e-05
1.19713e-05
2.71917e-05
-1.68944e-05
1.61216e-05
2.8308e-05
-2.30787e-05
2.19624e-05
3.00414e-05
-2.77827e-05
2.60492e-05
3.17921e-05
-3.07455e-05
2.89948e-05
3.31679e-05
-3.32504e-05
3.18745e-05
3.34938e-05
-3.46076e-05
3.42817e-05
3.33705e-05
-3.48011e-05
3.49244e-05
3.34391e-05
-3.33837e-05
3.33151e-05
3.33641e-05
-3.16434e-05
3.17185e-05
3.42617e-05
-2.82914e-05
2.73938e-05
3.48221e-05
-2.15016e-05
2.09412e-05
3.40426e-05
-1.66442e-05
1.74237e-05
3.3075e-05
-1.23698e-05
1.33375e-05
3.13922e-05
-4.56422e-06
6.24696e-06
2.86377e-05
3.10859e-06
-3.54036e-07
2.57314e-05
7.60339e-06
-4.69708e-06
2.31643e-05
1.02384e-05
-7.67129e-06
2.08563e-05
1.1343e-05
-9.035e-06
1.88622e-05
1.02195e-05
-8.22535e-06
1.7378e-05
7.90799e-06
-6.4238e-06
1.64315e-05
6.2453e-06
-5.29878e-06
1.58395e-05
5.71207e-06
-5.12013e-06
1.53964e-05
5.62226e-06
-5.17915e-06
1.49987e-05
5.35179e-06
-4.95407e-06
1.46342e-05
4.77443e-06
-4.40999e-06
1.43238e-05
4.03612e-06
-3.72573e-06
1.40825e-05
3.29801e-06
-3.0567e-06
1.39093e-05
2.64956e-06
-2.47629e-06
1.37925e-05
2.11581e-06
-1.999e-06
1.37173e-05
1.69129e-06
-1.61612e-06
1.36704e-05
1.35495e-06
-1.30811e-06
1.3642e-05
1.09394e-06
-1.06549e-06
1.3625e-05
8.80288e-07
-8.6335e-07
1.36152e-05
7.25706e-07
-7.15832e-07
1.36102e-05
5.73602e-07
-5.68629e-07
1.3607e-05
5.08117e-07
-5.04918e-07
1.36087e-05
3.51234e-07
-3.52921e-07
1.36058e-05
4.19545e-07
-4.16678e-07
1.36181e-05
1.2669e-07
-1.38997e-07
1.36065e-05
5.07277e-07
-4.95682e-07
1.36492e-05
-2.39765e-07
1.97078e-07
1.36066e-05
9.26429e-07
-8.83861e-07
1.37343e-05
-9.82658e-07
8.55008e-07
1.36073e-05
1.95815e-06
-1.83118e-06
1.39302e-05
-2.34599e-06
2.0231e-06
1.36156e-05
3.78412e-06
-3.46947e-06
1.42489e-05
-4.14723e-06
3.5139e-06
1.36861e-05
5.71776e-06
-5.15498e-06
1.45429e-05
-5.40251e-06
4.54569e-06
1.39731e-05
6.10901e-06
-5.53918e-06
1.4779e-05
-5.34737e-06
4.54145e-06
1.44014e-05
4.83052e-06
-4.45288e-06
1.51833e-05
-4.43865e-06
3.65679e-06
1.46488e-05
3.76784e-06
-3.23341e-06
1.56083e-05
-3.65208e-06
2.69265e-06
1.47637e-05
3.97229e-06
-3.12771e-06
1.58178e-05
-3.58655e-06
2.53242e-06
1.47822e-05
4.85105e-06
-3.81546e-06
1.59685e-05
-3.84273e-06
2.65641e-06
1.48469e-05
5.06955e-06
-3.94788e-06
1.60306e-05
-3.41333e-06
2.22955e-06
1.50327e-05
4.62745e-06
-3.62954e-06
1.61225e-05
-2.34222e-06
1.25245e-06
1.50179e-05
4.79036e-06
-3.68572e-06
1.61877e-05
-1.93222e-06
7.62351e-07
1.49825e-05
5.24166e-06
-4.03639e-06
1.60764e-05
-1.27797e-06
1.84075e-07
1.47969e-05
5.09488e-06
-3.81537e-06
1.56181e-05
3.06102e-07
-1.12735e-06
1.42659e-05
5.64568e-06
-4.29345e-06
1.49216e-05
8.67956e-07
-1.52366e-06
1.35715e-05
6.05548e-06
-4.70542e-06
1.38803e-05
2.57127e-06
-2.88009e-06
1.28264e-05
6.34147e-06
-5.28752e-06
1.33565e-05
3.58346e-06
-4.11357e-06
1.2721e-05
7.11129e-06
-6.47585e-06
1.38425e-05
4.97476e-06
-6.09619e-06
1.35828e-05
8.99292e-06
-8.73326e-06
1.49354e-05
7.65864e-06
-9.01126e-06
1.3601e-05
1.36902e-05
-1.23557e-05
1.38845e-05
1.17302e-05
-1.20137e-05
1.29795e-05
1.91328e-05
-1.82278e-05
1.49143e-05
1.71689e-05
-1.91037e-05
1.17484e-05
3.13563e-05
-2.81904e-05
1.2173e-05
2.99515e-05
-3.03762e-05
5.78728e-05
-5.68879e-05
1.11882e-05
1.37085e-05
-2.18394e-06
1.3525e-05
-8.09686e-07
1.32016e-05
-1.83698e-06
1.34889e-05
-2.32513e-06
1.33545e-05
-6.37565e-07
1.31056e-05
1.81402e-06
1.45421e-05
2.82272e-06
1.7499e-05
2.4107e-06
1.92447e-05
6.57646e-06
2.05864e-05
8.86465e-06
2.27195e-05
8.43619e-07
2.47644e-05
-8.67999e-06
2.60392e-05
-1.24883e-05
2.74897e-05
-1.43316e-05
2.94772e-05
-1.88819e-05
3.10344e-05
-2.46358e-05
3.24019e-05
-2.91502e-05
3.32316e-05
-3.15752e-05
3.31985e-05
-3.32173e-05
3.29048e-05
-3.43138e-05
3.28778e-05
-3.47741e-05
3.36555e-05
-3.41614e-05
3.42198e-05
-3.22077e-05
3.46127e-05
-2.86843e-05
3.49942e-05
-2.18832e-05
3.42541e-05
-1.59041e-05
3.29721e-05
-1.10879e-05
3.1439e-05
-3.03113e-06
2.88833e-05
5.66429e-06
2.58382e-05
1.06485e-05
2.29426e-05
1.31339e-05
2.04386e-05
1.3847e-05
1.84328e-05
1.22253e-05
1.69683e-05
9.37246e-06
1.59962e-05
7.21743e-06
1.53759e-05
6.33239e-06
1.49474e-05
6.05073e-06
1.46091e-05
5.69011e-06
1.43253e-05
5.0582e-06
1.4094e-05
4.26746e-06
1.39173e-05
3.47473e-06
1.37916e-05
2.77526e-06
1.37076e-05
2.19975e-06
1.36547e-05
1.74421e-06
1.3623e-05
1.38666e-06
1.36053e-05
1.11162e-06
1.3596e-05
8.89575e-07
1.35925e-05
7.29268e-07
1.35915e-05
5.7463e-07
1.35933e-05
5.06306e-07
1.35956e-05
3.48915e-07
1.35994e-05
4.15765e-07
1.36063e-05
1.19722e-07
1.36092e-05
5.04429e-07
1.36321e-05
-2.62645e-07
1.36278e-05
9.30703e-07
1.37005e-05
-1.05538e-06
1.36726e-05
1.98601e-06
1.38707e-05
-2.54403e-06
1.37604e-05
3.89442e-06
1.41902e-05
-4.57702e-06
1.38805e-05
6.02741e-06
1.45553e-05
-6.07725e-06
1.40675e-05
6.59677e-06
1.49012e-05
-6.18102e-06
1.42323e-05
5.4994e-06
1.53051e-05
-5.51153e-06
1.42496e-05
4.82338e-06
1.53849e-05
-4.78742e-06
1.42648e-05
5.0924e-06
1.52183e-05
-4.54005e-06
1.40866e-05
5.9828e-06
1.52806e-05
-5.03674e-06
1.40933e-05
6.25685e-06
1.52508e-05
-4.5708e-06
1.44977e-05
5.38052e-06
1.55055e-05
-3.35001e-06
1.45847e-05
5.71118e-06
1.61044e-05
-3.45202e-06
1.49369e-05
6.40919e-06
1.64426e-05
-2.78363e-06
1.54088e-05
6.12867e-06
1.68084e-05
-1.09352e-06
1.54152e-05
7.03893e-06
1.69099e-05
-6.26755e-07
1.53131e-05
7.65222e-06
1.62785e-05
1.6059e-06
1.43649e-05
8.25505e-06
1.4941e-05
3.00735e-06
1.29371e-05
9.11524e-06
1.3593e-05
4.31885e-06
1.21494e-05
1.04365e-05
1.35533e-05
6.25475e-06
1.38651e-05
1.33783e-05
1.54267e-05
1.01686e-05
1.29744e-05
2.15851e-05
1.48651e-05
1.52782e-05
1.49649e-05
3.12565e-05
1.93205e-05
2.55959e-05
5.87397e-05
1.84536e-05
1.8702e-05
-2.29433e-06
1.88667e-05
-9.74342e-07
1.84952e-05
-1.46551e-06
1.87616e-05
-2.59151e-06
1.9142e-05
-1.01798e-06
1.86986e-05
2.25739e-06
1.91182e-05
2.40312e-06
2.08113e-05
7.17576e-07
2.26178e-05
4.76998e-06
2.48118e-05
6.67073e-06
2.70143e-05
-1.35893e-06
2.85279e-05
-1.01936e-05
2.92839e-05
-1.32442e-05
3.05753e-05
-1.5623e-05
3.2433e-05
-2.07397e-05
3.34167e-05
-2.56195e-05
3.37769e-05
-2.95104e-05
3.39104e-05
-3.17087e-05
3.31608e-05
-3.24677e-05
3.23256e-05
-3.34787e-05
3.23998e-05
-3.48483e-05
3.32846e-05
-3.50462e-05
3.41351e-05
-3.30583e-05
3.45285e-05
-2.90778e-05
3.45489e-05
-2.19036e-05
3.36982e-05
-1.50534e-05
3.2276e-05
-9.66561e-06
3.06732e-05
-1.4283e-06
2.83295e-05
8.00798e-06
2.52616e-05
1.37164e-05
2.23534e-05
1.60421e-05
2.00182e-05
1.61821e-05
1.8099e-05
1.41445e-05
1.65803e-05
1.08912e-05
1.55175e-05
8.28015e-06
1.48412e-05
7.00876e-06
1.44183e-05
6.47364e-06
1.41406e-05
5.96773e-06
1.39471e-05
5.2517e-06
1.38091e-05
4.40549e-06
1.37125e-05
3.57138e-06
1.36478e-05
2.83995e-06
1.36069e-05
2.24062e-06
1.35832e-05
1.76794e-06
1.35708e-05
1.39899e-06
1.35663e-05
1.1161e-06
1.35659e-05
8.90021e-07
1.35694e-05
7.25819e-07
1.35724e-05
5.71612e-07
1.35796e-05
4.99055e-07
1.35819e-05
3.46589e-07
1.35934e-05
4.04271e-07
1.35929e-05
1.20213e-07
1.36129e-05
4.84511e-07
1.3611e-05
-2.60743e-07
1.36482e-05
8.93456e-07
1.36601e-05
-1.06727e-06
1.37242e-05
1.92187e-06
1.38085e-05
-2.62825e-06
1.38493e-05
3.8536e-06
1.41495e-05
-4.87725e-06
1.39222e-05
6.25476e-06
1.45842e-05
-6.73925e-06
1.38543e-05
7.32662e-06
1.49025e-05
-7.22921e-06
1.36734e-05
6.72847e-06
1.49966e-05
-6.83469e-06
1.35096e-05
6.3104e-06
1.45878e-05
-5.86563e-06
1.3447e-05
6.23317e-06
1.41892e-05
-5.28228e-06
1.32795e-05
6.89252e-06
1.42902e-05
-6.04744e-06
1.33442e-05
7.20284e-06
1.44392e-05
-5.66576e-06
1.37386e-05
6.08115e-06
1.46902e-05
-4.30169e-06
1.37521e-05
6.64935e-06
1.52528e-05
-4.95274e-06
1.415e-05
7.51198e-06
1.57264e-05
-4.36006e-06
1.46649e-05
7.19018e-06
1.63752e-05
-2.80382e-06
1.51758e-05
8.23842e-06
1.72294e-05
-2.68037e-06
1.59016e-05
8.98004e-06
1.77207e-05
-2.13273e-07
1.60629e-05
9.91286e-06
1.76548e-05
1.41542e-06
1.57434e-05
1.10267e-05
1.63503e-05
3.71191e-06
1.39581e-05
1.28287e-05
1.46931e-05
5.51975e-06
1.35631e-05
1.45083e-05
1.6135e-05
7.59677e-06
1.58844e-05
2.18356e-05
1.71525e-05
1.40101e-05
1.45799e-05
3.38292e-05
2.07037e-05
1.94721e-05
5.72066e-05
2.22368e-05
2.32816e-05
-1.7987e-06
2.33339e-05
-1.02665e-06
2.33383e-05
-1.46984e-06
2.35847e-05
-2.83793e-06
2.40896e-05
-1.52284e-06
2.38804e-05
2.46658e-06
2.41854e-05
2.09811e-06
2.51377e-05
-2.34713e-07
2.65702e-05
3.33749e-06
2.89872e-05
4.25368e-06
3.11919e-05
-3.56359e-06
3.2361e-05
-1.13627e-05
3.28756e-05
-1.37589e-05
3.38887e-05
-1.66362e-05
3.48505e-05
-2.17014e-05
3.49643e-05
-2.57333e-05
3.4415e-05
-2.89611e-05
3.35709e-05
-3.08646e-05
3.27451e-05
-3.16419e-05
3.25122e-05
-3.32459e-05
3.29372e-05
-3.52733e-05
3.32789e-05
-3.53878e-05
3.30392e-05
-3.28186e-05
3.27715e-05
-2.881e-05
3.26921e-05
-2.18242e-05
3.18482e-05
-1.42095e-05
3.05229e-05
-8.3403e-06
2.90407e-05
5.38934e-08
2.70513e-05
9.99743e-06
2.44896e-05
1.62782e-05
2.172e-05
1.88117e-05
1.9155e-05
1.87471e-05
1.71925e-05
1.61071e-05
1.58448e-05
1.22389e-05
1.49005e-05
9.22448e-06
1.42474e-05
7.66183e-06
1.38406e-05
6.88043e-06
1.36213e-05
6.18707e-06
1.35211e-05
5.35189e-06
1.34851e-05
4.44152e-06
1.34788e-05
3.57765e-06
1.34843e-05
2.83443e-06
1.34936e-05
2.23132e-06
1.35039e-05
1.75762e-06
1.35141e-05
1.38885e-06
1.35247e-05
1.10546e-06
1.35342e-05
8.80531e-07
1.35454e-05
7.14639e-07
1.35526e-05
5.64341e-07
1.35659e-05
4.858e-07
1.35675e-05
3.44937e-07
1.35883e-05
3.8352e-07
1.35771e-05
1.31417e-07
1.36194e-05
4.42166e-07
1.3581e-05
-2.22336e-07
1.36751e-05
7.994e-07
1.35923e-05
-9.84438e-07
1.37775e-05
1.73662e-06
1.36788e-05
-2.52956e-06
1.38945e-05
3.63792e-06
1.40046e-05
-4.9874e-06
1.38311e-05
6.42834e-06
1.45526e-05
-7.46079e-06
1.35199e-05
8.35928e-06
1.48589e-05
-8.56813e-06
1.33002e-05
8.28714e-06
1.4627e-05
-8.16144e-06
1.33882e-05
7.54919e-06
1.41828e-05
-6.66026e-06
1.35763e-05
6.83969e-06
1.41136e-05
-5.81957e-06
1.36983e-05
7.30775e-06
1.4571e-05
-6.92008e-06
1.38766e-05
7.89726e-06
1.50363e-05
-6.82552e-06
1.42753e-05
6.8422e-06
1.51992e-05
-5.22558e-06
1.42233e-05
7.62522e-06
1.58213e-05
-6.55075e-06
1.45127e-05
8.82062e-06
1.59947e-05
-5.84213e-06
1.48904e-05
8.29452e-06
1.66484e-05
-4.5618e-06
1.5259e-05
9.62778e-06
1.73534e-05
-4.77479e-06
1.60061e-05
1.03274e-05
1.83464e-05
-2.55356e-06
1.66546e-05
1.16047e-05
1.91871e-05
-1.1171e-06
1.71997e-05
1.30141e-05
1.91216e-05
1.78999e-06
1.6259e-05
1.56913e-05
1.73e-05
4.47878e-06
1.40247e-05
1.77836e-05
1.52463e-05
6.37514e-06
1.58943e-05
2.11876e-05
1.99948e-05
9.90965e-06
1.98571e-05
3.39668e-05
2.51364e-05
1.41928e-05
5.61181e-05
2.62249e-05
2.74322e-05
-1.10132e-06
2.71923e-05
-7.86771e-07
2.72699e-05
-1.54743e-06
2.76458e-05
-3.21383e-06
2.82167e-05
-2.09374e-06
2.81845e-05
2.49878e-06
2.85796e-05
1.70305e-06
2.91556e-05
-8.1071e-07
3.03353e-05
2.15775e-06
3.25158e-05
2.07326e-06
3.42502e-05
-5.29802e-06
3.48109e-05
-1.19234e-05
3.50478e-05
-1.39957e-05
3.57721e-05
-1.73605e-05
3.58362e-05
-2.17655e-05
3.52367e-05
-2.51338e-05
3.44609e-05
-2.81853e-05
3.32909e-05
-2.96946e-05
3.23485e-05
-3.06995e-05
3.24386e-05
-3.3336e-05
3.27646e-05
-3.55993e-05
3.2431e-05
-3.50541e-05
3.13372e-05
-3.17248e-05
3.00657e-05
-2.75386e-05
2.95363e-05
-2.12947e-05
2.89586e-05
-1.36319e-05
2.77879e-05
-7.16958e-06
2.6588e-05
1.25379e-06
2.5115e-05
1.14704e-05
2.28222e-05
1.8571e-05
2.02253e-05
2.14085e-05
1.81387e-05
2.08337e-05
1.65965e-05
1.76493e-05
1.53082e-05
1.35271e-05
1.42647e-05
1.0268e-05
1.35565e-05
8.37005e-06
1.31788e-05
7.25813e-06
1.30482e-05
6.31765e-06
1.30621e-05
5.33797e-06
1.31383e-05
4.36527e-06
1.32274e-05
3.48861e-06
1.33067e-05
2.75511e-06
1.33697e-05
2.16831e-06
1.34177e-05
1.70967e-06
1.34533e-05
1.35318e-06
1.34813e-05
1.07756e-06
1.3502e-05
8.59811e-07
1.35215e-05
6.95085e-07
1.35333e-05
5.52579e-07
1.35525e-05
4.666e-07
1.35536e-05
3.43853e-07
1.35828e-05
3.54255e-07
1.35623e-05
1.51997e-07
1.3623e-05
3.81412e-07
1.35557e-05
-1.55047e-07
1.36887e-05
6.66392e-07
1.35407e-05
-8.36454e-07
1.37919e-05
1.48549e-06
1.35856e-05
-2.32325e-06
1.38767e-05
3.34676e-06
1.38912e-05
-5.00188e-06
1.3735e-05
6.58456e-06
1.4504e-05
-8.22984e-06
1.33651e-05
9.49825e-06
1.47458e-05
-9.94881e-06
1.33232e-05
9.70967e-06
1.43458e-05
-9.18397e-06
1.36695e-05
8.22539e-06
1.4092e-05
-7.08271e-06
1.38663e-05
7.06537e-06
1.43527e-05
-6.30597e-06
1.38352e-05
7.82524e-06
1.47873e-05
-7.87218e-06
1.37202e-05
8.96436e-06
1.49198e-05
-8.02514e-06
1.39974e-05
7.76463e-06
1.48892e-05
-6.11733e-06
1.39576e-05
8.55682e-06
1.54794e-05
-8.07264e-06
1.4152e-05
1.01481e-05
1.55281e-05
-7.21819e-06
1.47056e-05
9.11701e-06
1.64028e-05
-6.25903e-06
1.51443e-05
1.08863e-05
1.72431e-05
-6.8736e-06
1.63451e-05
1.12254e-05
1.87438e-05
-4.95221e-06
1.73894e-05
1.2959e-05
2.07366e-05
-4.46424e-06
1.95156e-05
1.4235e-05
2.24906e-05
-1.18498e-06
2.0773e-05
1.7409e-05
2.34398e-05
1.81192e-06
2.04393e-05
2.07842e-05
2.04357e-05
6.37867e-06
1.65807e-05
2.50426e-05
1.83718e-05
8.11856e-06
1.74701e-05
3.48685e-05
2.34512e-05
8.21173e-06
5.03798e-05
2.91895e-05
3.04626e-05
-6.25995e-07
3.01102e-05
-4.34372e-07
3.01837e-05
-1.6209e-06
3.06342e-05
-3.66431e-06
3.11513e-05
-2.61089e-06
3.14968e-05
2.15334e-06
3.20562e-05
1.14361e-06
3.22172e-05
-9.71737e-07
3.31557e-05
1.21934e-06
3.50102e-05
2.18673e-07
3.61973e-05
-6.48508e-06
3.6179e-05
-1.19052e-05
3.60649e-05
-1.38816e-05
3.61783e-05
-1.74739e-05
3.56699e-05
-2.12571e-05
3.46855e-05
-2.41493e-05
3.35809e-05
-2.70808e-05
3.28748e-05
-2.89885e-05
3.27747e-05
-3.05994e-05
3.27177e-05
-3.3279e-05
3.18166e-05
-3.46982e-05
3.0076e-05
-3.33135e-05
2.84102e-05
-3.00589e-05
2.69302e-05
-2.60586e-05
2.58653e-05
-2.02299e-05
2.51914e-05
-1.29579e-05
2.44582e-05
-6.43638e-06
2.36498e-05
2.06217e-06
2.25536e-05
1.25666e-05
2.07961e-05
2.03285e-05
1.88419e-05
2.33628e-05
1.71212e-05
2.25544e-05
1.56906e-05
1.90798e-05
1.45476e-05
1.46701e-05
1.36321e-05
1.11835e-05
1.29691e-05
9.03306e-06
1.26266e-05
7.60064e-06
1.25705e-05
6.37374e-06
1.26843e-05
5.22421e-06
1.28569e-05
4.19265e-06
1.30234e-05
3.32213e-06
1.31593e-05
2.61923e-06
1.32621e-05
2.0655e-06
1.3338e-05
1.63372e-06
1.33936e-05
1.29755e-06
1.34363e-05
1.03489e-06
1.34676e-05
8.28562e-07
1.34958e-05
6.66823e-07
1.35123e-05
5.36089e-07
1.35386e-05
4.40304e-07
1.35381e-05
3.4432e-07
1.35788e-05
3.13638e-07
1.35441e-05
1.86683e-07
1.36307e-05
2.94765e-07
1.35222e-05
-4.64804e-08
1.37082e-05
4.8032e-07
1.34735e-05
-6.01748e-07
1.38043e-05
1.15472e-06
1.34679e-05
-1.98684e-06
1.38487e-05
2.96596e-06
1.37218e-05
-4.87502e-06
1.36772e-05
6.62917e-06
1.43389e-05
-8.8915e-06
1.33165e-05
1.05206e-05
1.45384e-05
-1.11707e-05
1.33325e-05
1.09156e-05
1.40113e-05
-9.86275e-06
1.36666e-05
8.57005e-06
1.37473e-05
-7.16342e-06
1.36048e-05
7.20793e-06
1.41485e-05
-6.84972e-06
1.3231e-05
8.74275e-06
1.43579e-05
-8.99905e-06
1.32809e-05
1.00413e-05
1.40754e-05
-8.81963e-06
1.34745e-05
8.3656e-06
1.42233e-05
-6.86618e-06
1.32671e-05
9.51302e-06
1.47531e-05
-9.55863e-06
1.36112e-05
1.12899e-05
1.45444e-05
-8.15135e-06
1.393e-05
9.73144e-06
1.54689e-05
-7.79792e-06
1.41668e-05
1.21883e-05
1.58012e-05
-8.50805e-06
1.52309e-05
1.17957e-05
1.71931e-05
-6.91439e-06
1.62227e-05
1.39295e-05
1.8858e-05
-7.09954e-06
1.86661e-05
1.44269e-05
2.19053e-05
-4.42423e-06
2.17545e-05
1.75598e-05
2.62312e-05
-2.66479e-06
2.51973e-05
2.18181e-05
2.96918e-05
1.88424e-06
2.56683e-05
2.90661e-05
2.80954e-05
5.69148e-06
2.30562e-05
3.99078e-05
2.24761e-05
8.79178e-06
4.42795e-05
2.85765e-05
3.22021e-05
-6.014e-07
3.19522e-05
-1.84458e-07
3.19829e-05
-1.65164e-06
3.23479e-05
-4.02924e-06
3.23986e-05
-2.66168e-06
3.31598e-05
1.39223e-06
3.40663e-05
2.37092e-07
3.41376e-05
-1.04301e-06
3.49943e-05
3.62602e-07
3.64002e-05
-1.18726e-06
3.68813e-05
-6.9661e-06
3.63584e-05
-1.13823e-05
3.59802e-05
-1.35034e-05
3.53566e-05
-1.68503e-05
3.44788e-05
-2.03793e-05
3.38072e-05
-2.34778e-05
3.27877e-05
-2.60613e-05
3.22442e-05
-2.84449e-05
3.23328e-05
-3.06881e-05
3.15009e-05
-3.24471e-05
2.93004e-05
-3.24977e-05
2.66504e-05
-3.06636e-05
2.48394e-05
-2.8248e-05
2.37136e-05
-2.49327e-05
2.26216e-05
-1.91379e-05
2.17569e-05
-1.20933e-05
2.10127e-05
-5.69219e-06
2.02856e-05
2.78934e-06
1.94318e-05
1.34204e-05
1.82999e-05
2.14604e-05
1.6895e-05
2.47676e-05
1.55087e-05
2.39407e-05
1.44236e-05
2.01649e-05
1.34944e-05
1.55994e-05
1.26657e-05
1.20122e-05
1.21351e-05
9.56361e-06
1.19882e-05
7.74763e-06
1.2122e-05
6.23987e-06
1.23803e-05
4.96591e-06
1.26497e-05
3.92329e-06
1.28778e-05
3.09402e-06
1.30535e-05
2.44353e-06
1.31832e-05
1.93577e-06
1.32783e-05
1.5386e-06
1.3348e-05
1.22793e-06
1.34012e-05
9.81683e-07
1.344e-05
7.89712e-07
1.34747e-05
6.32197e-07
1.34947e-05
5.16077e-07
1.35263e-05
4.08653e-07
1.35248e-05
3.45798e-07
1.3574e-05
2.64507e-07
1.35293e-05
2.31366e-07
1.36339e-05
1.90186e-07
1.34979e-05
8.95254e-08
1.37136e-05
2.64583e-07
1.34301e-05
-3.18295e-07
1.37855e-05
7.9938e-07
1.33926e-05
-1.59394e-06
1.37811e-05
2.57743e-06
1.35739e-05
-4.66784e-06
1.36283e-05
6.57485e-06
1.40839e-05
-9.34713e-06
1.3351e-05
1.12535e-05
1.42732e-05
-1.20929e-05
1.34587e-05
1.17301e-05
1.37157e-05
-1.01197e-05
1.38102e-05
8.4755e-06
1.35849e-05
-6.93811e-06
1.36432e-05
7.14963e-06
1.41506e-05
-7.35714e-06
1.32876e-05
9.60576e-06
1.43783e-05
-1.00897e-05
1.36672e-05
1.07524e-05
1.42029e-05
-9.35528e-06
1.37797e-05
8.78878e-06
1.45853e-05
-7.67174e-06
1.35742e-05
1.0524e-05
1.48218e-05
-1.08062e-05
1.38302e-05
1.22815e-05
1.47863e-05
-9.10746e-06
1.40313e-05
1.04865e-05
1.53906e-05
-9.1573e-06
1.38468e-05
1.37322e-05
1.54025e-05
-1.00638e-05
1.44865e-05
1.27117e-05
1.58544e-05
-8.28224e-06
1.41735e-05
1.56103e-05
1.60702e-05
-8.99628e-06
1.49616e-05
1.55356e-05
1.69811e-05
-6.44377e-06
1.56776e-05
1.88633e-05
1.8896e-05
-5.88315e-06
1.85096e-05
2.22045e-05
2.44235e-05
-4.02969e-06
2.36188e-05
2.98708e-05
2.8761e-05
5.49205e-07
2.89696e-05
3.96992e-05
2.6907e-05
1.08543e-05
4.14021e-05
2.97843e-05
3.37042e-05
-2.72594e-07
3.30446e-05
4.75171e-07
3.31269e-05
-1.73393e-06
3.30963e-05
-3.9987e-06
3.24952e-05
-2.06055e-06
3.31149e-05
7.72471e-07
3.38289e-05
-4.76824e-07
3.43728e-05
-1.58693e-06
3.5577e-05
-8.41586e-07
3.67777e-05
-2.38801e-06
3.69742e-05
-7.1626e-06
3.61735e-05
-1.05816e-05
3.53626e-05
-1.26925e-05
3.43501e-05
-1.58378e-05
3.35463e-05
-1.95755e-05
3.30021e-05
-2.29335e-05
3.21409e-05
-2.52001e-05
3.1412e-05
-2.7716e-05
3.0612e-05
-2.98881e-05
2.86303e-05
-3.04654e-05
2.56918e-05
-2.95592e-05
2.29413e-05
-2.7913e-05
2.12657e-05
-2.65724e-05
2.03554e-05
-2.40224e-05
1.94378e-05
-1.82202e-05
1.85529e-05
-1.12084e-05
1.75986e-05
-4.73786e-06
1.67151e-05
3.67283e-06
1.60975e-05
1.4038e-05
1.53969e-05
2.21611e-05
1.44249e-05
2.57395e-05
1.36667e-05
2.46989e-05
1.31491e-05
2.06824e-05
1.25889e-05
1.61597e-05
1.2065e-05
1.25361e-05
1.17737e-05
9.8549e-06
1.17917e-05
7.72961e-06
1.20445e-05
5.98711e-06
1.23867e-05
4.62364e-06
1.27032e-05
3.60682e-06
1.29439e-05
2.8533e-06
1.31079e-05
2.27951e-06
1.32152e-05
1.82849e-06
1.3288e-05
1.46583e-06
1.33412e-05
1.17472e-06
1.33852e-05
9.37721e-07
1.34205e-05
7.5434e-07
1.34556e-05
5.97175e-07
1.34775e-05
4.94171e-07
1.35125e-05
3.73627e-07
1.35124e-05
3.45879e-07
1.35662e-05
2.10664e-07
1.35187e-05
2.78956e-07
1.36319e-05
7.69856e-08
1.34833e-05
2.38039e-07
1.37144e-05
3.35364e-08
1.34014e-05
-5.35117e-09
1.37776e-05
4.2323e-07
1.33232e-05
-1.13953e-06
1.37558e-05
2.14477e-06
1.33951e-05
-4.30708e-06
1.36365e-05
6.33345e-06
1.37998e-05
-9.51039e-06
1.34031e-05
1.16501e-05
1.40619e-05
-1.27517e-05
1.35388e-05
1.22532e-05
1.35169e-05
-1.00978e-05
1.39256e-05
8.06685e-06
1.3377e-05
-6.38953e-06
1.36601e-05
6.86654e-06
1.40805e-05
-7.77759e-06
1.32147e-05
1.04716e-05
1.41686e-05
-1.10436e-05
1.35183e-05
1.14026e-05
1.37828e-05
-9.61972e-06
1.33689e-05
9.2026e-06
1.41767e-05
-8.47954e-06
1.3117e-05
1.15838e-05
1.40956e-05
-1.17848e-05
1.35243e-05
1.28528e-05
1.41939e-05
-9.77712e-06
1.33519e-05
1.13285e-05
1.48347e-05
-1.064e-05
1.36873e-05
1.48795e-05
1.48246e-05
-1.12011e-05
1.41151e-05
1.34211e-05
1.58706e-05
-1.00377e-05
1.4329e-05
1.7152e-05
1.61501e-05
-1.08173e-05
1.47727e-05
1.69129e-05
1.72872e-05
-8.95829e-06
1.50173e-05
2.11332e-05
1.75196e-05
-8.38546e-06
1.54499e-05
2.42742e-05
1.93042e-05
-7.88403e-06
1.91842e-05
2.99908e-05
2.29385e-05
-3.20509e-06
2.66458e-05
3.5992e-05
2.78887e-05
9.61133e-06
3.83404e-05
3.09505e-05
3.36162e-05
-2.82518e-07
3.37368e-05
3.54585e-07
3.36428e-05
-1.64e-06
3.29027e-05
-3.25859e-06
3.23542e-05
-1.51206e-06
3.27005e-05
4.26194e-07
3.32996e-05
-1.07589e-06
3.4243e-05
-2.53033e-06
3.50337e-05
-1.63235e-06
3.61281e-05
-3.48237e-06
3.66752e-05
-7.70974e-06
3.5891e-05
-9.79731e-06
3.49248e-05
-1.17264e-05
3.42833e-05
-1.51963e-05
3.36733e-05
-1.89655e-05
3.24718e-05
-2.1732e-05
3.12777e-05
-2.4006e-05
3.02803e-05
-2.67186e-05
2.82748e-05
-2.78826e-05
2.49527e-05
-2.71433e-05
2.16286e-05
-2.62351e-05
1.9303e-05
-2.55874e-05
1.78715e-05
-2.51409e-05
1.68421e-05
-2.29931e-05
1.59156e-05
-1.72938e-05
1.51117e-05
-1.04044e-05
1.42327e-05
-3.85894e-06
1.34845e-05
4.42104e-06
1.29746e-05
1.45479e-05
1.24201e-05
2.27156e-05
1.20819e-05
2.60778e-05
1.20497e-05
2.47311e-05
1.19304e-05
2.08018e-05
1.16181e-05
1.6472e-05
1.12852e-05
1.2869e-05
1.1205e-05
9.93509e-06
1.14879e-05
7.44667e-06
1.19844e-05
5.49069e-06
1.24819e-05
4.1261e-06
1.28588e-05
3.22989e-06
1.30953e-05
2.61687e-06
1.32262e-05
2.14856e-06
1.32966e-05
1.75811e-06
1.33395e-05
1.42298e-06
1.33714e-05
1.1428e-06
1.34008e-05
9.08343e-07
1.34266e-05
7.28448e-07
1.34552e-05
5.68645e-07
1.3474e-05
4.7532e-07
1.35062e-05
3.4142e-07
1.35073e-05
3.44827e-07
1.35585e-05
1.59415e-07
1.35157e-05
3.2176e-07
1.36238e-05
-3.10532e-08
1.3484e-05
3.77764e-07
1.37068e-05
-1.89227e-07
1.34029e-05
2.98561e-07
1.37691e-05
5.70343e-08
1.33052e-05
-6.75663e-07
1.37396e-05
1.71038e-06
1.32891e-05
-3.85656e-06
1.36307e-05
5.9918e-06
1.35452e-05
-9.42487e-06
1.34481e-05
1.17473e-05
1.38019e-05
-1.31055e-05
1.35427e-05
1.25123e-05
1.33611e-05
-9.91614e-06
1.38811e-05
7.54678e-06
1.30902e-05
-5.59862e-06
1.36393e-05
6.31746e-06
1.37404e-05
-7.8787e-06
1.31939e-05
1.10181e-05
1.38838e-05
-1.17335e-05
1.3422e-05
1.18644e-05
1.35135e-05
-9.71122e-06
1.33306e-05
9.38556e-06
1.38492e-05
-8.99818e-06
1.31802e-05
1.22528e-05
1.39436e-05
-1.25482e-05
1.34787e-05
1.33177e-05
1.39912e-05
-1.02896e-05
1.32174e-05
1.21023e-05
1.44643e-05
-1.18869e-05
1.34567e-05
1.58871e-05
1.43206e-05
-1.2065e-05
1.34821e-05
1.42597e-05
1.50765e-05
-1.16322e-05
1.34914e-05
1.87371e-05
1.49519e-05
-1.22778e-05
1.38852e-05
1.79795e-05
1.63361e-05
-1.14092e-05
1.47247e-05
2.27446e-05
1.68521e-05
-1.05128e-05
1.57454e-05
2.53809e-05
1.86391e-05
-1.07777e-05
1.85889e-05
3.0041e-05
2.00765e-05
-4.69263e-06
2.31141e-05
3.29544e-05
2.56662e-05
7.05922e-06
3.34465e-05
3.056e-05
3.39672e-05
-5.97333e-07
3.3964e-05
3.57712e-07
3.30104e-05
-6.86334e-07
3.24029e-05
-2.65113e-06
3.29948e-05
-2.10395e-06
3.3841e-05
-4.20007e-07
3.41492e-05
-1.38411e-06
3.36181e-05
-1.99924e-06
3.37158e-05
-1.72996e-06
3.5312e-05
-5.07863e-06
3.59009e-05
-8.29858e-06
3.51824e-05
-9.07883e-06
3.47279e-05
-1.12719e-05
3.45824e-05
-1.50508e-05
3.37326e-05
-1.81157e-05
3.1903e-05
-1.99024e-05
3.01692e-05
-2.22722e-05
2.82012e-05
-2.47506e-05
2.48041e-05
-2.44855e-05
2.06258e-05
-2.2965e-05
1.73204e-05
-2.29296e-05
1.53099e-05
-2.3577e-05
1.39555e-05
-2.37864e-05
1.28469e-05
-2.18845e-05
1.19886e-05
-1.64355e-05
1.13286e-05
-9.74438e-06
1.04779e-05
-3.00829e-06
9.57925e-06
5.31973e-06
9.18089e-06
1.49462e-05
9.37667e-06
2.25198e-05
9.8689e-06
2.55855e-05
1.02616e-05
2.43384e-05
1.0494e-05
2.05693e-05
1.05088e-05
1.64571e-05
1.0476e-05
1.29018e-05
1.07037e-05
9.70734e-06
1.1152e-05
6.99843e-06
1.15988e-05
5.04386e-06
1.19368e-05
3.78815e-06
1.21852e-05
2.98143e-06
1.2395e-05
2.40711e-06
1.25941e-05
1.94942e-06
1.27843e-05
1.5679e-06
1.29566e-05
1.25069e-06
1.31024e-05
9.96988e-07
1.32202e-05
7.90541e-07
1.331e-05
6.3864e-07
1.33808e-05
4.97873e-07
1.34287e-05
4.27426e-07
1.34757e-05
2.94442e-07
1.34916e-05
3.2887e-07
1.35417e-05
1.09332e-07
1.35151e-05
3.48336e-07
1.36077e-05
-1.23578e-07
1.34971e-05
4.88292e-07