/*--------------------------------*- C++ -*----------------------------------*\
| =========                 |                                                 |
| \\      /  F ield         | OpenFOAM: The Open Source CFD Toolbox           |
|  \\    /   O peration     | Version:  2.4.0                                 |
|   \\  /    A nd           | Web:      www.OpenFOAM.org                      |
|    \\/     M anipulation  |                                                 |
\*---------------------------------------------------------------------------*/
FoamFile
{
    version     2.0;
    format      ascii;
    class       volScalarField;
    location    "0.194";
    object      nuSgs;
}
// * * * * * * * * * * * * * * * * * * * * * * * * * * * * * * * * * * * * * //

dimensions      [0 2 -1 0 0 0 0];

internalField   nonuniform List<scalar> 
17600
(
0.00101328
0.000904419
0.000752855
0.000658685
0.000607859
0.000570942
0.000546235
0.000522402
0.000507958
0.000495506
0.000483651
0.000478776
0.000471277
0.000467671
0.00046711
0.000468759
0.000485101
0.000483304
0.000553661
0.000574025
0.000705949
0.000827559
0.000803703
0.000746418
0.000699279
0.000658562
0.000631108
0.000604426
0.000586929
0.000572529
0.000556364
0.000550735
0.000540703
0.000532601
0.000531111
0.000527524
0.000532837
0.000530776
0.000567755
0.000577301
0.000382967
0.000601651
0.000664936
0.00066121
0.000645744
0.000617509
0.000597482
0.000576537
0.00056012
0.000548966
0.000532755
0.000527049
0.000518515
0.000508342
0.000505655
0.000501657
0.000495633
0.000495893
0.000503999
0.000495638
0.000151752
0.000362735
0.000462136
0.000505811
0.000527913
0.00052673
0.000522734
0.000515006
0.000503359
0.000498394
0.000486644
0.000481157
0.000476507
0.000467214
0.000462601
0.00046115
0.000448815
0.000449389
0.000444425
0.000432363
5.3694e-05
0.000170434
0.000267805
0.000324191
0.000372744
0.000396338
0.000411718
0.000422319
0.000421423
0.000423209
0.000421342
0.000417902
0.000417395
0.000413936
0.00040812
0.000408136
0.000397973
0.000394744
0.000382189
0.000376622
1.74412e-05
6.93612e-05
0.000127939
0.000166701
0.000217453
0.000250675
0.000275298
0.000304169
0.000312269
0.000325042
0.000334095
0.000335621
0.000341241
0.000342962
0.000341612
0.000341328
0.000338012
0.000332469
0.000311397
0.000306739
5.61864e-06
2.64961e-05
5.18718e-05
7.1564e-05
0.000101936
0.000131501
0.000148677
0.000182225
0.000196004
0.000210669
0.000230451
0.000235917
0.000247356
0.000255666
0.000260652
0.000260544
0.000262106
0.000258618
0.00023796
0.000221251
2.4133e-06
9.93177e-06
1.9169e-05
2.72658e-05
3.88425e-05
5.69705e-05
6.70606e-05
8.72105e-05
0.00010235
0.000110973
0.000130886
0.000137976
0.000149285
0.000161545
0.000170424
0.000170892
0.000175942
0.000173247
0.000155514
0.000135427
1.78798e-06
4.047e-06
7.14744e-06
1.0368e-05
1.41283e-05
2.1113e-05
2.56621e-05
3.40753e-05
4.38914e-05
4.82011e-05
6.02293e-05
6.5291e-05
7.20185e-05
8.43635e-05
8.98185e-05
9.11884e-05
9.7041e-05
9.48817e-05
8.30291e-05
7.07963e-05
1.62659e-06
2.26304e-06
3.24019e-06
4.72597e-06
5.86164e-06
8.37718e-06
9.71098e-06
1.30851e-05
1.64463e-05
1.79551e-05
2.3421e-05
2.53305e-05
2.89765e-05
3.61526e-05
3.765e-05
3.94119e-05
4.32062e-05
4.2004e-05
3.6148e-05
2.86473e-05
1.61287e-06
1.90859e-06
2.58287e-06
3.0664e-06
3.39125e-06
4.2617e-06
4.76122e-06
6.0463e-06
6.68058e-06
7.0994e-06
8.46281e-06
8.78494e-06
1.05683e-05
1.24322e-05
1.34692e-05
1.59436e-05
1.64061e-05
1.59981e-05
1.42369e-05
1.11366e-05
1.58443e-06
1.84501e-06
2.40854e-06
2.534e-06
2.58567e-06
2.7367e-06
3.59737e-06
3.82966e-06
4.5018e-06
4.38926e-06
4.40154e-06
4.66854e-06
4.86594e-06
5.24699e-06
6.86097e-06
7.27041e-06
7.34621e-06
7.59058e-06
7.46503e-06
6.82187e-06
1.55219e-06
1.81708e-06
2.36867e-06
2.38201e-06
2.33195e-06
2.5294e-06
2.78976e-06
3.00375e-06
3.60944e-06
3.49458e-06
3.64674e-06
3.77036e-06
3.69313e-06
3.83202e-06
4.29407e-06
4.33316e-06
4.96156e-06
5.47711e-06
5.5393e-06
5.68663e-06
1.53993e-06
1.75843e-06
2.29322e-06
2.36071e-06
2.32549e-06
2.47331e-06
2.49843e-06
2.93632e-06
3.12136e-06
3.1559e-06
3.56487e-06
3.44402e-06
3.33672e-06
3.3914e-06
3.36224e-06
3.38839e-06
4.16527e-06
4.27841e-06
4.38036e-06
4.71039e-06
1.53657e-06
1.72356e-06
2.18964e-06
2.30165e-06
2.35275e-06
2.3004e-06
2.26716e-06
2.49055e-06
2.60953e-06
2.89184e-06
2.99018e-06
2.87523e-06
2.92314e-06
2.92102e-06
2.87051e-06
3.10482e-06
3.22411e-06
3.33832e-06
3.61364e-06
3.74493e-06
1.53835e-06
1.81142e-06
2.02294e-06
2.14538e-06
2.25346e-06
2.25818e-06
2.38492e-06
2.40301e-06
2.47433e-06
2.70071e-06
2.6837e-06
2.71413e-06
2.75462e-06
2.7283e-06
2.73556e-06
2.85052e-06
2.85477e-06
3.10652e-06
3.32315e-06
3.35098e-06
1.52414e-06
1.7999e-06
1.90037e-06
2.09189e-06
2.1728e-06
2.22769e-06
2.25594e-06
2.27724e-06
2.41987e-06
2.46169e-06
2.47644e-06
2.61851e-06
2.6084e-06
2.59813e-06
2.79642e-06
2.74671e-06
2.81418e-06
3.00264e-06
3.03387e-06
3.20229e-06
1.50663e-06
1.71166e-06
1.85516e-06
2.09066e-06
2.10181e-06
2.15707e-06
2.18536e-06
2.20244e-06
2.4002e-06
2.39879e-06
2.43237e-06
2.4387e-06
2.45277e-06
2.54946e-06
2.62469e-06
2.57489e-06
2.70405e-06
2.70377e-06
2.7698e-06
3.29708e-06
1.50569e-06
1.68922e-06
1.94073e-06
1.979e-06
2.00262e-06
2.08534e-06
2.10384e-06
2.1506e-06
2.17601e-06
2.2149e-06
2.29164e-06
2.31631e-06
2.35424e-06
2.46451e-06
2.42402e-06
2.45585e-06
2.47681e-06
2.52367e-06
2.65168e-06
2.94364e-06
1.50842e-06
1.65939e-06
1.90545e-06
1.99528e-06
2.02262e-06
2.06553e-06
2.10755e-06
2.09574e-06
2.14056e-06
2.22975e-06
2.2815e-06
2.2972e-06
2.33866e-06
2.32291e-06
2.33529e-06
2.42261e-06
2.43345e-06
2.45592e-06
2.49866e-06
2.6305e-06
1.50782e-06
1.64545e-06
1.93135e-06
2.01457e-06
2.00871e-06
2.02289e-06
2.04403e-06
2.12272e-06
2.15647e-06
2.17781e-06
2.19195e-06
2.20476e-06
2.21536e-06
2.27076e-06
2.36245e-06
2.35537e-06
2.35277e-06
2.35999e-06
2.41286e-06
2.52008e-06
1.50785e-06
1.64748e-06
1.92019e-06
1.97171e-06
2.00723e-06
2.06406e-06
2.12296e-06
2.11185e-06
2.10154e-06
2.11859e-06
2.138e-06
2.16631e-06
2.29509e-06
2.29756e-06
2.31308e-06
2.29497e-06
2.29093e-06
2.3274e-06
2.39973e-06
2.56974e-06
1.50974e-06
1.68085e-06
1.88095e-06
2.07758e-06
2.08637e-06
2.14177e-06
2.13902e-06
2.10243e-06
2.11038e-06
2.19586e-06
2.2258e-06
2.29018e-06
2.33814e-06
2.32205e-06
2.31234e-06
2.327e-06
2.33743e-06
2.40213e-06
2.42506e-06
2.48218e-06
1.51537e-06
1.6625e-06
1.99867e-06
2.10281e-06
2.1012e-06
2.15543e-06
2.14208e-06
2.14272e-06
2.26277e-06
2.29734e-06
2.32066e-06
2.36084e-06
2.37026e-06
2.36592e-06
2.37739e-06
2.43682e-06
2.44055e-06
2.45021e-06
2.46622e-06
2.60795e-06
1.519e-06
1.70123e-06
2.05647e-06
2.08335e-06
2.13081e-06
2.25545e-06
2.25863e-06
2.32049e-06
2.35259e-06
2.34539e-06
2.36242e-06
2.42424e-06
2.467e-06
2.51972e-06
2.56225e-06
2.56115e-06
2.53451e-06
2.541e-06
2.61612e-06
3.02978e-06
1.52862e-06
1.76299e-06
1.96423e-06
2.19939e-06
2.34112e-06
2.419e-06
2.42188e-06
2.42792e-06
2.39983e-06
2.40649e-06
2.53751e-06
2.64801e-06
2.72688e-06
2.76172e-06
2.75894e-06
2.71781e-06
2.71459e-06
2.78673e-06
3.13238e-06
4.38818e-06
1.53939e-06
1.74547e-06
2.0538e-06
2.46081e-06
2.53482e-06
2.56419e-06
2.55361e-06
2.47234e-06
2.47045e-06
2.60342e-06
2.88273e-06
2.98194e-06
3.06818e-06
3.06683e-06
3.01577e-06
3.03084e-06
3.13015e-06
3.60464e-06
4.99817e-06
8.46223e-06
1.54586e-06
1.77932e-06
2.2874e-06
2.68571e-06
2.6976e-06
2.69279e-06
2.58612e-06
2.5457e-06
2.64957e-06
3.14237e-06
3.39963e-06
3.54287e-06
3.61517e-06
3.57079e-06
3.61639e-06
3.96915e-06
4.78749e-06
6.85382e-06
1.08638e-05
1.89749e-05
1.56571e-06
1.83019e-06
2.68349e-06
2.85258e-06
2.83693e-06
2.75276e-06
2.74586e-06
2.85712e-06
3.59795e-06
4.31262e-06
4.60848e-06
4.79215e-06
5.35003e-06
5.62969e-06
6.35128e-06
8.56279e-06
1.14832e-05
1.69562e-05
2.55334e-05
4.33366e-05
1.58858e-06
1.96585e-06
3.16875e-06
3.15031e-06
3.12e-06
3.30145e-06
3.73281e-06
4.64029e-06
6.81718e-06
7.97737e-06
8.71234e-06
9.81216e-06
1.28165e-05
1.43358e-05
1.69714e-05
2.37636e-05
2.98071e-05
4.14412e-05
5.58454e-05
8.88721e-05
1.6442e-06
2.40832e-06
4.14988e-06
4.31123e-06
4.75824e-06
7.06797e-06
8.91035e-06
1.16224e-05
1.69103e-05
2.03383e-05
2.26988e-05
2.66745e-05
3.51432e-05
3.90349e-05
4.46724e-05
5.88649e-05
6.86759e-05
8.83711e-05
0.000107655
0.000154514
1.75262e-06
4.04926e-06
7.71131e-06
9.33675e-06
1.22781e-05
2.08315e-05
2.57631e-05
3.24179e-05
4.50521e-05
5.31756e-05
5.86047e-05
6.85196e-05
8.30926e-05
9.00438e-05
9.9079e-05
0.000120863
0.00013354
0.000158371
0.000179777
0.000229768
2.33125e-06
9.7514e-06
1.97322e-05
2.61497e-05
3.59162e-05
5.78024e-05
6.85745e-05
8.20896e-05
0.000106348
0.00011776
0.000127256
0.000143768
0.00016118
0.000168904
0.00018146
0.000205034
0.00021671
0.000239745
0.000258443
0.000296978
5.58492e-06
2.63741e-05
5.33116e-05
7.05145e-05
9.47344e-05
0.000135526
0.000151796
0.000174945
0.000203545
0.000214392
0.000228338
0.000242692
0.000257075
0.000263086
0.000274799
0.000289778
0.000298231
0.000314151
0.000327727
0.000351766
1.74542e-05
6.98063e-05
0.000130177
0.00016393
0.000213663
0.000254871
0.000276149
0.000299399
0.00031974
0.000325518
0.000334963
0.000340903
0.00034785
0.000349676
0.000355429
0.00036102
0.000366504
0.000373526
0.000382768
0.000392503
5.37144e-05
0.000171992
0.000268178
0.000321948
0.000372121
0.000398416
0.00041207
0.000420562
0.000425292
0.000423271
0.000423249
0.000421086
0.000420885
0.000418008
0.00041886
0.000417795
0.000419193
0.000419333
0.000421785
0.000420699
0.00015163
0.00036344
0.000461574
0.000504872
0.000528452
0.000527046
0.000523247
0.000514076
0.000506856
0.000495613
0.000490394
0.000480165
0.000476913
0.000468975
0.000466611
0.000459357
0.00045739
0.000450004
0.000444707
0.000433459
0.000382494
0.000602287
0.000664312
0.000660896
0.000646689
0.000616285
0.000598858
0.000575834
0.000561294
0.000545467
0.0005362
0.000521858
0.000516365
0.000504592
0.000499164
0.000485493
0.000479338
0.000462775
0.000450066
0.000427575
0.000705473
0.00082807
0.000803169
0.000746422
0.00070036
0.000656099
0.000632788
0.000603583
0.000586043
0.000568382
0.000557566
0.000541299
0.000533873
0.000519163
0.000510837
0.000490908
0.00047976
0.000452829
0.000429768
0.000392376
0.0010128
0.000904885
0.000752164
0.000658766
0.000608976
0.000568312
0.000546997
0.000521374
0.000505777
0.000489982
0.000481096
0.000466547
0.000457595
0.000442178
0.000432222
0.000407925
0.00039074
0.000356109
0.000323042
0.000272886
0.000262395
0.000213019
0.000198176
0.000198927
0.00019289
0.000176958
0.000143032
0.000107683
7.52865e-05
5.37672e-05
4.03865e-05
3.02178e-05
2.87484e-05
2.78884e-05
2.93326e-05
4.24877e-05
6.31477e-05
8.67384e-05
9.41939e-05
9.14595e-05
7.81843e-05
6.14355e-05
5.06948e-05
4.51571e-05
4.42173e-05
4.41752e-05
4.42657e-05
4.60116e-05
4.71833e-05
4.61864e-05
4.56543e-05
4.49474e-05
4.38123e-05
4.27456e-05
4.22611e-05
4.36968e-05
5.22961e-05
5.70356e-05
5.77058e-05
5.24217e-05
3.65609e-05
3.07184e-05
3.16302e-05
4.04461e-05
6.35286e-05
9.00101e-05
9.91793e-05
9.88159e-05
9.55209e-05
8.57052e-05
7.45357e-05
6.85907e-05
6.47725e-05
6.23124e-05
5.99272e-05
5.71284e-05
5.47509e-05
5.42999e-05
5.41278e-05
5.30943e-05
5.27485e-05
5.23944e-05
5.12456e-05
5.05357e-05
4.92516e-05
4.78792e-05
4.66909e-05
4.51007e-05
4.40414e-05
4.38628e-05
4.38061e-05
4.36489e-05
4.33521e-05
4.2474e-05
3.80808e-05
3.3623e-05
2.9873e-05
2.54513e-05
2.15166e-05
1.91267e-05
1.81076e-05
1.7951e-05
1.87701e-05
2.12372e-05
2.23021e-05
2.24819e-05
2.26386e-05
2.33736e-05
2.58408e-05
3.27919e-05
4.62557e-05
5.43005e-05
5.71159e-05
5.74105e-05
5.71389e-05
5.57526e-05
5.20463e-05
5.02539e-05
5.00365e-05
4.92988e-05
4.74891e-05
4.66819e-05
4.47326e-05
4.28678e-05
4.19671e-05
4.09649e-05
4.08678e-05
4.12759e-05
4.17511e-05
4.24248e-05
4.45637e-05
4.6643e-05
5.02412e-05
6.2281e-05
6.97417e-05
6.98072e-05
6.02138e-05
4.37845e-05
3.57511e-05
3.34094e-05
3.25153e-05
3.10816e-05
2.75792e-05
2.52696e-05
2.42961e-05
2.332e-05
2.27557e-05
2.28035e-05
2.31054e-05
2.37527e-05
2.4994e-05
2.64182e-05
2.69752e-05
2.71304e-05
2.77761e-05
2.91001e-05
3.38898e-05
3.86152e-05
4.16785e-05
4.33003e-05
4.48505e-05
4.96916e-05
5.25931e-05
5.25423e-05
4.75385e-05
3.93627e-05
3.29582e-05
2.95035e-05
2.81726e-05
2.88489e-05
3.11279e-05
3.28049e-05
3.32815e-05
3.36347e-05
3.43903e-05
3.42889e-05
3.20217e-05
2.82081e-05
2.67951e-05
2.68965e-05
2.84447e-05
3.01199e-05
3.18737e-05
3.58744e-05
3.65245e-05
3.81177e-05
3.87682e-05
3.99252e-05
4.27033e-05
4.70242e-05
5.09073e-05
5.25023e-05
5.31893e-05
5.36653e-05
5.36918e-05
5.29535e-05
4.75899e-05
3.87647e-05
3.12512e-05
2.60246e-05
2.20058e-05
1.98773e-05
1.89488e-05
1.8621e-05
1.87274e-05
1.92462e-05
1.97858e-05
2.28726e-05
2.70093e-05
2.84249e-05
2.86822e-05
2.9052e-05
2.9622e-05
3.05597e-05
3.2918e-05
3.61877e-05
3.86749e-05
4.44508e-05
6.93219e-05
0.000161367
0.000289937
0.000258918
0.000230717
0.000211724
0.000188593
0.000156161
0.000117569
8.06963e-05
5.55269e-05
4.02894e-05
3.09634e-05
2.47594e-05
2.5284e-05
2.4206e-05
2.49011e-05
3.01185e-05
4.94987e-05
8.48617e-05
9.36507e-05
9.23637e-05
8.48706e-05
6.64731e-05
5.36581e-05
4.73358e-05
4.62634e-05
4.59982e-05
4.56198e-05
4.68066e-05
4.73363e-05
4.60532e-05
4.54536e-05
4.44558e-05
4.38063e-05
4.26151e-05
4.21191e-05
4.43294e-05
5.37821e-05
5.78838e-05
5.79056e-05
4.84226e-05
3.39833e-05
3.10703e-05
3.43715e-05
4.8569e-05
7.81026e-05
9.72531e-05
0.00010075
9.88502e-05
9.06837e-05
7.69447e-05
6.96476e-05
6.51121e-05
6.14983e-05
5.90996e-05
5.66277e-05
5.40253e-05
5.23404e-05
5.21435e-05
5.24062e-05
5.20338e-05
5.16636e-05
5.14185e-05
5.02505e-05
4.98037e-05
4.9095e-05
4.78884e-05
4.6792e-05
4.51502e-05
4.40388e-05
4.38668e-05
4.38423e-05
4.37286e-05
4.35856e-05
4.3097e-05
3.96198e-05
3.49533e-05
3.09918e-05
2.63253e-05
2.21703e-05
1.9626e-05
1.83908e-05
1.8097e-05
1.86139e-05
2.06946e-05
2.17729e-05
2.19498e-05
2.20763e-05
2.26373e-05
2.43915e-05
2.89126e-05
4.01165e-05
5.01611e-05
5.54896e-05
5.69733e-05
5.71089e-05
5.68066e-05
5.49278e-05
5.24333e-05
5.17354e-05
5.06124e-05
4.872e-05
4.71823e-05
4.48128e-05
4.29869e-05
4.19433e-05
4.12264e-05
4.12544e-05
4.18349e-05
4.22882e-05
4.30563e-05
4.52175e-05
4.73876e-05
5.1586e-05
6.48905e-05
7.15382e-05
7.09887e-05
5.88523e-05
4.2614e-05
3.51907e-05
3.32558e-05
3.23774e-05
3.03274e-05
2.6513e-05
2.42357e-05
2.32157e-05
2.22953e-05
2.20066e-05
2.21429e-05
2.25383e-05
2.33236e-05
2.46695e-05
2.62043e-05
2.66722e-05
2.67305e-05
2.72506e-05
2.85428e-05
3.34918e-05
3.83259e-05
4.15124e-05
4.32048e-05
4.44858e-05
4.91384e-05
5.21232e-05
5.21012e-05
4.74234e-05
3.93364e-05
3.28901e-05
2.92991e-05
2.82927e-05
2.89767e-05
3.10996e-05
3.25512e-05
3.28962e-05
3.31771e-05
3.36041e-05
3.34655e-05
3.17712e-05
2.83524e-05
2.72235e-05
2.74363e-05
2.92778e-05
3.032e-05
3.2643e-05
3.60876e-05
3.68621e-05
3.87445e-05
3.93786e-05
4.08248e-05
4.47678e-05
4.89734e-05
5.21541e-05
5.31032e-05
5.33466e-05
5.36896e-05
5.36899e-05
5.31344e-05
4.81976e-05
3.93771e-05
3.17687e-05
2.60841e-05
2.19857e-05
1.98505e-05
1.89956e-05
1.86872e-05
1.85376e-05
1.88826e-05
1.95224e-05
2.43433e-05
2.93083e-05
3.06936e-05
3.0742e-05
3.03901e-05
3.04254e-05
3.08167e-05
3.21779e-05
3.56219e-05
4.00915e-05
4.41098e-05
6.8785e-05
0.000140614
0.000248762
0.00022586
0.000207525
0.000181717
0.000151592
0.000120105
8.75109e-05
5.93788e-05
4.31582e-05
3.20863e-05
2.40946e-05
2.06517e-05
2.05788e-05
2.18072e-05
2.21096e-05
2.37572e-05
4.19979e-05
7.70645e-05
8.92149e-05
9.04014e-05
8.76933e-05
7.27233e-05
5.83737e-05
5.07596e-05
4.93814e-05
4.85819e-05
4.80418e-05
4.86835e-05
4.8594e-05
4.62484e-05
4.50945e-05
4.42136e-05
4.37145e-05
4.22711e-05
4.19694e-05
4.56683e-05
5.57898e-05
5.886e-05
5.75493e-05
4.35706e-05
3.21853e-05
3.1831e-05
3.84356e-05
5.94609e-05
8.97989e-05
0.000101357
0.000101207
9.63375e-05
8.29703e-05
7.25652e-05
6.62025e-05
6.22839e-05
5.90431e-05
5.66407e-05
5.37635e-05
5.11195e-05
5.00147e-05
5.01197e-05
5.06e-05
5.03551e-05
5.0234e-05
5.02476e-05
4.96947e-05
4.90207e-05
4.85696e-05
4.75731e-05
4.65828e-05
4.48871e-05
4.3648e-05
4.35177e-05
4.37074e-05
4.36865e-05
4.37164e-05
4.34807e-05
4.07998e-05
3.60476e-05
3.19133e-05
2.70226e-05
2.27188e-05
2.01003e-05
1.87205e-05
1.83106e-05
1.86236e-05
2.02611e-05
2.12487e-05
2.14512e-05
2.1622e-05
2.2102e-05
2.33752e-05
2.64457e-05
3.37879e-05
4.56852e-05
5.19707e-05
5.53968e-05
5.66287e-05
5.66514e-05
5.58999e-05
5.34764e-05
5.22008e-05
5.0886e-05
4.9092e-05
4.71662e-05
4.48246e-05
4.32285e-05
4.21566e-05
4.16587e-05
4.17595e-05
4.22584e-05
4.26683e-05
4.36147e-05
4.57971e-05
4.80942e-05
5.31356e-05
6.75476e-05
7.32509e-05
7.1872e-05
5.7662e-05
4.15801e-05
3.46484e-05
3.30607e-05
3.20085e-05
2.92664e-05
2.55153e-05
2.33235e-05
2.2355e-05
2.1489e-05
2.13208e-05
2.15125e-05
2.20096e-05
2.29513e-05
2.44356e-05
2.59121e-05
2.61607e-05
2.61896e-05
2.67642e-05
2.82359e-05
3.338e-05
3.82356e-05
4.14088e-05
4.31296e-05
4.41557e-05
4.86645e-05
5.16896e-05
5.16602e-05
4.72632e-05
3.9261e-05
3.2896e-05
2.92037e-05
2.84302e-05
2.91764e-05
3.04351e-05
3.13755e-05
3.194e-05
3.2731e-05
3.30113e-05
3.28455e-05
3.14819e-05
2.85791e-05
2.78361e-05
2.83319e-05
3.02503e-05
3.09804e-05
3.30527e-05
3.6072e-05
3.72089e-05
3.94057e-05
4.00403e-05
4.2042e-05
4.69729e-05
5.10815e-05
5.35509e-05
5.40063e-05
5.40365e-05
5.40023e-05
5.38866e-05
5.32609e-05
4.86304e-05
3.98171e-05
3.21932e-05
2.61106e-05
2.1947e-05
1.97407e-05
1.92295e-05
1.88607e-05
1.86094e-05
1.91115e-05
2.24971e-05
2.85272e-05
3.25854e-05
3.34501e-05
3.33465e-05
3.25622e-05
3.20802e-05
3.1763e-05
3.23341e-05
3.42235e-05
4.0559e-05
4.348e-05
6.67844e-05
0.000119394
0.000211972
0.000191374
0.000174973
0.000149518
0.000123797
9.77475e-05
6.93284e-05
4.50749e-05
3.24894e-05
2.43551e-05
1.84191e-05
1.79863e-05
1.67057e-05
2.03989e-05
2.03061e-05
2.06118e-05
3.64832e-05
6.62055e-05
8.21783e-05
8.90257e-05
8.80092e-05
7.80119e-05
6.25408e-05
5.35574e-05
5.15963e-05
5.04192e-05
5.03924e-05
5.11508e-05
4.99474e-05
4.63873e-05
4.4821e-05
4.41174e-05
4.32728e-05
4.18557e-05
4.186e-05
4.8564e-05
5.80527e-05
5.98293e-05
5.58797e-05
3.81146e-05
3.15078e-05
3.32307e-05
4.50032e-05
7.37956e-05
9.70138e-05
0.000103008
0.000101215
9.1029e-05
7.81545e-05
6.95124e-05
6.34867e-05
5.9613e-05
5.59557e-05
5.30706e-05
4.99344e-05
4.74275e-05
4.69722e-05
4.73441e-05
4.77924e-05
4.75384e-05
4.77087e-05
4.85196e-05
4.85986e-05
4.83755e-05
4.80448e-05
4.72309e-05
4.61431e-05
4.44611e-05
4.32712e-05
4.31294e-05
4.3344e-05
4.35701e-05
4.38006e-05
4.36818e-05
4.16152e-05
3.69523e-05
3.29601e-05
2.79994e-05
2.34621e-05
2.07209e-05
1.91328e-05
1.85582e-05
1.87113e-05
2.00024e-05
2.09891e-05
2.12174e-05
2.13807e-05
2.17535e-05
2.26481e-05
2.47053e-05
2.93907e-05
4.01132e-05
4.82997e-05
5.27223e-05
5.49907e-05
5.58383e-05
5.54975e-05
5.37636e-05
5.21175e-05
5.07212e-05
4.90235e-05
4.69565e-05
4.49075e-05
4.37283e-05
4.27878e-05
4.21775e-05
4.21643e-05
4.24288e-05
4.27863e-05
4.4049e-05
4.62636e-05
4.87537e-05
5.50405e-05
6.99015e-05
7.48422e-05
7.27532e-05
5.69281e-05
4.10791e-05
3.42603e-05
3.27976e-05
3.16065e-05
2.80066e-05
2.45568e-05
2.26126e-05
2.17374e-05
2.092e-05
2.07538e-05
2.09533e-05
2.14955e-05
2.24889e-05
2.41093e-05
2.55498e-05
2.55948e-05
2.57309e-05
2.64524e-05
2.80809e-05
3.33969e-05
3.82523e-05
4.13256e-05
4.30047e-05
4.38396e-05
4.82351e-05
5.1235e-05
5.1173e-05
4.69143e-05
3.90344e-05
3.28493e-05
2.92546e-05
2.87697e-05
2.94892e-05
2.99603e-05
3.06113e-05
3.14008e-05
3.23072e-05
3.24962e-05
3.23293e-05
3.1006e-05
2.88962e-05
2.84982e-05
2.95647e-05
3.0853e-05
3.11926e-05
3.31923e-05
3.6228e-05
3.80594e-05
3.97969e-05
4.069e-05
4.37791e-05
4.95934e-05
5.31799e-05
5.48832e-05
5.49085e-05
5.48576e-05
5.47432e-05
5.43677e-05
5.33783e-05
4.89352e-05
4.04053e-05
3.26479e-05
2.62306e-05
2.19521e-05
1.98102e-05
1.94183e-05
1.91513e-05
1.88342e-05
2.00824e-05
2.74766e-05
3.23339e-05
3.55576e-05
3.61553e-05
3.58197e-05
3.40554e-05
3.31717e-05
3.29613e-05
3.31403e-05
3.39218e-05
4.12648e-05
4.33948e-05
6.23193e-05
0.000101705
0.000188501
0.000168596
0.000151441
0.000128271
0.000102323
7.02884e-05
4.48355e-05
2.90502e-05
2.10057e-05
1.7813e-05
1.34291e-05
1.54885e-05
1.50424e-05
1.87183e-05
1.93873e-05
1.9328e-05
2.86654e-05
5.68407e-05
8.02772e-05
9.30165e-05
9.28955e-05
8.48058e-05
6.84801e-05
5.87216e-05
5.39126e-05
5.17835e-05
5.23032e-05
5.26207e-05
4.99409e-05
4.59375e-05
4.4326e-05
4.36981e-05
4.24738e-05
4.17051e-05
4.25129e-05
5.2632e-05
6.03448e-05
6.06159e-05
5.13202e-05
3.46309e-05
3.13023e-05
3.6351e-05
5.41727e-05
8.49979e-05
0.000101987
0.000103599
9.92947e-05
8.39187e-05
7.5037e-05
6.58628e-05
5.9026e-05
5.60021e-05
5.27961e-05
4.98949e-05
4.67964e-05
4.47304e-05
4.43858e-05
4.46711e-05
4.45761e-05
4.39411e-05
4.41791e-05
4.5357e-05
4.68449e-05
4.73882e-05
4.73568e-05
4.69526e-05
4.59171e-05
4.39613e-05
4.27642e-05
4.26525e-05
4.28103e-05
4.33251e-05
4.38449e-05
4.3818e-05
4.22565e-05
3.78971e-05
3.39904e-05
2.88846e-05
2.41196e-05
2.12779e-05
1.9503e-05
1.87654e-05
1.88129e-05
1.98103e-05
2.09637e-05
2.12401e-05
2.13361e-05
2.1557e-05
2.21057e-05
2.34242e-05
2.6432e-05
3.37897e-05
4.34898e-05
4.98457e-05
5.28996e-05
5.41129e-05
5.41625e-05
5.34445e-05
5.16624e-05
5.01526e-05
4.85211e-05
4.66071e-05
4.50408e-05
4.44488e-05
4.3573e-05
4.25038e-05
4.22889e-05
4.24614e-05
4.27876e-05
4.4297e-05
4.66066e-05
4.93274e-05
5.7114e-05
7.20146e-05
7.63249e-05
7.33625e-05
5.64643e-05
4.0873e-05
3.39908e-05
3.25883e-05
3.14267e-05
2.721e-05
2.38924e-05
2.1906e-05
2.12284e-05
2.04896e-05
2.03169e-05
2.04809e-05
2.10157e-05
2.22e-05
2.36936e-05
2.49227e-05
2.50543e-05
2.55345e-05
2.626e-05
2.80479e-05
3.34714e-05
3.83169e-05
4.13131e-05
4.29055e-05
4.3627e-05
4.7981e-05
5.08391e-05
5.07499e-05
4.62072e-05
3.87229e-05
3.26071e-05
2.94784e-05
2.91743e-05
2.9673e-05
2.99127e-05
3.06032e-05
3.13969e-05
3.19777e-05
3.2015e-05
3.18146e-05
3.05884e-05
2.92724e-05
2.91746e-05
3.07769e-05
3.13446e-05
3.13569e-05
3.35006e-05
3.67295e-05
3.88412e-05
4.02507e-05
4.15948e-05
4.62506e-05
5.18705e-05
5.49378e-05
5.58025e-05
5.55648e-05
5.54051e-05
5.54623e-05
5.50396e-05
5.35733e-05
4.87492e-05
4.07994e-05
3.29735e-05
2.64237e-05
2.20795e-05
2.00963e-05
1.99904e-05
1.98063e-05
1.93465e-05
2.35714e-05
3.39194e-05
3.67182e-05
3.88509e-05
3.92747e-05
3.90117e-05
3.69125e-05
3.48575e-05
3.38962e-05
3.48508e-05
3.44996e-05
4.24693e-05
4.36239e-05
5.7269e-05
8.75159e-05
0.000156031
0.000140728
0.000124371
9.61421e-05
6.66485e-05
4.35793e-05
2.81929e-05
1.98487e-05
1.46375e-05
1.41937e-05
1.09924e-05
1.42203e-05
1.43108e-05
1.58377e-05
1.95439e-05
1.90087e-05
2.30624e-05
4.24723e-05
7.66463e-05
9.36924e-05
9.41221e-05
9.06471e-05
7.5187e-05
6.41138e-05
5.63561e-05
5.29998e-05
5.3427e-05
5.27509e-05
4.76449e-05
4.46358e-05
4.35293e-05
4.29474e-05
4.19748e-05
4.19143e-05
4.48611e-05
5.78862e-05
6.23379e-05
6.06721e-05
4.48821e-05
3.19136e-05
3.18225e-05
4.16319e-05
6.65345e-05
9.38771e-05
0.000104237
0.000103676
9.582e-05
7.91775e-05
7.10055e-05
6.07821e-05
5.53285e-05
5.37847e-05
5.07665e-05
4.77527e-05
4.4601e-05
4.29044e-05
4.27819e-05
4.30299e-05
4.28815e-05
4.19293e-05
4.19336e-05
4.27761e-05
4.41015e-05
4.53256e-05
4.63117e-05
4.63481e-05
4.57891e-05
4.37489e-05
4.23784e-05
4.22577e-05
4.23689e-05
4.30439e-05
4.38864e-05
4.39231e-05
4.26754e-05
3.86625e-05
3.48412e-05
2.95357e-05
2.47047e-05
2.19085e-05
1.99353e-05
1.89394e-05
1.88782e-05
1.95499e-05
2.09593e-05
2.13823e-05
2.13872e-05
2.1453e-05
2.16829e-05
2.24438e-05
2.43988e-05
2.87688e-05
3.73121e-05
4.55368e-05
5.04405e-05
5.21414e-05
5.22458e-05
5.19601e-05
5.06065e-05
4.88947e-05
4.77441e-05
4.62387e-05
4.56272e-05
4.52809e-05
4.39854e-05
4.26178e-05
4.21698e-05
4.22576e-05
4.25469e-05
4.44999e-05
4.69174e-05
4.99199e-05
5.93469e-05
7.37937e-05
7.75994e-05
7.36949e-05
5.62818e-05
4.08592e-05
3.39127e-05
3.25792e-05
3.14313e-05
2.69345e-05
2.36731e-05
2.17051e-05
2.083e-05
2.02123e-05
1.99942e-05
2.01078e-05
2.05701e-05
2.17512e-05
2.33553e-05
2.43269e-05
2.47209e-05
2.54718e-05
2.6168e-05
2.82349e-05
3.36698e-05
3.84878e-05
4.13483e-05
4.28188e-05
4.35e-05
4.77857e-05
5.04475e-05
5.03459e-05
4.54263e-05
3.83324e-05
3.2398e-05
2.96471e-05
2.95134e-05
2.97576e-05
3.00913e-05
3.13817e-05
3.1657e-05
3.15944e-05
3.13868e-05
3.12959e-05
3.0376e-05
2.97621e-05
3.00625e-05
3.17038e-05
3.15625e-05
3.14303e-05
3.38331e-05
3.73263e-05
3.95465e-05
4.08664e-05
4.28793e-05
4.88233e-05
5.4092e-05
5.63251e-05
5.65676e-05
5.58635e-05
5.55433e-05
5.56925e-05
5.53942e-05
5.38449e-05
4.8475e-05
4.10846e-05
3.33847e-05
2.67556e-05
2.25644e-05
2.09543e-05
2.08902e-05
2.06077e-05
2.11041e-05
3.03869e-05
3.95096e-05
4.04516e-05
4.11697e-05
4.13468e-05
4.14141e-05
4.00789e-05
3.87699e-05
3.54091e-05
3.74982e-05
3.60782e-05
4.57867e-05
4.46827e-05
5.30342e-05
7.60225e-05
0.000107752
9.39578e-05
7.66266e-05
5.65134e-05
3.96351e-05
2.61051e-05
1.75416e-05
1.40646e-05
1.08891e-05
1.13373e-05
9.56365e-06
1.22777e-05
1.409e-05
1.38076e-05
1.91033e-05
1.90251e-05
2.0429e-05
3.0791e-05
5.80691e-05
8.29451e-05
9.06788e-05
8.99084e-05
8.51778e-05
7.28834e-05
6.04762e-05
5.54007e-05
5.47874e-05
5.11849e-05
4.61459e-05
4.38183e-05
4.30666e-05
4.24071e-05
4.21903e-05
4.27622e-05
5.07514e-05
6.22399e-05
6.36081e-05
5.78372e-05
3.80924e-05
3.04068e-05
3.36883e-05
4.97772e-05
7.7898e-05
9.95333e-05
0.00010514
0.000102965
8.93889e-05
7.55949e-05
6.67883e-05
5.62681e-05
5.31051e-05
5.19007e-05
4.85004e-05
4.52794e-05
4.22016e-05
4.0869e-05
4.10035e-05
4.14965e-05
4.13763e-05
4.08831e-05
4.09389e-05
4.15529e-05
4.22272e-05
4.29611e-05
4.44502e-05
4.52118e-05
4.52407e-05
4.37582e-05
4.22269e-05
4.20799e-05
4.20996e-05
4.27336e-05
4.39486e-05
4.40285e-05
4.29753e-05
3.94278e-05
3.55638e-05
3.00227e-05
2.5297e-05
2.26241e-05
2.05027e-05
1.91408e-05
1.89026e-05
1.93127e-05
2.08721e-05
2.15736e-05
2.15287e-05
2.136e-05
2.13731e-05
2.17636e-05
2.32062e-05
2.63104e-05
3.23702e-05
4.05693e-05
4.6573e-05
4.98655e-05
5.04116e-05
5.02207e-05
4.92273e-05
4.80375e-05
4.73942e-05
4.63977e-05
4.60041e-05
4.5599e-05
4.4099e-05
4.2281e-05
4.14372e-05
4.14713e-05
4.20387e-05
4.46965e-05
4.71449e-05
5.04748e-05
6.15588e-05
7.5499e-05
7.86869e-05
7.39776e-05
5.64214e-05
4.12254e-05
3.39777e-05
3.26943e-05
3.15253e-05
2.67993e-05
2.35465e-05
2.16896e-05
2.05632e-05
2.00607e-05
1.9798e-05
1.98529e-05
2.0213e-05
2.11669e-05
2.29904e-05
2.39051e-05
2.4611e-05
2.54798e-05
2.61473e-05
2.86571e-05
3.39295e-05
3.8663e-05
4.14589e-05
4.27356e-05
4.34321e-05
4.76476e-05
5.00516e-05
4.99189e-05
4.46646e-05
3.77549e-05
3.20673e-05
2.96733e-05
2.95807e-05
2.97436e-05
3.04831e-05
3.17838e-05
3.17773e-05
3.11192e-05
3.06919e-05
3.07031e-05
3.02204e-05
3.00765e-05
3.10871e-05
3.21235e-05
3.1648e-05
3.14785e-05
3.43596e-05
3.81659e-05
4.03286e-05
4.17652e-05
4.45005e-05
5.15015e-05
5.59975e-05
5.74728e-05
5.73543e-05
5.59667e-05
5.55067e-05
5.57387e-05
5.54728e-05
5.38238e-05
4.82027e-05
4.14254e-05
3.38976e-05
2.72691e-05
2.34086e-05
2.19123e-05
2.17256e-05
2.17621e-05
2.49354e-05
3.37996e-05
4.16404e-05
4.17202e-05
4.20948e-05
4.18335e-05
4.30617e-05
4.18644e-05
4.19462e-05
3.82981e-05
4.11514e-05
3.84589e-05
4.8959e-05
4.62514e-05
5.03441e-05
6.70225e-05
6.18356e-05
5.16873e-05
4.18514e-05
3.1503e-05
2.26292e-05
1.52565e-05
1.1145e-05
1.02677e-05
8.50004e-06
8.78731e-06
7.64015e-06
8.2649e-06
1.30567e-05
1.2603e-05
1.71383e-05
1.86742e-05
2.00672e-05
2.4677e-05
3.64641e-05
5.46057e-05
7.92614e-05
9.07714e-05
9.28284e-05
8.75878e-05
6.86445e-05
6.05284e-05
5.69106e-05
5.1259e-05
4.62159e-05
4.3834e-05
4.28942e-05
4.26092e-05
4.29147e-05
4.52283e-05
5.86336e-05
6.53852e-05
6.45876e-05
5.1146e-05
3.334e-05
2.99104e-05
3.77797e-05
6.09494e-05
8.66384e-05
0.000103246
0.000105407
0.000101355
8.37501e-05
7.05264e-05
6.17191e-05
5.37819e-05
5.10076e-05
4.9128e-05
4.48399e-05
4.20858e-05
3.91784e-05
3.81893e-05
3.83959e-05
3.90105e-05
3.92774e-05
3.9542e-05
4.0134e-05
4.10634e-05
4.12098e-05
4.14368e-05
4.23969e-05
4.3626e-05
4.40117e-05
4.32313e-05
4.18011e-05
4.16645e-05
4.16795e-05
4.24596e-05
4.39975e-05
4.41076e-05
4.32355e-05
4.01495e-05
3.60134e-05
3.04091e-05
2.59626e-05
2.31801e-05
2.09472e-05
1.93199e-05
1.8926e-05
1.92575e-05
2.08403e-05
2.17241e-05
2.1722e-05
2.14336e-05
2.12419e-05
2.14021e-05
2.25069e-05
2.57862e-05
2.97569e-05
3.70589e-05
4.2855e-05
4.63062e-05
4.80666e-05
4.8289e-05
4.79088e-05
4.73526e-05
4.71449e-05
4.65601e-05
4.61205e-05
4.55075e-05
4.3234e-05
4.10291e-05
4.02481e-05
4.03878e-05
4.16775e-05
4.49075e-05
4.73345e-05
5.10355e-05
6.37286e-05
7.67347e-05
7.96268e-05
7.41658e-05
5.71242e-05
4.22197e-05
3.43359e-05
3.30154e-05
3.17798e-05
2.67876e-05
2.35092e-05
2.17637e-05
2.05366e-05
2.00174e-05
1.97246e-05
1.97139e-05
1.99478e-05
2.1e-05
2.27827e-05
2.36203e-05
2.46592e-05
2.554e-05
2.61769e-05
2.95176e-05
3.43314e-05
3.8955e-05
4.16531e-05
4.27352e-05
4.34371e-05
4.75637e-05
4.96679e-05
4.94547e-05
4.40699e-05
3.70238e-05
3.13684e-05
2.94554e-05
2.93048e-05
2.94902e-05
3.05415e-05
3.17796e-05
3.15156e-05
3.04066e-05
2.98179e-05
3.00036e-05
2.99628e-05
3.03679e-05
3.18248e-05
3.23474e-05
3.15057e-05
3.14169e-05
3.52173e-05
3.90884e-05
4.10729e-05
4.27763e-05
4.69373e-05
5.39989e-05
5.77826e-05
5.86217e-05
5.77746e-05
5.57064e-05
5.52024e-05
5.55703e-05
5.53133e-05
5.34757e-05
4.81561e-05
4.16556e-05
3.38542e-05
2.73671e-05
2.4003e-05
2.30456e-05
2.30623e-05
2.44278e-05
3.02707e-05
3.42962e-05
4.16132e-05
4.18713e-05
4.32162e-05
4.2552e-05
4.6124e-05
4.39652e-05
4.67377e-05
4.27139e-05
4.88053e-05
4.36349e-05
5.40953e-05
4.92532e-05
5.04578e-05
6.11127e-05
3.25849e-05
2.70466e-05
2.24068e-05
1.69171e-05
1.22252e-05
8.89743e-06
7.51526e-06
7.45628e-06
7.00338e-06
6.35728e-06
6.27286e-06
6.11009e-06
1.06408e-05
1.07627e-05
1.30431e-05
1.66199e-05
1.80017e-05
2.1732e-05
2.79955e-05
3.86479e-05
6.85957e-05
9.13825e-05
9.57088e-05
9.35677e-05
8.01733e-05
6.83567e-05
6.07021e-05
5.29008e-05
4.7294e-05
4.44071e-05
4.36873e-05
4.38354e-05
4.51308e-05
5.23947e-05
6.52976e-05
6.73766e-05
6.29802e-05
4.18574e-05
2.97912e-05
3.02832e-05
4.53144e-05
7.16502e-05
9.34178e-05
0.000105315
0.00010522
9.87117e-05
7.69546e-05
6.69183e-05
5.88811e-05
5.11017e-05
4.73237e-05