/*--------------------------------*- C++ -*----------------------------------*\
| =========                 |                                                 |
| \\      /  F ield         | OpenFOAM: The Open Source CFD Toolbox           |
|  \\    /   O peration     | Version:  2.4.0                                 |
|   \\  /    A nd           | Web:      www.OpenFOAM.org                      |
|    \\/     M anipulation  |                                                 |
\*---------------------------------------------------------------------------*/
FoamFile
{
    version     2.0;
    format      ascii;
    class       volVectorField;
    location    "0.098";
    object      UMean;
}
// * * * * * * * * * * * * * * * * * * * * * * * * * * * * * * * * * * * * * //

dimensions      [0 1 -1 0 0 0 0];

internalField   nonuniform List<vector> 
17600
(
(5.35448 0.30648 0)
(3.06938 0.0607981 0)
(2.2994 -0.00131346 0)
(1.96144 -0.00351417 0)
(1.82737 -0.00132882 0)
(1.7411 -0.000202708 0)
(1.67898 -4.56325e-06 0)
(1.62652 -4.16122e-05 0)
(1.59363 -0.000118193 0)
(1.562 -1.79212e-05 0)
(1.54477 -3.95112e-05 0)
(1.51996 0.000106536 0)
(1.50852 -2.63387e-06 0)
(1.48622 8.18464e-05 0)
(1.4801 -8.07527e-05 0)
(1.46355 -8.0466e-05 0)
(1.46304 -0.000249468 0)
(1.46516 -8.99865e-05 0)
(1.49067 -0.00281921 0)
(1.45828 -0.0198238 0)
(8.5899 0.860862 0)
(7.01749 0.376656 0)
(5.92275 0.118393 0)
(5.19286 0.048755 0)
(4.80809 0.0261358 0)
(4.55511 0.0183517 0)
(4.38256 0.013992 0)
(4.23683 0.0104511 0)
(4.14374 0.00773602 0)
(4.05196 0.00613401 0)
(4.00289 0.00499134 0)
(3.9325 0.00480086 0)
(3.90297 0.00391569 0)
(3.84057 0.00404795 0)
(3.82489 0.00241559 0)
(3.77595 0.00314398 0)
(3.76944 -0.000288487 0)
(3.76377 -0.000697918 0)
(3.75674 -0.00204585 0)
(3.90581 -0.098424 0)
(9.82206 1.00683 0)
(9.37266 0.564375 0)
(8.55188 0.233235 0)
(7.74916 0.12438 0)
(7.22594 0.0762793 0)
(6.85534 0.0522265 0)
(6.60237 0.0388444 0)
(6.38391 0.0291527 0)
(6.2441 0.0221705 0)
(6.10109 0.0173685 0)
(6.02674 0.0143384 0)
(5.91633 0.0127153 0)
(5.87426 0.0110141 0)
(5.77635 0.0101357 0)
(5.75585 0.00752036 0)
(5.67408 0.00712231 0)
(5.67217 0.00186855 0)
(5.6271 0.00061959 0)
(5.65221 -0.0131898 0)
(5.72745 -0.12059 0)
(10.1175 0.932633 0)
(10.5591 0.651188 0)
(10.2853 0.317675 0)
(9.69361 0.200359 0)
(9.19653 0.138041 0)
(8.78904 0.0977754 0)
(8.50133 0.0728792 0)
(8.23611 0.0549073 0)
(8.06888 0.0423182 0)
(7.8859 0.0331957 0)
(7.79558 0.0273569 0)
(7.65105 0.0242239 0)
(7.60236 0.0205168 0)
(7.47326 0.0198002 0)
(7.45256 0.0137326 0)
(7.33795 0.0157433 0)
(7.35033 0.00278563 0)
(7.24682 0.00810833 0)
(7.33241 -0.0321701 0)
(7.26334 -0.103069 0)
(10.0376 0.793712 0)
(10.8962 0.651746 0)
(11.1201 0.342114 0)
(10.8899 0.243676 0)
(10.5924 0.189983 0)
(10.2631 0.143842 0)
(10.0154 0.110397 0)
(9.74856 0.0842957 0)
(9.58704 0.06615 0)
(9.38442 0.0518489 0)
(9.29528 0.0435109 0)
(9.12744 0.037113 0)
(9.0825 0.0331731 0)
(8.92852 0.0289085 0)
(8.91618 0.0251229 0)
(8.77286 0.0192451 0)
(8.79687 0.0168182 0)
(8.66735 -0.00171538 0)
(8.73365 -0.00951713 0)
(8.6714 -0.152105 0)
(9.95721 0.681516 0)
(10.8339 0.619789 0)
(11.2865 0.320183 0)
(11.3367 0.239618 0)
(11.3014 0.209598 0)
(11.149 0.173228 0)
(11.0341 0.140169 0)
(10.8347 0.110809 0)
(10.7292 0.0890553 0)
(10.5437 0.0713156 0)
(10.4796 0.0596352 0)
(10.3124 0.0521656 0)
(10.2804 0.0444357 0)
(10.123 0.0423421 0)
(10.1169 0.0310075 0)
(9.96953 0.0337189 0)
(9.99447 0.0116822 0)
(9.85918 0.0224864 0)
(9.91458 -0.0412592 0)
(9.82509 -0.104109 0)
(9.94352 0.593444 0)
(10.7108 0.587595 0)
(11.2077 0.292334 0)
(11.3451 0.210735 0)
(11.4589 0.19734 0)
(11.448 0.175839 0)
(11.4914 0.150538 0)
(11.4061 0.123028 0)
(11.4094 0.103185 0)
(11.2877 0.0842109 0)
(11.2874 0.0734196 0)
(11.1512 0.0631405 0)
(11.1582 0.0579218 0)
(11.0142 0.0500217 0)
(11.0352 0.0456858 0)
(10.8893 0.0347168 0)
(10.9368 0.0294561 0)
(10.7914 0.0117907 0)
(10.8658 -0.0268366 0)
(10.7378 -0.100857 0)
(9.95646 0.515118 0)
(10.6109 0.552307 0)
(11.1111 0.275084 0)
(11.2571 0.184797 0)
(11.41 0.176296 0)
(11.4344 0.164701 0)
(11.5543 0.145374 0)
(11.5425 0.120927 0)
(11.6352 0.102661 0)
(11.5922 0.0867881 0)
(11.6653 0.0761443 0)
(11.5975 0.0692393 0)
(11.6545 0.0613527 0)
(11.5663 0.0587641 0)
(11.6153 0.0474213 0)
(11.5149 0.0460476 0)
(11.5717 0.0263059 0)
(11.4651 0.0233845 0)
(11.5332 -0.0340112 0)
(11.4132 -0.0935116 0)
(9.96919 0.445645 0)
(10.5343 0.508954 0)
(11.0274 0.2625 0)
(11.1857 0.162321 0)
(11.3419 0.15614 0)
(11.3708 0.150743 0)
(11.4941 0.136159 0)
(11.5086 0.112534 0)
(11.6178 0.0956628 0)
(11.6224 0.0802126 0)
(11.721 0.0720098 0)
(11.7132 0.0652815 0)
(11.7991 0.0604045 0)
(11.7756 0.056352 0)
(11.8491 0.0488628 0)
(11.8142 0.0441722 0)
(11.8813 0.0275909 0)
(11.8394 0.0226332 0)
(11.9017 -0.0448532 0)
(11.817 -0.0872109 0)
(9.97205 0.383178 0)
(10.477 0.462723 0)
(10.9469 0.250664 0)
(11.1339 0.141752 0)
(11.2782 0.136445 0)
(11.3245 0.137218 0)
(11.425 0.125963 0)
(11.4613 0.104215 0)
(11.5505 0.0868007 0)
(11.5838 0.0727043 0)
(11.6669 0.0645867 0)
(11.6935 0.0591659 0)
(11.7701 0.0545374 0)
(11.7887 0.0512761 0)
(11.8561 0.044419 0)
(11.8745 0.0381077 0)
(11.931 0.0253843 0)
(11.9514 0.00604815 0)
(11.9968 -0.0426472 0)
(11.9508 -0.136002 0)
(9.96525 0.326729 0)
(10.4331 0.416548 0)
(10.8706 0.238911 0)
(11.0908 0.122702 0)
(11.2198 0.11743 0)
(11.2879 0.123902 0)
(11.365 0.115508 0)
(11.4211 0.0961393 0)
(11.4902 0.078361 0)
(11.5432 0.0654298 0)
(11.6092 0.0571791 0)
(11.6527 0.0533472 0)
(11.7167 0.0476089 0)
(11.7504 0.046352 0)
(11.8089 0.036829 0)
(11.8436 0.0342246 0)
(11.8918 0.0150386 0)
(11.9315 0.000925234 0)
(11.9653 -0.0600201 0)
(11.9237 -0.157337 0)
(9.96024 0.276512 0)
(10.3918 0.3702 0)
(10.807 0.226446 0)
(11.0452 0.104718 0)
(11.1738 0.0995463 0)
(11.249 0.109959 0)
(11.3182 0.10507 0)
(11.3788 0.0871834 0)
(11.4438 0.0706058 0)
(11.5008 0.0576151 0)
(11.5638 0.0513181 0)
(11.6106 0.046581 0)
(11.6728 0.0431257 0)
(11.7065 0.0393346 0)
(11.7675 0.0327411 0)
(11.7971 0.0245173 0)
(11.8514 0.01045 0)
(11.8825 -0.0151221 0)
(11.916 -0.0698789 0)
(11.8607 -0.174532 0)
(9.9598 0.232345 0)
(10.3537 0.323774 0)
(10.7528 0.210607 0)
(11.001 0.0887564 0)
(11.1356 0.0829251 0)
(11.2123 0.0958786 0)
(11.2778 0.0938956 0)
(11.3397 0.0776672 0)
(11.4029 0.0625149 0)
(11.4629 0.0499544 0)
(11.5231 0.0449849 0)
(11.5756 0.0400822 0)
(11.6311 0.0375305 0)
(11.6716 0.033388 0)
(11.727 0.0267346 0)
(11.7587 0.0184417 0)
(11.8123 0.00241138 0)
(11.8402 -0.0265706 0)
(11.8672 -0.0789474 0)
(11.8075 -0.189186 0)
(9.95905 0.192391 0)
(10.3229 0.279096 0)
(10.7052 0.188513 0)
(10.9628 0.0760302 0)
(11.1019 0.0684264 0)
(11.1817 0.0824396 0)
(11.2422 0.0823246 0)
(11.3066 0.0680469 0)
(11.3664 0.0543404 0)
(11.4313 0.0426267 0)
(11.4875 0.0385487 0)
(11.5466 0.0338492 0)
(11.5936 0.0322373 0)
(11.6451 0.0265962 0)
(11.6878 0.0212329 0)
(11.7316 0.0102963 0)
(11.7741 -0.00564372 0)
(11.808 -0.0363145 0)
(11.8218 -0.089537 0)
(11.7672 -0.19781 0)
(9.95908 0.156229 0)
(10.2964 0.235522 0)
(10.6671 0.161827 0)
(10.9287 0.0647902 0)
(11.0758 0.0559866 0)
(11.155 0.0689524 0)
(11.2153 0.0706611 0)
(11.2767 0.0578852 0)
(11.3391 0.0462417 0)
(11.4026 0.0353563 0)
(11.4616 0.0323968 0)
(11.5187 0.0277011 0)
(11.567 0.0266386 0)
(11.6193 0.0204816 0)
(11.6585 0.0155885 0)
(11.7074 0.00271023 0)
(11.7433 -0.0127885 0)
(11.7786 -0.0460722 0)
(11.7866 -0.0988777 0)
(11.7289 -0.203098 0)
(9.96106 0.123569 0)
(10.2736 0.192064 0)
(10.6371 0.133265 0)
(10.8985 0.0540503 0)
(11.0559 0.0441621 0)
(11.1322 0.0557169 0)
(11.1947 0.0582563 0)
(11.251 0.0475467 0)
(11.3182 0.0378212 0)
(11.3774 0.0282626 0)
(11.4419 0.0260294 0)
(11.4936 0.0215846 0)
(11.5485 0.0204928 0)
(11.5936 0.014267 0)
(11.6391 0.00907547 0)
(11.6827 -0.00449181 0)
(11.72 -0.0204062 0)
(11.7506 -0.0550209 0)
(11.7598 -0.107784 0)
(11.69 -0.205957 0)
(9.96222 0.0937002 0)
(10.2566 0.148465 0)
(10.6118 0.104492 0)
(10.8758 0.0426684 0)
(11.0391 0.033507 0)
(11.1154 0.0422837 0)
(11.1767 0.0459819 0)
(11.2318 0.0366129 0)
(11.2999 0.029587 0)
(11.3584 0.0211741 0)
(11.4245 0.0199281 0)
(11.475 0.0154462 0)
(11.5322 0.0148044 0)
(11.5726 0.00812981 0)
(11.6242 0.00278663 0)
(11.6601 -0.0114341 0)
(11.7017 -0.0280385 0)
(11.727 -0.0635887 0)
(11.7363 -0.115155 0)
(11.6553 -0.207572 0)
(9.96142 0.0657138 0)
(10.2453 0.105403 0)
(10.5917 0.075177 0)
(10.8604 0.0311158 0)
(11.0247 0.0231564 0)
(11.1041 0.0298785 0)
(11.1617 0.0328752 0)
(11.2192 0.0262617 0)
(11.2844 0.0207782 0)
(11.346 0.0147605 0)
(11.4096 0.0132963 0)
(11.4633 0.0097417 0)
(11.5168 0.00850626 0)
(11.56 0.00215553 0)
(11.61 -0.00364222 0)
(11.6444 -0.0182281 0)
(11.686 -0.0350577 0)
(11.7103 -0.0721924 0)
(11.7134 -0.12086 0)
(11.6299 -0.209263 0)
(9.96085 0.039428 0)
(10.2378 0.0621797 0)
(10.5792 0.0461109 0)
(10.8497 0.0181047 0)
(11.0152 0.0143787 0)
(11.0966 0.0167014 0)
(11.1523 0.0206831 0)
(11.211 0.0145971 0)
(11.2742 0.013066 0)
(11.3381 0.00713011 0)
(11.3997 0.00782607 0)
(11.4562 0.0028229 0)
(11.5054 0.00335458 0)
(11.5542 -0.00507025 0)
(11.5976 -0.00908706 0)
(11.6364 -0.0254263 0)
(11.6736 -0.0421618 0)
(11.6987 -0.0789869 0)
(11.6947 -0.127865 0)
(11.6132 -0.208485 0)
(9.96148 0.0137394 0)
(10.2334 0.0196204 0)
(10.5739 0.016304 0)
(10.8431 0.00530439 0)
(11.0119 0.00514371 0)
(11.0923 0.00490593 0)
(11.1489 0.00699707 0)
(11.2061 0.0044416 0)
(11.27 0.00366478 0)
(11.3334 0.00143688 0)
(11.396 0.000349536 0)
(11.4514 -0.00164732 0)
(11.5013 -0.00449896 0)
(11.5505 -0.00934832 0)
(11.5913 -0.017626 0)
(11.6317 -0.0297317 0)
(11.6666 -0.0520946 0)
(11.6894 -0.0830298 0)
(11.6839 -0.135864 0)
(11.6001 -0.210903 0)
(9.96155 -0.0114064 0)
(10.2335 -0.0232905 0)
(10.5738 -0.0130322 0)
(10.8429 -0.00848477 0)
(11.0126 -0.00305091 0)
(11.0917 -0.00786577 0)
(11.1494 -0.00544324 0)
(11.2054 -0.007205 0)
(11.2703 -0.00402308 0)
(11.333 -0.00624359 0)
(11.3967 -0.00476532 0)
(11.4498 -0.00883233 0)
(11.5028 -0.00897593 0)
(11.548 -0.0173371 0)
(11.591 -0.021128 0)
(11.6291 -0.0396246 0)
(11.6642 -0.0543604 0)
(11.6835 -0.0952853 0)
(11.6779 -0.132256 0)
(11.591 -0.225745 0)
(9.96051 -0.0370549 0)
(10.2385 -0.0659133 0)
(10.5789 -0.0426442 0)
(10.8495 -0.0215851 0)
(11.0162 -0.0119355 0)
(11.0958 -0.0200154 0)
(11.1535 -0.0186 0)
(11.21 -0.0179724 0)
(11.2745 -0.0127412 0)
(11.3378 -0.0128634 0)
(11.4001 -0.0112263 0)
(11.4537 -0.0145058 0)
(11.507 -0.0158784 0)
(11.5503 -0.0222807 0)
(11.5943 -0.0289156 0)
(11.6312 -0.0437811 0)
(11.6648 -0.0641772 0)
(11.6833 -0.096719 0)
(11.6744 -0.143618 0)
(11.5866 -0.205018 0)
(9.96034 -0.0635611 0)
(10.2467 -0.108792 0)
(10.5911 -0.0720244 0)
(10.8612 -0.0341246 0)
(11.0244 -0.0212774 0)
(11.1041 -0.0325495 0)
(11.1624 -0.0315121 0)
(11.219 -0.0288356 0)
(11.2838 -0.0212496 0)
(11.3467 -0.0196185 0)
(11.4079 -0.0173336 0)
(11.4626 -0.0204633 0)
(11.5146 -0.0220742 0)
(11.5578 -0.027811 0)
(11.6018 -0.0359087 0)
(11.6374 -0.0487768 0)
(11.6698 -0.0725955 0)
(11.6871 -0.0993264 0)
(11.6773 -0.153229 0)
(11.5879 -0.185709 0)
(9.96068 -0.0914745 0)
(10.2584 -0.152044 0)
(10.6105 -0.101099 0)
(10.8777 -0.0460314 0)
(11.0374 -0.0311063 0)
(11.1167 -0.0457917 0)
(11.1758 -0.0437394 0)
(11.2326 -0.0402348 0)
(11.2982 -0.0289434 0)
(11.3598 -0.0273338 0)
(11.4207 -0.022373 0)
(11.4762 -0.0278138 0)
(11.5263 -0.0261816 0)
(11.5703 -0.035728 0)
(11.6134 -0.0392206 0)
(11.6478 -0.0580858 0)
(11.6795 -0.0743269 0)
(11.6952 -0.111035 0)
(11.6852 -0.148677 0)
(11.592 -0.201002 0)
(9.95993 -0.121633 0)
(10.2752 -0.195142 0)
(10.636 -0.130501 0)
(10.9001 -0.0566017 0)
(11.0548 -0.0426117 0)
(11.134 -0.058276 0)
(11.1929 -0.0569467 0)
(11.2519 -0.0502686 0)
(11.3166 -0.0381111 0)
(11.3778 -0.0334939 0)
(11.4384 -0.0296322 0)
(11.4938 -0.0327976 0)
(11.5422 -0.0335311 0)
(11.5876 -0.0398426 0)
(11.6284 -0.0474815 0)
(11.6632 -0.0613627 0)
(11.6929 -0.0835094 0)
(11.7086 -0.113803 0)
(11.6965 -0.156004 0)
(11.6036 -0.201851 0)
(9.95873 -0.154212 0)
(10.2974 -0.238816 0)
(10.6676 -0.158732 0)
(10.9285 -0.0677875 0)
(11.0768 -0.0538269 0)
(11.1552 -0.0722286 0)
(11.2152 -0.0683048 0)
(11.2764 -0.0619291 0)
(11.3396 -0.0450857 0)
(11.4007 -0.0420555 0)
(11.461 -0.034238 0)
(11.515 -0.0406287 0)
(11.5639 -0.0372685 0)
(11.6085 -0.0476544 0)
(11.6488 -0.0511537 0)
(11.6827 -0.0690175 0)
(11.7115 -0.0876535 0)
(11.726 -0.120873 0)
(11.7134 -0.160777 0)
(11.6203 -0.199782 0)
(9.95831 -0.190741 0)
(10.3243 -0.281843 0)
(10.7063 -0.186142 0)
(10.9628 -0.0781633 0)
(11.1034 -0.0672388 0)
(11.1811 -0.0846571 0)
(11.2434 -0.0810346 0)
(11.3055 -0.071277 0)
(11.3678 -0.0538457 0)
(11.429 -0.048723 0)
(11.4881 -0.0408855 0)
(11.5415 -0.0463048 0)
(11.5908 -0.043064 0)
(11.634 -0.0532921 0)
(11.6746 -0.0565317 0)
(11.7066 -0.0749458 0)
(11.7356 -0.0926418 0)
(11.7475 -0.127614 0)
(11.7365 -0.165345 0)
(11.6425 -0.19983 0)
(9.96033 -0.23067 0)
(10.3556 -0.326584 0)
(10.7531 -0.208421 0)
(11.0028 -0.0909738 0)
(11.1358 -0.0813807 0)
(11.2127 -0.0983744 0)
(11.2776 -0.0923544 0)
(11.3399 -0.0812562 0)
(11.4019 -0.061612 0)
(11.463 -0.0564815 0)
(11.5202 -0.0467102 0)
(11.5744 -0.0528731 0)
(11.6219 -0.0478604 0)
(11.6658 -0.0596306 0)
(11.7045 -0.0608934 0)
(11.7368 -0.0813052 0)
(11.7635 -0.0965743 0)
(11.7756 -0.134853 0)
(11.7641 -0.169379 0)
(11.6725 -0.203771 0)
(9.96859 -0.275374 0)
(10.3886 -0.372359 0)
(10.8111 -0.224976 0)
(11.0436 -0.106279 0)
(11.1764 -0.0982831 0)
(11.2465 -0.111869 0)
(11.3191 -0.104032 0)
(11.377 -0.0904378 0)
(11.4433 -0.0699462 0)
(11.4996 -0.0640869 0)
(11.5592 -0.0530552 0)
(11.6102 -0.0592318 0)
(11.6592 -0.0528459 0)
(11.7012 -0.0658708 0)
(11.7403 -0.064928 0)
(11.7712 -0.0877872 0)
(11.7969 -0.0995564 0)
(11.8084 -0.142528 0)
(11.7964 -0.172645 0)
(11.7082 -0.212419 0)
(9.98399 -0.326072 0)
(10.4204 -0.418176 0)
(10.8832 -0.237826 0)
(11.0798 -0.123701 0)
(11.2296 -0.116695 0)
(11.277 -0.124939 0)
(11.3726 -0.115548 0)
(11.4118 -0.0984604 0)
(11.4961 -0.0788457 0)
(11.5344 -0.0707052 0)
(11.6097 -0.0603215 0)
(11.6448 -0.0644468 0)
(11.7081 -0.0588457 0)
(11.7361 -0.0707714 0)
(11.7869 -0.0699003 0)
(11.8055 -0.092622 0)
(11.8389 -0.103153 0)
(11.8395 -0.148329 0)
(11.8304 -0.176386 0)
(11.7367 -0.223629 0)
(9.99621 -0.382909 0)
(10.4563 -0.46391 0)
(10.9666 -0.249717 0)
(11.1138 -0.142432 0)
(11.295 -0.135932 0)
(11.3056 -0.137847 0)
(11.4408 -0.126396 0)
(11.4441 -0.106244 0)
(11.5647 -0.0876789 0)
(11.5666 -0.0774111 0)
(11.6765 -0.0679511 0)
(11.6758 -0.0696542 0)
(11.7713 -0.0653428 0)
(11.7633 -0.0754158 0)
(11.8413 -0.0749692 0)
(11.8225 -0.096821 0)
(11.874 -0.105623 0)
(11.8336 -0.153034 0)
(11.8273 -0.176733 0)
(11.6933 -0.23718 0)
(9.99084 -0.445591 0)
(10.5119 -0.509587 0)
(11.0492 -0.261906 0)
(11.1622 -0.162558 0)
(11.3629 -0.156179 0)
(11.3485 -0.150816 0)
(11.515 -0.137109 0)
(11.4868 -0.114114 0)
(11.6376 -0.0969373 0)
(11.5995 -0.0843267 0)
(11.7373 -0.0758817 0)
(11.6876 -0.0747512 0)
(11.806 -0.0715844 0)
(11.7395 -0.0790043 0)
(11.8322 -0.0786015 0)
(11.7449 -0.0987275 0)
(11.8006 -0.104374 0)
(11.6814 -0.154249 0)
(11.6622 -0.167958 0)
(11.4476 -0.248656 0)
(9.97094 -0.514998 0)
(10.5935 -0.552593 0)
(11.1298 -0.274875 0)
(11.2376 -0.184773 0)
(11.4296 -0.17685 0)
(11.4146 -0.164263 0)
(11.5744 -0.146805 0)
(11.5216 -0.121813 0)
(11.6543 -0.104718 0)
(11.5683 -0.0895799 0)
(11.681 -0.0811112 0)
(11.5671 -0.0764855 0)
(11.6589 -0.0741125 0)
(11.5183 -0.0770546 0)
(11.587 -0.0783448 0)
(11.4212 -0.092165 0)
(11.4562 -0.10074 0)
(11.2557 -0.141289 0)
(11.2109 -0.159851 0)
(10.9235 -0.230434 0)
(9.9527 -0.593214 0)
(10.6993 -0.587769 0)
(11.222 -0.292276 0)
(11.3311 -0.210836 0)
(11.4743 -0.197819 0)
(11.4319 -0.175541 0)
(11.5083 -0.151667 0)
(11.387 -0.124114 0)
(11.4257 -0.104603 0)
(11.2638 -0.0872343 0)
(11.2989 -0.0772074 0)
(11.1176 -0.0707136 0)
(11.1552 -0.067634 0)
(10.9561 -0.0686747 0)
(10.9919 -0.0696566 0)
(10.7721 -0.0807286 0)
(10.7892 -0.0888224 0)
(10.5314 -0.123897 0)
(10.4744 -0.140898 0)
(10.129 -0.20284 0)
(9.96268 -0.681307 0)
(10.8269 -0.619835 0)
(11.2961 -0.320371 0)
(11.327 -0.239716 0)
(11.3124 -0.210111 0)
(11.1361 -0.172869 0)
(11.0475 -0.14129 0)
(10.8171 -0.111495 0)
(10.7427 -0.0906547 0)
(10.5192 -0.0733989 0)
(10.4884 -0.0637062 0)
(10.2744 -0.0575389 0)
(10.2735 -0.0549416 0)
(10.0534 -0.055531 0)
(10.0665 -0.0569131 0)
(9.8266 -0.0656991 0)
(9.8301 -0.0738708 0)
(9.54579 -0.101824 0)
(9.4781 -0.118273 0)
(9.10256 -0.164561 0)
(10.0408 -0.793437 0)
(10.8922 -0.651887 0)
(11.1266 -0.34231 0)
(10.8831 -0.243779 0)
(10.5999 -0.190327 0)
(10.2531 -0.14361 0)
(10.0252 -0.111209 0)
(9.73353 -0.0849697 0)
(9.59652 -0.067288 0)
(9.36198 -0.0538011 0)
(9.29905 -0.0463805 0)
(9.09008 -0.0421909 0)
(9.06836 -0.0404427 0)
(8.85638 -0.0413723 0)
(8.85366 -0.0427858 0)
(8.61942 -0.0497743 0)
(8.61076 -0.057284 0)
(8.3244 -0.0772825 0)
(8.24854 -0.0955533 0)
(7.86905 -0.11157 0)
(10.1193 -0.932429 0)
(10.557 -0.651329 0)
(10.2896 -0.317841 0)
(9.68889 -0.200418 0)
(9.20112 -0.138259 0)
(8.78182 -0.0976422 0)
(8.50792 -0.0734484 0)
(8.22389 -0.0554375 0)
(8.07464 -0.0431779 0)
(7.86612 -0.0345612 0)
(7.79533 -0.0297006 0)
(7.61525 -0.0275773 0)
(7.58399 -0.0265069 0)
(7.39994 -0.0277952 0)
(7.38568 -0.0288169 0)
(7.17702 -0.0343284 0)
(7.15745 -0.0398439 0)
(6.88967 -0.0539535 0)
(6.81469 -0.0683101 0)
(6.4361 -0.0720066 0)
(9.82313 -1.00668 0)
(9.37185 -0.564497 0)
(8.55433 -0.233341 0)
(7.74604 -0.124419 0)
(7.22842 -0.0763725 0)
(6.8505 -0.0521898 0)
(6.60626 -0.0391746 0)
(6.37446 -0.0295372 0)
(6.24694 -0.0226661 0)
(6.08463 -0.0183061 0)
(6.02334 -0.0156781 0)
(5.8848 -0.0151358 0)
(5.85282 -0.0145213 0)
(5.70902 -0.015869 0)
(5.68781 -0.0163348 0)
(5.5201 -0.0202893 0)
(5.49155 -0.0234299 0)
(5.26482 -0.0323828 0)
(5.19365 -0.0418073 0)
(4.83835 -0.0407705 0)
(8.59053 -0.860798 0)
(7.01734 -0.376742 0)
(5.92383 -0.118433 0)
(5.19101 -0.0487694 0)
(4.80929 -0.026171 0)
(4.55197 -0.0183552 0)
(4.38457 -0.0141231 0)
(4.2303 -0.010671 0)
(4.14437 -0.00794417 0)
(4.03996 -0.0066032 0)
(3.998 -0.00564253 0)
(3.90834 -0.00590439 0)
(3.88236 -0.00559932 0)
(3.78712 -0.0065932 0)
(3.76497 -0.00662767 0)
(3.65046 -0.00887666 0)
(3.61872 -0.00996681 0)
(3.45645 -0.0146261 0)
(3.39086 -0.0186631 0)
(3.11052 -0.0176115 0)
(5.3547 -0.306458 0)
(3.06948 -0.0608221 0)
(2.29954 0.00131655 0)
(1.96071 0.00351813 0)
(1.82769 0.00132968 0)
(1.7399 0.000192451 0)
(1.67942 8.3909e-07 0)
(1.62379 -6.57793e-06 0)
(1.593 0.000118721 0)
(1.55662 -5.66244e-05 0)
(1.54103 -6.17841e-06 0)
(1.50837 -0.000275074 0)
(1.49606 -0.000141051 0)
(1.45957 -0.000463033 0)
(1.4463 -0.000269189 0)
(1.40014 -0.000796014 0)
(1.37933 -0.00057883 0)
(1.31 -0.00150541 0)
(1.26756 -0.00163135 0)
(1.14168 0.00565465 0)
(2.16903 -0.273229 0)
(2.58005 -0.227023 0)
(2.97214 -0.252702 0)
(3.36166 -0.255725 0)
(3.70054 -0.254517 0)
(4.08704 -0.259938 0)
(4.50313 -0.23778 0)
(4.96179 -0.272022 0)
(5.43454 -0.311395 0)
(5.87814 -0.367758 0)
(6.2801 -0.445076 0)
(6.62826 -0.550499 0)
(6.99517 -0.647932 0)
(7.26986 -0.728028 0)
(7.5533 -0.828507 0)
(7.7707 -0.929485 0)
(7.96282 -1.06768 0)
(8.10521 -1.20157 0)
(8.21086 -1.34138 0)
(8.33367 -1.50591 0)
(8.38145 -1.66784 0)
(8.45778 -1.82839 0)
(8.52699 -1.96514 0)
(8.61671 -2.09608 0)
(8.70808 -2.23423 0)
(8.78944 -2.36339 0)
(8.83318 -2.47142 0)
(8.85656 -2.55484 0)
(8.86262 -2.61486 0)
(8.87368 -2.65839 0)
(8.8608 -2.67116 0)
(8.8546 -2.66439 0)
(8.83077 -2.64275 0)
(8.7654 -2.61089 0)
(8.67717 -2.58811 0)
(8.55562 -2.58661 0)
(8.40472 -2.58892 0)
(8.25309 -2.56881 0)
(8.17911 -2.5345 0)
(8.15693 -2.50034 0)
(8.13789 -2.46306 0)
(8.1167 -2.42023 0)
(8.08453 -2.35687 0)
(8.04132 -2.26535 0)
(7.99897 -2.15715 0)
(7.98299 -2.05262 0)
(7.96948 -1.95632 0)
(7.92898 -1.85354 0)
(7.86272 -1.73651 0)
(7.80756 -1.63478 0)
(7.76869 -1.55016 0)
(7.73919 -1.44961 0)
(7.71307 -1.33635 0)
(7.68519 -1.2269 0)
(7.66972 -1.12692 0)
(7.65604 -1.04277 0)
(7.6478 -0.969895 0)
(7.63992 -0.898687 0)
(7.64033 -0.834808 0)
(7.61326 -0.776479 0)
(7.54418 -0.700568 0)
(7.44976 -0.615376 0)
(7.34665 -0.537901 0)
(7.23883 -0.468217 0)
(7.12251 -0.411688 0)
(7.01567 -0.370589 0)
(6.93182 -0.336906 0)
(6.8615 -0.305648 0)
(6.7892 -0.27053 0)
(6.7142 -0.231499 0)
(6.64604 -0.191056 0)
(6.57329 -0.156002 0)
(6.51201 -0.127276 0)
(6.44615 -0.103304 0)
(6.39079 -0.0938542 0)
(6.33465 -0.0783743 0)
(6.28544 -0.0684915 0)
(6.24017 -0.054417 0)
(6.19117 -0.0469656 0)
(6.14406 -0.0395955 0)
(6.09637 -0.0255637 0)
(6.05464 -0.0108368 0)
(6.01014 -0.00449616 0)
(5.96599 -0.0183641 0)
(5.92794 -0.0460774 0)
(5.8707 -0.0773172 0)
(5.81027 -0.100185 0)
(5.7405 -0.116165 0)
(5.68275 -0.151404 0)
(5.63917 -0.162604 0)
(5.57211 -0.176186 0)
(5.55232 -0.201159 0)
(5.51463 -0.205666 0)
(5.47786 -0.201179 0)
(5.45679 -0.194587 0)
(5.4347 -0.187537 0)
(5.43315 -0.163551 0)
(5.40389 -0.125925 0)
(5.42584 -0.108443 0)
(5.41673 -0.0778082 0)
(5.44839 -0.0414982 0)
(5.43191 0.0214703 0)
(5.46515 0.0490608 0)
(5.46907 0.081118 0)
(5.49958 0.0998089 0)
(5.49555 0.150937 0)
(5.52569 0.163362 0)
(5.53427 0.202301 0)
(5.56025 0.218396 0)
(5.57282 0.263828 0)
(5.58447 0.285579 0)
(5.60657 0.326922 0)
(5.61422 0.349383 0)
(5.64453 0.385836 0)
(5.6458 0.408912 0)
(5.68404 0.446487 0)
(5.67916 0.476176 0)
(5.7222 0.519037 0)
(5.7093 0.555932 0)
(5.75646 0.603636 0)
(5.73348 0.637275 0)
(5.78698 0.676599 0)
(5.75337 0.701652 0)
(5.81401 0.727382 0)
(5.76716 0.73273 0)
(5.83388 0.74395 0)
(5.76535 0.730145 0)
(5.83282 0.718319 0)
(5.7492 0.685346 0)
(5.83338 0.663359 0)
(5.73842 0.61936 0)
(5.84374 0.591071 0)
(5.73691 0.544092 0)
(5.85892 0.51706 0)
(5.7302 0.462768 0)
(5.84642 0.424614 0)
(5.69907 0.361594 0)
(5.79971 0.319961 0)
(5.65578 0.260874 0)
(5.73875 0.22226 0)
(5.60144 0.17278 0)
(5.67391 0.142222 0)
(5.5389 0.104235 0)
(5.603 0.0849777 0)
(5.47339 0.0623134 0)
(5.52953 0.0552958 0)
(5.41246 0.0487007 0)
(5.45907 0.0533767 0)
(5.35927 0.0615504 0)
(5.39698 0.0734978 0)
(5.31935 0.0911437 0)
(5.34898 0.102938 0)
(5.29586 0.12307 0)
(5.31569 0.129417 0)
(5.28666 0.150825 0)
(5.29233 0.153486 0)
(5.28682 0.179187 0)
(5.2745 0.180608 0)
(5.29318 0.211786 0)
(5.26063 0.21258 0)
(5.3043 0.248813 0)
(5.25081 0.249464 0)
(5.31914 0.290047 0)
(5.2453 0.292078 0)
(5.33604 0.336424 0)
(5.24478 0.341901 0)
(5.35337 0.389102 0)
(5.25051 0.400991 0)
(5.36927 0.449622 0)
(5.26417 0.4714 0)
(5.38209 0.519592 0)
(5.28809 0.5552 0)
(5.39085 0.600982 0)
(5.3234 0.654704 0)
(5.3957 0.697114 0)
(5.37002 0.77181 0)
(5.39977 0.812105 0)
(5.4238 0.90834 0)
(5.4082 0.95237 0)
(5.4754 1.06612 0)
(5.42724 1.12455 0)
(5.51387 1.24862 0)
(5.45842 1.33496 0)
(5.53514 1.46445 0)
(5.49449 1.58763 0)
(5.55118 1.72986 0)
(5.52317 1.88687 0)
(5.56923 2.05907 0)
(5.53172 2.24989 0)
(5.55925 2.47121 0)
(5.52135 2.7029 0)
(5.54482 2.99985 0)
(5.40754 3.3253 0)
(5.37341 3.6862 0)
(5.33532 4.17023 0)
(5.41646 4.63418 0)
(5.26371 5.31635 0)
(5.10415 6.40633 0)
(5.54784 7.41225 0)
(3.1174 10.6803 0)
(4.03637 -0.315304 0)
(4.18977 -0.315474 0)
(4.38072 -0.368027 0)
(4.61252 -0.38687 0)
(4.84502 -0.386478 0)
(5.12489 -0.398958 0)
(5.40146 -0.398262 0)
(5.6844 -0.43229 0)
(5.99299 -0.485423 0)
(6.30887 -0.545781 0)
(6.65084 -0.623681 0)
(6.96806 -0.715954 0)
(7.28874 -0.803002 0)
(7.57241 -0.867216 0)
(7.82678 -0.94486 0)
(8.05453 -1.02554 0)
(8.24963 -1.13791 0)
(8.38174 -1.25512 0)
(8.47453 -1.38706 0)
(8.60137 -1.54489 0)
(8.67356 -1.69877 0)
(8.75756 -1.85588 0)
(8.83582 -1.99788 0)
(8.94745 -2.1302 0)
(9.02674 -2.26252 0)
(9.09772 -2.38454 0)
(9.12216 -2.48421 0)
(9.14381 -2.56406 0)
(9.13949 -2.6215 0)
(9.12773 -2.65587 0)
(9.09193 -2.66413 0)
(9.05655 -2.65423 0)
(9.00263 -2.62388 0)
(8.93775 -2.58211 0)
(8.8587 -2.54725 0)
(8.73919 -2.52812 0)
(8.59004 -2.52287 0)
(8.44008 -2.5202 0)
(8.3608 -2.51095 0)
(8.32711 -2.4866 0)
(8.27907 -2.45276 0)
(8.22298 -2.40738 0)
(8.16006 -2.33724 0)
(8.09926 -2.2444 0)
(8.04966 -2.14343 0)
(8.02392 -2.043 0)
(7.99693 -1.94144 0)
(7.94825 -1.83143 0)
(7.87854 -1.71118 0)
(7.82072 -1.61415 0)
(7.77876 -1.53542 0)
(7.74481 -1.43821 0)
(7.70902 -1.3278 0)
(7.67663 -1.2164 0)
(7.65712 -1.1176 0)
(7.64292 -1.03593 0)
(7.63816 -0.96712 0)
(7.63044 -0.897348 0)
(7.61978 -0.825067 0)
(7.57235 -0.753322 0)
(7.49359 -0.666644 0)
(7.39979 -0.576029 0)
(7.29692 -0.493969 0)
(7.18816 -0.420869 0)
(7.07478 -0.365117 0)
(6.97192 -0.33146 0)
(6.88537 -0.303754 0)
(6.8084 -0.27402 0)
(6.72959 -0.237254 0)
(6.64854 -0.198901 0)
(6.57674 -0.160751 0)
(6.50419 -0.128856 0)
(6.44618 -0.102399 0)
(6.37994 -0.077479 0)
(6.32433 -0.0697484 0)
(6.2633 -0.055728 0)
(6.21318 -0.0470883 0)
(6.16476 -0.0346465 0)
(6.11214 -0.025888 0)
(6.05973 -0.0187359 0)
(6.00566 -0.00540146 0)
(5.95952 0.00725389 0)
(5.9203 0.0120057 0)
(5.88254 -0.000290189 0)
(5.8476 -0.0259618 0)
(5.79147 -0.0518498 0)
(5.72743 -0.0703283 0)
(5.65744 -0.0895244 0)
(5.59918 -0.128084 0)
(5.54849 -0.136482 0)
(5.48163 -0.160438 0)
(5.46292 -0.185568 0)
(5.41848 -0.189501 0)
(5.38194 -0.186074 0)
(5.35777 -0.188173 0)
(5.33906 -0.178814 0)
(5.32577 -0.157242 0)
(5.3087 -0.120565 0)
(5.31961 -0.114121 0)
(5.3204 -0.0787419 0)
(5.33673 -0.0449097 0)
(5.3304 0.0209013 0)
(5.35675 0.038251 0)
(5.36574 0.0767183 0)
(5.38823 0.0931164 0)
(5.38869 0.148396 0)
(5.41903 0.152188 0)
(5.42727 0.197607 0)
(5.45757 0.208109 0)
(5.46329 0.261907 0)
(5.48468 0.276195 0)
(5.49654 0.323517 0)
(5.5213 0.339528 0)
(5.53362 0.381206 0)
(5.56135 0.398853 0)
(5.57219 0.44037 0)
(5.60394 0.466962 0)
(5.60973 0.513039 0)
(5.64583 0.548181 0)
(5.64357 0.597391 0)
(5.68266 0.63097 0)
(5.67203 0.670294 0)
(5.71625 0.696852 0)
(5.69662 0.721269 0)
(5.74686 0.731364 0)
(5.71516 0.739088 0)
(5.76631 0.733691 0)
(5.71174 0.715211 0)
(5.76908 0.691733 0)
(5.70083 0.658183 0)
(5.77456 0.62542 0)
(5.69456 0.581343 0)
(5.79469 0.550154 0)
(5.69665 0.50542 0)
(5.8156 0.474649 0)
(5.68121 0.417857 0)
(5.8071 0.380877 0)
(5.64138 0.31736 0)
(5.7676 0.282616 0)
(5.59326 0.222736 0)
(5.71207 0.195524 0)
(5.5359 0.144635 0)
(5.65107 0.127908 0)
(5.47126 0.0887592 0)
(5.58544 0.0853037 0)
(5.4064 0.059675 0)
(5.51989 0.0696892 0)
(5.34664 0.0580947 0)
(5.45867 0.0789901 0)
(5.29798 0.0777649 0)
(5.40835 0.103435 0)
(5.26547 0.106417 0)
(5.37227 0.129619 0)
(5.24985 0.132956 0)
(5.34775 0.152164 0)
(5.24644 0.158559 0)
(5.3294 0.175829 0)
(5.25117 0.188206 0)
(5.31441 0.2038 0)
(5.26258 0.223035 0)
(5.30189 0.236167 0)
(5.28051 0.262836 0)
(5.29158 0.273077 0)
(5.3042 0.308044 0)
(5.28321 0.316009 0)
(5.33261 0.359437 0)
(5.27758 0.36675 0)
(5.36402 0.418268 0)
(5.27617 0.427703 0)
(5.39608 0.485484 0)
(5.28195 0.501115 0)
(5.42616 0.562425 0)
(5.29842 0.589703 0)
(5.4511 0.651092 0)
(5.32896 0.696008 0)
(5.46891 0.754798 0)
(5.37492 0.822899 0)
(5.48077 0.878738 0)
(5.43402 0.97227 0)
(5.49177 1.03008 0)
(5.49779 1.14649 0)
(5.50922 1.21717 0)
(5.55251 1.34895 0)
(5.5372 1.44593 0)
(5.58926 1.5892 0)
(5.57129 1.72267 0)
(5.61642 1.8842 0)
(5.61077 2.05524 0)
(5.64316 2.24902 0)
(5.64995 2.46736 0)
(5.64448 2.70984 0)
(5.69561 2.97218 0)
(5.75387 3.31651 0)
(5.72807 3.6736 0)
(5.62261 4.17411 0)
(5.60375 4.76865 0)
(5.50907 5.3924 0)
(5.28482 6.59508 0)
(6.78888 7.20504 0)
(4.44757 11.5001 0)
(5.81215 -0.29815 0)
(5.84213 -0.350377 0)
(5.96346 -0.411491 0)
(6.10204 -0.45049 0)
(6.25177 -0.465807 0)
(6.41111 -0.482808 0)
(6.57702 -0.49108 0)
(6.72336 -0.518753 0)
(6.90777 -0.577592 0)
(7.09987 -0.653713 0)
(7.33983 -0.740907 0)
(7.54639 -0.824617 0)
(7.7313 -0.909728 0)
(7.92315 -0.979438 0)
(8.0993 -1.04993 0)
(8.2787 -1.12784 0)
(8.46862 -1.22703 0)
(8.63504 -1.32372 0)
(8.76256 -1.44243 0)
(8.91215 -1.58377 0)
(9.02466 -1.72933 0)
(9.11782 -1.87829 0)
(9.18643 -2.02873 0)
(9.27629 -2.16776 0)
(9.34461 -2.29289 0)
(9.41099 -2.40465 0)
(9.4207 -2.49408 0)
(9.43394 -2.56738 0)
(9.39778 -2.61439 0)
(9.34662 -2.63715 0)
(9.2844 -2.64356 0)
(9.2172 -2.63208 0)
(9.13355 -2.59935 0)
(9.06858 -2.55562 0)
(9.0017 -2.51236 0)
(8.89583 -2.47607 0)
(8.77358 -2.4616 0)
(8.64646 -2.47257 0)
(8.55477 -2.4802 0)
(8.48717 -2.45974 0)
(8.40677 -2.42537 0)
(8.31615 -2.37805 0)
(8.22151 -2.30537 0)
(8.14887 -2.21937 0)
(8.09646 -2.12681 0)
(8.05621 -2.02388 0)
(8.01277 -1.91721 0)
(7.95811 -1.80585 0)
(7.8907 -1.6877 0)
(7.83104 -1.5951 0)
(7.78323 -1.51807 0)
(7.743 -1.42301 0)
(7.69949 -1.31616 0)
(7.66181 -1.20526 0)
(7.6409 -1.10917 0)
(7.62777 -1.03114 0)
(7.62365 -0.965168 0)
(7.60711 -0.891463 0)
(7.57556 -0.807057 0)
(7.51073 -0.724195 0)
(7.4287 -0.631713 0)
(7.33825 -0.536706 0)
(7.23476 -0.449439 0)
(7.12706 -0.374277 0)
(7.01927 -0.321081 0)
(6.92357 -0.29207 0)
(6.83378 -0.267795 0)
(6.74534 -0.239483 0)
(6.66099 -0.203167 0)
(6.57722 -0.164967 0)
(6.50295 -0.129537 0)
(6.4286 -0.10041 0)
(6.36891 -0.0774325 0)
(6.30669 -0.0521521 0)
(6.25057 -0.0439589 0)
(6.18513 -0.0315265 0)
(6.13489 -0.0253003 0)
(6.08447 -0.0130575 0)
(6.02703 -0.00266919 0)
(5.97184 0.00462222 0)
(5.91156 0.0175098 0)
(5.86029 0.0261477 0)
(5.82343 0.0269126 0)
(5.79195 0.015861 0)
(5.75844 -0.00627986 0)
(5.70325 -0.0264734 0)
(5.63822 -0.0408728 0)
(5.56957 -0.0632629 0)
(5.51361 -0.103179 0)
(5.45613 -0.110379 0)
(5.39159 -0.144813 0)
(5.37202 -0.168232 0)
(5.32052 -0.172763 0)
(5.28538 -0.170507 0)
(5.26033 -0.181246 0)
(5.23699 -0.168907 0)
(5.22404 -0.15187 0)
(5.205 -0.116808 0)
(5.22254 -0.120046 0)
(5.21222 -0.077631 0)
(5.23402 -0.0482488 0)
(5.21963 0.0201775 0)
(5.25706 0.0276629 0)
(5.25448 0.0742111 0)
(5.28474 0.0858612 0)
(5.27768 0.145919 0)
(5.31584 0.139391 0)
(5.31904 0.194286 0)
(5.35417 0.19659 0)
(5.35571 0.26191 0)
(5.38013 0.2643 0)
(5.3943 0.322043 0)
(5.41545 0.32642 0)
(5.43646 0.379345 0)
(5.45556 0.385387 0)
(5.48165 0.438206 0)
(5.49764 0.452704 0)
(5.52877 0.510914 0)
(5.54053 0.534234 0)
(5.57485 0.596365 0)
(5.57885 0.617528 0)
(5.61583 0.670398 0)
(5.61215 0.683113 0)
(5.65376 0.722107 0)
(5.64152 0.718697 0)
(5.68794 0.743039 0)
(5.66163 0.724391 0)
(5.70545 0.724033 0)
(5.66099 0.683771 0)
(5.7115 0.667961 0)
(5.65387 0.615043 0)
(5.72133 0.58963 0)
(5.65672 0.535962 0)
(5.74857 0.51508 0)
(5.66171 0.461087 0)
(5.76863 0.435143 0)
(5.6397 0.371516 0)