/*--------------------------------*- C++ -*----------------------------------*\
| =========                 |                                                 |
| \\      /  F ield         | OpenFOAM: The Open Source CFD Toolbox           |
|  \\    /   O peration     | Version:  2.4.0                                 |
|   \\  /    A nd           | Web:      www.OpenFOAM.org                      |
|    \\/     M anipulation  |                                                 |
\*---------------------------------------------------------------------------*/
FoamFile
{
    version     2.0;
    format      ascii;
    class       volScalarField;
    location    "0.051";
    object      k;
}
// * * * * * * * * * * * * * * * * * * * * * * * * * * * * * * * * * * * * * //

dimensions      [0 2 -2 0 0 0 0];

internalField   nonuniform List<scalar> 
17600
(
0.590242
0.786977
0.938818
1.04137
1.10104
1.12787
1.13171
1.12067
1.10079
1.07629
1.04999
1.02371
0.998592
0.975305
0.954221
0.935498
0.919147
0.90508
0.892944
0.884703
0.380328
0.378528
0.375866
0.373344
0.371175
0.369843
0.369905
0.37184
0.376007
0.382642
0.391864
0.403677
0.417971
0.434522
0.452989
0.472933
0.493837
0.515154
0.536772
0.556216
0.363748
0.349867
0.334429
0.31855
0.303052
0.288614
0.275769
0.264896
0.256243
0.249954
0.246108
0.244733
0.245831
0.249378
0.255327
0.263598
0.274076
0.28661
0.301179
0.317791
0.361465
0.347537
0.333149
0.318509
0.303939
0.289764
0.276271
0.263688
0.25219
0.241899
0.232901
0.225253
0.218992
0.214145
0.210733
0.208773
0.208282
0.209284
0.21187
0.216147
0.361236
0.347799
0.334532
0.321372
0.308383
0.29568
0.283387
0.271619
0.26047
0.250015
0.240309
0.231387
0.223277
0.215995
0.20955
0.203951
0.199204
0.195323
0.192341
0.190254
0.361254
0.348125
0.335506
0.323265
0.31135
0.299766
0.288544
0.277726
0.267352
0.257461
0.248081
0.239234
0.230934
0.223192
0.216011
0.209394
0.203338
0.197846
0.192919
0.188541
0.361278
0.348296
0.336005
0.324272
0.313005
0.302153
0.291692
0.281615
0.271927
0.262636
0.253751
0.245278
0.237223
0.229588
0.222375
0.21558
0.209202
0.203237
0.19768
0.192526
0.361288
0.348366
0.336226
0.324751
0.313844
0.303433
0.293466
0.283908
0.274736
0.265937
0.257502
0.249425
0.241701
0.234327
0.227297
0.220607
0.214252
0.208226
0.202524
0.197149
0.361291
0.348391
0.336314
0.324959
0.314237
0.304073
0.294403
0.285179
0.276362
0.267923
0.259841
0.252098
0.244681
0.237578
0.230781
0.22428
0.218067
0.212135
0.206478
0.201103
0.361291
0.348398
0.336345
0.325042
0.314408
0.304371
0.294868
0.285842
0.277251
0.269054
0.261224
0.253733
0.246561
0.239692
0.233109
0.226802
0.220759
0.214969
0.209425
0.204136
0.36129
0.348399
0.336353
0.325071
0.314476
0.304501
0.295083
0.286169
0.27771
0.269665
0.262
0.254683
0.247691
0.241
0.234592
0.22845
0.222562
0.216914
0.211496
0.206317
0.361289
0.348397
0.336354
0.325079
0.3145
0.304552
0.295176
0.286319
0.277934
0.269977
0.262414
0.25521
0.248337
0.241772
0.235492
0.229479
0.223716
0.218188
0.212884
0.207811
0.361288
0.348395
0.336352
0.325079
0.314506
0.304569
0.295213
0.286384
0.278036
0.270128
0.262623
0.255487
0.24869
0.242208
0.236016
0.230093
0.224423
0.218988
0.213775
0.20879
0.361288
0.348393
0.336349
0.325076
0.314505
0.304573
0.295224
0.286408
0.278079
0.270196
0.262722
0.255625
0.248873
0.242442
0.236306
0.230445
0.224838
0.219469
0.214324
0.209407
0.361287
0.348392
0.336347
0.325073
0.314502
0.304571
0.295225
0.286415
0.278094
0.270223
0.262766
0.255689
0.248963
0.242562
0.23646
0.230637
0.225072
0.219747
0.214649
0.209779
0.361287
0.348391
0.336345
0.32507
0.314499
0.304568
0.295223
0.286415
0.278098
0.270233
0.262783
0.255717
0.249005
0.24262
0.236538
0.230737
0.225198
0.219902
0.214834
0.209996
0.361286
0.34839
0.336343
0.325068
0.314496
0.304565
0.29522
0.286412
0.278097
0.270234
0.262788
0.255727
0.249022
0.242646
0.236575
0.230787
0.225262
0.219983
0.214934
0.210117
0.361286
0.348389
0.336342
0.325066
0.314494
0.304563
0.295218
0.28641
0.278095
0.270233
0.262789
0.25573
0.249028
0.242656
0.236591
0.23081
0.225294
0.220025
0.214986
0.210181
0.361286
0.348389
0.336341
0.325065
0.314493
0.304561
0.295216
0.286408
0.278093
0.270231
0.262788
0.25573
0.24903
0.24266
0.236597
0.23082
0.225308
0.220044
0.215012
0.210212
0.361286
0.348388
0.336341
0.325065
0.314492
0.30456
0.295215
0.286407
0.278092
0.270231
0.262787
0.25573
0.24903
0.242661
0.2366
0.230824
0.225314
0.220052
0.215022
0.210225
0.361286
0.348388
0.336341
0.325065
0.314492
0.30456
0.295215
0.286407
0.278092
0.270231
0.262787
0.25573
0.24903
0.242661
0.2366
0.230824
0.225314
0.220051
0.215021
0.210224
0.361286
0.348389
0.336341
0.325065
0.314493
0.304561
0.295216
0.286408
0.278093
0.270231
0.262788
0.25573
0.24903
0.24266
0.236597
0.23082
0.225308
0.220044
0.215011
0.21021
0.361286
0.348389
0.336342
0.325066
0.314494
0.304563
0.295218
0.28641
0.278095
0.270233
0.262789
0.25573
0.249028
0.242656
0.236591
0.23081
0.225294
0.220024
0.214985
0.210177
0.361286
0.34839
0.336343
0.325068
0.314496
0.304565
0.29522
0.286412
0.278097
0.270234
0.262788
0.255727
0.249022
0.242646
0.236574
0.230787
0.225262
0.219983
0.214932
0.210111
0.361287
0.348391
0.336345
0.32507
0.314499
0.304568
0.295223
0.286415
0.278098
0.270233
0.262783
0.255717
0.249005
0.24262
0.236538
0.230737
0.225197
0.219901
0.214831
0.209989
0.361287
0.348392
0.336347
0.325073
0.314502
0.304571
0.295225
0.286415
0.278094
0.270223
0.262766
0.255689
0.248963
0.242562
0.23646
0.230636
0.225071
0.219746
0.214646
0.209771
0.361288
0.348393
0.336349
0.325076
0.314505
0.304573
0.295224
0.286408
0.278079
0.270196
0.262722
0.255625
0.248873
0.242442
0.236306
0.230444
0.224837
0.219468
0.21432
0.209397
0.361288
0.348395
0.336352
0.325079
0.314506
0.304569
0.295213
0.286384
0.278036
0.270128
0.262623
0.255486
0.24869
0.242208
0.236015
0.230093
0.224422
0.218986
0.213771
0.20878
0.361289
0.348397
0.336354
0.325079
0.3145
0.304552
0.295176
0.286319
0.277934
0.269977
0.262413
0.25521
0.248337
0.241772
0.235492
0.229479
0.223715
0.218186
0.212879
0.207801
0.36129
0.348399
0.336353
0.325071
0.314476
0.304501
0.295083
0.286169
0.27771
0.269665
0.262
0.254683
0.247691
0.240999
0.234591
0.22845
0.222561
0.216912
0.211491
0.206308
0.361291
0.348398
0.336345
0.325042
0.314408
0.304371
0.294868
0.285842
0.277251
0.269054
0.261224
0.253733
0.246561
0.239691
0.233109
0.226802
0.220757
0.214967
0.20942
0.20413
0.361291
0.348391
0.336314
0.324959
0.314237
0.304073
0.294403
0.285179
0.276362
0.267923
0.259841
0.252098
0.244681
0.237578
0.23078
0.224279
0.218066
0.212133
0.206473
0.201102
0.361288
0.348366
0.336226
0.324751
0.313844
0.303433
0.293466
0.283908
0.274736
0.265937
0.257502
0.249425
0.241701
0.234327
0.227296
0.220606
0.21425
0.208224
0.202518
0.197154
0.361278
0.348296
0.336005
0.324272
0.313005
0.302153
0.291692
0.281615
0.271927
0.262636
0.253751
0.245278
0.237223
0.229588
0.222374
0.215579
0.2092
0.203233
0.197669
0.192531
0.361254
0.348125
0.335506
0.323265
0.31135
0.299767
0.288544
0.277726
0.267352
0.257461
0.248081
0.239233
0.230934
0.223192
0.216011
0.209393
0.203337
0.19784
0.192892
0.188514
0.361236
0.3478
0.334532
0.321372
0.308383
0.29568
0.283387
0.271619
0.26047
0.250016
0.240308
0.231387
0.223277
0.215995
0.20955
0.20395
0.199202
0.195311
0.192267
0.190071
0.361465
0.347537
0.333149
0.318509
0.303939
0.289764
0.276271
0.263688
0.25219
0.241899
0.232901
0.225253
0.218992
0.214146
0.210734
0.208774
0.20828
0.209257
0.211678
0.215457
0.363748
0.349867
0.334429
0.31855
0.303052
0.288614
0.275769
0.264896
0.256243
0.249954
0.246108
0.244733
0.245831
0.249379
0.255328
0.263601
0.274074
0.286569
0.300813
0.316476
0.380328
0.378528
0.375866
0.373344
0.371175
0.369843
0.369905
0.37184
0.376007
0.382642
0.391864
0.403677
0.417972
0.434522
0.45299
0.472933
0.493832
0.51513
0.536242
0.556909
0.590242
0.786977
0.938818
1.04137
1.10104
1.12787
1.13171
1.12067
1.10079
1.07629
1.04999
1.02371
0.998588
0.9753
0.954211
0.935481
0.919124
0.905052
0.89315
0.882882
1.12294
1.37459
1.61179
1.82711
2.01086
2.15921
2.27538
2.36551
2.43635
2.49393
2.54284
2.58619
2.62594
2.66329
2.69906
2.73374
2.76768
2.80115
2.83436
2.86752
2.90078
2.93425
2.96799
3.00205
3.03646
3.07123
3.10636
3.1418
3.1775
3.21339
3.24934
3.28524
3.32094
3.35628
3.39108
3.42515
3.45831
3.49037
3.52113
3.55041
3.57803
3.60381
3.62758
3.64921
3.66857
3.68556
3.7001
3.71215
3.72172
3.72882
3.73354
3.73601
3.73638
3.73486
3.73173
3.72728
3.72186
3.71589
3.70979
3.70405
3.69918
3.69575
3.69434
3.69555
3.70002
3.70838
3.72127
3.73932
3.76312
3.79323
3.83012
3.87418
3.92566
3.98468
4.05118
4.12489
4.20537
4.29196
4.38382
4.47996
4.57926
4.68053
4.78254
4.88406
4.98394
5.08108
5.17451
5.26339
5.34699
5.42474
5.49617
5.56096
5.6189
5.66987
5.71387
5.75095
5.78125
5.80494
5.82224
5.83341
5.83871
5.83846
5.83294
5.82247
5.80731
5.78774
5.76403
5.73642
5.70515
5.67046
5.63256
5.59166
5.54795
5.50161
5.45282
5.40175
5.34855
5.29336
5.23634
5.17761
5.11729
5.05552
4.99239
4.92803
4.86254
4.79601
4.72855
4.66023
4.59121
4.5216
4.45152
4.38108
4.31037
4.23948
4.16851
4.09754
4.02665
3.95592
3.88542
3.81522
3.74539
3.676
3.6071
3.53877
3.47105
3.404
3.33768
3.27213
3.20741
3.14357
3.08064
3.01867
2.9577
2.89777
2.83893
2.78121
2.72464
2.66926
2.61512
2.56223
2.51064
2.46039
2.4115
2.36401
2.31797
2.27342
2.23038
2.18892
2.14907
2.11089
2.07445
2.03979
2.00698
1.97604
1.94691
1.91968
1.89447
1.87139
1.85059
1.83228
1.81668
1.80408
1.79487
1.78953
1.78871
1.79328
1.80447
1.82406
1.85469
1.90057
1.96854
2.07011
2.22446
2.46194
2.8254
3.36397
4.11636
5.07331
6.16242
4.18212
0.579311
0.622804
0.688206
0.776907
0.887442
1.016
1.15681
1.30307
1.44805
1.58612
1.7134
1.82799
1.92968
2.01949
2.09909
2.17032
2.23487
2.2941
2.34908
2.4006
2.44929
2.49562
2.54001
2.58281
2.62431
2.66476
2.70435
2.74321
2.78142
2.81902
2.85603
2.89242
2.92812
2.96306
2.99714
3.03024
3.06223
3.09296
3.1223
3.15008
3.17616
3.20039
3.22265
3.2428
3.26074
3.2764
3.2897
3.30062
3.30916
3.31538
3.31934
3.32117
3.32103
3.31913
3.31572
3.3111
3.30562
3.29966
3.29364
3.28803
3.28333
3.28008
3.27886
3.28027
3.28492
3.29346
3.30654
3.3248
3.34889
3.3794
3.41688
3.46179
3.51451
3.57524
3.64403
3.72074
3.80501
3.89625
3.99369
4.09634
4.20306
4.31262
4.42371
4.535
4.64522
4.75317
4.85774
4.95796
5.05301
5.14218
5.22495
5.30089
5.36973
5.4313
5.48553
5.53246
5.5722
5.6049
5.63078
5.65011
5.66315
5.67024
5.6717
5.6678
5.65887
5.64517
5.62698
5.60459
5.57825
5.54819
5.51467
5.47789
5.43808
5.39542
5.35012
5.30235
5.25228
5.20007
5.14586
5.08982
5.03206
4.97273
4.91194
4.84981
4.78645
4.72196
4.65645
4.59002
4.52279
4.4549
4.38647
4.31761
4.24842
4.179
4.10944
4.03983
3.97025
3.90078
3.8315
3.76248
3.69379
3.6255
3.55767
3.49037
3.42365
3.35758
3.2922
3.22756
3.16373
3.10074
3.03864
2.97748
2.91729
2.85813
2.80002
2.74302
2.68714
2.63244
2.57894
2.52669
2.47571
2.42605
2.37774
2.33081
2.28531
2.24128
2.19874
2.15776
2.11838
2.08066
2.04464
2.01039
1.97797
1.94738
1.91858
1.89167
1.86674
1.84394
1.82341
1.80534
1.78995
1.77756
1.76851
1.76332
1.7626
1.76723
1.77843
1.79792
1.82833
1.87376
1.94094
2.04117
2.19354
2.42867
2.79058
3.33159
4.09373
5.0805
6.11303
4.78013
0.323294
0.330665
0.341069
0.356114
0.377897
0.408137
0.448362
0.499947
0.563747
0.639837
0.72737
0.824582
0.928955
1.03752
1.14724
1.25534
1.3596
1.4585
1.55124
1.63762
1.71789
1.79258
1.86232
1.92776
1.98945
2.04789
2.10344
2.15644
2.20712
2.25569
2.30231
2.34712
2.39019
2.4316
2.47134
2.50943
2.54581
2.58044
2.61324
2.64413
2.67302
2.69983
2.72447
2.74685
2.76691
2.78461
2.79991
2.8128
2.82331
2.83149
2.83744
2.84128
2.84317
2.84333
2.842
2.83947
2.83607
2.83217
2.82817
2.82453
2.82172
2.82026
2.82071
2.82364
2.82966
2.83942
2.85355
2.87273
2.89762
2.92886
2.96708
3.01284
3.0666
3.12871
3.19937
3.27857
3.36609
3.46147
3.56402
3.67281
3.78672
3.90448
4.02472
4.14601
4.26697
4.38625
4.5026
4.61492
4.72225
4.82376
4.91882
5.00691
5.08766
5.16083
5.22632
5.2841
5.33425
5.37692
5.41231
5.44069
5.46234
5.47764
5.48689
5.49038
5.48843
5.48134
5.46941
5.45292
5.43215
5.40736
5.37882
5.34675
5.3114
5.27297
5.23168
5.18771
5.14126
5.09248
5.04156
4.98864
4.93387
4.87739
4.81934
4.75983
4.69898
4.63691
4.57373
4.50952
4.44443
4.37859
4.31213
4.24517
4.1778
4.11014
4.04228
3.9743
3.90629
3.83835
3.77054
3.70295
3.63564
3.56868
3.50215
3.43609
3.37059
3.30569
3.24144
3.17791
3.11514
3.05319
2.99209
2.9319
2.87266
2.81441
2.75719
2.70104
2.646
2.5921
2.53938
2.48788
2.43764
2.38868
2.34105
2.29479
2.24992
2.2065
2.16456
2.12416
2.08532
2.04812
2.0126
1.97884
1.94687
1.91668
1.88827
1.86173
1.83715
1.81468
1.79444
1.77665
1.76151
1.74933
1.74046
1.7354
1.73476
1.73939
1.75049
1.76974
1.79968
1.84429
1.91004
2.00788
2.15637
2.38561
2.73942
3.27081
4.02106
4.99268
5.93908
5.1742
0.217457
0.218939
0.220704
0.222939
0.225956
0.230123
0.236021
0.244227
0.255421
0.270415
0.290115
0.315472
0.347402
0.386686
0.43385
0.48906
0.552053
0.622109
0.698103
0.778598
0.861988
0.946657
1.03112
1.11415
1.1948
1.27246
1.34679
1.41769
1.48522
1.5495
1.6107
1.66901
1.72456
1.77748
1.82785
1.87573
1.92115
1.96413
2.00468
2.04278
2.07842
2.11157
2.14222
2.17032
2.19587
2.21885
2.23927
2.25715
2.27254
2.28551
2.29617
2.30465
2.31112
2.31579
2.31889
2.32071
2.32156
2.32179
2.32178
2.32196
2.32277
2.32472
2.32831
2.33411
2.3427
2.35469
2.37072
2.39147
2.41761
2.44984
2.48882
2.53523
2.58963
2.65253
2.72428
2.80508
2.89488
2.9934
3.1001
3.21416
3.33451
3.4599
3.5889
3.72001
3.8517
3.9825
4.11099
4.2359
4.35612
4.47068
4.5788
4.67986
4.77339
4.85906
4.9367
5.00622
5.06768
5.12118
5.16693
5.20517
5.23625
5.26055
5.27835
5.28997
5.29573
5.29594
5.29091
5.28096
5.26638
5.24745
5.22445
5.19764
5.16727
5.13357
5.09676
5.05706
5.01467
4.96977
4.92254
4.87315
4.82175
4.76851
4.71355
4.65702
4.59904
4.53972
4.47919
4.41753
4.35489
4.29141
4.22722
4.16244
4.09719
4.03155
3.96565
3.89956
3.83339
3.76722
3.70112
3.63519
3.56948
3.50408
3.43905
3.37446
3.31037
3.24684
3.18393
3.12169
3.06017
2.99943
2.93951
2.88047
2.82233
2.76515
2.70897
2.65383
2.59976
2.54681
2.49501
2.4444
2.39501
2.34688
2.30006
2.25457
2.21045
2.16775
2.12651
2.08677
2.04858
2.01199
1.97706
1.94385
1.91241
1.88271
1.85475
1.82864
1.80448
1.78238
1.76249
1.74501
1.73015
1.7182
1.70952
1.70458
1.70399
1.70857
1.71947
1.73832
1.76756
1.81097
1.87471
1.96917
2.11202
2.33214
2.6719
3.183
3.90415
4.83184
5.71225
5.35565
0.189666
0.189139
0.188677
0.188298
0.188042
0.187954
0.188104
0.18859
0.189538
0.191092
0.193438
0.196806
0.20148
0.207807
0.216195
0.227116
0.241092
0.258683
0.280445
0.306887
0.338417
0.375287
0.417543
0.465001
0.517242
0.573633
0.633381
0.695588
0.759329
0.823713
0.887939
0.951327
1.01334
1.07356
1.13171
1.18758
1.24107
1.29207
1.34055
1.38645
1.42975
1.47042
1.50844
1.54378
1.57643
1.6064
1.6337
1.65838
1.68047
1.70007
1.71729
1.73225
1.74511
1.75608
1.76537
1.77325
1.78
1.78594
1.79143
1.79685
1.80262
1.80918
1.81702
1.82665
1.83861
1.85349
1.8719
1.89449
1.92195
1.95499
1.99434
2.04072
2.09484
2.15734
2.22878
2.30956
2.39989
2.49973
2.60874
2.7263
2.85148
2.98308
3.11968
3.25971
3.40153
3.54349
3.68402
3.82165
3.95506
4.08314
4.20492
4.31964
4.4267
4.52568
4.61631
4.69843
4.77205
4.83724
4.89417
4.94307
4.98442
5.01852
5.04567
5.06618
5.08037
5.08859
5.09116
5.0884
5.08064
5.06817
5.0513
5.0303
5.00544
4.97698
4.94516
4.9102
4.87233
4.83174
4.78862
4.74317
4.69555
4.64593
4.59444
4.54125
4.48648
4.43026
4.37271
4.31394
4.25407
4.19325
4.13163
4.06933
4.00646
3.94314
3.87946
3.81553
3.75145
3.68729
3.62315
3.55911
3.49524
3.43161
3.36831
3.30539
3.24293
3.18097
3.11958
3.05882
2.99874
2.93939
2.88083
2.82309
2.76623
2.71028
2.65529
2.60131
2.54837
2.4965
2.44575
2.39616
2.34776
2.30059
2.25469
2.21009
2.16683
2.12496
2.08452
2.04555
2.00809
1.97221
1.93796
1.9054
1.87456
1.84541
1.81798
1.79237
1.76867
1.747
1.72752
1.71039
1.69585
1.68416
1.67567
1.67085
1.67028
1.67475
1.68537
1.7037
1.73203
1.77393
1.83516
1.92541
2.06115
2.26945
2.59024
3.07245
3.75168
4.618
5.44379
5.36935
0.187256
0.186023
0.184834
0.18369
0.182597
0.18156
0.180586
0.179688
0.17889
0.178214
0.177692
0.177361
0.177273
0.177488
0.178084
0.179154
0.180814
0.183204
0.18649
0.190872
0.196578
0.203871
0.213043
0.224407
0.238283
0.254982
0.27478
0.297889
0.324436
0.354438
0.387789
0.424256
0.463492
0.505054
0.548428
0.593064
0.638407
0.683922
0.729118
0.773559
0.816875
0.858755
0.898951
0.937268
0.973557
1.00771
1.03966
1.06936
1.09681
1.12202
1.14506
1.16601
1.18498
1.20211
1.21758
1.2316
1.24441
1.25627
1.26748
1.27836
1.28929
1.30063
1.31282
1.3263
1.34157
1.35914
1.37958
1.40351
1.43159
1.46451
1.50303
1.54794
1.60003
1.66009
1.72888
1.80704
1.89506
1.99321
2.10147
2.21951
2.34663
2.48178
2.62362
2.77058
2.92091
3.07282
3.22452
3.37434
3.52073
3.66235
3.79802
3.92681
4.04794
4.16087
4.26518
4.36066
4.44721
4.52487
4.59378
4.65416
4.70658
4.75129
4.78857
4.81873
4.84211
4.85905
4.86991
4.87501
4.87471
4.86932
4.85917
4.84455
4.82576
4.80306
4.77672
4.74699
4.7141
4.67827
4.63971
4.59862
4.55517
4.50956
4.46192
4.41243
4.36123
4.30845
4.25423
4.19866
4.14188
4.08405
4.0253
3.96577
3.90557
3.84483
3.78366
3.72215
3.6604
3.59852
3.53657
3.47466
3.41286
3.35124
3.28988
3.22884
3.1682
3.10802
3.04836
2.98927
2.93081
2.87304
2.816
2.75974
2.70432
2.64977
2.59613
2.54346
2.49178
2.44115
2.39159
2.34316
2.29587
2.24978
2.20492
2.16133
2.11905
2.07811
2.03857
2.00047
1.96385
1.92877
1.89528
1.86344
1.83329
1.80476
1.77793
1.75289
1.72972
1.70854
1.68951
1.67278
1.65858
1.64718
1.63891
1.63421
1.63364
1.63797
1.64825
1.66593
1.69319
1.73332
1.79164
1.87703
2.00454
2.19896
2.49707
2.94402
3.57232
4.3675
5.13883
5.24944
0.190996
0.189515
0.18807
0.18666
0.185287
0.18395
0.182651
0.181389
0.18017
0.178997
0.177875
0.176812
0.175818
0.174904
0.174087
0.173385
0.172822
0.172426
0.172232
0.172279
0.172618
0.173304
0.174407
0.176006
0.178193
0.181075
0.184773
0.189424
0.195173
0.202179
0.210601
0.220598
0.232313
0.245866
0.26134
0.278774
0.298147
0.319381
0.342333
0.366806
0.39255
0.41928
0.446689
0.474459
0.502277
0.52985
0.556911
0.583229
0.608611
0.632909
0.656015
0.677868
0.698446
0.717769
0.735895
0.752918
0.768969
0.784211
0.798841
0.813085
0.827202
0.841484
0.856253
0.871868
0.888724
0.907259
0.927958
0.951356
0.978048
1.0087
1.04402
1.08483
1.13197
1.18634
1.24887
1.32046
1.40189
1.49382
1.59662
1.71037
1.83474
1.96899
2.11197
2.2622
2.4179
2.57715
2.73796
2.89841
3.05666
3.2111
3.3603
3.50306
3.6384
3.76558
3.88404
3.99341
4.0935
4.18429
4.26585
4.33848
4.40274
4.45882
4.50699
4.54756
4.58085
4.60724
4.62707
4.6407
4.64851
4.65082
4.64798
4.64032
4.62814
4.61174
4.5914
4.56738
4.53995
4.50933
4.47576
4.43944
4.40058
4.35936
4.31596
4.27054
4.22327
4.17427
4.12371
4.07168
4.01832
3.96378
3.9082
3.85174
3.7945
3.73663
3.67823
3.6194
3.56026
3.50089
3.44138
3.38184
3.32233
3.26294
3.20374
3.1448
3.0862
3.028
2.97025
2.91302
2.85637
2.80035
2.74502
2.69041
2.63659
2.5836
2.53147
2.48026
2.43
2.38074
2.33252
2.28537
2.23933
2.19444
2.15075
2.10828
2.06708
2.02719
1.98866
1.95152
1.91583
1.88164
1.849
1.81797
1.78859
1.76076
1.7346
1.71019
1.68761
1.66699
1.64845
1.63217
1.61836
1.60728
1.59924
1.59467
1.5941
1.59827
1.60815
1.62511
1.65116
1.68932
1.74444
1.8245
1.943
2.12217
2.39513
2.80267
3.37431
4.09381
4.80644
5.02936
0.195544
0.193985
0.192456
0.190956
0.189486
0.188045
0.186633
0.185251
0.183897
0.182572
0.181277
0.180013
0.178783
0.177589
0.176434
0.175324
0.174263
0.173258
0.172318
0.171452
0.170673
0.169993
0.169431
0.169003
0.168733
0.168645
0.168768
0.169135
0.169782
0.170751
0.17209
0.173849
0.176085
0.178858
0.182232
0.186271
0.191038
0.196594
0.202989
0.210266
0.21845
0.227548
0.237546
0.248406
0.260068
0.272447
0.285441
0.298934
0.312797
0.326902
0.341123
0.355343
0.369462
0.383398
0.397096
0.410526
0.423687
0.436609
0.449351
0.462005
0.474693
0.487573
0.500831
0.514694
0.529426
0.545334
0.562775
0.582162
0.603974
0.628766
0.65718
0.689951
0.727921
0.772031
0.823314
0.882861
0.951777
1.0311
1.1217
1.22419
1.33879
1.46524
1.60281
1.75025
1.90591
2.06781
2.23379
2.40165
2.56926
2.73462
2.89596
3.05178
3.20079
3.34198
3.47457
3.59802
3.71197
3.81628
3.91095
3.99654
4.07332
4.14147
4.20122
4.25288
4.29678
4.33328
4.36275
4.38556
4.40209
4.41272
4.41778
4.41764
4.41263
4.40305
4.38921
4.3714
4.3499
4.32495
4.2968
4.26568
4.2318
4.19538
4.15658
4.11561
4.07261
4.02775
3.98118
3.93303
3.8834
3.83246
3.78037
3.72726
3.67328
3.61855
3.56319
3.50731
3.45102
3.39442
3.3376
3.28066
3.22367
3.16673
3.10991
3.05329
2.99693
2.9409
2.88527
2.83009
2.77544
2.72135
2.66789
2.61511
2.56306
2.51178
2.46132
2.41172
2.36303
2.31528
2.26852
2.22279
2.17813
2.13458
2.09216
2.05094
2.01094
1.9722
1.93478
1.89871
1.86405
1.83084
1.79913
1.76899
1.74044
1.71341
1.68799
1.66428
1.64235
1.62234
1.60435
1.58857
1.57519
1.56446
1.55668
1.55225
1.55169
1.55568
1.56512
1.5813
1.60605
1.64212
1.69384
1.76828
1.87735
2.04054
2.28708
2.65309
3.16525
3.80789
4.45753
4.74145
0.199492
0.197925
0.196383
0.194866
0.193373
0.191906
0.190463
0.189044
0.187649
0.186277
0.184928
0.183603
0.182302
0.181024
0.179772
0.178546
0.177347
0.176177
0.175038
0.173934
0.172866
0.17184
0.170859
0.169929
0.169056
0.168247
0.16751
0.166854
0.16629
0.165829
0.165482
0.165265
0.165192
0.16528
0.165546
0.166009
0.166688
0.167605
0.16878
0.170234
0.171987
0.174058
0.176462
0.179215
0.182324
0.185795
0.189627
0.193814
0.198342
0.203195
0.208349
0.21378
0.21946
0.225361
0.231459
0.237735
0.244175
0.250778
0.257552
0.264523
0.27173
0.279234
0.287116
0.295483
0.30447
0.314247
0.325024
0.337057
0.350664
0.366233
0.384239
0.405265
0.430016
0.459344
0.494258
0.535925
0.585653
0.64484
0.71488
0.797038
0.892293
1.00118
1.12366
1.25907
1.4061
1.56295
1.72738
1.89696
2.0692
2.2417
2.41226
2.57889
2.73994
2.894
3.03998
3.17706
3.30467
3.4225
3.53062
3.62956
3.71934
3.80007
3.87197
3.93531
3.9904
4.03762
4.07733
4.10992
4.13578
4.15528
4.16882
4.17674
4.17942
4.17717
4.17034
4.15921
4.14409
4.12526
4.10296
4.07746
4.04897
4.01772
3.98391
3.94773
3.90937
3.86898
3.82674
3.78278
3.7372
3.69018
3.64187
3.59241
3.54197
3.49066
3.43861
3.38594
3.33276
3.27917
3.22527
3.17117
3.11694
3.06267
3.00845
2.95434
2.90043
2.84677
2.79345
2.74052
2.68804
2.63607
2.58466
2.53387
2.48375
2.43434
2.3857
2.33786
2.29088
2.24479
2.19964
2.15546
2.1123
2.0702
2.0292
1.98933
1.95063
1.91316
1.87695
1.84205
1.8085
1.77636
1.74569
1.71652
1.68886
1.6627
1.6381
1.61516
1.59396
1.5746
1.55723
1.54199
1.52908
1.51873
1.51125
1.50699
1.50644
1.51025
1.51924
1.5346
1.558
1.59189
1.6401
1.70883
1.80834
1.95543
2.17535
2.49947
2.95173
3.51869
4.1027
4.41276
0.202547
0.201
0.199475
0.197972
0.19649
0.19503
0.193592
0.192174
0.190777
0.1894
0.188042
0.186705
0.185388
0.18409
0.182813
0.181555
0.180318
0.179102
0.177907
0.176734
0.175585
0.174459
0.173358
0.172285
0.171241
0.170227
0.169247
0.168304
0.1674
0.16654
0.165726
0.164965
0.16426
0.163617
0.163041
0.162539
0.162116
0.161778
0.161533
0.161387
0.161347
0.161419
0.161609
0.161923
0.162366
0.162943
0.163658
0.164512
0.165508
0.166646
0.167925
0.169345
0.170903
0.172598
0.174427
0.176389
0.178485
0.180719
0.183097
0.18563
0.188335
0.191236
0.194367
0.197772
0.201508
0.205651
0.210295
0.215566
0.22162
0.22866
0.236949
0.246827
0.258734
0.273242
0.29109
0.313224
0.340831
0.375361
0.418504
0.472118
0.538072
0.61802
0.713142
0.823916
0.949985
1.09015
1.24248
1.4045
1.57346
1.7465
1.92087
2.09405
2.26378
2.42815
2.58559
2.73488
2.87515
3.00588
3.12748
3.23977
3.34267
3.43623
3.5206
3.596
3.66274
3.72115
3.77159
3.81446
3.85015
3.87905
3.90156
3.91805
3.92891
3.93448
3.93511
3.93112
3.92284
3.91054
3.89451
3.87502
3.85231
3.82661
3.79815
3.76712
3.73373
3.69814
3.66055
3.62109
3.57989
3.53708
3.49284
3.44733
3.4007
3.35308
3.30461
3.2554
3.20558
3.15525
3.10451
3.05347
3.00222
2.95085
2.89943
2.84805
2.79678
2.7457
2.69488
2.64437
2.59425
2.54456
2.49538
2.44674
2.39872
2.35134
2.30467
2.25875
2.21362
2.16932
2.12591
2.08342
2.04189
2.00136
1.96188
1.92348
1.8862
1.8501
1.8152
1.78156
1.74923
1.71825
1.68868
1.66057
1.63389
1.60867
1.58496
1.56286
1.54244
1.52381
1.5071
1.49245
1.48006
1.47014
1.46297
1.4589
1.45839
1.46202
1.47057
1.4851
1.50711
1.5388
1.5835
1.64654
1.73665
1.86802
2.06199
2.34535
2.7393
3.2334
3.75122
4.06422
0.20476
0.203242
0.201745
0.200267
0.198809
0.19737
0.195951
0.19455
0.193168
0.191803
0.190457
0.189128
0.187818
0.186524
0.185249
0.183991
0.18275
0.181527
0.180321
0.179134
0.177964
0.176812
0.175679
0.174566
0.173471
0.172398
0.171345
0.170315
0.169308
0.168325
0.167369
0.16644
0.16554
0.164671
0.163835
0.163035
0.162272
0.161548
0.160868
0.160231
0.159642
0.159103
0.158616
0.158183
0.157806
0.157488
0.157229
0.157032
0.156898
0.156827
0.15682
0.156877
0.156999
0.157186
0.157438
0.157756
0.15814
0.158593
0.159117
0.159717
0.160398
0.161169
0.162043
0.163034
0.164163
0.165457
0.166951
0.16869
0.170736
0.173165
0.176083
0.179629
0.183991
0.189423
0.196278
0.205038
0.216373
0.231199
0.250757
0.276674
0.310987
0.356071
0.414425
0.488302
0.579276
0.687882
0.813461
0.954259
1.10769
1.27067
1.43994
1.6123
1.78476
1.95469
2.11981
2.27835
2.42906
2.57174
2.70578
2.83073
2.94635
3.05253
3.14933
3.23689
3.31545
3.38531
3.4468
3.50031
3.54621
3.58492
3.61682
3.6423
3.66176
3.67557
3.68409
3.68765
3.6866
3.68124
3.67187
3.65876
3.64219
3.6224
3.59963
3.57409
3.54599
3.51553
3.48288
3.44823
3.41169
3.37339
3.33352
3.29223
3.24968
3.20601
3.16137
3.11587
3.06965
3.02282
2.97547
2.92773
2.87967
2.8314
2.78299
2.73454
2.68612
2.6378
2.58966
2.54176
2.49417
2.44694
2.40015
2.35383
2.30806
2.26287
2.21831
2.17445
2.13131
2.08895
2.04741
2.00673
1.96695
1.92812
1.89027
1.85345
1.8177
1.78307
1.74959
1.71731
1.68628
1.65655
1.62817
1.60119
1.57557
1.55136
1.52861
1.50741
1.48783
1.46999
1.45399
1.43999
1.42816
1.4187
1.41189
1.40805
1.40759
1.41106
1.41916
1.43287
1.45352
1.48302
1.52427
1.58178
1.66286
1.77926
1.94868
2.19353
2.5323
2.95771
3.41064
3.71147
0.206284
0.204797
0.203328
0.201877
0.200445
0.199031
0.197635
0.196255
0.194894
0.193548
0.19222
0.190908
0.189613
0.188334
0.18707
0.185823
0.184592
0.183377
0.182177
0.180993
0.179825
0.178673
0.177536
0.176416
0.175311
0.174223
0.173152
0.172097
0.17106
0.170041
0.16904
0.168058
0.167095
0.166153
0.165232
0.164333
0.163457
0.162604
0.161777
0.160975
0.160201
0.159454
0.158737
0.158049
0.157393
0.156768
0.156176
0.155617
0.155092
0.154601
0.154145
0.153723
0.153337
0.152985
0.152669
0.152387
0.152141
0.15193
0.151755
0.151618
0.151519
0.151462
0.151449
0.151487
0.15158
0.151737
0.151971
0.152296
0.152732
0.153306
0.154053
0.155021
0.156274
0.157901
0.160027
0.162829
0.166559
0.171585
0.178446
0.187928
0.201172
0.219786
0.245942
0.282363
0.33211
0.398097
0.482445
0.585906
0.70765
0.84546
0.996177
1.15617
1.32168
1.48917
1.65538
1.81821
1.97622
2.12789
2.27208
2.40798
2.53505
2.65296
2.76157
2.8609
2.95107
3.03231
3.1049
3.16917
3.22549
3.27423
3.3158
3.35058
3.37897
3.40136
3.4181
3.42957
3.4361
3.43802
3.43564
3.42926
3.41916
3.4056
3.38883
3.36909
3.34659
3.32153
3.29413
3.26455
3.23296
3.19945
3.1642
3.12739
3.08918
3.04972
3.00915
2.96761
2.92523
2.88211
2.83838
2.79414
2.74949
2.70452
2.65933
2.614
2.56861
2.52324
2.47796
2.43284
2.38796
2.34336
2.29911
2.25527
2.2119
2.16904
2.12675
2.08508
2.04408
2.00378
1.96423
1.92549
1.88759
1.85056
1.81447
1.77934
1.74522
1.71215
1.68018
1.64936
1.61972
1.59132
1.56422
1.53845
1.51396
1.49083
1.46911
1.44887
1.4302
1.4132
1.39797
1.38466
1.37343
1.36448
1.35806
1.35447
1.3541
1.35743
1.36512
1.37803
1.39733
1.42471
1.46263
1.51487
1.58744
1.68991
1.83666
2.04605
2.33393
2.69581
3.08673
3.36596
0.207289
0.205828
0.204383
0.202957
0.201548
0.200157
0.198783
0.197425
0.196083
0.194758
0.193448
0.192154
0.190876
0.189613
0.188366
0.187133
0.185916
0.184713
0.183525
0.182351
0.181193
0.180048
0.178918
0.177803
0.176702
0.175615
0.174543
0.173486
0.172443
0.171415
0.170403
0.169406
0.168425
0.16746
0.166511
0.165579
0.164664
0.163767
0.162888
0.162028
0.161187
0.160365
0.159564
0.158784
0.158024
0.157286
0.15657
0.155876
0.155204
0.154555
0.153929
0.153325
0.152743
0.152185
0.151648
0.151133
0.15064
0.150168
0.149717
0.149287
0.148878
0.14849
0.148124
0.14778
0.147461
0.147169
0.146907
0.146679
0.146493
0.146355
0.146279
0.14628
0.146378
0.146603
0.146996
0.147613
0.148539
0.149894
0.151858
0.154705
0.158852
0.164942
0.173956
0.187365
0.207279
0.236519
0.278457
0.336499
0.413267
0.509813
0.625274
0.757081
0.901436
1.05412
1.212
1.37175
1.5305
1.68588
1.83608
1.97968
2.11568
2.24338
2.36234
2.47235
2.57334
2.66541
2.74872
2.82354
2.89017
2.94895
3.00026
3.04447
3.08197
3.11313
3.13834
3.15795
3.17232
3.18179
3.18669
3.18731
3.18396
3.17691
3.16642
3.15274
3.13611
3.11673
3.09481
3.07056
3.04416
3.01569
2.98532
2.95324
2.9196
2.88458
2.84832
2.81096
2.77262
2.73344
2.69353
2.653
2.61195
2.57049
2.5287
2.48667
2.4445
2.40225
2.36001
2.31784
2.27582
2.234
2.19246
2.15125
2.11043
2.07005
2.03016
1.99082
1.95207
1.91396
1.87654
1.83985
1.80394
1.76884
1.7346
1.70127
1.66888
1.63748
1.60711
1.57783
1.54967
1.52268
1.49693
1.47244
1.44917
1.42718
1.40655
1.38734
1.36963
1.35352
1.33911
1.32654
1.31596
1.30756
1.30156
1.29826
1.29799
1.30122
1.30853
1.32067
1.3387
1.36404
1.39879
1.44608
1.51078
1.60053
1.72679
1.90428
2.14628
2.45056
2.78353
3.03575
0.207926
0.206484
0.205059
0.203652
0.202263
0.20089
0.199534
0.198194
0.19687
0.195561
0.194269
0.192991
0.191729
0.190481
0.189249
0.18803
0.186826
0.185637
0.184461
0.1833
0.182152
0.181017
0.179897
0.17879
0.177696
0.176616
0.17555
0.174497
0.173457
0.172431
0.171419
0.17042
0.169436
0.168465
0.167509
0.166567
0.16564
0.164727
0.16383
0.162949
0.162083
0.161234
0.1604
0.159583
0.158784
0.158001
0.157235
0.156487
0.155756
0.155043
0.154347
0.153668
0.153007
0.152362
0.151734
0.151121
0.150524
0.149943
0.149375
0.148821
0.148281
0.147753
0.147238
0.146734
0.146242
0.145763
0.145296
0.144842
0.144404
0.143984
0.143584
0.143211
0.142871
0.142573
0.142331
0.142164
0.142097
0.142168
0.142436
0.142985
0.143949
0.145532
0.148065
0.152072
0.158389
0.168318
0.18382
0.207629
0.243169
0.294055
0.363196
0.451746
0.558672
0.681925
0.817786