/*--------------------------------*- C++ -*----------------------------------*\
| =========                 |                                                 |
| \\      /  F ield         | OpenFOAM: The Open Source CFD Toolbox           |
|  \\    /   O peration     | Version:  2.4.0                                 |
|   \\  /    A nd           | Web:      www.OpenFOAM.org                      |
|    \\/     M anipulation  |                                                 |
\*---------------------------------------------------------------------------*/
FoamFile
{
    version     2.0;
    format      ascii;
    class       volScalarField;
    location    "0.25";
    object      pPrime2Mean;
}
// * * * * * * * * * * * * * * * * * * * * * * * * * * * * * * * * * * * * * //

dimensions      [0 4 -4 0 0 0 0];

internalField   nonuniform List<scalar> 
17600
(
2.58507e+06
2.51989e+06
2.4498e+06
2.38034e+06
2.31187e+06
2.2444e+06
2.17792e+06
2.11244e+06
2.04796e+06
1.98447e+06
1.92196e+06
1.86043e+06
1.79986e+06
1.74022e+06
1.68145e+06
1.62343e+06
1.56593e+06
1.50851e+06
1.45013e+06
1.3873e+06
2.58513e+06
2.51989e+06
2.4498e+06
2.38034e+06
2.31187e+06
2.2444e+06
2.17792e+06
2.11244e+06
2.04796e+06
1.98447e+06
1.92196e+06
1.86043e+06
1.79987e+06
1.74023e+06
1.68145e+06
1.62343e+06
1.56595e+06
1.50854e+06
1.45021e+06
1.38747e+06
2.58517e+06
2.51988e+06
2.44979e+06
2.38034e+06
2.31187e+06
2.2444e+06
2.17792e+06
2.11244e+06
2.04796e+06
1.98447e+06
1.92196e+06
1.86043e+06
1.79987e+06
1.74023e+06
1.68146e+06
1.62345e+06
1.56598e+06
1.50861e+06
1.45036e+06
1.38811e+06
2.5852e+06
2.51987e+06
2.44979e+06
2.38034e+06
2.31187e+06
2.2444e+06
2.17792e+06
2.11244e+06
2.04796e+06
1.98447e+06
1.92196e+06
1.86044e+06
1.79987e+06
1.74024e+06
1.68147e+06
1.62347e+06
1.56602e+06
1.50871e+06
1.45059e+06
1.38901e+06
2.58522e+06
2.51986e+06
2.44978e+06
2.38033e+06
2.31186e+06
2.2444e+06
2.17792e+06
2.11244e+06
2.04796e+06
1.98447e+06
1.92196e+06
1.86044e+06
1.79988e+06
1.74025e+06
1.68149e+06
1.6235e+06
1.56608e+06
1.50883e+06
1.45089e+06
1.39009e+06
2.58524e+06
2.51985e+06
2.44977e+06
2.38033e+06
2.31186e+06
2.24439e+06
2.17792e+06
2.11244e+06
2.04796e+06
1.98447e+06
1.92196e+06
1.86044e+06
1.79988e+06
1.74026e+06
1.68151e+06
1.62354e+06
1.56616e+06
1.50899e+06
1.45126e+06
1.39127e+06
2.58526e+06
2.51984e+06
2.44976e+06
2.38033e+06
2.31186e+06
2.24439e+06
2.17792e+06
2.11244e+06
2.04796e+06
1.98447e+06
1.92197e+06
1.86044e+06
1.79989e+06
1.74027e+06
1.68153e+06
1.62359e+06
1.56625e+06
1.50917e+06
1.45168e+06
1.3925e+06
2.58528e+06
2.51983e+06
2.44975e+06
2.38033e+06
2.31186e+06
2.24439e+06
2.17792e+06
2.11244e+06
2.04796e+06
1.98447e+06
1.92197e+06
1.86045e+06
1.7999e+06
1.74028e+06
1.68156e+06
1.62364e+06
1.56635e+06
1.50938e+06
1.45214e+06
1.39376e+06
2.5853e+06
2.51983e+06
2.44975e+06
2.38032e+06
2.31186e+06
2.24439e+06
2.17792e+06
2.11244e+06
2.04796e+06
1.98447e+06
1.92197e+06
1.86045e+06
1.7999e+06
1.7403e+06
1.68159e+06
1.62369e+06
1.56646e+06
1.5096e+06
1.45264e+06
1.39502e+06
2.58532e+06
2.51983e+06
2.44974e+06
2.38032e+06
2.31186e+06
2.24439e+06
2.17792e+06
2.11244e+06
2.04796e+06
1.98447e+06
1.92197e+06
1.86046e+06
1.79991e+06
1.74032e+06
1.68162e+06
1.62376e+06
1.56658e+06
1.50985e+06
1.45317e+06
1.39627e+06
2.58533e+06
2.51982e+06
2.44973e+06
2.38032e+06
2.31186e+06
2.24439e+06
2.17792e+06
2.11244e+06
2.04796e+06
1.98447e+06
1.92198e+06
1.86046e+06
1.79992e+06
1.74034e+06
1.68166e+06
1.62383e+06
1.56671e+06
1.51011e+06
1.45371e+06
1.3975e+06
2.58534e+06
2.51982e+06
2.44973e+06
2.38032e+06
2.31186e+06
2.24439e+06
2.17792e+06
2.11244e+06
2.04796e+06
1.98447e+06
1.92198e+06
1.86047e+06
1.79994e+06
1.74036e+06
1.6817e+06
1.6239e+06
1.56685e+06
1.51038e+06
1.45427e+06
1.39869e+06
2.58535e+06
2.51982e+06
2.44972e+06
2.38031e+06
2.31186e+06
2.24439e+06
2.17792e+06
2.11244e+06
2.04796e+06
1.98448e+06
1.92198e+06
1.86048e+06
1.79995e+06
1.74038e+06
1.68174e+06
1.62397e+06
1.56699e+06
1.51066e+06
1.45485e+06
1.39985e+06
2.58536e+06
2.51982e+06
2.44972e+06
2.38031e+06
2.31186e+06
2.24439e+06
2.17792e+06
2.11244e+06
2.04796e+06
1.98448e+06
1.92199e+06
1.86048e+06
1.79996e+06
1.7404e+06
1.68178e+06
1.62405e+06
1.56715e+06
1.51095e+06
1.45542e+06
1.40098e+06
2.58537e+06
2.51982e+06
2.44971e+06
2.38031e+06
2.31186e+06
2.24439e+06
2.17792e+06
2.11244e+06
2.04796e+06
1.98448e+06
1.92199e+06
1.86049e+06
1.79997e+06
1.74043e+06
1.68183e+06
1.62414e+06
1.5673e+06
1.51125e+06
1.45599e+06
1.40206e+06
2.58538e+06
2.51982e+06
2.44971e+06
2.38031e+06
2.31186e+06
2.24439e+06
2.17792e+06
2.11244e+06
2.04796e+06
1.98448e+06
1.92199e+06
1.8605e+06
1.79999e+06
1.74045e+06
1.68187e+06
1.62422e+06
1.56746e+06
1.51155e+06
1.45656e+06
1.40309e+06
2.58538e+06
2.51982e+06
2.44971e+06
2.38031e+06
2.31186e+06
2.2444e+06
2.17792e+06
2.11244e+06
2.04796e+06
1.98448e+06
1.922e+06
1.86051e+06
1.8e+06
1.74048e+06
1.68192e+06
1.62431e+06
1.56762e+06
1.51185e+06
1.45712e+06
1.40409e+06
2.58538e+06
2.51982e+06
2.44971e+06
2.3803e+06
2.31186e+06
2.2444e+06
2.17792e+06
2.11244e+06
2.04796e+06
1.98448e+06
1.922e+06
1.86051e+06
1.80002e+06
1.7405e+06
1.68197e+06
1.6244e+06
1.56779e+06
1.51216e+06
1.45768e+06
1.40504e+06
2.58539e+06
2.51982e+06
2.44971e+06
2.3803e+06
2.31186e+06
2.2444e+06
2.17792e+06
2.11244e+06
2.04796e+06
1.98449e+06
1.92201e+06
1.86052e+06
1.80003e+06
1.74053e+06
1.68202e+06
1.62449e+06
1.56795e+06
1.51246e+06
1.45821e+06
1.40594e+06
2.58539e+06
2.51982e+06
2.44971e+06
2.3803e+06
2.31186e+06
2.2444e+06
2.17792e+06
2.11244e+06
2.04797e+06
1.98449e+06
1.92201e+06
1.86053e+06
1.80004e+06
1.74056e+06
1.68207e+06
1.62458e+06
1.56812e+06
1.51275e+06
1.45874e+06
1.4068e+06
2.58539e+06
2.51982e+06
2.44971e+06
2.3803e+06
2.31186e+06
2.2444e+06
2.17792e+06
2.11244e+06
2.04797e+06
1.98449e+06
1.92201e+06
1.86054e+06
1.80006e+06
1.74058e+06
1.68212e+06
1.62467e+06
1.56828e+06
1.51304e+06
1.45924e+06
1.40761e+06
2.58539e+06
2.51982e+06
2.44971e+06
2.3803e+06
2.31186e+06
2.2444e+06
2.17792e+06
2.11244e+06
2.04797e+06
1.98449e+06
1.92202e+06
1.86055e+06
1.80007e+06
1.74061e+06
1.68216e+06
1.62476e+06
1.56844e+06
1.51333e+06
1.45973e+06
1.40838e+06
2.58539e+06
2.51982e+06
2.44971e+06
2.3803e+06
2.31186e+06
2.2444e+06
2.17792e+06
2.11244e+06
2.04797e+06
1.9845e+06
1.92202e+06
1.86055e+06
1.80009e+06
1.74064e+06
1.68221e+06
1.62484e+06
1.56859e+06
1.5136e+06
1.46019e+06
1.4091e+06
2.58538e+06
2.51982e+06
2.44971e+06
2.38031e+06
2.31186e+06
2.2444e+06
2.17792e+06
2.11245e+06
2.04797e+06
1.9845e+06
1.92203e+06
1.86056e+06
1.8001e+06
1.74066e+06
1.68226e+06
1.62493e+06
1.56874e+06
1.51386e+06
1.46064e+06
1.40978e+06
2.58538e+06
2.51982e+06
2.44971e+06
2.38031e+06
2.31186e+06
2.2444e+06
2.17792e+06
2.11245e+06
2.04797e+06
1.9845e+06
1.92203e+06
1.86057e+06
1.80012e+06
1.74069e+06
1.6823e+06
1.62501e+06
1.56889e+06
1.51412e+06
1.46106e+06
1.41042e+06
2.58537e+06
2.51982e+06
2.44972e+06
2.38031e+06
2.31186e+06
2.2444e+06
2.17792e+06
2.11245e+06
2.04797e+06
1.9845e+06
1.92204e+06
1.86058e+06
1.80013e+06
1.74071e+06
1.68235e+06
1.62509e+06
1.56903e+06
1.51436e+06
1.46146e+06
1.41102e+06
2.58536e+06
2.51982e+06
2.44972e+06
2.38031e+06
2.31186e+06
2.2444e+06
2.17792e+06
2.11245e+06
2.04798e+06
1.98451e+06
1.92204e+06
1.86058e+06
1.80014e+06
1.74074e+06
1.68239e+06
1.62517e+06
1.56916e+06
1.51459e+06
1.46184e+06
1.41157e+06
2.58535e+06
2.51982e+06
2.44972e+06
2.38032e+06
2.31186e+06
2.2444e+06
2.17792e+06
2.11245e+06
2.04798e+06
1.98451e+06
1.92204e+06
1.86059e+06
1.80015e+06
1.74076e+06
1.68243e+06
1.62524e+06
1.56929e+06
1.51481e+06
1.46219e+06
1.41208e+06
2.58534e+06
2.51982e+06
2.44973e+06
2.38032e+06
2.31186e+06
2.2444e+06
2.17792e+06
2.11245e+06
2.04798e+06
1.98451e+06
1.92205e+06
1.8606e+06
1.80017e+06
1.74078e+06
1.68247e+06
1.62531e+06
1.56941e+06
1.51501e+06
1.46251e+06
1.41255e+06
2.58533e+06
2.51982e+06
2.44974e+06
2.38032e+06
2.31186e+06
2.2444e+06
2.17792e+06
2.11245e+06
2.04798e+06
1.98451e+06
1.92205e+06
1.8606e+06
1.80018e+06
1.7408e+06
1.68251e+06
1.62537e+06
1.56952e+06
1.5152e+06
1.46281e+06
1.41298e+06
2.58532e+06
2.51983e+06
2.44974e+06
2.38032e+06
2.31186e+06
2.2444e+06
2.17793e+06
2.11245e+06
2.04798e+06
1.98452e+06
1.92205e+06
1.86061e+06
1.80019e+06
1.74082e+06
1.68254e+06
1.62543e+06
1.56962e+06
1.51537e+06
1.46308e+06
1.41337e+06
2.5853e+06
2.51983e+06
2.44975e+06
2.38033e+06
2.31186e+06
2.2444e+06
2.17793e+06
2.11246e+06
2.04798e+06
1.98452e+06
1.92206e+06
1.86061e+06
1.8002e+06
1.74083e+06
1.68257e+06
1.62548e+06
1.56972e+06
1.51553e+06
1.46332e+06
1.41372e+06
2.58528e+06
2.51984e+06
2.44976e+06
2.38033e+06
2.31186e+06
2.2444e+06
2.17793e+06
2.11246e+06
2.04799e+06
1.98452e+06
1.92206e+06
1.86062e+06
1.80021e+06
1.74085e+06
1.6826e+06
1.62553e+06
1.5698e+06
1.51567e+06
1.46354e+06
1.41403e+06
2.58526e+06
2.51984e+06
2.44976e+06
2.38033e+06
2.31186e+06
2.2444e+06
2.17793e+06
2.11246e+06
2.04799e+06
1.98452e+06
1.92206e+06
1.86062e+06
1.80021e+06
1.74086e+06
1.68262e+06
1.62557e+06
1.56988e+06
1.51579e+06
1.46373e+06
1.4143e+06
2.58524e+06
2.51985e+06
2.44977e+06
2.38033e+06
2.31187e+06
2.2444e+06
2.17793e+06
2.11246e+06
2.04799e+06
1.98452e+06
1.92207e+06
1.86063e+06
1.80022e+06
1.74088e+06
1.68264e+06
1.62561e+06
1.56994e+06
1.5159e+06
1.4639e+06
1.41453e+06
2.58522e+06
2.51986e+06
2.44978e+06
2.38033e+06
2.31187e+06
2.2444e+06
2.17793e+06
2.11246e+06
2.04799e+06
1.98452e+06
1.92207e+06
1.86063e+06
1.80023e+06
1.74089e+06
1.68266e+06
1.62564e+06
1.56999e+06
1.51598e+06
1.46404e+06
1.41473e+06
2.5852e+06
2.51987e+06
2.44979e+06
2.38034e+06
2.31187e+06
2.2444e+06
2.17793e+06
2.11246e+06
2.04799e+06
1.98452e+06
1.92207e+06
1.86063e+06
1.80023e+06
1.74089e+06
1.68267e+06
1.62567e+06
1.57004e+06
1.51606e+06
1.46415e+06
1.41488e+06
2.58517e+06
2.51988e+06
2.44979e+06
2.38034e+06
2.31187e+06
2.2444e+06
2.17793e+06
2.11246e+06
2.04799e+06
1.98453e+06
1.92207e+06
1.86063e+06
1.80023e+06
1.7409e+06
1.68268e+06
1.62569e+06
1.57007e+06
1.51611e+06
1.46423e+06
1.41499e+06
2.58513e+06
2.51989e+06
2.4498e+06
2.38034e+06
2.31187e+06
2.2444e+06
2.17793e+06
2.11246e+06
2.04799e+06
1.98453e+06
1.92207e+06
1.86063e+06
1.80024e+06
1.7409e+06
1.68269e+06
1.6257e+06
1.57009e+06
1.51615e+06
1.46428e+06
1.41507e+06
2.58508e+06
2.51989e+06
2.4498e+06
2.38034e+06
2.31187e+06
2.2444e+06
2.17793e+06
2.11246e+06
2.04799e+06
1.98453e+06
1.92207e+06
1.86064e+06
1.80024e+06
1.74091e+06
1.6827e+06
1.62571e+06
1.5701e+06
1.51616e+06
1.46431e+06
1.41511e+06
1.3278e+06
1.31356e+06
1.30254e+06
1.29289e+06
1.28386e+06
1.27523e+06
1.26689e+06
1.25878e+06
1.25083e+06
1.24302e+06
1.23532e+06
1.2277e+06
1.22014e+06
1.21264e+06
1.20518e+06
1.19776e+06
1.19036e+06
1.18299e+06
1.17564e+06
1.16832e+06
1.16101e+06
1.15372e+06
1.14645e+06
1.13919e+06
1.13194e+06
1.12469e+06
1.11747e+06
1.11028e+06
1.10311e+06
1.09597e+06
1.08887e+06
1.08179e+06
1.07475e+06
1.06773e+06
1.06074e+06
1.05379e+06
1.04686e+06
1.03996e+06
1.03309e+06
1.02625e+06
1.01944e+06
1.01265e+06
1.0059e+06
999167
992465
985790
979144
972528
965939
959378
952842
946332
939846
933384
926949
920537
914148
907783
901441
895122
888826
882552
876298
870065
863851
857653
851472
845308
839161
833033
826924
820838
814776
808740
802732
796750
790792
784858
778946
773056
767184
761330
755495
749677
743879
738100
732340
726597
720872
715165
709478
703811
698165
692543
686945
681370
675821
670295
664795
659319
653869
648444
643043
637665
632308
626974
621661
616371
611101
605854
600628
595424
590242
585083
579948
574838
569755
564698
559666
554659
549678
544721
539789
534882
529997
525134
520293
515474
510677
505901
501145
496410
491696
487003
482330
477678
473046
468436
463847
459279
454732
450208
445706
441227
436772
432340
427933
423551
419194
414861
410553
406271
402013
397779
393568
389380
385215
381074
376954
372856
368781
364728
360696
356685
352693
348721
344766
340830
336912
333012
329130
325269
321425
317606
313804
310030
306270
302543
298823
295143
291462
287827
284182
280587
276978
273411
269835
266289
262731
259192
255636
252082
248497
244887
241217
237479
233626
229615
225278
220517
1.33455e+06
1.31903e+06
1.30685e+06
1.29641e+06
1.28684e+06
1.2778e+06
1.26913e+06
1.26075e+06
1.25257e+06
1.24456e+06
1.23669e+06
1.22892e+06
1.22123e+06
1.21361e+06
1.20605e+06
1.19853e+06
1.19105e+06
1.1836e+06
1.17618e+06
1.1688e+06
1.16144e+06
1.1541e+06
1.14678e+06
1.13949e+06
1.1322e+06
1.12494e+06
1.11769e+06
1.11048e+06
1.10329e+06
1.09614e+06
1.08901e+06
1.08192e+06
1.07486e+06
1.06783e+06
1.06083e+06
1.05387e+06
1.04693e+06
1.04002e+06
1.03315e+06
1.0263e+06
1.01948e+06
1.01269e+06
1.00594e+06
999206
992504
985830
979185
972568
965979
959417
952881
946370
939883
933421
926984
920572
914184
907819
901478
895161
888866
882593
876342
870110
863896
857699
851517
845353
839205
833075
826966
820879
814816
808780
802771
796789
790830
784894
778981
773089
767215
761358
755519
749700
743900
738119
732357
726614
720888
715182
709494
703827
698182
692560
686961
681387
675837
670312
664811
659334
653883
648457
643055
637676
632319
626984
621671
616380
611111
605864
600638
595434
590253
585094
579959
574849
569765
564707
559675
554668
549686
544728
539796
534888
530002
525139
520298
515478
510681
505904
501149
496413
491699
487006
482333
477680
473048
468437
463847
459278
454731
450206
445703
441223
436766
432334
427926
423543
419185
414852
410543
406260
402000
397764
393551
389361
385193
381048
376924
372823
368743
364685
360648
356631
352633
348654
344692
340749
336823
332915
329024
325154
321299
317469
313652
309865
306087
302343
298602
294900
291193
287532
283858
280228
276586
272977
269357
265760
262148
258546
254920
251286
247610
243893
240097
236204
232152
227858
223125
217531
1.33988e+06
1.32384e+06
1.3109e+06
1.29981e+06
1.28975e+06
1.28032e+06
1.27134e+06
1.26269e+06
1.25429e+06
1.24609e+06
1.23805e+06
1.23013e+06
1.22231e+06
1.21457e+06
1.2069e+06
1.19929e+06
1.19173e+06
1.1842e+06
1.17672e+06
1.16927e+06
1.16186e+06
1.15447e+06
1.14712e+06
1.13978e+06
1.13247e+06
1.12518e+06
1.11791e+06
1.11068e+06
1.10347e+06
1.0963e+06
1.08916e+06
1.08205e+06
1.07498e+06
1.06793e+06
1.06092e+06
1.05395e+06
1.047e+06
1.04009e+06
1.0332e+06
1.02635e+06
1.01953e+06
1.01274e+06
1.00598e+06
999250
992549
985875
979230
972613
966023
959459
952922
946409
939921
933458
927021
920608
914219
907855
901515
895199
888906
882634
876383
870152
863938
857741
851559
845393
839244
833113
827002
820914
814850
808814
802805
796821
790861
784924
779010
773115
767238
761379
755537
749715
743913
738130
732367
726623
720898
715192
709505
703839
698194
692572
686974
681400
675850
670324
664822
659345
653893
648466
643063
637683
632325
626990
621678
616387
611118
605871
600645
595442
590261
585102
579967
574857
569773
564715
559682
554675
549692
544734
539801
534892
530006
525142
520301
515481
510683
505905
501150
496414
491700
487006
482332
477679
473046
468435
463844
459274
454727
450200
445697
441215
436758
432325
427917
423533
419174
414840
410531
406246
401985
397748
393532
389339
385168
381020
376892
372788
368704
364641
360598
356576
352571
348585
344616
340666
336732
332817
328916
325037
321171
317330
313499
309698
305904
302142
298380
294657
290926
287236
283535
279870
276195
272545
268884
265235
261572
257907
254215
250502
246739
242920
239006
234966
230739
226205
221178
215153
1.34426e+06
1.32811e+06
1.31468e+06
1.30306e+06
1.29257e+06
1.28279e+06
1.27351e+06
1.26461e+06
1.25599e+06
1.2476e+06
1.23939e+06
1.23133e+06
1.22338e+06
1.21552e+06
1.20775e+06
1.20004e+06
1.1924e+06
1.1848e+06
1.17725e+06
1.16974e+06
1.16228e+06
1.15484e+06
1.14744e+06
1.14007e+06
1.13273e+06
1.12542e+06
1.11813e+06
1.11087e+06
1.10365e+06
1.09646e+06
1.0893e+06
1.08218e+06
1.07509e+06
1.06804e+06
1.06102e+06
1.05403e+06
1.04707e+06
1.04015e+06
1.03326e+06
1.02641e+06
1.01958e+06
1.01279e+06
1.00603e+06
999299
992598
985924
979279
972661
966069
959504
952964
946450
939960
933496
927057
920643
914255
907891
901552
895237
888944
882673
876423
870192
863978
857779
851596
845429
839278
833146
827033
820943
814878
808840
802831
796846
790885
784947
779030
773133
767253
761392
755548
749723
743918
738134
732370
726625
720900
715195
709509
703844
698201
692580
686982
681408
675859
670332
664829
659351
653899
648471
643067
637685
632328
626993
621680
616390
611121
605874
600649
595446
590265
585107
579972
574863
569778
564720
559687
554679
549696
544737
539804
534894
530008
525143
520301
515480
510682
505904
501148
496411
491697
487002
482328
477675
473041
468429
463838
459268
454719
450192
445687
441205
436747
432313
427904
423520
419160
414826
410516
406230
401968
397729
393511
389316
385142
380990
376859
372751
368663
364595
360546
356518
352507
348515
344539
340582
336640
332717
328808
324919
321042
317190
313346
309531
305719
301940
298158
294413
290660
286941
283215
279515
275808
272116
268414
264716
261003
257277
253521
249731
245887
241969
237946
233773
229394
224666
219429
213263
1.34798e+06
1.33189e+06
1.31817e+06
1.30615e+06
1.29528e+06
1.28518e+06
1.27563e+06
1.26648e+06
1.25766e+06
1.24908e+06
1.24071e+06
1.2325e+06
1.22443e+06
1.21646e+06
1.20858e+06
1.20079e+06
1.19306e+06
1.18539e+06
1.17777e+06
1.17021e+06
1.16269e+06
1.15521e+06
1.14777e+06
1.14036e+06
1.13299e+06
1.12565e+06
1.11834e+06
1.11106e+06
1.10382e+06
1.09662e+06
1.08945e+06
1.08231e+06
1.07521e+06
1.06814e+06
1.06111e+06
1.05411e+06
1.04715e+06
1.04022e+06
1.03333e+06
1.02647e+06
1.01964e+06
1.01285e+06
1.00608e+06
999354
992652
985978
979331
972712
966119
959551
953008
946491
940000
933533
927093
920679
914289
907925
901587
895272
888981
882711
876461
870229
864014
857813
851629
845460
839307
833172
827057
820965
814899
808860
802849
796863
790901
784961
779043
773143
767261
761397
755551
749723
743917
738131
732366
726620
720896
715191
709507
703844
698202
692582
686985
681412
675862
670335
664832
659353
653899
648470
643065
637684
632326
626991
621679
616389
611121
605874
600650
595447
590266
585108
579974
574865
569780
564722
559689
554680
549697
544738
539804
534893
530006
525141
520299
515477
510678
505899
501142
496406
491690
486995
482321
477667
473034
468420
463829
459258
454708
450181
445675
441192
436733
432299
427889
423504
419143
414808
410498
406212
401948
397708
393488
389290
385113
380958
376824
372712
368620
364547
360493
356460
352443
348445
344462
340497
336547
332617
328698
324801
320913
317049
313192
309362
305535
301738
297937
294169
290394
286648
282896
279162
275423
271690
267949
264202
260440
256655
252840
248976
245055
241044
236923
232628
228119
223244
217874
211707
1.35121e+06
1.33528e+06
1.32139e+06
1.30906e+06
1.29788e+06
1.28749e+06
1.27768e+06
1.26831e+06
1.25929e+06
1.25054e+06
1.24201e+06
1.23366e+06
1.22546e+06
1.21738e+06
1.2094e+06
1.20152e+06
1.19371e+06
1.18597e+06
1.17829e+06
1.17067e+06
1.1631e+06
1.15557e+06
1.14809e+06
1.14065e+06
1.13325e+06
1.12588e+06
1.11855e+06
1.11126e+06
1.104e+06
1.09677e+06
1.08959e+06
1.08244e+06
1.07533e+06
1.06825e+06
1.06121e+06
1.0542e+06
1.04723e+06
1.0403e+06
1.0334e+06
1.02654e+06
1.01971e+06
1.01291e+06
1.00615e+06
999414
992711
986036
979387
972766
966170
959599
953053
946533
940039
933570
927129
920713
914323
907959
901620
895306
889015
882745
876495
870262
864045
857843
851657
845486
839330
833192
827075
820981
814913
808873
802860
796873
790909
784968
779048
773146
767261
761395
755546
749716
743908
738121
732354
726609
720885
715181
709499
703838
698197
692579
686984
681411
675861
670332
664828
659349
653894
648464
643059
637677
632319
626985
621674
616385
611116
605870
600646
595443
590263
585105
579972
574863
569779
564720
559687
554678
549694
544735
539800
534889
530001
525135
520293
515470
510671
505891
501134
496396
491681
486985
482311
477656
473023
468409
463817
459245
454695
450166
445660
441176
436717
432281
427871
423485
419124
414788
410477
406190
401926
397683
393462
389262
385082
380924
376787
372672
368574
364497
360439
356401
352378
348374
344383
340411
336454
332516
328588
324681
320783
316907
313038
309193
305350
301535
297717
293926
290130
286356
282579
278812
275041
271269
267489
263695
259886
256044
252171
248237
244244
240146
235936
231534
226917
221936
216491
210384
1.35406e+06
1.33832e+06
1.32435e+06
1.31181e+06
1.30036e+06
1.28972e+06
1.27968e+06
1.2701e+06
1.26088e+06
1.25196e+06
1.24328e+06
1.23479e+06
1.22647e+06
1.21829e+06
1.21021e+06
1.20224e+06
1.19435e+06
1.18654e+06
1.1788e+06
1.17112e+06
1.1635e+06
1.15593e+06
1.14841e+06
1.14093e+06
1.1335e+06
1.12611e+06
1.11876e+06
1.11145e+06
1.10417e+06
1.09693e+06
1.08973e+06
1.08257e+06
1.07545e+06
1.06836e+06
1.06131e+06
1.0543e+06
1.04732e+06
1.04038e+06
1.03348e+06
1.02662e+06
1.01978e+06
1.01298e+06
1.00622e+06
999480
992775
986097
979446
972821
966222
959647
953098
946574
940077
933606
927163
920746
914354
907989
901650
895336
889045
882775
876525
870290
864072
857868
851679
845505
839346
833206
827086
820989
814919
808878
802865
796876
790911
784968
779046
773141
767254
761384
755533
749701
743891
738103
732336
726591
720867
715165
709485
703825
698186
692570
686976
681405
675854
670324
664820
659339
653884
648453
643047
637665
632309
626975
621665
616376
611108
605862
600638
595435
590255
585098
579965
574856
569773
564714
559681
554671
549688
544728
539793
534881
529993
525126
520283
515459
510659
505879
501121
496383
491667
486971
482297
477642
473009
468394
463801
459229
454678
450149
445642
441157
436697
432261
427850
423464
419102
414766
410454
406165
401900
397656
393434
389232
385049
380887
376748
372629
368526
364446
360384
356340
352311
348301
344304
340325
336360
332414
328478
324561
320653
316765
312884
309025
305166
301333
297498
293684
289868
286066
282263
278464
274663
270853
267036
263195
259342
255443
251516
247515
243457
239276
234988
230493
225785
220731
215257
209235
1.3566e+06
1.34108e+06
1.32708e+06
1.31438e+06
1.30273e+06
1.29186e+06
1.28161e+06
1.27183e+06
1.26244e+06
1.25335e+06
1.24453e+06
1.23591e+06
1.22747e+06
1.21918e+06
1.21101e+06
1.20295e+06
1.19498e+06
1.1871e+06
1.1793e+06
1.17157e+06
1.1639e+06
1.15629e+06
1.14873e+06
1.14122e+06
1.13376e+06
1.12634e+06
1.11897e+06
1.11164e+06
1.10434e+06
1.09709e+06
1.08988e+06
1.08271e+06
1.07557e+06
1.06848e+06
1.06142e+06
1.0544e+06
1.04742e+06
1.04047e+06
1.03357e+06
1.0267e+06
1.01986e+06
1.01306e+06
1.00629e+06
999551
992843
986162
979507
972878
966275
959696
953142
946615
940115
933641
927195
920776
914383
908017
901677
895363
889071
882801
876549
870313
864093
857887
851696
845519
839357
833213
827090
820991
814920
808877
802862
796871
790905
784961
779037
773130
767239
761367
755512
749679
743868
738079
732312
726567
720844
715143
709464
703806
698169
692555
686963
681392
675841
670311
664805
659324
653868
648437
643031
637650
632293
626961
621651
616363
611096
605850
600626
595423
590243
585087
579954
574845
569762
564703
559670
554661
549677
544717
539781
534868
529980
525112
520269
515445
510644
505863
501105
496366
491650
486954
482280
477625
472991
468376
463783
459210
454659
450128
445621
441136
436676
432239
427827
423440
419078
414740
410427
406138
401871
397626
393402
389198
385013
380849
376706
372583
368476
364392
360327
356279
352244
348228
344223
340239
336266
332312
328368
324441
320523
316624
312730
308856
304984
301132
297280
293443
289607
285779
281951
278121
274289
270441
266589
262703
258807
254854
250877
246811
242693
238437
234078
229505
224722
219622
214150
208216
1.35889e+06
1.34359e+06
1.32961e+06
1.3168e+06
1.30497e+06
1.29392e+06
1.28347e+06
1.27351e+06
1.26395e+06
1.25471e+06
1.24575e+06
1.237e+06
1.22845e+06
1.22005e+06
1.21179e+06
1.20365e+06
1.19561e+06
1.18766e+06
1.1798e+06
1.17201e+06
1.1643e+06
1.15664e+06
1.14905e+06
1.1415e+06
1.13401e+06
1.12657e+06
1.11918e+06
1.11183e+06
1.10452e+06
1.09725e+06
1.09003e+06
1.08284e+06
1.0757e+06
1.06859e+06
1.06153e+06
1.0545e+06
1.04752e+06
1.04057e+06
1.03366e+06
1.02678e+06
1.01995e+06
1.01314e+06
1.00637e+06
999626
992914
986229
979569
972936
966328
959744
953186
946655
940151
933674
927225
920803
914408
908040
901699
895384
889092
882821
876568
870330
864108
857900
851707
845526
839360
833213
827088
820986
814913
808869
802852
796861
790894
784948
779022
773111
767218
761342
755485
749649
743837
738048
732282
726538
720815
715115
709437
703781
698146
692534
686944
681373
675822
670291
664786
659305
653849
648417
643011
637630
632274
626942
621633
616345
611079
605833
600609
595406
590227
585070
579938
574829
569746
564688
559655
554645
549661
544700
539764
534851
529962
525094
520250
515426
510625
505843
501084
496346
491630
486934
482260
477605
472971
468356
463762
459188
454636
450105
445598
441112
436652
432214
427802
423414
419051
414712
410399
406107
401840
397593
393368
389161
384974
380807
376662
372534
368423
364336
360268
356215
352176
348153
344142
340151
336172
332211
328258
324321
320394
316482
312576
308688
304802
300932
297064
293205
289349
285495
281643
277781
273920
270035
266149
262219
258282
254278
250253
246127
241952
237630
233206
228571
223728
218600
213147
207297
1.36099e+06
1.34588e+06
1.33195e+06
1.31906e+06
1.3071e+06
1.29588e+06
1.28526e+06
1.27514e+06
1.26542e+06
1.25604e+06
1.24694e+06
1.23808e+06
1.22941e+06
1.22092e+06
1.21257e+06
1.20434e+06
1.19623e+06
1.18822e+06
1.1803e+06
1.17246e+06
1.16469e+06
1.157e+06
1.14936e+06
1.14179e+06
1.13427e+06
1.1268e+06
1.11939e+06
1.11202e+06
1.10469e+06
1.09741e+06
1.09018e+06
1.08298e+06
1.07583e+06
1.06872e+06
1.06164e+06
1.05461e+06
1.04762e+06
1.04067e+06
1.03375e+06
1.02688e+06
1.02004e+06
1.01323e+06
1.00645e+06
999705
992988
986297
979632
972993
966380
959791
953229
946693
940185
933705
927253
920827
914429
908059
901717
895400
889107
882835
876580
870341
864117
857907
851711
845527
839358
833208
827079
820975
814900
808855
802837
796845
790876
784929
779000
773087
767191
761311
755451
749614
743801
738011
732246
726503
720781
715082
709405
703750
698117
692507
686918
681348
675796
670266
664761
659280
653825
648393
642987
637606
632251
626920
621612
616324
611058
605812
600588
595385
590206
585049
579917
574809
569726
564667
559635
554625
549641
544679
539743
534830
529941
525072
520228
515403
510601
505819
501060
496322
491607
486911
482237
477581
472948
468332
463738
459163
454611
450080
445572
441086
436625
432187
427775
423386
419023
414682
410368
406075
401806
397557
393330
389121
384932
380763
376615
372482
368368
364278
360208
356149
352106
348077
344060
340063
336078
332108
328148
324201
320265
316341
312423
308521
304621
300733
296849
292969
289094
285213
281338
277445
273557
269635
265716
261744
257768
253716
249644
245465
241237
236858
232374
227690
222805
217659
212228
206455
1.36293e+06
1.348e+06
1.33411e+06
1.32118e+06
1.30911e+06
1.29775e+06
1.28698e+06
1.27671e+06
1.26685e+06
1.25733e+06
1.2481e+06
1.23912e+06
1.23035e+06
1.22176e+06
1.21333e+06
1.20503e+06
1.19685e+06
1.18877e+06
1.18079e+06
1.1729e+06
1.16509e+06
1.15735e+06
1.14968e+06
1.14208e+06
1.13453e+06
1.12704e+06
1.1196e+06
1.11221e+06
1.10487e+06
1.09757e+06
1.09033e+06
1.08312e+06
1.07596e+06
1.06884e+06
1.06176e+06
1.05473e+06
1.04773e+06
1.04077e+06
1.03386e+06
1.02698e+06
1.02013e+06
1.01332e+06
1.00654e+06
999785
993062
986366
979695
973050
966431
959837
953269
946729
940217
933733
927276
920846
914445
908073
901728
895410
889116
882842
876585
870344
864118
857907
851708
845521
839349
833196
827064
820958
814882
808835
802816
796823
790854
784905
778974
773058
767158
761276
755413
749573
743759
737970
732205
726463
720743
715045
709369
703714
698082
692474
686886
681317
675765
670236
664732
659252
653798
648367
642961
637580
632225
626894
621586
616299
611033
605787
600563
595359
590180
585024
579892
574784
569701
564643
559610
554600
549616
544654
539718
534804
529915
525046
520202
515376
510575
505792
501034
496295
491580
486884
482211
477555
472922
468306
463711
459136
454583
450051
445543
441057
436596
432158
427746
423356
418992
414650
410335
406040
401770
397519
393290
389078
384888
380715
376564
372427
368310
364219
360145
356082
352034
347998
343976
339973
335983
332005
328038
324081
320136
316200
312271
308354
304441
300535
296637
292735
288842
284936
281038
277115
273200
269244
265291
261281
257265
253172
249053
244829
240546
236123
231584
226861
221946
216789
211382
205679
1.36472e+06
1.34996e+06
1.33612e+06
1.32316e+06
1.311e+06
1.29953e+06
1.28863e+06
1.27822e+06
1.26823e+06
1.25858e+06
1.24924e+06
1.24015e+06
1.23128e+06
1.2226e+06
1.21408e+06
1.2057e+06
1.19745e+06
1.18931e+06
1.18128e+06
1.17334e+06
1.16548e+06
1.1577e+06
1.15e+06
1.14236e+06
1.13478e+06
1.12727e+06
1.11981e+06
1.1124e+06
1.10505e+06
1.09774e+06
1.09048e+06
1.08327e+06
1.0761e+06
1.06897e+06
1.06189e+06
1.05485e+06
1.04784e+06
1.04088e+06
1.03396e+06
1.02708e+06
1.02023e+06
1.01341e+06
1.00662e+06
999866
993137
986434
979756
973105
966480
959880
953307
946762
940245
933757
927296
920862
914457
908081
901734
895414
889117
882842
876583
870340
864113
857899
851698
845507
839333
833177
827043
820936
814857
808809
802790
796796
790826
784876
778943
773024
767121
761236
755370
749529
743714
737925
732161
726419
720701
715003
709328
703675
698043
692436
686849
681281
675730
670202
664699
659221
653768
648337
642931
637550
632195
626864
621557
616270
611003
605757
600533
595330
590151
584994
579862
574755
569673
564615
559582
554572
549587
544625
539689
534774
529885
525016
520172
515347
510545
505763
501004
496266
491551
486856
482183
477527
472893
468277
463682
459106
454554
450021
445513
441026
436565
432127
427714
423324
418959
414617
410300
406004
401732
397478
393248
389033
384841
380666
376511
372370
368251
364158
360081
356012
351960
347919
343891
339882
335887
331900
327926
323961
320006
316059
312119
308187
304262
300339
296425
292503
288592
284662
280742
276791
272849
268861
264875
260832
256776
252646
248480
244218
239884
235422
230838
226083
221145
215982
210599
204958
1.36639e+06
1.35177e+06
1.33799e+06
1.32502e+06
1.31279e+06
1.30121e+06
1.2902e+06
1.27967e+06
1.26956e+06
1.2598e+06
1.25034e+06
1.24115e+06
1.23218e+06
1.22341e+06
1.21481e+06
1.20636e+06
1.19805e+06
1.18985e+06
1.18176e+06
1.17377e+06
1.16587e+06
1.15805e+06
1.15031e+06
1.14264e+06
1.13504e+06
1.1275e+06