/*--------------------------------*- C++ -*----------------------------------*\
| =========                 |                                                 |
| \\      /  F ield         | OpenFOAM: The Open Source CFD Toolbox           |
|  \\    /   O peration     | Version:  2.4.0                                 |
|   \\  /    A nd           | Web:      www.OpenFOAM.org                      |
|    \\/     M anipulation  |                                                 |
\*---------------------------------------------------------------------------*/
FoamFile
{
    version     2.0;
    format      ascii;
    class       volVectorField;
    location    "0.088";
    object      U_0;
}
// * * * * * * * * * * * * * * * * * * * * * * * * * * * * * * * * * * * * * //

dimensions      [0 1 -1 0 0 0 0];

internalField   nonuniform List<vector> 
4400
(
(5.40397 0.316818 0)
(3.3169 0.0606366 0)
(2.57892 0.00164243 0)
(2.24363 -0.00265172 0)
(2.07278 -0.000735729 0)
(2.01659 -0.00158282 0)
(1.94259 0.000641766 0)
(1.94136 -0.00119172 0)
(1.91072 0.00386701 0)
(1.87961 -0.0464506 0)
(8.68554 0.857273 0)
(7.545 0.344728 0)
(6.61336 0.116342 0)
(5.9409 0.0533235 0)
(5.49076 0.0286611 0)
(5.32523 0.0120136 0)
(5.10761 0.0136871 0)
(5.0931 -0.00274858 0)
(5.0105 0.0178881 0)
(5.06406 -0.0230763 0)
(9.89127 0.936921 0)
(10.0008 0.478099 0)
(9.46272 0.212425 0)
(8.80343 0.127305 0)
(8.21578 0.0782394 0)
(7.99567 0.0386175 0)
(7.66274 0.0360466 0)
(7.66164 0.00134621 0)
(7.48238 0.0227518 0)
(7.63852 -0.0106538 0)
(10.1217 0.806224 0)
(11.1354 0.500378 0)
(11.2244 0.263983 0)
(10.8983 0.193784 0)
(10.3696 0.134916 0)
(10.1922 0.0748605 0)
(9.79396 0.0640668 0)
(9.84838 0.0110308 0)
(9.57443 0.0289862 0)
(9.76593 -0.0184936 0)
(10.0468 0.644995 0)
(11.3643 0.441328 0)
(11.9133 0.242402 0)
(12.0544 0.213718 0)
(11.7815 0.171093 0)
(11.7763 0.106689 0)
(11.4193 0.0908053 0)
(11.5504 0.0218813 0)
(11.2833 0.040347 0)
(11.4322 -0.0623246 0)
(10.0029 0.510724 0)
(11.3081 0.369846 0)
(11.9608 0.181816 0)
(12.3592 0.180527 0)
(12.3684 0.164544 0)
(12.5695 0.110924 0)
(12.402 0.103764 0)
(12.6116 0.0203364 0)
(12.5033 0.0526389 0)
(12.5982 -0.092413 0)
(10.0108 0.389612 0)
(11.2501 0.300671 0)
(11.9057 0.130597 0)
(12.2953 0.132908 0)
(12.5016 0.133967 0)
(12.7124 0.088094 0)
(12.7376 0.0913005 0)
(12.9861 0.00351292 0)
(13.0941 0.0333878 0)
(13.1915 -0.0450475 0)
(10.0402 0.263949 0)
(11.1626 0.23388 0)
(11.828 0.0889108 0)
(12.2416 0.0852973 0)
(12.5564 0.0919241 0)
(12.6457 0.0695817 0)
(12.7319 0.0678481 0)
(13.0036 -0.0210114 0)
(13.1889 -0.00385289 0)
(13.3214 -0.0260407 0)
(10.0317 0.156247 0)
(11.0837 0.151315 0)
(11.8697 0.050177 0)
(12.2431 0.0279916 0)
(12.4218 0.0657854 0)
(12.5496 0.0508972 0)
(12.779 0.0417383 0)
(13.0247 -0.0572586 0)
(13.101 -0.0187944 0)
(13.2635 -0.0904488 0)
(10.0101 0.0431081 0)
(11.0985 0.0644695 0)
(11.9041 0.00702925 0)
(12.1613 0.00336275 0)
(12.3226 0.0341318 0)
(12.595 0.0115204 0)
(12.8676 0.00618317 0)
(12.9596 -0.0672323 0)
(13.043 -0.0470446 0)
(13.2575 -0.136631 0)
(10.0158 -0.0652347 0)
(11.0703 -0.0275914 0)
(11.8845 -0.0179102 0)
(12.1881 -0.0338968 0)
(12.3556 -0.0120914 0)
(12.6269 -0.0280448 0)
(12.8348 -0.0131707 0)
(12.9404 -0.0795694 0)
(13.0507 -0.0772449 0)
(13.2784 -0.180953 0)
(10.0041 -0.174084 0)
(11.0732 -0.113456 0)
(11.9438 -0.0652751 0)
(12.2218 -0.0675538 0)
(12.3586 -0.0438991 0)
(12.609 -0.0612343 0)
(12.8291 -0.03996 0)
(12.9462 -0.0956513 0)
(13.1 -0.108384 0)
(13.2257 -0.203918 0)
(10.0175 -0.282417 0)
(11.1253 -0.208744 0)
(11.9777 -0.10168 0)
(12.1785 -0.0949505 0)
(12.424 -0.0844229 0)
(12.6276 -0.0951046 0)
(12.8585 -0.0653387 0)
(12.9597 -0.113942 0)
(13.1342 -0.130214 0)
(13.202 -0.240038 0)
(10.0456 -0.400354 0)
(11.1494 -0.284953 0)
(12.0071 -0.141787 0)
(12.1822 -0.134361 0)
(12.5446 -0.125734 0)
(12.6056 -0.121449 0)
(12.8831 -0.0929597 0)
(12.8617 -0.128253 0)
(13.0488 -0.149389 0)
(12.9255 -0.261785 0)
(10.0346 -0.519218 0)
(11.2154 -0.355299 0)
(12.0625 -0.192622 0)
(12.2178 -0.17991 0)
(12.5095 -0.163314 0)
(12.3934 -0.13992 0)
(12.5822 -0.10852 0)
(12.3626 -0.130326 0)
(12.461 -0.148882 0)
(12.0912 -0.24827 0)
(10.0563 -0.648849 0)
(11.3089 -0.43328 0)
(11.9956 -0.249893 0)
(11.9375 -0.214288 0)
(11.9214 -0.171334 0)
(11.5841 -0.129986 0)
(11.5865 -0.098687 0)
(11.2232 -0.107783 0)
(11.2181 -0.131081 0)
(10.7043 -0.188443 0)
(10.1252 -0.808387 0)
(11.1064 -0.496357 0)
(11.28 -0.26821 0)
(10.8084 -0.195436 0)
(10.4804 -0.134767 0)
(10.0187 -0.0936569 0)
(9.91305 -0.0694623 0)
(9.51699 -0.0759314 0)
(9.45931 -0.099585 0)
(8.89874 -0.12 0)
(9.89194 -0.937866 0)
(9.98572 -0.476205 0)
(9.49703 -0.214424 0)
(8.74048 -0.129307 0)
(8.28991 -0.0774912 0)
(7.85704 -0.0519553 0)
(7.72559 -0.0383373 0)
(7.37931 -0.0454972 0)
(7.30379 -0.0615905 0)
(6.7572 -0.0713818 0)
(8.6853 -0.85758 0)
(7.53752 -0.34418 0)
(6.63151 -0.116825 0)
(5.90312 -0.0551253 0)
(5.52954 -0.0275674 0)
(5.23059 -0.0191155 0)
(5.12626 -0.0143027 0)
(4.88397 -0.0200913 0)
(4.80537 -0.0276191 0)
(4.36907 -0.0312868 0)
(5.40378 -0.316848 0)
(3.31437 -0.0606535 0)
(2.58444 -0.00151985 0)
(2.22952 0.00199047 0)
(2.08288 0.00166169 0)
(1.9775 -9.22857e-05 0)
(1.93554 0.000271865 0)
(1.84094 -0.00168256 0)
(1.78762 -0.00187366 0)
(1.59901 0.00858186 0)
(2.21211 0.300459 0)
(3.68414 0.118651 0)
(3.68478 -0.379348 0)
(4.7381 -0.928664 0)
(3.95207 -0.911525 0)
(4.60738 -1.06381 0)
(4.03778 -0.46232 0)
(3.47244 -0.222341 0)
(4.19779 0.264554 0)
(4.4482 1.43044 0)
(5.93254 1.3607 0)
(7.0955 1.20565 0)
(8.21932 0.868508 0)
(9.0487 0.350033 0)
(9.65013 -0.0286495 0)
(10.1356 -0.219715 0)
(10.7346 -1.04403 0)
(11.1515 -1.91875 0)
(11.0328 -2.40302 0)
(10.5561 -2.88983 0)
(11.2784 -3.70694 0)
(12.4369 -5.11898 0)
(13.0753 -5.85404 0)
(12.6178 -5.58425 0)
(12.7023 -4.80659 0)
(12.6903 -3.85127 0)
(12.8744 -2.25504 0)
(13.0202 -0.580986 0)
(12.8891 0.651455 0)
(12.9382 2.39323 0)
(13.4943 3.09964 0)
(13.1769 3.20562 0)
(13.26 3.22009 0)
(12.9225 2.92098 0)
(13.0475 1.9174 0)
(12.8403 0.655649 0)
(12.2854 -0.76605 0)
(11.6357 -1.9824 0)
(10.8648 -2.73093 0)
(10.3047 -3.71787 0)
(9.15078 -3.6725 0)
(8.36284 -2.65538 0)
(7.75516 -2.71481 0)
(7.51862 -2.23886 0)
(5.9194 -1.50544 0)
(6.18732 -0.779954 0)
(5.15382 -0.837593 0)
(5.36891 -2.22723 0)
(3.81093 -6.54762 0)
(5.67821 -7.81765 0)
(6.22268 -6.86582 0)
(6.60886 -4.69325 0)
(6.74198 -4.20364 0)
(7.26516 -2.76285 0)
(8.3012 -1.17955 0)
(8.95006 1.49158 0)
(8.98012 3.30942 0)
(8.68739 4.66128 0)
(9.61778 6.33115 0)
(9.45615 8.5069 0)
(9.95363 8.89154 0)
(7.84466 8.39028 0)
(8.41388 6.08133 0)
(5.49727 5.38448 0)
(7.3615 3.18245 0)
(4.86021 3.78546 0)
(7.25734 1.62317 0)
(5.17072 2.57152 0)
(7.5632 0.239112 0)
(5.62427 1.25382 0)
(7.53569 -1.1927 0)
(5.58938 -0.0878321 0)
(7.07197 -2.65678 0)
(5.19379 -1.6529 0)
(6.46755 -4.05111 0)
(5.17241 -2.33602 0)
(6.17497 -3.87541 0)
(5.46207 -1.88879 0)
(6.1049 -2.54776 0)
(5.64392 -0.851787 0)
(6.02489 -1.42593 0)
(5.85523 -0.151528 0)
(6.09674 -0.553604 0)
(5.90888 0.412381 0)
(6.08628 0.00655562 0)
(5.99255 0.673754 0)
(6.1394 0.374709 0)
(6.02341 0.950316 0)
(6.02036 0.747492 0)
(5.95123 1.20145 0)
(6.12508 1.07393 0)
(6.23131 1.52822 0)
(6.18569 1.53636 0)
(6.1461 2.1457 0)
(5.90665 2.00291 0)
(5.98664 2.87275 0)
(6.33884 2.74861 0)
(6.39274 4.48205 0)
(7.24429 4.91534 0)
(4.27963 8.78707 0)
(4.85794 0.0348705 0)
(5.94622 -0.0927513 0)
(5.89997 -0.413585 0)
(6.6863 -0.932186 0)
(6.08667 -0.966638 0)
(6.35005 -1.03075 0)
(6.2955 -0.485977 0)
(5.70247 -0.115953 0)
(6.12522 0.292134 0)
(5.87678 1.06045 0)
(6.56235 0.867967 0)
(7.39211 0.644574 0)
(8.37675 0.392713 0)
(9.18375 -0.0491147 0)
(9.66184 -0.30156 0)
(10.1957 -0.467911 0)
(10.9797 -1.27868 0)
(11.016 -1.92801 0)
(10.971 -2.37188 0)
(11.3646 -3.24962 0)
(12.394 -4.10906 0)
(13.298 -5.29214 0)
(13.5087 -5.86245 0)
(13.1668 -5.45263 0)
(13.1252 -4.86272 0)
(13.4465 -3.95313 0)
(13.3593 -2.34453 0)
(13.5385 -0.638107 0)
(13.4759 0.644746 0)
(13.3068 2.3772 0)
(13.8091 3.11646 0)
(13.4567 3.21059 0)
(13.4479 3.22964 0)
(13.0487 2.92133 0)
(13.2249 1.98175 0)
(12.9638 0.897746 0)
(12.4673 -0.529379 0)
(11.933 -1.74034 0)
(11.1053 -2.40741 0)
(10.4901 -3.32533 0)
(9.34159 -3.27906 0)
(8.61658 -2.2727 0)
(7.94038 -2.46205 0)
(7.53749 -1.93583 0)
(6.18491 -1.17278 0)
(6.25634 -0.595503 0)
(5.04345 -0.579021 0)
(5.26359 -2.14054 0)
(4.08251 -6.55287 0)
(5.1445 -8.22722 0)
(5.5593 -7.114 0)
(6.17848 -4.64003 0)
(6.07346 -4.48798 0)
(6.48512 -2.93485 0)
(7.53028 -1.47866 0)
(8.11234 1.39564 0)
(8.33519 3.21977 0)
(7.96133 4.62376 0)
(9.11223 6.18599 0)
(8.98912 8.49432 0)
(9.86439 9.03269 0)
(7.81599 8.84415 0)
(8.723 6.46312 0)
(5.74681 5.70387 0)
(7.6185 3.174 0)
(5.20395 3.93868 0)
(7.54343 1.47936 0)
(5.50842 2.56534 0)
(7.84866 0.111776 0)
(6.22256 1.27249 0)
(7.9014 -1.21294 0)
(6.05501 0.0150956 0)
(7.47668 -2.57569 0)
(5.63378 -1.47755 0)
(6.85662 -4.08896 0)
(5.48577 -2.15813 0)
(6.51834 -4.0309 0)
(5.5736 -1.70799 0)
(6.39301 -2.77323 0)
(5.75454 -0.655546 0)
(6.25217 -1.72368 0)
(6.0234 0.0504941 0)
(6.28188 -0.762429 0)
(6.04812 0.653779 0)
(6.19785 -0.249836 0)
(6.21523 0.901598 0)
(6.25227 0.217058 0)
(6.12282 1.18396 0)
(6.05228 0.53843 0)
(6.08602 1.40613 0)
(6.07726 0.889767 0)
(6.12917 1.68971 0)
(6.24272 1.31636 0)
(6.31308 2.39644 0)
(6.48946 1.88843 0)
(6.16225 3.35617 0)
(6.20895 2.71596 0)
(5.14669 4.86535 0)
(8.59079 4.26587 0)
(6.64466 9.22725 0)
(7.38982 -0.174117 0)
(8.15855 -0.279736 0)
(8.25136 -0.454521 0)
(8.57614 -0.960299 0)
(8.41646 -0.976865 0)
(8.1122 -1.00962 0)
(8.4994 -0.517041 0)
(7.80419 0.00827839 0)
(7.93811 0.278923 0)
(8.05516 0.911116 0)
(8.38479 0.81255 0)
(8.64953 0.468154 0)
(9.18946 0.142296 0)
(9.74528 -0.32316 0)
(9.87635 -0.536164 0)
(10.4074 -0.770884 0)
(11.2315 -1.56301 0)
(11.1394 -1.95954 0)
(11.6055 -2.44202 0)
(12.6867 -3.71161 0)
(13.4108 -4.49918 0)
(13.7443 -5.29005 0)
(13.6298 -5.86079 0)
(13.5172 -5.48797 0)
(13.3863 -4.98321 0)
(13.7919 -4.04464 0)
(13.6297 -2.39044 0)
(13.6709 -0.768642 0)
(13.8717 0.64728 0)
(13.6205 2.45081 0)
(13.8886 3.17903 0)
(13.5448 3.25634 0)
(13.5154 3.28495 0)
(13.1426 2.96015 0)
(13.2506 2.08244 0)
(12.9261 1.09647 0)
(12.5318 -0.356768 0)
(12.0327 -1.49081 0)
(11.1119 -2.08767 0)
(10.5069 -2.99744 0)
(9.34871 -2.95135 0)
(8.7255 -2.01368 0)
(8.16111 -2.20469 0)
(7.52668 -1.64742 0)
(6.46784 -0.814453 0)
(6.30217 -0.301486 0)
(4.75004 -0.3246 0)
(5.34266 -2.11032 0)
(4.41576 -6.27619 0)
(4.25305 -8.51027 0)
(4.42154 -7.32934 0)
(5.70607 -4.69854 0)
(5.35662 -4.74778 0)
(5.70245 -3.05086 0)
(6.56492 -1.76118 0)
(7.12684 1.25543 0)
(7.66388 3.06965 0)
(7.2553 4.53531 0)
(8.51349 5.95566 0)
(8.38084 8.32878 0)
(9.61478 9.05452 0)
(7.65045 9.10838 0)
(8.86671 6.71305 0)
(6.03102 6.01667 0)
(7.88007 3.26067 0)
(5.49737 3.95425 0)
(7.79368 1.39403 0)
(5.89414 2.52707 0)
(7.99256 -0.0438946 0)
(6.56649 1.20058 0)
(8.23613 -1.19763 0)
(6.60285 0.135318 0)
(7.99387 -2.42902 0)
(6.22522 -1.33645 0)
(7.30374 -4.06108 0)
(5.84271 -2.07076 0)
(6.97383 -4.04412 0)
(5.63714 -1.61371 0)
(6.73873 -2.90189 0)
(5.65639 -0.464159 0)
(6.53183 -1.9323 0)
(5.85093 0.178647 0)
(6.68838 -1.02062 0)
(5.98924 0.789013 0)
(6.872 -0.492654 0)
(6.31015 1.03878 0)
(7.05762 0.0066219 0)
(6.38994 1.40413 0)
(6.9877 0.418542 0)
(6.3333 1.58199 0)
(6.76526 0.682957 0)
(6.28804 1.92086 0)
(6.38077 0.993731 0)
(6.26504 2.45039 0)
(6.92421 1.31897 0)
(6.71404 3.28548 0)
(8.64343 2.4662 0)
(5.88321 5.08539 0)
(9.39498 3.58907 0)
(7.36386 9.41237 0)
(9.68985 -0.266803 0)
(10.0155 -0.404564 0)
(10.263 -0.460357 0)
(10.3269 -0.895901 0)
(10.3809 -0.958401 0)
(9.88886 -0.89465 0)
(10.1398 -0.621113 0)
(9.78977 0.0944997 0)
(9.70183 0.380173 0)
(9.89486 0.711451 0)
(10.2 0.70445 0)
(10.3536 0.413203 0)
(10.6969 0.0580963 0)
(11.186 -0.377293 0)
(11.0563 -0.612928 0)
(11.5164 -0.977318 0)
(12.2395 -1.6745 0)
(12.0461 -2.00942 0)
(12.8671 -2.67711 0)
(13.9233 -4.05355 0)
(13.9212 -4.69301 0)
(13.7603 -5.19634 0)
(13.7179 -5.85416 0)
(13.7624 -5.56349 0)
(13.6158 -5.08891 0)
(13.8184 -4.10636 0)
(13.5975 -2.33472 0)
(13.4332 -0.865261 0)
(13.8107 0.591594 0)
(13.7434 2.51773 0)
(13.9209 3.24177 0)
(13.5372 3.31997 0)
(13.3941 3.33775 0)
(13.0717 3.00447 0)
(13.0353 2.1838 0)
(12.7315 1.28806 0)
(12.4802 -0.171407 0)
(11.873 -1.25856 0)
(10.9336 -1.78501 0)
(10.4492 -2.64816 0)
(9.43149 -2.55415 0)
(8.7029 -1.75545 0)
(8.40461 -1.91699 0)
(7.52761 -1.30297 0)
(6.66837 -0.529624 0)
(6.21615 0.0375264 0)
(4.49865 -0.136105 0)
(5.25139 -2.13429 0)
(4.68077 -5.8868 0)
(3.31947 -8.47862 0)
(3.18788 -7.4794 0)
(4.92879 -4.91871 0)
(4.5703 -4.85945 0)
(4.82945 -3.12918 0)
(5.48435 -2.09414 0)
(5.99324 1.2076 0)
(6.70638 2.83293 0)
(6.34263 4.488 0)
(7.97606 5.67148 0)
(7.76445 8.13895 0)
(9.42244 9.00303 0)
(7.48192 9.33012 0)
(8.9578 6.93145 0)
(6.31236 6.36854 0)
(8.13283 3.31275 0)
(5.96675 4.01554 0)
(7.96292 1.32117 0)
(6.28841 2.49653 0)
(8.15032 -0.210971 0)
(6.94847 1.21732 0)
(8.57766 -1.237 0)
(7.00621 0.188284 0)
(8.1949 -2.47324 0)
(6.68025 -1.22225 0)
(7.66667 -4.06268 0)
(6.24567 -1.93754 0)
(7.25443 -4.05699 0)
(5.83124 -1.39213 0)
(6.87 -3.02883 0)
(5.66984 -0.235448 0)
(6.58982 -2.18907 0)
(5.6564 0.414623 0)
(6.75446 -1.27982 0)
(5.72393 1.05074 0)
(6.88378 -0.925886 0)
(6.16287 1.25691 0)
(7.37497 -0.351571 0)
(6.44911 1.65537 0)
(7.59315 0.0167312 0)
(6.8902 1.94594 0)
(7.72188 0.457257 0)
(6.83296 2.3376 0)
(7.30304 0.943065 0)
(6.17441 2.95835 0)
(6.99778 1.16396 0)
(5.15965 3.49318 0)
(8.82473 1.83551 0)
(5.96087 5.18248 0)
(11.2177 2.30141 0)
(9.03483 8.59665 0)
(11.5169 -0.278252 0)
(11.5589 -0.41742 0)
(11.7726 -0.468563 0)
(11.742 -0.835144 0)
(11.71 -0.988155 0)
(11.3816 -0.797546 0)
(11.4131 -0.638602 0)
(11.2498 0.0638271 0)
(11.2367 0.478042 0)
(11.3729 0.586648 0)
(11.6378 0.551666 0)
(11.7463 0.340603 0)
(12.0195 -0.0371284 0)
(12.5058 -0.461074 0)
(12.4083 -0.700984 0)
(12.8956 -1.08942 0)
(13.4077 -1.69855 0)
(13.2091 -2.14816 0)
(13.9987 -2.93031 0)
(14.4744 -4.15045 0)
(13.8596 -4.69104 0)
(13.6343 -5.09372 0)
(13.7886 -5.85015 0)
(13.8213 -5.66004 0)
(13.4704 -5.07549 0)
(13.3383 -4.0436 0)
(13.1623 -2.22624 0)
(12.9077 -0.938167 0)
(13.2933 0.503141 0)
(13.5338 2.51827 0)
(13.7671 3.31343 0)
(13.3946 3.4489 0)
(13.1046 3.44165 0)
(12.7556 3.02984 0)
(12.6375 2.27444 0)
(12.4487 1.41472 0)
(12.2033 -0.0267874 0)
(11.5569 -0.97303 0)
(10.6844 -1.47313 0)
(10.3055 -2.37217 0)
(9.40687 -2.22944 0)
(8.78116 -1.5326 0)
(8.46982 -1.69806 0)
(7.54727 -0.990968 0)
(6.91108 -0.228945 0)
(6.14457 0.507347 0)
(4.52209 0.0942712 0)
(4.94184 -2.15327 0)
(4.71901 -5.52366 0)
(2.94467 -8.05413 0)
(2.31179 -7.51491 0)
(4.28645 -5.21954 0)
(3.87487 -4.91888 0)
(3.9986 -3.03896 0)
(4.24656 -2.4612 0)
(4.78023 1.20059 0)
(5.72423 2.48984 0)
(5.47562 4.40928 0)
(7.25187 5.35878 0)
(6.95802 7.98318 0)
(9.01131 8.83074 0)
(7.26478 9.47584 0)
(8.92448 7.04185 0)
(6.53008 6.55929 0)
(8.28106 3.32636 0)
(6.3549 4.05858 0)
(8.23276 1.28655 0)
(6.62192 2.45558 0)
(8.39503 -0.295792 0)
(7.30976 1.09856 0)
(8.82734 -1.26396 0)
(7.44348 0.272817 0)
(8.55179 -2.30081 0)
(7.23775 -1.09778 0)
(8.10985 -3.93886 0)
(6.71883 -1.83433 0)
(7.58835 -3.99392 0)
(6.12964 -1.27554 0)
(7.05106 -3.06033 0)
(5.80077 -0.0376369 0)
(6.70198 -2.29327 0)
(5.54863 0.531174 0)
(6.86147 -1.52628 0)
(5.64533 1.24611 0)
(7.07059 -1.27578 0)
(5.81467 1.39927 0)
(7.84955 -0.798663 0)
(6.23667 1.87179 0)
(8.65483 -0.530062 0)
(6.70159 1.99823 0)
(10.068 -0.079238 0)
(7.20793 2.46407 0)
(11.1723 0.610585 0)
(6.93147 3.09528 0)
(11.8111 1.28978 0)
(5.96357 3.80983 0)
(10.7157 1.66885 0)
(5.54281 5.68654 0)
(9.36906 1.34189 0)
(9.17089 8.02249 0)
(12.6812 -0.308657 0)
(12.6479 -0.411202 0)
(12.8188 -0.495648 0)
(12.7811 -0.764869 0)
(12.6438 -0.945695 0)
(12.4157 -0.729626 0)
(12.2433 -0.595954 0)
(12.1209 -0.034468 0)
(12.2286 0.475431 0)
(12.4138 0.562967 0)
(12.6913 0.466252 0)
(12.7659 0.253477 0)
(12.9768 -0.121945 0)
(13.3216 -0.510854 0)
(13.3486 -0.806027 0)
(13.822 -1.22685 0)
(14.0344 -1.70861 0)
(13.9878 -2.28715 0)
(14.4651 -3.10037 0)
(14.2557 -4.0208 0)
(13.5655 -4.61066 0)
(13.5826 -5.1361 0)
(13.7191 -5.82253 0)
(13.4069 -5.60961 0)
(12.8601 -4.90882 0)
(12.4477 -3.84956 0)
(12.229 -2.11902 0)
(12.053 -0.986861 0)
(12.417 0.410419 0)
(12.851 2.43161 0)
(13.2834 3.32582 0)
(13.0705 3.57299 0)
(12.692 3.51896 0)
(12.3425 3.05789 0)
(12.1554 2.32441 0)
(12.002 1.49778 0)
(11.7742 0.165588 0)
(11.1224 -0.671515 0)
(10.4258 -1.24862 0)
(10.1796 -2.16082 0)
(9.36081 -1.93136 0)
(8.82562 -1.31925 0)
(8.55892 -1.41247 0)
(7.44704 -0.661431 0)
(7.05449 0.063182 0)
(5.91972 0.960162 0)
(4.62014 0.345035 0)
(4.70108 -2.13821 0)
(4.52486 -5.26282 0)
(2.99503 -7.51546 0)
(1.97305 -7.58123 0)
(4.0939 -5.6762 0)
(3.3554 -4.83647 0)
(3.24909 -2.90365 0)
(3.08683 -2.71164 0)
(3.5878 1.20296 0)
(4.61019 1.96453 0)
(4.65407 4.258 0)
(6.68067 4.94559 0)
(6.25774 7.65335 0)
(8.59573 8.52932 0)
(6.96426 9.50336 0)
(8.82539 7.02819 0)
(6.73535 6.77704 0)
(8.3789 3.34496 0)
(6.70838 4.09586 0)
(8.38117 1.22334 0)
(7.03404 2.4392 0)
(8.49625 -0.455093 0)
(7.69994 1.0258 0)
(8.86513 -1.31059 0)
(7.80896 0.362215 0)
(8.7063 -2.29402 0)
(7.60866 -1.01894 0)
(8.30628 -3.94266 0)
(7.01537 -1.68507 0)
(7.76651 -3.92239 0)
(6.35169 -1.02836 0)
(7.11059 -3.11372 0)
(5.84272 0.206062 0)
(6.71927 -2.36526 0)
(5.41015 0.79137 0)
(6.65848 -1.70807 0)
(5.34481 1.52458 0)
(6.7422 -1.45723 0)
(5.14423 1.68036 0)
(7.41154 -1.11491 0)
(5.39699 2.19149 0)
(8.15465 -0.83706 0)
(5.20455 2.29311 0)
(9.62887 -0.600588 0)
(5.70888 2.73979 0)
(11.5736 0.0111168 0)
(6.40225 3.27388 0)
(13.289 0.46415 0)
(7.79885 4.05566 0)
(13.559 0.97948 0)
(8.5875 5.79622 0)
(11.1883 1.46231 0)
(9.09471 7.08193 0)
(13.1693 -0.340658 0)
(13.1359 -0.462964 0)
(13.3472 -0.567848 0)
(13.3023 -0.723069 0)
(13.1328 -0.88037 0)
(12.9539 -0.693389 0)
(12.6941 -0.49005 0)
(12.533 -0.0890558 0)
(12.606 0.391843 0)
(12.7885 0.475859 0)
(13.1239 0.357459 0)
(13.2988 0.181477 0)
(13.4948 -0.161793 0)
(13.6626 -0.543359 0)
(13.8246 -0.936244 0)
(14.1601 -1.29175 0)
(14.1368 -1.71373 0)
(14.1902 -2.4666 0)
(14.1813 -3.11504 0)
(13.7051 -3.79606 0)
(13.4208 -4.60774 0)
(13.52 -5.22021 0)
(13.2931 -5.66213 0)
(12.5525 -5.36666 0)
(11.8133 -4.62442 0)
(11.328 -3.60251 0)
(11.1274 -2.05869 0)
(11.0286 -1.03901 0)
(11.2768 0.318749 0)
(11.8744 2.22765 0)
(12.5683 3.20431 0)
(12.5384 3.66104 0)
(12.1701 3.65731 0)
(11.8957 3.14462 0)
(11.6033 2.41666 0)
(11.473 1.58696 0)
(11.2351 0.360132 0)
(10.6147 -0.469829 0)
(10.2167 -1.0875 0)
(10.1259 -1.91758 0)
(9.32614 -1.60333 0)
(8.73574 -1.18201 0)
(8.53147 -1.16477 0)
(7.43625 -0.354829 0)
(7.11983 0.392176 0)
(5.71302 1.40326 0)
(4.68089 0.663542 0)
(4.58411 -2.0947 0)
(4.31619 -5.05949 0)
(3.02557 -7.02758 0)
(1.7215 -7.615 0)
(3.68712 -6.11252 0)
(2.67048 -4.52763 0)
(2.45407 -2.83113 0)
(2.16415 -2.93312 0)
(2.56083 1.20482 0)
(3.66121 1.3778 0)
(3.86676 4.16108 0)
(5.79891 4.40717 0)
(5.41781 7.45277 0)
(8.01935 8.20038 0)
(6.60659 9.44385 0)
(8.64487 6.96996 0)
(6.91998 6.92118 0)
(8.427 3.34427 0)
(7.07628 4.05271 0)
(8.42423 1.18758 0)
(7.41666 2.34116 0)
(8.64497 -0.529261 0)
(8.01431 0.922137 0)
(9.05396 -1.3264 0)
(8.09788 0.333472 0)
(8.93217 -2.22869 0)
(8.04376 -0.954259 0)
(8.7016 -3.77654 0)
(7.49155 -1.58044 0)
(7.99972 -3.80876 0)
(6.70477 -0.849618 0)
(7.16465 -3.079 0)
(6.04112 0.347318 0)
(6.77168 -2.44079 0)
(5.58813 0.880441 0)
(6.57905 -1.89923 0)
(5.5219 1.6095 0)
(6.61869 -1.62706 0)
(5.28173 1.67794 0)
(6.81537 -1.38058 0)
(5.48677 2.2238 0)
(7.02857 -1.0413 0)
(5.06814 2.37273 0)
(7.3271 -1.02414 0)
(5.44774 2.93102 0)
(8.0979 -0.479828 0)
(5.6448 3.66609 0)
(8.92904 -0.388304 0)
(7.13109 4.57842 0)
(11.2165 0.38568 0)
(9.07449 5.96231 0)
(12.8451 1.99549 0)
(10.0453 6.33546 0)
(13.2177 -0.329627 0)
(13.2423 -0.475166 0)
(13.4253 -0.598257 0)
(13.3466 -0.657007 0)
(13.2648 -0.75994 0)
(13.0934 -0.621789 0)
(12.7478 -0.38827 0)
(12.5854 -0.0999549 0)
(12.594 0.326905 0)
(12.7562 0.410736 0)
(13.1531 0.253967 0)
(13.3488 0.0432584 0)
(13.4604 -0.227155 0)
(13.6003 -0.566587 0)
(13.9092 -1.03379 0)
(13.9995 -1.33446 0)
(13.8917 -1.74854 0)
(13.9228 -2.49724 0)
(13.6033 -2.97448 0)
(13.3038 -3.62199 0)
(13.3968 -4.62664 0)
(13.1981 -5.16942 0)
(12.3717 -5.28643 0)
(11.319 -4.94679 0)
(10.5889 -4.27558 0)
(10.1323 -3.34848 0)
(10.002 -2.00665 0)
(9.95076 -1.05923 0)
(10.0811 0.201052 0)
(10.7255 1.90766 0)
(11.5777 3.00278 0)
(11.8 3.68368 0)
(11.6201 3.70857 0)
(11.4015 3.21111 0)
(11.0621 2.53197 0)
(10.9292 1.67738 0)
(10.6956 0.519226 0)
(10.1979 -0.264327 0)
(9.90306 -0.991371 0)
(9.80754 -1.78573 0)
(9.10366 -1.34859 0)
(8.76708 -0.970624 0)
(8.42455 -0.86078 0)
(7.40662 -0.0509823 0)
(7.01137 0.726093 0)
(5.51455 1.82327 0)
(4.79683 0.986673 0)
(4.56512 -2.00051 0)
(4.0807 -4.77022 0)
(2.79666 -6.54043 0)
(0.979964 -7.62454 0)
(2.52627 -6.39779 0)
(1.53832 -4.24768 0)
(1.67033 -2.75883 0)
(1.45242 -2.9291 0)
(1.4802 1.22041 0)
(2.62995 0.563172 0)
(3.09141 4.10218 0)
(5.02616 3.85839 0)
(4.7397 7.30254 0)
(7.33361 7.67179 0)
(6.19731 9.3064 0)
(8.35223 6.77284 0)
(6.99152 6.96212 0)
(8.42215 3.31684 0)
(7.39833 4.05807 0)
(8.51789 1.16132 0)
(7.73501 2.26695 0)
(8.82841 -0.616361 0)
(8.26263 0.851089 0)
(9.16391 -1.31107 0)
(8.39603 0.378776 0)
(9.19963 -2.20313 0)
(8.51496 -0.954725 0)
(9.02832 -3.68595 0)
(7.86446 -1.39183 0)
(8.12029 -3.66216 0)
(6.88383 -0.594491 0)
(7.23273 -3.02289 0)
(6.08055 0.614234 0)
(6.70597 -2.45093 0)
(5.52616 1.15346 0)
(6.42144 -2.09634 0)
(5.39899 1.83648 0)
(6.53469 -1.81453 0)
(5.20739 1.90588 0)
(6.64777 -1.76877 0)
(5.37379 2.40916 0)
(7.03958 -1.28612 0)
(5.32504 2.54776 0)
(7.07373 -1.51742 0)
(5.80998 2.93059 0)
(7.53807 -0.947922 0)
(6.23525 3.86951 0)
(7.36784 -1.15068 0)
(6.9373 4.73212 0)
(8.98668 -0.321835 0)
(8.23298 5.66825 0)
(11.6773 1.72134 0)
(10.7937 5.76677 0)
(13.2663 -0.341751 0)
(13.3537 -0.434182 0)
(13.4183 -0.524601 0)
(13.2697 -0.607307 0)
(13.2368 -0.673025 0)
(13.0917 -0.562511 0)
(12.6547 -0.300901 0)
(12.5118 -0.0432565 0)
(12.5947 0.243823 0)
(12.8462 0.267299 0)
(13.1246 0.157875 0)
(13.2832 0.00922506 0)
(13.3951 -0.271131 0)
(13.5522 -0.6698 0)
(13.7703 -1.08375 0)
(13.5628 -1.32285 0)
(13.514 -1.7849 0)
(13.5576 -2.42022 0)
(13.1327 -2.82018 0)
(13.189 -3.58462 0)
(13.236 -4.53025 0)
(12.3639 -4.85043 0)
(11.0221 -4.7889 0)
(9.8994 -4.5432 0)
(9.31273 -4.02973 0)
(8.98883 -3.18693 0)
(8.90118 -1.99536 0)
(8.79915 -1.04836 0)
(8.7443 0.139567 0)
(9.35887 1.59051 0)
(10.3212 2.75402 0)
(10.7402 3.63252 0)
(10.7954 3.76348 0)
(10.6503 3.34271 0)
(10.3944 2.67127 0)
(10.3413 1.77007 0)
(10.1213 0.684106 0)
(9.83038 -0.141998 0)
(9.56703 -0.936505 0)
(9.44018 -1.57426 0)
(8.63235 -1.11605 0)
(8.5602 -0.869441 0)
(8.17502 -0.611626 0)
(7.35128 0.23952 0)
(6.82094 1.09558 0)
(5.31043 2.21108 0)
(4.82189 1.27306 0)
(4.55092 -1.82155 0)
(3.81052 -4.29084 0)
(2.1393 -5.91738 0)
(-7.54015e-05 -7.4652 0)
(0.83755 -6.56909 0)
(0.277226 -4.03218 0)
(1.19953 -2.94662 0)
(0.88206 -2.9725 0)
(0.885583 1.12451 0)
(1.96114 -0.0032481 0)
(2.33594 3.90387 0)
(4.12917 2.941 0)
(3.96668 7.15531 0)
(6.56365 7.10177 0)
(5.80068 9.09275 0)
(7.938 6.51389 0)
(7.02851 6.96372 0)
(8.36489 3.2611 0)
(7.67062 3.98472 0)
(8.59198 1.15171 0)
(8.06149 2.11101 0)
(8.93079 -0.652315 0)
(8.56036 0.739665 0)
(9.14441 -1.30826 0)
(8.655 0.270518 0)
(9.3168 -2.14263 0)
(9.04057 -0.957652 0)
(9.30286 -3.50174 0)
(8.33585 -1.23908 0)
(8.2916 -3.38556 0)
(7.18886 -0.374198 0)
(7.22942 -2.90567 0)
(6.27778 0.73175 0)
(6.72304 -2.48243 0)
(5.7531 1.27398 0)
(6.35198 -2.18986 0)
(5.51919 1.9319 0)
(6.34794 -1.97651 0)
(5.36569 2.03677 0)
(6.28262 -1.97221 0)
(5.39082 2.56791 0)
(6.55303 -1.58397 0)
(5.46424 2.77877 0)
(6.48959 -1.87525 0)
(5.78408 3.19299 0)
(7.06939 -1.36717 0)
(6.34561 4.10694 0)
(7.225 -1.34273 0)
(6.94225 4.54634 0)
(8.06307 -0.447162 0)
(7.93747 5.22189 0)
(9.49705 1.22296 0)
(10.616 5.13823 0)
(13.2847 -0.341051 0)
(13.2751 -0.365977 0)
(13.3724 -0.428276 0)
(13.2612 -0.529418 0)
(13.163 -0.576996 0)
(12.9318 -0.463968 0)
(12.5997 -0.226226 0)
(12.6869 -0.0578281 0)
(12.8623 0.0983687 0)
(12.9019 0.179724 0)
(12.9947 0.142083 0)
(13.3368 -0.097106 0)
(13.4684 -0.363168 0)
(13.4252 -0.653503 0)
(13.4473 -1.01857 0)
(13.2157 -1.2693 0)
(13.3334 -1.73488 0)
(13.2749 -2.27862 0)
(12.9158 -2.73408 0)
(13.0082 -3.56387 0)
(12.5696 -4.29131 0)
(11.0521 -4.34811 0)
(9.47671 -4.25494 0)
(8.55344 -4.19336 0)
(8.11861 -3.85534 0)
(7.85964 -3.08623 0)
(7.74491 -1.95703 0)
(7.52512 -0.956263 0)
(7.37868 0.115832 0)
(7.94215 1.29286 0)
(8.83639 2.5161 0)
(9.36235 3.50372 0)
(9.70443 3.69907 0)
(9.70511 3.37296 0)
(9.57959 2.71659 0)
(9.63919 1.82379 0)
(9.53147 0.782048 0)
(9.37097 -0.0512693 0)
(9.05063 -0.843498 0)
(8.87048 -1.34998 0)
(8.18245 -0.932651 0)
(8.29714 -0.776045 0)
(7.88717 -0.346689 0)
(7.1969 0.51179 0)
(6.5505 1.454 0)
(5.19952 2.55068 0)
(4.84493 1.47292 0)
(4.53033 -1.49661 0)
(3.43185 -3.7117 0)
(1.52752 -5.20511 0)
(-0.483579 -6.98109 0)
(-0.531875 -6.59301 0)
(-0.683201 -4.18218 0)
(1.06904 -3.23786 0)
(-0.0945096 -2.80819 0)
(0.235305 0.929386 0)
(1.1461 -0.788297 0)
(1.7559 3.9181 0)
(3.1758 2.23682 0)
(3.39878 7.14459 0)
(5.60713 6.34532 0)
(5.34017 8.86173 0)
(7.44014 6.16224 0)
(7.0028 6.86121 0)
(8.28006 3.15456 0)
(7.89824 3.88412 0)
(8.65547 1.14192 0)
(8.37579 1.98281 0)
(9.08033 -0.70102 0)
(8.8224 0.648664 0)
(9.25016 -1.27084 0)
(8.98986 0.203211 0)
(9.50984 -2.20027 0)
(9.37915 -1.01243 0)
(9.48854 -3.31595 0)
(8.59626 -1.05504 0)
(8.32743 -3.14312 0)
(7.33613 -0.112431 0)
(7.20234 -2.69178 0)
(6.29971 0.979254 0)
(6.57577 -2.41812 0)
(5.72307 1.50145 0)
(6.26249 -2.3243 0)
(5.49507 2.10265 0)
(6.31468 -2.16154 0)
(5.43237 2.25967 0)
(6.27729 -2.275 0)
(5.44583 2.74489 0)
(6.53965 -1.90199 0)
(5.7341 3.03029 0)
(6.58006 -2.18933 0)
(5.97713 3.29739 0)
(6.84459 -1.66921 0)
(6.63933 4.13245 0)
(7.08291 -1.34638 0)
(7.1376 4.33818 0)
(7.5418 -0.468136 0)
(8.11282 4.62571 0)
(8.51012 1.044 0)
(10.0296 4.32905 0)
(13.2011 -0.295965 0)
(13.2222 -0.300669 0)
(13.3217 -0.390841 0)
(13.2079 -0.465851 0)
(13.0825 -0.432721 0)
(12.9237 -0.408225 0)
(12.8229 -0.303219 0)
(12.8827 -0.109317 0)
(12.8744 0.0711526 0)
(12.8823 0.171175 0)
(13.1172 0.0766691 0)
(13.412 -0.192063 0)
(13.2623 -0.33466 0)
(13.2371 -0.593231 0)
(13.2445 -0.950771 0)
(13.1523 -1.25999 0)
(13.2349 -1.71305 0)
(12.9203 -2.15906 0)
(12.6526 -2.71363 0)
(12.565 -3.43813 0)
(11.4244 -3.76501 0)
(9.47525 -3.65568 0)
(7.94565 -3.7637 0)
(7.21005 -3.94479 0)
(6.79944 -3.71019 0)
(6.51314 -3.0004 0)
(6.39932 -1.9226 0)
(6.24091 -0.925323 0)
(6.20468 0.00823952 0)
(6.62001 1.03773 0)
(7.30507 2.25984 0)
(7.96851 3.21118 0)
(8.46126 3.5242 0)
(8.56875 3.33987 0)
(8.65328 2.71175 0)
(8.84007 1.80949 0)
(8.83183 0.822246 0)
(8.70386 0.0304942 0)
(8.33549 -0.720736 0)
(8.16776 -1.1514 0)
(7.6347 -0.811358 0)
(7.93998 -0.730247 0)
(7.43001 -0.124015 0)
(6.96089 0.77 0)
(6.11818 1.80865 0)
(5.04325 2.88149 0)
(4.88447 1.71192 0)
(4.62538 -1.11171 0)
(3.19005 -3.0871 0)
(1.44015 -4.47979 0)
(-0.194774 -6.34539 0)
(-0.943564 -6.55485 0)
(-1.47223 -4.59597 0)
(1.08714 -3.37758 0)
(-1.53502 -2.50924 0)
(0.000100502 0.721944 0)
(0.178669 -1.10246 0)
(1.06171 3.69281 0)
(1.94508 1.27007 0)
(2.58671 7.11486 0)
(4.42082 5.44918 0)
(4.96728 8.58457 0)
(6.81293 5.73729 0)
(6.86346 6.62007 0)
(8.11309 3.01773 0)
(8.07331 3.7361 0)
(8.6764 1.13123 0)
(8.72472 1.77523 0)
(9.21986 -0.699102 0)
(9.08591 0.558843 0)
(9.36782 -1.22029 0)
(9.41016 0.0432275 0)
(9.80404 -2.17479 0)
(9.83211 -1.10224 0)
(9.66238 -3.08471 0)
(8.95557 -0.850179 0)
(8.38022 -2.79596 0)
(7.53776 0.0801559 0)
(7.15631 -2.44525 0)
(6.47686 1.08732 0)
(6.52824 -2.26446 0)
(5.91009 1.58945 0)
(6.13622 -2.21907 0)
(5.58771 2.16327 0)
(6.08014 -2.17212 0)
(5.54459 2.34921 0)
(6.04209 -2.29554 0)
(5.54325 2.82314 0)
(6.20161 -2.06447 0)
(5.83701 3.10857 0)
(6.39826 -2.23239 0)
(6.07472 3.32135 0)
(6.61533 -1.74905 0)
(6.69244 4.11954 0)
(7.14024 -1.27321 0)
(7.30768 3.9797 0)
(7.66146 -0.32897 0)
(8.24787 3.99111 0)
(8.77945 1.15697 0)
(9.69257 3.50458 0)
(13.2021 -0.291767 0)
(13.2935 -0.252765 0)
(13.3142 -0.315804 0)
(13.1823 -0.400038 0)
(13.1148 -0.373746 0)
(13.0937 -0.424488 0)
(12.9443 -0.312157 0)
(12.7941 -0.0413313 0)
(12.9032 0.0374472 0)
(12.9388 0.0536973 0)
(13.099 0.00374436 0)
(13.2253 -0.133379 0)
(13.1375 -0.308291 0)
(13.1832 -0.623783 0)
(13.0825 -0.888104 0)
(12.9969 -1.19733 0)
(12.8634 -1.6167 0)
(12.5249 -2.03548 0)
(12.2994 -2.60125 0)
(11.6349 -3.04731 0)
(9.83803 -3.05081 0)
(7.7645 -2.98825 0)
(6.42874 -3.35642 0)
(5.76674 -3.71163 0)
(5.36921 -3.5081 0)
(5.03482 -2.84432 0)
(4.90911 -1.87233 0)
(4.81781 -0.896959 0)
(4.89286 -0.039496 0)
(5.1979 0.893803 0)
(5.70765 2.03676 0)
(6.40928 2.93737 0)
(6.94238 3.35277 0)
(7.27384 3.22013 0)
(7.62581 2.59293 0)
(7.90015 1.73432 0)
(7.93268 0.853727 0)
(7.77656 0.115483 0)
(7.38915 -0.628754 0)
(7.33486 -1.00625 0)
(6.95927 -0.796502 0)
(7.43327 -0.671033 0)
(6.80763 0.0901685 0)
(6.52574 1.02183 0)
(5.64822 2.09122 0)
(4.75921 3.04934 0)
(4.84051 1.78834 0)
(4.75726 -0.777281 0)
(3.22917 -2.5018 0)
(1.80079 -3.86321 0)
(0.55191 -5.74829 0)
(-1.1206 -6.2866 0)
(-2.17313 -4.77234 0)
(-0.249435 -3.56671 0)
(-3.32821 -2.18402 0)
(-0.108203 0.17266 0)
(-1.65236 -1.46314 0)
(0.387137 3.65808 0)
(0.458049 0.557599 0)
(2.06943 7.17008 0)
(3.01863 4.42094 0)
(4.50047 8.34824 0)
(6.18165 5.21483 0)
(6.69591 6.31486 0)
(7.95832 2.83785 0)
(8.19545 3.53653 0)
(8.66445 1.07147 0)
(9.07308 1.56834 0)
(9.34733 -0.679648 0)
(9.38934 0.4462 0)
(9.43239 -1.22664 0)
(9.79802 -0.145673 0)
(10.0825 -2.15306 0)
(10.3335 -1.09582 0)
(9.7771 -2.85273 0)
(9.15158 -0.661859 0)
(8.37783 -2.41397 0)
(7.61683 0.3513 0)
(6.9854 -2.16024 0)
(6.45746 1.2296 0)
(6.37838 -2.13584 0)
(5.9311 1.68302 0)
(6.08877 -2.14506 0)
(5.6404 2.21618 0)
(6.08184 -2.14012 0)
(5.61742 2.42145 0)
(6.09757 -2.28181 0)
(5.61704 2.8831 0)
(6.24806 -2.06778 0)
(5.9613 3.14951 0)
(6.47452 -2.1709 0)
(6.21139 3.32075 0)
(6.7092 -1.70896 0)
(6.79035 3.86779 0)