/*--------------------------------*- C++ -*----------------------------------*\
| =========                 |                                                 |
| \\      /  F ield         | OpenFOAM: The Open Source CFD Toolbox           |
|  \\    /   O peration     | Version:  2.4.0                                 |
|   \\  /    A nd           | Web:      www.OpenFOAM.org                      |
|    \\/     M anipulation  |                                                 |
\*---------------------------------------------------------------------------*/
FoamFile
{
    version     2.0;
    format      ascii;
    class       volScalarField;
    location    "0.027";
    object      k;
}
// * * * * * * * * * * * * * * * * * * * * * * * * * * * * * * * * * * * * * //

dimensions      [0 2 -2 0 0 0 0];

internalField   nonuniform List<scalar> 
4400
(
9.53158
8.49193
6.53974
5.22555
4.6972
4.15752
4.01093
3.8653
3.40547
3.77196
4.40248
6.76757
6.76911
6.20479
5.80192
5.15631
4.94273
4.78948
4.34064
4.59389
1.15862
3.15527
4.28323
4.45051
4.50773
4.26229
4.10785
4.0186
3.82334
3.72768
0.161649
0.916906
1.7933
2.23708
2.70288
2.78992
2.84142
2.86629
2.91636
2.79529
0.0170292
0.147561
0.464807
0.72229
1.06002
1.35169
1.48772
1.655
1.83052
1.80834
0.00145417
0.0166725
0.061997
0.150789
0.226677
0.408637
0.489756
0.679691
0.788044
0.919379
0.000133343
0.00146172
0.00557357
0.0182138
0.0280459
0.0666044
0.0885077
0.165926
0.206448
0.310771
4.07506e-05
0.000178271
0.000555697
0.00173587
0.00224692
0.00614964
0.00828906
0.0214041
0.0295589
0.0604881
3.52584e-05
9.22732e-05
0.000214136
0.000329612
0.000331482
0.000566584
0.000630096
0.0016479
0.00232276
0.00570772
3.41946e-05
0.00010983
0.000182494
0.00021662
0.000209377
0.000212153
0.000210586
0.000263604
0.000298931
0.000427072
3.41878e-05
0.000107391
0.000178637
0.000215797
0.000215432
0.000201743
0.000207629
0.000242309
0.00027906
0.000303405
3.47932e-05
0.000118538
0.000197773
0.000254435
0.000347069
0.000323347
0.000541394
0.00112468
0.0020242
0.00317683
4.12563e-05
0.000219775
0.00041925
0.000957213
0.00288074
0.0033242
0.00665333
0.0188417
0.0285363
0.0481866
0.00013608
0.0015389
0.00451106
0.0127237
0.0373059
0.0482384
0.0804263
0.16511
0.208742
0.294244
0.00145479
0.0174519
0.0525533
0.13218
0.28116
0.344122
0.497701
0.695573
0.781589
0.913505
0.0170697
0.15704
0.406578
0.757913
1.10313
1.25855
1.52828
1.69914
1.74936
1.83484
0.161988
0.950365
1.70552
2.31795
2.66748
2.75924
2.87665
2.8714
2.84339
2.8526
1.15895
3.17202
4.21157
4.53042
4.45986
4.27496
4.14524
3.92145
3.86128
3.79915
4.3995
6.77034
6.73274
6.29228
5.66408
5.26416
4.96682
4.6217
4.5818
4.40273
9.52579
8.49412
6.50632
5.3009
4.58992
4.25946
4.01915
3.72709
3.68663
3.36897
2.69779
1.14637
0.769397
0.424304
0.259377
0.279202
0.413073
0.434014
0.380818
0.317465
0.328993
0.473606
0.568306
0.529636
0.327896
0.13037
0.0788287
0.0707415
0.054256
0.040816
0.0356797
0.0366655
0.0483206
0.0548008
0.0516353
0.0343344
0.0199856
0.011525
0.00642889
0.00341836
0.00172543
0.000828553
0.000380519
0.000168254
7.21466e-05
3.02194e-05
1.24511e-05
5.07995e-06
2.06513e-06
8.4132e-07
3.45195e-07
1.43205e-07
6.02189e-08
2.56939e-08
1.11196e-08
4.87436e-09
2.16023e-09
9.66015e-10
4.35127e-10
1.9716e-10
8.97901e-11
4.10889e-11
1.89005e-11
8.75029e-12
4.09009e-12
1.94062e-12
9.43331e-13
4.81195e-13
2.69343e-13
1.5824e-13
1.37547e-13
1.36608e-13
2.22278e-13
2.42131e-13
1.37214e-12
1.42594e-12
2.62318e-11
4.27211e-11
1.04447e-09
2.64328e-09
5.91827e-08
1.18832e-07
2.4404e-06
2.967e-06
3.7928e-05
3.46681e-05
0.000218765
0.000145035
0.000730921
0.000394117
0.00118905
0.000730117
0.00111454
0.000673909
0.000949215
0.000636766
0.000551421
0.000319813
0.000285816
0.000175254
0.000123127
8.42302e-05
0.000125365
0.000217428
0.000388795
0.000657255
0.00329583
0.00629669
0.0450308
0.312827
3.62219
2.49283
1.98752
1.20619
0.502265
0.476015
0.7018
0.698561
0.474535
0.390492
0.433471
0.594228
0.569945
0.415035
0.172523
0.0724074
0.0424047
0.0428354
0.049371
0.0436467
0.036474
0.0360675
0.0414728
0.0447846
0.0434133
0.0321891
0.0189022
0.0109154
0.00612508
0.0032888
0.00167772
0.00081303
0.000375772
0.000166675
7.14759e-05
2.98717e-05
1.22667e-05
4.98923e-06
2.02483e-06
8.25205e-07
3.39399e-07
1.41344e-07
5.97002e-08
2.55791e-08
1.11071e-08
4.88022e-09
2.16573e-09
9.6902e-10
4.36491e-10
1.97719e-10
9.00022e-11
4.11638e-11
1.89246e-11
8.75665e-12
4.09074e-12
1.93983e-12
9.42204e-13
4.80264e-13
2.68169e-13
1.57667e-13
1.35659e-13
1.35303e-13
2.15938e-13
2.49624e-13
1.36338e-12
1.91454e-12
2.68246e-11
8.47897e-11
1.41125e-09
5.96326e-09
8.75619e-08
2.5754e-07
4.52194e-06
5.21205e-06
8.72036e-05
5.9199e-05
0.000578956
0.000332841
0.00214107
0.00125404
0.00512655
0.00348879
0.00776913
0.00498917
0.0107707
0.00621847
0.00787563
0.00475535
0.00473992
0.00257733
0.00194887
0.000731844
0.000722849
0.000434444
0.00123025
0.00109578
0.00341439
0.00594756
0.0428256
0.242475
3.16663
2.60808
2.18518
1.96501
1.29275
1.16952
1.19243
1.07787
0.695668
0.643338
0.719348
0.68801
0.547568
0.242201
0.100489
0.0461725
0.0301645
0.030316
0.047619
0.052722
0.0452032
0.0394393
0.0396729
0.0398512
0.03831
0.0294482
0.0178663
0.0103195
0.00571426
0.00303937
0.00154954
0.000755635
0.000352719
0.000158193
6.85543e-05
2.89041e-05
1.19487e-05
4.88262e-06
1.98798e-06
8.12242e-07
3.3489e-07
1.39844e-07
5.92394e-08
2.54549e-08
1.10813e-08
4.87859e-09
2.16797e-09
9.70779e-10
4.37421e-10
1.98135e-10
9.01693e-11
4.12237e-11
1.89426e-11
8.75986e-12
4.0893e-12
1.93754e-12
9.39873e-13
4.7857e-13
2.66078e-13
1.56945e-13
1.32772e-13
1.34154e-13
2.01031e-13
2.65083e-13
1.17722e-12
2.74891e-12
3.00938e-11
1.64417e-10
2.21157e-09
1.41656e-08
1.5441e-07
6.70053e-07
6.67772e-06
1.29964e-05
0.000152605
0.000132676
0.000838922
0.000688483
0.00213465
0.00195268
0.00493092
0.00463854
0.00951636
0.00930355
0.0202722
0.0188252
0.0406919
0.0355334
0.0634397
0.044221
0.0493733
0.0218159
0.0178764
0.00497598
0.00568529
0.00273039
0.0147703
0.00828309
0.0436799
0.168467
2.36664
2.19467
1.84721
1.79521
1.66757
1.43374
1.22323
1.08469
1.00055
0.938665
0.848739
0.658144
0.314203
0.135239
0.0601724
0.0352283
0.0276801
0.0274001
0.0427162
0.0634545
0.0613408
0.0468917
0.0405123
0.0386847
0.0362422
0.0282374
0.0175466
0.0101581
0.00555488
0.00288711
0.00143494
0.000686527
0.000317797
0.000142776
6.24358e-05
2.66785e-05
1.11959e-05
4.64331e-06
1.91588e-06
7.91521e-07
3.29196e-07
1.38358e-07
5.88817e-08
2.53826e-08
1.10738e-08
4.88201e-09
2.17124e-09
9.72616e-10
4.3828e-10
1.98494e-10
9.0304e-11
4.12674e-11
1.89524e-11
8.75861e-12
4.08526e-12
1.93368e-12
9.36449e-13
4.76322e-13
2.63238e-13
1.56327e-13
1.29059e-13
1.33402e-13
1.80032e-13
2.89013e-13
1.00253e-12
3.95379e-12
3.70667e-11
3.0619e-10
3.07045e-09
2.77742e-08
2.0817e-07
1.31667e-06
7.6207e-06
2.46095e-05
0.000120739
0.00019534
0.000408766
0.000649202
0.000849704
0.00110106
0.00322381
0.00334202
0.00406333
0.00619018
0.00753093
0.0113884
0.0127407
0.0182006
0.0438302
0.0484676
0.125447
0.108596
0.217222
0.0800475
0.0924852
0.030324
0.0356913
0.0161187
0.0458559
0.116592
1.6166
1.54121
1.33678
1.30627
1.38566
1.32407
0.993108
0.787689
0.767538
0.737895
0.622117
0.304445
0.123044
0.0541475
0.0345213
0.0301706
0.0296469
0.0296932
0.0399785
0.0665486
0.0712988
0.0592899
0.0443517
0.0395541
0.0361589
0.0281196
0.0180381
0.0104766
0.00565812
0.00288832
0.00140675
0.000658015
0.000297522
0.000130977
5.65319e-05
2.40651e-05
1.01523e-05
4.26169e-06
1.78676e-06
7.50843e-07
3.17233e-07
1.35085e-07
5.80604e-08
2.52012e-08
1.10431e-08
4.88105e-09
2.17372e-09
9.74263e-10
4.39053e-10
1.98801e-10
9.04078e-11
4.12931e-11
1.89519e-11
8.75144e-12
4.07773e-12
1.92777e-12
9.31705e-13
4.7338e-13
2.59602e-13
1.55751e-13
1.24525e-13
1.32987e-13
1.71037e-13
3.25832e-13
1.02605e-12
6.12524e-12
5.0656e-11
5.75257e-10
4.91528e-09
5.47442e-08
3.28678e-07
2.5946e-06
1.02441e-05
3.98625e-05
8.92158e-05
0.000208811
0.000245255
0.000381661
0.00159911
0.00134887
0.00504439
0.0041975
0.00625687
0.00669679
0.00942167
0.0105242
0.0116523
0.0174906
0.0193183
0.0296065
0.0493693
0.0703618
0.254239
0.206628
0.715866
0.373163
0.442516
0.10782
0.0916155
0.110653
0.878618
0.872308
0.789069
0.75003
0.828831
0.818753
0.64873
0.456682
0.395527
0.329999
0.199345
0.0907721
0.0410169
0.0239573
0.0237691
0.0273215
0.0384089
0.0443285
0.0519419
0.0684408
0.0749072
0.0695107
0.0526256
0.0450908
0.0393709
0.0298897
0.0196547
0.0114902
0.00614417
0.0030757
0.00146419
0.000669917
0.000296932
0.000128377
5.45064e-05
2.28835e-05
9.56147e-06
3.99792e-06
1.67963e-06
7.10822e-07
3.03398e-07
1.30646e-07
5.67411e-08
2.48411e-08
1.09551e-08
4.86309e-09
2.17145e-09
9.74638e-10
4.39489e-10
1.99015e-10
9.04834e-11
4.13084e-11
1.89466e-11
8.74168e-12
4.06864e-12
1.92087e-12
9.26246e-13
4.70066e-13
2.55418e-13
1.55369e-13
1.19241e-13
1.3364e-13
1.59438e-13
3.97149e-13
1.06781e-12
1.03098e-11
7.16189e-11
1.09886e-09
8.43396e-09
1.05296e-07
5.48741e-07
4.72502e-06
1.29504e-05
8.18519e-05
8.35578e-05
0.000197627
0.000291476
0.000408114
0.00157525
0.00154059
0.00152475
0.00306385
0.00259913
0.00497814
0.00436359
0.00742623
0.00664606
0.013738
0.0135357
0.0244227
0.0294488
0.0559812
0.0765837
0.128509
0.286472
0.323733
0.473387
0.349082
0.315629
0.149793
0.322815
0.329695
0.288538
0.277059
0.345163
0.34911
0.274511
0.174633
0.125047
0.0857162
0.0479111
0.0250405
0.0158169
0.0172374
0.0210556
0.0318839
0.0648711
0.0828451
0.0827458
0.0804824
0.0792379
0.0750151
0.0638838
0.0572798
0.0480487
0.0349014
0.0223152
0.0128228
0.0067428
0.00331204
0.00154756
0.0006965
0.000304443
0.0001301
5.47036e-05
2.27808e-05
9.45632e-06
3.93472e-06
1.64817e-06
6.96864e-07
2.97733e-07
1.28521e-07
5.60019e-08
2.46034e-08
1.08852e-08
4.84476e-09
2.16745e-09
9.74067e-10
4.39537e-10
1.99087e-10
9.05079e-11
4.13049e-11
1.89338e-11
8.72842e-12
4.0577e-12
1.91289e-12
9.20135e-13
4.66328e-13
2.50903e-13
1.54886e-13
1.13624e-13
1.42116e-13
1.4435e-13
6.10909e-13
1.03335e-12
1.52869e-11
8.24593e-11
1.48963e-09
1.00737e-08
1.16119e-07
5.65856e-07
4.02578e-06
9.29865e-06
6.36913e-05
4.47687e-05
0.000161978
0.000241751
0.000387661
0.000674724
0.00129058
0.00105758
0.00189902
0.00174132
0.00319784
0.00312462
0.00476287
0.00466786
0.0078205
0.00839339
0.0126527
0.023693
0.0358518
0.102817
0.116383
0.400023
0.351007
0.446854
0.396378
0.383527
0.249097
0.0669798
0.0648784
0.0543734
0.056241
0.0913328
0.0937527
0.0710754
0.0410236
0.0239197
0.0156121
0.00997713
0.00935343
0.0111356
0.0179702
0.033311
0.0618755
0.117074
0.132398
0.127181
0.109688
0.0920715
0.0792178
0.0736197
0.0697901
0.0614715
0.0427052
0.0256696
0.0139956
0.00708681
0.00339262
0.0015573
0.000692496
0.000300607
0.000128183
5.39819e-05
2.25626e-05
9.40393e-06
3.92598e-06
1.64803e-06
6.97524e-07
2.98099e-07
1.2867e-07
5.60581e-08
2.46257e-08
1.08949e-08
4.84931e-09
2.16955e-09
9.74994e-10
4.39907e-10
1.99211e-10
9.0533e-11
4.1296e-11
1.8917e-11
8.71287e-12
4.04549e-12
1.90414e-12
9.13642e-13
4.62188e-13
2.46457e-13
1.53832e-13
1.08444e-13
1.46856e-13
1.30136e-13
8.01894e-13
9.35522e-13
2.01683e-11
8.65884e-11
1.6603e-09
1.06097e-08
1.0815e-07
5.66726e-07
2.89644e-06
7.97881e-06
3.72563e-05
2.73891e-05
0.000111835
0.000155828
0.000341073
0.000386806
0.00097391
0.000865299
0.00130433
0.00114083
0.00213434
0.00222665
0.00347877
0.00339007
0.00526976
0.00602719
0.0098409
0.01092
0.0223068
0.0282529
0.0761673
0.0960247
0.257882
0.413394
0.393636
0.40634
0.319154
0.00611728
0.00595047
0.00534738
0.0061988
0.0139578
0.0134715
0.00857312
0.0061817
0.00521378
0.00526668
0.00602815
0.00834014
0.0155719
0.0369317
0.0823047
0.1399
0.186627
0.19763
0.187094
0.143532
0.111646
0.0930871
0.0836823
0.0792678
0.0716207
0.0503848
0.0284271
0.0145276
0.00694224
0.00314711
0.00136956
0.000580161
0.000242632
0.000101362
4.26328e-05
1.8118e-05
7.78072e-06
3.37028e-06
1.46906e-06
6.43153e-07
2.82502e-07
1.24451e-07
5.49893e-08
2.43763e-08
1.08436e-08
4.84122e-09
2.1693e-09
9.7553e-10
4.40217e-10
1.99323e-10
9.05529e-11
4.12843e-11
1.88988e-11
8.69658e-12
4.03294e-12
1.89514e-12
9.07147e-13
4.57762e-13
2.4245e-13
1.51908e-13
1.04236e-13
1.46058e-13
1.1822e-13
8.40518e-13
7.72821e-13
2.2628e-11
8.16937e-11
1.63239e-09
1.02306e-08
1.00515e-07
5.50476e-07
2.36137e-06
7.39044e-06
2.03814e-05
2.00179e-05
5.1175e-05
8.90123e-05
0.000306206
0.000258902
0.000644619
0.000665278
0.000957039
0.000900175
0.00154455
0.00175345
0.002678
0.00279598
0.00397842
0.00467548
0.00752441
0.00795
0.0162495
0.0168679
0.0490928
0.0398952
0.161677
0.147937
0.301711
0.442084
0.384039
0.000523244
0.000501493
0.000488001
0.000550979
0.00179406
0.00180041
0.00207601
0.00438208
0.00501337
0.00639963
0.0134908
0.0269422
0.0455986
0.0849326
0.199218
0.281279
0.296074
0.287761
0.264873
0.197914
0.132313
0.101703
0.0923922
0.0903312
0.085774
0.062347
0.03163
0.0147418
0.0065757
0.00285067
0.00121281
0.000510831
0.000214589
9.0442e-05
3.84136e-05
1.64821e-05
7.14643e-06
3.127e-06
1.37777e-06
6.09939e-07
2.70848e-07
1.2052e-07
5.37162e-08
2.3981e-08
1.0726e-08
4.80782e-09
2.16026e-09
9.7319e-10
4.39619e-10
1.99152e-10
9.04851e-11
4.12445e-11
1.88711e-11
8.67694e-12
4.01927e-12
1.88577e-12
9.0082e-13
4.53304e-13
2.39266e-13
1.49391e-13
1.01687e-13
1.41474e-13
1.12402e-13
7.73196e-13
6.62762e-13
1.99111e-11
6.92067e-11
1.40177e-09
8.93976e-09
9.30862e-08
5.07516e-07
2.38335e-06
7.80033e-06
1.57712e-05
3.1504e-05
3.40711e-05
6.27716e-05
0.00022362
0.000236016
0.000418045
0.000633062
0.000733365
0.00080233
0.00110965
0.00176772
0.00202434
0.00281659
0.00323003
0.00432464
0.00697297
0.00722961
0.0122633
0.0121323
0.0332023
0.0260906
0.104616
0.0881314
0.203458
0.256315
0.345062
0.000334038
0.000377
0.000490096
0.000569462
0.00107792
0.00217445
0.00398344
0.00740225
0.0111544
0.0195399
0.0501746
0.0934219
0.132516
0.207762
0.385181
0.469323
0.466567
0.433195
0.364125
0.248639
0.167577
0.140127
0.140466
0.13503
0.097668
0.0548603
0.028997
0.0148518
0.00741691
0.00355153
0.00161188
0.000695843
0.000289847
0.000118509
4.82746e-05
1.97996e-05
8.22475e-06
3.46704e-06
1.48196e-06
6.40965e-07
2.79828e-07
1.23048e-07
5.44105e-08
2.4168e-08
1.0776e-08
4.82134e-09
2.16407e-09
9.74355e-10
4.40026e-10
1.99326e-10
9.05835e-11
4.13183e-11
1.89375e-11
8.74155e-12
4.08399e-12
1.95052e-12
9.66187e-13
5.20494e-13
3.06316e-13
2.21478e-13
1.82903e-13
2.32277e-13
2.06172e-13
8.03935e-13
7.7044e-13
1.37937e-11
5.45953e-11
1.00987e-09
7.05739e-09
7.62101e-08
4.40798e-07
2.46178e-06
8.25646e-06
2.10706e-05
4.67944e-05
4.40426e-05
9.91292e-05
0.000133456
0.000383423
0.000354605
0.00070862
0.000757332
0.0010675
0.00111518
0.00237042
0.00209953
0.00353138
0.00334554
0.00549448
0.00594087
0.00708241
0.00978189
0.0105096
0.0234666
0.0200481
0.0700065
0.0601734
0.151641
0.158223
0.237514
0.00365516
0.00446851
0.00458795
0.00390707
0.00405664
0.00737117
0.0230682
0.033483
0.0425072
0.063408
0.138844
0.233772
0.319953
0.500372
0.654128
0.678812
0.651248
0.556225
0.392605
0.269276
0.216752
0.199844
0.168711
0.126808
0.0805334
0.0457783
0.0245024
0.012436
0.00595729
0.00270632
0.0011781
0.0004994
0.000209664
8.83271e-05
3.76092e-05
1.62169e-05
7.07146e-06
3.10967e-06
1.37521e-06
6.10279e-07
2.71404e-07
1.20888e-07
5.39293e-08
2.41051e-08
1.08025e-08
4.85853e-09
2.19649e-09
1.00093e-09
4.62165e-10
2.18384e-10
1.07519e-10
5.67712e-11
3.33297e-11
2.23633e-11
1.71399e-11
1.45976e-11
1.33269e-11
1.27062e-11
1.23619e-11
1.23313e-11
1.22935e-11
1.26348e-11
1.25547e-11
1.45952e-11
1.51088e-11
3.02697e-11
7.98434e-11
6.94267e-10
5.0756e-09
4.74243e-08
3.08638e-07
1.6863e-06
6.52434e-06
1.97789e-05
4.25827e-05
6.31476e-05
0.000176453
0.000126223
0.000782988
0.000450075
0.00110115
0.0010256
0.0018613
0.001303
0.00431419
0.00268934
0.0057542
0.00409723
0.00874077
0.00653004
0.0109663
0.0100686
0.0120617
0.0183136
0.01807
0.0473912
0.0423573
0.10494
0.105734
0.14926
0.0484331
0.0517837
0.0539601
0.0456941
0.0414859
0.0560398
0.12324
0.148838
0.160657
0.195869
0.320048
0.443301
0.634679
0.897163
0.962695
0.932532
0.8285
0.675037
0.486227
0.372457
0.298959
0.224579
0.16416
0.113958
0.0739592
0.044892
0.0257602
0.0140554
0.00726475
0.00355626
0.00165627
0.000739371
0.000319233
0.000134639
5.60349e-05
2.32242e-05
9.65624e-06
4.04992e-06
1.71963e-06
7.41023e-07
3.24839e-07
1.45425e-07
6.69834e-08
3.21703e-08
1.64543e-08
9.20962e-09
5.77782e-09
4.09211e-09
3.2238e-09
2.74956e-09
2.47287e-09
2.30028e-09
2.18563e-09
2.10541e-09
2.04711e-09
2.00418e-09
1.97187e-09
1.9483e-09
1.92953e-09
1.91806e-09
1.90368e-09
1.90067e-09
1.88879e-09
1.89903e-09
1.89824e-09
1.9998e-09
2.24852e-09
4.15999e-09
9.59751e-09
4.44866e-08
2.23309e-07
9.61827e-07
4.00008e-06
1.16566e-05
3.07936e-05
7.03483e-05
0.000331045
0.000179984
0.00181081
0.00084317
0.00243633
0.00195182
0.00379694
0.0020627
0.00850918
0.00435881
0.0103412
0.0062241
0.0148469
0.00845616
0.0163604
0.0119484
0.0189708
0.0189919
0.0194545
0.0335453
0.0336902
0.0712239
0.0764914
0.109518
0.283854
0.277483
0.281469
0.256204
0.228157
0.253391
0.375726
0.40806
0.422957
0.487923
0.607345
0.778889
1.03752
1.13573
1.12009
1.03812
0.885786
0.780949
0.667252
0.512064
0.348505
0.233002
0.161774
0.111818
0.0739784
0.0463043
0.027401
0.0153618
0.00819248
0.00417742
0.00204953
0.000974129
0.000451746
0.000205975
9.31397e-05
4.2218e-05
1.94453e-05
9.26017e-06
4.65737e-06
2.53106e-06
1.51413e-06
1.00419e-06
7.33218e-07
5.7971e-07
4.86955e-07
4.27546e-07
3.87568e-07
3.59537e-07
3.39251e-07
3.24224e-07
3.12887e-07
3.04209e-07
2.9748e-07
2.922e-07
2.88023e-07
2.84729e-07
2.8209e-07
2.80005e-07
2.78232e-07
2.76899e-07
2.75302e-07
2.74507e-07
2.72612e-07
2.72143e-07
2.69775e-07
2.71578e-07
2.69934e-07
3.54244e-07
3.38405e-07
8.15623e-07
9.85199e-07
2.5971e-06
5.48617e-06
9.82251e-06
3.31506e-05
7.95566e-05
0.000768348
0.000444279
0.00453522
0.00193848
0.00585887
0.00424172
0.0076095
0.00431626
0.0172617
0.00825403
0.0188546
0.0114094
0.0265423
0.0134875
0.0277107
0.0179661
0.029244
0.0227985
0.02428
0.0323328
0.033557
0.0596709
0.0633727
0.0763321
0.859791
0.794662
0.76598
0.690076
0.659527
0.672524
0.710907
0.73666
0.782975
0.913354
1.04351
1.14865
1.22738
1.21687
1.1554
1.03059
0.895302
0.765961
0.653497
0.507491
0.362107
0.248392
0.171036
0.116322
0.0766743
0.0490121
0.0304673
0.0185147
0.0110346
0.00645284
0.00370785
0.00210469
0.00119271
0.000685368
0.0004069
0.000254194
0.000169323
0.000120854
9.21042e-05
7.4287e-05
6.27453e-05
5.49592e-05
4.9519e-05
4.56096e-05
4.27323e-05
4.05776e-05
3.89426e-05
3.76842e-05
3.67061e-05
3.59399e-05
3.53347e-05
3.48531e-05
3.44663e-05
3.41523e-05
3.38944e-05
3.36819e-05
3.35015e-05
3.33499e-05
3.32102e-05
3.30963e-05
3.29494e-05
3.28668e-05
3.26731e-05
3.26071e-05
3.23375e-05
3.23466e-05
3.18978e-05
3.48042e-05
3.2423e-05
4.65025e-05
4.01934e-05
7.18372e-05
6.79333e-05
6.91539e-05
0.000237082
0.000221514
0.00249616
0.0015435
0.0120482
0.00496077
0.0156814
0.0109969
0.0176987
0.0111638
0.0360257
0.0167638
0.0366671
0.0242301
0.0486533
0.0245512
0.0482775
0.0314377
0.0499508
0.0335228
0.0382731
0.0364198
0.0381485
0.054665
0.0537389
0.0558175
1.67899
1.51559
1.35916
1.20179
1.1435
1.13056
1.1001
1.09207
1.10526
1.18709
1.2993
1.30805
1.2789
1.21805
1.08625
0.927569
0.812756
0.707793
0.605263
0.484168
0.358046
0.255052
0.176423
0.120904
0.0827195
0.057162
0.0404507
0.0293201
0.0216326
0.0161826
0.0122858
0.00950444
0.00752672
0.00612216
0.00512124
0.00440218
0.00387963
0.00349478
0.00320741
0.00299006
0.00282384
0.00269549
0.00259558
0.00251733
0.00245562
0.00240675
0.00236794
0.0023369
0.002312
0.00229188
0.00227555
0.00226217
0.0022511
0.00224178
0.00223378
0.0022268
0.00222044
0.00221469
0.00220893
0.00220381
0.00219694
0.00219257
0.00218276
0.00217885
0.00216515
0.00216372
0.00214007
0.00215979
0.00210944
0.0022443
0.00212593
0.00241193
0.00231124
0.00226231
0.00352109
0.00258411
0.0110447
0.00704575
0.0347346
0.0146857
0.0448645
0.0306619
0.0446353
0.0307389
0.0745497
0.0352003
0.0729556
0.0527565
0.086561
0.0456099
0.0856973
0.063646
0.0880568
0.0553635
0.0611035
0.050583
0.0562769
0.0624823
0.0593927
0.055528
2.51748
2.16625
1.85687
1.61514
1.52502
1.47434
1.34865
1.30241
1.33232
1.36471
1.3628
1.33421
1.20883
0.996961
0.869419
0.764464
0.672051
0.596543
0.520715
0.429591
0.330853
0.245343
0.180277
0.13611
0.110035
0.0961713
0.0884593
0.0829628
0.0780382
0.0733568
0.0690027
0.0650744
0.0616021
0.0585852
0.0560056
0.0538315
0.0520209
0.050527
0.0493026
0.0483036
0.0474915
0.0468328
0.0462989
0.0458669
0.0455172
0.0452337
0.0450039
0.0448166
0.0446637
0.0445375
0.0444327
0.0443443
0.0442682
0.044201
0.0441398
0.0440823
0.0440258
0.0439702
0.04391
0.0438512
0.0437721
0.0437141
0.043594
0.0435401
0.0433673
0.0433371
0.0430468
0.0431356
0.0426238
0.0430492
0.0421219
0.0431907
0.0425618
0.0427075
0.0472409
0.0400389
0.0638194
0.0443139
0.115106
0.0607454
0.138183
0.0900671
0.127049
0.088276
0.159327
0.0832844
0.152546
0.108857
0.157465
0.0913173
0.163326
0.120548
0.156061
0.0975823
0.109555
0.089349
0.103869
0.10349
0.093371
0.0671543
3.16388
2.55624
2.1319
1.85128
1.70912
1.61754
1.52878
1.46423
1.44234
1.40659
1.29122
1.05746
0.81933
0.67301
0.592133
0.548435
0.50592
0.463445
0.423163
0.37521
0.318444
0.265773
0.240093
0.237637
0.246521
0.264923
0.27757
0.284095
0.286263
0.286018
0.283779
0.280894
0.277875
0.274897
0.272126
0.269651
0.267503
0.265677
0.264147
0.262878
0.261835
0.260982
0.260287
0.259723
0.259266
0.258895
0.258593
0.258346
0.258143
0.257973
0.257829
0.257703
0.257588
0.257481
0.257378
0.257274
0.257165
0.257051
0.256919
0.256784
0.256602
0.256459
0.256171
0.256051
0.255606
0.2556
0.254828
0.255396
0.253572
0.256247
0.251498
0.259735
0.249625
0.26794
0.254742
0.270212
0.278496
0.233318
0.337766
0.227827
0.418105
0.261674
0.332433
0.247495
0.322039
0.219092
0.330378
0.23322
0.308572
0.212521
0.339189
0.243737
0.313383
0.208869
0.256043
0.215402
0.253112
0.244194
0.212818
0.162258
3.3599
2.57512
2.15347
1.93152
1.81351
1.70908
1.60873
1.50415
1.34382
1.0906
0.773596
0.529591
0.438553
0.43672
0.447821
0.438574
0.42657
0.423001
0.423132
0.420278
0.423944
0.447694
0.486199
0.526346
0.560215
0.584585
0.600972
0.611678
0.618527
0.622831
0.625452
0.626972
0.627773
0.628141
0.628255
0.628238
0.628161
0.628068
0.62798
0.627908
0.627855
0.62782
0.627802
0.627798
0.627806
0.627821
0.627843
0.627869
0.6279
0.627933
0.627969
0.628008
0.62805
0.628096
0.628148
0.628205
0.628269
0.628344
0.628428
0.628536
0.628641
0.628823
0.628936
0.629286
0.629341
0.630134
0.629681
0.632037
0.628956
0.637314
0.624107
0.652463
0.610393
0.692547
0.592735
0.772275
0.597335
0.838521
0.656465
0.69518
0.766068
0.636814
0.702669
0.68262
0.694296
0.623741
0.782411
0.631121
0.752496
0.626924
0.86902
0.674992
0.834356
0.670436
0.886945
0.853461
1.01485
1.02866
1.02246
1.09366
2.32617
1.9158
1.74283
1.64235
1.5359
1.35571
1.10762
0.822841
0.531451
0.283527
0.156683
0.148287
0.225741
0.36252
0.493741
0.557885
0.55586
0.473799
0.384523
0.332431
0.316825
0.346557
0.401557
0.463141
0.519718
0.566103
0.602429
0.630679
0.652932
0.670728
0.68507
0.696665
0.706063
0.713706
0.719946
0.725056
0.729253
0.732708
0.735557
0.737911
0.73986
0.741476
0.742821
0.743944
0.744885
0.745681
0.746361
0.74695
0.747469
0.747937
0.748372
0.748789
0.749203
0.749626
0.750073
0.750558
0.751096
0.751705
0.752399
0.753205
0.754127
0.755227
0.75643
0.757995
0.759387
0.761904
0.762816
0.767782
0.765487
0.777931
0.761741
0.802238
0.739155
0.864771
0.687495
0.996522
0.627297
1.22853
0.617132
1.6662
0.780958
1.96877
1.09284
2.06594
1.20234
2.23215
1.46843
2.17893
1.61134
2.37927
1.99859
2.32115
2.18897
2.68153
3.01053
3.81545
3.93592
4.42383
4.52307
5.98941
0.0510935
0.117683
0.17126
0.225825
0.360004
0.784179
1.98766
3.84174
5.05367
5.46663
4.9545
3.31604
1.81598
1.0629
0.498728
0.259386
0.173798
0.166585
0.223792
0.322943
0.443886
0.562734
0.662505
0.736516
0.784842
0.811701
0.822574
0.823245
0.819849
0.812466
0.80443
0.796502
0.789167
0.782645
0.776992
0.772168
0.768099
0.764687
0.761841
0.759474
0.757506
0.755872
0.754513
0.753378
0.752428
0.751624
0.750939
0.750346
0.749823
0.74935
0.748909
0.748484
0.748062
0.747625
0.747159
0.746645
0.746068
0.745405
0.744631
0.743718
0.742637
0.741346
0.739797
0.737931
0.735681
0.732958
0.729671
0.725694
0.720915
0.715174
0.708353
0.700287
0.690877
0.680013
0.66762
0.653686
0.638126
0.620971
0.602075
0.581341
0.558509
0.533323
0.505429
0.474553
0.440244
0.402583
0.361224
0.31703
0.270377
0.223546
0.178387
0.139066
0.108084
0.0890655
0.0795113
0.0761184
0.0701132
0.0570841
0.0326802
0.011422
0.0914665
0.205455
0.384156
0.663729
1.06899
1.69959
2.27248
2.54467
1.75845
1.17291
0.575445
0.288558
0.207046
0.166707
0.14714
0.112827
0.0991988
0.0895162
0.0913777
0.108473
0.147341
0.203567
0.271844
0.343571
0.410311
0.467451
0.513232
0.547103
0.571693
0.589148
0.601402
0.609815
0.615591
0.619561
0.622298
0.624187
0.625493
0.626394
0.627015
0.627439
0.627726
0.627916
0.628038
0.628113
0.628154
0.628171
0.628171
0.62816
0.628142
0.628116
0.628086
0.628052
0.628011
0.627967
0.627919
0.627864
0.6278
0.627727
0.627645
0.627547
0.627431
0.627293
0.627131
0.626937
0.626706
0.626425
0.626085
0.625662
0.625135
0.624465
0.623613
0.62252
0.621114
0.619337
0.617074
0.614299
0.610861
0.606786
0.601857
0.596257
0.589731
0.582644
0.574165
0.565302
0.554163
0.543083
0.528171
0.514176
0.493699
0.475664
0.446878
0.422452
0.381369
0.345347
0.288977
0.236266
0.172447
0.114554
0.0674965
0.0248275
0.112188
0.242077
0.426663
0.672186
1.02648
1.30365
1.35385
0.691604
0.367508
0.257116
0.228488
0.24494
0.23854
0.190789
0.175341
0.127415
0.101188
0.0783544
0.0604498
0.0473962
0.0388496
0.0358114
0.037514
0.0463481
0.066389
0.0896437
0.114536
0.139622
0.162818
0.182463
0.19844
0.211311
0.22151
0.229502
0.235723
0.240552
0.244296
0.247202
0.249462
0.251223
0.252598
0.253676
0.254522
0.255188
0.255716
0.256135
0.256468
0.256738
0.256957
0.257136
0.257288
0.257422
0.257537
0.257644
0.257752
0.257862
0.257974
0.258097
0.258241
0.258408
0.258604
0.258837
0.259116
0.259456
0.259865
0.260368
0.260973
0.261719
0.2626
0.263677
0.264925
0.266408
0.268095
0.270001
0.272171
0.274467
0.277172
0.279883
0.283305
0.286555
0.291042
0.29467
0.301164
0.305118
0.314456
0.319073
0.331732
0.336214
0.352768
0.354781
0.369136
0.362013
0.361807
0.337894
0.32044
0.261976
0.222769
0.137612
0.0877283
0.0343949
0.120148
0.224504
0.367971
0.534715
0.684689
0.720032
0.537805
0.301846
0.249614
0.26929
0.334329
0.362989
0.366688
0.313516
0.242453
0.18755
0.140976
0.108458
0.0819438
0.059538
0.0402551
0.0258326
0.0164831
0.0111114
0.00870374
0.0083068
0.00873226
0.0105241
0.0140748
0.0181239
0.0222334
0.0260622
0.0294139
0.0322535
0.0346051
0.0365242
0.0380747
0.0393178
0.0403122
0.0411037
0.0417331
0.0422344
0.0426324
0.0429486
0.0432023
0.0434052
0.0435674
0.0436998
0.0438096
0.0438992
0.0439755
0.0440451
0.044107
0.0441638
0.0442223
0.0442843
0.0443494
0.0444205
0.0445023
0.0445992
0.0447141
0.0448516
0.0450151
0.0452144
0.0454521
0.0457457
0.0460933
0.046528
0.0470344
0.0476663
0.0483911
0.0492751
0.0502829
0.0514562
0.0528027
0.054302
0.0560214
0.0579765
0.0600761
0.062849
0.0653198
0.0696072
0.0725477
0.0791071
0.083252
0.0929231
0.0987584
0.11362
0.121704
0.14301
0.15545
0.184035
0.198162
0.229487
0.226227
0.21971
0.183922
0.144521
0.0877235
0.046207
0.121131
0.195279
0.274442
0.354629
0.418711
0.427995
0.317597
0.272193
0.283254
0.341389
0.365014
0.391959
0.405197
0.414227
0.338507
0.258524
0.173799
0.128156
0.0986728
0.0767374
0.0589042
0.0422834
0.0270673
0.0157662
0.00865099
0.00464487
0.0024925
0.00141412
0.000938694
0.000810466
0.0008151
0.000863965
0.00101275
0.00120583
0.00138537
0.00154413
0.0016795
0.00179162
0.00188323
0.00195674
0.00201534
0.0020619
0.00209855
0.00212741
0.00215043
0.00216867
0.00218313
0.00219507
0.00220521
0.00221359
0.00222114
0.00222873
0.00223597
0.00224318
0.00225146
0.00226107
0.0022719
0.00228436
0.00229926
0.00231748
0.00233946
0.0023662
0.00239814
0.00243764
0.00248467
0.00254394
0.00261354
0.00270312
0.00280618
0.00293947
0.00309096
0.00328206
0.0035019
0.00376148
0.00407324
0.00441188
0.00484015
0.00528986
0.00586834
0.00650197
0.00732672
0.00824234
0.00956603
0.0108702
0.0132277
0.0151566
0.0192239
0.0227042
0.0290441
0.0364985
0.0457169
0.059603
0.0734136
0.0932967
0.109216
0.119422
0.116093
0.105729
0.0840332
0.0529053
0.122875
0.169339
0.209294
0.258092
0.30547
0.316371
0.289176
0.283036
0.33529
0.351973
0.359746
0.38109
0.399076
0.424592
0.379624
0.340505
0.247705
0.161674
0.113855
0.0848057
0.0653668
0.0501569
0.0365596
0.0244368
0.014897
0.00835701
0.00436901
0.00215916
0.00102993
0.000487679
0.000233741
0.000116353
6.28377e-05
3.87813e-05
2.8256e-05
2.49645e-05
2.49086e-05
2.53881e-05
2.66546e-05
2.80798e-05
2.9335e-05
3.03832e-05
3.12209e-05
3.1886e-05
3.24162e-05
3.28314e-05
3.31619e-05
3.34411e-05
3.36878e-05
3.39028e-05
3.41185e-05
3.43608e-05
3.46149e-05
3.48967e-05
3.52468e-05
3.56749e-05
3.61813e-05
3.67897e-05
3.75351e-05
3.84615e-05
3.95907e-05
4.09897e-05
4.26772e-05
4.48187e-05
4.73803e-05
5.07431e-05
5.46806e-05
6.00751e-05
6.62166e-05
7.48685e-05
8.46101e-05
9.81172e-05
0.000113857
0.000133951
0.000159263
0.000188701
0.000226949
0.000274673
0.000326419
0.000414804
0.000488752
0.000645661
0.000782638
0.00105597
0.00137731
0.00178161
0.00265162
0.00344119
0.00526329
0.00708109
0.0111072
0.0150994
0.0235636
0.0311265
0.0462201
0.0559045
0.0676674
0.072852
0.068442
0.0576662
0.118548
0.155909
0.168863
0.213494
0.265449
0.292522
0.291986
0.312767
0.327937
0.327604
0.333245
0.338942
0.374594
0.399304
0.384384
0.353138
0.306188
0.218681
0.144293
0.09986
0.0724521
0.0544513
0.0409642
0.0294436
0.0196094
0.0119937
0.00676209
0.00354817
0.00175376
0.000827585
0.000378142
0.000169665
7.57784e-05
3.41239e-05
1.56296e-05
7.32595e-06
3.53758e-06
1.7805e-06
9.60582e-07
5.78644e-07
4.03109e-07
3.25152e-07
2.91631e-07
2.80051e-07
2.78134e-07
2.78383e-07
2.79987e-07
2.83118e-07
2.86303e-07
2.89388e-07
2.92695e-07
2.96552e-07
3.00783e-07
3.05615e-07
3.11661e-07
3.19149e-07
3.28189e-07
3.39235e-07
3.52905e-07
3.70172e-07
3.91539e-07
4.18769e-07
4.52165e-07
4.96541e-07
5.50274e-07
6.26545e-07