/*--------------------------------*- C++ -*----------------------------------*\
| =========                 |                                                 |
| \\      /  F ield         | OpenFOAM: The Open Source CFD Toolbox           |
|  \\    /   O peration     | Version:  2.4.0                                 |
|   \\  /    A nd           | Web:      www.OpenFOAM.org                      |
|    \\/     M anipulation  |                                                 |
\*---------------------------------------------------------------------------*/
FoamFile
{
    version     2.0;
    format      ascii;
    class       surfaceScalarField;
    location    "0.027";
    object      phi;
}
// * * * * * * * * * * * * * * * * * * * * * * * * * * * * * * * * * * * * * //

dimensions      [0 3 -1 0 0 0 0];

internalField   nonuniform List<scalar> 
8640
(
1.14688e-05
1.35312e-05
7.17224e-06
4.29657e-06
5.93062e-06
1.24162e-06
5.33984e-06
5.90778e-07
5.08792e-06
2.51925e-07
4.91667e-06
1.71249e-07
4.87885e-06
3.78187e-08
4.64453e-06
2.34326e-07
4.63497e-06
9.55753e-09
-1.0246e-06
5.65957e-06
2.10518e-05
1.74793e-05
1.74605e-05
7.88793e-06
1.55168e-05
3.18526e-06
1.42073e-05
1.90027e-06
1.34908e-05
9.68463e-07
1.29629e-05
6.99207e-07
1.28075e-05
1.93191e-07
1.22256e-05
8.16252e-07
1.22478e-05
-1.27148e-08
-1.36091e-06
1.25841e-05
2.56965e-05
1.67828e-05
2.41339e-05
9.45055e-06
2.26012e-05
4.71794e-06
2.11801e-05
3.32135e-06
2.02494e-05
1.8992e-06
1.94623e-05
1.48634e-06
1.92291e-05
4.26382e-07
1.84812e-05
1.56415e-06
1.83256e-05
1.42827e-07
-1.82251e-06
1.87872e-05
2.74411e-05
1.43418e-05
2.78007e-05
9.09094e-06
2.73624e-05
5.15625e-06
2.64534e-05
4.23038e-06
2.57111e-05
2.64143e-06
2.48625e-05
2.33496e-06
2.46111e-05
6.77764e-07
2.39231e-05
2.2522e-06
2.35375e-05
5.2841e-07
-2.02931e-06
2.37443e-05
2.75684e-05
1.17734e-05
2.89951e-05
7.66424e-06
2.96324e-05
4.51892e-06
2.95785e-05
4.2843e-06
2.94783e-05
2.74162e-06
2.88872e-05
2.92607e-06
2.87488e-05
8.16164e-07
2.8295e-05
2.70601e-06
2.79347e-05
8.88655e-07
-1.43032e-06
2.73357e-05
2.73908e-05
9.38253e-06
2.90164e-05
6.03865e-06
3.00849e-05
3.4504e-06
3.05818e-05
3.7874e-06
3.11986e-05
2.12483e-06
3.11371e-05
2.98763e-06
3.13051e-05
6.48142e-07
3.12212e-05
2.78996e-06
3.11549e-05
9.54928e-07
-7.88601e-08
2.98034e-05
2.73046e-05
7.07795e-06
2.88357e-05
4.50755e-06
2.99409e-05
2.34518e-06
3.06646e-05
3.06366e-06
3.14647e-05
1.32472e-06
3.17864e-05
2.66601e-06
3.22088e-05
2.25729e-07
3.25171e-05
2.48165e-06
3.27213e-05
7.50723e-07
1.51281e-06
3.11296e-05
2.73253e-05
4.75266e-06
2.89017e-05
2.93111e-06
2.97162e-05
1.53074e-06
3.06146e-05
2.16521e-06
3.14184e-05
5.20953e-07
3.17999e-05
2.28446e-06
3.22282e-05
-2.02529e-07
3.27972e-05
1.91269e-06
3.29916e-05
5.56285e-07
1.42985e-06
3.30745e-05
2.73256e-05
2.4271e-06
2.88686e-05
1.38804e-06
2.9625e-05
7.7439e-07
3.05972e-05
1.193e-06
3.12923e-05
-1.74203e-07
3.17535e-05
1.82335e-06
3.21709e-05
-6.20001e-07
3.27943e-05
1.28936e-06
3.29437e-05
4.06816e-07
3.25402e-07
3.40482e-05
2.72794e-05
1.4769e-07
2.88834e-05
-2.15976e-07
2.96136e-05
4.4231e-08
3.05363e-05
2.70277e-07
3.125e-05
-8.87887e-07
3.17767e-05
1.29663e-06
3.21421e-05
-9.85361e-07
3.27672e-05
6.64205e-07
3.32273e-05
-5.32161e-08
-3.15547e-07
3.38682e-05
2.72812e-05
-2.13355e-06
2.88931e-05
-1.82786e-06
2.95903e-05
-6.52972e-07
3.05495e-05
-6.88853e-07
3.12395e-05
-1.57796e-06
3.1767e-05
7.6914e-07
3.21372e-05
-1.35553e-06
3.28398e-05
-3.83748e-08
3.32746e-05
-4.88073e-07
-2.17618e-07
3.31767e-05
2.73024e-05
-4.43598e-06
2.89059e-05
-3.43134e-06
2.96197e-05
-1.36676e-06
3.05972e-05
-1.66633e-06
3.12486e-05
-2.22936e-06
3.17993e-05
2.18412e-07
3.21905e-05
-1.74673e-06
3.2844e-05
-6.91884e-07
3.32399e-05
-8.83942e-07
-5.32985e-07
3.35553e-05
2.73479e-05
-6.78385e-06
2.89206e-05
-5.00413e-06
2.96934e-05
-2.13952e-06
3.0677e-05
-2.64997e-06
3.12802e-05
-2.83249e-06
3.18613e-05
-3.62732e-07
3.22444e-05
-2.12984e-06
3.28354e-05
-1.28289e-06
3.33717e-05
-1.42022e-06
-1.23487e-06
3.40736e-05
2.73966e-05
-9.18043e-06
2.88953e-05
-6.50283e-06
2.98758e-05
-3.12004e-06
3.077e-05
-3.5442e-06
3.12701e-05
-3.33251e-06
3.18996e-05
-9.9228e-07
3.21986e-05
-2.42882e-06
3.26007e-05
-1.68501e-06
3.29531e-05
-1.77263e-06
-1.55315e-06
3.32714e-05
2.74924e-05
-1.16729e-05
2.89532e-05
-7.96354e-06
3.00641e-05
-4.231e-06
3.07082e-05
-4.1883e-06
3.09348e-05
-3.55912e-06
3.13346e-05
-1.39207e-06
3.1273e-05
-2.36723e-06
3.12531e-05
-1.66512e-06
3.11629e-05
-1.68236e-06
-1.529e-06
3.11387e-05
2.76528e-05
-1.43257e-05
2.89143e-05
-9.22508e-06
2.96545e-05
-4.97113e-06
2.96474e-05
-4.18119e-06
2.92513e-05
-3.16305e-06
2.91323e-05
-1.27311e-06
2.86432e-05
-1.87815e-06
2.82955e-05
-1.3174e-06
2.79951e-05
-1.38191e-06
-1.23733e-06
2.77034e-05
2.74586e-05
-1.67843e-05
2.77332e-05
-9.49975e-06
2.73977e-05
-4.63555e-06
2.64844e-05
-3.26793e-06
2.55489e-05
-2.22755e-06
2.51073e-05
-8.31491e-07
2.44388e-05
-1.20961e-06
2.39935e-05
-8.72125e-07
2.36029e-05
-9.91296e-07
-7.87905e-07
2.31534e-05
2.56999e-05
-1.74842e-05
2.40981e-05
-7.89792e-06
2.26279e-05
-3.1654e-06
2.12025e-05
-1.84251e-06
2.01387e-05
-1.16374e-06
1.96667e-05
-3.59435e-07
1.90425e-05
-5.85488e-07
1.86393e-05
-4.68854e-07
1.82264e-05
-5.78372e-07
-3.64871e-07
1.78033e-05
2.10496e-05
-1.35338e-05
1.74462e-05
-4.2945e-06
1.55263e-05
-1.24556e-06
1.42382e-05
-5.54404e-07
1.341e-05
-3.355e-07
1.31073e-05
-5.67233e-08
1.26708e-05
-1.49065e-07
1.23643e-05
-1.62345e-07
1.19956e-05
-2.09611e-07
-1.00489e-07
1.17312e-05
1.14662e-05
7.17173e-06
5.92617e-06
5.37177e-06
5.03627e-06
4.97954e-06
4.83048e-06
4.66813e-06
4.45852e-06
4.35803e-06
5.0723e-06
-1.84274e-06
2.43001e-06
5.68995e-06
1.84478e-06
-2.46243e-06
8.4393e-06
1.71982e-06
-4.46916e-06
1.16489e-05
1.72163e-06
-4.93122e-06
1.31844e-05
1.03556e-05
-1.1891e-05
1.51667e-05
1.27876e-05
-1.47699e-05
2.01588e-05
2.92366e-06
-7.91572e-06
2.57927e-05
1.73347e-07
-5.80726e-06
2.86035e-05
2.27829e-06
-5.08913e-06
2.84927e-05
-1.89873e-06
2.00955e-06
2.72572e-05
-1.13099e-05
1.25454e-05
2.7148e-05
-2.01327e-05
2.02419e-05
2.8116e-05
-2.70606e-05
2.60926e-05
2.83675e-05
-3.25524e-05
3.23009e-05
2.78213e-05
-3.52143e-05
3.57606e-05
2.69621e-05
-3.26304e-05
3.34896e-05
2.49847e-05
-2.66963e-05
2.86736e-05
2.26085e-05
-2.19584e-05
2.43347e-05
2.10168e-05
-1.8982e-05
2.05737e-05
2.00968e-05
-1.62082e-05
1.71282e-05
1.93664e-05
-1.24656e-05
1.3196e-05
1.84102e-05
-8.36606e-06
9.3223e-06
1.71997e-05
-5.50039e-06
6.71087e-06
1.60684e-05
-4.10807e-06
5.23942e-06
1.52397e-05
-3.35973e-06
4.1884e-06
1.4685e-05
-2.70445e-06
3.25913e-06
1.43013e-05
-2.08671e-06
2.47044e-06
1.40252e-05
-1.57777e-06
1.85378e-06
1.38285e-05
-1.19387e-06
1.39059e-06
1.36923e-05
-9.09266e-07
1.04552e-06
1.35996e-05
-6.95061e-07
7.87696e-07
1.35369e-05
-5.31368e-07
5.94142e-07
1.34942e-05
-4.05455e-07
4.48153e-07
1.3465e-05
-3.08357e-07
3.37506e-07
1.34451e-05
-2.3341e-07
2.53336e-07
1.34315e-05
-1.75605e-07
1.89214e-07
1.34222e-05
-1.31111e-07
1.40385e-07
1.34159e-05
-9.69598e-08
1.03264e-07
1.34116e-05
-7.08268e-08
7.51055e-08
1.34087e-05
-5.08937e-08
5.37947e-08
1.34068e-05
-3.57381e-08
3.77056e-08
1.34054e-05
-2.4247e-08
2.55819e-08
1.34045e-05
-1.55474e-08
1.64525e-08
1.34039e-05
-8.95478e-09
9.56824e-09
1.34035e-05
-3.93763e-09
4.3516e-09
1.34032e-05
-8.43622e-11
3.56223e-10
1.3403e-05
2.94056e-09
-2.74886e-09
1.34029e-05
5.46509e-09
-5.35428e-09
1.34028e-05
7.64571e-09
-7.57866e-09
1.34028e-05
9.65813e-09
-9.62604e-09
1.34028e-05
1.16519e-08
-1.1651e-08
1.34028e-05
1.3765e-08
-1.37909e-08
1.34029e-05
1.61052e-08
-1.61563e-08
1.3403e-05
1.87983e-08
-1.88774e-08
1.34031e-05
2.195e-08
-2.20634e-08
1.34032e-05
2.57212e-08
-2.5878e-08
1.34035e-05
3.01525e-08
-3.03649e-08
1.34037e-05
3.56386e-08
-3.59257e-08
1.34041e-05
4.17947e-08
-4.21934e-08
1.34047e-05
5.0176e-08
-5.06907e-08
1.34055e-05
5.7897e-08
-5.86969e-08
1.34063e-05
7.24603e-08
-7.3303e-08
1.34082e-05
7.80865e-08
-7.99773e-08
1.3409e-05
1.10738e-07
-1.11591e-07
1.34147e-05
9.47549e-08
-1.00397e-07
1.34126e-05
1.90864e-07
-1.88786e-07
1.34326e-05
7.35323e-08
-9.35401e-08
1.34133e-05
3.94396e-07
-3.75112e-07
1.34858e-05
-9.64255e-08
2.39149e-08
1.33965e-05
9.49352e-07
-8.59974e-07
1.36298e-05
-6.67137e-07
4.3375e-07
1.33171e-05
2.32337e-06
-2.01066e-06
1.3917e-05
-1.91756e-06
1.31766e-06
1.31113e-05
4.77379e-06
-3.96803e-06
1.42266e-05
-3.50351e-06
2.38822e-06
1.28842e-05
6.9329e-06
-5.59058e-06
1.43439e-05
-4.33824e-06
2.87861e-06
1.29603e-05
6.87733e-06
-5.49378e-06
1.42539e-05
-3.5951e-06
2.30153e-06
1.33138e-05
4.95954e-06
-4.01947e-06
1.40472e-05
-1.3048e-06
5.71394e-07
1.32969e-05
4.08495e-06
-3.33461e-06
1.40488e-05
-3.94717e-07
-3.57233e-07
1.27924e-05
5.44554e-06
-4.18911e-06
1.38235e-05
6.20506e-08
-1.09319e-06
1.28403e-05
5.17007e-06
-4.1868e-06
1.34693e-05
1.81858e-06
-2.44761e-06
1.26997e-05
5.72067e-06
-4.95105e-06
1.34816e-05
3.12725e-06
-3.90917e-06
1.28723e-05
6.87626e-06
-6.26697e-06
1.35599e-05
5.26853e-06
-5.9561e-06
1.28041e-05
9.12012e-06
-8.36434e-06
1.34787e-05
7.58779e-06
-8.2624e-06
1.21024e-05
1.37304e-05
-1.2354e-05
1.3349e-05
1.19334e-05
-1.318e-05
1.31812e-05
1.91886e-05
-1.90207e-05
1.50276e-05
1.78005e-05
-1.96469e-05
1.16499e-05
3.23313e-05
-2.89536e-05
1.20167e-05
3.11464e-05
-3.15132e-05
5.96888e-05
-5.8609e-05
1.0937e-05
1.14918e-05
-7.50373e-07
1.11383e-05
2.19828e-06
1.18243e-05
1.03378e-06
1.27997e-05
7.46225e-07
1.4035e-05
9.12031e-06
1.64689e-05
1.03536e-05
2.05249e-05
-1.13234e-06
2.53649e-05
-4.6666e-06
2.80401e-05
-3.96954e-07
2.85098e-05
-2.36843e-06
2.90541e-05
-1.18542e-05
3.04415e-05
-2.152e-05
3.1458e-05
-2.80771e-05
3.09814e-05
-3.20759e-05
2.9115e-05
-3.33478e-05
2.73757e-05
-3.08912e-05
2.57694e-05
-2.50899e-05
2.35435e-05
-1.97325e-05
2.13033e-05
-1.67418e-05
1.96853e-05
-1.45902e-05
1.86772e-05
-1.14575e-05
1.78432e-05
-7.53206e-06
1.68851e-05
-4.54237e-06
1.593e-05
-3.15292e-06
1.51882e-05
-2.6179e-06
1.46853e-05
-2.20158e-06
1.43373e-05
-1.73869e-06
1.40775e-05
-1.31795e-06
1.388e-05
-9.96395e-07
1.37348e-05
-7.64051e-07
1.36321e-05
-5.92343e-07
1.3561e-05
-4.60353e-07
1.35123e-05
-3.5672e-07
1.34788e-05
-2.74855e-07
1.34557e-05
-2.10262e-07
1.34396e-05
-1.59545e-07
1.34284e-05
-1.19949e-07
1.34207e-05
-8.91964e-08
1.34153e-05
-6.5421e-08
1.34115e-05
-4.71235e-08
1.34089e-05
-3.31031e-08
1.3407e-05
-2.24034e-08
1.34057e-05
-1.42579e-08
1.34048e-05
-8.05425e-09
1.34042e-05
-3.31128e-09
1.34038e-05
3.42329e-10
1.34035e-05
3.22493e-09
1.34033e-05
5.65025e-09
1.34032e-05
7.7477e-09
1.34032e-05
9.69472e-09
1.34032e-05
1.16382e-08
1.34032e-05
1.37013e-08
1.34034e-05
1.59962e-08
1.34035e-05
1.86409e-08
1.34037e-05
2.17375e-08
1.3404e-05
2.54401e-08
1.34044e-05
2.97922e-08
1.34048e-05
3.51655e-08
1.34054e-05
4.11912e-08
1.34062e-05
4.93742e-08
1.34073e-05
5.68445e-08
1.34086e-05
7.11179e-08
1.34107e-05
7.59994e-08
1.34126e-05
1.08828e-07
1.3418e-05
8.93911e-08
1.34185e-05
1.90318e-07
1.34368e-05
5.53118e-08
1.34245e-05
4.06696e-07
1.34926e-05
-1.64539e-07
1.34222e-05
1.01971e-06
1.36533e-05
-8.98186e-07
1.33921e-05
2.58453e-06
1.40009e-05
-2.5263e-06
1.33076e-05
5.46702e-06
1.4411e-05
-4.60692e-06
1.32644e-05
8.07951e-06
1.47239e-05
-5.79773e-06
1.35745e-05
8.02673e-06
1.51536e-05
-5.17415e-06
1.4095e-05
6.01813e-06
1.53504e-05
-2.56023e-06
1.41696e-05
5.26572e-06
1.51667e-05
-1.39182e-06
1.35832e-05
7.02911e-06
1.48621e-05
-1.21692e-06
1.32039e-05
6.82829e-06
1.39772e-05
1.04533e-06
1.25451e-05
7.15276e-06
1.35645e-05
2.10787e-06
1.22512e-05
8.18948e-06
1.33758e-05
4.14392e-06
1.27875e-05
9.7085e-06
1.44251e-05
5.95013e-06
1.31711e-05
1.49844e-05
1.37478e-05
1.13567e-05
1.1785e-05
2.11515e-05
1.43762e-05
1.52093e-05
1.4817e-05
3.18905e-05
1.91677e-05
2.67957e-05
6.06015e-05
1.8255e-05
1.79299e-05
1.06992e-07
1.72768e-05
2.85136e-06
1.74199e-05
8.90702e-07
1.75501e-05
6.16039e-07
1.85823e-05
8.08809e-06
2.09978e-05
7.93807e-06
2.31558e-05
-3.29031e-06
2.53457e-05
-6.85651e-06
2.75553e-05
-2.60654e-06
2.93546e-05
-4.16775e-06
3.12712e-05
-1.37707e-05
3.29332e-05
-2.31821e-05
3.29108e-05
-2.80547e-05
3.13629e-05
-3.05279e-05
2.90975e-05
-3.10824e-05
2.71051e-05
-2.88989e-05
2.5913e-05
-2.38978e-05
2.44178e-05
-1.82373e-05
2.21344e-05
-1.44585e-05
1.97765e-05
-1.22322e-05
1.80704e-05
-9.75138e-06
1.70384e-05
-6.50006e-06
1.6276e-05
-3.77998e-06
1.5585e-05
-2.46194e-06
1.50132e-05
-2.04609e-06
1.46002e-05
-1.78865e-06
1.43078e-05
-1.44622e-06
1.40843e-05
-1.0945e-06
1.39051e-05
-8.172e-07
1.37641e-05
-6.23004e-07
1.36582e-05
-4.86447e-07
1.35819e-05
-3.84057e-07
1.35283e-05
-3.0314e-07
1.3491e-05
-2.37584e-07
1.34651e-05
-1.84288e-07
1.34469e-05
-1.41342e-07
1.34341e-05
-1.07143e-07
1.3425e-05
-8.01539e-08
1.34186e-05
-5.90161e-08
1.34141e-05
-4.25745e-08
1.34108e-05
-2.98639e-08
1.34085e-05
-2.00938e-08
1.34069e-05
-1.26129e-08
1.34057e-05
-6.8864e-09
1.34049e-05
-2.48883e-09
1.34043e-05
9.06976e-10
1.34039e-05
3.61511e-09
1.34037e-05
5.89246e-09
1.34036e-05
7.87975e-09
1.34035e-05
9.73771e-09
1.34035e-05
1.16064e-08
1.34036e-05
1.36006e-08
1.34038e-05
1.58302e-08
1.3404e-05
1.84064e-08
1.34044e-05
2.14277e-08
1.34048e-05
2.50373e-08
1.34053e-05
2.92885e-08
1.34059e-05
3.45107e-08
1.34067e-05
4.0394e-08
1.34078e-05
4.82877e-08
1.34091e-05
5.55761e-08
1.34109e-05
6.92464e-08
1.34131e-05
7.38724e-08
1.34163e-05
1.05625e-07
1.34206e-05
8.50369e-08
1.34251e-05
1.85864e-07
1.34382e-05
4.22023e-08
1.34385e-05
4.0639e-07
1.34895e-05
-2.15552e-07
1.3458e-05
1.05122e-06
1.36523e-05
-1.09251e-06
1.34919e-05
2.74499e-06
1.40831e-05
-3.11759e-06
1.35666e-05
5.98355e-06
1.4749e-05
-5.78933e-06
1.38801e-05
8.94845e-06
1.53283e-05
-7.24593e-06
1.46927e-05
8.66229e-06
1.63037e-05
-6.78509e-06
1.543e-05
6.89177e-06
1.72985e-05
-4.42865e-06
1.59233e-05
6.6409e-06
1.74727e-05
-2.9412e-06
1.58561e-05
8.6457e-06
1.78445e-05
-3.20533e-06
1.56476e-05
9.02515e-06
1.70926e-05
-3.99687e-07
1.49551e-05
9.29031e-06
1.57268e-05
1.3362e-06
1.30751e-05
1.08411e-05
1.38155e-05
3.40355e-06
1.23611e-05
1.11629e-05
1.38654e-05
4.44584e-06
1.36775e-05
1.51723e-05
1.67269e-05
8.3072e-06
1.58394e-05
2.2039e-05
1.67923e-05
1.42564e-05
1.42163e-05
3.44664e-05
2.02338e-05
2.07783e-05
5.88834e-05
2.19518e-05
2.33027e-05
5.48595e-07
2.27652e-05
3.38884e-06
2.29385e-05
7.17436e-07
2.33138e-05
2.40749e-07
2.41533e-05
7.24855e-06
2.64419e-05
5.64946e-06
2.78613e-05
-4.70966e-06
2.84172e-05
-7.41246e-06
3.00669e-05
-4.25619e-06
3.24883e-05
-6.58918e-06
3.4329e-05
-1.56115e-05
3.52777e-05
-2.41308e-05
3.45278e-05
-2.73048e-05
3.21821e-05
-2.81823e-05
2.95866e-05
-2.84869e-05
2.73778e-05
-2.669e-05
2.61118e-05
-2.26318e-05
2.51398e-05
-1.72653e-05
2.32411e-05
-1.25598e-05
2.05194e-05
-9.51057e-06
1.803e-05
-7.26198e-06
1.64751e-05
-4.94514e-06
1.5689e-05
-2.99387e-06
1.52179e-05
-1.99083e-06
1.48343e-05
-1.66246e-06
1.451e-05
-1.4644e-06
1.42549e-05
-1.19111e-06
1.40576e-05
-8.97233e-07
1.39005e-05
-6.60061e-07
1.37735e-05
-4.96016e-07
1.36732e-05
-3.86165e-07
1.3597e-05
-3.07869e-07
1.35413e-05
-2.47404e-07
1.35015e-05
-1.97768e-07
1.34733e-05
-1.56073e-07
1.34533e-05
-1.21334e-07
1.3439e-05
-9.29266e-08
1.34289e-05
-7.00108e-08
1.34216e-05
-5.17458e-08
1.34164e-05
-3.73435e-08
1.34126e-05
-2.60892e-08
1.34099e-05
-1.73674e-08
1.34079e-05
-1.06471e-08
1.34065e-05
-5.47604e-09
1.34055e-05
-1.48785e-09
1.34048e-05
1.60713e-09
1.34043e-05
4.08883e-09
1.34041e-05
6.19039e-09
1.34039e-05
8.0394e-09
1.34038e-05
9.78365e-09
1.34039e-05
1.15556e-08
1.3404e-05
1.34625e-08
1.34043e-05
1.56075e-08
1.34046e-05
1.8096e-08
1.3405e-05
2.10228e-08
1.34055e-05
2.45161e-08
1.34061e-05
2.86464e-08
1.3407e-05
3.36795e-08
1.34079e-05
3.94143e-08
1.34093e-05
4.69216e-08
1.34108e-05
5.41272e-08
1.34132e-05
6.68245e-08
1.34152e-05
7.18481e-08
1.34199e-05
1.00936e-07
1.34226e-05
8.23316e-08
1.3432e-05
1.76436e-07
1.3437e-05
3.72347e-08
1.34552e-05
3.88172e-07
1.34741e-05
-2.34437e-07
1.35074e-05
1.01793e-06
1.35937e-05
-1.17879e-06
1.36394e-05
2.69932e-06
1.39645e-05
-3.44275e-06
1.38825e-05
6.06553e-06
1.47179e-05
-6.62473e-06
1.42636e-05
9.40276e-06
1.55133e-05
-8.4956e-06
1.48762e-05
9.29938e-06
1.66178e-05
-8.5267e-06
1.52615e-05
8.24812e-06
1.75046e-05
-6.67175e-06
1.60337e-05
8.11178e-06
1.77582e-05
-4.66571e-06
1.653e-05
9.87387e-06
1.90015e-05
-5.67683e-06
1.71306e-05
1.0896e-05
1.97868e-05
-3.05581e-06
1.79659e-05
1.11112e-05
1.9948e-05
-6.45885e-07
1.73193e-05
1.34699e-05
1.88824e-05
1.84039e-06
1.52581e-05
1.47872e-05
1.52395e-05
4.4645e-06
1.20461e-05
1.83657e-05
1.44444e-05
5.90885e-06
1.56004e-05
2.0883e-05
1.97473e-05
1.01095e-05
1.9543e-05
3.46707e-05
2.46921e-05
1.56292e-05
5.77602e-05
2.58154e-05
2.69777e-05
9.06654e-07
2.70538e-05
3.31275e-06
2.76252e-05
1.46035e-07
2.83049e-05
-4.3901e-07
2.92469e-05
6.30657e-06
3.09138e-05
3.98262e-06
3.16459e-05
-5.44181e-06
3.17661e-05
-7.53262e-06
3.34136e-05
-5.90368e-06
3.5905e-05
-9.08059e-06
3.69607e-05
-1.66672e-05
3.667e-05
-2.384e-05
3.58051e-05
-2.64399e-05
3.37295e-05
-2.61067e-05
3.10186e-05
-2.5776e-05
2.85065e-05
-2.41779e-05
2.66696e-05
-2.07949e-05
2.55726e-05
-1.61683e-05
2.40535e-05
-1.10407e-05
2.14674e-05
-6.92447e-06
1.85794e-05
-4.37397e-06
1.6478e-05
-2.84372e-06
1.5454e-05
-1.96992e-06
1.50526e-05
-1.58941e-06
1.48015e-05
-1.41138e-06
1.45304e-05
-1.19333e-06
1.42639e-05
-9.24577e-07
1.40471e-05
-6.80467e-07
1.38863e-05
-4.99219e-07
1.37665e-05
-3.76214e-07
1.36746e-05
-2.9426e-07
1.36033e-05
-2.36618e-07
1.35492e-05
-1.93283e-07
1.35091e-05
-1.57663e-07
1.34798e-05
-1.26801e-07
1.34586e-05
-1.00122e-07
1.34433e-05
-7.76332e-08
1.34323e-05
-5.89707e-08
1.34243e-05
-4.37459e-08
1.34185e-05
-3.15257e-08
1.34142e-05
-2.18478e-08
1.34111e-05
-1.42739e-08
1.34089e-05
-8.39585e-09
1.34073e-05
-3.84814e-09
1.34061e-05
-3.26661e-10
1.34053e-05
2.42182e-09
1.34047e-05
4.64845e-09
1.34044e-05
6.53191e-09
1.34042e-05
8.22134e-09
1.34042e-05
9.83016e-09
1.34042e-05
1.14844e-08
1.34044e-05
1.32855e-08
1.34047e-05
1.5329e-08
1.34051e-05
1.77112e-08
1.34056e-05
2.05251e-08
1.34062e-05
2.38802e-08
1.3407e-05
2.78709e-08
1.3408e-05
3.26786e-08
1.34091e-05
3.82634e-08
1.34108e-05
4.52836e-08
1.34124e-05
5.25323e-08
1.34154e-05
6.38327e-08
1.34171e-05
7.00761e-08
1.34235e-05
9.45556e-08
1.34239e-05
8.19002e-08
1.34392e-05
1.61197e-07
1.34341e-05
4.22936e-08
1.34715e-05
3.50833e-07
1.34558e-05
-2.18802e-07
1.35472e-05
9.26533e-07
1.35334e-05
-1.16502e-06
1.37402e-05
2.49257e-06
1.38381e-05
-3.54072e-06
1.40405e-05
5.86317e-06
1.46314e-05
-7.21565e-06
1.40943e-05
9.93985e-06
1.55308e-05
-9.93204e-06
1.40009e-05
1.08293e-05
1.5994e-05
-1.05198e-05
1.40239e-05
1.02182e-05
1.56871e-05
-8.33501e-06
1.4264e-05
9.53492e-06
1.5805e-05
-6.20678e-06
1.45982e-05
1.10807e-05
1.68351e-05
-7.91377e-06
1.56375e-05
1.20937e-05
1.80929e-05
-5.51127e-06
1.73968e-05
1.18073e-05
2.06221e-05
-3.87116e-06
1.9324e-05
1.4768e-05
2.29058e-05
-1.7414e-06
2.09802e-05
1.67128e-05
2.28855e-05
2.55918e-06
1.98462e-05
2.1405e-05
1.98512e-05
5.90387e-06
1.58049e-05
2.49293e-05
1.7778e-05
8.13637e-06
1.72359e-05
3.52127e-05
2.34125e-05
9.45262e-06
5.22766e-05
2.88961e-05
2.94615e-05
1.24855e-06
3.03258e-05
2.44848e-06
3.13102e-05
-8.38314e-07
3.17748e-05
-9.03592e-07
3.30617e-05
5.01963e-06
3.45956e-05
2.44867e-06
3.4564e-05
-5.41015e-06
3.41495e-05
-7.11815e-06
3.53977e-05
-7.15186e-06
3.74988e-05
-1.11817e-05
3.77209e-05
-1.68893e-05
3.61019e-05
-2.22211e-05
3.50777e-05
-2.54157e-05
3.40497e-05
-2.50787e-05
3.18763e-05
-2.36025e-05
2.9499e-05
-2.18006e-05
2.74015e-05
-1.86974e-05
2.5813e-05
-1.45798e-05
2.42761e-05
-9.50385e-06
2.20171e-05
-4.66545e-06
1.929e-05
-1.64687e-06
1.70062e-05
-5.59915e-07
1.57172e-05
-6.8089e-07
1.52076e-05
-1.07988e-06
1.4979e-05
-1.18271e-06
1.47211e-05
-9.35474e-07
1.44074e-05
-6.10858e-07
1.4121e-05
-3.94123e-07
1.391e-05
-2.88186e-07
1.3768e-05
-2.34201e-07
1.3672e-05
-1.98231e-07
1.3603e-05
-1.67689e-07
1.35518e-05
-1.42007e-07
1.35132e-05
-1.19095e-07
1.34842e-05
-9.78258e-08
1.34626e-05
-7.85199e-08
1.34467e-05
-6.17433e-08
1.34351e-05
-4.7325e-08
1.34265e-05
-3.52025e-08
1.34203e-05
-2.52452e-08
1.34156e-05
-1.72254e-08
1.34122e-05
-1.08736e-08
1.34097e-05
-5.90141e-09
1.34079e-05
-2.03325e-09
1.34066e-05
9.72472e-10
1.34057e-05
3.3457e-09
1.34051e-05
5.26641e-09
1.34047e-05
6.92021e-09
1.34045e-05
8.41827e-09
1.34045e-05
9.87314e-09
1.34045e-05
1.13908e-08
1.34048e-05
1.30694e-08
1.34051e-05
1.49947e-08
1.34056e-05
1.72534e-08
1.34061e-05
1.9937e-08
1.34069e-05
2.31338e-08
1.34078e-05
2.69673e-08
1.3409e-05
3.15163e-08
1.34103e-05
3.69506e-08
1.34122e-05
4.3387e-08
1.34139e-05
5.08204e-08
1.34175e-05
6.02536e-08
1.34188e-05
6.87422e-08
1.34273e-05
8.60929e-08
1.34241e-05
8.50281e-08
1.3448e-05
1.37314e-07
1.34258e-05
6.45128e-08
1.34955e-05
2.81108e-07
1.34162e-05
-1.39447e-07
1.36047e-05
7.3804e-07
1.34113e-05
-9.71713e-07
1.38278e-05
2.07613e-06
1.36007e-05
-3.31358e-06
1.40389e-05
5.4249e-06
1.44529e-05
-7.62961e-06
1.36995e-05
1.06932e-05
1.54637e-05
-1.16962e-05
1.33219e-05
1.29712e-05
1.54272e-05
-1.26252e-05
1.37405e-05
1.1905e-05
1.47144e-05
-9.30897e-06
1.38839e-05
1.03654e-05
1.51387e-05
-7.46156e-06
1.39744e-05
1.22451e-05
1.5925e-05
-9.86439e-06
1.49549e-05
1.30638e-05
1.65189e-05
-7.07525e-06
1.58826e-05
1.24436e-05
1.84228e-05
-6.41137e-06
1.77815e-05
1.54093e-05
2.12701e-05
-5.22998e-06
2.12487e-05
1.67342e-05
2.53075e-05
-1.49965e-06
2.45517e-05
2.21609e-05
2.90631e-05
1.39242e-06
2.49587e-05
2.90337e-05
2.74639e-05
5.63124e-06
2.23675e-05
4.03091e-05
2.23786e-05
9.4415e-06
4.62404e-05
2.84148e-05
3.13571e-05
1.02103e-06
3.30591e-05
7.46507e-07
3.39341e-05
-1.71329e-06
3.36551e-05
-6.24593e-07
3.47008e-05
3.97394e-06
3.6199e-05
9.50394e-07
3.64318e-05
-5.64289e-06
3.6086e-05
-6.77234e-06
3.65043e-05
-7.57017e-06
3.74827e-05
-1.21601e-05
3.71435e-05
-1.65501e-05
3.48198e-05
-1.98974e-05
3.31603e-05
-2.37562e-05
3.30185e-05
-2.49369e-05
3.19828e-05
-2.25669e-05
2.99785e-05
-1.97963e-05
2.79312e-05
-1.665e-05
2.6021e-05
-1.26696e-05
2.41869e-05
-7.66973e-06
2.20505e-05
-2.52907e-06
1.9733e-05
6.70611e-07
1.77317e-05
1.44139e-06
1.63991e-05
6.51718e-07
1.5672e-05
-3.52738e-07
1.52979e-05
-8.08618e-07
1.49974e-05
-6.34959e-07
1.46526e-05
-2.66117e-07
1.43021e-05
-4.35713e-08
1.4017e-05
-3.04834e-09
1.38184e-05
-3.56192e-08
1.36907e-05
-7.0516e-08
1.36082e-05
-8.51985e-08
1.35533e-05
-8.71822e-08
1.35149e-05
-8.06762e-08
1.34866e-05
-6.95314e-08
1.34653e-05
-5.71718e-08
1.34493e-05
-4.57514e-08
1.34373e-05
-3.53692e-08
1.34284e-05
-2.62819e-08
1.34218e-05
-1.86004e-08
1.34168e-05
-1.22867e-08
1.34132e-05
-7.21375e-09
1.34105e-05
-3.19961e-09
1.34085e-05
-6.03228e-11
1.34071e-05
2.39498e-09
1.34061e-05
4.35075e-09
1.34054e-05
5.9476e-09
1.3405e-05
7.33628e-09
1.34048e-05
8.62648e-09
1.34047e-05
9.90784e-09
1.34048e-05
1.12729e-08
1.34051e-05
1.28131e-08
1.34055e-05
1.46051e-08
1.3406e-05
1.67244e-08
1.34067e-05
1.92616e-08
1.34075e-05
2.22818e-08
1.34086e-05
2.59401e-08
1.34099e-05
3.02039e-08
1.34114e-05
3.54792e-08
1.34135e-05
4.12635e-08
1.34153e-05
4.89711e-08
1.34194e-05
5.61995e-08
1.34204e-05
6.77036e-08
1.34306e-05
7.59539e-08
1.34245e-05
9.11013e-08
1.34556e-05
1.06178e-07
1.34185e-05
1.01626e-07
1.35152e-05
1.84415e-07
1.33814e-05
-5.65399e-09
1.36388e-05
4.80658e-07
1.33099e-05
-6.42789e-07
1.38168e-05
1.56922e-06
1.34015e-05
-2.89834e-06
1.3874e-05
4.95242e-06
1.42607e-05
-8.01633e-06
1.34258e-05
1.15281e-05
1.52966e-05
-1.3567e-05
1.32289e-05
1.50389e-05
1.49313e-05
-1.43276e-05
1.40148e-05
1.28214e-05
1.44781e-05
-9.77223e-06
1.41257e-05
1.07178e-05
1.53695e-05
-8.70537e-06
1.41031e-05
1.35115e-05
1.59708e-05
-1.17321e-05
1.48763e-05
1.41583e-05
1.61212e-05
-8.32012e-06
1.50374e-05
1.35274e-05
1.72597e-05
-8.63374e-06
1.54527e-05
1.72163e-05
1.74984e-05
-7.27566e-06
1.65944e-05
1.76382e-05
1.98994e-05
-4.80474e-06
1.89863e-05
2.30741e-05
2.44356e-05
-4.05692e-06
2.34058e-05
3.00635e-05
2.88054e-05
2.31705e-07
2.83868e-05
4.07276e-05
2.66436e-05
1.11847e-05
4.33118e-05
2.95722e-05
3.34878e-05
6.07736e-07
3.45277e-05
-2.93321e-07
3.44565e-05
-1.64212e-06
3.41765e-05
-3.44548e-07
3.49648e-05
3.18562e-06
3.5573e-05
3.42126e-07
3.6276e-05
-6.34587e-06
3.69407e-05
-7.43702e-06
3.68708e-05
-7.5003e-06
3.66565e-05
-1.19458e-05
3.65813e-05
-1.64748e-05
3.50561e-05
-1.83722e-05
3.25711e-05
-2.12712e-05
3.18016e-05
-2.41674e-05
3.17316e-05
-2.24968e-05
3.05691e-05
-1.86338e-05
2.8603e-05
-1.4684e-05
2.63585e-05
-1.04251e-05
2.41599e-05
-5.47117e-06
2.19463e-05
-3.15418e-07
1.99699e-05
2.64704e-06
1.8478e-05
2.93322e-06
1.73682e-05
1.7616e-06
1.64351e-05
5.80356e-07
1.56819e-05
-5.55055e-08
1.5149e-05
-1.01994e-07
1.47626e-05
1.20289e-07
1.4438e-05
2.80997e-07
1.41551e-05
2.79836e-07
1.3926e-05
1.9353e-07
1.37572e-05
9.8274e-08
1.3642e-05
2.99367e-08
1.35687e-05
-1.37869e-08
1.35213e-05
-3.33749e-08
1.34895e-05
-3.76545e-08
1.34669e-05
-3.45978e-08
1.34507e-05
-2.95047e-08
1.34386e-05
-2.3355e-08
1.34296e-05
-1.72716e-08
1.34228e-05
-1.18091e-08
1.34177e-05
-7.17675e-09
1.34139e-05
-3.38738e-09
1.3411e-05
-3.49706e-10
1.3409e-05
2.0338e-09
1.34074e-05
3.91819e-09
1.34064e-05
5.41653e-09
1.34056e-05
6.673e-09
1.34052e-05
7.77724e-09
1.3405e-05
8.8375e-09
1.3405e-05
9.93046e-09
1.34051e-05
1.11284e-08
1.34054e-05
1.25157e-08
1.34059e-05
1.41605e-08
1.34065e-05
1.61262e-08
1.34072e-05
1.85015e-08
1.34082e-05
2.13293e-08
1.34093e-05
2.4794e-08
1.34108e-05
2.87542e-08
1.34124e-05
3.38488e-08
1.34147e-05
3.89572e-08
1.34167e-05
4.69317e-08
1.34211e-05
5.18712e-08
1.34222e-05
6.65877e-08
1.3433e-05
6.51028e-08
1.3426e-05
9.81813e-08
1.34602e-05
7.19422e-08
1.34163e-05
1.45529e-07
1.35255e-05
7.52322e-08
1.33634e-05
1.56401e-07
1.36533e-05
1.90816e-07
1.32422e-05
-2.31742e-07
1.37986e-05
1.01278e-06
1.31989e-05
-2.29863e-06
1.37986e-05
4.35273e-06
1.38895e-05
-8.10717e-06
1.33472e-05
1.20704e-05
1.50577e-05
-1.52775e-05
1.31683e-05
1.69283e-05
1.42492e-05
-1.54085e-05
1.38266e-05
1.32441e-05
1.38351e-05
-9.78071e-06
1.351e-05
1.10429e-05
1.48745e-05
-1.00699e-05
1.32046e-05
1.51814e-05
1.49278e-05
-1.34553e-05
1.40859e-05
1.50001e-05
1.49558e-05
-9.18995e-06
1.38147e-05
1.46684e-05
1.62128e-05
-1.10318e-05
1.43256e-05
1.91035e-05
1.63218e-05
-9.27188e-06
1.46429e-05
1.93171e-05
1.80961e-05
-8.25793e-06
1.56677e-05
2.55025e-05
1.87112e-05
-7.10045e-06
1.84084e-05
3.03663e-05
2.27953e-05
-4.15525e-06
2.61473e-05
3.73757e-05
2.75141e-05
9.81782e-06
3.99028e-05
3.09232e-05
3.43672e-05
2.88691e-07
3.38638e-05
2.10069e-07
3.36618e-05
-1.44013e-06
3.44776e-05
-1.16034e-06
3.48596e-05
2.80367e-06
3.48786e-05
3.23091e-07
3.58246e-05
-7.29181e-06
3.68157e-05
-8.42813e-06
3.64535e-05
-7.13817e-06
3.57607e-05
-1.12529e-05
3.59987e-05
-1.67128e-05
3.5745e-05
-1.81185e-05
3.3575e-05
-1.91012e-05
3.1661e-05
-2.22535e-05
3.13549e-05
-2.21907e-05
3.11159e-05
-1.83948e-05
2.97291e-05
-1.32972e-05
2.7214e-05
-7.90993e-06
2.46228e-05
-2.88005e-06
2.23872e-05
1.9202e-06
2.05452e-05
4.48909e-06
1.92929e-05
4.18549e-06
1.83798e-05
2.67472e-06
1.73326e-05
1.62748e-06
1.61071e-05
1.17003e-06
1.50625e-05
9.42569e-07
1.44037e-05
7.79136e-07
1.40684e-05
6.16273e-07
1.39079e-05
4.40407e-07
1.3813e-05
2.88395e-07
1.37335e-05
1.77799e-07
1.36596e-05
1.0385e-07
1.35934e-05
5.24002e-08
1.35406e-05
1.93666e-08
1.35017e-05
1.29993e-09
1.34739e-05
-6.87788e-09
1.34548e-05
-1.03062e-08
1.34411e-05
-9.72074e-09
1.34312e-05
-7.3853e-09
1.34239e-05
-4.52443e-09
1.34185e-05
-1.76772e-09
1.34145e-05
6.35718e-10
1.34115e-05
2.64048e-09
1.34093e-05
4.237e-09
1.34077e-05
5.51452e-09
1.34066e-05
6.53885e-09
1.34059e-05
7.42251e-09
1.34054e-05
8.23387e-09
1.34052e-05
9.04676e-09
1.34052e-05
9.93506e-09
1.34054e-05
1.09552e-08
1.34057e-05
1.21766e-08
1.34062e-05
1.36611e-08
1.34069e-05
1.54605e-08
1.34077e-05
1.766e-08
1.34087e-05
2.02821e-08
1.341e-05
2.35338e-08
1.34116e-05
2.71807e-08
1.34134e-05
3.20585e-08
1.34158e-05
3.65137e-08
1.34181e-05
4.46437e-08
1.34225e-05
4.74845e-08
1.34241e-05
6.49742e-08
1.34346e-05
5.46215e-08
1.34287e-05
1.04021e-07
1.34613e-05
3.94031e-08
1.34202e-05
1.86596e-07
1.35254e-05
-2.99172e-08
1.33665e-05
3.15263e-07
1.36507e-05
-9.33495e-08
1.32298e-05
1.89116e-07
1.37747e-05
4.67902e-07
1.31075e-05
-1.63148e-06
1.37144e-05
3.74583e-06
1.35468e-05
-7.93951e-06
1.32724e-05
1.23447e-05
1.4597e-05
-1.6602e-05
1.33161e-05
1.82092e-05
1.36528e-05
-1.57452e-05
1.40171e-05
1.28798e-05
1.36376e-05
-9.40119e-06
1.35637e-05
1.11167e-05
1.4811e-05
-1.13172e-05
1.33745e-05
1.66179e-05
1.478e-05
-1.48608e-05
1.41284e-05
1.56518e-05
1.51481e-05
-1.02097e-05
1.36495e-05
1.6167e-05
1.57312e-05
-1.31135e-05
1.4113e-05
2.07217e-05
1.58182e-05
-1.09771e-05
1.43493e-05
2.0786e-05
1.74765e-05
-1.13851e-05
1.58664e-05
2.71125e-05
1.82319e-05
-9.46598e-06
1.76134e-05
3.09849e-05
1.97145e-05
-6.25635e-06
2.26581e-05
3.44321e-05
2.49563e-05
7.51958e-06
3.45894e-05
3.02697e-05
3.36088e-05
5.4806e-07
3.34952e-05
3.23716e-07
3.36602e-05
-1.60518e-06
3.34982e-05
-9.98343e-07
3.48789e-05
1.423e-06
3.64429e-05
-1.24092e-06
3.56659e-05
-6.51481e-06
3.47795e-05
-7.54173e-06
3.48236e-05
-7.18226e-06
3.51688e-05
-1.15981e-05
3.55554e-05
-1.70994e-05
3.57093e-05
-1.82725e-05
3.47934e-05
-1.81853e-05
3.27681e-05
-2.02282e-05
3.09706e-05
-2.03932e-05
2.99946e-05
-1.74188e-05
2.89737e-05
-1.22763e-05
2.67075e-05
-5.64372e-06
2.40721e-05
-2.44694e-07
2.24173e-05
3.57501e-06
2.13354e-05
5.571e-06
2.03582e-05
5.16268e-06
1.92727e-05
3.76028e-06
1.78964e-05
3.00373e-06
1.63445e-05
2.72191e-06
1.49918e-05
2.29528e-06
1.41002e-05
1.67076e-06
1.36503e-05
1.06613e-06
1.34797e-05
6.11029e-07
1.34435e-05
3.24575e-07
1.34544e-05
1.66913e-07
1.34717e-05
8.65228e-08
1.348e-05
4.41306e-08
1.34782e-05
2.11424e-08
1.34706e-05
8.97971e-09
1.34603e-05
3.41376e-09
1.34493e-05
6.35488e-10
1.34393e-05
2.92921e-10
1.34309e-05
1.02819e-09
1.34241e-05
2.22866e-09
1.34189e-05
3.49358e-09
1.34149e-05
4.65216e-09
1.34118e-05
5.6834e-09
1.34096e-05
6.4895e-09
1.34079e-05
7.15588e-09
1.34068e-05
7.69079e-09
1.3406e-05
8.18998e-09
1.34055e-05
8.69201e-09
1.34053e-05
9.24657e-09
1.34054e-05
9.91772e-09
1.34056e-05
1.07503e-08
1.3406e-05
1.17946e-08
1.34065e-05
1.31075e-08
1.34072e-05
1.47297e-08
1.34082e-05
1.67405e-08