/*--------------------------------*- C++ -*----------------------------------*\
| =========                 |                                                 |
| \\      /  F ield         | OpenFOAM: The Open Source CFD Toolbox           |
|  \\    /   O peration     | Version:  2.4.0                                 |
|   \\  /    A nd           | Web:      www.OpenFOAM.org                      |
|    \\/     M anipulation  |                                                 |
\*---------------------------------------------------------------------------*/
FoamFile
{
    version     2.0;
    format      ascii;
    class       surfaceScalarField;
    location    "0.05";
    object      phi;
}
// * * * * * * * * * * * * * * * * * * * * * * * * * * * * * * * * * * * * * //

dimensions      [0 3 -1 0 0 0 0];

internalField   nonuniform List<scalar> 
34680
(
2.4076e-05
9.23988e-07
2.16926e-05
2.38346e-06
1.88157e-05
2.87685e-06
1.60431e-05
2.7726e-06
1.36249e-05
2.41823e-06
1.16547e-05
1.97012e-06
1.01591e-05
1.49566e-06
9.05276e-06
1.10632e-06
8.26596e-06
7.86804e-07
7.74194e-06
5.24021e-07
7.3665e-06
3.75438e-07
7.08743e-06
2.79074e-07
6.91898e-06
1.68447e-07
6.77087e-06
1.48105e-07
6.62799e-06
1.42879e-07
6.55128e-06
7.67181e-08
6.46698e-06
8.42944e-08
6.3583e-06
1.08682e-07
6.3112e-06
4.70964e-08
6.25168e-06
5.95272e-08
6.16786e-06
8.38195e-08
6.12211e-06
4.57494e-08
6.07565e-06
4.6457e-08
6.00625e-06
6.9404e-08
5.96033e-06
4.59165e-08
5.91752e-06
4.28098e-08
5.86209e-06
5.54269e-08
5.81464e-06
4.74575e-08
5.78054e-06
3.40947e-08
5.73768e-06
4.28648e-08
5.70667e-06
3.10093e-08
5.67245e-06
3.42148e-08
5.65022e-06
2.2229e-08
5.6136e-06
3.66236e-08
5.58124e-06
3.23631e-08
5.53869e-06
4.25492e-08
5.4898e-06
4.8888e-08
5.41634e-06
7.34615e-08
5.30322e-06
1.13114e-07
-9.15073e-08
5.39473e-06
2.52093e-05
7.1472e-07
2.55429e-05
2.04986e-06
2.55671e-05
2.85267e-06
2.52397e-05
3.09991e-06
2.46438e-05
3.01415e-06
2.38715e-05
2.74248e-06
2.30759e-05
2.29124e-06
2.2279e-05
1.90324e-06
2.15221e-05
1.54372e-06
2.08842e-05
1.16189e-06
2.0276e-05
9.83656e-07
1.97123e-05
8.42759e-07
1.92583e-05
6.22438e-07
1.88045e-05
6.01855e-07
1.83912e-05
5.56244e-07
1.80683e-05
3.99561e-07
1.77353e-05
4.17297e-07
1.743e-05
4.1403e-07
1.71975e-05
2.79582e-07
1.69543e-05
3.02745e-07
1.67306e-05
3.07494e-07
1.65448e-05
2.31577e-07
1.6368e-05
2.23207e-07
1.61912e-05
2.46218e-07
1.60439e-05
1.93267e-07
1.58989e-05
1.878e-07
1.57626e-05
1.91682e-07
1.5626e-05
1.84102e-07
1.55198e-05
1.40237e-07
1.53963e-05
1.66407e-07
1.53045e-05
1.22763e-07
1.5197e-05
1.41709e-07
1.51258e-05
9.34723e-08
1.50169e-05
1.45573e-07
1.49518e-05
9.73909e-08
1.48088e-05
1.85614e-07
1.47477e-05
1.09948e-07
1.46214e-05
1.99734e-07
1.4712e-05
2.25841e-08
-5.76813e-09
1.46262e-05
2.51622e-05
5.52522e-07
2.55916e-05
1.6205e-06
2.61238e-05
2.32047e-06
2.6582e-05
2.64171e-06
2.69074e-05
2.68875e-06
2.7065e-05
2.58487e-06
2.7133e-05
2.22318e-06
2.71023e-05
1.93392e-06
2.69762e-05
1.6699e-06
2.68623e-05
1.27573e-06
2.67124e-05
1.13356e-06
2.65051e-05
1.05012e-06
2.63383e-05
7.89178e-07
2.61248e-05
8.15358e-07
2.58712e-05
8.09865e-07
2.5692e-05
5.7877e-07
2.54599e-05
6.49369e-07
2.52403e-05
6.33648e-07
2.50758e-05
4.44073e-07
2.48702e-05
5.08375e-07
2.46706e-05
5.07095e-07
2.45121e-05
3.90038e-07
2.4314e-05
4.21316e-07
2.41481e-05
4.12122e-07
2.39813e-05
3.6003e-07
2.38292e-05
3.39948e-07
2.36567e-05
3.64209e-07
2.35287e-05
3.12059e-07
2.33595e-05
3.09454e-07
2.3248e-05
2.77937e-07
2.30869e-05
2.838e-07
2.2993e-05
2.35675e-07
2.28395e-05
2.46883e-07
2.27588e-05
2.26302e-07
2.26046e-05
2.51624e-07
2.25854e-05
2.0483e-07
2.24065e-05
2.88862e-07
2.23511e-05
2.55042e-07
2.22936e-05
8.01162e-08
-3.03649e-07
2.25915e-05
2.51497e-05
4.02836e-07
2.54959e-05
1.27425e-06
2.59274e-05
1.88903e-06
2.64174e-05
2.15169e-06
2.68945e-05
2.21167e-06
2.72789e-05
2.20047e-06
2.75965e-05
1.90555e-06
2.78187e-05
1.71175e-06
2.79856e-05
1.50298e-06
2.81143e-05
1.14705e-06
2.82623e-05
9.85533e-07
2.83466e-05
9.6585e-07
2.84331e-05
7.02681e-07
2.84855e-05
7.62875e-07
2.84918e-05
8.03571e-07
2.84888e-05
5.818e-07
2.84857e-05
6.52445e-07
2.84615e-05
6.5789e-07
2.84785e-05
4.27067e-07
2.84607e-05
5.26157e-07
2.84586e-05
5.09178e-07
2.84396e-05
4.09101e-07
2.84119e-05
4.48988e-07
2.83589e-05
4.65135e-07
2.83336e-05
3.85257e-07
2.82813e-05
3.92314e-07
2.82427e-05
4.02756e-07
2.82093e-05
3.45516e-07
2.81686e-05
3.50142e-07
2.81248e-05
3.2168e-07
2.80809e-05
3.27769e-07
2.80367e-05
2.79873e-07
2.79786e-05
3.04941e-07
2.79412e-05
2.63726e-07
2.78397e-05
3.53118e-07
2.78294e-05
2.15122e-07
2.78961e-05
2.22127e-07
2.8178e-05
-2.68568e-08
2.85507e-05
-2.92499e-07
-7.64694e-07
2.90117e-05
2.51283e-05
2.74487e-07
2.53673e-05
1.0353e-06
2.58143e-05
1.44205e-06
2.62011e-05
1.76485e-06
2.66582e-05
1.75455e-06
2.70147e-05
1.84403e-06
2.7424e-05
1.49622e-06
2.76276e-05
1.50821e-06
2.79287e-05
1.20182e-06
2.80252e-05
1.05055e-06
2.82534e-05
7.57399e-07
2.83661e-05
8.53147e-07
2.8565e-05
5.03709e-07
2.86392e-05
6.88686e-07
2.88431e-05
5.99692e-07
2.88202e-05
6.04659e-07
2.89767e-05
4.96007e-07
2.89626e-05
6.71923e-07
2.91087e-05
2.80966e-07
2.91088e-05
5.26125e-07
2.92969e-05
3.21093e-07
2.92793e-05
4.26714e-07
2.94501e-05
2.78129e-07
2.93925e-05
5.22794e-07
2.95355e-05
2.42238e-07
2.94691e-05
4.58683e-07
2.96256e-05
2.46293e-07
2.95643e-05
4.06783e-07
2.97453e-05
1.69145e-07
2.96691e-05
3.97834e-07
2.98608e-05
1.36141e-07
2.97607e-05
3.79935e-07
2.99486e-05
1.1701e-07
2.98466e-05
3.65758e-07
3.00951e-05
1.04656e-07
2.9969e-05
3.41199e-07
3.00553e-05
1.35773e-07
2.93845e-05
6.44012e-07
2.87793e-05
3.12693e-07
3.31961e-07
2.76826e-05
2.50826e-05
1.91857e-07
2.53062e-05
8.11697e-07
2.56989e-05
1.04935e-06
2.60758e-05
1.38798e-06
2.6448e-05
1.38237e-06
2.68194e-05
1.47259e-06
2.71629e-05
1.1527e-06
2.74583e-05
1.2128e-06
2.77209e-05
9.39239e-07
2.78723e-05
8.9913e-07
2.80221e-05
6.0768e-07
2.81929e-05
6.82308e-07
2.83092e-05
3.87377e-07
2.84715e-05
5.26426e-07
2.86194e-05
4.51808e-07
2.87078e-05
5.16246e-07
2.88002e-05
4.03542e-07
2.89033e-05
5.68869e-07
2.8947e-05
2.37283e-07
2.9069e-05
4.04128e-07
2.91595e-05
2.30589e-07
2.92637e-05
3.22489e-07
2.93401e-05
2.0175e-07
2.94252e-05
4.37663e-07
2.94665e-05
2.01009e-07
2.95545e-05
3.70596e-07
2.95995e-05
2.01332e-07
2.96976e-05
3.08643e-07
2.97551e-05
1.11667e-07
2.98524e-05
3.00507e-07
2.99113e-05
7.72435e-08
3.00189e-05
2.72393e-07
3.00671e-05
6.87659e-08
3.01709e-05
2.61972e-07
3.02051e-05
7.05117e-08
3.03238e-05
2.22471e-07
3.04844e-05
-2.48293e-08
3.10002e-05
1.28154e-07
3.14636e-05
-1.50688e-07
-2.58126e-07
3.20537e-05
2.50498e-05
1.42053e-07
2.52848e-05
5.76732e-07
2.55727e-05
7.61414e-07
2.59727e-05
9.87957e-07
2.6297e-05
1.05812e-06
2.6697e-05
1.07259e-06
2.69666e-05
8.83073e-07
2.72969e-05
8.82566e-07
2.75285e-05
7.0763e-07
2.77571e-05
6.70535e-07
2.78633e-05
5.01484e-07
2.80652e-05
4.80378e-07
2.81298e-05
3.22753e-07
2.83181e-05
3.38171e-07
2.84125e-05
3.57327e-07
2.85649e-05
3.63853e-07
2.86224e-05
3.46046e-07
2.87892e-05
4.02077e-07
2.87859e-05
2.40627e-07
2.8956e-05
2.34019e-07
2.89776e-05
2.08928e-07
2.91218e-05
1.78357e-07
2.91435e-05
1.80008e-07
2.92976e-05
2.83555e-07
2.92935e-05
2.05107e-07
2.94468e-05
2.17317e-07
2.94338e-05
2.14392e-07
2.95895e-05
1.52863e-07
2.95812e-05
1.20047e-07
2.9743e-05
1.38612e-07
2.97331e-05
8.71684e-08
2.9905e-05
1.0047e-07
2.98852e-05
8.85663e-08
3.00803e-05
6.69319e-08
3.01058e-05
4.50025e-08
3.0376e-05
-4.77489e-08
3.04462e-05
-9.50093e-08
3.07413e-05
-1.66912e-07
3.08447e-05
-2.54158e-07
-5.34525e-07
3.11211e-05
2.50437e-05
9.83162e-08
2.52291e-05
3.91396e-07
2.55158e-05
4.74648e-07
2.58752e-05
6.28596e-07
2.62155e-05
7.17798e-07
2.65954e-05
6.92705e-07
2.68767e-05
6.0181e-07
2.71694e-05
5.898e-07
2.7431e-05
4.46022e-07
2.76301e-05
4.71424e-07
2.77837e-05
3.47983e-07
2.79507e-05
3.13301e-07
2.80507e-05
2.22797e-07
2.81801e-05
2.08796e-07
2.83123e-05
2.25048e-07
2.84175e-05
2.58671e-07
2.8542e-05
2.2159e-07
2.86602e-05
2.83818e-07
2.87345e-05
1.66316e-07
2.88258e-05
1.42766e-07
2.89109e-05
1.23793e-07
2.89715e-05
1.17824e-07
2.90631e-05
8.83652e-08
2.91417e-05
2.04952e-07
2.92236e-05
1.23181e-07
2.92968e-05
1.44189e-07
2.93798e-05
1.31339e-07
2.94366e-05
9.60838e-08
2.95202e-05
3.64492e-08
2.95755e-05
8.32652e-08
2.96609e-05
1.85831e-09
2.97263e-05
3.5045e-08
2.9839e-05
-2.41275e-08
2.99336e-05
-2.77297e-08
3.00875e-05
-1.08848e-07
3.02065e-05
-1.66735e-07
3.03843e-05
-2.72853e-07
3.05721e-05
-3.54713e-07
3.07902e-05
-4.72284e-07
-5.91131e-07
3.08468e-05
2.50163e-05
8.19772e-08
2.52549e-05
1.52799e-07
2.54578e-05
2.71818e-07
2.58285e-05
2.57912e-07
2.61304e-05
4.15801e-07
2.65318e-05
2.91363e-07
2.67872e-05
3.46415e-07
2.71125e-05
2.64441e-07
2.7317e-05
2.41592e-07
2.75839e-05
2.04503e-07
2.76937e-05
2.3821e-07
2.79017e-05
1.05284e-07
2.79679e-05
1.56577e-07
2.81263e-05
5.03869e-08
2.82116e-05
1.39716e-07
2.8371e-05
9.9285e-08
2.84352e-05
1.57406e-07
2.86138e-05
1.05195e-07
2.86403e-05
1.39882e-07
2.87814e-05
1.6868e-09
2.88125e-05
9.26434e-08
2.89262e-05
4.09242e-09
2.8956e-05
5.85814e-08
2.90971e-05
6.38245e-08
2.9117e-05
1.03313e-07
2.9248e-05
1.31959e-08
2.92735e-05
1.05822e-07
2.93912e-05
-2.15832e-08
2.94101e-05
1.75002e-08
2.95328e-05
-3.93959e-08
2.95487e-05
-1.40367e-08
2.9682e-05
-9.82629e-08
2.97183e-05
-6.04513e-08
2.98761e-05
-1.85521e-07
2.99639e-05
-1.96598e-07
3.01463e-05
-3.49176e-07
3.02904e-05
-4.16959e-07
3.04949e-05
-5.59235e-07
3.0671e-05
-6.48339e-07
-6.40101e-07
3.072e-05
2.50139e-05
6.80514e-08
2.52385e-05
-7.17609e-08
2.54559e-05
5.44167e-08
2.57982e-05
-8.44212e-08
2.61018e-05
1.12176e-07
2.64901e-05
-9.69098e-08
2.67705e-05
6.59826e-08
2.70797e-05
-4.46753e-08
2.73014e-05
1.98932e-08
2.7526e-05
-2.01409e-08
2.7674e-05
9.02548e-08
2.78442e-05
-6.49561e-08
2.79554e-05
4.53812e-08
2.80743e-05
-6.85535e-08
2.81986e-05
1.54299e-08
2.83112e-05
-1.33375e-08
2.84287e-05
3.99611e-08
2.85553e-05
-2.14559e-08
2.86441e-05
5.11264e-08
2.87254e-05
-7.9633e-08
2.8814e-05
4.04923e-09
2.88717e-05
-5.35737e-08
2.89519e-05
-2.16097e-08
2.90349e-05
-1.91728e-08
2.91155e-05
2.26508e-08
2.91852e-05
-5.64349e-08
2.92768e-05
1.41741e-08
2.93304e-05
-7.51939e-08
2.94095e-05
-6.16091e-08
2.94652e-05
-9.50939e-08
2.95425e-05
-9.13321e-08
2.96002e-05
-1.55959e-07
2.9703e-05
-1.63187e-07
2.97898e-05
-2.72385e-07
2.99444e-05
-3.51195e-07
3.00722e-05
-4.76944e-07
3.02507e-05
-5.95456e-07
3.04327e-05
-7.41271e-07
3.06294e-05
-8.45037e-07
-7.64417e-07
3.07537e-05
2.50044e-05
6.36848e-08
2.52729e-05
-3.40341e-07
2.54255e-05
-9.81862e-08
2.58115e-05
-4.7041e-07
2.60694e-05
-1.45727e-07
2.65133e-05
-5.40798e-07
2.67332e-05
-1.53891e-07
2.71147e-05
-4.26166e-07
2.72462e-05
-1.11609e-07
2.75759e-05
-3.4982e-07
2.76356e-05
3.05448e-08
2.79025e-05
-3.3189e-07
2.79268e-05
2.10913e-08
2.81438e-05
-2.85516e-07
2.81609e-05
-1.67212e-09
2.83853e-05
-2.37776e-07
2.83736e-05
5.17011e-08
2.86061e-05
-2.54014e-07
2.85795e-05
7.77386e-08
2.87799e-05
-2.80047e-07
2.87495e-05
3.45065e-08
2.89469e-05
-2.50972e-07
2.88919e-05
3.33771e-08
2.91113e-05
-2.38592e-07
2.90552e-05
7.87359e-08
2.92497e-05
-2.50883e-07
2.92051e-05
5.87328e-08
2.93985e-05
-2.68586e-07
2.93362e-05
7.36471e-10
2.9545e-05
-3.03987e-07
2.94741e-05
-2.03908e-08
2.96768e-05
-3.58609e-07
2.96035e-05
-8.99176e-08
2.98195e-05
-4.88355e-07
2.97762e-05
-3.07987e-07
3.00702e-05
-7.7093e-07
3.0146e-05
-6.71244e-07
3.05086e-05
-1.10388e-06
3.06081e-05
-9.4453e-07
-1.10159e-06
3.09453e-05
2.50437e-05
1.99943e-08
2.52626e-05
-5.59259e-07
2.54631e-05
-2.98663e-07
2.58214e-05
-8.28737e-07
2.61501e-05
-4.74443e-07
2.65386e-05
-9.29286e-07
2.68167e-05
-4.32019e-07
2.71555e-05
-7.6496e-07
2.73098e-05
-2.65885e-07
2.75965e-05
-6.36518e-07
2.76794e-05
-5.23019e-08
2.79238e-05
-5.76377e-07
2.79746e-05
-2.96661e-08
2.81808e-05
-4.91727e-07
2.82068e-05
-2.76807e-08
2.84292e-05
-4.60119e-07
2.84201e-05
6.07553e-08
2.86464e-05
-4.80341e-07
2.86274e-05
9.67558e-08
2.882e-05
-4.7266e-07
2.87932e-05
6.13605e-08
2.89899e-05
-4.47724e-07
2.89338e-05
8.95253e-08
2.915e-05
-4.54766e-07
2.90961e-05
1.32617e-07
2.92872e-05
-4.42041e-07
2.92417e-05
1.04282e-07
2.94414e-05
-4.68251e-07
2.93693e-05
7.28019e-08
2.95884e-05
-5.23103e-07
2.95046e-05
6.34292e-08
2.9718e-05
-5.72024e-07
2.96289e-05
-8.41195e-10
2.98374e-05
-6.96828e-07
2.973e-05
-2.00559e-07
2.9959e-05
-9.9997e-07
2.98991e-05
-6.11344e-07
3.05259e-05
-1.73069e-06
3.10769e-05
-1.49546e-06
-1.78669e-06
3.1762e-05
2.51335e-05
-1.1348e-07
2.51304e-05
-5.56137e-07
2.55726e-05
-7.40922e-07
2.58079e-05
-1.06407e-06
2.63142e-05
-9.80687e-07
2.65441e-05
-1.15914e-06
2.6991e-05
-8.78946e-07
2.71321e-05
-9.06081e-07
2.7506e-05
-6.39824e-07
2.7578e-05
-7.08446e-07
2.78953e-05
-3.69652e-07
2.79032e-05
-5.84305e-07
2.82044e-05
-3.30773e-07
2.81592e-05
-4.46612e-07
2.84372e-05
-3.05686e-07
2.83879e-05
-4.10769e-07
2.86388e-05
-1.9013e-07
2.85827e-05
-4.243e-07
2.8842e-05
-1.62517e-07
2.87546e-05
-3.85214e-07
2.90106e-05
-1.9466e-07
2.89259e-05
-3.63063e-07
2.91575e-05
-1.42075e-07
2.90768e-05
-3.74069e-07
2.93211e-05
-1.11676e-07
2.92067e-05
-3.27622e-07
2.94651e-05
-1.54074e-07
2.93558e-05
-3.59026e-07
2.95972e-05
-1.68572e-07
2.94972e-05
-4.23075e-07
2.97381e-05
-1.77508e-07
2.96136e-05
-4.47541e-07
2.98635e-05
-2.50669e-07
2.97255e-05
-5.5888e-07
2.9979e-05
-4.54076e-07
2.97952e-05
-8.16143e-07
2.99453e-05
-7.61477e-07
2.93174e-05
-1.10281e-06
2.87903e-05
-9.68316e-07
-1.18744e-06
2.8191e-05
2.51224e-05
-2.35891e-07
2.52188e-05
-6.52528e-07
2.55981e-05
-1.12026e-06
2.5917e-05
-1.38293e-06
2.639e-05
-1.45368e-06
2.66631e-05
-1.43229e-06
2.70792e-05
-1.29498e-06
2.72543e-05
-1.08121e-06
2.75805e-05
-9.65979e-07
2.76818e-05
-8.09794e-07
2.7947e-05
-6.34842e-07
2.80065e-05
-6.43763e-07
2.82626e-05
-5.86918e-07
2.82699e-05
-4.53949e-07
2.85001e-05
-5.35893e-07
2.85044e-05
-4.15076e-07
2.87099e-05
-3.95606e-07
2.86997e-05
-4.14053e-07
2.89203e-05
-3.83121e-07
2.88761e-05
-3.41021e-07
2.90876e-05
-4.06194e-07
2.90452e-05
-3.20646e-07
2.92286e-05
-3.25472e-07
2.91873e-05
-3.32718e-07
2.93895e-05
-3.1391e-07
2.93253e-05
-2.6346e-07
2.95415e-05
-3.7021e-07
2.94799e-05
-2.97445e-07
2.96767e-05
-3.65346e-07
2.96167e-05
-3.63097e-07
2.98148e-05
-3.75644e-07
2.97377e-05
-3.70438e-07
2.99347e-05
-4.47681e-07
2.98345e-05
-4.58657e-07
2.99853e-05
-6.04928e-07
2.97608e-05
-5.91615e-07
2.97249e-05
-7.25525e-07
2.93706e-05
-7.48522e-07
2.92314e-05
-8.29159e-07
-7.35462e-07
2.87795e-05
2.51107e-05
-3.46577e-07
2.531e-05
-8.51858e-07
2.56661e-05
-1.47638e-06
2.6075e-05
-1.79184e-06
2.64949e-05
-1.87351e-06
2.68421e-05
-1.77947e-06
2.71936e-05
-1.64654e-06
2.74377e-05
-1.3253e-06
2.76772e-05
-1.20544e-06
2.786e-05
-9.92668e-07
2.80578e-05
-8.32562e-07
2.81905e-05
-7.76498e-07
2.83606e-05
-7.57006e-07
2.84508e-05
-5.44166e-07
2.85858e-05
-6.70887e-07
2.86921e-05
-5.21387e-07
2.88091e-05
-5.12559e-07
2.89009e-05
-5.05861e-07
2.9022e-05
-5.04268e-07
2.90793e-05
-3.98278e-07
2.91797e-05
-5.06665e-07
2.92379e-05
-3.78819e-07
2.9309e-05
-3.9655e-07
2.93727e-05
-3.9643e-07
2.94625e-05
-4.03655e-07
2.95221e-05
-3.2306e-07
2.96212e-05
-4.69398e-07
2.96818e-05
-3.5803e-07
2.97541e-05
-4.37617e-07
2.98096e-05
-4.18558e-07
2.98821e-05
-4.48181e-07
2.99288e-05
-4.17096e-07
2.99821e-05
-5.01013e-07
2.99881e-05
-4.64713e-07
2.99387e-05
-5.55498e-07
2.98701e-05
-5.22995e-07
2.97498e-05
-6.05192e-07
2.95486e-05
-5.47392e-07
2.92822e-05
-5.62709e-07
-4.47213e-07
2.89939e-05
2.51111e-05
-4.57724e-07
2.53875e-05
-1.1282e-06
2.58061e-05
-1.89504e-06
2.62472e-05
-2.2329e-06
2.66634e-05
-2.28967e-06
2.70354e-05
-2.15151e-06
2.73829e-05
-1.994e-06
2.76259e-05
-1.56837e-06
2.78818e-05
-1.46129e-06
2.80707e-05
-1.18161e-06
2.82555e-05
-1.01735e-06
2.83894e-05
-9.10366e-07
2.85361e-05
-9.03695e-07
2.86294e-05
-6.37464e-07
2.87527e-05
-7.94261e-07
2.88407e-05
-6.09342e-07
2.89554e-05
-6.27309e-07
2.90151e-05
-5.65562e-07
2.91263e-05
-6.15427e-07
2.9154e-05
-4.25966e-07
2.92469e-05
-5.99552e-07
2.92718e-05
-4.03802e-07
2.93591e-05
-4.83806e-07
2.9378e-05
-4.15349e-07
2.94782e-05
-5.0386e-07
2.94942e-05
-3.39009e-07
2.9588e-05
-5.63244e-07
2.95867e-05
-3.56724e-07
2.96666e-05
-5.17487e-07
2.9636e-05
-3.87922e-07
2.97191e-05
-5.31369e-07
2.96719e-05
-3.69809e-07
2.97428e-05
-5.71926e-07
2.96582e-05
-3.80173e-07
2.96915e-05
-5.88723e-07
2.95196e-05
-3.51187e-07
2.9439e-05
-5.24503e-07
2.9142e-05
-2.5048e-07
2.89584e-05
-3.79033e-07
-8.71102e-08
2.85983e-05
2.51147e-05
-5.72421e-07
2.55179e-05
-1.53138e-06
2.59803e-05
-2.35749e-06
2.64443e-05
-2.69685e-06
2.68644e-05
-2.70978e-06
2.72595e-05
-2.54658e-06
2.7546e-05
-2.28056e-06
2.78197e-05
-1.84201e-06
2.80092e-05
-1.65084e-06
2.81656e-05
-1.33797e-06
2.82718e-05
-1.1236e-06
2.83611e-05
-9.99597e-07
2.8397e-05
-9.39661e-07
2.84656e-05
-7.06013e-07
2.84638e-05
-7.92446e-07
2.85017e-05
-6.47294e-07
2.84954e-05
-6.20981e-07
2.8497e-05
-5.67212e-07
2.84698e-05
-5.88174e-07
2.8468e-05
-4.24146e-07
2.84202e-05
-5.51786e-07
2.84099e-05
-3.9347e-07
2.83804e-05
-4.54292e-07
2.8347e-05
-3.81946e-07
2.83081e-05
-4.65046e-07
2.82786e-05
-3.09504e-07
2.82062e-05
-4.90803e-07
2.8156e-05
-3.06503e-07
2.8088e-05
-4.49483e-07
2.80068e-05
-3.06755e-07
2.794e-05
-4.64525e-07
2.78447e-05
-2.74557e-07
2.77629e-05
-4.90104e-07
2.76502e-05
-2.67446e-07
2.7562e-05
-5.00572e-07
2.74038e-05
-1.92979e-07
2.72478e-05
-3.68489e-07
2.69023e-05
9.49827e-08
2.65715e-05
-4.82501e-08
3.25338e-07
2.61591e-05
2.51516e-05
-7.23983e-07
2.56429e-05
-2.02276e-06
2.61484e-05
-2.86294e-06
2.6563e-05
-3.11143e-06
2.68725e-05
-3.01927e-06
2.70569e-05
-2.73098e-06
2.71016e-05
-2.32528e-06
2.71131e-05
-1.85352e-06
2.70041e-05
-1.54184e-06
2.68765e-05
-1.21039e-06
2.67118e-05
-9.58888e-07
2.65223e-05
-8.10079e-07
2.62958e-05
-7.13223e-07
2.61241e-05
-5.3433e-07
2.58735e-05
-5.41779e-07
2.56815e-05
-4.55268e-07
2.54621e-05
-4.01615e-07
2.52582e-05
-3.63353e-07
2.50375e-05
-3.67408e-07
2.48757e-05
-2.62391e-07
2.46446e-05
-3.20715e-07
2.44932e-05
-2.42072e-07
2.42961e-05
-2.57131e-07
2.41296e-05
-2.15441e-07
2.39318e-05
-2.67241e-07
2.37938e-05
-1.71586e-07
2.35719e-05
-2.68807e-07
2.3442e-05
-1.76604e-07
2.32368e-05
-2.4436e-07
2.30994e-05
-1.69355e-07
2.2893e-05
-2.58124e-07
2.2768e-05
-1.49561e-07
2.25447e-05
-2.6678e-07
2.24204e-05
-1.43172e-07
2.21715e-05
-2.51626e-07
2.20906e-05
-1.12066e-07
2.19395e-05
-2.1746e-07
2.21061e-05
-7.15326e-08
2.22927e-05
-2.3493e-07
-1.47015e-07
2.27651e-05
2.521e-05
-9.34022e-07
2.55591e-05
-2.37179e-06
2.55687e-05
-2.87253e-06
2.52333e-05
-2.77606e-06
2.46352e-05
-2.42119e-06
2.38727e-05
-1.96842e-06
2.30584e-05
-1.51106e-06
2.22903e-05
-1.0854e-06
2.15368e-05
-7.88321e-07
2.08693e-05
-5.42925e-07
2.02735e-05
-3.63091e-07
1.97257e-05
-2.6227e-07
1.92231e-05
-2.10614e-07
1.88116e-05
-1.22819e-07
1.83986e-05
-1.28805e-07
1.80491e-05
-1.05776e-07
1.77291e-05
-8.1551e-08
1.74428e-05
-7.70694e-08
1.71655e-05
-9.01027e-08
1.69509e-05
-4.78443e-08
1.67093e-05
-7.90755e-08
1.65259e-05
-5.86859e-08
1.63296e-05
-6.0837e-08
1.61666e-05
-5.24038e-08
1.59794e-05
-8.01074e-08
1.58472e-05
-3.93781e-08
1.56602e-05
-8.1764e-08
1.55365e-05
-5.28994e-08
1.53647e-05
-7.25247e-08
1.52466e-05
-5.13237e-08
1.50706e-05
-8.21174e-08
1.49679e-05
-4.6843e-08
1.47839e-05
-8.27576e-08
1.469e-05
-4.93395e-08
1.45135e-05
-7.50679e-08
1.44428e-05
-4.13815e-08
1.42715e-05
-4.61993e-08
1.42517e-05
-5.17354e-08
1.41525e-05
-1.35681e-07
-2.99291e-07
1.43048e-05
2.4066e-05
2.16942e-05
1.88216e-05
1.60456e-05
1.36244e-05
1.1656e-05
1.01449e-05
9.05953e-06
8.27121e-06
7.72829e-06
7.3652e-06
7.10293e-06
6.89231e-06
6.7695e-06
6.64069e-06
6.53491e-06
6.45336e-06
6.37629e-06
6.28619e-06
6.23835e-06
6.15927e-06
6.10059e-06
6.03975e-06
5.98735e-06
5.90724e-06
5.86786e-06
5.7861e-06
5.7332e-06
5.66067e-06
5.60935e-06
5.52723e-06
5.48039e-06
5.39763e-06
5.34829e-06
5.27322e-06
5.23184e-06
5.18564e-06
5.13391e-06
4.99822e-06
4.69893e-06
5.70084e-06
-3.18721e-07
1.26078e-08
6.08059e-06
-4.22714e-07
4.29728e-08
6.39314e-06
-4.74783e-07
1.62228e-07
6.65567e-06
-4.86928e-07
2.24403e-07
6.89637e-06
-4.96179e-07
2.55472e-07
7.08195e-06
-4.66021e-07
2.80447e-07
7.22291e-06
-4.44488e-07
3.03526e-07
7.32423e-06
-4.44109e-07
3.42785e-07
7.39419e-06
-4.58317e-07
3.88362e-07
7.43561e-06
-4.81264e-07
4.39846e-07
7.44635e-06
-5.06481e-07
4.95734e-07
7.42747e-06
-5.27929e-07
5.46809e-07
7.3767e-06
-5.39321e-07
5.90094e-07
7.2893e-06
-5.42088e-07
6.29492e-07
7.17559e-06
-5.37045e-07
6.50753e-07
7.04414e-06
-5.18999e-07
6.50445e-07
6.90891e-06
-4.88036e-07
6.23264e-07
6.78874e-06
-4.51877e-07
5.72053e-07
6.69356e-06
-4.11361e-07
5.06542e-07
6.63969e-06
-3.64191e-07
4.18057e-07
6.63934e-06
-3.11083e-07
3.11432e-07
6.70795e-06
-2.50186e-07
1.81574e-07
6.8476e-06
-1.72738e-07
3.30923e-08
7.05499e-06
-7.93751e-08
-1.28012e-07
7.33502e-06
1.9871e-08
-2.999e-07
7.69289e-06
1.17915e-07
-4.75791e-07
8.12143e-06
2.22565e-07
-6.51103e-07
8.60901e-06
3.26578e-07
-8.14162e-07
9.14814e-06
4.30227e-07
-9.69349e-07
9.72705e-06
5.29881e-07
-1.1088e-06
1.0336e-05
6.28423e-07
-1.23736e-06
1.09664e-05
7.27917e-07
-1.35832e-06
1.16101e-05
8.25644e-07
-1.46932e-06
1.22567e-05
9.14983e-07
-1.56159e-06
1.29059e-05
9.91919e-07
-1.64116e-06
1.3557e-05
1.0579e-06
-1.70899e-06
1.42049e-05
1.11635e-06
-1.76425e-06
1.48507e-05
1.16399e-06
-1.80976e-06
1.54948e-05
1.20243e-06
-1.84652e-06
1.61339e-05
1.23846e-06
-1.87756e-06
1.67746e-05
1.2604e-06
-1.90111e-06
1.74282e-05
1.2581e-06
-1.91175e-06
1.80927e-05
1.2466e-06
-1.91109e-06
1.87678e-05
1.22364e-06
-1.89873e-06
1.94595e-05
1.17078e-06
-1.86248e-06
2.01651e-05
1.08993e-06
-1.79553e-06
2.08852e-05
9.8313e-07
-1.70322e-06
2.16194e-05
8.40303e-07
-1.57452e-06
2.23468e-05
6.7497e-07
-1.40241e-06
2.30545e-05
4.83782e-07
-1.19144e-06
2.37456e-05
2.3831e-07
-9.29366e-07
2.44078e-05
-3.89316e-08
-6.23269e-07
2.5036e-05
-3.33502e-07
-2.94765e-07
2.56206e-05
-6.87235e-07
1.02693e-07
2.61477e-05
-1.06042e-06
5.33295e-07
2.66018e-05
-1.44611e-06
9.9205e-07
2.69812e-05
-1.84925e-06
1.46983e-06
2.72948e-05
-2.26539e-06
1.95181e-06
2.75469e-05
-2.69199e-06
2.43986e-06
2.77563e-05
-3.12075e-06
2.91138e-06
2.79383e-05
-3.54369e-06
3.36169e-06
2.81068e-05
-3.96646e-06
3.79788e-06
2.82884e-05
-4.38625e-06
4.20468e-06
2.85024e-05
-4.80252e-06
4.58852e-06
2.87683e-05
-5.21741e-06
4.95156e-06
2.91067e-05
-5.62962e-06
5.29121e-06
2.9528e-05
-6.03969e-06
5.61832e-06
3.00219e-05
-6.42644e-06
5.93255e-06
3.05859e-05
-6.80032e-06
6.23639e-06
3.12069e-05
-7.14944e-06
6.52837e-06
3.18415e-05
-7.45229e-06
6.81768e-06
3.24799e-05
-7.73514e-06
7.09677e-06
3.30948e-05
-7.96703e-06
7.35211e-06
3.36502e-05
-8.14528e-06
7.5899e-06
3.41394e-05
-8.27874e-06
7.78959e-06
3.45364e-05
-8.35464e-06
7.95764e-06
3.48362e-05
-8.3751e-06
8.07528e-06
3.5035e-05
-8.33639e-06
8.13754e-06
3.51309e-05
-8.26315e-06
8.16727e-06
3.51397e-05
-8.13472e-06
8.12596e-06
3.50637e-05
-7.96823e-06
8.04425e-06
3.49232e-05
-7.79205e-06
7.9325e-06
3.47302e-05
-7.56268e-06
7.75566e-06
3.4487e-05
-7.32041e-06
7.56362e-06
3.42234e-05
-7.07909e-06
7.3427e-06
3.394e-05
-6.79272e-06
7.0761e-06
3.36435e-05
-6.51747e-06
6.81401e-06
3.33496e-05
-6.23014e-06
6.52402e-06
3.30469e-05
-5.91526e-06
6.21801e-06
3.27608e-05
-5.62954e-06
5.9156e-06
3.24668e-05
-5.30822e-06
5.60225e-06
3.21494e-05
-4.9865e-06
5.3039e-06
3.1849e-05
-4.68393e-06
4.98431e-06
3.15015e-05
-4.34194e-06
4.6894e-06
3.11255e-05
-4.0344e-06
4.41044e-06
3.07673e-05
-3.72773e-06
4.0859e-06
3.03353e-05
-3.40159e-06
3.8336e-06
2.98698e-05
-3.11838e-06
3.58385e-06
2.94252e-05
-2.83679e-06
3.28139e-06
2.89053e-05
-2.56068e-06
3.08057e-06
2.83353e-05
-2.30976e-06
2.87982e-06
2.78045e-05
-2.08493e-06
2.61571e-06
2.72455e-05
-1.89243e-06
2.4514e-06
2.65745e-05
-1.67253e-06
2.34357e-06
2.58604e-05
-1.47129e-06
2.18543e-06
2.5184e-05
-1.35965e-06
2.03603e-06
2.44774e-05
-1.23008e-06
1.93664e-06
2.369e-05
-1.06832e-06
1.85576e-06
2.29111e-05
-9.81629e-07
1.76056e-06
2.21524e-05
-9.12237e-07
1.67088e-06
2.13267e-05
-7.91375e-07
1.61712e-06
2.04645e-05
-6.85932e-07
1.54811e-06
1.96378e-05
-6.19432e-07
1.44608e-06
1.88274e-05
-5.39796e-07
1.35024e-06
1.8036e-05
-4.06337e-07
1.19772e-06
1.73155e-05
-2.37357e-07
9.57893e-07
1.66801e-05
-1.31641e-07
7.67003e-07
1.61119e-05
-1.08516e-07
6.76761e-07
1.55624e-05
2.07675e-08
5.2868e-07
1.50258e-05
3.1486e-07
2.21738e-07
1.45163e-05
6.09389e-07
-9.98836e-08
1.41384e-05
6.92661e-07
-3.14776e-07
1.39287e-05
6.047e-07
-3.94973e-07
1.38586e-05
5.01734e-07
-4.31613e-07
1.3885e-05
4.62831e-07
-4.89278e-07
1.39873e-05
4.42155e-07
-5.44433e-07
1.4132e-05
3.892e-07
-5.33874e-07
1.42415e-05
3.21519e-07
-4.3106e-07
1.42695e-05
2.51809e-07
-2.79749e-07
1.42785e-05
1.62854e-07
-1.71938e-07
1.43733e-05
5.91806e-08
-1.539e-07
1.45661e-05
-1.50462e-08
-1.77755e-07
1.4769e-05
-5.78108e-08
-1.4516e-07
1.49051e-05
-1.5035e-07
1.42584e-08
1.49841e-05
-3.15024e-07
2.36029e-07
1.50277e-05
-4.55898e-07
4.1228e-07
1.50072e-05
-4.63824e-07
4.84413e-07
1.4896e-05
-3.51069e-07
4.62239e-07
1.47404e-05
-2.23379e-07
3.78949e-07
1.4617e-05
-1.4503e-07
2.6845e-07
1.4521e-05
-1.01928e-07
1.97919e-07
1.43611e-05
-7.24947e-08
2.32386e-07
1.40689e-05
-6.97421e-08
3.62e-07
1.36912e-05
-1.08917e-07
4.86591e-07
1.33502e-05
-1.47705e-07
4.88718e-07
1.3132e-05
-1.20198e-07
3.38396e-07
1.30141e-05
3.83592e-09
1.14063e-07
1.29212e-05
1.79385e-07
-8.65379e-08
1.28039e-05
3.15914e-07
-1.98548e-07
1.26756e-05
3.42997e-07
-2.14752e-07
1.2579e-05
2.59095e-07
-1.62521e-07
1.25589e-05
1.17615e-07
-9.74342e-08
1.26369e-05
-1.01061e-08
-6.79832e-08
1.28012e-05
-7.25987e-08
-9.16699e-08
1.30101e-05
-6.10473e-08
-1.47874e-07
1.32128e-05
-9.24236e-09
-1.93464e-07
1.3387e-05
1.93682e-08
-1.93547e-07
1.35452e-05
-1.22725e-08
-1.45883e-07
1.37258e-05
-1.03709e-07
-7.68655e-08
1.39645e-05
-2.09242e-07
-2.94616e-08
1.42685e-05
-2.67635e-07
-3.6364e-08
1.45968e-05
-2.37451e-07
-9.08798e-08
1.48664e-05
-1.22496e-07
-1.47113e-07
1.49859e-05
2.74786e-08
-1.47006e-07
1.49108e-05
1.44167e-07
-6.90571e-08
1.46552e-05
1.9146e-07
6.41852e-08
1.43002e-05
1.84849e-07
1.70093e-07
1.39458e-05
1.6709e-07
1.87298e-07
1.36721e-05
1.68448e-07
1.05294e-07
1.35059e-05
1.88147e-07
-2.19689e-08
1.34533e-05
2.03649e-07
-1.51074e-07
1.34991e-05
1.85039e-07
-2.30842e-07
1.36202e-05
1.18866e-07
-2.39943e-07
1.37897e-05
1.78271e-08
-1.87281e-07
1.39744e-05
-8.7363e-08
-9.74013e-08
1.41329e-05
-1.67211e-07
8.73251e-09
1.42303e-05
-2.07476e-07
1.10119e-07
1.42418e-05
-2.12575e-07
2.01044e-07
1.41654e-05
-1.97993e-07
2.74432e-07
1.40222e-05
-1.76941e-07
3.20142e-07
1.38497e-05
-1.55043e-07
3.27525e-07
1.36892e-05
-1.30699e-07
2.91147e-07
1.3573e-05
-9.79343e-08
2.1417e-07
1.35159e-05
-5.06617e-08
1.07806e-07
1.35128e-05
1.46959e-08
-1.16294e-08
1.355e-05
9.16394e-08
-1.28809e-07
1.36062e-05
1.72525e-07
-2.28766e-07
1.36618e-05
2.46267e-07
-3.01903e-07
1.37025e-05
3.03298e-07
-3.4395e-07
1.37204e-05
3.37953e-07
-3.55837e-07
1.37138e-05
3.49103e-07
-3.42503e-07
1.36853e-05
3.39698e-07
-3.11223e-07
1.364e-05
3.15032e-07
-2.6976e-07
1.35838e-05
2.81331e-07
-2.25077e-07
1.35221e-05
2.43962e-07
-1.82256e-07
1.34595e-05
2.07188e-07
-1.44576e-07
1.33994e-05
1.73272e-07
-1.13247e-07
1.33443e-05
1.43636e-07
-8.85401e-08
1.32956e-05
1.18122e-07
-6.93631e-08
1.32538e-05
9.68191e-08
-5.5092e-08
1.32191e-05
7.86676e-08
-4.39456e-08
1.31913e-05
6.36452e-08
-3.58393e-08
1.31693e-05
5.07145e-08
-2.87127e-08
1.31532e-05
3.99379e-08
-2.38013e-08
1.31408e-05
3.06757e-08
-1.8258e-08
1.31334e-05
2.26922e-08
-1.53163e-08
1.31271e-05
1.62769e-08
-1.00174e-08
1.3126e-05
1.01211e-08
-8.99595e-09
1.31225e-05
6.31215e-09
-2.76893e-09
1.31263e-05
7.18872e-10
-4.51778e-09
1.31243e-05
-9.32611e-10
2.8592e-09
1.31328e-05
-6.65795e-09
-1.86384e-09
1.31293e-05
-5.29284e-09
8.86696e-09
1.31419e-05
-1.10173e-08
-1.60201e-09
1.31345e-05
-8.05167e-09
1.54134e-08
1.3151e-05
-1.30321e-08
-3.42947e-09
1.31398e-05
-1.09685e-08
2.21545e-08
1.31588e-05
-1.19095e-08
-7.0492e-09
1.31465e-05
-1.59742e-08
2.82776e-08
1.31633e-05
-6.22127e-09
-1.06092e-08
1.31567e-05
-2.50396e-08
3.16166e-08
1.31625e-05
5.14882e-09
-1.09011e-08
1.31738e-05
-3.94841e-08
2.82026e-08
1.31538e-05
2.29104e-08
-2.94154e-09
1.31991e-05
-5.81848e-08
1.28614e-08
1.31365e-05
4.3205e-08
1.93829e-08
1.32309e-05
-7.5523e-08
-1.88355e-08
1.31151e-05
5.8992e-08
5.67802e-08
1.32607e-05
-8.11202e-08
-6.45139e-08
1.30961e-05
5.92715e-08
1.05324e-07
1.32755e-05
-6.45814e-08
-1.14737e-07
1.30917e-05
3.50469e-08
1.48728e-07
1.32629e-05
-2.17699e-08
-1.49483e-07
1.31121e-05
-1.25584e-08
1.63366e-07
1.32251e-05
3.36692e-08
-1.46614e-07
1.31574e-05
-6.34222e-08
1.31132e-07
1.31759e-05
7.95482e-08
-9.80718e-08
1.32068e-05
-8.91977e-08
5.83074e-08
1.31429e-05
8.72388e-08
-2.33345e-08
1.32286e-05
-6.81919e-08
-1.75642e-08
1.3147e-05
4.99882e-08
3.16077e-08
1.32123e-05
-1.33388e-08
-5.18832e-08
1.31819e-05
-1.47021e-09
3.18306e-08
1.31723e-05
3.08555e-08
-2.12223e-08
1.32139e-05
-1.4442e-08
-2.72116e-08
1.31567e-05
1.73775e-08
3.98662e-08
1.32069e-05
3.57787e-08
-8.60369e-08
1.3188e-05
-4.93999e-08
6.83758e-08
1.31598e-05
1.05089e-07
-7.69315e-08
1.32457e-05
-9.74771e-08
1.15882e-08
1.31137e-05
1.28453e-07
3.57239e-09
1.32759e-05
-8.25125e-08
-7.97046e-08
1.31141e-05
9.21605e-08
6.96021e-08
1.32524e-05
-3.47867e-08
-1.03457e-07
1.3149e-05
6.68413e-08
3.65024e-08
1.3223e-05
-4.12399e-08
-3.26989e-08
1.31579e-05
1.20336e-07
-5.52585e-08
1.32468e-05
-1.19817e-07
3.091e-08
1.31154e-05
2.03467e-07
-7.20566e-08
1.33056e-05
-1.61769e-07
-2.84431e-08
1.30752e-05
1.86268e-07
4.41584e-08
1.33165e-05
-6.93981e-08
-1.71966e-07
1.31037e-05
5.87533e-08
1.54036e-07
1.32582e-05
5.96776e-08
-2.14099e-07
1.31669e-05
-1.36915e-09
9.25866e-08
1.3215e-05
3.36543e-08
-8.16702e-08
1.31659e-05
1.23515e-07
-7.4506e-08
1.32601e-05
-1.4035e-07
4.62403e-08
1.31038e-05
2.84115e-07
-1.27813e-07
1.33304e-05
-2.15202e-07
-1.14377e-08
1.30747e-05
2.54845e-07
8.19371e-10
1.33264e-05
-8.22212e-08
-1.69474e-07
1.3116e-05
9.80609e-08
1.12343e-07
1.32744e-05
4.65118e-08
-2.04898e-07
1.31496e-05
6.90941e-08
5.57602e-08
1.32748e-05
-6.50937e-09
-1.18735e-07
1.3124e-05
1.77583e-07
-2.67477e-08
1.33107e-05
-9.25973e-08
-9.41529e-08