/*--------------------------------*- C++ -*----------------------------------*\
| =========                 |                                                 |
| \\      /  F ield         | OpenFOAM: The Open Source CFD Toolbox           |
|  \\    /   O peration     | Version:  2.4.0                                 |
|   \\  /    A nd           | Web:      www.OpenFOAM.org                      |
|    \\/     M anipulation  |                                                 |
\*---------------------------------------------------------------------------*/
FoamFile
{
    version     2.0;
    format      ascii;
    class       volVectorField;
    location    "0.004";
    object      UMean;
}
// * * * * * * * * * * * * * * * * * * * * * * * * * * * * * * * * * * * * * //

dimensions      [0 1 -1 0 0 0 0];

internalField   nonuniform List<vector> 
17600
(
(9.82321 -0.583651 0)
(9.65323 -0.319131 0)
(9.42036 -0.183207 0)
(9.18618 -0.105626 0)
(8.967 -0.0598627 0)
(8.76088 -0.0326657 0)
(8.5684 -0.0164699 0)
(8.39085 -0.00692849 0)
(8.22826 -0.0014222 0)
(8.07984 0.00165976 0)
(7.94494 0.00323175 0)
(7.82194 0.00390453 0)
(7.71105 0.00410413 0)
(7.61148 0.00399565 0)
(7.52096 0.00372699 0)
(7.43885 0.00345787 0)
(7.36288 0.0033225 0)
(7.2912 0.00336296 0)
(7.20993 0.0046492 0)
(7.13102 -0.00103671 0)
(9.99423 0.199179 0)
(9.98448 0.173873 0)
(9.94543 0.130905 0)
(9.89336 0.099807 0)
(9.83651 0.0777348 0)
(9.7726 0.0617169 0)
(9.70247 0.0501961 0)
(9.62819 0.0418109 0)
(9.55123 0.0356091 0)
(9.47275 0.0309243 0)
(9.39403 0.0272011 0)
(9.31499 0.0241685 0)
(9.23735 0.0217211 0)
(9.16176 0.0196063 0)
(9.08715 0.0177692 0)
(9.01393 0.0163022 0)
(8.94083 0.0153741 0)
(8.86632 0.0151732 0)
(8.7787 0.0168581 0)
(8.6629 0.0491057 0)
(9.99647 0.0374151 0)
(10.0154 0.0209896 0)
(10.0226 0.0141489 0)
(10.0241 0.017614 0)
(10.0249 0.0219082 0)
(10.0217 0.0247232 0)
(10.0143 0.0264924 0)
(10.0033 0.0273993 0)
(9.98857 0.0276562 0)
(9.97035 0.0274219 0)
(9.94899 0.0267523 0)
(9.92371 0.0258376 0)
(9.89562 0.0248917 0)
(9.86493 0.0238514 0)
(9.83026 0.0228225 0)
(9.79182 0.0220692 0)
(9.74838 0.0219734 0)
(9.6987 0.02303 0)
(9.63215 0.0278707 0)
(9.54765 0.0552384 0)
(9.99773 0.0254506 0)
(10.0209 0.0297157 0)
(10.0365 0.0304478 0)
(10.0493 0.033857 0)
(10.063 0.0354375 0)
(10.0749 0.0351896 0)
(10.0846 0.0343262 0)
(10.0925 0.0332041 0)
(10.0984 0.0320268 0)
(10.1022 0.0308354 0)
(10.1042 0.0295806 0)
(10.1033 0.0283736 0)
(10.1007 0.027366 0)
(10.0964 0.0264395 0)
(10.0889 0.0256751 0)
(10.0783 0.0253561 0)
(10.0633 0.0259539 0)
(10.0431 0.0281979 0)
(10.0089 0.0348676 0)
(9.96986 0.061504 0)
(9.99743 0.0228142 0)
(10.0209 0.0294118 0)
(10.0382 0.0292005 0)
(10.0537 0.0312674 0)
(10.0708 0.0322072 0)
(10.0867 0.0319285 0)
(10.1014 0.0313196 0)
(10.115 0.0305841 0)
(10.1274 0.0298374 0)
(10.1384 0.0290547 0)
(10.1484 0.0281695 0)
(10.1562 0.0273028 0)
(10.163 0.026613 0)
(10.1689 0.0260031 0)
(10.1725 0.0255774 0)
(10.1739 0.0256653 0)
(10.1721 0.02682 0)
(10.1671 0.0299451 0)
(10.1518 0.0377077 0)
(10.1407 0.0631952 0)
(9.99669 0.0216951 0)
(10.0196 0.0278077 0)
(10.0372 0.0274039 0)
(10.0534 0.0291725 0)
(10.0711 0.0300662 0)
(10.088 0.0299066 0)
(10.1042 0.0294381 0)
(10.1196 0.0288522 0)
(10.1342 0.0282482 0)
(10.1479 0.0275951 0)
(10.1608 0.026837 0)
(10.1721 0.026102 0)
(10.1827 0.0255472 0)
(10.1927 0.0250961 0)
(10.2008 0.0248671 0)
(10.2074 0.0252156 0)
(10.2114 0.0267335 0)
(10.2134 0.0304144 0)
(10.2076 0.0386821 0)
(10.2101 0.0628159 0)
(9.99591 0.0196365 0)
(10.0181 0.0254084 0)
(10.0357 0.0253199 0)
(10.052 0.0270005 0)
(10.0696 0.0278665 0)
(10.0866 0.0277713 0)
(10.103 0.027386 0)
(10.119 0.0268983 0)
(10.1344 0.026392 0)
(10.1491 0.0258379 0)
(10.1633 0.0251865 0)
(10.176 0.0245632 0)
(10.1883 0.024123 0)
(10.2003 0.023806 0)
(10.2106 0.0237433 0)
(10.2195 0.024307 0)
(10.2265 0.0261056 0)
(10.2321 0.0301747 0)
(10.2315 0.038677 0)
(10.2408 0.0614165 0)
(9.99525 0.0175739 0)
(10.0166 0.0231984 0)
(10.0341 0.0234014 0)
(10.0504 0.024947 0)
(10.0677 0.0257398 0)
(10.0846 0.0256681 0)
(10.1011 0.0253337 0)
(10.1172 0.0249124 0)
(10.1329 0.0244754 0)
(10.148 0.0239962 0)
(10.1628 0.0234317 0)
(10.1762 0.0228995 0)
(10.1893 0.022551 0)
(10.2023 0.0223456 0)
(10.2136 0.0224232 0)
(10.2239 0.023167 0)
(10.2325 0.0251898 0)
(10.2402 0.0295437 0)
(10.2427 0.0381525 0)
(10.2556 0.0595102 0)
(9.99469 0.0156944 0)
(10.0153 0.0211229 0)
(10.0325 0.021506 0)
(10.0488 0.022899 0)
(10.0659 0.0236173 0)
(10.0827 0.0235645 0)
(10.0991 0.0232731 0)
(10.1152 0.0229061 0)
(10.1311 0.0225258 0)
(10.1464 0.0221097 0)
(10.1615 0.0216206 0)
(10.1753 0.0211679 0)
(10.1888 0.0208992 0)
(10.2023 0.0207913 0)
(10.2143 0.0209926 0)
(10.2254 0.0218927 0)
(10.235 0.0241021 0)
(10.2439 0.0286762 0)
(10.2484 0.0373205 0)
(10.2632 0.0573432 0)
(9.99422 0.0139702 0)
(10.014 0.0191156 0)
(10.031 0.0196095 0)
(10.0473 0.0208595 0)
(10.0643 0.0215097 0)
(10.0809 0.0214729 0)
(10.0972 0.021218 0)
(10.1134 0.0208967 0)
(10.1293 0.0205651 0)
(10.1448 0.0202038 0)
(10.16 0.0197826 0)
(10.174 0.0194024 0)
(10.1878 0.0192039 0)
(10.2017 0.019184 0)
(10.214 0.0194972 0)
(10.2256 0.0205365 0)
(10.2358 0.0229049 0)
(10.2456 0.0276526 0)
(10.2514 0.0362819 0)
(10.2673 0.0550439 0)
(9.99382 0.0123621 0)
(10.0129 0.0171565 0)
(10.0297 0.0177171 0)
(10.0459 0.0188341 0)
(10.0628 0.0194182 0)
(10.0793 0.0193926 0)
(10.0956 0.0191687 0)
(10.1117 0.0188881 0)
(10.1277 0.0185998 0)
(10.1432 0.0182881 0)
(10.1586 0.0179292 0)
(10.1727 0.0176162 0)
(10.1867 0.0174844 0)
(10.2007 0.0175453 0)
(10.2133 0.0179613 0)
(10.2252 0.0191254 0)
(10.2359 0.0216307 0)
(10.2462 0.0265156 0)
(10.2531 0.0350893 0)
(10.2697 0.0526805 0)
(9.99348 0.0108496 0)
(10.012 0.0152429 0)
(10.0286 0.015834 0)
(10.0447 0.0168235 0)
(10.0615 0.0173409 0)
(10.0779 0.0173216 0)
(10.0941 0.0171246 0)
(10.1102 0.0168809 0)
(10.1262 0.016633 0)
(10.1418 0.0163677 0)
(10.1572 0.0160677 0)
(10.1714 0.015819 0)
(10.1855 0.0157492 0)
(10.1996 0.0158856 0)
(10.2124 0.0163971 0)
(10.2245 0.0176743 0)
(10.2355 0.0202985 0)
(10.2463 0.025291 0)
(10.254 0.0337769 0)
(10.2712 0.0502864 0)
(9.9932 0.00941751 0)
(10.0112 0.0133713 0)
(10.0276 0.0139613 0)
(10.0437 0.0148263 0)
(10.0603 0.0152757 0)
(10.0766 0.0152586 0)
(10.0928 0.0150855 0)
(10.1089 0.014876 0)
(10.1249 0.0146659 0)
(10.1405 0.0144449 0)
(10.1559 0.0142009 0)
(10.1702 0.0140137 0)
(10.1843 0.0140046 0)
(10.1985 0.0142123 0)
(10.2114 0.0148125 0)
(10.2237 0.016192 0)
(10.235 0.0189195 0)
(10.2462 0.0239952 0)
(10.2546 0.0323668 0)
(10.2722 0.0478778 0)
(9.99297 0.00805214 0)
(10.0105 0.0115365 0)
(10.0268 0.0120982 0)
(10.0428 0.0128408 0)
(10.0594 0.0132213 0)
(10.0756 0.0132031 0)
(10.0917 0.0130514 0)
(10.1078 0.0128737 0)
(10.1237 0.0126995 0)
(10.1393 0.0125211 0)
(10.1548 0.0123315 0)
(10.1691 0.0122043 0)
(10.1832 0.012253 0)
(10.1975 0.0125282 0)
(10.2105 0.0132113 0)
(10.223 0.0146836 0)
(10.2345 0.0175007 0)
(10.2461 0.0226384 0)
(10.255 0.0308751 0)
(10.273 0.0454625 0)
(9.99279 0.00674088 0)
(10.01 0.00973233 0)
(10.0261 0.010244 0)
(10.0421 0.0108658 0)
(10.0586 0.0111766 0)
(10.0747 0.0111549 0)
(10.0908 0.0110226 0)
(10.1068 0.0108746 0)
(10.1228 0.0107342 0)
(10.1384 0.0105968 0)
(10.1538 0.0104602 0)
(10.1681 0.0103905 0)
(10.1823 0.0104974 0)
(10.1966 0.0108364 0)
(10.2097 0.0115963 0)
(10.2223 0.0131527 0)
(10.2341 0.0160461 0)
(10.246 0.0212266 0)
(10.2555 0.0293125 0)
(10.2738 0.0430472 0)
(9.99264 0.00547246 0)
(10.0096 0.00795297 0)
(10.0256 0.00839725 0)
(10.0416 0.00889963 0)
(10.0579 0.00914075 0)
(10.074 0.00911355 0)
(10.09 0.00899907 0)
(10.1061 0.00887883 0)
(10.122 0.00877063 0)
(10.1375 0.00867303 0)
(10.153 0.00858826 0)
(10.1673 0.00857477 0)
(10.1815 0.00873719 0)
(10.1959 0.00913742 0)
(10.209 0.00996875 0)
(10.2218 0.0116014 0)
(10.2338 0.0145585 0)
(10.2459 0.0197643 0)
(10.256 0.0276883 0)
(10.2745 0.0406368 0)
(9.99254 0.00423634 0)
(10.0093 0.00619262 0)
(10.0252 0.00655692 0)
(10.0412 0.00694109 0)
(10.0575 0.00711275 0)
(10.0735 0.00707871 0)
(10.0894 0.00698071 0)
(10.1054 0.00688638 0)
(10.1213 0.00680852 0)
(10.1369 0.0067497 0)
(10.1524 0.00671582 0)
(10.1667 0.00675593 0)
(10.1809 0.00697336 0)
(10.1953 0.00743269 0)
(10.2085 0.00833035 0)
(10.2214 0.0100311 0)
(10.2336 0.0130395 0)
(10.246 0.0182545 0)
(10.2565 0.0260087 0)
(10.2752 0.038236 0)
(9.99247 0.00302275 0)
(10.0091 0.00444573 0)
(10.025 0.00472171 0)
(10.0409 0.0049887 0)
(10.0571 0.00509147 0)
(10.0731 0.00504959 0)
(10.089 0.00496697 0)
(10.105 0.00489688 0)
(10.1208 0.00484783 0)
(10.1364 0.00482719 0)
(10.1519 0.00484304 0)
(10.1662 0.00493531 0)
(10.1805 0.00520484 0)
(10.1949 0.00572197 0)
(10.2082 0.00668147 0)
(10.2211 0.00844214 0)
(10.2335 0.0114908 0)
(10.2463 0.016701 0)
(10.2572 0.0242802 0)
(10.2761 0.0358478 0)
(9.99243 0.00182277 0)
(10.009 0.00270752 0)
(10.0249 0.00289095 0)
(10.0408 0.00304124 0)
(10.0569 0.00307526 0)
(10.0728 0.00302521 0)
(10.0887 0.00295703 0)
(10.1047 0.00290995 0)
(10.1205 0.00288809 0)
(10.1361 0.00290501 0)
(10.1516 0.0029699 0)
(10.1659 0.00311044 0)
(10.1802 0.00343375 0)
(10.1947 0.00400559 0)
(10.208 0.00502281 0)
(10.221 0.00683508 0)
(10.2336 0.00991357 0)
(10.2466 0.015106 0)
(10.258 0.0225065 0)
(10.277 0.0334753 0)
(9.99242 0.000628565 0)
(10.009 0.000972568 0)
(10.0249 0.00106347 0)
(10.0408 0.00109673 0)
(10.0569 0.00106233 0)
(10.0727 0.00100438 0)
(10.0886 0.00095035 0)
(10.1045 0.000924846 0)
(10.1204 0.000929274 0)
(10.1359 0.000983255 0)
(10.1514 0.00109566 0)
(10.1658 0.00128409 0)
(10.1801 0.00165809 0)
(10.1946 0.0022829 0)
(10.208 0.00335434 0)
(10.2211 0.00521107 0)
(10.2339 0.00830931 0)
(10.2472 0.013472 0)
(10.259 0.0206924 0)
(10.278 0.0311203 0)
(9.99242 -0.000564973 0)
(10.009 -0.00076492 0)
(10.0249 -0.000765147 0)
(10.0408 -0.000848152 0)
(10.057 -0.000951198 0)
(10.0728 -0.00101584 0)
(10.0887 -0.00105491 0)
(10.1046 -0.00105908 0)
(10.1204 -0.0010292 0)
(10.136 -0.000939232 0)
(10.1515 -0.000779809 0)
(10.1659 -0.000545298 0)
(10.1802 -0.000120692 0)
(10.1947 0.000553617 0)
(10.2082 0.0016765 0)
(10.2214 0.0035713 0)
(10.2343 0.00667876 0)
(10.2478 0.0117998 0)
(10.26 0.0188409 0)
(10.2791 0.0287852 0)
(9.99244 -0.00175958 0)
(10.009 -0.00250734 0)
(10.025 -0.00259929 0)
(10.0409 -0.00279653 0)
(10.0571 -0.00296816 0)
(10.0731 -0.00303826 0)
(10.0889 -0.00306017 0)
(10.1048 -0.00304111 0)
(10.1207 -0.00298533 0)
(10.1362 -0.00286069 0)
(10.1517 -0.00265533 0)
(10.1661 -0.00237427 0)
(10.1804 -0.00190319 0)
(10.195 -0.00118165 0)
(10.2085 -1.01937e-05 0)
(10.2218 0.00191645 0)
(10.2349 0.00502303 0)
(10.2487 0.0100914 0)
(10.2612 0.0169557 0)
(10.2803 0.0264708 0)
(9.99249 -0.00296025 0)
(10.0091 -0.00425595 0)
(10.0251 -0.00444132 0)
(10.0411 -0.00475183 0)
(10.0574 -0.0049919 0)
(10.0734 -0.00506626 0)
(10.0893 -0.00506968 0)
(10.1052 -0.00502424 0)
(10.1211 -0.00494109 0)
(10.1366 -0.00478165 0)
(10.1521 -0.00453013 0)
(10.1665 -0.00420598 0)
(10.1809 -0.00368648 0)
(10.1954 -0.00292229 0)
(10.209 -0.00170551 0)
(10.2224 0.000247093 0)
(10.2356 0.00334318 0)
(10.2497 0.00834805 0)
(10.2626 0.0150385 0)
(10.2816 0.0241786 0)
(9.99256 -0.0041752 0)
(10.0093 -0.00601358 0)
(10.0254 -0.00629044 0)
(10.0414 -0.00671546 0)
(10.0578 -0.00702339 0)
(10.0739 -0.00710059 0)
(10.0899 -0.00708416 0)
(10.1058 -0.00701081 0)
(10.1216 -0.00689854 0)
(10.1372 -0.00670298 0)
(10.1527 -0.00640572 0)
(10.1671 -0.00603813 0)
(10.1815 -0.0054737 0)
(10.1961 -0.00466761 0)
(10.2097 -0.00340969 0)
(10.2232 -0.00143629 0)
(10.2365 0.00164058 0)
(10.2508 0.00657144 0)
(10.2641 0.0130935 0)
(10.2831 0.0219076 0)
(9.99267 -0.00541358 0)
(10.0096 -0.00778461 0)
(10.0257 -0.0081459 0)
(10.0419 -0.00868751 0)
(10.0583 -0.00906363 0)
(10.0745 -0.00914191 0)
(10.0905 -0.00910401 0)
(10.1065 -0.00900103 0)
(10.1224 -0.00885882 0)
(10.1379 -0.008626 0)
(10.1534 -0.00828158 0)
(10.1678 -0.00787283 0)
(10.1822 -0.00726374 0)
(10.1969 -0.00641825 0)
(10.2105 -0.00512298 0)
(10.2241 -0.00313301 0)
(10.2376 -8.434e-05 0)
(10.252 0.00476236 0)
(10.2657 0.0111241 0)
(10.2846 0.0196588 0)
(9.99282 -0.00668533 0)
(10.01 -0.00957474 0)
(10.0263 -0.0100082 0)
(10.0424 -0.0106688 0)
(10.059 -0.0111131 0)
(10.0752 -0.0111907 0)
(10.0913 -0.0111296 0)
(10.1073 -0.010995 0)
(10.1232 -0.0108213 0)
(10.1388 -0.0105509 0)
(10.1542 -0.0101589 0)
(10.1687 -0.00970775 0)
(10.1831 -0.00905863 0)
(10.1978 -0.00817454 0)
(10.2115 -0.00684535 0)
(10.2251 -0.00484253 0)
(10.2387 -0.00183104 0)
(10.2534 0.00292163 0)
(10.2674 0.0091304 0)
(10.2863 0.0174299 0)
(9.99301 -0.00800087 0)
(10.0106 -0.0113896 0)
(10.0269 -0.0118783 0)
(10.0431 -0.0126598 0)
(10.0598 -0.0131723 0)
(10.0761 -0.013247 0)
(10.0923 -0.0131609 0)
(10.1083 -0.0129925 0)
(10.1242 -0.0127856 0)
(10.1398 -0.0124765 0)
(10.1552 -0.0120362 0)
(10.1697 -0.0115449 0)
(10.1841 -0.010856 0)
(10.1988 -0.00993708 0)
(10.2126 -0.00857704 0)
(10.2263 -0.00656533 0)
(10.24 -0.0035993 0)
(10.2548 0.00105027 0)
(10.2692 0.00711015 0)
(10.2881 0.0152191 0)
(9.99324 -0.0093719 0)
(10.0112 -0.0132353 0)
(10.0278 -0.0137572 0)
(10.044 -0.0146619 0)
(10.0608 -0.0152416 0)
(10.0772 -0.0153105 0)
(10.0934 -0.0151971 0)
(10.1094 -0.0149928 0)
(10.1253 -0.014751 0)
(10.1409 -0.0144021 0)
(10.1564 -0.0139138 0)
(10.1708 -0.0133812 0)
(10.1852 -0.0126567 0)
(10.1999 -0.0117047 0)
(10.2137 -0.0103167 0)
(10.2275 -0.00830191 0)
(10.2414 -0.00538816 0)
(10.2564 -0.000848808 0)
(10.2711 0.005062 0)
(10.29 0.0130186 0)
(9.99353 -0.0108109 0)
(10.0121 -0.0151175 0)
(10.0288 -0.0156456 0)
(10.045 -0.0166761 0)
(10.0619 -0.0173213 0)
(10.0784 -0.0173807 0)
(10.0946 -0.0172372 0)
(10.1107 -0.0169947 0)
(10.1266 -0.0167162 0)
(10.1422 -0.0163261 0)
(10.1576 -0.0157888 0)
(10.172 -0.0152156 0)
(10.1864 -0.0144581 0)
(10.2011 -0.0134769 0)
(10.2149 -0.0120633 0)
(10.2287 -0.0100514 0)
(10.2427 -0.00719527 0)
(10.2578 -0.00277447 0)
(10.273 0.00298683 0)
(10.292 0.0108192 0)
(9.99386 -0.0123315 0)
(10.013 -0.0170417 0)
(10.0299 -0.0175441 0)
(10.0463 -0.0187036 0)
(10.0632 -0.019412 0)
(10.0798 -0.019457 0)
(10.0961 -0.0192797 0)
(10.1121 -0.0189966 0)
(10.128 -0.0186792 0)
(10.1435 -0.018247 0)
(10.1589 -0.0176596 0)
(10.1732 -0.0170438 0)
(10.1875 -0.0162582 0)
(10.2022 -0.0152497 0)
(10.2161 -0.0138137 0)
(10.2299 -0.0118107 0)
(10.2439 -0.00901672 0)
(10.2592 -0.00472529 0)
(10.2747 0.000876869 0)
(10.2939 0.00862379 0)
(9.99427 -0.0139481 0)
(10.0141 -0.0190114 0)
(10.0313 -0.0194513 0)
(10.0476 -0.0207456 0)
(10.0647 -0.0215153 0)
(10.0814 -0.02154 0)
(10.0977 -0.0213236 0)
(10.1137 -0.0209967 0)
(10.1295 -0.0206379 0)
(10.1449 -0.0201614 0)
(10.1601 -0.019522 0)
(10.1743 -0.0188634 0)
(10.1886 -0.0180494 0)
(10.2031 -0.0170162 0)
(10.2169 -0.0155616 0)
(10.2307 -0.0135733 0)
(10.2447 -0.0108473 0)
(10.26 -0.00669567 0)
(10.2759 -0.00126689 0)
(10.2953 0.0064408 0)
(9.99474 -0.0156815 0)
(10.0153 -0.0210296 0)
(10.0327 -0.0213612 0)
(10.0491 -0.0228001 0)
(10.0664 -0.0236318 0)
(10.0831 -0.02363 0)
(10.0994 -0.023368 0)
(10.1153 -0.0229927 0)
(10.131 -0.0225882 0)
(10.1462 -0.0220636 0)
(10.1612 -0.0213687 0)
(10.1752 -0.0206637 0)
(10.1892 -0.0198231 0)
(10.2036 -0.0187643 0)
(10.2171 -0.0172948 0)
(10.2307 -0.0153264 0)
(10.2446 -0.0126754 0)
(10.2599 -0.00867265 0)
(10.276 -0.00343909 0)
(10.2955 0.0042803 0)
(9.9953 -0.0175709 0)
(10.0167 -0.0231159 0)
(10.0343 -0.0232677 0)
(10.0507 -0.0248595 0)
(10.0681 -0.0257598 0)
(10.0849 -0.0257269 0)
(10.1012 -0.0254111 0)
(10.117 -0.0249786 0)
(10.1324 -0.0245216 0)
(10.1474 -0.0239421 0)
(10.162 -0.0231866 0)
(10.1756 -0.0224356 0)
(10.1892 -0.021555 0)
(10.2031 -0.0204707 0)
(10.2162 -0.0189895 0)
(10.2293 -0.017046 0)
(10.2428 -0.014476 0)
(10.2577 -0.0106317 0)
(10.2738 -0.00562098 0)
(10.2933 0.00215462 0)
(9.99597 -0.0196446 0)
(10.0182 -0.0253368 0)
(10.0359 -0.0251919 0)
(10.0523 -0.0269171 0)
(10.0699 -0.0278852 0)
(10.0867 -0.0278161 0)
(10.1028 -0.0274365 0)
(10.1184 -0.0269343 0)
(10.1334 -0.0264129 0)
(10.1478 -0.0257686 0)
(10.1619 -0.024944 0)
(10.1747 -0.0241384 0)
(10.1875 -0.0232137 0)
(10.2005 -0.022098 0)
(10.2126 -0.0206038 0)
(10.2248 -0.0186884 0)
(10.2374 -0.016206 0)
(10.2515 -0.0125381 0)
(10.2669 -0.00777383 0)
(10.286 7.85603e-05 0)
(9.99675 -0.021715 0)
(10.0197 -0.0277467 0)
(10.0374 -0.027274 0)
(10.0537 -0.0290808 0)
(10.0712 -0.0300728 0)
(10.0879 -0.0299303 0)
(10.1036 -0.0294533 0)
(10.1185 -0.0288486 0)
(10.1327 -0.0282346 0)
(10.1461 -0.0275036 0)
(10.1588 -0.0265949 0)
(10.1702 -0.0257182 0)
(10.1813 -0.0247337 0)
(10.1925 -0.0235751 0)
(10.2027 -0.0220624 0)
(10.2128 -0.0201768 0)
(10.2234 -0.0177895 0)
(10.2354 -0.0143241 0)
(10.2491 -0.00983281 0)
(10.2666 -0.00190778 0)
(9.99749 -0.0228457 0)
(10.021 -0.0293614 0)
(10.0384 -0.0290617 0)
(10.0539 -0.0311512 0)
(10.0707 -0.0321877 0)
(10.0864 -0.0319255 0)
(10.1007 -0.0312984 0)
(10.1138 -0.0305391 0)
(10.1257 -0.0297876 0)
(10.1365 -0.0289396 0)
(10.1462 -0.0279275 0)
(10.1542 -0.0269612 0)
(10.1616 -0.02591 0)
(10.1687 -0.0246979 0)
(10.1746 -0.0231586 0)
(10.1801 -0.0213023 0)
(10.186 -0.0190196 0)
(10.1932 -0.0157863 0)
(10.2023 -0.011589 0)
(10.2155 -0.00367258 0)
(9.99777 -0.0254912 0)
(10.0209 -0.0296764 0)
(10.0366 -0.0303037 0)
(10.0494 -0.0337071 0)
(10.063 -0.0353797 0)
(10.0747 -0.0351566 0)
(10.0841 -0.0342761 0)
(10.0916 -0.0331265 0)
(10.0971 -0.0319507 0)
(10.1007 -0.030707 0)
(10.1025 -0.0293507 0)
(10.1019 -0.0280908 0)
(10.1 -0.0267786 0)
(10.0971 -0.0253815 0)
(10.0924 -0.0237051 0)
(10.0867 -0.0217932 0)
(10.0808 -0.0195513 0)
(10.076 -0.0165246 0)
(10.0732 -0.012616 0)
(10.0754 -0.00497876 0)
(9.99648 -0.0374576 0)
(10.0154 -0.0209598 0)
(10.0226 -0.0140182 0)
(10.0244 -0.0174373 0)
(10.0252 -0.0218155 0)
(10.022 -0.024657 0)
(10.0145 -0.0264204 0)
(10.0033 -0.0272998 0)
(9.9884 -0.0275725 0)
(9.97011 -0.0273026 0)
(9.94876 -0.0265658 0)
(9.92395 -0.0256747 0)
(9.89672 -0.0244094 0)
(9.86778 -0.0230723 0)
(9.83648 -0.0213859 0)
(9.80401 -0.0194735 0)
(9.77159 -0.017299 0)
(9.74102 -0.0145314 0)
(9.71402 -0.0110475 0)
(9.6947 -0.00438371 0)
(9.99393 -0.199198 0)
(9.9844 -0.173859 0)
(9.94547 -0.130821 0)
(9.89373 -0.099658 0)
(9.83723 -0.0776481 0)
(9.77358 -0.0616442 0)
(9.70358 -0.0501251 0)
(9.62939 -0.0417153 0)
(9.55253 -0.0355375 0)
(9.47424 -0.0308357 0)
(9.39574 -0.0270891 0)
(9.31739 -0.0241426 0)
(9.24081 -0.0213877 0)
(9.16722 -0.0191584 0)
(9.0964 -0.0169649 0)
(9.02978 -0.0148364 0)
(8.96872 -0.0127177 0)
(8.91514 -0.0103605 0)
(8.87092 -0.00764305 0)
(8.84057 -0.00286404 0)
(9.82321 0.583643 0)
(9.65317 0.319142 0)
(9.42043 0.183251 0)
(9.18677 0.105713 0)
(8.96817 0.0599125 0)
(8.76256 0.032706 0)
(8.57042 0.0165101 0)
(8.39323 0.00698628 0)
(8.23107 0.00146728 0)
(8.08309 -0.00160928 0)
(7.94861 -0.00318403 0)
(7.82644 -0.00393935 0)
(7.71658 -0.00395957 0)
(7.61882 -0.00382502 0)
(7.53171 -0.0034464 0)
(7.45545 -0.00294832 0)
(7.39024 -0.00238814 0)
(7.33691 -0.00169401 0)
(7.29658 -0.000824751 0)
(7.27427 0.000932733 0)
(6.81851 -0.14237 0)
(6.5404 -0.150091 0)
(6.31277 -0.147754 0)
(6.11768 -0.137308 0)
(5.97793 -0.127553 0)
(5.89258 -0.121401 0)
(5.84943 -0.118529 0)
(5.83687 -0.119319 0)
(5.84498 -0.123969 0)
(5.86627 -0.132586 0)
(5.8956 -0.145225 0)
(5.92943 -0.161757 0)
(5.96536 -0.181843 0)
(6.00175 -0.205025 0)
(6.03749 -0.230761 0)
(6.07186 -0.258486 0)
(6.10439 -0.287648 0)
(6.13479 -0.317725 0)
(6.16293 -0.348244 0)
(6.18877 -0.378795 0)
(6.21235 -0.409032 0)
(6.23377 -0.438672 0)
(6.25315 -0.467495 0)
(6.27064 -0.495334 0)
(6.28638 -0.522073 0)
(6.30052 -0.547638 0)
(6.3132 -0.571991 0)
(6.32455 -0.595122 0)
(6.33468 -0.617042 0)
(6.34369 -0.637778 0)
(6.35166 -0.657368 0)
(6.35867 -0.675856 0)
(6.36477 -0.693291 0)
(6.37002 -0.709718 0)
(6.37446 -0.725187 0)
(6.37812 -0.73974 0)
(6.38103 -0.753419 0)
(6.38322 -0.76626 0)
(6.38472 -0.778298 0)
(6.38556 -0.789562 0)
(6.38575 -0.800081 0)
(6.38532 -0.809879 0)
(6.38429 -0.818979 0)
(6.3827 -0.8274 0)
(6.38055 -0.835164 0)
(6.37788 -0.84229 0)
(6.3747 -0.848795 0)
(6.37104 -0.854698 0)
(6.36691 -0.860019 0)
(6.36234 -0.864774 0)
(6.35733 -0.868983 0)
(6.3519 -0.872665 0)
(6.34606 -0.87584 0)
(6.33983 -0.878523 0)
(6.33322 -0.880734 0)
(6.32622 -0.882488 0)
(6.31885 -0.883802 0)
(6.31112 -0.88469 0)
(6.30305 -0.885168 0)
(6.29464 -0.885246 0)
(6.2859 -0.884936 0)
(6.27685 -0.884248 0)
(6.26751 -0.883189 0)
(6.25789 -0.881765 0)
(6.248 -0.879983 0)
(6.23787 -0.877844 0)
(6.2275 -0.875352 0)
(6.21693 -0.872509 0)
(6.20616 -0.869314 0)
(6.19522 -0.865767 0)
(6.18413 -0.861867 0)
(6.1729 -0.857613 0)
(6.16156 -0.853003 0)
(6.15012 -0.848036 0)
(6.13861 -0.842712 0)
(6.12703 -0.837028 0)
(6.11542 -0.830987 0)
(6.10379 -0.824589 0)
(6.09215 -0.817834 0)
(6.08052 -0.810725 0)
(6.06892 -0.803262 0)
(6.05735 -0.79545 0)
(6.04583 -0.787291 0)
(6.03437 -0.778789 0)
(6.02298 -0.769948 0)
(6.01166 -0.760774 0)
(6.00043 -0.751272 0)
(5.98929 -0.74145 0)
(5.97824 -0.731315 0)
(5.9673 -0.720874 0)
(5.95646 -0.710137 0)
(5.94573 -0.699114 0)
(5.93511 -0.687815 0)
(5.92461 -0.676251 0)
(5.91423 -0.664435 0)
(5.90396 -0.652378 0)
(5.89381 -0.640094 0)
(5.88378 -0.627595 0)
(5.87387 -0.614896 0)
(5.86407 -0.60201 0)
(5.85438 -0.588953 0)
(5.8448 -0.575739 0)
(5.83533 -0.562384 0)
(5.82596 -0.548903 0)
(5.8167 -0.535312 0)
(5.80754 -0.521627 0)
(5.79847 -0.507863 0)
(5.78949 -0.494037 0)
(5.78061 -0.480164 0)
(5.77181 -0.466259 0)
(5.7631 -0.452338 0)
(5.75447 -0.438415 0)
(5.74591 -0.424506 0)
(5.73743 -0.410625 0)
(5.72903 -0.396785 0)
(5.72068 -0.383001 0)
(5.71241 -0.369287 0)
(5.7042 -0.355653 0)
(5.69606 -0.342113 0)
(5.68797 -0.328676 0)
(5.67995 -0.315354 0)
(5.67198 -0.302156 0)
(5.66408 -0.289091 0)
(5.65622 -0.276166 0)
(5.64843 -0.263389 0)
(5.64069 -0.250765 0)
(5.63301 -0.238299 0)
(5.62538 -0.225992 0)
(5.6178 -0.213848 0)
(5.61028 -0.201866 0)
(5.60282 -0.190045 0)
(5.5954 -0.178382 0)
(5.58804 -0.166874 0)
(5.58072 -0.155514 0)
(5.57346 -0.144295 0)
(5.56624 -0.133209 0)
(5.55906 -0.122244 0)
(5.55193 -0.111387 0)
(5.54485 -0.100624 0)
(5.5378 -0.0899381 0)
(5.53079 -0.0793105 0)
(5.52381 -0.0687206 0)
(5.51686 -0.058146 0)
(5.50995 -0.0475609 0)
(5.50306 -0.0369382 0)
(5.49619 -0.0262468 0)
(5.48935 -0.015454 0)
(5.48253 -0.00452285 0)
(5.47572 0.00658555 0)
(5.46893 0.0179149 0)
(5.46215 0.0295117 0)
(5.45539 0.0414274 0)
(5.44863 0.0537169 0)
(5.44188 0.0664413 0)
(5.43514 0.0796656 0)
(5.42841 0.0934621 0)
(5.42169 0.107908 0)
(5.41498 0.123089 0)
(5.40828 0.139097 0)
(5.4016 0.156035 0)
(5.39495 0.174012 0)
(5.38831 0.193148 0)
(5.38171 0.213575 0)
(5.37515 0.235438 0)
(5.36864 0.258892 0)
(5.36219 0.284108 0)
(5.35581 0.31127 0)
(5.34952 0.340582 0)
(5.34332 0.372265 0)
(5.33725 0.406566 0)
(5.33131 0.443751 0)
(5.32552 0.484116 0)
(5.3199 0.527985 0)
(5.31448 0.575719 0)
(5.30926 0.627714 0)
(5.30426 0.684412 0)
(5.29949 0.746304 0)
(5.29495 0.81394 0)
(5.29063 0.887939 0)
(5.28651 0.969001 0)
(5.28255 1.05792 0)
(5.27869 1.15562 0)
(5.27483 1.26315 0)
(5.27085 1.38177 0)
(5.26655 1.51293 0)
(5.26169 1.65842 0)
(5.25593 1.82036 0)
(5.24881 2.00142 0)
(5.23971 2.20488 0)
(5.22779 2.43493 0)
(5.21189 2.69694 0)
(5.19037 2.9979 0)
(5.16108 3.34706 0)
(5.12027 3.75692 0)
(5.06459 4.2443 0)
(4.981 4.83339 0)
(4.87724 5.55297 0)
(4.66828 6.45656 0)
(4.63545 7.56814 0)
(3.90007 9.90211 0)
(8.57931 0.0348189 0)
(8.47976 0.0411467 0)
(8.35791 0.024781 0)
(8.20509 0.00712355 0)
(8.03938 -0.0104609 0)
(7.87404 -0.0294212 0)
(7.71719 -0.0487579 0)
(7.57554 -0.0683581 0)
(7.45286 -0.0884245 0)
(7.35015 -0.109237 0)
(7.26653 -0.131154 0)
(7.19986 -0.15445 0)
(7.14741 -0.179238 0)
(7.10637 -0.205521 0)
(7.07419 -0.233163 0)
(7.0487 -0.26194 0)
(7.02814 -0.29157 0)
(7.01114 -0.321732 0)
(6.99665 -0.352099 0)
(6.98389 -0.382359 0)
(6.97229 -0.412228 0)
(6.96143 -0.441466 0)
(6.95102 -0.469876 0)
(6.94085 -0.497308 0)
(6.93078 -0.523657 0)
(6.92073 -0.548853 0)
(6.91063 -0.57286 0)
(6.90046 -0.595669 0)
(6.8902 -0.61729 0)
(6.87984 -0.637747 0)
(6.86937 -0.657077 0)
(6.85878 -0.67532 0)
(6.84808 -0.692521 0)
(6.83724 -0.708727 0)
(6.82628 -0.723982 0)
(6.81517 -0.738329 0)
(6.80392 -0.751807 0)
(6.79252 -0.764455 0)
(6.78096 -0.776305 0)
(6.76925 -0.787389 0)
(6.75738 -0.797732 0)
(6.74536 -0.807362 0)
(6.73318 -0.816299 0)
(6.72087 -0.824566 0)
(6.70841 -0.832182 0)
(6.69583 -0.839165 0)
(6.68312 -0.845535 0)
(6.67029 -0.851309 0)
(6.65736 -0.856505 0)
(6.64432 -0.86114 0)
(6.63117 -0.865234 0)
(6.61793 -0.868803 0)
(6.60459 -0.871866 0)
(6.59114 -0.87444 0)
(6.57758 -0.876541 0)
(6.5639 -0.878187 0)
(6.55011 -0.879395 0)
(6.53621 -0.88018 0)
(6.52219 -0.880556 0)
(6.50804 -0.880536 0)
(6.49378 -0.880131 0)
(6.4794 -0.879351 0)
(6.46491 -0.878204 0)
(6.4503 -0.876698 0)
(6.43559 -0.874837 0)
(6.42078 -0.872626 0)
(6.40588 -0.870067 0)
(6.3909 -0.867163 0)
(6.37585 -0.863913 0)
(6.36075 -0.860319 0)
(6.34559 -0.856379 0)
(6.33041 -0.852092 0)
(6.3152 -0.847455 0)
(6.29999 -0.84247 0)
(6.2848 -0.837133 0)
(6.26962 -0.831445 0)
(6.25449 -0.825406 0)
(6.2394 -0.819016 0)
(6.22439 -0.812276 0)
(6.20945 -0.805187 0)
(6.1946 -0.79775 0)
(6.17986 -0.789967 0)
(6.16522 -0.781843 0)
(6.1507 -0.773379 0)
(6.13631 -0.76458 0)
(6.12206 -0.755451 0)
(6.10795 -0.745998 0)
(6.09398 -0.736227 0)
(6.08017 -0.726144 0)
(6.06651 -0.715758 0)
(6.05302 -0.705078 0)
(6.03968 -0.694113 0)
(6.02652 -0.682873 0)
(6.01352 -0.671369 0)
(6.0007 -0.659613 0)
(5.98804 -0.647617 0)
(5.97556 -0.635393 0)
(5.96324 -0.622955 0)
(5.9511 -0.610315 0)
(5.93912 -0.597488 0)
(5.9273 -0.584488 0)
(5.91565 -0.571331 0)
(5.90416 -0.558031 0)
(5.89283 -0.544605 0)
(5.88165 -0.531067 0)
(5.87062 -0.517434 0)
(5.85974 -0.503721 0)
(5.84901 -0.489944 0)
(5.83841 -0.476119 0)
(5.82796 -0.462261 0)
(5.81763 -0.448385 0)
(5.80744 -0.434507 0)
(5.79738 -0.42064 0)
(5.78744 -0.4068 0)
(5.77763 -0.393001 0)
(5.76793 -0.379256 0)
(5.75834 -0.365579 0)
(5.74887 -0.351982 0)
(5.73951 -0.338478 0)
(5.73026 -0.325077 0)
(5.72112 -0.311789 0)
(5.71208 -0.298626 0)
(5.70314 -0.285594 0)
(5.69431 -0.272703 0)
(5.68558 -0.259959 0)
(5.67694 -0.247368 0)
(5.66841 -0.234934 0)
(5.65998 -0.222659 0)
(5.65164 -0.210547 0)
(5.6434 -0.198596 0)
(5.63525 -0.186805 0)
(5.62719 -0.175172 0)
(5.61922 -0.163692 0)
(5.61135 -0.15236 0)
(5.60355 -0.14117 0)
(5.59584 -0.13011 0)
(5.58821 -0.119171 0)
(5.58067 -0.108339 0)
(5.57319 -0.0976004 0)
(5.56579 -0.086937 0)
(5.55846 -0.0763312 0)
(5.5512 -0.0657623 0)
(5.544 -0.0552073 0)
(5.53686 -0.0446409 0)
(5.52978 -0.0340353 0)
(5.52275 -0.0233604 0)
(5.51578 -0.0125828 0)
(5.50886 -0.00166606 0)
(5.50198 0.00942918 0)
(5.49515 0.0207458 0)
(5.48837 0.0323306 0)
(5.48163 0.0442346 0)
(5.47493 0.056513 0)
(5.46828 0.0692259 0)
(5.46167 0.0824387 0)
(5.45511 0.0962227 0)
(5.4486 0.110656 0)
(5.44214 0.125822 0)
(5.43574 0.141814 0)
(5.4294 0.158733 0)
(5.42314 0.176688 0)
(5.41696 0.1958 0)
(5.41087 0.216198 0)
(5.40488 0.238028 0)
(5.39901 0.261444 0)
(5.39328 0.286615 0)
(5.3877 0.313726 0)
(5.38229 0.342979 0)
(5.37708 0.374595 0)
(5.37209 0.408819 0)
(5.36735 0.445917 0)
(5.36289 0.486185 0)
(5.35874 0.529948 0)
(5.35493 0.577564 0)
(5.3515 0.629431 0)
(5.34847 0.685993 0)
(5.34588 0.747742 0)
(5.34375 0.815231 0)
(5.34211 0.889082 0)
(5.34096 0.97 0)
(5.34032 1.05879 0)
(5.34016 1.15638 0)
(5.34046 1.26383 0)
(5.34116 1.38241 0)
(5.34217 1.51362 0)
(5.34338 1.65923 0)
(5.3446 1.82144 0)
(5.34561 2.00292 0)
(5.34607 2.20704 0)
(5.34557 2.43806 0)
(5.34355 2.70148 0)
(5.33922 3.00444 0)
(5.33175 3.35643 0)
(5.3195 3.77026 0)
(5.30269 4.26336 0)
(5.27458 4.86 0)
(5.25553 5.59114 0)
(5.18968 6.49605 0)
(5.37831 7.61168 0)
(5.21455 9.37533 0)
(9.50106 0.0496612 0)
(9.45125 0.0476189 0)
(9.39513 0.038042 0)
(9.32294 0.0315145 0)
(9.23778 0.0256931 0)
(9.14167 0.016666 0)
(9.03549 0.0038546 0)
(8.92203 -0.012819 0)
(8.80482 -0.0331764 0)
(8.68735 -0.056751 0)
(8.57273 -0.0830357 0)
(8.46338 -0.111528 0)
(8.36094 -0.141728 0)
(8.26632 -0.173199 0)
(8.17978 -0.205533 0)
(8.10111 -0.238364 0)
(8.02974 -0.271366 0)
(7.96491 -0.304244 0)
(7.90579 -0.336741 0)
(7.85152 -0.368633 0)
(7.80135 -0.399735 0)
(7.75458 -0.429896 0)
(7.71068 -0.459002 0)
(7.66918 -0.486966 0)
(7.62971 -0.513731 0)
(7.59201 -0.539265 0)
(7.55584 -0.563554 0)
(7.52101 -0.586606 0)
(7.48739 -0.608439 0)
(7.45485 -0.629084 0)
(7.42328 -0.648579 0)
(7.3926 -0.66697 0)
(7.36272 -0.684301 0)
(7.33358 -0.700621 0)
(7.30511 -0.715977 0)
(7.27726 -0.730411 0)
(7.24998 -0.743967 0)
(7.22323 -0.756682 0)
(7.19696 -0.768591 0)
(7.17115 -0.779727 0)
(7.14575 -0.790118 0)
(7.12075 -0.799791 0)
(7.09613 -0.808769 0)
(7.07187 -0.817074 0)
(7.04794 -0.824728 0)
(7.02435 -0.831748 0)
(7.00108 -0.838154 0)
(6.97812 -0.843963 0)
(6.95546 -0.849194 0)
(6.93309 -0.853863 0)
(6.911 -0.857989 0)
(6.88918 -0.861587 0)
(6.86761 -0.864674 0)
(6.84626 -0.867267 0)
(6.82514 -0.869385 0)
(6.80421 -0.871044 0)
(6.78347 -0.87226 0)
(6.7629 -0.87305 0)
(6.74247 -0.873427 0)
(6.72218 -0.873405 0)
(6.70201 -0.872996 0)
(6.68195 -0.87221 0)
(6.66199 -0.871056 0)
(6.64211 -0.869542 0)
(6.62232 -0.867674 0)
(6.6026 -0.865456 0)
(6.58296 -0.862893 0)
(6.56338 -0.859986 0)
(6.54389 -0.856737 0)
(6.52447 -0.853147 0)
(6.50513 -0.849214 0)
(6.48588 -0.844938 0)
(6.46672 -0.840319 0)
(6.44766 -0.835354 0)
(6.42871 -0.830043 0)
(6.40987 -0.824387 0)
(6.39117 -0.818384 0)
(6.37261 -0.812035 0)
(6.35419 -0.80534 0)
(6.33592 -0.798301 0)
(6.31782 -0.790917 0)
(6.2999 -0.783193 0)
(6.28215 -0.775129 0)
(6.26458 -0.766729 0)
(6.24721 -0.757998 0)
(6.23004 -0.748939 0)
(6.21307 -0.739558 0)
(6.1963 -0.72986 0)
(6.17975 -0.719854 0)
(6.16341 -0.709546 0)
(6.14729 -0.698945 0)
(6.13139 -0.68806 0)
(6.11572 -0.676901 0)
(6.10027 -0.665479 0)
(6.08504 -0.653806 0)
(6.07004 -0.641892 0)
(6.05526 -0.629749 0)
(6.04071 -0.617392 0)
(6.02637 -0.604832 0)
(6.01226 -0.592085 0)
(5.99837 -0.579164 0)
(5.98469 -0.566085 0)
(5.97122 -0.552863 0)
(5.95796 -0.539512 0)
(5.94491 -0.526049 0)
(5.93207 -0.512489 0)
(5.91942 -0.498847 0)
(5.90697 -0.485141 0)
(5.89471 -0.471384 0)
(5.88264 -0.457594 0)
(5.87075 -0.443784 0)
(5.85905 -0.42997 0)
(5.84752 -0.416166 0)
(5.83617 -0.402388 0)