/*--------------------------------*- C++ -*----------------------------------*\
| =========                 |                                                 |
| \\      /  F ield         | OpenFOAM: The Open Source CFD Toolbox           |
|  \\    /   O peration     | Version:  2.4.0                                 |
|   \\  /    A nd           | Web:      www.OpenFOAM.org                      |
|    \\/     M anipulation  |                                                 |
\*---------------------------------------------------------------------------*/
FoamFile
{
    version     2.0;
    format      ascii;
    class       volScalarField;
    location    "0.068";
    object      nut;
}
// * * * * * * * * * * * * * * * * * * * * * * * * * * * * * * * * * * * * * //

dimensions      [0 2 -1 0 0 0 0];

internalField   nonuniform List<scalar> 
17600
(
0.00010783
0.00012451
0.000135993
0.000143228
0.000147274
0.000149058
0.000149311
0.000148581
0.000147257
0.000145609
0.000143819
0.000142008
0.000140255
0.000138609
0.000137103
0.000135751
0.000134558
0.000133523
0.000132623
0.000132
0.000329173
0.000212655
0.000162185
0.00013586
0.000121229
0.000113025
0.000108733
0.000107059
0.000107297
0.000109044
0.000112053
0.000116155
0.000121216
0.000127109
0.000133698
0.000140832
0.000148345
0.00015606
0.000163857
0.000169535
0.000659514
0.000505622
0.000400841
0.000328641
0.000277966
0.000241566
0.000214856
0.000194963
0.000180061
0.000168963
0.00016088
0.000155282
0.000151804
0.000150191
0.000150253
0.000151841
0.000154821
0.000159056
0.000164365
0.000169668
0.000798066
0.000719144
0.00063947
0.000568171
0.000507729
0.000457532
0.000415973
0.000381395
0.000352386
0.000327824
0.000306848
0.000288812
0.000273239
0.00025979
0.000248231
0.000238405
0.000230214
0.000223585
0.000218357
0.000213806
0.000836034
0.000805282
0.000764927
0.000720395
0.00067586
0.000633741
0.000595094
0.00056017
0.000528805
0.000500655
0.000475318
0.0004524
0.000431543
0.00041244
0.000394838
0.000378538
0.000363387
0.000349264
0.000335961
0.00032299
0.000845497
0.000833333
0.000815252
0.00079227
0.0007661
0.00073842
0.000710527
0.000683286
0.000657208
0.000632544
0.000609371
0.000587658
0.000567312
0.000548206
0.000530203
0.000513162
0.000496948
0.000481424
0.000466379
0.000451534
0.000847815
0.000841759
0.000833143
0.000821665
0.000807553
0.000791359
0.000773738
0.000755308
0.000736577
0.00071793
0.000699633
0.000681855
0.000664689
0.000648173
0.000632303
0.00061705
0.000602361
0.000588167
0.000574339
0.000560776
0.000848382
0.000844198
0.000839116
0.000832753
0.00082492
0.000815628
0.000805039
0.000793399
0.000780981
0.000768051
0.000754839
0.000741534
0.000728281
0.000715187
0.000702323
0.00068973
0.000677427
0.000665408
0.000653633
0.000642111
0.00084852
0.000844889
0.000841035
0.000836725
0.000831764
0.000826029
0.000819477
0.000812137
0.00080409
0.00079545
0.000786341
0.000776887
0.000767202
0.000757386
0.000747519
0.000737666
0.000727874
0.000718175
0.000708577
0.000699147
0.000848553
0.000845082
0.000841635
0.000838096
0.000834345
0.000830269
0.000825787
0.000820851
0.000815449
0.000809598
0.000803336
0.000796716
0.000789798
0.000782644
0.000775313
0.000767857
0.000760323
0.000752749
0.000745163
0.00073765
0.00084856
0.000845133
0.000841817
0.000838556
0.000835284
0.000831931
0.000828429
0.000824725
0.000820777
0.000816564
0.000812078
0.000807326
0.000802327
0.000797104
0.000791688
0.000786109
0.000780399
0.000774585
0.000768697
0.000762816
0.00084856
0.000845146
0.000841871
0.000838706
0.000835616
0.000832561
0.000829497
0.000826382
0.000823178
0.000819856
0.000816392
0.000812773
0.000808994
0.000805056
0.000800965
0.000796734
0.000792376
0.000787907
0.000783346
0.000778763
0.00084856
0.000845148
0.000841885
0.000838752
0.000835729
0.000832792
0.000829914
0.000827067
0.000824224
0.000821357
0.000818445
0.000815468
0.000812413
0.00080927
0.000806034
0.000802703
0.00079928
0.000795768
0.000792178
0.000788566
0.000848559
0.000845147
0.000841887
0.000838765
0.000835766
0.000832874
0.000830072
0.000827342
0.000824664
0.000822019
0.00081939
0.000816758
0.000814109
0.00081143
0.000808712
0.000805948
0.000803131
0.000800261
0.00079734
0.000794413
0.000848558
0.000845146
0.000841887
0.000838767
0.000835776
0.000832901
0.000830129
0.000827448
0.000824844
0.000822303
0.000819811
0.000817356
0.000814923
0.000812503
0.000810084
0.000807657
0.000805215
0.000802753
0.000800268
0.000797801
0.000848557
0.000845145
0.000841885
0.000838767
0.000835778
0.000832908
0.000830148
0.000827487
0.000824914
0.00082242
0.000819993
0.000817625
0.000815304
0.00081302
0.000810766
0.000808531
0.00080631
0.000804095
0.000801882
0.000799708
0.000848557
0.000845144
0.000841884
0.000838765
0.000835777
0.00083291
0.000830153
0.0008275
0.00082494
0.000822466
0.00082007
0.000817742
0.000815476
0.000813263
0.000811095
0.000808966
0.000806869
0.000804797
0.000802746
0.000800751
0.000848557
0.000845143
0.000841883
0.000838764
0.000835776
0.000832909
0.000830154
0.000827504
0.000824949
0.000822484
0.0008201
0.000817791
0.000815551
0.000813372
0.000811249
0.000809176
0.000807145
0.000805152
0.000803194
0.000801302
0.000848556
0.000845143
0.000841883
0.000838763
0.000835775
0.000832908
0.000830154
0.000827504
0.000824952
0.000822489
0.000820111
0.000817811
0.000815582
0.00081342
0.000811318
0.000809271
0.000807275
0.000805323
0.000803412
0.000801576
0.000848556
0.000845143
0.000841882
0.000838763
0.000835774
0.000832908
0.000830153
0.000827504
0.000824952
0.000822491
0.000820115
0.000817817
0.000815593
0.000813437
0.000811344
0.000809308
0.000807325
0.00080539
0.0008035
0.000801688
0.000848556
0.000845143
0.000841882
0.000838763
0.000835774
0.000832908
0.000830153
0.000827504
0.000824952
0.000822491
0.000820115
0.000817817
0.000815593
0.000813437
0.000811344
0.000809308
0.000807325
0.00080539
0.0008035
0.000801687
0.000848556
0.000845143
0.000841883
0.000838763
0.000835775
0.000832908
0.000830154
0.000827504
0.000824952
0.000822489
0.000820111
0.000817811
0.000815582
0.00081342
0.000811318
0.000809271
0.000807274
0.000805322
0.000803411
0.000801572
0.000848557
0.000845143
0.000841883
0.000838764
0.000835776
0.000832909
0.000830154
0.000827504
0.000824949
0.000822484
0.0008201
0.000817791
0.000815551
0.000813372
0.000811249
0.000809176
0.000807145
0.000805152
0.000803192
0.000801296
0.000848557
0.000845144
0.000841884
0.000838765
0.000835777
0.00083291
0.000830153
0.0008275
0.00082494
0.000822466
0.00082007
0.000817742
0.000815476
0.000813263
0.000811095
0.000808966
0.000806869
0.000804796
0.000802743
0.000800743
0.000848557
0.000845145
0.000841885
0.000838767
0.000835778
0.000832908
0.000830148
0.000827487
0.000824914
0.00082242
0.000819993
0.000817625
0.000815304
0.00081302
0.000810766
0.000808532
0.00080631
0.000804094
0.000801879
0.000799697
0.000848558
0.000845146
0.000841887
0.000838767
0.000835776
0.000832901
0.000830129
0.000827448
0.000824844
0.000822303
0.000819811
0.000817356
0.000814923
0.000812503
0.000810084
0.000807657
0.000805215
0.000802752
0.000800264
0.000797788
0.000848559
0.000845147
0.000841887
0.000838765
0.000835766
0.000832874
0.000830072
0.000827342
0.000824664
0.000822019
0.00081939
0.000816758
0.000814109
0.00081143
0.000808712
0.000805948
0.000803132
0.000800261
0.000797336
0.000794401
0.00084856
0.000845148
0.000841885
0.000838752
0.000835729
0.000832792
0.000829914
0.000827067
0.000824224
0.000821357
0.000818445
0.000815468
0.000812413
0.00080927
0.000806034
0.000802704
0.00079928
0.000795769
0.000792176
0.000788558
0.00084856
0.000845146
0.000841871
0.000838706
0.000835616
0.000832561
0.000829497
0.000826382
0.000823178
0.000819856
0.000816392
0.000812773
0.000808994
0.000805056
0.000800966
0.000796735
0.000792378
0.00078791
0.000783349
0.000778769
0.00084856
0.000845133
0.000841817
0.000838556
0.000835284
0.000831931
0.000828429
0.000824725
0.000820777
0.000816564
0.000812078
0.000807326
0.000802327
0.000797105
0.000791689
0.000786111
0.000780402
0.000774593
0.000768711
0.000762853
0.000848553
0.000845082
0.000841635
0.000838096
0.000834345
0.000830269
0.000825787
0.000820851
0.000815449
0.000809598
0.000803336
0.000796716
0.000789798
0.000782645
0.000775314
0.000767859
0.000760328
0.000752763
0.000745196
0.000737751
0.00084852
0.000844889
0.000841035
0.000836725
0.000831764
0.000826029
0.000819477
0.000812137
0.00080409
0.00079545
0.000786341
0.000776887
0.000767203
0.000757386
0.00074752
0.000737669
0.000727883
0.000718199
0.000708644
0.000699369
0.000848382
0.000844198
0.000839116
0.000832753
0.00082492
0.000815628
0.000805039
0.000793399
0.000780981
0.000768051
0.000754839
0.000741534
0.000728282
0.000715188
0.000702325
0.000689735
0.00067744
0.000665449
0.000653758
0.000642553
0.000847815
0.000841759
0.000833143
0.000821665
0.000807553
0.000791359
0.000773738
0.000755308
0.000736577
0.00071793
0.000699633
0.000681855
0.00066469
0.000648174
0.000632306
0.000617057
0.000602381
0.00058823
0.000574556
0.000561605
0.000845497
0.000833333
0.000815252
0.00079227
0.0007661
0.00073842
0.000710527
0.000683286
0.000657208
0.000632544
0.000609371
0.000587659
0.000567313
0.000548208
0.000530207
0.000513171
0.000496975
0.000481516
0.000466722
0.00045296
0.000836034
0.000805282
0.000764927
0.000720395
0.00067586
0.000633741
0.000595094
0.000560169
0.000528805
0.000500655
0.000475318
0.0004524
0.000431544
0.000412442
0.000394843
0.000378549
0.000363418
0.000349371
0.000336387
0.000324959
0.000798066
0.000719144
0.00063947
0.000568171
0.000507729
0.000457532
0.000415973
0.000381395
0.000352386
0.000327824
0.000306848
0.000288812
0.00027324
0.000259792
0.000248234
0.000238413
0.000230236
0.000223657
0.000218652
0.000215527
0.000659514
0.000505622
0.000400841
0.000328641
0.000277966
0.000241566
0.000214856
0.000194963
0.000180061
0.000168963
0.00016088
0.000155282
0.000151804
0.000150191
0.000150254
0.000151844
0.000154827
0.000159077
0.000164445
0.000170921
0.000329173
0.000212655
0.000162185
0.00013586
0.000121229
0.000113025
0.000108733
0.000107059
0.000107297
0.000109044
0.000112053
0.000116155
0.000121216
0.000127109
0.000133698
0.000140833
0.000148349
0.000156075
0.000163841
0.000171613
0.00010783
0.00012451
0.000135993
0.000143228
0.000147274
0.000149058
0.000149311
0.000148581
0.000147257
0.000145609
0.000143819
0.000142008
0.000140255
0.00013861
0.000137103
0.000135751
0.00013456
0.000133527
0.000132648
0.000131887
0.000169834
0.000217843
0.000272522
0.000331259
0.000390927
0.00044935
0.000505659
0.000559909
0.000612605
0.000664349
0.000715625
0.000766745
0.000817875
0.000869111
0.00092054
0.000972247
0.00102432
0.00107685
0.00112991
0.00118358
0.00123791
0.00129298
0.00134885
0.00140557
0.0014632
0.0015218
0.00158144
0.00164217
0.00170403
0.00176706
0.00183129
0.00189675
0.00196344
0.00203138
0.00210055
0.00217094
0.00224253
0.00231528
0.00238915
0.00246408
0.00254003
0.00261691
0.00269467
0.00277323
0.00285251
0.00293241
0.00301286
0.00309375
0.00317499
0.00325646
0.00333806
0.00341967
0.00350116
0.0035824
0.00366324
0.00374355
0.00382316
0.00390191
0.00397964
0.00405616
0.00413129
0.00420486
0.00427668
0.00434654
0.00441428
0.0044797
0.00454263
0.00460289
0.00466031
0.00471475
0.00476608
0.00481416
0.0048589
0.00490021
0.00493804
0.00497235
0.00500313
0.00503039
0.00505417
0.00507455
0.00509162
0.00510551
0.00511636
0.00512438
0.00512975
0.00513273
0.00513359
0.00513261
0.00513012
0.00512649
0.00512209
0.00511734
0.00511272
0.00510869
0.00510581
0.00510465
0.00510586
0.00511011
0.00511818
0.0051309
0.00514919
0.00517408
0.00520669
0.00524826
0.00530017
0.00536388
0.00544101
0.00553321
0.00564224
0.00576979
0.00591748
0.00608668
0.00627843
0.00649325
0.006731
0.00699078
0.00727086
0.00756867
0.00788087
0.0082035
0.0085322
0.00886244
0.00918975
0.00950995
0.00981932
0.0101147
0.0103936
0.0106541
0.0108949
0.0111154
0.0113153
0.0114947
0.0116543
0.0117946
0.0119167
0.0120216
0.0121102
0.0121839
0.0122435
0.0122903
0.0123253
0.0123494
0.0123636
0.0123689
0.0123661
0.012356
0.0123392
0.0123165
0.0122884
0.0122554
0.0122181
0.012177
0.0121324
0.0120847
0.0120342
0.0119814
0.0119265
0.0118697
0.0118114
0.0117518
0.0116911
0.0116296
0.0115676
0.0115051
0.0114425
0.01138
0.0113178
0.0112562
0.0111953
0.0111354
0.0110768
0.0110198
0.0109647
0.0109117
0.0108614
0.0108139
0.01077
0.0107299
0.0106944
0.0106642
0.0106402
0.0106233
0.0106149
0.0106166
0.0106307
0.0106599
0.010708
0.0107797
0.010881
0.011018
0.0111954
0.0114115
0.0116498
0.0118655
0.0119678
0.0117977
0.0110992
0.00948264
0.00645178
0.00128285
0.000174613
0.000183821
0.000198585
0.000220149
0.000248881
0.000284442
0.000325855
0.000371745
0.000420606
0.000471067
0.00052208
0.000573005
0.000623577
0.000673808
0.000723861
0.000773935
0.000824196
0.000874745
0.000925628
0.000976865
0.00102847
0.00108049
0.00113296
0.00118597
0.00123957
0.00129385
0.00134885
0.00140465
0.00146128
0.0015188
0.00157724
0.00163663
0.00169702
0.00175842
0.00182085
0.00188433
0.00194886
0.00201443
0.00208102
0.00214861
0.00221718
0.00228668
0.00235707
0.0024283
0.00250032
0.00257306
0.00264647
0.00272045
0.00279495
0.00286986
0.00294509
0.00302055
0.00309613
0.00317171
0.00324716
0.00332235
0.00339714
0.00347138
0.00354491
0.00361757
0.00368918
0.00375957
0.00382855
0.00389594
0.00396155
0.0040252
0.0040867
0.00414588
0.00420257
0.0042566
0.00430782
0.00435611
0.00440135
0.00444343
0.00448228
0.00451784
0.00455008
0.00457899
0.00460458
0.00462691
0.00464605
0.00466209
0.00467516
0.00468541
0.00469304
0.00469824
0.00470126
0.00470236
0.00470183
0.00470001
0.00469723
0.00469389
0.0046904
0.00468721
0.00468481
0.00468373
0.00468455
0.00468792
0.00469452
0.00470512
0.00472059
0.00474185
0.00476995
0.00480608
0.00485151
0.00490768
0.00497614
0.0050586
0.00515684
0.00527269
0.00540798
0.00556439
0.00574338
0.00594597
0.00617262
0.00642305
0.00669616
0.00698992
0.00730142
0.00762699
0.00796234
0.00830283
0.00864372
0.00898042
0.0093087
0.00962486
0.00992583
0.0102092
0.0104733
0.0107169
0.0109396
0.0111412
0.0113221
0.0114828
0.0116241
0.0117471
0.0118527
0.0119423
0.0120168
0.0120774
0.0121251
0.0121611
0.0121864
0.012202
0.0122086
0.0122073
0.0121986
0.0121834
0.0121622
0.0121357
0.0121044
0.0120689
0.0120294
0.0119866
0.0119407
0.011892
0.0118411
0.011788
0.0117333
0.011677
0.0116195
0.011561
0.0115018
0.0114421
0.0113821
0.0113221
0.0112624
0.0112031
0.0111445
0.0110869
0.0110305
0.0109757
0.0109227
0.0108719
0.0108237
0.0107785
0.0107367
0.0106989
0.0106657
0.0106378
0.0106162
0.0106018
0.010596
0.0106005
0.0106176
0.0106499
0.0107015
0.0107771
0.0108829
0.0110254
0.0112098
0.0114352
0.0116863
0.0119197
0.0120457
0.0119082
0.0112572
0.00973522
0.00688776
0.00212807
0.000171573
0.000173856
0.000176895
0.000181223
0.00018734
0.000196063
0.000208266
0.000224744
0.000246115
0.000272699
0.000304466
0.000341045
0.000381781
0.00042584
0.000472331
0.000520427
0.000569454
0.000618943
0.000668632
0.000718426
0.000768349
0.000818483
0.000868922
0.000919743
0.000970997
0.00102271
0.00107491
0.0011276
0.00118082
0.0012346
0.00128898
0.00134402
0.00139975
0.00145623
0.00151349
0.00157155
0.00163043
0.00169015
0.00175072
0.00181214
0.0018744
0.0019375
0.00200142
0.00206614
0.00213164
0.00219787
0.0022648
0.00233237
0.00240054
0.00246923
0.00253838
0.00260792
0.00267774
0.00274776
0.00281788
0.00288797
0.00295792
0.00302759
0.00309683
0.0031655
0.00323344
0.00330048
0.00336644
0.00343115
0.00349444
0.00355611
0.00361598
0.00367388
0.00372963
0.00378306
0.00383402
0.00388237
0.00392797
0.00397071
0.00401049
0.00404724
0.00408091
0.00411146
0.0041389
0.00416323
0.00418452
0.00420282
0.00421825
0.00423093
0.00424101
0.00424867
0.00425412
0.0042576
0.00425936
0.0042597
0.00425894
0.00425741
0.0042555
0.00425361
0.00425219
0.00425172
0.00425272
0.00425577
0.00426151
0.00427062
0.00428389
0.00430216
0.00432641
0.0043577
0.00439724
0.00444638
0.0045066
0.00457956
0.00466705
0.00477095
0.00489325
0.00503586
0.00520058
0.00538892
0.00560192
0.00583998
0.00610267
0.00638865
0.00669562
0.00702034
0.00735876
0.00770631
0.00805806
0.00840908
0.00875468
0.00909061
0.0094132
0.00971947
0.0100072
0.0102747
0.0105211
0.010746
0.0109495
0.0111318
0.0112938
0.0114363
0.0115604
0.0116672
0.0117578
0.0118335
0.0118952
0.0119443
0.0119818
0.0120086
0.0120257
0.012034
0.0120343
0.0120274
0.012014
0.0119946
0.01197
0.0119406
0.011907
0.0118695
0.0118286
0.0117848
0.0117382
0.0116894
0.0116386
0.011586
0.011532
0.0114769
0.0114209
0.0113642
0.0113072
0.0112501
0.011193
0.0111364
0.0110804
0.0110252
0.0109713
0.0109189
0.0108683
0.0108199
0.010774
0.0107311
0.0106917
0.0106562
0.0106254
0.0106
0.0105809
0.010569
0.0105659
0.0105731
0.010593
0.0106284
0.010683
0.0107621
0.0108716
0.0110184
0.0112082
0.0114409
0.0117022
0.0119503
0.0120984
0.0119947
0.0114018
0.00999719
0.00738694
0.00319962
0.000212818
0.000212034
0.000211446
0.000211069
0.000210875
0.000210899
0.000211221
0.000211994
0.000213611
0.000216604
0.000221618
0.000229361
0.000240524
0.000255702
0.000275321
0.000299591
0.000328492
0.000361775
0.000399
0.000439586
0.000482884
0.000528248
0.000575095
0.00062296
0.000671506
0.000720528
0.000769929
0.000819692
0.000869841
0.000920422
0.000971477
0.00102304
0.00107513
0.00112778
0.00118098
0.00123476
0.00128913
0.00134412
0.00139974
0.00145602
0.00151298
0.00157062
0.00162896
0.00168801
0.00174774
0.00180816
0.00186924
0.00193096
0.0019933
0.00205621
0.00211964
0.00218355
0.00224787
0.00231253
0.00237745
0.00244253
0.00250767
0.00257276
0.00263767
0.00270227
0.00276643
0.00282997
0.00289276
0.00295461
0.00301537
0.00307485
0.00313288
0.00318928
0.00324388
0.0032965
0.003347
0.00339521
0.00344099
0.00348423
0.00352481
0.00356264
0.00359764
0.00362978
0.00365901
0.00368535
0.00370881
0.00372945
0.00374732
0.00376254
0.00377524
0.00378555
0.00379366
0.00379978
0.00380413
0.00380696
0.00380857
0.00380926
0.00380936
0.00380924
0.00380931
0.00380998
0.00381175
0.00381511
0.00382064
0.00382897
0.00384078
0.00385684
0.00387803
0.00390532
0.0039398
0.00398272
0.00403546
0.00409961
0.00417688
0.00426919
0.00437854
0.00450705
0.00465677
0.00482961
0.00502714
0.00525042
0.00549976
0.00577459
0.00607331
0.00639329
0.00673094
0.00708188
0.00744117
0.00780366
0.00816425
0.00851815
0.0088611
0.00918952
0.00950055
0.00979205
0.0100626
0.0103114
0.0105382
0.0107432
0.0109268
0.01109
0.0112335
0.0113587
0.0114665
0.0115583
0.0116352
0.0116983
0.0117488
0.0117878
0.0118163
0.0118351
0.0118451
0.0118473
0.0118422
0.0118307
0.0118134
0.0117908
0.0117634
0.0117319
0.0116966
0.0116579
0.0116162
0.011572
0.0115255
0.011477
0.0114269
0.0113755
0.011323
0.0112697
0.0112159
0.0111618
0.0111078
0.011054
0.0110008
0.0109484
0.0108971
0.0108473
0.0107992
0.0107533
0.0107099
0.0106695
0.0106325
0.0105996
0.0105713
0.0105483
0.0105317
0.0105224
0.0105219
0.0105318
0.0105543
0.0105924
0.0106498
0.0107316
0.010844
0.010994
0.0111876
0.0114253
0.0116941
0.0119543
0.0121226
0.0120545
0.0115287
0.0102594
0.00793192
0.00438635
0.000319395
0.000316042
0.000312919
0.000310023
0.000307291
0.000304648
0.000302017
0.000299317
0.000296431
0.000293273
0.000289852
0.000286238
0.000282603
0.000279243
0.000276588
0.000275187
0.000275675
0.000278707
0.000284905
0.00029479
0.000308749
0.000327002
0.000349598
0.000376419
0.000407198
0.00044155
0.000479011
0.000519082
0.000561273
0.00060514
0.000650311
0.000696499
0.000743501
0.000791188
0.000839491
0.000888382
0.000937855
0.000987916
0.00103857
0.00108984
0.00114171
0.0011942
0.00124731
0.00130103
0.00135537
0.00141033
0.00146591
0.0015221
0.00157889
0.00163626
0.0016942
0.00175267
0.00181162
0.00187101
0.00193078
0.00199086
0.00205117
0.00211161
0.00217209
0.0022325
0.0022927
0.00235257
0.00241196
0.00247072
0.0025287
0.00258573
0.00264165
0.00269628
0.00274945
0.002801
0.00285076
0.00289859
0.00294432
0.00298784
0.00302901
0.00306774
0.00310393
0.00313753
0.00316847
0.00319675
0.00322236
0.00324532
0.00326568
0.00328352
0.00329893
0.00331204
0.00332299
0.00333196
0.00333914
0.00334476
0.00334906
0.00335232
0.00335483
0.00335692
0.00335894
0.00336128
0.00336435
0.00336861
0.00337457
0.00338278
0.00339385
0.00340846
0.00342739
0.00345149
0.00348176
0.00351932
0.00356543
0.00362155
0.00368932
0.00377057
0.00386732
0.00398173
0.00411604
0.00427248
0.00445307
0.00465948
0.00489275
0.00515313
0.00543984
0.00575103
0.00608372
0.00643393
0.0067969
0.00716739
0.00754001
0.0079095
0.00827101
0.00862032
0.00895393
0.0092691
0.00956388
0.009837
0.0100878
0.0103162
0.0105224
0.0107072
0.0108713
0.0110159
0.0111421
0.0112511
0.011344
0.0114222
0.0114869
0.011539
0.0115796
0.0116098
0.0116304
0.0116424
0.0116465
0.0116434
0.011634
0.0116188
0.0115983
0.0115732
0.0115439
0.0115109
0.0114746
0.0114354
0.0113936
0.0113496
0.0113038
0.0112564
0.0112078
0.0111581
0.0111079
0.0110572
0.0110064
0.0109557
0.0109055
0.0108561
0.0108076
0.0107606
0.0107153
0.0106721
0.0106313
0.0105935
0.0105591
0.0105287
0.0105029
0.0104826
0.0104685
0.0104618
0.0104638
0.0104762
0.0105013
0.0105418
0.0106016
0.0106857
0.0108002
0.0109521
0.0111478
0.0113883
0.0116621
0.0119318
0.0121186
0.012087
0.0116347
0.0105128
0.00848715
0.00557262
0.000447199
0.000443061
0.000439099
0.000435327
0.000431724
0.000428256
0.000424885
0.000421572
0.000418263
0.000414859
0.000411282
0.000407454
0.000403294
0.000398721
0.000393664
0.000388082
0.000381979
0.00037543
0.000368607
0.000361787
0.000355364
0.000349827
0.000345735
0.000343669
0.000344187
0.000347779
0.000354836
0.000365625
0.000380286
0.000398831
0.000421156
0.00044706
0.000476262
0.000508433
0.000543217
0.00058026
0.00061923
0.000659831
0.000701818
0.000744995
0.000789212
0.000834365
0.00088038
0.000927208
0.000974818
0.00102319
0.00107229
0.00112212
0.00117266
0.00122388
0.00127575
0.00132826
0.00138136
0.00143503
0.0014892
0.00154383
0.00159887
0.00165422
0.00170982
0.00176556
0.00182135
0.00187707
0.0019326
0.00198779
0.00204251
0.00209661
0.00214993
0.00220232
0.0022536
0.00230362
0.00235222
0.00239923
0.00244452
0.00248794
0.00252936
0.00256867
0.00260577
0.00264057
0.002673
0.00270304
0.00273065
0.00275583
0.00277861
0.00279904
0.00281718
0.00283314
0.00284702
0.00285897
0.00286915
0.00287776
0.00288501
0.00289113
0.00289637
0.00290103
0.00290541
0.00290985
0.00291472
0.00292041
0.00292737
0.00293607
0.00294706
0.00296092
0.00297833
0.00300005
0.00302694
0.00305999
0.00310033
0.00314927
0.00320833
0.0032792
0.00336385
0.0034644
0.0035832
0.00372265
0.00388516
0.0040729
0.00428762
0.00453039
0.00480135
0.00509953
0.00542276
0.00576767
0.00612989
0.00650429
0.00688531
0.00726732
0.00764495
0.00801332
0.00836826
0.00870638
0.00902511
0.00932263
0.00959785
0.00985028
0.0100799
0.0102873
0.010473
0.010638
0.0107836
0.0109108
0.0110209
0.0111153
0.011195
0.0112613
0.011315
0.0113575
0.0113895
0.011412
0.011426
0.0114322
0.0114314
0.0114242
0.0114112
0.0113931
0.0113704
0.0113436
0.011313
0.0112793
0.0112427
0.0112036
0.0111624
0.0111194
0.0110749
0.0110293
0.0109829
0.0109358
0.0108886
0.0108413
0.0107944
0.0107481
0.0107027
0.0106587
0.0106163
0.0105759
0.010538
0.0105029
0.0104712
0.0104435
0.0104203
0.0104026
0.0103911
0.0103869
0.0103915
0.0104063
0.0104338
0.0104765
0.0105384
0.0106241
0.0107399
0.0108928
0.011089
0.0113303
0.0116066
0.0118831
0.0120866
0.0120917
0.0117164
0.0107469
0.00901975
0.00666403
0.000556739
0.000552857
0.000549093
0.000545457
0.000541945
0.000538544
0.000535243
0.000532028
0.000528885
0.000525781
0.00052268
0.000519553
0.000516368
0.000513084
0.000509653
0.000506017
0.000502113
0.000497868
0.000493211
0.000488071
0.000482389
0.00047613
0.000469295
0.000461934
0.000454165
0.000446182
0.000438261
0.000430753
0.000424072
0.000418666
0.000414993
0.000413484
0.000414519
0.000418407
0.00042537
0.000435543
0.000448974
0.000465631
0.000485417
0.00050818
0.000533729
0.00056185
0.000592319
0.000624914
0.000659424
0.00069566
0.000733451
0.000772653
0.000813144
0.000854822
0.000897601
0.000941406
0.000986172
0.00103184
0.00107834
0.00112561
0.00117359
0.0012222
0.00127136
0.00132099
0.00137098
0.00142123
0.00147162
0.00152204
0.00157235
0.00162241
0.00167207
0.00172119
0.00176961
0.00181717
0.00186371
0.00190908
0.00195312
0.0019957
0.00203667
0.00207591
0.00211331
0.00214876
0.0021822
0.00221354
0.00224276
0.00226983
0.00229474
0.00231752
0.00233822
0.00235688
0.00237361
0.00238851
0.00240171
0.00241338
0.00242367
0.0024328
0.00244098
0.00244845
0.00245548
0.00246236
0.00246939
0.00247692
0.00248534
0.00249505
0.0025065
0.00252022
0.00253677
0.0025568
0.00258105
0.00261037
0.00264575
0.00268834
0.00273948
0.00280073
0.00287388
0.002961
0.00306438
0.00318653
0.00333009
0.00349765
0.00369157
0.00391372
0.00416518
0.00444599
0.00475495
0.00508953
0.00544598
0.00581948
0.00620452
0.00659523
0.00698578
0.0073707
0.00774511
0.00810491
0.00844685
0.00876851
0.00906825
0.00934514
0.00959884
0.00982951
0.0100377
0.0102242
0.0103902
0.0105367
0.0106652
0.0107767
0.0108726
0.0109539
0.0110218
0.0110774
0.0111217
0.0111557
0.0111804
0.0111965
0.011205
0.0112065
0.0112016
0.0111912
0.0111756
0.0111554
0.0111312
0.0111034
0.0110724
0.0110386
0.0110025
0.0109642
0.0109243
0.0108831
0.0108407
0.0107977
0.0107542
0.0107106
0.0106672
0.0106243
0.0105823
0.0105414
0.0105021
0.0104648
0.0104298
0.0103976
0.0103687
0.0103438
0.0103234
0.0103083
0.0102994
0.0102978
0.0103048
0.0103221
0.0103517
0.0103965
0.01046
0.010547
0.0106634
0.0108161
0.0110114
0.0112518
0.0115281
0.011809
0.0120271
0.012068
0.01177
0.010952
0.00950475
0.0076114
0.000638655
0.000635322
0.000632065
0.000628891
0.0006258
0.000622787
0.000619847
0.000616977
0.000614176
0.000611424
0.000608711
0.000606029
0.000603373
0.000600731
0.000598094
0.000595445
0.000592766
0.000590034
0.00058722
0.000584292
0.000581209
0.000577927
0.000574397
0.000570567
0.000566382
0.000561794
0.00055676
0.000551251
0.000545261
0.000538813
0.000531966
0.000524823
0.000517538
0.000510311
0.00050339
0.000497061
0.000491632
0.00048742
0.000484738
0.000483869
0.000485066
0.000488532
0.000494422
0.000502839
0.000513836
0.000527422
0.000543565
0.000562205
0.000583253
0.000606602
0.000632135
0.000659725
0.000689243
0.00072056
0.00075355
0.000788088
0.000824054
0.000861329
0.000899795
0.000939337
0.000979835
0.00102117
0.00106321
0.00110583
0.00114889
0.00119225
0.00123575
0.00127925
0.00132259
0.00136561
0.00140814
0.00145003
0.00149111
0.00153123
0.00157025
0.00160802
0.00164442
0.00167933
0.00171266
0.0017443
0.00177421
0.00180232
0.00182862
0.00185308
0.00187573
0.00189659
0.00191572
0.0019332
0.00194912
0.0019636
0.00197677
0.0019888
0.00199986
0.00201014
0.00201986
0.00202927
0.00203863
0.00204821
0.00205834
0.00206936
0.00208164
0.00209562
0.00211176
0.00213062
0.0021528
0.00217902
0.0022101
0.00224704
0.00229098
0.00234328
0.00240556
0.0024797
0.00256788
0.00267259
0.00279654
0.00294263
0.00311369
0.00331233
0.00354054
0.00379946
0.00408899
0.00440768
0.00475263
0.00511963
0.00550343
0.00589811
0.00629751
0.00669561
0.00708686
0.00746642
0.00783028
0.00817533
0.00849931
0.00880075
0.00907888
0.00933352
0.00956496
0.00977388
0.00996123
0.0101281
0.0102759
0.0104057
0.0105188
0.0106162
0.0106992
0.010769
0.0108265
0.0108728
0.010909
0.0109359
0.0109543
0.0109652
0.0109692
0.0109669
0.010959
0.0109462
0.0109288
0.0109074
0.0108825
0.0108545
0.0108237
0.0107907
0.0107557
0.0107191
0.0106813
0.0106425
0.0106031
0.0105634
0.0105238
0.0104846
0.0104461
0.0104086
0.0103726
0.0103385
0.0103066
0.0102775
0.0102516
0.0102295
0.0102119
0.0101995
0.0101933
0.0101943
0.0102037
0.0102233
0.010255
0.0103016
0.0103665
0.0104543
0.0105707
0.0107223
0.0109156
0.0111532
0.0114275
0.0117103
0.0119407
0.0120155
0.0117926
0.0111196
0.00992533
0.00840154
0.000696306
0.000693561
0.000690862
0.000688214
0.000685616
0.000683069
0.000680571
0.00067812
0.000675719
0.000673353
0.000671019
0.000668719
0.00066645
0.000664211
0.000662002
0.00065982
0.000657664
0.000655528
0.000653408
0.000651298
0.000649188
0.000647068
0.000644925
0.000642742
0.000640499
0.000638174
0.00063574
0.000633168
0.000630427
0.000627485
0.000624308
0.000620865
0.000617129
0.000613081
0.00060871
0.000604022
0.000599037
0.0005938
0.000588375
0.000582858
0.000577366
0.000572044
0.000567059
0.000562597
0.000558855
0.000556035
0.000554339
0.000553957
0.000555066
0.000557822
0.00056236
0.000568785
0.00057718
0.000587598
0.000600069
0.000614597
0.000631164
0.000649731
0.000670239
0.000692615
0.000716765
0.000742586
0.00076996
0.000798757
0.000828838
0.000860055
0.000892251
0.000925264
0.000958926
0.000993064
0.0010275
0.00106207
0.00109659
0.00113089
0.0011648
0.00119816
0.00123082
0.00126263
0.00129348
0.00132323
0.0013518
0.0013791
0.00140506
0.00142964
0.00145282
0.00147458
0.00149495
0.00151395
0.00153163
0.00154808
0.00156338
0.00157765
0.00159101
0.00160362
0.00161563
0.00162724
0.00163865
0.00165008
0.00166178
0.00167403
0.00168713
0.00170141
0.00171726
0.00173512
0.00175547
0.00177888
0.00180605
0.00183775
0.00187495
0.0019188
0.00197066
0.00203219
0.00210537
0.00219253
0.00229634
0.00241979
0.00256606
0.00273833
0.00293948
0.00317171
0.00343621
0.00373278
0.00405966
0.00441356
0.00478977
0.00518258
0.00558566
0.00599254
0.00639706
0.00679359
0.00717734
0.00754442
0.00789184
0.00821752
0.00852015
0.00879912
0.00905441
0.00928645
0.00949605
0.00968423
0.00985238
0.0100016
0.0101329
0.0102475
0.0103466
0.0104314
0.0105031
0.0105627
0.0106112
0.0106496
0.0106789
0.0106999
0.0107133
0.01072
0.0107204
0.0107154
0.0107054
0.010691
0.0106726
0.0106508
0.010626
0.0105985
0.0105688
0.0105373
0.0105043
0.0104701
0.0104351
0.0103997
0.0103642
0.0103288
0.0102941
0.0102603
0.0102278
0.010197
0.0101684
0.0101425
0.0101196
0.0101006
0.0100859
0.0100763
0.0100728
0.0100763
0.0100882
0.01011
0.0101438
0.0101919
0.010258
0.0103461
0.0104619
0.0106118
0.0108019
0.0110352
0.0113055
0.0115881
0.0118282
0.0119341
0.0117818
0.0112434
0.0102719
0.00904011
0.000735379
0.000733184
0.000731012
0.000728868
0.000726751
0.000724664
0.000722605
0.000720575
0.000718575
0.000716596
0.000714639
0.000712704
0.000710791
0.000708902
0.000707037
0.000705197
0.000703383
0.000701596
0.000699835
0.000698103
0.000696397