/*--------------------------------*- C++ -*----------------------------------*\
| =========                 |                                                 |
| \\      /  F ield         | OpenFOAM: The Open Source CFD Toolbox           |
|  \\    /   O peration     | Version:  2.4.0                                 |
|   \\  /    A nd           | Web:      www.OpenFOAM.org                      |
|    \\/     M anipulation  |                                                 |
\*---------------------------------------------------------------------------*/
FoamFile
{
    version     2.0;
    format      ascii;
    class       surfaceScalarField;
    location    "0.068";
    object      phi;
}
// * * * * * * * * * * * * * * * * * * * * * * * * * * * * * * * * * * * * * //

dimensions      [0 3 -1 0 0 0 0];

internalField   nonuniform List<scalar> 
34880
(
1.2158e-05
3.42009e-07
1.18568e-05
3.01196e-07
1.157e-05
2.86781e-07
1.12862e-05
2.83841e-07
1.10137e-05
2.72441e-07
1.07572e-05
2.56546e-07
1.05181e-05
2.39102e-07
1.02968e-05
2.21319e-07
1.0093e-05
2.03778e-07
9.90618e-06
1.86802e-07
9.73562e-06
1.70561e-07
9.58048e-06
1.55137e-07
9.43991e-06
1.40567e-07
9.31303e-06
1.26877e-07
9.19893e-06
1.141e-07
9.09665e-06
1.02282e-07
9.00508e-06
9.15651e-08
8.92264e-06
8.24479e-08
8.84475e-06
7.78926e-08
1.90261e-07
8.65449e-06
1.24955e-05
3.4654e-07
1.24494e-05
3.47222e-07
1.23924e-05
3.43783e-07
1.23212e-05
3.55046e-07
1.22379e-05
3.55749e-07
1.21454e-05
3.49051e-07
1.2046e-05
3.38481e-07
1.19418e-05
3.25521e-07
1.18346e-05
3.10976e-07
1.1726e-05
2.95427e-07
1.16173e-05
2.79288e-07
1.15096e-05
2.62844e-07
1.14038e-05
2.46305e-07
1.13009e-05
2.29842e-07
1.12013e-05
2.13626e-07
1.11058e-05
1.9785e-07
1.10144e-05
1.829e-07
1.0927e-05
1.69848e-07
1.08383e-05
1.66662e-07
2.39161e-07
1.07894e-05
1.25262e-05
3.20311e-07
1.25337e-05
3.39744e-07
1.25359e-05
3.41555e-07
1.25342e-05
3.56797e-07
1.25273e-05
3.62588e-07
1.25156e-05
3.60794e-07
1.24991e-05
3.5501e-07
1.24779e-05
3.46732e-07
1.24521e-05
3.36728e-07
1.2422e-05
3.25571e-07
1.23876e-05
3.13682e-07
1.23491e-05
3.01352e-07
1.23066e-05
2.88781e-07
1.22603e-05
2.76112e-07
1.22105e-05
2.63471e-07
1.21573e-05
2.51e-07
1.21011e-05
2.39097e-07
1.20419e-05
2.29038e-07
1.19793e-05
2.2933e-07
2.69046e-07
1.19494e-05
1.25308e-05
2.89482e-07
1.25492e-05
3.2139e-07
1.2564e-05
3.26696e-07
1.2578e-05
3.42838e-07
1.25901e-05
3.505e-07
1.26002e-05
3.50715e-07
1.26081e-05
3.47042e-07
1.26139e-05
3.40982e-07
1.26173e-05
3.33267e-07
1.26185e-05
3.24454e-07
1.26172e-05
3.14957e-07
1.26135e-05
3.05073e-07
1.26072e-05
2.95007e-07
1.25984e-05
2.84917e-07
1.2587e-05
2.74939e-07
1.25727e-05
2.6523e-07
1.25556e-05
2.56232e-07
1.25354e-05
2.49199e-07
1.25133e-05
2.51438e-07
2.72181e-07
1.25102e-05
1.253e-05
2.59472e-07
1.25513e-05
3.00134e-07
1.25701e-05
3.07887e-07
1.25889e-05
3.23987e-07
1.2607e-05
3.32389e-07
1.26242e-05
3.33598e-07
1.26401e-05
3.31062e-07
1.26549e-05
3.26252e-07
1.26683e-05
3.19869e-07
1.26803e-05
3.12439e-07
1.26909e-05
3.04365e-07
1.27e-05
2.95931e-07
1.27077e-05
2.87341e-07
1.27138e-05
2.78753e-07
1.27185e-05
2.70309e-07
1.27215e-05
2.62175e-07
1.27229e-05
2.54803e-07
1.27229e-05
2.49291e-07
1.27229e-05
2.5137e-07
2.61027e-07
1.27341e-05
1.25277e-05
2.31727e-07
1.25498e-05
2.7806e-07
1.25702e-05
2.87536e-07
1.2591e-05
3.03169e-07
1.26116e-05
3.11805e-07
1.26316e-05
3.13571e-07
1.26509e-05
3.11758e-07
1.26694e-05
3.0779e-07
1.26869e-05
3.02329e-07
1.27035e-05
2.95874e-07
1.2719e-05
2.88809e-07
1.27336e-05
2.81403e-07
1.2747e-05
2.73852e-07
1.27595e-05
2.66308e-07
1.27709e-05
2.5891e-07
1.27812e-05
2.51822e-07
1.27906e-05
2.45472e-07
1.27991e-05
2.40745e-07
1.28086e-05
2.41845e-07
2.44453e-07
1.28252e-05
1.25253e-05
2.06451e-07
1.25474e-05
2.55931e-07
1.25683e-05
2.66602e-07
1.259e-05
2.81509e-07
1.26117e-05
2.90078e-07
1.26331e-05
2.92154e-07
1.26541e-05
2.90838e-07
1.26744e-05
2.87496e-07
1.26939e-05
2.82746e-07
1.27128e-05
2.77059e-07
1.27308e-05
2.70797e-07
1.2748e-05
2.64212e-07
1.27643e-05
2.57491e-07
1.27798e-05
2.50776e-07
1.27946e-05
2.44202e-07
1.28085e-05
2.37921e-07
1.28216e-05
2.32317e-07
1.28343e-05
2.28061e-07
1.28481e-05
2.27995e-07
2.25865e-07
1.28667e-05
1.2523e-05
1.83438e-07
1.25449e-05
2.3408e-07
1.25659e-05
2.45521e-07
1.25879e-05
2.59532e-07
1.26102e-05
2.67827e-07
1.26323e-05
2.70046e-07
1.2654e-05
2.6908e-07
1.26753e-05
2.66226e-07
1.2696e-05
2.62058e-07
1.2716e-05
2.57016e-07
1.27354e-05
2.51435e-07
1.27541e-05
2.45553e-07
1.2772e-05
2.39543e-07
1.27892e-05
2.33538e-07
1.28058e-05
2.27664e-07
1.28216e-05
2.22062e-07
1.28369e-05
2.17059e-07
1.28518e-05
2.13125e-07
1.28679e-05
2.11938e-07
2.06523e-07
1.28872e-05
1.2521e-05
1.62404e-07
1.25425e-05
2.12639e-07
1.25635e-05
2.24478e-07
1.25856e-05
2.37488e-07
1.2608e-05
2.45366e-07
1.26305e-05
2.4761e-07
1.26526e-05
2.46891e-07
1.26744e-05
2.4443e-07
1.26957e-05
2.40756e-07
1.27165e-05
2.36274e-07
1.27366e-05
2.31295e-07
1.27561e-05
2.26037e-07
1.2775e-05
2.20661e-07
1.27933e-05
2.1529e-07
1.28109e-05
2.1004e-07
1.28279e-05
2.05036e-07
1.28444e-05
2.00548e-07
1.28607e-05
1.96859e-07
1.2878e-05
1.9468e-07
1.86966e-07
1.28975e-05
1.25193e-05
1.43073e-07
1.25403e-05
1.91646e-07
1.25613e-05
2.03545e-07
1.25833e-05
2.15491e-07
1.26058e-05
2.2285e-07
1.26283e-05
2.25039e-07
1.26507e-05
2.24496e-07
1.26728e-05
2.2236e-07
1.26944e-05
2.19116e-07
1.27156e-05
2.15135e-07
1.27362e-05
2.107e-07
1.27562e-05
2.06012e-07
1.27756e-05
2.01216e-07
1.27945e-05
1.96427e-07
1.28128e-05
1.91747e-07
1.28305e-05
1.87288e-07
1.28478e-05
1.83256e-07
1.28649e-05
1.79776e-07
1.28828e-05
1.76763e-07
1.67455e-07
1.29024e-05
1.25179e-05
1.25194e-07
1.25384e-05
1.71096e-07
1.25592e-05
1.82745e-07
1.25811e-05
1.93585e-07
1.26036e-05
2.00353e-07
1.26262e-05
2.02431e-07
1.26487e-05
2.02015e-07
1.26709e-05
2.00158e-07
1.26927e-05
1.97301e-07
1.27141e-05
1.93778e-07
1.27349e-05
1.89846e-07
1.27553e-05
1.85688e-07
1.27751e-05
1.81434e-07
1.27943e-05
1.77187e-07
1.2813e-05
1.7304e-07
1.28312e-05
1.69087e-07
1.2849e-05
1.65474e-07
1.28666e-05
1.62187e-07
1.28848e-05
1.58504e-07
1.48132e-07
1.29042e-05
1.25166e-05
1.08545e-07
1.25368e-05
1.50965e-07
1.25574e-05
1.62076e-07
1.25793e-05
1.71782e-07
1.26017e-05
1.77906e-07
1.26243e-05
1.79832e-07
1.26468e-05
1.79511e-07
1.26691e-05
1.77903e-07
1.2691e-05
1.75402e-07
1.27124e-05
1.72308e-07
1.27334e-05
1.68851e-07
1.27539e-05
1.65194e-07
1.27739e-05
1.61453e-07
1.27934e-05
1.57721e-07
1.28123e-05
1.54079e-07
1.28308e-05
1.50604e-07
1.28489e-05
1.47384e-07
1.28668e-05
1.44292e-07
1.28852e-05
1.40099e-07
1.29073e-07
1.29042e-05
1.25156e-05
9.29319e-08
1.25354e-05
1.31218e-07
1.25559e-05
1.41532e-07
1.25776e-05
1.50079e-07
1.26e-05
1.55518e-07
1.26226e-05
1.5726e-07
1.26451e-05
1.57013e-07
1.26673e-05
1.55633e-07
1.26893e-05
1.53469e-07
1.27108e-05
1.50785e-07
1.27319e-05
1.47784e-07
1.27524e-05
1.44608e-07
1.27725e-05
1.41361e-07
1.27921e-05
1.38124e-07
1.28112e-05
1.34967e-07
1.28299e-05
1.31949e-07
1.28482e-05
1.29108e-07
1.28662e-05
1.26223e-07
1.28847e-05
1.21672e-07
1.10321e-07
1.29034e-05
1.25148e-05
7.81798e-08
1.25342e-05
1.11815e-07
1.25546e-05
1.21098e-07
1.25762e-05
1.28466e-07
1.25985e-05
1.33186e-07
1.26211e-05
1.34722e-07
1.26435e-05
1.34533e-07
1.26658e-05
1.33368e-07
1.26878e-05
1.31528e-07
1.27093e-05
1.29241e-07
1.27304e-05
1.26683e-07
1.2751e-05
1.23976e-07
1.27712e-05
1.21209e-07
1.27909e-05
1.18453e-07
1.28101e-05
1.15767e-07
1.28288e-05
1.13193e-07
1.28472e-05
1.10725e-07
1.28653e-05
1.08066e-07
1.28837e-05
1.03299e-07
9.18976e-08
1.29021e-05
1.2514e-05
6.41344e-08
1.25331e-05
9.27127e-08
1.25535e-05
1.00762e-07
1.2575e-05
1.06933e-07
1.25973e-05
1.10906e-07
1.26198e-05
1.12216e-07
1.26423e-05
1.12073e-07
1.26645e-05
1.11114e-07
1.26865e-05
1.0959e-07
1.2708e-05
1.07693e-07
1.27291e-05
1.05569e-07
1.27498e-05
1.03323e-07
1.27699e-05
1.01028e-07
1.27897e-05
9.87444e-08
1.28089e-05
9.6519e-08
1.28277e-05
9.43817e-08
1.28462e-05
9.22836e-08
1.28643e-05
8.98774e-08
1.28826e-05
8.50265e-08
7.38091e-08
1.29007e-05
1.25135e-05
5.06564e-08
1.25323e-05
7.38631e-08
1.25526e-05
8.05085e-08
1.2574e-05
8.54664e-08
1.25963e-05
8.86706e-08
1.26188e-05
8.97376e-08
1.26412e-05
8.96334e-08
1.26634e-05
8.88732e-08
1.26854e-05
8.76599e-08
1.27069e-05
8.61471e-08
1.2728e-05
8.44536e-08
1.27487e-05
8.26624e-08
1.27689e-05
8.08342e-08
1.27886e-05
7.90166e-08
1.28079e-05
7.72466e-08
1.28267e-05
7.55409e-08
1.28452e-05
7.38165e-08
1.28634e-05
7.16922e-08
1.28815e-05
6.68806e-08
5.60539e-08
1.28993e-05
1.2513e-05
3.76187e-08
1.25317e-05
5.52175e-08
1.25519e-05
6.03218e-08
1.25733e-05
6.40528e-08
1.25955e-05
6.6471e-08
1.26179e-05
6.72826e-08
1.26404e-05
6.72102e-08
1.26626e-05
6.66441e-08
1.26845e-05
6.57375e-08
1.27061e-05
6.46061e-08
1.27272e-05
6.33393e-08
1.27478e-05
6.20003e-08
1.2768e-05
6.06353e-08
1.27878e-05
5.92806e-08
1.2807e-05
5.79628e-08
1.28259e-05
5.66869e-08
1.28444e-05
5.53428e-08
1.28625e-05
5.35328e-08
1.28805e-05
4.88732e-08
3.8626e-08
1.2898e-05
1.25127e-05
2.49034e-08
1.25312e-05
3.67259e-08
1.25513e-05
4.01858e-08
1.25727e-05
4.26793e-08
1.25949e-05
4.42986e-08
1.26173e-05
4.48452e-08
1.26397e-05
4.47997e-08
1.2662e-05
4.44245e-08
1.26839e-05
4.3822e-08
1.27054e-05
4.30698e-08
1.27265e-05
4.2228e-08
1.27472e-05
4.13394e-08
1.27674e-05
4.04355e-08
1.27871e-05
3.95416e-08
1.28064e-05
3.86742e-08
1.28253e-05
3.78282e-08
1.28437e-05
3.68727e-08
1.28619e-05
3.54104e-08
1.28797e-05
3.1007e-08
2.15165e-08
1.28968e-05
1.25125e-05
1.23994e-08
1.25309e-05
1.83372e-08
1.2551e-05
2.0084e-08
1.25723e-05
2.13326e-08
1.25945e-05
2.21444e-08
1.26169e-05
2.24195e-08
1.26393e-05
2.23978e-08
1.26615e-05
2.22113e-08
1.26834e-05
2.19113e-08
1.2705e-05
2.1537e-08
1.27261e-05
2.11191e-08
1.27467e-05
2.06797e-08
1.27669e-05
2.02361e-08
1.27867e-05
1.98019e-08
1.2806e-05
1.93843e-08
1.28248e-05
1.89698e-08
1.28433e-05
1.84126e-08
1.28614e-05
1.73317e-08
1.28791e-05
1.32801e-08
4.7167e-09
1.28959e-05
1.25124e-05
2.17052e-13
1.25307e-05
-1.85615e-13
1.25508e-05
-4.66441e-13
1.25722e-05
-5.58862e-13
1.25943e-05
-5.53383e-13
1.26167e-05
-2.73941e-13
1.26391e-05
2.83351e-13
1.26613e-05
1.34395e-12
1.26832e-05
3.07336e-12
1.27048e-05
6.19866e-12
1.27259e-05
1.1613e-11
1.27465e-05
2.11041e-11
1.27667e-05
3.69394e-11
1.27865e-05
6.21445e-11
1.28058e-05
9.44344e-11
1.28246e-05
1.13405e-10
1.28431e-05
-3.53359e-11
1.28611e-05
-7.01878e-10
1.28787e-05
-4.31381e-09
-1.17809e-08
1.28952e-05
1.25124e-05
-1.2399e-08
1.25307e-05
-1.83376e-08
1.25508e-05
-2.00849e-08
1.25722e-05
-2.13337e-08
1.25943e-05
-2.21456e-08
1.26167e-05
-2.242e-08
1.26391e-05
-2.23973e-08
1.26613e-05
-2.22086e-08
1.26832e-05
-2.19052e-08
1.27048e-05
-2.15247e-08
1.27259e-05
-2.1096e-08
1.27465e-05
-2.06378e-08
1.27667e-05
-2.01623e-08
1.27865e-05
-1.96777e-08
1.28058e-05
-1.91948e-08
1.28246e-05
-1.87394e-08
1.2843e-05
-1.84693e-08
1.2861e-05
-1.86892e-08
1.28785e-05
-2.17818e-08
-2.79808e-08
1.28947e-05
1.25125e-05
-2.4903e-08
1.25309e-05
-3.67263e-08
1.2551e-05
-4.01867e-08
1.25723e-05
-4.26804e-08
1.25945e-05
-4.42997e-08
1.26169e-05
-4.48457e-08
1.26393e-05
-4.47991e-08
1.26615e-05
-4.44218e-08
1.26834e-05
-4.38159e-08
1.2705e-05
-4.30575e-08
1.27261e-05
-4.2205e-08
1.27467e-05
-4.12976e-08
1.27669e-05
-4.03622e-08
1.27867e-05
-3.94175e-08
1.2806e-05
-3.8483e-08
1.28248e-05
-3.75882e-08
1.28432e-05
-3.68888e-08
1.28612e-05
-3.66318e-08
1.28785e-05
-3.91317e-08
-4.38847e-08
1.28944e-05
1.25127e-05
-3.76183e-08
1.25312e-05
-5.52179e-08
1.25513e-05
-6.03227e-08
1.25727e-05
-6.40539e-08
1.25949e-05
-6.64721e-08
1.26173e-05
-6.72832e-08
1.26397e-05
-6.72097e-08
1.2662e-05
-6.66415e-08
1.26839e-05
-6.57316e-08
1.27054e-05
-6.4594e-08
1.27265e-05
-6.33167e-08
1.27472e-05
-6.19592e-08
1.27674e-05
-6.05626e-08
1.27871e-05
-5.91568e-08
1.28064e-05
-5.77688e-08
1.28252e-05
-5.64306e-08
1.28436e-05
-5.52918e-08
1.28615e-05
-5.45289e-08
1.28788e-05
-5.63686e-08
-5.94894e-08
1.28944e-05
1.2513e-05
-5.0656e-08
1.25317e-05
-7.38634e-08
1.25519e-05
-8.05095e-08
1.25733e-05
-8.54675e-08
1.25955e-05
-8.86717e-08
1.26179e-05
-8.97382e-08
1.26404e-05
-8.96329e-08
1.26626e-05
-8.88706e-08
1.26845e-05
-8.7654e-08
1.27061e-05
-8.61353e-08
1.27272e-05
-8.44313e-08
1.27478e-05
-8.26218e-08
1.2768e-05
-8.07624e-08
1.27878e-05
-7.88933e-08
1.2807e-05
-7.70491e-08
1.28259e-05
-7.52633e-08
1.28443e-05
-7.36748e-08
1.28621e-05
-7.23796e-08
1.28792e-05
-7.34959e-08
-7.47856e-08
1.28945e-05
1.25135e-05
-6.4134e-08
1.25323e-05
-9.27131e-08
1.25526e-05
-1.00763e-07
1.2574e-05
-1.06934e-07
1.25963e-05
-1.10907e-07
1.26188e-05
-1.12216e-07
1.26412e-05
-1.12073e-07
1.26634e-05
-1.11112e-07
1.26854e-05
-1.09585e-07
1.27069e-05
-1.07682e-07
1.2728e-05
-1.05548e-07
1.27487e-05
-1.03283e-07
1.27689e-05
-1.00958e-07
1.27886e-05
-9.86219e-08
1.28079e-05
-9.63174e-08
1.28267e-05
-9.40781e-08
1.28451e-05
-9.20294e-08
1.28629e-05
-9.01769e-08
1.28799e-05
-9.05106e-08
-8.97554e-08
1.28948e-05
1.2514e-05
-7.81794e-08
1.25331e-05
-1.11816e-07
1.25535e-05
-1.21099e-07
1.2575e-05
-1.28468e-07
1.25973e-05
-1.33187e-07
1.26198e-05
-1.34723e-07
1.26423e-05
-1.34532e-07
1.26645e-05
-1.33366e-07
1.26865e-05
-1.31523e-07
1.2708e-05
-1.2923e-07
1.27291e-05
-1.26662e-07
1.27498e-05
-1.23937e-07
1.277e-05
-1.2114e-07
1.27897e-05
-1.18332e-07
1.28089e-05
-1.15561e-07
1.28277e-05
-1.12861e-07
1.2846e-05
-1.1034e-07
1.28637e-05
-1.07908e-07
1.28806e-05
-1.07403e-07
-1.0437e-07
1.28952e-05
1.25148e-05
-9.29316e-08
1.25342e-05
-1.31218e-07
1.25546e-05
-1.41532e-07
1.25762e-05
-1.5008e-07
1.25985e-05
-1.55519e-07
1.26211e-05
-1.57261e-07
1.26435e-05
-1.57013e-07
1.26658e-05
-1.55631e-07
1.26878e-05
-1.53464e-07
1.27093e-05
-1.50774e-07
1.27304e-05
-1.47764e-07
1.2751e-05
-1.44571e-07
1.27712e-05
-1.41294e-07
1.27909e-05
-1.38004e-07
1.28101e-05
-1.34757e-07
1.28288e-05
-1.31586e-07
1.2847e-05
-1.2858e-07
1.28647e-05
-1.25547e-07
1.28814e-05
-1.24148e-07
-1.18585e-07
1.28956e-05
1.25156e-05
-1.08545e-07
1.25354e-05
-1.50965e-07
1.25559e-05
-1.62077e-07
1.25776e-05
-1.71783e-07
1.26e-05
-1.77907e-07
1.26226e-05
-1.79833e-07
1.26451e-05
-1.79511e-07
1.26673e-05
-1.77901e-07
1.26893e-05
-1.75397e-07
1.27108e-05
-1.72298e-07
1.27319e-05
-1.68832e-07
1.27524e-05
-1.65158e-07
1.27725e-05
-1.61388e-07
1.27921e-05
-1.57604e-07
1.28112e-05
-1.53867e-07
1.28299e-05
-1.5021e-07
1.2848e-05
-1.46704e-07
1.28655e-05
-1.4305e-07
1.28821e-05
-1.40704e-07
-1.32336e-07
1.28958e-05
1.25166e-05
-1.25194e-07
1.25368e-05
-1.71096e-07
1.25574e-05
-1.82746e-07
1.25793e-05
-1.93586e-07
1.26017e-05
-2.00355e-07
1.26243e-05
-2.02432e-07
1.26468e-05
-2.02015e-07
1.26691e-05
-2.00157e-07
1.2691e-05
-1.97296e-07
1.27124e-05
-1.93768e-07
1.27334e-05
-1.89828e-07
1.27539e-05
-1.85654e-07
1.27739e-05
-1.81372e-07
1.27934e-05
-1.77073e-07
1.28123e-05
-1.72826e-07
1.28308e-05
-1.68665e-07
1.28487e-05
-1.64638e-07
1.2866e-05
-1.60344e-07
1.28823e-05
-1.56999e-07
-1.4553e-07
1.28955e-05
1.25179e-05
-1.43072e-07
1.25384e-05
-1.91647e-07
1.25592e-05
-2.03546e-07
1.25811e-05
-2.15492e-07
1.26036e-05
-2.22851e-07
1.26262e-05
-2.2504e-07
1.26487e-05
-2.24496e-07
1.26709e-05
-2.22358e-07
1.26927e-05
-2.19112e-07
1.27141e-05
-2.15126e-07
1.27349e-05
-2.10683e-07
1.27553e-05
-2.0598e-07
1.27751e-05
-2.01157e-07
1.27943e-05
-1.96316e-07
1.2813e-05
-1.91533e-07
1.28312e-05
-1.86842e-07
1.28488e-05
-1.8227e-07
1.28658e-05
-1.77319e-07
1.28817e-05
-1.72919e-07
-1.58034e-07
1.28942e-05
1.25193e-05
-1.62404e-07
1.25403e-05
-2.1264e-07
1.25613e-05
-2.24479e-07
1.25833e-05
-2.37489e-07
1.26058e-05
-2.45367e-07
1.26283e-05
-2.47611e-07
1.26507e-05
-2.46891e-07
1.26728e-05
-2.44429e-07
1.26944e-05
-2.40752e-07
1.27156e-05
-2.36266e-07
1.27362e-05
-2.31279e-07
1.27562e-05
-2.26008e-07
1.27757e-05
-2.20605e-07
1.27945e-05
-2.15185e-07
1.28128e-05
-2.09828e-07
1.28305e-05
-2.04571e-07
1.28477e-05
-1.99423e-07
1.28642e-05
-1.93795e-07
1.28795e-05
-1.88287e-07
-1.69657e-07
1.28912e-05
1.2521e-05
-1.83438e-07
1.25425e-05
-2.34081e-07
1.25635e-05
-2.45521e-07
1.25856e-05
-2.59533e-07
1.2608e-05
-2.67828e-07
1.26305e-05
-2.70046e-07
1.26526e-05
-2.6908e-07
1.26744e-05
-2.66225e-07
1.26957e-05
-2.62055e-07
1.27165e-05
-2.57009e-07
1.27366e-05
-2.51421e-07
1.27561e-05
-2.45526e-07
1.2775e-05
-2.39491e-07
1.27933e-05
-2.33438e-07
1.28109e-05
-2.27457e-07
1.28279e-05
-2.21586e-07
1.28443e-05
-2.15816e-07
1.286e-05
-2.09487e-07
1.28745e-05
-2.02815e-07
-1.80111e-07
1.2885e-05
1.2523e-05
-2.06451e-07
1.25449e-05
-2.55932e-07
1.25659e-05
-2.66603e-07
1.25879e-05
-2.8151e-07
1.26102e-05
-2.90079e-07
1.26323e-05
-2.92155e-07
1.2654e-05
-2.90839e-07
1.26753e-05
-2.87495e-07
1.2696e-05
-2.82743e-07
1.2716e-05
-2.77053e-07
1.27354e-05
-2.70784e-07
1.27541e-05
-2.64188e-07
1.2772e-05
-2.57444e-07
1.27893e-05
-2.50684e-07
1.28058e-05
-2.44004e-07
1.28217e-05
-2.37445e-07
1.28368e-05
-2.30986e-07
1.28513e-05
-2.23914e-07
1.28645e-05
-2.1602e-07
-1.88942e-07
1.28733e-05
1.25253e-05
-2.31727e-07
1.25474e-05
-2.78061e-07
1.25683e-05
-2.87537e-07
1.259e-05
-3.0317e-07
1.26117e-05
-3.11806e-07
1.26331e-05
-3.13572e-07
1.26541e-05
-3.11759e-07
1.26744e-05
-3.0779e-07
1.26939e-05
-3.02326e-07
1.27128e-05
-2.95869e-07
1.27308e-05
-2.88797e-07
1.2748e-05
-2.81381e-07
1.27643e-05
-2.7381e-07
1.27799e-05
-2.66224e-07
1.27946e-05
-2.58725e-07
1.28085e-05
-2.5136e-07
1.28216e-05
-2.44094e-07
1.28339e-05
-2.36198e-07
1.28449e-05
-2.27011e-07
-1.95358e-07
1.28513e-05
1.25277e-05
-2.59472e-07
1.25498e-05
-3.00135e-07
1.25702e-05
-3.07888e-07
1.2591e-05
-3.23988e-07
1.26116e-05
-3.3239e-07
1.26316e-05
-3.33599e-07
1.26509e-05
-3.31062e-07
1.26694e-05
-3.26252e-07
1.26869e-05
-3.19867e-07
1.27035e-05
-3.12435e-07
1.2719e-05
-3.04356e-07
1.27336e-05
-2.95912e-07
1.27471e-05
-2.87304e-07
1.27595e-05
-2.78678e-07
1.27709e-05
-2.7014e-07
1.27813e-05
-2.61739e-07
1.27906e-05
-2.53437e-07
1.2799e-05
-2.44517e-07
1.28059e-05
-2.33917e-07
-1.97775e-07
1.28083e-05
1.253e-05
-2.89482e-07
1.25513e-05
-3.21391e-07
1.25701e-05
-3.26696e-07
1.25889e-05
-3.42839e-07
1.2607e-05
-3.505e-07
1.26242e-05
-3.50716e-07
1.26401e-05
-3.47043e-07
1.26549e-05
-3.40981e-07
1.26683e-05
-3.33266e-07
1.26803e-05
-3.2445e-07
1.26909e-05
-3.14949e-07
1.27e-05
-3.05057e-07
1.27077e-05
-2.94976e-07
1.27139e-05
-2.84853e-07
1.27185e-05
-2.74792e-07
1.27216e-05
-2.64842e-07
1.27231e-05
-2.54958e-07
1.27231e-05
-2.44486e-07
1.27213e-05
-2.32157e-07
-1.92497e-07
1.27161e-05
1.25308e-05
-3.20311e-07
1.25492e-05
-3.39745e-07
1.2564e-05
-3.41556e-07
1.2578e-05
-3.56797e-07
1.25901e-05
-3.62589e-07
1.26002e-05
-3.60795e-07
1.26081e-05
-3.55011e-07
1.26139e-05
-3.46732e-07
1.26173e-05
-3.36727e-07
1.26185e-05
-3.25568e-07
1.26172e-05
-3.13676e-07
1.26135e-05
-3.01341e-07
1.26073e-05
-2.88756e-07
1.25985e-05
-2.76062e-07
1.2587e-05
-2.63354e-07
1.25729e-05
-2.50685e-07
1.25559e-05
-2.38033e-07
1.25363e-05
-2.24889e-07
1.25144e-05
-2.10218e-07
-1.70779e-07
1.24927e-05
1.25262e-05
-3.4654e-07
1.25337e-05
-3.47223e-07
1.25359e-05
-3.43784e-07
1.25342e-05
-3.55047e-07
1.25273e-05
-3.5575e-07
1.25156e-05
-3.49051e-07
1.24991e-05
-3.38482e-07
1.24779e-05
-3.25521e-07
1.24521e-05
-3.10976e-07
1.2422e-05
-2.95426e-07
1.23876e-05
-2.79284e-07
1.23491e-05
-2.62837e-07
1.23066e-05
-2.46288e-07
1.22603e-05
-2.29808e-07
1.22105e-05
-2.13547e-07
1.21575e-05
-1.97638e-07
1.21016e-05
-1.82177e-07
1.20437e-05
-1.6693e-07
1.19849e-05
-1.51426e-07
-1.21369e-07
1.19355e-05
1.24955e-05
-3.42009e-07
1.24494e-05
-3.01196e-07
1.23924e-05
-2.86782e-07
1.23212e-05
-2.83842e-07
1.22379e-05
-2.72442e-07
1.21454e-05
-2.56547e-07
1.2046e-05
-2.39103e-07
1.19418e-05
-2.2132e-07
1.18346e-05
-2.03778e-07
1.1726e-05
-1.86801e-07
1.16173e-05
-1.7056e-07
1.15096e-05
-1.55134e-07
1.14039e-05
-1.40559e-07
1.13009e-05
-1.26861e-07
1.12014e-05
-1.14063e-07
1.1106e-05
-1.02185e-07
1.1015e-05
-9.1236e-08
1.09292e-05
-8.10669e-08
1.08491e-05
-7.13672e-08
-5.7839e-08
1.07856e-05
1.2158e-05
1.18568e-05
1.157e-05
1.12862e-05
1.10137e-05
1.07572e-05
1.05181e-05
1.02968e-05
1.0093e-05
9.90618e-06
9.73562e-06
9.58049e-06
9.43993e-06
9.31307e-06
9.199e-06
9.09682e-06
9.00558e-06
8.92452e-06
8.85315e-06
8.79531e-06
8.447e-06
8.46272e-09
1.99027e-07
8.22736e-06
-2.61503e-08
2.45791e-07
8.01137e-06
-7.39593e-08
2.89946e-07
7.84202e-06
-1.16642e-07
2.85992e-07
7.72102e-06
-1.50969e-07
2.71966e-07
7.64199e-06
-1.79522e-07
2.58549e-07
7.5957e-06
-2.02143e-07
2.48433e-07
7.57275e-06
-2.19364e-07
2.42314e-07
7.56552e-06
-2.32208e-07
2.3943e-07
7.56851e-06
-2.41801e-07
2.38815e-07
7.57798e-06
-2.49231e-07
2.39756e-07
7.59158e-06
-2.55413e-07
2.41813e-07
7.60784e-06
-2.61038e-07
2.44776e-07
7.62586e-06
-2.66541e-07
2.48525e-07
7.64503e-06
-2.72209e-07
2.53035e-07
7.66493e-06
-2.7828e-07
2.58375e-07
7.68528e-06
-2.84887e-07
2.64537e-07
7.70587e-06
-2.92126e-07
2.71531e-07
7.72655e-06
-3.00087e-07
2.79403e-07
7.74721e-06
-3.08835e-07
2.88177e-07
7.76775e-06
-3.18435e-07
2.9789e-07
7.7881e-06
-3.28983e-07
3.08637e-07
7.80818e-06
-3.4056e-07
3.20479e-07
7.82794e-06
-3.53212e-07
3.33445e-07
7.84737e-06
-3.66967e-07
3.47541e-07
7.86642e-06
-3.81866e-07
3.62813e-07
7.88505e-06
-3.97964e-07
3.79326e-07
7.90325e-06
-4.15276e-07
3.9708e-07
7.92098e-06
-4.33811e-07
4.16081e-07
7.93821e-06
-4.53595e-07
4.36361e-07
7.95492e-06
-4.74627e-07
4.57913e-07
7.97109e-06
-4.96902e-07
4.8073e-07
7.98669e-06
-5.20407e-07
5.04804e-07
8.0017e-06
-5.45119e-07
5.30107e-07
8.0161e-06
-5.71003e-07
5.56607e-07
8.02985e-06
-5.98013e-07
5.84257e-07
8.04294e-06
-6.26091e-07
6.12999e-07
8.05534e-06
-6.55167e-07
6.42762e-07
8.06704e-06
-6.85159e-07
6.73462e-07
8.07801e-06
-7.15977e-07
7.05005e-07
8.08824e-06
-7.47517e-07
7.37286e-07
8.09772e-06
-7.79672e-07
7.70192e-07
8.10644e-06
-8.12331e-07
8.03607e-07
8.1144e-06
-8.45376e-07
8.37411e-07
8.12161e-06
-8.78696e-07
8.71485e-07
8.12808e-06
-9.12178e-07
9.05713e-07
8.13381e-06
-9.45717e-07
9.39985e-07
8.13882e-06
-9.79212e-07
9.74196e-07
8.14314e-06
-1.01257e-06
1.00825e-06
8.14678e-06
-1.04571e-06
1.04206e-06
8.14978e-06
-1.07856e-06
1.07556e-06
8.15217e-06
-1.11105e-06
1.10866e-06
8.15398e-06
-1.14313e-06
1.14133e-06
8.15523e-06
-1.17476e-06
1.1735e-06
8.15597e-06
-1.20589e-06
1.20515e-06
8.15624e-06
-1.23651e-06
1.23624e-06
8.15605e-06
-1.2666e-06
1.26678e-06
8.15546e-06
-1.29616e-06
1.29674e-06
8.1545e-06
-1.32518e-06
1.32614e-06
8.15319e-06
-1.35369e-06
1.355e-06
8.15157e-06
-1.3817e-06
1.38332e-06
8.14966e-06
-1.40923e-06
1.41114e-06
8.14749e-06
-1.43633e-06
1.4385e-06
8.14508e-06
-1.46301e-06
1.46542e-06
8.14244e-06
-1.48933e-06
1.49196e-06
8.13959e-06
-1.51531e-06
1.51816e-06
8.13653e-06
-1.541e-06
1.54406e-06
8.13328e-06
-1.56644e-06
1.56969e-06
8.12983e-06
-1.59166e-06
1.59511e-06
8.12617e-06
-1.6167e-06
1.62035e-06
8.12231e-06
-1.64158e-06
1.64544e-06
8.11822e-06
-1.66633e-06
1.67041e-06
8.11389e-06
-1.69095e-06
1.69528e-06
8.10931e-06
-1.71547e-06
1.72005e-06
8.10444e-06
-1.73987e-06
1.74474e-06
8.09927e-06
-1.76416e-06
1.76933e-06
8.09375e-06
-1.7883e-06
1.79381e-06
8.08787e-06
-1.81227e-06
1.81815e-06
8.08159e-06
-1.83604e-06
1.84232e-06
8.07487e-06
-1.85955e-06
1.86627e-06
8.06767e-06
-1.88274e-06
1.88994e-06
8.05996e-06
-1.90554e-06
1.91326e-06
8.05169e-06
-1.92788e-06
1.93616e-06
8.04281e-06
-1.94967e-06
1.95855e-06
8.0333e-06
-1.97081e-06
1.98034e-06
8.02309e-06
-1.99121e-06
2.00142e-06
8.01215e-06
-2.01074e-06
2.02169e-06
8.00043e-06
-2.0293e-06
2.04103e-06
7.98789e-06
-2.04677e-06
2.05933e-06
7.97447e-06
-2.06303e-06
2.07646e-06
7.96013e-06
-2.07795e-06
2.0923e-06
7.94483e-06
-2.09141e-06
2.10673e-06
7.92851e-06
-2.10329e-06
2.11962e-06
7.91114e-06
-2.11347e-06
2.13086e-06
7.89265e-06
-2.12182e-06
2.14031e-06
7.87302e-06
-2.12823e-06
2.14788e-06
7.85218e-06
-2.13261e-06
2.15345e-06
7.83011e-06
-2.13484e-06
2.15692e-06
7.80677e-06
-2.13484e-06
2.1582e-06
7.78212e-06
-2.13252e-06
2.15719e-06
7.75613e-06
-2.12782e-06
2.15382e-06
7.7288e-06
-2.12067e-06
2.14802e-06
7.70013e-06
-2.11103e-06
2.13972e-06
7.67012e-06
-2.09884e-06
2.12887e-06
7.63882e-06
-2.08408e-06
2.11539e-06
7.60631e-06
-2.0667e-06
2.09923e-06
7.5727e-06
-2.04668e-06
2.08032e-06
7.53812e-06
-2.02398e-06
2.05858e-06
7.50278e-06
-1.99855e-06
2.03391e-06
7.46693e-06
-1.97032e-06
2.00618e-06
7.43087e-06
-1.93918e-06
1.97526e-06
7.39494e-06
-1.90503e-06
1.94097e-06
7.35952e-06
-1.86769e-06
1.90312e-06
7.32502e-06
-1.82701e-06
1.86152e-06
7.29182e-06
-1.78278e-06
1.81598e-06
7.26031e-06
-1.73482e-06
1.76635e-06
7.23079e-06
-1.68298e-06
1.71251e-06
7.20352e-06
-1.62717e-06
1.65444e-06
7.17867e-06
-1.56735e-06
1.59221e-06
7.15631e-06
-1.50361e-06
1.52597e-06
7.13643e-06
-1.43612e-06
1.45601e-06
7.11894e-06
-1.36519e-06
1.38268e-06
7.10368e-06
-1.29118e-06
1.30644e-06
7.09045e-06
-1.21458e-06
1.22781e-06
7.07902e-06
-1.13593e-06
1.14737e-06
7.06912e-06
-1.05579e-06
1.06569e-06
7.06051e-06
-9.74765e-07
9.83373e-07
7.05294e-06
-8.93435e-07
9.00999e-07
7.04619e-06
-8.12371e-07
8.19117e-07
7.04006e-06
-7.32105e-07
7.38233e-07
7.03436e-06
-6.53124e-07
6.58808e-07
7.02897e-06
-5.75858e-07
5.81245e-07
7.02375e-06
-5.00683e-07
5.05893e-07
7.01862e-06
-4.27912e-07
4.33036e-07
7.01351e-06
-3.57797e-07
3.62907e-07
7.00835e-06
-2.90531e-07
2.95675e-07
7.00313e-06
-2.26249e-07
2.31461e-07
6.99783e-06
-1.65032e-07
1.7033e-07
6.99243e-06
-1.06909e-07
1.12302e-07
6.98693e-06
-5.18765e-08
5.73628e-08
6.98134e-06
1.37908e-10
5.4465e-09
6.97566e-06
4.92417e-08
-4.3563e-08
6.96989e-06
9.55085e-08
-8.97481e-08
6.96405e-06
1.3902e-07
-1.3319e-07
6.95816e-06
1.79883e-07
-1.73995e-07
6.95222e-06
2.18225e-07
-2.12293e-07
6.94625e-06
2.54195e-07
-2.48232e-07
6.94026e-06
2.8796e-07
-2.81977e-07
6.93426e-06
3.197e-07
-3.13706e-07
6.92825e-06
3.49609e-07
-3.4361e-07
6.92225e-06
3.7789e-07
-3.71891e-07
6.91624e-06
4.04756e-07
-3.98758e-07
6.91024e-06
4.3043e-07
-4.24431e-07
6.90423e-06
4.55141e-07
-4.49135e-07
6.8982e-06
4.79125e-07
-4.73103e-07
6.89215e-06
5.02626e-07
-4.96576e-07
6.88605e-06
5.25896e-07
-5.19803e-07
6.87989e-06
5.49194e-07
-5.4304e-07
6.87365e-06
5.72789e-07
-5.66554e-07
6.8673e-06
5.96962e-07
-5.90621e-07
6.86083e-06
6.22005e-07
-6.1553e-07
6.85418e-06
6.48223e-07
-6.41585e-07
6.84735e-06
6.75938e-07
-6.69105e-07
6.84028e-06
7.05492e-07
-6.98428e-07
6.83294e-06
7.37247e-07
-7.29914e-07
6.82529e-06
7.7159e-07
-7.63948e-07
6.81729e-06
8.08937e-07
-8.00942e-07
6.80889e-06
8.49737e-07
-8.41341e-07
6.80004e-06
8.94475e-07
-8.85629e-07
6.79069e-06
9.4368e-07
-9.34332e-07
6.78078e-06
9.97931e-07
-9.88024e-07
6.77025e-06
1.05786e-06
-1.04734e-06
6.75904e-06
1.12417e-06
-1.11296e-06
6.74708e-06
1.19764e-06
-1.18568e-06
6.73429e-06
1.27912e-06
-1.26633e-06
6.7206e-06
1.36958e-06
-1.35589e-06
6.70593e-06
1.47009e-06
-1.45542e-06
6.69018e-06
1.58188e-06
-1.56614e-06
6.67326e-06
1.70634e-06
-1.68942e-06
6.65506e-06
1.84505e-06
-1.82685e-06
6.63546e-06
1.99984e-06
-1.98024e-06
6.61433e-06
2.17285e-06
-2.15172e-06
6.59152e-06
2.3666e-06
-2.34379e-06
6.56686e-06
2.58411e-06
-2.55945e-06
6.54014e-06
2.82903e-06
-2.80232e-06
6.51112e-06
3.10588e-06
-3.07686e-06
6.47951e-06
3.42025e-06
-3.38863e-06
6.44489e-06
3.77921e-06
-3.7446e-06
6.40672e-06
4.19165e-06
-4.15349e-06
6.36421e-06
4.66862e-06
-4.62611e-06
6.31616e-06
5.22354e-06
-5.17549e-06
6.26073e-06
5.87203e-06
-5.8166e-06
6.19518e-06
6.63131e-06
-6.56576e-06
6.11556e-06
7.5193e-06
-7.43968e-06
6.01627e-06
8.55512e-06
-8.45582e-06
5.89086e-06
9.76001e-06
-9.63459e-06
5.72901e-06
1.11761e-05
-1.10143e-05
5.53408e-06
1.28746e-05
-1.26796e-05
5.32246e-06
1.52935e-05
-1.50818e-05
1.96423e-05
-2.20884e-05
7.76868e-06
1.07484e-05
4.94605e-08
1.06861e-05
3.61088e-08
1.05936e-05
1.85616e-08
1.04798e-05
-2.79164e-09
1.03519e-05
-2.31224e-08
1.0216e-05
-4.36046e-08
1.00785e-05
-6.46146e-08
9.94499e-06
-8.58969e-08
9.8199e-06
-1.07121e-07
9.70596e-06
-1.27856e-07
9.60441e-06
-1.47689e-07
9.51531e-06
-1.66306e-07
9.43782e-06
-1.8355e-07
9.37069e-06
-1.99413e-07
9.31252e-06
-2.14041e-07
9.26196e-06
-2.27721e-07
9.21784e-06
-2.40766e-07
9.17919e-06
-2.5348e-07
9.14524e-06
-2.66139e-07
9.11537e-06
-2.78961e-07
9.08905e-06
-2.92122e-07
9.06585e-06
-3.05785e-07
9.04537e-06
-3.20082e-07
9.02727e-06
-3.35111e-07
9.01125e-06
-3.50944e-07
8.99704e-06
-3.67658e-07
8.98441e-06
-3.8533e-07
8.97314e-06
-4.04008e-07
8.96305e-06
-4.23729e-07
8.95399e-06
-4.4453e-07
8.94579e-06
-4.6643e-07
8.93832e-06
-4.89436e-07
8.93146e-06
-5.13547e-07
8.92509e-06
-5.38748e-07
8.9191e-06
-5.65013e-07
8.91339e-06
-5.92304e-07
8.90787e-06
-6.2057e-07
8.90245e-06
-6.4975e-07
8.89706e-06
-6.79769e-07
8.89162e-06
-7.10543e-07
8.88609e-06
-7.41979e-07
8.88039e-06
-7.73976e-07
8.87449e-06
-8.06431e-07
8.86835e-06
-8.39235e-07
8.86193e-06
-8.72282e-07
8.85522e-06
-9.05469e-07
8.8482e-06
-9.38696e-07
8.84085e-06
-9.7187e-07
8.83319e-06
-1.0049e-06
8.82519e-06
-1.03772e-06
8.81688e-06
-1.07025e-06
8.80826e-06
-1.10244e-06
8.79935e-06
-1.13422e-06
8.79016e-06
-1.16557e-06
8.78071e-06
-1.19645e-06
8.77103e-06
-1.22683e-06
8.76113e-06
-1.25671e-06
8.75105e-06
-1.28608e-06
8.74081e-06
-1.31494e-06
8.73043e-06
-1.34331e-06
8.71993e-06
-1.3712e-06
8.70933e-06
-1.39864e-06
8.69865e-06
-1.42565e-06
8.68792e-06
-1.45228e-06
8.67713e-06
-1.47854e-06
8.6663e-06
-1.50448e-06
8.65543e-06
-1.53014e-06
8.64453e-06
-1.55554e-06
8.63359e-06
-1.58073e-06
8.6226e-06
-1.60572e-06
8.61156e-06
-1.63054e-06
8.60045e-06
-1.65522e-06
8.58926e-06
-1.67976e-06
8.57795e-06
-1.70416e-06
8.56651e-06
-1.72843e-06
8.5549e-06
-1.75255e-06
8.5431e-06
-1.7765e-06
8.53106e-06
-1.80024e-06
8.51876e-06
-1.82374e-06
8.50615e-06
-1.84694e-06
8.49319e-06
-1.86978e-06
8.47984e-06
-1.89219e-06
8.46606e-06
-1.9141e-06
8.4518e-06
-1.93541e-06
8.43701e-06
-1.95602e-06
8.42165e-06
-1.97584e-06
8.40567e-06
-1.99476e-06
8.38902e-06
-2.01265e-06
8.37165e-06
-2.0294e-06
8.35352e-06
-2.04489e-06
8.33457e-06
-2.059e-06
8.31476e-06
-2.0716e-06
8.29403e-06
-2.08256e-06
8.27234e-06
-2.09177e-06
8.24964e-06
-2.0991e-06
8.22587e-06
-2.10445e-06
8.20098e-06
-2.10771e-06
8.17493e-06
-2.10878e-06
8.14768e-06
-2.10757e-06
8.11917e-06
-2.104e-06
8.08936e-06
-2.098e-06
8.05823e-06
-2.08953e-06
8.02574e-06
-2.07853e-06
7.99189e-06
-2.06498e-06
7.95669e-06
-2.04886e-06
7.92016e-06
-2.03016e-06
7.88237e-06
-2.00888e-06