/*--------------------------------*- C++ -*----------------------------------*\
| =========                 |                                                 |
| \\      /  F ield         | OpenFOAM: The Open Source CFD Toolbox           |
|  \\    /   O peration     | Version:  2.4.0                                 |
|   \\  /    A nd           | Web:      www.OpenFOAM.org                      |
|    \\/     M anipulation  |                                                 |
\*---------------------------------------------------------------------------*/
FoamFile
{
    version     2.0;
    format      ascii;
    class       surfaceScalarField;
    location    "0.102";
    object      phi;
}
// * * * * * * * * * * * * * * * * * * * * * * * * * * * * * * * * * * * * * //

dimensions      [0 3 -1 0 0 0 0];

internalField   nonuniform List<scalar> 
34880
(
5.48916e-06
7.01084e-06
3.12552e-06
2.36364e-06
2.47185e-06
6.53676e-07
2.21784e-06
2.54005e-07
2.07643e-06
1.41408e-07
1.96771e-06
1.08726e-07
1.88605e-06
8.16543e-08
1.8222e-06
6.38527e-08
1.77302e-06
4.9181e-08
1.73778e-06
3.52378e-08
1.71332e-06
2.44653e-08
1.67491e-06
3.8412e-08
1.68666e-06
-1.1758e-08
1.63063e-06
5.60362e-08
1.66518e-06
-3.45554e-08
1.68162e-06
-1.64414e-08
1.69808e-06
-1.64609e-08
1.76358e-06
-6.5496e-08
1.94174e-06
-1.78156e-07
-1.08473e-06
3.02647e-06
1.01132e-05
9.39761e-06
7.83151e-06
4.64536e-06
6.70869e-06
1.77649e-06
6.06298e-06
8.99711e-07
5.64688e-06
5.57513e-07
5.34932e-06
4.06288e-07
5.12263e-06
3.08338e-07
4.9456e-06
2.40886e-07
4.80595e-06
1.88829e-07
4.70323e-06
1.37959e-07
4.61647e-06
1.1123e-07
4.5379e-06
1.16982e-07
4.5029e-06
2.32327e-08
4.40906e-06
1.49885e-07
4.44769e-06
-7.31863e-08
4.41257e-06
1.86787e-08
4.46233e-06
-6.62224e-08
4.57484e-06
-1.78011e-07
4.8816e-06
-4.84914e-07
-1.9246e-06
5.72147e-06
1.24284e-05
9.46917e-06
1.10063e-05
6.06748e-06
9.97882e-06
2.804e-06
9.20239e-06
1.67614e-06
8.61936e-06
1.14055e-06
8.1908e-06
8.34841e-07
7.8573e-06
6.41845e-07
7.59493e-06
5.03248e-07
7.38226e-06
4.01498e-07
7.22494e-06
2.9528e-07
7.08154e-06
2.54633e-07
6.97582e-06
2.22702e-07
6.88805e-06
1.11002e-07
6.77457e-06
2.63369e-07
6.8012e-06
-9.9824e-08
6.71019e-06
1.09695e-07
6.76406e-06
-1.20099e-07
6.92263e-06
-3.36579e-07
7.21817e-06
-7.80457e-07
-2.32531e-06
7.61888e-06
1.34151e-05
8.55403e-06
1.28925e-05
6.59007e-06
1.2325e-05
3.37151e-06
1.17169e-05
2.2843e-06
1.11333e-05
1.72416e-06
1.06598e-05
1.3083e-06
1.02735e-05
1.02819e-06
9.95974e-06
8.16978e-07
9.69795e-06
6.63284e-07
9.50404e-06
4.89191e-07
9.31292e-06
4.45752e-07
9.19175e-06
3.43877e-07
9.05894e-06
2.43805e-07
8.92356e-06
3.98749e-07
8.95071e-06
-1.2697e-07
8.80389e-06
2.56509e-07
8.83336e-06
-1.49564e-07
9.02687e-06
-5.30092e-07
9.33824e-06
-1.09183e-06
-2.41868e-06
9.43161e-06
1.3592e-05
7.46206e-06
1.36648e-05
6.51725e-06
1.36238e-05
3.41253e-06
1.34017e-05
2.50636e-06
1.30176e-05
2.10828e-06
1.26266e-05
1.69926e-06
1.22726e-05
1.38226e-06
1.19657e-05
1.12382e-06
1.16935e-05
9.35469e-07
1.1495e-05
6.8772e-07
1.12741e-05
6.66631e-07
1.11548e-05
4.63236e-07
1.09964e-05
4.02186e-07
1.08345e-05
5.60651e-07
1.08837e-05
-1.76199e-07
1.06899e-05
4.50374e-07
1.06857e-05
-1.45424e-07
1.08886e-05
-7.32977e-07
1.12086e-05
-1.41184e-06
-2.7548e-06
1.15447e-05
1.348e-05
6.4821e-06
1.37581e-05
6.23916e-06
1.40007e-05
3.16989e-06
1.41435e-05
2.3636e-06
1.40816e-05
2.17016e-06
1.39025e-05
1.87837e-06
1.36919e-05
1.59278e-06
1.3479e-05
1.33675e-06
1.32577e-05
1.1568e-06
1.3104e-05
8.41423e-07
1.28861e-05
8.84519e-07
1.27901e-05
5.59202e-07
1.26438e-05
5.48557e-07
1.24529e-05
7.51497e-07
1.25471e-05
-2.70398e-07
1.23271e-05
6.70339e-07
1.22924e-05
-1.10667e-07
1.24935e-05
-9.34088e-07
1.27788e-05
-1.69711e-06
-3.2101e-06
1.32341e-05
1.33527e-05
5.62944e-06
1.3694e-05
5.89784e-06
1.39415e-05
2.92235e-06
1.42159e-05
2.08918e-06
1.43856e-05
2.00051e-06
1.44155e-05
1.84845e-06
1.43964e-05
1.61185e-06
1.43483e-05
1.3849e-06
1.42484e-05
1.25669e-06
1.42012e-05
8.88619e-07
1.4043e-05
1.0427e-06
1.39982e-05
6.04083e-07
1.39156e-05
6.31064e-07
1.37125e-05
9.5464e-07
1.38637e-05
-4.21604e-07
1.36541e-05
8.7997e-07
1.36047e-05
-6.13206e-08
1.38116e-05
-1.14098e-06
1.39956e-05
-1.88113e-06
-2.88277e-06
1.36683e-05
1.3251e-05
4.87841e-06
1.36785e-05
5.47032e-06
1.38259e-05
2.77497e-06
1.40833e-05
1.83178e-06
1.43184e-05
1.76539e-06
1.44462e-05
1.72065e-06
1.45321e-05
1.52596e-06
1.46096e-05
1.30741e-06
1.46324e-05
1.2339e-06
1.46985e-05
8.22521e-07
1.46482e-05
1.09304e-06
1.46746e-05
5.77613e-07
1.46987e-05
6.06986e-07
1.45306e-05
1.12275e-06
1.47397e-05
-6.30711e-07
1.45808e-05
1.03885e-06
1.45579e-05
-3.83837e-08
1.47861e-05
-1.36917e-06
1.48538e-05
-1.94889e-06
-2.22595e-06
1.4197e-05
1.31797e-05
4.19866e-06
1.36073e-05
5.04275e-06
1.37381e-05
2.64421e-06
1.39707e-05
1.59918e-06
1.41817e-05
1.55441e-06
1.43346e-05
1.5677e-06
1.44473e-05
1.41332e-06
1.45618e-05
1.19283e-06
1.46658e-05
1.12994e-06
1.47615e-05
7.26803e-07
1.48023e-05
1.05222e-06
1.48761e-05
5.03808e-07
1.49616e-05
5.21542e-07
1.48828e-05
1.20156e-06
1.51199e-05
-8.67844e-07
1.50321e-05
1.12665e-06
1.50629e-05
-6.91687e-08
1.5354e-05
-1.66024e-06
1.54264e-05
-2.02136e-06
-2.86754e-06
1.6068e-05
1.31278e-05
3.5709e-06
1.35428e-05
4.62769e-06
1.36621e-05
2.52498e-06
1.39048e-05
1.35646e-06
1.4086e-05
1.37318e-06
1.42253e-05
1.42844e-06
1.43399e-05
1.29866e-06
1.44261e-05
1.10667e-06
1.46225e-05
9.33531e-07
1.46673e-05
6.81973e-07
1.47744e-05
9.4519e-07
1.48728e-05
4.05379e-07
1.48978e-05
4.96503e-07
1.49591e-05
1.1403e-06
1.51326e-05
-1.0414e-06
1.51032e-05
1.15608e-06
1.5192e-05
-1.5794e-07
1.55195e-05
-1.98778e-06
1.5629e-05
-2.1308e-06
-3.38119e-06
1.61426e-05
1.30642e-05
3.00674e-06
1.35065e-05
4.18532e-06
1.36072e-05
2.42427e-06
1.38495e-05
1.11415e-06
1.40272e-05
1.19554e-06
1.41803e-05
1.27535e-06
1.42645e-05
1.21443e-06
1.4299e-05
1.07222e-06
1.45752e-05
6.57325e-07
1.45506e-05
7.06522e-07
1.47152e-05
7.80596e-07
1.4816e-05
3.04625e-07
1.47724e-05
5.40068e-07
1.49758e-05
9.36903e-07
1.49952e-05
-1.06085e-06
1.50363e-05
1.11498e-06
1.51931e-05
-3.14673e-07
1.54474e-05
-2.24212e-06
1.55894e-05
-2.2728e-06
-3.58938e-06
1.57976e-05
1.30036e-05
2.50313e-06
1.34712e-05
3.71769e-06
1.35672e-05
2.32834e-06
1.3794e-05
8.87323e-07
1.39802e-05
1.00935e-06
1.41592e-05
1.09638e-06
1.42034e-05
1.17018e-06
1.42598e-05
1.01579e-06
1.44919e-05
4.25215e-07
1.44544e-05
7.4407e-07
1.46822e-05
5.52816e-07
1.47254e-05
2.61359e-07
1.47228e-05
5.42666e-07
1.49592e-05
7.00501e-07
1.48393e-05
-9.40912e-07
1.49833e-05
9.70971e-07
1.51775e-05
-5.08854e-07
1.52855e-05
-2.35014e-06
1.53901e-05
-2.37742e-06
-3.67604e-06
1.54768e-05
1.29514e-05
2.05173e-06
1.34056e-05
3.26347e-06
1.35649e-05
2.16908e-06
1.37542e-05
6.97977e-07
1.39328e-05
8.30761e-07
1.4101e-05
9.28238e-07
1.41661e-05
1.10501e-06
1.42801e-05
9.01848e-07
1.43769e-05
3.28361e-07
1.44219e-05
6.99105e-07
1.46478e-05
3.26922e-07
1.46105e-05
2.98635e-07
1.4732e-05
4.2122e-07
1.48776e-05
5.54856e-07
1.47126e-05
-7.75909e-07
1.50176e-05
6.6595e-07
1.51203e-05
-6.11585e-07
1.51176e-05
-2.34737e-06
1.526e-05
-2.51987e-06
-3.85798e-06
1.5442e-05
1.2893e-05
1.6587e-06
1.33369e-05
2.81956e-06
1.36088e-05
1.89725e-06
1.37251e-05
5.81616e-07
1.38741e-05
6.81793e-07
1.40242e-05
7.78122e-07
1.41506e-05
9.78589e-07
1.42634e-05
7.89128e-07
1.43032e-05
2.88482e-07
1.44451e-05
5.57219e-07
1.45469e-05
2.25144e-07
1.45443e-05
3.01219e-07
1.47265e-05
2.39073e-07
1.4749e-05
5.32371e-07
1.46903e-05
-7.17303e-07
1.50627e-05
2.9364e-07
1.50115e-05
-5.60466e-07
1.50401e-05
-2.3759e-06
1.52594e-05
-2.73919e-06
-4.11401e-06
1.55154e-05
1.28459e-05
1.3128e-06
1.33091e-05
2.35639e-06
1.36122e-05
1.59416e-06
1.36792e-05
5.14598e-07
1.38236e-05
5.37404e-07
1.39712e-05
6.30518e-07
1.41335e-05
8.16249e-07
1.42129e-05
7.09703e-07
1.4291e-05
2.10439e-07
1.44454e-05
4.02827e-07
1.44322e-05
2.38352e-07
1.45534e-05
1.79976e-07
1.46647e-05
1.27811e-07
1.46679e-05
5.29191e-07
1.47541e-05
-8.03593e-07
1.49984e-05
4.93864e-08
1.49303e-05
-4.92351e-07
1.50497e-05
-2.49529e-06
1.52565e-05
-2.94603e-06
-4.22236e-06
1.53649e-05
1.28247e-05
9.88147e-07
1.32887e-05
1.8923e-06
1.35686e-05
1.31427e-06
1.36457e-05
4.37546e-07
1.38032e-05
3.79889e-07
1.39419e-05
4.9177e-07
1.40937e-05
6.64541e-07
1.41824e-05
6.20952e-07
1.42964e-05
9.64116e-08
1.43852e-05
3.14105e-07
1.43964e-05
2.27074e-07
1.45708e-05
5.60013e-09
1.45693e-05
1.29278e-07
1.46682e-05
4.30301e-07
1.47788e-05
-9.14111e-07
1.48684e-05
-4.02472e-08
1.49153e-05
-5.39311e-07
1.50674e-05
-2.64735e-06
1.51678e-05
-3.04638e-06
-4.14443e-06
1.50898e-05
1.28013e-05
6.8688e-07
1.324e-05
1.45358e-06
1.35331e-05
1.02116e-06
1.36598e-05
3.1088e-07
1.37859e-05
2.5378e-07
1.39055e-05
3.72187e-07
1.40437e-05
5.26316e-07
1.41827e-05
4.81914e-07
1.42794e-05
-2.88697e-10
1.43239e-05
2.69647e-07
1.44357e-05
1.15235e-07
1.452e-05
-7.86644e-08
1.45021e-05
1.4711e-07
1.47084e-05
2.24097e-07
1.47098e-05
-9.15589e-07
1.47848e-05
-1.15197e-07
1.49426e-05
-6.97108e-07
1.5037e-05
-2.7418e-06
1.50179e-05
-3.02728e-06
-4.11553e-06
1.4989e-05
1.27693e-05
4.17592e-07
1.32128e-05
1.01005e-06
1.35392e-05
6.94782e-07
1.36675e-05
1.82587e-07
1.37462e-05
1.75099e-07
1.38672e-05
2.51211e-07
1.40266e-05
3.66884e-07
1.41944e-05
3.1408e-07
1.42332e-05
-3.91003e-08
1.4315e-05
1.8784e-07
1.44515e-05
-2.12043e-08
1.44255e-05
-5.27236e-08
1.45068e-05
6.58397e-08
1.47242e-05
6.73195e-09
1.46224e-05
-8.13779e-07
1.47795e-05
-2.72364e-07
1.49567e-05
-8.74257e-07
1.49527e-05
-2.73783e-06
1.49324e-05
-3.00698e-06
-4.33188e-06
1.51488e-05
1.27611e-05
1.56487e-07
1.32177e-05
5.5343e-07
1.35332e-05
3.79357e-07
1.36448e-05
7.09723e-08
1.37224e-05
9.74855e-08
1.38596e-05
1.13952e-07
1.40394e-05
1.87074e-07
1.41784e-05
1.7508e-07
1.41924e-05
-5.30581e-08
1.43383e-05
4.19524e-08
1.44118e-05
-9.47569e-08
1.43849e-05
-2.57529e-08
1.45609e-05
-1.10174e-07
1.4672e-05
-1.04383e-07
1.46024e-05
-7.44199e-07
1.4795e-05
-4.6493e-07
1.49216e-05
-1.00087e-06
1.48856e-05
-2.70187e-06
1.49554e-05
-3.07674e-06
-4.61176e-06
1.52353e-05
1.27696e-05
-1.13111e-07
1.32062e-05
1.16876e-07
1.35073e-05
7.82107e-08
1.36463e-05
-6.80129e-08
1.37269e-05
1.69093e-08
1.38681e-05
-2.73348e-08
1.40356e-05
1.96657e-08
1.41378e-05
7.28855e-08
1.41931e-05
-1.08457e-07
1.43649e-05
-1.29826e-07
1.43644e-05
-9.42187e-08
1.44212e-05
-8.25195e-08
1.45725e-05
-2.61552e-07
1.46167e-05
-1.48533e-07
1.4608e-05
-7.35533e-07
1.4799e-05
-6.55923e-07
1.48786e-05
-1.08048e-06
1.48706e-05
-2.69384e-06
1.49702e-05
-3.17632e-06
-4.84502e-06
1.52034e-05
1.2768e-05
-3.81142e-07
1.31829e-05
-2.97947e-07
1.35086e-05
-2.47538e-07
1.36685e-05
-2.27896e-07
1.37208e-05
-3.54316e-08
1.38741e-05
-1.80563e-07
1.40146e-05
-1.20876e-07
1.41207e-05
-3.32525e-08
1.42398e-05
-2.27474e-07
1.43555e-05
-2.45535e-07
1.4349e-05
-8.77518e-08
1.44531e-05
-1.86602e-07
1.45488e-05
-3.57319e-07
1.45889e-05
-1.88576e-07
1.46365e-05
-7.83195e-07
1.47926e-05
-8.11946e-07
1.48741e-05
-1.16204e-06
1.48479e-05
-2.66762e-06
1.49279e-05
-3.25636e-06
-5.10996e-06
1.51929e-05
1.27595e-05
-6.40592e-07
1.31803e-05
-7.1882e-07
1.3536e-05
-6.03236e-07
1.36637e-05
-3.55601e-07
1.37121e-05
-8.37883e-08
1.38935e-05
-3.61993e-07
1.40047e-05
-2.32085e-07
1.41397e-05
-1.68257e-07
1.4281e-05
-3.68716e-07
1.4309e-05
-2.73555e-07
1.43664e-05
-1.45167e-07
1.44653e-05
-2.85499e-07
1.45385e-05
-4.30521e-07
1.45878e-05
-2.3788e-07
1.46771e-05
-8.72521e-07
1.47706e-05
-9.05373e-07
1.48676e-05
-1.25907e-06
1.48339e-05
-2.63395e-06
1.48177e-05
-3.24013e-06
-3.92377e-06
1.36315e-05
1.27598e-05
-9.00424e-07
1.32103e-05
-1.16927e-06
1.3558e-05
-9.50977e-07
1.36454e-05
-4.42937e-07
1.37312e-05
-1.69635e-07
1.39174e-05
-5.48172e-07
1.40006e-05
-3.15303e-07
1.41772e-05
-3.44837e-07
1.42764e-05
-4.67945e-07
1.42948e-05
-2.91959e-07
1.43984e-05
-2.48754e-07
1.44909e-05
-3.78032e-07
1.45208e-05
-4.60368e-07
1.46281e-05
-3.45221e-07
1.46716e-05
-9.1597e-07
1.47749e-05
-1.00869e-06
1.48498e-05
-1.33403e-06
1.48586e-05
-2.64269e-06
1.49035e-05
-3.28502e-06
-4.18905e-06
1.51688e-05
1.27798e-05
-1.18027e-06
1.32573e-05
-1.64671e-06
1.35634e-05
-1.25708e-06
1.3641e-05
-5.20569e-07
1.37729e-05
-3.01518e-07
1.39228e-05
-6.98025e-07
1.40084e-05
-4.00922e-07
1.42157e-05
-5.5218e-07
1.42696e-05
-5.21768e-07
1.43166e-05
-3.38973e-07
1.44511e-05
-3.83328e-07
1.44849e-05
-4.11778e-07
1.45306e-05
-5.06118e-07
1.46524e-05
-4.67006e-07
1.46776e-05
-9.41146e-07
1.47832e-05
-1.11429e-06
1.48568e-05
-1.40763e-06
1.48871e-05
-2.67297e-06
1.49199e-05
-3.31783e-06
-4.29166e-06
1.50225e-05
1.28194e-05
-1.49969e-06
1.32923e-05
-2.11954e-06
1.3556e-05
-1.52084e-06
1.36707e-05
-6.35247e-07
1.38044e-05
-4.35237e-07
1.39195e-05
-8.13109e-07
1.40521e-05
-5.33568e-07
1.4245e-05
-7.4507e-07
1.42744e-05
-5.51129e-07
1.43629e-05
-4.27464e-07
1.44734e-05
-4.93814e-07
1.4486e-05
-4.24396e-07
1.4565e-05
-5.85145e-07
1.46775e-05
-5.7949e-07
1.47019e-05
-9.65565e-07
1.47995e-05
-1.21183e-06
1.48804e-05
-1.4886e-06
1.49053e-05
-2.69783e-06
1.49165e-05
-3.32902e-06
-4.29745e-06
1.49223e-05
1.28586e-05
-1.85833e-06
1.33084e-05
-2.56934e-06
1.35708e-05
-1.78321e-06
1.37132e-05
-7.77669e-07
1.38147e-05
-5.36724e-07
1.39489e-05
-9.47288e-07
1.41148e-05
-6.99449e-07
1.42586e-05
-8.88872e-07
1.43025e-05
-5.95088e-07
1.44033e-05
-5.2823e-07
1.44859e-05
-5.76385e-07
1.45263e-05
-4.64862e-07
1.46003e-05
-6.59069e-07
1.47147e-05
-6.9388e-07
1.47241e-05
-9.74975e-07
1.48213e-05
-1.30906e-06
1.49025e-05
-1.56984e-06
1.49282e-05
-2.72349e-06
1.49237e-05
-3.32448e-06
-4.29234e-06
1.49185e-05
1.28899e-05
-2.2482e-06
1.33395e-05
-3.01899e-06
1.36101e-05
-2.05383e-06
1.37349e-05
-9.02397e-07
1.38373e-05
-6.39144e-07
1.40155e-05
-1.12556e-06
1.41612e-05
-8.45061e-07
1.42759e-05
-1.00362e-06
1.4347e-05
-6.6617e-07
1.44368e-05
-6.18014e-07
1.45233e-05
-6.62858e-07
1.45753e-05
-5.16866e-07
1.46381e-05
-7.21882e-07
1.47516e-05
-8.0739e-07
1.47564e-05
-9.79815e-07
1.48519e-05
-1.40453e-06
1.49296e-05
-1.64757e-06
1.49553e-05
-2.74912e-06
1.49614e-05
-3.33065e-06
-4.33333e-06
1.50024e-05
1.29289e-05
-2.67714e-06
1.33985e-05
-3.48856e-06
1.3607e-05
-2.26231e-06
1.37473e-05
-1.04269e-06
1.38982e-05
-7.90048e-07
1.40816e-05
-1.30895e-06
1.41969e-05
-9.60356e-07
1.43138e-05
-1.12048e-06
1.43949e-05
-7.4736e-07
1.44811e-05
-7.04195e-07
1.45707e-05
-7.5244e-07
1.46213e-05
-5.67447e-07
1.46826e-05
-7.83176e-07
1.47973e-05
-9.22078e-07
1.48036e-05
-9.86193e-07
1.48899e-05
-1.49077e-06
1.49596e-05
-1.71734e-06
1.49979e-05
-2.78742e-06
1.50069e-05
-3.33958e-06
-4.37575e-06
1.50493e-05
1.29874e-05
-3.16455e-06
1.34593e-05
-3.9605e-06
1.35972e-05
-2.40018e-06
1.3782e-05
-1.22746e-06
1.39749e-05
-9.82927e-07
1.41349e-05
-1.46897e-06
1.42522e-05
-1.07771e-06
1.43602e-05
-1.22843e-06
1.44466e-05
-8.33797e-07
1.45294e-05
-7.86944e-07
1.46191e-05
-8.42128e-07
1.46706e-05
-6.19007e-07
1.47428e-05
-8.55373e-07
1.48512e-05
-1.03043e-06
1.48591e-05
-9.94165e-07
1.49349e-05
-1.56651e-06
1.4996e-05
-1.77842e-06
1.50342e-05
-2.82569e-06
1.5032e-05
-3.33734e-06
-4.43362e-06
1.50898e-05
1.30524e-05
-3.71696e-06
1.35044e-05
-4.41253e-06
1.36201e-05
-2.51584e-06
1.38407e-05
-1.44807e-06
1.40508e-05
-1.19306e-06
1.41965e-05
-1.6146e-06
1.43213e-05
-1.20258e-06
1.44045e-05
-1.31155e-06
1.45007e-05
-9.30076e-07
1.4579e-05
-8.65215e-07
1.46773e-05
-9.40366e-07
1.47346e-05
-6.76368e-07
1.48162e-05
-9.36953e-07
1.49059e-05
-1.1201e-06
1.4923e-05
-1.01135e-06
1.49814e-05
-1.62481e-06
1.50247e-05
-1.82174e-06
1.50473e-05
-2.84832e-06
1.50315e-05
-3.32149e-06
-4.5236e-06
1.51214e-05
1.31096e-05
-4.32659e-06
1.35487e-05
-4.85162e-06
1.36724e-05
-2.63949e-06
1.39146e-05
-1.69033e-06
1.41317e-05
-1.41016e-06
1.42655e-05
-1.74832e-06
1.43902e-05
-1.3273e-06
1.44576e-05
-1.37897e-06
1.4565e-05
-1.03745e-06
1.46503e-05
-9.50565e-07
1.47464e-05
-1.03646e-06
1.48097e-05
-7.39652e-07
1.48864e-05
-1.01364e-06
1.49508e-05
-1.18446e-06
1.49736e-05
-1.03417e-06
1.49933e-05
-1.64456e-06
1.50118e-05
-1.84018e-06
1.49692e-05
-2.80573e-06
1.48986e-05
-3.25089e-06
-4.57943e-06
1.49544e-05
1.31648e-05
-4.99135e-06
1.3609e-05
-5.29583e-06
1.3751e-05
-2.7815e-06
1.39974e-05
-1.93671e-06
1.42199e-05
-1.63266e-06
1.43458e-05
-1.87423e-06
1.44719e-05
-1.45339e-06
1.45326e-05
-1.43973e-06
1.46438e-05
-1.14866e-06
1.4726e-05
-1.03272e-06
1.47882e-05
-1.09866e-06
1.48458e-05
-7.97292e-07
1.48859e-05
-1.05365e-06
1.48959e-05
-1.19451e-06
1.48945e-05
-1.03273e-06
1.48397e-05
-1.58984e-06
1.47889e-05
-1.78939e-06
1.46155e-05
-2.63233e-06
1.44282e-05
-3.06359e-06
-4.55213e-06
1.44009e-05
1.32341e-05
-5.72545e-06
1.36804e-05
-5.74212e-06
1.38458e-05
-2.94686e-06
1.40949e-05
-2.18586e-06
1.43308e-05
-1.86858e-06
1.44355e-05
-1.97888e-06
1.45417e-05
-1.55963e-06
1.45735e-05
-1.47155e-06
1.46369e-05
-1.21208e-06
1.46613e-05
-1.0571e-06
1.46423e-05
-1.0797e-06
1.46442e-05
-7.99156e-07
1.45955e-05
-1.00491e-06
1.45149e-05
-1.11392e-06
1.44459e-05
-9.63721e-07
1.42948e-05
-1.43877e-06
1.41416e-05
-1.63624e-06
1.38488e-05
-2.33948e-06
1.35038e-05
-2.71858e-06
-3.52165e-06
1.24733e-05
1.33293e-05
-6.55477e-06
1.3703e-05
-6.11576e-06
1.39575e-05
-3.20144e-06
1.42084e-05
-2.43667e-06
1.43972e-05
-2.05746e-06
1.44035e-05
-1.98516e-06
1.44033e-05
-1.55937e-06
1.43258e-05
-1.39405e-06
1.42559e-05
-1.14224e-06
1.41627e-05
-9.63864e-07
1.40324e-05
-9.49407e-07
1.39445e-05
-7.11269e-07
1.38021e-05
-8.62477e-07
1.36436e-05
-9.55434e-07
1.3509e-05
-8.29111e-07
1.32904e-05
-1.22017e-06
1.3058e-05
-1.4039e-06
1.26981e-05
-1.97957e-06
1.23052e-05
-2.32572e-06
-3.22619e-06
1.20098e-05
1.34575e-05
-7.51228e-06
1.37713e-05
-6.42952e-06
1.40089e-05
-3.4391e-06
1.41307e-05
-2.55846e-06
1.40979e-05
-2.0246e-06
1.38909e-05
-1.77822e-06
1.36948e-05
-1.36327e-06
1.34628e-05
-1.16207e-06
1.32571e-05
-9.3645e-07
1.30648e-05
-7.71649e-07
1.28628e-05
-7.47372e-07
1.27163e-05
-5.648e-07
1.25254e-05
-6.71541e-07
1.23287e-05
-7.58773e-07
1.2159e-05
-6.5936e-07
1.19073e-05
-9.68457e-07
1.16331e-05
-1.12978e-06
1.12403e-05
-1.58671e-06
1.07841e-05
-1.86956e-06
-2.42406e-06
9.98199e-06
1.35744e-05
-8.5867e-06
1.36775e-05
-6.53261e-06
1.36269e-05
-3.38852e-06
1.33899e-05
-2.32148e-06
1.30328e-05
-1.66743e-06
1.2615e-05
-1.36048e-06
1.22718e-05
-1.02e-06
1.1952e-05
-8.42263e-07
1.16857e-05
-6.70234e-07
1.14573e-05
-5.43201e-07
1.12372e-05
-5.27269e-07
1.10725e-05
-4.00097e-07
1.08715e-05
-4.70548e-07
1.06672e-05
-5.54517e-07
1.04865e-05
-4.78638e-07
1.02265e-05
-7.08438e-07
9.93798e-06
-8.41261e-07
9.5325e-06
-1.18123e-06
9.06674e-06
-1.4038e-06
-1.76691e-06
8.40959e-06
1.34019e-05
-9.48862e-06
1.29028e-05
-6.03346e-06
1.23262e-05
-2.81193e-06
1.17075e-05
-1.70282e-06
1.11451e-05
-1.10498e-06
1.06494e-05
-8.64798e-07
1.02707e-05
-6.41346e-07
9.94687e-06
-5.18402e-07
9.68568e-06
-4.09039e-07
9.46862e-06
-3.26137e-07
9.2656e-06
-3.24255e-07
9.11036e-06
-2.44859e-07
8.9259e-06
-2.86087e-07
8.73393e-06
-3.62547e-07
8.56059e-06
-3.05295e-07
8.31336e-06
-4.61208e-07
8.03027e-06
-5.58174e-07
7.63982e-06
-7.90777e-07
7.17991e-06
-9.43887e-07
-1.21495e-06
6.62795e-06
1.24189e-05
-9.40755e-06
1.10141e-05
-4.62859e-06
9.98013e-06
-1.778e-06
9.19493e-06
-9.17614e-07
8.62743e-06
-5.37481e-07
8.18258e-06
-4.19948e-07
7.85316e-06
-3.11924e-07
7.58259e-06
-2.47835e-07
7.36799e-06
-1.94436e-07
7.19317e-06
-1.51318e-07
7.02889e-06
-1.59975e-07
6.90191e-06
-1.17881e-07
6.75252e-06
-1.36693e-07
6.58599e-06
-1.96017e-07
6.43638e-06
-1.55691e-07
6.22022e-06
-2.45045e-07
5.96396e-06
-3.01911e-07
5.61134e-06
-4.38155e-07
5.18524e-06
-5.17792e-07
-7.14888e-07
4.68518e-06
1.01067e-05
-7.01423e-06
7.83647e-06
-2.35837e-06
6.71111e-06
-6.52634e-07
6.05598e-06
-2.6249e-07
5.65222e-06
-1.33717e-07
5.34404e-06
-1.11771e-07
5.11735e-06
-8.52317e-08
4.93505e-06
-6.55378e-08
4.79223e-06
-5.1614e-08
4.67863e-06
-3.77162e-08
4.56571e-06
-4.70578e-08
4.4803e-06
-3.2474e-08
4.37949e-06
-3.58804e-08
4.25035e-06
-6.68747e-08
4.14187e-06
-4.72105e-08
3.97608e-06
-7.92607e-08
3.77454e-06
-1.00365e-07
3.48928e-06
-1.52901e-07
3.14745e-06
-1.75961e-07
-2.95149e-07
2.72771e-06
5.48577e-06
3.1274e-06
2.47476e-06
2.21227e-06
2.07856e-06
1.96678e-06
1.88155e-06
1.81601e-06
1.7644e-06
1.72668e-06
1.67963e-06
1.64715e-06
1.61127e-06
1.5444e-06
1.49719e-06
1.41793e-06
1.31756e-06
1.16466e-06
9.887e-07
6.93551e-07
3.51083e-06
-9.45846e-08
-3.89779e-07
4.23079e-06
9.1149e-07
-1.63145e-06
5.64202e-06
3.5748e-07
-1.76872e-06
6.81576e-06
-8.80489e-07
-2.93249e-07
7.46326e-06
-3.40233e-06
2.75483e-06
8.23603e-06
-6.70429e-06
5.93152e-06
8.82782e-06
-8.97101e-06
8.37922e-06
8.80669e-06
-1.1235e-05
1.12561e-05
8.62393e-06
-1.28943e-05
1.3077e-05
8.02038e-06
-1.28108e-05
1.34143e-05
7.38845e-06
-1.19049e-05
1.25368e-05
6.33602e-06
-1.02097e-05
1.12621e-05
5.17451e-06
-7.94717e-06
9.10869e-06
3.63165e-06
-6.06845e-06
7.61131e-06
2.24339e-06
-3.46967e-06
4.85793e-06
2.0942e-06
4.47285e-07
-2.98092e-07
3.74675e-06
2.71083e-06
-4.36338e-06
4.73614e-06
1.10291e-05
-1.20185e-05
5.65335e-06
1.74934e-05
-1.84107e-05
6.36629e-06
1.29376e-05
-1.36506e-05
7.1797e-06
1.10142e-05
-1.18276e-05
8.27839e-06
1.12326e-05
-1.23313e-05
8.90837e-06
1.11031e-05
-1.17331e-05
9.7202e-06
1.03085e-05
-1.11204e-05
1.04908e-05
8.42925e-06
-9.19984e-06
1.09954e-05
6.25687e-06
-6.76147e-06
1.11991e-05
4.82141e-06
-5.02511e-06
1.12457e-05
3.11284e-06
-3.15947e-06
1.13497e-05
-4.79891e-07
3.75916e-07
1.17924e-05
-3.58325e-06
3.14057e-06
1.26873e-05
-6.12532e-06
5.23039e-06
1.364e-05
-9.96162e-06
9.00889e-06
1.46216e-05
-1.31839e-05
1.22024e-05
1.5651e-05
-1.54369e-05
1.44075e-05
1.62799e-05
-1.77229e-05
1.70941e-05
1.63456e-05
-1.90152e-05
1.89495e-05
1.61046e-05
-1.95042e-05
1.97452e-05
1.56605e-05
-1.99698e-05
2.04139e-05
1.50087e-05
-1.95576e-05
2.02094e-05
1.43912e-05
-1.90557e-05
1.96732e-05
1.37919e-05
-1.89903e-05
1.95897e-05
1.31685e-05
-1.81735e-05
1.87969e-05
1.26201e-05
-1.76804e-05
1.82287e-05
1.20601e-05
-1.73444e-05
1.79044e-05
1.15483e-05
-1.692e-05
1.74318e-05
1.09528e-05
-1.63412e-05
1.69367e-05
1.05382e-05
-1.54531e-05
1.58677e-05
1.02831e-05
-1.66146e-05
1.68697e-05
9.72785e-06
-1.72047e-05
1.776e-05
9.09638e-06
-1.61379e-05
1.67694e-05
8.38257e-06
-1.47773e-05
1.54911e-05
8.03911e-06
-1.42353e-05
1.45788e-05
8.27186e-06
-1.69576e-05
1.67249e-05
8.32978e-06
-2.0399e-05
2.03411e-05
8.31785e-06
-2.22308e-05
2.22427e-05
8.46616e-06
-2.32188e-05
2.30705e-05
8.50041e-06
-2.29812e-05
2.29469e-05
8.46726e-06
-2.32468e-05
2.328e-05
8.67469e-06
-2.25947e-05
2.23872e-05
8.99857e-06
-2.00618e-05
1.97379e-05
9.29049e-06
-1.75452e-05
1.72533e-05
9.5874e-06
-1.38144e-05
1.35175e-05
9.97826e-06
-8.96307e-06
8.57222e-06
1.02147e-05
-4.35391e-06
4.11745e-06
1.03034e-05
4.17102e-07
-5.05742e-07
1.05054e-05
5.73405e-06
-5.93607e-06
1.07379e-05
1.10042e-05
-1.12368e-05
1.08456e-05
1.61809e-05
-1.62886e-05
1.08696e-05
1.9714e-05
-1.97379e-05
1.07856e-05
2.16095e-05
-2.15255e-05
1.05661e-05
2.34696e-05
-2.32502e-05
1.02156e-05
2.39538e-05
-2.36033e-05
9.84214e-06
2.26097e-05
-2.22362e-05
9.53082e-06
2.15074e-05
-2.1196e-05
9.16038e-06
2.08826e-05
-2.05121e-05
8.84135e-06
1.85979e-05
-1.82788e-05
8.62967e-06
1.7427e-05
-1.72153e-05
8.49586e-06
1.73064e-05
-1.71726e-05
8.36028e-06
1.61682e-05
-1.60327e-05
8.30778e-06
1.46679e-05
-1.46154e-05
8.34821e-06
1.43664e-05
-1.44069e-05
8.39001e-06
1.4302e-05
-1.43439e-05
8.51675e-06
1.41912e-05
-1.43179e-05
8.71132e-06
1.43679e-05
-1.45625e-05
8.89584e-06
1.46646e-05
-1.48491e-05
9.01841e-06
1.4704e-05
-1.48266e-05
9.14423e-06
1.43465e-05
-1.44724e-05
9.35951e-06
1.40592e-05
-1.42745e-05
9.67413e-06
1.4049e-05
-1.43637e-05
1.01113e-05
1.42491e-05
-1.46863e-05
1.06305e-05
1.44013e-05
-1.49204e-05
1.10932e-05
1.43654e-05
-1.48281e-05
1.14983e-05
1.38523e-05
-1.42574e-05
1.18723e-05
1.27733e-05
-1.31472e-05
1.20813e-05
1.11636e-05
-1.13726e-05
1.20023e-05
9.22092e-06
-9.1419e-06
1.16823e-05
6.95973e-06
-6.63974e-06
1.12648e-05
4.12652e-06
-3.70901e-06
1.10589e-05
1.12124e-06
-9.15373e-07
1.09687e-05
-1.50122e-07
2.40342e-07
1.06957e-05
-3.74253e-07
6.47249e-07
1.01053e-05
-1.51032e-06
2.10074e-06
9.54328e-06
-4.08483e-06
4.64686e-06
9.23742e-06
-6.62304e-06
6.9289e-06
9.06991e-06
-7.57174e-06
7.73925e-06
8.595e-06
-7.6842e-06
8.15911e-06
7.84083e-06
-8.90829e-06
9.66247e-06
7.19626e-06
-1.07467e-05
1.13912e-05
6.8529e-06
-1.16291e-05
1.19725e-05
6.91461e-06
-1.08394e-05
1.07777e-05
6.84464e-06
-9.85807e-06
9.92804e-06
6.73834e-06
-9.26102e-06
9.36732e-06
6.25115e-06
-1.02087e-05
1.06959e-05
5.82588e-06
-1.13339e-05
1.17592e-05
5.27115e-06
-1.49757e-05
1.55305e-05
5.15225e-06
-1.61918e-05
1.63107e-05
5.30563e-06
-1.8031e-05
1.78776e-05
5.43259e-06
-1.68397e-05
1.67128e-05
5.57424e-06
-1.80092e-05
1.78675e-05
5.69831e-06
-1.71134e-05
1.69894e-05
5.99983e-06
-1.94438e-05
1.91423e-05
6.30749e-06
-1.91285e-05
1.88209e-05
7.06709e-06
-2.01889e-05
1.94293e-05
7.4928e-06
-2.09484e-05
2.05227e-05
7.95498e-06
-2.2436e-05
2.19738e-05
8.56387e-06
-2.1614e-05
2.10051e-05
9.00522e-06
-2.01225e-05
1.96812e-05
9.26399e-06
-1.83749e-05
1.81161e-05
9.79879e-06
-1.4444e-05
1.39092e-05
1.04282e-05
-9.77029e-06
9.14091e-06
1.07987e-05
-5.87286e-06
5.50237e-06
1.11389e-05
-1.05579e-06
7.15588e-07
1.14977e-05
4.37142e-06
-4.73027e-06
1.1859e-05
8.64539e-06
-9.0067e-06
1.22555e-05
1.31216e-05
-1.3518e-05
1.2535e-05
1.78853e-05
-1.81648e-05
1.25406e-05
2.10364e-05
-2.10419e-05
1.2446e-05
2.22441e-05
-2.21495e-05
1.25616e-05
2.30784e-05
-2.3194e-05
1.28461e-05
2.44581e-05
-2.47426e-05
1.30124e-05
2.5695e-05
-2.58613e-05
1.29005e-05
2.58109e-05
-2.5699e-05
1.2805e-05
2.45958e-05
-2.45003e-05
1.29663e-05
2.29873e-05
-2.31486e-05
1.31936e-05
2.18544e-05
-2.20818e-05
1.35465e-05
2.10333e-05
-2.13861e-05
1.40427e-05
1.96613e-05
-2.01575e-05
1.42791e-05
1.70614e-05
-1.72979e-05
1.44001e-05
1.35311e-05
-1.36521e-05
1.44711e-05
1.02278e-05
-1.02988e-05
1.44118e-05
6.48358e-06
-6.42427e-06
1.42374e-05
2.1252e-06
-1.95087e-06
1.37673e-05
-1.92715e-06
2.39733e-06
1.31296e-05
-4.84703e-06
5.48474e-06
1.25703e-05
-7.32246e-06
7.8817e-06
1.20221e-05
-9.63309e-06
1.01813e-05
1.15208e-05
-1.17226e-05
1.22238e-05
1.08485e-05
-1.25684e-05
1.32407e-05
1.01529e-05
-1.19099e-05
1.26056e-05
9.46811e-06
-1.0019e-05
1.07037e-05
8.8592e-06
-7.62181e-06
8.23073e-06
8.386e-06
-5.5199e-06
5.99309e-06
8.04791e-06
-3.89947e-06
4.23756e-06
7.79008e-06
-2.89474e-06
3.15258e-06
7.6177e-06
-2.08838e-06
2.26075e-06
7.44606e-06
-1.55189e-06
1.72354e-06
7.35279e-06
-1.0025e-06
1.09577e-06
7.21779e-06
-5.90592e-07
7.25587e-07
7.19222e-06
-8.08487e-08
1.06418e-07
7.08924e-06
2.96774e-07
-1.93798e-07
7.10171e-06
6.97928e-07
-7.10395e-07
7.0099e-06
1.08766e-06
-9.95847e-07
7.07517e-06
1.29411e-06
-1.35938e-06
7.03836e-06
1.69689e-06
-1.66008e-06
7.071e-06
1.7768e-06
-1.80944e-06
7.10588e-06
2.1882e-06
-2.22307e-06
7.07514e-06
2.25475e-06
-2.22401e-06
7.20419e-06
2.58087e-06
-2.70992e-06
7.11935e-06
2.8397e-06
-2.75485e-06
7.29884e-06
2.93463e-06
-3.11411e-06
7.16914e-06
3.47411e-06
-3.34441e-06
7.33075e-06
3.40878e-06
-3.57039e-06
7.27807e-06
4.08759e-06
-4.03491e-06
7.32555e-06
4.14607e-06
-4.19356e-06
7.41652e-06
4.67031e-06
-4.76127e-06
7.33796e-06
5.09244e-06
-5.01388e-06
7.49457e-06
5.34644e-06
-5.50305e-06
7.40881e-06
6.10044e-06
-6.01468e-06
7.49031e-06
6.37977e-06
-6.46127e-06
7.47872e-06
7.08146e-06
-7.06987e-06
7.43082e-06
7.76158e-06
-7.71369e-06
7.47156e-06
8.36405e-06
-8.40479e-06
7.19095e-06
9.49501e-06
-9.2144e-06
7.20326e-06
1.01207e-05
-1.01331e-05
7.13072e-06
1.15432e-05
-1.14707e-05
6.93123e-06
1.29591e-05
-1.27596e-05
7.17754e-06
1.44803e-05
-1.47266e-05
6.35083e-06
1.83349e-05
-1.75082e-05
6.22287e-06
2.03526e-05
-2.02247e-05
3.07887e-05
-3.03214e-05
5.75551e-06
6.02231e-06
-3.95425e-07
6.45063e-06
4.83167e-07
7.24443e-06
-4.36318e-07
8.45092e-06
-2.08698e-06
9.37064e-06
-4.32205e-06
9.948e-06
-7.28165e-06
1.04049e-05
-9.4279e-06
1.02179e-05
-1.1048e-05
9.95296e-06
-1.26293e-05
9.26971e-06
-1.21275e-05
8.70166e-06
-1.13369e-05
7.63783e-06
-9.14583e-06
6.47906e-06
-6.78841e-06
5.30338e-06
-4.89276e-06
3.63649e-06
-1.80279e-06
3.4193e-06
6.64475e-07
4.82397e-06
1.30616e-06
5.84204e-06
1.0011e-05
6.67662e-06
1.66589e-05
7.09588e-06
1.25184e-05
7.93836e-06
1.01717e-05
8.9573e-06
1.02137e-05
9.7744e-06
1.0286e-05
1.07857e-05
9.29723e-06
1.13965e-05
7.81843e-06
1.14805e-05
6.17286e-06
1.14607e-05
4.8412e-06
1.16372e-05
2.93641e-06
1.20477e-05
-8.90485e-07
1.27824e-05
-4.31793e-06
1.3828e-05
-7.17094e-06
1.48132e-05
-1.09468e-05
1.57247e-05
-1.40954e-05
1.64751e-05
-1.61873e-05
1.67528e-05
-1.80007e-05
1.65864e-05
-1.88488e-05
1.6205e-05
-1.91228e-05
1.56569e-05
-1.94217e-05
1.49884e-05
-1.8889e-05
1.43826e-05
-1.845e-05
1.37987e-05
-1.84065e-05
1.3244e-05
-1.76187e-05
1.27083e-05
-1.71447e-05
1.21469e-05
-1.6783e-05
1.16273e-05
-1.64004e-05
1.104e-05
-1.57539e-05
1.06292e-05
-1.50423e-05
1.02745e-05
-1.626e-05
9.65523e-06
-1.65854e-05
8.98859e-06
-1.54713e-05
8.18545e-06
-1.39741e-05
7.93917e-06
-1.3989e-05
8.1606e-06
-1.71791e-05
8.0431e-06
-2.02815e-05
7.96445e-06
-2.21521e-05
8.07936e-06
-2.33337e-05
8.05229e-06
-2.29541e-05
7.92787e-06
-2.31224e-05
8.10808e-06
-2.27749e-05
8.41732e-06
-2.03711e-05
8.63678e-06
-1.77647e-05
8.8863e-06
-1.4064e-05
9.26142e-06
-9.3382e-06
9.5403e-06
-4.63279e-06
9.64491e-06
3.12494e-07
9.81375e-06
5.5652e-06
1.00203e-05
1.07977e-05
1.01431e-05
1.6058e-05
1.01969e-05
1.96602e-05
1.01661e-05
2.16403e-05
1.00151e-05
2.36206e-05
9.74823e-06
2.42207e-05
9.45609e-06
2.29018e-05
9.20197e-06
2.17615e-05
8.87908e-06
2.12055e-05
8.59998e-06
1.8877e-05
8.4373e-06
1.75897e-05
8.34442e-06
1.73993e-05
8.234e-06
1.62787e-05
8.20349e-06
1.46984e-05
8.26211e-06
1.43078e-05
8.30018e-06
1.4264e-05
8.41907e-06
1.40723e-05
8.63236e-06
1.41546e-05
8.87241e-06
1.44245e-05
9.0637e-06
1.45127e-05
9.21346e-06
1.41968e-05
9.43852e-06
1.38342e-05
9.7271e-06
1.37605e-05
1.01291e-05
1.38471e-05
1.06252e-05
1.39052e-05
1.10521e-05
1.39385e-05
1.14376e-05
1.34668e-05
1.1818e-05
1.23928e-05
1.20592e-05
1.09224e-05
1.20624e-05
9.21776e-06
1.18247e-05
7.19738e-06
1.14442e-05
4.50697e-06
1.11782e-05
1.38729e-06
1.11052e-05
-7.71351e-08
1.092e-05
-1.89061e-07
1.04581e-05
-1.04842e-06
9.95717e-06
-3.58388e-06
9.66372e-06