/*--------------------------------*- C++ -*----------------------------------*\
| =========                 |                                                 |
| \\      /  F ield         | OpenFOAM: The Open Source CFD Toolbox           |
|  \\    /   O peration     | Version:  2.4.0                                 |
|   \\  /    A nd           | Web:      www.OpenFOAM.org                      |
|    \\/     M anipulation  |                                                 |
\*---------------------------------------------------------------------------*/
FoamFile
{
    version     2.0;
    format      ascii;
    class       surfaceScalarField;
    location    "0.291";
    object      phi;
}
// * * * * * * * * * * * * * * * * * * * * * * * * * * * * * * * * * * * * * //

dimensions      [0 3 -1 0 0 0 0];

internalField   nonuniform List<scalar> 
34880
(
5.48829e-06
7.01171e-06
3.12564e-06
2.36264e-06
2.472e-06
6.53642e-07
2.2172e-06
2.54803e-07
2.07872e-06
1.38481e-07
1.96805e-06
1.10671e-07
1.88564e-06
8.24037e-08
1.82773e-06
5.79129e-08
1.77572e-06
5.20124e-08
1.74643e-06
2.92838e-08
1.71811e-06
2.83257e-08
1.70754e-06
1.05707e-08
1.68069e-06
2.68453e-08
1.70689e-06
-2.61999e-08
1.70103e-06
5.86054e-09
1.75596e-06
-5.49294e-08
1.85436e-06
-9.83967e-08
1.96078e-06
-1.06426e-07
2.34073e-06
-3.79946e-07
-4.82369e-07
2.8231e-06
1.01123e-05
9.39936e-06
7.83102e-06
4.64397e-06
6.70752e-06
1.77714e-06
6.0635e-06
8.98819e-07
5.6499e-06
5.52077e-07
5.349e-06
4.11579e-07
5.12519e-06
3.06213e-07
4.95219e-06
2.30905e-07
4.8151e-06
1.89101e-07
4.71443e-06
1.29963e-07
4.63696e-06
1.05787e-07
4.57641e-06
7.11208e-08
4.52678e-06
7.64794e-08
4.52994e-06
-2.93588e-08
4.5121e-06
2.37018e-08
4.62973e-06
-1.72564e-07
4.70396e-06
-1.72623e-07
5.03897e-06
-4.41437e-07
5.67753e-06
-1.01851e-06
-9.32142e-07
6.12731e-06
1.24283e-05
9.47111e-06
1.10056e-05
6.06662e-06
9.97575e-06
2.80701e-06
9.20401e-06
1.67056e-06
8.6221e-06
1.13399e-06
8.18932e-06
8.44354e-07
7.86273e-06
6.32807e-07
7.59952e-06
4.94115e-07
7.39721e-06
3.91411e-07
7.23333e-06
2.93843e-07
7.11529e-06
2.23822e-07
7.00489e-06
1.81519e-07
6.93919e-06
1.42186e-07
6.90505e-06
4.77499e-09
6.86772e-06
6.10371e-08
7.0202e-06
-3.25047e-07
7.00985e-06
-1.62278e-07
7.49831e-06
-9.29894e-07
8.14271e-06
-1.66291e-06
-1.44056e-06
8.65113e-06
1.34158e-05
8.55528e-06
1.28933e-05
6.58917e-06
1.23195e-05
3.38076e-06
1.17189e-05
2.27119e-06
1.11359e-05
1.71701e-06
1.06556e-05
1.32465e-06
1.02821e-05
1.00632e-06
9.96072e-06
8.15466e-07
9.71727e-06
6.34855e-07
9.50715e-06
5.03963e-07
9.35846e-06
3.72516e-07
9.20633e-06
3.33651e-07
9.12519e-06
2.23325e-07
9.06146e-06
6.85074e-08
8.99145e-06
1.31044e-07
9.16099e-06
-4.9459e-07
9.09913e-06
-1.00418e-07
9.56168e-06
-1.39244e-06
1.02206e-05
-2.32177e-06
-2.43808e-06
1.12181e-05
1.35936e-05
7.46167e-06
1.36694e-05
6.51342e-06
1.36156e-05
3.43447e-06
1.34031e-05
2.48376e-06
1.30206e-05
2.09946e-06
1.26177e-05
1.7276e-06
1.22849e-05
1.33914e-06
1.19612e-05
1.13911e-06
1.17164e-05
8.7971e-07
1.14912e-05
7.29137e-07
1.13302e-05
5.33486e-07
1.1155e-05
5.089e-07
1.10628e-05
3.15443e-07
1.09883e-05
1.43059e-07
1.08825e-05
2.368e-07
1.1042e-05
-6.54074e-07
1.10117e-05
-7.01003e-08
1.13381e-05
-1.71881e-06
1.18916e-05
-2.87526e-06
-3.81364e-06
1.32671e-05
1.34821e-05
6.47959e-06
1.37704e-05
6.22512e-06
1.39913e-05
3.21356e-06
1.41418e-05
2.33321e-06
1.40855e-05
2.15575e-06
1.38865e-05
1.92663e-06
1.3707e-05
1.51864e-06
1.34682e-05
1.37789e-06
1.32816e-05
1.06634e-06
1.30925e-05
9.182e-07
1.29502e-05
6.75782e-07
1.27829e-05
6.76236e-07
1.26902e-05
4.08174e-07
1.26338e-05
1.99412e-07
1.25038e-05
3.66871e-07
1.26209e-05
-7.71259e-07
1.26753e-05
-1.24456e-07
1.29133e-05
-1.95681e-06
1.32788e-05
-3.24074e-06
-5.06168e-06
1.45268e-05
1.33515e-05
5.62812e-06
1.37225e-05
5.85411e-06
1.39389e-05
2.99713e-06
1.42077e-05
2.0644e-06
1.43905e-05
1.97294e-06
1.43899e-05
1.9273e-06
1.44094e-05
1.49911e-06
1.43316e-05
1.4557e-06
1.42669e-05
1.131e-06
1.41825e-05
1.00259e-06
1.411e-05
7.48304e-07
1.39948e-05
7.91434e-07
1.39205e-05
4.82534e-07
1.39225e-05
1.97358e-07
1.37931e-05
4.96308e-07
1.38532e-05
-8.3136e-07
1.39837e-05
-2.54972e-07
1.42158e-05
-2.18893e-06
1.45223e-05
-3.54724e-06
-5.8478e-06
1.53084e-05
1.32364e-05
4.89176e-06
1.37135e-05
5.37699e-06
1.3845e-05
2.86561e-06
1.40783e-05
1.83111e-06
1.4339e-05
1.71223e-06
1.44144e-05
1.85189e-06
1.45324e-05
1.38111e-06
1.45912e-05
1.39687e-06
1.46303e-05
1.09197e-06
1.46729e-05
9.59922e-07
1.47108e-05
7.10417e-07
1.4684e-05
8.18277e-07
1.46468e-05
5.19744e-07
1.47545e-05
8.9639e-08
1.46607e-05
5.90078e-07
1.46857e-05
-8.56351e-07
1.48662e-05
-4.35469e-07
1.50806e-05
-2.40331e-06
1.54728e-05
-3.93942e-06
-4.75485e-06
1.43798e-05
1.31461e-05
4.24562e-06
1.36269e-05
4.8962e-06
1.37735e-05
2.71901e-06
1.39652e-05
1.63948e-06
1.42356e-05
1.44176e-06
1.43236e-05
1.76389e-06
1.44405e-05
1.2642e-06
1.45698e-05
1.26762e-06
1.46193e-05
1.04245e-06
1.4731e-05
8.48227e-07
1.48572e-05
5.84223e-07
1.48899e-05
7.85597e-07
1.48736e-05
5.36055e-07
1.50836e-05
-1.20358e-07
1.50465e-05
6.27133e-07
1.5083e-05
-8.92825e-07
1.52912e-05
-6.43741e-07
1.54242e-05
-2.53622e-06
1.59581e-05
-4.47341e-06
-5.45215e-06
1.66554e-05
1.30844e-05
3.66124e-06
1.35422e-05
4.43844e-06
1.36888e-05
2.57239e-06
1.38737e-05
1.45455e-06
1.41647e-05
1.15078e-06
1.42293e-05
1.69925e-06
1.43465e-05
1.147e-06
1.45122e-05
1.10193e-06
1.4512e-05
1.04269e-06
1.46645e-05
6.95691e-07
1.48213e-05
4.27409e-07
1.48568e-05
7.50172e-07
1.486e-05
5.32839e-07
1.5088e-05
-3.48428e-07
1.50923e-05
6.22849e-07
1.51569e-05
-9.57448e-07
1.53778e-05
-8.64607e-07
1.54494e-05
-2.6078e-06
1.57541e-05
-4.77815e-06
-6.479e-06
1.6781e-05
1.30419e-05
3.11936e-06
1.34939e-05
3.98637e-06
1.36023e-05
2.464e-06
1.38371e-05
1.2198e-06
1.40873e-05
9.00578e-07
1.41372e-05
1.6493e-06
1.43157e-05
9.68522e-07
1.44255e-05
9.92121e-07
1.44291e-05
1.03913e-06
1.46367e-05
4.88095e-07
1.47153e-05
3.48751e-07
1.47778e-05
6.87651e-07
1.48323e-05
4.78431e-07
1.49674e-05
-4.83559e-07
1.50217e-05
5.68556e-07
1.51421e-05
-1.07791e-06
1.53134e-05
-1.0359e-06
1.54038e-05
-2.69812e-06
1.55464e-05
-4.92079e-06
-7.3526e-06
1.642e-05
1.30067e-05
2.61266e-06
1.34641e-05
3.52894e-06
1.35762e-05
2.35195e-06
1.37991e-05
9.96842e-07
1.39655e-05
7.34207e-07
1.41201e-05
1.49465e-06
1.42682e-05
8.20508e-07
1.43121e-05
9.4818e-07
1.44191e-05
9.32148e-07
1.45647e-05
3.42517e-07
1.45972e-05
3.16238e-07
1.47689e-05
5.15904e-07
1.47772e-05
4.70109e-07
1.48083e-05
-5.14623e-07
1.49531e-05
4.23724e-07
1.5089e-05
-1.21382e-06
1.52281e-05
-1.17494e-06
1.53625e-05
-2.83251e-06
1.54845e-05
-5.04278e-06
-7.89439e-06
1.60262e-05
1.29572e-05
2.15542e-06
1.34086e-05
3.07758e-06
1.36034e-05
2.15712e-06
1.37211e-05
8.79162e-07
1.38826e-05
5.72678e-07
1.41149e-05
1.26238e-06
1.41809e-05
7.54514e-07
1.42678e-05
8.61303e-07
1.44036e-05
7.96341e-07
1.44632e-05
2.82875e-07
1.45387e-05
2.40771e-07
1.47551e-05
2.99551e-07
1.46987e-05
5.26505e-07
1.4736e-05
-5.51943e-07
1.48953e-05
2.6441e-07
1.49991e-05
-1.31759e-06
1.51774e-05
-1.3533e-06
1.53448e-05
-2.99991e-06
1.54317e-05
-5.12963e-06
-8.03314e-06
1.55704e-05
1.28877e-05
1.76771e-06
1.33349e-05
2.6304e-06
1.36309e-05
1.86115e-06
1.3672e-05
8.38037e-07
1.38533e-05
3.91362e-07
1.40451e-05
1.07062e-06
1.41331e-05
6.6651e-07
1.42709e-05
7.23411e-07
1.43564e-05
7.10934e-07
1.44114e-05
2.27877e-07
1.4503e-05
1.49132e-07
1.46714e-05
1.31151e-07
1.4675e-05
5.22908e-07
1.47297e-05
-6.06645e-07
1.48278e-05
1.66276e-07
1.49226e-05
-1.41236e-06
1.51429e-05
-1.57358e-06
1.52901e-05
-3.1471e-06
1.53084e-05
-5.14799e-06
-8.08747e-06
1.53627e-05
1.28291e-05
1.43859e-06
1.33015e-05
2.15806e-06
1.36115e-05
1.5511e-06
1.36637e-05
7.85904e-07
1.38207e-05
2.34359e-07
1.3972e-05
9.19294e-07
1.41229e-05
5.15619e-07
1.42528e-05
5.93531e-07
1.43033e-05
6.60343e-07
1.43884e-05
1.42811e-07
1.44524e-05
8.51465e-08
1.45911e-05
-7.56434e-09
1.46789e-05
4.35081e-07
1.47118e-05
-6.39506e-07
1.47684e-05
1.09642e-07
1.48703e-05
-1.51419e-06
1.5078e-05
-1.78135e-06
1.51971e-05
-3.26616e-06
1.51666e-05
-5.11744e-06
-8.34479e-06
1.54239e-05
1.28049e-05
1.13371e-06
1.32807e-05
1.68221e-06
1.35862e-05
1.24559e-06
1.36717e-05
7.00398e-07
1.37763e-05
1.29768e-07
1.39461e-05
7.49473e-07
1.40956e-05
3.66132e-07
1.41943e-05
4.94853e-07
1.42836e-05
5.71044e-07
1.43706e-05
5.57762e-08
1.43897e-05
6.60591e-08
1.45573e-05
-1.75099e-07
1.46603e-05
3.32016e-07
1.46615e-05
-6.40727e-07
1.47574e-05
1.38077e-08
1.48334e-05
-1.59016e-06
1.50081e-05
-1.95614e-06
1.50896e-05
-3.3476e-06
1.50809e-05
-5.10874e-06
-8.76045e-06
1.54965e-05
1.27916e-05
8.42128e-07
1.32479e-05
1.2259e-06
1.35651e-05
9.2837e-07
1.36635e-05
6.02039e-07
1.3751e-05
4.22613e-08
1.39313e-05
5.69131e-07
1.40372e-05
2.60268e-07
1.41523e-05
3.79725e-07
1.4299e-05
4.24355e-07
1.43328e-05
2.19617e-08
1.43676e-05
3.13248e-08
1.45305e-05
-3.38079e-07
1.46219e-05
2.4062e-07
1.46092e-05
-6.28024e-07
1.47854e-05
-1.62412e-07
1.47975e-05
-1.60226e-06
1.49404e-05
-2.09896e-06
1.50082e-05
-3.41543e-06
1.50122e-05
-5.1128e-06
-7.52369e-06
1.37755e-05
1.27779e-05
5.64179e-07
1.32326e-05
7.7128e-07
1.35399e-05
6.21e-07
1.36361e-05
5.05833e-07
1.37553e-05
-7.68473e-08
1.39013e-05
4.23138e-07
1.39819e-05
1.7967e-07
1.41667e-05
1.94915e-07
1.42764e-05
3.14608e-07
1.4312e-05
-1.35981e-08
1.43808e-05
-3.74636e-08
1.45009e-05
-4.58248e-07
1.45604e-05
1.81164e-07
1.46247e-05
-6.92329e-07
1.47694e-05
-3.07092e-07
1.47924e-05
-1.62532e-06
1.48782e-05
-2.18475e-06
1.49821e-05
-3.51927e-06
1.50267e-05
-5.1574e-06
-7.69514e-06
1.51981e-05
1.278e-05
2.84139e-07
1.32185e-05
3.32773e-07
1.35009e-05
3.38658e-07
1.36365e-05
3.70237e-07
1.376e-05
-2.00316e-07
1.38621e-05
3.20956e-07
1.39785e-05
6.3291e-08
1.41722e-05
1.19224e-09
1.42391e-05
2.47699e-07
1.43247e-05
-9.91543e-08
1.44026e-05
-1.15383e-07
1.44471e-05
-5.0275e-07
1.45465e-05
8.18232e-08
1.4618e-05
-7.63826e-07
1.47609e-05
-4.50036e-07
1.47651e-05
-1.6295e-06
1.4839e-05
-2.2587e-06
1.49622e-05
-3.64243e-06
1.49721e-05
-5.1673e-06
-7.73056e-06
1.50075e-05
1.27826e-05
1.52895e-09
1.31838e-05
-6.84492e-08
1.34819e-05
4.06157e-08
1.36684e-05
1.83682e-07
1.37349e-05
-2.66766e-07
1.38443e-05
2.11511e-07
1.40058e-05
-9.82075e-08
1.41504e-05
-1.43433e-07
1.4232e-05
1.66173e-07
1.43459e-05
-2.13083e-07
1.43844e-05
-1.53859e-07
1.44251e-05
-5.43513e-07
1.45392e-05
-3.22281e-08
1.46095e-05
-8.3414e-07
1.47368e-05
-5.77316e-07
1.47452e-05
-1.63788e-06
1.48294e-05
-2.34297e-06
1.49075e-05
-3.72051e-06
1.4897e-05
-5.1568e-06
-7.80767e-06
1.49741e-05
1.27647e-05
-2.63176e-07
1.3165e-05
-4.68763e-07
1.35087e-05
-3.03028e-07
1.36801e-05
1.22849e-08
1.37065e-05
-2.93188e-07
1.38637e-05
5.42867e-08
1.40138e-05
-2.48263e-07
1.4142e-05
-2.71646e-07
1.42369e-05
7.12459e-08
1.43349e-05
-3.1105e-07
1.43756e-05
-1.94561e-07
1.44258e-05
-5.9377e-07
1.45455e-05
-1.51938e-07
1.45956e-05
-8.84179e-07
1.47119e-05
-6.93645e-07
1.47465e-05
-1.67248e-06
1.48192e-05
-2.41568e-06
1.48513e-05
-3.75264e-06
1.4855e-05
-5.16041e-06
-8.06133e-06
1.51086e-05
1.27546e-05
-5.17751e-07
1.31872e-05
-9.01437e-07
1.35408e-05
-6.56591e-07
1.36621e-05
-1.09014e-07
1.37158e-05
-3.46886e-07
1.38888e-05
-1.18751e-07
1.4009e-05
-3.68421e-07
1.41411e-05
-4.03753e-07
1.4239e-05
-2.66862e-08
1.43286e-05
-4.00641e-07
1.4405e-05
-2.70913e-07
1.44291e-05
-6.17846e-07
1.45633e-05
-2.86192e-07
1.45689e-05
-8.89761e-07
1.47171e-05
-8.41892e-07
1.47354e-05
-1.69078e-06
1.48153e-05
-2.49556e-06
1.48258e-05
-3.76307e-06
1.48004e-05
-5.135e-06
-6.84782e-06
1.35868e-05
1.27722e-05
-7.89919e-07
1.32224e-05
-1.35167e-06
1.35423e-05
-9.76525e-07
1.36579e-05
-2.2463e-07
1.37395e-05
-4.28466e-07
1.38944e-05
-2.73592e-07
1.40091e-05
-4.83164e-07
1.41559e-05
-5.50531e-07
1.42424e-05
-1.13233e-07
1.43622e-05
-5.20417e-07
1.44156e-05
-3.24342e-07
1.44542e-05
-6.56411e-07
1.45441e-05
-3.76052e-07
1.45951e-05
-9.40749e-07
1.47036e-05
-9.50466e-07
1.47621e-05
-1.74925e-06
1.48045e-05
-2.53794e-06
1.48309e-05
-3.7895e-06
1.48842e-05
-5.18832e-06
-6.97392e-06
1.50103e-05
1.27988e-05
-1.08871e-06
1.32424e-05
-1.79523e-06
1.35407e-05
-1.2749e-06
1.36707e-05
-3.54586e-07
1.37547e-05
-5.12444e-07
1.39019e-05
-4.20845e-07
1.4034e-05
-6.15203e-07
1.41794e-05
-6.96012e-07
1.42745e-05
-2.08318e-07
1.43727e-05
-6.18629e-07
1.44368e-05
-3.88373e-07
1.44534e-05
-6.73034e-07
1.45639e-05
-4.86592e-07
1.46084e-05
-9.85244e-07
1.47123e-05
-1.05431e-06
1.47798e-05
-1.8168e-06
1.47888e-05
-2.5469e-06
1.48417e-05
-3.84238e-06
1.48998e-05
-5.2465e-06
-6.94941e-06
1.48753e-05
1.28224e-05
-1.41112e-06
1.32632e-05
-2.236e-06
1.35557e-05
-1.56741e-06
1.3685e-05
-4.83882e-07
1.37765e-05
-6.03907e-07
1.39399e-05
-5.84262e-07
1.40693e-05
-7.44652e-07
1.42054e-05
-8.32075e-07
1.42931e-05
-2.96021e-07
1.43859e-05
-7.11427e-07
1.44434e-05
-4.45855e-07
1.44879e-05
-7.17563e-07
1.45989e-05
-5.97641e-07
1.46278e-05
-1.01413e-06
1.47267e-05
-1.15315e-06
1.47905e-05
-1.88064e-06
1.4793e-05
-2.54939e-06
1.4865e-05
-3.91442e-06
1.48666e-05
-5.24806e-06
-6.9829e-06
1.49001e-05
1.28499e-05
-1.76098e-06
1.33042e-05
-2.6903e-06
1.35782e-05
-1.84144e-06
1.36961e-05
-6.01774e-07
1.38196e-05
-7.27419e-07
1.39866e-05
-7.51265e-07
1.40999e-05
-8.57894e-07
1.42217e-05
-9.53931e-07
1.43171e-05
-3.91394e-07
1.4407e-05
-8.01325e-07
1.4478e-05
-5.16876e-07
1.45402e-05
-7.79748e-07
1.46265e-05
-6.83981e-07
1.46541e-05
-1.04173e-06
1.47514e-05
-1.25042e-06
1.47884e-05
-1.91766e-06
1.48373e-05
-2.59826e-06
1.48783e-05
-3.95542e-06
1.48141e-05
-5.18385e-06
-7.25082e-06
1.5082e-05
1.28888e-05
-2.14974e-06
1.33523e-05
-3.15384e-06
1.35948e-05
-2.084e-06
1.37209e-05
-7.27866e-07
1.38691e-05
-8.75559e-07
1.40224e-05
-9.04538e-07
1.4132e-05
-9.67533e-07
1.42507e-05
-1.07268e-06
1.43627e-05
-5.03384e-07
1.4441e-05
-8.79566e-07
1.45384e-05
-6.14305e-07
1.45748e-05
-8.1613e-07
1.4659e-05
-7.68234e-07
1.46846e-05
-1.0673e-06
1.47753e-05
-1.34108e-06
1.48086e-05
-1.95104e-06
1.48959e-05
-2.68548e-06
1.48712e-05
-3.93073e-06
1.47307e-05
-5.04337e-06
-6.19251e-06
1.36724e-05
1.29346e-05
-2.58437e-06
1.33988e-05
-3.61806e-06
1.35833e-05
-2.26843e-06
1.37604e-05
-9.04968e-07
1.3915e-05
-1.03017e-06
1.40638e-05
-1.05334e-06
1.41819e-05
-1.08568e-06
1.43032e-05
-1.19398e-06
1.44097e-05
-6.09855e-07
1.44992e-05
-9.69097e-07
1.45791e-05
-6.9419e-07
1.4622e-05
-8.58992e-07
1.46823e-05
-8.28523e-07
1.47433e-05
-1.12828e-06
1.4791e-05
-1.38881e-06
1.48748e-05
-2.03488e-06
1.49101e-05
-2.72079e-06
1.48976e-05
-3.91822e-06
1.48965e-05
-5.04227e-06
-6.5332e-06
1.52372e-05
1.29871e-05
-3.07143e-06
1.34523e-05
-4.08332e-06
1.35965e-05
-2.41259e-06
1.38001e-05
-1.10855e-06
1.39677e-05
-1.19776e-06
1.41194e-05
-1.20509e-06
1.42493e-05
-1.21555e-06
1.43534e-05
-1.29807e-06
1.44722e-05
-7.2868e-07
1.45469e-05
-1.04377e-06
1.46243e-05
-7.71608e-07
1.46588e-05
-8.93452e-07
1.47279e-05
-8.97685e-07
1.47843e-05
-1.18462e-06
1.48452e-05
-1.44981e-06
1.4932e-05
-2.12163e-06
1.49192e-05
-2.70803e-06
1.49408e-05
-3.93982e-06
1.49638e-05
-5.06526e-06
-6.6581e-06
1.50887e-05
1.30483e-05
-3.61973e-06
1.35121e-05
-4.54707e-06
1.36305e-05
-2.53102e-06
1.3842e-05
-1.32006e-06
1.40325e-05
-1.38828e-06
1.41904e-05
-1.36294e-06
1.43245e-05
-1.34969e-06
1.44147e-05
-1.38822e-06
1.45335e-05
-8.47483e-07
1.45852e-05
-1.09553e-06
1.46654e-05
-8.51801e-07
1.46995e-05
-9.27567e-07
1.47828e-05
-9.80924e-07
1.48416e-05
-1.24348e-06
1.4921e-05
-1.52919e-06
1.49687e-05
-2.16933e-06
1.49456e-05
-2.6849e-06
1.496e-05
-3.95429e-06
1.4896e-05
-5.00126e-06
-6.63427e-06
1.48722e-05
1.31133e-05
-4.23306e-06
1.35681e-05
-5.00184e-06
1.36683e-05
-2.6312e-06
1.39006e-05
-1.55242e-06
1.41189e-05
-1.60651e-06
1.42802e-05
-1.52425e-06
1.44057e-05
-1.47522e-06
1.44805e-05
-1.46306e-06
1.45832e-05
-9.5014e-07
1.46256e-05
-1.1379e-06
1.4714e-05
-9.40252e-07
1.47661e-05
-9.79669e-07
1.485e-05
-1.06483e-06
1.49147e-05
-1.30813e-06
1.49671e-05
-1.58159e-06
1.49614e-05
-2.16363e-06
1.49114e-05
-2.63499e-06
1.48283e-05
-3.87112e-06
1.46371e-05
-4.81006e-06
-6.53479e-06
1.45376e-05
1.31791e-05
-4.91214e-06
1.3624e-05
-5.44672e-06
1.37272e-05
-2.73446e-06
1.39947e-05
-1.81985e-06
1.4228e-05
-1.83984e-06
1.43749e-05
-1.67116e-06
1.4483e-05
-1.58336e-06
1.45399e-05
-1.51989e-06
1.46345e-05
-1.04476e-06
1.46781e-05
-1.18147e-06
1.47661e-05
-1.02827e-06
1.48087e-05
-1.02231e-06
1.48607e-05
-1.11676e-06
1.48739e-05
-1.32139e-06
1.48555e-05
-1.56312e-06
1.47624e-05
-2.0706e-06
1.46317e-05
-2.50425e-06
1.43777e-05
-3.61712e-06
1.40304e-05
-4.46281e-06
-6.29214e-06
1.37878e-05
1.32563e-05
-5.6684e-06
1.36788e-05
-5.8693e-06
1.38217e-05
-2.87733e-06
1.4119e-05
-2.11718e-06
1.43348e-05
-2.05561e-06
1.4455e-05
-1.79135e-06
1.45363e-05
-1.66467e-06
1.45612e-05
-1.54476e-06
1.4622e-05
-1.10555e-06
1.46228e-05
-1.18228e-06
1.46363e-05
-1.04185e-06
1.46092e-05
-9.95151e-07
1.45679e-05
-1.07552e-06
1.44821e-05
-1.23557e-06
1.43601e-05
-1.44112e-06
1.41613e-05
-1.87179e-06
1.39163e-05
-2.25928e-06
1.35131e-05
-3.21383e-06
1.29902e-05
-3.9399e-06
-5.11422e-06
1.18122e-05
1.33508e-05
-6.51921e-06
1.3687e-05
-6.20551e-06
1.39474e-05
-3.13775e-06
1.42344e-05
-2.40414e-06
1.43784e-05
-2.19961e-06
1.44186e-05
-1.83152e-06
1.43939e-05
-1.64002e-06
1.43071e-05
-1.45791e-06
1.42513e-05
-1.04983e-06
1.41358e-05
-1.06673e-06
1.40272e-05
-9.33203e-07
1.3905e-05
-8.72996e-07
1.37636e-05
-9.3411e-07
1.35915e-05
-1.06343e-06
1.3385e-05
-1.23469e-06
1.311e-05
-1.59681e-06
1.27783e-05
-1.92752e-06
1.22841e-05
-2.71962e-06
1.16905e-05
-3.34636e-06
-4.55649e-06
1.11328e-05
1.34729e-05
-7.49209e-06
1.37539e-05
-6.48656e-06
1.40083e-05
-3.39216e-06
1.41473e-05
-2.54312e-06
1.40721e-05
-2.12442e-06
1.39066e-05
-1.66599e-06
1.36858e-05
-1.41919e-06
1.34436e-05
-1.21577e-06
1.32577e-05
-8.63944e-07
1.3043e-05
-8.51941e-07
1.28523e-05
-7.4254e-07
1.26722e-05
-6.92855e-07
1.24764e-05
-7.38399e-07
1.22592e-05
-8.46215e-07
1.20097e-05
-9.85152e-07
1.16938e-05
-1.28092e-06
1.13128e-05
-1.54648e-06
1.07712e-05
-2.17806e-06
1.01056e-05
-2.68075e-06
-3.55128e-06
9.1004e-06
1.35835e-05
-8.57562e-06
1.36632e-05
-6.5662e-06
1.36308e-05
-3.35974e-06
1.33992e-05
-2.3116e-06
1.30097e-05
-1.73493e-06
1.26295e-05
-1.28574e-06
1.2263e-05
-1.05271e-06
1.19338e-05
-8.86608e-07
1.16876e-05
-6.17668e-07
1.14374e-05
-6.01794e-07
1.12216e-05
-5.26736e-07
1.1025e-05
-4.9626e-07
1.08146e-05
-5.27926e-07
1.05849e-05
-6.1657e-07
1.03223e-05
-7.22509e-07
9.99226e-06
-9.50919e-07
9.59228e-06
-1.1465e-06
9.03272e-06
-1.6185e-06
8.35056e-06
-1.99859e-06
-2.65452e-06
7.45379e-06
1.34072e-05
-9.48285e-06
1.28925e-05
-6.05152e-06
1.23305e-05
-2.79774e-06
1.17122e-05
-1.69324e-06
1.11265e-05
-1.14928e-06
1.06607e-05
-8.1994e-07
1.0263e-05
-6.54981e-07
9.93077e-06
-5.54367e-07
9.68682e-06
-3.73718e-07
9.4497e-06
-3.64679e-07
9.24707e-06
-3.24103e-07
9.0617e-06
-3.10895e-07
8.86383e-06
-3.30057e-07
8.64523e-06
-3.97968e-07
8.39218e-06
-4.69461e-07
8.07152e-06
-6.3026e-07
7.67952e-06
-7.54499e-07
7.1373e-06
-1.07628e-06
6.46748e-06
-1.32876e-06
-1.8619e-06
5.67487e-06
1.24219e-05
-9.40477e-06
1.10073e-05
-4.63687e-06
9.98295e-06
-1.77342e-06
9.19788e-06
-9.08168e-07
8.61308e-06
-5.6448e-07
8.19019e-06
-3.97053e-07
7.84821e-06
-3.12998e-07
7.56818e-06
-2.74343e-07
7.3676e-06
-1.73138e-07
7.17565e-06
-1.72728e-07
7.01009e-06
-1.5854e-07
6.85511e-06
-1.55918e-07
6.68983e-06
-1.64777e-07
6.50033e-06
-2.0847e-07
6.27741e-06
-2.4654e-07
5.98886e-06
-3.41703e-07
5.63599e-06
-4.01629e-07
5.14593e-06
-5.86223e-07
4.5354e-06
-7.18239e-07
-1.12782e-06
3.80131e-06
1.01085e-05
-7.01326e-06
7.83247e-06
-2.36085e-06
6.71157e-06
-6.52518e-07
6.05975e-06
-2.5635e-07
5.64073e-06
-1.4546e-07
5.34841e-06
-1.04734e-07
5.11673e-06
-8.13233e-08
4.92156e-06
-7.91649e-08
4.79125e-06
-4.28344e-08
4.66373e-06
-4.52023e-08
4.5505e-06
-4.5318e-08
4.44084e-06
-4.62593e-08
4.32422e-06
-4.81507e-08
4.18163e-06
-6.58804e-08
4.01285e-06
-7.7762e-08
3.78524e-06
-1.14091e-07
3.51237e-06
-1.28757e-07
3.12208e-06
-1.95933e-07
2.64259e-06
-2.38754e-07
-4.76849e-07
1.99162e-06
5.48674e-06
3.12589e-06
2.47338e-06
2.21703e-06
2.07157e-06
1.96683e-06
1.88551e-06
1.80634e-06
1.76351e-06
1.71831e-06
1.67299e-06
1.62673e-06
1.57858e-06
1.5127e-06
1.43494e-06
1.32085e-06
1.19209e-06
9.96155e-07
7.57402e-07
2.80553e-07
4.3281e-06
9.31847e-07
-2.43685e-06
5.98226e-06
5.14155e-07
-2.16831e-06
7.90264e-06
-7.55224e-07
-1.16516e-06
1.0247e-05
-5.3152e-06
2.97084e-06
1.1513e-05
-9.34194e-06
8.07597e-06
1.15778e-05
-1.44779e-05
1.4413e-05
1.13586e-05
-1.72047e-05
1.74239e-05
1.06528e-05
-1.71084e-05
1.78142e-05
9.86641e-06
-1.76721e-05
1.84585e-05
9.04553e-06
-1.44105e-05
1.52314e-05
8.31245e-06
-1.26407e-05
1.33738e-05
7.50496e-06
-9.93852e-06
1.0746e-05
6.93329e-06
-7.97734e-06
8.54901e-06
7.17843e-06
-5.62817e-06
5.38303e-06
6.94727e-06
-1.43575e-06
1.66691e-06
5.94887e-06
-8.2864e-07
1.82705e-06
5.98681e-06
-1.64979e-06
1.61185e-06
7.39415e-06
6.18471e-06
-7.59205e-06
8.99202e-06
1.51296e-05
-1.67275e-05
1.0028e-05
1.62904e-05
-1.73264e-05
1.04461e-05
1.44545e-05
-1.48726e-05
1.07371e-05
1.21694e-05
-1.24605e-05
1.12578e-05
1.02949e-05
-1.08156e-05
1.18442e-05
9.87715e-06
-1.04636e-05
1.23371e-05
1.0143e-05
-1.06359e-05
1.27523e-05
9.94096e-06
-1.03561e-05
1.31344e-05
1.02248e-05
-1.06069e-05
1.34498e-05
9.64276e-06
-9.95809e-06
1.39066e-05
6.92434e-06
-7.38113e-06
1.44117e-05
3.77333e-06
-4.27847e-06
1.46311e-05
2.77212e-06
-2.99154e-06
1.50227e-05
-2.37576e-07
-1.53978e-07
1.55048e-05
-7.17596e-06
6.69387e-06
1.58166e-05
-1.36584e-05
1.33466e-05
1.59144e-05
-1.68895e-05
1.67917e-05
1.58559e-05
-1.73628e-05
1.74213e-05
1.60519e-05
-1.86124e-05
1.84164e-05
1.64545e-05
-2.23665e-05
2.19639e-05
1.64801e-05
-2.63432e-05
2.63176e-05
1.60224e-05
-2.87625e-05
2.92202e-05
1.54883e-05
-2.98601e-05
3.03942e-05
1.52404e-05
-3.08142e-05
3.10621e-05
1.52338e-05
-3.19813e-05
3.19879e-05
1.50374e-05
-3.22991e-05
3.24956e-05
1.43941e-05
-3.12416e-05
3.18849e-05
1.35318e-05
-2.89331e-05
2.97954e-05
1.26239e-05
-2.61602e-05
2.70681e-05
1.17176e-05
-2.3594e-05
2.45002e-05
1.07254e-05
-2.06711e-05
2.16633e-05
9.47313e-06
-1.72933e-05
1.85455e-05
8.12011e-06
-1.39088e-05
1.52619e-05
7.12966e-06
-1.14932e-05
1.24837e-05
6.67653e-06
-1.01344e-05
1.05875e-05
6.6966e-06
-9.98989e-06
9.96982e-06
7.16569e-06
-1.14789e-05
1.10099e-05
8.02614e-06
-1.26742e-05
1.18138e-05
8.93045e-06
-1.29922e-05
1.20879e-05
9.79907e-06
-1.29618e-05
1.20932e-05
1.06357e-05
-1.18953e-05
1.10586e-05
1.13986e-05
-1.0518e-05
9.75516e-06
1.19608e-05
-8.88504e-06
8.3228e-06
1.24074e-05
-5.93992e-06
5.49336e-06
1.27487e-05
-3.1708e-06
2.82949e-06
1.29079e-05
-6.23003e-07
4.63816e-07
1.30777e-05
3.04227e-06
-3.21206e-06
1.31831e-05
5.90489e-06
-6.01027e-06
1.30878e-05
8.45587e-06
-8.36059e-06
1.28865e-05
1.112e-05
-1.09187e-05
1.25472e-05
1.36129e-05
-1.32736e-05
1.21594e-05
1.50395e-05
-1.46518e-05
1.16142e-05
1.55757e-05
-1.50304e-05
1.10379e-05
1.68547e-05
-1.62785e-05
1.08236e-05
1.7204e-05
-1.69897e-05
1.05394e-05
1.60113e-05
-1.57271e-05
1.02791e-05
1.69722e-05
-1.67118e-05
1.01232e-05
1.70869e-05
-1.6931e-05
9.89675e-06
1.65859e-05
-1.63595e-05
9.57834e-06
1.62337e-05
-1.59153e-05
9.14524e-06
1.44782e-05
-1.40451e-05
8.81872e-06
1.34291e-05
-1.31025e-05
8.58167e-06
1.31516e-05
-1.29145e-05
8.39666e-06
1.08202e-05
-1.06352e-05
8.24747e-06
8.24625e-06
-8.09706e-06
8.08257e-06
8.63681e-06
-8.47191e-06
8.01477e-06
9.40598e-06
-9.33818e-06
8.09857e-06
9.32024e-06
-9.40403e-06
8.23139e-06
9.09147e-06
-9.2243e-06
8.09472e-06
8.74105e-06
-8.60437e-06
7.69886e-06
7.57304e-06
-7.17719e-06
7.73847e-06
6.14236e-06
-6.18196e-06
8.1932e-06
6.21882e-06
-6.67355e-06
8.26281e-06
7.62104e-06
-7.69064e-06
8.07316e-06
8.52745e-06
-8.33781e-06
8.3339e-06
7.30692e-06
-7.56766e-06
8.96691e-06
7.0765e-06
-7.70951e-06
9.66764e-06
9.42401e-06
-1.01247e-05
1.0151e-05
1.10565e-05
-1.15398e-05
1.044e-05
1.15525e-05
-1.18415e-05
1.09255e-05
1.2235e-05
-1.27206e-05
1.1735e-05
1.37819e-05
-1.45913e-05
1.24543e-05
1.51354e-05
-1.58547e-05
1.2984e-05
1.61773e-05
-1.6707e-05
1.34164e-05
1.60346e-05
-1.6467e-05
1.37216e-05
1.50831e-05
-1.53883e-05
1.37294e-05
1.43538e-05
-1.43616e-05
1.36567e-05
1.16238e-05
-1.15511e-05
1.34673e-05
7.69633e-06
-7.50686e-06
1.32029e-05
5.35965e-06
-5.09525e-06
1.29861e-05
4.06244e-07
-1.89473e-07
1.26685e-05
-5.4767e-06
5.79435e-06
1.22584e-05
-8.64546e-06
9.05548e-06
1.19662e-05
-1.24337e-05
1.2726e-05
1.17623e-05
-1.82297e-05
1.84337e-05
1.1437e-05
-2.3349e-05
2.36743e-05
1.09037e-05
-2.54781e-05
2.60114e-05
1.04213e-05
-2.6142e-05
2.66243e-05
1.01156e-05
-2.68184e-05
2.71242e-05
9.78301e-06
-2.65591e-05
2.68917e-05
9.45076e-06
-2.5436e-05
2.57683e-05
9.28067e-06
-2.38502e-05
2.40203e-05
9.38396e-06
-2.27612e-05
2.26579e-05
9.73133e-06
-2.28806e-05
2.25332e-05
1.01276e-05
-2.35911e-05
2.31949e-05
1.04332e-05
-2.40045e-05
2.36988e-05
1.06288e-05
-2.40673e-05
2.38717e-05
1.08052e-05
-2.36279e-05
2.34515e-05
1.09867e-05
-2.23771e-05
2.21956e-05
1.11301e-05
-2.02144e-05
2.0071e-05
1.12162e-05
-1.72415e-05
1.71555e-05
1.12157e-05
-1.3674e-05
1.36745e-05
1.10571e-05
-9.76924e-06
9.92786e-06
1.07532e-05
-6.08297e-06
6.38685e-06
1.03944e-05
-2.68032e-06
3.03917e-06
1.01598e-05
3.5855e-07
-1.23978e-07
1.01724e-05
3.05879e-06
-3.07139e-06
1.03619e-05
5.23415e-06
-5.42365e-06
1.04496e-05
7.38375e-06
-7.47149e-06
1.03148e-05
1.01512e-05
-1.00163e-05
1.02738e-05
1.23904e-05
-1.23494e-05
1.02822e-05
1.28804e-05
-1.28888e-05
1.01481e-05
1.30698e-05
-1.29356e-05
9.83677e-06
1.32624e-05
-1.29511e-05
9.50216e-06
1.37987e-05
-1.3464e-05
8.9732e-06
1.42541e-05
-1.37252e-05
8.18881e-06
1.69168e-05
-1.61324e-05
7.53295e-06
2.12798e-05
-2.0624e-05
7.40213e-06
2.22087e-05
-2.20778e-05
7.47115e-06
2.0185e-05
-2.02541e-05
7.17075e-06
1.83634e-05
-1.8063e-05
7.21284e-06
1.9017e-05
-1.90591e-05
7.06887e-06
2.06956e-05
-2.05517e-05
6.7984e-06
2.04572e-05
-2.01868e-05
6.52444e-06
2.09109e-05
-2.0637e-05
6.60965e-06
2.01823e-05
-2.02675e-05
6.36013e-06
2.11507e-05
-2.09011e-05
6.20069e-06
1.99051e-05
-1.97457e-05
6.04826e-06
1.85999e-05
-1.84474e-05
6.14201e-06
2.06284e-05
-2.07222e-05
6.28427e-06
1.96662e-05
-1.98084e-05
6.35371e-06
1.9851e-05
-1.99205e-05
6.57317e-06
1.9427e-05
-1.96464e-05
7.0893e-06
1.75443e-05
-1.80604e-05
7.74255e-06
1.43329e-05
-1.49862e-05
8.13645e-06
1.05508e-05
-1.09447e-05
8.74499e-06
6.5638e-06
-7.17234e-06
9.62225e-06
5.01294e-06
-5.8902e-06
9.97209e-06
2.25415e-06
-2.60399e-06
1.03177e-05
-1.43834e-06
1.09273e-06
1.097e-05
-6.46893e-06
5.81663e-06
1.13372e-05
-8.79507e-06
8.42791e-06
1.1706e-05
-1.31468e-05
1.2778e-05
1.20106e-05
-1.65533e-05
1.62487e-05
1.2112e-05
-1.89354e-05
1.8834e-05
1.20685e-05
-1.86522e-05
1.86957e-05
1.20206e-05
-1.93586e-05
1.94065e-05
1.17387e-05
-1.80727e-05
1.83546e-05
1.12109e-05
-1.49128e-05
1.54405e-05
1.06626e-05
-1.24123e-05
1.29606e-05
1.00546e-05
-1.18106e-05
1.24187e-05
9.06805e-06
-1.15775e-05
1.2564e-05
8.12119e-06
-8.97347e-06
9.92033e-06
7.4601e-06
-6.76961e-06
7.4307e-06
6.7047e-06
-6.70947e-06
7.46488e-06
6.01753e-06
-6.71411e-06
7.40127e-06
6.37516e-06
-5.91675e-06
5.55913e-06
6.05784e-06
-3.68378e-06
4.0011e-06
5.41921e-06
-4.08913e-06
4.72777e-06
5.32195e-06
-3.21702e-06
3.31427e-06
5.98677e-06
-2.08103e-07
-4.56709e-07
6.96641e-06
4.66595e-06
-5.6456e-06
7.81184e-06
9.2118e-06
-1.00572e-05
8.38066e-06
1.2478e-05
-1.30468e-05
8.62246e-06
1.51238e-05
-1.53656e-05
8.58326e-06
1.70073e-05
-1.69681e-05
8.50886e-06
1.90933e-05
-1.90189e-05
8.124e-06
2.20624e-05
-2.16775e-05
7.20004e-06
2.36437e-05
-2.27197e-05
6.2442e-06
2.52214e-05
-2.42656e-05
6.31028e-06
2.99194e-05
-2.99855e-05
4.30671e-05
-4.29785e-05
6.22168e-06
7.33376e-06
-2.7461e-07
8.70086e-06
-8.52938e-07
1.03669e-05
-2.42128e-06
1.19935e-05
-6.94181e-06
1.28639e-05
-1.02123e-05
1.27347e-05
-1.43486e-05
1.23774e-05
-1.68474e-05
1.15882e-05
-1.63192e-05
1.05885e-05
-1.66725e-05
9.69938e-06
-1.35214e-05
8.9077e-06
-1.1849e-05
8.0941e-06
-9.12492e-06
7.32372e-06
-7.20697e-06
7.50849e-06
-5.81293e-06
7.63478e-06
-1.56205e-06
6.58524e-06
2.20906e-07
6.04657e-06
-1.11112e-06
7.30352e-06
4.92776e-06
9.08939e-06
1.33437e-05
1.03771e-05
1.50027e-05
1.10702e-05
1.37615e-05
1.13447e-05
1.18949e-05
1.18678e-05
9.77187e-06
1.22542e-05
9.49066e-06
1.27365e-05
9.66073e-06
1.33265e-05
9.35099e-06
1.38449e-05
9.70636e-06
1.41709e-05
9.3167e-06
1.45546e-05
6.54067e-06
1.49498e-05
3.37815e-06
1.51689e-05
2.55305e-06
1.57021e-05
-7.70794e-07
1.62439e-05
-7.71781e-06
1.64396e-05
-1.3854e-05
1.63322e-05
-1.67822e-05
1.6158e-05
-1.71886e-05
1.63847e-05
-1.88391e-05
1.67608e-05
-2.27425e-05
1.66511e-05
-2.62335e-05
1.61006e-05
-2.82121e-05
1.56176e-05
-2.93771e-05
1.54283e-05
-3.06249e-05
1.53242e-05
-3.18772e-05
1.49034e-05
-3.18783e-05
1.40122e-05
-3.03505e-05
1.29838e-05
-2.79047e-05
1.2002e-05
-2.51783e-05
1.09537e-05
-2.25457e-05
9.71514e-06
-1.94325e-05
8.27831e-06
-1.58564e-05
6.96499e-06
-1.25955e-05
6.20942e-06
-1.07377e-05
5.97464e-06
-9.89958e-06
6.11e-06
-1.01252e-05
6.66406e-06
-1.2033e-05
7.59819e-06
-1.36084e-05
8.54218e-06
-1.39362e-05
9.38965e-06
-1.38093e-05
1.02048e-05
-1.27104e-05
1.09377e-05
-1.1251e-05
1.14612e-05
-9.40847e-06
1.187e-05
-6.34871e-06
1.21972e-05
-3.49803e-06
1.23834e-05
-8.09166e-07
1.25575e-05
2.86816e-06
1.2632e-05
5.83037e-06
1.25627e-05
8.52516e-06
1.24035e-05
1.12792e-05
1.2106e-05
1.39104e-05
1.17694e-05
1.53761e-05
1.12155e-05
1.61296e-05
1.06527e-05
1.74175e-05
1.04081e-05
1.74486e-05
1.00443e-05
1.63751e-05
9.82807e-06
1.71884e-05
9.74235e-06
1.71726e-05
9.57275e-06
1.67555e-05
9.30346e-06
1.6503e-05
8.93424e-06
1.48475e-05
8.6526e-06
1.37107e-05
8.42312e-06
1.33811e-05
8.25609e-06
1.09872e-05
8.12167e-06
8.38067e-06
7.96027e-06
8.79822e-06
7.89351e-06
9.47274e-06
7.97917e-06
9.23457e-06
8.12546e-06
8.94518e-06
8.00909e-06
8.85742e-06
7.68413e-06
7.89801e-06
7.78754e-06
6.03895e-06
8.21976e-06
5.78659e-06
8.33337e-06
7.50743e-06
8.18997e-06
8.67085e-06
8.36274e-06
7.13415e-06
8.86237e-06
6.57688e-06
9.6015e-06
8.68488e-06
1.02213e-05
1.04368e-05
1.05451e-05
1.12286e-05
1.09938e-05
1.17863e-05
1.17881e-05
1.29876e-05
1.25377e-05
1.43858e-05
1.3116e-05
1.55991e-05
1.36112e-05
1.55394e-05
1.39567e-05
1.47375e-05