/*--------------------------------*- C++ -*----------------------------------*\
| =========                 |                                                 |
| \\      /  F ield         | OpenFOAM: The Open Source CFD Toolbox           |
|  \\    /   O peration     | Version:  2.4.0                                 |
|   \\  /    A nd           | Web:      www.OpenFOAM.org                      |
|    \\/     M anipulation  |                                                 |
\*---------------------------------------------------------------------------*/
FoamFile
{
    version     2.0;
    format      ascii;
    class       volScalarField;
    location    "0.284";
    object      p;
}
// * * * * * * * * * * * * * * * * * * * * * * * * * * * * * * * * * * * * * //

dimensions      [0 2 -2 0 0 0 0];

internalField   nonuniform List<scalar> 
17600
(
105.441
89.8086
85.3876
84.2137
83.2737
82.3407
81.4159
80.6575
79.951
79.1174
78.4415
77.6851
76.8857
76.1401
75.2426
74.3119
73.1451
71.4682
69.0215
64.6011
103.533
89.8587
85.4286
84.2233
83.2766
82.3418
81.4162
80.6572
79.9521
79.1177
78.4408
77.6863
76.8858
76.1412
75.2445
74.3127
73.1513
71.4784
69.0205
65.1273
102.12
90.1151
85.5726
84.2613
83.2904
82.3467
81.4182
80.6587
79.9545
79.1184
78.4412
77.6878
76.8867
76.1441
75.2491
74.3177
73.1663
71.5111
69.0898
65.8802
101.145
90.4568
85.7926
84.3262
83.3199
82.3616
81.4271
80.6651
79.96
79.1216
78.4436
77.6906
76.8891
76.1495
75.2573
74.3305
73.1952
71.5776
69.2361
66.8086
100.323
90.792
86.0568
84.4082
83.3626
82.3892
81.4473
80.6797
79.9709
79.1304
78.4491
77.6956
76.894
76.1582
75.2698
74.3521
73.2407
71.6789
69.4773
67.8492
99.549
91.0851
86.3344
84.4911
83.4048
82.4234
81.4779
80.7029
79.9879
79.1467
78.4586
77.704
76.902
76.1713
75.2871
74.3831
73.3041
71.8153
69.8184
68.9623
98.8203
91.3329
86.611
84.5698
83.4365
82.4541
81.5135
80.731
80.0087
79.1699
78.4714
77.7156
76.9136
76.1885
75.3101
74.4242
73.3862
71.9824
70.2588
70.1489
98.1474
91.5378
86.8797
84.6466
83.4572
82.4762
81.5494
80.7601
80.0306
79.1968
78.485
77.729
76.9279
76.2078
75.3387
74.4743
73.4863
72.1789
70.7617
71.3689
97.5359
91.7034
87.1323
84.726
83.4695
82.49
81.5823
80.7883
80.0529
79.2252
78.497
77.7439
76.9424
76.2284
75.371
74.5322
73.5942
72.4025
71.2748
72.4541
96.988
91.8307
87.3659
84.8093
83.4761
82.4959
81.6113
80.8148
80.0748
79.2536
78.5068
77.7589
76.9575
76.2472
75.4074
74.5929
73.7116
72.6382
71.7883
73.4592
96.5019
91.9228
87.5797
84.8969
83.4783
82.4947
81.6359
80.8399
80.0966
79.2798
78.516
77.7745
76.9709
76.2661
75.4475
74.6528
73.8356
72.8798
72.2959
74.3559
96.0745
91.9842
87.7736
84.989
83.4767
82.4871
81.657
80.8634
80.1173
79.3049
78.5241
77.7896
76.9849
76.2854
75.4912
74.7152
73.9624
73.1264
72.7901
75.1157
95.7033
92.0197
87.9476
85.084
83.472
82.4755
81.6738
80.8856
80.1362
79.3296
78.5302
77.8033
77.0008
76.3043
75.5375
74.7811
74.0918
73.3725
73.2518
75.7352
95.3853
92.0364
88.1016
85.1774
83.4668
82.461
81.6877
80.9055
80.1538
79.3516
78.5364
77.8158
77.0259
76.3234
75.5855
74.8471
74.226
73.6193
73.6735
76.215
95.1175
92.0424
88.2343
85.2615
83.4627
82.4461
81.699
80.9233
80.1698
79.3712
78.5426
77.8277
77.0434
76.3429
75.6336
74.9172
74.3539
73.8649
74.0874
76.5879
94.8971
92.0434
88.3438
85.3343
83.4596
82.4326
81.707
80.9397
80.1828
79.389
78.5472
77.8385
77.06
76.3629
75.6832
74.987
74.4853
74.089
74.4994
76.9294
94.7238
92.0408
88.4303
85.3938
83.459
82.4197
81.7136
80.9527
80.1945
79.4032
78.5542
77.848
77.0828
76.381
75.7377
75.0562
74.6173
74.3053
74.8627
77.303
94.595
92.0374
88.4935
85.4405
83.4577
82.4104
81.7175
80.9637
80.2026
79.4169
78.5577
77.8575
77.1
76.4053
75.7799
75.134
74.7314
74.5253
75.1474
77.6024
94.5106
92.0333
88.5351
85.4727
83.4573
82.4039
81.72
80.9714
80.2085
79.4266
78.564
77.8654
77.1194
76.4252
75.8326
75.2064
74.8561
74.7242
75.3995
77.9347
94.4692
92.0301
88.5555
85.49
83.4564
82.4015
81.7214
80.9761
80.2116
79.4335
78.5708
77.8724
77.1388
76.4473
75.8803
75.2832
74.9692
74.9184
75.6623
78.1753
94.4704
92.0283
88.555
85.4923
83.4543
82.404
81.7215
80.9791
80.2113
79.4393
78.5763
77.8821
77.1569
76.4729
75.9249
75.359
75.0809
75.0953
75.9423
78.3627
94.5147
92.0275
88.5345
85.4787
83.4515
82.4095
81.7216
80.9769
80.2106
79.4347
78.5835
77.8774
77.1799
76.4949
75.9748
75.4301
75.1972
75.2583
76.1891
78.6177
94.6015
92.0277
88.4921
85.4508
83.4478
82.4197
81.7194
80.9738
80.203
79.4366
78.589
77.8858
77.1931
76.5244
76.0141
75.5081
75.2928
75.4285
76.3465
78.7944
94.7331
92.0271
88.4283
85.4076
83.4456
82.431
81.7177
80.9653
80.1947
79.4313
78.5959
77.8894
77.2123
76.5509
76.0589
75.5769
75.3981
75.575
76.4894
79.0322
94.9091
92.0256
88.3409
85.3518
83.4441
82.4449
81.7144
80.955
80.1827
79.4254
78.6016
77.8951
77.2277
76.5797
76.099
75.6484
75.4943
75.7176
76.6484
79.161
95.1322
92.0205
88.2305
85.283
83.445
82.4586
81.7103
80.9413
80.1681
79.4171
78.607
77.9003
77.2407
76.6098
76.1369
75.7177
75.588
75.8477
76.8293
79.1799
95.4032
92.01
88.0972
85.202
83.4485
82.4717
81.7051
80.9241
80.1518
79.4053
78.6133
77.9022
77.257
76.6368
76.1794
75.7782
75.6876
75.9621
76.9927
79.2915
95.7235
91.9901
87.9411
85.1126
83.4532
82.4846
81.6969
80.9053
80.1317
79.3946
78.6157
77.9071
77.2654
76.6701
76.2125
75.8476
75.7658
76.0884
77.0537
79.343
96.0981
91.9513
87.7644
85.018
83.4589
82.4931
81.6875
80.8828
80.1112
79.3805
78.6196
77.9074
77.2777
76.6983
76.2507
75.9064
75.853
76.1941
77.122
79.4341
96.528
91.8877
87.5673
84.9272
83.4618
82.4968
81.675
80.859
80.0885
79.3658
78.6212
77.9068
77.2883
76.7257
76.288
75.9619
75.9401
76.2902
77.2126
79.4587
97.017
91.7925
87.3505
84.8414
83.4607
82.4949
81.6582
80.8339
80.0639
79.3507
78.6208
77.905
77.2962
76.7541
76.3208
76.0188
76.0176
76.3956
77.3027
79.3897
97.5672
91.6622
87.115
84.7608
83.4551
82.4853
81.6376
80.8071
80.0381
79.3339
78.62
77.9003
77.3045
76.7782
76.356
76.0657
76.101
76.4869
77.4136
79.2725
98.1796
91.4958
86.8616
84.6858
83.4422
82.4675
81.613
80.7797
80.0112
79.3163
78.6178
77.8952
77.3103
76.8008
76.3875
76.1088
76.1767
76.5689
77.5266
79.1851
98.8531
91.2913
86.5933
84.6131
83.4206
82.4406
81.5849
80.7524
79.9844
79.2987
78.6142
77.8905
77.3145
76.8207
76.4141
76.1487
76.2382
76.6473
77.5896
79.1063
99.5817
91.0443
86.3176
84.5372
83.3885
82.4056
81.5555
80.7267
79.9602
79.2825
78.6102
77.8869
77.3187
76.8366
76.4371
76.182
76.2899
76.7082
77.6484
79.0892
100.356
90.7519
86.0401
84.4556
83.3468
82.3682
81.5288
80.7058
79.9419
79.2705
78.6075
77.8859
77.3233
76.8491
76.4558
76.2089
76.3297
76.7551
77.6926
79.0777
101.178
90.417
85.7758
84.374
83.3051
82.3389
81.5104
80.6925
79.9315
79.2639
78.6064
77.8872
77.3278
76.8582
76.4696
76.2294
76.3573
76.7903
77.7185
79.0949
102.154
90.0757
85.5556
84.3088
83.2762
82.3239
81.5017
80.6867
79.9278
79.2615
78.6061
77.8894
77.3315
76.8637
76.4782
76.2429
76.3746
76.8124
77.737
79.1218
103.568
89.8198
85.4118
84.2701
83.2626
82.32
81.4991
80.6848
79.9274
79.2611
78.6058
77.891
77.3338
76.8662
76.4822
76.2499
76.3831
76.8229
77.7472
79.1588
105.477
89.77
85.3711
84.26
83.2593
82.32
81.4985
80.6841
79.9276
79.2614
78.6054
77.8915
77.3348
76.8665
76.483
76.2519
76.3856
76.8254
77.7503
79.2081
60.561
61.4082
65.6571
72.9234
81.3066
89.748
96.5261
101.523
104.744
103.972
101.057
94.4603
84.0299
65.8093
49.3878
40.286
36.5729
32.1201
27.9518
23.0385
18.9226
15.0144
10.659
8.56557
8.63431
9.11602
10.8182
14.1611
18.7427
23.7589
29.4433
36.3789
42.755
47.9818
52.9903
57.642
61.5292
64.8038
67.9295
70.8373
73.0362
74.6516
75.877
76.5478
76.2
74.7664
72.6525
69.8181
66.206
61.6413
56.2009
50.7456
45.4438
40.4464
36.3815
33.8018
32.5088
32.7636
35.1679
38.7005
42.9719
48.7483
55.6326
61.9164
67.3688
72.7221
77.8216
82.1564
85.6846
88.7141
90.8258
92.74
94.0526
94.92
96.0809
96.8126
97.2064
97.6403
97.773
97.8331
97.879
97.5604
96.8835
95.7631
94.0186
91.3529
87.6118
82.8047
76.234
68.8604
62.3589
56.0282
49.1604
43.0121
38.4079
35.0163
33.0374
33.0823
34.6824
37.9913
42.2043
46.8312
53.2178
60.197
66.1666
71.2488
75.8321
79.6236
82.2851
83.72
84.0676
83.7688
82.6649
80.663
78.0063
74.7732
71.3241
67.3009
62.8821
58.895
55.1835
51.1152
47.1389
44.1739
42.6894
42.7132
44.1326
46.8089
50.9057
56.3234
62.4269
68.5053
74.4498
80.2744
85.7591
89.3085
90.8446
91.1273
91.0364
90.7843
89.6418
87.0383
84.8037
82.2252
78.8033
75.6336
72.3211
68.742
64.7518
60.586
56.2311
52.233
48.1444
44.6295
42.6141
40.9009
40.3682
42.3708
44.0643
45.154
48.2843
52.8561
57.1599
61.0976
66.3451
72.2951
76.9574
81.0138
84.1912
85.3772
85.4439
85.0208
84.377
84.4135
85.0389
84.8005
84.6802
86.0473
87.933
88.3141
87.0299
85.7058
85.0392
84.3665
83.6117
83.5354
84.2505
85.3811
86.6238
87.858
88.9878
89.9029
89.9334
89.0446
87.2924
83.9864
78.5776
70.1748
55.523
14.5824
61.4979
62.4975
66.9431
74.4905
82.9077
91.3332
98.3608
103.455
106.7
106.359
103.557
97.5324
86.8975
68.3948
49.8484
39.5467
35.5186
31.8053
28.4099
24.0261
20.3591
17.3252
13.453
11.1279
11.007
11.593
13.1168
16.2764
21.1859
26.5473
31.8554
38.0976
44.1734
49.2297
53.8263
58.1381
62.0372
65.2917
68.212
71.0858
73.3985
74.9385
76.0594
76.7103
76.2818
74.6683
72.3391
69.2992
65.3385
60.2383
54.2157
48.2089
42.4917
37.1748
32.852
30.199
28.8659
29.1038
31.6437
35.372
39.8376
45.9424
53.3708
60.1712
66.0283
71.6396
77.048
81.5479
85.3444
88.5252
90.7315
92.7615
94.0839
94.9909
96.1976
96.8993
97.3022
97.7835
97.8797
97.9037
98.0177
97.7492
97.1195
96.0557
94.4114
91.8047
88.1246
83.3693
76.7859
69.5065
63.3266
57.4553
51.1021
45.3735
41.0442
37.9428
36.1587
36.2534
37.8718
41.0288
45.0222
49.3904
55.4892
62.2605
67.9198
72.6227
76.9034
80.3653
82.8389
84.0416
84.1428
83.7446
82.4207
80.1446
77.3142
73.8937
70.2674
66.0582
61.4013
57.2888
53.5773
49.3639
45.0788
41.9544
40.5881
40.7838
42.411
45.3174
49.6126
55.1537
61.3912
67.6345
73.715
79.7411
85.3482
89.0197
90.6444
90.8362
90.8462
90.5333
89.6142
87.4116
85.3069
83.0007
79.7729
76.6443
73.3867
69.8313
65.8642
61.7303
57.4239
53.4562
49.5136
46.0565
44.1257
42.6569
41.8189
43.5731
45.4756
46.3899
49.1207
53.7336
58.2237
61.9416
66.9935
72.9444
77.5785
81.197
84.1109
85.1756
85.0048
84.6969
84.199
84.0327
84.5141
84.387
84.2903
85.5632
87.278
87.2725
85.6127
83.9746
83.079
82.2546
81.4096
81.2158
81.8941
83.0202
84.2499
85.3846
86.4847
87.2977
87.1535
86.0784
84.0564
80.2924
73.9057
64.1083
48.7513
2.35768
62.9444
64.0191
68.3739
75.9549
84.3095
92.534
99.7175
104.747
107.993
107.958
105.32
99.8321
89.3993
70.5277
50.665
39.5995
35.1363
31.9369
29.0164
24.8397
21.4632
19.2524
15.845
13.4487
13.365
14.2426
15.7865
18.7964
23.7603
29.3277
34.4373
39.9396
45.4998
50.4095
54.6894
58.6524
62.5479
65.8247
68.5776
71.3834
73.814
75.3535
76.3923
77.0197
76.5413
74.7761
72.2365
68.9586
64.6214
58.9554
52.3385
45.8058
39.7159
34.119
29.5488
26.7838
25.3976
25.6341
28.3014
32.191
36.8122
43.2491
51.1874
58.4812
64.7484
70.6242
76.3411
80.987
85.0581
88.3641
90.6732
92.8099
94.133
95.1083
96.3428
97.0155
97.4326
97.9498
98.0095
97.9851
98.1453
97.9382
97.3436
96.3243
94.7865
92.25
88.6597
84.0008
77.4604
70.3296
64.4184
58.9852
53.1299
47.8256
43.8317
41.0553
39.472
39.5438
41.1346
44.1389
47.937
52.0806
57.864
64.4144
69.7881
74.1183
78.0886
81.2366
83.5055
84.4992
84.3804
83.8767
82.3167
79.7018
76.6686
73.1141
69.3207
64.844
59.9597
55.7428
52.0292
47.6825
43.0799
39.774
38.5159
38.9012
40.7801
43.9295
48.4275
54.0989
60.4961
66.9019
73.0936
79.3701
85.0282
88.8717
90.5241
90.6186
90.7429
90.3633
89.585
88.0212
86.06
83.7626
80.7361
77.8231
74.7101
71.1863
67.2566
63.248
59.0533
55.0555
51.1582
47.7701
45.851
44.6649
43.6053
44.9732
47.0338
47.9161
50.2794
54.779
59.4559
63.1263
67.8941
73.7169
78.3761
81.6539
84.2771
85.3083
85.012
84.7742
84.3463
83.8841
84.1783
84.1687
84.1597
85.2406
86.5285
86.0658
84.0629
82.1338
80.9233
79.9209
78.9893
78.7566
79.3904
80.5508
81.7891
82.9063
83.9752
84.7318
84.4468
83.1591
80.835
76.6831
69.6159
58.4678
43.1974
-1.10891
64.6516
65.8336
69.9823
77.2833
85.4788
93.3555
100.486
105.379
108.592
108.724
106.14
100.736
91.0678
72.6133
52.4596
40.6694
35.6367
32.7
30.2051
25.8272
22.7144
21.0866
18.2173
15.9113
15.9255
17.0571
18.7742
21.7522
26.5062
32.0293
37.0078
41.8301
46.7381
51.4852
55.5857
59.2251
63.024
66.3603
69.0153
71.7242
74.2489
75.8623
76.871
77.4805
76.9616
75.0906
72.3442
68.7777
64.0231
57.7968
50.5948
43.5628
37.1604
31.3245
26.5106
23.558
22.0933
22.351
25.141
29.1862
33.9498
40.7137
49.0955
56.8495
63.5131
69.6904
75.6933
80.4906
84.8065
88.2388
90.6767
92.8978
94.2232
95.2753
96.5259
97.1734
97.602
98.1325
98.1555
98.0613
98.2445
98.1119
97.5369
96.566
95.1372
92.6846
89.2265
84.7387
78.3154
71.3177
65.5984
60.538
55.1357
50.2777
46.6834
44.2227
42.8402
42.8695
44.3885
47.2397
50.8825
54.8709
60.3398
66.6425
71.7486
75.7182
79.3661
82.2451
84.2926
85.0818
84.7686
84.1604
82.398
79.4703
76.1868
72.4338
68.4784
63.717
58.5741
54.3077
50.6147
46.1209
41.2158
37.6772
36.5237
37.1079
39.2656
42.6548
47.3464
53.1794
59.7329
66.2742
72.5612
79.176
84.8311
88.7794
90.4571
90.4763
90.6718
90.322
89.6058
88.655
86.9429
84.526
81.6971
79.1085
76.1784
72.7049
68.8703
65.0211
61.0214
56.9946
53.0228
49.6858
47.764
46.6698
45.6226
46.5635
48.6751
49.6648
51.7327
56.0461
60.8148
64.5402
69.0743
74.6397
79.3178
82.4038
84.7498
85.8441
85.4127
85.1718
84.7095
83.8955
84.0264
84.0988
84.1525
85.0014
85.7228
84.7097
82.3494
80.1043
78.5799
77.3738
76.3881
76.1326
76.7407
78.007
79.3247
80.4165
81.4383
82.1543
81.8027
80.2887
77.6989
73.2341
65.8958
53.418
39.0047
0.842746
66.3986
67.7525
71.7896
78.5011
86.348
93.8491
100.679
105.369
108.485
108.772
106.1
100.898
92.1268
74.8633
54.7492
42.1687
36.5413
33.7372
31.7745
27.7491
24.4631
22.9513
20.6733
18.707
18.7425
20.0238
22.026
25.0451
29.4317
34.5951
39.4202
43.7244
47.9956
52.5225
56.5032
59.8507
63.4928
66.8526
69.4908
72.1332
74.7176
76.4456
77.4802
78.0898
77.5288
75.5673
72.645
68.7628
63.5432
56.7637
49.0189
41.5535
34.8689
28.7941
23.7199
20.5477
18.9764
19.3098
22.2245
26.3719
31.2789
38.3953
47.1503
55.3202
62.357
68.8743
75.0987
80.0531
84.6063
88.1776
90.7438
93.0052
94.3438
95.4713
96.7246
97.3515
97.7909
98.3103
98.2944
98.1227
98.3107
98.2544
97.692
96.7782
95.4791
93.1333
89.857
85.5824
79.3392
72.4376
66.8493
62.0889
57.0961
52.6934
49.4959
47.2999
46.121
46.1445
47.5742
50.2811
53.829
57.7409
62.914
68.9236
73.783
77.4166
80.7232
83.3787
85.1816
85.7862
85.3114
84.5619
82.6035
79.426
75.9042
71.8816
67.7064
62.6879
57.2872
52.9861
49.3743
44.7331
39.5402
35.7609
34.4607
35.4524
37.888
41.5213
46.3832
52.4134
59.1046
65.8153
72.1517
79.038
84.7331
88.6705
90.4017
90.4153
90.6167
90.4248
89.7408
89.1818
87.7948
85.4337
82.8426
80.5168
77.7456
74.3306
70.6319
66.9561
63.1363
59.0809
55.057
51.7928
49.8401
48.7058
47.8035
48.3864
50.3654
51.5828
53.4582
57.5195
62.2934
66.1669
70.506
75.7247
80.4097
83.4154
85.5479
86.7011
86.0694
85.77
85.156
84.0192
84.0314
84.1969
84.1919
84.6556
84.7832
83.2065
80.3877
77.8204
76.0004
74.5575
73.5968
73.3904
74.0242
75.3968
76.8561
77.9946
79.0077
79.6675
79.2155
77.5627
74.6965
70.0092
62.8586
49.1086
35.9098
4.38894
68.095
69.5852
73.602
79.5389
86.797
93.9403
100.405
104.813
107.72
108.172
105.502
100.87
93.1659
77.0604
57.2075
44.2119
38.1062
35.1575
33.5921
30.2334
26.7619
24.9956
23.2333
21.7278
21.8238
23.2354
25.4816
28.5134
32.4584
37.0448
41.6237
45.6164
49.3331
53.529
57.3724
60.4904
63.9694
67.351
70.0104
72.6336
75.2736
77.1395
78.2427
78.8407
78.2474
76.1869
73.0838
68.8661
63.1649
55.8475
47.6054
39.7848
32.8695
26.5702
21.1937
17.7829
16.1367
16.5651
19.6072
23.7896
28.8492
36.3182
45.3644
53.9181
61.2952
68.1666
74.5436
79.6808
84.4736
88.1334
90.8141
93.1024
94.4726
95.6815
96.9268
97.5568
98.0053
98.4841
98.4163
98.1719
98.3507
98.3556
97.8061
96.9731
95.8376
93.6243
90.5477
86.5297
80.5047
73.6969
68.21
63.6746
59.0301
55.0371
52.1965
50.2145
49.246
49.3192
50.6727
53.2593
56.7656
60.6835
65.588
71.2373
75.8625
79.2018
82.1594
84.6203
86.1665
86.5945
85.999
85.0816
82.8866
79.4868
75.7419
71.4484
67.0121
61.7335
56.1312
51.7951
48.2801
43.5905
38.112
34.1222
32.8311
34.0022
36.685
40.549
45.572
51.8068
58.6419
65.5238
71.8494
78.8677
84.8168
88.6747
90.3887
90.4525
90.5737
90.6326
90.0706
89.6586
88.538
86.5164
84.2171
82.0839
79.4089
76.0691
72.5577
69.0489
65.3489
61.2742
57.2448
54.0839
52.0939
50.8278
50.0665
50.4649
52.1524
53.58
55.4195
59.2194
63.8609
67.9568
72.1272
77.0021
81.6131
84.5724
86.5439
87.6656
86.8318
86.444
85.6249
84.25
84.1724
84.3946
84.2211
84.1277
83.5598
81.4363
78.1823
75.2303
73.1372
71.505
70.5649
70.4557
71.1856
72.781
74.4639
75.6221
76.6563
77.3186
76.7731
75.0252
71.9245
66.9368
60.444
45.6958
33.5587
7.47051
69.6655
71.2449
75.2885
80.3758
86.7945
93.5022
99.6592
103.825
106.51
107.05
104.603
100.63
94.0814
79.1771
60.1964
47.2546
40.6997
37.1265
35.557
32.974
29.5331
27.3289
25.8308
24.8564
25.2086
26.742
29.0438
31.9995
35.4902
39.4137
43.6519
47.4518
50.7037
54.4893
58.1689
61.1526
64.494
67.8772
70.5743
73.2004
75.8928
77.9242
79.1312
79.7255
79.0722
76.9177
73.6144
69.0449
62.8894
55.0598
46.4016
38.2681
31.1476
24.6235
18.9721
15.3258
13.666
14.2431
17.3476
21.496
26.7331
34.4893
43.7671
52.6783
60.364
67.5903
74.0837
79.3971
84.384
88.1103
90.936
93.2457
94.6508
95.939
97.1815
97.8306
98.2652
98.6591
98.5269
98.2163
98.3646
98.4104
97.8897
97.1647
96.2032
94.1423
91.2925
87.5855
81.7991
75.1478
69.7556
65.3779
60.9945
57.3442
54.8055
52.9714
52.2088
52.4135
53.7193
56.2141
59.7174
63.6893
68.3613
73.5803
77.9444
81.0563
83.6894
85.9306
87.2699
87.5061
86.8046
85.7105
83.2757
79.6754
75.6634
71.1086
66.4042
60.8613
55.1013
50.7536
47.3439
42.6847
37.0255
32.8283
31.5246
32.8053
35.6944
39.7594
44.9319
51.3653
58.3737
65.3244
71.7002
78.7465
85.0889
88.8307
90.4037
90.5689
90.58
90.8438
90.5753
90.2582
89.2441
87.5963
85.6329
83.6475
81.0673
77.8713
74.5485
71.1971
67.6455
63.5855
59.5589
56.5232
54.4923
53.0515
52.351
52.742
54.0848
55.5935
57.5582
61.1571
65.573
69.7988
73.9052
78.4386
82.8594
85.7432
87.5796
88.5407
87.615
87.1617
86.1591
84.5808
84.4391
84.6088
84.1203
83.3684
82.0917
79.3539
75.753
72.4947
70.0805
68.2527
67.3224
67.4346
68.3408
70.2093
72.1509
73.3831
74.489
75.1335
74.5306
72.7144
69.5444
64.0774
58.6151
43.1598
31.4683
9.34588
71.3186
72.737
76.7239
81.0393
86.5303
92.6532
98.5085
102.45
104.955
105.581
103.469
99.9467
94.3817
80.9889
63.2257
50.6053
43.8781
39.5213
37.6241
35.7141
32.6106
30.0515
28.5699
28.1482
28.903
30.4539
32.6115
35.37
38.4438
41.7461
45.5635
49.1646
52.071
55.4557
58.9724
61.837
65.0376
68.3912
71.1272
73.7678
76.5312
78.7684
80.1221
80.7227
79.9815
77.7379
74.2193
69.269
62.6843
54.4218
45.3941
37.0084
29.7166
22.9655
17.0584
13.2508
11.6364
12.405
15.5138
19.5452
24.9687
32.9618
42.4169
51.6162
59.5842
67.1307
73.6945
79.1829
84.3842
88.193
91.1377
93.4349
94.8654
96.2241
97.4711
98.1443
98.5559
98.8336
98.6283
98.2599
98.3653
98.4351
97.9663
97.375
96.5695
94.6889
92.1077
88.7258
83.251
76.8571
71.5794
67.2964
63.0747
59.6874
57.3878
55.6596
55.0753
55.4746
56.7865
59.2029
62.7124
66.7549
71.2092
75.9655
79.99
82.942
85.3162
87.3078
88.4793
88.526
87.7146
86.4544
83.762
80.0092
75.7136
70.8717
65.9042
60.0938
54.2046
49.8836
46.5753
42.0132
36.3068
31.935
30.5776
31.9139
34.9399
39.1574
44.4784
51.0848
58.2853
65.2567
71.7422
78.7164
85.3271
89.0206
90.4158
90.7156
90.6927
91.0084
91.1365
91.0607
90.1187
88.7236
87.016
85.1379
82.6803
79.6564
76.5004
73.257
69.8784
65.9239
61.9442
59.0169
56.9713
55.3678
54.6482
55.1345
56.1859
57.638
59.825
63.2842
67.4617
71.6795
75.8339
79.9929
84.1405
86.8857
88.6218
89.3392
88.411
87.9122
86.789
85.0212
84.7855
84.8427
83.9143
82.4367
80.5286
77.1539
73.1119
69.6328
66.992
64.9687
64.0363
64.3698
65.5668
67.8078
69.991
71.4262
72.5937
73.2187
72.461
70.5822
67.5629
61.3102
57.0559
41.4121
29.4331
10.2657
73.1011
74.3342
77.9589
81.5922
86.1965
91.6366
96.9214
100.829
103.108
103.844
102.111
98.7295
93.8159
81.9648
65.4544
53.5323
47.1443
42.3514
39.8633
38.4148
35.9311
33.2628
31.667
31.6477
32.7622
34.2318
36.0807
38.5683
41.2863
44.0402
47.387
50.7484
53.4192
56.4562
59.7462
62.4799
65.5504
68.8588
71.6668
74.3552
77.2154
79.651
81.1817
81.7967
80.9624
78.6039
74.8644
69.5573
62.5426
53.9368
44.5897
35.9696
28.5122
21.5893
15.5083
11.5853
10.0849
11.0311
14.0597
17.9917
23.6059
31.7417
41.3158
50.753
58.9856
66.7814
73.3683
79.0755
84.4344
88.2476
91.2914
93.6046
95.0719
96.5138
97.7863
98.4942
98.8691
99.0176
98.722
98.2959
98.3552
98.4279
98.0368
97.613
96.9546
95.2845
93.0103
89.9496
84.8801
78.8425
73.7186
69.4769
65.3644
62.1722
60.0621
58.4108
57.958
58.565
59.9403
62.2893
65.7694
69.8516
74.0884
78.3788
82.0066
84.8019
86.993
88.7625
89.7606
89.651
88.7303
87.3127
84.3597
80.4047
75.9248
70.7902
65.5491
59.4631
53.4573
49.204
45.9823
41.5446
35.9119
31.4518
29.9989
31.3312
34.4406
38.7648
44.2675
51.0042
58.3797
65.3011
71.9642
78.7947
85.4969
89.296
90.5176
90.8579
90.8844
91.2131
91.6424
91.9203
91.2312
90.0371
88.4894
86.6889
84.3148
81.4816
78.4727
75.2395
71.9636
68.1813
64.341
61.5362
59.4618
57.7138
56.9886
57.5855
58.4495
59.7614
62.1604
65.5556
69.4711
73.6072
77.8029
81.6332
85.4822
88.0746
89.7254
90.2095
89.2209
88.6281
87.4185
85.5341
85.1237
85.0533
83.6906
81.507
79.0643
75.0983
70.4216
66.6673
63.9062
61.7574
60.8455
61.4167
62.9454
65.6212
68.1053
69.7066
70.9638
71.5588
70.5705
68.5727
66.0794
58.7869
55.5721
40.0809
27.3592
10.6749
74.7752
75.7648
78.9638
82.1109
85.9178
90.716
95.2157
99.1626
101.128
101.89
100.568
97.166
92.6046
82.3181
67.2545
56.2475
50.4571
45.7143
42.5801
41.1704
39.3895
36.9239
35.2456
35.3182
36.5336
37.9034
39.4246
41.5634
43.9765
46.2906
49.1516
52.226
54.7108
57.4367
60.4527
63.0696
66.0498
69.3148
72.2011
74.9697
77.9341
80.5571
82.2468
82.8612
81.9659
79.4905
75.5216
69.8871
62.5314
53.6103
44.0209
35.1938
27.5657
20.4932
14.3217
10.3615
8.96487
10.0804
13.0029
16.8448
22.6342
30.8639
40.5437
50.1407
58.6017
66.5621
73.1567
79.0728
84.4763
88.3292
91.516
93.8306
95.333
96.8678
98.1658
98.8793
99.177
99.1926
98.802
98.3192
98.3178
98.3763
98.1089
97.8766
97.3561
95.941
94.0127
91.2654
86.6609
81.0628
76.1309
71.9481
67.93
64.8774
62.9303
61.3387
60.9641
61.7635
63.2315
65.5037
68.8926
72.9336
76.9393
80.7849
84.0142
86.6118
88.6741
90.2657
91.0963
90.8635
89.8508
88.2399
85.0597
80.8603
76.2181
70.8771
65.364
58.9876
52.8746
48.6808
45.5691
41.2555
35.76
31.3176
29.7865
31.063
34.1949
38.6023
44.2945
51.1647
58.67
65.4681
72.3918
79.0381
85.7771
89.6948
90.7493
90.9986
91.074
91.4561
92.0607
92.6496
92.3856
91.4553
90.0551
88.3284
85.9961
83.327
80.4683
77.1896
73.909
70.3436
66.7603
64.0635
61.9208
60.091
59.3967
60.0432
60.8112
61.9999
64.5296
67.9285
71.5792
75.5885
79.7339
83.3019
86.8657
89.3529
90.8813
91.2145
90.0151
89.2578
87.9391
85.9853
85.3813
85.1288
83.3823
80.611
77.6639
73.191
67.9431
63.7686
60.9672
58.5872
57.7797
58.6396
60.6471
63.7623
66.5135
68.3405
69.6811
70.1687
69.0276
66.6559
64.9715
56.4711
53.9004
39.0181
25.3489
10.9424
76.2687
76.957
79.7504
82.6001
85.6833
90.0126
93.9744
97.6094
99.3116
99.9254
98.9502
95.5978
91.2232
82.6089
69.3325
59.1231
53.789
49.4416
45.7322
44.0349
42.8288
40.8526
39.1722
38.987
40.0326
41.3417
42.6097
44.3688
46.5098
48.4951
50.8906
53.6276
55.9354
58.3962
61.1208
63.6277
66.554
69.773
72.6881
75.5503
78.6316
81.4134
83.259
83.8891
82.9379
80.3499
76.1815
70.2497
62.6327
53.4681
43.6902
34.6991
26.9242
19.7456
13.5283
9.56034
8.27892
9.45447
12.2662
16.1129
22.0482
30.3244
40.086
49.7463
58.3776
66.4016
73.0433
79.2107
84.648
88.571
91.837
94.1051
95.6517
97.2542
98.548
99.2353
99.4413
99.3387
98.8701
98.3422
98.2712
98.3177
98.2163
98.1657
97.7727
96.68
95.0911
92.6462
88.5472
83.4276
78.7462
74.6955
70.7772
67.8488
66.0541
64.5396
64.1649
65.1034
66.6644
68.8326
72.0537
75.9546
79.6903
83.1286
86.0109
88.3911
90.3399
91.7855
92.4771
92.1586
91.0524
89.2423
85.8356
81.4395
76.55
71.0473
65.3162
58.6707
52.4422
48.3134
45.2762
41.13
35.8248
31.4716
29.8852
31.0884
34.2202
38.7121
44.5644
51.6114
59.0877
65.7827
72.9111
79.5032
86.1579
90.0687
91.0071
91.1612
91.2176
91.6437
92.4212
93.2491
93.4792
92.8858
91.642
90.0017
87.6534
85.0763
82.3895
79.0852
75.7426
72.429
69.1646
66.5305
64.3223
62.4865
61.8521
62.486
63.2133
64.3379
66.9136
70.3356
73.7515
77.5918
81.5863
84.9668
88.221
90.6052
91.9855
92.2459
90.7959
89.8108
88.3551
86.2488
85.5131
85.0726
82.8022
79.6338
76.2151
71.3003
65.7121
61.2186
58.2953
55.8915
55.0806
56.2066
58.7074
62.276
65.2969
67.4237
68.8003
69.0098
67.8343
64.7682
64.2053
54.3941
51.7744
38.0551
23.646
11.3344
77.5092
77.949
80.284
83.0083
85.4898
89.433
92.9015
96.1339
97.7327
98.0754
97.3636
94.2816
90.0368
82.9485
71.7093
62.0421
56.9195
53.1266
49.1691
47.069
46.1428
44.7312
43.0904
42.4629
43.2414
44.5145
45.6226
47.0361
48.8932
50.6452
52.6284
54.987
57.0986
59.3289
61.7722
64.1218
66.9824
70.1637
73.0912
76.0456
79.2767
82.2101
84.1668
84.8252
83.8295
81.1323
76.7941
70.656
62.8127
53.5117
43.6262
34.5254
26.6177
19.3748
13.165
9.17316
7.9505
9.16031
11.8504
15.7492
21.8136
30.1456
39.9572
49.6113
58.3571
66.347
73.0499
79.4562
84.8239
88.7625
92.0918
94.3476
95.9444
97.5971
98.9066
99.5693
99.6742
99.4739
98.948
98.37
98.2252
98.2898
98.3753
98.4769
98.221
97.5019
96.2258
94.0995
90.5207
85.8778
81.5402
77.6945
73.9003
71.0941
69.4381
67.9959
67.5641
68.5699
70.1971
72.215
75.197
78.8722
82.3012
85.3575
87.9636
90.1474
91.9841
93.3131
93.8899
93.5057
92.3169
90.3513
86.7139
82.1555
76.9784
71.2773
65.3276
58.5069
52.1629
48.0923
45.1147
41.1218
36.0532
31.8729
30.2633
31.3882
34.5128
39.0703
45.0903
52.3931
59.636
66.3029
73.4693
80.1014
86.5261
90.3538
91.2331
91.3375
91.3242
91.7407
92.7029
93.8209
94.5498
94.3003
93.2405
91.6807
89.319
86.7552
84.2075
80.9539
77.4976
74.36
71.4308
68.8675
66.6212
64.8396
64.2914
64.8758
65.5964
66.7455
69.3106
72.7317
75.9491
79.5727
83.3297
86.5477
89.481
91.6915
92.9491
93.1325
91.5669
90.2919
88.7127
86.3598
85.4435
84.8723
82.0086
78.5248
74.7802
69.5436
63.7065
59.055
56.0952
53.7119
52.8681
54.2135
57.2624
61.2499
64.588
66.8504
68.3073
68.0409
67.154
62.7869
63.3919
52.5544
49.1908
37.2313
22.6515
12.1563
78.6063
78.89
80.699
83.2879
85.2853
88.8162
91.8812
94.6888
96.3387
96.4302
95.8851
93.2823
89.1782
83.2034
73.9016
64.8413
59.7992
56.4076
52.6978
50.2688
49.2724
48.2653
46.6818
45.7119
46.2637
47.4787
48.4622
49.587
51.1649
52.7207
54.3561
56.2927
58.1866
60.2197
62.379
64.5299
67.3145
70.4658
73.4035
76.4639
79.8415
82.9167
84.9687
85.6377
84.589
81.8054
77.3491
71.0526
63.0995
53.7426
43.8363
34.6786
26.6762
19.4431
13.2287
9.22483
7.99177
9.13835
11.7543
15.7726
21.9609
30.3563
40.1567
49.7231
58.5252
66.4274
73.1913
79.721
84.9805
88.9913
92.3769
94.6081
96.2663
97.9974
99.327
99.913
99.8742
99.586
99.0327
98.4205
98.2163
98.3326
98.5928
98.818
98.7333
98.3888
97.4104
95.6309
92.538
88.3702
84.4812
80.8774
77.242
74.5601
73.0189
71.667
71.1238
72.1073
73.7439
75.5699
78.2434
81.6412
84.7488
87.4551
89.8288
91.8751
93.6028
94.8555
95.3326
94.8621
93.6253
91.5478
87.6793
82.9849
77.5789
71.6692
65.4229
58.4614
52.0695
47.9966
45.0848
41.2488
36.4223
32.4561
30.8837
31.9599
35.0744
39.6981
45.8983
53.3964
60.3316
67.0622
74.0631
80.7192
86.9795
90.6135
91.463
91.4914
91.3946
91.7752
92.8835
94.4088
95.5691
95.5929
94.7666
93.3464
91.0584
88.4293
85.9374
82.7508
79.1491
76.121
73.5378
71.0547
68.7806
67.0967
66.6445
67.189
67.9336
69.1646
71.7048
75.0695
78.1284
81.5055
84.9904
87.9878
90.5935
92.6033
93.7525
93.7637
92.2258
90.6685
88.9498
86.377
85.2183
84.3832
81.0588
77.2735
73.3825
67.9864
62.1295
57.2543
54.3291
51.9837
51.143
52.7386
56.3143
60.678
64.4438
66.7
68.2929
66.9685
67.0075
60.9024
62.1778
50.8768
46.0902
36.4764
22.6408
13.782
79.4851
79.8079
81.1549
83.5158
85.1138
88.1714
90.973
93.359
95.0683
95.0699
94.5628
92.4936
88.5727
83.363
75.6611
67.5369
62.4604
59.2801
56.1226
53.442
52.1458
51.3245
49.9033
48.8698
49.1986
50.2357
51.1388
52.054
53.3644
54.7208
56.0405
57.5657
59.2075
61.0483
62.9506
64.9143
67.5944
70.6948
73.6192
76.7392
80.2527
83.4712
85.6199
86.3019
85.1968
82.3407
77.8064
71.3911
63.4554
54.1619
44.3211
35.112
27.0841
19.8923
13.7706
9.69932
8.43268
9.45978
12.0046
16.1723
22.4967
30.9467
40.6454
50.0445
58.823
66.62
73.4884
80.0858
85.2781
89.3512
92.7233
94.9289
96.651
98.4245
99.7397
100.215
100.036
99.6819
99.1343
98.5287
98.2935
98.4474
98.8471
99.2002
99.3243
99.3007
98.6302
97.2336
94.5508
90.8782
87.5053
84.1489
80.7356
78.1782
76.693
75.4311
74.7475
75.6225
77.1962
78.8148
81.1377
84.216
87.0151
89.4229
91.5834
93.5477
95.1883
96.4042
96.8051
96.2534
94.9623
92.753
88.7201
83.8764
78.3661
72.2759
65.7073
58.5411
52.1497
48.0727
45.167
41.4966
36.9485
33.2029
31.7069
32.7772
35.8902
40.6236
47.0226
54.5473
61.2221
67.9914
74.7327
81.5421
87.5416
90.9119
91.7598
91.6464
91.453
91.8253
93.0645
95.0386
96.4634
96.6502
96.12
94.9313
92.7975
90.0903
87.5324
84.3873
80.738
77.7953
75.4984
73.1001
70.8206
69.2452
68.8838
69.3896
70.1963
71.5619
74.0733
77.3297
80.2182
83.335
86.5282
89.2497
91.5342
93.3639
94.3946
94.1638
92.6086
90.8416
88.9149
86.2435
84.8826
83.6577
79.9079
75.9303
71.9591
66.647
60.945
55.8991
53.0137
50.6896
49.8921
51.8019
55.7712
60.5138
64.9498
66.5877
68.9061
65.7605
67.0716
58.9044
60.2563
49.3679
42.6545
35.7645
23.7031
16.2469
80.0904
80.5703
81.6274
83.7917
85.0798
87.5792
90.177
92.1952
93.8677
93.9343
93.3668
91.7401
88.1484
83.4596
77.0675
70.0487
64.8683
61.8576
59.1953
56.3764
54.7746
54.0227
52.923
51.9527
51.9801
52.8165
53.7
54.4534
55.476
56.6409
57.7041
58.8255
60.1673
61.8045
63.4604
65.2452
67.8118
70.8166
73.7138
76.86
80.4381
83.7924
86.0602
86.7788
85.6237
82.7247
78.1251
71.6874
63.8158
54.6943
45.0043
35.8204
27.7916
20.684
14.691
10.6608
9.27673
10.1668
12.7027
17.0052
23.4148
31.8916
41.4151
50.6245
59.2958
66.941
73.9131
80.4973
85.5563
89.6651
93.0314
95.2053
96.9404
98.7514
100.11
100.508
100.203
99.7835
99.2565
98.6892
98.4361
98.6138
99.1505
99.6402
99.9638
100.203
99.8993
98.8793
96.5006
93.3775
90.5408
87.4085
84.2782
81.8202
80.3133