/*--------------------------------*- C++ -*----------------------------------*\
| =========                 |                                                 |
| \\      /  F ield         | OpenFOAM: The Open Source CFD Toolbox           |
|  \\    /   O peration     | Version:  2.4.0                                 |
|   \\  /    A nd           | Web:      www.OpenFOAM.org                      |
|    \\/     M anipulation  |                                                 |
\*---------------------------------------------------------------------------*/
FoamFile
{
    version     2.0;
    format      ascii;
    class       volSymmTensorField;
    location    "0.284";
    object      UPrime2Mean;
}
// * * * * * * * * * * * * * * * * * * * * * * * * * * * * * * * * * * * * * //

dimensions      [0 2 -2 0 0 0 0];

internalField   nonuniform List<symmTensor> 
17600
(
(0.0139287 -0.00151015 0 0.000227385 0 0)
(0.143372 -0.000574198 0 1.30834e-05 0 0)
(0.186363 -1.61731e-07 0 9.46792e-07 0 0)
(0.206888 -0.000147979 0 6.02794e-07 0 0)
(0.221353 -0.000114112 0 3.38413e-07 0 0)
(0.23215 -4.86875e-05 0 2.61108e-07 0 0)
(0.239671 -1.33542e-05 0 2.48748e-07 0 0)
(0.245937 6.28544e-07 0 2.58832e-07 0 0)
(0.249978 5.61889e-06 0 3.18125e-07 0 0)
(0.253917 8.01017e-07 0 3.91108e-07 0 0)
(0.256218 -1.34807e-06 0 4.64387e-07 0 0)
(0.25966 -1.89807e-05 0 6.5114e-07 0 0)
(0.261703 -1.77089e-05 0 7.74448e-07 0 0)
(0.265977 -5.2269e-05 0 1.16704e-06 0 0)
(0.268968 -5.63291e-05 0 1.32496e-06 0 0)
(0.277235 -0.000167086 0 2.61736e-06 0 0)
(0.285871 -0.000268702 0 3.04327e-06 0 0)
(0.320775 0.000127142 0 1.06842e-05 0 0)
(0.391417 -0.010713 0 0.000446024 0 0)
(0.73561 0.0540469 0 0.007328 0 0)
(0.00670252 0.00301117 0 0.00237523 0 0)
(0.0588552 -0.005632 0 0.000568935 0 0)
(0.119274 -0.003191 0 8.70055e-05 0 0)
(0.160291 -0.00226224 0 3.51868e-05 0 0)
(0.195516 -0.00186291 0 2.76609e-05 0 0)
(0.229858 -0.00156054 0 2.56102e-05 0 0)
(0.257902 -0.00124769 0 2.05437e-05 0 0)
(0.283679 -0.000973256 0 1.38498e-05 0 0)
(0.30134 -0.000753653 0 8.60181e-06 0 0)
(0.319524 -0.000627847 0 6.43649e-06 0 0)
(0.329875 -0.000563622 0 4.99263e-06 0 0)
(0.345808 -0.000569382 0 6.40419e-06 0 0)
(0.353285 -0.000622788 0 7.92606e-06 0 0)
(0.37162 -0.000623479 0 1.27052e-05 0 0)
(0.378353 -0.00102479 0 1.71587e-05 0 0)
(0.409536 -0.000892544 0 3.75749e-05 0 0)
(0.414556 -0.00309745 0 7.32323e-05 0 0)
(0.54298 -0.0044117 0 0.000236141 0 0)
(0.549933 -0.0141998 0 0.00102605 0 0)
(1.58003 -0.157607 0 0.0348745 0 0)
(0.0238839 0.00906746 0 0.00375283 0 0)
(0.00981855 -0.00360868 0 0.00163066 0 0)
(0.0420669 -0.004062 0 0.000427789 0 0)
(0.0728637 -0.00387726 0 0.000211437 0 0)
(0.106464 -0.00383021 0 0.000160978 0 0)
(0.146961 -0.00368249 0 0.000145463 0 0)
(0.184299 -0.00325183 0 0.000120767 0 0)
(0.222246 -0.00273441 0 8.38695e-05 0 0)
(0.249511 -0.00223371 0 5.24408e-05 0 0)
(0.279526 -0.00190791 0 3.40754e-05 0 0)
(0.296359 -0.00169718 0 2.15976e-05 0 0)
(0.324017 -0.00174747 0 2.57412e-05 0 0)
(0.335258 -0.00175611 0 2.73248e-05 0 0)
(0.366953 -0.00199199 0 4.95802e-05 0 0)
(0.375358 -0.0025574 0 6.05407e-05 0 0)
(0.422839 -0.00293839 0 0.000157357 0 0)
(0.432779 -0.0071863 0 0.000280302 0 0)
(0.565359 -0.00910551 0 0.00103235 0 0)
(0.655388 -0.0384478 0 0.00447118 0 0)
(1.36279 -0.212607 0 0.0723085 0 0)
(0.0317793 0.0100745 0 0.00339234 0 0)
(0.00100101 0.000681371 0 0.00255349 0 0)
(0.0059843 -0.00153271 0 0.000943388 0 0)
(0.0138891 -0.0024643 0 0.000562939 0 0)
(0.0267572 -0.0033545 0 0.000455474 0 0)
(0.0505904 -0.00409696 0 0.00041498 0 0)
(0.0779173 -0.00419307 0 0.00035913 0 0)
(0.111423 -0.00392956 0 0.000259146 0 0)
(0.137135 -0.00340679 0 0.000171055 0 0)
(0.168726 -0.00303169 0 0.000106791 0 0)
(0.186088 -0.00284842 0 7.06069e-05 0 0)
(0.217837 -0.00269605 0 6.5377e-05 0 0)
(0.229243 -0.00317623 0 8.01437e-05 0 0)
(0.265992 -0.00259361 0 0.000118989 0 0)
(0.274785 -0.00498023 0 0.000188709 0 0)
(0.321212 -0.00254564 0 0.000401965 0 0)
(0.347022 -0.0132998 0 0.000916435 0 0)
(0.410601 -0.00786014 0 0.00216129 0 0)
(0.620966 -0.069567 0 0.0130974 0 0)
(0.811076 -0.114802 0 0.056742 0 0)
(0.0297824 0.0081219 0 0.00237237 0 0)
(0.003495 0.00262692 0 0.00266911 0 0)
(0.00492065 0.0014115 0 0.00117913 0 0)
(0.00531676 0.0008665 0 0.000868488 0 0)
(0.00418006 1.44018e-06 0 0.000819553 0 0)
(0.00648176 -0.00142728 0 0.000792829 0 0)
(0.0138724 -0.00235117 0 0.000720066 0 0)
(0.0289255 -0.00300744 0 0.000552913 0 0)
(0.0426548 -0.00292831 0 0.000379719 0 0)
(0.0633721 -0.00300191 0 0.000251884 0 0)
(0.0748863 -0.00279877 0 0.000158072 0 0)
(0.098693 -0.00321977 0 0.00017026 0 0)
(0.10863 -0.00307103 0 0.000149541 0 0)
(0.134387 -0.00416427 0 0.000283845 0 0)
(0.149033 -0.00366896 0 0.000292085 0 0)
(0.173151 -0.00754174 0 0.000850164 0 0)
(0.208266 -0.00629268 0 0.00110907 0 0)
(0.245218 -0.0253108 0 0.00553092 0 0)
(0.373695 -0.0380404 0 0.0106096 0 0)
(0.569428 -0.163636 0 0.131312 0 0)
(0.0283282 0.00662347 0 0.00169555 0 0)
(0.0042138 0.00234257 0 0.00238149 0 0)
(0.00821095 0.00207539 0 0.00101797 0 0)
(0.0131634 0.00255468 0 0.000839642 0 0)
(0.0161917 0.00306 0 0.000970863 0 0)
(0.0133236 0.0023642 0 0.00107194 0 0)
(0.0115215 0.00152324 0 0.00106306 0 0)
(0.0099899 0.000119568 0 0.00086867 0 0)
(0.0113528 -0.000438512 0 0.000672005 0 0)
(0.0161348 -0.00114971 0 0.000446576 0 0)
(0.0187418 -0.00137767 0 0.000332157 0 0)
(0.0285726 -0.00186823 0 0.000299884 0 0)
(0.0312442 -0.0024477 0 0.000359744 0 0)
(0.044898 -0.00273699 0 0.000459238 0 0)
(0.0499082 -0.00434992 0 0.000743756 0 0)
(0.0663224 -0.00464243 0 0.00125391 0 0)
(0.0787315 -0.0105642 0 0.00274392 0 0)
(0.1137 -0.0138473 0 0.00541838 0 0)
(0.176767 -0.0484255 0 0.0238187 0 0)
(0.340554 -0.109446 0 0.0920247 0 0)
(0.0296878 0.00574842 0 0.00126808 0 0)
(0.00587827 0.00183159 0 0.00213456 0 0)
(0.00982427 0.00175422 0 0.000835072 0 0)
(0.0159983 0.0023382 0 0.000636974 0 0)
(0.0239889 0.00359569 0 0.000841095 0 0)
(0.0257418 0.00397598 0 0.00106714 0 0)
(0.0292193 0.00415461 0 0.00117707 0 0)
(0.0258374 0.00307331 0 0.00107221 0 0)
(0.0266278 0.00249044 0 0.000846091 0 0)
(0.0227939 0.00144558 0 0.000675432 0 0)
(0.0231357 0.00115424 0 0.000475409 0 0)
(0.0202185 0.000231882 0 0.000556237 0 0)
(0.0200731 -8.81068e-06 0 0.000467627 0 0)
(0.0192178 -0.00126029 0 0.000831806 0 0)
(0.0192283 -0.00143559 0 0.000858095 0 0)
(0.0225101 -0.00409444 0 0.00207694 0 0)
(0.0233943 -0.00479785 0 0.00259256 0 0)
(0.0438905 -0.0141403 0 0.00996129 0 0)
(0.07292 -0.027124 0 0.0186966 0 0)
(0.194752 -0.0835466 0 0.118162 0 0)
(0.0333319 0.00510161 0 0.000957733 0 0)
(0.00913044 0.00153067 0 0.00191625 0 0)
(0.0109891 0.00151066 0 0.000784123 0 0)
(0.0171228 0.00191759 0 0.000513005 0 0)
(0.0241044 0.00309001 0 0.000687896 0 0)
(0.0266557 0.00370049 0 0.000937521 0 0)
(0.0335945 0.00446559 0 0.00110692 0 0)
(0.032862 0.00386735 0 0.00102343 0 0)
(0.0389932 0.00367468 0 0.000963159 0 0)
(0.0374744 0.00277984 0 0.000757664 0 0)
(0.0420487 0.00291927 0 0.000666621 0 0)
(0.0395768 0.00190815 0 0.000677625 0 0)
(0.041425 0.00227872 0 0.000807758 0 0)
(0.0380445 0.000638391 0 0.00102558 0 0)
(0.0375024 0.0013426 0 0.00145013 0 0)
(0.0350703 -0.00197056 0 0.00237449 0 0)
(0.0326397 -0.000890473 0 0.00399015 0 0)
(0.0401412 -0.00801741 0 0.00930059 0 0)
(0.0516864 -0.0159125 0 0.0272018 0 0)
(0.126659 -0.0421213 0 0.131736 0 0)
(0.0364407 0.00451504 0 0.000734937 0 0)
(0.00995916 0.00135743 0 0.00168605 0 0)
(0.0096698 0.00138725 0 0.000796305 0 0)
(0.015802 0.00167028 0 0.000459451 0 0)
(0.0205126 0.00255903 0 0.000582364 0 0)
(0.0226375 0.00309667 0 0.000821483 0 0)
(0.0286982 0.00396379 0 0.00102138 0 0)
(0.0286278 0.00352252 0 0.00104257 0 0)
(0.0360836 0.00342561 0 0.000859525 0 0)
(0.0361239 0.00290419 0 0.000827007 0 0)
(0.0445835 0.00285997 0 0.000698942 0 0)
(0.0445059 0.00280135 0 0.000892512 0 0)
(0.0525339 0.00248529 0 0.000861994 0 0)
(0.0517479 0.00262473 0 0.00137267 0 0)
(0.0575274 0.00198289 0 0.00155851 0 0)
(0.0557002 0.00154834 0 0.00303403 0 0)
(0.0586068 0.00105991 0 0.00420565 0 0)
(0.0600211 -0.00154374 0 0.0117743 0 0)
(0.0669182 -0.00291285 0 0.030001 0 0)
(0.110951 -0.0117627 0 0.115299 0 0)
(0.034639 0.00386809 0 0.00059388 0 0)
(0.00653496 0.00124287 0 0.00148939 0 0)
(0.00634778 0.00125072 0 0.000838374 0 0)
(0.0115447 0.00139805 0 0.000438439 0 0)
(0.0159482 0.00202899 0 0.000530073 0 0)
(0.0185316 0.0026152 0 0.000760633 0 0)
(0.0225206 0.00339779 0 0.000968364 0 0)
(0.0242387 0.0030097 0 0.000909925 0 0)
(0.0293411 0.00281686 0 0.000905668 0 0)
(0.0320049 0.00233572 0 0.000841862 0 0)
(0.0377415 0.00251383 0 0.000805804 0 0)
(0.0419726 0.00234163 0 0.000922974 0 0)
(0.048093 0.0023629 0 0.00103046 0 0)
(0.0528596 0.00235499 0 0.00147088 0 0)
(0.0567749 0.00238204 0 0.00177378 0 0)
(0.0627203 0.00194731 0 0.00316614 0 0)
(0.0642127 0.00196292 0 0.00470487 0 0)
(0.0708457 0.00358582 0 0.0127714 0 0)
(0.0731777 0.00226107 0 0.0314331 0 0)
(0.108635 0.0133997 0 0.118286 0 0)
(0.0304713 0.00313213 0 0.000487873 0 0)
(0.00321494 0.000937983 0 0.00131404 0 0)
(0.00429125 0.000935386 0 0.000839025 0 0)
(0.00859103 0.000996703 0 0.00043171 0 0)
(0.0132614 0.00139437 0 0.000514011 0 0)
(0.0165125 0.00216229 0 0.000755688 0 0)
(0.0198263 0.00269489 0 0.000928869 0 0)
(0.0226198 0.00241239 0 0.000958141 0 0)
(0.0260273 0.00196299 0 0.00084036 0 0)
(0.0298586 0.00197713 0 0.000866434 0 0)
(0.034017 0.00163784 0 0.000806888 0 0)
(0.0400162 0.00209266 0 0.00100624 0 0)
(0.0443831 0.0014067 0 0.00103713 0 0)
(0.0493806 0.00232526 0 0.00154487 0 0)
(0.0538678 0.00163276 0 0.0017207 0 0)
(0.0603825 0.00200295 0 0.00318633 0 0)
(0.0620682 0.00222198 0 0.00479385 0 0)
(0.0674902 0.00411308 0 0.0127123 0 0)
(0.0727232 0.00609815 0 0.0328871 0 0)
(0.101279 0.0213933 0 0.108935 0 0)
(0.0292132 0.00253207 0 0.000413603 0 0)
(0.00290087 0.000453067 0 0.00113932 0 0)
(0.00434719 0.000483575 0 0.000833432 0 0)
(0.00831014 0.000659574 0 0.000411015 0 0)
(0.0127693 0.000920458 0 0.000519578 0 0)
(0.0158148 0.00163825 0 0.000751262 0 0)
(0.018752 0.00212325 0 0.000885239 0 0)
(0.0212039 0.00190749 0 0.000845597 0 0)
(0.0240303 0.00157818 0 0.000865657 0 0)
(0.0277526 0.00140434 0 0.000881513 0 0)
(0.0319297 0.00135438 0 0.000804958 0 0)
(0.0369732 0.00154648 0 0.000942156 0 0)
(0.0407993 0.00117348 0 0.00100446 0 0)
(0.0457423 0.00192924 0 0.00148335 0 0)
(0.0510357 0.00129653 0 0.001528 0 0)
(0.0553438 0.00247291 0 0.00318835 0 0)
(0.0577989 0.00218218 0 0.00451624 0 0)
(0.0629924 0.00619012 0 0.0132735 0 0)
(0.069537 0.00801973 0 0.0319296 0 0)
(0.09615 0.025165 0 0.107278 0 0)
(0.0294498 0.00206596 0 0.000339667 0 0)
(0.00305889 0.000127073 0 0.000974187 0 0)
(0.00373522 0.000135291 0 0.000821754 0 0)
(0.00679055 0.000507245 0 0.000422849 0 0)
(0.011391 0.000756519 0 0.000496521 0 0)
(0.0143995 0.00135291 0 0.00070221 0 0)
(0.016727 0.00175886 0 0.00081208 0 0)
(0.0187418 0.00175534 0 0.000810786 0 0)
(0.0216268 0.00140381 0 0.000777357 0 0)
(0.025144 0.00129162 0 0.000786249 0 0)
(0.0287452 0.0011343 0 0.000718441 0 0)
(0.0330962 0.00146337 0 0.000875961 0 0)
(0.0371341 0.00122696 0 0.000863815 0 0)
(0.0423242 0.00179567 0 0.00130246 0 0)
(0.0459335 0.00147437 0 0.00133717 0 0)
(0.049893 0.00221412 0 0.00290746 0 0)
(0.0526192 0.00307886 0 0.00446259 0 0)
(0.0578365 0.00644288 0 0.0128877 0 0)
(0.0641263 0.0097188 0 0.0317612 0 0)
(0.091756 0.0294425 0 0.103852 0 0)
(0.0291422 0.00172732 0 0.000277314 0 0)
(0.00220587 0.000124297 0 0.000800761 0 0)
(0.00272028 7.88668e-05 0 0.000750361 0 0)
(0.00554631 0.000462197 0 0.000412023 0 0)
(0.00999631 0.000758988 0 0.00046348 0 0)
(0.0130499 0.00124599 0 0.000630882 0 0)
(0.0149736 0.00159888 0 0.000734897 0 0)
(0.0169531 0.0015885 0 0.00070355 0 0)
(0.0193846 0.00144923 0 0.000702058 0 0)
(0.0228819 0.00122138 0 0.000709342 0 0)
(0.0260664 0.00113494 0 0.000644358 0 0)
(0.0304693 0.00130654 0 0.000768781 0 0)
(0.0339257 0.00122873 0 0.000733668 0 0)
(0.038626 0.00170629 0 0.00118197 0 0)
(0.0413766 0.00139179 0 0.00118404 0 0)
(0.0461034 0.00238465 0 0.00279726 0 0)
(0.0485044 0.0030319 0 0.00448746 0 0)
(0.0542048 0.00630478 0 0.0128124 0 0)
(0.0614529 0.0110435 0 0.0313203 0 0)
(0.0904631 0.0308413 0 0.0995876 0 0)
(0.0287802 0.00142099 0 0.0002138 0 0)
(0.00148947 0.00024389 0 0.000626389 0 0)
(0.00230367 0.000220041 0 0.00059152 0 0)
(0.00496215 0.000511106 0 0.000374091 0 0)
(0.00876018 0.000694627 0 0.000428453 0 0)
(0.0115927 0.00116425 0 0.00056948 0 0)
(0.0133186 0.00138553 0 0.000653264 0 0)
(0.0151966 0.00138664 0 0.000658781 0 0)
(0.0173127 0.00118416 0 0.000640073 0 0)
(0.0206387 0.00107119 0 0.000633198 0 0)
(0.0239307 0.000850459 0 0.000553148 0 0)
(0.0282747 0.00109968 0 0.000694514 0 0)
(0.0313621 0.000785008 0 0.000637915 0 0)
(0.0356834 0.00131185 0 0.00111021 0 0)
(0.0386557 0.000908917 0 0.00107539 0 0)
(0.0435335 0.00217464 0 0.00277563 0 0)
(0.0461497 0.00237199 0 0.00447634 0 0)
(0.0524236 0.00642463 0 0.0131323 0 0)
(0.0604032 0.0116376 0 0.0304398 0 0)
(0.0898878 0.0313271 0 0.092905 0 0)
(0.0287886 0.00110949 0 0.000176231 0 0)
(0.00116207 0.000149668 0 0.000498163 0 0)
(0.00198856 0.000147256 0 0.000480116 0 0)
(0.0044667 0.00037801 0 0.000351359 0 0)
(0.00820785 0.000443722 0 0.000425873 0 0)
(0.0107247 0.000788142 0 0.000542398 0 0)
(0.0124722 0.00103889 0 0.000619512 0 0)
(0.0141129 0.000970471 0 0.000603501 0 0)
(0.0163943 0.000793309 0 0.000632168 0 0)
(0.0192402 0.000546656 0 0.000630527 0 0)
(0.0226248 0.000495115 0 0.000546501 0 0)
(0.0265252 0.000620403 0 0.000665147 0 0)
(0.0300513 0.000439835 0 0.000603798 0 0)
(0.0339324 0.000718782 0 0.00108537 0 0)
(0.0373436 0.000685755 0 0.00103401 0 0)
(0.0414906 0.00154014 0 0.00277842 0 0)
(0.0451825 0.00238119 0 0.00458982 0 0)
(0.0511553 0.00616624 0 0.0129649 0 0)
(0.0602627 0.0127601 0 0.030451 0 0)
(0.0906567 0.0315179 0 0.0814156 0 0)
(0.0288324 0.000788394 0 0.000152044 0 0)
(0.00103198 -4.48062e-05 0 0.000417713 0 0)
(0.00190844 -9.64789e-05 0 0.000423354 0 0)
(0.00415737 9.30405e-05 0 0.00036232 0 0)
(0.00784139 0.00010334 0 0.000439874 0 0)
(0.010217 0.000325693 0 0.000540507 0 0)
(0.0119559 0.000536335 0 0.000599108 0 0)
(0.0132949 0.0005123 0 0.000589879 0 0)
(0.015624 0.000364428 0 0.000604656 0 0)
(0.0182868 0.000188935 0 0.000594249 0 0)
(0.0216874 0.000201093 0 0.000488744 0 0)
(0.0252822 0.000365193 0 0.000591567 0 0)
(0.0290037 0.000155002 0 0.000518558 0 0)
(0.0325568 0.000486959 0 0.000973744 0 0)
(0.0360727 0.000378507 0 0.000981963 0 0)
(0.0399279 0.00141563 0 0.00260886 0 0)
(0.0442493 0.00221705 0 0.00456313 0 0)
(0.0502594 0.00652966 0 0.012817 0 0)
(0.0604432 0.0129701 0 0.0290329 0 0)
(0.0902104 0.0353586 0 0.0792939 0 0)
(0.0288003 0.000530387 0 0.000127916 0 0)
(0.00114725 -7.78913e-05 0 0.00033608 0 0)
(0.00218863 -0.000172043 0 0.0003433 0 0)
(0.00427628 -4.12509e-05 0 0.000333291 0 0)
(0.00768252 -2.28014e-05 0 0.000405306 0 0)
(0.0100478 0.000127871 0 0.000488561 0 0)
(0.0116476 0.000237747 0 0.000537339 0 0)
(0.0130618 0.000228188 0 0.000534574 0 0)
(0.0151114 0.000170318 0 0.000535147 0 0)
(0.017886 0.000133703 0 0.000523167 0 0)
(0.0210186 0.000111578 0 0.000408924 0 0)
(0.0246048 0.000256496 0 0.000534175 0 0)
(0.0280128 3.40515e-05 0 0.000440936 0 0)
(0.0316877 0.000326363 0 0.000897068 0 0)
(0.0348446 0.000192027 0 0.000988191 0 0)
(0.0391158 0.00131528 0 0.00239557 0 0)
(0.0433421 0.00216036 0 0.00482783 0 0)
(0.0501318 0.00667429 0 0.0120244 0 0)
(0.0613384 0.0133932 0 0.0295666 0 0)
(0.0923135 0.0369425 0 0.0748903 0 0)
(0.0287337 0.000332089 0 0.000103499 0 0)
(0.00108564 -3.99082e-05 0 0.000247817 0 0)
(0.00217877 -8.07211e-05 0 0.000243253 0 0)
(0.00429226 6.96296e-06 0 0.000251654 0 0)
(0.00751889 2.48824e-05 0 0.000324115 0 0)
(0.00986153 9.15592e-05 0 0.000378539 0 0)
(0.0114068 0.000220931 0 0.00041136 0 0)
(0.0129992 0.000137047 0 0.00040534 0 0)
(0.0149164 0.000188484 0 0.000418734 0 0)
(0.0175946 5.50435e-05 0 0.000417587 0 0)
(0.0204096 8.57984e-05 0 0.000338857 0 0)
(0.0239489 4.25483e-05 0 0.000457061 0 0)
(0.0272044 -4.33063e-05 0 0.000387525 0 0)
(0.0311387 1.74555e-05 0 0.000793545 0 0)
(0.034143 0.000142447 0 0.000969207 0 0)
(0.038712 0.00102032 0 0.00223214 0 0)
(0.0428502 0.0022692 0 0.0049187 0 0)
(0.0506016 0.00644176 0 0.0114284 0 0)
(0.0623391 0.0140368 0 0.0294289 0 0)
(0.0934565 0.0340566 0 0.0628321 0 0)
(0.0287282 9.18714e-05 0 9.16621e-05 0 0)
(0.000907612 -4.76626e-05 0 0.000211192 0 0)
(0.00191901 -3.58952e-05 0 0.000188395 0 0)
(0.00401261 1.84877e-05 0 0.000203835 0 0)
(0.00727355 -1.87181e-05 0 0.000273802 0 0)
(0.00957508 2.08538e-05 0 0.000318346 0 0)
(0.0111006 7.49633e-05 0 0.000330491 0 0)
(0.012518 9.96103e-05 0 0.000330066 0 0)
(0.0145605 5.74948e-05 0 0.00034465 0 0)
(0.0171421 -2.41485e-05 0 0.000374703 0 0)
(0.0200876 -0.000172197 0 0.000304572 0 0)
(0.0234482 -3.59691e-05 0 0.000433473 0 0)
(0.0269064 -0.000341963 0 0.000330234 0 0)
(0.0306327 1.53421e-05 0 0.00079889 0 0)
(0.0339331 -0.000187256 0 0.000793474 0 0)
(0.0382655 0.00110334 0 0.00250446 0 0)
(0.0429065 0.00191862 0 0.00404289 0 0)
(0.0508657 0.0067469 0 0.0128866 0 0)
(0.0637764 0.0137413 0 0.0245051 0 0)
(0.0954577 0.0325501 0 0.0649984 0 0)
(0.0287033 -0.000110504 0 8.28366e-05 0 0)
(0.000711882 -8.47548e-05 0 0.000195651 0 0)
(0.00168647 -7.18156e-05 0 0.000168571 0 0)
(0.00378162 -6.77708e-05 0 0.000184386 0 0)
(0.00712413 -7.49944e-05 0 0.000241809 0 0)
(0.00935934 -0.00017883 0 0.000275906 0 0)
(0.0108503 -0.000114757 0 0.000282738 0 0)
(0.0120419 -0.000189658 0 0.000298107 0 0)
(0.0141764 -9.63276e-05 0 0.000304421 0 0)
(0.0167422 -0.0002914 0 0.000348481 0 0)
(0.0199889 -0.000256748 0 0.00027394 0 0)
(0.0232275 -0.000326291 0 0.000396902 0 0)
(0.0268857 -0.000332175 0 0.000310893 0 0)
(0.0302675 -0.00035804 0 0.000693182 0 0)
(0.0339195 -8.13477e-05 0 0.000929272 0 0)
(0.038068 0.000519967 0 0.00214346 0 0)
(0.0434499 0.00227422 0 0.00462348 0 0)
(0.0515038 0.00586834 0 0.0113952 0 0)
(0.0657712 0.0147967 0 0.0251236 0 0)
(0.0981195 0.0291965 0 0.0575199 0 0)
(0.0286655 -0.000348613 0 8.12165e-05 0 0)
(0.00063822 -0.00012305 0 0.000206892 0 0)
(0.00159511 -0.000112167 0 0.000174976 0 0)
(0.00371415 -0.000157278 0 0.000177898 0 0)
(0.00708109 -0.000177622 0 0.000233134 0 0)
(0.00932109 -0.000342103 0 0.000258238 0 0)
(0.0108017 -0.000387156 0 0.00028156 0 0)
(0.0119983 -0.000441415 0 0.00030504 0 0)
(0.0141662 -0.000383677 0 0.000314726 0 0)
(0.0167412 -0.000440044 0 0.000335175 0 0)
(0.0201147 -0.000486792 0 0.000272347 0 0)
(0.0233425 -0.000420648 0 0.000360899 0 0)
(0.0270426 -0.000623666 0 0.000306912 0 0)
(0.0304192 -0.00044518 0 0.000648092 0 0)
(0.0342868 -0.000552899 0 0.000926835 0 0)
(0.038651 0.000532906 0 0.00210042 0 0)
(0.0445241 0.00160256 0 0.00446402 0 0)
(0.0532089 0.00624474 0 0.0111101 0 0)
(0.0681776 0.013499 0 0.0239019 0 0)
(0.10106 0.0319738 0 0.0563915 0 0)
(0.0286026 -0.000578625 0 8.39048e-05 0 0)
(0.000662268 -0.000158781 0 0.000238436 0 0)
(0.00162639 -0.000138305 0 0.000194805 0 0)
(0.00379648 -0.000240741 0 0.00017513 0 0)
(0.00716132 -0.000285939 0 0.000226119 0 0)
(0.009498 -0.000555938 0 0.000257066 0 0)
(0.0109954 -0.000628958 0 0.000286015 0 0)
(0.0123782 -0.000709363 0 0.000320544 0 0)
(0.0144711 -0.000591814 0 0.000315037 0 0)
(0.0171727 -0.000643179 0 0.000338019 0 0)
(0.0204321 -0.000663209 0 0.000278438 0 0)
(0.0237802 -0.000646418 0 0.00035353 0 0)
(0.0273653 -0.000840287 0 0.0003213 0 0)
(0.0310389 -0.00071782 0 0.000616779 0 0)
(0.0349381 -0.000836378 0 0.00095593 0 0)
(0.0397355 0.000316431 0 0.00207428 0 0)
(0.0458586 0.00122495 0 0.00436446 0 0)
(0.0552863 0.00628159 0 0.0108839 0 0)
(0.0714315 0.012545 0 0.0231851 0 0)
(0.105416 0.0339445 0 0.0549117 0 0)
(0.0285526 -0.000822085 0 9.12898e-05 0 0)
(0.000674193 -0.000185495 0 0.000290493 0 0)
(0.00166594 -0.000147301 0 0.00022699 0 0)
(0.00399335 -0.000306981 0 0.000172605 0 0)
(0.00741797 -0.000379996 0 0.00021997 0 0)
(0.00982574 -0.000763119 0 0.000264938 0 0)
(0.0113642 -0.000828378 0 0.000289917 0 0)
(0.0128881 -0.000971532 0 0.000346514 0 0)
(0.0149924 -0.000732641 0 0.000308001 0 0)
(0.0177897 -0.000857105 0 0.000345565 0 0)
(0.0210262 -0.000750876 0 0.000272777 0 0)
(0.0245247 -0.000958431 0 0.000371052 0 0)
(0.0281521 -0.000911009 0 0.000333955 0 0)
(0.0320092 -0.00116061 0 0.000629241 0 0)
(0.0360281 -0.00078577 0 0.000999811 0 0)
(0.0411292 -0.000319591 0 0.00200865 0 0)
(0.0476106 0.00148973 0 0.00447913 0 0)
(0.0576917 0.00517595 0 0.00998252 0 0)
(0.0751084 0.0130403 0 0.0235625 0 0)
(0.108376 0.0287351 0 0.0440917 0 0)
(0.028481 -0.00110542 0 0.000108222 0 0)
(0.000601129 -0.00020966 0 0.000362587 0 0)
(0.00157078 -0.000154747 0 0.00028779 0 0)
(0.00413504 -0.000345781 0 0.00016551 0 0)
(0.00773442 -0.000491792 0 0.000219568 0 0)
(0.0102453 -0.000919709 0 0.000281238 0 0)
(0.011819 -0.00107584 0 0.000329039 0 0)
(0.0134512 -0.00115655 0 0.000379934 0 0)
(0.0156387 -0.000978753 0 0.00034197 0 0)
(0.0185444 -0.00097699 0 0.000354834 0 0)
(0.0218773 -0.000997394 0 0.000303146 0 0)
(0.0255538 -0.00108168 0 0.000385155 0 0)
(0.0292961 -0.00122992 0 0.000348817 0 0)
(0.0333039 -0.00128286 0 0.000696679 0 0)
(0.0374889 -0.00118216 0 0.000879562 0 0)
(0.042883 -0.000427721 0 0.0023471 0 0)
(0.0497672 0.000925394 0 0.00366415 0 0)
(0.0606757 0.00493665 0 0.0111273 0 0)
(0.0791131 0.0117418 0 0.0195454 0 0)
(0.112997 0.0254964 0 0.0464949 0 0)
(0.0284074 -0.00138726 0 0.000133438 0 0)
(0.000547434 -0.000257041 0 0.000470423 0 0)
(0.00149697 -0.000199775 0 0.000361943 0 0)
(0.00429198 -0.000418741 0 0.000177713 0 0)
(0.00806393 -0.000583511 0 0.000223891 0 0)
(0.010762 -0.00116676 0 0.000319683 0 0)
(0.012443 -0.00126575 0 0.000361911 0 0)
(0.0142438 -0.0014694 0 0.000448386 0 0)
(0.0165165 -0.00111736 0 0.000357823 0 0)
(0.0196117 -0.0012815 0 0.000399636 0 0)
(0.0230502 -0.00108814 0 0.000310919 0 0)
(0.0269363 -0.00145379 0 0.000402213 0 0)
(0.0307575 -0.00127453 0 0.000377408 0 0)
(0.0349957 -0.00178624 0 0.000658063 0 0)
(0.0393574 -0.00119726 0 0.000996911 0 0)
(0.0451723 -0.00114665 0 0.00212491 0 0)
(0.0525735 0.000901461 0 0.0039853 0 0)
(0.0644134 0.00368832 0 0.0101825 0 0)
(0.0837325 0.0113109 0 0.0193649 0 0)
(0.119032 0.0213397 0 0.0445178 0 0)
(0.0283951 -0.00175361 0 0.000173468 0 0)
(0.000579849 -0.000325027 0 0.00058865 0 0)
(0.00158509 -0.000286415 0 0.000469725 0 0)
(0.00463592 -0.000503484 0 0.000182723 0 0)
(0.0085575 -0.000754002 0 0.00023955 0 0)
(0.0114304 -0.00138721 0 0.000363185 0 0)
(0.0133465 -0.00158445 0 0.000436267 0 0)
(0.0153194 -0.00170189 0 0.000509641 0 0)
(0.017747 -0.00139691 0 0.000416026 0 0)
(0.0210054 -0.00146324 0 0.000428338 0 0)
(0.0246274 -0.00139151 0 0.000356679 0 0)
(0.0286841 -0.00164054 0 0.000425071 0 0)
(0.0327502 -0.00162804 0 0.000414252 0 0)
(0.0372119 -0.00201593 0 0.000680681 0 0)
(0.0418942 -0.00169095 0 0.00101453 0 0)
(0.0480279 -0.00140028 0 0.00210179 0 0)
(0.0561398 0.000100152 0 0.00392251 0 0)
(0.0687185 0.00321979 0 0.00960494 0 0)
(0.0891745 0.00927862 0 0.018883 0 0)
(0.125266 0.0215293 0 0.0425133 0 0)
(0.028568 -0.00213972 0 0.000228757 0 0)
(0.000682141 -0.000423295 0 0.000753957 0 0)
(0.00181618 -0.000416858 0 0.000561495 0 0)
(0.00518302 -0.000622682 0 0.000209439 0 0)
(0.00930811 -0.000938382 0 0.000266205 0 0)
(0.0123155 -0.00169071 0 0.000434537 0 0)
(0.0145714 -0.00189802 0 0.000516537 0 0)
(0.0167259 -0.00204048 0 0.00060212 0 0)
(0.0193909 -0.00165555 0 0.000473357 0 0)
(0.0227962 -0.00176132 0 0.000483507 0 0)
(0.0266341 -0.00165244 0 0.000390754 0 0)
(0.0309463 -0.00201655 0 0.000472927 0 0)
(0.035273 -0.00191327 0 0.00045011 0 0)
(0.0400983 -0.00247759 0 0.000740889 0 0)
(0.0450576 -0.00207573 0 0.00103178 0 0)
(0.0516248 -0.00194596 0 0.00216439 0 0)
(0.0602195 -0.000544058 0 0.00385678 0 0)
(0.0737373 0.00233906 0 0.00927918 0 0)
(0.0955623 0.00747724 0 0.0187455 0 0)
(0.13271 0.0208041 0 0.0414858 0 0)
(0.0291925 -0.00262015 0 0.000308124 0 0)
(0.000901372 -0.000545667 0 0.00095401 0 0)
(0.00226903 -0.000624064 0 0.000633481 0 0)
(0.00588308 -0.00077788 0 0.000251845 0 0)
(0.0105086 -0.0012067 0 0.000316294 0 0)
(0.0132579 -0.00201681 0 0.000529925 0 0)
(0.0163495 -0.0023041 0 0.00062895 0 0)
(0.0182158 -0.00241423 0 0.000727962 0 0)
(0.0217212 -0.00199931 0 0.000555024 0 0)
(0.0247372 -0.00208112 0 0.000567282 0 0)
(0.0293456 -0.00194349 0 0.000431569 0 0)
(0.0333524 -0.00244473 0 0.000555557 0 0)
(0.0385293 -0.00218434 0 0.000479472 0 0)
(0.0432083 -0.00302504 0 0.00083665 0 0)
(0.0490602 -0.00235668 0 0.00102103 0 0)
(0.0556784 -0.00275335 0 0.00222423 0 0)
(0.0650765 -0.000856532 0 0.00375771 0 0)
(0.0794153 0.000777185 0 0.0087876 0 0)
(0.10249 0.00672091 0 0.0184443 0 0)
(0.140616 0.0150971 0 0.0360111 0 0)
(0.0300322 -0.00320564 0 0.000418054 0 0)
(0.00127802 -0.000696716 0 0.00118035 0 0)
(0.00310204 -0.000925133 0 0.000693566 0 0)
(0.00671693 -0.000965366 0 0.000303532 0 0)
(0.0123972 -0.00159962 0 0.000385815 0 0)
(0.0141538 -0.00230687 0 0.000620592 0 0)
(0.0190295 -0.00284855 0 0.000763462 0 0)
(0.0195795 -0.00270808 0 0.000826332 0 0)
(0.0252151 -0.00255057 0 0.000676309 0 0)
(0.0265734 -0.00227655 0 0.000620975 0 0)
(0.0334557 -0.00243618 0 0.000502823 0 0)
(0.0356158 -0.00266081 0 0.000603108 0 0)
(0.0433408 -0.00275562 0 0.000549896 0 0)
(0.046098 -0.00322174 0 0.000910522 0 0)
(0.0548076 -0.00310653 0 0.00103954 0 0)
(0.0596247 -0.00301058 0 0.00235579 0 0)
(0.0716077 -0.00188337 0 0.00344073 0 0)
(0.0847331 0.000504036 0 0.00900914 0 0)
(0.10967 0.00524285 0 0.0159598 0 0)
(0.147538 0.0149743 0 0.0375224 0 0)
(0.0303447 -0.00384232 0 0.000562983 0 0)
(0.00170141 -0.000915906 0 0.00144747 0 0)
(0.00412284 -0.00130055 0 0.000752722 0 0)
(0.00759591 -0.00124844 0 0.000387629 0 0)
(0.0146662 -0.00211375 0 0.000481427 0 0)
(0.0151633 -0.00267892 0 0.000738016 0 0)
(0.0222963 -0.0034573 0 0.00089814 0 0)
(0.0209605 -0.00307011 0 0.000948975 0 0)
(0.0296164 -0.00320605 0 0.000796729 0 0)
(0.0283881 -0.00259335 0 0.000700186 0 0)
(0.0388561 -0.00299395 0 0.000559919 0 0)
(0.0377467 -0.00298838 0 0.000656271 0 0)
(0.049579 -0.00336235 0 0.000602708 0 0)
(0.0482068 -0.00353092 0 0.000960491 0 0)
(0.0613322 -0.00370832 0 0.00107574 0 0)
(0.0611876 -0.00327528 0 0.00231132 0 0)
(0.0767562 -0.00232206 0 0.00337713 0 0)
(0.0844275 0.00128882 0 0.00830225 0 0)
(0.110269 0.00689065 0 0.0144447 0 0)
(0.146795 0.0233766 0 0.0358309 0 0)
(0.0298986 -0.00447161 0 0.000741606 0 0)
(0.0021716 -0.00117011 0 0.00171293 0 0)
(0.00497274 -0.00160409 0 0.000803468 0 0)
(0.00853102 -0.0015873 0 0.000475736 0 0)
(0.016737 -0.00270352 0 0.000604959 0 0)
(0.0167873 -0.00313096 0 0.000868841 0 0)
(0.0254727 -0.00408043 0 0.00104548 0 0)
(0.0230062 -0.00345159 0 0.00106276 0 0)
(0.0337001 -0.00384011 0 0.000927366 0 0)
(0.0303554 -0.00292599 0 0.000774599 0 0)
(0.0429991 -0.00350665 0 0.00062141 0 0)
(0.0384326 -0.00317818 0 0.000698685 0 0)
(0.0517896 -0.00373333 0 0.000640527 0 0)
(0.0452788 -0.00347265 0 0.000989623 0 0)
(0.0584241 -0.00355704 0 0.00105469 0 0)
(0.0518445 -0.0025666 0 0.00217157 0 0)
(0.0654022 -0.000750446 0 0.00320453 0 0)
(0.0677477 0.00425975 0 0.00701458 0 0)
(0.0922893 0.014276 0 0.0134107 0 0)
(0.140163 0.0366291 0 0.0284804 0 0)
(0.0290176 -0.00508682 0 0.00096943 0 0)
(0.00251287 -0.00142771 0 0.00197045 0 0)
(0.00550886 -0.00175027 0 0.000828362 0 0)
(0.00962604 -0.00192825 0 0.000570427 0 0)
(0.0186735 -0.00325784 0 0.000744065 0 0)
(0.0191469 -0.00363673 0 0.00100778 0 0)
(0.0280149 -0.00454967 0 0.00117379 0 0)
(0.0246554 -0.00368446 0 0.0011437 0 0)
(0.0338659 -0.00400785 0 0.000997622 0 0)
(0.0280844 -0.00280853 0 0.00078836 0 0)
(0.037008 -0.00330429 0 0.000630929 0 0)
(0.0290986 -0.00249763 0 0.00066208 0 0)
(0.0363684 -0.00293912 0 0.00061641 0 0)
(0.0272029 -0.00190573 0 0.00090592 0 0)
(0.0329315 -0.00185284 0 0.000938562 0 0)
(0.0267815 0.000369686 0 0.00190127 0 0)
(0.0343032 0.00255388 0 0.00266133 0 0)
(0.0443596 0.01006 0 0.00590833 0 0)
(0.0740468 0.0218132 0 0.0105477 0 0)
(0.152948 0.0507108 0 0.0223672 0 0)
(0.0280952 -0.0057704 0 0.00127835 0 0)
(0.00267938 -0.00175158 0 0.00217422 0 0)
(0.00602575 -0.00189204 0 0.00087907 0 0)
(0.0111243 -0.00232135 0 0.000689521 0 0)
(0.0198436 -0.00369805 0 0.00089398 0 0)
(0.0194551 -0.00381619 0 0.00112635 0 0)
(0.0240634 -0.0041726 0 0.00123428 0 0)
(0.0179089 -0.00281706 0 0.0011392 0 0)
(0.0200516 -0.00265927 0 0.000943179 0 0)
(0.0133954 -0.00123825 0 0.000698388 0 0)
(0.0144114 -0.00142165 0 0.000531868 0 0)
(0.0100329 -0.000302382 0 0.000534826 0 0)
(0.0100253 -0.000474555 0 0.000488023 0 0)
(0.0099055 0.00105267 0 0.000715457 0 0)
(0.01077 0.00107719 0 0.000723204 0 0)
(0.0188599 0.00409032 0 0.00147998 0 0)
(0.0269773 0.00601578 0 0.00204641 0 0)
(0.0579118 0.014776 0 0.00445855 0 0)
(0.103746 0.0265373 0 0.00795304 0 0)
(0.217795 0.0546769 0 0.0155811 0 0)
(0.0279272 -0.00665021 0 0.00169859 0 0)
(0.00307347 -0.00228391 0 0.00239959 0 0)
(0.00645105 -0.00213059 0 0.0010453 0 0)
(0.0106749 -0.00249856 0 0.000870441 0 0)
(0.0138669 -0.00310716 0 0.00100058 0 0)
(0.00947823 -0.0021898 0 0.00110606 0 0)
(0.00755473 -0.00149343 0 0.00110059 0 0)
(0.00464411 0.00014469 0 0.000934502 0 0)
(0.00496313 0.000438773 0 0.000714613 0 0)
(0.00937139 0.00147603 0 0.000492427 0 0)
(0.00984379 0.00130594 0 0.000357147 0 0)
(0.0215209 0.00225101 0 0.00034984 0 0)
(0.0211167 0.00211563 0 0.000322806 0 0)
(0.0408628 0.00360686 0 0.000479388 0 0)
(0.0424803 0.00338664 0 0.000488574 0 0)
(0.0720418 0.0065661 0 0.00102507 0 0)
(0.0859233 0.00753321 0 0.00140873 0 0)
(0.138933 0.0167551 0 0.00308302 0 0)
(0.203574 0.0253967 0 0.00535354 0 0)
(0.347056 0.0525429 0 0.0099718 0 0)
(0.0297595 -0.00814348 0 0.00237189 0 0)
(0.00315343 -0.0025893 0 0.00267778 0 0)
(0.00416857 -0.00143958 0 0.00119307 0 0)
(0.00423943 -0.00080626 0 0.00088551 0 0)
(0.00277046 -1.39529e-05 0 0.000834194 0 0)
(0.00480809 0.00156525 0 0.000809993 0 0)
(0.0108863 0.00239924 0 0.000740958 0 0)
(0.0266832 0.00324655 0 0.000584226 0 0)
(0.0375292 0.00301852 0 0.000417335 0 0)
(0.0608207 0.00329323 0 0.000275358 0 0)