/*--------------------------------*- C++ -*----------------------------------*\
| =========                 |                                                 |
| \\      /  F ield         | OpenFOAM: The Open Source CFD Toolbox           |
|  \\    /   O peration     | Version:  2.4.0                                 |
|   \\  /    A nd           | Web:      www.OpenFOAM.org                      |
|    \\/     M anipulation  |                                                 |
\*---------------------------------------------------------------------------*/
FoamFile
{
    version     2.0;
    format      ascii;
    class       volVectorField;
    location    "0.163";
    object      UMean;
}
// * * * * * * * * * * * * * * * * * * * * * * * * * * * * * * * * * * * * * //

dimensions      [0 1 -1 0 0 0 0];

internalField   nonuniform List<vector> 
17600
(
(5.3441 0.307644 0)
(3.03553 0.0607476 0)
(2.25877 -0.00143364 0)
(1.91562 -0.00352239 0)
(1.78 -0.00132957 0)
(1.68791 -0.000165394 0)
(1.6252 -2.84305e-05 0)
(1.56575 6.33333e-06 0)
(1.53386 -0.000182821 0)
(1.49601 7.73398e-06 0)
(1.48191 -0.000119829 0)
(1.45171 0.000145305 0)
(1.44538 -0.000144962 0)
(1.4188 0.000144888 0)
(1.41984 -0.000291202 0)
(1.4029 -0.000102438 0)
(1.41245 -0.00051959 0)
(1.4222 -0.000478426 0)
(1.45884 -0.00146757 0)
(1.44554 -0.0275128 0)
(8.59429 0.865275 0)
(6.98881 0.379408 0)
(5.8805 0.119706 0)
(5.13633 0.0496618 0)
(4.74879 0.02695 0)
(4.48054 0.0192326 0)
(4.30777 0.0147861 0)
(4.14293 0.0113603 0)
(4.05367 0.00819384 0)
(3.94304 0.00671005 0)
(3.90279 0.00509364 0)
(3.81513 0.00509036 0)
(3.79907 0.00353147 0)
(3.7215 0.00402322 0)
(3.72393 0.00132221 0)
(3.66766 0.00207947 0)
(3.68415 -0.00247631 0)
(3.68806 -0.00370748 0)
(3.71847 -0.00602502 0)
(3.87647 -0.0873362 0)
(9.83768 1.01292 0)
(9.3582 0.569532 0)
(8.52558 0.236453 0)
(7.70226 0.126751 0)
(7.17806 0.078424 0)
(6.78481 0.0543904 0)
(6.53402 0.0409923 0)
(6.28667 0.031384 0)
(6.15484 0.0236374 0)
(5.98154 0.0189257 0)
(5.92184 0.0149232 0)
(5.78288 0.0136422 0)
(5.76171 0.0105104 0)
(5.63787 0.0104493 0)
(5.64397 0.0052998 0)
(5.54756 0.00567487 0)
(5.57396 -0.00310574 0)
(5.54439 -0.00515464 0)
(5.60152 -0.0213353 0)
(5.73083 -0.111075 0)
(10.138 0.938759 0)
(10.5568 0.65806 0)
(10.2817 0.32277 0)
(9.66705 0.20438 0)
(9.17528 0.141804 0)
(8.73924 0.101414 0)
(8.45982 0.076737 0)
(8.15733 0.0587884 0)
(8.00403 0.0451884 0)
(7.78092 0.0360507 0)
(7.71138 0.0288137 0)
(7.52846 0.0258697 0)
(7.50728 0.0202684 0)
(7.3428 0.0201965 0)
(7.35498 0.010814 0)
(7.21995 0.0129787 0)
(7.26045 -0.00410291 0)
(7.18139 -0.00243009 0)
(7.28159 -0.0416006 0)
(7.30809 -0.113375 0)
(10.0586 0.798651 0)
(10.8966 0.658821 0)
(11.1341 0.348031 0)
(10.8825 0.248875 0)
(10.6016 0.19516 0)
(10.2405 0.148848 0)
(10.0109 0.11593 0)
(9.70116 0.0898978 0)
(9.56133 0.0705046 0)
(9.31184 0.0562777 0)
(9.24958 0.0458308 0)
(9.03655 0.0400128 0)
(9.02414 0.0328582 0)
(8.8289 0.0305222 0)
(8.85218 0.0201116 0)
(8.68581 0.0180767 0)
(8.73724 0.00333982 0)
(8.62948 -0.00898501 0)
(8.71997 -0.0362784 0)
(8.73218 -0.156567 0)
(9.9804 0.685687 0)
(10.8288 0.626199 0)
(11.3081 0.325658 0)
(11.3359 0.244746 0)
(11.3323 0.215294 0)
(11.1476 0.17897 0)
(11.0637 0.146844 0)
(10.8201 0.117787 0)
(10.7458 0.0947702 0)
(10.5107 0.0771305 0)
(10.4804 0.0630917 0)
(10.264 0.0558802 0)
(10.2702 0.0449262 0)
(10.067 0.0439615 0)
(10.1008 0.0263761 0)
(9.92572 0.0303289 0)
(9.98068 -0.000206439 0)
(9.86158 0.00531239 0)
(9.94162 -0.0598502 0)
(9.92736 -0.145787 0)
(9.97217 0.597069 0)
(10.6985 0.59365 0)
(11.2327 0.296903 0)
(11.3401 0.215029 0)
(11.4985 0.202356 0)
(11.4531 0.181457 0)
(11.54 0.157187 0)
(11.4126 0.130756 0)
(11.4569 0.10922 0)
(11.289 0.0912986 0)
(11.3284 0.0770969 0)
(11.1458 0.0682992 0)
(11.1933 0.0576226 0)
(11.0065 0.0535975 0)
(11.0662 0.0378729 0)
(10.8953 0.0341787 0)
(10.9699 0.0106516 0)
(10.8397 -0.00135296 0)
(10.9326 -0.0545214 0)
(10.8773 -0.144506 0)
(9.99163 0.518501 0)
(10.5925 0.558084 0)
(11.1377 0.279203 0)
(11.2459 0.188413 0)
(11.4505 0.180368 0)
(11.437 0.169739 0)
(11.6062 0.151372 0)
(11.555 0.128426 0)
(11.6937 0.108398 0)
(11.6106 0.0938816 0)
(11.7281 0.0799178 0)
(11.62 0.0743402 0)
(11.7204 0.0614072 0)
(11.5947 0.0619146 0)
(11.6842 0.0398999 0)
(11.5582 0.0438644 0)
(11.6481 0.00682366 0)
(11.5438 0.00876356 0)
(11.6407 -0.0698349 0)
(11.5656 -0.1129 0)
(10.0112 0.448342 0)
(10.5128 0.514781 0)
(11.0534 0.265917 0)
(11.1721 0.165848 0)
(11.3792 0.15878 0)
(11.3723 0.155781 0)
(11.5409 0.140727 0)
(11.5225 0.120219 0)
(11.6719 0.0998459 0)
(11.6466 0.0876545 0)
(11.7832 0.0741649 0)
(11.749 0.0710454 0)
(11.869 0.0583907 0)
(11.8251 0.0606357 0)
(11.9285 0.0386225 0)
(11.8802 0.0431506 0)
(11.9744 0.00481876 0)
(11.9353 0.00721783 0)
(12.022 -0.0809238 0)
(11.9713 -0.111949 0)
(10.0126 0.385492 0)
(10.463 0.468198 0)
(10.9651 0.253971 0)
(11.1287 0.144839 0)
(11.3056 0.138182 0)
(11.334 0.141855 0)
(11.4597 0.129504 0)
(11.4837 0.111503 0)
(11.5914 0.0900633 0)
(11.6167 0.0795159 0)
(11.7151 0.0658142 0)
(11.7402 0.0642774 0)
(11.8259 0.051662 0)
(11.8506 0.0543511 0)
(11.9253 0.033675 0)
(11.9499 0.0351319 0)
(12.0191 0.00242199 0)
(12.0498 -0.0114012 0)
(12.1077 -0.0787904 0)
(12.095 -0.174267 0)
(9.99428 0.32761 0)
(10.4314 0.422421 0)
(10.8788 0.241647 0)
(11.0966 0.126241 0)
(11.2376 0.117895 0)
(11.306 0.129009 0)
(11.3908 0.117443 0)
(11.4499 0.103922 0)
(11.5228 0.0799979 0)
(11.5814 0.0726697 0)
(11.6485 0.056771 0)
(11.704 0.0588306 0)
(11.7631 0.0433191 0)
(11.8152 0.0490475 0)
(11.8696 0.0254141 0)
(11.9186 0.0294911 0)
(11.974 -0.00762789 0)
(12.0236 -0.0204833 0)
(12.0689 -0.0968205 0)
(12.0552 -0.208046 0)
(9.97967 0.276985 0)
(10.3941 0.375457 0)
(10.8111 0.229416 0)
(11.0538 0.10777 0)
(11.1889 0.0998202 0)
(11.2687 0.11438 0)
(11.343 0.106526 0)
(11.4064 0.0942375 0)
(11.4759 0.0717787 0)
(11.5367 0.0640109 0)
(11.6031 0.0504667 0)
(11.6584 0.0511026 0)
(11.7185 0.0385686 0)
(11.7673 0.0404701 0)
(11.8249 0.0215966 0)
(11.869 0.017819 0)
(11.9282 -0.0116931 0)
(11.9695 -0.038525 0)
(12.0156 -0.109045 0)
(11.9829 -0.232168 0)
(9.97729 0.232054 0)
(10.3537 0.32902 0)
(10.7577 0.212658 0)
(11.0065 0.0921555 0)
(11.152 0.082246 0)
(11.2298 0.100233 0)
(11.3038 0.0943494 0)
(11.3634 0.0845466 0)
(11.4359 0.0626429 0)
(11.4936 0.0560338 0)
(11.5641 0.0431995 0)
(11.6163 0.0442621 0)
(11.6791 0.0324239 0)
(11.7246 0.0334706 0)
(11.7845 0.0156454 0)
(11.8255 0.00940296 0)
(11.8854 -0.0192706 0)
(11.922 -0.0525166 0)
(11.9645 -0.121964 0)
(11.9193 -0.249286 0)
(9.97626 0.192417 0)
(10.3235 0.283237 0)
(10.7083 0.190524 0)
(10.9674 0.0787476 0)
(11.1164 0.0681063 0)
(11.1992 0.0856044 0)
(11.2648 0.0832784 0)
(11.3301 0.0734214 0)
(11.3956 0.0549935 0)
(11.4608 0.0469322 0)
(11.5249 0.0374637 0)
(11.5847 0.0362243 0)
(11.6398 0.0278402 0)
(11.6931 0.0249487 0)
(11.7445 0.0108204 0)
(11.7936 -0.000535596 0)
(11.8432 -0.0267156 0)
(11.8868 -0.0651528 0)
(11.9148 -0.134649 0)
(11.8713 -0.261563 0)
(9.97304 0.15551 0)
(10.301 0.239906 0)
(10.6652 0.162628 0)
(10.9356 0.0682409 0)
(11.0861 0.0546585 0)
(11.1746 0.0725482 0)
(11.2337 0.0705673 0)
(11.3028 0.0632819 0)
(11.3635 0.0458334 0)
(11.4342 0.0395509 0)
(11.494 0.0301448 0)
(11.5587 0.0299892 0)
(11.6097 0.0210279 0)
(11.6671 0.0185911 0)
(11.7138 0.00366108 0)
(11.7666 -0.00823775 0)
(11.8104 -0.0355481 0)
(11.8565 -0.0763931 0)
(11.8741 -0.145469 0)
(11.8303 -0.274493 0)
(9.97451 0.122851 0)
(10.2775 0.195647 0)
(10.6347 0.133991 0)
(10.905 0.0566405 0)
(11.066 0.043347 0)
(11.1511 0.0579171 0)
(11.2143 0.0587804 0)
(11.2764 0.0510227 0)
(11.3431 0.038191 0)
(11.4085 0.0302776 0)
(11.4745 0.0249886 0)
(11.5332 0.0213586 0)
(11.5907 0.0167343 0)
(11.6412 0.00919607 0)
(11.6938 -0.000426087 0)
(11.7391 -0.0196659 0)
(11.7883 -0.0404445 0)
(11.8249 -0.0915387 0)
(11.8439 -0.149467 0)
(11.7887 -0.289059 0)
(9.97832 0.0930417 0)
(10.2572 0.151592 0)
(10.6124 0.104546 0)
(10.8794 0.0451656 0)
(11.0509 0.0323409 0)
(11.1322 0.0441883 0)
(11.1984 0.0459058 0)
(11.2548 0.0396088 0)
(11.3264 0.0292404 0)
(11.3873 0.0227476 0)
(11.4577 0.0181183 0)
(11.5122 0.0151143 0)
(11.5736 0.00993483 0)
(11.6197 0.00346646 0)
(11.6756 -0.0084444 0)
(11.7162 -0.0250843 0)
(11.7676 -0.0522365 0)
(11.7973 -0.0961495 0)
(11.8163 -0.164779 0)
(11.7504 -0.27417 0)
(9.97742 0.0644857 0)
(10.2466 0.108452 0)
(10.592 0.0744581 0)
(10.8631 0.0336986 0)
(11.0359 0.0218043 0)
(11.1209 0.0314095 0)
(11.1816 0.032593 0)
(11.2416 0.0284685 0)
(11.3089 0.0202079 0)
(11.3738 0.0155706 0)
(11.44 0.0113342 0)
(11.4991 0.00864429 0)
(11.5557 0.00324216 0)
(11.6061 -0.0030933 0)
(11.6566 -0.0157317 0)
(11.7013 -0.0319266 0)
(11.7457 -0.0617407 0)
(11.7781 -0.102484 0)
(11.7897 -0.17755 0)
(11.7242 -0.260981 0)
(9.97531 0.0389084 0)
(10.241 0.0638403 0)
(10.5768 0.0459012 0)
(10.8534 0.0194832 0)
(11.025 0.0138203 0)
(11.1139 0.017062 0)
(11.1702 0.0208501 0)
(11.2339 0.0151877 0)
(11.2968 0.0129604 0)
(11.3657 0.00646134 0)
(11.428 0.0065434 0)
(11.4913 4.39459e-05 0)
(11.5436 -0.00117764 0)
(11.5978 -0.0122016 0)
(11.6433 -0.0200312 0)
(11.6915 -0.0425705 0)
(11.7297 -0.0660406 0)
(11.7651 -0.115094 0)
(11.7688 -0.179551 0)
(11.7041 -0.276263 0)
(9.97659 0.0122434 0)
(10.2355 0.0217924 0)
(10.5713 0.0148727 0)
(10.8471 0.0070074 0)
(11.0217 0.00386292 0)
(11.1087 0.00587084 0)
(11.1675 0.00586131 0)
(11.2282 0.00522706 0)
(11.2934 0.00208491 0)
(11.36 0.00131135 0)
(11.4253 -0.00246062 0)
(11.4856 -0.00376316 0)
(11.5406 -0.010531 0)
(11.5914 -0.0156328 0)
(11.6393 -0.0301021 0)
(11.6836 -0.0464286 0)
(11.7235 -0.0769106 0)
(11.7537 -0.120362 0)
(11.757 -0.186606 0)
(11.687 -0.293384 0)
(9.9779 -0.012039 0)
(10.234 -0.022578 0)
(10.5732 -0.0139792 0)
(10.8462 -0.00845397 0)
(11.0231 -0.00297631 0)
(11.1075 -0.00853667 0)
(11.1694 -0.00569785 0)
(11.2267 -0.00853379 0)
(11.2951 -0.00467739 0)
(11.359 -0.0084957 0)
(11.4272 -0.00640135 0)
(11.4842 -0.0133833 0)
(11.542 -0.0136266 0)
(11.5892 -0.0262517 0)
(11.6398 -0.0324259 0)
(11.6801 -0.0588565 0)
(11.7217 -0.0785316 0)
(11.7466 -0.134925 0)
(11.7494 -0.183102 0)
(11.6751 -0.312792 0)
(9.97754 -0.0382806 0)
(10.2385 -0.0651635 0)
(10.5794 -0.0445258 0)
(10.8518 -0.0214727 0)
(11.0274 -0.0121982 0)
(11.1116 -0.0204745 0)
(11.1739 -0.0198329 0)
(11.2312 -0.0193437 0)
(11.3001 -0.014615 0)
(11.3636 -0.014651 0)
(11.4316 -0.0143495 0)
(11.4881 -0.0181402 0)
(11.5459 -0.0222684 0)
(11.5926 -0.0301121 0)
(11.6428 -0.0425796 0)
(11.6819 -0.0614619 0)
(11.722 -0.091444 0)
(11.745 -0.134314 0)
(11.7448 -0.198368 0)
(11.6665 -0.28175 0)
(9.97681 -0.0646093 0)
(10.2473 -0.108811 0)
(10.591 -0.074042 0)
(10.8638 -0.0346379 0)
(11.0355 -0.0212823 0)
(11.1207 -0.0336329 0)
(11.1819 -0.0329239 0)
(11.2413 -0.0310838 0)
(11.3089 -0.0235719 0)
(11.3732 -0.0218863 0)
(11.4394 -0.0210778 0)
(11.497 -0.0241532 0)
(11.5531 -0.0292561 0)
(11.6009 -0.0356144 0)
(11.6491 -0.0506787 0)
(11.6883 -0.0659521 0)
(11.7259 -0.101967 0)
(11.7482 -0.135546 0)
(11.7467 -0.211603 0)
(11.6678 -0.251008 0)
(9.97599 -0.0922457 0)
(10.2603 -0.153045 0)
(10.6094 -0.103016 0)
(10.8815 -0.0474422 0)
(11.0484 -0.0306243 0)
(11.1338 -0.0478836 0)
(11.1947 -0.0447477 0)
(11.2562 -0.044003 0)
(11.3223 -0.0308242 0)
(11.3874 -0.0312311 0)
(11.4521 -0.0253691 0)
(11.5105 -0.0334205 0)
(11.5652 -0.0322802 0)
(11.6137 -0.046089 0)
(11.66 -0.0522841 0)
(11.6993 -0.0783911 0)
(11.7348 -0.101941 0)
(11.7565 -0.150709 0)
(11.7534 -0.205623 0)
(11.6714 -0.268983 0)
(9.97519 -0.123087 0)
(10.2776 -0.195957 0)
(10.6344 -0.133441 0)
(10.9051 -0.0577447 0)
(11.0657 -0.0427757 0)
(11.1511 -0.0601661 0)
(11.2128 -0.0589431 0)
(11.2758 -0.0540773 0)
(11.341 -0.0410644 0)
(11.4066 -0.03736 0)
(11.47 -0.0334733 0)
(11.5288 -0.038333 0)
(11.5825 -0.0402728 0)
(11.6313 -0.0506006 0)
(11.6761 -0.0604887 0)
(11.7152 -0.0830241 0)
(11.7488 -0.110174 0)
(11.77 -0.15666 0)
(11.765 -0.210349 0)
(11.6812 -0.280563 0)
(9.97487 -0.155138 0)
(10.2991 -0.240761 0)
(10.6668 -0.161629 0)
(10.9341 -0.0697463 0)
(11.0881 -0.0536353 0)
(11.1729 -0.0749751 0)
(11.2363 -0.0704975 0)
(11.3002 -0.0664344 0)
(11.3656 -0.0486831 0)
(11.4307 -0.046425 0)
(11.4934 -0.0387115 0)
(11.5518 -0.0463308 0)
(11.6052 -0.0449668 0)
(11.6533 -0.0581697 0)
(11.6977 -0.0654731 0)
(11.7357 -0.0901674 0)
(11.7685 -0.116075 0)
(11.7879 -0.163696 0)
(11.7823 -0.217161 0)
(11.6973 -0.284738 0)
(9.97481 -0.19224 0)
(10.3258 -0.283958 0)
(10.7065 -0.189625 0)
(10.9689 -0.0803582 0)
(11.1155 -0.0669691 0)
(11.1997 -0.0882829 0)
(11.2652 -0.0829852 0)
(11.3302 -0.0769268 0)
(11.3957 -0.0574216 0)
(11.46 -0.0543332 0)
(11.5221 -0.0450354 0)
(11.5801 -0.0533977 0)
(11.6333 -0.0501803 0)
(11.6806 -0.0652149 0)
(11.7248 -0.070357 0)
(11.7613 -0.0972562 0)
(11.7937 -0.121275 0)
(11.8107 -0.17117 0)
(11.8059 -0.224525 0)
(11.7198 -0.286193 0)
(9.97785 -0.232152 0)
(10.3567 -0.329262 0)
(10.7543 -0.21219 0)
(11.0094 -0.0933444 0)
(11.1492 -0.081605 0)
(11.232 -0.102327 0)
(11.3005 -0.0949153 0)
(11.366 -0.0872905 0)
(11.4315 -0.066007 0)
(11.4953 -0.0625464 0)
(11.5562 -0.0514431 0)
(11.6145 -0.0605451 0)
(11.6664 -0.0552652 0)
(11.7142 -0.072215 0)
(11.7568 -0.0748675 0)
(11.7934 -0.104331 0)
(11.8232 -0.125495 0)
(11.84 -0.179352 0)
(11.8342 -0.230578 0)
(11.7503 -0.291511 0)
(9.98977 -0.277177 0)
(10.3872 -0.375683 0)
(10.8153 -0.228656 0)
(11.049 -0.109172 0)
(11.1931 -0.0988027 0)
(11.2645 -0.116542 0)
(11.3452 -0.107012 0)
(11.4025 -0.0969938 0)
(11.476 -0.0750178 0)
(11.5317 -0.0706266 0)
(11.5985 -0.0584082 0)
(11.6506 -0.067424 0)
(11.7072 -0.0606682 0)
(11.7502 -0.0789234 0)
(11.7958 -0.0793286 0)
(11.8285 -0.111167 0)
(11.859 -0.128903 0)
(11.8733 -0.187788 0)
(11.867 -0.234899 0)
(11.7858 -0.303731 0)
(10.0093 -0.328229 0)
(10.4147 -0.42202 0)
(10.8926 -0.241465 0)
(11.0818 -0.127 0)
(11.2513 -0.117672 0)
(11.2915 -0.130222 0)
(11.4041 -0.118974 0)
(11.434 -0.10555 0)
(11.5345 -0.0843508 0)
(11.5639 -0.078042 0)
(11.6551 -0.0659684 0)
(11.6832 -0.0735538 0)
(11.7622 -0.0666751 0)
(11.7835 -0.084803 0)
(11.8484 -0.0840731 0)
(11.8611 -0.117114 0)
(11.9054 -0.131741 0)
(11.9017 -0.195287 0)
(11.8996 -0.237304 0)
(11.8048 -0.320184 0)
(10.0216 -0.385473 0)
(10.4491 -0.468285 0)
(10.9792 -0.253596 0)
(11.1143 -0.145987 0)
(11.3202 -0.137756 0)
(11.3183 -0.143356 0)
(11.4763 -0.13085 0)
(11.4643 -0.113312 0)
(11.6082 -0.0943061 0)
(11.5945 -0.0849632 0)
(11.7281 -0.0746086 0)
(11.7126 -0.0790225 0)
(11.8318 -0.0739654 0)
(11.8083 -0.0895268 0)
(11.9084 -0.0898431 0)
(11.8726 -0.121133 0)
(11.942 -0.134395 0)
(11.8819 -0.199567 0)
(11.8821 -0.236225 0)
(11.7221 -0.334852 0)
(10.013 -0.448338 0)
(10.5077 -0.514834 0)
(11.0612 -0.265835 0)
(11.1653 -0.166627 0)
(11.3874 -0.158617 0)
(11.364 -0.156894 0)
(11.5502 -0.142232 0)
(11.5104 -0.121656 0)
(11.6818 -0.104234 0)
(11.6306 -0.0925626 0)
(11.7894 -0.0830929 0)
(11.7257 -0.0847158 0)
(11.8644 -0.0804918 0)
(11.781 -0.0934001 0)
(11.8914 -0.0934443 0)
(11.7816 -0.12263 0)
(11.8483 -0.132332 0)
(11.6951 -0.198811 0)
(11.67 -0.223851 0)
(11.398 -0.341285 0)
(9.99162 -0.518218 0)
(10.5917 -0.558434 0)
(11.141 -0.279057 0)
(11.2434 -0.189066 0)
(11.4536 -0.180259 0)
(11.4335 -0.17065 0)
(11.609 -0.152863 0)
(11.5489 -0.129647 0)
(11.6955 -0.112798 0)
(11.5995 -0.0980937 0)
(11.7242 -0.0889022 0)
(11.5977 -0.0863079 0)
(11.6985 -0.0833004 0)
(11.5417 -0.0906623 0)
(11.6133 -0.0929487 0)
(11.4247 -0.114029 0)
(11.4515 -0.127602 0)
(11.2138 -0.180488 0)
(11.1372 -0.212907 0)
(10.7838 -0.3049 0)
(9.97205 -0.596895 0)
(10.6989 -0.594034 0)
(11.2337 -0.296717 0)
(11.3391 -0.215629 0)
(11.499 -0.20223 0)
(11.4515 -0.18238 0)
(11.5394 -0.158393 0)
(11.409 -0.132187 0)
(11.4537 -0.112793 0)
(11.2783 -0.095598 0)
(11.3163 -0.0846489 0)
(11.119 -0.0798623 0)
(11.1557 -0.0759882 0)
(10.9385 -0.0810374 0)
(10.9655 -0.0825161 0)
(10.722 -0.10032 0)
(10.7166 -0.112171 0)
(10.4199 -0.158057 0)
(10.3141 -0.187015 0)
(9.9002 -0.259421 0)
(9.98057 -0.685575 0)
(10.8291 -0.626459 0)
(11.3083 -0.325551 0)
(11.3354 -0.245233 0)
(11.3321 -0.215321 0)
(11.1464 -0.179697 0)
(11.0614 -0.147989 0)
(10.8163 -0.118947 0)
(10.7396 -0.0980066 0)
(10.498 -0.0806057 0)
(10.4633 -0.0700269 0)
(10.2307 -0.0651385 0)
(10.223 -0.061923 0)
(9.9837 -0.0658085 0)
(9.98116 -0.0675618 0)
(9.71771 -0.0821495 0)
(9.68958 -0.0928374 0)
(9.36679 -0.130771 0)
(9.24011 -0.153763 0)
(8.79211 -0.213966 0)
(10.0589 -0.79857 0)
(10.8965 -0.659028 0)
(11.1343 -0.347984 0)
(10.8818 -0.24926 0)
(10.601 -0.195201 0)
(10.2392 -0.14943 0)
(10.0075 -0.116828 0)
(9.69732 -0.0909219 0)
(9.55257 -0.0730088 0)
(9.29833 -0.0592928 0)
(9.22801 -0.0511395 0)
(9.00021 -0.0479238 0)
(8.96892 -0.0457729 0)
(8.73803 -0.0492314 0)
(8.71652 -0.0510264 0)
(8.45979 -0.0624943 0)
(8.41458 -0.0719292 0)
(8.09293 -0.0996187 0)
(7.9498 -0.122203 0)
(7.50651 -0.151427 0)
(10.1383 -0.938716 0)
(10.5567 -0.658196 0)
(10.2819 -0.322752 0)
(9.66631 -0.204644 0)
(9.17435 -0.141853 0)
(8.73783 -0.101826 0)
(8.45615 -0.0774382 0)
(8.15315 -0.0595345 0)
(7.99418 -0.0470501 0)
(7.76694 -0.0382359 0)
(7.68791 -0.0328484 0)
(7.4905 -0.0314343 0)
(7.44933 -0.0301402 0)
(7.24771 -0.0332135 0)
(7.21467 -0.0345721 0)
(6.98494 -0.0432534 0)
(6.92868 -0.050068 0)
(6.62907 -0.0697358 0)
(6.48534 -0.0864018 0)
(6.05271 -0.101842 0)
(9.83791 -1.01289 0)
(9.35804 -0.569619 0)
(8.52562 -0.236449 0)
(7.70148 -0.126917 0)
(7.17719 -0.0784563 0)
(6.78342 -0.0546464 0)
(6.53053 -0.0414721 0)
(6.28223 -0.0318393 0)
(6.14556 -0.0248173 0)
(5.96761 -0.0203359 0)
(5.8991 -0.0173889 0)
(5.74627 -0.0173185 0)
(5.70572 -0.0165993 0)
(5.54679 -0.0190408 0)
(5.50928 -0.0197572 0)
(5.32254 -0.0256179 0)
(5.26159 -0.0295447 0)
(5.00676 -0.04192 0)
(4.87215 -0.0521348 0)
(4.47798 -0.0609679 0)
(8.59443 -0.865265 0)
(6.98869 -0.379453 0)
(5.88045 -0.119704 0)
(5.13566 -0.0497405 0)
(4.74809 -0.0269702 0)
(4.47923 -0.0193522 0)
(4.30488 -0.0150313 0)
(4.13889 -0.0115587 0)
(4.04621 -0.00876542 0)
(3.93105 -0.00737788 0)
(3.88403 -0.00627416 0)
(3.78456 -0.00678928 0)
(3.7524 -0.00644315 0)
(3.64596 -0.00794651 0)
(3.61184 -0.00811524 0)
(3.48213 -0.0112098 0)
(3.42637 -0.0126851 0)
(3.24124 -0.018812 0)
(3.12697 -0.0230282 0)
(2.82463 -0.0280635 0)
(5.34415 -0.30764 0)
(3.03548 -0.060757 0)
(2.2587 0.00143872 0)
(1.91526 0.00350799 0)
(1.77959 0.00133261 0)
(1.6872 0.00015403 0)
(1.62365 -1.3256e-05 0)
(1.56346 -1.51835e-05 0)
(1.52999 0.000107623 0)
(1.48955 -7.39545e-05 0)
(1.47204 1.52729e-07 0)
(1.43562 -0.000330683 0)
(1.42064 -0.00016978 0)
(1.37927 -0.000570252 0)
(1.36063 -0.000374271 0)
(1.30705 -0.00100379 0)
(1.27548 -0.000828405 0)
(1.19427 -0.00188574 0)
(1.13053 -0.00212494 0)
(0.995757 0.00246259 0)
(2.10862 -0.178517 0)
(2.60806 -0.0875204 0)
(3.15903 -0.0899635 0)
(3.68057 -0.124211 0)
(4.17177 -0.183796 0)
(4.66228 -0.267204 0)
(5.1346 -0.348116 0)
(5.62078 -0.493283 0)
(6.09938 -0.626545 0)
(6.49139 -0.757666 0)
(6.86873 -0.894826 0)
(7.1163 -1.03286 0)
(7.36056 -1.13671 0)
(7.54521 -1.19122 0)
(7.73756 -1.21887 0)
(7.8964 -1.23861 0)
(8.05895 -1.29362 0)
(8.17951 -1.38461 0)
(8.25927 -1.48393 0)
(8.35913 -1.57847 0)
(8.41829 -1.65982 0)
(8.50118 -1.7308 0)
(8.63831 -1.80659 0)
(8.74728 -1.88593 0)
(8.87725 -1.98589 0)
(8.96562 -2.08271 0)
(9.02968 -2.15606 0)
(9.07623 -2.21383 0)
(9.09941 -2.24978 0)
(9.11325 -2.28432 0)
(9.11719 -2.3097 0)
(9.13673 -2.33599 0)
(9.13894 -2.36031 0)
(9.11503 -2.38345 0)
(9.0722 -2.40367 0)
(8.99859 -2.43282 0)
(8.91008 -2.46425 0)
(8.84063 -2.49143 0)
(8.82053 -2.51284 0)
(8.83237 -2.53474 0)
(8.84287 -2.57181 0)
(8.83647 -2.60364 0)
(8.81491 -2.63325 0)
(8.78769 -2.66162 0)
(8.76378 -2.66254 0)
(8.74691 -2.65678 0)
(8.72503 -2.63578 0)
(8.70007 -2.61079 0)
(8.60547 -2.54242 0)
(8.48447 -2.44393 0)
(8.38754 -2.35135 0)
(8.28446 -2.22844 0)
(8.19035 -2.10305 0)
(8.11417 -1.98313 0)
(8.04228 -1.85405 0)
(7.97318 -1.73405 0)
(7.93465 -1.62899 0)
(7.8739 -1.51188 0)
(7.82468 -1.38855 0)
(7.74683 -1.26845 0)
(7.66116 -1.12184 0)
(7.54751 -0.967824 0)
(7.43645 -0.820238 0)
(7.34443 -0.677969 0)
(7.24288 -0.543451 0)
(7.14685 -0.414632 0)
(7.05147 -0.291945 0)
(6.97333 -0.177639 0)
(6.88906 -0.0766262 0)
(6.81191 0.0272365 0)
(6.7543 0.129443 0)
(6.69534 0.219309 0)
(6.66018 0.296203 0)
(6.62283 0.361039 0)
(6.59116 0.417405 0)
(6.57512 0.492435 0)
(6.55135 0.566311 0)
(6.53312 0.633425 0)
(6.50192 0.701202 0)
(6.503 0.762097 0)
(6.47423 0.813051 0)
(6.45952 0.849005 0)
(6.45511 0.877754 0)
(6.44427 0.886385 0)
(6.4383 0.876717 0)
(6.41875 0.862573 0)
(6.3827 0.855423 0)
(6.3519 0.844974 0)
(6.311 0.813255 0)
(6.2975 0.794769 0)
(6.25164 0.765951 0)
(6.25517 0.736675 0)
(6.24742 0.705979 0)
(6.24208 0.691517 0)
(6.24853 0.653928 0)
(6.25489 0.62495 0)
(6.27661 0.593176 0)
(6.27793 0.572076 0)
(6.32766 0.527356 0)
(6.32257 0.489511 0)
(6.37174 0.436457 0)
(6.34365 0.419725 0)
(6.40239 0.359206 0)
(6.37418 0.350701 0)
(6.43421 0.289404 0)
(6.37401 0.299131 0)
(6.45742 0.237301 0)
(6.39083 0.257428 0)
(6.51546 0.208394 0)
(6.42182 0.240435 0)
(6.54513 0.177339 0)
(6.42965 0.192377 0)
(6.54893 0.123008 0)
(6.41661 0.142792 0)
(6.54721 0.0560478 0)
(6.36717 0.0746097 0)
(6.52936 -0.013147 0)
(6.29792 0.0135709 0)
(6.46862 -0.0652506 0)
(6.24431 -0.0128528 0)
(6.38288 -0.0793231 0)
(6.20518 -0.000919831 0)
(6.29866 -0.0664551 0)
(6.17082 0.0479105 0)
(6.24711 -0.0325783 0)
(6.13548 0.0973468 0)
(6.22042 -0.0142247 0)
(6.09536 0.129426 0)
(6.18453 0.00972666 0)
(6.07813 0.168552 0)
(6.14835 0.04326 0)
(6.13009 0.212918 0)
(6.13274 0.0822903 0)
(6.20599 0.252483 0)
(6.14735 0.130283 0)
(6.29929 0.308255 0)
(6.15938 0.191933 0)
(6.38979 0.366364 0)
(6.17047 0.266093 0)
(6.44769 0.430441 0)
(6.21758 0.337265 0)
(6.45798 0.497515 0)
(6.29552 0.392334 0)
(6.47523 0.545079 0)
(6.3414 0.444534 0)
(6.51377 0.56532 0)
(6.37569 0.491194 0)
(6.5284 0.579299 0)
(6.42864 0.522202 0)
(6.53092 0.578631 0)
(6.46836 0.530434 0)
(6.54289 0.562214 0)
(6.49799 0.52125 0)
(6.54885 0.536492 0)
(6.51441 0.499068 0)
(6.5429 0.500075 0)
(6.51576 0.46086 0)
(6.52746 0.459243 0)
(6.50266 0.416398 0)
(6.50139 0.420364 0)
(6.48319 0.380282 0)
(6.4756 0.395323 0)
(6.46006 0.351983 0)
(6.42793 0.374126 0)
(6.42022 0.339496 0)
(6.35554 0.371685 0)
(6.37337 0.329012 0)
(6.28261 0.363923 0)
(6.33135 0.313805 0)
(6.21852 0.364959 0)
(6.27997 0.328058 0)
(6.16507 0.402985 0)
(6.23825 0.373053 0)
(6.13242 0.471541 0)
(6.20295 0.441903 0)
(6.11456 0.565651 0)
(6.19083 0.532691 0)
(6.11455 0.680311 0)
(6.20212 0.661358 0)
(6.10954 0.833752 0)
(6.21667 0.834678 0)
(6.10619 1.02732 0)
(6.2305 1.05147 0)
(6.09424 1.26561 0)
(6.23955 1.31258 0)
(6.08397 1.55902 0)
(6.22673 1.61777 0)
(6.0808 1.90675 0)
(6.18435 1.98828 0)
(6.05072 2.31654 0)
(6.11986 2.45164 0)
(5.97618 2.82077 0)
(6.00101 3.06255 0)
(5.7747 3.49848 0)
(5.83989 3.8628 0)
(5.69731 4.42972 0)
(5.63867 5.00597 0)
(5.26856 6.0738 0)
(5.78351 6.99162 0)
(3.22237 10.2082 0)
(4.05963 -0.21501 0)
(4.24204 -0.209973 0)
(4.54125 -0.256908 0)
(4.90044 -0.309118 0)
(5.2729 -0.368503 0)
(5.66602 -0.451659 0)
(6.02231 -0.53469 0)
(6.36972 -0.663929 0)
(6.69502 -0.794066 0)
(6.96587 -0.91518 0)
(7.26872 -1.03948 0)
(7.50133 -1.15123 0)
(7.68898 -1.24276 0)
(7.86749 -1.28768 0)
(8.05181 -1.30877 0)
(8.23691 -1.32241 0)
(8.39691 -1.35145 0)
(8.51805 -1.42243 0)
(8.60118 -1.51239 0)
(8.68393 -1.61049 0)
(8.74799 -1.6919 0)
(8.85267 -1.76814 0)
(8.98752 -1.85022 0)
(9.11053 -1.92985 0)
(9.21021 -2.01868 0)
(9.272 -2.1074 0)
(9.30642 -2.17783 0)
(9.33841 -2.23289 0)
(9.36952 -2.26417 0)
(9.38912 -2.29058 0)
(9.38604 -2.31146 0)
(9.39184 -2.33446 0)
(9.37924 -2.35277 0)
(9.34747 -2.36911 0)
(9.29737 -2.37526 0)
(9.21943 -2.39322 0)
(9.13165 -2.42749 0)
(9.05911 -2.47027 0)
(9.02857 -2.50733 0)
(9.02865 -2.53583 0)
(9.01018 -2.57028 0)
(8.97874 -2.5938 0)
(8.93522 -2.61885 0)
(8.89445 -2.64554 0)
(8.85912 -2.65126 0)
(8.81885 -2.64659 0)
(8.78168 -2.61936 0)
(8.72421 -2.57848 0)
(8.594 -2.49276 0)
(8.4613 -2.39539 0)
(8.35162 -2.30495 0)
(8.23518 -2.18726 0)
(8.13496 -2.07068 0)
(8.0487 -1.95042 0)
(7.96726 -1.82277 0)
(7.89571 -1.70945 0)
(7.84983 -1.60728 0)
(7.77687 -1.48656 0)
(7.71465 -1.35903 0)
(7.62094 -1.2303 0)
(7.52699 -1.07596 0)
(7.40868 -0.924291 0)
(7.30566 -0.779053 0)
(7.22177 -0.637982 0)
(7.12876 -0.504239 0)
(7.03955 -0.37664 0)
(6.94586 -0.254457 0)
(6.86739 -0.142301 0)
(6.7828 -0.0420859 0)
(6.70406 0.0582181 0)
(6.64531 0.154116 0)
(6.58867 0.238534 0)
(6.55547 0.310034 0)
(6.52115 0.373902 0)
(6.48869 0.428445 0)
(6.4699 0.502633 0)
(6.44731 0.578314 0)
(6.43025 0.642992 0)
(6.39586 0.708473 0)
(6.39342 0.769207 0)
(6.36611 0.822001 0)
(6.34528 0.854901 0)
(6.34256 0.878748 0)
(6.33874 0.888653 0)
(6.33473 0.882162 0)
(6.32241 0.873349 0)
(6.28448 0.869819 0)
(6.25739 0.860325 0)
(6.22037 0.825587 0)
(6.20481 0.810026 0)
(6.16374 0.772393 0)
(6.16499 0.739784 0)
(6.15528 0.707046 0)
(6.15512 0.691889 0)
(6.16088 0.650622 0)
(6.17344 0.621273 0)
(6.19213 0.586888 0)
(6.2035 0.563996 0)
(6.25679 0.513447 0)
(6.2627 0.482733 0)
(6.31367 0.428894 0)
(6.29177 0.416564 0)
(6.35852 0.349862 0)
(6.33062 0.346336 0)
(6.40358 0.288166 0)
(6.33626 0.299538 0)
(6.43134 0.231619 0)
(6.3435 0.251464 0)
(6.47402 0.201062 0)
(6.36529 0.238328 0)
(6.49944 0.171141 0)
(6.37719 0.197551 0)
(6.50983 0.122099 0)
(6.36025 0.147027 0)
(6.52507 0.0610961 0)
(6.31658 0.0839625 0)
(6.51236 -0.00130191 0)
(6.25368 0.0272976 0)
(6.45008 -0.0515874 0)
(6.20301 0.00297005 0)
(6.36079 -0.0666892 0)
(6.1642 0.0122248 0)
(6.28198 -0.0518309 0)
(6.11552 0.054532 0)
(6.23701 -0.022054 0)
(6.0747 0.0998875 0)
(6.21223 -0.00440322 0)
(6.02945 0.133998 0)
(6.17385 0.0184894 0)
(5.99663 0.169076 0)
(6.14037 0.0434063 0)
(6.0336 0.202622 0)
(6.13645 0.0805265 0)
(6.0995 0.235459 0)
(6.16449 0.124087 0)
(6.18091 0.293728 0)
(6.19195 0.184726 0)
(6.27473 0.35689 0)
(6.20131 0.259437 0)
(6.3546 0.419168 0)
(6.22669 0.332312 0)
(6.38501 0.480844 0)
(6.30045 0.384365 0)
(6.39349 0.537318 0)
(6.36223 0.433324 0)
(6.43095 0.565879 0)
(6.40588 0.481331 0)
(6.4654 0.573907 0)
(6.46174 0.51217 0)
(6.46902 0.576456 0)
(6.50536 0.521057 0)
(6.48607 0.562992 0)
(6.53132 0.511518 0)
(6.50808 0.538116 0)
(6.54891 0.489611 0)
(6.53002 0.505121 0)
(6.54564 0.452812 0)
(6.54499 0.469733 0)
(6.52402 0.410858 0)
(6.54857 0.433659 0)
(6.50455 0.371026 0)
(6.54431 0.413042 0)
(6.47275 0.345585 0)
(6.51661 0.398867 0)
(6.43373 0.334285 0)
(6.4723 0.399104 0)
(6.39456 0.323131 0)
(6.42265 0.390641 0)
(6.36129 0.308065 0)
(6.36473 0.391762 0)
(6.31961 0.322027 0)
(6.30969 0.422584 0)
(6.30639 0.368075 0)
(6.2661 0.486161 0)
(6.3106 0.44002 0)
(6.22845 0.569771 0)
(6.34794 0.535087 0)
(6.19685 0.678632 0)
(6.38969 0.664153 0)
(6.18039 0.834817 0)
(6.40941 0.831854 0)
(6.17921 1.03782 0)
(6.41284 1.03916 0)
(6.18903 1.28628 0)
(6.40366 1.29322 0)
(6.19787 1.5799 0)
(6.39503 1.60595 0)
(6.18436 1.91922 0)
(6.39482 1.98363 0)
(6.15726 2.33524 0)
(6.37209 2.44299 0)
(6.1301 2.84872 0)
(6.3649 3.02961 0)
(6.12667 3.53047 0)
(6.19225 3.87075 0)
(5.95084 4.54123 0)
(6.06983 5.05411 0)
(5.52864 6.3117 0)
(7.09981 6.79016 0)
(4.6169 11.0077 0)
(5.89594 -0.241351 0)
(5.98012 -0.279405 0)
(6.16073 -0.346627 0)
(6.39127 -0.423167 0)
(6.64175 -0.497603 0)
(6.89985 -0.581942 0)
(7.14565 -0.663126 0)
(7.35654 -0.774073 0)
(7.56688 -0.89754 0)
(7.73194 -1.01538 0)
(7.91651 -1.13646 0)
(8.06857 -1.23209 0)
(8.17407 -1.31231 0)
(8.28199 -1.3616 0)
(8.40756 -1.3912 0)
(8.56863 -1.4074 0)
(8.71134 -1.42793 0)
(8.86574 -1.47233 0)
(8.97962 -1.54661 0)
(9.0612 -1.63687 0)
(9.14261 -1.72086 0)
(9.24387 -1.80188 0)
(9.34372 -1.89231 0)
(9.44378 -1.97458 0)
(9.5123 -2.0526 0)
(9.56724 -2.12799 0)
(9.58404 -2.19192 0)
(9.60045 -2.2453 0)
(9.61612 -2.27734 0)
(9.63186 -2.29461 0)
(9.61829 -2.31027 0)
(9.60813 -2.3295 0)
(9.5781 -2.34143 0)
(9.53693 -2.3525 0)
(9.48667 -2.34851 0)
(9.41917 -2.35798 0)
(9.35169 -2.39289 0)
(9.28541 -2.44582 0)
(9.23787 -2.49398 0)
(9.21009 -2.52667 0)
(9.16282 -2.55692 0)
(9.10598 -2.57344 0)
(9.04047 -2.5968 0)
(8.98741 -2.62251 0)
(8.93947 -2.63252 0)
(8.87472 -2.62418 0)
(8.81492 -2.5875 0)
(8.71787 -2.53251 0)
(8.5644 -2.43631 0)
(8.42785 -2.34384 0)
(8.3018 -2.2532 0)
(8.17443 -2.14212 0)
(8.07064 -2.03459 0)
(7.97209 -1.91384 0)
(7.8831 -1.79037 0)
(7.8076 -1.68311 0)
(7.74977 -1.58088 0)
(7.66203 -1.45527 0)
(7.58177 -1.32235 0)
(7.47439 -1.18555 0)
(7.37536 -1.02793 0)
(7.25707 -0.882448 0)
(7.16638 -0.740824 0)
(7.08945 -0.601402 0)
(7.00162 -0.467761 0)
(6.91803 -0.339499 0)
(6.82529 -0.217346 0)
(6.74377 -0.106619 0)
(6.66284 -0.0082967 0)
(6.58755 0.0887077 0)
(6.52973 0.178171 0)
(6.47542 0.257472 0)
(6.44086 0.322778 0)
(6.41124 0.386005 0)
(6.37812 0.441424 0)
(6.35615 0.513678 0)
(6.33307 0.589347 0)
(6.31799 0.654474 0)
(6.28071 0.718485 0)
(6.2749 0.77739 0)
(6.25056 0.830951 0)
(6.22412 0.860837 0)
(6.22079 0.878627 0)
(6.22226 0.888127 0)
(6.21926 0.885846 0)
(6.21415 0.88341 0)
(6.17797 0.883357 0)
(6.15531 0.874241 0)
(6.12469 0.837037 0)
(6.10726 0.823411 0)
(6.07393 0.777687 0)
(6.07464 0.74454 0)
(6.0594 0.709366 0)
(6.06414 0.691295 0)
(6.07203 0.645543 0)
(6.08262 0.616017 0)
(6.10751 0.577188 0)
(6.11544 0.552149 0)
(6.18268 0.496505 0)
(6.18219 0.472769 0)
(6.25005 0.417902 0)
(6.22127 0.409709 0)
(6.30608 0.338838 0)
(6.26513 0.339354 0)
(6.36023 0.283371 0)
(6.27933 0.299266 0)
(6.39358 0.225016 0)
(6.28896 0.249769 0)
(6.4238 0.193034 0)
(6.30877 0.239147 0)
(6.4436 0.161339 0)
(6.32158 0.201945 0)
(6.46187 0.118281 0)
(6.30502 0.150587 0)
(6.48039 0.0611636 0)
(6.27381 0.0941266 0)
(6.46482 0.00635655 0)
(6.22508 0.0436355 0)
(6.39152 -0.0420218 0)
(6.18664 0.0224996 0)
(6.29872 -0.0576937 0)
(6.14973 0.0281089 0)
(6.22309 -0.0420213 0)
(6.10325 0.0662461 0)
(6.173 -0.0181079 0)
(6.06729 0.110374 0)
(6.13608 -0.000796926 0)
(6.02785 0.147245 0)
(6.08495 0.0216543 0)
(5.99538 0.178685 0)
(6.03512 0.0365302 0)
(6.03175 0.204477 0)
(6.01713 0.0660356 0)
(6.11082 0.233447 0)
(6.03191 0.104015 0)
(6.20575 0.292163 0)
(6.05573 0.160658 0)
(6.31485 0.362037 0)
(6.0626 0.234234 0)
(6.4172 0.427333 0)
(6.06831 0.310313 0)
(6.47457 0.484395 0)