/*--------------------------------*- C++ -*----------------------------------*\
| =========                 |                                                 |
| \\      /  F ield         | OpenFOAM: The Open Source CFD Toolbox           |
|  \\    /   O peration     | Version:  2.4.0                                 |
|   \\  /    A nd           | Web:      www.OpenFOAM.org                      |
|    \\/     M anipulation  |                                                 |
\*---------------------------------------------------------------------------*/
FoamFile
{
    version     2.0;
    format      ascii;
    class       volVectorField;
    location    "0.004";
    object      U;
}
// * * * * * * * * * * * * * * * * * * * * * * * * * * * * * * * * * * * * * //

dimensions      [0 1 -1 0 0 0 0];

internalField   nonuniform List<vector> 
17600
(
(9.80737 -0.277254 0)
(9.6083 -0.147855 0)
(9.37526 -0.0802353 0)
(9.14174 -0.0414156 0)
(8.91814 -0.0190227 0)
(8.70665 -0.00621584 0)
(8.50862 0.000939457 0)
(8.3247 0.0047397 0)
(8.15488 0.00654476 0)
(7.9987 0.0071892 0)
(7.85555 0.00716081 0)
(7.72424 0.00677463 0)
(7.60423 0.00621371 0)
(7.4948 0.00564809 0)
(7.39408 0.00517484 0)
(7.30059 0.00482461 0)
(7.21099 0.00461144 0)
(7.11846 0.00486917 0)
(7.00984 0.00716201 0)
(6.76901 0.0108513 0)
(9.99591 0.123561 0)
(9.98234 0.108482 0)
(9.94237 0.0859683 0)
(9.88912 0.0696729 0)
(9.82707 0.0575917 0)
(9.75695 0.0486569 0)
(9.68031 0.0420318 0)
(9.59892 0.0370189 0)
(9.51438 0.0330802 0)
(9.42792 0.0298913 0)
(9.34063 0.0271855 0)
(9.25291 0.0248448 0)
(9.16577 0.022773 0)
(9.07968 0.0210208 0)
(8.99418 0.0195782 0)
(8.90881 0.0184135 0)
(8.82112 0.0176793 0)
(8.72488 0.0184681 0)
(8.60724 0.0261269 0)
(8.35995 0.0742293 0)
(10.0096 0.0375275 0)
(10.0255 0.026062 0)
(10.0305 0.0235072 0)
(10.0302 0.026324 0)
(10.0271 0.0290709 0)
(10.0203 0.0309106 0)
(10.0095 0.03192 0)
(9.99479 0.032251 0)
(9.97629 0.0320217 0)
(9.95403 0.0314134 0)
(9.92807 0.0304969 0)
(9.89802 0.0294316 0)
(9.86414 0.0283012 0)
(9.82636 0.0272761 0)
(9.78383 0.0263804 0)
(9.73582 0.0256581 0)
(9.67999 0.0256031 0)
(9.61076 0.0283584 0)
(9.51662 0.0430393 0)
(9.32533 0.095625 0)
(10.0118 0.0299819 0)
(10.0327 0.031849 0)
(10.0472 0.033768 0)
(10.0585 0.0363161 0)
(10.0693 0.0373664 0)
(10.0788 0.0373432 0)
(10.0866 0.0367872 0)
(10.0925 0.0359664 0)
(10.0965 0.0349723 0)
(10.0984 0.0339313 0)
(10.0982 0.0328358 0)
(10.0954 0.0318155 0)
(10.0901 0.0308796 0)
(10.082 0.0301015 0)
(10.0703 0.0293817 0)
(10.054 0.0288131 0)
(10.0311 0.0293081 0)
(9.99695 0.0340405 0)
(9.94344 0.0544802 0)
(9.82938 0.112284 0)
(10.0114 0.0268169 0)
(10.0328 0.0309467 0)
(10.0501 0.0320664 0)
(10.0651 0.0337575 0)
(10.0804 0.0345602 0)
(10.0951 0.0346519 0)
(10.1089 0.0343844 0)
(10.1216 0.0339184 0)
(10.1332 0.0332843 0)
(10.1435 0.0325885 0)
(10.1524 0.031812 0)
(10.1595 0.0310949 0)
(10.1649 0.0303869 0)
(10.1685 0.0296845 0)
(10.1694 0.0288472 0)
(10.1671 0.0281721 0)
(10.1598 0.0291046 0)
(10.1446 0.0356578 0)
(10.1169 0.060413 0)
(10.0591 0.121613 0)
(10.0104 0.0245419 0)
(10.0311 0.0291488 0)
(10.0493 0.0300966 0)
(10.0659 0.0317084 0)
(10.0829 0.0326187 0)
(10.0998 0.0328448 0)
(10.1161 0.0326999 0)
(10.1317 0.0323467 0)
(10.1464 0.0318195 0)
(10.1602 0.0312321 0)
(10.1729 0.0305641 0)
(10.1842 0.0299372 0)
(10.1941 0.0292207 0)
(10.2027 0.0283552 0)
(10.2089 0.027257 0)
(10.2126 0.0265224 0)
(10.2124 0.0280991 0)
(10.2064 0.036506 0)
(10.1922 0.0644887 0)
(10.1684 0.12741 0)
(10.0093 0.0219373 0)
(10.0289 0.0268155 0)
(10.0475 0.0278991 0)
(10.0647 0.0295093 0)
(10.0826 0.0304644 0)
(10.1005 0.0307466 0)
(10.118 0.0306661 0)
(10.1349 0.0303882 0)
(10.1512 0.0299468 0)
(10.1666 0.0294519 0)
(10.1813 0.0288701 0)
(10.1946 0.0282784 0)
(10.2068 0.0274822 0)
(10.2177 0.0264231 0)
(10.2266 0.0251676 0)
(10.2334 0.0246344 0)
(10.237 0.0271507 0)
(10.2363 0.0374315 0)
(10.2303 0.0677812 0)
(10.2284 0.131005 0)
(10.0083 0.0195079 0)
(10.0268 0.0245882 0)
(10.0454 0.0257965 0)
(10.0629 0.0273366 0)
(10.0811 0.0282691 0)
(10.0995 0.028565 0)
(10.1176 0.0285218 0)
(10.1352 0.0282982 0)
(10.1523 0.0279257 0)
(10.1687 0.0275014 0)
(10.1843 0.026972 0)
(10.1988 0.0263645 0)
(10.2122 0.0254602 0)
(10.2244 0.0242591 0)
(10.2349 0.0230214 0)
(10.2435 0.022935 0)
(10.2496 0.0265432 0)
(10.2526 0.0385108 0)
(10.2524 0.0703386 0)
(10.2659 0.132575 0)
(10.0075 0.0173041 0)
(10.0249 0.0224294 0)
(10.0433 0.0236976 0)
(10.061 0.0251359 0)
(10.0793 0.0260245 0)
(10.0978 0.0263218 0)
(10.1163 0.0263057 0)
(10.1343 0.0261258 0)
(10.1518 0.0258106 0)
(10.1687 0.0254388 0)
(10.185 0.0249357 0)
(10.2 0.0242899 0)
(10.2141 0.023303 0)
(10.2272 0.0220681 0)
(10.2386 0.0210295 0)
(10.2484 0.0215507 0)
(10.2563 0.0262348 0)
(10.2623 0.0395368 0)
(10.2665 0.0719639 0)
(10.2917 0.132116 0)
(10.0068 0.0152911 0)
(10.0233 0.0203162 0)
(10.0415 0.0216029 0)
(10.0591 0.0229322 0)
(10.0774 0.0237675 0)
(10.0961 0.0240573 0)
(10.1146 0.024059 0)
(10.1329 0.0239122 0)
(10.1506 0.0236428 0)
(10.1678 0.0233064 0)
(10.1844 0.0228129 0)
(10.1998 0.0221334 0)
(10.2143 0.0211233 0)
(10.2278 0.019974 0)
(10.2399 0.0192703 0)
(10.2507 0.0204508 0)
(10.26 0.0260633 0)
(10.2684 0.0402714 0)
(10.2763 0.0725165 0)
(10.3105 0.129755 0)
(10.0062 0.0134354 0)
(10.0219 0.0182453 0)
(10.0398 0.0195192 0)
(10.0575 0.0207359 0)
(10.0757 0.0215098 0)
(10.0944 0.0217849 0)
(10.113 0.0217967 0)
(10.1313 0.0216751 0)
(10.1492 0.0214405 0)
(10.1665 0.0211277 0)
(10.1832 0.02064 0)
(10.1988 0.0199528 0)
(10.2136 0.0189911 0)
(10.2274 0.0180278 0)
(10.24 0.0177303 0)
(10.2516 0.0195321 0)
(10.2621 0.0258546 0)
(10.2725 0.0405471 0)
(10.2835 0.0719836 0)
(10.3247 0.12576 0)
(10.0057 0.0117128 0)
(10.0206 0.0162169 0)
(10.0384 0.017449 0)
(10.056 0.0185501 0)
(10.0742 0.0192563 0)
(10.0928 0.0195113 0)
(10.1114 0.0195278 0)
(10.1298 0.019425 0)
(10.1477 0.0192171 0)
(10.1651 0.0189216 0)
(10.1819 0.0184474 0)
(10.1976 0.0177885 0)
(10.2125 0.0169389 0)
(10.2266 0.0162253 0)
(10.2395 0.0163456 0)
(10.2518 0.0186744 0)
(10.2633 0.0254755 0)
(10.2755 0.0402915 0)
(10.2891 0.0704644 0)
(10.3356 0.120472 0)
(10.0053 0.0101027 0)
(10.0196 0.0142283 0)
(10.0371 0.0153916 0)
(10.0547 0.0163745 0)
(10.0729 0.0170079 0)
(10.0915 0.0172389 0)
(10.1101 0.0172562 0)
(10.1284 0.0171673 0)
(10.1464 0.0169804 0)
(10.1638 0.0167025 0)
(10.1806 0.0162567 0)
(10.1964 0.0156619 0)
(10.2113 0.0149704 0)
(10.2256 0.0145339 0)
(10.2388 0.0150422 0)
(10.2516 0.0177835 0)
(10.2641 0.0248555 0)
(10.2779 0.0395149 0)
(10.2938 0.0681228 0)
(10.3441 0.114244 0)
(10.005 0.00858692 0)
(10.0187 0.0122757 0)
(10.0361 0.0133457 0)
(10.0536 0.0142083 0)
(10.0717 0.0147653 0)
(10.0903 0.014969 0)
(10.1089 0.014984 0)
(10.1272 0.0149052 0)
(10.1452 0.0147372 0)
(10.1626 0.0144813 0)
(10.1794 0.014081 0)
(10.1952 0.0135789 0)
(10.2102 0.0130703 0)
(10.2246 0.0129093 0)
(10.2381 0.0137545 0)
(10.2514 0.0167981 0)
(10.2647 0.0239762 0)
(10.2798 0.038279 0)
(10.2977 0.0651437 0)
(10.3509 0.107386 0)
(10.0047 0.00714894 0)
(10.018 0.0103547 0)
(10.0352 0.0113098 0)
(10.0527 0.0120501 0)
(10.0708 0.0125272 0)
(10.0893 0.012701 0)
(10.1078 0.0127111 0)
(10.1262 0.0126404 0)
(10.1441 0.0124908 0)
(10.1615 0.0122648 0)
(10.1784 0.0119251 0)
(10.1941 0.0115346 0)
(10.2092 0.0112169 0)
(10.2237 0.0113131 0)
(10.2374 0.0124396 0)
(10.2511 0.0156932 0)
(10.2652 0.0228555 0)
(10.2816 0.0366658 0)
(10.3012 0.0616958 0)
(10.3563 0.10015 0)
(10.0045 0.00577424 0)
(10.0174 0.00846098 0)
(10.0345 0.00928239 0)
(10.0519 0.00989866 0)
(10.07 0.0102935 0)
(10.0885 0.0104351 0)
(10.107 0.0104385 0)
(10.1253 0.0103745 0)
(10.1433 0.0102455 0)
(10.1607 0.0100561 0)
(10.1775 0.00978871 0)
(10.1933 0.00951896 0)
(10.2084 0.00938809 0)
(10.223 0.00971566 0)
(10.2369 0.0110731 0)
(10.251 0.0144665 0)
(10.2657 0.0215294 0)
(10.2832 0.0347596 0)
(10.3043 0.0579236 0)
(10.3607 0.0927239 0)
(10.0043 0.0044495 0)
(10.017 0.00658949 0)
(10.0339 0.00726183 0)
(10.0513 0.00775254 0)
(10.0694 0.00806286 0)
(10.0878 0.00817043 0)
(10.1063 0.00816583 0)
(10.1246 0.00810857 0)
(10.1426 0.0080024 0)
(10.16 0.00785597 0)
(10.1768 0.00766794 0)
(10.1926 0.00752158 0)
(10.2077 0.00756772 0)
(10.2224 0.00810081 0)
(10.2366 0.00964813 0)
(10.251 0.0131303 0)
(10.2663 0.020037 0)
(10.2848 0.0326307 0)
(10.3072 0.0539334 0)
(10.3642 0.0852397 0)
(10.0042 0.0031626 0)
(10.0167 0.00473543 0)
(10.0335 0.00524653 0)
(10.0509 0.00561046 0)
(10.0689 0.00583481 0)
(10.0873 0.00590695 0)
(10.1058 0.00589379 0)
(10.1241 0.00584315 0)
(10.1421 0.0057627 0)
(10.1595 0.00566269 0)
(10.1763 0.0055583 0)
(10.1921 0.00553309 0)
(10.2073 0.00574473 0)
(10.2221 0.00646022 0)
(10.2364 0.00816636 0)
(10.2512 0.0117014 0)
(10.267 0.0184141 0)
(10.2863 0.0303352 0)
(10.3098 0.0498048 0)
(10.3671 0.0777888 0)
(10.0041 0.00190213 0)
(10.0164 0.00289368 0)
(10.0332 0.00323477 0)
(10.0506 0.00347095 0)
(10.0686 0.00360802 0)
(10.087 0.00364381 0)
(10.1055 0.00362157 0)
(10.1238 0.0035783 0)
(10.1417 0.0035248 0)
(10.1591 0.00347439 0)
(10.1759 0.00345461 0)
(10.1918 0.00354746 0)
(10.207 0.00391445 0)
(10.2219 0.00479439 0)
(10.2364 0.00663604 0)
(10.2515 0.0101977 0)
(10.2678 0.016688 0)
(10.2879 0.0279111 0)
(10.3123 0.0455886 0)
(10.3694 0.0704288 0)
(10.0041 0.00065739 0)
(10.0163 0.00105941 0)
(10.033 0.00122519 0)
(10.0505 0.00133307 0)
(10.0684 0.00138245 0)
(10.0868 0.00138136 0)
(10.1054 0.00135034 0)
(10.1236 0.00131426 0)
(10.1416 0.00128951 0)
(10.159 0.00128871 0)
(10.1758 0.00135441 0)
(10.1916 0.00156091 0)
(10.2069 0.00207504 0)
(10.2219 0.00310514 0)
(10.2366 0.00506551 0)
(10.2519 0.00863353 0)
(10.2687 0.0148805 0)
(10.2894 0.0253884 0)
(10.3146 0.0413236 0)
(10.3713 0.0632 0)
(10.0041 -0.00058249 0)
(10.0163 -0.000773451 0)
(10.033 -0.00078516 0)
(10.0505 -0.000805949 0)
(10.0684 -0.000844574 0)
(10.0868 -0.000882525 0)
(10.1053 -0.000922261 0)
(10.1236 -0.000950766 0)
(10.1416 -0.000946667 0)
(10.159 -0.000897358 0)
(10.1758 -0.000746696 0)
(10.1917 -0.000428925 0)
(10.207 0.000227377 0)
(10.2221 0.00139864 0)
(10.2369 0.00346476 0)
(10.2525 0.00702265 0)
(10.2697 0.0130072 0)
(10.291 0.0227863 0)
(10.3169 0.0370329 0)
(10.3729 0.0561249 0)
(10.0041 -0.00182734 0)
(10.0164 -0.0026086 0)
(10.0332 -0.00279628 0)
(10.0506 -0.00294547 0)
(10.0686 -0.00307137 0)
(10.087 -0.00314578 0)
(10.1055 -0.00319348 0)
(10.1238 -0.00321514 0)
(10.1417 -0.00318178 0)
(10.1591 -0.0030847 0)
(10.176 -0.00284914 0)
(10.1919 -0.00242323 0)
(10.2073 -0.00162777 0)
(10.2225 -0.000321356 0)
(10.2374 0.00184289 0)
(10.2533 0.00537643 0)
(10.2708 0.0110824 0)
(10.2926 0.020122 0)
(10.319 0.0327359 0)
(10.3741 0.0492193 0)
(10.0042 -0.003088 0)
(10.0166 -0.00445202 0)
(10.0334 -0.00481093 0)
(10.0509 -0.00508795 0)
(10.0689 -0.0053004 0)
(10.0873 -0.00541029 0)
(10.1058 -0.00546561 0)
(10.1241 -0.00548038 0)
(10.1421 -0.00541937 0)
(10.1595 -0.00527571 0)
(10.1764 -0.00495696 0)
(10.1923 -0.0044236 0)
(10.2078 -0.0034877 0)
(10.223 -0.00204719 0)
(10.2381 0.000210379 0)
(10.2542 0.00370887 0)
(10.2721 0.00912 0)
(10.2942 0.0174104 0)
(10.321 0.0284468 0)
(10.3751 0.0424912 0)
(10.0043 -0.00437524 0)
(10.017 -0.00630868 0)
(10.0339 -0.00683063 0)
(10.0513 -0.00723459 0)
(10.0693 -0.00753181 0)
(10.0878 -0.00767584 0)
(10.1063 -0.00773745 0)
(10.1246 -0.00774627 0)
(10.1426 -0.00765847 0)
(10.16 -0.00747288 0)
(10.1769 -0.00707255 0)
(10.193 -0.00643388 0)
(10.2084 -0.00535475 0)
(10.2238 -0.00377698 0)
(10.239 -0.0014237 0)
(10.2552 0.00203354 0)
(10.2734 0.00713855 0)
(10.2958 0.0146722 0)
(10.3229 0.024184 0)
(10.3759 0.0359479 0)
(10.0045 -0.00570048 0)
(10.0174 -0.00818377 0)
(10.0344 -0.00885721 0)
(10.0519 -0.00938687 0)
(10.07 -0.00976707 0)
(10.0884 -0.00994323 0)
(10.107 -0.01001 0)
(10.1253 -0.0100127 0)
(10.1433 -0.00990094 0)
(10.1607 -0.00967769 0)
(10.1777 -0.00920119 0)
(10.1937 -0.00845908 0)
(10.2093 -0.00723256 0)
(10.2247 -0.00550846 0)
(10.24 -0.00304991 0)
(10.2564 0.000368099 0)
(10.2748 0.00516152 0)
(10.2974 0.0119345 0)
(10.3247 0.0199716 0)
(10.3766 0.0296002 0)
(10.0047 -0.00707591 0)
(10.018 -0.0100821 0)
(10.0351 -0.0108922 0)
(10.0527 -0.011546 0)
(10.0707 -0.0120063 0)
(10.0893 -0.0122121 0)
(10.1078 -0.0122817 0)
(10.1262 -0.0122781 0)
(10.1441 -0.012144 0)
(10.1616 -0.011891 0)
(10.1786 -0.0113457 0)
(10.1947 -0.0105075 0)
(10.2103 -0.00913039 0)
(10.2258 -0.00724816 0)
(10.2412 -0.00466471 0)
(10.2577 -0.00126917 0)
(10.2762 0.00322075 0)
(10.299 0.00923836 0)
(10.3264 0.0158499 0)
(10.377 0.0234708 0)
(10.005 -0.00851462 0)
(10.0187 -0.0120085 0)
(10.036 -0.012937 0)
(10.0536 -0.013713 0)
(10.0717 -0.0142506 0)
(10.0903 -0.0144829 0)
(10.1088 -0.0145529 0)
(10.1272 -0.0145414 0)
(10.1452 -0.0143869 0)
(10.1627 -0.0141114 0)
(10.1797 -0.0135104 0)
(10.1958 -0.0125886 0)
(10.2115 -0.0110623 0)
(10.227 -0.00900807 0)
(10.2425 -0.00627015 0)
(10.259 -0.00286231 0)
(10.2776 0.00135254 0)
(10.3005 0.00663893 0)
(10.3278 0.0118804 0)
(10.3771 0.0176059 0)
(10.0053 -0.0100316 0)
(10.0196 -0.0139678 0)
(10.0371 -0.0149936 0)
(10.0547 -0.0158901 0)
(10.0728 -0.016501 0)
(10.0914 -0.0167566 0)
(10.11 -0.0168236 0)
(10.1284 -0.0168015 0)
(10.1464 -0.0166263 0)
(10.1639 -0.0163366 0)
(10.1809 -0.0156962 0)
(10.1971 -0.0147126 0)
(10.2128 -0.0130502 0)
(10.2283 -0.0108152 0)
(10.2438 -0.00788588 0)
(10.2604 -0.004409 0)
(10.279 -0.000406144 0)
(10.3018 0.00420421 0)
(10.329 0.00815106 0)
(10.3769 0.0120878 0)
(10.0057 -0.0116431 0)
(10.0206 -0.0159646 0)
(10.0383 -0.0170638 0)
(10.056 -0.0180786 0)
(10.0742 -0.0187589 0)
(10.0928 -0.019034 0)
(10.1114 -0.0190946 0)
(10.1298 -0.0190576 0)
(10.1478 -0.0188598 0)
(10.1653 -0.0185604 0)
(10.1823 -0.0178999 0)
(10.1985 -0.0168837 0)
(10.2141 -0.0151156 0)
(10.2296 -0.0127048 0)
(10.2451 -0.00954933 0)
(10.2616 -0.00592717 0)
(10.2801 -0.00203338 0)
(10.3027 0.00200446 0)
(10.3297 0.00477565 0)
(10.3761 0.00704599 0)
(10.0062 -0.0133678 0)
(10.0218 -0.0180031 0)
(10.0397 -0.0191493 0)
(10.0574 -0.0202804 0)
(10.0757 -0.0210245 0)
(10.0943 -0.0213146 0)
(10.1129 -0.0213642 0)
(10.1313 -0.0213066 0)
(10.1492 -0.0210809 0)
(10.1667 -0.0207726 0)
(10.1836 -0.020109 0)
(10.1997 -0.0190972 0)
(10.2154 -0.0172752 0)
(10.2308 -0.0147205 0)
(10.2461 -0.0113223 0)
(10.2624 -0.00747114 0)
(10.2808 -0.00354109 0)
(10.303 9.49567e-05 0)
(10.3296 0.00187972 0)
(10.3742 0.00266091 0)
(10.0068 -0.0152264 0)
(10.0232 -0.020086 0)
(10.0414 -0.021251 0)
(10.0591 -0.0224953 0)
(10.0774 -0.023297 0)
(10.096 -0.023596 0)
(10.1146 -0.0236291 0)
(10.1328 -0.0235432 0)
(10.1507 -0.0232823 0)
(10.168 -0.0229583 0)
(10.1848 -0.0223031 0)
(10.2008 -0.0213339 0)
(10.2162 -0.0195265 0)
(10.2315 -0.0168959 0)
(10.2466 -0.0132785 0)
(10.2626 -0.00912919 0)
(10.2805 -0.00499449 0)
(10.3022 -0.00151524 0)
(10.3282 -0.000428847 0)
(10.3708 -0.000859176 0)
(10.0075 -0.0172431 0)
(10.0248 -0.0222135 0)
(10.0432 -0.0233663 0)
(10.0609 -0.0247209 0)
(10.0792 -0.0255716 0)
(10.0978 -0.0258719 0)
(10.1162 -0.0258804 0)
(10.1343 -0.0257572 0)
(10.1519 -0.0254508 0)
(10.1689 -0.025099 0)
(10.1854 -0.0244511 0)
(10.2011 -0.023551 0)
(10.2162 -0.0218384 0)
(10.2311 -0.019237 0)
(10.2458 -0.0154828 0)
(10.2612 -0.0110219 0)
(10.2785 -0.00651989 0)
(10.2994 -0.00289943 0)
(10.3245 -0.00210554 0)
(10.3648 -0.00331574 0)
(10.0083 -0.0194511 0)
(10.0267 -0.0243883 0)
(10.0453 -0.0254878 0)
(10.0629 -0.026945 0)
(10.081 -0.0278358 0)
(10.0994 -0.0281278 0)
(10.1175 -0.028102 0)
(10.1352 -0.0279295 0)
(10.1524 -0.0275669 0)
(10.1689 -0.0271687 0)
(10.1848 -0.026516 0)
(10.1999 -0.0256944 0)
(10.2144 -0.0241393 0)
(10.2286 -0.0216956 0)
(10.2426 -0.0179551 0)
(10.2572 -0.0132561 0)
(10.2735 -0.00830012 0)
(10.2932 -0.00423658 0)
(10.317 -0.00323396 0)
(10.3543 -0.00460234 0)
(10.0093 -0.0218856 0)
(10.0288 -0.0266334 0)
(10.0474 -0.027615 0)
(10.0647 -0.0291437 0)
(10.0825 -0.0300531 0)
(10.1004 -0.0303248 0)
(10.1179 -0.0302544 0)
(10.1349 -0.0300208 0)
(10.1512 -0.0295914 0)
(10.1668 -0.0291268 0)
(10.1818 -0.0284452 0)
(10.1957 -0.027678 0)
(10.2091 -0.0263177 0)
(10.2222 -0.024149 0)
(10.2348 -0.020624 0)
(10.2481 -0.0158793 0)
(10.2628 -0.0105134 0)
(10.2806 -0.00579875 0)
(10.3025 -0.00407229 0)
(10.3361 -0.00481415 0)
(10.0103 -0.0244953 0)
(10.031 -0.0289852 0)
(10.0493 -0.0298377 0)
(10.0658 -0.0313694 0)
(10.0829 -0.0322304 0)
(10.0998 -0.0324395 0)
(10.1161 -0.0322968 0)
(10.1317 -0.0319806 0)
(10.1465 -0.0314659 0)
(10.1604 -0.0309116 0)
(10.1734 -0.0301686 0)
(10.1854 -0.0294071 0)
(10.1966 -0.0282189 0)
(10.2074 -0.0263905 0)
(10.2177 -0.0232836 0)
(10.2284 -0.0187812 0)
(10.2403 -0.0132389 0)
(10.2551 -0.00786882 0)
(10.2736 -0.00503234 0)
(10.3019 -0.00433311 0)
(10.0114 -0.026776 0)
(10.0327 -0.0308029 0)
(10.05 -0.0318346 0)
(10.0651 -0.0334489 0)
(10.0803 -0.0342 0)
(10.0951 -0.0342703 0)
(10.1089 -0.0339979 0)
(10.1216 -0.0335606 0)
(10.1333 -0.0329402 0)
(10.1437 -0.0322753 0)
(10.153 -0.0314465 0)
(10.1608 -0.0306262 0)
(10.1676 -0.029549 0)
(10.1737 -0.0280421 0)
(10.179 -0.025489 0)
(10.1843 -0.0215542 0)
(10.1906 -0.0162441 0)
(10.1992 -0.010523 0)
(10.2112 -0.00653088 0)
(10.2309 -0.00384687 0)
(10.0118 -0.0299477 0)
(10.0326 -0.0317278 0)
(10.047 -0.033568 0)
(10.0584 -0.0360448 0)
(10.0692 -0.0370448 0)
(10.0788 -0.036997 0)
(10.0866 -0.036431 0)
(10.0925 -0.0356282 0)
(10.0966 -0.034648 0)
(10.0988 -0.0336311 0)
(10.0989 -0.0325057 0)
(10.0969 -0.0314146 0)
(10.0931 -0.0301967 0)
(10.0878 -0.0287945 0)
(10.081 -0.0266942 0)
(10.0735 -0.0234672 0)
(10.0662 -0.0188196 0)
(10.0605 -0.0132929 0)
(10.0574 -0.00856845 0)
(10.0601 -0.00409901 0)
(10.0096 -0.037499 0)
(10.0254 -0.0259625 0)
(10.0304 -0.0233397 0)
(10.0301 -0.0260915 0)
(10.027 -0.0288015 0)
(10.0203 -0.0306139 0)
(10.0095 -0.0316139 0)
(9.9949 -0.0319463 0)
(9.97653 -0.0317386 0)
(9.95453 -0.031136 0)
(9.92903 -0.0302191 0)
(9.89985 -0.0291281 0)
(9.86781 -0.0277643 0)
(9.83315 -0.0263088 0)
(9.79637 -0.0244193 0)
(9.75863 -0.0217432 0)
(9.72106 -0.0179568 0)
(9.68556 -0.0131483 0)
(9.65365 -0.00848377 0)
(9.62797 -0.00350279 0)
(9.99585 -0.12354 0)
(9.98217 -0.108415 0)
(9.94218 -0.0858553 0)
(9.88898 -0.0695138 0)
(9.82698 -0.0574117 0)
(9.75695 -0.0484543 0)
(9.68041 -0.0418216 0)
(9.5992 -0.0367987 0)
(9.5148 -0.0328812 0)
(9.42867 -0.0296834 0)
(9.34183 -0.0269949 0)
(9.255 -0.0246625 0)
(9.17003 -0.0224272 0)
(9.08732 -0.0204455 0)
(9.00806 -0.018433 0)
(8.93383 -0.0161183 0)
(8.86565 -0.0132291 0)
(8.80567 -0.00959612 0)
(8.75515 -0.00588122 0)
(8.71564 -0.00192274 0)
(9.80729 0.277266 0)
(9.60808 0.147889 0)
(9.37498 0.0802965 0)
(9.14146 0.0415088 0)
(8.91786 0.0191346 0)
(8.70642 0.00635352 0)
(8.50845 -0.000782627 0)
(8.32465 -0.00456034 0)
(8.15498 -0.00636584 0)
(7.99906 -0.0069919 0)
(7.85638 -0.00697462 0)
(7.72603 -0.00661209 0)
(7.60789 -0.00598083 0)
(7.50174 -0.00535697 0)
(7.40701 -0.00470234 0)
(7.32402 -0.00394557 0)
(7.25297 -0.0029751 0)
(7.19454 -0.00160128 0)
(7.14935 -6.78409e-05 0)
(7.11718 0.00151899 0)
(6.41598 -0.00310327 0)
(6.1283 0.057475 0)
(5.88443 0.134125 0)
(5.68828 0.213561 0)
(5.5866 0.291848 0)
(5.60366 0.365518 0)
(5.73227 0.429226 0)
(5.95215 0.472773 0)
(6.23957 0.482657 0)
(6.57036 0.445625 0)
(6.92059 0.350207 0)
(7.27521 0.182625 0)
(7.66215 -0.0739098 0)
(8.05583 -0.417275 0)
(8.44037 -0.838354 0)
(8.78712 -1.31391 0)
(9.05779 -1.80554 0)
(9.21765 -2.26777 0)
(9.24877 -2.65985 0)
(9.15529 -2.95495 0)
(8.95936 -3.14329 0)
(8.6923 -3.22989 0)
(8.38628 -3.22985 0)
(8.06865 -3.16306 0)
(7.75945 -3.04965 0)
(7.47104 -2.90713 0)
(7.20939 -2.74926 0)
(6.9759 -2.58601 0)
(6.76921 -2.42415 0)
(6.58655 -2.26796 0)
(6.42465 -2.11992 0)
(6.28034 -1.98132 0)
(6.15077 -1.85265 0)
(6.03353 -1.73391 0)
(5.92661 -1.62484 0)
(5.82842 -1.52496 0)
(5.73771 -1.43375 0)
(5.65349 -1.3506 0)
(5.575 -1.27492 0)
(5.50166 -1.2061 0)
(5.43302 -1.14354 0)
(5.36874 -1.08668 0)
(5.30856 -1.03498 0)
(5.25226 -0.987916 0)
(5.19966 -0.945015 0)
(5.15062 -0.905823 0)
(5.105 -0.869927 0)
(5.06267 -0.836942 0)
(5.02352 -0.806519 0)
(4.98743 -0.778343 0)
(4.95429 -0.75213 0)
(4.92399 -0.727626 0)
(4.89642 -0.704607 0)
(4.87147 -0.682874 0)
(4.84905 -0.662254 0)
(4.82906 -0.642593 0)
(4.81139 -0.623762 0)
(4.79596 -0.605643 0)
(4.78266 -0.588139 0)
(4.77139 -0.571166 0)
(4.76205 -0.554653 0)
(4.75455 -0.53854 0)
(4.74876 -0.522781 0)
(4.74458 -0.507338 0)
(4.74189 -0.492184 0)
(4.74057 -0.477296 0)
(4.7405 -0.462663 0)
(4.74155 -0.448276 0)
(4.7436 -0.434131 0)
(4.74654 -0.420229 0)
(4.75026 -0.406572 0)
(4.75464 -0.393162 0)
(4.75959 -0.380002 0)
(4.76505 -0.367096 0)
(4.77093 -0.354447 0)
(4.77718 -0.342055 0)
(4.78375 -0.329921 0)
(4.7906 -0.318044 0)
(4.79768 -0.306424 0)
(4.80497 -0.295058 0)
(4.81243 -0.283945 0)
(4.82002 -0.27308 0)
(4.82772 -0.262464 0)
(4.83549 -0.252093 0)
(4.84329 -0.241964 0)
(4.85109 -0.232076 0)
(4.85886 -0.222429 0)
(4.86657 -0.213021 0)
(4.87417 -0.203851 0)
(4.88164 -0.194921 0)
(4.88895 -0.18623 0)
(4.89607 -0.177781 0)
(4.90297 -0.169574 0)
(4.90964 -0.161611 0)
(4.91607 -0.153894 0)
(4.92225 -0.146424 0)
(4.92818 -0.139202 0)
(4.93387 -0.132228 0)
(4.93932 -0.125502 0)
(4.94453 -0.119022 0)
(4.94951 -0.112788 0)
(4.95427 -0.106796 0)
(4.95881 -0.101043 0)
(4.96313 -0.0955231 0)
(4.96724 -0.0902327 0)
(4.97115 -0.0851649 0)
(4.97485 -0.080314 0)
(4.97834 -0.0756719 0)
(4.98164 -0.071232 0)
(4.98474 -0.0669859 0)
(4.98765 -0.0629268 0)
(4.99037 -0.0590457 0)
(4.99292 -0.0553354 0)
(4.99531 -0.0517873 0)
(4.99753 -0.0483942 0)
(4.99959 -0.0451472 0)
(5.00152 -0.0420387 0)
(5.00332 -0.0390598 0)
(5.005 -0.0362026 0)
(5.00657 -0.0334577 0)
(5.00803 -0.0308167 0)
(5.0094 -0.0282704 0)
(5.01067 -0.0258104 0)
(5.01185 -0.023427 0)
(5.01294 -0.0211116 0)
(5.01395 -0.0188544 0)
(5.01488 -0.0166464 0)
(5.01575 -0.014477 0)
(5.01656 -0.0123362 0)
(5.01731 -0.0102125 0)
(5.01801 -0.00809479 0)
(5.01867 -0.00597007 0)
(5.01929 -0.00382549 0)
(5.01987 -0.00164604 0)
(5.02041 0.000583653 0)
(5.02091 0.00287942 0)
(5.02137 0.00525744 0)
(5.0218 0.00773574 0)
(5.02219 0.0103329 0)
(5.02254 0.0130695 0)
(5.02286 0.0159673 0)
(5.02314 0.0190497 0)
(5.0234 0.0223417 0)
(5.02363 0.0258705 0)
(5.02384 0.0296651 0)
(5.02403 0.0337572 0)
(5.0242 0.0381804 0)
(5.02435 0.0429721 0)
(5.0245 0.0481722 0)
(5.02464 0.0538248 0)
(5.02478 0.0599773 0)
(5.02492 0.0666824 0)
(5.02507 0.0739973 0)
(5.02523 0.0819848 0)
(5.02541 0.0907135 0)
(5.02561 0.100259 0)
(5.02584 0.110703 0)
(5.02609 0.122136 0)
(5.02638 0.134656 0)
(5.0267 0.148372 0)
(5.02706 0.1634 0)
(5.02747 0.179871 0)
(5.02793 0.197924 0)
(5.02844 0.217715 0)
(5.02903 0.239413 0)
(5.02969 0.263204 0)
(5.03044 0.289291 0)
(5.03129 0.317901 0)
(5.03225 0.34928 0)
(5.03335 0.383701 0)
(5.0346 0.421463 0)
(5.03601 0.462895 0)
(5.03759 0.508362 0)
(5.03935 0.558261 0)
(5.04131 0.613034 0)
(5.04344 0.673165 0)
(5.04574 0.739193 0)
(5.04817 0.811713 0)
(5.05068 0.891391 0)
(5.05322 0.978975 0)
(5.05568 1.07531 0)
(5.05794 1.18136 0)
(5.05986 1.29823 0)
(5.06123 1.42721 0)
(5.06179 1.56984 0)
(5.06122 1.72793 0)
(5.0591 1.90368 0)
(5.05489 2.09983 0)
(5.0479 2.31977 0)
(5.03724 2.56787 0)
(5.02174 2.84981 0)
(4.99984 3.17324 0)
(4.96957 3.54864 0)
(4.92745 3.99103 0)
(4.87085 4.5217 0)
(4.78551 5.17408 0)
(4.68212 5.98639 0)
(4.45856 7.03497 0)
(4.42063 8.29649 0)
(3.60505 10.7283 0)
(8.23999 0.16609 0)
(8.12136 0.255575 0)
(7.98677 0.319677 0)
(7.81881 0.366106 0)
(7.64263 0.40011 0)
(7.49585 0.422539 0)
(7.40941 0.433202 0)
(7.40391 0.428316 0)
(7.48652 0.399196 0)
(7.64962 0.333766 0)
(7.8741 0.216771 0)
(8.16344 0.0295506 0)
(8.5069 -0.238002 0)
(8.86516 -0.581332 0)
(9.20776 -0.987807 0)
(9.49515 -1.43165 0)
(9.68752 -1.87692 0)
(9.75716 -2.28518 0)
(9.6971 -2.62433 0)
(9.52143 -2.87467 0)
(9.25853 -3.0305 0)
(8.94183 -3.09799 0)
(8.60225 -3.09106 0)
(8.26374 -3.02679 0)
(7.94213 -2.92188 0)
(7.64616 -2.79084 0)
(7.37926 -2.64526 0)
(7.14138 -2.4938 0)
(6.93046 -2.34258 0)
(6.74346 -2.19565 0)
(6.57709 -2.05551 0)
(6.4282 -1.92356 0)
(6.29399 -1.80046 0)
(6.17208 -1.68641 0)
(6.06051 -1.5813 0)
(5.9577 -1.48481 0)
(5.8624 -1.39651 0)
(5.77363 -1.31593 0)
(5.69064 -1.24252 0)
(5.61284 -1.17575 0)
(5.5398 -1.11508 0)
(5.47117 -1.05997 0)
(5.40669 -1.00992 0)
(5.34616 -0.964422 0)
(5.2894 -0.923019 0)
(5.23626 -0.885272 0)
(5.18663 -0.850771 0)
(5.14037 -0.81914 0)
(5.09737 -0.790033 0)
(5.05752 -0.763136 0)
(5.02071 -0.738167 0)
(4.98684 -0.71487 0)
(4.95581 -0.693019 0)
(4.92752 -0.672414 0)
(4.90186 -0.65288 0)
(4.87875 -0.634261 0)
(4.85809 -0.61642 0)
(4.83979 -0.599243 0)
(4.82374 -0.582628 0)
(4.80987 -0.56649 0)
(4.79806 -0.550756 0)
(4.78821 -0.53537 0)
(4.78021 -0.520284 0)
(4.77394 -0.505463 0)
(4.76929 -0.49088 0)
(4.76614 -0.47652 0)
(4.76434 -0.46237 0)
(4.76378 -0.448427 0)
(4.76433 -0.434688 0)
(4.76586 -0.421159 0)
(4.76827 -0.407841 0)
(4.77143 -0.394741 0)
(4.77525 -0.38186 0)
(4.77965 -0.369206 0)
(4.78455 -0.356779 0)
(4.78989 -0.344583 0)
(4.79562 -0.332616 0)
(4.80168 -0.320882 0)
(4.80805 -0.309379 0)
(4.81466 -0.298106 0)
(4.8215 -0.287062 0)
(4.82853 -0.276247 0)
(4.8357 -0.26566 0)
(4.84297 -0.2553 0)
(4.85032 -0.245165 0)
(4.85771 -0.235258 0)
(4.86509 -0.225578 0)
(4.87244 -0.216125 0)
(4.87971 -0.206902 0)
(4.88687 -0.197909 0)
(4.89389 -0.18915 0)
(4.90074 -0.180626 0)
(4.9074 -0.172339 0)
(4.91384 -0.164293 0)
(4.92006 -0.156489 0)
(4.92604 -0.148928 0)
(4.93179 -0.141612 0)
(4.9373 -0.134543 0)
(4.94258 -0.12772 0)
(4.94763 -0.121143 0)
(4.95247 -0.11481 0)
(4.95709 -0.10872 0)
(4.9615 -0.10287 0)
(4.9657 -0.0972556 0)
(4.9697 -0.0918719 0)
(4.97349 -0.086714 0)
(4.97709 -0.0817757 0)
(4.98048 -0.0770499 0)
(4.98369 -0.0725291 0)
(4.9867 -0.0682065 0)
(4.98953 -0.0640743 0)
(4.99218 -0.0601241 0)
(4.99466 -0.0563477 0)
(4.99697 -0.0527378 0)
(4.99912 -0.0492861 0)
(5.00113 -0.0459841 0)
(5.003 -0.0428231 0)
(5.00475 -0.0397952 0)
(5.00637 -0.0368916 0)
(5.00789 -0.0341034 0)
(5.00931 -0.0314216 0)
(5.01063 -0.0288378 0)
(5.01187 -0.0263429 0)
(5.01301 -0.0239275 0)
(5.01407 -0.0215819 0)
(5.01505 -0.0192971 0)
(5.01596 -0.0170631 0)
(5.01681 -0.0148694 0)
(5.0176 -0.0127051 0)
(5.01834 -0.0105595 0)
(5.01903 -0.00842082 0)
(5.01969 -0.00627654 0)
(5.02031 -0.00411323 0)
(5.02089 -0.00191681 0)
(5.02145 0.000328614 0)
(5.02197 0.00263865 0)
(5.02245 0.00502993 0)
(5.02291 0.00751983 0)
(5.02334 0.0101273 0)
(5.02374 0.0128728 0)
(5.02411 0.0157783 0)
(5.02446 0.018867 0)
(5.0248 0.022164 0)
(5.02512 0.0256964 0)
(5.02542 0.0294935 0)
(5.02572 0.0335867 0)
(5.02602 0.0380098 0)
(5.02632 0.0427999 0)
(5.02662 0.0479973 0)
(5.02694 0.0536455 0)
(5.02727 0.0597921 0)
(5.02764 0.0664895 0)
(5.02803 0.0737952 0)
(5.02846 0.0817714 0)
(5.02894 0.0904866 0)
(5.02947 0.100016 0)
(5.03006 0.110442 0)
(5.03072 0.121854 0)
(5.03145 0.13435 0)
(5.03226 0.148038 0)
(5.03316 0.163035 0)
(5.03416 0.179471 0)
(5.03528 0.197484 0)
(5.03652 0.21723 0)
(5.03789 0.238878 0)
(5.03943 0.262613 0)
(5.04114 0.28864 0)
(5.04305 0.317183 0)
(5.04518 0.348489 0)
(5.04756 0.382831 0)
(5.05022 0.420509 0)
(5.05318 0.461853 0)
(5.05648 0.507226 0)
(5.06013 0.557028 0)
(5.06416 0.6117 0)
(5.06858 0.671729 0)
(5.07341 0.737656 0)
(5.07863 0.810079 0)
(5.08422 0.889669 0)
(5.09017 0.977181 0)
(5.09642 1.07347 0)
(5.10291 1.17951 0)
(5.10954 1.29642 0)
(5.1162 1.42552 0)
(5.12275 1.56837 0)
(5.12897 1.7268 0)
(5.13463 1.90306 0)
(5.13941 2.09992 0)
(5.14293 2.32085 0)
(5.1447 2.57027 0)
(5.14415 2.85397 0)
(5.14052 3.17972 0)
(5.13314 3.55819 0)
(5.12044 4.00472 0)
(5.10335 4.54124 0)
(5.07303 5.20165 0)
(5.05471 6.02737 0)
(4.96724 7.08203 0)
(5.16753 8.35788 0)
(4.86852 10.3151 0)
(9.2588 0.178437 0)
(9.20854 0.264288 0)
(9.16887 0.335835 0)
(9.11601 0.394913 0)
(9.04758 0.440004 0)
(8.97315 0.465579 0)
(8.9071 0.467257 0)
(8.86824 0.44144 0)
(8.87596 0.383346 0)
(8.9427 0.285376 0)
(9.07196 0.134657 0)
(9.2825 -0.081633 0)
(9.53251 -0.364409 0)
(9.79375 -0.70714 0)
(10.0286 -1.09463 0)
(10.1967 -1.50222 0)
(10.2648 -1.8996 0)
(10.2162 -2.25665 0)
(10.0542 -2.54924 0)
(9.79885 -2.7632 0)
(9.47986 -2.89535 0)
(9.12792 -2.9517 0)
(8.76892 -2.94401 0)
(8.42127 -2.88619 0)
(8.0961 -2.79188 0)
(7.79893 -2.67321 0)
(7.53131 -2.54014 0)
(7.29233 -2.40042 0)
(7.07962 -2.25969 0)
(6.89018 -2.12188 0)
(6.72083 -1.9895 0)
(6.56858 -1.86411 0)
(6.43075 -1.74654 0)
(6.30505 -1.63715 0)
(6.18959 -1.53599 0)
(6.08282 -1.44287 0)
(5.98353 -1.3575 0)
(5.89075 -1.27948 0)
(5.80374 -1.20835 0)
(5.72193 -1.14365 0)
(5.64488 -1.08487 0)
(5.57227 -1.03153 0)
(5.50382 -0.983141 0)
(5.43935 -0.939229 0)
(5.3787 -0.899346 0)
(5.32171 -0.863066 0)
(5.26827 -0.82999 0)
(5.21826 -0.799744 0)
(5.17157 -0.771987 0)
(5.1281 -0.746407 0)
(5.08776 -0.72272 0)
(5.05042 -0.70067 0)
(5.01602 -0.68003 0)
(4.98444 -0.660598 0)
(4.9556 -0.642195 0)
(4.9294 -0.624661 0)
(4.90577 -0.607859 0)
(4.88461 -0.59167 0)
(4.86583 -0.575993 0)
(4.84934 -0.560738 0)
(4.83504 -0.545833 0)
(4.82282 -0.531222 0)
(4.81258 -0.516859 0)
(4.8042 -0.50271 0)
(4.79755 -0.488749 0)
(4.79251 -0.474964 0)
(4.78895 -0.461346 0)
(4.78673 -0.447893 0)
(4.78573 -0.434607 0)
(4.78582 -0.421494 0)
(4.78687 -0.408558 0)
(4.78877 -0.395805 0)
(4.79142 -0.383241 0)
(4.79473 -0.370871 0)
(4.79862 -0.358699 0)
(4.80302 -0.346727 0)
(4.80788 -0.334957 0)
(4.81314 -0.32339 0)
(4.81876 -0.312027 0)
(4.82469 -0.300869 0)
(4.83089 -0.289915 0)
(4.83733 -0.279168 0)
(4.84395 -0.268628 0)
(4.85073 -0.258295 0)
(4.85762 -0.248172 0)
(4.86458 -0.238259 0)
(4.87157 -0.228559 0)
(4.87855 -0.219075 0)
(4.88548 -0.209809 0)
(4.89233 -0.200765 0)
(4.89907 -0.191947 0)
(4.90565 -0.183357 0)
(4.91206 -0.174999 0)
(4.91827 -0.166876 0)
(4.92427 -0.158991 0)
(4.93005 -0.151346 0)
(4.93561 -0.143942 0)
(4.94095 -0.136781 0)
(4.94607 -0.129866 0)
(4.95097 -0.123195 0)
(4.95566 -0.116767 0)
(4.96014 -0.110583 0)
(4.96442 -0.104639 0)
(4.9685 -0.0989326 0)
(4.97239 -0.0934586 0)
(4.97607 -0.0882131 0)
(4.97957 -0.08319 0)
(4.98287 -0.0783825 0)
(4.98598 -0.0737834 0)
(4.98891 -0.0693859 0)
(4.99166 -0.0651825 0)
(4.99423 -0.0611647 0)
(4.99664 -0.0573242 0)
(4.99888 -0.0536538 0)
(5.00097 -0.0501449 0)
(5.00291 -0.0467889 0)
(5.00473 -0.043577 0)
(5.00642 -0.0405012 0)