/*--------------------------------*- C++ -*----------------------------------*\
| =========                 |                                                 |
| \\      /  F ield         | OpenFOAM: The Open Source CFD Toolbox           |
|  \\    /   O peration     | Version:  2.4.0                                 |
|   \\  /    A nd           | Web:      www.OpenFOAM.org                      |
|    \\/     M anipulation  |                                                 |
\*---------------------------------------------------------------------------*/
FoamFile
{
    version     2.0;
    format      ascii;
    class       volVectorField;
    location    "0.004";
    object      UMean;
}
// * * * * * * * * * * * * * * * * * * * * * * * * * * * * * * * * * * * * * //

dimensions      [0 1 -1 0 0 0 0];

internalField   nonuniform List<vector> 
17600
(
(9.80417 -0.27743 0)
(9.61007 -0.147955 0)
(9.37946 -0.0800988 0)
(9.14624 -0.0414193 0)
(8.92492 -0.0191192 0)
(8.71719 -0.00640281 0)
(8.52316 0.000634478 0)
(8.34354 0.00432828 0)
(8.17836 0.00605192 0)
(8.02711 0.00662622 0)
(7.88918 0.00655726 0)
(7.76378 0.00615725 0)
(7.65012 0.00560874 0)
(7.54709 0.00502615 0)
(7.45354 0.00448191 0)
(7.36807 0.00404737 0)
(7.2883 0.00382245 0)
(7.21107 0.00395325 0)
(7.12421 0.00518137 0)
(7.03298 0.00169848 0)
(9.98915 0.121222 0)
(9.97376 0.107305 0)
(9.93546 0.0849633 0)
(9.88162 0.068481 0)
(9.82017 0.0564578 0)
(9.75172 0.0475506 0)
(9.6769 0.0408671 0)
(9.59769 0.0357939 0)
(9.51572 0.0318213 0)
(9.43224 0.0285856 0)
(9.34831 0.0258689 0)
(9.2648 0.0235352 0)
(9.18244 0.0214858 0)
(9.10156 0.0196772 0)
(9.02225 0.0181051 0)
(8.94417 0.0168476 0)
(8.86586 0.0161182 0)
(8.78462 0.0163857 0)
(8.69005 0.0190293 0)
(8.56003 0.0539033 0)
(10.0019 0.0367021 0)
(10.0156 0.025834 0)
(10.0213 0.0227441 0)
(10.0199 0.025212 0)
(10.0169 0.0280407 0)
(10.0108 0.0298543 0)
(10.0006 0.0306988 0)
(9.98652 0.0308688 0)
(9.96888 0.0305259 0)
(9.94771 0.0297934 0)
(9.92312 0.0288156 0)
(9.89516 0.0277022 0)
(9.86391 0.0265239 0)
(9.82922 0.0253738 0)
(9.79082 0.0243586 0)
(9.74816 0.0236791 0)
(9.69982 0.0237485 0)
(9.64347 0.0254228 0)
(9.56983 0.031655 0)
(9.46996 0.0624633 0)
(10.0039 0.0294706 0)
(10.0223 0.0313183 0)
(10.037 0.032546 0)
(10.047 0.0348669 0)
(10.0577 0.0360805 0)
(10.0675 0.0360388 0)
(10.0754 0.0353117 0)
(10.0814 0.0343312 0)
(10.0856 0.0332243 0)
(10.0878 0.0320518 0)
(10.0882 0.0308961 0)
(10.0864 0.0298005 0)
(10.0826 0.0287907 0)
(10.0765 0.0279381 0)
(10.0675 0.0273474 0)
(10.055 0.0272578 0)
(10.0377 0.0281989 0)
(10.0135 0.0313293 0)
(9.97505 0.0401256 0)
(9.92325 0.070586 0)
(10.0035 0.0264627 0)
(10.0224 0.0303619 0)
(10.0395 0.0308177 0)
(10.053 0.0323355 0)
(10.0678 0.0332826 0)
(10.0825 0.0333204 0)
(10.096 0.0328622 0)
(10.1085 0.0322229 0)
(10.1198 0.0314618 0)
(10.1299 0.0306211 0)
(10.1389 0.0297766 0)
(10.1466 0.0289704 0)
(10.153 0.0282395 0)
(10.1579 0.0276775 0)
(10.161 0.0274201 0)
(10.1617 0.0277626 0)
(10.1589 0.0293349 0)
(10.1515 0.0335017 0)
(10.1342 0.0439064 0)
(10.1136 0.0736611 0)
(10.0025 0.0242926 0)
(10.0207 0.0285865 0)
(10.0388 0.0288943 0)
(10.0536 0.0303347 0)
(10.07 0.0313481 0)
(10.0866 0.031495 0)
(10.1023 0.0311559 0)
(10.1172 0.0306256 0)
(10.1313 0.0299658 0)
(10.1447 0.0292299 0)
(10.1571 0.0284951 0)
(10.1687 0.0278067 0)
(10.1793 0.0272087 0)
(10.1888 0.0268064 0)
(10.1969 0.0267561 0)
(10.2031 0.0273902 0)
(10.2067 0.029398 0)
(10.2068 0.0342509 0)
(10.1996 0.0455462 0)
(10.1947 0.0742806 0)
(10.0015 0.0217827 0)
(10.0187 0.0263075 0)
(10.037 0.0267747 0)
(10.0525 0.0282094 0)
(10.0695 0.0292345 0)
(10.0869 0.0294244 0)
(10.1036 0.0291525 0)
(10.1196 0.0286966 0)
(10.1351 0.0281186 0)
(10.1499 0.0274748 0)
(10.1641 0.0268386 0)
(10.1775 0.0262563 0)
(10.1901 0.025777 0)
(10.2018 0.0255147 0)
(10.2123 0.0256439 0)
(10.2213 0.0265262 0)
(10.228 0.0288901 0)
(10.232 0.03426 0)
(10.2302 0.0461008 0)
(10.2333 0.073719 0)
(10.0007 0.0194319 0)
(10.0168 0.0241399 0)
(10.035 0.0247593 0)
(10.0508 0.0261221 0)
(10.0681 0.0271002 0)
(10.0858 0.0272986 0)
(10.1029 0.0270707 0)
(10.1196 0.0266709 0)
(10.1358 0.0261592 0)
(10.1514 0.0255919 0)
(10.1664 0.0250377 0)
(10.1808 0.0245444 0)
(10.1945 0.0241662 0)
(10.2074 0.0240243 0)
(10.2193 0.0243097 0)
(10.2298 0.0254076 0)
(10.2383 0.028073 0)
(10.2446 0.0338508 0)
(10.2461 0.0460356 0)
(10.2541 0.0725314 0)
(9.99991 0.0172906 0)
(10.0151 0.0220411 0)
(10.0331 0.0227507 0)
(10.049 0.0240122 0)
(10.0663 0.0249292 0)
(10.0842 0.0251292 0)
(10.1015 0.0249376 0)
(10.1185 0.0245863 0)
(10.135 0.0241328 0)
(10.1511 0.0236327 0)
(10.1666 0.0231512 0)
(10.1816 0.0227367 0)
(10.1959 0.0224489 0)
(10.2096 0.0224147 0)
(10.2223 0.0228403 0)
(10.2337 0.0241299 0)
(10.2434 0.027056 0)
(10.2512 0.0331616 0)
(10.255 0.0455495 0)
(10.2663 0.0709392 0)
(9.99927 0.0153266 0)
(10.0135 0.0199858 0)
(10.0314 0.0207459 0)
(10.0473 0.0219009 0)
(10.0646 0.0227519 0)
(10.0825 0.0229481 0)
(10.0999 0.0227854 0)
(10.117 0.0224754 0)
(10.1338 0.0220731 0)
(10.15 0.0216331 0)
(10.1659 0.0212171 0)
(10.1812 0.0208743 0)
(10.1959 0.0206686 0)
(10.21 0.0207324 0)
(10.2232 0.0212853 0)
(10.2353 0.0227468 0)
(10.2458 0.0258995 0)
(10.2548 0.0322689 0)
(10.2604 0.0447523 0)
(10.2741 0.0690601 0)
(9.99872 0.0135086 0)
(10.0122 0.0179698 0)
(10.0299 0.0187503 0)
(10.0458 0.019797 0)
(10.063 0.0205777 0)
(10.0809 0.0207649 0)
(10.0984 0.0206249 0)
(10.1155 0.0203512 0)
(10.1323 0.0199954 0)
(10.1487 0.0196103 0)
(10.1647 0.0192549 0)
(10.1802 0.0189783 0)
(10.1952 0.0188486 0)
(10.2096 0.0190025 0)
(10.2231 0.0196716 0)
(10.2357 0.0212875 0)
(10.2469 0.0246374 0)
(10.2568 0.0312169 0)
(10.2638 0.0437108 0)
(10.2795 0.0669641 0)
(9.99825 0.0118138 0)
(10.0111 0.0159925 0)
(10.0285 0.016766 0)
(10.0444 0.017703 0)
(10.0617 0.0184095 0)
(10.0794 0.0185836 0)
(10.0969 0.0184621 0)
(10.1141 0.0182216 0)
(10.1309 0.017909 0)
(10.1474 0.017575 0)
(10.1635 0.0172766 0)
(10.1791 0.0170622 0)
(10.1942 0.0170033 0)
(10.2088 0.0172407 0)
(10.2226 0.0180157 0)
(10.2356 0.0197696 0)
(10.2472 0.0232899 0)
(10.258 0.0300332 0)
(10.2662 0.0424696 0)
(10.2834 0.0646964 0)
(9.99786 0.010222 0)
(10.0102 0.0140506 0)
(10.0274 0.0147923 0)
(10.0433 0.0156181 0)
(10.0605 0.0162478 0)
(10.0782 0.0164059 0)
(10.0956 0.0163 0)
(10.1128 0.0160906 0)
(10.1297 0.0158189 0)
(10.1462 0.0155334 0)
(10.1623 0.0152892 0)
(10.178 0.0151336 0)
(10.1932 0.0151414 0)
(10.2079 0.0154566 0)
(10.2219 0.0163284 0)
(10.2351 0.0182044 0)
(10.2473 0.0218697 0)
(10.2587 0.0287362 0)
(10.2679 0.0410606 0)
(10.2864 0.0622919 0)
(9.99754 0.0087154 0)
(10.0094 0.0121393 0)
(10.0265 0.0128281 0)
(10.0424 0.013542 0)
(10.0595 0.0140924 0)
(10.0772 0.0142318 0)
(10.0946 0.0141397 0)
(10.1117 0.0139603 0)
(10.1286 0.0137281 0)
(10.1451 0.0134889 0)
(10.1612 0.0132968 0)
(10.1769 0.0131972 0)
(10.1923 0.0132681 0)
(10.207 0.0136566 0)
(10.2212 0.0146171 0)
(10.2347 0.0165997 0)
(10.2472 0.0203851 0)
(10.2592 0.0273383 0)
(10.2694 0.039507 0)
(10.289 0.0597763 0)
(9.99728 0.00727814 0)
(10.0087 0.010253 0)
(10.0257 0.0108714 0)
(10.0416 0.0114733 0)
(10.0587 0.0119425 0)
(10.0763 0.0120612 0)
(10.0937 0.0119818 0)
(10.1108 0.0118314 0)
(10.1277 0.0116378 0)
(10.1442 0.0114435 0)
(10.1603 0.0113016 0)
(10.1761 0.0112555 0)
(10.1914 0.0113868 0)
(10.2063 0.0118443 0)
(10.2205 0.0128861 0)
(10.2342 0.0149617 0)
(10.2471 0.0188429 0)
(10.2597 0.0258486 0)
(10.2707 0.0378266 0)
(10.2912 0.0571714 0)
(9.99708 0.00589593 0)
(10.0082 0.00838662 0)
(10.0251 0.00892059 0)
(10.041 0.0094111 0)
(10.0581 0.00979692 0)
(10.0757 0.00989356 0)
(10.093 0.00982616 0)
(10.1101 0.00970419 0)
(10.127 0.00954876 0)
(10.1434 0.00939835 0)
(10.1596 0.00930489 0)
(10.1754 0.00931048 0)
(10.1908 0.00949985 0)
(10.2057 0.0100223 0)
(10.22 0.0111378 0)
(10.2339 0.0132944 0)
(10.2471 0.0172488 0)
(10.2602 0.0242746 0)
(10.272 0.0360331 0)
(10.2932 0.0544929 0)
(9.99693 0.00455554 0)
(10.0079 0.00653488 0)
(10.0247 0.00697393 0)
(10.0406 0.00735389 0)
(10.0577 0.00765459 0)
(10.0752 0.00772836 0)
(10.0925 0.00767264 0)
(10.1096 0.0075786 0)
(10.1264 0.00746125 0)
(10.1429 0.007354 0)
(10.1591 0.00730732 0)
(10.1748 0.00736305 0)
(10.1902 0.00760842 0)
(10.2052 0.00819172 0)
(10.2196 0.00937404 0)
(10.2336 0.0115998 0)
(10.2471 0.0156075 0)
(10.2608 0.0226239 0)
(10.2733 0.0341377 0)
(10.2952 0.0517549 0)
(9.99684 0.00324481 0)
(10.0076 0.00469271 0)
(10.0244 0.00503035 0)
(10.0403 0.00530068 0)
(10.0574 0.00551437 0)
(10.0749 0.00556472 0)
(10.0922 0.00552082 0)
(10.1093 0.0054544 0)
(10.1261 0.00537539 0)
(10.1425 0.00531074 0)
(10.1587 0.00530939 0)
(10.1745 0.00541389 0)
(10.1899 0.00571311 0)
(10.2049 0.00635333 0)
(10.2194 0.00759586 0)
(10.2335 0.00987911 0)
(10.2473 0.013923 0)
(10.2614 0.0209025 0)
(10.2746 0.0321493 0)
(10.297 0.0489675 0)
(9.99679 0.00195236 0)
(10.0075 0.00285497 0)
(10.0242 0.00308823 0)
(10.0402 0.00325052 0)
(10.0573 0.00337621 0)
(10.0748 0.00340222 0)
(10.092 0.00337022 0)
(10.1091 0.00333146 0)
(10.1259 0.00329067 0)
(10.1423 0.00326824 0)
(10.1585 0.00331126 0)
(10.1743 0.0034632 0)
(10.1897 0.00381426 0)
(10.2047 0.00450753 0)
(10.2193 0.005804 0)
(10.2336 0.00813404 0)
(10.2476 0.0121987 0)
(10.2621 0.019115 0)
(10.2759 0.0300763 0)
(10.2989 0.0461408 0)
(9.99677 0.000668502 0)
(10.0075 0.00101686 0)
(10.0242 0.00114585 0)
(10.0402 0.00120293 0)
(10.0573 0.00123988 0)
(10.0748 0.00123987 0)
(10.092 0.00122063 0)
(10.109 0.00121044 0)
(10.1258 0.00120761 0)
(10.1423 0.00122674 0)
(10.1584 0.00131366 0)
(10.1742 0.00151202 0)
(10.1897 0.00191249 0)
(10.2047 0.00265478 0)
(10.2194 0.00399887 0)
(10.2338 0.00636566 0)
(10.248 0.0104366 0)
(10.2629 0.0172654 0)
(10.2773 0.0279269 0)
(10.3007 0.0432816 0)
(9.99677 -0.000612665 0)
(10.0075 -0.000824129 0)
(10.0242 -0.000800848 0)
(10.0402 -0.000846744 0)
(10.0573 -0.000898118 0)
(10.0749 -0.000925997 0)
(10.0921 -0.000932155 0)
(10.1092 -0.000911184 0)
(10.1259 -0.000875292 0)
(10.1424 -0.000815079 0)
(10.1585 -0.000684665 0)
(10.1743 -0.000440355 0)
(10.1898 8.11149e-06 0)
(10.2049 0.000795315 0)
(10.2196 0.00218043 0)
(10.2341 0.00457445 0)
(10.2485 0.00863626 0)
(10.2638 0.0153579 0)
(10.2788 0.0257103 0)
(10.3026 0.040397 0)
(9.99679 -0.00189334 0)
(10.0075 -0.00266523 0)
(10.0242 -0.00275251 0)
(10.0402 -0.00290003 0)
(10.0574 -0.00303794 0)
(10.075 -0.00309386 0)
(10.0923 -0.00308815 0)
(10.1094 -0.00303503 0)
(10.1262 -0.00295739 0)
(10.1426 -0.00285493 0)
(10.1588 -0.00268164 0)
(10.1746 -0.00239274 0)
(10.19 -0.00189814 0)
(10.2052 -0.00106984 0)
(10.22 0.000349375 0)
(10.2346 0.00276071 0)
(10.2492 0.00679875 0)
(10.2648 0.0133972 0)
(10.2803 0.0234332 0)
(10.3045 0.0374913 0)
(9.99685 -0.00318156 0)
(10.0076 -0.00450677 0)
(10.0244 -0.00470883 0)
(10.0404 -0.00495954 0)
(10.0576 -0.00518258 0)
(10.0752 -0.00526554 0)
(10.0926 -0.00524892 0)
(10.1097 -0.00516485 0)
(10.1265 -0.00504367 0)
(10.143 -0.00489578 0)
(10.1591 -0.00467824 0)
(10.1749 -0.00434616 0)
(10.1904 -0.00380692 0)
(10.2056 -0.00294041 0)
(10.2205 -0.00149368 0)
(10.2352 0.000924832 0)
(10.25 0.0049254 0)
(10.2659 0.011387 0)
(10.2819 0.0210998 0)
(10.3064 0.0345701 0)
(9.99695 -0.00448871 0)
(10.0079 -0.00635288 0)
(10.0246 -0.00666761 0)
(10.0407 -0.00702391 0)
(10.0579 -0.00733229 0)
(10.0756 -0.00744118 0)
(10.093 -0.00741282 0)
(10.1101 -0.00729918 0)
(10.127 -0.0071352 0)
(10.1435 -0.00693965 0)
(10.1596 -0.00667547 0)
(10.1754 -0.00630095 0)
(10.191 -0.00571912 0)
(10.2061 -0.00481669 0)
(10.2211 -0.0033483 0)
(10.236 -0.000932906 0)
(10.251 0.00301762 0)
(10.2672 0.00932933 0)
(10.2836 0.0187135 0)
(10.3084 0.0316375 0)
(9.9971 -0.00582659 0)
(10.0082 -0.00820908 0)
(10.0251 -0.00862905 0)
(10.0411 -0.00909334 0)
(10.0583 -0.00948663 0)
(10.0761 -0.00962055 0)
(10.0935 -0.00957962 0)
(10.1107 -0.00943674 0)
(10.1276 -0.00923102 0)
(10.1441 -0.00898769 0)
(10.1603 -0.00867518 0)
(10.1761 -0.00825746 0)
(10.1916 -0.007635 0)
(10.2069 -0.00669889 0)
(10.2219 -0.00521375 0)
(10.2369 -0.00281103 0)
(10.2521 0.00107658 0)
(10.2685 0.0072261 0)
(10.2854 0.0162775 0)
(10.3104 0.0286982 0)
(9.9973 -0.00720735 0)
(10.0087 -0.010081 0)
(10.0257 -0.0105944 0)
(10.0417 -0.0111685 0)
(10.059 -0.0116459 0)
(10.0768 -0.0118036 0)
(10.0943 -0.011749 0)
(10.1115 -0.0115771 0)
(10.1284 -0.0113299 0)
(10.1449 -0.0110394 0)
(10.1611 -0.0106779 0)
(10.1769 -0.0102156 0)
(10.1924 -0.00955433 0)
(10.2077 -0.00858748 0)
(10.2228 -0.00708941 0)
(10.2379 -0.00470766 0)
(10.2532 -0.000896023 0)
(10.27 0.00507938 0)
(10.2873 0.0137939 0)
(10.3125 0.0257554 0)
(9.99756 -0.00864439 0)
(10.0094 -0.0119739 0)
(10.0265 -0.0125654 0)
(10.0425 -0.0132506 0)
(10.0598 -0.0138105 0)
(10.0776 -0.0139903 0)
(10.0952 -0.0139208 0)
(10.1124 -0.0137198 0)
(10.1293 -0.0134314 0)
(10.1458 -0.0130938 0)
(10.162 -0.0126831 0)
(10.1779 -0.0121757 0)
(10.1934 -0.011476 0)
(10.2087 -0.0104815 0)
(10.2238 -0.00897351 0)
(10.239 -0.0066205 0)
(10.2545 -0.00289816 0)
(10.2715 0.00289135 0)
(10.2893 0.0112649 0)
(10.3147 0.0228091 0)
(9.99788 -0.010152 0)
(10.0102 -0.0138932 0)
(10.0274 -0.0145435 0)
(10.0434 -0.0153407 0)
(10.0608 -0.0159815 0)
(10.0787 -0.016181 0)
(10.0963 -0.016095 0)
(10.1135 -0.0158642 0)
(10.1304 -0.0155345 0)
(10.147 -0.015149 0)
(10.1631 -0.0146899 0)
(10.179 -0.0141367 0)
(10.1945 -0.0133983 0)
(10.2098 -0.0123791 0)
(10.2249 -0.0108643 0)
(10.2401 -0.00854661 0)
(10.2558 -0.00492552 0)
(10.273 0.000665461 0)
(10.2911 0.0086938 0)
(10.3168 0.0198552 0)
(9.99827 -0.0117462 0)
(10.0111 -0.0158438 0)
(10.0285 -0.0165303 0)
(10.0446 -0.0174398 0)
(10.062 -0.0181595 0)
(10.0799 -0.0183757 0)
(10.0975 -0.0182709 0)
(10.1148 -0.0180091 0)
(10.1317 -0.0176374 0)
(10.1482 -0.0172031 0)
(10.1644 -0.0166957 0)
(10.1802 -0.0160961 0)
(10.1957 -0.0153184 0)
(10.2109 -0.0142765 0)
(10.226 -0.012759 0)
(10.2413 -0.0104814 0)
(10.257 -0.0069719 0)
(10.2743 -0.00159392 0)
(10.2928 0.00608625 0)
(10.3187 0.0168934 0)
(9.99874 -0.0134446 0)
(10.0122 -0.0178302 0)
(10.0299 -0.0185274 0)
(10.0459 -0.0195487 0)
(10.0634 -0.0203448 0)
(10.0814 -0.020574 0)
(10.099 -0.0204473 0)
(10.1162 -0.0201524 0)
(10.1331 -0.019737 0)
(10.1496 -0.0192525 0)
(10.1657 -0.0186958 0)
(10.1814 -0.0180492 0)
(10.1967 -0.0172318 0)
(10.2119 -0.016168 0)
(10.2269 -0.0146515 0)
(10.2421 -0.0124183 0)
(10.2578 -0.00902951 0)
(10.2752 -0.00387697 0)
(10.2941 0.00344898 0)
(10.3201 0.01393 0)
(9.99929 -0.0152667 0)
(10.0136 -0.0198555 0)
(10.0314 -0.0205362 0)
(10.0475 -0.0216681 0)
(10.065 -0.0225363 0)
(10.083 -0.0227736 0)
(10.1006 -0.0226209 0)
(10.1178 -0.0222894 0)
(10.1346 -0.0218277 0)
(10.1509 -0.0212905 0)
(10.1668 -0.0206826 0)
(10.1824 -0.0199883 0)
(10.1976 -0.0191303 0)
(10.2125 -0.0180438 0)
(10.2274 -0.0165318 0)
(10.2424 -0.0143477 0)
(10.258 -0.0110884 0)
(10.2753 -0.00617037 0)
(10.2944 0.000792269 0)
(10.3205 0.0109779 0)
(9.99993 -0.0172355 0)
(10.0151 -0.0219204 0)
(10.0332 -0.0225545 0)
(10.0492 -0.0237951 0)
(10.0667 -0.0247315 0)
(10.0847 -0.0249707 0)
(10.1022 -0.0247857 0)
(10.1192 -0.0244123 0)
(10.1358 -0.0238997 0)
(10.1519 -0.0233063 0)
(10.1676 -0.022644 0)
(10.1828 -0.0219004 0)
(10.1977 -0.0209998 0)
(10.2123 -0.0198894 0)
(10.2268 -0.0183838 0)
(10.2415 -0.0162549 0)
(10.2568 -0.013131 0)
(10.2739 -0.00845722 0)
(10.293 -0.00186649 0)
(10.3191 0.00805274 0)
(10.0007 -0.0193822 0)
(10.0168 -0.0240291 0)
(10.0351 -0.0245773 0)
(10.051 -0.0259216 0)
(10.0684 -0.0269197 0)
(10.0863 -0.0271551 0)
(10.1036 -0.0269305 0)
(10.1203 -0.0265075 0)
(10.1365 -0.0259376 0)
(10.1522 -0.025282 0)
(10.1674 -0.0245604 0)
(10.1821 -0.0237638 0)
(10.1964 -0.0228172 0)
(10.2103 -0.0216803 0)
(10.2242 -0.0201814 0)
(10.2383 -0.0181118 0)
(10.253 -0.0151289 0)
(10.2695 -0.0107137 0)
(10.2884 -0.00450245 0)
(10.3141 0.00517808 0)
(10.0016 -0.0217394 0)
(10.0188 -0.0262073 0)
(10.0371 -0.0266072 0)
(10.0527 -0.0280242 0)
(10.0699 -0.0290708 0)
(10.0874 -0.0292951 0)
(10.1042 -0.0290238 0)
(10.1203 -0.0285432 0)
(10.1359 -0.0279079 0)
(10.1507 -0.027182 0)
(10.165 -0.0263937 0)
(10.1788 -0.025537 0)
(10.192 -0.0245396 0)
(10.2049 -0.0233717 0)
(10.2176 -0.0218766 0)
(10.2305 -0.0198684 0)
(10.2441 -0.0170314 0)
(10.2595 -0.0128917 0)
(10.2775 -0.00706912 0)
(10.3024 0.00238976 0)
(10.0025 -0.0242562 0)
(10.0208 -0.0284976 0)
(10.0389 -0.0287414 0)
(10.0539 -0.0301631 0)
(10.0704 -0.0311986 0)
(10.0871 -0.0313778 0)
(10.1029 -0.0310382 0)
(10.1179 -0.0304828 0)
(10.1321 -0.0297664 0)
(10.1454 -0.0289551 0)
(10.1581 -0.0280857 0)
(10.17 -0.0271554 0)
(10.1814 -0.0260955 0)
(10.1921 -0.0248857 0)
(10.2026 -0.0233855 0)
(10.2132 -0.0214349 0)
(10.2245 -0.0187465 0)
(10.2376 -0.0148971 0)
(10.2535 -0.00948438 0)
(10.2764 -0.000259531 0)
(10.0035 -0.0264346 0)
(10.0224 -0.0302862 0)
(10.0397 -0.0306804 0)
(10.0533 -0.032174 0)
(10.0683 -0.0331433 0)
(10.0831 -0.0332113 0)
(10.0968 -0.0327546 0)
(10.1092 -0.0320926 0)
(10.1206 -0.0312765 0)
(10.1308 -0.0303679 0)
(10.14 -0.0294081 0)
(10.1482 -0.0283959 0)
(10.1554 -0.0272652 0)
(10.1618 -0.0260057 0)
(10.1676 -0.0244917 0)
(10.1732 -0.0225929 0)
(10.1792 -0.0200527 0)
(10.187 -0.0165071 0)
(10.1978 -0.0115379 0)
(10.2159 -0.00262902 0)
(10.0039 -0.0294518 0)
(10.0224 -0.0312578 0)
(10.0371 -0.0324298 0)
(10.0474 -0.0347189 0)
(10.0582 -0.0359454 0)
(10.0683 -0.0359313 0)
(10.0763 -0.0352119 0)
(10.0824 -0.0342159 0)
(10.0866 -0.0330609 0)
(10.0891 -0.0318279 0)
(10.0897 -0.0305792 0)
(10.0885 -0.0293178 0)
(10.0857 -0.0279801 0)
(10.0813 -0.0265578 0)
(10.0756 -0.0249372 0)
(10.069 -0.0230119 0)
(10.0622 -0.0205673 0)
(10.0567 -0.017298 0)
(10.0543 -0.0127981 0)
(10.0598 -0.00446579 0)
(10.002 -0.0366925 0)
(10.0156 -0.0257898 0)
(10.0214 -0.022659 0)
(10.0203 -0.0250945 0)
(10.0175 -0.0279086 0)
(10.0117 -0.0297425 0)
(10.0017 -0.0306029 0)
(9.98791 -0.0307659 0)
(9.97048 -0.0303943 0)
(9.94961 -0.0296128 0)
(9.92548 -0.0285686 0)
(9.89829 -0.0273389 0)
(9.86833 -0.0259206 0)
(9.83586 -0.0243552 0)
(9.80143 -0.0225895 0)
(9.76583 -0.0205719 0)
(9.73025 -0.018181 0)
(9.6968 -0.0151809 0)
(9.66795 -0.0112613 0)
(9.64981 -0.0041817 0)
(9.98901 -0.121215 0)
(9.97377 -0.107282 0)
(9.93556 -0.0849214 0)
(9.88195 -0.0684204 0)
(9.82088 -0.0563636 0)
(9.75279 -0.0474663 0)
(9.67834 -0.0407992 0)
(9.59947 -0.0357218 0)
(9.51785 -0.0317403 0)
(9.43482 -0.0284746 0)
(9.35154 -0.0257191 0)
(9.269 -0.0233267 0)
(9.18817 -0.0211406 0)
(9.10982 -0.0190965 0)
(9.03492 -0.0170967 0)
(8.96455 -0.0150728 0)
(8.90002 -0.0129411 0)
(8.84353 -0.0105221 0)
(8.79742 -0.00761418 0)
(8.7685 -0.0027555 0)
(9.80418 0.277435 0)
(9.6101 0.147967 0)
(9.37952 0.0801183 0)
(9.14651 0.0414465 0)
(8.92563 0.0191678 0)
(8.71837 0.00644669 0)
(8.52477 -0.00060212 0)
(8.34557 -0.00429465 0)
(8.1808 -0.00601897 0)
(8.03006 -0.00658259 0)
(7.89285 -0.00649927 0)
(7.76851 -0.00608371 0)
(7.65618 -0.00549032 0)
(7.55545 -0.00482634 0)
(7.46587 -0.00413271 0)
(7.38726 -0.00342712 0)
(7.31974 -0.0027074 0)
(7.26437 -0.00189329 0)
(7.22247 -0.000894204 0)
(7.20123 0.000834661 0)
(6.69861 -0.11809 0)
(6.43007 -0.119983 0)
(6.20486 -0.111659 0)
(6.01009 -0.0958743 0)
(5.86661 -0.0802504 0)
(5.77497 -0.0675179 0)
(5.72518 -0.0569708 0)
(5.70673 -0.0492514 0)
(5.71072 -0.0448462 0)
(5.73002 -0.0440475 0)
(5.75943 -0.0471366 0)
(5.79528 -0.0542319 0)
(5.83495 -0.0652704 0)
(5.87651 -0.0800497 0)
(5.91854 -0.098245 0)
(5.95995 -0.119447 0)
(5.99996 -0.143197 0)
(6.03801 -0.169017 0)
(6.07377 -0.196428 0)
(6.10704 -0.224976 0)
(6.13776 -0.254243 0)
(6.16595 -0.28385 0)
(6.19171 -0.313467 0)
(6.21519 -0.342817 0)
(6.23654 -0.371669 0)
(6.25596 -0.399842 0)
(6.2736 -0.427193 0)
(6.28965 -0.453621 0)
(6.30427 -0.479056 0)
(6.31761 -0.503455 0)
(6.32979 -0.526795 0)
(6.34093 -0.549072 0)
(6.35113 -0.570294 0)
(6.36047 -0.590478 0)
(6.36902 -0.609648 0)
(6.37682 -0.627833 0)
(6.38394 -0.645061 0)
(6.3904 -0.661364 0)
(6.39623 -0.676773 0)
(6.40147 -0.691319 0)
(6.40614 -0.705031 0)
(6.41026 -0.717938 0)
(6.41385 -0.730067 0)
(6.41693 -0.741445 0)
(6.41953 -0.752096 0)
(6.42165 -0.762047 0)
(6.42334 -0.771319 0)
(6.42459 -0.779937 0)
(6.42545 -0.787924 0)
(6.42592 -0.795303 0)
(6.42602 -0.802096 0)
(6.42578 -0.808327 0)
(6.42521 -0.814019 0)
(6.42433 -0.819194 0)
(6.42315 -0.823877 0)
(6.42167 -0.828089 0)
(6.41991 -0.831853 0)
(6.41788 -0.835193 0)
(6.41557 -0.83813 0)
(6.41299 -0.840685 0)
(6.41014 -0.842877 0)
(6.40703 -0.844725 0)
(6.40366 -0.846245 0)
(6.40003 -0.847453 0)
(6.39614 -0.848362 0)
(6.39199 -0.848983 0)
(6.3876 -0.849324 0)
(6.38297 -0.849391 0)
(6.3781 -0.849191 0)
(6.373 -0.848725 0)
(6.36768 -0.847994 0)
(6.36215 -0.846999 0)
(6.35643 -0.845736 0)
(6.35051 -0.844203 0)
(6.34443 -0.842397 0)
(6.33818 -0.840314 0)
(6.33178 -0.83795 0)
(6.32524 -0.835299 0)
(6.31858 -0.832357 0)
(6.31181 -0.829118 0)
(6.30494 -0.825577 0)
(6.298 -0.821731 0)
(6.29098 -0.817573 0)
(6.28391 -0.813098 0)
(6.2768 -0.808302 0)
(6.26965 -0.803182 0)
(6.26249 -0.797735 0)
(6.25533 -0.791959 0)
(6.24816 -0.785853 0)
(6.24101 -0.779417 0)
(6.23388 -0.772653 0)
(6.22678 -0.765562 0)
(6.21972 -0.758146 0)
(6.2127 -0.750409 0)
(6.20573 -0.742354 0)
(6.19881 -0.733987 0)
(6.19196 -0.725312 0)
(6.18517 -0.716335 0)
(6.17844 -0.707064 0)
(6.17177 -0.697505 0)
(6.16518 -0.687666 0)
(6.15866 -0.677556 0)
(6.1522 -0.667183 0)
(6.14581 -0.656556 0)
(6.1395 -0.645687 0)
(6.13325 -0.634583 0)
(6.12707 -0.623255 0)
(6.12096 -0.611714 0)
(6.11491 -0.59997 0)
(6.10893 -0.588034 0)
(6.103 -0.575917 0)
(6.09713 -0.563628 0)
(6.09131 -0.551179 0)
(6.08554 -0.538581 0)
(6.07981 -0.525843 0)
(6.07412 -0.512976 0)
(6.06847 -0.49999 0)
(6.06285 -0.486894 0)
(6.05726 -0.473698 0)
(6.05169 -0.46041 0)
(6.04614 -0.447038 0)
(6.04061 -0.43359 0)
(6.03508 -0.420073 0)
(6.02956 -0.406494 0)
(6.02405 -0.39286 0)
(6.01853 -0.379175 0)
(6.013 -0.365444 0)
(6.00747 -0.35167 0)
(6.00192 -0.337857 0)
(5.99635 -0.324005 0)
(5.99075 -0.310117 0)
(5.98513 -0.29619 0)
(5.97948 -0.282226 0)
(5.97379 -0.26822 0)
(5.96806 -0.25417 0)
(5.96229 -0.240071 0)
(5.95647 -0.225916 0)
(5.9506 -0.211697 0)
(5.94467 -0.197405 0)
(5.9387 -0.183029 0)
(5.93266 -0.168556 0)
(5.92656 -0.153972 0)
(5.9204 -0.13926 0)
(5.91417 -0.124403 0)
(5.90788 -0.109378 0)
(5.90151 -0.094162 0)
(5.89508 -0.0787294 0)
(5.88856 -0.0630504 0)
(5.88197 -0.047093 0)
(5.87531 -0.0308212 0)
(5.86856 -0.0141958 0)
(5.86173 0.00282686 0)
(5.85481 0.0202941 0)
(5.84781 0.0382584 0)
(5.84072 0.0567769 0)
(5.83355 0.0759123 0)
(5.82628 0.0957331 0)
(5.81892 0.116314 0)
(5.81147 0.137738 0)
(5.80392 0.160093 0)
(5.79628 0.183478 0)
(5.78855 0.207999 0)
(5.78072 0.233772 0)
(5.7728 0.260926 0)
(5.76478 0.289598 0)
(5.75666 0.319941 0)
(5.74845 0.35212 0)
(5.74014 0.386318 0)
(5.73174 0.422735 0)
(5.72324 0.461588 0)
(5.71464 0.503115 0)
(5.70593 0.547576 0)
(5.69712 0.595252 0)
(5.68817 0.646458 0)
(5.67909 0.701536 0)
(5.66984 0.760869 0)
(5.66039 0.824881 0)
(5.6507 0.894046 0)
(5.6407 0.968899 0)
(5.63032 1.05005 0)
(5.61946 1.13818 0)
(5.60797 1.23409 0)
(5.59571 1.33871 0)
(5.58246 1.45314 0)
(5.56798 1.57867 0)
(5.55194 1.7169 0)
(5.53395 1.86977 0)
(5.51352 2.03969 0)
(5.49004 2.22976 0)
(5.46269 2.44396 0)
(5.4304 2.68751 0)
(5.39167 2.96747 0)
(5.34446 3.29341 0)
(5.28524 3.67868 0)
(5.2105 4.1416 0)
(5.10738 4.70935 0)
(4.98207 5.41478 0)
(4.74821 6.32422 0)
(4.67894 7.45218 0)
(3.8914 9.80005 0)
(8.46613 0.0531737 0)
(8.36202 0.0651523 0)
(8.2379 0.0562461 0)
(8.08467 0.0462441 0)
(7.91794 0.0362412 0)
(7.75096 0.0252143 0)
(7.59183 0.014159 0)
(7.4474 0.00313779 0)
(7.32215 -0.00816886 0)
(7.21755 -0.0201102 0)
(7.13314 -0.0331588 0)
(7.06709 -0.0477422 0)
(7.01681 -0.0641928 0)
(6.97946 -0.0826856 0)
(6.95233 -0.103272 0)
(6.93303 -0.125876 0)
(6.91956 -0.150321 0)
(6.91027 -0.176345 0)
(6.90392 -0.203636 0)
(6.89951 -0.23186 0)
(6.89631 -0.26068 0)
(6.89379 -0.289773 0)
(6.89155 -0.31885 0)
(6.88933 -0.347658 0)
(6.88694 -0.375984 0)
(6.88428 -0.403657 0)
(6.8813 -0.430544 0)
(6.87798 -0.456544 0)
(6.87431 -0.48159 0)
(6.87032 -0.505635 0)
(6.86602 -0.528655 0)
(6.86144 -0.550641 0)
(6.85659 -0.571597 0)
(6.85149 -0.591536 0)
(6.84616 -0.610478 0)
(6.8406 -0.628448 0)
(6.83483 -0.645474 0)
(6.82884 -0.661584 0)
(6.82264 -0.676808 0)
(6.81623 -0.691176 0)
(6.80962 -0.704717 0)
(6.8028 -0.717459 0)
(6.7958 -0.72943 0)
(6.78861 -0.740657 0)
(6.78124 -0.751164 0)
(6.7737 -0.760978 0)
(6.76601 -0.770121 0)
(6.75818 -0.778618 0)
(6.75022 -0.786492 0)
(6.74216 -0.793765 0)
(6.73399 -0.80046 0)
(6.72574 -0.806599 0)
(6.71742 -0.812204 0)
(6.70904 -0.817298 0)
(6.7006 -0.821902 0)
(6.69211 -0.826039 0)
(6.68358 -0.829731 0)
(6.675 -0.832999 0)
(6.66637 -0.835864 0)
(6.65769 -0.838347 0)
(6.64895 -0.840466 0)
(6.64015 -0.84224 0)
(6.63128 -0.843686 0)
(6.62233 -0.844819 0)
(6.61329 -0.845653 0)
(6.60417 -0.846198 0)
(6.59496 -0.846464 0)
(6.58564 -0.846458 0)
(6.57623 -0.846185 0)
(6.56672 -0.845649 0)
(6.55711 -0.84485 0)
(6.54741 -0.843789 0)
(6.53761 -0.842464 0)
(6.52773 -0.840873 0)
(6.51776 -0.839013 0)
(6.50773 -0.836881 0)
(6.49762 -0.834472 0)
(6.48746 -0.831781 0)
(6.47725 -0.828804 0)
(6.467 -0.825536 0)
(6.45673 -0.821972 0)
(6.44644 -0.818107 0)
(6.43614 -0.813936 0)
(6.42585 -0.809453 0)
(6.41557 -0.804654 0)
(6.40531 -0.799536 0)
(6.3951 -0.794094 0)
(6.38492 -0.788328 0)
(6.37481 -0.782236 0)
(6.36475 -0.775817 0)
(6.35476 -0.769073 0)
(6.34485 -0.762005 0)
(6.33502 -0.754615 0)
(6.32529 -0.746907 0)
(6.31565 -0.738883 0)
(6.3061 -0.730549 0)
(6.29667 -0.721908 0)
(6.28733 -0.712968 0)
(6.27811 -0.703734 0)
(6.26899 -0.694214 0)
(6.25999 -0.684414 0)
(6.2511 -0.674344 0)
(6.24232 -0.664011 0)
(6.23366 -0.653424 0)
(6.22511 -0.642593 0)
(6.21667 -0.631528 0)
(6.20835 -0.620239 0)
(6.20013 -0.608735 0)
(6.19202 -0.597027 0)
(6.18402 -0.585126 0)
(6.17612 -0.573041 0)
(6.16831 -0.560785 0)
(6.16061 -0.548366 0)
(6.15299 -0.535797 0)
(6.14546 -0.523086 0)
(6.13802 -0.510245 0)
(6.13066 -0.497283 0)
(6.12337 -0.484209 0)
(6.11615 -0.471034 0)
(6.10899 -0.457764 0)
(6.1019 -0.444408 0)
(6.09486 -0.430975 0)
(6.08788 -0.417471 0)
(6.08095 -0.403903 0)
(6.07406 -0.390277 0)
(6.06721 -0.3766 0)
(6.0604 -0.362874 0)
(6.05362 -0.349104 0)
(6.04686 -0.335292 0)
(6.04013 -0.321441 0)
(6.03342 -0.307551 0)
(6.02672 -0.293622 0)
(6.02003 -0.279653 0)
(6.01334 -0.265641 0)
(6.00665 -0.251584 0)
(5.99997 -0.237475 0)
(5.99328 -0.223309 0)
(5.98658 -0.209079 0)
(5.97987 -0.194773 0)
(5.97315 -0.180382 0)
(5.96642 -0.165894 0)
(5.95966 -0.151293 0)
(5.95289 -0.136564 0)
(5.94609 -0.121688 0)
(5.93928 -0.106643 0)
(5.93243 -0.0914079 0)
(5.92556 -0.0759546 0)
(5.91866 -0.0602543 0)
(5.91174 -0.044275 0)
(5.90478 -0.0279809 0)
(5.89779 -0.0113325 0)
(5.89078 0.00571352 0)
(5.88373 0.0232047 0)
(5.87665 0.041193 0)
(5.86954 0.0597358 0)
(5.8624 0.0788958 0)
(5.85522 0.0987412 0)
(5.84802 0.119347 0)
(5.84079 0.140795 0)
(5.83354 0.163174 0)
(5.82627 0.186582 0)
(5.81897 0.211126 0)
(5.81166 0.236921 0)
(5.80434 0.264096 0)
(5.79701 0.292788 0)
(5.78969 0.323149 0)
(5.78237 0.355345 0)
(5.77507 0.389558 0)
(5.76778 0.425989 0)
(5.76053 0.464855 0)
(5.75331 0.506394 0)
(5.74613 0.550867 0)
(5.73901 0.598557 0)
(5.73193 0.649777 0)
(5.72491 0.704876 0)
(5.71794 0.764236 0)
(5.711 0.828287 0)
(5.70408 0.897508 0)
(5.69714 0.972439 0)
(5.69014 1.05369 0)
(5.68302 1.14197 0)
(5.67569 1.23808 0)
(5.66805 1.34297 0)
(5.65996 1.45774 0)
(5.65125 1.58372 0)
(5.64172 1.72251 0)
(5.63111 1.87609 0)
(5.61915 2.04692 0)
(5.60548 2.23811 0)
(5.58967 2.45373 0)
(5.57123 2.69911 0)
(5.54948 2.98142 0)
(5.52369 3.31049 0)
(5.49239 3.70001 0)
(5.45574 4.16896 0)
(5.40701 4.74486 0)
(5.3664 5.46294 0)
(5.27336 6.37701 0)
(5.44091 7.51116 0)
(5.202 9.31277 0)
(9.41822 0.0693071 0)
(9.36522 0.0744645 0)
(9.30602 0.0720653 0)
(9.23071 0.0724073 0)
(9.14154 0.0737486 0)
(9.04136 0.0724675 0)
(8.93113 0.0677691 0)
(8.81376 0.0595018 0)
(8.69309 0.0476951 0)
(8.57288 0.0326748 0)
(8.45652 0.0148389 0)
(8.34669 -0.00544692 0)
(8.24518 -0.027854 0)
(8.15293 -0.0520836 0)
(8.0702 -0.0778786 0)
(7.99666 -0.104998 0)
(7.93159 -0.133203 0)
(7.87405 -0.162247 0)
(7.82298 -0.191887 0)
(7.77734 -0.22188 0)
(7.73617 -0.251994 0)
(7.69864 -0.282011 0)
(7.66403 -0.311735 0)
(7.6318 -0.340992 0)
(7.60149 -0.369632 0)
(7.57276 -0.397527 0)
(7.54535 -0.424578 0)
(7.51905 -0.450705 0)
(7.49369 -0.475851 0)
(7.46916 -0.49998 0)
(7.44535 -0.52307 0)
(7.42218 -0.545116 0)
(7.39959 -0.566124 0)
(7.37752 -0.586107 0)
(7.35591 -0.605086 0)
(7.33473 -0.623085 0)
(7.31394 -0.640134 0)
(7.2935 -0.656262 0)
(7.27339 -0.671498 0)
(7.25356 -0.685873 0)
(7.23401 -0.699419 0)
(7.2147 -0.712163 0)
(7.19563 -0.724135 0)
(7.17678 -0.735362 0)
(7.15815 -0.745872 0)
(7.13973 -0.75569 0)
(7.12151 -0.764841 0)
(7.1035 -0.773349 0)
(7.08571 -0.781238 0)
(7.06813 -0.78853 0)
(7.05077 -0.795249 0)
(7.03364 -0.801416 0)
(7.01675 -0.807052 0)
(7.00008 -0.812179 0)
(6.98366 -0.816818 0)
(6.96746 -0.82099 0)
(6.9515 -0.824716 0)
(6.93575 -0.828016 0)
(6.92022 -0.83091 0)
(6.90489 -0.833418 0)
(6.88975 -0.835558 0)
(6.87478 -0.837349 0)
(6.85996 -0.838807 0)
(6.84528 -0.839948 0)
(6.83072 -0.840784 0)
(6.81626 -0.841328 0)
(6.8019 -0.841589 0)
(6.78761 -0.841575 0)
(6.77339 -0.841291 0)
(6.75923 -0.840742 0)
(6.7451 -0.83993 0)
(6.73102 -0.838855 0)
(6.71698 -0.837516 0)
(6.70296 -0.835913 0)
(6.68898 -0.834042 0)
(6.67502 -0.8319 0)
(6.6611 -0.829484 0)
(6.64722 -0.826789 0)
(6.63338 -0.823811 0)
(6.61958 -0.820546 0)
(6.60584 -0.816988 0)
(6.59215 -0.813133 0)
(6.57853 -0.808976 0)
(6.56498 -0.80451 0)
(6.55151 -0.799732 0)
(6.53814 -0.794638 0)
(6.52485 -0.789225 0)
(6.51167 -0.78349 0)
(6.49859 -0.777432 0)
(6.48564 -0.771051 0)
(6.4728 -0.764348 0)
(6.46009 -0.757323 0)
(6.44752 -0.749978 0)
(6.43509 -0.742318 0)
(6.4228 -0.734343 0)
(6.41065 -0.72606 0)
(6.39865 -0.717473 0)
(6.38681 -0.708587 0)
(6.37512 -0.699408 0)
(6.36358 -0.689943 0)
(6.3522 -0.680199 0)
(6.34098 -0.670185 0)
(6.32992 -0.659909 0)
(6.31901 -0.649378 0)
(6.30826 -0.638603 0)
(6.29766 -0.627593 0)
(6.28722 -0.616358 0)
(6.27693 -0.604908 0)
(6.2668 -0.593253 0)
(6.25681 -0.581403 0)
(6.24696 -0.56937 0)
(6.23726 -0.557162 0)
(6.2277 -0.544791 0)