/*--------------------------------*- C++ -*----------------------------------*\
| =========                 |                                                 |
| \\      /  F ield         | OpenFOAM: The Open Source CFD Toolbox           |
|  \\    /   O peration     | Version:  2.4.0                                 |
|   \\  /    A nd           | Web:      www.OpenFOAM.org                      |
|    \\/     M anipulation  |                                                 |
\*---------------------------------------------------------------------------*/
FoamFile
{
    version     2.0;
    format      ascii;
    class       volScalarField;
    location    "0.002";
    object      k;
}
// * * * * * * * * * * * * * * * * * * * * * * * * * * * * * * * * * * * * * //

dimensions      [0 2 -2 0 0 0 0];

internalField   nonuniform List<scalar> 
4400
(
0.534577
0.677513
0.790395
0.871253
0.923597
0.95306
0.965471
0.965914
0.958181
0.947209
0.375797
0.368589
0.360625
0.353238
0.346763
0.341574
0.338031
0.336437
0.337284
0.342741
0.363118
0.348806
0.33321
0.317377
0.301987
0.287545
0.274428
0.26291
0.253242
0.245792
0.361226
0.347225
0.332968
0.318646
0.304521
0.290838
0.277802
0.26557
0.254269
0.24397
0.361043
0.347525
0.334313
0.321345
0.308658
0.296331
0.284448
0.273084
0.262297
0.25212
0.36106
0.347815
0.335174
0.323009
0.311262
0.299918
0.288984
0.278479
0.268422
0.25883
0.36108
0.347959
0.335596
0.323861
0.312665
0.301946
0.291667
0.281807
0.272356
0.263318
0.361089
0.348017
0.335776
0.324252
0.313351
0.302996
0.293126
0.283697
0.274679
0.266064
0.361091
0.348038
0.335846
0.324415
0.313657
0.303491
0.293849
0.284675
0.275926
0.267586
0.361092
0.348044
0.335869
0.324472
0.31377
0.303682
0.29414
0.285082
0.276461
0.268256
0.361092
0.348044
0.335869
0.324472
0.31377
0.303682
0.29414
0.285083
0.276464
0.268263
0.361091
0.348038
0.335846
0.324415
0.313657
0.303491
0.29385
0.284679
0.275934
0.267608
0.361089
0.348017
0.335776
0.324252
0.313351
0.302996
0.293128
0.283703
0.274692
0.266104
0.36108
0.347959
0.335596
0.323861
0.312665
0.301947
0.29167
0.281815
0.272374
0.263382
0.36106
0.347815
0.335174
0.32301
0.311263
0.299919
0.288988
0.278489
0.268445
0.258922
0.361043
0.347525
0.334313
0.321345
0.308658
0.296332
0.284452
0.273094
0.262316
0.252225
0.361226
0.347225
0.332968
0.318646
0.304521
0.290839
0.277804
0.265573
0.254247
0.24396
0.363118
0.348806
0.33321
0.317377
0.301987
0.287544
0.274422
0.26288
0.253052
0.244945
0.375797
0.368589
0.360625
0.353238
0.346761
0.341566
0.338004
0.336335
0.336707
0.338737
0.534577
0.677513
0.790396
0.871255
0.923602
0.953075
0.96552
0.966058
0.958797
0.946653
1.24495
1.54696
1.83519
2.09469
2.31161
2.47898
2.60018
2.68367
2.74014
2.78003
2.81206
2.84259
2.87531
2.91185
2.95242
2.99637
3.04257
3.08964
3.13608
3.18033
3.2208
3.25588
3.28396
3.30353
3.31327
3.31217
3.29961
3.2755
3.24027
3.1949
3.14089
3.08021
3.01523
2.94864
2.8834
2.82264
2.76968
2.72794
2.70094
2.69225
2.70532
2.74323
2.80829
2.90148
3.02191
3.16653
3.33021
3.50625
3.68717
3.86565
4.03521
4.19065
4.32827
4.44575
4.54201
4.61698
4.67133
4.7062
4.72297
4.72332
4.70912
4.682
4.64354
4.59518
4.53822
4.47382
4.40304
4.32678
4.24589
4.16112
4.07314
3.9826
3.89008
3.79614
3.70135
3.60624
3.51135
3.41723
3.32444
3.23354
3.14511
3.05974
2.978
2.90052
2.82793
2.76098
2.70051
2.6476
2.60362
2.57049
2.55102
2.54957
2.5735
2.63615
2.76263
2.99957
3.4245
4.13536
5.22591
3.76332
0.357605
0.388156
0.434982
0.504906
0.59938
0.717507
0.855049
1.00602
1.1635
1.32043
1.47067
1.60977
1.73532
1.8468
1.94511
2.03196
2.10929
2.17877
2.24159
2.29831
2.34888
2.39281
2.42928
2.45735
2.4761
2.48481
2.48307
2.47089
2.4487
2.41741
2.37835
2.33324
2.28415
2.2334
2.18352
2.1372
2.09729
2.06677
2.04882
2.04679
2.06422
2.10468
2.1714
2.26678
2.39161
2.54445
2.72135
2.91605
3.12085
3.32755
3.52847
3.71714
3.88863
4.03961
4.16821
4.27379
4.35664
4.41774
4.45834
4.48053
4.48603
4.47658
4.45384
4.41943
4.3748
4.3213
4.26013
4.19237
4.119
4.04089
3.95883
3.87358
3.78579
3.69612
3.60518
3.51356
3.42186
3.33067
3.24056
3.15215
3.06603
2.9828
2.90307
2.82747
2.75666
2.6914
2.63254
2.58118
2.53871
2.50708
2.48909
2.48913
2.51454
2.57862
2.70658
2.94595
3.37564
4.10009
5.11291
4.32602
0.244125
0.24363
0.244703
0.248118
0.254813
0.265766
0.28288
0.307766
0.341773
0.385951
0.440832
0.506265
0.581357
0.664531
0.753675
0.846353
0.940043
1.03234
1.12111
1.20458
1.28134
1.35033
1.41073
1.46192
1.50347
1.5351
1.55676
1.56864
1.57122
1.5653
1.55198
1.53267
1.50903
1.48292
1.45633
1.43141
1.4104
1.39573
1.38999
1.39612
1.41741
1.45758
1.52062
1.61033
1.72964
1.87959
2.05851
2.26175
2.4821
2.71092
2.93935
3.15937
3.36449
3.54997
3.71279
3.85144
3.96564
4.05599
4.12364
4.17091
4.19936
4.21073
4.20679
4.18925
4.15976
4.11982
4.0708
4.01394
3.95036
3.88108
3.80701
3.72899
3.64781
3.56417
3.47876
3.39223
3.30523
3.21837
3.13229
3.0476
2.96494
2.88492
2.80817
2.73533
2.66709
2.60421
2.54756
2.49824
2.45765
2.4277
2.41117
2.41232
2.43825
2.5017
2.62668
2.8586
3.27175
3.96117
4.85601
4.57492
0.24097
0.238145
0.235523
0.233186
0.231238
0.229797
0.229038
0.229288
0.230857
0.234109
0.239464
0.247394
0.258406
0.273011
0.291684
0.314799
0.342569
0.374971
0.411704
0.452162
0.495442
0.540386
0.585655
0.629824
0.671491
0.709384
0.742464
0.769999
0.791611
0.807286
0.81736
0.822484
0.823565
0.821715
0.818201
0.81441
0.811845
0.812147
0.817165
0.829068
0.850496
0.884736
0.935829
1.00848
1.1076
1.23727
1.39941
1.59261
1.81177
2.04882
2.29412
2.53801
2.77201
2.98944
3.18558
3.3576
3.50424
3.62543
3.72237
3.79719
3.85117
3.88597
3.90339
3.90527
3.89336
3.86933
3.83471
3.79091
3.73919
3.6807
3.61649
3.54751
3.47462
3.39864
3.32031
3.24035
3.15945
3.07827
2.99746
2.91769
2.83959
2.76381
2.69099
2.62179
2.5569
2.49709
2.44325
2.39646
2.3581
2.33003
2.31492
2.31683
2.3424
2.40337
2.5216
2.73816
3.11929
3.74523
4.53383
4.54847
0.249094
0.24616
0.243296
0.240519
0.237847
0.235299
0.232906
0.230708
0.228755
0.22711
0.225845
0.225044
0.224802
0.225228
0.226444
0.228583
0.231786
0.236196
0.241944
0.24914
0.257849
0.268072
0.279725
0.292623
0.306478
0.320906
0.335458
0.349659
0.363062
0.375292
0.386095
0.39536
0.403131
0.409605
0.415121
0.420143
0.425262
0.431199
0.438848
0.449354
0.464239
0.485607
0.516411
0.560736
0.623934
0.712271
0.831761
0.986246
1.17553
1.3947
1.63496
1.88562
2.13596
2.37671
2.60065
2.80285
2.98039
3.13203
3.25945
3.36333
3.44466
3.50492
3.54585
3.56933
3.57719
3.57123
3.55312
3.52441
3.4865
3.44069
3.38814
3.32992
3.26699
3.20024
3.1305
3.05855
2.98511
2.91091
2.83662
2.76292
2.69049
2.61996
2.55202
2.48732
2.42658
2.37056
2.32014
2.27638
2.24063
2.21468
2.20103
2.20347
2.22803
2.28519
2.39405
2.59007
2.9298
3.47814
4.16652
4.34148
0.255959
0.253166
0.250418
0.247721
0.245079
0.242499
0.239987
0.237548
0.235193
0.232935
0.230793
0.228785
0.226933
0.225264
0.223805
0.222585
0.221637
0.220995
0.220692
0.220761
0.221233
0.222133
0.223475
0.225263
0.227483
0.230101
0.233065
0.236302
0.239726
0.243245
0.246772
0.250234
0.253583
0.256804
0.259922
0.263008
0.266181
0.269626
0.273608
0.278504
0.284874
0.293562
0.30588
0.323909
0.350916
0.391832
0.453444
0.543669
0.669409
0.833561
1.03308
1.2595
1.50128
1.74649
1.98463
2.20751
2.4095
2.58881
2.74506
2.87751
2.9865
3.07308
3.13878
3.18535
3.21463
3.22847
3.22862
3.21675
3.19439
3.16295
3.12371
3.07783
3.02638
2.97034
2.9106
2.84801
2.78334
2.71735
2.65076
2.58425
2.51853
2.45425
2.3921
2.33276
2.27694
2.22539
2.179
2.1388
2.10607
2.0825
2.07043
2.07329
2.09646
2.14899
2.24703
2.4199
2.71406
3.18041
3.76937
4.01796
0.260606
0.257966
0.255363
0.252799
0.250277
0.247798
0.245362
0.24297
0.240625
0.238331
0.236093
0.233915
0.231807
0.229774
0.227827
0.225974
0.224227
0.222598
0.221097
0.219736
0.218528
0.217483
0.21661
0.215916
0.215404
0.215075
0.214925
0.214943
0.215117
0.215427
0.215854
0.216376
0.216971
0.217625
0.218326
0.219075
0.219885
0.220789
0.221844
0.223146
0.22485
0.227202
0.230609
0.235749
0.243789
0.256738
0.278007
0.313042
0.369556
0.456376
0.58038
0.742894
0.938275
1.15572
1.38246
1.60645
1.82002
2.01836
2.19722
2.35423
2.48848
2.60018
2.69028
2.76018
2.81154
2.84612
2.86567
2.8719
2.8664
2.85067
2.82608
2.79389
2.75524
2.7112
2.66271
2.61069
2.55595
2.49929
2.44146
2.38317
2.32513
2.26803
2.21254
2.15935
2.10917
2.06277
2.021
1.98484
1.95553
1.93464
1.92432
1.92762
1.94924
1.99682
2.08356
2.23284
2.48137
2.86808
3.35988
3.62729
0.263476
0.260958
0.258474
0.256023
0.253608
0.251228
0.248882
0.24657
0.244294
0.242053
0.239849
0.237686
0.235564
0.233488
0.23146
0.229484
0.227566
0.225711
0.223923
0.22221
0.220578
0.219032
0.21758
0.216226
0.214977
0.213834
0.212801
0.211876
0.211057
0.210338
0.209711
0.209164
0.208686
0.208262
0.207878
0.207522
0.207187
0.206868
0.206571
0.206316
0.206139
0.206108
0.206336
0.207017
0.208489
0.211353
0.216695
0.226483
0.244173
0.27537
0.327901
0.410226
0.52794
0.680342
0.859536
1.05564
1.25812
1.45711
1.64508
1.81695
1.96967
2.10187
2.21336
2.30477
2.37724
2.43221
2.47126
2.496
2.508
2.50877
2.49972
2.48215
2.45728
2.42621
2.38997
2.34949
2.30564
2.25926
2.2111
2.16192
2.11241
2.06328
2.01522
1.9689
1.92504
1.88438
1.84775
1.81611
1.7906
1.77269
1.7643
1.76815
1.78824
1.8309
1.90664
2.03347
2.23931
2.55311
2.95387
3.20824
0.265081
0.262644
0.26024
0.257868
0.255528
0.253218
0.250939
0.248689
0.246469
0.244278
0.242118
0.239989
0.237892
0.235827
0.233798
0.231805
0.229851
0.22794
0.226074
0.224257
0.222494
0.220789
0.219147
0.217571
0.216066
0.214635
0.213282
0.212006
0.210806
0.20968
0.20862
0.20762
0.206668
0.205751
0.204855
0.203968
0.203075
0.202166
0.201233
0.200276
0.199301
0.198325
0.197381
0.196528
0.195866
0.195566
0.195942
0.197563
0.201494
0.20969
0.225569
0.254531
0.303694
0.379936
0.487309
0.624406
0.783939
0.956038
1.1309
1.3004
1.45861
1.60171
1.72763
1.83558
1.92571
1.99875
2.0558
2.09817
2.12725
2.14444
2.15108
2.14848
2.13785
2.12031
2.09692
2.06863
2.03636
2.00093
1.96314
1.92373
1.88343
1.84292
1.8029
1.76404
1.72705
1.69263
1.6616
1.63486
1.61348
1.59879
1.59252
1.59704
1.61575
1.65376
1.71929
1.82579
1.9937
2.24382
2.56319
2.78835
0.265792
0.263396
0.261031
0.258698
0.256395
0.25412
0.251873
0.249654
0.247462
0.245296
0.243157
0.241044
0.238957
0.236898
0.234867
0.232865
0.230894
0.228956
0.227052
0.225186
0.22336
0.221578
0.219843
0.21816
0.21653
0.214957
0.213443
0.211989
0.210593
0.209252
0.207961
0.206713
0.205498
0.204304
0.203118
0.201926
0.200717
0.199477
0.198198
0.196874
0.195504
0.194091
0.192648
0.191195
0.189766
0.188417
0.187241
0.186403
0.1862
0.187193
0.190427
0.197805
0.212555
0.239625
0.285629
0.355735
0.451684
0.570627
0.706006
0.849682
0.993899
1.13239
1.26069
1.37601
1.47688
1.56284
1.63412
1.69139
1.73561
1.76788
1.78935
1.80118
1.80452
1.80044
1.78997
1.77407
1.75363
1.72948
1.70243
1.6732
1.64252
1.61107
1.57952
1.54854
1.51879
1.49099
1.46588
1.44431
1.42728
1.41598
1.41196
1.41726
1.43472
1.46848
1.5248
1.61352
1.74904
1.94569
2.19542
2.38537
0.2658
0.263405
0.26104
0.258706
0.256401
0.254124
0.251873
0.249649
0.24745
0.245276
0.243125
0.240999
0.238897
0.236819
0.234765
0.232736
0.230732
0.228756
0.226809
0.224893
0.223011
0.221164
0.219355
0.217589
0.215866
0.21419
0.212561
0.21098
0.209447
0.207957
0.206506
0.205087
0.203691
0.202307
0.200925
0.19953
0.198113
0.196662
0.195168
0.193626
0.192033
0.19039
0.188702
0.186982
0.185244
0.183513
0.181823
0.180227
0.178812
0.177732
0.177271
0.177964
0.180813
0.187729
0.202014
0.227914
0.269929
0.331236
0.4122
0.509929
0.619141
0.733668
0.847753
0.956774
1.05745
1.14771
1.22649
1.29347
1.34885
1.39315
1.42714
1.4517
1.46773
1.4762
1.47801
1.47405
1.46517
1.45217
1.43581
1.4168
1.39584
1.37358
1.35066
1.32772
1.30541
1.28437
1.26533
1.24904
1.23643
1.22857
1.2268
1.23288
1.24919
1.27901
1.32713
1.40058
1.50919
1.66237
1.85479
2.00973
0.265106
0.262672
0.260269
0.257895
0.25555
0.253232
0.250941
0.248675
0.246434
0.244217
0.242024
0.239853
0.237706
0.23558
0.233477
0.231398
0.229342
0.22731
0.225305
0.223326
0.221378
0.219461
0.217578
0.215731
0.213922
0.212154
0.210427
0.208742
0.207097
0.20549
0.203916
0.202368
0.200839
0.19932
0.1978
0.196269
0.194716
0.193133
0.191511
0.189847
0.188137
0.186382
0.184587
0.182758
0.180908
0.179049
0.1772
0.175384
0.173633
0.171994
0.170544
0.169422
0.16889
0.169503
0.172357
0.179206
0.192613
0.215708
0.251454
0.30159
0.365826
0.441762
0.525542
0.612805
0.699489
0.782297
0.858842
0.92759
0.987718
1.03895
1.08139
1.11543
1.14161
1.1606
1.17311
1.17986
1.18157
1.17897
1.17272
1.16349
1.15192
1.1386
1.12413
1.10911
1.09411
1.07975
1.06666
1.05554
1.04721
1.04261
1.04291
1.04961
1.06468
1.09075
1.13145
1.19179
1.2783
1.39684
1.54357
1.66707
0.263523
0.261011
0.258529
0.256078
0.253655
0.251261
0.248895
0.246554
0.24424
0.24195
0.239685
0.237444
0.235226
0.233031
0.23086
0.228712
0.226589
0.22449
0.222417
0.220371
0.218354
0.216369
0.214416
0.212499
0.210619
0.208778
0.206977
0.205217
0.203496
0.201812
0.200163
0.198541
0.196941
0.195356
0.193775
0.192192
0.190596
0.188982
0.187342
0.185672
0.18397
0.182236
0.180472
0.178683
0.176876
0.17506
0.173247
0.171449
0.169683
0.167969
0.166333
0.164814
0.163478
0.162474
0.162104
0.162882
0.16569
0.171903
0.183379
0.202219
0.230246
0.268373
0.316189
0.371981
0.433151
0.496783
0.560132
0.620914
0.67742
0.728504
0.773509
0.812162
0.844486
0.87071
0.891207
0.906439
0.916923
0.923199
0.925818
0.925326
0.92226
0.917145
0.910498
0.902831
0.894661
0.886515
0.878955
0.87259
0.868117
0.866353
0.868298
0.875215
0.888726
0.910954
0.944683
0.993503
1.06173
1.15282
1.26378
1.3607
0.260683
0.258054
0.255458
0.252894
0.250363
0.247863
0.245394
0.242954
0.240545
0.238164
0.235811
0.233486
0.231189
0.228919
0.226677
0.224463
0.222277
0.22012
0.217994
0.2159
0.213839
0.211814
0.209828
0.207882
0.205979
0.204121
0.202311
0.200548
0.198833
0.197166
0.195543
0.193962
0.192418
0.190905
0.189417
0.187948
0.186492
0.185041
0.18359
0.182135
0.180671
0.179196
0.177708
0.176207
0.174694
0.173171
0.171642
0.170114
0.168593
0.167091
0.16562
0.164196
0.162843
0.161625
0.160651
0.160041
0.160019
0.160976
0.163554
0.16869
0.177593
0.191577
0.211745
0.238644
0.272027
0.310856
0.353517
0.398149
0.442939
0.486327
0.527097
0.564393
0.597681
0.626699
0.651395
0.671877
0.688365
0.70116
0.71061
0.717094
0.721008
0.722753
0.722736
0.721366
0.719062
0.716255
0.713405
0.711016
0.709662
0.710022
0.712928
0.719421
0.730838
0.748889
0.775743
0.81404
0.866685
0.935698
1.01868
1.09375
0.256074
0.2533
0.250564
0.247868
0.245211
0.242594
0.240016
0.237477
0.234976
0.232513
0.230088
0.227701
0.225351
0.223039
0.220766
0.218531
0.216337
0.214184
0.212074
0.21001
0.207994
0.206029
0.204118
0.202266
0.200476
0.198752
0.197097
0.195515
0.194009
0.19258
0.191229
0.189957
0.188762
0.187641
0.186592
0.185611
0.184692
0.183829
0.183016
0.182243
0.181503
0.180787
0.180083
0.179384
0.178678
0.177959
0.17722
0.176457
0.175668
0.174855
0.174024
0.173185
0.172357
0.171623
0.171071
0.170723
0.170617
0.170832
0.171515
0.17291
0.175402
0.179535
0.186003
0.195564
0.208892
0.226393
0.248057
0.273417
0.301618
0.331577
0.362155
0.392304
0.42115
0.448032
0.4725
0.494288
0.513288
0.529509
0.543053
0.554086
0.562819
0.569494
0.574374
0.577741
0.57989
0.581134
0.581815
0.582314
0.583072
0.584622
0.587621
0.592908
0.601558
0.614949
0.634799
0.66312
0.701977
0.752643
0.813308
0.870372
0.24923
0.246319
0.243461
0.240659
0.237913
0.235225
0.232595
0.230023
0.227509
0.225053
0.222656
0.220318
0.21804
0.215824
0.213671
0.211583
0.209562
0.207612
0.205737
0.203941
0.202228
0.200606
0.19908
0.197658
0.196348
0.195156
0.194092
0.193164
0.192378
0.191743
0.191263
0.190943
0.190785
0.190791
0.190958
0.191282
0.191755
0.192368
0.193107
0.193956
0.194897
0.195909
0.196971
0.198061
0.199158
0.200243
0.2013
0.202314
0.203278
0.204184
0.205034
0.205831
0.206603
0.207486
0.208513
0.209656
0.210896
0.21223
0.21367
0.21526
0.217078
0.219256
0.221983
0.225522
0.230197
0.236378
0.244429
0.254636
0.267135
0.28186
0.298528
0.316678
0.335735
0.355089
0.374163
0.392465
0.409608
0.425318
0.439425
0.451848
0.462577
0.471655
0.47917
0.485237
0.490003
0.493637
0.49634
0.498353
0.499969
0.501561
0.503614
0.506762
0.511847
0.519961
0.532475
0.550987
0.57709
0.611767
0.653852
0.695579
0.240959
0.238081
0.235292
0.232598
0.230001
0.227503
0.225106
0.22281
0.220617
0.218529
0.216549
0.214677
0.212919
0.211277
0.209756
0.208362
0.207101
0.205979
0.205006
0.204189
0.203541
0.203071
0.202791
0.202716
0.202856
0.203227
0.203839
0.204707
0.205838
0.207243
0.208926
0.21089
0.213132
0.215648
0.218427
0.221453
0.224709
0.22817
0.231812
0.235606
0.239523
0.243533
0.247608
0.25172
0.255847
0.259968
0.264067
0.268132
0.272151
0.276117
0.280021
0.283857
0.287658
0.291491
0.29515
0.298574
0.301727
0.304596
0.307191
0.309541
0.311694
0.313715
0.315688
0.317713
0.319911
0.322417
0.325382
0.32896
0.333301
0.33853
0.344737
0.351952
0.360136
0.369182
0.378913
0.389105
0.399505
0.409854
0.419905
0.429436
0.438262
0.446232
0.453236
0.459198
0.464077
0.467869
0.470601
0.47235
0.473242
0.473475
0.473348
0.473289
0.473902
0.476008
0.48067
0.489155
0.502771
0.522453
0.547721
0.575011
0.242741
0.240806
0.239061
0.237493
0.23611
0.234914
0.233907
0.233092
0.232472
0.232051
0.231833
0.231823
0.232026
0.232449
0.233097
0.23398
0.235104
0.236478
0.238112
0.240015
0.242197
0.244667
0.247434
0.250507
0.25389
0.257589
0.261602
0.265928
0.270559
0.275483
0.280684
0.286141
0.291828
0.297716
0.303773
0.309966
0.316262
0.322628
0.329035
0.335457
0.341873
0.348269
0.354633
0.360962
0.367254
0.373511
0.379736
0.385931
0.392093
0.398211
0.404261
0.410211
0.416002
0.421212
0.425693
0.429435
0.432459
0.434817
0.436577
0.437821
0.438639
0.439124
0.439372
0.439479
0.439541
0.439657
0.43992
0.440426
0.441261
0.442505
0.444221
0.446459
0.449242
0.452569
0.456413
0.460715
0.465392
0.470337
0.475421
0.480504
0.485435
0.490062
0.494234
0.497808
0.500654
0.50266
0.503738
0.503834
0.502933
0.501079
0.498392
0.495095
0.491548
0.48828
0.486013
0.485645
0.488154
0.494366
0.504308
0.517121
0.339766
0.341326
0.343135
0.345132
0.347333
0.349747
0.352377
0.355222
0.358284
0.361561
0.365053
0.368755
0.372662
0.376767
0.381064
0.385542
0.390191
0.394997
0.399946
0.40502
0.410202
0.415468
0.420795
0.426156
0.431521
0.43686
0.442138
0.447322
0.452376
0.457267
0.461963
0.466436
0.470664
0.474631
0.478329
0.481761
0.484941
0.487894
0.490656
0.493273
0.495802
0.498308
0.500859
0.503523
0.506369
0.509456
0.512833
0.516534
0.520571
0.524936
0.529597
0.534319
0.538423
0.541623
0.543953
0.545481
0.546294
0.54649
0.546172
0.545442
0.5444
0.543137
0.541741
0.540293
0.538866
0.53753
0.536349
0.535384
0.534686
0.534304
0.534278
0.534637
0.535398
0.536568
0.538135
0.540071
0.542331
0.544853
0.547557
0.55035
0.553124
0.555767
0.558156
0.56017
0.561687
0.562594
0.562793
0.562202
0.560763
0.558452
0.555291
0.551366
0.546846
0.542002
0.537225
0.533025
0.529981
0.528649
0.52923
0.532072
0.942576
0.938234
0.933709
0.92901
0.924141
0.919119
0.913957
0.908664
0.903241
0.897688
0.892
0.886166
0.880174
0.874007
0.867643
0.86106
0.854231
0.847127
0.839716
0.831965
0.823839
0.815304
0.806325
0.796868
0.786901
0.776397
0.765334
0.753697
0.741478
0.728683
0.715328
0.701441
0.687068
0.672269
0.657118
0.641706
0.626139
0.610535
0.595021
0.579735
0.564818
0.550414
0.536663
0.523701
0.511653
0.500634
0.49074
0.482051
0.474625
0.468498
0.463685
0.460205
0.458146
0.457378
0.457744
0.459082
0.461238
0.46407
0.46745
0.471265
0.475418
0.479827
0.484418
0.489129
0.493908
0.498707
0.503486
0.508209
0.512845
0.51737
0.521762
0.526003
0.530083
0.533994
0.537734
0.541308
0.544727
0.548007
0.551174
0.554261
0.557311
0.560376
0.563523
0.566826
0.570378
0.574282
0.578659
0.583641
0.589379
0.596037
0.603796
0.612852
0.623415
0.635718
0.650014
0.666592
0.685776
0.707925
0.733426
0.762548
0.0211201
0.0493136
0.0774008
0.106583
0.136794
0.168109
0.200601
0.2343
0.269196
0.305229
0.342284
0.380198
0.418771
0.457775
0.49697
0.536108
0.574946
0.613246
0.650777
0.687324
0.72269
0.756721
0.789346
0.820673
0.851197
0.880369
0.907649
0.933002
0.956336
0.977518
0.996399
1.01282
1.02661
1.03758
1.04553
1.05032
1.05177
1.04978
1.04425
1.03518
1.02261
1.00658
0.987377
0.96525
0.940422
0.913968
0.887404
0.86768
0.848235
0.827917
0.806828
0.785182
0.763225
0.741174
0.719235
0.697576
0.676347
0.655661
0.635625
0.616333
0.597864
0.580284
0.564182
0.548886
0.534301
0.520422
0.507245
0.494756
0.482933
0.471747
0.461159
0.451128
0.441607
0.432542
0.423875
0.415548
0.407493
0.399648
0.391939
0.384299
0.376651
0.368922
0.361027
0.352888
0.34441
0.335501
0.326048
0.315929
0.304966
0.292886
0.279209
0.263302
0.244853
0.227991
0.21272
0.193679
0.166644
0.133566
0.108887
0.0997153
0.0471592
0.0968779
0.14694
0.198038
0.251486
0.307544
0.36634
0.42789
0.492158
0.559039
0.62834
0.699785
0.77302
0.847634
0.923186
0.999225
1.07531
1.15103
1.226
1.29985
1.37225
1.4429
1.51155
1.57801
1.64216
1.70299
1.76101
1.81619
1.86839
1.9174
1.96292
2.00463
2.04213
2.07498
2.1027
2.12482
2.14085
2.15038
2.15301
2.14851
2.13672
2.11762
2.09141
2.05832
2.01865
1.97352
1.92484
1.87508
1.82373
1.77119
1.71807
1.66495
1.61235
1.56073
1.51049
1.46193
1.41531
1.37083
1.32862
1.28879
1.25145
1.21668
1.18363
1.15253
1.12339
1.09618
1.0708
1.04715
1.02508
1.00449
0.985208
0.967107
0.95003
0.933827
0.918337
0.903408
0.888879
0.8746
0.860411
0.846166
0.831714
0.816911
0.80161
0.785678
0.76897
0.751358
0.732698
0.712839
0.691569
0.668553
0.643147
0.614271
0.582058
0.548252
0.509941
0.462195
0.396036
0.312641
0.229744
0.177098
0.0652129
0.135858
0.200041
0.265402
0.333841
0.405765
0.481341
0.560571
0.643387
0.729636
0.819063
0.911299
1.00587
1.10221
1.19972
1.29775
1.39568
1.49293
1.58895
1.68326
1.77542
1.86501
1.95172
2.03529
2.11501
2.19055
2.26217
2.32991
2.39366
2.45323
2.50836
2.55871
2.60391
2.64348
2.67687
2.70356
2.72296
2.73457
2.73789
2.73259
2.71841
2.69531
2.66337
2.62274
2.57451
2.52074
2.46277
2.40207
2.339
2.27436
2.20899
2.14362
2.07892
2.01546
1.95371
1.89408
1.83686
1.78228
1.73053
1.68173
1.63597
1.59312
1.55258
1.51445
1.47871
1.44525
1.41396
1.38468
1.35724
1.33147
1.30721
1.28425
1.26242
1.24153
1.22139
1.20181
1.1826
1.1636
1.14463
1.12552
1.10611
1.08626
1.06582
1.04467
1.02268
0.999754
0.975786
0.950672
0.924266
0.896319
0.866298
0.833216
0.796545
0.756188
0.710107
0.650289
0.565552
0.456596
0.335872
0.231575
0.0799472
0.166682
0.240257
0.315278
0.394118
0.477282
0.564948
0.657096
0.753631
0.854375
0.959035
1.06718
1.17824
1.29154
1.4063
1.52171
1.63696
1.75129
1.864
1.97446
2.08209
2.18638
2.28688
2.38325
2.4743
2.56015
2.64098
2.71686
2.78778
2.85364
2.91427
2.96941
3.01878
3.06195
3.09841
3.12767
3.1491
3.16219
3.16634
3.16117
3.14626
3.12155
3.08687
3.0432
2.99195
2.93461
2.87233
2.80623
2.73705
2.66584
2.59356
2.52108
2.44917
2.37848
2.30958
2.24292
2.17886
2.11769
2.0596
2.00476
1.95329
1.90474
1.85891
1.81579
1.77528
1.73726
1.70157
1.66802
1.63643
1.60659
1.5783
1.55134
1.52551
1.5006
1.4764
1.4527
1.42932
1.40607
1.38278
1.35928
1.33543
1.31109
1.28613
1.26047
1.23402
1.20672
1.17851
1.14934
1.11916
1.08778
1.05476
1.01914
0.979811
0.935362
0.883005
0.816012
0.722426
0.599771
0.451626
0.287941
0.0918685
0.190723
0.270754
0.35257
0.439051
0.530778
0.627915
0.730421
0.838189
0.951035
1.06865
1.19056
1.31612
1.44453
1.57486
1.70611
1.83726
1.96737
2.09553
2.22096
2.3429
2.46067
2.57365
2.68126
2.78211
2.87648
2.96457
3.04655
3.12252
3.19251
3.25647
3.31433
3.36596
3.41106
3.44923
3.48009
3.50305
3.51759
3.52308
3.51905
3.50496
3.48063
3.44649
3.4035
3.35266
3.29515
3.23192
3.16395
3.09215
3.01768
2.94162
2.86493
2.78847
2.71301
2.63917
2.56748
2.49838
2.43219
2.36916
2.30949
2.25327
2.2
2.14966
2.10217
2.05742
2.01526
1.9755
1.93794
1.90236
1.86854
1.83625
1.80525
1.77533
1.74626
1.71783
1.68983
1.66207
1.63437
1.60656
1.57851
1.55009
1.52118
1.4917
1.46159
1.43082
1.39937
1.36724
1.33444
1.30097
1.26672
1.2313
1.19373
1.15244
1.1051
1.04802
0.974951
0.876239
0.749026
0.581378
0.34902
0.101334
0.20903
0.293433
0.379959
0.472067
0.570418
0.675168
0.786267
0.903617
1.02705
1.15624
1.29071
1.42973
1.5724
1.71761
1.86416
2.01081
2.15637
2.29972
2.43986
2.57585
2.70681
2.83186
2.95
3.05984
3.16169
3.25585
3.34256
3.42208
3.49459
3.56022
3.61912
3.67142
3.717
3.75565
3.78723
3.81117
3.82706
3.83426
3.83215
3.82036
3.7989
3.7681
3.72856
3.68093
3.62607
3.56475
3.49781
3.42623
3.3512
3.27386
3.19525
3.11633
3.03793
2.96079
2.8855
2.81257
2.7424
2.6753
2.61148
2.55099
2.49345
2.43888
2.3872
2.33828
2.29196
2.24802
2.20626
2.16644
2.12832
2.09165
2.05621
2.02174
1.98804
1.95489
1.92209
1.88946
1.85684
1.8241
1.7911
1.75776
1.724
1.68978
1.65509
1.61995
1.58439
1.54847
1.51225
1.47579
1.43903
1.40162
1.36255
1.31998
1.27094
1.21095
1.13383
1.03167
0.901752
0.726426
0.417985
0.108635
0.222396
0.309558
0.399148
0.49526
0.598667
0.70954
0.827848
0.953531
1.08645
1.2263
1.37255
1.52445
1.68094
1.84077
2.0025
2.16462
2.32567
2.48428
2.63922
2.78931
2.93344
3.07046
3.19862
3.31684
3.42543
3.5247
3.61502
3.69681
3.77039
3.83612
3.89445
3.9458
3.99033
4.0281
4.05925
4.08339
4.10019
4.10919
4.10979
4.10188
4.08525
4.05992
4.02609
3.98407
3.93435
3.87751
3.81423
3.74545
3.6723
3.59597
3.51753
3.43802
3.35836
3.27936
3.20172
3.12602
3.05272
2.9822
2.91471
2.85031
2.78872
2.73001
2.67412
2.62091
2.5702
2.52179
2.47546
2.43095
2.38804
2.34646
2.30599
2.2664
2.22747
2.18899
2.15081
2.11275
2.07468
2.03649
1.99811
1.95947
1.92055
1.88136
1.84194
1.80236
1.76272
1.72311
1.68365
1.64446
1.60553
1.56655
1.52656
1.48357
1.43423
1.37351
1.29509
1.19215
1.06131
0.881198
0.499084
0.114023
0.231485
0.320081
0.411379
0.510129
0.617263
0.73301
0.857397
0.990433
1.13203
1.28189
1.43946
1.6039
1.77404
1.94843
2.12542
2.30312
2.47981
2.65384
2.82368
2.98791
3.14517
3.29401
3.43158
3.55758
3.67215
3.77562
3.86847
3.95128
4.02452
4.08876
4.14482
4.19351
4.23529
4.27057
4.29983
4.32305
4.34006
4.35076
4.35473
4.35167
4.34116
4.32286
4.29656
4.26219
4.21987
4.16987
4.11268
4.0491
3.98018
3.90705
3.83081
3.75255
3.67326
3.59384
3.51506
3.4376
3.36199
3.28868
3.218
3.14996
3.0845
3.0217
2.96152
2.90384
2.84848
2.79524
2.74391
2.69424
2.64601
2.59896
2.55289
2.50757
2.46282
2.41845
2.37432
2.33031
2.2863
2.24224
2.19809
2.15383
2.1095
2.06517
2.02092
1.97689
1.93321
1.89005
1.84758
1.80596
1.76525
1.72521
1.68497
1.64259
1.59457
1.53565
1.45931
1.35929
1.23057
1.04527
0.585138
0.11773
0.236895
0.325807
0.417674
0.517903
0.627642
0.74723
0.876803
1.01648
1.16624
1.32575
1.49442
1.67131
1.8551
2.04415
2.23653
2.42996
2.62237
2.81183
2.9965
3.17468
3.3447
3.50446
3.65088
3.78385
3.90348
4.01012
4.10432
4.18684
4.25826
4.31938
4.37143
4.41558
4.45277
4.48377
4.50944
4.5304
4.54685
4.55886
4.56613
4.56822
4.56449
4.55426
4.53689
4.51187
4.4789
4.4379
4.38908
4.33301
4.27057
4.2028
4.13079
4.05563
3.97837
3.89998
3.82133
3.74317
3.66613
3.59072
3.51735
3.44602
3.3769
3.31011
3.24561
3.18331
3.12307
3.0647
3.00801
2.95276
2.89876
2.84577
2.7936
2.74207
2.69101
2.64028
2.58977
2.53939
2.48909
2.43884
2.38866
2.33859
2.28872
2.23916
2.19008
2.14165
2.09407
2.04755
2.00232
1.9586
1.91654
1.87601
1.8363
1.79567
1.75077
1.69645
1.62616
1.53373
1.41141
1.2205
0.676476
0.119977
0.239183
0.327466
0.418963
0.519721
0.631172
0.753826
0.887993
1.03394
1.19172
1.36087
1.54073
1.73022
1.92784
2.1317
2.33967
2.54884
2.75685
2.96143
3.16043
3.35186
3.53369
3.70292
3.85698
3.99567
4.11909
4.22757
4.32171
4.40245
4.47048
4.5268
4.57305
4.61077
4.64139
4.66638
4.68698
4.7043
4.71897
4.73132
4.74119
4.74812
4.75126
4.74961
4.74212
4.72779
4.70585
4.67579
4.63744
4.59107
4.53732
4.47707
4.41132
4.34116
4.26766
4.19185
4.11468
4.03698
3.95947
3.88273
3.80725
3.73314
3.66071
3.59011
3.52137
3.45445
3.38922
3.32555
3.26326
3.20217
3.14209
3.08283
3.02424
2.96617
2.90849
2.85111
2.79394
2.73697
2.68017
2.62357
2.56726
2.51131
2.45589
2.40116
2.34734
2.29465
2.24336
2.19372
2.14603
2.10059
2.05763
2.0172
1.97883
1.94114
1.90126
1.85451
1.79467
1.71544
1.60512
1.40983
0.775673
0.120981
0.238881
0.325762
0.416163
0.516758
0.629344
0.754665
0.893266
1.0456
1.21177
1.39105
1.58261
1.78516
1.99694
2.21581
2.43947
2.66413
2.88718
3.10601
3.31812
3.52123
3.71269
3.88925
4.049
4.1915
4.31691
4.42547
4.5178
4.59485
4.65766
4.70761
4.7465
4.77624
4.79879
4.81612
4.83
4.84205
4.85337
4.86463
4.87594
4.88686
4.89644
4.90342
4.90632
4.90367
4.89415
4.87674
4.85081
4.81624
4.77333
4.72273
4.66532
4.60212
4.53419
4.46261
4.38839
4.31244
4.23557
4.15845
4.08162
4.00536
3.9301
3.85605
3.78333
3.71194
3.64181
3.57284
3.50492
3.4379
3.37163
3.30599
3.24086
3.17612
3.11171
3.04757
2.98368
2.92006
2.85675
2.79383
2.73143
2.66971
2.60885
2.54911
2.49074
2.43403
2.37927
2.32681
2.27699
2.23019
2.18679
2.14704
2.1108
2.07723
2.04423
2.00809
1.96341
1.90382
1.81258
1.61579
0.888756
0.120961
0.236503
0.321418
0.410278
0.510395
0.624034
0.752215
0.89578
1.05538
1.23115
1.4217
1.62601
1.84243
2.06883
2.30272
2.54196
2.78127
3.018
3.24921
3.4721
3.68389
3.88096
4.06141
4.22388
4.36772
4.49281
4.59934
4.68793
4.7596
4.81562
4.85762
4.88763
4.90793
4.9209
4.92898
4.93451
4.93957
4.94581
4.95434
4.96557
4.97926
4.99446
5.00969
5.02313
5.03279
5.03678
5.03351
5.0218
5.00102
4.97106
4.93227
4.88533
4.83112
4.77069
4.70511
4.63545
4.5627
4.48775
4.41136
4.33414
4.25656
4.17915
4.10222
4.02597
3.95047
3.87572
3.80169
3.72832
3.65552
3.5832
3.51128
3.43969
3.36839
3.29735
3.22658
3.1561
3.08598
3.01633
2.94728
2.87901
2.81174
2.74572
2.68123
2.6186
2.55815
2.50024
2.44526
2.39365
2.34587
2.30247
2.26393
2.23054
2.20216
2.17778
2.15518
2.13048
2.09772
2.03441
1.8409
1.03422
0.120138
0.232568
0.315243
0.402558
0.502513
0.617993
0.750269
0.900508
1.06947
1.25735
1.46126
1.67997
1.91133
2.15267
2.40105
2.65338
2.90513
3.1528
3.39302
3.6226
3.838
4.03639
4.21711
4.3788
4.52067
4.64246
4.74428
4.82677
4.89098
4.93838
4.97076
4.99037
4.9998
5.0018
4.99923
4.99489
4.99139
4.9909
4.99501
5.00458
5.01963
5.03935
5.06216
5.08594
5.10825
5.12661
5.13876
5.14291
5.13784
5.12292
5.09812
5.06382
5.02075
4.96985
4.9122
4.84888
4.78096
4.7094
4.63505
4.55862
4.48075
4.40209
4.32308
4.24398
4.16496