/*--------------------------------*- C++ -*----------------------------------*\
| =========                 |                                                 |
| \\      /  F ield         | OpenFOAM: The Open Source CFD Toolbox           |
|  \\    /   O peration     | Version:  2.4.0                                 |
|   \\  /    A nd           | Web:      www.OpenFOAM.org                      |
|    \\/     M anipulation  |                                                 |
\*---------------------------------------------------------------------------*/
FoamFile
{
    version     2.0;
    format      ascii;
    class       volScalarField;
    location    "0.002";
    object      nut;
}
// * * * * * * * * * * * * * * * * * * * * * * * * * * * * * * * * * * * * * //

dimensions      [0 2 -1 0 0 0 0];

internalField   nonuniform List<scalar> 
4400
(
0.000205239
0.000231054
0.000249561
0.000262015
0.000269771
0.00027404
0.000275818
0.000275881
0.000274774
0.000273196
0.000714338
0.000477878
0.00036807
0.000306424
0.000269238
0.000246077
0.000231704
0.000223262
0.000219087
0.000216018
0.00134936
0.00107624
0.000881363
0.000741064
0.000638385
0.000561624
0.000503028
0.00045745
0.000420954
0.000387421
0.00158833
0.00145725
0.00132168
0.00119708
0.00108851
0.000995866
0.000917177
0.000850006
0.000791491
0.000736759
0.00165053
0.00160067
0.00153486
0.00146124
0.0013863
0.00131404
0.00124642
0.00118407
0.00112649
0.0010717
0.00166549
0.00164541
0.00161619
0.00157914
0.00153666
0.00149119
0.0014447
0.00139855
0.00135336
0.00130891
0.00166904
0.00165837
0.00164398
0.00162533
0.00160262
0.00157653
0.00154795
0.0015177
0.00148641
0.00145438
0.00166988
0.001662
0.00165292
0.00164207
0.00162911
0.00161395
0.00159675
0.00157774
0.0015572
0.00153541
0.00167008
0.00166299
0.00165567
0.00164779
0.00163902
0.00162911
0.0016179
0.00160535
0.00159147
0.00157637
0.00167013
0.00166324
0.00165644
0.00164952
0.00164223
0.00163433
0.00162559
0.00161586
0.00160504
0.00159318
0.00167013
0.00166324
0.00165644
0.00164952
0.00164223
0.00163433
0.0016256
0.00161588
0.0016051
0.00159337
0.00167008
0.00166299
0.00165567
0.00164779
0.00163902
0.00162911
0.00161792
0.00160542
0.00159167
0.00157702
0.00166988
0.001662
0.00165292
0.00164207
0.00162911
0.00161396
0.00159679
0.00157787
0.00155762
0.00153673
0.00166904
0.00165837
0.00164398
0.00162533
0.00160262
0.00157656
0.00154803
0.00151795
0.00148717
0.00145689
0.00166549
0.00164541
0.00161619
0.00157914
0.00153667
0.00149123
0.00144483
0.00139897
0.00135466
0.00131345
0.00165053
0.00160067
0.00153487
0.00146124
0.00138631
0.0013141
0.00124662
0.00118471
0.00112851
0.00107939
0.00158833
0.00145725
0.00132169
0.00119709
0.00108853
0.000995949
0.000917428
0.000850777
0.000794035
0.000747861
0.00134936
0.00107624
0.000881363
0.00074107
0.000638407
0.000561689
0.000503211
0.000457984
0.000422721
0.00039726
0.000714337
0.000477877
0.00036807
0.000306425
0.000269242
0.000246089
0.000231734
0.000223347
0.000219276
0.000219194
0.000205239
0.000231054
0.000249561
0.000262015
0.000269772
0.000274042
0.000275825
0.000275902
0.000274863
0.000273117
0.000350439
0.000447935
0.0005614
0.000683298
0.000805806
0.00092318
0.00103326
0.00113671
0.001236
0.00133424
0.00143433
0.00153855
0.00164822
0.00176386
0.00188551
0.00201283
0.00214525
0.002282
0.00242202
0.00256398
0.00270622
0.00284679
0.00298348
0.00311395
0.00323589
0.00334721
0.0034462
0.00353175
0.0036034
0.00366148
0.00370707
0.00374209
0.00376919
0.00379177
0.00381393
0.00384051
0.00387706
0.00393001
0.00400668
0.00411535
0.00426516
0.00446567
0.0047259
0.00505286
0.00544961
0.00591348
0.00643506
0.00699868
0.00758418
0.00816974
0.00873461
0.00926131
0.00973676
0.0101526
0.0105045
0.010792
0.0110167
0.0111825
0.0112938
0.011356
0.011375
0.011356
0.0113039
0.0112233
0.011118
0.0109917
0.0108476
0.0106883
0.0105162
0.0103337
0.0101425
0.0099444
0.00974099
0.00953372
0.00932395
0.009113
0.00890213
0.0086926
0.00848564
0.00828247
0.00808429
0.00789225
0.00770748
0.00753109
0.00736422
0.00720814
0.00706429
0.00693442
0.00682081
0.00672656
0.00665613
0.0066163
0.00661811
0.00668009
0.00683159
0.00710488
0.0074727
0.00765121
0.00684005
0.0020294
0.000218239
0.000227105
0.000246509
0.000278839
0.000326248
0.000389404
0.000467156
0.000557173
0.000656412
0.00076156
0.000869616
0.000978362
0.00108658
0.00119402
0.00130117
0.00140891
0.00151815
0.00162952
0.00174319
0.0018588
0.00197543
0.00209171
0.00220595
0.00231626
0.0024207
0.00251745
0.00260496
0.00268209
0.00274822
0.00280335
0.00284812
0.00288387
0.0029126
0.00293695
0.00296019
0.00298621
0.00301961
0.00306573
0.00313085
0.00322232
0.00334873
0.00351975
0.00374561
0.00403586
0.00439744
0.00483242
0.00533605
0.00589617
0.00649432
0.00710825
0.00771508
0.00829414
0.00882881
0.00930728
0.00972255
0.0100717
0.0103552
0.0105757
0.0107374
0.010846
0.010907
0.0109256
0.0109071
0.0108563
0.0107775
0.0106746
0.0105512
0.0104102
0.0102545
0.0100865
0.00990821
0.00972166
0.00952856
0.00933052
0.00912902
0.00892548
0.00872127
0.0085177
0.00831609
0.00811771
0.00792382
0.00773561
0.00755425
0.0073809
0.00721675
0.00706308
0.00692136
0.00679339
0.00668146
0.00658869
0.00651952
0.00648072
0.00648327
0.0065457
0.00669784
0.0069746
0.0073565
0.00759215
0.00693011
0.00310252
0.000377675
0.000367223
0.000357087
0.00034815
0.00034143
0.000338448
0.000339853
0.000347713
0.000364085
0.000390511
0.000427869
0.000476357
0.000535556
0.000604537
0.00068199
0.000766386
0.000856132
0.000949701
0.00104572
0.00114298
0.00124043
0.00133709
0.00143196
0.00152397
0.00161199
0.00169484
0.0017714
0.00184073
0.00190219
0.00195555
0.00200107
0.00203956
0.00207233
0.00210126
0.00212871
0.00215755
0.00219123
0.00223382
0.00229024
0.00236646
0.00246985
0.00260933
0.00279535
0.00303913
0.00335118
0.00373869
0.00420291
0.00473714
0.00532665
0.00595048
0.00658472
0.00720585
0.00779351
0.00833198
0.00881066
0.00922379
0.00956963
0.00984954
0.010067
0.0102277
0.0103364
0.0103984
0.010419
0.0104033
0.0103559
0.0102812
0.0101829
0.0100646
0.00992912
0.00977929
0.00961746
0.00944575
0.0092661
0.00908024
0.00888981
0.00869632
0.00850123
0.00830595
0.00811185
0.00792027
0.00773253
0.00754987
0.00737352
0.00720467
0.00704455
0.00689449
0.006756
0.00663087
0.00652142
0.00643072
0.00636313
0.00632524
0.00632765
0.00638816
0.00653569
0.00680555
0.00718571
0.00746092
0.00696335
0.00413371
0.000721037
0.000705543
0.000690291
0.000675399
0.000660719
0.000646223
0.000631833
0.000616297
0.000599765
0.000582849
0.000566607
0.000552458
0.000542013
0.000536867
0.000538399
0.000547643
0.000565216
0.000591311
0.000625717
0.000667853
0.000716809
0.000771404
0.000830242
0.000891786
0.000954447
0.00101667
0.00107704
0.00113435
0.00118772
0.00123658
0.00128079
0.00132058
0.00135661
0.0013899
0.00142184
0.00145419
0.00148909
0.00152918
0.00157774
0.00163899
0.00171843
0.00182333
0.00196313
0.00214945
0.0023953
0.00271293
0.00311061
0.00358924
0.00414036
0.00474671
0.00538499
0.00602972
0.00665684
0.00724628
0.00778315
0.00825795
0.00866609
0.00900697
0.00928337
0.00949995
0.00966066
0.00977045
0.0098346
0.00985837
0.00984672
0.00980425
0.00973513
0.0096431
0.0095315
0.00940329
0.00926112
0.00910732
0.00894402
0.00877313
0.00859641
0.00841549
0.00823192
0.0080472
0.00786276
0.00768002
0.00750033
0.00732501
0.00715532
0.00699251
0.00683786
0.00669272
0.00655862
0.00643738
0.00633127
0.0062433
0.00617768
0.00614069
0.00614225
0.0061989
0.0063375
0.00659204
0.00695782
0.00725857
0.00694215
0.00496938
0.00105559
0.00104005
0.00102503
0.00101067
0.000996944
0.000983829
0.000971342
0.000958721
0.000945719
0.000932082
0.000917572
0.000902006
0.000885299
0.000867514
0.000848912
0.000829976
0.000811408
0.000794083
0.000778972
0.000767034
0.000759117
0.000755867
0.000757664
0.00076459
0.000776434
0.000792723
0.000812778
0.000835797
0.000860941
0.000887418
0.000914567
0.000941908
0.000969182
0.000996367
0.00102368
0.00105159
0.00108083
0.00111244
0.00114791
0.00118937
0.00123992
0.00130416
0.0013889
0.00150391
0.00166237
0.00188013
0.00217297
0.00255204
0.00301921
0.00356486
0.00416923
0.00480642
0.00544904
0.00607212
0.00665547
0.00718472
0.00765137
0.00805211
0.00838914
0.00866412
0.00888007
0.00904139
0.0091531
0.00922048
0.00924864
0.00924243
0.00920632
0.00914434
0.00906014
0.00895694
0.00883766
0.00870486
0.00856085
0.00840773
0.00824739
0.0080816
0.00791199
0.00774014
0.00756757
0.00739575
0.00722608
0.00705993
0.00689863
0.00674347
0.00659576
0.00645691
0.00632844
0.00621218
0.00611035
0.00602587
0.00596274
0.00592681
0.00592717
0.00597871
0.00610549
0.00633882
0.00668067
0.00699381
0.00684648
0.00555198
0.00129556
0.00128264
0.00127005
0.00125788
0.0012462
0.00123504
0.00122444
0.00121412
0.00120405
0.00119416
0.00118439
0.00117462
0.00116477
0.00115471
0.00114433
0.00113355
0.0011223
0.00111056
0.00109838
0.00108588
0.00107326
0.00106081
0.00104888
0.00103788
0.00102823
0.00102033
0.00101451
0.00101101
0.00100995
0.00101132
0.00101504
0.0010209
0.00102869
0.00103815
0.00104904
0.00106116
0.0010744
0.00108874
0.00110437
0.00112176
0.00114184
0.00116631
0.00119818
0.0012426
0.00130812
0.00140804
0.00156088
0.00178796
0.00210713
0.00252511
0.00303326
0.00360976
0.00422548
0.0048502
0.00545701
0.00602487
0.0065399
0.00699631
0.00739191
0.00772531
0.00799798
0.00821327
0.00837564
0.00849008
0.00856169
0.00859544
0.008596
0.00856765
0.0085143
0.00843946
0.00834626
0.00823751
0.00811573
0.00798317
0.0078419
0.00769378
0.00754058
0.00738396
0.00722548
0.00706669
0.00690904
0.00675396
0.00660281
0.00645695
0.00631773
0.00618657
0.00606502
0.00595489
0.00585834
0.00577817
0.00571815
0.00568364
0.0056828
0.00572868
0.00584211
0.00605085
0.00636204
0.00667476
0.00666502
0.00587143
0.00144461
0.00143506
0.00142562
0.00141635
0.0014073
0.00139856
0.00139004
0.00138173
0.00137363
0.00136576
0.00135813
0.00135074
0.00134357
0.00133663
0.00132988
0.00132331
0.0013169
0.00131062
0.00130445
0.00129838
0.00129242
0.00128656
0.00128085
0.00127534
0.0012701
0.00126523
0.00126084
0.00125704
0.00125392
0.00125157
0.00125004
0.00124934
0.00124943
0.00125024
0.00125165
0.00125353
0.00125572
0.0012581
0.00126057
0.00126311
0.00126585
0.00126913
0.00127366
0.0012809
0.00129359
0.00131691
0.00136042
0.00144029
0.0015801
0.00180605
0.00213599
0.00256941
0.00308649
0.00365568
0.00424284
0.00481806
0.00536183
0.00586151
0.00630751
0.00669492
0.00702257
0.00729196
0.00750637
0.00767011
0.00778792
0.00786468
0.00790511
0.00791363
0.00789435
0.007851
0.00778695
0.0077052
0.00760848
0.00749923
0.00737964
0.00725174
0.00711737
0.00697828
0.00683613
0.00669249
0.00654889
0.00640678
0.0062676
0.00613273
0.00600356
0.00588154
0.00576823
0.00566541
0.00557519
0.00550023
0.00544402
0.00541145
0.0054097
0.00544996
0.00554974
0.00573273
0.00600932
0.00630988
0.00639937
0.00595509
0.0015287
0.00152209
0.00151545
0.00150882
0.00150225
0.00149576
0.0014893
0.00148291
0.0014766
0.00147039
0.00146429
0.00145834
0.00145254
0.00144691
0.00144146
0.00143621
0.00143118
0.00142636
0.00142177
0.00141742
0.00141331
0.00140946
0.00140586
0.00140252
0.00139945
0.00139665
0.00139413
0.00139186
0.00138986
0.00138807
0.00138648
0.00138503
0.00138365
0.00138226
0.00138078
0.00137911
0.00137717
0.00137489
0.00137224
0.0013692
0.00136585
0.00136233
0.00135892
0.0013561
0.00135471
0.00135625
0.00136344
0.00138137
0.00141955
0.0014949
0.00163277
0.00186021
0.00219164
0.00261864
0.00311254
0.00364114
0.00417483
0.00468901
0.00516613
0.00559511
0.00597019
0.00628961
0.00655442
0.00676746
0.00693261
0.00705422
0.00713681
0.00718478
0.00720229
0.0071932
0.00716105
0.00710903
0.00704003
0.00695666
0.00686127
0.00675599
0.0066428
0.00652352
0.00639987
0.00627348
0.00614592
0.0060187
0.00589328
0.00577109
0.00565356
0.00554214
0.0054384
0.00534409
0.00526126
0.00519243
0.00514081
0.00511081
0.00510868
0.00514382
0.00523059
0.00538849
0.00562918
0.00590794
0.00605962
0.00584776
0.00157171
0.0015671
0.00156241
0.00155766
0.00155287
0.00154803
0.00154313
0.0015382
0.00153324
0.00152827
0.0015233
0.00151835
0.00151342
0.00150854
0.00150371
0.00149896
0.00149428
0.00148971
0.00148524
0.0014809
0.00147668
0.0014726
0.00146866
0.00146485
0.00146119
0.00145764
0.0014542
0.00145084
0.0014475
0.00144415
0.00144072
0.00143715
0.00143334
0.00142922
0.00142472
0.00141977
0.00141431
0.00140832
0.00140183
0.00139487
0.00138755
0.00138002
0.00137252
0.00136537
0.00135903
0.00135423
0.00135212
0.00135464
0.0013651
0.0013891
0.00143621
0.00152214
0.00166931
0.00189951
0.0022207
0.00262202
0.00307635
0.00355235
0.00402258
0.00446668
0.00487136
0.00522924
0.00553732
0.00579566
0.0060063
0.00617243
0.00629787
0.00638663
0.00644271
0.00646993
0.0064719
0.00645189
0.00641292
0.00635774
0.00628881
0.0062084
0.00611857
0.00602121
0.00591813
0.005811
0.00570142
0.00559094
0.00548105
0.00537321
0.00526886
0.00516947
0.00507662
0.00499202
0.00491763
0.00485583
0.00480959
0.00478284
0.00478098
0.00481182
0.00488686
0.00502163
0.00522742
0.00547768
0.00566021
0.00559579
0.00158953
0.00158591
0.00158219
0.00157838
0.00157447
0.00157045
0.00156634
0.00156214
0.00155784
0.00155346
0.001549
0.00154446
0.00153985
0.00153517
0.00153043
0.00152563
0.00152078
0.00151589
0.00151095
0.00150597
0.00150094
0.00149588
0.00149076
0.00148559
0.00148035
0.00147501
0.00146955
0.00146394
0.00145812
0.00145204
0.00144564
0.00143884
0.00143159
0.00142381
0.00141546
0.00140649
0.0013969
0.00138671
0.00137598
0.00136482
0.00135338
0.00134183
0.00133043
0.00131943
0.00130919
0.00130012
0.00129282
0.00128816
0.00128763
0.00129371
0.00131056
0.00134477
0.00140608
0.00150756
0.00166565
0.00189544
0.00220013
0.00256597
0.00296815
0.00338017
0.00377997
0.00415199
0.00448668
0.00477926
0.00502834
0.00523477
0.00540083
0.00552955
0.00562432
0.00568866
0.00572596
0.00573948
0.00573226
0.00570707
0.00566648
0.00561283
0.00554825
0.00547472
0.00539407
0.00530802
0.0052182
0.00512619
0.00503348
0.00494155
0.00485186
0.00476588
0.00468515
0.00461136
0.0045464
0.00449249
0.00445236
0.00442953
0.00442863
0.0044561
0.00452103
0.00463539
0.00480903
0.00502748
0.00521701
0.00524045
0.00158976
0.00158617
0.00158246
0.00157864
0.00157468
0.00157061
0.00156641
0.00156208
0.00155761
0.00155302
0.00154828
0.00154341
0.00153839
0.00153323
0.00152791
0.00152243
0.00151679
0.00151098
0.00150499
0.00149881
0.00149243
0.00148583
0.001479
0.00147191
0.00146454
0.00145685
0.0014488
0.00144035
0.00143145
0.00142204
0.00141206
0.00140145
0.00139016
0.00137816
0.00136541
0.00135193
0.00133776
0.00132299
0.00130773
0.00129215
0.00127647
0.00126091
0.00124574
0.00123124
0.00121771
0.00120543
0.00119475
0.00118607
0.00117996
0.00117737
0.00117994
0.00119054
0.00121404
0.00125795
0.00133225
0.00144738
0.00161346
0.00183713
0.0021161
0.00243707
0.00278016
0.00312515
0.0034556
0.00376012
0.00403194
0.00426791
0.00446741
0.00463151
0.00476226
0.00486229
0.00493448
0.00498173
0.0050069
0.00501268
0.00500162
0.00497604
0.00493813
0.00488989
0.00483317
0.00476971
0.00470115
0.00462907
0.00455497
0.00448032
0.00440657
0.00433518
0.00426767
0.00420566
0.00415097
0.00410568
0.0040723
0.00405395
0.00405465
0.0040797
0.0041362
0.00423318
0.00437854
0.004565
0.00474555
0.00481632
0.00157248
0.00156796
0.00156332
0.00155854
0.00155362
0.00154857
0.00154337
0.00153803
0.00153253
0.00152686
0.00152103
0.00151501
0.0015088
0.00150238
0.00149574
0.00148887
0.00148175
0.00147436
0.00146667
0.00145867
0.00145032
0.00144161
0.00143248
0.00142291
0.00141286
0.00140226
0.00139109
0.00137927
0.00136676
0.00135349
0.00133942
0.0013245
0.00130872
0.00129205
0.00127455
0.00125627
0.00123732
0.00121787
0.00119811
0.00117828
0.00115864
0.0011395
0.00112114
0.00110385
0.00108789
0.00107353
0.00106098
0.00105044
0.00104213
0.00103634
0.00103352
0.00103453
0.00104099
0.00105603
0.00108518
0.0011363
0.00121846
0.00133967
0.00150466
0.00171346
0.00196017
0.00223323
0.00251796
0.00280005
0.00306788
0.00331338
0.00353175
0.00372083
0.00388031
0.00401112
0.00411496
0.00419397
0.00425044
0.00428676
0.00430524
0.0043081
0.00429744
0.00427522
0.00424327
0.00420333
0.004157
0.00410585
0.00405135
0.00399494
0.00393807
0.00388215
0.00382866
0.00377918
0.00373542
0.00369933
0.00367322
0.00365989
0.0036628
0.00368634
0.0037361
0.00381876
0.00394025
0.00409708
0.0042598
0.00435156
0.00153028
0.00152387
0.00151733
0.00151067
0.00150389
0.00149698
0.00148993
0.00148273
0.00147538
0.00146787
0.00146017
0.00145226
0.00144414
0.00143578
0.00142716
0.00141824
0.00140901
0.00139942
0.00138944
0.00137904
0.00136817
0.00135677
0.00134481
0.00133223
0.00131896
0.00130496
0.00129015
0.00127448
0.00125789
0.00124035
0.00122182
0.00120229
0.0011818
0.0011604
0.0011382
0.00111535
0.00109205
0.00106854
0.0010451
0.00102202
0.000999627
0.000978218
0.000958089
0.0009395
0.00092268
0.00090781
0.00089503
0.000884439
0.000876102
0.000870068
0.000866397
0.000865217
0.000866837
0.000871918
0.000881999
0.000900237
0.000931705
0.00098344
0.0010634
0.00117807
0.0013298
0.00151559
0.00172788
0.00195638
0.00219004
0.00241881
0.00263467
0.00283204
0.00300757
0.00315972
0.00328829
0.00339402
0.00347823
0.00354256
0.00358884
0.00361898
0.00363482
0.00363819
0.00363082
0.00361435
0.00359036
0.00356033
0.00352571
0.00348791
0.00344832
0.00340834
0.00336938
0.00333296
0.00330071
0.00327446
0.00325631
0.00324878
0.00325487
0.00327823
0.00332327
0.00339493
0.0034974
0.00362892
0.00377093
0.00386808
0.00144762
0.00143846
0.00142922
0.00141991
0.00141055
0.0014011
0.00139157
0.00138194
0.00137218
0.00136229
0.00135223
0.00134198
0.00133151
0.00132078
0.00130976
0.00129841
0.00128669
0.00127455
0.00126193
0.00124878
0.00123504
0.00122065
0.00120555
0.00118966
0.00117293
0.00115529
0.00113669
0.00111708
0.00109644
0.00107478
0.00105211
0.00102852
0.00100412
0.000979054
0.000953541
0.000927825
0.000902185
0.000876924
0.000852353
0.000828775
0.000806475
0.000785706
0.000766681
0.00074957
0.000734497
0.000721542
0.000710743
0.000702107
0.00069561
0.000691208
0.000688846
0.000688465
0.000690027
0.000693431
0.000698743
0.000706644
0.000718473
0.000736601
0.000764784
0.000808273
0.000873265
0.000965398
0.00108756
0.00123817
0.00141118
0.00159775
0.00178849
0.00197511
0.0021512
0.0023124
0.00245614
0.00258122
0.00268749
0.0027755
0.00284628
0.00290112
0.00294148
0.00296889
0.00298488
0.00299095
0.00298859
0.00297922
0.00296423
0.002945
0.00292289
0.00289925
0.00287549
0.00285305
0.00283351
0.00281856
0.00281013
0.00281045
0.00282211
0.00284816
0.00289206
0.00295742
0.00304705
0.00315975
0.00328338
0.003379
0.00130102
0.0012888
0.00127661
0.00126448
0.00125239
0.00124033
0.00122828
0.0012162
0.00120407
0.00119185
0.0011795
0.00116699
0.00115428
0.00114131
0.00112804
0.0011144
0.00110036
0.00108585
0.0010708
0.00105515
0.00103884
0.0010218
0.00100399
0.000985335
0.000965807
0.000945377
0.000924041
0.000901823
0.000878779
0.000855002
0.000830628
0.000805833
0.000780831
0.00075587
0.000731218
0.000707156
0.00068396
0.000661889
0.000641176
0.000622015
0.000604562
0.000588926
0.000575174
0.000563336
0.000553408
0.000545358
0.000539137
0.000534678
0.000531907
0.000530744
0.000531111
0.000532928
0.000536118
0.000540455
0.000545761
0.000552066
0.000559524
0.000568513
0.000579788
0.000594655
0.000615158
0.000644186
0.000685358
0.000742518
0.00081881
0.00091553
0.00103128
0.00116191
0.00130139
0.00144312
0.00158112
0.0017107
0.00182869
0.00193328
0.00202372
0.00210007
0.00216289
0.00221309
0.00225181
0.00228028
0.00229979
0.00231166
0.00231722
0.0023178
0.00231472
0.00230932
0.00230297
0.00229709
0.00229316
0.00229279
0.00229776
0.00231006
0.00233194
0.00236596
0.00241485
0.00248124
0.00256684
0.00267038
0.00278322
0.00287818
0.00106482
0.00105054
0.00103639
0.00102244
0.00100867
0.00099504
0.000981517
0.00096806
0.000954625
0.000941169
0.000927645
0.000914004
0.000900197
0.000886174
0.000871884
0.000857276
0.0008423
0.000826907
0.000811054
0.000794699
0.000777812
0.000760373
0.000742375
0.00072383
0.000704771
0.000685258
0.000665377
0.000645244
0.000625003
0.000604824
0.000584899
0.00056543
0.000546626
0.000528689
0.000511806
0.000496142
0.000481831
0.000468976
0.000457647
0.00044788
0.000439682
0.000433035
0.000427901
0.000424225
0.000421942
0.00042098
0.000421264
0.000422717
0.000425266
0.000428841
0.000433376
0.000438813
0.0004451
0.000452017
0.000459415
0.000467207
0.000475334
0.000483777
0.000492584
0.000501912
0.000512067
0.000523565
0.000537188
0.000554017
0.000575426
0.000602991
0.00063829
0.000682603
0.000736565
0.000799889
0.000871265
0.000948491
0.0010288
0.00110925
0.00118717
0.00126036
0.00132723
0.00138683
0.00143878
0.00148313
0.00152027
0.00155085
0.00157568
0.00159569
0.0016119
0.0016254
0.00163733
0.00164891
0.00166144
0.00167636
0.00169528
0.00172004
0.00175273
0.00179573
0.00185153
0.00192244
0.00200972
0.00211214
0.00222288
0.00232258
0.000734407
0.000721117
0.000708009
0.000695195
0.000682666
0.000670385
0.000658314
0.000646418
0.000634662
0.000623008
0.000611423
0.000599873
0.000588329
0.000576764
0.000565157
0.000553488
0.000541746
0.000529926
0.00051803
0.000506071
0.000494072
0.000482066
0.000470101
0.000458234
0.000446538
0.000435096
0.000424
0.00041335
0.000403247
0.000393794
0.00038509
0.000377223
0.000370272
0.000364302
0.000359361
0.000355483
0.000352686
0.000350972
0.000350334
0.000350751
0.000352196
0.000354635
0.000358029
0.000362338
0.000367517
0.000373524
0.000380312
0.000387839
0.000396056
0.000404919
0.000414377
0.000424382
0.00043485
0.000445425
0.00045589
0.000466143
0.000476111
0.000485751
0.000495046
0.000504013
0.000512704
0.000521213
0.000529684
0.000538321
0.000547395
0.000557249
0.000568288
0.000580962
0.000595727
0.000612999
0.000633088
0.000656138
0.000682084
0.000710631
0.000741273
0.000773338
0.000806066
0.000838684
0.000870484
0.000900874
0.000929414
0.000955838
0.000980045
0.0010021
0.00102219
0.00104067
0.00105799
0.00107473
0.0010916
0.00110947
0.00112943
0.0011528
0.00118125
0.00121683
0.00126192
0.00131904
0.00139019
0.00147564
0.00157139
0.0016652
0.000390056
0.000382885
0.000375942
0.000369359
0.000363138
0.000357255
0.00035169
0.000346423
0.000341435
0.000336708
0.000332226
0.000327977
0.00032395
0.000320137
0.000316534
0.000313138
0.000309952
0.00030698
0.000304229
0.000301712
0.000299442
0.000297438
0.000295719
0.00029431
0.000293235
0.000292523
0.000292199
0.000292293
0.000292831
0.000293837
0.000295336
0.000297345
0.000299881
0.000302958
0.000306583
0.000310764
0.000315503
0.000320802
0.00032666
0.000333076
0.000340049
0.000347576
0.000355654
0.000364279
0.000373445
0.000383142
0.000393356
0.000404066
0.000415243
0.000426845
0.000438824
0.000451108
0.000463333
0.000474962
0.00048587
0.000496006
0.000505349
0.000513903
0.000521691
0.000528754
0.000535148
0.000540939
0.000546208
0.000551045
0.000555555
0.000559856
0.000564079
0.000568363
0.000572857
0.000577704
0.000583043
0.00058899
0.000595635
0.000603029
0.000611181
0.000620052
0.000629563
0.000639595
0.000650003
0.000660628
0.000671306
0.000681888
0.000692241
0.000702267
0.000711903
0.000721134
0.000729996
0.000738588
0.00074708
0.000755734
0.000764928
0.000775198
0.000787286
0.000802189
0.000821196
0.000845847
0.000877701
0.000917776
0.000965209
0.00101568
0.000219412
0.000219705
0.000220173
0.000220858
0.000221757
0.000222857
0.000224146
0.000225614
0.000227251
0.000229048
0.000230996
0.000233087
0.000235312
0.000237665
0.000240139
0.000242726
0.00024542
0.000248216
0.000251107
0.000254089
0.000257157
0.000260306
0.000263533
0.000266835
0.000270211
0.00027366
0.000277182
0.00028078
0.000284457
0.000288219
0.000292072
0.000296027
0.000300094
0.000304287
0.000308623
0.000313122
0.000317805
0.000322697
0.000327826
0.000333222
0.000338917
0.000344942
0.00035133
0.000358108
0.0003653
0.000372922
0.000380979
0.000389464
0.000398353
0.000407607
0.000417188
0.000426868
0.000435739
0.00044369
0.000450699
0.000456769
0.000461926
0.000466211
0.000469679
0.000472396
0.000474433
0.000475869
0.000476783
0.00047726
0.000477384
0.000477241
0.000476918
0.000476498
0.000476065
0.000475697
0.000475467
0.000475441
0.000475674
0.000476207
0.000477071
0.000478277
0.000479824
0.000481692
0.000483847
0.000486241
0.000488816
0.000491503
0.00049423
0.000496925
0.000499512
0.000501925
0.000504104
0.000506002
0.00050759
0.000508859
0.000509834
0.000510585
0.000511237
0.000511991
0.000513129
0.000514999
0.000517956
0.000522217
0.000527493
0.00053294
0.000272528
0.000271899
0.000271243
0.00027056
0.00026985
0.000269117
0.000268361
0.000267583
0.000266785
0.000265965
0.000265123
0.000264257
0.000263366
0.000262445
0.000261493
0.000260505
0.000259477
0.000258405
0.000257283
0.000256107
0.00025487
0.000253567
0.000252191
0.000250736
0.000249195
0.000247564
0.000245836
0.000244006
0.00024207
0.000240026
0.000237871
0.000235606
0.000233233
0.000230758
0.000228187
0.000225531
0.000222802
0.000220017
0.000217195
0.000214358
0.00021153
0.000208738
0.000206011
0.000203377
0.000200868
0.000198511
0.000196335
0.000194365
0.000192624
0.000191129
0.000189892
0.000188901
0.000188223
0.000187844
0.000187731
0.000187851
0.000188168
0.000188648
0.000189261
0.00018998
0.000190781
0.000191645
0.000192555
0.000193498
0.00019446
0.000195434
0.00019641
0.000197382
0.000198344
0.000199292
0.000200222
0.000201131
0.000202019
0.000202884
0.000203726
0.000204546
0.000205347
0.000206132
0.000206905
0.000207673
0.000208442
0.000209222
0.000210023
0.000210859
0.000211743
0.000212692
0.000213726
0.000214865
0.000216134
0.000217559
0.000219168
0.000220992
0.000223062
0.000225414
0.000228084
0.00023111
0.000234536
0.000238404
0.000242755
0.000247599
4.05607e-05
6.19507e-05
7.76139e-05
9.10995e-05
0.000103232
0.000114468
0.000125072
0.000135201
0.000144953
0.000154383
0.000163517
0.000172367
0.000180928
0.00018919
0.000197143
0.000204772
0.000212066
0.000219013
0.000225605
0.000231834
0.000237696
0.000243191
0.000248331
0.00025315
0.000257725
0.000262053
0.000266037
0.000269695
0.000273033
0.000276053
0.000278747
0.00028111
0.000283129
0.000284791
0.000286077
0.000286971
0.000287452
0.000287503
0.000287104
0.000286248
0.000284915
0.000283098
0.000280829
0.000278092
0.00027488
0.000271281
0.000267134
0.00026424
0.00026154
0.000258661
0.00025559
0.000252352
0.000248979
0.000245505
0.000241963
0.000238383
0.000234792
0.000231212
0.000227663
0.000224161
0.000220736
0.000217198
0.000214085
0.000211101
0.000208203
0.000205394
0.000202678
0.00020006
0.000197543
0.000195126
0.000192808
0.000190586
0.000188454
0.000186407
0.000184435
0.00018253
0.000180679
0.000178869
0.000177087
0.000175316
0.00017354
0.00017174
0.000169895
0.000167983
0.000165979
0.000163855
0.000161577
0.000159105
0.000156386
0.000153341
0.000149824
0.000145541
0.000140229
0.000134188
0.000129689
0.000123963
0.000115182
0.000102984
9.22623e-05
8.78433e-05
0.000145353
0.000253357
0.000345337
0.000432776
0.00051825
0.000601826
0.000683762
0.000764399
0.000844161
0.000923409
0.00100237
0.00108111
0.00115958
0.00123764
0.00131512
0.00139183
0.0014676
0.00154231
0.00161581
0.00168795
0.00175851
0.00182717
0.00189345
0.00195661
0.00201542
0.00206889
0.00212042
0.00217039
0.00221891
0.002266
0.00231161
0.00235559
0.00239778
0.00243787
0.0024755
0.0025103
0.0025418
0.00256956
0.00259308
0.00261197
0.00262582
0.00263435
0.00263746
0.00263501
0.00262699
0.00261302
0.00258933
0.00255278
0.00251156
0.00246807
0.00242326
0.00237777
0.00233216
0.00228689
0.00224239
0.00219901
0.00215705
0.00211675
0.0020783
0.00204184
0.00200746
0.00197504
0.00194054
0.00190722
0.00187604
0.00184722
0.00182073
0.00179645
0.00177421
0.00175381
0.00173504
0.00171767
0.00170145
0.00168616
0.00167154
0.00165737
0.0016434
0.00162943
0.00161524
0.00160062
0.00158537
0.00156931
0.00155223
0.00153394
0.0015142
0.0014928
0.00146946
0.00144383
0.00141536
0.00138309
0.00134515
0.00129838
0.00124224
0.00117457
0.00110629
0.00105053
0.000989764
0.000857106
0.00056197
0.000281972
0.000170898
0.000454192
0.000628593
0.000795888
0.000960818
0.00112307
0.00128286
0.00144077
0.00159748
0.00175357
0.00190934
0.00206482
0.00221976
0.00237373
0.00252622
0.00267668
0.00282461
0.00296955
0.00311109
0.00324878
0.00338214
0.00351056
0.00363339
0.00374987
0.00385743
0.00395794
0.00405429
0.00414722
0.0042371
0.0043241
0.00440825
0.00448945
0.00456749
0.00464194
0.00471217
0.00477758
0.00483725
0.00489034
0.00493582
0.00497289
0.00500062
0.00501843
0.00502604
0.0050233
0.00501026
0.00498629
0.00494845
0.00489498
0.00483239
0.00476389
0.00469123
0.00461567
0.00453828
0.00446003
0.00438174
0.00430414
0.00422782
0.00415327
0.00408089
0.00401093
0.00394352
0.00387757
0.0038109
0.00374635
0.00368499
0.00362714
0.00357275
0.00352163
0.0034735
0.00342803
0.00338489
0.00334371
0.00330412
0.00326576
0.00322828
0.00319134
0.00315462
0.00311784
0.0030807
0.00304296
0.00300436
0.00296468
0.00292364
0.00288103
0.00283654
0.00278985
0.00274052
0.00268795
0.00263119
0.00256866
0.00249756
0.00241373
0.00231432
0.00219813
0.00207833
0.00196951
0.0018427
0.00156121
0.000949543
0.000323071
0.000189199
0.000632563
0.000879663
0.0011121
0.00134103
0.00156644
0.00178868
0.00200845
0.00222659
0.00244376
0.00266024
0.00287591
0.0030903
0.00330269
0.00351221
0.00371796
0.0039191
0.00411486
0.00430459
0.00448767
0.00466351
0.00483147
0.00499095
0.00514155
0.00528033
0.00541114
0.00553613
0.00565634
0.00577244
0.00588486
0.00599387
0.00609956
0.00620188
0.00630041
0.00639451
0.00648343
0.00656599
0.00664104
0.00670708
0.0067629
0.00680694
0.00683837
0.00685648
0.00686046
0.00685032
0.00682548
0.00678437
0.00672688
0.00665716
0.0065782
0.00649204
0.00640035
0.00630459
0.00620606
0.00610594
0.00600523
0.00590479
0.00580533
0.00570738
0.00561134
0.00551751
0.00542403
0.00533162
0.00524195
0.00515582
0.00507346
0.00499479
0.00491962
0.00484763
0.00477849
0.00471182
0.00464724
0.00458437
0.00452285
0.00446231
0.00440243
0.00434291
0.00428347
0.00422385
0.00416381
0.00410315
0.00404165
0.00397911
0.00391531
0.00384998
0.00378281
0.00371331
0.00364082
0.00356426
0.00348185
0.00339063
0.0032863
0.0031648
0.00302439
0.00287283
0.00272042
0.00253563
0.00216295
0.00133922
0.000360847
0.00020279
0.000785282
0.00109646