/*--------------------------------*- C++ -*----------------------------------*\
| =========                 |                                                 |
| \\      /  F ield         | OpenFOAM: The Open Source CFD Toolbox           |
|  \\    /   O peration     | Version:  2.4.0                                 |
|   \\  /    A nd           | Web:      www.OpenFOAM.org                      |
|    \\/     M anipulation  |                                                 |
\*---------------------------------------------------------------------------*/
FoamFile
{
    version     2.0;
    format      ascii;
    class       volVectorField;
    location    "0.115";
    object      U_0;
}
// * * * * * * * * * * * * * * * * * * * * * * * * * * * * * * * * * * * * * //

dimensions      [0 1 -1 0 0 0 0];

internalField   nonuniform List<vector> 
4400
(
(5.40546 0.316732 0)
(3.31221 0.0607457 0)
(2.5875 0.0013539 0)
(2.22978 -0.00192376 0)
(2.08461 -0.00171377 0)
(1.98961 -0.00028663 0)
(1.95762 -0.000710351 0)
(1.90344 -0.000390144 0)
(1.8654 0.00278111 0)
(1.69943 -0.0462622 0)
(8.69208 0.857446 0)
(7.52803 0.344676 0)
(6.64217 0.115771 0)
(5.90117 0.0559354 0)
(5.53101 0.0260976 0)
(5.25361 0.0165849 0)
(5.16398 0.00945243 0)
(4.98879 0.00995034 0)
(4.93806 0.0170537 0)
(4.69667 -0.0642527 0)
(9.90523 0.937551 0)
(9.96749 0.47716 0)
(9.513 0.211804 0)
(8.73792 0.131606 0)
(8.28925 0.0741589 0)
(7.88055 0.0467716 0)
(7.77669 0.029095 0)
(7.47235 0.0257133 0)
(7.49545 0.0374171 0)
(7.0953 -0.0629408 0)
(10.1506 0.80835 0)
(11.0792 0.498273 0)
(11.296 0.263243 0)
(10.8064 0.19965 0)
(10.4795 0.130027 0)
(10.0279 0.0844552 0)
(9.98807 0.0577784 0)
(9.56292 0.0448067 0)
(9.67518 0.0580658 0)
(9.29965 -0.023111 0)
(10.0988 0.648588 0)
(11.2747 0.437349 0)
(12.0042 0.241569 0)
(11.9345 0.220843 0)
(11.9238 0.166092 0)
(11.5648 0.115586 0)
(11.6817 0.0864707 0)
(11.2323 0.0687733 0)
(11.3756 0.0656578 0)
(11.1455 0.0221972 0)
(10.0979 0.517299 0)
(11.1952 0.363969 0)
(12.0523 0.17917 0)
(12.2071 0.187148 0)
(12.5128 0.160908 0)
(12.342 0.117801 0)
(12.668 0.0980519 0)
(12.3664 0.0869409 0)
(12.5229 0.0713801 0)
(12.4322 0.0335499 0)
(10.1037 0.394985 0)
(11.1669 0.301443 0)
(11.9857 0.129261 0)
(12.1856 0.139629 0)
(12.5391 0.125366 0)
(12.5287 0.096708 0)
(12.924 0.0766066 0)
(12.8707 0.0932577 0)
(13.0434 0.0523034 0)
(13.0879 0.0738455 0)
(10.0484 0.26924 0)
(11.1576 0.233485 0)
(11.9547 0.083689 0)
(12.2023 0.106782 0)
(12.3988 0.0854582 0)
(12.5759 0.0733584 0)
(12.8746 0.042289 0)
(12.9967 0.0854957 0)
(13.0978 0.0309341 0)
(13.277 0.0502573 0)
(10.001 0.160288 0)
(11.1421 0.13956 0)
(11.8959 0.0519957 0)
(12.1843 0.0721965 0)
(12.3759 0.0527996 0)
(12.6242 0.0287333 0)
(12.8154 0.023005 0)
(12.9837 0.059922 0)
(13.0825 0.0256295 0)
(13.3685 -0.0414591 0)
(10.0131 0.0441675 0)
(11.1051 0.0589322 0)
(11.8339 0.0115667 0)
(12.1965 0.0380551 0)
(12.4387 0.00586015 0)
(12.5874 0.00884703 0)
(12.7611 -0.00368018 0)
(12.9403 0.0440532 0)
(13.1587 -0.0151204 0)
(13.3301 -0.0467441 0)
(10.0201 -0.0624792 0)
(11.0852 -0.0290468 0)
(11.8248 -0.020961 0)
(12.2212 -0.0107847 0)
(12.4294 -0.0212364 0)
(12.5969 -0.0228478 0)
(12.7549 -0.0228589 0)
(12.9448 0.00435401 0)
(13.1465 -0.0311315 0)
(13.2519 -0.0497625 0)
(10.0227 -0.175405 0)
(11.0906 -0.110352 0)
(11.8601 -0.0638925 0)
(12.2331 -0.0492146 0)
(12.4411 -0.0617895 0)
(12.6106 -0.0474887 0)
(12.7779 -0.043403 0)
(12.9641 -0.0189101 0)
(13.1291 -0.0543891 0)
(13.2877 -0.0843101 0)
(10.0259 -0.284119 0)
(11.1078 -0.197488 0)
(11.9279 -0.103051 0)
(12.2414 -0.0925451 0)
(12.4632 -0.0916141 0)
(12.623 -0.0786403 0)
(12.845 -0.06721 0)
(13.0022 -0.0481451 0)
(13.1477 -0.0787674 0)
(13.3329 -0.116273 0)
(10.0227 -0.400327 0)
(11.1411 -0.274511 0)
(12.0162 -0.150624 0)
(12.2419 -0.12995 0)
(12.5325 -0.128662 0)
(12.6321 -0.109138 0)
(12.8729 -0.0912324 0)
(12.9092 -0.0673357 0)
(13.0601 -0.099907 0)
(13.1597 -0.148418 0)
(9.99608 -0.517069 0)
(11.2399 -0.34954 0)
(12.0753 -0.20148 0)
(12.2498 -0.175833 0)
(12.4889 -0.162653 0)
(12.4336 -0.130532 0)
(12.5613 -0.102423 0)
(12.4288 -0.0788934 0)
(12.5085 -0.105835 0)
(12.4328 -0.157895 0)
(10.0252 -0.646801 0)
(11.3458 -0.430774 0)
(11.9902 -0.256379 0)
(11.9556 -0.209411 0)
(11.9062 -0.170369 0)
(11.6238 -0.122288 0)
(11.5712 -0.092334 0)
(11.312 -0.0650771 0)
(11.3102 -0.102007 0)
(11.0752 -0.104873 0)
(10.1059 -0.806796 0)
(11.1369 -0.495182 0)
(11.268 -0.272162 0)
(10.8214 -0.191743 0)
(10.4719 -0.13395 0)
(10.0544 -0.0875345 0)
(9.90921 -0.0639552 0)
(9.61641 -0.0443872 0)
(9.58254 -0.0812801 0)
(9.24275 -0.0420943 0)
(9.88199 -0.937179 0)
(10.0076 -0.475746 0)
(9.4849 -0.216576 0)
(8.75052 -0.126893 0)
(8.28688 -0.0770057 0)
(7.88718 -0.0475338 0)
(7.73343 -0.0348547 0)
(7.47647 -0.0253331 0)
(7.43623 -0.0511135 0)
(7.05878 -0.0131826 0)
(8.68087 -0.857324 0)
(7.55036 -0.343931 0)
(6.62363 -0.117668 0)
(5.90977 -0.0539835 0)
(5.52985 -0.0273605 0)
(5.25349 -0.0166627 0)
(5.14086 -0.0128921 0)
(4.96461 -0.0102479 0)
(4.92071 -0.0241076 0)
(4.60856 -0.00117029 0)
(5.40301 -0.316876 0)
(3.31834 -0.0606241 0)
(2.58251 -0.00161203 0)
(2.23176 0.00214401 0)
(2.08424 0.00158183 0)
(1.98911 0.000400633 0)
(1.94651 -3.69097e-05 0)
(1.88227 -0.000289079 0)
(1.84345 -0.00309934 0)
(1.71196 0.0133094 0)
(2.5224 -0.129635 0)
(2.36717 0.19193 0)
(3.05069 0.584259 0)
(3.42969 0.797885 0)
(4.20687 0.995594 0)
(5.06637 0.703286 0)
(5.59685 0.0446447 0)
(6.56689 -0.485565 0)
(6.89181 -1.22581 0)
(7.13453 -2.16187 0)
(7.78134 -3.06748 0)
(6.71619 -3.55873 0)
(6.49828 -3.74694 0)
(5.62874 -2.88167 0)
(5.04719 -2.35795 0)
(3.88534 -2.6005 0)
(4.06504 0.0432118 0)
(3.66773 4.07459 0)
(5.72008 5.04986 0)
(5.80371 4.88552 0)
(6.40349 3.74633 0)
(7.24918 2.7007 0)
(6.89286 1.78441 0)
(8.36371 0.0378354 0)
(9.44032 -1.80547 0)
(9.62819 -2.68826 0)
(10.567 -3.96635 0)
(12.7624 -5.59177 0)
(13.3536 -6.63259 0)
(14.2185 -7.11171 0)
(13.7972 -7.18215 0)
(14.2815 -6.94617 0)
(13.5 -6.44056 0)
(14.0647 -5.72969 0)
(12.7008 -4.7557 0)
(12.1983 -3.80967 0)
(11.7955 -3.3047 0)
(10.6828 -2.54572 0)
(11.2358 -2.3975 0)
(10.261 -1.43454 0)
(11.1475 -0.68082 0)
(9.80637 0.133294 0)
(10.9728 1.07765 0)
(9.1854 2.34283 0)
(10.5689 3.09087 0)
(8.17265 4.05801 0)
(9.69336 4.52592 0)
(6.06149 5.3689 0)
(8.74384 5.23674 0)
(5.39914 5.87223 0)
(7.79916 5.89861 0)
(6.83602 6.78469 0)
(6.9272 5.57234 0)
(8.30524 5.12907 0)
(7.69465 3.57709 0)
(9.78091 1.92036 0)
(9.00524 -0.676876 0)
(10.7159 -2.08183 0)
(8.98776 -3.98821 0)
(11.3973 -5.70244 0)
(9.58142 -6.52955 0)
(10.8462 -6.30913 0)
(8.95356 -6.20685 0)
(9.68481 -4.0951 0)
(8.14667 -4.09783 0)
(8.41774 -2.67435 0)
(5.94024 -1.75767 0)
(4.89903 0.742052 0)
(4.47896 -1.97202 0)
(6.53409 -2.64624 0)
(7.79904 -4.0486 0)
(8.92942 -3.15011 0)
(9.82346 -2.29569 0)
(10.5975 -1.23972 0)
(11.1906 -0.231846 0)
(11.3366 0.836782 0)
(11.3364 2.01915 0)
(10.9291 2.92747 0)
(10.394 3.83695 0)
(9.42999 4.57905 0)
(8.63913 5.04548 0)
(7.70156 4.92182 0)
(7.04935 4.19076 0)
(6.33049 4.08823 0)
(6.17493 3.64813 0)
(5.32416 4.68685 0)
(5.52825 3.89114 0)
(4.68223 4.77796 0)
(6.36343 3.1667 0)
(3.1815 3.38879 0)
(7.62743 0.996634 0)
(4.2537 1.46715 0)
(8.60333 -0.784036 0)
(5.98056 0.371858 0)
(8.68753 -0.527205 0)
(5.94543 0.646132 0)
(8.68997 0.366474 0)
(4.64126 1.59597 0)
(6.59474 1.17981 0)
(4.02108 5.288 0)
(5.17318 -0.00454451 0)
(4.74569 0.181319 0)
(5.00021 0.479036 0)
(5.20321 0.625673 0)
(5.56226 0.588947 0)
(6.49814 0.350171 0)
(6.98618 -0.232928 0)
(7.86689 -0.797335 0)
(8.5919 -1.39072 0)
(8.71994 -2.23069 0)
(9.58305 -3.05449 0)
(8.19401 -3.25421 0)
(8.32291 -3.50393 0)
(6.55361 -2.81551 0)
(6.7162 -1.81286 0)
(5.79567 -2.04608 0)
(4.71816 -0.179908 0)
(4.74336 3.69049 0)
(6.50862 4.7272 0)
(6.88578 4.57471 0)
(7.65186 3.49322 0)
(8.08646 2.63551 0)
(8.14036 1.54343 0)
(9.70511 -0.435199 0)
(10.4535 -2.09595 0)
(10.7248 -3.03687 0)
(12.0943 -4.56182 0)
(13.721 -6.02066 0)
(13.9461 -6.85386 0)
(14.4853 -7.25725 0)
(13.9817 -7.14835 0)
(14.292 -6.83919 0)
(13.6165 -6.34845 0)
(13.8967 -5.58072 0)
(12.1011 -4.42411 0)
(11.9917 -3.47533 0)
(11.0144 -3.08158 0)
(10.2647 -2.3876 0)
(10.3415 -2.31375 0)
(9.54496 -1.29204 0)
(10.5171 -0.64728 0)
(9.13685 0.170957 0)
(10.761 1.21418 0)
(8.66095 2.45041 0)
(10.4468 3.23142 0)
(7.89028 4.28256 0)
(9.95606 4.79995 0)
(6.19247 5.56866 0)
(8.81719 5.32795 0)
(6.12706 6.01773 0)
(7.30793 5.77474 0)
(7.68916 6.69401 0)
(6.90201 5.46234 0)
(8.8325 4.70655 0)
(8.33038 3.40171 0)
(10.2131 1.77814 0)
(9.80293 -0.907465 0)
(11.1331 -2.17451 0)
(9.66088 -4.00812 0)
(11.9454 -5.74807 0)
(9.86111 -6.51397 0)
(11.2063 -6.17044 0)
(8.92045 -5.92881 0)
(9.95565 -3.93453 0)
(7.84272 -3.78704 0)
(7.96307 -2.05196 0)
(5.09542 -1.18619 0)
(5.24772 1.07954 0)
(4.4002 -2.55898 0)
(6.79505 -3.21318 0)
(7.49789 -4.74686 0)
(8.76455 -3.32662 0)
(9.28414 -2.63023 0)
(9.79198 -1.39817 0)
(10.2968 -0.359141 0)
(10.3857 0.825345 0)
(10.463 2.08809 0)
(10.177 3.09036 0)
(9.84711 4.06528 0)
(9.02379 4.91489 0)
(8.35592 5.28561 0)
(7.46378 5.31929 0)
(7.07748 4.33313 0)
(6.32673 4.43852 0)
(6.30897 3.60035 0)
(5.44725 5.02387 0)
(6.78098 3.84392 0)
(4.02679 4.89398 0)
(8.22873 2.87153 0)
(3.63565 3.59959 0)
(9.50965 0.512428 0)
(4.75813 1.30756 0)
(10.2341 -1.09672 0)
(5.6927 0.394043 0)
(10.4314 -0.933286 0)
(6.74069 0.801924 0)
(10.7007 0.035175 0)
(6.95805 2.4765 0)
(8.90915 1.17945 0)
(5.61431 5.62158 0)
(7.45783 -0.0721574 0)
(7.3011 0.168837 0)
(7.38691 0.44779 0)
(7.51229 0.55323 0)
(7.74645 0.401585 0)
(8.4115 0.0630963 0)
(8.84412 -0.459211 0)
(9.47858 -1.0873 0)
(10.4418 -1.58924 0)
(10.1426 -2.26987 0)
(11.2062 -2.98659 0)
(9.51694 -2.97871 0)
(10.0126 -3.0684 0)
(7.67325 -2.62609 0)
(7.81537 -1.52962 0)
(7.50202 -1.44554 0)
(5.36325 -0.107872 0)
(5.71344 3.4318 0)
(7.38926 4.51843 0)
(8.01404 4.34794 0)
(8.63673 3.41639 0)
(9.067 2.54741 0)
(9.64841 1.19029 0)
(10.9565 -0.750036 0)
(11.3106 -2.27179 0)
(12.021 -3.52503 0)
(13.4345 -5.12324 0)
(14.2967 -6.27322 0)
(14.2612 -6.90781 0)
(14.5899 -7.2998 0)
(14.0964 -7.13223 0)
(14.2571 -6.73128 0)
(13.5577 -6.12989 0)
(13.4074 -5.19131 0)
(11.326 -3.98888 0)
(11.4161 -3.17476 0)
(9.83888 -2.81961 0)
(9.57167 -2.18534 0)
(9.01137 -2.15531 0)
(8.69712 -1.12356 0)
(9.72779 -0.687027 0)
(8.3903 0.137291 0)
(10.3907 1.32016 0)
(8.12032 2.53371 0)
(10.2643 3.28378 0)
(7.59652 4.35705 0)
(9.91229 5.11272 0)
(6.42021 5.83418 0)
(8.6199 5.38092 0)
(6.90166 6.21752 0)
(7.04787 5.67491 0)
(8.1576 6.52964 0)
(7.25801 5.37771 0)
(9.07958 4.3751 0)
(8.93118 3.19114 0)
(10.5406 1.57934 0)
(10.5144 -1.02831 0)
(11.3023 -2.26312 0)
(10.3365 -4.11732 0)
(12.13 -5.7778 0)
(10.2172 -6.42528 0)
(11.4071 -5.98284 0)
(8.79024 -5.57852 0)
(10.144 -3.75033 0)
(7.28877 -3.32019 0)
(7.54899 -1.40055 0)
(4.29485 -0.682674 0)
(6.11705 1.13458 0)
(4.40311 -2.75943 0)
(6.94468 -3.62215 0)
(6.81267 -5.33591 0)
(8.30123 -3.39868 0)
(8.41274 -2.93695 0)
(8.91347 -1.44691 0)
(9.25281 -0.481735 0)
(9.2609 0.86551 0)
(9.39455 2.13262 0)
(9.25942 3.23445 0)
(9.12053 4.27579 0)
(8.46003 5.25327 0)
(8.00428 5.49857 0)
(7.16237 5.72553 0)
(6.97811 4.34369 0)
(6.2477 4.82234 0)
(6.8271 3.52054 0)
(5.03434 5.21551 0)
(8.41054 3.78767 0)
(3.74731 5.05114 0)
(9.85434 2.6679 0)
(3.84941 3.45402 0)
(10.3373 0.144714 0)
(5.19086 1.58851 0)
(9.71271 -1.67663 0)
(5.72034 0.711671 0)
(10.1621 -1.45802 0)
(6.45228 1.00589 0)
(10.7377 -0.467189 0)
(7.30878 2.79879 0)
(11.7042 1.17244 0)
(7.76278 5.45406 0)
(9.38378 -0.130211 0)
(9.21606 0.046191 0)
(9.50145 0.432105 0)
(9.75301 0.526121 0)
(9.84011 0.257903 0)
(10.4594 -0.152917 0)
(10.8396 -0.617043 0)
(11.0155 -1.3182 0)
(12.1329 -1.76994 0)
(11.544 -2.25538 0)
(12.3791 -2.95147 0)
(10.629 -2.75108 0)
(10.9998 -2.69193 0)
(9.07513 -2.33601 0)
(8.32462 -1.37841 0)
(9.05306 -0.88556 0)
(6.44088 0.0723588 0)
(6.37411 3.04213 0)
(8.28756 4.19088 0)
(9.12425 4.10957 0)
(9.67692 3.27133 0)
(10.3029 2.24389 0)
(11.0411 0.776025 0)
(11.8593 -0.949255 0)
(12.1858 -2.45791 0)
(13.3871 -4.05179 0)
(14.3533 -5.52464 0)
(14.4885 -6.36618 0)
(14.3704 -6.91747 0)
(14.638 -7.28041 0)
(14.1575 -7.0772 0)
(14.0289 -6.54014 0)
(12.9949 -5.7969 0)
(12.427 -4.74427 0)
(10.3782 -3.54167 0)
(10.5097 -2.81544 0)
(8.3087 -2.48955 0)
(8.44134 -1.9956 0)
(7.53411 -2.0555 0)
(8.13619 -1.11519 0)
(9.03711 -0.780905 0)
(7.82283 0.0872866 0)
(9.93169 1.32581 0)
(7.69081 2.59056 0)
(9.78647 3.35954 0)
(7.3528 4.45803 0)
(9.61616 5.25522 0)
(6.87909 6.05558 0)
(8.15779 5.33459 0)
(7.49068 6.39775 0)
(7.13173 5.60989 0)
(8.34276 6.29413 0)
(8.01347 5.28647 0)
(9.17823 3.99217 0)
(9.40989 2.77144 0)
(10.818 1.31851 0)
(10.9359 -1.10972 0)
(11.3894 -2.42075 0)
(11.0127 -4.18865 0)
(12.0865 -5.70028 0)
(10.654 -6.26784 0)
(11.3846 -5.74296 0)
(8.63739 -5.19564 0)
(10.1293 -3.46011 0)
(6.47981 -2.77936 0)
(7.40734 -0.794411 0)
(3.6132 -0.37912 0)
(7.19811 0.958869 0)
(4.42371 -2.64648 0)
(7.03708 -3.86753 0)
(6.29058 -5.75485 0)
(7.8338 -3.34512 0)
(7.28253 -3.29395 0)
(7.93083 -1.36966 0)
(8.05277 -0.652434 0)
(8.12372 0.947145 0)
(8.31049 2.06111 0)
(8.2891 3.35067 0)
(8.30092 4.31456 0)
(7.80733 5.5231 0)
(7.54093 5.52874 0)
(6.86347 6.12433 0)
(6.93507 4.20085 0)
(5.85849 5.16183 0)
(7.91133 3.47698 0)
(4.24151 5.21942 0)
(9.9754 3.6125 0)
(3.76645 5.0383 0)
(10.5999 2.32994 0)
(5.55295 3.66619 0)
(9.8602 -0.30772 0)
(5.78415 1.67695 0)
(9.79492 -1.74327 0)
(5.70854 0.715055 0)
(10.1073 -1.71742 0)
(6.08539 1.39183 0)
(10.0498 -0.963574 0)
(6.74514 2.96401 0)
(11.1844 0.764146 0)
(9.26489 5.14842 0)
(11.2643 -0.104598 0)
(10.9742 -0.028365 0)
(11.0828 0.312675 0)
(11.4199 0.409121 0)
(11.5096 0.130036 0)
(11.9726 -0.363256 0)
(12.3884 -0.724542 0)
(12.4061 -1.39897 0)
(13.2481 -1.91066 0)
(12.7385 -2.14566 0)
(13.1363 -2.78223 0)
(11.7353 -2.46387 0)
(11.58 -2.32933 0)
(10.4568 -1.90824 0)
(8.68076 -1.21287 0)
(9.98215 -0.504125 0)
(7.90263 0.40164 0)
(7.02713 2.56133 0)
(8.91281 3.6215 0)
(9.94736 3.65144 0)
(10.6547 2.9298 0)
(11.3282 1.88056 0)
(12.0225 0.459276 0)
(12.5129 -1.08814 0)
(13.2007 -2.7668 0)
(14.4507 -4.52211 0)
(14.7114 -5.71684 0)
(14.4935 -6.34569 0)
(14.4769 -6.88975 0)
(14.5553 -7.22696 0)
(13.8849 -6.9579 0)
(13.3521 -6.27356 0)
(12.0536 -5.31664 0)
(11.1624 -4.15042 0)
(9.16075 -3.0563 0)
(9.11288 -2.3696 0)
(6.42309 -2.07103 0)
(7.08379 -1.89262 0)
(6.32003 -2.11939 0)
(7.86057 -1.35044 0)
(8.33395 -0.956494 0)
(7.56018 0.0676938 0)
(9.26329 1.31998 0)
(7.35441 2.68532 0)
(9.11043 3.30291 0)
(7.35745 4.50684 0)
(8.93523 5.2847 0)
(7.32375 6.27375 0)
(7.7422 5.2999 0)
(7.83303 6.45187 0)
(7.43119 5.53412 0)
(8.44692 6.00358 0)
(8.7616 5.18173 0)
(9.42806 3.66283 0)
(9.73393 2.35667 0)
(11.0697 1.01515 0)
(11.1257 -1.12146 0)
(11.6294 -2.59119 0)
(11.4613 -4.25089 0)
(11.9414 -5.66394 0)
(10.9848 -6.08789 0)
(10.9691 -5.46521 0)
(8.49084 -4.78401 0)
(9.79586 -3.06507 0)
(5.57309 -2.19744 0)
(7.54716 -0.383623 0)
(3.40669 -0.216577 0)
(7.73877 0.535708 0)
(4.04886 -2.6049 0)
(7.11793 -4.20737 0)
(5.81392 -5.97735 0)
(7.52083 -3.15105 0)
(6.13652 -3.57664 0)
(6.99269 -1.19123 0)
(6.78494 -0.942255 0)
(7.05825 1.10525 0)
(7.19731 1.86451 0)
(7.3083 3.51731 0)
(7.41437 4.24485 0)
(7.03583 5.88406 0)
(6.9986 5.40033 0)
(6.38686 6.53457 0)
(7.32318 4.10774 0)
(4.98005 5.2781 0)
(9.24501 3.47628 0)
(3.72603 5.13567 0)
(10.7539 3.24392 0)
(4.77285 5.14181 0)
(10.5565 1.74172 0)
(6.25719 3.70761 0)
(10.6144 -0.156386 0)
(5.9915 1.8771 0)
(10.2388 -1.93128 0)
(6.37228 0.914066 0)
(9.93596 -2.20189 0)
(7.10135 1.53271 0)
(9.63458 -1.31234 0)
(7.25359 2.94154 0)
(9.82122 0.262121 0)
(9.31394 4.68885 0)
(12.671 -0.102113 0)
(12.4835 -0.0495153 0)
(12.4723 0.272052 0)
(12.7109 0.3383 0)
(12.7559 0.0517285 0)
(13.0638 -0.496884 0)
(13.2543 -0.870041 0)
(13.304 -1.46262 0)
(13.6901 -2.01509 0)
(13.4188 -2.02381 0)
(13.4399 -2.54185 0)
(12.266 -2.16551 0)
(11.6556 -2.04874 0)
(11.3891 -1.54556 0)
(9.40211 -0.906675 0)
(10.3185 -0.340717 0)
(9.29474 0.723913 0)
(8.14464 2.34872 0)
(9.4252 3.14409 0)
(10.5707 3.16396 0)
(11.2989 2.62943 0)
(12.0097 1.60899 0)
(12.7174 0.178857 0)
(13.2398 -1.31958 0)
(14.2796 -3.13622 0)
(15.0235 -4.77169 0)
(14.7049 -5.68853 0)
(14.4754 -6.32618 0)
(14.4613 -6.90025 0)
(14.1931 -7.07843 0)
(13.2707 -6.63668 0)
(12.2998 -5.77344 0)
(10.754 -4.73851 0)
(9.68621 -3.57133 0)
(7.8343 -2.55364 0)
(7.36557 -1.81342 0)
(4.38688 -1.70636 0)
(5.85209 -2.10728 0)
(5.52767 -2.36715 0)
(7.46098 -1.69818 0)
(7.22745 -1.1279 0)
(7.22201 0.0541246 0)
(8.32005 1.2259 0)
(7.15388 2.7966 0)
(8.10086 3.21158 0)
(7.26328 4.63804 0)
(8.1029 5.23507 0)
(7.54002 6.38468 0)
(7.46996 5.36672 0)
(7.84511 6.35765 0)
(7.70347 5.43509 0)
(8.56599 5.62438 0)
(9.23698 5.01786 0)
(9.96588 3.46901 0)
(10.0441 2.04286 0)
(11.3638 0.780906 0)
(11.2078 -1.1313 0)
(11.9602 -2.79708 0)
(11.6012 -4.28807 0)
(11.8917 -5.55421 0)
(11.0401 -5.74361 0)
(10.3501 -5.07568 0)
(8.43275 -4.32362 0)
(9.04139 -2.50696 0)
(5.05196 -1.64324 0)
(7.15534 -0.169793 0)
(3.53941 -0.0429574 0)
(7.16721 0.300338 0)
(3.66508 -2.58378 0)
(7.07121 -4.69053 0)
(4.74415 -6.03098 0)
(7.05547 -2.97509 0)
(5.01645 -3.7247 0)
(6.13626 -0.9582 0)
(5.53306 -1.30819 0)
(6.12177 1.35499 0)
(6.05731 1.52765 0)
(6.40489 3.73048 0)
(6.47958 3.99919 0)
(6.30429 6.23127 0)
(6.43485 5.0785 0)
(5.6649 6.79732 0)
(8.16583 4.11155 0)
(3.83236 5.20992 0)
(10.2949 3.23069 0)
(3.92095 5.17841 0)
(10.9225 2.67134 0)
(5.51618 5.26425 0)
(10.9994 1.59835 0)
(6.58024 3.82565 0)
(10.3972 -0.244324 0)
(7.26116 2.0152 0)
(9.59096 -2.05147 0)
(7.45217 0.992239 0)
(9.35221 -2.17146 0)
(7.4189 1.59865 0)
(9.45809 -1.16091 0)
(7.7221 2.87884 0)
(9.57036 0.149983 0)
(9.26943 3.93159 0)
(13.3913 -0.15945 0)
(13.2841 -0.153014 0)
(13.3618 0.17199 0)
(13.5921 0.250067 0)
(13.574 0.001188 0)
(13.875 -0.502611 0)
(13.7634 -0.946945 0)
(13.7693 -1.47996 0)
(13.8129 -1.99944 0)
(13.4878 -1.96915 0)
(13.2561 -2.30459 0)
(12.3478 -1.84809 0)
(11.5204 -1.74006 0)
(11.4249 -1.32922 0)
(10.0187 -0.538925 0)
(10.2435 -0.263696 0)
(10.1186 0.784628 0)
(9.43991 2.32929 0)
(10.2458 2.93993 0)
(11.2929 2.8562 0)
(11.7719 2.43539 0)
(12.6932 1.3328 0)
(13.4355 -0.118822 0)
(14.1514 -1.65445 0)
(15.0491 -3.43179 0)
(15.0033 -4.78138 0)
(14.5373 -5.59872 0)
(14.4876 -6.30068 0)
(14.2438 -6.77631 0)
(13.4342 -6.72475 0)
(12.142 -6.16208 0)
(10.9028 -5.20715 0)
(9.27603 -4.09144 0)
(8.07263 -2.96622 0)
(6.41693 -1.97676 0)
(5.44422 -1.13149 0)
(2.84349 -1.53221 0)
(4.8344 -2.60292 0)
(4.71967 -2.61363 0)
(6.50361 -1.92781 0)
(5.79623 -1.19458 0)
(6.57291 0.0173226 0)
(6.98827 1.15112 0)
(6.76097 2.93071 0)
(6.99764 3.09803 0)
(7.06393 4.69074 0)
(7.23384 5.16298 0)
(7.41262 6.32408 0)
(7.34988 5.42166 0)
(7.7078 6.13961 0)
(7.82903 5.30902 0)
(8.72031 5.21544 0)
(9.40488 4.82483 0)
(10.5094 3.33776 0)
(10.3766 1.81794 0)
(11.6019 0.583748 0)
(11.2739 -1.17448 0)
(12.192 -2.9272 0)
(11.5224 -4.26641 0)
(11.8282 -5.39286 0)
(10.6573 -5.37968 0)
(9.74535 -4.67678 0)
(8.10574 -3.84284 0)
(7.97254 -1.93962 0)
(4.83521 -1.10436 0)
(5.79504 0.0567257 0)
(3.50969 0.0828938 0)
(5.93109 0.190678 0)
(3.88441 -2.5834 0)
(6.42542 -4.99576 0)
(2.93442 -5.93793 0)
(6.3009 -2.89554 0)
(3.89122 -3.83507 0)
(5.37196 -0.736317 0)
(4.24428 -1.67951 0)
(5.24154 1.5467 0)
(4.95886 1.00146 0)
(5.53123 4.02554 0)
(5.446 3.59623 0)
(5.55882 6.60285 0)
(6.1462 4.81851 0)
(4.54731 6.83676 0)
(9.16098 4.0311 0)
(3.12983 5.23807 0)
(10.6954 2.58316 0)
(4.51456 5.26699 0)
(10.7249 2.19139 0)
(6.25374 5.22004 0)
(10.7038 1.4643 0)
(7.65347 3.90472 0)
(10.281 -0.293325 0)
(8.09295 1.96159 0)
(10.335 -1.87707 0)
(7.90199 0.922699 0)
(10.2249 -2.00139 0)
(7.87358 1.62791 0)
(9.78911 -0.959832 0)
(8.15873 2.69338 0)
(9.45434 0.255844 0)
(9.19603 3.27038 0)
(13.5326 -0.219095 0)
(13.3652 -0.188053 0)
(13.5899 0.0980739 0)
(13.8049 0.164933 0)
(13.7692 -0.0644017 0)
(14.1305 -0.488084 0)
(13.9743 -0.938416 0)
(13.955 -1.41398 0)
(13.8038 -1.87616 0)
(13.3402 -1.82336 0)
(12.958 -1.99989 0)
(12.1093 -1.59422 0)
(11.5412 -1.43999 0)
(11.2981 -1.19115 0)
(10.4338 -0.246601 0)
(10.3652 -0.140575 0)
(10.383 0.648697 0)
(10.1478 2.23392 0)
(11.1157 2.80272 0)
(12.0079 2.68192 0)
(12.4798 2.22566 0)
(13.5683 1.01733 0)
(14.1965 -0.39996 0)
(14.867 -1.99016 0)
(15.1453 -3.54474 0)
(14.6965 -4.60311 0)
(14.4655 -5.47059 0)
(14.314 -6.23033 0)
(13.5183 -6.53076 0)
(12.219 -6.23747 0)
(10.7674 -5.51447 0)
(9.37661 -4.52772 0)
(7.75454 -3.4379 0)
(6.5518 -2.3843 0)
(4.90684 -1.33989 0)
(3.43561 -0.474642 0)
(1.97259 -1.68331 0)
(3.54437 -3.01605 0)
(3.60216 -2.72387 0)
(5.34256 -2.10136 0)
(4.6466 -1.24263 0)
(5.71238 -0.0580966 0)
(5.59536 1.04703 0)
(6.22667 2.90448 0)
(5.94049 2.98992 0)
(6.56456 4.69239 0)
(6.48352 5.13993 0)
(7.01977 6.07363 0)
(7.0765 5.47334 0)
(7.50498 5.91565 0)
(7.69061 5.09169 0)
(8.82896 4.80955 0)
(9.40584 4.51245 0)
(10.8146 3.13646 0)
(10.5927 1.59658 0)
(11.6907 0.427241 0)
(11.3157 -1.22456 0)
(12.2042 -2.99562 0)
(11.3141 -4.24626 0)
(11.5706 -5.11716 0)
(9.97844 -4.9245 0)
(9.22046 -4.18183 0)
(7.45477 -3.25685 0)
(7.01597 -1.40869 0)
(4.58597 -0.554007 0)
(4.56706 0.300788 0)
(3.18343 0.110401 0)
(4.78903 -0.00455445 0)
(3.94744 -2.57311 0)
(4.91848 -4.7507 0)
(0.999765 -5.72545 0)
(5.53126 -3.0443 0)
(2.8622 -3.92803 0)
(4.67168 -0.469829 0)
(3.05395 -2.00644 0)
(4.43151 1.89246 0)
(3.7251 0.478912 0)
(4.64 4.38454 0)
(4.48795 3.04718 0)
(4.62726 6.91838 0)
(6.23078 4.55376 0)
(3.02651 6.63223 0)
(9.72836 3.60507 0)
(3.36823 5.31057 0)
(10.4054 1.97288 0)
(5.10341 5.33994 0)
(10.3921 1.88276 0)
(6.9554 5.23975 0)
(10.5081 1.23428 0)
(8.10073 3.77874 0)
(11.0576 -0.159422 0)
(8.43225 1.89901 0)
(10.9197 -1.70052 0)
(8.28823 0.921361 0)
(10.5268 -1.89164 0)
(8.3663 1.42303 0)
(10.2287 -0.86563 0)
(8.87834 2.32693 0)
(9.82642 0.328637 0)
(9.50972 2.66406 0)
(13.3909 -0.227762 0)
(13.1379 -0.097772 0)
(13.4681 0.11932 0)
(13.6377 0.0946088 0)
(13.6648 -0.122511 0)
(14.0998 -0.500699 0)
(14.0047 -0.958294 0)
(13.9199 -1.36542 0)
(13.7165 -1.68897 0)
(13.0982 -1.62722 0)
(12.7504 -1.69452 0)
(12.058 -1.38663 0)
(11.7646 -1.19837 0)
(11.4155 -1.05808 0)
(10.8229 -0.140526 0)
(10.8385 0.0158985 0)
(10.4016 0.614385 0)
(10.3757 1.95882 0)
(11.5982 2.46187 0)
(12.4017 2.4151 0)
(13.244 1.8839 0)
(14.1004 0.748374 0)
(14.5266 -0.649546 0)
(14.9406 -2.18591 0)
(14.7739 -3.42627 0)
(14.391 -4.439 0)
(14.2853 -5.40127 0)
(13.7401 -6.00394 0)
(12.3947 -5.99651 0)
(10.7103 -5.56434 0)
(9.22316 -4.84773 0)
(7.83565 -3.89365 0)
(6.31789 -2.8589 0)
(5.21322 -1.78431 0)
(3.24365 -0.595119 0)
(1.64269 -0.0187773 0)
(1.27647 -1.93474 0)
(1.99309 -3.28748 0)
(2.67411 -2.97076 0)
(4.33725 -2.5104 0)
(3.6315 -1.40819 0)
(4.71184 -0.150974 0)
(4.29573 0.969907 0)
(5.35847 2.78125 0)
(4.9792 2.88869 0)
(5.86194 4.53019 0)
(5.76526 5.05046 0)
(6.54078 5.71191 0)
(6.61966 5.4456 0)
(7.39313 5.67616 0)
(7.26345 4.82262 0)
(8.75412 4.40368 0)
(9.20282 4.10689 0)
(10.7592 2.87301 0)
(10.5645 1.41993 0)
(11.5646 0.314045 0)
(11.2051 -1.29406 0)
(12.0143 -3.01001 0)
(10.9764 -4.12467 0)
(11.0835 -4.74747 0)
(9.11729 -4.43806 0)
(8.55374 -3.70157 0)
(6.55906 -2.70386 0)
(6.35743 -0.931749 0)
(3.95907 -0.0203635 0)
(4.13599 0.548836 0)
(2.33394 0.175339 0)
(4.25783 -0.259726 0)
(3.12738 -2.40656 0)
(3.56526 -4.16111 0)
(0.0557727 -5.65621 0)
(5.04047 -3.50655 0)
(2.04091 -3.83995 0)
(4.08887 -0.36273 0)
(1.97994 -2.29373 0)
(3.71156 2.02102 0)
(2.54354 -0.0828778 0)
(3.81574 4.66201 0)
(3.60912 2.48226 0)
(3.55895 7.10908 0)
(6.71255 4.43128 0)
(1.76725 6.43055 0)
(9.65402 2.80378 0)
(3.87017 5.44375 0)
(9.85883 1.47383 0)
(5.63162 5.39862 0)
(10.0854 1.60745 0)
(7.32321 5.07523 0)
(10.5739 1.22921 0)
(8.60378 3.48995 0)
(11.042 -0.0777372 0)
(9.10028 1.76102 0)
(10.617 -1.40828 0)
(8.68037 0.714581 0)
(10.2598 -1.62749 0)
(8.74652 1.25714 0)
(9.82058 -0.680425 0)
(9.20616 2.04634 0)
(9.86872 0.481376 0)
(9.94364 2.25519 0)
(13.1725 -0.201987 0)
(13.0483 -0.0600122 0)
(13.4626 0.088263 0)
(13.6655 -0.0259385 0)
(13.7142 -0.200914 0)
(14.0364 -0.555242 0)
(13.9143 -0.962212 0)
(13.6978 -1.25682 0)
(13.4861 -1.48816 0)
(12.9194 -1.41466 0)
(12.7052 -1.48174 0)
(12.2506 -1.28967 0)
(11.9734 -1.03403 0)
(11.6989 -0.91857 0)
(11.1983 -0.116715 0)
(11.1242 0.252396 0)
(10.6349 0.656776 0)
(10.6378 1.58223 0)
(11.4259 2.09158 0)
(12.3449 2.02678 0)
(13.3628 1.48546 0)
(13.8435 0.527775 0)
(14.3016 -0.835966 0)
(14.5457 -2.19996 0)
(14.3467 -3.31154 0)
(14.1566 -4.34075 0)
(13.8396 -5.18351 0)
(12.6888 -5.52562 0)
(10.8213 -5.34505 0)
(9.0641 -4.87388 0)
(7.71005 -4.1868 0)
(6.45186 -3.26685 0)
(5.01887 -2.30122 0)
(3.83779 -1.12095 0)
(1.62891 0.192396 0)
(0.386553 0.251084 0)
(0.468893 -2.07953 0)
(0.679238 -3.68212 0)
(1.82544 -3.52038 0)
(2.80846 -2.80905 0)
(1.96154 -1.50023 0)
(3.41529 -0.212466 0)
(2.97099 0.84456 0)
(4.3188 2.55953 0)
(3.88288 2.81793 0)
(4.82966 4.3599 0)
(5.00209 4.88163 0)
(6.0198 5.38277 0)
(6.04449 5.37166 0)
(7.26812 5.46581 0)
(6.83663 4.55855 0)
(8.51521 3.97695 0)
(8.89133 3.62935 0)
(10.4228 2.5796 0)
(10.3552 1.24891 0)
(11.2125 0.155935 0)
(11.0092 -1.37751 0)
(11.6237 -2.95235 0)
(10.5108 -3.93221 0)
(10.3176 -4.30928 0)
(8.19855 -3.89427 0)
(7.79415 -3.16357 0)
(5.63267 -2.11938 0)
(5.8322 -0.480165 0)
(3.28911 0.447881 0)
(4.09924 0.796679 0)
(1.63981 0.324449 0)
(3.98757 -0.562829 0)
(2.02035 -2.1846 0)
(3.25804 -3.81933 0)
(0.347578 -5.88231 0)
(4.42826 -4.07105 0)
(1.017 -3.5963 0)
(3.48131 -0.14532 0)
(1.02076 -2.42129 0)
(2.94781 2.38211 0)
(1.41354 -0.514553 0)
(2.87796 5.00478 0)
(2.85447 2.00709 0)
(2.33391 7.03617 0)
(7.34744 4.11928 0)
(1.63974 6.33566 0)
(8.96374 1.90593 0)
(4.30002 5.59083 0)
(9.21514 1.12185 0)
(6.00153 5.31072 0)
(9.77721 1.42231 0)
(7.57869 4.75061 0)
(10.6275 1.109 0)
(9.06648 3.18094 0)
(11.1197 0.0478085 0)
(9.35454 1.60033 0)
(10.7098 -1.15725 0)
(9.22872 0.595018 0)
(10.2545 -1.46779 0)
(9.27918 1.11489 0)
(9.68039 -0.51729 0)
(9.44911 1.76484 0)
(9.89604 0.550588 0)
(10.1866 1.88523 0)
(13.1773 -0.245761 0)
(13.2046 -0.0907597 0)
(13.6121 0.0492689 0)
(13.73 -0.13529 0)
(13.6872 -0.196023 0)
(13.9256 -0.562825 0)
(13.7977 -0.948211 0)
(13.5529 -1.12412 0)
(13.3524 -1.33585 0)
(12.9578 -1.28098 0)
(12.8006 -1.32681 0)
(12.4034 -1.19157 0)
(12.0926 -0.905775 0)
(11.9721 -0.787048 0)
(11.3792 -0.0485626 0)
(11.1468 0.441717 0)
(10.9213 0.713228 0)
(10.6063 1.42758 0)
(11.0049 1.79502 0)
(12.0532 1.6151 0)
(12.7937 1.20115 0)
(13.3352 0.298316 0)
(13.9427 -0.959649 0)
(14.1346 -2.16006 0)
(14.004 -3.23648 0)
(13.7056 -4.21293 0)
(12.9103 -4.82179 0)
(11.2175 -4.84613 0)
(9.08525 -4.56731 0)
(7.46023 -4.21105 0)
(6.27973 -3.63899 0)
(5.18341 -2.75636 0)
(3.85571 -1.72796 0)
(2.47691 -0.383997 0)
(0.174547 0.878279 0)
(-0.518697 0.400664 0)
(-0.321438 -2.20345 0)
(-0.461042 -3.94031 0)
(0.321653 -3.81869 0)
(0.959088 -2.61398 0)
(-0.0484043 -1.50254 0)
(2.36508 -0.439784 0)
(1.45572 0.639314 0)
(3.13702 2.33392 0)
(2.61366 2.68974 0)
(3.91004 4.13586 0)
(4.10531 4.5878 0)
(5.31142 5.06635 0)
(5.48634 5.14102 0)
(6.94952 5.24024 0)
(6.6063 4.29792 0)
(8.08796 3.59377 0)
(8.5368 3.17045 0)
(9.96592 2.30971 0)
(10.0528 1.09837 0)
(10.7982 0.0190109 0)
(10.7675 -1.45695 0)
(11.0552 -2.85074 0)
(9.88535 -3.60632 0)
(9.35564 -3.78679 0)
(7.21843 -3.36118 0)
(6.95357 -2.67855 0)
(4.79147 -1.66838 0)
(5.29699 -0.123469 0)
(2.84484 0.808691 0)
(3.87023 1.02982 0)
(1.4852 0.478381 0)
(3.34919 -0.718348 0)
(1.28942 -2.09533 0)
(3.42158 -3.8498 0)
(0.663263 -5.84449 0)
(3.0602 -4.3524 0)
(-0.526003 -3.21607 0)
(2.80414 -0.267518 0)
(0.0252361 -2.49423 0)
(2.25815 2.41245 0)
(0.494845 -0.850165 0)
(1.98585 5.04134 0)
(2.58677 1.82703 0)
(0.471666 6.6361 0)
(7.26301 3.26275 0)
(2.2651 6.42217 0)
(7.96377 1.22689 0)
(4.56179 5.6405 0)
(8.58361 0.846488 0)
(6.0512 5.07076 0)
(9.52489 1.21238 0)
(7.62226 4.35103 0)
(10.5786 1.02438 0)
(9.26201 2.86379 0)
(11.034 0.189323 0)
(9.60424 1.5008 0)
(10.5905 -0.966999 0)
(9.8121 0.426162 0)
(10.3356 -1.25274 0)
(9.79476 0.95579 0)
(9.88635 -0.304469 0)
(9.7457 1.45294 0)
(10.1576 0.588974 0)
(10.4367 1.54937 0)
(13.3139 -0.318785 0)
(13.3244 -0.105886 0)
(13.6259 0.0933757 0)
(13.6231 -0.189675 0)
(13.5889 -0.195234 0)
(13.8137 -0.554236 0)
(13.6289 -0.921878 0)
(13.4375 -0.975543 0)
(13.284 -1.21994 0)
(12.9628 -1.17894 0)
(12.7932 -1.17909 0)
(12.4641 -1.11759 0)
(12.1543 -0.815045 0)
(11.9336 -0.619174 0)
(11.3543 0.0599193 0)
(11.1605 0.578051 0)
(11.0211 0.817769 0)
(10.6377 1.31903 0)
(11.0073 1.52446 0)
(11.7629 1.41421 0)
(12.4042 0.954488 0)
(13.142 0.0268836 0)
(13.6137 -1.04903 0)
(13.7475 -2.15281 0)
(13.543 -3.16922 0)
(12.9181 -3.91576 0)
(11.545 -4.18167 0)
(9.38138 -4.02699 0)
(7.3304 -3.85801 0)
(6.01178 -3.67444 0)
(5.03925 -3.14839 0)
(4.01391 -2.26476 0)
(2.68079 -1.11579 0)
(1.1504 0.367008 0)
(-0.982903 1.43837 0)
(-1.08335 0.431532 0)
(-1.09357 -2.19846 0)
(-1.52581 -3.97151 0)
(-1.13516 -3.91172 0)
(-0.185595 -2.49562 0)
(-1.22823 -1.84565 0)
(1.45151 -0.805349 0)
(-0.310423 0.441345 0)
(1.93384 2.13706 0)
(1.25931 2.39828 0)
(3.07865 3.86591 0)
(2.84354 4.22118 0)
(4.60001 4.69365 0)
(4.71994 4.78336 0)
(6.46057 4.9183 0)
(6.45183 4.01586 0)
(7.62575 3.25858 0)
(8.23967 2.73454 0)
(9.39889 2.02883 0)
(9.67967 0.928827 0)
(10.3953 -0.143008 0)
(10.4428 -1.49617 0)
(10.3167 -2.61939 0)
(9.0483 -3.19566 0)
(8.23988 -3.24516 0)
(6.29033 -2.86291 0)
(6.02091 -2.23772 0)
(4.09024 -1.26671 0)
(4.72661 0.1886 0)
(2.64603 1.0611 0)
(3.48472 1.25788 0)
(1.88686 0.638259 0)
(2.89277 -0.569884 0)
(1.30252 -2.07537 0)
(3.1568 -3.90355 0)
(0.106572 -5.28917 0)
(1.07234 -3.92993 0)
(-2.29074 -3.1248 0)
(2.1631 -0.48224 0)
(-0.998194 -2.29874 0)
(1.44 2.58688 0)
(-0.113878 -1.03755 0)
(0.867648 5.19811 0)
(2.94914 1.7998 0)
(-0.807471 6.05743 0)
(5.99266 2.0307 0)
(2.6974 6.53393 0)
(6.80943 0.68795 0)
(4.54501 5.54632 0)
(7.90485 0.598778 0)
(6.02291 4.69923 0)
(9.08788 1.08323 0)
(7.54269 3.9067 0)
(10.4881 0.878404 0)
(9.45038 2.53396 0)
(10.7463 0.329375 0)
(9.88546 1.34748 0)
(10.8184 -0.799886 0)
(10.3569 0.202645 0)
(10.4673 -1.04873 0)
(9.82856 0.853156 0)
(9.79218 -0.0370806 0)
(9.6077 1.23808 0)