/*--------------------------------*- C++ -*----------------------------------*\
| =========                 |                                                 |
| \\      /  F ield         | OpenFOAM: The Open Source CFD Toolbox           |
|  \\    /   O peration     | Version:  2.4.0                                 |
|   \\  /    A nd           | Web:      www.OpenFOAM.org                      |
|    \\/     M anipulation  |                                                 |
\*---------------------------------------------------------------------------*/
FoamFile
{
    version     2.0;
    format      ascii;
    class       volScalarField;
    location    "0.239";
    object      pMean;
}
// * * * * * * * * * * * * * * * * * * * * * * * * * * * * * * * * * * * * * //

dimensions      [0 2 -2 0 0 0 0];

internalField   nonuniform List<scalar> 
17600
(
99.5466
83.5878
78.9239
77.5907
76.4374
75.2772
74.1943
73.1762
72.2021
71.2294
70.2692
69.3003
68.3535
67.3954
66.4543
65.4672
64.4543
63.3095
61.9609
59.8762
97.6454
83.6372
78.9645
77.6002
76.4407
75.2777
74.1946
73.1765
72.2023
71.2295
70.2693
69.3004
68.3536
67.3958
66.4544
65.4683
64.4552
63.3117
61.9683
60.0356
96.2374
83.8916
79.1073
77.6381
76.4545
75.2822
74.1968
73.1782
72.2036
71.2302
70.2697
69.3005
68.354
67.3961
66.4554
65.4687
64.4587
63.3126
62.0095
60.1481
95.2646
84.2303
79.3253
77.7025
76.4836
75.2974
74.2055
73.1845
72.2081
71.2333
70.2713
69.302
68.355
67.3988
66.4576
65.4752
64.4641
63.3292
62.0565
60.3126
94.4449
84.5623
79.5866
77.7834
76.5255
75.3263
74.2249
73.199
72.2187
71.2408
70.276
69.3049
68.3581
67.4017
66.4634
65.48
64.479
63.3477
62.1326
60.5181
93.6735
84.8521
79.8609
77.8645
76.567
75.3629
74.2539
73.2223
72.2364
71.2543
70.2844
69.3121
68.3631
67.41
66.4708
65.494
64.4953
63.381
62.2293
60.7613
92.9474
85.097
80.1341
77.9404
76.5986
75.3969
74.2867
73.2509
72.2594
71.2725
70.2969
69.3216
68.3715
67.4195
66.4828
65.5101
64.5177
63.4251
62.339
61.0606
92.2767
85.2998
80.3998
78.0133
76.6197
75.4231
74.3187
73.2814
72.2843
71.2926
70.3108
69.3332
68.3813
67.4323
66.4982
65.5312
64.5481
63.4764
62.4459
61.4276
91.6667
85.4644
80.6501
78.0886
76.6325
75.4409
74.3474
73.3119
72.3096
71.3129
70.3247
69.3454
68.3909
67.4468
66.5122
65.5585
64.5744
63.5448
62.5231
61.787
91.1195
85.5919
80.8819
78.1685
76.639
75.4508
74.372
73.341
72.3344
71.3322
70.3379
69.3565
68.4012
67.4607
66.5298
65.5849
64.61
63.613
62.6333
62.1831
90.6336
85.6846
81.0943
78.2532
76.6404
75.454
74.3925
73.3687
72.3582
71.3505
70.3498
69.3673
68.4103
67.4749
66.5463
65.6128
64.6498
63.6837
62.7763
62.5256
90.2062
85.7467
81.2872
78.3425
76.638
75.4516
74.409
73.3945
72.3812
71.3676
70.3606
69.3768
68.42
67.4887
66.5648
65.6412
64.6929
63.7614
62.9268
62.8272
89.8346
85.784
81.4603
78.4344
76.6332
75.4446
74.4221
73.4183
72.403
71.3835
70.3706
69.3855
68.4295
67.5024
66.5843
65.6702
64.7413
63.8426
63.0811
63.0975
89.5162
85.8033
81.6128
78.5241
76.628
75.4346
74.4324
73.4396
72.4235
71.3978
70.3797
69.3933
68.4394
67.5159
66.6049
65.7009
64.7923
63.9279
63.2346
63.3413
89.2478
85.8121
81.7436
78.6047
76.6243
75.4234
74.4403
73.4584
72.442
71.4108
70.388
69.4007
68.4489
67.5301
66.6259
65.7337
64.8445
64.0164
63.3868
63.5623
89.027
85.8152
81.8517
78.6738
76.6226
75.4123
74.4463
73.4745
72.4583
71.4221
70.3955
69.4077
68.4588
67.5439
66.6486
65.766
64.9013
64.1025
63.5478
63.7581
88.8528
85.815
81.9369
78.7302
76.6228
75.4017
74.4507
73.4877
72.4723
71.4313
70.4027
69.4138
68.4695
67.5577
66.6729
65.7995
64.9593
64.188
63.7045
63.9776
88.7234
85.8135
81.9995
78.7738
76.6239
75.3932
74.4536
73.4982
72.4829
71.4396
70.4082
69.4211
68.4783
67.5738
66.6943
65.8379
65.0132
64.2799
63.8158
64.1459
88.638
85.8115
82.0408
78.8033
76.6258
75.3869
74.4557
73.5054
72.4912
71.4456
70.414
69.4273
68.4888
67.5888
66.7186
65.8749
65.0698
64.3687
63.9305
64.3428
88.5957
85.8101
82.0611
78.8185
76.627
75.3839
74.4568
73.5098
72.4959
71.4501
70.4186
69.4339
68.4986
67.6045
66.7426
65.9127
65.1272
64.4552
64.0574
64.5111
88.596
85.8098
82.0612
78.8187
76.6273
75.3843
74.4572
73.511
72.4973
71.4528
70.4226
69.4403
68.5088
67.62
66.7679
65.9497
65.1868
64.5371
64.2004
64.6551
88.6392
85.8106
82.0412
78.8037
76.6268
75.3879
74.4572
73.5086
72.4961
71.4532
70.4267
69.446
68.5199
67.6348
66.7943
65.9868
65.2468
64.6176
64.3362
64.8302
88.7252
85.812
82.0002
78.7745
76.6255
75.3952
74.456
73.5039
72.4907
71.4529
70.4284
69.4535
68.5286
67.6528
66.8174
66.0284
65.3006
64.705
64.4208
64.9469
88.8554
85.8129
81.9379
78.7312
76.625
75.4044
74.4542
73.4954
72.4832
71.4497
70.4309
69.4594
68.5391
67.669
66.8428
66.0685
65.3567
64.7881
64.5052
65.1044
89.0304
85.8124
81.8529
78.675
76.6256
75.4153
74.451
73.4841
72.4726
71.4452
70.4322
69.4654
68.5493
67.6853
66.8686
66.1079
65.4148
64.8663
64.6049
65.2373
89.2518
85.8087
81.745
78.6063
76.628
75.4269
74.4463
73.4698
72.4596
71.4388
70.4328
69.4709
68.5593
67.7015
66.8947
66.1472
65.474
64.9429
64.7137
65.3441
89.521
85.7994
81.6143
78.526
76.6325
75.4384
74.4397
73.4525
72.4444
71.4305
70.4329
69.4757
68.5695
67.7175
66.921
66.187
65.5331
65.0213
64.8155
65.4565
89.84
85.7798
81.4617
78.4368
76.6384
75.4491
74.4306
73.4328
72.4271
71.4211
70.4315
69.4804
68.5784
67.7345
66.9459
66.229
65.59
65.1053
64.8914
65.5341
90.2121
85.7424
81.2885
78.3447
76.6442
75.4565
74.4188
73.4105
72.4087
71.4097
70.4298
69.4833
68.5881
67.75
66.972
66.2694
65.6497
65.1887
64.9706
65.6123
90.6398
85.68
81.0956
78.2554
76.6473
75.4598
74.4034
73.3861
72.389
71.3971
70.4268
69.4851
68.5975
67.7646
66.9987
66.3083
65.7119
65.271
65.0646
65.6588
91.1261
85.587
80.8831
78.1708
76.6463
75.4576
74.384
73.36
72.3682
71.3833
70.4223
69.486
68.6061
67.7785
67.0248
66.3462
65.7749
65.3539
65.1732
65.6751
91.6737
85.4592
80.6514
78.0911
76.6402
75.4486
74.3605
73.3323
72.3466
71.3682
70.4165
69.4855
68.6142
67.7911
67.0506
66.3817
65.8383
65.4343
65.2941
65.6703
92.2838
85.2947
80.401
78.0161
76.6275
75.4318
74.333
73.3035
72.3243
71.3523
70.4096
69.4843
68.621
67.8026
67.0742
66.4146
65.8972
65.51
65.4068
65.6746
92.9547
85.0921
80.1353
77.9436
76.6066
75.4065
74.3023
73.2746
72.3021
71.3363
70.4021
69.4826
68.6265
67.8128
67.0944
66.4441
65.9473
65.5777
65.4939
65.6609
93.6807
84.8476
79.8623
77.8678
76.5752
75.3733
74.2708
73.2474
72.2816
71.3217
70.3954
69.4812
68.6313
67.8214
67.1112
66.4684
65.9877
65.6312
65.5609
65.6804
94.4522
84.5581
79.5881
77.7867
76.5339
75.3372
74.2429
73.2254
72.2658
71.3111
70.391
69.4809
68.6356
67.8286
67.1242
66.4869
66.0173
65.6701
65.6062
65.6944
95.2718
84.2264
79.327
77.7059
76.4921
75.3088
74.2243
73.2117
72.2565
71.3054
70.3894
69.4817
68.6392
67.8339
67.1331
66.4996
66.0363
65.6958
65.6314
65.7119
96.2445
83.8878
79.1092
77.6415
76.4631
75.2938
74.216
73.2059
72.2528
71.3035
70.3892
69.4829
68.6415
67.8372
67.1381
66.5067
66.0465
65.7097
65.6439
65.732
97.6525
83.6337
78.9664
77.6036
76.4493
75.2895
74.214
73.2043
72.2517
71.3031
70.3894
69.4836
68.6425
67.8385
67.1399
66.5093
66.0499
65.7144
65.6475
65.7555
99.5537
83.5843
78.9257
77.5941
76.446
75.289
74.2137
73.2041
72.2515
71.3031
70.3895
69.4836
68.6425
67.8385
67.14
66.5093
66.0499
65.7141
65.6463
65.7913
58.4
57.708
56.7077
55.7711
54.89
54.1379
53.3765
52.6025
51.8053
50.9299
49.9907
48.9906
47.9542
46.8472
45.7729
44.738
43.7397
42.9114
42.29
41.9147
41.7988
41.9386
42.3574
43.0264
43.8607
44.8666
45.9987
47.2042
48.4276
49.6018
50.7144
51.7556
52.71
53.5785
54.3747
55.1305
55.8604
56.5491
57.1884
57.7718
58.2717
58.6711
58.9863
59.2493
59.4649
59.6218
59.7309
59.7931
59.7899
59.7276
59.6431
59.5458
59.4158
59.2444
59.0468
58.8452
58.6506
58.4624
58.2914
58.1405
58.0111
57.9019
57.7979
57.7103
57.651
57.6201
57.6094
57.6133
57.6261
57.6395
57.6484
57.6481
57.6356
57.6064
57.5645
57.5333
57.542
57.6004
57.7054
57.8617
58.0675
58.3151
58.595
58.8858
59.1776
59.4636
59.7374
60.0088
60.281
60.5556
60.8286
61.0927
61.3501
61.5911
61.8236
62.0352
62.2259
62.3986
62.5578
62.685
62.7833
62.8563
62.9045
62.932
62.9415
62.9377
62.9238
62.8999
62.877
62.8544
62.8376
62.8187
62.8078
62.7918
62.7787
62.7551
62.7391
62.7282
62.7506
62.8158
62.9158
63.0514
63.2122
63.4095
63.6466
63.891
64.1573
64.3984
64.641
64.8566
65.0461
65.2267
65.3683
65.5057
65.622
65.7448
65.8646
65.9959
66.1319
66.2656
66.3994
66.5154
66.6326
66.7231
66.8122
66.8785
66.9513
67.0068
67.0741
67.1423
67.2242
67.3136
67.406
67.5048
67.5985
67.7054
67.8049
67.908
68.0217
68.1296
68.2302
68.2897
68.3479
68.3618
68.3874
68.3809
68.3895
68.3737
68.3921
68.3924
68.4266
68.4368
68.4934
68.5152
68.5943
68.6137
68.7266
68.7317
68.9014
68.8741
69.1073
69.0665
69.3453
69.3037
69.5507
69.5222
69.6881
69.6125
69.6745
69.4758
69.3444
68.9242
68.4846
67.6831
66.676
65.0813
62.7455
58.6614
53.3017
29.7129
58.6722
58.0124
57.1658
56.3719
55.615
54.9613
54.3114
53.6364
52.9248
52.1342
51.256
50.3005
49.2868
48.1796
47.0857
46.0496
45.0537
44.214
43.5997
43.2284
43.1105
43.2491
43.6585
44.3157
45.1458
46.1267
47.2206
48.372
49.5452
50.6802
51.7572
52.7581
53.6668
54.4822
55.2145
55.895
56.546
57.1565
57.7119
58.2119
58.6372
58.9623
59.195
59.3696
59.498
59.5708
59.6092
59.6236
59.5861
59.4884
59.3653
59.229
59.0619
58.8599
58.6348
58.4057
58.1836
57.9694
57.7744
57.6027
57.4598
57.3409
57.2292
57.1424
57.092
57.0735
57.0756
57.0926
57.1194
57.1458
57.1676
57.181
57.183
57.1706
57.15
57.1488
57.193
57.2891
57.4353
57.6375
57.8933
58.1911
58.5204
58.8606
59.1972
59.5213
59.8283
60.1271
60.4214
60.7137
60.9999
61.2721
61.5315
61.7694
61.9942
62.1944
62.3766
62.5457
62.7044
62.8348
62.9372
63.0121
63.0605
63.085
63.0892
63.0767
63.0545
63.0202
62.9876
62.9535
62.9256
62.8936
62.8712
62.8431
62.8196
62.7862
62.762
62.7421
62.7506
62.8041
62.8958
63.0246
63.1786
63.3669
63.595
63.8323
64.0945
64.3406
64.5817
64.8081
65.0028
65.1938
65.3444
65.4876
65.6123
65.7378
65.8596
65.9916
66.1272
66.2627
66.3957
66.513
66.6284
66.7177
66.803
66.8612
66.9263
66.9717
67.0311
67.0857
67.1597
67.2367
67.3228
67.4134
67.5009
67.6034
67.7
67.8007
67.9082
68.0081
68.0957
68.1439
68.1881
68.1834
68.1914
68.1608
68.1474
68.1016
68.0926
68.0595
68.072
68.048
68.0882
68.0744
68.1409
68.1211
68.2303
68.1922
68.3666
68.2983
68.5265
68.4574
68.7085
68.6575
68.8581
68.8212
68.9545
68.8579
68.8811
68.6479
68.4621
67.9675
67.4212
66.4662
65.2409
63.2668
60.6158
55.1544
49.304
22.6943
58.9829
58.3809
57.6102
56.8872
56.2155
55.6293
55.0655
54.4784
53.8415
53.1289
52.3115
51.4143
50.4521
49.3804
48.296
47.2766
46.3092
45.489
44.8971
44.5326
44.4251
44.5706
44.9697
45.6083
46.4214
47.3723
48.4278
49.533
50.6592
51.7569
52.7995
53.7612
54.6261
55.3932
56.0681
56.6771
57.2479
57.779
58.2535
58.6706
59.0195
59.2705
59.4241
59.5137
59.5584
59.5514
59.5215
59.4879
59.4161
59.287
59.1306
58.9577
58.7564
58.5275
58.2795
58.0271
57.7811
57.5437
57.3277
57.1382
56.9848
56.8574
56.7416
56.6594
56.6206
56.6158
56.6328
56.6646
56.7068
56.7483
56.7854
56.8149
56.8341
56.8419
56.8468
56.8788
56.9599
57.0939
57.2804
57.5268
57.8306
58.1763
58.5513
58.9383
59.3185
59.6798
60.0192
60.3441
60.6575
60.9631
61.2576
61.5338
61.7925
62.0257
62.243
62.4323
62.6079
62.7752
62.9342
63.0683
63.1769
63.2558
63.3063
63.3277
63.3273
63.3052
63.2736
63.2272
63.1835
63.1353
63.0944
63.0471
63.0112
62.9687
62.9324
62.8871
62.8508
62.819
62.813
62.8525
62.9342
63.0526
63.1988
63.3772
63.5961
63.8254
64.0814
64.3321
64.5722
64.8099
65.0121
65.2141
65.3755
65.5277
65.6609
65.7921
65.9162
66.0491
66.1827
66.3179
66.4474
66.5652
66.6755
66.7639
66.8449
66.8968
66.952
66.9878
67.0368
67.0782
67.1413
67.2057
67.2836
67.3662
67.4478
67.5455
67.6402
67.7429
67.8425
67.9323
68.0054
68.0442
68.0741
68.0518
68.0427
67.9849
67.9516
67.8755
67.8388
67.768
67.759
67.6982
67.7222
67.6675
67.7218
67.6613
67.7642
67.6848
67.8566
67.755
67.9635
67.8744
68.0796
68.0238
68.178
68.1291
68.223
68.1097
68.0791
67.816
67.5621
67.0014
66.3325
65.2088
63.802
61.3703
58.6408
51.6625
45.5297
20.7183
59.2775
58.7588
58.0807
57.3782
56.7371
56.1883
55.6948
55.1915
54.6278
53.9898
53.2377
52.3964
51.4964
50.4873
49.4418
48.4625
47.542
46.759
46.1972
45.8522
45.7607
45.9115
46.2922
46.9029
47.6865
48.6024
49.6181
50.6818
51.7605
52.817
53.8234
54.7489
55.5721
56.2955
56.9214
57.4661
57.9604
58.4121
58.8072
59.1434
59.4147
59.5923
59.6712
59.6824
59.6485
59.5687
59.4742
59.3901
59.2813
59.1243
58.941
58.7356
58.5044
58.2524
57.9842
57.7113
57.4445
57.1884
56.9553
56.7512
56.59
56.4558
56.3395
56.2665
56.241
56.2515
56.2843
56.333
56.392
56.4511
56.5067
56.5555
56.5943
56.6254
56.6595
56.7275
56.8461
57.0185
57.2446
57.5331
57.8811
58.271
58.6882
59.1182
59.5385
59.9343
60.3051
60.654
60.9841
61.2998
61.598
61.8747
62.1305
62.3573
62.5674
62.7476
62.9198
63.0871
63.2474
63.3843
63.4995
63.5825
63.6369
63.6554
63.6511
63.6195
63.577
63.5169
63.4614
63.3979
63.3426
63.2787
63.2276
63.169
63.1189
63.0596
63.0086
62.9619
62.941
62.9637
63.0337
63.1383
63.2768
63.4443
63.6545
63.8746
64.1237
64.377
64.6179
64.8644
65.0775
65.2901
65.4623
65.6257
65.7672
65.9047
66.0316
66.1653
66.2965
66.43
66.5542
66.6711
66.7755
66.8625
66.9382
66.9841
67.0289
67.0552
67.0928
67.1206
67.1723
67.2232
67.2933
67.3665
67.4432
67.5345
67.6289
67.7332
67.8249
67.9021
67.9629
67.9933
68.0081
67.9677
67.9395
67.8532
67.7993
67.6938
67.6319
67.5225
67.4877
67.3875
67.3941
67.2987
67.3373
67.2388
67.3325
67.2136
67.3743
67.2442
67.4217
67.3183
67.465
67.4068
67.5121
67.4517
67.5017
67.3708
67.2791
66.9822
66.6479
66.0168
65.2441
63.9199
62.4385
59.3965
56.8392
48.4683
42.0692
21.1577
59.5841
59.1466
58.564
57.8691
57.2224
56.6959
56.2594
55.836
55.3521
54.7832
54.0966
53.3073
52.4704
51.5399
50.5541
49.6329
48.7809
48.0474
47.5234
47.2072
47.1288
47.2735
47.6261
48.1974
48.9416
49.8156
50.787
51.8072
52.8379
53.8482
54.8145
55.7064
56.4931
57.1768
57.7597
58.2485
58.674
59.0492
59.367
59.6254
59.8201
59.9262
59.9352
59.8757
59.7706
59.6258
59.4697
59.3323
59.1842
59.003
58.7981
58.5667
58.3108
58.0387
57.7521
57.4608
57.176
56.906
56.6604
56.4455
56.2789
56.1403
56.0279
55.9677
55.9565
55.9831
56.0327
56.0996
56.1781
56.2579
56.3351
56.4059
56.4667
56.5238
56.5904
56.6958
56.8525
57.0631
57.3287
57.6565
58.0452
58.4752
58.9307
59.3987
59.8538
60.2808
60.6801
61.0508
61.3954
61.7182
62.0179
62.2921
62.5431
62.7626
62.9659
63.139
63.311
63.4807
63.6427
63.7811
63.9019
63.9884
64.0464
64.0621
64.0536
64.013
63.9598
63.8851
63.8175
63.7381
63.6684
63.5873
63.5201
63.4436
63.3789
63.3039
63.2374
63.1731
63.1367
63.1394
63.1954
63.2841
63.4154
63.5718
63.7741
63.9837
64.2263
64.4792
64.7238
64.9755
65.2016
65.4216
65.6053
65.7789
65.9288
66.0718
66.2022
66.3373
66.4665
66.5963
66.7154
66.8287
66.9268
67.0106
67.0807
67.1202
67.1551
67.1713
67.1986
67.2136
67.2542
67.2911
67.354
67.4167
67.4892
67.5734
67.668
67.7712
67.8539
67.9182
67.9695
67.9908
67.9878
67.9285
67.8784
67.7651
67.6911
67.5547
67.471
67.3218
67.2612
67.119
67.1051
66.9667
66.9897
66.8488
66.9348
66.7772
66.9165
66.7662
66.9005
66.7904
66.8761
66.8114
66.8674
66.7961
66.8
66.6451
66.4971
66.154
65.7515
65.0084
64.1915
62.5604
61.1862
57.368
55.1695
45.7491
38.8692
21.8521
59.9547
59.5719
59.0358
58.3338
57.667
57.156
56.7752
56.4329
56.0333
55.5342
54.9168
54.1882
53.4135
52.5687
51.6593
50.8044
50.0287
49.356
48.8731
48.5869
48.5157
48.6484
48.9696
49.4926
50.1879
51.0108
51.9305
52.9027
53.8855
54.8457
55.7665
56.6236
57.3797
58.0292
58.5704
59.0081
59.3733
59.6787
59.9241
60.1105
60.2321
60.2714
60.2176
60.0943
59.9275
59.7248
59.5089
59.3175
59.1306
58.9278
58.7059
58.4543
58.1792
57.89
57.5857
57.2783
56.9785
56.6993
56.4461
56.2241
56.0548
55.9152
55.811
55.7658
55.7695
55.8116
55.8789
55.9664
56.067
56.1703
56.2722
56.3677
56.4531
56.5384
56.6398
56.7831
56.9775
57.2253
57.5297
57.8959
58.3217
58.7874
59.2777
59.7771
60.2611
60.715
61.1389
61.5286
61.886
62.2143
62.5139
62.7837
63.029
63.2398
63.4369
63.6049
63.7797
63.9528
64.1166
64.2551
64.3796
64.4681
64.5297
64.543
64.5293
64.4788
64.4158
64.3272
64.2478
64.153
64.0697
63.9717
63.8879
63.7925
63.7124
63.621
63.5386
63.4548
63.4022
63.3822
63.4221
63.4938
63.6188
63.7633
63.9581
64.1564
64.3933
64.6429
64.8922
65.146
65.3853
65.61
65.8045
65.9854
66.1451
66.2908
66.4258
66.5619
66.6902
66.8147
66.93
67.0374
67.1294
67.2053
67.2684
67.3009
67.3289
67.3356
67.3551
67.3583
67.3894
67.4107
67.4671
67.5172
67.5878
67.6619
67.7583
67.8553
67.9291
67.9806
68.0276
68.0339
68.013
67.9322
67.8599
67.719
67.6283
67.4601
67.3565
67.166
67.0787
66.8961
66.8592
66.6739
66.6835
66.4945
66.5721
66.3791
66.4852
66.3211
66.4036
66.2853
66.3204
66.2395
66.2527
66.1595
66.124
65.9254
65.7484
65.3165
64.9022
63.9606
63.2327
61.1275
60.042
55.3611
53.4566
43.5338
35.8426
22.0247
60.3995
60.0445
59.4779
58.7323
58.0439
57.5578
57.243
56.985
56.6733
56.2495
55.7057
55.0502
54.3413
53.5816
52.7604
51.9783
51.2757
50.6692
50.2257
49.9652
49.8991
50.021
50.314
50.7858
51.4237
52.1879
53.0501
53.9691
54.9006
55.8103
56.6821
57.4985
58.2235
58.8418
59.3446
59.7328
60.0436
60.2888
60.47
60.5914
60.6469
60.6265
60.5181
60.338
60.1197
59.8655
59.5925
59.3486
59.1259
58.9033
58.6666
58.399
58.1094
57.8055
57.4864
57.1671
56.857
56.572
56.3138
56.0882
55.9199
55.7838
55.6919
55.6627
55.6805
55.7374
55.8226
55.9337
56.0588
56.1882
56.3178
56.4408
56.5528
56.6675
56.8047
56.9856
57.2165
57.5007
57.8437
58.2474
58.7072
59.2051
59.7257
60.2503
60.7571
61.2326
61.6766
62.0819
62.4504
62.783
63.0823
63.3474
63.5865
63.7878
63.979
64.1441
64.3239
64.4995
64.664
64.8012
64.9271
65.0155
65.0799
65.0914
65.0728
65.012
64.9397
64.8385
64.7474
64.6385
64.5431
64.429
64.3288
64.2149
64.1195
64.0109
63.9136
63.8098
63.7407
63.6964
63.7194
63.7724
63.8911
64.0227
64.2096
64.3954
64.6273
64.8705
65.1245
65.3761
65.6272
65.8526
66.0574
66.2417
66.4128
66.5581
66.7012
66.8342
66.9644
67.0814
67.1956
67.2923
67.3816
67.4437
67.5015
67.5218
67.5485
67.5427
67.5614
67.5497
67.5781
67.5803
67.6331
67.6653
67.7396
67.7981
67.9004
67.9824
68.0517
68.088
68.1377
68.1192
68.0825
67.9748
67.8856
67.7183
67.6098
67.4078
67.2867
67.0569
66.9427
66.7162
66.657
66.4201
66.4217
66.1765
66.2434
66.0158
66.084
65.9035
65.9365
65.7982
65.8004
65.6894
65.6778
65.5363
65.4885
65.1966
65.0577
64.4392
64.124
62.8223
62.3399
59.6411
58.9307
53.4708
51.5688
41.764
32.9642
21.784
61.0375
60.6189
59.8577
59.0015
58.3092
57.8822
57.6522
57.4835
57.261
56.9214
56.4583
55.8824
55.244
54.5677
53.8412
53.1368
52.5025
51.9587
51.5549
51.3176
51.2573
51.3704
51.6404
52.0661
52.6443
53.3465
54.1454
55.0043
55.8807
56.7397
57.561
58.3316
59.0195
59.6035
60.07
60.4138
60.6753
60.8698
60.9957
61.0602
61.0593
60.9872
60.8314
60.604
60.3435
60.0449
59.719
59.4269
59.172
58.9298
58.6783
58.3978
58.0977
57.7837
57.4552
57.1293
56.8143
56.5264
56.2645
56.0386
55.8759
55.748
55.6718
55.6581
55.6883
55.7592
55.8634
56.0003
56.1523
56.3104
56.4701
56.622
56.7613
56.9065
57.0796
57.2971
57.5635
57.8831
58.2638
58.7052
59.1954
59.7225
60.2696
60.8143
61.3379
61.8301
62.2889
62.7064
63.0839
63.4201
63.7201
63.98
64.2136
64.4054
64.5906
64.7539
64.9393
65.1158
65.2786
65.4123
65.5372
65.6245
65.6898
65.7
65.6778
65.6074
65.5269
65.414
65.3124
65.1902
65.084
64.9552
64.8397
64.7085
64.5989
64.4731
64.3624
64.2383
64.1524
64.0844
64.0908
64.1237
64.2341
64.3514
64.5296
64.7018
64.9294
65.1631
65.4209
65.6662
65.9249
66.1469
66.362
66.5452
66.7269
66.8719
67.0254
67.1507
67.2852
67.3925
67.5081
67.5887
67.6786
67.7217
67.7777
67.7807
67.8105
67.7874
67.8117
67.7818
67.8146
67.7949
67.8491
67.8584
67.9423
67.9791
68.092
68.1484
68.223
68.2385
68.299
68.2419
68.1963
68.0546
67.9565
67.7577
67.6417
67.3976
67.2605
66.982
66.8538
66.5756
66.5038
66.2043
66.2072
65.8975
65.9524
65.6846
65.7169
65.507
65.5056
65.3254
65.3234
65.1428
65.1523
64.8971
64.9069
64.4319
64.4249
63.502
63.4027
61.6306
61.4682
58.1492
57.7532
51.7742
49.2463
40.2847
30.6034
21.5601
61.9735
61.4164
60.2098
59.1712
58.4889
58.1465
58.0129
57.9351
57.8001
57.5483
57.1685
56.6741
56.1086
55.5101
54.8754
54.2514
53.6832
53.1957
52.8334
52.6218
52.5696
52.6756
52.9265
53.3155
53.8405
54.4821
55.2145
56.0075
56.8255
57.6323
58.4019
59.1215
59.7656
60.3096
60.7381
61.0418
61.2603
61.4117
61.4935
61.5099
61.463
61.3481
61.1515
60.8851
60.5904
60.2558
59.8838
59.5503
59.2668
59.0049
58.7374
58.4459
58.141
57.8242
57.4944
57.1689
56.8529
56.5628
56.2976
56.076
55.9232
55.8078
55.7497
55.7509
55.7924
55.8762
56.0002
56.1649
56.3456
56.5338
56.7247
56.9061
57.0734
57.2496
57.4574
57.7095
58.01
58.3647
58.782
59.2597
59.7787
60.3325
60.9031
61.4632
61.9986
62.5024
62.971
63.3973
63.7815
64.1212
64.4229
64.6775
64.9061
65.0899
65.2693
65.4312
65.6207
65.7954
65.9533
66.0808
66.2015
66.2858
66.3519
66.3611
66.3377
66.2592
66.1712
66.0482
65.9377
65.8031
65.6872
65.5455
65.4171
65.2697
65.1471
65.0051
64.8822
64.7386
64.6359
64.5457
64.5362
64.5481
64.6473
64.7486
64.9173
65.0754
65.2978
65.5197
65.7784
66.014
66.2766
66.4922
66.7172
66.8942
67.0862
67.2305
67.394
67.5087
67.6496
67.7443
67.8624
67.9243
68.0169
68.0376
68.093
68.075
68.1092
68.0658
68.0983
68.0488
68.092
68.0496
68.1115
68.094
68.1915
68.2
68.3288
68.3476
68.4412
68.4265
68.5058
68.3961
68.3544
68.1673
68.0771
67.8327
67.7237
67.4223
67.2826
66.9395
66.8149
66.467
66.4041
66.025
66.0427
65.6557
65.7104
65.3759
65.3928
65.1177
65.1209
64.8571
64.8946
64.5885
64.6741
64.2312
64.3622
63.63
63.7768
62.5027
62.6325
60.3937
60.5559
56.7294
56.2748
50.34
46.4348
38.9465
29.2022
21.7863
62.7259
62.0935
60.5814
59.3837
58.6769
58.3906
58.3408
58.3494
58.2992
58.132
57.8317
57.4149
56.9216
56.393
55.8411
55.296
54.7922
54.3581
54.038
53.8549
53.8159
53.9195
54.1557
54.5168
54.9972
55.5827
56.2505
56.9767
57.7326
58.4836
59.1998
59.8645
60.4571
60.9577
61.3477
61.614
61.7924
61.9071
61.9548
61.9342
61.8523
61.7056
61.4755
61.1772
60.8532
60.4904
60.0813
59.7143
59.4073
59.1248
58.8404
58.5415
58.2379
57.9262
57.6047
57.2864
56.9725
56.6796
56.4123
56.2002
56.0613
55.9616
55.9221
55.9378
55.9913
56.0879
56.232
56.4253
56.6353
56.8545
57.0762
57.287
57.4835
57.6903
57.9304
58.2143
58.5476
58.9355
59.3884
59.9004
60.4475
61.026
61.6171
62.1893
62.7335
63.2444
63.7177
64.1498
64.5387
64.8803
65.1839
65.4343
65.659
65.8358
66.0101
66.1701
66.361
66.5308
66.6798
66.797
66.9117
66.9907
67.0576
67.0666
67.0444
66.9601
66.8657
66.7349
66.6173
66.4725
66.3476
66.1949
66.0559
65.8938
65.7582
65.6009
65.4671
65.305
65.1866
65.0762
65.0512
65.042
65.1272
65.2113
65.37
65.5134
65.7301
65.9382
66.1936
66.416
66.679
66.8865
67.1198
67.289
67.4908
67.6326
67.8049
67.9076
68.0546
68.1347
68.2545
68.2961
68.3914
68.3905
68.4459
68.4042
68.4407
68.3755
68.4158
68.3462
68.401
68.3365
68.4115
68.3661
68.4795
68.4558
68.6016
68.5758
68.699
68.6439
68.7475
68.5747
68.5487
68.3035
68.2398
67.9348
67.8476
67.4701
67.348
66.9238
66.8285
66.3835
66.3537
65.8728
65.9243
65.4411
65.5098
65.0817
65.109
64.7333
64.7751
64.3871
64.491
64.0151
64.2013
63.5412
63.8049
62.79
63.0832
61.4802
61.8053
59.2291
59.4269
55.4772
54.2426
48.9676
43.8961
37.8838
28.7708
22.4741
63.3272
62.6714
60.9837
59.6584
58.8997
58.6333
58.6455
58.7304
58.7579
58.6689
58.4445
58.1012
57.6775
57.2123
56.7298
56.257
55.8166
55.4353
55.1567
55.004
54.9814
55.0874
55.3147
55.6541
56.0975
56.6331
57.2421
57.9034
58.5941
59.2859
59.9467
60.5546
61.092
61.5443
61.8954
62.1303
62.2738
62.3556
62.3757
62.3275
62.2213
62.0541
61.801
61.4785
61.1301
60.7454
60.3075
59.9154
59.5893
59.287
58.9853
58.6838
58.3879
58.0882
57.783
57.4795
57.17
56.8739
56.6071
56.4107
56.2893
56.2069
56.1857
56.2152
56.2809
56.3919
56.5576
56.7795
57.0182
57.2681
57.5197
57.7595
57.9858
58.2221
58.4917
58.8046
59.1682
59.5872
60.0726
60.6166
61.1909
61.7922
62.4007
62.9833
63.5341
64.0485
64.5235
64.9578
65.3488
65.6904
65.9957
66.2431
66.4655
66.6361
66.8054
66.963
67.1512
67.3122
67.4495
67.552
67.6587
67.7326
67.8003
67.8094
67.7892
67.702
67.6034
67.4674
67.3445
67.1915
67.0587
66.8973
66.7497
66.5751
66.4264
66.2539
66.1093
65.9312
65.799
65.6705
65.6304
65.5994
65.6692
65.7353
65.884
66.0123
66.2216
66.4139
66.6625
66.8688
67.1281
67.3254
67.5648
67.7268
67.9369
68.0743
68.2544
68.345
68.4959
68.5621
68.6833
68.7044
68.7987
68.777
68.8317
68.7669
68.8028
68.7168
68.7608
68.6724
68.735
68.6509
68.7382
68.6692
68.7953
68.7437
68.8994
68.8321
68.9828
68.8866
69.0097
68.7709
68.7689
68.4599
68.4285
68.0522
68.0045
67.5381
67.4455
66.9177
66.8727
66.3087
66.335
65.732
65.8347
65.2416
65.3366
64.7967
64.8579
64.3515
64.448
63.9084
64.0767
63.4107
63.6846
62.8229
63.1726
61.9426
62.3234
60.5441
60.832
58.2947
57.9088
54.2916
51.9687
47.4763
42.1617
37.3813
29.1681
23.4332
63.7997
63.1627
61.3929
59.9826
59.1694
58.8926
58.9367
59.0784
59.174
59.1587
59.009
58.7366
58.3783
57.9725
57.5483
57.1368
56.7578
56.4285
56.1897
56.067
56.0632
56.1739
56.3948
56.7156
57.1276
57.6201
58.1775
58.7797
59.4074
60.0378
60.6392
61.188
61.6692
62.0721
62.3839
62.592
62.708
62.7631
62.7601
62.6922
62.5697
62.3917
62.1278
61.7885
61.4218
61.0176
60.5595
60.1502
59.8099
59.4885
59.1716
58.8715
58.5903
58.3096
58.0256
57.7415
57.4399
57.1421
56.8798
56.7053
56.6052
56.5405
56.5359
56.5787
56.658
56.7848
56.9741
57.2245
57.491
57.77
58.0505
58.3186
58.5742
58.8395
59.1358
59.4738
59.8651
60.3122
60.8256
61.398
61.998
62.6203
63.2431
63.835
64.3906
64.9058
65.3814
65.8147
66.2057
66.5439
66.8494
67.0951
67.316
67.4812
67.646
67.7984
67.9804
68.1291
68.2528
68.3389
68.4365
68.5042
68.5734
68.5828
68.5651
68.4767
68.3765
68.2368
68.112
67.9525
67.8136
67.6451
67.4908
67.3059
67.1447
66.9577
66.8015
66.6108
66.4665
66.321
66.2666
66.2147
66.2669
66.3151
66.4541
66.5679
66.767
66.9418
67.1804
67.3688
67.6197
67.8045
68.0465
68.2025
68.4189
68.5516
68.7372
68.818
68.9689
69.022
69.1427
69.1469
69.2363
69.1959
69.2452
69.1595
69.1918
69.0887
69.1305
69.0253
69.0888
68.9889
69.0835
68.998
69.1317
69.0599
69.2153
69.1164
69.2827
69.1524
69.2811
68.9853
68.9964
68.6327
68.6251
68.1847
68.1634
67.6118
67.5483
66.9184
66.9232
66.2304
66.3211
65.5866
65.743
65.0257
65.1637
64.4854
64.6199
63.9529
64.1271
63.4214
63.6451
62.8407
63.1436
62.1805
62.4881
61.221
61.4673
59.7719
59.6354
57.3813
56.1555
52.9697
50.048
46.2413
41.2101
37.433
30.0729
24.4904
64.1809
63.5798
61.7937
60.3392
59.4782
59.1688
59.2158
59.3959
59.5516
59.6067
59.5304
59.3268
59.0301
58.6794
58.3064
57.9464
57.6228
57.3444
57.1433
57.0483
57.0627
57.1799
57.3945
57.6976
58.0819
58.5372
59.0476
59.5958
60.1649
60.7335
61.2731
61.7623
62.189
62.5443
62.8203
63.0044
63.0988
63.1321
63.1118
63.0315
62.9008
62.7182
62.4545
62.1066
61.7248
61.3032
60.8332
60.4151
60.0668
59.7276
59.3992
59.1045
58.843
58.5872
58.3291
58.0664
57.7751
57.4791
57.2279
57.0804
57.0056
56.9588
56.9685
57.0241
57.1186
57.264
57.4775
57.7555
58.0486
58.3556
58.6637
58.9595
59.2434
59.5368
59.8569
60.2167
60.6323
61.1032
61.6394
62.235
62.8579
63.4987
64.1332
64.7329
65.2919
65.807
66.2831
66.7126
67.1021
67.4329
67.7363
67.9808
68.1992
68.3596
68.52
68.6642
68.8376
68.9712
69.0814
69.1507
69.24
69.3006
69.372
69.3799
69.3655
69.2762
69.1772
69.0348
68.9117
68.7469
68.6068
68.431
68.2721
68.0786
67.9058
67.7056
67.538
67.3372
67.1826
67.0194
66.9509
66.8801
66.9151
66.9444
67.0732
67.1727
67.3607
67.5174
67.7428
67.9119
68.1506
68.3192
68.5601
68.7106
68.9317
69.0594
69.2488
69.322
69.4719
69.513
69.6309
69.6205
69.7008
69.6432
69.6838
69.5802
69.6059
69.4879
69.5238
69.4028
69.46
69.3465
69.4418
69.3453
69.4817
69.3959
69.5448
69.4239
69.5924
69.4387
69.5578
69.2179
69.2282
68.825
68.8199
68.3384
68.3255
67.7066
67.6413
66.9435
66.9587
66.1762
66.2718
65.4602
65.5907
64.8142
64.9285
64.1769
64.3246
63.5698
63.7554
62.9531
63.1715
62.3001
62.5521
61.5284
61.7181
60.4603
60.4663
58.8978
58.3154
56.2134
54.5774
51.7085
48.7149
45.6334
40.9778
37.8708
31.1606
25.5462
64.4864
63.9322
62.1785
60.7122
59.8139
59.4619
59.4946
59.6981
59.9034
60.0213
60.0132
59.8757
59.6379
59.3388
59.0131
58.6975
58.4204
58.1892
58.0242
57.9531
57.9836
58.1079
58.3174
58.6043
58.9624
59.3832
59.8502
60.3464
60.858
61.365
61.8428
62.2751
62.6517
62.9634
63.2071
63.3707
63.4499
63.467
63.4346
63.347
63.2134
63.032
62.7769
62.4316
62.0366
61.5996
61.1238
60.7078
60.3559
60.0026
59.6667
59.3818
59.1433
58.914
58.6861
58.4485
58.17
57.8802
57.6462
57.5306
57.4836
57.4552
57.4792
57.5489
57.6598
57.8243
58.0622
58.3668
58.6858
59.0192
59.3536
59.6761
59.9876
60.3072
60.6489
61.0283
61.4636
61.954
62.5075
63.1205
63.7617
64.4167
65.0601
65.6659
66.2271
66.7413
67.2188
67.6426
68.0295
68.3493
68.6488
68.8908
69.1034
69.2583
69.4146
69.5469
69.7126
69.829
69.9269
69.9798
70.0628
70.1146
70.1912
70.1951
70.1851
70.092
69.9972
69.8523
69.7353
69.5655
69.4301
69.247
69.087
68.8858
68.7034
68.4908
68.3129
68.1027
67.939
67.7576
67.676
67.5879
67.6077
67.6169
67.7345
67.8193
67.995
68.1338
68.3452
68.4941
68.7181
68.868
69.103
69.2468
69.4721
69.5955
69.787
69.8532
70.0023
70.0312
70.1455
70.1234
70.192
70.1157
70.1448
70.0257
70.0431
69.9104
69.9385
69.8024
69.8488
69.723
69.8133
69.7077
69.8422
69.7454
69.8855
69.7485
69.9103
69.7402
69.8417
69.4633
69.461
69.0304
69.0169
68.5087
68.4879
67.8312
67.7465
67.0105
67.0023
66.1773
66.2328
65.3984
65.4485
64.6603
64.7037
63.9384
64.0285
63.2476
63.3601
62.5157
62.6527
61.7289
61.8693
60.7491
60.8245
59.4868
59.3268
57.7164
56.9676
54.9147
53.2647
50.7607
47.981
45.5882
41.2628
38.447
32.2298
26.5878
64.7277
64.2267
62.5495
61.0982
60.1733
59.7739
59.7795
59.9925
60.2355
60.4072
60.4612
60.3865
60.2059
59.9562
59.6751
59.3991
59.1598
58.9691
58.8379
58.7885
58.8325
58.9625
59.1676
59.4398
59.7731
60.1597
60.5845
61.0311
61.4853
61.931
62.3489
62.7277
63.058
63.3313
63.5458
63.6906
63.7601
63.7684
63.729
63.6397
63.5061
63.3307
63.0909
62.7584
62.356
61.9041
61.4286
61.0235
60.6714
60.3105
59.9712
59.6987
59.4853
59.2826
59.0865
58.8783
58.6187
58.3411
58.13
58.0507
58.0333
58.0227
58.0627
58.1496
58.2777
58.4609
58.7211
59.0503
59.3957
59.7543
60.1134
60.4617
60.7996
61.1427
61.5047
61.9017
62.3525
62.8577
63.4225
64.0476
64.7014
65.3649
66.0136
66.623
67.1852
67.6974
68.1765
68.5931
68.979
69.2843
69.5784
69.8146