/*--------------------------------*- C++ -*----------------------------------*\
| =========                 |                                                 |
| \\      /  F ield         | OpenFOAM: The Open Source CFD Toolbox           |
|  \\    /   O peration     | Version:  2.4.0                                 |
|   \\  /    A nd           | Web:      www.OpenFOAM.org                      |
|    \\/     M anipulation  |                                                 |
\*---------------------------------------------------------------------------*/
FoamFile
{
    version     2.0;
    format      ascii;
    class       volScalarField;
    location    "0.048";
    object      p;
}
// * * * * * * * * * * * * * * * * * * * * * * * * * * * * * * * * * * * * * //

dimensions      [0 2 -2 0 0 0 0];

internalField   nonuniform List<scalar> 
17600
(
86.0973
70.4395
66.0096
64.8644
63.9258
62.9593
62.0844
61.3199
60.5553
59.8129
59.1336
58.3875
57.6721
56.9838
56.2929
55.6211
54.8972
54.1132
53.3421
51.9172
84.1894
70.4895
66.0506
64.8739
63.9291
62.9601
62.0845
61.3204
60.5558
59.8128
59.1337
58.3879
57.6719
56.9842
56.2931
55.6218
54.8983
54.1124
53.3483
51.8766
82.7763
70.7458
66.1944
64.9121
63.9431
62.9644
62.0865
61.3225
60.5572
59.8134
59.1343
58.3883
57.6718
56.9848
56.2935
55.6236
54.9012
54.1135
53.3726
51.8872
81.8007
71.0874
66.4141
64.9775
63.9725
62.9792
62.0954
61.3291
60.5616
59.8167
59.1361
58.3893
57.6723
56.9858
56.2946
55.6266
54.9071
54.1199
53.4141
51.976
80.9791
71.4225
66.6777
65.0602
64.0146
63.007
62.1154
61.3432
60.5721
59.8255
59.1402
58.3921
57.6741
56.9876
56.2968
55.6312
54.9166
54.1332
53.4782
52.1628
80.2053
71.7151
66.9548
65.1439
64.056
63.042
62.1453
61.3652
60.5899
59.8413
59.1476
58.3979
57.6785
56.9908
56.3006
55.6378
54.9296
54.1573
53.5505
52.4447
79.477
71.9623
67.2305
65.2228
64.0871
63.0742
62.1795
61.3915
60.6127
59.863
59.1579
58.4065
57.6857
56.9955
56.3062
55.6472
54.9458
54.194
53.6051
52.7605
78.8042
72.1669
67.4986
65.2992
64.1068
63.0982
62.2136
61.4189
60.6379
59.8873
59.1688
58.4167
57.6946
57.0009
56.3133
55.659
54.9655
54.2415
53.6825
53.1667
78.1926
72.3328
67.7509
65.3778
64.1184
63.1141
62.2443
61.4452
60.6638
59.9124
59.1792
58.4274
57.7038
57.0063
56.3212
55.672
54.9889
54.298
53.7844
53.5908
77.644
72.4614
67.9848
65.4611
64.1232
63.1219
62.2709
61.4703
60.6895
59.9364
59.1881
58.4383
57.7123
57.0114
56.3298
55.6858
55.016
54.3617
53.9051
54.0071
77.157
72.5548
68.1991
65.5494
64.1234
63.123
62.2929
61.4936
60.7149
59.9589
59.1957
58.4485
57.7198
57.0161
56.3389
55.7001
55.0468
54.4309
54.0398
54.3995
76.7288
72.6166
68.3938
65.6426
64.1198
63.118
62.3111
61.5153
60.7394
59.9797
59.2025
58.4578
57.7263
57.0208
56.3492
55.7153
55.0806
54.5047
54.1805
54.7523
76.3567
72.6529
68.5686
65.7387
64.1138
63.1086
62.3256
61.5351
60.7628
59.9988
59.208
58.4657
57.7327
57.0258
56.3606
55.7316
55.118
54.5794
54.3242
55.0604
76.0381
72.6706
68.7224
65.8329
64.1073
63.0966
62.3368
61.5529
60.7847
60.0158
59.2128
58.4729
57.7386
57.0312
56.3732
55.7493
55.1577
54.6546
54.466
55.3287
75.7694
72.6779
68.8546
65.9172
64.1024
63.0839
62.3452
61.5686
60.8048
60.0307
59.2169
58.479
57.7447
57.0375
56.3868
55.7686
55.1984
54.7307
54.6009
55.5646
75.5488
72.6795
68.9634
65.9895
64.0996
63.0717
62.3511
61.5823
60.8225
60.043
59.2206
58.4846
57.7509
57.0443
56.4013
55.7893
55.2398
54.8056
54.7283
55.7735
75.3743
72.6782
69.0493
66.0485
64.0985
63.0611
62.3551
61.5935
60.8373
60.0531
59.224
58.4895
57.7569
57.052
56.4169
55.8111
55.282
54.8787
54.8483
55.9606
75.245
72.6755
69.1123
66.0938
64.0989
63.0527
62.3571
61.6022
60.8492
60.0607
59.2272
58.4941
57.7632
57.0603
56.4327
55.8342
55.3236
54.9499
54.9608
56.1263
75.1597
72.6725
69.1539
66.1248
64.0993
63.0469
62.3581
61.6086
60.8576
60.0659
59.2301
58.4981
57.7695
57.0692
56.4491
55.8582
55.365
55.0186
55.065
56.2751
75.1174
72.6702
69.1745
66.1406
64.0997
63.0445
62.3578
61.6123
60.8628
60.0686
59.2327
58.5021
57.7758
57.0787
56.4658
55.8831
55.4063
55.0845
55.1605
56.4073
75.1179
72.6691
69.1748
66.1412
64.099
63.0456
62.357
61.6137
60.8641
60.0689
59.2353
58.5057
57.7819
57.0887
56.4828
55.909
55.4468
55.1475
55.2474
56.5219
75.1611
72.6692
69.1548
66.1261
64.0975
63.0503
62.3556
61.6122
60.862
60.0671
59.2375
58.5091
57.7879
57.0993
56.5002
55.9356
55.4869
55.2077
55.3257
56.6175
75.2473
72.6701
69.114
66.0961
64.0958
63.0578
62.3534
61.6082
60.8563
60.0627
59.2395
58.5125
57.7935
57.1103
56.5178
55.963
55.5266
55.2646
55.3974
56.6951
75.3775
72.6708
69.0513
66.0516
64.0949
63.0679
62.3502
61.6015
60.8472
60.0561
59.2412
58.5154
57.799
57.122
56.5355
55.991
55.5658
55.3186
55.4615
56.7589
75.5527
72.6702
68.9659
65.9934
64.0957
63.0795
62.3459
61.5919
60.8349
60.0475
59.2423
58.5182
57.8043
57.1338
56.5536
56.0193
55.6047
55.3701
55.5171
56.8097
75.7743
72.6667
68.8572
65.922
64.0986
63.0919
62.3403
61.5798
60.8194
60.0367
59.243
58.5201
57.8093
57.1461
56.5718
56.0483
55.6432
55.4197
55.5656
56.8449
76.0436
72.6579
68.7251
65.8385
64.104
63.1044
62.3327
61.5652
60.8014
60.0239
59.2432
58.5212
57.8142
57.1588
56.5902
56.0779
55.6817
55.4677
55.6074
56.8626
76.363
72.6389
68.5709
65.7448
64.1115
63.1158
62.3228
61.5483
60.7812
60.0092
59.243
58.521
57.8187
57.1717
56.6091
56.1076
55.7207
55.5151
55.6429
56.8631
76.7356
72.6022
68.3956
65.6482
64.1188
63.1248
62.3099
61.529
60.7593
59.9927
59.2417
58.5193
57.8232
57.1844
56.6283
56.1378
55.76
55.5629
55.675
56.8401
77.1641
72.5401
68.2002
65.5547
64.1234
63.1292
62.2938
61.508
60.7357
59.9748
59.2395
58.5158
57.8276
57.1965
56.6478
56.1677
55.8003
55.6107
55.7103
56.7896
77.6512
72.4466
67.9853
65.4663
64.1245
63.1275
62.2737
61.4857
60.7105
59.9554
59.2367
58.5105
57.8317
57.2076
56.6676
56.1963
55.842
55.6586
55.7535
56.7146
78.1997
72.3179
67.7514
65.3833
64.1205
63.1189
62.2489
61.4623
60.6842
59.9342
59.2329
58.5039
57.8348
57.2176
56.6871
56.2229
55.8847
55.7056
55.8063
56.6197
78.811
72.1517
67.4996
65.3053
64.1098
63.1025
62.2196
61.4379
60.6575
59.9116
59.2279
58.4971
57.8365
57.2262
56.7052
56.247
55.926
55.7495
55.8675
56.513
79.4835
71.9469
67.2324
65.2299
64.0901
63.0775
62.187
61.4127
60.6316
59.8893
59.2219
58.4907
57.8375
57.2335
56.7212
56.2679
55.9629
55.7877
55.9315
56.41
80.2117
71.6995
66.9574
65.1516
64.0592
63.0444
62.1539
61.3881
60.6083
59.8695
59.2157
58.4855
57.8385
57.2397
56.7346
56.2853
55.9933
55.8196
55.9832
56.3433
80.9856
71.4065
66.6809
65.0683
64.018
63.0086
62.1248
61.3674
60.5904
59.8553
59.2111
58.4827
57.8404
57.245
56.7452
56.2992
56.0154
55.846
56.0097
56.3068
81.8077
71.071
66.4174
64.9857
63.976
62.9803
62.1056
61.3539
60.5799
59.8478
59.2087
58.4821
57.8427
57.2493
56.7527
56.309
56.0302
55.8647
56.0207
56.3003
82.7839
70.7292
66.1978
64.9202
63.9469
62.9654
62.0972
61.3475
60.5756
59.8455
59.2078
58.4826
57.8448
57.2521
56.7572
56.3147
56.0388
55.8755
56.0272
56.309
84.1976
70.473
66.054
64.8818
63.933
62.9611
62.0954
61.3454
60.5742
59.8455
59.2073
58.4831
57.8459
57.2534
56.7589
56.317
56.0421
55.88
56.03
56.3309
86.1059
70.4231
66.0131
64.8721
63.9297
62.9605
62.0953
61.3449
60.5736
59.8461
59.2072
58.483
57.8463
57.2534
56.7592
56.3171
56.0425
55.8804
56.0303
56.372
51.8643
51.4511
50.9668
50.6748
50.9888
52.2011
54.5006
57.8778
61.9083
66.1676
70.0771
73.3453
75.2483
75.0472
72.951
68.6295
61.8533
55.3967
50.6973
47.0291
41.9937
36.1075
30.6362
25.5302
20.8518
16.2138
12.1091
9.51736
7.98158
7.19471
7.73903
9.69204
12.5225
15.5395
18.5514
22.0774
26.091
30.0483
33.6219
36.6101
38.9987
40.9762
42.4185
43.3918
44.3197
45.0968
45.5767
46.3153
47.5789
49.0676
50.892
53.4226
56.2938
59.2762
62.4794
65.6665
68.5877
71.1978
73.4939
75.4336
77.008
78.2945
79.354
80.2068
80.8883
81.45
81.9206
82.3091
82.6239
82.8773
83.0818
83.2471
83.3796
83.4859
83.5738
83.6486
83.7099
83.7557
83.7883
83.8122
83.8312
83.8471
83.8607
83.8719
83.8808
83.8873
83.8913
83.8932
83.8932
83.8916
83.8889
83.8851
83.8809
83.8755
83.8703
83.8637
83.8582
83.8503
83.8455
83.8363
83.8339
83.8241
83.8274
83.8193
83.8348
83.8344
83.8711
83.8876
83.9522
83.9908
84.0774
84.1269
84.2129
84.2456
84.3011
84.2949
84.2972
84.2594
84.2088
84.168
84.1089
84.0977
84.0643
84.071
84.0768
84.097
84.1001
84.1098
84.0957
84.0964
84.0811
84.0786
84.0803
84.0772
84.0821
84.0731
84.0653
84.0513
84.0419
84.0317
84.0268
84.0207
84.0089
84.0049
83.9895
83.9882
83.979
83.9729
83.9642
83.9549
83.9408
83.9292
83.9131
83.8955
83.8732
83.8554
83.8278
83.8063
83.7772
83.7475
83.7144
83.678
83.6358
83.5942
83.5403
83.4856
83.4244
83.3573
83.2789
83.1919
83.1029
82.9929
82.8794
82.7511
82.6065
82.4509
82.2748
82.0867
81.8876
81.6566
81.4313
81.1745
80.9009
80.62
80.3002
79.9874
79.6275
79.2464
78.8319
78.3417
77.7971
77.1349
76.3004
75.2681
73.8102
71.8577
68.7816
63.9029
57.6654
30.8335
51.7408
51.5011
51.0957
50.8924
51.3278
52.6509
55.0152
58.4297
62.422
66.5773
70.3629
73.4155
75.1245
74.7454
72.535
68.3996
62.0879
55.8022
51.0285
47.3679
42.7038
37.1428
31.8765
27.0439
22.5877
18.1183
14.2336
11.6915
10.1859
9.42734
9.88803
11.6233
14.1684
16.9232
19.7286
23.1287
27.1331
31.0584
34.4618
37.2284
39.454
41.2707
42.5023
43.2583
43.9484
44.4459
44.6234
45.0404
46.0208
47.3201
48.9564
51.3452
54.2441
57.3148
60.6512
64.0354
67.1704
69.9901
72.4914
74.6218
76.3518
77.7475
78.8891
79.8147
80.5612
81.1762
81.6893
82.1115
82.4531
82.7279
82.9503
83.1314
83.2779
83.3956
83.4921
83.5738
83.6417
83.6947
83.7342
83.764
83.7874
83.8065
83.8228
83.837
83.8493
83.8594
83.8668
83.8716
83.874
83.8744
83.8732
83.8707
83.8674
83.8628
83.8583
83.852
83.8469
83.8388
83.8341
83.824
83.8215
83.8095
83.813
83.8011
83.8176
83.812
83.8527
83.8643
83.9386
83.975
84.0778
84.127
84.2316
84.2607
84.3319
84.315
84.3252
84.2728
84.22
84.1715
84.1023
84.0843
84.0535
84.0656
84.074
84.0942
84.105
84.1122
84.0968
84.0897
84.0743
84.07
84.0759
84.0752
84.085
84.0718
84.0634
84.0437
84.033
84.0228
84.0192
84.0096
84.0026
83.9881
83.9794
83.972
83.9643
83.9602
83.9475
83.9368
83.9241
83.9062
83.8924
83.871
83.8459
83.8233
83.7983
83.7683
83.7406
83.7055
83.6713
83.6255
83.5878
83.5362
83.4798
83.4188
83.3556
83.2808
83.1957
83.1055
83.0093
82.8912
82.7685
82.6341
82.4756
82.3175
82.1193
81.9274
81.7053
81.4675
81.2236
80.9349
80.6512
80.3417
80.0047
79.6444
79.2546
78.8328
78.3457
77.8156
77.1693
76.4111
75.4445
74.2467
72.5331
70.2446
66.9253
60.5277
54.2372
24.102
51.7272
51.6554
51.352
51.2302
51.7782
53.1524
55.5401
58.9123
62.7648
66.7717
70.3693
73.1353
74.5801
74.1467
71.9071
67.9845
62.1391
56.0895
51.2902
47.605
43.2986
38.1026
33.0194
28.4109
24.1816
19.952
16.2338
13.7367
12.2884
11.5644
11.9599
13.5341
15.7939
18.3398
21.0975
24.4453
28.3922
32.2056
35.415
37.9516
39.9903
41.6491
42.6644
43.1654
43.5835
43.7548
43.614
43.7042
44.3252
45.3672
46.838
49.0632
51.9307
55.1026
58.6185
62.2486
65.6352
68.696
71.4232
73.7613
75.669
77.1935
78.4266
79.4285
80.2421
80.9112
81.4655
81.9201
82.2877
82.5833
82.823
83.0189
83.1786
83.3075
83.4126
83.5007
83.5748
83.6347
83.6814
83.7173
83.7452
83.7676
83.7864
83.8032
83.8186
83.8319
83.8427
83.8503
83.8551
83.8573
83.8577
83.8564
83.8541
83.8503
83.8464
83.8404
83.8357
83.8273
83.8228
83.8115
83.8091
83.7946
83.7982
83.7817
83.7992
83.787
83.8319
83.8366
83.922
83.954
84.076
84.1231
84.2509
84.2733
84.3651
84.332
84.3556
84.2829
84.234
84.1678
84.0959
84.0644
84.042
84.0433
84.0706
84.0892
84.1112
84.1179
84.0968
84.0948
84.0652
84.0664
84.0677
84.0754
84.0829
84.0744
84.0575
84.0375
84.0231
84.0122
84.0121
84.0008
83.9928
83.9761
83.9653
83.9556
83.9535
83.9432
83.9335
83.921
83.9031
83.8873
83.8716
83.8457
83.8183
83.7952
83.764
83.7347
83.7027
83.6664
83.624
83.5802
83.5363
83.4812
83.4182
83.356
83.2834
83.2082
83.1145
83.0212
82.9133
82.7894
82.6628
82.5171
82.3506
82.1777
81.9738
81.7602
81.536
81.2691
81.0081
80.7036
80.4004
80.0669
79.6861
79.3129
78.8718
78.4111
77.8773
77.2565
76.5534
75.6882
74.5697
73.2173
71.2774
68.5015
65.3728
57.1725
50.9316
22.595
51.8075
51.8894
51.7124
51.6378
52.2899
53.6649
56.0095
59.3228
62.9533
66.7502
70.1327
72.5283
73.788
73.3411
71.1175
67.3875
61.9898
56.2098
51.4229
47.7685
43.7754
38.8958
33.9777
29.6201
25.647
21.7033
18.1713
15.7273
14.3038
13.6466
14.0382
15.4591
17.4302
19.8372
22.6851
26.0479
29.8721
33.4937
36.4487
38.755
40.597
42.081
42.8874
43.1193
43.2179
43.0222
42.5072
42.2488
42.4653
43.1698
44.4471
46.5189
49.3315
52.6088
56.3413
60.2621
63.9565
67.3139
70.2984
72.857
74.9568
76.6279
77.965
79.0492
79.9332
80.6573
81.2513
81.7361
82.1284
82.4444
82.7007
82.9107
83.0825
83.2218
83.3349
83.429
83.5089
83.5758
83.6303
83.673
83.7058
83.7314
83.7526
83.7718
83.7898
83.806
83.8196
83.8297
83.8366
83.8406
83.8425
83.8423
83.841
83.8378
83.8347
83.8289
83.8246
83.8159
83.8116
83.7991
83.7967
83.7794
83.783
83.7613
83.7797
83.7593
83.8084
83.8036
83.9011
83.9263
84.0706
84.1138
84.2685
84.2825
84.3965
84.3454
84.3814
84.2906
84.2415
84.164
84.0863
84.0425
84.0294
84.0176
84.0688
84.0774
84.1234
84.1181
84.1055
84.0799
84.0605
84.0527
84.0656
84.0728
84.0869
84.0762
84.0546
84.0309
84.0109
84.0048
84.0021
83.9961
83.982
83.9652
83.9486
83.9431
83.9375
83.9319
83.9176
83.9041
83.8841
83.8687
83.8493
83.824
83.7907
83.7636
83.7331
83.7007
83.665
83.6267
83.5801
83.5326
83.4856
83.4279
83.36
83.2875
83.2177
83.1359
83.0352
82.9312
82.8242
82.6908
82.5573
82.399
82.226
82.045
81.8236
81.602
81.3571
81.0783
80.7951
80.483
80.1429
79.7803
79.3839
78.9673
78.4901
77.9748
77.3948
76.7183
75.908
74.9719
73.7283
72.1065
70.22
66.6408
64.0347
54.0417
47.7935
23.697
51.9938
52.1963
52.1418
52.0587
52.7812
54.1696
56.3925
59.6206
63.0185
66.4859
69.672
71.717
72.7768
72.3856
70.1852
66.6346
61.7087
56.2155
51.487
47.9133
44.184
39.5318
34.7833
30.6787
27.0082
23.4023
20.0156
17.6327
16.2881
15.6948
16.0457
17.3325
19.1606
21.5622
24.5121
27.8574
31.4769
34.8562
37.5384
39.6075
41.2619
42.5544
43.1564
43.1334
42.8647
42.2509
41.3363
40.6599
40.3757
40.6735
41.7336
43.6177
46.3706
49.7942
53.7779
58.028
62.1034
65.8318
69.1178
71.9132
74.2174
76.0527
77.5062
78.6779
79.6342
80.4138
81.0468
81.5603
81.9764
82.3122
82.5847
82.8078
82.9905
83.1388
83.2591
83.3587
83.4436
83.5172
83.5797
83.63
83.6685
83.6979
83.7219
83.7435
83.7638
83.7824
83.7981
83.8102
83.8189
83.8244
83.8276
83.8284
83.8281
83.8256
83.8231
83.8175
83.8136
83.8046
83.8005
83.7867
83.7843
83.7641
83.7676
83.74
83.7589
83.7287
83.7815
83.7644
83.8744
83.8892
84.0588
84.0949
84.2815
84.2818
84.4228
84.3455
84.399
84.2845
84.2415
84.1509
84.0726
84.0136
84.0108
83.9838
84.0621
84.0601
84.1303
84.1202
84.1105
84.0752
84.0561
84.0347
84.0659
84.0635
84.0989
84.0731
84.0569
84.0155
84.0033
83.9877
84.0019
83.9853
83.9793
83.9478
83.9363
83.9237
83.9296
83.9164
83.9063
83.8865
83.8663
83.8479
83.8322
83.801
83.7618
83.7343
83.7026
83.6647
83.6308
83.5875
83.5344
83.485
83.4394
83.3752
83.2985
83.2237
83.1532
83.0639
82.9535
82.8517
82.7343
82.5914
82.451
82.2901
82.1032
81.9103
81.6761
81.4407
81.1819
80.886
80.5862
80.2417
79.8963
79.4984
79.0724
78.6312
78.0983
77.5697
76.8913
76.1741
75.2986
74.19
72.9579
70.9141
69.3276
64.6443
62.8959
51.3214
44.6034
24.9206
52.4239
52.6333
52.5773
52.469
53.1881
54.6019
56.7019
59.7628
62.9657
66.0365
68.9999
70.7854
71.5695
71.3008
69.2152
65.7873
61.3428
56.2769
51.6405
48.0758
44.5437
40.1055
35.4974
31.6062
28.22
24.8179
21.7421
19.5079
18.1846
17.6396
18.0195
19.3105
21.1562
23.5779
26.5352
29.7542
33.1036
36.2046
38.6496
40.5146
42.0234
43.1147
43.5022
43.2262
42.5738
41.4426
40.0685
38.9399
38.0569
37.8193
38.6515
40.3422
42.9808
46.5851
50.8902
55.5155
60.0428
64.2241
67.8759
70.9387
73.4573
75.4677
77.0488
78.3152
79.3469
80.1824
80.853
81.393
81.8317
82.1869
82.4748
82.7101
82.9025
83.0589
83.186
83.2908
83.3802
83.4595
83.5294
83.5872
83.6318
83.6655
83.6929
83.7173
83.7401
83.7608
83.7783
83.7919
83.802
83.8088
83.8131
83.8149
83.8155
83.8136
83.8117
83.8064
83.8029
83.7935
83.7896
83.7745
83.7722
83.7488
83.7521
83.718
83.7369
83.6952
83.7507
83.7179
83.8402
83.8408
84.038
84.0649
84.2868
84.2727
84.4402
84.3372
84.4027
84.2708
84.2263
84.1287
84.0445
83.975
83.9877
83.9399
84.0475
84.0246
84.1309
84.1043
84.1195
84.061
84.0483
84.0103
84.0595
84.0498
84.1074
84.0642
84.0598
83.9912
83.9934
83.9657
83.9998
83.9728
83.9747
83.9262
83.922
83.9017
83.9217
83.9006
83.8967
83.8657
83.8502
83.8272
83.8176
83.7775
83.7354
83.7033
83.6707
83.633
83.5953
83.5487
83.4883
83.44
83.3909
83.3253
83.2385
83.1577
83.087
82.9969
82.8767
82.7685
82.6429
82.4957
82.3535
82.1785
81.9836
81.7789
81.5361
81.2819
81.0082
80.6958
80.3734
80.0153
79.6307
79.2184
78.7519
78.2813
77.7184
77.1235
76.438
75.5933
74.7377
73.3832
72.2926
69.5611
68.6445
62.5611
61.4897
49.1384
41.2422
25.1615
53.1551
53.299
53.0172
52.856
53.531
54.9253
56.9517
59.7618
62.772
65.4973
68.1487
69.7809
70.2902
70.0788
68.2321
64.9704
60.948
56.3639
51.8908
48.3044
44.931
40.7274
36.2757
32.5277
29.3396
26.2802
23.5299
21.3779
20.083
19.705
20.195
21.5204
23.4001
25.7941
28.6505
31.6338
34.6855
37.5474
39.8261
41.5111
42.8757
43.7688
43.9179
43.3948
42.3472
40.6498
38.6774
36.9959
35.4756
34.6252
35.1353
36.6764
39.2032
42.949
47.6058
52.6954
57.7516
62.4739
66.5651
69.9314
72.6801
74.879
76.5983
77.9636
79.071
79.9628
80.6708
81.236
81.6951
82.0682
82.3705
82.617
82.8185
82.9828
83.117
83.2274
83.3213
83.4052
83.4809
83.5451
83.5951
83.6332
83.6642
83.6918
83.7174
83.7402
83.7594
83.7745
83.7858
83.7936
83.799
83.8017
83.8031
83.8019
83.8005
83.7954
83.7923
83.7826
83.7789
83.7626
83.7602
83.7336
83.7367
83.6957
83.7139
83.6592
83.7158
83.664
83.7968
83.7792
84.0056
84.0218
84.2833
84.2572
84.4507
84.3277
84.3955
84.2523
84.1942
84.0893
83.9978
83.9176
83.9517
83.8927
84.0267
83.9849
84.1135
84.0692
84.1073
84.0284
84.0316
83.9736
84.0516
84.0253
84.1182
84.0475
84.0564
83.9586
83.9773
83.9306
84.005
83.9483
83.9796
83.8892
83.9081
83.8659
83.9204
83.8732
83.8924
83.8324
83.8379
83.7966
83.8119
83.7463
83.712
83.6651
83.6481
83.5932
83.5681
83.5065
83.4463
83.3892
83.3527
83.2747
83.1783
83.0893
83.0274
82.9297
82.7978
82.6831
82.5584
82.4009
82.2512
82.0679
81.8635
81.6551
81.3904
81.1178
80.8408
80.5135
80.1631
79.7762
79.3898
78.9255
78.4551
77.9012
77.3627
76.6474
76.0125
74.9606
74.2432
72.336
71.7985
68.0031
67.9072
60.6143
59.6959
47.3605
37.6061
24.6394
53.9786
54.0653
53.4893
53.2249
53.8415
55.15
57.1177
59.6732
62.4486
64.9121
67.1947
68.7137
69.0742
68.7873
67.2051
64.2472
60.5643
56.4044
52.2103
48.6676
45.383
41.4665
37.2924
33.6525
30.6394
27.9361
25.4599
23.3911
22.215
22.0274
22.5913
23.9207
25.7632
28.0535
30.7459
33.4737
36.2429
38.9064
41.0413
42.5794
43.7825
44.519
44.4123
43.6408
42.1633
39.8409
37.182
34.8113
32.5974
31.166
31.2907
32.6059
35.0614
38.9538
43.9513
49.5569
55.2058
60.5488
65.1685
68.898
71.8992
74.2931
76.1553
77.6225
78.8063
79.7547
80.5002
81.089
81.5659
81.9547
82.2705
82.5278
82.7382
82.9106
83.0526
83.1697
83.2685
83.3566
83.4366
83.5054
83.5597
83.6014
83.6356
83.6663
83.6946
83.7197
83.7407
83.7573
83.7698
83.7788
83.7852
83.7888
83.791
83.7904
83.7896
83.7848
83.7821
83.772
83.7686
83.7509
83.7486
83.7189
83.7215
83.6735
83.6902
83.6214
83.6769
83.6028
83.7432
83.7035
83.9595
83.9674
84.2728
84.2477
84.4635
84.3402
84.3875
84.2398
84.1416
84.015
83.9184
83.8236
83.889
83.8308
83.9936
83.9386
84.0919
84.007
84.0826
83.9686
84.0018
83.9282
84.0242
83.993
84.1154
84.0127
84.0473
83.9021
83.9498
83.8823
83.9927
83.9142
83.9707
83.8297
83.8864
83.813
83.9156
83.832
83.8867
83.7759
83.8263
83.7521
83.8123
83.697
83.6921
83.6067
83.6308
83.5432
83.5486
83.4502
83.4112
83.3273
83.3245
83.2215
83.1272
83.0091
82.9783
82.8628
82.7258
82.5999
82.4807
82.3029
82.1594
81.9546
81.7561
81.5185
81.2511
80.9586
80.6774
80.2968
79.9616
79.5278
79.1525
78.604
78.1773
77.4985
77.0441
76.0702
75.6762
74.1314
73.9251
71.092
71.2322
66.3946
66.942
58.716
57.2151
45.8829
34.1331
24.0186
54.7898
54.8327
53.9868
53.5844
54.1283
55.3089
57.2024
59.5427
62.0254
64.3037
66.2445
67.6082
67.9718
67.5483
66.1425
63.5956
60.2371
56.3865
52.552
49.1754
45.9509
42.3412
38.4962
35.0028
32.1785
29.7148
27.5099
25.6479
24.6049
24.5016
25.1021
26.3998
28.1316
30.2765
32.7497
35.2082
37.741
40.2704
42.2844
43.7114
44.7854
45.3862
45.0539
43.9686
42.0239
38.9635
35.5447
32.4158
29.507
27.5433
27.3367
28.3554
30.6398
34.6096
40.0025
46.1206
52.4088
58.4538
63.6795
67.8231
71.1055
73.7114
75.7271
77.2984
78.5539
79.5544
80.3367
80.9495
81.4435
81.847
82.1755
82.4433
82.6623
82.8427
82.9926
83.1169
83.221
83.3129
83.3965
83.4688
83.5265
83.5711
83.6079
83.641
83.6715
83.6986
83.7215
83.7398
83.7538
83.7641
83.7716
83.7761
83.7792
83.7791
83.779
83.7744
83.7721
83.7618
83.7585
83.7398
83.7374
83.7049
83.7068
83.652
83.6665
83.5833
83.6347
83.5364
83.6793
83.6165
83.8995
83.9089
84.26
84.2617
84.4898
84.3865
84.3799
84.2163
84.0518
83.8859
83.793
83.6819
83.7905
83.7413
83.9319
83.8604
84.0585
83.9269
84.0535
83.9068
83.9612
83.8716
83.9793
83.9354
84.0869
83.9591
84.0207
83.836
83.8991
83.8113
83.9621
83.8517
83.9488
83.7518
83.8389
83.7393
83.8965
83.7675
83.8663
83.6934
83.7967
83.685
83.8104
83.6202
83.662
83.5199
83.6076
83.4648
83.5347
83.3585
83.3706
83.2406
83.3097
83.1326
83.0804
82.9093
82.9383
82.7693
82.6688
82.4944
82.4157
82.189
82.0896
81.8294
81.6524
81.388
81.1503
80.7562
80.5313
80.0813
79.7887
79.2126
78.9372
78.2098
77.937
76.9456
76.7998
75.3294
75.3788
73.1444
73.3622
69.7401
70.4663
64.7301
65.6826
57.2037
53.3198
44.369
32.2167
24.2746
55.5
55.5198
54.4952
53.9387
54.3823
55.4393
57.2089
59.3853
61.5716
63.6872
65.3798
66.5351
66.9619
66.4662
65.11
62.9701
59.9828
56.3736
52.8855
49.7665
46.6593
43.3231
39.8243
36.5313
33.8591
31.5584
29.6729
28.0425
27.0809
27.0137
27.6273
28.8298
30.3932
32.368
34.6256
36.8645
39.2199
41.6097
43.5477
44.9038
45.9215
46.3953
45.8646
44.3972
41.8941
38.0345
33.8302
29.9323
26.3591
23.9393
23.3979
24.1314
26.2186
30.2288
35.8958
42.4484
49.3761
56.1812
62.0925
66.715
70.3122
73.1421
75.3145
76.9885
78.3132
79.3648
80.1842
80.8204
81.3294
81.7455
82.0858
82.3639
82.5915
82.7796
82.9372
83.0682
83.1774
83.2727
83.359
83.4342
83.4948
83.5421
83.5812
83.616
83.6481
83.6768
83.7016
83.7217
83.7376
83.7494
83.7582
83.7637
83.7677
83.7682
83.7687
83.7643
83.7623
83.7519
83.7488
83.7292
83.7268
83.6918
83.6929
83.6321
83.6436
83.5466
83.5912
83.4686
83.6076
83.5227
83.828
83.8503
84.2469
84.2933
84.5176
84.4284
84.3306
84.1189
83.8665
83.6456
83.5875
83.4826
83.6764
83.6325
83.8763
83.772
84.0043
83.8607
83.9975
83.849
83.9088
83.8007
83.9386
83.8511
84.0212
83.8863
83.96
83.7555
83.8393
83.7155
83.8946
83.7609
83.8853
83.6494
83.7756
83.6363
83.8447
83.6778
83.8126
83.5791
83.7462
83.5937
83.7778
83.5129
83.6068
83.4004
83.5708
83.3594
83.4965
83.2197
83.3279
83.1198
83.284
82.998
83.0298
82.7598
82.9099
82.6272
82.6145
82.3392
82.3658
82.0275
82.0304
81.6381
81.588
81.201
81.041
80.5144
80.4258
79.7807
79.6338
78.8476
78.7448
77.719
77.7085
76.3042
76.4819
74.5057
74.8924
72.0127
72.5955
68.2563
69.5168
63.462
63.1276
55.9968
49.3469
42.7924
31.7897
25.3463
56.1035
56.0924
54.9765
54.282
54.599
55.5497
57.16
59.2051
61.1412
63.0845
64.6279
65.5628
66.0158
65.5602
64.1887
62.3411
59.767
56.4233
53.2019
50.3727
47.4608
44.3521
41.1767
38.2639
35.5984
33.4452
31.8282
30.3849
29.5326
29.4979
30.0475
31.0489
32.4541
34.3403
36.4473
38.47
40.6711
42.9477
44.8542
46.1845
47.1271
47.4959
46.7533
44.9027
41.8052
37.1497
32.1818
27.5864
23.3526
20.5567
19.6419
20.0081
21.9582
26.0285
31.8214
38.64
46.161
53.762
60.4133
65.5702
69.518
72.5836
74.9176
76.6988
78.0911
79.1877
80.0388
80.6966
81.2209
81.6505
82.0029
82.2906
82.5257
82.7205
82.8845
83.0216
83.1354
83.2338
83.3222
83.3996
83.4628
83.5129
83.5542
83.5906
83.6239
83.6541
83.6808
83.7031
83.7211
83.7347
83.7449
83.7516
83.7564
83.7576
83.7586
83.7546
83.753
83.7424
83.7395
83.7192
83.7168
83.6799
83.6803
83.6146
83.6226
83.514
83.549
83.4047
83.5317
83.428
83.7446
83.7878
84.2219
84.3157
84.5168
84.4116
84.1927
83.882
83.5633
83.2995
83.3383
83.279
83.5744
83.5559
83.863
83.7451
83.9666
83.8011
83.8779
83.7289
83.8149
83.7223
83.8809
83.7715
83.9397
83.7664
83.8649
83.6422
83.7462
83.6038
83.79
83.615
83.7849
83.519
83.679
83.5108
83.751
83.5343
83.7149
83.439
83.6539
83.4675
83.7026
83.3535
83.4976
83.2462
83.4984
83.2105
83.4072
83.0247
83.2388
82.9574
83.2309
82.7837
82.9348
82.5541
82.8533
82.4043
82.5416
82.0985
82.3075
81.7877
81.9659
81.3915
81.4886
80.9357
80.9566
80.1944
80.2655
79.4445
79.4544
78.387
78.4615
77.1478
77.319
75.5442
75.9409
73.445
74.2049
70.7917
71.7023
67.3934
67.7173
62.7095
59.5693
54.301
46.991
42.1289
32.5159
26.6403
56.6159
56.5686
55.4072
54.6104
54.788
55.6424
57.0838
59.008
60.7623
62.5168
63.9706
64.718
65.1155
64.7645
63.4198
61.7518
59.5776
56.5332
53.5134
50.9487
48.2787
45.3754
42.4672
39.8241
37.318
35.3528
33.8852
32.6054
31.9064
31.8319
32.2488
33.11
34.421
36.1923
38.1522
40.0355
42.1239
44.3253
46.1771
47.5171
48.4136
48.7405
47.7934
45.4994
41.8298
36.4464
30.7007
25.4331
20.5196
17.3381
16.0955
16.0406
17.9031
22.1138
27.9152
34.8268
42.8494
51.236
58.6641
64.3969
68.722
72.0389
74.5422
76.4277
77.8801
79.0167
79.8993
80.5811
81.1226
81.5655
81.9281
82.2234
82.4646
82.6649
82.834
82.976
83.094
83.1951
83.2853
83.3645
83.4305
83.4836
83.5274
83.5654
83.5998
83.6313
83.6598
83.6844
83.7046
83.7201
83.7319
83.7397
83.7455
83.7473
83.7489
83.7452
83.7439
83.7333
83.7307
83.7099
83.7075
83.6693
83.6691
83.6002
83.6048
83.4877
83.5115
83.3494
83.456
83.3345
83.6467
83.7062
84.1659
84.2949
84.4552
84.3063
83.9486
83.5385
83.1992
82.9471
83.1146
83.1246
83.5136
83.5388
83.8734
83.7747
83.8965
83.6675
83.6546
83.493
83.6625
83.6222
83.8139
83.7061
83.849
83.6184
83.7202
83.4816
83.6155
83.457
83.6459
83.4437
83.6519
83.366
83.5537
83.3502
83.5936
83.3443
83.573
83.2816
83.5399
83.3121
83.5412
83.1323
83.3403
83.0634
83.3761
83.0328
83.2227
82.7481
83.0895
82.7767
83.0867
82.471
82.74
82.2929
82.7217
82.0964
82.3318
81.7323
82.1673
81.4464
81.8036
80.9919
81.4005
80.5299
80.7388
79.7473
80.176
78.9421
79.1714
77.79
78.1199
76.4867
76.7608
74.7418
75.2395
72.6587
73.2916
70.1431
70.2779
67.0174
65.0027
61.3827
56.8653
52.53
45.9367
42.3788
33.9652
27.935
57.0325
56.9686
55.7892
54.9273
54.9622
55.7277
57.0084
58.7916
60.4255
61.9932
63.3503
63.98
64.2954
64.0627
62.8002
61.2402
59.3955
56.6722
53.8372
51.4627
49.0529
46.3714
43.6985
41.2647
38.9701
37.2127
35.8379
34.7251
34.0849
33.9316
34.3183
35.1017
36.2764
37.9261
39.7774
41.5583
43.5231
45.6723
47.5417
48.9379
49.84
50.1502
49.0522
46.2912
42.0323
35.9939
29.4627
23.4299
17.8018
14.1168
12.5453
12.1396
14.0091
18.4578
24.2571
31.1417
39.5547
48.6827
56.8741
63.202
67.937
71.5178
74.187
76.1734
77.6858
78.8621
79.7748
80.4797
81.0369
81.4906
81.8612
82.163
82.4103
82.6152
82.7874
82.9324
83.0536
83.157
83.2488
83.3302
83.3996
83.4568
83.5037
83.5434
83.5788
83.6113
83.6411
83.6672
83.6892
83.7063
83.7195
83.7283
83.7349
83.7374
83.7395
83.7362
83.7352
83.7248
83.7223
83.7013
83.6989
83.6603
83.6595
83.5894
83.5909
83.4696
83.4811
83.3067
83.3843
83.2439
83.5289
83.5908
84.0558
84.2024
84.3075
84.0997
83.6163
83.1461
82.8483
82.6675
82.9528
83.0276
83.4735
83.527
83.8668
83.7376
83.7435
83.3919
83.343
83.2324
83.4928
83.5217
83.7711
83.6382
83.7099
83.432
83.4873
83.2832
83.468
83.2855
83.4894
83.2685
83.4704
83.1903
83.3901
83.1328
83.3763
83.1249
83.4015
83.124
83.3848
83.0916
83.2797
82.8621
83.1476
82.8883
83.2076
82.772
82.9238
82.4415
82.8954
82.5671
82.823
82.0686
82.4511
82.0119
82.484
81.6999
81.9748
81.2431
81.8628
81.0203
81.432
80.4634
81
79.885
80.3401
79.0738
79.7627
78.2691
78.6626
77.0232
77.6133
75.7941
76.0494
74.099
74.4602
72.2447
72.0609
69.6959
68.4013
65.8339
62.8109
59.6645
55.1618
51.8959
45.955
43.2112
35.5444
29.1307
57.3797
57.3144
56.1266
55.2239
55.1242
55.793
56.9399
58.5798
60.1153
61.5073
62.7864
63.3507
63.5751
63.4328
62.3037
60.8186
59.1841
56.8018
54.1893
51.9415
49.7719
47.3095
44.8569
42.6034
40.5508
38.9857
37.6791
36.6737
36.0412
35.9029
36.2923
36.9818
38.0379
39.5759
41.3097
43.0009
44.9014
47.0018
48.9077
50.399
51.3845
51.7421
50.5457
47.3588
42.4872
35.7614
28.4176
21.5234
15.1862
10.9615
8.98456
8.2555
10.2198
14.9812
20.8351
27.6688
36.3824
46.1523
55.0699
62.0104
67.1724
71.0229
73.8603
75.9469
77.5165
78.7287
79.6687
80.3951
80.967
81.4298
81.8056
82.1115
82.3624
82.57
82.7441
82.8914
83.0152
83.1207
83.2136
83.2969
83.3703
83.4322
83.4829
83.5248
83.5613
83.5945
83.6253
83.6525
83.6756
83.6938
83.7079
83.7176
83.7249
83.728
83.7306
83.7276
83.7269
83.7167
83.7143
83.6935
83.6911
83.6528
83.6516
83.5823
83.5812
83.4599
83.4597
83.2783
83.3201
83.1568
83.3886
83.4291
83.87
84.0096
84.051
83.7891
83.2241
82.7743
82.569
82.5001
82.8547
82.958
83.4229
83.4733
83.811
83.6101
83.5141
83.0844
83.0484
83.0118
83.3529
83.4398
83.6919
83.5332
83.501
83.1429
83.2219
83.0748
83.3101
83.1478
83.3101
83.0309
83.2199
82.9533
83.1802
82.9128
83.1492
82.8961
83.1946
82.9155
83.1368
82.7867
82.9702
82.6015
82.9519
82.6795
82.9251
82.4036
82.5725
82.1565
82.6735
82.2813
82.4054
81.6339
82.1451
81.7447
82.1297
81.2515
81.5301
80.8317
81.477
80.6133
80.9514
79.9568
80.4615
79.2581
79.799
78.4562
79.0324
77.5789
77.9012
76.2071
76.6892
74.9549
75.0316
73.1512
73.2308
71.0971
70.4425
68.1712
66.3482
63.8617
61.102
58.3812
54.4422
52.3477
46.8354
44.2805
36.989
30.2426
57.6752
57.6164
56.4167
55.484
55.2812
55.8518
56.8783
58.3702
59.8232
61.0785
62.2561
62.8083
62.9681
62.844
61.8727
60.4867
58.9837
56.9335
54.5381
52.3932
50.4343
48.1949
45.9641
43.8585
42.0487
40.6294
39.3814
38.4624
37.8734
37.7921
38.164
38.7437
39.6708
41.1129
42.7855
44.4158
46.2448
48.3028
50.2864
51.9287
53.0506
53.5254
52.3272
48.7456
43.2281
35.7499
27.5108
19.7003
12.6423
7.95261
5.5976
4.52157
6.54805
11.637
17.6421
24.4542
33.3974
43.7201
53.3164
60.852
66.4414
70.561
73.5623
75.746
77.3723
78.6186
79.584
80.3294
80.913
81.3809
81.7584
82.0656
82.3184
82.5281
82.7041
82.8531
82.9791
83.0862
83.1799
83.265
83.3419
83.4081
83.4625
83.5067
83.5446
83.579
83.6108
83.639
83.663
83.6821
83.697