/*--------------------------------*- C++ -*----------------------------------*\
| =========                 |                                                 |
| \\      /  F ield         | OpenFOAM: The Open Source CFD Toolbox           |
|  \\    /   O peration     | Version:  2.4.0                                 |
|   \\  /    A nd           | Web:      www.OpenFOAM.org                      |
|    \\/     M anipulation  |                                                 |
\*---------------------------------------------------------------------------*/
FoamFile
{
    version     2.0;
    format      ascii;
    class       volScalarField;
    location    "0.005";
    object      epsilon;
}
// * * * * * * * * * * * * * * * * * * * * * * * * * * * * * * * * * * * * * //

dimensions      [0 2 -3 0 0 0 0];

internalField   nonuniform List<scalar> 
17600
(
290.779
447.673
583.297
681.436
740.84
768.079
772.004
760.736
740.583
715.995
689.911
664.172
639.875
617.624
597.703
580.198
565.053
552.132
541.065
533.598
39.5489
60.6407
78.3965
92.3357
102.281
108.918
113.256
116.234
118.59
120.844
123.336
126.262
129.711
133.687
138.131
142.934
147.955
153.042
158.244
164.255
18.0559
21.7883
25.1119
27.7892
29.7361
31.0342
31.8556
32.3923
32.819
33.2792
33.8837
34.7142
35.8287
37.2661
39.0488
41.1843
43.6659
46.4788
49.6639
53.567
14.7345
15.1157
15.6206
16.0697
16.3751
16.5162
16.5138
16.4077
16.2435
16.0646
15.9097
15.8113
15.7963
15.8867
16.1007
16.4536
16.9583
17.6287
18.4977
19.6588
14.0476
13.5192
13.1673
12.9029
12.6639
12.4158
12.1455
11.8534
11.5469
11.2367
10.9344
10.6512
10.397
10.1804
10.009
9.88936
9.82747
9.82974
9.90812
10.0813
13.8917
13.0886
12.4266
11.871
11.3882
10.9523
10.546
10.1595
9.78829
9.43134
9.08962
8.76519
8.46051
8.17813
7.92043
7.68961
7.48772
7.31693
7.18086
7.08289
13.8556
12.9703
12.1959
11.5177
10.9188
10.383
9.89683
9.44995
9.03502
8.64707
8.28297
7.94085
7.61967
7.31896
7.03856
6.77848
6.53887
6.32004
6.12278
5.94745
13.8471
12.9381
12.1251
11.3979
10.7463
10.1596
9.62814
9.14338
8.6983
8.28727
7.90588
7.55078
7.2194
6.9098
6.62049
6.35034
6.09845
5.86417
5.64713
5.44697
13.845
12.9294
12.1037
11.3584
10.6846
10.074
9.519
9.01257
8.54858
8.12177
7.72764
7.36246
7.02315
6.70716
6.41237
6.13705
5.87977
5.63932
5.41478
5.20554
13.8445
12.9269
12.0973
11.3456
10.6631
10.0423
9.47608
8.95842
8.4838
8.04736
7.64487
7.27263
6.92748
6.60668
6.30789
6.02913
5.76866
5.52504
5.29703
5.08394
13.8443
12.9262
12.0953
11.3414
10.6557
10.0307
9.45967
8.93672
8.45667
8.01498
7.60758
7.23094
6.88193
6.55782
6.25623
5.97505
5.71247
5.4669
5.23699
5.02198
13.8443
12.9259
12.0946
11.3399
10.6531
10.0265
9.45346
8.92818
8.44561
8.00129
7.5913
7.21219
6.8609
6.53475
6.23135
5.94859
5.68463
5.43783
5.20678
4.99071
13.8442
12.9257
12.0942
11.3393
10.6521
10.0249
9.45103
8.92479
8.4411
7.99557
7.58433
7.20396
6.85146
6.52416
6.21971
5.93602
5.67122
5.42368
5.19196
4.97528
13.8442
12.9256
12.094
11.3389
10.6515
10.0241
9.44996
8.92334
8.43919
7.99314
7.58133
7.20036
6.84726
6.51939
6.21439
5.93018
5.66493
5.41698
5.18488
4.96788
13.8441
12.9255
12.0938
11.3387
10.6512
10.0237
9.44941
8.92262
8.43829
7.99202
7.57996
7.19873
6.84536
6.51721
6.21195
5.9275
5.66202
5.41387
5.18159
4.96443
13.8441
12.9254
12.0937
11.3385
10.651
10.0234
9.44905
8.9222
8.43778
7.99142
7.57926
7.19793
6.84444
6.51618
6.2108
5.92624
5.66067
5.41242
5.18006
4.96283
13.8441
12.9254
12.0936
11.3384
10.6508
10.0232
9.44881
8.92192
8.43747
7.99106
7.57886
7.19748
6.84395
6.51564
6.21022
5.92562
5.66
5.41172
5.17934
4.96208
13.8441
12.9253
12.0935
11.3383
10.6507
10.023
9.44864
8.92172
8.43725
7.99083
7.57861
7.19721
6.84366
6.51533
6.20989
5.92528
5.65965
5.41137
5.17898
4.96171
13.8441
12.9253
12.0935
11.3382
10.6506
10.0229
9.44852
8.9216
8.43712
7.99068
7.57845
7.19705
6.84349
6.51515
6.20971
5.92509
5.65947
5.41118
5.17878
4.96151
13.8441
12.9253
12.0934
11.3382
10.6506
10.0229
9.44847
8.92154
8.43705
7.99061
7.57838
7.19697
6.84341
6.51507
6.20962
5.92501
5.65938
5.41109
5.1787
4.96142
13.8441
12.9253
12.0934
11.3382
10.6506
10.0229
9.44847
8.92154
8.43705
7.99061
7.57838
7.19697
6.84341
6.51507
6.20962
5.92501
5.65938
5.41109
5.17868
4.96139
13.8441
12.9253
12.0935
11.3382
10.6506
10.0229
9.44852
8.9216
8.43712
7.99068
7.57845
7.19705
6.84349
6.51515
6.20971
5.92509
5.65946
5.41117
5.17875
4.96144
13.8441
12.9253
12.0935
11.3383
10.6507
10.023
9.44864
8.92172
8.43725
7.99083
7.57861
7.19721
6.84366
6.51533
6.20989
5.92528
5.65964
5.41135
5.17892
4.96159
13.8441
12.9254
12.0936
11.3384
10.6508
10.0232
9.44881
8.92192
8.43747
7.99106
7.57886
7.19748
6.84395
6.51564
6.21021
5.92561
5.65999
5.41169
5.17927
4.96192
13.8441
12.9254
12.0937
11.3385
10.651
10.0234
9.44905
8.9222
8.43778
7.99142
7.57926
7.19793
6.84444
6.51618
6.2108
5.92624
5.66065
5.41238
5.17997
4.96264
13.8441
12.9255
12.0938
11.3387
10.6512
10.0237
9.44941
8.92262
8.43829
7.99201
7.57996
7.19873
6.84536
6.51721
6.21195
5.9275
5.66201
5.41383
5.18149
4.9642
13.8442
12.9256
12.094
11.3389
10.6515
10.0241
9.44996
8.92334
8.43919
7.99314
7.58132
7.20036
6.84726
6.51938
6.21438
5.93017
5.66491
5.41693
5.18477
4.96763
13.8442
12.9257
12.0942
11.3393
10.6521
10.0249
9.45103
8.92479
8.4411
7.99557
7.58433
7.20396
6.85146
6.52416
6.21971
5.93601
5.6712
5.42364
5.19184
4.97502
13.8443
12.9259
12.0946
11.3399
10.6531
10.0265
9.45346
8.92818
8.44561
8.00128
7.5913
7.21219
6.8609
6.53475
6.23134
5.94859
5.68462
5.4378
5.20667
4.99044
13.8443
12.9262
12.0953
11.3414
10.6557
10.0307
9.45967
8.93672
8.45667
8.01497
7.60758
7.23094
6.88193
6.55782
6.25622
5.97505
5.71247
5.46688
5.23687
5.02169
13.8445
12.9269
12.0973
11.3456
10.6631
10.0423
9.47608
8.95842
8.4838
8.04736
7.64487
7.27263
6.92748
6.60668
6.3079
6.02913
5.76867
5.52502
5.29688
5.08354
13.845
12.9294
12.1037
11.3584
10.6846
10.074
9.519
9.01257
8.54858
8.12177
7.72764
7.36247
7.02316
6.70716
6.41238
6.13707
5.87979
5.6393
5.41452
5.20476
13.8471
12.9381
12.1251
11.3979
10.7463
10.1596
9.62814
9.14338
8.6983
8.28727
7.90589
7.55079
7.21941
6.90981
6.62052
6.35038
6.0985
5.86412
5.64651
5.44492
13.8556
12.9703
12.1959
11.5177
10.9188
10.383
9.89683
9.44995
9.03502
8.64707
8.28298
7.94085
7.61969
7.31899
7.03861
6.77857
6.53896
6.31987
6.1211
5.94132
13.8917
13.0886
12.4266
11.871
11.3882
10.9523
10.546
10.1595
9.7883
9.43135
9.08963
8.7652
8.46055
8.17819
7.92054
7.68979
7.48787
7.31635
7.1759
7.06279
14.0476
13.5192
13.1673
12.9029
12.6639
12.4158
12.1455
11.8534
11.5469
11.2367
10.9344
10.6512
10.397
10.1805
10.0093
9.88975
9.82771
9.82782
9.8923
10.0089
14.7345
15.1157
15.6206
16.0697
16.3751
16.5162
16.5138
16.4077
16.2435
16.0646
15.9097
15.8114
15.7965
15.887
16.1013
16.4545
16.9587
17.6227
18.4468
19.3904
18.0559
21.7883
25.1119
27.7892
29.7361
31.0341
31.8555
32.3923
32.819
33.2793
33.8838
34.7144
35.8291
37.2669
39.0502
41.1861
43.6663
46.4644
49.528
52.745
39.5488
60.6406
78.3964
92.3357
102.281
108.918
113.256
116.234
118.59
120.844
123.336
126.262
129.711
133.688
138.132
142.935
147.953
153.022
157.965
162.664
290.779
447.673
583.297
681.436
740.84
768.079
772.004
760.736
740.583
715.995
689.91
664.17
639.872
617.618
597.693
580.181
565.029
552.1
541.243
531.931
668.079
777.191
850.121
895.365
916.694
918.129
905.205
882.979
855.611
826.218
796.858
768.704
742.296
717.809
695.215
674.378
655.132
637.317
620.795
605.454
591.188
577.902
565.503
553.905
543.032
532.814
523.188
514.093
505.476
497.285
489.472
481.99
474.797
467.853
461.122
454.571
448.169
441.891
435.712
429.61
423.565
417.56
411.579
405.611
399.646
393.677
387.7
381.715
375.724
369.733
363.751
357.79
351.866
345.996
340.202
334.506
328.934
323.512
318.268
313.231
308.428
303.888
299.637
295.7
292.098
288.848
285.965
283.457
281.326
279.569
278.178
277.136
276.423
276.013
275.879
275.988
276.309
276.807
277.451
278.207
279.046
279.937
280.851
281.762
282.643
283.471
284.222
284.877
285.416
285.825
286.089
286.197
286.142
285.917
285.52
284.948
284.203
283.284
282.196
280.942
279.529
277.961
276.244
274.383
272.384
270.253
267.995
265.617
263.122
260.518
257.809
255
252.097
249.105
246.028
242.872
239.64
236.339
232.971
229.542
226.056
222.517
218.928
215.292
211.618
207.909
204.172
200.412
196.636
192.847
189.05
185.252
181.456
177.667
173.889
170.127
166.384
162.665
158.974
155.313
151.688
148.1
144.553
141.051
137.596
134.19
130.838
127.54
124.299
121.118
117.999
114.943
111.952
109.027
106.172
103.386
100.671
98.0283
95.4594
92.9651
90.5467
88.205
85.9412
83.7563
81.6512
79.6272
77.6853
75.8268
74.0531
72.3659
70.7669
69.2581
67.8419
66.5202
65.2921
64.1555
63.1148
62.1752
61.3431
60.627
60.0372
59.5871
59.2939
59.1806
59.2776
59.6272
60.289
61.3501
62.944
65.2853
68.7388
73.959
82.1719
95.723
119.099
160.744
237.141
385.088
737.251
1486.7
172.877
189.651
214.034
245.524
282.667
323.381
365.18
405.502
442.066
473.184
497.926
516.124
528.229
535.093
537.751
537.221
534.394
529.976
524.494
518.319
511.709
504.844
497.85
490.818
483.816
476.894
470.084
463.409
456.876
450.487
444.234
438.106
432.088
426.166
420.323
414.543
408.812
403.115
397.44
391.772
386.104
380.424
374.726
369.005
363.258
357.485
351.688
345.873
340.046
334.218
328.404
322.618
316.88
311.21
305.633
300.172
294.856
289.713
284.772
280.063
275.615
271.457
267.619
264.125
260.999
258.262
255.93
254.012
252.514
251.434
250.762
250.482
250.57
250.996
251.725
252.716
253.929
255.321
256.851
258.479
260.166
261.88
263.586
265.257
266.866
268.388
269.801
271.086
272.225
273.204
274.009
274.631
275.063
275.3
275.339
275.18
274.823
274.27
273.528
272.602
271.498
270.222
268.78
267.179
265.425
263.525
261.485
259.312
257.012
254.592
252.058
249.415
246.67
243.827
240.894
237.874
234.774
231.598
228.351
225.039
221.665
218.234
214.75
211.217
207.64
204.027
200.382
196.713
193.023
189.319
185.605
181.887
178.17
174.457
170.753
167.064
163.392
159.743
156.119
152.524
148.963
145.438
141.953
138.511
135.114
131.766
128.47
125.226
122.039
118.91
115.841
112.834
109.892
107.014
104.204
101.462
98.7906
96.1901
93.6619
91.2072
88.8272
86.5228
84.295
82.145
80.0737
78.0823
76.172
74.3439
72.5995
70.9404
69.3683
67.8853
66.4936
65.1952
63.9878
62.8713
61.8498
60.9283
60.1134
59.4133
58.8383
58.4018
58.121
58.0185
58.1247
58.4815
59.1478
60.2097
61.7984
64.1246
67.546
72.7055
80.8146
94.216
117.442
159.158
236.122
385.665
706.46
1266.37
54.8127
56.576
59.1408
62.9199
68.5056
76.2859
86.561
99.5704
115.395
133.9
154.717
177.248
200.726
224.291
247.088
268.37
287.562
304.304
318.453
330.052
339.283
346.412
351.737
355.552
358.119
359.659
360.353
360.344
359.745
358.645
357.117
355.22
353
350.496
347.738
344.752
341.556
338.166
334.593
330.848
326.94
322.878
318.671
314.327
309.858
305.274
300.59
295.819
290.979
286.087
281.165
276.234
271.319
266.445
261.641
256.935
252.357
247.939
243.712
239.708
235.959
232.497
229.351
226.551
224.124
222.094
220.481
219.301
218.565
218.274
218.426
219.006
219.992
221.355
223.056
225.049
227.287
229.715
232.285
234.944
237.646
240.348
243.013
245.606
248.098
250.463
252.679
254.727
256.591
258.256
259.712
260.949
261.963
262.749
263.306
263.635
263.739
263.619
263.287
262.748
262.01
261.08
259.964
258.671
257.207
255.582
253.802
251.875
249.808
247.609
245.284
242.841
240.285
237.624
234.864
232.01
229.069
226.046
222.946
219.775
216.539
213.24
209.885
206.477
203.021
199.525
195.994
192.435
188.852
185.252
181.64
178.02
174.399
170.78
167.167
163.567
159.982
156.417
152.875
149.362
145.879
142.43
139.02
135.651
132.325
129.046
125.817
122.639
119.516
116.449
113.44
110.493
107.607
104.785
102.029
99.3396
96.7187
94.1675
91.6871
89.2788
86.9435
84.6825
82.4967
80.3872
78.3551
76.4014
74.5273
72.7341
71.0232
69.3962
67.8547
66.4009
65.037
63.7646
62.5808
61.4868
60.4866
59.5853
58.7891
58.1062
57.5469
57.1242
56.8551
56.762
56.8747
57.2344
57.8986
58.9515
60.5205
62.8093
66.1629
71.2007
79.0924
92.1145
114.697
155.351
230.13
373.096
649.319
1065.49
19.9869
20.3313
20.7136
21.1687
21.7613
22.5638
23.7043
25.2914
27.4519
30.336
34.107
38.9315
44.9634
52.3238
61.0799
71.2258
82.6692
95.2289
108.642
122.586
136.701
150.629
164.042
176.667
188.301
198.818
208.162
216.337
223.39
229.394
234.436
238.604
241.983
244.646
246.66
248.08
248.957
249.335
249.251
248.741
247.837
246.57
244.969
243.06
240.869
238.424
235.749
232.872
229.819
226.62
223.302
219.896
216.433
212.945
209.464
206.024
202.658
199.402
196.29
193.355
190.634
188.16
185.966
184.085
182.548
181.384
180.62
180.278
180.377
180.929
181.939
183.402
185.305
187.624
190.323
193.356
196.672
200.211
203.911
207.711
211.551
215.378
219.144
222.805
226.327
229.679
232.838
235.783
238.497
240.968
243.185
245.142
246.835
248.261
249.421
250.318
250.954
251.335
251.476
251.385
251.07
250.539
249.801
248.864
247.737
246.43
244.951
243.309
241.512
239.569
237.487
235.275
232.941
230.49
227.931
225.27
222.514
219.669
216.741
213.735
210.658
207.515
204.31
201.047
197.733
194.373
190.976
187.545
184.088
180.61
177.116
173.612
170.103
166.593
163.088
159.591
156.108
152.642
149.197
145.777
142.386
139.027
135.704
132.42
129.177
125.979
122.828
119.727
116.678
113.683
110.745
107.866
105.046
102.289
99.5957
96.9672
94.4053
91.9112
89.4862
87.1315
84.8481
82.6372
80.4998
78.437
76.4498
74.5395
72.7071
70.9539
69.2814
67.691
66.1845
64.764
63.4315
62.1888
61.0318
59.9632
58.9869
58.1078
57.3322
56.668
56.1251
55.7164
55.4585
55.3732
55.4897
55.8477
56.5033
57.5373
59.072
61.3018
64.5535
69.4122
76.9816
89.4144
110.907
149.503
219.911
351.161
584.936
890.621
10.1304
10.1792
10.2284
10.2802
10.3406
10.4174
10.5216
10.6706
10.8837
11.1827
11.5951
12.155
12.904
13.8923
15.1788
16.8309
18.9227
21.532
24.7348
28.5983
33.1729
38.4839
44.5244
51.2513
58.5842
66.4083
74.582
82.9461
91.3357
99.5916
107.57
115.15
122.236
128.763
134.69
139.997
144.684
148.763
152.253
155.181
157.574
159.462
160.875
161.844
162.399
162.571
162.392
161.894
161.109
160.072
158.816
157.377
155.788
154.087
152.308
150.49
148.667
146.876
145.155
143.539
142.064
140.768
139.684
138.85
138.3
138.068
138.186
138.686
139.595
140.936
142.729
144.982
147.697
150.862
154.452
158.432
162.751
167.35
172.159
177.108
182.123
187.137
192.086
196.916
201.579
206.037
210.258
214.22
217.904
221.295
224.385
227.166
229.636
231.795
233.644
235.188
236.432
237.384
238.066
238.487
238.655
238.58
238.273
237.743
237
236.056
234.921
233.604
232.116
230.465
228.662
226.715
224.633
222.423
220.094
217.654
215.11
212.468
209.736
206.92
204.026
201.06
198.027
194.931
191.779
188.576
185.331
182.048
178.734
175.396
172.038
168.667
165.286
161.902
158.519
155.142
151.774
148.422
145.087
141.775
138.489
135.232
132.009
128.821
125.673
122.567
119.506
116.492
113.528
110.616
107.758
104.957
102.213
99.5293
96.9071
94.3478
91.8529
89.4238
87.0616
84.7677
82.5431
80.389
78.3064
76.2964
74.3602
72.4988
70.7134
69.0053
67.376
65.8268
64.3597
62.9764
61.6792
60.4695
59.3428
58.3026
57.3528
56.4983
55.7451
55.1009
54.5755
54.1813
53.9343
53.8556
53.9735
54.3262
54.9672
55.9737
57.4616
59.6133
62.7339
67.3653
74.5256
86.1981
106.242
142.007
206.518
323.338
518.981
745.816
7.05374
7.02537
6.99741
6.96981
6.94323
6.91857
6.89695
6.88027
6.87204
6.8751
6.89315
6.93085
6.99409
7.09019
7.22815
7.41902
7.6762
8.01581
8.45705
9.02249
9.73821
10.6338
11.7417
13.0967
14.7338
16.686
18.9817
21.641
24.6726
28.0715
31.8168
35.8717
40.1844
44.6905
49.3169
53.9856
58.6188
63.1425
67.4901
71.6049
75.4411
78.9649
82.1531
84.9929
87.4804
89.6191
91.4187
92.8941
94.0643
94.9516
95.581
95.9797
96.1766
96.2023
96.0882
95.8669
95.5715
95.2357
94.8934
94.5791
94.3275
94.1735
94.1523
94.2999
94.6523
95.2463
96.1189
97.307
98.8473
100.774
103.12
105.912
109.168
112.897
117.097
121.747
126.812
132.24
137.964
143.909
149.99
156.125
162.231
168.237
174.077
179.698
185.058
190.123
194.867
199.274
203.33
207.029
210.368
213.346
215.967
218.236
220.16
221.755
223.046
224.043
224.756
225.195
225.373
225.302
224.993
224.458
223.711
222.761
221.62
220.3
218.811
217.163
215.365
213.427
211.359
209.167
206.862
204.45
201.939
199.337
196.649
193.882
191.043
188.136
185.165
182.14
179.066
175.95
172.798
169.618
166.413
163.19
159.955
156.712
153.467
150.224
146.987
143.762
140.552
137.36
134.192
131.051
127.939
124.861
121.819
118.816
115.856
112.94
110.071
107.252
104.484
101.77
99.1109
96.5095
93.9672
91.4853
89.0654
86.7089
84.417
82.191
80.0321
77.9413
75.9198
73.9687
72.0892
70.2823
68.5492
66.8913
65.3099
63.8065
62.3829
61.0409
59.7827
58.6096
57.5164
56.5076
55.587
54.7594
54.0306
53.4082
52.9013
52.5221
52.286
52.2132
52.3307
52.6749
53.2965
54.2683
55.6987
57.7568
60.7226
65.0889
71.7748
82.5618
100.903
133.312
191.005
292.444
454.305
625.835
5.89542
5.84472
5.79488
5.74581
5.69759
5.65034
5.60417
5.55932
5.51653
5.47622
5.43894
5.40541
5.37656
5.35356
5.33788
5.33134
5.33617
5.35505
5.39122
5.44853
5.53154
5.64563
5.79712
5.99334
6.24279
6.55514
6.94129
7.41325
7.98401
8.66711
9.47617
10.4241
11.5222
12.7789
14.1989
15.7819
17.5218
19.4064
21.4174
23.5311
25.7191
27.9498
30.1903
32.4076
34.5703
36.6505
38.6241
40.4719
42.1803
43.7408
45.1503
46.4106
47.5279
48.5125
49.3781
50.1413
50.8212
51.439
52.0177
52.582
53.1578
53.7726
54.4554
55.2366
56.1485
57.2252
58.503
60.0203
61.8176
63.9371
66.4216
69.3132
72.6506
76.4663
80.7829
85.6085
90.9336
96.7282
102.941
109.503
116.328
123.32
130.383
137.42
144.344
151.08
157.564
163.746
169.587
175.059
180.143
184.827
189.104
192.972
196.435
199.496
202.164
204.471
206.437
208.073
209.389
210.399
211.116
211.554
211.727
211.648
211.331
210.79
210.037
209.085
207.945
206.629
205.149
203.514
201.735
199.822
197.782
195.626
193.362
190.997
188.538
185.994
183.37
180.672
177.904
175.076
172.193
169.262
166.291
163.285
160.25
157.193
154.119
151.034
147.941
144.847
141.756
138.671
135.599
132.542
129.505
126.491
123.503
120.546
117.622
114.734
111.884
109.077
106.314
103.597
100.928
98.3108
95.7459
93.2355
90.7814
88.385
86.048
83.7716
81.5572
79.4061
77.3196
75.2986
73.3445
71.4582
69.6411
67.8941
66.2185
64.6156
63.0868
61.6336
60.2577
58.961
57.7454
56.6117
55.5556
54.5814
53.6928
52.8946
52.1923
51.5932
51.1062
50.7429
50.5179
50.4505
50.5663
50.8996
51.498
52.4294
53.7939
55.7463
58.5396
62.6141
68.7822
78.6065
95.0971
123.868
174.347
260.655
393.065
525.171
5.38746
5.32951
5.27258
5.2166
5.16159
5.10755
5.05447
5.00239
4.95149
4.90184
4.85349
4.80656
4.76119
4.71758
4.67599
4.63675
4.60028
4.56709
4.53782
4.51322
4.4942
4.48182
4.47732
4.48215
4.49797
4.52669
4.57046
4.63175
4.71329
4.81815
4.94969
5.11159
5.30779
5.54241
5.81966
6.14369
6.5184
6.9472
7.43276
7.97672
8.57944
9.23973
9.95475
10.7199
11.5289
12.374
13.2463
14.1362
15.034
15.9299
16.8154
17.6831
18.5272
19.3439
20.1317
20.8913
21.6257
22.3404
23.0431
23.7435
24.4541
25.189
25.965
26.8014
27.72
28.746
29.9078
31.2378
32.7729
34.5544
36.6286
39.0457
41.8589
45.1215
48.8837
53.1876
58.0607
63.5109
69.521
76.0468
83.0179
90.3418
97.9109
105.611
113.328
120.959
128.41
135.603
142.479
148.988
155.096
160.779
166.023
170.819
175.166
179.065
182.531
185.607
188.304
190.632
192.605
194.236
195.541
196.536
197.236
197.656
197.813
197.72
197.392
196.844
196.089
195.139
194.008
192.706
191.246
189.637
187.891
186.016
184.023
181.919
179.712
177.412
175.024
172.556
170.012
167.4
164.726
161.999
159.226
156.412
153.565
150.69
147.793
144.879
141.954
139.024
136.091
133.162
130.241
127.331
124.438
121.563
118.712
115.886
113.091
110.328
107.601
104.912
102.264
99.6592
97.0997
94.5878
92.1255
89.7146
87.3568
85.0538
82.8071
80.6182
78.4884
76.4191
74.4114
72.4666
70.5858
68.7702
67.0209
65.3391
63.7261
62.183
60.7114
59.3127
57.9885
56.7409
55.5715
54.4801
53.4644
52.5279
51.6741
50.9076
50.2339
49.6599
49.1943
48.8478
48.6344
48.5724
48.6857
49.0065
49.5789
50.4657
51.7582
53.5962
56.2052
59.972
65.6004
74.4301
89.0202
114.088
157.383
229.542
336.734
440.005
5.14327
5.08269
5.02319
4.96472
4.90728
4.85084
4.79539
4.74094
4.68752
4.63513
4.58376
4.53341
4.48409
4.43582
4.38864
4.34259
4.29774
4.25419
4.21206
4.1715
4.13271
4.09591
4.06138
4.02944
4.00048
3.97492
3.95327
3.93608
3.92398
3.91767
3.91792
3.92554
3.94145
3.9666
4.002
4.0487
4.10778
4.18031
4.26737
4.36995
4.48895
4.62515
4.77913
4.95123
5.14154
5.34983
5.57558
5.81794
6.07577
6.34772
6.6323
6.92794
7.23316
7.5467
7.86764
8.19554
8.5306
8.87381
9.22704
9.59322
9.97647
10.3823
10.8177
11.2916
11.8151
12.4018
13.0687
13.8363
14.7303
15.7817
17.0285
18.5165
20.2996
22.4401
25.0069
28.0718
31.7041
35.9621
40.8843
46.4803
52.7251
59.5578
66.8849
74.589
82.539
90.6011
98.6482
106.567
114.26
121.649
128.674
135.287
141.457
147.16
152.386
157.128
161.43
165.308
168.772
171.831
174.5
176.793
178.727
180.318
181.584
182.542
183.208
183.6
183.732
183.622
183.283
182.73
181.978
181.038
179.924
178.647
177.219
175.65
173.951
172.13
170.198
168.162
166.032
163.814
161.512
159.134
156.689
154.183
151.624
149.02
146.375
143.698
140.993
138.266
135.524
132.77
130.011
127.25
124.493
121.743
119.004
116.281
113.577
110.895
108.239
105.612
103.017
100.457
97.9334
95.4498
93.0081
90.6105
88.259
85.9556
83.7021
81.5001
79.3511
77.2567
75.2184
73.2373
71.3148
69.4522
67.6505
65.9111
64.235
62.6235
61.0779
59.5993
58.1892
56.8491
55.5806
54.3857
53.2659
52.2202
51.2478
50.3517
49.5354
48.8031
48.1602
47.6132
47.1702
46.8417
46.6407
46.5843
46.6948
47.002
47.5467
48.386
49.6025
51.321
53.7396
57.1925
62.2785
70.121
82.8446
104.317
140.781
200.173
286.115
367.669
5.02049
4.95883
4.89827
4.8388
4.78039
4.72301
4.66664
4.61129
4.55695
4.5036
4.45121
4.39977
4.34926
4.29967
4.25099
4.20321
4.15633
4.11035
4.06529
4.02116
3.978
3.93585
3.89476
3.8548
3.81605
3.77861
3.74261
3.70817
3.67546
3.64465
3.61594
3.58955
3.5657
3.54465
3.52667
3.51204
3.50104
3.49398
3.49113
3.49279
3.49924
3.51072
3.52746
3.54966
3.57748
3.61102
3.65035
3.69549
3.74641
3.80303
3.86526
3.93298
4.0061
4.08454
4.16831
4.25751
4.35239
4.45341
4.56128
4.67701
4.80202
4.93823
5.08813
5.25502
5.44312
5.65791
5.90645
6.19791
6.54421
6.96098
7.46875
8.09448
8.87354
9.85189
11.0882
12.6552
14.6392
17.1366
20.2452
24.0514
28.6153
33.9566
40.047
46.8101
54.1302
61.8654
69.8623
77.9695
86.0479
93.9759
101.652
108.994
115.938
122.438
128.459
134.022
139.142
143.816
148.051
151.853
155.235
158.212
160.799
163.013
164.873
166.396
167.602
168.506
169.128
169.483
169.588
169.46
169.112
168.56
167.817
166.896
165.809
164.569
163.185
161.67
160.031
158.28
156.425
154.475
152.434
150.309
148.108
145.841
143.513
141.133
138.707
136.241
133.743
131.218
128.671
126.108
123.534
120.954
118.372
115.794
113.222
110.661
108.115
105.588
103.082
100.6
98.147
95.7242
93.3348
90.9812
88.6658
86.3907
84.1582
81.9701
79.8282
77.7344
75.6901
73.697
71.7565
69.87
68.0387
66.264
64.5471
62.8891
61.2913
59.755
58.2813
56.8716
55.5272
54.2497
53.0406
51.9018
50.8349
49.8381
48.9118
48.0589
47.2824
46.5866
45.9765
45.4583
45.0396
44.7303
44.5425
44.4922
44.5999
44.8932
45.4092
46.1995
47.3381
48.9349
51.1618
54.3035
58.8599
65.7543
76.7101
94.8263
125.03
173.212
241.484
306.208
4.95795
4.89576
4.83472
4.77479
4.71594
4.65815
4.60139
4.54567
4.49094
4.4372
4.38442
4.33258
4.28165
4.23161
4.18246
4.13416
4.0867
4.04007
3.99426
3.94925
3.90504
3.86162
3.819
3.77719
3.73618
3.69599
3.65665
3.61818
3.58062
3.54401
3.50839
3.47383
3.44037
3.40809
3.37707
3.34738
3.31912
3.29236
3.2672
3.24372
3.22202
3.20219
3.18429
3.16841
3.15461
3.14294
3.13346
3.12618
3.12115
3.11836
3.11783
3.11957
3.12359
3.12989
3.13852
3.14953
3.16303
3.17916
3.19815
3.2203
3.24604
3.27593
3.31072
3.35138
3.3992
3.45586
3.52355
3.6052
3.70469
3.82726
3.98006
4.17293
4.41962
4.73941
5.15951
5.71818
6.46861
7.48288
8.85466
10.698
13.1389
16.2988
20.2707
25.0969
30.7558
37.1639
44.1889
51.6696
59.4348
67.3186
75.1694
82.8542
90.2657
97.3135
103.983
110.253
116.096
121.5
126.459
130.974
135.052
138.705
141.945
144.788
147.252
149.355
151.115
152.551
153.68
154.521
155.092
155.408
155.486
155.342
154.991
154.446
153.72
152.827
151.779
150.586
149.26
147.811
146.248
144.582
142.818
140.961
139.022
137.007
134.925
132.784
130.59
128.35
126.072
123.761
121.422
119.062
116.685
114.298
111.903
109.507
107.113
104.725
102.347
99.9836
97.6369
95.3106
93.008
90.7317
88.4846
86.2693
84.0881
81.9434
79.8372
77.7716
75.7485
73.7696
71.8366
69.9511
68.1146
66.3284
64.594
62.9126
61.2856
59.7141
58.1994
56.7428
55.3454
54.0087
52.7339
51.5226
50.3765
49.2971
48.2862
47.3412
46.4637
45.6564
44.9222
44.265
43.6896
43.2018
42.809
42.52
42.3464
42.3028
42.4083
42.6877
43.1748
43.9158
44.9762
46.4519
48.4902
51.3299
55.3821
61.3902
70.722
85.8041
110.449
149.011
202.75
254.126
4.92636
4.86389
4.80259
4.74242
4.68335
4.62536
4.56842
4.51251
4.45762
4.40371
4.35076
4.29874
4.24765
4.19745
4.14812
4.09965
4.05201
4.00519
3.95917
3.91393
3.86946
3.82574
3.78276
3.74051
3.69898
3.65817
3.61806
3.57867
3.53998
3.502
3.46473
3.42819
3.39239
3.35734
3.32306
3.28957
3.25689
3.22505
3.19407
3.16398
3.13481
3.10659
3.07935
3.05311
3.02789
3.00373
2.98063
2.95862
2.93771
2.9179
2.89921
2.88165
2.86521
2.8499
2.83574
2.82273
2.81091
2.80031
2.79099
2.78302
2.77653
2.77165
2.76859
2.76763
2.76911
2.77351
2.78144
2.79373
2.81147
2.83614
2.86977
2.91518
2.97633
3.05896
3.17138
3.32596
3.54119
3.8449
4.27878
4.90416
5.80791
7.10571
8.93762
11.4513
14.7725
18.9732
24.0495
29.9218
36.4511
43.4634
50.7701
58.1816
65.5528
72.7991
79.8201
86.5421
92.911
98.8894
104.453
109.59
114.296
118.574
122.431
125.878
128.931
131.605
133.918
135.886
137.529
138.865
139.91
140.683
141.2
141.478
141.533
141.378
141.029
140.498
139.8
138.945
137.946
136.812
135.556
134.187
132.714
131.14
129.474
127.725
125.902
124.013
122.064
120.062
118.016
115.93
113.811
111.664
109.496
107.311
105.115
102.91
100.704
98.4981
96.2978
94.1066
91.928
89.7652
87.6215
85.4997
83.4028
81.3333
79.2937
77.2864
75.3134
73.377
71.4791
69.6214
67.8057
66.0335
64.3066
62.6262
60.9939
59.4109
57.8786
56.3982
54.9709
53.5982
52.2811
51.0212
49.8196
48.678
47.5979
46.5811
45.6289
44.7385
43.9124
43.1529
42.463
41.8464
41.3075
40.8518
40.486
40.2186
40.0602
40.0242
40.1279
40.394
40.8527
41.545
42.5284
43.8857
45.7417
48.2943
51.8758
57.0743
64.9521
77.3673
97.2114
127.684
169.588
210.216
4.91075
4.84813
4.78667
4.72637
4.66719
4.60909
4.55206
4.49606
4.44108
4.38709
4.33407
4.28198
4.23082
4.18056
4.13117
4.08264
4.03494
3.98807
3.94199
3.89669
3.85216
3.80837
3.76532
3.72299
3.68136
3.64042
3.60016
3.56057
3.52165
3.48338
3.44576
3.40878
3.37245
3.33675
3.3017
3.26728
3.23351
3.20039
3.16793
3.13612
3.10498
3.07452
3.04473
3.01564
2.98724
2.95954
2.93255
2.90627
2.88071
2.85586
2.83172
2.80829
2.78557
2.76355
2.74223
2.7216
2.70166
2.68242
2.66386
2.64601
2.62889
2.61252
2.59695
2.58224
2.56849
2.55582
2.54439
2.53444
2.52626
2.52026
2.51701
2.51727
2.52212
2.53311
2.55247
2.58354
2.63136
2.70371
2.81284
2.97813
3.23038
3.61791
4.21406
5.12397
6.48504
8.454
11.1771
14.751
19.1926
24.4282
30.3017
36.671
43.3695
50.2283
57.1001
63.8635
70.4226
76.7045
82.6561
88.241
93.4364
98.23
102.618
106.604
110.195
113.401
116.237
118.719
120.861
122.682
124.198
125.427
126.385
127.089
127.555
127.798
127.833
127.674
127.334
126.827
126.165
125.358
124.418
123.357
122.184
120.903
119.522
118.05
116.497
114.869
113.175
111.422
109.617
107.767
105.877
103.954
102.003
100.03
98.0397
96.0367
94.0255
92.0106
89.9959
87.9853
85.9823
83.9905
82.013
80.0529
78.113
76.196
74.3045
72.4409
70.6075
68.8062
67.0392
65.3083
63.6153
61.9618
60.3495
58.7798
57.2542
55.7741
54.3408
52.9556
51.6198
50.3347
49.1016
47.9218
46.7968
45.7279
44.7167
43.765
42.8742
42.0409
41.2682
40.5587
39.915
39.3406
38.8398
38.4175
38.0801
37.8354
37.6931
37.6654
37.7681
38.0216
38.4528
39.0978
40.0066
41.25
42.9325
45.2162
48.3661
52.839
59.4432
69.5705
85.3678
109.168
141.53
173.44
4.90325
4.84054
4.77901
4.71864
4.65939
4.60124
4.54416
4.48812
4.4331
4.37907
4.32602
4.27391
4.22272
4.17243
4.12302
4.07448
4.02677
3.97988
3.93379
3.88849
3.84395
3.80016
3.75711
3.71477
3.67313
3.63219
3.59192
3.55232
3.51337
3.47506
3.43739
3.40035
3.36392
3.3281
3.2929
3.25829
3.22428
3.19087
3.15806
3.12583
3.0942
3.06316
3.03272
3.00286
2.97359
2.94491
2.91682
2.8893
2.86237
2.83602
2.81023
2.785
2.76032
2.73618
2.71257
2.68947
2.66687
2.64476
2.62312
2.60194
2.58121
2.56092
2.54108
2.52169
2.50275
2.4843
2.46636
2.449
2.43229
2.41634
2.40131
2.38741
2.37494
2.3643
2.35611
2.35125
2.35101
2.35742
2.37364
2.40473
2.45895
2.55
2.70057
2.94802
3.35197
4.00259
5.02443
6.56809
8.78257
11.7661
15.5756
20.1583
25.3953
31.129
37.1918
43.4248
49.6888
55.8681
61.8708
67.6268
73.0848
78.2098
82.9793
87.3811
91.4112
95.0715
98.3685
101.312
103.915
106.19
108.153
109.82
111.206
112.327
113.199
113.837
114.255
114.469
114.491
114.335
114.013
113.538
112.92
112.172
111.305
110.324
109.235
108.047
106.77
105.412
103.981
102.484
100.929
99.3212
97.6684
95.9762
94.2505
92.4966
90.7197
88.9248
87.1164
85.2989
83.4765
81.6531
79.8323
78.0178
76.2127
74.4202
72.6433
70.8846
69.1468
67.4324
65.7436
64.0827
62.4516
60.8523
59.2867
57.7564
56.2631
54.8084
53.3936
52.0203
50.6898
49.4035
48.1626
46.9684
45.8224
44.7258
43.68
42.6865
41.7468
40.8625
40.0351
39.261
38.5439
37.886
37.2902
36.7595
36.2979
35.9103
35.6023
35.3811
35.2557
35.2372
35.3397
35.5815
35.9864
36.5861
37.4234
38.5585
40.0782
42.1135
44.873
48.7058
54.215
62.4199
74.8803
93.2764
118.029
142.867
4.89974
4.83699
4.77542
4.71501
4.65573
4.59756
4.54046
4.4844
4.42936
4.37533
4.32226
4.27014
4.21894
4.16865
4.11924
4.0707
4.02299
3.97611
3.93002
3.88473
3.8402
3.79642
3.75338
3.71106
3.66944
3.62851
3.58826
3.54867
3.50974
3.47145
3.43379
3.39675
3.36033
3.32451
3.28929
3.25466
3.22062
3.18716
3.15428
3.12197
3.09023
3.05905
3.02844
2.99838
2.96888
2.93993
2.91153
2.88366
2.85632
2.82951
2.80321
2.77741
2.75211
2.72728
2.70291
2.67898
2.65548
2.63238
2.60968
2.58734
2.56534
2.54368
2.52233
2.50128
2.48051
2.46002
2.43981
2.41989
2.40025
2.38094
2.36198
2.34344
2.3254
2.30796
2.29131
2.27567
2.2614
2.24901
2.23931
2.23357
2.23385
2.24358
2.26853
2.31867
2.41106
2.57477
2.85783
3.33535
4.11482
5.33997
7.15798
9.67727