/*--------------------------------*- C++ -*----------------------------------*\
| =========                 |                                                 |
| \\      /  F ield         | OpenFOAM: The Open Source CFD Toolbox           |
|  \\    /   O peration     | Version:  2.4.0                                 |
|   \\  /    A nd           | Web:      www.OpenFOAM.org                      |
|    \\/     M anipulation  |                                                 |
\*---------------------------------------------------------------------------*/
FoamFile
{
    version     2.0;
    format      ascii;
    class       volVectorField;
    location    "0.005";
    object      UMean;
}
// * * * * * * * * * * * * * * * * * * * * * * * * * * * * * * * * * * * * * //

dimensions      [0 1 -1 0 0 0 0];

internalField   nonuniform List<vector> 
17600
(
(9.8048 -0.277396 0)
(9.60967 -0.147939 0)
(9.37852 -0.0801354 0)
(9.14516 -0.0414347 0)
(8.9233 -0.019124 0)
(8.71475 -0.00639843 0)
(8.51985 0.000653762 0)
(8.33931 0.00436031 0)
(8.17318 0.00609345 0)
(8.02096 0.00667508 0)
(7.88206 0.0066102 0)
(7.75571 0.00620919 0)
(7.64117 0.00565464 0)
(7.53739 0.0050601 0)
(7.44332 0.00449667 0)
(7.35769 0.00402912 0)
(7.27843 0.00374266 0)
(7.20288 0.00375917 0)
(7.12047 0.00472642 0)
(7.04036 -0.000881693 0)
(9.99049 0.121686 0)
(9.97541 0.107533 0)
(9.93671 0.085149 0)
(9.8829 0.0686958 0)
(9.82123 0.0566523 0)
(9.75235 0.0477308 0)
(9.67707 0.0410518 0)
(9.59734 0.0359831 0)
(9.51478 0.0320128 0)
(9.43067 0.0287795 0)
(9.3461 0.0260614 0)
(9.26193 0.0237181 0)
(9.17894 0.0216501 0)
(9.09751 0.0198096 0)
(9.01785 0.0181852 0)
(8.93978 0.0168357 0)
(8.8622 0.0159328 0)
(8.78301 0.0158652 0)
(8.69364 0.017829 0)
(8.57768 0.0489171 0)
(10.0035 0.0368616 0)
(10.0175 0.0258663 0)
(10.023 0.0228722 0)
(10.0217 0.0253981 0)
(10.0186 0.0281981 0)
(10.0123 0.030005 0)
(10.0018 0.0308728 0)
(9.98756 0.0310645 0)
(9.96968 0.0307379 0)
(9.94827 0.030019 0)
(9.92343 0.0290462 0)
(9.89522 0.0279246 0)
(9.86375 0.026724 0)
(9.82889 0.0255289 0)
(9.79048 0.0244321 0)
(9.74812 0.0236007 0)
(9.70071 0.0233745 0)
(9.64648 0.0244613 0)
(9.57786 0.0293903 0)
(9.48949 0.055094 0)
(10.0054 0.0295662 0)
(10.0243 0.031408 0)
(10.0389 0.0327602 0)
(10.0491 0.035112 0)
(10.0596 0.0362779 0)
(10.0693 0.0362254 0)
(10.0771 0.0355207 0)
(10.083 0.0345591 0)
(10.0871 0.0334661 0)
(10.0892 0.0323048 0)
(10.0895 0.0311499 0)
(10.0877 0.0300411 0)
(10.0839 0.0290019 0)
(10.0777 0.0280907 0)
(10.0689 0.0273923 0)
(10.057 0.027099 0)
(10.0406 0.0276404 0)
(10.0183 0.0299649 0)
(9.9841 0.0370045 0)
(9.9405 0.0619001 0)
(10.005 0.0265262 0)
(10.0244 0.0304601 0)
(10.0415 0.0310332 0)
(10.0552 0.0325694 0)
(10.0699 0.0334712 0)
(10.0846 0.0335042 0)
(10.098 0.0330712 0)
(10.1104 0.032452 0)
(10.1217 0.031706 0)
(10.1319 0.0308763 0)
(10.1409 0.0300307 0)
(10.1486 0.029208 0)
(10.1551 0.0284415 0)
(10.1602 0.027809 0)
(10.1635 0.0274212 0)
(10.1647 0.0275169 0)
(10.1628 0.0286069 0)
(10.157 0.0318028 0)
(10.143 0.0401388 0)
(10.1279 0.064166 0)
(10.0041 0.0243346 0)
(10.0227 0.0286786 0)
(10.0407 0.0290979 0)
(10.0558 0.0305556 0)
(10.0722 0.0315314 0)
(10.0887 0.0316782 0)
(10.1044 0.0313645 0)
(10.1194 0.0308539 0)
(10.1336 0.0302089 0)
(10.147 0.0294825 0)
(10.1596 0.0287441 0)
(10.1712 0.0280355 0)
(10.1819 0.0273957 0)
(10.1916 0.0269118 0)
(10.2 0.0267112 0)
(10.2067 0.0270619 0)
(10.2112 0.0285218 0)
(10.2127 0.0322833 0)
(10.2083 0.041311 0)
(10.207 0.064339 0)
(10.0031 0.0218054 0)
(10.0207 0.0263875 0)
(10.0389 0.026961 0)
(10.0547 0.0284137 0)
(10.0717 0.0294081 0)
(10.0891 0.0296006 0)
(10.1058 0.0293534 0)
(10.122 0.0289167 0)
(10.1376 0.0283529 0)
(10.1525 0.0277171 0)
(10.1668 0.0270751 0)
(10.1803 0.0264694 0)
(10.1931 0.0259428 0)
(10.205 0.025589 0)
(10.2159 0.0255497 0)
(10.2254 0.0261161 0)
(10.2329 0.0278765 0)
(10.2382 0.0320609 0)
(10.2387 0.0414982 0)
(10.2444 0.0635118 0)
(10.0022 0.0194386 0)
(10.0187 0.0242069 0)
(10.0369 0.024927 0)
(10.053 0.0263086 0)
(10.0703 0.0272613 0)
(10.088 0.027464 0)
(10.1053 0.0272595 0)
(10.122 0.0268782 0)
(10.1383 0.02638 0)
(10.1541 0.025819 0)
(10.1693 0.0252573 0)
(10.1838 0.0247376 0)
(10.1977 0.0243069 0)
(10.2109 0.0240644 0)
(10.2231 0.0241647 0)
(10.2341 0.0249174 0)
(10.2434 0.0269309 0)
(10.2509 0.0314471 0)
(10.2544 0.0411331 0)
(10.2642 0.0621657 0)
(10.0014 0.0172846 0)
(10.0169 0.0220952 0)
(10.035 0.0228995 0)
(10.0511 0.0241802 0)
(10.0685 0.0250761 0)
(10.0864 0.0252813 0)
(10.1039 0.0251116 0)
(10.121 0.0247777 0)
(10.1377 0.0243367 0)
(10.1539 0.0238416 0)
(10.1696 0.0233507 0)
(10.1847 0.0229073 0)
(10.1993 0.0225621 0)
(10.2132 0.0224189 0)
(10.2262 0.0226441 0)
(10.2381 0.0235622 0)
(10.2486 0.0257941 0)
(10.2575 0.0305764 0)
(10.2631 0.0404008 0)
(10.2757 0.0604905 0)
(10.0008 0.0153106 0)
(10.0154 0.0200274 0)
(10.0332 0.020876 0)
(10.0494 0.0220503 0)
(10.0668 0.0228838 0)
(10.0847 0.0230855 0)
(10.1023 0.022943 0)
(10.1195 0.0226492 0)
(10.1364 0.0222584 0)
(10.1529 0.0218218 0)
(10.1688 0.0213947 0)
(10.1843 0.0210204 0)
(10.1993 0.0207528 0)
(10.2136 0.0206999 0)
(10.2272 0.0210385 0)
(10.2398 0.0221049 0)
(10.251 0.0245268 0)
(10.261 0.0295229 0)
(10.2681 0.0394033 0)
(10.2827 0.058587 0)
(10.0002 0.0134851 0)
(10.0141 0.0179997 0)
(10.0317 0.0188621 0)
(10.0478 0.0199279 0)
(10.0652 0.020694 0)
(10.0831 0.0208867 0)
(10.1007 0.0207653 0)
(10.118 0.0205066 0)
(10.135 0.020161 0)
(10.1516 0.0197778 0)
(10.1677 0.0194095 0)
(10.1834 0.0190991 0)
(10.1986 0.0189034 0)
(10.2132 0.0189336 0)
(10.2271 0.0193758 0)
(10.2402 0.0205757 0)
(10.252 0.0231631 0)
(10.2628 0.0283299 0)
(10.2711 0.0382019 0)
(10.2873 0.0565143 0)
(9.99973 0.0117846 0)
(10.0129 0.0160115 0)
(10.0303 0.01686 0)
(10.0465 0.0178156 0)
(10.0638 0.0185099 0)
(10.0816 0.0186895 0)
(10.0992 0.018585 0)
(10.1165 0.018358 0)
(10.1336 0.0180543 0)
(10.1502 0.0177208 0)
(10.1665 0.0174078 0)
(10.1823 0.0171574 0)
(10.1976 0.0170288 0)
(10.2124 0.0171361 0)
(10.2266 0.0176731 0)
(10.2399 0.0189927 0)
(10.2522 0.0217238 0)
(10.2637 0.0270243 0)
(10.2731 0.0368371 0)
(10.2904 0.0543105 0)
(9.99933 0.0101892 0)
(10.012 0.0140596 0)
(10.0292 0.014869 0)
(10.0453 0.0157127 0)
(10.0626 0.0163323 0)
(10.0804 0.0164955 0)
(10.0979 0.0164052 0)
(10.1152 0.0162078 0)
(10.1323 0.0159437 0)
(10.149 0.0156573 0)
(10.1653 0.0153969 0)
(10.1811 0.0152032 0)
(10.1966 0.015138 0)
(10.2115 0.0153175 0)
(10.2258 0.0159415 0)
(10.2394 0.0173677 0)
(10.2521 0.0202219 0)
(10.2642 0.025624 0)
(10.2744 0.0353375 0)
(10.2927 0.0520043 0)
(9.99901 0.00868082 0)
(10.0112 0.0121394 0)
(10.0282 0.012888 0)
(10.0443 0.0136186 0)
(10.0615 0.0141607 0)
(10.0793 0.0143052 0)
(10.0968 0.0142271 0)
(10.1141 0.0140581 0)
(10.1312 0.0138322 0)
(10.1478 0.0135909 0)
(10.1642 0.0133811 0)
(10.1801 0.0132416 0)
(10.1956 0.0132365 0)
(10.2106 0.0134842 0)
(10.2251 0.0141886 0)
(10.2389 0.0157086 0)
(10.2519 0.0186659 0)
(10.2644 0.0241409 0)
(10.2754 0.0337234 0)
(10.2945 0.0496169 0)
(9.99874 0.00724353 0)
(10.0105 0.0102458 0)
(10.0274 0.0109151 0)
(10.0435 0.0115323 0)
(10.0607 0.0119947 0)
(10.0784 0.0121183 0)
(10.0959 0.0120514 0)
(10.1132 0.0119098 0)
(10.1302 0.0117211 0)
(10.1469 0.0115235 0)
(10.1632 0.0113627 0)
(10.1792 0.0112752 0)
(10.1947 0.0113279 0)
(10.2098 0.0116402 0)
(10.2243 0.0124187 0)
(10.2383 0.0140217 0)
(10.2516 0.0170625 0)
(10.2647 0.0225838 0)
(10.2763 0.0320104 0)
(10.2961 0.0471658 0)
(9.99854 0.00586298 0)
(10.01 0.00837352 0)
(10.0268 0.00894863 0)
(10.0429 0.00945264 0)
(10.0601 0.00983317 0)
(10.0777 0.00993431 0)
(10.0952 0.00987792 0)
(10.1125 0.00976308 0)
(10.1295 0.00961121 0)
(10.1462 0.00945647 0)
(10.1625 0.00934295 0)
(10.1785 0.009306 0)
(10.194 0.00941437 0)
(10.2091 0.00978792 0)
(10.2238 0.0106344 0)
(10.2379 0.0123106 0)
(10.2514 0.0154171 0)
(10.2649 0.0209594 0)
(10.2771 0.0302098 0)
(10.2975 0.0446636 0)
(9.99839 0.00452593 0)
(10.0096 0.00651754 0)
(10.0263 0.00698703 0)
(10.0425 0.00737814 0)
(10.0596 0.007675 0)
(10.0772 0.00775284 0)
(10.0947 0.00770649 0)
(10.1119 0.00761791 0)
(10.1289 0.00750267 0)
(10.1456 0.00739009 0)
(10.1619 0.00732255 0)
(10.1779 0.00733475 0)
(10.1935 0.00749717 0)
(10.2086 0.00792864 0)
(10.2233 0.00883751 0)
(10.2376 0.0105775 0)
(10.2513 0.0137339 0)
(10.2652 0.0192743 0)
(10.278 0.0283311 0)
(10.2988 0.0421214 0)
(9.99828 0.0032202 0)
(10.0094 0.00467279 0)
(10.026 0.00502908 0)
(10.0422 0.00530778 0)
(10.0593 0.00551915 0)
(10.0769 0.00557304 0)
(10.0943 0.00553672 0)
(10.1116 0.00547408 0)
(10.1285 0.0053956 0)
(10.1452 0.0053247 0)
(10.1615 0.00530192 0)
(10.1775 0.00536214 0)
(10.1931 0.00557686 0)
(10.2083 0.00606304 0)
(10.223 0.00702901 0)
(10.2374 0.00882348 0)
(10.2514 0.0120164 0)
(10.2656 0.0175339 0)
(10.2789 0.0263816 0)
(10.3002 0.0395471 0)
(9.99823 0.00193441 0)
(10.0092 0.00283416 0)
(10.0259 0.00307315 0)
(10.042 0.00324052 0)
(10.0591 0.00336541 0)
(10.0767 0.00339444 0)
(10.0941 0.00336813 0)
(10.1113 0.00333141 0)
(10.1283 0.00328957 0)
(10.145 0.00326001 0)
(10.1613 0.0032812 0)
(10.1773 0.00338835 0)
(10.1929 0.00365372 0)
(10.2081 0.00419152 0)
(10.2229 0.0052096 0)
(10.2374 0.00705005 0)
(10.2515 0.0102674 0)
(10.2661 0.0157418 0)
(10.2799 0.0243678 0)
(10.3015 0.0369486 0)
(9.99821 0.000658673 0)
(10.0092 0.000996802 0)
(10.0258 0.0011176 0)
(10.042 0.00117581 0)
(10.0591 0.0012135 0)
(10.0767 0.00121623 0)
(10.0941 0.00120059 0)
(10.1113 0.00119047 0)
(10.1282 0.00118503 0)
(10.1449 0.00119626 0)
(10.1612 0.00126104 0)
(10.1772 0.0014143 0)
(10.1928 0.00172838 0)
(10.2081 0.00231456 0)
(10.2229 0.00337972 0)
(10.2375 0.00525821 0)
(10.2518 0.00848869 0)
(10.2667 0.0139013 0)
(10.281 0.0222962 0)
(10.3029 0.0343311 0)
(9.99821 -0.000613923 0)
(10.0091 -0.000842484 0)
(10.0258 -0.000841434 0)
(10.042 -0.000890678 0)
(10.0591 -0.000939914 0)
(10.0768 -0.000964995 0)
(10.0942 -0.000969749 0)
(10.1114 -0.000951188 0)
(10.1283 -0.000919618 0)
(10.145 -0.000867969 0)
(10.1613 -0.00075993 0)
(10.1773 -0.000560935 0)
(10.1929 -0.000199252 0)
(10.2082 0.000432061 0)
(10.2231 0.00153907 0)
(10.2378 0.00344811 0)
(10.2523 0.00667976 0)
(10.2674 0.0120156 0)
(10.2821 0.020174 0)
(10.3043 0.0317001 0)
(9.99823 -0.00188712 0)
(10.0092 -0.00268223 0)
(10.0258 -0.00280441 0)
(10.042 -0.00295995 0)
(10.0592 -0.00309462 0)
(10.0769 -0.00314761 0)
(10.0944 -0.00314242 0)
(10.1116 -0.00309439 0)
(10.1285 -0.00302338 0)
(10.1452 -0.00293039 0)
(10.1615 -0.00277958 0)
(10.1775 -0.00253593 0)
(10.1931 -0.00212814 0)
(10.2084 -0.00145473 0)
(10.2234 -0.000311374 0)
(10.2382 0.00162039 0)
(10.2528 0.00484175 0)
(10.2682 0.0100889 0)
(10.2834 0.0180064 0)
(10.3057 0.0290591 0)
(9.99829 -0.00316952 0)
(10.0093 -0.00452391 0)
(10.026 -0.0047717 0)
(10.0422 -0.00503469 0)
(10.0594 -0.00525354 0)
(10.0772 -0.00533355 0)
(10.0947 -0.00531914 0)
(10.1119 -0.00524255 0)
(10.1289 -0.00513065 0)
(10.1455 -0.00499374 0)
(10.1619 -0.00479905 0)
(10.1779 -0.00451186 0)
(10.1935 -0.00405912 0)
(10.2088 -0.00334589 0)
(10.2239 -0.00217139 0)
(10.2387 -0.000224892 0)
(10.2536 0.00297553 0)
(10.2692 0.00812365 0)
(10.2847 0.0157967 0)
(10.3073 0.0264124 0)
(9.9984 -0.00447238 0)
(10.0096 -0.00637181 0)
(10.0263 -0.00674182 0)
(10.0425 -0.00711398 0)
(10.0598 -0.00741699 0)
(10.0775 -0.00752296 0)
(10.0951 -0.00749857 0)
(10.1124 -0.00739449 0)
(10.1294 -0.00724225 0)
(10.146 -0.0070596 0)
(10.1624 -0.00681907 0)
(10.1784 -0.00648889 0)
(10.1941 -0.00599282 0)
(10.2094 -0.00524156 0)
(10.2245 -0.00404051 0)
(10.2394 -0.00208738 0)
(10.2544 0.00108233 0)
(10.2703 0.00612177 0)
(10.2862 0.0135475 0)
(10.3089 0.0237633 0)
(9.99855 -0.00580743 0)
(10.01 -0.00823136 0)
(10.0268 -0.00871524 0)
(10.043 -0.00919826 0)
(10.0603 -0.00958475 0)
(10.0781 -0.00971576 0)
(10.0956 -0.00968062 0)
(10.113 -0.00954923 0)
(10.13 -0.00935742 0)
(10.1467 -0.0091289 0)
(10.163 -0.00884114 0)
(10.179 -0.00846732 0)
(10.1947 -0.0079294 0)
(10.2101 -0.00714183 0)
(10.2252 -0.00591807 0)
(10.2403 -0.00396581 0)
(10.2554 -0.00083683 0)
(10.2715 0.00408471 0)
(10.2877 0.0112611 0)
(10.3106 0.021116 0)
(9.99876 -0.00718682 0)
(10.0105 -0.010108 0)
(10.0274 -0.0106933 0)
(10.0436 -0.0112883 0)
(10.0609 -0.0117573 0)
(10.0788 -0.011912 0)
(10.0964 -0.0118651 0)
(10.1137 -0.0117065 0)
(10.1308 -0.0114752 0)
(10.1475 -0.0112013 0)
(10.1638 -0.0108656 0)
(10.1798 -0.010447 0)
(10.1956 -0.00986859 0)
(10.211 -0.00904694 0)
(10.2261 -0.00780341 0)
(10.2412 -0.00585848 0)
(10.2565 -0.00278036 0)
(10.2728 0.00201433 0)
(10.2894 0.00893953 0)
(10.3123 0.0184733 0)
(9.99902 -0.00862393 0)
(10.0112 -0.012007 0)
(10.0282 -0.0126776 0)
(10.0444 -0.0133854 0)
(10.0618 -0.013935 0)
(10.0797 -0.0141118 0)
(10.0973 -0.014052 0)
(10.1147 -0.0138658 0)
(10.1318 -0.0135953 0)
(10.1485 -0.0132757 0)
(10.1648 -0.012892 0)
(10.1808 -0.012428 0)
(10.1965 -0.0118092 0)
(10.2119 -0.0109559 0)
(10.2271 -0.00969477 0)
(10.2423 -0.00776316 0)
(10.2577 -0.00474626 0)
(10.2741 -8.72942e-05 0)
(10.291 0.00658469 0)
(10.3141 0.015836 0)
(9.99935 -0.0101331 0)
(10.012 -0.0139335 0)
(10.0292 -0.0146698 0)
(10.0454 -0.0154906 0)
(10.0628 -0.016119 0)
(10.0807 -0.0163154 0)
(10.0984 -0.0162411 0)
(10.1158 -0.0160267 0)
(10.1329 -0.0157165 0)
(10.1496 -0.0153506 0)
(10.166 -0.0149192 0)
(10.1819 -0.0144091 0)
(10.1976 -0.0137496 0)
(10.213 -0.0128666 0)
(10.2282 -0.0115902 0)
(10.2434 -0.00967689 0)
(10.2589 -0.0067304 0)
(10.2754 -0.00221676 0)
(10.2927 0.00419983 0)
(10.3159 0.0132017 0)
(9.99974 -0.0117305 0)
(10.0129 -0.0158924 0)
(10.0303 -0.0166713 0)
(10.0466 -0.0176049 0)
(10.064 -0.0183098 0)
(10.082 -0.018523 0)
(10.0997 -0.018432 0)
(10.1171 -0.0181881 0)
(10.1342 -0.0178374 0)
(10.1509 -0.0174241 0)
(10.1672 -0.0169447 0)
(10.1831 -0.0163876 0)
(10.1988 -0.0156866 0)
(10.2141 -0.0147753 0)
(10.2293 -0.0134864 0)
(10.2445 -0.011595 0)
(10.2599 -0.0087267 0)
(10.2766 -0.00436947 0)
(10.2941 0.0017906 0)
(10.3174 0.0105718 0)
(10.0002 -0.0134337 0)
(10.0141 -0.0178879 0)
(10.0317 -0.0186836 0)
(10.048 -0.0197291 0)
(10.0655 -0.0205075 0)
(10.0835 -0.0207338 0)
(10.1012 -0.0206232 0)
(10.1186 -0.0203476 0)
(10.1356 -0.0199545 0)
(10.1522 -0.0194923 0)
(10.1685 -0.0189637 0)
(10.1843 -0.0183587 0)
(10.1998 -0.0176155 0)
(10.2151 -0.0166758 0)
(10.2301 -0.0153772 0)
(10.2452 -0.0135103 0)
(10.2607 -0.0107272 0)
(10.2773 -0.00653584 0)
(10.295 -0.000635898 0)
(10.3184 0.00795348 0)
(10.0008 -0.0152627 0)
(10.0154 -0.0199231 0)
(10.0333 -0.0207081 0)
(10.0495 -0.0218639 0)
(10.0671 -0.0227111 0)
(10.0851 -0.0229457 0)
(10.1028 -0.0228113 0)
(10.1201 -0.0225005 0)
(10.1371 -0.0220623 0)
(10.1535 -0.0215484 0)
(10.1696 -0.0209685 0)
(10.1853 -0.0203143 0)
(10.2006 -0.0195273 0)
(10.2156 -0.0185582 0)
(10.2305 -0.0172517 0)
(10.2454 -0.0154128 0)
(10.2607 -0.0127211 0)
(10.2772 -0.00870246 0)
(10.2949 -0.00306869 0)
(10.3183 0.00536015 0)
(10.0014 -0.0172405 0)
(10.017 -0.0219985 0)
(10.035 -0.0227424 0)
(10.0513 -0.0240064 0)
(10.0688 -0.0249178 0)
(10.0868 -0.0251543 0)
(10.1044 -0.0249899 0)
(10.1216 -0.0246385 0)
(10.1383 -0.0241505 0)
(10.1545 -0.023581 0)
(10.1703 -0.0229462 0)
(10.1857 -0.0222407 0)
(10.2007 -0.0214075 0)
(10.2153 -0.020407 0)
(10.2298 -0.0190934 0)
(10.2443 -0.0172863 0)
(10.2592 -0.0146901 0)
(10.2755 -0.0108514 0)
(10.2931 -0.00548949 0)
(10.3161 0.00280875 0)
(10.0022 -0.0193988 0)
(10.0187 -0.0241181 0)
(10.037 -0.0247813 0)
(10.0531 -0.026148 0)
(10.0706 -0.0271168 0)
(10.0885 -0.027349 0)
(10.1058 -0.0271472 0)
(10.1226 -0.0267474 0)
(10.139 -0.0262029 0)
(10.1547 -0.0255716 0)
(10.17 -0.0248766 0)
(10.1848 -0.0241154 0)
(10.1992 -0.0232319 0)
(10.2132 -0.0221968 0)
(10.227 -0.0208751 0)
(10.2408 -0.0191019 0)
(10.2551 -0.0166044 0)
(10.2707 -0.0129566 0)
(10.2879 -0.00787127 0)
(10.3104 0.000325216 0)
(10.0031 -0.0217707 0)
(10.0207 -0.0263072 0)
(10.039 -0.0268269 0)
(10.0549 -0.0282655 0)
(10.072 -0.0292769 0)
(10.0895 -0.029497 0)
(10.1064 -0.0292503 0)
(10.1226 -0.028794 0)
(10.1382 -0.0281845 0)
(10.1532 -0.0274832 0)
(10.1675 -0.0267202 0)
(10.1814 -0.025896 0)
(10.1947 -0.0249565 0)
(10.2075 -0.0238813 0)
(10.2201 -0.0225474 0)
(10.2327 -0.020808 0)
(10.2457 -0.0184115 0)
(10.26 -0.014967 0)
(10.2763 -0.0101643 0)
(10.2976 -0.00205038 0)
(10.0041 -0.0243054 0)
(10.0228 -0.0286074 0)
(10.0408 -0.0289754 0)
(10.056 -0.0304182 0)
(10.0725 -0.0314116 0)
(10.0892 -0.0315842 0)
(10.105 -0.0312702 0)
(10.12 -0.0307396 0)
(10.1342 -0.0300495 0)
(10.1476 -0.0292631 0)
(10.1603 -0.0284174 0)
(10.1723 -0.0275161 0)
(10.1836 -0.0265083 0)
(10.1943 -0.0253811 0)
(10.2046 -0.0240247 0)
(10.2148 -0.022313 0)
(10.2253 -0.0200165 0)
(10.2372 -0.0167845 0)
(10.2511 -0.0122801 0)
(10.2702 -0.00425697 0)
(10.005 -0.0265037 0)
(10.0244 -0.0303995 0)
(10.0416 -0.0309233 0)
(10.0554 -0.0324401 0)
(10.0703 -0.0333596 0)
(10.085 -0.0334168 0)
(10.0986 -0.032985 0)
(10.111 -0.0323477 0)
(10.1224 -0.0315579 0)
(10.1326 -0.0306741 0)
(10.1417 -0.0297367 0)
(10.1499 -0.0287498 0)
(10.157 -0.0276648 0)
(10.1632 -0.0264765 0)
(10.1687 -0.0250868 0)
(10.1738 -0.0233936 0)
(10.179 -0.0211918 0)
(10.1853 -0.0181784 0)
(10.1938 -0.0139967 0)
(10.2074 -0.00614005 0)
(10.0055 -0.0295512 0)
(10.0244 -0.0313596 0)
(10.039 -0.0326672 0)
(10.0493 -0.0349935 0)
(10.0601 -0.0361696 0)
(10.0699 -0.0361393 0)
(10.0778 -0.0354407 0)
(10.0837 -0.0344668 0)
(10.0879 -0.0333354 0)
(10.0902 -0.0321258 0)
(10.0907 -0.0308969 0)
(10.0894 -0.0296562 0)
(10.0863 -0.0283556 0)
(10.0816 -0.0269904 0)
(10.0754 -0.0254707 0)
(10.068 -0.023712 0)
(10.0601 -0.0215418 0)
(10.0528 -0.0187046 0)
(10.0475 -0.0148525 0)
(10.0476 -0.00741217 0)
(10.0035 -0.0368539 0)
(10.0175 -0.0258308 0)
(10.0231 -0.022804 0)
(10.022 -0.025304 0)
(10.0191 -0.0280924 0)
(10.013 -0.0299155 0)
(10.0028 -0.030796 0)
(9.98867 -0.0309822 0)
(9.97097 -0.0306326 0)
(9.94979 -0.0298747 0)
(9.92531 -0.0288489 0)
(9.89773 -0.0276348 0)
(9.86727 -0.026243 0)
(9.83419 -0.0247169 0)
(9.79894 -0.0230217 0)
(9.7622 -0.0211219 0)
(9.72499 -0.0189245 0)
(9.68905 -0.0162363 0)
(9.65655 -0.0127955 0)
(9.6319 -0.00643194 0)
(9.99038 -0.121681 0)
(9.97542 -0.107514 0)
(9.93679 -0.0851153 0)
(9.88316 -0.0686473 0)
(9.8218 -0.0565769 0)
(9.75321 -0.0476633 0)
(9.67822 -0.0409974 0)
(9.59876 -0.0359253 0)
(9.51649 -0.0319481 0)
(9.43274 -0.0286908 0)
(9.34868 -0.0259417 0)
(9.26529 -0.0235517 0)
(9.18352 -0.0213749 0)
(9.10411 -0.0193467 0)
(9.02796 -0.0173813 0)
(8.95603 -0.0154199 0)
(8.88946 -0.0133936 0)
(8.83005 -0.0111538 0)
(8.77986 -0.00853344 0)
(8.74354 -0.00416677 0)
(9.8048 0.277399 0)
(9.60969 0.147948 0)
(9.37856 0.0801511 0)
(9.14537 0.0414565 0)
(8.92386 0.0191629 0)
(8.71569 0.0064336 0)
(8.52113 -0.000627819 0)
(8.34094 -0.00433336 0)
(8.17513 -0.00606705 0)
(8.02332 -0.00664016 0)
(7.88499 -0.00656383 0)
(7.75949 -0.00615044 0)
(7.64601 -0.00556017 0)
(7.54407 -0.00490077 0)
(7.45316 -0.00421823 0)
(7.37299 -0.00353438 0)
(7.30352 -0.00285148 0)
(7.24542 -0.00210605 0)
(7.19975 -0.00121764 0)
(7.171 0.000262617 0)
(6.73197 -0.118271 0)
(6.47565 -0.121817 0)
(6.25849 -0.11443 0)
(6.07161 -0.100207 0)
(5.93362 -0.0862616 0)
(5.84493 -0.0750824 0)
(5.79595 -0.066027 0)
(5.77649 -0.0594868 0)
(5.77803 -0.0557583 0)
(5.79378 -0.0550246 0)
(5.81888 -0.057496 0)
(5.84991 -0.0632747 0)
(5.8845 -0.0723195 0)
(5.92092 -0.0844736 0)
(5.95793 -0.0994821 0)
(5.99458 -0.117015 0)
(6.03019 -0.1367 0)
(6.06428 -0.158146 0)
(6.09656 -0.180966 0)
(6.12685 -0.204798 0)
(6.15508 -0.22931 0)
(6.18127 -0.254201 0)
(6.20548 -0.279209 0)
(6.22782 -0.304117 0)
(6.24843 -0.328747 0)
(6.26744 -0.352957 0)
(6.28499 -0.376639 0)
(6.30122 -0.399717 0)
(6.31623 -0.422136 0)
(6.33015 -0.443863 0)
(6.34307 -0.464882 0)
(6.35506 -0.485185 0)
(6.36619 -0.504774 0)
(6.3765 -0.523657 0)
(6.38602 -0.541843 0)
(6.39479 -0.559342 0)
(6.40281 -0.576163 0)
(6.41009 -0.592317 0)
(6.41664 -0.60781 0)
(6.42245 -0.622646 0)
(6.42751 -0.636828 0)
(6.43182 -0.650357 0)
(6.43538 -0.663228 0)
(6.43819 -0.675439 0)
(6.44023 -0.686983 0)
(6.4415 -0.697852 0)
(6.44203 -0.708039 0)
(6.4418 -0.717534 0)
(6.44084 -0.726329 0)
(6.43916 -0.734418 0)
(6.43678 -0.741792 0)
(6.43373 -0.748448 0)
(6.43003 -0.754383 0)
(6.42571 -0.759595 0)
(6.42082 -0.764086 0)
(6.41539 -0.767861 0)
(6.40946 -0.770926 0)
(6.40308 -0.773292 0)
(6.39628 -0.77497 0)
(6.38913 -0.775976 0)
(6.38166 -0.776328 0)
(6.37392 -0.776045 0)
(6.36596 -0.775151 0)
(6.35784 -0.773669 0)
(6.34959 -0.771626 0)
(6.34126 -0.769049 0)
(6.33291 -0.765967 0)
(6.32456 -0.762411 0)
(6.31626 -0.758411 0)
(6.30805 -0.753998 0)
(6.29995 -0.749204 0)
(6.292 -0.744061 0)
(6.28421 -0.738602 0)
(6.27661 -0.732857 0)
(6.26921 -0.72686 0)
(6.26202 -0.720643 0)
(6.25504 -0.714236 0)
(6.24826 -0.707669 0)
(6.24169 -0.700972 0)
(6.23532 -0.694173 0)
(6.22913 -0.687298 0)
(6.22312 -0.680371 0)
(6.21726 -0.673416 0)
(6.21155 -0.666451 0)
(6.20597 -0.659493 0)
(6.20051 -0.652558 0)
(6.19517 -0.645656 0)
(6.18992 -0.638798 0)
(6.18475 -0.63199 0)
(6.17967 -0.625236 0)
(6.17465 -0.618538 0)
(6.16971 -0.611897 0)
(6.16482 -0.605311 0)
(6.16 -0.598778 0)
(6.15522 -0.592293 0)
(6.1505 -0.585852 0)
(6.14583 -0.579448 0)
(6.14121 -0.573075 0)
(6.13664 -0.566728 0)
(6.1321 -0.560398 0)
(6.12762 -0.554079 0)
(6.12317 -0.547765 0)
(6.11877 -0.541448 0)
(6.11442 -0.535123 0)
(6.1101 -0.528781 0)
(6.10583 -0.522418 0)
(6.10159 -0.516026 0)
(6.0974 -0.5096 0)
(6.09324 -0.503133 0)
(6.08913 -0.496621 0)
(6.08504 -0.490058 0)
(6.081 -0.48344 0)
(6.07699 -0.476761 0)
(6.07301 -0.470019 0)
(6.06906 -0.463208 0)
(6.06513 -0.456325 0)
(6.06124 -0.449366 0)
(6.05736 -0.442329 0)
(6.05351 -0.435208 0)
(6.04968 -0.428001 0)
(6.04587 -0.420705 0)
(6.04207 -0.413315 0)
(6.03828 -0.405828 0)
(6.03451 -0.39824 0)
(6.03074 -0.390549 0)
(6.02699 -0.382748 0)
(6.02323 -0.374835 0)
(6.01948 -0.366802 0)
(6.01573 -0.358644 0)
(6.01198 -0.350356 0)
(6.00822 -0.341929 0)
(6.00445 -0.333357 0)
(6.00067 -0.324631 0)
(5.99687 -0.315742 0)
(5.99305 -0.306681 0)
(5.98921 -0.297435 0)
(5.98535 -0.287993 0)
(5.98145 -0.278342 0)
(5.97752 -0.268467 0)
(5.97356 -0.258353 0)
(5.96955 -0.247982 0)
(5.9655 -0.237336 0)
(5.9614 -0.226396 0)
(5.95725 -0.215139 0)
(5.95305 -0.203541 0)
(5.94878 -0.191577 0)
(5.94445 -0.179219 0)
(5.94004 -0.166435 0)
(5.93556 -0.153193 0)
(5.931 -0.139456 0)
(5.92635 -0.125185 0)
(5.92161 -0.110337 0)
(5.91677 -0.0948671 0)
(5.91182 -0.0787236 0)
(5.90676 -0.0618525 0)
(5.90159 -0.0441943 0)
(5.89629 -0.025685 0)
(5.89086 -0.00625454 0)
(5.88529 0.014173 0)
(5.87958 0.0356804 0)
(5.87371 0.0583571 0)
(5.86768 0.0823008 0)
(5.86148 0.107618 0)
(5.8551 0.134423 0)
(5.84854 0.162843 0)
(5.84178 0.193014 0)
(5.83481 0.225086 0)
(5.82763 0.259223 0)
(5.82022 0.295602 0)
(5.81258 0.334421 0)
(5.80469 0.375895 0)
(5.79652 0.420259 0)
(5.78807 0.467775 0)
(5.77931 0.51873 0)
(5.77021 0.573443 0)
(5.76073 0.632268 0)
(5.75083 0.695605 0)
(5.74044 0.763902 0)
(5.72949 0.837661 0)
(5.71788 0.917455 0)
(5.7055 1.00394 0)
(5.69222 1.09786 0)
(5.67784 1.20012 0)
(5.66216 1.31175 0)
(5.64492 1.43401 0)
(5.62579 1.56843 0)
(5.60438 1.71688 0)
(5.58021 1.88174 0)
(5.55265 2.06603 0)
(5.52093 2.27369 0)
(5.48402 2.50998 0)
(5.4405 2.78205 0)
(5.38846 3.0997 0)
(5.32454 3.47662 0)
(5.24534 3.93125 0)
(5.13837 4.48966 0)
(5.00919 5.18253 0)
(4.77568 6.06936 0)
(4.7017 7.17569 0)
(3.94685 9.50388 0)
(8.49795 0.0466473 0)
(8.40589 0.0577608 0)
(8.29383 0.0493372 0)
(8.1542 0.0386118 0)
(8.00073 0.0275696 0)
(7.84532 0.0157528 0)
(7.69555 0.00415547 0)
(7.55792 -0.00709498 0)
(7.43682 -0.0182509 0)
(7.33402 -0.0296233 0)
(7.24946 -0.0416324 0)
(7.18171 -0.054664 0)
(7.1286 -0.069025 0)
(7.08765 -0.0848957 0)
(7.05645 -0.102361 0)
(7.03284 -0.121401 0)
(7.015 -0.141911 0)
(7.00146 -0.163712 0)
(6.99106 -0.186578 0)
(6.98291 -0.210262 0)
(6.97633 -0.234509 0)
(6.97082 -0.25907 0)
(6.96599 -0.283718 0)
(6.96158 -0.308258 0)
(6.9574 -0.332525 0)
(6.9533 -0.356385 0)
(6.94922 -0.379737 0)
(6.9451 -0.402506 0)
(6.94091 -0.424637 0)
(6.93662 -0.446097 0)
(6.93223 -0.466865 0)
(6.92771 -0.486932 0)
(6.92306 -0.506295 0)
(6.91826 -0.524957 0)
(6.91328 -0.542926 0)
(6.9081 -0.560207 0)
(6.90269 -0.57681 0)
(6.89704 -0.59274 0)
(6.8911 -0.608004 0)
(6.88484 -0.622605 0)
(6.87825 -0.636547 0)
(6.87128 -0.649828 0)
(6.86393 -0.662448 0)
(6.85615 -0.674403 0)
(6.84794 -0.685687 0)
(6.83929 -0.696296 0)
(6.83018 -0.706222 0)
(6.8206 -0.715459 0)
(6.81056 -0.724 0)
(6.80006 -0.731839 0)
(6.78911 -0.738973 0)
(6.77773 -0.745397 0)
(6.76593 -0.751111 0)
(6.75374 -0.756115 0)
(6.74119 -0.760413 0)
(6.72829 -0.764009 0)
(6.7151 -0.766912 0)
(6.70164 -0.769132 0)
(6.68794 -0.770683 0)
(6.67407 -0.771581 0)
(6.66004 -0.771844 0)
(6.64592 -0.771491 0)
(6.63173 -0.770546 0)
(6.61753 -0.769033 0)
(6.60335 -0.766977 0)
(6.58925 -0.764406 0)
(6.57526 -0.761348 0)
(6.56142 -0.757832 0)
(6.54776 -0.753888 0)
(6.53434 -0.749545 0)
(6.52117 -0.744833 0)
(6.50828 -0.739783 0)
(6.4957 -0.734424 0)
(6.48344 -0.728788 0)
(6.47153 -0.722904 0)
(6.45996 -0.716801 0)
(6.44875 -0.710509 0)
(6.43788 -0.704056 0)
(6.42735 -0.69747 0)
(6.41715 -0.690777 0)
(6.40728 -0.684002 0)
(6.3977 -0.67717 0)
(6.3884 -0.670302 0)
(6.37937 -0.663418 0)
(6.37058 -0.656535 0)
(6.36202 -0.649667 0)
(6.35367 -0.642828 0)
(6.34551 -0.636026 0)
(6.33752 -0.629268 0)
(6.3297 -0.622561 0)
(6.32202 -0.615905 0)
(6.31449 -0.609304 0)
(6.30708 -0.602754 0)
(6.29979 -0.596256 0)
(6.29261 -0.589804 0)
(6.28555 -0.583394 0)
(6.27858 -0.57702 0)
(6.27171 -0.570677 0)
(6.26493 -0.564357 0)
(6.25824 -0.558055 0)
(6.25164 -0.551763 0)
(6.24512 -0.545476 0)
(6.23868 -0.539185 0)
(6.23232 -0.532885 0)
(6.22603 -0.526568 0)
(6.21982 -0.520229 0)
(6.21368 -0.513861 0)
(6.20762 -0.507458 0)
(6.20162 -0.501013 0)
(6.19569 -0.494523 0)
(6.18983 -0.487981 0)
(6.18403 -0.481383 0)
(6.17829 -0.474724 0)
(6.17261 -0.468 0)
(6.16699 -0.461207 0)
(6.16143 -0.454342 0)
(6.15591 -0.447399 0)
(6.15045 -0.440377 0)
(6.14504 -0.433272 0)
(6.13967 -0.426079 0)
(6.13435 -0.418795 0)
(6.12906 -0.411417 0)
(6.12382 -0.403941 0)
(6.11862 -0.396364 0)
(6.11345 -0.388682 0)
(6.10831 -0.38089 0)
(6.10321 -0.372983 0)
(6.09814 -0.364956 0)
(6.09309 -0.356804 0)
(6.08807 -0.34852 0)
(6.08307 -0.340097 0)
(6.07808 -0.331527 0)
(6.07312 -0.322802 0)
(6.06816 -0.313912 0)
(6.06322 -0.304849 0)
(6.05828 -0.2956 0)
(6.05334 -0.286154 0)
(6.04841 -0.276497 0)
(6.04347 -0.266614 0)
(6.03853 -0.256491 0)
(6.03359 -0.24611 0)
(6.02863 -0.235453 0)
(6.02366 -0.224499 0)
(6.01867 -0.213227 0)
(6.01367 -0.201613 0)
(6.00863 -0.189631 0)
(6.00358 -0.177252 0)
(5.99849 -0.164447 0)
(5.99336 -0.151181 0)
(5.9882 -0.137418 0)
(5.983 -0.12312 0)
(5.97774 -0.108243 0)
(5.97244 -0.0927412 0)
(5.96709 -0.0765641 0)
(5.96167 -0.059657 0)
(5.9562 -0.0419606 0)
(5.95065 -0.0234107 0)
(5.94504 -0.00393744 0)
(5.93935 0.0165354 0)
(5.93358 0.0380903 0)
(5.92773 0.0608171 0)
(5.9218 0.0848131 0)
(5.91577 0.110185 0)
(5.90965 0.137047 0)
(5.90343 0.165526 0)
(5.89711 0.19576 0)
(5.89069 0.227896 0)
(5.88417 0.2621 0)
(5.87754 0.29855 0)
(5.87079 0.337443 0)
(5.86393 0.378994 0)
(5.85695 0.423441 0)
(5.84985 0.471046 0)
(5.8426 0.522098 0)
(5.8352 0.576918 0)
(5.82764 0.635864 0)
(5.81988 0.69934 0)
(5.81188 0.767799 0)
(5.8036 0.841749 0)
(5.79497 0.92177 0)
(5.78593 1.00852 0)
(5.77637 1.10278 0)
(5.76616 1.20544 0)
(5.75518 1.31755 0)
(5.74322 1.4404 0)
(5.73008 1.57552 0)
(5.71552 1.72483 0)
(5.69922 1.89073 0)
(5.68086 2.07628 0)
(5.66001 2.28549 0)
(5.63623 2.5237 0)
(5.6089 2.79818 0)
(5.57743 3.11895 0)
(5.54055 3.50003 0)
(5.49853 3.96051 0)
(5.44512 4.52682 0)
(5.3994 5.23179 0)
(5.30584 6.1225 0)
(5.46081 7.23167 0)
(5.25741 8.99429 0)
(9.44604 0.0587649 0)
(9.40074 0.0617972 0)
(9.3499 0.0583355 0)
(9.28523 0.0572559 0)
(9.2081 0.0574327 0)
(9.12066 0.0557204 0)
(9.02354 0.0512741 0)
(8.91893 0.0438666 0)
(8.80991 0.0334725 0)
(8.69965 0.0203398 0)
(8.59116 0.00480026 0)
(8.48695 -0.0128265 0)
(8.3889 -0.0322458 0)
(8.29819 -0.0531873 0)
(8.21543 -0.0754205 0)
(8.14065 -0.0987328 0)
(8.07352 -0.122918 0)
(8.01338 -0.147771 0)
(7.95944 -0.173094 0)
(7.91085 -0.198698 0)
(7.8668 -0.224409 0)
(7.82654 -0.250067 0)
(7.78944 -0.275529 0)
(7.75496 -0.300675 0)
(7.72268 -0.3254 0)
(7.69227 -0.349618 0)
(7.66346 -0.373258 0)
(7.63603 -0.396265 0)
(7.6098 -0.4186 0)
(7.58462 -0.440235 0)
(7.56037 -0.461153 0)
(7.53694 -0.481346 0)
(7.51422 -0.500813 0)
(7.49213 -0.519558 0)
(7.47058 -0.537588 0)
(7.44951 -0.554909 0)
(7.42883 -0.571531 0)
(7.40849 -0.587461 0)
(7.38841 -0.602705 0)
(7.36853 -0.617269 0)
(7.34881 -0.631155 0)
(7.32918 -0.644366 0)
(7.30959 -0.656901 0)
(7.29001 -0.668758 0)
(7.2704 -0.679934 0)
(7.25072 -0.690426 0)
(7.23094 -0.700229 0)
(7.21105 -0.709338 0)
(7.19103 -0.71775 0)
(7.17087 -0.725461 0)
(7.15056 -0.732468 0)
(7.13011 -0.73877 0)
(7.10953 -0.744368 0)
(7.08881 -0.749264 0)
(7.06798 -0.753464 0)
(7.04706 -0.756973 0)
(7.02607 -0.759802 0)
(7.00504 -0.761962 0)
(6.98399 -0.763468 0)
(6.96296 -0.764336 0)
(6.94198 -0.764584 0)
(6.92109 -0.764235 0)
(6.90032 -0.76331 0)
(6.87971 -0.761833 0)
(6.8593 -0.759832 0)
(6.83913 -0.757332 0)
(6.81923 -0.754361 0)
(6.79963 -0.750947 0)
(6.78038 -0.74712 0)
(6.7615 -0.742907 0)
(6.74303 -0.738338 0)
(6.72498 -0.733441 0)
(6.7074 -0.728245 0)
(6.69028 -0.722777 0)
(6.67365 -0.717067 0)
(6.65752 -0.71114 0)
(6.64188 -0.705024 0)
(6.62674 -0.698745 0)
(6.61209 -0.692329 0)
(6.59791 -0.6858 0)
(6.58419 -0.679183 0)
(6.57091 -0.672501 0)
(6.55805 -0.665774 0)
(6.54557 -0.659021 0)
(6.53347 -0.65226 0)
(6.52171 -0.645506 0)
(6.51026 -0.638771 0)
(6.49911 -0.632066 0)
(6.48824 -0.625397 0)
(6.47761 -0.618772 0)
(6.46722 -0.612193 0)
(6.45705 -0.605661 0)
(6.44708 -0.599178 0)
(6.4373 -0.592742 0)
(6.4277 -0.586348 0)
(6.41827 -0.579993 0)
(6.40899 -0.573672 0)
(6.39987 -0.567379 0)
(6.39088 -0.561107 0)
(6.38203 -0.55485 0)
(6.37331 -0.548603 0)
(6.36471 -0.542358 0)
(6.35624 -0.536109 0)
(6.34788 -0.529849 0)
(6.33963 -0.523571 0)
(6.3315 -0.51727 0)
(6.32347 -0.510938 0)
(6.31555 -0.504571 0)
(6.30772 -0.498161 0)
(6.3 -0.491705 0)
(6.29237 -0.485196 0)
(6.28483 -0.47863 0)
(6.27739 -0.472001 0)
(6.27003 -0.465307 0)