/*--------------------------------*- C++ -*----------------------------------*\
| =========                 |                                                 |
| \\      /  F ield         | OpenFOAM: The Open Source CFD Toolbox           |
|  \\    /   O peration     | Version:  2.4.0                                 |
|   \\  /    A nd           | Web:      www.OpenFOAM.org                      |
|    \\/     M anipulation  |                                                 |
\*---------------------------------------------------------------------------*/
FoamFile
{
    version     2.0;
    format      ascii;
    class       volScalarField;
    location    "0.087";
    object      nuSgs;
}
// * * * * * * * * * * * * * * * * * * * * * * * * * * * * * * * * * * * * * //

dimensions      [0 2 -1 0 0 0 0];

internalField   nonuniform List<scalar> 
4400
(
0.00205197
0.00193756
0.00169424
0.00153464
0.00142485
0.0013768
0.00132462
0.00131298
0.00130332
0.00126628
0.00139531
0.00172933
0.00172359
0.00167257
0.00157998
0.00152968
0.00147093
0.00145547
0.00142358
0.00142721
0.000718878
0.00118347
0.00136127
0.00141868
0.00140369
0.00138041
0.00133983
0.00132997
0.00129518
0.00129577
0.000268974
0.000649489
0.000862759
0.00101499
0.0010844
0.00111484
0.00111687
0.00112142
0.00111147
0.00109825
8.72873e-05
0.000270766
0.000416916
0.000574652
0.00069719
0.000761179
0.000819684
0.000842338
0.000870403
0.000858518
2.54602e-05
9.00599e-05
0.000151163
0.000230013
0.000349657
0.000400107
0.000488273
0.000516474
0.000581644
0.000576618
7.84413e-06
2.77572e-05
4.42408e-05
6.98852e-05
0.000124049
0.000153339
0.000212391
0.000234995
0.000297836
0.000305804
4.20947e-06
1.14087e-05
1.40851e-05
1.90849e-05
3.33815e-05
4.24241e-05
6.2768e-05
7.11284e-05
0.000100594
0.000112635
3.82553e-06
8.24503e-06
9.25149e-06
1.01018e-05
1.26078e-05
1.38439e-05
1.59983e-05
1.7404e-05
2.29285e-05
2.68716e-05
3.83884e-06
7.51674e-06
7.91044e-06
8.89396e-06
1.04072e-05
1.06902e-05
1.05011e-05
1.04744e-05
1.06061e-05
1.12257e-05
3.80634e-06
7.79819e-06
9.13609e-06
9.50075e-06
9.74871e-06
9.75936e-06
9.71323e-06
1.002e-05
1.10544e-05
1.68283e-05
3.83361e-06
8.7137e-06
9.14562e-06
9.17672e-06
9.81558e-06
1.28296e-05
1.57236e-05
2.2069e-05
3.11838e-05
6.08212e-05
4.20825e-06
1.0406e-05
1.32903e-05
1.84873e-05
2.78331e-05
4.74084e-05
6.11061e-05
8.88908e-05
0.000115156
0.000189587
7.7819e-06
2.55345e-05
4.38865e-05
7.05308e-05
0.000108829
0.000171814
0.000204587
0.000268549
0.000310318
0.000421595
2.552e-05
8.59851e-05
0.000152429
0.000232466
0.00033216
0.000429172
0.000475685
0.000556276
0.000597737
0.000694451
8.73352e-05
0.000256706
0.000429373
0.000568912
0.000698071
0.000771274
0.000822712
0.000866981
0.00089197
0.000944385
0.000268863
0.000642628
0.000871357
0.00100837
0.00109211
0.00111163
0.00112969
0.00112845
0.00113226
0.00114212
0.00071872
0.00118061
0.00136643
0.00141429
0.00140819
0.00137266
0.00135575
0.00131751
0.00130861
0.00128785
0.00139494
0.00172844
0.00172579
0.00166674
0.00159036
0.00151239
0.00148328
0.00142398
0.0014059
0.00135063
0.00205162
0.00193683
0.00169674
0.00152791
0.00143243
0.00135656
0.00132696
0.00126684
0.00124044
0.00114769
0.000530507
0.000475606
0.000460039
0.00044035
0.000426732
0.000417092
0.000405985
0.000361943
0.000284281
0.000242146
0.000226366
0.000214413
0.000196567
0.000180934
0.000167463
0.000155031
0.000150278
0.000152403
0.000169714
0.000209805
0.000210695
0.000194716
0.00013937
0.000109197
0.000106335
0.000108813
0.000113739
0.000117185
0.00011931
0.000128467
0.000151016
0.000201326
0.000220168
0.000218493
0.000209777
0.000200949
0.000194274
0.000182627
0.000152163
0.00013221
0.000117307
9.77784e-05
9.17491e-05
9.3125e-05
9.63417e-05
0.000133296
0.000235096
0.000250667
0.000222181
0.000187019
0.000151904
0.000122832
0.000111469
0.000100752
9.81427e-05
9.87735e-05
0.000101428
0.000106721
0.000116163
0.000144392
0.000208309
0.000229728
0.000226533
0.000197753
0.000156075
0.000116162
9.83791e-05
8.31469e-05
7.8272e-05
7.56651e-05
7.5655e-05
7.65121e-05
8.19309e-05
9.05844e-05
9.70279e-05
9.77861e-05
9.77582e-05
9.12928e-05
7.83474e-05
6.51621e-05
5.81805e-05
5.11575e-05
4.69024e-05
4.29511e-05
4.14671e-05
3.90201e-05
3.65499e-05
3.05485e-05
2.72965e-05
2.40685e-05
2.16778e-05
1.92162e-05
1.70401e-05
1.51725e-05
1.27794e-05
1.07961e-05
1.48536e-05
2.3711e-05
7.99763e-05
0.000260089
0.000686547
0.000583264
0.000517838
0.000457492
0.000442772
0.000412085
0.000415688
0.000403756
0.000383865
0.000342829
0.00029154
0.000253237
0.000224401
0.000199983
0.000176451
0.000169429
0.000171319
0.000181153
0.000216128
0.000222956
0.000212358
0.000160668
0.000112919
0.000100983
0.000103556
0.000115948
0.000117755
0.000119169
0.000117589
0.000116952
0.00012178
0.000143588
0.000185101
0.000200673
0.00020023
0.000196395
0.000187648
0.000167568
0.000135824
0.00012002
0.000109619
9.56303e-05
9.14662e-05
9.30417e-05
9.83904e-05
0.000149712
0.000245577
0.000249153
0.000221307
0.000189609
0.000153099
0.000119737
0.000108479
9.7833e-05
9.43606e-05
9.46811e-05
9.68533e-05
0.000102227
0.000111105
0.000133604
0.000193204
0.000223125
0.000222161
0.000204235
0.00016836
0.000127567
0.000109625
8.97335e-05
8.21558e-05
7.73641e-05
7.76213e-05
7.87801e-05
8.31751e-05
9.08563e-05
9.72678e-05
9.84115e-05
9.81443e-05
9.18413e-05
7.84146e-05
6.42918e-05
5.83928e-05
5.06009e-05
4.82501e-05
4.2919e-05
4.29311e-05
4.09425e-05
4.09928e-05
3.7674e-05
3.69259e-05
3.13444e-05
2.90948e-05
2.29602e-05
2.18793e-05
1.79832e-05
1.99915e-05
1.54526e-05
2.40068e-05
2.509e-05
7.00761e-05
0.000205916
0.000652379
0.000582358
0.000526791
0.000457573
0.000441013
0.000406792
0.000405124
0.000396078
0.000379788
0.000372387
0.000355883
0.000320222
0.000283961
0.00024681
0.000219559
0.000217725
0.000221183
0.000235732
0.000236886
0.000227098
0.000182626
0.000117423
9.74891e-05
9.87667e-05
0.000112398
0.000140615
0.000140705
0.00013694
0.000126441
0.000114463
0.000111476
0.000116635
0.000138005
0.000167695
0.000176754
0.000174492
0.000165714
0.000144357
0.000120701
0.000110669
0.00010404
9.43618e-05
9.33902e-05
9.42131e-05
0.000100478
0.000171259
0.000248714
0.000249656
0.000229141
0.000199474
0.000159855
0.000120075
0.000106789
9.63024e-05
9.15593e-05
9.14316e-05
9.32121e-05
9.88982e-05
0.000107056
0.00012526
0.000177259
0.000214939
0.000215755
0.000205568
0.00017758
0.000138302
0.000119949
9.70802e-05
8.81892e-05
8.07683e-05
8.08053e-05
8.11158e-05
8.41532e-05
9.1561e-05
9.82868e-05
9.97113e-05
9.92836e-05
9.3137e-05
7.78184e-05
6.42831e-05
5.5008e-05
4.82642e-05
4.51368e-05
4.17251e-05
4.27255e-05
4.11994e-05
4.48114e-05
4.33437e-05
4.94698e-05
4.51692e-05
4.64771e-05
3.66193e-05
3.56898e-05
2.68749e-05
2.83366e-05
2.21663e-05
3.91199e-05
3.05285e-05
7.02489e-05
0.000161972
0.000560177
0.000510506
0.000471244
0.000408303
0.000381459
0.000360546
0.000357612
0.000361468
0.000353065
0.000345868
0.000340256
0.000329765
0.000321969
0.000305955
0.000286316
0.000271979
0.000260769
0.00025511
0.000241279
0.000193198
0.000123147
9.34692e-05
9.39932e-05
0.000107896
0.000151578
0.000178325
0.000177344
0.000170043
0.000147995
0.000122693
0.000110245
0.00010831
0.000113111
0.000132507
0.000146754
0.000145943
0.000139651
0.000124055
0.000109861
0.000105634
0.000101938
9.51449e-05
9.60897e-05
9.83176e-05
0.000106648
0.000186896
0.000246937
0.000259399
0.000246897
0.000201937
0.000161322
0.000121051
0.000106272
9.5059e-05
9.14124e-05
9.00941e-05
9.12244e-05
9.62388e-05
0.000103638
0.000118889
0.000164046
0.000206346
0.000209268
0.000203738
0.000184027
0.000146858
0.000129269
0.00010482
9.56811e-05
8.52635e-05
8.50463e-05
8.47855e-05
8.69826e-05
9.34419e-05
0.000100489
0.000102024
0.000101375
9.47628e-05
7.77997e-05
6.49386e-05
5.34958e-05
4.7931e-05
4.14759e-05
3.91985e-05
3.92529e-05
3.93384e-05
4.24493e-05
4.25506e-05
5.46033e-05
5.32611e-05
8.23143e-05
7.15111e-05
0.000121884
8.75714e-05
0.000111205
6.41174e-05
6.52797e-05
4.46292e-05
6.34558e-05
0.000119843
0.000442947
0.000411982
0.000379858
0.000329278
0.000290827
0.000279955
0.000281163
0.000294758
0.000296568
0.000290162
0.000287046
0.000286772
0.00028589
0.00028484
0.000282586
0.000274251
0.000260613
0.00024497
0.000195725
0.00012315
8.76465e-05
8.68588e-05
0.000102781
0.000146738
0.000208395
0.000223073
0.000220955
0.000211262
0.000182965
0.000142946
0.000117905
0.000107746
0.000106868
0.000111141
0.000123012
0.000123394
0.000120498
0.000111189
0.000104311
0.000103407
0.000101816
9.76188e-05
9.87231e-05
0.000101539
0.000113132
0.000198639
0.000241749
0.000271475
0.000260175
0.00020218
0.000159288
0.000119916
0.000106988
9.43484e-05
9.38309e-05
9.06569e-05
9.16925e-05
9.48827e-05
0.000101342
0.000114383
0.000151608
0.000197415
0.000202529
0.000199818
0.000187728
0.000153706
0.00013739
0.000113061
0.000103403
9.06431e-05
8.94945e-05
8.8641e-05
9.00506e-05
9.41308e-05
0.000101225
0.000103426
0.000102892
9.65411e-05
7.85517e-05
6.5675e-05
5.29293e-05
4.76954e-05
4.03333e-05
3.88195e-05
3.6059e-05
3.76858e-05
3.71796e-05
4.07423e-05
4.33077e-05
4.8919e-05
6.71191e-05
6.92793e-05
0.000117159
0.000109694
0.000190108
0.00015533
0.000175252
0.000117179
9.30357e-05
0.000107546
0.000300844
0.000284733
0.000260624
0.000217103
0.000181937
0.00017431
0.000176378
0.000194177
0.000210634
0.000212148
0.000212023
0.000210618
0.00020809
0.000211362
0.000211361
0.000206862
0.000194603
0.000160202
0.000110753
7.85637e-05
7.59463e-05
9.04019e-05
0.000142928
0.000222896
0.000256147
0.000256736
0.000249655
0.000239834
0.000217184
0.000175656
0.000137012
0.000113751
0.000107232
0.000107263
0.000111245
0.000111786
0.000110177
0.000104686
0.000102471
0.000103903
0.000103506
0.000102468
0.000104892
0.000106697
0.00011944
0.000205869
0.000238542
0.000272693
0.0002674
0.000202262
0.000159847
0.000120399
0.000110584
9.56422e-05
9.72096e-05
9.22808e-05
9.37038e-05
9.53723e-05
0.000100431
0.00011073
0.000140499
0.000188592
0.000196292
0.000194886
0.000186401
0.000158744
0.000144061
0.000120796
0.000110564
9.62647e-05
9.3831e-05
9.18705e-05
9.30425e-05
9.54608e-05
0.000102095
0.000104383
0.000103839
9.7601e-05
7.9138e-05
6.5728e-05
5.29232e-05
4.68869e-05
4.01957e-05
3.74901e-05
3.41336e-05
3.47018e-05
3.43604e-05
3.65903e-05
4.31761e-05
4.8312e-05
6.18296e-05
6.71537e-05
0.00010016
0.000106922
0.00014249
0.000148051
0.000160584
0.000148095
0.000156756
0.000127257
0.00016058
0.000152215
0.000137832
0.000114786
9.51487e-05
9.20049e-05
9.3766e-05
0.000104737
0.000123099
0.000126708
0.000126566
0.000125238
0.000121769
0.00012193
0.000121177
0.000118209
0.000109491
8.60376e-05
6.49779e-05
6.30848e-05
7.3636e-05
0.000125308
0.000226339
0.000275669
0.000278847
0.000270549
0.000253594
0.000245195
0.000233926
0.000205435
0.000165775
0.000128614
0.000112142
0.000108768
0.000108295
0.000107753
0.000106101
0.00010286
0.000103722
0.000111482
0.000111695
0.000110353
0.000112159
0.000113954
0.000129369
0.000206974
0.000234448
0.000269523
0.000275428
0.000208605
0.00017246
0.000135228
0.000118598
9.84221e-05
0.000103759
9.58171e-05
9.93656e-05
9.6886e-05
0.000100907
0.000109443
0.000133565
0.000180885
0.000191136
0.00019011
0.000183595
0.000161568
0.000148178
0.000126721
0.000115696
0.000100881
9.73808e-05
9.49766e-05
9.59863e-05
9.7877e-05
0.000104877
0.000105618
0.000105082
9.85657e-05
7.96329e-05
6.5692e-05
5.3229e-05
4.60854e-05
4.03871e-05
3.66641e-05
3.34019e-05
3.2458e-05
3.21666e-05
3.26309e-05
3.36012e-05
4.04669e-05
4.71705e-05
5.66222e-05
0.000100587
0.000105165
0.000180257
0.000161377
0.000185026
0.000169561
0.000164334
0.000142765
5.93901e-05
5.6353e-05
5.1595e-05
4.38089e-05
3.7649e-05
3.73142e-05
3.85849e-05
4.36788e-05
5.49784e-05
5.66954e-05
5.60119e-05
5.38499e-05
5.19347e-05
5.11752e-05
5.62035e-05
5.78881e-05
5.54083e-05
4.68846e-05
4.86932e-05
5.92276e-05
0.000100499
0.000201073
0.000288093
0.000296735
0.000287789
0.000266811
0.000250037
0.000242463
0.000238135
0.000227531
0.000194937
0.00015327
0.000126201
0.000114593
0.000109575
0.000108033
0.000106254
0.00010622
0.000113563
0.000123865
0.000123221
0.000120707
0.000121019
0.000121201
0.000137694
0.000204495
0.000230289
0.000261056
0.00027993
0.000223659
0.000188275
0.00016599
0.000131261
9.94959e-05
0.000112455
9.96055e-05
0.000107716
0.000100848
0.000103304
0.000108539
0.000127641
0.000173475
0.000185511
0.000184652
0.00017936
0.000162568
0.000150506
0.000131227
0.000119879
0.000105163
0.000100847
9.79422e-05
9.88103e-05
0.000100887
0.000108485
0.000108784
0.000107704
9.90833e-05
8.03516e-05
6.52467e-05
5.33958e-05
4.54176e-05
4.03892e-05
3.6031e-05
3.33515e-05
3.11487e-05
3.16479e-05
3.13167e-05
3.15234e-05
3.457e-05
3.67252e-05
4.80512e-05
4.84989e-05
8.86635e-05
8.93322e-05
0.000141477
0.000147974
0.000162465
0.000183587
0.000165853
1.44056e-05
1.408e-05
1.34781e-05
1.27747e-05
1.28237e-05
1.30729e-05
1.34681e-05
1.4506e-05
1.73322e-05
1.7661e-05
1.69391e-05
1.58923e-05
1.58686e-05
1.66023e-05
2.26723e-05
2.67144e-05
2.92404e-05
3.44396e-05
4.62032e-05
8.27685e-05
0.000162491
0.00028626
0.000312314
0.000304041
0.000277127
0.000249282
0.000235715
0.000234722
0.000235934
0.000234099
0.00022
0.000178338
0.000146187
0.00012566
0.000114831
0.00011213
0.000112287
0.000116279
0.000134681
0.000139992
0.000136803
0.000131318
0.000130028
0.000128709
0.000144222
0.000200698
0.000227592
0.000251082
0.000282175
0.000242515
0.000190249
0.000178503
0.000135547
0.000102242
0.000122939
0.000105457
0.000117613
0.000103948
0.000106695
0.00010902
0.000126274
0.000166575
0.000180799
0.000180098
0.000175637
0.000161976
0.000150482
0.000133579
0.000122172
0.000108661
0.000104251
0.000100987
0.000101675
0.000103537
0.000111464
0.000111811
0.000110715
9.99672e-05
8.13518e-05
6.50361e-05
5.48763e-05
4.55023e-05
4.07689e-05
3.49917e-05
3.36896e-05
3.11209e-05
3.223e-05
3.12938e-05
3.17886e-05
3.28377e-05
3.46477e-05
4.33693e-05
4.15094e-05
6.98992e-05
6.3038e-05
0.000111947
0.000108769
0.000134612
0.00017734
0.000175008
6.69029e-06
7.07895e-06
7.90713e-06
8.77273e-06
1.01435e-05
1.1273e-05
1.13216e-05
1.06838e-05
1.01233e-05
1.0035e-05
1.01028e-05
1.03929e-05
1.10487e-05
1.21498e-05
1.42194e-05
1.84314e-05
2.66317e-05
4.21402e-05
7.23123e-05
0.000139135
0.000268991
0.000323089
0.000319858
0.000292401
0.000257807
0.000239355
0.000226198
0.000222884
0.000228221
0.00023189
0.000227146
0.00019914
0.000169778
0.000143236
0.00012664
0.000124617
0.00012698
0.000141661
0.000156889
0.000157197
0.000150971
0.000143598
0.000138205
0.000134906
0.000148357
0.000198403
0.000221717
0.000242743
0.000286678
0.000257985
0.000192297
0.000178887
0.000134305
0.000106794
0.000132095
0.00010845
0.000123953
0.000107873
0.000113697
0.000110561
0.00012769
0.00016201
0.000177328
0.000176456
0.000171971
0.000160293
0.00014965
0.00013441
0.000122865
0.000110743
0.000106987
0.000104181
0.000104979
0.000106599
0.000115152
0.000115123
0.000113452
0.00010031
8.26462e-05
6.45418e-05
5.5714e-05
4.48943e-05
4.16953e-05
3.49791e-05
3.55889e-05
3.22124e-05
3.3807e-05
3.17343e-05
3.34609e-05
3.30596e-05
3.40544e-05
3.93806e-05
3.83327e-05
5.70162e-05
5.19783e-05
9.0251e-05
8.70864e-05
0.000112646
0.000126872
0.000160252
1.27254e-05
1.39705e-05
1.60176e-05
1.90738e-05
2.39369e-05
2.60727e-05
2.55308e-05
2.33499e-05
2.26031e-05
2.23576e-05
2.27182e-05
2.36104e-05
2.43735e-05
2.59884e-05
2.94515e-05
3.68467e-05
5.19971e-05
7.84476e-05
0.000125448
0.000232603
0.000328397
0.000335239
0.000316741
0.000268408
0.000249664
0.000237498
0.000225344
0.000219168
0.000220835
0.00022904
0.000228754
0.000218868
0.000191553
0.000158353
0.000146688
0.000148304
0.000158101
0.000173665
0.000176962
0.000174559
0.00016489
0.00015721
0.000146663
0.000141111
0.000151748
0.000196963
0.000213804
0.000235672
0.000291085
0.000266546
0.000198442
0.000176192
0.00014232
0.000128928
0.000157777
0.000109444
0.00013554
0.000109985
0.000123798
0.000114031
0.000133738
0.00015941
0.000173769
0.000172507
0.000168462
0.00015871
0.00014873
0.000134229
0.000123249
0.000112996
0.00010972
0.000107606
0.000109974
0.000111514
0.00011951
0.000119116
0.00011706
0.000100844
8.5087e-05
6.43973e-05
5.78926e-05
4.49425e-05
4.4369e-05
3.73329e-05
4.02578e-05
3.47514e-05
3.77762e-05
3.33152e-05
3.68622e-05
3.41529e-05
3.67314e-05
3.79046e-05
3.77841e-05
4.76255e-05
4.65633e-05
7.40615e-05
7.31398e-05
9.76877e-05
0.000101531
0.000123034
4.10893e-05
4.28727e-05
4.68073e-05
5.34494e-05
6.07082e-05
6.40791e-05
6.31455e-05
6.00641e-05
5.913e-05
5.76088e-05
5.74952e-05
5.80287e-05
5.91182e-05
6.18427e-05
6.77096e-05
7.95883e-05
0.00010134
0.000137477
0.000201292
0.000318594
0.000348806
0.000338458
0.000287409
0.000256736
0.000247011
0.000240226
0.000229993
0.000223227
0.000223839
0.000230527
0.000231813
0.000228258
0.000205823
0.000183102
0.000181662
0.000184108
0.000189779
0.000194496
0.000194105
0.000189587
0.000177333
0.000165635
0.000151867
0.000144842
0.000153354
0.000192649
0.000202382
0.00022801
0.000291221
0.000268684
0.000209104
0.000180411
0.000174819
0.000170242
0.0001786
0.000114149
0.000172864
0.00011046
0.000142407
0.000117997
0.00014724
0.000160448
0.000174163
0.000171487
0.000166172
0.00015713
0.000147761
0.000133974
0.000123806
0.000115167
0.00011314
0.000112359
0.000117752
0.000119987
0.000127109
0.000124126
0.000121557
0.000103004
8.8571e-05
6.4556e-05
6.04293e-05
4.8008e-05
5.08472e-05
4.22711e-05
4.70449e-05
3.93813e-05
4.4374e-05
3.69146e-05
4.29099e-05
3.70599e-05
4.25111e-05
3.91205e-05
4.03192e-05
4.46264e-05
4.52777e-05
6.36503e-05
6.40676e-05
8.47318e-05
8.71196e-05
0.000101842
0.000112571
0.000114038
0.000118585
0.000126606
0.000132132
0.000133672
0.000131898
0.000126967
0.000124716
0.000122256
0.000120106
0.000118971
0.000119735
0.000122836
0.000130115
0.000145116
0.000171346
0.000214697
0.000304726
0.000352645
0.000352654
0.000312566
0.000266189
0.000250852
0.000246114
0.000243835
0.000239156
0.000232453
0.000231327
0.000234881
0.000237411
0.000236421
0.000225531
0.000217778
0.000211044
0.000208296
0.000208833
0.000208995
0.000205786
0.000197652
0.000182396
0.000168272
0.000152151
0.000144737
0.000152663
0.000185431
0.000189195
0.000219631
0.000287566
0.000272175
0.00023787
0.000202247
0.000187224
0.000197332
0.00017688
0.00013822
0.000232753
0.000114622
0.000178336
0.000125781
0.000168088
0.000165184
0.000175025
0.000171789
0.000166493
0.000157243
0.00014831
0.000134817
0.000124569
0.000117827
0.000117994
0.000118833
0.000130247
0.000133515
0.000141275
0.000133593
0.000128925
0.000106205
9.41747e-05
6.69812e-05
6.77608e-05
5.59881e-05
6.01329e-05
4.95209e-05
5.60187e-05
4.58485e-05
5.31612e-05
4.30394e-05
5.17682e-05
4.29026e-05
5.07214e-05
4.34519e-05
4.80095e-05
4.67952e-05
4.80908e-05
5.92046e-05
5.97447e-05
7.36101e-05
7.55185e-05
8.7507e-05
0.000231066
0.00022948
0.000230608
0.000230648
0.000229474
0.0002274
0.000220924
0.000213042
0.000207771
0.000203598
0.000200006
0.000195263
0.000195258
0.000197267
0.000204364
0.000221752
0.0002485
0.000305547
0.000349853
0.000359642
0.000336246
0.000274114
0.00025686
0.000248068
0.000246015
0.000246434
0.000246715
0.000243486
0.000241318
0.00024274
0.00024808
0.000249056
0.000246407
0.000241236
0.000228666
0.000223873
0.000221324
0.000218036
0.00020898
0.000200289
0.000183509
0.000168048
0.000151108
0.000144118
0.000152009
0.000177446
0.000175959
0.000208164
0.00028388
0.00028675
0.000280242
0.000230957
0.000188964
0.000192497
0.000173407
0.000186529
0.000229054
0.000135306
0.000248601
0.00013188
0.000199546
0.00017568
0.000178843
0.000172964
0.000168234
0.000158326
0.000150377
0.000136508
0.000126627
0.000123162
0.000126572
0.000131196
0.000154609
0.000156726
0.000162401
0.000149695
0.00014202
0.000111261
0.000100783
7.56076e-05
7.95827e-05
6.68698e-05
7.15643e-05
5.98477e-05
6.75554e-05
5.57569e-05
6.48677e-05
5.32899e-05
6.39906e-05
5.3112e-05
6.24839e-05
5.20867e-05
5.77143e-05
5.31596e-05
5.50957e-05
6.07305e-05
6.07947e-05
6.71765e-05
6.80432e-05
7.48616e-05
0.000371526
0.000358203
0.000351359
0.000341172
0.000329239
0.000320396
0.000305906
0.000293651
0.000286888
0.000281257
0.000271791
0.000265228
0.000264854
0.000266856
0.000274357
0.000289636
0.00032307
0.00035001
0.000360971
0.000349157
0.000282829
0.000254082
0.000253995
0.000247049
0.00024381
0.000247194
0.000249724
0.000250248
0.000252047
0.000255099
0.000259769
0.000260992
0.000259338
0.000249661
0.000237317
0.00022949
0.000224734
0.000218973
0.000204647
0.000194363
0.000174032
0.000162106
0.000147023
0.000142734
0.000151462
0.000166621
0.00016142
0.000189629
0.000279208
0.000311099
0.000308453
0.000263834
0.000185578
0.000182178
0.000179182
0.000184755
0.000174306
0.000167557
0.00022251
0.000145458
0.000194919
0.000194723
0.000190643
0.000175993
0.000171853
0.000162222
0.000153808
0.000138688
0.000132147
0.000132191
0.000146412
0.000160134
0.000200348
0.000196407
0.000197353
0.000173582
0.000160543
0.000120427
0.000112192
9.04741e-05
9.44531e-05
7.93553e-05
8.57314e-05
7.22997e-05
8.21363e-05
6.81673e-05
7.98391e-05
6.67749e-05
7.97121e-05
6.70436e-05
7.77858e-05
6.59138e-05
7.21933e-05
6.51162e-05
6.86197e-05
6.6881e-05
6.49688e-05
6.73679e-05
6.75603e-05
6.94666e-05
0.000494916
0.00046802
0.000446017
0.000421687
0.000401278
0.00038338
0.000365319
0.000352772
0.000344971
0.000334726
0.000323769
0.00031867
0.000318361
0.000320705
0.000328341
0.000345309
0.000358619
0.000361857
0.000352274
0.000292689
0.000238914
0.000245396
0.000253951
0.000247119
0.000241264
0.000243228
0.000249605
0.000253141
0.000256151
0.000259208
0.000262856
0.000263286
0.00025947
0.000247236
0.000235714
0.000226761
0.000217509
0.000197327
0.000175736
0.000165424
0.000157065
0.000155367
0.000144182
0.000143692
0.000153829
0.000160716
0.000153219
0.000168155
0.0002648
0.00031923
0.000315989
0.000308368
0.000208507
0.000209478
0.000182044
0.000189765
0.00020832
0.000170791
0.000206154
0.000175389
0.000189898
0.000201491
0.000201092
0.000183897
0.000179525
0.000171997
0.000158259
0.000144619
0.000144482
0.000150545
0.000198938
0.000229173
0.000278893
0.000262796
0.000253078
0.000205556
0.000186311
0.000135035
0.000130636
0.000109805
0.000114637
9.65203e-05
0.000106298
9.01447e-05
0.000103107
8.57967e-05
0.000101252
8.5545e-05
0.000101869
8.58905e-05
9.87592e-05
8.3899e-05
9.12011e-05
8.18627e-05
8.53009e-05
7.98413e-05
7.67504e-05
7.30886e-05
7.14424e-05
7.17122e-05
0.000586479
0.000541096
0.000498732
0.000463481
0.000438426
0.000416928
0.000399823
0.000388686
0.000377986
0.000367277
0.000359451
0.000357394
0.000358101
0.00036126
0.00036898
0.000370097
0.000366909
0.000349947
0.000287025
0.000221214
0.000214161
0.000244562
0.000268427
0.000259323
0.000243795
0.000239022
0.00024113
0.00024771
0.000252911
0.000256926
0.00025993
0.000259553
0.000253037
0.000240002
0.000229211
0.000213109
0.000181196
0.000150482
0.000143092
0.00014367
0.000144186
0.000145741
0.000145296
0.000147599
0.000160112
0.000161997
0.000153544
0.000158565
0.000226562
0.000312795
0.000317911
0.000344652
0.000243988
0.000240141
0.000197466
0.000207955
0.00021761
0.000170341
0.000221137
0.0002564
0.000217183
0.000204571
0.000206652
0.000199358
0.000190597
0.000177344
0.000165954
0.000166075
0.000179858
0.000219414
0.000323946
0.000356647
0.000383473
0.000344348
0.000319698
0.000241271
0.000220016
0.000163362
0.000166213
0.000140885
0.000148966
0.000125816
0.000141103
0.000119508
0.000137867
0.000114983
0.000136579
0.000115775
0.000137655
0.00011561
0.000133283
0.000113168
0.00012379
0.000110267
0.000114802
0.000104708
0.000101323
9.20302e-05
8.95615e-05
8.544e-05
0.000636061
0.0005641
0.000510228
0.000474162
0.000449277
0.000429556
0.000416879
0.000407308
0.000398252
0.000392411
0.000389569
0.000389344
0.000389241
0.000387692
0.000383047
0.00036974
0.000328493
0.00025725
0.000197659
0.000179014
0.000199042
0.000260158
0.00030716
0.000312681
0.000276857
0.000250459
0.000238095
0.000235179
0.000240741
0.000245271
0.00024765
0.000244996
0.000235545
0.000221352
0.000196558
0.000159104
0.000131771
0.000125468
0.000132991
0.000140208
0.000140636
0.000146925
0.000158629
0.000168186
0.000178843
0.000178416
0.000184871
0.000195196
0.000222582
0.000283151
0.000304323
0.000352152
0.000290896
0.000293822
0.000240923
0.000259502
0.0002602
0.000184852
0.000222581
0.000269954
0.000219976
0.000220363
0.000213632
0.000216372
0.000210571
0.000214307
0.00022992
0.000267917
0.00032282
0.000437434
0.000477557
0.000470944
0.000446164
0.000365561
0.000341819
0.00027071
0.000264048
0.00022135
0.000231092
0.000198017
0.000211893
0.000182618
0.000204862
0.000175786
0.000200639
0.000171058
0.00020091
0.000171807
0.000201706
0.000170898
0.000197991
0.00016987
0.000189435
0.000169405
0.000179385
0.000163181
0.000161772
0.000153613
0.000155081
0.000155113
0.000628192
0.000544222
0.000494006
0.000465268
0.000445965
0.000433545
0.000426434
0.000420528
0.000416122
0.000414064
0.00041211
0.000407817
0.000399902
0.000383635
0.000348767
0.000294155
0.000229671
0.000181037
0.000162297
0.000165407
0.000195714
0.00026365
0.000327531
0.000373439
0.000394866
0.000367346
0.000318635
0.000263945
0.000229701
0.000215647
0.000211378
0.000203752
0.000191202
0.000172672
0.000151265
0.000136648
0.000132786
0.000137891
0.00014924
0.000157292
0.000160328
0.000169783
0.000190011
0.000219437
0.000237547
0.000284377
0.000345454
0.000351061
0.000330787
0.000297381
0.00030362
0.000344474
0.000359282
0.000362315
0.000365698
0.000271372
0.000371293
0.000240339
0.000249083
0.000274067
0.000244011
0.000275477
0.000272332
0.000313081
0.000341679
0.000455082
0.000494067
0.00058883
0.000577233
0.000589312
0.000527061
0.00050315
0.000408128
0.000404784
0.0003586
0.000357608
0.000335061
0.000337908
0.0003329
0.000322312
0.000324493
0.000314787
0.000326066
0.000307696
0.000325022
0.000302617
0.000329638
0.000303309
0.000332591
0.000302446
0.000336231
0.000309134
0.000341614
0.000326731
0.0003486
0.000341237
0.000353445
0.000367247
0.000392933
0.00041535
0.000495166
0.000441565
0.000414268
0.000398095
0.000386716
0.000378469
0.000372287
0.000367723
0.000364518
0.000362139
0.000357987
0.000349015
0.000333648
0.000310582
0.000282138
0.00025589
0.000243278
0.000245001
0.000261407
0.000288402
0.000300663
0.000288916
0.000279338
0.000347183
0.000467013
0.000557662
0.000597253
0.000591516
0.000530115
0.00043308
0.000332453
0.000246406
0.000187136
0.000153713
0.000143299
0.000151854
0.000164864
0.000166579
0.000160679
0.000161664
0.00018059
0.000209645
0.000247906
0.000326984
0.000408947
0.000487935
0.000487412
0.000482088
0.000410914
0.000390006
0.000347759
0.000333059
0.000388691
0.000432822
0.000587324
0.000367663
0.000567024
0.000271429
0.000312868
0.000284094
0.000295403
0.000427672
0.000494571
0.00069126
0.000732567
0.000824747
0.000765895
0.00077624
0.000640134
0.00061057
0.000414416
0.000454375
0.00030581
0.000436092
0.000309873
0.000466422
0.000344514
0.000496441
0.000374282
0.000515594
0.000397172
0.000529578
0.00041721
0.000537439
0.000437389
0.000544371
0.000461607
0.000548047
0.000485093
0.000554867
0.000520649
0.00057486
0.00056994
0.000619315
0.000623572
0.000677188
0.000699203
0.000780358
0.000797133
0.000868563
0.000136843
0.000177249
0.000265402
0.000345862
0.000299824
0.000187681
0.00016382
0.000183585
0.00021894
0.000223048
0.000209873
0.000213015
0.000328961
0.000509613
0.000601135
0.000628987
0.000601852
0.000527861
0.000422366
0.000368093
0.000352018
0.000258679
0.00020518
0.000212382
0.000261902
0.000356775
0.000442161
0.000467442
0.000450919
0.000370052
0.000383229
0.000531006
0.000632356
0.000685255
0.000686813
0.000525244
0.000439139
0.00041142
0.000259939
0.00022688
0.000209718
0.000247608
0.000324233
0.000398091
0.000441399
0.000459095
0.000473104
0.000488916
0.000505344
0.000527452
0.000549552
0.000546698
0.000493205
0.000409932
0.000334553
0.000268162
0.000203063
0.000145031
0.000108855
9.23688e-05
8.78578e-05
8.72979e-05
9.00515e-05
9.53688e-05
0.00010208
0.000109026
0.000114271
0.000117905
0.000119834
0.000120354
0.00012194
0.000124526
0.000128977
0.000134241
0.00013913
0.000142644
0.000143656
0.000142077
0.000137372
0.000130287
0.000120634
0.000109052
9.57415e-05
8.16474e-05
6.85726e-05
6.17333e-05
5.92068e-05
5.81992e-05
5.81745e-05
5.88404e-05
5.93489e-05
5.99261e-05
6.25934e-05
6.98005e-05
7.63636e-05
8.05213e-05
0.000171717
0.000230972
0.000196546
0.000144965
0.000176818
0.000179124
0.000174575
0.000202248
0.000228203
0.000195717
0.000153293
0.000146484
0.000154392
0.000188614
0.000273008
0.000400152
0.000488104
0.000510677
0.000474478
0.000424466
0.000383721
0.000356756
0.000317103
0.000244474
0.000226192
0.000246154
0.000252381
0.000221137
0.000214506
0.000212096
0.000232245
0.000246593
0.000320389
0.000483456
0.00049831
0.000485566
0.000424801
0.000378884
0.00028524
0.000186797
0.000175006
0.000177071
0.000171215
0.000169036
0.000183202
0.000182758
0.000186783
0.00020182
0.000241056
0.000289959
0.000306867
0.000316231
0.00033676
0.000355453
0.000383719
0.00045219
0.000487129
0.000475543
0.000380429
0.000248748
0.00016482
0.000128279
0.000118475
0.00011661
0.000118336
0.000117728
0.000119017
0.00011976
0.000120011
0.000123372
0.000124583
0.000129395
0.000132959
0.000138127
0.000144965
0.000153306
0.000162261
0.000170588
0.000177562
0.000183422
0.00018705
0.000188592
0.000188424
0.000186389
0.000182397
0.000177279
0.000170407
0.000162085
0.000151547
0.000138897
0.000122584
0.000102111
8.20029e-05
6.85548e-05
6.44181e-05
6.89683e-05
7.82533e-05
8.75827e-05
0.000101743
0.000145309
0.000177161
0.00016871
0.000141831
0.000151424
0.00018531
0.000168009
0.000163606
0.000154697
0.000163652
0.000163505
0.000152648
0.000139171
0.000156257
0.000232701
0.000341967
0.000418
0.000448005
0.000372408
0.00031213
0.000297343
0.000297054
0.000318207
0.000328329
0.000317289
0.00028071
0.00027658
0.000286889
0.000250534
0.000243719
0.000217922
0.000202184
0.000244931
0.000431141
0.000490954
0.000420568
0.000296105
0.000232253
0.000194802
0.000168356
0.000157668
0.0001542
0.000160493
0.000153008
0.000149667
0.000152742
0.000156178
0.000150214
0.000135647
0.000133697
0.000137849
0.000144144
0.00014554
0.000148349
0.000154972
0.000167843
0.000197792
0.000287094
0.000402513
0.000406901
0.000351059