/*--------------------------------*- C++ -*----------------------------------*\
| =========                 |                                                 |
| \\      /  F ield         | OpenFOAM: The Open Source CFD Toolbox           |
|  \\    /   O peration     | Version:  2.4.0                                 |
|   \\  /    A nd           | Web:      www.OpenFOAM.org                      |
|    \\/     M anipulation  |                                                 |
\*---------------------------------------------------------------------------*/
FoamFile
{
    version     2.0;
    format      ascii;
    class       volScalarField;
    location    "0.087";
    object      p;
}
// * * * * * * * * * * * * * * * * * * * * * * * * * * * * * * * * * * * * * //

dimensions      [0 2 -2 0 0 0 0];

internalField   nonuniform List<scalar> 
4400
(
102.164
81.9899
74.3481
71.1358
68.5119
66.2493
63.7612
61.6066
59.0469
57.5173
100.228
82.058
74.3857
71.1473
68.5156
66.2477
63.7635
61.5992
59.0571
57.2852
99.012
82.3757
74.5223
71.1864
68.5376
66.2545
63.771
61.5909
59.0839
57.1645
98.2773
82.7608
74.7064
71.243
68.5842
66.2777
63.7953
61.5899
59.131
57.1565
97.6838
83.1141
74.8937
71.2992
68.6497
66.3184
63.8411
61.6023
59.2162
57.253
97.1708
83.4094
75.0584
71.3376
68.7137
66.3643
63.9035
61.6252
59.3468
57.4605
96.7466
83.6454
75.1963
71.3569
68.7681
66.4038
63.9669
61.6571
59.4623
57.7582
96.4187
83.8251
75.3068
71.3614
68.8095
66.4353
64.0225
61.6996
59.5194
58.0606
96.1972
83.9487
75.3814
71.3592
68.8415
66.458
64.0678
61.7403
59.5966
58.3784
96.0857
84.013
75.4205
71.3533
68.864
66.4714
64.1071
61.781
59.7011
58.6072
96.0839
84.0163
75.4233
71.3488
68.8776
66.4766
64.1371
61.8238
59.8055
58.7628
96.1927
83.9571
75.3909
71.3441
68.8821
66.4713
64.16
61.868
59.9097
58.8569
96.4109
83.8379
75.3212
71.3377
68.8767
66.4564
64.1753
61.9107
60.0137
58.9075
96.7354
83.6603
75.2168
71.3272
68.8584
66.4314
64.1825
61.9491
60.122
58.9223
97.1585
83.4254
75.0849
71.303
68.8259
66.3973
64.1816
61.9819
60.2297
58.9115
97.671
83.1308
74.9256
71.2613
68.7796
66.3565
64.1751
62.0087
60.3164
58.9077
98.2654
82.7762
74.7435
71.203
68.7273
66.3205
64.1687
62.0312
60.3709
58.9063
99.0012
82.3891
74.5632
71.1459
68.6883
66.2999
64.1674
62.0475
60.3984
58.9208
100.218
82.0705
74.428
71.1073
68.6692
66.2935
64.1688
62.0556
60.4076
58.9537
102.154
82.0023
74.3905
71.0957
68.6663
66.2935
64.1699
62.0568
60.4072
59.0316
54.3464
51.7609
51.1882
55.1801
60.9471
65.3586
68.9083
67.7731
65.5861
60.9582
53.4551
46.6471
40.5847
36.0111
31.5804
27.4421
25.0476
23.8384
25.7199
30.6841
33.7728
38.2578
46.9727
54.7995
60.9325
65.3348
67.171
67.1899
63.2579
55.8641
50.5946
48.6701
47.1417
46.0534
45.4894
47.3044
52.5988
59.2858
65.9649
72.8225
78.7152
82.0809
85.1407
88.1122
89.1253
90.0891
90.4325
88.4996
78.4153
67.5
57.7338
49.2977
42.8948
34.9929
31.0093
33.4917
39.236
44.8192
51.7838
60.2545
67.6788
71.1708
72.7978
72.2023
71.859
70.2726
68.9664
67.5933
66.6343
66.2268
66.7643
68.16
70.7384
74.4925
78.2434
81.4227
83.865
85.1865
86.4496
86.4165
87.2818
86.7008
87.2923
86.5603
87.1367
86.3484
86.5829
85.8471
85.9764
85.1507
84.9604
84.0602
83.7199
82.3711
82.0093
79.8666
79.3248
74.4872
74.2376
49.8255
54.2057
51.9679
51.5214
55.2431
60.9898
65.1843
68.5371
67.7119
64.8007
60.5887
54.0494
47.7276
42.0533
37.8736
33.763
29.9747
28.0835
26.7591
27.5569
32.5099
36.1696
39.3317
46.3278
52.4657
56.768
59.8158
61.0551
61.1955
58.2922
52.7047
49.1782
48.5894
48.6205
49.0211
49.3836
51.3772
56.2557
62.3185
68.1071
73.9154
78.9772
82.0766
84.9962
87.874
88.9381
89.6961
89.4461
86.9772
77.2285
67.0553
56.1282
47.6353
40.646
31.8038
27.9205
30.4666
36.6929
42.5359
49.7278
58.6582
66.7574
71.0294
73.143
72.7355
72.2986
70.9246
69.6938
68.4439
67.5233
67.0732
67.476
68.5698
70.9138
74.4516
78.1244
81.2075
83.4517
84.8163
86.0293
85.9701
86.9046
86.1912
87.0314
86.0473
86.9599
85.7809
86.4132
85.2686
85.7721
84.5176
84.6636
83.2757
83.1957
81.2385
81.1943
78.1256
77.854
70.5778
69.5425
42.0482
54.3176
52.4291
52.1089
55.3966
60.8696
64.763
67.7389
67.3138
63.9216
59.7606
54.3292
48.5451
43.2026
39.1871
35.6686
32.2373
30.7701
29.6416
29.7164
34.3774
38.7215
40.7072
45.5259
50.08
52.4346
53.8995
54.5579
54.8824
52.872
49.2821
47.6162
48.3542
49.8953
51.7235
53.0981
55.4073
59.8019
65.198
70.1194
74.8963
79.1074
81.9741
84.8104
87.5085
88.64
89.3008
88.389
85.4243
76.5213
66.5214
54.5597
46.4175
38.7808
29.3451
25.6441
28.0132
34.8433
40.8489
48.2774
57.4073
66.3233
71.2942
73.7597
73.4954
73.0693
71.863
70.544
69.4153
68.5625
67.9996
68.2409
69.1348
71.242
74.5569
78.114
81.0947
83.1443
84.4949
85.5796
85.4938
86.3853
85.5335
86.5637
85.3796
86.5667
85.0156
86.1227
84.4707
85.5594
83.6578
84.3278
82.3725
82.6339
79.9524
80.0996
76.1076
76.2237
67.4392
64.4919
40.3696
54.6515
53.0576
52.8715
55.6571
60.587
64.1638
66.5805
66.5142
63.1111
59.0424
54.5888
49.4033
44.2857
40.6797
37.5636
34.3884
33.2489
32.7493
32.6965
36.6266
41.182
42.3038
44.6888
47.5778
48.0571
47.9301
47.9059
48.2748
47.0757
45.5867
45.8702
48.014
51.0581
54.2454
56.6006
59.2555
63.1763
67.8244
71.886
75.7016
79.1606
81.7394
84.5104
87.0403
88.295
88.8425
87.5077
84.2209
76.5517
65.7454
53.1723
45.5557
37.4113
27.7939
24.5068
26.2533
33.9688
39.6155
47.2405
56.6742
66.3856
71.9017
74.8288
74.7186
74.1777
72.9347
71.5837
70.5143
69.6163
68.9945
69.1094
69.873
71.6557
74.7128
78.1425
81.0553
82.9529
84.25
85.1558
85.0203
85.7482
84.8812
85.955
84.6619
85.894
84.0215
85.5406
83.468
85.0475
82.4218
83.9043
81.1062
82.0467
78.5821
79.104
74.2156
74.0076
64.7204
58.8261
40.4014
55.092
53.7562
53.7642
56.083
60.1418
63.377
65.261
65.4124
62.4633
58.5272
54.7875
50.4549
45.829
42.384
39.6769
36.8826
35.9533
36.2419
36.4672
39.3405
43.4631
44.0663
44.1223
45.125
43.7888
42.118
41.5126
41.0435
41.1416
41.7457
43.9979
47.6491
52.1951
56.5535
59.7854
62.761
66.2607
70.0956
73.3847
76.3814
79.1373
81.4223
84.0681
86.4287
87.8395
88.3279
86.8693
83.4866
77.1621
65.3141
52.5784
45.3147
36.7474
27.4904
24.3884
25.1812
34.1969
38.8282
46.9587
56.7913
66.8514
73.1266
76.4107
76.2417
75.5221
74.1964
72.8132
71.7124
70.7557
70.1509
70.112
70.6117
72.1598
74.9996
78.3027
81.0779
82.8126
84.0351
84.7727
84.5702
85.0792
84.2827
85.2548
83.9683
84.9711
83.022
84.5867
82.3519
83.8702
80.7838
82.9448
79.3081
80.9995
76.6263
78.2738
72.5892
71.6669
62.7811
52.7921
40.1732
55.51
54.4652
54.6597
56.5256
59.5692
62.4741
63.9762
64.0913
61.8956
58.335
55.0078
51.5438
47.5654
44.3116
41.9636
39.7096
39.0805
39.9699
40.5544
42.3678
45.5641
45.8868
44.0781
42.9267
39.9339
36.9439
35.8449
35.1708
35.6291
38.0388
42.0885
47.3059
53.2517
58.6053
62.5987
65.8291
68.9556
72.1172
74.7035
76.8946
78.9771
80.9955
83.4855
85.6938
87.2706
87.7761
86.2812
83.0941
77.9351
66.1116
53.3709
45.8921
36.7872
28.4267
25.133
24.9137
35.3859
38.1926
47.4881
57.3141
67.7916
74.8227
78.2525
78.0537
77.1605
75.7098
74.1919
73.0411
71.9936
71.3193
71.1242
71.4506
72.8125
75.4446
78.5347
81.1781
82.7326
83.8221
84.3567
84.1236
84.4669
83.7629
84.5496
83.313
84.062
82.2821
83.6194
81.4635
82.7209
79.5605
81.573
77.4944
79.2036
74.1475
76.2485
69.1514
68.1247
60.0498
49.3109
41.1243
56.0908
55.2163
55.4168
56.8467
58.9437
61.4967
62.8536
62.8381
61.3678
58.3967
55.3267
52.5468
49.3258
46.3975
44.3429
42.727
42.4779
43.5967
44.4194
45.4691
47.6636
47.7113
44.5664
41.3046
36.8154
32.7384
31.1194
30.1787
30.8711
34.6281
40.1591
46.9037
54.1732
60.4153
65.0091
68.4657
71.3721
73.9423
75.8337
77.2918
78.7792
80.4598
82.7233
84.8337
86.6485
87.2068
85.6231
82.8631
78.5353
68.1846
55.4051
46.9459
37.4216
30.1829
26.4592
25.5838
37.2123
37.6446
48.8204
58.052
69.2921
76.8632
80.4998
80.2685
79.0498
77.3856
75.6939
74.4686
73.3031
72.4992
72.1333
72.3263
73.4922
75.996
78.8396
81.3495
82.7028
83.6602
83.9573
83.6726
83.8575
83.2466
83.8048
82.6061
83.1624
81.6929
82.7021
80.6486
81.5753
78.865
80.0863
76.1823
77.2923
72.1562
72.8734
65.1826
63.4983
56.4875
48.0291
41.7563
56.902
56.0233
55.968
57.0014
58.3805
60.6095
61.9548
61.8083
60.8856
58.5744
55.7297
53.4365
50.9989
48.4748
46.68
45.7192
45.8289
46.894
47.8974
48.6892
49.9725
49.5858
45.5002
40.3913
34.6193
29.6354
27.373
26.1274
27.0334
31.6035
38.2107
46.4045
54.9457
61.9965
67.1266
70.7824
73.5096
75.6367
76.9005
77.5947
78.4446
79.7755
81.8375
83.8836
85.9754
86.6185
85.0472
82.8173
79.204
70.5946
57.5844
48.0411
38.3756
32.4689
28.2267
27.3187
39.0527
37.3228
51.1183
58.7751
71.3108
79.3973
83.0541
82.6585
81.1276
79.2167
77.3096
75.9722
74.6691
73.742
73.2014
73.2199
74.2148
76.6059
79.2924
81.6106
82.7046
83.5091
83.5874
83.3053
83.3164
82.7363
83.0036
81.8929
82.2831
80.9873
81.6409
79.602
80.3342
77.9609
78.3412
74.7523
75.0549
70.514
69.2463
63.1361
60.2399
54.7478
47.7645
41.3858
57.5295
56.6298
56.3827
57.0892
57.9504
59.8768
61.242
61.0275
60.457
58.7616
56.1949
54.2664
52.5032
50.4408
48.9683
48.505
48.8256
49.8763
51.0968
51.9419
52.6031
51.5403
46.6888
40.0857
33.179
27.4536
24.5525
23.1055
24.1725
29.0284
36.3895
45.924
55.5987
63.4248
69.0633
72.878
75.4518
77.221
77.864
77.7999
78.0334
78.9488
80.8188
82.8668
85.2732
86.0308
84.7218
83.1538
80.4822
72.8691
59.0795
49.2886
39.5117
35.2456
30.1629
29.8346
40.5259
37.2567
54.0326
58.7483
74.0638
82.2685
85.6985
85.2506
83.4543
81.2326
79.0281
77.5258
76.0558
75.0032
74.2806
74.2144
75.058
77.2555
79.7516
81.891
82.8153
83.3215
83.2845
82.9869
82.811
82.2674
82.2199
81.2559
81.3923
80.2146
80.4546
78.55
78.997
76.7493
76.3836
73.2868
72.7925
69.0617
66.268
62.5756
58.7999
54.9012
47.7428
41.1042
57.9477
57.0781
56.7234
57.1647
57.6674
59.3106
60.6224
60.4179
60.0958
58.9177
56.6828
55.0721
53.8446
52.2686
51.1335
51.001
51.4855
52.6212
54.1355
55.114
55.3452
53.5616
47.9904
40.2168
32.2847
25.9353
22.5346
21.0554
22.2288
27.0539
34.9848
45.6432
56.2153
64.7611
70.8283
74.791
77.3096
78.6983
78.7164
77.9522
77.5785
77.9612
79.262
81.8009
84.5618
85.4338
84.4926
83.8108
82.1367
75.2607
60.9085
51.5112
41.1163
38.496
32.0835
32.8486
41.3007
37.5641
57.0891
58.1332
77.73
85.087
88.4703
88.0855
85.943
83.3684
80.8274
79.1276
77.4732
76.2424
75.2887
75.2142
75.9048
78.0048
80.2489
82.1402
82.9609
83.3508
83.1608
82.817
82.4521
81.9016
81.5183
80.7298
80.5155
79.4746
79.2024
77.6512
77.5444
75.5581
74.49
72.2895
70.9692
68.0536
64.972
62.9161
58.587
56.0295
48.022
41.7859
58.2206
57.411
57.0109
57.2672
57.5179
58.8652
60.067
59.9298
59.7781
59.0167
57.2094
55.8481
55.0466
53.9875
53.104
53.2007
53.9878
55.2718
56.9054
58.019
57.9717
55.586
49.3867
40.7095
31.8965
24.9507
21.1432
19.6828
20.9328
25.6981
34.1633
45.6046
56.8021
65.9611
72.3836
76.4903
78.9052
79.9867
79.4512
78.0678
77.1143
76.9241
78.0285
80.7903
83.9151
84.8973
84.2296
84.3484
83.4866
77.6241
64.4794
54.8885
43.8885
41.8166
34.24
36.4487
41.8355
38.6641
59.9465
57.4934
81.9898
87.6588
91.3478
91.0357
88.5273
85.6258
82.6919
80.7496
78.8819
77.5018
76.3435
76.1825
76.6527
78.668
80.7417
82.4086
83.1128
83.4175
83.1722
82.8162
82.334
81.788
81.1388
80.4776
79.9222
78.9951
78.2225
77.0654
76.3975
74.7493
73.2357
71.7474
69.9494
67.9504
64.8266
63.9372
58.9842
57.164
48.8384
43.0619
58.3679
57.6735
57.2723
57.362
57.4611
58.5186
59.5578
59.5366
59.5248
59.096
57.6934
56.614
56.1804
55.5115
54.9249
55.2853
56.2785
57.6609
59.3115
60.5124
60.2988
57.4929
50.8211
41.4847
32.0466
24.6028
20.3778
18.8815
20.1616
24.9893
33.9321
45.7896
57.3961
66.9973
73.6716
77.8603
80.1889
81.0422
80.0505
78.1519
76.6255
75.8816
76.8569
79.9502
83.4169
84.4729
83.9255
84.5133
84.1808
79.4103
68.6325
59.1675
47.5729
44.9284
36.7722
40.7579
42.7092
40.9283
62.0696
57.4042
86.5939
90.0504
94.3671
94.1545
91.2147
87.9798
84.573
82.3527
80.2735
78.7987
77.4095
77.1207
77.4215
79.2379
81.0809
82.6158
83.3163
83.6156
83.3094
83.0393
82.4034
81.9418
81.1124
80.5637
79.7298
78.9253
77.8274
76.9564
75.8586
74.6225
72.8521
71.9627
69.7624
68.8218
65.419
65.2139
59.7593
58.0089
50.0224
44.1004
58.4049
57.8721
57.5052
57.4402
57.4887
58.2806
59.1053
59.2202
59.316
59.1017
58.149
57.4119
57.1883
56.8512
56.646
57.1855
58.2955
59.6762
61.2124
62.3908
62.1039
59.0792
52.1836
42.4962
32.6588
24.8826
20.2734
18.6486
20.0115
24.9957
34.2072
46.2037
58.0138
67.8036
74.6046
78.8265
81.1201
81.8216
80.506
78.2288
76.1366
74.9327
75.9272
79.4102
83.1689
84.2655
83.7811
84.44
84.3384
80.6555
72.3014
63.2722
51.8355
48.3347
39.8712
45.4722
43.9708
45.1865
63.8228
58.4749
90.6546
92.4672
97.556
97.3296
93.8879
90.3578
86.4341
83.9321
81.6294
80.0422
78.4328
78.039
78.1232
79.6737
81.308
82.7473
83.4561
83.8297
83.5303
83.4819
82.6434
82.444
81.3503
81.115
79.8773
79.4537
77.9497
77.5348
75.9006
75.3428
73.1389
73.0213
70.2825
70.2901
66.3661
66.3772
60.6435
58.4884
51.0315
44.8082
58.3298
57.9729
57.7196
57.5487
57.5796
58.1265
58.707
58.9662
59.1601
59.0911
58.5784
58.1346
58.0509
58.074
58.1697
58.7886
59.893
61.1251
62.447
63.5358
63.2809
60.2412
53.3768
43.6886
33.673
25.6725
20.7797
19.0105
20.4196
25.5573
34.8266
46.8238
58.59
68.3421
75.1659
79.392
81.6928
82.3279
80.8481
78.3169
75.7126
74.2322
75.4358
79.2866
83.2537
84.4273
83.7229
84.3738
84.4416
81.7035
75.5925
67.7007
57.0354
52.4355
43.7937
50.233
46.3333
50.6054
65.2112
62.4862
93.9535
95.4788
100.768
100.381
96.4383
92.6896
88.2392
85.4425
82.9183
81.2565
79.4328
78.8545
78.6159
79.8673
81.4302
82.8626
83.553
84.0454
83.7656
83.9944
82.9973
83.168
81.7725
82.0689
80.2877
80.487
78.4748
78.7878
76.3748
76.719
73.9008
74.522
71.2025
71.7659
67.3806
67.1865
61.4009
58.6365
51.8033
45.4141
58.1867
58.0068
57.9172
57.6879
57.6958
58.0382
58.4175
58.7929
59.0486
59.0584
58.9002
58.7471
58.8208
59.0457
59.3397
60.0277
60.9712
61.9134
63.0489
64.0481
63.7802
60.8631
54.357
44.9858
35.0472
26.9329
21.8115
19.911
21.3482
26.5626
35.7205
47.6526
59.1481
68.6939
75.4209
79.6162
81.9275
82.5535
81.0717
78.4425
75.4661
73.964
75.5166
79.6916
83.7512
84.9865
83.9901
84.4307
84.7862
82.9391
78.2704
72.3022
62.382
56.4857
48.6548
53.5128
49.2917
56.8268
67.0735
69.8002
96.0176
99.7037
103.922
103.253
98.803
94.8446
89.9393
86.8501
84.1214
82.4246
80.4101
79.538
78.8922
79.8319
81.3301
82.8202
83.6192
84.3034
84.0004
84.5595
83.4233
83.9777
82.2763
83.1728
80.894
81.7406
79.2102
80.3362
77.1675
78.2734
74.8993
75.9722
72.1915
72.905
68.236
67.5956
61.9673
58.5749
52.3566
46.0473
58.0405
57.9912
58.0695
57.8416
57.8075
58.0008
58.2483
58.6651
58.9569
59.0536
59.154
59.2069
59.3885
59.7543
60.1438
60.7597
61.4917
62.2062
63.1751
64.0258
63.6667
60.9212
55.0693
46.3207
36.6754
28.5894
23.2891
21.2562
22.7118
27.9556
36.8431
48.6608
59.7083
68.921
75.4563
79.5772
81.8619
82.5064
81.1424
78.6081
75.5283
74.294
76.2662
80.6254
84.7118
85.7929
84.4736
84.5598
85.2128
84.02
80.1237
75.7876
66.2606
59.9643
52.9936
55.6243
52.2422
62.1113
68.4101
80.077
97.3674
105.024
106.672
105.781
100.943
96.6799
91.476
88.1102
85.2544
83.5085
81.3487
80.0998
78.9544
79.6013
81.058
82.7049
83.6109
84.5526
84.2122
85.0889
83.84
84.7841
82.8029
84.2266
81.5825
82.9969
80.0154
81.8351
78.0582
79.6985
75.9256
77.1955
73.0946
73.6461
68.8774
67.6493
62.3972
58.4688
52.7676
46.7071
58.067
58.0551
58.1647
57.9509
57.8781
57.9864
58.1629
58.5762
58.9029
59.0641
59.3071
59.5135
59.7549
60.1451
60.5561
61.0785
61.6293
62.1892
63.0136
63.6376
63.1107
60.5321
55.478
47.5916
38.5048
30.5062
25.0661
22.899
24.3835
29.5957
38.3638
49.5429
60.2295
69.068
75.3754
79.3812
81.5746
82.2305
81.0348
78.8021
75.9932
75.1964
77.5129
81.9588
85.9203
86.5772
84.9427
84.6749
85.4561
84.7983
81.7844
78.2425
68.9725
63.0857
56.5119
57.9525
54.3257
66.8695
69.9844
91.6269
98.7791
109.905
108.63
107.751
102.814
98.0823
92.8743
89.1776
86.325
84.4835
82.1879
80.5071
78.8794
79.4065
80.7294
82.6599
83.5372
84.8448
84.4039
85.5695
84.1817
85.5156
83.2983
85.1068
82.2365
84.1188
80.7467
83.0538
78.9202
80.8473
76.807
78.1245
73.8011
74.0224
69.3355
67.5048
62.7018
58.4273
53.0739
47.3395
58.1638
58.1466
58.2122
58.0079
57.9228
57.9965
58.1436
58.5261
58.8656
59.08
59.387
59.6605
59.9227
60.2953
60.6891
61.1309
61.5859
62.1069
62.8309
63.2138
62.3656
59.9516
55.5895
48.6895
40.3224
32.4813
26.9129
24.5991
26.0579
31.2227
39.8013
50.4383
60.6934
69.1868
75.2773
79.1295
81.178
81.5861
80.8368
79.0247
76.6994
76.4365
78.8948
83.2528
87.0177
87.2269
85.6694
84.8567
85.3609
85.208
82.9829
79.9762
70.8026
65.8186
58.916
59.7112
56.2548
72.8688
72.5895
99.4771
99.1413
113.695
110.206
109.053
104.296
99.0533
93.8591
89.9875
87.2508
85.2826
82.7937
80.8254
78.7937
79.4829
80.4667
82.7542
83.4411
85.1584
84.5431
85.9701
84.4338
86.1151
83.7478
85.7565
82.776
85.031
81.3788
83.9168
79.6638
81.6952
77.4513
78.7637
74.315
74.1419
69.6795
67.3303
62.8862
58.4612
53.2853
47.8924
58.2772
58.2307
58.2296
58.0379
57.9563
58.0162
58.1563
58.5081
58.8438
59.0845
59.3975
59.694
59.975
60.3363
60.7118
61.1231
61.5618
62.0897
62.7509
62.9396
61.8982
59.4689
55.5324
49.4037
41.7798
34.1751
28.5582
26.1171
27.4806
32.6255
40.9932
51.193
61.0695
69.2787
75.2263
78.9529
80.9202
81.354
80.7037
79.1647
77.1694
77.2309
79.7739
83.9927
87.6169
87.6801
85.8756
84.9038
85.4954
85.5002
83.2758
80.4305
71.5728
67.4189
59.4665
61.054
57.9095
77.6033
75.3319
103.1
99.3317
116.257
111.579
109.73
105.15
99.6633
94.3984
90.4252
87.7195
85.737
83.0867
81.0564
78.8301
79.7647
80.3215
82.9267
83.3574
85.3812
84.5831
86.2446
84.5502
86.4752
84.0035
86.1564
83.0938
85.5737
81.8219
84.3967
80.1594
82.2163
77.8872
79.083
74.6985
74.1186
69.9685
67.195
63.0094
58.5237
53.4002
48.2656
58.4252
58.2908
58.2271
58.0514
57.9756
58.0259
58.1707
58.5037
58.8322
59.0894
59.4031
59.6992
59.9798
60.3311
60.7145
61.1346
61.5894
62.1342
62.7685
62.8616
61.7102
59.1455
55.3531
49.7354
42.5697
35.1465
29.5564
27.0483
28.3306
33.4872
41.7085
51.6456
61.2911
69.3366
75.1897
78.8787
80.8052
81.3033
80.6442
79.2385
77.3457
77.5086
79.9872
84.1276
87.6254
87.6986
85.9228
84.9134
85.344
85.3407
83.3353
80.2991
72.0675
68.0951
60.3938
61.7576
59.0324
79.8474
76.7342
104.03
99.7709
117.333
111.792
109.812
105.365
99.927
94.6297
90.5769
87.6829
85.6404
83.1453
81.182
79.0048
79.9684
80.3277
83.0229
83.2744
85.4547
84.5294
86.3525
84.5304
86.6008
84.008
86.32
83.1206
85.7674
81.8941
84.5755
80.2572
82.4134
77.9861
79.1791
74.8094
74.0691
70.0034
67.1176
63.0223
58.5123
53.4156
48.2015
60.1134
60.2029
57.8349
55.1184
54.413
54.7799
54.9655
54.2383
52.795
51.2307
49.5863
47.6608
45.0283
41.5343
37.8242
35.0159
33.6776
33.8931
36.7825
43.6012
52.8168
62.1384
70.0404
75.8157
78.0189
76.2172
73.3004
72.0304
72.2876
70.9974
67.9807
62.5663
55.6289
50.0357
48.0274
50.2438
55.0354
62.0081
73.0041
80.8281
88.2093
93.417
95.7553
96.1195
95.5111
94.7816
94.3187
94.2029
94.2339
94.2905
94.3731
94.2813
93.969
93.5662
93.2697
92.9297
92.0621
90.4715
88.4917
86.5746
84.9486
83.5101
82.1041
80.6489
79.148
77.6832
76.4883
75.6658
75.4596
75.8827
76.9779
78.4353
80.1207
81.8479
83.475
84.8989
86.0759
87.01
87.735
88.2821
88.698
89.0114
89.2455
89.4183
89.5433
89.6333
89.6979
89.7385
89.7473
89.7273
89.6882
89.6679
89.7103
89.766
89.5678
89.4793
89.428
88.8729
89.2047
90.7163
59.918
59.8617
57.4104
54.6234
54.2071
54.8525
55.0234
54.2166
52.7477
51.1942
49.685
47.7712
44.8852
41.1081
37.2715
34.4472
33.2067
33.3623
36.2162
43.1314
52.3492
61.4424
69.5288
75.4659
77.711
76.0318
73.1311
71.9372
72.406
71.529
67.7818
61.6784
54.5697
48.9104
46.9123
49.2655
54.333
61.4886
72.2906
80.4462
87.7583
93.2473
95.7171
96.0953
95.5264
94.7509
94.2993
94.2378
94.2515
94.223
94.3308
94.4689
94.1724
93.6162
93.2547
92.9742
92.1718
90.5172
88.4605
86.5161
84.9087
83.4959
82.1016
80.6393
79.1217
77.6348
76.42
75.5722
75.3501
75.7723
76.9088
78.3856
80.0955
81.8425
83.4868
84.9201
86.1007
87.035
87.7568
88.3028
88.7143
89.0241
89.2559
89.4275
89.5531
89.6442
89.7092
89.7474
89.7527
89.7277
89.6824
89.6513
89.687
89.7271
89.5501
89.4637
89.2602
88.5769
88.8964
90.3329
59.5376
59.2216
56.4955
53.6438
53.8594
55.0622
55.276
54.2979
52.8032
51.3002
49.7271
47.5273
44.0902
39.7914
35.8112
32.9487
31.8551
32.2289
35.2326
42.2541
51.4531
60.093
68.3132
74.6543
77.0061
75.2309
72.5071
71.8225
72.3189
70.8921
66.4991
59.7668
52.6371
46.988
44.9738
47.4234
52.9809
60.5778
70.9941
79.4824
86.7625
92.6171
95.4205
95.8737
95.3397
94.6587
94.2529
94.1927
94.2248
94.2584
94.2804
94.2127
93.9466
93.5015
93.2654
93.0565
92.2569
90.5275
88.3672
86.3976
84.8307
83.4608
82.0823
80.6079
79.0621
77.5353
76.2861
75.4072
75.2247
75.5979
76.7931
78.2931
80.0441
81.8305
83.5056
84.956
86.1409
87.0727
87.7874
88.3276
88.7312
89.0353
89.262
89.4316
89.5558
89.6465
89.7097
89.7483
89.757
89.7358
89.6757
89.6125
89.6344
89.7002
89.6062
89.5303
88.9981
88.0955
88.3392
89.7616
59.0052
58.4294
55.3195
52.429
53.4069
55.2427
55.6414
54.484
52.9946
51.5175
49.6691
46.7935
42.3919
37.4419
33.3992
30.5738
29.6181
30.4284
33.6654
40.4968
49.1725
57.5391
66.3217
73.2757
76.0842
74.571
71.9299
71.5263
72.0474
69.5642
64.4315
57.4471
50.3718
44.7291
42.8057
45.3657
51.0077
59.4256
69.8753
78.1832
85.3736
91.6024
94.8559
95.4921
95.0399
94.4359
94.1179
94.1175
94.1823
94.1848
94.0816
93.7867
93.4525
93.1036
92.9209
92.8523
92.1828
90.4367
88.2016
86.2381
84.7283
83.407
82.0381
80.5482
78.9635
77.386
76.0839
75.1588
74.992
75.3212
76.582
78.1188
79.9365
81.7788
83.4999
84.9764
86.173
87.1047
87.8117
88.3398
88.7329
89.0277
89.2483
89.4142
89.5399
89.6325
89.7007
89.7414
89.7537
89.7283
89.6649
89.5839
89.5952
89.7123
89.7886
89.6777
88.7124
87.5912
87.7577
89.1357
58.4292
57.5919
54.0351
51.1644
52.9201
55.3611
55.9889
54.7538
53.3203
51.8
49.4077
45.4743
39.8694
34.415
30.4999
27.7862
26.9127
28.1076
31.3521
37.5779
45.6105
53.8764
63.5908
71.4324
75.2486
74.683
72.263
72.166
71.8729
68.1184
62.3025
55.2735
48.1031
42.1962
40.1745
42.6069
48.3514
57.8815
68.6449
76.7748
83.9683
90.3503
94.1366
94.9704
94.6369
94.1439
93.9338
94.0026
94.0728
93.9999
93.8126
93.2897
92.6837
92.3125
92.1325
92.2304
91.8002
90.1707
87.9652
86.0579
84.6144
83.3343
81.9631
80.4423
78.8038
77.1489
75.7806
74.7868
74.5916
74.8952
76.2537
77.8417
79.753
81.6715
83.4549
84.9704
86.1823
87.1165
87.8156
88.3315
88.711
88.9942
89.2039
89.3653
89.4879
89.5839
89.6537
89.7032
89.7211
89.7074
89.6466
89.5728
89.5745
89.7583
89.9702
89.8792
88.5026
87.1505
87.3045
88.6057
57.8983
56.9143
52.8362
50.0058
52.4691
55.4302
56.2931
55.062
53.6899
51.9494
48.821
43.5916
36.9708
31.3428
27.7645
25.24
24.41
25.8859
29.0124
34.3763
41.5401
49.9335
60.3359
69.2977
74.8587
75.9708
73.9925
73.9831
71.9259
66.9173
60.3626
53.2413
45.7652
39.307
36.9332
39.1379
44.9179
55.2163
66.9388
75.4083
82.7676
88.9008
93.3354
94.4132
94.2224
93.792
93.6837
93.8637
93.9393
93.7496
93.3481
92.6115
91.6229
91.0862
90.942
91.0834
90.9867
89.6874
87.6333
85.85
84.4816
83.229
81.8345
80.2674
78.5536
76.809
75.3674
74.2929
74.0691
74.3522
75.8164
77.4627
79.4958
81.503
83.3702
84.9347
86.1748
87.1131
87.806
88.3063
88.6686
88.9342
89.1307
89.2807
89.3981
89.4886
89.5624
89.6135
89.6447
89.6442
89.6155
89.5651
89.6004
89.8039
90.1216
90.0327
88.398
86.9009
87.0817
88.3011
57.515
56.5405
52.0269
49.2697
52.1468
55.513
56.56
55.4897
54.0728
51.8662
47.8753
41.5086
34.3053
28.7384
25.4659
23.1029
22.3318
23.8872
26.8785
31.6461
38.2569
46.6393
57.2635
67.366
74.8402
78.2505
77.8293
76.6905
72.4717
65.9597
58.7494
51.3842
43.6062
36.495
33.6359
35.5018
41.06
51.7709
64.7196
74.1786
81.7075
87.4728
92.1927
93.823
93.8282
93.451
93.3575
93.6623
93.7722
93.3967
92.5748
91.6075
90.2885
89.4052
89.2474
89.4374
89.6758
88.8591
87.1773
85.5987
84.2971
83.0571
81.6188
79.9956
78.2028
76.3731
74.8601
73.6792
73.5068
73.6911
75.2672
76.9782
79.1674
81.2805
83.2469
84.8737
86.1473
87.0996
87.7851
88.2742
88.6214
88.8639
89.0414
89.1734
89.2761
89.3567
89.4226
89.4751
89.5088
89.5316
89.5281
89.5406
89.6056
89.847
90.1552
90.0862
88.381
86.8511
87.0856
88.2436
57.2954
56.3872
51.5453
48.9952
51.9996
55.6787
56.8315
56.0694
54.5967
51.7092
46.6832
39.5269
32.1468
26.7406
23.6481
21.3483
20.4816
21.9187
24.9059
29.2814
35.4369
43.8656
54.9959
65.8901
75.253
81.4488
82.7396
80.3066
73.7138
65.2916
57.6354
49.8945
41.8254
34.0032
30.5376
32.1791
37.4567
48.4228
62.2979
72.8086
80.6657
86.2751
90.706
93.1995
93.3203
93.0724
92.9677
93.3397
93.4791
92.9405
91.5556
90.0826
88.5567
87.2747
86.9539
87.2973
87.8486
87.6501
86.5301
85.2146
84.0245
82.7919
81.3125
79.6478
77.7879
75.8655
74.254
72.9291
72.745
72.8945
74.5725
76.3737
78.7585
81.0003
83.0897
84.7906
86.1055
87.073
87.755
88.2329
88.561
88.7923
88.9418
89.0574
89.1377
89.2045
89.2528
89.2975
89.3275
89.3571
89.3863
89.4401
89.5695
89.7941
90.12
90.0197
88.4189
86.9849
87.2934
88.4192
57.2644
56.3408
51.2212
49.0609
52.0685
55.9568
57.1359
56.7942
55.3466
51.6583
45.4075
37.6215
30.4829
25.305
22.2312
19.894
18.8174
20.0991
23.149
27.2714
33.0261
41.45
53.2934
64.9482
76.0535
85.3094
87.8617
84.1666
75.3289
65.0438
56.9147
48.8055
40.4342
32.0029
27.8578
29.4224
34.4169
45.4097
59.9743
71.2896
79.5138
85.2673
89.4573
92.3949
92.7313
92.52
92.4063
92.8882
92.9795
92.1946
90.2999
88.0502
86.292
84.6879
84.1095
84.6076
85.5062
85.9791
85.5589
84.6866
83.6416
82.4221
80.907
79.1996
77.2646
75.2432
73.5417
72.0383
71.8502
71.9527
73.732
75.6407
78.2521
80.6358
82.8826
84.672
86.0434
87.0294
87.7146
88.1819
88.4987
88.6997
88.8438
88.9327
88.9957
89.0367
89.0705
89.0918
89.1157
89.1396
89.1873
89.2641
89.4103
89.6551
89.9346
89.8291
88.4757
87.2707
87.6959
88.7881
57.383
56.353
51.1379
49.4382
52.252
56.4465
57.5874
57.6139
56.2241
51.7493
44.4504
36.1609
29.4064
24.4775
21.2002
18.6503
17.2453
18.3707
21.591
25.6907
31.1138
39.4688
51.9235
64.5078
76.8666
88.9932
92.6257
87.739
76.9542
65.2619
56.4533
48.167
39.4649
30.563
25.7019
27.2125
32.16
43.0078
57.7753
69.8867
78.4034
84.2807
88.5619
91.3729
92.238
91.8518
91.7122
92.2764
92.1861
90.9922
88.7537
85.6276
83.4566
81.666
80.7341
81.3205
82.6727
83.7832
84.2108
83.9024
83.0601
81.9052
80.3905
78.6553
76.6721
74.5352
72.75
71.0386
70.7989
70.8922
72.7515
74.7995
77.6425
80.1709
82.6122
84.5047
85.9549
86.97
87.6657
88.1301
88.4326
88.6208
88.7335
88.8075
88.8429
88.8698
88.8746
88.8827
88.8823
88.8968
88.9282
89.0088
89.1506
89.3784
89.638
89.54
88.5464
87.6118
88.1382
89.2963
57.5321
56.3784
51.5759
50.2177
52.7099
57.0986
58.2311
58.5608
57.1624
51.9679
43.9088
35.4131
29.0159
24.2682
20.6039
17.5687
15.6473
16.5994
20.1897
24.3796
29.6148
37.9311
50.976
64.4563
77.6816
91.4204
96.4677
90.6063
78.5104
65.7108
56.2211
47.9606
38.9671
29.6059
24.0648
25.5345
30.7245
41.3482
55.9355
68.6477
77.5162
83.3623
87.6977
90.4305
91.7759
91.2154
91.0233
91.522
91.1641
89.2628
86.6545
82.7907
80.093
78.1034
76.8832
77.582
79.3577
81.0904
82.4182
82.7779
82.3019
81.2856
79.7758
78.0636
76.0414
73.7206
71.8451
69.9471
69.7213
69.7913
71.6764
73.8833
76.9509
79.6381
82.2975
84.3044
85.8593
86.9071
87.6208
88.0734
88.3638
88.5272
88.623
88.6716
88.6944
88.6933
88.6847
88.6577
88.6417
88.6203
88.6449
88.682
88.8086
88.9981
89.187
89.1841
88.5461
88.0238
88.6714
89.9332
57.541
56.347
52.4742
51.4175
53.6878
57.9555
59.0982
59.6567
58.26
52.2599
43.6718
34.9941
29.0249
24.4395
20.3734
16.7025
14.1399
14.9645
19.1063
23.4408
28.5794
36.7703
50.2332
64.7337
78.5951
92.7331
98.8396
92.5905
79.8529
66.1355
56.0852
48.0151
38.8126
29.1812
23.1619
24.6473
30.1883
40.4256
54.5903
67.6999
76.8827
82.7045
86.897
89.678
91.2531
90.7578
90.4788
90.8037
90.1608
87.1316
83.7557
79.3833
76.1856
73.9053
72.6216
73.4245
75.5573
77.9897
80.1112
81.3793
81.3948
80.4808
79.0336
77.3398
75.3027
72.8163
70.9465
68.8827
68.6861
68.6683
70.5386
72.917
76.1881
79.0627
81.9504
84.08
85.7541
86.8424
87.5675
88.0074
88.2775
88.4249
88.5066
88.5358
88.5428
88.5175
88.483
88.4284
88.3858
88.3412
88.3182
88.336
88.385
88.556
88.671
88.7493
88.4761
88.2854
89.2025
90.3417
57.3059
56.1604
53.3854
52.7741
55.1504
58.9722
60.1884
60.8595
59.5606
52.5331
43.8413
35.0627
29.3807
24.8433
20.3879
16.1041
12.932
13.5158
18.1709
22.9613
27.9248
36.1503
49.5872
64.7618
79.3875
93.1126
99.5478
93.6942
80.7943
66.3931
55.9181
48.1417
38.8566
29.326
23.1482
24.5842
30.4619
40.3085
53.8578
67.0866
76.4781
82.2869
86.29
89.0832
90.6823
90.4455
90.3126
90.3144
89.2349
84.9062
80.2522
75.4538
71.8576
69.4193
67.9865
68.856
71.461
74.491
77.3743
79.6675
80.1776
79.4747
78.2026
76.5366
74.5698
71.9836
70.1181
67.877
67.4617
67.5816
69.4091
71.9402
75.3637
78.4547
81.5673
83.8282
85.6286
86.752
87.4885
87.9208
88.1808
88.319
88.3822
88.3984
88.3834
88.3325
88.2743
88.1967
88.122
88.0472
87.9858
87.9481
87.9475
88.0041
88.095
88.2361
88.2398
88.3945
89.2031
90.7299
56.7882
55.8005
53.854
53.6872
57.0846
60.1018
61.469
62.1439
60.9976
53.0283
44.4453
35.8544
30.1091
25.4599
20.6473
15.868
12.1396
12.2906
17.368
22.8843
27.5154
35.7377
49.2838
64.5219
79.3975
92.4637
98.6738
93.8088
81.132
66.3785
55.6588
48.196
39.1172
30.0344
23.9686
25.3275
31.4568
41.0095
53.8544
66.9077
76.2901
81.9844
85.8098
88.6409
90.1566
90.2727
90.5548
90.0881
88.2146
82.5948
76.6123
71.3277
67.4
64.6339
63.0292
64.1313
67.158
70.5529
74.3593
77.5239
78.7143
78.418
77.2922
75.698
73.8962
71.1405
69.3099
67.0204
66.6289
66.6777
68.3857
70.9789
74.5301
77.8295
81.1745
83.5508
85.5138
86.6409
87.4029
87.82
88.0777
88.2068
88.2579
88.2536
88.214
88.1483
88.061
87.959
87.8543
87.7432
87.631
87.5309
87.4673
87.4788
87.4531
87.6477
87.8043
88.1891
89.239
90.7792
56.2039
55.2427
53.8933
54.2104
58.7623
61.3129
62.9069
63.394
62.4049
54.1304
45.2842
37.0088
31.1174
26.3376
21.2465
16.169
12.026
11.8783
16.9938
23.1262
27.5612
35.3329
48.9212
64.1586
78.4847
90.7123
96.392
92.7376
80.7657
66.0814
55.3158
48.2847
39.6739
31.1486
25.4738
26.8137
33.1461
42.425
54.4395
67.1282
76.4098
81.8308
85.4223
88.3409
89.7625
90.2468
91.0412
90.1316
87.0769
80.1446
73.1366
67.2977
63.0207
59.8172
57.9401
59.3058
62.6418
66.4908
71.0644
75.0469
77.1778
77.1786
76.308
74.8468
73.2194
70.4048
68.6707
66.404
65.8345
65.9025
67.4659
70.0828
73.6629
77.2395
80.7532
83.2632
85.3885
86.515
87.3258
87.7179
87.9687
88.0806
88.1141
88.0993
88.0418
87.9591
87.8468
87.7185
87.5767
87.4218
87.2607