/*--------------------------------*- C++ -*----------------------------------*\
| =========                 |                                                 |
| \\      /  F ield         | OpenFOAM: The Open Source CFD Toolbox           |
|  \\    /   O peration     | Version:  2.4.0                                 |
|   \\  /    A nd           | Web:      www.OpenFOAM.org                      |
|    \\/     M anipulation  |                                                 |
\*---------------------------------------------------------------------------*/
FoamFile
{
    version     2.0;
    format      ascii;
    class       volVectorField;
    location    "0.141";
    object      UMean;
}
// * * * * * * * * * * * * * * * * * * * * * * * * * * * * * * * * * * * * * //

dimensions      [0 1 -1 0 0 0 0];

internalField   nonuniform List<vector> 
4400
(
(5.43711 0.313382 0)
(3.41471 0.0614235 0)
(2.68992 0.00156027 0)
(2.35399 -0.00228396 0)
(2.21233 -0.00145764 0)
(2.14572 -0.000778106 0)
(2.10396 -0.000160872 0)
(2.08678 -0.0003842 0)
(2.08707 0.000648011 0)
(1.91686 -0.0508333 0)
(8.67242 0.843698 0)
(7.62803 0.33886 0)
(6.73302 0.113249 0)
(6.04823 0.0514938 0)
(5.6749 0.0237116 0)
(5.47296 0.0128656 0)
(5.34487 0.0081046 0)
(5.28717 0.00275498 0)
(5.22184 0.0141307 0)
(5.21443 -0.125863 0)
(9.84216 0.91883 0)
(10.036 0.466464 0)
(9.54643 0.206219 0)
(8.84673 0.121892 0)
(8.37762 0.067778 0)
(8.08154 0.0386771 0)
(7.90179 0.0235394 0)
(7.78923 0.0133347 0)
(7.71986 0.0101012 0)
(7.67167 -0.122888 0)
(10.0595 0.789384 0)
(11.1232 0.484299 0)
(11.2647 0.255861 0)
(10.8488 0.185111 0)
(10.4727 0.118642 0)
(10.1609 0.0732245 0)
(9.99487 0.0455045 0)
(9.82302 0.0269959 0)
(9.80794 0.0147504 0)
(9.63525 -0.119835 0)
(9.9892 0.633194 0)
(11.3203 0.423761 0)
(11.9426 0.236686 0)
(11.9227 0.203403 0)
(11.8296 0.151922 0)
(11.6124 0.10139 0)
(11.5631 0.0705299 0)
(11.3674 0.0378329 0)
(11.4174 0.0283955 0)
(11.2245 -0.131264 0)
(9.96383 0.504077 0)
(11.2352 0.349875 0)
(12.0058 0.180698 0)
(12.1949 0.173312 0)
(12.371 0.145268 0)
(12.3474 0.106951 0)
(12.4544 0.0776724 0)
(12.3768 0.0480469 0)
(12.4581 0.0253112 0)
(12.3609 -0.106005 0)
(9.96653 0.388781 0)
(11.1694 0.28036 0)
(11.9417 0.131732 0)
(12.1809 0.129664 0)
(12.4133 0.115305 0)
(12.5231 0.0865604 0)
(12.7115 0.0660565 0)
(12.7922 0.0400406 0)
(12.9187 0.0115992 0)
(12.9493 -0.0586359 0)
(9.95486 0.270448 0)
(11.1417 0.210839 0)
(11.8785 0.0855863 0)
(12.1594 0.0965021 0)
(12.3591 0.076467 0)
(12.5158 0.0673773 0)
(12.6976 0.0369568 0)
(12.8454 0.0313704 0)
(12.9858 -0.0188676 0)
(13.0756 -0.0581172 0)
(9.94082 0.164176 0)
(11.1236 0.124878 0)
(11.838 0.0520904 0)
(12.146 0.0545734 0)
(12.3237 0.0484673 0)
(12.4965 0.0355268 0)
(12.664 0.0225642 0)
(12.826 0.00335048 0)
(12.9561 -0.0295166 0)
(13.0417 -0.109092 0)
(9.94225 0.0520395 0)
(11.106 0.045302 0)
(11.8258 0.0125841 0)
(12.1315 0.0223299 0)
(12.3142 0.0100308 0)
(12.4797 0.0148445 0)
(12.6536 -0.00444608 0)
(12.8055 -0.0105451 0)
(12.9395 -0.0561034 0)
(13.0058 -0.130534 0)
(9.94179 -0.0535492 0)
(11.107 -0.0413568 0)
(11.8247 -0.018712 0)
(12.133 -0.0179406 0)
(12.3126 -0.0200768 0)
(12.4815 -0.0155915 0)
(12.6511 -0.0224849 0)
(12.804 -0.0335943 0)
(12.9323 -0.0755236 0)
(12.9933 -0.149789 0)
(9.94752 -0.164578 0)
(11.1187 -0.122563 0)
(11.8426 -0.0561192 0)
(12.1414 -0.0527173 0)
(12.3276 -0.0555103 0)
(12.4919 -0.0402656 0)
(12.6637 -0.0447782 0)
(12.8124 -0.0531569 0)
(12.9398 -0.0956446 0)
(12.9921 -0.167663 0)
(9.96552 -0.273494 0)
(11.1336 -0.20552 0)
(11.8852 -0.0924595 0)
(12.1508 -0.0908122 0)
(12.3656 -0.0880295 0)
(12.5054 -0.066782 0)
(12.6976 -0.0658743 0)
(12.8219 -0.072544 0)
(12.9541 -0.114002 0)
(12.9766 -0.187104 0)
(9.98017 -0.389035 0)
(11.1559 -0.278859 0)
(11.952 -0.134781 0)
(12.1664 -0.127919 0)
(12.4249 -0.122224 0)
(12.5031 -0.091529 0)
(12.7163 -0.0872823 0)
(12.747 -0.0892046 0)
(12.868 -0.128706 0)
(12.7664 -0.19934 0)
(9.97054 -0.506298 0)
(11.2255 -0.347054 0)
(12.0118 -0.184668 0)
(12.1851 -0.170066 0)
(12.3769 -0.153147 0)
(12.3297 -0.110356 0)
(12.4462 -0.0990187 0)
(12.3171 -0.09428 0)
(12.3564 -0.127205 0)
(12.0825 -0.19263 0)
(9.99387 -0.634088 0)
(11.312 -0.421995 0)
(11.9486 -0.239491 0)
(11.9119 -0.201043 0)
(11.8352 -0.158861 0)
(11.5887 -0.104594 0)
(11.5464 -0.0887458 0)
(11.2887 -0.0784318 0)
(11.2557 -0.112685 0)
(10.8652 -0.151321 0)
(10.0609 -0.790235 0)
(11.1169 -0.483254 0)
(11.2703 -0.257886 0)
(10.8353 -0.183414 0)
(10.4844 -0.124448 0)
(10.1198 -0.0748533 0)
(9.99378 -0.0622185 0)
(9.69656 -0.054791 0)
(9.64056 -0.0875542 0)
(9.18148 -0.0987498 0)
(9.84172 -0.919157 0)
(10.0327 -0.465849 0)
(9.54957 -0.207366 0)
(8.83608 -0.121104 0)
(8.38648 -0.0712761 0)
(8.03881 -0.0404392 0)
(7.90269 -0.0345252 0)
(7.63703 -0.0325269 0)
(7.57849 -0.0567494 0)
(7.09576 -0.0555199 0)
(8.67181 -0.843852 0)
(7.62646 -0.338641 0)
(6.73408 -0.113759 0)
(6.04144 -0.0512659 0)
(5.67842 -0.0253042 0)
(5.43941 -0.014019 0)
(5.33814 -0.0131704 0)
(5.15073 -0.0145379 0)
(5.09001 -0.0268122 0)
(4.67666 -0.0236202 0)
(5.43672 -0.313411 0)
(3.41427 -0.0613798 0)
(2.68979 -0.0016426 0)
(2.35127 0.00232312 0)
(2.21173 0.00132212 0)
(2.1301 0.000479489 0)
(2.09139 -0.000214175 0)
(2.01712 -0.00120478 0)
(1.96985 -0.00257517 0)
(1.77042 0.00959671 0)
(3.04026 -0.278247 0)
(3.44202 -0.140124 0)
(4.00116 -0.18342 0)
(4.44179 -0.216151 0)
(4.89975 -0.288003 0)
(5.28633 -0.403984 0)
(5.68987 -0.457429 0)
(5.97646 -0.586356 0)
(6.41815 -0.73209 0)
(6.59852 -0.765533 0)
(6.97869 -0.889082 0)
(7.22263 -0.937579 0)
(7.58942 -1.06315 0)
(7.94693 -1.21391 0)
(8.28283 -1.35659 0)
(8.62975 -1.49961 0)
(8.96839 -1.6999 0)
(9.23926 -1.85916 0)
(9.42864 -2.01544 0)
(9.63907 -2.11993 0)
(9.69951 -2.21535 0)
(9.85171 -2.23099 0)
(9.82553 -2.24204 0)
(9.9678 -2.21077 0)
(9.98005 -2.18321 0)
(10.0008 -2.10418 0)
(9.91839 -2.02187 0)
(9.78823 -1.89759 0)
(9.61364 -1.779 0)
(9.46341 -1.62553 0)
(9.27003 -1.50443 0)
(9.19392 -1.39798 0)
(8.99423 -1.34054 0)
(8.95539 -1.23391 0)
(8.65635 -1.14378 0)
(8.58374 -1.01256 0)
(8.29087 -0.945528 0)
(8.09855 -0.767638 0)
(7.92194 -0.737895 0)
(7.77059 -0.582475 0)
(7.70538 -0.549788 0)
(7.58009 -0.362807 0)
(7.47173 -0.265093 0)
(7.38086 -0.012632 0)
(7.28203 0.0488537 0)
(7.16875 0.313816 0)
(7.13972 0.312245 0)
(6.93934 0.590589 0)
(6.99577 0.450397 0)
(6.82475 0.715928 0)
(6.88373 0.501699 0)
(6.77688 0.842952 0)
(6.79367 0.580323 0)
(6.76641 0.984495 0)
(6.76689 0.639557 0)
(6.77709 1.08028 0)
(6.79564 0.600329 0)
(6.7832 1.0936 0)
(6.85016 0.497972 0)
(6.79649 1.0206 0)
(6.80978 0.337211 0)
(6.76987 0.853293 0)
(6.68359 0.0746259 0)
(6.66805 0.611356 0)
(6.57297 -0.214238 0)
(6.57612 0.440869 0)
(6.55147 -0.375328 0)
(6.51424 0.359717 0)
(6.56752 -0.494484 0)
(6.40348 0.26628 0)
(6.52129 -0.587979 0)
(6.25552 0.238794 0)
(6.40845 -0.600674 0)
(6.12413 0.29348 0)
(6.33713 -0.560484 0)
(6.13588 0.322292 0)
(6.43198 -0.496619 0)
(6.13866 0.37968 0)
(6.47287 -0.326033 0)
(6.08098 0.519456 0)
(6.44204 -0.103104 0)
(6.05675 0.674731 0)
(6.3867 0.117983 0)
(6.03149 0.835672 0)
(6.31476 0.360345 0)
(5.9901 0.965867 0)
(6.25312 0.599982 0)
(5.91494 1.18955 0)
(6.23675 0.949884 0)
(5.87882 1.47536 0)
(6.15979 1.25675 0)
(5.83357 1.77366 0)
(6.1068 1.57889 0)
(5.74719 2.21666 0)
(6.0323 1.98932 0)
(5.45992 2.91364 0)
(6.21235 2.68032 0)
(5.24593 4.38123 0)
(6.42319 4.61331 0)
(3.72657 8.62536 0)
(5.49915 -0.295883 0)
(5.62197 -0.238019 0)
(5.89974 -0.297599 0)
(6.08306 -0.367279 0)
(6.40159 -0.447549 0)
(6.63567 -0.55024 0)
(6.96364 -0.623732 0)
(7.18441 -0.72401 0)
(7.52705 -0.862189 0)
(7.68742 -0.906476 0)
(7.96797 -1.01648 0)
(8.18201 -1.07824 0)
(8.50787 -1.19848 0)
(8.85225 -1.35219 0)
(9.15916 -1.50635 0)
(9.45102 -1.64194 0)
(9.73714 -1.81318 0)
(9.95492 -1.94753 0)
(10.0862 -2.08439 0)
(10.2322 -2.17171 0)
(10.2379 -2.2433 0)
(10.336 -2.2494 0)
(10.3181 -2.25237 0)
(10.3828 -2.22122 0)
(10.338 -2.17282 0)
(10.2473 -2.06911 0)
(10.1053 -1.96589 0)
(9.90782 -1.82428 0)
(9.68077 -1.69841 0)
(9.48126 -1.55601 0)
(9.26914 -1.44033 0)
(9.1659 -1.34078 0)
(8.93205 -1.27455 0)
(8.85026 -1.15301 0)
(8.50519 -1.05281 0)
(8.42297 -0.921369 0)
(8.06345 -0.844555 0)
(7.91483 -0.685574 0)
(7.71059 -0.683102 0)
(7.58796 -0.527035 0)
(7.53344 -0.513893 0)
(7.39136 -0.311494 0)
(7.30307 -0.224069 0)
(7.19228 0.0341433 0)
(7.13012 0.0820067 0)
(6.98751 0.357096 0)
(6.99335 0.34834 0)
(6.76776 0.629163 0)
(6.86656 0.463513 0)
(6.70327 0.745595 0)
(6.76954 0.511627 0)
(6.6425 0.870103 0)
(6.72033 0.583739 0)
(6.65878 1.01428 0)
(6.67477 0.620248 0)
(6.72 1.10343 0)
(6.68259 0.569761 0)
(6.77552 1.11183 0)
(6.76495 0.463565 0)
(6.79576 1.06122 0)
(6.78518 0.304126 0)
(6.76328 0.922871 0)
(6.70011 0.048468 0)
(6.66373 0.690481 0)
(6.5908 -0.254739 0)
(6.56202 0.521326 0)
(6.56903 -0.442455 0)
(6.47221 0.436202 0)
(6.58957 -0.55905 0)
(6.35878 0.371792 0)
(6.54518 -0.649334 0)
(6.21683 0.365798 0)
(6.45037 -0.682464 0)
(6.10929 0.410311 0)
(6.4378 -0.677418 0)
(6.13182 0.4201 0)
(6.52272 -0.619512 0)
(6.09119 0.508056 0)
(6.57653 -0.457739 0)
(6.03126 0.663005 0)
(6.62991 -0.255261 0)
(6.04902 0.825383 0)
(6.64797 -0.0369682 0)
(6.07899 0.99843 0)
(6.63162 0.201208 0)
(6.10544 1.14317 0)
(6.57449 0.446914 0)
(6.07129 1.37835 0)
(6.44561 0.769958 0)
(6.02766 1.67869 0)
(6.37533 1.0827 0)
(5.93826 1.98892 0)
(6.3818 1.37491 0)
(5.91043 2.44318 0)
(6.57665 1.86784 0)
(5.68494 3.27129 0)
(6.51382 2.53562 0)
(4.98464 4.64394 0)
(8.24695 3.96298 0)
(5.88615 9.07309 0)
(7.82677 -0.304564 0)
(7.80806 -0.299138 0)
(7.98242 -0.360838 0)
(8.07225 -0.435734 0)
(8.26076 -0.525148 0)
(8.38237 -0.614196 0)
(8.57677 -0.703159 0)
(8.69646 -0.794992 0)
(8.90171 -0.929083 0)
(9.0033 -0.992559 0)
(9.18833 -1.0971 0)
(9.35772 -1.18388 0)
(9.59977 -1.31115 0)
(9.87656 -1.46413 0)
(10.1151 -1.61224 0)
(10.2841 -1.7403 0)
(10.4737 -1.8876 0)
(10.6139 -2.0015 0)
(10.6838 -2.11955 0)
(10.7409 -2.18917 0)
(10.7062 -2.24151 0)
(10.731 -2.25138 0)
(10.6885 -2.2458 0)
(10.6556 -2.20513 0)
(10.5332 -2.13213 0)
(10.3641 -2.00934 0)
(10.1626 -1.88705 0)
(9.91736 -1.72939 0)
(9.64908 -1.59624 0)
(9.41852 -1.46729 0)
(9.17901 -1.36097 0)
(9.04749 -1.26092 0)
(8.76805 -1.18515 0)
(8.64363 -1.05766 0)
(8.27918 -0.947929 0)
(8.18549 -0.823336 0)
(7.77178 -0.734843 0)
(7.67486 -0.603613 0)
(7.42606 -0.621989 0)
(7.35732 -0.475184 0)
(7.29711 -0.482053 0)
(7.15189 -0.259207 0)
(7.08574 -0.183758 0)
(6.956 0.0805602 0)
(6.91529 0.116085 0)
(6.77152 0.397191 0)
(6.76761 0.38357 0)
(6.57802 0.65893 0)
(6.66427 0.472146 0)
(6.55539 0.766388 0)
(6.5925 0.527998 0)
(6.48524 0.877717 0)
(6.56914 0.572422 0)
(6.52059 1.02389 0)
(6.56352 0.59276 0)
(6.60636 1.11174 0)
(6.57386 0.533714 0)
(6.72705 1.11658 0)
(6.63874 0.428212 0)
(6.7841 1.07536 0)
(6.703 0.283771 0)
(6.75132 0.964638 0)
(6.67897 0.0380759 0)
(6.66511 0.754186 0)
(6.575 -0.277321 0)
(6.55149 0.569322 0)
(6.54687 -0.478295 0)
(6.45422 0.497129 0)
(6.55303 -0.594969 0)
(6.35117 0.44947 0)
(6.50339 -0.694581 0)
(6.22708 0.45681 0)
(6.42255 -0.745047 0)
(6.14993 0.490403 0)
(6.45586 -0.764237 0)
(6.13342 0.511318 0)
(6.50764 -0.714397 0)
(6.05542 0.622068 0)
(6.58147 -0.58031 0)
(5.99759 0.774181 0)
(6.74616 -0.412376 0)
(6.02685 0.947582 0)
(6.90704 -0.20883 0)
(6.09827 1.13395 0)
(7.05621 0.0176576 0)
(6.20137 1.29053 0)
(7.17762 0.280386 0)
(6.276 1.55357 0)
(7.1588 0.633754 0)
(6.19562 1.84909 0)
(7.04739 0.952003 0)
(6.04238 2.15328 0)
(6.90703 1.19355 0)
(5.85979 2.52705 0)
(7.2899 1.51143 0)
(5.96848 3.38556 0)
(8.37862 2.34266 0)
(5.30691 5.01491 0)
(9.06478 3.33613 0)
(6.9289 9.08229 0)
(9.80031 -0.328211 0)
(9.72944 -0.355513 0)
(9.81938 -0.41441 0)
(9.88598 -0.480197 0)
(9.9995 -0.564485 0)
(10.0672 -0.648326 0)
(10.1609 -0.745351 0)
(10.2133 -0.835782 0)
(10.3106 -0.95803 0)
(10.3667 -1.03978 0)
(10.4827 -1.1458 0)
(10.5951 -1.24899 0)
(10.7308 -1.38089 0)
(10.8789 -1.53415 0)
(11.0119 -1.67794 0)
(11.0607 -1.7931 0)
(11.1239 -1.92273 0)
(11.1662 -2.02215 0)
(11.1632 -2.11816 0)
(11.1353 -2.17502 0)
(11.0616 -2.21929 0)
(11.0158 -2.23546 0)
(10.9121 -2.21751 0)
(10.7893 -2.15649 0)
(10.5916 -2.05745 0)
(10.3644 -1.91785 0)
(10.1017 -1.78043 0)
(9.81277 -1.61321 0)
(9.52243 -1.48214 0)
(9.26537 -1.36178 0)
(8.99469 -1.27116 0)
(8.81261 -1.17021 0)
(8.50237 -1.08436 0)
(8.33302 -0.95273 0)
(7.97578 -0.837434 0)
(7.85947 -0.716319 0)
(7.42297 -0.624739 0)
(7.36622 -0.532621 0)
(7.0883 -0.571669 0)
(7.09597 -0.436616 0)
(7.01516 -0.456385 0)
(6.87576 -0.206673 0)
(6.8392 -0.14701 0)
(6.67888 0.131213 0)
(6.66392 0.147067 0)
(6.50471 0.439355 0)
(6.50466 0.403051 0)
(6.36795 0.689718 0)
(6.42519 0.471203 0)
(6.35042 0.784944 0)
(6.38409 0.531542 0)
(6.31949 0.897651 0)
(6.38065 0.562808 0)
(6.34519 1.03692 0)
(6.42021 0.568558 0)
(6.43131 1.13025 0)
(6.46169 0.483098 0)
(6.57788 1.13528 0)
(6.52893 0.377721 0)
(6.69068 1.09214 0)
(6.60318 0.252167 0)
(6.69881 0.9961 0)
(6.63833 0.0115845 0)
(6.62323 0.812494 0)
(6.57138 -0.297767 0)
(6.49294 0.638711 0)
(6.52317 -0.508 0)
(6.38305 0.566486 0)
(6.50066 -0.648088 0)
(6.28891 0.54097 0)
(6.45195 -0.750032 0)
(6.17716 0.562479 0)
(6.40648 -0.819596 0)
(6.10257 0.589328 0)
(6.44643 -0.861028 0)
(6.01114 0.642766 0)
(6.46207 -0.831106 0)
(5.89139 0.764038 0)
(6.55609 -0.732571 0)
(5.83363 0.917852 0)
(6.79155 -0.591925 0)
(5.82693 1.10365 0)
(7.07227 -0.41522 0)
(5.87953 1.29802 0)
(7.39035 -0.232274 0)
(6.04251 1.4618 0)
(7.72175 0.0083957 0)
(6.26665 1.7507 0)
(7.94817 0.388619 0)
(6.45276 2.10323 0)
(8.00229 0.763952 0)
(6.41688 2.489 0)
(7.76059 1.07083 0)
(5.90009 2.9366 0)
(7.49293 1.1869 0)
(5.30101 3.57394 0)
(8.88961 1.74274 0)
(5.86808 5.09214 0)
(10.7569 2.31855 0)
(8.29419 8.44689 0)
(11.3416 -0.294278 0)
(11.3028 -0.334802 0)
(11.3177 -0.417159 0)
(11.343 -0.49489 0)
(11.3975 -0.58151 0)
(11.4271 -0.666409 0)
(11.4592 -0.763801 0)
(11.4663 -0.853723 0)
(11.501 -0.968301 0)
(11.5259 -1.06518 0)
(11.5843 -1.17642 0)
(11.6269 -1.28298 0)
(11.6676 -1.40841 0)
(11.6951 -1.54788 0)
(11.7166 -1.68897 0)
(11.6763 -1.79739 0)
(11.6218 -1.91597 0)
(11.5642 -2.01209 0)
(11.4841 -2.09755 0)
(11.4011 -2.15379 0)
(11.2966 -2.19008 0)
(11.1872 -2.19699 0)
(11.0109 -2.15747 0)
(10.8051 -2.07527 0)
(10.5297 -1.95484 0)
(10.2415 -1.80496 0)
(9.92061 -1.6569 0)
(9.60196 -1.49068 0)
(9.30154 -1.36287 0)
(9.02135 -1.24806 0)
(8.71729 -1.16397 0)
(8.48067 -1.06224 0)
(8.1448 -0.969409 0)
(7.94916 -0.844157 0)
(7.59158 -0.72384 0)
(7.45348 -0.605241 0)
(7.01268 -0.515634 0)
(6.99648 -0.475309 0)
(6.72259 -0.527653 0)
(6.81114 -0.414451 0)
(6.67709 -0.428864 0)
(6.57284 -0.156928 0)
(6.54895 -0.114043 0)
(6.37852 0.176837 0)
(6.38147 0.178352 0)
(6.2034 0.478382 0)
(6.19842 0.421415 0)
(6.13162 0.705558 0)
(6.15336 0.470363 0)
(6.1413 0.802145 0)
(6.11353 0.523242 0)
(6.14609 0.900687 0)
(6.13532 0.548187 0)
(6.1995 1.02373 0)
(6.19228 0.533945 0)
(6.30025 1.11634 0)
(6.28279 0.443791 0)
(6.43091 1.13156 0)
(6.39688 0.334931 0)
(6.56644 1.09389 0)
(6.49746 0.219857 0)
(6.65078 1.00303 0)
(6.54834 0.00126061 0)
(6.60235 0.844012 0)
(6.51719 -0.293432 0)
(6.46283 0.672905 0)
(6.44041 -0.52739 0)
(6.34605 0.604452 0)
(6.38782 -0.676792 0)
(6.26528 0.598933 0)
(6.34159 -0.790902 0)
(6.16653 0.626818 0)
(6.32993 -0.8782 0)
(6.06717 0.665088 0)
(6.33467 -0.934536 0)
(5.92665 0.745005 0)
(6.34117 -0.932575 0)
(5.81223 0.872184 0)
(6.44596 -0.866882 0)
(5.74976 1.02537 0)
(6.67571 -0.753628 0)
(5.70546 1.2116 0)
(7.00234 -0.609204 0)
(5.71978 1.41418 0)
(7.42832 -0.482102 0)
(5.83954 1.5979 0)
(7.92571 -0.318142 0)
(6.08867 1.90032 0)
(8.57768 -0.0192829 0)
(6.42071 2.23349 0)
(9.4174 0.3448 0)
(6.76733 2.63451 0)
(10.257 0.819422 0)
(6.63631 3.15667 0)
(10.6162 1.32757 0)
(5.59933 3.86357 0)
(10.2076 1.54267 0)
(5.42936 5.51998 0)
(9.9245 1.41753 0)
(8.82946 7.8075 0)
(12.4208 -0.299405 0)
(12.397 -0.380658 0)
(12.3842 -0.46107 0)
(12.3866 -0.525137 0)
(12.402 -0.595036 0)
(12.3987 -0.668714 0)
(12.3835 -0.759276 0)
(12.3579 -0.850567 0)
(12.3488 -0.964333 0)
(12.3344 -1.06813 0)
(12.3282 -1.18084 0)
(12.3003 -1.28414 0)
(12.2673 -1.40063 0)
(12.2168 -1.52233 0)
(12.1529 -1.65658 0)
(12.0562 -1.76596 0)
(11.9316 -1.87741 0)
(11.8094 -1.97148 0)
(11.6813 -2.05673 0)
(11.5639 -2.11463 0)
(11.4196 -2.14093 0)
(11.2351 -2.12809 0)
(10.9886 -2.06535 0)
(10.6973 -1.96026 0)
(10.3538 -1.82444 0)
(10.0102 -1.6644 0)
(9.65071 -1.51139 0)
(9.31118 -1.35258 0)
(8.9962 -1.23392 0)
(8.68382 -1.12236 0)
(8.3512 -1.03843 0)
(8.05483 -0.9349 0)
(7.70329 -0.847115 0)
(7.48529 -0.728235 0)
(7.13721 -0.613128 0)
(6.98054 -0.495146 0)
(6.56465 -0.41927 0)
(6.59684 -0.436515 0)
(6.35015 -0.499638 0)
(6.47605 -0.39804 0)
(6.27807 -0.392656 0)
(6.23282 -0.116251 0)
(6.20276 -0.0946577 0)
(6.05223 0.220412 0)
(6.06427 0.204909 0)
(5.8703 0.51913 0)
(5.87845 0.418971 0)
(5.85637 0.730256 0)
(5.85936 0.446052 0)
(5.87493 0.822279 0)
(5.86333 0.505861 0)
(5.92993 0.917517 0)
(5.88407 0.530973 0)
(6.0324 1.03014 0)
(5.93853 0.50773 0)
(6.15599 1.09671 0)
(6.06908 0.40543 0)
(6.28616 1.11378 0)
(6.25462 0.286105 0)
(6.40036 1.0936 0)
(6.42129 0.170382 0)
(6.5138 1.02323 0)
(6.47711 -0.0179839 0)
(6.48682 0.883068 0)
(6.45743 -0.299331 0)
(6.35502 0.726924 0)
(6.37556 -0.540276 0)
(6.24305 0.666603 0)
(6.2995 -0.716277 0)
(6.15803 0.660782 0)
(6.25934 -0.841297 0)
(6.06052 0.703671 0)
(6.25566 -0.94051 0)
(5.92211 0.766149 0)
(6.25743 -1.01986 0)
(5.77115 0.868212 0)
(6.2944 -1.05456 0)
(5.66584 1.00563 0)
(6.39637 -1.02187 0)
(5.58838 1.16224 0)
(6.60823 -0.930002 0)
(5.52147 1.3507 0)
(6.94988 -0.79381 0)
(5.48163 1.56072 0)
(7.39012 -0.674327 0)
(5.45976 1.78398 0)
(7.85992 -0.537449 0)
(5.47485 2.11482 0)
(8.56298 -0.303603 0)
(5.5237 2.45864 0)
(9.6225 -0.0670229 0)
(5.79565 2.82117 0)
(11.138 0.292058 0)
(6.34217 3.29849 0)
(12.5378 0.715696 0)
(7.01589 4.10931 0)
(12.6916 0.981937 0)
(7.74147 5.62584 0)
(10.701 1.33184 0)
(8.91661 7.03959 0)
(12.9666 -0.318281 0)
(12.9588 -0.434942 0)
(12.9551 -0.49195 0)
(12.9548 -0.526649 0)
(12.939 -0.57714 0)
(12.9084 -0.647209 0)
(12.8631 -0.738008 0)
(12.8175 -0.837571 0)
(12.772 -0.951494 0)
(12.7186 -1.05645 0)
(12.6608 -1.16599 0)
(12.5865 -1.26651 0)
(12.5079 -1.37661 0)
(12.4178 -1.4891 0)
(12.3144 -1.61484 0)
(12.1986 -1.72646 0)
(12.0638 -1.83102 0)
(11.9288 -1.92036 0)
(11.7827 -2.00314 0)
(11.6236 -2.05681 0)
(11.4115 -2.06817 0)
(11.1448 -2.03271 0)
(10.8224 -1.94301 0)
(10.4572 -1.81784 0)
(10.0624 -1.6687 0)
(9.68635 -1.50709 0)
(9.29776 -1.3569 0)
(8.94232 -1.21383 0)
(8.59632 -1.1034 0)
(8.25803 -0.993416 0)
(7.89844 -0.902848 0)
(7.56635 -0.802355 0)
(7.20689 -0.722122 0)
(6.96404 -0.611766 0)
(6.63467 -0.501805 0)
(6.45609 -0.385889 0)
(6.0951 -0.342838 0)
(6.16672 -0.416365 0)
(5.93474 -0.470605 0)
(6.06764 -0.372848 0)
(5.82138 -0.349507 0)
(5.86417 -0.0877192 0)
(5.79765 -0.0736184 0)
(5.68402 0.258885 0)
(5.71509 0.238489 0)
(5.51456 0.554702 0)
(5.53692 0.410697 0)
(5.5548 0.741923 0)
(5.56024 0.448003 0)
(5.58332 0.831235 0)
(5.56026 0.472903 0)
(5.69257 0.911242 0)
(5.60363 0.497462 0)
(5.858 1.01017 0)
(5.69413 0.48183 0)
(6.02597 1.06802 0)
(5.82377 0.373284 0)
(6.16358 1.07186 0)
(6.04464 0.2461 0)
(6.27283 1.05933 0)
(6.27223 0.121985 0)
(6.36631 1.02368 0)
(6.36185 -0.0386277 0)
(6.35595 0.907953 0)
(6.35152 -0.289337 0)
(6.24374 0.769178 0)
(6.26083 -0.541661 0)
(6.13886 0.709254 0)
(6.17646 -0.730729 0)
(6.05297 0.713063 0)
(6.13114 -0.862553 0)
(5.96196 0.761175 0)
(6.10969 -0.978686 0)
(5.83322 0.831728 0)
(6.12125 -1.08255 0)
(5.70689 0.942991 0)
(6.16463 -1.14753 0)
(5.60807 1.09189 0)
(6.24496 -1.14738 0)
(5.54371 1.25124 0)
(6.41194 -1.08452 0)
(5.50756 1.4266 0)
(6.72595 -0.973329 0)
(5.49609 1.62034 0)
(7.1125 -0.871355 0)
(5.48753 1.84352 0)
(7.4206 -0.741024 0)
(5.45999 2.16691 0)
(7.7179 -0.530299 0)
(5.42468 2.56494 0)
(8.12787 -0.362113 0)
(5.3881 3.02598 0)
(8.82883 -0.162906 0)
(5.78202 3.62799 0)
(9.88336 0.103831 0)
(6.92526 4.48567 0)
(11.149 0.430054 0)
(8.6081 5.70034 0)
(11.9529 1.65853 0)
(9.65665 6.26173 0)
(13.0527 -0.298057 0)
(13.0602 -0.426157 0)
(13.0793 -0.49167 0)
(13.078 -0.526071 0)
(13.0464 -0.572583 0)
(13.006 -0.642149 0)
(12.9512 -0.730906 0)
(12.8938 -0.82921 0)
(12.8261 -0.935372 0)
(12.7505 -1.03533 0)
(12.6697 -1.13952 0)
(12.5819 -1.2389 0)
(12.4902 -1.34483 0)
(12.3981 -1.45491 0)
(12.298 -1.57411 0)
(12.1937 -1.68403 0)
(12.0732 -1.78386 0)
(11.938 -1.86843 0)
(11.7666 -1.93716 0)
(11.5467 -1.96844 0)
(11.2598 -1.95507 0)
(10.9095 -1.89004 0)
(10.5147 -1.77994 0)
(10.0867 -1.64605 0)
(9.66067 -1.49673 0)
(9.26014 -1.34032 0)
(8.85175 -1.19928 0)
(8.47945 -1.06658 0)
(8.10708 -0.959351 0)
(7.74439 -0.84377 0)
(7.36461 -0.746171 0)
(7.01798 -0.655761 0)
(6.6706 -0.592128 0)
(6.4128 -0.497556 0)
(6.10966 -0.395461 0)
(5.90394 -0.283088 0)
(5.62947 -0.294824 0)
(5.70267 -0.392948 0)
(5.47411 -0.439896 0)
(5.61447 -0.352444 0)
(5.3591 -0.321585 0)
(5.48074 -0.0771813 0)
(5.34267 -0.0562009 0)
(5.29287 0.281258 0)
(5.30985 0.255454 0)
(5.15592 0.586264 0)
(5.18963 0.387238 0)
(5.22375 0.747289 0)
(5.22652 0.402139 0)
(5.261 0.851187 0)
(5.27335 0.435332 0)
(5.40799 0.917085 0)
(5.34489 0.457915 0)
(5.61067 0.99952 0)
(5.46216 0.43798 0)
(5.82605 1.04648 0)
(5.61376 0.329725 0)
(6.00354 1.04716 0)
(5.8459 0.198209 0)
(6.14824 1.04119 0)
(6.09798 0.0791294 0)
(6.20869 1.03312 0)
(6.22669 -0.0627642 0)
(6.19168 0.939909 0)
(6.23641 -0.294771 0)
(6.09749 0.816045 0)
(6.15813 -0.548561 0)
(5.99772 0.769015 0)
(6.08342 -0.748666 0)
(5.90487 0.77213 0)
(6.02611 -0.900861 0)
(5.81866 0.826557 0)
(6.001 -1.02981 0)
(5.7262 0.906941 0)
(6.01716 -1.1489 0)
(5.61706 1.03101 0)
(6.07905 -1.23791 0)
(5.5146 1.19894 0)
(6.16873 -1.27508 0)
(5.4447 1.37049 0)
(6.31533 -1.25336 0)
(5.41597 1.54313 0)
(6.61608 -1.1749 0)
(5.42035 1.73742 0)
(7.03598 -1.0924 0)
(5.44153 1.97996 0)
(7.35467 -0.977683 0)
(5.45349 2.30094 0)
(7.63685 -0.800427 0)
(5.56248 2.65521 0)
(7.93613 -0.660538 0)
(5.76423 3.06892 0)
(8.1226 -0.577633 0)
(6.22816 3.70519 0)
(8.34507 -0.489396 0)
(6.99608 4.69137 0)
(9.22776 -0.113036 0)
(8.20324 5.55134 0)
(11.2616 1.57709 0)
(10.2945 5.66952 0)
(13.006 -0.289622 0)
(13.0177 -0.383524 0)
(13.0512 -0.444911 0)
(13.0579 -0.489168 0)
(13.027 -0.539902 0)
(12.9782 -0.609495 0)
(12.9105 -0.695929 0)
(12.8393 -0.792674 0)
(12.7602 -0.895114 0)
(12.6799 -0.995403 0)
(12.6 -1.10063 0)
(12.5218 -1.20482 0)
(12.4366 -1.30899 0)
(12.3576 -1.41977 0)
(12.2628 -1.53234 0)
(12.1568 -1.63832 0)
(12.0174 -1.73123 0)
(11.8495 -1.80466 0)
(11.616 -1.84394 0)
(11.3205 -1.84378 0)
(10.9486 -1.79959 0)
(10.5208 -1.71008 0)
(10.0602 -1.59037 0)
(9.59021 -1.46064 0)
(9.14358 -1.31588 0)
(8.72674 -1.16842 0)
(8.30155 -1.03643 0)
(7.91825 -0.910462 0)
(7.5218 -0.802071 0)
(7.14004 -0.68841 0)
(6.74825 -0.594664 0)
(6.40406 -0.51822 0)
(6.07374 -0.46509 0)
(5.82132 -0.386087 0)
(5.53501 -0.28825 0)
(5.3368 -0.19797 0)
(5.15035 -0.259653 0)
(5.20239 -0.36508 0)
(4.98521 -0.413431 0)
(5.15093 -0.338353 0)
(4.89273 -0.296745 0)
(5.06737 -0.0652326 0)
(4.85663 -0.0283026 0)
(4.89753 0.29893 0)
(4.88624 0.271059 0)
(4.79266 0.607014 0)
(4.82475 0.359202 0)
(4.89881 0.757027 0)
(4.89766 0.399321 0)
(4.9402 0.838747 0)
(4.94146 0.3881 0)
(5.1132 0.891757 0)
(5.04864 0.406167 0)
(5.35771 0.968817 0)
(5.22659 0.401665 0)
(5.60227 1.01553 0)
(5.39241 0.284869 0)
(5.83892 1.01161 0)
(5.60363 0.148571 0)
(6.01989 1.00976 0)
(5.84569 0.0471515 0)
(6.08307 1.01542 0)
(6.01164 -0.0691713 0)
(6.05562 0.94143 0)
(6.04305 -0.279363 0)
(5.98562 0.839544 0)
(5.98035 -0.527726 0)
(5.89923 0.791211 0)
(5.91107 -0.73783 0)
(5.81844 0.795297 0)
(5.85468 -0.898209 0)
(5.75754 0.851265 0)
(5.83092 -1.04037 0)
(5.70438 0.932652 0)
(5.83976 -1.17131 0)
(5.62491 1.06353 0)
(5.89626 -1.28223 0)
(5.52508 1.24811 0)
(5.98846 -1.35119 0)
(5.44357 1.43695 0)
(6.11852 -1.36683 0)
(5.42657 1.60039 0)
(6.3673 -1.32682 0)
(5.46203 1.78591 0)
(6.7493 -1.2773 0)
(5.49542 2.07692 0)
(7.00665 -1.17889 0)
(5.48967 2.43598 0)
(7.28545 -1.0473 0)
(5.59364 2.82133 0)
(7.57485 -0.954344 0)
(5.85047 3.26193 0)
(7.87637 -0.927376 0)
(6.39797 3.85273 0)
(8.21391 -0.781337 0)
(7.25749 4.61016 0)
(8.68608 -0.258796 0)
(8.14627 5.15323 0)
(9.84572 1.23332 0)
(10.3861 5.02832 0)
(12.9628 -0.265233 0)
(12.9729 -0.334447 0)
(13.011 -0.396791 0)
(13.0146 -0.45658 0)
(12.9792 -0.520543 0)
(12.9142 -0.593666 0)
(12.8378 -0.678669 0)
(12.7623 -0.772726 0)
(12.6921 -0.873242 0)
(12.621 -0.971721 0)
(12.5554 -1.0758 0)
(12.4825 -1.17859 0)
(12.3993 -1.27954 0)
(12.3049 -1.38327 0)
(12.1878 -1.48665 0)
(12.0378 -1.57979 0)
(11.8427 -1.65752 0)
(11.5978 -1.70527 0)
(11.2773 -1.71409 0)
(10.8885 -1.68402 0)
(10.4342 -1.61327 0)
(9.94448 -1.50514 0)
(9.44801 -1.38573 0)
(8.96376 -1.26266 0)
(8.51298 -1.12421 0)
(8.08486 -0.987456 0)
(7.64733 -0.865544 0)
(7.24933 -0.739718 0)
(6.83513 -0.631695 0)
(6.44842 -0.527511 0)
(6.07728 -0.448207 0)
(5.75475 -0.388665 0)
(5.45 -0.348113 0)
(5.2058 -0.279524 0)
(4.93418 -0.191601 0)
(4.76753 -0.136492 0)
(4.64261 -0.236297 0)
(4.66614 -0.343676 0)
(4.4799 -0.399795 0)
(4.64794 -0.330134 0)
(4.37798 -0.276252 0)
(4.59945 -0.0572799 0)
(4.33859 -0.0148522 0)
(4.49347 0.296383 0)
(4.38726 0.267894 0)
(4.41998 0.609904 0)
(4.42078 0.323527 0)
(4.53611 0.745942 0)
(4.49198 0.337518 0)
(4.63204 0.846093 0)
(4.61481 0.344073 0)
(4.80248 0.87958 0)
(4.76034 0.347987 0)
(5.0502 0.928777 0)
(4.96283 0.32758 0)
(5.3389 0.987916 0)
(5.13193 0.214664 0)
(5.61875 0.986103 0)
(5.34201 0.0906053 0)
(5.83397 0.987239 0)
(5.57428 0.00441254 0)
(5.92111 0.998795 0)
(5.77812 -0.0822849 0)
(5.90921 0.940889 0)
(5.85016 -0.270377 0)
(5.86912 0.854146 0)
(5.82012 -0.512027 0)
(5.79832 0.811364 0)
(5.77858 -0.720166 0)
(5.72682 0.821703 0)
(5.7397 -0.889405 0)
(5.67308 0.877405 0)
(5.72168 -1.0382 0)
(5.63207 0.965771 0)
(5.72131 -1.17275 0)
(5.58053 1.10066 0)
(5.75732 -1.29613 0)
(5.49294 1.29083 0)
(5.86726 -1.39735 0)
(5.39887 1.49557 0)
(6.03724 -1.46455 0)
(5.35973 1.67123 0)
(6.28401 -1.47526 0)
(5.41307 1.85849 0)
(6.61595 -1.45574 0)
(5.50393 2.18763 0)
(6.88244 -1.35944 0)
(5.53251 2.55252 0)
(7.20471 -1.28036 0)
(5.71512 2.93461 0)
(7.45617 -1.23189 0)
(6.08181 3.36339 0)
(7.67763 -1.20576 0)
(6.72772 3.87763 0)
(7.87507 -0.932892 0)
(7.49172 4.45227 0)
(8.30466 -0.204115 0)
(8.36391 4.6714 0)
(9.0512 1.10369 0)
(10.1275 4.30485 0)
(12.9405 -0.247548 0)
(12.9515 -0.299623 0)
(12.9911 -0.359899 0)
(12.9974 -0.427758 0)
(12.9623 -0.499469 0)
(12.9002 -0.576849 0)
(12.8273 -0.659574 0)
(12.7566 -0.748642 0)
(12.6865 -0.841863 0)
(12.6114 -0.935897 0)
(12.5294 -1.03215 0)
(12.4342 -1.12993 0)
(12.3208 -1.22403 0)
(12.1819 -1.31836 0)
(12.0092 -1.40788 0)
(11.7892 -1.48402 0)
(11.51 -1.53679 0)
(11.1634 -1.55705 0)
(10.7376 -1.53891 0)
(10.2592 -1.48688 0)
(9.737 -1.39893 0)
(9.20834 -1.28857 0)
(8.69938 -1.18309 0)
(8.21811 -1.07254 0)
(7.77787 -0.93972 0)
(7.34793 -0.809014 0)
(6.9039 -0.692909 0)
(6.50255 -0.568835 0)
(6.08953 -0.463478 0)
(5.72666 -0.369952 0)
(5.38921 -0.304243 0)
(5.10567 -0.260027 0)
(4.83282 -0.227409 0)
(4.60113 -0.171367 0)
(4.35912 -0.0990648 0)
(4.23267 -0.0828829 0)
(4.15432 -0.208129 0)
(4.15528 -0.31842 0)
(4.00104 -0.381757 0)
(4.15496 -0.317475 0)
(3.88757 -0.256018 0)
(4.14543 -0.0504977 0)
(3.83624 -0.00301104 0)
(4.10162 0.292466 0)
(3.88029 0.269912 0)
(4.06939 0.596875 0)
(4.00039 0.283892 0)
(4.23236 0.755684 0)
(4.10678 0.318821 0)
(4.33111 0.814715 0)
(4.25002 0.287054 0)
(4.52421 0.842394 0)
(4.41866 0.279994 0)
(4.79152 0.894125 0)
(4.63814 0.279437 0)
(5.08552 0.950883 0)
(4.83455 0.160986 0)
(5.38256 0.935756 0)
(5.02712 0.0327123 0)
(5.6356 0.941379 0)
(5.25294 -0.0248008 0)
(5.75486 0.954365 0)
(5.50101 -0.0770618 0)
(5.76772 0.908253 0)
(5.61641 -0.243908 0)
(5.74747 0.834272 0)
(5.62937 -0.474699 0)
(5.6939 0.792436 0)
(5.60982 -0.683498 0)
(5.63481 0.8008 0)
(5.58689 -0.854651 0)
(5.59523 0.855771 0)
(5.56986 -1.00462 0)
(5.57842 0.946818 0)
(5.55069 -1.13724 0)
(5.5684 1.085 0)
(5.54987 -1.25526 0)
(5.52264 1.27567 0)
(5.64068 -1.36062 0)
(5.43817 1.4932 0)
(5.81649 -1.45026 0)
(5.37297 1.66914 0)
(6.05237 -1.50278 0)
(5.39955 1.85858 0)
(6.32236 -1.53457 0)
(5.51384 2.22832 0)
(6.58295 -1.47141 0)
(5.5653 2.60202 0)
(6.94246 -1.42514 0)
(5.78473 3.01044 0)
(7.21329 -1.37668 0)
(6.20373 3.41403 0)
(7.44349 -1.34639 0)
(6.9116 3.84665 0)
(7.8219 -0.942094 0)
(7.68233 4.16994 0)
(8.38416 -0.12196 0)
(8.6023 4.09352 0)
(9.23713 1.16571 0)
(9.98943 3.54302 0)
(12.9356 -0.234093 0)
(12.9416 -0.2658 0)
(12.9751 -0.317023 0)
(12.9734 -0.385254 0)
(12.9338 -0.464271 0)
(12.8674 -0.547346 0)
(12.7885 -0.633202 0)
(12.702 -0.718206 0)
(12.6119 -0.806554 0)
(12.5097 -0.894774 0)
(12.3929 -0.98393 0)
(12.2561 -1.0728 0)
(12.0908 -1.15773 0)
(11.8851 -1.23671 0)
(11.6337 -1.30727 0)
(11.3193 -1.35871 0)
(10.9371 -1.38271 0)
(10.4791 -1.37168 0)
(9.96365 -1.32965 0)
(9.41545 -1.26125 0)
(8.8419 -1.16643 0)
(8.29122 -1.06617 0)
(7.77489 -0.980795 0)
(7.29818 -0.88314 0)
(6.87556 -0.756181 0)
(6.45274 -0.628505 0)
(6.01846 -0.521135 0)
(5.64184 -0.405299 0)
(5.26435 -0.31328 0)
(4.94395 -0.238338 0)
(4.6526 -0.191705 0)
(4.41271 -0.155583 0)
(4.17005 -0.12902 0)
(3.96524 -0.0842019 0)
(3.76806 -0.0308034 0)
(3.68686 -0.0515626 0)
(3.6345 -0.189934 0)
(3.61945 -0.298633 0)
(3.50002 -0.366254 0)
(3.6191 -0.30561 0)
(3.39275 -0.242434 0)
(3.64953 -0.0503639 0)
(3.31772 -0.00149959 0)
(3.66421 0.288393 0)
(3.34717 0.259503 0)
(3.72127 0.554737 0)
(3.52779 0.247841 0)
(3.90679 0.723126 0)
(3.66174 0.250822 0)
(4.06605 0.80622 0)
(3.87186 0.251928 0)
(4.26471 0.815376 0)
(4.06979 0.229223 0)
(4.51854 0.825276 0)
(4.2974 0.196216 0)
(4.82999 0.894049 0)
(4.50705 0.0869991 0)
(5.15337 0.897604 0)
(4.69874 -0.0193189 0)
(5.40177 0.90025 0)
(4.94779 -0.058931 0)
(5.54696 0.903662 0)
(5.23032 -0.0913401 0)
(5.60123 0.873343 0)
(5.39158 -0.232057 0)
(5.61903 0.812113 0)
(5.45153 -0.441912 0)
(5.58607 0.773547 0)
(5.46554 -0.64029 0)
(5.5416 0.781879 0)
(5.47102 -0.808468 0)
(5.51637 0.836004 0)
(5.46349 -0.960075 0)
(5.5065 0.928451 0)
(5.44522 -1.09588 0)
(5.50692 1.06678 0)
(5.4296 -1.21414 0)