/*--------------------------------*- C++ -*----------------------------------*\
| =========                 |                                                 |
| \\      /  F ield         | OpenFOAM: The Open Source CFD Toolbox           |
|  \\    /   O peration     | Version:  2.4.0                                 |
|   \\  /    A nd           | Web:      www.OpenFOAM.org                      |
|    \\/     M anipulation  |                                                 |
\*---------------------------------------------------------------------------*/
FoamFile
{
    version     2.0;
    format      ascii;
    class       volScalarField;
    location    "0.062";
    object      p;
}
// * * * * * * * * * * * * * * * * * * * * * * * * * * * * * * * * * * * * * //

dimensions      [0 2 -2 0 0 0 0];

internalField   nonuniform List<scalar> 
17600
(
29.2303
28.4675
28.1886
28.0085
27.8177
27.6242
27.4351
27.2496
27.0672
26.888
26.7123
26.5402
26.3719
26.2073
26.0465
25.8893
25.7357
25.5863
25.4405
25.3516
28.6829
28.2808
28.1028
27.9633
27.7936
27.6113
27.4282
27.246
27.0655
26.8874
26.7124
26.5408
26.3729
26.2086
26.0479
25.8909
25.7373
25.588
25.4419
25.3139
28.646
28.3571
28.1567
27.9944
27.8126
27.6231
27.4356
27.2508
27.0688
26.8899
26.7146
26.5429
26.3749
26.2107
26.0501
25.8932
25.7397
25.5903
25.4431
25.3069
28.623
28.3621
28.1498
27.9833
27.8039
27.6172
27.4318
27.2486
27.0677
26.8896
26.7147
26.5433
26.3755
26.2114
26.0509
25.8939
25.7404
25.5908
25.4422
25.3017
28.5906
28.3555
28.146
27.9798
27.8025
27.6171
27.4323
27.2493
27.0685
26.8905
26.7156
26.5442
26.3764
26.2122
26.0517
25.8947
25.7411
25.5913
25.4414
25.2988
28.5575
28.3487
28.1444
27.9776
27.8012
27.6166
27.4321
27.2494
27.0688
26.8909
26.7161
26.5447
26.377
26.2128
26.0523
25.8953
25.7416
25.5915
25.4407
25.2972
28.5281
28.3428
28.1434
27.9758
27.8
27.6162
27.4321
27.2497
27.0692
26.8914
26.7166
26.5453
26.3776
26.2134
26.0529
25.8959
25.7421
25.5918
25.4402
25.2966
28.5023
28.3367
28.1421
27.9739
27.7989
27.6159
27.4322
27.25
27.0696
26.8919
26.7172
26.5459
26.3782
26.2141
26.0535
25.8964
25.7426
25.5921
25.4399
25.2968
28.4793
28.3304
28.1407
27.9721
27.7979
27.6156
27.4323
27.2503
27.0701
26.8925
26.7178
26.5466
26.3788
26.2147
26.0541
25.897
25.7431
25.5925
25.4399
25.2974
28.459
28.3241
28.1393
27.9706
27.7969
27.6154
27.4324
27.2506
27.0706
26.893
26.7184
26.5472
26.3795
26.2153
26.0547
25.8975
25.7435
25.5928
25.4402
25.2984
28.4411
28.3181
28.1378
27.9691
27.796
27.6151
27.4325
27.2509
27.071
26.8935
26.719
26.5478
26.3801
26.2159
26.0552
25.8981
25.744
25.5933
25.4406
25.2997
28.4254
28.3123
28.1364
27.9678
27.7952
27.6149
27.4326
27.2512
27.0714
26.894
26.7195
26.5483
26.3806
26.2164
26.0558
25.8986
25.7445
25.5937
25.4411
25.3011
28.4118
28.3071
28.135
27.9666
27.7945
27.6147
27.4327
27.2514
27.0717
26.8944
26.72
26.5488
26.3811
26.2169
26.0563
25.899
25.7449
25.5941
25.4417
25.3027
28.4001
28.3023
28.1338
27.9656
27.7938
27.6145
27.4327
27.2516
27.0721
26.8948
26.7204
26.5492
26.3815
26.2174
26.0567
25.8994
25.7453
25.5945
25.4423
25.3043
28.3903
28.2981
28.1326
27.9647
27.7933
27.6144
27.4328
27.2518
27.0723
26.8951
26.7207
26.5496
26.3819
26.2177
26.057
25.8998
25.7457
25.5949
25.443
25.3059
28.3823
28.2945
28.1316
27.9639
27.7928
27.6142
27.4328
27.2519
27.0725
26.8954
26.721
26.5499
26.3822
26.218
26.0574
25.9001
25.746
25.5953
25.4437
25.3075
28.3759
28.2916
28.1308
27.9633
27.7924
27.6141
27.4329
27.2521
27.0727
26.8956
26.7213
26.5502
26.3825
26.2183
26.0576
25.9003
25.7462
25.5956
25.4444
25.309
28.3712
28.2894
28.1302
27.9629
27.7921
27.614
27.4329
27.2521
27.0728
26.8957
26.7214
26.5504
26.3827
26.2185
26.0578
25.9005
25.7464
25.5959
25.4451
25.3105
28.3681
28.2879
28.1298
27.9626
27.7919
27.614
27.4329
27.2522
27.0729
26.8958
26.7216
26.5505
26.3828
26.2186
26.0579
25.9007
25.7466
25.5961
25.4458
25.3118
28.3665
28.2872
28.1295
27.9624
27.7919
27.6139
27.4329
27.2522
27.073
26.8959
26.7216
26.5505
26.3829
26.2187
26.058
25.9007
25.7467
25.5963
25.4463
25.313
28.3665
28.2872
28.1295
27.9624
27.7919
27.6139
27.4329
27.2522
27.073
26.8959
26.7216
26.5505
26.3829
26.2187
26.058
25.9007
25.7467
25.5964
25.4469
25.3141
28.3681
28.2879
28.1298
27.9626
27.7919
27.614
27.4329
27.2522
27.0729
26.8958
26.7216
26.5505
26.3828
26.2186
26.0579
25.9007
25.7467
25.5965
25.4473
25.315
28.3712
28.2894
28.1302
27.9629
27.7921
27.614
27.4329
27.2521
27.0728
26.8957
26.7214
26.5504
26.3827
26.2185
26.0578
25.9006
25.7466
25.5965
25.4477
25.3157
28.3759
28.2916
28.1308
27.9633
27.7924
27.6141
27.4329
27.252
27.0727
26.8956
26.7213
26.5502
26.3825
26.2183
26.0576
25.9004
25.7465
25.5964
25.448
25.3162
28.3823
28.2945
28.1316
27.9639
27.7928
27.6142
27.4328
27.2519
27.0725
26.8954
26.721
26.5499
26.3822
26.218
26.0574
25.9002
25.7463
25.5963
25.4482
25.3165
28.3903
28.2981
28.1326
27.9647
27.7933
27.6143
27.4328
27.2518
27.0723
26.8951
26.7207
26.5496
26.3819
26.2177
26.0571
25.8999
25.746
25.5961
25.4483
25.3165
28.4001
28.3023
28.1338
27.9656
27.7938
27.6145
27.4327
27.2516
27.072
26.8948
26.7204
26.5492
26.3815
26.2174
26.0567
25.8995
25.7457
25.5958
25.4483
25.3162
28.4118
28.307
28.135
27.9666
27.7945
27.6147
27.4327
27.2514
27.0717
26.8944
26.72
26.5488
26.3811
26.2169
26.0563
25.8991
25.7453
25.5954
25.4482
25.3156
28.4254
28.3123
28.1364
27.9678
27.7952
27.6149
27.4326
27.2511
27.0714
26.894
26.7195
26.5483
26.3806
26.2164
26.0558
25.8987
25.7449
25.595
25.4479
25.3146
28.4411
28.3181
28.1378
27.9691
27.796
27.6151
27.4325
27.2509
27.071
26.8935
26.719
26.5478
26.38
26.2159
26.0553
25.8982
25.7444
25.5945
25.4476
25.3132
28.459
28.3241
28.1393
27.9705
27.7969
27.6153
27.4324
27.2506
27.0706
26.893
26.7184
26.5472
26.3795
26.2153
26.0547
25.8976
25.7439
25.5939
25.4471
25.3115
28.4793
28.3304
28.1407
27.9721
27.7978
27.6156
27.4323
27.2503
27.0701
26.8924
26.7178
26.5466
26.3788
26.2147
26.0541
25.897
25.7434
25.5933
25.4466
25.3092
28.5023
28.3367
28.1421
27.9739
27.7989
27.6159
27.4322
27.2499
27.0696
26.8919
26.7172
26.5459
26.3782
26.214
26.0535
25.8965
25.7428
25.5927
25.4459
25.3065
28.5281
28.3428
28.1434
27.9757
27.8
27.6162
27.4321
27.2496
27.0692
26.8913
26.7166
26.5453
26.3776
26.2134
26.0529
25.8959
25.7423
25.5921
25.4452
25.3033
28.5574
28.3487
28.1444
27.9776
27.8012
27.6166
27.4321
27.2494
27.0688
26.8908
26.716
26.5447
26.3769
26.2128
26.0523
25.8953
25.7417
25.5914
25.4444
25.2995
28.5906
28.3555
28.146
27.9798
27.8024
27.6171
27.4322
27.2493
27.0685
26.8904
26.7156
26.5442
26.3764
26.2122
26.0517
25.8947
25.7411
25.5908
25.4435
25.2951
28.623
28.3621
28.1498
27.9832
27.8038
27.6172
27.4317
27.2486
27.0677
26.8895
26.7146
26.5432
26.3755
26.2113
26.0508
25.8939
25.7403
25.5899
25.4424
25.2903
28.6459
28.3571
28.1567
27.9943
27.8126
27.6231
27.4356
27.2508
27.0688
26.8899
26.7145
26.5428
26.3749
26.2106
26.0501
25.8931
25.7395
25.589
25.4413
25.286
28.6829
28.2808
28.1028
27.9632
27.7936
27.6113
27.4281
27.246
27.0655
26.8874
26.7124
26.5408
26.3729
26.2085
26.0479
25.8908
25.737
25.5864
25.4385
25.2816
29.2303
28.4675
28.1886
28.0085
27.8176
27.6242
27.4351
27.2496
27.0672
26.888
26.7123
26.5402
26.3719
26.2073
26.0464
25.8892
25.7354
25.5846
25.4367
25.2796
25.0211
25.0776
24.9302
24.8323
24.7802
24.7406
24.7076
24.6795
24.6541
24.6298
24.6052
24.5799
24.5536
24.5264
24.4984
24.4698
24.4409
24.4122
24.3839
24.3564
24.3301
24.3051
24.2819
24.2609
24.2426
24.2271
24.2151
24.2067
24.2026
24.203
24.2083
24.219
24.2355
24.258
24.2871
24.323
24.366
24.4166
24.4749
24.5413
24.6159
24.6989
24.7904
24.8906
24.9996
25.1172
25.2435
25.3786
25.5223
25.6747
25.8357
26.0052
26.1833
26.37
26.5652
26.769
26.9815
27.2026
27.4324
27.671
27.9184
28.1747
28.4401
28.7144
28.9977
29.2902
29.5916
29.9021
30.2215
30.5497
30.8865
31.2318
31.5852
31.9465
32.3153
32.6911
33.0736
33.4621
33.856
34.2548
34.6576
35.0639
35.4727
35.8833
36.2946
36.706
37.1162
37.5244
37.9294
38.3303
38.7258
39.1148
39.4961
39.8685
40.2308
40.5817
40.9199
41.2443
41.5536
41.8469
42.1232
42.3816
42.6215
42.8426
43.0446
43.2275
43.3915
43.5369
43.6643
43.7742
43.8675
43.9449
44.0072
44.0553
44.0902
44.1127
44.1238
44.1243
44.1152
44.0972
44.0712
44.038
43.9985
43.9532
43.9029
43.8481
43.7899
43.7286
43.6645
43.5979
43.5295
43.4595
43.3883
43.3164
43.244
43.1714
43.0989
43.0267
42.9551
42.8842
42.8143
42.7454
42.6778
42.6114
42.5465
42.4831
42.4213
42.361
42.3024
42.2455
42.1903
42.1367
42.0847
42.0344
41.9856
41.9383
41.8924
41.8478
41.8044
41.762
41.7206
41.6799
41.6398
41.6001
41.5604
41.5206
41.4802
41.4391
41.3969
41.353
41.307
41.2584
41.2066
41.1508
41.0904
41.0244
40.9519
40.8716
40.7822
40.6821
40.5697
40.4428
40.2989
40.1352
39.948
39.7331
39.4851
39.1972
38.8602
38.462
37.9861
37.4087
36.6978
35.8045
34.6699
33.1661
31.2243
28.2057
24.5664
9.25091
25.0118
24.947
24.8678
24.8284
24.8145
24.7995
24.7789
24.7545
24.7275
24.6984
24.6681
24.6371
24.606
24.575
24.5444
24.5142
24.4844
24.4552
24.4269
24.3995
24.3734
24.3488
24.326
24.3056
24.2878
24.2729
24.2615
24.2539
24.2506
24.2518
24.2579
24.2695
24.2868
24.3102
24.34
24.3767
24.4206
24.4718
24.5308
24.5977
24.6728
24.7562
24.8481
24.9485
25.0575
25.1752
25.3015
25.4364
25.5799
25.732
25.8927
26.0618
26.2394
26.4256
26.6202
26.8233
27.035
27.2554
27.4843
27.7221
27.9686
28.2239
28.4882
28.7614
29.0436
29.3348
29.635
29.9442
30.2622
30.589
30.9243
31.2681
31.6199
31.9796
32.3467
32.7209
33.1015
33.4883
33.8804
34.2773
34.6784
35.0828
35.4898
35.8986
36.3082
36.7179
37.1266
37.5333
37.937
38.3367
38.7313
39.1196
39.5006
39.8729
40.2354
40.5869
40.9261
41.2518
41.5628
41.858
42.1363
42.3969
42.6391
42.8624
43.0663
43.2509
43.4163
43.5628
43.6908
43.8011
43.8943
43.9713
44.033
44.0802
44.114
44.1352
44.1449
44.1439
44.1332
44.1136
44.0861
44.0513
44.0101
43.9633
43.9115
43.8553
43.7958
43.7331
43.6677
43.6
43.5303
43.4591
43.3869
43.3139
43.2404
43.1668
43.0934
43.0203
42.9478
42.876
42.8052
42.7355
42.667
42.5999
42.5342
42.4699
42.4073
42.3462
42.2867
42.2289
42.1727
42.1182
42.0652
42.0138
41.9639
41.9154
41.8683
41.8223
41.7774
41.7335
41.6904
41.6479
41.6058
41.5638
41.5218
41.4793
41.4362
41.392
41.3463
41.2987
41.2486
41.1955
41.1386
41.0774
41.0109
40.9382
40.8581
40.7695
40.6708
40.5605
40.4365
40.2966
40.138
39.9575
39.7512
39.5143
39.2406
38.9224
38.5492
38.1071
37.5764
36.9296
36.1277
35.1111
33.8013
32.0403
29.6752
26.0011
20.6756
6.9724
25.058
24.9883
24.9321
24.8893
24.8603
24.8335
24.8066
24.7806
24.7554
24.7302
24.7044
24.6775
24.6493
24.6201
24.5901
24.5594
24.5287
24.4984
24.4689
24.4407
24.4141
24.3894
24.3669
24.347
24.3299
24.316
24.3055
24.2989
24.2965
24.2987
24.3059
24.3184
24.3366
24.361
24.3918
24.4293
24.474
24.526
24.5857
24.6532
24.7289
24.8128
24.905
25.0058
25.115
25.2328
25.3592
25.4941
25.6375
25.7894
25.9498
26.1186
26.2959
26.4816
26.6757
26.8783
27.0894
27.3091
27.5373
27.7743
28.0199
28.2744
28.5377
28.8099
29.091
29.3811
29.68
29.9879
30.3045
30.6299
30.9637
31.3059
31.6561
32.0141
32.3794
32.7517
33.1304
33.5152
33.9053
34.3002
34.6991
35.1014
35.5063
35.913
36.3206
36.7281
37.1348
37.5397
37.9417
38.3398
38.7329
39.1201
39.5001
39.8718
40.2341
40.5857
40.9254
41.252
41.5644
41.8612
42.1416
42.4044
42.6489
42.8744
43.0806
43.2673
43.4344
43.5824
43.7115
43.8225
43.916
43.993
44.0544
44.101
44.134
44.1542
44.1627
44.1605
44.1484
44.1274
44.0985
44.0623
44.0197
43.9715
43.9183
43.8609
43.8002
43.7364
43.6698
43.6009
43.5302
43.458
43.3847
43.3107
43.2364
43.1619
43.0876
43.0136
42.9403
42.8677
42.7962
42.7257
42.6564
42.5885
42.522
42.457
42.3935
42.3316
42.2713
42.2126
42.1555
42.1
42.046
41.9936
41.9425
41.8928
41.8443
41.797
41.7506
41.705
41.6602
41.6157
41.5715
41.5273
41.4828
41.4377
41.3916
41.3442
41.2949
41.2434
41.1891
41.1313
41.0693
41.0023
40.9295
40.8498
40.762
40.6647
40.5565
40.4355
40.2995
40.1461
39.9723
39.7745
39.5485
39.2888
38.9887
38.6393
38.2291
37.7419
37.1558
36.4391
35.5464
34.4092
32.9316
30.9362
28.2081
24.0936
17.9189
7.34612
25.0756
24.9947
24.9366
24.8906
24.8576
24.8309
24.8064
24.7828
24.7596
24.736
24.7119
24.6872
24.6619
24.6361
24.6099
24.5834
24.5567
24.5301
24.5038
24.4781
24.4533
24.4298
24.4081
24.3886
24.3718
24.3581
24.348
24.3419
24.3402
24.3432
24.3514
24.3649
24.3842
24.4096
24.4415
24.48
24.5256
24.5786
24.639
24.7073
24.7836
24.8681
24.9608
25.0619
25.1715
25.2895
25.416
25.5509
25.6943
25.8462
26.0064
26.1751
26.3521
26.5375
26.7312
26.9334
27.144
27.3632
27.5908
27.8271
28.072
28.3257
28.5881
28.8594
29.1395
29.4284
29.7262
30.0328
30.3481
30.672
31.0043
31.3449
31.6933
32.0495
32.4129
32.7832
33.1599
33.5425
33.9304
34.323
34.7196
35.1196
35.522
35.9263
36.3314
36.7366
37.1409
37.5435
37.9433
38.3393
38.7306
39.116
39.4946
39.8652
40.2267
40.5779
40.9177
41.2448
41.558
41.8563
42.1384
42.4033
42.6502
42.8782
43.087
43.276
43.4454
43.5953
43.7261
43.8383
43.9327
44.0102
44.0716
44.1181
44.1506
44.1701
44.1778
44.1745
44.1613
44.1392
44.109
44.0715
44.0278
43.9783
43.9239
43.8654
43.8036
43.7387
43.6711
43.6012
43.5295
43.4563
43.3821
43.3073
43.232
43.1567
43.0816
43.0069
42.9328
42.8595
42.7871
42.7159
42.6459
42.5772
42.51
42.4442
42.3799
42.3172
42.256
42.1965
42.1385
42.082
42.027
41.9734
41.9212
41.8702
41.8204
41.7716
41.7237
41.6765
41.6298
41.5834
41.537
41.4905
41.4434
41.3955
41.3464
41.2956
41.2427
41.1872
41.1284
41.0657
40.9984
40.9255
40.8461
40.7592
40.6634
40.5573
40.4392
40.3071
40.1588
39.9915
39.802
39.5865
39.3402
39.0572
38.7299
38.3488
37.9007
37.3681
36.7264
35.9402
34.9589
33.7062
32.0734
29.8727
26.851
22.4591
15.8258
6.64121
25.0916
25.0083
24.9539
24.9116
24.8783
24.8501
24.8239
24.7984
24.7732
24.748
24.7226
24.6969
24.6709
24.6447
24.6185
24.5924
24.5666
24.5415
24.5172
24.494
24.4723
24.4522
24.434
24.418
24.4045
24.3939
24.3864
24.3824
24.3825
24.3869
24.3962
24.4107
24.4309
24.4572
24.4898
24.5291
24.5755
24.6293
24.6905
24.7595
24.8365
24.9216
25.0149
25.1164
25.2264
25.3447
25.4714
25.6066
25.7501
25.9019
26.0622
26.2307
26.4076
26.5928
26.7863
26.9882
27.1985
27.4172
27.6444
27.8801
28.1244
28.3774
28.6391
28.9095
29.1886
29.4766
29.7732
30.0786
30.3926
30.715
31.0458
31.3846
31.7313
32.0856
32.447
32.8152
33.1897
33.57
33.9555
34.3456
34.7397
35.137
35.5368
35.9383
36.3407
36.7431
37.1447
37.5446
37.9417
38.3353
38.7242
39.1075
39.4841
39.853
40.2132
40.5634
40.9026
41.2297
41.5434
41.8426
42.1262
42.393
42.6422
42.8728
43.0843
43.2761
43.4481
43.6005
43.7334
43.8473
43.9432
44.0216
44.0837
44.1304
44.1629
44.1821
44.1893
44.1853
44.1713
44.1482
44.117
44.0786
44.0338
43.9833
43.9278
43.8684
43.8058
43.74
43.6714
43.6006
43.528
43.454
43.379
43.3034
43.2274
43.1513
43.0754
43
42.9252
42.8512
42.7782
42.7063
42.6356
42.5662
42.4982
42.4317
42.3666
42.3031
42.2411
42.1807
42.1218
42.0643
42.0083
41.9536
41.9002
41.8479
41.7968
41.7465
41.697
41.648
41.5994
41.551
41.5024
41.4535
41.4038
41.353
41.3007
41.2465
41.1898
41.1301
41.0668
40.9991
40.9262
40.8472
40.7612
40.6668
40.5628
40.4475
40.3192
40.1758
40.0148
39.8333
39.6278
39.3941
39.127
38.8202
38.4654
38.052
37.5659
36.9879
36.291
35.4368
34.3705
33.0101
31.2379
28.8638
25.6163
21.0539
14.2317
5.70693
25.1036
25.02
24.9671
24.9258
24.8906
24.8601
24.8322
24.8058
24.7801
24.7549
24.7298
24.7045
24.6792
24.6538
24.6285
24.6033
24.5785
24.5543
24.531
24.5088
24.4879
24.4688
24.4518
24.4372
24.4253
24.4165
24.4113
24.4098
24.4125
24.4197
24.4317
24.4489
24.4716
24.5001
24.5346
24.5757
24.6235
24.6784
24.7407
24.8105
24.8882
24.9738
25.0676
25.1696
25.2799
25.3985
25.5254
25.6608
25.8044
25.9564
26.1167
26.2852
26.4621
26.6472
26.8406
27.0423
27.2523
27.4708
27.6976
27.9329
28.1767
28.4291
28.6901
28.9598
29.2381
29.5251
29.8207
30.1249
30.4375
30.7585
31.0877
31.4249
31.7698
32.1222
32.4815
32.8475
33.2197
33.5975
33.9805
34.3679
34.7592
35.1536
35.5505
35.949
36.3484
36.7477
37.1463
37.5431
37.9372
38.3278
38.7139
39.0945
39.4687
39.8355
40.1937
40.5424
40.8806
41.207
41.5206
41.8203
42.1049
42.3734
42.6246
42.8578
43.072
43.2669
43.442
43.5972
43.7328
43.8492
43.947
44.0271
44.0904
44.138
44.1709
44.1903
44.1974
44.1931
44.1786
44.1549
44.123
44.0838
44.0381
43.9868
43.9305
43.8704
43.807
43.7404
43.6711
43.5995
43.5261
43.4513
43.3756
43.2992
43.2226
43.1458
43.0693
42.9932
42.9178
42.8431
42.7695
42.6969
42.6255
42.5554
42.4867
42.4195
42.3537
42.2894
42.2266
42.1652
42.1054
42.0469
41.9898
41.934
41.8794
41.8258
41.7733
41.7215
41.6703
41.6196
41.5691
41.5185
41.4677
41.4162
41.3638
41.31
41.2545
41.1967
41.1362
41.0722
41.0042
40.9313
40.8528
40.7676
40.6746
40.5726
40.4601
40.3355
40.1968
40.0417
39.8678
39.6717
39.4498
39.1976
38.9095
38.5785
38.1958
37.75
37.2259
36.6027
35.8517
34.9321
33.7856
32.3268
30.4329
27.9183
24.5081
19.8581
13.0615
5.0941
25.1135
25.0312
24.9799
24.9397
24.9039
24.8723
24.8436
24.8165
24.7905
24.7649
24.7395
24.7143
24.6891
24.664
24.6391
24.6146
24.5906
24.5673
24.5451
24.524
24.5046
24.4869
24.4713
24.4581
24.4477
24.4404
24.4366
24.4365
24.4405
24.4491
24.4625
24.4812
24.5054
24.5355
24.5718
24.6146
24.6643
24.721
24.7849
24.8564
24.9355
25.0224
25.1173
25.2203
25.3313
25.4505
25.578
25.7137
25.8576
26.0098
26.1702
26.3388
26.5157
26.7008
26.8941
27.0957
27.3056
27.5238
27.7504
27.9854
28.2288
28.4808
28.7412
29.0102
29.2877
29.5738
29.8684
30.1715
30.4829
30.8025
31.1302
31.4657
31.8087
32.1591
32.5163
32.88
33.2497
33.625
34.0053
34.3899
34.7782
35.1696
35.5633
35.9586
36.3546
36.7506
37.1458
37.5392
37.93
38.3173
38.7002
39.0777
39.4489
39.8129
40.1688
40.5154
40.8518
41.177
41.4899
41.7895
42.0746
42.3442
42.5972
42.8327
43.0497
43.2477
43.4261
43.5847
43.7236
43.843
43.9435
44.0259
44.0911
44.1401
44.1741
44.1942
44.2017
44.1975
44.1829
44.159
44.1267
44.087
44.0408
43.9888
43.9319
43.8713
43.8073
43.7401
43.67
43.5978
43.5237
43.4483
43.372
43.295
43.2177
43.1403
43.0632
42.9865
42.9105
42.8352
42.7609
42.6877
42.6157
42.545
42.4756
42.4076
42.3411
42.276
42.2124
42.1501
42.0893
42.0299
41.9717
41.9147
41.8589
41.804
41.75
41.6966
41.6438
41.5912
41.5387
41.486
41.4328
41.3788
41.3236
41.2668
41.2079
41.1465
41.0819
41.0136
40.9407
40.8626
40.7782
40.6866
40.5865
40.4767
40.3556
40.2214
40.0721
39.9052
39.718
39.5072
39.2686
38.9976
38.6881
38.3328
37.9222
37.444
36.8821
36.2146
35.4112
34.4293
33.2084
31.6616
29.6649
27.0414
23.5256
18.8563
12.2223
4.78973
25.1221
25.0417
24.9918
24.9524
24.9161
24.8835
24.8539
24.8261
24.7995
24.7736
24.7481
24.7229
24.698
24.6734
24.6491
24.6253
24.6022
24.5799
24.5588
24.5389
24.5207
24.5044
24.4902
24.4785
24.4697
24.4639
24.4617
24.4633
24.469
24.4792
24.4943
24.5145
24.5402
24.5718
24.6094
24.6535
24.7043
24.7621
24.8271
24.8995
24.9796
25.0675
25.1633
25.2671
25.3789
25.499
25.6272
25.7635
25.9081
26.0608
26.2217
26.3907
26.5679
26.7533
26.9468
27.1485
27.3584
27.5766
27.8031
28.0379
28.281
28.5326
28.7925
29.0609
29.3378
29.6231
29.9167
30.2187
30.5289
30.8471
31.1733
31.5071
31.8483
32.1966
32.5516
32.913
33.2802
33.6529
34.0303
34.4119
34.7972
35.1853
35.5757
35.9675
36.3601
36.7525
37.144
37.5337
37.9208
38.3044
38.6837
39.0577
39.4256
39.7864
40.1392
40.4831
40.8172
41.1405
41.4521
41.7508
42.0358
42.3059
42.5601
42.7975
43.0171
43.2181
43.4
43.5622
43.7048
43.8278
43.9316
44.017
44.0848
44.136
44.1718
44.1932
44.2016
44.1981
44.1839
44.1601
44.1278
44.0879
44.0415
43.9891
43.932
43.8711
43.8067
43.7389
43.6684
43.5956
43.521
43.445
43.3681
43.2906
43.2128
43.1349
43.0572
42.98
42.9034
42.8276
42.7527
42.679
42.6063
42.535
42.4649
42.3962
42.3289
42.2631
42.1986
42.1355
42.0737
42.0132
41.954
41.8958
41.8387
41.7825
41.727
41.672
41.6175
41.563
41.5085
41.4536
41.398
41.3413
41.2833
41.2233
41.161
41.0959
41.0272
40.9544
40.8766
40.7931
40.7027
40.6046
40.4973
40.3795
40.2496
40.1056
39.9455
39.7666
39.566
39.3401
39.0848
38.7948
38.4638
38.0841
37.6455
37.1352
36.5362
35.8256
34.9719
33.9315
32.6428
31.0191
28.9384
26.2356
22.6636
18.0296
11.6338
4.70284
25.1298
25.0515
25.0029
24.9641
24.9277
24.8944
24.8641
24.8358
24.8088
24.7826
24.7571
24.732
24.7073
24.6831
24.6593
24.6362
24.6139
24.5925
24.5724
24.5536
24.5366
24.5215
24.5087
24.4984
24.491
24.4868
24.4861
24.4893
24.4966
24.5084
24.5251
24.5469
24.5742
24.6073
24.6465
24.6921
24.7443
24.8034
24.8697
24.9433
25.0244
25.1132
25.2099
25.3144
25.4269
25.5475
25.6762
25.813
25.958
26.1111
26.2723
26.4416
26.6191
26.8048
26.9986
27.2005
27.4106
27.6289
27.8554
28.0902
28.3333
28.5846
28.8443
29.1123
29.3886
29.6732
29.966
30.267
30.576
30.8929
31.2176
31.5497
31.8891
32.2354
32.5882
32.9472
33.3119
33.6818
34.0563
34.4349
34.8169
35.2017
35.5886
35.9768
36.3656
36.7542
37.1418
37.5276
37.9108
38.2904
38.6658
39.0359
39.3999
39.7571
40.1064
40.4471
40.7782
41.099
41.4084
41.7055
41.9895
42.2593
42.5141
42.7527
42.9744
43.1782
43.3633
43.5293
43.6759
43.8029
43.9107
43.9998
44.0709
44.125
44.1633
44.1868
44.1968
44.1945
44.1813
44.1581
44.1262
44.0865
44.0401
43.9877
43.9306
43.8697
43.805
43.7369
43.666
43.5928
43.5178
43.4415
43.3641
43.2862
43.2079
43.1295
43.0514
42.9737
42.8966
42.8203
42.7449
42.6706
42.5974
42.5254
42.4547
42.3853
42.3173
42.2506
42.1853
42.1213
42.0586
41.9971
41.9367
41.8774
41.819
41.7614
41.7044
41.6478
41.5914
41.5351
41.4785
41.4213
41.3632
41.3039
41.2429
41.1798
41.114
41.045
40.9722
40.8948
40.812
40.7229
40.6265
40.5217
40.4071
40.2812
40.1423
39.9885
39.8174
39.6263
39.4121
39.1711
38.8988
38.5898
38.2373
37.8332
37.3669
36.825
36.1898
35.4375
34.5362
33.4415
32.092
30.4027
28.2562
25.5009
21.9135
17.3567
11.2396
4.77727
25.1369
25.0607
25.0132
24.975
24.9386
24.9048
24.874
24.8452
24.8179
24.7915
24.7659
24.7409
24.7165
24.6926
24.6694
24.6469
24.6253
24.6049
24.5857
24.568
24.5521
24.5383
24.5268
24.5179
24.5119
24.5091
24.5099
24.5145
24.5233
24.5367
24.5549
24.5782
24.607
24.6416
24.6823
24.7293
24.7829
24.8433
24.9109
24.9857
25.068
25.1579
25.2555
25.361
25.4744
25.5958
25.7253
25.8627
26.0083
26.1619
26.3236
26.4934
26.6712
26.8572
27.0512
27.2534
27.4637
27.6821
27.9087
28.1435
28.3865
28.6377
28.8971
29.1648
29.4406
29.7246
30.0167
30.3168
30.6248
30.9405
31.2638
31.5943
31.9319
32.2762
32.6269
32.9835
33.3457
33.7128
34.0844
34.4599
34.8386
35.22
35.6032
35.9877
36.3727
36.7573
37.1409
37.5225
37.9015
38.277
38.6481
39.014
39.3739
39.7269
40.0723
40.4092
40.7368
41.0543
41.3608
41.6556
41.9377
42.2063
42.4606
42.6997
42.9226
43.1285
43.3165
43.486
43.6366
43.7679
43.8801
43.9735
44.0486
44.1064
44.1479
44.1742
44.1865
44.1862
44.1744
44.1524
44.1214
44.0824
44.0364
43.9844
43.9278
43.867
43.8022
43.734
43.6629
43.5895
43.5143
43.4376
43.36
43.2817
43.203
43.1243
43.0458
42.9677
42.8901
42.8134
42.7375
42.6626
42.5889
42.5163
42.445
42.3749
42.3062
42.2388
42.1726
42.1077
42.044
41.9815
41.92
41.8595
41.7997
41.7407
41.6822
41.6239
41.5658
41.5075
41.4488
41.3893
41.3287
41.2666
41.2026
41.1363
41.0669
40.994
40.9169
40.8349
40.747
40.6523
40.5498
40.4382
40.3161
40.182
40.0341
39.8702
39.688
39.4847
39.2569
39.0006
38.7113
38.3832
38.0094
37.5811
37.0875
36.5147
35.8443
35.0523
34.1062
32.9619
31.5588
29.8151
27.6196
24.8357
21.2658
16.817
10.9984
4.97358
25.1434
25.0694
25.0229
24.9852
24.9489
24.9148
24.8836
24.8544
24.8268
24.8003
24.7746
24.7497
24.7255
24.7021
24.6793
24.6575
24.6367
24.617
24.5988
24.5821
24.5674
24.5547
24.5444
24.5368
24.5321
24.5307
24.5329
24.539
24.5493
24.5641
24.5838
24.6086
24.6388
24.6748
24.7168
24.7652
24.8201
24.8818
24.9506
25.0265
25.1099
25.2009
25.2995
25.4059
25.5202
25.6424
25.7726
25.9108
26.0571
26.2113
26.3737
26.544
26.7224
26.9089
27.1034
27.306
27.5167
27.7354
27.9623
28.1973
28.4404
28.6916
28.9509
29.2183
29.4938
29.7774
30.0688
30.3682
30.6752
30.9898
31.3117
31.6408
31.9767
32.3191
32.6677
33.022
33.3817
33.7461
34.1148
34.4872
34.8627
35.2406
35.6203
36.001
36.382
36.7627
37.1421
37.5195
37.8942
38.2653
38.632
38.9935
39.3491
39.6978
40.0389
40.3717
40.6953
41.009
41.312
41.6035
41.8829
42.1493
42.4021
42.6404
42.8635
43.0705
43.2606
43.4331
43.5873
43.7229
43.8396
43.9377
44.0174
44.0796
44.1251
44.1549
44.1704
44.1726
44.163
44.1428
44.1133
44.0754
44.0303
43.9792
43.9233
43.8629
43.7983
43.7302
43.6591
43.5857
43.5103
43.4335
43.3557
43.2772
43.1983
43.1193
43.0404
42.962
42.8841
42.8069
42.7306
42.6552
42.5809
42.5078
42.4359
42.3652
42.2957
42.2275
42.1605
42.0947
42.0301
41.9665
41.9039
41.8421
41.7811
41.7206
41.6605
41.6006
41.5406
41.4803
41.4194
41.3576
41.2944
41.2296
41.1626
41.0929
41.0199
40.9431
40.8617
40.7749
40.6818
40.5814
40.4727
40.3542
40.2247
40.0823
39.9252
39.7513
39.5579
39.3422
39.1007
38.8293
38.523
38.1759
37.7808
37.3288
36.8084
36.2055
35.5014
34.6718
33.6841
32.4949
31.0456
29.258
27.029
24.2369
20.7104
16.3912
10.8775
5.25875
25.1495
25.0775
25.032
24.9948
24.9586
24.9243
24.8928
24.8634
24.8355
24.8089
24.7832
24.7585
24.7345
24.7114
24.6892
24.6679
24.6478
24.629
24.6116
24.5959
24.5822
24.5707
24.5616
24.5552
24.5518
24.5518
24.5553
24.5628
24.5745
24.5907
24.6117
24.6379
24.6695
24.7069
24.7503
24.7999
24.8561
24.919
24.9889
25.066
25.1504
25.2423
25.3419
25.4492
25.5643
25.6873
25.8182
25.9571
26.104
26.2589
26.4218
26.5928
26.7717
26.9587
27.1537
27.3568
27.5679
27.787
28.0142
28.2495
28.4928
28.7441
29.0035
29.2708
29.5462
29.8294
30.1204
30.4191
30.7254
31.039
31.3598
31.6875
32.0219
32.3626
32.7093
33.0614
33.4187
33.7806
34.1465
34.5159
34.8882
35.2628
35.639
36.016
36.3932
36.7699
37.1453
37.5185
37.8889
38.2557
38.618
38.9752
39.3263
39.6706
40.0074
40.3359
40.6553
40.9649
41.264
41.5519
41.8279
42.0914
42.3416
42.578
42.7999
43.0067
43.1976
43.372
43.5291
43.6684
43.7896
43.8924
43.9771
44.0441
44.0943
44.1284
44.1477
44.1534
44.1467
44.1289
44.1013
44.0651
44.0215
43.9719
43.917
43.8573
43.7932
43.7254
43.6546
43.5812
43.506
43.4292
43.3513
43.2727
43.1936
43.1144
43.0354
42.9566
42.8784
42.8009
42.7241
42.6484
42.5736
42.4999
42.4274
42.3561
42.2859
42.2169
42.1491
42.0824
42.0168
41.9522
41.8884
41.8254
41.763
41.7011
41.6394
41.5778
41.5159
41.4536
41.3905
41.3263
41.2606
41.1929
41.1228
41.0498
40.9732
40.8923
40.8065
40.715
40.6166
40.5106
40.3955
40.2702
40.133
39.9823
39.816
39.6319
39.4274
39.1993
38.9441
38.6575
38.3343
37.9685
37.5525
37.0771
36.5307
35.8988
35.1625
34.2975
33.2716
32.0426
30.5539
28.7327
26.4839
23.7008
20.2375
16.0622
10.8506
5.6059
25.1553
25.0851
25.0406
25.0038
24.9678
24.9335
24.9017
24.8721
24.8441
24.8173
24.7917
24.767
24.7433
24.7206
24.6988
24.6781
24.6587
24.6406
24.6241
24.6094
24.5967
24.5862
24.5783
24.5731
24.571
24.5722
24.577
24.5858
24.5988
24.6164
24.6388
24.6663
24.6992
24.7379
24.7825
24.8334
24.8908
24.9549
25.0259
25.104
25.1895
25.2823
25.3828
25.4909
25.6068
25.7306
25.8622
26.0018
26.1493
26.3048
26.4683
26.6397
26.8192
27.0067
27.2021
27.4056
27.6171
27.8366
28.0641
28.2996
28.5431
28.7946
29.054
29.3213
29.5964
29.8794
30.17
30.4681
30.7737
31.0865
31.4062
31.7327
32.0657
32.4048
32.7496
33.0997
33.4548
33.8142
34.1775
34.5441
34.9135
35.2848
35.6576
36.0312
36.4047
36.7776
37.149
37.5183
37.8845
38.2471
38.6052
38.958
39.3049
39.6449
39.9775
40.3017
40.617
40.9226
41.2178
41.502
41.7745
42.0346
42.2819
42.5156
42.7354
42.9407
43.1309
43.3056
43.4642
43.6061
43.7309
43.8382
43.9279
44
44.0553
44.0943
44.1182
44.128
44.1249
44.1102
44.0853
44.0515
44.0102
43.9624
43.9088
43.85
43.7867
43.7195
43.6492
43.5762
43.5012
43.4246
43.3468
43.2682
43.1891
43.1099
43.0306
42.9517
42.8732
42.7954
42.7183
42.6421
42.5669
42.4927
42.4196
42.3477
42.2768
42.2071
42.1385
42.0709
42.0043
41.9386
41.8736
41.8094
41.7456
41.6822
41.6189
41.5556
41.4919
41.4275
41.3622
41.2956
41.2272
41.1567
41.0835
41.007
40.9267
40.8419
40.7517
40.6553
40.5517
40.4398
40.3184
40.1862
40.0414
39.8823
39.7068
39.5126
39.2969
39.0565
38.7876
38.4859
38.1461
37.7617
37.3252
36.827
36.2554
35.5957
34.8289
33.931
32.8705
31.6064
30.0853
28.2395
25.9831
23.2232
19.8376
15.8148
10.8965
5.99438
25.1608
25.0923
25.0486
25.0123
24.9764
24.9421
24.9103
24.8805
24.8524
24.8256
24.8
24.7755
24.752
24.7296
24.7083
24.6882
24.6694
24.652
24.6364
24.6225
24.6108
24.6014
24.5945
24.5905
24.5895
24.5919
24.598
24.6081
24.6224
24.6412
24.6649
24.6937
24.7279
24.7678
24.8137
24.8658
24.9243
24.9895
25.0616
25.1408
25.2272
25.321
25.4223
25.5312
25.6479
25.7724
25.9047
26.0449
26.193
26.3491
26.5131
26.6851
26.865
27.053
27.2489
27.4527
27.6646
27.8844
28.1122
28.3479
28.5916
28.8431
29.1025
29.3698
29.6448
29.9274
30.2176
30.5152
30.82
31.132
31.4507
31.776
32.1076
32.4451
32.7882
33.1364
33.4893
33.8464
34.2072
34.5711
34.9375
35.3059
35.6754
36.0456
36.4156
36.7848
37.1525
37.5179
37.8802
38.2387
38.5927
38.9415
39.2842
39.6201
39.9485
40.2688
40.5801
40.8818
41.1732
41.4538
41.7228
41.9797
42.2239
42.4549
42.6722
42.8754
43.0641
43.2378
43.3963
43.5392
43.6661
43.7767
43.8706
43.9478
44.0083
44.0526
44.0816
44.0961
44.0973
44.0865
44.065
44.0344
43.9958
43.9502
43.8983
43.8409
43.7787
43.7125
43.6429
43.5706
43.4961
43.4198
43.3423
43.2638
43.1848
43.1056
43.0263
42.9472
42.8686
42.7905
42.7131
42.6365
42.5609
42.4862
42.4126
42.34
42.2685
42.198
42.1286
42.0601
41.9925
41.9257
41.8596
41.7941
41.729
41.6641
41.5992
41.5341
41.4685
41.4021
41.3345
41.2654
41.1944
41.121
41.0447
40.9648
40.8808
40.7919
40.6972
40.596
40.4871
40.3694
40.2417
40.1025
39.9501
39.7826
39.5979
39.3936
39.1668
38.9141
38.6318
38.3152
37.9588
37.5563
37.0998
36.5795
35.9837
35.2974
34.502
33.5738
32.482
31.1877
29.6407
27.7787
25.5249
22.7996
19.5022
15.6357
10.9982
6.40844
25.1659
25.099
25.0562
25.0203
24.9847
24.9504
24.9185
24.8887
24.8605
24.8336
24.8081
24.7837
24.7605
24.7384
24.7175
24.6979
24.6798
24.6631
24.6483
24.6353
24.6245
24.616
24.6102
24.6073
24.6075
24.6111
24.6183
24.6296
24.6451
24.6652
24.6901
24.7202
24.7556
24.7967
24.8438
24.897
24.9566
25.0229
25.096
25.1762
25.2635
25.3582
25.4604
25.5701
25.6875
25.8127
25.9457
26.0865
26.2352
26.3918
26.5564
26.7289
26.9093
27.0977
27.294
27.4982
27.7104
27.9306
28.1586
28.3945
28.6383
28.89
29.1494
29.4165
29.6913
29.9737
30.2634
30.5605
30.8646
31.1757
31.4934
31.8176
32.1478
32.4838
32.8252
33.1716
33.5224
33.8773
34.2356
34.5969
34.9605
35.3259
35.6924
36.0593
36.4259
36.7916
37.1556
37.5172
37.8757
38.2304
38.5805