/*--------------------------------*- C++ -*----------------------------------*\
| =========                 |                                                 |
| \\      /  F ield         | OpenFOAM: The Open Source CFD Toolbox           |
|  \\    /   O peration     | Version:  2.4.0                                 |
|   \\  /    A nd           | Web:      www.OpenFOAM.org                      |
|    \\/     M anipulation  |                                                 |
\*---------------------------------------------------------------------------*/
FoamFile
{
    version     2.0;
    format      ascii;
    class       volSymmTensorField;
    location    "0.002";
    object      UPrime2Mean;
}
// * * * * * * * * * * * * * * * * * * * * * * * * * * * * * * * * * * * * * //

dimensions      [0 2 -2 0 0 0 0];

internalField   nonuniform List<symmTensor> 
17600
(
(0.413 -0.0428634 0 0.0134614 0 0)
(5.68096 -0.0917878 0 0.00179968 0 0)
(6.68226 -0.0156466 0 5.57959e-05 0 0)
(6.86227 0.00171659 0 3.69847e-05 0 0)
(6.8011 0.00141604 0 1.01595e-05 0 0)
(6.73324 -0.000248086 0 1.22517e-06 0 0)
(6.71811 -0.000300375 0 9.45678e-08 0 0)
(6.72032 -0.000111267 0 3.81674e-09 0 0)
(6.72263 -7.95619e-05 0 1.11038e-09 0 0)
(6.72508 -0.000133955 0 3.96345e-09 0 0)
(6.72956 -0.000248955 0 1.37813e-08 0 0)
(6.73742 -0.000449003 0 4.50529e-08 0 0)
(6.75142 -0.000846322 0 1.56915e-07 0 0)
(6.77605 -0.00154237 0 5.35106e-07 0 0)
(6.82424 -0.00311913 0 2.07769e-06 0 0)
(6.90359 -0.00551832 0 7.37134e-06 0 0)
(7.09088 -0.0135689 0 3.00264e-05 0 0)
(7.38903 -0.00498781 0 0.000548318 0 0)
(7.89603 -0.208188 0 0.0183217 0 0)
(18.2357 1.34443 0 0.322524 0 0)
(0.739063 0.196732 0 0.0778159 0 0)
(0.367071 -0.0553187 0 0.0110724 0 0)
(0.424347 -0.0154269 0 0.000610387 0 0)
(0.48106 -0.00183896 0 3.49185e-05 0 0)
(0.4809 0.00169585 0 2.06732e-05 0 0)
(0.458227 0.000692035 0 2.96747e-06 0 0)
(0.450666 2.04215e-05 0 1.18884e-07 0 0)
(0.450831 -5.04792e-05 0 8.53802e-09 0 0)
(0.451426 -3.31465e-05 0 3.37782e-09 0 0)
(0.451781 -4.87386e-05 0 1.14392e-08 0 0)
(0.452356 -8.85142e-05 0 3.85553e-08 0 0)
(0.45327 -0.000153996 0 1.20003e-07 0 0)
(0.454993 -0.000266424 0 3.716e-07 0 0)
(0.456844 -0.000488193 0 1.23431e-06 0 0)
(0.463955 -0.000764015 0 3.60584e-06 0 0)
(0.458792 -0.00193929 0 1.74416e-05 0 0)
(0.525846 -0.00131971 0 3.55985e-05 0 0)
(0.381592 -0.00627643 0 0.000272779 0 0)
(1.0989 -0.0249755 0 0.0017407 0 0)
(0.778977 -0.122815 0 0.0555711 0 0)
(1.02519 0.251087 0 0.0774498 0 0)
(0.0462555 0.016718 0 0.0132027 0 0)
(0.0657256 0.00591771 0 0.00083654 0 0)
(0.021157 -1.81585e-06 0 4.17364e-05 0 0)
(0.0119298 -0.000453883 0 2.19582e-05 0 0)
(0.0132711 -0.000201909 0 3.85811e-06 0 0)
(0.0140301 -3.38589e-05 0 1.45577e-07 0 0)
(0.0139816 2.61191e-06 0 1.25317e-08 0 0)
(0.0139186 8.69961e-06 0 6.16451e-09 0 0)
(0.0138793 1.6132e-05 0 1.9479e-08 0 0)
(0.0138229 2.89526e-05 0 6.33271e-08 0 0)
(0.0137488 5.03461e-05 0 1.92795e-07 0 0)
(0.0135912 8.35569e-05 0 5.36673e-07 0 0)
(0.0135239 0.000162277 0 2.04598e-06 0 0)
(0.0130782 0.000188624 0 3.32122e-06 0 0)
(0.0138963 0.000890813 0 6.30946e-05 0 0)
(0.0134029 -0.000724395 0 7.51402e-05 0 0)
(0.0113835 0.00570154 0 0.00297609 0 0)
(0.0541851 -0.00911435 0 0.0167751 0 0)
(0.620668 -0.254721 0 0.354254 0 0)
(1.03266 0.219277 0 0.0577325 0 0)
(0.063244 0.0236744 0 0.0116952 0 0)
(0.111174 0.00914788 0 0.00083452 0 0)
(0.0484098 0.000931221 0 4.82889e-05 0 0)
(0.0294446 -0.000429945 0 1.29257e-05 0 0)
(0.0312572 -0.000236064 0 2.63597e-06 0 0)
(0.0327127 -2.24846e-05 0 1.3445e-07 0 0)
(0.0326041 1.57874e-05 0 1.85322e-08 0 0)
(0.032464 1.77993e-05 0 9.83449e-09 0 0)
(0.0324042 2.84912e-05 0 2.88642e-08 0 0)
(0.0323278 4.96704e-05 0 9.05006e-08 0 0)
(0.032244 8.55159e-05 0 2.7041e-07 0 0)
(0.0320082 0.000136704 0 7.35896e-07 0 0)
(0.0320609 0.000265024 0 2.60243e-06 0 0)
(0.030962 0.000320453 0 5.22419e-06 0 0)
(0.0349552 0.00119412 0 4.54265e-05 0 0)
(0.0225883 -6.73587e-05 0 3.74102e-05 0 0)
(0.075189 0.010616 0 0.0016436 0 0)
(0.00363728 0.00452161 0 0.0221275 0 0)
(0.202691 0.00635003 0 0.121077 0 0)
(1.01827 0.192771 0 0.0451989 0 0)
(0.0557443 0.0213812 0 0.0112197 0 0)
(0.107555 0.00961442 0 0.000935367 0 0)
(0.0482435 0.00131176 0 6.16975e-05 0 0)
(0.0298054 -0.000246921 0 8.55467e-06 0 0)
(0.0318085 -0.000186442 0 1.99344e-06 0 0)
(0.0332741 -1.66692e-05 0 1.38659e-07 0 0)
(0.0331415 1.78019e-05 0 2.17578e-08 0 0)
(0.0329962 2.13715e-05 0 1.3947e-08 0 0)
(0.0329378 3.44434e-05 0 4.07788e-08 0 0)
(0.032864 5.9346e-05 0 1.25039e-07 0 0)
(0.0327824 0.000102313 0 3.71895e-07 0 0)
(0.0325626 0.000159669 0 9.73205e-07 0 0)
(0.032549 0.000328629 0 3.7161e-06 0 0)
(0.0319346 0.000301764 0 5.76324e-06 0 0)
(0.0330597 0.00162665 0 8.21504e-05 0 0)
(0.0347395 -0.000836805 0 3.89066e-05 0 0)
(0.0181059 0.00325977 0 0.00096483 0 0)
(0.137644 0.0527573 0 0.0294411 0 0)
(0.111503 0.149081 0 0.467567 0 0)
(1.00515 0.170526 0 0.0358708 0 0)
(0.0485491 0.0188856 0 0.0106798 0 0)
(0.102367 0.00974761 0 0.00100183 0 0)
(0.0471914 0.0015556 0 7.2919e-05 0 0)
(0.0296226 -9.80921e-05 0 6.40373e-06 0 0)
(0.0318272 -0.000138351 0 1.5155e-06 0 0)
(0.0332984 -8.70472e-06 0 1.41118e-07 0 0)
(0.0331475 2.05286e-05 0 2.62634e-08 0 0)
(0.033 2.49406e-05 0 1.89569e-08 0 0)
(0.0329444 3.99838e-05 0 5.40322e-08 0 0)
(0.0328746 6.82457e-05 0 1.62455e-07 0 0)
(0.0327977 0.000116979 0 4.77375e-07 0 0)
(0.0325918 0.000183888 0 1.24511e-06 0 0)
(0.0325859 0.000361824 0 4.47551e-06 0 0)
(0.0319936 0.000399021 0 7.55392e-06 0 0)
(0.0335678 0.00153027 0 7.28612e-05 0 0)
(0.0311129 -0.000557955 0 4.14443e-05 0 0)
(0.0354231 0.00719831 0 0.00149435 0 0)
(0.0167105 -0.0115877 0 0.0127404 0 0)
(0.0345404 0.0352046 0 0.067393 0 0)
(0.993949 0.150671 0 0.0283359 0 0)
(0.0427991 0.0164866 0 0.00987604 0 0)
(0.0976108 0.00967758 0 0.00103005 0 0)
(0.0461703 0.00172367 0 8.217e-05 0 0)
(0.0294258 2.5162e-05 0 5.6065e-06 0 0)
(0.0318279 -9.44587e-05 0 1.18448e-06 0 0)
(0.0333154 -9.02408e-07 0 1.42279e-07 0 0)
(0.0331514 2.31117e-05 0 3.03364e-08 0 0)
(0.0330026 2.82948e-05 0 2.43847e-08 0 0)
(0.0329501 4.51811e-05 0 6.82947e-08 0 0)
(0.0328848 7.65434e-05 0 2.02076e-07 0 0)
(0.032813 0.000130623 0 5.87709e-07 0 0)
(0.0326248 0.000204631 0 1.5138e-06 0 0)
(0.0326085 0.000397785 0 5.33115e-06 0 0)
(0.0321773 0.000443126 0 8.79777e-06 0 0)
(0.0331798 0.00150933 0 7.18809e-05 0 0)
(0.0332045 2.5691e-05 0 9.3477e-06 0 0)
(0.0260409 0.0012867 0 0.000331809 0 0)
(0.0478483 0.0132057 0 0.00771087 0 0)
(0.0155956 -0.019231 0 0.0905189 0 0)
(0.984434 0.132932 0 0.0222745 0 0)
(0.0382028 0.0142616 0 0.00891247 0 0)
(0.0932761 0.00944599 0 0.00102352 0 0)
(0.045187 0.001829 0 8.86222e-05 0 0)
(0.029221 0.000123358 0 5.55324e-06 0 0)
(0.0318154 -5.59672e-05 0 9.68e-07 0 0)
(0.0333274 6.39471e-06 0 1.41868e-07 0 0)
(0.0331547 2.55504e-05 0 3.39278e-08 0 0)
(0.0330055 3.14963e-05 0 3.02174e-08 0 0)
(0.0329565 5.01142e-05 0 8.3432e-08 0 0)
(0.032896 8.43889e-05 0 2.43517e-07 0 0)
(0.0328298 0.000143219 0 7.00361e-07 0 0)
(0.0326593 0.000224728 0 1.79518e-06 0 0)
(0.0326405 0.000425014 0 6.05036e-06 0 0)
(0.0323132 0.000493079 0 1.01884e-05 0 0)
(0.0330988 0.00148211 0 6.91573e-05 0 0)
(0.0332405 -0.000170471 0 1.7348e-05 0 0)
(0.0268796 0.0027312 0 0.000295749 0 0)
(0.037007 -0.00475591 0 0.00158532 0 0)
(0.00860945 -0.000301869 0 0.00307353 0 0)
(0.976355 0.117016 0 0.0174026 0 0)
(0.0345271 0.0122369 0 0.007858 0 0)
(0.0893559 0.00907279 0 0.00098375 0 0)
(0.0442506 0.001876 0 9.13686e-05 0 0)
(0.0290133 0.000197904 0 5.78847e-06 0 0)
(0.0317926 -2.32369e-05 0 8.2985e-07 0 0)
(0.0333352 1.29958e-05 0 1.3943e-07 0 0)
(0.0331576 2.77858e-05 0 3.69062e-08 0 0)
(0.0330087 3.45019e-05 0 3.62827e-08 0 0)
(0.0329634 5.47661e-05 0 9.91483e-08 0 0)
(0.0329081 9.17912e-05 0 2.86143e-07 0 0)
(0.0328482 0.000154919 0 8.13731e-07 0 0)
(0.0326954 0.000243198 0 2.07445e-06 0 0)
(0.0326759 0.000447844 0 6.68869e-06 0 0)
(0.0324378 0.000538117 0 1.14737e-05 0 0)
(0.0330187 0.00138234 0 6.09814e-05 0 0)
(0.03336 0.000163369 0 8.5976e-06 0 0)
(0.0263395 0.000759444 0 9.03129e-05 0 0)
(0.0356695 0.00245959 0 0.00135732 0 0)
(0.0158643 -0.00888164 0 0.00974113 0 0)
(0.969508 0.102642 0 0.0134825 0 0)
(0.0315881 0.0104192 0 0.00676737 0 0)
(0.0858365 0.00857982 0 0.000914881 0 0)
(0.0433688 0.0018705 0 9.0159e-05 0 0)
(0.0288074 0.000250924 0 6.01186e-06 0 0)
(0.0317625 3.6269e-06 0 7.38556e-07 0 0)
(0.0333395 1.86729e-05 0 1.34601e-07 0 0)
(0.0331601 2.97238e-05 0 3.90873e-08 0 0)
(0.0330123 3.72752e-05 0 4.24041e-08 0 0)
(0.0329708 5.91032e-05 0 1.15065e-07 0 0)
(0.0329211 9.86642e-05 0 3.28765e-07 0 0)
(0.0328678 0.000165609 0 9.24804e-07 0 0)
(0.0327327 0.000260049 0 2.34581e-06 0 0)
(0.032714 0.000466313 0 7.22805e-06 0 0)
(0.0325497 0.000572213 0 1.25144e-05 0 0)
(0.0329523 0.00130715 0 5.47643e-05 0 0)
(0.0333496 0.000168993 0 8.62985e-06 0 0)
(0.0261423 0.000638095 0 4.50555e-05 0 0)
(0.0340539 0.000253922 0 0.000653945 0 0)
(0.0122165 -0.00611373 0 0.00484125 0 0)
(0.963716 0.0895714 0 0.0103264 0 0)
(0.02924 0.00880234 0 0.00568429 0 0)
(0.0827047 0.00798822 0 0.000822747 0 0)
(0.042549 0.00181891 0 8.52463e-05 0 0)
(0.0286077 0.000285154 0 6.06809e-06 0 0)
(0.0317273 2.47498e-05 0 6.69686e-07 0 0)
(0.0333409 2.33267e-05 0 1.27046e-07 0 0)
(0.0331622 3.13333e-05 0 4.04249e-08 0 0)
(0.0330161 3.97834e-05 0 4.83987e-08 0 0)
(0.0329787 6.31001e-05 0 1.30843e-07 0 0)
(0.0329348 0.000105009 0 3.70713e-07 0 0)
(0.0328887 0.00017527 0 1.03117e-06 0 0)
(0.0327707 0.000275051 0 2.60028e-06 0 0)
(0.0327541 0.000480403 0 7.65527e-06 0 0)
(0.0326466 0.00060017 0 1.33558e-05 0 0)
(0.0329043 0.0012122 0 4.75901e-05 0 0)
(0.0332252 0.000271212 0 7.79946e-06 0 0)
(0.026139 5.6695e-05 0 3.07539e-05 0 0)
(0.032233 0.00100857 0 0.000539586 0 0)
(0.0143638 -0.00506789 0 0.00296076 0 0)
(0.958839 0.0775989 0 0.0077874 0 0)
(0.0273669 0.00737329 0 0.00464428 0 0)
(0.0799433 0.00731498 0 0.000713733 0 0)
(0.0417971 0.00172729 0 7.71836e-05 0 0)
(0.028418 0.000301436 0 5.83734e-06 0 0)
(0.0316895 4.02315e-05 0 6.04972e-07 0 0)
(0.0333403 2.68373e-05 0 1.16695e-07 0 0)
(0.0331642 3.25561e-05 0 4.08503e-08 0 0)
(0.0330202 4.20025e-05 0 5.4101e-08 0 0)
(0.0329872 6.67282e-05 0 1.46095e-07 0 0)
(0.0329492 0.000110742 0 4.10753e-07 0 0)
(0.0329105 0.000183838 0 1.1303e-06 0 0)
(0.032809 0.000288127 0 2.83188e-06 0 0)
(0.0327955 0.000490756 0 7.97609e-06 0 0)
(0.0327311 0.000619609 0 1.39259e-05 0 0)
(0.0328616 0.00112516 0 4.13648e-05 0 0)
(0.033058 0.000308768 0 7.64186e-06 0 0)
(0.0261932 -0.000185663 0 2.61374e-05 0 0)
(0.0308313 0.0010538 0 0.000394322 0 0)
(0.0148732 -0.00473831 0 0.00205655 0 0)
(0.954756 0.0665478 0 0.00574985 0 0)
(0.0258773 0.00611392 0 0.00367413 0 0)
(0.0775371 0.00657597 0 0.000594866 0 0)
(0.0411182 0.00160097 0 6.67238e-05 0 0)
(0.0282414 0.000301769 0 5.31138e-06 0 0)
(0.0316511 5.03661e-05 0 5.3384e-07 0 0)
(0.0333381 2.91889e-05 0 1.03729e-07 0 0)
(0.033166 3.33852e-05 0 4.0428e-08 0 0)
(0.0330247 4.3914e-05 0 5.93606e-08 0 0)
(0.032996 6.99674e-05 0 1.60496e-07 0 0)
(0.0329641 0.000115867 0 4.48268e-07 0 0)
(0.0329332 0.000191305 0 1.22024e-06 0 0)
(0.0328475 0.000299177 0 3.03419e-06 0 0)
(0.0328372 0.00049756 0 8.19045e-06 0 0)
(0.0328035 0.000632329 0 1.4257e-05 0 0)
(0.0328244 0.00104081 0 3.57677e-05 0 0)
(0.0328622 0.00034587 0 7.68073e-06 0 0)
(0.026302 -0.000361173 0 2.6965e-05 0 0)
(0.0296821 0.00119607 0 0.000298845 0 0)
(0.0158042 -0.00354806 0 0.00115116 0 0)
(0.951371 0.0562648 0 0.0041235 0 0)
(0.0246991 0.0050042 0 0.00279434 0 0)
(0.0754695 0.00578521 0 0.000473196 0 0)
(0.0405164 0.0014445 0 5.47111e-05 0 0)
(0.028081 0.000289195 0 4.56514e-06 0 0)
(0.031614 5.57225e-05 0 4.53349e-07 0 0)
(0.0333351 3.03862e-05 0 8.8734e-08 0 0)
(0.0331678 3.37989e-05 0 3.92268e-08 0 0)
(0.0330294 4.55035e-05 0 6.40454e-08 0 0)
(0.0330052 7.27967e-05 0 1.737e-07 0 0)
(0.0329795 0.000120323 0 4.82192e-07 0 0)
(0.0329564 0.000197627 0 1.29901e-06 0 0)
(0.0328856 0.000308221 0 3.20388e-06 0 0)
(0.0328789 0.000501239 0 8.30673e-06 0 0)
(0.0328654 0.000638815 0 1.43626e-05 0 0)
(0.0327906 0.000963888 0 3.1008e-05 0 0)
(0.0326589 0.000373323 0 7.87306e-06 0 0)
(0.0264454 -0.000431982 0 2.65647e-05 0 0)
(0.0287693 0.00134966 0 0.00023814 0 0)
(0.0165783 -0.00276682 0 0.000667898 0 0)
(0.948603 0.0466148 0 0.00283776 0 0)
(0.0237759 0.00402277 0 0.00201993 0 0)
(0.0737264 0.00495349 0 0.00035528 0 0)
(0.0399954 0.00126317 0 4.21417e-05 0 0)
(0.0279391 0.000264994 0 3.65862e-06 0 0)
(0.0315794 5.66715e-05 0 3.63873e-07 0 0)
(0.0333317 3.04823e-05 0 7.24753e-08 0 0)
(0.0331698 3.381e-05 0 3.74074e-08 0 0)
(0.0330344 4.67689e-05 0 6.80672e-08 0 0)
(0.0330147 7.52017e-05 0 1.85425e-07 0 0)
(0.0329953 0.000124117 0 5.12055e-07 0 0)
(0.0329803 0.000202815 0 1.36532e-06 0 0)
(0.0329234 0.000315232 0 3.33725e-06 0 0)
(0.0329199 0.000502082 0 8.33259e-06 0 0)
(0.0329179 0.000640161 0 1.42802e-05 0 0)
(0.0327603 0.000894943 0 2.70295e-05 0 0)
(0.0324615 0.000399859 0 8.23978e-06 0 0)
(0.0266117 -0.000429037 0 2.41988e-05 0 0)
(0.0280699 0.00149111 0 0.000198184 0 0)
(0.0173051 -0.00188458 0 0.000342479 0 0)
(0.946389 0.0374775 0 0.00183816 0 0)
(0.0230642 0.00314884 0 0.00136208 0 0)
(0.0722944 0.00409032 0 0.000247156 0 0)
(0.0395575 0.00106126 0 2.99436e-05 0 0)
(0.027818 0.000231195 0 2.69019e-06 0 0)
(0.0315489 5.38506e-05 0 2.70912e-07 0 0)
(0.0333285 2.95641e-05 0 5.6006e-08 0 0)
(0.0331719 3.3428e-05 0 3.51458e-08 0 0)
(0.0330398 4.77042e-05 0 7.1341e-08 0 0)
(0.0330245 7.71728e-05 0 1.95421e-07 0 0)
(0.0330115 0.000127207 0 5.37027e-07 0 0)
(0.0330043 0.000206845 0 1.41785e-06 0 0)
(0.0329604 0.000320299 0 3.43381e-06 0 0)
(0.0329602 0.000500449 0 8.2789e-06 0 0)
(0.0329626 0.000637286 0 1.40458e-05 0 0)
(0.0327337 0.000834934 0 2.37834e-05 0 0)
(0.0322788 0.000428168 0 8.79631e-06 0 0)
(0.0267956 -0.000368093 0 2.02511e-05 0 0)
(0.0275516 0.00164322 0 0.000177648 0 0)
(0.017941 -0.00109945 0 0.000160828 0 0)
(0.944675 0.0287451 0 0.00108315 0 0)
(0.0225306 0.00236134 0 0.000828364 0 0)
(0.0711627 0.00320366 0 0.000154081 0 0)
(0.0392052 0.000843002 0 1.89982e-05 0 0)
(0.0277192 0.000189555 0 1.75985e-06 0 0)
(0.0315234 4.78404e-05 0 1.81524e-07 0 0)
(0.0333259 2.77555e-05 0 4.04697e-08 0 0)
(0.0331743 3.26815e-05 0 3.26572e-08 0 0)
(0.0330454 4.8319e-05 0 7.38399e-08 0 0)
(0.0330346 7.87011e-05 0 2.03479e-07 0 0)
(0.0330278 0.000129602 0 5.56789e-07 0 0)
(0.0330286 0.000209746 0 1.45608e-06 0 0)
(0.0329967 0.000323457 0 3.4926e-06 0 0)
(0.0329992 0.000496623 0 8.15573e-06 0 0)
(0.0330008 0.000631094 0 1.3697e-05 0 0)
(0.0327116 0.000784135 0 2.11889e-05 0 0)
(0.0321175 0.000460049 0 9.55769e-06 0 0)
(0.0269942 -0.000262522 0 1.57375e-05 0 0)
(0.0271853 0.00179934 0 0.000170963 0 0)
(0.0185088 -0.000362955 0 7.42753e-05 0 0)
(0.943424 0.0203181 0 0.000541885 0 0)
(0.0221504 0.00164053 0 0.00042426 0 0)
(0.0703218 0.00230013 0 8.03887e-05 0 0)
(0.0389397 0.00061204 0 1.00531e-05 0 0)
(0.0276442 0.000141816 0 9.60407e-07 0 0)
(0.0315038 3.93097e-05 0 1.03756e-07 0 0)
(0.0333241 2.51964e-05 0 2.70098e-08 0 0)
(0.0331771 3.16065e-05 0 3.01649e-08 0 0)
(0.0330513 4.86123e-05 0 7.55193e-08 0 0)
(0.0330449 7.97887e-05 0 2.0947e-07 0 0)
(0.0330442 0.000131283 0 5.70866e-07 0 0)
(0.0330528 0.000211509 0 1.47939e-06 0 0)
(0.0330321 0.000324829 0 3.51525e-06 0 0)
(0.0330371 0.000490919 0 7.97443e-06 0 0)
(0.0330341 0.000622399 0 1.32678e-05 0 0)
(0.0326948 0.000742481 0 1.91616e-05 0 0)
(0.0319812 0.000496598 0 1.05513e-05 0 0)
(0.027206 -0.00012373 0 1.18385e-05 0 0)
(0.0269502 0.00196299 0 0.000175609 0 0)
(0.0190063 0.000315377 0 5.5175e-05 0 0)
(0.942607 0.0121052 0 0.000192576 0 0)
(0.021906 0.00096631 0 0.000153071 0 0)
(0.0697648 0.00138507 0 2.93759e-05 0 0)
(0.0387623 0.000372361 0 3.72626e-06 0 0)
(0.0275939 8.97462e-05 0 3.72077e-07 0 0)
(0.0314907 2.89457e-05 0 4.49812e-08 0 0)
(0.0333235 2.20532e-05 0 1.66828e-08 0 0)
(0.0331802 3.0235e-05 0 2.78603e-08 0 0)
(0.0330575 4.86101e-05 0 7.64259e-08 0 0)
(0.0330552 8.04185e-05 0 2.13196e-07 0 0)
(0.0330607 0.000132259 0 5.7914e-07 0 0)
(0.033077 0.000212184 0 1.48802e-06 0 0)
(0.0330665 0.00032448 0 3.50274e-06 0 0)
(0.0330736 0.000483585 0 7.74494e-06 0 0)
(0.0330635 0.000611933 0 1.27884e-05 0 0)
(0.0326841 0.000709496 0 1.76134e-05 0 0)
(0.0318727 0.000537857 0 1.1794e-05 0 0)
(0.0274308 3.9367e-05 0 9.55914e-06 0 0)
(0.0268241 0.00213403 0 0.000189332 0 0)
(0.0194539 0.000943673 0 8.41023e-05 0 0)
(0.942205 0.00401815 0 2.12756e-05 0 0)
(0.0217865 0.000320355 0 1.70313e-05 0 0)
(0.0694874 0.000463536 0 3.29607e-06 0 0)
(0.0386737 0.000127329 0 4.32655e-07 0 0)
(0.0275689 3.50964e-05 0 5.15086e-08 0 0)
(0.0314846 1.74511e-05 0 1.09767e-08 0 0)
(0.0333241 1.85061e-05 0 1.03061e-08 0 0)
(0.0331837 2.86281e-05 0 2.59533e-08 0 0)
(0.0330638 4.83116e-05 0 7.6538e-08 0 0)
(0.0330658 8.06147e-05 0 2.14722e-07 0 0)
(0.0330771 0.000132533 0 5.8146e-07 0 0)
(0.0331008 0.000211771 0 1.48194e-06 0 0)
(0.0330999 0.000322552 0 3.4582e-06 0 0)
(0.033109 0.000474881 0 7.47715e-06 0 0)
(0.0330906 0.000600351 0 1.22845e-05 0 0)
(0.0326803 0.000684505 0 1.64659e-05 0 0)
(0.0317929 0.000583728 0 1.33124e-05 0 0)
(0.0276689 0.000219432 0 9.64629e-06 0 0)
(0.0267939 0.00231261 0 0.000210526 0 0)
(0.0198547 0.00152997 0 0.00014817 0 0)
(0.94221 -0.00402667 0 2.12175e-05 0 0)
(0.0217863 -0.000316626 0 1.70368e-05 0 0)
(0.0694865 -0.000460282 0 3.27317e-06 0 0)
(0.0386743 -0.000119578 0 3.9327e-07 0 0)
(0.0275698 -2.04555e-05 0 2.91086e-08 0 0)
(0.0314856 5.53616e-06 0 5.05276e-09 0 0)
(0.0333261 1.47446e-05 0 8.41878e-09 0 0)
(0.0331877 2.68215e-05 0 2.45605e-08 0 0)
(0.0330705 4.77493e-05 0 7.59379e-08 0 0)
(0.0330763 8.03633e-05 0 2.13932e-07 0 0)
(0.0330934 0.000132106 0 5.77861e-07 0 0)
(0.0331245 0.000210332 0 1.46201e-06 0 0)
(0.0331322 0.000319128 0 3.38391e-06 0 0)
(0.0331431 0.00046502 0 7.17977e-06 0 0)
(0.0331162 0.000588127 0 1.17745e-05 0 0)
(0.032684 0.000666632 0 1.56473e-05 0 0)
(0.0317425 0.00063347 0 1.5114e-05 0 0)
(0.0279209 0.000410733 0 1.25579e-05 0 0)
(0.0268452 0.00249829 0 0.000237987 0 0)
(0.0202278 0.00208308 0 0.00023924 0 0)
(0.94262 -0.0121139 0 0.000192407 0 0)
(0.0219056 -0.00096246 0 0.000153075 0 0)
(0.069763 -0.00138179 0 2.93059e-05 0 0)
(0.0387639 -0.000364831 0 3.61333e-06 0 0)
(0.0275963 -7.51995e-05 0 3.06579e-07 0 0)
(0.0314938 -6.10225e-06 0 2.7759e-08 0 0)
(0.0333295 1.09561e-05 0 1.12162e-08 0 0)
(0.033192 2.48872e-05 0 2.38028e-08 0 0)
(0.0330772 4.69253e-05 0 7.46263e-08 0 0)
(0.0330868 7.96988e-05 0 2.11018e-07 0 0)
(0.0331096 0.000131004 0 5.6854e-07 0 0)
(0.0331476 0.000207875 0 1.42869e-06 0 0)
(0.0331635 0.000314353 0 3.28371e-06 0 0)
(0.0331763 0.000454204 0 6.86059e-06 0 0)
(0.0331414 0.000575642 0 1.12715e-05 0 0)
(0.0326958 0.000654982 0 1.50992e-05 0 0)
(0.0317212 0.000686379 0 1.72061e-05 0 0)
(0.0281875 0.00060854 0 1.84878e-05 0 0)
(0.0269709 0.00269048 0 0.000270739 0 0)
(0.0205758 0.00261231 0 0.000352711 0 0)
(0.943447 -0.020327 0 0.000541596 0 0)
(0.0221494 -0.00163672 0 0.000424273 0 0)
(0.0703181 -0.00229712 0 8.02931e-05 0 0)
(0.0389423 -0.000604368 0 9.86519e-06 0 0)
(0.0276483 -0.000127301 0 8.55114e-07 0 0)
(0.0315089 -1.66799e-05 0 7.67797e-08 0 0)
(0.033334 7.33495e-06 0 1.84936e-08 0 0)
(0.0331967 2.28518e-05 0 2.36721e-08 0 0)
(0.0330842 4.58806e-05 0 7.27166e-08 0 0)
(0.0330973 7.85908e-05 0 2.05841e-07 0 0)
(0.0331255 0.000129228 0 5.53726e-07 0 0)
(0.0331703 0.000204475 0 1.38341e-06 0 0)
(0.0331937 0.000308306 0 3.16036e-06 0 0)
(0.0332085 0.000442587 0 6.526e-06 0 0)
(0.0331668 0.000563105 0 1.07826e-05 0 0)
(0.0327159 0.00064858 0 1.47695e-05 0 0)
(0.0317285 0.000741332 0 1.95686e-05 0 0)
(0.0284694 0.000809141 0 2.74096e-05 0 0)
(0.0271625 0.00288809 0 0.000307944 0 0)
(0.0209156 0.00312699 0 0.000486436 0 0)
(0.944706 -0.0287545 0 0.00108278 0 0)
(0.0225292 -0.00235738 0 0.000828346 0 0)
(0.071158 -0.00320074 0 0.000153955 0 0)
(0.0392088 -0.000835345 0 1.87436e-05 0 0)
(0.0277249 -0.000175077 0 1.62013e-06 0 0)
(0.0315305 -2.55813e-05 0 1.47316e-07 0 0)
(0.0333397 4.05253e-06 0 2.9777e-08 0 0)
(0.0332017 2.07958e-05 0 2.41791e-08 0 0)
(0.0330912 4.46137e-05 0 7.02065e-08 0 0)
(0.0331077 7.7098e-05 0 1.98789e-07 0 0)
(0.033141 0.000126814 0 5.33858e-07 0 0)
(0.0331923 0.000200144 0 1.32692e-06 0 0)
(0.0332229 0.000301119 0 3.01774e-06 0 0)
(0.0332401 0.000430294 0 6.18101e-06 0 0)
(0.0331935 0.000550692 0 1.03125e-05 0 0)
(0.0327445 0.000646498 0 1.46153e-05 0 0)
(0.0317633 0.000797358 0 2.2175e-05 0 0)
(0.0287673 0.00100937 0 3.91135e-05 0 0)
(0.0274177 0.00308995 0 0.000348804 0 0)
(0.0212494 0.00363589 0 0.000640306 0 0)
(0.94643 -0.0374872 0 0.00183767 0 0)
(0.0230622 -0.00314499 0 0.00136211 0 0)
(0.0722876 -0.00408777 0 0.000247044 0 0)
(0.0395621 -0.00105364 0 2.9633e-05 0 0)
(0.0278252 -0.000216691 0 2.52264e-06 0 0)
(0.0315578 -3.20304e-05 0 2.32622e-07 0 0)
(0.0333461 1.29289e-06 0 4.41868e-08 0 0)
(0.0332069 1.87408e-05 0 2.51992e-08 0 0)
(0.0330983 4.31642e-05 0 6.72039e-08 0 0)
(0.0331178 7.51935e-05 0 1.89799e-07 0 0)
(0.0331562 0.000123761 0 5.09278e-07 0 0)
(0.0332138 0.000194952 0 1.26087e-06 0 0)
(0.0332511 0.000292862 0 2.85866e-06 0 0)
(0.0332709 0.000417422 0 5.82984e-06 0 0)
(0.0332216 0.000538433 0 9.86109e-06 0 0)
(0.0327817 0.00064778 0 1.45968e-05 0 0)
(0.0318248 0.000853216 0 2.49694e-05 0 0)
(0.0290818 0.00120668 0 5.32566e-05 0 0)
(0.0277329 0.00329443 0 0.000392486 0 0)
(0.0215924 0.00414832 0 0.000815703 0 0)
(0.948654 -0.0466253 0 0.00283723 0 0)
(0.0237733 -0.0040186 0 0.00201984 0 0)
(0.0737185 -0.0049511 0 0.000355169 0 0)
(0.0400011 -0.00125563 0 4.17877e-05 0 0)
(0.0279478 -0.000250532 0 3.47356e-06 0 0)
(0.0315901 -3.54444e-05 0 3.25219e-07 0 0)
(0.033353 -8.06266e-07 0 6.0769e-08 0 0)
(0.0332122 1.67578e-05 0 2.66238e-08 0 0)
(0.0331053 4.1533e-05 0 6.37209e-08 0 0)
(0.0331278 7.29351e-05 0 1.79302e-07 0 0)
(0.0331709 0.000120116 0 4.80638e-07 0 0)
(0.0332344 0.000188919 0 1.18631e-06 0 0)
(0.0332784 0.00028364 0 2.68659e-06 0 0)
(0.0333015 0.000404032 0 5.47537e-06 0 0)
(0.0332518 0.000526354 0 9.42804e-06 0 0)
(0.0328273 0.000651556 0 1.468e-05 0 0)
(0.0319115 0.000907839 0 2.7888e-05 0 0)
(0.0294132 0.00139873 0 6.93815e-05 0 0)
(0.0281096 0.00349962 0 0.000438038 0 0)
(0.0219472 0.00467278 0 0.00101544 0 0)
(0.951434 -0.0562758 0 0.00412286 0 0)
(0.0246955 -0.00499998 0 0.00279419 0 0)
(0.075459 -0.00578357 0 0.000473184 0 0)
(0.0405232 -0.00143718 0 5.43398e-05 0 0)
(0.0280912 -0.000274801 0 4.37537e-06 0 0)
(0.0316261 -3.51975e-05 0 4.18419e-07 0 0)
(0.0333599 -2.12285e-06 0 7.82644e-08 0 0)
(0.0332175 1.48497e-05 0 2.82336e-08 0 0)
(0.0331123 3.97544e-05 0 5.98496e-08 0 0)
(0.0331374 7.02887e-05 0 1.67255e-07 0 0)
(0.0331851 0.000115879 0 4.48406e-07 0 0)
(0.0332545 0.000182113 0 1.10501e-06 0 0)
(0.0333048 0.000273512 0 2.50421e-06 0 0)
(0.0333317 0.000390167 0 5.12004e-06 0 0)
(0.0332842 0.000514363 0 9.00955e-06 0 0)
(0.0328811 0.000656963 0 1.48318e-05 0 0)
(0.0320221 0.00096 0 3.08421e-05 0 0)
(0.0297615 0.00158348 0 8.6955e-05 0 0)
(0.0285482 0.00370306 0 0.000484336 0 0)
(0.0223283 0.00521912 0 0.00124368 0 0)
(0.954828 -0.06656 0 0.00574925 0 0)
(0.0258727 -0.00610927 0 0.00367371 0 0)
(0.0775251 -0.00657475 0 0.000594916 0 0)
(0.0411262 -0.00159378 0 6.63449e-05 0 0)
(0.0282529 -0.000287427 0 5.12977e-06 0 0)
(0.0316648 -3.07317e-05 0 5.06708e-07 0 0)
(0.0333663 -2.55272e-06 0 9.56191e-08 0 0)
(0.0332227 1.30816e-05 0 2.98564e-08 0 0)
(0.0331191 3.78271e-05 0 5.56047e-08 0 0)
(0.0331468 6.73216e-05 0 1.54165e-07 0 0)
(0.0331988 0.0001111 0 4.13356e-07 0 0)
(0.0332737 0.000174554 0 1.01814e-06 0 0)
(0.0333302 0.000262552 0 2.31434e-06 0 0)
(0.0333618 0.000375838 0 4.76533e-06 0 0)
(0.0333192 0.000502397 0 8.60273e-06 0 0)
(0.0329425 0.000663234 0 1.50228e-05 0 0)
(0.0321549 0.00100865 0 3.37399e-05 0 0)
(0.0301266 0.00175889 0 0.000105372 0 0)
(0.0290536 0.00390178 0 0.000530004 0 0)
(0.0227396 0.00579632 0 0.00150585 0 0)
(0.958925 -0.0776118 0 0.00778672 0 0)
(0.0273609 -0.00736865 0 0.00464387 0 0)
(0.0799281 -0.00731398 0 0.000713856 0 0)
(0.0418061 -0.00172009 0 7.68083e-05 0 0)
(0.0284308 -0.000286847 0 5.6716e-06 0 0)
(0.0317043 -2.1557e-05 0 5.88743e-07 0 0)
(0.0333717 -2.04373e-06 0 1.11622e-07 0 0)
(0.0332277 1.14378e-05 0 3.12402e-08 0 0)
(0.0331258 3.57749e-05 0 5.1059e-08 0 0)
(0.0331557 6.40077e-05 0 1.40073e-07 0 0)
(0.0332118 0.000105778 0 3.76007e-07 0 0)
(0.0332923 0.000166299 0 9.27389e-07 0 0)
(0.033355 0.000250814 0 2.11955e-06 0 0)
(0.0333917 0.000361052 0 4.41262e-06 0 0)
(0.0333568 0.000490297 0 8.20247e-06 0 0)
(0.0330111 0.000669624 0 1.52236e-05 0 0)
(0.0323085 0.00105273 0 3.64777e-05 0 0)
(0.0305077 0.00192294 0 0.000123977 0 0)
(0.0296302 0.00409183 0 0.000573335 0 0)
(0.0231968 0.00641599 0 0.00180922 0 0)
(0.963813 -0.0895858 0 0.0103259 0 0)
(0.0292327 -0.00879735 0 0.00568359 0 0)
(0.0826878 -0.00798765 0 0.000822951 0 0)
(0.0425594 -0.00181205 0 8.49211e-05 0 0)
(0.0286217 -0.00027061 0 5.94439e-06 0 0)
(0.0317431 -7.26464e-06 0 6.67093e-07 0 0)
(0.0333754 -5.69141e-07 0 1.25451e-07 0 0)
(0.0332322 9.95186e-06 0 3.21921e-08 0 0)
(0.0331323 3.35949e-05 0 4.62425e-08 0 0)
(0.0331643 6.04e-05 0 1.25425e-07 0 0)
(0.0332243 9.99706e-05 0 3.37225e-07 0 0)
(0.0333099 0.000157367 0 8.34005e-07 0 0)
(0.0333788 0.000238334 0 1.92204e-06 0 0)
(0.0334217 0.00034579 0 4.06279e-06 0 0)
(0.0333971 0.000477956 0 7.80536e-06 0 0)
(0.0330862 0.000675505 0 1.54086e-05 0 0)
(0.0324809 0.00109132 0 3.89568e-05 0 0)
(0.0309035 0.00207349 0 0.000142074 0 0)
(0.0302867 0.00426843 0 0.000612264 0 0)
(0.0237063 0.00708879 0 0.00216249 0 0)
(0.96962 -0.102658 0 0.013482 0 0)
(0.031579 -0.0104139 0 0.00676639 0 0)
(0.0858159 -0.00857994 0 0.000915236 0 0)
(0.0433804 -0.0018638 0 8.98964e-05 0 0)
(0.0288226 -0.0002365 0 5.95481e-06 0 0)
(0.0317788 1.25105e-05 0 7.50641e-07 0 0)
(0.0333767 1.85086e-06 0 1.3634e-07 0 0)
(0.0332363 8.60522e-06 0 3.25272e-08 0 0)
(0.0331385 3.13038e-05 0 4.12321e-08 0 0)
(0.0331723 5.6481e-05 0 1.1036e-07 0 0)
(0.033236 9.36661e-05 0 2.97538e-07 0 0)
(0.0333268 0.00014784 0 7.39903e-07 0 0)
(0.0334019 0.000225171 0 1.7243e-06 0 0)
(0.0334516 0.000329981 0 3.71585e-06 0 0)
(0.0334398 0.000465172 0 7.40604e-06 0 0)
(0.0331671 0.000680274 0 1.55528e-05 0 0)
(0.0326703 0.00112366 0 4.1086e-05 0 0)
(0.0313118 0.00220814 0 0.000158927 0 0)
(0.0310316 0.00442518 0 0.00064427 0 0)
(0.0242875 0.00782971 0 0.00257716 0 0)
(0.976479 -0.117034 0 0.0174024 0 0)
(0.0345163 -0.0122313 0 0.00785669 0 0)
(0.0893334 -0.00907353 0 0.00098422 0 0)
(0.0442638 -0.00186945 0 9.11916e-05 0 0)
(0.0290293 -0.000183334 0 5.81366e-06 0 0)
(0.0318095 3.78492e-05 0 8.5507e-07 0 0)
(0.0333751 5.13789e-06 0 1.43857e-07 0 0)
(0.0332397 7.37993e-06 0 3.20788e-08 0 0)
(0.0331442 2.88813e-05 0 3.60526e-08 0 0)
(0.0331798 5.23121e-05 0 9.53175e-08 0 0)
(0.0332471 8.69056e-05 0 2.57684e-07 0 0)
(0.0333427 0.000137667 0 6.45747e-07 0 0)
(0.0334242 0.000211364 0 1.52864e-06 0 0)
(0.0334816 0.000313657 0 3.37386e-06 0 0)
(0.0334852 0.000451828 0 7.0015e-06 0 0)
(0.0332529 0.000683379 0 1.56329e-05 0 0)
(0.0328745 0.0011492 0 4.27929e-05 0 0)
(0.0317298 0.00232429 0 0.000173782 0 0)
(0.0318785 0.00455377 0 0.000666292 0 0)
(0.0249515 0.00865354 0 0.00306709 0 0)
(0.984572 -0.132952 0 0.0222746 0 0)
(0.03819 -0.0142555 0 0.00891077 0 0)
(0.0932498 -0.0094474 0 0.0010241 0 0)
(0.0452017 -0.00182266 0 8.85664e-05 0 0)
(0.0292379 -0.000108691 0 5.68757e-06 0 0)
(0.0318323 6.88205e-05 0 1.00287e-06 0 0)
(0.0333697 9.19357e-06 0 1.47836e-07 0 0)
(0.0332423 6.25298e-06 0 3.07912e-08 0 0)
(0.0331497 2.63469e-05 0 3.08153e-08 0 0)
(0.0331868 4.78491e-05 0 8.03935e-08 0 0)
(0.0332573 7.97542e-05 0 2.18698e-07 0 0)
(0.0333578 0.000127003 0 5.53884e-07 0 0)
(0.0334458 0.000196867 0 1.33591e-06 0 0)
(0.0335116 0.000296638 0 3.03542e-06 0 0)
(0.0335327 0.000437752 0 6.58895e-06 0 0)
(0.0333429 0.000684457 0 1.56332e-05 0 0)
(0.0330913 0.00116761 0 4.40245e-05 0 0)
(0.0321528 0.00241888 0 0.000185869 0 0)
(0.0328408 0.00464375 0 0.000674947 0 0)
(0.0257266 0.00958001 0 0.00364915 0 0)
(0.994098 -0.150693 0 0.0283365 0 0)
(0.0427844 -0.0164809 0 0.00987453 0 0)
(0.0975827 -0.00967998 0 0.00103076 0 0)
(0.0461869 -0.00171672 0 8.21978e-05 0 0)
(0.0294433 -1.02181e-05 0 5.87821e-06 0 0)
(0.0318446 0.000105361 0 1.22185e-06 0 0)
(0.0333599 1.38427e-05 0 1.48138e-07 0 0)
(0.033244 5.15462e-06 0 2.86033e-08 0 0)
(0.0331546 2.36618e-05 0 2.556e-08 0 0)
(0.0331931 4.3173e-05 0 6.60577e-08 0 0)
(0.0332668 7.21805e-05 0 1.80862e-07 0 0)
(0.0333718 0.000115725 0 4.64585e-07 0 0)
(0.0334664 0.000181768 0 1.1493e-06 0 0)
(0.0335417 0.00027901 0 2.70396e-06 0 0)
(0.0335825 0.000422769 0 6.16475e-06 0 0)
(0.0334361 0.000682921 0 1.55309e-05 0 0)
(0.0333178 0.0011791 0 4.47767e-05 0 0)
(0.0325751 0.00248831 0 0.000194403 0 0)
(0.0339383 0.00468018 0 0.000666119 0 0)
(0.0266345 0.0106313 0 0.00434485 0 0)
(1.00531 -0.170549 0 0.0358719 0 0)
(0.0485323 -0.0188784 0 0.0106771 0 0)
(0.102336 -0.00975172 0 0.00100278 0 0)
(0.04721 -0.00154631 0 7.29366e-05 0 0)
(0.0296405 0.000113474 0 6.84535e-06 0 0)
(0.0318433 0.000146987 0 1.54375e-06 0 0)
(0.033345 1.88849e-05 0 1.4498e-07 0 0)
(0.0332448 4.03224e-06 0 2.56153e-08 0 0)
(0.0331592 2.08141e-05 0 2.04106e-08 0 0)
(0.0331989 3.82277e-05 0 5.24329e-08 0 0)
(0.0332754 6.42353e-05 0 1.45131e-07 0 0)
(0.0333851 0.000103963 0 3.8e-07 0 0)
(0.0334864 0.000165885 0 9.68758e-07 0 0)
(0.0335716 0.000260232 0 2.3744e-06 0 0)
(0.0336339 0.000406246 0 5.71967e-06 0 0)
(0.0335318 0.000677683 0 1.52912e-05 0 0)
(0.0335511 0.00118273 0 4.49891e-05 0 0)
(0.0329879 0.00252718 0 0.000198476 0 0)
(0.0351912 0.00464091 0 0.000635014 0 0)
(0.0277246 0.0118283 0 0.00517223 0 0)
(1.01844 -0.192797 0 0.045201 0 0)
(0.0557251 -0.0213748 0 0.0112174 0 0)
(0.107523 -0.00962007 0 0.000936398 0 0)
(0.0482647 -0.00130252 0 6.19703e-05 0 0)
(0.0298228 0.00026255 0 9.20643e-06 0 0)
(0.0318237 0.000192486 0 1.99624e-06 0 0)
(0.0333225 2.40727e-05 0 1.38538e-07 0 0)
(0.033243 2.91837e-06 0 2.18301e-08 0 0)