/*--------------------------------*- C++ -*----------------------------------*\
| =========                 |                                                 |
| \\      /  F ield         | OpenFOAM: The Open Source CFD Toolbox           |
|  \\    /   O peration     | Version:  2.4.0                                 |
|   \\  /    A nd           | Web:      www.OpenFOAM.org                      |
|    \\/     M anipulation  |                                                 |
\*---------------------------------------------------------------------------*/
FoamFile
{
    version     2.0;
    format      ascii;
    class       volScalarField;
    location    "0.011";
    object      nuSgs;
}
// * * * * * * * * * * * * * * * * * * * * * * * * * * * * * * * * * * * * * //

dimensions      [0 2 -1 0 0 0 0];

internalField   nonuniform List<scalar> 
17600
(
0.00101367
0.000904304
0.000749003
0.000664149
0.000612116
0.000568764
0.000550199
0.00055349
0.000562188
0.000562385
0.000559556
0.000559768
0.000557294
0.000563709
0.00055879
0.00056154
0.000571831
0.000553888
0.00059182
0.000587923
0.000706542
0.000827758
0.000800306
0.000749141
0.000702661
0.000659228
0.000636353
0.000632004
0.000635008
0.000635471
0.00063423
0.000634383
0.000631311
0.000636884
0.00063243
0.000633285
0.000647273
0.000625071
0.000665215
0.00065814
0.000383304
0.000603862
0.000661249
0.000659309
0.00064695
0.000620128
0.000598435
0.000585479
0.000582722
0.000582586
0.000581874
0.00058165
0.000578524
0.00058159
0.000579689
0.000577343
0.0005894
0.000573544
0.000593906
0.000598538
0.000151931
0.000367575
0.000459436
0.000499779
0.000526248
0.000527779
0.000520671
0.00050444
0.000495682
0.000494241
0.000493032
0.000491984
0.000488964
0.000489086
0.000489388
0.000485999
0.000490505
0.000489978
0.000484358
0.000497664
5.38441e-05
0.000180451
0.00027021
0.000314242
0.000366058
0.000401029
0.000403467
0.000396839
0.000384026
0.000381421
0.000378832
0.000374766
0.000373711
0.000369278
0.000370643
0.000369372
0.000364395
0.000373272
0.000357098
0.000377177
1.75693e-05
7.52837e-05
0.000136477
0.000162517
0.000205032
0.000259295
0.000269849
0.00026636
0.000255709
0.000250193
0.000246313
0.00023714
0.000235848
0.000228329
0.000229937
0.000227598
0.000221422
0.000226547
0.000214618
0.000242913
5.63817e-06
3.0381e-05
5.97393e-05
7.17161e-05
9.3172e-05
0.00013979
0.00014881
0.000145764
0.000136338
0.000127373
0.000120214
0.000108491
0.000104647
9.66537e-05
9.65751e-05
9.53265e-05
9.08483e-05
9.16474e-05
8.79345e-05
0.000108394
2.33264e-06
1.28038e-05
2.42633e-05
2.79095e-05
3.66766e-05
6.27856e-05
6.67057e-05
6.40159e-05
5.48884e-05
4.69739e-05
3.97414e-05
3.18406e-05
2.76289e-05
2.30986e-05
2.33146e-05
2.21469e-05
2.04239e-05
2.12636e-05
1.99127e-05
2.58367e-05
1.73728e-06
5.97339e-06
9.73675e-06
1.04187e-05
1.33478e-05
2.42705e-05
2.52624e-05
2.31999e-05
1.76448e-05
1.35932e-05
1.02776e-05
7.08385e-06
5.16548e-06
3.56366e-06
3.50564e-06
3.04243e-06
2.63892e-06
2.94631e-06
2.52946e-06
3.77681e-06
1.64309e-06
3.1411e-06
4.36985e-06
4.48024e-06
5.44642e-06
9.08868e-06
9.22859e-06
8.22898e-06
6.2635e-06
4.94857e-06
3.83374e-06
2.88859e-06
2.15619e-06
1.53867e-06
1.13724e-06
7.90794e-07
5.24807e-07
4.44624e-07
4.41407e-07
1.019e-06
1.60511e-06
2.20121e-06
2.82138e-06
2.92321e-06
3.33148e-06
4.3256e-06
4.37269e-06
4.15388e-06
3.7768e-06
3.39313e-06
3.00021e-06
2.48385e-06
1.9531e-06
1.46165e-06
1.05017e-06
7.25627e-07
4.82156e-07
3.30828e-07
2.89902e-07
1.0836e-06
1.5788e-06
2.00183e-06
2.43772e-06
2.56133e-06
2.73482e-06
3.10629e-06
3.26448e-06
3.24535e-06
3.16134e-06
3.05278e-06
2.84963e-06
2.42228e-06
1.93706e-06
1.45115e-06
1.03152e-06
7.25119e-07
4.89776e-07
3.08794e-07
2.64648e-07
8.04506e-07
1.55763e-06
1.92446e-06
2.28174e-06
2.4043e-06
2.48515e-06
2.71223e-06
2.92067e-06
2.92762e-06
2.90323e-06
2.83893e-06
2.73241e-06
2.42351e-06
1.93049e-06
1.44432e-06
1.03233e-06
7.08935e-07
4.51868e-07
3.0763e-07
2.86753e-07
1.18305e-06
1.54119e-06
1.85776e-06
2.15862e-06
2.27842e-06
2.33092e-06
2.48351e-06
2.69582e-06
2.72879e-06
2.72053e-06
2.68949e-06
2.62615e-06
2.41384e-06
1.93242e-06
1.44844e-06
1.02434e-06
6.99177e-07
4.75035e-07
2.87512e-07
2.2682e-07
6.53593e-07
1.52885e-06
1.80918e-06
2.06406e-06
2.17488e-06
2.21257e-06
2.31136e-06
2.51396e-06
2.58134e-06
2.58778e-06
2.57892e-06
2.54432e-06
2.39727e-06
1.93722e-06
1.44381e-06
1.02345e-06
7.00221e-07
4.54211e-07
2.73993e-07
2.24404e-07
6.35909e-07
1.51971e-06
1.77692e-06
1.99768e-06
2.09188e-06
2.11932e-06
2.18511e-06
2.36001e-06
2.46428e-06
2.50054e-06
2.49993e-06
2.48193e-06
2.36981e-06
1.94164e-06
1.44333e-06
1.01958e-06
6.93488e-07
4.52033e-07
2.86098e-07
2.03819e-07
6.83072e-07
1.5131e-06
1.75597e-06
1.95119e-06
2.02748e-06
2.04705e-06
2.09496e-06
2.24117e-06
2.37189e-06
2.43887e-06
2.4494e-06
2.43819e-06
2.34469e-06
1.9438e-06
1.44176e-06
1.01839e-06
6.92687e-07
4.50883e-07
2.78862e-07
1.94458e-07
3.6479e-07
1.50852e-06
1.74229e-06
1.91932e-06
1.98081e-06
1.99472e-06
2.03148e-06
2.15589e-06
2.30452e-06
2.39551e-06
2.41646e-06
2.40881e-06
2.32641e-06
1.94326e-06
1.44039e-06
1.01725e-06
6.91456e-07
4.49936e-07
2.78772e-07
1.84456e-07
2.61147e-07
1.50565e-06
1.72999e-06
1.90174e-06
1.95288e-06
1.96209e-06
1.99081e-06
2.09951e-06
2.26078e-06
2.3675e-06
2.39656e-06
2.39081e-06
2.31438e-06
1.94247e-06
1.43963e-06
1.01663e-06
6.90167e-07
4.49207e-07
2.7932e-07
1.8546e-07
2.80761e-07
1.50427e-06
1.723e-06
1.89331e-06
1.93976e-06
1.94664e-06
1.97132e-06
2.07157e-06
2.23926e-06
2.35376e-06
2.38711e-06
2.38211e-06
2.30834e-06
1.94194e-06
1.43929e-06
1.01627e-06
6.89425e-07
4.49529e-07
2.79499e-07
1.81767e-07
2.01207e-07
1.50427e-06
1.723e-06
1.89329e-06
1.93977e-06
1.94664e-06
1.97138e-06
2.07128e-06
2.23954e-06
2.35353e-06
2.38713e-06
2.38199e-06
2.30823e-06
1.94174e-06
1.43922e-06
1.0162e-06
6.88896e-07
4.49712e-07
2.78183e-07
1.77502e-07
2.05937e-07
1.50565e-06
1.72998e-06
1.90172e-06
1.9529e-06
1.9621e-06
1.99099e-06
2.09865e-06
2.26167e-06
2.36678e-06
2.39671e-06
2.39039e-06
2.31407e-06
1.94181e-06
1.43943e-06
1.01648e-06
6.88611e-07
4.49626e-07
2.78976e-07
1.80901e-07
2.07663e-07
1.50852e-06
1.74223e-06
1.9193e-06
1.98088e-06
1.99476e-06
2.03184e-06
2.15439e-06
2.30599e-06
2.39428e-06
2.41671e-06
2.40816e-06
2.32584e-06
1.94222e-06
1.44005e-06
1.01696e-06
6.88489e-07
4.50401e-07
2.78568e-07
1.76499e-07
1.7696e-07
1.5131e-06
1.75587e-06
1.95117e-06
2.02758e-06
2.04711e-06
2.0955e-06
2.2391e-06
2.37384e-06
2.43739e-06
2.44942e-06
2.43711e-06
2.34415e-06
1.94183e-06
1.44074e-06
1.01768e-06
6.88724e-07
4.50705e-07
2.7818e-07
1.78289e-07
2.0624e-07
1.51971e-06
1.7768e-06
1.99763e-06
2.09201e-06
2.11934e-06
2.18632e-06
2.35709e-06
2.46662e-06
2.49853e-06
2.50011e-06
2.48073e-06
2.36879e-06
1.93937e-06
1.44112e-06
1.01844e-06
6.89063e-07
4.51277e-07
2.79136e-07
1.77487e-07
1.71192e-07
1.52885e-06
1.809e-06
2.06405e-06
2.17501e-06
2.21265e-06
2.31326e-06
2.50986e-06
2.5837e-06
2.58631e-06
2.57841e-06
2.54218e-06
2.39539e-06
1.93271e-06
1.44075e-06
1.01903e-06
6.89555e-07
4.5196e-07
2.7908e-07
1.76469e-07
1.81769e-07
1.54119e-06
1.8576e-06
2.15855e-06
2.27864e-06
2.33087e-06
2.48541e-06
2.6925e-06
2.73006e-06
2.71902e-06
2.6899e-06
2.62362e-06
2.41235e-06
1.92753e-06
1.43994e-06
1.01943e-06
6.90125e-07
4.52506e-07
2.79693e-07
1.76929e-07
1.73338e-07
1.55763e-06
1.92427e-06
2.28168e-06
2.40454e-06
2.48504e-06
2.71441e-06
2.91663e-06
2.92909e-06
2.90007e-06
2.83868e-06
2.72988e-06
2.41898e-06
1.92495e-06
1.43956e-06
1.02006e-06
6.9093e-07
4.53201e-07
2.80252e-07
1.76598e-07
1.7395e-07
1.57881e-06
2.00188e-06
2.43805e-06
2.56115e-06
2.73459e-06
3.10771e-06
3.2633e-06
3.24542e-06
3.15837e-06
3.05475e-06
2.84278e-06
2.42634e-06
1.9271e-06
1.44075e-06
1.02113e-06
6.91912e-07
4.54081e-07
2.8015e-07
1.84762e-07
2.04402e-07
1.6051e-06
2.20295e-06
2.82248e-06
2.9236e-06
3.33014e-06
4.33023e-06
4.3688e-06
4.16979e-06
3.75354e-06
3.40851e-06
2.98404e-06
2.47873e-06
1.9455e-06
1.4471e-06
1.02635e-06
6.93944e-07
4.61236e-07
3.0935e-07
3.21262e-07
5.54461e-07
1.64289e-06
3.14612e-06
4.37609e-06
4.48302e-06
5.44678e-06
9.09161e-06
9.23382e-06
8.2313e-06
6.2741e-06
4.96727e-06
3.83991e-06
2.91055e-06
2.15855e-06
1.5421e-06
1.17924e-06
7.86626e-07
8.33947e-07
9.85802e-07
1.39108e-06
2.62083e-06
1.73658e-06
5.97996e-06
9.75093e-06
1.04283e-05
1.33502e-05
2.4285e-05
2.52653e-05
2.32352e-05
1.76237e-05
1.37648e-05
1.02595e-05
7.41728e-06
5.3423e-06
3.99494e-06
4.16538e-06
3.89244e-06
4.84485e-06
5.82222e-06
7.58419e-06
1.21791e-05
2.33036e-06
1.28076e-05
2.4285e-05
2.7924e-05
3.66861e-05
6.2797e-05
6.67342e-05
6.4058e-05
5.49481e-05
4.7202e-05
3.97275e-05
3.30556e-05
2.78293e-05
2.48881e-05
2.57212e-05
2.52481e-05
2.7923e-05
3.06109e-05
3.52924e-05
4.71799e-05
5.63345e-06
3.03845e-05
5.97615e-05
7.17295e-05
9.31871e-05
0.000139821
0.000148826
0.000145867
0.0001363
0.00012803
0.000119638
0.000111004
0.000104206
0.000100303
0.000101595
0.000101215
0.000104608
0.000109521
0.000116115
0.000135043
1.75649e-05
7.52873e-05
0.000136496
0.000162526
0.000205052
0.000259313
0.000269894
0.000266427
0.000255921
0.000250595
0.000245972
0.000239853
0.00023557
0.000233034
0.000234577
0.000234651
0.000237299
0.00024356
0.000249015
0.000266201
5.38453e-05
0.000180452
0.000270229
0.000314233
0.000366092
0.000401015
0.000403553
0.000396628
0.000384606
0.000381247
0.000379336
0.000376099
0.000373733
0.000372847
0.000373991
0.0003742
0.00037645
0.000380883
0.000384136
0.000395954
0.000151934
0.000367581
0.000459438
0.00049979
0.000526241
0.000527808
0.00052067
0.000504486
0.000495731
0.000494273
0.000493525
0.000491862
0.000490024
0.000489981
0.000490318
0.000490077
0.00049209
0.000491927
0.000493287
0.000498115
0.000383305
0.000603866
0.000661245
0.000659315
0.000646934
0.000620173
0.000598317
0.000585607
0.000582565
0.000582562
0.00058209
0.000580856
0.000579167
0.00057951
0.000578666
0.0005776
0.000578245
0.000572789
0.000573817
0.000568583
0.000706541
0.000827761
0.000800294
0.00074915
0.000702614
0.000659278
0.00063618
0.000632068
0.000634692
0.000635294
0.000634036
0.000632678
0.000631119
0.000631641
0.000629027
0.000627578
0.0006258
0.00061431
0.000614658
0.000595792
0.00101366
0.000904306
0.000748986
0.000664152
0.000612058
0.000568791
0.000550004
0.000553484
0.000561748
0.000561961
0.000558928
0.000557304
0.000556079
0.000556659
0.000552734
0.000550721
0.00054679
0.000532427
0.000530497
0.000495591
0.000233251
0.000180513
0.000173845
0.000165222
0.000148388
0.000124161
0.000120517
0.000151045
0.000155239
0.000123447
7.16607e-05
4.62613e-05
3.52652e-05
2.73173e-05
2.47279e-05
2.27625e-05
2.03661e-05
2.04208e-05
2.1745e-05
2.17752e-05
2.07424e-05
1.84556e-05
1.55165e-05
1.24557e-05
9.59126e-06
7.17668e-06
5.31071e-06
3.94544e-06
2.97388e-06
2.28204e-06
1.77802e-06
1.40181e-06
1.11473e-06
8.91998e-07
7.17069e-07
5.78591e-07
4.68325e-07
3.80108e-07
3.09241e-07
2.52102e-07
2.05882e-07
1.6839e-07
1.37901e-07
1.13053e-07
9.27649e-08
7.61758e-08
6.25933e-08
5.14598e-08
4.23255e-08
3.48263e-08
2.86656e-08
2.36012e-08
1.94363e-08
1.60102e-08
1.31909e-08
1.08699e-08
8.95885e-09
7.38516e-09
6.08906e-09
5.02116e-09
4.14116e-09
3.41607e-09
2.81854e-09
2.32591e-09
1.91972e-09
1.58489e-09
1.30885e-09
1.08115e-09
8.93303e-10
7.38394e-10
6.10639e-10
5.05198e-10
4.18161e-10
3.4636e-10
2.87122e-10
2.38198e-10
1.97785e-10
1.64432e-10
1.36905e-10
1.14156e-10
9.53497e-11
7.98257e-11
6.70137e-11
5.64212e-11
4.76623e-11
4.04348e-11
3.44734e-11
2.95441e-11
2.5466e-11
2.21028e-11
1.93312e-11
1.70392e-11
1.51421e-11
1.35797e-11
1.22961e-11
1.12356e-11
1.03587e-11
9.63934e-12
9.0512e-12
8.56782e-12
8.16868e-12
7.84147e-12
7.58187e-12
7.37389e-12
7.19772e-12
7.06622e-12
6.97918e-12
6.90212e-12
6.85034e-12
6.84318e-12
6.84954e-12
6.86931e-12
6.91506e-12
6.98814e-12
7.09665e-12
7.23649e-12
7.40739e-12
7.62288e-12
7.90028e-12
8.23374e-12
8.63738e-12
9.12334e-12
9.73827e-12
1.04593e-11
1.13489e-11
1.23928e-11
1.37246e-11
1.52586e-11
1.71828e-11
1.94127e-11
2.22856e-11
2.55159e-11
2.97146e-11
3.43202e-11
4.08148e-11
4.69871e-11
5.72392e-11
6.54987e-11
8.12023e-11
9.34263e-11
1.15512e-10
1.33759e-10
1.66526e-10
1.92972e-10
2.40743e-10
2.79719e-10
3.49648e-10
4.06804e-10
5.08968e-10
5.93356e-10
7.29702e-10
8.94614e-10
1.03933e-09
1.28925e-09
1.56677e-09
1.86469e-09
2.27406e-09
2.75604e-09
3.33053e-09
4.04342e-09
4.89388e-09
5.9537e-09
7.21342e-09
8.7474e-09
1.07147e-08
1.28364e-08
1.60457e-08
1.89104e-08
2.40497e-08
2.83329e-08
3.54479e-08
4.38157e-08
5.16733e-08
6.70222e-08
7.72532e-08
9.92206e-08
1.11582e-07
1.43848e-07
1.61211e-07
2.14665e-07
2.75512e-07
3.43044e-07
6.47041e-07
6.81854e-07
1.51005e-06
1.51615e-06
2.24185e-06
2.52974e-06
3.3943e-06
3.74117e-06
3.68329e-06
4.02787e-06
4.21751e-06
5.08639e-06
6.0331e-06
7.76512e-06
1.12515e-05
1.52781e-05
3.20118e-05
0.000143771
0.000304142
0.000234262
0.000213657
0.000196781
0.000162512
0.000136117
0.000145087
0.000170592
0.000160725
0.000101526
5.84449e-05
3.7533e-05
2.75831e-05
2.0788e-05
1.96778e-05
2.04072e-05
1.96958e-05
1.878e-05
1.96001e-05
2.0818e-05
2.06903e-05
1.87454e-05
1.55327e-05
1.23428e-05
9.51149e-06
7.15525e-06
5.31081e-06
3.94728e-06
2.97212e-06
2.27864e-06
1.77662e-06
1.40256e-06
1.11701e-06
8.94766e-07
7.19826e-07
5.81051e-07
4.70387e-07
3.8177e-07
3.10546e-07
2.53109e-07
2.0665e-07
1.6897e-07
1.38336e-07
1.13377e-07
9.30053e-08
7.63537e-08
6.27245e-08
5.15563e-08
4.23966e-08
3.48787e-08
2.87039e-08
2.36292e-08
1.94568e-08
1.60252e-08
1.32018e-08
1.08778e-08
8.96456e-09
7.38936e-09
6.09209e-09
5.02335e-09
4.1428e-09
3.41735e-09
2.81953e-09
2.32668e-09
1.92037e-09
1.58545e-09
1.30931e-09
1.08152e-09
8.93618e-10
7.38664e-10
6.10845e-10
5.05336e-10
4.18252e-10
3.46417e-10
2.8714e-10
2.38181e-10
1.97752e-10
1.644e-10
1.36875e-10
1.14131e-10
9.53411e-11
7.98397e-11
6.70447e-11
5.64618e-11
4.7709e-11
4.04848e-11
3.45211e-11
2.95836e-11
2.54964e-11
2.21262e-11
1.93497e-11
1.70523e-11
1.51496e-11
1.35846e-11
1.23018e-11
1.1241e-11
1.03586e-11
9.63713e-12
9.05136e-12
8.5664e-12
8.16501e-12
7.84063e-12
7.58501e-12
7.37754e-12
7.20132e-12
7.0711e-12
6.98286e-12
6.90396e-12
6.85124e-12
6.8433e-12
6.84921e-12
6.86943e-12
6.91122e-12
6.97818e-12
7.0954e-12
7.24455e-12
7.40661e-12
7.60792e-12
7.89748e-12
8.2511e-12
8.63886e-12
9.09882e-12
9.72781e-12
1.05037e-11
1.13599e-11
1.23463e-11
1.36853e-11
1.53734e-11
1.7217e-11
1.92921e-11
2.21625e-11
2.5786e-11
2.9761e-11
3.40717e-11
4.05405e-11
4.76784e-11
5.71957e-11
6.52614e-11
8.10721e-11
9.34905e-11
1.15787e-10
1.33669e-10
1.66166e-10
1.92847e-10
2.41345e-10
2.79824e-10
3.49572e-10
4.06488e-10
5.09313e-10
5.93725e-10
7.27334e-10
8.98079e-10
1.03965e-09
1.28579e-09
1.57189e-09
1.85185e-09
2.2848e-09
2.73986e-09
3.34384e-09
4.01269e-09
4.92886e-09
5.90267e-09
7.25151e-09
8.68512e-09
1.07789e-08
1.27345e-08
1.61381e-08
1.89196e-08
2.41063e-08
2.84e-08
3.60299e-08
4.33362e-08
5.22049e-08
6.72705e-08
7.86378e-08
9.71039e-08
1.1495e-07
1.44714e-07
1.5106e-07
2.41241e-07
2.47217e-07
6.02558e-07
6.96339e-07
1.6787e-06
1.65802e-06
2.36489e-06
2.27863e-06
3.09903e-06
3.09319e-06
3.53746e-06
3.88412e-06
4.13059e-06
4.37348e-06
4.91195e-06
5.89539e-06
7.89441e-06
1.09756e-05
1.4801e-05
3.53394e-05
0.000121945
0.000301329
0.000270447
0.000249717
0.000237022
0.000194472
0.000171619
0.000187852
0.00018708
0.000144704
8.67693e-05
5.08566e-05
3.20096e-05
2.28e-05
1.78903e-05
1.6424e-05
1.80145e-05
1.90544e-05
1.85493e-05
1.8275e-05
1.91487e-05
1.97954e-05
1.90597e-05
1.58168e-05
1.23622e-05
9.39495e-06
7.0487e-06
5.25258e-06
3.91976e-06
2.95847e-06
2.27094e-06
1.77258e-06
1.40157e-06
1.11778e-06
8.96556e-07
7.21945e-07
5.83099e-07
4.7218e-07
3.83253e-07
3.11733e-07
2.54038e-07
2.07366e-07
1.69517e-07
1.38749e-07
1.13688e-07
9.32391e-08
7.65281e-08
6.2854e-08
5.16523e-08
4.24675e-08
3.49308e-08
2.87422e-08
2.36575e-08
1.94778e-08
1.60408e-08
1.32134e-08
1.08866e-08
8.97133e-09
7.39448e-09
6.09593e-09
5.02627e-09
4.14504e-09
3.419e-09
2.82068e-09
2.3275e-09
1.92094e-09
1.58579e-09
1.30946e-09
1.08156e-09
8.936e-10
7.38585e-10
6.1072e-10
5.05215e-10
4.1816e-10
3.46343e-10
2.87078e-10
2.38149e-10
1.97758e-10
1.64422e-10
1.36899e-10
1.14159e-10
9.5373e-11
7.98587e-11
6.70417e-11
5.64459e-11
4.76895e-11
4.04594e-11
3.44878e-11
2.9551e-11
2.54724e-11
2.21073e-11
1.93294e-11
1.7034e-11
1.51383e-11
1.35758e-11
1.229e-11
1.12271e-11
1.03505e-11
9.63448e-12
9.04492e-12
8.55929e-12
8.16435e-12
7.83922e-12
7.57684e-12
7.36781e-12
7.19328e-12
7.06179e-12
6.97115e-12
6.89372e-12
6.84326e-12
6.8355e-12
6.84134e-12
6.86072e-12
6.90489e-12
6.98153e-12
7.08939e-12
7.22774e-12
7.39907e-12
7.61676e-12
7.89225e-12
8.22764e-12
8.62617e-12
9.11985e-12
9.72464e-12
1.04676e-11
1.13267e-11
1.23958e-11
1.36895e-11
1.53132e-11
1.71283e-11
1.94209e-11
2.21906e-11
2.57194e-11
2.95407e-11
3.44485e-11
4.03917e-11
4.78845e-11
5.62307e-11
6.61913e-11
8.01544e-11
9.37644e-11
1.15466e-10
1.32955e-10
1.66519e-10
1.93118e-10
2.40445e-10
2.79071e-10
3.49234e-10
4.06093e-10
5.08687e-10
5.93568e-10
7.22461e-10
8.93161e-10
1.03965e-09
1.2884e-09
1.55288e-09
1.87172e-09
2.27133e-09
2.74481e-09
3.33713e-09
4.01207e-09
4.93865e-09
5.84665e-09
7.33128e-09
8.58044e-09
1.08779e-08
1.27366e-08
1.61306e-08
1.89644e-08
2.41591e-08
2.84333e-08
3.64182e-08
4.3152e-08
5.34037e-08
6.80793e-08
8.01637e-08
9.50563e-08
1.29032e-07
1.30412e-07
2.07756e-07
2.22125e-07
5.03635e-07
6.21575e-07
1.54256e-06
1.73573e-06
3.26813e-06
3.03398e-06
4.07832e-06
3.4735e-06
3.83923e-06
3.61317e-06
4.27886e-06
4.72597e-06
4.97576e-06
5.75649e-06
6.06654e-06
7.54994e-06
1.10185e-05
1.36629e-05
3.35178e-05
9.78867e-05
0.000263696
0.000256701
0.000239745
0.000230018
0.000210147
0.000208644
0.000207472
0.000176514
0.000106517
5.85962e-05
3.55239e-05
2.42518e-05
1.81819e-05
1.6199e-05
1.54332e-05
1.5796e-05
1.82032e-05
1.85123e-05
1.82417e-05
1.82948e-05
1.86073e-05
1.85277e-05
1.61523e-05
1.25113e-05
9.39717e-06
6.94875e-06
5.14497e-06
3.85137e-06
2.92304e-06
2.25442e-06
1.76529e-06
1.39888e-06
1.1176e-06
8.97623e-07
7.23471e-07
5.84731e-07
4.73689e-07
3.84545e-07
3.12787e-07
2.54874e-07
2.08016e-07
1.70015e-07
1.39129e-07
1.13975e-07
9.34546e-08
7.669e-08
6.29756e-08
5.17434e-08
4.25356e-08
3.49819e-08
2.87806e-08
2.36862e-08
1.94991e-08
1.60566e-08
1.32251e-08
1.08952e-08
8.97743e-09
7.39888e-09
6.09916e-09
5.02857e-09
4.14661e-09
3.42009e-09
2.82149e-09
2.32806e-09
1.92129e-09
1.58605e-09
1.30969e-09
1.08175e-09
8.93741e-10
7.38723e-10
6.10877e-10
5.05362e-10
4.18276e-10
3.46444e-10
2.87177e-10
2.38227e-10
1.97796e-10
1.64435e-10
1.369e-10
1.14143e-10
9.53355e-11
7.98165e-11
6.70101e-11
5.64209e-11
4.76637e-11
4.04377e-11
3.44764e-11
2.95443e-11
2.54616e-11
2.20947e-11
1.93215e-11
1.70284e-11
1.51284e-11
1.3564e-11
1.22827e-11
1.1223e-11
1.03438e-11
9.62312e-12
9.03461e-12
8.55205e-12
8.15129e-12
7.82181e-12
7.56555e-12
7.35936e-12
7.18183e-12
7.05148e-12
6.96393e-12
6.88628e-12
6.83463e-12
6.82674e-12
6.83279e-12
6.85314e-12
6.89781e-12
6.96508e-12
7.07754e-12
7.22671e-12
7.3947e-12
7.59767e-12
7.87866e-12
8.22975e-12
8.62661e-12
9.09216e-12
9.70625e-12
1.04719e-11
1.13453e-11
1.23518e-11
1.36667e-11
1.53169e-11
1.72032e-11
1.93363e-11
2.21593e-11
2.56815e-11
2.97127e-11
3.42528e-11
4.0344e-11
4.78433e-11
5.64267e-11
6.62759e-11
7.92825e-11
9.52052e-11
1.13602e-10
1.34729e-10
1.63237e-10
1.95433e-10
2.37502e-10
2.79694e-10
3.44865e-10
4.09533e-10
5.00567e-10
5.97923e-10
7.22648e-10
8.82386e-10
1.05342e-09
1.28395e-09
1.54238e-09
1.88406e-09
2.2582e-09
2.7543e-09
3.3154e-09
4.03349e-09
4.90467e-09
5.8617e-09
7.3129e-09
8.55862e-09
1.08861e-08
1.27273e-08
1.61259e-08
1.89592e-08
2.4227e-08
2.84344e-08
3.6783e-08
4.32733e-08
5.50658e-08
6.89573e-08
7.89928e-08
1.10213e-07
1.1738e-07
1.64429e-07
1.83842e-07
2.70786e-07
3.60728e-07
5.69842e-07
9.35705e-07
1.4822e-06
2.3174e-06
4.06008e-06
4.109e-06
4.75508e-06
4.26549e-06
4.62737e-06
4.424e-06
4.84174e-06
5.02205e-06
5.43238e-06
7.0629e-06
7.40036e-06
1.15966e-05
1.35562e-05
3.28201e-05
7.93665e-05
0.000202679
0.000201775
0.00018419
0.000160951
0.000168774
0.000183751
0.000172029
0.000112334
6.24284e-05
3.76628e-05
2.65906e-05
1.95145e-05
1.59075e-05
1.55812e-05
1.54559e-05
1.50067e-05
1.65518e-05
1.84404e-05
1.86845e-05
1.84504e-05
1.81217e-05
1.75575e-05
1.5912e-05
1.24965e-05
9.4103e-06
6.92916e-06
5.08084e-06
3.7768e-06
2.86997e-06
2.22494e-06
1.75134e-06
1.39317e-06
1.11591e-06
8.97779e-07
7.24514e-07
5.86002e-07
4.74946e-07
3.85667e-07
3.13731e-07
2.5564e-07
2.08623e-07
1.70488e-07
1.39492e-07
1.14252e-07
9.36649e-08
7.68484e-08
6.3094e-08
5.18318e-08
4.26017e-08
3.5031e-08
2.88167e-08
2.37127e-08
1.95188e-08
1.60712e-08
1.32357e-08
1.09029e-08
8.98329e-09
7.40328e-09
6.10234e-09
5.03088e-09
4.14838e-09
3.42146e-09
2.82247e-09
2.32877e-09
1.92189e-09
1.58654e-09
1.31003e-09
1.08199e-09
8.93955e-10
7.38898e-10
6.10975e-10
5.05406e-10
4.18313e-10
3.46468e-10
2.87161e-10
2.38183e-10
1.97761e-10
1.64409e-10
1.36867e-10
1.14111e-10
9.5323e-11
7.98181e-11
6.70061e-11
5.64105e-11
4.76592e-11
4.04369e-11
3.44673e-11
2.95278e-11
2.54489e-11
2.20869e-11
1.93102e-11
1.70124e-11
1.51163e-11
1.3557e-11
1.22715e-11
1.12067e-11
1.03282e-11
9.6107e-12
9.02204e-12
8.53533e-12
8.13679e-12
7.81448e-12
7.55618e-12
7.34503e-12
7.17103e-12
7.04277e-12
6.95129e-12
6.87249e-12
6.82275e-12
6.81537e-12
6.82117e-12
6.84041e-12
6.88339e-12
6.95913e-12
7.07037e-12
7.20908e-12
7.37729e-12
7.59321e-12
7.87345e-12
8.21015e-12
8.60497e-12
9.09175e-12
9.707e-12
1.04514e-11
1.13145e-11
1.23582e-11
1.36791e-11
1.52946e-11
1.71431e-11
1.93444e-11
2.21823e-11
2.56636e-11
2.96156e-11
3.42837e-11
4.04101e-11
4.78231e-11
5.62829e-11
6.63131e-11
7.93298e-11
9.53076e-11
1.13059e-10
1.35358e-10
1.62305e-10
1.97004e-10
2.34792e-10
2.82821e-10
3.41204e-10
4.13176e-10
4.97065e-10
5.98436e-10
7.24475e-10
8.77836e-10
1.05765e-09
1.27894e-09
1.54457e-09
1.87983e-09
2.25969e-09
2.7476e-09
3.31572e-09
4.02757e-09
4.90348e-09
5.84158e-09
7.32433e-09
8.55006e-09
1.08694e-08
1.27228e-08
1.61244e-08
1.89252e-08
2.43259e-08
2.84056e-08
3.72975e-08
4.32365e-08
5.81164e-08
6.72812e-08
8.66145e-08
1.09646e-07
1.19569e-07
1.84124e-07
1.7998e-07
3.19589e-07
3.59871e-07
7.09174e-07
7.41828e-07
1.1256e-06
1.38449e-06
2.55121e-06
3.76135e-06
4.39569e-06
5.44889e-06
5.00009e-06
5.5414e-06
5.10009e-06
5.60911e-06
5.56689e-06
7.02296e-06
7.38755e-06
1.40664e-05
1.43544e-05
3.08316e-05
6.43576e-05
0.000131905
0.000129451
0.000109554
8.73654e-05
9.22785e-05
9.57006e-05
8.66349e-05
5.44933e-05
3.35492e-05
2.60087e-05
2.0209e-05
1.71138e-05
1.53148e-05
1.53507e-05
1.55693e-05
1.50686e-05
1.47942e-05
1.7017e-05
1.8916e-05
1.90454e-05
1.8496e-05
1.70512e-05
1.47028e-05
1.20422e-05
9.27815e-06
6.89145e-06
5.05495e-06
3.7388e-06
2.8288e-06
2.19407e-06
1.73339e-06
1.38456e-06
1.11261e-06
8.97107e-07
7.24961e-07
5.86914e-07
4.75961e-07
3.86619e-07
3.14556e-07
2.56322e-07
2.0917e-07
1.70917e-07
1.39825e-07
1.14508e-07
9.38596e-08
7.69955e-08
6.32054e-08
5.19159e-08
4.26645e-08
3.50776e-08
2.88517e-08
2.37391e-08
1.95383e-08
1.60855e-08
1.32465e-08
1.09111e-08
8.9893e-09
7.40757e-09
6.10555e-09
5.03339e-09
4.15022e-09
3.42272e-09
2.82343e-09
2.32957e-09
1.92246e-09
1.58688e-09
1.3103e-09
1.08224e-09
8.94108e-10
7.38953e-10
6.11016e-10
5.05465e-10
4.1834e-10
3.4645e-10
2.87148e-10
2.38199e-10
1.97772e-10
1.64401e-10
1.36865e-10
1.14125e-10
9.53282e-11
7.98023e-11
6.69894e-11
5.64044e-11
4.76487e-11
4.04141e-11
3.44465e-11
2.95174e-11
2.54381e-11
2.20681e-11
1.92921e-11
1.70016e-11
1.51048e-11
1.35378e-11
1.22515e-11
1.1193e-11
1.03157e-11
9.59424e-12
9.00573e-12
8.52327e-12
8.12622e-12
7.79909e-12
7.53793e-12
7.33209e-12
7.1584e-12
7.02429e-12
6.9351e-12
6.86078e-12
6.80899e-12
6.80005e-12
6.80616e-12
6.82641e-12
6.87358e-12
6.94244e-12
7.0497e-12
7.19667e-12
7.3701e-12
7.57693e-12
7.85032e-12
8.19861e-12
8.60184e-12
9.07658e-12
9.67905e-12
1.04388e-11
1.13178e-11
1.2345e-11
1.36396e-11
1.52726e-11
1.71592e-11
1.93429e-11
2.2133e-11
2.56306e-11
2.96532e-11
3.42957e-11
4.03291e-11
4.77549e-11
5.63486e-11
6.63403e-11
7.92162e-11
9.51874e-11
1.13174e-10
1.3538e-10
1.62164e-10
1.96768e-10
2.3496e-10
2.82785e-10
3.40983e-10
4.12725e-10
4.97286e-10
5.97953e-10
7.24559e-10
8.76123e-10
1.05851e-09
1.2768e-09
1.54534e-09
1.8745e-09
2.26327e-09
2.73631e-09
3.3271e-09
3.99423e-09
4.94162e-09
5.78739e-09
7.3467e-09
8.56914e-09
1.0828e-08
1.26967e-08
1.61425e-08
1.88778e-08
2.4434e-08
2.83536e-08
3.78602e-08
4.32635e-08
6.03982e-08
6.76762e-08
9.759e-08
1.07031e-07
1.58591e-07
1.73762e-07
2.82543e-07
3.45974e-07
6.63286e-07
7.74534e-07
1.46734e-06
1.59418e-06
2.44958e-06
2.37139e-06
3.47631e-06
3.65783e-06
4.88306e-06
5.25788e-06
5.74734e-06
6.00192e-06
6.18032e-06
6.15411e-06
9.84097e-06
8.42799e-06
2.1001e-05
1.72559e-05
3.05621e-05
5.43992e-05
5.7423e-05
5.39857e-05
4.35761e-05
3.33146e-05
3.23509e-05
3.31153e-05
2.96195e-05
2.31532e-05
2.21249e-05
2.0513e-05
1.68831e-05
1.59401e-05
1.51638e-05
1.41516e-05
1.42161e-05
1.48259e-05
1.48094e-05
1.50592e-05
1.78419e-05
1.9085e-05
1.89659e-05
1.7315e-05
1.43032e-05
1.1364e-05
8.83332e-06
6.69312e-06
4.97596e-06
3.70394e-06
2.80393e-06
2.17278e-06
1.71775e-06
1.37523e-06
1.10808e-06
8.9551e-07
7.24871e-07
5.87475e-07
4.76742e-07
3.87416e-07
3.15276e-07
2.56931e-07
2.09668e-07
1.71314e-07
1.40136e-07
1.14748e-07
9.40432e-08
7.71357e-08
6.33117e-08
5.19956e-08
4.27241e-08
3.51227e-08
2.88856e-08
2.37641e-08
1.95568e-08
1.60994e-08
1.3257e-08
1.09188e-08
8.99484e-09
7.41181e-09
6.10881e-09
5.03571e-09
4.15186e-09
3.42401e-09
2.82445e-09
2.33026e-09
1.9229e-09
1.58726e-09
1.31063e-09
1.08243e-09
8.9421e-10
7.39063e-10
6.1113e-10
5.05521e-10
4.18352e-10
3.4648e-10
2.87195e-10
2.38217e-10
1.97763e-10
1.64402e-10
1.36876e-10
1.14115e-10
9.53015e-11
7.9787e-11
6.69855e-11
5.63902e-11
4.76248e-11
4.0399e-11
3.44397e-11
2.95031e-11
2.54158e-11
2.20511e-11
1.92809e-11
1.69847e-11
1.50819e-11
1.35194e-11
1.22391e-11
1.11774e-11
1.02959e-11
9.57701e-12
8.99128e-12
8.50668e-12
8.10572e-12
7.77984e-12
7.52302e-12
7.31541e-12
7.13805e-12
7.00767e-12
6.92106e-12
6.84262e-12
6.79017e-12
6.78292e-12
6.7893e-12
6.8094e-12
6.85324e-12
6.92469e-12
7.03778e-12
7.18147e-12
7.34776e-12
7.55857e-12
7.84018e-12
8.18439e-12
8.57731e-12
9.05731e-12
9.67167e-12
1.04259e-11
1.12879e-11
1.23242e-11
1.36365e-11
1.52659e-11
1.71228e-11
1.93238e-11
2.21342e-11
2.56193e-11
2.9608e-11
3.42679e-11
4.03487e-11
4.7727e-11
5.63036e-11
6.63076e-11
7.92414e-11
9.51409e-11
1.13113e-10
1.35317e-10
1.6222e-10
1.96584e-10
2.34987e-10
2.82513e-10
3.41123e-10
4.12308e-10
4.97165e-10
5.97695e-10
7.24076e-10
8.75802e-10
1.05756e-09
1.27604e-09
1.5446e-09
1.8714e-09
2.26454e-09
2.72586e-09
3.33934e-09
3.95929e-09
4.96969e-09
5.78442e-09
7.3251e-09
8.56954e-09
1.08118e-08
1.26631e-08
1.61574e-08
1.88282e-08
2.45836e-08
2.8236e-08
3.87802e-08
4.32602e-08
6.36628e-08
7.05722e-08
1.00585e-07
1.24202e-07
1.45871e-07
2.1425e-07
2.45781e-07
3.31574e-07
5.04671e-07
8.67294e-07
1.50866e-06
3.53957e-06
3.60603e-06
4.80435e-06
4.28756e-06
4.49172e-06
4.57252e-06
5.27743e-06
5.9356e-06
6.13794e-06
7.12277e-06
7.42105e-06
1.15861e-05
9.73242e-06
2.34535e-05
1.95197e-05
2.7579e-05
4.67959e-05
1.32791e-05
1.25849e-05
1.08509e-05
8.60376e-06
7.95545e-06
8.67401e-06
1.08643e-05
1.69956e-05
1.97762e-05
1.75481e-05
1.51585e-05
1.46565e-05
1.42718e-05
1.2126e-05
1.13158e-05
1.35717e-05
1.54192e-05
1.53162e-05
1.57985e-05
1.81619e-05
1.87274e-05
1.78675e-05
1.45814e-05
1.12342e-05
8.43046e-06
6.29747e-06
4.74022e-06
3.59529e-06
2.75765e-06
2.15117e-06
1.70537e-06
1.36758e-06
1.10375e-06
8.93507e-07
7.24342e-07
5.87692e-07
4.7727e-07
3.88041e-07
3.15878e-07
2.57462e-07
2.10112e-07
1.71674e-07
1.40421e-07
1.14971e-07
9.42156e-08
7.72675e-08
6.34113e-08
5.2071e-08
4.27813e-08
3.51655e-08
2.89173e-08
2.37878e-08
1.95747e-08
1.61127e-08
1.32666e-08
1.09259e-08
9.00027e-09
7.41585e-09
6.11165e-09
5.03777e-09
4.15347e-09
3.42522e-09
2.82524e-09
2.33081e-09
1.92338e-09
1.58762e-09
1.31082e-09
1.08255e-09
8.94341e-10
7.39163e-10
6.11156e-10
5.05521e-10
4.18378e-10
3.46503e-10
2.87179e-10
2.38188e-10
1.97753e-10
1.64394e-10
1.36847e-10
1.14083e-10
9.52869e-11
7.97762e-11
6.6961e-11
5.63623e-11
4.76083e-11
4.03848e-11
3.44154e-11
2.94762e-11
2.5397e-11
2.20344e-11
1.92574e-11
1.69595e-11
1.50633e-11
1.35033e-11
1.22177e-11
1.11539e-11
1.02766e-11
9.55867e-12
8.96949e-12
8.48408e-12
8.08588e-12
7.76179e-12
7.50271e-12
7.29337e-12
7.11931e-12
6.98967e-12
6.89934e-12
6.8213e-12
6.77117e-12
6.76378e-12
6.76967e-12
6.78908e-12
6.83402e-12
6.9081e-12
7.01666e-12
7.1578e-12
7.32985e-12
7.54402e-12
7.81935e-12
8.15923e-12
8.56034e-12
9.04489e-12
9.65103e-12
1.03962e-11
1.12724e-11
1.23157e-11
1.36196e-11
1.52259e-11
1.71099e-11
1.93191e-11
2.21218e-11
2.55601e-11
2.95989e-11
3.42786e-11
4.03349e-11
4.76429e-11
5.62892e-11
6.63422e-11
7.92171e-11
9.50125e-11
1.13086e-10
1.35375e-10
1.62171e-10
1.96357e-10
2.34977e-10
2.82463e-10
3.41139e-10
4.11739e-10
4.97181e-10
5.97397e-10
7.23873e-10
8.74828e-10
1.05705e-09
1.27518e-09
1.54371e-09
1.86855e-09
2.26412e-09
2.71915e-09
3.34348e-09
3.94033e-09
4.97351e-09
5.78242e-09
7.30608e-09
8.55464e-09
1.07968e-08
1.26287e-08
1.61582e-08
1.87618e-08
2.47631e-08
2.80351e-08
4.02839e-08
4.2865e-08
7.28534e-08
7.35225e-08
1.35949e-07
1.62527e-07
2.1238e-07
3.87634e-07
4.49121e-07
6.87524e-07
1.0639e-06
1.21921e-06
1.85777e-06
2.40956e-06
4.83872e-06
4.91772e-06
7.83304e-06
6.46e-06
8.41806e-06
6.51664e-06
1.07714e-05
8.00574e-06
1.20754e-05
9.33201e-06
1.63807e-05
1.27311e-05
3.83314e-05
2.50426e-05
2.69422e-05
3.9313e-05
2.13908e-06
2.3341e-06
2.17465e-06
2.56177e-06
5.12371e-06
6.28513e-06
1.30349e-05
1.7376e-05
1.53843e-05
1.46942e-05
1.48725e-05
1.45873e-05
1.24351e-05
1.04487e-05
1.06017e-05
1.30017e-05
1.58431e-05
1.63434e-05
1.60376e-05
1.64514e-05
1.74208e-05
1.74653e-05
1.50213e-05
1.13981e-05
8.40515e-06
6.13703e-06
4.52039e-06
3.41441e-06
2.65548e-06
2.10461e-06
1.68532e-06
1.3585e-06
1.09935e-06
8.91419e-07
7.23541e-07
5.87657e-07
4.77609e-07
3.88512e-07
3.16372e-07
2.57918e-07
2.10504e-07
1.71997e-07
1.40682e-07
1.15177e-07
9.43761e-08
7.7391e-08
6.35062e-08
5.21435e-08
4.28362e-08
3.52066e-08
2.89483e-08
2.38113e-08