/*--------------------------------*- C++ -*----------------------------------*\
| =========                 |                                                 |
| \\      /  F ield         | OpenFOAM: The Open Source CFD Toolbox           |
|  \\    /   O peration     | Version:  2.4.0                                 |
|   \\  /    A nd           | Web:      www.OpenFOAM.org                      |
|    \\/     M anipulation  |                                                 |
\*---------------------------------------------------------------------------*/
FoamFile
{
    version     2.0;
    format      ascii;
    class       volScalarField;
    location    "0.011";
    object      pPrime2Mean;
}
// * * * * * * * * * * * * * * * * * * * * * * * * * * * * * * * * * * * * * //

dimensions      [0 4 -4 0 0 0 0];

internalField   nonuniform List<scalar> 
17600
(
5.86286e+07
5.71512e+07
5.55618e+07
5.3986e+07
5.24326e+07
5.0902e+07
4.93942e+07
4.7909e+07
4.64466e+07
4.50066e+07
4.3589e+07
4.21936e+07
4.082e+07
3.94674e+07
3.81345e+07
3.68188e+07
3.55151e+07
3.42133e+07
3.28905e+07
3.14704e+07
5.86297e+07
5.71512e+07
5.55618e+07
5.3986e+07
5.24326e+07
5.0902e+07
4.93942e+07
4.7909e+07
4.64466e+07
4.50066e+07
4.3589e+07
4.21936e+07
4.082e+07
3.94675e+07
3.81346e+07
3.68189e+07
3.55154e+07
3.4214e+07
3.28924e+07
3.14724e+07
5.86305e+07
5.7151e+07
5.55617e+07
5.3986e+07
5.24326e+07
5.0902e+07
4.93942e+07
4.79091e+07
4.64466e+07
4.50066e+07
4.35891e+07
4.21936e+07
4.08201e+07
3.94676e+07
3.81348e+07
3.68193e+07
3.55161e+07
3.42155e+07
3.28956e+07
3.14861e+07
5.86311e+07
5.71509e+07
5.55616e+07
5.39859e+07
5.24325e+07
5.0902e+07
4.93942e+07
4.79091e+07
4.64466e+07
4.50067e+07
4.35891e+07
4.21937e+07
4.08201e+07
3.94677e+07
3.81351e+07
3.68198e+07
3.55172e+07
3.42177e+07
3.29007e+07
3.15057e+07
5.86316e+07
5.71507e+07
5.55614e+07
5.39859e+07
5.24325e+07
5.0902e+07
4.93942e+07
4.79091e+07
4.64466e+07
4.50067e+07
4.35891e+07
4.21937e+07
4.08202e+07
3.94679e+07
3.81355e+07
3.68205e+07
3.55185e+07
3.42206e+07
3.29073e+07
3.15294e+07
5.86321e+07
5.71505e+07
5.55613e+07
5.39859e+07
5.24325e+07
5.09019e+07
4.93941e+07
4.79091e+07
4.64466e+07
4.50067e+07
4.35891e+07
4.21938e+07
4.08204e+07
3.94681e+07
3.81359e+07
3.68213e+07
3.55202e+07
3.4224e+07
3.29154e+07
3.15556e+07
5.86325e+07
5.71504e+07
5.55612e+07
5.39858e+07
5.24325e+07
5.09019e+07
4.93941e+07
4.79091e+07
4.64467e+07
4.50067e+07
4.35892e+07
4.21939e+07
4.08205e+07
3.94684e+07
3.81364e+07
3.68224e+07
3.55222e+07
3.42281e+07
3.29247e+07
3.15831e+07
5.86329e+07
5.71503e+07
5.5561e+07
5.39858e+07
5.24325e+07
5.09019e+07
4.93941e+07
4.79091e+07
4.64467e+07
4.50068e+07
4.35892e+07
4.2194e+07
4.08207e+07
3.94687e+07
3.8137e+07
3.68235e+07
3.55244e+07
3.42327e+07
3.2935e+07
3.16113e+07
5.86333e+07
5.71502e+07
5.55609e+07
5.39858e+07
5.24325e+07
5.09019e+07
4.93941e+07
4.79091e+07
4.64467e+07
4.50068e+07
4.35893e+07
4.21941e+07
4.08209e+07
3.94691e+07
3.81377e+07
3.68248e+07
3.55269e+07
3.42377e+07
3.29462e+07
3.16397e+07
5.86336e+07
5.71501e+07
5.55608e+07
5.39858e+07
5.24324e+07
5.09019e+07
4.93941e+07
4.79091e+07
4.64467e+07
4.50068e+07
4.35894e+07
4.21942e+07
4.08211e+07
3.94695e+07
3.81385e+07
3.68262e+07
3.55296e+07
3.42432e+07
3.2958e+07
3.16678e+07
5.86339e+07
5.71501e+07
5.55607e+07
5.39857e+07
5.24324e+07
5.09018e+07
4.93941e+07
4.79091e+07
4.64467e+07
4.50069e+07
4.35894e+07
4.21943e+07
4.08214e+07
3.947e+07
3.81393e+07
3.68278e+07
3.55326e+07
3.4249e+07
3.29702e+07
3.16954e+07
5.86341e+07
5.715e+07
5.55606e+07
5.39857e+07
5.24324e+07
5.09018e+07
4.93941e+07
4.79091e+07
4.64468e+07
4.50069e+07
4.35895e+07
4.21945e+07
4.08216e+07
3.94704e+07
3.81402e+07
3.68294e+07
3.55357e+07
3.42551e+07
3.29829e+07
3.17223e+07
5.86344e+07
5.715e+07
5.55605e+07
5.39857e+07
5.24324e+07
5.09018e+07
4.93941e+07
4.79091e+07
4.64468e+07
4.5007e+07
4.35896e+07
4.21946e+07
4.08219e+07
3.94709e+07
3.81411e+07
3.68311e+07
3.55389e+07
3.42615e+07
3.29957e+07
3.17485e+07
5.86346e+07
5.715e+07
5.55604e+07
5.39857e+07
5.24324e+07
5.09018e+07
4.93941e+07
4.79091e+07
4.64468e+07
4.5007e+07
4.35897e+07
4.21948e+07
4.08222e+07
3.94715e+07
3.81421e+07
3.68329e+07
3.55423e+07
3.4268e+07
3.30086e+07
3.17738e+07
5.86347e+07
5.715e+07
5.55604e+07
5.39856e+07
5.24324e+07
5.09018e+07
4.93941e+07
4.79092e+07
4.64469e+07
4.50071e+07
4.35898e+07
4.2195e+07
4.08225e+07
3.9472e+07
3.81431e+07
3.68348e+07
3.55459e+07
3.42747e+07
3.30215e+07
3.17981e+07
5.86348e+07
5.715e+07
5.55603e+07
5.39856e+07
5.24324e+07
5.09018e+07
4.93941e+07
4.79092e+07
4.64469e+07
4.50071e+07
4.35899e+07
4.21951e+07
4.08228e+07
3.94726e+07
3.81441e+07
3.68367e+07
3.55495e+07
3.42815e+07
3.30343e+07
3.18215e+07
5.86349e+07
5.715e+07
5.55603e+07
5.39856e+07
5.24324e+07
5.09018e+07
4.93941e+07
4.79092e+07
4.64469e+07
4.50072e+07
4.359e+07
4.21953e+07
4.08231e+07
3.94732e+07
3.81452e+07
3.68387e+07
3.55531e+07
3.42883e+07
3.3047e+07
3.18439e+07
5.8635e+07
5.715e+07
5.55603e+07
5.39856e+07
5.24324e+07
5.09018e+07
4.93941e+07
4.79092e+07
4.64469e+07
4.50072e+07
4.35901e+07
4.21955e+07
4.08234e+07
3.94738e+07
3.81463e+07
3.68407e+07
3.55568e+07
3.42951e+07
3.30594e+07
3.18653e+07
5.86351e+07
5.715e+07
5.55602e+07
5.39856e+07
5.24324e+07
5.09018e+07
4.93941e+07
4.79092e+07
4.6447e+07
4.50073e+07
4.35902e+07
4.21957e+07
4.08238e+07
3.94744e+07
3.81474e+07
3.68427e+07
3.55605e+07
3.43018e+07
3.30715e+07
3.18857e+07
5.86351e+07
5.715e+07
5.55602e+07
5.39856e+07
5.24325e+07
5.09018e+07
4.93941e+07
4.79092e+07
4.6447e+07
4.50073e+07
4.35903e+07
4.21958e+07
4.08241e+07
3.9475e+07
3.81485e+07
3.68447e+07
3.55642e+07
3.43085e+07
3.30833e+07
3.1905e+07
5.86351e+07
5.715e+07
5.55602e+07
5.39856e+07
5.24325e+07
5.09018e+07
4.93941e+07
4.79092e+07
4.6447e+07
4.50074e+07
4.35904e+07
4.2196e+07
4.08244e+07
3.94756e+07
3.81496e+07
3.68467e+07
3.55678e+07
3.4315e+07
3.30947e+07
3.19234e+07
5.86351e+07
5.715e+07
5.55602e+07
5.39856e+07
5.24325e+07
5.09018e+07
4.93941e+07
4.79093e+07
4.64471e+07
4.50074e+07
4.35905e+07
4.21962e+07
4.08248e+07
3.94762e+07
3.81507e+07
3.68487e+07
3.55714e+07
3.43214e+07
3.31057e+07
3.19407e+07
5.8635e+07
5.715e+07
5.55603e+07
5.39856e+07
5.24325e+07
5.09018e+07
4.93941e+07
4.79093e+07
4.64471e+07
4.50075e+07
4.35906e+07
4.21964e+07
4.08251e+07
3.94768e+07
3.81518e+07
3.68507e+07
3.55749e+07
3.43276e+07
3.31162e+07
3.19571e+07
5.8635e+07
5.715e+07
5.55603e+07
5.39856e+07
5.24325e+07
5.09018e+07
4.93941e+07
4.79093e+07
4.64471e+07
4.50075e+07
4.35906e+07
4.21966e+07
4.08254e+07
3.94774e+07
3.81528e+07
3.68526e+07
3.55783e+07
3.43336e+07
3.31262e+07
3.19725e+07
5.86349e+07
5.715e+07
5.55603e+07
5.39856e+07
5.24325e+07
5.09019e+07
4.93941e+07
4.79093e+07
4.64472e+07
4.50076e+07
4.35907e+07
4.21967e+07
4.08257e+07
3.94779e+07
3.81539e+07
3.68545e+07
3.55816e+07
3.43393e+07
3.31357e+07
3.19869e+07
5.86347e+07
5.715e+07
5.55604e+07
5.39857e+07
5.24325e+07
5.09019e+07
4.93942e+07
4.79093e+07
4.64472e+07
4.50076e+07
4.35908e+07
4.21969e+07
4.0826e+07
3.94785e+07
3.81549e+07
3.68563e+07
3.55848e+07
3.43448e+07
3.31447e+07
3.20003e+07
5.86346e+07
5.715e+07
5.55605e+07
5.39857e+07
5.24325e+07
5.09019e+07
4.93942e+07
4.79093e+07
4.64472e+07
4.50077e+07
4.35909e+07
4.21971e+07
4.08263e+07
3.9479e+07
3.81558e+07
3.6858e+07
3.55878e+07
3.435e+07
3.31532e+07
3.20128e+07
5.86344e+07
5.715e+07
5.55605e+07
5.39857e+07
5.24325e+07
5.09019e+07
4.93942e+07
4.79094e+07
4.64472e+07
4.50077e+07
4.3591e+07
4.21972e+07
4.08266e+07
3.94795e+07
3.81567e+07
3.68596e+07
3.55907e+07
3.43549e+07
3.31611e+07
3.20244e+07
5.86342e+07
5.715e+07
5.55606e+07
5.39857e+07
5.24325e+07
5.09019e+07
4.93942e+07
4.79094e+07
4.64472e+07
4.50078e+07
4.35911e+07
4.21974e+07
4.08269e+07
3.948e+07
3.81576e+07
3.68612e+07
3.55934e+07
3.43595e+07
3.31684e+07
3.2035e+07
5.86339e+07
5.71501e+07
5.55607e+07
5.39858e+07
5.24325e+07
5.09019e+07
4.93942e+07
4.79094e+07
4.64473e+07
4.50078e+07
4.35912e+07
4.21975e+07
4.08271e+07
3.94805e+07
3.81584e+07
3.68626e+07
3.55959e+07
3.43637e+07
3.31752e+07
3.20448e+07
5.86336e+07
5.71501e+07
5.55608e+07
5.39858e+07
5.24325e+07
5.09019e+07
4.93943e+07
4.79094e+07
4.64473e+07
4.50079e+07
4.35912e+07
4.21976e+07
4.08274e+07
3.94809e+07
3.81592e+07
3.68639e+07
3.55982e+07
3.43676e+07
3.31813e+07
3.20536e+07
5.86333e+07
5.71502e+07
5.55609e+07
5.39858e+07
5.24325e+07
5.0902e+07
4.93943e+07
4.79094e+07
4.64473e+07
4.50079e+07
4.35913e+07
4.21978e+07
4.08276e+07
3.94813e+07
3.81599e+07
3.68651e+07
3.56004e+07
3.43712e+07
3.31869e+07
3.20615e+07
5.86329e+07
5.71503e+07
5.5561e+07
5.39858e+07
5.24325e+07
5.0902e+07
4.93943e+07
4.79094e+07
4.64473e+07
4.50079e+07
4.35914e+07
4.21979e+07
4.08278e+07
3.94816e+07
3.81605e+07
3.68662e+07
3.56023e+07
3.43743e+07
3.31919e+07
3.20685e+07
5.86325e+07
5.71504e+07
5.55612e+07
5.39859e+07
5.24325e+07
5.0902e+07
4.93943e+07
4.79094e+07
4.64473e+07
4.50079e+07
4.35914e+07
4.2198e+07
4.08279e+07
3.94819e+07
3.8161e+07
3.68672e+07
3.56039e+07
3.43771e+07
3.31962e+07
3.20747e+07
5.86321e+07
5.71505e+07
5.55613e+07
5.39859e+07
5.24326e+07
5.09021e+07
4.93944e+07
4.79094e+07
4.64473e+07
4.5008e+07
4.35915e+07
4.2198e+07
4.08281e+07
3.94822e+07
3.81615e+07
3.68681e+07
3.56054e+07
3.43795e+07
3.32e+07
3.20799e+07
5.86317e+07
5.71507e+07
5.55615e+07
5.39859e+07
5.24326e+07
5.09021e+07
4.93944e+07
4.79095e+07
4.64473e+07
4.5008e+07
4.35915e+07
4.21981e+07
4.08282e+07
3.94824e+07
3.81619e+07
3.68688e+07
3.56066e+07
3.43815e+07
3.32031e+07
3.20843e+07
5.86312e+07
5.71509e+07
5.55616e+07
5.3986e+07
5.24326e+07
5.09021e+07
4.93944e+07
4.79095e+07
4.64473e+07
4.5008e+07
4.35915e+07
4.21982e+07
4.08283e+07
3.94826e+07
3.81622e+07
3.68693e+07
3.56076e+07
3.43832e+07
3.32056e+07
3.20878e+07
5.86306e+07
5.71511e+07
5.55617e+07
5.3986e+07
5.24326e+07
5.09021e+07
4.93944e+07
4.79095e+07
4.64473e+07
4.5008e+07
4.35916e+07
4.21982e+07
4.08284e+07
3.94827e+07
3.81625e+07
3.68698e+07
3.56084e+07
3.43844e+07
3.32075e+07
3.20905e+07
5.86297e+07
5.71512e+07
5.55618e+07
5.3986e+07
5.24326e+07
5.09021e+07
4.93944e+07
4.79095e+07
4.64473e+07
4.5008e+07
4.35916e+07
4.21982e+07
4.08284e+07
3.94828e+07
3.81627e+07
3.68701e+07
3.56089e+07
3.43852e+07
3.32088e+07
3.20922e+07
5.86286e+07
5.71513e+07
5.55618e+07
5.3986e+07
5.24326e+07
5.09021e+07
4.93944e+07
4.79095e+07
4.64473e+07
4.5008e+07
4.35916e+07
4.21983e+07
4.08285e+07
3.94829e+07
3.81627e+07
3.68702e+07
3.56091e+07
3.43856e+07
3.32094e+07
3.2093e+07
3.01257e+07
2.98007e+07
2.95496e+07
2.93296e+07
2.91227e+07
2.89237e+07
2.87302e+07
2.85408e+07
2.83549e+07
2.8172e+07
2.79921e+07
2.78147e+07
2.76394e+07
2.74659e+07
2.7294e+07
2.71234e+07
2.69541e+07
2.67857e+07
2.66184e+07
2.64519e+07
2.62862e+07
2.61213e+07
2.5957e+07
2.57935e+07
2.56307e+07
2.54684e+07
2.53068e+07
2.51458e+07
2.49853e+07
2.48255e+07
2.46662e+07
2.45075e+07
2.43493e+07
2.41916e+07
2.40345e+07
2.3878e+07
2.37219e+07
2.35664e+07
2.34114e+07
2.3257e+07
2.31031e+07
2.29497e+07
2.27968e+07
2.26444e+07
2.24925e+07
2.23412e+07
2.21904e+07
2.20401e+07
2.18903e+07
2.17411e+07
2.15923e+07
2.14441e+07
2.12963e+07
2.11491e+07
2.10024e+07
2.08562e+07
2.07106e+07
2.05654e+07
2.04207e+07
2.02766e+07
2.0133e+07
1.99899e+07
1.98472e+07
1.97051e+07
1.95636e+07
1.94225e+07
1.92819e+07
1.91419e+07
1.90023e+07
1.88633e+07
1.87248e+07
1.85868e+07
1.84493e+07
1.83123e+07
1.81758e+07
1.80399e+07
1.79044e+07
1.77695e+07
1.7635e+07
1.75011e+07
1.73677e+07
1.72348e+07
1.71024e+07
1.69705e+07
1.68392e+07
1.67083e+07
1.6578e+07
1.64481e+07
1.63188e+07
1.619e+07
1.60617e+07
1.59339e+07
1.58066e+07
1.56799e+07
1.55536e+07
1.54278e+07
1.53026e+07
1.51779e+07
1.50536e+07
1.49299e+07
1.48067e+07
1.4684e+07
1.45619e+07
1.44402e+07
1.4319e+07
1.41984e+07
1.40783e+07
1.39586e+07
1.38395e+07
1.37209e+07
1.36028e+07
1.34852e+07
1.33682e+07
1.32516e+07
1.31355e+07
1.302e+07
1.2905e+07
1.27904e+07
1.26764e+07
1.25629e+07
1.24499e+07
1.23374e+07
1.22255e+07
1.2114e+07
1.20031e+07
1.18926e+07
1.17827e+07
1.16733e+07
1.15644e+07
1.1456e+07
1.13481e+07
1.12407e+07
1.11338e+07
1.10275e+07
1.09216e+07
1.08163e+07
1.07114e+07
1.06071e+07
1.05033e+07
1.04e+07
1.02972e+07
1.01949e+07
1.00932e+07
9.99191e+06
9.89116e+06
9.79092e+06
9.69118e+06
9.59196e+06
9.49325e+06
9.39504e+06
9.29734e+06
9.20015e+06
9.10347e+06
9.0073e+06
8.91164e+06
8.81648e+06
8.72183e+06
8.62768e+06
8.53405e+06
8.44091e+06
8.34829e+06
8.25616e+06
8.16454e+06
8.07343e+06
7.98281e+06
7.8927e+06
7.80309e+06
7.71397e+06
7.62535e+06
7.53722e+06
7.44958e+06
7.36243e+06
7.27577e+06
7.18958e+06
7.10387e+06
7.01863e+06
6.93385e+06
6.84953e+06
6.76565e+06
6.68221e+06
6.59919e+06
6.51658e+06
6.43435e+06
6.3525e+06
6.27099e+06
6.18978e+06
6.10884e+06
6.02812e+06
5.94755e+06
5.86705e+06
5.78653e+06
5.70585e+06
5.62483e+06
5.54324e+06
5.46076e+06
5.37686e+06
5.29084e+06
5.20159e+06
5.10469e+06
4.99986e+06
3.02761e+07
2.99239e+07
2.96464e+07
2.94084e+07
2.91893e+07
2.89812e+07
2.87806e+07
2.85854e+07
2.83947e+07
2.82078e+07
2.80242e+07
2.78437e+07
2.76656e+07
2.74895e+07
2.73153e+07
2.71427e+07
2.69715e+07
2.68015e+07
2.66326e+07
2.64648e+07
2.62979e+07
2.61319e+07
2.59667e+07
2.58022e+07
2.56385e+07
2.54756e+07
2.53133e+07
2.51517e+07
2.49907e+07
2.48303e+07
2.46706e+07
2.45114e+07
2.43529e+07
2.41949e+07
2.40375e+07
2.38807e+07
2.37244e+07
2.35686e+07
2.34135e+07
2.32588e+07
2.31047e+07
2.29512e+07
2.27981e+07
2.26456e+07
2.24937e+07
2.23422e+07
2.21913e+07
2.20409e+07
2.18911e+07
2.17417e+07
2.15929e+07
2.14446e+07
2.12969e+07
2.11496e+07
2.10029e+07
2.08566e+07
2.07109e+07
2.05657e+07
2.0421e+07
2.02769e+07
2.01332e+07
1.99901e+07
1.98474e+07
1.97053e+07
1.95637e+07
1.94226e+07
1.92821e+07
1.9142e+07
1.90024e+07
1.88634e+07
1.87249e+07
1.85869e+07
1.84494e+07
1.83124e+07
1.81759e+07
1.80399e+07
1.79045e+07
1.77695e+07
1.76351e+07
1.75012e+07
1.73677e+07
1.72348e+07
1.71025e+07
1.69706e+07
1.68392e+07
1.67083e+07
1.6578e+07
1.64482e+07
1.63188e+07
1.619e+07
1.60617e+07
1.59339e+07
1.58066e+07
1.56799e+07
1.55536e+07
1.54278e+07
1.53026e+07
1.51779e+07
1.50536e+07
1.49299e+07
1.48067e+07
1.4684e+07
1.45619e+07
1.44402e+07
1.4319e+07
1.41984e+07
1.40783e+07
1.39586e+07
1.38395e+07
1.37209e+07
1.36028e+07
1.34852e+07
1.33681e+07
1.32516e+07
1.31355e+07
1.302e+07
1.29049e+07
1.27904e+07
1.26764e+07
1.25629e+07
1.24499e+07
1.23374e+07
1.22254e+07
1.2114e+07
1.2003e+07
1.18926e+07
1.17826e+07
1.16732e+07
1.15643e+07
1.14559e+07
1.1348e+07
1.12406e+07
1.11337e+07
1.10274e+07
1.09215e+07
1.08162e+07
1.07113e+07
1.0607e+07
1.05032e+07
1.03998e+07
1.0297e+07
1.01947e+07
1.0093e+07
9.99168e+06
9.8909e+06
9.79064e+06
9.69088e+06
9.59163e+06
9.49288e+06
9.39464e+06
9.29691e+06
9.19968e+06
9.10295e+06
9.00673e+06
8.91101e+06
8.81579e+06
8.72108e+06
8.62687e+06
8.53315e+06
8.43994e+06
8.34722e+06
8.255e+06
8.16327e+06
8.07204e+06
7.9813e+06
7.89104e+06
7.80128e+06
7.71199e+06
7.62319e+06
7.53486e+06
7.447e+06
7.35961e+06
7.27269e+06
7.18622e+06
7.1002e+06
7.01462e+06
6.92946e+06
6.84473e+06
6.7604e+06
6.67647e+06
6.59291e+06
6.50971e+06
6.42683e+06
6.34427e+06
6.26196e+06
6.17989e+06
6.09799e+06
6.01619e+06
5.93442e+06
5.85258e+06
5.77053e+06
5.68811e+06
5.60509e+06
5.52113e+06
5.43582e+06
5.34843e+06
5.25783e+06
5.16244e+06
5.05625e+06
4.93197e+06
3.03947e+07
3.00312e+07
2.97373e+07
2.94845e+07
2.92543e+07
2.90377e+07
2.88302e+07
2.86295e+07
2.84341e+07
2.82432e+07
2.80561e+07
2.78724e+07
2.76915e+07
2.75129e+07
2.73365e+07
2.71618e+07
2.69888e+07
2.68172e+07
2.66468e+07
2.64776e+07
2.63095e+07
2.61424e+07
2.59762e+07
2.58109e+07
2.56464e+07
2.54827e+07
2.53198e+07
2.51575e+07
2.4996e+07
2.48352e+07
2.4675e+07
2.45154e+07
2.43565e+07
2.41982e+07
2.40405e+07
2.38833e+07
2.37268e+07
2.35708e+07
2.34155e+07
2.32606e+07
2.31064e+07
2.29526e+07
2.27995e+07
2.26469e+07
2.24948e+07
2.23432e+07
2.21922e+07
2.20418e+07
2.18918e+07
2.17424e+07
2.15936e+07
2.14452e+07
2.12974e+07
2.11501e+07
2.10033e+07
2.0857e+07
2.07113e+07
2.0566e+07
2.04213e+07
2.02771e+07
2.01334e+07
1.99903e+07
1.98476e+07
1.97055e+07
1.95639e+07
1.94228e+07
1.92822e+07
1.91421e+07
1.90026e+07
1.88635e+07
1.8725e+07
1.85869e+07
1.84494e+07
1.83124e+07
1.8176e+07
1.804e+07
1.79045e+07
1.77696e+07
1.76351e+07
1.75012e+07
1.73678e+07
1.72349e+07
1.71025e+07
1.69706e+07
1.68392e+07
1.67084e+07
1.6578e+07
1.64482e+07
1.63188e+07
1.619e+07
1.60617e+07
1.59339e+07
1.58066e+07
1.56799e+07
1.55536e+07
1.54278e+07
1.53026e+07
1.51779e+07
1.50537e+07
1.49299e+07
1.48067e+07
1.4684e+07
1.45619e+07
1.44402e+07
1.4319e+07
1.41984e+07
1.40782e+07
1.39586e+07
1.38395e+07
1.37209e+07
1.36028e+07
1.34852e+07
1.33681e+07
1.32516e+07
1.31355e+07
1.302e+07
1.29049e+07
1.27904e+07
1.26764e+07
1.25629e+07
1.24499e+07
1.23374e+07
1.22254e+07
1.21139e+07
1.2003e+07
1.18925e+07
1.17826e+07
1.16732e+07
1.15642e+07
1.14558e+07
1.13479e+07
1.12405e+07
1.11336e+07
1.10273e+07
1.09214e+07
1.0816e+07
1.07112e+07
1.06068e+07
1.0503e+07
1.03997e+07
1.02969e+07
1.01946e+07
1.00927e+07
9.99144e+06
9.89065e+06
9.79036e+06
9.69057e+06
9.59129e+06
9.49251e+06
9.39424e+06
9.29647e+06
9.1992e+06
9.10243e+06
9.00616e+06
8.91039e+06
8.81511e+06
8.72034e+06
8.62605e+06
8.53227e+06
8.43897e+06
8.34616e+06
8.25384e+06
8.16201e+06
8.07066e+06
7.97979e+06
7.88939e+06
7.79947e+06
7.71002e+06
7.62103e+06
7.5325e+06
7.44443e+06
7.35681e+06
7.26962e+06
7.18287e+06
7.09654e+06
7.01062e+06
6.92509e+06
6.83995e+06
6.75518e+06
6.67076e+06
6.58667e+06
6.50288e+06
6.41936e+06
6.33609e+06
6.25301e+06
6.17007e+06
6.08722e+06
6.00437e+06
5.92143e+06
5.83827e+06
5.75474e+06
5.67062e+06
5.58567e+06
5.49945e+06
5.41145e+06
5.32087e+06
5.22609e+06
5.1256e+06
5.01253e+06
4.87785e+06
3.04921e+07
3.01263e+07
2.98218e+07
2.95573e+07
2.93174e+07
2.90929e+07
2.8879e+07
2.86729e+07
2.8473e+07
2.82781e+07
2.80876e+07
2.79008e+07
2.77172e+07
2.75362e+07
2.73575e+07
2.71808e+07
2.7006e+07
2.68327e+07
2.66609e+07
2.64904e+07
2.63211e+07
2.61529e+07
2.59857e+07
2.58195e+07
2.56542e+07
2.54898e+07
2.53262e+07
2.51634e+07
2.50013e+07
2.484e+07
2.46793e+07
2.45194e+07
2.43601e+07
2.42014e+07
2.40434e+07
2.3886e+07
2.37292e+07
2.35731e+07
2.34175e+07
2.32624e+07
2.3108e+07
2.29541e+07
2.28008e+07
2.26481e+07
2.24959e+07
2.23443e+07
2.21932e+07
2.20426e+07
2.18926e+07
2.17431e+07
2.15942e+07
2.14458e+07
2.12979e+07
2.11505e+07
2.10037e+07
2.08574e+07
2.07116e+07
2.05663e+07
2.04216e+07
2.02774e+07
2.01337e+07
1.99905e+07
1.98478e+07
1.97057e+07
1.9564e+07
1.94229e+07
1.92823e+07
1.91422e+07
1.90027e+07
1.88636e+07
1.87251e+07
1.8587e+07
1.84495e+07
1.83125e+07
1.8176e+07
1.804e+07
1.79046e+07
1.77696e+07
1.76352e+07
1.75012e+07
1.73678e+07
1.72349e+07
1.71025e+07
1.69706e+07
1.68392e+07
1.67084e+07
1.6578e+07
1.64482e+07
1.63189e+07
1.619e+07
1.60617e+07
1.59339e+07
1.58066e+07
1.56799e+07
1.55536e+07
1.54279e+07
1.53026e+07
1.51779e+07
1.50537e+07
1.49299e+07
1.48067e+07
1.4684e+07
1.45619e+07
1.44402e+07
1.4319e+07
1.41984e+07
1.40782e+07
1.39586e+07
1.38395e+07
1.37209e+07
1.36028e+07
1.34852e+07
1.33681e+07
1.32515e+07
1.31355e+07
1.30199e+07
1.29049e+07
1.27904e+07
1.26763e+07
1.25628e+07
1.24498e+07
1.23373e+07
1.22254e+07
1.21139e+07
1.20029e+07
1.18925e+07
1.17825e+07
1.16731e+07
1.15642e+07
1.14558e+07
1.13478e+07
1.12404e+07
1.11336e+07
1.10272e+07
1.09213e+07
1.08159e+07
1.07111e+07
1.06067e+07
1.05029e+07
1.03995e+07
1.02967e+07
1.01944e+07
1.00925e+07
9.99121e+06
9.89039e+06
9.79008e+06
9.69027e+06
9.59096e+06
9.49215e+06
9.39384e+06
9.29603e+06
9.19872e+06
9.10191e+06
9.00559e+06
8.90977e+06
8.81444e+06
8.7196e+06
8.62524e+06
8.53138e+06
8.438e+06
8.3451e+06
8.25269e+06
8.16075e+06
8.06928e+06
7.97828e+06
7.88775e+06
7.79767e+06
7.70806e+06
7.61889e+06
7.53016e+06
7.44187e+06
7.35401e+06
7.26657e+06
7.17954e+06
7.0929e+06
7.00664e+06
6.92075e+06
6.83521e+06
6.75e+06
6.66509e+06
6.58047e+06
6.4961e+06
6.41195e+06
6.32798e+06
6.24413e+06
6.16035e+06
6.07657e+06
5.99268e+06
5.9086e+06
5.82415e+06
5.73919e+06
5.65345e+06
5.56663e+06
5.47831e+06
5.38774e+06
5.29435e+06
5.1958e+06
5.09128e+06
4.97338e+06
4.835e+06
3.05753e+07
3.02108e+07
2.98998e+07
2.96264e+07
2.93782e+07
2.91465e+07
2.89266e+07
2.87155e+07
2.85111e+07
2.83125e+07
2.81186e+07
2.79289e+07
2.77425e+07
2.75591e+07
2.73782e+07
2.71996e+07
2.7023e+07
2.68482e+07
2.66749e+07
2.65031e+07
2.63326e+07
2.61633e+07
2.59952e+07
2.58281e+07
2.5662e+07
2.54969e+07
2.53326e+07
2.51692e+07
2.50066e+07
2.48447e+07
2.46836e+07
2.45233e+07
2.43636e+07
2.42047e+07
2.40463e+07
2.38887e+07
2.37316e+07
2.35752e+07
2.34194e+07
2.32642e+07
2.31096e+07
2.29556e+07
2.28022e+07
2.26493e+07
2.2497e+07
2.23453e+07
2.21941e+07
2.20434e+07
2.18933e+07
2.17438e+07
2.15948e+07
2.14463e+07
2.12984e+07
2.1151e+07
2.10041e+07
2.08578e+07
2.07119e+07
2.05667e+07
2.04219e+07
2.02776e+07
2.01339e+07
1.99907e+07
1.9848e+07
1.97058e+07
1.95642e+07
1.94231e+07
1.92824e+07
1.91423e+07
1.90028e+07
1.88637e+07
1.87251e+07
1.85871e+07
1.84496e+07
1.83126e+07
1.81761e+07
1.80401e+07
1.79046e+07
1.77696e+07
1.76352e+07
1.75013e+07
1.73678e+07
1.72349e+07
1.71025e+07
1.69706e+07
1.68393e+07
1.67084e+07
1.6578e+07
1.64482e+07
1.63189e+07
1.61901e+07
1.60617e+07
1.59339e+07
1.58067e+07
1.56799e+07
1.55536e+07
1.54279e+07
1.53026e+07
1.51779e+07
1.50537e+07
1.49299e+07
1.48067e+07
1.4684e+07
1.45619e+07
1.44402e+07
1.4319e+07
1.41984e+07
1.40782e+07
1.39586e+07
1.38395e+07
1.37209e+07
1.36028e+07
1.34852e+07
1.33681e+07
1.32515e+07
1.31355e+07
1.30199e+07
1.29049e+07
1.27903e+07
1.26763e+07
1.25628e+07
1.24498e+07
1.23373e+07
1.22253e+07
1.21139e+07
1.20029e+07
1.18924e+07
1.17825e+07
1.1673e+07
1.15641e+07
1.14557e+07
1.13478e+07
1.12404e+07
1.11335e+07
1.10271e+07
1.09212e+07
1.08158e+07
1.07109e+07
1.06066e+07
1.05027e+07
1.03994e+07
1.02965e+07
1.01942e+07
1.00923e+07
9.99098e+06
9.89014e+06
9.7898e+06
9.68996e+06
9.59063e+06
9.49179e+06
9.39345e+06
9.2956e+06
9.19825e+06
9.10139e+06
9.00503e+06
8.90915e+06
8.81376e+06
8.71886e+06
8.62444e+06
8.5305e+06
8.43704e+06
8.34405e+06
8.25154e+06
8.15949e+06
8.06791e+06
7.97678e+06
7.88611e+06
7.79589e+06
7.70611e+06
7.61676e+06
7.52784e+06
7.43933e+06
7.35124e+06
7.26354e+06
7.17623e+06
7.08928e+06
7.00269e+06
6.91644e+06
6.8305e+06
6.74485e+06
6.65947e+06
6.57432e+06
6.48938e+06
6.40461e+06
6.31995e+06
6.23535e+06
6.15074e+06
6.06605e+06
5.98115e+06
5.89595e+06
5.81027e+06
5.7239e+06
5.63663e+06
5.54801e+06
5.45777e+06
5.36477e+06
5.26897e+06
5.16712e+06
5.05952e+06
4.93869e+06
4.79987e+06
3.06475e+07
3.02865e+07
2.99718e+07
2.96916e+07
2.94364e+07
2.91984e+07
2.8973e+07
2.87571e+07
2.85486e+07
2.83463e+07
2.81492e+07
2.79565e+07
2.77676e+07
2.75818e+07
2.73987e+07
2.72182e+07
2.70398e+07
2.68634e+07
2.66887e+07
2.65156e+07
2.6344e+07
2.61736e+07
2.60045e+07
2.58366e+07
2.56697e+07
2.55038e+07
2.53389e+07
2.51749e+07
2.50118e+07
2.48495e+07
2.46879e+07
2.45272e+07
2.43672e+07
2.42079e+07
2.40493e+07
2.38913e+07
2.3734e+07
2.35774e+07
2.34214e+07
2.3266e+07
2.31113e+07
2.29571e+07
2.28035e+07
2.26505e+07
2.24981e+07
2.23463e+07
2.2195e+07
2.20443e+07
2.18941e+07
2.17445e+07
2.15954e+07
2.14469e+07
2.12989e+07
2.11514e+07
2.10045e+07
2.08581e+07
2.07123e+07
2.0567e+07
2.04222e+07
2.02779e+07
2.01341e+07
1.99909e+07
1.98482e+07
1.9706e+07
1.95643e+07
1.94232e+07
1.92826e+07
1.91425e+07
1.90029e+07
1.88638e+07
1.87252e+07
1.85872e+07
1.84496e+07
1.83126e+07
1.81761e+07
1.80401e+07
1.79047e+07
1.77697e+07
1.76352e+07
1.75013e+07
1.73679e+07
1.7235e+07
1.71026e+07
1.69707e+07
1.68393e+07
1.67084e+07
1.65781e+07
1.64482e+07
1.63189e+07
1.61901e+07
1.60618e+07
1.5934e+07
1.58067e+07
1.56799e+07
1.55536e+07
1.54279e+07
1.53026e+07
1.51779e+07
1.50537e+07
1.49299e+07
1.48067e+07
1.4684e+07
1.45619e+07
1.44402e+07
1.4319e+07
1.41984e+07
1.40782e+07
1.39586e+07
1.38395e+07
1.37209e+07
1.36028e+07
1.34852e+07
1.33681e+07
1.32515e+07
1.31355e+07
1.30199e+07
1.29049e+07
1.27903e+07
1.26763e+07
1.25628e+07
1.24498e+07
1.23373e+07
1.22253e+07
1.21138e+07
1.20028e+07
1.18924e+07
1.17824e+07
1.1673e+07
1.15641e+07
1.14556e+07
1.13477e+07
1.12403e+07
1.11334e+07
1.1027e+07
1.09211e+07
1.08157e+07
1.07108e+07
1.06064e+07
1.05026e+07
1.03992e+07
1.02963e+07
1.0194e+07
1.00921e+07
9.99075e+06
9.88989e+06
9.78953e+06
9.68966e+06
9.5903e+06
9.49143e+06
9.39305e+06
9.29517e+06
9.19778e+06
9.10088e+06
9.00447e+06
8.90854e+06
8.81309e+06
8.71813e+06
8.62364e+06
8.52963e+06
8.43609e+06
8.34301e+06
8.2504e+06
8.15825e+06
8.06655e+06
7.9753e+06
7.88449e+06
7.79412e+06
7.70417e+06
7.61465e+06
7.52553e+06
7.43681e+06
7.34849e+06
7.26054e+06
7.17295e+06
7.0857e+06
6.99879e+06
6.91217e+06
6.82584e+06
6.73976e+06
6.65391e+06
6.56824e+06
6.48274e+06
6.39735e+06
6.31202e+06
6.22668e+06
6.14127e+06
6.05567e+06
5.96981e+06
5.8835e+06
5.79665e+06
5.70892e+06
5.62023e+06
5.52984e+06
5.43791e+06
5.34262e+06
5.24478e+06
5.1402e+06
5.03021e+06
4.90798e+06
4.77013e+06
3.07113e+07
3.03548e+07
3.00382e+07
2.9753e+07
2.9492e+07
2.92485e+07
2.9018e+07
2.87976e+07
2.85852e+07
2.83794e+07
2.81792e+07
2.79837e+07
2.77922e+07
2.76041e+07
2.7419e+07
2.72365e+07
2.70565e+07
2.68785e+07
2.67024e+07
2.6528e+07
2.63552e+07
2.61838e+07
2.60138e+07
2.5845e+07
2.56773e+07
2.55108e+07
2.53452e+07
2.51806e+07
2.5017e+07
2.48542e+07
2.46922e+07
2.4531e+07
2.43707e+07
2.4211e+07
2.40521e+07
2.38939e+07
2.37364e+07
2.35796e+07
2.34234e+07
2.32678e+07
2.31129e+07
2.29586e+07
2.28048e+07
2.26517e+07
2.24992e+07
2.23472e+07
2.21959e+07
2.20451e+07
2.18948e+07
2.17451e+07
2.1596e+07
2.14474e+07
2.12994e+07
2.11519e+07
2.10049e+07
2.08585e+07
2.07126e+07
2.05673e+07
2.04224e+07
2.02781e+07
2.01344e+07
1.99911e+07
1.98484e+07
1.97062e+07
1.95645e+07
1.94233e+07
1.92827e+07
1.91426e+07
1.9003e+07
1.88639e+07
1.87253e+07
1.85873e+07
1.84497e+07
1.83127e+07
1.81762e+07
1.80402e+07
1.79047e+07
1.77697e+07
1.76353e+07
1.75013e+07
1.73679e+07
1.7235e+07
1.71026e+07
1.69707e+07
1.68393e+07
1.67084e+07
1.65781e+07
1.64482e+07
1.63189e+07
1.61901e+07
1.60618e+07
1.5934e+07
1.58067e+07
1.56799e+07
1.55536e+07
1.54279e+07
1.53026e+07
1.51779e+07
1.50537e+07
1.49299e+07
1.48067e+07
1.4684e+07
1.45619e+07
1.44402e+07
1.4319e+07
1.41984e+07
1.40782e+07
1.39586e+07
1.38395e+07
1.37209e+07
1.36028e+07
1.34852e+07
1.33681e+07
1.32515e+07
1.31354e+07
1.30199e+07
1.29048e+07
1.27903e+07
1.26763e+07
1.25628e+07
1.24498e+07
1.23373e+07
1.22253e+07
1.21138e+07
1.20028e+07
1.18923e+07
1.17824e+07
1.16729e+07
1.1564e+07
1.14556e+07
1.13476e+07
1.12402e+07
1.11333e+07
1.10269e+07
1.0921e+07
1.08156e+07
1.07107e+07
1.06063e+07
1.05024e+07
1.0399e+07
1.02962e+07
1.01938e+07
1.00919e+07
9.99052e+06
9.88964e+06
9.78925e+06
9.68937e+06
9.58997e+06
9.49107e+06
9.39266e+06
9.29475e+06
9.19732e+06
9.10037e+06
9.00391e+06
8.90793e+06
8.81243e+06
8.7174e+06
8.62285e+06
8.52876e+06
8.43514e+06
8.34198e+06
8.24927e+06
8.15702e+06
8.0652e+06
7.97383e+06
7.88288e+06
7.79236e+06
7.70225e+06
7.61255e+06
7.52324e+06
7.43432e+06
7.34576e+06
7.25756e+06
7.1697e+06
7.08216e+06
6.99492e+06
6.90795e+06
6.82123e+06
6.73472e+06
6.64841e+06
6.56223e+06
6.47619e+06
6.39018e+06
6.3042e+06
6.21813e+06
6.13194e+06
6.04546e+06
5.95868e+06
5.87128e+06
5.78334e+06
5.69425e+06
5.60429e+06
5.5122e+06
5.41877e+06
5.3214e+06
5.22176e+06
5.11508e+06
5.00321e+06
4.88064e+06
4.74429e+06
3.07685e+07
3.04167e+07
3.00994e+07
2.98107e+07
2.9545e+07
2.92966e+07
2.90616e+07
2.88371e+07
2.8621e+07
2.84119e+07
2.82086e+07
2.80103e+07
2.78164e+07
2.7626e+07
2.74389e+07
2.72546e+07
2.70729e+07
2.68934e+07
2.67159e+07
2.65403e+07
2.63663e+07
2.61939e+07
2.6023e+07
2.58533e+07
2.56849e+07
2.55176e+07
2.53514e+07
2.51863e+07
2.50221e+07
2.48588e+07
2.46964e+07
2.45349e+07
2.43741e+07
2.42142e+07
2.4055e+07
2.38965e+07
2.37388e+07
2.35817e+07
2.34253e+07
2.32696e+07
2.31145e+07
2.296e+07
2.28062e+07
2.26529e+07
2.25003e+07
2.23482e+07
2.21968e+07
2.20459e+07
2.18956e+07
2.17458e+07
2.15966e+07
2.1448e+07
2.12999e+07
2.11523e+07
2.10053e+07
2.08589e+07
2.0713e+07
2.05676e+07
2.04227e+07
2.02784e+07
2.01346e+07
1.99913e+07
1.98486e+07
1.97064e+07
1.95647e+07
1.94235e+07
1.92828e+07
1.91427e+07
1.90031e+07
1.8864e+07
1.87254e+07
1.85873e+07
1.84498e+07
1.83128e+07
1.81762e+07
1.80402e+07
1.79048e+07
1.77698e+07
1.76353e+07
1.75014e+07
1.73679e+07
1.7235e+07
1.71026e+07
1.69707e+07
1.68393e+07
1.67085e+07
1.65781e+07
1.64482e+07
1.63189e+07
1.61901e+07
1.60618e+07
1.5934e+07
1.58067e+07
1.56799e+07
1.55536e+07
1.54279e+07
1.53026e+07
1.51779e+07
1.50537e+07
1.49299e+07
1.48067e+07
1.4684e+07
1.45619e+07
1.44402e+07
1.4319e+07
1.41984e+07
1.40782e+07
1.39586e+07
1.38395e+07
1.37208e+07
1.36027e+07
1.34851e+07
1.33681e+07
1.32515e+07
1.31354e+07
1.30199e+07
1.29048e+07
1.27903e+07
1.26763e+07
1.25627e+07
1.24497e+07
1.23372e+07
1.22252e+07
1.21137e+07
1.20028e+07
1.18923e+07
1.17823e+07
1.16729e+07
1.15639e+07
1.14555e+07
1.13476e+07
1.12401e+07
1.11332e+07
1.10268e+07
1.09209e+07
1.08155e+07
1.07106e+07
1.06062e+07
1.05023e+07
1.03989e+07
1.0296e+07
1.01936e+07
1.00917e+07
9.99029e+06
9.88939e+06
9.78898e+06
9.68907e+06
9.58965e+06
9.49072e+06
9.39228e+06
9.29432e+06
9.19686e+06
9.09987e+06
9.00336e+06
8.90733e+06
8.81177e+06
8.71668e+06
8.62206e+06
8.52791e+06
8.4342e+06
8.34096e+06
8.24816e+06
8.1558e+06
8.06387e+06
7.97237e+06
7.88129e+06
7.79063e+06
7.70036e+06
7.61048e+06
7.52098e+06
7.43185e+06
7.34307e+06
7.25462e+06
7.16649e+06
7.07866e+06
6.9911e+06
6.90378e+06
6.81669e+06
6.72975e+06
6.643e+06
6.5563e+06
6.46974e+06
6.38311e+06
6.29652e+06
6.2097e+06
6.1228e+06
6.03542e+06
5.94779e+06
5.85931e+06
5.77037e+06
5.67996e+06
5.58883e+06
5.49515e+06
5.40034e+06
5.30117e+06
5.19989e+06
5.09182e+06
4.97839e+06
4.85592e+06
4.72124e+06
3.08204e+07
3.04732e+07
3.0156e+07
2.98648e+07
2.95953e+07
2.93427e+07
2.91036e+07
2.88753e+07
2.86558e+07
2.84435e+07
2.82373e+07
2.80364e+07
2.78401e+07
2.76476e+07
2.74584e+07
2.72723e+07
2.7089e+07
2.6908e+07
2.67292e+07
2.65523e+07
2.63773e+07
2.62039e+07
2.6032e+07
2.58615e+07
2.56923e+07
2.55243e+07
2.53575e+07
2.51918e+07
2.50271e+07
2.48634e+07
2.47006e+07
2.45386e+07
2.43776e+07
2.42173e+07
2.40578e+07
2.38991e+07
2.37411e+07
2.35838e+07
2.34272e+07
2.32713e+07
2.3116e+07
2.29614e+07
2.28074e+07
2.26541e+07
2.25013e+07
2.23492e+07
2.21976e+07
2.20467e+07
2.18963e+07
2.17465e+07
2.15972e+07
2.14485e+07