/*--------------------------------*- C++ -*----------------------------------*\
| =========                 |                                                 |
| \\      /  F ield         | OpenFOAM: The Open Source CFD Toolbox           |
|  \\    /   O peration     | Version:  2.4.0                                 |
|   \\  /    A nd           | Web:      www.OpenFOAM.org                      |
|    \\/     M anipulation  |                                                 |
\*---------------------------------------------------------------------------*/
FoamFile
{
    version     2.0;
    format      ascii;
    class       volScalarField;
    location    "0.112";
    object      k_0;
}
// * * * * * * * * * * * * * * * * * * * * * * * * * * * * * * * * * * * * * //

dimensions      [0 2 -2 0 0 0 0];

internalField   nonuniform List<scalar> 
17600
(
9.29389
7.40419
5.13358
3.91696
3.36796
2.91778
2.7367
2.4362
2.36387
2.17838
2.1543
2.00527
2.03387
1.88872
1.95019
1.81301
1.91565
1.87188
1.79258
2.04257
4.51128
6.19952
5.84917
5.02989
4.45891
3.87861
3.6599
3.25998
3.15662
2.92054
2.85543
2.67527
2.68122
2.50806
2.56084
2.40907
2.48832
2.40774
2.39425
2.5739
1.32894
3.27626
4.00554
3.94865
3.79089
3.41572
3.27537
2.97171
2.87983
2.68889
2.62156
2.46605
2.45791
2.3156
2.34054
2.22235
2.26394
2.17668
2.18222
2.32244
0.208874
1.18957
1.94435
2.29504
2.53969
2.48935
2.48438
2.38562
2.33152
2.22339
2.18099
2.07189
2.06463
1.97092
1.97428
1.89396
1.91182
1.84447
1.82753
1.92913
0.0262163
0.256288
0.668939
0.92299
1.28202
1.39644
1.55445
1.59689
1.62343
1.61725
1.61966
1.58313
1.58171
1.5523
1.5466
1.502
1.5039
1.48417
1.44706
1.45993
0.00277399
0.0426816
0.156543
0.244229
0.439737
0.551963
0.693563
0.827188
0.893543
0.949582
1.02197
1.03358
1.04512
1.08074
1.07946
1.07741
1.06947
1.08524
1.07692
1.03988
0.000289141
0.00628385
0.0260978
0.0463968
0.0975893
0.153733
0.197421
0.298257
0.353483
0.398072
0.482693
0.527556
0.541589
0.6085
0.623932
0.654228
0.645441
0.684232
0.691679
0.678337
5.50547e-05
0.000930429
0.00361905
0.00673597
0.0136911
0.0297188
0.0402009
0.069151
0.0961894
0.112249
0.153811
0.190932
0.199277
0.24474
0.262075
0.302516
0.296679
0.335644
0.342975
0.358635
3.05389e-05
0.000163631
0.000609667
0.000944605
0.00169205
0.00400529
0.00579806
0.010531
0.0180486
0.0217163
0.032199
0.0464951
0.0496985
0.0662229
0.0744452
0.0957826
0.0941099
0.115063
0.118142
0.134622
2.31632e-05
4.68211e-05
0.00026406
0.000302791
0.000375852
0.000661431
0.000842187
0.00131032
0.00265654
0.00313923
0.00478983
0.00796331
0.00850229
0.011946
0.0142483
0.0200796
0.0198564
0.026223
0.0270437
0.0316628
2.42845e-05
4.62014e-05
0.000218325
0.000216651
0.000219859
0.000304779
0.000302002
0.000336419
0.000503985
0.000534474
0.00077313
0.00129649
0.00128387
0.00174567
0.00215252
0.00296727
0.00287486
0.00400459
0.00424188
0.00493872
2.63642e-05
3.45586e-05
8.49563e-05
8.53943e-05
0.000109661
0.000149501
0.000148539
0.000186327
0.000185051
0.000174108
0.000225235
0.000290373
0.00028154
0.000377094
0.000409195
0.00045921
0.000449458
0.000593725
0.00065918
0.000788876
2.54148e-05
5.06038e-05
5.58084e-05
5.80054e-05
0.000100265
0.000104106
0.000114293
0.000164058
0.000152324
0.000168284
0.000176749
0.00017639
0.000185461
0.000229155
0.000220105
0.000217111
0.000219327
0.000239208
0.000246869
0.000279495
2.23024e-05
4.26931e-05
4.24334e-05
6.47874e-05
7.26978e-05
8.33366e-05
0.00011765
0.000128056
0.000129971
0.000151569
0.000147082
0.000144907
0.000163828
0.000173284
0.000175366
0.000186524
0.000183814
0.000180594
0.000179295
0.000202733
2.13183e-05
2.96639e-05
3.56053e-05
6.15698e-05
6.77313e-05
7.7137e-05
9.51567e-05
0.000101737
0.000127715
0.00012457
0.000123284
0.00012936
0.000133409
0.000135694
0.00014424
0.00015535
0.000148145
0.000145522
0.000145861
0.000153254
2.07896e-05
2.62291e-05
3.96886e-05
4.41356e-05
4.6429e-05
6.21454e-05
6.20897e-05
6.42897e-05
8.25821e-05
8.06873e-05
8.05853e-05
9.51711e-05
9.34337e-05
9.42624e-05
0.000106325
0.000108142
0.000104769
0.000109382
0.000113628
0.000111934
2.11335e-05
2.72241e-05
4.37501e-05
4.45398e-05
4.98695e-05
5.33484e-05
5.70564e-05
7.26029e-05
7.44909e-05
7.4057e-05
7.78936e-05
8.30392e-05
8.16436e-05
8.50288e-05
9.45317e-05
9.34219e-05
9.29514e-05
9.88488e-05
9.8816e-05
9.51456e-05
2.12028e-05
2.9222e-05
3.80212e-05
3.92008e-05
4.30415e-05
4.79126e-05
4.7687e-05
5.62113e-05
5.84534e-05
5.81736e-05
6.34548e-05
6.39937e-05
6.31926e-05
6.85756e-05
7.06119e-05
7.15183e-05
7.37681e-05
7.59857e-05
7.60676e-05
7.71557e-05
2.05471e-05
2.63771e-05
3.35124e-05
4.0032e-05
4.22151e-05
4.468e-05
5.01185e-05
5.03968e-05
5.48788e-05
5.81873e-05
5.97076e-05
6.10068e-05
6.16841e-05
6.15225e-05
6.20131e-05
6.57035e-05
6.72488e-05
6.89226e-05
6.93816e-05
7.05737e-05
2.04979e-05
2.86807e-05
3.28928e-05
3.55337e-05
4.09142e-05
4.42639e-05
4.47958e-05
4.90391e-05
5.10447e-05
5.35388e-05
5.4673e-05
5.57112e-05
5.5566e-05
5.5776e-05
5.73204e-05
5.85184e-05
5.84136e-05
5.93382e-05
5.89221e-05
5.9808e-05
2.05247e-05
2.78919e-05
3.12791e-05
3.74992e-05
4.53117e-05
4.6981e-05
4.72705e-05
4.89126e-05
4.80451e-05
4.7611e-05
5.06654e-05
5.37026e-05
5.37389e-05
5.40284e-05
5.43592e-05
5.40635e-05
5.3711e-05
5.42291e-05
5.50428e-05
5.85776e-05
2.07699e-05
2.47563e-05
2.9369e-05
4.68194e-05
4.9637e-05
4.813e-05
4.65507e-05
4.41854e-05
4.42795e-05
4.56129e-05
5.14497e-05
5.26313e-05
5.24323e-05
5.24307e-05
5.28433e-05
5.23564e-05
5.24312e-05
5.27222e-05
5.45406e-05
6.14353e-05
2.06687e-05
2.47582e-05
3.94345e-05
5.33089e-05
5.03924e-05
4.5492e-05
4.37439e-05
4.29891e-05
4.37626e-05
5.22346e-05
5.54379e-05
5.49328e-05
5.36794e-05
5.39404e-05
5.35766e-05
5.31003e-05
5.30405e-05
5.42283e-05
5.58677e-05
5.84496e-05
2.08808e-05
2.58106e-05
4.95893e-05
4.91849e-05
4.24072e-05
4.20173e-05
4.40627e-05
4.71259e-05
5.60862e-05
5.99827e-05
5.96098e-05
5.65784e-05
5.58402e-05
5.54514e-05
5.49358e-05
5.58691e-05
5.70813e-05
6.2229e-05
6.38127e-05
7.19192e-05
2.11019e-05
3.16286e-05
4.22934e-05
3.87994e-05
3.84839e-05
4.85345e-05
5.39705e-05
5.89545e-05
6.1911e-05
6.15093e-05
5.91783e-05
5.66249e-05
5.65524e-05
5.68044e-05
5.8259e-05
6.39628e-05
6.81717e-05
7.0215e-05
7.07088e-05
7.64607e-05
2.10779e-05
3.04292e-05
3.43774e-05
3.68404e-05
5.28269e-05
6.25956e-05
6.10568e-05
6.14339e-05
6.106e-05
6.00435e-05
5.94142e-05
5.93129e-05
6.04418e-05
6.59914e-05
6.98539e-05
7.66664e-05
7.87333e-05
7.94317e-05
8.21857e-05
9.6153e-05
2.14098e-05
2.75138e-05
3.68859e-05
5.75199e-05
6.46784e-05
6.30714e-05
5.80865e-05
5.89203e-05
6.17613e-05
6.66284e-05
6.94471e-05
7.04677e-05
7.47102e-05
7.87345e-05
8.19567e-05
9.25676e-05
9.59901e-05
0.000103934
0.000129527
0.000227951
2.1757e-05
2.90997e-05
5.15232e-05
6.10459e-05
6.07845e-05
5.85654e-05
5.97524e-05
6.84518e-05
8.21995e-05
8.48128e-05
8.53372e-05
8.58679e-05
9.33289e-05
9.90846e-05
0.000112265
0.000152479
0.000178544
0.000253437
0.000460953
0.00110339
2.21539e-05
3.09975e-05
5.87467e-05
5.94149e-05
6.46139e-05
7.0518e-05
9.33377e-05
0.000106565
0.000113656
0.000118828
0.000124534
0.000139632
0.000209656
0.000254261
0.000348014
0.000625751
0.000841915
0.00144113
0.00280676
0.00700277
2.29154e-05
3.4929e-05
7.37373e-05
7.88696e-05
0.000110879
0.000129125
0.000166191
0.000228713
0.000266961
0.000402112
0.000502496
0.000715836
0.00133395
0.00168009
0.00238878
0.00446047
0.00593695
0.00988582
0.0165569
0.0380599
2.45228e-05
5.2054e-05
0.000135793
0.00017468
0.000310705
0.000433242
0.000673008
0.00135185
0.00181633
0.00326953
0.00419076
0.0062822
0.0100382
0.0126306
0.0168971
0.0281042
0.0345489
0.05193
0.0734358
0.144477
2.80239e-05
0.000152909
0.000508879
0.000860455
0.00193323
0.00313646
0.00540351
0.0113078
0.0148418
0.0244365
0.0300291
0.041746
0.0591684
0.0685188
0.0860617
0.122408
0.139797
0.185284
0.232237
0.382812
4.93265e-05
0.000893346
0.00331927
0.00637505
0.0156046
0.024329
0.0413916
0.0714773
0.0870967
0.124538
0.145779
0.18269
0.229608
0.250572
0.294303
0.356109
0.386263
0.459199
0.525648
0.700158
0.000280845
0.0064643
0.0242889
0.045254
0.100896
0.139866
0.218893
0.290917
0.340211
0.421474
0.472119
0.525666
0.591144
0.616746
0.673293
0.72861
0.758658
0.830572
0.891742
1.03338
0.00274986
0.0450201
0.147711
0.247932
0.439513
0.547261
0.717302
0.810803
0.8954
0.966729
1.01298
1.04533
1.08794
1.09609
1.12956
1.15001
1.16943
1.21275
1.25334
1.3311
0.0260704
0.273385
0.641418
0.953812
1.26151
1.40771
1.56089
1.58628
1.62833
1.62214
1.61914
1.6017
1.59755
1.57059
1.57395
1.55627
1.55733
1.55555
1.56445
1.56299
0.20795
1.19988
1.92175
2.32244
2.52044
2.50777
2.48113
2.3776
2.3315
2.21983
2.17608
2.08949
2.05631
1.98364
1.96354
1.89911
1.87968
1.8259
1.7887
1.71623
1.32379
3.28697
3.99335
3.96006
3.76984
3.45387
3.23987
2.98165
2.88036
2.67425
2.60686
2.47171
2.41653
2.30848
2.26442
2.15123
2.10814
1.98749
1.89357
1.74525
4.50726
6.20769
5.84026
5.05161
4.4129
3.92936
3.6047
3.28301
3.14857
2.89985
2.82536
2.66417
2.59591
2.4654
2.40031
2.24465
2.17797
1.99497
1.84108
1.60578
9.28948
7.41085
5.12237
3.93565
3.33372
2.95222
2.69409
2.451
2.34621
2.1635
2.11028
1.98487
1.92918
1.82021
1.76147
1.61616
1.54581
1.36834
1.20763
0.975498
1.34659
0.836023
0.743994
0.639376
0.43737
0.315964
0.296078
0.277751
0.282117
0.305086
0.334961
0.358961
0.390918
0.378456
0.327889
0.186885
0.0914547
0.0459984
0.0254858
0.0127261
0.01118
0.00942973
0.0174589
0.0193638
0.0217753
0.0551465
0.186895
0.375675
0.389306
0.32602
0.206767
0.158924
0.155615
0.158142
0.170849
0.179924
0.179211
0.149027
0.11216
0.0829026
0.0635896
0.0532623
0.0499588
0.0496315
0.049982
0.0516082
0.0575055
0.0737783
0.0808394
0.0793081
0.062492
0.0425384
0.0394188
0.0453359
0.0801676
0.155245
0.199878
0.21376
0.216447
0.221061
0.219923
0.210144
0.195605
0.182608
0.165566
0.147781
0.138517
0.13231
0.127803
0.124851
0.120476
0.112984
0.106368
0.100692
0.0948174
0.087788
0.080317
0.0768055
0.0738464
0.0689489
0.0662605
0.0654634
0.0619624
0.0552598
0.0506352
0.0467476
0.0425532
0.0390599
0.0376242
0.0377426
0.0382684
0.0380724
0.0356753
0.0340678
0.0341946
0.0364212
0.0443179
0.0696149
0.098299
0.102158
0.0932061
0.0672621
0.0527368
0.0464671
0.0382754
0.0340703
0.0332469
0.0333814
0.0341113
0.0371936
0.0403172
0.0427491
0.0433439
0.0436353
0.043719
0.0440744
0.0448902
0.0449159
0.0446203
0.0436119
0.0371008
0.0282719
0.0240451
0.0239061
0.0251418
0.0245873
0.0228114
0.0213853
0.0213396
0.0225732
0.0238758
0.0239417
0.0239095
0.0239598
0.0246978
0.0310223
0.0442601
0.0523494
0.0616983
0.0666464
0.0848949
0.116682
0.133893
0.13474
0.114465
0.0770471
0.0515212
0.0354073
0.0301593
0.0303988
0.032487
0.0423773
0.0546454
0.0609284
0.0628541
0.065268
0.0695282
0.0785689
0.0872343
0.0890162
0.0848725
0.0660986
0.0510644
0.0394694
0.0308232
0.0259019
0.0235312
0.0232023
0.023445
0.0245053
0.0268169
0.0302247
0.0420937
0.0522128
0.0559454
0.0570051
0.0578977
0.0596339
0.061449
0.0634311
0.0624903
0.0592303
0.0430089
0.0299216
0.0190498
0.0135418
0.0091123
0.00705784
0.00523544
0.004237
0.00362335
0.0030691
0.00305789
0.00294829
0.00273352
0.00291288
0.00335034
0.00527305
0.037742
0.460486
2.01658
1.44508
0.982617
0.746297
0.555716
0.491236
0.490046
0.469615
0.447862
0.446114
0.441166
0.436945
0.42384
0.384528
0.267916
0.13374
0.0622485
0.0300068
0.0172201
0.00938687
0.00887549
0.00896379
0.0101839
0.0153827
0.0150202
0.0348025
0.15113
0.366731
0.394892
0.348358
0.228043
0.191096
0.19355
0.196534
0.203833
0.211646
0.207997
0.170666
0.128206
0.0939871
0.0704369
0.0571005
0.052385
0.0520932
0.0528529
0.0559207
0.0686953
0.0833041
0.0869069
0.0807942
0.0539768
0.0408605
0.0412001
0.0562898
0.12656
0.185974
0.214551
0.223626
0.232277
0.238209
0.225897
0.208034
0.180339
0.155922
0.142731
0.138135
0.134354
0.130342
0.126884
0.123996
0.118406
0.109485
0.10138
0.0947455
0.0882901
0.081455
0.0737792
0.0702471
0.0692257
0.0663587
0.0639559
0.0629477
0.0595284
0.0527452
0.0478023
0.0441686
0.0409636
0.0382197
0.0371527
0.0374798
0.0381754
0.0381331
0.0362377
0.0341249
0.0339414
0.0352513
0.0406321
0.0582983
0.0911159
0.0992311
0.0946488
0.0740164
0.0551589
0.0468048
0.0393276
0.0349904
0.0336508
0.033776
0.0342372
0.0361537
0.0394621
0.0423061
0.0431239
0.0436569
0.0439447
0.0447711
0.0452716
0.0450161
0.0440606
0.0427927
0.0370356
0.0280398
0.0233828
0.0229161
0.0245428
0.0243243
0.0226087
0.0208513
0.0205581
0.0216414
0.0235034
0.02392
0.0241134
0.0242939
0.0250348
0.0313175
0.0422857
0.0537729
0.0658721
0.0703251
0.0862311
0.120503
0.141513
0.142368
0.119082
0.078179
0.0513175
0.0348719
0.0290275
0.0287169
0.0299105
0.037473
0.0502062
0.0579093
0.0609345
0.0631803
0.0667985
0.0756246
0.0843562
0.0868134
0.0837941
0.0679008
0.0526423
0.0405428
0.0317333
0.0268183
0.0241921
0.0239713
0.0242088
0.0254515
0.0277342
0.0317344
0.0435004
0.0535756
0.0567467
0.057108
0.0583495
0.0592581
0.0617715
0.0621586
0.0623811
0.0597285
0.0469158
0.030694
0.0209232
0.013642
0.0100143
0.00697315
0.00567114
0.00430933
0.00376842
0.00335511
0.00299512
0.0029749
0.00284374
0.00291616
0.00390629
0.00506969
0.0350243
0.315946
1.91817
1.58171
1.34507
0.966783
0.777666
0.686899
0.633926
0.608739
0.585408
0.53466
0.489669
0.464187
0.42801
0.336505
0.174124
0.0800075
0.0368298
0.0173497
0.0107798
0.00627091
0.00614668
0.00821615
0.00817253
0.0122276
0.0116784
0.0179316
0.0812106
0.311211
0.411891
0.395324
0.30349
0.288805
0.292883
0.280009
0.267978
0.260262
0.240249
0.194253
0.147829
0.109995
0.0821628
0.0644914
0.0577731
0.0573002
0.0585049
0.0637994
0.0814621
0.0921736
0.0915585
0.0736033
0.0456572
0.0402126
0.045472
0.0807464
0.170214
0.207293
0.228107
0.239901
0.251195
0.243724
0.217797
0.179504
0.143913
0.136119
0.133751
0.131895
0.128879
0.127467
0.124647
0.118753
0.108204
0.0978201
0.0900908
0.0839174
0.078247
0.072719
0.0666291
0.0631011
0.0624509
0.061039
0.0601403
0.0596624
0.0567771
0.0502168
0.0451469
0.0417061
0.0389915
0.036898
0.0361902
0.0369417
0.0380419
0.0380931
0.0365467
0.03414
0.0336438
0.0343647
0.0378694
0.0487558
0.0813488
0.0952162
0.0936606
0.0790265
0.0596108
0.0477858
0.0401872
0.0357495
0.0340779
0.0341659
0.0345116
0.0360664
0.0394865
0.0421838
0.0431429
0.0441201
0.0451886
0.0466399
0.0468137
0.0450675
0.0430531
0.041617
0.0363398
0.0277118
0.0228606
0.0219295
0.0237242
0.0238916
0.0224841
0.0203512
0.0199052
0.0205736
0.0232199
0.0241176
0.0245526
0.0249347
0.0258469
0.0324847
0.0404647
0.0561865
0.0704845
0.0747938
0.0886232
0.123894
0.148385
0.149313
0.123831
0.0796694
0.0513309
0.0346659
0.0284449
0.0280717
0.0285126
0.0328247
0.0458744
0.0548738
0.0587346
0.0609915
0.0644552
0.0724884
0.0817931
0.0846544
0.0828278
0.0692904
0.0537786
0.0421431
0.0329239
0.0277585
0.0251509
0.0249864
0.0252962
0.0262912
0.0287171
0.0335092
0.0458393
0.0552522
0.0570608
0.0580353
0.0580019
0.0601379
0.0611386
0.0620482
0.0622907
0.0603903
0.0500561
0.0329779
0.0219959
0.0148042
0.0100991
0.00763574
0.00562659
0.00461006
0.00379414
0.00333249
0.00323643
0.00301652
0.00324026
0.0031037
0.00446602
0.00521195
0.0320222
0.200732
1.71621
1.45365
1.29017
1.14127
0.982002
0.868998
0.796078
0.715362
0.643418
0.560773
0.497888
0.451726
0.368766
0.207663
0.0931416
0.0397256
0.0206861
0.0112011
0.00799925
0.00510287
0.00447298
0.00671651
0.00721212
0.00859277
0.00979273
0.012338
0.0396534
0.191235
0.388176
0.411423
0.394993
0.38943
0.386048
0.363311
0.326758
0.296165
0.263423
0.216562
0.169418
0.130522
0.0987174
0.0757855
0.0663908
0.0656281
0.0671616
0.0768764
0.0945668
0.100777
0.0940931
0.0616332
0.0419251
0.041773
0.056303
0.128934
0.200809
0.221122
0.243225
0.260166
0.257003
0.236266
0.178673
0.143824
0.131396
0.129747
0.127595
0.126346
0.125631
0.122299
0.114426
0.1032
0.0911601
0.0814744
0.0752176
0.0700924
0.066945
0.0642028
0.0598403
0.0575606
0.0567784
0.0558282
0.055716
0.05574
0.053396
0.0473565
0.0426469
0.0395223
0.037254
0.0356658
0.0351988
0.0363604
0.0377994
0.038017
0.036824
0.0341921
0.033276
0.033575
0.0356973
0.0425366
0.0684215
0.0905411
0.092047
0.0847887
0.0642989
0.0500487
0.0416506
0.0373126
0.035765
0.0359383
0.0364176
0.0375607
0.0406333
0.0428207
0.043912
0.0456763
0.04778
0.0487562
0.0480536
0.0440298
0.0416485
0.0399296
0.035028
0.0271876
0.0223957
0.0212782
0.0227952
0.0234165
0.0222113
0.0199878
0.0191854
0.0194947
0.0227435
0.0243152
0.0249677
0.0255321
0.0267266
0.0340436
0.0403198
0.0600608
0.0729962
0.0784895
0.0906169
0.123988
0.153726
0.15579
0.130236
0.081824
0.0514719
0.0349071
0.0282256
0.0274874
0.027733
0.0300607
0.0412902
0.0512161
0.0566581
0.0590061
0.0620154
0.0696291
0.0788749
0.0828856
0.0818533
0.0726581
0.055389
0.0434255
0.0347069
0.0295509
0.0264773
0.0265455
0.0269608
0.028052
0.0304863
0.0358286
0.0498596
0.0557811
0.0589877
0.0583713
0.0583394
0.0601043
0.0609874
0.0623515
0.0616135
0.0611315
0.0521564
0.0371359
0.0231861
0.0159715
0.0107779
0.00765091
0.00616171
0.00459049
0.00417468
0.00338677
0.00326603
0.00318112
0.00341342
0.00322605
0.00665422
0.00589991
0.0255893
0.125711
1.36969
1.25532
1.11525
1.06994
0.982422
0.867887
0.777784
0.687307
0.586657
0.487127
0.416648
0.344031
0.198981
0.0941058
0.0423508
0.0206433
0.0117388
0.00686875
0.00516887
0.0042098
0.00382163
0.00528444
0.00613754
0.00647111
0.0081433
0.00915505
0.0174561
0.0775837
0.2923
0.38792
0.404704
0.40576
0.398837
0.373161
0.331772
0.290897
0.258066
0.219199
0.179205
0.144965
0.1126
0.0872974
0.0772206
0.0766661
0.0790672
0.0937833
0.107343
0.106412
0.0862492
0.0483138
0.0405078
0.0450399
0.0801008
0.176095
0.219639
0.23444
0.264721
0.26736
0.255785
0.196305
0.148334
0.133771
0.128321
0.128069
0.12581
0.123539
0.117939
0.106835
0.0954291
0.0832171
0.0713873
0.0632821
0.0584838
0.05461
0.0533447
0.053542
0.0534277
0.0530666
0.0528829
0.0519566
0.0519103
0.0520356
0.0500672
0.0445616
0.040336
0.0376609
0.0358
0.0346154
0.0343727
0.0358235
0.037592
0.0378996
0.0370747
0.0342492
0.0328737
0.0329215
0.0341121
0.038318
0.0563154
0.0828117
0.0891273
0.0862386
0.0721964
0.0548004
0.044055
0.0398184
0.0386421
0.0389076
0.0393853
0.0410145
0.0431615
0.0442216
0.0454828
0.0480354
0.0500982
0.0506274
0.0487106
0.0426519
0.0400319
0.0382089
0.033497
0.0263615
0.0219359
0.0205911
0.0218338
0.0229038
0.0220212
0.0195954
0.0185271
0.018616
0.0219063
0.0245056
0.0254539
0.0260995
0.0272133
0.0343136
0.0410494
0.0637428
0.0730818
0.0802615
0.0926993
0.121868
0.158762
0.163425
0.139384
0.0854387
0.0523851
0.0347447
0.0285149
0.0274041
0.0273017
0.0283188
0.0373008
0.0479704
0.0542051
0.0574712
0.06044
0.0664586
0.0758564
0.080194
0.0801782
0.0748379
0.0600368
0.0465598
0.0363376
0.0319446
0.02843
0.0282491
0.0285732
0.0296116
0.0320443
0.0401883
0.0516338
0.0576781
0.0599049
0.0593045
0.0586551
0.0594989
0.0619714
0.0610365
0.0625012
0.0606302
0.0571233
0.0383741
0.0270728
0.0165058
0.0124392
0.00823248
0.00629301
0.00493461
0.00417207
0.00380024
0.00349484
0.00321626
0.00464442
0.00390963
0.00970463
0.00736056
0.0220707
0.0811896
0.948022
0.910682
0.867994
0.853011
0.823421
0.735032
0.626855
0.541416
0.412027
0.311838
0.25684
0.151677
0.0806775
0.0405514
0.0196929
0.0102901
0.00690563
0.00470611
0.00368947
0.00355407
0.00352236
0.00494577
0.00549308
0.00530632
0.00636554
0.00722695
0.0108355
0.0351861
0.121636
0.297782
0.347776
0.335023
0.299964
0.265113
0.223538
0.200795
0.196588
0.193823
0.178413
0.153996
0.12355
0.0982627
0.0896169
0.0898708
0.0947499
0.112421
0.118666
0.110006
0.0693385
0.0424315
0.0415243
0.0556043
0.127914
0.210738
0.229716
0.251384
0.276483
0.26902
0.229293
0.157686
0.139645
0.131956
0.128849
0.128406
0.12239
0.11145
0.0962552
0.0870847
0.0773134
0.0687999
0.0614515
0.0560188
0.0527322
0.0490453
0.0467526
0.0466665
0.0472588
0.0486162
0.049229
0.0490181
0.0489232
0.0489349
0.0471211
0.0420895
0.0384351
0.0362315
0.0347191
0.0338328
0.0337108
0.0354317
0.037396
0.0378188
0.0371514
0.0343283
0.032573
0.0323769
0.0328799
0.0352639
0.0451769
0.0730685
0.0860042
0.0855403
0.0790284
0.0627614
0.0491748
0.0432803
0.0416242
0.0417672
0.0422314
0.044352
0.0463
0.0467378
0.0474415
0.0503634
0.0523394
0.0520622
0.0475432
0.0408128
0.0381923
0.036376
0.0316611
0.0254257
0.0213078
0.0200516
0.0208426
0.0222846
0.0217063
0.0192037
0.0179486
0.0179099
0.0208235
0.0245038
0.0259971
0.0267103
0.0277328
0.0337125
0.0416449
0.0665225
0.0726561
0.0819269
0.0932475
0.116735
0.1663
0.173369
0.150877
0.090333
0.0535583
0.0349651
0.0279403
0.0273151
0.0271514
0.027364
0.0333266
0.0448589
0.0519039
0.055818
0.0589524
0.0651851
0.0727699
0.0784128
0.0787341
0.0754541
0.0626117
0.0519406
0.0410284
0.0339157
0.0302599
0.0302253
0.0307497
0.0321416
0.0352451
0.0462231
0.0551595
0.0602514
0.0610658
0.0600666
0.058393
0.060451
0.0607736
0.0619343
0.0615108
0.0622354
0.0589098
0.0459344
0.0280324
0.0193582
0.012354
0.0101333
0.00700821
0.00521779
0.00450743
0.00390446
0.00452547
0.00378299
0.00604036
0.00467628
0.0144185
0.00951771
0.0176608
0.0548522
0.612607
0.563783
0.563595
0.562966
0.553179
0.511251
0.422046
0.333397
0.221191
0.165811
0.10371
0.0577456
0.0318389
0.0168396
0.00878824
0.00502754
0.00376794
0.00299852
0.00287299
0.00301885
0.00330645
0.00489101
0.00530989
0.00464559
0.00497917
0.00621656
0.00934156
0.0199605
0.0491278
0.151441
0.170183
0.148118
0.110687
0.0905468
0.0869351
0.102889
0.130336
0.148141
0.152456
0.150909
0.129965
0.10817
0.10369
0.105577
0.116142
0.127692
0.124407
0.0986194
0.0500089
0.0399028
0.0440547
0.0786211
0.177815
0.227564
0.240075
0.273212
0.280529
0.254693
0.190936
0.144509
0.138515
0.134413
0.130938
0.122006
0.101273
0.0847901
0.0793734
0.0773959
0.0710011
0.0644426
0.0588962
0.0543318
0.0514548
0.0485168
0.0450945
0.0436367
0.0437086
0.0452056
0.0464567
0.0465517
0.0465344
0.0463899
0.0448116
0.0402853
0.0371501
0.0353039
0.0340891
0.0334345
0.0333736
0.0351708
0.0372379
0.0377469
0.0372432
0.0345013
0.032229
0.0317734
0.0318956
0.0330754
0.0385439
0.0613923
0.0799213
0.0836234
0.0811049
0.0727048
0.0575647
0.0494569
0.0463133
0.0462776
0.0465967
0.0488465
0.0496
0.0496037
0.0506065
0.0539162
0.0548657
0.0531123
0.0451057
0.0384849
0.0362134
0.03425
0.0294357
0.0239542
0.0207702
0.0197125
0.0201775
0.0218719
0.0213953
0.0187855
0.0172934
0.0171591
0.0194543
0.0241617
0.0264304
0.0271402
0.0282901
0.0321048
0.0423386
0.067382
0.0720801
0.0841786
0.0924396
0.111225
0.176839
0.185596
0.162972
0.0957066
0.0546586
0.0349821
0.0280162
0.0270342
0.0268273
0.0269069
0.030553
0.042012
0.0496516
0.0537183
0.057627
0.0629246
0.0709804
0.076003
0.0776515
0.076077
0.0675424
0.0546963
0.0438481
0.038675
0.0333565
0.033519
0.0338704
0.035261
0.0394423
0.0499497
0.0568274
0.0617919
0.0616867
0.0590328
0.0595505
0.0586622
0.0614194
0.061715
0.06191
0.0642227
0.0636847
0.054808
0.0354134
0.0213069
0.0144017
0.00981473
0.00877523
0.00619785
0.00627251
0.00494031
0.00588808
0.00449232
0.010427
0.00710486
0.0311475
0.0156716
0.0175798
0.038008
0.334881
0.308221
0.311912
0.308907
0.295411
0.257243
0.181336
0.122624
0.0781824
0.051243
0.0314568
0.0186163
0.0116576
0.00659213
0.00378135
0.00261657
0.00241851
0.00231466
0.00236086
0.00251867
0.00290937
0.00476105
0.00530768
0.00456887
0.00455577
0.00530169
0.0069022
0.0117896
0.0266315
0.0705953
0.0719371
0.0542155
0.0337782
0.0296101
0.0478181
0.085991
0.112262
0.131061
0.139932
0.141674
0.132562
0.120082
0.120315
0.125663
0.139041
0.139217
0.126065
0.0730798
0.0417527
0.0396167
0.0539821
0.126836
0.213362
0.236972
0.251103
0.286101
0.278648
0.221451
0.174888
0.140076
0.141492
0.136222
0.123392
0.0953334
0.0741179
0.0732619
0.0742998
0.0737512
0.068614
0.0628012
0.0580218
0.0538328
0.0510279
0.0485701
0.0449238
0.0422969
0.0419323
0.0429127
0.0442981
0.0444275
0.0444338
0.0442088
0.0430405
0.0392116
0.0364772
0.0348628
0.033823
0.0333085
0.0332896
0.0351288
0.0372174
0.0377367
0.0372699
0.0346101
0.0318759
0.0311581
0.0310919
0.0314787
0.0342696
0.047877
0.0726184
0.0810177
0.0805762
0.0771922
0.0672933
0.0586317
0.0540047
0.0522263
0.0524647
0.0538104
0.0533392
0.0528903
0.0545655
0.0571891
0.0568247
0.0518371
0.041895
0.0358729
0.0338751
0.0316612
0.0269996
0.0224514
0.0201671
0.0195371
0.0197887
0.0213423
0.0210593
0.0184054
0.016798
0.0165033
0.0179778
0.0234105
0.0266741
0.0275686
0.0288861
0.0315997
0.0459896
0.0670343
0.0710331
0.0863905
0.0914109
0.110614
0.189152
0.196688
0.172185
0.100656
0.0564997
0.0347985
0.0272358
0.0265717
0.0264443
0.026227
0.0285348
0.0393452
0.0474979
0.0516265
0.0556172
0.0613618
0.0680905
0.0743353
0.0761626
0.0756122
0.0706986
0.0614569
0.0469274
0.0413359
0.037248
0.0355442
0.0371074
0.0383557
0.043914
0.0510553
0.058278
0.0626038
0.061454
0.0586242
0.0584913
0.0574617
0.0621472
0.0597765
0.0631781
0.0615325
0.0708974
0.066992
0.0572916
0.029861
0.0198255
0.011808
0.0100996
0.00726101
0.00756592
0.00589091
0.0124811
0.00819571
0.034593
0.0153617
0.0307971
0.0268519
0.0212469
0.0307664
0.1287
0.120524
0.123881
0.120195
0.104694
0.0828269
0.0544394
0.0362009
0.0230467
0.0140203
0.00852992
0.00598278
0.00420472
0.00253131
0.00180834
0.00168082
0.00184131
0.00189656
0.00197656
0.00231409
0.00244196
0.00355826
0.00486474
0.00463301
0.00460352
0.00480224
0.00584634
0.00907059
0.0222513
0.036587
0.0348506
0.0225552
0.0125139
0.00994048
0.0248216
0.0733984
0.109692
0.133292
0.142383
0.145281
0.140323
0.138022
0.141367
0.153313
0.153591
0.145011
0.104391
0.0488394
0.0373448
0.0423666
0.0774957
0.175853
0.231361
0.241796
0.264072
0.290672
0.260753
0.205373
0.167511
0.139688
0.142452
0.126161
0.0960177
0.0678796
0.0665393
0.0705319
0.07272
0.07194
0.0665023
0.0616414
0.0572023
0.053141
0.0501025
0.0484195
0.0452666
0.0421129
0.0409952
0.0414257
0.0426926
0.0427781
0.0426864
0.0425356
0.0418367
0.0389694
0.0363974
0.0348094
0.0337978
0.0333109
0.0333161
0.0351551
0.0372319
0.0377469
0.0373306
0.0348402
0.0318113
0.0304379
0.0302842
0.0303194
0.0314909
0.0383614
0.0614369
0.076137
0.0791785
0.0778179
0.0731782
0.0663025
0.0613711
0.0584521
0.0585648
0.0589447
0.0569432
0.0563368
0.0583206
0.0595357
0.057775
0.0480492
0.038349
0.0333773
0.0316901
0.0289483
0.0245607
0.0210076
0.019601
0.0194104
0.0196874
0.0209387
0.0207449
0.018101
0.0163164
0.015949
0.0168026
0.0221442
0.0267511
0.0278829
0.0293913
0.0320669
0.0498496
0.0630503
0.070447
0.0868655
0.0922606
0.116015
0.195993
0.199504
0.177914
0.107921
0.0576214
0.0349783
0.0264588
0.0255304
0.0259512
0.0258817
0.0272914
0.0368284
0.0452055
0.0496531
0.0533485
0.0588375
0.0652338
0.0710984
0.074178
0.0744594
0.0708491
0.0655711
0.0544297
0.0429142
0.0417245
0.0401902
0.0422521
0.0437255
0.0470421
0.0549409
0.0632469
0.0658268
0.0639756
0.0584775
0.0555104
0.0566093
0.0584853
0.0586803
0.0633352
0.0613472
0.0724682
0.0817544
0.080882
0.0540787
0.0414383
0.0184892
0.0199611
0.0121059
0.0369816
0.0179892
0.0743713
0.0347981
0.0522228
0.0347602
0.0344877
0.0311736
0.0280442
0.0316983
0.0312732
0.0300475
0.0305111
0.0285822
0.0226389
0.0177774
0.0121346
0.00796051
0.00487061
0.00308017
0.0023782
0.00215562
0.00162245
0.00117406
0.00116038
0.0013291
0.00159986
0.00159529
0.00152924
0.00202694
0.00223093
0.0023698
0.00340498
0.00404338
0.00429584
0.0046061
0.0053443
0.0062982
0.0144678
0.0201874
0.0189964
0.0123913
0.00651019
0.00401418
0.00794142
0.0476521
0.0992736
0.132202
0.147439
0.15294
0.154713
0.158222
0.16927
0.168535
0.160168
0.136888
0.0661127
0.0374152
0.036391
0.0527134
0.127032
0.208445
0.239671
0.248564
0.281505
0.287469
0.235496
0.201887
0.159717
0.137427
0.131818
0.0965765
0.0667459
0.0602774
0.0643506
0.0701208
0.0714429
0.0684655
0.0623753
0.0593869
0.0555129
0.0514199
0.0485953
0.0474769
0.0456691
0.0426041
0.0410593
0.0412499
0.0419859
0.0419254
0.0417313
0.0414766
0.040994
0.0391797
0.0369722
0.0352996
0.0342166
0.0336131
0.0335507
0.0352514
0.0372719
0.0378351
0.0374476
0.0349823
0.0318733
0.0300072
0.0293488
0.0291799
0.029536
0.0327321
0.045629
0.068818
0.0765831
0.0769188
0.0752134
0.0714541
0.0667131
0.0634209
0.0632245
0.0630656
0.0599815
0.0592899
0.0604991
0.0607326
0.0555668
0.0431399
0.0347183
0.0308618
0.0292842
0.0259867
0.0222968
0.0198208
0.0191909
0.0192851
0.0197655
0.0206706
0.0205491
0.0178676
0.0159807
0.0154657
0.0158029
0.0206187
0.0266972
0.028127
0.0297107
0.032784
0.0516083
0.0616673
0.0723029
0.0856199
0.0923875
0.131001
0.196552
0.200534
0.187707
0.120694
0.0616445
0.0351438
0.0259885
0.0249787
0.0250008
0.0251378
0.0262788
0.0344387
0.0431492
0.0474026
0.0518337
0.0565517
0.0632843
0.0686742
0.0727094
0.0740106
0.071554
0.0655027
0.0600904
0.0483527
0.0467541
0.0448434
0.0464244
0.0473345
0.052732
0.0607997
0.0660364
0.0669219
0.0645759
0.0576958
0.0549459
0.0574943
0.056283
0.0573457
0.0644738
0.0642804
0.101524
0.0998927
0.231725
0.149653
0.314365
0.133431
0.263837
0.109058
0.171335
0.0739158
0.0890752
0.0559123
0.0576923
0.0439485
0.0416465
0.0349712
0.0314997
0.0336788
0.00493391
0.0047583
0.00461975
0.00439583
0.00378637
0.00309941
0.00226244
0.00145204
0.00113338
0.00107544
0.00106753
0.000988748
0.000795628
0.000753634
0.000901582
0.00123425
0.00123704
0.00118001
0.0011776
0.00151904
0.0019749
0.00215301
0.00251278
0.0026387
0.0027485
0.00345921
0.003639
0.00383791
0.00838948
0.0121815
0.0117998
0.00827338
0.00539344
0.00477146
0.00811581
0.0401868
0.0986818
0.136425
0.158191
0.169516
0.174806
0.181406
0.180952
0.174023
0.155293
0.097004
0.0436102
0.0325093
0.0391378
0.07971
0.173386
0.227503
0.242481
0.252106
0.288706
0.270058
0.226389
0.200801
0.143454
0.12548
0.106798
0.0756777
0.0575697
0.0573193
0.0643882
0.0686055
0.0678534
0.0613112
0.058335
0.0560719
0.0535289
0.0497384
0.0469981
0.0462613
0.0455382
0.0438831
0.0419991
0.04096
0.0406827
0.0405435
0.0405809
0.0407312
0.040595
0.0397588
0.0381455
0.0363654
0.035049
0.0342226
0.0340944
0.0355256
0.0373797
0.0380712
0.0376338
0.0350953
0.0319969
0.0297477
0.0286818
0.0281171
0.028129
0.0294014
0.0355329
0.0536894
0.0705281
0.0746553
0.0743545
0.0730111
0.0698551
0.0665986
0.066199
0.0657638
0.062028
0.0608674
0.0612501
0.0603264
0.0498922
0.0381071
0.031142
0.0279201
0.0260677
0.0230481
0.0203563
0.01899
0.018839
0.0193285
0.0199839
0.0203954
0.0202252
0.0174579
0.0156006
0.0151911
0.0152381
0.0193459
0.0265753
0.0283869
0.0301082
0.0335925