/*--------------------------------*- C++ -*----------------------------------*\
| =========                 |                                                 |
| \\      /  F ield         | OpenFOAM: The Open Source CFD Toolbox           |
|  \\    /   O peration     | Version:  2.4.0                                 |
|   \\  /    A nd           | Web:      www.OpenFOAM.org                      |
|    \\/     M anipulation  |                                                 |
\*---------------------------------------------------------------------------*/
FoamFile
{
    version     2.0;
    format      ascii;
    class       volVectorField;
    location    "0.121";
    object      U_0;
}
// * * * * * * * * * * * * * * * * * * * * * * * * * * * * * * * * * * * * * //

dimensions      [0 1 -1 0 0 0 0];

internalField   nonuniform List<vector> 
17600
(
(5.32773 0.309462 0)
(2.98404 0.0605813 0)
(2.20085 -0.00168333 0)
(1.84054 -0.00304099 0)
(1.71585 -0.00218581 0)
(1.60065 0.000636035 0)
(1.54917 -0.000151832 0)
(1.46733 -0.000445036 0)
(1.45593 9.10421e-05 0)
(1.37782 0.000566257 0)
(1.40201 -0.00127336 0)
(1.34013 0.000441619 0)
(1.34584 0.00106995 0)
(1.32155 -0.00220003 0)
(1.3166 0.00116033 0)
(1.32513 -0.00118254 0)
(1.29988 0.000520377 0)
(1.36715 -0.00338261 0)
(1.4891 0.00655271 0)
(0.682005 -0.0686983 0)
(8.59946 0.872153 0)
(6.94476 0.382979 0)
(5.82381 0.121891 0)
(5.03672 0.0521907 0)
(4.68096 0.0257685 0)
(4.34245 0.0229609 0)
(4.21762 0.0154199 0)
(3.97862 0.0109832 0)
(3.94959 0.0108425 0)
(3.73115 0.0086017 0)
(3.79927 0.00185062 0)
(3.60084 0.00794277 0)
(3.64194 0.00537954 0)
(3.56235 -0.00152401 0)
(3.5182 0.00460834 0)
(3.5516 -0.00166223 0)
(3.46751 0.00205801 0)
(3.57665 -0.0300199 0)
(3.77734 0.054088 0)
(3.14879 -0.249177 0)
(9.85936 1.02258 0)
(9.33439 0.575905 0)
(8.49704 0.242241 0)
(7.60804 0.131665 0)
(7.14279 0.078003 0)
(6.63326 0.0618047 0)
(6.47323 0.0428736 0)
(6.09894 0.0317536 0)
(6.07286 0.0299601 0)
(5.72734 0.022254 0)
(5.84051 0.00980383 0)
(5.5213 0.0213714 0)
(5.59124 0.0105812 0)
(5.47427 0.00456225 0)
(5.37656 0.0100072 0)
(5.44068 -0.00105073 0)
(5.29935 0.00707398 0)
(5.4451 -0.0555949 0)
(5.52088 0.0486194 0)
(5.46733 -0.283207 0)
(10.168 0.948975 0)
(10.5485 0.665856 0)
(10.2932 0.332618 0)
(9.5913 0.211371 0)
(9.19878 0.143053 0)
(8.59618 0.112706 0)
(8.46284 0.0802014 0)
(7.97584 0.060361 0)
(7.98168 0.0562424 0)
(7.52433 0.0409948 0)
(7.68398 0.0216763 0)
(7.27267 0.0408313 0)
(7.35151 0.0162278 0)
(7.22319 0.0156561 0)
(7.06908 0.0175836 0)
(7.15678 0.0010348 0)
(6.96475 0.0121441 0)
(7.17235 -0.0713898 0)
(7.02119 0.0256438 0)
(7.33443 -0.365579 0)
(10.0927 0.807696 0)
(10.8876 0.66524 0)
(11.182 0.361131 0)
(10.8192 0.256722 0)
(10.6914 0.197863 0)
(10.1155 0.16417 0)
(10.0927 0.120624 0)
(9.54386 0.0926985 0)
(9.62137 0.0864733 0)
(9.08554 0.0636959 0)
(9.28995 0.0352262 0)
(8.83475 0.0654018 0)
(8.90298 0.0219224 0)
(8.78481 0.0296885 0)
(8.59318 0.0279955 0)
(8.68756 0.00462798 0)
(8.4608 0.0149801 0)
(8.72514 -0.0751927 0)
(8.41594 0.00179286 0)
(8.80876 -0.449632 0)
(10.0238 0.694276 0)
(10.8044 0.629081 0)
(11.3846 0.341296 0)
(11.2589 0.250947 0)
(11.4752 0.21785 0)
(11.0358 0.198117 0)
(11.2152 0.15133 0)
(10.6908 0.121643 0)
(10.8895 0.114919 0)
(10.3374 0.0879402 0)
(10.5833 0.0474379 0)
(10.1483 0.092977 0)
(10.2008 0.0279578 0)
(10.1014 0.0435735 0)
(9.91224 0.040535 0)
(9.99801 0.0103413 0)
(9.7653 0.0147701 0)
(10.0332 -0.07417 0)
(9.71447 -0.0113344 0)
(10.0249 -0.47908 0)
(10.0322 0.605678 0)
(10.6549 0.592387 0)
(11.3438 0.315719 0)
(11.2216 0.217973 0)
(11.6679 0.202266 0)
(11.3385 0.204137 0)
(11.7316 0.158887 0)
(11.2963 0.13529 0)
(11.6609 0.130699 0)
(11.1785 0.107551 0)
(11.463 0.0528475 0)
(11.1281 0.118583 0)
(11.1813 0.0338369 0)
(11.1041 0.0545501 0)
(10.9625 0.0532745 0)
(11.0388 0.0161115 0)
(10.8458 0.0152614 0)
(11.0404 -0.0739139 0)
(10.8405 -0.024135 0)
(11.0017 -0.41823 0)
(10.0631 0.527554 0)
(10.5332 0.551818 0)
(11.2978 0.303597 0)
(11.1007 0.189459 0)
(11.6039 0.175187 0)
(11.3295 0.195992 0)
(11.7918 0.148989 0)
(11.4248 0.132628 0)
(11.9107 0.127309 0)
(11.566 0.117134 0)
(11.8389 0.045826 0)
(11.6781 0.133137 0)
(11.7642 0.036257 0)
(11.7196 0.0589512 0)
(11.6552 0.0617486 0)
(11.7435 0.0186811 0)
(11.6394 0.0148249 0)
(11.7207 -0.070604 0)
(11.6925 -0.0468736 0)
(11.693 -0.316633 0)
(10.0784 0.457188 0)
(10.432 0.500029 0)
(11.2498 0.296377 0)
(11.0938 0.173118 0)
(11.4629 0.145454 0)
(11.316 0.185837 0)
(11.6856 0.134944 0)
(11.3802 0.126417 0)
(11.8376 0.107735 0)
(11.6717 0.121784 0)
(11.8246 0.0293862 0)
(11.8306 0.134713 0)
(11.9527 0.0308928 0)
(11.9435 0.0581058 0)
(11.9381 0.0604501 0)
(12.0663 0.0141842 0)
(12.0557 0.0119809 0)
(12.0789 -0.0729363 0)
(12.1509 -0.0696959 0)
(12.0608 -0.268263 0)
(10.0699 0.39905 0)
(10.346 0.440245 0)
(11.1164 0.281053 0)
(11.1782 0.164606 0)
(11.2981 0.122453 0)
(11.3933 0.171272 0)
(11.5816 0.126764 0)
(11.3783 0.121115 0)
(11.6938 0.0827655 0)
(11.6969 0.122881 0)
(11.7003 0.0176312 0)
(11.7935 0.122572 0)
(11.9245 0.0252382 0)
(11.9461 0.0496206 0)
(11.9531 0.0593381 0)
(12.1129 -0.00457728 0)
(12.1466 0.0125991 0)
(12.1819 -0.0896907 0)
(12.2179 -0.07512 0)
(12.1468 -0.313468 0)
(10.0343 0.347174 0)
(10.3103 0.389532 0)
(10.9548 0.253412 0)
(11.1937 0.158677 0)
(11.1923 0.0957994 0)
(11.474 0.155058 0)
(11.5006 0.119963 0)
(11.4009 0.12157 0)
(11.6103 0.0587435 0)
(11.6587 0.12494 0)
(11.6426 0.0107091 0)
(11.7407 0.110973 0)
(11.8612 0.0146331 0)
(11.896 0.0436558 0)
(11.8992 0.0518062 0)
(12.0794 -0.0197502 0)
(12.1257 0.00314425 0)
(12.1542 -0.0967659 0)
(12.1329 -0.0849054 0)
(12.1936 -0.378819 0)
(9.94891 0.303825 0)
(10.3593 0.336234 0)
(10.8866 0.231644 0)
(11.1134 0.145327 0)
(11.1641 0.0694005 0)
(11.4332 0.13475 0)
(11.3896 0.11904 0)
(11.4088 0.114341 0)
(11.5422 0.0442373 0)
(11.5963 0.121423 0)
(11.6483 0.00481128 0)
(11.7383 0.0956943 0)
(11.8187 0.0148599 0)
(11.8389 0.0305998 0)
(11.855 0.0489394 0)
(12.0186 -0.0399806 0)
(12.0746 -0.0033537 0)
(12.0832 -0.096548 0)
(12.0881 -0.121919 0)
(12.2216 -0.398866 0)
(9.9077 0.263415 0)
(10.4474 0.275631 0)
(10.8125 0.215137 0)
(11.0229 0.137507 0)
(11.157 0.0431078 0)
(11.2787 0.124798 0)
(11.2985 0.108988 0)
(11.4118 0.104232 0)
(11.4683 0.0332456 0)
(11.5522 0.108649 0)
(11.6844 -0.00275167 0)
(11.7139 0.0835116 0)
(11.7663 0.0145486 0)
(11.7964 0.0235055 0)
(11.8143 0.0421796 0)
(11.9359 -0.0552346 0)
(11.9903 -0.0136478 0)
(12.0225 -0.105128 0)
(12.0785 -0.150588 0)
(12.1299 -0.366042 0)
(9.99478 0.218658 0)
(10.431 0.223993 0)
(10.6416 0.203239 0)
(10.9969 0.124919 0)
(11.1028 0.0305403 0)
(11.1496 0.115515 0)
(11.3027 0.0885117 0)
(11.4044 0.094153 0)
(11.4112 0.0259377 0)
(11.538 0.0887071 0)
(11.6801 -0.00604643 0)
(11.617 0.0760105 0)
(11.7189 0.0191631 0)
(11.7651 0.00979605 0)
(11.7713 0.0414334 0)
(11.8722 -0.0667424 0)
(11.9225 -0.024284 0)
(11.9818 -0.117394 0)
(12.0644 -0.177203 0)
(11.9311 -0.327453 0)
(10.0592 0.175102 0)
(10.307 0.191169 0)
(10.5425 0.177407 0)
(11.0175 0.108188 0)
(11.0365 0.0253406 0)
(11.1336 0.0957803 0)
(11.339 0.0656006 0)
(11.3616 0.0873235 0)
(11.3762 0.0191688 0)
(11.5227 0.0672652 0)
(11.6016 -0.0014487 0)
(11.5375 0.0691422 0)
(11.7107 0.0108659 0)
(11.7385 0.00609736 0)
(11.7468 0.0316561 0)
(11.8444 -0.0675674 0)
(11.8898 -0.0520658 0)
(11.9727 -0.114102 0)
(11.9966 -0.192988 0)
(11.7845 -0.343109 0)
(10.0113 0.141779 0)
(10.2346 0.155944 0)
(10.5987 0.13779 0)
(10.996 0.0953741 0)
(11.015 0.0197035 0)
(11.1842 0.0719871 0)
(11.3148 0.0477497 0)
(11.2827 0.0823436 0)
(11.3676 0.00924969 0)
(11.4796 0.0496176 0)
(11.5165 0.00618071 0)
(11.5465 0.0500866 0)
(11.7179 0.00668855 0)
(11.7022 -0.00288343 0)
(11.7476 0.0303737 0)
(11.8282 -0.0863605 0)
(11.88 -0.0481667 0)
(11.9585 -0.162868 0)
(11.8867 -0.129474 0)
(11.7516 -0.446248 0)
(9.97874 0.116647 0)
(10.2631 0.105033 0)
(10.631 0.103165 0)
(10.9067 0.0869959 0)
(11.0392 0.00978282 0)
(11.206 0.0515527 0)
(11.2191 0.0417335 0)
(11.2521 0.0714705 0)
(11.3818 -0.00178041 0)
(11.4282 0.0379747 0)
(11.4899 0.00577233 0)
(11.5824 0.0307676 0)
(11.6788 0.00507267 0)
(11.6661 -0.00600291 0)
(11.7503 0.0164906 0)
(11.8129 -0.0799219 0)
(11.8729 -0.0850923 0)
(11.8965 -0.12348 0)
(11.7966 -0.19417 0)
(11.9173 -0.335108 0)
(10.0063 0.0867207 0)
(10.3035 0.0591485 0)
(10.5369 0.0783704 0)
(10.8429 0.0751251 0)
(11.0858 -0.00568681 0)
(11.1447 0.0438953 0)
(11.16 0.0302644 0)
(11.3033 0.0528496 0)
(11.3749 -0.00888818 0)
(11.3876 0.0280351 0)
(11.4941 0.000796094 0)
(11.5686 0.0173806 0)
(11.6202 0.00468754 0)
(11.6583 -0.0128372 0)
(11.7453 0.000532483 0)
(11.7891 -0.0784618 0)
(11.8513 -0.102902 0)
(11.8125 -0.107237 0)
(11.8254 -0.251614 0)
(12.048 -0.259683 0)
(10.0222 0.0556508 0)
(10.2786 0.0218158 0)
(10.4568 0.0565128 0)
(10.8752 0.0478704 0)
(11.0979 -0.0119424 0)
(11.0809 0.036691 0)
(11.1935 0.010432 0)
(11.3276 0.0338703 0)
(11.3267 -0.00740441 0)
(11.3709 0.0130748 0)
(11.4855 -0.000481822 0)
(11.5398 0.00239117 0)
(11.601 0.00491659 0)
(11.6636 -0.0269398 0)
(11.726 -0.00444014 0)
(11.7703 -0.0928727 0)
(11.8136 -0.0890928 0)
(11.7854 -0.153002 0)
(11.9237 -0.212933 0)
(11.9483 -0.385439 0)
(10.0201 0.0284029 0)
(10.222 -0.0140202 0)
(10.4881 0.0224844 0)
(10.9293 0.0225436 0)
(11.0594 -0.0132372 0)
(11.0764 0.0264577 0)
(11.2301 -0.0126265 0)
(11.2855 0.0264176 0)
(11.2935 -0.0122776 0)
(11.3829 0.00115559 0)
(11.4836 -0.00732453 0)
(11.5367 -0.00431587 0)
(11.5903 -0.00518969 0)
(11.66 -0.0254838 0)
(11.7157 -0.0256383 0)
(11.756 -0.0804128 0)
(11.796 -0.118438 0)
(11.8233 -0.142186 0)
(11.9351 -0.249752 0)
(11.7537 -0.352363 0)
(10.0121 0.00487068 0)
(10.2167 -0.05586 0)
(10.5571 -0.0149456 0)
(10.915 0.00337299 0)
(11.0158 -0.0113632 0)
(11.09 0.0106431 0)
(11.2292 -0.0284981 0)
(11.2617 0.0159488 0)
(11.304 -0.0168481 0)
(11.4113 -0.0181622 0)
(11.4957 -0.00544955 0)
(11.5241 -0.0195789 0)
(11.569 -0.00391684 0)
(11.6733 -0.0424235 0)
(11.7154 -0.0265547 0)
(11.7453 -0.0947815 0)
(11.8121 -0.113383 0)
(11.8466 -0.175541 0)
(11.8543 -0.229448 0)
(11.6756 -0.333861 0)
(9.99302 -0.0198736 0)
(10.2593 -0.102225 0)
(10.5878 -0.0461509 0)
(10.8559 -0.00870554 0)
(11.0064 -0.0151397 0)
(11.1155 -0.00666957 0)
(11.2338 -0.0448475 0)
(11.2701 0.00513103 0)
(11.3334 -0.0278357 0)
(11.428 -0.0299416 0)
(11.4834 -0.00746989 0)
(11.5056 -0.0221575 0)
(11.5795 -0.0177506 0)
(11.6905 -0.0437962 0)
(11.7151 -0.0440577 0)
(11.7486 -0.0866005 0)
(11.8394 -0.13972 0)
(11.8175 -0.163573 0)
(11.7779 -0.23884 0)
(11.7483 -0.290772 0)
(9.98729 -0.0483762 0)
(10.2992 -0.14749 0)
(10.5654 -0.0716454 0)
(10.8303 -0.019497 0)
(11.0401 -0.0273055 0)
(11.1563 -0.0224419 0)
(11.2424 -0.0611749 0)
(11.2764 -0.004734 0)
(11.3483 -0.0382007 0)
(11.4226 -0.0394899 0)
(11.4612 -0.00782879 0)
(11.5212 -0.0308909 0)
(11.609 -0.0304562 0)
(11.6992 -0.0463625 0)
(11.716 -0.0570305 0)
(11.763 -0.0879494 0)
(11.8404 -0.152608 0)
(11.7948 -0.158021 0)
(11.7762 -0.254394 0)
(11.8357 -0.260487 0)
(10.0017 -0.077792 0)
(10.3058 -0.191713 0)
(10.5467 -0.0930041 0)
(10.8573 -0.0382043 0)
(11.0977 -0.0397099 0)
(11.1775 -0.039909 0)
(11.2324 -0.0700152 0)
(11.2796 -0.0185717 0)
(11.3575 -0.0435615 0)
(11.4209 -0.0514496 0)
(11.4804 -0.0069948 0)
(11.5524 -0.0491826 0)
(11.6304 -0.0328133 0)
(11.7055 -0.0588595 0)
(11.7223 -0.0580646 0)
(11.7743 -0.102721 0)
(11.833 -0.145601 0)
(11.7983 -0.177497 0)
(11.8172 -0.250145 0)
(11.8863 -0.298691 0)
(10.0008 -0.111666 0)
(10.3041 -0.230179 0)
(10.5765 -0.122048 0)
(10.9125 -0.0560323 0)
(11.1352 -0.054766 0)
(11.1665 -0.0471967 0)
(11.2263 -0.0841313 0)
(11.3009 -0.0300739 0)
(11.3825 -0.0540313 0)
(11.4511 -0.0601404 0)
(11.5165 -0.0141768 0)
(11.5754 -0.056381 0)
(11.645 -0.0430659 0)
(11.7144 -0.0598954 0)
(11.7343 -0.0697257 0)
(11.7853 -0.105157 0)
(11.8524 -0.153243 0)
(11.8228 -0.185555 0)
(11.8454 -0.258072 0)
(11.8718 -0.332719 0)
(9.99083 -0.144326 0)
(10.3276 -0.273371 0)
(10.6296 -0.151443 0)
(10.9512 -0.0728689 0)
(11.1387 -0.0639936 0)
(11.1669 -0.0578244 0)
(11.2556 -0.0980343 0)
(11.3439 -0.0456015 0)
(11.4193 -0.0629355 0)
(11.4814 -0.0710964 0)
(11.5351 -0.0165106 0)
(11.59 -0.0671755 0)
(11.6677 -0.0490666 0)
(11.7343 -0.0650897 0)
(11.7517 -0.0782595 0)
(11.8181 -0.112002 0)
(11.8831 -0.158318 0)
(11.8422 -0.192404 0)
(11.8715 -0.276561 0)
(11.8602 -0.33519 0)
(9.98948 -0.182581 0)
(10.3598 -0.31694 0)
(10.6757 -0.177485 0)
(10.9745 -0.0871665 0)
(11.1551 -0.0744843 0)
(11.2029 -0.0721616 0)
(11.3009 -0.112558 0)
(11.3866 -0.0599243 0)
(11.4383 -0.0690882 0)
(11.4982 -0.0806797 0)
(11.5602 -0.0194824 0)
(11.6193 -0.0779874 0)
(11.7077 -0.0554432 0)
(11.7604 -0.0712339 0)
(11.7825 -0.0850668 0)
(11.8597 -0.122105 0)
(11.9015 -0.160067 0)
(11.8669 -0.200275 0)
(11.914 -0.292048 0)
(11.8503 -0.334438 0)
(9.99924 -0.224618 0)
(10.3848 -0.360557 0)
(10.7283 -0.19937 0)
(11.0081 -0.102289 0)
(11.2022 -0.091183 0)
(11.24 -0.0847307 0)
(11.3355 -0.127611 0)
(11.4189 -0.0701323 0)
(11.4527 -0.0750342 0)
(11.538 -0.0913214 0)
(11.6096 -0.0262801 0)
(11.6641 -0.0881304 0)
(11.749 -0.0627584 0)
(11.7901 -0.0750044 0)
(11.8228 -0.0934 0)
(11.8932 -0.130288 0)
(11.9202 -0.159035 0)
(11.9221 -0.214376 0)
(11.9541 -0.299192 0)
(11.85 -0.346426 0)
(10.0223 -0.270949 0)
(10.4058 -0.406864 0)
(10.8008 -0.214018 0)
(11.046 -0.121914 0)
(11.2603 -0.108438 0)
(11.2493 -0.0972583 0)
(11.3831 -0.141896 0)
(11.4515 -0.0812179 0)
(11.4895 -0.0824239 0)
(11.5977 -0.104104 0)
(11.6629 -0.0335316 0)
(11.6973 -0.0955975 0)
(11.7876 -0.0695368 0)
(11.8284 -0.0790317 0)
(11.8687 -0.103029 0)
(11.9251 -0.135229 0)
(11.9679 -0.163312 0)
(11.984 -0.226499 0)
(11.9737 -0.304018 0)
(11.8703 -0.361574 0)
(10.0533 -0.324262 0)
(10.4235 -0.452073 0)
(10.8934 -0.226283 0)
(11.0744 -0.142835 0)
(11.3194 -0.125465 0)
(11.25 -0.110378 0)
(11.4673 -0.156085 0)
(11.4695 -0.0906624 0)
(11.5569 -0.091235 0)
(11.6433 -0.116037 0)
(11.7136 -0.0377931 0)
(11.7213 -0.105076 0)
(11.8524 -0.0753792 0)
(11.869 -0.086635 0)
(11.9306 -0.107787 0)
(11.9677 -0.144708 0)
(12.033 -0.164163 0)
(12.0096 -0.236077 0)
(11.9883 -0.299935 0)
(11.8878 -0.387686 0)
(10.0692 -0.383718 0)
(10.4625 -0.497401 0)
(10.9768 -0.238379 0)
(11.109 -0.162773 0)
(11.3727 -0.143421 0)
(11.2713 -0.124196 0)
(11.5661 -0.17236 0)
(11.4783 -0.0961709 0)
(11.6519 -0.105545 0)
(11.6727 -0.122692 0)
(11.7822 -0.0472445 0)
(11.7594 -0.110519 0)
(11.9373 -0.0876991 0)
(11.8981 -0.0884404 0)
(12.0044 -0.116585 0)
(11.9796 -0.150511 0)
(12.0637 -0.164759 0)
(11.966 -0.238741 0)
(11.953 -0.295183 0)
(11.7868 -0.41331 0)
(10.0676 -0.450028 0)
(10.5215 -0.541216 0)
(11.035 -0.25012 0)
(11.1782 -0.185295 0)
(11.4093 -0.161515 0)
(11.3485 -0.143011 0)
(11.6455 -0.18375 0)
(11.5125 -0.105189 0)
(11.7554 -0.117784 0)
(11.6955 -0.129989 0)
(11.8469 -0.0566796 0)
(11.7948 -0.117862 0)
(11.958 -0.0967141 0)
(11.8706 -0.0918702 0)
(11.9779 -0.120628 0)
(11.8616 -0.152104 0)
(11.9336 -0.159407 0)
(11.7385 -0.236359 0)
(11.6949 -0.27853 0)
(11.3981 -0.422416 0)
(10.0563 -0.523064 0)
(10.5824 -0.579863 0)
(11.1111 -0.265583 0)
(11.2765 -0.208333 0)
(11.4562 -0.182931 0)
(11.4667 -0.162585 0)
(11.6824 -0.191226 0)
(11.5567 -0.116175 0)
(11.7915 -0.128964 0)
(11.6299 -0.131752 0)
(11.7912 -0.0677064 0)
(11.6637 -0.118214 0)
(11.744 -0.0992746 0)
(11.6113 -0.090095 0)
(11.6509 -0.118438 0)
(11.4504 -0.141205 0)
(11.4634 -0.15333 0)
(11.1914 -0.212144 0)
(11.0686 -0.266567 0)
(10.6861 -0.365774 0)
(10.0333 -0.603607 0)
(10.6706 -0.610463 0)
(11.2307 -0.288536 0)
(11.3779 -0.234701 0)
(11.4971 -0.206188 0)
(11.5162 -0.180172 0)
(11.5751 -0.190724 0)
(11.4265 -0.124168 0)
(11.5375 -0.129082 0)
(11.2575 -0.123687 0)
(11.369 -0.0700155 0)
(11.1343 -0.107263 0)
(11.1321 -0.0901627 0)
(10.9537 -0.0820216 0)
(10.9249 -0.103893 0)
(10.6679 -0.124841 0)
(10.6348 -0.134181 0)
(10.3071 -0.185116 0)
(10.1373 -0.234546 0)
(9.69094 -0.301893 0)
(10.0317 -0.693018 0)
(10.8025 -0.640403 0)
(11.3295 -0.323885 0)
(11.3622 -0.261895 0)
(11.3272 -0.221024 0)
(11.2059 -0.181097 0)
(11.051 -0.173712 0)
(10.818 -0.115899 0)
(10.7705 -0.111679 0)
(10.4154 -0.102986 0)
(10.4658 -0.0605828 0)
(10.169 -0.0859348 0)
(10.1227 -0.0740392 0)
(9.92392 -0.0675131 0)
(9.85277 -0.0838256 0)
(9.57871 -0.103167 0)
(9.51212 -0.110445 0)
(9.16324 -0.153966 0)
(8.96251 -0.188948 0)
(8.4752 -0.254733 0)
(10.1033 -0.807166 0)
(10.878 -0.672065 0)
(11.1572 -0.350556 0)
(10.8839 -0.262772 0)
(10.5762 -0.201622 0)
(10.2599 -0.151704 0)
(9.94409 -0.13599 0)
(9.6559 -0.0906878 0)
(9.51156 -0.0822954 0)
(9.15588 -0.0764574 0)
(9.1653 -0.045103 0)
(8.86116 -0.0618175 0)
(8.80106 -0.0560112 0)
(8.60297 -0.0506873 0)
(8.51167 -0.0622878 0)
(8.24835 -0.079382 0)
(8.15699 -0.0856136 0)
(7.81685 -0.116949 0)
(7.5898 -0.148955 0)
(7.117 -0.184513 0)
(10.1777 -0.948691 0)
(10.537 -0.669844 0)
(10.2827 -0.32661 0)
(9.63091 -0.213974 0)
(9.116 -0.147373 0)
(8.70507 -0.103211 0)
(8.34502 -0.090563 0)
(8.0631 -0.0604173 0)
(7.88853 -0.0518703 0)
(7.58158 -0.0508681 0)
(7.56478 -0.0288104 0)
(7.29559 -0.0393169 0)
(7.23701 -0.0385204 0)
(7.05426 -0.0338345 0)
(6.96239 -0.0414558 0)
(6.72693 -0.0558716 0)
(6.62207 -0.0597075 0)
(6.30963 -0.081553 0)
(6.08182 -0.104931 0)
(5.62657 -0.126537 0)
(9.86615 -1.02239 0)
(9.3241 -0.578106 0)
(8.49235 -0.239224 0)
(7.63168 -0.132023 0)
(7.08864 -0.0823896 0)
(6.70558 -0.054668 0)
(6.39224 -0.0494157 0)
(6.15699 -0.0327688 0)
(6.0023 -0.0261346 0)
(5.76759 -0.0288797 0)
(5.73859 -0.0145022 0)
(5.53312 -0.0207436 0)
(5.48107 -0.0228497 0)
(5.3278 -0.0187216 0)
(5.25052 -0.0232517 0)
(5.05494 -0.033933 0)
(4.94896 -0.0354399 0)
(4.6847 -0.0486922 0)
(4.47387 -0.0630514 0)
(4.06714 -0.0782838 0)
(8.60337 -0.872022 0)
(6.93786 -0.383975 0)
(5.82064 -0.120761 0)
(5.05107 -0.0515903 0)
(4.64886 -0.0290895 0)
(4.38346 -0.0185102 0)
(4.17091 -0.0188045 0)
(4.00869 -0.0120639 0)
(3.90462 -0.00819238 0)
(3.7542 -0.0120707 0)
(3.72576 -0.00441851 0)
(3.59875 -0.00749361 0)
(3.55641 -0.0102174 0)
(3.4475 -0.00720151 0)
(3.39387 -0.0092329 0)
(3.25228 -0.0155146 0)
(3.16093 -0.0155065 0)
(2.96779 -0.0214619 0)
(2.79557 -0.028105 0)
(2.48915 -0.0369633 0)
(5.32911 -0.309365 0)
(2.98174 -0.060753 0)
(2.19821 0.0017658 0)
(1.84754 0.00354114 0)
(1.70376 0.00086499 0)
(1.6124 0.000928481 0)
(1.53645 -0.000754089 0)
(1.47294 1.09814e-05 0)
(1.43888 0.000894208 0)
(1.38519 -0.00133523 0)
(1.36953 0.000751065 0)
(1.32984 -3.58494e-05 0)
(1.30774 -0.00122653 0)
(1.26105 -5.82998e-05 0)
(1.23988 -0.000271477 0)
(1.17792 -0.00180139 0)
(1.12725 -0.0012481 0)
(1.04058 -0.00188101 0)
(0.951769 -0.00301767 0)
(0.811713 -0.000466999 0)
(2.8761 -1.16916 0)
(2.98668 -0.830288 0)
(2.42569 -0.84993 0)
(2.10668 -0.664805 0)
(2.20661 0.127281 0)
(2.82693 1.15196 0)
(4.71694 1.58125 0)
(6.43509 1.9746 0)
(7.60135 2.70771 0)
(9.25651 2.32117 0)
(10.2205 1.69253 0)
(11.071 1.02911 0)
(11.5761 0.256858 0)
(12.1994 -0.456113 0)
(12.7451 -1.51209 0)
(12.608 -2.21719 0)
(11.8688 -2.49651 0)
(11.6411 -3.1935 0)
(11.5835 -3.96576 0)
(12.3846 -5.06195 0)
(12.6306 -5.92152 0)
(12.7739 -6.39318 0)
(12.1947 -6.56616 0)
(11.7612 -6.4984 0)
(10.7792 -6.27848 0)
(10.3492 -5.97716 0)
(9.66188 -5.78166 0)
(9.08146 -5.40796 0)
(8.36151 -5.14695 0)
(7.84199 -4.85428 0)
(7.34632 -4.37582 0)
(6.60428 -4.50338 0)
(5.96655 -4.18362 0)
(5.58556 -3.57149 0)
(4.84069 -3.91234 0)
(3.97394 -4.33212 0)
(3.71464 -3.17811 0)
(3.54099 -0.887365 0)
(3.51784 1.66376 0)
(3.47917 4.26094 0)
(3.28863 6.74668 0)
(2.63853 9.42654 0)
(2.0066 11.5958 0)
(2.79511 10.8772 0)
(2.67876 9.01722 0)
(3.94262 6.99347 0)
(4.0845 5.71118 0)
(4.958 3.91104 0)
(6.19936 1.97733 0)
(6.79498 0.854779 0)
(6.75285 0.548102 0)
(6.80488 -0.109274 0)
(7.61751 -1.71915 0)
(8.63885 -3.63876 0)
(9.27778 -5.34243 0)
(9.4461 -6.31849 0)
(8.84414 -6.55807 0)
(8.18379 -6.26148 0)
(7.63278 -6.22838 0)
(7.31818 -6.87921 0)
(7.02389 -7.20132 0)
(6.41933 -6.52096 0)
(5.24527 -5.51241 0)
(4.55325 -4.34085 0)
(4.39316 -3.73063 0)
(3.87918 -4.11132 0)
(3.58261 -4.52733 0)
(3.77594 -4.98496 0)
(4.10298 -5.86232 0)
(4.18911 -6.6249 0)
(4.58139 -7.23377 0)
(4.82949 -7.78227 0)
(5.5085 -8.19183 0)
(5.75894 -8.58835 0)
(6.33293 -8.71068 0)
(6.8885 -7.97882 0)
(7.1579 -7.06673 0)
(7.45542 -6.02265 0)
(7.71007 -4.70324 0)
(8.04194 -3.32103 0)
(8.1802 -2.08067 0)
(8.31125 -0.955392 0)
(8.42978 0.745498 0)
(8.39187 2.53308 0)
(8.09908 3.1775 0)
(8.18021 3.13439 0)
(8.15483 3.14519 0)
(8.08302 3.9439 0)
(8.12345 5.63939 0)
(8.10888 7.29896 0)
(7.96086 8.24129 0)
(7.89825 8.52761 0)
(7.86852 8.61795 0)
(7.84466 8.42632 0)
(7.53199 7.8465 0)
(7.23805 7.16982 0)
(7.12458 6.33952 0)
(7.13285 5.73851 0)
(7.49147 5.25823 0)
(7.50338 5.06368 0)
(7.86578 4.48464 0)
(7.4962 4.0286 0)
(7.91757 3.92657 0)
(7.51342 3.86823 0)
(7.90524 3.22929 0)
(7.61958 3.35816 0)
(8.30355 3.27021 0)
(7.48441 3.55224 0)
(8.11485 3.13922 0)
(6.50826 2.92239 0)
(7.18621 2.40531 0)
(5.30861 2.38472 0)
(6.98387 2.26848 0)
(4.75045 3.35646 0)
(6.89184 3.22352 0)
(4.68972 4.39006 0)
(7.5994 4.10201 0)
(5.42411 4.78853 0)
(7.8648 4.10475 0)
(6.26884 4.50023 0)
(7.2641 4.33855 0)
(7.31183 4.8231 0)
(7.53708 4.28052 0)
(7.68703 4.19472 0)
(7.97416 3.25257 0)
(8.14071 1.8909 0)
(8.04831 0.148972 0)
(7.98973 -0.913579 0)
(7.94402 -2.04773 0)
(8.00659 -2.93839 0)
(7.66872 -3.97311 0)
(8.05556 -4.58678 0)
(7.38689 -5.76887 0)
(7.4688 -5.5263 0)
(7.29991 -6.2521 0)
(7.42929 -5.04174 0)
(6.75605 -5.59931 0)
(7.90753 -4.29917 0)
(6.52629 -4.26636 0)
(8.24057 -3.15536 0)
(6.73706 -3.69266 0)
(7.65004 -2.618 0)
(7.44327 -3.36843 0)
(7.65318 -1.99215 0)
(7.47429 -2.30706 0)
(7.77817 -1.35701 0)
(7.61737 -1.61355 0)
(7.87474 -1.45957 0)
(7.07115 -2.18768 0)
(7.19148 -1.94669 0)
(7.86407 -1.81975 0)
(8.02109 -1.55847 0)
(7.78607 -1.88203 0)
(7.81703 -2.02564 0)
(7.86417 -2.09402 0)
(8.01385 -2.37587 0)
(8.24301 -3.04113 0)
(8.54177 -3.76837 0)
(9.01746 -4.38332 0)
(9.62816 -4.82669 0)
(10.1751 -5.00732 0)
(10.5832 -4.85442 0)
(10.8631 -4.21973 0)
(11.0499 -3.08459 0)
(11.0406 -1.4855 0)
(10.8195 0.285934 0)
(10.5077 1.93952 0)
(10.0767 3.40402 0)
(9.63948 4.91074 0)
(9.1065 6.23996 0)
(8.48986 6.98836 0)
(7.75953 7.1426 0)
(7.24521 6.91777 0)
(6.53965 6.74575 0)
(6.0031 7.00757 0)
(5.35552 7.58438 0)
(4.52403 8.1085 0)
(3.79253 8.33192 0)
(3.36945 8.29655 0)
(2.76583 8.07823 0)
(2.74127 7.30518 0)
(1.30284 7.46373 0)
(2.30604 4.8806 0)
(-0.116583 4.57609 0)
(5.02912 1.16534 0)
(0.893382 2.19538 0)
(5.30215 -1.20435 0)
(1.58899 0.775119 0)
(5.02527 -2.30589 0)
(2.60592 -0.2806 0)
(4.97967 -2.3647 0)
(3.5247 -0.670861 0)
(4.83704 -1.88296 0)
(3.89004 -0.572823 0)
(4.69951 -1.34525 0)
(3.85288 -0.0981625 0)
(4.62827 -0.0868464 0)
(3.80354 1.87243 0)
(5.62185 2.80674 0)
(3.29479 6.5252 0)
(4.30981 -1.10177 0)
(4.30532 -0.834738 0)
(4.08169 -0.755673 0)
(3.80645 -0.541894 0)
(3.6317 0.215856 0)
(3.83322 0.720178 0)
(4.79221 0.674856 0)
(5.93734 1.17525 0)
(7.5043 2.10074 0)
(8.88317 1.83945 0)
(10.13 1.17203 0)
(10.9426 0.765998 0)
(11.382 0.194635 0)
(12.4504 -0.654139 0)
(12.9032 -1.59601 0)
(12.3203 -2.0802 0)
(11.662 -2.29956 0)
(12.0406 -3.16542 0)
(12.4687 -4.16528 0)
(13.1342 -5.2052 0)
(13.0408 -5.9277 0)
(12.9078 -6.26588 0)
(12.234 -6.36992 0)
(11.7416 -6.24451 0)
(10.8106 -5.98724 0)
(10.4227 -5.75502 0)
(9.7639 -5.60238 0)
(9.11317 -5.12594 0)
(8.49512 -4.86199 0)
(7.96523 -4.65301 0)
(7.47291 -4.14676 0)
(6.71899 -4.23334 0)
(6.03677 -3.97751 0)
(5.63405 -3.34169 0)
(4.95078 -3.61248 0)
(3.99444 -4.05715 0)
(3.57491 -3.0576 0)
(3.42409 -0.814044 0)
(3.47231 1.73484 0)
(3.40983 4.25933 0)
(3.12893 6.89458 0)
(2.59865 9.64659 0)
(2.05601 11.4956 0)
(2.88032 10.8381 0)
(3.20386 8.69554 0)
(4.05087 6.74007 0)
(4.21357 5.44961 0)
(5.25405 3.44989 0)
(6.22905 1.63548 0)
(6.59091 0.778427 0)
(6.5603 0.537611 0)
(6.99477 -0.358449 0)
(8.0487 -2.12561 0)
(9.12549 -3.9849 0)
(9.61524 -5.46426 0)
(9.60523 -6.22193 0)
(8.87322 -6.29677 0)
(8.17731 -5.97654 0)
(7.66214 -6.04837 0)
(7.30099 -6.75828 0)
(6.97694 -6.992 0)
(6.2644 -6.1631 0)
(4.98033 -5.14809 0)
(4.48721 -4.14496 0)
(4.248 -3.60489 0)
(3.64631 -3.92378 0)
(3.43566 -4.49922 0)
(3.66318 -5.12666 0)
(3.89731 -5.94719 0)
(4.06484 -6.74097 0)
(4.36837 -7.39642 0)
(4.65201 -7.97094 0)
(5.233 -8.3878 0)
(5.37219 -8.81991 0)
(5.95173 -8.8829 0)
(6.48723 -8.13233 0)
(6.77629 -7.15559 0)
(6.90544 -6.11996 0)
(7.22241 -4.80049 0)
(7.50738 -3.41215 0)
(7.6231 -2.15365 0)
(7.76668 -0.964328 0)
(7.8634 0.750934 0)
(7.83778 2.53086 0)
(7.57702 3.16779 0)
(7.71991 3.14418 0)
(7.75314 3.18163 0)
(7.66949 3.98947 0)
(7.68632 5.64487 0)
(7.68882 7.30525 0)
(7.5618 8.26159 0)
(7.48965 8.52736 0)
(7.51757 8.62291 0)
(7.56241 8.47449 0)
(7.38673 7.94972 0)
(7.10881 7.27233 0)
(6.99825 6.36531 0)
(6.90505 5.68561 0)
(7.31394 5.16646 0)
(7.22271 4.98182 0)
(7.77015 4.4424 0)
(7.39089 4.04572 0)
(7.89069 3.89732 0)
(7.44288 3.90359 0)
(7.90683 3.19843 0)
(7.48732 3.31624 0)
(8.37423 3.23591 0)
(7.36866 3.61317 0)
(8.35898 3.30797 0)
(6.49631 3.14288 0)
(7.47997 2.58913 0)
(5.52771 2.53471 0)
(7.06037 2.31773 0)
(4.86764 3.41521 0)
(7.14109 3.22395 0)
(4.75432 4.28472 0)
(7.65737 3.96769 0)
(5.63097 4.64304 0)
(7.85302 4.03941 0)
(6.84567 4.43678 0)
(7.38797 4.27043 0)
(7.72627 4.63995 0)
(7.9847 4.20011 0)
(8.18052 4.10392 0)
(8.57612 3.21551 0)
(8.59786 1.91966 0)
(8.65862 0.151114 0)
(8.40009 -0.899331 0)
(8.47263 -2.03674 0)
(8.49233 -2.87863 0)
(8.09512 -3.93789 0)
(8.5158 -4.55805 0)
(7.77641 -5.61826 0)
(7.89958 -5.59362 0)
(7.75324 -6.11504 0)
(7.50454 -5.0155 0)
(7.30948 -5.61916 0)
(7.96744 -4.2257 0)
(6.63855 -4.38525 0)
(8.74791 -3.15135 0)
(6.58645 -3.61543 0)
(8.14317 -2.73113 0)
(7.44579 -3.40999 0)
(7.8403 -1.93406 0)
(7.62499 -2.40237 0)
(7.82899 -1.3003 0)
(7.64835 -1.7068 0)
(8.12063 -1.27646 0)
(7.06116 -2.11133 0)
(7.38524 -2.09891 0)
(7.86449 -2.0317 0)
(8.01047 -1.52707 0)
(7.8685 -1.8479 0)
(7.8078 -1.99402 0)
(7.89259 -2.14431 0)
(8.13286 -2.47134 0)
(8.28849 -3.17277 0)
(8.55231 -3.92426 0)
(9.08535 -4.62158 0)
(9.76213 -5.06666 0)
(10.3781 -5.21142 0)
(10.7103 -4.96605 0)
(10.8873 -4.27997 0)
(10.9675 -3.07114 0)
(10.902 -1.42488 0)
(10.6778 0.408633 0)
(10.3487 2.07453 0)
(9.92177 3.60446 0)
(9.51587 5.09135 0)
(8.93777 6.47836 0)
(8.40466 7.29882 0)
(7.6908 7.36321 0)
(7.18219 7.14234 0)
(6.57773 7.06721 0)
(5.95151 7.22902 0)
(5.36441 7.81502 0)
(4.78681 8.46388 0)
(4.25866 8.61894 0)
(3.7923 8.48936 0)
(2.94434 8.32278 0)
(3.2145 7.27928 0)
(1.62225 7.86049 0)
(4.08312 4.89622 0)
(0.262404 4.51677 0)
(6.25676 0.573641 0)
(1.44368 2.37856 0)
(6.16084 -1.69425 0)
(1.46346 0.994866 0)
(5.85995 -2.94069 0)
(2.29933 0.0109869 0)
(6.04014 -2.87727 0)
(3.46081 -0.282286 0)
(6.29212 -2.29658 0)
(4.2417 -0.277137 0)
(6.47057 -1.6013 0)
(4.38152 0.315537 0)
(6.03201 -0.184909 0)
(3.79595 2.09589 0)
(7.19871 2.09543 0)
(4.80248 7.11033 0)
(5.98266 -0.958211 0)
(5.74747 -0.8442 0)
(5.74582 -0.680414 0)
(5.2774 -0.556322 0)
(5.14994 0.137468 0)
(5.90856 0.736605 0)
(6.15497 0.555235 0)
(6.161 0.692845 0)
(7.2472 1.43007 0)
(8.60412 1.2734 0)
(9.56487 0.672403 0)
(10.2411 0.368195 0)
(11.1136 -0.166712 0)
(12.1999 -1.08347 0)
(12.3501 -1.68152 0)
(11.805 -1.89326 0)
(11.8986 -2.25401 0)
(12.7563 -3.24714 0)
(13.2934 -4.37795 0)
(13.6179 -5.28635 0)
(13.3276 -5.8735 0)
(12.9775 -6.0836 0)
(12.3004 -6.16353 0)
(11.7495 -5.99729 0)
(10.885 -5.73757 0)
(10.5253 -5.50015 0)
(9.90516 -5.33521 0)
(9.1581 -4.85268 0)
(8.63186 -4.59408 0)
(8.08963 -4.43129 0)
(7.61851 -3.859 0)
(6.89111 -3.91321 0)
(6.13617 -3.73941 0)
(5.68197 -3.10473 0)
(5.06087 -3.30364 0)
(4.0299 -3.7529 0)
(3.48122 -2.92027 0)
(3.31848 -0.757411 0)
(3.37477 1.76547 0)
(3.29503 4.36667 0)
(2.95672 7.03917 0)
(2.58889 9.73678 0)
(2.4255 11.4472 0)
(2.98685 10.6812 0)
(3.79275 8.4067 0)
(4.15809 6.57493 0)
(4.52764 5.13995 0)
(5.50058 3.06329 0)
(6.23976 1.40296 0)
(6.50568 0.712692 0)
(6.59821 0.426532 0)
(7.39191 -0.710553 0)
(8.60012 -2.56503 0)
(9.6053 -4.29807 0)
(9.89064 -5.53287 0)
(9.69503 -6.05962 0)
(8.85689 -6.00193 0)
(8.15124 -5.70544 0)
(7.67741 -5.87695 0)
(7.28913 -6.61481 0)
(6.9376 -6.70189 0)
(6.05693 -5.76604 0)
(4.81174 -4.78114 0)
(4.4324 -3.93985 0)
(3.98409 -3.43703 0)
(3.4588 -3.75915 0)
(3.27533 -4.47347 0)
(3.44444 -5.21608 0)
(3.68403 -6.03614 0)
(3.9178 -6.8525 0)
(4.10698 -7.49809 0)
(4.3912 -8.13529 0)
(4.83542 -8.53637 0)
(5.04028 -9.03891 0)
(5.62819 -9.06317 0)
(6.0633 -8.26791 0)
(6.3244 -7.22379 0)
(6.38649 -6.21039 0)
(6.77432 -4.88047 0)
(6.93158 -3.49194 0)
(7.04599 -2.21825 0)
(7.18461 -0.970424 0)
(7.26187 0.763583 0)
(7.24642 2.51267 0)
(7.04487 3.13722 0)
(7.23233 3.13168 0)
(7.31887 3.21287 0)
(7.22261 4.03736 0)
(7.22913 5.64555 0)
(7.2557 7.29962 0)
(7.15619 8.26568 0)
(7.07728 8.51914 0)
(7.15261 8.60771 0)
(7.26034 8.4753 0)
(7.21732 8.01011 0)
(6.97815 7.36021 0)
(6.90612 6.40889 0)
(6.71268 5.6483 0)
(7.16846 5.0852 0)
(6.9663 4.90903 0)
(7.62875 4.36828 0)
(7.26942 4.05227 0)
(7.81929 3.84832 0)
(7.33507 3.91909 0)
(7.87905 3.17963 0)
(7.27784 3.26137 0)
(8.45552 3.20869 0)
(7.17288 3.64597 0)
(8.54275 3.42528 0)
(6.53489 3.36914 0)
(7.68657 2.70753 0)
(5.76629 2.71002 0)
(7.19346 2.41265 0)
(4.92256 3.4278 0)
(7.34369 3.21853 0)
(5.00229 4.16209 0)
(7.7545 3.87999 0)
(5.99956 4.46732 0)
(7.71891 3.91343 0)
(7.38784 4.34525 0)
(7.61104 4.20889 0)
(8.00586 4.4931 0)
(8.46898 4.07518 0)
(8.56091 4.00632 0)
(9.13567 3.17506 0)
(9.01403 1.91924 0)
(9.21239 0.176137 0)
(8.79284 -0.867507 0)
(8.97919 -2.01306 0)
(8.85992 -2.83069 0)
(8.56996 -3.93474 0)
(8.8463 -4.50346 0)
(8.17351 -5.49817 0)
(8.36991 -5.63233 0)
(8.01831 -5.93256 0)
(7.77908 -5.02374 0)
(7.66346 -5.57919 0)
(7.97378 -4.13434 0)
(6.90133 -4.52936 0)
(8.94723 -3.12924 0)
(6.65142 -3.53487 0)
(8.57758 -2.85057 0)
(7.36556 -3.41755 0)
(8.12602 -1.9004 0)
(7.6804 -2.44066 0)
(7.85227 -1.1923 0)
(7.72102 -1.87632 0)
(8.15865 -1.0335 0)
(7.14614 -2.06608 0)
(7.61676 -2.1814 0)
(7.70041 -2.24551 0)
(8.09303 -1.51109 0)
(7.88784 -1.84 0)
(7.7427 -1.95015 0)
(7.95482 -2.22379 0)
(8.18947 -2.54471 0)
(8.23325 -3.24905 0)
(8.58646 -4.12673 0)
(9.18253 -4.89008 0)