/*--------------------------------*- C++ -*----------------------------------*\
| =========                 |                                                 |
| \\      /  F ield         | OpenFOAM: The Open Source CFD Toolbox           |
|  \\    /   O peration     | Version:  2.4.0                                 |
|   \\  /    A nd           | Web:      www.OpenFOAM.org                      |
|    \\/     M anipulation  |                                                 |
\*---------------------------------------------------------------------------*/
FoamFile
{
    version     2.0;
    format      ascii;
    class       volScalarField;
    location    "0.1";
    object      k_0;
}
// * * * * * * * * * * * * * * * * * * * * * * * * * * * * * * * * * * * * * //

dimensions      [0 2 -2 0 0 0 0];

internalField   nonuniform List<scalar> 
4400
(
9.51828
8.51765
6.48337
5.32462
4.62485
4.20199
4.02125
3.78861
3.57963
3.56219
4.38846
6.79772
6.72077
6.31535
5.69595
5.19449
5.00033
4.66946
4.53188
4.42102
1.13751
3.20294
4.1884
4.54556
4.49
4.24605
4.1642
3.91641
3.88993
3.76078
0.158294
0.968387
1.68468
2.30436
2.71124
2.76551
2.88432
2.83953
2.86954
2.83384
0.016646
0.176447
0.407257
0.718648
1.12402
1.31916
1.51803
1.66987
1.73223
1.84267
0.00140881
0.0209064
0.058063
0.119882
0.263056
0.409793
0.492531
0.682269
0.75689
0.923687
0.000134966
0.00209728
0.00538922
0.0118735
0.0294347
0.0701388
0.0904959
0.155999
0.19544
0.302191
4.29869e-05
0.000327512
0.000597573
0.000954807
0.00215477
0.00606836
0.00822277
0.0181823
0.0255765
0.048286
3.41359e-05
0.000132034
0.000214744
0.000240194
0.000324178
0.000578033
0.000633194
0.00129578
0.00169936
0.00261861
3.30762e-05
0.000136572
0.000167923
0.000172536
0.000206074
0.000246723
0.000246651
0.000262889
0.000266961
0.00032608
3.29653e-05
0.000151431
0.000175444
0.00016976
0.000172761
0.000200591
0.000232528
0.000238083
0.000251971
0.000302664
3.3755e-05
0.000161374
0.000179434
0.000189704
0.000221744
0.000313995
0.000691803
0.000849414
0.00132387
0.00302319
4.09244e-05
0.00025547
0.000400512
0.000833538
0.00178742
0.00404308
0.00919792
0.0139916
0.0222615
0.0494451
0.000139881
0.00151298
0.00426785
0.0120475
0.0271171
0.0594484
0.0969309
0.14775
0.189847
0.313115
0.00150835
0.0170323
0.0516917
0.129727
0.248571
0.388625
0.530743
0.659303
0.749856
0.958706
0.0176019
0.15071
0.411863
0.741041
1.09168
1.32693
1.5346
1.64737
1.74084
1.88413
0.166447
0.935581
1.71457
2.30475
2.68114
2.79465
2.86798
2.84737
2.85507
2.86624
1.18599
3.14169
4.22334
4.52359
4.47636
4.27609
4.13557
3.93273
3.87316
3.77335
4.41767
6.74271
6.74031
6.28687
5.71392
5.21473
4.95932
4.66242
4.57337
4.33222
9.53893
8.47192
6.52576
5.28439
4.63996
4.21235
3.99876
3.75506
3.67638
3.33188
2.20085
1.25725
0.78671
0.593994
0.586768
0.609638
0.67904
0.840872
0.927303
1.11432
1.12274
1.08613
0.790309
0.656344
0.584306
0.439532
0.416726
0.382003
0.337984
0.342673
0.37023
0.402161
0.386052
0.356805
0.294737
0.15565
0.0704387
0.036426
0.0262023
0.02718
0.0382402
0.0718624
0.145198
0.181449
0.179666
0.162423
0.132749
0.13486
0.167035
0.278366
0.319117
0.310607
0.281358
0.251259
0.234928
0.224444
0.220325
0.211228
0.188067
0.166807
0.159195
0.127503
0.116427
0.106841
0.0958053
0.0935413
0.13999
0.200771
0.4214
0.409197
0.367489
0.311861
0.231698
0.16557
0.12744
0.119341
0.12156
0.13167
0.183343
0.224772
0.219181
0.165793
0.102474
0.062179
0.0495712
0.0419494
0.0367356
0.0327477
0.0327801
0.0332432
0.0403106
0.0423026
0.0503285
0.0491359
0.0525931
0.0525438
0.0599337
0.0636237
0.0748841
0.0755075
0.0751318
0.0669043
0.0457696
0.0296837
0.0246123
0.014378
0.012315
0.0128346
0.0555397
0.48027
3.39971
2.43669
1.85207
1.49729
1.05664
0.944434
0.953656
0.956064
1.03285
1.10062
1.08447
1.13461
1.06374
0.949304
0.89433
0.756745
0.695582
0.61388
0.567076
0.521389
0.481295
0.448176
0.373697
0.298238
0.14607
0.0645102
0.0341855
0.0238871
0.0237394
0.0296506
0.0651068
0.160937
0.235602
0.255283
0.250368
0.229258
0.167805
0.140334
0.1445
0.182735
0.277161
0.295701
0.285188
0.266733
0.245995
0.231786
0.22468
0.2114
0.182769
0.162383
0.155349
0.127226
0.116601
0.111661
0.10261
0.0970066
0.12127
0.290794
0.441803
0.407882
0.38966
0.358443
0.246057
0.156241
0.116918
0.110271
0.11334
0.123152
0.169091
0.217388
0.214482
0.173992
0.10839
0.0658168
0.051307
0.0416825
0.0362498
0.0327273
0.0331878
0.0344091
0.0434529
0.0465717
0.0555087
0.0531661
0.0558499
0.0546376
0.0615939
0.0629795
0.0757523
0.0748149
0.0805442
0.0740505
0.0673185
0.0381675
0.0307596
0.0171423
0.0210966
0.0148925
0.0478891
0.313017
3.13043
2.52393
2.08979
1.87219
1.5591
1.37932
1.292
1.17038
1.10328
1.11132
1.04644
1.02802
1.0109
0.953797
0.845519
0.814338
0.765004
0.663218
0.627252
0.551608
0.492185
0.403636
0.271373
0.132705
0.0594427
0.0300542
0.0214369
0.0202345
0.0234947
0.0452617
0.143531
0.27012
0.314846
0.318431
0.306115
0.282135
0.232508
0.162863
0.146639
0.153547
0.190559
0.25508
0.26831
0.26264
0.247473
0.235224
0.226272
0.203799
0.178177
0.161475
0.153251
0.126133
0.11409
0.113267
0.111367
0.121773
0.161249
0.390014
0.43772
0.435679
0.429039
0.409117
0.290321
0.15646
0.108284
0.101203
0.104561
0.114881
0.15804
0.210147
0.208318
0.179003
0.113593
0.0698574
0.0537259
0.0420613
0.0367555
0.0332731
0.0346125
0.0364368
0.0465552
0.0504048
0.0600209
0.0569274
0.0584599
0.0566892
0.0621144
0.0630177
0.075296
0.0746564
0.0872024
0.0806157
0.0845256
0.0571324
0.0476326
0.0237176
0.0323934
0.020126
0.0507535
0.199834
2.50288
2.16683
1.88052
1.69855
1.51157
1.37024
1.23889
1.1631
1.01769
0.971154
0.909593
0.805763
0.793875
0.760351
0.649775
0.617542
0.562716
0.469958
0.432924
0.373611
0.310927
0.191407
0.0983093
0.0490868
0.0248988
0.0181636
0.0178944
0.0194772
0.0326783
0.0936547
0.273161
0.371875
0.378673
0.357427
0.31881
0.288188
0.266128
0.211703
0.157764
0.149978
0.156906
0.186526
0.225793
0.240293
0.237564
0.230354
0.213794
0.192371
0.175593
0.161833
0.152548
0.127038
0.113425
0.113013
0.117359
0.138511
0.206562
0.420531
0.445497
0.520365
0.492845
0.42172
0.29199
0.157554
0.102849
0.0943017
0.0972351
0.107228
0.147051
0.203369
0.20204
0.18077
0.122456
0.0737556
0.0580269
0.0432175
0.0387243
0.0348719
0.036725
0.0390813
0.0503203
0.055131
0.0664979
0.0628011
0.0637372
0.0606885
0.0648646
0.0654193
0.0744188
0.072478
0.0846999
0.0790778
0.134215
0.107139
0.20409
0.0829289
0.0716841
0.0326867
0.0479597
0.119668
1.69851
1.53516
1.43272
1.27032
1.18919
1.12998
0.979929
0.92217
0.801965
0.712204
0.668926
0.552096
0.528057
0.497466
0.412559
0.386539
0.334138
0.257002
0.207924
0.150182
0.103108
0.0598833
0.0334113
0.0191386
0.0143134
0.0152798
0.0172268
0.0252901
0.0621592
0.220945
0.405555
0.440031
0.413498
0.355858
0.316703
0.284154
0.267867
0.246711
0.185344
0.155518
0.15107
0.157274
0.175874
0.202308
0.208288
0.205321
0.194195
0.186597
0.174729
0.165504
0.152755
0.13131
0.116186
0.116138
0.125527
0.138788
0.252178
0.361841
0.495881
0.575064
0.497964
0.39995
0.261487
0.15145
0.0980499
0.0884893
0.0912148
0.101193
0.13802
0.196935
0.196705
0.180453
0.13504
0.079811
0.0659504
0.0458786
0.0430691
0.0381154
0.040384
0.0426372
0.053895
0.0607982
0.0720865
0.0687746
0.0693276
0.0652784
0.0704517
0.0704401
0.0772894
0.0777601
0.0745604
0.0768802
0.0830268
0.0922939
0.180892
0.164586
0.226656
0.13123
0.0816058
0.100709
0.870348
0.802566
0.793816
0.749619
0.721545
0.698254
0.619959
0.586811
0.504762
0.433361
0.386954
0.280877
0.262877
0.24159
0.19196
0.17441
0.130912
0.0927044
0.0651054
0.0456182
0.0305835
0.0191857
0.0132567
0.0113017
0.0123378
0.0157006
0.0231582
0.0457576
0.133605
0.397737
0.497284
0.477662
0.406692
0.335923
0.291338
0.26571
0.259322
0.248606
0.220693
0.171446
0.153608
0.15404
0.157898
0.171057
0.183116
0.187466
0.185926
0.184718
0.179786
0.173685
0.155334
0.137768
0.119073
0.117986
0.1239
0.139301
0.221626
0.331081
0.581048
0.577555
0.376968
0.314636
0.214753
0.139667
0.094136
0.0840404
0.0863074
0.0958701
0.130664
0.191548
0.193922
0.180488
0.145872
0.0875392
0.075101
0.051115
0.0486439
0.0431772
0.0462363
0.0479718
0.0586819
0.0691859
0.0791359
0.0794105
0.078986
0.0760539
0.07989
0.0816141
0.0904864
0.0875874
0.0821245
0.0658692
0.0692343
0.08357
0.186558
0.171646
0.187567
0.162141
0.172485
0.127254
0.281478
0.271888
0.287172
0.283647
0.291583
0.29056
0.26578
0.251137
0.203245
0.16152
0.131667
0.0892404
0.0807606
0.068836
0.0552973
0.0455802
0.0327822
0.0234005
0.0155842
0.0118512
0.0090455
0.00833441
0.00882999
0.0102794
0.0161182
0.0266013
0.0449737
0.0934745
0.294609
0.537125
0.55946
0.491409
0.374338
0.312318
0.273253
0.246523
0.24201
0.240824
0.232858
0.206089
0.165216
0.157921
0.158661
0.165402
0.174603
0.189996
0.191445
0.194288
0.189878
0.182941
0.159133
0.146499
0.125388
0.11697
0.116764
0.125975
0.159542
0.315663
0.586744
0.489992
0.281162
0.249179
0.192571
0.127381
0.0916039
0.0810057
0.0829495
0.0923166
0.122368
0.185264
0.188945
0.178843
0.154811
0.0963692
0.0831533
0.0567022
0.0552269
0.0502787
0.0544331
0.0552771
0.0662227
0.0730789
0.0841734
0.0839321
0.0863521
0.0842446
0.0900938
0.0930216
0.0990404
0.0998328
0.0959355
0.0783645
0.0514225
0.0600912
0.148441
0.165033
0.256985
0.213727
0.195132
0.14864
0.0462259
0.0478457
0.0628089
0.0662183
0.0730371
0.0731922
0.0670655
0.0617754
0.0471044
0.0342141
0.0253551
0.0180924
0.0153139
0.0121419
0.0099402
0.00773897
0.00627209
0.00470642
0.00467896
0.0049725
0.00557996
0.0072139
0.0105584
0.0175896
0.0382443
0.0585586
0.0920266
0.184645
0.491994
0.631198
0.592387
0.442062
0.344205
0.294913
0.262644
0.244613
0.235825
0.235876
0.235885
0.2293
0.194333
0.172179
0.165924
0.171054
0.178181
0.198371
0.205687
0.212046
0.205334
0.19672
0.169403
0.153072
0.138239
0.119564
0.109118
0.120536
0.165452
0.347847
0.501954
0.44944
0.296612
0.251739
0.1961
0.118806
0.0891773
0.0788979
0.0803695
0.0895332
0.121941
0.176883
0.182842
0.174253
0.157406
0.106928
0.0940081
0.0652988
0.0653721
0.0600035
0.0652172
0.0653417
0.0755688
0.080126
0.0926504
0.0923585
0.0988824
0.0970532
0.108048
0.106736
0.110664
0.10792
0.102218
0.0841407
0.0508058
0.0529734
0.0438147
0.123865
0.129026
0.185443
0.247459
0.198281
0.00362152
0.0046035
0.00829379
0.00888992
0.0100103
0.00994693
0.00880576
0.00712544
0.00495901
0.00346502
0.00274719
0.00226356
0.00208782
0.00206336
0.00207194
0.00215499
0.00237665
0.00285102
0.00435664
0.00632743
0.00947896
0.0179588
0.028217
0.0463794
0.089039
0.118272
0.171198
0.350743
0.660203
0.683336
0.579449
0.393729
0.325245
0.28823
0.25794
0.248446
0.236472
0.237384
0.246411
0.247206
0.234638
0.205138
0.185718
0.188605
0.194041
0.216732
0.23119
0.23711
0.226571
0.214806
0.183088
0.168307
0.147181
0.122922
0.10796
0.133993
0.167491
0.359848
0.380591
0.441738
0.376978
0.290839
0.238501
0.115655
0.0910797
0.0779291
0.080088
0.0883713
0.124853
0.169272
0.180208
0.172024
0.159995
0.117531
0.105475
0.0769618
0.0780415
0.0720043
0.077445
0.0773056
0.0867535
0.0904892
0.10189
0.104699
0.116392
0.115994
0.1275
0.125613
0.130026
0.124124
0.116378
0.0917776
0.0543901
0.0474088
0.0336608
0.0808502
0.0730008
0.117474
0.218417
0.217314
0.000431729
0.000492646
0.000829985
0.000861774
0.000940376
0.000902751
0.000745606
0.000684297
0.000691138
0.000764055
0.00110553
0.0014028
0.00194041
0.00283655
0.00348937
0.00501536
0.00681863
0.00957139
0.016638
0.0229351
0.0326821
0.0558902
0.074717
0.113068
0.17245
0.211731
0.291292
0.565876
0.734692
0.704919
0.533202
0.368379
0.317479
0.288043
0.256412
0.254818
0.242986
0.246153
0.2577
0.266523
0.26269
0.244769
0.224054
0.225926
0.230918
0.257595
0.268583
0.268624
0.250294
0.234147
0.199244
0.180977
0.149094
0.124015
0.108932
0.145197
0.175005
0.326496
0.346618
0.523446
0.444545
0.322874
0.297038
0.127639
0.0925139
0.0777421
0.081244
0.0887432
0.133607
0.16771
0.179405
0.171009
0.161377
0.124853
0.114918
0.089967
0.0918214
0.0855399
0.0908446
0.0906798
0.0996173
0.102876
0.115245
0.118592
0.138086
0.138567
0.153728
0.147844
0.152953
0.142508
0.130864
0.0961086
0.0610136
0.0473106
0.0316557
0.056665
0.051401
0.0854373
0.107011
0.180376
0.00033435
0.000432562
0.000494863
0.000520979
0.000556467
0.000574942
0.00070486
0.00112247
0.00171989
0.00304688
0.00647522
0.00827712
0.0117924
0.0166749
0.0195019
0.025587
0.0306826
0.0399514
0.0564366
0.0691816
0.0957418
0.130422
0.159969
0.229681
0.301328
0.349205
0.466939
0.723892
0.762611
0.692999
0.510829
0.353103
0.312557
0.296346
0.256163
0.255128
0.254473
0.264584
0.268615
0.284226
0.2855
0.275949
0.271278
0.273409
0.280647
0.305752
0.306618
0.299902
0.271957
0.253156
0.214913
0.18741
0.14816
0.121876
0.11132
0.134015
0.160085
0.256121
0.329181
0.70909
0.474605
0.363354
0.304937
0.127662
0.105039
0.0777128
0.0875761
0.0901941
0.150147
0.168982
0.180637
0.171089
0.163025
0.131411
0.12452
0.104187
0.106449
0.100624
0.10565
0.106404
0.115357
0.120145
0.1376
0.14512
0.17651
0.177279
0.193759
0.179595
0.183667
0.163853
0.148393
0.101528
0.0680691
0.0465773
0.031652
0.043568
0.0407763
0.0671993
0.0718275
0.105315
0.00454684
0.00499248
0.00499908
0.00518695
0.00572901
0.00624364
0.00785897
0.0118243
0.015287
0.0242223
0.0386552
0.0450229
0.0581886
0.0698675
0.0766054
0.0916329
0.102504
0.123617
0.148334
0.169657
0.216841
0.256444
0.304074
0.410945
0.470638
0.516845
0.646262
0.776307
0.754266
0.654648
0.505408
0.347828
0.30666
0.301816
0.263979
0.253026
0.256801
0.268601
0.272409
0.299574
0.302162
0.304622
0.309344
0.307009
0.332193
0.346662
0.344035
0.327565
0.297173
0.265225
0.222307
0.187065
0.145028
0.118441
0.11283
0.11801
0.134202
0.169455
0.344418
0.793435
0.477066
0.38171
0.255807
0.103331
0.142977
0.0796086
0.10602
0.0932555
0.166251
0.173093
0.184032
0.171858
0.165618
0.137705
0.133351
0.118184
0.121161
0.117422
0.122696
0.126237
0.135668
0.144406
0.173482
0.186738
0.231435
0.226507
0.248193
0.220285
0.225009
0.193608
0.167453
0.106215
0.0714904
0.0469468
0.0330151
0.0369822
0.0348285
0.0530706
0.0550095
0.071069
0.0573414
0.0587727
0.0584742
0.0591402
0.061136
0.0635586
0.0705829
0.0843848
0.0953267
0.124878
0.15293
0.164551
0.189297
0.204917
0.217779
0.236635
0.255078
0.284817
0.308468
0.34334
0.399044
0.439671
0.515161
0.6093
0.651174
0.662115
0.72428
0.762459
0.675987
0.6351
0.541315
0.351584
0.305016
0.31302
0.295075
0.273013
0.272731
0.27681
0.28232
0.306505
0.312142
0.322693
0.329566
0.343227
0.391225
0.380955
0.371122
0.340399
0.30764
0.265801
0.225939
0.181731
0.142008
0.113197
0.111841
0.109784
0.117314
0.142014
0.464053
0.792595
0.412362
0.281737
0.195295
0.149492
0.267027
0.0817225
0.157418
0.100815
0.189243
0.18087
0.190557
0.173808
0.170997
0.144994
0.145421
0.136747
0.138104
0.141439
0.145628
0.156402
0.163048
0.178888
0.233321
0.250388
0.319757
0.30239
0.341374
0.286716
0.296424
0.246903
0.179224
0.108874
0.0742316
0.0481919
0.0355411
0.0358495
0.0334257
0.0435939
0.0444066
0.0549404
0.310013
0.304281
0.289912
0.281667
0.278024
0.278881
0.288472
0.305359
0.323313
0.363551
0.386412
0.396446
0.41687
0.428747
0.43693
0.455509
0.478228
0.500109
0.520644
0.565312
0.600642
0.645242
0.725993
0.766141
0.75139
0.7166
0.724827
0.698791
0.588522
0.660982
0.620354
0.385488
0.308089
0.318265
0.333564
0.325016
0.311646
0.305916
0.310369
0.319089
0.333522
0.347127
0.382786
0.394367
0.414281
0.393994
0.383392
0.333446
0.298416
0.255688
0.229139
0.170698
0.134901
0.107423
0.108328
0.105678
0.109212
0.135239
0.500223
0.648868
0.387061
0.251361
0.212237
0.238753
0.312843
0.0999373
0.289069
0.107525
0.213288
0.193575
0.207597
0.179758
0.182958
0.161143
0.162644
0.159823
0.156895
0.169663
0.168506
0.175658
0.197834
0.225643
0.350314
0.37074
0.499089
0.45328
0.525408
0.443125
0.385448
0.257694
0.179473
0.108399
0.0760924
0.0496504
0.0398397
0.0375
0.0339256
0.0386036
0.0385476
0.043085
0.910118
0.846804
0.776385
0.732694
0.683675
0.659114
0.659949
0.663009
0.667941
0.67676
0.675656
0.667823
0.669193
0.67216
0.677095
0.690013
0.699069
0.70698
0.720091
0.74614
0.772318
0.822923
0.845057
0.830108
0.7782
0.714268
0.671357
0.553129
0.518529
0.71542
0.772499
0.47635
0.326537
0.317742
0.345123
0.362685
0.373607
0.369427
0.366932
0.361684
0.392838
0.400691
0.42074
0.41246
0.410805
0.389766
0.367918
0.293579
0.275688
0.238895
0.215661
0.148781
0.128875
0.106978
0.109173
0.107384
0.107956
0.139442
0.497212
0.595422
0.476923
0.319161
0.224513
0.252693
0.202349
0.163628
0.382049
0.126489
0.231856
0.205507
0.255953
0.197519
0.198499
0.186796
0.177961
0.180592
0.177026
0.183412
0.183662
0.192814
0.2837
0.36254
0.651168
0.684999
0.883993
0.79963
0.74504
0.558758
0.403037
0.257211
0.176225
0.105992
0.0790739
0.0515737
0.0472335
0.0426862
0.0384856
0.0392965
0.0385993
0.0395675
1.72044
1.52747
1.36311
1.24092
1.13505
1.07579
1.03747
0.987741
0.958145
0.934055
0.900743
0.889001
0.885452
0.876723
0.873944
0.863083
0.855689
0.858351
0.867896
0.890054
0.903409
0.899497
0.88457
0.834187
0.711536
0.611506
0.518639
0.426521
0.450538
0.729239
1.01579
0.680471
0.383822
0.318991
0.337179
0.369727
0.384453
0.386592
0.405623
0.391465
0.415001
0.414769
0.416758
0.410624
0.381238
0.33492
0.286914
0.267808
0.279457
0.236892
0.19798
0.132865
0.126987
0.114864
0.118989
0.118868
0.119547
0.159417
0.44738
0.585209
0.696151
0.422085
0.240014
0.218196
0.186198
0.192985
0.285287
0.175453
0.339031
0.223426
0.29775
0.236657
0.209159
0.208955
0.203035
0.201599
0.199333
0.200453
0.222464
0.293082
0.607484
0.877269
1.31236
1.28868
1.22006
1.02648
0.757821
0.544668
0.363024
0.240212
0.171535
0.102338
0.0867243
0.0603788
0.0623731
0.0563689
0.0535568
0.0461378
0.0425687
0.0422424
2.52096
2.14241
1.85058
1.62772
1.46654
1.35935
1.26731
1.19428
1.14804
1.10182
1.07159
1.05826
1.03254
1.01222
0.995112
0.975221
0.967891
0.967424
0.965223
0.957425
0.940396
0.903458
0.820133
0.626805
0.477475
0.407831
0.362586
0.34482
0.390383
0.690257
1.16382
1.10042
0.580265
0.362641
0.325478
0.340424
0.363029
0.376105
0.395567
0.385515
0.404816
0.402803
0.39166
0.376648
0.27485
0.257249
0.235273
0.251937
0.267231
0.193891
0.177876
0.12483
0.122944
0.150006
0.151743
0.154586
0.163871
0.212371
0.388631
0.615164
0.843993
0.498787
0.328714
0.334102
0.249892
0.215772
0.317116
0.291109
0.415078
0.269352
0.293033
0.277327
0.243617
0.24919
0.247844
0.249634
0.268386
0.322869
0.492594
0.876613
1.62619
1.75844
1.6751
1.5431
1.11472
0.940072
0.587489
0.458153
0.316805
0.203205
0.172544
0.113236
0.120269
0.0952539
0.102015
0.0891902
0.0853057
0.069918
0.0632155
0.0576197
3.10785
2.48006
2.07206
1.79252
1.61437
1.4882
1.3965
1.33075
1.27584
1.23031
1.18587
1.14216
1.10212
1.06911
1.04398
1.02328
1.00946
0.997461
0.97673
0.933778
0.851418
0.679329
0.448827
0.295839
0.240443
0.244201
0.273697
0.300048
0.338533
0.567471
1.17957
1.48743
1.16474
0.599316
0.395472
0.332564
0.324817
0.345305
0.359064
0.361176
0.365164
0.351566
0.314744
0.228666
0.180255
0.165415
0.160682
0.171825
0.157272
0.155771
0.140036
0.129848
0.140876
0.210348
0.229162
0.282729
0.320249
0.342687
0.389818
0.595658
0.874485
0.789778
0.567059
0.579236
0.368719
0.301273
0.44828
0.398661
0.400444
0.387208
0.359517
0.35766
0.3485
0.365192
0.410561
0.59079
0.780869
1.15605
1.87764
2.36042
2.26482
2.0258
1.43332
1.11299
0.768306
0.594831
0.449648
0.329691
0.307762
0.228578
0.26892
0.204861
0.253406
0.206819
0.236762
0.204014
0.203
0.176894
0.176252
0.177703
3.24557
2.481
2.06606
1.8346
1.70056
1.60518
1.52826
1.45515
1.37986
1.30163
1.21945
1.14599
1.0873
1.04182
1.00893
0.980857
0.946553
0.889861
0.79118
0.647507
0.480987
0.329477
0.228276
0.188025
0.190686
0.23143
0.293255
0.348669
0.401028
0.50426
0.956163
1.56252
1.70253
1.62501
1.13506
0.711147
0.443502
0.331733
0.308552
0.293885
0.261878
0.223094
0.186444
0.151017
0.136325
0.131185
0.138435
0.152523
0.166759
0.237168
0.187673
0.239985
0.256644
0.426804
0.550241
0.630089
0.585754
0.473031
0.425103
0.500152
0.838449
1.13099
1.16064
0.915193
0.986468
0.488574
0.661049
0.683739
0.561613
0.63372
0.631998
0.770223
0.91072
1.45871
1.87963
2.97336
3.14305
3.54059
3.18713
2.94741
1.80232
1.49405
0.895416
0.898234
0.681207
0.637841
0.587031
0.535626
0.623441
0.571395
0.732137
0.665081
0.821334
0.771137
0.901116
0.88107
0.936768
0.985214
1.11295
1.277
2.2783
1.88356
1.72714
1.65941
1.60784
1.53893
1.44275
1.32675
1.20212
1.07613
0.957922
0.856832
0.770149
0.695489
0.627288
0.556661
0.478733
0.391356
0.301999
0.228679
0.183937
0.166435
0.17113
0.197882
0.250744
0.353648
0.574088
1.04987
1.67577
1.9385
1.73077
1.08114
1.36903
2.44329
3.11295
3.31439
2.85736
2.04623
1.34066
0.711217
0.379132
0.207019
0.144416
0.136087
0.129817
0.150499
0.15097
0.165736
0.210845
0.255101
0.305702
0.483717
0.545331
0.803622
0.776145
0.893018
0.751697
0.810314
0.698188
0.771871
0.705268
0.968132
1.62733
1.67571
3.33433
0.622742
1.00776
0.770076
0.788579
1.32283
2.05346
3.72288
4.32769
5.99923
5.63388
5.91295
4.65488
4.46428
2.49676
2.29751
0.931102
1.2828
0.494741
1.14312
0.531441
1.24588
0.772834
1.52003
1.1899
1.89799
1.7065
2.26591
2.23344
2.75327
2.83215
3.3621
3.53427
4.41052
4.69682
5.69211
0.0513699
0.12522
0.27884
0.604787
1.26157
1.14718
0.633917
0.413599
0.437525
0.562868
0.899729
0.956977
0.823638
0.722986
0.676113
0.555243
0.427388
0.660734
2.53902
4.73115
5.94463
6.2658
5.56024
4.18997
2.88061
1.9104
1.15484
0.756151
0.479786
0.441995
0.589356
0.854395
1.24717
1.65792
1.97723
2.18527
2.103
1.6398
0.961485
0.814576
1.0089
1.19995
1.46037
1.78965
1.29101
1.15261
0.61761
0.393713
0.301283
0.320883
0.397861
0.467597
0.485451
0.458556
0.44182
0.455783
0.527971
0.660548
0.873348
1.15055
1.39352
1.46189
1.3878
1.1982
1.00685
0.769585
0.546917
0.362728
0.253858
0.176799
0.129498
0.0948832
0.0777247
0.072925
0.0769208
0.0871892
0.0979003
0.10608
0.110107
0.107103
0.100379
0.0894383
0.0763571
0.0629417
0.0519376
0.0448011
0.0376308
0.0312486
0.0263093
0.0228663
0.0212852
0.0224939
0.025379
0.0285636
0.031372
0.0359945
0.0988587
0.256913
0.20845
0.0983725
0.114497
0.202846
0.190283
0.177884
0.266532
0.529239
0.502138
0.370878
0.230338
0.177799
0.193541
0.314094
0.359806
0.308522
0.331406
0.700986
2.14392
3.08635
3.2484
3.26893
2.16995
1.35247
0.798882
0.57863
0.490842
0.466957
0.471935
0.55376
0.562247
0.539521
0.498946
0.479831
0.48582
0.521794
0.568794
0.59128
0.630211
0.841642
0.973652
0.876783
0.77362
0.562469
0.555167
0.473359
0.227853
0.256172
0.234934
0.235944
0.242563
0.227795
0.259482
0.375815
0.502492
0.540862
0.530903
0.461511
0.37662
0.346838
0.371688
0.464364
0.715237
0.952158
0.986601
0.83452
0.516959
0.311108
0.1983
0.133717
0.104854
0.091685
0.0877701
0.0873901
0.0909172
0.0961699
0.101789
0.110029
0.118673
0.128564
0.138646
0.148685
0.156917
0.160921
0.161334
0.155309
0.141127
0.118862
0.090051
0.0604958
0.0383184
0.0270505
0.0231643
0.026249
0.0347034
0.0465012
0.0529651
0.0702774
0.15121
0.166593
0.0982547
0.114686
0.147025
0.205771
0.174521
0.111642
0.112682
0.167767
0.240145
0.221427
0.15938
0.122766
0.0997041
0.109201
0.122553
0.194713
0.617926
1.8197
2.49198
2.57267
1.61267
0.786002
0.443114
0.307072
0.275974
0.27462
0.276646
0.266926
0.293518
0.320888
0.367495
0.438652
0.486124
0.482075
0.450694
0.4134
0.39875
0.442325
0.707243
0.912726
0.888774
0.549231
0.292134
0.205285
0.202279
0.175385
0.149421
0.178224
0.188706
0.200574
0.226441
0.190279
0.165568
0.149736
0.166445
0.244538
0.258076
0.206951
0.137982
0.14193
0.181267
0.218252
0.249661
0.311288
0.52693
0.598487
0.542581
0.331044
0.180173
0.116053
0.0951777
0.0899619
0.0862329
0.0860413
0.0861132
0.0875166
0.0831447
0.0833034
0.0785421
0.0829694
0.0864815
0.098824
0.115589
0.137494
0.162122
0.181856
0.193028
0.194455
0.18441
0.161034
0.126511
0.0826507
0.0473315
0.0366109
0.0386851
0.0498301
0.0598272
0.0935182
0.137093
0.0955291
0.0744581
0.101573
0.177435
0.161123
0.113863
0.0810719
0.0830759
0.0987752
0.140808
0.140827
0.126611
0.112104
0.100962
0.101499
0.129203
0.378812
1.35555
1.96958
2.09478
1.13465
0.524876
0.315334
0.266541
0.260202
0.272407
0.275528
0.273143
0.244784
0.257819
0.279723
0.294947
0.333173
0.350798
0.342872
0.370733
0.426748
0.483989
0.61111
0.75943
0.827687
0.56791
0.262118
0.153305
0.130909
0.136795
0.140487
0.143682
0.148094
0.159596
0.152129
0.180772
0.181669
0.16408
0.133096
0.100313
0.0968359
0.105187
0.0977439
0.0984063
0.17033
0.240508
0.256888
0.256474
0.246077
0.250638
0.352156
0.436039
0.395903
0.226335
0.129831
0.0937461
0.0852731
0.0752281
0.0700037
0.0592493
0.0549267
0.0439003
0.0403676
0.0344415
0.0338082
0.0322064
0.0333001
0.0359842
0.0425518
0.0570757
0.0869165
0.129718
0.169479
0.197605
0.206274
0.202434
0.181106
0.13101
0.0801083
0.0641587
0.0657094
0.0618782
0.0893945
0.105107
0.0669609
0.0594957
0.0977711
0.198399
0.146653
0.0877717
0.0705244
0.0744492
0.086562
0.129429
0.137485
0.131651
0.133362
0.133994
0.134743
0.214382
0.849433
1.5707
1.75431
1.09315
0.470242
0.287971
0.249789
0.246063
0.255214
0.261787
0.265994
0.240548
0.230707
0.215111
0.269214
0.284108
0.324378
0.333944
0.31471
0.292679
0.322284
0.416138
0.572943
0.657107
0.570089
0.32014
0.168995
0.126716
0.122202
0.135365
0.148894
0.156208
0.154524
0.1608
0.141449
0.154211
0.154468
0.166115
0.150952
0.107298
0.073688
0.0738765
0.0810547
0.114769
0.204434
0.262512
0.284924
0.286855
0.283896
0.260324
0.264299
0.343445
0.370856
0.308539
0.166973
0.104022
0.0776817
0.0601602
0.0505818
0.04147
0.0375033
0.031974
0.0300814
0.0285678
0.0278745
0.027534
0.0269684
0.0263663
0.0260207
0.026221
0.0273302
0.0329676
0.0541113
0.112184
0.165882
0.197459
0.212764
0.20744
0.172566
0.123338
0.106652
0.081192
0.0822061
0.0862503
0.0508776
0.0445955
0.0960159
0.204162
0.124076
0.0787612
0.0708195
0.0783359
0.0922239
0.14607
0.150888
0.158652
0.188292
0.225839
0.240879
0.474268
1.19305
1.47472
1.1892
0.507741
0.28903
0.24242
0.236736
0.232446
0.237434
0.239308
0.234961
0.206441
0.224928
0.182994
0.207325
0.230402
0.315116
0.353488
0.367683
0.293712
0.292089
0.336891
0.467693
0.490371
0.366218
0.20653
0.145233
0.12709
0.133975
0.155619
0.165933
0.167291
0.178913
0.177248
0.144763
0.155316
0.137503
0.158823
0.154194
0.126801
0.078936
0.0681008
0.0771014
0.144158
0.215386
0.249352
0.276028
0.282784
0.283509
0.2714
0.258971
0.280029
0.342646
0.329954
0.231633
0.128522
0.0822555
0.0566554
0.0444847
0.0367581
0.0338551
0.0313448
0.0306242
0.032416
0.0337188
0.036583
0.0364774
0.0354841
0.0324955
0.028596
0.0243168
0.0216596
0.0216525
0.0273826
0.0516733
0.121182
0.17866
0.208589
0.214162
0.1957
0.175157
0.134752
0.0863991
0.0791637
0.0438947
0.0391664
0.0953165
0.200102
0.112794
0.0770025
0.0783853
0.0907812
0.111274
0.152317
0.163965
0.207819
0.31842
0.38963
0.46352
0.833512
1.1875
1.22777
0.61735
0.312997
0.24054
0.229135
0.230541
0.228671
0.237272
0.233959
0.224293
0.196076
0.212515
0.174658
0.186211
0.201304
0.242072
0.32061
0.394454
0.385375
0.309052
0.308841
0.370826
0.386745
0.273679
0.175128
0.145317
0.138785
0.157878
0.165497
0.16358
0.163996
0.187712
0.174592
0.160853
0.173921
0.138697
0.145126
0.150177
0.141354
0.0983587
0.0738692
0.0860868
0.16729
0.216996
0.240172
0.249317
0.253518
0.256536
0.260116
0.255339
0.26038
0.310344
0.320999
0.273292
0.156264
0.0899016
0.057731
0.0431418
0.0365022
0.0339823
0.0337307
0.0359698
0.039775
0.0412883
0.0437795
0.0447264
0.0457792
0.0452176
0.0422213
0.0368107
0.0285189
0.0210449
0.0179798
0.0197268
0.032306
0.0716891
0.154862
0.198929
0.210309
0.212773
0.209179
0.118344
0.0813152
0.0415275
0.0392921
0.0951853
0.190516
0.107889
0.083664
0.0948393
0.121107
0.136905
0.131324
0.192411
0.317548
0.441641
0.528408
0.655443
0.926944
1.09226
0.790858
0.371884
0.250537
0.225437
0.227409
0.227122
0.253243
0.262782
0.221497
0.218784
0.195951
0.210085
0.172341
0.185958
0.204247
0.234098
0.275775
0.369086
0.450605
0.38142
0.325377
0.306305
0.317471
0.247031
0.170532
0.149484
0.157512
0.169463
0.177339
0.165442
0.151204
0.171594
0.145928
0.16799
0.177918
0.158666
0.142896
0.14601
0.155735
0.129495
0.0997824
0.102532
0.134701
0.161989
0.207779
0.23607
0.244862
0.242883
0.239244
0.240209
0.245196
0.279698
0.310842
0.292314
0.197219
0.103059
0.0599789
0.0432521
0.0370877
0.0363747
0.0394062
0.0410446
0.0428401
0.0433036
0.0458741
0.0472307
0.0498057
0.0509158
0.0504581
0.0476374
0.0414902
0.0330453
0.0223212
0.0162453
0.0163761
0.0233843
0.0495238
0.125234
0.181518
0.204293
0.235903
0.192182
0.0917769
0.0436355
0.0477733
0.099391
0.179162
0.107118
0.0920806
0.110371
0.137615
0.14784
0.12099
0.282939
0.380575
0.493695
0.583006
0.730141
0.880985
0.870174
0.471306
0.277989
0.232783
0.224604
0.234168
0.236664
0.284107
0.280156
0.189691
0.19251
0.194764
0.206257
0.176731
0.208269
0.237555
0.264658
0.284553
0.322038
0.452037
0.464441
0.391436
0.303939
0.279598
0.230096
0.17365
0.155099
0.160479
0.174191
0.176389
0.157413
0.134879
0.158641
0.135725
0.172725
0.178558
0.170117
0.144674
0.145658
0.174245
0.161803
0.121328
0.112257
0.113416
0.145219
0.197311
0.226812
0.241908
0.242008
0.231495
0.229047
0.230566
0.252862
0.297383
0.297097
0.24751
0.125777
0.0651302
0.04392
0.0394664
0.0408174
0.0429786
0.0429865
0.0428495
0.0430619
0.0449655
0.0469761
0.050269
0.0522795
0.0542886
0.0542118
0.0504377
0.0430268
0.0346932
0.0230622
0.0153447
0.0147018
0.0189407
0.0394101
0.0978564
0.161672
0.225323
0.22644
0.127808
0.0530217
0.0563023
0.105078
0.171511
0.107817
0.094825
0.113115
0.138675
0.149252
0.162847
0.319082
0.394413
0.489099
0.586899
0.699099
0.751798
0.571889
0.326987
0.248858
0.230718
0.227567
0.24712
0.241014
0.290936
0.271041
0.179116
0.173317
0.190766
0.189248
0.189396
0.2371
0.279185
0.300154
0.309187
0.320155
0.397553
0.491116
0.47579
0.349132
0.276162
0.22853
0.188478
0.158301
0.156115
0.173001
0.152035
0.152357
0.138611
0.148691
0.131911
0.174615
0.173109
0.170552
0.153898
0.1383
0.170919
0.180747
0.144831
0.109237
0.106853
0.150643
0.200221
0.225122
0.241341
0.244095
0.232966
0.219657
0.218912
0.228793
0.277344
0.294814
0.272473
0.163985
0.078387
0.0481543
0.0447106
0.0449899
0.0445549
0.0433877
0.0416257
0.0416994
0.0445645
0.0457019
0.0502914
0.0515989
0.0549611
0.0557607
0.0554408
0.0513137
0.0413817
0.0339515
0.022482
0.0150557
0.0135101
0.0170519
0.0352101
0.0754419
0.174738
0.225147
0.186429
0.080145
0.0741779
0.120792
0.167983
0.110907