/*--------------------------------*- C++ -*----------------------------------*\
| =========                 |                                                 |
| \\      /  F ield         | OpenFOAM: The Open Source CFD Toolbox           |
|  \\    /   O peration     | Version:  2.4.0                                 |
|   \\  /    A nd           | Web:      www.OpenFOAM.org                      |
|    \\/     M anipulation  |                                                 |
\*---------------------------------------------------------------------------*/
FoamFile
{
    version     2.0;
    format      ascii;
    class       volSymmTensorField;
    location    "0.1";
    object      UPrime2Mean;
}
// * * * * * * * * * * * * * * * * * * * * * * * * * * * * * * * * * * * * * //

dimensions      [0 2 -2 0 0 0 0];

internalField   nonuniform List<symmTensor> 
4400
(
(0.0592796 -0.00588796 0 0.0010161 0 0)
(0.648936 -0.00161525 0 8.57006e-05 0 0)
(0.73569 -0.00105726 0 3.94299e-06 0 0)
(0.82577 -0.000662961 0 1.98481e-06 0 0)
(0.889525 -4.3323e-05 0 8.96075e-07 0 0)
(0.921753 6.77094e-05 0 1.36205e-06 0 0)
(0.945015 -5.64727e-05 0 1.54971e-06 0 0)
(0.993539 0.000136057 0 5.37869e-06 0 0)
(1.11363 -0.0179093 0 0.000388924 0 0)
(1.80091 0.10262 0 0.0128051 0 0)
(0.0414164 0.0176001 0 0.0106664 0 0)
(0.262923 -0.0206808 0 0.00184517 0 0)
(0.379732 -0.0122745 0 0.000404261 0 0)
(0.528988 -0.0100853 0 0.000241833 0 0)
(0.688716 -0.00682426 0 0.000157235 0 0)
(0.807177 -0.00405228 0 5.15226e-05 0 0)
(0.862083 -0.00420611 0 8.78779e-05 0 0)
(1.08459 -0.0058029 0 0.000129636 0 0)
(0.914341 -0.0189062 0 0.00122628 0 0)
(3.1156 -0.336441 0 0.0798882 0 0)
(0.136452 0.0436838 0 0.014772 0 0)
(0.0447663 -0.0116845 0 0.00453132 0 0)
(0.0846352 -0.0105316 0 0.00165633 0 0)
(0.155149 -0.0131965 0 0.00120418 0 0)
(0.277969 -0.0128316 0 0.000886193 0 0)
(0.413074 -0.00904052 0 0.000311136 0 0)
(0.46082 -0.0115044 0 0.000606324 0 0)
(0.739136 -0.00253105 0 0.000485973 0 0)
(0.547565 -0.0576662 0 0.00956748 0 0)
(2.09436 -0.326662 0 0.130015 0 0)
(0.170732 0.0431303 0 0.0113569 0 0)
(0.00682583 0.00152845 0 0.0058384 0 0)
(0.0258756 0.0030632 0 0.00287762 0 0)
(0.0233738 -0.000841061 0 0.00274622 0 0)
(0.0339568 -0.00609766 0 0.00246177 0 0)
(0.0962441 -0.00721695 0 0.000764665 0 0)
(0.0950009 -0.0111395 0 0.00186187 0 0)
(0.270829 -0.000779386 0 0.000979304 0 0)
(0.203331 -0.0406276 0 0.0169772 0 0)
(0.620773 -0.122634 0 0.12836 0 0)
(0.162134 0.0330947 0 0.00709988 0 0)
(0.0114263 0.00465252 0 0.00466205 0 0)
(0.0662618 0.0106952 0 0.00258331 0 0)
(0.0969711 0.0140635 0 0.00336314 0 0)
(0.0840116 0.0103173 0 0.00369077 0 0)
(0.063115 0.00321496 0 0.00174609 0 0)
(0.0572805 0.000974234 0 0.00222385 0 0)
(0.0564615 -0.00137347 0 0.00235991 0 0)
(0.0834229 -0.000163654 0 0.0138403 0 0)
(0.132902 0.0198475 0 0.18206 0 0)
(0.161792 0.0259854 0 0.00445329 0 0)
(0.0129973 0.00332171 0 0.0032755 0 0)
(0.0738902 0.00872136 0 0.00155708 0 0)
(0.142718 0.0155967 0 0.00266886 0 0)
(0.183432 0.018637 0 0.0036925 0 0)
(0.183874 0.0120144 0 0.00168715 0 0)
(0.193905 0.0149346 0 0.003581 0 0)
(0.182496 0.00772669 0 0.00221513 0 0)
(0.176985 0.0454653 0 0.0234366 0 0)
(0.229915 0.113111 0 0.116228 0 0)
(0.161611 0.0199565 0 0.00268534 0 0)
(0.00895416 0.00203789 0 0.00222497 0 0)
(0.06543 0.00582349 0 0.000890656 0 0)
(0.138361 0.0113669 0 0.00149534 0 0)
(0.193498 0.0157995 0 0.00225867 0 0)
(0.227412 0.0122404 0 0.00188566 0 0)
(0.278829 0.0153617 0 0.00211323 0 0)
(0.299185 0.0206937 0 0.00464099 0 0)
(0.354937 0.0530259 0 0.0126858 0 0)
(0.417979 0.176491 0 0.136652 0 0)
(0.158214 0.0136167 0 0.00134312 0 0)
(0.00595558 0.00112947 0 0.00149764 0 0)
(0.0607531 0.00331817 0 0.00062018 0 0)
(0.132846 0.00784324 0 0.00120212 0 0)
(0.183987 0.0100413 0 0.00182419 0 0)
(0.229319 0.00757664 0 0.00121676 0 0)
(0.270201 0.0136347 0 0.00203281 0 0)
(0.334976 0.0151639 0 0.00295656 0 0)
(0.39393 0.0589714 0 0.0153545 0 0)
(0.558254 0.19172 0 0.11136 0 0)
(0.157786 0.00826927 0 0.000534148 0 0)
(0.00601251 0.000419432 0 0.000617024 0 0)
(0.0580323 0.00170959 0 0.000351149 0 0)
(0.128678 0.00395471 0 0.000633909 0 0)
(0.17505 0.0058516 0 0.00102771 0 0)
(0.220447 0.00458033 0 0.00116149 0 0)
(0.261281 0.00768565 0 0.00139467 0 0)
(0.33162 0.0160414 0 0.00348958 0 0)
(0.399081 0.0530396 0 0.0105908 0 0)
(0.581983 0.170523 0 0.077866 0 0)
(0.158187 0.00247137 0 0.000111886 0 0)
(0.00551699 4.82245e-05 0 0.000245979 0 0)
(0.0567692 0.000344248 0 0.000222477 0 0)
(0.126018 0.00155628 0 0.000372124 0 0)
(0.172613 0.00179795 0 0.000616381 0 0)
(0.217285 0.0007028 0 0.000718454 0 0)
(0.2599 0.00505674 0 0.000737135 0 0)
(0.328936 0.0130252 0 0.00238699 0 0)
(0.407084 0.0453548 0 0.00863929 0 0)
(0.600293 0.159676 0 0.069586 0 0)
(0.158232 -0.00288382 0 9.78636e-05 0 0)
(0.00518294 -0.000335624 0 0.000166932 0 0)
(0.0563474 -0.000925844 0 0.000168654 0 0)
(0.125355 -0.00175654 0 0.000279261 0 0)
(0.171518 -0.00195306 0 0.000428305 0 0)
(0.216715 -0.0026034 0 0.000670373 0 0)
(0.259239 0.00127859 0 0.000531033 0 0)
(0.333659 0.00886433 0 0.00205131 0 0)
(0.418582 0.0405366 0 0.00653814 0 0)
(0.631658 0.139515 0 0.0487642 0 0)
(0.158704 -0.00869575 0 0.000544079 0 0)
(0.0053314 -0.000883946 0 0.000554037 0 0)
(0.0578312 -0.00258075 0 0.00028505 0 0)
(0.126737 -0.00486372 0 0.000418737 0 0)
(0.17469 -0.00639364 0 0.00060982 0 0)
(0.219943 -0.00694328 0 0.000900089 0 0)
(0.265782 -0.00288882 0 0.000491738 0 0)
(0.342444 0.00512869 0 0.00176588 0 0)
(0.436795 0.0315761 0 0.00479906 0 0)
(0.660338 0.116863 0 0.0351722 0 0)
(0.161483 -0.0143902 0 0.00137868 0 0)
(0.00540683 -0.0012814 0 0.00128539 0 0)
(0.0610649 -0.00424946 0 0.000546851 0 0)
(0.127682 -0.0080698 0 0.000878885 0 0)
(0.183446 -0.0107382 0 0.00118427 0 0)
(0.223862 -0.0104796 0 0.00133617 0 0)
(0.27834 -0.00679182 0 0.000679773 0 0)
(0.350384 0.000203245 0 0.00173887 0 0)
(0.456998 0.0234418 0 0.00335771 0 0)
(0.67792 0.0920619 0 0.0246025 0 0)
(0.163849 -0.0205408 0 0.00272419 0 0)
(0.00628296 -0.00165341 0 0.00215678 0 0)
(0.0670497 -0.00640324 0 0.000925763 0 0)
(0.129741 -0.0113074 0 0.00147158 0 0)
(0.197606 -0.0157322 0 0.00197992 0 0)
(0.222379 -0.013973 0 0.00195302 0 0)
(0.285182 -0.0110906 0 0.00108297 0 0)
(0.324135 -0.00342083 0 0.00166454 0 0)
(0.425757 0.0153208 0 0.00241172 0 0)
(0.579153 0.0648315 0 0.0153022 0 0)
(0.161436 -0.0264541 0 0.00455599 0 0)
(0.00749896 -0.00261927 0 0.00313876 0 0)
(0.0728895 -0.00924427 0 0.00162709 0 0)
(0.132138 -0.0150772 0 0.00246435 0 0)
(0.184885 -0.0190266 0 0.00304034 0 0)
(0.174297 -0.0137979 0 0.00257174 0 0)
(0.201064 -0.0104804 0 0.00135418 0 0)
(0.19132 -0.00250362 0 0.00163173 0 0)
(0.239122 0.00965714 0 0.00173402 0 0)
(0.317256 0.039516 0 0.00922465 0 0)
(0.163413 -0.0334643 0 0.00716689 0 0)
(0.00843021 -0.00408887 0 0.00458225 0 0)
(0.0653897 -0.0110977 0 0.00267635 0 0)
(0.0888232 -0.0134194 0 0.00332753 0 0)
(0.0830808 -0.0110248 0 0.00327387 0 0)
(0.0532994 -0.00349664 0 0.00229117 0 0)
(0.0536358 -0.00170936 0 0.00106096 0 0)
(0.0527098 0.00252478 0 0.00112069 0 0)
(0.0672983 0.00455838 0 0.00116607 0 0)
(0.118957 0.0185064 0 0.00508969 0 0)
(0.171542 -0.0433814 0 0.0114246 0 0)
(0.00633329 -0.00119683 0 0.00578323 0 0)
(0.024507 -0.00333088 0 0.00295767 0 0)
(0.020988 0.00128604 0 0.00268401 0 0)
(0.0304731 0.0058283 0 0.00210908 0 0)
(0.0796129 0.00794472 0 0.00125829 0 0)
(0.114026 0.00505783 0 0.000503337 0 0)
(0.163722 0.00412718 0 0.000580277 0 0)
(0.168034 -0.00214143 0 0.000707869 0 0)
(0.176343 0.00463935 0 0.0026823 0 0)
(0.136605 -0.0437519 0 0.0147976 0 0)
(0.0456984 0.0117765 0 0.00450558 0 0)
(0.0821784 0.0105113 0 0.00168732 0 0)
(0.158461 0.0133246 0 0.00118324 0 0)
(0.2694 0.0126631 0 0.000797409 0 0)
(0.406652 0.00912823 0 0.000424789 0 0)
(0.468055 0.00481603 0 0.000151853 0 0)
(0.542464 0.00219339 0 0.000212175 0 0)
(0.524645 -0.00655985 0 0.000349791 0 0)
(0.472496 0.00421596 0 0.00129675 0 0)
(0.0414129 -0.0176049 0 0.0106745 0 0)
(0.263952 0.0206805 0 0.00184086 0 0)
(0.377931 0.0123228 0 0.000410454 0 0)
(0.532923 0.010077 0 0.000237595 0 0)
(0.681603 0.00681294 0 0.000139324 0 0)
(0.807444 0.00372481 0 6.72696e-05 0 0)
(0.85275 0.00161427 0 2.33168e-05 0 0)
(0.904088 2.48001e-05 0 4.41463e-05 0 0)
(0.868548 -0.00529667 0 0.000101391 0 0)
(0.776887 0.00587886 0 0.000561052 0 0)
(0.059312 0.00589088 0 0.00101633 0 0)
(0.64924 0.00160733 0 8.57682e-05 0 0)
(0.735325 0.00106638 0 4.03088e-06 0 0)
(0.826973 0.000657322 0 1.90171e-06 0 0)
(0.8873 3.11144e-05 0 6.66138e-07 0 0)
(0.921837 -0.000123192 0 6.77943e-07 0 0)
(0.929867 -0.000169658 0 6.27041e-07 0 0)
(0.935606 -0.000334404 0 1.32363e-06 0 0)
(0.906055 -0.00122312 0 4.10709e-06 0 0)
(0.820855 0.00279673 0 0.000202189 0 0)
(5.64985 -3.65403 0 2.98737 0 0)
(4.94925 -2.66865 0 3.41162 0 0)
(4.45863 -2.03006 0 3.5308 0 0)
(4.33466 -1.70198 0 3.73209 0 0)
(4.61365 -1.35284 0 3.69545 0 0)
(4.5907 -1.1824 0 3.74355 0 0)
(5.1275 -1.36528 0 3.90672 0 0)
(5.72603 -1.42292 0 4.07537 0 0)
(5.44644 -1.65197 0 4.38366 0 0)
(5.95732 -2.22379 0 4.89145 0 0)
(5.17233 -2.21739 0 5.10565 0 0)
(4.63803 -2.20594 0 5.30807 0 0)
(4.18743 -1.9262 0 5.06269 0 0)
(4.16727 -1.95618 0 4.77656 0 0)
(4.52887 -2.28436 0 4.69226 0 0)
(4.89406 -2.63814 0 4.70576 0 0)
(5.55379 -3.10452 0 4.74759 0 0)
(6.32038 -3.6087 0 4.95551 0 0)
(7.07735 -4.10532 0 5.21379 0 0)
(7.77382 -4.5462 0 5.61286 0 0)
(8.23161 -4.81345 0 5.98147 0 0)
(8.53229 -4.86563 0 6.30109 0 0)
(8.81211 -4.84994 0 6.6952 0 0)
(9.39087 -4.98417 0 7.19896 0 0)
(10.0001 -5.08213 0 7.8056 0 0)
(10.239 -4.80312 0 8.18526 0 0)
(10.1354 -4.08919 0 8.28907 0 0)
(9.91399 -3.11419 0 8.07278 0 0)
(9.73108 -1.98134 0 7.66944 0 0)
(9.74459 -0.933162 0 7.19511 0 0)
(9.6653 0.0876502 0 6.80601 0 0)
(9.6831 0.953223 0 6.62868 0 0)
(9.48351 1.73317 0 6.73923 0 0)
(9.26399 2.38778 0 6.9387 0 0)
(8.95986 3.02991 0 7.34117 0 0)
(8.52565 3.37016 0 7.60195 0 0)
(8.14924 3.75638 0 8.0963 0 0)
(7.57749 3.62066 0 8.10853 0 0)
(7.00516 3.71401 0 8.48753 0 0)
(6.44442 3.13231 0 8.20145 0 0)
(5.65819 3.06865 0 8.33491 0 0)
(5.20146 2.36502 0 8.13176 0 0)
(4.62811 2.50656 0 8.00053 0 0)
(4.11349 1.84554 0 8.38318 0 0)
(3.6261 2.08819 0 8.7486 0 0)
(3.26041 1.47268 0 9.19044 0 0)
(3.11994 2.24627 0 9.01619 0 0)
(2.57028 1.59541 0 9.12908 0 0)
(2.70102 2.67233 0 9.1296 0 0)
(2.0605 1.76311 0 9.1001 0 0)
(1.901 2.33838 0 8.83355 0 0)
(1.77137 1.54921 0 8.57791 0 0)
(1.68587 2.18161 0 8.45909 0 0)
(1.58848 1.3148 0 7.93443 0 0)
(1.73803 2.19103 0 8.25991 0 0)
(1.61842 1.37719 0 7.68671 0 0)
(1.78936 2.19521 0 8.46266 0 0)
(1.62361 1.53674 0 7.78155 0 0)
(1.89461 2.14186 0 8.6535 0 0)
(1.45119 1.45767 0 7.68169 0 0)
(1.80245 2.04942 0 7.27424 0 0)
(1.14502 1.33393 0 6.14021 0 0)
(1.49133 1.89049 0 5.8574 0 0)
(0.833776 1.12987 0 4.96884 0 0)
(1.14243 1.62532 0 5.29541 0 0)
(0.550405 0.811212 0 4.56503 0 0)
(0.848593 1.21008 0 4.82988 0 0)
(0.272425 0.316694 0 3.85399 0 0)
(0.630581 0.61873 0 3.48657 0 0)
(0.123051 -0.165875 0 2.52438 0 0)
(0.540317 0.218775 0 2.19639 0 0)
(0.120215 -0.248744 0 1.68047 0 0)
(0.507667 0.021029 0 1.5416 0 0)
(0.115156 -0.135374 0 1.1355 0 0)
(0.472276 -0.138996 0 1.08842 0 0)
(0.103505 0.00107055 0 0.684548 0 0)
(0.414077 -0.259255 0 0.8799 0 0)
(0.106579 0.0736474 0 0.487107 0 0)
(0.345265 -0.291349 0 0.83143 0 0)
(0.115646 0.0926087 0 0.439842 0 0)
(0.277088 -0.24833 0 0.770589 0 0)
(0.119978 0.071777 0 0.405978 0 0)
(0.231218 -0.17275 0 0.626682 0 0)
(0.121943 0.030226 0 0.346366 0 0)
(0.193361 -0.0988066 0 0.474492 0 0)
(0.129793 -0.00567545 0 0.276462 0 0)
(0.17724 -0.0442977 0 0.317811 0 0)
(0.159368 -0.0267237 0 0.19074 0 0)
(0.159484 -0.0247658 0 0.171407 0 0)
(0.209382 -0.0213794 0 0.0979083 0 0)
(0.131422 -0.0135482 0 0.0588752 0 0)
(0.218223 -0.0133026 0 0.0401095 0 0)
(0.126844 -0.00539335 0 0.021082 0 0)
(0.233352 -0.0262784 0 0.0191106 0 0)
(0.206509 -0.0153915 0 0.0118828 0 0)
(0.202533 -0.0583972 0 0.0315811 0 0)
(0.210392 -0.0901039 0 0.0582863 0 0)
(0.457339 -0.219399 0 0.113964 0 0)
(0.449738 -0.188239 0 0.0988202 0 0)
(0.285988 -0.146126 0 0.291726 0 0)
(4.10332 -2.63654 0 2.54713 0 0)
(3.60379 -2.24651 0 2.93715 0 0)
(3.1792 -1.58388 0 2.88789 0 0)
(3.15078 -1.38584 0 2.94167 0 0)
(3.17069 -1.24408 0 2.93627 0 0)
(3.16664 -1.20478 0 2.99731 0 0)
(3.68915 -1.40762 0 3.14551 0 0)
(4.10082 -1.55208 0 3.30205 0 0)
(4.23555 -1.73078 0 3.52035 0 0)
(4.66576 -2.05563 0 3.85001 0 0)
(4.61382 -2.03409 0 3.98082 0 0)
(4.77708 -2.16471 0 4.19135 0 0)
(4.92395 -2.16127 0 4.23808 0 0)
(5.1966 -2.26325 0 4.19276 0 0)
(5.76891 -2.6383 0 4.26901 0 0)
(6.41917 -3.12521 0 4.41273 0 0)
(7.21525 -3.66229 0 4.54962 0 0)
(7.86289 -4.11084 0 4.77844 0 0)
(8.46605 -4.54338 0 5.07168 0 0)
(8.90937 -4.84826 0 5.45952 0 0)
(9.13291 -4.95465 0 5.79824 0 0)
(9.43731 -5.02817 0 6.16646 0 0)
(9.8603 -5.13037 0 6.66687 0 0)
(10.399 -5.26017 0 7.22499 0 0)
(10.6166 -5.06278 0 7.6985 0 0)
(10.4698 -4.42717 0 7.86513 0 0)
(10.2295 -3.50527 0 7.84961 0 0)
(10.0291 -2.4741 0 7.61669 0 0)
(9.95539 -1.36307 0 7.25387 0 0)
(9.97386 -0.369645 0 6.86962 0 0)
(9.89068 0.619942 0 6.6135 0 0)
(9.82426 1.43059 0 6.51648 0 0)
(9.59512 2.18408 0 6.63651 0 0)
(9.3577 2.83951 0 6.87355 0 0)
(9.01233 3.39333 0 7.28252 0 0)
(8.64314 3.7186 0 7.57613 0 0)
(8.29369 4.02649 0 8.08376 0 0)
(7.7578 3.86482 0 8.14994 0 0)
(7.22992 3.88996 0 8.52789 0 0)
(6.66751 3.28464 0 8.2241 0 0)
(5.85504 3.12394 0 8.33531 0 0)
(5.39051 2.4197 0 8.08955 0 0)
(4.68919 2.46043 0 7.87896 0 0)
(4.13366 1.7066 0 8.46559 0 0)
(3.57952 1.99159 0 8.64453 0 0)
(3.10878 1.27362 0 9.06202 0 0)
(3.08089 2.24546 0 8.72538 0 0)
(2.44089 1.58278 0 9.04128 0 0)
(2.48969 2.62281 0 9.04299 0 0)
(2.00639 1.85386 0 9.28623 0 0)
(1.71949 2.35741 0 8.82872 0 0)
(1.54938 1.62015 0 8.78914 0 0)
(1.58046 2.3142 0 8.59777 0 0)
(1.30353 1.32607 0 8.2609 0 0)
(1.52982 2.20936 0 8.433 0 0)
(1.28845 1.19728 0 7.9692 0 0)
(1.58211 2.22299 0 8.61211 0 0)
(1.34241 1.31461 0 7.95464 0 0)
(1.67328 2.14017 0 8.85625 0 0)
(1.19299 1.4294 0 7.83263 0 0)
(1.69607 2.0576 0 7.56278 0 0)
(0.957412 1.31727 0 6.40316 0 0)
(1.4478 1.90273 0 6.17396 0 0)
(0.687295 1.04705 0 5.23798 0 0)
(1.1636 1.57254 0 5.57687 0 0)
(0.469847 0.707273 0 4.77443 0 0)
(0.954082 1.1693 0 5.06422 0 0)
(0.259867 0.242391 0 4.03278 0 0)
(0.79157 0.620602 0 3.66659 0 0)
(0.129636 -0.177971 0 2.6282 0 0)
(0.711777 0.206102 0 2.25562 0 0)
(0.107253 -0.245389 0 1.72131 0 0)
(0.684839 -0.0260685 0 1.54348 0 0)
(0.0788801 -0.139151 0 1.1453 0 0)
(0.654878 -0.203098 0 1.09774 0 0)
(0.0602079 -0.0342377 0 0.696826 0 0)
(0.587863 -0.345912 0 0.890113 0 0)
(0.0666141 0.0176054 0 0.501962 0 0)
(0.500628 -0.394685 0 0.837422 0 0)
(0.0876377 0.0470045 0 0.457034 0 0)
(0.428434 -0.352871 0 0.786617 0 0)
(0.113991 0.0552324 0 0.426085 0 0)
(0.366936 -0.268322 0 0.659896 0 0)
(0.143845 0.0368048 0 0.36868 0 0)
(0.299488 -0.178741 0 0.509127 0 0)
(0.178627 0.0133676 0 0.301902 0 0)
(0.246124 -0.109737 0 0.343862 0 0)
(0.219637 -0.0132815 0 0.213249 0 0)
(0.223233 -0.0640593 0 0.179185 0 0)
(0.25209 -0.0162185 0 0.108919 0 0)
(0.254016 -0.0151734 0 0.066593 0 0)
(0.217634 -0.0135991 0 0.0456783 0 0)
(0.273636 0.0117322 0 0.0310713 0 0)
(0.186435 -0.0181673 0 0.0256339 0 0)
(0.222322 -0.0308845 0 0.0161004 0 0)
(0.264117 -0.0327551 0 0.019804 0 0)
(0.171007 -0.0241786 0 0.034042 0 0)
(0.0767635 -0.0581534 0 0.0872132 0 0)
(0.204346 -0.124122 0 0.111652 0 0)
(0.372983 -0.298076 0 0.336804 0 0)
(2.21542 -1.17506 0 1.31607 0 0)
(2.22747 -1.42457 0 2.00013 0 0)
(1.91924 -0.989012 0 2.33066 0 0)
(2.18943 -0.749548 0 2.4696 0 0)
(2.50781 -0.65506 0 2.47221 0 0)
(2.79746 -0.690666 0 2.48143 0 0)
(3.28865 -0.931957 0 2.60783 0 0)
(3.62806 -1.11265 0 2.75816 0 0)
(3.84278 -1.23051 0 2.91211 0 0)
(4.26269 -1.41788 0 3.12873 0 0)
(4.77932 -1.56608 0 3.24619 0 0)
(5.59482 -1.92592 0 3.42388 0 0)
(6.17101 -2.23228 0 3.5622 0 0)
(6.63168 -2.48403 0 3.64954 0 0)
(7.28577 -2.88769 0 3.84796 0 0)
(7.98469 -3.39164 0 4.11975 0 0)
(8.67375 -3.89934 0 4.35496 0 0)
(9.14171 -4.32221 0 4.62027 0 0)
(9.60628 -4.71145 0 4.91958 0 0)
(9.84618 -4.92982 0 5.24103 0 0)
(10.0388 -5.04514 0 5.56414 0 0)
(10.3859 -5.24258 0 6.05176 0 0)
(10.6938 -5.37265 0 6.62936 0 0)
(10.8477 -5.29756 0 7.12575 0 0)
(10.6312 -4.75829 0 7.41707 0 0)
(10.293 -3.9139 0 7.4428 0 0)
(10.0504 -2.9183 0 7.37783 0 0)
(9.8868 -1.88286 0 7.15248 0 0)
(9.83435 -0.789949 0 6.86792 0 0)
(9.81488 0.169916 0 6.58333 0 0)
(9.70464 1.13486 0 6.4314 0 0)
(9.6502 1.8989 0 6.40158 0 0)
(9.4022 2.62684 0 6.54494 0 0)
(9.25788 3.24161 0 6.82074 0 0)
(8.94 3.72626 0 7.20841 0 0)
(8.64809 3.99328 0 7.54948 0 0)
(8.32775 4.22543 0 8.03384 0 0)
(7.81541 4.00654 0 8.15748 0 0)
(7.37228 3.99355 0 8.48427 0 0)
(6.77786 3.34782 0 8.20613 0 0)
(6.04926 3.16193 0 8.25155 0 0)
(5.54042 2.43988 0 7.98735 0 0)
(4.78064 2.39985 0 7.70851 0 0)
(4.19563 1.57399 0 8.45771 0 0)
(3.5677 1.88387 0 8.4262 0 0)
(3.12258 1.12435 0 8.77778 0 0)
(3.03824 2.18954 0 8.33202 0 0)
(2.48592 1.56516 0 8.90574 0 0)
(2.25672 2.46426 0 8.76388 0 0)
(2.02569 1.93944 0 9.33525 0 0)
(1.67199 2.41015 0 8.71116 0 0)
(1.40233 1.63457 0 8.82371 0 0)
(1.42723 2.25396 0 8.40985 0 0)
(1.12213 1.38057 0 8.33097 0 0)
(1.35812 2.20899 0 8.3255 0 0)
(1.02316 1.10604 0 8.00717 0 0)
(1.4187 2.23807 0 8.57238 0 0)
(1.09518 1.1164 0 8.05522 0 0)
(1.4758 2.14847 0 8.8907 0 0)
(0.965902 1.32951 0 7.88443 0 0)
(1.58899 1.96154 0 7.74831 0 0)
(0.815338 1.20879 0 6.51472 0 0)
(1.42784 1.8718 0 6.35309 0 0)
(0.582015 0.905029 0 5.41307 0 0)
(1.2136 1.51258 0 5.75363 0 0)
(0.422962 0.508757 0 4.92489 0 0)
(1.06451 1.11794 0 5.20029 0 0)
(0.282195 0.106979 0 4.15762 0 0)
(0.940415 0.602558 0 3.74361 0 0)
(0.207827 -0.233806 0 2.6966 0 0)
(0.897292 0.173357 0 2.23165 0 0)
(0.1843 -0.257209 0 1.72838 0 0)
(0.876202 -0.0904335 0 1.50657 0 0)
(0.139194 -0.144543 0 1.13925 0 0)
(0.845275 -0.289513 0 1.07799 0 0)
(0.102987 -0.0587435 0 0.722189 0 0)
(0.770253 -0.451921 0 0.873869 0 0)
(0.0837551 -0.0171065 0 0.546596 0 0)
(0.657139 -0.514301 0 0.816788 0 0)
(0.0844435 0.0304419 0 0.498612 0 0)
(0.57242 -0.475061 0 0.773096 0 0)
(0.109961 0.0740052 0 0.463502 0 0)
(0.516187 -0.373604 0 0.666214 0 0)
(0.152552 0.0891143 0 0.405558 0 0)
(0.468533 -0.253968 0 0.532873 0 0)
(0.204101 0.082696 0 0.345799 0 0)
(0.427527 -0.148872 0 0.388072 0 0)
(0.236879 0.0444614 0 0.256589 0 0)
(0.372565 -0.0703583 0 0.217325 0 0)
(0.242918 0.000729199 0 0.134312 0 0)
(0.333036 -0.0316356 0 0.0818617 0 0)
(0.255708 -0.0147543 0 0.056526 0 0)
(0.26847 -0.0194913 0 0.0368241 0 0)
(0.288826 -0.0133073 0 0.0426569 0 0)
(0.134943 -0.0649882 0 0.051572 0 0)
(0.289931 -0.0881222 0 0.0565169 0 0)
(0.482006 -0.0733281 0 0.037631 0 0)
(0.396011 -0.186116 0 0.112185 0 0)
(0.274719 -0.118293 0 0.0938916 0 0)
(0.25246 -0.214087 0 0.285815 0 0)
(0.898275 -0.365474 0 1.11569 0 0)
(1.58605 -0.484535 0 1.68225 0 0)
(1.6408 -0.366948 0 1.90526 0 0)
(1.86104 -0.179505 0 2.01536 0 0)
(2.26833 -0.0572505 0 2.03655 0 0)
(2.72259 -0.0649698 0 2.0462 0 0)
(3.24287 -0.234602 0 2.16308 0 0)
(3.68099 -0.378306 0 2.29293 0 0)
(4.17443 -0.485509 0 2.38694 0 0)
(4.9185 -0.706762 0 2.54668 0 0)
(5.75236 -1.03701 0 2.72654 0 0)
(6.69357 -1.52544 0 2.95418 0 0)
(7.44729 -1.98426 0 3.12273 0 0)
(8.09659 -2.38804 0 3.22397 0 0)
(8.73959 -2.84881 0 3.42128 0 0)
(9.35822 -3.36608 0 3.72589 0 0)
(9.88667 -3.85637 0 4.03416 0 0)
(10.242 -4.30253 0 4.35652 0 0)
(10.5659 -4.67149 0 4.67389 0 0)
(10.6473 -4.87067 0 4.99527 0 0)
(10.8235 -5.11773 0 5.41478 0 0)
(11.0171 -5.3709 0 6.00248 0 0)
(10.9918 -5.36569 0 6.52779 0 0)
(10.7169 -5.00053 0 6.86519 0 0)
(10.2786 -4.23272 0 7.00171 0 0)
(9.87491 -3.31183 0 6.96367 0 0)
(9.62738 -2.29269 0 6.89301 0 0)
(9.41268 -1.26445 0 6.70435 0 0)
(9.33963 -0.214284 0 6.49878 0 0)
(9.25855 0.710598 0 6.30097 0 0)
(9.18924 1.60486 0 6.25112 0 0)
(9.16748 2.31662 0 6.29076 0 0)
(9.01191 2.96699 0 6.45228 0 0)
(8.97864 3.52468 0 6.75094 0 0)
(8.77155 3.92734 0 7.13363 0 0)
(8.56443 4.15367 0 7.47925 0 0)
(8.30564 4.30644 0 7.92075 0 0)
(7.83045 4.07224 0 8.08373 0 0)
(7.50342 4.03624 0 8.37534 0 0)
(6.83591 3.36762 0 8.11122 0 0)
(6.28859 3.16393 0 8.05408 0 0)
(5.69471 2.44685 0 7.79923 0 0)
(4.97724 2.30055 0 7.47655 0 0)
(4.3156 1.46973 0 8.36925 0 0)
(3.72082 1.82136 0 8.09557 0 0)
(3.24736 0.978717 0 8.37989 0 0)
(3.1253 2.11807 0 7.80353 0 0)
(2.64079 1.56203 0 8.72733 0 0)
(2.20514 2.30552 0 8.36653 0 0)
(2.12492 1.90092 0 9.17693 0 0)
(1.77896 2.50766 0 8.44302 0 0)
(1.50612 1.78214 0 8.94315 0 0)
(1.47151 2.28941 0 8.23711 0 0)
(1.07259 1.42141 0 8.50936 0 0)
(1.38018 2.19143 0 8.26226 0 0)
(0.887721 1.06363 0 8.1127 0 0)
(1.35368 2.16228 0 8.45678 0 0)
(0.922143 0.977281 0 8.09836 0 0)
(1.3929 2.13473 0 8.79025 0 0)
(0.873786 1.1841 0 7.90364 0 0)
(1.50612 1.82119 0 7.84139 0 0)
(0.791646 1.10563 0 6.567 0 0)
(1.41677 1.78089 0 6.47681 0 0)
(0.601321 0.788506 0 5.57708 0 0)
(1.27622 1.42124 0 5.90728 0 0)
(0.472799 0.373656 0 5.06117 0 0)
(1.13259 1.02698 0 5.32366 0 0)
(0.386875 0.0088703 0 4.27833 0 0)
(1.05509 0.571358 0 3.82259 0 0)
(0.338824 -0.273094 0 2.7698 0 0)
(1.01056 0.135192 0 2.23118 0 0)
(0.302071 -0.262478 0 1.74642 0 0)
(0.989978 -0.136032 0 1.49677 0 0)
(0.255639 -0.174879 0 1.15028 0 0)
(0.969378 -0.346294 0 1.08521 0 0)
(0.219979 -0.140492 0 0.751393 0 0)
(0.908943 -0.512303 0 0.886515 0 0)
(0.174743 -0.135251 0 0.599189 0 0)
(0.79503 -0.589777 0 0.820604 0 0)
(0.128893 -0.104536 0 0.560381 0 0)
(0.713572 -0.570852 0 0.771759 0 0)
(0.10627 -0.048378 0 0.523893 0 0)
(0.685243 -0.481392 0 0.672811 0 0)
(0.113656 0.00430556 0 0.451385 0 0)
(0.69985 -0.367027 0 0.555477 0 0)
(0.166107 0.0444615 0 0.381293 0 0)
(0.756857 -0.245493 0 0.436043 0 0)
(0.262694 0.0631496 0 0.29334 0 0)
(0.782387 -0.123751 0 0.27986 0 0)
(0.3687 0.0548307 0 0.187171 0 0)
(0.656542 -0.054892 0 0.127502 0 0)
(0.394405 0.0304945 0 0.0974186 0 0)
(0.395353 -0.0350424 0 0.0483547 0 0)
(0.3248 0.00764514 0 0.0605902 0 0)
(0.356813 0.0276253 0 0.0834048 0 0)
(0.0704932 -0.0317011 0 0.0723841 0 0)
(0.251404 -0.118049 0 0.0857928 0 0)
(0.277659 -0.159455 0 0.133368 0 0)
(0.311969 -0.151895 0 0.141946 0 0)
(0.316092 -0.322316 0 0.421127 0 0)
(0.358012 0.0945484 0 0.58731 0 0)
(0.830147 0.0775098 0 0.972036 0 0)
(1.42021 0.118009 0 1.25431 0 0)
(1.87348 0.243828 0 1.46201 0 0)
(2.39538 0.363141 0 1.59327 0 0)
(2.99353 0.405704 0 1.65696 0 0)
(3.66465 0.344765 0 1.73457 0 0)
(4.37809 0.242787 0 1.81514 0 0)
(5.18652 0.0741754 0 1.89265 0 0)
(6.04412 -0.228259 0 2.05493 0 0)
(6.86986 -0.610887 0 2.27463 0 0)
(7.7169 -1.0916 0 2.55355 0 0)
(8.51818 -1.58197 0 2.77017 0 0)
(9.29045 -2.08278 0 2.88887 0 0)
(9.93059 -2.608 0 3.05799 0 0)
(10.4538 -3.16334 0 3.33405 0 0)
(10.8245 -3.69095 0 3.66396 0 0)
(11.0222 -4.15455 0 4.02661 0 0)
(11.1457 -4.51803 0 4.38674 0 0)
(11.1289 -4.78194 0 4.78523 0 0)
(11.2258 -5.13339 0 5.31099 0 0)
(11.1413 -5.27198 0 5.87475 0 0)
(10.7381 -5.01009 0 6.24814 0 0)
(10.2232 -4.41403 0 6.44526 0 0)
(9.70437 -3.54003 0 6.50652 0 0)
(9.2603 -2.60244 0 6.46984 0 0)
(8.96596 -1.58888 0 6.426 0 0)
(8.7264 -0.608933 0 6.28088 0 0)
(8.61682 0.37444 0 6.15157 0 0)
(8.52447 1.23418 0 6.05541 0 0)
(8.50333 2.02046 0 6.10051 0 0)
(8.57523 2.62707 0 6.174 0 0)
(8.54158 3.20032 0 6.3384 0 0)
(8.63008 3.67056 0 6.65005 0 0)
(8.52384 4.00441 0 7.02513 0 0)
(8.46358 4.20114 0 7.39858 0 0)
(8.27515 4.29009 0 7.78507 0 0)
(7.87366 4.05278 0 7.97733 0 0)
(7.67956 4.00128 0 8.18054 0 0)
(6.94477 3.30131 0 7.94009 0 0)
(6.63495 3.14162 0 7.76835 0 0)
(5.90333 2.3644 0 7.5536 0 0)
(5.30737 2.20042 0 7.18318 0 0)
(4.53687 1.35743 0 8.187 0 0)
(3.99673 1.72833 0 7.66984 0 0)
(3.54642 0.902214 0 7.93169 0 0)
(3.25824 1.91852 0 7.20252 0 0)
(2.95476 1.56028 0 8.48953 0 0)
(2.24378 2.1625 0 7.90475 0 0)
(2.32816 1.84017 0 8.93912 0 0)
(1.88358 2.43203 0 7.94233 0 0)
(1.77688 1.81647 0 8.77012 0 0)
(1.66705 2.30288 0 7.77552 0 0)
(1.26944 1.46289 0 8.44418 0 0)
(1.50165 2.17334 0 7.85982 0 0)
(1.03253 1.10546 0 8.08125 0 0)
(1.42886 2.11943 0 8.18398 0 0)
(0.933706 0.891123 0 8.06526 0 0)
(1.36198 2.05466 0 8.55887 0 0)
(0.901475 0.983912 0 7.86577 0 0)
(1.41182 1.69403 0 7.71594 0 0)
(0.826439 0.935496 0 6.45137 0 0)
(1.40524 1.65896 0 6.42926 0 0)
(0.676685 0.60203 0 5.62457 0 0)
(1.31861 1.31121 0 5.92156 0 0)
(0.571004 0.17654 0 5.12698 0 0)
(1.23138 0.945381 0 5.32121 0 0)
(0.514745 -0.15069 0 4.33305 0 0)
(1.20261 0.550758 0 3.82055 0 0)
(0.478808 -0.309331 0 2.81146 0 0)
(1.16664 0.119221 0 2.18855 0 0)
(0.436165 -0.26764 0 1.74679 0 0)
(1.16298 -0.161607 0 1.44904 0 0)
(0.393779 -0.19553 0 1.14817 0 0)
(1.15327 -0.375759 0 1.06776 0 0)
(0.348963 -0.183629 0 0.777924 0 0)
(1.08428 -0.551642 0 0.880736 0 0)
(0.285794 -0.196128 0 0.650869 0 0)
(0.936502 -0.649389 0 0.813179 0 0)
(0.215274 -0.181631 0 0.624693 0 0)
(0.801884 -0.654919 0 0.760006 0 0)
(0.160874 -0.125769 0 0.598196 0 0)
(0.726244 -0.584308 0 0.664847 0 0)
(0.125103 -0.0538444 0 0.528142 0 0)
(0.727022 -0.50126 0 0.550907 0 0)
(0.120583 0.0192739 0 0.449891 0 0)
(0.856173 -0.425829 0 0.447531 0 0)
(0.174837 0.0841797 0 0.346931 0 0)
(1.19392 -0.344936 0 0.321485 0 0)
(0.314304 0.113272 0 0.2371 0 0)
(1.6903 -0.267647 0 0.187921 0 0)
(0.472366 0.0886883 0 0.153517 0 0)
(1.98573 -0.170155 0 0.103295 0 0)
(0.436876 0.014602 0 0.112101 0 0)
(1.66756 -0.134081 0 0.0759373 0 0)
(0.455076 -0.105754 0 0.0952475 0 0)
(0.923078 -0.201698 0 0.0759135 0 0)
(0.534357 -0.19014 0 0.158875 0 0)
(0.437248 -0.0393233 0 0.141336 0 0)
(0.102289 -0.131837 0 0.398754 0 0)
(0.440457 0.317948 0 0.453848 0 0)
(0.851334 0.520289 0 0.864245 0 0)
(1.63061 0.697267 0 1.11561 0 0)
(2.43987 0.777269 0 1.24475 0 0)
(3.14148 0.816989 0 1.3255 0 0)
(3.81934 0.832631 0 1.34146 0 0)
(4.54811 0.769584 0 1.35858 0 0)
(5.30387 0.624793 0 1.41015 0 0)
(6.07881 0.383223 0 1.50873 0 0)
(6.84232 0.0580719 0 1.67771 0 0)
(7.65432 -0.315561 0 1.88643 0 0)
(8.48619 -0.755709 0 2.15618 0 0)
(9.29781 -1.24205 0 2.39857 0 0)
(10.0383 -1.78172 0 2.56638 0 0)
(10.6006 -2.34283 0 2.75254 0 0)
(10.9576 -2.89763 0 3.02826 0 0)
(11.1538 -3.43011 0 3.37603 0 0)
(11.2173 -3.90021 0 3.75635 0 0)
(11.2431 -4.31019 0 4.15804 0 0)
(11.1843 -4.66535 0 4.63667 0 0)
(11.104 -4.95268 0 5.1763 0 0)
(10.6653 -4.82022 0 5.61844 0 0)
(10.0549 -4.32985 0 5.8486 0 0)
(9.46334 -3.60191 0 5.96668 0 0)
(8.95931 -2.69341 0 5.99726 0 0)
(8.50997 -1.78951 0 5.98529 0 0)
(8.26509 -0.820779 0 5.96359 0 0)
(8.01572 0.0844169 0 5.86961 0 0)
(7.92786 0.98981 0 5.82288 0 0)
(7.8557 1.74182 0 5.83575 0 0)
(7.96797 2.36717 0 5.96767 0 0)
(8.1066 2.8531 0 6.0745 0 0)
(8.20349 3.30487 0 6.24048 0 0)
(8.37165 3.70416 0 6.52951 0 0)
(8.36767 3.96706 0 6.86745 0 0)
(8.38901 4.12769 0 7.23143 0 0)
(8.30919 4.16763 0 7.58141 0 0)
(7.95565 3.94012 0 7.77079 0 0)
(7.93621 3.88382 0 7.92514 0 0)
(7.1314 3.19094 0 7.69168 0 0)
(7.10323 3.05867 0 7.40231 0 0)
(6.18385 2.25176 0 7.2512 0 0)
(5.77297 2.08574 0 6.83411 0 0)
(4.84771 1.22924 0 7.91117 0 0)
(4.48003 1.64475 0 7.15444 0 0)
(3.96397 0.853074 0 7.42576 0 0)
(3.59929 1.75501 0 6.54666 0 0)
(3.28378 1.52523 0 8.25341 0 0)
(2.55705 1.98748 0 7.29714 0 0)
(2.6742 1.77442 0 8.56054 0 0)
(2.14102 2.43448 0 7.41854 0 0)
(2.16752 1.86252 0 8.70557 0 0)
(1.95311 2.32135 0 7.37063 0 0)
(1.67786 1.47677 0 8.50077 0 0)
(1.83742 2.13024 0 7.45607 0 0)
(1.29393 1.01726 0 8.07694 0 0)
(1.73759 2.09203 0 7.73777 0 0)
(1.13761 0.802487 0 8.0462 0 0)
(1.48574 1.97174 0 8.16714 0 0)
(1.03934 0.838373 0 7.82181 0 0)
(1.41043 1.63534 0 7.48065 0 0)
(0.942942 0.81331 0 6.33962 0 0)
(1.40987 1.48679 0 6.33412 0 0)
(0.835491 0.465859 0 5.65935 0 0)
(1.35072 1.14353 0 5.87895 0 0)
(0.744793 0.0255242 0 5.19623 0 0)
(1.30769 0.823342 0 5.30519 0 0)
(0.707308 -0.248117 0 4.39727 0 0)
(1.2819 0.479786 0 3.7925 0 0)
(0.680131 -0.322459 0 2.86139 0 0)
(1.27684 0.0893628 0 2.16022 0 0)
(0.633164 -0.26932 0 1.75773 0 0)
(1.27507 -0.184575 0 1.44559 0 0)
(0.584052 -0.227853 0 1.16208 0 0)
(1.26425 -0.38759 0 1.09255 0 0)
(0.53682 -0.247168 0 0.827324 0 0)
(1.19171 -0.561579 0 0.916918 0 0)
(0.472561 -0.289487 0 0.723538 0 0)
(1.0362 -0.661027 0 0.846189 0 0)
(0.388067 -0.300485 0 0.702792 0 0)
(0.88002 -0.675322 0 0.787627 0 0)
(0.309439 -0.265563 0 0.681672 0 0)
(0.769701 -0.6125 0 0.690553 0 0)
(0.241841 -0.206373 0 0.619165 0 0)
(0.721199 -0.539723 0 0.574019 0 0)
(0.188616 -0.148878 0 0.549347 0 0)
(0.768395 -0.483712 0 0.47243 0 0)
(0.154185 -0.0891436 0 0.443237 0 0)
(1.04306 -0.449879 0 0.360742 0 0)
(0.1552 -0.0415283 0 0.307613 0 0)
(1.72429 -0.46271 0 0.25529 0 0)
(0.261373 -0.0149461 0 0.20406 0 0)
(2.79231 -0.46226 0 0.177663 0 0)
(0.572672 -0.0319753 0 0.150766 0 0)
(3.45462 -0.35994 0 0.141943 0 0)
(0.873926 -0.0954076 0 0.145801 0 0)
(2.35624 -0.243159 0 0.16367 0 0)
(0.617275 -0.212278 0 0.220083 0 0)
(0.665268 -0.0144548 0 0.143864 0 0)
(0.152242 -0.0583311 0 0.499205 0 0)
(0.730019 0.420286 0 0.372707 0 0)
(1.11361 0.562165 0 0.571828 0 0)
(1.74663 0.670258 0 0.750876 0 0)
(2.53972 0.75521 0 0.882353 0 0)
(3.31952 0.838565 0 0.944728 0 0)
(4.05595 0.884666 0 0.954237 0 0)
(4.76407 0.827924 0 0.981193 0 0)
(5.47757 0.677397 0 1.05542 0 0)
(6.21882 0.437278 0 1.17924 0 0)
(7.00652 0.134881 0 1.34454 0 0)
(7.85318 -0.220182 0 1.53215 0 0)
(8.69035 -0.637904 0 1.76945 0 0)
(9.43941 -1.10884 0 2.01997 0 0)
(10.077 -1.63345 0 2.2412 0 0)
(10.5198 -2.16758 0 2.47315 0 0)
(10.7732 -2.69409 0 2.7666 0 0)
(10.883 -3.20606 0 3.11337 0 0)
(10.9236 -3.69918 0 3.51919 0 0)
(10.9068 -4.13844 0 3.98189 0 0)
(10.7379 -4.44251 0 4.49397 0 0)
(10.3569 -4.46634 0 4.94805 0 0)
(9.72921 -4.06332 0 5.22801 0 0)
(9.10787 -3.45638 0 5.3434 0 0)
(8.58732 -2.68233 0 5.42562 0 0)
(8.15676 -1.81232 0 5.45784 0 0)
(7.79026 -0.96796 0 5.47788 0 0)
(7.58727 -0.0541717 0 5.50099 0 0)
(7.40867 0.765899 0 5.48654 0 0)
(7.39141 1.57476 0 5.54879 0 0)
(7.49105 2.17377 0 5.67431 0 0)
(7.72816 2.65392 0 5.85431 0 0)
(7.95612 3.01501 0 5.95944 0 0)
(8.12547 3.35594 0 6.1141 0 0)
(8.3264 3.65392 0 6.38965 0 0)
(8.38263 3.84291 0 6.70194 0 0)