/*--------------------------------*- C++ -*----------------------------------*\
| =========                 |                                                 |
| \\      /  F ield         | OpenFOAM: The Open Source CFD Toolbox           |
|  \\    /   O peration     | Version:  2.4.0                                 |
|   \\  /    A nd           | Web:      www.OpenFOAM.org                      |
|    \\/     M anipulation  |                                                 |
\*---------------------------------------------------------------------------*/
FoamFile
{
    version     2.0;
    format      ascii;
    class       volScalarField;
    location    "0.006";
    object      k;
}
// * * * * * * * * * * * * * * * * * * * * * * * * * * * * * * * * * * * * * //

dimensions      [0 2 -2 0 0 0 0];

internalField   nonuniform List<scalar> 
17600
(
2.35914
3.54071
4.16052
4.44525
4.55072
4.5671
4.54286
4.50246
4.45752
4.41323
4.37168
4.33351
4.29872
4.26702
4.23801
4.21124
4.18589
4.16174
4.13173
4.13201
3.53171
2.92567
2.60642
2.45186
2.36457
2.3085
2.27054
2.24467
2.2274
2.21631
2.20963
2.20602
2.20447
2.2043
2.20503
2.20635
2.20833
2.21134
2.22525
2.293
1.60736
1.7581
1.71197
1.64468
1.58314
1.53218
1.49268
1.464
1.44485
1.43375
1.42916
1.42965
1.434
1.44115
1.45032
1.46092
1.47284
1.48657
1.51015
1.56701
0.857462
1.07259
1.14136
1.15344
1.1425
1.12288
1.10174
1.08267
1.0674
1.05664
1.05046
1.04862
1.05064
1.056
1.06419
1.07475
1.08758
1.10317
1.12704
1.17198
0.583699
0.731929
0.810654
0.848828
0.863971
0.866117
0.861516
0.853999
0.845952
0.838851
0.833579
0.830615
0.830168
0.832266
0.836845
0.843816
0.853283
0.86582
0.885268
0.918672
0.4765
0.567574
0.628714
0.666912
0.68915
0.70057
0.705035
0.705263
0.703176
0.700133
0.697094
0.694725
0.693477
0.693647
0.695436
0.699001
0.704622
0.712919
0.72661
0.749506
0.429302
0.485678
0.528982
0.559947
0.580998
0.594441
0.602358
0.606401
0.607854
0.607712
0.606741
0.605528
0.604522
0.604067
0.604439
0.605886
0.608739
0.613576
0.622315
0.636933
0.406053
0.442238
0.472603
0.496233
0.513813
0.526306
0.53478
0.54018
0.543305
0.544816
0.545256
0.545069
0.544619
0.544203
0.54408
0.544492
0.545749
0.548331
0.553582
0.562464
0.393531
0.417588
0.439213
0.457077
0.471195
0.481918
0.489788
0.495337
0.49905
0.501352
0.502612
0.503143
0.503215
0.503061
0.502892
0.502911
0.503378
0.504666
0.507721
0.512969
0.386336
0.402751
0.418462
0.432081
0.443344
0.452313
0.459253
0.464461
0.468232
0.470836
0.472519
0.473498
0.473967
0.474098
0.474053
0.473996
0.47413
0.47474
0.476501
0.479571
0.382012
0.393396
0.405006
0.415524
0.424564
0.432038
0.438055
0.442779
0.446384
0.449043
0.450919
0.452161
0.452905
0.453278
0.453401
0.453401
0.453436
0.453721
0.454751
0.456558
0.379331
0.387292
0.395975
0.404203
0.411534
0.417796
0.423009
0.427248
0.430616
0.433219
0.435165
0.436554
0.437483
0.438045
0.438329
0.438431
0.438477
0.438625
0.439256
0.440343
0.377633
0.38321
0.389758
0.396265
0.402279
0.407578
0.412122
0.415931
0.419057
0.421563
0.423516
0.424986
0.42604
0.426743
0.427164
0.427374
0.427475
0.427585
0.428004
0.428687
0.376541
0.380437
0.385403
0.390599
0.395593
0.40013
0.404132
0.407579
0.410486
0.412887
0.414821
0.416334
0.417471
0.418279
0.418811
0.419121
0.41929
0.419407
0.419719
0.420176
0.375832
0.378536
0.382322
0.386517
0.390718
0.394656
0.398225
0.401376
0.404099
0.406403
0.408308
0.409841
0.411035
0.411922
0.412541
0.412935
0.41317
0.413313
0.413574
0.413904
0.37537
0.377233
0.380143
0.383576
0.387165
0.390639
0.393868
0.396784
0.399357
0.401578
0.403453
0.404996
0.406228
0.407173
0.40786
0.408321
0.408613
0.408787
0.409024
0.409281
0.375072
0.376349
0.378622
0.381487
0.384615
0.387735
0.390707
0.393443
0.395899
0.398053
0.399902
0.401449
0.402708
0.403694
0.404432
0.404945
0.405282
0.405483
0.405707
0.405917
0.374883
0.375768
0.377598
0.380058
0.382855
0.385721
0.388506
0.391111
0.393482
0.395587
0.397415
0.398963
0.40024
0.401255
0.402028
0.402578
0.402948
0.403168
0.40338
0.403554
0.374773
0.375417
0.376966
0.379166
0.38175
0.384451
0.387114
0.389634
0.391949
0.394022
0.395835
0.397384
0.398671
0.399704
0.400499
0.401072
0.401461
0.401689
0.401885
0.402024
0.374722
0.375252
0.376665
0.378738
0.381216
0.383836
0.386439
0.388918
0.391205
0.393261
0.395068
0.396616
0.397908
0.398949
0.399754
0.400336
0.40073
0.400956
0.401127
0.401227
0.374722
0.375252
0.376665
0.378738
0.381216
0.383836
0.386439
0.388918
0.391205
0.393261
0.395067
0.396616
0.397907
0.398947
0.39975
0.400328
0.400712
0.400922
0.401058
0.401111
0.374773
0.375417
0.376966
0.379166
0.38175
0.384451
0.387114
0.389634
0.391949
0.394021
0.395835
0.397383
0.398668
0.399698
0.400486
0.401046
0.401407
0.401587
0.401676
0.401673
0.374883
0.375768
0.377598
0.380058
0.382855
0.385721
0.388506
0.391111
0.393482
0.395587
0.397414
0.398961
0.400235
0.401245
0.402006
0.402534
0.402856
0.402991
0.40302
0.40295
0.375072
0.376349
0.378622
0.381487
0.384615
0.387735
0.390707
0.393443
0.395898
0.398053
0.3999
0.401446
0.4027
0.403679
0.404399
0.404879
0.405148
0.405222
0.405178
0.405031
0.37537
0.377233
0.380143
0.383576
0.387165
0.390639
0.393868
0.396784
0.399357
0.401577
0.403451
0.404991
0.406218
0.407151
0.407814
0.40823
0.408428
0.408429
0.408298
0.408065
0.375832
0.378536
0.382322
0.386517
0.390718
0.394656
0.398225
0.401376
0.404099
0.406401
0.408305
0.409834
0.41102
0.411891
0.412479
0.412811
0.412921
0.412835
0.41261
0.412286
0.376541
0.380437
0.385403
0.390599
0.395593
0.40013
0.404132
0.407578
0.410486
0.412885
0.414817
0.416324
0.41745
0.418237
0.418727
0.418956
0.418962
0.418778
0.418457
0.418045
0.377633
0.38321
0.389758
0.396265
0.402279
0.407578
0.412121
0.41593
0.419055
0.42156
0.42351
0.424972
0.426011
0.426686
0.427052
0.427157
0.427046
0.426762
0.426354
0.425877
0.379331
0.387292
0.395975
0.404203
0.411534
0.417796
0.423008
0.427247
0.430614
0.433215
0.435155
0.436535
0.437445
0.437969
0.438181
0.438145
0.437917
0.437549
0.43709
0.436607
0.382012
0.393396
0.405006
0.415524
0.424564
0.432037
0.438055
0.442777
0.446381
0.449037
0.450906
0.452134
0.452853
0.453177
0.453208
0.453028
0.452708
0.452309
0.451885
0.451511
0.386336
0.402751
0.418462
0.432081
0.443344
0.452312
0.459252
0.464459
0.468227
0.470827
0.472501
0.473463
0.473898
0.473965
0.473799
0.473508
0.473179
0.472882
0.472672
0.47262
0.393531
0.417588
0.439213
0.457077
0.471194
0.481917
0.489786
0.495334
0.499044
0.50134
0.502587
0.503095
0.503124
0.502888
0.50256
0.502276
0.502137
0.502216
0.502562
0.503221
0.406053
0.442238
0.472603
0.496233
0.513813
0.526305
0.534778
0.540176
0.543297
0.544799
0.545224
0.545007
0.5445
0.543977
0.54365
0.543669
0.544137
0.545107
0.546611
0.548622
0.429302
0.485678
0.528981
0.559947
0.580997
0.594439
0.602355
0.606395
0.607843
0.60769
0.606699
0.605447
0.604369
0.603777
0.603888
0.604831
0.606669
0.609391
0.61297
0.617252
0.4765
0.567574
0.628714
0.666911
0.689149
0.700568
0.705031
0.705255
0.703161
0.700105
0.697041
0.694623
0.693284
0.693283
0.694746
0.697685
0.702042
0.707661
0.714402
0.721911
0.583699
0.731929
0.810654
0.848828
0.863969
0.866114
0.861511
0.85399
0.845933
0.838816
0.833513
0.830492
0.829935
0.831828
0.83602
0.842256
0.850244
0.859605
0.870057
0.881027
0.857462
1.07259
1.14136
1.15344
1.1425
1.12288
1.10173
1.08266
1.06738
1.0566
1.05039
1.04848
1.05038
1.05551
1.06328
1.07306
1.08433
1.09652
1.10929
1.12197
1.60736
1.7581
1.71197
1.64468
1.58314
1.53217
1.49267
1.46398
1.44483
1.43371
1.42908
1.42951
1.43374
1.44069
1.44948
1.45938
1.4699
1.48051
1.49109
1.50099
3.53171
2.92567
2.60642
2.45185
2.36457
2.3085
2.27054
2.24466
2.22738
2.21629
2.20959
2.20594
2.20434
2.20406
2.20461
2.20561
2.20687
2.20815
2.20964
2.21068
2.35914
3.54071
4.16052
4.44525
4.55072
4.5671
4.54287
4.50248
4.45756
4.4133
4.37181
4.33375
4.29915
4.26783
4.23949
4.21391
4.19091
4.17048
4.15258
4.13689
4.70931
5.73603
6.28847
6.52729
6.57901
6.53269
6.44218
6.33477
6.22389
6.11604
6.01415
5.91938
5.83203
5.75195
5.67875
5.61194
5.55095
5.49523
5.4442
5.39735
5.35416
5.31419
5.27702
5.24228
5.20965
5.17885
5.14966
5.1219
5.09545
5.07021
5.04617
5.02333
5.00175
4.98153
4.96278
4.94566
4.93033
4.91699
4.90582
4.89701
4.89075
4.8872
4.8865
4.88878
4.8941
4.90253
4.91406
4.92865
4.94621
4.96659
4.9896
5.015
5.04247
5.07168
5.10221
5.13359
5.16533
5.19686
5.22758
5.25686
5.28403
5.3084
5.3293
5.34605
5.358
5.36453
5.3651
5.35919
5.34641
5.32642
5.29898
5.26396
5.2213
5.17107
5.1134
5.04852
4.97675
4.89846
4.8141
4.72418
4.62923
4.52985
4.42663
4.32021
4.2112
4.10022
3.9879
3.87483
3.76155
3.64862
3.53653
3.42572
3.31661
3.20955
3.10486
3.00282
2.90363
2.80748
2.7145
2.62478
2.53839
2.45536
2.37568
2.29934
2.22627
2.15642
2.08972
2.02606
1.96535
1.90749
1.85237
1.79987
1.74988
1.70229
1.65699
1.61387
1.57281
1.53373
1.49652
1.46109
1.42734
1.39519
1.36455
1.33536
1.30752
1.28097
1.25565
1.2315
1.20844
1.18643
1.16542
1.14534
1.12617
1.10784
1.09033
1.07358
1.05758
1.04227
1.02763
1.01362
1.00023
0.987416
0.975161
0.963442
0.952235
0.941522
0.931284
0.921504
0.912168
0.903261
0.894772
0.886689
0.879004
0.871703
0.864758
0.858131
0.851858
0.845937
0.840371
0.835161
0.830316
0.825843
0.821754
0.818062
0.814786
0.811946
0.80957
0.807689
0.806341
0.805571
0.805435
0.806001
0.807351
0.809586
0.812834
0.817253
0.823047
0.83048
0.839896
0.851755
0.866676
0.885499
0.909383
0.939925
0.97934
1.03068
1.09814
1.18733
1.30566
1.46269
1.67048
1.94438
2.3045
2.77849
3.40571
4.23976
5.34634
6.77814
8.61855
5.90103
2.53183
3.03714
3.61477
4.16935
4.60957
4.91847
5.11622
5.2318
5.29086
5.31258
5.31016
5.29237
5.26501
5.23189
5.19556
5.15767
5.11933
5.08124
5.04383
5.00736
4.97197
4.93771
4.90459
4.87258
4.84165
4.81176
4.78288
4.755
4.72813
4.7023
4.67757
4.65402
4.63176
4.61093
4.59169
4.57421
4.55866
4.54524
4.53414
4.52554
4.51961
4.51652
4.51638
4.5193
4.52534
4.53455
4.5469
4.56233
4.58074
4.60198
4.62584
4.65207
4.68035
4.71035
4.74164
4.77379
4.80629
4.83862
4.87018
4.90037
4.92857
4.95412
4.97637
4.99468
5.00841
5.01699
5.01987
5.01656
5.00666
4.98985
4.96586
4.93457
4.8959
4.84991
4.79672
4.73655
4.66969
4.59652
4.51746
4.43302
4.34372
4.25013
4.15286
4.0525
3.94967
3.84499
3.73905
3.63243
3.52567
3.41929
3.31378
3.20955
3.10701
3.00649
2.90829
2.81266
2.71981
2.62988
2.54302
2.45929
2.37875
2.3014
2.22725
2.15626
2.08838
2.02354
1.96166
1.90265
1.8464
1.79282
1.7418
1.69323
1.647
1.603
1.56113
1.52128
1.48335
1.44725
1.41288
1.38016
1.34899
1.31931
1.29103
1.26407
1.23838
1.21388
1.19052
1.16823
1.14696
1.12666
1.10728
1.08878
1.07111
1.05424
1.03811
1.02271
1.00799
0.993919
0.980476
0.967629
0.955353
0.943624
0.932419
0.921718
0.9115
0.901749
0.892447
0.88358
0.875134
0.867097
0.859458
0.852208
0.845338
0.838835
0.832651
0.8268
0.82129
0.816122
0.8113
0.806828
0.802714
0.798965
0.795594
0.792616
0.790047
0.78791
0.786231
0.785042
0.78438
0.784293
0.784835
0.786072
0.788087
0.79098
0.794876
0.799931
0.806346
0.81438
0.824371
0.836771
0.85219
0.871464
0.895746
0.926647
0.966417
1.01821
1.08638
1.1769
1.29776
1.45937
1.67507
1.96188
2.34196
2.84534
3.51359
4.402
5.57249
7.08235
8.8346
6.83228
1.61975
1.75258
1.95765
2.23152
2.56707
2.92308
3.25506
3.5416
3.77551
3.95878
4.09804
4.20123
4.27582
4.32814
4.36329
4.38523
4.39703
4.40104
4.39906
4.39246
4.38231
4.36945
4.3545
4.338
4.32034
4.30187
4.28288
4.26362
4.24433
4.22523
4.20653
4.18844
4.1712
4.155
4.14009
4.12668
4.11501
4.10529
4.09773
4.09253
4.08988
4.08994
4.09285
4.09869
4.10756
4.11946
4.1344
4.15231
4.17308
4.19658
4.22258
4.25085
4.28109
4.31295
4.34604
4.37992
4.41412
4.44813
4.48139
4.51334
4.54337
4.57086
4.59521
4.6158
4.63204
4.64336
4.64925
4.64925
4.64294
4.63002
4.61023
4.58343
4.54955
4.50861
4.46075
4.40615
4.3451
4.27795
4.20513
4.1271
4.04439
3.95755
3.86716
3.7738
3.67808
3.58059
3.48191
3.38259
3.28316
3.18412
3.08593
2.98899
2.89368
2.80031
2.70918
2.6205
2.53446
2.45122
2.37086
2.29348
2.2191
2.14773
2.07935
2.01394
1.95143
1.89175
1.83483
1.78056
1.72887
1.67963
1.63277
1.58816
1.5457
1.50531
1.46686
1.43028
1.39546
1.36232
1.33077
1.30072
1.27211
1.24485
1.21888
1.19413
1.17053
1.14803
1.12657
1.1061
1.08657
1.06793
1.05014
1.03316
1.01694
1.00146
0.986672
0.97255
0.959063
0.946183
0.933883
0.922138
0.910926
0.900224
0.890013
0.880274
0.87099
0.862144
0.853723
0.845713
0.838102
0.83088
0.824037
0.817565
0.811456
0.805697
0.800232
0.795101
0.790302
0.78584
0.781717
0.777938
0.774511
0.771445
0.768752
0.766447
0.764548
0.763078
0.762062
0.761533
0.76153
0.762096
0.763289
0.765174
0.767833
0.771364
0.77589
0.781566
0.788588
0.797208
0.807759
0.820683
0.836577
0.856263
0.880884
0.912045
0.952016
1.004
1.07253
1.16385
1.28647
1.45168
1.67402
1.97211
2.36994
2.89927
3.60242
4.53298
5.74265
7.26759
8.86306
7.57127
1.19071
1.22656
1.28343
1.3688
1.49072
1.64961
1.84598
2.06662
2.2928
2.5113
2.7126
2.89136
3.04572
3.17622
3.28478
3.3739
3.44623
3.50424
3.55018
3.58597
3.61329
3.63352
3.64786
3.65731
3.66271
3.6648
3.66421
3.66147
3.6571
3.65152
3.64514
3.63834
3.63148
3.62489
3.61888
3.61378
3.60986
3.6074
3.60666
3.60787
3.61124
3.61696
3.62519
3.63605
3.64961
3.66594
3.68502
3.70681
3.73124
3.75815
3.78738
3.81868
3.85178
3.88635
3.92203
3.9584
3.99502
4.0314
4.06703
4.10135
4.13382
4.16385
4.19087
4.21431
4.23359
4.24821
4.25765
4.26149
4.25933
4.25086
4.23585
4.21414
4.18567
4.15044
4.10858
4.06026
4.00574
3.94538
3.87956
3.80874
3.73342
3.65412
3.57142
3.48587
3.39804
3.30852
3.21786
3.12658
3.03519
2.94416
2.85393
2.76489
2.67737
2.5917
2.50811
2.42683
2.34803
2.27183
2.19833
2.12759
2.05963
1.99447
1.93207
1.87241
1.81541
1.76102
1.70915
1.65972
1.61264
1.5678
1.52512
1.4845
1.44584
1.40905
1.37404
1.34071
1.30898
1.27878
1.25002
1.22263
1.19653
1.17167
1.14797
1.12539
1.10385
1.08331
1.06372
1.04503
1.02719
1.01017
0.993921
0.978412
0.963606
0.94947
0.935974
0.923089
0.910789
0.899048
0.887843
0.877151
0.866952
0.857228
0.84796
0.839132
0.830729
0.822736
0.815143
0.807936
0.801105
0.794642
0.78854
0.78279
0.777386
0.772312
0.767518
0.76305
0.75891
0.755099
0.751622
0.748485
0.745694
0.743261
0.741196
0.739517
0.738241
0.737392
0.736995
0.737084
0.737696
0.738877
0.740684
0.743181
0.746448
0.750585
0.755713
0.761982
0.769584
0.778768
0.789856
0.80328
0.819623
0.839688
0.864599
0.895945
0.935994
0.987989
1.05655
1.1482
1.27193
1.43978
1.66748
1.9751
2.3882
2.9396
3.67098
4.63145
5.85955
7.35979
8.83037
8.10969
0.929575
0.943769
0.962053
0.987561
1.02465
1.07691
1.14784
1.23955
1.35419
1.4864
1.63018
1.77916
1.92732
2.06968
2.20271
2.32424
2.43329
2.52977
2.61414
2.68723
2.75004
2.80361
2.849
2.88721
2.91916
2.94571
2.96763
2.98564
3.00037
3.01243
3.02236
3.03067
3.03781
3.04423
3.05034
3.05652
3.06312
3.07048
3.07891
3.08867
3.10002
3.11317
3.12832
3.14562
3.16517
3.18705
3.21128
3.23786
3.26673
3.29777
3.33083
3.36571
3.40217
3.4399
3.47858
3.51783
3.55722
3.59632
3.63465
3.67169
3.70693
3.73984
3.76987
3.79648
3.81917
3.83742
3.85078
3.85884
3.86121
3.85762
3.84782
3.83167
3.8091
3.78011
3.74479
3.70333
3.65596
3.60301
3.54484
3.48189
3.41463
3.34357
3.26923
3.19216
3.11291
3.03201
2.94999
2.86736
2.78459
2.70213
2.62039
2.53972
2.46046
2.38288
2.30722
2.23368
2.16241
2.09352
2.02711
1.96321
1.90185
1.84303
1.78673
1.7329
1.68149
1.63244
1.58566
1.54108
1.49862
1.45818
1.41967
1.38302
1.34812
1.3149
1.28328
1.25317
1.22449
1.19718
1.17116
1.14637
1.12275
1.10023
1.07876
1.05828
1.03876
1.02013
1.00235
0.985389
0.9692
0.953746
0.938993
0.924908
0.911462
0.898625
0.88637
0.874672
0.863507
0.852854
0.842691
0.832999
0.823761
0.81496
0.80658
0.798607
0.791028
0.783831
0.777006
0.770543
0.764433
0.758669
0.753245
0.748155
0.743392
0.738936
0.734752
0.730889
0.727346
0.724126
0.721234
0.718676
0.71646
0.714598
0.713102
0.711989
0.711277
0.71099
0.711155
0.711806
0.712979
0.714723
0.717091
0.72015
0.72398
0.728678
0.734363
0.741184
0.749329
0.75904
0.77063
0.78452
0.801275
0.821677
0.846825
0.878279
0.918285
0.970093
1.0384
1.1299
1.25399
1.42346
1.65507
1.97024
2.39578
2.96494
3.71761
4.69656
5.92656
7.37984
8.7598
8.49318
0.756644
0.764372
0.772477
0.781833
0.793997
0.810547
0.833205
0.863777
0.904213
0.957169
1.0225
1.09943
1.18621
1.28035
1.37897
1.47913
1.57818
1.67395
1.7648
1.84964
1.92786
1.99923
2.06379
2.12182
2.1737
2.21992
2.261
2.29749
2.32993
2.35886
2.38481
2.40828
2.42975
2.44968
2.46851
2.48663
2.50444
2.5223
2.54053
2.55945
2.57933
2.60041
2.62291
2.647
2.67282
2.70048
2.73003
2.7615
2.79485
2.83001
2.86687
2.90527
2.94499
2.98578
3.02734
3.06935
3.11141
3.15314
3.19408
3.23377
3.27174
3.3075
3.34053
3.37036
3.39649
3.41846
3.43584
3.44825
3.45533
3.4568
3.45244
3.44211
3.42573
3.4033
3.3749
3.34069
3.30089
3.2558
3.20575
3.15116
3.09247
3.03015
2.96469
2.89662
2.82643
2.75464
2.68174
2.60821
2.53449
2.46099
2.3881
2.31615
2.24544
2.17623
2.10874
2.04314
1.97957
1.91814
1.85892
1.80196
1.74726
1.69483
1.64465
1.59666
1.55083
1.50709
1.46537
1.42561
1.38771
1.3516
1.31721
1.28446
1.25326
1.22354
1.19523
1.16827
1.14257
1.11808
1.09474
1.07249
1.05127
1.03103
1.01172
0.993299
0.975719
0.958941
0.942924
0.927633
0.913033
0.899091
0.885778
0.873064
0.860924
0.849331
0.838263
0.827698
0.817615
0.807994
0.798819
0.790071
0.781737
0.773801
0.766251
0.759074
0.752259
0.745797
0.739679
0.733895
0.728441
0.72331
0.718497
0.713998
0.709806
0.705885
0.702252
0.698926
0.695912
0.693212
0.690834
0.688784
0.687071
0.685708
0.684709
0.684089
0.683869
0.684074
0.68473
0.685872
0.687539
0.689776
0.692641
0.696198
0.700527
0.705724
0.711908
0.719225
0.727859
0.738045
0.750088
0.764395
0.781515
0.802203
0.827525
0.859004
0.898846
0.950276
1.01801
1.10888
1.2326
1.40257
1.63652
1.95704
2.3919
2.97424
3.74133
4.72854
5.94765
7.34371
8.6535
8.73251
0.641456
0.646046
0.650429
0.654796
0.65965
0.665535
0.673063
0.682961
0.696078
0.713475
0.73672
0.766428
0.803096
0.846821
0.897255
0.953627
1.01482
1.0795
1.14623
1.21363
1.28045
1.34566
1.40844
1.4682
1.52459
1.57743
1.62668
1.67243
1.71485
1.7542
1.79076
1.82486
1.85684
1.88705
1.91583
1.94355
1.97053
1.9971
2.02357
2.05024
2.07737
2.1052
2.13395
2.1638
2.19491
2.2274
2.26136
2.29682
2.33379
2.37223
2.41207
2.45317
2.49537
2.53845
2.58217
2.62623
2.67031
2.71403
2.757
2.79881
2.83901
2.87717
2.91281
2.94549
2.97475
3.00018
3.02136
3.03794
3.04958
3.05603
3.05707
3.05255
3.0424
3.0266
3.00524
2.97843
2.94638
2.90936
2.86768
2.82172
2.77187
2.71857
2.6623
2.6035
2.54268
2.48028
2.41677
2.35259
2.28815
2.22383
2.15997
2.0969
2.03488
1.97415
1.91491
1.85731
1.80149
1.74753
1.6955
1.64544
1.59736
1.55127
1.50713
1.46491
1.42456
1.38604
1.34928
1.31422
1.28078
1.24891
1.21852
1.18956
1.16195
1.13564
1.11055
1.08663
1.06382
1.04207
1.02131
1.00151
0.982617
0.964582
0.947365
0.930926
0.915227
0.900234
0.885912
0.872231
0.85916
0.846671
0.834739
0.823339
0.812448
0.802044
0.792108
0.782619
0.773561
0.764917
0.756672
0.748811
0.741322
0.734193
0.727411
0.720969
0.714855
0.709063
0.703584
0.698413
0.693545
0.688976
0.684702
0.68072
0.677023
0.67357
0.670408
0.667542
0.664977
0.662719
0.660773
0.659149
0.657856
0.656909
0.65632
0.656109
0.656296
0.656907
0.657969
0.659517
0.661591
0.664239
0.667516
0.671489
0.676237
0.681856
0.688462
0.696201
0.705252
0.715844
0.728274
0.742934
0.760354
0.781263
0.806687
0.838101
0.877654
0.928516
0.995377
1.08513
1.20772
1.37703
1.61164
1.93514
2.376
2.96684
3.74173
4.72834
5.92691
7.263
8.51299
8.83832
0.565198
0.567889
0.57036
0.572638
0.574889
0.577295
0.580058
0.583426
0.587705
0.593273
0.600763
0.610762
0.623788
0.64031
0.660698
0.685178
0.713798
0.746411
0.782684
0.822122
0.864114
0.907983
0.953039
0.998625
1.04415
1.08912
1.13314
1.17592
1.21728
1.25711
1.2954
1.33221
1.36763
1.40181
1.43494
1.46721
1.49883
1.53005
1.56107
1.59213
1.62343
1.65519
1.68759
1.72079
1.75493
1.79014
1.82651
1.86408
1.90288
1.94291
1.98409
2.02635
2.06955
2.11352
2.15805
2.20289
2.24775
2.29231
2.33623
2.37913
2.42061
2.46027
2.49769
2.53246
2.56415
2.59239
2.61678
2.637
2.65274
2.66375
2.66981
2.67079
2.6666
2.65722
2.64271
2.62317
2.59878
2.56976
2.53642
2.49906
2.45807
2.41383
2.36677
2.31731
2.26589
2.21293
2.15885
2.10405
2.0489
1.99376
1.93893
1.88471
1.83133
1.77902
1.72795
1.67826
1.63006
1.58345
1.53848
1.49519
1.45358
1.41365
1.3754
1.33878
1.30376
1.27029
1.23833
1.20781
1.17868
1.15088
1.12435
1.09905
1.0749
1.05185
1.02986
1.00888
0.988843
0.969717
0.951454
0.934012
0.917352
0.901436
0.886229
0.871696
0.857805
0.844527
0.831834
0.819697
0.808093
0.796997
0.786387
0.776242
0.766543
0.757271
0.748408
0.73994
0.731851
0.724126
0.716753
0.709721
0.703018
0.696634
0.69056
0.684788
0.679311
0.674121
0.669215
0.664586
0.660232
0.65615
0.652338
0.648794
0.645511
0.642454
0.639678
0.637187
0.634985
0.633078
0.631475
0.630185
0.629219
0.628591
0.628317
0.628415
0.628909
0.629824
0.63119
0.633043
0.635423
0.638378
0.641967
0.646254
0.651321
0.657263
0.664195
0.672261
0.681636
0.692545
0.705275
0.720205
0.737844
0.758891
0.78433
0.815579
0.854714
0.904821
0.970514
1.05867
1.17936
1.34684
1.58036
1.90434
2.34776
2.94239
3.71889
4.6974
5.86835
7.14546
8.34082
8.83099
0.514567
0.516099
0.517463
0.518657
0.519739
0.520776
0.521838
0.523007
0.524389
0.526115
0.528399
0.531528
0.535758
0.541361
0.548617
0.557791
0.569116
0.582777
0.598885
0.617477
0.638499
0.66182
0.687231
0.71447
0.743234
0.773206
0.804073
0.835542
0.867353
0.899291
0.931188
0.962926
0.994434
1.02569
1.0567
1.08752
1.11822
1.14891
1.1797
1.21071
1.24208
1.27393
1.30641
1.33963
1.37369
1.4087
1.44473
1.48182
1.52
1.55928
1.59961
1.64092
1.68312
1.72606
1.76957
1.81343
1.85742
1.90124
1.94459
1.98714
2.02854
2.06842
2.1064
2.14211
2.17516
2.2052
2.23187
2.25486
2.27388
2.28868
2.29908
2.30491
2.30609
2.3026
2.29445
2.28173
2.26459
2.24322
2.21787
2.18883
2.15642
2.12098
2.0829
2.04254
2.00031
1.95657
1.91171
1.86608
1.82002
1.77384
1.72782
1.68222
1.63725
1.59311
1.54996
1.50793
1.46712
1.4276
1.38942
1.35263
1.31724
1.28324
1.25062
1.21936
1.18943
1.16079
1.1334
1.10722
1.08219
1.05828
1.03544
1.01362
0.992767
0.972847
0.953814
0.935627
0.918246
0.901633
0.885752
0.870568
0.856049
0.842163
0.828881
0.816175
0.804017
0.792384
0.78125
0.770593
0.760393
0.750628
0.741281
0.732334
0.72377
0.715573
0.707729
0.700225
0.693048
0.686186
0.679629
0.673367
0.66739
0.661691
0.656263
0.651098
0.646191
0.641537
0.637133
0.632974
0.62906
0.625388
0.621958
0.618769
0.615811
0.61307
0.610594
0.608389
0.606458
0.604808
0.603449
0.60239
0.601646
0.601229
0.601159
0.601455
0.602141
0.603243
0.604795
0.606831
0.609396
0.612538
0.616315
0.620795
0.626059
0.632202
0.639341
0.647616
0.657201
0.668314
0.681234
0.696327
0.714081
0.735163
0.760514
0.791485
0.830064
0.879228
0.943471
1.02958
1.14762
1.31209
1.54272
1.86463
2.3071
2.90091
3.67326
4.6374
5.77571
6.99621
8.13985
8.73322
0.480489
0.481341
0.482065
0.482661
0.48315
0.483559
0.483918
0.484255
0.484609
0.485025
0.485578
0.486395
0.487583
0.489263
0.491576
0.494667
0.498692
0.503799
0.510131
0.51781
0.526933
0.537565
0.549737
0.563442
0.578637
0.595249
0.613179
0.632309
0.652515
0.673667
0.695645
0.718341
0.741664
0.765543
0.789931
0.814802
0.840151
0.865996
0.892371
0.919323
0.946911
0.975204
1.00427
1.03418
1.06501
1.09681
1.12964
1.16352
1.19849
1.23453
1.27162
1.30971
1.34871
1.38851
1.42897
1.46992
1.51114
1.55241
1.59345
1.63398
1.67369
1.71225
1.74932
1.78456
1.81763
1.84818
1.8759
1.9005
1.92169
1.93925
1.95298
1.96273
1.9684
1.96994
1.96737
1.96073
1.95013
1.93574
1.91777
1.89644
1.87204
1.84486
1.81524
1.78349
1.74996
1.71498
1.67889
1.64198
1.60457
1.56691
1.52927
1.49187
1.4549
1.41852
1.38289
1.34812
1.31429
1.28148
1.24974
1.21909
1.18956
1.16115
1.13384
1.10764
1.0825
1.05841
1.03534
1.01324
0.992093
0.971854
0.952487
0.933958
0.91623
0.899269
0.88304
0.867512
0.852653
0.838432
0.824821
0.811791
0.799316
0.78737
0.775929
0.76497
0.754471
0.744411
0.73477
0.725529
0.716671
0.708179
0.700037
0.692231
0.684746
0.67757
0.67069
0.664096
0.657776
0.651722
0.645925
0.640375
0.635067
0.629993
0.625149
0.620528
0.616126
0.611941
0.607969
0.604208
0.600658
0.597318
0.594189
0.591271
0.588543
0.586039
0.583777
0.581763
0.580004
0.578509
0.577287
0.57635
0.575712
0.575389
0.5754
0.575767
0.576515
0.577673
0.579273
0.581355
0.583963
0.587148
0.59097
0.595498
0.600813
0.607013
0.614214
0.622554
0.632206
0.643384
0.656358
0.671481
0.689219
0.710211
0.735347
0.765909
0.803787
0.85182
0.91434
0.99796
1.11265
1.27294
1.49892
1.81617
2.25419
2.8427
3.60563
4.55018
5.65234
6.81881
7.91275
8.56516
0.457083
0.45755
0.457917
0.458188
0.458368
0.458472
0.458514
0.458507
0.458466
0.458409
0.458363
0.458388
0.458526
0.45883
0.459363
0.460194
0.461403
0.463074
0.465295
0.468155
0.471738
0.476125
0.481385
0.487576
0.494742
0.502912
0.512101
0.522307
0.533518
0.545711
0.558856
0.57292
0.58787
0.603674
0.620307
0.637751
0.655996
0.675042
0.694897
0.715581
0.73712
0.759546
0.782898
0.807215
0.832539
0.858907
0.88635
0.914894
0.944549
0.975315
1.00717
1.04008
1.07397
1.10877
1.14435
1.18058
1.21729
1.25428
1.29132
1.32818
1.36458
1.40023
1.43485
1.46812
1.49973
1.52939
1.55678
1.58165
1.60373
1.62279
1.63865
1.65116
1.66019
1.66569
1.66765
1.66608
1.66107
1.65274
1.64124
1.62676
1.60955
1.58983
1.56789
1.544
1.51845
1.49153
1.46351
1.43466
1.40524
1.37549
1.34561
1.31581
1.28625
1.25708
1.22842
1.20037
1.17303
1.14644
1.12065
1.09571
1.07161
1.04838
1.02601
1.0045
0.983819
0.963962
0.944905
0.926624
0.909093
0.892287
0.876179
0.860742
0.84595
0.831776
0.818194
0.805181
0.79271
0.780759
0.769304
0.758323
0.747796
0.7377
0.728017
0.718728
0.709815
0.70126
0.693046
0.68516
0.677585
0.670308
0.663315
0.656595
0.650136
0.643928
0.63796
0.632222
0.626708
0.621408
0.616315
0.611424
0.606728
0.602222
0.597902
0.593763
0.589804
0.586021
0.582414
0.57898
0.57572
0.572635
0.569727
0.566996
0.564425
0.562065
0.559922
0.558003
0.556314
0.554866
0.553669
0.552736
0.552082
0.551725
0.551684
0.551984
0.55265
0.553715
0.555212
0.557183
0.559674
0.562739
0.566438
0.570845
0.576041
0.582126
0.589215
0.597449
0.606998
0.618071
0.630932
0.645921
0.663486
0.684232
0.709001
0.739003
0.776015
0.822727
0.883262
0.963993
1.07466
1.22969
1.44927
1.75932
2.18943
2.76834
3.51705
4.43766
5.50127
6.61602
7.66194
8.34307
0.440647
0.440903
0.441078
0.441179
0.441204
0.441163
0.441063
0.440913
0.440718
0.440488
0.440235
0.439988
0.439766
0.439591
0.439491
0.4395
0.439656
0.440003
0.440587
0.44146
0.442676
0.444288
0.446351
0.448916
0.452033
0.455746
0.460095
0.465114
0.470831
0.477269
0.484445
0.492373
0.501063
0.510525
0.520767
0.531799
0.543632
0.556279
0.569759
0.584092
0.599302
0.615419
0.632472
0.650494
0.669518
0.689575
0.710693
0.732895
0.756195
0.7806
0.8061
0.832674
0.860279
0.888856
0.918323
0.948573
0.979476
1.01088
1.0426
1.07444
1.10618
1.13758
1.16837
1.1983
1.2271
1.25449
1.28021
1.304
1.32563
1.34489
1.36159
1.37557
1.38672
1.39496
1.40025
1.40258
1.40201
1.3986
1.39248
1.3838
1.37273
1.35947
1.34423
1.32724
1.30875
1.28897
1.26816
1.24652
1.22427
1.20162
1.17874
1.15579
1.13293
1.11027
1.08792
1.06598
1.04451
1.02357
1.00321
0.983446
0.964309
0.945808
0.927948
0.910727
0.894139
0.878174
0.86282
0.848061
0.83388
0.820262
0.807186
0.794635
0.782589
0.771029
0.759937
0.749293
0.739079
0.729277
0.719868
0.710835
0.702161
0.693829
0.685824
0.678129
0.67073
0.663614
0.656765
0.650171
0.643821
0.637703
0.631805
0.626119
0.620633
0.61534
0.610232
0.605301
0.600539
0.595941
0.591502
0.587215
0.583077
0.579083
0.575231
0.571517
0.567939
0.564497
0.561189
0.558014
0.554975
0.552072
0.549307
0.546684
0.544198
0.541895
0.539779
0.537857
0.536137
0.534628
0.533342
0.532292
0.531495
0.53097
0.530737
0.530823
0.531255
0.532066
0.533294
0.534981
0.537177
0.539937
0.543327
0.547419
0.5523
0.558071
0.564849
0.572775
0.582018
0.592785
0.605334
0.619993
0.637192
0.657504
0.681725
0.710986
0.746952
0.792141
0.850439
0.927911
1.03395
1.1827
1.39426
1.69464
2.11349
2.6787
3.40881
4.30182
5.32525
6.39026
7.38972
8.07951
0.42887
0.429013
0.429089
0.429106
0.429061
0.428957
0.428801
0.428598
0.428352
0.428068
0.427753
0.427424
0.427088
0.426757
0.426444
0.426165
0.425939
0.425789
0.425739
0.425819
0.426057
0.426487
0.427144
0.428062
0.429278
0.430825
0.432741
0.435056
0.437804
0.441014
0.444714
0.448931
0.45369
0.459014
0.464928
0.471454
0.478617
0.48644
0.49495
0.504174
0.514142
0.524884
0.536434
0.548824
0.562088
0.576259
0.591369
0.607445
0.624511
0.642582
0.661666
0.681759
0.702844
0.724888
0.747843
0.771638
0.796185
0.821373
0.847071
0.873124
0.899361
0.92559
0.951603
0.977182
1.0021
1.02613
1.04903
1.07058
1.09058
1.10882
1.12513
1.13935
1.15137
1.16109
1.16846
1.17346
1.17609
1.1764
1.17446
1.17038
1.16429
1.15633
1.14668
1.1355
1.12299
1.10933
1.0947
1.0793
1.06328
1.04681
1.03004
1.01311
0.996135
0.979218
0.962451
0.94591
0.929658
0.913744
0.89821
0.883084
0.868389
0.854139
0.840344
0.827008
0.814129
0.801707
0.789734
0.778202
0.767103
0.756426
0.746159
0.73629
0.726805
0.717691
0.708934
0.70052
0.692435
0.684664
0.677194
0.670009
0.663097
0.656444
0.650036
0.643861
0.637906
0.63216
0.626612
0.621251
0.616067
0.61105
0.606192
0.601484
0.596919
0.59249
0.588189
0.584012
0.579953
0.576006
0.572168
0.568434
0.564802
0.561268
0.557829
0.554485
0.551233
0.548073
0.545004
0.542028
0.539144
0.536356
0.533666
0.531077
0.528606
0.526283
0.52411
0.522096
0.520246
0.518573
0.517086
0.515802
0.514737
0.513909
0.513343
0.513064
0.513104
0.513495
0.514279
0.5155
0.517209
0.519467
0.522341
0.525907
0.530254
0.535487
0.541726
0.549113
0.557816
0.568043
0.580046
0.594143
0.610746
0.630402
0.653855
0.682165
0.716877
0.760328
0.816142
0.890015
0.990894
1.13246
1.33447
1.62287
2.02726
2.5749
3.28239
4.14466
5.12681
6.14378
7.09832
7.78397
0.420293
0.420379
0.420407
0.420388
0.420315
0.420192
0.420022
0.419809
0.419557
0.419269
0.41895
0.41861
0.418254
0.417887
0.417516
0.417151
0.416801
0.416478
0.416196
0.41597
0.415818
0.41576
0.415815
0.416006
0.416357
0.41689
0.417631
0.418605
0.419835
0.421347
0.423165
0.425313
0.427814
0.430693
0.433973
0.437678
0.441833
0.446461
0.45159
0.457246
0.463457
0.470254
0.477667
0.485727
0.494469
0.503924
0.514126
0.525104
0.536887
0.5495
0.562961
0.577281
0.592465
0.608502