/*--------------------------------*- C++ -*----------------------------------*\
| =========                 |                                                 |
| \\      /  F ield         | OpenFOAM: The Open Source CFD Toolbox           |
|  \\    /   O peration     | Version:  2.4.0                                 |
|   \\  /    A nd           | Web:      www.OpenFOAM.org                      |
|    \\/     M anipulation  |                                                 |
\*---------------------------------------------------------------------------*/
FoamFile
{
    version     2.0;
    format      ascii;
    class       volScalarField;
    location    "0.006";
    object      nut;
}
// * * * * * * * * * * * * * * * * * * * * * * * * * * * * * * * * * * * * * //

dimensions      [0 2 -1 0 0 0 0];

internalField   nonuniform List<scalar> 
17600
(
0.00101532
0.000828775
0.000764554
0.000739663
0.000731041
0.000729729
0.000731673
0.000734948
0.000738644
0.000742341
0.000745861
0.000749138
0.000752164
0.000754952
0.000757532
0.000759936
0.000762233
0.000764442
0.000767213
0.000767186
0.00342895
0.00185773
0.00130446
0.00105816
0.000933196
0.000864137
0.000824155
0.000800683
0.000787133
0.000779754
0.000776284
0.000775309
0.000775926
0.000777549
0.000779794
0.000782413
0.000785242
0.000788174
0.000792244
0.000788458
0.00401956
0.00254975
0.00188269
0.00151329
0.00129076
0.00114865
0.00105407
0.000989556
0.000945058
0.000914376
0.000893468
0.000879586
0.0008708
0.000865728
0.000863355
0.000862944
0.000863907
0.000865795
0.000869127
0.00086152
0.00505888
0.00331081
0.00252108
0.00205396
0.00175025
0.00154173
0.0013928
0.00128357
0.00120211
0.00114081
0.00109457
0.00105981
0.00103391
0.00101493
0.00100135
0.000991991
0.000985852
0.000982099
0.00098046
0.000968217
0.00684042
0.00439334
0.0033463
0.00273544
0.00233256
0.00204898
0.00184022
0.0016817
0.00155871
0.00146189
0.00138498
0.00132358
0.00127451
0.00123539
0.00120432
0.00117984
0.00116059
0.00114538
0.00113312
0.00111121
0.00913821
0.00589201
0.00445564
0.00362808
0.00308523
0.00270218
0.00241785
0.00219916
0.00202657
0.00188776
0.00177456
0.00168135
0.00160407
0.00153976
0.00148609
0.00144123
0.00140348
0.0013713
0.00134267
0.00130494
0.0114627
0.00771434
0.00585867
0.00476293
0.00404
0.00352859
0.00314789
0.00285375
0.00262003
0.00243029
0.00227365
0.00214266
0.00203201
0.00193781
0.00185707
0.00178747
0.0017268
0.00167306
0.00162323
0.00156453
0.0134582
0.00965084
0.00747149
0.00611044
0.00519009
0.00453078
0.00403636
0.00365234
0.0033457
0.00309543
0.00288749
0.00271221
0.00256269
0.00243387
0.00232187
0.00222367
0.00213643
0.00205751
0.00198291
0.00189985
0.0150057
0.011496
0.00916205
0.00759349
0.00649048
0.0056819
0.00506679
0.00458439
0.00419648
0.00387801
0.00361199
0.00338652
0.00319302
0.00302515
0.00287802
0.00274782
0.00263092
0.002524
0.00242218
0.00231298
0.0161347
0.0131171
0.0108028
0.00911701
0.00787338
0.00693332
0.00620341
0.00562278
0.00515101
0.00476061
0.00443242
0.0041527
0.00391141
0.00370102
0.00351565
0.00335065
0.00320168
0.00306469
0.00293413
0.00279818
0.0169289
0.0144598
0.0123008
0.0105937
0.00926647
0.00822683
0.00739929
0.00672905
0.00617715
0.00571577
0.00532477
0.00498936
0.00469844
0.00444355
0.004218
0.00401641
0.00383378
0.00366543
0.00350543
0.00334291
0.0174759
0.0155251
0.0136041
0.0119578
0.0106059
0.00950529
0.00860446
0.00785965
0.00723666
0.00670952
0.00625854
0.00586873
0.00552855
0.00522898
0.00496276
0.00472397
0.00450714
0.00430707
0.00411774
0.00392947
0.0178478
0.0163438
0.014695
0.013168
0.0118426
0.0107193
0.00977207
0.00897112
0.00828954
0.00770504
0.00719969
0.00675921
0.0063722
0.00602953
0.00572369
0.00544843
0.00519797
0.00496682
0.00474911
0.00453648
0.0180986
0.0169577
0.0155794
0.0142044
0.0129435
0.01183
0.0108618
0.0100236
0.00929732
0.00866563
0.00811338
0.00762775
0.00719805
0.00681543
0.00647241
0.00616266
0.00588031
0.00561973
0.00537541
0.00514037
0.0182669
0.0174086
0.016276
0.0150633
0.0138896
0.0128098
0.0118412
0.0109827
0.0102251
0.00955685
0.00896603
0.00844188
0.00797483
0.00755662
0.00718009
0.00683897
0.00652752
0.00624012
0.00597174
0.00571683
0.018379
0.017733
0.016809
0.0157511
0.0146726
0.0136401
0.0126857
0.0118202
0.011043
0.0103479
0.00972691
0.00917134
0.00867301
0.00822446
0.00781898
0.00745058
0.00711373
0.00680298
0.00651383
0.0062421
0.0184527
0.0179605
0.0172027
0.0162796
0.0152917
0.0143104
0.0133777
0.0125141
0.011726
0.0110127
0.0103692
0.0097893
0.00926609
0.00879298
0.00836382
0.00797295
0.00761515
0.00728523
0.0069792
0.00669418
0.0184997
0.0181131
0.0174782
0.0166616
0.0157499
0.014815
0.0139052
0.0130477
0.0122549
0.0115299
0.0108709
0.0102733
0.00973166
0.00924008
0.00879295
0.00838497
0.00801125
0.0076669
0.00734839
0.00705397
0.0185274
0.0182066
0.0176525
0.016909
0.0160519
0.0151518
0.0142605
0.0134096
0.0126152
0.0118836
0.0112149
0.010606
0.0100522
0.00954837
0.00908927
0.0086699
0.00828569
0.00793206
0.0076058
0.00730618
0.0185402
0.018251
0.0177367
0.0170304
0.0162018
0.0153203
0.0144392
0.0135923
0.0127978
0.0120632
0.0113899
0.0107755
0.0102157
0.00970586
0.00924092
0.00881612
0.00842709
0.00806956
0.00774053
0.00744004
0.0185402
0.018251
0.0177367
0.0170304
0.0162018
0.0153203
0.0144392
0.0135923
0.0127978
0.0120633
0.01139
0.0107756
0.010216
0.00970636
0.00924178
0.00881758
0.00842952
0.0080736
0.00774681
0.00744985
0.0185274
0.0182066
0.0176525
0.016909
0.0160519
0.0151518
0.0142605
0.0134096
0.0126153
0.0118838
0.0112152
0.0106065
0.010053
0.0095498
0.00909173
0.00867414
0.00829282
0.00794392
0.00762433
0.00733522
0.0184997
0.0181131
0.0174782
0.0166616
0.0157499
0.014815
0.0139052
0.0130478
0.012255
0.0115301
0.0108713
0.0102741
0.00973296
0.00924234
0.00879683
0.00839162
0.00802251
0.00768588
0.00737823
0.00710107
0.0184527
0.0179605
0.0172027
0.0162796
0.0152917
0.0143104
0.0133778
0.0125142
0.0117262
0.011013
0.0103698
0.00979029
0.0092678
0.00879593
0.00836889
0.00798163
0.00762981
0.0073102
0.00701884
0.00675742
0.018379
0.0177331
0.016809
0.0157512
0.0146726
0.0136401
0.0126858
0.0118203
0.0110432
0.0103483
0.00972758
0.00917251
0.00867504
0.00822796
0.00782497
0.00746083
0.00713102
0.00683244
0.00656124
0.00631891
0.0182669
0.0174086
0.016276
0.0150633
0.0138896
0.0128098
0.0118413
0.0109828
0.0102254
0.00955727
0.00896678
0.00844318
0.00797708
0.00756049
0.0071867
0.00685027
0.00654659
0.0062726
0.00602448
0.00580406
0.0180986
0.0169577
0.0155794
0.0142044
0.0129435
0.0118301
0.0108619
0.0100237
0.00929757
0.00866609
0.00811417
0.00762911
0.0072004
0.00681947
0.00647932
0.00617445
0.00590023
0.00565372
0.00543092
0.00523443
0.0178478
0.0163438
0.014695
0.013168
0.0118426
0.0107193
0.00977215
0.00897127
0.0082898
0.0077055
0.00720049
0.00676058
0.00637455
0.00603356
0.00573056
0.00546014
0.0052178
0.00500076
0.00480504
0.00463349
0.0174759
0.0155251
0.0136041
0.0119578
0.0106059
0.00950533
0.00860454
0.00785979
0.00723691
0.00670996
0.0062593
0.00587004
0.00553079
0.00523281
0.00496928
0.00473508
0.00452598
0.00433945
0.00417168
0.00402523
0.0169289
0.0144598
0.0123008
0.0105937
0.00926649
0.00822687
0.00739937
0.00672919
0.00617739
0.00571618
0.00532547
0.00499056
0.00470049
0.00444703
0.0042239
0.00402646
0.00385085
0.00369489
0.00355507
0.00343363
0.0161347
0.0131171
0.0108028
0.00911702
0.00787341
0.00693336
0.00620349
0.00562291
0.00515122
0.00476097
0.00443303
0.00415374
0.00391318
0.00370402
0.00352073
0.00335929
0.00321637
0.00309013
0.00297749
0.00288047
0.0150057
0.011496
0.00916206
0.0075935
0.0064905
0.00568194
0.00506685
0.00458449
0.00419665
0.00387831
0.0036125
0.00338738
0.00319447
0.0030276
0.00288216
0.00275482
0.00264283
0.00254469
0.00245782
0.00238394
0.0134582
0.00965085
0.0074715
0.00611045
0.00519011
0.00453081
0.00403641
0.00365242
0.00334584
0.00309566
0.00288788
0.00271287
0.0025638
0.00243574
0.00232502
0.00222899
0.00214545
0.00207318
0.00201009
0.00195755
0.0114627
0.00771435
0.00585867
0.00476294
0.00404001
0.00352861
0.00314792
0.00285381
0.00262013
0.00243045
0.00227393
0.00214314
0.00203281
0.00193914
0.0018593
0.00179119
0.00173309
0.00168396
0.00164214
0.00160857
0.00913821
0.00589201
0.00445564
0.00362809
0.00308524
0.00270219
0.00241787
0.0021992
0.00202664
0.00188787
0.00177475
0.00168166
0.0016046
0.00154063
0.00148752
0.0014436
0.00140745
0.00137817
0.00135441
0.00133671
0.00684042
0.00439335
0.0033463
0.00273545
0.00233256
0.00204899
0.00184023
0.00168172
0.00155875
0.00146196
0.00138509
0.00132376
0.00127482
0.00123589
0.00120515
0.00118119
0.00116283
0.00114927
0.00113944
0.00113361
0.00505888
0.00331081
0.00252108
0.00205397
0.00175025
0.00154174
0.00139281
0.00128359
0.00120213
0.00114085
0.00109463
0.0010599
0.00103407
0.00101518
0.00100175
0.000992657
0.000986965
0.000984056
0.000983183
0.000984485
0.00401956
0.00254975
0.00188269
0.00151329
0.00129076
0.00114865
0.00105407
0.000989561
0.000945066
0.000914389
0.00089349
0.00087962
0.000870855
0.000865817
0.000863503
0.000863191
0.000864329
0.000866565
0.000869497
0.000873251
0.00342895
0.00185773
0.00130446
0.00105816
0.000933196
0.000864137
0.000824155
0.000800684
0.000787134
0.000779755
0.000776284
0.000775309
0.000775924
0.000777543
0.00077978
0.000782385
0.000785183
0.000788074
0.000790936
0.000793852
0.00101532
0.000828775
0.000764554
0.000739663
0.000731041
0.000729729
0.000731673
0.000734947
0.000738641
0.000742336
0.00074585
0.000749118
0.000752126
0.000754881
0.0007574
0.000759695
0.000761777
0.000763641
0.000765285
0.000766735
0.000984893
0.00131793
0.00160633
0.00183981
0.00202445
0.00217379
0.00229997
0.00241099
0.00251177
0.00260538
0.00269374
0.00277811
0.0028594
0.00293824
0.00301513
0.00309043
0.00316445
0.00323739
0.00330944
0.00338073
0.00345138
0.00352149
0.00359113
0.00366038
0.00372932
0.00379801
0.00386653
0.00393499
0.00400346
0.00407207
0.00414093
0.0042102
0.00428002
0.00435057
0.00442203
0.0044946
0.00456848
0.00464388
0.00472103
0.00480015
0.00488144
0.00496513
0.00505141
0.00514048
0.00523251
0.00532767
0.00542608
0.00552786
0.00563308
0.00574179
0.00585399
0.00596964
0.00608865
0.00621085
0.00633602
0.00646385
0.00659393
0.00672579
0.00685885
0.00699241
0.00712573
0.00725797
0.00738822
0.00751555
0.00763902
0.0077577
0.0078707
0.0079772
0.00807646
0.00816787
0.00825093
0.00832527
0.00839066
0.00844701
0.00849435
0.00853283
0.00856269
0.0085843
0.00859806
0.00860446
0.00860401
0.00859727
0.0085848
0.00856715
0.00854487
0.00851849
0.00848851
0.00845537
0.00841949
0.00838125
0.00834095
0.00829886
0.00825519
0.00821012
0.00816377
0.0081162
0.00806748
0.00801759
0.00796653
0.00791426
0.00786072
0.00780586
0.00774962
0.00769194
0.0076328
0.00757216
0.00751003
0.00744642
0.00738139
0.00731501
0.00724736
0.00717858
0.00710881
0.0070382
0.00696694
0.0068952
0.00682319
0.0067511
0.00667913
0.00660748
0.00653635
0.0064659
0.00639632
0.00632777
0.00626039
0.00619433
0.00612971
0.00606663
0.00600518
0.00594545
0.00588751
0.00583142
0.0057772
0.00572491
0.00567457
0.00562618
0.00557977
0.00553533
0.00549286
0.00545234
0.00541377
0.00537714
0.00534241
0.00530957
0.00527861
0.00524949
0.0052222
0.00519671
0.005173
0.00515107
0.00513088
0.00511243
0.00509571
0.00508068
0.00506722
0.00505516
0.00504471
0.00503589
0.00502871
0.00502322
0.00501946
0.00501747
0.00501733
0.00501909
0.00502286
0.00502871
0.00503678
0.00504719
0.00506009
0.00507567
0.00509413
0.00511572
0.00514074
0.00516954
0.00520258
0.00524038
0.00528363
0.0053332
0.00539022
0.00545616
0.00553297
0.00562321
0.00573031
0.00585872
0.00601422
0.00620395
0.00643625
0.00671978
0.00706171
0.00746465
0.00792282
0.00841875
0.00892278
0.00939654
0.00979916
0.0100848
0.0101654
0.00974289
0.00795372
0.00218219
0.000853726
0.000990986
0.00116377
0.00135255
0.00153731
0.00170807
0.00186226
0.00200083
0.00212611
0.00224061
0.00234656
0.00244572
0.00253945
0.00262881
0.00271461
0.0027975
0.00287798
0.00295646
0.00303325
0.00310862
0.00318281
0.00325599
0.00332832
0.00339996
0.00347103
0.00354166
0.00361196
0.00368205
0.00375207
0.00382213
0.00389237
0.00396295
0.00403402
0.00410574
0.00417828
0.00425185
0.00432662
0.00440279
0.00448056
0.00456012
0.00464168
0.00472542
0.00481151
0.00490014
0.00499143
0.00508554
0.00518256
0.0052826
0.00538569
0.00549189
0.00560117
0.0057135
0.00582879
0.0059469
0.00606763
0.00619072
0.00631585
0.00644261
0.00657051
0.00669899
0.0068274
0.00695502
0.00708109
0.00720478
0.00732525
0.00744165
0.00755316
0.007659
0.00775846
0.00785093
0.00793588
0.00801291
0.00808172
0.00814217
0.00819419
0.00823787
0.00827336
0.00830094
0.00832093
0.00833375
0.00833982
0.00833964
0.0083337
0.00832251
0.00830656
0.00828633
0.00826228
0.00823483
0.00820437
0.00817123
0.00813573
0.00809809
0.00805853
0.00801721
0.00797423
0.00792967
0.00788356
0.00783593
0.00778674
0.00773597
0.00768358
0.00762951
0.00757374
0.00751621
0.00745693
0.00739588
0.00733309
0.00726862
0.00720254
0.00713495
0.00706598
0.00699579
0.00692454
0.00685243
0.00677966
0.00670644
0.00663299
0.00655952
0.00648626
0.00641342
0.0063412
0.00626979
0.00619937
0.00613012
0.00606218
0.00599569
0.00593077
0.00586754
0.00580607
0.00574646
0.00568876
0.00563302
0.00557929
0.0055276
0.00547796
0.00543039
0.00538488
0.00534145
0.00530007
0.00526074
0.00522344
0.00518814
0.00515483
0.00512349
0.00509408
0.00506659
0.00504098
0.00501724
0.00499535
0.00497529
0.00495703
0.00494056
0.00492587
0.00491292
0.00490146
0.00489159
0.00488338
0.00487685
0.00487203
0.00486896
0.00486768
0.00486825
0.00487073
0.0048752
0.00488174
0.00489045
0.00490145
0.00491488
0.00493089
0.00494967
0.00497144
0.00499645
0.005025
0.00505747
0.00509429
0.00513603
0.00518337
0.00523722
0.00529871
0.00536935
0.00545115
0.00554679
0.00565985
0.00579509
0.00595881
0.00615899
0.00640533
0.0067085
0.00707843
0.00752095
0.00803336
0.00859994
0.00918995
0.00975975
0.0102576
0.0106207
0.0107325
0.0102772
0.0083555
0.00291073
0.000874808
0.000916164
0.000987437
0.00108702
0.00121138
0.00134956
0.00149115
0.00162993
0.00176262
0.00188793
0.00200575
0.0021166
0.00222127
0.00232058
0.00241529
0.00250608
0.00259355
0.00267817
0.00276038
0.00284053
0.00291892
0.00299582
0.00307146
0.00314604
0.00321974
0.00329274
0.0033652
0.00343726
0.00350908
0.00358081
0.00365261
0.00372462
0.00379702
0.00386997
0.00394365
0.00401823
0.0040939
0.00417083
0.00424922
0.00432925
0.00441108
0.0044949
0.00458086
0.00466911
0.00475978
0.00485298
0.0049488
0.00504731
0.00514855
0.00525254
0.00535926
0.00546866
0.00558066
0.00569511
0.00581187
0.00593068
0.00605129
0.00617333
0.00629641
0.00642004
0.00654369
0.00666675
0.00678854
0.00690837
0.00702549
0.00713915
0.0072486
0.00735312
0.00745204
0.00754476
0.00763074
0.00770957
0.00778092
0.00784458
0.00790042
0.00794846
0.00798878
0.00802156
0.00804707
0.00806562
0.00807759
0.00808338
0.00808343
0.00807819
0.00806809
0.00805357
0.00803504
0.00801288
0.00798746
0.00795907
0.007928
0.00789448
0.00785868
0.00782075
0.00778079
0.00773888
0.00769504
0.00764928
0.00760159
0.00755194
0.0075003
0.00744665
0.00739095
0.00733319
0.00727339
0.00721156
0.00714777
0.0070821
0.00701465
0.00694557
0.00687501
0.00680317
0.00673025
0.00665646
0.00658205
0.00650723
0.00643226
0.00635738
0.0062828
0.00620877
0.0061355
0.00606317
0.00599199
0.00592212
0.00585371
0.0057869
0.00572182
0.00565855
0.00559719
0.00553782
0.00548049
0.00542525
0.00537213
0.00532115
0.00527234
0.00522568
0.00518119
0.00513886
0.00509866
0.00506059
0.00502462
0.00499073
0.00495889
0.00492907
0.00490125
0.00487541
0.0048515
0.00482952
0.00480944
0.00479123
0.00477487
0.00476036
0.00474768
0.00473675
0.0047273
0.00471955
0.00471351
0.00470922
0.0047067
0.004706
0.00470716
0.00471023
0.00471528
0.00472238
0.00473163
0.00474313
0.00475699
0.00477337
0.00479242
0.00481433
0.00483932
0.00486765
0.00489965
0.00493566
0.00497617
0.00502171
0.005073
0.00513093
0.00519666
0.00527172
0.00535814
0.00545865
0.00557697
0.00571809
0.0058887
0.00609756
0.00635561
0.00667554
0.00707015
0.00754891
0.00811284
0.00874872
0.0094253
0.0100935
0.0106896
0.0111318
0.0112753
0.0107885
0.0087978
0.00378841
0.000967875
0.00097491
0.000994171
0.00102991
0.00108505
0.00115925
0.00125131
0.00135638
0.00146872
0.00158388
0.00169866
0.00181104
0.0019199
0.0020248
0.00212568
0.00222274
0.00231627
0.00240661
0.00249412
0.00257914
0.00266197
0.0027429
0.00282218
0.00290007
0.00297677
0.00305249
0.00312741
0.00320173
0.00327561
0.00334923
0.00342275
0.00349636
0.00357021
0.00364448
0.00371935
0.00379499
0.00387158
0.0039493
0.00402832
0.00410881
0.00419094
0.00427486
0.00436071
0.00444863
0.00453873
0.00463112
0.00472585
0.00482299
0.00492256
0.00502457
0.00512899
0.00523576
0.0053448
0.00545597
0.00556913
0.00568407
0.00580054
0.00591824
0.00603682
0.00615589
0.00627497
0.00639355
0.00651107
0.00662691
0.00674043
0.00685097
0.00695786
0.00706044
0.00715811
0.00725027
0.00733643
0.00741615
0.00748908
0.00755497
0.00761367
0.0076651
0.00770931
0.00774639
0.00777654
0.0078
0.00781707
0.00782809
0.00783343
0.00783348
0.00782861
0.00781921
0.00780564
0.00778826
0.00776737
0.00774325
0.00771615
0.00768627
0.00765378
0.00761881
0.00758143
0.00754172
0.0074997
0.00745537
0.00740873
0.00735976
0.00730844
0.00725475
0.00719869
0.00714028
0.00707955
0.00701656
0.0069514
0.00688419
0.00681508
0.00674424
0.00667187
0.0065982
0.00652345
0.00644787
0.00637174
0.0062953
0.00621882
0.00614255
0.00606673
0.00599162
0.00591741
0.00584432
0.00577254
0.00570224
0.00563356
0.00556664
0.00550159
0.00543851
0.00537748
0.00531857
0.00526182
0.00520728
0.00515497
0.00510491
0.0050571
0.00501155
0.00496823
0.00492715
0.00488828
0.00485159
0.00481707
0.00478468
0.0047544
0.00472619
0.00470002
0.00467587
0.00465371
0.0046335
0.00461524
0.00459889
0.00458443
0.00457186
0.00456114
0.00455219
0.00454473
0.00453903
0.00453511
0.00453299
0.00453272
0.00453431
0.00453783
0.00454332
0.00455085
0.00456051
0.00457238
0.00458657
0.00460321
0.00462244
0.00464443
0.00466936
0.00469747
0.00472903
0.00476435
0.0048038
0.00484786
0.00489707
0.00495216
0.005014
0.00508378
0.00516301
0.00525375
0.00535875
0.00548179
0.00562804
0.00580452
0.00602062
0.00628843
0.00662258
0.00703878
0.00755041
0.00816273
0.00886576
0.00962828
0.0103959
0.0110924
0.011616
0.011797
0.0112956
0.0093256
0.00480601
0.00110545
0.00110125
0.00110085
0.00110718
0.00112279
0.00114974
0.0011898
0.00124367
0.00131136
0.00139078
0.00147907
0.00157326
0.00167073
0.00176938
0.0018677
0.00196471
0.00205982
0.00215274
0.00224337
0.00233176
0.00241804
0.00250235
0.0025849
0.00266587
0.00274547
0.0028239
0.00290133
0.00297797
0.00305399
0.00312958
0.00320492
0.00328017
0.00335553
0.00343116
0.00350725
0.00358396
0.00366147
0.00373995
0.00381957
0.0039005
0.00398288
0.00406686
0.00415257
0.00424014
0.00432966
0.00442122
0.00451489
0.00461069
0.00470866
0.00480879
0.00491103
0.00501534
0.00512161
0.00522973
0.00533956
0.00545089
0.0055635
0.00567714
0.0057915
0.00590622
0.00602092
0.00613515
0.00624842
0.00636021
0.00646996
0.00657711
0.00668105
0.00678121
0.00687701
0.00696794
0.0070535
0.00713328
0.00720691
0.00727413
0.00733474
0.00738864
0.00743579
0.00747625
0.00751014
0.00753763
0.00755897
0.00757442
0.00758428
0.00758888
0.00758855
0.00758361
0.00757438
0.00756115
0.00754421
0.00752379
0.00750011
0.00747334
0.00744363
0.00741107
0.00737576
0.00733773
0.007297
0.00725359
0.00720748
0.00715868
0.00710718
0.00705297
0.00699609
0.00693658
0.0068745
0.00680996
0.00674309
0.00667403
0.00660299
0.00653016
0.0064558
0.00638016
0.0063035
0.0062261
0.00614826
0.00607024
0.00599234
0.00591481
0.00583791
0.0057619
0.00568697
0.00561336
0.00554123
0.00547075
0.00540207
0.00533531
0.00527059
0.00520798
0.00514756
0.00508938
0.00503348
0.0049799
0.00492865
0.00487974
0.00483316
0.00478891
0.00474697
0.00470731
0.00466992
0.00463477
0.00460182
0.00457105
0.00454241
0.00451588
0.00449143
0.00446902
0.00444863
0.00443022
0.00441378
0.00439927
0.00438668
0.004376
0.00436719
0.00436012
0.00435459
0.00435088
0.004349
0.00434897
0.00435083
0.00435462
0.00436038
0.00436818
0.00437807
0.00439016
0.00440452
0.00442127
0.00444055
0.00446248
0.00448726
0.00451508
0.00454616
0.00458079
0.00461928
0.00466201
0.00470945
0.00476216
0.00482085
0.00488642
0.00496002
0.00504317
0.00513791
0.00524701
0.00537426
0.00552493
0.00570627
0.00592818
0.00620376
0.0065494
0.00698373
0.00752418
0.00818075
0.00894738
0.00979364
0.0106603
0.0114585
0.0120672
0.0122968
0.0118072
0.00993434
0.00594762
0.00129406
0.00128357
0.00127439
0.00126812
0.00126602
0.00126925
0.0012791
0.00129691
0.00132398
0.00136119
0.00140914
0.00146726
0.00153431
0.00160858
0.00168829
0.00177171
0.00185737
0.0019441
0.00203101
0.0021175
0.00220316
0.00228776
0.0023712
0.00245346
0.00253458
0.00261464
0.00269377
0.0027721
0.00284977
0.00292693
0.00300375
0.00308039
0.00315702
0.00323381
0.00331092
0.00338852
0.00346678
0.00354585
0.00362591
0.0037071
0.00378956
0.00387344
0.00395885
0.0040459
0.00413469
0.00422528
0.00431775
0.00441211
0.00450838
0.00460655
0.00470658
0.0048084
0.00491193
0.00501705
0.00512361
0.00523144
0.00534034
0.00545006
0.00556033
0.00567084
0.00578126
0.0058912
0.00600024
0.00610793
0.00621378
0.00631731
0.00641799
0.0065153
0.00660875
0.00669784
0.00678213
0.00686121
0.00693473
0.00700242
0.00706406
0.00711951
0.0071687
0.00721162
0.00724834
0.00727898
0.00730371
0.00732274
0.00733632
0.00734469
0.00734813
0.00734692
0.00734131
0.00733156
0.0073179
0.00730053
0.00727964
0.00725535
0.0072278
0.00719707
0.00716321
0.00712626
0.00708625
0.00704317
0.00699703
0.00694785
0.00689562
0.00684039
0.00678221
0.00672115
0.00665732
0.00659087
0.00652195
0.00645079
0.0063776
0.00630264
0.00622619
0.00614853
0.00606997
0.00599082
0.00591138
0.00583195
0.00575282
0.00567427
0.00559656
0.00551993
0.00544461
0.00537079
0.00529866
0.00522837
0.00516005
0.00509382
0.00502977
0.00496798
0.00490851
0.00485139
0.00479667
0.00474436
0.00469445
0.00464696
0.00460187
0.00455916
0.0045188
0.00448077
0.00444504
0.00441158
0.00438034
0.0043513
0.00432441
0.00429964
0.00427696
0.00425633
0.00423773
0.00422112
0.00420647
0.00419378
0.00418301
0.00417416
0.00416717
0.0041618
0.00415815
0.00415634
0.00415638
0.00415831
0.00416217
0.004168
0.00417584
0.00418577
0.00419786
0.00421219
0.00422886
0.00424798
0.00426969
0.00429415
0.00432152
0.00435201
0.00438586
0.00442334
0.00446479
0.00451058
0.00456119
0.00461718
0.00467925
0.0047483
0.00482546
0.00491224
0.00501066
0.00512345
0.00525439
0.00540878
0.005594
0.00582031
0.00610163
0.00645594
0.0069046
0.00746919
0.00816483
0.0089901
0.00991624
0.0108798
0.0117806
0.0124792
0.0127715
0.0123248
0.0106063
0.00716847
0.00154741
0.00153071
0.00151485
0.00150085
0.00148934
0.00148078
0.00147568
0.00147469
0.00147857
0.00148819
0.0015042
0.00152779
0.00155956
0.00159963
0.00164769
0.00170304
0.00176468
0.00183149
0.00190235
0.0019762
0.00205213
0.0021294
0.00220744
0.0022858
0.0023642
0.00244243
0.0025204
0.00259806
0.00267542
0.00275252
0.00282945
0.00290631
0.00298319
0.00306025
0.00313759
0.00321537
0.00329373
0.00337281
0.00345274
0.00353367
0.00361572
0.00369901
0.00378365
0.00386974
0.00395737
0.00404659
0.00413746
0.00423001
0.00432424
0.00442013
0.00451765
0.00461674
0.0047173
0.00481922
0.00492237
0.00502658
0.00513167
0.00523741
0.00534355
0.00544983
0.00555594
0.00566155
0.00576628
0.00586975
0.00597154
0.00607122
0.00616833
0.00626243
0.00635305
0.00643977
0.00652216
0.00659987
0.00667254
0.0067399
0.00680173
0.00685786
0.00690818
0.00695266
0.00699131
0.0070242
0.00705144
0.00707319
0.00708961
0.00710092
0.00710733
0.00710905
0.00710629
0.00709927
0.00708815
0.00707311
0.00705429
0.00703179
0.00700571
0.00697612
0.00694304
0.00690652
0.00686657
0.0068232
0.00677642
0.00672627
0.00667277
0.006616
0.00655605
0.00649302
0.00642708
0.0063584
0.00628721
0.00621376
0.00613831
0.00606117
0.00598264
0.00590305
0.00582274
0.00574202
0.00566123
0.00558067
0.00550065
0.00542144
0.00534331
0.0052665
0.00519121
0.00511763
0.00504595
0.00497629
0.00490878
0.00484352
0.00478059
0.00472004
0.00466192
0.00460627
0.00455309
0.00450239
0.00445417
0.00440841
0.00436508
0.00432417
0.00428564
0.00424946
0.00421558
0.00418397
0.00415458
0.00412739
0.00410234
0.00407941
0.00405854
0.00403972
0.00402291
0.00400808
0.0039952
0.00398425
0.00397523
0.0039681
0.00396282
0.00395907
0.00395714
0.00395706
0.00395886
0.00396257
0.00396823
0.0039759
0.00398562
0.00399746
0.0040115
0.00402783
0.00404655
0.00406779
0.00409167
0.00411837
0.00414806
0.00418095
0.00421728
0.00425734
0.00430146
0.00435003
0.00440352
0.00446249
0.00452765
0.00459988
0.00468029
0.00477038
0.0048721
0.00498815
0.00512226
0.00527968
0.00546783
0.00569717
0.00598222
0.00634229
0.00680127
0.00738478
0.00811334
0.00899089
0.00999137
0.0110484
0.0120514
0.0128451
0.0132155
0.0128439
0.0113198
0.00841442
0.00187552
0.00185193
0.00182926
0.0018083
0.00178948
0.00177298
0.00175895
0.0017476
0.00173919
0.00173408
0.00173237
0.00173473
0.00174186
0.00175449
0.00177317
0.0017983
0.00183003
0.00186824
0.00191257
0.00196249
0.00201731
0.00207634
0.00213884
0.00220416
0.0022717
0.00234097
0.00241157
0.00248318
0.00255558
0.0026286
0.00270215
0.00277617
0.00285066
0.00292563
0.00300113
0.00307723
0.00315401
0.00323156
0.00330996
0.00338933
0.00346975
0.00355132
0.00363413
0.00371825
0.00380376
0.0038907
0.00397912
0.00406903
0.00416044
0.00425333
0.00434766
0.00444337
0.00454038
0.00463858
0.00473783
0.004838
0.00493889
0.00504031
0.00514203
0.0052438
0.00534536
0.00544639
0.00554659
0.0056456
0.00574306
0.00583858
0.00593178
0.00602225
0.00610958
0.00619339
0.00627331
0.00634898
0.00642009
0.00648636
0.00654757
0.00660353
0.00665413
0.00669928
0.00673896
0.00677319
0.00680204
0.0068256
0.00684399
0.00685736
0.00686587
0.00686968
0.00686895
0.00686383
0.00685445
0.00684095
0.00682341
0.00680193
0.00677656
0.00674735
0.00671434
0.00667753
0.00663695
0.00659263
0.00654459
0.00649288
0.00643759
0.0063788
0.00631665
0.0062513
0.00618296
0.00611186
0.00603826
0.00596246
0.00588478
0.00580556
0.00572513
0.00564385
0.00556208
0.00548016
0.00539842
0.00531719
0.00523676
0.00515741
0.00507939
0.00500293
0.00492823
0.00485547
0.00478479
0.00471632
0.00465016
0.0045864
0.00452509
0.00446627
0.00440998
0.00435623
0.00430501
0.00425633
0.00421015
0.00416645
0.00412521
0.00408638
0.00404993
0.00401581
0.00398397
0.00395439
0.003927
0.00390177
0.00387865
0.00385761
0.0038386
0.0038216
0.00380656
0.00379347
0.00378229
0.00377302
0.00376563
0.00376009
0.00375635
0.00375411
0.0037537
0.00375515
0.00375848
0.00376375
0.00377097
0.00378021
0.00379152
0.00380499
0.00382068
0.0038387
0.00385915
0.00388216
0.00390788
0.00393647
0.00396811
0.00400304
0.00404149
0.00408376
0.00413018
0.00418115
0.00423714
0.00429872
0.00436659
0.00444161
0.00452489
0.00461787
0.00472248
0.00484133
0.00497806
0.00513783
0.00532797
0.00555901
0.00584583
0.00620878
0.0066739
0.0072707
0.0080252
0.00894735
0.0100149
0.01116
0.0122638
0.0131577
0.0136213
0.0133545
0.0120513
0.00963785
0.00228088
0.00224996
0.00222013
0.0021921
0.00216623
0.00214265
0.0021214
0.00210252
0.00208606
0.00207209
0.00206052
0.00205128
0.00204471
0.00204122
0.00204126
0.00204532
0.00205384
0.00206723
0.00208576
0.0021096
0.00213874
0.00217305
0.00221227
0.00225605
0.00230395
0.00235555
0.00241038
0.00246803
0.00252811
0.0025903
0.00265432
0.00271993
0.00278696
0.00285529
0.00292481
0.00299547
0.00306724
0.00314013
0.00321413
0.00328929
0.00336563
0.00344321
0.00352205
0.00360221
0.00368373
0.00376663
0.00385093
0.00393665
0.00402377
0.00411228
0.00420212
0.00429325
0.00438557
0.004479
0.00457339
0.00466862
0.00476451
0.00486087
0.0049575
0.00505416
0.00515061
0.00524657
0.00534175
0.00543584
0.00552852
0.00561943
0.00570824
0.00579458
0.00587809
0.00595842
0.00603524
0.00610821
0.00617703
0.00624146
0.00630125
0.00635622
0.00640622
0.00645115
0.00649096
0.00652562
0.00655515
0.0065796
0.00659904
0.00661356
0.00662327
0.00662826
0.00662866
0.00662456
0.00661606
0.00660323
0.00658614
0.00656484
0.00653937
0.00650976
0.00647602
0.00643819
0.00639629
0.00635036
0.00630045
0.00624666
0.00618908
0.00612787
0.00606321
0.0059953
0.00592442
0.00585083
0.00577486
0.00569684
0.00561714
0.00553612
0.00545416
0.00537162
0.00528889
0.00520631
0.00512422
0.00504294
0.00496275
0.00488393
0.00480671
0.00473129
0.00465787
0.00458659
0.00451758
0.00445095
0.00438677
0.0043251
0.00426599
0.00420946
0.00415551
0.00410414
0.00405534
0.00400908
0.00396534
0.00392406
0.00388522
0.00384877
0.00381465
0.00378282
0.00375323
0.00372583
0.00370057
0.00367741
0.0036563
0.0036372
0.00362007
0.00360487
0.00359158
0.00358017
0.00357061
0.00356289
0.00355699
0.00355289
0.00355047
0.00354954
0.00355045
0.0035532
0.00355782
0.00356435
0.00357283
0.00358332
0.00359589
0.00361062
0.00362758
0.00364689
0.00366866
0.00369303
0.00372014
0.00375017
0.00378332
0.00381981
0.00385991
0.0039039
0.00395214
0.00400503
0.00406304
0.00412675
0.00419684
0.00427418
0.00435984
0.00445524
0.00456223
0.00468335
0.00482211
0.00498351
0.00517474
0.00540622
0.00569294
0.00605593
0.006523
0.00712717
0.00789993
0.0088578
0.00998361
0.0112097
0.0124112
0.0134092
0.0139796
0.0138429
0.012776
0.0108023
0.00275806
0.00271965
0.00268252
0.0026473
0.00261434
0.00258378
0.00255565
0.00252995
0.00250666
0.00248575
0.00246711
0.0024503
0.00243542
0.00242259
0.002412
0.00240387
0.00239847
0.0023961
0.00239707
0.00240169
0.00241023
0.00242289
0.00243983
0.0024611
0.0024867
0.00251652
0.00255041
0.00258815
0.00262949
0.00267418
0.00272194
0.00277252
0.00282567
0.00288118
0.00293885
0.00299853
0.00306009
0.00312341
0.00318842
0.00325507
0.00332329
0.00339308
0.0034644
0.00353726
0.00361165
0.00368755
0.00376496
0.00384387
0.00392424
0.00400606
0.00408925
0.00417377
0.00425952
0.00434642
0.00443432
0.0045231
0.0046126
0.00470263
0.004793
0.00488348
0.00497384
0.00506382
0.00515315
0.00524155
0.00532871
0.00541432
0.00549805
0.00557959
0.00565861
0.00573477
0.00580776
0.00587729
0.00594307
0.00600484
0.00606238
0.00611549
0.00616402
0.00620782
0.00624683
0.00628098
0.00631025
0.00633463
0.00635416
0.00636887
0.00637882
0.00638405