/*--------------------------------*- C++ -*----------------------------------*\
| =========                 |                                                 |
| \\      /  F ield         | OpenFOAM: The Open Source CFD Toolbox           |
|  \\    /   O peration     | Version:  2.4.0                                 |
|   \\  /    A nd           | Web:      www.OpenFOAM.org                      |
|    \\/     M anipulation  |                                                 |
\*---------------------------------------------------------------------------*/
FoamFile
{
    version     2.0;
    format      ascii;
    class       volVectorField;
    location    "0.006";
    object      U;
}
// * * * * * * * * * * * * * * * * * * * * * * * * * * * * * * * * * * * * * //

dimensions      [0 1 -1 0 0 0 0];

internalField   nonuniform List<vector> 
17600
(
(9.90551 -2.50646 0)
(10.0226 -0.70626 0)
(9.72552 -0.223989 0)
(9.42264 -0.0645975 0)
(9.16918 -0.00927933 0)
(8.95394 0.009243 0)
(8.77013 0.0146306 0)
(8.61231 0.0153103 0)
(8.47542 0.0143934 0)
(8.3554 0.0130488 0)
(8.24915 0.0117028 0)
(8.15427 0.0104916 0)
(8.06884 0.00945094 0)
(7.99128 0.00857414 0)
(7.92001 0.00788484 0)
(7.85379 0.00735533 0)
(7.78917 0.00726776 0)
(7.72663 0.0075785 0)
(7.62316 0.0125345 0)
(7.62531 -0.00727514 0)
(10.0849 0.478749 0)
(10.0344 0.240672 0)
(9.95143 0.121066 0)
(9.83222 0.0740858 0)
(9.70928 0.0511817 0)
(9.5834 0.038358 0)
(9.45934 0.0308114 0)
(9.34074 0.0259082 0)
(9.22915 0.0224 0)
(9.12507 0.0197108 0)
(9.0285 0.0175573 0)
(8.9391 0.0157841 0)
(8.85632 0.0143118 0)
(8.77951 0.0130894 0)
(8.70766 0.0121478 0)
(8.63992 0.0114791 0)
(8.57302 0.0115183 0)
(8.5074 0.0128083 0)
(8.40875 0.0200317 0)
(8.36566 0.125801 0)
(9.98592 0.0647868 0)
(9.98739 0.0539585 0)
(9.99609 0.0466673 0)
(9.96459 0.0490379 0)
(9.92181 0.0483098 0)
(9.86791 0.0450967 0)
(9.80661 0.0415841 0)
(9.74131 0.0381472 0)
(9.67411 0.0349121 0)
(9.60646 0.0319433 0)
(9.53946 0.0292644 0)
(9.47388 0.0268703 0)
(9.41016 0.0247655 0)
(9.34854 0.0229479 0)
(9.28878 0.0215161 0)
(9.23063 0.0205165 0)
(9.17137 0.0206629 0)
(9.11184 0.0229648 0)
(9.02457 0.0335992 0)
(8.97708 0.119616 0)
(9.97677 -0.0099549 0)
(9.97951 0.0358722 0)
(10.0107 0.0463936 0)
(10.0127 0.05178 0)
(10.0075 0.0523502 0)
(9.99295 0.0498221 0)
(9.97096 0.046843 0)
(9.9436 0.0438403 0)
(9.91213 0.0409422 0)
(9.87748 0.0382074 0)
(9.84047 0.0356665 0)
(9.80176 0.0333278 0)
(9.76187 0.0312196 0)
(9.72118 0.0293659 0)
(9.67969 0.027922 0)
(9.63744 0.0269914 0)
(9.59215 0.0275233 0)
(9.54518 0.0308345 0)
(9.47439 0.0438777 0)
(9.44147 0.115998 0)
(9.98064 -0.0190969 0)
(9.98272 0.0330523 0)
(10.0171 0.0454817 0)
(10.0322 0.0508362 0)
(10.0446 0.0521815 0)
(10.0502 0.050421 0)
(10.0502 0.0481276 0)
(10.0455 0.0457055 0)
(10.037 0.0433002 0)
(10.0252 0.040979 0)
(10.0104 0.0387831 0)
(9.99313 0.0367304 0)
(9.9736 0.0348641 0)
(9.95208 0.0332242 0)
(9.92847 0.0320099 0)
(9.90283 0.0313692 0)
(9.87309 0.032442 0)
(9.84109 0.036688 0)
(9.78872 0.051368 0)
(9.77467 0.113344 0)
(9.98383 -0.0112024 0)
(9.9863 0.0323999 0)
(10.02 0.0434631 0)
(10.0406 0.0485192 0)
(10.0615 0.0503467 0)
(10.0777 0.0491596 0)
(10.0897 0.0474004 0)
(10.0982 0.0454444 0)
(10.1036 0.0434568 0)
(10.1061 0.0415109 0)
(10.106 0.0396553 0)
(10.1035 0.0379143 0)
(10.0987 0.036341 0)
(10.0917 0.0349865 0)
(10.0823 0.0340843 0)
(10.0706 0.0338155 0)
(10.0547 0.0354605 0)
(10.0366 0.0405097 0)
(10.0016 0.0561257 0)
(10.005 0.110074 0)
(9.98582 -0.00774561 0)
(9.98924 0.0297447 0)
(10.0215 0.0403573 0)
(10.0446 0.0454555 0)
(10.0697 0.0476388 0)
(10.0915 0.0468906 0)
(10.1103 0.0455431 0)
(10.1264 0.0439501 0)
(10.1401 0.0422966 0)
(10.1514 0.0406598 0)
(10.1606 0.0390941 0)
(10.1677 0.0376289 0)
(10.1728 0.036326 0)
(10.1759 0.0352462 0)
(10.1768 0.0346502 0)
(10.1756 0.0347468 0)
(10.1703 0.036907 0)
(10.1637 0.0425878 0)
(10.1431 0.0585669 0)
(10.1603 0.105701 0)
(9.9874 -0.00608736 0)
(9.99173 0.0269889 0)
(10.0225 0.0371521 0)
(10.0466 0.0421886 0)
(10.0738 0.0445248 0)
(10.0986 0.0440754 0)
(10.1214 0.0430312 0)
(10.142 0.041716 0)
(10.1607 0.0403265 0)
(10.1776 0.03894 0)
(10.1926 0.0376137 0)
(10.206 0.0363811 0)
(10.2176 0.0353107 0)
(10.2275 0.0344724 0)
(10.2355 0.0341478 0)
(10.2415 0.0345691 0)
(10.2441 0.037153 0)
(10.2461 0.0432947 0)
(10.2367 0.0591988 0)
(10.2639 0.100604 0)
(9.9888 -0.00484101 0)
(9.99386 0.0244481 0)
(10.0232 0.0339739 0)
(10.0477 0.0388338 0)
(10.0759 0.0411881 0)
(10.1025 0.0409436 0)
(10.1276 0.0401266 0)
(10.151 0.0390288 0)
(10.1728 0.0378517 0)
(10.1931 0.0366703 0)
(10.212 0.035543 0)
(10.2294 0.0345059 0)
(10.2453 0.0336332 0)
(10.2598 0.0330028 0)
(10.2725 0.0329107 0)
(10.2837 0.0336106 0)
(10.2918 0.0365239 0)
(10.3002 0.0429807 0)
(10.2991 0.0584962 0)
(10.3331 0.0951087 0)
(9.99004 -0.00375008 0)
(9.9957 0.022062 0)
(10.0237 0.03083 0)
(10.0483 0.0354381 0)
(10.0771 0.0377264 0)
(10.1047 0.0376236 0)
(10.1312 0.0369804 0)
(10.1563 0.0360571 0)
(10.1802 0.0350551 0)
(10.2028 0.0340454 0)
(10.2241 0.0330864 0)
(10.2442 0.0322162 0)
(10.263 0.0315129 0)
(10.2805 0.0310619 0)
(10.2966 0.0311679 0)
(10.3114 0.0321041 0)
(10.3234 0.0352636 0)
(10.3364 0.04192 0)
(10.3416 0.0568357 0)
(10.3799 0.0894235 0)
(9.99116 -0.00283499 0)
(9.99729 0.0197685 0)
(10.0242 0.0277251 0)
(10.0488 0.0320278 0)
(10.0778 0.0341945 0)
(10.106 0.0341885 0)
(10.1333 0.0336805 0)
(10.1596 0.0329016 0)
(10.1848 0.0320476 0)
(10.2089 0.0311852 0)
(10.2319 0.0303717 0)
(10.2538 0.0296466 0)
(10.2746 0.0290909 0)
(10.2942 0.0287966 0)
(10.3126 0.0290718 0)
(10.3299 0.0302084 0)
(10.3448 0.0335439 0)
(10.3612 0.0403112 0)
(10.3711 0.0544947 0)
(10.412 0.0836813 0)
(9.99214 -0.00209515 0)
(9.99867 0.0175434 0)
(10.0246 0.0246647 0)
(10.0491 0.0286179 0)
(10.0783 0.0306237 0)
(10.1068 0.0306815 0)
(10.1347 0.0302804 0)
(10.1618 0.0296238 0)
(10.1878 0.0288981 0)
(10.213 0.0281652 0)
(10.2371 0.0274801 0)
(10.2602 0.0268839 0)
(10.2824 0.0264588 0)
(10.3036 0.0263031 0)
(10.3235 0.0267239 0)
(10.3427 0.0280307 0)
(10.3598 0.031485 0)
(10.3787 0.0382953 0)
(10.3921 0.0516716 0)
(10.4345 0.0779639 0)
(9.99301 -0.00150887 0)
(9.99989 0.0153738 0)
(10.025 0.0216494 0)
(10.0494 0.0252155 0)
(10.0786 0.0270321 0)
(10.1073 0.0271288 0)
(10.1356 0.0268132 0)
(10.1632 0.0262628 0)
(10.1899 0.025651 0)
(10.2157 0.0250342 0)
(10.2406 0.0244649 0)
(10.2646 0.023985 0)
(10.2878 0.0236773 0)
(10.31 0.0236459 0)
(10.3312 0.0241928 0)
(10.3517 0.0256446 0)
(10.3704 0.0291711 0)
(10.3912 0.0359725 0)
(10.4073 0.0485074 0)
(10.4505 0.0723198 0)
(9.99375 -0.00105318 0)
(10.0009 0.013249 0)
(10.0253 0.018676 0)
(10.0497 0.0218239 0)
(10.0788 0.0234303 0)
(10.1076 0.0235466 0)
(10.1362 0.0233003 0)
(10.1641 0.0228443 0)
(10.1913 0.0223355 0)
(10.2176 0.0218247 0)
(10.2431 0.0213617 0)
(10.2677 0.0209884 0)
(10.2916 0.0207879 0)
(10.3146 0.0208691 0)
(10.3367 0.0215261 0)
(10.3582 0.0231012 0)
(10.3781 0.0266627 0)
(10.4004 0.0334155 0)
(10.4186 0.0451026 0)
(10.462 0.066777 0)
(9.99438 -0.000708089 0)
(10.0018 0.0111597 0)
(10.0257 0.0157398 0)
(10.0499 0.0184437 0)
(10.079 0.0198244 0)
(10.1079 0.0199455 0)
(10.1367 0.0197562 0)
(10.1648 0.0193855 0)
(10.1922 0.0189714 0)
(10.2189 0.0185592 0)
(10.2448 0.0181949 0)
(10.27 0.0179209 0)
(10.2943 0.0178193 0)
(10.3179 0.0180036 0)
(10.3407 0.0187572 0)
(10.363 0.0204374 0)
(10.3838 0.0240038 0)
(10.4072 0.0306776 0)
(10.427 0.0415295 0)
(10.4703 0.0613508 0)
(9.9949 -0.000455329 0)
(10.0026 0.00909771 0)
(10.0259 0.0128353 0)
(10.0501 0.0150744 0)
(10.0791 0.016218 0)
(10.1081 0.0163321 0)
(10.137 0.0161903 0)
(10.1653 0.0158982 0)
(10.1929 0.0155728 0)
(10.2198 0.0152533 0)
(10.246 0.0149821 0)
(10.2715 0.0148015 0)
(10.2963 0.0147922 0)
(10.3203 0.0150718 0)
(10.3435 0.0159106 0)
(10.3664 0.0176802 0)
(10.388 0.0212277 0)
(10.4123 0.0277991 0)
(10.4334 0.037841 0)
(10.4763 0.0560491 0)
(9.99531 -0.000277367 0)
(10.0032 0.00705651 0)
(10.0262 0.00995673 0)
(10.0503 0.0117147 0)
(10.0793 0.0126126 0)
(10.1082 0.012711 0)
(10.1372 0.0126096 0)
(10.1656 0.012391 0)
(10.1934 0.0121495 0)
(10.2205 0.0119185 0)
(10.2469 0.011736 0)
(10.2726 0.0116442 0)
(10.2977 0.011722 0)
(10.322 0.0120902 0)
(10.3456 0.0130049 0)
(10.369 0.0148502 0)
(10.3912 0.01836 0)
(10.416 0.0248115 0)
(10.4382 0.0340767 0)
(10.4806 0.0508753 0)
(9.99562 -0.000157119 0)
(10.0036 0.00503042 0)
(10.0263 0.00709816 0)
(10.0504 0.00836271 0)
(10.0793 0.00900883 0)
(10.1083 0.00908502 0)
(10.1373 0.00901877 0)
(10.1658 0.00887011 0)
(10.1937 0.00870913 0)
(10.221 0.0085633 0)
(10.2475 0.00846629 0)
(10.2734 0.00845984 0)
(10.2986 0.00862035 0)
(10.3232 0.00907179 0)
(10.3471 0.0100542 0)
(10.3708 0.0119635 0)
(10.3934 0.0154209 0)
(10.4188 0.0217392 0)
(10.4418 0.0302661 0)
(10.4836 0.0458307 0)
(9.99582 -7.78453e-05 0)
(10.0039 0.00301459 0)
(10.0265 0.00425382 0)
(10.0505 0.00501646 0)
(10.0794 0.00540674 0)
(10.1083 0.00545618 0)
(10.1374 0.00542154 0)
(10.166 0.00534026 0)
(10.1939 0.00525747 0)
(10.2212 0.00519457 0)
(10.2479 0.00518066 0)
(10.2739 0.00525687 0)
(10.2992 0.00549682 0)
(10.324 0.00602684 0)
(10.3481 0.0070703 0)
(10.372 0.00903336 0)
(10.395 0.0124272 0)
(10.4208 0.0186026 0)
(10.4443 0.0264326 0)
(10.4855 0.0409153 0)
(9.99592 -2.30547e-05 0)
(10.0041 0.0010047 0)
(10.0265 0.001418 0)
(10.0505 0.0016737 0)
(10.0794 0.0018058 0)
(10.1084 0.00182587 0)
(10.1375 0.00182075 0)
(10.166 0.00180538 0)
(10.194 0.00179935 0)
(10.2214 0.00181797 0)
(10.2481 0.00188558 0)
(10.2741 0.00204253 0)
(10.2995 0.00235936 0)
(10.3244 0.00296417 0)
(10.3486 0.00406304 0)
(10.3727 0.00607098 0)
(10.396 0.00939284 0)
(10.422 0.0154184 0)
(10.446 0.0225947 0)
(10.4864 0.036129 0)
(9.99592 2.35908e-05 0)
(10.0041 -0.00100331 0)
(10.0265 -0.00141513 0)
(10.0505 -0.00166808 0)
(10.0794 -0.00179496 0)
(10.1084 -0.00180516 0)
(10.1375 -0.00178149 0)
(10.166 -0.0017315 0)
(10.194 -0.00166133 0)
(10.2214 -0.00156183 0)
(10.2481 -0.00141352 0)
(10.2742 -0.001177 0)
(10.2996 -0.000785118 0)
(10.3245 -0.000108504 0)
(10.3487 0.0010413 0)
(10.373 0.00308645 0)
(10.3964 0.00633048 0)
(10.4226 0.0122013 0)
(10.4469 0.0187679 0)
(10.4865 0.0314718 0)
(9.99582 7.83776e-05 0)
(10.0039 -0.00301322 0)
(10.0265 -0.00425098 0)
(10.0505 -0.00501087 0)
(10.0794 -0.00539595 0)
(10.1083 -0.00543557 0)
(10.1374 -0.00538246 0)
(10.166 -0.00526672 0)
(10.1939 -0.00512008 0)
(10.2213 -0.00493959 0)
(10.2479 -0.0047107 0)
(10.274 -0.00439518 0)
(10.2994 -0.00392945 0)
(10.3242 -0.0031835 0)
(10.3485 -0.00198661 0)
(10.3727 8.91989e-05 0)
(10.3963 0.00325178 0)
(10.4225 0.00896456 0)
(10.447 0.0149658 0)
(10.4858 0.0269448 0)
(9.99562 0.000157644 0)
(10.0036 -0.00502907 0)
(10.0263 -0.00709535 0)
(10.0504 -0.00835718 0)
(10.0793 -0.00899815 0)
(10.1083 -0.0090646 0)
(10.1373 -0.00898005 0)
(10.1658 -0.00879724 0)
(10.1937 -0.00857299 0)
(10.221 -0.0083106 0)
(10.2476 -0.00800052 0)
(10.2735 -0.0076058 0)
(10.2988 -0.00706664 0)
(10.3236 -0.00625297 0)
(10.3478 -0.00501161 0)
(10.372 -0.00291103 0)
(10.3956 0.000168152 0)
(10.4217 0.005721 0)
(10.4464 0.0112013 0)
(10.4842 0.0225501 0)
(9.99531 0.00027788 0)
(10.0032 -0.00705517 0)
(10.0262 -0.00995396 0)
(10.0503 -0.0117092 0)
(10.0793 -0.012602 0)
(10.1082 -0.0126909 0)
(10.1372 -0.0125714 0)
(10.1656 -0.0123192 0)
(10.1934 -0.0120152 0)
(10.2206 -0.0116692 0)
(10.247 -0.0112765 0)
(10.2728 -0.0108017 0)
(10.298 -0.0101889 0)
(10.3226 -0.00930842 0)
(10.3466 -0.00802444 0)
(10.3707 -0.00590365 0)
(10.3942 -0.00290825 0)
(10.4202 0.00248359 0)
(10.4448 0.00748743 0)
(10.4817 0.0182918 0)
(9.9949 0.000455828 0)
(10.0026 -0.00909641 0)
(10.0259 -0.0128326 0)
(10.0501 -0.0150691 0)
(10.0792 -0.0162076 0)
(10.1081 -0.0163124 0)
(10.137 -0.0161529 0)
(10.1653 -0.0158277 0)
(10.1929 -0.015441 0)
(10.2199 -0.0150087 0)
(10.2462 -0.0145311 0)
(10.2717 -0.0139744 0)
(10.2967 -0.0132868 0)
(10.321 -0.0123397 0)
(10.3448 -0.011014 0)
(10.3687 -0.00887682 0)
(10.392 -0.00596367 0)
(10.4177 -0.000733901 0)
(10.4421 0.00383834 0)
(10.478 0.0141758 0)
(9.99438 0.00070857 0)
(10.0018 -0.0111584 0)
(10.0257 -0.0157372 0)
(10.0499 -0.0184385 0)
(10.079 -0.0198144 0)
(10.1079 -0.0199262 0)
(10.1367 -0.0197196 0)
(10.1648 -0.0193167 0)
(10.1923 -0.0188428 0)
(10.219 -0.0183205 0)
(10.245 -0.0177546 0)
(10.2702 -0.0171133 0)
(10.2948 -0.0163488 0)
(10.3188 -0.0153343 0)
(10.3423 -0.0139667 0)
(10.3657 -0.011816 0)
(10.3887 -0.0089822 0)
(10.414 -0.00391468 0)
(10.4381 0.000270376 0)
(10.4728 0.0102113 0)
(9.99375 0.00105364 0)
(10.0009 -0.0132478 0)
(10.0253 -0.0186735 0)
(10.0497 -0.0218189 0)
(10.0788 -0.0234205 0)
(10.1076 -0.023528 0)
(10.1363 -0.0232649 0)
(10.1642 -0.0227776 0)
(10.1913 -0.0222107 0)
(10.2177 -0.021593 0)
(10.2432 -0.0209343 0)
(10.2681 -0.0202044 0)
(10.2922 -0.0193597 0)
(10.3157 -0.018276 0)
(10.3386 -0.0168651 0)
(10.3615 -0.0147025 0)
(10.384 -0.0119437 0)
(10.4087 -0.00703856 0)
(10.4323 -0.00319596 0)
(10.4656 0.00641135 0)
(9.99301 0.0015093 0)
(9.99989 -0.0153726 0)
(10.025 -0.0216469 0)
(10.0494 -0.0252107 0)
(10.0786 -0.0270227 0)
(10.1073 -0.0271108 0)
(10.1356 -0.026779 0)
(10.1632 -0.0261985 0)
(10.1899 -0.0255307 0)
(10.2158 -0.0248108 0)
(10.2408 -0.0240528 0)
(10.265 -0.0232288 0)
(10.2885 -0.0222991 0)
(10.3113 -0.0211429 0)
(10.3335 -0.0196857 0)
(10.3556 -0.0175119 0)
(10.3774 -0.0148221 0)
(10.4012 -0.0100793 0)
(10.424 -0.00653363 0)
(10.4557 0.00279485 0)
(9.99214 0.00209557 0)
(9.99867 -0.0175423 0)
(10.0246 -0.0246624 0)
(10.0491 -0.0286133 0)
(10.0783 -0.0306147 0)
(10.1068 -0.0306644 0)
(10.1347 -0.0302478 0)
(10.1618 -0.0295623 0)
(10.1879 -0.028783 0)
(10.2131 -0.0279514 0)
(10.2373 -0.0270856 0)
(10.2606 -0.0261599 0)
(10.2832 -0.0251385 0)
(10.305 -0.0239046 0)
(10.3261 -0.0223965 0)
(10.3472 -0.0202104 0)
(10.3679 -0.0175816 0)
(10.3905 -0.0130014 0)
(10.4122 -0.00970677 0)
(10.442 -0.000611803 0)
(9.99116 0.00283537 0)
(9.99729 -0.0197674 0)
(10.0242 -0.0277229 0)
(10.0488 -0.0320235 0)
(10.0778 -0.034186 0)
(10.106 -0.0341723 0)
(10.1334 -0.0336496 0)
(10.1597 -0.0328432 0)
(10.1849 -0.0319384 0)
(10.2091 -0.0309823 0)
(10.2321 -0.0299971 0)
(10.2543 -0.0289594 0)
(10.2754 -0.0278369 0)
(10.2958 -0.0265178 0)
(10.3155 -0.0249517 0)
(10.335 -0.0227501 0)
(10.3542 -0.0201725 0)
(10.375 -0.0157548 0)
(10.3952 -0.0126652 0)
(10.4226 -0.00376979 0)
(9.99004 0.00375043 0)
(9.9957 -0.022061 0)
(10.0237 -0.0308279 0)
(10.0483 -0.035434 0)
(10.0771 -0.0377185 0)
(10.1047 -0.0376083 0)
(10.1312 -0.0369513 0)
(10.1564 -0.0360024 0)
(10.1803 -0.0349525 0)
(10.2029 -0.0338549 0)
(10.2244 -0.0327345 0)
(10.2447 -0.0315704 0)
(10.264 -0.0303339 0)
(10.2823 -0.0289187 0)
(10.2999 -0.0272843 0)
(10.3172 -0.0250616 0)
(10.3341 -0.0225232 0)
(10.3525 -0.0182677 0)
(10.3704 -0.0153378 0)
(10.3946 -0.00662483 0)
(9.9888 0.00484134 0)
(9.99386 -0.0244472 0)
(10.0232 -0.033972 0)
(10.0477 -0.03883 0)
(10.0759 -0.0411807 0)
(10.1025 -0.0409295 0)
(10.1276 -0.0400997 0)
(10.151 -0.038978 0)
(10.1729 -0.0377565 0)
(10.1933 -0.0364935 0)
(10.2123 -0.0352164 0)
(10.23 -0.0339065 0)
(10.2464 -0.0325382 0)
(10.2618 -0.0310118 0)
(10.2762 -0.0292953 0)
(10.2903 -0.0270427 0)
(10.3039 -0.0245289 0)
(10.3189 -0.020435 0)
(10.3335 -0.0176227 0)
(10.3535 -0.00909911 0)
(9.9874 0.00608765 0)
(9.99173 -0.0269881 0)
(10.0225 -0.0371504 0)
(10.0466 -0.0421852 0)
(10.0738 -0.0445181 0)
(10.0987 -0.0440625 0)
(10.1214 -0.0430066 0)
(10.1421 -0.0416696 0)
(10.1608 -0.0402395 0)
(10.1777 -0.0387784 0)
(10.193 -0.0373152 0)
(10.2066 -0.0358332 0)
(10.2188 -0.0343094 0)
(10.2298 -0.0326517 0)
(10.2396 -0.0308347 0)
(10.2489 -0.0285403 0)
(10.2577 -0.0260355 0)
(10.2677 -0.022103 0)
(10.2775 -0.0193733 0)
(10.292 -0.0110819 0)
(9.98582 0.00774587 0)
(9.98924 -0.029744 0)
(10.0215 -0.0403558 0)
(10.0446 -0.0454524 0)
(10.0697 -0.0476328 0)
(10.0915 -0.046879 0)
(10.1103 -0.0455211 0)
(10.1265 -0.0439086 0)
(10.1402 -0.0422187 0)
(10.1516 -0.0405151 0)
(10.161 -0.0388267 0)
(10.1684 -0.0371382 0)
(10.1742 -0.0354288 0)
(10.1784 -0.0336149 0)
(10.1814 -0.0316767 0)
(10.1838 -0.0293277 0)
(10.1856 -0.0268187 0)
(10.1886 -0.0230524 0)
(10.1916 -0.0203853 0)
(10.1988 -0.012422 0)
(9.98383 0.0112027 0)
(9.9863 -0.0323992 0)
(10.02 -0.0434617 0)
(10.0406 -0.0485165 0)
(10.0615 -0.0503414 0)
(10.0778 -0.0491496 0)
(10.0898 -0.0473812 0)
(10.0983 -0.0454082 0)
(10.1037 -0.0433888 0)
(10.1063 -0.0413847 0)
(10.1064 -0.0394221 0)
(10.1043 -0.0374865 0)
(10.1002 -0.035559 0)
(10.0944 -0.0335653 0)
(10.0874 -0.0314902 0)
(10.0798 -0.0290832 0)
(10.0718 -0.0265711 0)
(10.0651 -0.0229923 0)
(10.0591 -0.020399 0)
(10.0569 -0.0129336 0)
(9.98064 0.0190971 0)
(9.98273 -0.0330518 0)
(10.0171 -0.0454806 0)
(10.0322 -0.0508339 0)
(10.0446 -0.0521771 0)
(10.0503 -0.0504126 0)
(10.0502 -0.0481115 0)
(10.0456 -0.0456751 0)
(10.0372 -0.0432432 0)
(10.0254 -0.0408731 0)
(10.0109 -0.0385875 0)
(9.99401 -0.0363719 0)
(9.97525 -0.0342089 0)
(9.9551 -0.0320345 0)
(9.93404 -0.0298367 0)
(9.91287 -0.0274031 0)
(9.89201 -0.0249305 0)
(9.87319 -0.0216025 0)
(9.85599 -0.0191483 0)
(9.84289 -0.0124386 0)
(9.97677 0.00995505 0)
(9.97951 -0.0358718 0)
(10.0107 -0.0463927 0)
(10.0127 -0.0517782 0)
(10.0075 -0.0523467 0)
(9.99296 -0.0498154 0)
(9.971 -0.0468302 0)
(9.94368 -0.0438162 0)
(9.91228 -0.040897 0)
(9.87776 -0.0381236 0)
(9.84099 -0.0355119 0)
(9.80272 -0.0330448 0)
(9.76365 -0.0307029 0)
(9.72445 -0.0284289 0)
(9.68572 -0.0262097 0)
(9.64831 -0.023868 0)
(9.6127 -0.0215636 0)
(9.58055 -0.0186279 0)
(9.5516 -0.0164554 0)
(9.52756 -0.0108373 0)
(9.98592 -0.0647867 0)
(9.98739 -0.0539582 0)
(9.99609 -0.0466667 0)
(9.96459 -0.0490366 0)
(9.92182 -0.0483073 0)
(9.86793 -0.0450919 0)
(9.80665 -0.0415749 0)
(9.7414 -0.0381299 0)
(9.67426 -0.0348798 0)
(9.60675 -0.0318834 0)
(9.54001 -0.0291542 0)
(9.4749 -0.0266688 0)
(9.41205 -0.024398 0)
(9.352 -0.0222823 0)
(9.29513 -0.0202987 0)
(9.24206 -0.0183001 0)
(9.19302 -0.0164015 0)
(9.14938 -0.0140857 0)
(9.1108 -0.0123995 0)
(9.07809 -0.0082259 0)
(10.0849 -0.478749 0)
(10.0344 -0.240672 0)
(9.95143 -0.121066 0)
(9.83222 -0.0740851 0)
(9.70929 -0.0511803 0)
(9.58342 -0.0383553 0)
(9.45938 -0.0308062 0)
(9.34082 -0.0258985 0)
(9.2293 -0.0223819 0)
(9.12537 -0.0196773 0)
(9.02906 -0.0174957 0)
(8.94014 -0.0156717 0)
(8.85823 -0.014107 0)
(8.78299 -0.0127192 0)
(8.71404 -0.0114695 0)
(8.6514 -0.0102497 0)
(8.59478 -0.00912908 0)
(8.54512 -0.00777314 0)
(8.50189 -0.00683895 0)
(8.46488 -0.00448203 0)
(9.90551 2.50646 0)
(10.0226 0.70626 0)
(9.72552 0.223989 0)
(9.42265 0.0645979 0)
(9.16919 0.00928008 0)
(8.95396 -0.00924159 0)
(8.77017 -0.0146279 0)
(8.61239 -0.0153053 0)
(8.47557 -0.0143841 0)
(8.35568 -0.0130315 0)
(8.24967 -0.0116708 0)
(8.15524 -0.010433 0)
(8.07062 -0.00934343 0)
(7.99453 -0.00837975 0)
(7.92597 -0.0075257 0)
(7.86448 -0.00671327 0)
(7.8095 -0.00598501 0)
(7.76162 -0.00513173 0)
(7.7203 -0.00451885 0)
(7.68462 -0.00317211 0)
(6.45286 -0.340583 0)
(5.78031 -0.196981 0)
(5.5948 -0.164055 0)
(5.51187 -0.149702 0)
(5.48757 -0.139729 0)
(5.50102 -0.133413 0)
(5.53232 -0.129396 0)
(5.57224 -0.127683 0)
(5.61672 -0.128166 0)
(5.66343 -0.130652 0)
(5.711 -0.134953 0)
(5.75857 -0.140873 0)
(5.8056 -0.148239 0)
(5.85174 -0.156923 0)
(5.89672 -0.166795 0)
(5.94038 -0.177732 0)
(5.98258 -0.189635 0)
(6.02324 -0.2024 0)
(6.06229 -0.215934 0)
(6.09967 -0.230145 0)
(6.13534 -0.244935 0)
(6.16924 -0.260205 0)
(6.20135 -0.275851 0)
(6.23162 -0.291767 0)
(6.26001 -0.307839 0)
(6.2865 -0.323953 0)
(6.31104 -0.339989 0)
(6.33361 -0.355822 0)
(6.35418 -0.371325 0)
(6.37271 -0.386366 0)
(6.3892 -0.400807 0)
(6.40362 -0.414514 0)
(6.41598 -0.427348 0)
(6.42628 -0.439175 0)
(6.43456 -0.449865 0)
(6.44086 -0.459298 0)
(6.44523 -0.467361 0)
(6.44777 -0.473958 0)
(6.44856 -0.479008 0)
(6.44773 -0.48245 0)
(6.44542 -0.484246 0)
(6.44178 -0.484382 0)
(6.43699 -0.482869 0)
(6.43123 -0.479748 0)
(6.4247 -0.475089 0)
(6.41761 -0.46899 0)
(6.41016 -0.461577 0)
(6.40257 -0.453005 0)
(6.39503 -0.443456 0)
(6.38775 -0.433136 0)
(6.38091 -0.422271 0)
(6.37469 -0.41111 0)
(6.36923 -0.399912 0)
(6.36467 -0.38895 0)
(6.3611 -0.378504 0)
(6.35862 -0.368855 0)
(6.35727 -0.360281 0)
(6.35709 -0.353054 0)
(6.35807 -0.347432 0)
(6.36018 -0.343658 0)
(6.36338 -0.341951 0)
(6.36759 -0.342506 0)
(6.37272 -0.345488 0)
(6.37866 -0.35103 0)
(6.38529 -0.359227 0)
(6.39248 -0.370139 0)
(6.40009 -0.383786 0)
(6.40797 -0.400149 0)
(6.41598 -0.41917 0)
(6.42397 -0.440751 0)
(6.43181 -0.464758 0)
(6.43936 -0.491022 0)
(6.44648 -0.519343 0)
(6.45306 -0.54949 0)
(6.45898 -0.581208 0)
(6.46413 -0.614219 0)
(6.46843 -0.648229 0)
(6.47179 -0.682932 0)
(6.47415 -0.718012 0)
(6.47543 -0.75315 0)
(6.4756 -0.788028 0)
(6.47462 -0.822335 0)
(6.47248 -0.855767 0)
(6.46915 -0.888037 0)
(6.46465 -0.918874 0)
(6.459 -0.94803 0)
(6.45221 -0.975278 0)
(6.44434 -1.00042 0)
(6.43543 -1.02329 0)
(6.42554 -1.04374 0)
(6.41475 -1.06166 0)
(6.40312 -1.07698 0)
(6.39075 -1.08964 0)
(6.37771 -1.09962 0)
(6.36411 -1.10692 0)
(6.35002 -1.11158 0)
(6.33554 -1.11366 0)
(6.32077 -1.11322 0)
(6.30579 -1.11036 0)
(6.29069 -1.10518 0)
(6.27554 -1.09781 0)
(6.26043 -1.08838 0)
(6.24542 -1.07702 0)
(6.23057 -1.06388 0)
(6.21596 -1.04909 0)
(6.20161 -1.03281 0)
(6.18758 -1.01518 0)
(6.17391 -0.996335 0)
(6.16061 -0.976414 0)
(6.14772 -0.955549 0)
(6.13525 -0.933865 0)
(6.1232 -0.911481 0)
(6.11159 -0.888509 0)
(6.10041 -0.865054 0)
(6.08965 -0.841212 0)
(6.0793 -0.817075 0)
(6.06936 -0.792725 0)
(6.05979 -0.768237 0)
(6.0506 -0.743681 0)
(6.04174 -0.719118 0)
(6.0332 -0.694605 0)
(6.02496 -0.670191 0)
(6.01698 -0.645921 0)
(6.00924 -0.621833 0)
(6.00173 -0.597961 0)
(5.99439 -0.574335 0)
(5.98722 -0.550979 0)
(5.98019 -0.527914 0)
(5.97327 -0.505156 0)
(5.96643 -0.482718 0)
(5.95965 -0.460609 0)
(5.95291 -0.438836 0)
(5.94619 -0.417402 0)
(5.93946 -0.396305 0)
(5.93271 -0.375545 0)
(5.92591 -0.355113 0)
(5.91905 -0.335003 0)
(5.91211 -0.315203 0)
(5.90507 -0.295699 0)
(5.89792 -0.276476 0)
(5.89064 -0.257514 0)
(5.88323 -0.238791 0)
(5.87566 -0.220286 0)
(5.86793 -0.20197 0)
(5.86002 -0.183814 0)
(5.85193 -0.165788 0)
(5.84365 -0.147856 0)
(5.83516 -0.129979 0)
(5.82647 -0.112118 0)
(5.81757 -0.0942271 0)
(5.80845 -0.076258 0)
(5.79912 -0.0581579 0)
(5.78956 -0.0398688 0)
(5.77978 -0.0213296 0)
(5.76978 -0.00247361 0)
(5.75955 0.0167936 0)
(5.74906 0.0365639 0)
(5.73833 0.0569213 0)
(5.72736 0.0779578 0)
(5.71615 0.0997738 0)
(5.7047 0.122478 0)
(5.69303 0.146189 0)
(5.68115 0.171036 0)
(5.66906 0.197158 0)
(5.65678 0.22471 0)
(5.64434 0.253858 0)
(5.63175 0.284787 0)
(5.61905 0.317697 0)
(5.60625 0.352812 0)
(5.5934 0.390375 0)
(5.58054 0.43066 0)
(5.56772 0.473967 0)
(5.55498 0.520636 0)
(5.54239 0.571045 0)
(5.53003 0.625622 0)
(5.51796 0.684855 0)
(5.5063 0.749301 0)
(5.49513 0.819601 0)
(5.48458 0.896501 0)
(5.47478 0.980872 0)
(5.46588 1.07374 0)
(5.458 1.17634 0)
(5.4513 1.29012 0)
(5.44586 1.41684 0)
(5.44172 1.55862 0)
(5.43878 1.71796 0)
(5.43671 1.89783 0)
(5.43483 2.10161 0)
(5.43195 2.33309 0)
(5.42624 2.59632 0)
(5.41517 2.89556 0)
(5.39551 3.23541 0)
(5.36343 3.62118 0)
(5.31485 4.05968 0)
(5.24558 4.55982 0)
(5.15158 5.13242 0)
(5.03359 5.78664 0)
(4.8808 6.52802 0)
(4.81681 7.42568 0)
(4.5674 9.47769 0)
(8.17671 0.0345184 0)
(7.87321 0.0610526 0)
(7.58545 0.000911599 0)
(7.31063 -0.0543173 0)
(7.09545 -0.0868144 0)
(6.94448 -0.105879 0)
(6.84272 -0.117317 0)
(6.77564 -0.124969 0)
(6.73305 -0.131185 0)
(6.70777 -0.13727 0)
(6.69483 -0.143873 0)
(6.69076 -0.151279 0)
(6.69317 -0.159594 0)
(6.70029 -0.168845 0)
(6.71085 -0.179011 0)
(6.72387 -0.190041 0)
(6.7386 -0.20188 0)
(6.75444 -0.214461 0)
(6.77094 -0.227713 0)
(6.7877 -0.241561 0)
(6.80441 -0.255921 0)
(6.82079 -0.270703 0)
(6.83662 -0.285811 0)
(6.85169 -0.301144 0)
(6.86585 -0.316596 0)
(6.87893 -0.332054 0)
(6.89081 -0.347403 0)
(6.90138 -0.362521 0)
(6.91052 -0.377285 0)
(6.91817 -0.391566 0)
(6.92423 -0.405233 0)
(6.92867 -0.418154 0)
(6.93144 -0.430198 0)
(6.93252 -0.441238 0)
(6.93191 -0.451152 0)
(6.92963 -0.459826 0)
(6.92573 -0.467156 0)
(6.92026 -0.473055 0)
(6.9133 -0.47745 0)
(6.90497 -0.480289 0)
(6.89539 -0.481541 0)
(6.8847 -0.481199 0)
(6.87305 -0.479282 0)
(6.86063 -0.475835 0)
(6.84762 -0.470931 0)
(6.83421 -0.464671 0)
(6.8206 -0.457182 0)
(6.80698 -0.44862 0)
(6.79356 -0.439163 0)
(6.78051 -0.429012 0)
(6.76802 -0.418391 0)
(6.75624 -0.407539 0)
(6.74533 -0.396708 0)
(6.73541 -0.386161 0)
(6.72657 -0.376168 0)
(6.7189 -0.367 0)
(6.71245 -0.358923 0)
(6.70724 -0.352198 0)
(6.70327 -0.347073 0)
(6.70052 -0.343779 0)
(6.69893 -0.342526 0)
(6.69844 -0.3435 0)
(6.69893 -0.346859 0)
(6.70032 -0.352727 0)
(6.70246 -0.361196 0)
(6.70523 -0.372322 0)
(6.70847 -0.386122 0)
(6.71204 -0.402575 0)
(6.71577 -0.421622 0)
(6.71952 -0.443168 0)
(6.72313 -0.467079 0)
(6.72646 -0.49319 0)
(6.72936 -0.521301 0)
(6.7317 -0.551188 0)
(6.73335 -0.582597 0)
(6.7342 -0.615258 0)
(6.73416 -0.648879 0)
(6.73312 -0.68316 0)
(6.73101 -0.717789 0)
(6.72778 -0.752455 0)
(6.72337 -0.786844 0)
(6.71774 -0.82065 0)
(6.71088 -0.853577 0)
(6.70278 -0.885342 0)
(6.69345 -0.915681 0)
(6.68292 -0.944349 0)
(6.67121 -0.971126 0)
(6.65837 -0.99582 0)
(6.64448 -1.01826 0)
(6.62958 -1.03832 0)
(6.61378 -1.05588 0)
(6.59714 -1.07087 0)
(6.57977 -1.08324 0)
(6.56176 -1.09297 0)
(6.54322 -1.10007 0)
(6.52424 -1.10456 0)
(6.50492 -1.10651 0)
(6.48537 -1.10598 0)
(6.46569 -1.10307 0)
(6.44596 -1.09788 0)
(6.42627 -1.09053 0)
(6.40671 -1.08115 0)
(6.38735 -1.06988 0)
(6.36826 -1.05684 0)
(6.34951 -1.04218 0)
(6.33113 -1.02605 0)
(6.31318 -1.00859 0)
(6.2957 -0.98992 0)
(6.27871 -0.970188 0)
(6.26223 -0.949521 0)
(6.24629 -0.928039 0)
(6.23088 -0.905859 0)
(6.21602 -0.883092 0)
(6.2017 -0.859839 0)
(6.1879 -0.836197 0)
(6.17463 -0.812253 0)
(6.16186 -0.788088 0)
(6.14957 -0.763779 0)
(6.13775 -0.739391 0)
(6.12636 -0.714986 0)
(6.11538 -0.690621 0)
(6.10479 -0.666343 0)
(6.09455 -0.642198 0)
(6.08463 -0.618223 0)
(6.07502 -0.594453 0)
(6.06567 -0.570917 0)
(6.05657 -0.54764 0)
(6.04767 -0.524642 0)
(6.03897 -0.50194 0)
(6.03042 -0.479548 0)
(6.022 -0.457475 0)
(6.01369 -0.435727 0)
(6.00546 -0.414309 0)
(5.99729 -0.39322 0)
(5.98916 -0.372458 0)
(5.98105 -0.352017 0)
(5.97294 -0.33189 0)
(5.96481 -0.312065 0)
(5.95664 -0.29253 0)
(5.94842 -0.273268 0)
(5.94013 -0.254261 0)
(5.93175 -0.235489 0)
(5.92328 -0.216929 0)
(5.9147 -0.198553 0)
(5.90599 -0.180333 0)
(5.89715 -0.162238 0)
(5.88818 -0.144234 0)
(5.87905 -0.126283 0)
(5.86976 -0.108344 0)
(5.86031 -0.0903735 0)
(5.85069 -0.0723231 0)
(5.8409 -0.0541407 0)
(5.83094 -0.0357682 0)
(5.8208 -0.017147 0)
(5.81049 0.00179707 0)
(5.79998 0.021157 0)
(5.78926 0.0410201 0)
(5.77835 0.0614698 0)
(5.76725 0.0825974 0)
(5.75595 0.104502 0)
(5.74447 0.127292 0)
(5.73281 0.151084 0)
(5.721 0.176005 0)
(5.70904 0.202196 0)
(5.69696 0.229808 0)
(5.68478 0.259007 0)
(5.67253 0.289975 0)
(5.66023 0.322912 0)
(5.64793 0.358038 0)
(5.63568 0.395596 0)
(5.6235 0.435854 0)
(5.61147 0.479112 0)
(5.59966 0.525704 0)
(5.58812 0.576006 0)
(5.57695 0.630442 0)
(5.56625 0.689493 0)
(5.55614 0.75371 0)
(5.54673 0.823729 0)
(5.53819 0.900288 0)
(5.53068 0.984253 0)
(5.52439 1.07665 0)
(5.51952 1.17869 0)
(5.51631 1.29185 0)
(5.51495 1.41789 0)
(5.51564 1.55897 0)
(5.51846 1.71766 0)
(5.52334 1.89702 0)
(5.5299 2.10061 0)
(5.53737 2.33243 0)
(5.54441 2.59681 0)
(5.5491 2.89826 0)
(5.54907 3.24157 0)
(5.54182 3.63211 0)
(5.52538 4.07653 0)
(5.49925 4.58325 0)
(5.46607 5.16148 0)
(5.43774 5.81843 0)
(5.43319 6.54701 0)
(5.57159 7.39472 0)
(5.87243 8.68025 0)
(8.95148 0.104008 0)
(8.87829 0.120537 0)
(8.7767 0.0876914 0)
(8.63049 0.0433142 0)
(8.45216 0.00396905 0)
(8.27336 -0.0301308 0)
(8.1142 -0.058454 0)
(7.97929 -0.0809991 0)
(7.8688 -0.0990608 0)
(7.78016 -0.114166 0)
(7.70986 -0.127521 0)
(7.65449 -0.139979 0)
(7.61114 -0.152093 0)
(7.57739 -0.16422 0)
(7.5513 -0.176569 0)
(7.53132 -0.189258 0)
(7.51619 -0.202348 0)
(7.50489 -0.215856 0)
(7.49659 -0.229775 0)
(7.49059 -0.244074 0)
(7.48631 -0.258706 0)
(7.48326 -0.27361 0)
(7.48102 -0.288713 0)
(7.47924 -0.303932 0)
(7.47761 -0.319173 0)
(7.47586 -0.334339 0)
(7.47376 -0.349324 0)
(7.47109 -0.364017 0)
(7.4677 -0.378301 0)
(7.46343 -0.392057 0)
(7.45815 -0.405162 0)
(7.45176 -0.417492 0)
(7.44418 -0.428927 0)
(7.43536 -0.439346 0)
(7.42527 -0.448637 0)
(7.4139 -0.456695 0)
(7.40127 -0.463428 0)
(7.38741 -0.468755 0)
(7.3724 -0.472614 0)
(7.35631 -0.474961 0)
(7.33926 -0.475774 0)
(7.32137 -0.475053 0)
(7.30279 -0.472823 0)
(7.28366 -0.469136 0)
(7.26417 -0.464067 0)
(7.24448 -0.45772 0)
(7.22477 -0.450225 0)
(7.20524 -0.441735 0)
(7.18606 -0.432427 0)
(7.1674 -0.4225 0)
(7.14943 -0.412171 0)
(7.13229 -0.401672 0)
(7.11612 -0.391249 0)
(7.10104 -0.381157 0)
(7.08713 -0.371655 0)
(7.07447 -0.363003 0)
(7.0631 -0.355458 0)
(7.05305 -0.349269 0)
(7.04429 -0.344673 0)
(7.03682 -0.341892 0)
(7.03056 -0.341127 0)
(7.02545 -0.342553 0)
(7.02139 -0.34632 0)
(7.01827 -0.352546 0)
(7.01595 -0.361318 0)
(7.01429 -0.372686 0)
(7.01314 -0.386664 0)
(7.01234 -0.40323 0)
(7.01174 -0.422323 0)
(7.01116 -0.443849 0)
(7.01045 -0.467675 0)
(7.00945 -0.493638 0)
(7.00801 -0.521543 0)
(7.00599 -0.551166 0)
(7.00326 -0.58226 0)
(6.99969 -0.614558 0)
(6.99518 -0.647776 0)
(6.98963 -0.681617 0)
(6.98297 -0.715776 0)
(6.97512 -0.749948 0)
(6.96603 -0.783825 0)
(6.95568 -0.817108 0)
(6.94404 -0.849506 0)
(6.93112 -0.880744 0)
(6.91692 -0.910563 0)
(6.90147 -0.938724 0)
(6.88482 -0.965015 0)
(6.86703 -0.989245 0)
(6.84816 -1.01125 0)
(6.82829 -1.03091 0)
(6.80751 -1.04811 0)
(6.78592 -1.06277 0)
(6.76361 -1.07486 0)
(6.74071 -1.08435 0)
(6.71731 -1.09125 0)
(6.69353 -1.09559 0)
(6.66947 -1.09743 0)
(6.64526 -1.09684 0)
(6.62098 -1.0939 0)
(6.59675 -1.08873 0)
(6.57265 -1.08144 0)
(6.54877 -1.07214 0)
(6.52519 -1.06098 0)
(6.50198 -1.04809 0)
(6.47921 -1.0336 0)
(6.45694 -1.01766 0)
(6.43519 -1.0004 0)
(6.41403 -0.98196 0)
(6.39346 -0.962461 0)
(6.37353 -0.942034 0)
(6.35423 -0.920797 0)
(6.33558 -0.898865 0)
(6.31758 -0.876344 0)
(6.30022 -0.853336 0)
(6.28349 -0.829933 0)
(6.26738 -0.806223 0)
(6.25188 -0.782284 0)
(6.23695 -0.758191 0)
(6.22257 -0.73401 0)
(6.20872 -0.709801 0)