/*--------------------------------*- C++ -*----------------------------------*\
| =========                 |                                                 |
| \\      /  F ield         | OpenFOAM: The Open Source CFD Toolbox           |
|  \\    /   O peration     | Version:  2.4.0                                 |
|   \\  /    A nd           | Web:      www.OpenFOAM.org                      |
|    \\/     M anipulation  |                                                 |
\*---------------------------------------------------------------------------*/
FoamFile
{
    version     2.0;
    format      ascii;
    class       volVectorField;
    location    "0.006";
    object      UMean;
}
// * * * * * * * * * * * * * * * * * * * * * * * * * * * * * * * * * * * * * //

dimensions      [0 1 -1 0 0 0 0];

internalField   nonuniform List<vector> 
17600
(
(9.91436 -2.50449 0)
(9.95014 -0.689694 0)
(9.58774 -0.21893 0)
(9.26828 -0.0587012 0)
(8.99653 -0.00782471 0)
(8.77449 0.0102468 0)
(8.58103 0.0154318 0)
(8.41824 0.0157173 0)
(8.27812 0.0145057 0)
(8.15695 0.0129576 0)
(8.05103 0.0114552 0)
(7.95853 0.0100922 0)
(7.8766 0.0090422 0)
(7.80361 0.00795231 0)
(7.73972 0.00709122 0)
(7.68716 0.00602085 0)
(7.63543 0.00535384 0)
(7.61561 0.0015691 0)
(7.54254 -0.000102779 0)
(7.89786 -0.0504058 0)
(10.0889 0.484755 0)
(9.99897 0.255842 0)
(9.84946 0.124679 0)
(9.71096 0.0803309 0)
(9.56696 0.0538294 0)
(9.42636 0.0403755 0)
(9.29054 0.0322926 0)
(9.16429 0.0267983 0)
(9.04788 0.0228011 0)
(8.94134 0.0197464 0)
(8.84419 0.0172975 0)
(8.75641 0.0152249 0)
(8.67696 0.0135667 0)
(8.6055 0.0119483 0)
(8.54127 0.0105671 0)
(8.48786 0.00893727 0)
(8.43699 0.00772973 0)
(8.41622 0.00325466 0)
(8.35115 -0.00343744 0)
(8.59695 0.0617707 0)
(9.98206 0.0788851 0)
(9.9678 0.0761288 0)
(9.91946 0.0560797 0)
(9.86682 0.0594046 0)
(9.80093 0.0534175 0)
(9.7301 0.0490367 0)
(9.65598 0.0444024 0)
(9.58176 0.0399698 0)
(9.50847 0.0358695 0)
(9.43704 0.0322375 0)
(9.3682 0.0290112 0)
(9.30297 0.0260679 0)
(9.24138 0.023481 0)
(9.18414 0.0209355 0)
(9.13098 0.0186163 0)
(9.08603 0.0158433 0)
(9.04279 0.0131679 0)
(9.02658 0.00679279 0)
(8.97593 -0.00607186 0)
(9.15935 0.0287595 0)
(9.96578 0.00467019 0)
(9.96738 0.0600242 0)
(9.95392 0.0585879 0)
(9.93785 0.0650776 0)
(9.91074 0.0596755 0)
(9.8802 0.0556159 0)
(9.84597 0.0510054 0)
(9.80978 0.0466565 0)
(9.77185 0.0425778 0)
(9.73272 0.0389201 0)
(9.69288 0.0356005 0)
(9.65332 0.0324801 0)
(9.61413 0.0296106 0)
(9.57635 0.0267215 0)
(9.53989 0.0239318 0)
(9.50891 0.0204857 0)
(9.47818 0.0166421 0)
(9.47087 0.00888859 0)
(9.43637 -0.0095672 0)
(9.58413 0.00721288 0)
(9.96448 -0.00490301 0)
(9.97556 0.0585887 0)
(9.97631 0.0601454 0)
(9.97851 0.0667246 0)
(9.97181 0.0616162 0)
(9.96386 0.0579519 0)
(9.95308 0.0535452 0)
(9.94057 0.0494703 0)
(9.92604 0.0456262 0)
(9.9097 0.04217 0)
(9.89174 0.0390033 0)
(9.8729 0.0359741 0)
(9.85304 0.0331025 0)
(9.83314 0.0301503 0)
(9.81309 0.0271564 0)
(9.79677 0.0233094 0)
(9.77966 0.0185392 0)
(9.78287 0.00963119 0)
(9.76411 -0.0131649 0)
(9.88932 -0.00897266 0)
(9.96413 0.00256591 0)
(9.98374 0.058681 0)
(9.9928 0.0600826 0)
(10.0063 0.0664205 0)
(10.0117 0.0615343 0)
(10.0172 0.0581327 0)
(10.0205 0.0538702 0)
(10.0225 0.0500259 0)
(10.0227 0.0464059 0)
(10.0212 0.0431665 0)
(10.018 0.0401924 0)
(10.0137 0.0373233 0)
(10.008 0.0345464 0)
(10.0018 0.0316394 0)
(9.99492 0.0285626 0)
(9.99088 0.0244587 0)
(9.98561 0.018924 0)
(9.99827 0.00899274 0)
(9.99276 -0.0171674 0)
(10.1016 -0.0222244 0)
(9.96375 0.00577748 0)
(9.99141 0.0561154 0)
(10.006 0.0582972 0)
(10.0276 0.0647496 0)
(10.0409 0.0601494 0)
(10.0551 0.056967 0)
(10.0673 0.0528309 0)
(10.0785 0.049183 0)
(10.0881 0.045762 0)
(10.0962 0.0427205 0)
(10.1027 0.0399289 0)
(10.1082 0.0372233 0)
(10.1123 0.0345594 0)
(10.1157 0.0317243 0)
(10.1184 0.028603 0)
(10.1235 0.0243037 0)
(10.1272 0.0180992 0)
(10.147 0.00725208 0)
(10.1512 -0.0215328 0)
(10.2464 -0.0336224 0)
(9.96381 0.00720715 0)
(9.99861 0.052909 0)
(10.017 0.0557643 0)
(10.0447 0.0622527 0)
(10.0638 0.0579208 0)
(10.0841 0.054915 0)
(10.1024 0.0508968 0)
(10.1198 0.0474235 0)
(10.1356 0.0441826 0)
(10.1501 0.0413214 0)
(10.1631 0.0386967 0)
(10.1751 0.0361434 0)
(10.1858 0.0335921 0)
(10.1958 0.0308298 0)
(10.2051 0.0276726 0)
(10.2166 0.0232088 0)
(10.2267 0.0164039 0)
(10.2511 0.00476701 0)
(10.2616 -0.0260242 0)
(10.3443 -0.0432937 0)
(9.96427 0.00813914 0)
(10.0052 0.0495307 0)
(10.0261 0.0527171 0)
(10.0587 0.0591049 0)
(10.0824 0.0550545 0)
(10.1074 0.0522213 0)
(10.13 0.0483367 0)
(10.1517 0.0450347 0)
(10.1719 0.0419675 0)
(10.1907 0.0392772 0)
(10.2082 0.0368092 0)
(10.2247 0.0343992 0)
(10.2399 0.0319559 0)
(10.2545 0.0292642 0)
(10.2684 0.0260751 0)
(10.2842 0.0214718 0)
(10.2986 0.0141367 0)
(10.3257 0.00185951 0)
(10.3398 -0.0303821 0)
(10.4107 -0.0513627 0)
(9.96498 0.00877627 0)
(10.011 0.0459937 0)
(10.0335 0.0492704 0)
(10.0703 0.055424 0)
(10.0977 0.0516838 0)
(10.1264 0.0490352 0)
(10.1524 0.0453133 0)
(10.1774 0.0421916 0)
(10.2007 0.0393014 0)
(10.2227 0.0367802 0)
(10.2432 0.0344649 0)
(10.2629 0.0321927 0)
(10.2813 0.0298562 0)
(10.2991 0.0272344 0)
(10.3161 0.0240195 0)
(10.3349 0.0193041 0)
(10.3522 0.011517 0)
(10.3805 -0.00123911 0)
(10.3963 -0.0344269 0)
(10.4562 -0.05798 0)
(9.96583 0.00907064 0)
(10.016 0.04226 0)
(10.0396 0.0454938 0)
(10.0799 0.0513046 0)
(10.1104 0.0478988 0)
(10.1422 0.0454522 0)
(10.1709 0.0419298 0)
(10.1984 0.0390054 0)
(10.2241 0.036302 0)
(10.2484 0.0339535 0)
(10.2713 0.0317918 0)
(10.2932 0.0296566 0)
(10.3139 0.0274271 0)
(10.334 0.0248782 0)
(10.3532 0.0216481 0)
(10.3741 0.0168531 0)
(10.3932 0.00869943 0)
(10.4217 -0.00437366 0)
(10.4377 -0.0380533 0)
(10.4875 -0.0632888 0)
(9.96674 0.00901878 0)
(10.0203 0.0383258 0)
(10.0447 0.0414341 0)
(10.0879 0.0468199 0)
(10.121 0.0437659 0)
(10.1554 0.0415381 0)
(10.1863 0.0382556 0)
(10.2158 0.0355492 0)
(10.2434 0.0330471 0)
(10.2695 0.0308782 0)
(10.2941 0.0288744 0)
(10.3177 0.0268779 0)
(10.3401 0.0247586 0)
(10.3618 0.0222883 0)
(10.3826 0.0190573 0)
(10.4048 0.0142186 0)
(10.425 0.00578985 0)
(10.4531 -0.00744401 0)
(10.4686 -0.0412121 0)
(10.5091 -0.067431 0)
(9.96764 0.0086536 0)
(10.0238 0.03421 0)
(10.0488 0.0371288 0)
(10.0946 0.0420311 0)
(10.1298 0.0393392 0)
(10.1664 0.0373456 0)
(10.1992 0.0343426 0)
(10.2303 0.0318765 0)
(10.2594 0.0295918 0)
(10.2869 0.0276115 0)
(10.3128 0.0257717 0)
(10.3378 0.0239181 0)
(10.3614 0.0219134 0)
(10.3843 0.0195301 0)
(10.4062 0.0163156 0)
(10.4293 0.0114724 0)
(10.4501 0.00286014 0)
(10.4773 -0.0103877 0)
(10.4919 -0.0438904 0)
(10.5241 -0.0705429 0)
(9.96849 0.00801881 0)
(10.0268 0.0299402 0)
(10.0522 0.0326155 0)
(10.1001 0.0369895 0)
(10.1372 0.0346657 0)
(10.1756 0.032919 0)
(10.2099 0.0302321 0)
(10.2424 0.0280272 0)
(10.2726 0.0259769 0)
(10.3012 0.0241948 0)
(10.3282 0.0225262 0)
(10.3541 0.0208208 0)
(10.3787 0.0189368 0)
(10.4025 0.0166503 0)
(10.4252 0.0134717 0)
(10.4488 0.00866353 0)
(10.4698 -4.15822e-05 0)
(10.496 -0.0131666 0)
(10.5093 -0.0460994 0)
(10.5341 -0.0727559 0)
(9.96926 0.00715729 0)
(10.0292 0.0255457 0)
(10.0549 0.0279301 0)
(10.1047 0.0317391 0)
(10.1432 0.0297882 0)
(10.1831 0.0282996 0)
(10.2186 0.0259598 0)
(10.2523 0.024035 0)
(10.2835 0.0222348 0)
(10.3129 0.0206605 0)
(10.3407 0.0191705 0)
(10.3674 0.0176193 0)
(10.3927 0.0158623 0)
(10.4171 0.0136838 0)
(10.4404 0.0105617 0)
(10.4643 0.00582781 0)
(10.4853 -0.00288482 0)
(10.5103 -0.0157635 0)
(10.5222 -0.0478692 0)
(10.5406 -0.0741914 0)
(9.96994 0.00610967 0)
(10.0311 0.0210527 0)
(10.0571 0.0231048 0)
(10.1084 0.0263183 0)
(10.148 0.0247434 0)
(10.1891 0.0235233 0)
(10.2257 0.0215566 0)
(10.2602 0.0199276 0)
(10.2922 0.0183919 0)
(10.3223 0.017034 0)
(10.3507 0.0157295 0)
(10.378 0.0143383 0)
(10.4038 0.0127158 0)
(10.4287 0.0106562 0)
(10.4524 0.0076113 0)
(10.4763 0.00298854 0)
(10.4972 -0.00565061 0)
(10.5209 -0.0181729 0)
(10.5315 -0.0492397 0)
(10.5444 -0.0749595 0)
(9.97049 0.00491373 0)
(10.0325 0.0164843 0)
(10.0588 0.0181685 0)
(10.1113 0.0207611 0)
(10.1517 0.0195666 0)
(10.1938 0.0186244 0)
(10.2312 0.0170505 0)
(10.2663 0.0157304 0)
(10.2989 0.0144708 0)
(10.3296 0.0133367 0)
(10.3584 0.012224 0)
(10.3861 0.0109983 0)
(10.4123 0.0095172 0)
(10.4375 0.00758763 0)
(10.4614 0.00464005 0)
(10.4854 0.00016297 0)
(10.506 -0.00832943 0)
(10.5284 -0.0204017 0)
(10.5378 -0.0502572 0)
(10.546 -0.0751586 0)
(9.97092 0.00360462 0)
(10.0336 0.0118603 0)
(10.0601 0.0131473 0)
(10.1134 0.0150996 0)
(10.1545 0.0142886 0)
(10.1973 0.0136325 0)
(10.2352 0.012467 0)
(10.2709 0.0114654 0)
(10.3039 0.0104914 0)
(10.3349 0.0095868 0)
(10.3641 0.00867115 0)
(10.3921 0.00761563 0)
(10.4185 0.00628326 0)
(10.4439 0.00449397 0)
(10.468 0.00166288 0)
(10.4918 -0.00263758 0)
(10.5121 -0.0109167 0)
(10.5333 -0.02246 0)
(10.5416 -0.0509653 0)
(10.5456 -0.0748746 0)
(9.97122 0.00221553 0)
(10.0343 0.00719781 0)
(10.0609 0.00806604 0)
(10.1148 0.00936384 0)
(10.1563 0.00894071 0)
(10.1996 0.00857627 0)
(10.2379 0.00782944 0)
(10.2739 0.00715331 0)
(10.3071 0.00647149 0)
(10.3384 0.00580073 0)
(10.3678 0.00508645 0)
(10.396 0.00420564 0)
(10.4226 0.00302775 0)
(10.4481 0.00138893 0)
(10.4721 -0.00130786 0)
(10.4957 -0.00540354 0)
(10.5157 -0.0134117 0)
(10.5357 -0.0243628 0)
(10.543 -0.0514068 0)
(10.5436 -0.074183 0)
(9.97137 0.000777934 0)
(10.0346 0.00251269 0)
(10.0614 0.00294836 0)
(10.1156 0.00358344 0)
(10.1573 0.00354952 0)
(10.2008 0.00348059 0)
(10.2392 0.00315918 0)
(10.2754 0.00281251 0)
(10.3088 0.00242746 0)
(10.3402 0.00199333 0)
(10.3697 0.00148377 0)
(10.398 0.000780936 0)
(10.4246 -0.000236129 0)
(10.4501 -0.00171559 0)
(10.4741 -0.00426143 0)
(10.4974 -0.00812819 0)
(10.5169 -0.0158142 0)
(10.5358 -0.0261206 0)
(10.5422 -0.0516172 0)
(10.5399 -0.0731477 0)
(9.97139 -0.000677905 0)
(10.0347 -0.00218202 0)
(10.0614 -0.00218304 0)
(10.1156 -0.00221391 0)
(10.1573 -0.0018576 0)
(10.2009 -0.00162992 0)
(10.2393 -0.00152398 0)
(10.2755 -0.00153952 0)
(10.309 -0.00162592 0)
(10.3404 -0.00182174 0)
(10.3699 -0.00212416 0)
(10.3981 -0.00264565 0)
(10.4247 -0.00349685 0)
(10.4501 -0.00480821 0)
(10.4739 -0.0071879 0)
(10.4968 -0.0108042 0)
(10.5159 -0.0181245 0)
(10.5337 -0.0277454 0)
(10.5393 -0.0516291 0)
(10.5345 -0.071825 0)
(9.97126 -0.00212054 0)
(10.0344 -0.00686961 0)
(10.061 -0.00730359 0)
(10.115 -0.00799842 0)
(10.1565 -0.00725438 0)
(10.1999 -0.00673158 0)
(10.2382 -0.00619968 0)
(10.2742 -0.00588566 0)
(10.3076 -0.00567335 0)
(10.3389 -0.0056305 0)
(10.3683 -0.00572407 0)
(10.3964 -0.00606202 0)
(10.4228 -0.00674221 0)
(10.448 -0.00787805 0)
(10.4715 -0.0100774 0)
(10.4941 -0.013425 0)
(10.5127 -0.0203412 0)
(10.5294 -0.0292441 0)
(10.5342 -0.051468 0)
(10.5273 -0.070262 0)
(9.97098 -0.0035195 0)
(10.0337 -0.0115366 0)
(10.0602 -0.01239 0)
(10.1136 -0.013742 0)
(10.1548 -0.0126132 0)
(10.1977 -0.0117996 0)
(10.2357 -0.0108481 0)
(10.2715 -0.0102085 0)
(10.3046 -0.00969995 0)
(10.3357 -0.00941951 0)
(10.3649 -0.00930333 0)
(10.3928 -0.0094553 0)
(10.419 -0.00996068 0)
(10.4439 -0.0109133 0)
(10.467 -0.0129196 0)
(10.4891 -0.015982 0)
(10.5071 -0.0224625 0)
(10.5227 -0.0306244 0)
(10.5269 -0.051158 0)
(10.5181 -0.0684987 0)
(9.97058 -0.00484312 0)
(10.0327 -0.0161675 0)
(10.059 -0.0174192 0)
(10.1116 -0.0194163 0)
(10.1522 -0.0179081 0)
(10.1945 -0.0168099 0)
(10.2319 -0.0154483 0)
(10.2673 -0.0144899 0)
(10.3 -0.0136897 0)
(10.3307 -0.0131738 0)
(10.3596 -0.0128478 0)
(10.3871 -0.0128125 0)
(10.413 -0.0131389 0)
(10.4374 -0.0139016 0)
(10.4601 -0.0157026 0)
(10.4816 -0.0184664 0)
(10.499 -0.0244837 0)
(10.5136 -0.0318882 0)
(10.5171 -0.0507142 0)
(10.5067 -0.066567 0)
(9.97004 -0.00605811 0)
(10.0313 -0.0207451 0)
(10.0574 -0.0223666 0)
(10.1088 -0.0249906 0)
(10.1486 -0.0231088 0)
(10.19 -0.0217346 0)
(10.2267 -0.0199775 0)
(10.2614 -0.0187095 0)
(10.2936 -0.0176248 0)
(10.3238 -0.0168771 0)
(10.3522 -0.0163422 0)
(10.3793 -0.0161184 0)
(10.4047 -0.0162621 0)
(10.4286 -0.0168284 0)
(10.4507 -0.0184131 0)
(10.4715 -0.0208663 0)
(10.4882 -0.0263982 0)
(10.5016 -0.0330372 0)
(10.5045 -0.0501495 0)
(10.4927 -0.0644898 0)
(9.96939 -0.00712913 0)
(10.0294 -0.0252499 0)
(10.0553 -0.0272067 0)
(10.1052 -0.0304349 0)
(10.1439 -0.028185 0)
(10.1841 -0.0265449 0)
(10.22 -0.024411 0)
(10.2538 -0.0228453 0)
(10.2853 -0.0214857 0)
(10.3149 -0.0205107 0)
(10.3426 -0.0197686 0)
(10.3691 -0.0193559 0)
(10.3938 -0.0193133 0)
(10.4171 -0.0196772 0)
(10.4385 -0.0210348 0)
(10.4584 -0.0231678 0)
(10.4742 -0.0281955 0)
(10.4866 -0.0340665 0)
(10.4888 -0.0494687 0)
(10.4757 -0.0622834 0)
(9.96863 -0.00801809 0)
(10.0271 -0.0296591 0)
(10.0526 -0.0319107 0)
(10.1008 -0.0357151 0)
(10.1381 -0.0331023 0)
(10.1769 -0.0312073 0)
(10.2115 -0.0287211 0)
(10.2443 -0.0268724 0)
(10.2749 -0.0252497 0)
(10.3036 -0.0240534 0)
(10.3306 -0.0231064 0)
(10.3562 -0.0225045 0)
(10.3801 -0.0222722 0)
(10.4026 -0.0224276 0)
(10.4231 -0.0235482 0)
(10.4419 -0.0253527 0)
(10.4568 -0.0298615 0)
(10.4679 -0.0349695 0)
(10.4693 -0.0486748 0)
(10.4549 -0.0599532 0)
(9.96779 -0.0086845 0)
(10.0242 -0.0339465 0)
(10.0493 -0.0364468 0)
(10.0953 -0.0407948 0)
(10.131 -0.0378233 0)
(10.168 -0.0356855 0)
(10.2011 -0.032877 0)
(10.2327 -0.0307629 0)
(10.2621 -0.0288907 0)
(10.2897 -0.0274796 0)
(10.3157 -0.0263305 0)
(10.3403 -0.0255395 0)
(10.3632 -0.0251135 0)
(10.3845 -0.0250545 0)
(10.4039 -0.0259286 0)
(10.4216 -0.0273984 0)
(10.4352 -0.0313765 0)
(10.4448 -0.0357322 0)
(10.4453 -0.0477582 0)
(10.4296 -0.0575 0)
(9.96689 -0.00908465 0)
(10.0207 -0.0380821 0)
(10.0452 -0.0407782 0)
(10.0888 -0.0456298 0)
(10.1224 -0.042307 0)
(10.1573 -0.0399391 0)
(10.1887 -0.0368431 0)
(10.2186 -0.0344842 0)
(10.2466 -0.0323765 0)
(10.2729 -0.030758 0)
(10.2975 -0.0294096 0)
(10.3208 -0.0284295 0)
(10.3424 -0.0278053 0)
(10.3623 -0.0275262 0)
(10.3802 -0.0281448 0)
(10.3963 -0.0292747 0)
(10.4085 -0.0327131 0)
(10.4164 -0.0363326 0)
(10.4157 -0.0466977 0)
(10.3984 -0.054916 0)
(9.96599 -0.00917381 0)
(10.0164 -0.042037 0)
(10.0403 -0.0448653 0)
(10.081 -0.0501702 0)
(10.1121 -0.0465058 0)
(10.1445 -0.043923 0)
(10.1737 -0.0405779 0)
(10.2017 -0.0379961 0)
(10.2279 -0.0356669 0)
(10.2524 -0.0338474 0)
(10.2753 -0.0323018 0)
(10.2969 -0.0311324 0)
(10.3167 -0.0303045 0)
(10.3348 -0.0297992 0)
(10.3508 -0.030153 0)
(10.365 -0.0309391 0)
(10.3751 -0.0338301 0)
(10.3809 -0.0367314 0)
(10.3787 -0.0454657 0)
(10.3594 -0.0521702 0)
(9.96513 -0.00891633 0)
(10.0114 -0.0457896 0)
(10.0343 -0.0486682 0)
(10.0716 -0.0543558 0)
(10.0997 -0.0503687 0)
(10.1291 -0.0475849 0)
(10.1557 -0.0440313 0)
(10.1813 -0.0412456 0)
(10.2051 -0.038708 0)
(10.2273 -0.0366913 0)
(10.2479 -0.034949 0)
(10.2672 -0.0335874 0)
(10.2846 -0.0325507 0)
(10.3003 -0.0318109 0)
(10.3138 -0.03189 0)
(10.3253 -0.0323267 0)
(10.3329 -0.0346649 0)
(10.3359 -0.0368666 0)
(10.3315 -0.0440015 0)
(10.3098 -0.0492083 0)
(9.96439 -0.00831244 0)
(10.0056 -0.0493423 0)
(10.0269 -0.0521414 0)
(10.0603 -0.0581173 0)
(10.0848 -0.0538286 0)
(10.1106 -0.050859 0)
(10.1339 -0.0471327 0)
(10.1563 -0.0441589 0)
(10.177 -0.0414206 0)
(10.1961 -0.0392074 0)
(10.2135 -0.0372655 0)
(10.2296 -0.0357064 0)
(10.2438 -0.0344522 0)
(10.2561 -0.0334678 0)
(10.2661 -0.0332597 0)
(10.2741 -0.0333405 0)
(10.2781 -0.0351186 0)
(10.2775 -0.0366418 0)
(10.2699 -0.0422302 0)
(10.2449 -0.0459532 0)
(9.9639 -0.00740537 0)
(9.99894 -0.0527361 0)
(10.0179 -0.0552238 0)
(10.0464 -0.0613656 0)
(10.0665 -0.0568016 0)
(10.0878 -0.0536499 0)
(10.1068 -0.0497811 0)
(10.1249 -0.0466248 0)
(10.1413 -0.0436879 0)
(10.1561 -0.0412719 0)
(10.1691 -0.0391217 0)
(10.1806 -0.0373537 0)
(10.1901 -0.0358747 0)
(10.1977 -0.0346311 0)
(10.2029 -0.034121 0)
(10.206 -0.0338357 0)
(10.205 -0.0350509 0)
(10.1994 -0.0359179 0)
(10.1874 -0.0400262 0)
(10.1577 -0.0422905 0)
(9.96377 -0.00598918 0)
(9.99155 -0.0559641 0)
(10.0068 -0.0578142 0)
(10.0295 -0.0639906 0)
(10.0439 -0.0591557 0)
(10.0592 -0.055811 0)
(10.0722 -0.0518118 0)
(10.0842 -0.0484679 0)
(10.0945 -0.0453224 0)
(10.1029 -0.0426906 0)
(10.1093 -0.0403171 0)
(10.1143 -0.0383259 0)
(10.117 -0.0366084 0)
(10.1178 -0.0350908 0)
(10.1161 -0.0342636 0)
(10.1122 -0.0336045 0)
(10.1043 -0.0342552 0)
(10.0918 -0.0344981 0)
(10.0736 -0.0372184 0)
(10.0377 -0.0380836 0)
(9.96404 -0.00277582 0)
(9.98354 -0.0585665 0)
(9.99329 -0.0596886 0)
(10.0082 -0.0658136 0)
(10.0148 -0.0606918 0)
(10.0215 -0.0570989 0)
(10.0257 -0.0529566 0)
(10.0286 -0.0494025 0)
(10.0294 -0.046024 0)
(10.0282 -0.0431539 0)
(10.025 -0.0405359 0)
(10.02 -0.0383065 0)
(10.0129 -0.0363386 0)
(10.0038 -0.0345382 0)
(9.99227 -0.0333865 0)
(9.97868 -0.0323578 0)
(9.96132 -0.0324559 0)
(9.93965 -0.0321227 0)
(9.91301 -0.0335858 0)
(9.86907 -0.0331755 0)
(9.96424 0.00471338 0)
(9.9749 -0.0585154 0)
(9.97635 -0.0598713 0)
(9.98035 -0.066301 0)
(9.9749 -0.0609397 0)
(9.96825 -0.0570519 0)
(9.9584 -0.0527429 0)
(9.94684 -0.0489438 0)
(9.933 -0.0452993 0)
(9.91695 -0.0421684 0)
(9.89886 -0.0392911 0)
(9.87928 -0.0368194 0)
(9.85778 -0.034609 0)
(9.83469 -0.032542 0)
(9.80972 -0.0310902 0)
(9.78331 -0.0297303 0)
(9.75375 -0.0293201 0)
(9.72055 -0.0284966 0)
(9.68364 -0.0288712 0)
(9.63046 -0.0273988 0)
(9.96535 -0.00481125 0)
(9.96615 -0.0599875 0)
(9.95338 -0.0584486 0)
(9.9395 -0.0648541 0)
(9.91343 -0.0591783 0)
(9.8844 -0.0548517 0)
(9.85115 -0.0503285 0)
(9.81599 -0.0462267 0)
(9.77874 -0.0423096 0)
(9.73986 -0.0389191 0)
(9.69981 -0.0358188 0)
(9.65941 -0.0331613 0)
(9.61833 -0.030801 0)
(9.57708 -0.0285625 0)
(9.5354 -0.026919 0)
(9.4938 -0.0253439 0)
(9.45036 -0.0245568 0)
(9.40451 -0.0233926 0)
(9.35692 -0.0228903 0)
(9.29486 -0.0206835 0)
(9.9814 -0.0789422 0)
(9.96603 -0.0761129 0)
(9.9183 -0.0560791 0)
(9.86834 -0.0593973 0)
(9.80287 -0.0531101 0)
(9.73393 -0.0484075 0)
(9.66081 -0.0438793 0)
(9.5877 -0.0396315 0)
(9.51505 -0.0356693 0)
(9.44381 -0.0322254 0)
(9.37465 -0.0291393 0)
(9.3085 -0.026539 0)
(9.24465 -0.0243357 0)
(9.18372 -0.0221891 0)
(9.12506 -0.0206024 0)
(9.06895 -0.0190413 0)
(9.01297 -0.0181362 0)
(8.95609 -0.0168811 0)
(8.89983 -0.0157845 0)
(8.83173 -0.0131638 0)
(10.088 -0.484768 0)
(9.99765 -0.255807 0)
(9.84815 -0.124829 0)
(9.71266 -0.0804199 0)
(9.56798 -0.0537214 0)
(9.42992 -0.0399366 0)
(9.29507 -0.0319486 0)
(9.16999 -0.0265758 0)
(9.05415 -0.022679 0)
(8.9477 -0.0197344 0)
(8.85014 -0.0173373 0)
(8.76137 -0.0154853 0)
(8.67924 -0.0140933 0)
(8.60399 -0.012647 0)
(8.5341 -0.0116164 0)
(8.46926 -0.0105207 0)
(8.4062 -0.00988297 0)
(8.34322 -0.00897522 0)
(8.2829 -0.00789458 0)
(8.2135 -0.00525342 0)
(9.91388 2.50415 0)
(9.95085 0.689473 0)
(9.58795 0.218675 0)
(9.26961 0.0586546 0)
(8.99658 0.00783924 0)
(8.77684 -0.00992858 0)
(8.58496 -0.0151539 0)
(8.42323 -0.0155394 0)
(8.28396 -0.0143783 0)
(8.16273 -0.0128765 0)
(8.05654 -0.0113554 0)
(7.96325 -0.0100748 0)
(7.87828 -0.00918968 0)
(7.80214 -0.00807582 0)
(7.73288 -0.00719878 0)
(7.66962 -0.00616492 0)
(7.60984 -0.00528182 0)
(7.55099 -0.00417848 0)
(7.49385 -0.00251826 0)
(7.42915 -0.000417703 0)
(6.86189 -0.632865 0)
(6.20872 -0.562007 0)
(6.05988 -0.605318 0)
(5.99703 -0.652041 0)
(5.98863 -0.69005 0)
(6.01262 -0.721602 0)
(6.05029 -0.74817 0)
(6.09236 -0.771351 0)
(6.13504 -0.792286 0)
(6.17621 -0.811586 0)
(6.2147 -0.829622 0)
(6.24987 -0.846626 0)
(6.28144 -0.862739 0)
(6.3093 -0.878065 0)
(6.33344 -0.892645 0)
(6.35397 -0.906488 0)
(6.37102 -0.919589 0)
(6.38478 -0.931921 0)
(6.39544 -0.943451 0)
(6.4032 -0.954141 0)
(6.40828 -0.963956 0)
(6.4109 -0.972867 0)
(6.41126 -0.980845 0)
(6.40951 -0.987856 0)
(6.40582 -0.993878 0)
(6.40038 -0.998901 0)
(6.39337 -1.00293 0)
(6.38496 -1.00598 0)
(6.37531 -1.00806 0)
(6.36456 -1.0092 0)
(6.35286 -1.00944 0)
(6.34032 -1.0088 0)
(6.32706 -1.00733 0)
(6.31319 -1.00506 0)
(6.29879 -1.00206 0)
(6.28395 -0.998347 0)
(6.26876 -0.993985 0)
(6.25327 -0.989018 0)
(6.23754 -0.983493 0)
(6.22164 -0.977456 0)
(6.20561 -0.970953 0)
(6.18948 -0.964027 0)
(6.17331 -0.956722 0)
(6.15711 -0.949076 0)
(6.14092 -0.941129 0)
(6.12476 -0.932917 0)
(6.10865 -0.924474 0)
(6.09261 -0.915829 0)
(6.07664 -0.907011 0)
(6.06077 -0.898044 0)
(6.04499 -0.888952 0)
(6.0293 -0.879752 0)
(6.01373 -0.87046 0)
(5.99825 -0.861089 0)
(5.98288 -0.851647 0)
(5.96761 -0.842141 0)
(5.95244 -0.832575 0)
(5.93737 -0.822947 0)
(5.92239 -0.813256 0)
(5.9075 -0.803496 0)
(5.89269 -0.793661 0)
(5.87797 -0.783741 0)
(5.86334 -0.773726 0)
(5.84879 -0.763604 0)
(5.83432 -0.75336 0)
(5.81994 -0.742983 0)
(5.80564 -0.732458 0)
(5.79144 -0.721772 0)
(5.77734 -0.710913 0)
(5.76334 -0.699867 0)
(5.74946 -0.688626 0)
(5.7357 -0.677179 0)
(5.72207 -0.665521 0)
(5.70858 -0.653647 0)
(5.69524 -0.641554 0)
(5.68207 -0.629242 0)
(5.66907 -0.616716 0)
(5.65627 -0.60398 0)
(5.64366 -0.591043 0)
(5.63127 -0.577917 0)
(5.61911 -0.564614 0)
(5.60718 -0.551151 0)
(5.5955 -0.537548 0)
(5.58408 -0.523824 0)
(5.57292 -0.510002 0)
(5.56204 -0.496104 0)
(5.55144 -0.482157 0)
(5.54113 -0.468186 0)
(5.53112 -0.454215 0)
(5.5214 -0.440273 0)
(5.51197 -0.426383 0)
(5.50285 -0.412573 0)
(5.49403 -0.398866 0)
(5.4855 -0.385286 0)
(5.47727 -0.371856 0)
(5.46933 -0.358598 0)
(5.46168 -0.345531 0)
(5.4543 -0.332674 0)
(5.44721 -0.320043 0)
(5.44037 -0.307653 0)
(5.4338 -0.295518 0)
(5.42748 -0.283649 0)
(5.42139 -0.272056 0)
(5.41554 -0.260746 0)
(5.40991 -0.249727 0)
(5.4045 -0.239003 0)
(5.39928 -0.228579 0)
(5.39426 -0.218454 0)
(5.38942 -0.208632 0)
(5.38475 -0.19911 0)
(5.38025 -0.189888 0)
(5.3759 -0.180962 0)
(5.37169 -0.172329 0)
(5.36763 -0.163983 0)
(5.36369 -0.155919 0)
(5.35988 -0.148131 0)
(5.35618 -0.140611 0)
(5.35259 -0.133351 0)
(5.3491 -0.126344 0)
(5.3457 -0.11958 0)
(5.3424 -0.11305 0)
(5.33919 -0.106744 0)
(5.33605 -0.100652 0)
(5.33299 -0.0947631 0)
(5.33 -0.089066 0)
(5.32708 -0.0835488 0)
(5.32423 -0.0781998 0)
(5.32144 -0.0730058 0)
(5.3187 -0.0679539 0)
(5.31603 -0.0630301 0)
(5.31341 -0.0582202 0)
(5.31084 -0.0535088 0)
(5.30833 -0.0488806 0)
(5.30587 -0.0443187 0)
(5.30345 -0.0398063 0)
(5.30109 -0.0353252 0)
(5.29877 -0.0308567 0)
(5.2965 -0.0263805 0)
(5.29428 -0.021876 0)
(5.2921 -0.0173203 0)
(5.28998 -0.0126903 0)
(5.2879 -0.00795998 0)
(5.28586 -0.00310279 0)
(5.28388 0.00191086 0)
(5.28195 0.00711159 0)
(5.28006 0.0125334 0)
(5.27824 0.0182119 0)
(5.27647 0.0241865 0)
(5.27475 0.0304989 0)
(5.27311 0.0371949 0)
(5.27152 0.0443236 0)
(5.27001 0.0519389 0)
(5.26858 0.060099 0)
(5.26723 0.0688682 0)
(5.26597 0.0783157 0)
(5.26482 0.0885178 0)
(5.26377 0.0995568 0)
(5.26286 0.111523 0)
(5.26208 0.124516 0)
(5.26146 0.138644 0)
(5.26102 0.154026 0)
(5.26079 0.170792 0)
(5.26079 0.189086 0)
(5.26105 0.209067 0)
(5.26162 0.230908 0)
(5.26253 0.254803 0)
(5.26382 0.280965 0)
(5.26557 0.309633 0)
(5.26783 0.341074 0)
(5.27068 0.375588 0)
(5.2742 0.413518 0)
(5.27849 0.455257 0)
(5.28366 0.501267 0)
(5.28982 0.552094 0)
(5.2971 0.608399 0)
(5.30561 0.670993 0)
(5.31545 0.740873 0)
(5.32666 0.819255 0)
(5.33918 0.907572 0)
(5.35285 1.00741 0)
(5.36736 1.12035 0)
(5.38229 1.24784 0)
(5.39714 1.39101 0)
(5.41136 1.55065 0)
(5.42438 1.72728 0)
(5.43556 1.92127 0)
(5.44418 2.13289 0)
(5.44938 2.36245 0)
(5.45013 2.61035 0)
(5.44521 2.87722 0)
(5.43316 3.1641 0)
(5.41226 3.47281 0)
(5.38051 3.80651 0)
(5.3357 4.17062 0)
(5.27538 4.57397 0)
(5.19728 5.02965 0)
(5.10201 5.5558 0)
(4.98233 6.17614 0)
(4.94657 7.01709 0)
(4.76365 9.12139 0)
(8.45329 -0.256096 0)
(8.14145 -0.317924 0)
(7.87813 -0.45333 0)
(7.62742 -0.565343 0)
(7.42733 -0.641786 0)
(7.28363 -0.695971 0)
(7.18364 -0.736049 0)
(7.11391 -0.767052 0)
(7.06493 -0.792348 0)
(7.02996 -0.813956 0)
(7.0043 -0.833071 0)
(6.98472 -0.850402 0)
(6.96904 -0.866367 0)
(6.9557 -0.881263 0)
(6.94361 -0.895231 0)
(6.93201 -0.908351 0)
(6.92036 -0.920668 0)
(6.90829 -0.932193 0)
(6.89556 -0.942918 0)
(6.88201 -0.952824 0)
(6.86755 -0.961888 0)
(6.85215 -0.970085 0)
(6.83575 -0.977381 0)
(6.81836 -0.98375 0)
(6.80003 -0.989181 0)
(6.78083 -0.993671 0)
(6.76083 -0.99722 0)
(6.74011 -0.99984 0)
(6.71877 -1.00155 0)
(6.69687 -1.00236 0)
(6.67451 -1.00231 0)
(6.65177 -1.00143 0)
(6.62872 -0.999756 0)
(6.60544 -0.997326 0)
(6.58198 -0.994182 0)
(6.55841 -0.990368 0)
(6.53478 -0.985927 0)
(6.51115 -0.980904 0)
(6.48755 -0.975345 0)
(6.46403 -0.969292 0)
(6.44063 -0.962789 0)
(6.41737 -0.955878 0)
(6.39427 -0.9486 0)
(6.37137 -0.940992 0)
(6.34868 -0.933093 0)
(6.32622 -0.924935 0)
(6.30399 -0.916552 0)
(6.28201 -0.907972 0)
(6.26028 -0.899223 0)
(6.23881 -0.890328 0)
(6.2176 -0.881308 0)
(6.19665 -0.872181 0)
(6.17595 -0.862961 0)
(6.15551 -0.853662 0)
(6.13531 -0.844291 0)
(6.11534 -0.834854 0)
(6.09562 -0.825354 0)
(6.07612 -0.815791 0)
(6.05684 -0.806162 0)
(6.03777 -0.796464 0)
(6.0189 -0.786688 0)
(6.00024 -0.776826 0)
(5.98177 -0.766867 0)
(5.9635 -0.7568 0)
(5.94541 -0.746613 0)
(5.92751 -0.736292 0)
(5.9098 -0.725825 0)
(5.89228 -0.715198 0)
(5.87496 -0.7044 0)
(5.85783 -0.693418 0)
(5.8409 -0.682244 0)
(5.82418 -0.670868 0)
(5.80767 -0.659284 0)
(5.79139 -0.647488 0)
(5.77535 -0.635478 0)
(5.75955 -0.623254 0)
(5.744 -0.61082 0)
(5.72872 -0.598181 0)
(5.71371 -0.585346 0)
(5.69899 -0.572326 0)
(5.68457 -0.559134 0)
(5.67046 -0.545787 0)
(5.65666 -0.532304 0)
(5.64319 -0.518703 0)
(5.63006 -0.505008 0)
(5.61726 -0.491241 0)
(5.60482 -0.477426 0)
(5.59272 -0.463589 0)
(5.58098 -0.449755 0)
(5.5696 -0.43595 0)
(5.55858 -0.422198 0)
(5.54791 -0.408525 0)
(5.5376 -0.394955 0)
(5.52765 -0.381511 0)
(5.51804 -0.368215 0)
(5.50878 -0.355088 0)
(5.49985 -0.34215 0)
(5.49125 -0.329418 0)
(5.48298 -0.31691 0)
(5.47501 -0.304639 0)
(5.46735 -0.292618 0)
(5.45999 -0.28086 0)
(5.4529 -0.269373 0)
(5.44609 -0.258165 0)
(5.43953 -0.247244 0)
(5.43323 -0.236614 0)
(5.42716 -0.226278 0)
(5.42132 -0.216239 0)
(5.41569 -0.206497 0)
(5.41027 -0.197052 0)
(5.40504 -0.187902 0)
(5.39999 -0.179044 0)
(5.39512 -0.170476 0)
(5.39041 -0.162191 0)
(5.38585 -0.154185 0)
(5.38144 -0.146451 0)
(5.37717 -0.138982 0)
(5.37303 -0.131771 0)
(5.36901 -0.124809 0)
(5.36511 -0.118088 0)
(5.36133 -0.111599 0)
(5.35764 -0.105332 0)
(5.35405 -0.0992761 0)
(5.35056 -0.0934217 0)
(5.34716 -0.0877572 0)
(5.34384 -0.0822715 0)
(5.3406 -0.0769522 0)
(5.33744 -0.0717869 0)
(5.33436 -0.0667622 0)
(5.33135 -0.0618646 0)
(5.3284 -0.0570798 0)
(5.32553 -0.0523929 0)
(5.32272 -0.0477883 0)
(5.31998 -0.0432496 0)
(5.3173 -0.03876 0)
(5.31468 -0.0343014 0)
(5.31212 -0.0298551 0)
(5.30963 -0.0254014 0)
(5.3072 -0.0209192 0)
(5.30482 -0.0163861 0)
(5.30251 -0.0117787 0)
(5.30026 -0.00707154 0)
(5.29807 -0.00223772 0)
(5.29595 0.00275181 0)
(5.29389 0.007928 0)
(5.29191 0.0133241 0)
(5.28999 0.0189761 0)
(5.28815 0.0249227 0)
(5.28638 0.0312058 0)
(5.2847 0.0378706 0)
(5.2831 0.0449662 0)
(5.2816 0.052546 0)
(5.2802 0.0606678 0)
(5.27891 0.069395 0)
(5.27774 0.0787967 0)
(5.2767 0.088948 0)
(5.2758 0.0999308 0)
(5.27506 0.111834 0)
(5.2745 0.124757 0)
(5.27415 0.138805 0)
(5.27401 0.154098 0)
(5.27413 0.170763 0)
(5.27453 0.188943 0)
(5.27525 0.208794 0)
(5.27634 0.230487 0)
(5.27783 0.254214 0)
(5.2798 0.280185 0)
(5.28229 0.308635 0)
(5.28539 0.339827 0)
(5.28918 0.374056 0)
(5.29375 0.411661 0)
(5.29922 0.453029 0)
(5.30571 0.498617 0)
(5.31337 0.548967 0)
(5.32233 0.604739 0)
(5.33275 0.666749 0)
(5.34476 0.736007 0)
(5.35846 0.813757 0)
(5.37386 0.901475 0)
(5.39085 1.00079 0)
(5.40921 1.11336 0)
(5.42859 1.24065 0)
(5.44859 1.38381 0)
(5.46876 1.54365 0)
(5.48865 1.72072 0)
(5.50776 1.91538 0)
(5.52554 2.12797 0)
(5.54138 2.35883 0)
(5.55456 2.60842 0)
(5.56424 2.87745 0)
(5.56956 3.16701 0)
(5.56964 3.47894 0)
(5.56377 3.8164 0)
(5.55181 4.18466 0)
(5.53474 4.59215 0)
(5.51666 5.05064 0)
(5.50864 5.57624 0)
(5.53392 6.1816 0)
(5.69627 6.96658 0)
(6.13198 8.26577 0)
(9.16188 -0.171365 0)
(9.06032 -0.256098 0)
(8.93738 -0.368746 0)
(8.7755 -0.472126 0)
(8.59322 -0.555306 0)
(8.41422 -0.622746 0)
(8.25221 -0.677297 0)
(8.11146 -0.721068 0)
(7.99199 -0.756481 0)
(7.89141 -0.785682 0)
(7.80646 -0.810331 0)
(7.73397 -0.831633 0)
(7.67123 -0.850428 0)
(7.61601 -0.867313 0)
(7.56653 -0.882661 0)
(7.52142 -0.896717 0)
(7.47959 -0.909644 0)
(7.44023 -0.921539 0)
(7.40267 -0.932461 0)
(7.36643 -0.94244 0)
(7.33115 -0.951487 0)
(7.29651 -0.959593 0)
(7.26228 -0.966753 0)
(7.22832 -0.972965 0)
(7.19452 -0.978233 0)
(7.16082 -0.982562 0)
(7.12719 -0.985963 0)
(7.0936 -0.988451 0)
(7.06007 -0.990044 0)
(7.02661 -0.990767 0)
(6.99324 -0.99065 0)
(6.95999 -0.989724 0)
(6.9269 -0.988026 0)
(6.89398 -0.985593 0)
(6.86129 -0.982467 0)
(6.82885 -0.978689 0)
(6.79668 -0.974301 0)
(6.76482 -0.969348 0)
(6.73329 -0.963871 0)
(6.70212 -0.957914 0)
(6.67132 -0.951517 0)
(6.64091 -0.944722 0)
(6.6109 -0.937567 0)
(6.58131 -0.930089 0)
(6.55214 -0.922324 0)
(6.52341 -0.914306 0)
(6.4951 -0.906064 0)
(6.46723 -0.897627 0)
(6.43979 -0.889022 0)
(6.41279 -0.88027 0)
(6.3862 -0.871392 0)
(6.36004 -0.862406 0)
(6.33429 -0.853324 0)
(6.30893 -0.84416 0)
(6.28397 -0.83492 0)
(6.25939 -0.825611 0)
(6.23518 -0.816235 0)
(6.21132 -0.806793 0)
(6.18781 -0.797281 0)
(6.16464 -0.787695 0)
(6.14179 -0.778029 0)
(6.11926 -0.768274 0)
(6.09703 -0.75842 0)
(6.07511 -0.748456 0)
(6.05349 -0.738369 0)
(6.03215 -0.728148 0)
(6.0111 -0.717781 0)
(5.99035 -0.707254 0)
(5.96987 -0.696557 0)
(5.94969 -0.685678 0)
(5.9298 -0.674607 0)
(5.9102 -0.663338 0)
(5.89091 -0.651864 0)
(5.87192 -0.640181 0)
(5.85325 -0.628287 0)
(5.8349 -0.616184 0)
(5.81688 -0.603874 0)
(5.79921 -0.591364 0)
(5.78188 -0.578661 0)
(5.76492 -0.565778 0)
(5.74832 -0.552727 0)
(5.7321 -0.539524 0)
(5.71627 -0.526189 0)
(5.70083 -0.51274 0)
(5.68579 -0.499199 0)
(5.67115 -0.485589 0)
(5.65693 -0.471934 0)
(5.64312 -0.458257 0)
(5.62973 -0.444585 0)
(5.61675 -0.430942 0)
(5.60419 -0.417352 0)
(5.59204 -0.403839 0)
(5.58031 -0.390429 0)
(5.56898 -0.377142 0)
(5.55805 -0.364001 0)
(5.54751 -0.351027 0)
(5.53736 -0.338238 0)
(5.52759 -0.325652 0)
(5.51818 -0.313285 0)
(5.50913 -0.301151 0)
(5.50043 -0.289264 0)
(5.49206 -0.277633 0)
(5.48401 -0.266269 0)
(5.47626 -0.25518 0)
(5.46882 -0.244372 0)
(5.46165 -0.233851 0)
(5.45476 -0.223618 0)
(5.44812 -0.213678 0)
(5.44173 -0.20403 0)
(5.43558 -0.194674 0)
(5.42964 -0.185609 0)
(5.42392 -0.176832 0)