/*--------------------------------*- C++ -*----------------------------------*\
| =========                 |                                                 |
| \\      /  F ield         | OpenFOAM: The Open Source CFD Toolbox           |
|  \\    /   O peration     | Version:  2.4.0                                 |
|   \\  /    A nd           | Web:      www.OpenFOAM.org                      |
|    \\/     M anipulation  |                                                 |
\*---------------------------------------------------------------------------*/
FoamFile
{
    version     2.0;
    format      ascii;
    class       volScalarField;
    location    "0.087";
    object      k_0;
}
// * * * * * * * * * * * * * * * * * * * * * * * * * * * * * * * * * * * * * //

dimensions      [0 2 -2 0 0 0 0];

internalField   nonuniform List<scalar> 
17600
(
9.28742
7.41037
5.12685
3.92948
3.34084
2.95863
2.67253
2.50631
2.29312
2.23338
2.08077
2.05782
1.94333
1.91434
1.86676
1.77607
1.78231
1.73986
1.67619
1.72216
4.50611
6.20691
5.84286
5.04754
4.41735
3.9423
3.56635
3.36255
3.06345
2.9849
2.78079
2.73288
2.59665
2.54337
2.49143
2.3591
2.37282
2.29802
2.24121
2.19787
1.32404
3.28468
3.99534
3.96095
3.76287
3.47788
3.19205
3.05733
2.80263
2.73676
2.56726
2.51532
2.40817
2.34049
2.31181
2.19275
2.20022
2.1238
2.11125
2.01502
0.208068
1.19761
1.92149
2.33009
2.50462
2.52518
2.45384
2.41778
2.29145
2.25112
2.1489
2.10686
2.04918
1.97819
1.97182
1.89155
1.88984
1.8335
1.82779
1.76582
0.0260907
0.272615
0.635527
0.972937
1.22353
1.45575
1.51474
1.61674
1.6158
1.62448
1.61111
1.59343
1.58967
1.54944
1.55568
1.52195
1.5157
1.49179
1.47878
1.45433
0.00275397
0.0448405
0.133805
0.281019
0.389448
0.597181
0.685918
0.815167
0.904747
0.957796
1.01319
1.02946
1.07701
1.07358
1.09435
1.10324
1.10172
1.10814
1.10022
1.09002
0.000280953
0.00638498
0.019905
0.0535825
0.0836167
0.158896
0.213258
0.271706
0.366407
0.406215
0.480991
0.509503
0.578599
0.598753
0.63186
0.681659
0.687626
0.712197
0.722887
0.718439
4.83342e-05
0.000859213
0.00258242
0.00709984
0.0123794
0.02661
0.0458953
0.0601937
0.0972629
0.116282
0.1573
0.175274
0.218038
0.243028
0.263186
0.317837
0.329888
0.358262
0.384606
0.390779
2.75001e-05
0.00015452
0.00037135
0.000861018
0.00145019
0.00317831
0.00670492
0.00928946
0.0170446
0.0219654
0.0339717
0.0401744
0.0546434
0.0664505
0.0744878
0.100325
0.108162
0.126753
0.145765
0.153202
2.50298e-05
7.52437e-05
0.000118426
0.000163961
0.000206881
0.000372508
0.000805332
0.00112943
0.00222816
0.00296262
0.00501813
0.00617497
0.00919978
0.0116637
0.0136734
0.0208233
0.0232135
0.0296325
0.0359728
0.0379589
2.30517e-05
4.06101e-05
6.80746e-05
9.44462e-05
9.13881e-05
0.000100541
0.000143896
0.000189029
0.000333885
0.000413569
0.000683745
0.000814275
0.00116207
0.00146201
0.00175241
0.00295628
0.00330333
0.0043266
0.00569389
0.00633617
2.18043e-05
3.08453e-05
4.97195e-05
9.77587e-05
9.22231e-05
8.81039e-05
9.52969e-05
0.000100232
0.000106355
0.000116555
0.000171674
0.000194482
0.000219767
0.000279367
0.000319245
0.00045469
0.000478134
0.000553105
0.00078909
0.000877159
2.16559e-05
2.99667e-05
5.09767e-05
9.00209e-05
8.74585e-05
7.77825e-05
7.58416e-05
6.82275e-05
6.76242e-05
7.88302e-05
0.000103477
0.000113929
0.000140416
0.000160492
0.000159834
0.000166229
0.000165016
0.0001677
0.000190226
0.000188258
2.21663e-05
2.93759e-05
5.38014e-05
6.03811e-05
5.78599e-05
5.7384e-05
5.78963e-05
5.91053e-05
6.79847e-05
8.39415e-05
8.8166e-05
9.83405e-05
0.000107821
0.000106774
0.000101323
0.000105356
0.000107087
0.000109149
0.000110658
0.000111771
2.15866e-05
3.06695e-05
3.89246e-05
4.00994e-05
4.81249e-05
5.59884e-05
5.81617e-05
6.20922e-05
7.37618e-05
7.1839e-05
7.04403e-05
7.26606e-05
7.29065e-05
7.30484e-05
7.44887e-05
8.2566e-05
8.76148e-05
9.03873e-05
9.05659e-05
0.000103791
2.08411e-05
2.79307e-05
3.15796e-05
4.06264e-05
5.26645e-05
5.44101e-05
5.55895e-05
5.9011e-05
5.76539e-05
5.44497e-05
5.54467e-05
5.97441e-05
6.20881e-05
6.69863e-05
7.48525e-05
7.83151e-05
7.93594e-05
7.99051e-05
8.00032e-05
0.000116265
2.06376e-05
2.63131e-05
3.1851e-05
4.63219e-05
4.77313e-05
4.65128e-05
4.72302e-05
4.65881e-05
4.68105e-05
4.9505e-05
5.65439e-05
5.8457e-05
6.06503e-05
6.50627e-05
6.57665e-05
6.55799e-05
6.61363e-05
6.5928e-05
6.68649e-05
8.44004e-05
2.07852e-05
2.54915e-05
3.44877e-05
4.0405e-05
4.14081e-05
4.22494e-05
4.4814e-05
4.57334e-05
4.72843e-05
5.15316e-05
5.20367e-05
5.22089e-05
5.25722e-05
5.39059e-05
5.40799e-05
5.47433e-05
5.8045e-05
5.82788e-05
6.02573e-05
5.93026e-05
2.07633e-05
2.56144e-05
2.94638e-05
3.8603e-05
4.22743e-05
4.37795e-05
4.44576e-05
4.43589e-05
4.54356e-05
4.53897e-05
4.59865e-05
4.65954e-05
4.80141e-05
4.92766e-05
5.00913e-05
5.07587e-05
5.35889e-05
5.30023e-05
5.34241e-05
5.54407e-05
2.05303e-05
2.44219e-05
3.44321e-05
3.94897e-05
3.98585e-05
3.95467e-05
4.07815e-05
4.24082e-05
4.42411e-05
4.52011e-05
4.54375e-05
4.52294e-05
4.51459e-05
4.56669e-05
4.64547e-05
4.90783e-05
4.96467e-05
5.07533e-05
5.10806e-05
5.70395e-05
2.05303e-05
2.74041e-05
3.34262e-05
3.34914e-05
3.43561e-05
3.94273e-05
4.29112e-05
4.35007e-05
4.39353e-05
4.31919e-05
4.18841e-05
4.14752e-05
4.16474e-05
4.39698e-05
4.51578e-05
4.70637e-05
4.96837e-05
4.98359e-05
5.08617e-05
5.3677e-05
2.05908e-05
2.69752e-05
2.92102e-05
3.26947e-05
4.06694e-05
4.34164e-05
4.34899e-05
4.21574e-05
4.12671e-05
4.02446e-05
4.04456e-05
4.16832e-05
4.47564e-05
4.76407e-05
4.73863e-05
4.71602e-05
5.11365e-05
5.20524e-05
5.36598e-05
7.01143e-05
2.06964e-05
2.51314e-05
3.03007e-05
4.09112e-05
4.32921e-05
4.21968e-05
4.03568e-05
4.03449e-05
4.10562e-05
4.24285e-05
4.7017e-05
4.78422e-05
4.78662e-05
4.88615e-05
4.77403e-05
5.00226e-05
5.093e-05
5.20409e-05
5.56785e-05
5.90787e-05
2.08699e-05
2.5726e-05
3.66414e-05
4.08234e-05
3.98372e-05
3.88579e-05
4.03973e-05
4.66579e-05
4.88669e-05
4.9247e-05
5.05983e-05
4.8785e-05
4.90467e-05
4.86686e-05
4.8683e-05
5.61642e-05
5.7479e-05
5.83725e-05
6.17779e-05
7.2492e-05
2.1036e-05
2.88951e-05
3.56102e-05
3.66948e-05
3.87776e-05
4.60736e-05
5.22809e-05
5.28118e-05
5.19344e-05
5.15687e-05
5.03632e-05
4.94836e-05
5.39325e-05
5.52669e-05
5.96521e-05
6.70024e-05
6.55519e-05
6.68504e-05
6.89778e-05
7.06743e-05
2.12622e-05
2.94994e-05
3.36514e-05
4.08767e-05
5.01759e-05
5.51782e-05
5.51192e-05
5.33573e-05
5.32971e-05
5.40014e-05
5.46042e-05
6.12714e-05
6.84303e-05
6.7983e-05
7.33525e-05
7.28696e-05
7.04051e-05
7.40682e-05
7.61058e-05
8.67154e-05
2.15214e-05
2.90169e-05
3.61758e-05
5.11974e-05
5.74625e-05
5.71034e-05
5.57556e-05
5.65905e-05
6.15961e-05
6.46431e-05
7.10331e-05
7.98967e-05
7.77845e-05
7.761e-05
8.27391e-05
8.15063e-05
8.37674e-05
9.23923e-05
0.000103576
0.000138275
2.19246e-05
2.91823e-05
4.41961e-05
5.70341e-05
6.00677e-05
5.96139e-05
6.16484e-05
7.28224e-05
8.02809e-05
8.26914e-05
9.19625e-05
9.43091e-05
9.38097e-05
0.000102727
0.000108392
0.000120206
0.000146909
0.000192008
0.000251706
0.000376806
2.28554e-05
3.08972e-05
5.36373e-05
5.82104e-05
7.00201e-05
7.4222e-05
8.92863e-05
0.000102109
0.000108907
0.000120024
0.000150674
0.00016191
0.000185214
0.000255004
0.000300116
0.000442016
0.000601674
0.000989611
0.0014268
0.00246967
2.36423e-05
3.39254e-05
6.23398e-05
7.4847e-05
0.000110389
0.000125596
0.000168026
0.000237725
0.000291863
0.000423694
0.000587376
0.000787894
0.00104685
0.00165549
0.00206816
0.00331276
0.00448742
0.00735594
0.0099156
0.0172786
2.41589e-05
4.78355e-05
9.40613e-05
0.000183532
0.000305024
0.000428687
0.000733906
0.00143824
0.00194002
0.00321513
0.00445638
0.00645871
0.00841643
0.0129828
0.0156542
0.0229095
0.0284924
0.0419112
0.0516778
0.0820607
2.78961e-05
0.00014408
0.00038247
0.000846831
0.00187936
0.00306777
0.00594507
0.0112711
0.0149174
0.0237615
0.0321657
0.0416251
0.0516709
0.0725739
0.0822426
0.106739
0.123127
0.160732
0.184208
0.25608
5.0451e-05
0.000875519
0.0027239
0.0061957
0.0151385
0.0237237
0.0448989
0.0683297
0.086406
0.123937
0.155456
0.177784
0.214131
0.259793
0.280575
0.329095
0.358248
0.418926
0.452457
0.542756
0.00028567
0.00637363
0.0214407
0.0455866
0.0986227
0.138376
0.22593
0.282353
0.349873
0.418963
0.480072
0.515233
0.576295
0.623536
0.647812
0.699612
0.729814
0.78095
0.809976
0.883891
0.00277102
0.0442645
0.140069
0.260729
0.425572
0.553823
0.720651
0.804585
0.903941
0.963166
1.01712
1.03477
1.07792
1.09172
1.10839
1.12665
1.14605
1.1651
1.18274
1.21604
0.0262169
0.268453
0.640496
0.958515
1.25164
1.4167
1.55814
1.58743
1.63086
1.62019
1.61854
1.59454
1.5917
1.56703
1.5617
1.54173
1.54004
1.5277
1.52394
1.51441
0.209042
1.19406
1.92624
2.32008
2.5195
2.51094
2.47966
2.3836
2.33097
2.21721
2.1753
2.08587
2.05562
1.98259
1.96265
1.90249
1.8835
1.83422
1.80325
1.76247
1.3296
3.27653
3.9979
3.95697
3.77364
3.45485
3.23187
2.9975
2.86945
2.67985
2.60995
2.47307
2.42315
2.31377
2.28182
2.18296
2.14721
2.05438
1.99857
1.90681
4.51174
6.1959
5.84473
5.04197
4.42755
3.92599
3.59969
3.30119
3.13354
2.91351
2.83023
2.67307
2.6134
2.4804
2.44093
2.31019
2.25861
2.12259
2.04614
1.88903
9.29306
7.39877
5.1319
3.92519
3.34558
2.94811
2.69371
2.46342
2.337
2.17848
2.11376
1.99793
1.95389
1.84115
1.80721
1.69209
1.63888
1.50335
1.42483
1.25273
1.14361
0.893901
0.79177
0.77142
0.794048
0.778471
0.503392
0.253799
0.208309
0.198923
0.180598
0.162956
0.150695
0.125849
0.103219
0.0953555
0.0950675
0.0973259
0.106058
0.126967
0.177546
0.235236
0.271366
0.280586
0.275638
0.262502
0.227229
0.146219
0.059576
0.0241703
0.00989385
0.00435887
0.00235635
0.00151044
0.00117445
0.00107515
0.00108737
0.00113529
0.00131188
0.00151948
0.00198508
0.00271452
0.00316222
0.00574111
0.00850507
0.00826493
0.00798249
0.00790806
0.00678136
0.00646637
0.00743287
0.00825542
0.00943195
0.015762
0.0458807
0.0684493
0.0767703
0.0780276
0.0727563
0.0697272
0.0709345
0.076577
0.0797478
0.0857022
0.0894396
0.0897647
0.0920836
0.108876
0.118596
0.116959
0.0899077
0.0615691
0.0532993
0.0552689
0.0670448
0.0810278
0.09027
0.0915703
0.0897008
0.0829611
0.0660122
0.0577208
0.0575997
0.0679795
0.0848757
0.0867332
0.0805327
0.0577837
0.0455863
0.0450845
0.0487049
0.0496322
0.0512902
0.0547029
0.0546508
0.0516358
0.0393057
0.0327171
0.0332632
0.0403972
0.041689
0.0364905
0.0260622
0.0215944
0.0194416
0.0176997
0.0168402
0.0166942
0.0167505
0.0168619
0.0170532
0.0177235
0.0197301
0.0246573
0.0390697
0.0506321
0.055364
0.0567602
0.0569573
0.056917
0.0565018
0.0530072
0.0441381
0.0392628
0.0376041
0.0377058
0.0432525
0.0479641
0.0497895
0.0481165
0.038077
0.026699
0.01895
0.0143107
0.0110562
0.00903637
0.00747519
0.0064781
0.00554933
0.00484401
0.00416126
0.00357617
0.00307104
0.00264741
0.00235224
0.0021045
0.00197166
0.00183291
0.00178691
0.00170579
0.00168465
0.00164296
0.00163307
0.00161128
0.00159221
0.00154905
0.00147023
0.00134181
0.00120536
0.00107812
0.000938654
0.000855144
0.000720707
0.000672517
0.000571762
0.000543561
0.000472327
0.000456017
0.000405328
0.000392847
0.000343235
0.000310647
0.000234763
0.00018167
0.000133544
0.00011455
0.000106102
0.000108184
0.000123053
0.000126539
0.000158642
0.000145328
0.000138732
9.0569e-05
8.24263e-05
6.98591e-05
7.48661e-05
0.000104882
8.60934e-05
0.000101165
9.33983e-05
0.000115871
0.000218303
0.000227793
0.000304193
0.00054844
0.00119572
0.0047401
0.0449973
0.465542
1.73362
1.31397
1.0547
0.94106
0.834176
0.847853
0.816989
0.61874
0.330554
0.257645
0.224331
0.187823
0.163666
0.138759
0.12026
0.116719
0.118068
0.126304
0.148754
0.211766
0.284469
0.309938
0.307934
0.298881
0.276288
0.230347
0.136573
0.0583448
0.0251388
0.0106415
0.00477551
0.00252429
0.00167143
0.00125398
0.00109654
0.00108129
0.00112353
0.00124148
0.00166108
0.00209928
0.00318449
0.00427983
0.00495834
0.00859895
0.0113095
0.0107699
0.0100483
0.00975593
0.00834456
0.00818598
0.00970975
0.0105693
0.0122695
0.0251263
0.0586363
0.0746132
0.078329
0.0772138
0.0668675
0.0623639
0.0630148
0.0701865
0.0760408
0.08465
0.0893437
0.0902924
0.0925349
0.106766
0.116283
0.115439
0.0917959
0.06356
0.0551011
0.0573353
0.0691022
0.0825553
0.0918151
0.0933914
0.0916954
0.0848066
0.067821
0.0603138
0.0606694
0.073387
0.0899162
0.0910974
0.0827233
0.057394
0.0454208
0.045593
0.0490595
0.0497859
0.0516229
0.0547775
0.0542691
0.0514149
0.0396944
0.0326903
0.0331541
0.0404848
0.0417759
0.0355529
0.0251327
0.0209988
0.0193008
0.017622
0.0169027
0.0168483
0.0170147
0.0169825
0.0170282
0.0174736
0.0192348
0.0242745
0.0391192
0.0510724
0.0559479
0.057415
0.0580252
0.0582609
0.0574584
0.0514329
0.0423548
0.0372173
0.0358956
0.0364242
0.0427561
0.0478921
0.0484496
0.0466841
0.0350295
0.0252631
0.0179137
0.0136254
0.0106364
0.0085666
0.00723959
0.00611189
0.00524765
0.00445153
0.00380162
0.00322149
0.00280947
0.00248981
0.00224923
0.00208176
0.00193102
0.00187214
0.00178736
0.00178055
0.00175887
0.00176759
0.00175645
0.0017634
0.00175441
0.00174339
0.00170147
0.00162365
0.00141948
0.00128613
0.00108885
0.000946938
0.000788816
0.000676818
0.00058784
0.000498303
0.000460209
0.000401873
0.000395113
0.000378406
0.00039406
0.000381704
0.000394717
0.000368576
0.000345206
0.000269638
0.000209012
0.000146337
0.000136655
0.000137298
0.00014446
0.000180283
0.000166679
0.00016843
0.000132052
0.000104203
8.77355e-05
9.58323e-05
0.000131607
0.000116203
0.000122914
0.000124193
0.000169877
0.000319531
0.000334693
0.000518418
0.00132041
0.00368924
0.040026
0.329245
1.64124
1.34759
1.11807
0.984375
0.868573
0.823175
0.825684
0.808278
0.703873
0.495547
0.347601
0.259751
0.202063
0.167569
0.153148
0.154201
0.165091
0.195006
0.266111
0.32132
0.331501
0.32598
0.309712
0.269407
0.200708
0.104012
0.0485477
0.0227894
0.0105765
0.00480584
0.00258185
0.00173506
0.00135273
0.00114316
0.00107841
0.00110342
0.00121401
0.0014939
0.00252881
0.00349178
0.00565374
0.00733694
0.00843664
0.0140928
0.0170621
0.0160432
0.0139798
0.0121905
0.0101597
0.0102356
0.0125786
0.013672
0.0166997
0.039757
0.0689819
0.078824
0.0803014
0.0764321
0.0655026
0.0593352
0.0589945
0.0617684
0.0693448
0.0822933
0.0887602
0.0901565
0.0925222
0.10507
0.11418
0.114179
0.0935081
0.0654229
0.0568667
0.0591807
0.0711284
0.0840018
0.0933961
0.0953973
0.093848
0.0864697
0.0694044
0.0628724
0.0638969
0.079216
0.0948863
0.0955129
0.0841458
0.0564553
0.0450842
0.0458623
0.0490303
0.0498549
0.0522222
0.0547873
0.054124
0.0516596
0.0411294
0.0327699
0.0328192
0.0405637
0.042092
0.0348089
0.0244622
0.0205868
0.0192959
0.0177412
0.0170122
0.01698
0.0172375
0.0171533
0.0170792
0.0174282
0.0190335
0.0243092
0.0395161
0.0515274
0.0569227
0.0586923
0.0592687
0.0593851
0.0582768
0.0501418
0.0404489
0.0357608
0.0344195
0.0357695
0.0427163
0.0469976
0.04772
0.0441064
0.0332434
0.0229962
0.0172269
0.0127254
0.01029
0.00823877
0.00704764
0.00589844
0.00499489
0.00418999
0.00349139
0.00293706
0.00251251
0.0022236
0.00200318
0.00185992
0.00175062
0.0016713
0.00164809
0.001635
0.00164273
0.00165614
0.00169643
0.00173805
0.00176845
0.00177537
0.00177205
0.00171314
0.00163
0.00143636
0.00134243
0.00115118
0.00105157
0.000861646
0.000751365
0.000608573
0.000504786
0.000425911
0.000368714
0.000339294
0.000329641
0.00034168
0.000353341
0.000403536
0.000412855
0.000453239
0.000427088
0.000374915
0.000259149
0.000206884
0.000170224
0.000175044
0.00020937
0.00020245
0.000251814
0.000190954
0.00014716
0.000114012
0.000126167
0.000181781
0.000151148
0.000171609
0.000183343
0.000254693
0.000447372
0.000546797
0.00144388
0.00300215
0.0329817
0.210677
1.48897
1.23424
1.06896
0.935877
0.851358
0.792437
0.765702
0.769955
0.756477
0.716193
0.614608
0.498165
0.383523
0.296651
0.277712
0.284117
0.318402
0.351244
0.358671
0.354962
0.337594
0.294931
0.224047
0.141194
0.0715028
0.036207
0.01826
0.00927715
0.00458238
0.00241685
0.0016759
0.00139163
0.0011971
0.00109653
0.0010975
0.0011812
0.00147789
0.0021854
0.00483188
0.00678571
0.010673
0.0135139
0.0147721
0.0213714
0.0255837
0.0247763
0.0217012
0.0166681
0.0131615
0.0132216
0.015742
0.0171745
0.0229117
0.0553642
0.0771384
0.0827058
0.0823775
0.0752002
0.0652714
0.0583189
0.0566025
0.0578941
0.0625927
0.0774126
0.0871204
0.089594
0.0923327
0.103502
0.112214
0.112852
0.0951123
0.0672043
0.058732
0.0611869
0.0729349
0.0855917
0.095103
0.097666
0.0961006
0.0878786
0.0711493
0.0656788
0.0674491
0.085534
0.0999877
0.0998816
0.084854
0.0553952
0.0447295
0.0458524
0.048493
0.0500811
0.0531287
0.0547323
0.0541156
0.0528286
0.0434209
0.0330394
0.0324537
0.0406778
0.0426664
0.0344371
0.0241246
0.0204466
0.0192927
0.017995
0.0171213
0.0170399
0.0172483
0.0171742
0.017113
0.0174549
0.0190549
0.0246072
0.0403255
0.0516499
0.0575306
0.0600659
0.0609022
0.0606317
0.058771
0.0489004
0.0391446
0.0347136
0.0336115
0.0355534
0.0430567
0.0462945
0.046594
0.0419189
0.0301784
0.021996
0.0158059
0.0124346
0.00962375
0.00813004
0.00670122
0.00578505
0.00478451
0.00406567
0.00335957
0.0028551
0.00245671
0.00217637
0.00196368
0.00179614
0.00167057
0.00157677
0.00151573
0.0014887
0.00148651
0.00148882
0.00150614
0.00153498
0.00158361
0.00159898
0.00159908
0.00157124
0.00147741
0.00141404
0.00129488
0.00124761
0.00113233
0.00108154
0.000957777
0.000904011
0.000766355
0.000690863
0.000554071
0.000454813
0.000379764
0.000331013
0.000331403
0.000339238
0.000391157
0.000421345
0.000539825
0.000560426
0.000632708
0.000550867
0.000447165
0.000277304
0.000243186
0.000238203
0.000251642
0.000362692
0.000290537
0.00024684
0.000156831
0.000172187
0.000212502
0.000191168
0.000254578
0.000300346
0.000511896
0.000577544
0.00216088
0.00311621
0.0259837
0.135347
1.28121
1.08707
0.946121
0.839299
0.734124
0.717865
0.687677
0.691001
0.696475
0.68904
0.660613
0.600056
0.55264
0.501794
0.459737
0.440268
0.428567
0.402521
0.378562
0.344132
0.268724
0.180106
0.0968492
0.051128
0.0264533
0.0137057
0.00730866
0.0039274
0.00220047
0.0014923
0.00130841
0.00123359
0.00111242
0.00108156
0.00112851
0.00139935
0.00220505
0.00398667
0.010139
0.0139768
0.0204617
0.0261605
0.0267581
0.0312763
0.0351746
0.0345935
0.032153
0.0235109
0.0178147
0.0175613
0.0194118
0.0211727
0.0313999
0.0678706
0.0836213
0.0861794
0.0836414
0.0732141
0.0647104
0.0580902
0.0555923
0.055958
0.058597
0.0725445
0.0845465
0.0883881
0.0916439
0.101824
0.110315
0.111354
0.0958587
0.0687115
0.0604104
0.062871
0.0749917
0.0871158
0.0971271
0.0999415
0.0983821
0.0892253
0.0729534
0.0684561
0.071125
0.0928515
0.10523
0.103902
0.0844565
0.0543375
0.0443085
0.0455865
0.0478978
0.0510267
0.0542704
0.0548939
0.0544978
0.0538061
0.0454398
0.0334143
0.0321238
0.0405021
0.0431501
0.0343088
0.0239981
0.0204251
0.0192186
0.0182675
0.0172459
0.0170507
0.0171895
0.0171594
0.0171521
0.0175245
0.0191725
0.0254565
0.0411546
0.0517879
0.0577115
0.0606631
0.0617964
0.0615867
0.0590577
0.0477971
0.0380593
0.0337639
0.0329213
0.0357435
0.0427909
0.0456349
0.0452915
0.0389721
0.027953
0.0203516
0.015238
0.0117116
0.00948271
0.00771513
0.00660075
0.00544857
0.00464455
0.00381895
0.00329074
0.00279345
0.00249069
0.00220309
0.00205136
0.0018775
0.00177511
0.00167963
0.00163634
0.00158955
0.00157232
0.00156271
0.00156143
0.00156498
0.00156539
0.00155854
0.00147817
0.00139116
0.00123413
0.00118514
0.00107644
0.00101756
0.000976127
0.000939148
0.000914205
0.000879465
0.00087164
0.00084578
0.00083303
0.000791883
0.000742123
0.00061889
0.000514674
0.000419602
0.00038996
0.000391008
0.000411422
0.0005107
0.000569342
0.000810405
0.000809142
0.000810428
0.00060741
0.000428458
0.000307183
0.000332408
0.000434487
0.000379264
0.000398374
0.000258295
0.000255099
0.000269257
0.000282131
0.000310496
0.000795812
0.00074763
0.00482642
0.00374284
0.0185032
0.0844279
0.989477
0.871826
0.766244
0.702282
0.601615
0.567172
0.552011
0.556451
0.578688
0.581932
0.581061
0.560078
0.540748
0.522353
0.481193
0.461203
0.422911
0.37793
0.318115
0.243669
0.151674
0.0805808
0.0402435
0.0203064
0.0103978
0.00545628
0.00306734
0.00184978
0.0013028
0.00114117
0.00114755
0.00112424
0.0010477
0.00107427
0.00126865
0.00201044
0.00403254
0.00822133
0.0207216
0.0277745
0.0387271
0.0481842
0.0477494
0.0474631
0.046722
0.0451933
0.0429645
0.0319025
0.0235883
0.0225762
0.0235717
0.0257327
0.0418692
0.0782627
0.0895251
0.0895307
0.0814745
0.0691288
0.0623102
0.057813
0.0556699
0.0556448
0.0572942
0.0695805
0.0822079
0.0866837
0.0904589
0.100059
0.108356
0.11015
0.0967047
0.0701191
0.0623404
0.064727
0.077114
0.0889931
0.0992108
0.102354
0.10077
0.0904338
0.0748959
0.0715113
0.0752786
0.100385
0.110912
0.108118
0.0832577
0.0531312
0.0438724
0.0446895
0.0471734
0.0530067
0.0555886
0.0552976
0.0554942
0.0550261
0.0469315
0.0335806
0.031398
0.0396034
0.0435907
0.034505
0.0241142
0.0206476
0.0192129
0.0184796
0.0173121
0.0169939
0.0170326
0.0170905
0.0171696
0.01768
0.0194393
0.0275162
0.0426855
0.0520924
0.0577333
0.0608031
0.0625911
0.0625552
0.0590769
0.0462324
0.0369584
0.0328831
0.0324008
0.0364373
0.0427889
0.0448635
0.0441577
0.0357245
0.0260811
0.0189547
0.0143832
0.0112106
0.009049
0.00753625
0.0062096
0.00516486
0.00421169
0.00359238
0.00304387
0.0027039
0.00238366
0.00219115
0.00200298
0.00189659
0.00181103
0.00180049
0.00179107
0.00181352
0.00181422
0.00184962
0.00184016
0.00184343
0.00181938
0.00175757
0.00159258
0.0014651
0.00129244
0.00120982
0.00106073
0.000991777
0.000857184
0.000811718
0.000727801
0.000711946
0.000698177
0.000715162
0.000737037
0.000792188
0.000808239
0.000852633
0.000901506
0.00087729
0.000787379
0.000641969
0.000506054
0.000504282
0.000514525
0.000577438
0.000789031
0.000831413
0.00111393
0.000975446
0.000796233
0.000470972
0.000466276
0.000448492
0.000464171
0.000496775
0.000386653
0.00031234
0.000553338
0.000443313
0.00194639
0.00117453
0.00732653
0.00492682
0.0147804
0.0557055
0.659509
0.591237
0.539963
0.498633
0.454029
0.413196
0.3959
0.396778
0.414858
0.422781
0.440438
0.434574
0.434588
0.429582
0.409896
0.385214
0.32914
0.27455
0.209323
0.131479
0.0690094
0.0337426
0.0161002
0.00810664
0.00409684
0.00219479
0.00143966
0.0010916
0.000975774
0.00100785
0.00104964
0.00099966
0.00101054
0.00112295
0.00169293
0.00354289
0.00831929
0.0180178
0.0406499
0.0522572
0.0697548
0.0785287
0.0774455
0.0727232
0.0640285
0.057887
0.0545035
0.0420047
0.031079
0.0287908
0.0291698
0.0313712
0.0558485
0.088611
0.0954272
0.0923908
0.0755394
0.0627545
0.0592282
0.0578268
0.0568234
0.0563144
0.0574691
0.0684377
0.0805111
0.0852698
0.0891061
0.0980544
0.106568
0.109015
0.0968762
0.0717074
0.0644023
0.0668498
0.0795661
0.0913113
0.101312
0.104941
0.103141
0.091338
0.0769354
0.0746154
0.0797541
0.107563
0.116576
0.112222
0.0811193
0.0519231
0.0432792
0.0430647
0.0467924
0.0552106
0.0569915
0.0558802
0.0568046
0.0561742
0.0478524
0.0338159
0.0303158
0.0383375
0.0446291
0.0359677
0.0244966
0.021004
0.019289
0.0185758
0.0174024
0.0169946
0.0169988
0.0170642
0.0172286
0.0179298
0.0201011
0.0303224
0.0446474
0.0525151
0.0578711
0.0615259
0.0639495
0.0637489
0.0580051
0.0441749
0.0358419
0.0324021
0.0322964
0.0376497
0.0430168
0.0442607
0.0423378
0.0329983
0.0238739
0.0178853
0.0134457
0.010828
0.00863101
0.00717018
0.00578544
0.00477694
0.00394283
0.00336197
0.00296376
0.00257137
0.00233285
0.00210393
0.00197539
0.00186053
0.00184626
0.00183063
0.00185776
0.00187088
0.00195123
0.00194638
0.0019661
0.00195828
0.00194452
0.00190469
0.00180962
0.00177118
0.00166921
0.0016273
0.00150077
0.00142495
0.00121586
0.0011044
0.000976315
0.000833384
0.000769124
0.00067115
0.000671282
0.000662072
0.000731132
0.00074688
0.00087887
0.000926502
0.00112907
0.00115781
0.00114919
0.00104477
0.00084083
0.000681821
0.000701031
0.000753829
0.000885144
0.00136748
0.00135327
0.00140325
0.000942966
0.000613159
0.000621378
0.00061522
0.000803382
0.000571952
0.00120057
0.00074841
0.00330806
0.00216725
0.0198082
0.00872611
0.0121096
0.0369511
0.355888
0.310933
0.295272
0.276155
0.269096
0.248794
0.240162
0.241236
0.251621
0.258598
0.274586
0.278485
0.283192
0.28101
0.271172
0.24797
0.214707
0.169054
0.106571
0.0564594
0.0272439
0.0128724
0.00623363
0.00317393
0.00157801
0.00104098
0.00090538
0.000835618
0.000855773
0.000957684
0.000952965
0.000929604
0.000999191
0.00139302
0.0029192
0.00732902
0.0181949
0.0414239
0.0735002
0.0937054
0.113289
0.115857
0.112609
0.105808
0.088073
0.0760289
0.0674824
0.0516148
0.0395801
0.0362101
0.0361053
0.0391409
0.0742496
0.100135
0.10298
0.0936269
0.0694177
0.059383
0.0582285
0.0587012
0.05899
0.0584598
0.0589653
0.0682445
0.0789115
0.0836708
0.0874471
0.095863
0.105253
0.108377
0.0968391
0.0728338
0.0665882
0.0690867
0.0825412
0.0933232
0.103771
0.107535
0.105599
0.0922835
0.0792333
0.0778494
0.0850198
0.115323
0.122134
0.115371
0.0783714
0.0510114
0.0424307
0.0415827
0.0468132
0.0567086
0.0575747
0.0564998
0.0583791
0.0571749
0.0482623
0.0341769
0.0297824
0.0367705
0.0467067
0.0382526
0.0247806
0.0213537
0.0196295
0.0185764
0.0175389
0.017171
0.0170064
0.0170895
0.0173492
0.0182522
0.0210204
0.0334588
0.0461566
0.0531313
0.0591458
0.0637886
0.0656489
0.0646694
0.055971
0.0422501
0.0347327
0.0319996
0.03258
0.0386111
0.0426173
0.0429297
0.0396432
0.0299486
0.0221038
0.0166884
0.012868
0.0103081
0.00822746
0.00669441
0.00547169
0.00452742
0.00383541
0.00330787
0.00298001
0.002573
0.00235264
0.00212187
0.00203274
0.00193634
0.00192928
0.00194002
0.00196495
0.00198556
0.00202372
0.00203229
0.00207808
0.00206173
0.0021269
0.0020904
0.00219244
0.00211095
0.00218425
0.00207135
0.00211466
0.00195808
0.00193664
0.00170347
0.00162468
0.00137351
0.00130799
0.00109219
0.00101204
0.000859409
0.000810433
0.000758953
0.000758934
0.000819168
0.000877873
0.00112451
0.0011868
0.00151979
0.00159072
0.00159409
0.00136729
0.00102876
0.000961619
0.0010781
0.00136028
0.00152207
0.0022471
0.00154068
0.00154158
0.0010888
0.00175514
0.00111909
0.00253535
0.00164211
0.0180817
0.00732162
0.0263346
0.019525
0.0151244
0.0264235
0.136306
0.118451
0.111856
0.10842
0.11009
0.104423
0.102063
0.103115
0.108834
0.118219
0.124866
0.131977
0.137087
0.136329
0.130928
0.118544
0.0938586
0.0634502
0.0369068
0.0186924
0.00917755
0.00469396
0.00244445
0.00125768
0.000769784
0.000753399
0.000747879
0.000741594
0.000809026
0.000886906
0.000856812
0.000901723
0.0011593
0.00224535
0.00602405
0.016187
0.0415845
0.0840941
0.123677
0.148307
0.16198
0.161199
0.154527
0.141207
0.115706
0.0989238
0.0832504
0.0621373
0.0481014
0.0443953
0.0437559
0.0485772
0.0951023
0.113286
0.112429
0.0929767
0.0670933
0.0588839
0.0590172
0.0606032
0.0620243
0.0622786
0.0629142
0.0692841
0.0776669
0.081921
0.0854501
0.093871
0.104199
0.107811
0.0969063
0.0742386
0.068955
0.0718357
0.0853964
0.095803
0.10632
0.110434
0.10814
0.0930945
0.0816754
0.0811111
0.0912261
0.122678
0.127294
0.117503
0.0760968
0.0504427
0.0413229
0.0406943
0.0479048
0.0574415
0.0576924
0.0569135
0.060261
0.0578722
0.0486069
0.0352692
0.0297784
0.0354202
0.047256
0.040277
0.0251773
0.0218361
0.0205505
0.0185383
0.0175818
0.0173649
0.017102
0.0171861
0.0176918
0.0186129
0.023314
0.0366426
0.0469623
0.0537031
0.0606046
0.0655788
0.0668452
0.0649607
0.0534752
0.0403299
0.0336107
0.0317016
0.0331521
0.0394512
0.0422641
0.0421222
0.0372456
0.0276318
0.0204428
0.0158326
0.0122031
0.00990417
0.00766486
0.00638785
0.00525458
0.00445757
0.00382625
0.00332124
0.00307728
0.00262657
0.0024745
0.00228114
0.00230774
0.00226065
0.00229262
0.002287
0.00237039
0.00232913
0.00244714
0.00242557
0.00265195
0.00259577
0.00279619
0.00276269
0.00295585
0.00285536
0.00288251
0.00276331
0.002786
0.00271589
0.00252956
0.00235092
0.00218747
0.00208142
0.00184756
0.0016838
0.00161398
0.00147604
0.001382
0.00116425
0.00110193
0.00099892
0.00101015
0.00103462
0.00113843
0.00122651
0.00176929
0.00175503
0.00283563
0.0022222
0.00259437
0.0018189
0.00193969
0.00183075
0.00271698
0.00237631
0.00319191
0.00208482
0.00461739
0.00305685
0.0267062
0.0105058
0.0339505
0.0161718
0.0230866
0.0224405
0.0210351
0.0263984
0.0341736
0.0318492
0.0311919
0.0312574
0.0323009
0.0305274
0.0296622
0.0296609
0.0311675
0.0355199
0.0390822
0.0406942
0.0450726
0.045625
0.0441018
0.0400954
0.0307065
0.0195966
0.0107293
0.00544969
0.00325352
0.0019009
0.00104474
0.000650694
0.000618361
0.000687359
0.000677304
0.000680651
0.000794474
0.000792486
0.00081938
0.000977042
0.00168998
0.00441203
0.013169
0.0360431
0.0903559
0.144863
0.186586
0.201204
0.201082
0.195061
0.185596
0.173638
0.143043
0.122257
0.101517
0.0748781
0.0587462
0.0547754
0.0537468
0.0611472
0.115946
0.127906
0.120039
0.0894168
0.0652559
0.0600283
0.0617489
0.0626734
0.0632776
0.0656187
0.0666857
0.0708411
0.0767593
0.0801263
0.0833349
0.0923295
0.103443
0.107272
0.0966308
0.0759397
0.0714373
0.0748298
0.0883673
0.0980977
0.109327
0.11348
0.110453
0.0937149
0.084352
0.0844795
0.0986539
0.129357
0.131993
0.118711
0.0745132
0.0499364
0.040245
0.0402512
0.0498045
0.0577815
0.0569681
0.0568766
0.0609431
0.0580098
0.049306
0.037438
0.0301782
0.0338151
0.0468835
0.0427663
0.0268263
0.0224146
0.0218242
0.0187111
0.0177722
0.0175222
0.0173269
0.0174599
0.0181328
0.0196707
0.0276865
0.0396429
0.0476383
0.0543292
0.0615661
0.0664694
0.0672614
0.0640654
0.0499717
0.0383473
0.0327579
0.0316805
0.0344637
0.0400794
0.0422281
0.0415381
0.0347414
0.0258806
0.0189962
0.0150511
0.0114619
0.00937814
0.00723282
0.00615495
0.00518473
0.00442552
0.00389821
0.00333388
0.00315467
0.00277551
0.00270226
0.00258249
0.0026571
0.00262408
0.00270245
0.00270015
0.0029066
0.00288206
0.00314681
0.0031342
0.00354088
0.00346645
0.00383385
0.00373843
0.00424553
0.00406313
0.0044998
0.00425896
0.00498246
0.00456173
0.00509625
0.00449187
0.0054136
0.00446761
0.00500257
0.00390007
0.0048764
0.00386107
0.00459875
0.00335142
0.00389885
0.00299412
0.00334848
0.00247027
0.00242615
0.00206796
0.00246115
0.00230204
0.0034315
0.00314358
0.00530795
0.00422391
0.00573565
0.0041921
0.0070733
0.00475549
0.0230148
0.0114653
0.0913585
0.0401164
0.0852671
0.0444282
0.0494827
0.0351838
0.0324693
0.0252895
0.0239406
0.0270289
0.00587488
0.00560647
0.00561244
0.00565514
0.00581795
0.00532125
0.00504427
0.00497305
0.00533019
0.00641268
0.00799533
0.00844011
0.0103041
0.0110013
0.0108231
0.0099127
0.00713513
0.00452858
0.00257378
0.00181679
0.00152415
0.000915655
0.000603007
0.000543282
0.000608235
0.000653413
0.000601825
0.000652487
0.000726484
0.000756237
0.000855787
0.00130218