/*--------------------------------*- C++ -*----------------------------------*\
| =========                 |                                                 |
| \\      /  F ield         | OpenFOAM: The Open Source CFD Toolbox           |
|  \\    /   O peration     | Version:  2.4.0                                 |
|   \\  /    A nd           | Web:      www.OpenFOAM.org                      |
|    \\/     M anipulation  |                                                 |
\*---------------------------------------------------------------------------*/
FoamFile
{
    version     2.0;
    format      ascii;
    class       volVectorField;
    location    "0.023";
    object      U_0;
}
// * * * * * * * * * * * * * * * * * * * * * * * * * * * * * * * * * * * * * //

dimensions      [0 1 -1 0 0 0 0];

internalField   nonuniform List<vector> 
4400
(
(5.4039 0.316873 0)
(3.31659 0.0607171 0)
(2.57835 0.00137725 0)
(2.22969 -0.00111756 0)
(2.0908 -0.00331835 0)
(1.98361 0.000413755 0)
(1.941 0.000563247 0)
(1.89294 0.000690091 0)
(1.78771 0.00367345 0)
(2.06846 -0.00872179 0)
(8.6841 0.857148 0)
(7.54896 0.345252 0)
(6.60538 0.115975 0)
(5.91317 0.0559377 0)
(5.55676 0.0234024 0)
(5.21694 0.0215605 0)
(5.13437 0.00934038 0)
(5.01064 0.0172201 0)
(4.76042 -0.00786322 0)
(5.36327 0.0684898 0)
(9.88754 0.937082 0)
(10.0127 0.479888 0)
(9.45118 0.213096 0)
(8.74915 0.128049 0)
(8.34912 0.0720504 0)
(7.80024 0.0581494 0)
(7.76656 0.0234299 0)
(7.51547 0.043951 0)
(7.24908 -0.0179084 0)
(7.80565 0.11832 0)
(10.1098 0.804163 0)
(11.157 0.501761 0)
(11.2219 0.268096 0)
(10.7928 0.189354 0)
(10.5882 0.130508 0)
(9.89263 0.103345 0)
(10.0167 0.0424727 0)
(9.62083 0.0798838 0)
(9.43395 -0.0206243 0)
(9.72007 0.151791 0)
(10.0153 0.646125 0)
(11.3908 0.444251 0)
(11.9426 0.252565 0)
(11.8681 0.197447 0)
(12.0787 0.170015 0)
(11.4057 0.143851 0)
(11.719 0.0565687 0)
(11.3113 0.120027 0)
(11.2177 -0.0088154 0)
(11.235 0.165715 0)
(10.0167 0.502717 0)
(11.2761 0.367164 0)
(12.0496 0.214877 0)
(12.1386 0.150127 0)
(12.6277 0.160477 0)
(12.2509 0.163396 0)
(12.6681 0.050806 0)
(12.4436 0.146545 0)
(12.4774 0.0103619 0)
(12.3717 0.214767 0)
(9.96632 0.399949 0)
(11.2088 0.289452 0)
(11.9916 0.154556 0)
(12.2315 0.112084 0)
(12.5242 0.123255 0)
(12.5509 0.146046 0)
(12.9064 0.023503 0)
(12.9245 0.158802 0)
(13.0866 0.0158115 0)
(12.9854 0.250054 0)
(9.98475 0.266221 0)
(11.1663 0.21209 0)
(11.8686 0.128546 0)
(12.3392 0.0672764 0)
(12.3722 0.0819035 0)
(12.5606 0.129669 0)
(12.8961 0.000449682 0)
(13.0299 0.119814 0)
(13.1623 0.0268573 0)
(13.1312 0.237152 0)
(10.0083 0.171002 0)
(11.1038 0.13167 0)
(11.8559 0.0555727 0)
(12.3341 0.0471886 0)
(12.2924 0.0550662 0)
(12.5787 0.0767901 0)
(12.8613 -0.0322602 0)
(12.9913 0.126112 0)
(13.1198 0.0290552 0)
(13.2031 0.134303 0)
(10.0036 0.047764 0)
(11.1038 0.0418727 0)
(11.8372 0.0356179 0)
(12.2993 0.0036683 0)
(12.3189 0.0109171 0)
(12.5522 0.0615554 0)
(12.8278 -0.0455033 0)
(12.991 0.0794946 0)
(13.1338 0.0236048 0)
(13.3163 0.0891698 0)
(10.0082 -0.051164 0)
(11.0973 -0.0389844 0)
(11.8366 -0.0295805 0)
(12.3034 -0.0186033 0)
(12.3213 -0.0142153 0)
(12.5305 0.00851416 0)
(12.8529 -0.0735371 0)
(12.996 0.0738116 0)
(13.148 0.000915996 0)
(13.2932 0.0296506 0)
(10.0045 -0.170634 0)
(11.1144 -0.129062 0)
(11.8531 -0.0523132 0)
(12.3088 -0.0631948 0)
(12.3347 -0.0531114 0)
(12.5441 -0.0138987 0)
(12.8676 -0.0922514 0)
(13.0096 0.0313243 0)
(13.1403 -0.0125517 0)
(13.1156 0.0794679 0)
(10.0012 -0.276432 0)
(11.1455 -0.208231 0)
(11.8837 -0.111903 0)
(12.3236 -0.09004 0)
(12.3612 -0.0810284 0)
(12.5726 -0.0627137 0)
(12.8907 -0.119107 0)
(13.035 0.0201968 0)
(13.1387 -0.0165369 0)
(13.2649 -0.0298959 0)
(9.99409 -0.394822 0)
(11.2098 -0.291714 0)
(11.9281 -0.149056 0)
(12.316 -0.128828 0)
(12.4194 -0.116326 0)
(12.6276 -0.0968726 0)
(12.8668 -0.138369 0)
(12.9534 -0.01134 0)
(13.068 -0.045564 0)
(13.1381 -0.0481895 0)
(9.99808 -0.514258 0)
(11.299 -0.360719 0)
(11.9768 -0.202885 0)
(12.2725 -0.169756 0)
(12.4138 -0.1495 0)
(12.4866 -0.126071 0)
(12.5248 -0.146144 0)
(12.4591 -0.0228552 0)
(12.5119 -0.0469638 0)
(12.4269 -0.0309223 0)
(10.0388 -0.64783 0)
(11.3652 -0.437779 0)
(11.914 -0.252401 0)
(11.9635 -0.205946 0)
(11.8766 -0.163148 0)
(11.6821 -0.12151 0)
(11.5131 -0.122973 0)
(11.323 -0.0201106 0)
(11.3534 -0.0465231 0)
(11.1837 -0.0590493 0)
(10.1115 -0.808276 0)
(11.1353 -0.497701 0)
(11.2233 -0.269161 0)
(10.834 -0.19108 0)
(10.4635 -0.129737 0)
(10.1011 -0.0862521 0)
(9.84057 -0.0852592 0)
(9.61807 -0.011417 0)
(9.67073 -0.0370388 0)
(9.40654 -0.0338506 0)
(9.88402 -0.938094 0)
(10.0008 -0.476814 0)
(9.45953 -0.2147 0)
(8.76241 -0.127248 0)
(8.28669 -0.0744691 0)
(7.92167 -0.0453035 0)
(7.67004 -0.0483089 0)
(7.47703 -0.00472653 0)
(7.54507 -0.0263667 0)
(7.23637 -0.0175086 0)
(8.68084 -0.857784 0)
(7.54385 -0.344091 0)
(6.61144 -0.116944 0)
(5.91681 -0.0547081 0)
(5.53007 -0.0259281 0)
(5.27881 -0.0140568 0)
(5.09898 -0.0200474 0)
(4.96632 -0.00189617 0)
(5.01711 -0.0127149 0)
(4.73556 -0.00784037 0)
(5.40223 -0.316967 0)
(3.31553 -0.0604985 0)
(2.57988 -0.00163872 0)
(2.23222 0.00171348 0)
(2.08203 0.00207828 0)
(2.00573 0.00190478 0)
(1.93741 -0.00224319 0)
(1.88161 -5.33908e-06 0)
(1.89007 -0.00131838 0)
(1.75953 0.00974248 0)
(1.39461 0.232704 0)
(2.154 0.310668 0)
(3.67017 0.6969 0)
(4.47947 1.64424 0)
(6.51587 1.72888 0)
(6.66989 2.07506 0)
(8.64846 0.351113 0)
(11.29 -1.34278 0)
(11.335 -0.978353 0)
(10.9398 -1.80946 0)
(11.4017 -4.37004 0)
(11.6372 -5.66159 0)
(10.4641 -5.62558 0)
(8.3051 -5.23551 0)
(7.28822 -4.49725 0)
(7.51009 -3.74087 0)
(7.87014 -3.1098 0)
(7.73645 -2.5745 0)
(7.1749 -2.17615 0)
(6.58808 -1.84075 0)
(6.20807 -1.4838 0)
(5.98424 -1.13899 0)
(5.81838 -0.861932 0)
(5.68129 -0.658793 0)
(5.57603 -0.509965 0)
(5.50178 -0.397902 0)
(5.45114 -0.311958 0)
(5.41635 -0.245426 0)
(5.39202 -0.193551 0)
(5.37485 -0.152843 0)
(5.36271 -0.120747 0)
(5.35417 -0.0953709 0)
(5.34819 -0.0752822 0)
(5.34399 -0.0593717 0)
(5.34106 -0.0467716 0)
(5.339 -0.0367958 0)
(5.33755 -0.0288991 0)
(5.33653 -0.0226514 0)
(5.33581 -0.0177106 0)
(5.33529 -0.0138045 0)
(5.33492 -0.0107159 0)
(5.33466 -0.00827135 0)
(5.33446 -0.0063331 0)
(5.33432 -0.00479197 0)
(5.33422 -0.00356065 0)
(5.33415 -0.00256825 0)
(5.3341 -0.0017579 0)
(5.33406 -0.00108349 0)
(5.33403 -0.000507657 0)
(5.33402 1.74342e-07 0)
(5.33401 0.000468934 0)
(5.33401 0.000919546 0)
(5.33401 0.00137379 0)
(5.33402 0.00185229 0)
(5.33404 0.00237426 0)
(5.33406 0.00295996 0)
(5.3341 0.00363142 0)
(5.33414 0.00441298 0)
(5.3342 0.00533015 0)
(5.33427 0.00641749 0)
(5.33439 0.00770368 0)
(5.3345 0.00925258 0)
(5.33474 0.0110627 0)
(5.33485 0.0133274 0)
(5.33548 0.0158011 0)
(5.33529 0.0193418 0)
(5.3373 0.0222707 0)
(5.33533 0.0288261 0)
(5.34227 0.0300716 0)
(5.33295 0.0460558 0)
(5.35643 0.0354296 0)
(5.32204 0.0841597 0)
(5.39412 0.0243749 0)
(5.2892 0.180426 0)
(5.47658 -0.0358583 0)
(5.21985 0.410137 0)
(5.58686 -0.178844 0)
(5.14711 0.795167 0)
(5.58068 -0.343373 0)
(5.17571 1.07791 0)
(5.36684 -0.393299 0)
(5.34154 0.998727 0)
(5.17006 -0.179932 0)
(5.40228 0.693981 0)
(5.28721 0.212475 0)
(5.14305 0.725821 0)
(5.36791 0.313122 0)
(5.17716 0.950716 0)
(5.1706 0.585124 0)
(5.18678 1.05731 0)
(5.33857 0.960519 0)
(5.20671 1.41709 0)
(5.33044 1.43976 0)
(5.1744 1.90785 0)
(5.22351 2.13044 0)
(4.87061 3.2131 0)
(6.0956 3.09573 0)
(4.91468 5.13942 0)
(5.66375 5.65432 0)
(3.11375 9.97059 0)
(4.09029 0.374977 0)
(4.65805 0.172237 0)
(4.79782 0.246861 0)
(5.28547 1.09689 0)
(6.50479 1.41729 0)
(7.07789 1.25154 0)
(9.31075 -0.816589 0)
(10.6318 -1.79536 0)
(10.6734 -1.00002 0)
(11.5264 -1.92972 0)
(12.1606 -4.53595 0)
(11.8934 -5.74394 0)
(11.3302 -5.20649 0)
(10.1007 -4.5431 0)
(8.82478 -4.16802 0)
(8.31856 -3.7522 0)
(8.29551 -3.14038 0)
(8.09925 -2.45547 0)
(7.53466 -1.93228 0)
(6.8615 -1.60282 0)
(6.35901 -1.32893 0)
(6.06777 -1.04793 0)
(5.888 -0.796634 0)
(5.7483 -0.605508 0)
(5.63356 -0.468714 0)
(5.54604 -0.36848 0)
(5.48383 -0.291752 0)
(5.44079 -0.231503 0)
(5.41081 -0.183788 0)
(5.38958 -0.145913 0)
(5.37438 -0.115808 0)
(5.36344 -0.091851 0)
(5.35554 -0.0727739 0)
(5.34983 -0.0575817 0)
(5.34569 -0.0454906 0)
(5.34267 -0.0358754 0)
(5.34046 -0.0282338 0)
(5.33884 -0.0221684 0)
(5.33763 -0.0173583 0)
(5.33673 -0.0135458 0)
(5.33606 -0.010525 0)
(5.33556 -0.00813 0)
(5.33518 -0.00622803 0)
(5.3349 -0.00471376 0)
(5.33468 -0.0035026 0)
(5.33452 -0.00252555 0)
(5.33441 -0.0017268 0)
(5.33432 -0.00106136 0)
(5.33426 -0.000492529 0)
(5.33422 1.01734e-05 0)
(5.3342 0.000472812 0)
(5.3342 0.000918956 0)
(5.33421 0.00136908 0)
(5.33423 0.00184317 0)
(5.33427 0.00236049 0)
(5.33432 0.00294107 0)
(5.3344 0.0036065 0)
(5.33449 0.00438067 0)
(5.33462 0.0052888 0)
(5.33477 0.00636444 0)
(5.33498 0.00763558 0)
(5.33519 0.00916448 0)
(5.33558 0.0109479 0)
(5.33583 0.013179 0)
(5.33673 0.015596 0)
(5.33661 0.0190972 0)
(5.33928 0.0218524 0)
(5.33684 0.0284984 0)
(5.34602 0.0289731 0)
(5.33353 0.0461015 0)
(5.36534 0.0316761 0)
(5.31733 0.0872178 0)
(5.41891 0.010462 0)
(5.2679 0.196831 0)
(5.54444 -0.0814326 0)
(5.1667 0.468513 0)
(5.74221 -0.289431 0)
(5.06237 0.933554 0)
(5.8608 -0.522727 0)
(5.02689 1.29869 0)
(5.80149 -0.629212 0)
(5.12527 1.27261 0)
(5.67915 -0.434309 0)
(5.3513 0.980549 0)
(5.55764 0.0194997 0)
(5.24484 1.01291 0)
(5.44473 0.138225 0)
(5.1195 1.19181 0)
(5.11147 0.407243 0)
(5.10655 1.23966 0)
(5.16571 0.736083 0)
(5.06314 1.76309 0)
(5.25721 1.12585 0)
(5.35363 2.41249 0)
(5.15146 2.12648 0)
(4.69107 3.5745 0)
(5.48779 2.70237 0)
(4.99043 5.07818 0)
(8.44489 4.77237 0)
(5.61047 10.3053 0)
(6.8765 0.425793 0)
(7.3973 0.196583 0)
(7.26698 0.123595 0)
(7.17524 0.794734 0)
(8.01011 1.22868 0)
(9.12885 0.657 0)
(10.5947 -1.23994 0)
(10.5523 -1.80636 0)
(10.909 -1.12894 0)
(12.8244 -2.17477 0)
(13.2513 -4.55976 0)
(12.1246 -5.72824 0)
(11.458 -5.14356 0)
(11.0626 -4.20201 0)
(10.2439 -3.75145 0)
(9.29351 -3.51468 0)
(8.67415 -2.99636 0)
(8.20941 -2.27412 0)
(7.63958 -1.68888 0)
(7.00438 -1.35349 0)
(6.46956 -1.14234 0)
(6.12217 -0.93532 0)
(5.9202 -0.726317 0)
(5.78422 -0.552058 0)
(5.67396 -0.42528 0)
(5.58349 -0.3352 0)
(5.51425 -0.267856 0)
(5.46417 -0.214803 0)
(5.4287 -0.172062 0)
(5.40349 -0.13755 0)
(5.38535 -0.109767 0)
(5.37216 -0.0874566 0)
(5.3625 -0.0695662 0)
(5.35539 -0.055233 0)
(5.35012 -0.0437634 0)
(5.3462 -0.0345988 0)
(5.34327 -0.0272859 0)
(5.34107 -0.0214609 0)
(5.3394 -0.0168274 0)
(5.33814 -0.0131452 0)
(5.33718 -0.0102216 0)
(5.33645 -0.0079002 0)
(5.33589 -0.00605375 0)
(5.33546 -0.00458137 0)
(5.33514 -0.00340243 0)
(5.33489 -0.00245047 0)
(5.33471 -0.00167138 0)
(5.33457 -0.00102143 0)
(5.33448 -0.000465227 0)
(5.33442 2.72694e-05 0)
(5.33439 0.000480497 0)
(5.33438 0.000918406 0)
(5.3344 0.00136094 0)
(5.33444 0.00182737 0)
(5.3345 0.00233663 0)
(5.33458 0.00290842 0)
(5.3347 0.00356375 0)
(5.33484 0.00432593 0)
(5.33503 0.00521976 0)
(5.33525 0.00627746 0)
(5.33555 0.00752668 0)
(5.33588 0.00902631 0)
(5.33641 0.0107748 0)
(5.33679 0.0129555 0)
(5.33795 0.0153125 0)
(5.33788 0.0187308 0)
(5.34125 0.0213461 0)
(5.33821 0.0279387 0)
(5.34985 0.0278381 0)
(5.33345 0.0456286 0)
(5.37513 0.0280471 0)
(5.30956 0.0892008 0)
(5.44878 -0.0039159 0)
(5.23366 0.212671 0)
(5.63445 -0.136 0)
(5.07603 0.535685 0)
(5.96025 -0.445663 0)
(4.95406 1.10711 0)
(6.23776 -0.806661 0)
(5.0601 1.51873 0)
(6.41956 -0.951318 0)
(5.23119 1.39617 0)
(6.79601 -0.683162 0)
(5.52481 1.03419 0)
(6.85401 -0.0950535 0)
(5.68115 1.17433 0)
(6.62719 -0.0180125 0)
(5.551 1.51616 0)
(6.09463 0.175643 0)
(5.52628 1.48219 0)
(5.51073 0.546722 0)
(5.14573 1.80982 0)
(5.51168 0.830725 0)
(5.23338 2.26588 0)
(6.49965 1.81457 0)
(6.00933 3.56443 0)
(7.70775 2.62942 0)
(4.54147 5.78183 0)
(8.32792 4.23937 0)
(6.48449 10.5679 0)
(9.24798 0.40091 0)
(9.6445 0.160518 0)
(9.74906 0.0298263 0)
(9.62706 0.667929 0)
(10.1382 1.05524 0)
(11.5183 0.179147 0)
(12.5703 -1.42121 0)
(11.8158 -1.82517 0)
(12.1306 -1.58043 0)
(14.0553 -2.54928 0)
(14.1437 -4.31714 0)
(12.3589 -5.32504 0)
(11.1777 -4.97656 0)
(10.9402 -4.13135 0)
(10.5754 -3.51159 0)
(9.68837 -3.18503 0)
(8.77524 -2.70885 0)
(8.05067 -2.01089 0)
(7.45332 -1.43744 0)
(6.94839 -1.12717 0)
(6.5128 -0.962234 0)
(6.1686 -0.814028 0)
(5.93902 -0.650964 0)
(5.79409 -0.499928 0)
(5.6901 -0.383542 0)
(5.60588 -0.301154 0)
(5.53746 -0.241587 0)
(5.4845 -0.195576 0)
(5.44516 -0.158329 0)
(5.41648 -0.127743 0)
(5.39561 -0.102687 0)
(5.38032 -0.082282 0)
(5.36902 -0.065746 0)
(5.36061 -0.0523908 0)
(5.3543 -0.0416365 0)
(5.34955 -0.0329992 0)
(5.34594 -0.0260768 0)
(5.3432 -0.0205427 0)
(5.3411 -0.0161278 0)
(5.33949 -0.0126106 0)
(5.33825 -0.00981196 0)
(5.3373 -0.00758592 0)
(5.33657 -0.00581266 0)
(5.336 -0.00439668 0)
(5.33557 -0.00326167 0)
(5.33525 -0.0023443 0)
(5.335 -0.00159253 0)
(5.33482 -0.000964443 0)
(5.3347 -0.000426036 0)
(5.33461 5.14338e-05 0)
(5.33457 0.000491556 0)
(5.33456 0.000917589 0)
(5.33458 0.00134892 0)
(5.33464 0.00180421 0)
(5.33472 0.00230192 0)
(5.33484 0.00286127 0)
(5.33499 0.00350261 0)
(5.33518 0.00424838 0)
(5.33543 0.00512296 0)
(5.33573 0.00615678 0)
(5.33612 0.00737771 0)
(5.33655 0.00883901 0)
(5.33722 0.0105457 0)
(5.33772 0.0126583 0)
(5.33914 0.0149571 0)
(5.33911 0.0182402 0)
(5.34316 0.0207783 0)
(5.33944 0.0271093 0)
(5.35368 0.0268081 0)
(5.33289 0.044348 0)
(5.3853 0.0254207 0)
(5.29966 0.0881158 0)
(5.4813 -0.0134599 0)
(5.18866 0.216237 0)
(5.7422 -0.173245 0)
(4.92629 0.564417 0)
(6.28115 -0.563594 0)
(4.58587 1.22541 0)
(6.96924 -1.05427 0)
(4.49169 1.75164 0)
(7.64104 -1.28696 0)
(4.61388 1.6653 0)
(8.4027 -1.08335 0)
(5.14867 1.36538 0)
(8.52024 -0.500172 0)
(5.83915 1.44709 0)
(8.56855 -0.315483 0)
(5.93956 1.81347 0)
(8.5442 -0.0140469 0)
(6.11834 1.91198 0)
(7.86708 0.597708 0)
(5.59488 2.31633 0)
(6.52352 0.789257 0)
(4.60096 2.81715 0)
(5.72807 0.90884 0)
(4.97554 3.72465 0)
(8.31841 1.81703 0)
(5.9718 5.50778 0)
(11.1222 3.02933 0)
(7.88777 9.94039 0)
(11.0687 0.365283 0)
(11.2875 0.100436 0)
(11.6802 -0.132568 0)
(11.695 0.539082 0)
(11.9169 0.831087 0)
(13.2069 -0.295554 0)
(14.0115 -1.5421 0)
(13.493 -1.66032 0)
(13.7375 -1.82671 0)
(14.8452 -2.72376 0)
(14.5819 -3.79308 0)
(12.6716 -4.56265 0)
(11.1036 -4.43911 0)
(10.5352 -3.85694 0)
(10.1196 -3.29536 0)
(9.33414 -2.84578 0)
(8.49053 -2.3534 0)
(7.75471 -1.72372 0)
(7.15707 -1.21008 0)
(6.76795 -0.944035 0)
(6.49279 -0.811036 0)
(6.22658 -0.695905 0)
(5.98648 -0.56939 0)
(5.81133 -0.446508 0)
(5.6949 -0.345488 0)
(5.61288 -0.270883 0)
(5.54936 -0.216841 0)
(5.49846 -0.175978 0)
(5.45842 -0.143399 0)
(5.42783 -0.116643 0)
(5.4049 -0.0945061 0)
(5.38782 -0.0762423 0)
(5.37506 -0.0612598 0)
(5.36548 -0.0490348 0)
(5.35822 -0.039108 0)
(5.35269 -0.0310817 0)
(5.34846 -0.0246148 0)
(5.34521 -0.0194232 0)
(5.34271 -0.0152676 0)
(5.34077 -0.0119473 0)
(5.33927 -0.00929946 0)
(5.33811 -0.00719007 0)
(5.33722 -0.00550748 0)
(5.33652 -0.00416192 0)
(5.33599 -0.0030819 0)
(5.33559 -0.00220813 0)
(5.33528 -0.00149124 0)
(5.33506 -0.000891319 0)
(5.3349 -0.000376121 0)
(5.3348 8.18719e-05 0)
(5.33475 0.000505178 0)
(5.33474 0.000916014 0)
(5.33477 0.00133304 0)
(5.33483 0.00177411 0)
(5.33494 0.0022571 0)
(5.33508 0.0028006 0)
(5.33528 0.00342411 0)
(5.33552 0.00414918 0)
(5.33582 0.00499969 0)
(5.33619 0.00600379 0)
(5.33667 0.0071902 0)
(5.3372 0.00860436 0)
(5.33801 0.0102631 0)
(5.33862 0.0122895 0)
(5.34029 0.0145361 0)
(5.34028 0.0176249 0)
(5.34501 0.0201703 0)
(5.34054 0.025996 0)
(5.35748 0.0259388 0)
(5.33181 0.0422759 0)
(5.39579 0.0237361 0)
(5.28795 0.0847202 0)
(5.51383 -0.019705 0)
(5.14211 0.212163 0)
(5.83747 -0.199677 0)
(4.79703 0.564821 0)
(6.53124 -0.654589 0)
(4.30859 1.26743 0)
(7.48648 -1.24954 0)
(4.06384 1.86167 0)
(8.20887 -1.49016 0)
(4.27387 1.74404 0)
(8.38953 -1.34108 0)
(5.02294 1.58644 0)
(8.19109 -0.94491 0)
(5.65207 1.6781 0)
(8.70632 -0.802153 0)
(5.95402 2.06321 0)
(9.33729 -0.705061 0)
(6.8965 2.07894 0)
(10.2331 0.0271494 0)
(6.96848 2.63015 0)
(10.8185 0.600367 0)
(6.69052 3.20138 0)
(10.2204 1.46803 0)
(4.56615 4.00203 0)
(9.20699 1.77747 0)
(4.00623 6.0987 0)
(10.2561 1.71735 0)
(8.72581 9.20911 0)
(12.2338 0.352338 0)
(12.4473 -0.0827494 0)
(13.014 -0.426723 0)
(13.0068 0.413943 0)
(13.4275 0.720451 0)
(14.3487 -0.63145 0)
(14.0904 -1.79553 0)
(13.9348 -1.66703 0)
(14.5687 -1.90414 0)
(14.8978 -2.89621 0)
(14.367 -3.60343 0)
(12.7309 -4.08832 0)
(11.3053 -4.06276 0)
(10.7627 -3.47976 0)
(10.1777 -2.91207 0)
(9.15895 -2.43955 0)
(8.22426 -1.95081 0)
(7.57497 -1.42755 0)
(7.05151 -1.02975 0)
(6.69214 -0.826061 0)
(6.48766 -0.705351 0)
(6.3053 -0.586643 0)
(6.0869 -0.472195 0)
(5.8784 -0.375958 0)
(5.72346 -0.299543 0)
(5.62217 -0.239918 0)
(5.55495 -0.193724 0)
(5.50579 -0.157735 0)
(5.46723 -0.129032 0)
(5.43663 -0.105566 0)
(5.41275 -0.0860937 0)
(5.39444 -0.0698794 0)
(5.38051 -0.0564323 0)
(5.36991 -0.0453514 0)
(5.36182 -0.0362829 0)
(5.3556 -0.0289068 0)
(5.35081 -0.0229356 0)
(5.3471 -0.0181233 0)
(5.34422 -0.0142596 0)
(5.34198 -0.0111648 0)
(5.34023 -0.00869171 0)
(5.33888 -0.00671833 0)
(5.33783 -0.00514207 0)
(5.33701 -0.00387986 0)
(5.33639 -0.00286547 0)
(5.33591 -0.00204396 0)
(5.33555 -0.00136902 0)
(5.33529 -0.000802947 0)
(5.3351 -0.000315793 0)
(5.33498 0.00011837 0)
(5.33492 0.000521514 0)
(5.33491 0.000913775 0)
(5.33494 0.00131338 0)
(5.33502 0.00173712 0)
(5.33515 0.00220216 0)
(5.33532 0.00272638 0)
(5.33555 0.00332841 0)
(5.33584 0.00402865 0)
(5.3362 0.00485043 0)
(5.33664 0.00581925 0)
(5.33721 0.00696532 0)
(5.33783 0.00832406 0)
(5.33876 0.00992951 0)
(5.33949 0.0118515 0)
(5.34138 0.0140568 0)
(5.34142 0.0168807 0)
(5.34675 0.0195628 0)
(5.34156 0.0245202 0)
(5.36122 0.0254899 0)
(5.33 0.0388598 0)
(5.40773 0.0243824 0)
(5.27033 0.0764953 0)
(5.55778 -0.0170813 0)
(5.06296 0.193374 0)
(5.9806 -0.198886 0)
(4.54892 0.527759 0)
(6.88443 -0.680766 0)
(3.79127 1.25527 0)
(7.99306 -1.37082 0)
(3.53435 2.01714 0)
(8.16152 -1.79483 0)
(4.28928 2.08293 0)
(7.13725 -1.83814 0)
(5.16867 1.92933 0)
(6.76762 -1.28105 0)
(5.02279 1.99845 0)
(7.2755 -1.13826 0)
(5.18601 2.47624 0)
(8.04008 -1.18176 0)
(5.2717 2.46366 0)
(10.03 -0.465108 0)
(5.59337 2.87982 0)
(12.5082 -0.170928 0)
(6.51192 3.30635 0)
(14.6556 0.722726 0)
(6.93654 4.28553 0)
(14.5788 1.08438 0)
(7.02168 6.27254 0)
(10.827 1.42613 0)
(8.4866 8.42741 0)
(12.9944 0.266071 0)
(13.5079 -0.236422 0)
(13.5779 -0.575564 0)
(13.1915 0.211721 0)
(14.2683 0.481073 0)
(15.0215 -0.59453 0)
(13.9334 -1.59064 0)
(13.7575 -1.71064 0)
(14.5044 -1.97257 0)
(14.4753 -2.78121 0)
(14.2287 -3.28678 0)
(13.1158 -3.57686 0)
(11.5962 -3.79224 0)
(11.1233 -3.36186 0)
(10.7336 -2.61353 0)
(9.63175 -2.06245 0)
(8.4131 -1.60993 0)
(7.6641 -1.16229 0)
(7.23047 -0.860116 0)
(6.87688 -0.736934 0)
(6.59604 -0.649483 0)
(6.3945 -0.515832 0)
(6.20465 -0.379203 0)
(5.99777 -0.286828 0)
(5.80843 -0.234385 0)
(5.66755 -0.198408 0)
(5.57486 -0.166544 0)
(5.51483 -0.137799 0)
(5.4734 -0.113276 0)
(5.44256 -0.0930299 0)
(5.41862 -0.0763403 0)
(5.39988 -0.0624491 0)
(5.38526 -0.0508246 0)
(5.3739 -0.0411163 0)
(5.3651 -0.0330642 0)
(5.35827 -0.0264407 0)
(5.35297 -0.0210328 0)
(5.34883 -0.016648 0)
(5.34561 -0.0131123 0)
(5.34309 -0.0102712 0)
(5.34113 -0.00799491 0)
(5.33959 -0.00617537 0)
(5.3384 -0.00472034 0)
(5.33747 -0.00355376 0)
(5.33676 -0.00261483 0)
(5.33621 -0.0018534 0)
(5.3358 -0.00122675 0)
(5.3355 -0.000700092 0)
(5.33529 -0.000245447 0)
(5.33515 0.000161023 0)
(5.33508 0.000540235 0)
(5.33507 0.000910959 0)
(5.33511 0.00128999 0)
(5.3352 0.00169328 0)
(5.33535 0.00213733 0)
(5.33555 0.00263909 0)
(5.33582 0.00321608 0)
(5.33615 0.00388754 0)
(5.33657 0.00467617 0)
(5.33707 0.00560456 0)
(5.33772 0.00670467 0)
(5.33843 0.00800044 0)
(5.33948 0.00954703 0)
(5.34034 0.0113491 0)
(5.34239 0.0135221 0)
(5.34255 0.0160162 0)
(5.34827 0.0189668 0)
(5.34277 0.0226672 0)
(5.36417 0.0255947 0)
(5.3293 0.0337457 0)
(5.41673 0.0284905 0)
(5.25716 0.0608916 0)
(5.59089 0.000779757 0)
(4.9996 0.149498 0)
(6.07781 -0.152313 0)
(4.36146 0.431197 0)
(7.04421 -0.631419 0)
(3.49629 1.16736 0)
(7.9844 -1.50367 0)
(3.57296 2.14007 0)
(7.55687 -2.21018 0)
(4.81861 2.32192 0)
(6.29462 -2.20353 0)
(5.43534 2.0297 0)
(6.52548 -1.40095 0)
(5.00883 2.03798 0)
(7.01351 -1.37077 0)
(5.11844 2.54483 0)
(7.14112 -1.43877 0)
(4.87398 2.64641 0)
(8.18711 -0.823286 0)
(4.2528 3.26996 0)
(8.99521 -0.846222 0)
(4.90089 3.92127 0)
(11.124 -0.0668953 0)
(6.39679 4.92248 0)
(12.9716 0.380394 0)
(8.66157 6.3938 0)
(13.3401 1.88292 0)
(9.50187 7.48671 0)
(13.3891 0.104551 0)
(13.9111 -0.338015 0)
(13.5812 -0.433125 0)
(13.2747 0.0657185 0)
(14.2724 0.0809516 0)
(14.8021 -0.445266 0)
(14.1187 -1.30624 0)
(13.7167 -2.03045 0)
(14.1573 -2.2222 0)
(14.0982 -2.52729 0)
(14.1315 -2.93002 0)
(13.8339 -3.05709 0)
(12.1632 -3.19529 0)
(11.0717 -3.10342 0)
(10.6939 -2.37452 0)
(9.96755 -1.58943 0)
(8.94003 -1.17541 0)
(8.10748 -0.903425 0)
(7.64921 -0.666318 0)
(7.29608 -0.555231 0)
(6.8662 -0.520838 0)
(6.47994 -0.442177 0)
(6.22794 -0.315292 0)
(6.05212 -0.211375 0)
(5.89391 -0.160474 0)
(5.75008 -0.142834 0)
(5.6339 -0.132055 0)
(5.54949 -0.117795 0)
(5.49167 -0.100781 0)
(5.4523 -0.083968 0)
(5.42465 -0.0690134 0)
(5.4044 -0.0563253 0)
(5.38905 -0.0457505 0)
(5.37717 -0.0369907 0)
(5.36788 -0.0297623 0)
(5.3606 -0.0238252 0)
(5.35489 -0.0189738 0)
(5.3504 -0.0150315 0)
(5.34687 -0.0118442 0)
(5.34411 -0.00927743 0)
(5.34194 -0.00721715 0)
(5.34024 -0.00556773 0)
(5.33892 -0.00424713 0)
(5.33789 -0.00318697 0)
(5.33709 -0.00233228 0)
(5.33649 -0.00163827 0)
(5.33603 -0.00106619 0)
(5.33569 -0.000584108 0)
(5.33546 -0.000166584 0)
(5.33531 0.000208801 0)
(5.33523 0.000560755 0)
(5.33522 0.00090686 0)
(5.33527 0.00126254 0)
(5.33537 0.00164265 0)
(5.33554 0.0020629 0)
(5.33577 0.00253912 0)
(5.33607 0.00308774 0)
(5.33645 0.00372676 0)
(5.33692 0.00447804 0)
(5.33749 0.00536112 0)
(5.3382 0.00640981 0)
(5.33901 0.00763623 0)
(5.34015 0.00911736 0)
(5.34115 0.0107892 0)
(5.34332 0.0129282 0)
(5.3437 0.0150602 0)
(5.3495 0.018336 0)
(5.34435 0.0205825 0)
(5.36584 0.0259572 0)
(5.33099 0.0276666 0)
(5.41988 0.034515 0)
(5.25552 0.041342 0)
(5.60078 0.0267972 0)
(4.97855 0.0951674 0)
(6.10413 -0.0857263 0)
(4.28123 0.326137 0)
(7.07858 -0.563705 0)
(3.2956 1.10323 0)
(8.0215 -1.66257 0)
(3.36479 2.42253 0)
(7.44523 -2.68234 0)
(4.92675 2.76925 0)
(6.13216 -2.49806 0)
(5.15054 2.20145 0)
(6.7903 -1.57252 0)
(4.64636 2.31841 0)
(7.10223 -1.87109 0)
(5.09117 2.8704 0)
(7.1296 -1.80548 0)
(5.09001 2.52506 0)
(7.88013 -1.15751 0)
(5.15566 3.28916 0)
(7.55896 -1.42775 0)
(5.72507 3.84337 0)
(7.90254 -0.930695 0)
(6.37022 5.31337 0)
(9.01783 -0.583124 0)
(7.75357 6.56647 0)
(12.1065 1.83021 0)
(10.3806 6.93148 0)
(13.4967 -0.0399059 0)
(13.8355 -0.27257 0)
(13.7217 -0.263039 0)
(13.2554 -0.139375 0)
(13.0963 -0.12558 0)
(14.227 -0.44445 0)
(15.0305 -1.2268 0)
(13.9145 -1.74779 0)
(13.5052 -1.96327 0)
(13.5588 -2.55912 0)
(13.0014 -3.10277 0)
(13.2389 -2.96034 0)
(12.6961 -2.61791 0)
(11.4652 -2.49329 0)
(10.718 -2.13496 0)
(10.0782 -1.36689 0)
(9.46332 -0.785697 0)
(8.80444 -0.632222 0)
(8.19659 -0.550861 0)
(7.72384 -0.376203 0)
(7.18258 -0.264969 0)
(6.5726 -0.245998 0)
(6.10845 -0.216809 0)
(5.86155 -0.16084 0)
(5.75008 -0.112741 0)
(5.68572 -0.0851829 0)
(5.62696 -0.0747369 0)
(5.5674 -0.0711319 0)
(5.51328 -0.067503 0)
(5.46947 -0.0618514 0)
(5.43644 -0.0545557 0)
(5.41218 -0.0466464 0)
(5.39431 -0.03898 0)
(5.38093 -0.0320416 0)
(5.37071 -0.0260242 0)
(5.36281 -0.0209441 0)
(5.35665 -0.0167288 0)
(5.35181 -0.0132724 0)
(5.34801 -0.0104629 0)
(5.34502 -0.00819305 0)
(5.34267 -0.00636663 0)
(5.34083 -0.00490136 0)
(5.33939 -0.00372683 0)
(5.33827 -0.00278308 0)
(5.3374 -0.00202115 0)
(5.33674 -0.00140146 0)
(5.33624 -0.000889406 0)
(5.33587 -0.000456476 0)
(5.33562 -7.97945e-05 0)
(5.33545 0.000261056 0)
(5.33537 0.000582546 0)
(5.33536 0.000901361 0)
(5.33542 0.00123114 0)
(5.33554 0.00158546 0)
(5.33572 0.00197918 0)
(5.33598 0.00242696 0)
(5.33631 0.00294405 0)
(5.33673 0.00354716 0)
(5.33725 0.00425705 0)
(5.33788 0.00509042 0)
(5.33866 0.00608243 0)
(5.33956 0.00723423 0)
(5.34079 0.00864205 0)
(5.34193 0.0101795 0)
(5.34416 0.01227 0)
(5.34485 0.0140451 0)
(5.35044 0.0176141 0)
(5.34631 0.0184357 0)
(5.36615 0.026228 0)
(5.33531 0.0214326 0)
(5.41665 0.0408505 0)
(5.26694 0.0207563 0)
(5.58525 0.055807 0)
(5.00718 0.0361731 0)
(6.05686 -0.00394308 0)
(4.33518 0.206674 0)
(6.96758 -0.44505 0)
(3.34671 0.983975 0)
(7.81743 -1.72944 0)
(3.40377 2.60067 0)
(6.88794 -3.07576 0)
(5.28002 2.97089 0)
(5.48267 -2.57775 0)
(5.24838 2.17203 0)
(6.2576 -1.61118 0)
(4.64607 2.36116 0)
(6.31586 -2.15713 0)
(5.21499 3.03164 0)
(6.30043 -2.0774 0)
(4.76627 2.8469 0)
(6.99649 -1.50795 0)
(5.19611 3.66585 0)
(6.82479 -1.96075 0)
(5.68135 4.09173 0)
(7.57546 -1.40827 0)
(6.67416 5.35955 0)
(7.98487 -0.932901 0)
(7.4809 6.2688 0)
(9.63265 1.18599 0)
(10.443 6.21776 0)
(13.4414 -0.110561 0)
(13.2775 -0.313317 0)
(13.1338 -0.1172 0)
(12.9498 0.272048 0)
(13.188 -0.195912 0)
(14.503 -1.19271 0)
(14.8339 -1.42372 0)
(13.413 -1.3628 0)
(13.1628 -1.79615 0)
(13.7723 -2.39129 0)
(12.6622 -3.03327 0)
(12.0964 -3.10741 0)
(12.6581 -2.63885 0)
(12.1896 -2.27111 0)
(11.3798 -1.86404 0)
(10.626 -1.29612 0)
(10.0813 -0.681887 0)
(9.54313 -0.314366 0)
(8.66589 -0.256759 0)
(7.78024 -0.196106 0)
(7.10879 -0.0413668 0)
(6.5506 0.0509076 0)
(6.07909 0.0323253 0)
(5.74819 -0.0363628 0)
(5.56854 -0.0901213 0)
(5.49442 -0.108308 0)
(5.4708 -0.100248 0)
(5.46241 -0.0836806 0)
(5.45328 -0.0684518 0)
(5.43997 -0.0567634 0)
(5.42427 -0.0476013 0)
(5.40858 -0.0399055 0)
(5.39441 -0.0331904 0)
(5.38237 -0.0273153 0)
(5.37246 -0.0222463 0)
(5.36447 -0.0179479 0)
(5.35809 -0.0143594 0)
(5.35301 -0.0114015 0)
(5.34899 -0.00898686 0)
(5.34582 -0.00702996 0)
(5.34331 -0.00545147 0)
(5.34135 -0.0041828 0)
(5.3398 -0.00316514 0)
(5.3386 -0.00234675 0)
(5.33767 -0.0016849 0)
(5.33696 -0.00114527 0)
(5.33642 -0.000698066 0)
(5.33603 -0.000318386 0)
(5.33576 1.53845e-05 0)
(5.33559 0.000317217 0)
(5.3355 0.000605434 0)
(5.33549 0.000894241 0)
(5.33555 0.00119561 0)
(5.33569 0.00152176 0)
(5.33589 0.00188646 0)
(5.33617 0.0023031 0)
(5.33654 0.00278569 0)
(5.337 0.00334971 0)
(5.33756 0.00401452 0)
(5.33825 0.00479419 0)
(5.3391 0.00572438 0)
(5.34008 0.00679734 0)
(5.34138 0.00812319 0)
(5.34267 0.00952728 0)
(5.34491 0.0115441 0)
(5.34599 0.0130009 0)
(5.35112 0.0167496 0)
(5.34856 0.0163889 0)
(5.36533 0.0260592 0)
(5.34178 0.015883 0)
(5.40796 0.0457127 0)
(5.28973 0.00265288 0)
(5.54714 0.0809026 0)
(5.08154 -0.0166655 0)
(5.94117 0.071212 0)
(4.52029 0.100384 0)
(6.72121 -0.325868 0)
(3.64633 0.87914 0)
(7.46008 -1.7741 0)
(3.49579 2.79233 0)
(6.70254 -3.41263 0)
(5.19456 3.25511 0)
(5.78717 -2.46753 0)
(5.05781 2.13432 0)
(6.61278 -1.66238 0)
(4.49704 2.74393 0)
(6.62809 -2.68235 0)
(5.28894 3.27402 0)
(6.67869 -2.31664 0)
(5.07801 2.96803 0)
(6.96792 -2.14365 0)
(5.64398 3.94988 0)
(6.7716 -2.36767 0)
(6.00425 4.24185 0)
(7.11304 -1.758 0)
(6.87384 5.27875 0)
(7.60685 -0.853257 0)
(7.78478 5.73209 0)
(8.43667 0.976286 0)
(9.98422 5.3796 0)
(12.9862 -0.0146836 0)
(12.5985 -0.0798858 0)
(13.1155 -0.0629049 0)
(14.3902 -0.164477 0)
(14.6665 -0.754397 0)
(13.2234 -1.04917 0)
(12.7706 -0.803711 0)
(13.9601 -1.16432 0)
(14.096 -2.06893 0)
(13.8357 -2.16733 0)
(13.404 -2.43057 0)
(12.1642 -3.06619 0)
(12.0762 -2.61733 0)
(11.7457 -1.96141 0)
(10.8448 -1.50766 0)
(10.0168 -0.883297 0)
(9.44187 -0.409367 0)
(9.17773 -0.0965758 0)
(8.34562 0.175516 0)
(7.10657 0.29191 0)
(6.3331 0.245079 0)
(6.12197 0.150074 0)
(6.15963 0.0803884 0)
(6.18761 0.0393956 0)
(6.10385 0.012669 0)
(5.94117 -0.01005 0)
(5.77156 -0.0300921 0)
(5.63661 -0.041588 0)
(5.54364 -0.0444774 0)
(5.48347 -0.0422477 0)
(5.44456 -0.0376665 0)
(5.41829 -0.0323832 0)
(5.39952 -0.0272122 0)
(5.38546 -0.0225022 0)
(5.37461 -0.0183754 0)
(5.3661 -0.0148483 0)
(5.35938 -0.0118887 0)
(5.35406 -0.00943862 0)
(5.34984 -0.0074308 0)
(5.3465 -0.0057994 0)
(5.34386 -0.00448115 0)
(5.34178 -0.00342008 0)
(5.34016 -0.00256812 0)
(5.33889 -0.00188223 0)
(5.3379 -0.00132651 0)
(5.33715 -0.000872146 0)
(5.33658 -0.000494477 0)
(5.33617 -0.000171763 0)
(5.33588 0.000114738 0)
(5.3357 0.000376216 0)
(5.33561 0.000629114 0)
(5.33561 0.000885371 0)
(5.33568 0.00115587 0)
(5.33582 0.00145162 0)
(5.33605 0.00178505 0)
(5.33635 0.00216809 0)
(5.33675 0.0026135 0)
(5.33724 0.00313543 0)
(5.33785 0.00375167 0)
(5.33859 0.00447407 0)
(5.3395 0.0053377 0)
(5.34056 0.00632841 0)
(5.34192 0.0075632 0)
(5.34336 0.00883835 0)
(5.34558 0.0107502 0)
(5.3471 0.0119483 0)
(5.35161 0.0157131 0)
(5.35093 0.0145502 0)
(5.36378 0.0252219 0)
(5.3495 0.011607 0)
(5.39571 0.0478251 0)
(5.31997 -0.010415 0)
(5.49242 0.0970314 0)
(5.19029 -0.0565451 0)
(5.7648 0.128458 0)
(4.82259 0.0119246 0)
(6.32674 -0.211986 0)
(4.19678 0.763104 0)
(6.89635 -1.69107 0)
(3.82183 2.76798 0)
(6.47767 -3.43889 0)
(5.03443 3.34577 0)
(5.54122 -2.39715 0)
(5.21938 2.01461 0)
(5.90879 -1.67559 0)
(4.62795 2.75454 0)
(6.07414 -2.92256 0)
(5.32858 3.46582 0)
(5.95727 -2.46207 0)
(5.17319 3.09491 0)
(6.2407 -2.38827 0)
(5.74372 4.26834 0)
(6.61892 -2.51856 0)
(6.19673 4.27005 0)
(6.94833 -1.88341 0)
(7.3231 5.05226 0)
(7.75057 -0.765893 0)
(7.9997 5.12477 0)
(8.66188 1.02677 0)
(9.77421 4.33195 0)
(13.2201 0.0731936 0)
(13.8525 -0.336861 0)
(13.8595 -0.700073 0)
(13.3509 -0.289755 0)
(13.3246 0.241397 0)
(13.3593 -0.405122 0)
(13.4706 -1.69428 0)
(13.8534 -1.863 0)
(13.2512 -1.71033 0)
(12.9602 -2.04463 0)
(13.8395 -2.23091 0)
(12.7643 -2.63686 0)
(11.3131 -2.43015 0)
(10.9078 -1.49223 0)
(10.3749 -1.00693 0)
(10.0907 -0.672922 0)
(9.23354 -0.21199 0)
(7.87059 0.237875 0)
(7.06741 0.557858 0)
(6.83238 0.588906 0)
(6.61672 0.382265 0)
(6.20169 0.156568 0)
(5.79801 0.0306331 0)
(5.56343 -0.00276984 0)
(5.47654 0.000868826 0)
(5.46168 0.0047734 0)
(5.46683 -0.000817375 0)
(5.46974 -0.0108276 0)
(5.46293 -0.0187617 0)
(5.44852 -0.0232844 0)
(5.43118 -0.0242432 0)
(5.41416 -0.0227963 0)
(5.39903 -0.0201568 0)
(5.38624 -0.0171484 0)
(5.37573 -0.0142205 0)
(5.3672 -0.0115807 0)
(5.36035 -0.00930286 0)