/*--------------------------------*- C++ -*----------------------------------*\
| =========                 |                                                 |
| \\      /  F ield         | OpenFOAM: The Open Source CFD Toolbox           |
|  \\    /   O peration     | Version:  2.4.0                                 |
|   \\  /    A nd           | Web:      www.OpenFOAM.org                      |
|    \\/     M anipulation  |                                                 |
\*---------------------------------------------------------------------------*/
FoamFile
{
    version     2.0;
    format      ascii;
    class       volSymmTensorField;
    location    "0.023";
    object      UPrime2Mean;
}
// * * * * * * * * * * * * * * * * * * * * * * * * * * * * * * * * * * * * * //

dimensions      [0 2 -2 0 0 0 0];

internalField   nonuniform List<symmTensor> 
4400
(
(0.227029 -0.0223963 0 0.00408363 0 0)
(2.53879 -0.00903846 0 0.000358196 0 0)
(2.86765 -0.00488712 0 1.67592e-05 0 0)
(3.18296 -0.00247852 0 7.61816e-06 0 0)
(3.36816 0.00017865 0 2.73517e-06 0 0)
(3.39279 -0.00015689 0 4.11392e-06 0 0)
(3.46025 -8.26307e-05 0 4.68016e-06 0 0)
(3.48141 0.000808471 0 1.90493e-05 0 0)
(3.99452 -0.0679387 0 0.00156517 0 0)
(5.92068 0.355132 0 0.05002 0 0)
(0.174104 0.0709473 0 0.0410678 0 0)
(0.926748 -0.0754151 0 0.00704896 0 0)
(1.31928 -0.0438588 0 0.00148471 0 0)
(1.79828 -0.0320348 0 0.000770753 0 0)
(2.2895 -0.0136809 0 0.000317607 0 0)
(2.41944 -0.00854142 0 0.000130035 0 0)
(2.60488 2.59772e-06 0 5.34507e-05 0 0)
(2.73938 -0.0210065 0 0.000250402 0 0)
(2.8173 -0.0443787 0 0.00245848 0 0)
(6.38811 -1.031 0 0.285188 0 0)
(0.517682 0.16312 0 0.0546586 0 0)
(0.139847 -0.0371612 0 0.0161693 0 0)
(0.262617 -0.0338108 0 0.0057929 0 0)
(0.456935 -0.0398909 0 0.00382042 0 0)
(0.854495 -0.0290027 0 0.00181596 0 0)
(1.04655 -0.017778 0 0.000664489 0 0)
(1.19548 -0.00857875 0 0.000342993 0 0)
(1.50303 -0.0170492 0 0.000745417 0 0)
(1.39576 -0.130466 0 0.0211315 0 0)
(3.69334 -1.04613 0 0.493836 0 0)
(0.617781 0.154895 0 0.040723 0 0)
(0.0237584 0.00814327 0 0.0195376 0 0)
(0.103636 0.0131062 0 0.00952027 0 0)
(0.0849 0.000866952 0 0.00881371 0 0)
(0.114904 -0.0153086 0 0.00518189 0 0)
(0.25884 -0.0145293 0 0.00143351 0 0)
(0.1857 -0.0110164 0 0.00153395 0 0)
(0.622961 -0.00235719 0 0.00135656 0 0)
(0.302848 -0.0486726 0 0.0376817 0 0)
(1.10567 -0.314401 0 0.481276 0 0)
(0.585162 0.119913 0 0.0258399 0 0)
(0.0314205 0.0161042 0 0.014923 0 0)
(0.23722 0.0367006 0 0.00834369 0 0)
(0.331764 0.0454984 0 0.0104359 0 0)
(0.281042 0.0244128 0 0.00839481 0 0)
(0.204607 0.00255825 0 0.00285866 0 0)
(0.233476 0.00567254 0 0.00135839 0 0)
(0.219363 -0.00282639 0 0.0045962 0 0)
(0.26863 0.0391595 0 0.0298419 0 0)
(0.37248 0.173795 0 0.680651 0 0)
(0.578964 0.0938704 0 0.0160312 0 0)
(0.0250434 0.0104903 0 0.0105531 0 0)
(0.259137 0.0302257 0 0.00488075 0 0)
(0.451297 0.0500585 0 0.00856019 0 0)
(0.567588 0.0452015 0 0.00862581 0 0)
(0.456272 0.0220284 0 0.00256103 0 0)
(0.592119 0.0159865 0 0.00268865 0 0)
(0.426291 0.0257853 0 0.00340321 0 0)
(0.513196 0.0971175 0 0.0464381 0 0)
(0.639189 0.425222 0 0.419905 0 0)
(0.571391 0.0732645 0 0.00993302 0 0)
(0.0236566 0.00757586 0 0.00604058 0 0)
(0.235871 0.021943 0 0.0028545 0 0)
(0.461089 0.0365066 0 0.00393598 0 0)
(0.553933 0.0391404 0 0.00515663 0 0)
(0.622126 0.0227487 0 0.00290248 0 0)
(0.676776 0.0146582 0 0.00116028 0 0)
(0.675997 0.0554501 0 0.0103561 0 0)
(0.704327 0.086049 0 0.0197462 0 0)
(0.85308 0.518847 0 0.460608 0 0)
(0.582696 0.0499448 0 0.00452145 0 0)
(0.0199078 0.00462416 0 0.00413857 0 0)
(0.228423 0.0132514 0 0.00123529 0 0)
(0.436912 0.0275465 0 0.00316252 0 0)
(0.527973 0.0215213 0 0.00355156 0 0)
(0.635905 0.0180017 0 0.00123204 0 0)
(0.653415 0.01295 0 0.00119442 0 0)
(0.746966 0.0478918 0 0.00427874 0 0)
(0.750506 0.114415 0 0.0335986 0 0)
(1.09352 0.512707 0 0.344357 0 0)
(0.586181 0.031553 0 0.00179657 0 0)
(0.0185269 0.00217337 0 0.00118983 0 0)
(0.221853 0.00822929 0 0.000433037 0 0)
(0.423331 0.0149348 0 0.000712012 0 0)
(0.511468 0.0147316 0 0.000858007 0 0)
(0.615793 0.0132596 0 0.000705864 0 0)
(0.635217 0.00859023 0 0.000660824 0 0)
(0.745099 0.0577187 0 0.00739927 0 0)
(0.774894 0.106255 0 0.0183295 0 0)
(1.16199 0.481415 0 0.24382 0 0)
(0.588109 0.00876249 0 0.000153509 0 0)
(0.0180076 0.00089206 0 0.000320227 0 0)
(0.217216 0.00135592 0 0.000110412 0 0)
(0.418122 0.00731441 0 0.000385352 0 0)
(0.503158 0.00237043 0 0.000430833 0 0)
(0.604305 0.00534139 0 0.000296417 0 0)
(0.636589 0.00577632 0 0.000513168 0 0)
(0.749152 0.0508228 0 0.00478474 0 0)
(0.807006 0.103096 0 0.0204167 0 0)
(1.22649 0.443108 0 0.219742 0 0)
(0.588527 -0.0100918 0 0.000184561 0 0)
(0.017917 -0.000717774 0 0.000132471 0 0)
(0.217786 -0.00354904 0 9.09911e-05 0 0)
(0.417293 -0.00328738 0 6.67084e-05 0 0)
(0.504457 -0.00609139 0 0.000152592 0 0)
(0.603737 -5.31801e-05 0 5.61065e-05 0 0)
(0.645613 0.00234622 0 0.000455498 0 0)
(0.755679 0.0489066 0 0.00438008 0 0)
(0.844075 0.0980769 0 0.0147022 0 0)
(1.28815 0.392283 0 0.149389 0 0)
(0.587406 -0.0321916 0 0.0018665 0 0)
(0.0184807 -0.00208831 0 0.00100128 0 0)
(0.22149 -0.00987657 0 0.000649752 0 0)
(0.422513 -0.0124402 0 0.000523365 0 0)
(0.511976 -0.0166301 0 0.000758642 0 0)
(0.61304 -0.00847563 0 0.000547882 0 0)
(0.658019 -0.00161038 0 0.000634778 0 0)
(0.773753 0.0428656 0 0.00329397 0 0)
(0.879743 0.0893347 0 0.0116475 0 0)
(1.34242 0.343886 0 0.106299 0 0)
(0.584839 -0.0522001 0 0.00489799 0 0)
(0.0196637 -0.00409912 0 0.00316049 0 0)
(0.229261 -0.0160504 0 0.0015647 0 0)
(0.433443 -0.0225299 0 0.00173422 0 0)
(0.52889 -0.0273458 0 0.00247341 0 0)
(0.631902 -0.0145392 0 0.00118063 0 0)
(0.678718 -0.00577629 0 0.000727541 0 0)
(0.798497 0.0386609 0 0.00253929 0 0)
(0.917837 0.0763181 0 0.0080839 0 0)
(1.4026 0.289211 0 0.072783 0 0)
(0.580997 -0.0739386 0 0.00990401 0 0)
(0.021722 -0.00662452 0 0.00590853 0 0)
(0.240752 -0.0234114 0 0.00314939 0 0)
(0.452006 -0.0340289 0 0.0036767 0 0)
(0.555053 -0.0385449 0 0.00464086 0 0)
(0.644286 -0.0228761 0 0.00258337 0 0)
(0.675679 -0.00920352 0 0.00115154 0 0)
(0.783907 0.030175 0 0.00161165 0 0)
(0.906876 0.0633499 0 0.00546255 0 0)
(1.35491 0.223989 0 0.0424673 0 0)
(0.577941 -0.0953987 0 0.016575 0 0)
(0.0251035 -0.0101927 0 0.00943219 0 0)
(0.257431 -0.0325477 0 0.00565731 0 0)
(0.462178 -0.0459547 0 0.00661362 0 0)
(0.5275 -0.0460255 0 0.00752615 0 0)
(0.526889 -0.0223123 0 0.00376384 0 0)
(0.522573 -0.00842927 0 0.00124699 0 0)
(0.575534 0.0203849 0 0.0011488 0 0)
(0.676875 0.042712 0 0.00344554 0 0)
(1.02096 0.142104 0 0.0228895 0 0)
(0.587396 -0.120533 0 0.0260065 0 0)
(0.0303692 -0.0151041 0 0.0143163 0 0)
(0.240161 -0.038619 0 0.00915165 0 0)
(0.327071 -0.0420285 0 0.00922654 0 0)
(0.270546 -0.0257647 0 0.00798527 0 0)
(0.207586 -0.00468594 0 0.00341986 0 0)
(0.217951 -0.000867389 0 0.000889262 0 0)
(0.220864 0.00602365 0 0.000787687 0 0)
(0.279521 0.0146396 0 0.00228958 0 0)
(0.435126 0.0538477 0 0.0104009 0 0)
(0.617869 -0.155439 0 0.0410168 0 0)
(0.023985 -0.00751757 0 0.0190317 0 0)
(0.104284 -0.0140973 0 0.0102141 0 0)
(0.083292 0.000673352 0 0.00763217 0 0)
(0.107342 0.0155286 0 0.00508214 0 0)
(0.204222 0.0122608 0 0.00185031 0 0)
(0.262829 0.00259986 0 0.000414433 0 0)
(0.264575 -0.00879886 0 0.000509194 0 0)
(0.205877 -0.0122769 0 0.00152274 0 0)
(0.145063 -0.00200594 0 0.00453579 0 0)
(0.516116 -0.162934 0 0.0547347 0 0)
(0.141071 0.0369536 0 0.0159781 0 0)
(0.25759 0.0344242 0 0.00604499 0 0)
(0.474246 0.0387297 0 0.00341049 0 0)
(0.804017 0.0312106 0 0.00189234 0 0)
(1.07152 0.0114587 0 0.000624089 0 0)
(1.12174 0.000918807 0 0.000147429 0 0)
(1.12721 -0.0143622 0 0.00024297 0 0)
(0.906766 -0.0222485 0 0.000824091 0 0)
(0.736808 -0.00572456 0 0.00244582 0 0)
(0.173787 -0.0708036 0 0.0411038 0 0)
(0.926776 0.0750983 0 0.00700681 0 0)
(1.31624 0.0445951 0 0.00153557 0 0)
(1.81389 0.030732 0 0.00068787 0 0)
(2.24338 0.0158105 0 0.000332361 0 0)
(2.46582 0.00315168 0 0.000106003 0 0)
(2.47239 -0.000517563 0 3.4918e-05 0 0)
(2.45889 -0.00906313 0 7.63428e-05 0 0)
(2.20024 -0.0156416 0 0.000244484 0 0)
(2.00817 0.00762675 0 0.00159816 0 0)
(0.227395 0.0224253 0 0.00408557 0 0)
(2.53826 0.00897256 0 0.000359047 0 0)
(2.86768 0.00502238 0 1.69433e-05 0 0)
(3.18651 0.00223682 0 6.88303e-06 0 0)
(3.35578 6.23013e-05 0 2.06137e-06 0 0)
(3.40208 -0.000437304 0 1.29694e-06 0 0)
(3.38912 -0.000177327 0 1.10565e-06 0 0)
(3.35863 -0.0015892 0 3.51701e-06 0 0)
(3.21778 -0.00441957 0 1.31528e-05 0 0)
(2.96498 0.0045714 0 0.000771037 0 0)
(19.6061 -13.4286 0 11.6446 0 0)
(10.8227 -8.00665 0 13.259 0 0)
(7.59388 -4.93183 0 13.1841 0 0)
(5.2878 -2.24918 0 11.9305 0 0)
(4.76676 -0.139422 0 9.73559 0 0)
(4.94465 0.6604 0 7.56086 0 0)
(5.76783 0.894353 0 5.00716 0 0)
(6.92291 -0.308682 0 3.64475 0 0)
(7.0268 -1.9486 0 3.33799 0 0)
(6.62354 -3.30797 0 3.46709 0 0)
(5.17473 -3.59716 0 3.73476 0 0)
(3.21233 -2.79138 0 3.42422 0 0)
(1.73454 -1.82692 0 2.66289 0 0)
(1.02017 -1.24417 0 1.96594 0 0)
(0.786856 -0.986694 0 1.48413 0 0)
(0.689212 -0.826843 0 1.14052 0 0)
(0.560545 -0.641157 0 0.840459 0 0)
(0.381423 -0.443962 0 0.584044 0 0)
(0.224822 -0.284636 0 0.387836 0 0)
(0.131955 -0.176726 0 0.244885 0 0)
(0.0837646 -0.109391 0 0.14703 0 0)
(0.0559168 -0.0682124 0 0.0864548 0 0)
(0.0383566 -0.0432441 0 0.0513746 0 0)
(0.027544 -0.0282504 0 0.0311232 0 0)
(0.021148 -0.0191563 0 0.0191313 0 0)
(0.0173588 -0.0134634 0 0.0118695 0 0)
(0.015036 -0.00974981 0 0.00740908 0 0)
(0.0135552 -0.00722813 0 0.00464246 0 0)
(0.0125828 -0.00545579 0 0.00291459 0 0)
(0.0119316 -0.00417409 0 0.00183078 0 0)
(0.0114895 -0.00322545 0 0.00114955 0 0)
(0.0111861 -0.00251015 0 0.000721104 0 0)
(0.0109758 -0.00196296 0 0.000451723 0 0)
(0.0108289 -0.00153987 0 0.000282499 0 0)
(0.0107256 -0.00121023 0 0.000176332 0 0)
(0.010652 -0.000951953 0 0.000109819 0 0)
(0.0105995 -0.000748767 0 6.82094e-05 0 0)
(0.0105619 -0.000588623 0 4.22355e-05 0 0)
(0.0105346 -0.00046223 0 2.60622e-05 0 0)
(0.0105147 -0.000362344 0 1.60158e-05 0 0)
(0.0105 -0.00028331 0 9.78834e-06 0 0)
(0.0104892 -0.000220714 0 5.93801e-06 0 0)
(0.0104812 -0.000171096 0 3.56686e-06 0 0)
(0.0104753 -0.000131712 0 2.11388e-06 0 0)
(0.0104709 -0.000100351 0 1.22846e-06 0 0)
(0.0104676 -7.52467e-05 0 6.92957e-07 0 0)
(0.010465 -5.49992e-05 0 3.73342e-07 0 0)
(0.0104632 -3.84824e-05 0 1.87035e-07 0 0)
(0.0104619 -2.47939e-05 0 8.35962e-08 0 0)
(0.010461 -1.31815e-05 0 3.24304e-08 0 0)
(0.0104604 -3.02438e-06 0 1.57328e-08 0 0)
(0.01046 6.1894e-06 0 2.37014e-08 0 0)
(0.01046 1.49131e-05 0 5.21105e-08 0 0)
(0.0104601 2.35467e-05 0 1.00733e-07 0 0)
(0.0104605 3.24547e-05 0 1.72638e-07 0 0)
(0.0104612 4.19968e-05 0 2.7437e-07 0 0)
(0.0104621 5.25355e-05 0 4.16498e-07 0 0)
(0.0104633 6.44381e-05 0 6.14455e-07 0 0)
(0.0104649 7.81038e-05 0 8.90263e-07 0 0)
(0.010467 9.39941e-05 0 1.27608e-06 0 0)
(0.01047 0.000112574 0 1.81458e-06 0 0)
(0.0104735 0.000134532 0 2.57361e-06 0 0)
(0.0104793 0.00016027 0 3.62428e-06 0 0)
(0.0104844 0.000191324 0 5.14118e-06 0 0)
(0.0104977 0.000226878 0 7.15188e-06 0 0)
(0.0105017 0.000272505 0 1.03361e-05 0 0)
(0.0105387 0.00031922 0 1.38414e-05 0 0)
(0.0105222 0.000393355 0 2.15926e-05 0 0)
(0.0106438 0.000441294 0 2.53104e-05 0 0)
(0.0105192 0.000590825 0 5.11456e-05 0 0)
(0.0109437 0.000572537 0 3.98018e-05 0 0)
(0.0103911 0.000964381 0 0.000165542 0 0)
(0.0118506 0.000561939 0 5.91002e-05 0 0)
(0.00990079 0.0017108 0 0.000844846 0 0)
(0.0145489 -0.00034587 0 0.000341166 0 0)
(0.00884428 0.00267631 0 0.00539048 0 0)
(0.0209545 -0.00457829 0 0.00287291 0 0)
(0.00762131 0.00201753 0 0.0269919 0 0)
(0.0276629 -0.0130802 0 0.0121372 0 0)
(0.00647543 0.000330376 0 0.0744426 0 0)
(0.024731 -0.0162478 0 0.0266629 0 0)
(0.00632404 0.00341787 0 0.109002 0 0)
(0.0176866 -0.00894553 0 0.0338231 0 0)
(0.00916963 0.00253315 0 0.101253 0 0)
(0.0124713 -0.00345238 0 0.0263663 0 0)
(0.00731186 -0.00724009 0 0.0789001 0 0)
(0.010141 -0.00239121 0 0.018298 0 0)
(0.00838733 -0.0139426 0 0.0582037 0 0)
(0.00733399 -0.00257108 0 0.0128035 0 0)
(0.0178318 -0.015902 0 0.0408958 0 0)
(0.00901256 -0.00350321 0 0.0104081 0 0)
(0.0260411 -0.0140536 0 0.0318259 0 0)
(0.0186105 -0.00472782 0 0.0125264 0 0)
(0.0261215 -0.0153416 0 0.0348535 0 0)
(0.0490165 -0.00665143 0 0.0204778 0 0)
(0.0572956 -0.0403056 0 0.0517475 0 0)
(0.177717 -0.0352443 0 0.0305706 0 0)
(0.122222 -0.0611258 0 0.0522596 0 0)
(0.202312 -0.0310368 0 0.0363869 0 0)
(0.695869 0.0330422 0 0.131581 0 0)
(14.6731 -9.33781 0 9.47836 0 0)
(9.34613 -6.45688 0 10.8092 0 0)
(7.30183 -3.46166 0 10.2788 0 0)
(6.16279 -1.52833 0 9.1577 0 0)
(5.66628 -0.218526 0 7.47698 0 0)
(5.74779 0.37115 0 5.74553 0 0)
(6.95663 0.212558 0 3.97909 0 0)
(8.1444 -1.02733 0 3.15174 0 0)
(8.50281 -2.42925 0 2.959 0 0)
(7.67643 -3.40927 0 3.02376 0 0)
(5.59811 -3.42582 0 3.11849 0 0)
(3.4864 -2.65675 0 2.77917 0 0)
(2.17082 -1.90186 0 2.18949 0 0)
(1.50219 -1.4549 0 1.71917 0 0)
(1.19936 -1.19884 0 1.37348 0 0)
(1.01905 -0.981146 0 1.05934 0 0)
(0.802333 -0.731278 0 0.750242 0 0)
(0.540672 -0.485743 0 0.495398 0 0)
(0.314493 -0.301876 0 0.320219 0 0)
(0.175543 -0.184667 0 0.203909 0 0)
(0.105754 -0.113577 0 0.12518 0 0)
(0.0695147 -0.0708553 0 0.0744584 0 0)
(0.0477777 -0.0450402 0 0.0443488 0 0)
(0.0339584 -0.0294083 0 0.0270321 0 0)
(0.0253805 -0.0198612 0 0.0168306 0 0)
(0.0201819 -0.013878 0 0.0105988 0 0)
(0.0169973 -0.00998871 0 0.00670461 0 0)
(0.0149773 -0.00736244 0 0.00424724 0 0)
(0.0136467 -0.0055278 0 0.00269097 0 0)
(0.0127435 -0.00420918 0 0.00170383 0 0)
(0.0121168 -0.00323922 0 0.00107745 0 0)
(0.0116749 -0.00251213 0 0.000680129 0 0)
(0.0113589 -0.00195896 0 0.000428405 0 0)
(0.0111303 -0.00153317 0 0.000269189 0 0)
(0.0109634 -0.00120277 0 0.000168704 0 0)
(0.01084 -0.000944817 0 0.00010544 0 0)
(0.0107483 -0.000742292 0 6.56772e-05 0 0)
(0.0106797 -0.000583016 0 4.07661e-05 0 0)
(0.0106279 -0.00045752 0 2.52058e-05 0 0)
(0.0105885 -0.000358469 0 1.55149e-05 0 0)
(0.0105586 -0.000280169 0 9.49522e-06 0 0)
(0.0105356 -0.000218192 0 5.76633e-06 0 0)
(0.0105181 -0.000169087 0 3.46633e-06 0 0)
(0.0105046 -0.000130125 0 2.05543e-06 0 0)
(0.0104943 -9.91125e-05 0 1.19495e-06 0 0)
(0.0104864 -7.42901e-05 0 6.74158e-07 0 0)
(0.0104803 -5.42668e-05 0 3.63122e-07 0 0)
(0.0104757 -3.7932e-05 0 1.81839e-07 0 0)
(0.0104724 -2.43915e-05 0 8.12593e-08 0 0)
(0.01047 -1.29059e-05 0 3.16508e-08 0 0)
(0.0104684 -2.85396e-06 0 1.56394e-08 0 0)
(0.0104675 6.27573e-06 0 2.37783e-08 0 0)
(0.0104672 1.49242e-05 0 5.19534e-08 0 0)
(0.0104675 2.3484e-05 0 9.99651e-08 0 0)
(0.0104682 3.23231e-05 0 1.70881e-07 0 0)
(0.0104695 4.17971e-05 0 2.71169e-07 0 0)
(0.0104714 5.22581e-05 0 4.11139e-07 0 0)
(0.0104739 6.40713e-05 0 6.05939e-07 0 0)
(0.0104772 7.76278e-05 0 8.76997e-07 0 0)
(0.0104813 9.33847e-05 0 1.25557e-06 0 0)
(0.0104868 0.000111791 0 1.78289e-06 0 0)
(0.0104932 0.000133523 0 2.52433e-06 0 0)
(0.0105027 0.000158967 0 3.54759e-06 0 0)
(0.0105118 0.000189635 0 5.02089e-06 0 0)
(0.0105312 0.000224639 0 6.95951e-06 0 0)
(0.0105392 0.000269648 0 1.00392e-05 0 0)
(0.0105889 0.000315004 0 1.33218e-05 0 0)
(0.0105698 0.000388781 0 2.09043e-05 0 0)
(0.0107295 0.000431549 0 2.37332e-05 0 0)
(0.0105617 0.000585466 0 5.02813e-05 0 0)
(0.0111343 0.00053983 0 3.52404e-05 0 0)
(0.0103615 0.000963037 0 0.000175247 0 0)
(0.012442 0.000396823 0 6.71079e-05 0 0)
(0.00964986 0.00165979 0 0.00101848 0 0)
(0.0168553 -0.0013601 0 0.000692203 0 0)
(0.00842314 0.00186824 0 0.00724894 0 0)
(0.0295482 -0.00984272 0 0.00601358 0 0)
(0.0077795 -0.00225388 0 0.0386588 0 0)
(0.0494905 -0.029675 0 0.0245653 0 0)
(0.00766577 -0.0110233 0 0.111757 0 0)
(0.0570365 -0.0476702 0 0.0533967 0 0)
(0.00662189 -0.0148147 0 0.17491 0 0)
(0.0440418 -0.0460459 0 0.0713327 0 0)
(0.00634545 -0.00786192 0 0.176976 0 0)
(0.0235906 -0.0233206 0 0.0607967 0 0)
(0.0053573 -0.00489451 0 0.147357 0 0)
(0.0145118 -0.0012509 0 0.0494073 0 0)
(0.00264874 -0.00535792 0 0.116548 0 0)
(0.019934 0.0170048 0 0.04363 0 0)
(0.00352409 -0.00304879 0 0.0875285 0 0)
(0.0388225 0.0285943 0 0.0389103 0 0)
(0.0081472 -0.00381052 0 0.0685995 0 0)
(0.0497351 0.0256887 0 0.0360342 0 0)
(0.0184809 -0.0191125 0 0.0617113 0 0)
(0.0447726 0.00647893 0 0.0277568 0 0)
(0.065271 -0.0505435 0 0.0691364 0 0)
(0.183889 0.00406037 0 0.0342304 0 0)
(0.193656 -0.0905317 0 0.0966058 0 0)
(0.311253 -0.0886193 0 0.0660766 0 0)
(0.709218 -0.262583 0 0.240615 0 0)
(7.43609 -3.75864 0 4.68834 0 0)
(6.94383 -4.18784 0 6.90745 0 0)
(5.36562 -2.06312 0 7.85428 0 0)
(5.79485 -0.319435 0 7.41288 0 0)
(6.62302 0.598173 0 6.08273 0 0)
(7.79069 0.721099 0 4.48107 0 0)
(9.16535 -0.0622677 0 3.17826 0 0)
(9.89206 -1.34495 0 2.61827 0 0)
(9.57373 -2.49035 0 2.47577 0 0)
(8.02023 -3.17184 0 2.48772 0 0)
(5.68129 -3.15474 0 2.53635 0 0)
(3.79376 -2.59391 0 2.29682 0 0)
(2.80087 -2.06935 0 1.87299 0 0)
(2.28137 -1.71785 0 1.52044 0 0)
(1.84141 -1.41902 0 1.23441 0 0)
(1.40947 -1.09327 0 0.937063 0 0)
(1.00586 -0.757676 0 0.634486 0 0)
(0.648168 -0.47827 0 0.399068 0 0)
(0.376906 -0.290478 0 0.251457 0 0)
(0.209817 -0.177687 0 0.16117 0 0)
(0.122912 -0.110156 0 0.101684 0 0)
(0.0793716 -0.0692963 0 0.0620126 0 0)
(0.0549741 -0.0444953 0 0.0373235 0 0)
(0.0395411 -0.0293087 0 0.0228692 0 0)
(0.0294773 -0.0198957 0 0.0143853 0 0)
(0.0230521 -0.0139243 0 0.00919635 0 0)
(0.0190027 -0.0100118 0 0.00590869 0 0)
(0.0164142 -0.00736123 0 0.00379356 0 0)
(0.0147082 -0.00551021 0 0.00242971 0 0)
(0.0135469 -0.004183 0 0.00155212 0 0)
(0.012735 -0.00320993 0 0.000988912 0 0)
(0.0121556 -0.00248317 0 0.000628311 0 0)
(0.0117353 -0.00193219 0 0.000397997 0 0)
(0.0114264 -0.0015095 0 0.000251289 0 0)
(0.0111968 -0.00118244 0 0.000158131 0 0)
(0.0110246 -0.000927675 0 9.91654e-05 0 0)
(0.0108944 -0.000728134 0 6.19471e-05 0 0)
(0.0107953 -0.000571455 0 3.85422e-05 0 0)
(0.0107194 -0.000448155 0 2.3876e-05 0 0)
(0.0106611 -0.000350939 0 1.47188e-05 0 0)
(0.0106161 -0.000274158 0 9.01922e-06 0 0)
(0.0105813 -0.000213417 0 5.48234e-06 0 0)
(0.0105543 -0.000165306 0 3.29734e-06 0 0)
(0.0105335 -0.000127144 0 1.95553e-06 0 0)
(0.0105174 -9.67781e-05 0 1.13677e-06 0 0)
(0.0105049 -7.24728e-05 0 6.4096e-07 0 0)
(0.0104953 -5.28639e-05 0 3.44798e-07 0 0)
(0.0104881 -3.68628e-05 0 1.72293e-07 0 0)
(0.0104828 -2.35981e-05 0 7.68307e-08 0 0)
(0.0104789 -1.23385e-05 0 3.00514e-08 0 0)
(0.0104764 -2.48336e-06 0 1.54113e-08 0 0)
(0.0104749 6.47896e-06 0 2.39559e-08 0 0)
(0.0104743 1.49779e-05 0 5.18222e-08 0 0)
(0.0104747 2.33979e-05 0 9.8876e-08 0 0)
(0.0104758 3.21028e-05 0 1.68177e-07 0 0)
(0.0104778 4.14396e-05 0 2.66039e-07 0 0)
(0.0104806 5.17555e-05 0 4.02479e-07 0 0)
(0.0104844 6.34092e-05 0 5.92182e-07 0 0)
(0.0104893 7.67846e-05 0 8.55893e-07 0 0)
(0.0104954 9.23222e-05 0 1.22357e-06 0 0)
(0.0105034 0.000110466 0 1.73489e-06 0 0)
(0.0105126 0.000131863 0 2.45184e-06 0 0)
(0.0105258 0.000156905 0 3.4393e-06 0 0)
(0.0105387 0.000187008 0 4.85426e-06 0 0)
(0.0105641 0.000221351 0 6.70974e-06 0 0)
(0.0105757 0.000265347 0 9.6432e-06 0 0)
(0.0106383 0.00030945 0 1.27177e-05 0 0)
(0.0106145 0.000381635 0 1.99522e-05 0 0)
(0.0108156 0.000420517 0 2.21449e-05 0 0)
(0.0105938 0.000574316 0 4.84026e-05 0 0)
(0.0113403 0.000506255 0 3.15586e-05 0 0)
(0.0102924 0.000942792 0 0.000180413 0 0)
(0.013179 0.000204478 0 8.86425e-05 0 0)
(0.00932232 0.00148288 0 0.0011955 0 0)
(0.0203613 -0.00288379 0 0.00130582 0 0)
(0.00839803 -7.72718e-05 0 0.00964477 0 0)
(0.0455088 -0.0197302 0 0.0122149 0 0)
(0.0100431 -0.0115886 0 0.0561977 0 0)
(0.0971642 -0.0661667 0 0.0529625 0 0)
(0.0096686 -0.0232127 0 0.167601 0 0)
(0.148267 -0.124579 0 0.116568 0 0)
(0.0071837 -0.0124865 0 0.259726 0 0)
(0.200215 -0.163726 0 0.153588 0 0)
(0.0129007 0.00864641 0 0.26917 0 0)
(0.229762 -0.133795 0 0.131209 0 0)
(0.0297728 0.0177081 0 0.244169 0 0)
(0.18197 -0.0853775 0 0.103675 0 0)
(0.0251113 0.00983192 0 0.219402 0 0)
(0.093469 -0.0629986 0 0.0931626 0 0)
(0.0183133 -0.0193146 0 0.174269 0 0)
(0.04135 -0.0387264 0 0.0816168 0 0)
(0.0223141 -0.048307 0 0.136097 0 0)
(0.0457973 -0.0367141 0 0.0785082 0 0)
(0.0536913 -0.0671985 0 0.125224 0 0)
(0.122575 -0.0637562 0 0.0759175 0 0)
(0.147337 -0.0797712 0 0.136516 0 0)
(0.294117 -0.0471007 0 0.0920357 0 0)
(0.361891 -0.198499 0 0.191445 0 0)
(0.539317 -0.22314 0 0.125004 0 0)
(0.705843 -0.420816 0 0.414177 0 0)
(2.82105 -0.665013 0 3.75058 0 0)
(6.03371 -1.13369 0 5.32849 0 0)
(6.14609 -0.662894 0 5.85906 0 0)
(6.67666 0.342581 0 5.64179 0 0)
(7.77195 0.998469 0 4.67643 0 0)
(9.08828 0.815591 0 3.40024 0 0)
(9.93596 -0.165898 0 2.48026 0 0)
(9.94101 -1.30309 0 2.05706 0 0)
(9.28472 -2.21809 0 1.91988 0 0)
(7.94061 -2.85655 0 1.96292 0 0)
(5.9936 -2.98798 0 2.06153 0 0)
(4.44053 -2.65305 0 1.94091 0 0)
(3.63948 -2.28383 0 1.65694 0 0)
(3.08458 -1.9314 0 1.35601 0 0)
(2.38561 -1.51753 0 1.06478 0 0)
(1.64907 -1.08145 0 0.773336 0 0)
(1.06304 -0.694255 0 0.498731 0 0)
(0.648003 -0.417295 0 0.301432 0 0)
(0.381184 -0.252941 0 0.188573 0 0)
(0.223277 -0.15916 0 0.122998 0 0)
(0.134161 -0.101511 0 0.0798305 0 0)
(0.0858549 -0.0648383 0 0.0501 0 0)
(0.0592676 -0.0420272 0 0.0306817 0 0)
(0.0432032 -0.0279767 0 0.0189239 0 0)
(0.0326621 -0.0191898 0 0.0119815 0 0)
(0.0256005 -0.0135399 0 0.00775105 0 0)
(0.0209169 -0.00978472 0 0.00505716 0 0)
(0.0178224 -0.0072101 0 0.00329718 0 0)
(0.0157515 -0.00539827 0 0.00214009 0 0)
(0.0143332 -0.00409445 0 0.00138198 0 0)
(0.0133375 -0.00313769 0 0.000888169 0 0)
(0.012623 -0.0024236 0 0.000568294 0 0)
(0.0121008 -0.00188303 0 0.000362074 0 0)
(0.0117138 -0.0014691 0 0.000229714 0 0)
(0.0114235 -0.0011494 0 0.000145135 0 0)
(0.0112038 -0.000900793 0 9.13134e-05 0 0)
(0.0110362 -0.000706423 0 5.71969e-05 0 0)
(0.0109076 -0.000553998 0 3.56663e-05 0 0)
(0.0108084 -0.000434169 0 2.2133e-05 0 0)
(0.0107316 -0.000339768 0 1.36614e-05 0 0)
(0.010672 -0.000265271 0 8.37878e-06 0 0)
(0.0106256 -0.000206373 0 5.09595e-06 0 0)
(0.0105895 -0.000159738 0 3.06528e-06 0 0)
(0.0105615 -0.000122758 0 1.81729e-06 0 0)
(0.0105398 -9.33424e-05 0 1.05559e-06 0 0)
(0.0105229 -6.98011e-05 0 5.94382e-07 0 0)
(0.0105099 -5.08056e-05 0 3.19029e-07 0 0)
(0.0105001 -3.53027e-05 0 1.58935e-07 0 0)
(0.0104928 -2.24463e-05 0 7.07051e-08 0 0)
(0.0104876 -1.15271e-05 0 2.79089e-08 0 0)
(0.0104841 -1.95416e-06 0 1.518e-08 0 0)
(0.0104821 6.75988e-06 0 2.42469e-08 0 0)
(0.0104813 1.50391e-05 0 5.16043e-08 0 0)
(0.0104817 2.32582e-05 0 9.72675e-08 0 0)
(0.0104833 3.1771e-05 0 1.64285e-07 0 0)
(0.0104859 4.09157e-05 0 2.58803e-07 0 0)
(0.0104897 5.10294e-05 0 3.9045e-07 0 0)
(0.0104948 6.24625e-05 0 5.73341e-07 0 0)
(0.0105012 7.55879e-05 0 8.27392e-07 0 0)
(0.0105093 9.08269e-05 0 1.18096e-06 0 0)
(0.0105196 0.00010862 0 1.67199e-06 0 0)
(0.0105317 0.00012957 0 2.35815e-06 0 0)
(0.0105485 0.000154099 0 3.3025e-06 0 0)
(0.010565 0.000183447 0 4.6453e-06 0 0)
(0.0105961 0.000217046 0 6.41017e-06 0 0)
(0.010611 0.000259583 0 9.15475e-06 0 0)
(0.0106862 0.000302722 0 1.2055e-05 0 0)
(0.0106565 0.000371712 0 1.87275e-05 0 0)
(0.0109006 0.000409188 0 2.06592e-05 0 0)
(0.0106176 0.000555928 0 4.51263e-05 0 0)
(0.0115551 0.00047857 0 2.88277e-05 0 0)
(0.0101996 0.000896228 0 0.00017342 0 0)
(0.014028 4.06897e-05 0 0.000108274 0 0)
(0.00904194 0.00116426 0 0.00123604 0 0)
(0.0251363 -0.00448867 0 0.00184332 0 0)
(0.010039 -0.00334177 0 0.0107519 0 0)
(0.0740257 -0.0330842 0 0.0182296 0 0)
(0.0257138 -0.034453 0 0.0685254 0 0)
(0.220007 -0.13229 0 0.0849512 0 0)
(0.0514737 -0.0997074 0 0.223265 0 0)
(0.482543 -0.305994 0 0.199759 0 0)
(0.0575401 -0.138316 0 0.368839 0 0)
(0.884257 -0.490317 0 0.28861 0 0)
(0.0395383 -0.115407 0 0.409096 0 0)
(1.2608 -0.529964 0 0.279755 0 0)
(0.0570352 -0.06041 0 0.38979 0 0)
(1.36665 -0.433652 0 0.226559 0 0)
(0.088176 -0.0139848 0 0.370366 0 0)
(1.19564 -0.326549 0 0.182723 0 0)
(0.0881945 -0.00978933 0 0.321891 0 0)
(0.653685 -0.164932 0 0.15019 0 0)
(0.0222283 -0.0409279 0 0.262077 0 0)
(0.107676 -0.0798972 0 0.148177 0 0)
(0.113371 -0.0608598 0 0.22803 0 0)
(0.230807 0.00103435 0 0.202056 0 0)
(0.20731 -0.113209 0 0.240789 0 0)
(0.553132 -0.216905 0 0.184825 0 0)
(0.674528 -0.409339 0 0.350157 0 0)
(0.799116 -0.36169 0 0.253137 0 0)
(0.458609 -0.396253 0 0.639886 0 0)
(1.22598 0.640053 0 1.80827 0 0)
(3.17996 0.516319 0 2.88794 0 0)
(5.42837 0.401216 0 3.55174 0 0)
(6.77141 0.647661 0 3.77123 0 0)
(8.02185 0.861979 0 3.36046 0 0)
(9.22147 0.54014 0 2.5843 0 0)
(9.81327 -0.217587 0 1.91568 0 0)
(9.86571 -1.08666 0 1.50958 0 0)
(9.54903 -1.97757 0 1.38338 0 0)
(8.47148 -2.69094 0 1.49803 0 0)
(6.75276 -2.92581 0 1.64783 0 0)
(5.25964 -2.73028 0 1.63509 0 0)
(4.25911 -2.36739 0 1.44828 0 0)
(3.37508 -1.91691 0 1.17154 0 0)
(2.40659 -1.39654 0 0.866404 0 0)
(1.54644 -0.923313 0 0.590086 0 0)
(0.950009 -0.566422 0 0.366076 0 0)
(0.569218 -0.334616 0 0.217241 0 0)
(0.345541 -0.206798 0 0.137099 0 0)
(0.219784 -0.136437 0 0.0917367 0 0)
(0.142523 -0.0910398 0 0.0611958 0 0)
(0.0929092 -0.0596099 0 0.0394721 0 0)
(0.0629892 -0.0389304 0 0.0247604 0 0)
(0.0454748 -0.026037 0 0.0154902 0 0)
(0.0346341 -0.0179993 0 0.00987062 0 0)
(0.027438 -0.0128112 0 0.00642354 0 0)
(0.0224995 -0.00932566 0 0.00422963 0 0)
(0.0190896 -0.00690628 0 0.00279031 0 0)
(0.0167304 -0.00518571 0 0.00183368 0 0)
(0.0150833 -0.00393852 0 0.00119776 0 0)
(0.0139151 -0.00301928 0 0.000777383 0 0)
(0.0130715 -0.00233164 0 0.000501473 0 0)
(0.0124517 -0.00181061 0 0.000321626 0 0)
(0.0119897 -0.00141161 0 0.000205146 0 0)
(0.0116412 -0.00110357 0 0.00013017 0 0)
(0.011376 -0.0008642 0 8.21758e-05 0 0)
(0.0111725 -0.000677237 0 5.16126e-05 0 0)
(0.0110156 -0.00053074 0 3.22524e-05 0 0)
(0.0108939 -0.000415647 0 2.00453e-05 0 0)
(0.0107994 -0.000325038 0 1.23849e-05 0 0)
(0.0107257 -0.000253589 0 7.60052e-06 0 0)
(0.0106683 -0.000197138 0 4.62394e-06 0 0)
(0.0106234 -0.000152455 0 2.78081e-06 0 0)
(0.0105885 -0.00011703 0 1.64739e-06 0 0)
(0.0105613 -8.88599e-05 0 9.5569e-07 0 0)
(0.0105402 -6.63205e-05 0 5.37105e-07 0 0)
(0.010524 -4.81293e-05 0 2.87426e-07 0 0)
(0.0105117 -3.32777e-05 0 1.42617e-07 0 0)
(0.0105026 -2.09515e-05 0 6.32444e-08 0 0)
(0.010496 -1.04701e-05 0 2.53195e-08 0 0)
(0.0104916 -1.26512e-06 0 1.49213e-08 0 0)
(0.010489 7.13106e-06 0 2.46143e-08 0 0)
(0.0104881 1.51276e-05 0 5.13401e-08 0 0)
(0.0104886 2.30863e-05 0 9.52812e-08 0 0)
(0.0104905 3.13494e-05 0 1.59467e-07 0 0)
(0.0104938 4.0244e-05 0 2.49824e-07 0 0)
(0.0104986 5.00954e-05 0 3.75535e-07 0 0)
(0.0105048 6.12434e-05 0 5.50047e-07 0 0)
(0.0105129 7.40479e-05 0 7.92275e-07 0 0)
(0.0105229 8.89081e-05 0 1.12873e-06 0 0)
(0.0105355 0.000106263 0 1.59555e-06 0 0)
(0.0105503 0.000126657 0 2.24526e-06 0 0)
(0.0105704 0.00015057 0 3.14017e-06 0 0)
(0.0105906 0.00017898 0 4.39844e-06 0 0)
(0.0106271 0.000211788 0 6.06863e-06 0 0)
(0.0106452 0.000252388 0 8.58393e-06 0 0)
(0.0107324 0.000295021 0 1.13582e-05 0 0)
(0.010696 0.000358952 0 1.72497e-05 0 0)
(0.0109838 0.000398295 0 1.93348e-05 0 0)
(0.0106329 0.000530158 0 4.05582e-05 0 0)
(0.0117792 0.000458835 0 2.67469e-05 0 0)
(0.0100862 0.000828356 0 0.000156742 0 0)
(0.0149737 -9.10645e-05 0 0.000121799 0 0)
(0.0088793 0.000791215 0 0.00118352 0 0)
(0.0304143 -0.00600013 0 0.00228098 0 0)
(0.0130888 -0.00638913 0 0.0108484 0 0)
(0.104228 -0.0461893 0 0.0238226 0 0)
(0.0476135 -0.0535949 0 0.0733799 0 0)
(0.351933 -0.199471 0 0.117922 0 0)
(0.114512 -0.165921 0 0.25571 0 0)
(0.825659 -0.480672 0 0.284859 0 0)
(0.148509 -0.249427 0 0.435783 0 0)
(1.41339 -0.769071 0 0.428614 0 0)
(0.114291 -0.232104 0 0.508916 0 0)
(1.9716 -0.944466 0 0.483133 0 0)
(0.0855331 -0.143197 0 0.516026 0 0)
(2.61048 -1.00904 0 0.469174 0 0)
(0.122465 -0.0336466 0 0.51014 0 0)
(3.3959 -1.04271 0 0.445922 0 0)
(0.321198 0.0575322 0 0.472962 0 0)
(3.96478 -0.909054 0 0.368734 0 0)
(0.57411 0.0712741 0 0.4277 0 0)
(3.80088 -0.680465 0 0.297376 0 0)
(0.507073 -0.0402037 0 0.400342 0 0)
(2.64419 -0.635036 0 0.265299 0 0)
(0.435544 -0.329996 0 0.396684 0 0)
(2.47884 -0.764735 0 0.294626 0 0)
(1.03137 -0.528249 0 0.549703 0 0)
(0.977919 -0.418635 0 0.474094 0 0)
(0.359652 -0.313152 0 0.805055 0 0)
(1.3522 1.10133 0 1.31921 0 0)
(2.8688 1.75139 0 2.46343 0 0)
(5.59614 2.07103 0 2.98735 0 0)
(8.03055 1.87417 0 2.95286 0 0)
(9.66395 1.47456 0 2.50422 0 0)
(10.4859 0.853699 0 1.85798 0 0)
(10.6363 0.101876 0 1.33635 0 0)
(10.5718 -0.801917 0 1.03353 0 0)
(10.0408 -1.84802 0 1.00025 0 0)
(8.78235 -2.59986 0 1.1754 0 0)
(7.15585 -2.80255 0 1.33059 0 0)
(5.57575 -2.58997 0 1.33437 0 0)
(4.30889 -2.15412 0 1.15852 0 0)
(3.20439 -1.63986 0 0.890598 0 0)
(2.15127 -1.12594 0 0.624225 0 0)
(1.32448 -0.711718 0 0.40628 0 0)
(0.81908 -0.436955 0 0.250267 0 0)
(0.515813 -0.269028 0 0.152823 0 0)
(0.331364 -0.173743 0 0.0992699 0 0)
(0.224665 -0.118573 0 0.067338 0 0)
(0.156353 -0.081147 0 0.0450485 0 0)
(0.106146 -0.0539997 0 0.029287 0 0)
(0.0708512 -0.0355358 0 0.0188465 0 0)
(0.0491017 -0.0238623 0 0.0121927 0 0)
(0.0364586 -0.0165858 0 0.00796864 0 0)
(0.0287583 -0.0118925 0 0.00525947 0 0)
(0.0236699 -0.00872227 0 0.00349457 0 0)
(0.0201184 -0.00649973 0 0.00232576 0 0)
(0.0175859 -0.00490177 0 0.00154314 0 0)
(0.0157674 -0.00373247 0 0.00101767 0 0)
(0.014453 -0.00286477 0 0.000666205 0 0)
(0.013493 -0.00221298 0 0.000432874 0 0)
(0.0127827 -0.00171805 0 0.000279261 0 0)
(0.0122506 -0.00133875 0 0.000178965 0 0)
(0.0118474 -0.00104592 0 0.000113988 0 0)
(0.0115392 -0.000818466 0 7.21757e-05 0 0)
(0.0113018 -0.000640938 0 4.5438e-05 0 0)
(0.0111181 -0.000501929 0 2.84449e-05 0 0)
(0.0109752 -0.000392787 0 1.77013e-05 0 0)
(0.0108638 -0.000306914 0 1.09445e-05 0 0)
(0.0107768 -0.000239243 0 6.71847e-06 0 0)
(0.0107088 -0.000185811 0 4.08705e-06 0 0)
(0.0106557 -0.000143532 0 2.45655e-06 0 0)
(0.0106141 -0.00011002 0 1.45353e-06 0 0)
(0.0105818 -8.33756e-05 0 8.41579e-07 0 0)
(0.0105567 -6.20607e-05 0 4.71621e-07 0 0)
(0.0105374 -4.48527e-05 0 2.51314e-07 0 0)
(0.0105227 -3.07953e-05 0 1.24022e-07 0 0)
(0.0105118 -1.91182e-05 0 5.48281e-08 0 0)
(0.010504 -9.17213e-06 0 2.24948e-08 0 0)
(0.0104988 -4.24199e-07 0 1.47342e-08 0 0)