/*--------------------------------*- C++ -*----------------------------------*\
| =========                 |                                                 |
| \\      /  F ield         | OpenFOAM: The Open Source CFD Toolbox           |
|  \\    /   O peration     | Version:  2.4.0                                 |
|   \\  /    A nd           | Web:      www.OpenFOAM.org                      |
|    \\/     M anipulation  |                                                 |
\*---------------------------------------------------------------------------*/
FoamFile
{
    version     2.0;
    format      ascii;
    class       volScalarField;
    location    "0.022";
    object      p;
}
// * * * * * * * * * * * * * * * * * * * * * * * * * * * * * * * * * * * * * //

dimensions      [0 2 -2 0 0 0 0];

internalField   nonuniform List<scalar> 
4400
(
110.343
90.1753
82.5734
79.2315
77.0709
74.4324
72.0974
70.0286
68.2736
66.8147
108.407
90.2434
82.6104
79.2427
77.073
74.437
72.0928
70.0265
68.2706
66.6615
107.192
90.5609
82.7455
79.2815
77.0938
74.4496
72.0887
70.0196
68.2451
66.4094
106.456
90.9446
82.9254
79.3412
77.1344
74.4831
72.0915
70.0113
68.2
66.1262
105.863
91.3006
83.1052
79.4006
77.1862
74.541
72.1043
70.0088
68.1405
65.8563
105.344
91.5985
83.2697
79.4397
77.2287
74.6146
72.1208
70.0084
68.0926
65.6684
104.918
91.8399
83.4013
79.4599
77.2619
74.6825
72.1266
70.0123
67.9897
65.5604
104.59
92.0222
83.5081
79.4626
77.2781
74.7459
72.1216
70.003
67.9063
65.547
104.366
92.1481
83.5774
79.4664
77.2863
74.7884
72.1113
69.9894
67.8409
65.5954
104.253
92.2155
83.6109
79.4686
77.2824
74.8171
72.0898
69.9665
67.8031
65.6393
104.248
92.2216
83.6103
79.4721
77.2709
74.8289
72.065
69.9393
67.7902
65.6931
104.353
92.1682
83.571
79.476
77.2533
74.824
72.0318
69.9138
67.7886
65.7449
104.567
92.0522
83.4993
79.4787
77.2241
74.8072
71.9931
69.8855
67.7915
65.8435
104.888
91.88
83.3892
79.4789
77.1898
74.7705
71.9429
69.865
67.8133
65.8889
105.309
91.6474
83.2511
79.4645
77.1424
74.7243
71.8915
69.8222
67.837
65.9288
105.821
91.3555
83.0844
79.4299
77.0857
74.6699
71.8442
69.8051
67.8688
65.9623
106.414
91.0029
82.8988
79.3771
77.0229
74.6211
71.8154
69.7992
67.8895
65.9767
107.15
90.6186
82.7163
79.3222
76.976
74.5902
71.8068
69.8045
67.9025
66.0055
108.366
90.301
82.5799
79.2852
76.9527
74.5768
71.8091
69.8122
67.9052
66.0288
110.302
90.2332
82.5417
79.275
76.9494
74.5732
71.8105
69.8196
67.9039
66.1466
63.7242
63.0932
61.1655
53.7794
45.2188
38.7251
29.0439
19.2516
12.6336
14.8972
29.6772
48.1354
61.3806
69.9169
76.5011
81.5647
85.5723
88.6267
90.571
91.6783
92.3174
92.6992
92.9217
93.0445
93.1082
93.1369
93.1437
93.1358
93.1179
93.0931
93.0633
93.03
92.9942
92.9565
92.9174
92.8773
92.8364
92.7949
92.753
92.7107
92.6681
92.6254
92.5825
92.5395
92.4963
92.4531
92.4098
92.3665
92.3231
92.2797
92.2363
92.1928
92.1493
92.1057
92.0621
92.0184
91.9747
91.9309
91.887
91.8429
91.7987
91.7542
91.7094
91.664
91.6181
91.5708
91.5231
91.4715
91.4211
91.3587
91.3061
91.214
91.1667
90.9972
90.9982
90.6636
90.9093
90.3642
91.3242
90.7495
92.4378
91.7822
93.0416
92.1866
92.4616
91.7736
92.2269
91.6924
92.2251
91.5961
91.6378
90.8098
90.8693
89.695
89.3677
86.7623
86.4909
80.1531
78.4136
48.4956
63.4125
62.9899
61.7033
54.0624
45.0487
40.0223
33.035
23.9787
17.463
19.8411
34.0775
51.4806
63.4932
70.9148
76.7559
81.4374
85.1566
88.1259
90.1383
91.3092
91.9913
92.418
92.6879
92.8532
92.9518
93.0088
93.0386
93.0496
93.0471
93.035
93.0157
92.991
92.9622
92.9303
92.896
92.8597
92.822
92.7831
92.7433
92.7028
92.6617
92.6201
92.5781
92.5358
92.4933
92.4505
92.4076
92.3646
92.3214
92.2781
92.2348
92.1913
92.1477
92.1041
92.0603
92.0165
91.9725
91.9284
91.884
91.8395
91.7946
91.7493
91.7036
91.6571
91.6099
91.561
91.5115
91.4573
91.4046
91.3374
91.2821
91.1792
91.1293
90.9272
90.9239
90.4856
90.7384
89.9388
91.044
90.1514
92.2597
91.3343
92.9121
91.8537
92.2573
91.3019
92.104
91.1278
92.0715
91.0337
91.3225
89.9892
90.3379
88.5262
88.4425
84.852
84.8295
75.626
74.1995
40.7371
63.1619
62.8586
61.7861
53.9025
44.4737
40.638
36.4561
28.2517
22.0323
24.6942
37.8582
53.5012
64.5575
71.4425
76.8804
81.2973
84.7598
87.5639
89.6165
90.8965
91.6618
92.1443
92.4584
92.6631
92.7961
92.8817
92.9346
92.9644
92.9773
92.9777
92.9688
92.9525
92.9307
92.9045
92.8748
92.8424
92.8078
92.7715
92.7338
92.695
92.6552
92.6148
92.5737
92.5322
92.4902
92.448
92.4054
92.3627
92.3197
92.2766
92.2333
92.1898
92.1462
92.1025
92.0586
92.0146
91.9703
91.9258
91.8811
91.836
91.7906
91.7446
91.698
91.6504
91.602
91.5515
91.5003
91.4437
91.3888
91.3174
91.2599
91.1475
91.0962
90.8655
90.8577
90.3222
90.5469
89.4933
90.6205
89.4347
91.8961
90.7759
92.6232
91.3254
91.835
90.6197
91.8756
90.391
91.83
90.3402
90.9259
89.0397
89.7823
87.2389
87.1867
82.6352
83.477
72.2852
69.4934
38.9297
62.9834
62.6779
61.6029
53.9368
44.7565
41.7441
39.5305
32.7179
27.0897
30.1521
41.3977
54.6567
64.4493
71.0832
76.5767
80.9559
84.2879
87.0005
89.0782
90.4548
91.32
91.8763
92.2384
92.4793
92.6439
92.757
92.8327
92.881
92.909
92.9217
92.9228
92.9149
92.8999
92.8792
92.8541
92.8255
92.794
92.7601
92.7245
92.6873
92.649
92.6096
92.5694
92.5286
92.4873
92.4455
92.4033
92.3608
92.318
92.275
92.2318
92.1884
92.1448
92.1009
92.0569
92.0127
91.9682
91.9234
91.8782
91.8327
91.7866
91.7399
91.6925
91.6439
91.5943
91.5423
91.4895
91.4308
91.3738
91.2988
91.2396
91.1196
91.0684
90.8164
90.8062
90.1951
90.3717
89.1154
90.1163
88.804
91.3231
90.4012
92.1214
90.5911
91.0508
89.4574
91.2988
89.318
91.5734
89.0035
90.5945
87.792
89.3273
85.8998
85.7451
80.3412
81.1204
69.4014
64.1835
40.4585
62.883
62.5238
61.3341
54.3758
46.1752
43.5718
42.2855
36.7394
32.2555
35.8824
45.358
56.1649
64.5708
70.56
76.0042
80.4869
83.7434
86.4262
88.5818
90.0502
90.9936
91.6163
92.0269
92.3031
92.4974
92.6364
92.7339
92.8001
92.8427
92.8673
92.8782
92.8783
92.8699
92.8547
92.834
92.809
92.7805
92.7491
92.7154
92.6799
92.6428
92.6046
92.5653
92.5252
92.4844
92.443
92.4012
92.359
92.3164
92.2735
92.2304
92.187
92.1433
92.0994
92.0553
92.0108
91.9661
91.921
91.8754
91.8294
91.7828
91.7354
91.6871
91.6376
91.5868
91.5335
91.4792
91.4185
91.3598
91.2817
91.2211
91.0962
91.0458
90.784
90.772
90.1299
90.2332
88.9077
89.617
88.4618
90.7079
90.2601
91.4122
89.6767
89.8507
87.9547
90.1702
88.0401
90.3809
86.6981
89.4732
85.5601
88.4904
83.797
85.0644
78.711
78.9212
66.896
57.4501
41.1578
62.9585
62.3825
61.0141
55.1092
48.2774
45.8325
44.7629
40.5064
37.1001
40.5367
48.8037
57.7216
65.0661
70.4798
75.5904
80.1206
83.33
85.9107
88.11
89.686
90.7073
91.3807
91.828
92.1355
92.3578
92.5212
92.6393
92.7223
92.7787
92.8149
92.8352
92.8431
92.841
92.831
92.8146
92.7931
92.7674
92.7384
92.7067
92.6727
92.6369
92.5997
92.5613
92.5218
92.4816
92.4407
92.3992
92.3572
92.3148
92.2721
92.229
92.1856
92.1419
92.0979
92.0536
92.009
91.964
91.9186
91.8727
91.8262
91.7791
91.731
91.682
91.6315
91.5797
91.5252
91.4694
91.407
91.3466
91.2663
91.2044
91.0772
91.0285
90.7689
90.7609
90.1374
90.1695
88.9035
89.1959
88.3039
89.9899
89.9759
90.2969
88.4031
88.413
86.6202
88.9613
87.0318
89.0505
84.5546
87.3902
82.9892
86.6479
80.1541
83.0222
75.1416
75.391
64.6977
52.5739
41.8243
63.3741
62.5177
60.7868
55.9758
50.4176
47.9268
47.0407
44.5335
41.945
43.9076
50.9263
58.8249
65.2056
70.242
75.206
79.7263
82.9941
85.5366
87.7133
89.3388
90.4273
91.1558
91.6378
91.9755
92.2252
92.4122
92.5497
92.6487
92.7182
92.7652
92.7944
92.8095
92.8135
92.8084
92.7961
92.7779
92.755
92.7282
92.6983
92.6658
92.6313
92.595
92.5574
92.5186
92.4789
92.4384
92.3972
92.3555
92.3133
92.2707
92.2276
92.1843
92.1406
92.0965
92.0521
92.0073
91.9621
91.9164
91.8701
91.8232
91.7755
91.7268
91.6771
91.6257
91.573
91.5173
91.4602
91.3964
91.3344
91.2525
91.1892
91.0623
91.0149
90.7691
90.7678
90.2118
90.1905
89.0648
88.8749
88.0616
88.9652
88.9406
88.6258
86.8305
87.0046
85.5166
87.9299
86.1001
87.5112
83.502
85.9638
81.804
84.3343
77.1654
79.5989
70.4675
69.7153
59.6811
49.6062
42.2231
63.9214
62.7325
60.6551
56.9785
52.3504
49.894
49.372
47.9145
46.0844
47.322
52.8822
59.9019
65.3439
69.5617
74.4476
79.1133
82.4782
85.1444
87.4203
89.0787
90.1693
90.9275
91.4379
91.8117
92.096
92.3089
92.465
92.5785
92.6603
92.7176
92.7554
92.7776
92.7873
92.787
92.7786
92.7635
92.7432
92.7185
92.6904
92.6593
92.6259
92.5906
92.5538
92.5156
92.4764
92.4362
92.3954
92.3539
92.3118
92.2693
92.2264
92.183
92.1393
92.0951
92.0506
92.0056
91.9602
91.9142
91.8676
91.8203
91.7721
91.7228
91.6724
91.6203
91.5665
91.5099
91.4516
91.3866
91.3231
91.2404
91.1755
91.0506
91.003
90.7766
90.7828
90.3121
90.2833
89.2966
88.6972
87.7188
87.5008
87.3921
86.7201
85.3853
85.8888
84.6538
86.7388
84.9309
85.7642
82.2521
84.2816
80.7152
81.5497
75.0946
75.792
67.4263
64.6782
55.9223
48.2209
41.4626
64.3095
62.9288
60.8428
57.8911
53.9652
51.8889
51.7026
50.6445
49.1874
50.3636
54.8594
60.6689
65.5246
69.0865
73.3966
78.2175
81.8426
84.6253
87.0675
88.8592
89.9719
90.7369
91.2446
91.6441
91.9632
92.2083
92.3869
92.5153
92.6082
92.6744
92.7197
92.7481
92.7631
92.767
92.7622
92.7501
92.7322
92.7095
92.6829
92.6532
92.6209
92.5865
92.5503
92.5128
92.474
92.4342
92.3936
92.3524
92.3105
92.2681
92.2252
92.1818
92.138
92.0938
92.0492
92.0041
91.9584
91.9122
91.8652
91.8175
91.7689
91.7191
91.668
91.6151
91.5605
91.5029
91.4436
91.3777
91.3127
91.2299
91.1628
91.0416
90.9907
90.7854
90.7901
90.4109
90.3897
89.5845
88.689
87.4569
85.779
85.5051
84.9443
84.4824
85.1943
83.8798
85.2777
83.537
83.9405
80.8083
82.383
78.7953
78.4041
72.919
71.7282
65.808
61.0912
55.2418
47.8251
40.873
64.6557
63.4283
61.1234
58.8256
55.7197
53.7251
53.4181
53.085
52.0971
52.5555
56.1779
61.0684
65.1615
68.4205
72.2225
76.8645
80.9422
84.1092
86.6543
88.5071
89.7514
90.6398
91.1155
91.518
91.8457
92.107
92.3038
92.4485
92.5549
92.6317
92.6852
92.7202
92.7403
92.7485
92.7469
92.7376
92.7219
92.7011
92.6761
92.6476
92.6163
92.5827
92.5472
92.5101
92.4718
92.4324
92.392
92.3509
92.3092
92.2669
92.224
92.1807
92.1369
92.0926
92.0479
92.0026
91.9567
91.9102
91.863
91.8149
91.7658
91.7155
91.6638
91.6103
91.5549
91.4965
91.4362
91.3696
91.3033
91.2209
91.1513
91.035
90.9776
90.793
90.7842
90.4888
90.4795
89.8783
88.8543
87.3751
84.2551
83.6869
83.717
84.1847
84.8954
83.3636
83.5884
81.9641
81.922
79.6193
80.1917
76.6373
75.1824
71.273
68.9419
65.0728
59.7279
56.5677
48.1513
41.6245
64.959
63.6395
61.4296
59.7443
57.4222
55.3906
55.0305
55.0923
54.6644
54.756
57.1826
61.25
64.6528
67.3217
70.9186
75.4892
79.7559
83.3595
86.2434
88.1766
89.4493
90.1565
90.8975
91.3768
91.7724
92.064
92.2638
92.4072
92.516
92.5974
92.656
92.6957
92.72
92.7317
92.7331
92.7263
92.7126
92.6935
92.6698
92.6424
92.612
92.5792
92.5443
92.5077
92.4697
92.4306
92.3906
92.3496
92.308
92.2658
92.223
92.1797
92.1358
92.0915
92.0466
92.0012
91.9551
91.9084
91.8609
91.8125
91.763
91.7122
91.6599
91.6058
91.5497
91.4907
91.4294
91.3623
91.2947
91.2133
91.1409
91.0308
90.9645
90.8016
90.7671
90.5428
90.4806
90.1444
89.1106
87.6001
83.5475
82.7097
82.9181
84.3722
84.8715
83.3034
82.0356
80.6526
80.2362
78.5349
77.9452
74.9532
72.9012
70.4159
67.3247
65.1859
60.126
58.58
49.2062
43.2835
65.0643
63.9852
62.1671
60.4027
58.6173
56.8987
56.942
57.3482
56.6465
56.5183
58.4499
61.3104
63.9848
66.3007
69.6069
74.1858
78.8445
82.7125
85.7024
87.7963
89.2195
90.188
90.7959
91.2583
91.6308
91.9372
92.1697
92.3405
92.4678
92.561
92.6273
92.6727
92.7013
92.7164
92.7207
92.716
92.7042
92.6866
92.6641
92.6378
92.6082
92.576
92.5417
92.5055
92.4679
92.4291
92.3892
92.3485
92.307
92.2648
92.222
92.1787
92.1348
92.0904
92.0455
91.9999
91.9537
91.9067
91.859
91.8102
91.7603
91.7091
91.6564
91.6017
91.545
91.4853
91.4232
91.3559
91.287
91.207
91.1317
91.029
90.9526
90.8143
90.7478
90.5966
90.4892
90.3613
89.3782
88.1619
83.985
82.7487
82.3295
84.6848
85.0404
83.9389
81.2153
79.7285
79.4329
78.2473
76.4621
74.1752
72.0971
70.8755
67.1474
66.2658
61.1745
60.4994
50.7786
44.6143
65.2326
64.2044
62.4437
61.2403
60.059
58.7636
58.4302
58.9177
58.6065
58.2498
59.6572
61.6418
63.1421
64.8009
68.0946
72.8609
77.7899
82.0522
85.3138
87.5569
89.001
89.9738
90.6643
91.2028
91.608
91.9353
92.1533
92.3122
92.4385
92.5346
92.6045
92.6535
92.6853
92.7032
92.7098
92.7071
92.6969
92.6805
92.6592
92.6337
92.6048
92.5732
92.5394
92.5036
92.4663
92.4277
92.388
92.3474
92.306
92.2639
92.2212
92.1779
92.134
92.0895
92.0444
91.9987
91.9524
91.9052
91.8572
91.8081
91.7579
91.7063
91.6531
91.598
91.5407
91.4805
91.4177
91.3503
91.2802
91.2019
91.1237
91.0292
90.9428
90.8317
90.7317
90.6527
90.4702
90.5303
89.6047
89.0359
85.333
83.9646
82.1923
85.0111
85.2121
85.2584
81.3791
79.7596
79.0566
78.9201
76.1281
74.6905
72.3304
72.484
68.1833
68.1754
62.5338
61.9299
52.1498
45.3882
65.2065
64.2948
63.4737
62.4764
61.1273
60.0367
60.0291
60.6044
60.4196
59.8869
60.3888
61.5419
62.5205
63.7044
66.4148
71.2981
76.7758
81.4895
84.9487
87.2932
88.8415
89.8885
90.6035
91.136
91.5333
91.823
92.0723
92.2601
92.4027
92.5079
92.5834
92.6365
92.6714
92.6918
92.7004
92.6994
92.6906
92.6754
92.6549
92.6302
92.602
92.5709
92.5374
92.502
92.4649
92.4265
92.387
92.3465
92.3052
92.2632
92.2204
92.1771
92.1332
92.0886
92.0435
91.9977
91.9511
91.9038
91.8556
91.8063
91.7558
91.7038
91.6502
91.5946
91.5368
91.4763
91.4127
91.3453
91.2743
91.1978
91.117
91.0307
90.9352
90.8521
90.7194
90.7112
90.4331
90.684
89.7608
90.0261
87.0705
86.2195
82.9084
85.4534
85.2362
86.6524
82.3839
81.373
79.0478
80.1968
76.9196
76.8822
73.1655
74.6282
69.6655
70.1797
63.8181
62.6533
53.2388
45.8944
65.1982
64.3861
63.225
63.2002
62.4386
61.5898
61.555
62.0125
61.672
60.9714
61.1569
61.6972
61.8622
62.6879
65.4185
70.24
75.9107
80.9766
84.6958
87.1546
88.731
89.7788
90.5176
91.0704
91.4906
91.8034
92.0497
92.2415
92.3825
92.4898
92.5675
92.623
92.6602
92.6826
92.6928
92.6931
92.6854
92.6711
92.6514
92.6273
92.5996
92.5689
92.5358
92.5006
92.4638
92.4256
92.3862
92.3458
92.3045
92.2625
92.2198
92.1764
92.1325
92.0879
92.0427
91.9967
91.9501
91.9026
91.8541
91.8046
91.7538
91.7016
91.6476
91.5917
91.5334
91.4725
91.4084
91.341
91.2692
91.1943
91.1115
91.0327
90.9296
90.8718
90.7107
90.7673
90.3962
90.8234
89.8466
90.9169
88.6699
88.9804
84.5783
86.3484
85.0413
87.8287
83.7978
84.1098
79.4506
81.9797
78.6136
79.7483
74.2588
76.7294
71.1707
71.6513
65.0365
62.6907
54.0077
46.4852
65.0838
64.47
64.5533
64.1464
63.2954
62.552
62.6754
63.115
62.8784
62.0855
61.607
61.6229
61.655
62.2371
64.6509
69.5628
75.4318
80.7007
84.524
87.0414
88.6728
89.7545
90.4997
91.0454
91.4589
91.7719
92.0192
92.216
92.3631
92.4724
92.5543
92.6123
92.6514
92.6753
92.6868
92.6882
92.6813
92.6678
92.6487
92.625
92.5977
92.5674
92.5345
92.4995
92.4629
92.4248
92.3855
92.3452
92.304
92.262
92.2193
92.1759
92.1319
92.0872
92.0419
91.9959
91.9492
91.9015
91.8529
91.8032
91.7521
91.6996
91.6453
91.5891
91.5305
91.4692
91.4048
91.3373
91.265
91.1914
91.1072
91.0345
90.9259
90.8882
90.7052
90.8155
90.3709
90.9447
89.8818
91.5712
89.7781
91.5182
86.7694
87.8228
84.866
88.6447
84.9992
87.2034
80.7407
83.7543
80.2129
82.6991
75.5603
78.3368
72.6073
72.5106
65.7599
62.3965
54.4479
47.1761
65.1141
64.6336
64.3502
64.5565
64.158
63.5183
63.4143
63.7484
63.6051
62.8095
62.1211
61.7288
61.5337
62.1768
64.7505
69.4695
75.2985
80.5782
84.4499
87.0092
88.6562
89.7328
90.4745
91.021
91.4378
91.7579
92.008
92.2039
92.3522
92.4632
92.546
92.6053
92.6455
92.6704
92.6827
92.6848
92.6785
92.6655
92.6468
92.6235
92.5964
92.5663
92.5336
92.4988
92.4623
92.4242
92.385
92.3447
92.3035
92.2616
92.2188
92.1755
92.1314
92.0867
92.0413
91.9953
91.9484
91.9006
91.8518
91.8019
91.7507
91.6979
91.6434
91.5869
91.5279
91.4664
91.4017
91.3342
91.2615
91.1889
91.104
91.0353
90.9238
90.8989
90.7026
90.8503
90.3604
91.0486
89.8908
91.9592
90.2548
93.2657
88.9086
89.846
85.1116
89.1947
85.4196
89.8258
82.8473
85.4419
81.1972
85.1056
77.1782
79.2335
73.7026
73.171
66.3322
61.9086
54.4684
47.7268
65.1424
64.7992
64.8745
64.8801
64.5058
64.0442
63.9538
64.1173
63.9756
63.25
62.48
61.9434
61.681
62.374
64.9695
69.6726
75.3834
80.5568
84.4036
86.9715
88.637
89.7297
90.4773
91.0213
91.4345
91.7529
92.0019
92.1967
92.3456
92.4577
92.5412
92.6012
92.6421
92.6675
92.6803
92.6828
92.6769
92.6641
92.6456
92.6225
92.5957
92.5656
92.5331
92.4983
92.4619
92.4239
92.3847
92.3444
92.3033
92.2613
92.2185
92.1751
92.1311
92.0863
92.0409
91.9947
91.9478
91.8999
91.851
91.8009
91.7496
91.6966
91.6419
91.5851
91.5259
91.4642
91.3992
91.3317
91.2589
91.1867
91.102
91.0351
90.9231
90.9035
90.7019
90.8676
90.3651
91.1233
89.9166
92.1251
90.2127
93.8918
90.1041
91.9162
86.3785
89.7883
85.66
91.2776
84.7193
87.4565
81.8043
86.3803
78.712
79.9717
74.2638
73.8124
66.9807
61.3992
54.4864
48.3753
65.2477
64.9472
64.955
64.9907
64.6809
64.2623
64.1615
64.2596
64.1004
63.4297
62.7084
62.1414
61.8904
62.7143
65.3624
69.9596
75.5195
80.5393
84.3431
86.9168
88.6004
89.7068
90.4628
91.011
91.4265
91.7473
91.9977
92.1929
92.3424
92.4552
92.5391
92.5994
92.6406
92.6663
92.6793
92.682
92.6762
92.6635
92.6452
92.6222
92.5953
92.5654
92.5328
92.4981
92.4617
92.4237
92.3845
92.3443
92.3031
92.2611
92.2184
92.175
92.1309
92.0861
92.0406
91.9944
91.9474
91.8995
91.8505
91.8004
91.7489
91.6958
91.641
91.5841
91.5248
91.4629
91.3979
91.3302
91.2577
91.1853
91.1017
91.0339
90.9262
90.9004
90.713
90.8587
90.3967
91.1294
89.9906
92.137
90.0976
93.9301
89.636
93.0843
87.3761
90.5509
86.1839
91.7879
85.6749
88.9947
82.4384
86.798
79.662
80.6846
74.7226
74.131
67.722
61.167
54.6159
49.0872
65.3994
65.0756
65.009
64.9789
64.6948
64.3256
64.1958
64.2347
64.0897
63.4158
62.7683
62.2148
62.0425
62.9506
65.6612
70.1677
75.5842
80.5051
84.2743
86.8481
88.5515
89.6772
90.4463
91.0013
91.4199
91.7425
91.9939
92.1896
92.3396
92.453
92.5373
92.598
92.6394
92.6653
92.6785
92.6813
92.6757
92.6631
92.6448
92.6219
92.5951
92.5652
92.5327
92.498
92.4616
92.4236
92.3845
92.3442
92.303
92.261
92.2183
92.1749
92.1308
92.086
92.0405
91.9943
91.9472
91.8993
91.8503
91.8001
91.7486
91.6955
91.6406
91.5837
91.5244
91.4625
91.3974
91.3297
91.2574
91.1847
91.1026
91.0326
90.93
90.8953
90.7246
90.8497
90.4183
91.1348
90.0299
92.13
90.0766
93.7157
89.6314
93.2959
87.3697
91.2188
86.4129
91.9559
85.746
89.5482
82.7044
86.952
79.8793
80.9652
74.8037
74.0845
67.7121
61.0655
54.6479
49.0685
54.1082
52.9844
51.0707
48.5645
45.3547
41.8662
39.1573
38.573
41.2378
47.6238
56.7773
66.6441
75.9408
83.4599
88.9925
92.4758
94.4934
95.8007
96.3891
96.533
96.412
96.1463
95.8139
95.4631
95.1223
94.8061
94.5209
94.2681
94.0461
93.8524
93.6835
93.5362
93.407
93.293
93.1918
93.101
93.0188
92.9437
92.8745
92.8101
92.7496
92.6923
92.6377
92.5852
92.5346
92.4855
92.4377
92.391
92.3452
92.3002
92.2559
92.2124
92.1696
92.1275
92.0861
92.0455
92.0058
91.967
91.9294
91.8932
91.8585
91.8258
91.7953
91.7676
91.7432
91.7229
91.7074
91.6979
91.6955
91.7019
91.7187
91.7479
91.7917
91.8523
91.932
92.0326
92.1556
92.3019
92.4716
92.6647
92.8808
93.1202
93.3839
93.6742
93.9941
94.3483
94.7401
95.175
95.653
96.1776
96.7434
97.3516
97.9895
98.6598
99.3564
100.09
100.853
101.625
102.267
102.605
54.2626
53.1521
51.2174
48.5947
45.1854
41.4747
38.5469
37.786
40.38
46.8816
56.24
66.2996
75.7649
83.4008
89.0383
92.4099
94.5641
95.8351
96.4135
96.55
96.4234
96.1536
95.8183
95.4653
95.1223
94.8042
94.5188
94.2658
94.0441
93.8505
93.6819
93.5348
93.4059
93.2921
93.191
93.1003
93.0183
92.9433
92.8742
92.8098
92.7493
92.6921
92.6375
92.5851
92.5345
92.4854
92.4376
92.3909
92.3451
92.3001
92.2559
92.2124
92.1695
92.1274
92.086
92.0454
92.0056
91.9668
91.9292
91.8929
91.8582
91.8254
91.7949
91.7671
91.7425
91.722
91.7064
91.6966
91.694
91.7
91.7165
91.7454
91.7888
91.8491
91.9286
92.0291
92.152
92.2984
92.4682
92.6613
92.8774
93.1163
93.3795
93.6685
93.9875
94.3398
94.7312
95.1635
95.6426
96.1641
96.7342
97.3387
97.9845
98.6522
99.3581
100.086
100.861
101.63
102.297
102.641
54.5821
53.489
51.4879
48.5951
44.8275
40.7285
37.3809
36.2569
38.6745
45.3156
55.0722
65.5271
75.3067
83.1639
88.9978
92.2393
94.5385
95.8086
96.3867
96.5238
96.3984
96.1306
95.7978
95.4476
95.108
94.7937
94.5101
94.2589
94.0387
93.8465
93.6786
93.5322
93.4038
93.2905
93.1897
93.0993
93.0175
92.9426
92.8736
92.8093
92.749
92.6918
92.6373
92.5849
92.5343
92.4853
92.4375
92.3907
92.3449
92.2999
92.2557
92.2122
92.1693
92.1271
92.0857
92.045
92.0052
91.9663
91.9286
91.8922
91.8574
91.8244
91.7936
91.7656
91.7407
91.7198
91.7037
91.6933
91.69
91.6952
91.7108
91.7386
91.781
91.8403
91.9189
92.0187
92.1413
92.2875
92.4571
92.6502
92.8653
93.1031
93.3633
93.6498
93.9632
94.3128
94.6958
95.1277
95.5959
96.1227
96.6814
97.2996
97.9394
98.6336
99.3438
100.112
100.894
101.703
102.362
102.733
54.9382
53.8635
51.6937
48.4862
44.2795
39.6419
35.7051
34.0047
36.1312
42.9562
53.2688
64.3338
74.5664
82.7404
88.7012
92.1179
94.4369
95.7207
96.3094
96.4559
96.3389
96.0788
95.7533
95.4102
95.0771
94.7682
94.4893
94.2422
94.0252
93.8357
93.6704
93.5258
93.3987
93.2864
93.1865
93.0967
93.0154
92.941
92.8723
92.8083
92.7481
92.6911
92.6367
92.5844
92.5339
92.4849
92.4371
92.3904
92.3446
92.2996
92.2554
92.2118
92.1689
92.1267
92.0852
92.0444
92.0045
91.9655
91.9277
91.8911
91.856
91.8227
91.7916
91.7631
91.7377
91.7161
91.6992
91.6879
91.6834
91.6873
91.7013
91.7274
91.768
91.8256
91.9025
92.001
92.1227
92.2683
92.4377
92.6298
92.8439
93.0782
93.3355
93.6134
93.9227
94.257
94.6378
95.0468
95.5189
96.018
96.5922
97.1868
97.8599
98.5502
99.3176
100.106
100.963
101.776
102.502
102.844
55.2407
54.1404
51.8138
48.2882
43.5709
38.2665
33.5017
30.9662
32.6082
39.6817
50.7232
62.6642
73.5103
82.1286
88.2871
91.9106
94.2623
95.5734
96.1842
96.3494
96.2483
96.0019
95.6883
95.3557
95.0318
94.7309
94.459
94.2176
94.0055
93.82
93.6579
93.5157
93.3907
93.28
93.1814
93.0926
93.0121
92.9383
92.8702
92.8066
92.7467
92.6899
92.6357
92.5836
92.5333
92.4843
92.4366
92.39
92.3442
92.2992
92.255
92.2114
92.1685
92.1262
92.0846
92.0437
92.0037
91.9645
91.9265
91.8896
91.8542
91.8206
91.789
91.76
91.7339
91.7115
91.6936
91.681
91.6751
91.6773
91.6893
91.7132
91.7515
91.8067
91.8816
91.9783
92.0988
92.2439
92.4126
92.6045
92.8161
93.0485
93.2977
93.5713
93.8641
94.1948
94.5487
94.9602
95.3956
95.906
96.4422
97.0581
97.7088
98.4407
99.2129
100.074
100.946
101.844
102.538
102.958
55.4693
54.3342
51.8407
47.9933
42.7454
36.5853
30.7306
26.9956
27.8559
35.1789
47.1936
60.3796
72.0695
81.3004
87.752
91.5995
94.0164
95.3712
96.0157
96.2085
96.13
95.9024
95.6048
95.2859
94.9738
94.683
94.4199
94.1859
93.9798
93.7992
93.6411
93.5023
93.3799
93.2713
93.1743
93.087
93.0075
92.9346
92.8672
92.8041
92.7447
92.6883
92.6344
92.5825
92.5323
92.4835
92.4359
92.3894
92.3436
92.2987
92.2544
92.2108
92.1678
92.1255
92.0838
92.0428
92.0026
91.9633
91.925
91.8879
91.8522
91.8181
91.7861
91.7564
91.7295
91.7062
91.6871
91.6731
91.6655
91.6656
91.6752
91.6965
91.732
91.7843
91.8567
91.9513
92.0706
92.2149
92.3836
92.5747
92.7856
93.0128
93.2587
93.5185
93.8069
94.1131
94.4651
94.8433
95.2781
95.7546
96.288
96.8824
97.5357
98.2671
99.0681
99.9412
100.883
101.777
102.551
102.943
55.5999
54.3751
51.838
47.6359
41.8328
34.5742
27.3528
22.01
21.713
29.2199
42.5524
57.3648
70.2138
80.2352
87.0651
91.1742
93.6947
95.1143
95.806
96.0354
95.9862
95.7824
95.5045
95.2023
94.9043
94.6257
94.3728
94.1474
93.9485
93.7738
93.6205
93.4856
93.3664
93.2604
93.1655
93.0798
93.0018
92.93
92.8634
92.801
92.7422
92.6863
92.6327
92.5811
92.5311
92.4825
92.4351
92.3886
92.3429
92.298
92.2538
92.2102
92.1671
92.1247
92.0829
92.0418
92.0015
91.962
91.9234
91.886
91.8499
91.8154
91.7827
91.7523
91.7246
91.7001
91.6797
91.6641
91.6545
91.6523
91.6592
91.6774
91.7096
91.7585
91.8279
91.92
92.0378
92.1816
92.3501
92.542
92.7502
92.9762
93.2122
93.4665
93.7358
94.0332
94.3607
94.7247
95.138
95.5874
96.1157
96.6711
97.335
98.0451
98.8543
99.7521
100.682
101.657
102.389
102.819
55.7109
54.4264
51.6786
47.2893
40.824
32.2566
23.3408
16.1498
14.3853
22.1707
37.1683
53.768
68.0325
78.9456
86.2049
90.6267
93.2926
94.8015
95.556
95.832
95.8185
95.643
95.3883
95.1055
94.824
94.5593
94.3182
94.1027
93.912
93.7441
93.5963
93.466
93.3505
93.2476
93.1551
93.0714
92.9949
92.9244
92.8588
92.7973
92.7392
92.6838
92.6307
92.5794
92.5297
92.4813
92.434
92.3877
92.3421
92.2972
92.253
92.2094
92.1663
92.1238
92.082
92.0407
92.0002
91.9604
91.9216
91.8839
91.8473
91.8123
91.779
91.7477
91.7191
91.6934
91.6715
91.6541
91.6423
91.6374
91.6413
91.6558
91.6843
91.7291
91.7951
91.884
92.0003
92.1433
92.3128
92.5048
92.7132
92.9347
93.1651
93.4061
93.663
93.9419
94.2473
94.5994
94.9707
95.4253
95.891
96.4615
97.078
97.7784
98.5949
99.4542
100.435
101.336
102.178
102.612
55.733
54.6352
51.5705
46.9105
39.7731
29.6597
18.7552
9.80007
6.75229
14.9443
31.9449
50.0954
65.752
77.5156
85.1757
89.9553
92.8077
94.4326
95.2669
95.5999
95.6286
95.4856
95.2573
94.9964
94.7334
94.4843
94.2564
94.052
93.8705
93.7102
93.5687
93.4436
93.3323
93.2327
93.1431
93.0616
92.987
92.9179
92.8536
92.7931
92.7357
92.6809
92.6283
92.5775
92.5281
92.4799
92.4328
92.3866
92.3411
92.2963
92.2521
92.2085
92.1654
92.1228
92.0809
92.0395
91.9987
91.9588
91.9196
91.8815
91.8445
91.8089
91.7748
91.7428
91.713
91.6861
91.6625
91.6431
91.6289
91.621
91.6215
91.6318
91.656
91.696
91.7579
91.8431
91.9577
92.1003
92.2708
92.465
92.6723
92.8924
93.114
93.343
93.586
93.8381
94.1357
94.4423
94.8159
95.2113
95.6764
96.2005
96.7875
97.4801
98.2443
99.1047
100.046
100.992
101.665
102.224
55.7666
54.6332
51.5901
46.5548
38.7057
26.8341
13.7337
3.40055
-0.0731325
8.70042
27.8947
47.0168
63.6384
76.0149
84.0965
89.1796
92.2415
94.0087
94.9407
95.3412
95.4181
95.3117
95.1125
94.8757
94.6331
94.4013
94.1879
93.9957
93.8244
93.6725
93.538
93.4185
93.3119
93.2161
93.1296
93.0506
92.978
92.9107
92.8476
92.7882
92.7317
92.6777
92.6256
92.5752
92.5262
92.4784
92.4315
92.3854
92.3401
92.2953
92.2512
92.2075
92.1644
92.1218
92.0797
92.0381
91.9972
91.9569
91.9175
91.8789
91.8414
91.8052
91.7704
91.7374
91.7065
91.6781
91.6528
91.6312
91.6144
91.6032
91.5999
91.6056
91.6249
91.6591
91.7165
91.7968
91.91
92.0516
92.2248
92.4215
92.6297
92.8491
93.0598
93.2802
93.4975
93.7372
93.9993
94.2933
94.6249
95.0001
95.4271
95.9115
96.4709
97.1173
97.8358
98.6735
99.5559
100.481
101.364
101.515
56.0339
54.6836
51.576
46.2021
37.7145
24.1883
8.71525
-2.54525
-5.60565
3.85917
25.0716
44.8117
61.8576
74.5995
83.0099
88.3344
91.6051
93.5339
94.5803
95.0584
95.1891
95.1225
94.955
94.7444
94.5239
94.3107
94.1131
93.9342
93.7739
93.6312
93.5042
93.3909
93.2894
93.1979
93.1147
93.0385
92.9681
92.9026
92.8411
92.7828
92.7273
92.6741
92.6226
92.5728
92.5242
92.4766
92.43
92.3841
92.3389
92.2942
92.2501
92.2065
92.1633
92.1206
92.0784
92.0367
91.9955
91.955
91.9152
91.8762
91.8382
91.8013
91.7657
91.7317
91.6996
91.6696
91.6425
91.6186
91.5989
91.5841
91.5767
91.577
91.591
91.6184
91.6706
91.7447
91.8567
91.9968
92.1746
92.3745
92.5863
92.8043
93.0068
93.2117
93.41
93.622
93.863
94.127
94.424
94.7735
95.1516
95.598
96.114
96.6955
97.3766
98.1306
98.9872
99.7634
100.36
101.097
56.4801
55.1187
51.7295
45.949
36.9462
22.055
4.49678
-7.34908
-9.45352
0.596713
22.8799
43.3416
60.571
73.4082
81.9737
87.4592
90.9178
93.0175
94.1909
94.7547
94.9437
94.9198
94.7859
94.6033
94.4064
94.2133
94.0326
93.8678
93.7195
93.5866
93.4677
93.3611
93.2651
93.178
93.0985
93.0253
92.9574
92.8938
92.8339
92.777
92.7225
92.6701
92.6194
92.5701
92.5219
92.4747
92.4283
92.3827
92.3376
92.293
92.249
92.2053
92.1621
92.1193
92.077
92.0351
91.9937
91.9529
91.9127
91.8733
91.8347
91.7971
91.7607
91.7256
91.6922
91.6607
91.6316
91.6052
91.5826
91.5639
91.552
91.5464
91.5544
91.5737
91.6202
91.6863
91.7976
91.9349
92.1201
92.3244
92.542
92.7617
92.9519
93.145
93.317
93.4996
93.7254
93.9376
94.2252
94.5194
94.8536
95.2655
95.7016
96.2352
96.8345
97.5298
98.2134
99.0988
99.6509
99.7842
57.0567
55.7144
52.1533
45.9292
36.5395
20.7236
1.74801
-10.4559
-11.662
-0.954029
21.2783
42.4524
59.8239
72.5235
81.0443
86.5954
90.2035
92.4725
93.78
94.4344
94.6845
94.7051
94.6065
94.4534
94.2814
94.1095
93.9469
93.7972
93.6614
93.539
93.4288
93.3293
93.2391
93.1568
93.0812
93.0112
92.9459
92.8844
92.8262
92.7707
92.7174
92.6659
92.6159
92.5672
92.5195
92.4727
92.4266
92.3811
92.3362
92.2918
92.2477
92.2041
92.1609
92.118
92.0755
92.0335
91.9918
91.9507
91.9101
91.8702
91.8311
91.7927
91.7554
91.7193
91.6846
91.6514
91.6203
91.5912
91.5655
91.5426
91.526
91.5137
91.5154
91.5249
91.5654
91.6206
91.7325
91.8642
92.062
92.2694
92.4998
92.7208
92.898
93.0835
93.2095
93.3874
93.5567
93.7607
93.9999
94.2464
94.5562
94.8778
95.264
95.7267
96.2226
96.79
97.4399
97.8618
98.501
98.8158
57.8131
56.4355
52.8179
46.2774
36.4926
20.2603
0.546516
-11.5889
-12.2855
-1.39997
20.0408
41.8122
59.405
71.8539
80.206
85.7654
89.4883
91.9137
93.3562
94.1028
94.4143
94.48
94.4179
94.2954
94.1497
94.0002
93.8564
93.7226
93.6001
93.4888
93.3876
93.2956
93.2116
93.1343
93.0628
92.9962
92.9336
92.8744
92.8181
92.764
92.7119
92.6614
92.6122
92.5641
92.5169
92.4705
92.4247
92.3795
92.3348
92.2904
92.2465
92.2028
92.1596
92.1166
92.074
92.0317
91.9899
91.9484
91.9075
91.8671
91.8273
91.7882
91.75
91.7127
91.6766
91.6417
91.6085
91.5768
91.5478
91.5205
91.499
91.4793
91.4742
91.4719
91.506
91.5466
91.661
91.7826
92.001
92.2077
92.4638
92.679
92.8552
93.0141
93.1116
93.2496
93.4027
93.5589
93.7643
93.9808
94.2091
94.4796
94.7994
95.1416
95.5344
95.9866
96.487
96.9809
96.9135
96.9738
58.7289
57.2995
53.6219
46.8729
36.8426
20.6452
0.899639
-10.7997
-11.4632
-1.37522
18.9552
41.144
59.0262
71.2435
79.3777
84.9445
88.7876
91.3575
92.9278
93.7647
94.1362
94.2465
94.2212
94.1305
94.012
93.8858
93.7619
93.6447
93.5361
93.4362
93.3446
93.2604
93.1828
93.1108
93.0436
92.9805
92.9208
92.864
92.8095
92.757
92.7062
92.6567
92.6083
92.5609
92.5142
92.4682
92.4228
92.3778
92.3332
92.289
92.2451
92.2015
92.1582
92.1151
92.0724
92.0299
91.9878
91.9461
91.9047
91.8638
91.8234
91.7836
91.7444
91.706
91.6685
91.6318
91.5965
91.5619
91.5297
91.4977
91.4712
91.4432
91.4311
91.4146
91.4424
91.463
91.583
91.6866
91.9373
92.137
92.4353
92.6413
92.8164
92.9572
92.9943
93.127
93.2232
93.3541
93.5342
93.6775
93.8621
94.0614
94.2737