/*--------------------------------*- C++ -*----------------------------------*\
| =========                 |                                                 |
| \\      /  F ield         | OpenFOAM: The Open Source CFD Toolbox           |
|  \\    /   O peration     | Version:  2.4.0                                 |
|   \\  /    A nd           | Web:      www.OpenFOAM.org                      |
|    \\/     M anipulation  |                                                 |
\*---------------------------------------------------------------------------*/
FoamFile
{
    version     2.0;
    format      ascii;
    class       surfaceScalarField;
    location    "0.022";
    object      phi;
}
// * * * * * * * * * * * * * * * * * * * * * * * * * * * * * * * * * * * * * //

dimensions      [0 3 -1 0 0 0 0];

internalField   nonuniform List<scalar> 
8640
(
1.1466e-05
1.3534e-05
7.16815e-06
4.29788e-06
5.91757e-06
1.25059e-06
5.35212e-06
5.65443e-07
5.12839e-06
2.23731e-07
4.87902e-06
2.49378e-07
4.78925e-06
8.97602e-08
4.65377e-06
1.35481e-07
4.70157e-06
-4.77935e-08
9.80971e-07
3.7206e-06
2.10563e-05
1.74777e-05
1.74298e-05
7.92435e-06
1.55123e-05
3.16812e-06
1.42707e-05
1.80707e-06
1.35064e-05
9.87958e-07
1.28949e-05
8.6088e-07
1.26907e-05
2.9404e-07
1.23234e-05
5.02695e-07
1.25074e-05
-2.31768e-07
2.44021e-06
1.10482e-05
2.57188e-05
1.67589e-05
2.40702e-05
9.57298e-06
2.25942e-05
4.64406e-06
2.12995e-05
3.10179e-06
2.02157e-05
2.07175e-06
1.94229e-05
1.65371e-06
1.91038e-05
6.13079e-07
1.85564e-05
1.05011e-06
1.87064e-05
-3.81736e-07
3.15952e-06
1.79871e-05
2.74911e-05
1.42678e-05
2.77022e-05
9.36188e-06
2.73108e-05
5.03547e-06
2.66386e-05
3.77396e-06
2.56246e-05
3.08578e-06
2.48658e-05
2.41246e-06
2.45444e-05
9.34445e-07
2.3843e-05
1.75154e-06
2.38417e-05
-3.80423e-07
3.42572e-06
2.35755e-05
2.76937e-05
1.15741e-05
2.88902e-05
8.16537e-06
2.94744e-05
4.45131e-06
2.98184e-05
3.42991e-06
2.93846e-05
3.5196e-06
2.88865e-05
2.91055e-06
2.88068e-05
1.01416e-06
2.80868e-05
2.47151e-06
2.78952e-05
-1.88767e-07
3.65885e-06
2.76621e-05
2.75334e-05
9.04067e-06
2.89374e-05
6.76143e-06
2.98758e-05
3.51285e-06
3.07679e-05
2.53783e-06
3.11456e-05
3.14194e-06
3.11299e-05
2.92625e-06
3.14242e-05
7.19837e-07
3.10251e-05
2.8706e-06
3.07313e-05
1.0505e-07
4.07546e-06
3.03147e-05
2.73706e-05
6.6701e-06
2.89442e-05
5.18785e-06
2.98596e-05
2.59744e-06
3.06534e-05
1.74395e-06
3.14247e-05
2.37072e-06
3.18284e-05
2.52248e-06
3.23078e-05
2.40483e-07
3.24155e-05
2.76284e-06
3.2273e-05
2.47609e-07
3.57764e-06
3.27708e-05
2.72959e-05
4.37417e-06
2.89344e-05
3.54933e-06
2.98534e-05
1.67851e-06
3.05152e-05
1.08207e-06
3.12489e-05
1.63706e-06
3.19058e-05
1.8656e-06
3.24178e-05
-2.71494e-07
3.26632e-05
2.51742e-06
3.26742e-05
2.3657e-07
2.06974e-06
3.41821e-05
2.72218e-05
2.15235e-06
2.89449e-05
1.82623e-06
2.98193e-05
8.04126e-07
3.03892e-05
5.12145e-07
3.11783e-05
8.48008e-07
3.19141e-05
1.1298e-06
3.22806e-05
-6.3803e-07
3.26587e-05
2.13931e-06
3.28681e-05
2.72177e-08
7.22902e-07
3.42149e-05
2.72071e-05
-5.47318e-08
2.89438e-05
8.95121e-08
2.97579e-05
-9.95996e-09
3.03916e-05
-1.21549e-07
3.11642e-05
7.5386e-08
3.18489e-05
4.45101e-07
3.22858e-05
-1.07491e-06
3.27687e-05
1.65642e-06
3.29759e-05
-1.79964e-07
4.49388e-07
3.32494e-05
2.72017e-05
-2.25646e-06
2.89428e-05
-1.65157e-06
2.97632e-05
-8.30309e-07
3.03954e-05
-7.53799e-07
3.11243e-05
-6.53499e-07
3.18921e-05
-3.22655e-07
3.23146e-05
-1.4975e-06
3.27579e-05
1.21321e-06
3.28105e-05
-2.32601e-07
6.12983e-07
3.26469e-05
2.72302e-05
-4.48669e-06
2.89594e-05
-3.38074e-06
2.97821e-05
-1.65303e-06
3.04312e-05
-1.40288e-06
3.11609e-05
-1.3832e-06
3.19306e-05
-1.09238e-06
3.23312e-05
-1.89812e-06
3.27507e-05
7.93774e-07
3.30162e-05
-4.98095e-07
-7.7562e-07
3.44048e-05
2.72852e-05
-6.77187e-06
2.89681e-05
-5.0637e-06
2.98326e-05
-2.51748e-06
3.05069e-05
-2.07714e-06
3.12196e-05
-2.09594e-06
3.19921e-05
-1.86489e-06
3.23882e-05
-2.29422e-06
3.2839e-05
3.42935e-07
3.32798e-05
-9.38843e-07
-1.08429e-06
3.35885e-05
2.73841e-05
-9.15597e-06
2.89293e-05
-6.60892e-06
2.98794e-05
-3.46756e-06
3.0646e-05
-2.84379e-06
3.13471e-05
-2.79701e-06
3.19837e-05
-2.50143e-06
3.22386e-05
-2.54919e-06
3.26152e-05
-3.36839e-08
3.2732e-05
-1.05555e-06
-1.22034e-06
3.2868e-05
2.75261e-05
-1.1682e-05
2.89331e-05
-8.01595e-06
2.99172e-05
-4.45171e-06
3.07002e-05
-3.62674e-06
3.11474e-05
-3.24423e-06
3.13078e-05
-2.66183e-06
3.116e-05
-2.4014e-06
3.12873e-05
-1.60947e-07
3.12947e-05
-1.06295e-06
-1.31581e-06
3.13902e-05
2.76713e-05
-1.43533e-05
2.88726e-05
-9.21724e-06
2.95226e-05
-5.10172e-06
2.97219e-05
-3.8261e-06
2.9449e-05
-2.97129e-06
2.89996e-05
-2.2124e-06
2.84785e-05
-1.88037e-06
2.84278e-05
-1.10248e-07
2.82959e-05
-9.30986e-07
-1.02732e-06
2.80074e-05
2.74558e-05
-1.68091e-05
2.77148e-05
-9.47621e-06
2.7327e-05
-4.71395e-06
2.65779e-05
-3.07696e-06
2.56888e-05
-2.0822e-06
2.49207e-05
-1.44429e-06
2.4274e-05
-1.23371e-06
2.41918e-05
-2.80073e-08
2.39552e-05
-6.94451e-07
-6.77873e-07
2.36058e-05
2.56915e-05
-1.75006e-05
2.4091e-05
-7.87565e-06
2.25897e-05
-3.21265e-06
2.12798e-05
-1.76711e-06
2.02385e-05
-1.04089e-06
1.94831e-05
-6.88897e-07
1.88935e-05
-6.44091e-07
1.88542e-05
1.131e-08
1.85764e-05
-4.16703e-07
-2.74789e-07
1.81734e-05
2.10403e-05
-1.35409e-05
1.74471e-05
-4.28244e-06
1.5501e-05
-1.26656e-06
1.42778e-05
-5.43893e-07
1.34961e-05
-2.59175e-07
1.29728e-05
-1.65617e-07
1.25384e-05
-2.09671e-07
1.25398e-05
9.85918e-09
1.22706e-05
-1.47479e-07
-4.93815e-08
1.20452e-05
1.14591e-05
7.17663e-06
5.91006e-06
5.36617e-06
5.10699e-06
4.94138e-06
4.73171e-06
4.74157e-06
4.59409e-06
4.54471e-06
4.56106e-06
1.78955e-06
-2.63002e-06
7.51954e-06
1.29174e-06
-4.25022e-06
1.08641e-05
5.63151e-06
-8.97602e-06
1.36242e-05
1.00753e-05
-1.28354e-05
1.72306e-05
7.12065e-06
-1.07271e-05
2.3897e-05
3.17105e-06
-9.83744e-06
2.82369e-05
-1.38791e-06
-2.95204e-06
2.75182e-05
3.96553e-07
3.22209e-07
2.74588e-05
-5.22453e-06
5.28395e-06
2.85555e-05
-2.25472e-05
2.14504e-05
2.61161e-05
-3.42525e-05
3.66919e-05
2.07999e-05
-3.7669e-05
4.29853e-05
1.81843e-05
-3.44388e-05
3.70544e-05
1.88069e-05
-2.66634e-05
2.60409e-05
1.97896e-05
-2.10037e-05
2.0021e-05
1.97326e-05
-1.84135e-05
1.84704e-05
1.86736e-05
-1.64303e-05
1.74893e-05
1.72376e-05
-1.4295e-05
1.5731e-05
1.60648e-05
-1.21373e-05
1.33101e-05
1.53336e-05
-9.8873e-06
1.06185e-05
1.48494e-05
-7.68481e-06
8.16905e-06
1.44527e-05
-5.84671e-06
6.24337e-06
1.41247e-05
-4.47862e-06
4.80668e-06
1.388e-05
-3.48381e-06
3.72851e-06
1.37105e-05
-2.73942e-06
2.90892e-06
1.35948e-05
-2.16582e-06
2.28151e-06
1.35144e-05
-1.71725e-06
1.79765e-06
1.34575e-05
-1.36402e-06
1.4209e-06
1.3417e-05
-1.08454e-06
1.12501e-06
1.33883e-05
-8.62611e-07
8.91337e-07
1.3368e-05
-6.85965e-07
7.06263e-07
1.33537e-05
-5.45199e-07
5.595e-07
1.33436e-05
-4.32982e-07
4.43049e-07
1.33365e-05
-3.43529e-07
3.50624e-07
1.33315e-05
-2.72254e-07
2.77266e-07
1.3328e-05
-2.15489e-07
2.19043e-07
1.33254e-05
-1.703e-07
1.7283e-07
1.33236e-05
-1.3435e-07
1.3616e-07
1.33223e-05
-1.05762e-07
1.07064e-07
1.33214e-05
-8.30348e-08
8.3976e-08
1.33207e-05
-6.49652e-08
6.56486e-08
1.33202e-05
-5.05845e-08
5.10827e-08
1.33198e-05
-3.91176e-08
3.94837e-08
1.33196e-05
-2.99496e-08
3.02197e-08
1.33194e-05
-2.25852e-08
2.27838e-08
1.33192e-05
-1.66205e-08
1.67657e-08
1.33191e-05
-1.17295e-08
1.18351e-08
1.3319e-05
-7.64787e-09
7.72323e-09
1.3319e-05
-4.16133e-09
4.21299e-09
1.3319e-05
-1.09154e-09
1.1235e-09
1.33189e-05
1.71513e-09
-1.69879e-09
1.33189e-05
4.43152e-09
-4.4306e-09
1.3319e-05
7.14094e-09
-7.15354e-09
1.3319e-05
9.96875e-09
-9.99608e-09
1.3319e-05
1.30294e-08
-1.3072e-08
1.33191e-05
1.64423e-08
-1.65021e-08
1.33192e-05
2.03354e-08
-2.04161e-08
1.33193e-05
2.48472e-08
-2.49537e-08
1.33194e-05
3.01305e-08
-3.02692e-08
1.33196e-05
3.63728e-08
-3.65541e-08
1.33198e-05
4.37676e-08
-4.40055e-08
1.33201e-05
5.2606e-08
-5.29192e-08
1.33206e-05
6.30622e-08
-6.34792e-08
1.33211e-05
7.57927e-08
-7.63422e-08
1.33219e-05
9.04418e-08
-9.12088e-08
1.33228e-05
1.09456e-07
-1.10413e-07
1.33244e-05
1.2873e-07
-1.30289e-07
1.33259e-05
1.60308e-07
-1.61773e-07
1.33297e-05
1.78909e-07
-1.82786e-07
1.33306e-05
2.45349e-07
-2.46206e-07
1.33431e-05
2.29894e-07
-2.42394e-07
1.33351e-05
4.16875e-07
-4.08925e-07
1.33816e-05
2.25598e-07
-2.72054e-07
1.33264e-05
8.3693e-07
-7.81768e-07
1.34908e-05
-2.58475e-09
-1.61815e-07
1.32538e-05
1.91671e-06
-1.67967e-06
1.37206e-05
-7.35331e-07
2.68524e-07
1.30076e-05
4.1499e-06
-3.43686e-06
1.39544e-05
-1.92733e-06
9.80526e-07
1.26116e-05
6.66309e-06
-5.3203e-06
1.3976e-05
-2.76107e-06
1.39665e-06
1.24246e-05
7.27189e-06
-5.72046e-06
1.38071e-05
-2.34282e-06
9.60239e-07
1.27207e-05
5.71796e-06
-4.63148e-06
1.34499e-05
1.6923e-07
-8.9849e-07
1.28056e-05
4.81404e-06
-4.16975e-06
1.35124e-05
1.57097e-06
-2.27776e-06
1.24245e-05
6.40429e-06
-5.31636e-06
1.34444e-05
2.64392e-06
-3.66384e-06
1.27716e-05
6.91484e-06
-6.24202e-06
1.34803e-05
5.04273e-06
-5.75148e-06
1.26615e-05
9.34394e-06
-8.52508e-06
1.35033e-05
7.51855e-06
-8.36042e-06
1.23731e-05
1.34103e-05
-1.228e-05
1.37075e-05
1.22816e-05
-1.36161e-05
1.35397e-05
1.89917e-05
-1.88239e-05
1.51486e-05
1.75914e-05
-1.92003e-05
1.1874e-05
3.26385e-05
-2.93638e-05
1.22473e-05
3.16919e-05
-3.20652e-05
6.03954e-05
-5.9012e-05
1.08639e-05
1.10403e-05
1.79738e-06
1.17731e-05
5.59031e-07
1.32146e-05
4.18991e-06
1.5152e-05
8.13792e-06
1.84591e-05
3.81359e-06
2.40827e-05
-2.45254e-06
2.68908e-05
-4.19599e-06
2.71205e-05
1.66766e-07
2.89476e-05
-7.05155e-06
3.07434e-05
-2.4343e-05
2.93047e-05
-3.28138e-05
2.40516e-05
-3.2416e-05
1.98133e-05
-3.02005e-05
1.93726e-05
-2.62228e-05
2.05044e-05
-2.21355e-05
2.08669e-05
-1.8776e-05
1.99293e-05
-1.54926e-05
1.82834e-05
-1.26491e-05
1.6728e-05
-1.05819e-05
1.56857e-05
-8.84497e-06
1.50757e-05
-7.07484e-06
1.46569e-05
-5.42788e-06
1.43117e-05
-4.13343e-06
1.4032e-05
-3.20408e-06
1.38245e-05
-2.5319e-06
1.36791e-05
-2.02043e-06
1.35782e-05
-1.61643e-06
1.35073e-05
-1.29304e-06
1.34564e-05
-1.03372e-06
1.34197e-05
-8.25873e-07
1.33931e-05
-6.5931e-07
1.33737e-05
-5.25823e-07
1.33596e-05
-4.18861e-07
1.33492e-05
-3.33198e-07
1.33416e-05
-2.64659e-07
1.3336e-05
-2.09877e-07
1.33318e-05
-1.66127e-07
1.33287e-05
-1.31231e-07
1.33264e-05
-1.0342e-07
1.33246e-05
-8.12663e-08
1.33233e-05
-6.36247e-08
1.33223e-05
-4.95661e-08
1.33215e-05
-3.8342e-08
1.33209e-05
-2.93585e-08
1.33204e-05
-2.21369e-08
1.33201e-05
-1.62832e-08
1.33199e-05
-1.14786e-08
1.33197e-05
-7.46549e-09
1.33195e-05
-4.0349e-09
1.33195e-05
-1.01223e-09
1.33194e-05
1.75493e-09
1.33194e-05
4.43414e-09
1.33195e-05
7.10975e-09
1.33195e-05
9.90306e-09
1.33196e-05
1.2928e-08
1.33198e-05
1.6302e-08
1.33199e-05
2.01505e-08
1.33202e-05
2.46097e-08
1.33205e-05
2.98301e-08
1.33209e-05
3.59939e-08
1.33213e-05
4.32909e-08
1.33219e-05
5.20025e-08
1.33227e-05
6.22997e-08
1.33237e-05
7.48159e-08
1.33249e-05
8.9186e-08
1.33265e-05
1.07849e-07
1.33288e-05
1.26515e-07
1.33313e-05
1.57764e-07
1.33359e-05
1.74274e-07
1.33388e-05
2.42449e-07
1.3352e-05
2.16696e-07
1.33482e-05
4.20663e-07
1.33968e-05
1.77031e-07
1.33488e-05
8.84983e-07
1.35314e-05
-1.85264e-07
1.32993e-05
2.14886e-06
1.38488e-05
-1.28481e-06
1.31134e-05
4.88527e-06
1.4208e-05
-3.02195e-06
1.28078e-05
8.0633e-06
1.4272e-05
-4.22522e-06
1.26467e-05
8.8972e-06
1.42674e-05
-3.96352e-06
1.28457e-05
7.13958e-06
1.39928e-05
-9.77887e-07
1.28057e-05
6.0012e-06
1.36524e-05
7.24242e-07
1.21932e-05
7.86349e-06
1.33702e-05
1.46698e-06
1.22427e-05
8.04234e-06
1.32063e-05
4.07909e-06
1.23152e-05
1.02351e-05
1.36931e-05
6.14059e-06
1.23717e-05
1.47317e-05
1.37958e-05
1.08576e-05
1.21269e-05
2.06605e-05
1.42239e-05
1.54944e-05
1.43747e-05
3.24876e-05
1.88218e-05
2.72448e-05
6.09555e-05
1.82618e-05
1.80492e-05
1.73522e-06
1.80957e-05
5.12562e-07
1.87202e-05
3.56538e-06
2.02166e-05
6.64154e-06
2.24644e-05
1.56581e-06
2.53818e-05
-5.36992e-06
2.67573e-05
-5.57156e-06
2.87849e-05
-1.86081e-06
3.1648e-05
-9.91467e-06
3.26158e-05
-2.53107e-05
3.16148e-05
-3.18128e-05
2.80229e-05
-2.88241e-05
2.39434e-05
-2.6121e-05
2.20935e-05
-2.43728e-05
2.18763e-05
-2.19184e-05
2.16275e-05
-1.85272e-05
2.05665e-05
-1.44315e-05
1.89139e-05
-1.09966e-05
1.72457e-05
-8.9137e-06
1.59913e-05
-7.5905e-06
1.52263e-05
-6.30989e-06
1.47665e-05
-4.96802e-06
1.44302e-05
-3.79718e-06
1.41514e-05
-2.92524e-06
1.39275e-05
-2.30802e-06
1.376e-05
-1.85296e-06
1.36401e-05
-1.49646e-06
1.35549e-05
-1.20787e-06
1.34938e-05
-9.72636e-07
1.34494e-05
-7.81474e-07
1.34168e-05
-6.26708e-07
1.33927e-05
-5.01722e-07
1.33748e-05
-4.00953e-07
1.33614e-05
-3.19824e-07
1.33514e-05
-2.54619e-07
1.33438e-05
-2.02301e-07
1.33381e-05
-1.6038e-07
1.33337e-05
-1.26854e-07
1.33303e-05
-1.00072e-07
1.33278e-05
-7.86956e-08
1.33258e-05
-6.16458e-08
1.33243e-05
-4.8042e-08
1.33231e-05
-3.71677e-08
1.33222e-05
-2.84544e-08
1.33215e-05
-2.14441e-08
1.3321e-05
-1.57574e-08
1.33206e-05
-1.10853e-08
1.33203e-05
-7.1786e-09
1.33201e-05
-3.83546e-09
1.332e-05
-8.87154e-10
1.33199e-05
1.81771e-09
1.33199e-05
4.4386e-09
1.33199e-05
7.06004e-09
1.332e-05
9.79923e-09
1.33202e-05
1.27683e-08
1.33204e-05
1.60822e-08
1.33207e-05
1.98628e-08
1.33211e-05
2.42431e-08
1.33215e-05
2.93707e-08
1.33221e-05
3.54208e-08
1.33228e-05
4.25799e-08
1.33237e-05
5.11143e-08
1.33248e-05
6.12006e-08
1.33262e-05
7.34207e-08
1.33279e-05
8.74636e-08
1.33302e-05
1.05596e-07
1.3333e-05
1.23722e-07
1.33367e-05
1.54073e-07
1.33417e-05
1.69223e-07
1.33472e-05
2.36968e-07
1.33594e-05
2.04508e-07
1.33629e-05
4.17175e-07
1.34053e-05
1.34569e-07
1.33806e-05
9.09669e-07
1.35483e-05
-3.52918e-07
1.33793e-05
2.31786e-06
1.39547e-05
-1.86023e-06
1.33065e-05
5.53348e-06
1.46495e-05
-4.36498e-06
1.32844e-05
9.42844e-06
1.51386e-05
-6.07945e-06
1.38001e-05
1.02357e-05
1.56443e-05
-5.80774e-06
1.45024e-05
8.28156e-06
1.60911e-05
-2.56659e-06
1.44944e-05
7.59786e-06
1.5726e-05
-5.0733e-07
1.3725e-05
9.86448e-06
1.51219e-05
7.00741e-08
1.30719e-05
1.00923e-05
1.41123e-05
3.03864e-06
1.27231e-05
1.16243e-05
1.42207e-05
4.64297e-06
1.41661e-05
1.47862e-05
1.70403e-05
7.98342e-06
1.54177e-05
2.22832e-05
1.6292e-05
1.46201e-05
1.37407e-05
3.50389e-05
1.96222e-05
2.13633e-05
5.90902e-05
2.14875e-05
2.39443e-05
1.36642e-06
2.43229e-05
1.33981e-07
2.49726e-05
2.9157e-06
2.61612e-05
5.4529e-06
2.78705e-05
-1.4351e-07
2.89985e-05
-6.49787e-06
2.92097e-05
-5.78282e-06
3.17154e-05
-4.36648e-06
3.42299e-05
-1.24291e-05
3.34731e-05
-2.4554e-05
3.19355e-05
-3.02752e-05
3.02437e-05
-2.71324e-05
2.76324e-05
-2.35097e-05
2.52499e-05
-2.19903e-05
2.34368e-05
-2.01053e-05
2.19178e-05
-1.70082e-05
2.04037e-05
-1.29174e-05
1.88451e-05
-9.43808e-06
1.7398e-05
-7.46654e-06
1.6208e-05
-6.40048e-06
1.53611e-05
-5.46305e-06
1.48248e-05
-4.4317e-06
1.44758e-05
-3.44815e-06
1.42131e-05
-2.66262e-06
1.39988e-05
-2.09367e-06
1.38272e-05
-1.68134e-06
1.36962e-05
-1.36552e-06
1.35996e-05
-1.11123e-06
1.35291e-05
-9.02091e-07
1.34774e-05
-7.29785e-07
1.34391e-05
-5.88494e-07
1.34106e-05
-4.73214e-07
1.33892e-05
-3.79525e-07
1.3373e-05
-3.03615e-07
1.33607e-05
-2.4229e-07
1.33513e-05
-1.92876e-07
1.3344e-05
-1.53145e-07
1.33384e-05
-1.21278e-07
1.33341e-05
-9.57634e-08
1.33308e-05
-7.53567e-08
1.33282e-05
-5.90541e-08
1.33262e-05
-4.60307e-08
1.33246e-05
-3.56084e-08
1.33234e-05
-2.72478e-08
1.33225e-05
-2.05152e-08
1.33218e-05
-1.50495e-08
1.33213e-05
-1.05542e-08
1.33209e-05
-6.79051e-09
1.33206e-05
-3.56523e-09
1.33204e-05
-7.16972e-10
1.33203e-05
1.90124e-09
1.33203e-05
4.44456e-09
1.33204e-05
6.99157e-09
1.33205e-05
9.65749e-09
1.33208e-05
1.25509e-08
1.33211e-05
1.57839e-08
1.33215e-05
1.94738e-08
1.33219e-05
2.37497e-08
1.33226e-05
2.87554e-08
1.33233e-05
3.46578e-08
1.33243e-05
4.16404e-08
1.33254e-05
4.99489e-08
1.33269e-05
5.9776e-08
1.33287e-05
7.16184e-08
1.33308e-05
8.52996e-08
1.33337e-05
1.02705e-07
1.3337e-05
1.20431e-07
1.33419e-05
1.49174e-07
1.3347e-05
1.64097e-07
1.33556e-05
2.28444e-07
1.33652e-05
1.94814e-07
1.33783e-05
4.04099e-07
1.34077e-05
1.05149e-07
1.34179e-05
8.99473e-07
1.35349e-05
-4.6986e-07
1.34993e-05
2.35342e-06
1.39203e-05
-2.28118e-06
1.3645e-05
5.80873e-06
1.47454e-05
-5.46541e-06
1.39513e-05
1.02226e-05
1.57241e-05
-7.85226e-06
1.50186e-05
1.09413e-05
1.70694e-05
-7.85858e-06
1.61478e-05
9.20316e-06
1.85797e-05
-4.99852e-06
1.6794e-05
9.38358e-06
1.88892e-05
-2.60249e-06
1.68384e-05
1.19152e-05
1.90435e-05
-2.13503e-06
1.62646e-05
1.28713e-05
1.75715e-05
1.73168e-06
1.40254e-05
1.51705e-05
1.48391e-05
3.82922e-06
1.22281e-05
1.73972e-05
1.41299e-05
6.08169e-06
1.47625e-05
2.16506e-05
1.90653e-05
1.03172e-05
1.92055e-05
3.48988e-05
2.46523e-05
1.59166e-05
5.78226e-05
2.59198e-05
2.82475e-05
7.81021e-07
2.91213e-05
-7.39825e-07
2.97389e-05
2.29809e-06
3.07445e-05
4.44728e-06
3.27418e-05
-2.14083e-06
3.37146e-05
-7.47061e-06
3.33231e-05
-5.39138e-06
3.4779e-05
-5.82231e-06
3.61359e-05
-1.37861e-05
3.39985e-05
-2.24165e-05
3.10029e-05
-2.72796e-05
2.9508e-05
-2.56375e-05
2.79328e-05
-2.19345e-05
2.59519e-05
-2.00094e-05
2.37705e-05
-1.79239e-05
2.15801e-05
-1.48178e-05
1.97264e-05
-1.10637e-05
1.82784e-05
-7.99011e-06
1.71824e-05
-6.37055e-06
1.62966e-05
-5.51469e-06
1.55332e-05
-4.69957e-06
1.49308e-05
-3.82936e-06
1.45138e-05
-3.03118e-06
1.4234e-05
-2.38273e-06
1.403e-05
-1.88966e-06
1.38685e-05
-1.51985e-06
1.37389e-05
-1.23598e-06
1.36377e-05
-1.01004e-06
1.35608e-05
-8.25166e-07
1.35031e-05
-6.72099e-07
1.34599e-05
-5.45294e-07
1.34274e-05
-4.40692e-07
1.34027e-05
-3.54867e-07
1.33839e-05
-2.84791e-07
1.33695e-05
-2.27837e-07
1.33583e-05
-1.81728e-07
1.33497e-05
-1.44513e-07
1.3343e-05
-1.14574e-07
1.33378e-05
-9.05459e-08
1.33337e-05
-7.12889e-08
1.33305e-05
-5.58796e-08
1.3328e-05
-4.35551e-08
1.33261e-05
-3.36815e-08
1.33246e-05
-2.5752e-08
1.33235e-05
-1.93603e-08
1.33226e-05
-1.41672e-08
1.33219e-05
-9.89121e-09
1.33214e-05
-6.30561e-09
1.33211e-05
-3.22777e-09
1.33209e-05
-5.05777e-10
1.33208e-05
2.00623e-09
1.33208e-05
4.45033e-09
1.33209e-05
6.90442e-09
1.3321e-05
9.47805e-09
1.33213e-05
1.22769e-08
1.33217e-05
1.54088e-08
1.33222e-05
1.8986e-08
1.33228e-05
2.31327e-08
1.33236e-05
2.79884e-08
1.33245e-05
3.37101e-08
1.33257e-05
4.04793e-08
1.33271e-05
4.85154e-08
1.33288e-05
5.80378e-08
1.3331e-05
6.94237e-08
1.33336e-05
8.27198e-08
1.33371e-05
9.91872e-08
1.33408e-05
1.16735e-07
1.3347e-05
1.42977e-07
1.33518e-05
1.59354e-07
1.33641e-05
2.16121e-07
1.33692e-05
1.89736e-07
1.33949e-05
3.7838e-07
1.34045e-05
9.5575e-08
1.34549e-05
8.49076e-07
1.3511e-05
-5.2599e-07
1.36027e-05
2.26174e-06
1.38765e-05
-2.55503e-06
1.39471e-05
5.73814e-06
1.47711e-05
-6.28935e-06
1.44201e-05
1.05735e-05
1.59248e-05
-9.357e-06
1.51884e-05
1.16777e-05
1.73673e-05
-1.00375e-05
1.59481e-05
1.06224e-05
1.85594e-05
-7.60985e-06
1.70796e-05
1.08634e-05
1.95223e-05
-5.04522e-06
1.82747e-05
1.31628e-05
2.18417e-05
-5.70199e-06
1.98615e-05
1.48514e-05
2.30005e-05
-1.40723e-06
2.09825e-05
1.71884e-05
2.32363e-05
1.57545e-06
1.97279e-05
2.09056e-05
1.96314e-05
6.17821e-06
1.55983e-05
2.56837e-05
1.75538e-05
8.36161e-06
1.63929e-05
3.60597e-05
2.27279e-05
9.58159e-06
5.19666e-05
2.8584e-05
3.12412e-05
-1.45462e-07
3.24816e-05
-1.98026e-06
3.297e-05
1.80964e-06
3.36849e-05
3.73245e-06
3.47409e-05
-3.19687e-06
3.52685e-05
-7.99819e-06
3.57019e-05
-5.82482e-06
3.65653e-05
-6.68565e-06
3.63564e-05
-1.35773e-05
3.37903e-05
-1.98503e-05
3.03679e-05
-2.38572e-05
2.84976e-05
-2.37672e-05
2.7004e-05
-2.04409e-05
2.50013e-05
-1.80067e-05
2.28957e-05
-1.58183e-05
2.08473e-05
-1.27694e-05
1.91598e-05
-9.37614e-06
1.79062e-05
-6.7365e-06
1.70113e-05
-5.47571e-06
1.63617e-05
-4.86511e-06
1.57643e-05
-4.10212e-06
1.51633e-05
-3.22838e-06
1.46509e-05
-2.51878e-06
1.4289e-05
-2.02085e-06
1.40526e-05
-1.65321e-06
1.38892e-05
-1.35648e-06
1.37648e-05
-1.11157e-06
1.36656e-05
-9.10868e-07
1.35869e-05
-7.46472e-07
1.35257e-05
-6.10848e-07
1.34787e-05
-4.98276e-07
1.34427e-05
-4.0476e-07
1.34152e-05
-3.27347e-07
1.3394e-05
-2.63612e-07
1.33777e-05
-2.11454e-07
1.33649e-05
-1.68999e-07
1.3355e-05
-1.34592e-07
1.33473e-05
-1.06823e-07
1.33412e-05
-8.44804e-08
1.33364e-05
-6.65383e-08
1.33327e-05
-5.21575e-08
1.33298e-05
-4.0642e-08
1.33275e-05
-3.14075e-08
1.33258e-05
-2.39832e-08
1.33244e-05
-1.7992e-08
1.33233e-05
-1.31202e-08
1.33226e-05
-9.10351e-09
1.3322e-05
-5.72957e-09
1.33216e-05
-2.82702e-09
1.33213e-05
-2.55116e-10
1.33212e-05
2.12905e-09
1.33212e-05
4.45557e-09
1.33213e-05
6.79794e-09
1.33215e-05
9.26139e-09
1.33219e-05
1.19474e-08
1.33223e-05
1.49587e-08
1.33229e-05
1.8402e-08
1.33236e-05
2.23958e-08
1.33245e-05
2.70745e-08
1.33257e-05
3.25841e-08
1.3327e-05
3.91044e-08
1.33287e-05
4.68244e-08
1.33308e-05
5.59986e-08
1.33333e-05
6.68551e-08
1.33363e-05
7.9746e-08
1.33404e-05
9.50708e-08
1.33445e-05
1.12702e-07
1.3352e-05
1.35423e-07
1.33559e-05
1.55492e-07
1.33731e-05
1.98867e-07
1.33699e-05
1.93022e-07
1.34165e-05
3.31698e-07
1.33843e-05
1.27842e-07
1.35134e-05
7.1996e-07
1.34175e-05
-4.30145e-07
1.37412e-05
1.93805e-06
1.36408e-05
-2.45457e-06
1.4151e-05
5.22791e-06
1.45388e-05
-6.6772e-06
1.42444e-05
1.0868e-05
1.5791e-05
-1.09036e-05
1.39846e-05
1.34841e-05
1.65263e-05
-1.25791e-05
1.43138e-05
1.28349e-05
1.59428e-05
-9.23892e-06
1.47935e-05
1.20127e-05
1.66295e-05
-6.88122e-06
1.55125e-05
1.42799e-05
1.81999e-05
-8.38943e-06
1.7821e-05
1.52304e-05
2.10334e-05
-4.61963e-06
2.11106e-05
1.71112e-05
2.5536e-05
-2.8499e-06
2.44954e-05
2.19461e-05
2.86449e-05
2.02877e-06
2.49804e-05
2.93481e-05
2.81161e-05
5.22596e-06
2.2989e-05
4.11867e-05
2.30866e-05
9.48398e-06
4.6645e-05
2.84082e-05
3.34119e-05
-7.86535e-07
3.34705e-05
-2.0389e-06
3.41015e-05
1.17861e-06
3.5538e-05
2.29595e-06
3.51256e-05
-2.78438e-06
3.45225e-05
-7.39514e-06
3.59537e-05
-7.25603e-06
3.66891e-05
-7.42108e-06
3.53832e-05
-1.22714e-05
3.31172e-05
-1.75843e-05
3.03779e-05
-2.11179e-05
2.87896e-05
-2.21789e-05
2.77439e-05
-1.93952e-05
2.55584e-05
-1.58212e-05
2.28758e-05
-1.31356e-05
2.05998e-05
-1.04934e-05
1.9104e-05
-7.88035e-06
1.81423e-05
-5.77485e-06
1.73019e-05
-4.63528e-06
1.65842e-05
-4.14744e-06
1.60164e-05
-3.53428e-06
1.54769e-05
-2.68886e-06
1.49352e-05
-1.97711e-06
1.44752e-05
-1.56083e-06
1.4147e-05
-1.32503e-06
1.39316e-05
-1.14114e-06
1.37879e-05
-9.67817e-07
1.36846e-05
-8.07597e-07
1.36056e-05
-6.6745e-07
1.35435e-05
-5.48769e-07
1.34947e-05
-4.49419e-07
1.34564e-05
-3.66514e-07
1.34266e-05
-2.97527e-07
1.34034e-05
-2.40379e-07
1.33852e-05
-1.93327e-07
1.33711e-05
-1.54825e-07
1.336e-05
-1.23486e-07
1.33512e-05
-9.81047e-08
1.33444e-05
-7.76297e-08
1.3339e-05
-6.11546e-08
1.33348e-05
-4.79274e-08
1.33315e-05
-3.73221e-08
1.33289e-05
-2.88099e-08
1.33268e-05
-2.19594e-08
1.33253e-05
-1.64246e-08
1.33241e-05
-1.19194e-08
1.33232e-05
-8.19971e-09
1.33225e-05
-5.06885e-09
1.3322e-05
-2.36767e-09
1.33218e-05
3.0661e-11
1.33216e-05
2.26862e-09
1.33216e-05
4.4587e-09
1.33217e-05
6.67189e-09
1.3322e-05
9.00793e-09
1.33224e-05
1.15637e-08
1.33229e-05
1.44359e-08
1.33236e-05
1.77248e-08
1.33244e-05
2.15432e-08
1.33255e-05
2.60191e-08
1.33268e-05
3.12869e-08
1.33284e-05
3.75247e-08
1.33303e-05
4.48883e-08
1.33326e-05
5.36711e-08
1.33355e-05
6.39373e-08
1.33389e-05
7.63889e-08
1.33435e-05
9.04231e-08
1.3348e-05
1.08296e-07
1.33566e-05
1.26752e-07
1.33599e-05
1.52221e-07
1.33812e-05
1.77521e-07
1.33707e-05
2.0358e-07
1.34358e-05
2.66595e-07
1.33644e-05
1.99241e-07
1.35605e-05
5.23868e-07
1.33238e-05
-1.93455e-07
1.3798e-05
1.46383e-06
1.34032e-05
-2.05977e-06
1.40391e-05
4.59207e-06
1.43383e-05
-6.97645e-06
1.37053e-05
1.1501e-05
1.57356e-05
-1.29339e-05
1.33696e-05
1.58502e-05
1.57546e-05
-1.49641e-05
1.41095e-05
1.448e-05
1.50921e-05
-1.02216e-05
1.42346e-05
1.28703e-05
1.57258e-05
-8.3724e-06
1.40215e-05
1.59841e-05
1.6264e-05
-1.06319e-05
1.5028e-05
1.64665e-05
1.62513e-05
-5.84293e-06
1.52342e-05
1.81282e-05
1.90748e-05
-6.69053e-06
1.80657e-05
2.29552e-05
2.30699e-05
-2.97543e-06
2.24117e-05
3.00063e-05
2.81099e-05
-4.72224e-07
2.8118e-05
4.11786e-05
2.72855e-05
1.03164e-05
4.37946e-05
3.0136e-05
3.41881e-05
-7.92488e-07
3.34906e-05
-1.3414e-06
3.41687e-05
5.00526e-07
3.5522e-05
9.42604e-07
3.47685e-05
-2.03083e-06
3.41529e-05
-6.77957e-06
3.57816e-05
-8.88475e-06
3.67012e-05
-8.3407e-06
3.57947e-05
-1.13648e-05
3.42393e-05
-1.60289e-05
3.13326e-05
-1.82112e-05
2.86758e-05
-1.95221e-05
2.77282e-05
-1.84476e-05
2.63944e-05
-1.44874e-05
2.399e-05
-1.07312e-05
2.15597e-05
-8.06308e-06
1.99211e-05
-6.24177e-06
1.90261e-05
-4.87989e-06
1.81388e-05
-3.74792e-06
1.70673e-05
-3.07594e-06
1.61727e-05
-2.63974e-06
1.55813e-05
-2.09742e-06
1.51295e-05
-1.52536e-06
1.47171e-05
-1.14844e-06
1.43547e-05
-9.62552e-07
1.40701e-05
-8.56614e-07
1.38665e-05
-7.64167e-07
1.37266e-05
-6.67739e-07
1.36298e-05
-5.70576e-07
1.35601e-05
-4.79079e-07
1.35079e-05
-3.97216e-07
1.34676e-05
-3.26297e-07
1.34362e-05
-2.66085e-07
1.34115e-05
-2.15649e-07
1.3392e-05
-1.73832e-07
1.33766e-05
-1.39444e-07
1.33645e-05
-1.11349e-07
1.33549e-05
-8.85268e-08
1.33473e-05
-7.00721e-08
1.33414e-05
-5.51955e-08
1.33367e-05
-4.32323e-08
1.3333e-05
-3.36288e-08
1.33301e-05
-2.59152e-08
1.33278e-05
-1.97015e-08
1.33261e-05
-1.46745e-08
1.33247e-05
-1.05776e-08
1.33237e-05
-7.18925e-09
1.3323e-05
-4.33056e-09
1.33225e-05
-1.85543e-09
1.33221e-05
3.48275e-10
1.3322e-05
2.42239e-09
1.3322e-05
4.45797e-09
1.33221e-05
6.52567e-09
1.33224e-05
8.71826e-09
1.33229e-05
1.11274e-08
1.33235e-05
1.38427e-08
1.33242e-05
1.6958e-08
1.33252e-05
2.05798e-08
1.33264e-05
2.48284e-08
1.33278e-05
2.98265e-08
1.33296e-05
3.57496e-08
1.33318e-05
4.27206e-08
1.33344e-05
5.10684e-08
1.33376e-05
6.06987e-08
1.33414e-05
7.26532e-08
1.33464e-05
8.53363e-08
1.33513e-05
1.03411e-07
1.33607e-05
1.17408e-07
1.33642e-05
1.48692e-07
1.33874e-05
1.54366e-07
1.33743e-05
2.1668e-07
1.34476e-05
1.93301e-07
1.33572e-05
2.89574e-07
1.3584e-05
2.97126e-07
1.32689e-05
1.21599e-07
1.38092e-05
9.23538e-07
1.31979e-05
-1.44843e-06
1.39601e-05
3.82981e-06
1.39178e-05
-6.93418e-06
1.35451e-05
1.18737e-05
1.56174e-05
-1.50061e-05
1.32978e-05
1.81697e-05
1.52403e-05
-1.69066e-05
1.43634e-05
1.53569e-05
1.4812e-05
-1.06703e-05
1.41911e-05
1.34912e-05
1.61135e-05
-1.02948e-05
1.42979e-05
1.77997e-05
1.65598e-05
-1.28938e-05
1.52181e-05
1.78081e-05
1.72849e-05
-7.90968e-06
1.49702e-05
2.04429e-05
1.82241e-05
-9.94438e-06
1.5576e-05
2.56033e-05
1.8857e-05
-6.25638e-06
1.78194e-05
3.10438e-05
2.17432e-05
-4.39601e-06
2.50572e-05
3.78647e-05
2.70734e-05
8.3002e-06
3.96677e-05
3.12003e-05
3.40911e-05
-6.68694e-07
3.29756e-05
-2.2586e-07
3.27656e-05
7.10548e-07
3.43768e-05
-6.68579e-07
3.59725e-05
-3.62658e-06
3.53954e-05
-6.20251e-06
3.41604e-05
-7.64973e-06
3.44324e-05
-8.61264e-06
3.48652e-05
-1.17976e-05
3.45908e-05
-1.57546e-05
3.26723e-05
-1.62927e-05
2.91121e-05
-1.59619e-05
2.69207e-05
-1.62562e-05
2.60933e-05
-1.36601e-05
2.48668e-05
-9.50469e-06
2.31966e-05
-6.3928e-06
2.15341e-05
-4.57928e-06
2.02538e-05
-3.59963e-06
1.90974e-05
-2.59146e-06
1.76632e-05
-1.64175e-06
1.62206e-05
-1.19714e-06
1.52179e-05
-1.09471e-06
1.46965e-05
-1.00403e-06
1.44427e-05
-8.94575e-07
1.42674e-05
-7.87279e-07
1.40967e-05
-6.8592e-07
1.39305e-05
-5.97911e-07
1.37867e-05
-5.24025e-07
1.3674e-05
-4.57818e-07
1.35898e-05
-3.94942e-07
1.35278e-05
-3.35177e-07
1.34816e-05
-2.80065e-07
1.34465e-05
-2.30997e-07
1.34194e-05
-1.88574e-07
1.33983e-05
-1.52694e-07
1.33817e-05
-1.22824e-07
1.33685e-05
-9.82343e-08
1.33582e-05
-7.81598e-08
1.335e-05
-6.18728e-08
1.33435e-05
-4.87161e-08
1.33384e-05
-3.81181e-08
1.33343e-05
-2.95995e-08
1.33312e-05
-2.27524e-08
1.33287e-05
-1.72317e-08
1.33268e-05
-1.27589e-08
1.33253e-05
-9.10821e-09
1.33242e-05
-6.08307e-09
1.33234e-05
-3.5231e-09
1.33229e-05
-1.2977e-09
1.33225e-05
6.95656e-10
1.33223e-05
2.58669e-09
1.33224e-05
4.45171e-09
1.33225e-05
6.35878e-09
1.33228e-05
8.39306e-09
1.33233e-05
1.064e-08
1.3324e-05
1.31818e-08
1.33248e-05
1.61056e-08
1.33259e-05
1.95107e-08
1.33272e-05
2.3509e-08
1.33289e-05
2.82117e-08
1.33308e-05
3.37896e-08
1.33332e-05
4.03356e-08
1.33361e-05
4.82047e-08
1.33396e-05
5.71681e-08
1.33437e-05
6.85447e-08
1.33491e-05
7.99039e-08
1.33546e-05
9.7938e-08
1.33642e-05
1.07854e-07
1.33689e-05
1.43979e-07
1.33913e-05
1.31905e-07
1.33811e-05
2.26953e-07
1.34511e-05
1.23271e-07
1.33656e-05
3.75113e-07
1.35867e-05
7.59761e-08
1.32644e-05
4.43933e-07
1.37991e-05
3.88763e-07
1.31056e-05
-7.54886e-07
1.38853e-05
3.05008e-06
1.35648e-05
-6.6137e-06
1.33512e-05
1.20873e-05
1.5349e-05
-1.70039e-05
1.30034e-05
2.05153e-05
1.42158e-05
-1.8119e-05
1.39251e-05
1.56477e-05
1.38627e-05
-1.06078e-05
1.32427e-05
1.41112e-05
1.52198e-05
-1.22719e-05
1.32261e-05
1.97934e-05
1.48088e-05
-1.44766e-05
1.40354e-05
1.85815e-05
1.59054e-05
-9.77968e-06
1.38441e-05
2.25042e-05
1.67825e-05
-1.28828e-05
1.57127e-05
2.66732e-05
1.84846e-05
-9.02829e-06
1.75904e-05
3.1938e-05
1.9361e-05
-6.16661e-06
2.2384e-05
3.48416e-05
2.42989e-05
6.38529e-06
3.39488e-05
3.00178e-05
3.28154e-05
-2.34711e-07
3.24894e-05
1.00153e-07
3.33264e-05
-1.26503e-07
3.53625e-05
-2.70462e-06
3.64533e-05
-4.71741e-06
3.43177e-05
-4.06687e-06
3.20103e-05
-5.34235e-06
3.30169e-05
-9.61923e-06
3.3594e-05
-1.23747e-05
3.25525e-05
-1.47131e-05
3.26671e-05
-1.64072e-05
3.1618e-05
-1.49128e-05
2.90139e-05
-1.36521e-05
2.75497e-05
-1.2196e-05
2.65628e-05
-8.51778e-06
2.51724e-05
-5.00236e-06
2.32836e-05
-2.69046e-06
2.10755e-05
-1.39157e-06
1.9093e-05
-6.09004e-07
1.75103e-05
-5.90432e-08
1.61907e-05
1.22476e-07
1.50929e-05
3.14471e-09
1.43394e-05
-2.50517e-07
1.39499e-05
-5.05137e-07
1.37908e-05
-6.28145e-07
1.37342e-05
-6.29291e-07
1.37016e-05
-5.6536e-07
1.36641e-05
-4.86492e-07
1.36185e-05
-4.12218e-07
1.35703e-05
-3.46751e-07
1.35249e-05
-2.89811e-07
1.34853e-05
-2.40427e-07
1.34521e-05
-1.97857e-07
1.34251e-05
-1.61545e-07
1.34033e-05
-1.30937e-07
1.33859e-05
-1.05425e-07
1.33721e-05
-8.43723e-08
1.33611e-05
-6.71389e-08
1.33523e-05
-5.31238e-08
1.33454e-05
-4.17837e-08
1.33399e-05
-3.26351e-08
1.33356e-05
-2.52729e-08
1.33322e-05
-1.93521e-08
1.33295e-05
-1.45743e-08
1.33275e-05
-1.06974e-08
1.33259e-05
-7.52658e-09
1.33247e-05
-4.89281e-09
1.33238e-05
-2.655e-09
1.33232e-05
-6.99766e-10
1.33228e-05
1.06613e-09
1.33227e-05