/*--------------------------------*- C++ -*----------------------------------*\
| =========                 |                                                 |
| \\      /  F ield         | OpenFOAM: The Open Source CFD Toolbox           |
|  \\    /   O peration     | Version:  2.4.0                                 |
|   \\  /    A nd           | Web:      www.OpenFOAM.org                      |
|    \\/     M anipulation  |                                                 |
\*---------------------------------------------------------------------------*/
FoamFile
{
    version     2.0;
    format      ascii;
    class       volVectorField;
    location    "0.092";
    object      UMean;
}
// * * * * * * * * * * * * * * * * * * * * * * * * * * * * * * * * * * * * * //

dimensions      [0 1 -1 0 0 0 0];

internalField   nonuniform List<vector> 
4400
(
(5.4544 0.311575 0)
(3.46767 0.0617969 0)
(2.74632 0.00161699 0)
(2.41836 -0.00237816 0)
(2.28098 -0.00144256 0)
(2.22705 -0.000877398 0)
(2.18277 -7.8576e-05 0)
(2.18648 -0.000640121 0)
(2.18951 -0.000274506 0)
(2.0342 -0.0511973 0)
(8.66443 0.83646 0)
(7.67534 0.335804 0)
(6.78777 0.11158 0)
(6.12173 0.0497712 0)
(5.75363 0.0218593 0)
(5.58573 0.0115302 0)
(5.44454 0.00645973 0)
(5.44643 0.000251555 0)
(5.34231 0.0118975 0)
(5.48846 -0.163664 0)
(9.81401 0.909071 0)
(10.0616 0.460732 0)
(9.57379 0.20237 0)
(8.89854 0.11817 0)
(8.4278 0.0631992 0)
(8.18192 0.0355184 0)
(7.97747 0.0189021 0)
(7.94905 0.00965111 0)
(7.81945 -0.00258144 0)
(7.95178 -0.163874 0)
(10.0224 0.779953 0)
(11.1302 0.477042 0)
(11.2577 0.250173 0)
(10.8652 0.179751 0)
(10.4738 0.110916 0)
(10.2194 0.0684604 0)
(10.0197 0.0372225 0)
(9.93621 0.0214516 0)
(9.86923 -0.00476956 0)
(9.827 -0.165769 0)
(9.95125 0.625781 0)
(11.3229 0.417144 0)
(11.9147 0.230972 0)
(11.9094 0.19748 0)
(11.787 0.14259 0)
(11.6156 0.0943635 0)
(11.5349 0.0608861 0)
(11.4038 0.0272502 0)
(11.4247 0.00859748 0)
(11.3107 -0.188599 0)
(9.92492 0.497892 0)
(11.2432 0.344954 0)
(11.9719 0.176117 0)
(12.1749 0.169104 0)
(12.305 0.135813 0)
(12.3164 0.100459 0)
(12.3809 0.065621 0)
(12.3504 0.0374977 0)
(12.4013 -0.00250332 0)
(12.35 -0.158427 0)
(9.92093 0.383669 0)
(11.1836 0.276167 0)
(11.907 0.128556 0)
(12.1618 0.126643 0)
(12.3464 0.108555 0)
(12.4809 0.079793 0)
(12.6252 0.0579006 0)
(12.7302 0.0251122 0)
(12.8263 -0.0113652 0)
(12.8728 -0.120734 0)
(9.91332 0.266727 0)
(11.1477 0.207681 0)
(11.8534 0.0835349 0)
(12.1296 0.094301 0)
(12.3063 0.071701 0)
(12.4627 0.062005 0)
(12.6228 0.0306163 0)
(12.7667 0.0179038 0)
(12.8905 -0.0419778 0)
(12.9691 -0.120451 0)
(9.90796 0.161274 0)
(11.1207 0.123865 0)
(11.8212 0.0505214 0)
(12.1111 0.0535101 0)
(12.277 0.0449606 0)
(12.4372 0.0322222 0)
(12.5945 0.0182551 0)
(12.7445 -0.00841723 0)
(12.8616 -0.0518439 0)
(12.9273 -0.162347 0)
(9.90937 0.0509053 0)
(11.1039 0.0454758 0)
(11.8098 0.0118619 0)
(12.0986 0.0217557 0)
(12.2644 0.00902935 0)
(12.4217 0.0122781 0)
(12.5842 -0.00622061 0)
(12.7268 -0.0218675 0)
(12.8419 -0.0747203 0)
(12.8868 -0.181054 0)
(9.9112 -0.0539425 0)
(11.1022 -0.0390277 0)
(11.8107 -0.0196013 0)
(12.0983 -0.0166862 0)
(12.2656 -0.0203694 0)
(12.4221 -0.0157014 0)
(12.5834 -0.0238046 0)
(12.7231 -0.0413916 0)
(12.8325 -0.093469 0)
(12.8691 -0.194628 0)
(9.91431 -0.163205 0)
(11.1151 -0.118992 0)
(11.8269 -0.0562906 0)
(12.1084 -0.050994 0)
(12.2785 -0.0536286 0)
(12.4324 -0.0390302 0)
(12.5937 -0.0439254 0)
(12.7289 -0.0595173 0)
(12.836 -0.110611 0)
(12.8644 -0.20685 0)
(9.92937 -0.271243 0)
(11.1319 -0.200058 0)
(11.8676 -0.0925118 0)
(12.1168 -0.0872543 0)
(12.3141 -0.0850931 0)
(12.4458 -0.0632569 0)
(12.625 -0.0640015 0)
(12.7355 -0.0758477 0)
(12.8472 -0.126631 0)
(12.8444 -0.219444 0)
(9.94097 -0.384902 0)
(11.1577 -0.272903 0)
(11.9293 -0.133546 0)
(12.1334 -0.123592 0)
(12.3704 -0.117398 0)
(12.4449 -0.0865045 0)
(12.6412 -0.0833711 0)
(12.6646 -0.0905984 0)
(12.7645 -0.138331 0)
(12.6412 -0.225394 0)
(9.93401 -0.500906 0)
(11.2258 -0.340539 0)
(11.9881 -0.182057 0)
(12.1517 -0.164065 0)
(12.3257 -0.146756 0)
(12.2793 -0.103416 0)
(12.3867 -0.0946417 0)
(12.2602 -0.0932035 0)
(12.2839 -0.136598 0)
(11.9961 -0.209949 0)
(9.95824 -0.627052 0)
(11.3095 -0.414559 0)
(11.9284 -0.23497 0)
(11.8872 -0.194098 0)
(11.8068 -0.151695 0)
(11.5699 -0.0979716 0)
(11.5335 -0.0844139 0)
(11.2823 -0.0781811 0)
(11.2441 -0.119532 0)
(10.8347 -0.168968 0)
(10.0248 -0.781091 0)
(11.1204 -0.475483 0)
(11.2689 -0.253005 0)
(10.8414 -0.177299 0)
(10.4996 -0.118621 0)
(10.152 -0.0698797 0)
(10.0395 -0.0594334 0)
(9.74853 -0.0550737 0)
(9.69138 -0.0930021 0)
(9.20506 -0.115572 0)
(9.81375 -0.909488 0)
(10.0565 -0.459896 0)
(9.58023 -0.203904 0)
(8.88082 -0.117125 0)
(8.44628 -0.0676433 0)
(8.11694 -0.0376523 0)
(7.99445 -0.0332279 0)
(7.73291 -0.0330919 0)
(7.672 -0.0613224 0)
(7.15831 -0.0648285 0)
(8.6638 -0.836657 0)
(7.673 -0.33551 0)
(6.79034 -0.112229 0)
(6.11095 -0.0495234 0)
(5.76194 -0.0237997 0)
(5.5371 -0.0130445 0)
(5.44506 -0.012874 0)
(5.25905 -0.0151798 0)
(5.19349 -0.0292986 0)
(4.75059 -0.02754 0)
(5.45395 -0.311609 0)
(3.46703 -0.0617466 0)
(2.74652 -0.00170905 0)
(2.41423 0.00239639 0)
(2.28141 0.0013366 0)
(2.20541 0.000416213 0)
(2.16939 -0.00030809 0)
(2.09411 -0.00139328 0)
(2.04203 -0.00289582 0)
(1.82518 0.0098294 0)
(3.37248 -0.421834 0)
(3.82087 -0.2685 0)
(4.45861 -0.31213 0)
(4.99066 -0.375444 0)
(5.45595 -0.518899 0)
(5.89471 -0.652855 0)
(6.19499 -0.688019 0)
(6.57403 -0.788326 0)
(7.03594 -0.889875 0)
(7.37994 -0.956186 0)
(7.80502 -1.10196 0)
(8.11659 -1.25027 0)
(8.40569 -1.45303 0)
(8.63619 -1.65779 0)
(8.84008 -1.85049 0)
(9.06676 -2.03438 0)
(9.31596 -2.21252 0)
(9.52652 -2.34741 0)
(9.69287 -2.44471 0)
(9.80692 -2.49538 0)
(9.84669 -2.4921 0)
(9.8491 -2.44276 0)
(9.8215 -2.36512 0)
(9.81416 -2.27656 0)
(9.79248 -2.18375 0)
(9.71233 -2.04564 0)
(9.56343 -1.88393 0)
(9.33452 -1.68213 0)
(9.05951 -1.47439 0)
(8.7689 -1.26898 0)
(8.49009 -1.10315 0)
(8.23522 -0.968929 0)
(7.99044 -0.870322 0)
(7.77127 -0.778781 0)
(7.53446 -0.712487 0)
(7.35768 -0.620187 0)
(7.13633 -0.5718 0)
(7.01189 -0.444666 0)
(6.83672 -0.407514 0)
(6.76546 -0.250695 0)
(6.62322 -0.191779 0)
(6.61114 -0.01499 0)
(6.45485 0.0718803 0)
(6.49032 0.259647 0)
(6.41417 0.25234 0)
(6.42651 0.467192 0)
(6.41759 0.42429 0)
(6.30319 0.670104 0)
(6.40769 0.514141 0)
(6.27586 0.733626 0)
(6.39708 0.462004 0)
(6.20099 0.790632 0)
(6.39466 0.502495 0)
(6.1107 0.965868 0)
(6.3927 0.606076 0)
(6.06636 1.10809 0)
(6.37195 0.645755 0)
(5.99554 1.19972 0)
(6.31136 0.597427 0)
(5.86782 1.16113 0)
(6.2121 0.404654 0)
(5.69165 0.992093 0)
(6.07024 0.0848504 0)
(5.50075 0.719194 0)
(5.96067 -0.254863 0)
(5.40445 0.499522 0)
(5.91455 -0.481803 0)
(5.40142 0.367561 0)
(5.91004 -0.623831 0)
(5.42576 0.275977 0)
(5.90499 -0.70532 0)
(5.45085 0.228265 0)
(5.89603 -0.718051 0)
(5.48641 0.232035 0)
(5.88774 -0.660543 0)
(5.52741 0.277285 0)
(5.8779 -0.548056 0)
(5.58359 0.354327 0)
(5.87215 -0.383318 0)
(5.64355 0.459367 0)
(5.86281 -0.180306 0)
(5.68159 0.576631 0)
(5.83512 0.0313318 0)
(5.67629 0.687554 0)
(5.77311 0.251667 0)
(5.62071 0.806658 0)
(5.68486 0.482067 0)
(5.53317 0.950633 0)
(5.60343 0.736157 0)
(5.46928 1.16078 0)
(5.57552 1.04547 0)
(5.49387 1.51329 0)
(5.61562 1.45962 0)
(5.54274 2.12617 0)
(5.63975 2.03021 0)
(5.38435 3.04964 0)
(6.07343 2.96529 0)
(5.39087 4.85765 0)
(6.32508 5.27516 0)
(3.66083 9.5111 0)
(5.75634 -0.452633 0)
(5.96224 -0.386203 0)
(6.23613 -0.455734 0)
(6.48721 -0.547484 0)
(6.77533 -0.678012 0)
(7.08857 -0.799689 0)
(7.3389 -0.845938 0)
(7.61234 -0.941213 0)
(7.94733 -1.04966 0)
(8.17049 -1.12275 0)
(8.46809 -1.25607 0)
(8.75762 -1.39166 0)
(9.07755 -1.57176 0)
(9.34867 -1.76309 0)
(9.58106 -1.94883 0)
(9.79247 -2.12493 0)
(9.97349 -2.28688 0)
(10.0945 -2.40582 0)
(10.1793 -2.4855 0)
(10.1996 -2.51624 0)
(10.1593 -2.48749 0)
(10.111 -2.42927 0)
(10.0551 -2.35214 0)
(10.0133 -2.26107 0)
(9.92275 -2.14805 0)
(9.76243 -1.98108 0)
(9.53369 -1.78726 0)
(9.24554 -1.56593 0)
(8.94151 -1.34899 0)
(8.63099 -1.14767 0)
(8.34569 -0.992023 0)
(8.07286 -0.865559 0)
(7.81655 -0.768068 0)
(7.56606 -0.680715 0)
(7.3205 -0.618863 0)
(7.12769 -0.535985 0)
(6.91104 -0.49947 0)
(6.78822 -0.387858 0)
(6.62191 -0.361761 0)
(6.54409 -0.205854 0)
(6.41958 -0.162077 0)
(6.37839 0.0250886 0)
(6.24759 0.0924898 0)
(6.26869 0.274807 0)
(6.22106 0.251556 0)
(6.19916 0.485154 0)
(6.23405 0.433402 0)
(6.0884 0.687141 0)
(6.24581 0.496826 0)
(6.12996 0.757133 0)
(6.26387 0.449005 0)
(6.06734 0.821943 0)
(6.30833 0.491037 0)
(6.02031 1.01489 0)
(6.31549 0.578253 0)
(5.99002 1.16033 0)
(6.32651 0.61699 0)
(5.9452 1.25709 0)
(6.30701 0.568485 0)
(5.85815 1.23198 0)
(6.25354 0.380506 0)
(5.71424 1.08252 0)
(6.13845 0.0589797 0)
(5.53334 0.813429 0)
(6.02805 -0.30545 0)
(5.43251 0.588374 0)
(5.98496 -0.558022 0)
(5.40554 0.456255 0)
(5.97782 -0.717055 0)
(5.40916 0.372404 0)
(5.97993 -0.810366 0)
(5.41287 0.337641 0)
(5.98774 -0.840182 0)
(5.42319 0.35682 0)
(6.00497 -0.801644 0)
(5.44758 0.416212 0)
(6.03038 -0.713355 0)
(5.50271 0.502348 0)
(6.06873 -0.568802 0)
(5.58785 0.61662 0)
(6.10575 -0.373247 0)
(5.68563 0.74787 0)
(6.11624 -0.157218 0)
(5.76816 0.876993 0)
(6.07002 0.0732111 0)
(5.79808 1.01609 0)
(5.93539 0.308408 0)
(5.75086 1.17776 0)
(5.72509 0.55115 0)
(5.63929 1.39278 0)
(5.54402 0.819213 0)
(5.57635 1.73663 0)
(5.62482 1.20062 0)
(5.66172 2.35915 0)
(5.9822 1.91054 0)
(5.50828 3.42648 0)
(5.91509 2.76963 0)
(4.91345 5.05175 0)
(8.28104 4.50461 0)
(5.9331 9.95053 0)
(8.02721 -0.438018 0)
(8.05171 -0.450216 0)
(8.21226 -0.527402 0)
(8.35387 -0.625264 0)
(8.49748 -0.743379 0)
(8.66385 -0.860207 0)
(8.80228 -0.925972 0)
(8.94127 -1.01662 0)
(9.12739 -1.12967 0)
(9.25222 -1.2123 0)
(9.42874 -1.34222 0)
(9.638 -1.49714 0)
(9.89709 -1.68014 0)
(10.1296 -1.86404 0)
(10.3148 -2.0342 0)
(10.4513 -2.18735 0)
(10.5303 -2.32228 0)
(10.5529 -2.42133 0)
(10.5542 -2.48403 0)
(10.4751 -2.49251 0)
(10.3785 -2.45494 0)
(10.2938 -2.40272 0)
(10.201 -2.32621 0)
(10.0983 -2.22196 0)
(9.92266 -2.07982 0)
(9.68363 -1.8855 0)
(9.38642 -1.66661 0)
(9.05949 -1.4336 0)
(8.73455 -1.21593 0)
(8.41147 -1.02474 0)
(8.1185 -0.873626 0)
(7.83707 -0.752152 0)
(7.56507 -0.658045 0)
(7.30702 -0.580998 0)
(7.05794 -0.523571 0)
(6.86856 -0.45568 0)
(6.6563 -0.423836 0)
(6.54016 -0.327485 0)
(6.3713 -0.307846 0)
(6.29688 -0.158812 0)
(6.17392 -0.130948 0)
(6.11517 0.0652264 0)
(6.01157 0.108484 0)
(6.02925 0.289874 0)
(5.98838 0.256081 0)
(5.95339 0.501077 0)
(5.98921 0.442413 0)
(5.87069 0.694643 0)
(6.02507 0.471835 0)
(5.96613 0.769118 0)
(6.09187 0.446315 0)
(5.91444 0.836012 0)
(6.14563 0.460277 0)
(5.92782 1.0369 0)
(6.20399 0.542544 0)
(5.91909 1.18658 0)
(6.24923 0.585149 0)
(5.91411 1.29413 0)
(6.26993 0.543713 0)
(5.86311 1.2817 0)
(6.2514 0.363248 0)
(5.76358 1.1472 0)
(6.16567 0.0458917 0)
(5.61457 0.883639 0)
(6.06092 -0.335352 0)
(5.51225 0.648734 0)
(6.00982 -0.608754 0)
(5.48387 0.514943 0)
(5.99203 -0.780594 0)
(5.47749 0.44022 0)
(5.99639 -0.885132 0)
(5.46846 0.418842 0)
(6.00667 -0.930738 0)
(5.4567 0.449932 0)
(6.0313 -0.9144 0)
(5.45823 0.52174 0)
(6.08038 -0.854292 0)
(5.49132 0.620261 0)
(6.16865 -0.742807 0)
(5.57167 0.745585 0)
(6.29447 -0.577826 0)
(5.70129 0.886602 0)
(6.44381 -0.378615 0)
(5.86378 1.03457 0)
(6.58564 -0.143018 0)
(6.01714 1.19865 0)
(6.65657 0.128529 0)
(6.08469 1.38553 0)
(6.57702 0.426275 0)
(5.96771 1.60322 0)
(6.3111 0.717594 0)
(5.66318 1.88946 0)
(6.09979 1.00483 0)
(5.51201 2.37032 0)
(6.66234 1.48722 0)
(5.86763 3.51248 0)
(8.04645 2.59906 0)
(5.0429 5.45909 0)
(8.92355 3.84022 0)
(6.83644 10.0275 0)
(9.94242 -0.463587 0)
(9.8735 -0.520906 0)
(9.93587 -0.591766 0)
(10.0331 -0.675733 0)
(10.1075 -0.772655 0)
(10.181 -0.88255 0)
(10.2318 -0.966617 0)
(10.2752 -1.05571 0)
(10.3428 -1.16409 0)
(10.4095 -1.2598 0)
(10.5164 -1.38814 0)
(10.6504 -1.5509 0)
(10.7896 -1.73869 0)
(10.8993 -1.921 0)
(10.9673 -2.07918 0)
(10.9888 -2.21181 0)
(10.9602 -2.31777 0)
(10.8937 -2.39557 0)
(10.8016 -2.43883 0)
(10.645 -2.43586 0)
(10.5203 -2.40866 0)
(10.4009 -2.36262 0)
(10.2539 -2.27556 0)
(10.0701 -2.14698 0)
(9.80572 -1.9747 0)
(9.49173 -1.75705 0)
(9.14042 -1.52391 0)
(8.78248 -1.28977 0)
(8.43903 -1.08007 0)
(8.10611 -0.896664 0)
(7.80706 -0.753523 0)
(7.51875 -0.637306 0)
(7.24857 -0.547546 0)
(6.98838 -0.476437 0)
(6.75553 -0.427913 0)
(6.56754 -0.375075 0)
(6.37073 -0.351525 0)
(6.2582 -0.272785 0)
(6.08771 -0.260723 0)
(6.02403 -0.114926 0)
(5.89669 -0.100397 0)
(5.83194 0.109772 0)
(5.76048 0.120247 0)
(5.758 0.308492 0)
(5.741 0.260035 0)
(5.66886 0.52176 0)
(5.73309 0.432894 0)
(5.6417 0.704384 0)
(5.7945 0.433509 0)
(5.73358 0.769559 0)
(5.91639 0.424417 0)
(5.74998 0.865239 0)
(5.98526 0.432862 0)
(5.77989 1.06912 0)
(6.09409 0.50786 0)
(5.79688 1.22942 0)
(6.16309 0.536139 0)
(5.82648 1.33413 0)
(6.23372 0.496149 0)
(5.82009 1.33035 0)
(6.25369 0.324558 0)
(5.75836 1.21677 0)
(6.20211 0.0126732 0)
(5.63714 0.966586 0)
(6.11627 -0.380027 0)
(5.54062 0.730157 0)
(6.05541 -0.675592 0)
(5.5009 0.596408 0)
(6.03899 -0.861502 0)
(5.47307 0.530366 0)
(6.03917 -0.979309 0)
(5.43785 0.522044 0)
(6.04749 -1.03966 0)
(5.39584 0.568381 0)
(6.07355 -1.0416 0)
(5.36041 0.659004 0)
(6.12988 -1.00551 0)
(5.34447 0.77566 0)
(6.23949 -0.927435 0)
(5.36783 0.918841 0)
(6.41631 -0.805227 0)
(5.44771 1.07554 0)
(6.67142 -0.65406 0)
(5.60106 1.23054 0)
(7.00372 -0.460553 0)
(5.83552 1.4002 0)
(7.36406 -0.204192 0)
(6.12449 1.61404 0)
(7.63571 0.140097 0)
(6.34114 1.91522 0)
(7.61625 0.539883 0)
(6.22371 2.30818 0)
(7.10326 0.893495 0)
(5.54422 2.85657 0)
(6.62445 1.04766 0)
(4.91014 3.65322 0)
(8.59476 1.86456 0)
(5.71025 5.42917 0)
(11.1524 2.63794 0)
(8.34593 9.34314 0)
(11.4059 -0.409553 0)
(11.3668 -0.47924 0)
(11.3441 -0.580357 0)
(11.3616 -0.681302 0)
(11.3819 -0.778521 0)
(11.3916 -0.883075 0)
(11.3868 -0.977304 0)
(11.3719 -1.06424 0)
(11.3758 -1.17081 0)
(11.404 -1.28458 0)
(11.4517 -1.41839 0)
(11.4994 -1.5751 0)
(11.5204 -1.7499 0)
(11.5043 -1.92007 0)
(11.454 -2.06828 0)
(11.3646 -2.18877 0)
(11.2368 -2.27943 0)
(11.0933 -2.34728 0)
(10.9218 -2.37974 0)
(10.7418 -2.38263 0)
(10.605 -2.36271 0)
(10.4331 -2.30624 0)
(10.209 -2.19418 0)
(9.93295 -2.03826 0)
(9.57706 -1.83747 0)
(9.20378 -1.60507 0)
(8.80846 -1.3677 0)
(8.43111 -1.1403 0)
(8.0694 -0.938028 0)
(7.73377 -0.765849 0)
(7.42694 -0.632369 0)
(7.15004 -0.524256 0)
(6.88682 -0.439781 0)
(6.64319 -0.379715 0)
(6.41691 -0.336157 0)
(6.2327 -0.298228 0)
(6.0456 -0.280554 0)
(5.9405 -0.220928 0)
(5.77043 -0.208222 0)
(5.72563 -0.0723598 0)
(5.5843 -0.0669754 0)
(5.53736 0.150305 0)
(5.47963 0.126304 0)
(5.46745 0.323841 0)
(5.47393 0.26894 0)
(5.37527 0.540299 0)
(5.44935 0.423006 0)
(5.4032 0.700638 0)
(5.54441 0.402852 0)
(5.52561 0.7693 0)
(5.66723 0.389223 0)
(5.57844 0.864402 0)
(5.78531 0.392971 0)
(5.64676 1.0689 0)
(5.92962 0.456346 0)
(5.71094 1.25266 0)
(6.03893 0.491672 0)
(5.76852 1.35757 0)
(6.15091 0.456984 0)
(5.81085 1.35737 0)
(6.21175 0.295075 0)
(5.79004 1.25912 0)
(6.18961 -0.00705304 0)
(5.70299 1.02155 0)
(6.11472 -0.404973 0)
(5.62545 0.783815 0)
(6.05888 -0.713807 0)
(5.57896 0.648315 0)
(6.03468 -0.913503 0)
(5.54512 0.588675 0)
(6.02155 -1.04336 0)
(5.50137 0.590301 0)
(6.01859 -1.11729 0)
(5.45069 0.649524 0)
(6.0291 -1.1366 0)
(5.39718 0.752024 0)
(6.06213 -1.12527 0)
(5.35412 0.879112 0)
(6.14497 -1.07795 0)
(5.33797 1.03761 0)
(6.2983 -0.995355 0)
(5.36059 1.21622 0)
(6.55724 -0.899021 0)
(5.4415 1.3947 0)
(6.97091 -0.787311 0)
(5.61883 1.58145 0)
(7.59389 -0.637806 0)
(5.9391 1.79472 0)
(8.46775 -0.383775 0)
(6.40385 2.07605 0)
(9.52807 0.0265863 0)
(6.81636 2.48231 0)
(10.5148 0.638201 0)
(6.59724 3.12078 0)
(10.8431 1.36697 0)
(5.09641 3.96081 0)
(10.2397 1.70683 0)
(4.75968 5.94101 0)
(10.0401 1.47987 0)
(8.95066 8.6686 0)
(12.3979 -0.407492 0)
(12.3666 -0.525543 0)
(12.3233 -0.627225 0)
(12.2985 -0.713138 0)
(12.2819 -0.791502 0)
(12.2432 -0.874066 0)
(12.1948 -0.963922 0)
(12.1411 -1.05306 0)
(12.1067 -1.16415 0)
(12.0843 -1.28702 0)
(12.0582 -1.42096 0)
(12.0173 -1.56566 0)
(11.9509 -1.7204 0)
(11.8504 -1.87307 0)
(11.7202 -2.01304 0)
(11.5549 -2.12832 0)
(11.3662 -2.21726 0)
(11.1751 -2.27902 0)
(10.9799 -2.31131 0)
(10.8064 -2.32074 0)
(10.6308 -2.29343 0)
(10.3697 -2.21153 0)
(10.0582 -2.07087 0)
(9.68131 -1.88687 0)
(9.25287 -1.66639 0)
(8.83375 -1.42928 0)
(8.41138 -1.1976 0)
(8.01908 -0.98023 0)
(7.65126 -0.792655 0)
(7.31413 -0.63368 0)
(7.01454 -0.512404 0)
(6.74449 -0.410861 0)
(6.49778 -0.335458 0)
(6.26947 -0.284812 0)
(6.05659 -0.25303 0)
(5.87881 -0.226817 0)
(5.70842 -0.21488 0)
(5.60589 -0.168716 0)
(5.4453 -0.159307 0)
(5.41225 -0.0337289 0)
(5.26006 -0.034584 0)
(5.23525 0.184353 0)
(5.18328 0.126505 0)
(5.16879 0.340556 0)
(5.17961 0.271895 0)
(5.0705 0.559738 0)
(5.17014 0.385889 0)
(5.1548 0.708648 0)
(5.28456 0.335303 0)
(5.27985 0.768594 0)
(5.46073 0.347777 0)
(5.37377 0.879785 0)
(5.5987 0.355401 0)
(5.47936 1.08582 0)
(5.76204 0.406737 0)
(5.56313 1.2728 0)
(5.92642 0.425498 0)
(5.6658 1.38165 0)
(6.08482 0.398356 0)
(5.74733 1.38811 0)
(6.18673 0.253996 0)
(5.76244 1.3041 0)
(6.18969 -0.0392 0)
(5.70625 1.08269 0)
(6.13562 -0.44142 0)
(5.641 0.848126 0)
(6.09354 -0.76165 0)
(5.59496 0.715693 0)
(6.0671 -0.97415 0)
(5.54858 0.666692 0)
(6.05388 -1.11677 0)
(5.48772 0.683074 0)
(6.04892 -1.20472 0)
(5.41454 0.756875 0)
(6.0542 -1.24274 0)
(5.33615 0.873276 0)
(6.08446 -1.25208 0)
(5.26659 1.01429 0)
(6.15869 -1.22864 0)
(5.20845 1.18816 0)
(6.29248 -1.17231 0)
(5.16617 1.38376 0)
(6.51798 -1.1005 0)
(5.13655 1.58782 0)
(6.87926 -1.01068 0)
(5.11555 1.81406 0)
(7.45846 -0.901093 0)
(5.10707 2.06367 0)
(8.40451 -0.741475 0)
(5.17521 2.34134 0)
(9.87203 -0.476567 0)
(5.50024 2.7014 0)
(11.8466 -0.0203983 0)
(6.19903 3.24339 0)
(13.6848 0.614941 0)
(7.0202 4.23489 0)
(13.7569 1.03364 0)
(7.71036 6.07676 0)
(10.9443 1.34385 0)
(8.91472 7.85597 0)
(12.8699 -0.419965 0)
(12.8474 -0.556994 0)
(12.8213 -0.630069 0)
(12.7904 -0.68628 0)
(12.7391 -0.74924 0)
(12.666 -0.827291 0)
(12.5899 -0.923387 0)
(12.5158 -1.02724 0)
(12.4497 -1.14527 0)
(12.379 -1.2684 0)
(12.2957 -1.39709 0)
(12.1991 -1.53212 0)
(12.0835 -1.67303 0)
(11.9423 -1.8146 0)
(11.7781 -1.94945 0)
(11.5894 -2.06298 0)
(11.3961 -2.15026 0)
(11.2011 -2.20685 0)
(11.0083 -2.24157 0)
(10.8063 -2.2456 0)
(10.5373 -2.1928 0)
(10.176 -2.07725 0)
(9.77004 -1.90634 0)
(9.30608 -1.70311 0)
(8.82481 -1.476 0)
(8.38475 -1.24679 0)
(7.94836 -1.02775 0)
(7.56193 -0.825996 0)
(7.19777 -0.651823 0)
(6.87977 -0.506968 0)
(6.59278 -0.398399 0)
(6.33817 -0.306974 0)
(6.09759 -0.239113 0)
(5.88163 -0.196764 0)
(5.6802 -0.172198 0)
(5.51178 -0.159248 0)
(5.3538 -0.151876 0)
(5.25293 -0.121706 0)
(5.10223 -0.111649 0)
(5.0842 0.00288541 0)
(4.9223 -0.00106965 0)
(4.93185 0.212677 0)
(4.87586 0.129229 0)
(4.85968 0.355636 0)
(4.88431 0.286624 0)
(4.76572 0.573161 0)
(4.87867 0.347368 0)
(4.91951 0.701829 0)
(5.04662 0.30701 0)
(5.05 0.753016 0)
(5.19442 0.284737 0)
(5.19113 0.859119 0)
(5.36511 0.295522 0)
(5.33923 1.06126 0)
(5.58462 0.355966 0)
(5.45746 1.27744 0)
(5.77102 0.363941 0)
(5.59134 1.3849 0)
(5.96811 0.342035 0)
(5.71533 1.3922 0)
(6.10419 0.220005 0)
(5.77506 1.3211 0)
(6.14043 -0.0533458 0)
(5.76233 1.11395 0)
(6.10942 -0.451225 0)
(5.7185 0.879756 0)
(6.06856 -0.778935 0)
(5.67749 0.748569 0)
(6.04008 -0.998386 0)
(5.62416 0.706782 0)
(6.01601 -1.15164 0)
(5.55586 0.733305 0)
(5.99515 -1.25478 0)
(5.47478 0.818279 0)
(5.98283 -1.30979 0)
(5.39127 0.947387 0)
(5.99087 -1.3414 0)
(5.31119 1.09877 0)
(6.03007 -1.34466 0)
(5.23837 1.27923 0)
(6.11472 -1.31676 0)
(5.18363 1.47417 0)
(6.26405 -1.2749 0)
(5.14544 1.66629 0)
(6.48364 -1.21202 0)
(5.11078 1.87428 0)
(6.7756 -1.11914 0)
(5.04228 2.1187 0)
(7.15411 -0.990811 0)
(4.92082 2.46447 0)
(7.67192 -0.819215 0)
(4.83728 2.97637 0)
(8.52368 -0.569779 0)
(5.26081 3.66673 0)
(9.93815 -0.189795 0)
(6.78009 4.71927 0)
(11.6917 0.321789 0)
(8.79732 6.22759 0)
(12.659 1.77411 0)
(9.76226 6.99862 0)
(12.921 -0.388227 0)
(12.9111 -0.533491 0)
(12.9045 -0.619691 0)
(12.8694 -0.677496 0)
(12.802 -0.739563 0)
(12.7242 -0.819161 0)
(12.6436 -0.914052 0)
(12.5598 -1.01856 0)
(12.4719 -1.1295 0)
(12.3743 -1.24323 0)
(12.267 -1.36311 0)
(12.1527 -1.49075 0)
(12.0236 -1.62347 0)
(11.8833 -1.75804 0)
(11.7262 -1.88721 0)
(11.5558 -1.99732 0)
(11.3764 -2.08022 0)
(11.1747 -2.13308 0)
(10.9488 -2.1573 0)
(10.6592 -2.13076 0)
(10.2802 -2.03878 0)
(9.81963 -1.88908 0)
(9.3318 -1.70107 0)
(8.79983 -1.49571 0)
(8.30058 -1.27719 0)
(7.85626 -1.06132 0)
(7.42892 -0.859485 0)
(7.05987 -0.673302 0)
(6.71871 -0.514142 0)
(6.4238 -0.381351 0)
(6.15395 -0.283365 0)
(5.9171 -0.204119 0)
(5.69346 -0.151021 0)
(5.49329 -0.118158 0)
(5.31024 -0.100515 0)
(5.15098 -0.0969265 0)
(5.00726 -0.0967777 0)
(4.90777 -0.0769893 0)
(4.77187 -0.0729959 0)
(4.75792 0.0317743 0)
(4.59696 0.0248019 0)
(4.63611 0.22623 0)
(4.56462 0.124884 0)
(4.56687 0.36331 0)
(4.55977 0.284277 0)
(4.49735 0.574221 0)
(4.59733 0.285051 0)
(4.68445 0.689215 0)
(4.7712 0.209683 0)
(4.82525 0.759737 0)
(4.97953 0.223123 0)
(4.99812 0.866144 0)
(5.16731 0.241646 0)
(5.15851 1.05564 0)
(5.38499 0.288672 0)
(5.33327 1.27075 0)
(5.63107 0.286485 0)
(5.4956 1.38571 0)
(5.86881 0.272935 0)
(5.66043 1.40011 0)
(6.04158 0.178005 0)
(5.75387 1.33529 0)
(6.11289 -0.0768093 0)
(5.77441 1.14163 0)
(6.10833 -0.465674 0)
(5.74856 0.916586 0)
(6.07962 -0.798515 0)
(5.70325 0.791045 0)
(6.05523 -1.02711 0)
(5.64297 0.761375 0)
(6.02901 -1.19041 0)
(5.56454 0.800863 0)
(6.00532 -1.30585 0)
(5.47193 0.901203 0)
(5.98999 -1.37693 0)
(5.3741 1.04275 0)
(5.99309 -1.4315 0)
(5.27446 1.20814 0)
(6.02514 -1.46268 0)
(5.18114 1.40429 0)
(6.10207 -1.4686 0)
(5.10517 1.61397 0)
(6.24379 -1.4643 0)
(5.05342 1.81878 0)
(6.45646 -1.44339 0)
(5.02814 2.02628 0)
(6.73634 -1.39209 0)
(5.03526 2.24804 0)
(7.0543 -1.30611 0)
(5.11972 2.54693 0)
(7.33515 -1.1809 0)
(5.34007 3.00016 0)
(7.45923 -1.07011 0)
(5.7992 3.76885 0)
(7.61329 -0.993457 0)
(6.66622 5.01709 0)
(8.95325 -0.435402 0)
(8.06731 6.14766 0)
(11.7249 1.67063 0)
(10.4867 6.39283 0)
(12.8661 -0.376498 0)
(12.8609 -0.488485 0)
(12.8686 -0.566236 0)
(12.8454 -0.625997 0)
(12.7852 -0.690189 0)
(12.7063 -0.769786 0)
(12.6117 -0.862463 0)
(12.5114 -0.965468 0)
(12.4077 -1.07511 0)
(12.3034 -1.18953 0)
(12.1953 -1.3104 0)
(12.088 -1.43807 0)
(11.9677 -1.56817 0)
(11.8437 -1.69892 0)
(11.6912 -1.82048 0)
(11.5228 -1.92478 0)
(11.3146 -1.99955 0)
(11.062 -2.03903 0)
(10.7453 -2.02998 0)
(10.3406 -1.96101 0)
(9.84559 -1.83362 0)
(9.29984 -1.66543 0)
(8.74731 -1.47687 0)
(8.18301 -1.28419 0)
(7.6896 -1.07958 0)
(7.25394 -0.881802 0)
(6.84603 -0.699072 0)
(6.50695 -0.530051 0)
(6.19222 -0.385136 0)
(5.92172 -0.266383 0)
(5.66048 -0.180478 0)
(5.44502 -0.110485 0)
(5.2428 -0.0653603 0)
(5.06758 -0.042025 0)
(4.90758 -0.032459 0)
(4.77347 -0.0378742 0)
(4.64923 -0.0418192 0)
(4.56483 -0.035502 0)
(4.44873 -0.0348798 0)
(4.44241 0.0604579 0)
(4.2926 0.0548492 0)
(4.35861 0.240611 0)
(4.26773 0.133892 0)
(4.29544 0.380469 0)
(4.26241 0.295082 0)
(4.25331 0.569896 0)
(4.32435 0.223126 0)
(4.49627 0.688251 0)
(4.537 0.181029 0)
(4.62267 0.723554 0)
(4.71953 0.138744 0)
(4.83929 0.823068 0)
(4.93095 0.164516 0)
(5.05812 1.02112 0)
(5.18263 0.234933 0)
(5.25402 1.23808 0)
(5.46008 0.228397 0)
(5.43164 1.3574 0)
(5.71668 0.209596 0)
(5.6313 1.37536 0)
(5.92404 0.148011 0)
(5.76237 1.31778 0)
(6.02961 -0.0747636 0)
(5.81824 1.13252 0)
(6.04984 -0.445129 0)
(5.81699 0.914212 0)
(6.03202 -0.772135 0)
(5.78169 0.791324 0)
(6.00403 -1.00284 0)
(5.72509 0.768878 0)
(5.96983 -1.1732 0)
(5.64652 0.81793 0)
(5.93342 -1.30264 0)
(5.55009 0.93114 0)
(5.89997 -1.39453 0)
(5.44687 1.08712 0)
(5.88146 -1.47167 0)
(5.34152 1.26907 0)
(5.88293 -1.52814 0)
(5.23913 1.47781 0)
(5.91873 -1.56413 0)
(5.15561 1.69558 0)
(6.00834 -1.59802 0)
(5.10058 1.91217 0)
(6.14987 -1.6233 0)
(5.07171 2.14762 0)
(6.33337 -1.62481 0)
(5.07431 2.42219 0)
(6.54409 -1.60058 0)
(5.15434 2.784 0)
(6.78776 -1.55705 0)
(5.40389 3.27394 0)
(7.07429 -1.53042 0)
(5.96861 3.99656 0)
(7.46358 -1.37605 0)
(6.84686 4.95168 0)
(8.17395 -0.696984 0)
(7.80583 5.7243 0)
(9.74515 1.1785 0)
(10.4793 5.69245 0)
(12.8163 -0.346618 0)
(12.8087 -0.430836 0)
(12.8202 -0.50735 0)
(12.7959 -0.58186 0)
(12.7306 -0.659045 0)
(12.635 -0.743224 0)
(12.5276 -0.835297 0)
(12.4227 -0.936473 0)
(12.3286 -1.04598 0)
(12.2359 -1.15959 0)
(12.1434 -1.27849 0)
(12.0413 -1.40054 0)
(11.9257 -1.52385 0)
(11.7833 -1.64261 0)
(11.6012 -1.74984 0)
(11.3815 -1.83761 0)
(11.1004 -1.89223 0)
(10.7506 -1.89972 0)
(10.3161 -1.85137 0)
(9.78867 -1.7467 0)
(9.20153 -1.59637 0)
(8.60641 -1.41946 0)
(8.03116 -1.24053 0)
(7.47352 -1.06533 0)
(7.0055 -0.879737 0)
(6.58805 -0.706178 0)
(6.20918 -0.546689 0)
(5.89886 -0.391978 0)
(5.61117 -0.262504 0)
(5.36793 -0.161895 0)
(5.13693 -0.0917522 0)
(4.94838 -0.0328637 0)
(4.77333 0.00257626 0)
(4.62245 0.0189352 0)
(4.48541 0.0186649 0)
(4.37518 0.00708312 0)
(4.27105 -0.00465405 0)
(4.20113 -0.00825828 0)
(4.10929 -0.0100276 0)
(4.10639 0.0733485 0)
(3.97245 0.0713685 0)
(4.06322 0.235466 0)
(3.95061 0.130968 0)
(4.02033 0.381574 0)
(3.93189 0.280141 0)
(4.04455 0.544805 0)
(4.02629 0.152079 0)
(4.283 0.653515 0)
(4.20802 0.067436 0)
(4.45613 0.729743 0)
(4.46671 0.0749502 0)
(4.66641 0.823595 0)
(4.70299 0.104146 0)
(4.89797 0.987374 0)
(4.96392 0.153344 0)
(5.15525 1.19821 0)
(5.25518 0.152265 0)
(5.36097 1.33029 0)
(5.5745 0.140813 0)
(5.57785 1.35808 0)
(5.81759 0.104321 0)
(5.74524 1.30149 0)
(5.96635 -0.0839798 0)
(5.83544 1.1208 0)
(6.02101 -0.429471 0)
(5.85838 0.910341 0)
(6.02098 -0.746176 0)
(5.83205 0.793372 0)
(5.99894 -0.97349 0)
(5.77313 0.781689 0)
(5.96412 -1.14177 0)
(5.68835 0.843329 0)
(5.92298 -1.2723 0)
(5.58293 0.96807 0)
(5.88487 -1.37306 0)
(5.47209 1.13313 0)
(5.86201 -1.46962 0)
(5.35634 1.32673 0)
(5.85607 -1.55908 0)
(5.24246 1.55132 0)
(5.88865 -1.64704 0)
(5.1529 1.79124 0)
(5.97558 -1.73319 0)
(5.10464 2.03395 0)
(6.11228 -1.80852 0)
(5.1075 2.29164 0)
(6.28405 -1.86328 0)
(5.18374 2.58223 0)
(6.46229 -1.90337 0)
(5.37655 2.95389 0)
(6.6299 -1.91692 0)
(5.73424 3.44772 0)
(6.78665 -1.86663 0)
(6.29206 4.07255 0)
(7.04237 -1.55635 0)
(7.01577 4.818 0)
(7.59262 -0.659497 0)
(7.92477 5.20021 0)
(8.53122 0.975871 0)
(9.98132 4.86443 0)
(12.7887 -0.319965 0)
(12.78 -0.385893 0)
(12.7957 -0.461665 0)
(12.7763 -0.543182 0)
(12.7132 -0.626553 0)
(12.6216 -0.712961 0)
(12.5199 -0.803252 0)
(12.4221 -0.899915 0)
(12.3257 -1.00151 0)
(12.2244 -1.10875 0)
(12.1112 -1.21956 0)
(11.9778 -1.33162 0)
(11.8211 -1.44275 0)
(11.622 -1.54707 0)
(11.3739 -1.63595 0)
(11.0671 -1.70032 0)
(10.6806 -1.72388 0)
(10.2117 -1.69847 0)
(9.64979 -1.61843 0)
(9.02868 -1.49334 0)
(8.39447 -1.3365 0)
(7.78821 -1.16819 0)
(7.21888 -1.01395 0)
(6.69204 -0.863119 0)
(6.27409 -0.698309 0)
(5.89672 -0.544284 0)
(5.54716 -0.404399 0)
(5.26749 -0.267098 0)
(5.00573 -0.154164 0)
(4.80202 -0.0621327 0)
(4.60874 0.00157659 0)
(4.45776 0.0469584 0)
(4.31712 0.0746017 0)
(4.19927 0.0823989 0)
(4.09029 0.0753522 0)
(4.00862 0.0558271 0)
(3.93017 0.0380917 0)
(3.88105 0.0222243 0)
(3.81077 0.0220742 0)
(3.81725 0.0906681 0)
(3.70102 0.0934921 0)
(3.81104 0.238998 0)
(3.67578 0.147513 0)
(3.78813 0.390216 0)
(3.64265 0.274128 0)
(3.88054 0.519007 0)
(3.73571 0.0941774 0)
(4.15997 0.660323 0)
(3.91937 0.0382993 0)
(4.28721 0.681498 0)
(4.16982 -0.0182138 0)
(4.52877 0.760548 0)
(4.43834 0.00917682 0)
(4.82661 0.945355 0)
(4.70295 0.0989524 0)
(5.09168 1.14498 0)
(5.00122 0.112456 0)
(5.31278 1.25892 0)
(5.35605 0.0796177 0)
(5.55443 1.29939 0)
(5.64129 0.0693989 0)
(5.76015 1.24454 0)
(5.84274 -0.0753131 0)
(5.88819 1.06632 0)
(5.93425 -0.386529 0)
(5.93848 0.863033 0)
(5.94967 -0.687679 0)
(5.92531 0.750878 0)
(5.92694 -0.908744 0)
(5.87054 0.745896 0)
(5.88225 -1.07491 0)
(5.78613 0.813701 0)
(5.82762 -1.20535 0)
(5.68006 0.945931 0)
(5.77215 -1.30625 0)
(5.56979 1.12266 0)
(5.7278 -1.40236 0)
(5.45039 1.33515 0)
(5.69111 -1.49365 0)
(5.3304 1.57848 0)
(5.69029 -1.60088 0)
(5.23829 1.82347 0)
(5.74497 -1.73098 0)
(5.19355 2.07679 0)
(5.84949 -1.86915 0)
(5.20133 2.36292 0)
(5.99698 -1.99816 0)
(5.28368 2.7008 0)
(6.17638 -2.09091 0)
(5.48532 3.10311 0)
(6.39896 -2.11388 0)
(5.86252 3.55854 0)
(6.68127 -2.00074 0)
(6.44204 4.08578 0)
(7.07241 -1.55758 0)
(7.1789 4.54563 0)
(7.67587 -0.587412 0)
(8.11093 4.54052 0)
(8.67661 1.04788 0)
(9.64967 3.95443 0)
(12.7779 -0.299128 0)
(12.7643 -0.344951 0)
(12.7733 -0.409199 0)
(12.7438 -0.487655 0)
(12.6755 -0.576613 0)
(12.5778 -0.668263 0)
(12.4685 -0.762526 0)
(12.3516 -0.857117 0)
(12.2272 -0.954045 0)
(12.0897 -1.05436 0)
(11.9314 -1.15657 0)
(11.7441 -1.25493 0)
(11.5217 -1.35035 0)
(11.242 -1.43502 0)
(10.9021 -1.49959 0)
(10.4822 -1.5313 0)
(9.97913 -1.52056 0)
(9.39059 -1.46018 0)
(8.74151 -1.35566 0)
(8.07974 -1.22351 0)
(7.43019 -1.07377 0)
(6.82664 -0.925454 0)
(6.2663 -0.800097 0)
(5.78189 -0.678333 0)
(5.43064 -0.536669 0)
(5.09835 -0.398899 0)
(4.78365 -0.282184 0)
(4.54641 -0.164647 0)
(4.32417 -0.07296 0)
(4.16013 0.00385949 0)
(4.0047 0.0552535 0)
(3.89392 0.0945292 0)
(3.78787 0.116271 0)
(3.70698 0.119166 0)
(3.62974 0.107132 0)
(3.57839 0.0844777 0)
(3.52983 0.0621494 0)
(3.506 0.0415647 0)
(3.4663 0.0414085 0)
(3.48458 0.0955993 0)
(3.40759 0.106085 0)
(3.53147 0.230882 0)
(3.39828 0.153529 0)
(3.56148 0.381863 0)
(3.34361 0.2507 0)
(3.72305 0.47315 0)
(3.43035 0.0534788 0)
(3.9808 0.61093 0)
(3.55798 -0.0496913 0)
(4.1732 0.673097 0)
(3.86502 -0.0550349 0)
(4.38968 0.736896 0)
(4.15563 -0.0372295 0)
(4.67189 0.883078 0)
(4.39764 0.0219166 0)
(4.9814 1.07808 0)
(4.70433 0.045707 0)
(5.28473 1.19236 0)
(5.10591 0.0284372 0)
(5.51528 1.24266 0)
(5.46773 0.023137 0)
(5.75285 1.18754 0)
(5.73022 -0.0829581 0)
(5.91675 1.00644 0)
(5.86828 -0.351998 0)
(5.99363 0.80729 0)
(5.90512 -0.630403 0)
(5.99623 0.699359 0)
(5.88825 -0.838063 0)
(5.94566 0.699186 0)
(5.84473 -0.994906 0)
(5.8603 0.772598 0)
(5.78895 -1.12124 0)
(5.75048 0.913031 0)
(5.73115 -1.22501 0)
(5.63433 1.09695 0)
(5.68291 -1.32897 0)
(5.50527 1.31869 0)