/*--------------------------------*- C++ -*----------------------------------*\
| =========                 |                                                 |
| \\      /  F ield         | OpenFOAM: The Open Source CFD Toolbox           |
|  \\    /   O peration     | Version:  2.4.0                                 |
|   \\  /    A nd           | Web:      www.OpenFOAM.org                      |
|    \\/     M anipulation  |                                                 |
\*---------------------------------------------------------------------------*/
FoamFile
{
    version     2.0;
    format      ascii;
    class       volScalarField;
    location    "0.071";
    object      p;
}
// * * * * * * * * * * * * * * * * * * * * * * * * * * * * * * * * * * * * * //

dimensions      [0 2 -2 0 0 0 0];

internalField   nonuniform List<scalar> 
4400
(
107.777
87.5935
80.0109
76.6522
74.2143
71.8574
69.5715
67.3125
64.9364
64.2913
105.842
87.6618
80.0482
76.664
74.2167
71.8576
69.5709
67.3111
64.9405
64.2022
104.627
87.9806
80.1839
76.7028
74.237
71.8664
69.5733
67.3055
64.959
64.1029
103.892
88.3676
80.3648
76.7605
74.2797
71.8931
69.5865
67.2985
64.99
64.0063
103.298
88.7228
80.5479
76.8199
74.3383
71.9386
69.614
67.2957
65.0298
63.9067
102.786
89.0171
80.7091
76.8634
74.3931
71.9902
69.6504
67.2957
65.0748
63.8022
102.363
89.2509
80.8431
76.889
74.4341
72.0362
69.6848
67.2975
65.0893
63.8302
102.04
89.4261
80.9479
76.9055
74.4591
72.0718
69.7081
67.3027
65.0551
63.7858
101.824
89.5429
81.0192
76.9154
74.4702
72.0984
69.7252
67.3031
65.0536
63.7923
101.717
89.6006
81.0536
76.9238
74.473
72.1126
69.7348
67.3039
65.0653
63.7415
101.718
89.5983
81.0522
76.9314
74.4661
72.1213
69.7396
67.3046
65.0767
63.7155
101.829
89.5354
81.0141
76.9371
74.4515
72.1154
69.7392
67.3042
65.0941
63.6887
102.05
89.4131
80.9394
76.9414
74.4271
72.0973
69.7342
67.3026
65.1204
63.658
102.375
89.2343
80.8308
76.939
74.3921
72.0676
69.7232
67.2976
65.1572
63.6234
102.799
88.9986
80.6957
76.923
74.3462
72.0242
69.7055
67.2933
65.1997
63.5834
103.311
88.7038
80.5338
76.8866
74.2893
71.9748
69.6847
67.2899
65.235
63.5494
103.905
88.3497
80.349
76.832
74.2304
71.9312
69.6671
67.2903
65.2591
63.53
104.64
87.9636
80.1667
76.7764
74.1882
71.906
69.6579
67.2946
65.2723
63.5202
105.857
87.6457
80.0307
76.7378
74.1681
71.8982
69.6548
67.2982
65.2778
63.5287
107.793
87.5778
79.9933
76.7258
74.1649
71.8993
69.6537
67.2993
65.2797
63.6186
62.9641
61.6069
58.7934
54.01
46.7386
40.1093
35.2972
32.9778
32.5125
31.8025
31.2194
34.972
40.7097
43.7977
50.7022
61.8328
69.9807
76.5752
82.221
81.4595
75.0625
67.2988
61.036
57.7232
55.5112
54.7786
56.6961
58.3572
59.7346
63.8392
69.2555
74.5845
79.9042
83.9989
85.1419
82.7067
75.2954
63.7899
50.4056
38.5386
28.9226
21.1586
16.9214
16.8897
23.1088
31.8975
39.9161
47.544
56.1856
64.3231
70.6057
74.0098
75.4124
74.9303
74.1187
72.643
71.8652
72.8056
75.4278
78.8206
81.9486
84.2639
85.8064
86.7141
87.3588
87.4975
88.0608
87.9265
88.4594
88.0903
88.5459
88.0838
88.6529
88.1443
88.7394
88.0682
88.6806
88.0418
88.7588
87.969
88.5743
87.8303
88.4806
87.717
88.1092
87.3402
87.7204
86.9008
86.9253
86.0544
85.9588
84.8552
84.5028
83.0079
82.5782
80.2399
80.11
75.4815
75.6629
51.5147
62.6501
61.0871
58.3448
54.2181
47.8271
41.5579
36.5141
33.9391
33.3997
32.9158
32.4551
35.7134
41.8631
45.262
50.9951
60.8893
68.0192
73.5946
78.5254
78.1484
73.2697
67.0935
61.9961
59.6016
58.1306
57.32
58.9778
61.1327
62.7876
66.275
71.0449
76.1286
81.3292
85.1974
86.1783
83.4469
75.5035
63.2018
48.8779
37.0897
26.8148
18.5673
14.4154
14.3448
20.9871
30.2107
38.7441
46.5275
55.3241
63.7873
70.5743
74.411
76.1221
75.7614
75.0664
73.8578
73.0897
74.0467
76.5801
79.7037
82.4822
84.5349
85.9499
86.7236
87.3138
87.4142
87.9013
87.7699
88.2633
87.8492
88.3078
87.7962
88.4241
87.8467
88.4844
87.6842
88.4343
87.6702
88.534
87.5185
88.353
87.3556
88.3463
87.1908
87.9773
86.7802
87.5925
86.3263
86.7503
85.3931
85.6661
84.0765
84.0374
81.9674
81.7897
78.4508
78.6658
71.4571
70.8679
43.4981
62.2861
60.4909
57.8108
54.0628
48.5319
42.7806
37.6848
35.2334
34.5431
34.1698
34.2888
37.0324
42.8781
46.69
51.34
59.7847
66.0392
70.7424
75.0098
75.0115
71.5099
66.84
62.8087
61.2306
60.516
59.7967
61.1983
63.5737
65.4733
68.4869
72.683
77.5263
82.6339
86.2838
87.0496
84.1024
75.8038
62.9704
47.8754
36.0036
25.0908
16.5697
12.5462
12.3943
19.554
29.1269
38.0579
45.9542
54.8959
63.705
71.1052
75.2627
77.2899
77.1019
76.5279
75.4745
74.7404
75.7844
77.9704
80.7544
83.1323
84.9134
86.0383
86.6651
87.2075
87.2816
87.7385
87.5799
88.0227
87.5985
88.0193
87.5076
88.1515
87.532
88.1306
87.2783
88.1065
87.2506
88.1615
86.9694
87.994
86.7877
87.9938
86.4844
87.6654
86.0342
87.3495
85.5058
86.4957
84.5515
85.3873
83.1014
83.4936
80.7799
80.7664
76.4677
77.0724
68.2549
65.5576
41.4679
61.8015
59.8654
57.4323
54.0691
49.3409
44.1809
39.1989
36.9386
36.1888
35.7322
36.4526
38.8107
43.8884
47.8615
51.6632
58.5487
63.9876
68.1238
71.9298
72.1701
69.793
66.5065
63.4877
62.6199
62.6085
62.1819
63.37
65.7647
67.8356
70.4739
74.1164
78.6032
83.6292
87.1159
87.6954
84.6039
76.164
63.0945
47.6728
35.4185
24.0671
15.4752
11.4332
11.1327
18.8846
28.6682
37.9075
45.8193
54.856
64.0256
71.9326
76.5265
78.9446
78.9767
78.5088
77.4259
76.7457
77.6799
79.4849
81.8504
83.8522
85.3466
86.2095
86.711
87.1244
87.1264
87.5677
87.3833
87.7309
87.2963
87.7103
87.2305
87.8135
87.1804
87.7121
86.8638
87.6893
86.8129
87.6585
86.3766
87.4922
86.1959
87.4171
85.6212
87.1076
85.1736
86.8027
84.3536
86.0929
83.3699
84.9629
81.804
82.9725
79.4502
79.7525
74.5792
74.7165
65.4436
59.5324
41.2564
61.3695
59.3593
57.2413
54.3191
50.275
45.7469
41.0089
38.9111
38.2587
37.6952
38.7711
40.825
44.9302
48.6577
51.781
57.3733
61.963
65.545
69.13
69.714
68.2137
66.1089
64.0318
63.8231
64.4398
64.3772
65.4821
67.7975
69.8841
72.1933
75.2843
79.388
84.2896
87.6134
88.0659
84.8819
76.5501
63.5485
48.1948
35.6125
24.0439
15.6243
11.1831
10.5869
19.0926
28.8753
38.2742
45.971
55.255
64.8349
72.9399
78.1211
80.7316
80.9385
80.6305
79.5056
78.8536
79.5974
81.0745
82.9926
84.5468
85.7044
86.3967
86.7953
87.0857
87.0947
87.4162
87.1818
87.4031
87.0156
87.4078
86.9695
87.4403
86.7996
87.2389
86.4657
87.2339
86.3446
87.0375
85.7975
86.8984
85.5868
86.6243
84.7699
86.3197
84.302
85.7559
82.9277
84.9898
81.8698
83.9232
79.8906
81.9914
77.4469
78.8499
72.8608
72.3077
63.4517
53.089
40.8433
61.0702
59.0595
57.2712
54.8431
51.2135
47.3366
43.1168
41.1155
40.634
40.0067
41.0457
42.7803
45.9527
49.2046
51.5939
56.0571
59.9674
63.07
66.4884
67.4001
66.6411
65.6521
64.5337
64.921
66.0199
66.357
67.5153
69.645
71.6075
73.5752
76.1087
79.872
84.6076
87.7344
88.0088
84.7805
76.8721
64.188
49.0751
36.6632
25.0582
16.8708
11.7434
10.9762
20.0875
29.6468
39.1824
46.2735
56.2194
65.943
74.2932
79.9376
82.5589
82.9517
82.8211
81.7378
81.0441
81.6509
82.6932
84.1847
85.2519
86.099
86.5564
86.7475
87.0429
87.0227
87.2263
86.9654
87.0698
86.7644
87.1062
86.7124
87.009
86.3935
86.7636
86.0997
86.7212
85.837
86.374
85.2586
86.2372
84.9614
85.783
84.054
85.4592
83.5593
84.735
81.9374
83.8099
80.6819
82.5427
78.0026
80.2386
74.5388
76.589
69.4751
68.6098
60.4449
49.5732
41.751
61.0594
59.016
57.2679
55.265
52.0641
48.8439
45.378
43.4139
42.9653
42.3982
43.2496
44.6346
46.8273
49.4656
51.2582
54.72
57.9087
60.4579
63.7621
65.0466
65.0122
65.1423
65.0487
65.942
67.3439
68.1217
69.3819
71.2779
73.0435
74.6918
76.6495
79.979
84.498
87.407
87.4782
84.3139
77.1036
64.9442
50.2294
38.3359
26.7797
18.8652
13.1245
12.4155
21.8488
30.9773
40.4798
46.5877
57.7911
67.1474
76.1628
82.0826
84.6574
85.2616
85.1827
84.1489
83.4352
83.6931
84.3072
85.3243
85.962
86.5308
86.7671
86.8781
87.0315
86.9818
87.0345
86.7857
86.7792
86.5615
86.796
86.4483
86.5563
86.0106
86.2996
85.7595
86.1671
85.3078
85.6928
84.7681
85.5403
84.2966
84.9012
83.4082
84.5712
82.7624
83.6954
81.33
82.677
79.7314
81.0219
76.8025
78.1311
72.1053
73.1782
65.6001
63.6493
56.3924
48.2866
42.1958
61.5572
59.352
57.405
55.6028
52.8469
50.2343
47.5137
45.6338
45.1562
44.7036
45.2009
46.2169
47.631
49.5916
50.801
53.2465
55.7882
57.7743
60.8072
62.5304
63.3358
64.5622
65.4939
66.8694
68.5727
69.7605
71.0994
72.7014
74.2026
75.6027
77.0092
79.7352
83.9013
86.582
86.5087
83.4811
77.1877
65.9728
51.9241
40.3559
28.8524
21.3473
15.258
14.9102
24.1039
32.8487
42.0684
47.0607
59.7802
68.1364
78.6382
84.4659
86.9942
88.0363
87.7693
86.6252
85.8732
85.6986
85.8584
86.4193
86.6443
86.9551
87.0229
87.044
87.0863
86.9971
86.8981
86.6808
86.5562
86.4226
86.5184
86.218
86.1351
85.7125
85.8763
85.4446
85.5842
84.8251
85.0599
84.3146
84.7773
83.6193
84.0378
82.7703
83.5872
81.8191
82.5828
80.5206
81.3623
78.3875
79.2313
75.5444
75.6062
70.3099
69.5936
63.4916
60.0803
54.4627
47.9187
41.5128
61.8316
59.7047
57.6916
56.0633
53.66
51.5104
49.5009
47.781
47.1821
46.812
46.9862
47.6666
48.4084
49.6075
50.336
51.72
53.4802
55.0383
57.8264
59.9903
61.6432
63.9002
65.8877
67.7487
69.6828
71.2482
72.6724
74.0042
75.2794
76.4169
77.1597
79.0991
82.8141
85.3202
85.1335
82.3015
77.1666
67.3706
54.1781
42.662
31.1775
24.1372
18.0596
18.2576
26.6626
35.3528
43.3515
47.6476
62.2335
68.7496
81.6336
86.6104
89.4592
90.991
90.4104
89.0972
88.2418
87.6045
87.3099
87.4772
87.3273
87.39
87.3218
87.2322
87.2092
87.0729
86.8546
86.6464
86.4594
86.3811
86.3402
86.0644
85.8262
85.5292
85.5322
85.189
85.0549
84.4677
84.4932
83.902
84.004
83.0264
83.1855
82.1212
82.5143
80.8617
81.375
79.4989
79.8053
76.9188
77.3391
74.0299
72.8393
68.9179
66.7826
62.7064
58.4275
54.6789
47.7439
40.974
62.0268
60.1061
58.0955
56.6314
54.5489
52.6987
51.302
49.8568
49.1421
48.8272
48.7025
49.0433
49.2493
49.6217
49.7896
50.1586
51.14
52.4328
54.9245
57.5047
60.0321
63.2246
66.1851
68.5679
70.7548
72.6052
74.0963
75.266
76.3519
77.1339
77.0661
78.131
81.3557
83.7675
83.2192
80.924
77.1288
68.9782
56.957
45.1921
34.0326
27.2847
21.3752
22.0148
29.4617
38.3223
44.2823
48.3983
64.5241
69.1306
84.9257
88.0737
92.0708
93.9534
93.0514
91.487
90.4616
89.2871
88.6324
88.4386
88.0017
87.8084
87.6686
87.4937
87.4095
87.2428
86.9261
86.7511
86.5192
86.4551
86.3047
86.0548
85.7149
85.5106
85.382
85.0781
84.724
84.2824
84.1063
83.6232
83.3465
82.5926
82.4188
81.5449
81.4185
80.0353
80.0824
78.448
78.1
75.7026
75.3398
72.6421
70.6355
68.1057
65.4506
62.7448
58.2715
55.9498
47.8302
41.6031
62.1694
60.4412
58.539
57.2277
55.4927
53.888
52.9464
51.8192
50.9994
50.7295
50.4196
50.4118
50.1233
49.6698
49.2522
48.7277
48.9466
50.0282
52.2687
55.1745
58.5221
62.5984
66.412
69.3587
71.7874
73.7975
75.4361
76.5172
77.3533
77.6541
76.777
77.042
79.8669
82.1945
81.5609
79.5552
77.1403
70.7677
60.1067
48.2758
37.7075
30.9711
25.1549
26.0102
32.2966
41.5874
44.5966
49.8326
66.976
69.4222
87.9639
88.8898
94.7807
96.6304
95.3785
93.6366
92.4323
90.7851
89.8179
89.3258
88.6744
88.3241
88.0259
87.8195
87.6165
87.515
87.0982
87.0115
86.6639
86.6629
86.3854
86.2511
85.8016
85.6863
85.4155
85.1793
84.6756
84.3501
83.9905
83.5878
83.0238
82.4433
81.9565
81.2133
80.5823
79.5224
79.0432
77.6538
76.6524
74.9343
73.8887
71.8169
69.5534
68.0181
65.0803
63.5506
58.7735
57.194
48.5749
43.0041
62.245
60.7444
59.0202
57.8255
56.4658
55.1052
54.4182
53.6237
52.7936
52.5399
52.1285
51.7309
50.9801
49.8132
48.7892
47.5325
47.1113
47.9872
49.9364
53.1037
57.2299
62.0724
66.5289
70.0527
72.7776
74.9601
76.6859
77.6684
78.222
77.9546
76.3802
76.103
78.619
80.8473
80.072
78.3559
77.162
72.8377
63.5773
52.2557
42.2996
35.1408
29.2369
30.0661
35.0952
44.7995
44.642
52.0027
68.5972
69.7049
90.5077
89.4674
97.4759
98.8305
97.3608
95.6854
94.1293
92.0723
90.8586
90.1182
89.2961
88.8527
88.39
88.1587
87.8391
87.845
87.3411
87.3699
86.8802
86.9886
86.5714
86.6339
86.0187
86.0557
85.5828
85.5474
84.865
84.7347
84.1112
83.8763
83.0804
82.6853
81.8925
81.2683
80.2675
79.4617
78.5652
77.402
75.978
74.7926
73.2853
71.9472
69.4466
68.8044
65.4633
64.8857
59.6884
58.1539
49.84
44.1027
62.234
61.0461
59.555
58.463
57.4237
56.3432
55.7877
55.2783
54.5329
54.2112
53.6927
52.9381
51.7891
50.0802
48.4688
46.6859
45.8193
46.4664
48.2321
51.5772
56.2679
61.5999
66.6243
70.7158
73.6822
75.958
77.6821
78.6287
78.9755
78.1468
76.0056
75.2334
77.8445
79.9516
78.9947
77.5167
77.3901
74.977
67.2743
56.8197
47.2966
39.4585
33.3828
33.9206
37.7622
47.9042
45.5511
55.3226
69.566
70.6595
91.9628
90.3262
100.077
100.652
99.0428
97.4507
95.4632
93.1188
91.7315
90.8024
89.8566
89.3544
88.7715
88.5233
88.0599
88.1756
87.6073
87.7711
87.1504
87.3807
86.8103
87.0992
86.3301
86.5878
85.8503
86.1285
85.204
85.4003
84.3956
84.5057
83.3854
83.3681
82.1203
81.8695
80.4276
80.0588
78.6273
77.9612
76.0048
75.5194
73.4531
73.0064
70.091
70.282
66.337
66.3162
60.7549
58.7546
50.9426
44.7883
62.1379
61.1935
60.0891
59.1059
58.3606
57.5828
57.0501
56.6849
56.055
55.6509
55.0212
53.9889
52.5269
50.4448
48.3559
46.2238
45.0667
45.4996
47.1701
50.6259
55.6596
61.3337
66.7833
71.219
74.4043
76.7613
78.4133
79.3251
79.4951
78.2592
75.8593
75.1448
77.6767
79.6226
78.4907
77.1844
77.8785
77.0983
71.0184
61.4472
52.1285
43.6937
37.7141
37.6586
40.4652
50.4456
47.0589
60.0152
70.2681
72.8841
92.5109
92.4762
102.103
102.097
100.473
98.8982
96.5661
94.0966
92.4715
91.3616
90.3158
89.8238
89.1193
88.8998
88.2515
88.4689
87.8546
88.1606
87.4323
87.7692
87.0661
87.5542
86.6893
87.1801
86.1788
86.7344
85.6175
86.2072
84.8175
85.3187
83.846
84.4054
82.5843
82.9272
80.943
81.3054
79.0589
79.2677
76.6281
77.0744
74.174
74.6992
71.1574
71.9096
67.4267
67.46
61.6326
58.9911
51.772
45.3382
61.9839
61.265
60.6075
59.7874
59.1868
58.6227
58.1213
57.8061
57.2516
56.7762
56.0676
54.8491
53.1571
50.8562
48.4554
46.13
44.786
45.021
46.662
50.2168
55.4278
61.2726
66.9295
71.5701
74.93
77.2646
78.8303
79.7546
79.8077
78.3324
75.9975
75.6042
78.1208
79.8549
78.5843
77.3935
78.598
79.0539
74.6197
65.9567
56.7586
47.972
42.3163
41.4048
43.1478
52.4002
48.873
64.4245
71.435
76.3013
91.0815
96.2403
103.575
103.287
101.794
100.074
97.403
94.9625
93.0962
91.8489
90.6575
90.2145
89.4224
89.2291
88.4624
88.697
88.0468
88.4995
87.7429
88.1555
87.3078
87.979
87.0585
87.7711
86.5338
87.3171
86.0317
87.0161
85.3075
86.1686
84.3601
85.5456
83.2068
84.1742
81.654
82.8945
79.7771
80.9541
77.6131
78.9529
75.2075
76.4816
72.3366
73.2362
68.4703
68.1892
62.3187
58.9848
52.356
45.8988
61.8852
61.3413
61.0045
60.3409
59.843
59.4169
58.9269
58.6118
58.1139
57.5509
56.7715
55.4951
53.692
51.2939
48.7296
46.2937
44.8301
44.9404
46.6155
50.1968
55.4669
61.3685
67.0861
71.8156
75.2102
77.4501
78.9395
79.9107
79.8997
78.4256
76.4383
76.576
79.0753
80.4967
79.0989
77.9769
79.363
80.5632
77.7426
70.1276
61.2282
52.416
47.04
45.062
45.6499
54.0827
50.859
67.6906
71.4395
83.1861
92.1363
100.463
104.581
104.278
102.85
100.896
98.0757
95.7057
93.6304
92.2741
90.9043
90.458
89.6272
89.5187
88.6919
88.9072
88.1964
88.7662
88.0211
88.5544
87.5338
88.3171
87.3665
88.3094
86.8758
87.82
86.4045
87.7287
85.7891
86.9643
84.8793
86.5918
83.8574
85.3927
82.441
84.4738
80.6242
82.6119
78.7291
80.7788
76.2899
77.9993
73.3836
74.1654
69.3349
68.5022
62.8449
58.9121
52.7823
46.4794
61.8873
61.4369
61.2663
60.7449
60.2933
59.9272
59.4579
59.1013
58.62
58.0202
57.2007
55.9143
54.0933
51.689
49.066
46.6093
45.1283
45.1714
46.8611
50.4351
55.7377
61.5855
67.2343
71.9201
75.2358
77.4165
78.9078
79.8103
79.832
78.5548
77.0857
77.8458
80.2188
81.1754
79.6936
78.6423
79.9138
81.4529
79.8949
73.4934
65.1862
56.6586
51.3814
48.5697
47.9661
55.0675
52.6604
69.5536
69.4654
93.236
95.9413
103.757
105.031
105.248
103.613
101.464
98.5272
96.2215
93.998
92.6239
91.1148
90.6263
89.7283
89.7097
88.8759
89.1166
88.3613
88.9447
88.1883
88.863
87.7913
88.6055
87.5636
88.6874
87.2108
88.2838
86.7022
88.2693
86.2361
87.6976
85.339
87.4309
84.4921
86.4983
83.1356
85.7873
81.5396
84.0426
79.7299
82.2867
77.2787
79.1459
74.2341
74.7132
69.9798
68.5202
63.2265
58.887
53.075
47.0383
61.9835
61.5717
61.4105
60.9674
60.5409
60.1848
59.7301
59.3364
58.8494
58.2292
57.3957
56.1269
54.3324
51.9799
49.4007
46.981
45.5296
45.5615
47.2664
50.7657
56.1098
61.8268
67.3451
71.8996
75.1344
77.3169
78.8129
79.6853
79.7002
78.735
77.9856
79.0806
81.1489
81.5741
79.99
78.8416
80.0979
81.744
80.9795
75.6774
68.3803
60.2487
54.6556
51.1941
49.8557
56.6292
54.7846
72.6552
69.3293
98.5426
95.803
105.999
105.5
106.077
104.175
101.833
98.9768
96.5786
94.2633
92.8785
91.28
90.7313
89.7703
89.7691
88.9374
89.2639
88.4808
89.0458
88.2755
89.028
87.971
88.8487
87.7262
88.8839
87.4394
88.6988
86.9855
88.5916
86.563
88.3347
85.7838
87.9889
85.0105
87.433
83.7586
86.7044
82.3657
85.1748
80.4989
83.3885
78.0896
79.8974
74.8977
75.0387
70.3721
68.4007
63.4811
58.9029
53.2528
47.5402
62.0876
61.6813
61.4636
61.0489
60.6314
60.2618
59.8109
59.39
58.8979
58.2704
57.4248
56.1736
54.4183
52.1145
49.6236
47.3245
45.9454
45.9936
47.7191
51.2465
56.3931
62.0351
67.4216
71.8541
75.0646
77.2717
78.7524
79.5694
79.5887
78.8939
78.6404
79.9076
81.6752
81.6965
80.0112
78.7929
79.9356
81.4825
80.9357
76.8916
70.5333
62.8077
56.7811
52.6018
51.2239
58.0042
54.9938
77.4126
71.9063
99.6661
95.7113
107.693
106.279
106.551
104.561
102.084
99.2687
96.8099
94.4399
92.9932
91.3466
90.7865
89.7659
89.7888
88.9419
89.3255
88.5118
89.1188
88.2982
89.1005
88.0366
88.9923
87.8004
88.9953
87.5321
88.9249
87.1406
88.7877
86.7164
88.6834
86.0542
88.324
85.2997
87.9777
84.196
87.2171
82.8885
85.8813
81.044
83.9894
78.6752
80.293
75.3527
75.2095
70.7594
68.2286
63.6468
58.9341
53.346
47.9099
62.2409
61.7615
61.4686
61.0609
60.6446
60.2564
59.8066
59.3668
58.8592
58.2168
57.3455
56.0939
54.3586
52.1469
49.7258
47.5244
46.2171
46.302
48.1269
51.6185
56.6341
62.1823
67.4738
71.8448
75.0471
77.2569
78.7253
79.5128
79.5214
78.9198
78.7002
80.1253
81.7683
81.7003
80.0112
78.8163
79.9425
81.3998
80.6301
76.7282
71.5422
63.8759
57.8061
53.3739
51.9588
58.6267
55.5593
80.2075
73.7035
99.9292
95.8246
108.451
106.156
106.679
104.608
102.141
99.3038
96.8404
94.4842
93.0246
91.3954
90.8168
89.784
89.8093
88.9474
89.3472
88.5215
89.1447
88.2926
89.124
88.0416
89.028
87.8033
89.0365
87.5342
88.9783
87.148
88.8679
86.7224
88.7797
86.0752
88.4637
85.3224
88.1559
84.2591
87.4159
82.9679
86.1474
81.1772
84.1914
78.8416
80.4388
75.4716
75.2466
70.8173
68.1024
63.6778
58.9106
53.361
47.8662
49.1195
48.0944
46.3545
44.3892
43.3834
44.4925
46.9126
48.8502
48.7515
49.5175
51.9383
55.2765
59.5336
63.027
65.2724
65.768
64.3092
62.0286
60.097
59.1748
60.8142
63.9132
64.4944
62.5582
58.3061
52.743
49.1569
48.4562
51.3966
59.2112
71.4241
85.969
103.474
116.44
122.304
121.868
117.306
110.878
104.122
97.9275
92.6823
88.6436
85.9242
84.3477
83.6088
83.2712
82.8754
82.1187
81.1484
80.3722
79.9966
79.7912
79.5522
79.1583
78.7458
78.4744
78.5519
79.1601
80.234
81.6452
83.1847
84.6331
85.9023
86.9219
87.685
88.2523
88.643
88.9162
89.1085
89.2398
89.3429
89.4256
89.4997
89.5755
89.6556
89.7409
89.8379
89.9448
90.0603
90.1878
90.3209
90.4577
90.5934
90.7199
90.8278
90.9123
90.9748
91.0183
91.0377
91.0299
91.0124
90.9977
90.9272
90.6259
90.2021
89.7885
89.0494
88.8399
89.8276
91.8955
49.162
48.0689
46.1935
44.1449
42.9028
43.8934
46.3122
48.5076
48.4196
49.0283
51.3963
54.8924
59.0671
62.6289
64.9628
65.467
63.9946
61.7019
59.7878
59.0423
60.8239
64.2134
65.4745
62.4031
57.2085
51.3772
47.8668
47.3764
50.3962
57.9335
70.0152
84.5841
101.995
115.273
121.393
121.219
116.837
110.497
103.762
97.5197
92.2953
88.3674
85.814
84.3378
83.6109
83.2934
82.9156
82.1252
81.1054
80.3139
79.9648
79.7997
79.5737
79.1678
78.7267
78.4247
78.4785
79.0844
80.177
81.6117
83.1741
84.6403
85.9176
86.9438
87.7036
88.2684
88.6555
88.9237
89.1146
89.2427
89.3442
89.4266
89.4986
89.5748
89.6543
89.7393
89.8361
89.9436
90.0584
90.1869
90.3205
90.4578
90.5953
90.7223
90.8331
90.9212
90.9876
91.032
91.0461
91.028
90.9995
90.9831
90.9219
90.6533
90.2254
89.6911
88.7941
88.5065
89.4638
91.4865
49.2509
48.0248
45.9465
43.5912
41.9948
42.5879
44.7187
47.3735
47.704
48.4254
50.6051
54.2439
58.3844
61.9166
64.3778
64.8522
63.3183
61.0359
59.2009
58.8276
61.1197
64.2766
64.8068
60.7723
54.7499
48.8276
45.6057
45.622
48.8872
55.8582
67.5249
81.9661
99.1714
112.858
119.298
119.448
115.38
109.317
102.759
96.6012
91.3564
87.4696
85.0841
83.8142
83.2766
83.1098
82.8288
82.0538
80.9911
80.1997
79.9186
79.8208
79.61
79.1783
78.6872
78.3402
78.3557
78.9586
80.0832
81.5527
83.1564
84.6511
85.9429
86.9749
87.7304
88.2895
88.6709
88.932
89.1198
89.2429
89.3457
89.4225
89.4935
89.5675
89.6476
89.7295
89.8267
89.9324
90.0459
90.1739
90.3064
90.4437
90.5816
90.71
90.8238
90.9163
90.9844
91.03
91.045
91.0289
90.994
90.9768
90.9503
90.7722
90.3556
89.6037
88.3804
87.9132
88.8083
90.7777
49.3894
47.982
45.5956
42.8292
40.9105
40.8368
42.714
45.8339
47.2908
48.2856
49.8433
53.3063
57.3955
60.8434
63.5299
64.0676
62.5698
60.2297
58.3915
58.2959
60.6496
63.5186
62.8444
57.5669
51.1904
45.8307
42.9551
43.5098
47.1969
53.7585
64.4964
78.5162
95.3915
109.442
116.162
116.685
113.049
107.429
101.17
95.0874
89.787
85.8515
83.5578
82.5194
82.338
82.5298
82.5033
81.8423
80.8058
80.0717
79.8987
79.8733
79.6635
79.191
78.6319
78.2228
78.2095
78.7897
79.9575
81.4651
83.118
84.653
85.9606
87.0015
87.752
88.306
88.6809
88.9344
89.1175
89.2375
89.3315
89.4133
89.4772
89.5525
89.628
89.7087
89.8015
89.9059
90.0137
90.1398
90.2678
90.4017
90.5379
90.6653
90.783
90.8813
90.9593
91.0141
91.0385
91.0272
90.9964
90.9872
91.0209
90.9584
90.5269
89.4999
87.9796
87.2661
88.104
89.9667
49.6153
48.0047
45.2798
42.1239
39.8777
39.1512
40.6976
44.1692
46.8903
48.5625
48.6808
51.8833
55.7888
59.2379
62.338
63.1205
61.8184
59.4308
57.3869
57.3325
59.8175
61.895
59.7206
53.7341
47.2666
42.8789
40.4096
41.2875
45.3978
51.7547
61.328
74.6328
91.2174
105.281
112.243
113.16
110.043
104.956
99.0446
93.0269
87.6672
83.6416
81.3612
80.4985
80.682
81.3818
81.8235
81.4511
80.569
79.9718
79.9339
79.9723
79.7381
79.2006
78.5495
78.0442
77.9684
78.5182
79.7531
81.3151
83.0405
84.6307
85.9631
87.0136
87.7629
88.3087
88.6806
88.9249
89.1055
89.2212
89.3127
89.389
89.4535
89.5221
89.5997
89.6688
89.7643
89.8567
89.9631
90.0794
90.2024
90.3285
90.4591
90.5824
90.6989
90.8012
90.8856
90.9519
90.9924
91.0058
91.0023
91.0192
91.0843
91.1068
90.6532
89.3828
87.6143
86.6812
87.4514
89.2335
50.0114
48.2636
45.2564
41.8204
39.228
37.7831
38.9176
42.3027
45.8332
47.6783
46.8273
49.6363
53.3331
56.869
60.7552
62.0883
61.2994
59.0609
56.9229
56.7607
59.046
59.9097
56.1443
49.8973
43.6005
40.1096
38.2161
39.262
43.6694
50.1576
58.6341
70.9323
87.0351
100.876
107.979
109.177
106.654
102.097
96.5529
90.5967
85.0515
80.9928
78.635
77.8509
78.3447
79.6189
80.7171
80.8456
80.2824
79.9089
80.0172
80.0938
79.802
79.1685
78.3968
77.7644
77.606
78.1224
79.451
81.0905
82.9155
84.5815
85.9496
87.015
87.7707
88.3039
88.6765
88.9079
89.087
89.1994
89.2832
89.3617
89.4175
89.4888
89.5553
89.6255
89.7071
89.7988
89.8897
90.0029
90.1099
90.2298
90.3459
90.4636
90.5713
90.6726
90.7571
90.8321
90.8878
90.9273
90.9666
91.0173
91.1224
91.1447
90.6756
89.2467
87.3639
86.2579
86.933
88.7498
50.6606
48.8645
45.6773
41.9807
38.9642
36.8952
37.4962
40.4922
43.9766
45.3124
44.0217
46.4796
49.9721
53.8648
58.6905
61.1581
61.252
59.679
57.5988
57.391
58.9319
58.1451
52.9974
46.3324
40.4005
37.5195
36.3418
37.1992
41.9002
48.758
56.3893
67.8187
83.1232
96.5156
103.704
105.025
103.135
99.0949
93.8495
87.9471
82.3285
78.0953
75.5365
74.6944
75.4315
77.2759
79.1454
79.9675
79.8919
79.8423
80.106
80.192
79.8143
79.0656
78.153
77.3756
77.1219
77.6126
79.0528
80.8006
82.7477
84.5085
85.9162
87.0111
87.7715
88.3007
88.6665
88.8935
89.0665
89.1764
89.2542
89.3325
89.3685
89.4508
89.5099
89.5734
89.6511
89.7285
89.8158
89.9096
90.0115
90.1086
90.218
90.3161
90.4159
90.5018
90.5853
90.6537
90.7211
90.7794
90.8475
90.9368
91.0472
91.0729
90.5499
89.1192
87.2284
86.0851
86.7273
88.6323
51.6172
49.8274
46.5572
42.6321
39.0806
36.5292
36.5437
38.7726
41.3635
41.5307
40.3111
42.5954
46.0654
50.5525
56.2891
60.4143
61.8662
61.501
60.0545
59.791
59.8477
56.7222
50.5562
43.3725
37.8397
35.4905
34.9903
35.3479
40.1256
47.3243
54.5394
64.8763
79.5455
92.5066
99.5985
101.023
99.6323
96.1164
91.0585
85.1735
79.4637
75.0471
72.212
71.1808
72.0604
74.4317
77.0926
78.7509
79.3362
79.7066
80.1301
80.2115
79.74
78.8774
77.8153
76.8762
76.5207
76.9834
78.565
80.4477
82.5507
84.402
85.8817
86.9952
87.7702
88.293
88.6559
88.8766
89.047
89.15
89.2293
89.2985
89.36
89.4019
89.4675
89.5168
89.592
89.6562
89.7362
89.817
89.9025
89.9913
90.0761
90.1656
90.2387
90.3177
90.378
90.4451
90.4966
90.5677
90.6382
90.7454
90.8502
90.8421
90.3228
88.9678
87.2069
86.1753
86.859
88.8813
52.8807
51.1613
47.8759
43.7107
39.5381
36.6234
36.1115
37.2698
38.4861
37.5137
36.4946
39.0948
42.521
47.4591
54.0938
59.834
63.2356
64.5634
64.3237
63.8683
61.9705
55.9027
48.6502
41.3268
36.146
34.3613
34.4026
34.1566
38.6371
46.0998
53.3772
62.5536
76.3223
88.977
95.8289
97.3435
96.2945
93.2075
88.2129
82.2622
76.468
71.8246
68.7426
67.4517
68.3798
71.1819
74.5936
77.1681
78.5391
79.4126
80.0457
80.1206
79.5619
78.5886
77.3859
76.257
75.8052
76.2368
77.9888
80.0431
82.3149
84.2847
85.843
86.9721
87.7691
88.2844
88.6409
88.8645
89.0228
89.1267
89.1993
89.2664
89.3156
89.3689
89.4123
89.4693
89.5223
89.5904
89.6482
89.7254
89.7932
89.8671
89.9383
90.0041
90.068
90.1158
90.1706
90.2046
90.2522
90.2931
90.3649
90.437
90.5268
90.4706
89.983
88.8107
87.2604
86.4367
87.2731
89.488
54.3505
52.7788
49.6016
45.0182
40.0849
36.8516
36.0638
36.322
36.1159
34.2688
33.3309
36.569
40.0361
45.1878
52.3616
59.4016
65.2509
68.5223
69.9132
69.24
65.0096
55.9655
47.2837
40.1755
35.3446
34.1008
34.4729
33.6588
37.4476
45.2226
52.6922
61.1807
73.7491
85.8907
92.5516
94.0089
93.1891
90.3427
85.2941
79.1291
73.2447
68.4637
65.1147
63.6048
64.5443
67.6752
71.7366
75.1862
77.436
78.922
79.7993
79.884
79.2649
78.2113
76.8717
75.526
74.9845
75.384
77.3452
79.5864
82.0716
84.1597
85.7997
86.9519
87.7656
88.2722
88.6288
88.8512
88.9972
89.1038
89.1704
89.2301
89.2795
89.3181
89.3666
89.4116
89.4609
89.514
89.568
89.6267
89.6875
89.7393
89.8
89.8438
89.8903
89.9207
89.9474
89.9654
89.9798
90.0045
90.0272
90.0745
90.0864
90.0079
89.5958
88.6082
87.4093
86.8453
87.8802
90.4462
55.9031
54.4897
51.3234
46.2596
40.3811
36.806
36.0333
35.8392
34.4882
31.8695
31.0641
34.6997
38.2883
43.5507
51.0063
59.3181
67.4265
72.8535
76.0163
75.0966
68.3816
56.6979
46.6293
39.8454
35.372
34.6029
35.2474
33.9439
36.8235
44.7854
52.3591
60.2551
71.8511
83.2844
89.7294
91.0468
90.3064
87.4242
82.2602
75.7197
69.6441
64.7498
61.2223
59.6576
60.6829
64.0383
68.5837
72.8307
76.0036
78.1778
79.3531
79.5109
78.8629
77.7454
76.2805
74.6884
74.0883
74.4586
76.641
79.1121
81.8241
84.0258
85.7657
86.9288
87.7647
88.2577
88.6211
88.8283
88.977
89.0769
89.1444
89.1914
89.2424
89.2695
89.3187
89.3565
89.392
89.4436
89.4789
89.5339
89.5733
89.6179
89.6534
89.691
89.7065
89.7231
89.7208
89.7192
89.7072
89.6867
89.6775
89.6527
89.626
89.4736
89.1485
88.407
87.5447
87.4756
88.8476
91.6671
57.3475
56.1614
52.9111
47.1827
40.1179
36.0918
35.497
35.2347
33.2744
30.127
29.7151
33.4301
37.1678
42.4112
50.112
59.6921
69.4326
77.2056
81.8986
80.6976
71.6965
57.9333
46.8382
40.3157
36.3312
35.8657
36.6605
34.9074
36.854
44.8746
52.6755
60.0666
70.7528
81.3255
87.3738
88.472
87.64
84.4051
79.005
72.0206
65.6037
60.5712
56.9669
55.5499
56.8041
60.3612
65.2311
70.1694
74.2261
77.1677
78.736
78.987
78.3547
77.192
75.6409
73.7919
73.1564
73.524
75.9188
78.6372
81.5791
83.8968
85.7264
86.9137
87.7585
88.2465
88.6088
88.8085
88.9524
89.0551
89.1103
89.1588
89.2017
89.2347
89.2673
89.3012
89.325
89.3666
89.3967
89.4337
89.4651
89.4884
89.5181
89.5259
89.5294
89.5179
89.5011
89.4645
89.4225
89.3634
89.3011
89.2289
89.1224
88.9759
88.6579
88.1787
87.7781
88.1354
90.0255
92.6557
58.4872
57.5118
54.231
47.7851
39.533
34.9994
34.4532
34.1221
32.0783
28.9086
29.0189
32.8422
36.7987
41.9121
49.723
60.2481
71.2349
81.1292
87.0948
85.5189
74.7396
59.5267
47.6901
41.304
37.7999
37.5141
38.3314
36.1569
37.3861
45.5077
53.5498
60.5422
70.291
79.9955
85.469
86.3317
85.1537
81.2905
75.4446
68.0303
61.1652
55.9299
52.3138
51.1985
52.8946
56.7125
61.7947
67.2484
72.1978
75.9219
77.9273
78.3333
77.7748
76.5939
74.971
72.8983
72.2208
72.6604
75.1992
78.1864
81.3409
83.7651
85.7004
86.8848
87.7559
88.2278
88.6011
88.7817
88.936
89.0265
89.081
89.121
89.1618
89.1818
89.2223
89.2334
89.2638
89.2861
89.3142
89.3328
89.355
89.3665
89.3723
89.3695
89.3479
89.3198
89.2714
89.2106
89.1287
89.0313
88.9147
88.788
88.6392
88.4421
88.2154
87.8588
87.8261
88.6565
90.5937
93.846
59.3106
58.5184
55.2355
48.2135
38.9899
34.0116
33.3264
32.7807
30.8602
28.1169
28.7635
32.6931
36.9544
41.7669
49.5516
60.8039
72.7154
83.9928
91.2319
89.2366
77.1765
61.1829
48.8653
42.4642
39.2682
39.2218
40.1753
37.7841
38.4415
46.6353
54.9189
61.5076
70.3328
79.1879
83.9446
84.6127
82.8645
78.1728
71.6747
63.7614
56.4215
50.9421
47.3248
46.5915
48.9284
53.0962
58.3859
64.2406
69.9413
74.4827
76.9635
77.6041
77.1407
75.953
74.3053
72.0677
71.3815
71.9011
74.5339
77.7642
81.0801
83.6476
85.658
86.8472
87.7484
88.1938
88.5924
88.7444
88.9239
88.9922
89.0548
89.0804
89.1219
89.135
89.1675
89.18
89.1905
89.2122
89.2236
89.241
89.2396
89.2429
89.2308
89.2105
89.1728
89.1134
89.0484
88.9479
88.8365
88.6912
88.5411
88.3529
88.1491
87.9062
87.6517
87.5449
87.6812
88.786
91.3498
93.8491
59.9015
59.2035
55.9692
48.6278
38.7256
33.3509
32.3948
31.5887
29.8336
27.8817
28.8518
32.7757
37.1398
41.5627
49.3871
61.3384
73.7474
85.6059
93.8752
91.5656
78.8655
62.6819
50.2681
43.8614
40.8761
41.0408
42.2181
39.8493
40.1724
48.3382
56.7523
63.0126
70.9959
78.9412
82.8522
83.2855
80.8596
75.1915
67.8884
59.3483
51.5658
45.7949
42.1554
41.7993
44.8579
49.5682
55.0513
61.2204
67.5691
72.9269
75.918
76.7815
76.5123
75.3229
73.7212
71.4129
70.69
71.2863
73.9696
77.4085
80.8603
83.5442
85.5936
86.8034
87.7179
88.138
88.5666
88.6922
88.9111
88.9472
89.0312
89.035
89.084
89.0818
89.1203
89.1183
89.1239
89.1331
89.1408
89.1414
89.1292
89.1168
89.093
89.0518
88.9945
88.9133
88.8153
88.6902
88.5391
88.357
88.1467
87.9099
87.6307