/*--------------------------------*- C++ -*----------------------------------*\
| =========                 |                                                 |
| \\      /  F ield         | OpenFOAM: The Open Source CFD Toolbox           |
|  \\    /   O peration     | Version:  2.4.0                                 |
|   \\  /    A nd           | Web:      www.OpenFOAM.org                      |
|    \\/     M anipulation  |                                                 |
\*---------------------------------------------------------------------------*/
FoamFile
{
    version     2.0;
    format      ascii;
    class       volScalarField;
    location    "0.254";
    object      k;
}
// * * * * * * * * * * * * * * * * * * * * * * * * * * * * * * * * * * * * * //

dimensions      [0 2 -2 0 0 0 0];

internalField   nonuniform List<scalar> 
17600
(
9.2843
7.41814
5.096
3.96746
3.30381
2.98742
2.67171
2.49823
2.31982
2.23163
2.12073
2.05202
2.03546
1.92689
1.9781
1.91946
1.97098
2.00921
2.21605
1.86425
4.50267
6.21716
5.81381
5.08371
4.36746
3.97735
3.57205
3.33589
3.10924
2.97128
2.81771
2.72058
2.68353
2.53482
2.57548
2.49456
2.50794
2.54292
2.60539
2.85224
1.31668
3.30325
3.96918
3.9655
3.74192
3.49488
3.2096
3.02516
2.84351
2.72177
2.59062
2.49568
2.45852
2.32913
2.33487
2.27732
2.24293
2.26878
2.22613
2.43398
0.206657
1.21651
1.89134
2.33815
2.49613
2.51758
2.47295
2.40403
2.30507
2.24054
2.15894
2.08841
2.06245
1.97653
1.96067
1.92424
1.87062
1.87331
1.81231
1.84226
0.0258974
0.29631
0.613762
0.963657
1.24302
1.42135
1.53373
1.61135
1.61299
1.61895
1.61289
1.58604
1.57797
1.5495
1.52792
1.50931
1.47795
1.45251
1.41804
1.36376
0.00273137
0.0555723
0.13495
0.252575
0.433129
0.559594
0.68797
0.83049
0.886819
0.95244
1.01307
1.02689
1.04644
1.06905
1.06289
1.06294
1.05818
1.0265
1.01247
0.959037
0.000275202
0.00871028
0.0234504
0.0439759
0.100312
0.147081
0.20033
0.300258
0.347999
0.39627
0.4806
0.514146
0.540697
0.600154
0.607819
0.629039
0.639526
0.621099
0.614644
0.581545
4.67791e-05
0.00127798
0.00357743
0.00619961
0.0156714
0.0262661
0.0384636
0.0702877
0.0947799
0.110224
0.153407
0.179672
0.196441
0.240572
0.250436
0.275933
0.293247
0.283456
0.281986
0.265341
2.67316e-05
0.000230938
0.000539997
0.000845069
0.00200303
0.00335408
0.00530453
0.0108752
0.0171744
0.0207523
0.0324314
0.041326
0.0476849
0.0649337
0.0688771
0.0803323
0.0899943
0.0877617
0.0871087
0.0817178
2.4174e-05
8.46337e-05
0.000115328
0.000157938
0.000302685
0.000466018
0.000692927
0.00137672
0.00230984
0.00281353
0.00470981
0.00612035
0.00750634
0.0114522
0.0123255
0.014702
0.0176478
0.017528
0.0172531
0.0155316
2.57352e-05
6.99122e-05
0.00010428
0.000110398
0.000139341
0.000188901
0.000197792
0.00025051
0.000401681
0.000441353
0.000626338
0.000800224
0.000957504
0.00148914
0.00156839
0.00180677
0.0023502
0.00234686
0.00226689
0.00199794
2.71809e-05
7.22864e-05
0.000101267
9.28867e-05
0.00011697
0.000114976
0.000107697
0.00012206
0.000184102
0.000189827
0.000211864
0.000262759
0.000269128
0.000299559
0.000292756
0.00030059
0.000322223
0.000354823
0.000360542
0.000382175
2.28366e-05
5.51859e-05
5.64484e-05
5.29247e-05
7.64126e-05
9.06002e-05
9.42657e-05
0.000118707
0.000130677
0.000149669
0.000166269
0.000167183
0.000171506
0.000170761
0.000163871
0.000147956
0.000141517
0.000141233
0.00015157
0.000194157
2.10001e-05
3.50291e-05
3.90496e-05
4.04392e-05
4.88827e-05
6.94677e-05
9.43655e-05
9.48251e-05
9.43041e-05
0.000102954
0.000102709
9.96853e-05
0.000104507
0.000117143
0.000116772
0.000111711
0.000114766
0.000113922
0.000116743
0.000137896
2.09774e-05
2.85474e-05
5.23183e-05
5.26228e-05
5.31423e-05
6.98614e-05
7.63967e-05
7.49616e-05
7.8992e-05
8.45038e-05
8.42001e-05
8.41498e-05
8.5319e-05
9.57337e-05
9.92917e-05
0.00010127
0.000105968
0.000109411
0.000111603
0.00011138
2.13941e-05
2.73692e-05
5.2366e-05
4.86185e-05
4.51116e-05
5.04708e-05
5.45302e-05
5.87467e-05
6.74958e-05
6.9942e-05
7.04216e-05
7.07511e-05
7.03153e-05
7.16381e-05
7.48987e-05
8.21994e-05
8.44442e-05
9.25409e-05
9.04378e-05
8.40255e-05
2.11041e-05
2.74258e-05
4.26676e-05
4.11551e-05
4.04511e-05
4.15973e-05
4.88647e-05
5.58466e-05
5.72972e-05
5.9008e-05
6.03775e-05
5.87763e-05
5.63252e-05
5.64662e-05
5.84724e-05
6.00699e-05
6.73802e-05
6.74472e-05
6.70704e-05
6.76921e-05
2.05286e-05
2.43133e-05
3.95776e-05
4.20927e-05
4.02551e-05
3.90089e-05
4.22481e-05
4.35503e-05
4.60251e-05
4.86981e-05
5.03117e-05
5.00021e-05
4.86784e-05
4.89707e-05
4.95733e-05
5.05382e-05
5.52165e-05
5.43628e-05
5.47328e-05
5.90599e-05
2.05684e-05
2.46649e-05
3.89783e-05
4.25425e-05
4.06633e-05
3.93543e-05
3.93527e-05
4.10131e-05
4.42254e-05
4.6667e-05
4.78878e-05
4.82579e-05
4.71698e-05
4.69628e-05
4.66877e-05
4.7616e-05
4.79717e-05
4.96124e-05
5.04329e-05
5.77639e-05
2.05496e-05
2.38898e-05
3.55341e-05
3.92519e-05
3.7879e-05
3.63032e-05
3.7421e-05
3.98877e-05
4.13968e-05
4.22652e-05
4.38358e-05
4.48208e-05
4.4127e-05
4.39751e-05
4.42122e-05
4.49241e-05
4.52382e-05
4.83919e-05
4.91727e-05
5.52317e-05
2.05496e-05
2.38213e-05
3.71969e-05
3.93041e-05
3.7827e-05
3.73288e-05
3.99714e-05
4.15138e-05
4.23281e-05
4.2503e-05
4.25735e-05
4.28063e-05
4.37845e-05
4.45721e-05
4.56526e-05
4.59679e-05
4.66377e-05
4.80841e-05
4.87736e-05
5.46231e-05
2.07039e-05
2.54258e-05
3.70721e-05
3.64321e-05
3.58699e-05
4.02254e-05
4.38584e-05
4.39095e-05
4.38624e-05
4.2617e-05
4.21162e-05
4.37538e-05
4.56172e-05
4.61916e-05
4.73435e-05
4.74626e-05
4.8071e-05
4.81311e-05
4.91124e-05
5.91748e-05
2.07502e-05
2.68469e-05
3.05414e-05
3.53e-05
4.34402e-05
4.59118e-05
4.5384e-05
4.35624e-05
4.32029e-05
4.26619e-05
4.38647e-05
4.84621e-05
4.85092e-05
4.87246e-05
4.92439e-05
4.91461e-05
4.92723e-05
5.00491e-05
5.20914e-05
5.67487e-05
2.084e-05
2.44753e-05
3.33437e-05
4.4441e-05
4.5713e-05
4.41717e-05
4.22598e-05
4.28717e-05
4.40586e-05
4.74066e-05
5.14391e-05
5.12844e-05
4.98877e-05
5.05614e-05
5.04523e-05
5.12277e-05
5.28856e-05
5.78648e-05
5.98881e-05
6.43004e-05
2.10462e-05
2.54239e-05
4.11933e-05
4.53715e-05
4.39065e-05
4.24333e-05
4.45997e-05
5.20523e-05
5.33066e-05
5.53078e-05
5.50961e-05
5.28694e-05
5.31441e-05
5.50374e-05
5.61302e-05
6.13237e-05
6.44415e-05
6.67235e-05
6.82897e-05
7.82274e-05
2.13834e-05
2.7156e-05
4.15487e-05
4.16137e-05
4.2209e-05
4.78278e-05
6.12146e-05
6.14925e-05
5.99284e-05
5.91296e-05
5.64127e-05
5.68429e-05
6.2656e-05
6.52674e-05
6.99955e-05
7.41577e-05
7.46715e-05
7.67856e-05
8.54989e-05
0.000124141
2.16812e-05
2.66923e-05
3.79046e-05
4.53267e-05
5.91409e-05
6.36403e-05
6.81963e-05
6.41536e-05
6.37797e-05
6.33136e-05
6.36002e-05
7.32756e-05
7.98576e-05
8.08836e-05
8.55094e-05
8.96713e-05
9.61133e-05
0.000115659
0.000177064
0.000399697
2.183e-05
2.73282e-05
4.86077e-05
6.14939e-05
7.24408e-05
7.1572e-05
7.48187e-05
7.11486e-05
7.66876e-05
7.75651e-05
8.40769e-05
9.57376e-05
9.98974e-05
0.000106565
0.000123106
0.000161011
0.000215437
0.000362449
0.000763007
0.00201611
2.25944e-05
2.91973e-05
7.09163e-05
7.87188e-05
9.08853e-05
9.11304e-05
9.8995e-05
9.62372e-05
0.000110416
0.000115823
0.000129248
0.00016549
0.000205886
0.000287205
0.000424882
0.000747087
0.00112806
0.0021127
0.00441238
0.0112335
2.29815e-05
3.45555e-05
0.000105526
0.000117315
0.000137042
0.000155421
0.000179129
0.000196717
0.000281905
0.000405925
0.000510006
0.000868711
0.00122037
0.00199119
0.00291521
0.00514258
0.00736471
0.0130103
0.0230122
0.0531848
2.54336e-05
5.73277e-05
0.000191331
0.00024418
0.00032294
0.000542953
0.00076706
0.00107465
0.00204968
0.00333078
0.00420537
0.00711816
0.00947735
0.0144526
0.0192656
0.0307076
0.0397153
0.0629087
0.0922644
0.188217
2.93678e-05
0.000169533
0.000630489
0.00100956
0.00177081
0.00383688
0.0060162
0.00892478
0.0170633
0.024431
0.0298051
0.0455368
0.0565215
0.0746704
0.0927739
0.12976
0.153198
0.210493
0.270478
0.455966
4.95281e-05
0.000928445
0.00380675
0.00700504
0.0139368
0.0282623
0.0424705
0.0605638
0.0993608
0.120822
0.144095
0.194742
0.223647
0.260205
0.309348
0.370132
0.408997
0.497868
0.577519
0.776544
0.00027715
0.00649227
0.0267248
0.0474543
0.0968644
0.148442
0.215494
0.27807
0.364451
0.406784
0.473791
0.539777
0.586162
0.629155
0.691246
0.746208
0.785515
0.871525
0.941783
1.0949
0.00272021
0.0447188
0.155869
0.248692
0.432542
0.559347
0.709692
0.806071
0.910183
0.953418
1.02056
1.0529
1.08847
1.10503
1.1449
1.167
1.19496
1.2419
1.28959
1.36288
0.0258422
0.270111
0.653694
0.948502
1.26206
1.41359
1.55479
1.58952
1.63023
1.61913
1.62364
1.60304
1.60036
1.5791
1.58061
1.56733
1.56954
1.56494
1.57209
1.55856
0.206346
1.20051
1.93037
2.31735
2.5252
2.50662
2.47958
2.38239
2.32823
2.21974
2.17871
2.08344
2.05694
1.98544
1.9606
1.89853
1.87263
1.80733
1.75448
1.65585
1.31586
3.2959
3.99842
3.95831
3.77782
3.44081
3.24437
2.98583
2.86514
2.68414
2.6061
2.45772
2.41321
2.29733
2.24635
2.13142
2.07061
1.93102
1.81126
1.63284
4.50272
6.21974
5.84414
5.04368
4.42337
3.91319
3.61147
3.28423
3.13007
2.9113
2.81916
2.64345
2.58625
2.43863
2.36402
2.19986
2.10555
1.89773
1.703
1.44866
9.2881
7.42265
5.12059
3.92835
3.34005
2.94304
2.69597
2.4503
2.33408
2.16619
2.10223
1.96562
1.91271
1.78805
1.71709
1.5571
1.46064
1.26106
1.06543
0.835518
1.25311
1.22794
0.818189
0.727489
0.705532
0.694335
0.651256
0.51921
0.424825
0.391021
0.38651
0.387573
0.385654
0.395252
0.385069
0.334975
0.191717
0.0827875
0.0363077
0.0182043
0.00920131
0.00645954
0.00588366
0.00487707
0.00429665
0.00670524
0.00867014
0.0116672
0.0209973
0.0568512
0.243385
0.307862
0.352338
0.410023
0.456734
0.406108
0.202017
0.107006
0.0633112
0.0515119
0.0584084
0.0637861
0.0712965
0.093249
0.100594
0.097173
0.0982484
0.102654
0.104912
0.110404
0.109927
0.0956305
0.066035
0.043023
0.0232747
0.013822
0.014352
0.0363336
0.0793553
0.0918448
0.0919548
0.0871477
0.0810689
0.0771363
0.0757108
0.0727083
0.0677572
0.0571304
0.0449397
0.0371257
0.0327216
0.0293264
0.0263129
0.0247195
0.023881
0.0228774
0.0219944
0.0218448
0.0221286
0.0234085
0.0295724
0.0332059
0.0343418
0.0404939
0.0538808
0.0597658
0.0602153
0.0570695
0.051697
0.0432719
0.0356507
0.0296132
0.0259118
0.0256612
0.0314168
0.0542587
0.0618245
0.0619099
0.0606903
0.0573854
0.0550655
0.0548026
0.0553993
0.0571954
0.0597259
0.0644879
0.0674044
0.0697909
0.0715851
0.068614
0.0608703
0.0559865
0.0503461
0.0481907
0.0480549
0.0491361
0.0498671
0.0494641
0.0483792
0.0454098
0.0375967
0.0293016
0.0249751
0.0227004
0.0197879
0.017531
0.0167479
0.0168792
0.0175534
0.0172412
0.0168012
0.0175448
0.0226262
0.0411807
0.0960054
0.124056
0.124968
0.0997384
0.0590031
0.0382336
0.0319869
0.0283224
0.0251355
0.021763
0.0191188
0.0182924
0.0210203
0.027118
0.0284126
0.0270518
0.0246513
0.0243918
0.0252974
0.0294522
0.0362608
0.0417875
0.0475955
0.0574684
0.0930711
0.124413
0.127048
0.104962
0.0692329
0.0594032
0.0620237
0.064532
0.0631766
0.0570326
0.0427003
0.0298597
0.0272802
0.0236768
0.0234145
0.020588
0.019831
0.0184182
0.0207368
0.0217441
0.0286947
0.0307487
0.0371188
0.0376811
0.0415208
0.0412888
0.0461254
0.0502455
0.0528322
0.055714
0.0548651
0.0533738
0.064857
0.0668167
0.0603388
0.0615521
0.0938376
0.116448
0.121712
0.089147
0.117703
0.42095
2.05333
1.65018
1.29154
0.965623
0.816969
0.724142
0.648309
0.534053
0.460562
0.420465
0.411534
0.420776
0.444625
0.431153
0.382419
0.241732
0.102195
0.0417797
0.0176234
0.00861908
0.00506232
0.00475639
0.00481697
0.0046077
0.00419436
0.00484194
0.00631106
0.00955886
0.0193991
0.044688
0.228044
0.326044
0.371829
0.405178
0.437046
0.377527
0.187269
0.106783
0.065907
0.0538706
0.0597163
0.0640299
0.0733582
0.095613
0.101746
0.0990613
0.102231
0.104405
0.111741
0.117046
0.112062
0.0855584
0.0526509
0.030984
0.0155383
0.0102522
0.0132045
0.0432405
0.0857782
0.0957717
0.0951778
0.092349
0.0884462
0.082506
0.0775768
0.0728265
0.0639601
0.0516445
0.0425362
0.0359823
0.031933
0.0286279
0.0258992
0.0245189
0.0239916
0.0229172
0.0219064
0.0217475
0.0219579
0.0234022
0.0292492
0.0321806
0.0330996
0.0402624
0.0536803
0.0594585
0.0597852
0.0563942
0.0508449
0.0422774
0.034456
0.0283989
0.024553
0.0240882
0.0280945
0.0498157
0.0610777
0.0614456
0.0600677
0.0573903
0.0555352
0.0558187
0.0571053
0.0603017
0.0632583
0.0670859
0.068375
0.0681775
0.0680232
0.0650359
0.0570547
0.0535928
0.0507707
0.050214
0.0505798
0.0511267
0.050831
0.0495508
0.0465116
0.0386177
0.0296436
0.0253959
0.0227511
0.0200717
0.0168396
0.0154907
0.0158932
0.0167474
0.0176086
0.0171628
0.0169637
0.0183953
0.0260018
0.0553863
0.111545
0.132858
0.128798
0.0913441
0.0526897
0.0368912
0.0325398
0.0294556
0.0266501
0.0229806
0.0196181
0.0183024
0.0198901
0.0265365
0.0284444
0.0275821
0.0246312
0.0238855
0.0243179
0.026593
0.0327011
0.0385733
0.0450506
0.0544733
0.0878159
0.122698
0.128263
0.111654
0.0721998
0.0588783
0.0595531
0.0638437
0.0634521
0.0606093
0.0530547
0.0378209
0.0340784
0.0271804
0.0265296
0.0220868
0.0215911
0.0204535
0.0243107
0.0264524
0.0362743
0.0377436
0.0415157
0.0402905
0.0429234
0.0430958
0.0478666
0.052206
0.0542251
0.0574944
0.0601181
0.0565414
0.062939
0.0746194
0.070414
0.0628949
0.07965
0.101811
0.140785
0.101024
0.141431
0.332641
2.02215
1.62329
1.41687
1.17133
1.03702
0.930516
0.791259
0.634772
0.556176
0.531125
0.524748
0.508339
0.483255
0.425026
0.273798
0.11632
0.0480449
0.0199593
0.00934872
0.00496027
0.00338389
0.00353128
0.00426388
0.0045105
0.00431706
0.00453572
0.0052417
0.00759504
0.016703
0.0418808
0.195809
0.331215
0.372262
0.404804
0.423959
0.354767
0.179428
0.106322
0.0677491
0.0564405
0.0611834
0.0653032
0.0768797
0.0995581
0.101809
0.102526
0.10508
0.110638
0.122511
0.123483
0.111575
0.0699982
0.0398697
0.0208535
0.0100109
0.00783335
0.0126581
0.0517789
0.0921885
0.0991856
0.0984651
0.0989995
0.0965038
0.0856226
0.0778321
0.0711017
0.0595579
0.0493967
0.0409513
0.0349843
0.0314122
0.0280255
0.0254804
0.0243725
0.0241196
0.02324
0.0220169
0.0218302
0.0219803
0.0235968
0.0291097
0.0313009
0.0322437
0.0404093
0.0536337
0.0590783
0.0592917
0.0557775
0.0497914
0.041123
0.033246
0.0272232
0.0233126
0.022654
0.0252408
0.0443059
0.0598632
0.0615598
0.0600278
0.0584156
0.0578546
0.0577839
0.0583714
0.0607692
0.0634882
0.0660934
0.0663782
0.0651644
0.0644159
0.0612177
0.054846
0.0523469
0.0520139
0.0532187
0.0532461
0.052709
0.051371
0.0476384
0.0391201
0.0295234
0.0254038
0.0228471
0.0192611
0.0156212
0.0141742
0.0144557
0.0157709
0.0173575
0.0178596
0.0173283
0.0174159
0.02017
0.0315043
0.0733927
0.126881
0.141511
0.131073
0.0823101
0.0488305
0.0366593
0.0348117
0.0317102
0.0289403
0.0243151
0.0201664
0.0184898
0.0192564
0.0255809
0.0282749
0.0278701
0.0248023
0.0235135
0.0236983
0.0249186
0.0290875
0.0353878
0.0423497
0.0515019
0.0823188
0.121102
0.129065
0.117956
0.0766265
0.0592904
0.0581398
0.0619784
0.0637082
0.0626641
0.0583312
0.0471108
0.0441593
0.0357728
0.034518
0.0268374
0.0273888
0.0258197
0.0304319
0.0320905
0.0396271
0.0403111
0.0427746
0.0411911
0.0425963
0.0438907
0.0497477
0.0533577
0.0584856
0.0573861
0.0665686
0.063817
0.0689028
0.0770831
0.083597
0.0680428
0.0863711
0.095685
0.165525
0.122252
0.171492
0.269561
1.62884
1.36381
1.28028
1.16106
0.959954
0.854904
0.821059
0.759915
0.720407
0.644754
0.580809
0.522276
0.446515
0.278633
0.126234
0.0546982
0.0228953
0.00964026
0.00507091
0.00309858
0.00252279
0.00295934
0.00410224
0.00457789
0.00459244
0.00465991
0.00505129
0.00630108
0.0140562
0.0408702
0.166689
0.321182
0.368167
0.399072
0.40512
0.333912
0.175632
0.106069
0.0689467
0.0599614
0.064316
0.06741
0.0820471
0.102617
0.104331
0.106985
0.112602
0.124095
0.130513
0.126592
0.10003
0.0550771
0.0276464
0.0124849
0.00666503
0.00657604
0.0138445
0.061249
0.0983403
0.102551
0.103776
0.106043
0.102582
0.0868573
0.0770852
0.067851
0.0572444
0.0474772
0.0396444
0.034188
0.0308828
0.0272577
0.024934
0.0242607
0.0241403
0.0233729
0.0221863
0.0220029
0.0220703
0.024049
0.0289408
0.0304318
0.0313931
0.0409585
0.0537785
0.0588288
0.0588269
0.0549511
0.0488529
0.0401927
0.0321838
0.0261563
0.0222283
0.0213528
0.0229033
0.0367145
0.0574956
0.0620673
0.0611523
0.0598737
0.0600502
0.0605596
0.0616971
0.0626612
0.0639853
0.0651213
0.0645462
0.0637498
0.0631291
0.0597642
0.0560999
0.0551153
0.0553066
0.055486
0.0547333
0.0527235
0.0483644
0.0371026
0.0293162
0.0249146
0.022799
0.0186213
0.0147638
0.0135258
0.0135628
0.0143571
0.0172188
0.0186045
0.0186686
0.0180998
0.0186132
0.0234098
0.0398431
0.0940142
0.14213
0.149858
0.128913
0.0737529
0.0462975
0.0386059
0.037408
0.0345696
0.0317307
0.0255745
0.0207879
0.0188488
0.0190498
0.0239223
0.027363
0.0274753
0.024967
0.0231771
0.0231927
0.0238576
0.0263975
0.0322221
0.040005
0.0489387
0.0771235
0.118467
0.129563
0.122719
0.0856886
0.0609585
0.0576751
0.0608433
0.063157
0.0672998
0.0650834
0.0560058
0.0538084
0.0451197
0.0445269
0.0380211
0.0395238
0.0364008
0.0397244
0.0395963
0.0430766
0.0426494
0.0439208
0.0422407
0.0422953
0.0452431
0.0505432
0.0548428
0.0599552
0.0586905
0.0689845
0.069284
0.0790238
0.0789725
0.109449
0.0854159
0.109523
0.101898
0.206203
0.146236
0.21146
0.248629
1.2116
1.03638
0.960423
0.931307
0.818155
0.690974
0.648854
0.636477
0.616184
0.575858
0.490749
0.407813
0.250632
0.123895
0.0568546
0.0254106
0.0106111
0.00487316
0.00313239
0.00229377
0.00207435
0.00257506
0.00387629
0.00455895
0.00502491
0.00495743
0.00507798
0.00581631
0.0125082
0.0395551
0.152573
0.312542
0.35922
0.376463
0.380366
0.310424
0.173279
0.106024
0.0709195
0.0661586
0.0689328
0.0700048
0.0896617
0.10434
0.108332
0.11571
0.126313
0.136942
0.137624
0.127333
0.0824215
0.039639
0.0172907
0.00819789
0.00525719
0.00591164
0.0163918
0.0710911
0.103595
0.106027
0.110599
0.113748
0.10578
0.0866163
0.0737943
0.0659055
0.055691
0.045838
0.0381023
0.033023
0.0301787
0.0264737
0.0243563
0.0240459
0.0240454
0.023396
0.0222818
0.0220399
0.0221687
0.0249414
0.028975
0.0297879
0.031042
0.0418924
0.0539632
0.0583987
0.0582546
0.0544029
0.0479048
0.0390899
0.031103
0.0251272
0.0212128
0.0201721
0.0210647
0.0289612
0.0525544
0.061396
0.0625735
0.0619497
0.0620011
0.0626674
0.0637996
0.064836
0.0659605
0.0660914
0.0650839
0.0644813
0.0635514
0.0610719
0.0590965
0.0567559
0.0560666
0.0548248
0.0513847
0.0456856
0.0337444
0.0274685
0.0245026
0.0224249
0.018006
0.014682
0.0133583
0.0131887
0.0135424
0.0161907
0.0197956
0.0203126
0.020027
0.0196252
0.0208866
0.0288229
0.0527016
0.116297
0.156826
0.15866
0.121104
0.0671315
0.0452834
0.0414072
0.0403521
0.0374764
0.0334524
0.0260396
0.0214654
0.0192721
0.0191063
0.0223526
0.0259029
0.0266441
0.0249796
0.0228553
0.0227097
0.0230008
0.0245439
0.0290086
0.037408
0.0462487
0.0716624
0.115227
0.130146
0.126691
0.0941295
0.0652269
0.058041
0.0610042
0.0626561
0.0704783
0.0713812
0.0637992
0.0623929
0.0547563
0.0541096
0.0474246
0.048489
0.0453674
0.0474552
0.0462205
0.0481776
0.0470306
0.0463096
0.0438102
0.0441649
0.0498179
0.0549667
0.0571683
0.061916
0.0595141
0.0655027
0.069028
0.0832458
0.0827683
0.138218
0.113795
0.175616
0.12841
0.23464
0.182078
0.214537
0.244165
0.847304
0.740095
0.680735
0.654303
0.585882
0.493022
0.446665
0.435784
0.416176
0.369003
0.309021
0.205448
0.111148
0.0531996
0.0250528
0.0115595
0.00491891
0.00280402
0.00227654
0.00185353
0.00176393
0.00234611
0.00335731
0.00416344
0.005206
0.00514421
0.00513534
0.00557234
0.0115162
0.038987
0.137556
0.312482
0.346187
0.352862
0.351419
0.287822
0.175681
0.11056
0.0765348
0.0709786
0.0717829
0.0746347
0.097134
0.107137
0.117531
0.130372
0.142203
0.145313
0.140802
0.116479
0.0617427
0.026588
0.0119464
0.0060431
0.00458528
0.00575003
0.0201772
0.0811682
0.108056
0.110973
0.119068
0.12196
0.107542
0.0850254
0.0707723
0.064526
0.0535599
0.0444324
0.0366656
0.0318286
0.0294787
0.025749
0.0239386
0.0238181
0.0238317
0.0231768
0.0221977
0.0220064
0.0223114
0.0257903
0.0286829
0.0289178
0.0309209
0.0433433
0.0542227
0.0582107
0.0578438
0.0535457
0.0469795
0.0381332
0.0301095
0.0241601
0.020286
0.0191033
0.0196251
0.0242606
0.0428798
0.0587741
0.0624922
0.0627815
0.0631446
0.0638796
0.0644633
0.0653886
0.0663411
0.0662904
0.0655048
0.0647971
0.0631317
0.0610553
0.0593823
0.0552071
0.0525574
0.047126
0.0380032
0.030359
0.0252857
0.0234007
0.0217635
0.0175793
0.014898
0.0135159
0.0131279
0.0133304
0.0148463
0.0200052
0.0214944
0.0213407
0.0211178
0.0213909
0.0244631
0.0374325
0.0714258
0.138092
0.16991
0.163461
0.108852
0.0598146
0.0446552
0.0435583
0.0424466
0.038864
0.0335764
0.0258894
0.021745
0.0194014
0.0192235
0.0216873
0.0248591
0.0256995
0.0247561
0.0227078
0.0224068
0.0224803
0.0233278
0.0263833
0.0347572
0.04381
0.0664837
0.1111
0.129973
0.12947
0.101922
0.0703986
0.0591358
0.0620371
0.0630086
0.0687486
0.0826133
0.0751952
0.0728934
0.0647369
0.0649125
0.0581809
0.057432
0.0527019
0.0531544
0.0511909
0.0515433
0.0493792
0.047056
0.046355
0.0488695
0.0544809
0.058411
0.0633884
0.0622648
0.0613052
0.0601054
0.0641701
0.0755154
0.0807667
0.122248
0.123845
0.201054
0.177654
0.239901
0.21132
0.206308
0.230077
0.509861
0.438879
0.42756
0.414618
0.365277
0.278684
0.228183
0.215921
0.196114
0.171454
0.129028
0.0776445
0.0412923
0.0208712
0.0105847
0.0051572
0.00251315
0.00195482
0.00187953
0.00154629
0.00147891
0.00207714
0.0026502
0.00343017
0.00506507
0.00513532
0.00512824
0.00552166
0.0103956
0.0380136
0.13463
0.313913
0.339835
0.333601
0.326208
0.276343
0.180428
0.115948
0.0828889
0.0759146
0.0752308
0.0825516
0.102062
0.11537
0.134949
0.150334
0.152829
0.149311
0.137961
0.0923473
0.0422494
0.017513
0.00843792
0.0049459
0.00429956
0.00613299
0.0258691
0.0911133
0.111939
0.115935
0.129453
0.130979
0.108152
0.081498
0.0694738
0.0624943
0.0516878
0.0426438
0.0349526
0.030988
0.0287658
0.0250363
0.0237127
0.0237205
0.0235861
0.0226833
0.0217206
0.0216757
0.0223739
0.0262599
0.0279935
0.0280262
0.0316637
0.04501
0.0544755
0.0577563
0.0571807
0.0527269
0.0461734
0.0372045
0.029237
0.0234037
0.0195065
0.0181823
0.0184791
0.0214448
0.0350881
0.0503797
0.0594977
0.0617014
0.0622232
0.0631477
0.0633744
0.0638588
0.064799
0.0644096
0.0637093
0.0628089
0.0597927
0.0576831
0.0542405
0.0465561
0.0406572
0.0331082
0.0275834
0.0237852
0.0220596
0.0207474
0.0172581
0.0149986
0.0139782
0.0133625
0.0135268
0.0147039
0.0193806
0.0222859
0.0219378
0.0214128
0.0217375
0.0233304
0.0303718
0.0507658
0.0929801
0.159747
0.182125
0.166022
0.0932729
0.0540096
0.0446825
0.0442423
0.0429476
0.039007
0.03307
0.0258149
0.0219068
0.0192987
0.0191904
0.0215282
0.0245154
0.025206
0.0243715
0.0223366
0.0220188
0.0220514
0.022559
0.0247012
0.0320094
0.0413191
0.0618785
0.106825
0.129387
0.13124
0.109846
0.0769864
0.0614652
0.0648364
0.0649483
0.0671997
0.0821638
0.0816733
0.0802454
0.0733079
0.0745269
0.0682904
0.0661514
0.0585647
0.0577556
0.0550842
0.0539919
0.0509469
0.0516452
0.0524659
0.0595618
0.0596434
0.0644311
0.0634767
0.0565644
0.0621063
0.0589648
0.0603342
0.0565232
0.0610849
0.0739406
0.0917781
0.143049
0.164885
0.173849
0.227069
0.211025
0.22447
0.224312
0.17674
0.170988
0.16945
0.153588
0.107744
0.0778026
0.0689415
0.0591004
0.0504617
0.0355628
0.0216777
0.0132111
0.00814228
0.00443043
0.0023783
0.00158246
0.00163192
0.00163722
0.00131167
0.00118963
0.00175532
0.00216767
0.00258598
0.00460919
0.00498915
0.00508505
0.00567756
0.0100841
0.0349507
0.137087
0.30493
0.334656
0.324795
0.319985
0.26831
0.179539
0.122481
0.0934429
0.0819528
0.0803224
0.0930784
0.107292
0.133682
0.159657
0.161584
0.157701
0.149263
0.121938
0.0634445
0.0269105
0.0118325
0.00660654
0.00441937
0.00420463
0.00672449
0.0331209
0.0998162
0.115348
0.120728
0.140173
0.139736
0.106391
0.0798098
0.0681026
0.0601411
0.0501576
0.0415719
0.0344158
0.030967
0.0281009
0.0242223
0.023484
0.0236603
0.0232879
0.0220336
0.0212402
0.0212739
0.0226953
0.0263297
0.0271497
0.0274722
0.0339372
0.0465983
0.0546899
0.0575474
0.0568709
0.0519144
0.0449582
0.036193
0.0285363
0.022772
0.0188363
0.0173911
0.0175295
0.019545
0.0298386
0.0421959
0.0501638
0.0538436
0.0540406
0.0545892
0.0541491
0.0538461
0.0540921
0.0533324
0.0526115
0.0513127
0.0471385
0.0449429
0.0407838
0.0352456
0.0309561
0.0258886
0.0225483
0.0210651
0.0189436
0.015933
0.014546
0.0142492
0.0138831
0.0140863
0.0150731
0.0188137
0.0228122
0.0229036
0.0218471
0.0215697
0.0226784
0.0266286
0.0417554
0.0688415
0.114778
0.179443
0.19289
0.159875
0.0794673
0.0496995
0.0438873
0.0441191
0.0428164
0.039058
0.0330235
0.0264916
0.0222776
0.0191728
0.0189486
0.0214282
0.024496
0.0250979
0.0241471
0.021964
0.0215205
0.0215314
0.021859
0.0234331
0.0296631
0.0389694
0.0572221
0.103306
0.128582
0.132864
0.116798
0.0861607
0.065902
0.0692459
0.0738779
0.0686596
0.0737577
0.0815667
0.0833953
0.0788323
0.0790545
0.0745313
0.070531
0.0628684
0.0613596
0.058316
0.0571035
0.0590539
0.0583052
0.069002
0.0633508
0.0662704
0.0658431
0.0614496
0.0552776
0.0595798
0.0546564
0.0545145
0.0524904
0.0550329
0.0791029
0.0793887
0.187919
0.170427
0.167282
0.207807
0.204824
0.21843
0.0679757
0.0510263
0.0484861
0.0472608
0.0416156
0.0294354
0.0201631
0.0167187
0.0138669
0.0119088
0.00800207
0.00552379
0.00473484
0.00333228
0.00185637
0.0012342
0.00122154
0.00138622
0.0013174
0.00088123
0.000924551
0.00160964
0.00190462
0.00218236
0.00385466
0.0046302
0.00501831
0.00622677
0.0105123
0.0284929
0.135818
0.285639
0.326011
0.322184
0.317184
0.248327
0.178253
0.137273
0.102517
0.0869825
0.0882798
0.101213
0.123256
0.16362
0.173821
0.167677
0.158518
0.139864
0.0885056
0.0410988
0.0176879
0.00881476
0.00559117
0.00416205
0.0041689
0.00766191
0.0427414
0.107191
0.119342
0.12603
0.150324
0.147246
0.104705
0.0788372
0.066033
0.0575708
0.0492458
0.0405537
0.0340702
0.0311081
0.0274943
0.0237862
0.0233895
0.0235171
0.0226981
0.021275
0.0208265
0.0211017
0.0233048
0.026065
0.0264781
0.0278171
0.0371442
0.0481596
0.0549785
0.0572462
0.0563108
0.0512234
0.0441712
0.0349476
0.0277592
0.0223078
0.0183288
0.0167425
0.0167758
0.0181969
0.0258558
0.0360977
0.0423458
0.0448592
0.0446939
0.0443841
0.0434545
0.0428681
0.0427823
0.0421598
0.0408449
0.0390808
0.0354514
0.0337957
0.0307621
0.0273442
0.0243526
0.020845
0.0192338
0.0165574
0.0141691
0.0134342
0.0137746
0.014434
0.0150387
0.015998
0.0187948
0.0234362
0.0238176
0.0227997
0.0215372
0.0222863
0.0259461
0.0340443
0.059029
0.088512
0.136695
0.197242
0.200759
0.144684
0.0674203
0.0453178
0.0425134
0.0435213
0.0426609
0.0397118
0.0340838
0.0287132
0.0231283
0.0193386
0.0188303
0.0212324
0.0245962
0.0248757
0.0234942
0.0213997
0.0210244
0.0210892
0.0213775
0.0226099
0.0276183
0.0367747
0.0531208
0.098038
0.126878
0.133723
0.123491
0.0972302
0.0731069
0.07181
0.0830874
0.073951
0.068208
0.0742214
0.0840151
0.0794929
0.0802213
0.0755209
0.073413
0.0651718
0.0659924
0.0618469
0.0632733
0.0607009
0.0596982
0.0631909
0.0575863
0.0640453
0.0541879
0.0540463
0.0497052
0.0534828
0.0477794
0.0487153
0.0452922
0.0527399
0.0545323
0.0731107
0.092271
0.155589
0.190039
0.195493
0.193732
0.211202
0.0124911
0.00968008
0.0091096
0.00876378
0.00809844
0.00598241
0.00393822
0.00317338
0.00254198
0.00197809
0.00173198
0.00187098
0.00189278
0.0013584
0.000861351
0.000805267
0.000946766
0.000986717
0.00075208
0.000609503
0.000818444
0.00157069
0.00177578
0.00202975
0.00307911
0.00381772
0.00485805
0.00720355
0.0115212
0.0250482
0.115142
0.276483
0.315935
0.317868
0.299306
0.226783
0.182569
0.149154
0.109652
0.0976366
0.100992
0.110882
0.153015
0.185505
0.183846
0.167764
0.148289
0.107597
0.0557665
0.0256199
0.0120586
0.00703553
0.00500422
0.00404152
0.00426919
0.00887537
0.0522247
0.114223
0.123697
0.132861
0.161052
0.154036
0.103917
0.0772879
0.0635895
0.0552794
0.0482215
0.0396048
0.0339592
0.0313054
0.0272512
0.0237379
0.0233777
0.0232257
0.0221726
0.0209381
0.0207362
0.0212791
0.0239803
0.0257965
0.026382
0.0304767
0.0405516
0.0496704
0.0552045
0.0571158
0.0560737
0.0508194
0.0435763
0.0337561
0.0267834
0.0218113
0.0179047
0.0161725
0.0160916
0.0171064
0.0229537
0.0315504
0.0364934
0.0382816
0.0381365
0.0376982
0.0371769
0.036763
0.0367061
0.0358173
0.0337679
0.0311972
0.0275674
0.0259607
0.0237092
0.0211423
0.0194439
0.016821
0.0145636
0.0129395
0.0125069
0.0127919
0.0145541
0.0164854
0.0174723
0.0193156
0.0244779
0.0255257
0.0240713
0.0217693
0.0217885
0.0248773
0.0344307
0.0481249
0.0789904
0.106026
0.155123
0.210507
0.205369
0.126089
0.0572404
0.0418058
0.0408263
0.0426633
0.0427765
0.0413358
0.0365091
0.0319437
0.0245468
0.0199064
0.0189716
0.0207835
0.0245135
0.0247784
0.0229969
0.0207549
0.0204023
0.0206376
0.020988
0.0221195
0.0260554
0.034955
0.0498272
0.0928791
0.124433
0.134351
0.128446
0.110378
0.0894767
0.0744562
0.0824103
0.0784186
0.0686227
0.0681439
0.0751632
0.0756424
0.0752687
0.0725133
0.0718751
0.0649438
0.0644108
0.0611902
0.0609952
0.0588906
0.0587851
0.057813
0.055252
0.0543977
0.0484946
0.0488039
0.0449219
0.0452897
0.0432032
0.0436717
0.0406811
0.0516221
0.0506488
0.0613631
0.0755287
0.116929
0.153265
0.197975
0.190854
0.204372
0.00186492
0.0016548
0.00149928
0.00148055
0.00136374
0.00108146
0.000745362
0.000600473
0.000575422
0.000622329
0.000865694
0.00107708
0.000930994
0.000578066
0.000567264
0.000604549
0.000677413
0.00061462
0.00047238
0.000503942
0.000983856
0.00157556
0.00168777
0.00197198
0.00257064
0.00277808
0.00407565
0.00760889
0.0121966
0.0243378
0.0969668
0.255015
0.296318
0.297738
0.266983
0.214163
0.188226
0.15309
0.116325
0.107951
0.108424
0.128019
0.185288
0.198839
0.185287
0.152874
0.115265
0.0676812
0.0341039
0.0168329
0.00920387
0.00618432
0.00464019
0.00396859
0.00445979
0.010619
0.0623779
0.120886
0.127503
0.139368
0.172003
0.161218
0.103749
0.0752348
0.0614476
0.0534626
0.0473511
0.0387096
0.0339539
0.0314839
0.0272637
0.0241221
0.0234668
0.0231759
0.0220601
0.0212621
0.021122
0.0220956
0.0243557
0.0256873
0.027748
0.0345822
0.0434421
0.0508834
0.0554596
0.0569077
0.0556685
0.0503377
0.0433005
0.0330922
0.0256014
0.0210112
0.0175133
0.0156289
0.0154306
0.0162268
0.0207269
0.0281391
0.0324753
0.0341886
0.0341634
0.0339022
0.0334433
0.0330066
0.0326973
0.031452
0.0295897
0.025918
0.0226908
0.0204664
0.0184673
0.017227
0.0155494
0.0133754
0.0122117
0.01196
0.0121817
0.0139702
0.0180053
0.0195695
0.0206784
0.0243832
0.0270968
0.0262684
0.0222917
0.0215219
0.0231663
0.0324737
0.0502178
0.0655734
0.0888257
0.115302
0.168662