/*--------------------------------*- C++ -*----------------------------------*\
| =========                 |                                                 |
| \\      /  F ield         | OpenFOAM: The Open Source CFD Toolbox           |
|  \\    /   O peration     | Version:  2.4.0                                 |
|   \\  /    A nd           | Web:      www.OpenFOAM.org                      |
|    \\/     M anipulation  |                                                 |
\*---------------------------------------------------------------------------*/
FoamFile
{
    version     2.0;
    format      ascii;
    class       surfaceScalarField;
    location    "0.039388";
    object      phi;
}
// * * * * * * * * * * * * * * * * * * * * * * * * * * * * * * * * * * * * * //

dimensions      [0 3 -1 0 0 0 0];

internalField   nonuniform List<scalar> 
34880
(
1.21389e-05
3.6105e-07
1.17097e-05
4.29223e-07
1.13223e-05
3.8742e-07
1.09672e-05
3.55101e-07
1.06482e-05
3.19047e-07
1.03725e-05
2.75642e-07
1.01396e-05
2.32868e-07
9.94499e-06
1.94657e-07
9.78289e-06
1.62102e-07
9.64759e-06
1.353e-07
9.53353e-06
1.14055e-07
9.43549e-06
9.80394e-08
9.34846e-06
8.70367e-08
9.26726e-06
8.1202e-08
9.18565e-06
8.16033e-08
9.09453e-06
9.11209e-08
8.97644e-06
1.18096e-07
8.79368e-06
1.8276e-07
8.43028e-06
3.634e-07
9.50569e-07
7.47971e-06
1.26406e-05
2.2048e-07
1.27043e-05
3.65461e-07
1.2722e-05
3.69783e-07
1.2694e-05
3.83051e-07
1.263e-05
3.83056e-07
1.25382e-05
3.6749e-07
1.24264e-05
3.4464e-07
1.23016e-05
3.19488e-07
1.21694e-05
2.94296e-07
1.20343e-05
2.70324e-07
1.18999e-05
2.48485e-07
1.17685e-05
2.29474e-07
1.16414e-05
2.14074e-07
1.15191e-05
2.03517e-07
1.14004e-05
2.00323e-07
1.12822e-05
2.09322e-07
1.11574e-05
2.42876e-07
1.10104e-05
3.29809e-07
1.08191e-05
5.54722e-07
1.39556e-06
1.03741e-05
1.25405e-05
1.80003e-07
1.25884e-05
3.17572e-07
1.26279e-05
3.30202e-07
1.26609e-05
3.50137e-07
1.26832e-05
3.60686e-07
1.26941e-05
3.56648e-07
1.26938e-05
3.44886e-07
1.2683e-05
3.30329e-07
1.26622e-05
3.15079e-07
1.26322e-05
3.00285e-07
1.25938e-05
2.86885e-07
1.25476e-05
2.757e-07
1.24939e-05
2.67742e-07
1.24328e-05
2.64675e-07
1.23632e-05
2.69947e-07
1.22824e-05
2.90112e-07
1.21834e-05
3.41849e-07
1.20507e-05
4.62549e-07
1.18469e-05
7.58517e-07
1.72668e-06
1.15157e-05
1.25234e-05
1.56646e-07
1.25543e-05
2.86583e-07
1.25822e-05
3.02387e-07
1.26113e-05
3.20991e-07
1.26383e-05
3.3367e-07
1.26619e-05
3.33086e-07
1.26816e-05
3.25123e-07
1.26973e-05
3.1469e-07
1.27086e-05
3.03726e-07
1.27157e-05
2.93254e-07
1.27183e-05
2.8422e-07
1.27165e-05
2.77563e-07
1.27097e-05
2.74533e-07
1.26971e-05
2.77216e-07
1.26772e-05
2.89913e-07
1.26466e-05
3.20661e-07
1.25986e-05
3.89869e-07
1.25199e-05
5.413e-07
1.2378e-05
9.00325e-07
1.95942e-06
1.21453e-05
1.25187e-05
1.37958e-07
1.25435e-05
2.61762e-07
1.25662e-05
2.79699e-07
1.25911e-05
2.96137e-07
1.26159e-05
3.08857e-07
1.26395e-05
3.09438e-07
1.26616e-05
3.0306e-07
1.26817e-05
2.9457e-07
1.26997e-05
2.85758e-07
1.27154e-05
2.77545e-07
1.27287e-05
2.70884e-07
1.27395e-05
2.66807e-07
1.27472e-05
2.66768e-07
1.27512e-05
2.73229e-07
1.27499e-05
2.9124e-07
1.27404e-05
3.30136e-07
1.2717e-05
4.1324e-07
1.26692e-05
5.89176e-07
1.25774e-05
9.92091e-07
2.10058e-06
1.24362e-05
1.25162e-05
1.21795e-07
1.25385e-05
2.39402e-07
1.25592e-05
2.59028e-07
1.25816e-05
2.73684e-07
1.26046e-05
2.85895e-07
1.26271e-05
2.86909e-07
1.26489e-05
2.81339e-07
1.26695e-05
2.73959e-07
1.26888e-05
2.66445e-07
1.27067e-05
2.59645e-07
1.2723e-05
2.54525e-07
1.27376e-05
2.52206e-07
1.27501e-05
2.54328e-07
1.27596e-05
2.63704e-07
1.27648e-05
2.86052e-07
1.2763e-05
3.31902e-07
1.27494e-05
4.26894e-07
1.2715e-05
6.2354e-07
1.26485e-05
1.05859e-06
2.18863e-06
1.25605e-05
1.25142e-05
1.07551e-07
1.25354e-05
2.18293e-07
1.25552e-05
2.392e-07
1.25764e-05
2.52477e-07
1.25982e-05
2.64055e-07
1.26198e-05
2.65299e-07
1.26409e-05
2.6027e-07
1.26612e-05
2.53658e-07
1.26806e-05
2.4706e-07
1.2699e-05
2.41273e-07
1.27162e-05
2.37287e-07
1.27321e-05
2.3631e-07
1.27463e-05
2.40161e-07
1.2758e-05
2.51982e-07
1.27659e-05
2.78104e-07
1.27677e-05
3.30154e-07
1.2759e-05
4.35627e-07
1.27324e-05
6.50082e-07
1.26816e-05
1.10943e-06
2.24364e-06
1.26266e-05
1.25127e-05
9.48554e-08
1.25329e-05
1.98099e-07
1.25523e-05
2.19796e-07
1.25728e-05
2.31927e-07
1.25941e-05
2.42832e-07
1.26151e-05
2.44261e-07
1.26357e-05
2.3971e-07
1.26556e-05
2.33742e-07
1.26747e-05
2.27896e-07
1.26931e-05
2.22931e-07
1.27105e-05
2.19868e-07
1.27268e-05
2.20003e-07
1.27417e-05
2.25321e-07
1.27544e-05
2.3928e-07
1.27637e-05
2.68765e-07
1.27675e-05
3.26395e-07
1.2762e-05
4.41108e-07
1.27413e-05
6.70713e-07
1.27028e-05
1.14792e-06
2.27389e-06
1.26726e-05
1.25114e-05
8.34377e-08
1.25308e-05
1.78718e-07
1.25499e-05
2.00665e-07
1.25701e-05
2.11763e-07
1.2591e-05
2.21952e-07
1.26117e-05
2.23544e-07
1.26319e-05
2.1947e-07
1.26516e-05
2.14114e-07
1.26705e-05
2.08956e-07
1.26887e-05
2.04731e-07
1.27061e-05
2.02484e-07
1.27225e-05
2.03596e-07
1.27376e-05
2.10215e-07
1.27508e-05
2.26089e-07
1.2761e-05
2.58596e-07
1.27661e-05
3.21239e-07
1.27632e-05
4.4402e-07
1.27477e-05
6.86252e-07
1.27199e-05
1.1757e-06
2.28389e-06
1.27099e-05
1.25103e-05
7.30896e-08
1.2529e-05
1.60084e-07
1.25479e-05
1.8175e-07
1.25678e-05
1.91867e-07
1.25885e-05
2.01287e-07
1.2609e-05
2.03002e-07
1.26291e-05
1.9941e-07
1.26485e-05
1.94661e-07
1.26673e-05
1.90173e-07
1.26854e-05
1.86652e-07
1.27027e-05
1.8517e-07
1.27191e-05
1.87182e-07
1.27343e-05
1.94985e-07
1.27478e-05
2.12595e-07
1.27586e-05
2.47825e-07
1.27649e-05
3.1494e-07
1.27643e-05
4.44661e-07
1.27534e-05
6.97119e-07
1.27352e-05
1.19389e-06
2.27682e-06
1.27423e-05
1.25095e-05
6.3639e-08
1.25274e-05
1.42134e-07
1.25461e-05
1.63022e-07
1.25658e-05
1.7218e-07
1.25863e-05
1.80781e-07
1.26068e-05
1.82564e-07
1.26267e-05
1.79451e-07
1.26461e-05
1.75306e-07
1.26648e-05
1.71477e-07
1.26828e-05
1.68647e-07
1.27e-05
1.679e-07
1.27165e-05
1.70761e-07
1.27318e-05
1.79659e-07
1.27455e-05
1.98854e-07
1.27568e-05
2.36526e-07
1.27642e-05
3.07585e-07
1.27657e-05
4.43156e-07
1.27592e-05
7.03567e-07
1.27498e-05
1.20335e-06
2.25521e-06
1.27714e-05
1.25087e-05
5.49394e-08
1.2526e-05
1.248e-07
1.25446e-05
1.44465e-07
1.25641e-05
1.52668e-07
1.25845e-05
1.60406e-07
1.26048e-05
1.62198e-07
1.26247e-05
1.5955e-07
1.2644e-05
1.56001e-07
1.26627e-05
1.52822e-07
1.26807e-05
1.50672e-07
1.26979e-05
1.50641e-07
1.27144e-05
1.5431e-07
1.27298e-05
1.64226e-07
1.27438e-05
1.84862e-07
1.27556e-05
2.24706e-07
1.2764e-05
2.99188e-07
1.27676e-05
4.39554e-07
1.27654e-05
7.05777e-07
1.2764e-05
1.20482e-06
2.22115e-06
1.2798e-05
1.25081e-05
4.68642e-08
1.25249e-05
1.08014e-07
1.25433e-05
1.26062e-07
1.25626e-05
1.33305e-07
1.25829e-05
1.40146e-07
1.26032e-05
1.41888e-07
1.26231e-05
1.39686e-07
1.26423e-05
1.36724e-07
1.2661e-05
1.34182e-07
1.2679e-05
1.32698e-07
1.26962e-05
1.33363e-07
1.27127e-05
1.37801e-07
1.27283e-05
1.48661e-07
1.27426e-05
1.70598e-07
1.27549e-05
2.12348e-07
1.27644e-05
2.89733e-07
1.27701e-05
4.33876e-07
1.27719e-05
7.03904e-07
1.27778e-05
1.19895e-06
2.17642e-06
1.28225e-05
1.25076e-05
3.93038e-08
1.25239e-05
9.17076e-08
1.25421e-05
1.07799e-07
1.25614e-05
1.14068e-07
1.25815e-05
1.19986e-07
1.26018e-05
1.21623e-07
1.26216e-05
1.1985e-07
1.26409e-05
1.17462e-07
1.26595e-05
1.15542e-07
1.26775e-05
1.1471e-07
1.26948e-05
1.16048e-07
1.27114e-05
1.21215e-07
1.27271e-05
1.32943e-07
1.27417e-05
1.5604e-07
1.27546e-05
1.99425e-07
1.27652e-05
2.79199e-07
1.27729e-05
4.26137e-07
1.27787e-05
6.98103e-07
1.27913e-05
1.18634e-06
2.12256e-06
1.28452e-05
1.25071e-05
3.2162e-08
1.2523e-05
7.58103e-08
1.25412e-05
8.9657e-08
1.25603e-05
9.49347e-08
1.25804e-05
9.99123e-08
1.26006e-05
1.01397e-07
1.26204e-05
1.00033e-07
1.26397e-05
9.8208e-08
1.26583e-05
9.68956e-08
1.26763e-05
9.66978e-08
1.26937e-05
9.86851e-08
1.27104e-05
1.04538e-07
1.27263e-05
1.17055e-07
1.27411e-05
1.41166e-07
1.27547e-05
1.85918e-07
1.27663e-05
2.67569e-07
1.27761e-05
4.1636e-07
1.27856e-05
6.88534e-07
1.28044e-05
1.16755e-06
2.06091e-06
1.28661e-05
1.25068e-05
2.53537e-08
1.25224e-05
6.0253e-08
1.25404e-05
7.16186e-08
1.25595e-05
7.58864e-08
1.25795e-05
7.99109e-08
1.25996e-05
8.12023e-08
1.26195e-05
8.02302e-08
1.26387e-05
7.89581e-08
1.26574e-05
7.82383e-08
1.26754e-05
7.86576e-08
1.26928e-05
8.12679e-08
1.27096e-05
8.77608e-08
1.27257e-05
1.00987e-07
1.27409e-05
1.25965e-07
1.2755e-05
1.71812e-07
1.27677e-05
2.54835e-07
1.27795e-05
4.04578e-07
1.27926e-05
6.75369e-07
1.28171e-05
1.1431e-06
1.99264e-06
1.28854e-05
1.25066e-05
1.88025e-08
1.25218e-05
4.49665e-08
1.25398e-05
5.36643e-08
1.25588e-05
5.69044e-08
1.25787e-05
5.99673e-08
1.25989e-05
6.10325e-08
1.26187e-05
6.04378e-08
1.26379e-05
5.97086e-08
1.26566e-05
5.95675e-08
1.26747e-05
6.05862e-08
1.26921e-05
6.37929e-08
1.2709e-05
7.08798e-08
1.27253e-05
8.4731e-08
1.27408e-05
1.10426e-07
1.27555e-05
1.57097e-07
1.27694e-05
2.40999e-07
1.27831e-05
3.90837e-07
1.27997e-05
6.5879e-07
1.28293e-05
1.11348e-06
1.91877e-06
1.29032e-05
1.25064e-05
1.24386e-08
1.25214e-05
2.98825e-08
1.25393e-05
3.57737e-08
1.25583e-05
3.79713e-08
1.25782e-05
4.00667e-08
1.25983e-05
4.08805e-08
1.26181e-05
4.06513e-08
1.26374e-05
4.04566e-08
1.2656e-05
4.08814e-08
1.26742e-05
4.24823e-08
1.26917e-05
4.6258e-08
1.27087e-05
5.38914e-08
1.27251e-05
6.8284e-08
1.2741e-05
9.45455e-08
1.27563e-05
1.41773e-07
1.27713e-05
2.2607e-07
1.27869e-05
3.75191e-07
1.28067e-05
6.38985e-07
1.2841e-05
1.07917e-06
1.84022e-06
1.29196e-05
1.25062e-05
6.19713e-09
1.25212e-05
1.49327e-08
1.2539e-05
1.79259e-08
1.25579e-05
1.90701e-08
1.25778e-05
2.0194e-08
1.2598e-05
2.07393e-08
1.26177e-05
2.08664e-08
1.2637e-05
2.11989e-08
1.26557e-05
2.21783e-08
1.26738e-05
2.43446e-08
1.26914e-05
2.8662e-08
1.27085e-05
3.67941e-08
1.27252e-05
5.16434e-08
1.27414e-05
7.8321e-08
1.27573e-05
1.2584e-07
1.27733e-05
2.10066e-07
1.27908e-05
3.57705e-07
1.28137e-05
6.16142e-07
1.28522e-05
1.04059e-06
1.75776e-06
1.29347e-05
1.25062e-05
1.60948e-11
1.25211e-05
4.93632e-11
1.25389e-05
9.94077e-11
1.25578e-05
1.84443e-10
1.25776e-05
3.34409e-10
1.25978e-05
6.01599e-10
1.26176e-05
1.07928e-09
1.26368e-05
1.93299e-09
1.26555e-05
3.45684e-09
1.26737e-05
6.17237e-09
1.26914e-05
1.10042e-08
1.27086e-05
1.95871e-08
1.27254e-05
3.48087e-08
1.2742e-05
6.17532e-08
1.27585e-05
1.09304e-07
1.27756e-05
1.93008e-07
1.27948e-05
3.38447e-07
1.28205e-05
5.90454e-07
1.2863e-05
9.98163e-07
1.67208e-06
1.29486e-05
1.25062e-05
-6.16504e-09
1.25211e-05
-1.48342e-08
1.25389e-05
-1.77276e-08
1.25578e-05
-1.87023e-08
1.25776e-05
-1.95272e-08
1.25978e-05
-1.95396e-08
1.26176e-05
-1.87141e-08
1.26369e-05
-1.73441e-08
1.26556e-05
-1.52844e-08
1.26738e-05
-1.20349e-08
1.26915e-05
-6.71568e-09
1.27088e-05
2.27032e-09
1.27259e-05
1.77803e-08
1.27428e-05
4.48446e-08
1.27599e-05
9.21742e-08
1.2778e-05
1.74925e-07
1.27989e-05
3.17494e-07
1.28273e-05
5.62109e-07
1.28732e-05
9.52258e-07
1.58378e-06
1.29615e-05
1.25062e-05
-1.24068e-08
1.25212e-05
-2.97849e-08
1.2539e-05
-3.55772e-08
1.25579e-05
-3.76067e-08
1.25778e-05
-3.94057e-08
1.2598e-05
-3.96914e-08
1.26178e-05
-3.85177e-08
1.26371e-05
-3.6635e-08
1.26558e-05
-3.40466e-08
1.26741e-05
-3.02775e-08
1.26919e-05
-2.44975e-08
1.27093e-05
-1.51556e-08
1.27265e-05
5.60035e-10
1.27437e-05
2.75997e-08
1.27615e-05
7.44628e-08
1.27805e-05
1.55849e-07
1.28031e-05
2.94922e-07
1.28339e-05
5.31291e-07
1.2883e-05
9.03227e-07
1.49337e-06
1.29734e-05
1.25064e-05
-1.87712e-08
1.25214e-05
-4.48705e-08
1.25393e-05
-5.34708e-08
1.25583e-05
-5.65453e-08
1.25782e-05
-5.93161e-08
1.25984e-05
-5.98608e-08
1.26182e-05
-5.83353e-08
1.26375e-05
-5.59423e-08
1.26563e-05
-5.28308e-08
1.26745e-05
-4.85556e-08
1.26924e-05
-4.23409e-08
1.27099e-05
-3.26897e-08
1.27273e-05
-1.68497e-08
1.27449e-05
1.00244e-08
1.27632e-05
5.61839e-08
1.27832e-05
1.35814e-07
1.28073e-05
2.70814e-07
1.28404e-05
4.9818e-07
1.28923e-05
8.51392e-07
1.40129e-06
1.29844e-05
1.25066e-05
-2.5323e-08
1.25218e-05
-6.0159e-08
1.25398e-05
-7.14292e-08
1.25588e-05
-7.55349e-08
1.25787e-05
-7.92734e-08
1.25989e-05
-8.00549e-08
1.26188e-05
-7.81709e-08
1.26381e-05
-7.52686e-08
1.26569e-05
-7.16382e-08
1.26752e-05
-6.68693e-08
1.26931e-05
-6.02454e-08
1.27108e-05
-5.03306e-08
1.27284e-05
-3.44458e-08
1.27463e-05
-7.87428e-09
1.27651e-05
3.73538e-08
1.2786e-05
1.14858e-07
1.28116e-05
2.4525e-07
1.28468e-05
4.62948e-07
1.29012e-05
7.9705e-07
1.30793e-06
1.29945e-05
1.25068e-05
-3.21322e-08
1.25224e-05
-7.57189e-08
1.25404e-05
-8.94729e-08
1.25595e-05
-9.45928e-08
1.25795e-05
-9.92921e-08
1.25997e-05
-1.0028e-07
1.26196e-05
-9.80284e-08
1.26389e-05
-9.46167e-08
1.26578e-05
-9.047e-08
1.26761e-05
-8.5219e-08
1.26941e-05
-7.82107e-08
1.27118e-05
-6.80771e-08
1.27296e-05
-5.2225e-08
1.27478e-05
-2.60885e-08
1.27672e-05
1.79899e-08
1.2789e-05
9.30205e-08
1.28159e-05
2.18315e-07
1.28531e-05
4.25763e-07
1.29097e-05
7.40471e-07
1.2136e-06
1.3004e-05
1.25071e-05
-3.92751e-08
1.2523e-05
-9.16194e-08
1.25412e-05
-1.07621e-07
1.25603e-05
-1.13738e-07
1.25804e-05
-1.19387e-07
1.26007e-05
-1.20544e-07
1.26206e-05
-1.17912e-07
1.264e-05
-1.13989e-07
1.26588e-05
-1.09328e-07
1.26772e-05
-1.03606e-07
1.26952e-05
-9.62374e-08
1.27131e-05
-8.59287e-08
1.2731e-05
-7.01849e-08
1.27496e-05
-4.46108e-08
1.27694e-05
-1.88964e-09
1.27921e-05
7.03422e-08
1.28203e-05
1.9009e-07
1.28593e-05
3.86783e-07
1.29179e-05
6.81906e-07
1.11859e-06
1.30129e-05
1.25076e-05
-4.68367e-08
1.25239e-05
-1.0793e-07
1.25421e-05
-1.25892e-07
1.25614e-05
-1.32989e-07
1.25816e-05
-1.39571e-07
1.26019e-05
-1.40853e-07
1.26218e-05
-1.37827e-07
1.26412e-05
-1.3339e-07
1.26601e-05
-1.28214e-07
1.26785e-05
-1.22032e-07
1.26966e-05
-1.14328e-07
1.27146e-05
-1.03887e-07
1.27327e-05
-8.83247e-08
1.27515e-05
-6.3435e-08
1.27719e-05
-2.22666e-08
1.27954e-05
4.68643e-08
1.28248e-05
1.60658e-07
1.28654e-05
3.46162e-07
1.29258e-05
6.21586e-07
1.02311e-06
1.30212e-05
1.25081e-05
-5.49132e-08
1.25249e-05
-1.2472e-07
1.25433e-05
-1.44303e-07
1.25627e-05
-1.52367e-07
1.25829e-05
-1.59859e-07
1.26033e-05
-1.61213e-07
1.26233e-05
-1.5778e-07
1.26427e-05
-1.52826e-07
1.26616e-05
-1.47135e-07
1.26801e-05
-1.40503e-07
1.26982e-05
-1.32489e-07
1.27163e-05
-1.21958e-07
1.27346e-05
-1.06647e-07
1.27538e-05
-8.25563e-08
1.27746e-05
-4.31225e-08
1.27988e-05
2.26307e-08
1.28294e-05
1.30107e-07
1.28715e-05
3.04054e-07
1.29334e-05
5.59729e-07
9.27369e-07
1.30291e-05
1.25087e-05
-6.36144e-08
1.2526e-05
-1.42058e-07
1.25446e-05
-1.6287e-07
1.25641e-05
-1.71896e-07
1.25845e-05
-1.80265e-07
1.2605e-05
-1.81635e-07
1.2625e-05
-1.7778e-07
1.26444e-05
-1.72306e-07
1.26634e-05
-1.66103e-07
1.26819e-05
-1.59034e-07
1.27002e-05
-1.50733e-07
1.27184e-05
-1.40152e-07
1.27369e-05
-1.25156e-07
1.27563e-05
-1.0197e-07
1.27776e-05
-6.44354e-08
1.28026e-05
-2.30796e-09
1.28341e-05
9.85303e-08
1.28776e-05
2.60615e-07
1.29407e-05
4.96551e-07
8.31552e-07
1.30366e-05
1.25095e-05
-7.30667e-08
1.25274e-05
-1.60014e-07
1.25461e-05
-1.81608e-07
1.25659e-05
-1.91602e-07
1.25864e-05
-2.00806e-07
1.26069e-05
-2.02133e-07
1.2627e-05
-1.97848e-07
1.26465e-05
-1.91856e-07
1.26655e-05
-1.85143e-07
1.26842e-05
-1.7765e-07
1.27025e-05
-1.69083e-07
1.27208e-05
-1.58485e-07
1.27396e-05
-1.43859e-07
1.27592e-05
-1.21666e-07
1.2781e-05
-8.6171e-08
1.28066e-05
-2.7882e-08
1.2839e-05
6.60462e-08
1.28836e-05
2.16026e-07
1.29479e-05
4.32284e-07
7.35835e-07
1.30436e-05
1.25103e-05
-8.34167e-08
1.2529e-05
-1.78653e-07
1.25479e-05
-2.00534e-07
1.25678e-05
-2.11519e-07
1.25885e-05
-2.21508e-07
1.26091e-05
-2.22741e-07
1.26293e-05
-2.18025e-07
1.2649e-05
-2.11518e-07
1.26681e-05
-2.04299e-07
1.26869e-05
-1.96389e-07
1.27054e-05
-1.87568e-07
1.27238e-05
-1.7697e-07
1.27427e-05
-1.62747e-07
1.27627e-05
-1.41609e-07
1.27848e-05
-1.08262e-07
1.28109e-05
-5.39804e-08
1.28441e-05
3.28197e-08
1.28896e-05
1.70512e-07
1.29547e-05
3.67205e-07
6.40426e-07
1.30501e-05
1.25114e-05
-9.48363e-08
1.25308e-05
-1.9804e-07
1.25499e-05
-2.19677e-07
1.25701e-05
-2.31705e-07
1.25911e-05
-2.42428e-07
1.26118e-05
-2.4353e-07
1.26322e-05
-2.38391e-07
1.26521e-05
-2.3137e-07
1.26714e-05
-2.23636e-07
1.26903e-05
-2.15296e-07
1.27089e-05
-2.06204e-07
1.27276e-05
-1.95592e-07
1.27466e-05
-1.81767e-07
1.27667e-05
-1.61705e-07
1.2789e-05
-1.30567e-07
1.28154e-05
-8.0406e-08
1.28491e-05
-8.87512e-10
1.28952e-05
1.24396e-07
1.29608e-05
3.01687e-07
5.45608e-07
1.30556e-05
1.25127e-05
-1.07534e-07
1.25329e-05
-2.1824e-07
1.25523e-05
-2.39093e-07
1.25729e-05
-2.52278e-07
1.25942e-05
-2.63692e-07
1.26153e-05
-2.64642e-07
1.2636e-05
-2.59085e-07
1.26561e-05
-2.51523e-07
1.26757e-05
-2.43222e-07
1.26948e-05
-2.34385e-07
1.27135e-05
-2.24947e-07
1.27322e-05
-2.14244e-07
1.27512e-05
-2.00752e-07
1.27712e-05
-1.81722e-07
1.27934e-05
-1.52785e-07
1.28198e-05
-1.06787e-07
1.28535e-05
-3.46227e-08
1.28997e-05
7.81958e-08
1.29651e-05
2.36301e-07
4.51837e-07
1.30589e-05
1.25142e-05
-1.21781e-07
1.25354e-05
-2.39357e-07
1.25552e-05
-2.58935e-07
1.25764e-05
-2.73509e-07
1.25983e-05
-2.85576e-07
1.262e-05
-2.86331e-07
1.26412e-05
-2.80294e-07
1.26618e-05
-2.72072e-07
1.26816e-05
-2.63048e-07
1.27007e-05
-2.5354e-07
1.27194e-05
-2.43573e-07
1.27377e-05
-2.32598e-07
1.27562e-05
-2.19268e-07
1.27756e-05
-2.01124e-07
1.27971e-05
-1.74278e-07
1.28227e-05
-1.32383e-07
1.28556e-05
-6.75354e-08
1.2901e-05
3.2838e-08
1.29653e-05
1.72033e-07
3.59945e-07
1.30572e-05
1.25162e-05
-1.37946e-07
1.25385e-05
-2.61724e-07
1.25592e-05
-2.7962e-07
1.25817e-05
-2.95988e-07
1.26047e-05
-3.08584e-07
1.26273e-05
-3.08941e-07
1.26492e-05
-3.02159e-07
1.267e-05
-2.92941e-07
1.26898e-05
-2.82818e-07
1.27085e-05
-2.72252e-07
1.27263e-05
-2.61373e-07
1.27435e-05
-2.49752e-07
1.27604e-05
-2.36229e-07
1.2778e-05
-2.18646e-07
1.27973e-05
-1.93601e-07
1.28205e-05
-1.55577e-07
1.28508e-05
-9.78412e-08
1.28934e-05
-9.7782e-09
1.29546e-05
1.1085e-07
2.71685e-07
1.30428e-05
1.25187e-05
-1.56636e-07
1.25435e-05
-2.86551e-07
1.25662e-05
-3.02322e-07
1.25911e-05
-3.20868e-07
1.2616e-05
-3.33444e-07
1.26397e-05
-3.32673e-07
1.26619e-05
-3.2437e-07
1.26823e-05
-3.13324e-07
1.27007e-05
-3.01255e-07
1.27173e-05
-2.88794e-07
1.27321e-05
-2.76189e-07
1.27455e-05
-2.63138e-07
1.27579e-05
-2.48665e-07
1.27702e-05
-2.30922e-07
1.27836e-05
-2.07006e-07
1.28003e-05
-1.72257e-07
1.28236e-05
-1.21131e-07
1.28588e-05
-4.50416e-08
1.29123e-05
5.73963e-08
1.91364e-07
1.29926e-05
1.25234e-05
-1.79996e-07
1.25544e-05
-3.17547e-07
1.25822e-05
-3.30151e-07
1.26114e-05
-3.50039e-07
1.26384e-05
-3.60506e-07
1.26621e-05
-3.56317e-07
1.2682e-05
-3.44281e-07
1.26979e-05
-3.29227e-07
1.27097e-05
-3.13081e-07
1.27176e-05
-2.96672e-07
1.27218e-05
-2.80374e-07
1.27226e-05
-2.64002e-07
1.27207e-05
-2.46775e-07
1.2717e-05
-2.27181e-07
1.27129e-05
-2.02881e-07
1.27108e-05
-1.70193e-07
1.27146e-05
-1.24898e-07
1.27301e-05
-6.05983e-08
1.27642e-05
2.33234e-08
1.29651e-07
1.28259e-05
1.25405e-05
-2.20474e-07
1.25884e-05
-3.65442e-07
1.2628e-05
-3.69745e-07
1.26609e-05
-3.82977e-07
1.26833e-05
-3.82919e-07
1.26942e-05
-3.67237e-07
1.26941e-05
-3.44178e-07
1.26836e-05
-3.1865e-07
1.26633e-05
-2.92782e-07
1.26342e-05
-2.67601e-07
1.25974e-05
-2.43608e-07
1.25542e-05
-2.20765e-07
1.2506e-05
-1.98552e-07
1.24547e-05
-1.75907e-07
1.2403e-05
-1.51161e-07
1.23545e-05
-1.21718e-07
1.23143e-05
-8.47507e-08
1.229e-05
-3.62452e-08
1.22898e-05
2.35239e-08
9.72447e-08
1.23222e-05
1.26406e-05
-3.61045e-07
1.27043e-05
-4.29208e-07
1.2722e-05
-3.87391e-07
1.26941e-05
-3.55047e-07
1.26301e-05
-3.18949e-07
1.25383e-05
-2.75465e-07
1.24267e-05
-2.32548e-07
1.23021e-05
-1.94083e-07
1.21704e-05
-1.61074e-07
1.20363e-05
-1.33463e-07
1.19034e-05
-1.10783e-07
1.17749e-05
-9.2223e-08
1.16531e-05
-7.67123e-08
1.154e-05
-6.28888e-08
1.1438e-05
-4.90761e-08
1.13494e-05
-3.31716e-08
1.12785e-05
-1.38887e-08
1.12336e-05
8.66012e-09
1.12234e-05
3.37226e-08
6.77005e-08
1.1253e-05
1.2139e-05
1.17097e-05
1.13224e-05
1.09673e-05
1.06484e-05
1.03729e-05
1.01403e-05
9.94626e-06
9.78519e-06
9.65173e-06
9.54094e-06
9.44872e-06
9.37201e-06
9.30912e-06
9.26004e-06
9.22687e-06
9.21298e-06
9.22164e-06
9.25537e-06
9.32307e-06
6.94901e-06
5.68434e-07
-3.77366e-08
6.33141e-06
8.2025e-07
-2.02654e-07
5.83244e-06
1.13792e-06
-6.38948e-07
5.5946e-06
1.46872e-06
-1.23088e-06
5.6188e-06
1.79111e-06
-1.81531e-06
5.84387e-06
2.11644e-06
-2.34151e-06
6.19689e-06
2.42706e-06
-2.78008e-06
6.6203e-06
2.69048e-06
-3.11388e-06
7.07395e-06
2.87721e-06
-3.33086e-06
7.53072e-06
2.96498e-06
-3.42175e-06
7.97269e-06
2.93933e-06
-3.3813e-06
8.3881e-06
2.79354e-06
-3.20895e-06
8.76919e-06
2.52764e-06
-2.90873e-06
9.1109e-06
2.14715e-06
-2.48886e-06
9.41028e-06
1.66197e-06
-1.96135e-06
9.6663e-06
1.08537e-06
-1.34139e-06
9.87954e-06
4.33329e-07
-6.46576e-07
1.00529e-05
-2.76326e-07
1.02951e-07
1.0193e-05
-1.02886e-06
8.88796e-07
1.03099e-05
-1.81054e-06
1.69365e-06
1.04181e-05
-2.61158e-06
2.50333e-06
1.05371e-05
-3.42911e-06
3.31017e-06
1.069e-05
-4.26906e-06
4.11615e-06
1.09002e-05
-5.14551e-06
4.93532e-06
1.11816e-05
-6.07435e-06
5.79293e-06
1.15241e-05
-7.05915e-06
6.71661e-06
1.18816e-05
-8.07409e-06
7.71658e-06
1.21769e-05
-9.05759e-06
8.76233e-06
1.23301e-05
-9.92874e-06
9.77548e-06
1.2296e-05
-1.06199e-05
1.0654e-05
1.20815e-05
-1.11016e-05
1.13161e-05
1.17342e-05
-1.13831e-05
1.17304e-05
1.13138e-05
-1.14935e-05
1.19139e-05
1.08698e-05
-1.14629e-05
1.19069e-05
1.04335e-05
-1.13136e-05
1.17499e-05
1.00209e-05
-1.10618e-05
1.14744e-05
9.63911e-06
-1.07216e-05
1.11034e-05
9.29077e-06
-1.0308e-05
1.06563e-05
8.97638e-06
-9.83699e-06
1.01514e-05
8.69524e-06
-9.32474e-06
9.60587e-06
8.4458e-06
-8.78628e-06
9.03573e-06
8.22585e-06
-8.23487e-06
8.45482e-06
8.0328e-06
-7.68154e-06
7.87459e-06
7.86385e-06
-7.13512e-06
7.30408e-06
7.71613e-06
-6.60238e-06
6.75009e-06
7.58692e-06
-6.08837e-06
6.21758e-06
7.47366e-06
-5.59665e-06
5.70991e-06
7.37402e-06
-5.12963e-06
5.22927e-06
7.28596e-06
-4.68882e-06
4.77689e-06
7.20769e-06
-4.275e-06
4.35327e-06
7.1377e-06
-3.88842e-06
3.95841e-06
7.07471e-06
-3.52889e-06
3.59188e-06
7.01766e-06
-3.19592e-06
3.25298e-06
6.96567e-06
-2.88878e-06
2.94077e-06
6.91803e-06
-2.60653e-06
2.65416e-06
6.87418e-06
-2.3481e-06
2.39196e-06
6.83363e-06
-2.11233e-06
2.15287e-06
6.79603e-06
-1.89797e-06
1.93558e-06
6.76105e-06
-1.70374e-06
1.73872e-06
6.72845e-06
-1.52833e-06
1.56093e-06
6.69802e-06
-1.37043e-06
1.40086e-06
6.66958e-06
-1.22874e-06
1.25717e-06
6.64298e-06
-1.10198e-06
1.12858e-06
6.6181e-06
-9.88914e-07
1.0138e-06
6.5948e-06
-8.88335e-07
9.11626e-07
6.57301e-06
-7.99076e-07
8.20865e-07
6.55264e-06
-7.20014e-07
7.40386e-07
6.53362e-06
-6.50077e-07
6.69102e-07
6.51588e-06
-5.88244e-07
6.05982e-07
6.49938e-06
-5.33551e-07
5.50056e-07
6.48406e-06
-4.85098e-07
5.00416e-07
6.46988e-06
-4.42057e-07
4.5623e-07
6.45681e-06
-4.0367e-07
4.1674e-07
6.44481e-06
-3.69263e-07
3.81269e-07
6.43383e-06
-3.3824e-07
3.49222e-07
6.42382e-06
-3.10086e-07
3.20089e-07
6.41476e-06
-2.84369e-07
2.93438e-07
6.40657e-06
-2.60729e-07
2.68913e-07
6.39922e-06
-2.38876e-07
2.46227e-07
6.39265e-06
-2.1858e-07
2.25152e-07
6.3868e-06
-1.99664e-07
2.05514e-07
6.38161e-06
-1.81996e-07
1.87181e-07
6.37704e-06
-1.65476e-07
1.70053e-07
6.37301e-06
-1.50032e-07
1.54058e-07
6.36948e-06
-1.35611e-07
1.39138e-07
6.3664e-06
-1.22172e-07
1.25252e-07
6.36372e-06
-1.09679e-07
1.12362e-07
6.36139e-06
-9.81026e-08
1.00433e-07
6.35937e-06
-8.74125e-08
8.94326e-08
6.35762e-06
-7.75768e-08
7.9324e-08
6.35611e-06
-6.85611e-08
7.00695e-08
6.35481e-06
-6.0328e-08
6.16282e-08
6.35369e-06
-5.28375e-08
5.39565e-08
6.35273e-06
-4.60466e-08
4.70085e-08
6.35191e-06
-3.99109e-08
4.07367e-08
6.3512e-06
-3.43845e-08
3.50925e-08
6.35059e-06
-2.94211e-08
3.00273e-08
6.35007e-06
-2.49745e-08
2.54928e-08
6.34963e-06
-2.09994e-08
2.1442e-08
6.34925e-06
-1.74518e-08
1.78291e-08
6.34893e-06
-1.42894e-08
1.46105e-08
6.34866e-06
-1.14719e-08
1.17446e-08
6.34843e-06
-8.96126e-09
9.19231e-09
6.34823e-06
-6.72174e-09
6.917e-09
6.34807e-06
-4.71996e-09
4.88447e-09
6.34793e-06
-2.92492e-09
3.06303e-09
6.34782e-06
-1.30785e-09
1.42331e-09
6.34772e-06
1.57826e-10
-6.17751e-11
6.34764e-06
1.49669e-09
-1.41727e-09
6.34757e-06
2.73144e-09
-2.66626e-09
6.34752e-06
3.88312e-09
-3.83013e-09
6.34748e-06
4.97126e-09
-4.92871e-09
6.34745e-06
6.01408e-09
-5.98047e-09
6.34742e-06
7.02867e-09
-7.00272e-09
6.3474e-06
8.03117e-09
-8.01179e-09
6.34739e-06
9.03694e-09
-9.02324e-09
6.34738e-06
1.00608e-08
-1.0052e-08
6.34737e-06
1.1117e-08
-1.11125e-08
6.34737e-06
1.22198e-08
-1.2219e-08
6.34738e-06
1.3383e-08
-1.33856e-08
6.34738e-06
1.46209e-08
-1.46265e-08
6.34739e-06
1.59476e-08
-1.59559e-08
6.3474e-06
1.73779e-08
-1.73888e-08
6.34741e-06
1.89269e-08
-1.89402e-08
6.34743e-06
2.06106e-08
-2.06263e-08
6.34745e-06
2.24458e-08
-2.24638e-08
6.34747e-06
2.44502e-08
-2.44706e-08
6.34749e-06
2.66429e-08
-2.66657e-08
6.34752e-06
2.90443e-08
-2.90696e-08
6.34754e-06
3.16763e-08
-3.17042e-08
6.34757e-06
3.45627e-08
-3.45935e-08
6.34761e-06
3.77292e-08
-3.77631e-08
6.34765e-06
4.12038e-08
-4.12412e-08
6.34769e-06
4.50171e-08
-4.50581e-08
6.34773e-06
4.92022e-08
-4.92473e-08
6.34778e-06
5.37953e-08
-5.38449e-08
6.34784e-06
5.88361e-08
-5.88908e-08
6.3479e-06
6.43679e-08
-6.44281e-08
6.34796e-06
7.0438e-08
-7.05045e-08
6.34804e-06
7.70984e-08
-7.71717e-08
6.34812e-06
8.44057e-08
-8.44867e-08
6.34821e-06
9.24221e-08
-9.25118e-08
6.34831e-06
1.01216e-07
-1.01315e-07
6.34842e-06
1.10861e-07
-1.10971e-07
6.34854e-06
1.2144e-07
-1.21562e-07
6.34867e-06
1.33043e-07
-1.33178e-07
6.34882e-06
1.45766e-07
-1.45916e-07
6.34899e-06
1.59718e-07
-1.59885e-07
6.34918e-06
1.75017e-07
-1.75203e-07
6.34938e-06
1.91791e-07
-1.91998e-07
6.34962e-06
2.10182e-07
-2.10414e-07
6.34987e-06
2.30345e-07
-2.30604e-07
6.35016e-06
2.5245e-07
-2.52739e-07
6.35049e-06
2.76683e-07
-2.77005e-07
6.35085e-06
3.03247e-07
-3.03608e-07
6.35125e-06
3.32366e-07
-3.32769e-07
6.3517e-06
3.64284e-07
-3.64735e-07
6.35221e-06
3.99269e-07
-3.99774e-07
6.35277e-06
4.37614e-07
-4.38179e-07
6.3534e-06
4.79639e-07
-4.80272e-07
6.35411e-06
5.25698e-07
-5.26407e-07
6.35491e-06
5.76174e-07
-5.76967e-07
6.35579e-06
6.31488e-07
-6.32376e-07
6.35679e-06
6.92103e-07
-6.93097e-07
6.3579e-06
7.58524e-07
-7.59634e-07
6.35914e-06
8.31303e-07
-8.32542e-07
6.36052e-06
9.11045e-07
-9.12427e-07
6.36205e-06
9.98416e-07
-9.99953e-07
6.36376e-06
1.09414e-06
-1.09585e-06
6.36565e-06
1.19902e-06
-1.20091e-06
6.36774e-06
1.31392e-06
-1.31601e-06
6.37004e-06
1.43981e-06
-1.4421e-06
6.37256e-06
1.57773e-06
-1.58025e-06
6.37529e-06
1.72887e-06
-1.73161e-06
6.37826e-06
1.89449e-06
-1.89745e-06
6.38143e-06
2.07601e-06
-2.07919e-06
6.3848e-06
2.27502e-06
-2.27839e-06
6.38832e-06
2.49327e-06
-2.4968e-06
6.39195e-06
2.73273e-06
-2.73636e-06
6.3956e-06
2.99562e-06
-2.99927e-06
6.39916e-06
3.28444e-06
-3.288e-06
6.40248e-06
3.60209e-06
-3.6054e-06
6.40535e-06
3.95186e-06
-3.95473e-06
6.4075e-06
4.33763e-06
-4.33978e-06
6.40859e-06
4.76393e-06
-4.76501e-06
6.40816e-06
5.23618e-06
-5.23575e-06
6.40564e-06
5.76091e-06
-5.7584e-06
6.4003e-06
6.34615e-06
-6.3408e-06
6.39118e-06
7.00184e-06
-6.99272e-06
6.37705e-06
7.74065e-06
-7.72652e-06
6.35626e-06
8.57892e-06
-8.55813e-06
6.32656e-06
9.53854e-06
-9.50884e-06
6.28469e-06
1.06487e-05
-1.06068e-05
6.22571e-06
1.19531e-05
-1.18941e-05
6.14137e-06
1.35077e-05
-1.34234e-05
6.01772e-06
1.54249e-05
-1.53013e-05
5.8207e-06
1.77959e-05
-1.75988e-05
5.5031e-06
2.10142e-05
-2.06966e-05
4.90511e-06
2.4681e-05
-2.40831e-05
3.21296e-05
-3.20673e-05
4.84281e-06
1.0119e-05
8.23483e-07
9.7356e-06
1.20367e-06
9.23317e-06
1.64034e-06
8.6857e-06
2.0162e-06
8.19962e-06
2.27719e-06
7.86912e-06
2.44693e-06
7.7317e-06
2.56448e-06
7.77254e-06
2.64964e-06
7.94979e-06
2.69996e-06
8.21627e-06
2.6985e-06
8.53116e-06
2.62444e-06
8.86367e-06
2.46104e-06
9.1924e-06
2.19891e-06
9.5034e-06
1.83614e-06
9.78835e-06
1.37702e-06
1.00432e-05
8.30535e-07
1.02671e-05
2.09441e-07
1.04634e-05
-4.72641e-07
1.064e-05
-1.20542e-06
1.08082e-05
-1.97882e-06
1.09836e-05
-2.78697e-06
1.11843e-05
-3.62974e-06
1.14273e-05
-4.51209e-06
1.1721e-05
-5.43926e-06
1.20537e-05
-6.40696e-06
1.23843e-05
-7.38979e-06
1.26477e-05
-8.33754e-06
1.27773e-05
-9.18714e-06
1.27347e-05
-9.88616e-06
1.25259e-05
-1.0411e-05
1.21917e-05
-1.07674e-05
1.17849e-05
-1.09762e-05
1.13494e-05
-1.10581e-05
1.0914e-05
-1.10274e-05
1.0494e-05
-1.08936e-05
1.00972e-05
-1.0665e-05
9.72771e-06
-1.03521e-05
9.38788e-06
-9.96814e-06
9.07872e-06
-9.52783e-06
8.80017e-06
-9.0462e-06
8.55127e-06
-8.53738e-06
8.33029e-06
-8.01389e-06
8.135e-06
-7.48625e-06
7.9629e-06
-6.96301e-06
7.81138e-06
-6.45086e-06
7.67789e-06
-5.95488e-06
7.56005e-06
-5.4788e-06
7.45565e-06
-5.02523e-06
7.36275e-06
-4.59592e-06
7.27964e-06
-4.1919e-06
7.20487e-06
-3.81365e-06
7.1372e-06
-3.46122e-06
7.07562e-06
-3.13434e-06
7.01928e-06
-2.83244e-06
6.9675e-06
-2.55474e-06
6.91972e-06
-2.30032e-06
6.87547e-06
-2.06809e-06
6.8344e-06
-1.8569e-06
6.7962e-06
-1.66554e-06
6.76062e-06
-1.49275e-06
6.72744e-06
-1.33724e-06
6.69647e-06
-1.19777e-06
6.66756e-06
-1.07307e-06
6.64056e-06
-9.61913e-07
6.61534e-06
-8.6312e-07
6.5918e-06
-7.75536e-07
6.56984e-06
-6.98052e-07
6.54937e-06
-6.29607e-07
6.53032e-06
-5.6919e-07
6.51261e-06
-5.15847e-07
6.4962e-06
-4.68685e-07
6.48102e-06
-4.2688e-07
6.46703e-06
-3.89679e-07
6.45418e-06
-3.56409e-07
6.44241e-06
-3.26474e-07
6.43168e-06
-2.9936e-07
6.42194e-06
-2.7463e-07
6.41314e-06
-2.51923e-07
6.40521e-06
-2.30947e-07
6.3981e-06
-2.11471e-07
6.39175e-06
-1.93316e-07
6.38611e-06
-1.7635e-07
6.3811e-06
-1.60473e-07
6.37669e-06
-1.45614e-07
6.3728e-06
-1.31723e-07
6.36938e-06
-1.18759e-07
6.3664e-06
-1.06691e-07
6.36379e-06
-9.5494e-08
6.36151e-06
-8.51395e-08
6.35954e-06
-7.56e-08
6.35782e-06
-6.68447e-08
6.35633e-06
-5.88401e-08
6.35504e-06
-5.15493e-08
6.35393e-06
-4.49329e-08
6.35297e-06
-3.89492e-08
6.35214e-06
-3.3555e-08
6.35143e-06
-2.87066e-08
6.35081e-06
-2.43599e-08
6.35028e-06
-2.04716e-08
6.34983e-06
-1.69992e-08
6.34944e-06
-1.39021e-08
6.34911e-06
-1.11412e-08
6.34883e-06
-8.67959e-09
6.34859e-06
-6.48257e-09
6.34839e-06
-4.51761e-09
6.34822e-06
-2.75445e-09
6.34808e-06
-1.16502e-09
6.34796e-06
2.76706e-10
6.34786e-06
1.59479e-09
6.34778e-06
2.81151e-09
6.34771e-06
3.94751e-09