/*--------------------------------*- C++ -*----------------------------------*\
| =========                 |                                                 |
| \\      /  F ield         | OpenFOAM: The Open Source CFD Toolbox           |
|  \\    /   O peration     | Version:  2.4.0                                 |
|   \\  /    A nd           | Web:      www.OpenFOAM.org                      |
|    \\/     M anipulation  |                                                 |
\*---------------------------------------------------------------------------*/
FoamFile
{
    version     2.0;
    format      ascii;
    class       volVectorField;
    location    "0.054";
    object      UMean;
}
// * * * * * * * * * * * * * * * * * * * * * * * * * * * * * * * * * * * * * //

dimensions      [0 1 -1 0 0 0 0];

internalField   nonuniform List<vector> 
17600
(
(5.37602 0.304072 0)
(3.13844 0.0609259 0)
(2.38318 -0.0010787 0)
(2.05375 -0.0034954 0)
(1.92572 -0.0013447 0)
(1.84769 -0.000262618 0)
(1.79228 -1.6304e-05 0)
(1.74815 -6.60486e-05 0)
(1.72085 -8.74966e-05 0)
(1.69512 1.73885e-07 0)
(1.68109 2.76695e-05 0)
(1.6598 9.92051e-05 0)
(1.65012 6.51296e-05 0)
(1.63053 8.704e-06 0)
(1.6263 -3.48352e-05 0)
(1.61278 -0.00023998 0)
(1.61322 -0.000173115 0)
(1.6237 -8.33248e-05 0)
(1.66635 -0.00632018 0)
(1.63189 -0.00764162 0)
(8.58205 0.851784 0)
(7.07487 0.371091 0)
(6.01245 0.11574 0)
(5.30432 0.0469271 0)
(4.93395 0.024458 0)
(4.70113 0.0164555 0)
(4.54455 0.0122113 0)
(4.42013 0.00868858 0)
(4.34171 0.00638323 0)
(4.26653 0.00495967 0)
(4.22747 0.00422416 0)
(4.16799 0.00409485 0)
(4.14453 0.00345586 0)
(4.09042 0.00349636 0)
(4.08008 0.00187001 0)
(4.03982 0.00296011 0)
(4.03409 -0.00119393 0)
(4.05195 -0.00167861 0)
(4.03547 -0.00509538 0)
(4.27745 -0.143905 0)
(9.79229 0.994261 0)
(9.39892 0.553833 0)
(8.61243 0.226793 0)
(7.8375 0.119556 0)
(7.33231 0.0719353 0)
(6.98877 0.0475273 0)
(6.75655 0.0342818 0)
(6.56778 0.0245735 0)
(6.44859 0.0184387 0)
(6.33004 0.0140395 0)
(6.2712 0.0120033 0)
(6.17783 0.0104429 0)
(6.14588 0.0095642 0)
(6.06055 0.00810945 0)
(6.04938 0.00620209 0)
(5.97814 0.0053548 0)
(5.98432 0.00014066 0)
(5.95461 -0.0018449 0)
(5.99329 -0.021762 0)
(6.10387 -0.181128 0)
(10.0798 0.920032 0)
(10.5569 0.637017 0)
(10.3038 0.307494 0)
(9.73605 0.192143 0)
(9.25376 0.130544 0)
(8.87459 0.0897621 0)
(8.60711 0.0649132 0)
(8.37536 0.0467617 0)
(8.23108 0.0354393 0)
(8.0774 0.0270138 0)
(8.00587 0.0226234 0)
(7.88287 0.0201467 0)
(7.84749 0.0172459 0)
(7.73376 0.0167376 0)
(7.72672 0.0103698 0)
(7.62075 0.0141984 0)
(7.65399 -0.00248763 0)
(7.54372 0.00751858 0)
(7.68394 -0.0538753 0)
(7.56749 -0.143134 0)
(10.0027 0.783614 0)
(10.8835 0.636945 0)
(11.1077 0.330321 0)
(10.8882 0.233061 0)
(10.5936 0.17976 0)
(10.2867 0.132717 0)
(10.0522 0.0991598 0)
(9.81684 0.0724109 0)
(9.67552 0.0559438 0)
(9.50309 0.0422939 0)
(9.43259 0.0363841 0)
(9.28781 0.030138 0)
(9.25827 0.0287314 0)
(9.11902 0.0225822 0)
(9.1255 0.0223877 0)
(8.98666 0.0123471 0)
(9.03659 0.0171784 0)
(8.90303 -0.0157553 0)
(9.00086 -0.0127934 0)
(8.91982 -0.222341 0)
(9.92406 0.673262 0)
(10.8241 0.605987 0)
(11.2659 0.309314 0)
(11.3143 0.229142 0)
(11.265 0.19848 0)
(11.1229 0.160354 0)
(11.0074 0.126665 0)
(10.8305 0.0960206 0)
(10.7354 0.0757268 0)
(10.5766 0.0588877 0)
(10.5246 0.0495208 0)
(10.3809 0.0432943 0)
(10.3589 0.0369934 0)
(10.2197 0.0355011 0)
(10.2252 0.0237226 0)
(10.0907 0.0297126 0)
(10.1278 0.00157417 0)
(10.0043 0.0209126 0)
(10.0705 -0.0693281 0)
(9.96106 -0.136891 0)
(9.90911 0.586569 0)
(10.7049 0.574366 0)
(11.1887 0.282983 0)
(11.3222 0.201917 0)
(11.4124 0.187658 0)
(11.4019 0.163152 0)
(11.4308 0.136988 0)
(11.3548 0.106842 0)
(11.354 0.0886938 0)
(11.2482 0.0693234 0)
(11.2494 0.0621389 0)
(11.1299 0.051251 0)
(11.14 0.0507515 0)
(11.0103 0.038959 0)
(11.0367 0.0414018 0)
(10.9043 0.0233226 0)
(10.9555 0.0274635 0)
(10.8262 -0.00547726 0)
(10.9022 -0.0432325 0)
(10.7562 -0.150566 0)
(9.92047 0.509223 0)
(10.6084 0.539959 0)
(11.0934 0.266139 0)
(11.2394 0.177463 0)
(11.3644 0.168187 0)
(11.3898 0.153539 0)
(11.4866 0.132737 0)
(11.4801 0.105657 0)
(11.5542 0.088076 0)
(11.52 0.0723108 0)
(11.5772 0.0638235 0)
(11.5215 0.0577904 0)
(11.5627 0.0519132 0)
(11.4907 0.0490104 0)
(11.5234 0.0389228 0)
(11.4456 0.0381112 0)
(11.482 0.018142 0)
(11.4071 0.00836316 0)
(11.4487 -0.0512123 0)
(11.338 -0.180624 0)
(9.92805 0.440764 0)
(10.537 0.497597 0)
(11.0093 0.254143 0)
(11.1733 0.155662 0)
(11.2969 0.149915 0)
(11.3316 0.140423 0)
(11.4281 0.125398 0)
(11.4501 0.0977804 0)
(11.5353 0.0831981 0)
(11.547 0.0658357 0)
(11.6214 0.0619009 0)
(11.6211 0.0532586 0)
(11.6808 0.0537342 0)
(11.6672 0.0447939 0)
(11.7146 0.0437209 0)
(11.6934 0.0329162 0)
(11.7352 0.023 0)
(11.7135 0.00459532 0)
(11.7434 -0.0647912 0)
(11.6692 -0.171078 0)
(9.93026 0.378969 0)
(10.4779 0.452882 0)
(10.9342 0.242384 0)
(11.1195 0.136244 0)
(11.2396 0.131421 0)
(11.2825 0.128356 0)
(11.367 0.116146 0)
(11.4008 0.0909896 0)
(11.4775 0.075204 0)
(11.5067 0.0603352 0)
(11.5758 0.055347 0)
(11.5985 0.0493104 0)
(11.6569 0.0485214 0)
(11.6724 0.0422231 0)
(11.7221 0.0396643 0)
(11.7354 0.0290075 0)
(11.7807 0.0206476 0)
(11.7948 -0.0129157 0)
(11.824 -0.061472 0)
(11.7693 -0.208374 0)
(9.92897 0.323518 0)
(10.4287 0.407675 0)
(10.8646 0.231058 0)
(11.0734 0.117731 0)
(11.1879 0.114088 0)
(11.2432 0.115618 0)
(11.3128 0.107377 0)
(11.36 0.0834327 0)
(11.4234 0.0687771 0)
(11.4672 0.0536349 0)
(11.5238 0.0500604 0)
(11.5612 0.0439595 0)
(11.6082 0.0436783 0)
(11.639 0.037573 0)
(11.6795 0.0343212 0)
(11.7084 0.0261136 0)
(11.7464 0.0110939 0)
(11.7754 -0.0136898 0)
(11.7956 -0.0795228 0)
(11.7437 -0.217914 0)
(9.92727 0.274117 0)
(10.3863 0.362451 0)
(10.8036 0.218578 0)
(11.0295 0.100492 0)
(11.1445 0.0974335 0)
(11.2065 0.102784 0)
(11.2682 0.0979682 0)
(11.3211 0.0755887 0)
(11.3799 0.0620896 0)
(11.4296 0.0473662 0)
(11.4824 0.0453312 0)
(11.5247 0.0386607 0)
(11.5681 0.0403449 0)
(11.6027 0.031549 0)
(11.6404 0.0318452 0)
(11.6721 0.0162651 0)
(11.7078 0.00838877 0)
(11.7358 -0.0296816 0)
(11.7497 -0.0883076 0)
(11.6888 -0.226257 0)
(9.92782 0.230348 0)
(10.3483 0.317317 0)
(10.7521 0.20281 0)
(10.9869 0.085231 0)
(11.109 0.0817754 0)
(11.1719 0.089855 0)
(11.2317 0.0877907 0)
(11.2843 0.0673895 0)
(11.3441 0.0550708 0)
(11.3946 0.041231 0)
(11.449 0.0399971 0)
(11.4912 0.0337729 0)
(11.5358 0.035094 0)
(11.5696 0.0276589 0)
(11.6087 0.026088 0)
(11.6387 0.0131922 0)
(11.6751 0.000277253 0)
(11.6982 -0.0381518 0)
(11.709 -0.0957508 0)
(11.6333 -0.233471 0)
(9.9284 0.190932 0)
(10.3168 0.273449 0)
(10.7073 0.18163 0)
(10.9491 0.0726596 0)
(11.0782 0.0680874 0)
(11.1425 0.0772685 0)
(11.1997 0.0772934 0)
(11.2528 0.0589174 0)
(11.3124 0.0481364 0)
(11.365 0.0351179 0)
(11.4194 0.0348506 0)
(11.4632 0.0286259 0)
(11.5071 0.0308885 0)
(11.5421 0.0218104 0)
(11.5803 0.0215618 0)
(11.6111 0.00602141 0)
(11.6455 -0.00674322 0)
(11.6669 -0.0456269 0)
(11.6716 -0.104364 0)
(11.5857 -0.235138 0)
(9.9288 0.155125 0)
(10.2908 0.230695 0)
(10.6694 0.156204 0)
(10.9169 0.0617378 0)
(11.0529 0.0558731 0)
(11.1179 0.0647683 0)
(11.1733 0.0664504 0)
(11.226 0.0501704 0)
(11.2862 0.0410812 0)
(11.3398 0.0292226 0)
(11.395 0.0297437 0)
(11.4393 0.023666 0)
(11.4833 0.0260596 0)
(11.5186 0.0171544 0)
(11.5567 0.0166906 0)
(11.5871 0.000208627 0)
(11.6204 -0.0127137 0)
(11.6397 -0.0536772 0)
(11.6382 -0.110828 0)
(11.5452 -0.234459 0)
(9.92909 0.122764 0)
(10.2699 0.188049 0)
(10.6381 0.129044 0)
(10.89 0.0510816 0)
(11.0321 0.0445375 0)
(11.0978 0.0523078 0)
(11.1517 0.0550802 0)
(11.2039 0.0410874 0)
(11.2646 0.0339627 0)
(11.3192 0.0232669 0)
(11.375 0.0244437 0)
(11.4197 0.0184696 0)
(11.4638 0.0208207 0)
(11.4994 0.0120192 0)
(11.5371 0.0110719 0)
(11.5672 -0.00523722 0)
(11.5993 -0.0193591 0)
(11.6165 -0.0605897 0)
(11.6081 -0.116658 0)
(11.5139 -0.232587 0)
(9.92912 0.0930424 0)
(10.2537 0.145506 0)
(10.6132 0.101199 0)
(10.8687 0.0402853 0)
(11.0154 0.033864 0)
(11.0823 0.0399705 0)
(11.1346 0.0433686 0)
(11.1867 0.0318653 0)
(11.2474 0.026586 0)
(11.303 0.017619 0)
(11.3591 0.0189602 0)
(11.4043 0.0136308 0)
(11.4482 0.015811 0)
(11.4842 0.00709861 0)
(11.5212 0.0057315 0)
(11.5512 -0.0107065 0)
(11.5821 -0.0260424 0)
(11.5961 -0.0662651 0)
(11.5833 -0.121261 0)
(11.4894 -0.229761 0)
(9.92909 0.0653326 0)
(10.2418 0.103196 0)
(10.5947 0.0730518 0)
(10.8528 0.0289504 0)
(11.003 0.0239675 0)
(11.0708 0.0278638 0)
(11.1219 0.0315504 0)
(11.1738 0.0224038 0)
(11.2346 0.0194142 0)
(11.2909 0.0118162 0)
(11.3474 0.0136763 0)
(11.3927 0.00855315 0)
(11.4367 0.0104181 0)
(11.4725 0.00216574 0)
(11.5091 0.000318178 0)
(11.539 -0.0163425 0)
(11.5684 -0.0319553 0)
(11.5786 -0.0717497 0)
(11.5657 -0.125189 0)
(11.4656 -0.225997 0)
(9.92901 0.0390423 0)
(10.2341 0.0611541 0)
(10.5825 0.0446214 0)
(10.8422 0.0170633 0)
(10.9947 0.0146666 0)
(11.0632 0.0159313 0)
(11.1135 0.0195869 0)
(11.1652 0.0128895 0)
(11.2261 0.0121258 0)
(11.283 0.00607347 0)
(11.3395 0.00826829 0)
(11.385 0.00343794 0)
(11.429 0.00512413 0)
(11.4645 -0.00272391 0)
(11.5008 -0.00519114 0)
(11.5306 -0.0215937 0)
(11.5573 -0.0377465 0)
(11.5661 -0.0766033 0)
(11.5526 -0.128796 0)
(11.4417 -0.220078 0)
(9.92888 0.0135827 0)
(10.2304 0.0193567 0)
(10.5763 0.0159121 0)
(10.837 0.00472608 0)
(10.9905 0.00577338 0)
(11.0595 0.00423099 0)
(11.1093 0.00747226 0)
(11.161 0.00330351 0)
(11.2218 0.00477476 0)
(11.2791 0.000489402 0)
(11.3354 0.00284936 0)
(11.3812 -0.00155698 0)
(11.4249 -0.00020157 0)
(11.4601 -0.00752098 0)
(11.4963 -0.0106797 0)
(11.5253 -0.0265919 0)
(11.5493 -0.0433394 0)
(11.5593 -0.0810582 0)
(11.5402 -0.131514 0)
(11.4229 -0.213262 0)
(9.92875 -0.0115669 0)
(10.2306 -0.0224034 0)
(10.5763 -0.0128742 0)
(10.8371 -0.00780081 0)
(10.9905 -0.00292677 0)
(11.0596 -0.00753859 0)
(11.1092 -0.00464491 0)
(11.1611 -0.00643579 0)
(11.2217 -0.00251599 0)
(11.2791 -0.00527847 0)
(11.3352 -0.00252656 0)
(11.3813 -0.00673981 0)
(11.4244 -0.00548572 0)
(11.4595 -0.0124956 0)
(11.4955 -0.0161015 0)
(11.5227 -0.0315422 0)
(11.5461 -0.0488641 0)
(11.5558 -0.0853178 0)
(11.5292 -0.13318 0)
(11.4137 -0.207425 0)
(9.92858 -0.0370679 0)
(10.2347 -0.0641345 0)
(10.5822 -0.0416188 0)
(10.8426 -0.0200691 0)
(10.9945 -0.0119085 0)
(11.0636 -0.0192232 0)
(11.1133 -0.0167496 0)
(11.1655 -0.0160295 0)
(11.2258 -0.00982672 0)
(11.2831 -0.0109627 0)
(11.3389 -0.00783363 0)
(11.385 -0.0118599 0)
(11.4274 -0.0106446 0)
(11.4629 -0.0174379 0)
(11.4977 -0.0212403 0)
(11.5237 -0.0363889 0)
(11.5476 -0.0540865 0)
(11.5534 -0.089024 0)
(11.5237 -0.134287 0)
(11.4113 -0.202195 0)
(9.92838 -0.063415 0)
(10.2428 -0.106073 0)
(10.5943 -0.0701409 0)
(10.8534 -0.0318458 0)
(11.0027 -0.0213448 0)
(11.0714 -0.0310653 0)
(11.1215 -0.0288016 0)
(11.1742 -0.0255557 0)
(11.2341 -0.0170974 0)
(11.2912 -0.0167071 0)
(11.3465 -0.0131487 0)
(11.3923 -0.0169763 0)
(11.4344 -0.0157957 0)
(11.47 -0.0223468 0)
(11.503 -0.0262469 0)
(11.5292 -0.0412278 0)
(11.552 -0.0589492 0)
(11.5535 -0.0923383 0)
(11.5254 -0.135614 0)
(11.4108 -0.196211 0)
(9.92813 -0.0912219 0)
(10.255 -0.148248 0)
(10.6125 -0.0984188 0)
(10.8696 -0.0429677 0)
(11.015 -0.0314426 0)
(11.0832 -0.0430709 0)
(11.134 -0.0407311 0)
(11.1873 -0.0349901 0)
(11.2467 -0.0243523 0)
(11.3034 -0.0225134 0)
(11.3581 -0.0183971 0)
(11.4035 -0.022153 0)
(11.4454 -0.0208075 0)
(11.4803 -0.0272878 0)
(11.5123 -0.0310354 0)
(11.5389 -0.0460856 0)
(11.5584 -0.0632831 0)
(11.5591 -0.0957291 0)
(11.5313 -0.136717 0)
(11.4128 -0.189687 0)
(9.92777 -0.121045 0)
(10.2717 -0.190648 0)
(10.6372 -0.126409 0)
(10.8912 -0.0535939 0)
(11.0314 -0.0422487 0)
(11.0991 -0.0552542 0)
(11.1509 -0.052546 0)
(11.2048 -0.044256 0)
(11.2635 -0.0315961 0)
(11.3198 -0.0283363 0)
(11.3735 -0.0236582 0)
(11.4188 -0.0273092 0)
(11.4602 -0.0257059 0)
(11.4942 -0.0321687 0)
(11.5261 -0.0357306 0)
(11.5515 -0.0506817 0)
(11.5683 -0.0672894 0)
(11.5701 -0.0991869 0)
(11.5393 -0.137401 0)
(11.42 -0.183299 0)
(9.92723 -0.153537 0)
(10.293 -0.233123 0)
(10.6682 -0.15379 0)
(10.9183 -0.0639753 0)
(11.0521 -0.0538352 0)
(11.1194 -0.0674738 0)
(11.1723 -0.0641793 0)
(11.2271 -0.0531837 0)
(11.2848 -0.0389061 0)
(11.3406 -0.0341299 0)
(11.393 -0.028983 0)
(11.4385 -0.0323865 0)
(11.4786 -0.0305248 0)
(11.5125 -0.0370284 0)
(11.5438 -0.0402689 0)
(11.567 -0.0550702 0)
(11.5836 -0.0711063 0)
(11.5842 -0.102616 0)
(11.551 -0.137921 0)
(11.4325 -0.177258 0)
(9.92652 -0.189477 0)
(10.3194 -0.275662 0)
(10.7059 -0.179568 0)
(10.951 -0.0745931 0)
(11.0771 -0.0662912 0)
(11.1444 -0.0796471 0)
(11.1984 -0.0754272 0)
(11.2542 -0.0617064 0)
(11.3108 -0.0461795 0)
(11.3661 -0.0398553 0)
(11.4169 -0.0343203 0)
(11.4625 -0.0373295 0)
(11.5011 -0.0351601 0)
(11.5357 -0.0419306 0)
(11.5649 -0.0443686 0)
(11.5873 -0.0594957 0)
(11.6034 -0.0744152 0)
(11.6013 -0.106053 0)
(11.5679 -0.138419 0)
(11.4502 -0.171926 0)
(9.92618 -0.22908 0)
(10.3513 -0.319261 0)
(10.7506 -0.201207 0)
(10.9893 -0.0867841 0)
(11.1074 -0.0801909 0)
(11.1744 -0.0919497 0)
(11.2299 -0.0862734 0)
(11.2864 -0.0699118 0)
(11.3417 -0.0534084 0)
(11.3962 -0.0456068 0)
(11.4455 -0.0396757 0)
(11.4908 -0.0421188 0)
(11.5285 -0.0397303 0)
(11.5632 -0.0466766 0)
(11.5901 -0.0481899 0)
(11.613 -0.0638492 0)
(11.6264 -0.0771466 0)
(11.6231 -0.109579 0)
(11.59 -0.139001 0)
(11.4736 -0.167931 0)
(9.92784 -0.273064 0)
(10.3881 -0.364089 0)
(10.8033 -0.21744 0)
(11.0311 -0.101642 0)
(11.1437 -0.096073 0)
(11.2083 -0.104399 0)
(11.267 -0.0969821 0)
(11.3224 -0.0776687 0)
(11.3779 -0.0609694 0)
(11.4303 -0.0511301 0)
(11.4791 -0.045478 0)
(11.5231 -0.0464785 0)
(11.5611 -0.0447349 0)
(11.5944 -0.0507931 0)
(11.621 -0.0523538 0)
(11.6427 -0.0674908 0)
(11.6537 -0.0798643 0)
(11.65 -0.112693 0)
(11.6168 -0.140065 0)
(11.5026 -0.165985 0)
(9.93312 -0.322764 0)
(10.4279 -0.409003 0)
(10.8662 -0.230196 0)
(11.073 -0.118516 0)
(11.1884 -0.113163 0)
(11.2432 -0.116703 0)
(11.3124 -0.107037 0)
(11.3598 -0.0849134 0)
(11.4218 -0.068432 0)
(11.4663 -0.0565356 0)
(11.5208 -0.0513383 0)
(11.5583 -0.0506643 0)
(11.6014 -0.0497491 0)
(11.6286 -0.0546497 0)
(11.6593 -0.0562849 0)
(11.6746 -0.0707555 0)
(11.6875 -0.0819044 0)
(11.6787 -0.115811 0)
(11.646 -0.140372 0)
(11.5316 -0.168411 0)
(9.93868 -0.378538 0)
(10.4716 -0.453789 0)
(10.9398 -0.241856 0)
(11.1141 -0.136625 0)
(11.2437 -0.130923 0)
(11.2779 -0.128776 0)
(11.3699 -0.116418 0)
(11.3968 -0.0918301 0)
(11.479 -0.0758728 0)
(11.5023 -0.0620995 0)
(11.5759 -0.0574181 0)
(11.5924 -0.0549228 0)
(11.6527 -0.0549253 0)
(11.6585 -0.0582737 0)
(11.7029 -0.0600242 0)
(11.6953 -0.0735523 0)
(11.717 -0.0829725 0)
(11.6838 -0.118427 0)
(11.6525 -0.138474 0)
(11.5197 -0.174816 0)
(9.93566 -0.440272 0)
(10.5279 -0.498412 0)
(11.0183 -0.253547 0)
(11.1635 -0.156106 0)
(11.3058 -0.149363 0)
(11.3215 -0.14094 0)
(11.4372 -0.125449 0)
(11.4396 -0.0988924 0)
(11.5442 -0.0835534 0)
(11.5355 -0.0679628 0)
(11.6296 -0.0637871 0)
(11.6069 -0.058974 0)
(11.6841 -0.0599669 0)
(11.6434 -0.0606491 0)
(11.6996 -0.0630883 0)
(11.6399 -0.0739502 0)
(11.6674 -0.0824163 0)
(11.5783 -0.117428 0)
(11.5439 -0.13283 0)
(11.3637 -0.17955 0)
(9.92235 -0.508879 0)
(10.6045 -0.54028 0)
(11.0992 -0.266055 0)
(11.2337 -0.177452 0)
(11.3708 -0.168252 0)
(11.3829 -0.153307 0)
(11.4941 -0.133538 0)
(11.4717 -0.105748 0)
(11.562 -0.0898162 0)
(11.5089 -0.0726049 0)
(11.5851 -0.0677296 0)
(11.5049 -0.0605728 0)
(11.5659 -0.0615834 0)
(11.4599 -0.0591585 0)
(11.5062 -0.0624609 0)
(11.3787 -0.0689746 0)
(11.4029 -0.0787823 0)
(11.2458 -0.108577 0)
(11.2086 -0.124294 0)
(10.9722 -0.173614 0)
(9.9104 -0.586 0)
(10.7034 -0.574823 0)
(11.1925 -0.282801 0)
(11.3191 -0.202236 0)
(11.4164 -0.187447 0)
(11.3975 -0.163351 0)
(11.4357 -0.137226 0)
(11.3488 -0.107627 0)
(11.3593 -0.0892652 0)
(11.239 -0.0707498 0)
(11.2537 -0.0641669 0)
(11.1144 -0.0559408 0)
(11.1369 -0.0560185 0)
(10.9786 -0.0524159 0)
(11.0085 -0.0556368 0)
(10.8307 -0.0598533 0)
(10.8547 -0.0700543 0)
(10.6441 -0.0950181 0)
(10.6127 -0.11038 0)
(10.3262 -0.158568 0)
(9.92472 -0.67295 0)
(10.8234 -0.60615 0)
(11.2684 -0.309438 0)
(11.3122 -0.229308 0)
(11.2678 -0.198483 0)
(11.1196 -0.160309 0)
(11.0112 -0.12713 0)
(10.8251 -0.0962868 0)
(10.7399 -0.0768183 0)
(10.5667 -0.0592892 0)
(10.5287 -0.0526387 0)
(10.3617 -0.0453993 0)
(10.3564 -0.0453569 0)
(10.1786 -0.0422297 0)
(10.197 -0.0454979 0)
(9.99735 -0.0484665 0)
(10.0218 -0.058951 0)
(9.77951 -0.0777313 0)
(9.75431 -0.0952654 0)
(9.43207 -0.127714 0)
(10.0031 -0.783228 0)
(10.8835 -0.637142 0)
(11.1095 -0.330432 0)
(10.8869 -0.233221 0)
(10.5954 -0.179701 0)
(10.2844 -0.132749 0)
(10.0546 -0.0994057 0)
(9.81282 -0.0728244 0)
(9.67756 -0.0565237 0)
(9.49508 -0.043147 0)
(9.43299 -0.0381264 0)
(9.27018 -0.0332254 0)
(9.24977 -0.0333428 0)
(9.07804 -0.0314516 0)
(9.08631 -0.0342363 0)
(8.88848 -0.0367494 0)
(8.90863 -0.0461891 0)
(8.65597 -0.0591399 0)
(8.63527 -0.078379 0)
(8.29209 -0.0868789 0)
(10.0802 -0.919791 0)
(10.5573 -0.63718 0)
(10.3049 -0.307604 0)
(9.73513 -0.192242 0)
(9.25465 -0.130488 0)
(8.87309 -0.089779 0)
(8.60845 -0.0651165 0)
(8.37225 -0.0470442 0)
(8.23159 -0.035953 0)
(8.07033 -0.0275057 0)
(8.00444 -0.0243488 0)
(7.86503 -0.0217371 0)
(7.83745 -0.0218767 0)
(7.68878 -0.0211985 0)
(7.68696 -0.0230889 0)
(7.51 -0.0254967 0)
(7.52045 -0.0325286 0)
(7.27907 -0.041304 0)
(7.26263 -0.0579647 0)
(6.90623 -0.0532687 0)
(9.79268 -0.994113 0)
(9.39947 -0.553948 0)
(8.61305 -0.226863 0)
(7.83681 -0.119613 0)
(7.33262 -0.0718745 0)
(6.98787 -0.0475562 0)
(6.75715 -0.0344096 0)
(6.56529 -0.0247859 0)
(6.44822 -0.0187254 0)
(6.32396 -0.0144633 0)
(6.26824 -0.0128752 0)
(6.16171 -0.011986 0)
(6.13343 -0.01204 0)
(6.01801 -0.0121868 0)
(6.00766 -0.013111 0)
(5.86622 -0.0152764 0)
(5.86337 -0.0193257 0)
(5.65741 -0.025042 0)
(5.6401 -0.0367578 0)
(5.29097 -0.0270592 0)
(8.58236 -0.851721 0)
(7.07534 -0.371157 0)
(6.0127 -0.115774 0)
(5.30378 -0.0469473 0)
(4.93403 -0.0244188 0)
(4.70056 -0.0164814 0)
(4.54475 -0.0122719 0)
(4.41828 -0.00880387 0)
(4.34087 -0.0065128 0)
(4.26183 -0.00517965 0)
(4.22401 -0.0046931 0)
(4.15523 -0.00472918 0)
(4.13195 -0.00470501 0)
(4.05582 -0.00513465 0)
(4.04142 -0.00535478 0)
(3.9458 -0.00685756 0)
(3.93177 -0.00831981 0)
(3.78513 -0.0116662 0)
(3.75907 -0.0168981 0)
(3.47238 -0.0104676 0)
(5.37617 -0.304056 0)
(3.13869 -0.0609455 0)
(2.38318 0.0010796 0)
(2.05343 0.0034963 0)
(1.92577 0.00135754 0)
(1.8475 0.000249265 0)
(1.79223 1.13878e-05 0)
(1.74725 4.20181e-05 0)
(1.72008 8.2429e-05 0)
(1.6928 -4.10845e-05 0)
(1.67867 -5.86827e-05 0)
(1.65329 -0.000241576 0)
(1.642 -0.000162375 0)
(1.61261 -0.000385965 0)
(1.60257 -0.000241412 0)
(1.56416 -0.000679622 0)
(1.55018 -0.0005214 0)
(1.48797 -0.00135104 0)
(1.46035 -0.00153885 0)
(1.32814 0.00832248 0)
(2.56876 -0.525182 0)
(2.98701 -0.441234 0)
(3.39738 -0.463141 0)
(3.76643 -0.535368 0)
(4.09883 -0.623268 0)
(4.35306 -0.713848 0)
(4.67684 -0.802433 0)
(4.86607 -0.874975 0)
(5.17354 -0.911285 0)
(5.32673 -0.88178 0)
(5.61776 -0.854275 0)
(5.83543 -0.78951 0)
(6.15463 -0.733714 0)
(6.3856 -0.64868 0)
(6.68803 -0.607643 0)
(6.912 -0.553978 0)
(7.15895 -0.542525 0)
(7.39386 -0.604987 0)
(7.61287 -0.742718 0)
(7.8322 -0.967743 0)
(7.92538 -1.19924 0)
(8.00681 -1.39231 0)
(8.08153 -1.52726 0)
(8.13579 -1.66543 0)
(8.16981 -1.83209 0)
(8.18396 -2.00015 0)
(8.1981 -2.15809 0)
(8.22905 -2.30037 0)
(8.27337 -2.44104 0)
(8.31929 -2.57465 0)
(8.34792 -2.68262 0)
(8.37802 -2.77507 0)
(8.37448 -2.83937 0)
(8.3524 -2.88129 0)
(8.30392 -2.89669 0)
(8.22243 -2.87908 0)
(8.12637 -2.83926 0)
(8.00876 -2.77364 0)
(7.92671 -2.70598 0)
(7.87348 -2.63993 0)
(7.78474 -2.54688 0)
(7.67765 -2.43738 0)
(7.57234 -2.32249 0)
(7.45037 -2.19093 0)
(7.32896 -2.05541 0)
(7.2395 -1.93327 0)
(7.158 -1.81134 0)
(7.05956 -1.67415 0)
(6.96614 -1.5352 0)
(6.89878 -1.40922 0)
(6.84647 -1.28503 0)
(6.78862 -1.15288 0)
(6.71881 -1.01364 0)
(6.64101 -0.866584 0)
(6.55465 -0.717798 0)
(6.46299 -0.573283 0)
(6.36804 -0.433502 0)
(6.26742 -0.303289 0)
(6.16513 -0.185554 0)
(6.06274 -0.0816177 0)
(5.95968 0.00455397 0)
(5.8605 0.073007 0)
(5.76694 0.124895 0)
(5.6777 0.159129 0)
(5.59491 0.177206 0)
(5.52198 0.18347 0)
(5.46003 0.182035 0)
(5.40864 0.176194 0)
(5.36697 0.168328 0)
(5.33359 0.159591 0)
(5.30669 0.150365 0)
(5.28493 0.141 0)
(5.2677 0.13181 0)
(5.25448 0.122901 0)
(5.24449 0.1142 0)
(5.23691 0.105701 0)
(5.23119 0.097516 0)
(5.22712 0.0897985 0)
(5.22452 0.08261 0)
(5.22302 0.0759137 0)
(5.22201 0.0695952 0)
(5.22086 0.0635881 0)
(5.21919 0.0578447 0)
(5.21696 0.0524931 0)
(5.21454 0.0475679 0)
(5.21233 0.0433244 0)
(5.2109 0.0395654 0)
(5.21021 0.0365713 0)
(5.21057 0.0336393 0)
(5.21128 0.0314363 0)
(5.21276 0.0286013 0)
(5.21385 0.0269258 0)
(5.21562 0.0238062 0)
(5.21631 0.0230457 0)
(5.21798 0.0195334 0)
(5.21797 0.0203561 0)
(5.21944 0.016162 0)
(5.21871 0.0191044 0)
(5.21993 0.0136817 0)
(5.21866 0.0190342 0)
(5.21961 0.0118338 0)
(5.218 0.0196573 0)
(5.21872 0.0103452 0)
(5.21691 0.0205223 0)
(5.21755 0.00903924 0)
(5.21555 0.0212844 0)
(5.21635 0.00800439 0)
(5.21405 0.0215575 0)
(5.21549 0.00769316 0)
(5.21212 0.0209983 0)
(5.21562 0.00847318 0)
(5.20915 0.0198551 0)
(5.21718 0.00989144 0)
(5.20503 0.0191113 0)
(5.21946 0.0110114 0)
(5.2009 0.0194339 0)
(5.22071 0.0116388 0)
(5.1984 0.020226 0)
(5.21974 0.0126408 0)
(5.19801 0.0204916 0)
(5.21703 0.0146594 0)
(5.19859 0.0202862 0)
(5.21399 0.017153 0)
(5.19892 0.0205888 0)
(5.21125 0.0192768 0)
(5.19899 0.0218727 0)
(5.20829 0.0210267 0)
(5.19957 0.0237657 0)
(5.2046 0.0229014 0)
(5.20083 0.0259977 0)
(5.20043 0.0251518 0)
(5.2023 0.0286261 0)
(5.19621 0.0278759 0)
(5.20372 0.0315601 0)
(5.19193 0.0312586 0)
(5.20534 0.0348583 0)
(5.18735 0.0352224 0)
(5.2073 0.0389653 0)
(5.18245 0.0396014 0)
(5.20952 0.0440061 0)
(5.17735 0.0447143 0)
(5.21189 0.0497975 0)
(5.17223 0.0508612 0)
(5.21435 0.0566617 0)
(5.167 0.0579611 0)
(5.21711 0.0649872 0)
(5.16159 0.0663245 0)
(5.22003 0.0747784 0)
(5.15632 0.0764856 0)
(5.22296 0.0863063 0)
(5.15119 0.0886423 0)
(5.22595 0.0999338 0)
(5.14645 0.103309 0)
(5.22861 0.11586 0)
(5.14262 0.120985 0)
(5.23046 0.134757 0)
(5.14034 0.142011 0)
(5.23109 0.157021 0)
(5.1398 0.167655 0)
(5.23046 0.182627 0)
(5.14184 0.198791 0)
(5.22684 0.212998 0)
(5.14869 0.235378 0)
(5.21907 0.249315 0)
(5.16056 0.279468 0)
(5.20767 0.290891 0)
(5.17823 0.333333 0)
(5.19056 0.339774 0)
(5.20446 0.396423 0)
(5.16692 0.399208 0)
(5.23944 0.470052 0)
(5.13794 0.471353 0)
(5.28193 0.55593 0)
(5.1078 0.559911 0)
(5.32644 0.655455 0)
(5.08492 0.670731 0)
(5.36389 0.768424 0)
(5.08186 0.812005 0)
(5.37749 0.896891 0)
(5.11483 0.990103 0)
(5.34949 1.04666 0)
(5.19256 1.20687 0)
(5.27065 1.2353 0)
(5.30378 1.45659 0)
(5.16854 1.48928 0)
(5.39715 1.73149 0)
(5.12312 1.84257 0)
(5.38158 2.03676 0)
(5.20461 2.29003 0)
(5.20732 2.45563 0)
(5.32857 2.76956 0)
(5.13492 3.09133 0)
(5.18253 3.38596 0)
(5.08312 3.88883 0)
(4.94634 4.37649 0)
(5.19361 4.80663 0)
(5.00722 5.68581 0)
(4.80842 6.77406 0)
(5.28548 7.77804 0)
(3.00256 11.126 0)
(4.44946 -0.569066 0)
(4.59106 -0.544395 0)
(4.78451 -0.594723 0)
(4.98107 -0.652592 0)
(5.18827 -0.719106 0)
(5.36123 -0.81212 0)
(5.54937 -0.893353 0)
(5.61723 -0.948142 0)
(5.74111 -0.985042 0)
(5.77886 -0.972189 0)
(5.95227 -0.970554 0)
(6.13304 -0.923145 0)
(6.37694 -0.865675 0)
(6.58669 -0.781328 0)
(6.85768 -0.73411 0)
(7.10515 -0.678711 0)
(7.38288 -0.652433 0)
(7.62066 -0.695641 0)
(7.82855 -0.821897 0)
(8.05565 -1.0269 0)
(8.15471 -1.23192 0)
(8.19793 -1.41343 0)
(8.24747 -1.55451 0)
(8.30944 -1.68843 0)
(8.36269 -1.84745 0)
(8.41243 -2.01403 0)
(8.46755 -2.17622 0)
(8.53216 -2.3234 0)
(8.59199 -2.46391 0)
(8.63162 -2.58934 0)
(8.64154 -2.68907 0)
(8.63852 -2.77217 0)
(8.59926 -2.82783 0)
(8.54361 -2.862 0)
(8.45519 -2.86468 0)
(8.34603 -2.83895 0)
(8.23347 -2.79603 0)
(8.1265 -2.73612 0)
(8.05936 -2.67654 0)
(7.98179 -2.60338 0)
(7.86282 -2.5009 0)
(7.74358 -2.39088 0)
(7.62258 -2.27258 0)
(7.48903 -2.13859 0)
(7.37649 -2.01215 0)
(7.29237 -1.89699 0)
(7.19965 -1.77115 0)
(7.09533 -1.6327 0)
(7.01335 -1.50251 0)
(6.95911 -1.38541 0)
(6.90799 -1.26246 0)
(6.84313 -1.12601 0)
(6.76506 -0.981967 0)
(6.68115 -0.831393 0)
(6.59049 -0.680084 0)
(6.49455 -0.533756 0)
(6.39575 -0.392191 0)
(6.29109 -0.260479 0)
(6.18455 -0.141852 0)
(6.07847 -0.0377893 0)
(5.97127 0.0472302 0)
(5.86815 0.113356 0)
(5.77228 0.163044 0)
(5.68153 0.195069 0)
(5.59693 0.209857 0)
(5.52199 0.211915 0)
(5.45821 0.206093 0)
(5.40525 0.196028 0)
(5.36239 0.184325 0)
(5.32834 0.172413 0)
(5.30121 0.160702 0)
(5.2794 0.149284 0)
(5.2621 0.138284 0)
(5.24879 0.127809 0)
(5.23879 0.117873 0)
(5.23127 0.108437 0)
(5.22566 0.0994952 0)
(5.22168 0.091106 0)
(5.21922 0.0833509 0)
(5.21798 0.0762875 0)
(5.21742 0.0698652 0)
(5.21686 0.0639918 0)
(5.21583 0.0584897 0)
(5.21414 0.0533404 0)
(5.21208 0.0484479 0)
(5.20996 0.0440583 0)
(5.20845 0.0399802 0)
(5.20752 0.0366479 0)
(5.20772 0.0333452 0)
(5.20826 0.0309593 0)
(5.20986 0.0278932 0)
(5.211 0.0263158 0)
(5.21322 0.0230122 0)
(5.21406 0.0226318 0)
(5.21637 0.0187791 0)
(5.21642 0.0203305 0)
(5.21858 0.0154077 0)
(5.21775 0.0195905 0)
(5.21959 0.012792 0)
(5.21817 0.0201219 0)
(5.21945 0.0106336 0)
(5.21799 0.0214187 0)
(5.2183 0.00864094 0)
(5.21764 0.0230458 0)
(5.21628 0.00660301 0)
(5.21761 0.0246602 0)
(5.21338 0.00465727 0)
(5.21841 0.0258253 0)
(5.20968 0.00341018 0)
(5.22004 0.0259701 0)
(5.20575 0.00356137 0)
(5.22176 0.025093 0)
(5.2024 0.00488219 0)
(5.22274 0.0241553 0)
(5.19996 0.00630208 0)
(5.22273 0.0240777 0)
(5.19825 0.00732283 0)
(5.22174 0.0245329 0)
(5.19742 0.00856459 0)
(5.21959 0.0246847 0)
(5.19774 0.0105399 0)
(5.21641 0.0246381 0)
(5.19871 0.0127913 0)
(5.213 0.0251783 0)
(5.19938 0.0148238 0)
(5.20989 0.0262815 0)
(5.19985 0.0170966 0)
(5.20638 0.0272417 0)
(5.20117 0.0201272 0)
(5.2018 0.0281517 0)
(5.20343 0.0235457 0)
(5.19668 0.0297799 0)
(5.20571 0.0269136 0)
(5.19172 0.0322527 0)
(5.20782 0.0305767 0)
(5.18669 0.0351609 0)
(5.21028 0.0350521 0)
(5.18114 0.0385058 0)
(5.2132 0.0403378 0)
(5.17529 0.0425974 0)
(5.21628 0.0464086 0)
(5.16932 0.047573 0)
(5.21967 0.0534827 0)
(5.16297 0.0535727 0)
(5.22364 0.061755 0)
(5.15615 0.0607918 0)
(5.22826 0.0714365 0)
(5.14884 0.0695685 0)
(5.23364 0.0826052 0)
(5.14114 0.0803385 0)
(5.23951 0.0956643 0)
(5.13344 0.0931252 0)
(5.24587 0.111228 0)
(5.12568 0.108464 0)
(5.25275 0.12936 0)
(5.11834 0.127109 0)
(5.2598 0.150572 0)
(5.11174 0.149496 0)
(5.26677 0.175572 0)
(5.10701 0.176186 0)
(5.27256 0.205216 0)
(5.10493 0.208311 0)
(5.27751 0.23911 0)
(5.10587 0.248304 0)
(5.27973 0.278101 0)
(5.11383 0.295542 0)
(5.27555 0.325089 0)
(5.13099 0.352003 0)
(5.26494 0.378879 0)
(5.15876 0.421114 0)
(5.24479 0.441519 0)
(5.20046 0.503783 0)
(5.21434 0.516097 0)
(5.25656 0.60116 0)
(5.17457 0.607901 0)
(5.32439 0.714618 0)
(5.13368 0.722554 0)
(5.39349 0.844796 0)
(5.10768 0.870943 0)
(5.44425 0.99127 0)
(5.12189 1.0639 0)
(5.44695 1.15708 0)
(5.19851 1.30766 0)
(5.37475 1.35944 0)
(5.33399 1.5937 0)
(5.25047 1.63317 0)
(5.46591 1.90731 0)
(5.19225 2.02665 0)
(5.47242 2.24989 0)
(5.31057 2.54084 0)
(5.27128 2.73929 0)
(5.47136 3.06948 0)
(5.31866 3.47386 0)
(5.461 3.77607 0)
(5.37441 4.39631 0)
(5.2288 5.04512 0)
(5.264 5.64686 0)
(5.15704 6.86974 0)
(6.52105 7.62809 0)
(4.28154 11.9516 0)
(6.18026 -0.49398 0)
(6.15393 -0.570955 0)
(6.27983 -0.637309 0)
(6.39354 -0.699215 0)
(6.52098 -0.76866 0)
(6.5982 -0.846984 0)
(6.66356 -0.911839 0)
(6.62684 -0.951487 0)
(6.63381 -0.988054 0)
(6.63045 -0.994499 0)
(6.71771 -1.00689 0)
(6.77272 -0.974415 0)
(6.84896 -0.925608 0)
(6.93162 -0.864112 0)
(7.10137 -0.827746 0)
(7.28106 -0.795774 0)
(7.54247 -0.776771 0)
(7.82476 -0.796783 0)
(8.0478 -0.898152 0)
(8.2711 -1.07636 0)
(8.3801 -1.25401 0)
(8.41409 -1.42323 0)
(8.44976 -1.57797 0)
(8.52476 -1.72341 0)
(8.62387 -1.88213 0)
(8.71918 -2.04556 0)
(8.80296 -2.20499 0)
(8.86449 -2.34607 0)
(8.90424 -2.47732 0)
(8.91066 -2.59003 0)
(8.8874 -2.68115 0)
(8.84782 -2.75569 0)
(8.77846 -2.80275 0)
(8.69227 -2.82679 0)
(8.57625 -2.82013 0)
(8.45656 -2.79338 0)
(8.34776 -2.75392 0)
(8.25708 -2.70089 0)
(8.17933 -2.64016 0)
(8.06328 -2.5552 0)
(7.92289 -2.44783 0)
(7.79465 -2.33846 0)
(7.65907 -2.21702 0)
(7.52568 -2.08668 0)
(7.42566 -1.97128 0)
(7.33836 -1.85788 0)
(7.23417 -1.72732 0)
(7.13505 -1.59374 0)
(7.06982 -1.47578 0)
(7.02338 -1.36428 0)
(6.96668 -1.23818 0)
(6.89191 -1.09555 0)
(6.80639 -0.94704 0)
(6.71792 -0.794021 0)
(6.62406 -0.640582 0)
(6.5244 -0.492549 0)
(6.42206 -0.349236 0)
(6.31379 -0.215672 0)
(6.20322 -0.0964109 0)
(6.09381 0.00745697 0)
(5.98333 0.0913873 0)
(5.87672 0.155059 0)
(5.77876 0.202084 0)
(5.68688 0.231688 0)
(5.60102 0.243266 0)
(5.52493 0.241124 0)
(5.4602 0.230792 0)
(5.40628 0.216352 0)
(5.36248 0.200672 0)
(5.32774 0.185432 0)
(5.30022 0.171123 0)
(5.27824 0.157635 0)
(5.26085 0.144874 0)
(5.2475 0.132885 0)
(5.2375 0.121736 0)
(5.22999 0.111377 0)
(5.22434 0.101687 0)
(5.22026 0.0926192 0)
(5.21771 0.0842518 0)
(5.21649 0.0767336 0)
(5.21618 0.0700985 0)
(5.21613 0.0642674 0)
(5.21585 0.058964 0)
(5.21497 0.0540387 0)
(5.21366 0.0492493 0)
(5.21201 0.0448103 0)
(5.21069 0.0404953 0)
(5.20958 0.0368784 0)
(5.20948 0.0332067 0)
(5.20945 0.0306145 0)
(5.2107 0.0272544 0)
(5.21125 0.0257367 0)
(5.2134 0.0221736 0)
(5.2137 0.0221842 0)
(5.21631 0.0179019 0)
(5.21577 0.0202825 0)
(5.21861 0.0144707 0)
(5.21699 0.0201375 0)
(5.21992 0.0116429 0)
(5.21731 0.0214152 0)
(5.22021 0.00906306 0)
(5.21689 0.0235748 0)
(5.21967 0.00642895 0)
(5.21594 0.026138 0)
(5.21865 0.00358314 0)
(5.21475 0.0287484 0)
(5.2175 0.000726684 0)
(5.21348 0.0308561 0)
(5.2167 -0.00131182 0)
(5.21182 0.031704 0)
(5.21699 -0.00165303 0)
(5.20912 0.0312649 0)
(5.21859 -0.000653384 0)
(5.2057 0.0307924 0)
(5.22003 0.000371722 0)
(5.2034 0.0312656 0)
(5.21924 0.0010508 0)
(5.20349 0.0319985 0)
(5.21611 0.00233535 0)
(5.20487 0.0318796 0)
(5.21272 0.00478178 0)
(5.20551 0.0312516 0)
(5.2105 0.0076331 0)
(5.20508 0.0313114 0)
(5.20855 0.0100927 0)
(5.20498 0.0321331 0)
(5.2055 0.0125938 0)
(5.20593 0.0329765 0)
(5.20158 0.0156854 0)
(5.20738 0.0339766 0)