/*--------------------------------*- C++ -*----------------------------------*\
| =========                 |                                                 |
| \\      /  F ield         | OpenFOAM: The Open Source CFD Toolbox           |
|  \\    /   O peration     | Version:  2.4.0                                 |
|   \\  /    A nd           | Web:      www.OpenFOAM.org                      |
|    \\/     M anipulation  |                                                 |
\*---------------------------------------------------------------------------*/
FoamFile
{
    version     2.0;
    format      ascii;
    class       volScalarField;
    location    "0.002";
    object      p;
}
// * * * * * * * * * * * * * * * * * * * * * * * * * * * * * * * * * * * * * //

dimensions      [0 2 -2 0 0 0 0];

internalField   nonuniform List<scalar> 
4400
(
222.062
195.134
186.729
180.511
172.309
163.347
154.155
144.072
132.397
91.0372
220.555
194.963
186.689
180.51
172.312
163.35
154.173
144.172
132.852
103.905
219.435
194.881
186.746
180.52
172.312
163.35
154.192
144.298
133.313
114.707
218.536
194.832
186.783
180.527
172.311
163.356
154.213
144.711
133.927
119.82
217.78
194.774
186.814
180.534
172.31
163.36
154.258
144.78
134.978
123.605
217.157
194.716
186.837
180.54
172.31
163.367
154.305
145.106
135.725
126.892
216.664
194.665
186.854
180.544
172.311
163.376
154.368
145.372
136.576
129.587
216.298
194.623
186.866
180.548
172.312
163.387
154.438
145.644
137.379
131.685
216.056
194.594
186.873
180.55
172.314
163.4
154.514
145.909
138.125
133.445
215.935
194.579
186.877
180.551
172.317
163.414
154.592
146.162
138.806
134.874
215.935
194.579
186.877
180.551
172.32
163.431
154.67
146.398
139.415
136.043
216.056
194.594
186.873
180.55
172.323
163.448
154.747
146.615
139.947
136.984
216.298
194.623
186.865
180.548
172.328
163.465
154.819
146.81
140.4
137.724
216.664
194.665
186.853
180.545
172.332
163.482
154.885
146.979
140.774
138.282
217.156
194.716
186.836
180.54
172.337
163.499
154.944
147.122
141.068
138.67
217.779
194.774
186.812
180.535
172.341
163.514
154.995
147.238
141.284
138.895
218.536
194.832
186.782
180.528
172.346
163.528
155.036
147.328
141.423
138.965
219.434
194.881
186.745
180.522
172.351
163.541
155.068
147.394
141.49
138.886
220.555
194.963
186.688
180.513
172.355
163.551
155.091
147.438
141.499
138.477
222.061
195.135
186.728
180.514
172.355
163.559
155.104
147.463
141.513
138.315
97.2582
138.658
152.458
156.237
158.733
160.437
161.379
161.844
162.076
162.178
162.197
162.162
162.093
162.001
161.894
161.777
161.652
161.523
161.391
161.256
161.119
160.981
160.842
160.703
160.563
160.422
160.281
160.14
159.998
159.857
159.715
159.573
159.431
159.288
159.146
159.004
158.862
158.719
158.577
158.434
158.292
158.149
158.007
157.864
157.721
157.579
157.436
157.294
157.151
157.008
156.866
156.723
156.58
156.438
156.295
156.152
156.01
155.867
155.724
155.581
155.439
155.296
155.153
155.01
154.867
154.725
154.582
154.438
154.295
154.152
154.008
153.865
153.721
153.576
153.432
153.286
153.14
152.993
152.845
152.695
152.542
152.387
152.227
152.061
151.887
151.702
151.501
151.278
151.024
150.724
150.359
149.895
149.291
148.429
147.296
145.189
143.282
136.385
139.472
105.373
105.18
133.625
151.348
156.403
158.331
159.812
160.834
161.399
161.706
161.869
161.939
161.946
161.912
161.849
161.766
161.668
161.561
161.446
161.326
161.201
161.073
160.942
160.81
160.675
160.539
160.402
160.265
160.126
159.987
159.847
159.706
159.566
159.425
159.284
159.142
159
158.859
158.717
158.575
158.432
158.29
158.148
158.006
157.863
157.721
157.578
157.436
157.293
157.151
157.008
156.865
156.723
156.58
156.437
156.295
156.152
156.009
155.866
155.723
155.581
155.438
155.295
155.152
155.008
154.865
154.722
154.578
154.434
154.29
154.145
154
153.855
153.708
153.561
153.413
153.263
153.112
152.959
152.803
152.643
152.479
152.31
152.133
151.946
151.747
151.53
151.29
151.02
150.707
150.334
149.878
149.299
148.55
147.477
146.129
143.416
141.422
131.479
133.815
98.1263
116.591
131.523
147.862
155.401
157.764
159.187
160.285
160.951
161.336
161.56
161.681
161.73
161.73
161.696
161.637
161.56
161.47
161.37
161.261
161.147
161.027
160.904
160.777
160.648
160.516
160.383
160.248
160.112
159.975
159.837
159.698
159.559
159.419
159.279
159.138
158.997
158.856
158.714
158.573
158.431
158.289
158.147
158.004
157.862
157.72
157.578
157.435
157.293
157.15
157.007
156.865
156.722
156.58
156.437
156.294
156.151
156.009
155.866
155.723
155.58
155.437
155.293
155.15
155.006
154.863
154.719
154.574
154.43
154.284
154.139
153.992
153.845
153.696
153.546
153.395
153.241
153.085
152.925
152.761
152.593
152.417
152.234
152.04
151.832
151.607
151.36
151.082
150.764
150.393
149.948
149.402
148.709
147.815
146.547
144.982
141.826
139.84
128.086
124.794
94.1113
123.177
132.861
146.805
154.193
156.914
158.497
159.717
160.499
160.966
161.252
161.423
161.514
161.549
161.544
161.509
161.453
161.379
161.293
161.197
161.093
160.982
160.865
160.745
160.621
160.493
160.364
160.232
160.098
159.963
159.827
159.69
159.552
159.413
159.274
159.134
158.994
158.853
158.712
158.571
158.429
158.287
158.145
158.003
157.861
157.719
157.577
157.435
157.292
157.15
157.007
156.865
156.722
156.579
156.436
156.294
156.151
156.008
155.865
155.722
155.579
155.435
155.292
155.148
155.004
154.86
154.716
154.571
154.425
154.279
154.132
153.984
153.835
153.684
153.531
153.376
153.219
153.057
152.892
152.721
152.543
152.356
152.159
151.949
151.721
151.471
151.192
150.877
150.513
150.084
149.569
148.934
148.13
147.093
145.652
143.839
140.461
138.032
126.608
117.854
91.85
126.086
133.697
146.254
153.695
156.504
158.007
159.216
160.064
160.602
160.948
161.169
161.301
161.37
161.394
161.383
161.347
161.29
161.218
161.134
161.039
160.937
160.828
160.713
160.594
160.471
160.345
160.216
160.085
159.952
159.818
159.682
159.545
159.408
159.269
159.13
158.99
158.85
158.709
158.569
158.427
158.286
158.144
158.002
157.861
157.718
157.576
157.434
157.292
157.149
157.007
156.864
156.722
156.579
156.436
156.293
156.15
156.007
155.864
155.721
155.578
155.434
155.291
155.147
155.003
154.858
154.713
154.567
154.421
154.274
154.126
153.976
153.825
153.672
153.517
153.359
153.197
153.031
152.859
152.681
152.494
152.297
152.086
151.859
151.612
151.337
151.029
150.676
150.267
149.783
149.199
148.478
147.568
146.392
144.799
142.72
139.287
136.009
125.938
115.615
94.0671
131.417
136.824
145.792
152.436
155.694
157.424
158.71
159.635
160.245
160.65
160.918
161.091
161.194
161.246
161.259
161.242
161.202
161.144
161.072
160.987
160.893
160.791
160.682
160.568
160.449
160.326
160.2
160.072
159.941
159.809
159.674
159.539
159.402
159.264
159.126
158.987
158.847
158.707
158.567
158.426
158.285
158.143
158.001
157.86
157.718
157.576
157.433
157.291
157.149
157.006
156.864
156.721
156.579
156.436
156.293
156.15
156.007
155.864
155.721
155.577
155.433
155.289
155.145
155.001
154.856
154.71
154.564
154.417
154.269
154.119
153.969
153.816
153.661
153.503
153.342
153.176
153.005
152.828
152.643
152.447
152.239
152.016
151.773
151.506
151.208
150.87
150.483
150.03
149.492
148.841
148.038
147.028
145.721
143.991
141.658
138.244
134.055
125.563
115.367
99.7104
133.68
138.063
145.529
151.725
155.11
156.936
158.252
159.228
159.9
160.359
160.674
160.886
161.022
161.101
161.137
161.14
161.117
161.072
161.011
160.936
160.85
160.755
160.652
160.542
160.427
160.308
160.185
160.059
159.93
159.8
159.667
159.532
159.397
159.26
159.122
158.984
158.845
158.705
158.565
158.424
158.283
158.142
158.001
157.859
157.717
157.575
157.433
157.291
157.148
157.006
156.863
156.721
156.578
156.435
156.293
156.15
156.006
155.863
155.72
155.576
155.432
155.288
155.144
154.999
154.854
154.707
154.561
154.413
154.264
154.113
153.961
153.807
153.65
153.49
153.325
153.156
152.981
152.798
152.606
152.402
152.184
151.948
151.69
151.405
151.084
150.719
150.297
149.802
149.212
148.499
147.618
146.512
145.086
143.231
140.683
137.283
132.406
125.432
115.067
105.178
136.179
139.854
145.656
151.096
154.496
156.445
157.814
158.839
159.567
160.078
160.437
160.687
160.854
160.961
161.019
161.041
161.033
161.002
160.952
160.887
160.808
160.72
160.622
160.517
160.407
160.291
160.171
160.047
159.92
159.791
159.659
159.526
159.392
159.256
159.119
158.981
158.842
158.703
158.563
158.423
158.282
158.141
158
157.858
157.716
157.575
157.432
157.29
157.148
157.006
156.863
156.721
156.578
156.435
156.292
156.149
156.006
155.863
155.719
155.576
155.432
155.287
155.142
154.997
154.851
154.705
154.558
154.409
154.259
154.108
153.954
153.798
153.64
153.477
153.31
153.137
152.957
152.769
152.571
152.359
152.132
151.884
151.612
151.308
150.966
150.574
150.12
149.585
148.947
148.174
147.22
146.027
144.493
142.523
139.811
136.4
131.144
125.298
114.768
108.687
137.916
141.068
145.838
150.655
153.967
155.992
157.407
158.472
159.25
159.808
160.209
160.494
160.693
160.825
160.905
160.945
160.953
160.935
160.896
160.839
160.769
160.686
160.594
160.494
160.387
160.274
160.157
160.035
159.91
159.783
159.652
159.52
159.387
159.252
159.115
158.978
158.84
158.701
158.561
158.421
158.281
158.14
157.999
157.857
157.716
157.574
157.432
157.29
157.148
157.005
156.863
156.72
156.578
156.435
156.292
156.149
156.006
155.862
155.719
155.575
155.431
155.286
155.141
154.996
154.85
154.703
154.555
154.406
154.255
154.103
153.948
153.791
153.63
153.465
153.295
153.119
152.935
152.742
152.538
152.319
152.082
151.824
151.538
151.218
150.855
150.438
149.953
149.382
148.698
147.869
146.848
145.574
143.946
141.875
139.044
135.604
130.231
125.057
114.791
110.195
139.281
142.1
146.108
150.342
153.502
155.567
157.025
158.128
158.949
159.551
159.991
160.31
160.538
160.695
160.796
160.854
160.876
160.87
160.842
160.794
160.73
160.654
160.567
160.471
160.368
160.258
160.143
160.024
159.901
159.775
159.646
159.515
159.382
159.248
159.112
158.975
158.837
158.699
158.56
158.42
158.28
158.139
157.998
157.857
157.715
157.573
157.432
157.29
157.147
157.005
156.863
156.72
156.577
156.434
156.292
156.148
156.005
155.862
155.718
155.574
155.43
155.285
155.14
154.994
154.848
154.7
154.552
154.402
154.251
154.098
153.942
153.783
153.621
153.454
153.282
153.102
152.915
152.717
152.507
152.281
152.036
151.767
151.469
151.133
150.752
150.312
149.799
149.192
148.467
147.587
146.505
145.159
143.448
141.288
138.38
134.901
129.579
124.71
115.009
110.414
140.318
142.888
146.367
150.12
153.106
155.177
156.67
157.806
158.665
159.307
159.783
160.135
160.39
160.571
160.692
160.767
160.803
160.809
160.79
160.751
160.694
160.624
160.542
160.45
160.35
160.243
160.131
160.013
159.892
159.767
159.64
159.51
159.378
159.244
159.109
158.972
158.835
158.697
158.558
158.418
158.278
158.138
157.997
157.856
157.715
157.573
157.431
157.289
157.147
157.005
156.862
156.72
156.577
156.434
156.291
156.148
156.005
155.861
155.718
155.574
155.429
155.284
155.139
154.993
154.846
154.698
154.55
154.399
154.247
154.093
153.936
153.776
153.612
153.444
153.269
153.087
152.896
152.694
152.479
152.247
151.994
151.716
151.405
151.056
150.657
150.196
149.657
149.019
148.255
147.329
146.192
144.782
143
140.767
137.809
134.29
129.101
124.298
115.265
110.119
141.104
143.493
146.593
149.958
152.767
154.822
156.34
157.506
158.4
159.078
159.588
159.97
160.251
160.454
160.594
160.684
160.734
160.751
160.742
160.71
160.66
160.595
160.518
160.43
160.333
160.229
160.119
160.003
159.883
159.76
159.634
159.505
159.373
159.24
159.106
158.97
158.833
158.695
158.557
158.417
158.277
158.137
157.996
157.855
157.714
157.573
157.431
157.289
157.147
157.004
156.862
156.719
156.577
156.434
156.291
156.148
156.004
155.861
155.717
155.573
155.428
155.283
155.138
154.992
154.845
154.697
154.547
154.397
154.244
154.089
153.931
153.77
153.605
153.435
153.258
153.073
152.879
152.674
152.454
152.216
151.956
151.669
151.348
150.986
150.571
150.091
149.528
148.862
148.064
147.096
145.911
144.445
142.606
140.311
137.323
133.769
128.737
123.884
115.51
109.768
141.687
143.939
146.769
149.83
152.476
154.5
156.036
157.228
158.154
158.864
159.406
159.815
160.121
160.344
160.502
160.608
160.67
160.698
160.697
160.672
160.629
160.569
160.496
160.411
160.317
160.216
160.108
159.994
159.876
159.754
159.628
159.5
159.37
159.237
159.103
158.968
158.831
158.694
158.555
158.416
158.276
158.136
157.996
157.855
157.714
157.572
157.43
157.289
157.146
157.004
156.862
156.719
156.577
156.434
156.291
156.148
156.004
155.861
155.717
155.572
155.428
155.283
155.137
154.991
154.843
154.695
154.545
154.394
154.241
154.085
153.927
153.765
153.598
153.426
153.248
153.061
152.864
152.655
152.431
152.188
151.922
151.627
151.297
150.923
150.495
149.998
149.414
148.723
147.895
146.891
145.664
144.151
142.263
139.919
136.915
133.334
128.454
123.523
115.742
109.551
142.1
144.251
146.89
149.718
152.223
154.21
155.757
156.973
157.926
158.666
159.237
159.672
160
160.243
160.418
160.537
160.611
160.648
160.655
160.638
160.6
160.544
160.475
160.394
160.303
160.204
160.098
159.986
159.869
159.748
159.623
159.496
159.366
159.234
159.101
158.966
158.829
158.692
158.554
158.415
158.276
158.136
157.995
157.854
157.713
157.572
157.43
157.288
157.146
157.004
156.862
156.719
156.576
156.433
156.29
156.147
156.004
155.86
155.716
155.572
155.427
155.282
155.136
154.99
154.842
154.694
154.544
154.392
154.239
154.082
153.923
153.76
153.593
153.419
153.239
153.051
152.851
152.639
152.412
152.164
151.893
151.592
151.253
150.87
150.429
149.917
149.316
148.603
147.749
146.715
145.453
143.901
141.974
139.592
136.58
132.982
128.237
123.246
115.967
109.517
142.367
144.446
146.957
149.611
151.997
153.948
155.501
156.738
157.718
158.485
159.082
159.541
159.89
160.151
160.34
160.472
160.557
160.603
160.618
160.606
160.573
160.522
160.457
160.379
160.29
160.193
160.089
159.978
159.862
159.742
159.619
159.492
159.363
159.232
159.098
158.964
158.828
158.691
158.553
158.414
158.275
158.135
157.995
157.854
157.713
157.571
157.43
157.288
157.146
157.004
156.861
156.719
156.576
156.433
156.29
156.147
156.004
155.86
155.716
155.572
155.427
155.282
155.136
154.989
154.841
154.693
154.542
154.39
154.236
154.08
153.92
153.756
153.588
153.414
153.232
153.042
152.841
152.626
152.395
152.144
151.868
151.562
151.217
150.825
150.374
149.85
149.234
148.503
147.627
146.568
145.277
143.694
141.737
139.328
136.314
132.709
128.081
123.064
116.196
109.65
142.502
144.538
146.972
149.499
151.791
153.71
155.269
156.526
157.529
158.321
158.941
159.422
159.79
160.067
160.27
160.414
160.508
160.562
160.584
160.578
160.55
160.503
160.44
160.365
160.279
160.183
160.08
159.971
159.857
159.738
159.615
159.489
159.36
159.229
159.096
158.962
158.826
158.69
158.552
158.413
158.274
158.134
157.994
157.853
157.712
157.571
157.43
157.288
157.146
157.004
156.861
156.719
156.576
156.433
156.29
156.147
156.004
155.86
155.716
155.571
155.427
155.281
155.135
154.988
154.841
154.692
154.541
154.389
154.235
154.078
153.918
153.753
153.584
153.409
153.226
153.035
152.832
152.616
152.382
152.128
151.849
151.538
151.187
150.789
150.33
149.796
149.168
148.423
147.53
146.451
145.138
143.532
141.553
139.126
136.114
132.512
127.982
122.975
116.437
109.918
142.519
144.537
146.943
149.38
151.6
153.493
155.059
156.334
157.359
158.175
158.817
159.317
159.702
159.994
160.209
160.363
160.465
160.527
160.554
160.553
160.529
160.486
160.426
160.353
160.269
160.175
160.073
159.965
159.852
159.733
159.611
159.486
159.358
159.227
159.095
158.961
158.825
158.689
158.551
158.413
158.274
158.134
157.994
157.853
157.712
157.571
157.429
157.288
157.146
157.003
156.861
156.719
156.576
156.433
156.29
156.147
156.003
155.86
155.716
155.571
155.426
155.281
155.135
154.988
154.84
154.691
154.541
154.388
154.234
154.076
153.916
153.751
153.581
153.406
153.222
153.03
152.826
152.608
152.373
152.117
151.834
151.52
151.166
150.762
150.297
149.756
149.119
148.363
147.458
146.365
145.037
143.414
141.421
138.983
135.978
132.386
127.937
122.968
116.696
110.296
142.43
144.469
146.882
149.254
151.421
153.298
154.872
156.164
157.21
158.047
158.708
159.226
159.626
159.93
160.156
160.319
160.429
160.497
160.529
160.532
160.512
160.471
160.414
160.343
160.26
160.168
160.068
159.96
159.848
159.73
159.608
159.484
159.356
159.226
159.093
158.96
158.824
158.688
158.55
158.412
158.273
158.133
157.993
157.853
157.712
157.571
157.429
157.287
157.146
157.003
156.861
156.719
156.576
156.433
156.29
156.147
156.003
155.86
155.716
155.571
155.426
155.281
155.135
154.988
154.84
154.691
154.54
154.388
154.233
154.075
153.915
153.75
153.58
153.403
153.219
153.026
152.822
152.603
152.367
152.109
151.825
151.508
151.151
150.745
150.276
149.73
149.087
148.325
147.412
146.31
144.971
143.339
141.339
138.897
135.901
132.324
127.941
123.025
116.974
110.787
141.872
144.319
146.798
149.128
151.261
153.131
154.714
156.023
157.087
157.942
158.62
159.152
159.565
159.879
160.114
160.284
160.4
160.473
160.509
160.516
160.498
160.46
160.404
160.335
160.254
160.162
160.063
159.957
159.844
159.727
159.606
159.482
159.354
159.224
159.092
158.959
158.824
158.687
158.55
158.412
158.273
158.133
157.993
157.853
157.712
157.571
157.429
157.287
157.145
157.003
156.861
156.718
156.576
156.433
156.29
156.147
156.003
155.86
155.716
155.571
155.426
155.281
155.135
154.988
154.84
154.69
154.54
154.387
154.232
154.075
153.914
153.749
153.579
153.402
153.218
153.025
152.82
152.6
152.363
152.105
151.82
151.502
151.144
150.735
150.264
149.716
149.071
148.304
147.387
146.28
144.937
143.3
141.298
138.857
135.872
132.309
127.976
123.112
117.223
111.381
141.797
144.223
146.679
149.018
151.146
153.019
154.611
155.933
157.01
157.877
158.566
159.107
159.528
159.849
160.089
160.263
160.383
160.459
160.498
160.506
160.49
160.453
160.399
160.33
160.25
160.159
160.06
159.954
159.843
159.726
159.605
159.481
159.353
159.224
159.092
158.958
158.823
158.687
158.55
158.411
158.273
158.133
157.993
157.853
157.712
157.57
157.429
157.287
157.145
157.003
156.861
156.718
156.576
156.433
156.29
156.147
156.003
155.86
155.715
155.571
155.426
155.281
155.135
154.988
154.84
154.69
154.54
154.387
154.232
154.075
153.914
153.749
153.578
153.402
153.218
153.024
152.819
152.599
152.362
152.104
151.818
151.5
151.141
150.732
150.26
149.711
149.064
148.296
147.377
146.269
144.924
143.286
141.283
138.843
135.865
132.31
128.004
123.176
117.383
111.691
166.781
167.026
167.335
167.564
167.632
167.521
167.253
166.868
166.413
165.922
165.425
164.938
164.474
164.038
163.633
163.258
162.912
162.592
162.297
162.023
161.768
161.53
161.306
161.094
160.892
160.7
160.515
160.337
160.164
159.996
159.832
159.671
159.514
159.358
159.205
159.053
158.903
158.754
158.606
158.459
158.312
158.167
158.021
157.876
157.732
157.588
157.444
157.3
157.157
157.014
156.871
156.728
156.585
156.443
156.3
156.158
156.017
155.875
155.734
155.593
155.452
155.313
155.173
155.035
154.898
154.762
154.627
154.494
154.364
154.236
154.111
153.991
153.875
153.766
153.664
153.571
153.489
153.421
153.369
153.336
153.327
153.348
153.402
153.499
153.645
153.85
154.124
154.478
154.925
155.476
156.141
156.927
157.834
158.85
159.949
161.083
162.179
163.144
163.872
164.265
166.647
166.921
167.254
167.5
167.58
167.476
167.211
166.829
166.376
165.888
165.393
164.91
164.449
164.016
163.614
163.241
162.898
162.58
162.287
162.015
161.761
161.524
161.301
161.089
160.889
160.697
160.513
160.335
160.162
159.995
159.831
159.67
159.513
159.357
159.204
159.053
158.902
158.753
158.606
158.458
158.312
158.166
158.021
157.876
157.732
157.588
157.444
157.3
157.157
157.014
156.871
156.728
156.585
156.443
156.3
156.158
156.016
155.875
155.734
155.593
155.452
155.313
155.173
155.035
154.898
154.762
154.627
154.494
154.363
154.236
154.111
153.991
153.875
153.766
153.664
153.571
153.489
153.42
153.368
153.335
153.326
153.346
153.4
153.496
153.641
153.845
154.117
154.47
154.915
155.464
156.127
156.91
157.813
158.826
159.921
161.05
162.142
163.103
163.827
164.219
166.376
166.711
167.092
167.376
167.481
167.39
167.134
166.758
166.309
165.827
165.338
164.86
164.405
163.978
163.58
163.213
162.873
162.559
162.269
162
161.748
161.513
161.292
161.082
160.882
160.691
160.508
160.331
160.159
159.992
159.829
159.669
159.511
159.356
159.203
159.052
158.902
158.753
158.605
158.458
158.312
158.166
158.021
157.876
157.732
157.588
157.444
157.3
157.157
157.014
156.871
156.728
156.585
156.443
156.3
156.158
156.016
155.875
155.734
155.593
155.452
155.312
155.173
155.035
154.898
154.761
154.627
154.494
154.363
154.235
154.111
153.99
153.874
153.765
153.662
153.569
153.487
153.417
153.364
153.331
153.321
153.339
153.392
153.486
153.629
153.83
154.1
154.449
154.889
155.432
156.088
156.864
157.759
158.762
159.848
160.969
162.053
163.008
163.728
164.118
165.959
166.398
166.853
167.195
167.34
167.273
167.03
166.663
166.223
165.748
165.266
164.797
164.349
163.929
163.538
163.176
162.842
162.533
162.247
161.981
161.732
161.5
161.28
161.072
160.874
160.685
160.502
160.326
160.155
159.989
159.826
159.666
159.509
159.354
159.202
159.051
158.901
158.752
158.604
158.457
158.311
158.166
158.021
157.876
157.731
157.587
157.444
157.3
157.157
157.014
156.871
156.728
156.585
156.443
156.3
156.158
156.016
155.875
155.734
155.593
155.452
155.312
155.173
155.035
154.897
154.761
154.626
154.493
154.362
154.234
154.109
153.989
153.873
153.762
153.66
153.566
153.483
153.412
153.358
153.323
153.311
153.328
153.378
153.469
153.608
153.804
154.067
154.409
154.84
155.373
156.018
156.78
157.661
158.649
159.721
160.829
161.903
162.852
163.569
163.957
165.382
165.982
166.536
166.96
167.161
167.127
166.903
166.549
166.119
165.654
165.182
164.722
164.283
163.872
163.489
163.134
162.805
162.502
162.22
161.958
161.713
161.483
161.266
161.061
160.865
160.677
160.495
160.32
160.15
159.985
159.822
159.663
159.507
159.352
159.2
159.049
158.9
158.751
158.604
158.457
158.311
158.165
158.02
157.875
157.731
157.587
157.443
157.3
157.157
157.013
156.87
156.728
156.585
156.442
156.3
156.158
156.016
155.875
155.733
155.592
155.452
155.312
155.173
155.034
154.897
154.76
154.625
154.492
154.361
154.233
154.108
153.986
153.87
153.759
153.656
153.561
153.476
153.405
153.349
153.311
153.297
153.31
153.356
153.442
153.575
153.763
154.018
154.349
154.768
155.286
155.913
156.656
157.516
158.484
159.535
160.626
161.688
162.629
163.343
163.731
164.622
165.467
166.139
166.67
166.944
166.952
166.753
166.415
165.997
165.544
165.084
164.636
164.208
163.806
163.432
163.085
162.764
162.466
162.19
161.932
161.691
161.465
161.251
161.048
160.853
160.667
160.488
160.314
160.145
159.98
159.818
159.66
159.504
159.35
159.198
159.047
158.898
158.75
158.603
158.456
158.31
158.165
158.02
157.875
157.731
157.587
157.443
157.3
157.156
157.013
156.87
156.727
156.585
156.442
156.3
156.158
156.016
155.874
155.733
155.592
155.452
155.312
155.172
155.034
154.896
154.759
154.624
154.491
154.36
154.231
154.105
153.983
153.866
153.754
153.65
153.554
153.468
153.394
153.336
153.295
153.277
153.286
153.327
153.406
153.531
153.71
153.952
154.269
154.671
155.17
155.774
156.492
157.325
158.265
159.289
160.357
161.402
162.334
163.045
163.432
163.653
164.856
165.655
166.326
166.691
166.75
166.579
166.26
165.859
165.42
164.974
164.538
164.122
163.732
163.368
163.03
162.716
162.426
162.156
161.903
161.667
161.444
161.233
161.033
160.841
160.657
160.479
160.306
160.138
159.975
159.814
159.656
159.501
159.348
159.196
159.046
158.897
158.749
158.601
158.455
158.309
158.164
158.019
157.875
157.73
157.587
157.443
157.299
157.156
157.013
156.87
156.727
156.585
156.442
156.3
156.158
156.016
155.874
155.733
155.592
155.451
155.311
155.172
155.033
154.895
154.758
154.623
154.489
154.357
154.228
154.102
153.979
153.861
153.749
153.643
153.545
153.457
153.381
153.319
153.275
153.253
153.256
153.29
153.361
153.476
153.643
153.871
154.17
154.552
155.026
155.602
156.288
157.086
157.99
158.981
160.019
161.042
161.96
162.665
163.052
162.443
164.148
165.077
165.926
166.403
166.522
166.383
166.086
165.703
165.281
164.85
164.429
164.027
163.649
163.297
162.969
162.664
162.381
162.118
161.871
161.64
161.421
161.214
161.016
160.827
160.645
160.469
160.298
160.132
159.969
159.809
159.652
159.497
159.345
159.193
159.044
158.895
158.747
158.6
158.454
158.308
158.163
158.018
157.874
157.73
157.586
157.443
157.299
157.156
157.013
156.87
156.727
156.584
156.442
156.3
156.158
156.016
155.874
155.732
155.591
155.451
155.311
155.171
155.032
154.894
154.757
154.621
154.487
154.355
154.225
154.098
153.975
153.856
153.742
153.634
153.534
153.444
153.365
153.3
153.252
153.224
153.22
153.246
153.307
153.41
153.563
153.774
154.052
154.409
154.854
155.396
156.044
156.8
157.66
158.608
159.608
160.6
161.498
162.193
162.577
160.961
163.333
164.388
165.473
166.083
166.267
166.164
165.892
165.529
165.126
164.714
164.31
163.923
163.559
163.219
162.902
162.607
162.333
162.076
161.836
161.61
161.396
161.193
160.998
160.812
160.632
160.458
160.289
160.124
159.962
159.804
159.648
159.494
159.341
159.191
159.041
158.893
158.746
158.599
158.453
158.307
158.162
158.018
157.874
157.73
157.586
157.442
157.299
157.156
157.013
156.87
156.727
156.584
156.442
156.299
156.157
156.015
155.874
155.732
155.591
155.45
155.31
155.17
155.031
154.893
154.755
154.619
154.485
154.352
154.222
154.094
153.969
153.849
153.733
153.624
153.522
153.429
153.347
153.277
153.224
153.19
153.179
153.196
153.246
153.335
153.471
153.662
153.916
154.244
154.655
155.158
155.761
156.467
157.273
158.167
159.118
160.069
160.938
161.614
161.99
159.181
162.372
163.569
164.968
165.732
165.986
165.922
165.677
165.337
164.956
164.564
164.179
163.81
163.462
163.135
162.83
162.546
162.281
162.032
161.798
161.578
161.369
161.17
160.979
160.796
160.618
160.447
160.279
160.116
159.955
159.798
159.643
159.49
159.338
159.188
159.039
158.891
158.744
158.597
158.452
158.306
158.162
158.017
157.873
157.729
157.585
157.442
157.299
157.155
157.012
156.869
156.727
156.584
156.442
156.299
156.157
156.015
155.873
155.732
155.59
155.449
155.309
155.169
155.03
154.891
154.754
154.617
154.482
154.349
154.217
154.089
153.963
153.841
153.724
153.613
153.508
153.412
153.326
153.252
153.193
153.152
153.132
153.139
153.176
153.25
153.367
153.536
153.763
154.058
154.431
154.888
155.439
156.086
156.829
157.657
158.544
159.441
160.265
160.909
161.266
157.059
161.2
162.602
164.417
165.355
165.68
165.656
165.441
165.128
164.771
164.402
164.038
163.688
163.356
163.045
162.753
162.48
162.224
161.984
161.758
161.544
161.34
161.145
160.958
160.778
160.604
160.434
160.269
160.107
159.948
159.792
159.637
159.485
159.334
159.185
159.036
158.889
158.742
158.596
158.45
158.305
158.161
158.016
157.872
157.728
157.585
157.441
157.298
157.155
157.012
156.869
156.726
156.584
156.441
156.299
156.157
156.015
155.873
155.731
155.59
155.449
155.308
155.168
155.028
154.89
154.752
154.615
154.479
154.345
154.213
154.083
153.956
153.833
153.714
153.6
153.493
153.393
153.303
153.224
153.159
153.11
153.081
153.076
153.099
153.156
153.253
153.396
153.593
153.853
154.182
154.588
155.079
155.658
156.325
157.073
157.88
158.703
159.466
160.046
160.376
154.523
159.697
161.492
163.831
164.953
165.348
165.365
165.183
164.9
164.571
164.228
163.887
163.558
163.244
162.949
162.671
162.41
162.165
161.934
161.715
161.507
161.309
161.119
160.936
160.76
160.588
160.421
160.258
160.098
159.94
159.785
159.632
159.48
159.33
159.181
159.033
158.886
158.74
158.594
158.449
158.304
158.16
158.015
157.872
157.728
157.584
157.441
157.298
157.155
157.012
156.869
156.726
156.583
156.441
156.299
156.156
156.014
155.872
155.731
155.589
155.448
155.307
155.167
155.027
154.888
154.749
154.612
154.476
154.341
154.208
154.077
153.949
153.824
153.703
153.587
153.476
153.373
153.278
153.193
153.121
153.064
153.025
153.007
153.015
153.054
153.128
153.244
153.408
153.628
153.909
154.259
154.683
155.184
155.763
156.414
157.12
157.847
158.514
159.021
159.253
151.378
157.665
160.267
163.221
164.527
164.988
165.048
164.903
164.654
164.356
164.041
163.726
163.419
163.126
162.847
162.585
162.337
162.102
161.881
161.67
161.469
161.277
161.092
160.913
160.74
160.572
160.407
160.246
160.088
159.932
159.778
159.626
159.476
159.326
159.178
159.031
158.884
158.738
158.593
158.448
158.303
158.159
158.015
157.871
157.727
157.584
157.441
157.297
157.154
157.011
156.869
156.726
156.583
156.441
156.298
156.156
156.014
155.872
155.73
155.588
155.447
155.306
155.166
155.025
154.886
154.747
154.609
154.472
154.337
154.203
154.071
153.941
153.814
153.691
153.572
153.458
153.351
153.251
153.16
153.081
153.015
152.965
152.934
152.925
152.944
152.994
153.081
153.209
153.385
153.615
153.902
154.251
154.665
155.141
155.676
156.259
156.853
157.412
157.71
157.889
146.958
154.917
158.949
162.595
164.074
164.597
164.703
164.6
164.389
164.127
163.843
163.556
163.273
163.001
162.741
162.494
162.259
162.037
161.825
161.623
161.429
161.243
161.063
160.889
160.72
160.555
160.393
160.234
160.077
159.923
159.771
159.62
159.47
159.322
159.174
159.028
158.881
158.736
158.591
158.446
158.302
158.158
158.014
157.87
157.727
157.583
157.44
157.297
157.154
157.011
156.868
156.726
156.583
156.44
156.298
156.156
156.013
155.871
155.729
155.588
155.446
155.305
155.164
155.024
154.884
154.745
154.606
154.469
154.332
154.197
154.064
153.933
153.804
153.678
153.557
153.439
153.328
153.222
153.125
153.038
152.962
152.901
152.855
152.83
152.827
152.851
152.906
152.997
153.127
153.3
153.52
153.787
154.102
154.462
154.861
155.285
155.725
156.076
156.301
156.009
140.889
150.634
157.435
161.937
163.587
164.167
164.326
164.272
164.106
163.883
163.634
163.376
163.12
162.87
162.63
162.399
162.179
161.969
161.767
161.574
161.388
161.208
161.034
160.864
160.699
160.537
160.378
160.221
160.067
159.914
159.763
159.614
159.465
159.317
159.171
159.024
158.879
158.734
158.589
158.444
158.3
158.156
158.013
157.869
157.726
157.583
157.44
157.296
157.154
157.011
156.868
156.725
156.583
156.44
156.298
156.155
156.013
155.871
155.729
155.587
155.445
155.304
155.163
155.022
154.882
154.742
154.603
154.465
154.327
154.191
154.057
153.924
153.793
153.665
153.54
153.419
153.303
153.192
153.089
152.993
152.907
152.833
152.773
152.729
152.704
152.701
152.723
152.773
152.854
152.967
153.114
153.293
153.499
153.726
153.964
154.204
154.404
154.613