/*--------------------------------*- C++ -*----------------------------------*\
| =========                 |                                                 |
| \\      /  F ield         | OpenFOAM: The Open Source CFD Toolbox           |
|  \\    /   O peration     | Version:  2.4.0                                 |
|   \\  /    A nd           | Web:      www.OpenFOAM.org                      |
|    \\/     M anipulation  |                                                 |
\*---------------------------------------------------------------------------*/
FoamFile
{
    version     2.0;
    format      ascii;
    class       volVectorField;
    location    "0.002";
    object      U;
}
// * * * * * * * * * * * * * * * * * * * * * * * * * * * * * * * * * * * * * //

dimensions      [0 1 -1 0 0 0 0];

internalField   nonuniform List<vector> 
4400
(
(6.81008 0.269369 0)
(5.79208 0.121173 0)
(5.39541 -0.0041006 0)
(5.409 -0.0116411 0)
(5.47435 -0.00223671 0)
(5.49894 -5.34307e-05 0)
(5.50865 0.00131085 0)
(5.57841 0.006256 0)
(5.88853 -0.101768 0)
(6.60579 0.113901 0)
(8.51098 0.445005 0)
(10.4191 0.173434 0)
(10.0855 0.0129165 0)
(9.87118 -0.0132616 0)
(9.89599 -0.0054781 0)
(9.92949 -0.0011272 0)
(9.92046 -0.00368769 0)
(10.1932 -0.0111551 0)
(9.70522 -0.122987 0)
(13.2114 -0.787408 0)
(8.57809 0.394725 0)
(11.1799 0.162912 0)
(10.8318 0.00919603 0)
(10.5328 -0.0127452 0)
(10.54 -0.00553346 0)
(10.5712 0.000165524 0)
(10.5805 -0.0186344 0)
(10.7189 0.0399556 0)
(11.0081 -0.504026 0)
(11.0812 -1.05592 0)
(8.56404 0.329846 0)
(11.182 0.138692 0)
(10.8433 0.0137221 0)
(10.5483 -0.00913686 0)
(10.5566 -0.00452377 0)
(10.5874 -0.000952425 0)
(10.5896 -0.0143725 0)
(10.7533 -0.0339583 0)
(10.6375 -0.315408 0)
(12.1365 -1.28957 0)
(8.55252 0.273509 0)
(11.1586 0.119818 0)
(10.834 0.0137225 0)
(10.5471 -0.00700179 0)
(10.5572 -0.00395124 0)
(10.586 -0.000767594 0)
(10.5933 -0.0229243 0)
(10.6966 -0.00686674 0)
(10.7885 -0.504259 0)
(10.6027 -1.05264 0)
(8.54329 0.220222 0)
(11.1394 0.0995827 0)
(10.8261 0.0128156 0)
(10.546 -0.00515606 0)
(10.5575 -0.00329235 0)
(10.5849 -0.00151237 0)
(10.5912 -0.0234884 0)
(10.6693 -0.0461112 0)
(10.7036 -0.44691 0)
(10.6038 -1.16335 0)
(8.53612 0.169073 0)
(11.1244 0.0783413 0)
(10.8197 0.0109576 0)
(10.545 -0.0036275 0)
(10.5576 -0.00268211 0)
(10.5834 -0.0020627 0)
(10.5884 -0.0261912 0)
(10.6392 -0.0591305 0)
(10.6522 -0.454071 0)
(10.3209 -1.16762 0)
(8.53086 0.119591 0)
(11.1133 0.0564326 0)
(10.8149 0.00838743 0)
(10.5441 -0.0023545 0)
(10.5577 -0.0020876 0)
(10.5819 -0.00268659 0)
(10.5845 -0.0277142 0)
(10.6114 -0.0729167 0)
(10.5929 -0.440983 0)
(10.1633 -1.08915 0)
(8.52742 0.0712865 0)
(11.1059 0.0340569 0)
(10.8117 0.00526519 0)
(10.5436 -0.00126994 0)
(10.5576 -0.00151043 0)
(10.5802 -0.00323291 0)
(10.5798 -0.0287373 0)
(10.5853 -0.0822646 0)
(10.5353 -0.419724 0)
(10.0351 -1.02339 0)
(8.52572 0.0236771 0)
(11.1023 0.0114124 0)
(10.8101 0.00183318 0)
(10.5433 -0.000300385 0)
(10.5574 -0.000940449 0)
(10.5785 -0.00366819 0)
(10.5747 -0.0291103 0)
(10.5612 -0.0875216 0)
(10.4814 -0.393201 0)
(9.93357 -0.936284 0)
(8.52574 -0.0236977 0)
(11.1023 -0.011321 0)
(10.8101 -0.00170276 0)
(10.5432 0.000626897 0)
(10.5572 -0.000368675 0)
(10.5767 -0.00395464 0)
(10.5694 -0.0287983 0)
(10.5391 -0.088961 0)
(10.4323 -0.361771 0)
(9.85155 -0.841962 0)
(8.52745 -0.0713073 0)
(11.1059 -0.033969 0)
(10.8117 -0.0051299 0)
(10.5434 0.00158877 0)
(10.5568 0.000221465 0)
(10.5749 -0.00406899 0)
(10.5641 -0.0277849 0)
(10.5193 -0.0869175 0)
(10.3886 -0.326692 0)
(9.78493 -0.740256 0)
(8.53092 -0.11961 0)
(11.1132 -0.0563411 0)
(10.8149 -0.00827757 0)
(10.5439 0.00265191 0)
(10.5565 0.000845977 0)
(10.5732 -0.00400043 0)
(10.5591 -0.0260873 0)
(10.5017 -0.0818359 0)
(10.351 -0.28873 0)
(9.73095 -0.633339 0)
(8.53619 -0.169091 0)
(11.1243 -0.0782692 0)
(10.8197 -0.0108623 0)
(10.5446 0.00389818 0)
(10.556 0.00150782 0)
(10.5716 -0.00374891 0)
(10.5544 -0.0237449 0)
(10.4864 -0.0741503 0)
(10.3196 -0.248622 0)
(9.6879 -0.522409 0)
(8.54338 -0.220238 0)
(11.1393 -0.0995055 0)
(10.8261 -0.0127225 0)
(10.5456 0.00538761 0)
(10.5555 0.00221047 0)
(10.57 -0.00332938 0)
(10.5502 -0.0208223 0)
(10.4736 -0.0643344 0)
(10.2946 -0.207036 0)
(9.65461 -0.408314 0)
(8.55263 -0.273524 0)
(11.1585 -0.119759 0)
(10.834 -0.0136539 0)
(10.5466 0.00718889 0)
(10.5549 0.00295956 0)
(10.5687 -0.00276098 0)
(10.5468 -0.0174015 0)
(10.4632 -0.0528498 0)
(10.2761 -0.164714 0)
(9.63043 -0.291803 0)
(8.56415 -0.329862 0)
(11.1819 -0.138632 0)
(10.8434 -0.013668 0)
(10.5478 0.00925825 0)
(10.5542 0.00371256 0)
(10.5674 -0.00209607 0)
(10.5439 -0.0136108 0)
(10.4551 -0.0403148 0)
(10.2642 -0.122594 0)
(9.6149 -0.17394 0)
(8.57821 -0.394734 0)
(11.1798 -0.16288 0)
(10.8318 -0.00915798 0)
(10.5322 0.0128208 0)
(10.5374 0.00482393 0)
(10.5502 -0.00126357 0)
(10.5255 -0.00941435 0)
(10.4326 -0.0267552 0)
(10.2407 -0.0816744 0)
(9.59355 -0.047496 0)
(8.51107 -0.445012 0)
(10.419 -0.173411 0)
(10.0856 -0.0128984 0)
(9.87067 0.0132697 0)
(9.89367 0.00514697 0)
(9.9077 -0.000388944 0)
(9.88393 -0.00485592 0)
(9.79642 -0.0123789 0)
(9.62661 -0.0429326 0)
(9.04167 0.0533783 0)
(6.81007 -0.269365 0)
(5.79209 -0.121166 0)
(5.39552 0.00411022 0)
(5.40876 0.0116811 0)
(5.4727 0.00241782 0)
(5.48757 0.000198022 0)
(5.47414 0.00030609 0)
(5.42953 0.00113876 0)
(5.36905 -0.00143978 0)
(4.96113 0.106407 0)
(10.4792 -6.71896 0)
(6.22708 -5.74576 0)
(5.27398 -4.87447 0)
(5.54272 -4.03415 0)
(5.56342 -3.21684 0)
(5.40829 -2.55518 0)
(5.2862 -2.06381 0)
(5.20978 -1.6807 0)
(5.15737 -1.37381 0)
(5.12086 -1.12662 0)
(5.09528 -0.926269 0)
(5.077 -0.762904 0)
(5.06366 -0.629124 0)
(5.05379 -0.519237 0)
(5.0464 -0.428802 0)
(5.04081 -0.35426 0)
(5.03653 -0.292752 0)
(5.03323 -0.241966 0)
(5.03067 -0.200016 0)
(5.02867 -0.165352 0)
(5.02709 -0.136703 0)
(5.02584 -0.113021 0)
(5.02485 -0.0934425 0)
(5.02406 -0.0772564 0)
(5.02342 -0.0638739 0)
(5.02291 -0.0528092 0)
(5.02249 -0.0436605 0)
(5.02216 -0.0360959 0)
(5.02188 -0.0298411 0)
(5.02166 -0.024669 0)
(5.02148 -0.0203922 0)
(5.02133 -0.0168554 0)
(5.02121 -0.0139302 0)
(5.0211 -0.0115105 0)
(5.02102 -0.00950713 0)
(5.02095 -0.0078503 0)
(5.0209 -0.00647965 0)
(5.02085 -0.00534257 0)
(5.02081 -0.0043992 0)
(5.02078 -0.00361624 0)
(5.02076 -0.00296468 0)
(5.02074 -0.00242065 0)
(5.02072 -0.00196455 0)
(5.02071 -0.00157973 0)
(5.0207 -0.00125229 0)
(5.02069 -0.000970295 0)
(5.02068 -0.000723571 0)
(5.02068 -0.000503101 0)
(5.02068 -0.000300882 0)
(5.02067 -0.000109635 0)
(5.02067 7.76241e-05 0)
(5.02067 0.000267661 0)
(5.02068 0.000467385 0)
(5.02068 0.000684005 0)
(5.02069 0.000925361 0)
(5.0207 0.00120028 0)
(5.02071 0.00151862 0)
(5.02072 0.00189202 0)
(5.02073 0.0023339 0)
(5.02075 0.00286046 0)
(5.02078 0.00349066 0)
(5.02081 0.0042474 0)
(5.02084 0.00515805 0)
(5.02089 0.00625574 0)
(5.02094 0.00758018 0)
(5.021 0.00917933 0)
(5.02108 0.0111112 0)
(5.02117 0.0134457 0)
(5.02129 0.0162676 0)
(5.02142 0.0196789 0)
(5.02159 0.0238032 0)
(5.02179 0.0287902 0)
(5.02203 0.0348204 0)
(5.02232 0.0421124 0)
(5.02268 0.0509301 0)
(5.02311 0.0615935 0)
(5.02364 0.0744887 0)
(5.02427 0.0900832 0)
(5.02504 0.108942 0)
(5.02598 0.131751 0)
(5.02712 0.159336 0)
(5.0285 0.192702 0)
(5.03019 0.233062 0)
(5.03224 0.281893 0)
(5.03474 0.340984 0)
(5.03779 0.412516 0)
(5.04152 0.499153 0)
(5.04609 0.604168 0)
(5.05172 0.731604 0)
(5.05866 0.886522 0)
(5.06744 1.07528 0)
(5.07792 1.30648 0)
(5.09451 1.58945 0)
(5.10422 1.94911 0)
(5.16924 2.36341 0)
(5.09362 3.05705 0)
(5.48272 3.45354 0)
(4.92718 5.38686 0)
(5.96178 5.7828 0)
(4.17855 10.5495 0)
(14.4478 -7.23813 0)
(10.7425 -5.98169 0)
(7.17288 -4.65765 0)
(6.18779 -3.90062 0)
(5.90355 -3.14617 0)
(5.64882 -2.4981 0)
(5.46582 -2.01529 0)
(5.35107 -1.64547 0)
(5.27119 -1.34934 0)
(5.21309 -1.10931 0)
(5.1704 -0.913724 0)
(5.13845 -0.753623 0)
(5.11411 -0.622147 0)
(5.0953 -0.513917 0)
(5.08061 -0.424687 0)
(5.06903 -0.351056 0)
(5.05983 -0.290236 0)
(5.05248 -0.239975 0)
(5.04658 -0.198431 0)
(5.04182 -0.164084 0)
(5.03797 -0.135683 0)
(5.03483 -0.112198 0)
(5.03229 -0.0927766 0)
(5.0302 -0.0767156 0)
(5.0285 -0.0634336 0)
(5.02711 -0.05245 0)
(5.02597 -0.0433669 0)
(5.02503 -0.0358555 0)
(5.02426 -0.0296439 0)
(5.02362 -0.0245071 0)
(5.0231 -0.020259 0)
(5.02267 -0.0167458 0)
(5.02232 -0.0138392 0)
(5.02202 -0.0114375 0)
(5.02178 -0.00944688 0)
(5.02158 -0.00779822 0)
(5.02142 -0.00643872 0)
(5.02128 -0.00531004 0)
(5.02117 -0.00437239 0)
(5.02108 -0.0035941 0)
(5.02101 -0.0029465 0)
(5.02095 -0.00240584 0)
(5.0209 -0.00195254 0)
(5.02086 -0.00157015 0)
(5.02082 -0.00124467 0)
(5.0208 -0.000964348 0)
(5.02078 -0.000719047 0)
(5.02077 -0.000499938 0)
(5.02076 -0.000298958 0)
(5.02075 -0.000108835 0)
(5.02075 7.72413e-05 0)
(5.02076 0.000265997 0)
(5.02076 0.000464385 0)
(5.02078 0.000679633 0)
(5.0208 0.000919433 0)
(5.02082 0.00119248 0)
(5.02085 0.0015088 0)
(5.02089 0.00187988 0)
(5.02094 0.00231908 0)
(5.021 0.00284227 0)
(5.02107 0.00346863 0)
(5.02115 0.0042208 0)
(5.02126 0.00512593 0)
(5.02139 0.0062167 0)
(5.02155 0.00753284 0)
(5.02174 0.00912206 0)
(5.02197 0.0110418 0)
(5.02225 0.0133614 0)
(5.02258 0.0161654 0)
(5.02299 0.0195553 0)
(5.02348 0.0236537 0)
(5.02408 0.0286091 0)
(5.0248 0.0346011 0)
(5.02568 0.0418471 0)
(5.02673 0.0506092 0)
(5.02801 0.0612049 0)
(5.02956 0.0740183 0)
(5.03144 0.0895141 0)
(5.03371 0.108254 0)
(5.03646 0.130917 0)
(5.0398 0.158327 0)
(5.04384 0.19148 0)
(5.04874 0.231582 0)
(5.05469 0.2801 0)
(5.06191 0.33881 0)
(5.07069 0.40988 0)
(5.08138 0.495954 0)
(5.09444 0.600281 0)
(5.11045 0.726872 0)
(5.13014 0.880738 0)
(5.15479 1.06823 0)
(5.18487 1.29761 0)
(5.22844 1.57916 0)
(5.26248 1.93319 0)
(5.41826 2.34851 0)
(5.20567 3.0351 0)
(6.44455 3.28011 0)
(3.95878 5.80832 0)
(9.35868 4.43448 0)
(6.42716 11.0472 0)
(10.6714 -3.60299 0)
(11.0718 -3.84848 0)
(9.18678 -3.55544 0)
(7.2921 -3.25217 0)
(6.40407 -2.84324 0)
(5.92731 -2.36315 0)
(5.64976 -1.93905 0)
(5.48879 -1.59537 0)
(5.38116 -1.31457 0)
(5.30251 -1.08414 0)
(5.24355 -0.894957 0)
(5.19852 -0.739341 0)
(5.16356 -0.611101 0)
(5.13607 -0.505273 0)
(5.11427 -0.41786 0)
(5.09683 -0.345616 0)
(5.08281 -0.285875 0)
(5.07148 -0.236463 0)
(5.06229 -0.195591 0)
(5.05481 -0.161779 0)
(5.04871 -0.133807 0)
(5.04372 -0.110667 0)
(5.03964 -0.0915248 0)
(5.03628 -0.0756903 0)
(5.03353 -0.0625927 0)
(5.03127 -0.0517594 0)
(5.02941 -0.0427992 0)
(5.02787 -0.0353884 0)
(5.02661 -0.0292593 0)
(5.02557 -0.0241903 0)
(5.02471 -0.019998 0)
(5.024 -0.0165304 0)
(5.02342 -0.0136622 0)
(5.02293 -0.0112904 0)
(5.02254 -0.00932546 0)
(5.02221 -0.00769995 0)
(5.02194 -0.00635679 0)
(5.02171 -0.00524165 0)
(5.02153 -0.00431599 0)
(5.02138 -0.00354782 0)
(5.02125 -0.00290863 0)
(5.02115 -0.00237496 0)
(5.02107 -0.00192749 0)
(5.021 -0.00154995 0)
(5.02095 -0.00122864 0)
(5.02091 -0.00095195 0)
(5.02088 -0.000709842 0)
(5.02085 -0.000493526 0)
(5.02084 -0.000295101 0)
(5.02083 -0.000107433 0)
(5.02083 7.62636e-05 0)
(5.02084 0.000262683 0)
(5.02085 0.000458621 0)
(5.02087 0.000671155 0)
(5.0209 0.000907931 0)
(5.02094 0.00117761 0)
(5.02099 0.00148999 0)
(5.02106 0.00185638 0)
(5.02114 0.00229 0)
(5.02123 0.00280664 0)
(5.02135 0.0034251 0)
(5.0215 0.00416771 0)
(5.02168 0.00506132 0)
(5.02189 0.00613834 0)
(5.02215 0.00743792 0)
(5.02246 0.00900705 0)
(5.02285 0.0109025 0)
(5.02331 0.0131931 0)
(5.02387 0.0159618 0)
(5.02454 0.0193089 0)
(5.02536 0.0233556 0)
(5.02635 0.0282485 0)
(5.02755 0.0341651 0)
(5.02899 0.0413195 0)
(5.03075 0.0499708 0)
(5.03287 0.0604327 0)
(5.03543 0.0730841 0)
(5.03854 0.0883836 0)
(5.0423 0.106886 0)
(5.04685 0.129262 0)
(5.05235 0.156323 0)
(5.05903 0.189054 0)
(5.06711 0.228645 0)
(5.07692 0.276542 0)
(5.08881 0.334498 0)
(5.10326 0.404649 0)
(5.12085 0.4896 0)
(5.14231 0.592546 0)
(5.16858 0.717433 0)
(5.20089 0.86916 0)
(5.24114 1.05399 0)
(5.29085 1.2796 0)
(5.35911 1.5579 0)
(5.42547 1.89827 0)
(5.62867 2.33251 0)
(5.43297 2.89799 0)
(6.96521 3.33898 0)
(3.73155 5.5977 0)
(11.2537 3.14071 0)
(7.3132 11.0906 0)
(8.88471 -5.33677 0)
(6.52066 -5.18241 0)
(5.94173 -3.85061 0)
(6.13934 -3.04249 0)
(6.21176 -2.62086 0)
(6.01869 -2.22642 0)
(5.78592 -1.85214 0)
(5.61171 -1.53489 0)
(5.48447 -1.27095 0)
(5.38807 -1.05177 0)
(5.31413 -0.87034 0)
(5.25676 -0.720285 0)
(5.21166 -0.596152 0)
(5.17583 -0.493423 0)
(5.14714 -0.408389 0)
(5.12403 -0.337998 0)
(5.10532 -0.279718 0)
(5.0901 -0.231466 0)
(5.0777 -0.191522 0)
(5.06757 -0.158457 0)
(5.05926 -0.13109 0)
(5.05245 -0.10844 0)
(5.04686 -0.0896974 0)
(5.04226 -0.0741888 0)
(5.03847 -0.0613578 0)
(5.03536 -0.0507429 0)
(5.03279 -0.0419619 0)
(5.03067 -0.0346984 0)
(5.02892 -0.0286904 0)
(5.02748 -0.023721 0)
(5.02629 -0.0196107 0)
(5.02531 -0.0162109 0)
(5.0245 -0.0133982 0)
(5.02383 -0.0110722 0)
(5.02328 -0.00914642 0)
(5.02282 -0.00755208 0)
(5.02245 -0.00623406 0)
(5.02213 -0.00514076 0)
(5.02188 -0.00423316 0)
(5.02167 -0.00347973 0)
(5.0215 -0.00285281 0)
(5.02136 -0.0023294 0)
(5.02124 -0.00189051 0)
(5.02115 -0.00152021 0)
(5.02107 -0.00120506 0)
(5.02102 -0.000933688 0)
(5.02097 -0.000696199 0)
(5.02094 -0.000484002 0)
(5.02092 -0.000289377 0)
(5.02091 -0.000105302 0)
(5.02091 7.49046e-05 0)
(5.02092 0.000257781 0)
(5.02093 0.000449967 0)
(5.02096 0.000658429 0)
(5.02101 0.000890704 0)
(5.02106 0.00115525 0)
(5.02113 0.00146166 0)
(5.02122 0.00182105 0)
(5.02133 0.00224644 0)
(5.02147 0.00275327 0)
(5.02163 0.00335994 0)
(5.02184 0.0040884 0)
(5.02208 0.00496504 0)
(5.02238 0.00602161 0)
(5.02274 0.00729644 0)
(5.02318 0.00883569 0)
(5.02371 0.0106951 0)
(5.02435 0.0129421 0)
(5.02513 0.015658 0)
(5.02607 0.0189414 0)
(5.02721 0.022911 0)
(5.02858 0.0277108 0)
(5.03025 0.0335146 0)
(5.03226 0.0405326 0)
(5.0347 0.049019 0)
(5.03764 0.0592813 0)
(5.04121 0.0716913 0)
(5.04552 0.0866985 0)
(5.05074 0.104847 0)
(5.05706 0.126795 0)
(5.06471 0.153338 0)
(5.07397 0.185441 0)
(5.08519 0.224271 0)
(5.09879 0.271243 0)
(5.11528 0.328075 0)
(5.13531 0.396856 0)
(5.15967 0.480133 0)
(5.18937 0.581019 0)
(5.2257 0.703355 0)
(5.27038 0.85188 0)
(5.32581 1.03267 0)
(5.39491 1.25282 0)
(5.4854 1.52488 0)
(5.59108 1.85034 0)
(5.79703 2.29194 0)
(5.80355 2.74216 0)
(6.91329 3.41445 0)
(5.14109 5.06514 0)
(10.3973 2.3245 0)
(7.12483 11.2052 0)
(11.1812 -2.34372 0)
(10.8286 -3.23248 0)
(8.71151 -3.35317 0)
(7.25382 -2.91787 0)
(6.6237 -2.50084 0)
(6.23328 -2.11563 0)
(5.93862 -1.7641 0)
(5.73185 -1.46732 0)
(5.58286 -1.21983 0)
(5.46961 -1.01286 0)
(5.38175 -0.840262 0)
(5.31281 -0.696711 0)
(5.2581 -0.577468 0)
(5.21432 -0.478487 0)
(5.17904 -0.396368 0)
(5.15045 -0.328269 0)
(5.1272 -0.271813 0)
(5.10823 -0.225022 0)
(5.09271 -0.186255 0)
(5.07999 -0.154143 0)
(5.06955 -0.127551 0)
(5.06097 -0.105533 0)
(5.05391 -0.0873066 0)
(5.04809 -0.072221 0)
(5.0433 -0.0597369 0)
(5.03935 -0.049407 0)
(5.03609 -0.0408603 0)
(5.0334 -0.0337896 0)
(5.03118 -0.0279405 0)
(5.02935 -0.0231021 0)
(5.02784 -0.0190998 0)
(5.02659 -0.0157889 0)
(5.02556 -0.01305 0)
(5.02471 -0.0107846 0)
(5.024 -0.0089089 0)
(5.02342 -0.00735627 0)
(5.02294 -0.00607226 0)
(5.02255 -0.00500749 0)
(5.02222 -0.00412355 0)
(5.02195 -0.0033896 0)
(5.02173 -0.0027789 0)
(5.02155 -0.00226907 0)
(5.02141 -0.00184155 0)
(5.02129 -0.00148084 0)
(5.02119 -0.00117385 0)
(5.02112 -0.000909502 0)
(5.02106 -0.000678149 0)
(5.02102 -0.000471422 0)
(5.021 -0.000281818 0)
(5.02098 -0.000102488 0)
(5.02098 7.30801e-05 0)
(5.02099 0.000251258 0)
(5.02102 0.000438499 0)
(5.02106 0.000641595 0)
(5.02111 0.000867898 0)
(5.02118 0.00112565 0)
(5.02127 0.00142418 0)
(5.02138 0.00177433 0)
(5.02152 0.00218879 0)
(5.0217 0.00268262 0)
(5.02191 0.00327371 0)
(5.02217 0.00398347 0)
(5.02248 0.00483761 0)
(5.02286 0.00586706 0)
(5.02332 0.00710916 0)
(5.02388 0.00860889 0)
(5.02456 0.0104206 0)
(5.02538 0.0126099 0)
(5.02637 0.0152561 0)
(5.02756 0.0184551 0)
(5.02901 0.0223228 0)
(5.03077 0.0269992 0)
(5.03289 0.0326539 0)
(5.03545 0.0394915 0)
(5.03856 0.0477597 0)
(5.04231 0.0577581 0)
(5.04686 0.0698487 0)
(5.05235 0.0844696 0)
(5.059 0.102151 0)
(5.06705 0.123532 0)
(5.07679 0.149391 0)
(5.08858 0.180663 0)
(5.10286 0.218487 0)
(5.12017 0.264237 0)
(5.14115 0.319584 0)
(5.16662 0.386555 0)
(5.19759 0.467618 0)
(5.23532 0.565783 0)
(5.28144 0.684746 0)
(5.33811 0.829045 0)
(5.40819 1.00445 0)
(5.496 1.2176 0)
(5.6072 1.48019 0)
(5.75199 1.79236 0)
(5.9492 2.21545 0)
(6.18998 2.62544 0)
(6.69915 3.30005 0)
(6.85746 4.689 0)
(8.69908 1.90294 0)
(7.56469 10.6731 0)
(9.81121 -3.03404 0)
(8.82208 -3.54611 0)
(7.77233 -3.08697 0)
(7.06267 -2.57473 0)
(6.66652 -2.2481 0)
(6.34519 -1.9538 0)
(6.0596 -1.65709 0)
(5.83943 -1.39002 0)
(5.67419 -1.16147 0)
(5.5464 -0.967922 0)
(5.44595 -0.805131 0)
(5.3663 -0.668909 0)
(5.30261 -0.555259 0)
(5.2513 -0.460615 0)
(5.20974 -0.381905 0)
(5.17593 -0.316513 0)
(5.14834 -0.262224 0)
(5.12575 -0.217181 0)
(5.10724 -0.179829 0)
(5.09203 -0.148868 0)
(5.07952 -0.123215 0)
(5.06922 -0.101966 0)
(5.06074 -0.0843689 0)
(5.05375 -0.0698002 0)
(5.04798 -0.0577409 0)
(5.04322 -0.0477605 0)
(5.0393 -0.0395017 0)
(5.03605 -0.0326682 0)
(5.03338 -0.0270146 0)
(5.03117 -0.0223375 0)
(5.02934 -0.0184683 0)
(5.02783 -0.0152674 0)
(5.02658 -0.0126193 0)
(5.02556 -0.0104286 0)
(5.02471 -0.00861528 0)
(5.024 -0.00711421 0)
(5.02342 -0.00587224 0)
(5.02295 -0.00484252 0)
(5.02255 -0.00398779 0)
(5.02223 -0.00327802 0)
(5.02196 -0.00268742 0)
(5.02175 -0.00219439 0)
(5.02157 -0.00178094 0)
(5.02143 -0.00143209 0)
(5.02131 -0.0011352 0)
(5.02122 -0.000879539 0)
(5.02115 -0.000655775 0)
(5.0211 -0.000455824 0)
(5.02107 -0.000272442 0)
(5.02105 -9.89929e-05 0)
(5.02105 7.08328e-05 0)
(5.02107 0.000243183 0)
(5.0211 0.000424289 0)
(5.02114 0.000620733 0)
(5.02121 0.000839643 0)
(5.02129 0.00108897 0)
(5.0214 0.00137775 0)
(5.02154 0.00171646 0)
(5.02171 0.00211741 0)
(5.02192 0.00259514 0)
(5.02218 0.00316696 0)
(5.02249 0.00385356 0)
(5.02287 0.00467985 0)
(5.02333 0.00567573 0)
(5.02388 0.0068773 0)
(5.02456 0.0083281 0)
(5.02538 0.0100807 0)
(5.02637 0.0121985 0)
(5.02757 0.0147584 0)
(5.02901 0.017853 0)
(5.03077 0.0215945 0)
(5.03289 0.0261183 0)
(5.03545 0.0315883 0)
(5.03856 0.0382027 0)
(5.04231 0.0462009 0)
(5.04685 0.0558726 0)
(5.05234 0.0675681 0)
(5.05898 0.0817109 0)
(5.06702 0.0988134 0)
(5.07675 0.119495 0)
(5.08852 0.144505 0)
(5.10276 0.174751 0)
(5.12002 0.21133 0)
(5.14092 0.25557 0)
(5.16625 0.309081 0)
(5.19699 0.373815 0)
(5.23435 0.452142 0)
(5.27984 0.546946 0)
(5.3354 0.661747 0)
(5.40359 0.800843 0)
(5.48769 0.96961 0)
(5.59317 1.17427 0)
(5.72419 1.4247 0)
(5.90282 1.72369 0)
(6.10199 2.11079 0)
(6.50319 2.5265 0)
(6.64353 3.04148 0)
(7.9612 4.39501 0)
(7.66493 1.81964 0)
(8.85224 9.53693 0)
(9.84206 -2.16677 0)
(9.28988 -2.6992 0)
(8.21353 -2.72208 0)
(7.33287 -2.40605 0)
(6.82933 -2.09423 0)
(6.47353 -1.81796 0)
(6.1744 -1.55056 0)
(5.93918 -1.3077 0)
(5.75912 -1.0974 0)
(5.61827 -0.917701 0)
(5.50644 -0.7654 0)
(5.41697 -0.637189 0)
(5.34492 -0.529744 0)
(5.28657 -0.439972 0)
(5.23909 -0.365125 0)
(5.20032 -0.302824 0)
(5.16859 -0.251026 0)
(5.14256 -0.208 0)
(5.12118 -0.17229 0)
(5.10358 -0.14267 0)
(5.0891 -0.118113 0)
(5.07716 -0.0977623 0)
(5.06731 -0.0809039 0)
(5.05919 -0.0669424 0)
(5.05248 -0.0553829 0)
(5.04695 -0.0458143 0)
(5.04238 -0.0378948 0)
(5.03861 -0.0313413 0)
(5.03549 -0.0259187 0)
(5.03291 -0.0214323 0)
(5.03078 -0.0177205 0)
(5.02903 -0.0146497 0)
(5.02757 -0.0121089 0)
(5.02637 -0.010007 0)
(5.02538 -0.0082673 0)
(5.02456 -0.00682699 0)
(5.02389 -0.00563499 0)
(5.02333 -0.00464694 0)
(5.02287 -0.00382689 0)
(5.0225 -0.00314577 0)
(5.02219 -0.00257899 0)
(5.02193 -0.00210584 0)
(5.02172 -0.00170908 0)
(5.02156 -0.0013743 0)
(5.02142 -0.00108939 0)
(5.02132 -0.000844026 0)
(5.02124 -0.000629271 0)
(5.02118 -0.000437358 0)
(5.02114 -0.000261346 0)
(5.02113 -9.48603e-05 0)
(5.02112 6.81518e-05 0)
(5.02114 0.000233595 0)
(5.02117 0.000407442 0)
(5.02123 0.00059601 0)
(5.0213 0.000806144 0)
(5.0214 0.00104548 0)
(5.02153 0.00132269 0)
(5.02169 0.00164784 0)
(5.02189 0.00203275 0)
(5.02213 0.00249137 0)
(5.02243 0.00304032 0)
(5.0228 0.00369946 0)
(5.02324 0.0044927 0)
(5.02378 0.00544876 0)
(5.02443 0.00660228 0)
(5.02522 0.00799505 0)
(5.02617 0.00967755 0)
(5.02732 0.0117107 0)
(5.02872 0.0141682 0)
(5.03041 0.017139 0)
(5.03246 0.0207308 0)
(5.03493 0.0250736 0)
(5.03792 0.0303247 0)
(5.04154 0.0366743 0)
(5.04592 0.0443523 0)
(5.05122 0.0536368 0)
(5.05762 0.0648637 0)
(5.06537 0.0784398 0)
(5.07475 0.0948565 0)
(5.08609 0.114708 0)
(5.09981 0.138714 0)
(5.11643 0.167743 0)
(5.13654 0.202846 0)
(5.1609 0.245297 0)
(5.19042 0.296634 0)
(5.22623 0.35872 0)
(5.26973 0.433813 0)
(5.32265 0.524646 0)
(5.38723 0.634537 0)
(5.46638 0.767506 0)
(5.56376 0.928476 0)
(5.68565 1.12322 0)
(5.83556 1.35952 0)
(6.04153 1.64334 0)
(6.25593 1.98955 0)
(6.73392 2.41176 0)
(6.77092 2.75062 0)
(8.43959 4.06835 0)
(7.48039 1.88817 0)
(9.93426 8.11342 0)
(9.59944 -1.97725 0)
(9.09148 -2.42065 0)
(8.22455 -2.42844 0)
(7.44128 -2.16859 0)
(6.93841 -1.90337 0)
(6.57692 -1.66767 0)
(6.27392 -1.43608 0)
(6.02904 -1.21945 0)
(5.83707 -1.02809 0)
(5.68492 -0.862753 0)
(5.56293 -0.721501 0)
(5.46454 -0.601869 0)
(5.38481 -0.501161 0)
(5.31991 -0.416733 0)
(5.26689 -0.346163 0)
(5.22348 -0.287308 0)
(5.18785 -0.238301 0)
(5.15856 -0.197547 0)
(5.13446 -0.163691 0)
(5.1146 -0.135589 0)
(5.09823 -0.112278 0)
(5.08473 -0.0929509 0)
(5.07358 -0.0769345 0)
(5.06438 -0.0636663 0)
(5.05678 -0.0526783 0)
(5.05051 -0.0435808 0)
(5.04533 -0.0360501 0)
(5.04104 -0.0298174 0)
(5.03751 -0.0246598 0)
(5.03458 -0.0203921 0)
(5.03217 -0.0168611 0)
(5.03017 -0.0139395 0)
(5.02852 -0.0115223 0)
(5.02716 -0.00952226 0)
(5.02603 -0.00786696 0)
(5.0251 -0.00649683 0)
(5.02433 -0.00536239 0)
(5.0237 -0.00442205 0)
(5.02318 -0.00364173 0)
(5.02275 -0.00299359 0)
(5.0224 -0.00245422 0)
(5.02211 -0.00200397 0)
(5.02187 -0.00162639 0)
(5.02168 -0.00130781 0)
(5.02153 -0.00103666 0)
(5.02141 -0.000803144 0)
(5.02132 -0.000598747 0)
(5.02126 -0.000416092 0)
(5.02121 -0.000248566 0)
(5.02119 -9.00939e-05 0)
(5.02119 6.508e-05 0)
(5.02121 0.00022256 0)
(5.02125 0.000388042 0)
(5.02131 0.000567545 0)
(5.0214 0.000767588 0)
(5.02151 0.000995424 0)
(5.02165 0.00125932 0)
(5.02184 0.00156888 0)
(5.02206 0.00193535 0)
(5.02234 0.00237198 0)
(5.02268 0.00289461 0)
(5.02309 0.00352217 0)
(5.0236 0.0042774 0)
(5.02421 0.00518763 0)
(5.02495 0.00628585 0)
(5.02584 0.00761187 0)
(5.02693 0.00921372 0)
(5.02824 0.0111494 0)
(5.02983 0.013489 0)
(5.03175 0.0163174 0)
(5.03407 0.019737 0)
(5.03689 0.0238716 0)
(5.04029 0.0288709 0)
(5.0444 0.0349159 0)
(5.04938 0.0422256 0)
(5.05539 0.0510645 0)
(5.06267 0.0617526 0)
(5.07148 0.0746768 0)
(5.08213 0.0903048 0)
(5.09502 0.109202 0)
(5.11061 0.132052 0)
(5.12949 0.159682 0)
(5.15233 0.19309 0)
(5.17999 0.233485 0)
(5.21351 0.282324 0)
(5.25415 0.341371 0)
(5.30349 0.412755 0)
(5.36348 0.499041 0)
(5.43659 0.603321 0)
(5.52606 0.729308 0)
(5.63588 0.881435 0)
(5.7728 1.06495 0)
(5.94038 1.2857 0)
(6.16791 1.55154 0)
(6.40486 1.85905 0)
(6.90546 2.2684 0)
(6.98469 2.48479 0)
(8.56712 3.69363 0)
(7.74166 1.93652 0)
(10.3331 6.66967 0)
(9.44731 -1.6801 0)
(9.01307 -2.03477 0)
(8.26808 -2.123 0)
(7.54419 -1.95285 0)
(7.03927 -1.72996 0)
(6.66964 -1.52258 0)
(6.36233 -1.3197 0)
(6.10989 -1.12722 0)
(5.90811 -0.954499 0)
(5.7462 -0.803692 0)
(5.61523 -0.673873 0)
(5.50883 -0.563276 0)
(5.42209 -0.469755 0)
(5.35116 -0.391089 0)
(5.29302 -0.325166 0)
(5.24527 -0.270077 0)
(5.206 -0.224139 0)
(5.17365 -0.185893 0)
(5.147 -0.154091 0)
(5.12501 -0.127675 0)
(5.10686 -0.105749 0)
(5.09188 -0.0875632 0)
(5.07951 -0.0724866 0)
(5.06929 -0.0599933 0)
(5.06085 -0.0496445 0)
(5.05388 -0.0410745 0)
(5.04812 -0.0339794 0)
(5.04335 -0.0281064 0)
(5.03942 -0.0232459 0)
(5.03616 -0.0192237 0)
(5.03347 -0.0158955 0)
(5.03125 -0.0131416 0)
(5.02941 -0.0108629 0)
(5.0279 -0.00897756 0)
(5.02664 -0.00741726 0)
(5.02561 -0.0061254 0)
(5.02475 -0.00505573 0)
(5.02405 -0.00416921 0)
(5.02347 -0.00343361 0)
(5.02299 -0.00282254 0)
(5.0226 -0.00231399 0)
(5.02228 -0.00188944 0)
(5.02201 -0.00153344 0)
(5.0218 -0.00123306 0)
(5.02163 -0.000977404 0)
(5.0215 -0.000757205 0)
(5.0214 -0.000564456 0)
(5.02133 -0.000392206 0)
(5.02128 -0.000234219 0)
(5.02126 -8.47498e-05 0)
(5.02125 6.16133e-05 0)
(5.02127 0.00021015 0)
(5.02132 0.000366234 0)
(5.02139 0.00053555 0)
(5.02148 0.00072424 0)
(5.02161 0.00093914 0)
(5.02177 0.00118807 0)
(5.02197 0.00148008 0)
(5.02222 0.0018258 0)
(5.02253 0.0022377 0)
(5.02291 0.00273073 0)
(5.02337 0.00332276 0)
(5.02393 0.00403524 0)
(5.02461 0.00489392 0)
(5.02544 0.00592996 0)
(5.02644 0.00718092 0)
(5.02764 0.0086921 0)
(5.02911 0.0105182 0)
(5.03088 0.0127253 0)
(5.03302 0.0153935 0)
(5.03561 0.0186195 0)
(5.03874 0.0225199 0)
(5.04253 0.027236 0)
(5.04711 0.0329386 0)
(5.05265 0.0398342 0)
(5.05935 0.0481722 0)
(5.06746 0.0582543 0)
(5.07727 0.0704456 0)
(5.08913 0.0851869 0)
(5.10348 0.103011 0)
(5.12085 0.124563 0)
(5.14186 0.15062 0)
(5.16729 0.182124 0)
(5.19808 0.220209 0)
(5.23537 0.266246 0)
(5.28058 0.321885 0)
(5.33542 0.389112 0)
(5.40206 0.470313 0)
(5.48317 0.568333 0)
(5.58226 0.686556 0)
(5.70359 0.828914 0)
(5.85411 1.00004 0)
(6.03782 1.20421 0)
(6.28235 1.44959 0)
(6.54324 1.72252 0)
(7.04034 2.10025 0)
(7.20605 2.25224 0)
(8.56679 3.28424 0)
(8.09656 1.93633 0)
(10.3418 5.39533 0)
(9.32037 -1.45622 0)
(8.92534 -1.74468 0)
(8.27915 -1.84997 0)
(7.61913 -1.73679 0)
(7.12343 -1.55543 0)
(6.74987 -1.3769 0)
(6.43972 -1.2009 0)
(6.18184 -1.03157 0)
(5.97221 -0.877246 0)
(5.80202 -0.741057 0)
(5.6632 -0.622939 0)
(5.54965 -0.521732 0)
(5.45659 -0.435776 0)
(5.38017 -0.363232 0)
(5.31733 -0.302286 0)
(5.26558 -0.251257 0)
(5.22293 -0.20864 0)
(5.18775 -0.173118 0)
(5.15872 -0.143554 0)
(5.13474 -0.118979 0)
(5.11494 -0.0985698 0)
(5.09858 -0.081634 0)
(5.08507 -0.0675888 0)
(5.0739 -0.0559469 0)
(5.06467 -0.0463009 0)
(5.05704 -0.0383114 0)
(5.05073 -0.0316958 0)
(5.04552 -0.026219 0)
(5.04121 -0.021686 0)
(5.03764 -0.0179344 0)
(5.0347 -0.0148299 0)
(5.03227 -0.0122609 0)
(5.03025 -0.0101353 0)
(5.02859 -0.00837624 0)
(5.02722 -0.00692047 0)
(5.02608 -0.00571546 0)
(5.02515 -0.00471737 0)
(5.02438 -0.00389008 0)
(5.02374 -0.00320374 0)
(5.02322 -0.0026336 0)
(5.02279 -0.00215908 0)
(5.02243 -0.00176295 0)
(5.02215 -0.00143077 0)
(5.02192 -0.0011505 0)
(5.02173 -0.000911941 0)
(5.02159 -0.000706442 0)
(5.02148 -0.000526559 0)
(5.02139 -0.000365811 0)
(5.02134 -0.00021836 0)
(5.02132 -7.88367e-05 0)
(5.02131 5.77888e-05 0)
(5.02134 0.000196435 0)
(5.02138 0.000342134 0)
(5.02146 0.000500197 0)
(5.02156 0.000676344 0)
(5.0217 0.00087695 0)
(5.02188 0.00110935 0)
(5.0221 0.001382 0)
(5.02238 0.00170479 0)
(5.02272 0.00208938 0)
(5.02313 0.00254973 0)
(5.02364 0.00310254 0)
(5.02425 0.00376779 0)
(5.025 0.00456953 0)
(5.0259 0.00553688 0)
(5.02699 0.00670494 0)
(5.02832 0.00811595 0)
(5.02992 0.00982096 0)
(5.03186 0.0118818 0)
(5.0342 0.0143731 0)
(5.03704 0.0173852 0)
(5.04048 0.0210269 0)
(5.04463 0.0254303 0)
(5.04965 0.0307548 0)
(5.05572 0.037193 0)
(5.06307 0.0449778 0)
(5.07195 0.0543909 0)
(5.0827 0.0657729 0)
(5.0957 0.0795352 0)
(5.11143 0.0961751 0)
(5.13045 0.116293 0)
(5.15347 0.140616 0)
(5.18133 0.170018 0)
(5.21504 0.205556 0)
(5.25587 0.248503 0)
(5.30535 0.300388 0)
(5.36533 0.363045 0)
(5.43815 0.438663 0)
(5.52669 0.529831 0)
(5.63463 0.639586 0)
(5.76647 0.771368 0)
(5.92918 0.929162 0)
(6.12725 1.11599 0)
(6.38531 1.33921 0)
(6.66806 1.58117 0)
(7.15202 1.91652 0)
(7.40126 2.04116 0)
(8.54651 2.87151 0)
(8.40235 1.89383 0)
(10.2592 4.33625 0)
(9.21997 -1.25234 0)
(8.84903 -1.48377 0)
(8.27624 -1.595 0)
(7.67365 -1.52764 0)
(7.19309 -1.38449 0)
(6.81902 -1.23278 0)
(6.50714 -1.08106 0)
(6.24532 -0.933405 0)
(6.02947 -0.796985 0)
(5.85234 -0.675357 0)
(5.70671 -0.569104 0)
(5.58686 -0.477557 0)
(5.48816 -0.399477 0)
(5.4068 -0.333366 0)
(5.33969 -0.277685 0)
(5.2843 -0.230975 0)
(5.23856 -0.191907 0)
(5.20077 -0.159306 0)
(5.16955 -0.132148 0)
(5.14375 -0.109557 0)
(5.12242 -0.090786 0)
(5.10479 -0.0752017 0)
(5.09022 -0.0622728 0)
(5.07817 -0.051553 0)
(5.0682 -0.042669 0)
(5.05996 -0.0353091 0)
(5.05315 -0.0292139 0)
(5.04752 -0.0241674 0)
(5.04287 -0.0199899 0)
(5.03902 -0.0165324 0)
(5.03584 -0.0136709 0)
(5.03321 -0.011303 0)
(5.03103 -0.00934361 0)
(5.02924 -0.00772218 0)
(5.02775 -0.00638033 0)
(5.02653 -0.00526932 0)
(5.02551 -0.00434905 0)
(5.02468 -0.00358636 0)
(5.02399 -0.00295367 0)
(5.02343 -0.00242807 0)
(5.02296 -0.00199056 0)
(5.02258 -0.00162533 0)
(5.02227 -0.00131908 0)
(5.02202 -0.0010607 0)
(5.02182 -0.000840737 0)
(5.02166 -0.000651236 0)
(5.02154 -0.000485356 0)
(5.02146 -0.000337116 0)
(5.0214 -0.000201124 0)
(5.02137 -7.24153e-05 0)
(5.02137 5.36162e-05 0)
(5.02139 0.000181509 0)
(5.02144 0.000315924 0)
(5.02153 0.000461732 0)
(5.02164 0.000624232 0)
(5.02179 0.000809268 0)
(5.02198 0.00102369 0)
(5.02222 0.00127524 0)
(5.02252 0.00157309 0)
(5.02289 0.00192793 0)
(5.02333 0.00235272 0)
(5.02388 0.00286283 0)
(5.02455 0.00347668 0)
(5.02535 0.00421645 0)
(5.02633 0.00510906 0)
(5.02751 0.0061869 0)
(5.02894 0.0074889 0)
(5.03068 0.00906214 0)
(5.03277 0.0109637 0)
(5.03531 0.0132625 0)
(5.03838 0.0160418 0)
(5.04209 0.0194021 0)
(5.04658 0.0234652 0)
(5.05201 0.0283781 0)
(5.05858 0.0343186 0)
(5.06652 0.0415014 0)
(5.07613 0.0501865 0)
(5.08775 0.060688 0)
(5.1018 0.0733852 0)
(5.1188 0.0887363 0)
(5.13936 0.107295 0)
(5.16424 0.129731 0)
(5.19435 0.156848 0)
(5.23078 0.189618 0)
(5.27489 0.22921 0)
(5.3283 0.277022 0)
(5.39303 0.334727 0)
(5.47155 0.404308 0)
(5.56688 0.488089 0)
(5.68289 0.588758 0)
(5.82421 0.709273 0)
(5.9977 0.852967 0)
(6.20829 1.02191 0)
(6.4772 1.22206 0)
(6.77825 1.43562 0)
(7.24725 1.72513 0)
(7.56287 1.83918 0)
(8.53713 2.47977 0)
(8.63069 1.80131 0)
(10.1736 3.46549 0)
(9.13944 -1.0671 0)
(8.78261 -1.25407 0)
(8.26484 -1.36109 0)
(7.71198 -1.32614 0)
(7.24947 -1.21635 0)
(6.87777 -1.08991 0)
(6.56528 -0.96063 0)
(6.30071 -0.833338 0)
(6.08002 -0.714264 0)
(5.89714 -0.60706 0)
(5.7457 -0.51275 0)
(5.62037 -0.431065 0)
(5.51669 -0.36111 0)
(5.43093 -0.301692 0)