/*--------------------------------*- C++ -*----------------------------------*\
| =========                 |                                                 |
| \\      /  F ield         | OpenFOAM: The Open Source CFD Toolbox           |
|  \\    /   O peration     | Version:  2.4.0                                 |
|   \\  /    A nd           | Web:      www.OpenFOAM.org                      |
|    \\/     M anipulation  |                                                 |
\*---------------------------------------------------------------------------*/
FoamFile
{
    version     2.0;
    format      ascii;
    class       volVectorField;
    location    "0.002";
    object      U_0;
}
// * * * * * * * * * * * * * * * * * * * * * * * * * * * * * * * * * * * * * //

dimensions      [0 1 -1 0 0 0 0];

internalField   nonuniform List<vector> 
4400
(
(6.88963 0.259245 0)
(6.05681 0.118682 0)
(5.67459 -0.00606753 0)
(5.69327 -0.0122457 0)
(5.75939 -0.00239427 0)
(5.78338 -4.68448e-05 0)
(5.79263 0.00132101 0)
(5.86507 0.00751983 0)
(6.14647 -0.113231 0)
(7.06118 0.215185 0)
(8.4584 0.413738 0)
(10.5173 0.159228 0)
(10.1591 0.00954685 0)
(9.9414 -0.0133222 0)
(9.96499 -0.00522813 0)
(9.99604 -0.00108355 0)
(9.98977 -0.00334807 0)
(10.2535 -0.0108361 0)
(9.76868 -0.121698 0)
(13.5231 -0.747284 0)
(8.5123 0.366765 0)
(11.1655 0.149503 0)
(10.7845 0.00662861 0)
(10.4934 -0.0127212 0)
(10.5023 -0.00524639 0)
(10.5312 -6.26336e-05 0)
(10.5411 -0.0170201 0)
(10.681 0.0379416 0)
(10.947 -0.512925 0)
(11.0269 -0.868659 0)
(8.49922 0.307016 0)
(11.1612 0.127775 0)
(10.79 0.0111939 0)
(10.5039 -0.00930436 0)
(10.5139 -0.00434505 0)
(10.5422 -0.0010329 0)
(10.5466 -0.0139138 0)
(10.7029 -0.0325278 0)
(10.6134 -0.316593 0)
(12.0363 -1.29436 0)
(8.48849 0.254655 0)
(11.1396 0.110395 0)
(10.7814 0.0114502 0)
(10.5029 -0.00719347 0)
(10.5144 -0.00380033 0)
(10.541 -0.00103229 0)
(10.5491 -0.0213145 0)
(10.6524 -0.011885 0)
(10.7324 -0.49375 0)
(10.6341 -0.990449 0)
(8.47988 0.205061 0)
(11.122 0.0917283 0)
(10.7742 0.0108619 0)
(10.5019 -0.00535872 0)
(10.5147 -0.00318876 0)
(10.5399 -0.00172178 0)
(10.5469 -0.0224748 0)
(10.6248 -0.0458487 0)
(10.6567 -0.444223 0)
(10.5731 -1.13341 0)
(8.47319 0.157452 0)
(11.1082 0.0721549 0)
(10.7683 0.00937735 0)
(10.501 -0.00381672 0)
(10.5149 -0.00260852 0)
(10.5386 -0.00228207 0)
(10.544 -0.0250628 0)
(10.5954 -0.0597924 0)
(10.6048 -0.449448 0)
(10.3021 -1.13159 0)
(8.46829 0.111381 0)
(11.098 0.0519745 0)
(10.7639 0.0072254 0)
(10.5003 -0.00251054 0)
(10.5149 -0.00203866 0)
(10.5371 -0.00287824 0)
(10.5401 -0.0266795 0)
(10.568 -0.0731563 0)
(10.5467 -0.436235 0)
(10.1406 -1.06533 0)
(8.46508 0.0663956 0)
(11.0913 0.0313668 0)
(10.761 0.00455351 0)
(10.4998 -0.00137775 0)
(10.5148 -0.00147908 0)
(10.5355 -0.00339352 0)
(10.5354 -0.0277669 0)
(10.5423 -0.0822359 0)
(10.4903 -0.415435 0)
(10.011 -1.0026 0)
(8.46349 0.0220515 0)
(11.088 0.0105141 0)
(10.7595 0.00159134 0)
(10.4995 -0.000351003 0)
(10.5147 -0.000922002 0)
(10.5338 -0.003793 0)
(10.5303 -0.0282061 0)
(10.5185 -0.0873059 0)
(10.4373 -0.389271 0)
(9.90807 -0.920518 0)
(8.46351 -0.0220758 0)
(11.0879 -0.0104199 0)
(10.7595 -0.0014682 0)
(10.4995 0.00063704 0)
(10.5144 -0.000359344 0)
(10.5321 -0.00404276 0)
(10.5251 -0.0279607 0)
(10.4966 -0.0886242 0)
(10.3889 -0.358361 0)
(9.82483 -0.830033 0)
(8.46511 -0.0664201 0)
(11.0913 -0.031276 0)
(10.761 -0.00442493 0)
(10.4997 0.00165752 0)
(10.5141 0.000221083 0)
(10.5304 -0.00412189 0)
(10.5198 -0.0270141 0)
(10.4769 -0.0865241 0)
(10.3459 -0.323824 0)
(9.7571 -0.73186 0)
(8.46835 -0.111403 0)
(11.098 -0.0518805 0)
(10.7639 -0.0071218 0)
(10.5001 0.00277251 0)
(10.5137 0.000833278 0)
(10.5287 -0.00402127 0)
(10.5148 -0.0253838 0)
(10.4594 -0.0814367 0)
(10.3086 -0.286417 0)
(9.70209 -0.628127 0)
(8.47327 -0.157473 0)
(11.1082 -0.0720803 0)
(10.7683 -0.00928693 0)
(10.5007 0.00405685 0)
(10.5132 0.00147991 0)
(10.5271 -0.00374169 0)
(10.5101 -0.0231091 0)
(10.4443 -0.0737836 0)
(10.2774 -0.24685 0)
(9.65806 -0.520136 0)
(8.47997 -0.20508 0)
(11.1219 -0.0916485 0)
(10.7742 -0.0107722 0)
(10.5015 0.00556624 0)
(10.5127 0.00216126 0)
(10.5256 -0.00329855 0)
(10.506 -0.0202549 0)
(10.4315 -0.0640248 0)
(10.2524 -0.205768 0)
(9.62382 -0.408795 0)
(8.4886 -0.254673 0)
(11.1395 -0.110334 0)
(10.7814 -0.0113831 0)
(10.5024 0.00736413 0)
(10.5121 0.00288026 0)
(10.5243 -0.002711 0)
(10.5025 -0.0169013 0)
(10.4211 -0.0526025 0)
(10.2338 -0.163878 0)
(9.59868 -0.294863 0)
(8.49933 -0.307034 0)
(11.1611 -0.127713 0)
(10.79 -0.0111397 0)
(10.5034 0.00941969 0)
(10.5114 0.00359963 0)
(10.5231 -0.00202816 0)
(10.4997 -0.0131765 0)
(10.4131 -0.0401073 0)
(10.2216 -0.122114 0)
(9.58222 -0.17946 0)
(8.51242 -0.366775 0)
(11.1654 -0.149469 0)
(10.7845 -0.00658981 0)
(10.4929 0.0127986 0)
(10.4996 0.00462574 0)
(10.5109 -0.00119675 0)
(10.4863 -0.00908076 0)
(10.3957 -0.0266643 0)
(10.2032 -0.081414 0)
(9.56407 -0.0586377 0)
(8.45849 -0.413746 0)
(10.5172 -0.159204 0)
(10.1591 -0.00952329 0)
(9.94092 0.0133415 0)
(9.96258 0.00494909 0)
(9.97511 -0.000317919 0)
(9.95143 -0.0046497 0)
(9.86508 -0.0124326 0)
(9.69211 -0.0426107 0)
(9.10691 0.0431997 0)
(6.88962 -0.25924 0)
(6.05683 -0.118675 0)
(5.6747 0.00608266 0)
(5.69308 0.0122941 0)
(5.75787 0.00259577 0)
(5.77265 0.000312999 0)
(5.75984 0.000391786 0)
(5.71604 0.00126216 0)
(5.65454 -0.00148168 0)
(5.25067 0.105053 0)
(9.60853 -6.83987 0)
(5.77551 -5.8434 0)
(5.25301 -4.83632 0)
(5.56447 -3.97511 0)
(5.5581 -3.18142 0)
(5.39441 -2.53616 0)
(5.27446 -2.05092 0)
(5.20055 -1.67062 0)
(5.15016 -1.36595 0)
(5.11516 -1.12052 0)
(5.0906 -0.921533 0)
(5.07301 -0.759223 0)
(5.06015 -0.626264 0)
(5.05062 -0.517018 0)
(5.04347 -0.427083 0)
(5.03805 -0.352933 0)
(5.03389 -0.291731 0)
(5.03068 -0.241186 0)
(5.02819 -0.199423 0)
(5.02623 -0.164905 0)
(5.02469 -0.136368 0)
(5.02346 -0.112774 0)
(5.02249 -0.0932629 0)
(5.02171 -0.0771282 0)
(5.02108 -0.0637848 0)
(5.02057 -0.0527495 0)
(5.02016 -0.0436228 0)
(5.01983 -0.0360744 0)
(5.01956 -0.0298313 0)
(5.01934 -0.0246676 0)
(5.01915 -0.0203965 0)
(5.01901 -0.0168634 0)
(5.01889 -0.0139407 0)
(5.01879 -0.0115222 0)
(5.0187 -0.00951935 0)
(5.01864 -0.00786254 0)
(5.01858 -0.00649145 0)
(5.01853 -0.00535367 0)
(5.0185 -0.00440951 0)
(5.01847 -0.00362564 0)
(5.01844 -0.00297311 0)
(5.01842 -0.0024281 0)
(5.0184 -0.00197103 0)
(5.01839 -0.00158526 0)
(5.01838 -0.0012569 0)
(5.01837 -0.000974019 0)
(5.01836 -0.000726429 0)
(5.01836 -0.000505107 0)
(5.01836 -0.000302049 0)
(5.01836 -0.000109961 0)
(5.01836 7.81565e-05 0)
(5.01836 0.000269082 0)
(5.01836 0.000469738 0)
(5.01836 0.000687352 0)
(5.01837 0.000929784 0)
(5.01838 0.00120588 0)
(5.01839 0.00152552 0)
(5.0184 0.00190036 0)
(5.01842 0.00234385 0)
(5.01844 0.00287222 0)
(5.01846 0.00350444 0)
(5.01849 0.00426344 0)
(5.01853 0.00517664 0)
(5.01857 0.00627718 0)
(5.01862 0.00760479 0)
(5.01869 0.00920745 0)
(5.01876 0.0111432 0)
(5.01886 0.013482 0)
(5.01897 0.0163084 0)
(5.0191 0.0197246 0)
(5.01927 0.0238541 0)
(5.01947 0.0288464 0)
(5.01971 0.0348819 0)
(5.02001 0.0421789 0)
(5.02036 0.0510012 0)
(5.0208 0.0616681 0)
(5.02132 0.0745652 0)
(5.02195 0.0901592 0)
(5.02273 0.109014 0)
(5.02366 0.131814 0)
(5.0248 0.159384 0)
(5.02618 0.192724 0)
(5.02786 0.233048 0)
(5.02991 0.281825 0)
(5.03241 0.340842 0)
(5.03546 0.412272 0)
(5.03919 0.498771 0)
(5.04376 0.603602 0)
(5.0494 0.730794 0)
(5.05636 0.885387 0)
(5.06515 1.07373 0)
(5.0758 1.3043 0)
(5.09198 1.58684 0)
(5.10315 1.94384 0)
(5.16473 2.36232 0)
(5.09268 3.03605 0)
(5.50859 3.45714 0)
(4.82954 5.38257 0)
(6.18959 5.71367 0)
(4.53472 10.5414 0)
(14.1904 -7.47499 0)
(9.95212 -6.10292 0)
(6.73727 -4.71417 0)
(6.05806 -3.88789 0)
(5.85785 -3.11852 0)
(5.62468 -2.47967 0)
(5.45132 -2.0035 0)
(5.34074 -1.63656 0)
(5.26321 -1.34233 0)
(5.20677 -1.1038 0)
(5.16524 -0.90939 0)
(5.13409 -0.75022 0)
(5.11031 -0.619481 0)
(5.0919 -0.511835 0)
(5.0775 -0.423066 0)
(5.06613 -0.3498 0)
(5.05708 -0.289267 0)
(5.04985 -0.239232 0)
(5.04403 -0.197865 0)
(5.03933 -0.163657 0)
(5.03552 -0.135364 0)
(5.03242 -0.111962 0)
(5.0299 -0.0926049 0)
(5.02784 -0.0765932 0)
(5.02615 -0.0633488 0)
(5.02476 -0.0523934 0)
(5.02363 -0.0433315 0)
(5.0227 -0.0358357 0)
(5.02193 -0.0296353 0)
(5.0213 -0.0245066 0)
(5.02078 -0.0202639 0)
(5.02035 -0.0167543 0)
(5.02 -0.01385 0)
(5.0197 -0.0114495 0)
(5.01946 -0.00945918 0)
(5.01927 -0.00781055 0)
(5.0191 -0.00645072 0)
(5.01897 -0.00532123 0)
(5.01886 -0.00438272 0)
(5.01877 -0.00360351 0)
(5.01869 -0.00295493 0)
(5.01863 -0.00241329 0)
(5.01858 -0.00195902 0)
(5.01854 -0.00157567 0)
(5.01851 -0.00124927 0)
(5.01848 -0.000968056 0)
(5.01846 -0.000721891 0)
(5.01845 -0.000501938 0)
(5.01844 -0.00030012 0)
(5.01843 -0.000109158 0)
(5.01843 7.77669e-05 0)
(5.01844 0.000267401 0)
(5.01845 0.000466719 0)
(5.01846 0.000682959 0)
(5.01848 0.000923827 0)
(5.0185 0.00119805 0)
(5.01853 0.00151567 0)
(5.01857 0.00188819 0)
(5.01862 0.00232899 0)
(5.01868 0.00285398 0)
(5.01875 0.00348236 0)
(5.01884 0.0042368 0)
(5.01894 0.00514447 0)
(5.01907 0.00623807 0)
(5.01923 0.00755738 0)
(5.01942 0.00915012 0)
(5.01965 0.0110737 0)
(5.01993 0.0133976 0)
(5.02027 0.0162061 0)
(5.02067 0.0196009 0)
(5.02117 0.0237045 0)
(5.02177 0.0286652 0)
(5.02249 0.0346626 0)
(5.02336 0.0419137 0)
(5.02442 0.0506803 0)
(5.0257 0.0612796 0)
(5.02725 0.074095 0)
(5.02912 0.0895904 0)
(5.03139 0.108326 0)
(5.03414 0.130981 0)
(5.03747 0.158375 0)
(5.0415 0.191503 0)
(5.0464 0.231569 0)
(5.05233 0.280033 0)
(5.05954 0.338669 0)
(5.06831 0.409636 0)
(5.07898 0.49557 0)
(5.09202 0.599709 0)
(5.10801 0.72605 0)
(5.1277 0.879584 0)
(5.15229 1.06663 0)
(5.18254 1.29539 0)
(5.22511 1.5764 0)
(5.26289 1.92777 0)
(5.40403 2.34926 0)
(5.23431 3.00246 0)
(6.38254 3.33184 0)
(3.93631 5.70666 0)
(9.61196 4.32953 0)
(6.36349 11.0926 0)
(11.3865 -3.6352 0)
(11.534 -3.96291 0)
(9.12032 -3.67276 0)
(7.17447 -3.30737 0)
(6.34132 -2.85165 0)
(5.894 -2.35693 0)
(5.63183 -1.93142 0)
(5.4772 -1.58839 0)
(5.37247 -1.30862 0)
(5.29567 -1.0793 0)
(5.23798 -0.891073 0)
(5.19383 -0.736252 0)
(5.15949 -0.608658 0)
(5.13247 -0.503351 0)
(5.11099 -0.416355 0)
(5.0938 -0.344445 0)
(5.07996 -0.284969 0)
(5.06877 -0.235766 0)
(5.05968 -0.195059 0)
(5.05227 -0.161377 0)
(5.04623 -0.133506 0)
(5.04128 -0.110445 0)
(5.03723 -0.0913635 0)
(5.0339 -0.0755758 0)
(5.03116 -0.0625137 0)
(5.02891 -0.0517073 0)
(5.02706 -0.0427671 0)
(5.02554 -0.035371 0)
(5.02428 -0.0292526 0)
(5.02324 -0.0241911 0)
(5.02238 -0.0200039 0)
(5.02168 -0.0165397 0)
(5.0211 -0.0136736 0)
(5.02061 -0.0113028 0)
(5.02022 -0.0093381 0)
(5.01989 -0.00771251 0)
(5.01962 -0.00636883 0)
(5.0194 -0.00525289 0)
(5.01921 -0.00432638 0)
(5.01906 -0.00355727 0)
(5.01894 -0.00291709 0)
(5.01884 -0.00238242 0)
(5.01875 -0.00193396 0)
(5.01869 -0.00155547 0)
(5.01863 -0.00123324 0)
(5.01859 -0.000955655 0)
(5.01856 -0.000712682 0)
(5.01854 -0.000495522 0)
(5.01852 -0.000296265 0)
(5.01851 -0.000107765 0)
(5.01851 7.67766e-05 0)
(5.01852 0.00026407 0)
(5.01853 0.000460929 0)
(5.01855 0.000674445 0)
(5.01858 0.000912286 0)
(5.01862 0.00118313 0)
(5.01868 0.0014968 0)
(5.01874 0.00186462 0)
(5.01882 0.00229983 0)
(5.01892 0.00281827 0)
(5.01904 0.00343874 0)
(5.01918 0.00418359 0)
(5.01936 0.00507973 0)
(5.01957 0.00615959 0)
(5.01984 0.00746232 0)
(5.02015 0.00903495 0)
(5.02053 0.0109343 0)
(5.02099 0.0132291 0)
(5.02155 0.0160024 0)
(5.02223 0.0193544 0)
(5.02305 0.0234062 0)
(5.02404 0.0283046 0)
(5.02523 0.0342265 0)
(5.02668 0.0413861 0)
(5.02843 0.0500421 0)
(5.03055 0.0605077 0)
(5.03312 0.0731614 0)
(5.03622 0.0884608 0)
(5.03997 0.106959 0)
(5.04452 0.129327 0)
(5.05002 0.156374 0)
(5.05668 0.189081 0)
(5.06475 0.228636 0)
(5.07454 0.276479 0)
(5.08641 0.334361 0)
(5.10083 0.40441 0)
(5.11839 0.489221 0)
(5.1398 0.591979 0)
(5.16602 0.716613 0)
(5.19828 0.868003 0)
(5.23841 1.05238 0)
(5.28824 1.27742 0)
(5.35527 1.5548 0)
(5.42624 1.89402 0)
(5.60869 2.32971 0)
(5.48674 2.87288 0)
(6.80768 3.40411 0)
(4.00587 5.3953 0)
(11.1425 3.19373 0)
(6.80454 11.2748 0)
(8.75817 -5.33567 0)
(6.64344 -5.10356 0)
(6.12614 -3.79726 0)
(6.23255 -3.03636 0)
(6.22696 -2.6226 0)
(6.00644 -2.22267 0)
(5.77231 -1.84668 0)
(5.6007 -1.52945 0)
(5.47557 -1.26604 0)
(5.38088 -1.04762 0)
(5.30824 -0.866935 0)
(5.25179 -0.717536 0)
(5.20737 -0.593953 0)
(5.17204 -0.491679 0)
(5.14372 -0.407016 0)
(5.12088 -0.336924 0)
(5.10237 -0.278884 0)
(5.08731 -0.230823 0)
(5.07503 -0.191031 0)
(5.06498 -0.158086 0)
(5.05674 -0.130812 0)
(5.04998 -0.108236 0)
(5.04443 -0.0895492 0)
(5.03986 -0.0740842 0)
(5.03609 -0.0612863 0)
(5.03299 -0.0506964 0)
(5.03044 -0.041934 0)
(5.02833 -0.0346842 0)
(5.02659 -0.028686 0)
(5.02515 -0.0237236 0)
(5.02397 -0.019618 0)
(5.02299 -0.0162212 0)
(5.02218 -0.0134103 0)
(5.02151 -0.0110852 0)
(5.02096 -0.00915944 0)
(5.0205 -0.00756487 0)
(5.02013 -0.00624629 0)
(5.01982 -0.00515213 0)
(5.01956 -0.00424362 0)
(5.01935 -0.00348922 0)
(5.01918 -0.00286128 0)
(5.01904 -0.00233686 0)
(5.01892 -0.00189698 0)
(5.01883 -0.00152572 0)
(5.01876 -0.00120964 0)
(5.0187 -0.000937377 0)
(5.01865 -0.000699027 0)
(5.01862 -0.000485991 0)
(5.0186 -0.000290541 0)
(5.01859 -0.000105643 0)
(5.01859 7.53987e-05 0)
(5.0186 0.000259138 0)
(5.01862 0.000452233 0)
(5.01865 0.000661667 0)
(5.01869 0.000894996 0)
(5.01875 0.0011607 0)
(5.01882 0.00146839 0)
(5.01891 0.00182919 0)
(5.01902 0.00225616 0)
(5.01915 0.00276476 0)
(5.01932 0.00337343 0)
(5.01952 0.00410413 0)
(5.01977 0.00498328 0)
(5.02007 0.00604265 0)
(5.02043 0.00732063 0)
(5.02087 0.00886336 0)
(5.0214 0.0107266 0)
(5.02204 0.0129778 0)
(5.02282 0.0156984 0)
(5.02376 0.0189867 0)
(5.0249 0.0229615 0)
(5.02627 0.0277667 0)
(5.02794 0.033576 0)
(5.02995 0.0405993 0)
(5.03239 0.0490906 0)
(5.03533 0.0593569 0)
(5.03889 0.0717694 0)
(5.0432 0.0867771 0)
(5.04842 0.104923 0)
(5.05473 0.126863 0)
(5.06237 0.153392 0)
(5.07161 0.185472 0)
(5.08281 0.224267 0)
(5.09639 0.271188 0)
(5.11285 0.327948 0)
(5.13283 0.396629 0)
(5.15714 0.479767 0)
(5.18677 0.580466 0)
(5.22303 0.702549 0)
(5.2676 0.850739 0)
(5.32287 1.03106 0)
(5.39194 1.25069 0)
(5.48144 1.52153 0)
(5.59031 1.84738 0)
(5.78007 2.28402 0)
(5.84843 2.73427 0)
(6.75559 3.44897 0)
(5.48418 4.86855 0)
(10.0412 2.55794 0)
(6.78979 11.33 0)
(11.1613 -2.48611 0)
(10.5901 -3.37794 0)
(8.49087 -3.40377 0)
(7.15775 -2.9255 0)
(6.5814 -2.49861 0)
(6.20721 -2.11037 0)
(5.92166 -1.75912 0)
(5.71995 -1.46292 0)
(5.57358 -1.21584 0)
(5.46212 -1.00939 0)
(5.37559 -0.83735 0)
(5.30761 -0.69432 0)
(5.25362 -0.575533 0)
(5.21037 -0.476937 0)
(5.17548 -0.395139 0)
(5.14719 -0.327303 0)
(5.12417 -0.27106 0)
(5.10537 -0.22444 0)
(5.08998 -0.18581 0)
(5.07736 -0.153807 0)
(5.067 -0.1273 0)
(5.05847 -0.105349 0)
(5.05146 -0.0871739 0)
(5.04567 -0.0721281 0)
(5.04091 -0.0596744 0)
(5.03698 -0.0493673 0)
(5.03373 -0.0408376 0)
(5.03106 -0.0337793 0)
(5.02884 -0.0279391 0)
(5.02702 -0.0231069 0)
(5.02551 -0.0191087 0)
(5.02427 -0.0158004 0)
(5.02324 -0.0130629 0)
(5.02239 -0.0107981 0)
(5.02168 -0.00892239 0)
(5.0211 -0.00736939 0)
(5.02062 -0.00608471 0)
(5.02023 -0.00501902 0)
(5.0199 -0.0041341 0)
(5.01964 -0.00339914 0)
(5.01942 -0.00278739 0)
(5.01924 -0.00227653 0)
(5.01909 -0.00184801 0)
(5.01897 -0.00148633 0)
(5.01888 -0.00117842 0)
(5.0188 -0.000913174 0)
(5.01875 -0.000680963 0)
(5.01871 -0.000473404 0)
(5.01868 -0.000282984 0)
(5.01867 -0.000102841 0)
(5.01866 7.35492e-05 0)
(5.01868 0.000252576 0)
(5.0187 0.000440713 0)
(5.01874 0.000644767 0)
(5.01879 0.000872109 0)
(5.01886 0.001131 0)
(5.01895 0.00143079 0)
(5.01907 0.00178234 0)
(5.01921 0.00219837 0)
(5.01938 0.00269394 0)
(5.01959 0.00328701 0)
(5.01985 0.00399898 0)
(5.02017 0.00485561 0)
(5.02055 0.00588785 0)
(5.02101 0.00713307 0)
(5.02157 0.00863627 0)
(5.02225 0.0104518 0)
(5.02307 0.0126453 0)
(5.02406 0.0152961 0)
(5.02526 0.0185001 0)
(5.02671 0.022373 0)
(5.02846 0.027055 0)
(5.03058 0.0327152 0)
(5.03315 0.0395584 0)
(5.03625 0.0478317 0)
(5.04 0.0578345 0)
(5.04454 0.0699281 0)
(5.05003 0.08455 0)
(5.05667 0.102229 0)
(5.06471 0.123604 0)
(5.07444 0.14945 0)
(5.08621 0.180701 0)
(5.10047 0.218492 0)
(5.11774 0.264194 0)
(5.13868 0.319471 0)
(5.16409 0.386345 0)
(5.19499 0.467273 0)
(5.23263 0.565255 0)
(5.27864 0.683968 0)
(5.33516 0.827936 0)
(5.40506 1.00287 0)
(5.49264 1.21552 0)
(5.60331 1.47682 0)
(5.74884 1.78986 0)
(5.93948 2.20549 0)
(6.20641 2.6263 0)
(6.61639 3.3066 0)
(7.04936 4.52712 0)
(8.3592 2.22627 0)
(7.73619 10.6157 0)
(9.84654 -3.00324 0)
(8.90316 -3.50459 0)
(7.8149 -3.08206 0)
(7.07169 -2.59144 0)
(6.65733 -2.25936 0)
(6.32861 -1.95547 0)
(6.04479 -1.65499 0)
(5.82786 -1.3871 0)
(5.66487 -1.15846 0)
(5.53874 -0.965145 0)
(5.43959 -0.802723 0)
(5.36093 -0.666889 0)
(5.29797 -0.553598 0)
(5.24721 -0.459271 0)
(5.20607 -0.380831 0)
(5.17258 -0.315664 0)
(5.14523 -0.26156 0)
(5.12283 -0.216666 0)
(5.10446 -0.179435 0)
(5.08936 -0.148571 0)
(5.07693 -0.122994 0)
(5.0667 -0.101804 0)
(5.05827 -0.0842538 0)
(5.05131 -0.0697208 0)
(5.04558 -0.0576887 0)
(5.04084 -0.0477287 0)
(5.03693 -0.039485 0)
(5.0337 -0.0326624 0)
(5.03103 -0.0270167 0)
(5.02883 -0.0223449 0)
(5.02701 -0.0184792 0)
(5.02551 -0.0152804 0)
(5.02426 -0.0126332 0)
(5.02324 -0.0104429 0)
(5.02239 -0.00862932 0)
(5.02169 -0.00712771 0)
(5.02111 -0.00588493 0)
(5.02063 -0.00485421 0)
(5.02024 -0.00399845 0)
(5.01991 -0.00328761 0)
(5.01965 -0.00269594 0)
(5.01943 -0.00220185 0)
(5.01925 -0.00178739 0)
(5.01911 -0.00143756 0)
(5.019 -0.00113974 0)
(5.01891 -0.000883189 0)
(5.01884 -0.000658571 0)
(5.01879 -0.000457796 0)
(5.01876 -0.000273609 0)
(5.01874 -9.93618e-05 0)
(5.01874 7.12712e-05 0)
(5.01875 0.000244454 0)
(5.01878 0.000426438 0)
(5.01883 0.000623822 0)
(5.01889 0.000843754 0)
(5.01898 0.00109421 0)
(5.01909 0.00138422 0)
(5.01923 0.00172431 0)
(5.0194 0.00212681 0)
(5.01961 0.00260626 0)
(5.01986 0.00318002 0)
(5.02018 0.00386881 0)
(5.02056 0.00469756 0)
(5.02102 0.0056962 0)
(5.02157 0.00690087 0)
(5.02225 0.00835511 0)
(5.02307 0.0101115 0)
(5.02406 0.0122336 0)
(5.02526 0.0147981 0)
(5.02671 0.0178977 0)
(5.02846 0.0216445 0)
(5.03058 0.0261739 0)
(5.03315 0.0316497 0)
(5.03625 0.0382698 0)
(5.04 0.0462734 0)
(5.04454 0.0559499 0)
(5.05002 0.067649 0)
(5.05666 0.0817936 0)
(5.06469 0.098895 0)
(5.0744 0.119572 0)
(5.08616 0.144571 0)
(5.10038 0.174798 0)
(5.1176 0.211346 0)
(5.13846 0.255541 0)
(5.16374 0.308986 0)
(5.19442 0.373628 0)
(5.23169 0.451827 0)
(5.27706 0.546454 0)
(5.33248 0.661013 0)
(5.40048 0.799784 0)
(5.48436 0.968091 0)
(5.58944 1.17224 0)
(5.72029 1.42152 0)
(5.89758 1.72091 0)
(6.09821 2.10204 0)
(6.49492 2.52528 0)
(6.63354 3.04333 0)
(7.98937 4.25781 0)
(7.47924 2.13703 0)
(9.22835 9.35143 0)
(9.84131 -2.20361 0)
(9.25298 -2.74732 0)
(8.17146 -2.74236 0)
(7.30934 -2.41412 0)
(6.81203 -2.09912 0)
(6.45603 -1.81872 0)
(6.15956 -1.54917 0)
(5.92759 -1.30572 0)
(5.74975 -1.09523 0)
(5.61051 -0.915583 0)
(5.49994 -0.763489 0)
(5.41145 -0.635543 0)
(5.34015 -0.528366 0)
(5.28237 -0.438842 0)
(5.23532 -0.364213 0)
(5.1969 -0.302099 0)
(5.16542 -0.250456 0)
(5.13959 -0.207559 0)
(5.11836 -0.171952 0)
(5.10088 -0.142415 0)
(5.08648 -0.117925 0)
(5.07462 -0.0976264 0)
(5.06482 -0.0808084 0)
(5.05674 -0.0668781 0)
(5.05007 -0.0553422 0)
(5.04456 -0.0457913 0)
(5.04001 -0.0378849 0)
(5.03625 -0.0313407 0)
(5.03314 -0.0259246 0)
(5.03058 -0.0214426 0)
(5.02845 -0.0177336 0)
(5.0267 -0.0146642 0)
(5.02525 -0.0121241 0)
(5.02405 -0.0100222 0)
(5.02307 -0.00828197 0)
(5.02225 -0.0068409 0)
(5.02157 -0.00564797 0)
(5.02102 -0.00465883 0)
(5.02056 -0.00383766 0)
(5.02018 -0.00315542 0)
(5.01987 -0.00258752 0)
(5.01962 -0.0021133 0)
(5.01941 -0.00171551 0)
(5.01924 -0.00137975 0)
(5.01911 -0.0010939 0)
(5.019 -0.00084765 0)
(5.01892 -0.000632046 0)
(5.01887 -0.000439319 0)
(5.01883 -0.000262515 0)
(5.01881 -9.52467e-05 0)
(5.01881 6.85543e-05 0)
(5.01882 0.000234811 0)
(5.01886 0.000409514 0)
(5.01891 0.000599001 0)
(5.01899 0.000810137 0)
(5.01909 0.00105058 0)
(5.01922 0.001329 0)
(5.01938 0.00165551 0)
(5.01958 0.00204193 0)
(5.01982 0.00250225 0)
(5.02012 0.0030531 0)
(5.02049 0.00371439 0)
(5.02093 0.00451006 0)
(5.02147 0.00546885 0)
(5.02212 0.00662543 0)
(5.02291 0.00802163 0)
(5.02386 0.00970793 0)
(5.02502 0.0117453 0)
(5.02642 0.0142074 0)
(5.02811 0.0171832 0)
(5.03015 0.0207804 0)
(5.03263 0.0251289 0)
(5.03562 0.030386 0)
(5.03924 0.0367416 0)
(5.04362 0.0444254 0)
(5.04891 0.0537151 0)
(5.05531 0.0649464 0)
(5.06305 0.0785251 0)
(5.07242 0.094942 0)
(5.08374 0.11479 0)
(5.09745 0.138787 0)
(5.11403 0.167799 0)
(5.13411 0.202876 0)
(5.15842 0.245286 0)
(5.18788 0.296562 0)
(5.22361 0.358562 0)
(5.267 0.433534 0)
(5.31979 0.524199 0)
(5.38419 0.63386 0)
(5.46311 0.766516 0)
(5.56023 0.927049 0)
(5.68159 1.12126 0)
(5.83152 1.35662 0)
(6.03489 1.64006 0)
(6.25492 1.98329 0)
(6.7127 2.40442 0)
(6.79669 2.7607 0)
(8.37872 3.94984 0)
(7.43853 2.14853 0)
(10.1848 7.87331 0)
(9.60241 -1.98193 0)
(9.08284 -2.42953 0)
(8.20389 -2.4366 0)
(7.42531 -2.17774 0)
(6.92448 -1.91116 0)
(6.56161 -1.67084 0)
(6.25999 -1.43625 0)
(6.01771 -1.21852 0)
(5.82776 -1.02674 0)
(5.67713 -0.86127 0)
(5.55636 -0.720078 0)
(5.45894 -0.600597 0)
(5.37995 -0.500069 0)
(5.31563 -0.415822 0)
(5.26306 -0.34542 0)
(5.21999 -0.286712 0)
(5.18463 -0.237831 0)
(5.15555 -0.197182 0)
(5.1316 -0.163413 0)
(5.11187 -0.135381 0)
(5.0956 -0.112125 0)
(5.08217 -0.0928425 0)
(5.07108 -0.0768603 0)
(5.06193 -0.0636184 0)
(5.05436 -0.0526502 0)
(5.04812 -0.0435675 0)
(5.04295 -0.0360476 0)
(5.03869 -0.0298225 0)
(5.03516 -0.02467 0)
(5.03224 -0.0204057 0)
(5.02983 -0.0168765 0)
(5.02784 -0.0139559 0)
(5.0262 -0.0115388 0)
(5.02484 -0.00953837 0)
(5.02371 -0.00788231 0)
(5.02278 -0.00651122 0)
(5.02202 -0.00537567 0)
(5.02138 -0.00443413 0)
(5.02086 -0.00365261 0)
(5.02043 -0.00300329 0)
(5.02008 -0.00246278 0)
(5.01979 -0.00201142 0)
(5.01956 -0.0016328 0)
(5.01937 -0.00131322 0)
(5.01922 -0.00104114 0)
(5.0191 -0.000806735 0)
(5.01901 -0.000601496 0)
(5.01894 -0.000418039 0)
(5.0189 -0.000249736 0)
(5.01888 -9.05001e-05 0)
(5.01888 6.54409e-05 0)
(5.01889 0.00022371 0)
(5.01893 0.000390025 0)
(5.01899 0.000570424 0)
(5.01908 0.000771444 0)
(5.01919 0.00100035 0)
(5.01934 0.00126544 0)
(5.01952 0.00157632 0)
(5.01975 0.00194427 0)
(5.02003 0.00238257 0)
(5.02037 0.00290707 0)
(5.02078 0.00353674 0)
(5.02129 0.00429435 0)
(5.0219 0.00520727 0)
(5.02264 0.00630851 0)
(5.02354 0.00763792 0)
(5.02462 0.00924356 0)
(5.02594 0.0111834 0)
(5.02752 0.0135277 0)
(5.02945 0.0163612 0)
(5.03177 0.0197862 0)
(5.03459 0.0239266 0)
(5.03799 0.028932 0)
(5.0421 0.0349834 0)
(5.04707 0.0422993 0)
(5.05309 0.0511441 0)
(5.06036 0.0618373 0)
(5.06916 0.0747652 0)
(5.0798 0.0903948 0)
(5.09267 0.10929 0)
(5.10824 0.132134 0)
(5.12708 0.15975 0)
(5.14989 0.193136 0)
(5.1775 0.233494 0)
(5.21094 0.28228 0)
(5.25149 0.341249 0)
(5.3007 0.412521 0)
(5.36053 0.498651 0)
(5.43344 0.602715 0)
(5.52264 0.728406 0)
(5.63216 0.880127 0)
(5.76845 1.0631 0)
(5.93608 1.28311 0)
(6.16049 1.54794 0)
(6.40417 1.85504 0)
(6.88055 2.2564 0)
(7.01717 2.50331 0)
(8.48387 3.58904 0)
(7.7671 2.13639 0)
(10.4345 6.43189 0)
(9.44546 -1.68903 0)
(8.9998 -2.05225 0)
(8.24607 -2.13443 0)
(7.52759 -1.96076 0)
(7.02574 -1.73681 0)
(6.65545 -1.52631 0)
(6.34913 -1.32083 0)
(6.09887 -1.12715 0)
(5.89893 -0.953875 0)
(5.73845 -0.802806 0)
(5.60865 -0.672921 0)
(5.50317 -0.56237 0)
(5.41717 -0.468948 0)
(5.34682 -0.390399 0)
(5.28913 -0.324594 0)
(5.24173 -0.269615 0)
(5.20273 -0.223773 0)
(5.1706 -0.185609 0)
(5.14411 -0.153876 0)
(5.12225 -0.127515 0)
(5.10421 -0.105635 0)
(5.08931 -0.0874841 0)
(5.077 -0.0724351 0)
(5.06683 -0.059963 0)
(5.05843 -0.04963 0)
(5.05148 -0.0410717 0)
(5.04574 -0.0339849 0)
(5.04099 -0.0281176 0)
(5.03707 -0.0232607 0)
(5.03382 -0.0192407 0)
(5.03114 -0.0159135 0)
(5.02893 -0.0131599 0)
(5.02709 -0.0108809 0)
(5.02558 -0.0089947 0)
(5.02433 -0.00743335 0)
(5.02329 -0.00614029 0)
(5.02244 -0.00506935 0)
(5.02173 -0.00418151 0)
(5.02115 -0.00344462 0)
(5.02068 -0.0028323 0)
(5.02028 -0.00232255 0)
(5.01996 -0.00189688 0)
(5.0197 -0.00153981 0)
(5.01949 -0.00123843 0)
(5.01932 -0.000981839 0)
(5.01919 -0.000760756 0)
(5.01909 -0.000567174 0)
(5.01901 -0.000394135 0)
(5.01897 -0.000235389 0)
(5.01894 -8.51768e-05 0)
(5.01894 6.19285e-05 0)
(5.01896 0.000211227 0)
(5.019 0.000368116 0)
(5.01907 0.000538301 0)
(5.01917 0.000727941 0)
(5.01929 0.000943886 0)
(5.01946 0.00119397 0)
(5.01966 0.00148728 0)
(5.01991 0.00183443 0)
(5.02022 0.00224796 0)
(5.0206 0.00274282 0)
(5.02106 0.00333692 0)
(5.02163 0.00405173 0)
(5.02231 0.00491306 0)
(5.02313 0.00595207 0)
(5.02413 0.00720638 0)
(5.02534 0.00872131 0)
(5.0268 0.0105516 0)
(5.02857 0.0127633 0)
(5.03072 0.0154367 0)
(5.03331 0.0186682 0)
(5.03644 0.0225745 0)
(5.04023 0.027297 0)
(5.04481 0.0330063 0)
(5.05035 0.0399085 0)
(5.05705 0.048253 0)
(5.06515 0.0583412 0)
(5.07495 0.0705374 0)
(5.0868 0.0852819 0)
(5.10113 0.103107 0)
(5.11847 0.124655 0)
(5.13945 0.150702 0)
(5.16484 0.182188 0)
(5.19557 0.220243 0)
(5.23278 0.266233 0)
(5.27788 0.321803 0)
(5.33258 0.388931 0)
(5.39904 0.46999 0)
(5.47992 0.567813 0)
(5.5787 0.685761 0)
(5.69967 0.827749 0)
(5.84951 0.998355 0)
(6.03317 1.20194 0)
(6.27456 1.44596 0)
(6.54164 1.72003 0)
(7.01643 2.0866 0)
(7.23284 2.27385 0)
(8.49351 3.19429 0)
(8.13617 2.08724 0)
(10.379 5.18818 0)
(9.31551 -1.46298 0)
(8.91233 -1.75806 0)
(8.25885 -1.85973 0)
(7.60301 -1.7443 0)
(7.11046 -1.5623 0)
(6.73673 -1.38137 0)
(6.42729 -1.20295 0)
(6.17119 -1.0323 0)
(5.96322 -0.877291 0)
(5.79436 -0.740727 0)
(5.65663 -0.622436 0)
(5.54397 -0.521184 0)
(5.45163 -0.435251 0)
(5.37579 -0.362764 0)
(5.31339 -0.301888 0)
(5.262 -0.250931 0)
(5.21963 -0.20838 0)
(5.18467 -0.172917 0)
(5.15581 -0.143403 0)
(5.13197 -0.11887 0)
(5.11228 -0.0984948 0)
(5.096 -0.0815857 0)
(5.08255 -0.0675613 0)
(5.07143 -0.0559351 0)
(5.06223 -0.0463008 0)
(5.05463 -0.0383197 0)
(5.04835 -0.0317098 0)
(5.04315 -0.0262367 0)
(5.03886 -0.0217058 0)
(5.0353 -0.0179552 0)
(5.03237 -0.0148507 0)
(5.02994 -0.0122812 0)
(5.02793 -0.0101547 0)
(5.02627 -0.00839446 0)
(5.0249 -0.00693732 0)
(5.02377 -0.00573087 0)
(5.02283 -0.00473132 0)
(5.02206 -0.00390259 0)
(5.02143 -0.00321486 0)
(5.0209 -0.00264341 0)
(5.02047 -0.00216766 0)
(5.02012 -0.00177036 0)
(5.01983 -0.0014371 0)
(5.0196 -0.00115582 0)
(5.01942 -0.000916325 0)
(5.01927 -0.000709947 0)
(5.01916 -0.00052924 0)
(5.01908 -0.000367718 0)
(5.01903 -0.000219527 0)
(5.019 -7.92858e-05 0)
(5.019 5.80533e-05 0)
(5.01902 0.00019743 0)
(5.01907 0.000343903 0)
(5.01914 0.000502805 0)
(5.01925 0.000679872 0)
(5.01939 0.000881493 0)
(5.01957 0.00111501 0)
(5.01979 0.00138892 0)
(5.02007 0.00171311 0)
(5.02041 0.00209927 0)
(5.02082 0.00256141 0)
(5.02133 0.00311623 0)
(5.02194 0.00378376 0)
(5.02269 0.00458809 0)
(5.02359 0.00555837 0)
(5.02469 0.00672974 0)
(5.02602 0.00814446 0)
(5.02762 0.00985362 0)
(5.02956 0.0119191 0)
(5.03191 0.0144155 0)
(5.03475 0.0174332 0)
(5.03818 0.0210811 0)
(5.04233 0.0254911 0)
(5.04735 0.0308225 0)
(5.05343 0.0372679 0)
(5.06077 0.0450599 0)
(5.06965 0.05448 0)
(5.08039 0.0658683 0)
(5.09337 0.0796356 0)
(5.10908 0.0962782 0)
(5.12807 0.116396 0)
(5.15106 0.140712 0)
(5.17886 0.170101 0)
(5.21252 0.205616 0)
(5.25326 0.248525 0)
(5.30261 0.300352 0)
(5.36245 0.362923 0)
(5.43507 0.438417 0)
(5.52334 0.529409 0)
(5.63094 0.638918 0)
(5.76238 0.770368 0)
(5.92436 0.927673 0)
(6.12225 1.11403 0)
(6.37738 1.33581 0)
(6.66512 1.57953 0)
(7.13069 1.90344 0)
(7.41963 2.06101 0)
(8.49012 2.79798 0)
(8.43573 2.00255 0)
(10.273 4.16462 0)
(9.21219 -1.25903 0)
(8.83555 -1.49673 0)
(8.25718 -1.60497 0)
(7.65804 -1.53509 0)
(7.18054 -1.39121 0)
(6.80671 -1.23767 0)
(6.49543 -1.08383 0)
(6.23507 -0.934827 0)
(6.0207 -0.797638 0)
(5.8448 -0.675544 0)
(5.7002 -0.569028 0)
(5.58121 -0.477354 0)
(5.4832 -0.399228 0)
(5.4024 -0.333117 0)
(5.33573 -0.27746 0)
(5.2807 -0.230785 0)
(5.23524 -0.191755 0)
(5.19768 -0.159189 0)
(5.16663 -0.132064 0)
(5.14097 -0.109501 0)
(5.11975 -0.0907517 0)
(5.1022 -0.0751853 0)
(5.08769 -0.0622702 0)
(5.07569 -0.0515606 0)
(5.06577 -0.0426839 0)
(5.05756 -0.0353289 0)
(5.05077 -0.0292368 0)
(5.04516 -0.0241919 0)
(5.04052 -0.0200149 0)
(5.03668 -0.016557 0)
(5.03351 -0.0136947 0)
(5.03088 -0.0113255 0)
(5.02871 -0.0093646 0)
(5.02692 -0.00774152 0)
(5.02544 -0.00639797 0)
(5.02421 -0.00528525 0)
(5.0232 -0.00436333 0)
(5.02237 -0.00359908 0)
(5.02168 -0.0029649 0)
(5.02111 -0.00243792 0)
(5.02065 -0.00199913 0)
(5.02027 -0.00163271 0)
(5.01996 -0.00132536 0)
(5.01971 -0.00106596 0)
(5.01951 -0.000845061 0)
(5.01935 -0.000654686 0)
(5.01923 -0.000487993 0)
(5.01914 -0.000338994 0)
(5.01909 -0.000202285 0)
(5.01906 -7.28863e-05 0)
(5.01905 5.38266e-05 0)
(5.01908 0.000182415 0)
(5.01913 0.000317568 0)
(5.01921 0.000464182 0)
(5.01933 0.00062757 0)
(5.01948 0.000813586 0)
(5.01967 0.00102909 0)
(5.01991 0.00128185 0)
(5.02021 0.00158106 0)
(5.02058 0.00193742 0)
(5.02103 0.00236394 0)
(5.02157 0.00287601 0)
(5.02224 0.00349207 0)
(5.02305 0.00423437 0)
(5.02402 0.00512985 0)
(5.02521 0.00621094 0)
(5.02664 0.00751661 0)
(5.02838 0.00909398 0)
(5.03048 0.0110002 0)
(5.03301 0.0133042 0)
(5.03608 0.0160892 0)
(5.0398 0.0194557 0)
(5.04429 0.0235257 0)
(5.04972 0.0284459 0)
(5.05628 0.0343941 0)
(5.06422 0.0415849 0)
(5.07382 0.050278 0)
(5.08543 0.0607872 0)
(5.09947 0.0734912 0)
(5.11645 0.0888476 0)
(5.13699 0.107409 0)
(5.16183 0.129843 0)
(5.19188 0.156953 0)
(5.22824 0.189707 0)
(5.27225 0.22927 0)
(5.32554 0.277036 0)
(5.39011 0.334671 0)
(5.46841 0.404147 0)
(5.56346 0.487778 0)
(5.67909 0.588233 0)
(5.81996 0.70846 0)
(5.9927 0.851717 0)
(6.20294 1.02029 0)
(6.46922 1.21908 0)
(6.77393 1.43441 0)
(7.22858 1.71375 0)
(7.57339 1.8548 0)
(8.49442 2.422 0)
(8.65266 1.87408 0)
(10.1727 3.32891 0)
(9.12913 -1.07399 0)
(8.76868 -1.26638 0)
(8.2469 -1.37112 0)
(7.69694 -1.33372 0)
(7.2373 -1.22308 0)
(6.86615 -1.09515 0)
(6.55422 -0.964001 0)
(6.29089 -0.835373 0)
(6.07151 -0.715466 0)
(5.88976 -0.607724 0)
(5.73929 -0.513075 0)
(5.61477 -0.431191 0)
(5.51176 -0.361127 0)