/*--------------------------------*- C++ -*----------------------------------*\
| =========                 |                                                 |
| \\      /  F ield         | OpenFOAM: The Open Source CFD Toolbox           |
|  \\    /   O peration     | Version:  2.4.0                                 |
|   \\  /    A nd           | Web:      www.OpenFOAM.org                      |
|    \\/     M anipulation  |                                                 |
\*---------------------------------------------------------------------------*/
FoamFile
{
    version     2.0;
    format      ascii;
    class       volVectorField;
    location    "0.002";
    object      UMean;
}
// * * * * * * * * * * * * * * * * * * * * * * * * * * * * * * * * * * * * * //

dimensions      [0 1 -1 0 0 0 0];

internalField   nonuniform List<vector> 
4400
(
(6.90673 0.11168 0)
(8.72397 0.0503612 0)
(8.34003 -0.00858323 0)
(8.31598 -0.00741531 0)
(8.35516 -0.00158526 0)
(8.37075 -0.000317992 0)
(8.38785 -0.000511103 0)
(8.48007 0.0039538 0)
(8.75444 -0.122587 0)
(10.4771 0.497894 0)
(7.53196 0.163559 0)
(10.6594 0.0555385 0)
(10.1927 -0.00123194 0)
(10.0352 -0.00706639 0)
(10.0492 -0.002599 0)
(10.0658 -0.0014142 0)
(10.0798 -0.00460987 0)
(10.2456 -0.0163758 0)
(10.164 -0.110995 0)
(13.2345 -0.937814 0)
(7.54447 0.145176 0)
(10.8346 0.052868 0)
(10.3576 -0.00145335 0)
(10.1802 -0.00685775 0)
(10.1901 -0.00282476 0)
(10.2057 -0.00186979 0)
(10.224 -0.0117377 0)
(10.3396 -0.00596707 0)
(10.5477 -0.359882 0)
(11.2876 -0.508875 0)
(7.53904 0.121939 0)
(10.829 0.0458949 0)
(10.3572 0.000571278 0)
(10.1823 -0.0054259 0)
(10.1926 -0.00267364 0)
(10.2075 -0.00282097 0)
(10.2234 -0.0137508 0)
(10.3321 -0.0401877 0)
(10.4139 -0.298291 0)
(11.3264 -1.0942 0)
(7.5346 0.101139 0)
(10.8207 0.0397711 0)
(10.354 0.00133222 0)
(10.1821 -0.00440784 0)
(10.1927 -0.00259579 0)
(10.2066 -0.00351842 0)
(10.2218 -0.0183145 0)
(10.3046 -0.0461742 0)
(10.4078 -0.376956 0)
(10.6257 -0.977613 0)
(7.53103 0.0814165 0)
(10.8139 0.033116 0)
(10.3513 0.00168745 0)
(10.1818 -0.00349514 0)
(10.1927 -0.00247192 0)
(10.2055 -0.00431717 0)
(10.2185 -0.0210868 0)
(10.282 -0.0643669 0)
(10.3476 -0.37687 0)
(10.3877 -1.05414 0)
(7.52826 0.0624974 0)
(10.8086 0.0260932 0)
(10.3492 0.00167038 0)
(10.1815 -0.00268163 0)
(10.1926 -0.00232275 0)
(10.2042 -0.00500463 0)
(10.2145 -0.0237699 0)
(10.2586 -0.0761181 0)
(10.2914 -0.384389 0)
(10.1504 -1.05221 0)
(7.52622 0.0441966 0)
(10.8046 0.0188208 0)
(10.3476 0.00137582 0)
(10.1813 -0.00194847 0)
(10.1924 -0.00214326 0)
(10.2028 -0.00559218 0)
(10.2097 -0.0257688 0)
(10.2357 -0.0854421 0)
(10.2341 -0.380921 0)
(9.97607 -1.01676 0)
(7.5249 0.0263306 0)
(10.802 0.0113666 0)
(10.3464 0.000869785 0)
(10.1811 -0.00126989 0)
(10.1921 -0.00193138 0)
(10.2013 -0.00603471 0)
(10.2045 -0.0271285 0)
(10.2136 -0.0914361 0)
(10.1789 -0.370114 0)
(9.8359 -0.966741 0)
(7.52424 0.00872123 0)
(10.8007 0.00381123 0)
(10.3459 0.000247481 0)
(10.1809 -0.000622462 0)
(10.1918 -0.00168458 0)
(10.1996 -0.00631029 0)
(10.1991 -0.0277909 0)
(10.1925 -0.0941994 0)
(10.1268 -0.353203 0)
(9.72195 -0.901183 0)
(7.52425 -0.00879882 0)
(10.8007 -0.00377784 0)
(10.3459 -0.000414374 0)
(10.1808 1.97731e-05 0)
(10.1914 -0.00140012 0)
(10.198 -0.00640262 0)
(10.1936 -0.0277338 0)
(10.1728 -0.0939166 0)
(10.079 -0.331029 0)
(9.6282 -0.825407 0)
(7.52492 -0.0264073 0)
(10.802 -0.0113347 0)
(10.3464 -0.001028 0)
(10.1808 0.000682819 0)
(10.191 -0.00107601 0)
(10.1964 -0.00630348 0)
(10.1881 -0.0269534 0)
(10.1546 -0.0908297 0)
(10.0357 -0.304462 0)
(9.55068 -0.741844 0)
(7.52626 -0.0442673 0)
(10.8046 -0.0187859 0)
(10.3474 -0.00153416 0)
(10.1808 0.00139102 0)
(10.1906 -0.000710336 0)
(10.1948 -0.00601307 0)
(10.183 -0.0254761 0)
(10.1381 -0.0852431 0)
(9.99754 -0.274217 0)
(9.48662 -0.652638 0)
(7.52831 -0.0625648 0)
(10.8085 -0.0260699 0)
(10.349 -0.00181497 0)
(10.1809 0.00216992 0)
(10.1901 -0.00030428 0)
(10.1933 -0.00553744 0)
(10.1782 -0.0233432 0)
(10.1235 -0.0774617 0)
(9.96459 -0.240961 0)
(9.4341 -0.559301 0)
(7.53109 -0.0814744 0)
(10.8138 -0.0330858 0)
(10.3512 -0.00181333 0)
(10.181 0.0030391 0)
(10.1896 0.000136119 0)
(10.1919 -0.00489416 0)
(10.174 -0.0206209 0)
(10.1109 -0.0678214 0)
(9.93702 -0.205287 0)
(9.39172 -0.462906 0)
(7.53467 -0.101191 0)
(10.8206 -0.0397506 0)
(10.3538 -0.00143772 0)
(10.1812 0.00402164 0)
(10.1891 0.000606932 0)
(10.1907 -0.00410163 0)
(10.1704 -0.0173816 0)
(10.1004 -0.056642 0)
(9.91491 -0.167801 0)
(9.35852 -0.364248 0)
(7.53912 -0.121981 0)
(10.8289 -0.045871 0)
(10.3569 -0.000653852 0)
(10.1813 0.00511134 0)
(10.1886 0.00108925 0)
(10.1896 -0.00319346 0)
(10.1674 -0.0137293 0)
(10.0921 -0.0443051 0)
(9.89828 -0.129144 0)
(9.33383 -0.264077 0)
(7.54455 -0.145204 0)
(10.8344 -0.0528613 0)
(10.3574 0.00139346 0)
(10.1791 0.00663535 0)
(10.1858 0.0016716 0)
(10.1865 -0.00217657 0)
(10.1629 -0.00974859 0)
(10.0836 -0.0311138 0)
(9.88447 -0.090129 0)
(9.31499 -0.162322 0)
(7.53204 -0.163574 0)
(10.6592 -0.0555311 0)
(10.1924 0.0011968 0)
(10.0341 0.00693654 0)
(10.0448 0.00195891 0)
(10.0458 -0.0011145 0)
(10.0217 -0.00550345 0)
(9.94157 -0.0172464 0)
(9.74492 -0.0509915 0)
(9.18673 -0.0657611 0)
(6.90677 -0.111682 0)
(8.72386 -0.0503638 0)
(8.33984 0.00857871 0)
(8.31509 0.00740619 0)
(8.3515 0.0015331 0)
(8.35552 -4.7694e-05 0)
(8.33719 -0.000851352 0)
(8.27684 -0.00294226 0)
(8.13527 -0.0106661 0)
(7.67592 0.0218699 0)
(11.077 -7.85559 0)
(7.08525 -5.98066 0)
(5.85433 -4.60026 0)
(5.64334 -3.71329 0)
(5.45689 -2.96748 0)
(5.30216 -2.37918 0)
(5.20967 -1.92835 0)
(5.15218 -1.57354 0)
(5.11315 -1.28964 0)
(5.08591 -1.06036 0)
(5.06651 -0.873805 0)
(5.05243 -0.721181 0)
(5.04202 -0.595836 0)
(5.03422 -0.492625 0)
(5.02831 -0.407499 0)
(5.02378 -0.337193 0)
(5.02027 -0.279077 0)
(5.01754 -0.231014 0)
(5.01539 -0.191248 0)
(5.01369 -0.158338 0)
(5.01234 -0.131097 0)
(5.01126 -0.108545 0)
(5.01039 -0.0898746 0)
(5.00968 -0.074416 0)
(5.00911 -0.0616163 0)
(5.00865 -0.0510179 0)
(5.00827 -0.042242 0)
(5.00796 -0.034975 0)
(5.00771 -0.0289573 0)
(5.0075 -0.0239741 0)
(5.00733 -0.0198472 0)
(5.00719 -0.0164292 0)
(5.00708 -0.0135982 0)
(5.00698 -0.0112526 0)
(5.0069 -0.00930762 0)
(5.00684 -0.0076969 0)
(5.00679 -0.00636182 0)
(5.00674 -0.00525247 0)
(5.00671 -0.004331 0)
(5.00668 -0.00356469 0)
(5.00665 -0.00292573 0)
(5.00663 -0.00239124 0)
(5.00662 -0.00194221 0)
(5.0066 -0.00156251 0)
(5.00659 -0.00123865 0)
(5.00659 -0.000959012 0)
(5.00658 -0.000713635 0)
(5.00657 -0.000493696 0)
(5.00657 -0.000291364 0)
(5.00657 -9.94434e-05 0)
(5.00657 8.89786e-05 0)
(5.00657 0.000280593 0)
(5.00657 0.000482259 0)
(5.00658 0.00070115 0)
(5.00659 0.000945105 0)
(5.00659 0.00122288 0)
(5.0066 0.00154432 0)
(5.00662 0.00192099 0)
(5.00663 0.00236629 0)
(5.00665 0.0028963 0)
(5.00668 0.00352983 0)
(5.00671 0.0042896 0)
(5.00674 0.00520276 0)
(5.00678 0.00630207 0)
(5.00684 0.00762674 0)
(5.0069 0.00922412 0)
(5.00698 0.0111514 0)
(5.00707 0.0134774 0)
(5.00718 0.0162854 0)
(5.00732 0.0196756 0)
(5.00748 0.0237694 0)
(5.00768 0.0287132 0)
(5.00792 0.0346837 0)
(5.00821 0.0418944 0)
(5.00857 0.0506032 0)
(5.009 0.0611216 0)
(5.00952 0.0738258 0)
(5.01015 0.0891705 0)
(5.01093 0.107705 0)
(5.01187 0.130093 0)
(5.01303 0.157138 0)
(5.01444 0.189811 0)
(5.01618 0.229288 0)
(5.01833 0.276994 0)
(5.02098 0.334659 0)
(5.02428 0.404392 0)
(5.0284 0.488764 0)
(5.03358 0.590938 0)
(5.04015 0.714823 0)
(5.04856 0.865315 0)
(5.05946 1.04862 0)
(5.07363 1.27284 0)
(5.09318 1.54851 0)
(5.11694 1.89224 0)
(5.16495 2.31766 0)
(5.17576 2.90131 0)
(5.44332 3.5337 0)
(4.9846 4.93353 0)
(7.0014 5.7272 0)
(4.73044 11.0745 0)
(10.2564 -7.74638 0)
(7.39433 -5.94067 0)
(6.13856 -4.44236 0)
(5.90124 -3.58389 0)
(5.70756 -2.88604 0)
(5.51078 -2.32407 0)
(5.37423 -1.8897 0)
(5.28338 -1.5469 0)
(5.21894 -1.27098 0)
(5.17182 -1.04691 0)
(5.1367 -0.863879 0)
(5.11001 -0.713709 0)
(5.0894 -0.590133 0)
(5.07329 -0.48821 0)
(5.06057 -0.40404 0)
(5.05044 -0.33447 0)
(5.04232 -0.276914 0)
(5.03579 -0.229283 0)
(5.0305 -0.189856 0)
(5.0262 -0.157214 0)
(5.02269 -0.130186 0)
(5.01983 -0.107804 0)
(5.01748 -0.0892704 0)
(5.01556 -0.073922 0)
(5.01398 -0.0612116 0)
(5.01268 -0.0506859 0)
(5.01161 -0.0419692 0)
(5.01073 -0.0347505 0)
(5.01 -0.0287724 0)
(5.0094 -0.0238216 0)
(5.0089 -0.0197213 0)
(5.00849 -0.0163251 0)
(5.00816 -0.0135119 0)
(5.00788 -0.0111833 0)
(5.00764 -0.00924896 0)
(5.00745 -0.00764705 0)
(5.0073 -0.00632342 0)
(5.00716 -0.00522114 0)
(5.00706 -0.00430497 0)
(5.00697 -0.00354319 0)
(5.0069 -0.00290807 0)
(5.00684 -0.00237684 0)
(5.00679 -0.00193054 0)
(5.00675 -0.00155319 0)
(5.00672 -0.00123121 0)
(5.00669 -0.000953174 0)
(5.00668 -0.000709216 0)
(5.00666 -0.000490639 0)
(5.00665 -0.000289509 0)
(5.00665 -9.87075e-05 0)
(5.00665 8.84943e-05 0)
(5.00665 0.000278815 0)
(5.00666 0.000479177 0)
(5.00668 0.00069671 0)
(5.00669 0.000939077 0)
(5.00672 0.001215 0)
(5.00675 0.00153447 0)
(5.00679 0.00190886 0)
(5.00684 0.00235146 0)
(5.00689 0.00287813 0)
(5.00697 0.0035079 0)
(5.00705 0.00426315 0)
(5.00716 0.00517078 0)
(5.00729 0.00626319 0)
(5.00744 0.00757968 0)
(5.00763 0.00916722 0)
(5.00786 0.0110824 0)
(5.00814 0.0133937 0)
(5.00847 0.0161841 0)
(5.00887 0.0195532 0)
(5.00936 0.0236213 0)
(5.00995 0.0285339 0)
(5.01066 0.0344667 0)
(5.01152 0.041632 0)
(5.01257 0.0502855 0)
(5.01383 0.0607367 0)
(5.01535 0.0733597 0)
(5.0172 0.0886056 0)
(5.01944 0.10702 0)
(5.02215 0.129261 0)
(5.02545 0.156127 0)
(5.02945 0.188581 0)
(5.03431 0.227788 0)
(5.04024 0.275161 0)
(5.04747 0.332415 0)
(5.05631 0.401635 0)
(5.06717 0.485365 0)
(5.08057 0.586726 0)
(5.09717 0.709572 0)
(5.11791 0.858718 0)
(5.1441 1.04026 0)
(5.17744 1.26209 0)
(5.22175 1.53469 0)
(5.27642 1.87301 0)
(5.37567 2.29496 0)
(5.4143 2.85655 0)
(5.92618 3.48652 0)
(5.18098 4.86436 0)
(8.49151 5.13075 0)
(6.7225 11.0102 0)
(12.0453 -4.86908 0)
(9.91683 -4.82791 0)
(7.58239 -3.99835 0)
(6.5076 -3.31214 0)
(6.02544 -2.73684 0)
(5.7256 -2.23899 0)
(5.53508 -1.83416 0)
(5.41033 -1.50829 0)
(5.32159 -1.24319 0)
(5.25558 -1.02629 0)
(5.20537 -0.848216 0)
(5.1665 -0.701606 0)
(5.13598 -0.580647 0)
(5.11176 -0.480703 0)
(5.09237 -0.398048 0)
(5.07675 -0.329651 0)
(5.0641 -0.27302 0)
(5.05381 -0.226123 0)
(5.04542 -0.187283 0)
(5.03856 -0.155113 0)
(5.03293 -0.128466 0)
(5.02831 -0.106394 0)
(5.0245 -0.0881114 0)
(5.02137 -0.0729687 0)
(5.0188 -0.0604266 0)
(5.01667 -0.0500389 0)
(5.01491 -0.0414355 0)
(5.01346 -0.0343101 0)
(5.01226 -0.0284087 0)
(5.01127 -0.0235212 0)
(5.01046 -0.0194731 0)
(5.00978 -0.0161199 0)
(5.00922 -0.0133426 0)
(5.00876 -0.0110421 0)
(5.00838 -0.00913321 0)
(5.00806 -0.00755258 0)
(5.0078 -0.00624376 0)
(5.00758 -0.00515507 0)
(5.00741 -0.00425059 0)
(5.00726 -0.00349851 0)
(5.00714 -0.00287145 0)
(5.00704 -0.00234693 0)
(5.00696 -0.00190624 0)
(5.0069 -0.0015336 0)
(5.00684 -0.00121569 0)
(5.0068 -0.000941204 0)
(5.00677 -0.000700342 0)
(5.00675 -0.000484487 0)
(5.00673 -0.000285887 0)
(5.00673 -9.75084e-05 0)
(5.00673 8.73701e-05 0)
(5.00673 0.000275384 0)
(5.00675 0.000473282 0)
(5.00677 0.000688101 0)
(5.0068 0.000927482 0)
(5.00684 0.00120005 0)
(5.00689 0.00151555 0)
(5.00696 0.00188524 0)
(5.00704 0.00232231 0)
(5.00713 0.00284246 0)
(5.00725 0.00346433 0)
(5.0074 0.00421007 0)
(5.00757 0.00510632 0)
(5.00779 0.00618516 0)
(5.00805 0.00748522 0)
(5.00836 0.00905291 0)
(5.00874 0.0109442 0)
(5.0092 0.0132268 0)
(5.00975 0.0159824 0)
(5.01042 0.0193094 0)
(5.01122 0.0233266 0)
(5.0122 0.0281778 0)
(5.01338 0.0340363 0)
(5.0148 0.0411115 0)
(5.01653 0.0496562 0)
(5.01861 0.0599758 0)
(5.02113 0.0724391 0)
(5.02418 0.0874916 0)
(5.02787 0.105671 0)
(5.03234 0.127628 0)
(5.03774 0.154147 0)
(5.0443 0.186179 0)
(5.05226 0.224872 0)
(5.06192 0.271616 0)
(5.07368 0.328097 0)
(5.08801 0.396364 0)
(5.10552 0.478911 0)
(5.12701 0.578792 0)
(5.15349 0.69977 0)
(5.18636 0.846519 0)
(5.22755 1.02495 0)
(5.27968 1.24256 0)
(5.34773 1.50969 0)
(5.43418 1.83853 0)
(5.57253 2.25433 0)
(5.68201 2.76987 0)
(6.23242 3.44389 0)
(5.81877 4.56559 0)
(8.67807 4.63638 0)
(8.21757 10.0055 0)
(9.62186 -4.82857 0)
(7.95344 -4.63608 0)
(6.89026 -3.69975 0)
(6.44491 -3.04728 0)
(6.15577 -2.56641 0)
(5.88773 -2.13534 0)
(5.67918 -1.76512 0)
(5.52983 -1.45914 0)
(5.41988 -1.20698 0)
(5.33645 -0.998908 0)
(5.27201 -0.827082 0)
(5.22151 -0.68504 0)
(5.18145 -0.56751 0)
(5.14937 -0.470191 0)
(5.12351 -0.389578 0)
(5.10254 -0.322787 0)
(5.08546 -0.267435 0)
(5.07151 -0.221564 0)
(5.06008 -0.183552 0)
(5.0507 -0.152052 0)
(5.04299 -0.125951 0)
(5.03664 -0.104324 0)
(5.03141 -0.086407 0)
(5.02709 -0.0715635 0)
(5.02353 -0.0592673 0)
(5.02059 -0.0490819 0)
(5.01816 -0.0406451 0)
(5.01615 -0.033657 0)
(5.01449 -0.0278689 0)
(5.01312 -0.0230749 0)
(5.01199 -0.0191041 0)
(5.01105 -0.0158148 0)
(5.01027 -0.01309 0)
(5.00963 -0.0108332 0)
(5.0091 -0.00896121 0)
(5.00866 -0.00741016 0)
(5.0083 -0.00612561 0)
(5.008 -0.0050578 0)
(5.00775 -0.00417049 0)
(5.00754 -0.00343256 0)
(5.00738 -0.00281733 0)
(5.00724 -0.00230272 0)
(5.00713 -0.00187033 0)
(5.00704 -0.0015047 0)
(5.00697 -0.00119278 0)
(5.00691 -0.000923471 0)
(5.00687 -0.00068713 0)
(5.00683 -0.000475328 0)
(5.00681 -0.000280473 0)
(5.0068 -9.56478e-05 0)
(5.0068 8.57607e-05 0)
(5.00681 0.000270243 0)
(5.00683 0.000464404 0)
(5.00686 0.000675171 0)
(5.00691 0.000910058 0)
(5.00696 0.0011775 0)
(5.00703 0.00148706 0)
(5.00712 0.00184979 0)
(5.00723 0.00227866 0)
(5.00737 0.00278905 0)
(5.00754 0.00339921 0)
(5.00774 0.00413092 0)
(5.00798 0.00501034 0)
(5.00828 0.00606889 0)
(5.00864 0.00734448 0)
(5.00907 0.00888265 0)
(5.0096 0.0107384 0)
(5.01024 0.012978 0)
(5.011 0.0156816 0)
(5.01193 0.0189459 0)
(5.01306 0.0228874 0)
(5.01441 0.027647 0)
(5.01605 0.0333948 0)
(5.01803 0.0403362 0)
(5.02043 0.0487191 0)
(5.02332 0.058843 0)
(5.02682 0.0710695 0)
(5.03105 0.0858352 0)
(5.03616 0.103667 0)
(5.04235 0.125203 0)
(5.04984 0.151212 0)
(5.05892 0.182623 0)
(5.06991 0.22056 0)
(5.08325 0.266382 0)
(5.09944 0.321736 0)
(5.11915 0.388617 0)
(5.14319 0.469453 0)
(5.17259 0.567204 0)
(5.20873 0.685503 0)
(5.25341 0.828837 0)
(5.30914 1.00284 0)
(5.37946 1.21455 0)
(5.46998 1.47371 0)
(5.58782 1.79041 0)
(5.75563 2.19177 0)
(5.96081 2.66567 0)
(6.41255 3.33219 0)
(6.67783 4.24045 0)
(8.17658 4.13227 0)
(9.2255 8.80814 0)
(10.4583 -3.30645 0)
(9.25659 -3.78343 0)
(7.71587 -3.40747 0)
(6.84357 -2.87128 0)
(6.38306 -2.42274 0)
(6.05813 -2.02829 0)
(5.81742 -1.68696 0)
(5.64321 -1.4011 0)
(5.51349 -1.16316 0)
(5.41393 -0.965225 0)
(5.33618 -0.800765 0)
(5.27467 -0.664209 0)
(5.22551 -0.550854 0)
(5.1859 -0.456772 0)
(5.15379 -0.378702 0)
(5.12765 -0.313932 0)
(5.10628 -0.260202 0)
(5.08877 -0.215639 0)
(5.07439 -0.178687 0)
(5.06256 -0.148052 0)
(5.05282 -0.122657 0)
(5.04478 -0.10161 0)
(5.03816 -0.084168 0)
(5.03268 -0.0697153 0)
(5.02816 -0.0577409 0)
(5.02443 -0.0478207 0)
(5.02134 -0.0396027 0)
(5.01879 -0.0327951 0)
(5.01667 -0.0271563 0)
(5.01493 -0.0224855 0)
(5.01348 -0.0186165 0)
(5.01229 -0.0154114 0)
(5.0113 -0.0127565 0)
(5.01048 -0.010557 0)
(5.0098 -0.008733 0)
(5.00924 -0.00722171 0)
(5.00878 -0.00596959 0)
(5.0084 -0.00492916 0)
(5.00808 -0.00406448 0)
(5.00782 -0.00334528 0)
(5.00761 -0.00274569 0)
(5.00744 -0.00224418 0)
(5.00729 -0.00182279 0)
(5.00718 -0.00146645 0)
(5.00709 -0.00116246 0)
(5.00701 -0.000900006 0)
(5.00696 -0.000669665 0)
(5.00692 -0.000463233 0)
(5.00689 -0.000273328 0)
(5.00688 -9.31961e-05 0)
(5.00688 8.3612e-05 0)
(5.00689 0.000263422 0)
(5.00692 0.000452656 0)
(5.00696 0.00065807 0)
(5.00701 0.000887001 0)
(5.00708 0.00114766 0)
(5.00717 0.00144937 0)
(5.00729 0.00180289 0)
(5.00743 0.00222089 0)
(5.0076 0.00271833 0)
(5.00781 0.00331301 0)
(5.00807 0.00402616 0)
(5.00838 0.00488327 0)
(5.00876 0.00591498 0)
(5.00922 0.0071582 0)
(5.00977 0.00865732 0)
(5.01044 0.0104659 0)
(5.01125 0.0126487 0)
(5.01223 0.0152837 0)
(5.01342 0.018465 0)
(5.01485 0.0223063 0)
(5.01658 0.0269449 0)
(5.01867 0.0325464 0)
(5.02119 0.039311 0)
(5.02424 0.0474802 0)
(5.02792 0.0573457 0)
(5.03238 0.0692596 0)
(5.03776 0.0836471 0)
(5.04427 0.101022 0)
(5.05215 0.122003 0)
(5.06167 0.147339 0)
(5.0732 0.177935 0)
(5.08716 0.214881 0)
(5.10408 0.259497 0)
(5.12461 0.313377 0)
(5.14956 0.378452 0)
(5.17993 0.457063 0)
(5.21703 0.552054 0)
(5.26251 0.666897 0)
(5.31859 0.805846 0)
(5.38827 0.974181 0)
(5.47591 1.17841 0)
(5.58758 1.4273 0)
(5.73449 1.72968 0)
(5.92831 2.10788 0)
(6.21655 2.55108 0)
(6.5756 3.1387 0)
(7.35089 3.95423 0)
(7.82994 3.65825 0)
(9.91158 7.54317 0)
(9.85029 -2.99815 0)
(8.82888 -3.39076 0)
(7.70544 -3.058 0)
(6.973 -2.6151 0)
(6.5284 -2.24156 0)
(6.19787 -1.90304 0)
(5.94139 -1.59769 0)
(5.74839 -1.33465 0)
(5.60163 -1.11238 0)
(5.48751 -0.925726 0)
(5.39746 -0.769601 0)
(5.32565 -0.639345 0)
(5.26789 -0.530847 0)
(5.22111 -0.440568 0)
(5.18303 -0.365514 0)
(5.15192 -0.303157 0)
(5.12642 -0.251374 0)
(5.10548 -0.20839 0)
(5.08825 -0.172725 0)
(5.07405 -0.143141 0)
(5.06234 -0.118608 0)
(5.05268 -0.0982689 0)
(5.0447 -0.0814092 0)
(5.03811 -0.0674363 0)
(5.03266 -0.0558574 0)
(5.02815 -0.0462636 0)
(5.02442 -0.038315 0)
(5.02134 -0.0317301 0)
(5.01879 -0.0262753 0)
(5.01668 -0.0217566 0)
(5.01493 -0.0180134 0)
(5.01349 -0.0149125 0)
(5.01229 -0.0123436 0)
(5.01131 -0.0102153 0)
(5.01049 -0.00845083 0)
(5.00981 -0.00698854 0)
(5.00925 -0.00577657 0)
(5.00879 -0.00476984 0)
(5.00841 -0.00393317 0)
(5.00809 -0.00323721 0)
(5.00784 -0.002657 0)
(5.00762 -0.0021717 0)
(5.00745 -0.00176391 0)
(5.00731 -0.00141908 0)
(5.0072 -0.00112491 0)
(5.00711 -0.000870927 0)
(5.00705 -0.000648012 0)
(5.007 -0.000448237 0)
(5.00697 -0.000264466 0)
(5.00695 -9.01497e-05 0)
(5.00695 8.09605e-05 0)
(5.00697 0.000254971 0)
(5.007 0.000438091 0)
(5.00705 0.000636877 0)
(5.00711 0.000858434 0)
(5.0072 0.0011107 0)
(5.00731 0.00140267 0)
(5.00744 0.0017448 0)
(5.00762 0.00214934 0)
(5.00782 0.00263077 0)
(5.00808 0.00320629 0)
(5.00839 0.00389645 0)
(5.00877 0.00472596 0)
(5.00923 0.00572442 0)
(5.00978 0.00692755 0)
(5.01045 0.00837834 0)
(5.01126 0.0101287 0)
(5.01224 0.012241 0)
(5.01343 0.014791 0)
(5.01486 0.0178697 0)
(5.01659 0.021587 0)
(5.01868 0.0260758 0)
(5.0212 0.0314964 0)
(5.02425 0.0380423 0)
(5.02794 0.0459472 0)
(5.03239 0.0554932 0)
(5.03778 0.0670208 0)
(5.04428 0.0809412 0)
(5.05215 0.0977505 0)
(5.06165 0.118048 0)
(5.07315 0.142555 0)
(5.08706 0.172146 0)
(5.10389 0.207872 0)
(5.12429 0.251004 0)
(5.14901 0.303076 0)
(5.17902 0.365939 0)
(5.21553 0.441832 0)
(5.26003 0.533462 0)
(5.31448 0.64411 0)
(5.38145 0.777761 0)
(5.46438 0.939285 0)
(5.56828 1.13459 0)
(5.69961 1.37123 0)
(5.87222 1.6571 0)
(6.09107 2.00678 0)
(6.43465 2.42137 0)
(6.76269 2.90494 0)
(7.74547 3.65818 0)
(7.84817 3.28432 0)
(10.2619 6.32066 0)
(9.68031 -2.44365 0)
(8.88928 -2.86154 0)
(7.88644 -2.73807 0)
(7.14743 -2.40329 0)
(6.67413 -2.0765 0)
(6.32647 -1.77629 0)
(6.05482 -1.50203 0)
(5.84573 -1.26146 0)
(5.68402 -1.0555 0)
(5.55682 -0.880944 0)
(5.45554 -0.733948 0)
(5.37417 -0.610703 0)
(5.30834 -0.507674 0)
(5.25479 -0.42172 0)
(5.21105 -0.350119 0)
(5.17521 -0.290544 0)
(5.14576 -0.241016 0)
(5.12154 -0.199869 0)
(5.10157 -0.165705 0)
(5.08511 -0.137352 0)
(5.07151 -0.11383 0)
(5.06028 -0.0943227 0)
(5.051 -0.0781485 0)
(5.04333 -0.064741 0)
(5.03698 -0.0536288 0)
(5.03174 -0.0444203 0)
(5.02739 -0.0367903 0)
(5.0238 -0.0304686 0)
(5.02083 -0.0252315 0)
(5.01837 -0.0208929 0)
(5.01633 -0.0172987 0)
(5.01465 -0.0143211 0)
(5.01325 -0.0118542 0)
(5.0121 -0.00981039 0)
(5.01115 -0.00811608 0)
(5.01036 -0.00671176 0)
(5.0097 -0.00554765 0)
(5.00917 -0.00458093 0)
(5.00872 -0.00377749 0)
(5.00836 -0.00310908 0)
(5.00805 -0.00255183 0)
(5.00781 -0.00208574 0)
(5.00761 -0.0016941 0)
(5.00744 -0.00136292 0)
(5.00731 -0.00108039 0)
(5.00721 -0.000836457 0)
(5.00713 -0.000622357 0)
(5.00708 -0.000430476 0)
(5.00704 -0.000253971 0)
(5.00702 -8.65442e-05 0)
(5.00702 7.7805e-05 0)
(5.00704 0.000244945 0)
(5.00708 0.000420829 0)
(5.00713 0.000611757 0)
(5.00721 0.000824561 0)
(5.00731 0.00106686 0)
(5.00744 0.00134729 0)
(5.0076 0.00167591 0)
(5.0078 0.00206448 0)
(5.00804 0.00252689 0)
(5.00834 0.00307968 0)
(5.0087 0.00374258 0)
(5.00914 0.00453932 0)
(5.00968 0.00549835 0)
(5.01032 0.00665395 0)
(5.01111 0.00804743 0)
(5.01205 0.00972859 0)
(5.0132 0.0117575 0)
(5.01458 0.0142067 0)
(5.01625 0.0171636 0)
(5.01827 0.0207339 0)
(5.02071 0.0250452 0)
(5.02365 0.0302512 0)
(5.02721 0.0365379 0)
(5.03151 0.0441296 0)
(5.0367 0.0532971 0)
(5.04298 0.0643672 0)
(5.05057 0.0777344 0)
(5.05973 0.0938747 0)
(5.07081 0.113362 0)
(5.08421 0.13689 0)
(5.10041 0.165293 0)
(5.12002 0.199579 0)
(5.14375 0.240962 0)
(5.1725 0.290904 0)
(5.20737 0.351167 0)
(5.24974 0.423873 0)
(5.30132 0.511572 0)
(5.36431 0.617333 0)
(5.44159 0.744839 0)
(5.53696 0.898511 0)
(5.65591 1.0836 0)
(5.80522 1.30637 0)
(5.99988 1.57368 0)
(6.24224 1.89272 0)
(6.61717 2.27445 0)
(6.95906 2.66473 0)
(7.94998 3.33657 0)
(8.05858 2.97634 0)
(10.3025 5.20381 0)
(9.47375 -2.11478 0)
(8.81213 -2.47886 0)
(7.96069 -2.43088 0)
(7.27098 -2.17766 0)
(6.79485 -1.90351 0)
(6.43856 -1.64317 0)
(6.1565 -1.40004 0)
(5.93474 -1.18233 0)
(5.76032 -0.993217 0)
(5.62156 -0.831396 0)
(5.5101 -0.69418 0)
(5.41995 -0.578553 0)
(5.34664 -0.481535 0)
(5.28676 -0.400377 0)
(5.23769 -0.332635 0)
(5.19738 -0.276185 0)
(5.1642 -0.229201 0)
(5.13686 -0.190133 0)
(5.11429 -0.157674 0)
(5.09566 -0.130722 0)
(5.08027 -0.108354 0)
(5.06755 -0.0897969 0)
(5.05703 -0.0744068 0)
(5.04832 -0.0616465 0)
(5.04112 -0.0510691 0)
(5.03517 -0.0423026 0)
(5.03024 -0.035038 0)
(5.02616 -0.0290186 0)
(5.02278 -0.0240315 0)
(5.01998 -0.0198998 0)
(5.01767 -0.0164768 0)
(5.01576 -0.0136409 0)
(5.01417 -0.0112914 0)
(5.01286 -0.00934449 0)
(5.01178 -0.00773093 0)
(5.01088 -0.00639355 0)
(5.01014 -0.00528442 0)
(5.00953 -0.00436354 0)
(5.00902 -0.00359828 0)
(5.0086 -0.00296161 0)
(5.00826 -0.00243079 0)
(5.00798 -0.00198681 0)
(5.00775 -0.00161374 0)
(5.00757 -0.00129827 0)
(5.00742 -0.00102914 0)
(5.00731 -0.000796761 0)
(5.00722 -0.000592805 0)
(5.00715 -0.000410021 0)
(5.00711 -0.000241883 0)
(5.00709 -8.23846e-05 0)
(5.00709 7.4181e-05 0)
(5.00711 0.000233395 0)
(5.00715 0.000400945 0)
(5.00721 0.000582836 0)
(5.0073 0.000785569 0)
(5.00741 0.00101639 0)
(5.00756 0.00128355 0)
(5.00774 0.00159662 0)
(5.00797 0.00196682 0)
(5.00825 0.00240736 0)
(5.00859 0.00293399 0)
(5.009 0.00356554 0)
(5.0095 0.00432458 0)
(5.01011 0.00523822 0)
(5.01084 0.00633913 0)
(5.01173 0.00766665 0)
(5.01281 0.00926824 0)
(5.01411 0.0112011 0)
(5.01568 0.0135343 0)
(5.01758 0.0163512 0)
(5.01987 0.0197524 0)
(5.02264 0.0238594 0)
(5.02599 0.0288187 0)
(5.03004 0.0348073 0)
(5.03492 0.0420389 0)
(5.04083 0.0507712 0)
(5.04796 0.0613153 0)
(5.05658 0.0740468 0)
(5.06699 0.0894184 0)
(5.07958 0.107976 0)
(5.09479 0.130379 0)
(5.11318 0.15742 0)
(5.13542 0.190056 0)
(5.16234 0.229435 0)
(5.19493 0.276942 0)
(5.23443 0.334237 0)
(5.28236 0.403312 0)
(5.34064 0.486547 0)
(5.41168 0.586779 0)
(5.49862 0.707371 0)
(5.60554 0.852267 0)
(5.73824 1.02603 0)
(5.90373 1.23366 0)
(6.11695 1.48077 0)
(6.38007 1.76899 0)
(6.77073 2.1131 0)
(7.14176 2.43081 0)
(8.05798 3.00082 0)
(8.28862 2.69288 0)
(10.1747 4.24967 0)
(9.31331 -1.82086 0)
(8.74855 -2.13051 0)
(8.01134 -2.14332 0)
(7.37036 -1.96106 0)
(6.89854 -1.7336 0)
(6.53707 -1.50825 0)
(6.24733 -1.29381 0)
(6.01551 -1.09838 0)
(5.83038 -0.926278 0)
(5.68149 -0.777607 0)
(5.56092 -0.650676 0)
(5.46279 -0.543177 0)
(5.38259 -0.452645 0)
(5.31684 -0.376705 0)
(5.2628 -0.313189 0)
(5.21831 -0.26018 0)
(5.18162 -0.216009 0)
(5.15134 -0.17925 0)
(5.12633 -0.148687 0)
(5.10566 -0.123296 0)
(5.08856 -0.102215 0)
(5.07443 -0.0847206 0)
(5.06273 -0.0702078 0)
(5.05305 -0.0581726 0)
(5.04504 -0.0481946 0)
(5.03842 -0.0399238 0)
(5.03293 -0.0330692 0)
(5.02839 -0.0273891 0)
(5.02463 -0.0226827 0)
(5.02152 -0.0187834 0)
(5.01894 -0.0155527 0)
(5.01681 -0.0128761 0)
(5.01504 -0.0106584 0)
(5.01358 -0.00882086 0)
(5.01238 -0.00729792 0)
(5.01138 -0.00603533 0)
(5.01055 -0.00498832 0)
(5.00987 -0.00411911 0)
(5.00931 -0.0033968 0)
(5.00884 -0.00279579 0)
(5.00846 -0.00229469 0)
(5.00815 -0.00187557 0)
(5.00789 -0.00152338 0)
(5.00769 -0.00122558 0)
(5.00752 -0.000971523 0)
(5.00739 -0.000752141 0)
(5.0073 -0.000559591 0)
(5.00722 -0.000387035 0)
(5.00718 -0.000228304 0)
(5.00716 -7.7714e-05 0)
(5.00716 7.01016e-05 0)
(5.00718 0.000220411 0)
(5.00722 0.000378591 0)
(5.00729 0.00055032 0)
(5.00739 0.000741723 0)
(5.00752 0.000959632 0)
(5.00768 0.00121186 0)
(5.00788 0.00150745 0)
(5.00813 0.00185697 0)
(5.00844 0.00227288 0)
(5.00882 0.00277009 0)
(5.00928 0.00336637 0)
(5.00984 0.00408301 0)
(5.01052 0.0049456 0)
(5.01134 0.00598499 0)
(5.01233 0.00723836 0)
(5.01353 0.00875045 0)
(5.01497 0.0105753 0)
(5.01673 0.0127781 0)
(5.01884 0.0154375 0)
(5.0214 0.0186486 0)
(5.02448 0.0225258 0)
(5.02821 0.0272077 0)
(5.03272 0.0328612 0)
(5.03816 0.0396879 0)
(5.04474 0.0479311 0)
(5.05268 0.0578842 0)
(5.06228 0.0699014 0)
(5.07387 0.0844097 0)
(5.08788 0.101924 0)
(5.10481 0.123064 0)
(5.12528 0.148577 0)
(5.15002 0.179362 0)
(5.17995 0.216498 0)
(5.21617 0.261282 0)
(5.26003 0.315263 0)
(5.3132 0.380293 0)
(5.37776 0.45857 0)
(5.45632 0.552688 0)
(5.55221 0.665674 0)
(5.66973 0.80099 0)
(5.81483 0.962503 0)
(5.99462 1.15407 0)
(6.22324 1.37989 0)
(6.50361 1.63798 0)
(6.90092 1.94203 0)
(7.29874 2.20486 0)
(8.12374 2.66643 0)
(8.46863 2.42444 0)
(10.009 3.47019 0)
(9.18145 -1.57824 0)
(8.6844 -1.83717 0)
(8.0386 -1.87882 0)
(7.44655 -1.75009 0)
(6.98551 -1.56474 0)
(6.62261 -1.37182 0)
(6.32772 -1.18428 0)
(6.08813 -1.01046 0)
(5.8941 -0.855338 0)
(5.73646 -0.720076 0)
(5.60781 -0.603814 0)
(5.50249 -0.504862 0)
(5.41602 -0.421223 0)
(5.34487 -0.350876 0)
(5.28624 -0.291919 0)
(5.23787 -0.24264 0)
(5.19792 -0.20153 0)
(5.16491 -0.167289 0)
(5.13761 -0.1388 0)
(5.11503 -0.115121 0)
(5.09634 -0.095453 0)
(5.08088 -0.0791257 0)
(5.06809 -0.065578 0)
(5.05749 -0.054341 0)
(5.04873 -0.0450232 0)
(5.04147 -0.0372987 0)
(5.03546 -0.0308961 0)
(5.03048 -0.0255903 0)
(5.02636 -0.0211936 0)
(5.02296 -0.0175507 0)
(5.02013 -0.0145323 0)
(5.0178 -0.0120315 0)
(5.01586 -0.00995946 0)
(5.01426 -0.00824242 0)
(5.01294 -0.00681947 0)
(5.01184 -0.0056399 0)
(5.01094 -0.00466138 0)
(5.01019 -0.00384908 0)
(5.00957 -0.00317415 0)
(5.00906 -0.00261256 0)
(5.00865 -0.00214432 0)
(5.0083 -0.00175265 0)
(5.00802 -0.00142354 0)
(5.0078 -0.00114526 0)
(5.00762 -0.000907845 0)
(5.00748 -0.000702818 0)
(5.00737 -0.000522876 0)
(5.00729 -0.000361628 0)
(5.00724 -0.000213288 0)
(5.00722 -7.25461e-05 0)
(5.00722 6.55938e-05 0)
(5.00724 0.000206054 0)
(5.00729 0.000353882 0)
(5.00736 0.000514385 0)
(5.00747 0.000693267 0)
(5.00761 0.000896912 0)
(5.00779 0.00113265 0)
(5.00801 0.00140893 0)
(5.00829 0.00173561 0)
(5.00863 0.00212433 0)
(5.00904 0.00258905 0)
(5.00955 0.00314636 0)
(5.01016 0.00381616 0)
(5.0109 0.00462234 0)
(5.0118 0.00559377 0)
(5.01289 0.00676521 0)
(5.0142 0.00817844 0)
(5.01579 0.00988392 0)
(5.01771 0.0119426 0)
(5.02003 0.0144282 0)
(5.02283 0.0174292 0)
(5.02621 0.0210527 0)
(5.0303 0.0254282 0)
(5.03524 0.0307117 0)
(5.0412 0.0370914 0)
(5.04841 0.0447945 0)
(5.05711 0.0540951 0)
(5.06763 0.0653241 0)
(5.08033 0.0788798 0)
(5.09568 0.0952424 0)
(5.11423 0.114991 0)
(5.13664 0.13882 0)
(5.16372 0.167567 0)
(5.19647 0.202235 0)
(5.23608 0.244026 0)
(5.28402 0.294371 0)
(5.34207 0.354975 0)
(5.41247 0.427842 0)
(5.49797 0.515316 0)
(5.60208 0.620086 0)
(5.72922 0.745139 0)
(5.88536 0.893673 0)
(6.07757 1.06853 0)
(6.31879 1.27252 0)
(6.61277 1.50155 0)
(7.01156 1.76569 0)
(7.42795 1.98556 0)
(8.17051 2.34623 0)
(8.59085 2.16679 0)
(9.85589 2.83989 0)
(9.07427 -1.36579 0)
(8.62569 -1.58021 0)
(8.05139 -1.63552 0)
(7.50432 -1.54733 0)
(7.05769 -1.39855 0)
(6.69629 -1.23508 0)
(6.39828 -1.07248 0)
(6.15279 -0.919369 0)
(5.95149 -0.781016 0)
(5.78636 -0.659281 0)
(5.65063 -0.553964 0)
(5.53889 -0.463896 0)
(5.44676 -0.387498 0)
(5.37072 -0.323071 0)
(5.3079 -0.268969 0)
(5.25597 -0.22368 0)
(5.21302 -0.185858 0)
(5.17748 -0.154328 0)
(5.14807 -0.128078 0)
(5.12372 -0.106249 0)
(5.10356 -0.0881099 0)
(5.08688 -0.0730476 0)
(5.07306 -0.0605466 0)
(5.06162 -0.0501757 0)
(5.05215 -0.0415748 0)
(5.0443 -0.0344437 0)
(5.03781 -0.0285325 0)
(5.03243 -0.0236334 0)
(5.02798 -0.0195735 0)
(5.02429 -0.0162094 0)
(5.02124 -0.013422 0)
(5.01871 -0.0111124 0)
(5.01662 -0.00919874 0)
(5.01489 -0.00761303 0)
(5.01346 -0.00629887 0)
(5.01228 -0.00520926 0)
(5.0113 -0.00430542 0)
(5.01049 -0.0035552 0)
(5.00982 -0.00293185 0)
(5.00927 -0.00241317 0)
(5.00882 -0.00198065 0)
(5.00845 -0.00161887 0)
(5.00815 -0.00131489 0)
(5.0079 -0.00105786 0)
(5.00771 -0.000838554 0)
(5.00755 -0.000649155 0)
(5.00744 -0.000482936 0)
(5.00735 -0.000333988 0)
(5.0073 -0.000196955 0)
(5.00727 -6.69244e-05 0)
(5.00727 6.06834e-05 0)
(5.0073 0.000190432 0)
(5.00735 0.000327002 0)
(5.00743 0.000475277 0)
(5.00755 0.000640532 0)
(5.0077 0.000828636 0)
(5.00789 0.00104643 0)
(5.00813 0.00130167 0)
(5.00843 0.00160349 0)
(5.0088 0.00196259 0)
(5.00925 0.00239194 0)
(5.00979 0.00290683 0)
(5.01046 0.00352563 0)
(5.01126 0.0042704 0)
(5.01223 0.00516788 0)
(5.0134 0.00625015 0)
(5.01483 0.00755575 0)
(5.01654 0.00913133 0)
(5.01862 0.0110333 0)
(5.02113 0.0133295 0)
(5.02416 0.0161019 0)
(5.02782 0.0194493 0)
(5.03224 0.0234914 0)
(5.03758 0.0283721 0)
(5.04403 0.0342654 0)
(5.05182 0.0413808 0)
(5.06123 0.0499718 0)
(5.0726 0.0603433 0)
(5.08634 0.0728631 0)
(5.10293 0.0879739 0)
(5.12297 0.106209 0)
(5.14718 0.12821 0)
(5.17645 0.154745 0)
(5.21181 0.186737 0)
(5.25456 0.225285 0)
(5.30626 0.271699 0)
(5.36882 0.327526 0)
(5.44457 0.394575 0)
(5.53642 0.474935 0)
(5.64797 0.570959 0)
(5.78373 0.685185 0)
(5.94958 0.820183 0)
(6.1524 0.977934 0)
(6.4038 1.16 0)
(6.70801 1.36122 0)
(7.10532 1.58745 0)
(7.53187 1.77185 0)
(8.20604 2.04652 0)
(8.66632 1.91623 0)
(9.72191 2.32764 0)
(8.98695 -1.17561 0)
(8.5735 -1.35244 0)
(8.05504 -1.41176 0)
(7.54758 -1.3532 0)
(7.11687 -1.23548 0)
(6.75907 -1.09862 0)
(6.4596 -0.959142 0)
(6.20977 -0.825782 0)
(6.00258 -0.703865 0)
(5.83112 -0.595669 0)