/*--------------------------------*- C++ -*----------------------------------*\
| =========                 |                                                 |
| \\      /  F ield         | OpenFOAM: The Open Source CFD Toolbox           |
|  \\    /   O peration     | Version:  2.4.0                                 |
|   \\  /    A nd           | Web:      www.OpenFOAM.org                      |
|    \\/     M anipulation  |                                                 |
\*---------------------------------------------------------------------------*/
FoamFile
{
    version     2.0;
    format      ascii;
    class       volSymmTensorField;
    location    "0.002";
    object      UPrime2Mean;
}
// * * * * * * * * * * * * * * * * * * * * * * * * * * * * * * * * * * * * * //

dimensions      [0 2 -2 0 0 0 0];

internalField   nonuniform List<symmTensor> 
4400
(
(0.234315 0.0185482 0 0.00936265 0 0)
(2.65231 -0.0738727 0 0.00210169 0 0)
(2.61645 0.00393462 0 3.35231e-05 0 0)
(2.51477 0.00734743 0 2.68087e-05 0 0)
(2.44365 0.00131805 0 9.39231e-07 0 0)
(2.42575 -0.000376447 0 7.18919e-08 0 0)
(2.44657 -0.00220723 0 2.15551e-06 0 0)
(2.48413 -0.0087261 0 5.8774e-05 0 0)
(2.57955 0.0258734 0 0.00163547 0 0)
(4.21607 -0.00585163 0 0.100996 0 0)
(0.739441 0.10928 0 0.0225718 0 0)
(0.0711612 0.00115109 0 0.0034584 0 0)
(0.0120698 -0.000226212 0 2.8453e-05 0 0)
(0.00385592 -5.55271e-05 0 2.60949e-05 0 0)
(0.00395996 -8.47569e-06 0 2.88087e-06 0 0)
(0.00394848 1.69188e-05 0 1.97034e-07 0 0)
(0.003981 5.24748e-05 0 3.10261e-06 0 0)
(0.00744087 0.000412083 0 2.91956e-05 0 0)
(0.0541113 -0.00104195 0 0.000365481 0 0)
(0.640659 0.00113409 0 0.0483611 0 0)
(0.761776 0.0993978 0 0.0177449 0 0)
(0.11692 0.0138878 0 0.0030451 0 0)
(0.0712751 0.000634806 0 1.86814e-05 0 0)
(0.0331041 -0.000815531 0 2.30995e-05 0 0)
(0.0335862 -0.000281636 0 2.39654e-06 0 0)
(0.0364006 0.000226593 0 1.48036e-06 0 0)
(0.0343494 -0.000338538 0 6.65394e-06 0 0)
(0.0415234 0.00601243 0 0.000888197 0 0)
(0.045887 -0.0226279 0 0.0144996 0 0)
(0.0247615 0.00103261 0 0.127852 0 0)
(0.754624 0.0828738 0 0.0124631 0 0)
(0.114824 0.01186 0 0.00222541 0 0)
(0.0718602 0.00106738 0 2.78641e-05 0 0)
(0.0343386 -0.000591052 0 1.25743e-05 0 0)
(0.0350158 -0.00020145 0 1.18381e-06 0 0)
(0.0378812 0.000254332 0 1.90978e-06 0 0)
(0.0353612 0.000144877 0 2.41478e-06 0 0)
(0.04653 0.00196888 0 0.000131734 0 0)
(0.0125975 -0.00175271 0 0.000930313 0 0)
(0.168879 -0.0486073 0 0.0152714 0 0)
(0.7488 0.0684048 0 0.00858105 0 0)
(0.110803 0.00993837 0 0.00165754 0 0)
(0.0701983 0.00109202 0 2.54172e-05 0 0)
(0.0342061 -0.000441772 0 7.32097e-06 0 0)
(0.0351235 -0.000141568 0 5.77203e-07 0 0)
(0.0378641 0.000332663 0 3.13931e-06 0 0)
(0.0361693 -7.04362e-05 0 4.15233e-06 0 0)
(0.0415688 0.00428072 0 0.000445545 0 0)
(0.0310198 -0.0120015 0 0.00525177 0 0)
(0.00399954 0.0046945 0 0.00694754 0 0)
(0.74414 0.0548593 0 0.0055673 0 0)
(0.107623 0.00804892 0 0.0011423 0 0)
(0.0688222 0.00103269 0 2.11772e-05 0 0)
(0.034083 -0.000313225 0 3.89176e-06 0 0)
(0.035212 -8.01711e-05 0 1.83342e-07 0 0)
(0.0378847 0.000356342 0 3.64767e-06 0 0)
(0.036495 7.80056e-05 0 3.34648e-06 0 0)
(0.0401718 0.00271066 0 0.000198267 0 0)
(0.029611 -0.00729641 0 0.00221444 0 0)
(0.0132126 -0.000604912 0 0.0034758 0 0)
(0.740536 0.0419923 0 0.00328415 0 0)
(0.105183 0.00620425 0 0.000706003 0 0)
(0.0677264 0.000890574 0 1.51615e-05 0 0)
(0.0339789 -0.00020609 0 1.80679e-06 0 0)
(0.0352895 -2.39486e-05 0 2.23674e-08 0 0)
(0.0378981 0.000376445 0 4.07955e-06 0 0)
(0.0367934 9.79713e-05 0 3.6068e-06 0 0)
(0.0387268 0.00229823 0 0.000146235 0 0)
(0.0310279 -0.00688933 0 0.00178372 0 0)
(0.00955734 -0.000669493 0 0.00298976 0 0)
(0.737899 0.0296402 0 0.00164444 0 0)
(0.103415 0.00440333 0 0.000366075 0 0)
(0.0669108 0.000689384 0 8.86589e-06 0 0)
(0.0338993 -0.00011632 0 6.40489e-07 0 0)
(0.0353555 2.79305e-05 0 4.50733e-08 0 0)
(0.0379115 0.000381259 0 4.21666e-06 0 0)
(0.0370084 0.000135043 0 3.61722e-06 0 0)
(0.0376497 0.00177528 0 9.23735e-05 0 0)
(0.0314887 -0.00574898 0 0.00120692 0 0)
(0.0105374 0.000147029 0 0.00182795 0 0)
(0.736179 0.0176473 0 0.000584908 0 0)
(0.102263 0.00263386 0 0.000133363 0 0)
(0.0663704 0.000442058 0 3.56765e-06 0 0)
(0.0338486 -3.97153e-05 0 1.04346e-07 0 0)
(0.0354112 7.51281e-05 0 2.10052e-07 0 0)
(0.0379228 0.000377257 0 4.16341e-06 0 0)
(0.0371628 0.00015821 0 3.55085e-06 0 0)
(0.0368239 0.00137614 0 5.90572e-05 0 0)
(0.0317761 -0.00459212 0 0.000762022 0 0)
(0.0116502 0.000480768 0 0.00133795 0 0)
(0.73533 0.00586512 0 6.47624e-05 0 0)
(0.101697 0.000884561 0 1.50426e-05 0 0)
(0.0661063 0.000169561 0 4.95628e-07 0 0)
(0.0338299 2.84414e-05 0 2.45451e-08 0 0)
(0.0354567 0.000117908 0 4.79116e-07 0 0)
(0.0379309 0.000366088 0 3.95841e-06 0 0)
(0.0372731 0.000173343 0 3.39727e-06 0 0)
(0.0362029 0.00107976 0 3.9025e-05 0 0)
(0.032017 -0.00351904 0 0.000449829 0 0)
(0.0129827 0.00112015 0 0.00099756 0 0)
(0.735341 -0.00584637 0 6.421e-05 0 0)
(0.101697 -0.000858177 0 1.45939e-05 0 0)
(0.0661147 -0.000111459 0 2.75944e-07 0 0)
(0.0338439 9.2714e-05 0 3.18169e-07 0 0)
(0.0354923 0.00015672 0 8.21895e-07 0 0)
(0.0379356 0.000349683 0 3.64953e-06 0 0)
(0.0373517 0.000182814 0 3.18674e-06 0 0)
(0.0357533 0.000872435 0 2.73994e-05 0 0)
(0.0322833 -0.00252584 0 0.000239907 0 0)
(0.0143766 0.0018151 0 0.000854588 0 0)
(0.736203 -0.0176295 0 0.00058329 0 0)
(0.102267 -0.00260822 0 0.000132054 0 0)
(0.0663982 -0.000384505 0 2.93075e-06 0 0)
(0.0338906 0.00015807 0 9.81362e-07 0 0)
(0.0355173 0.000192219 0 1.21541e-06 0 0)
(0.0379364 0.000329484 0 3.276e-06 0 0)
(0.037411 0.000188618 0 2.94587e-06 0 0)
(0.0354476 0.000739579 0 2.08354e-05 0 0)
(0.0326261 -0.00163316 0 0.000111904 0 0)
(0.0157669 0.00262949 0 0.000870941 0 0)
(0.737943 -0.0296233 0 0.00164187 0 0)
(0.10342 -0.00437829 0 0.000363929 0 0)
(0.0669548 -0.000636519 0 7.94448e-06 0 0)
(0.0339676 0.000228809 0 2.08069e-06 0 0)
(0.0355313 0.000225572 0 1.65095e-06 0 0)
(0.0379335 0.000306552 0 2.86791e-06 0 0)
(0.0374593 0.000192019 0 2.69192e-06 0 0)
(0.0352625 0.000664447 0 1.72015e-05 0 0)
(0.0330816 -0.000841992 0 4.43071e-05 0 0)
(0.0171229 0.00355614 0 0.00103699 0 0)
(0.740592 -0.0419777 0 0.00328077 0 0)
(0.105191 -0.00618264 0 0.000703412 0 0)
(0.0677883 -0.000842474 0 1.41006e-05 0 0)
(0.0340728 0.000310148 0 3.77013e-06 0 0)
(0.0355328 0.000257092 0 2.11758e-06 0 0)
(0.0379266 0.000281531 0 2.44627e-06 0 0)
(0.0375044 0.0001935 0 2.43297e-06 0 0)
(0.0351788 0.00063256 0 1.53221e-05 0 0)
(0.033675 -0.000151366 0 1.89283e-05 0 0)
(0.018448 0.00460081 0 0.00135241 0 0)
(0.744212 -0.054847 0 0.00556344 0 0)
(0.107633 -0.00802836 0 0.00113911 0 0)
(0.0688987 -0.00098838 0 2.00636e-05 0 0)
(0.0341993 0.000406189 0 6.29179e-06 0 0)
(0.03552 0.000287198 0 2.60925e-06 0 0)
(0.037916 0.000254696 0 2.02464e-06 0 0)
(0.0375506 0.000193247 0 2.17254e-06 0 0)
(0.0351787 0.00062927 0 1.44907e-05 0 0)
(0.0344305 0.000437769 0 2.05709e-05 0 0)
(0.019759 0.00577274 0 0.00182659 0 0)
(0.748881 -0.0683959 0 0.00857692 0 0)
(0.110816 -0.00992195 0 0.00165441 0 0)
(0.0702896 -0.00105515 0 2.45114e-05 0 0)
(0.0343425 0.000521382 0 1.00178e-05 0 0)
(0.0354906 0.000316252 0 3.12108e-06 0 0)
(0.0379013 0.000226001 0 1.6123e-06 0 0)
(0.0376015 0.00019054 0 1.90682e-06 0 0)
(0.0352459 0.000641176 0 1.42451e-05 0 0)
(0.0353693 0.000918658 0 3.63898e-05 0 0)
(0.021095 0.00707954 0 0.00247142 0 0)
(0.754717 -0.082869 0 0.0124594 0 0)
(0.11484 -0.0118457 0 0.00222207 0 0)
(0.071963 -0.00103742 0 2.7215e-05 0 0)
(0.034491 0.00065468 0 1.53049e-05 0 0)
(0.0354388 0.000342357 0 3.61201e-06 0 0)
(0.0378788 0.000193897 0 1.20548e-06 0 0)
(0.0376533 0.00018258 0 1.61107e-06 0 0)
(0.0353548 0.000645845 0 1.38316e-05 0 0)
(0.0364993 0.00126007 0 5.39844e-05 0 0)
(0.0224986 0.00850177 0 0.00327849 0 0)
(0.761874 -0.0993955 0 0.0177415 0 0)
(0.116937 -0.0138797 0 0.00304248 0 0)
(0.0713869 -0.000612784 0 1.84778e-05 0 0)
(0.0332677 0.000862089 0 2.57477e-05 0 0)
(0.0340376 0.000380254 0 4.49959e-06 0 0)
(0.0364675 0.000161282 0 8.57464e-07 0 0)
(0.0363061 0.000172674 0 1.29624e-06 0 0)
(0.0340875 0.000639327 0 1.33053e-05 0 0)
(0.0362759 0.00140005 0 6.14949e-05 0 0)
(0.023022 0.0100458 0 0.00440785 0 0)
(0.739526 -0.10928 0 0.0225698 0 0)
(0.0711549 -0.00114999 0 0.00345667 0 0)
(0.0121062 0.000230317 0 2.83053e-05 0 0)
(0.00387299 6.16346e-05 0 2.77169e-05 0 0)
(0.00400528 2.36826e-05 0 4.34809e-06 0 0)
(0.00409859 2.22691e-05 0 5.38658e-07 0 0)
(0.00411014 3.8364e-05 0 1.05289e-06 0 0)
(0.00408828 6.69397e-05 0 1.3158e-05 0 0)
(0.00455169 0.000297291 0 5.55683e-05 0 0)
(0.00376416 0.000380697 0 0.00487566 0 0)
(0.234353 -0.0185469 0 0.00936167 0 0)
(2.65201 0.0738585 0 0.00210111 0 0)
(2.61561 -0.00396333 0 3.37293e-05 0 0)
(2.5127 -0.00744187 0 2.75754e-05 0 0)
(2.43771 -0.00168305 0 1.51599e-06 0 0)
(2.41199 -0.000637385 0 2.31543e-07 0 0)
(2.39698 -0.00163538 0 1.27626e-06 0 0)
(2.35572 -0.00506651 0 1.18994e-05 0 0)
(2.17767 -0.0105938 0 5.68359e-05 0 0)
(2.02661 -0.0832236 0 0.0035746 0 0)
(5.90863 -1.05176 0 0.879925 0 0)
(1.10794 0.00684461 0 0.0352007 0 0)
(0.102136 0.0328183 0 0.0134031 0 0)
(0.00749599 -0.00260337 0 0.0232662 0 0)
(0.00635138 -0.0112039 0 0.0202173 0 0)
(0.00302928 -0.0059175 0 0.011888 0 0)
(0.0013413 -0.00304039 0 0.00731091 0 0)
(0.000722252 -0.00174826 0 0.00454803 0 0)
(0.000417189 -0.00104198 0 0.00282195 0 0)
(0.00025969 -0.000649689 0 0.00177339 0 0)
(0.000176061 -0.000425949 0 0.00113063 0 0)
(0.000128544 -0.000291387 0 0.000728861 0 0)
(9.98533e-05 -0.000206405 0 0.000473694 0 0)
(8.16545e-05 -0.000150392 0 0.000309579 0 0)
(6.97236e-05 -0.000112184 0 0.000203166 0 0)
(6.16946e-05 -8.52917e-05 0 0.000133728 0 0)
(5.61093e-05 -6.57758e-05 0 8.81615e-05 0 0)
(5.21703e-05 -5.13063e-05 0 5.81815e-05 0 0)
(4.93742e-05 -4.03827e-05 0 3.84253e-05 0 0)
(4.73493e-05 -3.19928e-05 0 2.53857e-05 0 0)
(4.58674e-05 -2.54684e-05 0 1.67715e-05 0 0)
(4.47766e-05 -2.03466e-05 0 1.10791e-05 0 0)
(4.39683e-05 -1.6296e-05 0 7.31691e-06 0 0)
(4.33654e-05 -1.30744e-05 0 4.83067e-06 0 0)
(4.29129e-05 -1.05015e-05 0 3.18797e-06 0 0)
(4.25715e-05 -8.44052e-06 0 2.103e-06 0 0)
(4.23128e-05 -6.78612e-06 0 1.38664e-06 0 0)
(4.21158e-05 -5.4561e-06 0 9.13862e-07 0 0)
(4.19649e-05 -4.38587e-06 0 6.01989e-07 0 0)
(4.18486e-05 -3.52422e-06 0 3.96364e-07 0 0)
(4.17585e-05 -2.8305e-06 0 2.60877e-07 0 0)
(4.16856e-05 -2.27196e-06 0 1.71645e-07 0 0)
(4.16326e-05 -1.82234e-06 0 1.12884e-07 0 0)
(4.15956e-05 -1.46111e-06 0 7.42487e-08 0 0)
(4.15534e-05 -1.16987e-06 0 4.87569e-08 0 0)
(4.15241e-05 -9.35507e-07 0 3.20138e-08 0 0)
(4.15137e-05 -7.49301e-07 0 2.11021e-08 0 0)
(4.1494e-05 -5.99218e-07 0 1.38715e-08 0 0)
(4.14758e-05 -4.77627e-07 0 9.08314e-09 0 0)
(4.14685e-05 -3.81281e-07 0 5.96297e-09 0 0)
(4.14624e-05 -3.04616e-07 0 3.9146e-09 0 0)
(4.14567e-05 -2.43353e-07 0 2.56362e-09 0 0)
(4.14525e-05 -1.94685e-07 0 1.67468e-09 0 0)
(4.14494e-05 -1.56101e-07 0 1.08866e-09 0 0)
(4.14466e-05 -1.25591e-07 0 7.02351e-10 0 0)
(4.14441e-05 -1.01604e-07 0 4.481e-10 0 0)
(4.14424e-05 -8.28858e-08 0 2.8153e-10 0 0)
(4.14414e-05 -6.83483e-08 0 1.7338e-10 0 0)
(4.144e-05 -5.70523e-08 0 1.04945e-10 0 0)
(4.14384e-05 -4.83607e-08 0 6.49032e-11 0 0)
(4.14377e-05 -4.16814e-08 0 4.64482e-11 0 0)
(4.14373e-05 -3.64142e-08 0 4.62539e-11 0 0)
(4.14364e-05 -3.20917e-08 0 6.41085e-11 0 0)
(4.14352e-05 -2.82343e-08 0 1.02473e-10 0 0)
(4.14351e-05 -2.44729e-08 0 1.67144e-10 0 0)
(4.14353e-05 -2.01447e-08 0 2.67921e-10 0 0)
(4.14347e-05 -1.47601e-08 0 4.19652e-10 0 0)
(4.14342e-05 -7.61471e-09 0 6.4601e-10 0 0)
(4.1435e-05 2.00298e-09 0 9.82088e-10 0 0)
(4.14364e-05 1.52321e-08 0 1.48294e-09 0 0)
(4.1437e-05 3.33286e-08 0 2.2283e-09 0 0)
(4.14379e-05 5.77887e-08 0 3.34143e-09 0 0)
(4.14408e-05 9.05844e-08 0 5.00818e-09 0 0)
(4.14449e-05 1.34355e-07 0 7.51462e-09 0 0)
(4.14487e-05 1.92325e-07 0 1.12891e-08 0 0)
(4.14534e-05 2.68451e-07 0 1.69863e-08 0 0)
(4.14612e-05 3.678e-07 0 2.56058e-08 0 0)
(4.14711e-05 4.96977e-07 0 3.8681e-08 0 0)
(4.14814e-05 6.63942e-07 0 5.85305e-08 0 0)
(4.14939e-05 8.78871e-07 0 8.87109e-08 0 0)
(4.15107e-05 1.15444e-06 0 1.34652e-07 0 0)
(4.15303e-05 1.50682e-06 0 2.04693e-07 0 0)
(4.155e-05 1.95573e-06 0 3.11494e-07 0 0)
(4.15704e-05 2.52611e-06 0 4.74472e-07 0 0)
(4.15916e-05 3.24875e-06 0 7.23254e-07 0 0)
(4.1608e-05 4.16187e-06 0 1.10326e-06 0 0)
(4.16099e-05 5.31161e-06 0 1.68357e-06 0 0)
(4.15885e-05 6.75451e-06 0 2.56987e-06 0 0)
(4.15289e-05 8.55745e-06 0 3.92324e-06 0 0)
(4.14018e-05 1.07971e-05 0 5.98982e-06 0 0)
(4.11614e-05 1.35556e-05 0 9.14366e-06 0 0)
(4.07461e-05 1.69141e-05 0 1.39546e-05 0 0)
(4.00662e-05 2.09303e-05 0 2.12881e-05 0 0)
(3.8988e-05 2.55955e-05 0 3.24587e-05 0 0)
(3.73293e-05 3.07503e-05 0 4.94534e-05 0 0)
(3.48736e-05 3.59299e-05 0 7.52742e-05 0 0)
(3.14156e-05 4.00625e-05 0 0.000114435 0 0)
(2.69057e-05 4.09042e-05 0 0.000173698 0 0)
(2.18874e-05 3.40162e-05 0 0.000263111 0 0)
(1.8484e-05 1.07953e-05 0 0.000397525 0 0)
(2.33292e-05 -4.43204e-05 0 0.000598221 0 0)
(5.27147e-05 -0.000164435 0 0.000898326 0 0)
(0.000144611 -0.000380831 0 0.0013219 0 0)
(0.000458989 -0.000933411 0 0.00206088 0 0)
(0.00077055 -0.00118677 0 0.00237692 0 0)
(0.00609968 -0.00671693 0 0.00797442 0 0)
(0.0040607 -0.00255181 0 0.00248764 0 0)
(0.186986 -0.109376 0 0.100439 0 0)
(0.314511 -0.133703 0 0.125973 0 0)
(5.72751 -0.786678 0 0.26329 0 0)
(4.64419 0.0953352 0 0.202598 0 0)
(1.55519 -0.0169034 0 0.104349 0 0)
(0.14475 -0.00232033 0 0.0392002 0 0)
(0.00725202 -0.00672687 0 0.0332949 0 0)
(0.00732495 -0.0123247 0 0.0214606 0 0)
(0.00431617 -0.00676846 0 0.0109593 0 0)
(0.00197985 -0.0034568 0 0.00631264 0 0)
(0.00108633 -0.0020246 0 0.00397271 0 0)
(0.0006394 -0.00123555 0 0.00252975 0 0)
(0.000396544 -0.000777157 0 0.00162191 0 0)
(0.000263573 -0.000508353 0 0.00104927 0 0)
(0.000186972 -0.000344631 0 0.000683697 0 0)
(0.000140374 -0.000240928 0 0.000447997 0 0)
(0.000110666 -0.000172865 0 0.000294736 0 0)
(9.10167e-05 -0.000126777 0 0.000194357 0 0)
(7.76608e-05 -9.47676e-05 0 0.000128446 0 0)
(6.83032e-05 -7.19444e-05 0 8.49955e-05 0 0)
(6.16103e-05 -5.53046e-05 0 5.62568e-05 0 0)
(5.67559e-05 -4.29589e-05 0 3.72452e-05 0 0)
(5.31686e-05 -3.36429e-05 0 2.46583e-05 0 0)
(5.04844e-05 -2.65166e-05 0 1.63208e-05 0 0)
(4.84573e-05 -2.10053e-05 0 1.07983e-05 0 0)
(4.69131e-05 -1.67038e-05 0 7.14127e-06 0 0)
(4.57277e-05 -1.33217e-05 0 4.72025e-06 0 0)
(4.48114e-05 -1.0647e-05 0 3.11823e-06 0 0)
(4.40992e-05 -8.52234e-06 0 2.05879e-06 0 0)
(4.35431e-05 -6.82874e-06 0 1.35855e-06 0 0)
(4.3107e-05 -5.47513e-06 0 8.95965e-07 0 0)
(4.27637e-05 -4.39118e-06 0 5.90567e-07 0 0)
(4.24922e-05 -3.52205e-06 0 3.8908e-07 0 0)
(4.22773e-05 -2.82454e-06 0 2.56219e-07 0 0)
(4.21047e-05 -2.2649e-06 0 1.687e-07 0 0)
(4.1969e-05 -1.8125e-06 0 1.1076e-07 0 0)
(4.18643e-05 -1.45308e-06 0 7.30433e-08 0 0)
(4.17731e-05 -1.16689e-06 0 4.82048e-08 0 0)
(4.17018e-05 -9.28268e-07 0 3.14049e-08 0 0)
(4.16519e-05 -7.41186e-07 0 2.06868e-08 0 0)
(4.16051e-05 -5.95544e-07 0 1.37071e-08 0 0)
(4.15671e-05 -4.74874e-07 0 8.97713e-09 0 0)
(4.15414e-05 -3.78772e-07 0 5.88723e-09 0 0)
(4.15203e-05 -3.02412e-07 0 3.86189e-09 0 0)
(4.15026e-05 -2.41503e-07 0 2.5281e-09 0 0)
(4.14887e-05 -1.9309e-07 0 1.65057e-09 0 0)
(4.14779e-05 -1.54841e-07 0 1.07372e-09 0 0)
(4.14691e-05 -1.24694e-07 0 6.93479e-10 0 0)
(4.14618e-05 -1.00941e-07 0 4.42525e-10 0 0)
(4.14562e-05 -8.22706e-08 0 2.77583e-10 0 0)
(4.1452e-05 -6.78136e-08 0 1.70922e-10 0 0)
(4.14482e-05 -5.67078e-08 0 1.03727e-10 0 0)
(4.14449e-05 -4.8065e-08 0 6.40984e-11 0 0)
(4.14427e-05 -4.13256e-08 0 4.55962e-11 0 0)
(4.14412e-05 -3.61375e-08 0 4.52654e-11 0 0)
(4.14396e-05 -3.20003e-08 0 6.28021e-11 0 0)
(4.14384e-05 -2.82431e-08 0 1.00482e-10 0 0)
(4.14384e-05 -2.44503e-08 0 1.63631e-10 0 0)
(4.14391e-05 -2.03207e-08 0 2.61916e-10 0 0)
(4.14398e-05 -1.51979e-08 0 4.10954e-10 0 0)
(4.14413e-05 -8.21741e-09 0 6.3389e-10 0 0)
(4.14445e-05 1.39052e-09 0 9.64828e-10 0 0)
(4.14492e-05 1.4363e-08 0 1.45635e-09 0 0)
(4.14547e-05 3.20857e-08 0 2.19097e-09 0 0)
(4.14621e-05 5.63907e-08 0 3.2907e-09 0 0)
(4.1473e-05 8.92183e-08 0 4.93696e-09 0 0)
(4.14873e-05 1.32783e-07 0 7.40615e-09 0 0)
(4.15046e-05 1.90376e-07 0 1.11286e-08 0 0)
(4.15268e-05 2.66409e-07 0 1.67558e-08 0 0)
(4.15567e-05 3.65932e-07 0 2.52678e-08 0 0)
(4.15944e-05 4.9511e-07 0 3.81637e-08 0 0)
(4.16406e-05 6.62327e-07 0 5.77623e-08 0 0)
(4.16988e-05 8.78456e-07 0 8.76049e-08 0 0)
(4.17731e-05 1.15661e-06 0 1.33065e-07 0 0)
(4.1865e-05 1.5131e-06 0 2.02373e-07 0 0)
(4.19765e-05 1.96913e-06 0 3.08201e-07 0 0)
(4.21129e-05 2.55188e-06 0 4.69955e-07 0 0)
(4.22796e-05 3.29491e-06 0 7.17231e-07 0 0)
(4.24783e-05 4.24015e-06 0 1.09539e-06 0 0)
(4.27097e-05 5.44102e-06 0 1.67415e-06 0 0)
(4.29761e-05 6.9651e-06 0 2.56041e-06 0 0)
(4.32756e-05 8.89536e-06 0 3.91769e-06 0 0)
(4.35951e-05 1.13324e-05 0 5.9968e-06 0 0)
(4.39084e-05 1.43969e-05 0 9.18282e-06 0 0)
(4.41737e-05 1.82284e-05 0 1.40671e-05 0 0)
(4.43187e-05 2.29719e-05 0 2.15558e-05 0 0)
(4.42196e-05 2.87501e-05 0 3.30405e-05 0 0)
(4.3684e-05 3.56019e-05 0 5.06584e-05 0 0)
(4.24383e-05 4.33566e-05 0 7.76969e-05 0 0)
(4.01215e-05 5.13671e-05 0 0.000119205 0 0)
(3.63354e-05 5.79883e-05 0 0.000182952 0 0)
(3.09087e-05 5.95851e-05 0 0.000280903 0 0)
(2.45139e-05 4.84868e-05 0 0.000431506 0 0)
(2.12627e-05 1.0174e-05 0 0.000663386 0 0)
(3.11123e-05 -9.03142e-05 0 0.00102079 0 0)
(8.87045e-05 -0.000276348 0 0.00157035 0 0)
(0.000336944 -0.000888908 0 0.00246925 0 0)
(0.000715715 -0.000808876 0 0.00344921 0 0)
(0.0123968 -0.0106025 0 0.00920606 0 0)
(0.0580216 -0.0157348 0 0.00940523 0 0)
(0.783055 -0.398753 0 0.220386 0 0)
(1.30827 -0.780403 0 0.472619 0 0)
(5.7086 -3.17954 0 2.0189 0 0)
(1.3812 0.388741 0 0.589304 0 0)
(2.18866 0.434199 0 0.180791 0 0)
(0.736564 0.0870149 0 0.0242258 0 0)
(0.120043 -0.0109734 0 0.00550344 0 0)
(0.029837 -0.0151646 0 0.00937205 0 0)
(0.00898565 -0.00787446 0 0.00752251 0 0)
(0.00312673 -0.00382416 0 0.00496071 0 0)
(0.00153181 -0.00219946 0 0.00331549 0 0)
(0.000885817 -0.00136194 0 0.00219848 0 0)
(0.000548212 -0.000868015 0 0.00144668 0 0)
(0.000361296 -0.000570714 0 0.000952455 0 0)
(0.0002524 -0.000386574 0 0.000628591 0 0)
(0.000185561 -0.000268764 0 0.000415792 0 0)
(0.000142755 -0.000191207 0 0.000275526 0 0)
(0.000114371 -0.000138818 0 0.000182784 0 0)
(9.49778e-05 -0.000102596 0 0.000121364 0 0)
(8.13605e-05 -7.69864e-05 0 8.06027e-05 0 0)
(7.16006e-05 -5.85238e-05 0 5.35177e-05 0 0)
(6.4486e-05 -4.49875e-05 0 3.55274e-05 0 0)
(5.92069e-05 -3.48993e-05 0 2.35744e-05 0 0)
(5.52365e-05 -2.72758e-05 0 1.56332e-05 0 0)
(5.22188e-05 -2.14476e-05 0 1.03602e-05 0 0)
(4.99044e-05 -1.69472e-05 0 6.86096e-06 0 0)
(4.81151e-05 -1.34426e-05 0 4.54032e-06 0 0)
(4.6722e-05 -1.06943e-05 0 3.00241e-06 0 0)
(4.56311e-05 -8.52716e-06 0 1.98404e-06 0 0)
(4.47733e-05 -6.81056e-06 0 1.3102e-06 0 0)
(4.4096e-05 -5.44585e-06 0 8.64627e-07 0 0)
(4.35593e-05 -4.35789e-06 0 5.70219e-07 0 0)
(4.31325e-05 -3.48875e-06 0 3.7584e-07 0 0)
(4.27919e-05 -2.79358e-06 0 2.47622e-07 0 0)
(4.25197e-05 -2.23682e-06 0 1.63061e-07 0 0)
(4.23034e-05 -1.78978e-06 0 1.07263e-07 0 0)
(4.213e-05 -1.43312e-06 0 7.06793e-08 0 0)
(4.19879e-05 -1.14685e-06 0 4.64928e-08 0 0)
(4.1877e-05 -9.14724e-07 0 3.0482e-08 0 0)
(4.17903e-05 -7.319e-07 0 2.01262e-08 0 0)
(4.1716e-05 -5.85635e-07 0 1.32586e-08 0 0)
(4.16567e-05 -4.6618e-07 0 8.67302e-09 0 0)
(4.16125e-05 -3.71715e-07 0 5.68999e-09 0 0)
(4.15769e-05 -2.9674e-07 0 3.734e-09 0 0)
(4.15478e-05 -2.36936e-07 0 2.44507e-09 0 0)
(4.15245e-05 -1.89435e-07 0 1.59673e-09 0 0)
(4.15062e-05 -1.51838e-07 0 1.03802e-09 0 0)
(4.14913e-05 -1.22152e-07 0 6.69632e-10 0 0)
(4.14793e-05 -9.88497e-08 0 4.27259e-10 0 0)
(4.14698e-05 -8.06611e-08 0 2.6839e-10 0 0)
(4.14625e-05 -6.65616e-08 0 1.65347e-10 0 0)
(4.14563e-05 -5.56581e-08 0 1.00212e-10 0 0)
(4.14511e-05 -4.72716e-08 0 6.20702e-11 0 0)
(4.14476e-05 -4.08529e-08 0 4.45154e-11 0 0)
(4.1445e-05 -3.58558e-08 0 4.44052e-11 0 0)
(4.14429e-05 -3.1785e-08 0 6.15204e-11 0 0)
(4.14415e-05 -2.81738e-08 0 9.82668e-11 0 0)
(4.14417e-05 -2.46394e-08 0 1.60055e-10 0 0)
(4.1443e-05 -2.06413e-08 0 2.56287e-10 0 0)
(4.14448e-05 -1.55764e-08 0 4.01693e-10 0 0)
(4.14481e-05 -8.79766e-09 0 6.18644e-10 0 0)
(4.14538e-05 4.28899e-10 0 9.40878e-10 0 0)
(4.1462e-05 1.31096e-08 0 1.42035e-09 0 0)
(4.1472e-05 3.05827e-08 0 2.13571e-09 0 0)
(4.14855e-05 5.43559e-08 0 3.2042e-09 0 0)
(4.15044e-05 8.63468e-08 0 4.80375e-09 0 0)
(4.15291e-05 1.2909e-07 0 7.20666e-09 0 0)
(4.15598e-05 1.85897e-07 0 1.0829e-08 0 0)
(4.15991e-05 2.60824e-07 0 1.62998e-08 0 0)
(4.1651e-05 3.58952e-07 0 2.45781e-08 0 0)
(4.17168e-05 4.86897e-07 0 3.71365e-08 0 0)
(4.17988e-05 6.53112e-07 0 5.62297e-08 0 0)
(4.19024e-05 8.68271e-07 0 8.52978e-08 0 0)
(4.20345e-05 1.14583e-06 0 1.29602e-07 0 0)
(4.21998e-05 1.50314e-06 0 1.97233e-07 0 0)
(4.24043e-05 1.96234e-06 0 3.00598e-07 0 0)
(4.26583e-05 2.55178e-06 0 4.58711e-07 0 0)
(4.29741e-05 3.30765e-06 0 7.00745e-07 0 0)
(4.33618e-05 4.27647e-06 0 1.0716e-06 0 0)
(4.38325e-05 5.51809e-06 0 1.64033e-06 0 0)
(4.4402e-05 7.10968e-06 0 2.51312e-06 0 0)
(4.50855e-05 9.15014e-06 0 3.8535e-06 0 0)
(4.58913e-05 1.17654e-05 0 5.91387e-06 0 0)
(4.68196e-05 1.5115e-05 0 9.08402e-06 0 0)
(4.786e-05 1.93974e-05 0 1.39666e-05 0 0)
(4.8977e-05 2.48513e-05 0 2.14951e-05 0 0)
(5.00846e-05 3.17441e-05 0 3.31197e-05 0 0)
(5.10207e-05 4.03386e-05 0 5.1098e-05 0 0)
(5.15152e-05 5.08065e-05 0 7.89555e-05 0 0)
(5.11413e-05 6.30264e-05 0 0.00012222 0 0)
(4.92793e-05 7.61488e-05 0 0.000189598 0 0)
(4.51941e-05 8.77206e-05 0 0.000294915 0 0)
(3.83172e-05 9.1784e-05 0 0.000460194 0 0)
(3.01044e-05 7.60738e-05 0 0.000721802 0 0)
(2.43237e-05 8.85937e-06 0 0.00113516 0 0)
(5.06016e-05 -0.000134012 0 0.00182315 0 0)
(0.000172587 -0.000671993 0 0.00283437 0 0)
(0.000670193 -0.000523638 0 0.00504869 0 0)
(0.0114476 -0.008225 0 0.00739934 0 0)
(0.0782659 -0.00427743 0 0.0133345 0 0)
(0.970295 -0.415579 0 0.185071 0 0)
(2.06432 -1.20954 0 0.709061 0 0)
(4.377 -3.9325 0 4.31145 0 0)
(0.337748 0.192099 0 0.113733 0 0)
(0.456938 0.170406 0 0.0696503 0 0)
(0.136559 0.0178373 0 0.00249444 0 0)
(0.0102803 -0.000628965 0 0.000434159 0 0)
(0.004429 -0.00389551 0 0.0034562 0 0)
(0.00563532 -0.00508064 0 0.0047561 0 0)
(0.00319457 -0.00338712 0 0.00374716 0 0)
(0.00181948 -0.00216473 0 0.00268532 0 0)
(0.00110939 -0.00140601 0 0.00186012 0 0)
(0.000701087 -0.000918959 0 0.00126 0 0)
(0.000463637 -0.000611464 0 0.000846013 0 0)
(0.000321919 -0.000416015 0 0.000566319 0 0)
(0.000233879 -0.000289163 0 0.000378626 0 0)
(0.000177047 -0.000204958 0 0.000252962 0 0)
(0.000139163 -0.000147885 0 0.000168888 0 0)
(0.00011325 -0.000108484 0 0.000112711 0 0)
(9.50518e-05 -8.07457e-05 0 7.51696e-05 0 0)
(8.19908e-05 -6.08657e-05 0 5.00817e-05 0 0)
(7.24607e-05 -4.64008e-05 0 3.33394e-05 0 0)
(6.53888e-05 -3.57156e-05 0 2.21743e-05 0 0)
(6.0068e-05 -2.7715e-05 0 1.47337e-05 0 0)
(5.60202e-05 -2.16536e-05 0 9.7803e-06 0 0)
(5.29114e-05 -1.70134e-05 0 6.48603e-06 0 0)
(5.0504e-05 -1.34288e-05 0 4.29728e-06 0 0)
(4.86262e-05 -1.06382e-05 0 2.84454e-06 0 0)
(4.71531e-05 -8.45179e-06 0 1.88132e-06 0 0)
(4.59922e-05 -6.72968e-06 0 1.24326e-06 0 0)
(4.50737e-05 -5.36723e-06 0 8.20951e-07 0 0)
(4.43442e-05 -4.28559e-06 0 5.41699e-07 0 0)
(4.37628e-05 -3.42463e-06 0 3.57218e-07 0 0)
(4.32989e-05 -2.73793e-06 0 2.35433e-07 0 0)
(4.29271e-05 -2.18962e-06 0 1.55117e-07 0 0)
(4.26296e-05 -1.74975e-06 0 1.02034e-07 0 0)
(4.2394e-05 -1.39923e-06 0 6.72179e-08 0 0)
(4.2201e-05 -1.11983e-06 0 4.43039e-08 0 0)
(4.2045e-05 -8.92571e-07 0 2.90475e-08 0 0)
(4.19245e-05 -7.12709e-07 0 1.91392e-08 0 0)
(4.18256e-05 -5.70147e-07 0 1.26223e-08 0 0)
(4.17449e-05 -4.54044e-07 0 8.26873e-09 0 0)
(4.16823e-05 -3.61831e-07 0 5.42389e-09 0 0)
(4.16324e-05 -2.88655e-07 0 3.55855e-09 0 0)
(4.15919e-05 -2.30389e-07 0 2.33033e-09 0 0)
(4.15595e-05 -1.84141e-07 0 1.52182e-09 0 0)
(4.15339e-05 -1.47569e-07 0 9.89366e-10 0 0)
(4.15132e-05 -1.18727e-07 0 6.38349e-10 0 0)
(4.14963e-05 -9.61089e-08 0 4.07361e-10 0 0)
(4.14831e-05 -7.84506e-08 0 2.55805e-10 0 0)
(4.14728e-05 -6.47663e-08 0 1.57502e-10 0 0)
(4.14642e-05 -5.42361e-08 0 9.55161e-11 0 0)
(4.14572e-05 -4.6163e-08 0 5.92728e-11 0 0)
(4.14522e-05 -3.99815e-08 0 4.26505e-11 0 0)
(4.14487e-05 -3.52026e-08 0 4.2771e-11 0 0)
(4.1446e-05 -3.13761e-08 0 5.94523e-11 0 0)
(4.14444e-05 -2.80189e-08 0 9.49961e-11 0 0)
(4.14447e-05 -2.471e-08 0 1.54597e-10 0 0)
(4.14466e-05 -2.09786e-08 0 2.4727e-10 0 0)
(4.14496e-05 -1.62552e-08 0 3.87142e-10 0 0)
(4.14546e-05 -9.88123e-09 0 5.95734e-10 0 0)
(4.14627e-05 -1.08426e-09 0 9.05537e-10 0 0)
(4.14743e-05 1.10592e-08 0 1.36609e-09 0 0)
(4.14889e-05 2.78198e-08 0 2.05268e-09 0 0)
(4.15084e-05 5.07316e-08 0 3.07803e-09 0 0)
(4.1535e-05 8.17285e-08 0 4.61317e-09 0 0)
(4.15698e-05 1.23247e-07 0 6.9183e-09 0 0)
(4.16137e-05 1.78476e-07 0 1.03914e-08 0 0)
(4.16699e-05 2.51509e-07 0 1.56369e-08 0 0)
(4.17433e-05 3.47456e-07 0 2.35762e-08 0 0)
(4.18369e-05 4.72826e-07 0 3.56198e-08 0 0)
(4.19543e-05 6.36033e-07 0 5.39305e-08 0 0)
(4.21032e-05 8.47923e-07 0 8.18189e-08 0 0)
(4.22927e-05 1.12227e-06 0 1.24354e-07 0 0)
(4.25313e-05 1.47673e-06 0 1.89325e-07 0 0)
(4.28291e-05 1.93416e-06 0 2.88698e-07 0 0)
(4.32019e-05 2.52428e-06 0 4.40875e-07 0 0)
(4.36691e-05 3.28558e-06 0 6.74151e-07 0 0)
(4.425e-05 4.26807e-06 0 1.03215e-06 0 0)
(4.49678e-05 5.53735e-06 0 1.5822e-06 0 0)
(4.58535e-05 7.18012e-06 0 2.4283e-06 0 0)
(4.69429e-05 9.31042e-06 0 3.73138e-06 0 0)
(4.82707e-05 1.20781e-05 0 5.74106e-06 0 0)
(4.98713e-05 1.56804e-05 0 8.84531e-06 0 0)
(5.17786e-05 2.03765e-05 0 1.36489e-05 0 0)
(5.40133e-05 2.6501e-05 0 2.10971e-05 0 0)
(5.65581e-05 3.44736e-05 0 3.26738e-05 0 0)
(5.93292e-05 4.47984e-05 0 5.07181e-05 0 0)
(6.21353e-05 5.80321e-05 0 7.89382e-05 0 0)
(6.46001e-05 7.46655e-05 0 0.000123251 0 0)
(6.60604e-05 9.48248e-05 0 0.000193173 0 0)
(6.54761e-05 0.0001176 0 0.00030419 0 0)
(6.14753e-05 0.000139545 0 0.000481699 0 0)
(5.3057e-05 0.000151971 0 0.000769319 0 0)
(4.00282e-05 0.000131638 0 0.00123527 0 0)
(3.80802e-05 4.77235e-05 0 0.00204812 0 0)
(5.12555e-05 -0.000298788 0 0.00322575 0 0)
(0.00035427 -0.000469883 0 0.00651404 0 0)
(0.00363439 -0.00398026 0 0.00759727 0 0)
(0.0282911 0.00268041 0 0.0232705 0 0)
(0.341616 -0.18966 0 0.125554 0 0)
(0.866969 -0.72618 0 0.652442 0 0)
(2.74787 -3.25424 0 5.62474 0 0)
(0.21173 0.187751 0 0.184051 0 0)
(0.546232 0.104764 0 0.0371697 0 0)
(0.157996 -0.0103797 0 0.00469578 0 0)
(0.0270592 -0.00694716 0 0.00262772 0 0)
(0.013185 -0.00664049 0 0.00371127 0 0)
(0.00787823 -0.00537779 0 0.00388971 0 0)
(0.00395281 -0.00334612 0 0.00297387 0 0)
(0.00217797 -0.00212252 0 0.00215997 0 0)
(0.00133174 -0.00140289 0 0.00154096 0 0)
(0.000851665 -0.000935736 0 0.00107271 0 0)
(0.000566552 -0.000631232 0 0.000735248 0 0)
(0.000392986 -0.000432726 0 0.000499784 0 0)
(0.000283644 -0.000301642 0 0.000338044 0 0)
(0.000212504 -0.00021372 0 0.000227882 0 0)
(0.00016486 -0.000153777 0 0.000153215 0 0)
(0.00013212 -0.000112272 0 0.000102816 0 0)
(0.000109106 -8.30823e-05 0 6.88762e-05 0 0)
(9.26016e-05 -6.22348e-05 0 4.60565e-05 0 0)
(8.05596e-05 -4.71372e-05 0 3.07511e-05 0 0)
(7.16313e-05 -3.60521e-05 0 2.0503e-05 0 0)
(6.49202e-05 -2.78081e-05 0 1.3651e-05 0 0)
(5.98183e-05 -2.16061e-05 0 9.07698e-06 0 0)
(5.5902e-05 -1.68914e-05 0 6.02816e-06 0 0)
(5.28705e-05 -1.32734e-05 0 3.99866e-06 0 0)
(5.05061e-05 -1.04743e-05 0 2.64949e-06 0 0)
(4.8651e-05 -8.29351e-06 0 1.75377e-06 0 0)
(4.71888e-05 -6.58451e-06 0 1.15978e-06 0 0)
(4.60314e-05 -5.23842e-06 0 7.66274e-07 0 0)
(4.51117e-05 -4.17383e-06 0 5.05868e-07 0 0)
(4.43786e-05 -3.32923e-06 0 3.33723e-07 0 0)
(4.37925e-05 -2.65757e-06 0 2.20041e-07 0 0)
(4.33244e-05 -2.12223e-06 0 1.44986e-07 0 0)
(4.29499e-05 -1.6942e-06 0 9.54288e-08 0 0)
(4.26468e-05 -1.35382e-06 0 6.29077e-08 0 0)
(4.24046e-05 -1.08193e-06 0 4.14382e-08 0 0)
(4.22127e-05 -8.61751e-07 0 2.71817e-08 0 0)
(4.20568e-05 -6.87663e-07 0 1.79122e-08 0 0)
(4.19302e-05 -5.49583e-07 0 1.1812e-08 0 0)
(4.18295e-05 -4.37575e-07 0 7.74414e-09 0 0)
(4.17498e-05 -3.48461e-07 0 5.07932e-09 0 0)
(4.16861e-05 -2.7778e-07 0 3.33189e-09 0 0)
(4.16346e-05 -2.21593e-07 0 2.18202e-09 0 0)
(4.15934e-05 -1.77044e-07 0 1.42507e-09 0 0)
(4.15606e-05 -1.41844e-07 0 9.26459e-10 0 0)
(4.15341e-05 -1.14113e-07 0 5.9774e-10 0 0)
(4.15128e-05 -9.23944e-08 0 3.81416e-10 0 0)
(4.14959e-05 -7.54738e-08 0 2.39502e-10 0 0)
(4.14827e-05 -6.23869e-08 0 1.47452e-10 0 0)
(4.14718e-05 -5.23433e-08 0 8.9456e-11 0 0)
(4.1463e-05 -4.46791e-08 0 5.56406e-11 0 0)
(4.14567e-05 -3.88624e-08 0 4.03117e-11 0 0)
(4.14522e-05 -3.44103e-08 0 4.07785e-11 0 0)
(4.14489e-05 -3.08775e-08 0 5.68812e-11 0 0)
(4.1447e-05 -2.78185e-08 0 9.08493e-11 0 0)
(4.14475e-05 -2.48348e-08 0 1.47657e-10 0 0)
(4.145e-05 -2.14647e-08 0 2.35835e-10 0 0)
(4.1454e-05 -1.71451e-08 0 3.68706e-10 0 0)
(4.14607e-05 -1.12563e-08 0 5.66607e-10 0 0)
(4.14712e-05 -3.06206e-09 0 8.60352e-10 0 0)
(4.1486e-05 8.34302e-09 0 1.29671e-09 0 0)
(4.15049e-05 2.41877e-08 0 1.94659e-09 0 0)
(4.15302e-05 4.59532e-08 0 2.9164e-09 0 0)
(4.15644e-05 7.55043e-08 0 4.36762e-09 0 0)
(4.1609e-05 1.15228e-07 0 6.54578e-09 0 0)
(4.16656e-05 1.68246e-07 0 9.82594e-09 0 0)
(4.17383e-05 2.38562e-07 0 1.47785e-08 0 0)
(4.18329e-05 3.31187e-07 0 2.22733e-08 0 0)
(4.19535e-05 4.52556e-07 0 3.36421e-08 0 0)
(4.21057e-05 6.11036e-07 0 5.09281e-08 0 0)
(4.22989e-05 8.17441e-07 0 7.7262e-08 0 0)
(4.25452e-05 1.0856e-06 0 1.17444e-07 0 0)
(4.28563e-05 1.4334e-06 0 1.78855e-07 0 0)
(4.32468e-05 1.88421e-06 0 2.72857e-07 0 0)
(4.37384e-05 2.4687e-06 0 4.16954e-07 0 0)
(4.43578e-05 3.22706e-06 0 6.38126e-07 0 0)
(4.51344e-05 4.21228e-06 0 9.78079e-07 0 0)
(4.61043e-05 5.49501e-06 0 1.50138e-06 0 0)
(4.73163e-05 7.17025e-06 0 2.30818e-06 0 0)
(4.88293e-05 9.36568e-06 0 3.55416e-06 0 0)
(5.07096e-05 1.22534e-05 0 5.48203e-06 0 0)
(5.30336e-05 1.60666e-05 0 8.47144e-06 0 0)
(5.58927e-05 2.11232e-05 0 1.31185e-05 0 0)