/*--------------------------------*- C++ -*----------------------------------*\
| =========                 |                                                 |
| \\      /  F ield         | OpenFOAM: The Open Source CFD Toolbox           |
|  \\    /   O peration     | Version:  2.4.0                                 |
|   \\  /    A nd           | Web:      www.OpenFOAM.org                      |
|    \\/     M anipulation  |                                                 |
\*---------------------------------------------------------------------------*/
FoamFile
{
    version     2.0;
    format      ascii;
    class       volScalarField;
    location    "0.112";
    object      pMean;
}
// * * * * * * * * * * * * * * * * * * * * * * * * * * * * * * * * * * * * * //

dimensions      [0 2 -2 0 0 0 0];

internalField   nonuniform List<scalar> 
17600
(
117.367
101.083
96.143
94.5847
93.2093
91.8167
90.4911
89.2198
87.9905
86.7614
85.5489
84.3288
83.1462
81.9447
80.7887
79.5788
78.3882
77.0639
75.5444
73.1437
115.474
101.132
96.1834
94.594
93.2126
91.8172
90.4913
89.22
87.9907
86.7614
85.5489
84.3289
83.1463
81.9453
80.7887
79.5806
78.3889
77.0689
75.5542
73.4902
114.072
101.384
96.325
94.6315
93.2263
91.8216
90.4933
89.2215
87.9917
86.762
85.5492
84.3286
83.1466
81.9449
80.7894
79.5795
78.3921
77.0683
75.6149
73.6662
113.103
101.72
96.5408
94.695
93.2552
91.8367
90.5018
89.2274
87.9957
86.7645
85.5502
84.33
83.1469
81.9479
80.7898
79.5878
78.3928
77.0908
75.6639
73.8648
112.286
102.048
96.799
94.7745
93.2967
91.8656
90.5211
89.2413
88.0053
86.7711
85.554
84.3315
83.1489
81.9483
80.7937
79.5875
78.4056
77.1025
75.7439
74.0734
111.517
102.334
97.0698
94.8542
93.3377
91.9023
90.5499
89.2639
88.0217
86.7832
85.5605
84.338
83.1513
81.9561
80.7961
79.6005
78.4124
77.1292
75.8285
74.3014
110.794
102.576
97.3394
94.9286
93.3691
91.9365
90.5828
89.292
88.0433
86.7995
85.5709
84.345
83.157
81.9619
80.8026
79.6109
78.422
77.1653
75.8997
74.5653
110.127
102.775
97.6013
95
93.3902
91.9632
90.615
89.3222
88.0668
86.8177
85.5822
84.3545
83.1631
81.9712
80.8119
79.6245
78.4425
77.1983
75.9825
74.8768
109.52
102.937
97.848
95.0735
93.4031
91.9816
90.6441
89.3522
88.0908
86.8361
85.5935
84.3644
83.1686
81.9818
80.8174
79.6437
78.4536
77.2475
76.0472
75.1896
108.976
103.063
98.0764
95.1512
93.4098
91.9923
90.6692
89.3811
88.1141
86.8533
85.6042
84.3727
83.1754
81.9909
80.8288
79.6598
78.477
77.295
76.1367
75.5253
108.492
103.154
98.2857
95.2334
93.4116
91.9964
90.6903
89.4085
88.1364
86.8697
85.6136
84.3811
83.1801
82.0008
80.8367
79.6783
78.5024
77.3453
76.2534
75.8143
108.067
103.215
98.4757
95.3198
93.4096
91.9949
90.7076
89.4341
88.1579
86.885
85.6221
84.3879
83.1864
82.0098
80.8483
79.6968
78.5302
77.4027
76.3744
76.0711
107.697
103.251
98.6462
95.4086
93.4051
91.9888
90.7214
89.4577
88.1782
86.8989
85.6297
84.3941
83.1918
82.0187
80.8604
79.7159
78.5643
77.4619
76.4991
76.3063
107.381
103.27
98.7964
95.4952
93.4001
91.9799
90.7324
89.4789
88.1971
86.9116
85.6366
84.3997
83.1979
82.0277
80.8734
79.7365
78.6
77.5239
76.6236
76.5233
107.114
103.279
98.9252
95.5731
93.3963
91.9698
90.7409
89.4977
88.2142
86.9227
85.6428
84.4043
83.204
82.0369
80.8877
79.7586
78.6375
77.5878
76.7451
76.7252
106.894
103.282
99.0317
95.6398
93.3942
91.9597
90.7474
89.5136
88.2292
86.9322
85.6482
84.4089
83.2102
82.0459
80.9025
79.7814
78.6769
77.6537
76.8625
76.9139
106.721
103.282
99.1158
95.6944
93.3938
91.9504
90.7521
89.5266
88.2418
86.9401
85.6531
84.4129
83.2166
82.0556
80.918
79.8058
78.7172
77.7201
76.9756
77.0897
106.592
103.28
99.1776
95.7364
93.3945
91.9427
90.7552
89.5366
88.2516
86.9465
85.6573
84.4169
83.2231
82.0655
80.9342
79.8314
78.759
77.7867
77.0848
77.2527
106.507
103.278
99.2182
95.7649
93.3957
91.9371
90.7573
89.5435
88.2589
86.9512
85.6613
84.4207
83.23
82.0754
80.9512
79.8571
78.8018
77.853
77.1902
77.4032
106.465
103.277
99.2383
95.7794
93.3965
91.9343
90.7582
89.5472
88.263
86.9543
85.6644
84.4248
83.2363
82.0862
80.9676
79.8847
78.8436
77.9203
77.2917
77.5397
106.465
103.277
99.2382
95.7796
93.3966
91.9347
90.7583
89.5478
88.2641
86.9559
85.667
84.4288
83.2431
82.097
80.9854
79.9116
78.8875
77.9835
77.3986
77.658
106.507
103.278
99.2182
95.7653
93.396
91.938
90.7578
89.5449
88.2624
86.9555
85.6694
84.4322
83.2503
82.1071
81.004
79.9383
78.9322
78.0444
77.5014
77.7896
106.593
103.279
99.1775
95.7371
93.395
91.9443
90.7561
89.5393
88.2573
86.9542
85.6704
84.437
83.2562
82.1195
81.0207
79.9684
78.9725
78.1108
77.5719
77.8951
106.722
103.281
99.1157
95.6954
93.3946
91.9524
90.7535
89.5303
88.2497
86.9506
85.6715
84.4407
83.2631
82.1307
81.0388
79.9973
79.0146
78.1732
77.6416
78.0182
106.896
103.281
99.0318
95.641
93.3953
91.9621
90.7494
89.5183
88.2392
86.9457
85.6718
84.4445
83.2698
82.142
81.0575
80.0259
79.0581
78.232
77.716
78.1198
107.116
103.277
98.9253
95.5745
93.3977
91.9725
90.7436
89.5034
88.2262
86.9393
85.6711
84.4483
83.276
82.1539
81.0758
80.0555
79.1009
78.2915
77.7859
78.2055
107.383
103.268
98.7965
95.4968
93.402
91.9828
90.7359
89.4857
88.211
86.9311
85.6701
84.4514
83.2825
82.1653
81.0945
80.0852
79.1444
78.3515
77.8511
78.2757
107.701
103.249
98.6463
95.4104
93.4075
91.992
90.7258
89.4655
88.194
86.9215
85.6683
84.4539
83.2889
82.1767
81.1133
80.1149
79.1886
78.4122
77.9132
78.3283
108.071
103.212
98.4757
95.3213
93.4126
91.9982
90.7128
89.4429
88.1756
86.9104
85.6657
84.4554
83.2952
82.1875
81.1323
80.1444
79.234
78.4738
77.975
78.3613
108.496
103.151
98.2856
95.2348
93.4152
92.0002
90.6962
89.4183
88.1559
86.8981
85.662
84.4559
83.3014
82.1976
81.1515
80.1733
79.2806
78.5362
78.0407
78.3721
108.98
103.06
98.0763
95.1524
93.4138
91.9967
90.6758
89.3921
88.1352
86.8845
85.6572
84.4554
83.3072
82.2069
81.1706
80.2009
79.3284
78.5987
78.1145
78.3594
109.524
102.934
97.8479
95.0747
93.4073
91.9866
90.6513
89.3644
88.1136
86.8697
85.6511
84.4539
83.3124
82.2151
81.1894
80.2267
79.377
78.6594
78.1984
78.3255
110.131
102.773
97.6013
95.0014
93.3945
91.9688
90.6228
89.3355
88.0913
86.8541
85.644
84.4516
83.3166
82.2224
81.2066
80.2505
79.423
78.7167
78.2827
78.2888
110.799
102.573
97.3394
94.9302
93.3734
91.9428
90.5912
89.3066
88.0692
86.8385
85.6364
84.4492
83.3198
82.2289
81.2213
80.272
79.4628
78.7684
78.3547
78.25
111.522
102.332
97.0701
94.8558
93.3421
91.9091
90.559
89.2795
88.0491
86.8244
85.6297
84.447
83.3227
82.2346
81.2337
80.2902
79.4954
78.8108
78.4116
78.2346
112.29
102.046
96.7995
94.7762
93.3011
91.8727
90.5308
89.2577
88.0338
86.8142
85.6254
84.4463
83.3256
82.2397
81.2436
80.3048
79.5196
78.8432
78.4489
78.2241
113.107
101.717
96.5415
94.6967
93.2597
91.8442
90.512
89.2444
88.0249
86.8089
85.6238
84.4468
83.3283
82.2438
81.2506
80.3151
79.5354
78.8656
78.4686
78.2241
114.076
101.382
96.3259
94.6332
93.2308
91.8291
90.5037
89.2388
88.0214
86.8071
85.6236
84.4478
83.3302
82.2465
81.2547
80.3213
79.5441
78.8782
78.478
78.2332
115.478
101.129
96.1843
94.5957
93.2171
91.8248
90.5018
89.2374
88.0204
86.8068
85.6238
84.4484
83.331
82.2476
81.2562
80.3237
79.5472
78.883
78.4806
78.2525
117.371
101.081
96.1439
94.5864
93.2139
91.8244
90.5016
89.2372
88.0203
86.8068
85.6238
84.4485
83.331
82.2476
81.2564
80.3238
79.5475
78.8833
78.4797
78.2953
71.0632
70.6501
69.6324
68.3566
67.1422
66.1037
65.2368
64.5226
64.1143
63.9885
64.1426
64.4621
64.8566
65.1115
65.1114
64.7967
64.1386
63.3437
62.5447
61.8731
61.4039
61.0982
60.9736
61.0403
61.2815
61.7016
62.2471
62.8631
63.5297
64.2469
65.0098
65.7936
66.5943
67.4037
68.1887
68.9329
69.6679
70.413
71.1736
71.9227
72.6236
73.257
73.8157
74.3106
74.7622
75.202
75.6712
76.1443
76.5328
76.8268
77.0685
77.2582
77.3607
77.3564
77.2825
77.174
77.0515
76.9193
76.7927
76.6926
76.6131
76.5596
76.5276
76.5241
76.5503
76.6039
76.6809
76.7814
76.9143
77.0897
77.3122
77.5798
77.8887
78.229
78.5965
78.9888
79.3919
79.7965
80.1841
80.5484
80.8917
81.2089
81.5007
81.7615
81.9984
82.2127
82.402
82.567
82.7057
82.8203
82.9083
82.9597
82.9857
82.9867
82.9648
82.9144
82.8446
82.7604
82.6773
82.5908
82.5244
82.4847
82.4814
82.5107
82.5699
82.6619
82.7914
82.951
83.1422
83.367
83.6227
83.9008
84.1965
84.4951
84.7844
85.0556
85.3092
85.5422
85.7544
85.9481
86.1228
86.284
86.4261
86.5567
86.6692
86.7696
86.8567
86.9317
86.9973
87.0516
87.0957
87.1251
87.1411
87.1417
87.1315
87.11
87.0831
87.0503
87.0168
86.9766
86.945
86.9133
86.8964
86.8916
86.9063
86.9465
87.0087
87.0874
87.1697
87.2531
87.327
87.3853
87.4178
87.4263
87.4102
87.3724
87.3155
87.2451
87.1693
87.0933
87.0287
86.982
86.9629
86.9737
87.0239
87.1045
87.2224
87.3514
87.4924
87.6184
87.7311
87.8131
87.8593
87.8596
87.8166
87.7304
87.603
87.4382
87.2371
87.0042
86.7422
86.4534
86.1402
85.8003
85.4349
85.0373
84.6054
84.1322
83.6078
83.0168
82.3414
81.5566
80.6108
79.4492
77.9036
75.9273
72.9439
68.193
62.3163
35.9198
71.6303
70.9919
70.064
68.9244
67.8109
66.8528
66.0801
65.4652
65.1233
65.0552
65.2279
65.5375
65.8863
66.1065
66.088
65.775
65.1367
64.3424
63.5482
62.8542
62.3628
62.0524
61.9279
61.9936
62.2359
62.6453
63.1799
63.7814
64.4281
65.1263
65.8732
66.6428
67.4255
68.2185
68.9858
69.6987
70.3964
71.1041
71.8137
72.5054
73.1551
73.736
74.2389
74.6748
75.0585
75.4164
75.81
76.2312
76.5859
76.844
77.0433
77.1914
77.2548
77.2166
77.1065
76.9562
76.7854
76.6011
76.424
76.272
76.1464
76.0549
75.9856
75.949
75.9467
75.9786
76.0405
76.134
76.269
76.4542
76.6932
76.9825
77.3177
77.6904
78.0933
78.5226
78.9634
79.4082
79.8389
80.2473
80.6372
81.0019
81.3412
81.65
81.9315
82.1872
82.4131
82.6074
82.7699
82.9057
83.009
83.0723
83.1079
83.1158
83.0994
83.0529
82.9877
82.9053
82.8195
82.7266
82.6507
82.5978
82.579
82.5914
82.6377
82.7162
82.8329
82.98
83.1602
83.3718
83.6156
83.8794
84.1615
84.4446
84.7213
84.9795
85.2242
85.4487
85.6565
85.8449
86.0181
86.1763
86.3183
86.4477
86.5614
86.663
86.7528
86.8312
86.9018
86.9603
87.0105
87.0477
87.074
87.0863
87.0893
87.0778
87.0596
87.0332
87.0069
86.972
86.948
86.9205
86.9125
86.914
86.9393
86.9891
87.064
87.154
87.2496
87.3444
87.4319
87.5009
87.5448
87.5602
87.5512
87.5159
87.4609
87.3885
87.3097
87.2277
87.1543
87.0965
87.0629
87.0569
87.0886
87.1487
87.2462
87.3549
87.4762
87.5832
87.6784
87.7439
87.7738
87.7578
87.7001
87.5992
87.4586
87.2778
87.0619
86.811
86.5305
86.2215
85.8844
85.5196
85.1234
84.6942
84.2237
83.7052
83.1269
82.472
81.7152
80.8329
79.7483
78.4376
76.6426
74.2864
71.0802
64.7323
58.6405
28.82
72.1684
71.4554
70.5044
69.4235
68.3874
67.5006
66.8066
66.2886
66.009
65.9775
66.1577
66.4557
66.7563
66.933
66.8893
66.585
65.9932
65.2396
64.4818
63.7934
63.3028
62.9997
62.8788
62.9449
63.1833
63.5788
64.0995
64.6918
65.3247
66.0079
66.7391
67.4901
68.2525
69.0255
69.7738
70.4603
71.123
71.7978
72.4642
73.0983
73.6896
74.2147
74.6633
75.0441
75.3666
75.6484
75.9642
76.331
76.6532
76.8831
77.0489
77.1606
77.1897
77.1239
76.984
76.7966
76.5799
76.3439
76.1155
75.9108
75.7402
75.6093
75.5028
75.4322
75.4007
75.4093
75.4554
75.542
75.6791
75.8748
76.1297
76.4392
76.8
77.2048
77.644
78.1111
78.5898
79.0744
79.548
80.0007
80.4371
80.8488
81.2347
81.5915
81.9188
82.2161
82.4781
82.7013
82.8866
83.0405
83.1565
83.23
83.2742
83.2865
83.2739
83.2294
83.1679
83.0869
82.9993
82.9014
82.8186
82.7534
82.72
82.7146
82.7481
82.8129
82.9166
83.0496
83.2191
83.4165
83.648
83.8958
84.1637
84.4299
84.6931
84.9363
85.1709
85.384
85.5864
85.7675
85.9387
86.0922
86.2341
86.3609
86.4757
86.5769
86.669
86.7489
86.8242
86.8857
86.9412
86.9844
87.0205
87.0439
87.0601
87.06
87.0523
87.0334
87.0136
86.985
86.9672
86.9441
86.9432
86.9503
86.9839
87.0429
87.1282
87.2296
87.3365
87.4437
87.5429
87.6242
87.6783
87.703
87.6999
87.6698
87.6153
87.543
87.4609
87.3743
87.2919
87.2236
87.1772
87.1531
87.1679
87.2057
87.2833
87.369
87.4709
87.5565
87.6348
87.6808
87.6947
87.6598
87.587
87.4691
87.3145
87.1184
86.8862
86.6191
86.3182
85.9891
85.6278
85.2364
84.8114
84.3479
83.8406
83.2768
82.6421
81.9259
81.086
80.1183
78.8898
77.3954
75.4341
72.5433
69.4924
61.2967
55.1411
27.143
72.5884
71.9104
70.992
69.9164
68.9099
68.0862
67.4784
67.0593
66.8457
66.8434
67.0165
67.2824
67.5256
67.6522
67.5847
67.299
66.7582
66.0701
65.371
64.7269
64.2542
63.9621
63.8408
63.9042
64.1364
64.5176
65.0208
65.5998
66.2176
66.8832
67.5946
68.3235
69.0629
69.8132
70.5429
71.2111
71.8455
72.4874
73.1139
73.6957
74.2257
74.6927
75.0884
75.4188
75.686
75.9002
76.1407
76.4478
76.736
76.9423
77.084
77.1667
77.1682
77.0804
76.9161
76.6939
76.4328
76.1476
75.8689
75.6126
75.3984
75.2266
75.0822
74.9787
74.9173
74.9024
74.9316
75.0108
75.1503
75.3567
75.6278
75.9568
76.3422
76.7783
77.2539
77.7589
78.276
78.7994
79.3153
79.812
80.294
80.7515
81.1828
81.5869
81.9604
82.2978
82.5952
82.8468
83.0539
83.2234
83.3495
83.4315
83.4833
83.4975
83.4866
83.4422
83.3836
83.3028
83.2145
83.1124
83.0245
82.9477
82.9012
82.8779
82.8985
82.9494
83.04
83.158
83.3169
83.4997
83.7184
83.9492
84.2027
84.4506
84.7003
84.9265
85.1504
85.3499
85.5458
85.7172
85.8858
86.0324
86.1744
86.2967
86.4135
86.5122
86.6075
86.687
86.7678
86.8301
86.8923
86.9389
86.9846
87.0166
87.0464
87.057
87.062
87.0507
87.0385
87.0153
87.0039
86.9837
86.9898
87.0001
87.0418
87.107
87.2022
87.3127
87.4312
87.5485
87.6609
87.7526
87.8186
87.8512
87.8565
87.8299
87.7792
87.705
87.6216
87.5294
87.4413
87.3605
87.3037
87.2607
87.2596
87.2744
87.3311
87.3941
87.4742
87.5392
87.5971
87.6243
87.6189
87.5678
87.4765
87.3432
87.1712
86.9599
86.7117
86.4261
86.1077
85.755
85.3718
84.9525
84.4979
84.001
83.4521
82.8484
82.151
81.3765
80.4549
79.3815
78.0641
76.3057
74.3946
70.673
68.1494
58.1303
51.7984
28.0639
72.941
72.334
71.4748
70.4091
69.4151
68.6495
68.1271
67.8039
67.6597
67.6834
67.8356
68.0519
68.2416
68.3257
68.2422
67.9803
67.5004
66.8877
66.2598
65.6783
65.239
64.9585
64.8287
64.8822
65.1038
65.4653
65.9452
66.5035
67.1016
67.744
68.4309
69.1363
69.8517
70.5751
71.2866
71.9451
72.5604
73.1662
73.7518
74.2864
74.76
75.1709
75.5146
75.7964
76.0151
76.1719
76.3416
76.586
76.8357
77.0224
77.1479
77.2116
77.1945
77.0889
76.9028
76.6475
76.3428
76.0117
75.6854
75.38
75.1235
74.9096
74.7284
74.5934
74.5027
74.4641
74.475
74.5455
74.6875
74.9055
75.1927
75.5421
75.9517
76.4181
76.9291
77.4713
78.0267
78.5876
79.1441
79.6838
80.2101
80.7119
81.1868
81.6363
82.054
82.4304
82.7619
83.0412
83.2691
83.4519
83.586
83.6749
83.7325
83.7463
83.7349
83.689
83.632
83.5506
83.4619
83.3563
83.2644
83.1767
83.1182
83.0786
83.0862
83.1224
83.2009
83.303
83.4516
83.6189
83.8257
84.0378
84.2772
84.5053
84.742
84.9498
85.1632
85.3468
85.5357
85.6949
85.8606
85.9974
86.1401
86.2552
86.3754
86.4693
86.5699
86.6465
86.7351
86.7955
86.8669
86.9128
86.97
87.0052
87.0502
87.0673
87.0889
87.0824
87.0815
87.0604
87.0585
87.0371
87.0524
87.0609
87.113
87.1792
87.2861
87.4012
87.5334
87.6576
87.7843
87.8848
87.9639
88.0037
88.0181
87.9947
87.9486
87.8735
87.7893
87.6915
87.5981
87.5061
87.4387
87.3786
87.3607
87.3535
87.3878
87.4274
87.4854
87.5277
87.5644
87.5695
87.5464
87.4757
87.3708
87.2185
87.0322
86.8015
86.5377
86.2339
85.896
85.5237
85.1136
84.6716
84.1822
83.656
83.0642
82.4144
81.668
80.8215
79.8552
78.5988
77.3081
75.0817
73.5356
68.6656
66.9226
55.4388
48.43
29.0813
73.3396
72.7752
71.914
70.8611
69.8918
69.1827
68.7439
68.5144
68.4403
68.4864
68.6161
68.7862
68.9332
68.9871
68.8979
68.6619
68.2515
67.7155
67.1598
66.6422
66.2435
65.9845
65.8517
65.8883
66.088
66.42
66.8688
67.3997
67.9741
68.5896
69.2486
69.9304
70.6222
71.3181
72.0062
72.6548
73.2545
73.8247
74.3682
74.861
75.2868
75.6474
75.942
76.1766
76.3539
76.4635
76.568
76.7494
76.9596
77.1283
77.2449
77.2989
77.2701
77.151
76.9429
76.6556
76.3091
75.9369
75.5666
75.2136
74.9149
74.6609
74.4464
74.2829
74.1635
74.0987
74.0898
74.1515
74.2966
74.526
74.8302
75.2004
75.6345
76.131
76.6758
77.2534
77.8461
78.4428
79.0376
79.6185
80.1868
80.7307
81.2472
81.7394
82.198
82.6109
82.9747
83.2807
83.5288
83.7234
83.8638
83.9576
84.0193
84.03
84.0168
83.9669
83.9107
83.8269
83.738
83.6286
83.5343
83.4365
83.368
83.3135
83.3088
83.3289
83.3963
83.4827
83.6214
83.7723
83.9671
84.1596
84.3849
84.5923
84.8161
85.0048
85.2081
85.3746
85.5564
85.701
85.863
85.9879
86.1312
86.237
86.3614
86.4491
86.5569
86.6288
86.726
86.7829
86.8651
86.9078
86.9775
87.0117
87.0718
87.0908
87.1311
87.1267
87.1407
87.1184
87.1286
87.1027
87.1298
87.1317
87.1968
87.2588
87.379
87.4944
87.642
87.77
87.9134
88.0187
88.1135
88.1573
88.1845
88.1615
88.1231
88.0445
87.9629
87.8576
87.762
87.6555
87.5821
87.5017
87.4704
87.4379
87.4525
87.4654
87.5023
87.5192
87.5351
87.5154
87.4742
87.3833
87.2646
87.0951
86.8949
86.6454
86.365
86.0415
85.6855
85.2886
84.858
84.385
83.8716
83.3019
82.685
81.9582
81.2057
80.2184
79.308
77.711
76.7091
73.6996
72.8079
66.6176
65.4629
53.2389
44.9075
29.2893
73.8538
73.2782
72.3178
71.2435
70.3087
69.6637
69.3135
69.1762
69.1707
69.2419
69.3597
69.4992
69.6121
69.6468
69.5626
69.3538
69.0105
68.5502
68.0616
67.6047
67.2505
67.0232
66.9015
66.9204
67.0908
67.3868
67.7984
68.2968
68.8423
69.427
70.0548
70.7081
71.3743
72.044
72.7044
73.3319
73.9122
74.4505
74.9558
75.4122
75.7983
76.1156
76.3666
76.5567
76.7004
76.7722
76.8196
76.9424
77.1146
77.2653
77.3771
77.428
77.3921
77.2597
77.031
76.715
76.332
75.9232
75.5101
75.1101
74.7707
74.4818
74.2404
74.0511
73.9023
73.81
73.7796
73.8338
73.9821
74.2229
74.544
74.9363
75.3959
75.9217
76.4982
77.1101
77.7376
78.3682
78.999
79.6184
80.2255
80.8085
81.3641
81.8949
82.3904
82.8367
83.2306
83.5614
83.829
84.0337
84.1798
84.2763
84.3401
84.3455
84.3294
84.2735
84.2162
84.1278
84.0385
83.9256
83.8294
83.723
83.6466
83.5789
83.5633
83.567
83.6235
83.695
83.8234
83.9577
84.1399
84.3126
84.5236
84.7096
84.9202
85.0899
85.2835
85.4326
85.6072
85.7357
85.8937
86.0045
86.148
86.2426
86.3719
86.4518
86.5688
86.634
86.7412
86.7909
86.8856
86.9221
87.0063
87.0346
87.1107
87.1259
87.1872
87.1798
87.2141
87.1852
87.2124
87.1763
87.2206
87.2082
87.2929
87.3406
87.4814
87.5867
87.7585
87.879
88.0487
88.1478
88.2687
88.3051
88.3556
88.323
88.3032
88.2117
88.1426
88.0197
87.9332
87.8029
87.7315
87.6248
87.5857
87.5235
87.5229
87.5056
87.5235
87.511
87.5083
87.4597
87.403
87.2877
87.1579
86.9664
86.7595
86.485
86.1987
85.8421
85.4809
85.0431
84.6105
84.0845
83.5757
82.9257
82.3311
81.454
80.8046
79.5019
78.8434
76.6296
76.1621
72.1628
72.0007
64.6524
63.5535
51.4289
41.2329
28.9119
74.4761
73.8555
72.6968
71.5367
70.6355
70.0773
69.8245
69.7761
69.8354
69.9401
70.0617
70.1844
70.2738
70.2985
70.2282
70.0492
69.7627
69.3762
68.9535
68.555
68.2435
68.0503
67.9513
67.9637
68.1072
68.3662
68.7361
69.1954
69.707
70.2588
70.8526
71.4738
72.1081
72.7467
73.374
73.9724
74.5269
75.0372
75.5073
75.9321
76.2868
76.5672
76.7792
76.9315
77.0493
77.0937
77.0925
77.1647
77.3012
77.4329
77.5407
77.5916
77.5512
77.4076
77.1618
76.8221
76.4092
75.9675
75.5102
75.0645
74.689
74.3725
74.1118
73.898
73.7197
73.5991
73.5484
73.5968
73.7489
74.0005
74.3378
74.752
75.2372
75.7917
76.3986
77.0432
77.7042
78.3665
79.0305
79.6852
80.3269
80.9457
81.5371
82.1017
82.6292
83.1052
83.5261
83.879
84.1645
84.3785
84.5303
84.6273
84.6909
84.6898
84.6693
84.6062
84.5454
84.4502
84.359
84.2427
84.1447
84.0316
83.9488
83.8705
83.8456
83.8336
83.8797
83.9366
84.0547
84.1723
84.3419
84.494
84.6909
84.8549
85.0527
85.2033
85.3879
85.5191
85.6865
85.7984
85.9521
86.0482
86.1911
86.2737
86.4071
86.4779
86.6043
86.6619
86.7791
86.8195
86.9258
86.9537
87.0532
87.0722
87.1646
87.1715
87.2538
87.2388
87.2954
87.2564
87.3045
87.2538
87.3192
87.2863
87.3964
87.4207
87.5895
87.674
87.8786
87.9807
88.1861
88.2664
88.4244
88.4408
88.5274
88.4714
88.4843
88.366
88.3254
88.1691
88.1078
87.94
87.8863
87.7387
87.7073
87.6029
87.601
87.5376
87.5527
87.4923
87.4881
87.3929
87.3397
87.1802
87.0584
86.8224
86.6287
86.3077
86.0404
85.6249
85.288
84.7704
84.3815
83.7348
83.3101
82.4661
82.0247
80.833
80.4746
78.6326
78.4177
75.4133
75.5468
70.5617
70.9588
62.8757
60.6958
49.8113
38.1668
28.6029
75.257
74.5482
73.064
71.7727
70.9011
70.4345
70.2768
70.3094
70.4315
70.5784
70.7159
70.8331
70.9105
70.9322
70.8776
70.7307
70.494
70.1762
69.8218
69.4819
69.2089
69.0446
68.9719
68.9899
69.117
69.3452
69.6713
70.0858
70.561
71.0793
71.6388
72.2265
72.8235
73.423
74.0119
74.5737
75.0968
75.5793
76.0178
76.4116
76.7414
76.9924
77.1695
77.2898
77.3874
77.4148
77.376
77.4082
77.5131
77.6249
77.7279
77.7797
77.7394
77.5912
77.3345
76.9764
76.5379
76.0633
75.5596
75.0727
74.6685
74.3319
74.0574
73.8218
73.6149
73.4673
73.3994
73.4444
73.6004
73.861
74.2127
74.6486
75.1595
75.7417
76.3775
77.053
77.7465
78.4393
79.1335
79.8195
80.4915
81.1418
81.7649
82.3582
82.912
83.4133
83.8582
84.2297
84.5308
84.753
84.9109
85.0053
85.0668
85.0587
85.0329
84.9624
84.8953
84.7918
84.6962
84.576
84.4751
84.356
84.2697
84.1823
84.1509
84.1237
84.1609
84.203
84.3117
84.4122
84.5695
84.701
84.8841
85.026
85.211
85.343
85.5185
85.6324
85.793
85.888
86.0371
86.1183
86.2603
86.3304
86.4673
86.5283
86.6621
86.7114
86.8377
86.8676
86.9839
87.0012
87.1147
87.123
87.2311
87.2271
87.3286
87.3028
87.3811
87.3295
87.3993
87.3328
87.4204
87.3641
87.5007
87.4973
87.6959
87.7539
87.9945
88.0709
88.3182
88.3698
88.5733
88.557
88.6919
88.5984
88.6592
88.4963
88.5041
88.2946
88.2805
88.0535
88.041
87.8311
87.8316
87.6592
87.6854
87.5454
87.5892
87.4491
87.478
87.3039
87.2891
87.0476
86.9715
86.6477
86.5097
86.0888
85.8945
85.3569
85.1173
84.4344
84.1842
83.305
83.076
81.9022
81.7268
80.0837
80.0737
77.6066
77.8164
74.0737
74.7344
69.0485
69.2823
61.4309
56.7844
48.1923
36.5661
29.0556
75.9035
75.1506
73.4541
72.0535
71.1724
70.7601
70.6778
70.7843
70.9686
71.1599
71.3188
71.4396
71.5148
71.5369
71.4967
71.3817
71.1904
70.9327
70.6462
70.3662
70.1335
69.9945
69.9459
69.9763
70.098
70.305
70.5931
70.9623
71.397
71.8795
72.4042
72.9573
73.5159
74.0732
74.6181
75.1365
75.6211
76.0705
76.4803
76.8438
77.1509
77.3803
77.5283
77.6217
77.7006
77.7214
77.6579
77.6607
77.7411
77.8355
77.9323
77.9874
77.9525
77.8068
77.5478
77.1766
76.7133
76.203
75.6523
75.1323
74.7084
74.3584
74.0735
73.8177
73.5863
73.4159
73.3353
73.3793
73.5377
73.8057
74.1696
74.6264
75.1622
75.771
76.434
77.1386
77.8634
78.5859
79.3079
80.0207
80.7182
81.3955
82.0454
82.662
83.2366
83.7588
84.2233
84.6093
84.9233
85.1515
85.3148
85.4054
85.4627
85.4475
85.416
85.338
85.2621
85.149
85.0468
84.92
84.8157
84.6895
84.6021
84.5072
84.4723
84.4323
84.4618
84.49
84.5895
84.6739
84.8185
84.9305
85.0996
85.2203
85.3926
85.5063
85.6716
85.7689
85.9224
86.0017
86.146
86.2129
86.3533
86.4111
86.5504
86.601
86.7399
86.78
86.9128
86.9321
87.0566
87.0625
87.1874
87.1844
87.3071
87.2919
87.4091
87.3709
87.4686
87.4035
87.4929
87.4113
87.5197
87.4401
87.6012
87.5683
87.7959
87.8237
88.0996
88.1466
88.4347
88.4523
88.7034
88.647
88.8353
88.6945
88.8137
88.5914
88.6623
88.382
88.4327
88.127
88.1759
87.8786
87.9415
87.6676
87.7607
87.5073
87.6219
87.3628
87.4714
87.1724
87.244
86.8701
86.8902
86.4251
86.3949
85.8154
85.7434
85.0222
84.9329
84.0208
83.9581
82.7804
82.7844
81.2281
81.3324
79.2116
79.5168
76.4968
77.0634
72.8525
73.4808
67.85
66.4894
59.9593
53.3193
46.8936
36.3812
30.1752
76.4271
75.6865
73.8728
72.3755
71.4539
71.0636
71.0396
71.2121
71.4526
71.684
71.868
72.0003
72.0805
72.1066
72.0783
71.9903
71.8393
71.6353
71.4101
71.1901
71.002
70.8895
70.8624
70.9076
71.0308
71.2269
71.4884
71.8186
72.2128
72.6576
73.1453
73.6604
74.1798
74.6928
75.1902
75.662
76.1039
76.5141
76.8919
77.2253
77.5095
77.723
77.8495
77.9194
77.9828
78.0056
77.9308
77.9147
77.977
78.0586
78.1507
78.2127
78.1893
78.051
77.7953
77.4171
76.9298
76.3792
75.7838
75.2417
74.8081
74.4509
74.1575
73.8834
73.6307
73.444
73.3568
73.4013
73.562
73.8355
74.2098
74.6863
75.2458
75.8791
76.567
77.2983
78.0528
78.8043
79.5516
80.2867
81.005
81.7041
82.3757
83.0098
83.6002
84.1386
84.6179
85.0136
85.3378
85.5689
85.736
85.8213
85.8733
85.851
85.8128
85.7272
85.6414
85.5168
85.4077
85.2719
85.1634
85.03
84.9408
84.8408
84.8029
84.7544
84.7768
84.7933
84.8835
84.9532
85.0856
85.1796
85.3346
85.4353
85.5951
85.6908
85.845
85.9261
86.0723
86.1369
86.2757
86.3287
86.467
86.5131
86.6532
86.6927
86.8347
86.8641
87.001
87.009
87.1396
87.1339
87.2683
87.2537
87.3886
87.3629
87.4927
87.4417
87.5552
87.4771
87.582
87.4873
87.6128
87.5131
87.6929
87.6333
87.8847
87.8835
88.1873
88.2072
88.5283
88.5141
88.8032
88.7106
88.9422
88.7588
88.927
88.6495
88.7763
88.4275
88.5399
88.1525
88.2685
87.87
88.0103
87.6151
87.7976
87.4049
87.6218
87.2092
87.4341
86.968
87.172
86.6214
86.7877
86.1319
86.2564
85.4702
85.5567
84.6019
84.6793
83.5027
83.6145
82.1275
82.3334
80.4146
80.7689
78.2711
78.759
75.5257
75.9807
72.0412
71.4611
66.7595
63.2772
58.1579
51.26
46.4951
37.3368
31.5606
76.8527
76.1516
74.2845
72.7197
71.757
71.3672
71.3792
71.5991
71.8846
72.154
72.3677
72.5185
72.6081
72.6399
72.6212
72.5543
72.4401
72.2839
72.1113
71.9456
71.8037
71.7206
71.7131
71.7737
71.9028
72.0949
72.3413
72.6448
73.0044
73.4127
73.8613
74.3342
74.8109
75.2777
75.7256
76.1497
76.5474
76.9177
77.2576
77.558
77.8178
78.0187
78.1296
78.1776
78.2302
78.2609
78.1921
78.1661
78.2175
78.2909
78.3821
78.4547
78.4498
78.3247
78.0736
77.6889
77.1783
76.586
75.9528
75.4003
74.9669
74.6069
74.3048
74.016
73.7466
73.5493
73.4617
73.5095
73.6729
73.9505
74.3338
74.8284
75.4087
76.0648
76.775
77.5304
78.3125
79.091
79.8607
80.614
81.3485
82.0638
82.7516
83.398
83.9997
84.5492
85.0384
85.4387
85.7702
85.9992
86.1677
86.2473
86.2913
86.262
86.2169
86.1221
86.0278
85.8912
85.7755
85.6306
85.5174
85.3766
85.2837
85.1788
85.1381
85.083
85.1006
85.1073
85.1895
85.2458
85.3666
85.4449
85.586
85.6688
85.8161
85.8947
86.0364
86.102
86.2393
86.2902
86.4233
86.4634
86.5976
86.6328
86.7722
86.8008
86.9428
86.9609
87.0984
87.0955
87.2287
87.2132
87.3542
87.3303
87.4729
87.4385
87.5763
87.5145
87.6386
87.5493
87.6644
87.5585
87.6946
87.5809
87.7709
87.6903
87.9568
87.9316
88.2523
88.2514
88.5912
88.5544
88.8653
88.7473
89.0044
88.7908
88.9896
88.6716
88.8329
88.4336
88.5814
88.1328
88.2871
87.8096
87.9984
87.5021
87.7483
87.2282
87.5298
86.9638
87.2999
86.6538
87.0047
86.2432
86.5934
85.6939
86.0285
84.9726
85.2837
84.0438
84.3307
82.876
83.1438
81.4372
81.7425
79.7046
80.0424
77.5727
77.7422
74.8697
74.3841
71.1832
68.9624
65.2208
60.8008
56.7346
50.4281
46.9525
38.8713
32.9183
77.2038
76.5515
74.6782
73.0769
72.0768
71.6685
71.6935
71.9477
72.2734
72.5806
72.8255
72.9966
73.0978
73.1373
73.1287
73.0797
72.997
72.8833
72.7554
72.6363
72.5379
72.4856
72.4972
72.5718
72.7091
72.9028
73.1418
73.4275
73.7604
74.1348
74.5442
74.9731
75.4051
75.8254
76.2247
76.6018
76.9546
77.2823
77.5822
77.8469
78.0791
78.2655
78.3673
78.3966
78.4395
78.4834
78.4365
78.4105
78.4621
78.5324
78.6277
78.7161
78.734
78.6276
78.3832
77.9879
77.4502
76.8177
76.1565
75.6051
75.1839
74.8243
74.5133
74.2126
73.9312
73.7298
73.6456
73.6993
73.8668
74.1493
74.5416
75.0522
75.6499
76.3265
77.0565
77.8328
78.6396
79.4422
80.2304
80.9979
81.7441
82.4698
83.1676
83.8223
84.4313
84.9864
85.481
85.8806
86.2168
86.4377
86.6031
86.6762
86.7099
86.673
86.6209
86.5155
86.4149
86.2679
86.1483
85.9936
85.8756
85.7266
85.6298
85.5184
85.4753
85.4142
85.4286
85.4277
85.5036
85.5478
85.6588
85.7225
85.8508
85.9178
86.0533
86.1153
86.2449
86.2945
86.422
86.4594
86.5868
86.614
86.743
86.767
86.9033
86.9214
87.0615
87.0676
87.2027
87.1891
87.3226
87.2988
87.4437
87.4129
87.5606
87.5181
87.6592
87.5887
87.7187
87.62
87.7399
87.6235
87.7631
87.6404
87.834
87.7362
88.0098
87.9643
88.292
88.2757
88.621
88.5684
88.8861
88.7519
89.0189
88.7866
88.9979
88.6552
88.8278
88.4012
88.5556
88.074
88.2329
87.7106
87.9071
87.3523
87.6068
87.0146
87.3275
86.6758
87.0319
86.2868
86.6668
85.7966
86.1889
85.1734
85.5702
84.3819
84.7687
83.395
83.7508
82.1795
82.4746
80.7075
80.946
78.9591
79.046
76.786
76.4015
73.9103
72.5015
69.7093
66.8461
63.6065
59.3337
56.3453
50.6604
47.9298
40.4656
34.1213
77.5042
76.9013
75.0452
73.4251
72.3964
71.9668
71.996
72.2758
72.6349
72.9745
73.2468
73.4381
73.5534
73.6031
73.6058
73.5728
73.5153
73.4371
73.3481
73.2682
73.2094
73.1886
73.2207
73.3076
73.452
73.6491
73.8854
74.1595
74.4705
74.8147
75.1854
75.5712
75.9591
76.3338
76.6873
77.0191
77.3271
77.6109
77.8693
78.0971
78.2987
78.4643
78.561
78.5801
78.6137
78.6714
78.6544
78.6439
78.7067
78.7817
78.8863
78.9963
79.04
78.9531
78.7185
78.3123
77.7419
77.072
76.3925
75.8535
75.4541
75.0976
74.7818
74.4721
74.1829
73.9817
73.9033
73.9653
74.1397
74.4282
74.8298
75.3544
75.9669
76.6613
77.4089
78.2031
79.0307
79.853
80.6556
81.4333
82.187
82.9173
83.6191
84.2775
84.8906
85.4455
85.9426
86.3349
86.6735
86.8789
87.0368
87.1011
87.1214
87.0756
87.0185
86.8994
86.7968
86.6406
86.5197
86.354
86.2348
86.0765
85.9782
85.8586
85.8141
85.745
85.7582
85.7499
85.8215
85.855
85.9586
86.0084
86.1261
86.1798
86.3046
86.3501
86.4687
86.5013
86.6189
86.6423
86.7638
86.7778
86.9015
86.9128
87.0444
87.0511
87.1872
87.1816
87.3131
87.2893
87.4217
87.3907
87.5368
87.5005
87.6521
87.6022
87.7436
87.6649
87.7955
87.6883
87.809
87.6827
87.8191
87.6901
87.8825
87.7716
88.0448
87.9815
88.309
88.2785
88.619
88.5557
88.8684
88.7239
88.9882
88.7451
88.9546
88.5994
88.7645
88.3275
88.4677
87.9728
88.1132
87.5745
87.7473
87.1757
87.3953
86.7882
87.0554
86.3919
86.6939
85.9396
86.2601
85.3855
85.7142
84.6945
85.019
83.8247
84.1253
82.7466
82.9978
81.4345
81.6017
79.8477
79.9025
77.9088
77.7181
75.4484
74.7242
72.2125
70.488
67.8258
65.1561
62.436
58.7628
56.7725
51.5951
48.974
41.8544
35.2158
77.7695
77.2096
75.3814
73.7603
72.7193
72.2729
72.2978
72.5898
72.9717
73.3369
73.6351
73.8488
73.9816
74.0438
74.0575
74.0385
74.0001
73.951
73.8962
73.8512
73.8268
73.836
73.8895
73.9883
74.1383
74.3368
74.5712
74.837
75.1302
75.4474
75.7819
76.1256
76.4694
76.8001
77.1108
77.3998
77.6652
77.9052
78.1218
78.3124
78.4804
78.6211
78.7121
78.7306
78.7574
78.8248
78.8424
78.8605
78.9451
79.0364
79.1527
79.2893
79.3616
79.2925
79.0676
78.6513
78.0514
77.3495
76.6605
76.1458
75.7749
75.4239
75.1067
74.7924
74.4998
74.3013
74.2297
74.3017
74.486
74.7821
75.1937
75.7305
76.3559
77.0649
77.8286
78.6375
79.482
80.3187
81.1302
81.9146
82.6718
83.4013
84.1014
84.7582
85.3724
85.9207
86.4193
86.7968
87.1374
87.3177
87.4645