/*--------------------------------*- C++ -*----------------------------------*\
| =========                 |                                                 |
| \\      /  F ield         | OpenFOAM: The Open Source CFD Toolbox           |
|  \\    /   O peration     | Version:  2.4.0                                 |
|   \\  /    A nd           | Web:      www.OpenFOAM.org                      |
|    \\/     M anipulation  |                                                 |
\*---------------------------------------------------------------------------*/
FoamFile
{
    version     2.0;
    format      ascii;
    class       volScalarField;
    location    "0.191";
    object      k;
}
// * * * * * * * * * * * * * * * * * * * * * * * * * * * * * * * * * * * * * //

dimensions      [0 2 -2 0 0 0 0];

internalField   nonuniform List<scalar> 
4400
(
9.5359
8.48491
6.51723
5.2998
4.63588
4.22784
4.03009
3.7988
3.88666
3.33378
4.41324
6.75491
6.73697
6.30317
5.70319
5.22385
4.98464
4.66846
4.7096
4.34095
1.17959
3.15237
4.21496
4.5353
4.47789
4.26955
4.14611
3.91188
3.92263
3.72954
0.165353
0.942053
1.70423
2.31237
2.6841
2.78469
2.85931
2.83588
2.84162
2.78917
0.0174447
0.157109
0.402352
0.742338
1.10079
1.31552
1.51128
1.6503
1.70409
1.76411
0.00148759
0.0175078
0.0515692
0.121461
0.270006
0.368745
0.524264
0.638724
0.744039
0.850567
0.000139808
0.00157151
0.00432919
0.0112753
0.0329649
0.0525453
0.0927261
0.126558
0.206162
0.257101
4.04513e-05
0.000264632
0.000420488
0.000813247
0.00224927
0.00394848
0.00680015
0.0116776
0.0278783
0.0365366
3.35365e-05
0.000144947
0.000180048
0.00021885
0.000330009
0.000391355
0.000477039
0.000690012
0.00154773
0.00194883
3.34027e-05
0.000136868
0.000146724
0.000169284
0.000219037
0.000235265
0.000235736
0.000235339
0.000242705
0.000259238
3.31467e-05
0.00012742
0.000168804
0.000195266
0.000205413
0.000210719
0.000216088
0.000233526
0.000273167
0.000488662
3.34032e-05
0.000140522
0.000191584
0.000203992
0.000238568
0.000371477
0.000557251
0.00098861
0.00180975
0.00538533
3.99197e-05
0.00023671
0.000415853
0.000799433
0.00175799
0.00492782
0.0083559
0.0166253
0.026938
0.0653408
0.000137132
0.00148326
0.0045892
0.0114197
0.0266371
0.0656956
0.0945261
0.158395
0.207571
0.36861
0.00147016
0.016757
0.05652
0.12147
0.246605
0.413695
0.518349
0.685098
0.786953
1.05258
0.017215
0.149172
0.4232
0.727983
1.09959
1.34734
1.53083
1.68189
1.77667
1.98733
0.163208
0.935
1.72152
2.29833
2.69646
2.80021
2.87976
2.87071
2.88504
2.93781
1.16666
3.15864
4.22549
4.52659
4.48647
4.26834
4.15387
3.93006
3.87691
3.77034
4.40224
6.76668
6.73956
6.2898
5.72264
5.18556
4.97519
4.61662
4.50961
4.20174
9.52575
8.49577
6.51161
5.28932
4.6444
4.1771
3.99202
3.67601
3.54682
3.10399
1.98369
1.64987
1.31605
1.3574
1.23048
1.25851
1.14689
0.869528
0.774363
0.69883
0.481447
0.394766
0.420494
0.432866
0.450659
0.478085
0.520952
0.559481
0.55386
0.546265
0.522178
0.442315
0.316767
0.175499
0.0849087
0.0546541
0.051283
0.0559748
0.0835648
0.243304
0.447622
0.448538
0.387953
0.323459
0.303592
0.300207
0.283799
0.228314
0.14163
0.0932651
0.0957471
0.156224
0.332182
0.628331
0.847088
0.878017
0.348935
0.148796
0.126206
0.138526
0.172817
0.192819
0.187468
0.147707
0.121353
0.120456
0.136119
0.143808
0.157057
0.217401
0.311535
0.336279
0.330275
0.310345
0.256708
0.20653
0.136904
0.132151
0.125406
0.142418
0.182462
0.184994
0.167151
0.157397
0.142962
0.129046
0.115766
0.10039
0.0993939
0.0951419
0.0829615
0.0644107
0.0575026
0.0564524
0.0601389
0.0851455
0.0913132
0.110013
0.186376
0.214682
0.215917
0.21075
0.21062
0.203567
0.19058
0.182984
0.183892
0.200727
0.290591
0.895498
3.12508
2.55947
1.90401
1.78334
1.51773
1.45105
1.38191
1.23185
1.08402
1.06642
0.972126
0.84319
0.827394
0.791816
0.745286
0.688324
0.654033
0.617248
0.558044
0.508182
0.43798
0.267396
0.131463
0.071833
0.0393794
0.0331856
0.0358344
0.0406915
0.0525978
0.0999383
0.275887
0.392931
0.384584
0.350393
0.329857
0.31446
0.27053
0.185033
0.111412
0.0775748
0.0841524
0.153037
0.335473
0.609511
0.816901
0.987276
0.432673
0.169298
0.119536
0.136256
0.161152
0.179965
0.183759
0.160385
0.125404
0.121352
0.132689
0.14248
0.150597
0.186592
0.276198
0.309446
0.305982
0.295246
0.261225
0.215732
0.151047
0.11746
0.115726
0.118299
0.143179
0.173098
0.16287
0.155884
0.139515
0.131287
0.11802
0.100699
0.0953898
0.0876185
0.0720032
0.0599015
0.0553115
0.0556897
0.0656376
0.0877811
0.0931368
0.128165
0.213533
0.228717
0.227737
0.213209
0.206416
0.189049
0.182962
0.179343
0.184115
0.193176
0.282981
0.709212
2.9405
2.52705
1.99101
1.80017
1.59357
1.43393
1.36738
1.31307
1.1296
1.078
1.03481
0.932386
0.850218
0.80894
0.750334
0.664919
0.618416
0.533331
0.411496
0.316649
0.18333
0.0898482
0.0471198
0.0298785
0.0228139
0.0254256
0.0316407
0.035768
0.0420453
0.0577814
0.115153
0.273252
0.340394
0.334045
0.319008
0.291072
0.211257
0.137161
0.0830162
0.0635184
0.0755391
0.153621
0.336868
0.568036
0.791367
1.02602
0.562467
0.192013
0.111998
0.122473
0.152129
0.162382
0.171222
0.163962
0.132721
0.122884
0.1312
0.143839
0.147849
0.168149
0.239979
0.283691
0.282668
0.273713
0.252495
0.210286
0.16129
0.112737
0.101076
0.100587
0.105178
0.144812
0.143879
0.141728
0.130893
0.125041
0.115068
0.0942061
0.0861847
0.0746102
0.0611558
0.0548432
0.0532553
0.0555477
0.0805138
0.0964485
0.100046
0.147063
0.231503
0.242074
0.235976
0.210662
0.199485
0.176772
0.167297
0.168739
0.184239
0.189759
0.262274
0.544136
2.3807
2.02385
1.72353
1.46395
1.33198
1.21918
1.12706
1.11023
1.0541
0.938036
0.893795
0.816889
0.698022
0.642128
0.55013
0.440894
0.370859
0.271918
0.164621
0.0972133
0.0557549
0.0307464
0.0204103
0.017812
0.0186744
0.0249727
0.0329644
0.0372138
0.0405642
0.0444078
0.0615981
0.131655
0.229791
0.250153
0.241261
0.20213
0.136063
0.0916497
0.0620577
0.0545304
0.0711994
0.155444
0.332768
0.514411
0.751035
1.00996
0.746444
0.206038
0.111348
0.112813
0.145411
0.159894
0.162958
0.15991
0.138266
0.126786
0.131607
0.144429
0.147856
0.159688
0.213006
0.258524
0.2606
0.253874
0.236892
0.199528
0.160391
0.114843
0.0888387
0.0864305
0.0862573
0.113039
0.115182
0.11462
0.110447
0.10889
0.10209
0.0790762
0.0703279
0.0622286
0.0535204
0.0510203
0.0508314
0.0566922
0.0961369
0.11243
0.114705
0.171709
0.249816
0.253169
0.238666
0.203418
0.196183
0.177045
0.164112
0.163739
0.183504
0.187865
0.242438
0.422664
1.58866
1.36228
1.21552
1.02466
0.89629
0.842835
0.761037
0.757209
0.750136
0.701826
0.665138
0.614864
0.500982
0.439673
0.354059
0.246686
0.15911
0.0951797
0.0542484
0.0303864
0.0190974
0.0143265
0.0144916
0.0159292
0.0209048
0.0375367
0.052516
0.0541076
0.0508088
0.0471099
0.0490654
0.065491
0.123239
0.139243
0.134898
0.116571
0.0915647
0.0660382
0.0508452
0.0497201
0.0702209
0.157482
0.325475
0.466796
0.680905
0.953368
0.918695
0.235974
0.113167
0.111958
0.139875
0.163835
0.165023
0.161491
0.14357
0.130439
0.132687
0.14624
0.149127
0.155325
0.191833
0.236773
0.242002
0.234584
0.22036
0.192347
0.156648
0.117766
0.0862377
0.0755062
0.0745565
0.0882831
0.0934063
0.0930469
0.0909809
0.0899706
0.0831682
0.0638334
0.0578417
0.0528405
0.047941
0.0472684
0.0486371
0.0604027
0.11422
0.126896
0.130042
0.201735
0.264449
0.26014
0.226781
0.186532
0.178237
0.169224
0.156945
0.157405
0.181783
0.184097
0.22094
0.342036
0.77866
0.648793
0.582745
0.481086
0.414407
0.406728
0.372239
0.382337
0.393576
0.377161
0.368972
0.346524
0.282917
0.214654
0.140906
0.0818756
0.0477423
0.0275565
0.0170026
0.0118821
0.0109896
0.0115828
0.0143459
0.0224762
0.0429678
0.0833037
0.0930968
0.0900086
0.0781906
0.0591564
0.0498811
0.0509353
0.0626193
0.074942
0.075824
0.0728881
0.064531
0.0512788
0.0459969
0.0476359
0.0740482
0.164045
0.315779
0.431665
0.581198
0.86846
1.05908
0.293267
0.119655
0.112221
0.135248
0.165688
0.173011
0.168798
0.151257
0.138064
0.136474
0.146204
0.151592
0.155503
0.180523
0.22008
0.229941
0.219746
0.206669
0.182513
0.151992
0.118178
0.0875955
0.0701822
0.0672839
0.0715297
0.0766366
0.0766838
0.075676
0.0735691
0.0637296
0.0502246
0.0465604
0.0453187
0.0433346
0.043481
0.047506
0.070605
0.134271
0.140087
0.144968
0.233444
0.282132
0.264902
0.192632
0.156335
0.150917
0.149582
0.146747
0.148817
0.182519
0.181456
0.207577
0.303192
0.232076
0.182382
0.161441
0.131472
0.11507
0.11782
0.11402
0.121113
0.138391
0.133156
0.130324
0.121093
0.0915458
0.0599584
0.0366037
0.0209579
0.0129172
0.00933977
0.00888897
0.00917221
0.0105992
0.0152647
0.0289903
0.056854
0.119754
0.162983
0.162361
0.150817
0.123213
0.0870932
0.0590483
0.0494216
0.0490057
0.0522588
0.0560018
0.0548061
0.0504556
0.0454538
0.0446508
0.0490429
0.0832952
0.172804
0.297415
0.400667
0.482373
0.756334
1.20098
0.369784
0.130364
0.114953
0.132175
0.162873
0.176605
0.174777
0.159699
0.144871
0.142106
0.147274
0.157993
0.157638
0.177795
0.206826
0.225352
0.218727
0.196283
0.178669
0.152552
0.118549
0.0856894
0.0705803
0.0634784
0.0636436
0.064967
0.065056
0.0641692
0.061259
0.0501813
0.044501
0.0414986
0.0400946
0.0398071
0.0412413
0.0495299
0.0960393
0.152953
0.151399
0.161792
0.28307
0.3116
0.263097
0.168445
0.128043
0.129327
0.136581
0.14644
0.147625
0.182547
0.179942
0.197295
0.270393
0.0329202
0.026359
0.0231003
0.0193069
0.0180859
0.0191423
0.0191953
0.0207722
0.027135
0.0270077
0.0260358
0.0233995
0.0161986
0.0102182
0.00704935
0.00611949
0.00626479
0.00708852
0.00895663
0.0130661
0.0217052
0.0394763
0.0816608
0.160366
0.254719
0.283507
0.273756
0.239669
0.184999
0.130507
0.0816761
0.0558326
0.0502265
0.0516897
0.0506653
0.0465221
0.0455506
0.0456243
0.0481122
0.0581442
0.107198
0.183579
0.279224
0.366648
0.400747
0.619247
1.24899
0.511162
0.148648
0.121078
0.128917
0.157596
0.180582
0.181494
0.170787
0.156281
0.149836
0.150768
0.164336
0.162178
0.181009
0.196067
0.223153
0.221313
0.197402
0.181105
0.151142
0.117224
0.083
0.0707695
0.0613131
0.0585156
0.0577186
0.0563547
0.054644
0.0495866
0.0442256
0.0430638
0.0403881
0.0390734
0.0391034
0.0414255
0.0578192
0.129045
0.174638
0.168813
0.191987
0.335077
0.337027
0.248634
0.165827
0.115114
0.109081
0.120145
0.140576
0.143804
0.184852
0.177752
0.188094
0.250134
0.00185671
0.0016481
0.00141879
0.00135073
0.00133903
0.00141977
0.0014948
0.00165314
0.00225456
0.00236536
0.0022686
0.00218169
0.00227762
0.00257065
0.00358138
0.00507331
0.00802224
0.0154426
0.024186
0.0378622
0.0616623
0.108154
0.216445
0.352555
0.443663
0.455639
0.436522
0.380605
0.280764
0.200207
0.127809
0.0767471
0.062313
0.0555517
0.0493247
0.0485428
0.0522144
0.0569663
0.0632054
0.0775025
0.135732
0.195111
0.266403
0.33097
0.331927
0.488041
1.21782
0.736731
0.181627
0.126429
0.128716
0.156123
0.1808
0.185084
0.180325
0.171555
0.163053
0.157961
0.175164
0.170154
0.188897
0.196623
0.218842
0.223353
0.203198
0.184681
0.147282
0.114938
0.0825756
0.071884
0.0622674
0.0560835
0.054513
0.0514898
0.0489564
0.0450742
0.0437065
0.0434254
0.0408894
0.0395389
0.0399957
0.0456477
0.0810538
0.169968
0.194682
0.192057
0.230512
0.374285
0.353438
0.239161
0.169262
0.111196
0.0927778
0.104577
0.131747
0.139971
0.191481
0.178451
0.181296
0.218666
0.000282784
0.000328384
0.000394604
0.000411969
0.000448384
0.000435208
0.000430554
0.000453643
0.0005063
0.000618269
0.000844656
0.00134135
0.00242422
0.00471778
0.0109277
0.0171787
0.0297323
0.0510795
0.0711705
0.100066
0.152897
0.268315
0.468021
0.610876
0.661423
0.652117
0.612742
0.533634
0.418958
0.296368
0.184897
0.12218
0.0883218
0.0638121
0.0585272
0.0645043
0.0761078
0.0806867
0.0872075
0.105686
0.168246
0.203269
0.261148
0.295707
0.277822
0.38244
1.13666
1.00203
0.239939
0.132181
0.131482
0.155407
0.177147
0.191983
0.187443
0.182588
0.174683
0.1652
0.190909
0.183433
0.204969
0.202498
0.211161
0.218594
0.206018
0.183808
0.146686
0.11404
0.0886453
0.0749476
0.0654225
0.056604
0.0533733
0.050824
0.0493379
0.0493985
0.0495217
0.0484955
0.0433249
0.0425074
0.0444596
0.0582462
0.1255
0.215081
0.218434
0.214585
0.25271
0.418243
0.359428
0.22769
0.166917
0.109254
0.0849025
0.0924615
0.115336
0.132913
0.209741
0.182056
0.181877
0.199191
0.00084449
0.00147465
0.00211817
0.00226082
0.00245979
0.00236488
0.00233187
0.00243839
0.0026742
0.00328313
0.00483958
0.00877062
0.0140869
0.024399
0.0459912
0.0625652
0.0938658
0.12988
0.162088
0.217188
0.332985
0.583752
0.753467
0.79404
0.775735
0.731479
0.655486
0.587751
0.491082
0.357836
0.245279
0.169562
0.113239
0.086498
0.0903652
0.107526
0.108066
0.108675
0.117519
0.158361
0.19691
0.21234
0.251518
0.263699
0.235582
0.301406
1.02194
1.2764
0.341471
0.144693
0.136959
0.154
0.177873
0.193746
0.187903
0.184109
0.196053
0.172169
0.210156
0.200483
0.238318
0.21986
0.212935
0.209997
0.204126
0.186291
0.153316
0.116859
0.0960328
0.0728827
0.0627057
0.0560065
0.0522595
0.0519957
0.0529364
0.0553982
0.0554218
0.0535452
0.0482638
0.048311
0.0552469
0.0904294
0.201734
0.262232
0.254381
0.236156
0.276079
0.439761
0.320243
0.195942
0.137715
0.103572
0.0833692
0.0863772
0.10979
0.122389
0.302121
0.197909
0.193042
0.198671
0.00992401
0.0157057
0.0183624
0.018724
0.0194012
0.0189533
0.0187924
0.0194942
0.0213276
0.0246263
0.0313207
0.0488434
0.068242
0.0968927
0.141721
0.17564
0.219165
0.260139
0.314563
0.426696
0.699249
0.848306
0.876168
0.852394
0.796228
0.716542
0.62893
0.579216
0.536846
0.446632
0.315501
0.22501
0.16101
0.154621
0.163622
0.154023
0.142349
0.146888
0.186289
0.219053
0.217469
0.217099
0.233142
0.23738
0.203127
0.238741
0.876569
1.51658
0.509176
0.172977
0.145442
0.152613
0.178667
0.190136
0.193607
0.19202
0.226735
0.185383
0.224248
0.216149
0.25517
0.258162
0.232003
0.212377
0.209079
0.191586
0.160933
0.11656
0.0943361
0.0721382
0.0574644
0.0538231
0.0526328
0.0553251
0.0584894
0.0605321
0.0600331
0.0570731
0.0541442
0.0573039
0.081195
0.1786
0.293177
0.324006
0.289977
0.233535
0.301032
0.441049
0.302324
0.1699
0.126419
0.0918596
0.090513
0.0875834
0.144253
0.124441
0.587675
0.254166
0.226658
0.205275
0.0894991
0.104696
0.107127
0.106244
0.106727
0.104524
0.10364
0.105696
0.111924
0.120561
0.137958
0.183854
0.217008
0.269198
0.325884
0.35802
0.392864
0.448651
0.560994
0.784107
0.913393
0.929582
0.903933
0.822177
0.717103
0.63873
0.600499
0.584202
0.556419
0.478959
0.384557
0.315085
0.258076
0.243042
0.212421
0.187871
0.188833
0.223678
0.264687
0.261051
0.228304
0.214255
0.21884
0.21889
0.179032
0.195033
0.706457
1.58782
0.792415
0.237496
0.15803
0.152651
0.177151
0.188991
0.19905
0.205673
0.235735
0.202685
0.246703
0.231184
0.255864
0.327015
0.293885
0.228739
0.205848
0.18695
0.159739
0.111619
0.0910794
0.0739886
0.0567361
0.0524213
0.0522711
0.0570412
0.0616203
0.0626028
0.0629619
0.0609708
0.0621809
0.0780963
0.15778
0.333018
0.400403
0.385088
0.295914
0.223186
0.318515
0.40573
0.312081
0.186071
0.143752
0.0832503
0.0995786
0.0946757
0.199022
0.13245
0.440901
0.316148
0.290472
0.224542
0.384844
0.389273
0.384409
0.368394
0.3617
0.340685
0.33098
0.333359
0.340017
0.352128
0.386332
0.44063
0.476594
0.521041
0.546834
0.565336
0.606622
0.714849
0.852215
0.947473
0.968233
0.935785
0.820962
0.678465
0.621036
0.588574
0.571002
0.557385
0.530454
0.492003
0.448113
0.373247
0.332358
0.29472
0.253857
0.245794
0.2726
0.320188
0.319342
0.279293
0.21671
0.203132
0.205021
0.198144
0.162161
0.175895
0.537455
1.57589
1.22637
0.375097
0.178248
0.156391
0.172283
0.191748
0.208041
0.217155
0.240202
0.230679
0.298277
0.247829
0.265422
0.344115
0.3156
0.233681
0.181041
0.166916
0.139047
0.10637
0.0945351
0.0793288
0.0606692
0.0541008
0.0537367
0.0571185
0.0634513
0.0644535
0.0666749
0.0678101
0.0828574
0.147697
0.368327
0.500472
0.483528
0.411045
0.264712
0.211009
0.305355
0.396612
0.404566
0.2931
0.174835
0.0929865
0.106241
0.110319
0.258997
0.147365
0.185328
0.334375
0.334979
0.278324
1.01095
0.971171
0.891296
0.815726
0.774972
0.709679
0.672219
0.669552
0.670588
0.678079
0.707376
0.725866
0.732456
0.74051
0.750965
0.775269
0.846433
0.921666
0.964974
0.982098
0.939256
0.779735
0.6214
0.583877
0.574466
0.555516
0.535227
0.520572
0.517847
0.512783
0.482669
0.434285
0.387916
0.32437
0.305655
0.329566
0.380854
0.378559
0.32669
0.22869
0.184279
0.184016
0.186225
0.167949
0.156989
0.173883
0.413034
1.46477
1.72147
0.661908
0.238379
0.170425
0.167045
0.194424
0.21645
0.235296
0.248659
0.250329
0.331011
0.300502
0.294341
0.331255
0.306971
0.225177
0.166691
0.139231
0.114146
0.102367
0.0967798
0.0886565
0.0762528
0.0622112
0.0591728
0.060282
0.0673747
0.0739519
0.0792017
0.0945961
0.164895
0.397501
0.592189
0.583461
0.505095
0.349715
0.210467
0.188726
0.247732
0.422258
0.533687
0.386438
0.181894
0.104535
0.103964
0.128338
0.292695
0.176454
0.184565
0.370281
0.341987
0.305745
1.82427
1.64728
1.43449
1.2826
1.18066
1.07607
1.02122
1.00328
0.965868
0.946947
0.942661
0.92065
0.908087
0.912218
0.926803
0.955526
0.977593
0.987922
0.979319
0.90947
0.693899
0.538582
0.526467
0.53972
0.544495
0.538497
0.52867
0.518652
0.519071
0.511855
0.484727
0.452637
0.404984
0.383617
0.415219
0.448422
0.4273
0.324788
0.218408
0.16281
0.153109
0.162882
0.167512
0.157989
0.185356
0.228274
0.379353
1.23629
1.89795
1.23365
0.423198
0.212574
0.172708
0.183636
0.218645
0.255924
0.270554
0.26426
0.337091
0.367219
0.294698
0.307542
0.262467
0.195692
0.149343
0.116991
0.108783
0.107882
0.110835
0.109721
0.0962904
0.0757
0.0724845
0.0746832
0.0884678
0.100759
0.122014
0.199475
0.479493
0.677665
0.67708
0.588626
0.384566
0.26202
0.172094
0.170894
0.206986
0.416116
0.61251
0.400258
0.190467
0.119913
0.111334
0.166756
0.324711
0.179298
0.252238
0.479911
0.420657
0.339255
2.5825
2.1852
1.84222
1.62175
1.45575
1.32938
1.25404
1.1926
1.13114
1.10588
1.08455
1.05707
1.04544
1.04091
1.03055
1.01815
0.997321
0.944411
0.811279
0.566443
0.435512
0.428939
0.452353
0.478171
0.497137
0.513491
0.517474
0.516594
0.522245
0.514459
0.511892
0.49689
0.486085
0.491216
0.484582
0.430332
0.281192
0.169574
0.126733
0.1141
0.116935
0.143251
0.173317
0.179662
0.360151
0.441608
0.460741
0.885027
1.89139
2.01134
0.888858
0.382899
0.222055
0.184181
0.195995
0.241763
0.264121
0.267318
0.311169
0.371781
0.256131
0.250419
0.191651
0.152606
0.134418
0.119872
0.120487
0.134918
0.145223
0.138076
0.107326
0.0960024
0.0966223
0.106391
0.130244
0.177926
0.285583
0.642741
0.815138
0.787604
0.605294
0.336865
0.218379
0.172231
0.143903
0.146317
0.173901
0.377603
0.624219
0.490068
0.320945
0.174442
0.160417
0.256427
0.483226
0.176346
0.372695
0.941175
0.687728
0.449807
3.07317
2.40186
1.99574
1.73852
1.55286
1.43352
1.349
1.28316
1.23576
1.20407
1.1661
1.12891
1.09939
1.06703
1.01775
0.94269
0.814326
0.619956
0.427076
0.31732
0.312066
0.365514
0.415653
0.439923
0.452033
0.463158
0.481511
0.502458
0.512347
0.514938
0.512341
0.497087
0.486613
0.453096
0.351673
0.220724
0.134274
0.10612
0.101365
0.104592
0.115479
0.144711
0.205219
0.327948
0.937615
1.02914
0.737003
0.758192
1.48332
2.25739
1.85679
1.01113
0.515308
0.301407
0.20969
0.202798
0.242097
0.251483
0.240262
0.293018
0.19369
0.197265
0.168645
0.150622
0.143169
0.150376
0.160078
0.199396
0.206784
0.20326
0.187808
0.196005
0.220567
0.280275
0.378488
0.615709
0.989724
1.02001
0.938955
0.638856
0.338313
0.200744
0.161057
0.149915
0.144133
0.147196
0.166911
0.312757
0.61366
0.730855
0.588319
0.28112
0.242911
0.413012
0.804536
0.199399
0.551982
0.941752
0.677556
0.507525
3.06048
2.30639
1.92339
1.69471
1.55885
1.47405
1.40213
1.33652
1.2734
1.21178
1.14468
1.07317
0.991278
0.885579
0.74946
0.586619
0.408262
0.260154
0.191759
0.196447
0.255887
0.350256
0.456561
0.518167
0.526693
0.475741
0.418349
0.389153
0.407896
0.417615
0.409191
0.377706
0.337007
0.287144
0.23628
0.20864
0.204837
0.209389
0.220564
0.261525
0.309144
0.395161
0.639201
1.68409
1.95232
1.79076
1.21027
0.9559
1.04422
1.96661
2.27696
2.10969
1.80601
1.30753
0.685686
0.434376
0.348545
0.268478
0.261592
0.273813
0.197246
0.223185
0.202292
0.22588
0.250569
0.343759
0.40276
0.598842
0.640087
0.723576
0.739308
0.875652
0.963746
1.21239
1.35156
1.41568
1.36988
1.03761
0.621209
0.388646
0.243081
0.218266
0.229076
0.225971
0.234466
0.255139
0.30422
0.392299
0.577156
0.776429
0.900839
0.71383
0.708152
0.812324
1.83561
0.58502
0.874884
0.680533
0.68515
0.715223
1.9875
1.58901
1.41546
1.32095
1.25255
1.1806
1.09576
0.997396
0.893927
0.792271
0.687962
0.580976
0.471178
0.357944
0.250911
0.168078
0.118167
0.101956
0.110969
0.147551
0.223266
0.369363
0.62239
0.97121
1.29283
1.45196
1.41212
1.14897
0.826318
0.52151
0.332787
0.247502
0.222606
0.275213
0.37012
0.503877
0.636779
0.72506
0.883869
1.14461
1.50069
2.11334
3.0222
3.18213
2.02709
1.3373
1.48882
2.02728
2.37987
1.89577
1.32053
2.08914
3.26373
3.92074
3.99467
3.3234
2.49892
1.30519
1.02713
0.30264
0.250179
0.29381
0.39665
0.788072
1.07027
1.63632
1.82636
2.03349
1.90963
1.97775
1.90453
2.03505
1.93932
2.0081
1.75062
1.44507
0.904352
0.633448
0.387286
0.333226
0.285016
0.309931
0.390626
0.498872
0.625313
1.01462
1.31107
1.33659
1.05497
0.75757
0.912633
1.3339
2.0086
1.68436
4.51922
2.01873
1.4517
0.812485
1.65805
2.87642
0.0278705
0.0293321
0.0664174
0.248042
0.198064
0.0873734
0.0884004
0.0988052
0.136263
0.252551
0.260893
0.299823
0.203037
0.466902
1.33792
1.57814
1.56972
1.43537
1.45298
0.88661
0.666467
0.546001
0.422278
0.462343
0.816379
0.796443
0.500158
0.536314
0.756669
1.08755
1.1475
0.897986
1.90408
4.22545
5.30788
5.37005
3.73011
2.44745
1.5746
0.888239
0.62811
0.686884
1.0813
2.02472
3.4487
4.98811
6.45473
7.27229
7.24473
6.3791
4.314
2.41015
1.15346
0.478516
0.208292
0.127189
0.103381
0.0962167
0.111831
0.139817
0.146833
0.126903
0.115498
0.14567
0.239374
0.408928
0.567559
0.534158
0.31446
0.214129
0.24004
0.439644
0.950771
1.44415
1.67196
1.92834
1.83671
1.72
1.47293
0.814325
0.632978
0.41228
0.308949
0.259849
0.254604
0.304747
0.406937
0.559023
0.722194
0.781984
0.680012
0.475649
0.335923
0.279395
0.271283
0.286234
0.285659
0.202953
0.104249
0.0292551
0.0424023
0.0437224
0.0943816
0.0976029
0.141718
0.124417
0.0934374
0.0759665
0.0805316
0.0860383
0.0993269
0.13474
0.177594
0.491337
0.746077
0.604174
0.575881
0.532515
0.517774
0.466203
0.412555
0.478656
0.53598
0.570435
0.458257
0.488434
0.491375
0.481332
0.395578
0.431016
0.837377
2.22657
2.7137
2.8293
1.86274
0.953792
0.543952
0.492804
0.495003
0.484931
0.496399
0.483304
0.489987
0.540741
0.670502
0.90054
1.257
1.79709
2.9429
4.13159
4.14296
3.82632
2.73214
1.29259
0.464697
0.181718
0.116972
0.0892206
0.0759237
0.0726643
0.0651177
0.066863
0.0814323
0.0968696
0.119468
0.137233
0.173575
0.255658
0.239093
0.26137
0.432003
0.691935
0.834
0.703685
0.54237
0.567433
0.301444
0.360758
0.198693
0.182749
0.179592
0.168818
0.182968
0.189518
0.20458
0.218651
0.245244
0.2869
0.370875
0.608224
0.817686
0.838561
0.703691
0.488153
0.341815
0.254125
0.237061
0.199968
0.108169
0.0398335
0.048325
0.05622
0.0844565
0.0748543
0.0994582
0.125197
0.0833102
0.0678364
0.0784554
0.100764
0.114543
0.14769
0.180175
0.431925
0.504938
0.410885
0.449985
0.493835
0.503727
0.523417
0.469962
0.500346
0.536698
0.603104
0.566025
0.326705
0.301543
0.245665
0.247803
0.456892
1.42697
2.21932
1.97647
0.93789
0.494322
0.320748
0.283967
0.280476
0.300507
0.260952
0.2626
0.264064
0.274489
0.279382
0.282198
0.288011
0.303033
0.340496
0.480929
0.843021
1.79314
2.76466
2.67681
2.2175
1.13409
0.424775
0.186383
0.111627
0.0774443
0.060683
0.0542594
0.0596887
0.0732227
0.0873795
0.100332
0.122444
0.120944
0.133139
0.191171
0.286238
0.423775
0.528834
0.371753
0.248513
0.186186
0.201272
0.142558
0.161853
0.161207
0.151552
0.170796
0.151786
0.163189
0.160751
0.157436
0.155184
0.154051
0.156924
0.168922
0.201355
0.311
0.593373
0.637215
0.55342
0.315849
0.157799
0.118593
0.120367
0.0973868
0.0428192
0.0521774
0.0777044
0.0792678
0.0683264
0.0805904
0.123901
0.0806488
0.077477
0.106894
0.136529
0.191849
0.231715
0.219311
0.39107
0.472082
0.402994
0.387118
0.378345
0.370901
0.407465
0.411395
0.403761
0.451548
0.519324
0.659737
0.461457
0.259098
0.187468
0.23546
0.699508
1.57656
1.84077
0.908053
0.426758
0.290494
0.246371
0.215613
0.202204
0.21372
0.175803
0.181285
0.188117
0.199147
0.20713
0.207967
0.207735
0.207484
0.208232
0.214443
0.258491
0.437373
0.859947
1.90201
1.96685
1.68674
0.894144
0.368175
0.179389
0.101144
0.0696262
0.059471
0.0693048
0.0805057
0.0882391
0.0915306
0.10559
0.120315
0.121772
0.170493
0.277033
0.338955
0.323642
0.184337
0.141071
0.128004
0.139501
0.134044
0.146198
0.160787
0.149301
0.169075
0.153468
0.162944
0.162758
0.151617
0.140303
0.130931
0.125798
0.127879
0.134249
0.153998
0.221715
0.434393
0.470332
0.375641
0.189222
0.110195
0.0994856
0.0783741
0.0414428
0.0564406
0.0888059
0.0804255
0.0649215
0.073781
0.121834
0.0820539
0.0975973
0.14545
0.196491
0.25349
0.271807
0.243307
0.35714
0.449135
0.363892
0.270867
0.260697
0.276007
0.302936
0.311963
0.338422
0.401966
0.484214
0.609225
0.63275
0.329737
0.216062
0.307393
0.888557
1.51939
1.15083
0.492925
0.295927
0.250663
0.212066
0.184306
0.156094
0.154464
0.140055
0.147493
0.160723
0.164519
0.177121
0.18272
0.190515
0.19131
0.190694
0.187737
0.188383
0.21022
0.314405
0.659643
1.4625
1.53777
1.28915
0.663324
0.331297
0.173938
0.105847
0.0824111
0.0899014
0.0943232
0.0922381
0.0899998
0.0946022
0.109981
0.114825
0.161799
0.249104
0.251295
0.218201
0.133231
0.112224
0.11162
0.120163
0.143431
0.150396
0.180293
0.154412
0.167811
0.15712
0.162405
0.163067
0.153938
0.125632
0.106746
0.100528
0.10727
0.117772
0.122341
0.140559
0.212611
0.354523
0.358458
0.267016
0.141741
0.0990816
0.0597501
0.0389451
0.0627331
0.0948512
0.0814859
0.0633335
0.0695362
0.122201
0.0869265
0.12713
0.19514
0.260042
0.307303
0.298299
0.258513
0.331628
0.406418
0.301555
0.234718
0.247681
0.276501
0.296055
0.282317
0.317441
0.372529
0.411348
0.539388
0.664729
0.377998
0.245072
0.382842
0.973491
1.32213
0.698216
0.334218
0.252484
0.235978
0.176798
0.147373
0.134072
0.129469
0.125719
0.133698
0.150496
0.148811
0.162522
0.177592
0.18962
0.194042
0.192531
0.188857
0.176919
0.175241
0.192098
0.289661
0.682613
1.26475
1.24735
0.952244
0.524158
0.302751
0.186047
0.128155
0.114774
0.11318
0.104117
0.0951829
0.0960578
0.103323
0.110308
0.149666
0.236342
0.215549
0.158565
0.11161
0.10261
0.116396
0.119127
0.154835
0.159345
0.194343
0.169909
0.173971
0.161846
0.15754
0.155303
0.150899
0.122338
0.0934987
0.0820474
0.0824873
0.101503
0.114778
0.120866
0.140373
0.232817
0.314995
0.308455
0.210321
0.113002
0.0543892
0.0353992
0.0687464
0.0995561
0.0838653
0.0625332
0.0671512
0.127717
0.0963459
0.167533
0.239983
0.313342
0.334978
0.316054
0.277921
0.315874
0.367431
0.26481
0.222811
0.240026
0.25858
0.296241
0.278863
0.303346
0.36168
0.371334
0.5055
0.614065
0.446941
0.279513
0.444193
0.987451
1.03786
0.479789
0.271384
0.236637
0.231402
0.163231
0.125119
0.124258
0.121977
0.12147
0.127993
0.144802
0.142159
0.156582
0.191167
0.207927
0.215231
0.211841
0.202584
0.183754
0.165736
0.165781
0.187441
0.315412
0.792075
1.12807
1.04383
0.708209
0.428945
0.279437
0.187589
0.149885
0.139581
0.123508
0.104254
0.10015
0.109541
0.109519
0.136887
0.206392
0.188386
0.131663
0.103078
0.101011
0.117577
0.11668
0.157631
0.169002
0.169384
0.172289
0.169514
0.163285
0.13812
0.132828
0.130499
0.115296
0.088236
0.0773964
0.0752427
0.0863244
0.112902
0.115914
0.12358
0.154616
0.259226
0.290909
0.254363
0.144756
0.0613643
0.0430964
0.07566
0.103035
0.0863263
0.0625197
0.0676252
0.133502
0.11688
0.195864
0.257958
0.322359
0.334807
0.317189
0.281729
0.296385
0.316661
0.22609
0.199115
0.216331
0.250913
0.2659
0.250821
0.254622
0.315622
0.354106
0.455068
0.563109
0.595217
0.351588
0.4999
0.973584
0.794281
0.363152
0.231516
0.213511
0.19401
0.153483
0.116776
0.121604
0.12118
0.120862
0.126542
0.138267
0.140137
0.156866
0.240011
0.269239
0.26827
0.260009
0.239021
0.201144
0.168841
0.156254
0.159544
0.198421
0.401638
0.898158
0.977527
0.843517
0.529348
0.352644
0.241691
0.180537
0.159531
0.1447
0.12337
0.10516
0.112947
0.112991
0.127033
0.1771
0.148313
0.108767
0.0950298
0.096611
0.114144
0.112213
0.157123
0.169477
0.139141
0.142372
0.13933
0.140831
0.110322
0.0943333
0.0970472
0.0997529
0.0856303
0.0767199
0.0727532
0.0804154
0.105867
0.119587
0.121495
0.130368
0.20225
0.270549
0.26518
0.165744
0.0694785
0.0447922
0.0827687
0.10673
0.0914048
0.0648512
0.0688676
0.133082
0.12953
0.209394
0.261804
0.309346
0.319874
0.308687
0.276944
0.269485
0.25503
0.205376
0.201953
0.246782
0.295197
0.260532
0.237237
0.211877
0.274249
0.305432
0.370584
0.548602
0.655368
0.449138
0.559059
0.916544
0.598315
0.287336
0.212032
0.20192
0.156511
0.132809
0.115634
0.120981
0.124066
0.123835
0.127696
0.134564
0.142918
0.17318
0.322408
0.370297
0.363086
0.339763
0.304216
0.235794
0.181437
0.153993
0.150299
0.160096
0.238564
0.589911
0.851407
0.821944
0.626686
0.411425
0.279802
0.199886
0.169742
0.153705
0.142405
0.120416
0.115705
0.121221
0.125584
0.165744
0.132014
0.0916717
0.0916885
0.088715
0.107773
0.109414
0.139057
0.160417
0.126292
0.103079
0.101274
0.0974814
0.0791654
0.0662062
0.0699567
0.0768734
0.0773768
0.0732346
0.0724624
0.0756247
0.0998973
0.126563
0.125299
0.127133
0.15547
0.255261
0.26815
0.198438
0.0817153
0.0561553
0.0892235
0.112759
0.0989779
0.0707589
0.0709858
0.130941
0.132641
0.212285
0.248941
0.268415
0.272113
0.272447
0.273329
0.269212
0.239387
0.206149
0.217792
0.2623
0.312231
0.257167
0.226368
0.188737
0.256435
0.290124
0.310461
0.489048
0.651528
0.574448
0.643645
0.784279
0.498546
0.260979
0.213429
0.198531
0.142821
0.123779
0.118247
0.125661
0.133399
0.130679
0.130671
0.134412
0.150762
0.197221
0.383295
0.45811
0.438736
0.374989
0.339242
0.277542
0.203627
0.158962
0.146378
0.14834
0.176383
0.34347
0.704139
0.778515
0.6963
0.468747
0.309318
0.209558
0.170954
0.156694
0.14828
0.140537
0.126061
0.12601
0.128381
0.154839
0.137806
0.0919909
0.101784
0.0831816
0.10574
0.120944
0.11984
0.177381
0.117872
0.0882526
0.0835309
0.0808236
0.0651593
0.0580356
0.064242
0.0667347
0.0646548
0.061979
0.0659944
0.0712306
0.104233
0.131445
0.138299
0.132507
0.140849
0.225616
0.271828
0.221399
0.120545
0.0848716
0.096213
0.119937
0.109468
0.0775308
0.0748195
0.125036
0.130413
0.213693
0.248045
0.261312
0.263767
0.271583
0.281775
0.282607
0.252924
0.224583
0.256109
0.268723
0.258021
0.19963
0.175589
0.153532
0.199297
0.287029