/*--------------------------------*- C++ -*----------------------------------*\
| =========                 |                                                 |
| \\      /  F ield         | OpenFOAM: The Open Source CFD Toolbox           |
|  \\    /   O peration     | Version:  2.4.0                                 |
|   \\  /    A nd           | Web:      www.OpenFOAM.org                      |
|    \\/     M anipulation  |                                                 |
\*---------------------------------------------------------------------------*/
FoamFile
{
    version     2.0;
    format      ascii;
    class       volScalarField;
    location    "0.0084";
    object      pMean;
}
// * * * * * * * * * * * * * * * * * * * * * * * * * * * * * * * * * * * * * //

dimensions      [0 2 -2 0 0 0 0];

internalField   nonuniform List<scalar> 
17600
(
42.8601
41.9362
41.5412
41.2744
40.993
40.7031
40.4194
40.1407
39.8646
39.5919
39.3231
39.0578
38.7971
38.5407
38.2902
38.0467
37.8128
37.5945
37.3951
37.3258
42.3161
41.7489
41.4553
41.2292
40.969
40.6902
40.4125
40.1372
39.8629
39.5913
39.3232
39.0584
38.798
38.5419
38.2915
38.0481
37.8142
37.5957
37.3957
37.2803
42.2796
41.8238
41.5091
41.2603
40.9878
40.7019
40.4199
40.142
39.8663
39.5939
39.3254
39.0604
38.7999
38.5438
38.2935
38.05
37.8159
37.5967
37.3936
37.2589
42.2567
41.8285
41.5027
41.2495
40.9789
40.6959
40.4161
40.1397
39.8651
39.5935
39.3255
39.0607
38.8004
38.5444
38.294
38.0503
37.8156
37.5951
37.388
37.2368
42.2244
41.8218
41.4994
41.2461
40.9773
40.6957
40.4166
40.1405
39.866
39.5944
39.3263
39.0616
38.8012
38.545
38.2944
38.0504
37.8149
37.5929
37.3813
37.2158
42.1913
41.8151
41.4981
41.2439
40.9759
40.6952
40.4166
40.1407
39.8663
39.5948
39.3268
39.062
38.8017
38.5454
38.2946
38.0502
37.8139
37.59
37.374
37.196
42.162
41.8092
41.4974
41.242
40.9746
40.6947
40.4166
40.1409
39.8667
39.5953
39.3273
39.0625
38.8021
38.5457
38.2947
38.0498
37.8126
37.5868
37.3663
37.1775
42.136
41.8031
41.4965
41.2402
40.9733
40.6944
40.4167
40.1412
39.8671
39.5959
39.3279
39.0631
38.8026
38.546
38.2948
38.0493
37.8111
37.5833
37.3584
37.1601
42.113
41.7968
41.4953
41.2385
40.9721
40.6941
40.4168
40.1415
39.8676
39.5964
39.3284
39.0636
38.803
38.5463
38.2947
38.0488
37.8095
37.5796
37.3505
37.1437
42.0926
41.7906
41.4941
41.2369
40.9711
40.6938
40.417
40.1419
39.8681
39.5969
39.329
39.0641
38.8034
38.5466
38.2947
38.0481
37.8078
37.5758
37.3426
37.1282
42.0745
41.7846
41.4929
41.2355
40.9701
40.6935
40.4171
40.1422
39.8685
39.5974
39.3295
39.0646
38.8038
38.5467
38.2945
38.0474
37.8059
37.5718
37.3348
37.1136
42.0587
41.7789
41.4917
41.2342
40.9692
40.6933
40.4172
40.1425
39.8689
39.5979
39.3299
39.065
38.8041
38.5469
38.2943
38.0465
37.8039
37.5678
37.3271
37.0999
42.045
41.7736
41.4905
41.233
40.9685
40.6931
40.4173
40.1427
39.8693
39.5983
39.3303
39.0653
38.8044
38.5469
38.294
38.0456
37.8019
37.5636
37.3195
37.0868
42.0332
41.7689
41.4894
41.232
40.9677
40.6929
40.4174
40.143
39.8696
39.5986
39.3307
39.0656
38.8046
38.5469
38.2937
38.0446
37.7997
37.5594
37.312
37.0745
42.0232
41.7647
41.4884
41.2312
40.9671
40.6927
40.4175
40.1431
39.8698
39.5989
39.3309
39.0658
38.8047
38.5468
38.2932
38.0435
37.7974
37.5552
37.3047
37.0628
42.015
41.7611
41.4876
41.2304
40.9666
40.6926
40.4175
40.1433
39.87
39.5992
39.3311
39.066
38.8047
38.5467
38.2927
38.0423
37.7951
37.5509
37.2976
37.0516
42.0085
41.7582
41.4868
41.2299
40.9662
40.6925
40.4176
40.1434
39.8702
39.5993
39.3313
39.0661
38.8047
38.5465
38.2921
38.0411
37.7927
37.5467
37.2905
37.041
42.0037
41.756
41.4863
41.2294
40.9659
40.6924
40.4176
40.1435
39.8703
39.5995
39.3314
39.0661
38.8047
38.5462
38.2914
38.0397
37.7903
37.5424
37.2837
37.0309
42.0005
41.7545
41.4859
41.2291
40.9657
40.6923
40.4177
40.1436
39.8704
39.5996
39.3315
39.0661
38.8045
38.5458
38.2907
38.0383
37.7878
37.5381
37.277
37.0213
41.9989
41.7538
41.4857
41.229
40.9656
40.6923
40.4177
40.1436
39.8705
39.5996
39.3315
39.0661
38.8043
38.5454
38.2899
38.0369
37.7853
37.5339
37.2705
37.0121
41.9989
41.7537
41.4856
41.229
40.9656
40.6923
40.4177
40.1436
39.8705
39.5996
39.3314
39.0659
38.8041
38.5449
38.2891
38.0354
37.7828
37.5297
37.2641
37.0032
42.0005
41.7544
41.4857
41.2291
40.9657
40.6924
40.4177
40.1436
39.8704
39.5995
39.3313
39.0657
38.8037
38.5444
38.2882
38.0339
37.7802
37.5255
37.258
36.9947
42.0036
41.7558
41.4861
41.2294
40.9659
40.6924
40.4177
40.1435
39.8703
39.5993
39.3311
39.0655
38.8034
38.5438
38.2872
38.0323
37.7776
37.5214
37.2519
36.9864
42.0084
41.758
41.4865
41.2298
40.9663
40.6925
40.4176
40.1434
39.8701
39.5992
39.3308
39.0652
38.8029
38.5432
38.2862
38.0307
37.7751
37.5173
37.2461
36.9784
42.0149
41.7608
41.4872
41.2304
40.9667
40.6927
40.4176
40.1432
39.8699
39.5989
39.3305
39.0648
38.8024
38.5425
38.2852
38.0291
37.7725
37.5133
37.2404
36.9706
42.023
41.7643
41.488
41.2311
40.9672
40.6928
40.4176
40.1431
39.8697
39.5986
39.3302
39.0644
38.8019
38.5417
38.2841
38.0275
37.77
37.5094
37.2349
36.963
42.0329
41.7684
41.4889
41.232
40.9678
40.693
40.4175
40.1429
39.8694
39.5983
39.3298
39.0639
38.8012
38.5409
38.283
38.0258
37.7675
37.5056
37.2295
36.9555
42.0446
41.7731
41.49
41.2329
40.9685
40.6933
40.4174
40.1426
39.869
39.5979
39.3293
39.0633
38.8006
38.5401
38.2818
38.0242
37.765
37.5018
37.2243
36.9481
42.0584
41.7783
41.4911
41.2341
40.9693
40.6935
40.4173
40.1424
39.8686
39.5974
39.3288
39.0627
38.7999
38.5392
38.2806
38.0225
37.7625
37.4982
37.2193
36.9407
42.0741
41.784
41.4923
41.2354
40.9702
40.6938
40.4172
40.1421
39.8682
39.5969
39.3282
39.0621
38.7991
38.5383
38.2794
38.0209
37.7602
37.4947
37.2145
36.9334
42.0921
41.7899
41.4934
41.2368
40.9712
40.694
40.4171
40.1417
39.8677
39.5963
39.3276
39.0614
38.7983
38.5374
38.2782
38.0192
37.7579
37.4913
37.2099
36.9261
42.1125
41.7961
41.4946
41.2383
40.9722
40.6943
40.417
40.1414
39.8672
39.5957
39.3269
39.0607
38.7975
38.5364
38.2771
38.0177
37.7557
37.488
37.2054
36.9187
42.1355
41.8024
41.4957
41.24
40.9734
40.6947
40.4168
40.141
39.8667
39.5951
39.3262
39.06
38.7967
38.5355
38.2759
38.0162
37.7536
37.485
37.2013
36.9113
42.1614
41.8084
41.4966
41.2419
40.9747
40.6951
40.4167
40.1407
39.8662
39.5945
39.3256
39.0593
38.7959
38.5346
38.2748
38.0147
37.7516
37.4822
37.1974
36.9039
42.1907
41.8143
41.4973
41.2438
40.976
40.6955
40.4167
40.1405
39.8658
39.594
39.325
39.0586
38.7951
38.5338
38.2738
38.0134
37.7498
37.4796
37.1937
36.8963
42.2238
41.821
41.4985
41.2459
40.9775
40.6961
40.4168
40.1403
39.8655
39.5936
39.3245
39.058
38.7944
38.5329
38.2728
38.0122
37.7482
37.4772
37.1903
36.8887
42.2561
41.8277
41.5018
41.2493
40.9791
40.6962
40.4163
40.1395
39.8646
39.5926
39.3235
39.057
38.7935
38.5319
38.2716
38.0109
37.7465
37.475
37.1871
36.881
42.279
41.823
41.5081
41.2601
40.9879
40.7022
40.42
40.1417
39.8657
39.5929
39.3234
39.0566
38.7928
38.5311
38.2707
38.0097
37.745
37.473
37.1843
36.8742
42.3155
41.7481
41.4544
41.229
40.9691
40.6906
40.4127
40.1369
39.8623
39.5904
39.3212
39.0546
38.7907
38.5289
38.2683
38.0071
37.7421
37.4697
37.1804
36.8679
42.8594
41.9353
41.5403
41.2742
40.9932
40.7035
40.4195
40.1405
39.864
39.5909
39.321
39.0539
38.7898
38.5277
38.2668
38.0054
37.7403
37.4677
37.1782
36.8651
36.8281
36.7928
36.4227
36.1966
35.9917
35.7624
35.5268
35.2858
35.0395
34.7921
34.5468
34.3065
34.0744
33.8539
33.6473
33.4568
33.2843
33.131
32.9976
32.8846
32.7917
32.7186
32.6648
32.6293
32.6114
32.6101
32.6243
32.6532
32.6959
32.7515
32.8194
32.8989
32.9895
33.0908
33.2024
33.324
33.4554
33.5963
33.7465
33.906
34.0745
34.2519
34.4381
34.6328
34.8358
35.047
35.266
35.4926
35.7266
35.9675
36.2151
36.469
36.7289
36.9943
37.2648
37.54
37.8195
38.1029
38.3898
38.6796
38.972
39.2665
39.5627
39.8602
40.1586
40.4574
40.7562
41.0548
41.3526
41.6495
41.9449
42.2386
42.5303
42.8197
43.1066
43.3906
43.6716
43.9492
44.2234
44.494
44.7607
45.0234
45.2821
45.5364
45.7865
46.0321
46.2732
46.5098
46.7417
46.9689
47.1915
47.4093
47.6224
47.8308
48.0344
48.2333
48.4276
48.6172
48.8021
48.9825
49.1584
49.3297
49.4967
49.6592
49.8175
49.9715
50.1213
50.267
50.4087
50.5463
50.6801
50.81
50.9362
51.0586
51.1775
51.2928
51.4046
51.513
51.6181
51.7199
51.8185
51.914
52.0065
52.096
52.1825
52.2662
52.347
52.4252
52.5006
52.5734
52.6437
52.7114
52.7767
52.8396
52.9001
52.9583
53.0142
53.0678
53.1193
53.1685
53.2157
53.2608
53.3038
53.3448
53.3837
53.4207
53.4558
53.4889
53.52
53.5493
53.5766
53.6021
53.6256
53.6472
53.6669
53.6846
53.7003
53.7139
53.7255
53.7348
53.7418
53.7464
53.7485
53.7478
53.7442
53.7374
53.7272
53.7131
53.6949
53.6721
53.6441
53.6105
53.5704
53.5231
53.4677
53.4032
53.3284
53.2418
53.1417
53.0263
52.8931
52.7395
52.5622
52.3574
52.1202
51.845
51.5242
51.1486
50.7061
50.1804
49.5498
48.7835
47.8381
46.6464
45.1174
43.0561
40.3047
35.8712
30.1604
8.93093
36.9099
36.7015
36.4207
36.2329
36.0584
35.8515
35.6254
35.3878
35.1411
34.8913
34.6433
34.4009
34.1678
33.9471
33.7412
33.5518
33.3806
33.2285
33.0961
32.9837
32.8911
32.818
32.7639
32.7278
32.7091
32.7068
32.72
32.7477
32.7891
32.8435
32.9102
32.9885
33.0779
33.178
33.2884
33.4088
33.539
33.6787
33.8277
33.986
34.1532
34.3293
34.514
34.7073
34.9088
35.1184
35.3358
35.5608
35.793
36.0321
36.2778
36.5298
36.7877
37.051
37.3195
37.5926
37.87
38.1512
38.4358
38.7235
39.0136
39.306
39.6
39.8953
40.1914
40.4881
40.7848
41.0812
41.377
41.6717
41.9652
42.2569
42.5467
42.8343
43.1193
43.4015
43.6808
43.9568
44.2294
44.4984
44.7636
45.0249
45.2821
45.5352
45.784
46.0284
46.2684
46.5038
46.7347
46.961
47.1826
47.3996
47.6118
47.8194
48.0223
48.2206
48.4142
48.6032
48.7876
48.9675
49.1428
49.3138
49.4803
49.6425
49.8004
49.9541
50.1037
50.2491
50.3905
50.528
50.6616
50.7914
50.9174
51.0397
51.1585
51.2737
51.3854
51.4938
51.5988
51.7006
51.7991
51.8946
51.987
52.0764
52.1629
52.2466
52.3274
52.4055
52.4809
52.5536
52.6238
52.6914
52.7566
52.8193
52.8797
52.9376
52.9933
53.0467
53.0979
53.1469
53.1937
53.2384
53.281
53.3215
53.3599
53.3963
53.4306
53.463
53.4933
53.5217
53.548
53.5724
53.5947
53.615
53.6332
53.6493
53.6633
53.675
53.6845
53.6916
53.6961
53.6981
53.6972
53.6934
53.6864
53.6758
53.6615
53.6431
53.62
53.5919
53.5583
53.5183
53.4714
53.4166
53.353
53.2794
53.1947
53.0971
52.9849
52.8559
52.7077
52.5374
52.3412
52.1151
51.8537
51.5506
51.1975
50.784
50.2964
49.7164
49.0189
48.1685
47.1147
45.7787
44.0495
41.6968
38.4836
33.2889
25.9208
6.35793
36.9541
36.7571
36.514
36.3101
36.1188
35.9052
35.6776
35.4427
35.202
34.9594
34.7188
34.4832
34.2557
34.0393
33.8364
33.6491
33.4792
33.3278
33.1958
33.0836
32.991
32.9178
32.8633
32.8269
32.8077
32.8047
32.817
32.8438
32.8843
32.9376
33.0032
33.0804
33.1687
33.2677
33.377
33.4963
33.6253
33.7638
33.9117
34.0687
34.2346
34.4094
34.5928
34.7846
34.9846
35.1926
35.4084
35.6316
35.862
36.0993
36.3431
36.5931
36.8489
37.1102
37.3765
37.6475
37.9227
38.2017
38.4841
38.7695
39.0574
39.3474
39.6392
39.9322
40.2262
40.5206
40.8151
41.1094
41.403
41.6957
41.987
42.2768
42.5646
42.8502
43.1334
43.4138
43.6913
43.9656
44.2365
44.5039
44.7676
45.0274
45.2833
45.535
45.7825
46.0257
46.2645
46.4988
46.7286
46.9539
47.1745
47.3906
47.602
47.8088
48.0109
48.2084
48.4014
48.5898
48.7736
48.9529
49.1278
49.2983
49.4644
49.6262
49.7838
49.9372
50.0864
50.2316
50.3728
50.51
50.6434
50.773
50.8989
51.0211
51.1397
51.2548
51.3664
51.4747
51.5797
51.6814
51.7799
51.8753
51.9676
52.057
52.1434
52.227
52.3078
52.3858
52.4611
52.5337
52.6038
52.6713
52.7364
52.7989
52.8591
52.9169
52.9724
53.0255
53.0764
53.1251
53.1715
53.2158
53.2579
53.2979
53.3358
53.3715
53.4052
53.4368
53.4663
53.4937
53.5191
53.5423
53.5634
53.5823
53.5991
53.6136
53.6258
53.6356
53.643
53.6478
53.6499
53.6491
53.6453
53.6383
53.6277
53.6134
53.595
53.572
53.5441
53.5107
53.4711
53.4248
53.3709
53.3085
53.2366
53.1539
53.059
52.9503
52.8258
52.6831
52.5197
52.3323
52.1171
51.8693
51.5833
51.2519
50.8662
50.4144
49.8815
49.247
48.4828
47.5493
46.3894
44.9145
42.9971
40.3844
36.7851
31.1231
22.9459
7.2392
36.9506
36.7595
36.5275
36.3183
36.1232
35.915
35.6954
35.469
35.2371
35.003
34.7704
34.5426
34.3226
34.1132
33.917
33.7357
33.5709
33.4238
33.295
33.1849
33.0936
33.0208
32.9662
32.929
32.9088
32.9046
32.9158
32.9414
32.9806
33.0329
33.0973
33.1735
33.2608
33.3587
33.467
33.5852
33.7132
33.8506
33.9974
34.1532
34.3179
34.4913
34.6734
34.8637
35.0622
35.2687
35.4828
35.7043
35.9329
36.1683
36.4102
36.6582
36.912
37.1712
37.4353
37.7041
37.9771
38.2539
38.534
38.8171
39.1027
39.3905
39.6799
39.9707
40.2623
40.5545
40.8468
41.1388
41.4303
41.7208
42.0101
42.2978
42.5836
42.8673
43.1485
43.4271
43.7028
43.9753
44.2446
44.5104
44.7725
45.0309
45.2853
45.5356
45.7818
46.0237
46.2613
46.4945
46.7232
46.9474
47.1671
47.3822
47.5927
47.7987
48
48.1968
48.3891
48.5768
48.7601
48.9389
49.1132
49.2832
49.4489
49.6103
49.7675
49.9205
50.0695
50.2144
50.3553
50.4923
50.6255
50.7549
50.8806
51.0026
51.1211
51.2361
51.3476
51.4558
51.5606
51.6622
51.7607
51.856
51.9483
52.0376
52.124
52.2075
52.2881
52.3661
52.4413
52.5138
52.5838
52.6512
52.7161
52.7785
52.8385
52.896
52.9513
53.0042
53.0548
53.1031
53.1492
53.193
53.2347
53.2741
53.3114
53.3466
53.3795
53.4104
53.439
53.4655
53.4898
53.5119
53.5318
53.5493
53.5646
53.5775
53.5879
53.5958
53.601
53.6035
53.6031
53.5996
53.5928
53.5825
53.5684
53.5502
53.5276
53.5001
53.4672
53.4284
53.383
53.3303
53.2693
53.1992
53.1188
53.0268
52.9218
52.8018
52.6647
52.5083
52.3295
52.1248
51.8902
51.6206
51.3098
50.9499
50.5313
50.0412
49.463
48.7743
47.9444
46.9298
45.668
44.0627
41.9739
39.1394
35.2362
29.3224
20.6996
6.98109
36.937
36.752
36.5359
36.3331
36.1391
35.9352
35.7209
35.4999
35.274
35.0463
34.8202
34.5987
34.3847
34.1809
33.9895
33.8126
33.6518
33.5081
33.3825
33.2752
33.1863
33.1156
33.0627
33.0269
33.0075
33.0037
33.0148
33.04
33.0786
33.1299
33.1933
33.2683
33.3544
33.4511
33.5582
33.6753
33.8021
33.9384
34.084
34.2386
34.4021
34.5743
34.755
34.9439
35.141
35.3458
35.5583
35.7781
36.0049
36.2385
36.4784
36.7244
36.9762
37.2332
37.4953
37.7618
38.0326
38.3071
38.585
38.8657
39.1491
39.4345
39.7216
40.0101
40.2994
40.5893
40.8794
41.1692
41.4585
41.7468
42.034
42.3196
42.6034
42.8851
43.1644
43.4411
43.715
43.9858
44.2534
44.5176
44.7781
45.0349
45.2879
45.5368
45.7816
46.0223
46.2587
46.4907
46.7183
46.9414
47.1601
47.3743
47.5839
47.789
47.9896
48.1857
48.3772
48.5643
48.7469
48.9251
49.099
49.2685
49.4337
49.5947
49.7515
49.9042
50.0528
50.1974
50.338
50.4748
50.6077
50.7369
50.8624
50.9843
51.1026
51.2175
51.3289
51.4369
51.5417
51.6432
51.7416
51.8368
51.929
52.0182
52.1045
52.1879
52.2685
52.3463
52.4214
52.4939
52.5637
52.631
52.6957
52.7579
52.8177
52.8751
52.93
52.9827
53.0329
53.0809
53.1266
53.17
53.2112
53.2501
53.2869
53.3213
53.3536
53.3837
53.4115
53.437
53.4603
53.4812
53.4998
53.516
53.5298
53.541
53.5496
53.5555
53.5586
53.5588
53.5558
53.5495
53.5397
53.5261
53.5085
53.4865
53.4596
53.4275
53.3896
53.3453
53.294
53.2347
53.1667
53.0888
52.9999
52.8985
52.7831
52.6517
52.5021
52.3317
52.1374
51.9154
51.6613
51.3697
51.0339
50.6456
50.1941
49.6657
49.0427
48.3007
47.4068
46.3142
44.9561
43.2309
40.9908
37.974
33.8427
27.8065
19.0053
6.42276
36.9183
36.7373
36.5341
36.3373
36.1445
35.9442
35.7353
35.5208
35.3024
35.0826
34.8645
34.6507
34.444
34.2468
34.0615
33.8898
33.7333
33.5932
33.4703
33.3651
33.2775
33.2077
33.1552
33.1195
33.1001
33.0963
33.1073
33.1325
33.171
33.2222
33.2855
33.3603
33.4461
33.5424
33.649
33.7653
33.8913
34.0267
34.1712
34.3247
34.487
34.6578
34.8371
35.0247
35.2202
35.4235
35.6343
35.8524
36.0774
36.3091
36.5472
36.7912
37.0409
37.2959
37.5557
37.8201
38.0887
38.3609
38.6365
38.915
39.196
39.4791
39.7639
40.05
40.3371
40.6247
40.9125
41.2001
41.4872
41.7734
42.0585
42.342
42.6238
42.9035
43.1809
43.4557
43.7278
43.9968
44.2627
44.5252
44.7842
45.0394
45.2909
45.5385
45.782
46.0213
46.2564
46.4873
46.7138
46.9359
47.1535
47.3667
47.5755
47.7797
47.9795
48.1748
48.3657
48.5521
48.7341
48.9117
49.085
49.254
49.4188
49.5793
49.7357
49.888
50.0363
50.1806
50.3209
50.4574
50.5901
50.7191
50.8444
50.9661
51.0843
51.199
51.3103
51.4182
51.5228
51.6242
51.7225
51.8176
51.9097
51.9988
52.085
52.1684
52.2488
52.3266
52.4016
52.4739
52.5436
52.6107
52.6752
52.7373
52.7969
52.854
52.9087
52.961
53.011
53.0586
53.1039
53.1469
53.1876
53.226
53.2621
53.2959
53.3275
53.3567
53.3837
53.4082
53.4305
53.4503
53.4676
53.4824
53.4947
53.5042
53.5111
53.515
53.5159
53.5137
53.5082
53.4991
53.4863
53.4694
53.4481
53.4222
53.3911
53.3543
53.3114
53.2616
53.2042
53.1384
53.0632
52.9775
52.88
52.7692
52.6434
52.5006
52.3383
52.1538
51.9439
51.7044
51.4308
51.1172
50.7564
50.3396
49.8555
49.2894
48.6221
47.8282
46.8725
45.7059
44.2583
42.4253
40.0554
36.8948
32.605
26.5388
17.8023
6.21089
36.8986
36.721
36.5281
36.3379
36.1482
35.9522
35.7491
35.5412
35.3301
35.1179
34.9074
34.7011
34.5015
34.3109
34.1315
33.9652
33.8133
33.6771
33.5573
33.4546
33.3689
33.3004
33.2487
33.2135
33.1941
33.1899
33.2004
33.2248
33.2625
33.3129
33.3753
33.4493
33.5343
33.63
33.7359
33.8517
33.9771
34.112
34.2559
34.4087
34.5702
34.7402
34.9185
35.1049
35.2991
35.501
35.7103
35.9268
36.1501
36.38
36.6161
36.8582
37.1058
37.3587
37.6165
37.8787
38.145
38.415
38.6883
38.9645
39.2432
39.524
39.8065
40.0903
40.3751
40.6604
40.946
41.2314
41.5163
41.8003
42.0832
42.3647
42.6444
42.9222
43.1976
43.4706
43.7408
44.0081
44.2723
44.5332
44.7905
45.0443
45.2943
45.5404
45.7826
46.0206
46.2545
46.4842
46.7096
46.9306
47.1472
47.3595
47.5673
47.7707
47.9697
48.1642
48.3543
48.5401
48.7214
48.8985
49.0712
49.2397
49.404
49.5641
49.7201
49.872
50.0199
50.1639
50.304
50.4402
50.5726
50.7014
50.8265
50.948
51.066
51.1805
51.2917
51.3995
51.504
51.6053
51.7034
51.7984
51.8904
51.9795
52.0656
52.1488
52.2291
52.3068
52.3816
52.4538
52.5234
52.5903
52.6547
52.7165
52.7759
52.8328
52.8872
52.9392
52.9889
53.0361
53.081
53.1235
53.1637
53.2016
53.2371
53.2703
53.3011
53.3296
53.3556
53.3793
53.4004
53.4191
53.4352
53.4486
53.4593
53.4672
53.4722
53.4742
53.473
53.4684
53.4603
53.4484
53.4325
53.4123
53.3874
53.3575
53.3221
53.2807
53.2327
53.1773
53.1139
53.0416
52.9592
52.8656
52.7594
52.6392
52.5029
52.3486
52.1736
51.9751
51.7494
51.4926
51.1994
50.8638
50.4782
50.0332
49.5167
48.9134
48.2031
47.3589
46.3442
45.1082
43.5789
41.6508
39.1729
35.905
31.5194
25.4966
16.9905
6.31926
36.8795
36.7048
36.5201
36.3361
36.1501
35.9583
35.7607
35.5589
35.3546
35.1496
34.9465
34.7475
34.555
34.3711
34.1979
34.0371
33.8901
33.758
33.6417
33.5417
33.4582
33.3912
33.3406
33.3059
33.2868
33.2826
33.2929
33.3169
33.3541
33.4038
33.4655
33.5387
33.623
33.7178
33.8229
33.9379
34.0624
34.1963
34.3393
34.4912
34.6517
34.8208
34.998
35.1833
35.3764
35.577
35.785
36
36.2218
36.4501
36.6845
36.9248
37.1706
37.4215
37.6772
37.9373
38.2015
38.4693
38.7403
39.0143
39.2907
39.5692
39.8494
40.1309
40.4134
40.6965
40.9798
41.263
41.5457
41.8276
42.1084
42.3878
42.6655
42.9412
43.2148
43.4858
43.7543
44.0198
44.2822
44.5414
44.7972
45.0495
45.298
45.5427
45.7835
46.0203
46.2529
46.4814
46.7056
46.9256
47.1412
47.3525
47.5594
47.7619
47.9601
48.1538
48.3432
48.5283
48.709
48.8855
49.0577
49.2256
49.3894
49.5491
49.7046
49.8562
50.0037
50.1474
50.2871
50.4231
50.5553
50.6838
50.8087
50.93
51.0478
51.1622
51.2731
51.3808
51.4852
51.5863
51.6843
51.7793
51.8712
51.9601
52.046
52.1291
52.2094
52.2869
52.3616
52.4337
52.5031
52.5698
52.634
52.6957
52.7548
52.8115
52.8656
52.9173
52.9666
53.0135
53.058
53.1001
53.1398
53.1771
53.212
53.2445
53.2746
53.3023
53.3274
53.3501
53.3702
53.3877
53.4025
53.4146
53.4238
53.43
53.4332
53.4332
53.4298
53.4228
53.4122
53.3975
53.3785
53.3549
53.3264
53.2926
53.2529
53.2068
53.1537
53.0928
53.0233
52.9443
52.8547
52.7532
52.6384
52.5087
52.362
52.1961
52.0084
51.7958
51.5546
51.2803
50.9677
50.6103
50.2
49.7271
49.1789
48.5393
47.7873
46.895
45.8246
44.5242
42.9213
40.9116
38.347
35.0049
30.5773
24.6537
16.4716
6.62806
36.8615
36.6893
36.5112
36.3331
36.1512
35.9638
35.7714
35.5755
35.3776
35.1794
34.9832
34.7912
34.6055
34.4281
34.2609
34.1055
33.9633
33.8354
33.7227
33.6255
33.5443
33.4791
33.4297
33.3958
33.3771
33.3731
33.3832
33.4069
33.4437
33.4928
33.554
33.6266
33.7102
33.8044
33.9088
34.0231
34.1469
34.2801
34.4224
34.5735
34.7332
34.9012
35.0775
35.2616
35.4535
35.6529
35.8595
36.0731
36.2933
36.52
36.7527
36.9912
37.2351
37.4841
37.7378
37.9959
38.258
38.5237
38.7926
39.0643
39.3385
39.6148
39.8928
40.172
40.4523
40.7331
41.0142
41.2951
41.5757
41.8554
42.1341
42.4114
42.6871
42.9609
43.2325
43.5016
43.7682
44.032
44.2927
44.5503
44.8044
45.0551
45.3022
45.5455
45.7849
46.0203
46.2517
46.479
46.7021
46.921
47.1356
47.3458
47.5518
47.7535
47.9508
48.1438
48.3324
48.5168
48.6969
48.8727
49.0443
49.2118
49.375
49.5342
49.6894
49.8405
49.9877
50.131
50.2704
50.4061
50.538
50.6663
50.7909
50.912
51.0297
51.1438
51.2547
51.3622
51.4664
51.5674
51.6653
51.7601
51.8519
51.9407
52.0265
52.1095
52.1897
52.267
52.3416
52.4135
52.4827
52.5493
52.6133
52.6748
52.7337
52.7901
52.8439
52.8954
52.9443
52.9908
53.0349
53.0765
53.1157
53.1524
53.1868
53.2186
53.248
53.2748
53.2991
53.3208
53.3398
53.3562
53.3697
53.3804
53.3881
53.3927
53.394
53.392
53.3865
53.3772
53.3639
53.3464
53.3244
53.2975
53.2654
53.2275
53.1835
53.1327
53.0745
53.0081
52.9325
52.8469
52.7501
52.6407
52.5173
52.378
52.2209
52.0435
51.8432
51.6165
51.3597
51.0682
50.7363
50.3573
49.9228
49.4225
48.8433
48.1685
47.3763
46.4382
45.3158
43.9566
42.2888
40.2103
37.5794
34.1924
29.7671
23.9832
16.1739
7.07401
36.8447
36.6748
36.5023
36.3294
36.1519
35.9688
35.7814
35.5911
35.3992
35.2075
35.0179
34.8324
34.653
34.4817
34.3202
34.1701
34.0326
33.9089
33.7996
33.7054
33.6266
33.5632
33.5151
33.4822
33.4641
33.4604
33.4706
33.4941
33.5305
33.5793
33.6399
33.7119
33.7949
33.8885
33.9923
34.1059
34.2291
34.3617
34.5033
34.6537
34.8126
34.9799
35.1554
35.3387
35.5296
35.7279
35.9334
36.1457
36.3646
36.5898
36.821
37.0578
37.3
37.5472
37.799
38.0551
38.3152
38.5788
38.8455
39.1151
39.3871
39.6612
39.937
40.214
40.492
40.7706
41.0495
41.3283
41.6066
41.8842
42.1608
42.436
42.7097
42.9814
43.2511
43.5184
43.7831
44.0451
44.3041
44.5599
44.8125
45.0616
45.3072
45.549
45.787
46.0211
46.2512
46.4773
46.6992
46.9169
47.1305
47.3398
47.5448
47.7455
47.942
48.1342
48.3221
48.5057
48.6851
48.8603
49.0314
49.1982
49.361
49.5197
49.6744
49.8251
49.9719
50.1148
50.254
50.3893
50.521
50.649
50.7734
50.8943
51.0117
51.1257
51.2363
51.3436
51.4477
51.5486
51.6463
51.741
51.8327
51.9213
52.007
52.0899
52.1699
52.2471
52.3216
52.3933
52.4624
52.5288
52.5926
52.6538
52.7125
52.7686
52.8222
52.8733
52.9219
52.968
53.0117
53.0528
53.0915
53.1277
53.1614
53.1926
53.2212
53.2472
53.2707
53.2914
53.3094
53.3246
53.3368
53.3461
53.3523
53.3553
53.3548
53.3509
53.3432
53.3315
53.3157
53.2954
53.2703
53.2401
53.2043
53.1625
53.1142
53.0588
52.9954
52.9234
52.8418
52.7496
52.6456
52.5283
52.3962
52.2475
52.08
51.8912
51.6783
51.4377
51.1655
50.8568
50.5059
50.1056
49.6473
49.1203
48.511
47.8022
46.9718
45.9905
44.8199
43.4078
41.6835
39.549
36.8704
33.4639
29.076
23.4601
16.046
7.61871
36.8293
36.6613
36.4935
36.3256
36.1523
35.9736
35.791
35.606
35.4199
35.2342
35.0507
34.8714
34.698
34.5325
34.3764
34.2313
34.0983
33.9785
33.8727
33.7813
33.7048
33.6433
33.5967
33.5649
33.5474
33.5441
33.5544
33.5779
33.6141
33.6626
33.7228
33.7943
33.8768
33.9698
34.073
34.186
34.3086
34.4405
34.5815
34.7312
34.8894
35.056
35.2306
35.4131
35.6031
35.8005
36.005
36.2162
36.434
36.6579
36.8878
37.1232
37.3639
37.6095
37.8597
38.114
38.3722
38.634
38.8988
39.1664
39.4364
39.7083
39.982
40.2569
40.5328
40.8093
41.086
41.3626
41.6388
41.9143
42.1888
42.462
42.7336
43.0034
43.2711
43.5364
43.7993
44.0595
44.3167
44.5709
44.8218
45.0693
45.3133
45.5537
45.7902
46.023
46.2518
46.4766
46.6973
46.9139
47.1263
47.3346
47.5386
47.7384
47.934
48.1253
48.3124
48.4953
48.674
48.8486
49.019
49.1852
49.3475
49.5057
49.6599
49.8102
49.9565
50.0991
50.2378
50.3729
50.5042
50.6319
50.7561
50.8767
50.9939
51.1077
51.2181
51.3253
51.4292
51.5299
51.6275
51.722
51.8135
51.9021
51.9876
52.0703
52.1502
52.2273
52.3016
52.3732
52.442
52.5083
52.5719
52.6329
52.6913
52.7471
52.8005
52.8512
52.8995
52.9452
52.9884
53.0291
53.0673
53.103
53.136
53.1665
53.1944
53.2197
53.2422
53.262
53.2789
53.2929
53.304
53.3119
53.3166
53.3179
53.3156
53.3097
53.2999
53.2859
53.2675
53.2444
53.2163
53.1828
53.1434
53.0977
53.0451
52.985
52.9166
52.8391
52.7514
52.6526
52.5414
52.4163
52.2756
52.1175
51.9397
51.7395
51.5141
51.2597
50.9723
50.6468
50.2771
49.856
49.3744
48.8214
48.183
47.4418
46.575
45.5535
44.3388
42.8796
41.1072
38.9287
36.2192
32.8146
28.4915
23.0621
16.048
8.2301
36.8151
36.649
36.4853
36.3217
36.1526
35.9781
35.8001
35.6202
35.4395
35.2595
35.0818
34.9083
34.7407
34.5806
34.4296
34.2892
34.1605
34.0445
33.942
33.8534
33.7793
33.7196
33.6744
33.6436
33.6269
33.6241
33.6346
33.6581
33.6942
33.7424
33.8023
33.8734
33.9554
34.0479
34.1506
34.2631
34.3851
34.5164
34.6568
34.8058
34.9634
35.1292
35.3031
35.4847
35.6739
35.8704
36.0738
36.2841
36.5007
36.7235
36.9522
37.1863
37.4257
37.6699
37.9186
38.1714
38.428
38.688
38.9511
39.2169
39.485
39.7551
40.0268
40.2998
40.5737
40.8481
41.1228
41.3975
41.6717
41.9452
42.2177
42.4889
42.7586
43.0264
43.2922
43.5558
43.8168
44.0752
44.3307
44.5832
44.8325
45.0784
45.3208
45.5597
45.7948
46.0262
46.2536
46.4771
46.6966
46.9121
47.1234
47.3305
47.5336
47.7324
47.927
48.1175
48.3038
48.4859
48.6638
48.8377
49.0074
49.1731
49.3347
49.4924
49.6461
49.7959
49.9418
50.0839
50.2223
50.3569
50.488
50.6154
50.7392
50.8596
50.9765
51.0901
51.2003
51.3072
51.411
51.5115
51.6089
51.7033
51.7946
51.883
51.9684
52.051
52.1307
52.2076
52.2817
52.3531
52.4218
52.4879
52.5513
52.612
52.6702
52.7258
52.7788
52.8292
52.8771
52.9225
52.9653
53.0055
53.0432
53.0782
53.1107
53.1405
53.1677
53.1921
53.2138
53.2326
53.2485
53.2614
53.2711
53.2777
53.2809
53.2806
53.2766
53.2687
53.2568
53.2405
53.2196
53.1937
53.1626
53.1258
53.0829
53.0333
52.9764
52.9117
52.8382
52.7552
52.6615
52.5562
52.4378
52.3049
52.1558
51.9883
51.8003
51.5889
51.3511
51.0831
50.7807
50.4386
50.0506
49.6091
49.105
48.5268
47.8605
47.0883
46.1875
45.1287
43.8741
42.3736
40.5612
38.3498
35.6241
32.2393
28.0014
22.7692
16.1485
8.88201
36.8021
36.6376
36.4775
36.3179
36.1528
35.9824
35.8089
35.6338
35.4582
35.2835
35.1114
34.9433
34.781
34.6261
34.48
34.3441
34.2195
34.1071
34.0078
33.9219
33.85
33.7921
33.7484
33.7187
33.7028
33.7004
33.7112
33.7348
33.7708
33.8188
33.8784
33.9492
34.0308
34.1228
34.225
34.337
34.4585
34.5893
34.729
34.8775
35.0344
35.1996
35.3727
35.5536
35.742
35.9376
36.1401
36.3493
36.5649
36.7866
37.0141
37.247
37.4851
37.7279
37.9752
38.2266
38.4817
38.7402
39.0017
39.2658
39.5323
39.8007
40.0706
40.3418
40.6139
40.8865
41.1594
41.4321
41.7044
41.9761
42.2467
42.5161
42.7839
43.05
43.314
43.5758
43.8351
44.0918
44.3456
44.5965
44.8442
45.0885
45.3295
45.5669
45.8006
46.0306
46.2567
46.479
46.6972
46.9115
47.1217
47.3278
47.5297
47.7276
47.9213
48.1108
48.2962
48.4775
48.6547
48.8278
48.9969
49.1619
49.3229
49.48
49.6332
49.7825
49.9279
50.0696
50.2075
50.3418
50.4724
50.5995
50.723
50.8431
50.9598
51.073
51.183
51.2897
51.3932
51.4936
51.5908
51.685
51.7761
51.8643
51.9496
52.032
52.1115
52.1882
52.2622
52.3334
52.4019
52.4677
52.5309
52.5914
52.6493
52.7046
52.7573
52.8074
52.855
52.8999
52.9423
52.982
53.0192
53.0537
53.0855
53.1147
53.1411
53.1648
53.1855
53.2034
53.2182
53.23
53.2385
53.2437
53.2454
53.2435
53.2378
53.228
53.214
53.1954
53.172
53.1434
53.1093
53.0693
53.0228
52.9694
52.9083
52.839
52.7605
52.672
52.5724
52.4606
52.3352
52.1946
52.037
51.8603
51.6621
51.4397
51.1897
50.9084
50.5913
50.2329
49.827
49.3657
48.8397
48.2374
47.5445
46.743
45.8103
44.7175
43.4271
41.891
40.0463
37.8119
35.0829
31.7325
27.5944
22.5643
16.3225
9.55466
36.7901
36.6273
36.4703
36.3143
36.153
35.9865
35.8173
35.6467
35.476
35.3063
35.1393
34.9764
34.8192
34.6692
34.5277
34.3961
34.2754
34.1665
34.0701
33.9869
33.9172
33.8611
33.8188
33.7902
33.775
33.7732
33.7843
33.808
33.844
33.8919
33.9512
34.0217
34.1029
34.1946
34.2963
34.4079
34.5289
34.6591
34.7983
34.9462
35.1025
35.267
35.4395
35.6196
35.8072
36.002
36.2036
36.4119
36.6266
36.8472
37.0736
37.3053
37.5422
37.7837
38.0297
38.2797
38.5334
38.7904
39.0504
39.313
39.5779
39.8447
40.113
40.3826
40.653
40.9239
41.195
41.4661
41.7367
42.0066
42.2755
42.5431
42.8092
43.0736
43.3359
43.596
43.8537
44.1087
44.361
44.6103
44.8565
45.0994
45.3389
45.5749
45.8073
46.0359
46.2608
46.4818
46.6989
46.9119
47.121
47.3261
47.527
47.7239
47.9166
48.1053
48.2899
48.4703
48.6468
48.8191
48.9875
49.1518
49.3122
49.4687
49.6213
49.7701
49.915
50.0562
50.1937
50.3276
50.4578
50.5845
50.7077
50.8274
50.9438
51.0568
51.1665
51.2729
51.3762
51.4763
51.5733
51.6673
51.7582
51.8462
51.9313
52.0135
52.0928
52.1693
52.2431
52.3141
52.3823
52.4479
52.5108
52.5711
52.6287
52.6838
52.7361
52.7859
52.8331
52.8776
52.9195
52.9588
52.9955
53.0294
53.0606
53.0891
53.1148
53.1376
53.1576
53.1745
53.1883
53.1989
53.2062
53.2101
53.2103
53.2068
53.1993
53.1877
53.1716
53.1508
53.1249
53.0937
53.0567
53.0134
52.9635
52.9062
52.841
52.7671
52.6837
52.5898
52.4844
52.3662
52.2338
52.0855
51.9196
51.7338
51.5257
51.2924
51.0304
50.736
50.4045
50.0303
49.607
49.1266
48.5795
47.9541
47.2359
46.407
45.4448
44.3208
42.9989
41.4326
39.5629
37.3146
34.5933
31.2886
27.2602
22.4325
16.5507
10.2335
36.779
36.6179
36.4636
36.311
36.1532
35.9905
35.8253
35.659
35.4928
35.328
35.1658
35.0078
34.8553
34.7099
34.5728
34.4452
34.3282
34.2227
34.1293
34.0486
33.981
33.9267
33.8857
33.8582
33.8439
33.8426
33.854
33.8779
33.9139
33.9617
34.0209
34.0911
34.172
34.2633
34.3646
34.4757
34.5963
34.726
34.8647
35.012
35.1677
35.3316
35.5034
35.6829
35.8697
36.0637
36.2645
36.4719
36.6856
36.9053
37.1306
37.3612
37.5969
37.8373
38.082
38.3307
38.583
38.8387
39.0973
39.3584
39.6218
39.8871
40.1539
40.4219
40.6907
40.96
41.2296
41.499
41.768
42.0363
42.3036
42.5697
42.8342
43.0969
43.3577
43.6162
43.8724
44.1259
44.3767
44.6245
44.8692
45.1107
45.3488
45.5834
45.8145
46.0419
46.2655
46.4853
46.7012
46.9132
47.1212
47.3252
47.5252
47.7211