/*--------------------------------*- C++ -*----------------------------------*\
| =========                 |                                                 |
| \\      /  F ield         | OpenFOAM: The Open Source CFD Toolbox           |
|  \\    /   O peration     | Version:  2.4.0                                 |
|   \\  /    A nd           | Web:      www.OpenFOAM.org                      |
|    \\/     M anipulation  |                                                 |
\*---------------------------------------------------------------------------*/
FoamFile
{
    version     2.0;
    format      ascii;
    class       volVectorField;
    location    "0.247";
    object      U;
}
// * * * * * * * * * * * * * * * * * * * * * * * * * * * * * * * * * * * * * //

dimensions      [0 1 -1 0 0 0 0];

internalField   nonuniform List<vector> 
17600
(
(5.32676 0.309534 0)
(2.98642 0.0605124 0)
(2.19617 -0.0014818 0)
(1.84916 -0.00350561 0)
(1.7069 -0.00154585 0)
(1.61395 6.27337e-05 0)
(1.53395 0.000289673 0)
(1.49284 -0.00110122 0)
(1.42791 0.0012083 0)
(1.41778 -0.0010099 0)
(1.38021 -0.000142978 0)
(1.37322 0.000743469 0)
(1.35338 -0.000832217 0)
(1.35569 -0.000614978 0)
(1.36282 0.000811984 0)
(1.34398 -0.00106095 0)
(1.44988 -0.00185476 0)
(1.409 0.000735998 0)
(1.62391 -0.00105759 0)
(1.33968 -0.0409986 0)
(8.59504 0.872157 0)
(6.95376 0.382793 0)
(5.80794 0.122277 0)
(5.06136 0.0508177 0)
(4.65261 0.0274736 0)
(4.3835 0.0216181 0)
(4.16947 0.0160001 0)
(4.05099 0.00986209 0)
(3.86573 0.0130187 0)
(3.84574 0.00325545 0)
(3.71491 0.00574971 0)
(3.70211 0.005301 0)
(3.64641 0.000788622 0)
(3.61691 -0.00181293 0)
(3.64927 0.00437133 0)
(3.56461 -0.0123833 0)
(3.83332 -0.00826857 0)
(3.64708 -0.0190841 0)
(4.1664 -0.0123123 0)
(3.88568 -0.0506983 0)
(9.85023 1.02258 0)
(9.35273 0.576018 0)
(8.46735 0.242478 0)
(7.65125 0.129671 0)
(7.09205 0.0804971 0)
(6.70349 0.0600961 0)
(6.38909 0.042831 0)
(6.21909 0.0311358 0)
(5.93063 0.0323486 0)
(5.91121 0.012797 0)
(5.69369 0.0177162 0)
(5.67491 0.0121324 0)
(5.59333 0.00665355 0)
(5.51924 -0.00203794 0)
(5.57718 0.0113147 0)
(5.42811 -0.0271109 0)
(5.78473 -0.0140642 0)
(5.53631 -0.0372832 0)
(6.0879 -0.0565334 0)
(6.03474 -0.0587501 0)
(10.149 0.948376 0)
(10.5804 0.666458 0)
(10.2469 0.332519 0)
(9.65817 0.209196 0)
(9.11779 0.145553 0)
(8.70526 0.111584 0)
(8.33175 0.0785995 0)
(8.15059 0.0612518 0)
(7.77703 0.0580015 0)
(7.77246 0.0271281 0)
(7.48446 0.0356416 0)
(7.45548 0.0209038 0)
(7.35937 0.0168907 0)
(7.24759 -0.000715351 0)
(7.30198 0.0203295 0)
(7.14656 -0.0407017 0)
(7.46385 -0.0242141 0)
(7.29992 -0.0475611 0)
(7.70828 -0.106735 0)
(7.77094 -0.106148 0)
(10.0577 0.806483 0)
(10.937 0.666683 0)
(11.1131 0.360252 0)
(10.9159 0.254553 0)
(10.5739 0.200045 0)
(10.2709 0.164155 0)
(9.90829 0.116679 0)
(9.77851 0.0959407 0)
(9.35477 0.087869 0)
(9.38346 0.0436765 0)
(9.05929 0.0584725 0)
(9.02132 0.0311474 0)
(8.91575 0.0294028 0)
(8.80495 0.00432971 0)
(8.79892 0.0284291 0)
(8.72492 -0.04845 0)
(8.89685 -0.0381257 0)
(8.86701 -0.0538556 0)
(9.19022 -0.14942 0)
(9.22104 -0.125241 0)
(9.96623 0.692175 0)
(10.8778 0.632206 0)
(11.2825 0.33917 0)
(11.3973 0.24942 0)
(11.3158 0.219505 0)
(11.2402 0.199233 0)
(10.9772 0.145135 0)
(10.9819 0.126519 0)
(10.5752 0.117901 0)
(10.6569 0.0586922 0)
(10.3508 0.0836281 0)
(10.3194 0.0428127 0)
(10.2009 0.0406428 0)
(10.1501 0.0142212 0)
(10.0462 0.0344663 0)
(10.089 -0.0522767 0)
(10.1127 -0.0485073 0)
(10.1718 -0.0672531 0)
(10.4623 -0.181058 0)
(10.5239 -0.15307 0)
(9.94781 0.602869 0)
(10.7578 0.596911 0)
(11.188 0.311324 0)
(11.4182 0.218119 0)
(11.4628 0.203632 0)
(11.5959 0.206166 0)
(11.4434 0.151352 0)
(11.6335 0.140007 0)
(11.3277 0.139028 0)
(11.476 0.0646992 0)
(11.2657 0.104912 0)
(11.2721 0.0543285 0)
(11.1454 0.0470956 0)
(11.193 0.0259665 0)
(11.0334 0.0403405 0)
(11.1471 -0.0566761 0)
(11.0829 -0.0515745 0)
(11.2119 -0.0895169 0)
(11.4031 -0.201033 0)
(11.6038 -0.242579 0)
(9.95368 0.52383 0)
(10.6721 0.559303 0)
(11.0781 0.294963 0)
(11.3304 0.189796 0)
(11.3853 0.178011 0)
(11.6051 0.197817 0)
(11.4797 0.141782 0)
(11.7863 0.134018 0)
(11.6177 0.147652 0)
(11.773 0.0556693 0)
(11.7267 0.11387 0)
(11.7952 0.0607902 0)
(11.6826 0.0456968 0)
(11.8166 0.0317392 0)
(11.7136 0.0429694 0)
(11.8361 -0.0569331 0)
(11.7409 -0.0628819 0)
(11.9292 -0.0916551 0)
(12.0266 -0.26271 0)
(12.2561 -0.27983 0)
(9.96768 0.45191 0)
(10.5938 0.513364 0)
(11.0359 0.284622 0)
(11.2276 0.166441 0)
(11.3177 0.15236 0)
(11.537 0.186694 0)
(11.386 0.129615 0)
(11.7014 0.115953 0)
(11.6653 0.150288 0)
(11.7183 0.0387215 0)
(11.8252 0.108721 0)
(11.9402 0.0609567 0)
(11.8454 0.0387662 0)
(12.0038 0.0269927 0)
(12.0264 0.0365015 0)
(12.1297 -0.0555879 0)
(12.0661 -0.0793922 0)
(12.2344 -0.094891 0)
(12.3364 -0.311101 0)
(12.4084 -0.367417 0)
(9.97779 0.389381 0)
(10.4933 0.460105 0)
(11.0141 0.277919 0)
(11.1331 0.148835 0)
(11.3087 0.125283 0)
(11.49 0.177639 0)
(11.3163 0.121731 0)
(11.5932 0.0911994 0)
(11.6403 0.152963 0)
(11.5946 0.0217238 0)
(11.7749 0.0942048 0)
(11.9057 0.0570839 0)
(11.8321 0.0324854 0)
(11.9648 0.0145017 0)
(12.0743 0.0249662 0)
(12.1298 -0.0592699 0)
(12.1648 -0.0863477 0)
(12.2355 -0.12702 0)
(12.3477 -0.318656 0)
(12.3853 -0.463163 0)
(9.9311 0.334565 0)
(10.4617 0.403869 0)
(10.942 0.269172 0)
(11.0498 0.130721 0)
(11.3676 0.0966437 0)
(11.3729 0.174132 0)
(11.3638 0.117297 0)
(11.5086 0.0667305 0)
(11.5641 0.157517 0)
(11.5742 0.00907984 0)
(11.7044 0.0769824 0)
(11.7839 0.052344 0)
(11.8379 0.0267756 0)
(11.8787 0.0033976 0)
(12.0195 0.00818959 0)
(12.0685 -0.0627041 0)
(12.1437 -0.101139 0)
(12.2027 -0.135522 0)
(12.2622 -0.346258 0)
(12.3178 -0.552817 0)
(9.92123 0.288749 0)
(10.4762 0.343003 0)
(10.8328 0.26838 0)
(11.0155 0.101113 0)
(11.3171 0.0758713 0)
(11.2588 0.168681 0)
(11.4435 0.102731 0)
(11.3803 0.0605597 0)
(11.5078 0.150262 0)
(11.637 -0.0041881 0)
(11.5853 0.0748922 0)
(11.6941 0.0400133 0)
(11.8484 0.0171632 0)
(11.8163 -0.00264201 0)
(11.9056 0.00118589 0)
(12.0476 -0.087462 0)
(12.0547 -0.0955179 0)
(12.1726 -0.17215 0)
(12.2294 -0.347359 0)
(12.2635 -0.565409 0)
(9.99997 0.238748 0)
(10.4033 0.294919 0)
(10.744 0.258197 0)
(11.0252 0.081827 0)
(11.1227 0.0588345 0)
(11.2982 0.1488 0)
(11.3905 0.0984817 0)
(11.2629 0.0515746 0)
(11.5396 0.129987 0)
(11.6203 -0.00658085 0)
(11.4956 0.0749382 0)
(11.6945 0.0231788 0)
(11.798 0.00721805 0)
(11.7505 0.00243385 0)
(11.8721 -0.0237171 0)
(11.9956 -0.0856803 0)
(11.9954 -0.117053 0)
(12.0898 -0.182566 0)
(12.1883 -0.378311 0)
(12.2461 -0.581592 0)
(10.0359 0.198865 0)
(10.2839 0.249683 0)
(10.7282 0.2365 0)
(10.98 0.0719664 0)
(11.047 0.042188 0)
(11.3322 0.123404 0)
(11.2901 0.102741 0)
(11.2464 0.0344791 0)
(11.551 0.106489 0)
(11.5328 -0.00337496 0)
(11.5033 0.0702721 0)
(11.7137 0.00339103 0)
(11.6992 0.00839676 0)
(11.7274 -0.00592759 0)
(11.8787 -0.0365405 0)
(11.9259 -0.101434 0)
(11.9793 -0.121036 0)
(12.0314 -0.198716 0)
(12.0965 -0.401517 0)
(12.1717 -0.628428 0)
(9.99122 0.163956 0)
(10.2584 0.204355 0)
(10.7259 0.202947 0)
(10.8994 0.069693 0)
(11.1259 0.0181368 0)
(11.2314 0.110711 0)
(11.2652 0.0992559 0)
(11.2961 0.014262 0)
(11.456 0.0917734 0)
(11.475 -0.00199289 0)
(11.5623 0.0526129 0)
(11.6509 0.00256288 0)
(11.6613 0.00153033 0)
(11.7287 -0.0143275 0)
(11.8457 -0.049661 0)
(11.877 -0.10867 0)
(11.94 -0.130351 0)
(12.0284 -0.217279 0)
(12.0625 -0.414775 0)
(12.0355 -0.681384 0)
(9.98202 0.134049 0)
(10.2881 0.151912 0)
(10.6488 0.178619 0)
(10.8992 0.0538207 0)
(11.1352 0.00791873 0)
(11.1345 0.0977308 0)
(11.2809 0.0858089 0)
(11.307 0.00437205 0)
(11.3374 0.0827809 0)
(11.4881 -0.0155502 0)
(11.5482 0.0480637 0)
(11.575 -0.00367141 0)
(11.6636 -0.00519196 0)
(11.7097 -0.0257066 0)
(11.7984 -0.0575433 0)
(11.8382 -0.122329 0)
(11.9057 -0.138011 0)
(11.9919 -0.239149 0)
(12.053 -0.414408 0)
(11.9964 -0.704983 0)
(10.029 0.103876 0)
(10.26 0.108942 0)
(10.5585 0.148849 0)
(10.9452 0.0379373 0)
(11.0554 0.0019777 0)
(11.1204 0.0824681 0)
(11.2968 0.0672155 0)
(11.2471 0.00270682 0)
(11.3229 0.0654286 0)
(11.4864 -0.0267975 0)
(11.4733 0.0464869 0)
(11.5667 -0.0110685 0)
(11.6447 -0.0154704 0)
(11.6753 -0.033274 0)
(11.7809 -0.0654615 0)
(11.8046 -0.132978 0)
(11.8692 -0.151025 0)
(11.9518 -0.254327 0)
(12.0186 -0.43272 0)
(11.9824 -0.670364 0)
(10.0381 0.0713265 0)
(10.2119 0.0740746 0)
(10.5455 0.109468 0)
(10.932 0.0261401 0)
(11.03 -0.00318689 0)
(11.1254 0.0617284 0)
(11.2883 0.05655 0)
(11.2143 -0.00395214 0)
(11.3571 0.046924 0)
(11.4229 -0.0278919 0)
(11.4545 0.0341179 0)
(11.5866 -0.0155778 0)
(11.5968 -0.0265146 0)
(11.6802 -0.0350108 0)
(11.757 -0.0826564 0)
(11.7766 -0.130317 0)
(11.8451 -0.171576 0)
(11.9404 -0.257054 0)
(11.9839 -0.462274 0)
(11.943 -0.637215 0)
(10.0091 0.0506738 0)
(10.2136 0.0281836 0)
(10.5611 0.0775937 0)
(10.8942 0.00657252 0)
(11.0513 -0.00408537 0)
(11.1209 0.0406385 0)
(11.242 0.0440984 0)
(11.2556 -0.0109814 0)
(11.3315 0.031842 0)
(11.386 -0.0327758 0)
(11.4871 0.0240591 0)
(11.5582 -0.025064 0)
(11.5911 -0.0297514 0)
(11.6872 -0.0486978 0)
(11.7168 -0.0853929 0)
(11.7781 -0.145443 0)
(11.8351 -0.183022 0)
(11.9154 -0.269971 0)
(11.9457 -0.473223 0)
(11.9522 -0.641287 0)
(10.0073 0.0214308 0)
(10.2327 -0.0112226 0)
(10.5452 0.0398991 0)
(10.894 -0.00370102 0)
(11.0442 -0.0141521 0)
(11.1054 0.0320967 0)
(11.2105 0.0253044 0)
(11.2947 -0.0199235 0)
(11.2857 0.0243849 0)
(11.4073 -0.0433125 0)
(11.4857 0.0149402 0)
(11.521 -0.0288491 0)
(11.6136 -0.0367105 0)
(11.6767 -0.0637145 0)
(11.7037 -0.0823809 0)
(11.7658 -0.165611 0)
(11.8211 -0.181221 0)
(11.8746 -0.298374 0)
(11.9373 -0.465042 0)
(11.9858 -0.701297 0)
(10.0164 -0.000758503 0)
(10.2284 -0.0561204 0)
(10.5511 0.0106122 0)
(10.8958 -0.0267595 0)
(11.0274 -0.0104213 0)
(11.075 0.0119731 0)
(11.2485 0.00755627 0)
(11.2613 -0.0254344 0)
(11.3023 0.00873201 0)
(11.4268 -0.0481233 0)
(11.4515 0.0053292 0)
(11.5245 -0.0339892 0)
(11.637 -0.0519645 0)
(11.6626 -0.0597317 0)
(11.6796 -0.0993315 0)
(11.7705 -0.167293 0)
(11.7995 -0.191549 0)
(11.8503 -0.31487 0)
(11.9576 -0.47402 0)
(11.9534 -0.735625 0)
(10 -0.0288023 0)
(10.2413 -0.0970218 0)
(10.5823 -0.0262189 0)
(10.8774 -0.0364346 0)
(11.0171 -0.0160713 0)
(11.0954 -0.00279991 0)
(11.2637 -0.0112648 0)
(11.2388 -0.0310479 0)
(11.346 -0.00507421 0)
(11.4166 -0.0540492 0)
(11.4534 0.0010121 0)
(11.5412 -0.0485604 0)
(11.6466 -0.0562785 0)
(11.6401 -0.0647974 0)
(11.6832 -0.105984 0)
(11.7807 -0.175047 0)
(11.7816 -0.206486 0)
(11.8632 -0.323315 0)
(11.9634 -0.495068 0)
(11.7976 -0.68008 0)
(9.98879 -0.0546703 0)
(10.2777 -0.14321 0)
(10.5826 -0.0549996 0)
(10.8671 -0.0486848 0)
(11.0321 -0.0208252 0)
(11.1432 -0.0242468 0)
(11.2225 -0.0252679 0)
(11.2882 -0.0395476 0)
(11.345 -0.0225447 0)
(11.4219 -0.054034 0)
(11.4676 -0.0112029 0)
(11.5659 -0.0560277 0)
(11.6301 -0.0624888 0)
(11.6416 -0.0681487 0)
(11.7171 -0.118244 0)
(11.7778 -0.18081 0)
(11.7759 -0.215785 0)
(11.8787 -0.333092 0)
(11.9275 -0.514124 0)
(11.7307 -0.628019 0)
(9.9953 -0.0826927 0)
(10.293 -0.1895 0)
(10.5771 -0.0794157 0)
(10.8837 -0.0647401 0)
(11.0842 -0.0307641 0)
(11.1358 -0.0387532 0)
(11.2271 -0.0394258 0)
(11.3147 -0.0511452 0)
(11.3469 -0.0338626 0)
(11.4398 -0.0577726 0)
(11.4847 -0.0215319 0)
(11.5831 -0.0640922 0)
(11.6259 -0.064121 0)
(11.675 -0.0804398 0)
(11.7314 -0.123245 0)
(11.7675 -0.187491 0)
(11.7969 -0.224555 0)
(11.8874 -0.34806 0)
(11.8696 -0.511984 0)
(11.7441 -0.635766 0)
(9.99441 -0.11848 0)
(10.2978 -0.2264 0)
(10.5994 -0.113421 0)
(10.9355 -0.076718 0)
(11.1062 -0.0426701 0)
(11.1236 -0.0456448 0)
(11.2632 -0.0617545 0)
(11.3188 -0.0564588 0)
(11.3706 -0.0463197 0)
(11.4598 -0.0665661 0)
(11.5164 -0.0266706 0)
(11.5865 -0.0762476 0)
(11.6487 -0.065801 0)
(11.7096 -0.0945067 0)
(11.7228 -0.119746 0)
(11.7825 -0.204304 0)
(11.8351 -0.223664 0)
(11.8638 -0.36989 0)
(11.8551 -0.492148 0)
(11.8163 -0.707612 0)
(9.9835 -0.145478 0)
(10.3236 -0.277684 0)
(10.6497 -0.138349 0)
(10.9725 -0.097345 0)
(11.0973 -0.0411952 0)
(11.1574 -0.0698105 0)
(11.2799 -0.073605 0)
(11.3497 -0.0679024 0)
(11.3957 -0.0616215 0)
(11.4929 -0.0681934 0)
(11.5404 -0.0395067 0)
(11.5965 -0.0795206 0)
(11.6876 -0.0767508 0)
(11.7256 -0.0945668 0)
(11.724 -0.132045 0)
(11.8306 -0.207181 0)
(11.8519 -0.23227 0)
(11.8392 -0.380645 0)
(11.8932 -0.490312 0)
(11.8979 -0.765329 0)
(9.97788 -0.188673 0)
(10.3653 -0.316095 0)
(10.695 -0.171889 0)
(10.9804 -0.100823 0)
(11.1274 -0.0590759 0)
(11.1963 -0.0792884 0)
(11.3072 -0.0950062 0)
(11.3882 -0.073569 0)
(11.4239 -0.0750248 0)
(11.5237 -0.0744312 0)
(11.5698 -0.0457884 0)
(11.6199 -0.0894089 0)
(11.729 -0.0819229 0)
(11.7351 -0.0993292 0)
(11.7662 -0.140913 0)
(11.8626 -0.211635 0)
(11.8555 -0.241829 0)
(11.8568 -0.377722 0)
(11.9514 -0.517793 0)
(11.9167 -0.758304 0)
(9.98059 -0.226198 0)
(10.4052 -0.366467 0)
(10.7261 -0.189016 0)
(11.016 -0.117995 0)
(11.182 -0.0711104 0)
(11.2274 -0.0962754 0)
(11.3483 -0.111738 0)
(11.4192 -0.0796049 0)
(11.4595 -0.0893618 0)
(11.5591 -0.0815434 0)
(11.611 -0.0518161 0)
(11.6557 -0.0999813 0)
(11.7729 -0.0872105 0)
(11.7532 -0.10357 0)
(11.8218 -0.150225 0)
(11.8789 -0.214161 0)
(11.8765 -0.248957 0)
(11.9151 -0.383963 0)
(11.9691 -0.541201 0)
(11.89 -0.71499 0)
(9.992 -0.274452 0)
(10.4379 -0.412035 0)
(10.7805 -0.202952 0)
(11.0684 -0.138392 0)
(11.2299 -0.0842031 0)
(11.2491 -0.113531 0)
(11.3996 -0.123177 0)
(11.444 -0.0894787 0)
(11.5132 -0.100739 0)
(11.6013 -0.088797 0)
(11.6682 -0.0598822 0)
(11.6833 -0.109486 0)
(11.8305 -0.0891413 0)
(11.7674 -0.112798 0)
(11.8849 -0.154125 0)
(11.889 -0.220543 0)
(11.9439 -0.250854 0)
(11.9405 -0.39829 0)
(11.9687 -0.541157 0)
(11.871 -0.7126 0)
(10.0172 -0.328585 0)
(10.4715 -0.455927 0)
(10.8523 -0.217913 0)
(11.1039 -0.154125 0)
(11.2737 -0.105721 0)
(11.2649 -0.122412 0)
(11.4753 -0.145171 0)
(11.4598 -0.0910332 0)
(11.6041 -0.118239 0)
(11.6297 -0.0956757 0)
(11.7349 -0.0662371 0)
(11.7064 -0.119673 0)
(11.8948 -0.091911 0)
(11.7819 -0.119962 0)
(11.9662 -0.159019 0)
(11.8964 -0.228766 0)
(12.028 -0.247931 0)
(11.9086 -0.41122 0)
(11.9724 -0.522267 0)
(11.8014 -0.756875 0)
(10.0509 -0.386978 0)
(10.5006 -0.50364 0)
(10.9184 -0.224303 0)
(11.1382 -0.178596 0)
(11.3179 -0.119316 0)
(11.3067 -0.144534 0)
(11.5643 -0.157583 0)
(11.4829 -0.0990509 0)
(11.7096 -0.133832 0)
(11.6445 -0.0993375 0)
(11.8043 -0.0746268 0)
(11.7394 -0.126788 0)
(11.9556 -0.0982238 0)
(11.8119 -0.122553 0)
(12.0309 -0.17023 0)
(11.8909 -0.225489 0)
(12.037 -0.250489 0)
(11.8161 -0.404744 0)
(11.8774 -0.509481 0)
(11.5095 -0.780377 0)
(10.0709 -0.456645 0)
(10.5259 -0.541708 0)
(10.9854 -0.238138 0)
(11.2026 -0.197839 0)
(11.366 -0.141937 0)
(11.4016 -0.161698 0)
(11.6293 -0.171291 0)
(11.5366 -0.108112 0)
(11.7905 -0.144432 0)
(11.6562 -0.105217 0)
(11.8643 -0.0827729 0)
(11.7645 -0.134173 0)
(11.9555 -0.103293 0)
(11.7995 -0.126546 0)
(11.9739 -0.173242 0)
(11.7507 -0.218985 0)
(11.8529 -0.245883 0)
(11.5268 -0.386137 0)
(11.4646 -0.489366 0)
(10.8783 -0.738975 0)
(10.0668 -0.528096 0)
(10.5627 -0.578497 0)
(11.0884 -0.255597 0)
(11.2931 -0.221218 0)
(11.433 -0.167221 0)
(11.5153 -0.179251 0)
(11.6484 -0.180315 0)
(11.5951 -0.119031 0)
(11.7855 -0.151355 0)
(11.6018 -0.108961 0)
(11.8067 -0.0921021 0)
(11.6163 -0.133484 0)
(11.7378 -0.104219 0)
(11.5428 -0.12473 0)
(11.6066 -0.165411 0)
(11.3045 -0.20367 0)
(11.3206 -0.230567 0)
(10.8905 -0.352996 0)
(10.6763 -0.447447 0)
(9.97549 -0.650631 0)
(10.0445 -0.607816 0)
(10.6425 -0.609009 0)
(11.2339 -0.281737 0)
(11.3789 -0.244946 0)
(11.4904 -0.194494 0)
(11.543 -0.192506 0)
(11.5385 -0.181586 0)
(11.4708 -0.127881 0)
(11.5009 -0.146113 0)
(11.2528 -0.105981 0)
(11.3737 -0.0911634 0)
(11.0759 -0.120008 0)
(11.1236 -0.0960246 0)
(10.8748 -0.112545 0)
(10.8435 -0.145674 0)
(10.4903 -0.179207 0)
(10.4332 -0.20339 0)
(9.93052 -0.306455 0)
(9.62301 -0.387296 0)
(8.855 -0.547921 0)
(10.0412 -0.696115 0)
(10.7763 -0.638949 0)
(11.345 -0.31854 0)
(11.3495 -0.269118 0)
(11.3317 -0.213175 0)
(11.2164 -0.189744 0)
(11.0242 -0.16737 0)
(10.8586 -0.119402 0)
(10.7202 -0.124126 0)
(10.4263 -0.0904598 0)
(10.4568 -0.0769944 0)
(10.1068 -0.0968672 0)
(10.108 -0.0802449 0)
(9.83307 -0.0926815 0)
(9.74565 -0.119159 0)
(9.37725 -0.148845 0)
(9.267 -0.168458 0)
(8.73195 -0.252463 0)
(8.36896 -0.314935 0)
(7.5537 -0.446596 0)
(10.1099 -0.809253 0)
(10.857 -0.671053 0)
(11.1743 -0.34686 0)
(10.8683 -0.267994 0)
(10.5869 -0.196617 0)
(10.2611 -0.157503 0)
(9.9261 -0.131819 0)
(9.68809 -0.0932209 0)
(9.45978 -0.0913901 0)
(9.17345 -0.0681568 0)
(9.14402 -0.0566114 0)
(8.8017 -0.0712002 0)
(8.77805 -0.0616529 0)
(8.50482 -0.0698401 0)
(8.38887 -0.090292 0)
(8.03318 -0.115593 0)
(7.88468 -0.129708 0)
(7.3563 -0.193372 0)
(6.95822 -0.239577 0)
(6.16297 -0.340566 0)
(10.1816 -0.949982 0)
(10.5213 -0.66922 0)
(10.2986 -0.324034 0)
(9.61646 -0.217529 0)
(9.12832 -0.144309 0)
(8.70091 -0.106776 0)
(8.33435 -0.0881788 0)
(8.08572 -0.0617807 0)
(7.8426 -0.0584641 0)
(7.59755 -0.0456372 0)
(7.53658 -0.0358753 0)
(7.24363 -0.0471029 0)
(7.20466 -0.0427645 0)
(6.95609 -0.0468327 0)
(6.83419 -0.0617657 0)
(6.51084 -0.0817691 0)
(6.34195 -0.0896991 0)
(5.855 -0.134199 0)
(5.45345 -0.164492 0)
(4.71822 -0.239413 0)
(9.86799 -1.02299 0)
(9.31308 -0.577803 0)
(8.50506 -0.237606 0)
(7.62092 -0.134282 0)
(7.09902 -0.0806606 0)
(6.69943 -0.056578 0)
(6.38652 -0.048342 0)
(6.17117 -0.0331139 0)
(5.96596 -0.0306592 0)
(5.77689 -0.0257473 0)
(5.71148 -0.0180501 0)
(5.49007 -0.0265794 0)
(5.4421 -0.0252343 0)
(5.23899 -0.0260527 0)
(5.12963 -0.0358481 0)
(4.85514 -0.0495955 0)
(4.68831 -0.052103 0)
(4.27732 -0.0791687 0)
(3.90758 -0.0951527 0)
(3.2972 -0.14819 0)
(8.60407 -0.872236 0)
(6.93102 -0.383917 0)
(5.8289 -0.119904 0)
(5.04506 -0.0527895 0)
(4.65523 -0.0282855 0)
(4.37838 -0.0192857 0)
(4.16755 -0.018523 0)
(4.01644 -0.0117963 0)
(3.87999 -0.0107798 0)
(3.75632 -0.0104585 0)
(3.70604 -0.00555395 0)
(3.56635 -0.0109667 0)
(3.51903 -0.0109429 0)
(3.37974 -0.00998438 0)
(3.29794 -0.0149882 0)
(3.09506 -0.0223691 0)
(2.95799 -0.0215072 0)
(2.66135 -0.033511 0)
(2.37396 -0.039105 0)
(1.95311 -0.0709201 0)
(5.32926 -0.309375 0)
(2.97911 -0.0607789 0)
(2.20126 0.00195494 0)
(1.84607 0.00324312 0)
(1.70545 0.00108192 0)
(1.61039 0.000805597 0)
(1.53468 -0.00079618 0)
(1.47571 0.000362941 0)
(1.429 0.00012765 0)
(1.38241 -0.00083315 0)
(1.36229 0.000869884 0)
(1.3147 -0.00091203 0)
(1.28617 -0.000914691 0)
(1.23081 1.21219e-05 0)
(1.19643 -0.000804208 0)
(1.10563 -0.00236972 0)
(1.03726 -0.000880973 0)
(0.913024 -0.00229446 0)
(0.783761 -0.00290854 0)
(0.62041 -0.00889644 0)
(2.24128 -0.212779 0)
(2.34867 1.0269 0)
(4.56607 1.53022 0)
(6.32147 0.867961 0)
(7.20917 -0.0965757 0)
(8.32258 -0.601232 0)
(8.89945 -0.632906 0)
(9.40274 -1.76934 0)
(10.3509 -3.19102 0)
(11.0663 -4.16107 0)
(11.2995 -5.69788 0)
(11.1242 -6.31723 0)
(9.91655 -6.56628 0)
(8.92729 -6.08102 0)
(7.87745 -5.59772 0)
(7.07456 -4.91345 0)
(6.68387 -4.10233 0)
(5.84107 -3.35523 0)
(5.66083 -2.82657 0)
(4.83946 -2.37382 0)
(4.79268 -0.799324 0)
(5.29474 0.0966376 0)
(4.24552 -0.00971222 0)
(4.46274 2.0889 0)
(5.63923 4.6721 0)
(7.43305 5.4607 0)
(8.24002 5.41427 0)
(8.21572 5.05311 0)
(7.8357 4.61904 0)
(8.32839 3.65943 0)
(8.75565 3.46976 0)
(9.0974 3.76813 0)
(10.1681 2.53414 0)
(10.2179 1.13664 0)
(10.7371 0.203941 0)
(11.8453 -0.824914 0)
(12.3354 -2.04194 0)
(12.5412 -3.21182 0)
(12.6305 -4.09043 0)
(12.6079 -4.58169 0)
(12.6062 -4.88069 0)
(12.6886 -5.18057 0)
(12.5343 -5.26649 0)
(12.3015 -5.23804 0)
(12.3347 -5.71723 0)
(12.3473 -6.42097 0)
(11.6123 -6.54803 0)
(10.8842 -6.72484 0)
(10.3725 -7.38154 0)
(9.74128 -7.91343 0)
(8.99439 -7.89395 0)
(7.84569 -7.02024 0)
(6.60452 -5.87134 0)
(5.9192 -5.57903 0)
(5.76379 -6.22656 0)
(5.8904 -6.53846 0)
(6.05593 -6.22408 0)
(5.88316 -6.28689 0)
(5.89657 -6.85775 0)
(6.2525 -7.16179 0)
(6.53426 -6.94798 0)
(6.85658 -6.50335 0)
(7.2295 -5.74812 0)
(7.5801 -4.50875 0)
(8.01474 -3.06682 0)
(8.33032 -1.83625 0)
(8.63135 -0.396146 0)
(8.81489 1.18079 0)
(8.50703 2.31575 0)
(8.38982 3.33402 0)
(8.80891 4.60528 0)
(9.17988 5.66245 0)
(9.76018 6.55855 0)
(9.86622 7.10375 0)
(9.58457 7.05698 0)
(9.34613 6.89791 0)
(9.05867 6.74806 0)
(8.79392 6.51981 0)
(8.33405 6.11267 0)
(8.04168 5.76998 0)
(7.9984 5.74522 0)
(7.70991 5.51253 0)
(7.46933 5.06 0)
(7.37448 4.79292 0)
(7.43341 4.62647 0)
(7.56427 4.55019 0)
(7.92581 4.53658 0)
(8.1856 4.50683 0)
(8.36718 4.36921 0)
(8.47252 4.06394 0)
(8.24663 3.74087 0)
(8.17509 3.47059 0)
(8.10649 3.39944 0)
(8.48631 3.45239 0)
(8.63359 3.53534 0)
(9.17061 3.55273 0)
(9.41742 3.56648 0)
(9.76546 3.41671 0)
(10.1834 3.28938 0)
(10.503 3.16966 0)
(11.0362 3.0729 0)
(11.387 2.86439 0)
(11.6699 2.56543 0)
(12.1423 2.27348 0)
(12.1409 1.83095 0)
(12.2975 1.3141 0)
(12.4436 0.85218 0)
(12.3611 0.213586 0)
(12.4058 -0.324344 0)
(12.3772 -0.755536 0)
(12.1886 -1.3486 0)
(12.1272 -1.85591 0)
(12.0093 -2.38638 0)
(11.8575 -2.7612 0)
(11.8485 -3.21196 0)
(11.5357 -3.82097 0)
(11.6156 -3.91374 0)
(11.3356 -4.22964 0)
(11.1342 -4.41351 0)
(11.0132 -4.6416 0)
(10.3749 -5.15471 0)
(10.219 -4.66194 0)
(9.5331 -5.41758 0)
(9.46013 -7.12246 0)
(9.10817 -7.03589 0)
(8.3618 -6.61315 0)
(8.62946 -7.18536 0)
(9.02006 -7.7686 0)
(9.14163 -8.0221 0)
(9.21289 -7.9122 0)
(9.14987 -7.78336 0)
(9.15823 -7.45831 0)
(8.97706 -6.88699 0)
(8.80201 -6.2562 0)
(8.4783 -5.46496 0)
(8.20833 -4.42931 0)
(7.9561 -3.0968 0)
(7.81733 -1.60153 0)
(7.71119 -0.168782 0)
(7.77531 1.04861 0)
(7.62866 2.46121 0)
(7.48045 4.14443 0)
(7.30435 5.49903 0)
(7.40859 6.48276 0)
(7.38877 7.43244 0)
(7.48817 8.08981 0)
(7.53502 8.42659 0)
(7.75528 8.44654 0)
(7.72482 8.40536 0)
(7.53415 8.13735 0)
(7.66872 7.1645 0)
(7.30849 6.70883 0)
(7.36502 5.66534 0)
(6.82743 5.07565 0)
(7.01795 4.9012 0)
(6.85362 4.67029 0)
(6.82257 4.64489 0)
(7.41322 5.03214 0)
(7.11987 5.63601 0)
(7.75731 5.83788 0)
(8.09992 5.73044 0)
(8.42847 6.01095 0)
(9.13654 5.83355 0)
(9.15194 5.9135 0)
(9.56311 4.9857 0)
(9.55894 3.92032 0)
(9.62201 2.77741 0)
(9.13386 1.93433 0)
(8.94667 0.285682 0)
(8.74442 -1.15341 0)
(7.85046 -2.44388 0)
(7.53438 -2.10202 0)
(7.42102 -2.89224 0)
(7.52383 -3.51865 0)
(7.64749 -4.68319 0)
(7.3665 -4.81744 0)
(7.18017 -5.44762 0)
(6.4987 -5.22672 0)
(6.16821 -5.42367 0)
(5.59669 -5.1172 0)
(5.53102 -5.13068 0)
(5.12754 -4.48073 0)
(5.25398 -3.92787 0)
(5.10382 -2.88973 0)
(4.81724 -2.15583 0)
(4.71875 -1.27939 0)
(4.98659 0.221752 0)
(5.02434 1.27788 0)
(5.43996 2.23853 0)
(5.36989 2.60323 0)
(5.4396 3.0805 0)
(5.84696 3.79996 0)
(5.94069 4.22171 0)
(5.75941 4.36988 0)
(5.42171 4.70531 0)
(5.07426 4.93462 0)
(4.82649 5.38703 0)
(4.73537 6.42151 0)
(5.34198 7.5483 0)
(3.01704 10.8952 0)
(4.61311 -0.0955133 0)
(4.21653 0.479676 0)
(5.62125 0.82468 0)
(7.33199 0.486412 0)
(8.30763 -0.196832 0)
(8.82618 -0.896732 0)
(9.39479 -0.937285 0)
(10.595 -1.96549 0)
(11.4013 -3.49105 0)
(11.9151 -4.35134 0)
(11.9055 -5.65777 0)
(11.3901 -6.06762 0)
(10.2897 -6.12191 0)
(9.16388 -5.71221 0)
(8.3408 -5.19114 0)
(7.33334 -4.66422 0)
(7.06715 -3.78428 0)
(6.06836 -3.13452 0)
(6.04625 -2.57647 0)
(5.26787 -2.12768 0)
(4.83554 -0.827181 0)
(5.62862 0.194023 0)
(4.70465 0.184633 0)
(4.53327 1.62341 0)
(5.86514 3.90712 0)
(7.65518 4.99016 0)
(8.69816 5.2578 0)
(9.03992 5.07154 0)
(8.71484 4.6648 0)
(9.2201 3.52702 0)
(9.45743 3.3029 0)
(9.88594 3.52047 0)
(10.9073 2.33565 0)
(10.9449 0.93349 0)
(11.5145 -0.0907119 0)
(12.4139 -1.06725 0)
(12.8626 -2.20825 0)
(13.0945 -3.28257 0)
(13.0676 -4.05495 0)
(12.9681 -4.53232 0)
(12.9751 -4.87221 0)
(12.9608 -5.13407 0)
(12.671 -5.16223 0)
(12.4527 -5.17455 0)
(12.4799 -5.70191 0)
(12.2931 -6.24706 0)
(11.3824 -6.23218 0)
(10.6854 -6.46087 0)
(10.1511 -7.1433 0)
(9.5241 -7.61871 0)
(8.7443 -7.48451 0)
(7.4792 -6.50549 0)
(6.28279 -5.47519 0)
(5.7404 -5.45188 0)
(5.61901 -6.2243 0)
(5.64663 -6.5738 0)
(5.84505 -6.21196 0)
(5.66955 -6.29307 0)
(5.71227 -6.94875 0)
(6.05102 -7.27689 0)
(6.31123 -7.08778 0)
(6.56648 -6.65553 0)
(6.88071 -5.89124 0)
(7.40397 -4.66136 0)
(7.65887 -3.2614 0)
(8.09234 -1.93801 0)
(8.2892 -0.482837 0)
(8.47103 1.15474 0)
(8.38617 2.36976 0)
(8.16412 3.31077 0)
(8.31557 4.45248 0)
(8.61135 5.4761 0)
(9.3258 6.41165 0)
(9.63125 7.05386 0)
(9.49798 7.12568 0)
(9.31288 6.99525 0)
(9.03239 6.85949 0)
(8.81819 6.67087 0)
(8.39053 6.27362 0)
(8.05425 5.87195 0)
(8.00537 5.80755 0)
(7.74996 5.62295 0)
(7.50171 5.16165 0)
(7.36499 4.80872 0)
(7.38668 4.60007 0)
(7.44954 4.47094 0)
(7.71949 4.39849 0)
(8.01235 4.38369 0)
(8.2352 4.32163 0)
(8.4438 4.05899 0)
(8.31803 3.7932 0)
(8.28746 3.50342 0)
(8.12343 3.34043 0)
(8.48368 3.33549 0)
(8.63446 3.38698 0)
(9.18308 3.38241 0)
(9.56375 3.41276 0)
(9.92378 3.30133 0)
(10.3582 3.14412 0)
(10.6349 2.99698 0)
(11.1312 2.92289 0)
(11.4834 2.71425 0)
(11.6983 2.4007 0)
(12.2755 2.17518 0)
(12.3656 1.78319 0)
(12.4704 1.23766 0)
(12.6841 0.844323 0)
(12.6218 0.233313 0)
(12.6571 -0.33894 0)
(12.643 -0.700831 0)
(12.4389 -1.2936 0)
(12.3317 -1.79603 0)
(12.1678 -2.32286 0)
(11.942 -2.71748 0)
(11.8878 -3.12922 0)
(11.5161 -3.77614 0)
(11.5603 -3.88717 0)
(11.2512 -4.12924 0)
(11.0548 -4.335 0)
(10.9496 -4.49329 0)
(10.2976 -4.96348 0)
(10.1263 -4.50335 0)
(9.48396 -5.29652 0)
(9.38596 -6.98827 0)
(9.06275 -6.83762 0)
(8.26219 -6.5409 0)
(8.58484 -7.28085 0)
(8.95967 -7.85764 0)
(8.97604 -8.07029 0)
(9.01631 -7.88856 0)
(8.90887 -7.75547 0)
(8.88206 -7.42389 0)
(8.70775 -6.81057 0)
(8.52649 -6.13087 0)
(8.13117 -5.32191 0)
(7.81442 -4.30658 0)
(7.57882 -3.00231 0)
(7.4133 -1.56579 0)
(7.34983 -0.136377 0)
(7.31426 1.06248 0)
(7.17417 2.56316 0)
(6.95003 4.20288 0)
(6.82214 5.55168 0)
(6.86495 6.44174 0)
(6.9743 7.41732 0)
(7.03777 8.05813 0)
(7.18532 8.30029 0)
(7.41346 8.43929 0)
(7.46541 8.40073 0)
(7.28309 8.16232 0)
(7.32111 7.17007 0)
(7.26198 6.75632 0)
(7.40763 5.82016 0)
(6.76687 5.05649 0)
(7.01693 4.92208 0)
(7.09781 4.6804 0)
(6.76198 4.52839 0)
(7.42361 4.9364 0)
(7.2548 5.52107 0)
(7.83117 5.663 0)
(8.14851 5.52182 0)
(8.5265 5.8215 0)
(9.19661 5.63444 0)
(9.34553 5.80948 0)
(9.71276 4.94398 0)
(9.78633 3.90349 0)
(9.86342 2.79213 0)
(9.53986 2.08988 0)
(9.254 0.394345 0)
(9.1443 -0.919771 0)
(8.14698 -2.23432 0)
(7.94854 -1.97552 0)
(7.66799 -2.86241 0)
(7.89914 -3.54526 0)
(8.00056 -4.71721 0)
(7.62205 -4.68835 0)
(7.59894 -5.32666 0)
(6.75128 -4.94812 0)
(6.42667 -5.26782 0)
(5.71279 -4.9247 0)
(5.7073 -5.06512 0)
(5.22853 -4.43644 0)
(5.37459 -3.90052 0)
(5.15353 -2.84456 0)
(5.08969 -2.03947 0)
(4.72904 -1.29679 0)
(5.03311 0.153358 0)
(5.05013 1.15253 0)
(5.31942 2.19057 0)
(5.36186 2.62747 0)
(5.2483 3.02329 0)
(5.51262 3.68925 0)
(5.64937 4.29894 0)
(5.39103 4.50048 0)
(5.31075 4.59653 0)
(5.40063 4.97059 0)
(5.45843 5.36372 0)
(5.13566 6.67118 0)
(6.58412 7.3938 0)
(4.22861 11.7369 0)
(6.78881 -0.103608 0)
(6.79732 0.202267 0)
(7.30974 0.300463 0)
(8.6568 -0.0779369 0)
(9.63449 -0.395094 0)
(10.2177 -1.02417 0)
(10.6963 -1.36475 0)
(11.933 -2.23024 0)
(12.3638 -3.67167 0)
(12.6071 -4.42149 0)
(12.4591 -5.5002 0)
(11.562 -5.78126 0)
(10.6235 -5.65449 0)
(9.3378 -5.38643 0)
(8.73635 -4.79888 0)
(7.55964 -4.40763 0)
(7.2727 -3.53525 0)
(6.42792 -2.90393 0)
(6.29275 -2.43477 0)
(5.7407 -1.89139 0)
(5.07027 -0.830049 0)
(5.78615 0.234627 0)
(5.15758 0.472602 0)
(4.70754 1.27196 0)
(6.06065 3.13464 0)
(7.73779 4.46405 0)
(8.83749 5.00239 0)
(9.58312 4.99034 0)
(9.44729 4.63419 0)
(10.083 3.38483 0)
(10.2204 3.1092 0)
(10.6585 3.29552 0)
(11.5573 2.16942 0)
(11.6793 0.739122 0)
(12.1736 -0.321469 0)
(12.8625 -1.25595 0)
(13.2854 -2.36141 0)
(13.4357 -3.33805 0)
(13.291 -3.99864 0)
(13.1775 -4.47625 0)
(13.1467 -4.86137 0)
(13.0013 -5.08014 0)
(12.6506 -5.04738 0)
(12.471 -5.12138 0)
(12.4645 -5.657 0)
(12.0751 -6.00148 0)
(11.047 -5.89075 0)
(10.4158 -6.22578 0)
(9.89116 -6.92521 0)
(9.28729 -7.314 0)
(8.4336 -7.04282 0)
(7.07277 -5.98934 0)
(5.99311 -5.13722 0)
(5.57012 -5.35106 0)
(5.40761 -6.19475 0)
(5.36199 -6.58899 0)
(5.62164 -6.21806 0)
(5.48851 -6.31578 0)
(5.55827 -7.03407 0)
(5.81544 -7.37764 0)
(6.07553 -7.21805 0)
(6.29338 -6.7806 0)
(6.54504 -6.04287 0)
(7.13132 -4.80518 0)
(7.30816 -3.42446 0)
(7.73107 -2.03959 0)
(7.89691 -0.545232 0)
(8.02663 1.09174 0)
(8.15048 2.39662 0)
(7.99109 3.34918 0)
(7.94198 4.34669 0)
(8.04832 5.28013 0)
(8.77648 6.21744 0)
(9.23537 6.96081 0)
(9.2809 7.1764 0)
(9.2084 7.08286 0)
(8.97551 6.93858 0)
(8.8252 6.78352 0)
(8.4428 6.40884 0)
(8.07095 5.97661 0)
(8.00257 5.87063 0)
(7.77347 5.71637 0)
(7.53419 5.25939 0)
(7.36014 4.8339 0)
(7.34908 4.59051 0)
(7.36922 4.41925 0)
(7.54516 4.29235 0)
(7.831 4.25726 0)
(8.07052 4.22825 0)
(8.37659 4.02981 0)
(8.34633 3.8215 0)
(8.38016 3.54481 0)
(8.15067 3.31535 0)
(8.44375 3.21737 0)
(8.59498 3.22591 0)
(9.11722 3.19819 0)
(9.59864 3.20824 0)
(10.0098 3.14608 0)
(10.5224 2.99602 0)
(10.7954 2.83374 0)
(11.2475 2.76155 0)
(11.5946 2.56926 0)
(11.7026 2.24164 0)
(12.2899 2.04895 0)
(12.456 1.71559 0)
(12.5236 1.15176 0)
(12.7869 0.820654 0)
(12.7478 0.251861 0)
(12.7734 -0.366099 0)
(12.7955 -0.657635 0)
(12.6028 -1.2202 0)
(12.4858 -1.72237 0)
(12.2837 -2.2444 0)
(12.0134 -2.6595 0)
(11.9098 -3.02747 0)
(11.4921 -3.68334 0)
(11.4832 -3.83757 0)
(11.1368 -4.01586 0)
(10.9338 -4.26421 0)
(10.8439 -4.3642 0)
(10.1944 -4.75914 0)
(9.99319 -4.34602 0)
(9.42074 -5.1766 0)
(9.27595 -6.84134 0)
(8.98533 -6.62965 0)
(8.14673 -6.47588 0)
(8.51223 -7.37609 0)
(8.86435 -7.92729 0)
(8.78109 -8.09386 0)
(8.8018 -7.84022 0)
(8.66325 -7.70651 0)
(8.59034 -7.39145 0)
(8.43968 -6.74234 0)
(8.23962 -5.97171 0)
(7.7596 -5.16225 0)
(7.4309 -4.19191 0)
(7.15793 -2.88334 0)
(6.98832 -1.5113 0)
(6.96975 -0.142499 0)
(6.81724 1.08577 0)
(6.67088 2.70847 0)
(6.36182 4.2447 0)
(6.32736 5.55969 0)
(6.30327 6.38444 0)
(6.53465 7.35204 0)
(6.59816 8.07611 0)
(6.80331 8.1682 0)
(7.02844 8.41851 0)
(7.18919 8.40594 0)
(7.10931 8.18164 0)
(6.99384 7.18496 0)
(7.04116 6.69803 0)
(7.3751 5.88512 0)
(6.84463 5.11352 0)
(6.88663 4.88483 0)
(7.30695 4.68121 0)
(6.72149 4.48182 0)
(7.36632 4.81054 0)
(7.35766 5.36984 0)
(7.90958 5.51063 0)
(8.25169 5.31464 0)
(8.67546 5.6101 0)