/*--------------------------------*- C++ -*----------------------------------*\
| =========                 |                                                 |
| \\      /  F ield         | OpenFOAM: The Open Source CFD Toolbox           |
|  \\    /   O peration     | Version:  2.4.0                                 |
|   \\  /    A nd           | Web:      www.OpenFOAM.org                      |
|    \\/     M anipulation  |                                                 |
\*---------------------------------------------------------------------------*/
FoamFile
{
    version     2.0;
    format      ascii;
    class       volVectorField;
    location    "0.199";
    object      UMean;
}
// * * * * * * * * * * * * * * * * * * * * * * * * * * * * * * * * * * * * * //

dimensions      [0 1 -1 0 0 0 0];

internalField   nonuniform List<vector> 
4400
(
(5.42756 0.314377 0)
(3.38574 0.0612093 0)
(2.65892 0.00153593 0)
(2.31922 -0.00224937 0)
(2.17472 -0.0014519 0)
(2.10234 -0.00075401 0)
(2.06185 -0.000225873 0)
(2.03586 -0.000310945 0)
(2.03534 0.00101806 0)
(1.87366 -0.0533728 0)
(8.67656 0.847678 0)
(7.60227 0.340507 0)
(6.70238 0.114159 0)
(6.00925 0.0523585 0)
(5.63109 0.0247256 0)
(5.41401 0.0134119 0)
(5.29119 0.0087668 0)
(5.20763 0.00358524 0)
(5.16322 0.0140092 0)
(5.10163 -0.11021 0)
(9.85718 0.92421 0)
(10.0225 0.469575 0)
(9.52993 0.208286 0)
(8.82072 0.123813 0)
(8.34786 0.0702497 0)
(8.03128 0.0400453 0)
(7.85934 0.0255743 0)
(7.71259 0.0143237 0)
(7.67093 0.0139281 0)
(7.56046 -0.106456 0)
(10.0791 0.794589 0)
(11.1205 0.488292 0)
(11.2657 0.25887 0)
(10.8438 0.187919 0)
(10.4673 0.122762 0)
(10.1363 0.0753579 0)
(9.97645 0.0491845 0)
(9.77543 0.0286147 0)
(9.77548 0.0204133 0)
(9.57245 -0.101191 0)
(10.0091 0.637271 0)
(11.3214 0.427503 0)
(11.9528 0.239611 0)
(11.9363 0.206549 0)
(11.8447 0.156812 0)
(11.6213 0.104701 0)
(11.5692 0.0745988 0)
(11.3638 0.0419344 0)
(11.4112 0.0326185 0)
(11.2132 -0.10732 0)
(9.98239 0.507342 0)
(11.2381 0.353013 0)
(12.0151 0.182809 0)
(12.2166 0.175699 0)
(12.3955 0.150047 0)
(12.3775 0.109988 0)
(12.4832 0.0827621 0)
(12.4056 0.0518729 0)
(12.4866 0.0328488 0)
(12.3917 -0.0876838 0)
(9.98428 0.391025 0)
(11.1731 0.283403 0)
(11.9501 0.132998 0)
(12.2024 0.131476 0)
(12.4398 0.118735 0)
(12.5573 0.0894806 0)
(12.7508 0.0693085 0)
(12.8345 0.0453974 0)
(12.9689 0.0167428 0)
(13.0033 -0.0371707 0)
(9.97142 0.271929 0)
(11.145 0.213014 0)
(11.8869 0.0867187 0)
(12.1789 0.0974711 0)
(12.3856 0.0790952 0)
(12.5491 0.069051 0)
(12.737 0.0396118 0)
(12.8903 0.0353282 0)
(13.0403 -0.0138313 0)
(13.1364 -0.0371596 0)
(9.95719 0.165095 0)
(11.1259 0.126036 0)
(11.8455 0.0530208 0)
(12.1657 0.0550137 0)
(12.3493 0.0499911 0)
(12.5292 0.0366385 0)
(12.7019 0.0237209 0)
(12.8703 0.00672816 0)
(13.0095 -0.0257199 0)
(13.1036 -0.093627 0)
(9.95775 0.05232 0)
(11.1086 0.0454823 0)
(11.8318 0.0132572 0)
(12.1531 0.0220591 0)
(12.3375 0.0107954 0)
(12.5141 0.0148983 0)
(12.6884 -0.0041462 0)
(12.8522 -0.00832316 0)
(12.9914 -0.0540027 0)
(13.071 -0.117049 0)
(9.95774 -0.0538753 0)
(11.1091 -0.0420582 0)
(11.8316 -0.0183835 0)
(12.1533 -0.0186108 0)
(12.3371 -0.0203112 0)
(12.5145 -0.0162405 0)
(12.6872 -0.0232137 0)
(12.8508 -0.0328734 0)
(12.9849 -0.0740268 0)
(13.059 -0.139299 0)
(9.96491 -0.16547 0)
(11.1204 -0.124338 0)
(11.8505 -0.0559449 0)
(12.1614 -0.0541729 0)
(12.3531 -0.0563379 0)
(12.5248 -0.0421542 0)
(12.7015 -0.0463193 0)
(12.8588 -0.0535541 0)
(12.9931 -0.0948424 0)
(13.0602 -0.16099 0)
(9.98617 -0.275058 0)
(11.1328 -0.208095 0)
(11.8965 -0.0927756 0)
(12.1689 -0.0926905 0)
(12.3934 -0.0898648 0)
(12.5375 -0.0695401 0)
(12.7377 -0.0683517 0)
(12.8674 -0.0741225 0)
(13.0102 -0.114425 0)
(13.0453 -0.183794 0)
(10.0015 -0.391354 0)
(11.1538 -0.282 0)
(11.9659 -0.135602 0)
(12.183 -0.130376 0)
(12.4553 -0.12495 0)
(12.5342 -0.0953225 0)
(12.7574 -0.0906246 0)
(12.7894 -0.0919101 0)
(12.921 -0.130057 0)
(12.8248 -0.199144 0)
(9.99002 -0.509364 0)
(11.2253 -0.350505 0)
(12.0253 -0.186286 0)
(12.2025 -0.173315 0)
(12.4057 -0.156884 0)
(12.3561 -0.114993 0)
(12.4779 -0.10271 0)
(12.3444 -0.0977696 0)
(12.3885 -0.128457 0)
(12.1114 -0.194529 0)
(10.0131 -0.637979 0)
(11.3135 -0.426032 0)
(11.9596 -0.24206 0)
(11.9249 -0.204868 0)
(11.8512 -0.162997 0)
(11.5975 -0.108955 0)
(11.5515 -0.092186 0)
(11.287 -0.0811125 0)
(11.2504 -0.114174 0)
(10.8578 -0.150838 0)
(10.0804 -0.79529 0)
(11.1151 -0.487492 0)
(11.2708 -0.260616 0)
(10.8316 -0.186793 0)
(10.4761 -0.12782 0)
(10.1003 -0.0781193 0)
(9.96604 -0.0645879 0)
(9.66189 -0.0566159 0)
(9.59882 -0.0883092 0)
(9.14064 -0.09739 0)
(9.85688 -0.924477 0)
(10.0197 -0.469098 0)
(9.53255 -0.209288 0)
(8.81126 -0.123318 0)
(8.35356 -0.0733835 0)
(7.99423 -0.0423185 0)
(7.84952 -0.0358036 0)
(7.57792 -0.0335152 0)
(7.51293 -0.0565758 0)
(7.03318 -0.0561179 0)
(8.6761 -0.847805 0)
(7.60093 -0.340348 0)
(6.7031 -0.114607 0)
(6.00315 -0.0522475 0)
(5.6324 -0.0261811 0)
(5.38442 -0.0147247 0)
(5.27691 -0.013623 0)
(5.08552 -0.014811 0)
(5.02074 -0.0265537 0)
(4.61326 -0.0240483 0)
(5.42725 -0.314402 0)
(3.38534 -0.0611763 0)
(2.65868 -0.00160709 0)
(2.31668 0.00227559 0)
(2.17337 0.00131539 0)
(2.08808 0.000493731 0)
(2.04713 -0.000196198 0)
(1.97169 -0.00115419 0)
(1.92378 -0.00250057 0)
(1.7292 0.00924418 0)
(2.90814 -0.164788 0)
(3.25132 -0.0707229 0)
(3.86675 -0.146135 0)
(4.18595 -0.201649 0)
(4.65715 -0.260419 0)
(4.87386 -0.31451 0)
(5.32462 -0.375025 0)
(5.56018 -0.470909 0)
(6.02125 -0.582159 0)
(6.21204 -0.604398 0)
(6.63112 -0.708266 0)
(6.89773 -0.755972 0)
(7.31842 -0.898353 0)
(7.6593 -1.01811 0)
(8.06358 -1.14128 0)
(8.41409 -1.26206 0)
(8.82013 -1.46093 0)
(9.12714 -1.61283 0)
(9.39562 -1.78311 0)
(9.6864 -1.91008 0)
(9.86213 -2.04114 0)
(10.0988 -2.13134 0)
(10.2046 -2.22363 0)
(10.3986 -2.28497 0)
(10.4891 -2.34637 0)
(10.5693 -2.35549 0)
(10.5521 -2.34783 0)
(10.5138 -2.30926 0)
(10.392 -2.24594 0)
(10.2192 -2.1151 0)
(10.0376 -2.00645 0)
(9.92275 -1.89689 0)
(9.7158 -1.80452 0)
(9.56727 -1.67059 0)
(9.2602 -1.5593 0)
(9.04466 -1.38111 0)
(8.75103 -1.2249 0)
(8.43072 -0.988625 0)
(8.23312 -0.856292 0)
(7.95637 -0.661027 0)
(7.88247 -0.534635 0)
(7.65828 -0.349935 0)
(7.59035 -0.250553 0)
(7.46495 -0.0452352 0)
(7.41904 0.037151 0)
(7.3255 0.269892 0)
(7.3295 0.332349 0)
(7.16261 0.585818 0)
(7.22627 0.546346 0)
(7.07633 0.734681 0)
(7.13909 0.619372 0)
(7.04883 0.847196 0)
(7.09114 0.691973 0)
(7.0568 0.981053 0)
(7.10097 0.787205 0)
(7.09249 1.13162 0)
(7.13922 0.838944 0)
(7.11319 1.19939 0)
(7.14118 0.779426 0)
(7.1531 1.15082 0)
(7.18843 0.659504 0)
(7.18443 1.04665 0)
(7.14092 0.424821 0)
(7.09702 0.810119 0)
(7.00469 0.10962 0)
(6.97484 0.587754 0)
(6.90548 -0.125256 0)
(6.90285 0.455741 0)
(6.88035 -0.253798 0)
(6.83127 0.381244 0)
(6.84962 -0.342767 0)
(6.76045 0.349306 0)
(6.79848 -0.370059 0)
(6.72109 0.35095 0)
(6.76242 -0.378088 0)
(6.7747 0.313922 0)
(6.83388 -0.423713 0)
(6.77606 0.307794 0)
(6.89294 -0.388712 0)
(6.68481 0.370911 0)
(6.88169 -0.270769 0)
(6.58193 0.445145 0)
(6.85711 -0.127732 0)
(6.41775 0.588343 0)
(6.83971 0.0788368 0)
(6.27415 0.759985 0)
(6.7679 0.3047 0)
(6.17877 1.00575 0)
(6.72246 0.640139 0)
(6.11721 1.31687 0)
(6.64346 1.02155 0)
(6.02975 1.71426 0)
(6.57227 1.47641 0)
(5.95176 2.27234 0)
(6.44232 2.04081 0)
(5.6577 3.05137 0)
(6.46086 2.86475 0)
(5.30285 4.51883 0)
(6.49483 4.71968 0)
(3.81269 8.69134 0)
(5.40591 -0.184382 0)
(5.48331 -0.155382 0)
(5.81101 -0.24817 0)
(5.96205 -0.329188 0)
(6.29466 -0.400668 0)
(6.45594 -0.449551 0)
(6.79332 -0.52122 0)
(6.99612 -0.601292 0)
(7.34159 -0.713666 0)
(7.52575 -0.747695 0)
(7.82794 -0.845201 0)
(8.07651 -0.903987 0)
(8.42385 -1.03482 0)
(8.75626 -1.16873 0)
(9.1009 -1.30346 0)
(9.41166 -1.41966 0)
(9.75141 -1.59314 0)
(10.0168 -1.72967 0)
(10.2208 -1.88496 0)
(10.4373 -2.00244 0)
(10.5408 -2.11588 0)
(10.7157 -2.19516 0)
(10.7907 -2.27588 0)
(10.8975 -2.32656 0)
(10.9193 -2.36099 0)
(10.887 -2.34596 0)
(10.8131 -2.31988 0)
(10.6825 -2.25292 0)
(10.4578 -2.16629 0)
(10.2457 -2.04174 0)
(10.0432 -1.93781 0)
(9.88614 -1.82499 0)
(9.61809 -1.71556 0)
(9.4214 -1.56084 0)
(9.04664 -1.43458 0)
(8.80992 -1.25512 0)
(8.45024 -1.09627 0)
(8.16201 -0.872695 0)
(7.94251 -0.763548 0)
(7.67697 -0.577427 0)
(7.62218 -0.471832 0)
(7.37602 -0.294398 0)
(7.35273 -0.204942 0)
(7.20844 -0.0117721 0)
(7.2116 0.0619614 0)
(7.10849 0.296526 0)
(7.14546 0.360412 0)
(6.9722 0.61202 0)
(7.07582 0.552612 0)
(6.93167 0.760409 0)
(7.00526 0.621692 0)
(6.90426 0.867865 0)
(6.98479 0.688529 0)
(6.92584 0.998953 0)
(6.98309 0.768342 0)
(6.99402 1.1422 0)
(7.00958 0.818306 0)
(7.06824 1.21641 0)
(7.04428 0.751037 0)
(7.12663 1.16301 0)
(7.13607 0.618886 0)
(7.18256 1.08627 0)
(7.15003 0.40361 0)
(7.11621 0.878203 0)
(7.0274 0.0948277 0)
(6.99942 0.665421 0)
(6.92762 -0.159396 0)
(6.89492 0.512054 0)
(6.89683 -0.298499 0)
(6.81679 0.443183 0)
(6.87555 -0.380653 0)
(6.72342 0.425012 0)
(6.83248 -0.424642 0)
(6.70175 0.42471 0)
(6.83934 -0.463508 0)
(6.76488 0.387778 0)
(6.91091 -0.511275 0)
(6.75151 0.403905 0)
(6.95396 -0.483811 0)
(6.65733 0.48875 0)
(7.02082 -0.387535 0)
(6.58338 0.576566 0)
(7.06709 -0.238722 0)
(6.47787 0.729219 0)
(7.11676 -0.0446582 0)
(6.40494 0.915009 0)
(7.0614 0.192157 0)
(6.30102 1.17578 0)
(6.94699 0.493815 0)
(6.21866 1.50469 0)
(6.90676 0.87631 0)
(6.12581 1.91254 0)
(6.8729 1.2921 0)
(6.09927 2.4787 0)
(6.96229 1.9277 0)
(5.87428 3.37305 0)
(6.85416 2.72846 0)
(5.25941 4.80553 0)
(8.2125 4.18718 0)
(5.821 9.18701 0)
(7.75666 -0.224782 0)
(7.73653 -0.223013 0)
(7.93569 -0.310521 0)
(8.02582 -0.393656 0)
(8.22998 -0.477858 0)
(8.33433 -0.525883 0)
(8.5375 -0.601553 0)
(8.66958 -0.677782 0)
(8.88429 -0.791002 0)
(9.02339 -0.844724 0)
(9.22609 -0.938851 0)
(9.42898 -1.01854 0)
(9.68671 -1.14648 0)
(9.95636 -1.286 0)
(10.2108 -1.42045 0)
(10.4145 -1.536 0)
(10.6474 -1.6878 0)
(10.8381 -1.80954 0)
(10.9688 -1.94564 0)
(11.0842 -2.04849 0)
(11.128 -2.14917 0)
(11.2153 -2.2283 0)
(11.233 -2.29602 0)
(11.2389 -2.33209 0)
(11.1732 -2.34118 0)
(11.0572 -2.30915 0)
(10.9145 -2.26136 0)
(10.6882 -2.16474 0)
(10.4159 -2.06792 0)
(10.1927 -1.95409 0)
(9.94637 -1.85045 0)
(9.74556 -1.72447 0)
(9.40591 -1.59404 0)
(9.15144 -1.42666 0)
(8.74231 -1.29181 0)
(8.49257 -1.12119 0)
(8.07273 -0.9592 0)
(7.82066 -0.7579 0)
(7.56038 -0.667864 0)
(7.33259 -0.495771 0)
(7.28304 -0.41693 0)
(7.03477 -0.242554 0)
(7.06279 -0.1658 0)
(6.89753 0.0133547 0)
(6.94739 0.083392 0)
(6.84506 0.317102 0)
(6.8864 0.384356 0)
(6.74656 0.629187 0)
(6.84552 0.553858 0)
(6.75398 0.775495 0)
(6.80653 0.624987 0)
(6.72545 0.874629 0)
(6.80968 0.675733 0)
(6.75686 1.0023 0)
(6.84141 0.744138 0)
(6.84202 1.14113 0)
(6.86784 0.786512 0)
(6.97744 1.21854 0)
(6.91624 0.71907 0)
(7.07725 1.16224 0)
(7.03349 0.585029 0)
(7.15607 1.10268 0)
(7.11037 0.393164 0)
(7.1168 0.932171 0)
(7.00496 0.0891802 0)
(7.00156 0.709619 0)
(6.91288 -0.171378 0)
(6.88499 0.565133 0)
(6.85702 -0.31361 0)
(6.79808 0.488561 0)
(6.82664 -0.406406 0)
(6.71163 0.472659 0)
(6.7877 -0.471838 0)
(6.69859 0.468712 0)
(6.83288 -0.533348 0)
(6.7367 0.451028 0)
(6.89318 -0.581741 0)
(6.69688 0.488641 0)
(6.94419 -0.572454 0)
(6.61944 0.583508 0)
(7.09496 -0.516999 0)
(6.5782 0.688966 0)
(7.25818 -0.373991 0)
(6.52072 0.849688 0)
(7.44602 -0.183998 0)
(6.51228 1.05448 0)
(7.52462 0.0684205 0)
(6.46267 1.32919 0)
(7.52566 0.375522 0)
(6.3095 1.65464 0)
(7.46581 0.744601 0)
(6.20766 2.07762 0)
(7.33505 1.12842 0)
(6.08428 2.59433 0)
(7.60406 1.6331 0)
(6.14267 3.5195 0)
(8.40406 2.53514 0)
(5.54487 5.16557 0)
(9.15387 3.59509 0)
(6.96165 9.15823 0)
(9.75576 -0.262678 0)
(9.71231 -0.280254 0)
(9.8217 -0.357039 0)
(9.89816 -0.433498 0)
(10.0255 -0.518146 0)
(10.098 -0.574039 0)
(10.2041 -0.650798 0)
(10.2807 -0.726356 0)
(10.3943 -0.833183 0)
(10.4895 -0.905947 0)
(10.6217 -1.00127 0)
(10.7639 -1.09479 0)
(10.9242 -1.22113 0)
(11.0847 -1.36141 0)
(11.232 -1.49514 0)
(11.3236 -1.6053 0)
(11.4278 -1.73979 0)
(11.5185 -1.85095 0)
(11.5624 -1.96633 0)
(11.5849 -2.05699 0)
(11.5718 -2.14993 0)
(11.5706 -2.22863 0)
(11.5093 -2.28157 0)
(11.4207 -2.29927 0)
(11.2712 -2.28638 0)
(11.0901 -2.23669 0)
(10.861 -2.16633 0)
(10.5764 -2.05531 0)
(10.3022 -1.95998 0)
(10.0468 -1.8457 0)
(9.74378 -1.74092 0)
(9.47417 -1.59752 0)
(9.07111 -1.4471 0)
(8.76492 -1.28013 0)
(8.35249 -1.14207 0)
(8.07789 -0.97511 0)
(7.61881 -0.813922 0)
(7.40038 -0.64443 0)
(7.11344 -0.577733 0)
(6.95465 -0.422986 0)
(6.89486 -0.371162 0)
(6.66493 -0.196984 0)
(6.74057 -0.138074 0)
(6.54832 0.0368863 0)
(6.64818 0.099361 0)
(6.52871 0.33451 0)
(6.58926 0.394196 0)
(6.48593 0.646969 0)
(6.56731 0.547952 0)
(6.51543 0.789767 0)
(6.56248 0.621222 0)
(6.52005 0.890206 0)
(6.59049 0.664164 0)
(6.54793 1.00667 0)
(6.66519 0.719753 0)
(6.6405 1.15013 0)
(6.71403 0.741842 0)
(6.80105 1.2253 0)
(6.79227 0.671418 0)
(6.96305 1.16271 0)
(6.91355 0.540363 0)
(7.08152 1.10481 0)
(7.04076 0.367541 0)
(7.0679 0.977072 0)
(6.97306 0.0910648 0)
(6.94435 0.772986 0)
(6.87391 -0.176794 0)
(6.82596 0.619668 0)
(6.79636 -0.339943 0)
(6.73421 0.545218 0)
(6.75213 -0.4366 0)
(6.65189 0.540259 0)
(6.73407 -0.522466 0)
(6.62477 0.529015 0)
(6.78745 -0.609543 0)
(6.59828 0.542261 0)
(6.82722 -0.667051 0)
(6.54333 0.603701 0)
(6.89709 -0.694594 0)
(6.48171 0.707611 0)
(7.09551 -0.661847 0)
(6.42429 0.826571 0)
(7.37387 -0.533421 0)
(6.37886 0.981029 0)
(7.68106 -0.382174 0)
(6.42219 1.20276 0)
(7.92566 -0.129273 0)
(6.47172 1.50309 0)
(8.12886 0.195761 0)
(6.47958 1.87944 0)
(8.19833 0.578342 0)
(6.41999 2.36005 0)
(8.03224 0.985585 0)
(6.08566 2.92425 0)
(7.9206 1.33963 0)
(5.68315 3.71556 0)
(9.07717 2.02655 0)
(6.07659 5.30372 0)
(10.6094 2.7102 0)
(8.20432 8.60386 0)
(11.335 -0.248223 0)
(11.3199 -0.281456 0)
(11.3578 -0.369081 0)
(11.4034 -0.451357 0)
(11.4737 -0.537599 0)
(11.5183 -0.603491 0)
(11.5616 -0.680384 0)
(11.5949 -0.755506 0)
(11.6445 -0.856331 0)
(11.7016 -0.945075 0)
(11.7733 -1.04359 0)
(11.8462 -1.14104 0)
(11.9165 -1.26015 0)
(11.9725 -1.38866 0)
(12.0153 -1.51985 0)
(12.0182 -1.62691 0)
(12.0047 -1.74957 0)
(11.9933 -1.85792 0)
(11.9488 -1.96262 0)
(11.9064 -2.05074 0)
(11.842 -2.13414 0)
(11.765 -2.20154 0)
(11.6256 -2.23453 0)
(11.4582 -2.23519 0)
(11.236 -2.20397 0)
(10.9862 -2.13801 0)
(10.6885 -2.052 0)
(10.3894 -1.94116 0)
(10.0992 -1.84106 0)
(9.78624 -1.7177 0)
(9.42099 -1.60322 0)
(9.07006 -1.44571 0)
(8.62665 -1.28689 0)
(8.30044 -1.13157 0)
(7.87349 -0.98615 0)
(7.57215 -0.820388 0)
(7.10093 -0.668711 0)
(6.92366 -0.545371 0)
(6.63754 -0.499982 0)
(6.56368 -0.372104 0)
(6.46125 -0.333911 0)
(6.27734 -0.159139 0)
(6.37513 -0.120072 0)
(6.18202 0.0529867 0)
(6.32084 0.110781 0)
(6.18044 0.345106 0)
(6.25658 0.400183 0)
(6.19989 0.649423 0)
(6.25402 0.53443 0)
(6.25868 0.797006 0)
(6.2507 0.609118 0)
(6.28912 0.891679 0)
(6.31293 0.649598 0)
(6.34044 0.993635 0)
(6.40654 0.688522 0)
(6.45725 1.13364 0)
(6.50524 0.702112 0)
(6.61129 1.20753 0)
(6.63825 0.623305 0)
(6.81034 1.14782 0)
(6.78411 0.497467 0)
(6.99628 1.09115 0)
(6.91722 0.355579 0)
(7.01493 0.996109 0)
(6.88974 0.102076 0)
(6.89467 0.801843 0)
(6.77176 -0.175113 0)
(6.77442 0.655322 0)
(6.68711 -0.349382 0)
(6.69528 0.582791 0)
(6.64056 -0.464745 0)
(6.61076 0.576683 0)
(6.6424 -0.564101 0)
(6.55985 0.573443 0)
(6.66112 -0.671431 0)
(6.49607 0.59992 0)
(6.70071 -0.750142 0)
(6.43836 0.685427 0)
(6.78273 -0.795656 0)
(6.38502 0.798501 0)
(7.01011 -0.799823 0)
(6.31236 0.919231 0)
(7.33131 -0.695007 0)
(6.27881 1.08772 0)
(7.66516 -0.573224 0)
(6.29195 1.3235 0)
(8.0564 -0.376415 0)
(6.36917 1.63686 0)
(8.58191 -0.112809 0)
(6.4773 2.00716 0)
(9.215 0.252489 0)
(6.6516 2.51186 0)
(9.83519 0.760982 0)
(6.54173 3.13302 0)
(10.1985 1.34792 0)
(5.86889 3.98026 0)
(10.1503 1.75266 0)
(5.92184 5.66053 0)
(10.2364 1.9107 0)
(8.82254 8.00749 0)
(12.4568 -0.261541 0)
(12.4522 -0.334069 0)
(12.4588 -0.414806 0)
(12.4827 -0.47955 0)
(12.5132 -0.549129 0)
(12.5272 -0.611477 0)
(12.5234 -0.685798 0)
(12.5201 -0.76243 0)
(12.5226 -0.860834 0)
(12.5345 -0.956756 0)
(12.5413 -1.05658 0)
(12.5463 -1.15234 0)
(12.5411 -1.26326 0)
(12.5214 -1.37758 0)
(12.4821 -1.50249 0)
(12.4226 -1.61028 0)
(12.3335 -1.72481 0)
(12.2504 -1.83094 0)
(12.1498 -1.93409 0)
(12.0651 -2.02286 0)
(11.9508 -2.09657 0)
(11.8035 -2.14596 0)
(11.6014 -2.15982 0)
(11.3679 -2.14442 0)
(11.0843 -2.098 0)
(10.7737 -2.01575 0)
(10.4442 -1.92202 0)
(10.1204 -1.81005 0)
(9.77838 -1.69951 0)
(9.39778 -1.56461 0)
(8.97862 -1.43839 0)
(8.55688 -1.27302 0)
(8.10315 -1.11951 0)
(7.75581 -0.970322 0)
(7.3144 -0.826181 0)
(7.00353 -0.667248 0)
(6.55292 -0.535575 0)
(6.42477 -0.463373 0)
(6.16185 -0.437768 0)
(6.14292 -0.327031 0)
(5.98695 -0.293477 0)
(5.87876 -0.132546 0)
(5.96863 -0.122067 0)
(5.8095 0.0615622 0)
(5.96965 0.110462 0)
(5.81219 0.351992 0)
(5.91479 0.389083 0)
(5.88561 0.6575 0)
(5.91495 0.507811 0)
(5.94672 0.808362 0)
(5.93861 0.590753 0)
(6.00896 0.899933 0)
(6.012 0.62915 0)
(6.10785 0.989288 0)
(6.10878 0.660164 0)
(6.24989 1.11169 0)
(6.2642 0.665358 0)
(6.41475 1.1782 0)
(6.4591 0.567474 0)
(6.6105 1.12813 0)
(6.66234 0.439239 0)
(6.82886 1.08592 0)
(6.79053 0.338639 0)
(6.88138 1.02587 0)
(6.78175 0.115991 0)
(6.77889 0.849176 0)
(6.67388 -0.175335 0)
(6.65763 0.701995 0)
(6.59314 -0.369747 0)
(6.5739 0.634093 0)
(6.54521 -0.492175 0)
(6.4882 0.629897 0)
(6.55048 -0.605025 0)
(6.40869 0.643941 0)
(6.55802 -0.735427 0)
(6.34226 0.681453 0)
(6.61057 -0.846347 0)
(6.29775 0.787213 0)
(6.71099 -0.928145 0)
(6.24872 0.912021 0)
(6.91458 -0.951645 0)
(6.14344 1.03893 0)
(7.2545 -0.861854 0)
(6.1065 1.21143 0)
(7.60004 -0.723886 0)
(6.0233 1.48768 0)
(7.9794 -0.544497 0)
(5.92601 1.81886 0)
(8.55454 -0.332246 0)
(5.86303 2.19779 0)
(9.32512 -0.071807 0)
(5.9984 2.66964 0)
(10.4338 0.350059 0)
(6.34581 3.27276 0)
(11.4964 0.83024 0)
(6.8802 4.20239 0)
(11.8062 1.19955 0)
(7.62722 5.76836 0)
(10.7693 1.69161 0)
(9.07029 7.31526 0)
(13.0347 -0.2858 0)
(13.0412 -0.401073 0)
(13.051 -0.459544 0)
(13.066 -0.493675 0)
(13.0648 -0.540752 0)
(13.0477 -0.599967 0)
(13.0135 -0.677105 0)
(12.982 -0.760809 0)
(12.9481 -0.857135 0)
(12.9167 -0.953229 0)
(12.8742 -1.05156 0)
(12.8299 -1.14499 0)
(12.7748 -1.24974 0)
(12.7117 -1.35603 0)
(12.6298 -1.47404 0)
(12.5419 -1.58268 0)
(12.4328 -1.69022 0)
(12.3291 -1.79224 0)
(12.2102 -1.89389 0)
(12.0889 -1.98021 0)
(11.9194 -2.04099 0)
(11.71 -2.07158 0)
(11.4523 -2.06574 0)
(11.162 -2.03355 0)
(10.8234 -1.96937 0)
(10.4755 -1.8768 0)
(10.1116 -1.77715 0)
(9.73595 -1.66007 0)
(9.32668 -1.53783 0)
(8.89546 -1.39472 0)
(8.43583 -1.25616 0)
(7.97894 -1.09105 0)
(7.52242 -0.946821 0)
(7.14921 -0.805048 0)
(6.70621 -0.667045 0)
(6.39525 -0.518658 0)
(5.99051 -0.41852 0)
(5.9027 -0.397641 0)
(5.66348 -0.382726 0)
(5.67283 -0.284432 0)
(5.48087 -0.254505 0)
(5.47153 -0.119097 0)
(5.506 -0.125497 0)
(5.40963 0.0628192 0)
(5.58078 0.108925 0)
(5.41796 0.353786 0)
(5.54206 0.373 0)
(5.54504 0.655232 0)
(5.55847 0.503282 0)
(5.6012 0.815883 0)
(5.5751 0.561829 0)
(5.6969 0.889162 0)
(5.66953 0.598073 0)
(5.85302 0.965346 0)
(5.79865 0.628594 0)
(6.03685 1.07444 0)
(5.98343 0.628231 0)
(6.2271 1.12809 0)
(6.21892 0.515089 0)
(6.42161 1.07819 0)
(6.46497 0.377792 0)
(6.63309 1.06368 0)
(6.61285 0.30924 0)
(6.71937 1.03065 0)
(6.63124 0.127742 0)
(6.6438 0.888226 0)
(6.54368 -0.159077 0)
(6.52256 0.729404 0)
(6.47857 -0.378115 0)
(6.44023 0.667672 0)
(6.41158 -0.507826 0)
(6.35546 0.664387 0)
(6.4029 -0.636304 0)
(6.29687 0.686008 0)
(6.42298 -0.784567 0)
(6.25207 0.730279 0)
(6.46416 -0.923538 0)
(6.22873 0.850576 0)
(6.55418 -1.03351 0)
(6.18929 0.988141 0)
(6.73903 -1.08111 0)
(6.0915 1.11265 0)
(7.06989 -1.01775 0)
(6.08344 1.28394 0)
(7.348 -0.880413 0)
(6.03209 1.53895 0)
(7.62951 -0.704423 0)
(5.8919 1.87619 0)
(7.90134 -0.515313 0)
(5.79684 2.30602 0)
(8.21488 -0.305088 0)
(5.70836 2.85562 0)
(8.74777 -0.0240699 0)
(5.99367 3.54686 0)
(9.56753 0.314735 0)
(6.88514 4.51072 0)
(10.6339 0.666673 0)
(8.33672 5.82587 0)
(11.5147 1.76138 0)
(9.68986 6.58681 0)
(13.131 -0.27318 0)
(13.1478 -0.399793 0)
(13.1787 -0.461653 0)
(13.1887 -0.492668 0)
(13.1701 -0.532924 0)
(13.1355 -0.591013 0)
(13.0906 -0.668905 0)
(13.0427 -0.754288 0)
(12.9887 -0.844605 0)
(12.9328 -0.935808 0)
(12.8719 -1.03121 0)
(12.8076 -1.12356 0)
(12.7369 -1.22446 0)
(12.6666 -1.32813 0)
(12.5849 -1.44112 0)
(12.502 -1.54868 0)
(12.4044 -1.6527 0)
(12.3013 -1.75062 0)
(12.1681 -1.843 0)
(12.0029 -1.91338 0)
(11.7788 -1.95364 0)
(11.5086 -1.96159 0)
(11.1931 -1.93787 0)
(10.8409 -1.8907 0)
(10.4524 -1.81463 0)
(10.0656 -1.7161 0)
(9.64815 -1.60965 0)
(9.21497 -1.48361 0)
(8.75619 -1.3526 0)
(8.29004 -1.2016 0)
(7.80627 -1.05378 0)
(7.33912 -0.896754 0)
(6.89362 -0.768927 0)
(6.50658 -0.638325 0)
(6.07444 -0.512902 0)
(5.76137 -0.378499 0)
(5.42779 -0.327018 0)
(5.35715 -0.340679 0)
(5.1398 -0.334695 0)
(5.17204 -0.250669 0)
(4.97707 -0.233043 0)
(5.04153 -0.11894 0)
(5.0022 -0.133868 0)
(4.9873 0.0496166 0)
(5.123 0.0972204 0)
(4.99449 0.35857 0)
(5.13681 0.347106 0)
(5.15945 0.650607 0)
(5.16315 0.467691 0)
(5.21928 0.828401 0)
(5.21239 0.529156 0)
(5.33805 0.885015 0)
(5.3288 0.558962 0)
(5.53244 0.945492 0)
(5.4788 0.581799 0)
(5.7638 1.03493 0)
(5.70502 0.580331 0)
(6.00175 1.09233 0)
(5.96719 0.462596 0)
(6.22907 1.04586 0)
(6.23058 0.319392 0)
(6.41741 1.05714 0)
(6.39462 0.276996 0)
(6.50154 1.04962 0)
(6.45948 0.1252 0)
(6.45976 0.919483 0)
(6.42329 -0.151101 0)
(6.34748 0.77664 0)
(6.37082 -0.379016 0)
(6.26534 0.724279 0)
(6.28381 -0.526601 0)
(6.18277 0.707274 0)
(6.27892 -0.679002 0)
(6.16963 0.73044 0)
(6.31301 -0.840236 0)
(6.15194 0.790038 0)
(6.35006 -1.00657 0)
(6.13347 0.931916 0)
(6.45828 -1.14146 0)
(6.06841 1.08332 0)
(6.61406 -1.22334 0)
(5.99712 1.18972 0)
(6.9414 -1.19854 0)
(5.98778 1.38931 0)
(7.21309 -1.05026 0)
(5.95227 1.65422 0)
(7.52186 -0.87109 0)
(5.84656 1.9928 0)
(7.75547 -0.717769 0)
(5.89713 2.39072 0)
(7.99587 -0.526217 0)
(5.96677 2.91215 0)
(8.18388 -0.358538 0)
(6.3225 3.63086 0)
(8.42647 -0.183201 0)
(6.99445 4.68287 0)
(9.22653 0.155921 0)
(8.18201 5.70168 0)
(10.9413 1.61157 0)
(10.1894 5.9601 0)
(13.084 -0.267865 0)
(13.1044 -0.35917 0)
(13.147 -0.417753 0)
(13.162 -0.458747 0)
(13.1416 -0.504634 0)
(13.098 -0.564488 0)
(13.0424 -0.641884 0)
(12.9847 -0.728277 0)
(12.9218 -0.816847 0)
(12.8609 -0.907405 0)
(12.8012 -1.00294 0)
(12.7407 -1.0983 0)
(12.6757 -1.19766 0)
(12.6129 -1.30116 0)
(12.537 -1.40882 0)
(12.4539 -1.51438 0)
(12.3472 -1.61347 0)
(12.2185 -1.70201 0)
(12.0408 -1.77312 0)
(11.8134 -1.81819 0)
(11.5206 -1.8336 0)
(11.1814 -1.81969 0)
(10.7977 -1.78057 0)
(10.3806 -1.72329 0)
(9.94134 -1.63865 0)
(9.50634 -1.53524 0)
(9.03162 -1.42162 0)
(8.56008 -1.28969 0)
(8.06972 -1.15316 0)
(7.58434 -1.00264 0)
(7.09141 -0.855476 0)
(6.63435 -0.712662 0)
(6.20604 -0.593729 0)
(5.81869 -0.471865 0)
(5.40106 -0.360504 0)
(5.11156 -0.255553 0)
(4.85711 -0.249783 0)
(4.80249 -0.286184 0)
(4.60384 -0.2922 0)
(4.65816 -0.221579 0)
(4.46433 -0.212081 0)
(4.57407 -0.11399 0)
(4.47145 -0.134368 0)
(4.53428 0.0390107 0)
(4.62096 0.0909298 0)
(4.55757 0.353235 0)
(4.70365 0.307851 0)
(4.76378 0.645525 0)
(4.7643 0.466696 0)
(4.8284 0.819217 0)
(4.80638 0.490733 0)
(4.96261 0.86099 0)
(4.9417 0.50968 0)
(5.19607 0.908687 0)
(5.14894 0.536298 0)
(5.4656 0.983382 0)
(5.39616 0.52577 0)
(5.76933 1.04288 0)
(5.66383 0.401831 0)
(6.03665 0.999297 0)
(5.92649 0.265567 0)
(6.21329 1.02425 0)
(6.11668 0.235574 0)
(6.29356 1.03426 0)
(6.21602 0.124561 0)
(6.27656 0.93205 0)
(6.23477 -0.132217 0)
(6.21345 0.787879 0)
(6.19819 -0.371482 0)
(6.14815 0.746773 0)
(6.12621 -0.524571 0)
(6.09022 0.713662 0)
(6.11428 -0.694688 0)
(6.10042 0.743681 0)
(6.13842 -0.863883 0)
(6.11536 0.812062 0)
(6.18486 -1.04558 0)
(6.07692 0.961598 0)
(6.27524 -1.20913 0)
(6.00544 1.14255 0)
(6.38096 -1.31245 0)
(5.94838 1.2595 0)
(6.62722 -1.32521 0)
(5.97336 1.4515 0)
(6.92798 -1.1992 0)
(5.94014 1.73076 0)
(7.18754 -1.01758 0)
(5.83724 2.09953 0)
(7.39915 -0.903537 0)
(5.90885 2.51472 0)
(7.64607 -0.736032 0)
(6.01496 3.06106 0)
(7.94541 -0.650919 0)
(6.48246 3.76699 0)
(8.25188 -0.47857 0)
(7.25664 4.64596 0)
(8.75639 -0.0627645 0)
(8.26209 5.36238 0)
(9.90848 1.32756 0)
(10.3003 5.28677 0)
(13.0415 -0.243925 0)
(13.0623 -0.311123 0)
(13.1095 -0.370869 0)
(13.1241 -0.426769 0)
(13.101 -0.486346 0)
(13.0482 -0.552398 0)
(12.9853 -0.629361 0)
(12.9253 -0.71416 0)
(12.8684 -0.802033 0)
(12.8142 -0.890601 0)
(12.7627 -0.983633 0)
(12.7061 -1.07717 0)
(12.6428 -1.17356 0)
(12.5679 -1.27181 0)
(12.474 -1.37211 0)
(12.3568 -1.4685 0)
(12.2057 -1.5557 0)
(12.013 -1.62453 0)
(11.7624 -1.67068 0)
(11.4512 -1.68951 0)
(11.0818 -1.68153 0)
(10.6715 -1.64653 0)
(10.2257 -1.59551 0)
(9.75346 -1.52827 0)
(9.27083 -1.43662 0)
(8.78672 -1.33024 0)
(8.27032 -1.21454 0)
(7.77574 -1.07852 0)
(7.26886 -0.942077 0)
(6.78255 -0.799099 0)
(6.30813 -0.662127 0)
(5.87817 -0.535859 0)
(5.47797 -0.424877 0)
(5.10344 -0.312227 0)
(4.70997 -0.220781 0)
(4.46086 -0.155215 0)
(4.27509 -0.191555 0)
(4.23037 -0.247313 0)
(4.05251 -0.264117 0)
(4.1197 -0.201886 0)
(3.91899 -0.197314 0)
(4.06622 -0.113525 0)
(3.9135 -0.142265 0)
(4.05679 0.0190669 0)
(4.06167 0.0681343 0)
(4.11325 0.328745 0)
(4.22131 0.255855 0)
(4.32156 0.622048 0)
(4.29751 0.417781 0)
(4.43655 0.823069 0)
(4.39409 0.455001 0)
(4.57471 0.845446 0)
(4.56226 0.452854 0)
(4.81126 0.863732 0)
(4.78956 0.460707 0)
(5.1351 0.931794 0)
(5.04383 0.451273 0)
(5.48666 0.996208 0)
(5.32495 0.335556 0)
(5.78693 0.969542 0)
(5.58939 0.211066 0)
(5.97592 1.008 0)
(5.80632 0.205062 0)
(6.06221 1.024 0)
(5.96468 0.105478 0)
(6.08177 0.932472 0)
(6.02449 -0.122155 0)
(6.05753 0.805843 0)
(6.02615 -0.353363 0)
(6.02567 0.776271 0)
(5.99032 -0.507952 0)
(5.98186 0.725549 0)
(5.97342 -0.700472 0)
(6.00255 0.749555 0)
(5.99255 -0.880829 0)
(6.0236 0.835889 0)
(6.01884 -1.07032 0)
(5.9834 0.999688 0)
(6.13344 -1.25021 0)
(5.86081 1.18928 0)
(6.37198 -1.41191 0)
(5.86987 1.29833 0)
(6.56805 -1.45947 0)
(5.92689 1.52339 0)
(6.73733 -1.31897 0)
(5.88043 1.80392 0)
(7.00581 -1.14301 0)
(5.86169 2.18129 0)
(7.22841 -1.06577 0)
(5.95275 2.58901 0)
(7.43799 -0.928188 0)
(6.2036 3.12363 0)
(7.67692 -0.889241 0)
(6.77327 3.79055 0)
(7.91964 -0.650917 0)
(7.50429 4.52273 0)
(8.38079 -0.12549 0)
(8.49844 4.92752 0)
(9.30672 1.20286 0)
(10.159 4.55728 0)
(13.0205 -0.230145 0)
(13.0422 -0.279674 0)
(13.0922 -0.337573 0)
(13.1095 -0.401765 0)
(13.0874 -0.470317 0)
(13.0375 -0.542586 0)
(12.9756 -0.617777 0)
(12.9177 -0.698194 0)
(12.8606 -0.781019 0)
(12.8024 -0.865145 0)
(12.7379 -0.951495 0)
(12.6638 -1.04041 0)
(12.5742 -1.12999 0)
(12.4636 -1.22099 0)
(12.3239 -1.31017 0)
(12.1467 -1.39225 0)
(11.9215 -1.45998 0)
(11.6417 -1.50705 0)
(11.2948 -1.52854 0)
(10.8937 -1.52578 0)
(10.447 -1.49859 0)
(9.96868 -1.4506 0)
(9.46753 -1.39474 0)
(8.95096 -1.32233 0)
(8.4383 -1.22549 0)
(7.92251 -1.11657 0)
(7.38914 -1.00158 0)
(6.8946 -0.867731 0)
(6.39313 -0.734954 0)
(5.93038 -0.599654 0)
(5.49113 -0.475378 0)
(5.10541 -0.366416 0)
(4.73772 -0.258792 0)
(4.38486 -0.157309 0)
(4.03354 -0.091165 0)
(3.84031 -0.070724 0)
(3.71585 -0.140381 0)
(3.66732 -0.204298 0)
(3.51791 -0.227609 0)
(3.58818 -0.181373 0)
(3.39637 -0.183228 0)
(3.57481 -0.111595 0)
(3.36817 -0.147375 0)
(3.58075 0.000869505 0)
(3.49353 0.0450118 0)
(3.66769 0.295782 0)
(3.69779 0.212246 0)
(3.89358 0.621943 0)
(3.83776 0.399327 0)
(4.04833 0.794228 0)
(3.95567 0.405018 0)
(4.20976 0.812728 0)
(4.14479 0.389992 0)
(4.46114 0.82088 0)
(4.38354 0.401093 0)
(4.79988 0.876946 0)
(4.65738 0.386444 0)
(5.18898 0.925905 0)
(4.93006 0.262026 0)
(5.52414 0.91268 0)
(5.19692 0.155202 0)
(5.72433 0.967621 0)
(5.45812 0.175513 0)
(5.82025 0.98197 0)
(5.65991 0.099953 0)
(5.88132 0.899862 0)
(5.77009 -0.115079 0)
(5.89556 0.780968 0)
(5.80942 -0.336683 0)
(5.87686 0.756228 0)
(5.80217 -0.47644 0)
(5.85016 0.709334 0)
(5.77234 -0.674537 0)
(5.88182 0.733247 0)
(5.78556 -0.853276 0)
(5.93614 0.823531 0)
(5.80592 -1.0335 0)
(5.89988 0.97755 0)
(5.83616 -1.2044 0)
(5.80642 1.19215 0)
(6.00804 -1.42411 0)
(5.81479 1.30042 0)
(6.23726 -1.51681 0)
(5.84294 1.53606 0)
(6.46475 -1.36634 0)
(5.78679 1.84877 0)
(6.68478 -1.23579 0)
(5.85155 2.2211 0)
(6.89953 -1.15175 0)
(5.96297 2.63431 0)
(7.11105 -1.03683 0)
(6.345 3.14108 0)
(7.34901 -1.02269 0)
(6.96062 3.77092 0)
(7.76783 -0.716595 0)
(7.73093 4.29888 0)
(8.35397 -0.13528 0)
(8.74766 4.40212 0)
(9.40442 1.21814 0)
(10.1063 3.81027 0)
(13.0181 -0.219913 0)
(13.0353 -0.249087 0)
(13.0797 -0.299269 0)
(13.0895 -0.364993 0)
(13.0622 -0.440893 0)
(13.0072 -0.519654 0)
(12.9391 -0.5973 0)
(12.8679 -0.674389 0)
(12.7934 -0.753405 0)
(12.7108 -0.83174 0)
(12.6164 -0.911996 0)
(12.5046 -0.992957 0)
(12.3674 -1.07328 0)
(12.1979 -1.15209 0)
(11.9864 -1.22571 0)
(11.7235 -1.28706 0)
(11.4032 -1.3314 0)
(11.0183 -1.35232 0)
(10.5737 -1.34989 0)
(10.0897 -1.32799 0)
(9.56581 -1.28569 0)
(9.02597 -1.23076 0)
(8.47546 -1.17436 0)
(7.92654 -1.10123 0)
(7.40676 -1.00391 0)
(6.88992 -0.8972 0)
(6.37339 -0.791615 0)
(5.90757 -0.665457 0)
(5.44037 -0.544778 0)
(5.0194 -0.425002 0)
(4.62601 -0.316582 0)
(4.28207 -0.215107 0)
(3.95248 -0.112869 0)
(3.64324 -0.0285222 0)
(3.35502 0.00680904 0)
(3.22668 -0.0201579 0)
(3.14344 -0.108251 0)
(3.08664 -0.172865 0)
(2.98073 -0.203762 0)
(3.03663 -0.166857 0)
(2.88486 -0.173309 0)
(3.0634 -0.108954 0)
(2.82669 -0.153748 0)
(3.07682 -0.0115553 0)
(2.90724 0.0163296 0)
(3.21392 0.249124 0)
(3.136 0.162019 0)
(3.46293 0.574864 0)
(3.32469 0.329368 0)
(3.67718 0.781221 0)
(3.51211 0.372077 0)
(3.85885 0.785307 0)
(3.7271 0.338187 0)
(4.09646 0.756192 0)
(3.96553 0.311181 0)
(4.4618 0.807662 0)
(4.24233 0.29492 0)
(4.88791 0.86169 0)
(4.51681 0.197861 0)
(5.22006 0.865036 0)
(4.77664 0.102262 0)
(5.44414 0.917503 0)
(5.09399 0.145561 0)
(5.55993 0.943699 0)
(5.33201 0.0776578 0)
(5.66246 0.870697 0)
(5.49127 -0.106324 0)
(5.71118 0.756214 0)
(5.58183 -0.310706 0)
(5.70035 0.742887 0)
(5.62108 -0.440305 0)
(5.69558 0.697607 0)
(5.60922 -0.649286 0)
(5.74661 0.70462 0)
(5.63648 -0.839678 0)
(5.81113 0.804238 0)
(5.63633 -0.99496 0)