/*--------------------------------*- C++ -*----------------------------------*\
| =========                 |                                                 |
| \\      /  F ield         | OpenFOAM: The Open Source CFD Toolbox           |
|  \\    /   O peration     | Version:  2.4.0                                 |
|   \\  /    A nd           | Web:      www.OpenFOAM.org                      |
|    \\/     M anipulation  |                                                 |
\*---------------------------------------------------------------------------*/
FoamFile
{
    version     2.0;
    format      ascii;
    class       volScalarField;
    location    "0.062";
    object      k;
}
// * * * * * * * * * * * * * * * * * * * * * * * * * * * * * * * * * * * * * //

dimensions      [0 2 -2 0 0 0 0];

internalField   nonuniform List<scalar> 
17600
(
9.28779
7.40841
5.12753
3.9304
3.34449
2.95197
2.69369
2.47519
2.33667
2.19127
2.14127
2.01527
2.0077
1.90623
1.91854
1.8439
1.88086
1.8472
1.83483
2.23517
4.50621
6.2048
5.8438
5.04655
4.42387
3.92967
3.59892
3.31203
3.1298
2.92328
2.85174
2.67694
2.65555
2.52658
2.52116
2.43464
2.44202
2.38957
2.40164
2.68851
1.32373
3.28219
3.99751
3.95911
3.77207
3.45822
3.22952
3.0042
2.86706
2.68024
2.62024
2.46756
2.44038
2.33161
2.31201
2.23976
2.22762
2.16203
2.16721
2.27855
0.207964
1.19431
1.92651
2.32143
2.51867
2.51201
2.47846
2.38488
2.33172
2.21021
2.17702
2.07763
2.05527
1.98271
1.95913
1.90666
1.89498
1.82098
1.82259
1.85355
0.0260724
0.266882
0.642835
0.957666
1.25047
1.42123
1.5528
1.58639
1.63329
1.61151
1.61577
1.58703
1.58007
1.55675
1.53651
1.51273
1.51139
1.44934
1.44721
1.4457
0.0027538
0.0439086
0.143315
0.258009
0.423628
0.559949
0.715829
0.798633
0.914732
0.949344
1.01148
1.03343
1.05393
1.07895
1.07643
1.08053
1.09113
1.06302
1.05357
1.04036
0.000283373
0.00630227
0.0234912
0.0459318
0.0962734
0.140115
0.226636
0.273729
0.362075
0.410427
0.467273
0.525325
0.550225
0.609266
0.6213
0.651201
0.670123
0.676061
0.664346
0.649731
5.01093e-05
0.000861519
0.00325492
0.00647938
0.0148477
0.0240565
0.0468386
0.0619957
0.0929733
0.12284
0.142937
0.185774
0.203
0.246981
0.261398
0.295275
0.308117
0.339473
0.323022
0.316891
2.76973e-05
0.000141617
0.000498913
0.000876331
0.00185476
0.00313824
0.00671485
0.00958018
0.0153472
0.0241888
0.0295837
0.0426277
0.0489217
0.0658168
0.073674
0.0870701
0.0981494
0.118157
0.105723
0.104203
2.41041e-05
4.77566e-05
0.000124712
0.000168569
0.000287249
0.000429812
0.000862554
0.00121035
0.00194272
0.00324725
0.00415835
0.00652484
0.00762138
0.0113088
0.0137527
0.0152855
0.021224
0.025672
0.021863
0.0220271
2.31499e-05
3.46169e-05
6.75674e-05
7.55251e-05
9.73062e-05
0.000114916
0.000171533
0.000208765
0.00030076
0.000420217
0.000527879
0.000806628
0.000911304
0.00149207
0.0017122
0.0019729
0.0030943
0.00338833
0.00296378
0.0032778
2.23779e-05
3.15485e-05
5.35783e-05
5.97643e-05
6.76432e-05
7.14749e-05
8.11314e-05
9.06137e-05
0.000108802
0.000115661
0.000140309
0.000153969
0.000180229
0.000247542
0.000255769
0.000328965
0.000403771
0.000451348
0.000455981
0.000517091
2.1897e-05
2.99015e-05
4.67935e-05
5.46941e-05
5.59975e-05
5.9788e-05
6.37014e-05
7.34987e-05
7.54845e-05
7.96399e-05
8.2078e-05
8.29819e-05
0.000101694
0.000106576
0.00014605
0.000146565
0.00014887
0.000190586
0.000194403
0.000187914
2.15507e-05
2.83467e-05
4.25949e-05
4.93281e-05
5.04377e-05
5.31744e-05
5.53906e-05
6.20264e-05
6.29819e-05
6.84477e-05
6.74633e-05
7.47258e-05
7.43637e-05
7.49035e-05
0.000103054
0.000103358
0.000114614
0.00014479
0.000132055
0.000125523
2.12124e-05
2.67376e-05
3.85221e-05
4.50952e-05
4.72894e-05
4.79693e-05
4.94458e-05
5.20554e-05
5.52197e-05
5.88486e-05
5.82514e-05
6.48502e-05
6.43392e-05
7.91243e-05
7.92528e-05
8.00222e-05
0.000101541
0.000107127
9.69279e-05
9.81028e-05
2.09642e-05
2.58047e-05
3.57563e-05
4.17604e-05
4.39083e-05
4.41754e-05
4.49907e-05
4.60168e-05
5.03567e-05
5.1029e-05
5.39541e-05
5.36067e-05
5.28818e-05
6.44626e-05
6.57671e-05
7.63188e-05
8.57072e-05
8.22112e-05
7.91348e-05
9.1397e-05
2.07866e-05
2.52086e-05
3.38333e-05
3.91477e-05
4.08358e-05
4.11094e-05
4.16434e-05
4.3044e-05
4.51094e-05
4.555e-05
4.88296e-05
4.94674e-05
5.59905e-05
5.51645e-05
5.57648e-05
6.9311e-05
6.91258e-05
6.85593e-05
7.20097e-05
8.61336e-05
2.06622e-05
2.50407e-05
3.22551e-05
3.72327e-05
3.87201e-05
3.90491e-05
3.94269e-05
4.05795e-05
4.11114e-05
4.36214e-05
4.39896e-05
4.40375e-05
4.81102e-05
5.12118e-05
5.95201e-05
5.9973e-05
5.97686e-05
6.17145e-05
7.14524e-05
6.9342e-05
2.05839e-05
2.48459e-05
3.15629e-05
3.59162e-05
3.72862e-05
3.76231e-05
3.83732e-05
3.87837e-05
3.93108e-05
4.08998e-05
4.21052e-05
4.59448e-05
4.52876e-05
4.59589e-05
5.30212e-05
5.24517e-05
5.30176e-05
5.9396e-05
5.86969e-05
5.76254e-05
2.05465e-05
2.49362e-05
3.09283e-05
3.51304e-05
3.68795e-05
3.72211e-05
3.78087e-05
3.80608e-05
3.85257e-05
3.98496e-05
4.0172e-05
4.17727e-05
4.43953e-05
4.83367e-05
4.74582e-05
4.76925e-05
5.05056e-05
5.35332e-05
5.20354e-05
5.28725e-05
2.05528e-05
2.49735e-05
3.08123e-05
3.53975e-05
3.67092e-05
3.70862e-05
3.80234e-05
3.80713e-05
3.82944e-05
3.99094e-05
4.10256e-05
4.33084e-05
4.32992e-05
4.41121e-05
4.47309e-05
4.57843e-05
4.81096e-05
4.87149e-05
4.85944e-05
5.12883e-05
2.05934e-05
2.50787e-05
3.14032e-05
3.59529e-05
3.69754e-05
3.80106e-05
3.88206e-05
3.87999e-05
4.01184e-05
4.0327e-05
4.07625e-05
4.41045e-05
4.44225e-05
4.51252e-05
4.60181e-05
4.60812e-05
4.64509e-05
4.79901e-05
4.85368e-05
5.13656e-05
2.06722e-05
2.5266e-05
3.27606e-05
3.67489e-05
3.80113e-05
3.97486e-05
3.99412e-05
4.02543e-05
4.22495e-05
4.23487e-05
4.49239e-05
4.51581e-05
4.51084e-05
4.72148e-05
4.72637e-05
4.72339e-05
4.82798e-05
4.98488e-05
5.09703e-05
5.26621e-05
2.08029e-05
2.60843e-05
3.40329e-05
3.77862e-05
4.02715e-05
4.17322e-05
4.2005e-05
4.42755e-05
4.44447e-05
4.48724e-05
4.81035e-05
4.79182e-05
4.94246e-05
5.06898e-05
5.02928e-05
5.06447e-05
5.3282e-05
5.46092e-05
5.54754e-05
5.6793e-05
2.09954e-05
2.73586e-05
3.47378e-05
4.03592e-05
4.36827e-05
4.42758e-05
4.59515e-05
4.79506e-05
4.79027e-05
5.20035e-05
5.24072e-05
5.28586e-05
5.5927e-05
5.56173e-05
5.54946e-05
5.81243e-05
6.06537e-05
6.21705e-05
6.33912e-05
6.60049e-05
2.12483e-05
2.80534e-05
3.60236e-05
4.49106e-05
4.70222e-05
4.80266e-05
5.1986e-05
5.22587e-05
5.39574e-05
5.88789e-05
5.88151e-05
6.2399e-05
6.28529e-05
6.2508e-05
6.39746e-05
6.95942e-05
7.18203e-05
7.48307e-05
7.88967e-05
8.83991e-05
2.15215e-05
2.77965e-05
4.0384e-05
4.99384e-05
5.11767e-05
5.42055e-05
5.69171e-05
5.81605e-05
6.47418e-05
6.60865e-05
6.85488e-05
7.38709e-05
7.30793e-05
7.39491e-05
7.91616e-05
8.70821e-05
9.27769e-05
0.000102966
0.000124799
0.000189274
2.17941e-05
2.90504e-05
4.85719e-05
5.24536e-05
5.75233e-05
6.12158e-05
6.37774e-05
7.12136e-05
7.73486e-05
7.89458e-05
8.66664e-05
9.06977e-05
9.36557e-05
0.000104928
0.000115894
0.00014161
0.000172259
0.000242102
0.000408783
0.000909682
2.23307e-05
3.07454e-05
5.62223e-05
5.97624e-05
6.93204e-05
7.27098e-05
8.36855e-05
9.4564e-05
0.000105369
0.000124882
0.000139673
0.000168954
0.000197899
0.000272068
0.000345687
0.000541877
0.000785611
0.00135857
0.00253501
0.00610183
2.30771e-05
3.37837e-05
6.83842e-05
7.63589e-05
9.82148e-05
0.000118483
0.000161944
0.000219057
0.00029828
0.000437465
0.00055834
0.000860866
0.00112468
0.00178313
0.00239909
0.00401849
0.00564279
0.00973894
0.0154318
0.0334149
2.39689e-05
4.72443e-05
0.000109262
0.000175857
0.000267327
0.000454828
0.000726698
0.00132544
0.00194467
0.00326911
0.00433219
0.00697003
0.00888675
0.0135719
0.0171616
0.0262096
0.0333898
0.0513252
0.0698105
0.130814
2.77151e-05
0.000142193
0.000442729
0.000887184
0.00170443
0.00321555
0.00569957
0.0105712
0.0152449
0.0244061
0.0305511
0.0449947
0.0537341
0.0737898
0.0865444
0.116616
0.136489
0.183939
0.224315
0.353403
5.06251e-05
0.000865177
0.00318017
0.00643015
0.0144126
0.0237267
0.0450075
0.0640452
0.0939098
0.123436
0.147453
0.1913
0.215096
0.262744
0.290153
0.347661
0.381493
0.456944
0.513689
0.668389
0.000285311
0.00629973
0.0234739
0.0458844
0.0961385
0.141381
0.224115
0.278072
0.362449
0.413172
0.476556
0.531773
0.577834
0.626374
0.665974
0.719768
0.755275
0.826274
0.880402
1.0088
0.00276379
0.0436978
0.144213
0.256002
0.426319
0.558745
0.716111
0.803554
0.914399
0.95641
1.01997
1.04478
1.08189
1.09598
1.12584
1.14315
1.17315
1.20566
1.24833
1.3138
0.0261594
0.264929
0.645707
0.95473
1.25504
1.41858
1.55596
1.58832
1.63487
1.61829
1.62202
1.59876
1.59576
1.57109
1.57129
1.55536
1.56058
1.55469
1.5657
1.56371
0.208665
1.19221
1.93069
2.31776
2.52305
2.51117
2.4799
2.38334
2.33211
2.21572
2.17823
2.0838
2.05753
1.98347
1.96479
1.90341
1.88672
1.83106
1.80296
1.73715
1.32779
3.27752
4.00094
3.95719
3.77818
3.44819
3.23798
2.99435
2.86896
2.67794
2.6113
2.46262
2.42127
2.30618
2.27028
2.16127
2.1185
1.99619
1.92145
1.77906
4.51003
6.19993
5.84698
5.04075
4.43307
3.91717
3.60783
3.29584
3.13042
2.90972
2.82975
2.6534
2.60533
2.4595
2.4097
2.25589
2.18727
2.00074
1.87358
1.64137
9.29205
7.40411
5.13241
3.92347
3.34993
2.94143
2.69837
2.4592
2.33262
2.17091
2.11287
1.97705
1.93896
1.81221
1.7667
1.61942
1.54732
1.36018
1.22236
0.987788
1.38328
0.548695
0.326332
0.210303
0.1731
0.180506
0.203948
0.269323
0.414581
0.515316
0.51425
0.498473
0.453879
0.353131
0.24067
0.153038
0.0792574
0.0351113
0.0202129
0.014808
0.015169
0.0157596
0.0152312
0.017575
0.025424
0.0499435
0.176642
0.23099
0.215914
0.155598
0.113039
0.0884198
0.0675392
0.052092
0.0460738
0.0444173
0.0442743
0.0516263
0.0647219
0.0650784
0.06478
0.0647969
0.0621516
0.0599235
0.0610019
0.0663563
0.0674938
0.0665847
0.0681904
0.0755633
0.0757899
0.0688072
0.0411902
0.0194979
0.00969908
0.00677454
0.00696985
0.0115494
0.0347195
0.107324
0.15901
0.171805
0.168049
0.149159
0.105464
0.0782183
0.0623553
0.0535299
0.0484921
0.0441978
0.0419038
0.0419076
0.0426841
0.0449717
0.0499663
0.0659106
0.083519
0.090364
0.0908217
0.0866667
0.0695394
0.0501945
0.035148
0.0249175
0.0181744
0.0135022
0.0103918
0.0083805
0.00713032
0.00641357
0.00598661
0.00568284
0.00525075
0.00476749
0.00422115
0.00377428
0.00336553
0.00308064
0.0027689
0.00260771
0.00241502
0.00235276
0.00227753
0.00227562
0.00226312
0.00226444
0.00225943
0.00224283
0.00220426
0.00217495
0.00214066
0.00208404
0.00192776
0.00172368
0.00148526
0.00125817
0.00103096
0.000832229
0.000652239
0.000504236
0.00037976
0.000283231
0.000206821
0.000150112
0.000107585
7.70856e-05
5.49436e-05
3.96612e-05
2.87048e-05
2.1187e-05
1.60386e-05
1.24608e-05
1.00287e-05
8.42667e-06
7.32692e-06
6.57182e-06
6.212e-06
6.10671e-06
6.12375e-06
6.18594e-06
6.45565e-06
6.73358e-06
7.4374e-06
7.92347e-06
9.06295e-06
9.75741e-06
1.15178e-05
1.26076e-05
1.51994e-05
1.68106e-05
2.05541e-05
2.27491e-05
2.87549e-05
3.1617e-05
3.95741e-05
4.41091e-05
5.53946e-05
5.95504e-05
7.22181e-05
7.71532e-05
9.28186e-05
9.79482e-05
0.000116969
0.000120602
0.000137007
0.000135347
0.000137394
0.000126407
0.000116712
9.10173e-05
7.33842e-05
5.93913e-05
5.13045e-05
5.31488e-05
5.86202e-05
7.70071e-05
8.5655e-05
0.000118781
0.000115372
0.000132396
0.000109731
9.44041e-05
7.70378e-05
8.02281e-05
0.000105389
0.000100168
0.000114422
8.88949e-05
8.32981e-05
0.000103121
9.71917e-05
0.00013374
0.000126406
0.000157205
0.000233546
0.000415384
0.00105775
0.00352789
0.0307025
0.436216
2.04837
1.35822
0.960166
0.589865
0.511138
0.531785
0.57925
0.61487
0.608856
0.590716
0.535239
0.4837
0.37657
0.268601
0.162785
0.0901579
0.0422176
0.0183493
0.0131518
0.0115401
0.0117534
0.0131867
0.0135959
0.0155271
0.0191806
0.0305242
0.137653
0.228739
0.222196
0.169424
0.118776
0.0896087
0.067234
0.0508544
0.0433428
0.0399561
0.0388977
0.0414893
0.0535549
0.0564275
0.0607944
0.0635762
0.0627594
0.0626163
0.0660974
0.0698779
0.0690828
0.0686475
0.0737409
0.0792358
0.0769894
0.0611219
0.0305277
0.0145639
0.00793634
0.00659188
0.00776163
0.0174352
0.0606397
0.147725
0.178968
0.182375
0.170287
0.129144
0.0926849
0.0708712
0.0579349
0.0500361
0.0451351
0.0416544
0.0396812
0.0395844
0.04002
0.0415617
0.0455216
0.0584281
0.0783136
0.0879654
0.0896491
0.0873273
0.0733273
0.0529542
0.037041
0.0261291
0.0188015
0.0137981
0.0104891
0.0084396
0.00710528
0.0063711
0.0059058
0.00555524
0.005171
0.00463775
0.00419572
0.0036895
0.00337186
0.0029977
0.00276482
0.00254639
0.002432
0.00236671
0.00236106
0.00236037
0.00236707
0.00236873
0.00235353
0.00233382
0.00224768
0.00222583
0.00217747
0.00209166
0.00190741
0.00169449
0.00146635
0.00123926
0.0010203
0.000823828
0.000647985
0.000501004
0.000378126
0.00028136
0.000205489
0.000148393
0.000106095
7.53541e-05
5.33802e-05
3.7829e-05
2.69673e-05
1.9307e-05
1.42195e-05
1.05133e-05
8.15577e-06
6.35879e-06
5.23107e-06
4.3289e-06
3.8403e-06
3.39262e-06
3.17476e-06
2.95791e-06
2.87495e-06
2.83228e-06
2.84667e-06
2.8769e-06
2.94024e-06
3.06603e-06
3.3082e-06
3.48577e-06
3.71205e-06
4.38711e-06
4.75146e-06
5.40095e-06
6.87713e-06
7.6878e-06
1.00227e-05
1.2903e-05
1.5371e-05
2.30963e-05
2.82841e-05
4.08494e-05
4.84842e-05
6.83357e-05
7.94156e-05
0.000106759
0.000118585
0.000152382
0.000160736
0.000192104
0.000195518
0.000215765
0.000204655
0.000192491
0.000152064
0.000115368
9.28531e-05
8.75485e-05
9.25264e-05
0.000102553
0.000146418
0.000150685
0.000183544
0.000156099
0.000133266
0.000102518
0.000106975
0.000141351
0.000130589
0.000147808
0.000114596
0.000110375
0.000123159
0.000130594
0.000161386
0.000223092
0.000263356
0.000460706
0.0011713
0.00299043
0.0330091
0.314538
1.92203
1.51427
1.30854
1.0266
0.881738
0.823591
0.777892
0.70854
0.643108
0.5789
0.481294
0.378741
0.269222
0.165837
0.0835401
0.0450194
0.0218334
0.00986118
0.00813698
0.00819963
0.00860571
0.00973273
0.0112936
0.0140797
0.0162663
0.0227705
0.096223
0.219371
0.221909
0.183112
0.126077
0.0921624
0.0679101
0.0508002
0.0416013
0.0374544
0.0358712
0.0366677
0.0444338
0.0506154
0.0587094
0.0643176
0.0652085
0.0669204
0.0712404
0.0716019
0.0703167
0.071566
0.0809652
0.0827707
0.0760965
0.048226
0.0221827
0.0104246
0.00687215
0.00669769
0.00967293
0.0283434
0.103981
0.176837
0.1953
0.189715
0.161569
0.111028
0.080752
0.0628289
0.0523958
0.0467111
0.0424972
0.0392825
0.0379477
0.0379648
0.0383272
0.0394106
0.0424401
0.0522514
0.0732737
0.0852911
0.0884119
0.087223
0.0763437
0.0553361
0.0387287
0.0271749
0.0192634
0.0140273
0.0106025
0.00847121
0.00713967
0.00629551
0.00585295
0.00538932
0.00504457
0.00452124
0.00413995
0.00366344
0.00331615
0.00297941
0.00271401
0.00256126
0.00244061
0.00241281
0.00241049
0.00239221
0.00241915
0.00237817
0.0023862
0.0023296
0.00230161
0.00224185
0.0022062
0.00210841
0.00195131
0.00171194
0.00150161
0.00126479
0.00105208
0.000851497
0.000679302
0.000525829
0.000406404
0.000304654
0.000227841
0.000168436
0.000123343
9.04472e-05
6.72518e-05
4.97034e-05
3.76968e-05
2.94701e-05
2.26649e-05
1.89516e-05
1.56938e-05
1.37285e-05
1.21415e-05
1.14799e-05
1.05114e-05
1.02818e-05
1.00206e-05
1.00332e-05
9.9273e-06
1.0046e-05
9.95817e-06
1.00228e-05
1.00508e-05
1.02836e-05
1.01474e-05
1.02745e-05
1.01297e-05
1.01342e-05
1.00455e-05
1.00211e-05
9.9476e-06
1.00123e-05
1.0127e-05
1.04464e-05
1.07433e-05
1.16713e-05
1.24315e-05
1.36002e-05
1.69031e-05
1.96735e-05
2.56545e-05
3.3508e-05
5.19253e-05
6.79322e-05
0.000108558
0.000130928
0.000189291
0.000207248
0.000267856
0.000274772
0.000310157
0.000292001
0.000270842
0.000205134
0.000154852
0.000133692
0.000141539
0.0001712
0.00018315
0.000237819
0.000211458
0.000186941
0.000137734
0.000145172
0.000179917
0.000165433
0.000205961
0.000155812
0.000139546
0.000183177
0.000179128
0.00022022
0.000306251
0.000454646
0.00157786
0.00281445
0.0314511
0.206171
1.64198
1.39576
1.23717
1.07608
0.933945
0.83111
0.754322
0.635788
0.552592
0.455169
0.340101
0.246904
0.145068
0.0765972
0.040824
0.0236872
0.0115497
0.00558984
0.00573813
0.00683458
0.00741846
0.00812597
0.00893389
0.0126758
0.0143602
0.0186231
0.0560283
0.191865
0.216398
0.195465
0.13468
0.096308
0.0697137
0.0515569
0.0411457
0.0360109
0.0340035
0.0342476
0.039623
0.0493604
0.0575946
0.0624961
0.0676798
0.0722436
0.0728562
0.0722957
0.0721868
0.0788357
0.0873036
0.0847483
0.0678465
0.0338347
0.0149836
0.00793421
0.00645606
0.00710399
0.0138262
0.0496421
0.15166
0.204243
0.207713
0.192021
0.141889
0.0998507
0.0746035
0.0593426
0.0496068
0.0439213
0.0403583
0.0376682
0.036727
0.0367819
0.0371212
0.0379893
0.0404143
0.0478141
0.0688184
0.0826814
0.0871821
0.0867585
0.0783423
0.0573727
0.0401383
0.0279508
0.0196399
0.0142513
0.0107635
0.0085388
0.00718413
0.00630794
0.0057686
0.00531107
0.00487839
0.00440084
0.00400624
0.00357038
0.00324085
0.00293539
0.00269931
0.00260253
0.00245556
0.00245151
0.0023992
0.00241288
0.00237575
0.00237158
0.00233947
0.00232604
0.00228605
0.0022763
0.00225282
0.00220553
0.00208074
0.00181578
0.0015968
0.00134584
0.00113361
0.000922322
0.000755895
0.000590544
0.000473974
0.000357779
0.000282559
0.000210619
0.000166939
0.000123989
0.000102219
7.64671e-05
6.53462e-05
5.14558e-05
4.58794e-05
3.85611e-05
3.66309e-05
3.27645e-05
3.21394e-05
3.09569e-05
3.12853e-05
3.12051e-05
3.18421e-05
3.17167e-05
3.19735e-05
3.25411e-05
3.38674e-05
3.42139e-05
3.56119e-05
3.67871e-05
3.7369e-05
3.91032e-05
4.05757e-05
4.10817e-05
4.27983e-05
4.26707e-05
4.28655e-05
4.3533e-05
4.18339e-05
4.26304e-05
4.21705e-05
3.86287e-05
3.75406e-05
3.52863e-05
3.23012e-05
3.04831e-05
2.97608e-05
3.02739e-05
3.16984e-05
3.49016e-05
4.06442e-05
5.26255e-05
7.36769e-05
0.000119472
0.000154528
0.000244814
0.000279969
0.000387257
0.00039526
0.000434182
0.000388312
0.000327712
0.000230896
0.000203984
0.000211993
0.000229195
0.000335026
0.000293817
0.00026938
0.000196451
0.000187129
0.000192991
0.000205861
0.000256969
0.000190614
0.00019849
0.00030209
0.000280942
0.000484339
0.000509502
0.00233415
0.00304749
0.0283953
0.138101
1.31909
1.18098
1.02198
0.956622
0.821173
0.709227
0.633449
0.503711
0.41585
0.311418
0.216159
0.126241
0.0629586
0.0356691
0.020954
0.0113592
0.00545469
0.00349406
0.00421718
0.00627263
0.00629307
0.00619733
0.00603154
0.0105892
0.0125263
0.0152635
0.0313006
0.152027
0.209221
0.202494
0.154084
0.104662
0.073795
0.0535704
0.0415979
0.0356828
0.0335077
0.0335004
0.0369176
0.0473045
0.0553177
0.066326
0.0721502
0.0737212
0.0732373
0.0730556
0.0759675
0.0905193
0.0915813
0.0829153
0.0505069
0.0228198
0.0101469
0.00659445
0.00632778
0.00846697
0.0220659
0.0890141
0.194151
0.222373
0.21717
0.181629
0.123332
0.0884638
0.0671488
0.0544489
0.0469888
0.042198
0.0389737
0.0367902
0.0360215
0.0360549
0.036292
0.0369423
0.0389417
0.0449153
0.064764
0.0803573
0.0860345
0.0861506
0.0796328
0.0590778
0.0411596
0.0285643
0.0200319
0.0144569
0.0108753
0.0085955
0.00720018
0.00633125
0.00572019
0.00521124
0.00478523
0.00428346
0.00398989
0.00352104
0.00326242
0.00292562
0.00276433
0.00263106
0.00248137
0.00242115
0.00231108
0.00230937
0.00229268
0.00229546
0.00231862
0.00232679
0.00235302
0.00235632
0.00238426
0.00234413
0.00228833
0.00203698
0.00181573
0.0015173
0.00127625
0.00102796
0.000876855
0.000658577
0.000563346
0.000430691
0.000345883
0.000271236
0.000225614
0.000173276
0.000157782
0.000127674
0.000111903
0.000104997
9.39182e-05
9.0955e-05
8.75635e-05
8.71416e-05
8.44437e-05
8.70932e-05
8.42537e-05
8.65162e-05
8.52492e-05
8.88632e-05
8.59455e-05
9.19776e-05
8.86793e-05
9.31001e-05
9.08479e-05
9.83177e-05
9.40071e-05
0.000101492
9.81762e-05
0.000105075
0.000102444
0.000109333
0.000107223
0.000115394
0.000111592
0.000119167
0.000114457
0.000114904
0.000117528
0.000117682
0.000110887
0.000107968
0.000103087
9.30115e-05
8.3338e-05
7.46169e-05
6.78913e-05
6.23434e-05
6.37644e-05
6.88577e-05
7.97184e-05
0.000104739
0.000156724
0.00021671
0.000355768
0.000405758
0.000555215
0.000564195
0.000546665
0.000446492
0.000327336
0.000283781
0.000307986
0.000446226
0.000412315
0.000427375
0.000301391
0.000238125
0.000265364
0.000270572
0.000322052
0.000268618
0.00034292
0.000333597
0.000687302
0.000657931
0.00670293
0.0043888
0.0214994
0.0909833
0.966742
0.913898
0.79278
0.750264
0.658932
0.556358
0.485611
0.367767
0.277679
0.177964
0.093619
0.0483074
0.0254115
0.0168512
0.0100441
0.00499562
0.00264739
0.00249166
0.00361474
0.00593629
0.00584625
0.00498941
0.00446862
0.00747183
0.0105688
0.0120793
0.0171566
0.0909793
0.193258
0.199658
0.175129
0.118085
0.079995
0.0562605
0.0425297
0.0361346
0.0337413
0.0335894
0.0366983
0.0464425
0.0585101
0.0690096
0.0715382
0.0717982
0.0725375
0.0754504
0.0906553
0.0992631
0.0944185
0.0696667
0.0336736
0.0142544
0.00723502
0.00601102
0.00653749
0.0116539
0.0373179
0.141143
0.228885
0.240242
0.22104
0.161204
0.112698
0.082542
0.063942
0.0518497
0.0443757
0.0402075
0.0376264
0.0359056
0.0353939
0.0354602
0.0356904
0.0362396
0.0379696
0.0429713
0.0615587
0.0782741
0.0848974
0.0854948
0.0802227
0.0602459
0.0419666
0.0291008
0.0203379
0.0145924
0.0108953
0.00866696
0.00720448
0.00637367
0.00566627
0.00515333
0.004782
0.00425802
0.00403236
0.0035489
0.00327154
0.00301106
0.0028173
0.0027164
0.00255613
0.00246174
0.00244976
0.00241661
0.00252303
0.00254902
0.00268377
0.00276898
0.00290264
0.00290616
0.00299185
0.0029056
0.00289668
0.00266816
0.00248919
0.00207275
0.00184551
0.00143796
0.0013093
0.00100798
0.00090675
0.000698931
0.000632742
0.000505728
0.000468856
0.000383902
0.000369781
0.000330183
0.000326979
0.000312979
0.000313029
0.000302453
0.000312478
0.000304833
0.000317328
0.000316125
0.000328545
0.000325644
0.000345
0.000343562
0.000358574
0.000358536
0.000376831
0.000367905
0.000386816
0.000381025
0.000391746
0.000378184
0.000396895
0.000375702
0.000388212
0.000360825
0.000383087
0.000349479
0.000355618
0.000325813
0.000348055
0.000302087
0.000320201
0.000282226
0.000298089
0.000266757
0.000283142
0.00025237
0.000262109
0.00023567
0.000226683
0.000193177
0.000176864
0.000146538
0.000126858
0.00011921
0.000122921
0.000135262
0.000170434
0.000263677
0.000360351
0.000600843
0.00063489
0.000788453
0.000703494
0.000526382
0.000387983
0.00041696
0.000488262
0.000508928
0.000553744
0.000398855
0.00034477
0.000390988
0.000395886
0.000376147
0.000517498
0.000450388
0.00227132
0.00131774
0.00896499
0.00579661
0.0176012
0.0624547
0.609729
0.596092
0.541724
0.5181
0.466777
0.38062
0.316971
0.213218
0.124688
0.0645074
0.0327026
0.0173959
0.0110256
0.00816393
0.00449479
0.00209193
0.0015006
0.00206478
0.00363669
0.00540124
0.00512849
0.00404899
0.00381782
0.00551127
0.00885324
0.00957305
0.0112441
0.0333753
0.154821
0.19156
0.180201
0.132384
0.0879516
0.0599157
0.0445182
0.0380523
0.0347653
0.0342285
0.0365084
0.0459195
0.0554201
0.0635577
0.067739
0.0702994
0.075787
0.0911319
0.107279
0.10392
0.0893732
0.0454722
0.0194993
0.0087979
0.00583749
0.00584164
0.00773125
0.0181189
0.0658853
0.201304
0.256685
0.25229
0.210613
0.141228
0.10058
0.0751104
0.0592881
0.0494964
0.0429838
0.039112
0.0369042
0.0353243
0.0347272
0.0347629
0.0349936
0.0355709
0.03722
0.0418715
0.0596663
0.0766756
0.0839895
0.0848827
0.0803815
0.0612605
0.0426825
0.0294804
0.0203835
0.0146247
0.0108705
0.0087455
0.00722362
0.00637802
0.00567217
0.00508759
0.00483012
0.00429475
0.0040242
0.00371265
0.0033304
0.00329349
0.00314043
0.0029994
0.00282619
0.00266361
0.00268405
0.00264301
0.00274876
0.00277189
0.00289181
0.00301084
0.00305054
0.00305243
0.00305968
0.00300459
0.00295772
0.0027696
0.00263315
0.0022799
0.00209295
0.00167389
0.00151916
0.00118404
0.00108237
0.000853253
0.000782656
0.000633888
0.000592924
0.000497358
0.00048124
0.000429389
0.000426606
0.000401977
0.00040054
0.000384406
0.000391143
0.000379468
0.000390887
0.000383729
0.00039393
0.000389789
0.000406408
0.000403999
0.000417846
0.000417589
0.000432395
0.000430113
0.000447546
0.000448204
0.000457118
0.000455117
0.000472233
0.000469105
0.000474061
0.000474129
0.000483785
0.000484192
0.000477519
0.000498346
0.000495114
0.000498725
0.000492169
0.000525434
0.000490228
0.000514377
0.000478193
0.000523778
0.000473436
0.000511485
0.000462607
0.000505431
0.000448783
0.000445951
0.000391496
0.000357967
0.000275761
0.000222986
0.000196435
0.000201723
0.000226518
0.000312137
0.000528884
0.000663873
0.00107096
0.00103335
0.000943308
0.000667281
0.000575848
0.000683627
0.000682293
0.000816697
0.000618246
0.000466595
0.000606472
0.000600406
0.00132463
0.00083844
0.00328374
0.00207599
0.0175168
0.00888988
0.0130498
0.0426607
0.302681
0.304461
0.28851
0.276933
0.254642
0.193905
0.133418
0.0753241
0.040273
0.0196876
0.0103976
0.00674046
0.00542669
0.00368584
0.00178411
0.00100844
0.0011039
0.00262979
0.00385749
0.0046723
0.00420908
0.00302809
0.00312206
0.00474863
0.00761085
0.00810598
0.00891538
0.0179354
0.118406
0.171007
0.171216
0.143348
0.0972779
0.0665222
0.0489405
0.039788
0.0360074
0.0350079
0.0369442
0.0443935
0.0534296
0.0635005
0.0696392
0.0777646
0.0951444
0.114034
0.112804
0.101725
0.0631199
0.026677
0.0116303
0.00626762
0.00531946
0.00600449
0.0107848
0.0304889
0.11998
0.250208
0.277592
0.257576
0.185784
0.129635
0.0943615
0.0719541
0.0568382
0.0470399
0.0411687
0.0378485
0.0362274
0.0348581
0.0342539
0.0342786
0.0344772
0.0350193
0.0366894
0.0412013
0.0582149
0.0754308
0.0830967
0.084256
0.0801979
0.0614221
0.0427093
0.0294685
0.02031
0.0146466
0.0108254
0.00880687
0.00723737
0.0063782
0.00566246
0.00511575
0.00475088
0.00451036
0.00402998
0.0041119
0.00382317
0.00379225
0.00361225
0.0031357
0.00305024
0.00283978
0.00303058
0.00295235
0.00327297
0.00323979
0.00341222
0.00340654
0.00344248
0.00341542
0.0034481
0.003358
0.00340074
0.00323245
0.00318738
0.00290186
0.00271831
0.00224639
0.00207165
0.00166841
0.00156772
0.00128164
0.00120499
0.00101363
0.000973012
0.000843736
0.00083956
0.000766933
0.000786154
0.000729309
0.000742789
0.000701222
0.000729583
0.00068858
0.000727057
0.000692023
0.000722527
0.000692651
0.000735648
0.000701015
0.000740318
0.000713457
0.000741883
0.000710268
0.000754309
0.000725442
0.000742799
0.00072449
0.000752343
0.000727542
0.000747783
0.000734338
0.000745963
0.000729812
0.000744698
0.000743659
0.000745814
0.000718767
0.000739826
0.00073371
0.000727586
0.000698729
0.000720084
0.00068978
0.000696459
0.000654058
0.000692384
0.000640261
0.000705612
0.000635447
0.000723055
0.000650159
0.000709913
0.000613293
0.000568205
0.00042732
0.000340774
0.000322354
0.000348819
0.00041103
0.000737817
0.000954553
0.00145126
0.00146111
0.00116861
0.0008495
0.000928621
0.000947151
0.00191752
0.00121339
0.0017981
0.00120258
0.00237294
0.00146602
0.0120408
0.00563245
0.0329331
0.0196009
0.0159615
0.0297051
0.102912
0.110893
0.108082
0.103141
0.0926999
0.0634567
0.0391945
0.0204197
0.0104498
0.00543222
0.00366795
0.00327676
0.0027219
0.00147875
0.000750763
0.000672953
0.00100231
0.00315215
0.00377041
0.00410427
0.0035927
0.00241683
0.00252743
0.00450744
0.0067918
0.00714838
0.00789183
0.0124608
0.0842977
0.151314
0.161647
0.150387
0.10751
0.0735143
0.0517339
0.0410363
0.0375512
0.0371173
0.0402792
0.0518938
0.0637834
0.0755334
0.084682
0.104321
0.121414
0.12139
0.112549
0.0799276
0.0342949
0.0142903
0.00725208
0.00506605
0.00516329
0.00737056
0.0172075
0.0524123
0.185898
0.292036
0.294892
0.250643
0.162454
0.116746
0.0866036
0.0671462
0.0545449
0.0456513
0.0398845
0.0368635
0.0355551
0.0345558
0.0338547
0.0338294
0.033993
0.0345787
0.0363036
0.0410808
0.0582841
0.0747823
0.0826143
0.0838301
0.079839
0.0612486
0.0425355
0.029368
0.0201136
0.0146072
0.0107793
0.00882974
0.00722046
0.00640514
0.00557131
0.00525944
0.00458904
0.00462699
0.00422312
0.00420541
0.00407844
0.00376089
0.00411638
0.00366629
0.00423775
0.00374336
0.00408008
0.00374812
0.00380211
0.00372208
0.00377153
0.00379311
0.00387319
0.00389245
0.00399428
0.00396153
0.00400325
0.00387031
0.00374166
0.00330624
0.00305805
0.00254351
0.00236858
0.00198828
0.00186823
0.00158493
0.00150318
0.00131176
0.00126731
0.00114061
0.00113792
0.00107885
0.00109371
0.00104679
0.0010621
0.00103525
0.00107193
0.00104504
0.00109227
0.00107233
0.00111953
0.0011054
0.00117348
0.00115467
0.00122353
0.00120813
0.00127487
0.00125181
0.00134716
0.00131715
0.00138841
0.00135845
0.00145295
0.00139831
0.00149963
0.00144335
0.00154197
0.00146124
0.00155558
0.00149452
0.00157321
0.00144136
0.00157103
0.00144479
0.00145623
0.00132819
0.00138384
0.00125866
0.00124671
0.00114236
0.00112877
0.00108251
0.00101503
0.000975425
0.000916684
0.000954389
0.000914858
0.000949208
0.000896732
0.000935747
0.000819823
0.000708213
0.000577406
0.00051492
0.000649757
0.000717296
0.00138836
0.00153509
0.00258968
0.00191913
0.0018201
0.00138655
0.00273133
0.00203059
0.00315775
0.00213186
0.018882
0.00828568
0.0486053
0.0178162
0.0280262
0.0257061
0.0221805
0.0286857
0.0231021
0.0279719
0.0280093
0.0265436
0.022178
0.0140124
0.00791307
0.00411699
0.00246265
0.00196461
0.00194372
0.00187146
0.00128247
0.000610417
0.000436069
0.000545096
0.00150573
0.00343504
0.00333336
0.00296343
0.00248931
0.00195125
0.00207448
0.00421566
0.00630413
0.0064151
0.0069193
0.00885445
0.0407198
0.121444
0.149283
0.145929
0.116462
0.0784019
0.0532869
0.0434869
0.0435493
0.0461939
0.0569388
0.0662112
0.0806451
0.0953652
0.115551
0.129016
0.129087
0.121433
0.0922038
0.0417978
0.017394
0.00832998
0.00524785
0.00462078
0.00550597
0.010931
0.0293414
0.0908809
0.259561
0.319936
0.303169
0.218811
0.14714
0.109675
0.0832286
0.0650709
0.0525621
0.04413
0.0386714
0.0361783
0.0351464
0.0344223
0.0338051
0.0337733
0.0338973
0.0344151
0.0362077
0.0412534
0.0587061
0.0748908
0.0823756
0.0834485
0.0793573
0.0607525
0.042017
0.0291229
0.0198434
0.0145097
0.0106964
0.0089142
0.00712264
0.00648846
0.00538645
0.00523875
0.00458666
0.00457625
0.00426848
0.00405778
0.00439288
0.00404546
0.00467626
0.00408777
0.00407883
0.00381245
0.00353869
0.00363248
0.00367534
0.00375498
0.00396238
0.00404176
0.00436048
0.00434233
0.004449
0.00435453
0.00437777
0.00415621
0.00394793
0.00337468
0.00314132
0.00265592
0.00246827
0.00207813
0.00196764
0.0017192
0.00162848
0.00144729
0.0013707
0.00127211
0.00126238
0.0012096
0.00120982
0.0011818
0.00116735
0.00117248
0.00119789
0.00119046
0.00123267
0.00123306
0.00125504
0.00127371
0.00135991
0.00135969
0.00143348
0.00144488
0.00151466
0.00151956
0.00163548
0.00163547
0.00171592
0.00172289
0.00184413
0.00182682