/*--------------------------------*- C++ -*----------------------------------*\
| =========                 |                                                 |
| \\      /  F ield         | OpenFOAM: The Open Source CFD Toolbox           |
|  \\    /   O peration     | Version:  2.4.0                                 |
|   \\  /    A nd           | Web:      www.OpenFOAM.org                      |
|    \\/     M anipulation  |                                                 |
\*---------------------------------------------------------------------------*/
FoamFile
{
    version     2.0;
    format      ascii;
    class       volVectorField;
    location    "0.062";
    object      U_0;
}
// * * * * * * * * * * * * * * * * * * * * * * * * * * * * * * * * * * * * * //

dimensions      [0 1 -1 0 0 0 0];

internalField   nonuniform List<vector> 
17600
(
(5.32781 0.309455 0)
(2.98471 0.0606103 0)
(2.19721 -0.00157543 0)
(1.84784 -0.00355765 0)
(1.70728 -0.00129228 0)
(1.61056 -0.000158839 0)
(1.54009 4.48635e-05 0)
(1.47814 -5.84234e-05 0)
(1.43924 -0.000200592 0)
(1.39688 0.000134841 0)
(1.38514 -0.000498843 0)
(1.34685 0.000367768 0)
(1.347 -0.000203251 0)
(1.31222 -8.71825e-05 0)
(1.32183 0.000140933 0)
(1.29157 1.25672e-05 0)
(1.31732 -0.000927674 0)
(1.3175 -0.000743723 0)
(1.25126 0.00621866 0)
(1.42769 -0.0456176 0)
(8.59874 0.872068 0)
(6.9473 0.383256 0)
(5.8143 0.121804 0)
(5.05508 0.0509359 0)
(4.65509 0.0281798 0)
(4.37649 0.0206473 0)
(4.1837 0.0162203 0)
(4.0138 0.0123648 0)
(3.90465 0.00951783 0)
(3.78228 0.00748083 0)
(3.74776 0.00492405 0)
(3.63215 0.00591601 0)
(3.64064 0.00367172 0)
(3.5314 0.00308164 0)
(3.56234 0.0027998 0)
(3.47401 0.00117699 0)
(3.53184 -0.00354491 0)
(3.49902 8.58036e-05 0)
(3.41264 0.000857087 0)
(3.91142 -0.061657 0)
(9.85732 1.02243 0)
(9.34033 0.576766 0)
(8.4805 0.241522 0)
(7.63896 0.130194 0)
(7.09745 0.0815031 0)
(6.69266 0.0580184 0)
(6.41283 0.0445046 0)
(6.16023 0.0341548 0)
(5.99994 0.0274163 0)
(5.80713 0.0205811 0)
(5.75939 0.0158791 0)
(5.57055 0.015425 0)
(5.59427 0.0111017 0)
(5.41433 0.00947952 0)
(5.46494 0.00754637 0)
(5.32599 0.00441696 0)
(5.40297 -0.00548204 0)
(5.32877 0.00430417 0)
(5.24346 -0.013846 0)
(5.90775 -0.0655711 0)
(10.1621 0.948444 0)
(10.5602 0.667571 0)
(10.2673 0.330781 0)
(9.63929 0.210354 0)
(9.12864 0.146982 0)
(8.68571 0.107732 0)
(8.3713 0.082803 0)
(8.06558 0.0636639 0)
(7.8814 0.052439 0)
(7.62864 0.0385371 0)
(7.58353 0.0319184 0)
(7.32622 0.0285727 0)
(7.37037 0.021712 0)
(7.13002 0.0191832 0)
(7.19293 0.0141604 0)
(7.01596 0.0097341 0)
(7.10782 -0.00571288 0)
(6.97658 0.0122154 0)
(6.90706 -0.0358251 0)
(7.66121 -0.0677368 0)
(10.0792 0.806753 0)
(10.9072 0.668311 0)
(11.1415 0.35742 0)
(10.89 0.256692 0)
(10.5937 0.202063 0)
(10.236 0.157667 0)
(9.97172 0.124669 0)
(9.66063 0.0966053 0)
(9.49844 0.0819206 0)
(9.20444 0.0595719 0)
(9.18587 0.0512761 0)
(8.8764 0.0445864 0)
(8.94428 0.0341842 0)
(8.66639 0.0318052 0)
(8.73201 0.0222437 0)
(8.53219 0.0160374 0)
(8.65065 -0.00270797 0)
(8.43382 0.0225266 0)
(8.4139 -0.0583549 0)
(9.19096 -0.0725067 0)
(9.9992 0.692763 0)
(10.8353 0.634267 0)
(11.3193 0.334447 0)
(11.363 0.252658 0)
(11.3497 0.222645 0)
(11.1825 0.189045 0)
(11.0732 0.157886 0)
(10.8288 0.125235 0)
(10.752 0.110604 0)
(10.4578 0.0807284 0)
(10.4918 0.0712293 0)
(10.1664 0.0621041 0)
(10.2596 0.0467484 0)
(9.98113 0.0463337 0)
(10.0403 0.031547 0)
(9.83772 0.0211674 0)
(9.99882 0.00387264 0)
(9.68127 0.0379588 0)
(9.7371 -0.0991944 0)
(10.4635 -0.0368686 0)
(9.9939 0.603909 0)
(10.6994 0.600606 0)
(11.2352 0.304374 0)
(11.3716 0.221704 0)
(11.5218 0.208764 0)
(11.5048 0.191027 0)
(11.5803 0.169578 0)
(11.4501 0.137353 0)
(11.5182 0.128225 0)
(11.2839 0.0950536 0)
(11.4028 0.0861755 0)
(11.1173 0.0779531 0)
(11.2407 0.056401 0)
(11.015 0.0607349 0)
(11.0557 0.0414313 0)
(10.893 0.0229491 0)
(11.0822 0.0130488 0)
(10.7064 0.0558933 0)
(10.8387 -0.138011 0)
(11.4199 -0.05275 0)
(10.019 0.524944 0)
(10.5944 0.56461 0)
(11.1299 0.285693 0)
(11.2707 0.193225 0)
(11.4707 0.186157 0)
(11.4829 0.176764 0)
(11.6602 0.164823 0)
(11.5945 0.132451 0)
(11.782 0.129913 0)
(11.6315 0.0964232 0)
(11.8346 0.0890528 0)
(11.6468 0.0861263 0)
(11.7959 0.0576599 0)
(11.6925 0.0708392 0)
(11.6936 0.0483353 0)
(11.6514 0.0190013 0)
(11.8113 0.0244857 0)
(11.4684 0.0657999 0)
(11.6835 -0.158694 0)
(12.0588 -0.12148 0)
(10.0408 0.454163 0)
(10.523 0.521385 0)
(11.0457 0.272655 0)
(11.1866 0.168098 0)
(11.3965 0.164402 0)
(11.4055 0.15996 0)
(11.5924 0.154747 0)
(11.558 0.121537 0)
(11.7552 0.121135 0)
(11.6814 0.089736 0)
(11.8854 0.0808421 0)
(11.8049 0.0869384 0)
(11.9436 0.0469221 0)
(11.9802 0.0749582 0)
(11.9223 0.046913 0)
(12.0622 0.00759404 0)
(12.1171 0.0333772 0)
(11.922 0.067664 0)
(12.1768 -0.187643 0)
(12.3954 -0.165821 0)
(10.0389 0.38947 0)
(10.4761 0.474636 0)
(10.9666 0.261958 0)
(11.1432 0.146482 0)
(11.3217 0.143284 0)
(11.362 0.14326 0)
(11.4971 0.143088 0)
(11.5248 0.111522 0)
(11.6535 0.110947 0)
(11.6583 0.0803047 0)
(11.805 0.0696193 0)
(11.7801 0.0827215 0)
(11.9248 0.0321779 0)
(11.9799 0.0749069 0)
(11.928 0.0388057 0)
(12.195 -0.00834644 0)
(12.0611 0.0437004 0)
(12.1199 0.043228 0)
(12.3467 -0.204683 0)
(12.3953 -0.199916 0)
(10.0189 0.331084 0)
(10.4385 0.427191 0)
(10.8885 0.250706 0)
(11.1114 0.126404 0)
(11.2577 0.124012 0)
(11.3383 0.129017 0)
(11.4167 0.131166 0)
(11.4982 0.101245 0)
(11.5639 0.10016 0)
(11.6334 0.0718428 0)
(11.7249 0.0619724 0)
(11.7189 0.0751392 0)
(11.9102 0.0193534 0)
(11.8304 0.0752591 0)
(11.9794 0.0210438 0)
(12.1178 -0.0129891 0)
(11.9365 0.0434406 0)
(12.2185 0.0130427 0)
(12.3025 -0.219838 0)
(12.256 -0.215201 0)
(10.0034 0.279638 0)
(10.3976 0.378625 0)
(10.8196 0.238824 0)
(11.0683 0.108327 0)
(11.2107 0.1047 0)
(11.305 0.113981 0)
(11.3644 0.118672 0)
(11.4622 0.0928121 0)
(11.497 0.089812 0)
(11.6136 0.0621176 0)
(11.6411 0.0556946 0)
(11.7114 0.063043 0)
(11.8417 0.0174415 0)
(11.7283 0.0673614 0)
(12.0415 0.00398712 0)
(11.9252 -0.00701217 0)
(11.9343 0.0263028 0)
(12.2362 -0.0182734 0)
(12.2061 -0.221016 0)
(12.061 -0.194453 0)
(9.99927 0.234998 0)
(10.3578 0.330336 0)
(10.761 0.222604 0)
(11.0181 0.0907291 0)
(11.1739 0.0874603 0)
(11.2659 0.0998162 0)
(11.3284 0.105998 0)
(11.4132 0.0819715 0)
(11.4554 0.0775921 0)
(11.5826 0.0544819 0)
(11.5703 0.0492903 0)
(11.733 0.0509838 0)
(11.7057 0.0199904 0)
(11.7752 0.0471225 0)
(11.9687 0.00138036 0)
(11.804 -0.00983437 0)
(12.0012 0.00480415 0)
(12.1554 -0.0440248 0)
(12.1006 -0.207876 0)
(11.9404 -0.190368 0)
(10.0005 0.194639 0)
(10.3239 0.284025 0)
(10.7111 0.199656 0)
(10.9727 0.0777192 0)
(11.1432 0.0719856 0)
(11.2283 0.0850187 0)
(11.2986 0.0925785 0)
(11.3618 0.0737736 0)
(11.4385 0.0645399 0)
(11.5208 0.0489517 0)
(11.5558 0.0366938 0)
(11.6965 0.0470735 0)
(11.6207 0.0152411 0)
(11.8512 0.0311021 0)
(11.7983 0.00431369 0)
(11.8363 -0.0208205 0)
(12.0031 -0.0182125 0)
(12.0443 -0.0534415 0)
(12.0223 -0.204245 0)
(11.9136 -0.195937 0)
(10.0016 0.158114 0)
(10.2971 0.239557 0)
(10.6695 0.171504 0)
(10.9372 0.0647813 0)
(11.1149 0.059525 0)
(11.1997 0.0714223 0)
(11.27 0.0806831 0)
(11.3248 0.0613237 0)
(11.4217 0.0532053 0)
(11.4594 0.0414147 0)
(11.5774 0.0283208 0)
(11.5908 0.0437879 0)
(11.6606 0.00410389 0)
(11.8062 0.0222248 0)
(11.6983 0.00613511 0)
(11.9123 -0.0418524 0)
(11.9239 -0.0283475 0)
(11.9589 -0.0603425 0)
(11.9889 -0.209086 0)
(11.9502 -0.215435 0)
(10.0018 0.125097 0)
(10.2763 0.194931 0)
(10.6362 0.141506 0)
(10.9094 0.0535804 0)
(11.0879 0.047691 0)
(11.1795 0.0565045 0)
(11.2417 0.067433 0)
(11.3079 0.0499189 0)
(11.3854 0.0436253 0)
(11.4418 0.0309326 0)
(11.5557 0.0228366 0)
(11.5213 0.0358767 0)
(11.7327 -0.00659398 0)
(11.66 0.0220443 0)
(11.743 -0.00536944 0)
(11.9055 -0.0568163 0)
(11.8299 -0.029881 0)
(11.9197 -0.0753149 0)
(12.0028 -0.22198 0)
(11.9161 -0.226096 0)
(10.0022 0.0947759 0)
(10.2598 0.150713 0)
(10.6105 0.111083 0)
(10.8865 0.0410256 0)
(11.0662 0.03664 0)
(11.1643 0.0433442 0)
(11.2204 0.0536929 0)
(11.2938 0.0380203 0)
(11.3509 0.0315862 0)
(11.453 0.0221103 0)
(11.479 0.0208875 0)
(11.5596 0.0210427 0)
(11.6964 -0.00889668 0)
(11.5802 0.0174126 0)
(11.8259 -0.0225346 0)
(11.813 -0.0599324 0)
(11.7838 -0.0358779 0)
(11.9312 -0.0967697 0)
(11.9908 -0.225771 0)
(11.8409 -0.24095 0)
(10.0027 0.0667656 0)
(10.2469 0.105997 0)
(10.5928 0.0807373 0)
(10.868 0.02884 0)
(11.0512 0.0267794 0)
(11.151 0.0289631 0)
(11.2087 0.0393632 0)
(11.2727 0.0275331 0)
(11.3478 0.0190136 0)
(11.4308 0.0171807 0)
(11.4368 0.0126289 0)
(11.6209 0.00755909 0)
(11.5752 -0.00403038 0)
(11.6428 0.000317901 0)
(11.8141 -0.0314122 0)
(11.7311 -0.0593198 0)
(11.798 -0.0500184 0)
(11.9465 -0.117482 0)
(11.922 -0.224377 0)
(11.8165 -0.267206 0)
(10.0028 0.0399649 0)
(10.2388 0.0621301 0)
(10.5817 0.0504195 0)
(10.8542 0.0148597 0)
(11.0422 0.0174732 0)
(11.1434 0.015663 0)
(11.1976 0.0265628 0)
(11.2601 0.0144178 0)
(11.3574 0.00696506 0)
(11.3763 0.0131251 0)
(11.48 0.000762555 0)
(11.5852 0.00256737 0)
(11.5261 -0.00673188 0)
(11.7265 -0.0175191 0)
(11.7226 -0.0319625 0)
(11.7238 -0.0643467 0)
(11.8324 -0.0697135 0)
(11.9108 -0.126491 0)
(11.8687 -0.22871 0)
(11.8517 -0.28891 0)
(10.0022 0.0143076 0)
(10.2358 0.0178932 0)
(10.5756 0.0198821 0)
(10.8473 0.00104973 0)
(11.0385 0.00878784 0)
(11.14 0.00239749 0)
(11.1849 0.0123174 0)
(11.2715 0.000794415 0)
(11.3389 -0.000269935 0)
(11.3599 0.00414537 0)
(11.5267 -0.0095228 0)
(11.4932 0.000817217 0)
(11.5956 -0.0180876 0)
(11.7086 -0.0269631 0)
(11.6659 -0.0329107 0)
(11.7632 -0.0753342 0)
(11.8333 -0.0849633 0)
(11.8536 -0.130707 0)
(11.8774 -0.242097 0)
(11.8683 -0.302647 0)
(10.0012 -0.0112663 0)
(10.2376 -0.0259728 0)
(10.574 -0.0101988 0)
(10.8482 -0.0140197 0)
(11.0399 3.21273e-05 0)
(11.1367 -0.00957094 0)
(11.1849 -0.00239726 0)
(11.2845 -0.0116669 0)
(11.3059 -0.00879585 0)
(11.4047 -0.00810566 0)
(11.495 -0.0122673 0)
(11.4778 -0.00654554 0)
(11.658 -0.030306 0)
(11.6384 -0.0294683 0)
(11.6848 -0.0400127 0)
(11.7901 -0.0878906 0)
(11.7986 -0.0924965 0)
(11.8387 -0.140065 0)
(11.8975 -0.255306 0)
(11.8483 -0.313583 0)
(10.0006 -0.0371181 0)
(10.2424 -0.0699101 0)
(10.5784 -0.040689 0)
(10.8573 -0.0285083 0)
(11.0435 -0.00785333 0)
(11.1359 -0.0226244 0)
(11.2024 -0.0183307 0)
(11.2744 -0.0217365 0)
(11.3137 -0.0199212 0)
(11.4366 -0.0174487 0)
(11.4404 -0.014105 0)
(11.546 -0.0215705 0)
(11.634 -0.0330091 0)
(11.621 -0.0358282 0)
(11.7253 -0.0494421 0)
(11.7833 -0.0980364 0)
(11.7753 -0.094084 0)
(11.8577 -0.161993 0)
(11.8943 -0.254839 0)
(11.8356 -0.333392 0)
(10.0003 -0.0639449 0)
(10.25 -0.113889 0)
(10.5905 -0.071057 0)
(10.8724 -0.0421764 0)
(11.0477 -0.0167454 0)
(11.1483 -0.0367529 0)
(11.2167 -0.0318648 0)
(11.2633 -0.0326515 0)
(11.3598 -0.0333045 0)
(11.4124 -0.0225477 0)
(11.4564 -0.0212723 0)
(11.5876 -0.0326753 0)
(11.5917 -0.0349165 0)
(11.6589 -0.0453651 0)
(11.744 -0.0595152 0)
(11.7638 -0.100799 0)
(11.788 -0.105569 0)
(11.872 -0.175315 0)
(11.8903 -0.260553 0)
(11.8297 -0.343903 0)
(9.99981 -0.0921186 0)
(10.262 -0.158222 0)
(10.6105 -0.101775 0)
(10.8907 -0.0544024 0)
(11.0579 -0.0263384 0)
(11.1703 -0.0515267 0)
(11.2172 -0.0443754 0)
(11.2871 -0.0468151 0)
(11.3846 -0.0425726 0)
(11.3932 -0.0282603 0)
(11.5172 -0.0319264 0)
(11.5694 -0.0387268 0)
(11.6032 -0.040131 0)
(11.6968 -0.055451 0)
(11.7427 -0.0668204 0)
(11.7631 -0.103228 0)
(11.8178 -0.121264 0)
(11.8777 -0.1811 0)
(11.8928 -0.276633 0)
(11.8152 -0.336602 0)
(9.99788 -0.122489 0)
(10.2808 -0.202761 0)
(10.6364 -0.132306 0)
(10.9124 -0.0654619 0)
(11.0799 -0.0381579 0)
(11.1864 -0.0652334 0)
(11.2286 -0.0576876 0)
(11.3274 -0.0606235 0)
(11.3778 -0.0499233 0)
(11.4306 -0.0387169 0)
(11.5445 -0.0388598 0)
(11.5599 -0.0453014 0)
(11.6478 -0.0463976 0)
(11.7134 -0.0665732 0)
(11.7433 -0.0682357 0)
(11.7888 -0.114161 0)
(11.8445 -0.128972 0)
(11.8843 -0.194763 0)
(11.8945 -0.282557 0)
(11.8397 -0.342992 0)
(9.99514 -0.155597 0)
(10.3062 -0.24734 0)
(10.6661 -0.162371 0)
(10.9426 -0.0766541 0)
(11.1077 -0.0503336 0)
(11.1984 -0.078522 0)
(11.2658 -0.072666 0)
(11.3469 -0.0720677 0)
(11.3915 -0.0587008 0)
(11.4844 -0.0495807 0)
(11.5415 -0.0431435 0)
(11.5946 -0.0544962 0)
(11.6848 -0.0539111 0)
(11.7192 -0.0727125 0)
(11.7659 -0.0736003 0)
(11.824 -0.124164 0)
(11.8642 -0.13627 0)
(11.8969 -0.205755 0)
(11.9191 -0.291324 0)
(11.8729 -0.354665 0)
(9.99415 -0.192684 0)
(10.3346 -0.291504 0)
(10.7029 -0.190835 0)
(10.9829 -0.0882714 0)
(11.1326 -0.0626304 0)
(11.2249 -0.0936937 0)
(11.3063 -0.0858502 0)
(11.3593 -0.0819271 0)
(11.4402 -0.0700087 0)
(11.5114 -0.0582543 0)
(11.5586 -0.0484512 0)
(11.6484 -0.0649929 0)
(11.7045 -0.0586135 0)
(11.7365 -0.0784237 0)
(11.8079 -0.0829039 0)
(11.8531 -0.12968 0)
(11.8857 -0.14503 0)
(11.9327 -0.216374 0)
(11.9516 -0.301369 0)
(11.8729 -0.364566 0)
(9.99782 -0.233304 0)
(10.3635 -0.337073 0)
(10.7537 -0.214804 0)
(11.0269 -0.101126 0)
(11.1629 -0.0774689 0)
(11.265 -0.108745 0)
(11.3359 -0.0981507 0)
(11.3967 -0.092836 0)
(11.4893 -0.0806472 0)
(11.5296 -0.0656323 0)
(11.6084 -0.0566669 0)
(11.6902 -0.0739938 0)
(11.7261 -0.0617146 0)
(11.7778 -0.0870918 0)
(11.8494 -0.0894791 0)
(11.8802 -0.136531 0)
(11.9279 -0.152598 0)
(11.9775 -0.228962 0)
(11.9697 -0.305148 0)
(11.8878 -0.384439 0)
(10.0102 -0.278631 0)
(10.3936 -0.384368 0)
(10.8209 -0.232087 0)
(11.0652 -0.116683 0)
(11.21 -0.0956153 0)
(11.2968 -0.123266 0)
(11.3746 -0.111447 0)
(11.4466 -0.103559 0)
(11.5284 -0.0897975 0)
(11.5666 -0.0748595 0)
(11.6664 -0.0658909 0)
(11.7164 -0.0812498 0)
(11.7745 -0.0659468 0)
(11.8246 -0.0967019 0)
(11.8903 -0.0936594 0)
(11.9197 -0.146264 0)
(11.9834 -0.157322 0)
(12.003 -0.241647 0)
(11.9925 -0.304721 0)
(11.9265 -0.41281 0)
(10.0358 -0.330125 0)
(10.4229 -0.432163 0)
(10.9021 -0.244875 0)
(11.0924 -0.134558 0)
(11.2723 -0.114997 0)
(11.3148 -0.137365 0)
(11.4414 -0.12488 0)
(11.4771 -0.113006 0)
(11.5887 -0.0992967 0)
(11.6101 -0.0842799 0)
(11.7241 -0.0742178 0)
(11.7449 -0.0880677 0)
(11.8468 -0.0730501 0)
(11.861 -0.102971 0)
(11.9521 -0.100764 0)
(11.96 -0.152555 0)
(12.0317 -0.163404 0)
(12.0081 -0.246736 0)
(12.0217 -0.310045 0)
(11.9379 -0.431925 0)
(10.0644 -0.388979 0)
(10.4509 -0.479009 0)
(10.9913 -0.256366 0)
(11.1121 -0.153123 0)
(11.3454 -0.13593 0)
(11.3357 -0.15122 0)
(11.5279 -0.13865 0)
(11.4975 -0.121208 0)
(11.6805 -0.110456 0)
(11.6378 -0.0920924 0)
(11.8061 -0.0836181 0)
(11.7728 -0.0950908 0)
(11.9312 -0.081236 0)
(11.8822 -0.108535 0)
(12.0247 -0.108002 0)
(11.9578 -0.156484 0)
(12.0571 -0.166083 0)
(11.9601 -0.249677 0)
(11.9914 -0.311498 0)
(11.8064 -0.443473 0)
(10.0691 -0.453658 0)
(10.4939 -0.525069 0)
(11.0746 -0.268022 0)
(11.1531 -0.173812 0)
(11.4236 -0.158803 0)
(11.3822 -0.165825 0)
(11.6153 -0.151952 0)
(11.5411 -0.130237 0)
(11.7675 -0.121754 0)
(11.6663 -0.100103 0)
(11.8816 -0.0936999 0)
(11.7775 -0.101406 0)
(11.9699 -0.0894469 0)
(11.8387 -0.112093 0)
(11.9996 -0.112625 0)
(11.8332 -0.155867 0)
(11.9362 -0.164032 0)
(11.7267 -0.247347 0)
(11.722 -0.299446 0)
(11.3763 -0.444284 0)
(10.0456 -0.524667 0)
(10.5662 -0.567644 0)
(11.158 -0.281642 0)
(11.2385 -0.197465 0)
(11.5004 -0.182936 0)
(11.4591 -0.180747 0)
(11.6773 -0.16368 0)
(11.5821 -0.139477 0)
(11.7789 -0.13021 0)
(11.6271 -0.106706 0)
(11.8122 -0.100159 0)
(11.6262 -0.103151 0)
(11.7823 -0.0923727 0)
(11.5608 -0.108979 0)
(11.6812 -0.110689 0)
(11.4158 -0.146148 0)
(11.4788 -0.155558 0)
(11.1573 -0.229907 0)
(11.0885 -0.2761 0)
(10.6168 -0.418552 0)
(10.0153 -0.603737 0)
(10.6751 -0.602538 0)
(11.2611 -0.301455 0)
(11.3445 -0.22511 0)
(11.5479 -0.207147 0)
(11.4793 -0.192965 0)
(11.5968 -0.169767 0)
(11.4351 -0.142769 0)
(11.511 -0.129249 0)
(11.281 -0.10442 0)
(11.3653 -0.0956549 0)
(11.0996 -0.0949323 0)
(11.1813 -0.0847434 0)
(10.8947 -0.0971375 0)
(10.9573 -0.0987317 0)
(10.632 -0.1283 0)
(10.649 -0.137318 0)
(10.2596 -0.201683 0)
(10.1412 -0.241695 0)
(9.58589 -0.36888 0)
(10.0151 -0.6926 0)
(10.8164 -0.635679 0)
(11.3404 -0.332494 0)
(11.3402 -0.255118 0)
(11.3708 -0.221846 0)
(11.1586 -0.190089 0)
(11.0889 -0.158893 0)
(10.8098 -0.129172 0)
(10.7453 -0.112078 0)
(10.4494 -0.0885025 0)
(10.4469 -0.0792995 0)
(10.1434 -0.077533 0)
(10.1711 -0.0693069 0)
(9.86349 -0.0790135 0)
(9.88425 -0.0810159 0)
(9.54256 -0.105282 0)
(9.5203 -0.114028 0)
(9.10988 -0.166219 0)
(8.94392 -0.201814 0)
(8.36509 -0.2968 0)
(10.0902 -0.806584 0)
(10.8934 -0.66932 0)
(11.1576 -0.356135 0)
(10.8717 -0.258483 0)
(10.61 -0.201714 0)
(10.215 -0.158186 0)
(9.98542 -0.125866 0)
(9.63926 -0.0993089 0)
(9.49274 -0.0836967 0)
(9.18932 -0.0654226 0)
(9.13942 -0.0579804 0)
(8.84536 -0.0572434 0)
(8.8413 -0.051364 0)
(8.54749 -0.0591904 0)
(8.54035 -0.0612595 0)
(8.21169 -0.080514 0)
(8.16055 -0.0878742 0)
(7.75907 -0.127649 0)
(7.55928 -0.157701 0)
(6.99787 -0.215288 0)
(10.1689 -0.94826 0)
(10.5507 -0.668314 0)
(10.279 -0.329966 0)
(9.62544 -0.211561 0)
(9.13994 -0.146807 0)
(8.66896 -0.108036 0)
(8.38153 -0.0838503 0)
(8.04448 -0.0653982 0)
(7.87603 -0.0541868 0)
(7.6084 -0.0424022 0)
(7.54004 -0.0371454 0)
(7.28721 -0.037767 0)
(7.26525 -0.0338719 0)
(7.01004 -0.0399377 0)
(6.98454 -0.0415746 0)
(6.69188 -0.0558612 0)
(6.62238 -0.0609351 0)
(6.25342 -0.0893572 0)
(6.04457 -0.109836 0)
(5.51173 -0.14744 0)
(9.86126 -1.02224 0)
(9.33446 -0.577275 0)
(8.48814 -0.241029 0)
(7.62941 -0.13096 0)
(7.1043 -0.0813719 0)
(6.68042 -0.0582234 0)
(6.41905 -0.0452259 0)
(6.14189 -0.0351186 0)
(5.99404 -0.0287995 0)
(5.78524 -0.0226538 0)
(5.72162 -0.0194667 0)
(5.52722 -0.0210276 0)
(5.49849 -0.0186372 0)
(5.29814 -0.022862 0)
(5.26362 -0.0237335 0)
(5.02527 -0.0330912 0)
(4.94884 -0.0356858 0)
(4.6375 -0.0532624 0)
(4.43899 -0.0647395 0)
(3.97363 -0.0910243 0)
(8.6009 -0.871974 0)
(6.94428 -0.383564 0)
(5.81817 -0.121534 0)
(5.04954 -0.0513213 0)
(4.65858 -0.0281196 0)
(4.36822 -0.0207395 0)
(4.18674 -0.0165688 0)
(4.00025 -0.0127707 0)
(3.89873 -0.0103391 0)
(3.76316 -0.00823281 0)
(3.71853 -0.00681972 0)
(3.59267 -0.0084445 0)
(3.5659 -0.00717759 0)
(3.43283 -0.00947135 0)
(3.39898 -0.00963812 0)
(3.23307 -0.0144114 0)
(3.16432 -0.0150363 0)
(2.93954 -0.0231727 0)
(2.77657 -0.0277331 0)
(2.43721 -0.0427713 0)
(5.32847 -0.309402 0)
(2.98393 -0.0606835 0)
(2.19799 0.00165498 0)
(1.84604 0.00347444 0)
(1.70798 0.00132948 0)
(1.60731 0.000144881 0)
(1.54044 -9.17173e-05 0)
(1.47228 4.37097e-05 0)
(1.43511 1.66643e-05 0)
(1.38688 -5.57785e-05 0)
(1.37076 0.000163536 0)
(1.32511 -0.000556849 0)
(1.31077 -0.000106324 0)
(1.26016 -0.00063458 0)
(1.24128 -0.000309795 0)
(1.17352 -0.00125788 0)
(1.13619 -0.000744377 0)
(1.04069 -0.00183401 0)
(0.959696 -0.00227913 0)
(0.816692 -0.00113506 0)
(1.87219 0.00273762 0)
(2.17666 0.60994 0)
(2.87946 0.876201 0)
(3.96274 1.17578 0)
(4.82596 0.98831 0)
(5.03422 0.418335 0)
(5.89534 0.238555 0)
(6.78679 -0.263599 0)
(7.00446 -0.913133 0)
(7.58523 -1.5598 0)
(8.56828 -2.12903 0)
(8.99529 -2.77317 0)
(9.80049 -3.39742 0)
(10.3325 -4.15997 0)
(10.2989 -4.76783 0)
(10.5547 -5.04896 0)
(9.40474 -5.37451 0)
(8.97277 -4.86556 0)
(7.9927 -4.79441 0)
(6.85894 -4.37098 0)
(6.79947 -2.88505 0)
(6.02256 -2.89985 0)
(5.26514 -2.38046 0)
(5.78567 -0.398868 0)
(5.73179 -0.313107 0)
(4.76581 -1.03182 0)
(4.68083 0.77963 0)
(6.08732 2.93298 0)
(6.9744 4.49952 0)
(7.42916 5.14879 0)
(7.87994 4.82289 0)
(8.22836 4.61909 0)
(8.6395 3.98726 0)
(8.23455 3.0458 0)
(8.30408 2.88474 0)
(8.707 2.56861 0)
(8.6352 2.00171 0)
(8.93809 2.21949 0)
(10.1825 1.95598 0)
(10.5731 1.6575 0)
(10.6332 1.67634 0)
(11.8025 0.333656 0)
(12.005 -0.7783 0)
(11.6163 -1.11766 0)
(12.2817 -2.54869 0)
(12.3558 -3.89179 0)
(11.8029 -4.43779 0)
(11.4765 -4.9688 0)
(11.4037 -5.57817 0)
(11.927 -6.63629 0)
(12.1857 -7.71627 0)
(11.8663 -8.03212 0)
(11.6375 -8.20224 0)
(11.3829 -8.44142 0)
(10.8042 -8.1779 0)
(10.4354 -7.89977 0)
(10.5521 -8.20866 0)
(10.7155 -8.54885 0)
(10.5669 -8.35173 0)
(10.0416 -7.74861 0)
(9.47139 -7.16164 0)
(9.27409 -6.90949 0)
(9.48592 -6.94906 0)
(9.91065 -6.97238 0)
(10.3699 -6.70874 0)
(10.6879 -6.12164 0)
(10.8233 -5.2292 0)
(10.9428 -4.13299 0)
(11.112 -3.06773 0)
(11.207 -1.91733 0)
(11.1709 -0.55399 0)
(10.9973 0.739846 0)
(10.7727 1.82867 0)
(10.5433 2.95029 0)
(10.183 4.03109 0)
(9.66567 4.72322 0)
(9.10355 5.03178 0)
(8.55526 5.21306 0)
(8.02696 5.30725 0)
(7.54138 5.19645 0)
(7.10942 4.885 0)
(6.74107 4.49861 0)
(6.43333 4.10121 0)
(6.18645 3.69912 0)
(5.9757 3.30133 0)
(5.81285 2.95568 0)
(5.66651 2.67118 0)
(5.5907 2.44504 0)
(5.50444 2.2301 0)
(5.4919 2.03752 0)
(5.41962 1.84317 0)
(5.3991 1.69519 0)
(5.31812 1.56624 0)
(5.25742 1.46249 0)
(5.22771 1.38002 0)
(5.14772 1.23242 0)
(5.23653 1.15635 0)
(5.13765 0.945236 0)
(5.32069 0.892847 0)
(5.19885 0.710534 0)
(5.37587 0.683569 0)
(5.29613 0.596455 0)
(5.3541 0.564058 0)
(5.39603 0.536443 0)
(5.28965 0.504564 0)
(5.44828 0.455212 0)
(5.24273 0.458603 0)
(5.43041 0.358435 0)
(5.23855 0.38548 0)
(5.37928 0.288363 0)
(5.24748 0.282044 0)
(5.35543 0.246561 0)
(5.23143 0.193223 0)
(5.37595 0.200691 0)
(5.2001 0.148605 0)
(5.40199 0.15178 0)
(5.18625 0.127889 0)
(5.40251 0.122459 0)
(5.19043 0.106023 0)
(5.39243 0.107311 0)
(5.18964 0.0895586 0)
(5.39334 0.0888212 0)
(5.17994 0.0817699 0)
(5.39854 0.0769556 0)
(5.17294 0.0683225 0)
(5.39845 0.0781952 0)
(5.16841 0.0534073 0)
(5.3997 0.0737424 0)
(5.16285 0.0523945 0)
(5.40245 0.0623124 0)
(5.15969 0.0532409 0)
(5.40534 0.0633902 0)
(5.15136 0.0453043 0)
(5.41653 0.0684439 0)
(5.13852 0.0463322 0)
(5.42509 0.0654018 0)
(5.13404 0.0522783 0)
(5.42898 0.0701033 0)
(5.12607 0.0523182 0)
(5.43958 0.0768385 0)
(5.11946 0.0598763 0)
(5.44052 0.0816212 0)
(5.1229 0.06599 0)
(5.44185 0.0952223 0)
(5.11789 0.0736431 0)
(5.45144 0.101042 0)
(5.11409 0.0936507 0)
(5.45277 0.113586 0)
(5.12374 0.0958195 0)
(5.44296 0.148499 0)
(5.13384 0.105546 0)
(5.46166 0.149141 0)
(5.1019 0.168227 0)
(5.49689 0.130888 0)
(5.11299 0.20034 0)
(5.44767 0.193709 0)
(5.19006 0.173072 0)
(5.40831 0.25776 0)
(5.21741 0.225079 0)
(5.4045 0.245084 0)
(5.26905 0.303758 0)
(5.35255 0.275748 0)
(5.33592 0.350562 0)
(5.32382 0.316269 0)
(5.40846 0.411905 0)
(5.26462 0.370972 0)
(5.4972 0.479381 0)
(5.23437 0.420072 0)
(5.58127 0.555287 0)
(5.18798 0.509143 0)
(5.67402 0.627636 0)
(5.19356 0.584524 0)
(5.7142 0.722983 0)
(5.24122 0.726647 0)
(5.72922 0.776881 0)
(5.37225 0.877684 0)
(5.64591 0.87385 0)
(5.59034 1.05306 0)
(5.50339 0.997179 0)
(5.82144 1.21695 0)
(5.41343 1.16226 0)
(5.98599 1.39886 0)
(5.4426 1.39406 0)
(5.9977 1.52514 0)
(5.63074 1.71401 0)
(5.82997 1.71947 0)
(5.94237 2.00355 0)
(5.70945 2.03504 0)
(6.08612 2.21941 0)
(5.81947 2.49324 0)
(5.79843 2.54897 0)
(5.96869 2.92613 0)
(5.51659 3.19072 0)
(5.78465 3.36976 0)
(5.62121 3.95606 0)
(5.54861 4.35103 0)
(5.5333 4.8219 0)
(5.25036 6.02234 0)
(5.53529 7.03962 0)
(3.07636 10.3884 0)
(3.77575 0.0222873 0)
(3.85027 0.506228 0)
(4.24202 0.611357 0)
(4.58352 0.803277 0)
(5.77711 0.768899 0)
(6.06173 0.305565 0)
(6.64825 -0.0809038 0)
(7.74745 -0.676625 0)
(8.15758 -1.10321 0)
(8.95865 -1.82945 0)
(9.75213 -2.43423 0)
(10.2607 -2.96983 0)
(10.6564 -3.61232 0)
(11.2154 -4.22709 0)
(10.8685 -4.75765 0)
(10.8588 -4.80582 0)
(9.5328 -5.02203 0)
(9.12362 -4.61525 0)
(8.14529 -4.39709 0)
(7.07258 -4.16045 0)
(7.07 -2.68027 0)
(6.35619 -2.54754 0)
(5.38787 -2.36402 0)
(5.96904 -0.443665 0)
(6.11039 -0.0539923 0)
(5.15266 -0.827072 0)
(4.62111 0.448045 0)
(6.21747 2.45078 0)
(7.08551 4.18895 0)
(7.84656 4.94624 0)
(8.18947 4.65155 0)
(8.53549 4.54028 0)
(8.91714 4.01732 0)
(8.53166 3.11841 0)
(8.58591 2.87574 0)
(9.06879 2.48812 0)
(8.94016 1.92786 0)
(9.12259 2.05237 0)
(10.2574 1.68338 0)
(10.5797 1.40331 0)
(10.713 1.43253 0)
(11.8458 0.18655 0)
(11.9968 -0.771171 0)
(11.7719 -1.22964 0)
(12.445 -2.68039 0)
(12.3451 -3.77705 0)
(11.8308 -4.2583 0)
(11.6784 -4.92992 0)
(11.7394 -5.6849 0)
(12.2617 -6.77732 0)
(12.3883 -7.72297 0)
(11.9948 -7.92772 0)
(11.7224 -8.07866 0)
(11.3799 -8.26516 0)
(10.7847 -7.99675 0)
(10.5108 -7.86773 0)
(10.6786 -8.28793 0)
(10.7158 -8.54402 0)
(10.3528 -8.16665 0)
(9.69153 -7.49845 0)
(9.12248 -7.01923 0)
(8.98422 -6.93687 0)
(9.23244 -7.08686 0)
(9.6398 -7.1412 0)
(10.0329 -6.84303 0)
(10.27 -6.18966 0)
(10.36 -5.25786 0)
(10.4737 -4.17611 0)
(10.6524 -3.10403 0)
(10.7401 -1.9135 0)
(10.6605 -0.504979 0)
(10.4709 0.815363 0)
(10.2679 1.92855 0)
(10.0529 3.07243 0)
(9.7133 4.18403 0)
(9.23692 4.91991 0)
(8.72042 5.25316 0)
(8.20724 5.42652 0)
(7.70705 5.50438 0)
(7.25204 5.38018 0)
(6.85059 5.04794 0)
(6.51339 4.63586 0)
(6.23441 4.21053 0)
(6.01512 3.79359 0)
(5.82404 3.37696 0)
(5.67815 3.02391 0)
(5.55236 2.71274 0)
(5.47409 2.48005 0)
(5.42268 2.24195 0)
(5.38487 2.05641 0)
(5.36883 1.8528 0)
(5.31468 1.72154 0)
(5.28364 1.58369 0)
(5.22558 1.49179 0)
(5.19177 1.38581 0)
(5.1967 1.24532 0)
(5.19172 1.14086 0)
(5.23241 0.943794 0)
(5.26664 0.870218 0)
(5.25235 0.710835 0)
(5.331 0.661847 0)
(5.24575 0.607653 0)
(5.3488 0.541407 0)
(5.23845 0.558355 0)
(5.33651 0.482859 0)
(5.22414 0.4801 0)
(5.32723 0.442279 0)
(5.1961 0.378675 0)
(5.33227 0.373128 0)
(5.17876 0.303523 0)
(5.33432 0.272337 0)
(5.18943 0.252372 0)
(5.33561 0.193608 0)
(5.19777 0.190526 0)
(5.36247 0.164189 0)
(5.17878 0.129788 0)
(5.4023 0.14794 0)
(5.15943 0.107493 0)
(5.41017 0.113564 0)
(5.16932 0.108272 0)
(5.39007 0.0855221 0)
(5.1832 0.0930368 0)
(5.38586 0.083276 0)
(5.17374 0.0687163 0)
(5.39902 0.0842741 0)
(5.15996 0.0589287 0)
(5.40163 0.0740946 0)
(5.16003 0.0549269 0)
(5.39903 0.0691132 0)
(5.15655 0.0453923 0)
(5.41036 0.071691 0)
(5.1402 0.0414624 0)
(5.42614 0.0695343 0)
(5.12727 0.0428643 0)
(5.43676 0.0697739 0)
(5.11666 0.0432215 0)
(5.44872 0.072278 0)
(5.10795 0.0484015 0)
(5.45275 0.0757883 0)
(5.10656 0.0488254 0)
(5.46107 0.0878604 0)
(5.09233 0.053401 0)
(5.47893 0.0907417 0)
(5.08398 0.0687707 0)
(5.48219 0.101358 0)
(5.08241 0.0680981 0)
(5.49678 0.125206 0)
(5.06707 0.0808046 0)
(5.51526 0.126959 0)
(5.05661 0.113953 0)
(5.53121 0.134587 0)
(5.05975 0.123229 0)
(5.51038 0.187505 0)
(5.10931 0.102764 0)
(5.49287 0.234779 0)
(5.09254 0.157857 0)
(5.55449 0.192102 0)
(5.07135 0.24977 0)
(5.53493 0.226014 0)
(5.13779 0.232589 0)
(5.50779 0.303559 0)
(5.16222 0.287452 0)
(5.49786 0.316921 0)
(5.24985 0.344133 0)
(5.42333 0.370255 0)
(5.34234 0.421012 0)
(5.36798 0.402312 0)
(5.47549 0.492073 0)
(5.27895 0.46345 0)
(5.59454 0.594469 0)
(5.20557 0.528747 0)
(5.74485 0.663978 0)
(5.17181 0.623234 0)
(5.82151 0.780504 0)
(5.16995 0.746881 0)
(5.89576 0.852608 0)
(5.30534 0.891209 0)
(5.81963 0.963784 0)
(5.48899 1.11729 0)
(5.71242 1.05891 0)
(5.81019 1.28987 0)
(5.57077 1.21836 0)
(6.01796 1.50591 0)
(5.4843 1.50239 0)
(6.07464 1.66285 0)
(5.67661 1.82361 0)
(5.89963 1.83768 0)
(6.01266 2.15048 0)
(5.69522 2.20573 0)
(6.17934 2.40666 0)
(5.91868 2.72355 0)
(5.9998 2.76437 0)
(6.21049 3.20099 0)
(5.85536 3.55578 0)
(5.85649 3.84735 0)
(5.88701 4.49509 0)
(5.53177 5.16568 0)
(5.25231 6.267 0)
(6.80466 6.74741 0)
(4.40947 11.2146 0)
(5.57888 -0.0455787 0)
(5.57662 0.402187 0)
(6.2411 0.536253 0)
(6.04568 0.606192 0)
(7.18585 0.433544 0)
(7.5708 0.0894418 0)
(8.06139 -0.310413 0)
(9.17806 -1.03694 0)
(9.4363 -1.345 0)
(10.3234 -2.04995 0)
(10.7956 -2.70667 0)
(11.3025 -3.11032 0)
(11.4116 -3.73508 0)
(11.8529 -4.1986 0)
(11.236 -4.66155 0)
(10.8906 -4.48535 0)
(9.5951 -4.67744 0)
(9.1682 -4.37479 0)
(8.30862 -4.0265 0)
(7.31386 -3.9585 0)
(7.26662 -2.49759 0)
(6.6869 -2.19015 0)
(5.64077 -2.32428 0)
(6.13567 -0.554766 0)
(6.42239 0.146982 0)
(5.56212 -0.538434 0)
(4.69337 0.147001 0)
(6.40163 1.89122 0)
(7.14773 3.83192 0)
(8.12825 4.71576 0)
(8.45529 4.48662 0)
(8.81577 4.47455 0)
(9.19202 4.00336 0)
(8.88152 3.09724 0)
(8.86298 2.81917 0)
(9.30676 2.38643 0)
(9.12636 1.814 0)
(9.27465 1.88801 0)
(10.2713 1.48188 0)
(10.5082 1.19807 0)
(10.7355 1.17336 0)
(11.7736 0.0385083 0)
(11.8645 -0.787971 0)
(11.8563 -1.40374 0)
(12.5091 -2.79426 0)
(12.236 -3.62008 0)
(11.8249 -4.13252 0)
(11.9075 -4.98377 0)
(12.0933 -5.8283 0)
(12.5642 -6.87615 0)
(12.5382 -7.65338 0)
(12.078 -7.78551 0)
(11.7751 -7.93725 0)
(11.3397 -8.0562 0)
(10.7705 -7.81694 0)
(10.6201 -7.85703 0)
(10.7874 -8.32831 0)
(10.648 -8.4425 0)
(10.0596 -7.89986 0)
(9.28387 -7.22165 0)
(8.75351 -6.90307 0)
(8.68066 -6.98653 0)
(8.94278 -7.21975 0)
(9.30831 -7.27458 0)
(9.62969 -6.93726 0)
(9.78842 -6.22962 0)
(9.8383 -5.28801 0)
(9.95785 -4.22756 0)
(10.1386 -3.13907 0)
(10.2021 -1.89413 0)
(10.0829 -0.452093 0)
(9.87169 0.889543 0)
(9.69306 2.02406 0)
(9.50809 3.18397 0)
(9.18758 4.3228 0)
(8.7538 5.09662 0)
(8.29047 5.45129 0)
(7.81669 5.62605 0)
(7.35357 5.69081 0)
(6.93397 5.54721 0)
(6.56838 5.19395 0)
(6.26945 4.76177 0)
(6.02006 4.31189 0)
(5.82992 3.87711 0)
(5.66589 3.44002 0)
(5.54497 3.07713 0)
(5.4326 2.74782 0)
(5.36857 2.51021 0)
(5.30889 2.25338 0)
(5.30856 2.07741 0)
(5.25693 1.85445 0)
(5.28333 1.75403 0)
(5.18204 1.58117 0)
(5.24349 1.52673 0)
(5.13427 1.36835 0)
(5.24738 1.25787 0)
(5.19526 1.11783 0)
(5.27233 0.937726 0)
(5.2835 0.861494 0)
(5.26048 0.704602 0)
(5.29043 0.665719 0)
(5.25026 0.608335 0)
(5.21491 0.545128 0)
(5.27187 0.565483 0)
(5.13351 0.482167 0)
(5.27979 0.487865 0)
(5.12393 0.440576 0)
(5.24481 0.383586 0)
(5.18077 0.367267 0)
(5.21826 0.311028 0)
(5.21763 0.256612 0)
(5.25949 0.268043 0)
(5.19731 0.168643 0)
(5.33407 0.211309 0)
(5.17816 0.136114 0)
(5.36844 0.153931 0)
(5.19785 0.120077 0)
(5.36147 0.132447 0)
(5.21459 0.0921906 0)
(5.36121 0.124722 0)
(5.20664 0.0758859 0)
(5.36775 0.0999594 0)
(5.20763 0.075334 0)
(5.35747 0.0833072 0)
(5.22037 0.0631146 0)
(5.34866 0.0873934 0)
(5.21381 0.046193 0)
(5.36078 0.0805131 0)
(5.19828 0.0497224 0)
(5.36976 0.0625939 0)
(5.19795 0.0542303 0)
(5.37009 0.0651275 0)
(5.18996 0.0423698 0)
(5.38788 0.0727963 0)
(5.16922 0.0434229 0)
(5.40238 0.0667679 0)
(5.16674 0.0502519 0)
(5.40305 0.07532 0)
(5.15775 0.0443564 0)
(5.42457 0.0831937 0)
(5.13749 0.0552513 0)
(5.43564 0.0841858 0)
(5.14049 0.0589411 0)
(5.43913 0.105252 0)
(5.12442 0.0607635 0)
(5.4691 0.108852 0)
(5.10423 0.0853162 0)
(5.48418 0.120346 0)
(5.09888 0.0838193 0)
(5.49982 0.159914 0)
(5.08864 0.0827301 0)
(5.52438 0.180013 0)