/*--------------------------------*- C++ -*----------------------------------*\
| =========                 |                                                 |
| \\      /  F ield         | OpenFOAM: The Open Source CFD Toolbox           |
|  \\    /   O peration     | Version:  2.4.0                                 |
|   \\  /    A nd           | Web:      www.OpenFOAM.org                      |
|    \\/     M anipulation  |                                                 |
\*---------------------------------------------------------------------------*/
FoamFile
{
    version     2.0;
    format      ascii;
    class       volScalarField;
    location    "0.00270101";
    object      nut;
}
// * * * * * * * * * * * * * * * * * * * * * * * * * * * * * * * * * * * * * //

dimensions      [0 2 -1 0 0 0 0];

internalField   nonuniform List<scalar> 
17600
(
0.000105051
0.000117002
0.000124311
0.000129569
0.000131904
0.000132857
0.000133483
0.000133782
0.000133858
0.0001339
0.000133933
0.000133955
0.000133985
0.00013404
0.000134133
0.000134339
0.000134542
0.0001359
0.000135609
0.000136774
0.000388545
0.000273843
0.000234111
0.000224294
0.000219171
0.000215518
0.00021368
0.000213027
0.000212727
0.000212575
0.000212522
0.00021252
0.000212551
0.000212625
0.00021278
0.000213048
0.000214032
0.00021419
0.000232883
0.000378215
0.000716564
0.000598954
0.000531343
0.000507343
0.000496103
0.000488223
0.000484687
0.000483635
0.000483161
0.000482937
0.000482884
0.000482936
0.000483083
0.000483381
0.000483977
0.000485077
0.000488196
0.000492763
0.000530688
0.000660257
0.000823633
0.000781926
0.000746041
0.000727454
0.00071683
0.000709315
0.000705523
0.00070408
0.000703443
0.000703171
0.000703099
0.000703142
0.000703284
0.000703575
0.00070416
0.000705285
0.000708365
0.000714876
0.000747617
0.000870484
0.000847848
0.000841039
0.000830792
0.000821888
0.000814671
0.000809018
0.000805666
0.000804035
0.000803253
0.000802904
0.000802775
0.000802758
0.000802816
0.000802963
0.000803283
0.000803959
0.000805943
0.000811774
0.000835892
0.000955336
0.000852743
0.000856131
0.000855792
0.000851817
0.000846676
0.000842113
0.000839071
0.000837374
0.000836508
0.000836101
0.000835929
0.00083587
0.000835872
0.000835926
0.000836076
0.000836463
0.000837745
0.00084286
0.000861449
0.000963881
0.000853664
0.000859502
0.000862032
0.000859755
0.00085542
0.000851282
0.000848374
0.000846661
0.00084576
0.000845327
0.000845135
0.000845057
0.000845037
0.000845055
0.00084514
0.000845418
0.000846416
0.000851104
0.000866766
0.000946777
0.00085382
0.000860171
0.000863403
0.00086161
0.00085753
0.000853535
0.000850677
0.000848964
0.000848053
0.000847611
0.000847412
0.000847328
0.0008473
0.000847308
0.000847374
0.000847623
0.000848517
0.000852886
0.000866873
0.000928373
0.000853838
0.000860276
0.000863656
0.000861987
0.000857984
0.000854035
0.000851198
0.000849488
0.000848576
0.000848132
0.000847931
0.000847846
0.000847816
0.000847822
0.000847883
0.000848125
0.000848974
0.000853044
0.000865882
0.000914359
0.000853834
0.000860274
0.000863677
0.000862039
0.000858061
0.000854132
0.000851304
0.000849599
0.000848688
0.000848244
0.000848042
0.000847957
0.000847927
0.000847932
0.000847992
0.000848231
0.000849053
0.000852835
0.000864748
0.000904305
0.000853828
0.000860258
0.000863658
0.000862028
0.000858061
0.000854142
0.000851321
0.000849619
0.00084871
0.000848266
0.000848065
0.00084798
0.00084795
0.000847955
0.000848015
0.000848251
0.000849053
0.000852561
0.000863664
0.000896956
0.000853823
0.000860241
0.000863635
0.000862009
0.000858048
0.000854136
0.00085132
0.000849621
0.000848713
0.00084827
0.000848069
0.000847984
0.000847954
0.000847959
0.000848019
0.000848253
0.000849036
0.000852295
0.000862659
0.000891378
0.000853818
0.000860228
0.000863615
0.000861991
0.000858035
0.000854129
0.000851317
0.00084962
0.000848713
0.000848271
0.00084807
0.000847985
0.000847955
0.00084796
0.00084802
0.00084825
0.000849017
0.00085205
0.000861734
0.000886988
0.000853815
0.000860217
0.000863598
0.000861976
0.000858023
0.000854122
0.000851313
0.000849618
0.000848712
0.000848271
0.00084807
0.000847985
0.000847955
0.00084796
0.00084802
0.000848247
0.000848999
0.000851831
0.000860885
0.000883426
0.000853812
0.000860208
0.000863585
0.000861964
0.000858014
0.000854117
0.00085131
0.000849616
0.000848712
0.00084827
0.00084807
0.000847985
0.000847955
0.000847961
0.00084802
0.000848243
0.000848981
0.000851636
0.000860108
0.000880465
0.00085381
0.000860201
0.000863575
0.000861954
0.000858007
0.000854112
0.000851308
0.000849615
0.000848711
0.00084827
0.00084807
0.000847985
0.000847955
0.000847961
0.00084802
0.00084824
0.000848963
0.000851463
0.000859401
0.000877957
0.000853808
0.000860196
0.000863567
0.000861947
0.000858001
0.000854109
0.000851306
0.000849614
0.000848711
0.00084827
0.00084807
0.000847985
0.000847955
0.000847961
0.000848019
0.000848236
0.000848946
0.00085131
0.000858758
0.000875803
0.000853807
0.000860192
0.000863561
0.000861941
0.000857997
0.000854107
0.000851305
0.000849614
0.000848711
0.00084827
0.00084807
0.000847985
0.000847955
0.000847961
0.000848019
0.000848233
0.00084893
0.000851174
0.000858176
0.000873931
0.000853806
0.00086019
0.000863558
0.000861938
0.000857995
0.000854105
0.000851304
0.000849613
0.00084871
0.00084827
0.00084807
0.000847985
0.000847955
0.000847961
0.000848019
0.000848229
0.000848914
0.000851053
0.00085765
0.000872292
0.000853806
0.000860189
0.000863556
0.000861936
0.000857993
0.000854104
0.000851303
0.000849613
0.00084871
0.00084827
0.00084807
0.000847985
0.000847955
0.000847961
0.000848019
0.000848226
0.000848898
0.000850946
0.000857175
0.000870848
0.000853806
0.000860189
0.000863556
0.000861936
0.000857993
0.000854104
0.000851303
0.000849613
0.00084871
0.00084827
0.00084807
0.000847985
0.000847955
0.000847961
0.000848019
0.000848223
0.000848883
0.000850851
0.000856748
0.000869571
0.000853806
0.00086019
0.000863558
0.000861938
0.000857995
0.000854105
0.000851304
0.000849613
0.00084871
0.00084827
0.00084807
0.000847985
0.000847955
0.000847961
0.000848019
0.000848221
0.000848869
0.000850766
0.000856365
0.000868438
0.000853807
0.000860192
0.000863561
0.000861941
0.000857997
0.000854107
0.000851305
0.000849614
0.000848711
0.00084827
0.00084807
0.000847985
0.000847955
0.000847961
0.000848019
0.000848218
0.000848856
0.000850691
0.000856021
0.000867431
0.000853808
0.000860196
0.000863567
0.000861947
0.000858001
0.000854109
0.000851306
0.000849614
0.000848711
0.00084827
0.00084807
0.000847985
0.000847956
0.000847961
0.000848018
0.000848216
0.000848844
0.000850623
0.000855714
0.000866537
0.00085381
0.000860201
0.000863575
0.000861954
0.000858007
0.000854112
0.000851308
0.000849615
0.000848711
0.00084827
0.00084807
0.000847985
0.000847956
0.000847961
0.000848018
0.000848214
0.000848832
0.000850564
0.000855439
0.000865742
0.000853812
0.000860208
0.000863585
0.000861963
0.000858014
0.000854117
0.00085131
0.000849616
0.000848712
0.00084827
0.00084807
0.000847985
0.000847956
0.000847961
0.000848018
0.000848212
0.000848822
0.000850511
0.000855195
0.000865036
0.000853815
0.000860217
0.000863598
0.000861975
0.000858023
0.000854122
0.000851313
0.000849618
0.000848712
0.000848271
0.00084807
0.000847985
0.000847956
0.000847961
0.000848018
0.000848211
0.000848812
0.000850464
0.000854979
0.000864411
0.000853818
0.000860228
0.000863614
0.00086199
0.000858035
0.000854129
0.000851316
0.000849619
0.000848713
0.000848271
0.00084807
0.000847985
0.000847956
0.000847961
0.000848018
0.00084821
0.000848803
0.000850423
0.000854787
0.000863859
0.000853823
0.000860241
0.000863634
0.000862008
0.000858048
0.000854136
0.00085132
0.000849621
0.000848713
0.00084827
0.000848069
0.000847984
0.000847955
0.00084796
0.000848017
0.000848208
0.000848794
0.000850385
0.000854615
0.000863365
0.000853828
0.000860258
0.000863657
0.000862028
0.000858061
0.000854142
0.000851321
0.000849619
0.00084871
0.000848266
0.000848065
0.00084798
0.00084795
0.000847955
0.000848012
0.000848201
0.00084878
0.000850344
0.00085445
0.000862902
0.000853835
0.000860274
0.000863677
0.000862039
0.000858061
0.000854131
0.000851304
0.000849598
0.000848688
0.000848244
0.000848042
0.000847957
0.000847926
0.000847931
0.000847986
0.000848172
0.00084874
0.000850269
0.000854244
0.000862383
0.000853838
0.000860275
0.000863655
0.000861986
0.000857984
0.000854035
0.000851197
0.000849488
0.000848576
0.000848131
0.000847929
0.000847843
0.000847811
0.000847812
0.000847861
0.000848034
0.000848573
0.000850033
0.000853814
0.000861518
0.00085382
0.000860171
0.000863402
0.000861609
0.00085753
0.000853534
0.000850675
0.000848962
0.000848051
0.000847607
0.000847404
0.000847315
0.000847276
0.000847264
0.000847287
0.000847412
0.000847857
0.000849124
0.00085249
0.000859356
0.000853664
0.000859502
0.00086203
0.000859754
0.000855419
0.00085128
0.000848369
0.000846656
0.000845753
0.000845311
0.000845106
0.000845005
0.000844942
0.000844882
0.000844818
0.000844781
0.000844928
0.000845619
0.000847934
0.000852899
0.000852743
0.00085613
0.00085579
0.000851814
0.000846674
0.000842107
0.000839058
0.000837361
0.000836485
0.00083605
0.000835834
0.000835698
0.000835557
0.000835353
0.000835027
0.000834513
0.000833812
0.000832948
0.000832694
0.000833446
0.000847848
0.000841038
0.000830788
0.000821882
0.000814664
0.000809001
0.000805632
0.000804
0.000803195
0.000802764
0.000802513
0.000802284
0.000801951
0.00080139
0.000800423
0.000798766
0.000796093
0.000791761
0.000786256
0.000779186
0.000823633
0.000781924
0.000746033
0.000727442
0.000716817
0.000709281
0.000705453
0.000704008
0.000703335
0.000702882
0.000702555
0.000702156
0.000701487
0.000700311
0.000698258
0.000694697
0.000688862
0.000679233
0.000666523
0.000650005
0.000716564
0.00059895
0.000531333
0.000507329
0.000496094
0.000488178
0.000484598
0.000483554
0.000483043
0.000482566
0.000482187
0.000481682
0.0004808
0.000479251
0.000476566
0.00047197
0.000464613
0.000452945
0.000438601
0.000421534
0.000388545
0.00027384
0.000234107
0.00022429
0.000219168
0.000215499
0.000213651
0.000213006
0.000212699
0.000212437
0.000212266
0.000212066
0.000211728
0.000211149
0.000210173
0.000208568
0.000206146
0.000202719
0.000199331
0.000195349
0.000105051
0.000117002
0.000124311
0.000129568
0.000131904
0.000132854
0.000133476
0.000133772
0.000133846
0.000133868
0.00013387
0.000133841
0.000133777
0.000133662
0.000133453
0.00013308
0.000132428
0.000131311
0.000129455
0.00012651
0.000206206
0.000369639
0.000742109
0.00110919
0.00134369
0.00144599
0.0014495
0.0013912
0.00130532
0.00121541
0.0011344
0.00106751
0.00101507
0.000975066
0.000944904
0.000922226
0.000905157
0.000892276
0.000882521
0.000875097
0.000869412
0.000865029
0.000861622
0.000858954
0.000856849
0.000855175
0.000853836
0.000852759
0.000851888
0.000851182
0.000850606
0.000850135
0.00084975
0.000849433
0.000849172
0.000848958
0.000848781
0.000848634
0.000848513
0.000848413
0.00084833
0.000848261
0.000848204
0.000848157
0.000848118
0.000848085
0.000848058
0.000848036
0.000848017
0.000848001
0.000847989
0.000847978
0.000847969
0.000847961
0.000847955
0.00084795
0.000847946
0.000847942
0.000847939
0.000847937
0.000847935
0.000847933
0.000847932
0.00084793
0.000847929
0.000847929
0.000847928
0.000847927
0.000847927
0.000847926
0.000847926
0.000847926
0.000847926
0.000847925
0.000847925
0.000847925
0.000847925
0.000847925
0.000847925
0.000847925
0.000847925
0.000847925
0.000847925
0.000847925
0.000847925
0.000847925
0.000847925
0.000847925
0.000847925
0.000847925
0.000847925
0.000847925
0.000847925
0.000847925
0.000847925
0.000847925
0.000847925
0.000847925
0.000847925
0.000847925
0.000847925
0.000847925
0.000847925
0.000847925
0.000847925
0.000847925
0.000847925
0.000847925
0.000847925
0.000847925
0.000847925
0.000847925
0.000847925
0.000847925
0.000847925
0.000847925
0.000847925
0.000847925
0.000847925
0.000847925
0.000847925
0.000847925
0.000847925
0.000847925
0.000847925
0.000847925
0.000847925
0.000847925
0.000847925
0.000847925
0.000847925
0.000847925
0.000847926
0.000847926
0.000847926
0.000847926
0.000847927
0.000847927
0.000847928
0.000847928
0.000847929
0.00084793
0.000847931
0.000847933
0.000847934
0.000847936
0.000847938
0.000847941
0.000847945
0.000847949
0.000847954
0.00084796
0.000847967
0.000847975
0.000847986
0.000847998
0.000848013
0.000848031
0.000848053
0.000848079
0.00084811
0.000848148
0.000848194
0.000848248
0.000848315
0.000848394
0.00084849
0.000848606
0.000848745
0.000848913
0.000849116
0.000849362
0.000849659
0.000850018
0.000850453
0.000850981
0.000851623
0.000852404
0.000853358
0.000854525
0.000855958
0.000857724
0.000859911
0.000862634
0.000866047
0.00087036
0.000875861
0.000882957
0.000892235
0.000904567
0.000921282
0.000944478
0.000977664
0.00102671
0.00110363
0.00122783
0.00145557
0.00175726
0.0021808
0.000585093
0.0005093
0.000754666
0.00105406
0.00129935
0.00143774
0.00148107
0.00145522
0.00138623
0.00129881
0.00121056
0.00113151
0.00106588
0.001014
0.000974179
0.00094408
0.000921471
0.000904504
0.00089174
0.000882099
0.000874772
0.000869166
0.000864842
0.000861481
0.000858846
0.000856765
0.00085511
0.000853785
0.000852719
0.000851856
0.000851156
0.000850585
0.000850118
0.000849736
0.000849422
0.000849163
0.00084895
0.000848775
0.000848629
0.000848509
0.00084841
0.000848327
0.000848259
0.000848203
0.000848156
0.000848117
0.000848084
0.000848057
0.000848035
0.000848016
0.000848001
0.000847988
0.000847977
0.000847969
0.000847961
0.000847955
0.00084795
0.000847946
0.000847942
0.000847939
0.000847937
0.000847935
0.000847933
0.000847932
0.00084793
0.000847929
0.000847929
0.000847928
0.000847927
0.000847927
0.000847926
0.000847926
0.000847926
0.000847926
0.000847925
0.000847925
0.000847925
0.000847925
0.000847925
0.000847925
0.000847925
0.000847925
0.000847925
0.000847925
0.000847925
0.000847925
0.000847925
0.000847925
0.000847925
0.000847925
0.000847925
0.000847925
0.000847925
0.000847925
0.000847925
0.000847925
0.000847925
0.000847925
0.000847925
0.000847925
0.000847925
0.000847925
0.000847925
0.000847925
0.000847925
0.000847925
0.000847925
0.000847925
0.000847925
0.000847925
0.000847925
0.000847925
0.000847925
0.000847925
0.000847925
0.000847925
0.000847925
0.000847925
0.000847925
0.000847925
0.000847925
0.000847925
0.000847925
0.000847925
0.000847925
0.000847925
0.000847925
0.000847925
0.000847925
0.000847925
0.000847925
0.000847925
0.000847925
0.000847926
0.000847926
0.000847926
0.000847926
0.000847927
0.000847927
0.000847928
0.000847928
0.000847929
0.00084793
0.000847931
0.000847932
0.000847934
0.000847936
0.000847938
0.000847941
0.000847945
0.000847949
0.000847954
0.00084796
0.000847967
0.000847975
0.000847985
0.000847998
0.000848013
0.000848031
0.000848052
0.000848078
0.000848109
0.000848147
0.000848192
0.000848247
0.000848313
0.000848392
0.000848487
0.000848602
0.000848741
0.000848908
0.00084911
0.000849354
0.000849649
0.000850005
0.000850437
0.000850962
0.000851598
0.000852373
0.000853319
0.000854476
0.000855896
0.000857645
0.00085981
0.000862505
0.000865882
0.000870147
0.000875586
0.000882602
0.000891777
0.000903979
0.000920537
0.000943563
0.000976605
0.00102575
0.00110328
0.00123116
0.00146418
0.00179046
0.00220983
0.000889928
0.000798291
0.00101405
0.00124057
0.0013997
0.00147217
0.00147636
0.00143313
0.00136079
0.00127679
0.00119403
0.00112006
0.00105827
0.00100898
0.000970821
0.00094178
0.000919866
0.000903371
0.000890937
0.000881526
0.000874362
0.00086887
0.000864626
0.000861321
0.000858727
0.000856675
0.000855041
0.000853731
0.000852677
0.000851823
0.000851129
0.000850564
0.000850101
0.000849722
0.000849411
0.000849154
0.000848943
0.000848769
0.000848624
0.000848505
0.000848406
0.000848325
0.000848257
0.000848201
0.000848154
0.000848115
0.000848083
0.000848056
0.000848034
0.000848016
0.000848
0.000847988
0.000847977
0.000847968
0.000847961
0.000847955
0.00084795
0.000847945
0.000847942
0.000847939
0.000847937
0.000847935
0.000847933
0.000847931
0.00084793
0.000847929
0.000847929
0.000847928
0.000847927
0.000847927
0.000847926
0.000847926
0.000847926
0.000847926
0.000847925
0.000847925
0.000847925
0.000847925
0.000847925
0.000847925
0.000847925
0.000847925
0.000847925
0.000847925
0.000847925
0.000847925
0.000847925
0.000847925
0.000847925
0.000847925
0.000847925
0.000847925
0.000847925
0.000847925
0.000847925
0.000847925
0.000847925
0.000847925
0.000847925
0.000847925
0.000847925
0.000847925
0.000847925
0.000847925
0.000847925
0.000847925
0.000847925
0.000847925
0.000847925
0.000847925
0.000847925
0.000847925
0.000847925
0.000847925
0.000847925
0.000847925
0.000847925
0.000847925
0.000847925
0.000847925
0.000847925
0.000847925
0.000847925
0.000847925
0.000847925
0.000847925
0.000847925
0.000847925
0.000847925
0.000847925
0.000847925
0.000847925
0.000847925
0.000847926
0.000847926
0.000847926
0.000847926
0.000847927
0.000847927
0.000847928
0.000847928
0.000847929
0.00084793
0.000847931
0.000847932
0.000847934
0.000847936
0.000847938
0.000847941
0.000847945
0.000847949
0.000847953
0.000847959
0.000847966
0.000847975
0.000847985
0.000847998
0.000848012
0.00084803
0.000848052
0.000848078
0.000848109
0.000848146
0.000848191
0.000848245
0.000848311
0.000848389
0.000848484
0.000848599
0.000848736
0.000848903
0.000849103
0.000849346
0.000849638
0.000849993
0.000850421
0.000850942
0.000851573
0.000852342
0.000853279
0.000854425
0.000855831
0.000857562
0.000859704
0.000862368
0.000865704
0.000869914
0.000875281
0.000882199
0.000891244
0.000903269
0.000919587
0.000942297
0.000974913
0.00102363
0.00110044
0.00122955
0.0014576
0.00179978
0.00217655
0.00120598
0.000984333
0.00114299
0.00130073
0.00140359
0.00144137
0.00142972
0.00138416
0.00131763
0.00124271
0.0011691
0.0011028
0.00104673
0.0010014
0.000965851
0.000938506
0.000917689
0.000901908
0.000889943
0.000880844
0.000873887
0.000868535
0.000864387
0.000861147
0.000858598
0.000856578
0.000854967
0.000853675
0.000852632
0.000851788
0.000851102
0.000850542
0.000850084
0.000849708
0.000849399
0.000849145
0.000848935
0.000848762
0.000848619
0.000848501
0.000848403
0.000848322
0.000848255
0.000848199
0.000848153
0.000848114
0.000848082
0.000848056
0.000848034
0.000848015
0.000848
0.000847987
0.000847977
0.000847968
0.000847961
0.000847955
0.00084795
0.000847945
0.000847942
0.000847939
0.000847937
0.000847935
0.000847933
0.000847931
0.00084793
0.000847929
0.000847929
0.000847928
0.000847927
0.000847927
0.000847926
0.000847926
0.000847926
0.000847926
0.000847925
0.000847925
0.000847925
0.000847925
0.000847925
0.000847925
0.000847925
0.000847925
0.000847925
0.000847925
0.000847925
0.000847925
0.000847925
0.000847925
0.000847925
0.000847925
0.000847925
0.000847925
0.000847925
0.000847925
0.000847925
0.000847925
0.000847925
0.000847925
0.000847925
0.000847925
0.000847925
0.000847925
0.000847925
0.000847925
0.000847925
0.000847925
0.000847925
0.000847925
0.000847925
0.000847925
0.000847925
0.000847925
0.000847925
0.000847925
0.000847925
0.000847925
0.000847925
0.000847925
0.000847925
0.000847925
0.000847925
0.000847925
0.000847925
0.000847925
0.000847925
0.000847925
0.000847925
0.000847925
0.000847925
0.000847925
0.000847925
0.000847925
0.000847925
0.000847926
0.000847926
0.000847926
0.000847926
0.000847927
0.000847927
0.000847928
0.000847928
0.000847929
0.00084793
0.000847931
0.000847932
0.000847934
0.000847936
0.000847938
0.000847941
0.000847944
0.000847948
0.000847953
0.000847959
0.000847966
0.000847975
0.000847985
0.000847997
0.000848012
0.00084803
0.000848051
0.000848077
0.000848108
0.000848145
0.00084819
0.000848244
0.000848309
0.000848387
0.000848481
0.000848595
0.000848732
0.000848897
0.000849097
0.000849337
0.000849628
0.00084998
0.000850405
0.000850921
0.000851548
0.00085231
0.000853238
0.000854373
0.000855764
0.000857476
0.000859592
0.000862222
0.000865513
0.000869663
0.000874947
0.000881752
0.000890638
0.000902441
0.000918441
0.000940692
0.000972605
0.00102036
0.00109517
0.00122262
0.00143871
0.0017793
0.00212921
0.00147809
0.00104439
0.0011613
0.00127347
0.00134515
0.00137003
0.00135831
0.00132043
0.00126553
0.0012029
0.00114029
0.00108282
0.00103328
0.000992515
0.000960033
0.000934696
0.000915181
0.000900244
0.000888827
0.000880086
0.000873366
0.000868171
0.000864128
0.00086096
0.000858461
0.000856476
0.00085489
0.000853615
0.000852587
0.000851752
0.000851074
0.000850519
0.000850066
0.000849694
0.000849388
0.000849136
0.000848928
0.000848756
0.000848614
0.000848497
0.0008484
0.000848319
0.000848252
0.000848197
0.000848151
0.000848113
0.000848081
0.000848055
0.000848033
0.000848015
0.000847999
0.000847987
0.000847976
0.000847968
0.00084796
0.000847954
0.000847949
0.000847945
0.000847942
0.000847939
0.000847936
0.000847934
0.000847933
0.000847931
0.00084793
0.000847929
0.000847928
0.000847928
0.000847927
0.000847927
0.000847926
0.000847926
0.000847926
0.000847926
0.000847925
0.000847925
0.000847925
0.000847925
0.000847925
0.000847925
0.000847925
0.000847925
0.000847925
0.000847925
0.000847925
0.000847925
0.000847925
0.000847925
0.000847925
0.000847925
0.000847925
0.000847925
0.000847925
0.000847925
0.000847925
0.000847925
0.000847925
0.000847925
0.000847925
0.000847925
0.000847925
0.000847925
0.000847925
0.000847925
0.000847925
0.000847925
0.000847925
0.000847925
0.000847925
0.000847925
0.000847925
0.000847925
0.000847925
0.000847925
0.000847925
0.000847925
0.000847925
0.000847925
0.000847925
0.000847925
0.000847925
0.000847925
0.000847925
0.000847925
0.000847925
0.000847925
0.000847925
0.000847925
0.000847925
0.000847925
0.000847925
0.000847925
0.000847925
0.000847926
0.000847926
0.000847926
0.000847926
0.000847927
0.000847927
0.000847928
0.000847928
0.000847929
0.00084793
0.000847931
0.000847932
0.000847934
0.000847936
0.000847938
0.000847941
0.000847944
0.000847948
0.000847953
0.000847959
0.000847966
0.000847975
0.000847985
0.000847997
0.000848012
0.000848029
0.000848051
0.000848076
0.000848107
0.000848144
0.000848189
0.000848242
0.000848307
0.000848385
0.000848479
0.000848592
0.000848728
0.000848892
0.00084909
0.000849329
0.000849618
0.000849967
0.000850389
0.000850901
0.000851522
0.000852277
0.000853196
0.000854319
0.000855695
0.000857386
0.000859475
0.000862069
0.000865311
0.000869395
0.000874586
0.000881262
0.000889966
0.000901503
0.000917111
0.00093877
0.000969731
0.001016
0.0010878
0.00121057
0.00141167
0.00173182
0.00207389
0.00169592
0.00103316
0.00112198
0.00120655
0.00126323
0.00128647
0.00128155
0.00125495
0.00121307
0.00116304
0.00111132
0.00106252
0.00101945
0.000983267
0.000953914
0.000930662
0.000912516
0.000898473
0.00088764
0.000879282
0.000872814
0.000867786
0.000863856
0.000860764
0.000858317
0.000856369
0.00085481
0.000853554
0.000852539
0.000851716
0.000851045
0.000850496
0.000850048
0.000849679
0.000849376
0.000849126
0.00084892
0.00084875
0.000848609
0.000848493
0.000848396
0.000848316
0.00084825
0.000848195
0.000848149
0.000848112
0.00084808
0.000848054
0.000848032
0.000848014
0.000847999
0.000847986
0.000847976
0.000847967
0.00084796
0.000847954
0.000847949
0.000847945
0.000847942
0.000847939
0.000847936
0.000847934
0.000847933
0.000847931
0.00084793
0.000847929
0.000847928
0.000847928
0.000847927
0.000847927
0.000847926
0.000847926
0.000847926
0.000847926
0.000847925
0.000847925
0.000847925
0.000847925
0.000847925
0.000847925
0.000847925
0.000847925
0.000847925
0.000847925
0.000847925
0.000847925
0.000847925
0.000847925
0.000847925
0.000847925
0.000847925
0.000847925
0.000847925
0.000847925
0.000847925
0.000847925
0.000847925
0.000847925
0.000847925
0.000847925
0.000847925
0.000847925
0.000847925
0.000847925
0.000847925
0.000847925
0.000847925
0.000847925
0.000847925
0.000847925
0.000847925
0.000847925
0.000847925
0.000847925
0.000847925
0.000847925
0.000847925
0.000847925
0.000847925
0.000847925
0.000847925
0.000847925
0.000847925
0.000847925
0.000847925
0.000847925
0.000847925
0.000847925
0.000847925
0.000847925
0.000847925
0.000847925
0.000847925
0.000847926
0.000847926
0.000847926
0.000847926
0.000847927
0.000847927
0.000847928
0.000847928
0.000847929
0.00084793
0.000847931
0.000847932
0.000847934
0.000847936
0.000847938
0.000847941
0.000847944
0.000847948
0.000847953
0.000847959
0.000847966
0.000847974
0.000847984
0.000847997
0.000848011
0.000848029
0.00084805
0.000848075
0.000848106
0.000848143
0.000848187
0.000848241
0.000848305
0.000848382
0.000848476
0.000848588
0.000848723
0.000848886
0.000849083
0.000849321
0.000849607
0.000849954
0.000850373
0.00085088
0.000851496
0.000852243
0.000853153
0.000854264
0.000855624
0.000857294
0.000859354
0.00086191
0.000865099
0.00086911
0.000874201
0.000880734
0.000889231
0.000900466
0.000915616
0.000936565
0.00096636
0.00101068
0.00107872
0.0011942
0.00137936
0.00166569
0.00200138
0.00185337
0.00100032
0.00106957
0.00113671
0.00118522
0.00120976
0.00121212
0.00119588
0.00116547
0.00112646
0.00108432
0.00104329
0.00100612
0.000974204
0.00094783
0.000926602
0.000909809
0.000896661
0.000886419
0.000878451
0.000872242
0.000867386
0.000863572
0.00086056
0.000858169
0.000856259
0.000854727
0.000853491
0.000852491
0.000851678
0.000851015
0.000850473
0.000850029
0.000849664
0.000849364
0.000849116
0.000848912
0.000848744
0.000848604
0.000848489
0.000848393
0.000848314
0.000848248
0.000848193
0.000848148
0.00084811
0.000848079
0.000848053
0.000848031
0.000848013
0.000847998
0.000847986
0.000847976
0.000847967
0.00084796
0.000847954
0.000847949
0.000847945
0.000847942
0.000847939
0.000847936
0.000847934
0.000847933
0.000847931
0.00084793
0.000847929
0.000847928
0.000847928
0.000847927
0.000847927
0.000847926
0.000847926
0.000847926
0.000847926
0.000847925
0.000847925
0.000847925
0.000847925
0.000847925
0.000847925
0.000847925
0.000847925
0.000847925
0.000847925
0.000847925
0.000847925
0.000847925
0.000847925
0.000847925
0.000847925
0.000847925
0.000847925
0.000847925
0.000847925
0.000847925
0.000847925
0.000847925
0.000847925
0.000847925
0.000847925
0.000847925
0.000847925
0.000847925
0.000847925
0.000847925
0.000847925
0.000847925
0.000847925
0.000847925
0.000847925
0.000847925
0.000847925
0.000847925
0.000847925
0.000847925
0.000847925
0.000847925
0.000847925
0.000847925
0.000847925
0.000847925
0.000847925
0.000847925
0.000847925
0.000847925
0.000847925
0.000847925
0.000847925
0.000847925
0.000847925
0.000847925
0.000847925
0.000847925
0.000847926
0.000847926
0.000847926
0.000847926
0.000847927
0.000847927
0.000847928
0.000847928
0.000847929
0.00084793
0.000847931
0.000847932
0.000847934
0.000847936
0.000847938
0.000847941
0.000847944
0.000847948
0.000847953
0.000847959
0.000847966
0.000847974
0.000847984
0.000847996
0.000848011
0.000848028
0.000848049
0.000848075
0.000848105
0.000848142
0.000848186
0.000848239
0.000848303
0.00084838
0.000848473
0.000848584
0.000848719
0.000848881
0.000849076
0.000849312
0.000849597
0.00084994
0.000850356
0.000850859
0.000851469
0.000852209
0.00085311
0.000854208
0.000855551
0.000857199
0.000859229
0.000861744
0.000864878
0.000868812
0.000873794
0.000880171
0.000888442
0.000899341
0.000913977
0.000934116
0.000962574
0.00100458
0.00106835
0.00117467
0.00134344
0.00159039
0.00190764
0.00193959
0.000969937
0.00102468
0.00107935
0.00112185
0.00114701
0.0011545
0.001146
0.00112449
0.00109433
0.00106013
0.0010257
0.00099369
0.000965604
0.000941963
0.000922631
0.000907128
0.000894849
0.000885188
0.000877607
0.000871658
0.000866977
0.000863282
0.000860351
0.000858016
0.000856146
0.000854641
0.000853426
0.000852441
0.000851639
0.000850985
0.000850449
0.00085001
0.000849649
0.000849352
0.000849107
0.000848904
0.000848737
0.000848599
0.000848484
0.000848389
0.000848311
0.000848245
0.000848191
0.000848146
0.000848109
0.000848078
0.000848052
0.000848031
0.000848013
0.000847998
0.000847986
0.000847975
0.000847967
0.00084796
0.000847954
0.000847949
0.000847945
0.000847941
0.000847939
0.000847936
0.000847934
0.000847933
0.000847931
0.00084793
0.000847929
0.000847928
0.000847928
0.000847927
0.000847927
0.000847926
0.000847926
0.000847926
0.000847926
0.000847925
0.000847925
0.000847925
0.000847925
0.000847925
0.000847925
0.000847925
0.000847925
0.000847925
0.000847925
0.000847925
0.000847925
0.000847925
0.000847925
0.000847925
0.000847925
0.000847925
0.000847925
0.000847925
0.000847925
0.000847925
0.000847925
0.000847925
0.000847925
0.000847925
0.000847925
0.000847925
0.000847925
0.000847925
0.000847925
0.000847925
0.000847925
0.000847925
0.000847925
0.000847925
0.000847925
0.000847925
0.000847925
0.000847925
0.000847925
0.000847925
0.000847925
0.000847925
0.000847925
0.000847925
0.000847925
0.000847925
0.000847925
0.000847925
0.000847925
0.000847925
0.000847925
0.000847925
0.000847925
0.000847925
0.000847925
0.000847925
0.000847925
0.000847925
0.000847926
0.000847926
0.000847926
0.000847926
0.000847927
0.000847927
0.000847928
0.000847928
0.000847929
0.00084793
0.000847931
0.000847932
0.000847934
0.000847936
0.000847938
0.000847941
0.000847944
0.000847948
0.000847953
0.000847959
0.000847966
0.000847974
0.000847984
0.000847996
0.00084801
0.000848028
0.000848049
0.000848074
0.000848104
0.000848141
0.000848185
0.000848238
0.000848301
0.000848378
0.00084847
0.000848581
0.000848715
0.000848876
0.00084907
0.000849304
0.000849586
0.000849927
0.000850339
0.000850838
0.000851442
0.000852175
0.000853065
0.000854151
0.000855476
0.000857101
0.000859101
0.000861573
0.000864648
0.0008685
0.000873367
0.000879578
0.000887607
0.000898141
0.000912218
0.000931468
0.000958463
0.000997885
0.00105708
0.00115327
0.00130521
0.00151361
0.00179719
0.00195139
0.000947198
0.000991046
0.00103612
0.00107331
0.00109781
0.00110819
0.00110491
0.00108994
0.00106663
0.00103882
0.00100989
0.000982296
0.000957578
0.000936397
0.00091881
0.000904517
0.000893064
0.000883964
0.000876762
0.000871069
0.000866563
0.000862987
0.000860138
0.00085786
0.00085603
0.000854555
0.00085336
0.00085239
0.0008516
0.000850954
0.000850425
0.000849991
0.000849634
0.00084934
0.000849097
0.000848896
0.000848731
0.000848594
0.00084848
0.000848386
0.000848308
0.000848243
0.000848189
0.000848145
0.000848108
0.000848077
0.000848051
0.00084803
0.000848012
0.000847998
0.000847985
0.000847975
0.000847967
0.00084796
0.000847954
0.000847949
0.000847945
0.000847941
0.000847939