/*--------------------------------*- C++ -*----------------------------------*\
| =========                 |                                                 |
| \\      /  F ield         | OpenFOAM: The Open Source CFD Toolbox           |
|  \\    /   O peration     | Version:  2.4.0                                 |
|   \\  /    A nd           | Web:      www.OpenFOAM.org                      |
|    \\/     M anipulation  |                                                 |
\*---------------------------------------------------------------------------*/
FoamFile
{
    version     2.0;
    format      ascii;
    class       volScalarField;
    location    "0.136892";
    object      k;
}
// * * * * * * * * * * * * * * * * * * * * * * * * * * * * * * * * * * * * * //

dimensions      [0 2 -2 0 0 0 0];

internalField   nonuniform List<scalar> 
17600
(
0.554937
0.712124
0.829568
0.905044
0.945259
0.959897
0.958038
0.94681
0.931211
0.914441
0.898353
0.883878
0.871353
0.860758
0.851871
0.84439
0.837963
0.832337
0.826833
0.823214
0.373699
0.373154
0.374266
0.378124
0.384677
0.393809
0.405635
0.420198
0.437322
0.456588
0.477378
0.498948
0.520516
0.541352
0.560857
0.578605
0.594375
0.608131
0.620611
0.629853
0.362709
0.350073
0.335616
0.32047
0.305603
0.291813
0.279823
0.270204
0.263335
0.259409
0.258468
0.260432
0.265121
0.272284
0.281607
0.292737
0.305313
0.318954
0.333682
0.348124
0.361232
0.347638
0.33375
0.319585
0.305397
0.291467
0.278077
0.26549
0.253931
0.243578
0.234565
0.226989
0.220912
0.216372
0.213381
0.21193
0.211995
0.213552
0.216622
0.221354
0.361178
0.347824
0.334764
0.321865
0.309135
0.29665
0.284509
0.272817
0.261669
0.251149
0.241321
0.232239
0.22394
0.216452
0.209796
0.203983
0.199025
0.194932
0.191739
0.189524
0.361235
0.348124
0.335584
0.323467
0.311701
0.30027
0.289185
0.278473
0.268168
0.258303
0.248905
0.239998
0.231601
0.223725
0.21638
0.20957
0.203297
0.197562
0.192376
0.187743
0.361267
0.348283
0.336018
0.324337
0.313146
0.302384
0.292018
0.282031
0.272419
0.263185
0.254332
0.245866
0.237791
0.230108
0.222819
0.215923
0.209419
0.203301
0.197571
0.192226
0.36128
0.34835
0.336213
0.324754
0.31388
0.303515
0.293603
0.284105
0.274992
0.266245
0.257854
0.249807
0.242098
0.234721
0.227671
0.220942
0.214529
0.208424
0.202625
0.197134
0.361284
0.348374
0.336291
0.324936
0.314223
0.304077
0.294434
0.285242
0.276461
0.26806
0.260013
0.2523
0.244906
0.237819
0.231026
0.224518
0.218286
0.212321
0.206616
0.201178
0.361284
0.348381
0.336319
0.325009
0.314373
0.304338
0.294843
0.285831
0.277256
0.26908
0.261271
0.253801
0.246649
0.239795
0.233225
0.226923
0.220877
0.215077
0.209514
0.204195
0.361284
0.348382
0.336327
0.325035
0.314432
0.304451
0.295031
0.286118
0.277663
0.269625
0.261968
0.254662
0.24768
0.241
0.234601
0.228466
0.222581
0.216932
0.211508
0.206317
0.361284
0.348382
0.336328
0.325042
0.314453
0.304496
0.295112
0.286249
0.277859
0.2699
0.262336
0.255133
0.248263
0.241702
0.235425
0.229415
0.223655
0.218127
0.212821
0.207744
0.361284
0.348381
0.336327
0.325043
0.314458
0.304511
0.295144
0.286305
0.277948
0.270032
0.26252
0.255378
0.248578
0.242092
0.235898
0.229975
0.224303
0.218867
0.213652
0.208665
0.361284
0.34838
0.336325
0.325041
0.314458
0.304514
0.295154
0.286326
0.277985
0.270091
0.262607
0.255499
0.248739
0.2423
0.236158
0.23029
0.224679
0.219306
0.214157
0.209236
0.361283
0.348379
0.336323
0.325039
0.314456
0.304513
0.295155
0.286332
0.277998
0.270115
0.262645
0.255555
0.248818
0.242406
0.236294
0.230461
0.224888
0.219557
0.214452
0.209578
0.361283
0.348378
0.336322
0.325037
0.314453
0.304511
0.295153
0.286332
0.278001
0.270122
0.262659
0.255579
0.248854
0.242456
0.236362
0.23055
0.225
0.219695
0.214618
0.209774
0.361283
0.348378
0.336321
0.325035
0.314451
0.304508
0.295151
0.28633
0.278
0.270124
0.262664
0.255588
0.248869
0.242478
0.236394
0.230593
0.225057
0.219768
0.214708
0.209883
0.361283
0.348377
0.33632
0.325034
0.31445
0.304506
0.295149
0.286328
0.277999
0.270123
0.262664
0.255591
0.248874
0.242488
0.236408
0.230614
0.225085
0.219804
0.214755
0.209941
0.361283
0.348377
0.33632
0.325033
0.314448
0.304505
0.295147
0.286326
0.277997
0.270121
0.262663
0.255591
0.248875
0.242491
0.236414
0.230622
0.225097
0.219821
0.214777
0.209969
0.361283
0.348377
0.336319
0.325033
0.314448
0.304504
0.295146
0.286325
0.277996
0.27012
0.262662
0.25559
0.248875
0.242492
0.236415
0.230625
0.225102
0.219828
0.214786
0.20998
0.361283
0.348377
0.336319
0.325033
0.314448
0.304504
0.295146
0.286325
0.277996
0.27012
0.262662
0.25559
0.248875
0.242492
0.236415
0.230625
0.225102
0.219828
0.214786
0.20998
0.361283
0.348377
0.33632
0.325033
0.314448
0.304505
0.295147
0.286326
0.277997
0.270121
0.262663
0.255591
0.248875
0.242491
0.236414
0.230622
0.225097
0.219821
0.214777
0.209968
0.361283
0.348377
0.33632
0.325034
0.31445
0.304506
0.295149
0.286328
0.277999
0.270123
0.262664
0.255591
0.248874
0.242488
0.236408
0.230614
0.225085
0.219804
0.214754
0.209939
0.361283
0.348378
0.336321
0.325035
0.314451
0.304508
0.295151
0.28633
0.278
0.270124
0.262664
0.255588
0.248869
0.242479
0.236394
0.230594
0.225057
0.219768
0.214708
0.209881
0.361283
0.348378
0.336322
0.325037
0.314453
0.304511
0.295153
0.286332
0.278001
0.270122
0.262659
0.255579
0.248854
0.242456
0.236362
0.23055
0.225001
0.219695
0.214618
0.209772
0.361283
0.348379
0.336323
0.325039
0.314456
0.304513
0.295155
0.286332
0.277998
0.270115
0.262645
0.255556
0.248818
0.242406
0.236294
0.230462
0.224889
0.219558
0.214452
0.209575
0.361284
0.34838
0.336325
0.325041
0.314458
0.304514
0.295154
0.286326
0.277985
0.270091
0.262607
0.255499
0.24874
0.2423
0.236158
0.230291
0.22468
0.219307
0.214157
0.209233
0.361284
0.348381
0.336327
0.325043
0.314458
0.304511
0.295144
0.286305
0.277948
0.270032
0.26252
0.255378
0.248578
0.242092
0.235898
0.229975
0.224304
0.218868
0.213653
0.208663
0.361284
0.348382
0.336328
0.325042
0.314453
0.304496
0.295112
0.286249
0.277859
0.2699
0.262336
0.255133
0.248264
0.241702
0.235426
0.229416
0.223656
0.218129
0.212824
0.207744
0.361284
0.348382
0.336327
0.325035
0.314432
0.304451
0.295031
0.286118
0.277663
0.269625
0.261968
0.254662
0.247681
0.241
0.234601
0.228467
0.222583
0.216935
0.211512
0.20632
0.361284
0.348381
0.336319
0.325009
0.314373
0.304338
0.294843
0.285831
0.277256
0.26908
0.261271
0.253801
0.246649
0.239796
0.233225
0.226924
0.22088
0.215082
0.20952
0.204203
0.361284
0.348374
0.336291
0.324936
0.314223
0.304077
0.294434
0.285242
0.276462
0.26806
0.260013
0.2523
0.244907
0.237819
0.231027
0.224519
0.218289
0.212326
0.206624
0.201192
0.36128
0.34835
0.336213
0.324754
0.31388
0.303515
0.293603
0.284105
0.274992
0.266246
0.257854
0.249807
0.242098
0.234722
0.227672
0.220944
0.214532
0.208431
0.202635
0.197154
0.361267
0.348283
0.336018
0.324337
0.313146
0.302384
0.292018
0.282031
0.272419
0.263185
0.254332
0.245866
0.237791
0.230108
0.22282
0.215925
0.209422
0.203308
0.197578
0.192242
0.361235
0.348124
0.335584
0.323467
0.311701
0.30027
0.289185
0.278473
0.268168
0.258303
0.248905
0.239998
0.231601
0.223726
0.216381
0.209571
0.203299
0.197564
0.192366
0.187713
0.361178
0.347824
0.334764
0.321865
0.309135
0.29665
0.284509
0.272817
0.261669
0.251149
0.241321
0.232239
0.22394
0.216453
0.209796
0.203983
0.199021
0.194917
0.191673
0.1893
0.361232
0.347638
0.33375
0.319585
0.305397
0.291467
0.278077
0.26549
0.253931
0.243578
0.234565
0.226989
0.220912
0.216371
0.213378
0.211924
0.211977
0.21349
0.216402
0.220635
0.362709
0.350073
0.335616
0.32047
0.305603
0.291813
0.279822
0.270204
0.263334
0.259409
0.258468
0.26043
0.265119
0.27228
0.281598
0.29272
0.305268
0.318863
0.333148
0.347759
0.373699
0.373154
0.374266
0.378124
0.384677
0.393809
0.405635
0.420198
0.437321
0.456587
0.477376
0.498945
0.52051
0.541341
0.560837
0.578567
0.594292
0.607947
0.619629
0.629493
0.554937
0.712124
0.829568
0.905044
0.945259
0.959897
0.958038
0.94681
0.931212
0.914442
0.898355
0.883882
0.871361
0.860771
0.851896
0.844432
0.83806
0.832487
0.82746
0.822774
1.16716
1.53796
1.91024
2.25006
2.53563
2.76203
2.93607
3.06894
3.17119
3.25082
3.3133
3.36225
3.40028
3.42954
3.45207
3.46976
3.48436
3.49738
3.5101
3.52349
3.53829
3.55504
3.5741
3.59568
3.61983
3.64647
3.67543
3.70643
3.73911
3.77308
3.8079
3.8431
3.87825
3.91289
3.94657
3.97889
4.00944
4.03787
4.06385
4.08708
4.1073
4.1243
4.1379
4.14795
4.15435
4.15704
4.15599
4.15121
4.14276
4.13072
4.11522
4.09639
4.07443
4.04952
4.02189
3.99176
3.95937
3.92495
3.88873
3.85093
3.81173
3.7713
3.72977
3.68724
3.64375
3.59931
3.55388
3.50739
3.4597
3.41066
3.36005
3.30765
3.25322
3.19649
3.13718
3.07503
3.00978
2.94118
2.86901
2.79308
2.71323
2.62936
2.5414
2.44934
2.35323
2.25317
2.14936
2.04205
1.93159
1.81842
1.70309
1.58622
1.4686
1.35107
1.23462
1.12032
1.00931
0.902765
0.801827
0.707573
0.620942
0.542693
0.473391
0.413424
0.363064
0.322579
0.292406
0.273311
0.266454
0.273269
0.295228
0.333608
0.389258
0.462246
0.551435
0.654223
0.766707
0.884257
1.00224
1.11662
1.22422
1.32277
1.41078
1.48735
1.55199
1.60449
1.64485
1.67316
1.68957
1.6943
1.68758
1.6696
1.64068
1.60189
1.55442
1.49996
1.44083
1.38011
1.32168
1.27
1.22966
1.20452
1.19689
1.20698
1.23282
1.27079
1.31629
1.36449
1.41095
1.45198
1.4848
1.50756
1.51927
1.51965
1.50899
1.48798
1.4576
1.41904
1.37354
1.32238
1.26683
1.20809
1.14726
1.08537
1.02331
0.961881
0.901748
0.843477
0.787522
0.734239
0.683895
0.636672
0.592684
0.551986
0.51458
0.480431
0.449475
0.421627
0.396795
0.374884
0.355806
0.339496
0.32592
0.315088
0.307082
0.302075
0.300378
0.302502
0.309243
0.321824
0.342096
0.372809
0.41804
0.483493
0.57837
0.714611
0.934467
1.26741
2.07246
1.31407
0.656409
0.708407
0.793666
0.917225
1.07821
1.27105
1.4854
1.70852
1.9275
2.1314
2.31288
2.46872
2.59923
2.70706
2.79581
2.86915
2.93021
2.9816
3.02549
3.0637
3.09779
3.12908
3.15869
3.18748
3.21608
3.24492
3.27426
3.30419
3.33469
3.36565
3.39688
3.42812
3.45909
3.48945
3.51887
3.54699
3.57347
3.59799
3.62025
3.63995
3.65687
3.67077
3.68149
3.68888
3.69285
3.69332
3.69027
3.68373
3.67373
3.66038
3.6438
3.62414
3.60159
3.57635
3.54865
3.51871
3.48679
3.45313
3.41795
3.38147
3.34389
3.30538
3.26607
3.22604
3.18535
3.144
3.10194
3.05909
3.01531
2.97041
2.92419
2.87641
2.82679
2.77507
2.72095
2.66417
2.60443
2.54151
2.47516
2.40522
2.33154
2.25401
2.17262
2.08737
1.99836
1.90577
1.80985
1.71092
1.60944
1.50593
1.40103
1.2955
1.19018
1.08604
0.984087
0.885411
0.791091
0.702166
0.61957
0.544085
0.476303
0.41662
0.365266
0.322374
0.288095
0.262774
0.247134
0.24238
0.250126
0.27218
0.310306
0.365962
0.4399
0.531617
0.63893
0.758003
0.883935
1.01163
1.13653
1.25505
1.36465
1.46368
1.55114
1.62652
1.68962
1.74041
1.77898
1.80551
1.82019
1.82324
1.81487
1.79523
1.76451
1.72362
1.67351
1.61555
1.5516
1.48419
1.41661
1.35289
1.29754
1.25495
1.22855
1.22001
1.22882
1.25241
1.28674
1.32706
1.36867
1.4074
1.43994
1.46391
1.47785
1.48111
1.47368
1.45603
1.429
1.39365
1.35117
1.30279
1.24977
1.19329
1.13448
1.07435
1.01384
0.953731
0.894734
0.837426
0.782284
0.729683
0.679905
0.633152
0.589555
0.549179
0.512043
0.47812
0.447357
0.419677
0.394992
0.373214
0.354259
0.338064
0.324598
0.313876
0.30598
0.301089
0.299525
0.301813
0.308787
0.321742
0.342677
0.374639
0.422265
0.492284
0.59546
0.746448
0.988157
1.35787
2.17324
1.52235
0.353542
0.361056
0.372367
0.390063
0.418269
0.46047
0.520474
0.60179
0.706667
0.835173
0.984585
1.1494
1.32207
1.49438
1.65899
1.81053
1.94609
2.0651
2.1686
2.25859
2.33728
2.40678
2.46888
2.52505
2.57649
2.62414
2.66878
2.71104
2.75137
2.7901
2.82742
2.86342
2.89808
2.9313
2.96293
2.99279
3.02065
3.04631
3.06954
3.09013
3.10788
3.12263
3.13423
3.14255
3.14753
3.14911
3.14728
3.14208
3.13357
3.12185
3.10706
3.08936
3.06895
3.04605
3.02087
2.99367
2.9647
2.9342
2.9024
2.86954
2.8358
2.80136
2.76634
2.73084
2.69491
2.65854
2.62168
2.58424
2.54609
2.50702
2.46683
2.42526
2.38204
2.33689
2.28951
2.23963
2.18697
2.1313
2.07238
2.01007
1.94422
1.87479
1.80176
1.72522
1.6453
1.56225
1.4764
1.38815
1.29805
1.2067
1.11485
1.0233
0.932973
0.844818
0.759826
0.678963
0.603126
0.533092
0.46947
0.412684
0.362977
0.320442
0.285103
0.257026
0.236489
0.22417
0.221281
0.229549
0.251047
0.287967
0.342356
0.415679
0.508179
0.618259
0.742322
0.875303
1.01165
1.14625
1.27507
1.39521
1.50483
1.60284
1.6887
1.76219
1.82327
1.87205
1.90868
1.93336
1.94629
1.94771
1.93778
1.91664
1.88439
1.8418
1.78968
1.72913
1.66171
1.58947
1.51519
1.44233
1.37506
1.3178
1.27464
1.24839
1.23994
1.248
1.26941
1.29985
1.33459
1.36916
1.39978
1.42358
1.43864
1.44389
1.43899
1.42417
1.40008
1.36764
1.32796
1.28222
1.23163
1.17736
1.12053
1.06216
1.0032
0.944448
0.886625
0.830327
0.776047
0.724178
0.675021
0.628792
0.585636
0.545634
0.508814
0.475163
0.444633
0.417157
0.392652
0.371035
0.352226
0.336166
0.322825
0.312221
0.304437
0.299656
0.298206
0.300621
0.307762
0.320974
0.342371
0.375238
0.424675
0.498323
0.608154
0.771617
1.02754
1.42767
2.18556
1.71028
0.222986
0.22468
0.22656
0.228859
0.232064
0.236989
0.244591
0.256077
0.273051
0.297536
0.331901
0.378629
0.439911
0.517136
0.610379
0.717665
0.835815
0.960609
1.08745
1.21207
1.33111
1.44235
1.54473
1.63815
1.72315
1.80061
1.8715
1.93675
1.99717
2.0534
2.10593
2.15514
2.20128
2.24452
2.28496
2.32262
2.3575
2.38953
2.41864
2.44473
2.46769
2.48744
2.50387
2.51694
2.5266
2.53283
2.53566
2.53515
2.53138
2.52447
2.51457
2.50185
2.48654
2.46884
2.44899
2.42725
2.40387
2.3791
2.35318
2.32632
2.29874
2.27059
2.242
2.21308
2.18387
2.15435
2.1245
2.09421
2.06334
2.0317
1.99909
1.96524
1.9299
1.89279
1.85361
1.8121
1.768
1.72107
1.67113
1.61804
1.56169
1.50208
1.43924
1.3733
1.30447
1.23307
1.15948
1.0842
1.00782
0.931043
0.854618
0.779378
0.706188
0.635916
0.569383
0.507327
0.45035
0.398898
0.353239
0.313485
0.279635
0.251644
0.229536
0.213552
0.204335
0.203078
0.211553
0.232009
0.266981
0.319033
0.390327
0.481917
0.592953
0.720277
0.858814
1.00261
1.14599
1.28436
1.41443
1.53414
1.64229
1.73829
1.82189
1.89307
1.95191
1.99857
2.03322
2.05607
2.06732
2.06718
2.05581
2.03331
1.99973
1.95573
1.90202
1.83954
1.76957
1.69384
1.61466
1.53502
1.45856
1.38947
1.33202
1.28977
1.26476
1.25701
1.26446
1.28348
1.3096
1.33825
1.36534
1.38756
1.40254
1.4088
1.40564
1.39303
1.3714
1.3415
1.30434
1.26102
1.21271
1.16055
1.10564
1.049
0.991574
0.934185
0.877554
0.822293
0.768911
0.717815
0.669321
0.62366
0.580991
0.541406
0.504945
0.471603
0.441344
0.414104
0.389809
0.368378
0.349737
0.333829
0.320625
0.310145
0.302473
0.297795
0.296437
0.298943
0.306182
0.319535
0.34119
0.374606
0.425225
0.501428
0.615964
0.788654
1.05172
1.46868
2.16663
1.86659
0.18896
0.188433
0.187934
0.18748
0.187136
0.187001
0.187197
0.187887
0.189296
0.191739
0.195644
0.201573
0.210243
0.222531
0.239483
0.262752
0.2936
0.333161
0.38215
0.440672
0.508116
0.583183
0.664032
0.748527
0.8345
0.919991
1.00341
1.08361
1.15988
1.23188
1.29953
1.36292
1.42223
1.47767
1.5294
1.57758
1.62228
1.66357
1.70145
1.73593
1.76697
1.79456
1.81866
1.83928
1.85641
1.87008
1.88034
1.88727
1.89097
1.89158
1.88925
1.88418
1.87657
1.86665
1.85466
1.84083
1.82543
1.8087
1.79087
1.77217
1.75278
1.73286
1.71256
1.69196
1.67111
1.65001
1.62862
1.60685
1.58457
1.56161
1.53777
1.51282
1.48649
1.45854
1.4287
1.39671
1.36235
1.32541
1.28574
1.24323
1.19782
1.14955
1.09851
1.04488
0.988936
0.931031
0.871619
0.811237
0.750501
0.690091
0.630731
0.57316
0.518096
0.466199
0.418035
0.374044
0.334518
0.299605
0.269329
0.243638
0.222468
0.205842
0.194002
0.187568
0.187691
0.196129
0.215213
0.247708
0.296593
0.364658
0.453778
0.563973
0.692738
0.835187
0.985075
1.13615
1.28322
1.42254
1.55175
1.66953
1.77523
1.8686
1.94961
2.01832
2.07487
2.11942
2.15214
2.17324
2.1829
2.1813
2.1686
2.14488
2.11013
2.06496
2.00997
1.946
1.87414
1.79587
1.71314
1.6285
1.54512
1.46679
1.39764
1.34154
1.30139
1.27834
1.27148
1.2781
1.29424
1.31547
1.33752
1.35677
1.37044
1.37666
1.37439
1.36329
1.34354
1.31574
1.28076
1.2396
1.19337
1.14317
1.09007
1.03509
0.979166
0.923117
0.867673
0.81346
0.760994
0.710697
0.662897
0.617838
0.575691
0.536559
0.500492
0.467494
0.437536
0.410563
0.386503
0.365281
0.346827
0.331084
0.318027
0.307675
0.300115
0.295528
0.294243
0.2968
0.304072
0.317452
0.339163
0.372771
0.423933
0.501546
0.618752
0.796905
1.06204
1.47989
2.13366
1.99427
0.186393
0.185092
0.18383
0.182609
0.181438
0.180329
0.179296
0.17836
0.17755
0.176909
0.176497
0.176392
0.176699
0.177549
0.179108
0.181613
0.185444
0.191003
0.198772
0.209303
0.223198
0.241061
0.263438
0.290739
0.323166
0.360665
0.402907
0.449312
0.4991
0.551367
0.605169
0.659593
0.713814
0.767124
0.81895
0.868842
0.916461
0.961552
1.00393
1.04345
1.08001
1.11353
1.14395
1.17123
1.19535
1.21632
1.23417
1.24894
1.26074
1.26967
1.27586
1.27949
1.28073
1.27979
1.27688
1.27223
1.26606
1.2586
1.25005
1.24063
1.2305
1.21982
1.20872
1.19727
1.18553
1.17351
1.16118
1.14847
1.13526
1.12142
1.10676
1.09108
1.07416
1.05579
1.03572
1.01375
0.989682
0.963356
0.934655
0.903513
0.869927
0.833963
0.795761
0.755543
0.713611
0.670346
0.626202
0.581696
0.537393
0.49388
0.451745
0.411544
0.37377
0.338829
0.307015
0.278509
0.253381
0.231616
0.213158
0.19797
0.186111
0.177844
0.173775
0.174998
0.183207
0.200724
0.230424
0.275573
0.339474
0.424771
0.532426
0.660778
0.805372
0.959839
1.1174
1.2722
1.41996
1.55797
1.68477
1.79965
1.90235
1.99282
2.07113
2.13738
2.19169
2.23422
2.26513
2.28458
2.29276
2.28982
2.27591
2.25109
2.21532
2.16914
2.11312
2.04799
1.97472
1.8946
1.80931
1.72103
1.63253
1.54714
1.4687
1.40109
1.34767
1.31045
1.28963
1.28347
1.28872
1.30131
1.317
1.33197
1.34314
1.34826
1.34597
1.3356
1.31712
1.29091
1.2577
1.21838
1.17398
1.12555
1.07412
1.0207
0.966197
0.911439
0.857157
0.803978
0.752429
0.702942
0.655853
0.611419
0.569819
0.531167
0.495522
0.462897
0.433267
0.406583
0.382781
0.361787
0.343533
0.327968
0.315065
0.304844
0.297391
0.292885
0.29165
0.29422
0.301461
0.314757
0.336335
0.369791
0.420875
0.498758
0.616668
0.796447
1.05991
1.46512
2.08319
2.09322
0.19064
0.189103
0.187603
0.186138
0.184709
0.183318
0.181965
0.180652
0.179383
0.178164
0.177006
0.17592
0.174926
0.174048
0.173313
0.172764
0.172462
0.172478
0.172901
0.173836
0.175412
0.17778
0.181117
0.185623
0.191516
0.199027
0.208391
0.219822
0.233506
0.249571
0.268072
0.288977
0.312162
0.337412
0.364432
0.392866
0.422312
0.45235
0.482556
0.512525
0.541876
0.570268
0.597402
0.623026
0.646934
0.668967
0.68901
0.706991
0.722879
0.736678
0.748432
0.75821
0.766111
0.772259
0.776791
0.779861
0.781631
0.782262
0.781918
0.780749
0.778897
0.776483
0.773608
0.770346
0.766744
0.762815
0.758544
0.753879
0.74874
0.743014
0.736565
0.729236
0.720852
0.711234
0.700204
0.687594
0.673257
0.657076
0.638974
0.618924
0.596953
0.573153
0.547681
0.520759
0.492675
0.463774
0.434447
0.405119
0.376225
0.348192
0.321415
0.296237
0.272929
0.251683
0.232608
0.215746
0.201086
0.188609
0.178327
0.170351
0.164975
0.162788
0.164814
0.172643
0.188508
0.215286
0.256389
0.315487
0.395887
0.499487
0.62562
0.770512
0.927904
1.09058
1.25202
1.4073
1.55333
1.68842
1.81184
1.92331
2.02279
2.11033
2.18599
2.24988
2.30208
2.34272
2.37193
2.38987
2.39668
2.39251
2.37751
2.35171
2.31505
2.26802
2.21115
2.14513
2.07082
1.98936
1.90223
1.81135
1.71912
1.62848
1.54287
1.466
1.40137
1.35156
1.31767
1.29891
1.29288
1.296
1.30427
1.31381
1.32134
1.32432
1.32107
1.31064
1.29275
1.26757
1.23567
1.19782
1.15494
1.10804
1.05811
1.0061
0.952911
0.899368
0.846192
0.794014
0.743365
0.69468
0.648306
0.604506
0.563468
0.525315
0.490111
0.457878
0.428596
0.402221
0.378693
0.357942
0.339902
0.324522
0.311778
0.301689
0.294336
0.289899
0.288691
0.291238
0.298386
0.311496
0.332762
0.365749
0.416178
0.493255
0.61006
0.787916
1.04643
1.43018
2.01128
2.15435
0.195493
0.1939
0.192337
0.190803
0.189299
0.187822
0.186373
0.184951
0.183556
0.182189
0.180851
0.179546
0.178278
0.177051
0.175875
0.174758
0.173711
0.172751
0.171896
0.171172
0.170604
0.170227
0.170079
0.170201
0.170644
0.171463
0.172717
0.174472
0.176799
0.179771
0.183462
0.187943
0.19328
0.199527
0.206723
0.214888
0.224016
0.234074
0.244998
0.256695
0.269045
0.281903
0.295107
0.308481
0.321847
0.33503
0.347863
0.360199
0.371906
0.382882
0.393048
0.402352
0.410769
0.4183
0.424965
0.430804
0.435873
0.440237
0.44397
0.447146
0.449838
0.452114
0.454032
0.455635
0.456954
0.457999
0.458758
0.459201
0.459274
0.458901
0.45799
0.456429
0.454096
0.450863
0.446601
0.441191
0.434527
0.426529
0.417149
0.406376
0.394246
0.380841
0.366293
0.35078
0.334524
0.317779
0.300821
0.283936
0.267402
0.251475
0.236377
0.222283
0.209322
0.197574
0.187079
0.177858
0.169938
0.163384
0.158352
0.155153
0.154351
0.156886
0.164218
0.178438
0.202325
0.239309
0.29327
0.368022
0.466322
0.588569
0.731908
0.890456
1.05675
1.22358
1.38537
1.53851
1.68107
1.81226
1.93181
2.03971
2.136
2.22072
2.2939
2.35558
2.40581
2.4447
2.47234
2.48887
2.49443
2.48915
2.47315
2.44649
2.40906
2.36132
2.30378
2.23708
2.16202
2.07964
1.99125
1.89855
1.80367
1.70921
1.61823
1.53415
1.46038
1.39981
1.35415
1.32348
1.30623
1.29947
1.29956
1.30273
1.30561
1.30547
1.30034
1.28905
1.27103
1.24627
1.21517
1.17836
1.13667
1.09102
1.04235
0.991573
0.939566
0.887131
0.834984
0.78375
0.73396
0.686054
0.640381
0.597211
0.556738
0.519091
0.48434
0.452511
0.423591
0.397539
0.374297
0.353799
0.335981
0.320792
0.308209
0.298248
0.29099
0.286607
0.285404
0.28789
0.294889
0.30772
0.328514
0.360748
0.410007
0.485314
0.599413
0.772334
1.02276
1.38077
1.91933
2.16817
0.199548
0.197963
0.196402
0.194866
0.193355
0.191866
0.1904
0.188956
0.187533
0.186132
0.184753
0.183397
0.182064
0.180759
0.179482
0.178235
0.177021
0.175844
0.17471
0.173624
0.172595
0.171631
0.170741
0.169939
0.169237
0.168649
0.168192
0.167883
0.16774
0.167783
0.168031
0.168505
0.169225
0.170211
0.171482
0.173054
0.174942
0.177157
0.179704
0.182585
0.185792
0.189313
0.193125
0.1972
0.201502
0.205987
0.210606
0.215309
0.220041
0.224752
0.229392
0.233917
0.238289
0.242478
0.246464
0.250234
0.253783
0.257115
0.26024
0.263171
0.265925
0.268521
0.270974
0.273298
0.275501
0.277582
0.279533
0.281334
0.282953
0.284346
0.285456
0.286218
0.286553
0.286382
0.28562
0.284189
0.282015
0.279044
0.275239
0.270587
0.265106
0.258843
0.251877
0.244314
0.236285
0.227937
0.219428
0.210915
0.202547
0.194458
0.186759
0.179539
0.172863
0.166782
0.16134
0.156597
0.152651
0.149679
0.147993
0.148117
0.150901
0.157659
0.170308
0.191461
0.224453
0.273223
0.341918
0.434005
0.550942
0.690955
0.848834
1.0171
1.18799
1.35515
1.51439
1.66349
1.80156
1.92837
2.04397
2.14839
2.24166
2.32375
2.39462
2.45426
2.50268
2.53994
2.56613
2.58136
2.58578
2.57949
2.56261
2.53518
2.49711
2.44879
2.39074
2.32357
2.24801
2.16504
2.07584
1.98196
1.8853
1.78817
1.6933
1.60377
1.52281
1.45335
1.3975
1.356
1.32803
1.31137
1.30285
1.29897
1.29637
1.29222
1.28437
1.27139
1.25252
1.22756
1.19671
1.16048
1.11959
1.07487
1.02719
0.977436
0.926436
0.874973
0.823748
0.773376
0.724386
0.677214
0.632213
0.589655
0.549738
0.512593
0.478296
0.446876
0.418324
0.392602
0.369653
0.349414
0.331822
0.316827
0.304403
0.294567
0.287394
0.283051
0.28183
0.284222
0.291018
0.303486
0.323669
0.354904
0.402554
0.475274
0.585303
0.750922
0.990341
1.32149
1.81245
2.13274
0.202597
0.201042
0.199508
0.197996
0.196504
0.195033
0.193581
0.192148
0.190734
0.189339
0.187964
0.186608
0.185272
0.183957
0.182664
0.181393
0.180145
0.178921
0.177722
0.176551
0.17541
0.174302
0.173229
0.172195
0.171205
0.170262
0.169372
0.16854
0.167773
0.167077
0.166457
0.165922
0.165476
0.165127
0.164881
0.164744
0.164719
0.164813
0.165027
0.165365
0.165826
0.16641
0.167115
0.167935
0.168865
0.169897
0.17102
0.172224
0.173496
0.174822
0.176189
0.177583
0.178992
0.180402
0.181806
0.183193
0.184558
0.185897
0.187208
0.188491
0.189746
0.190977
0.192186
0.193375
0.194544
0.195692
0.196814
0.197902
0.19894
0.19991
0.200784
0.201531
0.202112
0.202486
0.202607
0.20243
0.201912
0.201015
0.199712
0.197987
0.195839
0.19328
0.190343
0.187072
0.183524
0.179769
0.175877
0.171923
0.167977
0.164104
0.160359
0.156793
0.153451
0.150384
0.14766
0.145388
0.143743
0.143019
0.14369
0.146515
0.152664
0.163866
0.182527
0.211806
0.255572
0.318125
0.403459
0.51398
0.649084
0.804491
0.973007
1.14647
1.31777
1.48203
1.63663
1.78056
1.91368
2.03608
2.14787
2.24906
2.33956
2.41923
2.48798
2.54572
2.59245
2.62819
2.65303
2.66707
2.67043
2.66323
2.64557
2.61749
2.57891
2.53016
2.47175
2.40429
2.32848
2.24521
2.1556
2.06106
1.96331
1.86444
1.76689
1.67345
1.58704
1.51053
1.44616
1.39516
1.35733
1.33113
1.31393
1.30258
1.29387
1.28497
1.2736
1.25818
1.23776
1.21194
1.18078
1.14463
1.10412
1.05997
1.01299
0.963998
0.913801
0.863143
0.812706
0.763092
0.714819
0.66832
0.623945
0.581965
0.54258
0.505923
0.472072
0.441058
0.412873
0.387481
0.364827
0.344848
0.327482
0.312679
0.300411
0.290692
0.283595
0.279275
0.278014
0.280279
0.286825
0.298856
0.31831
0.348343
0.394027
0.463504
0.568362
0.724957
0.950886
1.25561
1.69688
2.05411
0.204756
0.203236
0.201735
0.200253
0.19879
0.197346
0.195919
0.19451
0.193119
0.191745
0.190388
0.18905
0.18773
0.186428
0.185145
0.183881
0.182635
0.18141
0.180204
0.179019
0.177856
0.176715
0.175597
0.174504
0.173437
0.172398
0.171388
0.170409
0.169463
0.168554
0.167682
0.166851
0.166062
0.16532
0.164626
0.163982
0.16339
0.162854
0.162373
0.16195
0.161584
0.161277
0.161028
0.160836
0.1607
0.160617
0.160586
0.160602
0.160662
0.160763
0.160899
0.161066
0.16126
0.161476
0.16171
0.161958
0.162217
0.162484
0.162756
0.163033
0.163312
0.163594
0.163878
0.164164
0.164451
0.164739
0.165026
0.165309
0.165584
0.165843
0.166078
0.166277
0.166425
0.166506
0.166499
0.166385
0.166142
0.165753
0.165199
0.164468
0.163554
0.162456
0.161181
0.159742
0.158159
0.156455
0.154658
0.152799
0.150905
0.149006
0.147133
0.145318
0.143604
0.142053
0.140765
0.139902
0.139727
0.140666
0.14339
0.148934
0.158843
0.175304
0.20125
0.240381
0.296993
0.375401
0.478784
0.60768
0.758928
0.925937
1.10039
1.27451
1.44262
1.60161
1.7503
1.8886
2.01676
2.135
2.24331
2.34156
2.42954
2.50701
2.57378
2.62975
2.67488
2.70918
2.73275
2.74567
2.74807
2.74006
2.72173
2.69312
2.65414
2.60511
2.54652
2.47895
2.40311
2.31983
2.23016
2.13541
2.03716
1.93732
1.83812
1.74203
1.65172
1.56984
1.49866
1.43963
1.39307
1.35799
1.33235
1.3134
1.29818
1.28395
1.2684
1.24985
1.22719
1.19988
1.16782
1.13125
1.09065
1.04668
1.00007
0.951568
0.901938
0.851892
0.802084
0.753098
0.705439
0.659532
0.615719
0.574271
0.535382
0.499188
0.465764
0.435143
0.407316
0.382248
0.359885
0.340163
0.32302
0.308403
0.296284
0.286674
0.279639
0.275327
0.274003
0.276112
0.282364
0.293897
0.312526
0.341197
0.384639
0.450383
0.549237
0.69566
0.906226
1.1855
1.57814
1.94333
0.206216
0.204728
0.203258
0.201806
0.200371
0.198954
0.197554
0.196171
0.194804
0.193455
0.192122
0.190806
0.189506
0.188224
0.186958
0.18571
0.184478
0.183265
0.182068
0.18089
0.17973
0.178588
0.177465
0.176361
0.175277
0.174214
0.173171
0.17215
0.171152
0.170178
0.169228
0.168303
0.167406
0.166536
0.165695
0.164884
0.164104
0.163357
0.162642
0.161961
0.161315
0.160703
0.160126
0.159584
0.159076
0.158603
0.158163
0.157754
0.157376
0.157027
0.156706
0.156409
0.156135
0.155882
0.155647
0.155428
0.155222
0.155028
0.154844
0.154667
0.154495
0.154329
0.154166
0.154005
0.153846
0.153687
0.153529
0.15337
0.153209
0.153043
0.152872
0.15269
0.152495
0.15228
0.152038
0.151764
0.151447
0.151082
0.15066
0.150174
0.149619
0.148992
0.148292
0.147521
0.146683
0.145783
0.144829
0.143831
0.142801
0.141751
0.140704
0.139689
0.138759
0.137998
0.137551
0.137651
0.138674
0.141215
0.146191
0.15498
0.169552
0.192597
0.227584
0.278678
0.350322
0.446247
0.568005
0.713636
0.877432
1.05124
1.22674
1.39748
1.55969
1.71195
1.85422
1.98695
2.1105
2.22496
2.33016
2.42578
2.51147
2.58688
2.6518
2.70607
2.74965
2.78258
2.80492
2.8168
2.81832
2.80959
2.7907
2.76169
2.72247
2.67331
2.6147
2.54725
2.47161
2.38859
2.2992
2.20464
2.10641
2.00628
1.90627
1.80863
1.71575
1.63004
1.55364
1.48812
1.4341
1.39107
1.3575
1.33108
1.30919
1.28924
1.26898
1.2467
1.22118
1.19177
1.15824
1.12071
1.07957
1.03537
0.98876
0.940442
0.891118
0.841463
0.792101
0.743593
0.696425
0.651009
0.607681
0.566701
0.528261
0.492492
0.459468
0.429218
0.401734
0.376979
0.354897
0.335423
0.318494
0.304055
0.292076
0.282564
0.275578
0.271256
0.269848
0.271772
0.277694
0.288675
0.306403
0.333596
0.3746
0.43628
0.52856
0.664141
0.858168
1.11294
1.46027
1.81277
0.207163
0.205701
0.204256
0.20283
0.20142
0.200027
0.19865
0.19729
0.195947
0.194619
0.193308
0.192012
0.190733
0.18947
0.188223
0.186992
0.185777
0.184578
0.183395
0.182228
0.181078
0.179945
0.178827
0.177727
0.176644
0.175578
0.174529
0.173499
0.172486
0.171493
0.170519
0.169564
0.16863
0.167717
0.166825
0.165955
0.165108
0.164284
0.163483
0.162707
0.161956
0.16123
0.160529
0.159854
0.159204
0.158579
0.15798
0.157404
0.156853
0.156325
0.155818
0.155333
0.154866
0.154418
0.153985
0.153568
0.153163
0.152768
0.152383
0.152005
0.151633
0.151264
0.150898
0.150533
0.150168
0.149802
0.149436
0.149067
0.148696
0.148323
0.147947
0.147568
0.147185
0.146797
0.146403
0.146001
0.145589
0.145164
0.144724
0.144265
0.143785
0.143281
0.142751
0.142192
0.141605
0.140987
0.140341
0.139668
0.138974
0.138271
0.137582
0.136948
0.136443
0.136191
0.1364
0.137405
0.139733
0.144204
0.152048
0.165041
0.185631
0.217027
0.26318
0.328493
0.417022
0.531128
0.670012
0.829041
1.00055
1.17596
1.34803
1.51227
1.66686
1.8118
1.94775
2.07532
2.19476
2.30591
2.40836
2.50161
2.58517
2.65863
2.72174
2.77435
2.81642
2.84799
2.86917
2.88005
2.88077
2.87143
2.8521
2.82282
2.78351
2.73439
2.67597
2.60884
2.53365
2.45119
2.36239
2.26843
2.1707
2.07086
1.97079
1.87253
1.77823
1.69005
1.60994
1.53943
1.4793
1.42941
1.38863
1.35513
1.32662
1.30075
1.27541
1.2489
1.21998
1.1879
1.15235
1.11336
1.0712
1.02634
0.979356
0.930891
0.88159
0.832084
0.782964
0.734762
0.687944
0.642905
0.599967
0.55938
0.521329
0.485939
0.453277
0.423371
0.396207
0.371746
0.34993
0.330692
0.313965
0.299693
0.287842
0.278414
0.271461
0.267112
0.265599
0.267311
0.272871
0.28326
0.300031
0.325664
0.364109
0.421535
0.506918
0.631374
0.808366
1.0395
1.34585
1.67343
0.207755
0.206312
0.204887
0.203479
0.202089