/*--------------------------------*- C++ -*----------------------------------*\
| =========                 |                                                 |
| \\      /  F ield         | OpenFOAM: The Open Source CFD Toolbox           |
|  \\    /   O peration     | Version:  2.4.0                                 |
|   \\  /    A nd           | Web:      www.OpenFOAM.org                      |
|    \\/     M anipulation  |                                                 |
\*---------------------------------------------------------------------------*/
FoamFile
{
    version     2.0;
    format      ascii;
    class       surfaceScalarField;
    location    "0.038";
    object      phi_0;
}
// * * * * * * * * * * * * * * * * * * * * * * * * * * * * * * * * * * * * * //

dimensions      [0 3 -1 0 0 0 0];

internalField   nonuniform List<scalar> 
8640
(
1.14654e-05
1.35346e-05
7.17209e-06
4.29334e-06
5.91921e-06
1.25288e-06
5.36488e-06
5.54324e-07
5.07773e-06
2.87153e-07
4.98177e-06
9.59594e-08
4.79984e-06
1.81936e-07
4.79912e-06
7.10683e-10
4.39378e-06
4.05342e-07
-2.17864e-06
6.57243e-06
2.10471e-05
1.74874e-05
1.74459e-05
7.89462e-06
1.55243e-05
3.17447e-06
1.4231e-05
1.84755e-06
1.34837e-05
1.0345e-06
1.30861e-05
4.93586e-07
1.26273e-05
6.4068e-07
1.26142e-05
1.38468e-08
1.21035e-05
9.16017e-07
-3.04637e-06
1.29712e-05
2.56947e-05
1.67927e-05
2.40889e-05
9.50045e-06
2.26348e-05
4.62854e-06
2.1195e-05
3.28738e-06
2.02348e-05
1.99471e-06
1.96278e-05
1.10057e-06
1.89981e-05
1.2704e-06
1.89189e-05
9.29734e-08
1.84527e-05
1.38223e-06
-3.324e-06
1.87304e-05
2.74632e-05
1.43295e-05
2.77004e-05
9.2633e-06
2.74042e-05
4.92479e-06
2.64708e-05
4.22069e-06
2.56717e-05
2.79387e-06
2.50583e-05
1.71393e-06
2.43934e-05
1.93535e-06
2.42477e-05
2.38606e-07
2.39221e-05
1.7079e-06
-3.21542e-06
2.38135e-05
2.76841e-05
1.16454e-05
2.88342e-05
8.11312e-06
2.96361e-05
4.12289e-06
2.96087e-05
4.24809e-06
2.93992e-05
3.00342e-06
2.90867e-05
2.02645e-06
2.85944e-05
2.42761e-06
2.84765e-05
3.56515e-07
2.83524e-05
1.832e-06
-2.70381e-06
2.78408e-05
2.7622e-05
9.02345e-06
2.88962e-05
6.83886e-06
3.00087e-05
3.01044e-06
3.05862e-05
3.67061e-06
3.10754e-05
2.51416e-06
3.13084e-05
1.79342e-06
3.12313e-05
2.5047e-06
3.1293e-05
2.949e-07
3.15171e-05
1.6079e-06
-1.9117e-06
3.0725e-05
2.75235e-05
6.5e-06
2.89001e-05
5.46222e-06
2.99369e-05
1.97366e-06
3.06033e-05
3.00422e-06
3.13248e-05
1.79263e-06
3.18781e-05
1.24008e-06
3.22188e-05
2.16399e-06
3.25074e-05
6.3649e-09
3.30482e-05
1.06709e-06
-1.03125e-06
3.21677e-05
2.73804e-05
4.11959e-06
2.89512e-05
3.89147e-06
2.97816e-05
1.14327e-06
3.05736e-05
2.21213e-06
3.12789e-05
1.08736e-06
3.18477e-05
6.71293e-07
3.23269e-05
1.68475e-06
3.27353e-05
-4.0199e-07
3.32973e-05
5.051e-07
-1.48073e-06
3.37468e-05
2.72442e-05
1.87542e-06
2.88453e-05
2.29033e-06
2.96761e-05
3.12529e-07
3.05904e-05
1.29777e-06
3.12282e-05
4.49541e-07
3.17859e-05
1.13678e-07
3.23173e-05
1.15331e-06
3.2728e-05
-8.12717e-07
3.31212e-05
1.11896e-07
-1.85626e-06
3.34968e-05
2.71897e-05
-3.14239e-07
2.88374e-05
6.42591e-07
2.96408e-05
-4.90862e-07
3.05338e-05
4.04744e-07
3.11913e-05
-2.07917e-07
3.17751e-05
-4.70171e-07
3.23146e-05
6.13806e-07
3.2676e-05
-1.1741e-06
3.32529e-05
-4.64996e-07
-2.45501e-06
3.38517e-05
2.72003e-05
-2.51453e-06
2.88375e-05
-9.94573e-07
2.96201e-05
-1.2735e-06
3.05381e-05
-5.13236e-07
3.12003e-05
-8.70114e-07
3.17501e-05
-1.02002e-06
3.23019e-05
6.20408e-08
3.27194e-05
-1.59165e-06
3.33921e-05
-1.13769e-06
-2.36359e-06
3.33007e-05
2.72163e-05
-4.7308e-06
2.88572e-05
-2.63554e-06
2.96671e-05
-2.08337e-06
3.05737e-05
-1.41978e-06
3.12186e-05
-1.51502e-06
3.17537e-05
-1.5552e-06
3.23601e-05
-5.44293e-07
3.27521e-05
-1.98371e-06
3.32317e-05
-1.61723e-06
-2.59391e-06
3.3462e-05
2.72416e-05
-6.9724e-06
2.89252e-05
-4.31914e-06
2.97687e-05
-2.92685e-06
3.06294e-05
-2.28048e-06
3.12622e-05
-2.14784e-06
3.18074e-05
-2.10042e-06
3.24412e-05
-1.17812e-06
3.27398e-05
-2.28229e-06
3.31799e-05
-2.05731e-06
-3.21902e-06
3.3805e-05
2.72891e-05
-9.26155e-06
2.89723e-05
-6.00228e-06
2.99237e-05
-3.87829e-06
3.07077e-05
-3.06448e-06
3.13326e-05
-2.77269e-06
3.1825e-05
-2.5928e-06
3.23604e-05
-1.71359e-06
3.24512e-05
-2.37307e-06
3.2712e-05
-2.31808e-06
-3.25235e-06
3.27453e-05
2.74298e-05
-1.16913e-05
2.90709e-05
-7.64344e-06
3.00139e-05
-4.82123e-06
3.07115e-05
-3.76214e-06
3.11065e-05
-3.1677e-06
3.12048e-05
-2.69105e-06
3.13301e-05
-1.83892e-06
3.10758e-05
-2.11871e-06
3.09621e-05
-2.20445e-06
-2.94371e-06
3.06535e-05
2.76286e-05
-1.43199e-05
2.90218e-05
-9.0367e-06
2.95753e-05
-5.37471e-06
2.96983e-05
-3.88514e-06
2.94164e-05
-2.88578e-06
2.89595e-05
-2.2342e-06
2.86344e-05
-1.5138e-06
2.81294e-05
-1.61372e-06
2.77339e-05
-1.80896e-06
-2.32029e-06
2.71105e-05
2.74577e-05
-1.67776e-05
2.78196e-05
-9.39853e-06
2.73219e-05
-4.87708e-06
2.65362e-05
-3.09943e-06
2.56727e-05
-2.02225e-06
2.49193e-05
-1.48078e-06
2.43936e-05
-9.88149e-07
2.38332e-05
-1.05334e-06
2.33068e-05
-1.28251e-06
-1.50453e-06
2.2491e-05
2.57058e-05
-1.74834e-05
2.41548e-05
-7.84755e-06
2.25635e-05
-3.28578e-06
2.12399e-05
-1.77583e-06
2.02327e-05
-1.01504e-06
1.94885e-05
-7.36603e-07
1.89794e-05
-4.78975e-07
1.84829e-05
-5.5691e-07
1.79251e-05
-7.24683e-07
-7.34813e-07
1.71554e-05
2.10529e-05
-1.35364e-05
1.74814e-05
-4.27598e-06
1.54791e-05
-1.28352e-06
1.42502e-05
-5.4691e-07
1.34923e-05
-2.57202e-07
1.29572e-05
-2.01495e-07
1.26021e-05
-1.2382e-07
1.2226e-05
-1.80876e-07
1.17457e-05
-2.44349e-07
-2.19123e-07
1.123e-05
1.14636e-05
7.18766e-06
5.90414e-06
5.35723e-06
5.10003e-06
4.89853e-06
4.77471e-06
4.59384e-06
4.34949e-06
4.13036e-06
7.26172e-06
-1.13042e-06
4.41126e-07
7.50827e-06
-5.10288e-07
2.63735e-07
7.68459e-06
-1.02485e-06
8.48531e-07
7.9096e-06
-1.38637e-07
-8.63703e-08
8.75476e-06
3.76004e-06
-4.6052e-06
1.06671e-05
5.36355e-06
-7.27594e-06
1.46264e-05
1.69124e-06
-5.65049e-06
1.8775e-05
1.76758e-06
-5.91615e-06
2.07994e-05
6.29849e-06
-8.32291e-06
2.16226e-05
6.78842e-06
-7.61166e-06
2.34385e-05
-2.32966e-06
5.13779e-07
2.50768e-05
-1.18965e-05
1.02582e-05
2.4986e-05
-1.24493e-05
1.25401e-05
2.5558e-05
-1.23145e-05
1.17426e-05
2.75988e-05
-1.69548e-05
1.49139e-05
2.92573e-05
-2.52407e-05
2.35823e-05
3.06316e-05
-3.12268e-05
2.98525e-05
3.21549e-05
-3.14346e-05
2.99113e-05
3.33878e-05
-3.08748e-05
2.96418e-05
3.41196e-05
-3.00958e-05
2.9364e-05
3.43435e-05
-2.87478e-05
2.85239e-05
3.36464e-05
-2.66207e-05
2.73178e-05
3.20859e-05
-2.39833e-05
2.55438e-05
3.08777e-05
-2.11335e-05
2.23417e-05
2.99827e-05
-1.46532e-05
1.55483e-05
2.79493e-05
-6.50071e-06
8.53411e-06
2.49721e-05
-1.03408e-06
4.0113e-06
2.22575e-05
2.47746e-06
2.37047e-07
2.00416e-05
4.34306e-06
-2.12706e-06
1.82405e-05
4.00969e-06
-2.20859e-06
1.69276e-05
3.12451e-06
-1.81169e-06
1.6086e-05
3.20222e-06
-2.36058e-06
1.55195e-05
3.87075e-06
-3.30424e-06
1.5064e-05
4.23795e-06
-3.78243e-06
1.46668e-05
4.04272e-06
-3.64557e-06
1.43338e-05
3.49831e-06
-3.16533e-06
1.40758e-05
2.86801e-06
-2.60997e-06
1.38903e-05
2.29717e-06
-2.1117e-06
1.37647e-05
1.83034e-06
-1.70471e-06
1.3683e-05
1.46382e-06
-1.38218e-06
1.36316e-05
1.17848e-06
-1.12701e-06
1.35996e-05
9.55339e-07
-9.23394e-07
1.358e-05
7.78881e-07
-7.59289e-07
1.35681e-05
6.38001e-07
-6.26082e-07
1.35609e-05
5.24508e-07
-5.17339e-07
1.35568e-05
4.32776e-07
-4.28595e-07
1.35544e-05
3.57986e-07
-3.55624e-07
1.35532e-05
2.97983e-07
-2.96812e-07
1.35528e-05
2.47905e-07
-2.47466e-07
1.35528e-05
2.10767e-07
-2.10815e-07
1.35533e-05
1.74563e-07
-1.75048e-07
1.35539e-05
1.59472e-07
-1.60036e-07
1.35555e-05
1.213e-07
-1.22898e-07
1.35558e-05
1.44746e-07
-1.45056e-07
1.35608e-05
6.3296e-08
-6.82995e-08
1.35579e-05
1.9191e-07
-1.89064e-07
1.35752e-05
-5.607e-08
3.88375e-08
1.35585e-05
3.84083e-07
-3.67429e-07
1.36163e-05
-3.70013e-07
3.12284e-07
1.3554e-05
9.22366e-07
-8.60066e-07
1.37268e-05
-1.12905e-06
9.56186e-07
1.3539e-05
2.15174e-06
-1.9639e-06
1.39707e-05
-2.57567e-06
2.14394e-06
1.3513e-05
4.23703e-06
-3.77934e-06
1.43274e-05
-4.39959e-06
3.58524e-06
1.35637e-05
6.20128e-06
-5.43759e-06
1.46143e-05
-5.4854e-06
4.43474e-06
1.39003e-05
6.27693e-06
-5.56286e-06
1.48734e-05
-5.19591e-06
4.22279e-06
1.43936e-05
4.76762e-06
-4.28783e-06
1.52839e-05
-3.97749e-06
3.08712e-06
1.46826e-05
3.71569e-06
-3.11438e-06
1.56426e-05
-3.07416e-06
2.11423e-06
1.47449e-05
4.27296e-06
-3.37529e-06
1.58846e-05
-3.19902e-06
2.05935e-06
1.46901e-05
5.15242e-06
-3.95797e-06
1.59868e-05
-3.09436e-06
1.79773e-06
1.4786e-05
4.89277e-06
-3.69205e-06
1.58372e-05
-1.95867e-06
9.07543e-07
1.4648e-05
4.76797e-06
-3.57882e-06
1.56157e-05
-9.39838e-07
-2.78823e-08
1.42274e-05
5.30663e-06
-3.91834e-06
1.51125e-05
-3.406e-07
-5.4447e-07
1.38048e-05
5.36594e-06
-4.05827e-06
1.43659e-05
1.22144e-06
-1.78249e-06
1.31274e-05
5.49206e-06
-4.25354e-06
1.36273e-05
2.30357e-06
-2.80348e-06
1.27225e-05
6.09612e-06
-5.19136e-06
1.34272e-05
3.30983e-06
-4.01447e-06
1.29364e-05
7.06253e-06
-6.57182e-06
1.39482e-05
5.07278e-06
-6.08454e-06
1.36687e-05
9.02187e-06
-8.74234e-06
1.48112e-05
7.54746e-06
-8.69e-06
1.29101e-05
1.38984e-05
-1.19973e-05
1.31353e-05
1.17137e-05
-1.19389e-05
1.24625e-05
1.92479e-05
-1.85751e-05
1.43733e-05
1.75877e-05
-1.94985e-05
1.12576e-05
3.16037e-05
-2.8488e-05
1.18768e-05
3.01577e-05
-3.07768e-05
5.83849e-05
-5.76211e-05
1.11129e-05
1.30668e-05
-1.22603e-06
1.29275e-05
-3.70997e-07
1.29506e-05
-1.04793e-06
1.31942e-05
-3.82171e-07
1.37762e-05
3.17797e-06
1.48662e-05
4.27359e-06
1.6857e-05
-2.99565e-07
1.92943e-05
-6.69741e-07
2.10826e-05
4.5102e-06
2.28323e-05
5.0387e-06
2.46544e-05
-4.15177e-06
2.52664e-05
-1.25085e-05
2.54696e-05
-1.26525e-05
2.74137e-05
-1.42586e-05
3.02578e-05
-1.97989e-05
3.17857e-05
-2.67687e-05
3.22629e-05
-3.1704e-05
3.29378e-05
-3.21095e-05
3.39146e-05
-3.18516e-05
3.44159e-05
-3.0597e-05
3.45994e-05
-2.89313e-05
3.45975e-05
-2.66189e-05
3.33702e-05
-2.27559e-05
3.12848e-05
-1.90482e-05
2.97299e-05
-1.30983e-05
2.79673e-05
-4.73816e-06
2.52793e-05
1.65394e-06
2.24513e-05
5.30548e-06
2.00632e-05
6.73115e-06
1.81254e-05
5.9475e-06
1.66536e-05
4.5963e-06
1.56603e-05
4.19548e-06
1.5029e-05
4.50212e-06
1.4608e-05
4.65896e-06
1.4303e-05
4.34763e-06
1.40725e-05
3.72887e-06
1.38995e-05
3.041e-06
1.37741e-05
2.42262e-06
1.36867e-05
1.91766e-06
1.36286e-05
1.52191e-06
1.35915e-05
1.2156e-06
1.35689e-05
9.77973e-07
1.35557e-05
7.92066e-07
1.35485e-05
6.45178e-07
1.35451e-05
5.27967e-07
1.35438e-05
4.34005e-07
1.35439e-05
3.57933e-07
1.35447e-05
2.97158e-07
1.35459e-05
2.46736e-07
1.35474e-05
2.09246e-07
1.35489e-05
1.73088e-07
1.35508e-05
1.57571e-07
1.35526e-05
1.19499e-07
1.35549e-05
1.42458e-07
1.35583e-05
5.98696e-08
1.35601e-05
1.90097e-07
1.35709e-05
-6.68192e-08
1.35674e-05
3.87521e-07
1.36053e-05
-4.07871e-07
1.35818e-05
9.45797e-07
1.37013e-05
-1.2485e-06
1.36201e-05
2.23297e-06
1.39309e-05
-2.88648e-06
1.36994e-05
4.46852e-06
1.43141e-05
-5.0143e-06
1.3853e-05
6.66235e-06
1.4713e-05
-6.34541e-06
1.42033e-05
6.78669e-06
1.51902e-05
-6.18286e-06
1.45718e-05
5.38604e-06
1.57873e-05
-5.19302e-06
1.48075e-05
4.69552e-06
1.59772e-05
-4.24391e-06
1.49678e-05
5.28237e-06
1.61047e-05
-4.33588e-06
1.48525e-05
6.40457e-06
1.64158e-05
-4.65761e-06
1.51497e-05
6.15883e-06
1.64855e-05
-3.29442e-06
1.55029e-05
5.75053e-06
1.67977e-05
-2.23466e-06
1.54229e-05
6.68144e-06
1.70168e-05
-1.93452e-06
1.54931e-05
6.88971e-06
1.6615e-05
9.95164e-08
1.48313e-05
7.27574e-06
1.57099e-05
1.42499e-06
1.3696e-05
8.10997e-06
1.41723e-05
2.83353e-06
1.21581e-05
9.07682e-06
1.31109e-05
4.11998e-06
1.23283e-05
9.8044e-06
1.39146e-05
5.96119e-06
1.38491e-05
1.39639e-05
1.50685e-05
1.04944e-05
1.2519e-05
2.17973e-05
1.45392e-05
1.55675e-05
1.46053e-05
3.15376e-05
1.88411e-05
2.59219e-05
5.91246e-05
1.81014e-05
1.8646e-05
-1.1417e-06
1.85232e-05
-2.4821e-07
1.86386e-05
-1.16329e-06
1.88776e-05
-6.21131e-07
1.90834e-05
2.97209e-06
2.00648e-05
3.29218e-06
2.11725e-05
-1.40726e-06
2.21178e-05
-1.61501e-06
2.36049e-05
3.02307e-06
2.59889e-05
2.65471e-06
2.76672e-05
-5.83007e-06
2.78426e-05
-1.26839e-05
2.86213e-05
-1.34312e-05
3.09144e-05
-1.65517e-05
3.31264e-05
-2.20109e-05
3.41016e-05
-2.77438e-05
3.4083e-05
-3.16854e-05
3.36807e-05
-3.17072e-05
3.34269e-05
-3.15978e-05
3.36132e-05
-3.07833e-05
3.4251e-05
-2.95692e-05
3.49304e-05
-2.72983e-05
3.45915e-05
-2.24169e-05
3.26295e-05
-1.70863e-05
3.02113e-05
-1.06801e-05
2.7919e-05
-2.44578e-06
2.52335e-05
4.33943e-06
2.24143e-05
8.12466e-06
1.99533e-05
9.19217e-06
1.7924e-05
7.97673e-06
1.63191e-05
6.20123e-06
1.51825e-05
5.33203e-06
1.44772e-05
5.20747e-06
1.40815e-05
5.05465e-06
1.38697e-05
4.55941e-06
1.37521e-05
3.84648e-06
1.3679e-05
3.1141e-06
1.3628e-05
2.47369e-06
1.35906e-05
1.95501e-06
1.35639e-05
1.5486e-06
1.35461e-05
1.23338e-06
1.35355e-05
9.88586e-07
1.35301e-05
7.97445e-07
1.35284e-05
6.46942e-07
1.35289e-05
5.27434e-07
1.35308e-05
4.32131e-07
1.35333e-05
3.55412e-07
1.35362e-05
2.94281e-07
1.3539e-05
2.43951e-07
1.3542e-05
2.06234e-07
1.35444e-05
1.70665e-07
1.35477e-05
1.54257e-07
1.35495e-05
1.1771e-07
1.35541e-05
1.37838e-07
1.35551e-05
5.88659e-08
1.3563e-05
1.82273e-07
1.35643e-05
-6.82035e-08
1.3578e-05
3.73878e-07
1.35884e-05
-4.18251e-07
1.36108e-05
9.23366e-07
1.36644e-05
-1.30206e-06
1.36913e-05
2.20605e-06
1.38827e-05
-3.07791e-06
1.38374e-05
4.51387e-06
1.43135e-05
-5.49045e-06
1.3981e-05
6.99486e-06
1.47649e-05
-7.12929e-06
1.40725e-05
7.47907e-06
1.51813e-05
-7.29162e-06
1.40014e-05
6.56588e-06
1.54626e-05
-6.65424e-06
1.39548e-05
6.20339e-06
1.51401e-05
-5.42928e-06
1.39839e-05
6.43863e-06
1.49781e-05
-5.33012e-06
1.37609e-05
7.62184e-06
1.51992e-05
-6.09597e-06
1.41135e-05
7.24458e-06
1.53727e-05
-4.55361e-06
1.45598e-05
6.56344e-06
1.61369e-05
-3.81178e-06
1.49926e-05
7.82573e-06
1.68984e-05
-3.84034e-06
1.57477e-05
8.04042e-06
1.76751e-05
-1.82785e-06
1.61995e-05
8.75133e-06
1.81234e-05
-4.98885e-07
1.63463e-05
9.88701e-06
1.75413e-05
1.6385e-06
1.52325e-05
1.13856e-05
1.58986e-05
3.45392e-06
1.33711e-05
1.23319e-05
1.37991e-05
5.53319e-06
1.31198e-05
1.46432e-05
1.60079e-05
7.60624e-06
1.56287e-05
2.21766e-05
1.69421e-05
1.42541e-05
1.45947e-05
3.38851e-05
2.07191e-05
1.97975e-05
5.76576e-05
2.2186e-05
2.35386e-05
-8.66794e-07
2.32033e-05
8.70275e-08
2.35142e-05
-1.47416e-06
2.43373e-05
-1.44421e-06
2.4475e-05
2.83435e-06
2.49959e-05
2.77129e-06
2.59279e-05
-2.33921e-06
2.65002e-05
-2.1873e-06
2.75933e-05
1.92995e-06
3.0048e-05
2.00046e-07
3.14735e-05
-7.25564e-06
3.11428e-05
-1.23532e-05
3.19479e-05
-1.42362e-05
3.38129e-05
-1.84167e-05
3.49874e-05
-2.31854e-05
3.51225e-05
-2.78789e-05
3.46105e-05
-3.11735e-05
3.40765e-05
-3.11732e-05
3.37228e-05
-3.12441e-05
3.3692e-05
-3.07524e-05
3.43419e-05
-3.02191e-05
3.5091e-05
-2.80474e-05
3.48566e-05
-2.21825e-05
3.31831e-05
-1.54128e-05
3.05671e-05
-8.06414e-06
2.77782e-05
3.43103e-07
2.49329e-05
7.18478e-06
2.21174e-05
1.09401e-05
1.9661e-05
1.16486e-05
1.76148e-05
1.0023e-05
1.59297e-05
7.88627e-06
1.46767e-05
6.58507e-06
1.39044e-05
5.97978e-06
1.35328e-05
5.42622e-06
1.34117e-05
4.6805e-06
1.34066e-05
3.85164e-06
1.34356e-05
3.08505e-06
1.34634e-05
2.4459e-06
1.34811e-05
1.93733e-06
1.34904e-05
1.53927e-06
1.34954e-05
1.22841e-06
1.3499e-05
9.85e-07
1.35028e-05
7.93648e-07
1.35072e-05
6.42503e-07
1.35122e-05
5.22471e-07
1.35174e-05
4.26895e-07
1.35226e-05
3.50276e-07
1.35276e-05
2.89275e-07
1.3532e-05
2.39509e-07
1.35366e-05
2.01696e-07
1.35399e-05
1.67324e-07
1.35447e-05
1.49464e-07
1.35463e-05
1.16126e-07
1.35536e-05
1.30539e-07
1.35513e-05
6.11738e-08
1.35667e-05
1.66844e-07
1.35549e-05
-5.64103e-08
1.3592e-05
3.36805e-07
1.356e-05
-3.86238e-07
1.36486e-05
8.34678e-07
1.35882e-05
-1.24166e-06
1.37683e-05
2.02597e-06
1.3733e-05
-3.04263e-06
1.39138e-05
4.33307e-06
1.417e-05
-5.74663e-06
1.3858e-05
7.30686e-06
1.4756e-05
-8.02725e-06
1.35729e-05
8.66213e-06
1.50458e-05
-8.76446e-06
1.33431e-05
8.26858e-06
1.47581e-05
-8.06926e-06
1.33601e-05
7.60134e-06
1.42372e-05
-6.30634e-06
1.342e-05
7.25578e-06
1.42074e-05
-6.11753e-06
1.33983e-05
8.43096e-06
1.47107e-05
-7.4084e-06
1.38299e-05
8.12543e-06
1.48802e-05
-5.60393e-06
1.41389e-05
7.30479e-06
1.55694e-05
-5.24235e-06
1.4228e-05
9.16713e-06
1.61991e-05
-5.81142e-06
1.51758e-05
9.06377e-06
1.7069e-05
-3.72107e-06
1.56956e-05
1.01248e-05
1.83228e-05
-3.12611e-06
1.68913e-05
1.13185e-05
1.92324e-05
-7.02656e-07
1.72604e-05
1.33577e-05
1.93485e-05
1.36573e-06
1.63366e-05
1.53439e-05
1.70465e-05
4.82334e-06
1.3663e-05
1.80267e-05
1.51229e-05
6.14633e-06
1.58851e-05
2.14144e-05
1.99796e-05
1.01596e-05
1.98065e-05
3.40582e-05
2.50344e-05
1.45695e-05
5.66239e-05
2.60681e-05
2.75243e-05
-5.50291e-07
2.72798e-05
3.31519e-07
2.75599e-05
-1.75422e-06
2.8379e-05
-2.26336e-06
2.88041e-05
2.40925e-06
2.91582e-05
2.41723e-06
2.98217e-05
-3.0027e-06
3.04588e-05
-2.82442e-06
3.14881e-05
9.00617e-07
3.38494e-05
-2.16125e-06
3.49639e-05
-8.37008e-06
3.43761e-05
-1.17654e-05
3.48772e-05
-1.47373e-05
3.57161e-05
-1.92557e-05
3.58772e-05
-2.33465e-05
3.54105e-05
-2.74123e-05
3.43152e-05
-3.00782e-05
3.34118e-05
-3.02698e-05
3.34363e-05
-3.12686e-05
3.38712e-05
-3.11873e-05
3.41103e-05
-3.04582e-05
3.43088e-05
-2.82459e-05
3.39623e-05
-2.1836e-05
3.25743e-05
-1.40248e-05
3.01924e-05
-5.6822e-06
2.72742e-05
3.2613e-06
2.42888e-05
1.01701e-05
2.15687e-05
1.36602e-05
1.9248e-05
1.39693e-05
1.71955e-05
1.20754e-05
1.54282e-05
9.65357e-06
1.41131e-05
7.90016e-06
1.33397e-05
6.75322e-06
1.30298e-05
5.73607e-06
1.30051e-05
4.7052e-06
1.30988e-05
3.75801e-06
1.3211e-05
2.97277e-06
1.33032e-05
2.35374e-06
1.33685e-05
1.87207e-06
1.34118e-05
1.49589e-06
1.34405e-05
1.1998e-06
1.346e-05
9.65464e-07
1.34743e-05
7.79301e-07
1.34858e-05
6.31012e-07
1.34956e-05
5.12687e-07
1.35043e-05
4.18182e-07
1.35121e-05
3.42531e-07
1.35192e-05
2.82177e-07
1.35252e-05
2.33462e-07
1.35312e-05
1.95673e-07
1.35354e-05
1.63111e-07
1.35417e-05
1.43202e-07
1.3543e-05
1.14821e-07
1.3553e-05
1.20564e-07
1.35473e-05
6.68453e-08
1.357e-05
1.44183e-07
1.35459e-05
-3.23233e-08
1.36027e-05
2.79948e-07
1.35355e-05
-3.18981e-07
1.3671e-05
6.99196e-07
1.35286e-05
-1.09929e-06
1.37949e-05
1.75969e-06
1.36215e-05
-2.86928e-06
1.38974e-05
4.05723e-06
1.40624e-05
-5.91161e-06
1.36961e-05
7.67308e-06
1.47488e-05
-9.07989e-06
1.33106e-05
1.01003e-05
1.48764e-05
-1.03302e-05
1.33604e-05
9.78461e-06
1.43987e-05
-9.10759e-06
1.36961e-05
8.30393e-06
1.42948e-05
-6.90502e-06
1.38922e-05
7.65836e-06
1.46454e-05
-6.87069e-06
1.40287e-05
9.04759e-06
1.53113e-05
-8.69093e-06
1.42652e-05
9.17152e-06
1.55364e-05
-6.87517e-06
1.46823e-05
8.15894e-06
1.60261e-05
-6.58614e-06
1.46512e-05
1.0542e-05
1.66848e-05
-7.84496e-06
1.55083e-05
1.02403e-05
1.72263e-05
-5.43911e-06
1.59357e-05
1.14154e-05
1.87605e-05
-5.95094e-06
1.74871e-05
1.2592e-05
2.0203e-05
-3.41859e-06
1.90715e-05
1.44892e-05
2.25304e-05
-2.09318e-06
2.06663e-05
1.7208e-05
2.29818e-05
2.50777e-06
2.00352e-05
2.09733e-05
2.00317e-05
6.14988e-06
1.61958e-05
2.52503e-05
1.82928e-05
8.06264e-06
1.77022e-05
3.46487e-05
2.37334e-05
8.53834e-06
5.11201e-05
2.92372e-05
3.03258e-05
-1.51168e-07
3.01219e-05
5.3546e-07
3.06167e-05
-2.24902e-06
3.12845e-05
-2.93117e-06
3.19228e-05
1.77097e-06
3.24462e-05
1.89381e-06
3.26121e-05
-3.16859e-06
3.29582e-05
-3.17051e-06
3.41064e-05
-2.47567e-07
3.60678e-05
-4.12273e-06
3.66469e-05
-8.94913e-06
3.61873e-05
-1.13058e-05
3.65135e-05
-1.50635e-05
3.64694e-05
-1.92115e-05
3.58636e-05
-2.27407e-05
3.48033e-05
-2.63519e-05
3.36451e-05
-2.892e-05
3.29905e-05
-2.96152e-05
3.2968e-05
-3.12461e-05
3.3405e-05
-3.16243e-05
3.309e-05
-3.01432e-05
3.2245e-05
-2.74009e-05
3.14476e-05
-2.10386e-05
3.03342e-05
-1.29114e-05
2.85306e-05
-3.87862e-06
2.60356e-05
5.75631e-06
2.3265e-05
1.29407e-05
2.05456e-05
1.63796e-05
1.82275e-05
1.62874e-05
1.63992e-05
1.39037e-05
1.48773e-05
1.11755e-05
1.36645e-05
9.113e-06
1.29359e-05
7.48179e-06
1.26947e-05
5.97725e-06
1.27538e-05
4.64611e-06
1.29179e-05
3.59394e-06
1.30785e-05
2.81218e-06
1.32016e-05
2.23063e-06
1.3288e-05
1.78564e-06
1.33477e-05
1.43622e-06
1.33897e-05
1.15781e-06
1.34203e-05
9.34801e-07
1.34437e-05
7.55936e-07
1.34622e-05
6.12469e-07
1.34774e-05
4.97512e-07
1.34902e-05
4.05405e-07
1.3501e-05
3.31713e-07
1.35105e-05
2.72706e-07
1.35183e-05
2.25641e-07
1.35259e-05
1.88068e-07
1.3531e-05
1.58037e-07
1.35388e-05
1.35355e-07
1.35395e-05
1.14117e-07
1.35529e-05
1.07228e-07
1.35422e-05
7.74979e-08
1.35752e-05
1.11247e-07
1.35327e-05
1.01347e-08
1.36188e-05
1.93837e-07
1.34996e-05
-1.99816e-07
1.36999e-05
4.98962e-07
1.34468e-05
-8.46202e-07
1.38132e-05
1.39324e-06
1.34747e-05
-2.53076e-06
1.38608e-05
3.67117e-06
1.38761e-05
-5.9269e-06
1.36041e-05
7.94504e-06
1.46166e-05
-1.00924e-05
1.32136e-05
1.15033e-05
1.46525e-05
-1.17691e-05
1.34158e-05
1.10213e-05
1.40305e-05
-9.72229e-06
1.3793e-05
8.54143e-06
1.40275e-05
-7.13955e-06
1.36378e-05
8.04808e-06
1.45849e-05
-7.81776e-06
1.34535e-05
1.01789e-05
1.47103e-05
-9.94766e-06
1.36642e-05
1.02176e-05
1.45114e-05
-7.72242e-06
1.38018e-05
8.86858e-06
1.51768e-05
-7.96112e-06
1.38003e-05
1.19184e-05
1.54577e-05
-9.50235e-06
1.47439e-05
1.0954e-05
1.60999e-05
-6.79513e-06
1.50886e-05
1.24267e-05
1.74673e-05
-8.32961e-06
1.6897e-05
1.31622e-05
1.9166e-05
-5.68761e-06
1.87012e-05
1.4954e-05
2.22054e-05
-5.59735e-06
2.19491e-05
1.74643e-05
2.61817e-05
-1.72478e-06
2.50015e-05
2.21534e-05
2.95272e-05
1.62422e-06
2.54188e-05
2.93586e-05
2.78791e-05
5.60239e-06
2.28633e-05
3.96645e-05
2.24475e-05
8.95415e-06
4.49035e-05
2.86641e-05
3.20678e-05
-5.1212e-08
3.20981e-05
5.05108e-07
3.25476e-05
-2.69853e-06
3.27195e-05
-3.10299e-06
3.34318e-05
1.0586e-06
3.45096e-05
8.16025e-07
3.44161e-05
-3.07508e-06
3.43224e-05
-3.07681e-06
3.55071e-05
-1.4322e-06
3.65609e-05
-5.17655e-06
3.63639e-05
-8.75216e-06
3.62713e-05
-1.12132e-05
3.64642e-05
-1.52565e-05
3.59399e-05
-1.86872e-05
3.52345e-05
-2.20354e-05
3.41234e-05
-2.52408e-05
3.32612e-05
-2.80578e-05
3.34043e-05
-2.97582e-05
3.33183e-05
-3.11601e-05
3.27773e-05
-3.10833e-05
3.1506e-05
-2.88719e-05
2.96589e-05
-2.55539e-05
2.82373e-05
-1.96169e-05
2.71064e-05
-1.17805e-05
2.5689e-05
-2.46121e-06
2.3872e-05
7.5733e-06
2.16437e-05
1.5169e-05
1.94761e-05
1.85472e-05
1.77139e-05
1.80496e-05
1.60048e-05
1.56129e-05
1.42997e-05
1.28806e-05
1.3065e-05
1.03477e-05
1.25158e-05
8.03097e-06
1.2478e-05
6.01515e-06
1.2671e-05
4.4531e-06
1.28945e-05
3.37039e-06
1.30675e-05
2.63918e-06
1.31839e-05
2.11426e-06
1.32617e-05
1.70781e-06
1.33172e-05
1.38073e-06
1.33596e-05
1.11544e-06
1.33934e-05
9.00966e-07
1.34209e-05
7.28426e-07
1.34435e-05
5.89863e-07
1.34622e-05
4.78803e-07
1.34779e-05
3.89701e-07
1.34911e-05
3.18534e-07
1.35025e-05
2.61292e-07
1.35119e-05
2.16292e-07
1.35209e-05
1.79091e-07
1.35268e-05
1.52118e-07
1.3536e-05
1.26174e-07
1.35363e-05
1.13723e-07
1.35523e-05
9.12474e-08
1.35379e-05
9.18952e-08
1.35787e-05
7.04768e-08
1.35224e-05
6.64384e-08
1.36292e-05
8.70477e-08
1.34738e-05
-4.43903e-08
1.37105e-05
2.62182e-07
1.33924e-05
-5.28097e-07
1.37887e-05
9.9696e-07
1.33743e-05
-2.1163e-06
1.37735e-05
3.2719e-06
1.36921e-05
-5.84545e-06
1.35431e-05
8.09406e-06
1.4362e-05
-1.09113e-05
1.32467e-05
1.26186e-05
1.42974e-05
-1.28198e-05
1.35047e-05
1.18139e-05
1.36514e-05
-9.86898e-06
1.37397e-05
8.45319e-06
1.37626e-05
-7.16245e-06
1.33519e-05
8.45872e-06
1.43736e-05
-8.83942e-06
1.31839e-05
1.13686e-05
1.4288e-05
-1.10518e-05
1.36595e-05
1.08462e-05
1.43064e-05
-8.36934e-06
1.35331e-05
9.64183e-06
1.47713e-05
-9.19931e-06
1.34763e-05
1.32134e-05
1.48532e-05
-1.08792e-05
1.39901e-05
1.18171e-05
1.51142e-05
-7.91922e-06
1.3719e-05
1.38219e-05
1.56114e-05
-1.02221e-05
1.44291e-05
1.43445e-05
1.58055e-05
-7.06395e-06
1.4433e-05
1.63264e-05
1.69011e-05
-8.06544e-06
1.6166e-05
1.81994e-05
1.96165e-05
-5.17522e-06
1.88587e-05
2.29112e-05
2.45046e-05
-4.02163e-06
2.37636e-05
3.00996e-05
2.91561e-05
2.09815e-07
2.91375e-05
3.96832e-05
2.68568e-05
1.12348e-05
4.19981e-05
2.97623e-05
3.36341e-05
6.14195e-08
3.38533e-05
2.85935e-07
3.38619e-05
-2.70709e-06
3.30963e-05
-2.33744e-06
3.34491e-05
7.05763e-07
3.46606e-05
-3.95386e-07
3.47031e-05
-3.11761e-06
3.47955e-05
-3.16927e-06
3.57776e-05
-2.41423e-06
3.57241e-05
-5.12312e-06
3.5283e-05
-8.31104e-06
3.55955e-05
-1.15257e-05
3.54803e-05
-1.51412e-05
3.49573e-05
-1.81642e-05
3.45158e-05
-2.15939e-05
3.37626e-05
-2.44876e-05
3.31824e-05
-2.74777e-05
3.30754e-05
-2.96513e-05
3.23526e-05
-3.04373e-05
3.07593e-05
-2.94899e-05
2.86392e-05
-2.67518e-05
2.63209e-05
-2.32356e-05
2.4613e-05
-1.7909e-05
2.35258e-05
-1.06934e-05
2.24125e-05
-1.34792e-06
2.1087e-05
8.89888e-06
1.94582e-05
1.67977e-05
1.78226e-05
2.01828e-05
1.61945e-05
1.96777e-05
1.46267e-05
1.71807e-05
1.34609e-05
1.40464e-05
1.27573e-05
1.10513e-05
1.2467e-05
8.32129e-06
1.25412e-05
5.94096e-06
1.28046e-05
4.18968e-06
1.30663e-05
3.10862e-06
1.32384e-05
2.46716e-06
1.33226e-05
2.03004e-06
1.33545e-05
1.67587e-06
1.33665e-05
1.36871e-06
1.33766e-05
1.10543e-06
1.33905e-05
8.86973e-07
1.34084e-05
7.10575e-07
1.3428e-05
5.7031e-07
1.34472e-05
4.59562e-07
1.34649e-05
3.71972e-07
1.34805e-05
3.03e-07
1.3494e-05
2.47713e-07
1.35052e-05
2.0513e-07
1.35156e-05
1.6865e-07
1.35227e-05
1.4509e-07
1.35329e-05
1.15976e-07
1.35337e-05
1.12917e-07
1.35509e-05
7.40294e-08
1.35354e-05
1.07426e-07
1.35794e-05
2.6444e-08
1.35172e-05
1.28629e-07
1.36331e-05
-2.88847e-08
1.346e-05
1.28716e-07
1.37151e-05
7.07829e-09
1.33561e-05
-1.69069e-07
1.3777e-05
5.76097e-07
1.32788e-05
-1.61816e-06
1.37374e-05
2.8133e-06
1.3451e-05
-5.55904e-06
1.3556e-05
7.98904e-06
1.40397e-05
-1.1395e-05
1.33059e-05
1.33524e-05
1.40562e-05
-1.35701e-05
1.36634e-05
1.22068e-05
1.34039e-05
-9.60956e-06
1.39256e-05
7.93151e-06
1.3706e-05
-6.94282e-06
1.34608e-05
8.70395e-06
1.44356e-05
-9.81424e-06
1.34043e-05
1.23999e-05
1.42158e-05
-1.18633e-05
1.38835e-05
1.11785e-05
1.43783e-05
-8.86416e-06
1.34914e-05
1.05287e-05
1.49068e-05
-1.06147e-05
1.38514e-05
1.42688e-05
1.47347e-05
-1.17625e-05
1.41044e-05
1.24474e-05
1.55795e-05
-9.39432e-06
1.40497e-05
1.53518e-05
1.58008e-05
-1.19732e-05
1.479e-05
1.53553e-05
1.65083e-05
-8.78222e-06
1.44661e-05
1.83687e-05
1.68746e-05
-1.04739e-05
1.50448e-05
2.00292e-05
1.77242e-05
-7.85466e-06
1.51119e-05
2.55234e-05
1.86344e-05
-7.54405e-06
1.88875e-05
2.98465e-05
2.32257e-05
-4.12842e-06
2.70985e-05
3.58105e-05
2.80862e-05
1.0247e-05
3.90656e-05
3.10188e-05
3.4058e-05
-4.99788e-07
3.46702e-05
-3.26301e-07
3.40349e-05
-2.07184e-06
3.30298e-05
-1.33228e-06
3.33352e-05
4.00353e-07
3.40784e-05
-1.13863e-06
3.41606e-05
-3.19975e-06
3.43897e-05
-3.3984e-06
3.49663e-05
-2.99078e-06
3.5029e-05
-5.18585e-06
3.51818e-05
-8.4638e-06
3.50702e-05
-1.14142e-05
3.4452e-05
-1.4523e-05
3.41731e-05
-1.78852e-05
3.36945e-05
-2.11153e-05
3.2979e-05
-2.37721e-05
3.24528e-05
-2.69514e-05
3.14167e-05
-2.86151e-05
2.94589e-05
-2.84795e-05
2.70981e-05
-2.71292e-05
2.46626e-05
-2.43162e-05
2.23617e-05
-2.09348e-05
2.06991e-05
-1.62464e-05
1.97088e-05
-9.7031e-06
1.86817e-05
-3.20827e-07
1.75677e-05
1.00129e-05
1.6561e-05
1.78045e-05
1.55591e-05
2.11847e-05
1.45291e-05
2.07078e-05
1.36845e-05
1.80253e-05
1.28614e-05
1.48694e-05
1.21453e-05
1.17674e-05
1.1953e-05
8.51352e-06
1.22483e-05
5.64568e-06
1.26788e-05
3.75919e-06
1.30143e-05
2.77312e-06
1.32079e-05
2.27357e-06
1.32996e-05
1.93832e-06
1.33403e-05
1.6352e-06
1.33622e-05
1.34678e-06
1.33792e-05
1.08843e-06
1.33954e-05
8.70755e-07
1.34118e-05
6.94203e-07
1.34283e-05
5.5377e-07
1.34447e-05
4.43177e-07
1.34605e-05
3.56156e-07
1.34752e-05
2.88306e-07
1.34887e-05
2.34212e-07
1.35004e-05
1.93505e-07
1.35114e-05
1.57643e-07
1.35192e-05
1.37207e-07
1.35298e-05
1.05425e-07
1.35317e-05
1.10983e-07
1.35484e-05
5.73377e-08
1.35349e-05
1.20918e-07
1.35765e-05
-1.51552e-08
1.35186e-05
1.86541e-07
1.36291e-05
-1.3935e-07
1.34633e-05
2.94467e-07
1.371e-05
-2.39554e-07
1.33566e-05
1.84321e-07
1.37653e-05
1.674e-07
1.32486e-05
-1.10149e-06
1.37089e-05
2.35301e-06
1.32879e-05
-5.13803e-06
1.3554e-05
7.7229e-06
1.37104e-05
-1.15513e-05
1.33523e-05
1.37104e-05
1.37969e-05
-1.40146e-05
1.36533e-05
1.23504e-05
1.31721e-05
-9.12841e-06
1.38678e-05
7.23583e-06
1.33446e-05
-6.4196e-06
1.33004e-05
8.74807e-06
1.40903e-05
-1.06041e-05
1.3138e-05
1.33522e-05
1.36793e-05
-1.24045e-05
1.33657e-05
1.1492e-05
1.3616e-05
-9.11444e-06
1.29388e-05
1.12059e-05
1.40336e-05
-1.17095e-05
1.31779e-05
1.51245e-05
1.38089e-05
-1.23935e-05
1.32083e-05
1.3048e-05
1.4446e-05
-1.0632e-05
1.30514e-05
1.67464e-05
1.45137e-05
-1.34355e-05
1.37402e-05
1.61288e-05
1.5223e-05
-1.0265e-05
1.34895e-05
2.01021e-05
1.58773e-05
-1.28617e-05
1.50018e-05
2.09047e-05
1.75037e-05
-1.03565e-05
1.59144e-05
2.71127e-05
1.844e-05
-1.00697e-05
1.83536e-05
2.99328e-05
2.02482e-05
-6.02298e-06
2.34621e-05
3.25966e-05
2.60132e-05
7.69593e-06
3.43821e-05
3.06966e-05
3.38558e-05
-5.03889e-07
3.34101e-05
1.19331e-07
3.32721e-05
-1.93383e-06
3.4055e-05
-2.11515e-06
3.43462e-05
1.09127e-07
3.35487e-05
-3.41162e-07
3.28909e-05
-2.54195e-06
3.34999e-05
-4.00732e-06
3.50431e-05
-4.53402e-06
3.59608e-05
-6.10361e-06
3.55738e-05
-8.07676e-06
3.43739e-05
-1.02142e-05
3.36695e-05
-1.38186e-05
3.33016e-05
-1.75173e-05
3.24269e-05
-2.02406e-05
3.16059e-05
-2.29511e-05
3.06031e-05
-2.59487e-05
2.85311e-05
-2.65431e-05
2.55535e-05
-2.55019e-05
2.27491e-05
-2.43248e-05
2.0492e-05
-2.20591e-05
1.84917e-05
-1.89345e-05
1.68263e-05
-1.45809e-05
1.56785e-05
-8.55532e-06
1.48457e-05
5.11945e-07
1.43313e-05
1.05274e-05
1.39566e-05
1.81792e-05
1.35347e-05
2.16065e-05
1.32715e-05
2.09709e-05
1.287e-05
1.84268e-05
1.21779e-05
1.55615e-05
1.19098e-05
1.20356e-05
1.22192e-05
8.2041e-06
1.25597e-05
5.30524e-06
1.26527e-05
3.66611e-06
1.2611e-05
2.81487e-06
1.25974e-05
2.28721e-06
1.26674e-05
1.86829e-06
1.27976e-05
1.50497e-06
1.29463e-05
1.1981e-06
1.30838e-05
9.50975e-07
1.31969e-05
7.57643e-07
1.32838e-05
6.07222e-07
1.33484e-05
4.89195e-07
1.33957e-05
3.95854e-07
1.34306e-05
3.21272e-07
1.34567e-05
2.62212e-07
1.34769e-05
2.14057e-07
1.34925e-05
1.77869e-07
1.35057e-05
1.44418e-07
1.35155e-05
1.27491e-07
1.35263e-05
9.45375e-08
1.35303e-05
1.07036e-07
1.3545e-05
4.26326e-08
1.35364e-05
1.29486e-07
1.35704e-05
-4.91664e-08
1.3526e-05
2.30936e-07
1.36173e-05