/*--------------------------------*- C++ -*----------------------------------*\
| =========                 |                                                 |
| \\      /  F ield         | OpenFOAM: The Open Source CFD Toolbox           |
|  \\    /   O peration     | Version:  2.4.0                                 |
|   \\  /    A nd           | Web:      www.OpenFOAM.org                      |
|    \\/     M anipulation  |                                                 |
\*---------------------------------------------------------------------------*/
FoamFile
{
    version     2.0;
    format      ascii;
    class       volScalarField;
    location    "0.13";
    object      pPrime2Mean;
}
// * * * * * * * * * * * * * * * * * * * * * * * * * * * * * * * * * * * * * //

dimensions      [0 4 -4 0 0 0 0];

internalField   nonuniform List<scalar> 
4400
(
4.90023e+06
4.64816e+06
4.38554e+06
4.12979e+06
3.88167e+06
3.64115e+06
3.40807e+06
3.18188e+06
2.96073e+06
2.73606e+06
4.90034e+06
4.64816e+06
4.38554e+06
4.12979e+06
3.88167e+06
3.64115e+06
3.40808e+06
3.18193e+06
2.96089e+06
2.7369e+06
4.9004e+06
4.64814e+06
4.38553e+06
4.12979e+06
3.88167e+06
3.64116e+06
3.40811e+06
3.18202e+06
2.96121e+06
2.73877e+06
4.90044e+06
4.64812e+06
4.38552e+06
4.12978e+06
3.88167e+06
3.64117e+06
3.40815e+06
3.18215e+06
2.96167e+06
2.74121e+06
4.90048e+06
4.6481e+06
4.38551e+06
4.12978e+06
3.88167e+06
3.64119e+06
3.4082e+06
3.18232e+06
2.96226e+06
2.74395e+06
4.9005e+06
4.64808e+06
4.3855e+06
4.12978e+06
3.88168e+06
3.6412e+06
3.40826e+06
3.18252e+06
2.96295e+06
2.74683e+06
4.90053e+06
4.64807e+06
4.3855e+06
4.12978e+06
3.88168e+06
3.64122e+06
3.40833e+06
3.18274e+06
2.96371e+06
2.74972e+06
4.90055e+06
4.64806e+06
4.38549e+06
4.12978e+06
3.88169e+06
3.64124e+06
3.4084e+06
3.18298e+06
2.96451e+06
2.75254e+06
4.90056e+06
4.64805e+06
4.38549e+06
4.12979e+06
3.88169e+06
3.64127e+06
3.40848e+06
3.18324e+06
2.96534e+06
2.75524e+06
4.90056e+06
4.64805e+06
4.38549e+06
4.12979e+06
3.8817e+06
3.6413e+06
3.40856e+06
3.1835e+06
2.96616e+06
2.75777e+06
4.90056e+06
4.64805e+06
4.38549e+06
4.12979e+06
3.88171e+06
3.64132e+06
3.40865e+06
3.18376e+06
2.96696e+06
2.76013e+06
4.90056e+06
4.64805e+06
4.38549e+06
4.1298e+06
3.88172e+06
3.64135e+06
3.40873e+06
3.18401e+06
2.96772e+06
2.76227e+06
4.90055e+06
4.64806e+06
4.3855e+06
4.1298e+06
3.88173e+06
3.64138e+06
3.40881e+06
3.18425e+06
2.96844e+06
2.76419e+06
4.90053e+06
4.64807e+06
4.3855e+06
4.1298e+06
3.88174e+06
3.6414e+06
3.40888e+06
3.18447e+06
2.96908e+06
2.76589e+06
4.90051e+06
4.64808e+06
4.38551e+06
4.1298e+06
3.88175e+06
3.64142e+06
3.40895e+06
3.18467e+06
2.96966e+06
2.76735e+06
4.90048e+06
4.6481e+06
4.38552e+06
4.12981e+06
3.88176e+06
3.64145e+06
3.40901e+06
3.18484e+06
2.97015e+06
2.76857e+06
4.90045e+06
4.64812e+06
4.38553e+06
4.12981e+06
3.88176e+06
3.64146e+06
3.40906e+06
3.18498e+06
2.97055e+06
2.76955e+06
4.90041e+06
4.64814e+06
4.38554e+06
4.12982e+06
3.88177e+06
3.64148e+06
3.40909e+06
3.18509e+06
2.97085e+06
2.77028e+06
4.90034e+06
4.64816e+06
4.38555e+06
4.12982e+06
3.88177e+06
3.64148e+06
3.40912e+06
3.18516e+06
2.97106e+06
2.77077e+06
4.90023e+06
4.64816e+06
4.38555e+06
4.12982e+06
3.88178e+06
3.64149e+06
3.40913e+06
3.1852e+06
2.97116e+06
2.77101e+06
2.5437e+06
2.49914e+06
2.46352e+06
2.43084e+06
2.39966e+06
2.36943e+06
2.33986e+06
2.31079e+06
2.28209e+06
2.25369e+06
2.22555e+06
2.19764e+06
2.16995e+06
2.14246e+06
2.11515e+06
2.08805e+06
2.06116e+06
2.03444e+06
2.00791e+06
1.98157e+06
1.9554e+06
1.92941e+06
1.9036e+06
1.87796e+06
1.8525e+06
1.82722e+06
1.80213e+06
1.77721e+06
1.75247e+06
1.72791e+06
1.70353e+06
1.6793e+06
1.65526e+06
1.63139e+06
1.6077e+06
1.58419e+06
1.56087e+06
1.53774e+06
1.51479e+06
1.49204e+06
1.46945e+06
1.44702e+06
1.42475e+06
1.40263e+06
1.38066e+06
1.35884e+06
1.33718e+06
1.31568e+06
1.29435e+06
1.2732e+06
1.25222e+06
1.23143e+06
1.21082e+06
1.19039e+06
1.17016e+06
1.1501e+06
1.13022e+06
1.11052e+06
1.09099e+06
1.07164e+06
1.05245e+06
1.03344e+06
1.01459e+06
995918
977410
959081
940914
922933
905120
887499
870042
852777
835671
818758
801999
785428
769008
752773
736689
720792
705048
689486
674078
658856
643781
628894
614147
599586
585156
570903
556765
542782
528882
515095
501321
487567
473652
459489
444525
427595
2.56429e+06
2.51403e+06
2.47433e+06
2.43911e+06
2.40616e+06
2.37463e+06
2.34405e+06
2.31418e+06
2.28484e+06
2.25592e+06
2.22736e+06
2.19911e+06
2.17114e+06
2.14342e+06
2.11593e+06
2.08867e+06
2.06165e+06
2.03484e+06
2.00822e+06
1.98181e+06
1.95559e+06
1.92956e+06
1.90371e+06
1.87805e+06
1.85257e+06
1.82728e+06
1.80217e+06
1.77725e+06
1.75251e+06
1.72795e+06
1.70357e+06
1.67935e+06
1.65531e+06
1.63144e+06
1.60776e+06
1.58425e+06
1.56093e+06
1.5378e+06
1.51486e+06
1.49211e+06
1.46952e+06
1.4471e+06
1.42482e+06
1.40269e+06
1.38071e+06
1.35888e+06
1.3372e+06
1.3157e+06
1.29436e+06
1.2732e+06
1.25222e+06
1.23142e+06
1.2108e+06
1.19038e+06
1.17014e+06
1.15008e+06
1.1302e+06
1.1105e+06
1.09096e+06
1.07161e+06
1.05242e+06
1.03341e+06
1.01456e+06
995894
977388
959061
940900
922922
905111
887491
870032
852764
835654
818734
801966
785383
768944
752694
736583
720661
704879
689279
673821
658545
643401
628440
613596
598930
584366
569962
555634
541433
527258
513146
498956
484688
470080
454972
438558
418967
2.57996e+06
2.52712e+06
2.48449e+06
2.44706e+06
2.41249e+06
2.37971e+06
2.34816e+06
2.31751e+06
2.28755e+06
2.25812e+06
2.22915e+06
2.20056e+06
2.17231e+06
2.14437e+06
2.11669e+06
2.08928e+06
2.06214e+06
2.03522e+06
2.00853e+06
1.98205e+06
1.95578e+06
1.9297e+06
1.90382e+06
1.87814e+06
1.85264e+06
1.82734e+06
1.80223e+06
1.7773e+06
1.75256e+06
1.728e+06
1.70362e+06
1.6794e+06
1.65536e+06
1.6315e+06
1.60782e+06
1.58431e+06
1.56099e+06
1.53786e+06
1.51492e+06
1.49218e+06
1.46959e+06
1.44716e+06
1.42488e+06
1.40274e+06
1.38074e+06
1.3589e+06
1.33721e+06
1.3157e+06
1.29435e+06
1.27319e+06
1.2522e+06
1.23139e+06
1.21077e+06
1.19035e+06
1.17011e+06
1.15006e+06
1.13017e+06
1.11048e+06
1.09094e+06
1.07159e+06
1.05239e+06
1.03338e+06
1.01454e+06
995867
977364
959039
940883
922908
905100
887479
870019
852748
835633
818706
801927
785336
768877
752613
736474
720531
704710
689075
673567
658238
643026
627990
613052
598281
583587
569034
554522
540107
525668
511242
496660
481910
466678
450756
433263
412464
2.59241e+06
2.53853e+06
2.49385e+06
2.45458e+06
2.41855e+06
2.38462e+06
2.35215e+06
2.32075e+06
2.29018e+06
2.26027e+06
2.23089e+06
2.20197e+06
2.17346e+06
2.14529e+06
2.11744e+06
2.08988e+06
2.06261e+06
2.0356e+06
2.00882e+06
1.98228e+06
1.95596e+06
1.92984e+06
1.90394e+06
1.87823e+06
1.85272e+06
1.82741e+06
1.80229e+06
1.77736e+06
1.75261e+06
1.72805e+06
1.70367e+06
1.67946e+06
1.65542e+06
1.63156e+06
1.60787e+06
1.58436e+06
1.56104e+06
1.53791e+06
1.51497e+06
1.49224e+06
1.46964e+06
1.44722e+06
1.42492e+06
1.40277e+06
1.38076e+06
1.3589e+06
1.3372e+06
1.31569e+06
1.29433e+06
1.27316e+06
1.25217e+06
1.23136e+06
1.21074e+06
1.19032e+06
1.17007e+06
1.15002e+06
1.13014e+06
1.11044e+06
1.0909e+06
1.07156e+06
1.05236e+06
1.03335e+06
1.01451e+06
995838
977338
959015
940862
922889
905083
887463
870001
852727
835606
818675
801882
785284
768805
752531
736363
720401
704540
688874
673316
657935
642658
627547
612519
597645
582823
568128
553436
538816
524122
509398
494451
479257
463483
446887
428658
407434
2.60257e+06
2.54844e+06
2.50236e+06
2.46162e+06
2.42432e+06
2.38933e+06
2.35599e+06
2.32389e+06
2.29274e+06
2.26234e+06
2.23258e+06
2.20334e+06
2.17456e+06
2.14619e+06
2.11816e+06
2.09046e+06
2.06307e+06
2.03597e+06
2.00912e+06
1.98251e+06
1.95614e+06
1.92999e+06
1.90405e+06
1.87832e+06
1.8528e+06
1.82748e+06
1.80235e+06
1.77742e+06
1.75267e+06
1.72811e+06
1.70373e+06
1.67951e+06
1.65548e+06
1.63161e+06
1.60792e+06
1.58441e+06
1.56108e+06
1.53794e+06
1.51502e+06
1.49228e+06
1.46969e+06
1.44727e+06
1.42496e+06
1.40279e+06
1.38076e+06
1.35889e+06
1.33718e+06
1.31567e+06
1.2943e+06
1.27313e+06
1.25212e+06
1.23132e+06
1.21069e+06
1.19028e+06
1.17003e+06
1.14998e+06
1.13009e+06
1.11041e+06
1.09086e+06
1.07152e+06
1.05232e+06
1.03332e+06
1.01447e+06
995808
977308
958989
940837
922868
905062
887443
869977
852703
835573
818640
801833
785230
768729
752447
736248
720274
704370
688679
673068
657638
642297
627115
612000
597026
582084
567250
552386
537571
522634
507631
492340
476746
460509
443373
424687
403408
2.61104e+06
2.55705e+06
2.51005e+06
2.46814e+06
2.42974e+06
2.3938e+06
2.35966e+06
2.32689e+06
2.29519e+06
2.26435e+06
2.23421e+06
2.20467e+06
2.17564e+06
2.14705e+06
2.11886e+06
2.09103e+06
2.06352e+06
2.03633e+06
2.00941e+06
1.98274e+06
1.95632e+06
1.93013e+06
1.90417e+06
1.87842e+06
1.85289e+06
1.82756e+06
1.80242e+06
1.77748e+06
1.75273e+06
1.72817e+06
1.70378e+06
1.67957e+06
1.65553e+06
1.63166e+06
1.60796e+06
1.58444e+06
1.56111e+06
1.53797e+06
1.51505e+06
1.49231e+06
1.46972e+06
1.4473e+06
1.42497e+06
1.4028e+06
1.38075e+06
1.35886e+06
1.33715e+06
1.31563e+06
1.29426e+06
1.27308e+06
1.25207e+06
1.23127e+06
1.21064e+06
1.19023e+06
1.16998e+06
1.14994e+06
1.13005e+06
1.11037e+06
1.09082e+06
1.07149e+06
1.05228e+06
1.03329e+06
1.01444e+06
995778
977276
958962
940810
922846
905037
887421
869949
852677
835535
818603
801780
785173
768650
752361
736131
720148
704199
688490
672823
657351
641946
626694
611496
596425
581369
566400
551377
536376
521214
505954
490351
474407
457773
440215
421239
400077
2.61822e+06
2.56455e+06
2.51696e+06
2.47413e+06
2.43479e+06
2.39801e+06
2.36314e+06
2.32976e+06
2.29754e+06
2.26627e+06
2.23578e+06
2.20595e+06
2.17668e+06
2.1479e+06
2.11955e+06
2.09158e+06
2.06397e+06
2.03668e+06
2.00969e+06
1.98297e+06
1.9565e+06
1.93028e+06
1.90429e+06
1.87853e+06
1.85298e+06
1.82763e+06
1.80249e+06
1.77754e+06
1.75279e+06
1.72822e+06
1.70383e+06
1.67961e+06
1.65557e+06
1.63169e+06
1.60799e+06
1.58446e+06
1.56112e+06
1.53799e+06
1.51507e+06
1.49233e+06
1.46974e+06
1.44731e+06
1.42497e+06
1.40279e+06
1.38072e+06
1.35882e+06
1.33711e+06
1.31558e+06
1.2942e+06
1.27303e+06
1.25201e+06
1.23121e+06
1.21058e+06
1.19017e+06
1.16992e+06
1.14989e+06
1.13e+06
1.11033e+06
1.09077e+06
1.07146e+06
1.05224e+06
1.03326e+06
1.0144e+06
995748
977242
958935
940779
922821
905008
887396
869917
852648
835495
818564
801725
785114
768571
752273
736014
720021
704032
688308
672584
657077
641607
626289
611010
595845
580682
565581
550412
535229
519867
504364
488491
472240
455278
437406
418235
397271
2.62435e+06
2.57108e+06
2.52313e+06
2.4796e+06
2.43948e+06
2.40195e+06
2.36642e+06
2.33247e+06
2.29977e+06
2.2681e+06
2.23728e+06
2.20717e+06
2.17768e+06
2.14871e+06
2.12021e+06
2.09212e+06
2.06441e+06
2.03703e+06
2.00997e+06
1.9832e+06
1.95669e+06
1.93044e+06
1.90442e+06
1.87863e+06
1.85306e+06
1.82771e+06
1.80255e+06
1.7776e+06
1.75284e+06
1.72826e+06
1.70387e+06
1.67965e+06
1.6556e+06
1.63171e+06
1.608e+06
1.58447e+06
1.56113e+06
1.53799e+06
1.51508e+06
1.49233e+06
1.46975e+06
1.4473e+06
1.42496e+06
1.40277e+06
1.38068e+06
1.35877e+06
1.33706e+06
1.31553e+06
1.29414e+06
1.27296e+06
1.25194e+06
1.23115e+06
1.21052e+06
1.19012e+06
1.16987e+06
1.14984e+06
1.12994e+06
1.11028e+06
1.09072e+06
1.07142e+06
1.0522e+06
1.03323e+06
1.01436e+06
995718
977206
958906
940746
922794
904976
887369
869883
852616
835453
818521
801670
785053
768492
752185
735901
719893
703870
688125
672353
656813
641281
625903
610548
595293
580029
564803
549498
534144
518599
502866
486761
470227
453006
434892
415615
394883
2.62967e+06
2.57678e+06
2.52862e+06
2.48454e+06
2.44377e+06
2.4056e+06
2.36948e+06
2.33501e+06
2.30188e+06
2.26984e+06
2.23871e+06
2.20834e+06
2.17863e+06
2.14949e+06
2.12084e+06
2.09264e+06
2.06483e+06
2.03738e+06
2.01025e+06
1.98343e+06
1.95688e+06
1.93059e+06
1.90454e+06
1.87873e+06
1.85315e+06
1.82778e+06
1.80261e+06
1.77765e+06
1.75288e+06
1.7283e+06
1.7039e+06
1.67967e+06
1.65561e+06
1.63172e+06
1.608e+06
1.58446e+06
1.56112e+06
1.53798e+06
1.51507e+06
1.49232e+06
1.46974e+06
1.44728e+06
1.42493e+06
1.40273e+06
1.38063e+06
1.35872e+06
1.337e+06
1.31547e+06
1.29408e+06
1.2729e+06
1.25188e+06
1.23109e+06
1.21046e+06
1.19006e+06
1.16981e+06
1.14979e+06
1.12989e+06
1.11024e+06
1.09068e+06
1.07139e+06
1.05216e+06
1.0332e+06
1.01432e+06
995688
977169
958875
940711
922764
904942
887338
869846
852580
835409
818475
801613
784989
768415
752096
735793
719764
703716
687941
672134
656557
640972
625537
610110
594773
579414
564072
548640
533127
517415
501471
485162
468372
450941
432641
413330
392822
2.63428e+06
2.58176e+06
2.53348e+06
2.48898e+06
2.44767e+06
2.40894e+06
2.37231e+06
2.33738e+06
2.30384e+06
2.27146e+06
2.24004e+06
2.20944e+06
2.17953e+06
2.15022e+06
2.12144e+06
2.09313e+06
2.06523e+06
2.03771e+06
2.01053e+06
1.98365e+06
1.95706e+06
1.93074e+06
1.90466e+06
1.87883e+06
1.85322e+06
1.82784e+06
1.80266e+06
1.77768e+06
1.75291e+06
1.72832e+06
1.70392e+06
1.67968e+06
1.65562e+06
1.63172e+06
1.60799e+06
1.58445e+06
1.56111e+06
1.53796e+06
1.51505e+06
1.49229e+06
1.46971e+06
1.44723e+06
1.42489e+06
1.40267e+06
1.38057e+06
1.35866e+06
1.33693e+06
1.3154e+06
1.29401e+06
1.27283e+06
1.25182e+06
1.23103e+06
1.21041e+06
1.19001e+06
1.16976e+06
1.14974e+06
1.12984e+06
1.11019e+06
1.09064e+06
1.07135e+06
1.05212e+06
1.03317e+06
1.01428e+06
995657
977132
958844
940675
922731
904904
887303
869806
852540
835364
818423
801555
784919
768339
752003
735689
719635
703571
687761
671929
656311
640682
625193
609700
594284
578840
563388
547843
532181
516318
500182
483686
466680
449075
430637
411337
391023
2.63829e+06
2.5861e+06
2.53775e+06
2.49294e+06
2.45119e+06
2.41198e+06
2.3749e+06
2.33955e+06
2.30565e+06
2.27296e+06
2.24128e+06
2.21046e+06
2.18037e+06
2.15091e+06
2.12201e+06
2.09359e+06
2.06561e+06
2.03802e+06
2.01078e+06
1.98386e+06
1.95724e+06
1.93088e+06
1.90477e+06
1.87891e+06
1.85329e+06
1.82789e+06
1.80269e+06
1.77771e+06
1.75293e+06
1.72833e+06
1.70392e+06
1.67968e+06
1.65561e+06
1.6317e+06
1.60797e+06
1.58443e+06
1.56108e+06
1.53794e+06
1.51501e+06
1.49225e+06
1.46966e+06
1.44717e+06
1.42483e+06
1.4026e+06
1.3805e+06
1.35859e+06
1.33687e+06
1.31533e+06
1.29394e+06
1.27276e+06
1.25176e+06
1.23097e+06
1.21035e+06
1.18995e+06
1.16971e+06
1.14968e+06
1.1298e+06
1.11014e+06
1.09059e+06
1.07131e+06
1.05208e+06
1.03313e+06
1.01424e+06
995624
977093
958809
940637
922694
904865
887263
869765
852493
835316
818363
801495
784843
768262
751903
735586
719502
703431
687582
671736
656075
640411
624870
609317
593827
578307
562754
547105
531306
515305
498998
482337
465149
447404
428872
409596
389451
2.64178e+06
2.58987e+06
2.54149e+06
2.49643e+06
2.45432e+06
2.41472e+06
2.37723e+06
2.34152e+06
2.3073e+06
2.27433e+06
2.24242e+06
2.21139e+06
2.18114e+06
2.15154e+06
2.12253e+06
2.09402e+06
2.06597e+06
2.03832e+06
2.01103e+06
1.98406e+06
1.9574e+06
1.931e+06
1.90487e+06
1.87899e+06
1.85335e+06
1.82793e+06
1.80272e+06
1.77773e+06
1.75293e+06
1.72833e+06
1.70391e+06
1.67966e+06
1.65558e+06
1.63167e+06
1.60794e+06
1.5844e+06
1.56105e+06
1.5379e+06
1.51496e+06
1.49219e+06
1.4696e+06
1.4471e+06
1.42476e+06
1.40252e+06
1.38043e+06
1.35852e+06
1.33681e+06
1.31526e+06
1.29387e+06
1.27269e+06
1.2517e+06
1.23091e+06
1.2103e+06
1.1899e+06
1.16966e+06
1.14963e+06
1.12975e+06
1.11009e+06
1.09055e+06
1.07125e+06
1.05204e+06
1.03309e+06
1.01421e+06
995585
977056
958770
940598
922653
904823
887216
869720
852437
835265
818294
801432
784757
768184
751795
735484
719365
703293
687409
671552
655853
640161
624570
608960
593404
577814
562167
546424
530502
514376
497919
481115
463778
445923
427332
408082
388090
2.64478e+06
2.59312e+06
2.54473e+06
2.49948e+06
2.45707e+06
2.41713e+06
2.37931e+06
2.34329e+06
2.30879e+06
2.27557e+06
2.24344e+06
2.21224e+06
2.18183e+06
2.15212e+06
2.123e+06
2.09441e+06
2.06629e+06
2.03858e+06
2.01124e+06
1.98424e+06
1.95754e+06
1.93111e+06
1.90495e+06
1.87905e+06
1.85339e+06
1.82795e+06
1.80274e+06
1.77773e+06
1.75293e+06
1.72832e+06
1.70389e+06
1.67963e+06
1.65555e+06
1.63163e+06
1.6079e+06
1.58436e+06
1.56101e+06
1.53785e+06
1.5149e+06
1.49212e+06
1.46952e+06
1.44701e+06
1.42468e+06
1.40243e+06
1.38036e+06
1.35844e+06
1.33674e+06
1.31518e+06
1.29381e+06
1.27263e+06
1.25165e+06
1.23085e+06
1.21026e+06
1.18985e+06
1.16962e+06
1.14958e+06
1.12971e+06
1.11003e+06
1.09051e+06
1.0712e+06
1.052e+06
1.03304e+06
1.01417e+06
995539
977018
958725
940557
922605
904779
887161
869671
852372
835209
818217
801367
784665
768105
751682
735382
719228
703159
687242
671381
655642
639936
624295
608633
593013
577362
561629
545803
529769
513536
496947
480025
462570
444628
426002
406779
386921
2.64735e+06
2.59589e+06
2.54751e+06
2.50211e+06
2.45946e+06
2.41924e+06
2.38114e+06
2.34484e+06
2.31009e+06
2.27666e+06
2.24435e+06
2.21299e+06
2.18246e+06
2.15263e+06
2.12343e+06
2.09477e+06
2.06658e+06
2.03882e+06
2.01144e+06
1.9844e+06
1.95766e+06
1.93121e+06
1.90502e+06
1.8791e+06
1.85343e+06
1.82797e+06
1.80274e+06
1.77773e+06
1.75291e+06
1.72829e+06
1.70386e+06
1.67959e+06
1.6555e+06
1.63159e+06
1.60786e+06
1.58432e+06
1.56097e+06
1.53779e+06
1.51483e+06
1.49203e+06
1.46943e+06
1.44692e+06
1.42459e+06
1.40234e+06
1.38028e+06
1.35836e+06
1.33667e+06
1.3151e+06
1.29375e+06
1.27256e+06
1.2516e+06
1.2308e+06
1.21021e+06
1.18979e+06
1.16957e+06
1.14953e+06
1.12966e+06
1.10997e+06
1.09047e+06
1.07113e+06
1.05196e+06
1.03298e+06
1.01413e+06
995486
976982
958676
940517
922552
904735
887102
869620
852305
835151
818137
801300
784571
768027
751572
735286
719099
703039
687086
671227
655443
639727
624035
608340
592659
576955
561143
545246
529112
512791
496092
479072
461526
443513
424867
405672
385927
2.6495e+06
2.59821e+06
2.54984e+06
2.50433e+06
2.46149e+06
2.42104e+06
2.3827e+06
2.34618e+06
2.31122e+06
2.27761e+06
2.24514e+06
2.21365e+06
2.183e+06
2.15308e+06
2.1238e+06
2.09507e+06
2.06683e+06
2.03903e+06
2.0116e+06
1.98453e+06
1.95777e+06
1.93129e+06
1.90508e+06
1.87914e+06
1.85345e+06
1.82798e+06
1.80274e+06
1.77771e+06
1.75289e+06
1.72826e+06
1.70382e+06
1.67955e+06
1.65545e+06
1.63154e+06
1.60781e+06
1.58427e+06
1.56091e+06
1.53773e+06
1.51475e+06
1.49195e+06
1.46933e+06
1.44682e+06
1.42449e+06
1.40225e+06
1.3802e+06
1.35828e+06
1.3366e+06
1.31502e+06
1.29369e+06
1.2725e+06
1.25154e+06
1.23074e+06
1.21016e+06
1.18974e+06
1.16953e+06
1.14948e+06
1.12962e+06
1.10992e+06
1.09042e+06
1.07107e+06
1.05192e+06
1.03291e+06
1.01409e+06
995430
976945
958626
940479
922500
904692
887044
869571
852239
835094
818062
801234
784485
767952
751475
735198
718984
702933
686947
671088
655260
639535
623785
608082
592343
576598
560716
544760
528544
512146
495362
478259
460644
442574
423917
404747
385091
2.65127e+06
2.60011e+06
2.55175e+06
2.50615e+06
2.46316e+06
2.42254e+06
2.38401e+06
2.3473e+06
2.31217e+06
2.27841e+06
2.2458e+06
2.2142e+06
2.18346e+06
2.15346e+06
2.12411e+06
2.09533e+06
2.06704e+06
2.0392e+06
2.01174e+06
1.98464e+06
1.95785e+06
1.93135e+06
1.90512e+06
1.87917e+06
1.85346e+06
1.82798e+06
1.80273e+06
1.77769e+06
1.75286e+06
1.72822e+06
1.70377e+06
1.67949e+06
1.65539e+06
1.63148e+06
1.60776e+06
1.58422e+06
1.56085e+06
1.53766e+06
1.51466e+06
1.49186e+06
1.46923e+06
1.44673e+06
1.4244e+06
1.40216e+06
1.38013e+06
1.3582e+06
1.33654e+06
1.31495e+06
1.29363e+06
1.27244e+06
1.2515e+06
1.23069e+06
1.21012e+06
1.18969e+06
1.1695e+06
1.14943e+06
1.12959e+06
1.10988e+06
1.09039e+06
1.07102e+06
1.05188e+06
1.03286e+06
1.01406e+06
995381
976913
958581
940446
922454
904655
886993
869527
852181
835040
817996
801172
784411
767881
751391
735120
718885
702841
686823
670968
655096
639368
623564
607862
592067
576294
560353
544348
528069
511607
494757
477585
459918
441803
423139
403992
384406
2.65266e+06
2.60161e+06
2.55326e+06
2.5076e+06
2.4645e+06
2.42374e+06
2.38505e+06
2.3482e+06
2.31294e+06
2.27905e+06
2.24634e+06
2.21465e+06
2.18383e+06
2.15377e+06
2.12437e+06
2.09554e+06
2.06721e+06
2.03933e+06
2.01185e+06
1.98472e+06
1.95791e+06
1.9314e+06
1.90516e+06
1.87919e+06
1.85347e+06
1.82798e+06
1.80271e+06
1.77767e+06
1.75282e+06
1.72818e+06
1.70372e+06
1.67943e+06
1.65533e+06
1.63142e+06
1.6077e+06
1.58416e+06
1.56079e+06
1.5376e+06
1.51459e+06
1.49177e+06
1.46913e+06
1.44664e+06
1.4243e+06
1.40208e+06
1.38006e+06
1.35814e+06
1.33648e+06
1.31489e+06
1.29359e+06
1.27239e+06
1.25147e+06
1.23065e+06
1.21009e+06
1.18965e+06
1.16947e+06
1.1494e+06
1.12957e+06
1.10985e+06
1.09037e+06
1.07099e+06
1.05186e+06
1.03283e+06
1.01403e+06
995346
976887
958546
940419
922417
904624
886952
869489
852134
834996
817943
801119
784350
767821
751320
735055
718799
702765
686714
670869
654956
639231
623384
607682
591837
576046
560059
544016
527688
511175
494274
477049
459343
441193
422525
403397
383864
2.65369e+06
2.60272e+06
2.55438e+06
2.50868e+06
2.4655e+06
2.42463e+06
2.38584e+06
2.34888e+06
2.31352e+06
2.27954e+06
2.24675e+06
2.21499e+06
2.18411e+06
2.154e+06
2.12456e+06
2.0957e+06
2.06734e+06
2.03944e+06
2.01193e+06
1.98478e+06
1.95796e+06
1.93143e+06
1.90518e+06
1.8792e+06
1.85347e+06
1.82797e+06
1.8027e+06
1.77764e+06
1.75279e+06
1.72813e+06
1.70367e+06
1.67938e+06
1.65528e+06
1.63137e+06
1.60765e+06
1.58411e+06
1.56074e+06
1.53754e+06
1.51453e+06
1.4917e+06
1.46905e+06
1.44657e+06
1.42423e+06
1.40201e+06
1.38e+06
1.35808e+06
1.33643e+06
1.31484e+06
1.29357e+06
1.27234e+06
1.25144e+06
1.23061e+06
1.21006e+06
1.18962e+06
1.16945e+06
1.14938e+06
1.12955e+06
1.10982e+06
1.09035e+06
1.07097e+06
1.05184e+06
1.03281e+06
1.01401e+06
995325
976868
958524
940400
922393
904603
886924
869464
852102
834965
817904
801082
784303
767779
751263
735007
718730
702705
686626
670789
654846
639124
623247
607545
591663
575858
559838
543766
527401
510850
493913
476648
458914
440738
422068
402955
383460
2.65437e+06
2.60345e+06
2.55513e+06
2.5094e+06
2.46617e+06
2.42523e+06
2.38637e+06
2.34934e+06
2.31391e+06
2.27987e+06
2.24703e+06
2.21522e+06
2.18431e+06
2.15416e+06
2.12469e+06
2.0958e+06
2.06743e+06
2.0395e+06
2.01198e+06
1.98482e+06
1.95799e+06
1.93145e+06
1.90519e+06
1.8792e+06
1.85346e+06
1.82796e+06
1.80268e+06
1.77762e+06
1.75276e+06
1.7281e+06
1.70363e+06
1.67934e+06
1.65524e+06
1.63133e+06
1.60761e+06
1.58408e+06
1.56071e+06
1.53751e+06
1.51449e+06
1.49165e+06
1.469e+06
1.44651e+06
1.42416e+06
1.40196e+06
1.37995e+06
1.35804e+06
1.3364e+06
1.31481e+06
1.29355e+06
1.27232e+06
1.25143e+06
1.23059e+06
1.21005e+06
1.18961e+06
1.16944e+06
1.14936e+06
1.12954e+06
1.10981e+06
1.09034e+06
1.07096e+06
1.05183e+06
1.03279e+06
1.014e+06
995314
976857
958513
940389
922381
904591
886910
869451
852084
834949
817881
801061
784274
767752
751227
734973
718685
702662
686568
670731
654772
639051
623156
607450
591549
575732
559692
543599
527210
510634
493672
476380
458629
440435
421766
402664
383193
2.6547e+06
2.60381e+06
2.5555e+06
2.50976e+06
2.4665e+06
2.42553e+06
2.38663e+06
2.34957e+06
2.3141e+06
2.28003e+06
2.24717e+06
2.21534e+06
2.1844e+06
2.15424e+06
2.12476e+06
2.09586e+06
2.06747e+06
2.03954e+06
2.01201e+06
1.98484e+06
1.958e+06
1.93146e+06
1.9052e+06
1.8792e+06
1.85346e+06
1.82795e+06
1.80267e+06
1.77761e+06
1.75275e+06
1.72809e+06
1.70361e+06
1.67932e+06
1.65522e+06
1.63132e+06
1.6076e+06
1.58406e+06
1.56069e+06
1.53749e+06
1.51447e+06
1.49164e+06
1.46897e+06
1.44648e+06
1.42413e+06
1.40193e+06
1.37993e+06
1.35802e+06
1.33638e+06
1.3148e+06
1.29353e+06
1.27231e+06
1.25141e+06
1.23057e+06
1.21004e+06
1.1896e+06
1.16943e+06
1.14936e+06
1.12953e+06
1.10981e+06
1.09033e+06
1.07095e+06
1.05182e+06
1.03279e+06
1.014e+06
995310
976853
958509
940385
922377
904587
886904
869446
852076
834942
817871
801053
784262
767741
751212
734959
718665
702642
686541
670703
654736
639015
623112
607405
591494
575673
559620
543518
527116
510527
493553
476247
458487
440286
421616
402519
383065
2.34873e+06
2.34524e+06
2.33841e+06
2.32848e+06
2.31575e+06
2.30058e+06
2.28331e+06
2.26429e+06
2.24384e+06
2.2222e+06
2.19961e+06
2.17625e+06
2.15229e+06
2.12786e+06
2.10309e+06
2.07805e+06
2.05283e+06
2.02751e+06
2.00214e+06
1.97675e+06
1.95138e+06
1.92603e+06
1.90074e+06
1.87552e+06
1.85041e+06
1.8254e+06
1.80054e+06
1.77581e+06
1.75123e+06
1.72678e+06
1.70247e+06
1.67829e+06
1.65424e+06
1.63034e+06
1.60657e+06
1.583e+06
1.5596e+06
1.53642e+06
1.51345e+06
1.49068e+06
1.46807e+06
1.44564e+06
1.42338e+06
1.40131e+06
1.37939e+06
1.35766e+06
1.33608e+06
1.31468e+06
1.29344e+06
1.27239e+06
1.25149e+06
1.23077e+06
1.21022e+06
1.18985e+06
1.16964e+06
1.14961e+06
1.12975e+06
1.11007e+06
1.09057e+06
1.07124e+06
1.05208e+06
1.0331e+06
1.01429e+06
995650
977180
958888
940765
922826
905067
887503
870131
852951
835964
819170
802571
786173
769980
753998
738234
722698
707399
692352
677572
663077
648889
635034
621543
608455
595814
583673
572096
561160
550954
541582
533164
525830
519725
514984
511717
510041
2.34935e+06
2.34583e+06
2.33896e+06
2.32898e+06
2.31619e+06
2.30096e+06
2.28364e+06
2.26457e+06
2.24407e+06
2.2224e+06
2.19978e+06
2.17639e+06
2.1524e+06
2.12796e+06
2.10317e+06
2.07812e+06
2.05289e+06
2.02756e+06
2.00219e+06
1.9768e+06
1.95142e+06
1.92607e+06
1.90077e+06
1.87556e+06
1.85044e+06
1.82543e+06
1.80056e+06
1.77584e+06
1.75126e+06
1.72681e+06
1.7025e+06
1.67832e+06
1.65427e+06
1.63036e+06
1.60659e+06
1.58302e+06
1.55961e+06
1.53643e+06
1.51346e+06
1.49068e+06
1.46808e+06
1.44565e+06
1.42339e+06
1.40131e+06
1.3794e+06
1.35766e+06
1.33609e+06
1.31469e+06
1.29344e+06
1.27239e+06
1.25149e+06
1.23078e+06
1.21022e+06
1.18985e+06
1.16964e+06
1.14961e+06
1.12976e+06
1.11008e+06
1.09057e+06
1.07124e+06
1.05209e+06
1.03311e+06
1.01429e+06
995655
977184
958892
940767
922827
905067
887502
870129
852949
835960
819166
802566
786167
769973
753989
738224
722685
707384
692334
677550
663051
648857
634996
621499
608401
595750
583596
572005
561051
550825
541430
532987
525627
519498
514734
511449
509763
2.35058e+06
2.34703e+06
2.34008e+06
2.32999e+06
2.31708e+06
2.30173e+06
2.28429e+06
2.26512e+06
2.24454e+06
2.2228e+06
2.20012e+06
2.17667e+06
2.15264e+06
2.12816e+06
2.10335e+06
2.07828e+06
2.05303e+06
2.02768e+06
2.0023e+06
1.9769e+06
1.95151e+06
1.92615e+06
1.90085e+06
1.87564e+06
1.85052e+06
1.82551e+06
1.80063e+06
1.7759e+06
1.75132e+06
1.72688e+06
1.70256e+06
1.67839e+06
1.65433e+06
1.63041e+06
1.60664e+06
1.58305e+06
1.55965e+06
1.53645e+06
1.51348e+06
1.4907e+06
1.4681e+06
1.44567e+06
1.42341e+06
1.40133e+06
1.37942e+06
1.35768e+06
1.3361e+06
1.3147e+06
1.29346e+06
1.2724e+06
1.2515e+06
1.23078e+06
1.21023e+06
1.18986e+06
1.16965e+06
1.14962e+06
1.12977e+06
1.11009e+06
1.09058e+06
1.07125e+06
1.0521e+06
1.03312e+06
1.0143e+06
995666
977195
958900
940773
922830
905068
887500
870125
852944
835954
819158
802557
786156
769959
753972
738203
722660
707354
692298
677507
662999
648795
634922
621409
608295
595622
583443
571823
560835
550568
541127
532632
525219
519040
514231
510910
509202
2.35245e+06
2.34883e+06
2.34175e+06
2.3315e+06
2.3184e+06
2.30287e+06
2.28526e+06
2.26595e+06
2.24524e+06
2.2234e+06
2.20062e+06
2.17709e+06
2.153e+06
2.12847e+06
2.10362e+06
2.07851e+06
2.05323e+06
2.02787e+06
2.00247e+06
1.97706e+06
1.95165e+06
1.92628e+06
1.90097e+06
1.87576e+06
1.85063e+06
1.82561e+06
1.80072e+06
1.77599e+06
1.75141e+06
1.72696e+06
1.70264e+06
1.67847e+06
1.6544e+06
1.63047e+06
1.60669e+06
1.58309e+06
1.55969e+06
1.53649e+06
1.51351e+06
1.49073e+06
1.46812e+06
1.44569e+06
1.42343e+06
1.40135e+06
1.37944e+06
1.3577e+06
1.33612e+06
1.31472e+06
1.29348e+06
1.27242e+06
1.25151e+06
1.2308e+06
1.21024e+06
1.18987e+06
1.16967e+06
1.14964e+06
1.12978e+06
1.1101e+06
1.0906e+06
1.07127e+06
1.05212e+06
1.03314e+06
1.01432e+06
995684
977212
958915
940785
922836
905071
887499
870121
852937
835945
819147
802543
786139
769938
753947
738173
722624
707310
692245
677443
662922
648703
634811
621277
608136
595431
583215
571550
560511
550183
540673
532101
524607
518351
513471
510093
508353
2.35496e+06
2.35124e+06
2.34398e+06
2.3335e+06
2.32016e+06
2.30438e+06
2.28655e+06
2.26704e+06
2.24617e+06
2.22418e+06
2.20129e+06
2.17766e+06
2.15348e+06
2.12889e+06
2.10397e+06
2.07881e+06
2.0535e+06
2.0281e+06
2.00268e+06
1.97725e+06
1.95183e+06
1.92644e+06
1.90112e+06
1.87589e+06
1.85076e+06
1.82573e+06
1.80083e+06
1.77609e+06
1.7515e+06
1.72706e+06
1.70272e+06
1.67855e+06
1.65448e+06
1.63054e+06
1.60675e+06
1.58314e+06
1.55974e+06
1.53653e+06
1.51355e+06
1.49076e+06
1.46816e+06
1.44572e+06
1.42346e+06
1.40139e+06
1.37947e+06
1.35774e+06
1.33616e+06
1.31475e+06
1.2935e+06
1.27244e+06
1.25154e+06
1.23082e+06
1.21026e+06
1.18989e+06
1.16969e+06
1.14966e+06
1.12981e+06
1.11013e+06
1.09062e+06
1.0713e+06
1.05214e+06
1.03316e+06
1.01435e+06
995710
977235
958934
940801
922846
905076
887498
870116
852929
835934
819133
802525
786117
769912
753915
738134
722576
707253
692175
677359
662821
648581
634665
621101
607925
595179
582914
571190
560081
549674
540070
531395
523792
517429
512450
508994
507209
2.35813e+06
2.35428e+06
2.34679e+06
2.33601e+06
2.32234e+06
2.30626e+06
2.28815e+06
2.2684e+06
2.24733e+06
2.22516e+06
2.20212e+06
2.17837e+06
2.15408e+06
2.1294e+06
2.1044e+06
2.07918e+06
2.05382e+06
2.02839e+06
2.00293e+06
1.97747e+06
1.95203e+06
1.92662e+06
1.90128e+06
1.87605e+06
1.85091e+06
1.82586e+06
1.80095e+06
1.77619e+06
1.75159e+06
1.72715e+06
1.70281e+06
1.67864e+06
1.65456e+06
1.63061e+06
1.60681e+06
1.5832e+06
1.5598e+06
1.53659e+06
1.5136e+06
1.49081e+06
1.4682e+06
1.44576e+06
1.4235e+06
1.40143e+06
1.37951e+06
1.35778e+06
1.33619e+06
1.31479e+06
1.29353e+06
1.27247e+06
1.25156e+06
1.23085e+06
1.21029e+06
1.18992e+06
1.16972e+06
1.14969e+06
1.12984e+06
1.11016e+06
1.09065e+06
1.07133e+06
1.05217e+06
1.0332e+06
1.01438e+06
995742
977265
958958
940821
922858
905083
887497
870112
852920
835921
819116
802504
786091
769879
753876
738085
722517
707182
692090
677255
662696
648431
634485
620885
607665
594867
582540
570744
559549
549041
539322
530517
522774
516270
511162
507602
505759
2.36199e+06
2.35796e+06
2.35017e+06
2.33902e+06
2.32495e+06
2.3085e+06
2.29005e+06
2.27002e+06
2.2487e+06
2.22633e+06
2.20312e+06
2.17921e+06
2.15479e+06
2.13e+06
2.10491e+06
2.07961e+06
2.05419e+06
2.02871e+06
2.00321e+06
1.97772e+06
1.95224e+06
1.92681e+06
1.90145e+06
1.8762e+06
1.85106e+06
1.826e+06
1.80107e+06
1.7763e+06
1.75169e+06
1.72725e+06
1.7029e+06
1.67872e+06
1.65464e+06
1.63068e+06
1.60688e+06
1.58327e+06
1.55987e+06
1.53665e+06
1.51366e+06
1.49086e+06
1.46825e+06
1.44581e+06
1.42355e+06
1.40147e+06
1.37956e+06
1.35782e+06
1.33624e+06