/*--------------------------------*- C++ -*----------------------------------*\
| =========                 |                                                 |
| \\      /  F ield         | OpenFOAM: The Open Source CFD Toolbox           |
|  \\    /   O peration     | Version:  2.4.0                                 |
|   \\  /    A nd           | Web:      www.OpenFOAM.org                      |
|    \\/     M anipulation  |                                                 |
\*---------------------------------------------------------------------------*/
FoamFile
{
    version     2.0;
    format      ascii;
    class       volScalarField;
    location    "0.037";
    object      k;
}
// * * * * * * * * * * * * * * * * * * * * * * * * * * * * * * * * * * * * * //

dimensions      [0 2 -2 0 0 0 0];

internalField   nonuniform List<scalar> 
17600
(
0.590242
0.786977
0.938818
1.04137
1.10104
1.12787
1.13171
1.12067
1.10079
1.07629
1.04999
1.02371
0.998592
0.975304
0.954218
0.935491
0.919134
0.905055
0.892897
0.884659
0.380328
0.378528
0.375866
0.373344
0.371175
0.369843
0.369905
0.371841
0.376008
0.382642
0.391864
0.403677
0.417972
0.434522
0.45299
0.472934
0.493838
0.515153
0.536771
0.556119
0.363748
0.349867
0.334429
0.31855
0.303052
0.288614
0.275769
0.264896
0.256243
0.249954
0.246108
0.244733
0.245831
0.249379
0.255328
0.263601
0.27408
0.286619
0.301196
0.3178
0.361465
0.347537
0.333149
0.318509
0.303939
0.289764
0.276271
0.263688
0.25219
0.241899
0.232901
0.225253
0.218992
0.214146
0.210734
0.208774
0.208284
0.20929
0.211882
0.216163
0.361236
0.3478
0.334532
0.321372
0.308383
0.29568
0.283387
0.271619
0.26047
0.250015
0.240308
0.231387
0.223277
0.215995
0.20955
0.203951
0.199205
0.195325
0.192345
0.190261
0.361254
0.348125
0.335506
0.323265
0.31135
0.299767
0.288544
0.277726
0.267352
0.257461
0.248081
0.239234
0.230934
0.223192
0.216011
0.209393
0.203338
0.197846
0.19292
0.188542
0.361278
0.348296
0.336005
0.324272
0.313005
0.302153
0.291692
0.281615
0.271927
0.262636
0.253751
0.245278
0.237223
0.229588
0.222374
0.21558
0.209201
0.203236
0.197679
0.192524
0.361288
0.348366
0.336226
0.324751
0.313844
0.303433
0.293466
0.283908
0.274736
0.265937
0.257502
0.249425
0.241701
0.234327
0.227297
0.220607
0.214251
0.208225
0.202522
0.197146
0.361291
0.348391
0.336314
0.324959
0.314237
0.304073
0.294403
0.285179
0.276362
0.267923
0.259841
0.252098
0.244681
0.237578
0.230781
0.22428
0.218067
0.212134
0.206476
0.2011
0.361291
0.348398
0.336345
0.325042
0.314408
0.304371
0.294868
0.285843
0.277251
0.269055
0.261224
0.253733
0.246561
0.239692
0.233109
0.226802
0.220758
0.214968
0.209423
0.204133
0.36129
0.348399
0.336353
0.325071
0.314476
0.304501
0.295083
0.286169
0.27771
0.269665
0.262
0.254684
0.247691
0.241
0.234592
0.22845
0.222561
0.216913
0.211495
0.206315
0.361289
0.348397
0.336354
0.325079
0.3145
0.304552
0.295176
0.286319
0.277934
0.269977
0.262414
0.25521
0.248337
0.241772
0.235492
0.229479
0.223716
0.218188
0.212883
0.207809
0.361288
0.348395
0.336352
0.325079
0.314506
0.304569
0.295213
0.286384
0.278036
0.270128
0.262623
0.255487
0.24869
0.242208
0.236016
0.230093
0.224423
0.218988
0.213775
0.208789
0.361288
0.348393
0.336349
0.325076
0.314505
0.304573
0.295224
0.286408
0.278079
0.270196
0.262722
0.255625
0.248873
0.242442
0.236306
0.230445
0.224838
0.219469
0.214324
0.209405
0.361287
0.348392
0.336347
0.325073
0.314502
0.304571
0.295226
0.286415
0.278094
0.270223
0.262766
0.255689
0.248963
0.242562
0.23646
0.230637
0.225072
0.219747
0.214649
0.209778
0.361287
0.348391
0.336345
0.32507
0.314499
0.304568
0.295223
0.286415
0.278098
0.270233
0.262783
0.255717
0.249005
0.24262
0.236538
0.230737
0.225198
0.219902
0.214833
0.209995
0.361286
0.34839
0.336343
0.325068
0.314496
0.304565
0.29522
0.286412
0.278097
0.270234
0.262788
0.255727
0.249022
0.242646
0.236575
0.230787
0.225262
0.219983
0.214934
0.210116
0.361286
0.348389
0.336342
0.325066
0.314494
0.304563
0.295218
0.28641
0.278095
0.270233
0.262789
0.25573
0.249028
0.242656
0.236591
0.23081
0.225294
0.220025
0.214986
0.210181
0.361286
0.348389
0.336341
0.325065
0.314493
0.304561
0.295216
0.286408
0.278093
0.270232
0.262788
0.25573
0.24903
0.24266
0.236598
0.23082
0.225308
0.220044
0.215012
0.210213
0.361286
0.348388
0.336341
0.325065
0.314492
0.30456
0.295215
0.286407
0.278092
0.270231
0.262787
0.25573
0.24903
0.242661
0.2366
0.230824
0.225314
0.220052
0.215022
0.210225
0.361286
0.348388
0.336341
0.325065
0.314492
0.30456
0.295215
0.286407
0.278092
0.270231
0.262787
0.25573
0.24903
0.242661
0.2366
0.230824
0.225314
0.220052
0.215022
0.210225
0.361286
0.348389
0.336341
0.325065
0.314493
0.304561
0.295216
0.286408
0.278093
0.270232
0.262788
0.25573
0.24903
0.24266
0.236598
0.23082
0.225308
0.220044
0.215011
0.210211
0.361286
0.348389
0.336342
0.325066
0.314494
0.304563
0.295218
0.28641
0.278095
0.270233
0.262789
0.25573
0.249028
0.242656
0.236591
0.23081
0.225294
0.220024
0.214985
0.210178
0.361286
0.34839
0.336343
0.325068
0.314496
0.304565
0.29522
0.286412
0.278097
0.270234
0.262788
0.255727
0.249022
0.242646
0.236575
0.230787
0.225262
0.219983
0.214933
0.210112
0.361287
0.348391
0.336345
0.32507
0.314499
0.304568
0.295223
0.286415
0.278098
0.270233
0.262783
0.255717
0.249005
0.24262
0.236538
0.230737
0.225197
0.219901
0.214831
0.20999
0.361287
0.348392
0.336347
0.325073
0.314502
0.304571
0.295226
0.286415
0.278094
0.270223
0.262766
0.255689
0.248963
0.242562
0.23646
0.230637
0.225071
0.219747
0.214646
0.209772
0.361288
0.348393
0.336349
0.325076
0.314505
0.304573
0.295224
0.286408
0.278079
0.270196
0.262722
0.255625
0.248873
0.242442
0.236306
0.230445
0.224838
0.219468
0.214321
0.209399
0.361288
0.348395
0.336352
0.325079
0.314506
0.304569
0.295213
0.286384
0.278036
0.270128
0.262623
0.255487
0.24869
0.242208
0.236016
0.230093
0.224423
0.218987
0.213772
0.208782
0.361289
0.348397
0.336354
0.325079
0.3145
0.304552
0.295176
0.286319
0.277934
0.269977
0.262414
0.25521
0.248338
0.241772
0.235492
0.229479
0.223715
0.218187
0.212881
0.207803
0.36129
0.348399
0.336353
0.325071
0.314476
0.304501
0.295083
0.286169
0.27771
0.269665
0.262
0.254684
0.247691
0.241
0.234592
0.22845
0.222561
0.216913
0.211493
0.206311
0.361291
0.348398
0.336345
0.325042
0.314408
0.304371
0.294868
0.285843
0.277251
0.269055
0.261224
0.253733
0.246561
0.239692
0.233109
0.226802
0.220758
0.214968
0.209422
0.204132
0.361291
0.348391
0.336314
0.324959
0.314237
0.304073
0.294403
0.285179
0.276362
0.267923
0.259841
0.252098
0.244681
0.237578
0.230781
0.22428
0.218067
0.212135
0.206475
0.201105
0.361288
0.348366
0.336226
0.324751
0.313844
0.303433
0.293466
0.283908
0.274736
0.265937
0.257502
0.249425
0.241702
0.234327
0.227297
0.220607
0.214251
0.208225
0.20252
0.197157
0.361278
0.348296
0.336005
0.324272
0.313005
0.302153
0.291692
0.281615
0.271927
0.262636
0.253751
0.245278
0.237223
0.229588
0.222375
0.21558
0.209201
0.203235
0.197671
0.192533
0.361254
0.348125
0.335506
0.323265
0.31135
0.299767
0.288544
0.277726
0.267352
0.257461
0.248081
0.239234
0.230935
0.223192
0.216012
0.209393
0.203337
0.197841
0.192893
0.188514
0.361236
0.3478
0.334532
0.321372
0.308383
0.29568
0.283387
0.271619
0.26047
0.250016
0.240309
0.231388
0.223277
0.215995
0.20955
0.203951
0.199202
0.19531
0.192265
0.190066
0.361465
0.347537
0.333149
0.318509
0.303939
0.289764
0.276271
0.263688
0.25219
0.241899
0.232901
0.225253
0.218993
0.214146
0.210734
0.208774
0.208278
0.209254
0.211671
0.215442
0.363748
0.349867
0.334429
0.31855
0.303052
0.288614
0.275769
0.264896
0.256243
0.249954
0.246108
0.244733
0.245831
0.249379
0.255328
0.263599
0.274071
0.286563
0.300802
0.316456
0.380328
0.378528
0.375866
0.373344
0.371175
0.369843
0.369905
0.37184
0.376007
0.382642
0.391864
0.403677
0.417972
0.434523
0.452991
0.472934
0.493835
0.515134
0.536251
0.556925
0.590242
0.786977
0.938818
1.04137
1.10104
1.12787
1.13171
1.12067
1.10079
1.07629
1.04999
1.02371
0.998591
0.975304
0.954217
0.935491
0.91914
0.905079
0.893194
0.882959
1.12135
1.37716
1.62244
1.84706
2.03945
2.1949
2.3166
2.41098
2.48525
2.5458
2.59746
2.64349
2.68591
2.72601
2.76466
2.80249
2.83993
2.87733
2.91498
2.95313
2.99197
3.03163
3.0722
3.11378
3.15643
3.20021
3.2452
3.29147
3.33909
3.38817
3.43882
3.49118
3.54541
3.60169
3.66023
3.72123
3.78489
3.85141
3.92096
3.99366
4.0696
4.14881
4.23123
4.31673
4.4051
4.49604
4.58916
4.684
4.78002
4.87664
4.97324
5.06915
5.16371
5.25627
5.3462
5.43291
5.51586
5.59458
5.66864
5.73769
5.80144
5.85963
5.91206
5.95859
5.99907
6.03343
6.06157
6.08341
6.09883
6.1079
6.11068
6.10717
6.09742
6.08143
6.05923
6.03084
5.99629
5.95565
5.90917
5.85702
5.79936
5.73631
5.66803
5.59466
5.51638
5.43337
5.34582
5.25396
5.158
5.05818
4.95475
4.84796
4.73807
4.62533
4.51003
4.39244
4.27283
4.15149
4.0287
3.90473
3.77987
3.65441
3.52861
3.40277
3.27715
3.15201
3.02763
2.90426
2.78215
2.66153
2.54264
2.42571
2.31093
2.19852
2.08865
1.98151
1.87726
1.77604
1.67798
1.58322
1.49184
1.40395
1.3196
1.23887
1.16178
1.08836
1.01862
0.952557
0.890135
0.831315
0.776043
0.724247
0.675842
0.630732
0.588806
0.549946
0.514023
0.480901
0.450438
0.422488
0.396905
0.373537
0.352238
0.33286
0.315262
0.299305
0.284858
0.271794
0.259995
0.249351
0.239757
0.231119
0.223351
0.216372
0.210112
0.204507
0.1995
0.195042
0.191088
0.187602
0.184552
0.181914
0.179665
0.177792
0.176281
0.175116
0.17431
0.173871
0.173815
0.174165
0.174949
0.176206
0.177984
0.180343
0.183356
0.187114
0.191731
0.197346
0.204132
0.212301
0.222117
0.233906
0.248072
0.265118
0.285666
0.310503
0.340634
0.377375
0.422522
0.478651
0.549702
0.642134
0.7673
0.945938
1.21578
1.63742
2.29306
3.2107
4.42905
2.76104
0.57923
0.623608
0.690902
0.782968
0.898461
1.03343
1.18165
1.33574
1.48832
1.63325
1.76639
1.88578
1.99136
2.08437
2.16676
2.24059
2.30772
2.36964
2.4275
2.48218
2.53439
2.5847
2.63362
2.68162
2.72909
2.77639
2.82384
2.87174
2.92034
2.9699
3.02069
3.07297
3.12702
3.18311
3.24154
3.30259
3.36655
3.43368
3.50422
3.57837
3.65625
3.73797
3.82349
3.91275
4.00553
4.10155
4.20042
4.30165
4.40467
4.50884
4.61346
4.71782
4.82115
4.92273
5.02183
5.11777
5.20993
5.29777
5.3808
5.45861
5.53086
5.59726
5.65761
5.71172
5.75948
5.80079
5.8356
5.86386
5.88544
5.90039
5.90879
5.91065
5.90601
5.89491
5.87737
5.85341
5.82304
5.78648
5.74394
5.69557
5.64152
5.58194
5.51698
5.44679
5.37157
5.29148
5.20674
5.11756
5.02417
4.92681
4.82572
4.72118
4.61344
4.50277
4.38945
4.27375
4.15597
4.03639
3.9153
3.79298
3.66972
3.54582
3.42156
3.29722
3.17309
3.04943
2.92651
2.80461
2.68397
2.56483
2.44745
2.33203
2.21881
2.10798
1.99974
1.89426
1.79172
1.69225
1.59601
1.5031
1.41365
1.32772
1.2454
1.16675
1.09179
1.02056
0.953044
0.889243
0.829122
0.772631
0.719708
0.670273
0.624232
0.581478
0.541892
0.505344
0.471696
0.440803
0.412512
0.386669
0.363119
0.341705
0.322273
0.304673
0.288757
0.274387
0.261427
0.249753
0.239247
0.229799
0.221308
0.213683
0.20684
0.200703
0.195204
0.190284
0.18589
0.181975
0.1785
0.175431
0.172738
0.170399
0.168397
0.166717
0.165345
0.164278
0.163524
0.163091
0.162995
0.163256
0.163901
0.164966
0.166492
0.168537
0.171166
0.174463
0.178533
0.183504
0.189534
0.196825
0.205622
0.216239
0.229065
0.24459
0.263432
0.286381
0.314452
0.348985
0.391813
0.445554
0.514202
0.604286
0.727284
0.904297
1.17405
1.6002
2.26879
3.2283
4.427
3.14654
0.323274
0.330716
0.341356
0.356839
0.379448
0.411082
0.453633
0.508585
0.576882
0.658599
0.752737
0.857227
0.969143
1.08507
1.20157
1.31561
1.42486
1.52787
1.62399
1.7133
1.7963
1.87379
1.9466
2.01558
2.08147
2.14491
2.20648
2.26669
2.32606
2.38504
2.4441
2.50372
2.56433
2.62637
2.69029
2.7565
2.8254
2.89737
2.97276
3.05186
3.13494
3.22216
3.3136
3.40927
3.50904
3.61265
3.71976
3.82989
3.94245
4.05676
4.17207
4.28759
4.40247
4.51588
4.62698
4.735
4.83921
4.93896
5.03368
5.12289
5.20618
5.28323
5.35381
5.41771
5.47483
5.52506
5.56838
5.60476
5.63415
5.6566
5.67214
5.68082
5.6827
5.6778
5.66616
5.64781
5.62281
5.59144
5.55386
5.51024
5.46073
5.40549
5.34468
5.27848
5.20707
5.13064
5.0494
4.96359
4.87342
4.77915
4.68104
4.57934
4.47432
4.36627
4.25547
4.14221
4.02677
3.90945
3.79054
3.67035
3.54916
3.42728
3.30499
3.18258
3.06035
2.93858
2.81753
2.69748
2.5787
2.46142
2.34591
2.23238
2.12107
2.01217
1.9059
1.80243
1.70193
1.60456
1.51045
1.41974
1.33252
1.24889
1.16892
1.09266
1.02014
0.951395
0.886411
0.825172
0.767638
0.713755
0.663448
0.616629
0.573193
0.533023
0.495987
0.461944
0.430746
0.402235
0.376251
0.352631
0.33121
0.311826
0.294321
0.278539
0.264332
0.251559
0.240087
0.229792
0.220558
0.21228
0.20486
0.19821
0.192252
0.186915
0.182136
0.17786
0.174038
0.170629
0.167596
0.164908
0.16254
0.160473
0.15869
0.15718
0.155929
0.154944
0.154229
0.153792
0.153649
0.153817
0.154322
0.155197
0.156481
0.158224
0.160488
0.163349
0.166902
0.171264
0.176582
0.183039
0.190866
0.200355
0.211874
0.225896
0.24302
0.264021
0.289911
0.32203
0.362219
0.413109
0.478693
0.565476
0.684869
0.857907
1.12333
1.54568
2.21004
3.17431
4.29166
3.45122
0.21747
0.218968
0.220778
0.223097
0.226264
0.230681
0.236845
0.245498
0.257453
0.27362
0.295018
0.322731
0.357796
0.401067
0.453076
0.513904
0.583107
0.659718
0.742323
0.829216
0.918581
1.0087
1.0981
1.18569
1.27077
1.35304
1.43249
1.50941
1.58421
1.6574
1.72953
1.80114
1.8728
1.94504
2.01838
2.09337
2.1705
2.25027
2.33318
2.41965
2.51006
2.60473
2.70387
2.8076
2.91592
3.02867
3.14559
3.26624
3.39006
3.51638
3.6444
3.77325
3.902
4.0297
4.1554
4.27818
4.39717
4.5116
4.62078
4.72411
4.82112
4.91142
4.99471
5.0708
5.13954
5.20086
5.25473
5.30114
5.34019
5.3719
5.3963
5.41343
5.42335
5.42611
5.42177
5.41033
5.39201
5.367
5.33549
5.29765
5.25365
5.20368
5.14791
5.08652
5.01972
4.94771
4.87071
4.78895
4.70268
4.61215
4.51763
4.41939
4.3177
4.21285
4.10514
3.99485
3.88229
3.76776
3.65156
3.534
3.41539
3.29601
3.17619
3.0562
2.93636
2.81694
2.69823
2.58051
2.46404
2.34909
2.2359
2.12472
2.01577
1.90926
1.80541
1.70439
1.60639
1.51155
1.42003
1.33195
1.24741
1.1665
1.0893
1.01586
0.946202
0.880347
0.818285
0.759988
0.70541
0.654484
0.607125
0.563234
0.522694
0.485373
0.451128
0.419807
0.391248
0.365284
0.341745
0.320459
0.301256
0.283968
0.268433
0.254496
0.242006
0.230826
0.220823
0.211879
0.203882
0.196731
0.190336
0.184614
0.179493
0.174908
0.170801
0.167123
0.16383
0.160884
0.158254
0.155913
0.153839
0.152013
0.150423
0.14906
0.147913
0.146991
0.146299
0.145845
0.145643
0.145712
0.146074
0.146759
0.147804
0.149255
0.151169
0.153614
0.156677
0.160465
0.16511
0.170781
0.177689
0.186104
0.196371
0.208932
0.224361
0.243406
0.267051
0.296617
0.333923
0.381572
0.443504
0.526106
0.640526
0.80731
1.06427
1.4749
2.12048
3.06062
4.10174
3.6416
0.189674
0.189155
0.188708
0.188354
0.188135
0.188103
0.188323
0.188891
0.189931
0.19162
0.194176
0.197865
0.203016
0.210027
0.219375
0.231608
0.247332
0.267182
0.291781
0.321675
0.357278
0.398807
0.446246
0.499335
0.557588
0.620344
0.686843
0.756302
0.827999
0.901338
0.97589
1.05142
1.12787
1.20537
1.28419
1.36469
1.44732
1.53257
1.62095
1.71295
1.80902
1.90958
2.01497
2.12541
2.24104
2.36186
2.48769
2.61822
2.75295
2.89122
3.03222
3.17504
3.31865
3.46197
3.6039
3.74335
3.87926
4.01069
4.13675
4.25673
4.37
4.4761
4.57464
4.66538
4.74817
4.8229
4.88955
4.94819
4.99904
5.04206
5.07726
5.10469
5.12441
5.13651
5.14106
5.13813
5.12791
5.1106
5.08641
5.05554
5.01819
4.97454
4.9248
4.86918
4.80789
4.74116
4.66922
4.59232
4.51071
4.42465
4.33443
4.24033
4.14263
4.04163
3.93763
3.83094
3.72187
3.61072
3.49781
3.38346
3.26797
3.15166
3.03484
2.91782
2.80089
2.68436
2.56851
2.45363
2.34
2.22788
2.11753
2.00919
1.90311
1.79949
1.69855
1.60048
1.50546
1.41365
1.3252
1.24022
1.15883
1.08112
1.00715
0.936966
0.870603
0.808063
0.749329
0.694364
0.643109
0.595488
0.551402
0.510737
0.473362
0.439133
0.407894
0.379477
0.353711
0.330418
0.30942
0.290538
0.273597
0.258427
0.244865
0.232756
0.221954
0.212324
0.203741
0.19609
0.189268
0.183182
0.177747
0.17289
0.168544
0.164651
0.161161
0.15803
0.155218
0.152693
0.150427
0.148396
0.146582
0.144969
0.143545
0.142304
0.141239
0.140362
0.139676
0.139191
0.13892
0.13888
0.139092
0.139585
0.140392
0.141557
0.14313
0.145175
0.147771
0.151014
0.155026
0.159958
0.166002
0.173406
0.182486
0.193653
0.207445
0.224568
0.245968
0.272919
0.307189
0.351316
0.40913
0.486807
0.595062
0.753574
0.99844
1.39047
2.00595
2.90093
3.87793
3.72385
0.187258
0.186028
0.184843
0.183707
0.182625
0.181601
0.180644
0.179767
0.178986
0.178327
0.17783
0.177539
0.177509
0.177813
0.178538
0.179793
0.181714
0.184464
0.188241
0.193279
0.199853
0.208275
0.218898
0.232101
0.248282
0.26784
0.291152
0.318555
0.35033
0.386684
0.427756
0.473616
0.524282
0.579743
0.639977
0.704982
0.77479
0.849489
0.929226
1.01421
1.1047
1.201
1.30339
1.41216
1.52749
1.64948
1.77805
1.91298
2.05383
2.19998
2.35062
2.50479
2.66135
2.81908
2.97668
3.13281
3.28619
3.43558
3.57987
3.71812
3.84953
3.97346
4.0894
4.19704
4.29615
4.38652
4.46835
4.54176
4.60675
4.66329
4.7114
4.75115
4.78261
4.80588
4.82109
4.82838
4.82786
4.81976
4.80431
4.78174
4.75228
4.71615
4.67357
4.62478
4.57003
4.50954
4.44359
4.37242
4.29632
4.21557
4.13044
4.04124
3.94828
3.85185
3.75227
3.64986
3.54494
3.43783
3.32886
3.21834
3.10661
2.99397
2.88076
2.76729
2.65387
2.5408
2.42839
2.31692
2.20669
2.09797
1.99101
1.88607
1.7834
1.68322
1.58573
1.49115
1.39965
1.31139
1.22651
1.14516
1.06742
0.993388
0.923127
0.856677
0.794057
0.735263
0.680268
0.629023
0.581455
0.537474
0.496966
0.459801
0.425834
0.394905
0.366844
0.341472
0.318606
0.298061
0.27965
0.263191
0.248508
0.235432
0.2238
0.213463
0.204282
0.196128
0.188884
0.182445
0.176717
0.171615
0.167064
0.162999
0.159361
0.1561
0.15317
0.150534
0.148158
0.146013
0.144074
0.142322
0.140739
0.139312
0.138031
0.136891
0.135888
0.135037
0.134341
0.133811
0.133457
0.133296
0.13335
0.133643
0.134209
0.135086
0.136323
0.137978
0.140122
0.142844
0.146253
0.150487
0.15572
0.162175
0.17014
0.179992
0.192226
0.207501
0.226704
0.251048
0.28222
0.322655
0.376021
0.448202
0.549331
0.697905
0.927698
1.29562
1.87242
2.70811
3.62636
3.70566
0.190994
0.189514
0.18807
0.186662
0.18529
0.183956
0.182659
0.1814
0.180183
0.179011
0.177891
0.176831
0.175843
0.174939
0.174138
0.173462
0.172937
0.172597
0.172481
0.172637
0.173123
0.174007
0.175373
0.177319
0.179963
0.183447
0.187937
0.193631
0.20076
0.209597
0.220455
0.233695
0.249731
0.269028
0.292102
0.319522
0.351906
0.389909
0.434214
0.485514
0.54449
0.611778
0.68794
0.773433
0.868575
0.973524
1.08827
1.21261
1.34614
1.48826
1.63813
1.7947
1.95668
2.12264
2.29096
2.45999
2.62805
2.7935
2.95491
3.11104
3.26083
3.40331
3.53768
3.66366
3.78095
3.88948
3.989
4.07944
4.16077
4.23299
4.29612
4.35022
4.39538
4.43173
4.45943
4.47872
4.48961
4.49234
4.48716
4.47434
4.45414
4.42682
4.39264
4.35186
4.30475
4.25158
4.19263
4.12818
4.05853
3.98397
3.90481
3.82136
3.73395
3.64288
3.5485
3.45113
3.3511
3.24875
3.14441
3.03842
2.93112
2.82283
2.71389
2.60462
2.49535
2.38638
2.27803
2.17061
2.06439
1.95967
1.85671
1.75577
1.65711
1.56095
1.4675
1.37698
1.28956
1.20541
1.12467
1.04748
0.973919
0.904085
0.838031
0.77579
0.71737
0.662755
0.611906
0.564757
0.521222
0.481191
0.444535
0.411108
0.380746
0.353277
0.328516
0.306273
0.286358
0.268577
0.252743
0.238672
0.226191
0.215133
0.205345
0.196686
0.189024
0.182243
0.176237
0.170912
0.166184
0.161979
0.158231
0.154885
0.15189
0.149202
0.146782
0.144598
0.142619
0.140821
0.139182
0.137684
0.136311
0.135051
0.133895
0.132838
0.131882
0.131042
0.130323
0.129732
0.129282
0.128988
0.128871
0.128953
0.129268
0.12985
0.130746
0.132009
0.133706
0.135918
0.138745
0.142312
0.146775
0.152335
0.159254
0.167872
0.178639
0.192161
0.209258
0.23106
0.259154
0.295837
0.344567
0.410867
0.504167
0.641553
0.854032
1.19378
1.72576
2.49374
3.3528
3.59891
0.19554
0.193981
0.192452
0.190951
0.189481
0.188039
0.186625
0.18524
0.183884
0.182557
0.18126
0.179994
0.178762
0.177566
0.176412
0.175303
0.174246
0.173249
0.172322
0.171476
0.170725
0.170085
0.169577
0.169222
0.169048
0.169088
0.169381
0.169971
0.170918
0.172288
0.174168
0.176664
0.179909
0.184069
0.189356
0.19604
0.204462
0.215055
0.228367
0.245085
0.266054
0.292297
0.325013
0.365557
0.415384
0.475947
0.548569
0.634283
0.733689
0.84686
0.973313
1.11207
1.26173
1.42053
1.58646
1.75735
1.93099
2.10499
2.2776
2.44725
2.61248
2.77201
2.92489
3.07002
3.20669
3.33444
3.45291
3.56188
3.66121
3.75083
3.83073
3.90096
3.9616
4.01278
4.0547
4.0876
4.11166
4.12686
4.13352
4.13195
4.12245
4.1053
4.08082
4.04929
4.01102
3.9663
3.91545
3.85877
3.79657
3.72919
3.65694
3.58016
3.49917
3.41434
3.32598
3.23446
3.14012
3.04331
2.94438
2.84367
2.74154
2.63832
2.53437
2.43001
2.32558
2.2214
2.1178
2.01508
1.91355
1.81349
1.71518
1.61889
1.52487
1.43336
1.34458
1.25873
1.176
1.09655
1.02053
0.948056
0.879229
0.814122
0.752781
0.69523
0.641464
0.591451
0.545135
0.502434
0.463241
0.427429
0.394851
0.365341
0.338722
0.314807
0.293399
0.274302
0.257318
0.242254
0.228923
0.217146
0.206756
0.197598
0.189528
0.182418
0.176151
0.170622
0.165739
0.161422
0.157597
0.154203
0.151184
0.148491
0.146083
0.143921
0.141973
0.140209
0.138603
0.137133
0.135779
0.134522
0.133349
0.132248
0.131209
0.130228
0.129309
0.128471
0.127718
0.127056
0.126497
0.126056
0.125751
0.125607
0.125652
0.125923
0.126461
0.12732
0.128561
0.130259
0.132507
0.135419
0.139137
0.143843
0.149771
0.157226
0.166617
0.178489
0.193592
0.212962
0.238065
0.271033
0.315077
0.3753
0.460346
0.585729
0.77942
1.08836
1.57161
2.26764
3.06423
3.42072
0.199488
0.19792
0.196377
0.194859
0.193365
0.191896
0.19045
0.189029
0.187631
0.186256
0.184905
0.183577
0.182272
0.180992
0.179737
0.178509
0.177309
0.176139
0.175001
0.1739
0.172838
0.17182
0.170852
0.169939
0.16909
0.168313
0.167618
0.167018
0.166528
0.166165
0.165951
0.165911
0.166079
0.166496
0.167215
0.168302
0.169846
0.171963
0.174807
0.178587
0.183581
0.190169
0.198866
0.210366
0.225596
0.245775
0.272449
0.307499
0.35307
0.411395
0.484513
0.573914
0.680168
0.802522
0.939238
1.08838
1.24758
1.41448
1.58625
1.76009
1.93353
2.10445
2.27107
2.43181
2.58542
2.73092
2.86761
2.99494
3.11255
3.22021
3.31778
3.40522
3.48255
3.54986
3.60733
3.65522
3.69385
3.72302
3.74301
3.75412
3.75671
3.75109
3.73761
3.71659
3.68837
3.65328
3.61165
3.56383
3.51015
3.45096
3.38661
3.31745
3.24385
3.16615
3.08472
2.99992
2.91212
2.82169
2.72897
2.63435
2.53818
2.44081
2.34261
2.24392
2.14508
2.04643
1.9483
1.85101
1.75487
1.66017
1.56721
1.47625
1.38756
1.30137
1.2179
1.13738
1.05997
0.985843
0.915139
0.847972
0.784433
0.724584
0.66846
0.616068
0.567388
0.522369
0.480935
0.442983
0.408386
0.376997
0.348649
0.323162
0.300342
0.279992
0.26191
0.245893
0.231746
0.219279
0.208313
0.19868
0.190225
0.182808
0.176301
0.170592
0.165579
0.161175
0.157301
0.153889
0.15088
0.148222
0.145869
0.143781
0.14192
0.140256
0.138759
0.137403
0.136163
0.135019
0.133951
0.132942
0.131976
0.131039
0.130123
0.129219
0.12834
0.127504
0.126714
0.125975
0.125298
0.124696
0.124187
0.123794
0.123546
0.123477
0.123629
0.124053
0.124809
0.125969
0.127619
0.129866
0.13284
0.136707
0.141676
0.148022
0.156111
0.166432
0.179658
0.196729
0.218977
0.248347
0.287775
0.341906
0.41854
0.531538
0.705707
0.982548
1.41514
2.03795
2.76815
3.1898
0.202543
0.200995
0.199469
0.197965
0.196482
0.19502
0.193579
0.192159
0.190759
0.18938
0.188021
0.186681
0.185361
0.184061
0.182782
0.181522
0.180283
0.179066
0.17787
0.176697
0.175548
0.174424
0.173327
0.172258
0.171219
0.170214
0.169245
0.168315
0.16743
0.166594
0.165813
0.165095
0.164449
0.163886
0.163421
0.163071
0.162859
0.162817
0.162983
0.16341
0.164168
0.165355
0.167102
0.169596
0.173096
0.177971
0.184747
0.194167
0.207277
0.225515
0.250784
0.285449
0.332074
0.393441
0.472081
0.56896
0.683784
0.815022
0.960068
1.1157
1.27853
1.44536
1.61325
1.77966
1.9424
2.0997
2.25013
2.39259
2.52625
2.65049
2.76491
2.86922
2.96328
3.04708
3.12068
3.18425
3.23809
3.28239
3.31686
3.34186
3.35773
3.36484
3.36354
3.35421
3.33719
3.31285
3.28156
3.24367
3.19957
3.14961
3.09417
3.03362
2.96835
2.89874
2.82515
2.74799
2.66762
2.58443
2.4988
2.4111
2.32172
2.23103
2.13939
2.04716
1.9547
1.86235
1.77047
1.67937
1.58937
1.50078
1.4139
1.329
1.24634
1.16617
1.08872
1.01418
0.942751
0.87458
0.809802
0.748524
0.690823
0.636749
0.586319
0.539521
0.496313
0.456624
0.420353
0.387375
0.357543
0.330688
0.306627
0.285165
0.266101
0.24923
0.23435
0.221262
0.209779
0.199722
0.190926
0.183241
0.17653
0.170671
0.165558
0.161095
0.157199
0.153798
0.150829
0.148237
0.145975
0.143999
0.142272
0.14076
0.139431
0.138259
0.137216
0.136277
0.135421
0.134624
0.133868
0.133131
0.132398
0.131653
0.130882
0.130077
0.129254
0.128434
0.127616
0.126804
0.126007
0.125235
0.124506
0.12384
0.123267
0.12282
0.122542
0.122483
0.122703
0.123272
0.124276
0.125816
0.128013
0.131021
0.13503
0.140289
0.147121
0.155966
0.167423
0.182329
0.201881
0.227827
0.262806
0.310984
0.379294
0.479923
0.634518
0.879162
1.26094
1.81131
2.47203
2.92381
0.204756
0.203239
0.20174
0.200261
0.198802
0.197361
0.19594
0.194538
0.193153
0.191788
0.19044
0.189109
0.187797
0.186502
0.185225
0.183965
0.182723
0.181499
0.180293
0.179105
0.177935
0.176783
0.175651
0.174538
0.173445
0.172373
0.171322
0.170294
0.169289
0.16831
0.167358
0.166434
0.165543
0.164686
0.163868
0.163094
0.162372
0.161709
0.161116
0.160609
0.160207
0.159937
0.159833
0.159945
0.160341
0.161115
0.162403
0.164399
0.167386
0.171776
0.178177
0.187478
0.201049
0.220859
0.249287
0.2891
0.343136
0.413786
0.502389
0.608822
0.731467
0.867556
1.01369
1.16632
1.3221
1.47808
1.63173
1.78097
1.92415
2.05996
2.18741
2.30579
2.41459
2.5135
2.60237
2.68118
2.75008
2.80942
2.85887
2.89837
2.92829
2.94896
2.96075
2.96403
2.95917
2.94657
2.92659
2.89963
2.86607
2.82632
2.78075
2.72978
2.67379
2.61319
2.54838
2.47975
2.40771
2.33266
2.25498
2.17509
2.09336
2.01018
1.92594
1.841
1.75574
1.67051
1.58567
1.50155
1.41848
1.33678
1.25674
1.17864
1.10276
1.02933
0.95859
0.89073
0.825932
0.764345
0.706091
0.651262
0.59992
0.552093
0.507777
0.466937
0.429506
0.395388
0.364458
0.336567
0.311548
0.289216
0.269375
0.251822
0.236355
0.22277
0.210873
0.20048
0.191418
0.183528
0.176667
0.170706
0.165532
0.161045
0.157159
0.153797
0.150896
0.148398
0.146255
0.144423
0.142864
0.141543
0.14043
0.139495
0.138712
0.138054
0.137495
0.137013
0.136584
0.136183
0.135788
0.135378
0.134931
0.134428
0.133851
0.133187
0.132462
0.131693
0.130877
0.130015
0.12911
0.12817
0.12721
0.12625
0.125317
0.124444
0.123675
0.123062
0.122667
0.122563
0.122834
0.123582
0.124926
0.127009
0.13001
0.134154
0.139733
0.147137
0.156898
0.169755
0.186769
0.209488
0.240252
0.282737
0.343015
0.431638
0.567189
0.780539
1.11283
1.59312
2.18278
2.63835
0.206282
0.204794
0.203324
0.201872
0.200439
0.199024
0.197626
0.196246
0.194883
0.193537
0.192207
0.190894
0.189598
0.188318
0.187054
0.185806
0.184574
0.183358
0.182158
0.180973
0.179805
0.178652
0.177516
0.176395
0.17529
0.174202
0.173129
0.172073
0.171034
0.170012
0.169006
0.168019
0.16705
0.1661
0.16517
0.164262
0.163378
0.162519
0.16169
0.160894
0.160137
0.159428
0.158775
0.158194
0.157703
0.15733
0.15711
0.157098
0.157367
0.158027
0.159236
0.161237
0.16445
0.169491
0.177224
0.188885
0.206166
0.231257
0.266742
0.315291
0.37915
0.459567
0.556397
0.66806
0.791868
0.924523
1.06261
1.20295
1.34272
1.47958
1.61162
1.73732
1.85553
1.9654
2.06634
2.15797
2.24015
2.31293
2.37654
2.43018
2.47406
2.50844
2.53364
2.54999
2.55787
2.55765
2.5497
2.53443
2.51222
2.48349
2.44865
2.40809
2.36225
2.31154
2.25636
2.19715
2.13431
2.06826
1.99941
1.92817
1.85494
1.78013
1.70413
1.62733
1.5501
1.47281
1.39583
1.3195
1.24416
1.17013
1.0977
1.02717
0.958805
0.892843
0.829506
0.768989
0.711459
0.657052
0.605873
0.557995
0.513456
0.47226
0.434377
0.399744
0.368266
0.339822
0.314262
0.29142
0.271111
0.253141
0.237311
0.223419
0.211271
0.200678
0.191463
0.183464
0.176533
0.170536
0.165357
0.160894
0.157056
0.153768
0.150964
0.148587
0.146588
0.144924
0.143559
0.142459
0.141594
0.140935
0.140457
0.140133
0.139939
0.139849
0.13984
0.139884
0.139957
0.140032
0.140084
0.140085
0.140011
0.139834
0.139532
0.139084
0.13853
0.13788
0.137128
0.136265
0.135291
0.134209
0.133026
0.131759
0.130434
0.129083
0.127751
0.126493
0.125374
0.124473
0.123879
0.123698
0.124052
0.125084
0.126963
0.129902
0.134166
0.140104
0.148186
0.159065
0.173669
0.193353
0.220161
0.257291
0.309982
0.387231
0.504741
0.688497
0.973872
1.38768
1.90644
2.34663
0.207287
0.205825
0.20438
0.202953
0.201544
0.200152
0.198776
0.197418
0.196076
0.19475
0.19344
0.192145
0.190867
0.189603
0.188355
0.187123
0.185905
0.184702
0.183514
0.18234
0.181181
0.180036
0.178906
0.17779
0.176688
0.1756
0.174526
0.173466
0.17242
0.171387
0.170369
0.169363
0.168371
0.167393
0.166429
0.165479
0.164543
0.163621
0.162716
0.161828
0.160958
0.160109
0.159283
0.158486
0.157722
0.157
0.15633
0.155728
0.155215
0.154821
0.154591
0.154591
0.154944
0.155824
0.157485
0.160301
0.164821
0.17184
0.18248
0.198259
0.221115
0.253298
0.297093
0.354373
0.426117
0.51208
0.610776
0.719755
0.836041
0.956557
1.07843
1.19914
1.3166
1.4291
1.53535
1.63436
1.72545
1.80824
1.88271
1.94852
2.0049
2.05197
2.08993
2.11901
2.1395
2.15173
2.15604
2.1528
2.14239
2.12522
2.10168
2.0722
2.03719
1.99707
1.95228
1.90324
1.85038
1.79412
1.7349
1.67312
1.60922
1.54359
1.47665
1.4088
1.34041
1.27188
1.20357
1.13583
1.069
1.00341
0.939365
0.877142
0.817005
0.759193
0.703916
0.651354
0.601657
0.554943
0.511291
0.470749
0.433326
0.398997
0.367702
0.339348
0.313814
0.290956
0.270608
0.25259
0.236712
0.222782
0.210609
0.200007
0.190801
0.182826
0.175936
0.169996
0.164889
0.160511
0.156773
0.1536
0.150928
0.148699
0.146869
0.145395
0.144244
0.143385
0.142789
0.142432
0.142288
0.142335
0.142549
0.142906
0.143382
0.143951
0.144588
0.145265
0.145953
0.146622
0.147241
0.147778
0.148201
0.148475
0.14857
0.148459
0.148194
0.147779
0.147195
0.146428
0.145464
0.144298
0.142931
0.141371
0.139639
0.137765
0.135793
0.133782
0.131803
0.129941
0.128299
0.126991
0.126148
0.125921
0.126483
0.128038
0.130837
0.135198
0.141541
0.150438
0.162698
0.179496
0.202594
0.234735
0.280373
0.347069
0.447879
0.604323
0.846278
1.19822
1.64793
2.05943
0.207924
0.206482
0.205057
0.203649
0.202259