/*--------------------------------*- C++ -*----------------------------------*\
| =========                 |                                                 |
| \\      /  F ield         | OpenFOAM: The Open Source CFD Toolbox           |
|  \\    /   O peration     | Version:  2.4.0                                 |
|   \\  /    A nd           | Web:      www.OpenFOAM.org                      |
|    \\/     M anipulation  |                                                 |
\*---------------------------------------------------------------------------*/
FoamFile
{
    version     2.0;
    format      ascii;
    class       volScalarField;
    location    "0.033";
    object      k_0;
}
// * * * * * * * * * * * * * * * * * * * * * * * * * * * * * * * * * * * * * //

dimensions      [0 2 -2 0 0 0 0];

internalField   nonuniform List<scalar> 
17600
(
9.29201
7.41565
5.12363
3.9285
3.34714
2.93877
2.70148
2.46823
2.31529
2.20202
2.10977
2.02827
1.95912
1.88591
1.83416
1.76542
1.6747
1.65074
1.51528
1.48318
4.50868
6.20875
5.84457
5.04554
4.42664
3.91545
3.60783
3.30993
3.10027
2.94879
2.81294
2.69886
2.61521
2.5197
2.46318
2.38634
2.26492
2.24855
2.12118
2.10641
1.32579
3.28252
4.00141
3.95917
3.77466
3.4503
3.22878
3.0144
2.83685
2.7085
2.59201
2.48665
2.4217
2.33406
2.28631
2.23801
2.1345
2.11391
2.05458
1.99369
0.208193
1.19323
1.93395
2.31824
2.52133
2.51402
2.47047
2.40143
2.30701
2.23004
2.1651
2.08867
2.05372
1.98898
1.95203
1.92718
1.87351
1.83116
1.82922
1.77789
0.0260648
0.263292
0.650927
0.954165
1.24965
1.43759
1.52683
1.60715
1.62403
1.61673
1.61381
1.59399
1.58819
1.56601
1.54868
1.53422
1.53218
1.49739
1.516
1.48943
0.00274959
0.0435089
0.147585
0.256507
0.415237
0.586585
0.685949
0.814155
0.910541
0.948713
1.01239
1.03596
1.07352
1.0867
1.10033
1.10399
1.13329
1.12634
1.15073
1.14826
0.000284002
0.00628235
0.0243577
0.0478952
0.0839686
0.164347
0.208695
0.278821
0.365381
0.401335
0.472374
0.520242
0.572356
0.614645
0.649782
0.668884
0.716573
0.735664
0.76618
0.795616
5.01776e-05
0.000853149
0.00340234
0.00672269
0.0126656
0.0296133
0.042885
0.0604949
0.0991782
0.115703
0.148069
0.181958
0.211559
0.253299
0.281637
0.307569
0.346747
0.383609
0.405973
0.454555
2.7271e-05
0.000137004
0.000474526
0.000907168
0.00166079
0.0039295
0.00624583
0.00917772
0.0172584
0.0218975
0.029724
0.0425735
0.0510904
0.0702433
0.0816344
0.0978301
0.11567
0.140365
0.154367
0.189404
2.39296e-05
4.662e-05
9.11473e-05
0.000172812
0.000265076
0.000532551
0.000827306
0.00117454
0.00220792
0.00283279
0.00392992
0.0063679
0.00817866
0.0127259
0.0160668
0.0200312
0.0255506
0.034092
0.0392554
0.0526796
2.3067e-05
3.67488e-05
5.69055e-05
6.45068e-05
7.82334e-05
0.000130458
0.000184606
0.000221876
0.000325779
0.000373721
0.000471609
0.000708738
0.000975727
0.00170943
0.00230463
0.00283926
0.00385244
0.00549506
0.00658751
0.00920774
2.24924e-05
3.71991e-05
5.07007e-05
5.15011e-05
5.41599e-05
7.04722e-05
9.32201e-05
0.000104671
0.00011771
0.00011902
0.000124017
0.000138556
0.000170133
0.000271542
0.000351911
0.000412363
0.000543304
0.000718519
0.000848471
0.00114759
2.19667e-05
3.55962e-05
4.45295e-05
4.89113e-05
5.08803e-05
5.75867e-05
7.16906e-05
7.85333e-05
8.3438e-05
8.34665e-05
8.33468e-05
8.39562e-05
8.6817e-05
0.000101961
0.000121434
0.000130503
0.000150784
0.000163689
0.000175099
0.000196026
2.15638e-05
3.13604e-05
4.46431e-05
4.54056e-05
4.59778e-05
5.1221e-05
5.72732e-05
6.42261e-05
6.98629e-05
6.9873e-05
6.88345e-05
6.88822e-05
6.91726e-05
7.16885e-05
8.06502e-05
8.65498e-05
9.24395e-05
9.38178e-05
9.45366e-05
9.49719e-05
2.12763e-05
2.80566e-05
4.16691e-05
4.3407e-05
4.36346e-05
4.60547e-05
4.99263e-05
5.5322e-05
5.87881e-05
5.89846e-05
5.85909e-05
5.83964e-05
5.83763e-05
5.99074e-05
6.57317e-05
6.89945e-05
7.21502e-05
7.2835e-05
7.27226e-05
7.3472e-05
2.09897e-05
2.65973e-05
3.98314e-05
4.07012e-05
4.05026e-05
4.2315e-05
4.51363e-05
4.88913e-05
5.15434e-05
5.17286e-05
5.12661e-05
5.10915e-05
5.11717e-05
5.23429e-05
5.60175e-05
5.81415e-05
6.01238e-05
6.02364e-05
6.02086e-05
6.20354e-05
2.0813e-05
2.56596e-05
3.7002e-05
3.86005e-05
3.85434e-05
3.97032e-05
4.19712e-05
4.48695e-05
4.62069e-05
4.61916e-05
4.58023e-05
4.56936e-05
4.57631e-05
4.69212e-05
4.95773e-05
5.07133e-05
5.17631e-05
5.1899e-05
5.18768e-05
5.30804e-05
2.06783e-05
2.50669e-05
3.6166e-05
3.71637e-05
3.67369e-05
3.76219e-05
3.94485e-05
4.16715e-05
4.26623e-05
4.26193e-05
4.22007e-05
4.21151e-05
4.22664e-05
4.34226e-05
4.489e-05
4.57074e-05
4.64026e-05
4.64176e-05
4.60814e-05
4.62083e-05
2.05988e-05
2.47648e-05
3.47267e-05
3.57554e-05
3.55754e-05
3.66918e-05
3.82487e-05
4.00638e-05
4.0507e-05
4.03095e-05
3.99079e-05
3.98387e-05
4.00036e-05
4.10753e-05
4.21573e-05
4.26675e-05
4.30339e-05
4.29847e-05
4.25646e-05
4.3011e-05
2.05542e-05
2.44837e-05
3.43044e-05
3.54587e-05
3.51123e-05
3.6041e-05
3.75357e-05
3.90607e-05
3.94522e-05
3.92712e-05
3.89136e-05
3.88532e-05
3.90598e-05
4.01235e-05
4.07835e-05
4.12481e-05
4.15451e-05
4.15014e-05
4.10148e-05
4.21297e-05
2.05571e-05
2.44435e-05
3.37774e-05
3.53306e-05
3.51082e-05
3.61461e-05
3.76688e-05
3.91957e-05
3.95934e-05
3.935e-05
3.89713e-05
3.89016e-05
3.90848e-05
4.01505e-05
4.07929e-05
4.13193e-05
4.15636e-05
4.14915e-05
4.0938e-05
4.14524e-05
2.0592e-05
2.45049e-05
3.39512e-05
3.60765e-05
3.57951e-05
3.66472e-05
3.83726e-05
3.99964e-05
4.06265e-05
4.04315e-05
4.00818e-05
4.00104e-05
4.01792e-05
4.1405e-05
4.21609e-05
4.27908e-05
4.31377e-05
4.30741e-05
4.26278e-05
4.32411e-05
2.06707e-05
2.47749e-05
3.43464e-05
3.72279e-05
3.70253e-05
3.78978e-05
3.98957e-05
4.18118e-05
4.2939e-05
4.27771e-05
4.24193e-05
4.23496e-05
4.24756e-05
4.38361e-05
4.50434e-05
4.60256e-05
4.65228e-05
4.64947e-05
4.62557e-05
4.68527e-05
2.07941e-05
2.51298e-05
3.51489e-05
3.92555e-05
3.91326e-05
3.98791e-05
4.22749e-05
4.45536e-05
4.64837e-05
4.64185e-05
4.61137e-05
4.60623e-05
4.61599e-05
4.77656e-05
4.96226e-05
5.11971e-05
5.20535e-05
5.21062e-05
5.19923e-05
5.24425e-05
2.09701e-05
2.57431e-05
3.6452e-05
4.19306e-05
4.19393e-05
4.26737e-05
4.55741e-05
4.84625e-05
5.167e-05
5.17629e-05
5.14795e-05
5.1451e-05
5.15221e-05
5.34008e-05
5.62919e-05
5.88204e-05
6.04138e-05
6.05774e-05
6.05182e-05
6.12133e-05
2.12253e-05
2.66484e-05
3.8376e-05
4.52881e-05
4.549e-05
4.64644e-05
5.03461e-05
5.4034e-05
5.89123e-05
5.92452e-05
5.8932e-05
5.89236e-05
5.89726e-05
6.11569e-05
6.58492e-05
7.00333e-05
7.26523e-05
7.31909e-05
7.33422e-05
7.5554e-05
2.15544e-05
2.86474e-05
4.12731e-05
4.89151e-05
4.93912e-05
5.13632e-05
5.82626e-05
6.29403e-05
6.92458e-05
6.9627e-05
6.91943e-05
6.92759e-05
6.95379e-05
7.35076e-05
8.06199e-05
8.83558e-05
9.2952e-05
9.51685e-05
9.65772e-05
0.000101982
2.19687e-05
3.09921e-05
4.54487e-05
5.23958e-05
5.35527e-05
5.92213e-05
7.32706e-05
7.87787e-05
8.52485e-05
8.4669e-05
8.43282e-05
8.52129e-05
8.81254e-05
0.000105011
0.000116877
0.000140099
0.000152102
0.000174608
0.000190243
0.000230939
2.26638e-05
3.14938e-05
5.37859e-05
5.83442e-05
6.11126e-05
7.65142e-05
0.000103765
0.000111085
0.000126202
0.000124563
0.000128663
0.000146587
0.000180481
0.000286983
0.000341853
0.000473909
0.000571951
0.000806599
0.000984775
0.00148285
2.37303e-05
3.45699e-05
7.04658e-05
8.29418e-05
9.34077e-05
0.000137238
0.000206048
0.000242831
0.000363872
0.000395973
0.000490203
0.000771432
0.00106772
0.00184358
0.00224787
0.00330456
0.00410582
0.00603546
0.00737208
0.0113102
2.40048e-05
4.68513e-05
0.000141632
0.000206215
0.000282333
0.000577789
0.000923607
0.00124785
0.00238481
0.00290516
0.00397664
0.00665945
0.00866285
0.013481
0.0159371
0.0222403
0.0264395
0.0363334
0.0422703
0.0598748
2.72483e-05
0.0001376
0.000546628
0.00104676
0.00171699
0.00413124
0.00687341
0.00947174
0.0177234
0.0220632
0.0292287
0.0442996
0.0525144
0.072093
0.0814001
0.104129
0.116975
0.146522
0.161865
0.204421
4.97649e-05
0.000848351
0.00336993
0.00756326
0.0128754
0.0295908
0.046259
0.0604034
0.0990851
0.116789
0.146617
0.187656
0.209784
0.25871
0.278361
0.323172
0.345182
0.394999
0.417286
0.475268
0.000282817
0.00620719
0.0239519
0.0511989
0.0838825
0.161825
0.21775
0.267985
0.371988
0.405547
0.471257
0.526268
0.567073
0.624824
0.643878
0.68816
0.708748
0.755313
0.77299
0.817829
0.00274516
0.0431078
0.147353
0.260449
0.410471
0.585703
0.69798
0.800042
0.92149
0.950306
1.01316
1.03813
1.07212
1.09256
1.09852
1.11612
1.12547
1.14611
1.15234
1.16704
0.0259552
0.261856
0.649298
0.955236
1.24839
1.43668
1.53705
1.59548
1.63289
1.61424
1.61827
1.59258
1.59003
1.56467
1.5549
1.5358
1.53057
1.51491
1.50735
1.49483
0.20688
1.1913
1.93211
2.31624
2.52475
2.51425
2.47502
2.39354
2.31937
2.21907
2.17766
2.07803
2.0562
1.98116
1.9634
1.90783
1.88769
1.83167
1.81261
1.77888
1.31752
3.28423
4.00138
3.95649
3.78379
3.4434
3.23399
3.01247
2.84314
2.69713
2.61029
2.4641
2.43069
2.31632
2.29629
2.20097
2.16899
2.0715
2.04737
1.98428
4.50078
6.20814
5.84776
5.03813
4.44097
3.90672
3.61037
3.31368
3.09986
2.93989
2.83006
2.67037
2.63073
2.49022
2.47235
2.33851
2.30282
2.16906
2.1446
2.03378
9.28215
7.41002
5.13176
3.92285
3.35614
2.93452
2.70027
2.47306
2.31294
2.1956
2.12014
2.00651
1.97346
1.85583
1.84457
1.72169
1.69969
1.57367
1.55137
1.41186
0.974082
0.739032
0.656697
0.441453
0.323249
0.306351
0.270071
0.182027
0.083634
0.0461644
0.0466329
0.0680415
0.0644282
0.0634189
0.072346
0.0744714
0.0769197
0.0795629
0.0768961
0.0763449
0.0866749
0.103131
0.105223
0.0944695
0.0771182
0.0709383
0.0745156
0.137002
0.222021
0.22668
0.191709
0.0920474
0.0420241
0.0195892
0.00993324
0.00578931
0.00406166
0.00363337
0.00358695
0.00339196
0.00321697
0.00320926
0.00364836
0.0042467
0.00440098
0.00429494
0.00377584
0.00358734
0.00374317
0.00409658
0.00411873
0.00391748
0.00379605
0.00384171
0.00412005
0.00424909
0.00425054
0.00418448
0.00407947
0.00400816
0.00395261
0.00386673
0.00367768
0.00308614
0.00233026
0.00167949
0.00116472
0.00078189
0.000510657
0.000326487
0.000205555
0.000128092
7.93683e-05
4.90974e-05
3.04251e-05
1.89374e-05
1.1861e-05
7.48361e-06
4.75849e-06
3.04899e-06
1.96779e-06
1.27836e-06
8.35333e-07
5.48627e-07
3.6191e-07
2.39637e-07
1.59182e-07
1.06026e-07
7.07829e-08
4.73467e-08
3.17226e-08
2.12843e-08
1.4298e-08
9.61491e-09
6.47162e-09
4.35947e-09
2.93881e-09
1.98246e-09
1.33818e-09
9.03847e-10
6.10865e-10
4.13117e-10
2.79574e-10
1.89341e-10
1.28338e-10
8.70723e-11
5.91425e-11
4.02274e-11
2.74084e-11
1.87146e-11
1.28148e-11
8.8057e-12
6.08108e-12
4.22597e-12
2.96216e-12
2.10096e-12
1.51559e-12
1.11033e-12
8.51537e-13
6.5128e-13
5.62056e-13
4.58698e-13
4.59793e-13
4.53001e-13
5.49113e-13
5.61885e-13
9.63702e-13
9.88641e-13
2.43464e-12
2.60627e-12
7.36783e-12
1.03376e-11
1.91271e-11
5.99471e-11
6.65335e-11
3.28423e-10
2.61763e-10
1.14941e-09
1.13789e-09
2.33108e-09
6.10334e-09
1.24238e-08
4.49947e-08
1.31118e-07
3.93546e-07
1.11002e-06
2.10707e-06
4.92841e-06
5.59207e-06
7.96377e-06
8.48724e-06
9.10736e-06
1.11299e-05
1.37014e-05
1.94764e-05
2.12696e-05
2.69541e-05
2.95602e-05
3.60654e-05
3.83065e-05
4.56383e-05
4.85783e-05
5.74177e-05
6.02654e-05
7.13622e-05
7.51581e-05
9.0157e-05
9.17001e-05
0.000103889
9.9079e-05
0.000103062
9.07258e-05
8.93101e-05
7.77028e-05
7.7218e-05
7.01145e-05
7.43443e-05
7.61354e-05
8.4034e-05
0.000101773
0.000113685
0.000156759
0.000153489
0.000189752
0.000146343
0.000146218
0.00012383
0.000135625
0.000190217
0.000195646
0.000238267
0.000270839
0.000313338
0.000545796
0.000848701
0.00179543
0.00361998
0.00650864
0.0298421
0.583375
1.6134
1.13573
0.951019
0.837433
0.637674
0.561689
0.528642
0.480053
0.324265
0.157207
0.129075
0.120873
0.0844547
0.0698481
0.0732823
0.0768566
0.0790257
0.0754273
0.0698392
0.0693549
0.0859782
0.127961
0.139475
0.119498
0.0926484
0.0911686
0.106422
0.164236
0.17032
0.146766
0.0889954
0.0448931
0.0213888
0.0101119
0.00562963
0.00399125
0.00311465
0.00276325
0.00276328
0.00274127
0.00259583
0.00270342
0.00311316
0.00347198
0.00364938
0.00364712
0.00343292
0.00331152
0.00343328
0.00393052
0.00404133
0.00389144
0.00367249
0.00367236
0.00401373
0.00455591
0.00471452
0.00468615
0.00452215
0.00434059
0.0041893
0.0039789
0.00351502
0.00288863
0.00224038
0.00164936
0.0011611
0.000787887
0.000518996
0.000333781
0.000210885
0.000131673
8.16672e-05
5.05375e-05
3.13165e-05
1.94863e-05
1.21986e-05
7.69123e-06
4.88619e-06
3.12752e-06
2.01604e-06
1.30797e-06
8.53471e-07
5.59717e-07
3.68675e-07
2.43755e-07
1.61683e-07
1.07542e-07
7.16993e-08
4.78996e-08
3.20556e-08
2.14845e-08
1.44182e-08
9.68692e-09
6.51469e-09
4.38518e-09
2.95413e-09
1.99157e-09
1.34358e-09
9.07042e-10
6.12746e-10
4.1422e-10
2.80216e-10
1.89711e-10
1.28548e-10
8.71901e-11
5.92069e-11
4.02613e-11
2.74251e-11
1.87219e-11
1.28172e-11
8.80573e-12
6.07995e-12
4.22434e-12
2.96075e-12
2.09944e-12
1.51489e-12
1.10881e-12
8.5204e-13
6.48955e-13
5.64605e-13
4.57612e-13
4.6259e-13
4.50976e-13
5.71266e-13
5.65421e-13
1.07277e-12
1.02929e-12
3.16667e-12
3.05347e-12
1.25954e-11
1.5674e-11
4.46744e-11
1.0155e-10
1.76299e-10
7.48767e-10
8.20128e-10
3.79036e-09
3.85613e-09
1.38058e-08
1.63211e-08
4.48108e-08
6.43896e-08
1.17691e-07
2.13114e-07
2.86182e-07
6.01429e-07
6.75389e-07
1.04336e-06
1.33306e-06
1.82234e-06
3.09747e-06
4.98139e-06
8.81912e-06
9.99141e-06
1.33112e-05
1.54514e-05
2.01217e-05
2.23187e-05
2.756e-05
3.08507e-05
3.81437e-05
4.18606e-05
5.03829e-05
5.65586e-05
7.2e-05
8.05002e-05
0.000104489
0.00011209
0.000140731
0.000149721
0.000187482
0.000189294
0.000207817
0.000188739
0.00018444
0.000147519
0.000136822
0.000109727
0.000112062
0.000114565
0.000126681
0.000170541
0.000181735
0.000247072
0.000197786
0.000197381
0.000161388
0.000184616
0.00025683
0.000257278
0.000276723
0.000318737
0.000499433
0.000969604
0.00171985
0.00365805
0.0065763
0.0370116
0.418183
1.64186
1.29975
1.06891
0.980976
0.864628
0.742343
0.680952
0.660517
0.61156
0.464727
0.377952
0.340915
0.247846
0.14361
0.114321
0.11552
0.108277
0.0860718
0.0737856
0.0721227
0.103578
0.193754
0.218033
0.184738
0.157664
0.162132
0.205206
0.204177
0.177739
0.103943
0.0524617
0.0249218
0.0113175
0.00543765
0.00349424
0.00301764
0.00272234
0.00235459
0.00221844
0.00218718
0.00223613
0.0025598
0.00303966
0.00313955
0.00307236
0.00297864
0.00296998
0.00301956
0.00320479
0.00371823
0.00388439
0.00380925
0.00355296
0.00351415
0.00369112
0.0045349
0.0051234
0.00529827
0.00528249
0.00509943
0.00465562
0.0041069
0.00348467
0.0028237
0.00218173
0.00161241
0.00114461
0.000783856
0.000520543
0.000337186
0.000214247
0.000134309
8.35268e-05
5.17747e-05
3.21113e-05
1.99861e-05
1.25088e-05
7.88207e-06
5.00296e-06
3.19868e-06
2.05928e-06
1.33419e-06
8.69359e-07
5.69333e-07
3.74494e-07
2.47277e-07
1.63815e-07
1.08832e-07
7.24811e-08
4.83734e-08
3.23428e-08
2.16587e-08
1.45238e-08
9.75096e-09
6.55353e-09
4.40872e-09
2.9684e-09
2.00021e-09
1.34881e-09
9.10194e-10
6.14642e-10
4.15355e-10
2.80892e-10
1.90109e-10
1.28781e-10
8.73245e-11
5.92837e-11
4.03046e-11
2.74488e-11
1.87344e-11
1.28234e-11
8.80849e-12
6.08091e-12
4.22417e-12
2.96023e-12
2.09833e-12
1.51417e-12
1.10699e-12
8.51876e-13
6.46326e-13
5.65443e-13
4.55259e-13
4.64773e-13
4.47041e-13
5.92728e-13
5.66642e-13
1.2027e-12
1.06887e-12
4.19989e-12
3.696e-12
2.14568e-11
2.50667e-11
9.29084e-11
1.95638e-10
3.69924e-10
1.49702e-09
1.66752e-09
6.60972e-09
6.83437e-09
1.56819e-08
1.86619e-08
2.84119e-08
4.17187e-08
4.90382e-08
6.40329e-08
9.90009e-08
1.35933e-07
2.2457e-07
6.01305e-07
1.28607e-06
3.03304e-06
3.99195e-06
6.64638e-06
7.01821e-06
8.13362e-06
8.66524e-06
9.86223e-06
1.05394e-05
1.11003e-05
1.25043e-05
1.40066e-05
1.50818e-05
1.73712e-05
2.00504e-05
2.47832e-05
2.97563e-05
4.1327e-05
5.04868e-05
7.39745e-05
8.80826e-05
0.000123932
0.000143715
0.000194107
0.000206543
0.000264302
0.000273575
0.000326841
0.000301755
0.000292301
0.000217216
0.000192135
0.000152245
0.000163101
0.00018714
0.000209115
0.00030294
0.000249418
0.000263577
0.000215256
0.0002412
0.00039474
0.000322538
0.000353883
0.000468188
0.000826254
0.00147462
0.00406774
0.00656223
0.037421
0.278001
1.51391
1.25173
1.05687
0.955194
0.888868
0.796855
0.722169
0.699034
0.688948
0.658945
0.560071
0.513096
0.494836
0.404159
0.315824
0.308547
0.291462
0.199994
0.141633
0.137485
0.204375
0.281304
0.302204
0.290393
0.277675
0.267602
0.248682
0.215265
0.141579
0.0718859
0.0329256
0.0143737
0.00611167
0.00311594
0.00246874
0.00253142
0.00252328
0.00227888
0.00213841
0.00210459
0.00216567
0.00270516
0.00312975
0.00313962
0.00298262
0.0028182
0.00282316
0.00293536
0.00316895
0.00345831
0.00360828
0.00359826
0.00343473
0.00336931
0.00341395
0.00398016
0.00501803
0.00549166
0.00557631
0.00554099
0.00530576
0.00449746
0.00364176
0.00286695
0.00218226
0.00160223
0.00113534
0.000778706
0.00051911
0.000337877
0.000215804
0.000135947
8.48874e-05
5.27814e-05
3.28081e-05
2.04489e-05
1.2808e-05
8.07203e-06
5.12201e-06
3.27256e-06
2.10478e-06
1.36204e-06
8.86311e-07
5.79613e-07
3.80709e-07
2.51025e-07
1.66073e-07
1.10191e-07
7.32986e-08
4.88652e-08
3.26387e-08
2.18367e-08
1.4631e-08
9.81549e-09
6.59238e-09
4.43212e-09
2.98249e-09
2.00869e-09
1.35391e-09
9.13269e-10
6.16494e-10
4.1647e-10
2.81563e-10
1.90514e-10
1.29024e-10
8.74699e-11
5.937e-11
4.0355e-11
2.74775e-11
1.87502e-11
1.28316e-11
8.81208e-12
6.08173e-12
4.22343e-12
2.95893e-12
2.09641e-12
1.51267e-12
1.10455e-12
8.5111e-13
6.43194e-13
5.65836e-13
4.52443e-13
4.66877e-13
4.42519e-13
6.15843e-13
5.65599e-13
1.38384e-12
1.13269e-12
5.99482e-12
4.9151e-12
4.13811e-11
4.66949e-11
2.42959e-10
5.00506e-10
1.14092e-09
4.57213e-09
6.24364e-09
2.78485e-08
3.45838e-08
8.84318e-08
1.60268e-07
2.87983e-07
7.39843e-07
1.22462e-06
2.28167e-06
4.86218e-06
5.39066e-06
9.47345e-06
1.01694e-05
1.28045e-05
1.33722e-05
1.53046e-05
1.53632e-05
1.53246e-05
1.63546e-05
1.66309e-05
1.83455e-05
1.80791e-05
1.88285e-05
1.87081e-05
1.9961e-05
2.00477e-05
2.20948e-05
2.22205e-05
2.37233e-05
2.42023e-05
2.63351e-05
2.76161e-05
3.06654e-05
3.48119e-05
4.60676e-05
5.55365e-05
7.66588e-05
0.000124293
0.00015861
0.000238035
0.000272543
0.000366953
0.000381185
0.00046412
0.000412745
0.000378559
0.000258855
0.000224721
0.000224777
0.0002525
0.000396995
0.000324922
0.000338326
0.000285353
0.000343829
0.000501898
0.000474769
0.000578997
0.00101977
0.00139315
0.00441568
0.00637838
0.036074
0.184567
1.31385
1.13329
0.977064
0.862811
0.813716
0.760076
0.68875
0.650404
0.646721
0.641143
0.603148
0.55766
0.552758
0.536587
0.476759
0.443988
0.435313
0.411138
0.349339
0.337264
0.323137
0.313092
0.314826
0.316535
0.309757
0.286452
0.246541
0.154677
0.0752175
0.0328825
0.0137361
0.00612268
0.00304863
0.00190344
0.00180888
0.00200496
0.00222001
0.00221451
0.00214322
0.00213146
0.00223323
0.00294489
0.00343387
0.00340627
0.00306165
0.00281947
0.00281959
0.00303986
0.00316584
0.00317371
0.00321651
0.00326009
0.00324794
0.00319891
0.00319553
0.00326787
0.00397643
0.00505235
0.00550492
0.00556597
0.00548716
0.00502033
0.00398139
0.00303771
0.00225348
0.00162559
0.0011402
0.00077837
0.000518275
0.000337726
0.000216283
0.000136721
8.5683e-05
5.34555e-05
3.332e-05
2.08118e-05
1.30538e-05
8.23346e-06
5.22577e-06
3.33823e-06
2.14586e-06
1.38752e-06
9.02011e-07
5.89234e-07
3.86579e-07
2.54595e-07
1.68238e-07
1.11502e-07
7.40911e-08
4.93439e-08
3.29278e-08
2.20112e-08
1.47363e-08
9.87911e-09
6.63082e-09
4.45535e-09
2.99652e-09
2.01717e-09
1.35904e-09
9.16364e-10
6.18358e-10
4.17591e-10
2.82234e-10
1.90912e-10
1.29258e-10
8.76052e-11
5.94463e-11
4.03965e-11
2.74988e-11
1.87598e-11
1.28348e-11
8.8119e-12
6.07996e-12
4.22097e-12
2.95644e-12
2.09372e-12
1.51053e-12
1.10172e-12
8.49849e-13
6.39858e-13
5.65693e-13
4.49365e-13
4.68618e-13
4.38136e-13
6.40594e-13
5.67252e-13
1.61624e-12
1.24983e-12
8.79986e-12
7.03633e-12
8.06353e-11
8.8202e-11
6.74676e-10
1.19315e-09
3.79173e-09
1.12449e-08
2.34414e-08
8.17624e-08
1.19169e-07
3.51188e-07
5.13646e-07
1.07168e-06
1.52535e-06
2.38878e-06
2.95856e-06
3.52619e-06
5.12807e-06
6.17353e-06
9.33794e-06
1.0309e-05
1.19063e-05
1.28785e-05
1.39637e-05
1.70774e-05
1.85609e-05
2.30956e-05
2.38771e-05
2.63936e-05
2.82521e-05
3.41511e-05
3.60628e-05
4.29309e-05
4.40334e-05
4.98152e-05
5.0044e-05
5.54011e-05
5.15448e-05
5.16955e-05
4.81402e-05
5.06051e-05
5.01117e-05
5.40976e-05
5.54928e-05
6.4364e-05
7.22274e-05
9.47301e-05
0.000127293
0.000185067
0.000321859
0.000381443
0.000554705
0.00055038
0.000606196
0.000449135
0.000340342
0.000285792
0.000327336
0.000459247
0.000423432
0.000570299
0.00044007
0.000491761
0.000528253
0.000600167
0.0011344
0.00139894
0.00575726
0.00670677
0.0313535
0.125951
1.04684
0.93292
0.832642
0.744455
0.684568
0.652814
0.613548
0.567264
0.551904
0.553035
0.547751
0.524937
0.51845
0.511409
0.480869
0.43917
0.426807
0.426431
0.424616
0.411162
0.352293
0.294482
0.272533
0.267184
0.258008
0.228862
0.143604
0.0652084
0.0295296
0.0132233
0.00578609
0.00284608
0.00178895
0.00138812
0.00130429
0.00132931
0.00163515
0.0019205
0.00202024
0.00209259
0.0022444
0.00294371
0.00358171
0.00364567
0.00338939
0.00301595
0.0029952
0.00318846
0.00322283
0.00314714
0.00297093
0.00294461
0.00297224
0.00297405
0.00297145
0.00301074
0.00318922
0.00390182
0.00467587
0.00507484
0.00515771
0.00506126
0.00437102
0.003297
0.00239807
0.00169481
0.00116868
0.000788236
0.000521069
0.000338449
0.000216653
0.000137154
8.61766e-05
5.39289e-05
3.37176e-05
2.1116e-05
1.32718e-05
8.38255e-06
5.32427e-06
3.40171e-06
2.18603e-06
1.4126e-06
9.17516e-07
5.98749e-07
3.92388e-07
2.58127e-07
1.7038e-07
1.12799e-07
7.48753e-08
4.98178e-08
3.32139e-08
2.2184e-08
1.48406e-08
9.94206e-09
6.66879e-09
4.47825e-09
3.01032e-09
2.02548e-09
1.36403e-09
9.19357e-10
6.20147e-10
4.18656e-10
2.82865e-10
1.91283e-10
1.29473e-10
8.7729e-11
5.95161e-11
4.04345e-11
2.75184e-11
1.8769e-11
1.2838e-11
8.81159e-12
6.07785e-12
4.21811e-12
2.9534e-12
2.09048e-12
1.5077e-12
1.09853e-12
8.47855e-13
6.36314e-13
5.64727e-13
4.46111e-13
4.6975e-13
4.34405e-13
6.66801e-13
5.76261e-13
1.90411e-12
1.46047e-12
1.28057e-11
1.07564e-11
1.42185e-10
1.60741e-10
1.40755e-09
2.32926e-09
8.75547e-09
2.27413e-08
4.9083e-08
1.46408e-07
2.27945e-07
5.35168e-07
9.25862e-07
1.3402e-06
3.23662e-06
3.43843e-06
6.09622e-06
6.76702e-06
6.95082e-06
8.3325e-06
9.11366e-06
1.0293e-05
1.23986e-05
1.76171e-05
1.91602e-05
2.29536e-05
2.46125e-05
2.92179e-05
3.01889e-05
3.30424e-05
3.46652e-05
4.04321e-05
4.29114e-05
4.89422e-05
5.48276e-05
6.20542e-05
7.56376e-05
8.27786e-05
9.9796e-05
0.000107667
0.000128201
0.000128547
0.000134059
0.000125569
0.000127153
0.000112717
0.000105335
0.000102664
0.000110335
0.000117987
0.000149613
0.00018966
0.000286186
0.000519359
0.00057497
0.000866208
0.000681979
0.000630552
0.000432249
0.000449834
0.000475891
0.00054837
0.000729446
0.00069264
0.000712147
0.000692287
0.00149841
0.00163461
0.0104676
0.00790566
0.0246406
0.0852895
0.741982
0.678098
0.612275
0.568476
0.528963
0.499468
0.478557
0.450813
0.434015
0.42967
0.428791
0.426862
0.420787
0.416296
0.40415
0.359839
0.333574
0.332084
0.331575
0.323216
0.289062
0.216744
0.170969
0.146119
0.123877
0.0849741
0.0469442
0.0236497
0.0115058
0.00531925
0.00245002
0.00142961
0.00120431
0.0011326
0.00111101
0.00110444
0.00112373
0.00146985
0.00172354
0.00181767
0.0020383
0.00255217
0.00330669
0.00361307
0.00354079
0.00333688
0.00333084
0.00340017
0.00337525
0.00322323
0.00292239
0.00278855
0.0027617
0.00276
0.00279953
0.00291884
0.00318494
0.00364346
0.00406709
0.00434588
0.00446941
0.00448381
0.00432651
0.00346111
0.00249555
0.00175344
0.00120085
0.00080396
0.000527945
0.000341198
0.000217754
0.00013771
8.6586e-05
5.42834e-05
3.40194e-05
2.13568e-05
1.34521e-05
8.51065e-06
5.41168e-06
3.45951e-06
2.22336e-06
1.43626e-06
9.32315e-07
6.0791e-07
3.98015e-07
2.61565e-07
1.72472e-07
1.14067e-07
7.5643e-08
5.02818e-08
3.34941e-08
2.23531e-08
1.49426e-08
1.00036e-08
6.70588e-09
4.5006e-09
3.02379e-09
2.03358e-09
1.36891e-09
9.22282e-10
6.21899e-10
4.197e-10
2.83485e-10
1.91648e-10
1.29685e-10
8.78498e-11
5.95829e-11
4.04694e-11
2.75348e-11
1.87748e-11
1.28381e-11
8.80892e-12
6.07388e-12
4.2138e-12
2.94913e-12
2.08648e-12
1.50405e-12
1.09496e-12
8.44981e-13
6.32817e-13
5.62765e-13
4.42849e-13
4.70144e-13
4.31919e-13
6.95726e-13
5.96591e-13
2.29793e-12
1.83779e-12
1.97165e-11
1.85691e-11
2.70586e-10
3.35785e-10
3.43473e-09
5.54203e-09
2.93325e-08
6.21602e-08
1.61823e-07
3.73899e-07
8.4376e-07
1.43289e-06
4.10977e-06
4.53655e-06
1.48706e-05
1.24815e-05
2.97815e-05
2.52464e-05
3.09405e-05
3.31133e-05
3.7411e-05
3.63726e-05
4.90943e-05
5.32101e-05
5.14289e-05
5.9515e-05
5.97084e-05
5.9753e-05
6.18424e-05
6.43424e-05
6.17066e-05
6.41929e-05
6.282e-05
6.45354e-05
6.50898e-05
7.11724e-05
7.52858e-05
8.5536e-05
9.21621e-05
0.000109405
0.000119276
0.000140249
0.000150506
0.000187249
0.000193279
0.000229195
0.000225079
0.0002499
0.000215275
0.000216942
0.000190584
0.000195412
0.000208329
0.000283629
0.000377876
0.000571353
0.00095693
0.000924343
0.000927618
0.000658999
0.00060791
0.000671313
0.000833636
0.00075839
0.00102709
0.000915399
0.00432877
0.00247664
0.0140314
0.00962501
0.0186995
0.059841
0.432613
0.407641
0.369513
0.344672
0.332098
0.324545
0.312971
0.297203
0.289128
0.286751
0.288468
0.293826
0.294648
0.294527
0.289855
0.261863
0.228151
0.214662
0.207306
0.193512
0.16121
0.113158
0.0805263
0.062261
0.0481857
0.031397
0.0176784
0.00916742
0.00453586
0.0022243
0.00120904
0.000883701
0.000894169
0.000934475
0.000972777
0.00102518
0.00105884
0.00132446
0.00167781
0.00176192
0.00191311
0.00218471
0.00243069
0.00290205
0.00323159
0.00335243
0.00342798
0.00347329
0.00343563
0.00326169
0.00291837
0.00272154
0.00267059
0.00268526
0.00278796
0.0032199
0.00368343
0.00400623
0.00418625
0.00423905
0.00423425
0.00418216
0.00400163
0.00333673
0.00246687
0.00175185
0.00120459
0.000807286
0.00053004
0.000342452
0.000218576
0.000138307
8.70371e-05
5.46359e-05
3.42992e-05
2.15743e-05
1.36147e-05
8.6272e-06
5.49218e-06
3.51341e-06
2.25854e-06
1.45878e-06
9.46497e-07
6.16738e-07
4.03462e-07
2.64903e-07
1.74508e-07
1.15305e-07
7.63933e-08
5.07359e-08
3.37687e-08
2.2519e-08
1.50428e-08
1.0064e-08
6.74234e-09
4.52257e-09
3.03702e-09
2.04154e-09
1.37368e-09
9.2514e-10
6.23602e-10
4.2071e-10
2.84077e-10
1.91991e-10
1.2988e-10
8.79574e-11
5.96397e-11
4.04968e-11
2.75455e-11
1.87768e-11
1.28355e-11
8.8043e-12
6.0684e-12
4.20841e-12
2.94391e-12
2.08177e-12
1.49948e-12
1.09117e-12
8.41095e-13
6.29564e-13
5.59386e-13
4.39937e-13
4.69086e-13
4.32176e-13
7.21396e-13
6.36752e-13
2.73732e-12
2.47656e-12
2.84374e-11
3.26127e-11
4.54684e-10
6.47257e-10
7.26706e-09
1.17369e-08
8.36409e-08
1.4748e-07
6.03066e-07
9.95024e-07
3.33354e-06
3.98049e-06
1.59351e-05
1.36024e-05
7.03728e-05
4.50401e-05
0.000238159
0.000154019
0.000390516
0.000303358
0.00056183
0.000435224
0.00074502
0.000594465
0.000712426
0.00070036
0.00069585
0.000611886
0.000757983
0.000634371
0.000663214
0.000634274
0.000610292
0.000501101
0.000511686
0.00044168
0.000419463
0.000335566
0.000316541
0.000263717
0.000250761
0.000212516
0.000205406
0.000205167
0.000209215
0.000220886
0.00024509
0.000258117
0.000292918
0.000280685
0.000335096
0.000279314
0.000320249
0.000303598
0.000329218
0.00039375
0.00066635
0.000853144
0.00132082
0.0012486
0.000944334
0.000778771
0.00182658
0.00126668
0.00321964
0.00183047
0.00626994
0.00400246
0.0363375
0.0156003
0.018066
0.041966
0.183561
0.176478
0.165031
0.15114
0.149279
0.151405
0.151977
0.148491
0.145875
0.144609
0.145613
0.153359
0.161073
0.164967
0.163318
0.156104
0.134559
0.114919
0.103342
0.0855813
0.059836
0.0399309
0.0289004
0.0228537
0.0169873
0.0109565
0.0063681
0.00343401
0.00180741
0.00107209
0.000778491
0.000672449
0.000638523
0.000661
0.000790998
0.000958231
0.00103294
0.00126208
0.0017262
0.00186308
0.00196575
0.00224433
0.0022909
0.00230223
0.00244284
0.00294088
0.00327472
0.00334392
0.00330636
0.00310843
0.0028056
0.00264396
0.0026246
0.00267003
0.00303979
0.00370995
0.00418237
0.0044586
0.0045513
0.00454712
0.00447283
0.00422632
0.00360759
0.00291839
0.00224802
0.00165028
0.00116203
0.000790969
0.000524297
0.000340657
0.000218188
0.000138417
8.73179e-05
5.49435e-05
3.45649e-05
2.17813e-05
1.37681e-05
8.73671e-06
5.56782e-06
3.56421e-06
2.29186e-06
1.48022e-06
9.60078e-07
6.25234e-07
4.08725e-07
2.68139e-07
1.76487e-07
1.1651e-07
7.71254e-08
5.11796e-08
3.40372e-08
2.26813e-08
1.51408e-08
1.01232e-08
6.77805e-09
4.54409e-09
3.04997e-09
2.04932e-09
1.37835e-09
9.27926e-10
6.25257e-10
4.21687e-10
2.84649e-10
1.9232e-10
1.30066e-10
8.80593e-11
5.96925e-11
4.05216e-11
2.75545e-11
1.87772e-11
1.28316e-11
8.79845e-12
6.06187e-12
4.20211e-12
2.93778e-12
2.07657e-12
1.4942e-12
1.08727e-12
8.36135e-13
6.2679e-13
5.54572e-13
4.37461e-13
4.66516e-13
4.35477e-13
7.43686e-13
7.00497e-13
3.18538e-12
3.48912e-12
3.67096e-11
5.33792e-11
6.70995e-10
1.1396e-09
1.28367e-08
2.13947e-08
1.86462e-07
2.88309e-07
1.68784e-06
2.24265e-06
1.03961e-05
1.04354e-05
5.48969e-05
4.29957e-05
0.000241935
0.000170359
0.000549766
0.000435731
0.000646739
0.000662438
0.000809778
0.000744433
0.00123088
0.00113359
0.00162447
0.00161126
0.00179063
0.00178274
0.00229472
0.00212795
0.00270777
0.00263782
0.00300835
0.00283266
0.00354344
0.00314387
0.0035355
0.00318743
0.0032303
0.00268726
0.00256543
0.00180749
0.00157087
0.00113951
0.000911191
0.000639115
0.000578592
0.000449235
0.000458617
0.000415457
0.000497256
0.000448356
0.000494111
0.000490819
0.000440289
0.000496005
0.000682113
0.000746904
0.00156384
0.00165424
0.00189532
0.0014458
0.00265471
0.00193075
0.00453828
0.00290499
0.0217404
0.00949755
0.0370466
0.0308407
0.0231799
0.034469
0.0517216
0.0506272
0.0487532
0.0459238
0.0463484
0.0492458
0.0495913
0.0503432
0.0500086
0.0492489
0.0499894
0.0531503
0.0632402
0.0713366
0.0718335
0.0696594
0.0591623
0.0426663
0.0325917
0.0246618
0.0177237
0.0128828
0.00964217
0.00744089
0.00545977
0.00360934
0.00227187
0.00141619
0.000902326
0.000690666
0.000628432
0.000542688
0.000477933
0.000481343
0.00059658
0.000860902
0.000985749
0.00109543
0.00163044
0.00191854
0.00206739
0.00242262
0.00242979
0.00232841
0.00233661
0.00263829
0.00290921
0.00294643
0.00286434
0.00262223
0.00254206
0.00255715
0.00260664
0.00276245
0.00330314
0.00389514
0.00427168
0.00446928
0.00454731
0.00455421
0.00450486