/*--------------------------------*- C++ -*----------------------------------*\
| =========                 |                                                 |
| \\      /  F ield         | OpenFOAM: The Open Source CFD Toolbox           |
|  \\    /   O peration     | Version:  2.4.0                                 |
|   \\  /    A nd           | Web:      www.OpenFOAM.org                      |
|    \\/     M anipulation  |                                                 |
\*---------------------------------------------------------------------------*/
FoamFile
{
    version     2.0;
    format      ascii;
    class       volScalarField;
    location    "0.009";
    object      pPrime2Mean;
}
// * * * * * * * * * * * * * * * * * * * * * * * * * * * * * * * * * * * * * //

dimensions      [0 4 -4 0 0 0 0];

internalField   nonuniform List<scalar> 
4400
(
7.05902e+07
6.69648e+07
6.31799e+07
5.94936e+07
5.59187e+07
5.24542e+07
4.9097e+07
4.58393e+07
4.26556e+07
3.94265e+07
7.05915e+07
6.69647e+07
6.31798e+07
5.94936e+07
5.59187e+07
5.24542e+07
4.90972e+07
4.584e+07
4.26579e+07
3.9435e+07
7.05923e+07
6.69646e+07
6.31798e+07
5.94936e+07
5.59187e+07
5.24544e+07
4.90976e+07
4.58413e+07
4.26621e+07
3.94601e+07
7.05929e+07
6.69644e+07
6.31797e+07
5.94936e+07
5.59187e+07
5.24545e+07
4.90982e+07
4.5843e+07
4.26684e+07
3.94933e+07
7.05933e+07
6.69643e+07
6.31796e+07
5.94936e+07
5.59188e+07
5.24548e+07
4.90989e+07
4.58454e+07
4.26764e+07
3.95317e+07
7.05937e+07
6.69642e+07
6.31796e+07
5.94936e+07
5.59189e+07
5.2455e+07
4.90998e+07
4.58482e+07
4.26859e+07
3.95723e+07
7.0594e+07
6.69641e+07
6.31795e+07
5.94936e+07
5.5919e+07
5.24553e+07
4.91008e+07
4.58513e+07
4.26965e+07
3.96131e+07
7.05943e+07
6.6964e+07
6.31795e+07
5.94936e+07
5.59191e+07
5.24557e+07
4.91018e+07
4.58547e+07
4.27077e+07
3.96532e+07
7.05944e+07
6.6964e+07
6.31795e+07
5.94936e+07
5.59192e+07
5.2456e+07
4.91029e+07
4.58583e+07
4.27192e+07
3.96916e+07
7.05945e+07
6.6964e+07
6.31795e+07
5.94937e+07
5.59193e+07
5.24564e+07
4.91041e+07
4.58619e+07
4.27308e+07
3.97277e+07
7.05945e+07
6.6964e+07
6.31795e+07
5.94937e+07
5.59194e+07
5.24568e+07
4.91053e+07
4.58656e+07
4.27421e+07
3.97612e+07
7.05944e+07
6.6964e+07
6.31795e+07
5.94937e+07
5.59195e+07
5.24571e+07
4.91064e+07
4.58691e+07
4.27529e+07
3.97918e+07
7.05943e+07
6.69641e+07
6.31796e+07
5.94938e+07
5.59197e+07
5.24575e+07
4.91075e+07
4.58725e+07
4.2763e+07
3.98192e+07
7.0594e+07
6.69641e+07
6.31796e+07
5.94938e+07
5.59198e+07
5.24578e+07
4.91085e+07
4.58756e+07
4.27722e+07
3.98435e+07
7.05937e+07
6.69642e+07
6.31797e+07
5.94939e+07
5.59199e+07
5.24581e+07
4.91094e+07
4.58784e+07
4.27803e+07
3.98644e+07
7.05934e+07
6.69643e+07
6.31797e+07
5.94939e+07
5.592e+07
5.24584e+07
4.91102e+07
4.58808e+07
4.27873e+07
3.98819e+07
7.05929e+07
6.69645e+07
6.31798e+07
5.9494e+07
5.59201e+07
5.24586e+07
4.91109e+07
4.58828e+07
4.2793e+07
3.98959e+07
7.05924e+07
6.69646e+07
6.31799e+07
5.94941e+07
5.59201e+07
5.24588e+07
4.91114e+07
4.58843e+07
4.27974e+07
3.99065e+07
7.05915e+07
6.69648e+07
6.318e+07
5.94941e+07
5.59202e+07
5.24589e+07
4.91117e+07
4.58853e+07
4.28003e+07
3.99136e+07
7.05902e+07
6.69648e+07
6.318e+07
5.94941e+07
5.59202e+07
5.24589e+07
4.91119e+07
4.58859e+07
4.28018e+07
3.99171e+07
3.66605e+07
3.60096e+07
3.54862e+07
3.50076e+07
3.45528e+07
3.41132e+07
3.3684e+07
3.32625e+07
3.28472e+07
3.24368e+07
3.20308e+07
3.16285e+07
3.12296e+07
3.0834e+07
3.04413e+07
3.00515e+07
2.96645e+07
2.92803e+07
2.88987e+07
2.85198e+07
2.81434e+07
2.77697e+07
2.73985e+07
2.70299e+07
2.66638e+07
2.63002e+07
2.59391e+07
2.55806e+07
2.52246e+07
2.48711e+07
2.45201e+07
2.41716e+07
2.38257e+07
2.34822e+07
2.31412e+07
2.28027e+07
2.24667e+07
2.21332e+07
2.18022e+07
2.14737e+07
2.11477e+07
2.08242e+07
2.05032e+07
2.01847e+07
1.98687e+07
1.95551e+07
1.92441e+07
1.89355e+07
1.86295e+07
1.83259e+07
1.80249e+07
1.77263e+07
1.74302e+07
1.71367e+07
1.68456e+07
1.6557e+07
1.62709e+07
1.59873e+07
1.57062e+07
1.54275e+07
1.51514e+07
1.48778e+07
1.46066e+07
1.4338e+07
1.40718e+07
1.38081e+07
1.35469e+07
1.32882e+07
1.3032e+07
1.27783e+07
1.25271e+07
1.22783e+07
1.20321e+07
1.17883e+07
1.1547e+07
1.13082e+07
1.10718e+07
1.0838e+07
1.06065e+07
1.03776e+07
1.01511e+07
9.92702e+06
9.70538e+06
9.48616e+06
9.26933e+06
9.05486e+06
8.84271e+06
8.63286e+06
8.42521e+06
8.21971e+06
8.01615e+06
7.81452e+06
7.61428e+06
7.41554e+06
7.2171e+06
7.0191e+06
6.81875e+06
6.61562e+06
6.40021e+06
6.15945e+06
3.69528e+07
3.62226e+07
3.56416e+07
3.51269e+07
3.46471e+07
3.4189e+07
3.37455e+07
3.33126e+07
3.28881e+07
3.24704e+07
3.20583e+07
3.16511e+07
3.12482e+07
3.08493e+07
3.04539e+07
3.00619e+07
2.96731e+07
2.92873e+07
2.89045e+07
2.85245e+07
2.81473e+07
2.77729e+07
2.74011e+07
2.7032e+07
2.66655e+07
2.63017e+07
2.59404e+07
2.55816e+07
2.52254e+07
2.48718e+07
2.45207e+07
2.41721e+07
2.3826e+07
2.34825e+07
2.31414e+07
2.28029e+07
2.24669e+07
2.21334e+07
2.18023e+07
2.14738e+07
2.11478e+07
2.08243e+07
2.05032e+07
2.01847e+07
1.98687e+07
1.95551e+07
1.92441e+07
1.89356e+07
1.86295e+07
1.83259e+07
1.80249e+07
1.77263e+07
1.74302e+07
1.71366e+07
1.68456e+07
1.65569e+07
1.62708e+07
1.59872e+07
1.57061e+07
1.54275e+07
1.51513e+07
1.48777e+07
1.46065e+07
1.43378e+07
1.40716e+07
1.38079e+07
1.35467e+07
1.3288e+07
1.30317e+07
1.27779e+07
1.25266e+07
1.22778e+07
1.20314e+07
1.17875e+07
1.15461e+07
1.1307e+07
1.10705e+07
1.08363e+07
1.06046e+07
1.03753e+07
1.01483e+07
9.92373e+06
9.70145e+06
9.48147e+06
9.26373e+06
9.04818e+06
8.83474e+06
8.62335e+06
8.41385e+06
8.20616e+06
7.99994e+06
7.79516e+06
7.59096e+06
7.38758e+06
7.18307e+06
6.9778e+06
6.76732e+06
6.55079e+06
6.31425e+06
6.03509e+06
3.71743e+07
3.64092e+07
3.57875e+07
3.52416e+07
3.47388e+07
3.4263e+07
3.38057e+07
3.33618e+07
3.29284e+07
3.25035e+07
3.20855e+07
3.16735e+07
3.12666e+07
3.08644e+07
3.04663e+07
3.00721e+07
2.96815e+07
2.92943e+07
2.89102e+07
2.85292e+07
2.81512e+07
2.77761e+07
2.74038e+07
2.70342e+07
2.66673e+07
2.63031e+07
2.59416e+07
2.55826e+07
2.52263e+07
2.48725e+07
2.45212e+07
2.41725e+07
2.38264e+07
2.34828e+07
2.31417e+07
2.28031e+07
2.2467e+07
2.21335e+07
2.18025e+07
2.14739e+07
2.11479e+07
2.08243e+07
2.05033e+07
2.01848e+07
1.98687e+07
1.95552e+07
1.92441e+07
1.89356e+07
1.86295e+07
1.83259e+07
1.80249e+07
1.77263e+07
1.74302e+07
1.71366e+07
1.68455e+07
1.65569e+07
1.62708e+07
1.59872e+07
1.5706e+07
1.54274e+07
1.51512e+07
1.48776e+07
1.46064e+07
1.43377e+07
1.40715e+07
1.38077e+07
1.35465e+07
1.32877e+07
1.30314e+07
1.27775e+07
1.25262e+07
1.22772e+07
1.20308e+07
1.17867e+07
1.15451e+07
1.13059e+07
1.10691e+07
1.08347e+07
1.06027e+07
1.0373e+07
1.01456e+07
9.92047e+06
9.69756e+06
9.47683e+06
9.25819e+06
9.04157e+06
8.82687e+06
8.61396e+06
8.40265e+06
8.19282e+06
7.98398e+06
7.77615e+06
7.56811e+06
7.3603e+06
7.14999e+06
6.93794e+06
6.71829e+06
6.4903e+06
6.23806e+06
5.94103e+06
3.73503e+07
3.65719e+07
3.59222e+07
3.53504e+07
3.48268e+07
3.43346e+07
3.38642e+07
3.34098e+07
3.29678e+07
3.25358e+07
3.21121e+07
3.16954e+07
3.12847e+07
3.08793e+07
3.04786e+07
3.00822e+07
2.96898e+07
2.93011e+07
2.89158e+07
2.85339e+07
2.8155e+07
2.77792e+07
2.74063e+07
2.70363e+07
2.66691e+07
2.63046e+07
2.59428e+07
2.55836e+07
2.52271e+07
2.48731e+07
2.45218e+07
2.4173e+07
2.38268e+07
2.34831e+07
2.31419e+07
2.28033e+07
2.24672e+07
2.21336e+07
2.18026e+07
2.1474e+07
2.11479e+07
2.08244e+07
2.05033e+07
2.01848e+07
1.98687e+07
1.95552e+07
1.92441e+07
1.89356e+07
1.86295e+07
1.8326e+07
1.80249e+07
1.77263e+07
1.74302e+07
1.71366e+07
1.68455e+07
1.65569e+07
1.62708e+07
1.59871e+07
1.5706e+07
1.54273e+07
1.51512e+07
1.48775e+07
1.46063e+07
1.43376e+07
1.40713e+07
1.38075e+07
1.35463e+07
1.32874e+07
1.30311e+07
1.27772e+07
1.25257e+07
1.22767e+07
1.20301e+07
1.17859e+07
1.15442e+07
1.13048e+07
1.10678e+07
1.08331e+07
1.06008e+07
1.03707e+07
1.01429e+07
9.91726e+06
9.69374e+06
9.47226e+06
9.25275e+06
9.03509e+06
8.81914e+06
8.60475e+06
8.39167e+06
8.17976e+06
7.9684e+06
7.75764e+06
7.54591e+06
7.3339e+06
7.11817e+06
6.89989e+06
6.67218e+06
6.43469e+06
6.17199e+06
5.86828e+06
3.74944e+07
3.67129e+07
3.60444e+07
3.54521e+07
3.49104e+07
3.44032e+07
3.39206e+07
3.34562e+07
3.3006e+07
3.25673e+07
3.21381e+07
3.17168e+07
3.13023e+07
3.08938e+07
3.04905e+07
3.00921e+07
2.96979e+07
2.93078e+07
2.89213e+07
2.85384e+07
2.81588e+07
2.77823e+07
2.74089e+07
2.70384e+07
2.66708e+07
2.6306e+07
2.59439e+07
2.55845e+07
2.52278e+07
2.48738e+07
2.45223e+07
2.41734e+07
2.38271e+07
2.34834e+07
2.31422e+07
2.28035e+07
2.24674e+07
2.21338e+07
2.18027e+07
2.14741e+07
2.1148e+07
2.08245e+07
2.05034e+07
2.01848e+07
1.98688e+07
1.95552e+07
1.92442e+07
1.89356e+07
1.86295e+07
1.8326e+07
1.80249e+07
1.77263e+07
1.74302e+07
1.71366e+07
1.68455e+07
1.65569e+07
1.62707e+07
1.59871e+07
1.57059e+07
1.54273e+07
1.51511e+07
1.48774e+07
1.46062e+07
1.43374e+07
1.40712e+07
1.38074e+07
1.3546e+07
1.32872e+07
1.30308e+07
1.27768e+07
1.25253e+07
1.22762e+07
1.20295e+07
1.17852e+07
1.15433e+07
1.13037e+07
1.10665e+07
1.08316e+07
1.0599e+07
1.03685e+07
1.01403e+07
9.91412e+06
9.69e+06
9.46781e+06
9.24744e+06
9.02876e+06
8.8116e+06
8.59577e+06
8.38098e+06
8.16706e+06
7.95328e+06
7.73972e+06
7.52451e+06
7.30852e+06
7.08783e+06
6.86389e+06
6.62947e+06
6.38421e+06
6.1152e+06
5.81024e+06
3.76146e+07
3.68353e+07
3.61547e+07
3.55463e+07
3.49891e+07
3.44685e+07
3.39746e+07
3.35008e+07
3.30429e+07
3.25977e+07
3.21631e+07
3.17374e+07
3.13193e+07
3.09078e+07
3.05021e+07
3.01016e+07
2.97058e+07
2.93142e+07
2.89267e+07
2.85428e+07
2.81624e+07
2.77853e+07
2.74113e+07
2.70404e+07
2.66724e+07
2.63073e+07
2.5945e+07
2.55855e+07
2.52286e+07
2.48744e+07
2.45228e+07
2.41739e+07
2.38275e+07
2.34837e+07
2.31424e+07
2.28037e+07
2.24675e+07
2.21339e+07
2.18028e+07
2.14742e+07
2.11481e+07
2.08245e+07
2.05034e+07
2.01849e+07
1.98688e+07
1.95552e+07
1.92442e+07
1.89356e+07
1.86295e+07
1.8326e+07
1.80249e+07
1.77263e+07
1.74302e+07
1.71366e+07
1.68455e+07
1.65568e+07
1.62707e+07
1.59871e+07
1.57059e+07
1.54272e+07
1.5151e+07
1.48773e+07
1.46061e+07
1.43373e+07
1.4071e+07
1.38072e+07
1.35458e+07
1.32869e+07
1.30304e+07
1.27764e+07
1.25248e+07
1.22756e+07
1.20288e+07
1.17844e+07
1.15424e+07
1.13027e+07
1.10653e+07
1.08301e+07
1.05972e+07
1.03664e+07
1.01377e+07
9.91108e+06
9.68637e+06
9.46349e+06
9.24229e+06
9.02263e+06
8.80429e+06
8.58709e+06
8.37065e+06
8.15478e+06
7.93871e+06
7.72245e+06
7.50404e+06
7.28423e+06
7.05918e+06
6.83012e+06
6.5904e+06
6.33901e+06
6.06619e+06
5.7625e+06
3.77168e+07
3.69422e+07
3.62538e+07
3.56328e+07
3.50625e+07
3.45299e+07
3.40257e+07
3.35433e+07
3.3078e+07
3.26268e+07
3.21872e+07
3.17573e+07
3.13357e+07
3.09213e+07
3.05133e+07
3.01108e+07
2.97134e+07
2.93205e+07
2.89318e+07
2.8547e+07
2.81659e+07
2.77881e+07
2.74137e+07
2.70424e+07
2.66741e+07
2.63087e+07
2.59461e+07
2.55864e+07
2.52293e+07
2.4875e+07
2.45233e+07
2.41743e+07
2.38278e+07
2.34839e+07
2.31426e+07
2.28039e+07
2.24677e+07
2.2134e+07
2.18029e+07
2.14743e+07
2.11482e+07
2.08246e+07
2.05035e+07
2.01849e+07
1.98688e+07
1.95553e+07
1.92442e+07
1.89356e+07
1.86295e+07
1.8326e+07
1.80249e+07
1.77263e+07
1.74302e+07
1.71366e+07
1.68454e+07
1.65568e+07
1.62707e+07
1.5987e+07
1.57059e+07
1.54272e+07
1.5151e+07
1.48772e+07
1.4606e+07
1.43372e+07
1.40709e+07
1.3807e+07
1.35456e+07
1.32867e+07
1.30302e+07
1.27761e+07
1.25244e+07
1.22751e+07
1.20283e+07
1.17837e+07
1.15415e+07
1.13017e+07
1.1064e+07
1.08287e+07
1.05954e+07
1.03643e+07
1.01353e+07
9.90815e+06
9.68288e+06
9.45932e+06
9.23733e+06
9.01673e+06
8.79727e+06
8.57874e+06
8.36072e+06
8.143e+06
7.92474e+06
7.70592e+06
7.48459e+06
7.26124e+06
7.03245e+06
6.79885e+06
6.55496e+06
6.29873e+06
6.0234e+06
5.722e+06
3.78045e+07
3.70354e+07
3.63421e+07
3.57115e+07
3.51303e+07
3.45873e+07
3.40738e+07
3.35834e+07
3.31114e+07
3.26545e+07
3.22101e+07
3.17762e+07
3.13514e+07
3.09343e+07
3.05239e+07
3.01196e+07
2.97206e+07
2.93265e+07
2.89367e+07
2.85511e+07
2.81692e+07
2.77909e+07
2.7416e+07
2.70442e+07
2.66756e+07
2.63099e+07
2.59472e+07
2.55872e+07
2.523e+07
2.48756e+07
2.45238e+07
2.41747e+07
2.38281e+07
2.34842e+07
2.31429e+07
2.28041e+07
2.24678e+07
2.21341e+07
2.1803e+07
2.14743e+07
2.11482e+07
2.08246e+07
2.05035e+07
2.01849e+07
1.98689e+07
1.95553e+07
1.92442e+07
1.89356e+07
1.86295e+07
1.8326e+07
1.80249e+07
1.77263e+07
1.74302e+07
1.71366e+07
1.68454e+07
1.65568e+07
1.62706e+07
1.5987e+07
1.57058e+07
1.54271e+07
1.51509e+07
1.48771e+07
1.46059e+07
1.43371e+07
1.40707e+07
1.38069e+07
1.35454e+07
1.32864e+07
1.30299e+07
1.27757e+07
1.2524e+07
1.22747e+07
1.20277e+07
1.1783e+07
1.15407e+07
1.13007e+07
1.10629e+07
1.08273e+07
1.05938e+07
1.03624e+07
1.01329e+07
9.90535e+06
9.67954e+06
9.45535e+06
9.2326e+06
9.01109e+06
8.79057e+06
8.57078e+06
8.35128e+06
8.13179e+06
7.91147e+06
7.69026e+06
7.46628e+06
7.23978e+06
7.00777e+06
6.77015e+06
6.52274e+06
6.26258e+06
5.98579e+06
5.68702e+06
3.78804e+07
3.71169e+07
3.64207e+07
3.57828e+07
3.51925e+07
3.46404e+07
3.41186e+07
3.3621e+07
3.31427e+07
3.26805e+07
3.22317e+07
3.17941e+07
3.13662e+07
3.09465e+07
3.0534e+07
3.01279e+07
2.97275e+07
2.93321e+07
2.89414e+07
2.85549e+07
2.81724e+07
2.77935e+07
2.74181e+07
2.7046e+07
2.6677e+07
2.63111e+07
2.59481e+07
2.5588e+07
2.52307e+07
2.48761e+07
2.45242e+07
2.4175e+07
2.38284e+07
2.34845e+07
2.31431e+07
2.28042e+07
2.2468e+07
2.21343e+07
2.18031e+07
2.14744e+07
2.11483e+07
2.08247e+07
2.05036e+07
2.0185e+07
1.98689e+07
1.95553e+07
1.92442e+07
1.89356e+07
1.86296e+07
1.8326e+07
1.80249e+07
1.77263e+07
1.74302e+07
1.71365e+07
1.68454e+07
1.65568e+07
1.62706e+07
1.59869e+07
1.57058e+07
1.54271e+07
1.51508e+07
1.48771e+07
1.46058e+07
1.4337e+07
1.40706e+07
1.38067e+07
1.35452e+07
1.32862e+07
1.30296e+07
1.27754e+07
1.25236e+07
1.22742e+07
1.20271e+07
1.17824e+07
1.154e+07
1.12998e+07
1.10618e+07
1.0826e+07
1.05922e+07
1.03605e+07
1.01307e+07
9.9027e+06
9.67638e+06
9.45158e+06
9.22811e+06
9.00576e+06
8.78424e+06
8.56325e+06
8.34236e+06
8.12122e+06
7.899e+06
7.67557e+06
7.44921e+06
7.21992e+06
6.98508e+06
6.74383e+06
6.49333e+06
6.2301e+06
5.95264e+06
5.65673e+06
3.79465e+07
3.71883e+07
3.64904e+07
3.58468e+07
3.52491e+07
3.46891e+07
3.416e+07
3.36558e+07
3.31719e+07
3.27049e+07
3.22519e+07
3.18109e+07
3.138e+07
3.09579e+07
3.05435e+07
3.01357e+07
2.97339e+07
2.93374e+07
2.89458e+07
2.85585e+07
2.81753e+07
2.77959e+07
2.74201e+07
2.70477e+07
2.66784e+07
2.63122e+07
2.59491e+07
2.55888e+07
2.52313e+07
2.48766e+07
2.45247e+07
2.41754e+07
2.38287e+07
2.34847e+07
2.31433e+07
2.28044e+07
2.24681e+07
2.21344e+07
2.18032e+07
2.14745e+07
2.11483e+07
2.08247e+07
2.05036e+07
2.0185e+07
1.98689e+07
1.95553e+07
1.92442e+07
1.89356e+07
1.86296e+07
1.8326e+07
1.80249e+07
1.77263e+07
1.74301e+07
1.71365e+07
1.68454e+07
1.65567e+07
1.62706e+07
1.59869e+07
1.57057e+07
1.5427e+07
1.51508e+07
1.4877e+07
1.46057e+07
1.43369e+07
1.40705e+07
1.38066e+07
1.35451e+07
1.3286e+07
1.30294e+07
1.27751e+07
1.25233e+07
1.22738e+07
1.20266e+07
1.17818e+07
1.15392e+07
1.12989e+07
1.10608e+07
1.08247e+07
1.05908e+07
1.03587e+07
1.01286e+07
9.9002e+06
9.67341e+06
9.44804e+06
9.22391e+06
9.00076e+06
8.7783e+06
8.5562e+06
8.33402e+06
8.11135e+06
7.88738e+06
7.66189e+06
7.43339e+06
7.20158e+06
6.96419e+06
6.7197e+06
6.46658e+06
6.20102e+06
5.92355e+06
5.63058e+06
3.80039e+07
3.72505e+07
3.65517e+07
3.59037e+07
3.53e+07
3.47335e+07
3.41979e+07
3.36878e+07
3.31988e+07
3.27273e+07
3.22706e+07
3.18264e+07
3.13929e+07
3.09686e+07
3.05523e+07
3.0143e+07
2.97399e+07
2.93424e+07
2.89498e+07
2.85619e+07
2.81781e+07
2.77982e+07
2.7422e+07
2.70492e+07
2.66797e+07
2.63133e+07
2.59499e+07
2.55895e+07
2.52319e+07
2.48771e+07
2.45251e+07
2.41757e+07
2.3829e+07
2.34849e+07
2.31434e+07
2.28045e+07
2.24682e+07
2.21345e+07
2.18032e+07
2.14746e+07
2.11484e+07
2.08248e+07
2.05036e+07
2.0185e+07
1.98689e+07
1.95553e+07
1.92442e+07
1.89357e+07
1.86296e+07
1.8326e+07
1.80249e+07
1.77263e+07
1.74301e+07
1.71365e+07
1.68454e+07
1.65567e+07
1.62706e+07
1.59869e+07
1.57057e+07
1.5427e+07
1.51507e+07
1.48769e+07
1.46056e+07
1.43368e+07
1.40704e+07
1.38064e+07
1.35449e+07
1.32858e+07
1.30291e+07
1.27748e+07
1.25229e+07
1.22734e+07
1.20262e+07
1.17812e+07
1.15386e+07
1.12981e+07
1.10598e+07
1.08236e+07
1.05894e+07
1.03571e+07
1.01267e+07
9.89789e+06
9.67065e+06
9.44476e+06
9.22e+06
8.99612e+06
8.77279e+06
8.54967e+06
8.3263e+06
8.10221e+06
7.87667e+06
7.64928e+06
7.41885e+06
7.18468e+06
6.94498e+06
6.69772e+06
6.44245e+06
6.1753e+06
5.89822e+06
5.60802e+06
3.80538e+07
3.73045e+07
3.66055e+07
3.59542e+07
3.53455e+07
3.47733e+07
3.42321e+07
3.37169e+07
3.32233e+07
3.27478e+07
3.22877e+07
3.18406e+07
3.14047e+07
3.09783e+07
3.05603e+07
3.01496e+07
2.97454e+07
2.93469e+07
2.89536e+07
2.8565e+07
2.81806e+07
2.78003e+07
2.74237e+07
2.70506e+07
2.66808e+07
2.63143e+07
2.59507e+07
2.55901e+07
2.52325e+07
2.48776e+07
2.45254e+07
2.4176e+07
2.38292e+07
2.34851e+07
2.31436e+07
2.28047e+07
2.24683e+07
2.21346e+07
2.18033e+07
2.14746e+07
2.11485e+07
2.08248e+07
2.05037e+07
2.01851e+07
1.9869e+07
1.95554e+07
1.92443e+07
1.89357e+07
1.86296e+07
1.8326e+07
1.80249e+07
1.77263e+07
1.74301e+07
1.71365e+07
1.68454e+07
1.65567e+07
1.62705e+07
1.59869e+07
1.57057e+07
1.54269e+07
1.51507e+07
1.48769e+07
1.46056e+07
1.43367e+07
1.40703e+07
1.38063e+07
1.35448e+07
1.32856e+07
1.30289e+07
1.27746e+07
1.25226e+07
1.2273e+07
1.20257e+07
1.17807e+07
1.15379e+07
1.12974e+07
1.10589e+07
1.08225e+07
1.05881e+07
1.03556e+07
1.01249e+07
9.89576e+06
9.66812e+06
9.44175e+06
9.21642e+06
8.99186e+06
8.76775e+06
8.54369e+06
8.31924e+06
8.09387e+06
7.86692e+06
7.63779e+06
7.40557e+06
7.1692e+06
6.92745e+06
6.67791e+06
6.42095e+06
6.1529e+06
5.87633e+06
5.58855e+06
3.80968e+07
3.73511e+07
3.66521e+07
3.59982e+07
3.53854e+07
3.48086e+07
3.42626e+07
3.37429e+07
3.32453e+07
3.27662e+07
3.23031e+07
3.18534e+07
3.14153e+07
3.09871e+07
3.05676e+07
3.01557e+07
2.97504e+07
2.9351e+07
2.8957e+07
2.85677e+07
2.81829e+07
2.78022e+07
2.74253e+07
2.70519e+07
2.66819e+07
2.63151e+07
2.59514e+07
2.55907e+07
2.52329e+07
2.4878e+07
2.45258e+07
2.41763e+07
2.38295e+07
2.34853e+07
2.31438e+07
2.28048e+07
2.24684e+07
2.21346e+07
2.18034e+07
2.14747e+07
2.11485e+07
2.08248e+07
2.05037e+07
2.01851e+07
1.9869e+07
1.95554e+07
1.92443e+07
1.89357e+07
1.86296e+07
1.8326e+07
1.80249e+07
1.77262e+07
1.74301e+07
1.71365e+07
1.68454e+07
1.65567e+07
1.62705e+07
1.59868e+07
1.57056e+07
1.54269e+07
1.51506e+07
1.48768e+07
1.46055e+07
1.43366e+07
1.40702e+07
1.38062e+07
1.35446e+07
1.32855e+07
1.30287e+07
1.27744e+07
1.25224e+07
1.22727e+07
1.20253e+07
1.17802e+07
1.15374e+07
1.12967e+07
1.10581e+07
1.08216e+07
1.0587e+07
1.03543e+07
1.01233e+07
9.89384e+06
9.66583e+06
9.43903e+06
9.21318e+06
8.98802e+06
8.76319e+06
8.5383e+06
8.31287e+06
8.08636e+06
7.85815e+06
7.62745e+06
7.3936e+06
7.1552e+06
6.91171e+06
6.66035e+06
6.40215e+06
6.13364e+06
5.85755e+06
5.57177e+06
3.81335e+07
3.73908e+07
3.6692e+07
3.60362e+07
3.54201e+07
3.48394e+07
3.42894e+07
3.37658e+07
3.32646e+07
3.27825e+07
3.23167e+07
3.18648e+07
3.14247e+07
3.0995e+07
3.05741e+07
3.0161e+07
2.97548e+07
2.93546e+07
2.896e+07
2.85702e+07
2.8185e+07
2.78039e+07
2.74267e+07
2.7053e+07
2.66828e+07
2.63159e+07
2.59521e+07
2.55913e+07
2.52334e+07
2.48783e+07
2.4526e+07
2.41765e+07
2.38297e+07
2.34855e+07
2.31439e+07
2.28049e+07
2.24685e+07
2.21347e+07
2.18034e+07
2.14747e+07
2.11485e+07
2.08249e+07
2.05037e+07
2.01851e+07
1.9869e+07
1.95554e+07
1.92443e+07
1.89357e+07
1.86296e+07
1.8326e+07
1.80249e+07
1.77262e+07
1.74301e+07
1.71365e+07
1.68453e+07
1.65567e+07
1.62705e+07
1.59868e+07
1.57056e+07
1.54269e+07
1.51506e+07
1.48768e+07
1.46054e+07
1.43365e+07
1.40701e+07
1.38061e+07
1.35445e+07
1.32853e+07
1.30286e+07
1.27742e+07
1.25221e+07
1.22724e+07
1.2025e+07
1.17798e+07
1.15369e+07
1.12961e+07
1.10574e+07
1.08207e+07
1.0586e+07
1.03531e+07
1.01218e+07
9.89213e+06
9.6638e+06
9.43661e+06
9.21031e+06
8.98461e+06
8.75915e+06
8.53351e+06
8.30724e+06
8.07972e+06
7.85039e+06
7.61832e+06
7.38303e+06
7.14286e+06
6.89787e+06
6.64515e+06
6.38601e+06
6.1173e+06
5.84156e+06
5.55743e+06
3.81643e+07
3.74241e+07
3.67257e+07
3.60684e+07
3.54497e+07
3.48657e+07
3.43123e+07
3.37855e+07
3.32814e+07
3.27966e+07
3.23285e+07
3.18746e+07
3.14329e+07
3.10017e+07
3.05797e+07
3.01656e+07
2.97586e+07
2.93578e+07
2.89626e+07
2.85724e+07
2.81868e+07
2.78054e+07
2.74279e+07
2.7054e+07
2.66837e+07
2.63166e+07
2.59526e+07
2.55917e+07
2.52337e+07
2.48786e+07
2.45263e+07
2.41767e+07
2.38298e+07
2.34856e+07
2.3144e+07
2.2805e+07
2.24686e+07
2.21348e+07
2.18035e+07
2.14748e+07
2.11486e+07
2.08249e+07
2.05038e+07
2.01851e+07
1.9869e+07
1.95554e+07
1.92443e+07
1.89357e+07
1.86296e+07
1.8326e+07
1.80249e+07
1.77262e+07
1.74301e+07
1.71365e+07
1.68453e+07
1.65567e+07
1.62705e+07
1.59868e+07
1.57056e+07
1.54268e+07
1.51505e+07
1.48767e+07
1.46054e+07
1.43365e+07
1.407e+07
1.3806e+07
1.35444e+07
1.32852e+07
1.30284e+07
1.2774e+07
1.25219e+07
1.22721e+07
1.20247e+07
1.17795e+07
1.15364e+07
1.12956e+07
1.10568e+07
1.082e+07
1.05851e+07
1.0352e+07
1.01206e+07
9.89065e+06
9.66203e+06
9.43451e+06
9.20782e+06
8.98165e+06
8.75564e+06
8.52937e+06
8.30235e+06
8.07397e+06
7.84367e+06
7.61045e+06
7.37393e+06
7.13232e+06
6.88606e+06
6.63231e+06
6.37243e+06
6.10364e+06
5.82817e+06
5.54537e+06
3.81896e+07
3.74514e+07
3.67533e+07
3.60949e+07
3.54741e+07
3.48876e+07
3.43315e+07
3.3802e+07
3.32954e+07
3.28085e+07
3.23384e+07
3.18829e+07
3.14398e+07
3.10074e+07
3.05844e+07
3.01696e+07
2.97618e+07
2.93605e+07
2.89648e+07
2.85742e+07
2.81882e+07
2.78066e+07
2.74289e+07
2.70549e+07
2.66843e+07
2.63171e+07
2.59531e+07
2.55921e+07
2.52341e+07
2.48789e+07
2.45265e+07
2.41769e+07
2.383e+07
2.34857e+07
2.31441e+07
2.28051e+07
2.24687e+07
2.21348e+07
2.18035e+07
2.14748e+07
2.11486e+07
2.08249e+07
2.05038e+07
2.01851e+07
1.9869e+07
1.95554e+07
1.92443e+07
1.89357e+07
1.86296e+07
1.8326e+07
1.80249e+07
1.77262e+07
1.74301e+07
1.71365e+07
1.68453e+07
1.65567e+07
1.62705e+07
1.59868e+07
1.57055e+07
1.54268e+07
1.51505e+07
1.48767e+07
1.46053e+07
1.43364e+07
1.407e+07
1.38059e+07
1.35443e+07
1.32851e+07
1.30283e+07
1.27738e+07
1.25217e+07
1.22719e+07
1.20244e+07
1.17792e+07
1.15361e+07
1.12951e+07
1.10563e+07
1.08194e+07
1.05844e+07
1.03511e+07
1.01195e+07
9.8894e+06
9.66054e+06
9.43274e+06
9.20572e+06
8.97916e+06
8.75269e+06
8.52588e+06
8.29825e+06
8.06914e+06
7.83803e+06
7.60385e+06
7.36633e+06
7.12362e+06
6.87631e+06
6.62177e+06
6.36126e+06
6.09246e+06
5.81721e+06
5.53547e+06
3.82097e+07
3.7473e+07
3.67751e+07
3.61159e+07
3.54936e+07
3.49051e+07
3.43469e+07
3.38152e+07
3.33066e+07
3.2818e+07
3.23464e+07
3.18895e+07
3.14453e+07
3.1012e+07
3.05882e+07
3.01727e+07
2.97645e+07
2.93626e+07
2.89666e+07
2.85757e+07
2.81895e+07
2.78076e+07
2.74297e+07
2.70555e+07
2.66849e+07
2.63176e+07
2.59535e+07
2.55924e+07
2.52343e+07
2.48791e+07
2.45267e+07
2.4177e+07
2.38301e+07
2.34858e+07
2.31442e+07
2.28052e+07
2.24687e+07
2.21349e+07
2.18036e+07
2.14748e+07
2.11486e+07
2.08249e+07
2.05038e+07
2.01852e+07
1.9869e+07
1.95554e+07
1.92443e+07
1.89357e+07
1.86296e+07
1.8326e+07
1.80249e+07
1.77262e+07
1.74301e+07
1.71365e+07
1.68453e+07
1.65566e+07
1.62705e+07
1.59868e+07
1.57055e+07
1.54268e+07
1.51505e+07
1.48767e+07
1.46053e+07
1.43364e+07
1.40699e+07
1.38059e+07
1.35442e+07
1.3285e+07
1.30282e+07
1.27737e+07
1.25216e+07
1.22718e+07
1.20242e+07
1.17789e+07
1.15358e+07
1.12948e+07
1.10558e+07
1.08189e+07
1.05838e+07
1.03504e+07
1.01187e+07
9.88839e+06
9.65934e+06
9.43131e+06
9.20402e+06
8.97715e+06
8.75032e+06
8.52307e+06
8.29494e+06
8.06525e+06
7.83348e+06
7.59856e+06
7.36023e+06
7.11671e+06
6.86859e+06
6.61345e+06
6.35242e+06
6.08364e+06
5.80858e+06
5.52763e+06
3.82246e+07
3.7489e+07
3.67913e+07
3.61315e+07
3.55081e+07
3.49182e+07
3.43584e+07
3.38252e+07
3.33151e+07
3.28251e+07
3.23524e+07
3.18946e+07
3.14495e+07
3.10155e+07
3.05911e+07
3.01751e+07
2.97664e+07
2.93643e+07
2.89679e+07
2.85768e+07
2.81904e+07
2.78083e+07
2.74303e+07
2.7056e+07
2.66853e+07
2.63179e+07
2.59538e+07
2.55926e+07
2.52345e+07
2.48793e+07
2.45268e+07
2.41771e+07
2.38302e+07
2.34859e+07
2.31442e+07
2.28052e+07
2.24688e+07
2.21349e+07
2.18036e+07
2.14749e+07
2.11486e+07
2.0825e+07
2.05038e+07
2.01852e+07
1.9869e+07
1.95554e+07
1.92443e+07
1.89357e+07
1.86296e+07
1.8326e+07
1.80249e+07
1.77262e+07
1.74301e+07
1.71365e+07
1.68453e+07
1.65566e+07
1.62705e+07
1.59868e+07
1.57055e+07
1.54268e+07
1.51505e+07
1.48766e+07
1.46053e+07
1.43364e+07
1.40699e+07
1.38058e+07
1.35442e+07
1.32849e+07
1.30281e+07
1.27736e+07
1.25215e+07
1.22716e+07
1.20241e+07
1.17787e+07
1.15356e+07
1.12945e+07
1.10555e+07
1.08185e+07
1.05833e+07
1.03499e+07
1.0118e+07
9.88763e+06
9.65844e+06
9.43023e+06
9.20274e+06
8.97563e+06
8.74852e+06
8.52095e+06
8.29244e+06
8.06231e+06
7.83005e+06
7.59459e+06
7.35566e+06
7.11156e+06
6.86284e+06
6.60727e+06
6.34584e+06
6.07709e+06
5.8022e+06
5.52177e+06
3.82344e+07
3.74996e+07
3.6802e+07
3.61419e+07
3.55178e+07
3.49269e+07
3.43661e+07
3.38318e+07
3.33208e+07
3.28299e+07
3.23564e+07
3.18979e+07
3.14523e+07
3.10178e+07
3.05931e+07
3.01767e+07
2.97677e+07
2.93653e+07
2.89688e+07
2.85775e+07
2.8191e+07
2.78088e+07
2.74307e+07
2.70564e+07
2.66856e+07
2.63182e+07
2.59539e+07
2.55928e+07
2.52346e+07
2.48794e+07
2.45269e+07
2.41772e+07
2.38302e+07
2.34859e+07
2.31443e+07
2.28052e+07
2.24688e+07
2.21349e+07
2.18036e+07
2.14749e+07
2.11487e+07
2.0825e+07
2.05038e+07
2.01852e+07
1.9869e+07
1.95554e+07
1.92443e+07
1.89357e+07
1.86296e+07
1.8326e+07
1.80249e+07
1.77262e+07
1.74301e+07
1.71365e+07
1.68453e+07
1.65566e+07
1.62705e+07
1.59867e+07
1.57055e+07
1.54268e+07
1.51505e+07
1.48766e+07
1.46053e+07
1.43363e+07
1.40698e+07
1.38058e+07
1.35441e+07
1.32849e+07
1.3028e+07
1.27736e+07
1.25214e+07
1.22715e+07
1.2024e+07
1.17786e+07
1.15354e+07
1.12943e+07
1.10553e+07
1.08182e+07
1.0583e+07
1.03495e+07
1.01176e+07
9.88712e+06
9.65783e+06
9.42951e+06
9.20189e+06
8.97461e+06
8.74732e+06
8.51953e+06
8.29076e+06
8.06035e+06
7.82776e+06
7.59194e+06
7.35263e+06
7.10816e+06
6.85903e+06
6.60319e+06
6.34146e+06
6.07276e+06
5.79798e+06
5.51788e+06
3.82392e+07
3.75048e+07
3.68073e+07
3.61471e+07
3.55226e+07
3.49313e+07
3.43699e+07
3.38351e+07
3.33236e+07
3.28323e+07
3.23585e+07
3.18996e+07
3.14537e+07
3.1019e+07
3.0594e+07
3.01775e+07
2.97684e+07
2.93659e+07
2.89692e+07
2.85779e+07
2.81913e+07
2.78091e+07
2.74309e+07
2.70566e+07
2.66857e+07
2.63183e+07
2.5954e+07
2.55929e+07
2.52347e+07
2.48794e+07
2.45269e+07
2.41772e+07
2.38303e+07
2.3486e+07
2.31443e+07
2.28053e+07
2.24688e+07
2.21349e+07
2.18036e+07
2.14749e+07
2.11487e+07
2.0825e+07
2.05038e+07
2.01852e+07
1.9869e+07
1.95554e+07
1.92443e+07
1.89357e+07
1.86296e+07
1.8326e+07
1.80249e+07
1.77262e+07
1.74301e+07
1.71365e+07
1.68453e+07
1.65566e+07
1.62704e+07
1.59867e+07
1.57055e+07
1.54267e+07
1.51505e+07
1.48766e+07
1.46052e+07
1.43363e+07
1.40698e+07
1.38058e+07
1.35441e+07
1.32849e+07
1.3028e+07
1.27735e+07
1.25214e+07
1.22715e+07
1.20239e+07
1.17785e+07
1.15353e+07
1.12943e+07
1.10552e+07
1.08181e+07
1.05829e+07
1.03493e+07
1.01174e+07
9.88686e+06
9.65752e+06
9.42915e+06
9.20146e+06
8.9741e+06
8.74671e+06
8.51882e+06
8.28992e+06
8.05937e+06
7.82661e+06
7.59063e+06
7.35111e+06
7.10647e+06
6.85714e+06
6.60117e+06
6.3393e+06
6.0706e+06
5.79589e+06
5.51598e+06
3.38217e+07
3.37706e+07
3.36707e+07
3.35254e+07
3.334e+07
3.31195e+07
3.28694e+07
3.25944e+07
3.2299e+07
3.19869e+07
3.16613e+07
3.1325e+07
3.09803e+07
3.06291e+07
3.02729e+07
2.99131e+07
2.95507e+07
2.91867e+07
2.88217e+07
2.84564e+07
2.80913e+07
2.77268e+07
2.73632e+07
2.70009e+07
2.66399e+07
2.62806e+07
2.5923e+07
2.55673e+07
2.52137e+07
2.48621e+07
2.45127e+07
2.41656e+07
2.38207e+07
2.34781e+07
2.31378e+07
2.27999e+07
2.24644e+07
2.21314e+07
2.18007e+07
2.14725e+07
2.11467e+07
2.08234e+07
2.05025e+07
2.01841e+07
1.98682e+07
1.95548e+07
1.92438e+07
1.89354e+07
1.86294e+07
1.83259e+07
1.80249e+07
1.77264e+07
1.74304e+07
1.71369e+07
1.68459e+07
1.65573e+07
1.62713e+07
1.59878e+07
1.57068e+07
1.54284e+07
1.51524e+07
1.4879e+07
1.46081e+07
1.43397e+07
1.40739e+07
1.38107e+07
1.355e+07
1.32919e+07
1.30364e+07
1.27835e+07
1.25333e+07
1.22858e+07
1.20409e+07
1.17989e+07
1.15597e+07
1.13233e+07
1.10899e+07
1.08596e+07
1.06324e+07
1.04084e+07
1.01879e+07
9.97104e+06
9.75798e+06
9.54902e+06
9.34445e+06
9.14467e+06
8.95012e+06
8.76133e+06
8.57895e+06
8.40376e+06
8.23667e+06
8.07878e+06
7.93137e+06
7.79597e+06
7.67428e+06
7.56823e+06
7.47987e+06
7.41125e+06
7.36425e+06
7.34035e+06
3.38306e+07
3.37792e+07
3.36786e+07
3.35326e+07
3.33462e+07
3.31249e+07
3.28739e+07
3.25983e+07
3.23022e+07
3.19895e+07
3.16635e+07
3.13268e+07
3.09818e+07
3.06303e+07
3.02739e+07
2.99139e+07
2.95514e+07
2.91872e+07
2.88222e+07
2.84568e+07
2.80917e+07
2.77271e+07
2.73635e+07
2.7001e+07
2.664e+07
2.62807e+07
2.59231e+07
2.55674e+07
2.52138e+07
2.48622e+07
2.45128e+07
2.41656e+07
2.38207e+07
2.34781e+07
2.31378e+07
2.27999e+07
2.24644e+07
2.21314e+07
2.18007e+07
2.14725e+07
2.11467e+07
2.08234e+07
2.05025e+07
2.01841e+07
1.98682e+07
1.95548e+07
1.92439e+07
1.89354e+07
1.86294e+07
1.83259e+07
1.80249e+07
1.77264e+07
1.74304e+07
1.71369e+07
1.68459e+07
1.65573e+07
1.62713e+07
1.59878e+07
1.57068e+07
1.54284e+07
1.51524e+07
1.4879e+07
1.46081e+07
1.43397e+07
1.40739e+07
1.38106e+07
1.35499e+07
1.32918e+07
1.30363e+07
1.27835e+07
1.25333e+07
1.22857e+07
1.20409e+07
1.17988e+07
1.15596e+07
1.13232e+07
1.10898e+07
1.08594e+07
1.06322e+07
1.04082e+07
1.01877e+07
9.97077e+06
9.75767e+06
9.54864e+06
9.344e+06
9.14413e+06
8.94947e+06
8.76056e+06
8.57803e+06
8.40265e+06
8.23535e+06
8.07721e+06
7.92952e+06
7.79378e+06
7.67173e+06
7.56529e+06
7.47654e+06
7.40757e+06
7.36031e+06
7.33626e+06
3.38486e+07
3.37965e+07
3.36946e+07
3.35469e+07
3.33588e+07
3.31357e+07
3.2883e+07
3.26059e+07
3.23085e+07
3.19948e+07
3.16679e+07
3.13304e+07
3.09848e+07
3.06327e+07
3.02759e+07
2.99156e+07
2.95527e+07
2.91883e+07
2.88231e+07
2.84576e+07
2.80923e+07
2.77276e+07
2.73639e+07
2.70014e+07
2.66403e+07
2.62809e+07
2.59233e+07
2.55676e+07
2.52139e+07
2.48623e+07
2.45129e+07
2.41657e+07
2.38207e+07
2.34781e+07
2.31379e+07
2.28e+07
2.24645e+07
2.21314e+07
2.18007e+07
2.14725e+07
2.11467e+07
2.08234e+07
2.05025e+07
2.01842e+07
1.98682e+07
1.95548e+07
1.92439e+07