/*--------------------------------*- C++ -*----------------------------------*\
| =========                 |                                                 |
| \\      /  F ield         | OpenFOAM: The Open Source CFD Toolbox           |
|  \\    /   O peration     | Version:  2.4.0                                 |
|   \\  /    A nd           | Web:      www.OpenFOAM.org                      |
|    \\/     M anipulation  |                                                 |
\*---------------------------------------------------------------------------*/
FoamFile
{
    version     2.0;
    format      ascii;
    class       volVectorField;
    location    "0.22";
    object      U_0;
}
// * * * * * * * * * * * * * * * * * * * * * * * * * * * * * * * * * * * * * //

dimensions      [0 1 -1 0 0 0 0];

internalField   nonuniform List<vector> 
17600
(
(5.32874 0.309352 0)
(2.98639 0.0606435 0)
(2.19683 -0.00144223 0)
(1.8433 -0.00368652 0)
(1.71304 -0.00147186 0)
(1.60183 0.000244199 0)
(1.54806 -0.000213389 0)
(1.47382 -0.000372569 0)
(1.4384 0.000765543 0)
(1.40182 -0.00100987 0)
(1.37621 0.000421103 0)
(1.35943 -9.38324e-05 0)
(1.32092 0.000655407 0)
(1.33589 -0.00144295 0)
(1.28144 0.00196046 0)
(1.3071 -0.00112609 0)
(1.27014 0.00050746 0)
(1.26082 0.00208431 0)
(1.30958 0.00232431 0)
(1.24021 -0.00892408 0)
(8.60258 0.8717 0)
(6.9483 0.383574 0)
(5.81728 0.122663 0)
(5.04426 0.0501475 0)
(4.67016 0.0281403 0)
(4.35093 0.0214375 0)
(4.20971 0.0151019 0)
(3.99808 0.012426 0)
(3.90205 0.0111359 0)
(3.8039 0.00504303 0)
(3.71327 0.00695418 0)
(3.67574 0.00564308 0)
(3.57023 0.0052909 0)
(3.60835 0.000276162 0)
(3.44975 0.00889507 0)
(3.54523 -0.00299141 0)
(3.42377 0.00652295 0)
(3.41333 -0.00437893 0)
(3.60127 0.0143779 0)
(3.25461 0.0385485 0)
(9.86448 1.02145 0)
(9.33771 0.577231 0)
(8.4903 0.243396 0)
(7.62006 0.128391 0)
(7.12307 0.0821029 0)
(6.65226 0.058953 0)
(6.45242 0.0420229 0)
(6.13918 0.0358136 0)
(5.98847 0.0281409 0)
(5.85271 0.0178771 0)
(5.69331 0.0185764 0)
(5.65085 0.0158006 0)
(5.47813 0.0127286 0)
(5.54731 0.00598942 0)
(5.28538 0.0185145 0)
(5.45589 -0.00499224 0)
(5.2445 0.0182842 0)
(5.25292 -0.0166089 0)
(5.49715 0.0270465 0)
(4.98562 0.0368518 0)
(10.1763 0.947008 0)
(10.5503 0.66822 0)
(10.2873 0.333843 0)
(9.60879 0.20722 0)
(9.16792 0.148673 0)
(8.63148 0.108866 0)
(8.41803 0.0779644 0)
(8.0495 0.0685734 0)
(7.85035 0.0505076 0)
(7.70631 0.0367952 0)
(7.47922 0.0347284 0)
(7.44885 0.0302088 0)
(7.20702 0.0224246 0)
(7.31755 0.0158144 0)
(6.95606 0.0303181 0)
(7.20039 -0.00609652 0)
(6.89449 0.0337305 0)
(6.96267 -0.0292941 0)
(7.131 0.0391675 0)
(6.70267 0.0229838 0)
(10.1055 0.804731 0)
(10.8871 0.669085 0)
(11.1766 0.361716 0)
(10.8447 0.252145 0)
(10.6461 0.204663 0)
(10.1747 0.159914 0)
(10.0121 0.115855 0)
(9.66513 0.106654 0)
(9.43375 0.075831 0)
(9.32177 0.0592878 0)
(9.04149 0.0542525 0)
(9.03994 0.0475433 0)
(8.74109 0.0336855 0)
(8.89402 0.0285322 0)
(8.46044 0.0440181 0)
(8.75642 -0.00585672 0)
(8.3767 0.0500197 0)
(8.52798 -0.037296 0)
(8.51296 0.047986 0)
(8.41015 -0.0148284 0)
(10.0447 0.690076 0)
(10.7973 0.635447 0)
(11.3773 0.34041 0)
(11.2987 0.246847 0)
(11.409 0.225367 0)
(11.1282 0.194019 0)
(11.0885 0.143023 0)
(10.8678 0.14189 0)
(10.6478 0.0999653 0)
(10.6095 0.0813057 0)
(10.3191 0.0750125 0)
(10.356 0.0658092 0)
(10.0388 0.0457497 0)
(10.2172 0.0419776 0)
(9.77255 0.0591752 0)
(10.0731 -0.00424205 0)
(9.67764 0.0640426 0)
(9.88104 -0.035376 0)
(9.71458 0.0457058 0)
(9.81212 -0.0589578 0)
(10.0674 0.600028 0)
(10.6368 0.601894 0)
(11.3191 0.310889 0)
(11.2898 0.216177 0)
(11.5677 0.20979 0)
(11.4793 0.201707 0)
(11.5474 0.146529 0)
(11.5295 0.161136 0)
(11.383 0.113934 0)
(11.4499 0.0949463 0)
(11.2237 0.0921397 0)
(11.306 0.0806606 0)
(11.0383 0.0571492 0)
(11.2143 0.0530976 0)
(10.8421 0.0748213 0)
(11.0938 -0.0022353 0)
(10.7637 0.0736166 0)
(10.942 -0.0260026 0)
(10.8028 0.0416131 0)
(10.8001 -0.0649481 0)
(10.1271 0.520519 0)
(10.5221 0.568231 0)
(11.2164 0.290979 0)
(11.1963 0.191189 0)
(11.4602 0.180563 0)
(11.5045 0.195231 0)
(11.5704 0.133833 0)
(11.6945 0.161499 0)
(11.6416 0.11376 0)
(11.7765 0.09335 0)
(11.684 0.0991268 0)
(11.7949 0.0852319 0)
(11.6521 0.0632129 0)
(11.807 0.0572238 0)
(11.5854 0.0867992 0)
(11.763 -0.00133309 0)
(11.564 0.0776783 0)
(11.6677 -0.018066 0)
(11.6838 0.0313755 0)
(11.52 0.0187648 0)
(10.1427 0.444227 0)
(10.4781 0.530073 0)
(11.1294 0.275866 0)
(11.1633 0.175594 0)
(11.3298 0.150029 0)
(11.4327 0.184377 0)
(11.4846 0.1178 0)
(11.6162 0.153078 0)
(11.656 0.105529 0)
(11.7656 0.0824121 0)
(11.8055 0.096042 0)
(11.8835 0.0797533 0)
(11.8718 0.0610619 0)
(11.9882 0.0520749 0)
(11.9353 0.0904068 0)
(12.0484 -0.0049618 0)
(11.9927 0.0749257 0)
(12.0507 -0.0180054 0)
(12.1905 0.0188151 0)
(12.0166 0.0386004 0)
(10.0924 0.37732 0)
(10.4704 0.482004 0)
(11.0241 0.263763 0)
(11.1704 0.163688 0)
(11.2812 0.127751 0)
(11.348 0.171551 0)
(11.443 0.105193 0)
(11.5119 0.138996 0)
(11.5869 0.0959113 0)
(11.6793 0.0664554 0)
(11.7895 0.0917148 0)
(11.8239 0.0696189 0)
(11.8829 0.0581294 0)
(11.959 0.0389582 0)
(11.9954 0.088533 0)
(12.0567 -0.0138377 0)
(12.0934 0.0672609 0)
(12.1571 -0.0313794 0)
(12.2553 0.0107163 0)
(12.197 -0.026697 0)
(10.041 0.314354 0)
(10.4197 0.437071 0)
(10.9203 0.248545 0)
(11.1611 0.148434 0)
(11.2563 0.111391 0)
(11.3032 0.161055 0)
(11.4446 0.0895896 0)
(11.4328 0.135337 0)
(11.4959 0.0840844 0)
(11.6047 0.0511627 0)
(11.7388 0.0826775 0)
(11.7715 0.0616501 0)
(11.8805 0.0515528 0)
(11.9155 0.0297879 0)
(11.9542 0.083755 0)
(11.9829 -0.021167 0)
(12.0662 0.0539339 0)
(12.0951 -0.0387627 0)
(12.1378 -0.0135559 0)
(12.2052 -0.0405078 0)
(9.9976 0.265466 0)
(10.3677 0.387768 0)
(10.8712 0.23086 0)
(11.0918 0.131256 0)
(11.1995 0.0976461 0)
(11.2943 0.14276 0)
(11.4225 0.0814678 0)
(11.3766 0.130976 0)
(11.4727 0.0757251 0)
(11.5698 0.031025 0)
(11.669 0.0752351 0)
(11.7114 0.0494769 0)
(11.8625 0.0452386 0)
(11.8633 0.0248961 0)
(11.8853 0.0835244 0)
(11.9372 -0.0291702 0)
(12.0218 0.0386614 0)
(12.0566 -0.0407979 0)
(12.0362 -0.0371425 0)
(12.1583 -0.0655217 0)
(9.97274 0.222075 0)
(10.3617 0.335205 0)
(10.8123 0.210948 0)
(11.01 0.121694 0)
(11.1509 0.0781275 0)
(11.256 0.124742 0)
(11.3883 0.0722203 0)
(11.3761 0.1247 0)
(11.4875 0.0629966 0)
(11.5264 0.0194025 0)
(11.5947 0.0726149 0)
(11.6532 0.0324001 0)
(11.7961 0.0412544 0)
(11.8004 0.0196747 0)
(11.8491 0.0788154 0)
(11.921 -0.0356793 0)
(11.979 0.0183724 0)
(12.0424 -0.03889 0)
(11.9679 -0.0568972 0)
(12.1345 -0.117983 0)
(9.9873 0.182369 0)
(10.3481 0.284579 0)
(10.7168 0.191158 0)
(10.9556 0.110383 0)
(11.1295 0.0651957 0)
(11.209 0.10261 0)
(11.3563 0.0616484 0)
(11.391 0.109712 0)
(11.4632 0.0614579 0)
(11.4503 0.0111003 0)
(11.555 0.065636 0)
(11.6294 0.0212419 0)
(11.7408 0.031751 0)
(11.7614 0.0154417 0)
(11.8286 0.06703 0)
(11.906 -0.0416161 0)
(11.9194 0.00690676 0)
(12.0026 -0.0420935 0)
(11.946 -0.0795985 0)
(12.068 -0.155914 0)
(10.0066 0.143256 0)
(10.2936 0.243788 0)
(10.6562 0.163245 0)
(10.9363 0.099073 0)
(11.1184 0.0500598 0)
(11.1784 0.0868907 0)
(11.318 0.0440734 0)
(11.3546 0.101794 0)
(11.4158 0.0583092 0)
(11.4117 0.00486047 0)
(11.5531 0.0519223 0)
(11.6098 0.0112616 0)
(11.7129 0.0249394 0)
(11.7368 0.010339 0)
(11.7813 0.0546982 0)
(11.8809 -0.0433152 0)
(11.8633 -0.00994675 0)
(11.9762 -0.0475191 0)
(11.95 -0.0976109 0)
(11.9562 -0.164128 0)
(10.0005 0.111943 0)
(10.2618 0.198948 0)
(10.6493 0.132499 0)
(10.9157 0.0834568 0)
(11.085 0.0436473 0)
(11.1501 0.0665384 0)
(11.2865 0.0350501 0)
(11.3092 0.0858006 0)
(11.4008 0.0578695 0)
(11.416 -0.0100012 0)
(11.548 0.044932 0)
(11.574 0.00168127 0)
(11.6797 0.0200475 0)
(11.6992 0.00424475 0)
(11.7256 0.0493806 0)
(11.8596 -0.0545743 0)
(11.8418 -0.0166414 0)
(11.9549 -0.0676186 0)
(11.938 -0.0863487 0)
(11.9115 -0.216385 0)
(9.99926 0.0819057 0)
(10.2656 0.152224 0)
(10.6204 0.102405 0)
(10.8757 0.0741796 0)
(11.0573 0.03502 0)
(11.1417 0.0474147 0)
(11.2646 0.021641 0)
(11.2921 0.0719145 0)
(11.3916 0.0493189 0)
(11.4108 -0.0150918 0)
(11.5256 0.0334444 0)
(11.5439 -0.00107825 0)
(11.6516 0.00768359 0)
(11.6614 0.00817291 0)
(11.7054 0.0275124 0)
(11.8612 -0.0524308 0)
(11.8234 -0.0371607 0)
(11.907 -0.0618336 0)
(11.9212 -0.112272 0)
(11.8974 -0.157991 0)
(10.0147 0.0523039 0)
(10.243 0.109437 0)
(10.5703 0.0743381 0)
(10.8662 0.0609294 0)
(11.0674 0.024581 0)
(11.1407 0.030003 0)
(11.2321 0.00973684 0)
(11.2642 0.0578077 0)
(11.3666 0.0419681 0)
(11.4011 -0.0218672 0)
(11.508 0.0229971 0)
(11.5323 -0.00450618 0)
(11.626 -0.00273534 0)
(11.6534 0.00500358 0)
(11.716 0.0106238 0)
(11.8556 -0.0547964 0)
(11.7712 -0.0486326 0)
(11.8672 -0.0645531 0)
(11.9377 -0.132045 0)
(11.8666 -0.11224 0)
(10.0151 0.0269323 0)
(10.2196 0.0662475 0)
(10.5619 0.0446968 0)
(10.876 0.0388721 0)
(11.0637 0.021875 0)
(11.1212 0.0124191 0)
(11.2036 0.00411009 0)
(11.2437 0.0381159 0)
(11.3645 0.0351346 0)
(11.4053 -0.0327297 0)
(11.5038 0.017741 0)
(11.5165 -0.0117554 0)
(11.6066 -0.00836041 0)
(11.6527 -0.00379078 0)
(11.7185 -0.000589723 0)
(11.8249 -0.0610093 0)
(11.7306 -0.0474754 0)
(11.8773 -0.0899073 0)
(11.9504 -0.130764 0)
(11.8221 -0.165956 0)
(10.0051 0.000643384 0)
(10.2313 0.0241672 0)
(10.5719 0.0107146 0)
(10.8544 0.024686 0)
(11.0416 0.015552 0)
(11.1219 0.000968195 0)
(11.2019 -0.0111353 0)
(11.2467 0.0248376 0)
(11.3666 0.0185909 0)
(11.4095 -0.0305672 0)
(11.4932 0.00228798 0)
(11.5003 -0.00647428 0)
(11.6033 -0.0242861 0)
(11.6523 -0.00647301 0)
(11.7108 -0.0158926 0)
(11.7945 -0.0587259 0)
(11.7438 -0.0614851 0)
(11.9019 -0.104977 0)
(11.9123 -0.137948 0)
(11.7748 -0.200018 0)
(10.0069 -0.0233229 0)
(10.2469 -0.0232184 0)
(10.5551 -0.0140461 0)
(10.8313 0.00456242 0)
(11.0561 0.0121051 0)
(11.1431 -0.020132 0)
(11.1982 -0.0164286 0)
(11.2413 0.00342184 0)
(11.3577 0.0122103 0)
(11.4084 -0.0414045 0)
(11.4803 0.00134535 0)
(11.5072 -0.0187587 0)
(11.6131 -0.0281544 0)
(11.6484 -0.0201479 0)
(11.7162 -0.0167139 0)
(11.7763 -0.0712323 0)
(11.7692 -0.0624047 0)
(11.9023 -0.129301 0)
(11.8483 -0.12011 0)
(11.7916 -0.257352 0)
(10.0121 -0.0516629 0)
(10.246 -0.063356 0)
(10.5451 -0.0424669 0)
(10.8521 -0.0146163 0)
(11.0786 0.00169984 0)
(11.137 -0.0295865 0)
(11.1858 -0.0278726 0)
(11.2459 -0.00883272 0)
(11.366 -0.0057979 0)
(11.4102 -0.0391775 0)
(11.486 -0.0137288 0)
(11.5303 -0.0181389 0)
(11.6067 -0.0418506 0)
(11.6472 -0.0216775 0)
(11.7283 -0.0331119 0)
(11.7564 -0.0654502 0)
(11.7991 -0.0882426 0)
(11.8807 -0.119 0)
(11.8279 -0.145067 0)
(11.8639 -0.209009 0)
(10.0094 -0.0771368 0)
(10.2483 -0.107725 0)
(10.5652 -0.0706904 0)
(10.8816 -0.0363714 0)
(11.0768 -0.00179358 0)
(11.1248 -0.0434931 0)
(11.1946 -0.0378523 0)
(11.2738 -0.0282487 0)
(11.3813 -0.0174323 0)
(11.407 -0.0423522 0)
(11.5062 -0.023831 0)
(11.5458 -0.0210485 0)
(11.5984 -0.0480406 0)
(11.6639 -0.0319411 0)
(11.7333 -0.0399388 0)
(11.7594 -0.0698854 0)
(11.8367 -0.104533 0)
(11.8491 -0.115813 0)
(11.8627 -0.167455 0)
(11.8809 -0.159821 0)
(10.0032 -0.10556 0)
(10.2668 -0.152116 0)
(10.5927 -0.0990645 0)
(10.896 -0.0538992 0)
(11.0747 -0.00717178 0)
(11.1374 -0.0590868 0)
(11.2242 -0.0491313 0)
(11.2969 -0.0465083 0)
(11.3806 -0.0253227 0)
(11.4145 -0.0491274 0)
(11.5363 -0.0312672 0)
(11.5487 -0.0302678 0)
(11.6179 -0.0484569 0)
(11.6897 -0.0497665 0)
(11.7343 -0.0380757 0)
(11.7823 -0.0865405 0)
(11.8609 -0.103173 0)
(11.8308 -0.134311 0)
(11.9012 -0.163655 0)
(11.8456 -0.201882 0)
(10.0011 -0.135984 0)
(10.2907 -0.196398 0)
(10.6151 -0.128202 0)
(10.9156 -0.0675678 0)
(11.0892 -0.0170566 0)
(11.1605 -0.0721289 0)
(11.2524 -0.0664891 0)
(11.3103 -0.0532678 0)
(11.3861 -0.0433526 0)
(11.448 -0.0488171 0)
(11.5654 -0.0489654 0)
(11.5536 -0.0255213 0)
(11.6561 -0.0631124 0)
(11.6984 -0.0527295 0)
(11.748 -0.0484873 0)
(11.8124 -0.0915378 0)
(11.8538 -0.112746 0)
(11.8501 -0.138532 0)
(11.939 -0.175713 0)
(11.8276 -0.248525 0)
(10.0012 -0.168343 0)
(10.3119 -0.242979 0)
(10.6457 -0.153327 0)
(10.9493 -0.0855644 0)
(11.1107 -0.0233737 0)
(11.1884 -0.0928675 0)
(11.2732 -0.0724754 0)
(11.3294 -0.0720134 0)
(11.4168 -0.0490536 0)
(11.4901 -0.0643982 0)
(11.5774 -0.0459713 0)
(11.5758 -0.0428473 0)
(11.6906 -0.0562803 0)
(11.7034 -0.0738129 0)
(11.7815 -0.0436279 0)
(11.8353 -0.110057 0)
(11.8567 -0.106987 0)
(11.9016 -0.164529 0)
(11.9448 -0.16182 0)
(11.8511 -0.301192 0)
(9.99842 -0.206279 0)
(10.3421 -0.285677 0)
(10.6934 -0.181693 0)
(10.9869 -0.0973462 0)
(11.1336 -0.0385956 0)
(11.2136 -0.1029 0)
(11.2993 -0.0909161 0)
(11.3694 -0.0768443 0)
(11.4594 -0.0711807 0)
(11.5207 -0.0609753 0)
(11.5912 -0.0619677 0)
(11.6217 -0.0413893 0)
(11.7057 -0.0701098 0)
(11.7328 -0.0735806 0)
(11.8245 -0.0622947 0)
(11.8495 -0.102407 0)
(11.8915 -0.130939 0)
(11.9422 -0.155261 0)
(11.9359 -0.19053 0)
(11.9267 -0.251101 0)
(10.0031 -0.245949 0)
(10.3858 -0.334478 0)
(10.7426 -0.200927 0)
(11.0181 -0.11371 0)
(11.1632 -0.0497488 0)
(11.2458 -0.121761 0)
(11.3431 -0.101602 0)
(11.4219 -0.0909687 0)
(11.499 -0.0820046 0)
(11.5464 -0.0672548 0)
(11.6242 -0.0679577 0)
(11.6681 -0.050768 0)
(11.7221 -0.0709957 0)
(11.7874 -0.0865633 0)
(11.8549 -0.0676616 0)
(11.8771 -0.106442 0)
(11.9417 -0.144332 0)
(11.9562 -0.15514 0)
(11.9678 -0.211135 0)
(12.005 -0.210482 0)
(10.0312 -0.293711 0)
(10.4184 -0.381293 0)
(10.7902 -0.212811 0)
(11.0432 -0.130669 0)
(11.2129 -0.0682959 0)
(11.2844 -0.137789 0)
(11.4032 -0.11609 0)
(11.4699 -0.101503 0)
(11.5343 -0.0915373 0)
(11.5771 -0.0751282 0)
(11.6715 -0.0737944 0)
(11.7013 -0.0623573 0)
(11.7588 -0.0685862 0)
(11.8428 -0.106449 0)
(11.8889 -0.0625385 0)
(11.9154 -0.124158 0)
(11.9774 -0.13858 0)
(11.9837 -0.177307 0)
(12.0366 -0.208373 0)
(12.0314 -0.258408 0)
(10.0714 -0.34738 0)
(10.4272 -0.425969 0)
(10.8437 -0.221643 0)
(11.0738 -0.151565 0)
(11.29 -0.0903378 0)
(11.3178 -0.152535 0)
(11.4787 -0.132934 0)
(11.4986 -0.105813 0)
(11.5831 -0.105749 0)
(11.6053 -0.0776169 0)
(11.7321 -0.0866773 0)
(11.7298 -0.0643088 0)
(11.8259 -0.0795407 0)
(11.8822 -0.110516 0)
(11.9394 -0.0725405 0)
(11.948 -0.123896 0)
(12.0196 -0.148198 0)
(12.0306 -0.18558 0)
(12.0937 -0.217676 0)
(12.024 -0.297404 0)
(10.0938 -0.407497 0)
(10.4281 -0.467527 0)
(10.9097 -0.23143 0)
(11.143 -0.176513 0)
(11.3719 -0.113833 0)
(11.3546 -0.16758 0)
(11.5579 -0.145755 0)
(11.515 -0.111027 0)
(11.6462 -0.115792 0)
(11.636 -0.0867766 0)
(11.8116 -0.0930659 0)
(11.7602 -0.0750078 0)
(11.9092 -0.0835865 0)
(11.9016 -0.121018 0)
(11.9988 -0.0754326 0)
(11.9576 -0.129473 0)
(12.0688 -0.153074 0)
(12.0243 -0.195957 0)
(12.0692 -0.218085 0)
(11.9279 -0.342753 0)
(10.085 -0.470237 0)
(10.4458 -0.508168 0)
(11.0173 -0.249884 0)
(11.245 -0.203347 0)
(11.4191 -0.135397 0)
(11.4135 -0.181004 0)
(11.6108 -0.159182 0)
(11.5508 -0.11433 0)
(11.7166 -0.127938 0)
(11.6849 -0.0970441 0)
(11.8729 -0.101634 0)
(11.7745 -0.08175 0)
(11.9467 -0.0910495 0)
(11.8616 -0.124794 0)
(11.9743 -0.0801782 0)
(11.8685 -0.132346 0)
(11.9636 -0.153263 0)
(11.8069 -0.197484 0)
(11.8145 -0.209532 0)
(11.5474 -0.358727 0)
(10.0516 -0.537651 0)
(10.5107 -0.55101 0)
(11.1645 -0.273356 0)
(11.3132 -0.224439 0)
(11.4568 -0.15653 0)
(11.4977 -0.194523 0)
(11.6372 -0.169339 0)
(11.6034 -0.122795 0)
(11.733 -0.136855 0)
(11.6597 -0.106062 0)
(11.7892 -0.105148 0)
(11.6391 -0.0853908 0)
(11.7667 -0.0944766 0)
(11.5893 -0.119617 0)
(11.662 -0.0833805 0)
(11.4839 -0.122959 0)
(11.4978 -0.149581 0)
(11.2584 -0.177163 0)
(11.1935 -0.206471 0)
(10.8438 -0.300216 0)
(10.0155 -0.613158 0)
(10.6316 -0.589463 0)
(11.2978 -0.29811 0)
(11.3571 -0.244416 0)
(11.5144 -0.184239 0)
(11.5204 -0.204768 0)
(11.5431 -0.174328 0)
(11.4764 -0.128673 0)
(11.4733 -0.1351 0)
(11.3146 -0.104966 0)
(11.3399 -0.0985811 0)
(11.1243 -0.0804541 0)
(11.1745 -0.0863177 0)
(10.9206 -0.106596 0)
(10.9475 -0.0747667 0)
(10.7123 -0.108684 0)
(10.6674 -0.130489 0)
(10.3745 -0.15565 0)
(10.2674 -0.180222 0)
(9.85743 -0.24435 0)
(10.0122 -0.699154 0)
(10.7848 -0.626575 0)
(11.3767 -0.330419 0)
(11.32 -0.268292 0)
(11.3659 -0.205379 0)
(11.1914 -0.198792 0)
(11.0365 -0.162354 0)
(10.8605 -0.118438 0)
(10.7111 -0.11627 0)
(10.481 -0.089516 0)
(10.4223 -0.0812686 0)
(10.1737 -0.0657391 0)
(10.1692 -0.0704837 0)
(9.88599 -0.0865989 0)
(9.88174 -0.0614412 0)
(9.62528 -0.0886532 0)
(9.5445 -0.106615 0)
(9.23111 -0.129689 0)
(9.09518 -0.142337 0)
(8.65402 -0.209831 0)
(10.0855 -0.810947 0)
(10.8724 -0.663467 0)
(11.1881 -0.354459 0)
(10.8439 -0.267574 0)
(10.6199 -0.1906 0)
(10.2362 -0.163515 0)
(9.94098 -0.128803 0)
(9.68797 -0.0916285 0)
(9.46285 -0.0860801 0)
(9.21819 -0.0667681 0)
(9.11665 -0.0593909 0)
(8.8773 -0.0480092 0)
(8.84272 -0.0520651 0)
(8.5668 -0.0650865 0)
(8.54346 -0.0463416 0)
(8.29266 -0.0663787 0)
(8.19093 -0.0819757 0)
(7.88518 -0.0976669 0)
(7.72501 -0.112136 0)
(7.30294 -0.145882 0)
(10.1643 -0.950967 0)
(10.5364 -0.664815 0)
(10.3033 -0.328519 0)
(9.59869 -0.217676 0)
(9.15578 -0.139877 0)
(8.68038 -0.110607 0)
(8.34858 -0.0866681 0)
(8.08463 -0.0600798 0)
(7.85271 -0.0551627 0)
(7.63307 -0.043859 0)
(7.52032 -0.0382239 0)
(7.31726 -0.0309779 0)
(7.26943 -0.034058 0)
(7.02624 -0.0443799 0)
(6.99219 -0.0310179 0)
(6.76746 -0.0447574 0)
(6.65982 -0.0564608 0)
(6.37883 -0.0677214 0)
(6.21762 -0.0771274 0)
(5.81506 -0.0971199 0)
(9.85736 -1.02368 0)
(9.32463 -0.575394 0)
(8.50647 -0.239822 0)
(7.60897 -0.134885 0)
(7.11841 -0.0775188 0)
(6.68571 -0.0588106 0)
(6.39801 -0.0478508 0)
(6.16994 -0.0316958 0)
(5.97866 -0.0288843 0)
(5.80503 -0.02395 0)
(5.70582 -0.0203071 0)
(5.55212 -0.0165646 0)
(5.50539 -0.0183869 0)
(5.31169 -0.0260184 0)
(5.27335 -0.0172041 0)
(5.09231 -0.0252511 0)
(4.99234 -0.0330076 0)
(4.75441 -0.0400295 0)
(4.60737 -0.04426 0)
(4.25356 -0.0579987 0)
(8.59814 -0.872543 0)
(6.93755 -0.382811 0)
(5.83052 -0.120675 0)
(5.03747 -0.0535058 0)
(4.66645 -0.0264228 0)
(4.37167 -0.0203422 0)
(4.1751 -0.0185668 0)
(4.01553 -0.0109221 0)
(3.89148 -0.0100723 0)
(3.77747 -0.00914487 0)
(3.70706 -0.00740153 0)
(3.60974 -0.0060502 0)
(3.57516 -0.00672487 0)
(3.44352 -0.011435 0)
(3.40791 -0.00655908 0)
(3.28635 -0.00991614 0)
(3.20829 -0.0140179 0)
(3.03529 -0.017277 0)
(2.91924 -0.0177827 0)
(2.66377 -0.0256446 0)
(5.32745 -0.309522 0)
(2.98052 -0.0606124 0)
(2.20357 0.00192714 0)
(1.84242 0.00287783 0)
(1.70874 0.00165251 0)
(1.61003 0.000528527 0)
(1.53717 -0.000898084 0)
(1.47528 0.000564367 0)
(1.4347 0.000130302 0)
(1.3938 -0.000310144 0)
(1.36542 -8.25301e-05 0)
(1.33119 -2.08857e-05 0)
(1.31886 0.00018862 0)
(1.26658 -0.00132362 0)
(1.24566 0.000129954 0)
(1.20144 -0.0001773 0)
(1.16651 -0.00092295 0)
(1.09146 -0.00126572 0)
(1.03764 -0.000590015 0)
(0.937691 0.00314757 0)
(1.1128 0.706434 0)
(1.93475 0.143011 0)
(3.10868 -0.0859461 0)
(2.01474 -0.0999687 0)
(3.65342 -0.328759 0)
(3.00608 -0.179407 0)
(2.88225 -0.223711 0)
(3.76921 0.515205 0)
(4.2893 1.88154 0)
(5.73244 1.40866 0)
(6.15862 0.464303 0)
(6.90344 0.837774 0)
(7.73285 1.28909 0)
(7.86171 0.848194 0)
(8.26941 -0.0587479 0)
(8.7331 -0.991538 0)
(9.53018 -1.9273 0)
(9.98426 -2.47866 0)
(10.3404 -2.87334 0)
(11.0179 -3.3292 0)
(11.3039 -3.52691 0)
(11.2682 -3.4393 0)
(11.0642 -3.4745 0)
(11.1434 -3.65395 0)
(11.8183 -4.27731 0)
(12.1576 -4.79164 0)
(13.2149 -5.39796 0)
(13.3364 -6.01801 0)
(13.2724 -6.09986 0)
(12.7564 -6.05821 0)
(12.3051 -5.89346 0)
(12.0975 -5.78591 0)
(11.7175 -5.37612 0)
(11.4883 -5.14099 0)
(11.2257 -4.64785 0)
(10.843 -4.02106 0)
(10.5783 -3.56526 0)
(10.1227 -3.00525 0)
(9.61768 -2.34347 0)
(9.17434 -1.75351 0)
(8.5488 -1.39322 0)
(8.00635 -0.76019 0)
(7.61318 -0.358491 0)
(6.92553 -0.267436 0)
(6.30493 0.196486 0)
(6.16593 1.02716 0)
(5.86769 1.21773 0)
(5.24367 0.720134 0)
(4.80774 0.760385 0)
(4.98114 2.14678 0)
(5.50354 4.07449 0)
(5.90418 5.6836 0)
(6.08514 6.6764 0)
(6.0437 7.23312 0)
(5.92355 7.58349 0)
(5.89741 7.81384 0)
(5.91558 7.97573 0)
(6.08599 7.98549 0)
(6.43904 7.69378 0)
(6.84586 7.05463 0)
(7.25006 6.14847 0)
(7.64335 5.05308 0)
(7.97764 3.71257 0)
(8.23819 2.12981 0)
(8.33853 0.653632 0)
(8.3446 -0.515227 0)
(8.07344 -1.58879 0)
(7.80292 -2.34278 0)
(7.73752 -2.80054 0)
(7.75994 -3.65231 0)
(7.77322 -4.74859 0)
(7.90254 -5.47748 0)
(8.03633 -6.19556 0)
(8.0213 -7.44683 0)
(7.89636 -8.56079 0)
(7.81364 -8.87503 0)
(7.81944 -8.86633 0)
(7.55469 -8.65733 0)
(7.30558 -7.26228 0)
(7.04068 -4.89934 0)
(6.63727 -3.39226 0)
(6.4023 -3.52579 0)
(6.34454 -4.3596 0)
(6.35762 -5.2067 0)
(6.45963 -5.88008 0)
(6.63353 -6.31085 0)
(6.83717 -6.73081 0)
(6.9912 -7.35596 0)
(7.24827 -7.51596 0)
(7.29341 -7.12739 0)
(7.23858 -6.90081 0)
(7.47551 -6.79332 0)
(7.92805 -6.52944 0)
(8.17073 -5.93717 0)
(8.09315 -4.4839 0)
(8.19752 -2.6999 0)
(8.49104 -1.79661 0)
(8.53991 -0.87963 0)
(8.32337 1.08115 0)
(8.11806 2.78916 0)
(8.22011 3.75131 0)
(8.32652 5.07685 0)
(8.0459 6.49972 0)
(7.8499 7.41969 0)
(7.90958 8.18539 0)
(7.79245 9.17488 0)
(7.61242 10.2768 0)
(7.34815 10.8985 0)
(6.74867 10.5202 0)
(6.06888 9.49976 0)
(5.45028 8.44546 0)
(4.87979 7.64109 0)
(4.38815 7.21326 0)
(3.92818 7.21929 0)
(3.79822 7.56043 0)
(4.17394 7.80239 0)
(4.48653 7.59094 0)
(5.04745 6.7689 0)
(5.21154 5.86309 0)
(5.7563 4.98541 0)
(6.08728 4.32659 0)
(6.05468 3.63581 0)
(5.90026 2.81838 0)
(5.74699 1.95476 0)
(5.77075 0.821467 0)
(6.12813 -0.850779 0)
(6.54915 -2.3102 0)
(7.04324 -3.72584 0)
(7.49927 -5.06234 0)
(7.75021 -5.62276 0)
(7.70727 -5.48425 0)
(7.61197 -5.34149 0)
(7.63212 -5.30403 0)
(7.41793 -5.02413 0)
(7.32209 -4.78383 0)
(7.26598 -4.57912 0)
(7.16369 -4.31818 0)
(7.13788 -3.92272 0)
(6.72088 -3.41544 0)
(6.76725 -3.44493 0)
(6.54899 -3.231 0)
(6.27303 -2.83908 0)
(6.24117 -2.77015 0)
(5.84822 -2.50689 0)
(5.68468 -2.46775 0)
(5.96365 -2.95356 0)
(6.1458 -3.29032 0)
(6.18211 -3.24085 0)
(5.86345 -2.8313 0)
(5.5156 -2.28281 0)
(4.99686 -2.10867 0)
(5.41761 -1.92062 0)
(4.92516 -2.3398 0)
(5.82903 -1.7683 0)
(4.99864 -3.45971 0)
(7.06543 -2.65524 0)
(5.65958 -3.85505 0)
(6.09978 -3.79947 0)
(6.21063 -3.95075 0)
(7.06303 -5.53254 0)
(8.8456 -5.96878 0)
(9.74175 -4.94806 0)
(9.32644 -3.80424 0)
(8.38477 -2.99777 0)
(8.08237 -2.83269 0)
(8.71895 -2.40934 0)
(9.3694 -1.6513 0)
(9.80927 -0.430932 0)
(9.73795 1.00011 0)
(9.84054 1.91653 0)
(10.0369 2.94339 0)
(10.0774 4.0883 0)
(10.0357 4.98942 0)
(9.84996 5.88561 0)
(9.6281 6.56031 0)
(9.09136 6.76627 0)
(8.91853 6.98736 0)
(8.41705 7.33938 0)
(8.41482 7.69987 0)
(7.79707 7.45209 0)
(7.64143 6.93197 0)
(7.00306 6.17141 0)
(6.58427 5.53516 0)
(6.07536 4.95425 0)
(6.18171 4.86126 0)
(6.06078 4.74751 0)
(5.59972 4.68742 0)
(5.09802 4.78941 0)
(5.66376 5.24115 0)
(5.10297 5.89533 0)
(6.14722 6.1971 0)
(4.38496 7.67662 0)
(5.79825 8.10768 0)
(5.64864 6.7207 0)
(6.06764 4.82145 0)
(4.5056 3.54069 0)
(5.22316 1.62809 0)
(3.79576 0.463187 0)
(3.04107 -0.228466 0)
(1.71233 -0.941911 0)
(3.39124 0.434851 0)
(3.60481 0.00110772 0)
(4.68344 -0.193091 0)
(4.07464 -0.170127 0)
(4.78521 -0.476684 0)
(5.03131 -0.141305 0)
(4.49866 -0.126223 0)
(4.31181 0.276021 0)
(5.14759 1.33273 0)
(6.63857 1.1764 0)
(6.60824 0.353312 0)
(7.11216 0.531133 0)
(7.98729 1.20631 0)
(8.96682 0.75037 0)
(9.54029 -0.222658 0)
(10.0385 -1.18176 0)
(10.9894 -2.15596 0)
(11.135 -2.63847 0)
(11.2707 -3.04184 0)
(11.7635 -3.49182 0)
(11.648 -3.59149 0)
(11.4741 -3.46951 0)
(11.5449 -3.51879 0)
(11.8676 -3.79188 0)
(12.8161 -4.48642 0)
(13.1255 -5.07254 0)
(13.7342 -5.49112 0)
(13.3262 -5.93388 0)
(13.0108 -5.89362 0)
(12.5545 -5.90712 0)
(12.2347 -5.77783 0)
(12.1848 -5.68089 0)
(11.8654 -5.30932 0)
(11.6875 -5.0121 0)
(11.4356 -4.59632 0)
(11.0818 -3.91559 0)
(10.7915 -3.41699 0)
(10.3674 -2.85773 0)
(9.88172 -2.19403 0)
(9.38126 -1.58467 0)
(8.79067 -1.16385 0)
(8.22655 -0.54951 0)
(7.80807 -0.119864 0)
(7.08025 0.00101492 0)
(6.45988 0.399577 0)
(6.2718 1.13562 0)
(6.02723 1.40033 0)
(5.47712 0.936423 0)
(4.99167 0.799845 0)
(5.04896 1.9823 0)
(5.61127 3.87777 0)
(6.0822 5.55494 0)
(6.35437 6.64334 0)
(6.4039 7.23988 0)
(6.34104 7.59345 0)
(6.36508 7.79567 0)
(6.44344 7.90034 0)
(6.65811 7.85652 0)
(7.04367 7.53413 0)
(7.47614 6.88263 0)
(7.89131 5.97977 0)
(8.31025 4.9102 0)
(8.6546 3.6125 0)
(8.87985 2.07191 0)
(8.88666 0.644834 0)
(8.78713 -0.447402 0)
(8.44011 -1.47548 0)
(8.0958 -2.27494 0)
(8.00046 -2.77647 0)
(8.0807 -3.66661 0)
(8.15711 -4.81451 0)
(8.29192 -5.5253 0)
(8.44115 -6.19568 0)
(8.44585 -7.43082 0)
(8.31985 -8.54038 0)
(8.186 -8.85031 0)
(8.12314 -8.79382 0)
(7.80317 -8.54359 0)
(7.45649 -7.13824 0)
(7.08676 -4.72637 0)
(6.61865 -3.23789 0)
(6.32012 -3.46321 0)
(6.23809 -4.33841 0)
(6.26174 -5.22301 0)
(6.33912 -5.93828 0)
(6.52183 -6.37692 0)
(6.6339 -6.80073 0)
(6.73421 -7.42649 0)
(6.95755 -7.55666 0)
(7.00971 -7.15439 0)
(6.91975 -6.97219 0)
(7.13278 -6.92496 0)
(7.55521 -6.63907 0)
(7.70419 -5.93469 0)
(7.6256 -4.5464 0)
(7.876 -2.84558 0)
(8.30491 -1.83938 0)
(8.29061 -0.781412 0)
(7.89937 1.16885 0)
(7.61602 2.82924 0)
(7.76096 3.76698 0)
(7.90654 5.07042 0)
(7.62081 6.50585 0)
(7.44481 7.42924 0)
(7.58773 8.2031 0)
(7.52658 9.20369 0)
(7.38928 10.3375 0)
(7.20061 11.0469 0)
(6.70924 10.7617 0)
(6.06384 9.7659 0)
(5.49278 8.67189 0)
(4.9812 7.86372 0)
(4.65951 7.3852 0)
(4.31018 7.30684 0)
(4.15569 7.49508 0)
(4.6067 7.62708 0)
(4.92721 7.41449 0)
(5.47416 6.64293 0)
(5.72603 5.70459 0)
(6.1182 4.86078 0)
(6.23736 4.29105 0)
(6.2018 3.66296 0)
(6.0618 2.87336 0)
(5.94415 1.99949 0)
(6.10956 0.743227 0)
(6.51955 -1.02642 0)
(6.8426 -2.48593 0)
(7.38482 -3.89697 0)
(7.82496 -5.22418 0)
(8.02661 -5.69634 0)
(7.94276 -5.44987 0)
(7.89196 -5.27495 0)
(7.83254 -5.24782 0)
(7.56273 -4.98328 0)
(7.49161 -4.75055 0)
(7.36942 -4.53265 0)
(7.26878 -4.27105 0)
(7.15 -3.84788 0)
(6.82019 -3.36295 0)
(6.87361 -3.39312 0)
(6.58409 -3.09834 0)
(6.35715 -2.75263 0)
(6.22544 -2.68381 0)
(5.84173 -2.43081 0)
(5.85454 -2.53268 0)
(5.96975 -3.03255 0)
(6.11932 -3.34446 0)
(6.07224 -3.18888 0)
(5.62577 -2.64263 0)
(5.29803 -2.14985 0)
(4.91668 -2.08014 0)
(5.27479 -1.95212 0)
(4.84331 -2.35353 0)
(5.73121 -1.89838 0)
(5.07068 -3.70499 0)
(6.93728 -2.66878 0)
(5.21057 -3.74074 0)
(5.39139 -3.73357 0)
(6.2358 -4.4157 0)
(7.25222 -6.20287 0)
(8.97668 -6.36028 0)
(9.85928 -4.99658 0)
(8.93747 -3.47734 0)
(7.81559 -2.80619 0)
(7.53073 -2.75358 0)
(8.05769 -2.79464 0)
(8.83382 -1.84909 0)
(9.26995 -0.443831 0)
(9.25391 0.794539 0)
(9.34022 1.97993 0)
(9.45525 3.03733 0)
(9.61956 3.92175 0)
(9.73661 4.90457 0)
(9.53417 5.83154 0)
(9.41067 6.56018 0)
(8.97316 6.79916 0)
(8.75585 6.96538 0)
(8.32178 7.43169 0)
(8.11763 7.72312 0)
(7.79945 7.63877 0)
(7.32509 6.99263 0)
(7.07703 6.50499 0)
(6.52831 5.89753 0)
(6.29852 5.2432 0)
(5.68702 4.80171 0)
(5.82801 4.73359 0)
(5.63953 4.91862 0)
(5.21418 4.9705 0)
(4.98511 5.04306 0)
(4.74064 5.88532 0)
(6.24029 6.31061 0)
(4.8915 7.72386 0)
(6.41605 7.86241 0)
(6.55356 6.68947 0)
(6.65341 5.08781 0)
(5.12946 3.59189 0)
(5.65313 1.75077 0)
(4.49808 0.823891 0)
(3.53622 0.246218 0)
(3.03821 -0.584188 0)
(5.59481 0.234214 0)
(5.62967 0.0166104 0)
(6.17163 -0.323402 0)
(6.04097 -0.29953 0)
(6.239 -0.50304 0)
(6.58953 -0.30834 0)
(6.38024 -0.00594676 0)
(5.97173 0.29653 0)
(6.64129 0.848467 0)
(7.79896 0.89388 0)
(7.90123 0.246863 0)
(7.90505 0.27354 0)
(8.69508 0.811257 0)
(10.2483 0.326222 0)
(10.9531 -0.413922 0)
(11.5058 -1.30456 0)
(12.3296 -2.23315 0)
(12.3313 -2.68356 0)
(12.3891 -3.09272 0)
(12.5756 -3.43338 0)
(12.2296 -3.47167 0)
(12.254 -3.48835 0)
(12.5602 -3.65321 0)
(12.8742 -3.94963 0)
(13.6473 -4.61821 0)
(13.603 -5.19926 0)
(13.6885 -5.42131 0)
(13.0552 -5.78352 0)
(12.7484 -5.72328 0)
(12.558 -5.81148 0)
(12.32 -5.74327 0)
(12.3452 -5.58062 0)
(12.0128 -5.25532 0)
(11.8838 -4.88295 0)
(11.6245 -4.44798 0)
(11.3521 -3.75303 0)
(11.085 -3.22916 0)
(10.6177 -2.58828 0)
(10.2033 -1.9429 0)
(9.65641 -1.34705 0)
(9.0332 -0.892221 0)
(8.35809 -0.340777 0)
(7.96664 0.0931654 0)
(7.22161 0.261174 0)
(6.61996 0.595409 0)
(6.3848 1.23409 0)
(6.16249 1.57632 0)
(5.63163 1.17105 0)
(5.18476 0.883484 0)
(5.10291 1.82119 0)
(5.68099 3.65074 0)
(6.24054 5.38958 0)
(6.59732 6.56591 0)
(6.75327 7.21957 0)
(6.77528 7.58631 0)
(6.85494 7.75914 0)
(6.99771 7.80912 0)
(7.24485 7.70846 0)
(7.65215 7.3612 0)
(8.09544 6.70415 0)
(8.5156 5.80655 0)
(8.9441 4.75033 0)
(9.29261 3.51485 0)
(9.4847 2.04601 0)
(9.39003 0.673161 0)
(9.18176 -0.345914 0)
(8.77963 -1.33208 0)
(8.39052 -2.18458 0)
(8.27528 -2.75043 0)
(8.41865 -3.69602 0)
(8.55994 -4.89448 0)
(8.69116 -5.58298 0)
(8.83898 -6.19332 0)
(8.86242 -7.41205 0)
(8.729 -8.504 0)
(8.54374 -8.79874 0)
(8.40532 -8.69613 0)
(8.02587 -8.39278 0)
(7.58495 -6.96712 0)
(7.11137 -4.5206 0)
(6.59391 -3.06224 0)
(6.21855 -3.36995 0)
(6.13045 -4.3096 0)
(6.15807 -5.25016 0)
(6.19369 -6.00064 0)
(6.38233 -6.43172 0)
(6.39505 -6.8429 0)
(6.43847 -7.46896 0)
(6.62804 -7.57664 0)
(6.70311 -7.16244 0)
(6.59743 -7.02789 0)
(6.78015 -7.05581 0)
(7.16914 -6.70278 0)
(7.25492 -5.95042 0)
(7.16971 -4.62515 0)
(7.54831 -3.02567 0)
(8.04722 -1.89804 0)
(7.9812 -0.667607 0)
(7.48733 1.26735 0)
(7.19335 2.81866 0)
(7.30878 3.76928 0)
(7.4043 5.16279 0)
(7.16408 6.59408 0)
(7.02617 7.46592 0)
(7.1993 8.22328 0)
(7.23141 9.24957 0)
(7.14355 10.394 0)
(7.02736 11.1662 0)
(6.66448 10.974 0)
(6.08982 10.0135 0)
(5.53938 8.87888 0)
(5.02332 8.0476 0)
(4.82466 7.51955 0)
(4.62446 7.37526 0)
(4.52534 7.42287 0)
(4.96802 7.47256 0)
(5.29081 7.25035 0)
(5.84248 6.49947 0)
(6.13636 5.55959 0)
(6.27049 4.76351 0)
(6.38605 4.29319 0)
(6.36157 3.71347 0)
(6.26778 2.89364 0)
(6.2389 1.99794 0)
(6.51384 0.659261 0)
(6.881 -1.19134 0)
(7.15069 -2.68124 0)
(7.75391 -4.08703 0)
(8.17736 -5.35198 0)
(8.30748 -5.70058 0)
(8.14054 -5.41195 0)
(8.15722 -5.26252 0)
(8.0657 -5.17446 0)
(7.76188 -4.87468 0)
(7.66305 -4.69527 0)
(7.46836 -4.52 0)
(7.41655 -4.22748 0)
(7.21163 -3.73813 0)
(6.97098 -3.29447 0)
(6.96765 -3.33269 0)
(6.5851 -2.99161 0)
(6.41517 -2.71507 0)
(6.22949 -2.57187 0)
(6.01383 -2.34754 0)
(6.03879 -2.50585 0)
(5.98195 -3.01696 0)
(6.08312 -3.34178 0)
(5.84654 -3.05432 0)
(5.33589 -2.44302 0)
(5.0974 -2.06369 0)
(4.81192 -2.04891 0)
(5.11174 -1.9549 0)
(4.77816 -2.40738 0)
(5.65729 -2.05777 0)
(5.12096 -3.90541 0)
(6.60762 -2.55286 0)
(4.80821 -3.50751 0)