/*--------------------------------*- C++ -*----------------------------------*\
| =========                 |                                                 |
| \\      /  F ield         | OpenFOAM: The Open Source CFD Toolbox           |
|  \\    /   O peration     | Version:  2.4.0                                 |
|   \\  /    A nd           | Web:      www.OpenFOAM.org                      |
|    \\/     M anipulation  |                                                 |
\*---------------------------------------------------------------------------*/
FoamFile
{
    version     2.0;
    format      ascii;
    class       volScalarField;
    location    "0.0353238";
    object      nut;
}
// * * * * * * * * * * * * * * * * * * * * * * * * * * * * * * * * * * * * * //

dimensions      [0 2 -1 0 0 0 0];

internalField   nonuniform List<scalar> 
17600
(
0.000104555
0.000118441
0.000127836
0.000133525
0.000136459
0.00013751
0.000137376
0.000136568
0.000135437
0.000134209
0.000133019
0.000131935
0.000130981
0.00013015
0.000129418
0.000128738
0.000128049
0.000127223
0.000126072
0.000123837
0.000341495
0.000221226
0.000172203
0.000148145
0.000136116
0.000130913
0.000129966
0.00013188
0.000135808
0.000141162
0.000147472
0.000154337
0.000161411
0.000168401
0.000175078
0.000181284
0.000186899
0.000191869
0.00019577
0.000198301
0.000675012
0.00052159
0.000416453
0.00034329
0.000291225
0.000253521
0.000225783
0.000205209
0.000190014
0.00017903
0.000171457
0.000166712
0.000164337
0.000163938
0.000165149
0.000167609
0.00017092
0.000174591
0.00017786
0.00017777
0.000803838
0.000728453
0.000650956
0.000580774
0.000520564
0.000470112
0.00042801
0.000392653
0.000362657
0.000336939
0.000314696
0.000295349
0.000278493
0.000263836
0.000251139
0.000240156
0.000230517
0.000221587
0.000212031
0.00019685
0.000837713
0.000809042
0.000770719
0.000727881
0.000684531
0.000643199
0.000605057
0.000570394
0.000539054
0.000510689
0.000484891
0.000461265
0.00043945
0.000419126
0.000399981
0.000381668
0.000363622
0.000344769
0.000322448
0.00028698
0.000845946
0.00083463
0.000817672
0.000795912
0.000770871
0.000744176
0.000717122
0.000690574
0.000665033
0.00064074
0.000617758
0.000596038
0.000575461
0.00055586
0.000537011
0.000518597
0.000500046
0.000480209
0.000456144
0.000416797
0.000847926
0.000842165
0.000834045
0.000823227
0.000809851
0.000794415
0.000777537
0.000759805
0.000741705
0.0007236
0.000705736
0.000688262
0.000671244
0.000654677
0.000638481
0.000622474
0.000606253
0.000588943
0.0005683
0.000536019
0.000848403
0.000844311
0.000839421
0.00083336
0.000825921
0.000817092
0.000807011
0.000795899
0.000784006
0.000771573
0.00075881
0.000745883
0.000732913
0.000719967
0.000707053
0.000694095
0.000680847
0.000666724
0.000650228
0.000626113
0.000848519
0.000844912
0.000841124
0.000836936
0.00083216
0.000826668
0.000820412
0.000813409
0.000805725
0.000797457
0.000788712
0.000779596
0.000770199
0.000760589
0.000750799
0.000740803
0.000730459
0.000719392
0.000706656
0.000689141
0.000848546
0.000845078
0.00084165
0.000838156
0.00083448
0.000830518
0.000826189
0.000821443
0.000816261
0.000810653
0.000804645
0.000798278
0.000791596
0.000784637
0.000777422
0.000769941
0.000762108
0.000753686
0.000744105
0.000731587
0.000848553
0.000845122
0.000841809
0.00083856
0.000835315
0.000832009
0.000828577
0.000824968
0.00082114
0.000817068
0.000812741
0.000808157
0.000803326
0.000798256
0.000792951
0.000787401
0.000781547
0.000775246
0.00076817
0.000759363
0.000848554
0.000845134
0.000841855
0.00083869
0.000835607
0.000832567
0.000829531
0.000826458
0.000823312
0.000820064
0.000816688
0.00081317
0.000809498
0.000805665
0.000801664
0.000797477
0.000793068
0.00078835
0.00078316
0.000777036
0.000848554
0.000845136
0.000841868
0.000838731
0.000835706
0.00083277
0.0008299
0.000827067
0.000824247
0.000821414
0.000818546
0.000815623
0.00081263
0.000809552
0.000806379
0.000803093
0.000799669
0.000796061
0.000792212
0.000787964
0.000848554
0.000845136
0.00084187
0.000838742
0.000835737
0.000832842
0.000830038
0.000827309
0.000824637
0.000822004
0.000819391
0.000816784
0.000814166
0.000811525
0.000808848
0.000806122
0.000803332
0.00080046
0.000797518
0.000794525
0.000848553
0.000845135
0.00084187
0.000838744
0.000835746
0.000832865
0.000830088
0.000827402
0.000824795
0.000822253
0.000819765
0.000817317
0.000814898
0.000812496
0.000810102
0.000807707
0.000805305
0.000802898
0.00080054
0.000798349
0.000848553
0.000845135
0.000841869
0.000838744
0.000835748
0.000832872
0.000830104
0.000827436
0.000824856
0.000822356
0.000819925
0.000817555
0.000815237
0.000812961
0.000810722
0.000808515
0.00080634
0.000804214
0.000802213
0.000800512
0.000848553
0.000845134
0.000841869
0.000838743
0.000835748
0.000832873
0.000830109
0.000827447
0.000824879
0.000822396
0.000819992
0.000817659
0.000815389
0.000813178
0.000811021
0.000808916
0.00080687
0.000804906
0.000803117
0.000801696
0.000848553
0.000845134
0.000841868
0.000838742
0.000835747
0.000832873
0.00083011
0.00082745
0.000824886
0.000822411
0.000820019
0.000817702
0.000815456
0.000813276
0.000811161
0.00080911
0.000807134
0.000805262
0.000803591
0.000802322
0.000848553
0.000845133
0.000841867
0.000838742
0.000835746
0.000832872
0.000830109
0.000827451
0.000824889
0.000822417
0.000820029
0.000817719
0.000815484
0.000813319
0.000811224
0.000809201
0.000807262
0.000805439
0.00080383
0.000802633
0.000848553
0.000845133
0.000841867
0.000838741
0.000835746
0.000832872
0.000830109
0.000827451
0.000824889
0.000822418
0.000820032
0.000817725
0.000815494
0.000813336
0.00081125
0.000809239
0.000807317
0.000805518
0.000803937
0.000802765
0.000848553
0.000845133
0.000841867
0.000838741
0.000835746
0.000832872
0.000830109
0.000827451
0.000824889
0.000822418
0.000820032
0.000817726
0.000815495
0.000813337
0.000811253
0.000809244
0.000807327
0.000805534
0.00080396
0.000802782
0.000848553
0.000845133
0.000841867
0.000838742
0.000835746
0.000832872
0.000830109
0.000827451
0.000824889
0.000822417
0.000820029
0.000817721
0.000815486
0.000813324
0.000811233
0.000809218
0.000807293
0.000805491
0.000803904
0.000802698
0.000848553
0.000845134
0.000841868
0.000838742
0.000835747
0.000832873
0.00083011
0.00082745
0.000824887
0.000822412
0.00082002
0.000817704
0.00081546
0.000813285
0.000811177
0.000809141
0.000807192
0.000805361
0.000803738
0.00080248
0.000848553
0.000845134
0.000841869
0.000838743
0.000835748
0.000832873
0.000830109
0.000827447
0.000824879
0.000822397
0.000819994
0.000817662
0.000815396
0.000813192
0.000811047
0.000808966
0.000806964
0.000805074
0.000803381
0.000802038
0.000848553
0.000845135
0.000841869
0.000838744
0.000835748
0.000832872
0.000830105
0.000827436
0.000824857
0.000822357
0.000819928
0.000817561
0.000815247
0.000812982
0.000810763
0.000808594
0.000806491
0.000804489
0.000802672
0.00080119
0.000848553
0.000845135
0.00084187
0.000838744
0.000835747
0.000832865
0.000830088
0.000827402
0.000824796
0.000822255
0.000819769
0.000817325
0.000814913
0.000812527
0.000810165
0.000807832
0.000805546
0.000803345
0.000801318
0.000799616
0.000848554
0.000845136
0.00084187
0.000838742
0.000835737
0.000832842
0.000830038
0.00082731
0.000824638
0.000822006
0.000819397
0.000816795
0.00081419
0.000811573
0.000808946
0.00080632
0.000803716
0.000801181
0.000798813
0.000796769
0.000848554
0.000845136
0.000841868
0.000838731
0.000835706
0.000832771
0.0008299
0.000827068
0.000824249
0.000821418
0.000818554
0.000815641
0.000812667
0.000809629
0.000806535
0.000803408
0.00080028
0.000797211
0.000794314
0.000791759
0.000848554
0.000845134
0.000841855
0.00083869
0.000835607
0.000832568
0.000829532
0.000826459
0.000823315
0.00082007
0.000816702
0.000813199
0.000809558
0.000805788
0.000801911
0.000797969
0.000794025
0.000790149
0.000786475
0.000783194
0.000848553
0.000845122
0.000841809
0.00083856
0.000835315
0.000832009
0.000828578
0.00082497
0.000821145
0.000817079
0.000812763
0.000808205
0.000803423
0.000798451
0.000793338
0.000788156
0.000783013
0.000777989
0.000773242
0.000768989
0.000848546
0.000845078
0.00084165
0.000838156
0.00083448
0.000830519
0.000826191
0.000821447
0.00081627
0.000810671
0.000804683
0.000798355
0.00079175
0.00078494
0.000778012
0.000771073
0.000764285
0.000757744
0.000751626
0.000746162
0.000848519
0.000844912
0.000841124
0.000836937
0.00083216
0.000826669
0.000820415
0.000813416
0.00080574
0.000797487
0.000788774
0.000779718
0.000770437
0.000761047
0.000751671
0.000742448
0.000733556
0.000725203
0.000717481
0.000710635
0.000848403
0.000844311
0.000839421
0.00083336
0.000825922
0.000817094
0.000807017
0.000795911
0.00078403
0.000771622
0.000758906
0.000746069
0.000733267
0.000720633
0.000708298
0.000696409
0.000685147
0.000674818
0.000665397
0.000657118
0.000847926
0.000842165
0.000834046
0.000823227
0.000809853
0.000794419
0.000777547
0.000759825
0.000741744
0.000723675
0.00070588
0.000688533
0.000671747
0.000655606
0.000640192
0.000625616
0.000612041
0.000599831
0.00058889
0.000579341
0.000845947
0.00083463
0.000817673
0.000795914
0.000770875
0.000744184
0.000717138
0.000690605
0.000665092
0.00064085
0.00061796
0.000596408
0.000576136
0.000557088
0.000539241
0.000522645
0.000507431
0.00049387
0.000482218
0.000472042
0.000837713
0.000809042
0.00077072
0.000727884
0.000684537
0.000643212
0.00060508
0.000570437
0.000539133
0.00051083
0.000485146
0.000461721
0.000440263
0.00042057
0.000402545
0.000386205
0.000371672
0.00035918
0.000349075
0.000340457
0.000803838
0.000728454
0.000650958
0.000580779
0.000520572
0.000470128
0.000428037
0.000392701
0.00036274
0.000337083
0.000314943
0.00029577
0.000279206
0.000265036
0.000253142
0.000243474
0.000236005
0.000230717
0.00022753
0.000225715
0.000675012
0.000521592
0.000416456
0.000343294
0.000291232
0.000253532
0.000225801
0.000205237
0.000190059
0.000179102
0.000171571
0.000166893
0.000164621
0.000164387
0.000165862
0.000168752
0.000172789
0.000177732
0.000183235
0.00018863
0.000341496
0.000221227
0.000172204
0.000148145
0.000136117
0.000130914
0.000129967
0.00013188
0.000135808
0.00014116
0.000147467
0.000154327
0.000161391
0.000168368
0.000175028
0.000181215
0.000186834
0.00019181
0.000195857
0.000198932
0.000104555
0.000118441
0.000127836
0.000133525
0.000136459
0.000137512
0.000137379
0.000136572
0.000135444
0.000134223
0.000133044
0.000131978
0.000131057
0.000130286
0.000129658
0.000129164
0.000128804
0.000128589
0.00012849
0.000128552
0.000181593
0.000287548
0.000410637
0.000515514
0.000597806
0.00067646
0.000769729
0.00088573
0.00102201
0.00116842
0.00131162
0.00143931
0.0015426
0.00161639
0.00165862
0.00166866
0.0016384
0.00157767
0.00149309
0.00139159
0.00127916
0.00115986
0.00103571
0.000907801
0.000779058
0.000656835
0.00055171
0.000472842
0.000425193
0.000410656
0.000430065
0.000483234
0.000566778
0.000672095
0.000786592
0.000897904
0.000997541
0.00108171
0.0011501
0.00120427
0.00124645
0.00127889
0.00130355
0.00132202
0.00133555
0.00134512
0.00135143
0.00135504
0.00135634
0.00135564
0.00135314
0.00134902
0.00134339
0.00133633
0.00132792
0.00131819
0.00130718
0.00129494
0.0012815
0.0012669
0.00125119
0.00123444
0.00121674
0.00119817
0.00117887
0.00115895
0.00113859
0.00111794
0.00109717
0.00107647
0.00105602
0.001036
0.00101657
0.00099789
0.000980084
0.000963262
0.000947508
0.000932878
0.000919402
0.000907084
0.000895909
0.000885842
0.000876833
0.00086882
0.000861733
0.0008555
0.000850043
0.000845288
0.000841162
0.000837596
0.000834524
0.000831887
0.00082963
0.000827705
0.000826067
0.000824677
0.0008235
0.000822506
0.000821668
0.000820963
0.000820371
0.000819875
0.000819459
0.000819112
0.000818822
0.000818581
0.000818379
0.000818212
0.000818073
0.000817957
0.000817861
0.000817781
0.000817715
0.00081766
0.000817615
0.000817577
0.000817546
0.00081752
0.000817499
0.000817481
0.000817467
0.000817454
0.000817444
0.000817436
0.000817429
0.000817424
0.000817419
0.000817416
0.000817413
0.000817411
0.000817409
0.000817408
0.000817407
0.000817407
0.000817407
0.000817407
0.000817408
0.00081741
0.000817412
0.000817415
0.000817418
0.000817422
0.000817427
0.000817433
0.000817441
0.00081745
0.000817461
0.000817474
0.00081749
0.00081751
0.000817533
0.000817561
0.000817595
0.000817635
0.000817684
0.000817742
0.000817813
0.000817898
0.000818
0.000818122
0.00081827
0.000818447
0.00081866
0.000818916
0.000819225
0.000819595
0.00082004
0.000820576
0.00082122
0.000821995
0.000822926
0.000824047
0.000825396
0.00082702
0.000828976
0.000831334
0.000834178
0.000837614
0.000841769
0.000846802
0.000852913
0.000860353
0.00086944
0.000880584
0.000894317
0.000911344
0.000932603
0.000959373
0.000993415
0.00103719
0.00109418
0.00116927
0.00126934
0.00140332
0.00158301
0.00181617
0.00210805
0.00234382
0.00235518
0.000534528
0.000201936
0.000222642
0.000275142
0.0003573
0.000451587
0.000542375
0.000625491
0.000706464
0.000792665
0.00088698
0.000986239
0.00108312
0.00116914
0.00123709
0.00128207
0.00130029
0.00128467
0.00124516
0.00118575
0.0011103
0.00102184
0.0009226
0.00081505
0.000703786
0.00059685
0.000504327
0.000434808
0.000393355
0.000382409
0.000403438
0.000456923
0.000540178
0.000645201
0.000759686
0.000871256
0.000971306
0.00105596
0.00112488
0.00117964
0.00122249
0.00125567
0.00128116
0.00130056
0.00131513
0.00132581
0.00133334
0.00133823
0.00134089
0.00134162
0.00134061
0.00133804
0.00133401
0.00132861
0.0013219
0.00131392
0.00130469
0.00129426
0.00128263
0.00126984
0.00125591
0.0012409
0.00122487
0.00120788
0.00119004
0.00117145
0.00115224
0.00113255
0.00111256
0.00109242
0.00107232
0.00105243
0.00103292
0.00101397
0.000995713
0.00097829
0.000961807
0.000946347
0.000931968
0.000918704
0.000906563
0.000895531
0.000885579
0.000876659
0.000868715
0.000861679
0.000855482
0.00085005
0.000845311
0.000841194
0.000837631
0.00083456
0.000831922
0.000829662
0.000827734
0.000826091
0.000824697
0.000823516
0.000822519
0.000821678
0.00082097
0.000820376
0.000819878
0.000819461
0.000819113
0.000818822
0.00081858
0.000818378
0.000818211
0.000818071
0.000817956
0.000817859
0.00081778
0.000817714
0.000817659
0.000817613
0.000817576
0.000817545
0.000817519
0.000817498
0.00081748
0.000817465
0.000817453
0.000817443
0.000817435
0.000817429
0.000817423
0.000817419
0.000817415
0.000817412
0.00081741
0.000817408
0.000817407
0.000817406
0.000817406
0.000817406
0.000817407
0.000817408
0.000817409
0.000817411
0.000817414
0.000817417
0.000817421
0.000817426
0.000817433
0.00081744
0.000817449
0.00081746
0.000817474
0.00081749
0.000817509
0.000817532
0.00081756
0.000817594
0.000817634
0.000817683
0.000817741
0.000817812
0.000817896
0.000817998
0.000818121
0.000818268
0.000818445
0.000818658
0.000818913
0.000819221
0.00081959
0.000820035
0.000820569
0.000821211
0.000821984
0.000822913
0.00082403
0.000825375
0.000826994
0.000828943
0.000831293
0.000834127
0.000837549
0.000841687
0.0008467
0.000852786
0.000860193
0.00086924
0.000880334
0.000894005
0.000910954
0.000932117
0.000958769
0.000992676
0.00103631
0.0010932
0.00116835
0.00126889
0.00140428
0.00158715
0.00182727
0.00212979
0.00239328
0.00243394
0.000766965
0.000176424
0.000175651
0.000185023
0.000216946
0.000274593
0.000352335
0.000440573
0.000530145
0.000615686
0.00069591
0.000771216
0.000841128
0.000903322
0.00095422
0.000989988
0.00100351
0.000996061
0.000969189
0.000923994
0.000862105
0.000785807
0.000698748
0.00060689
0.00051863
0.000443163
0.000387988
0.000357796
0.000355329
0.000382532
0.000440165
0.000525589
0.000630876
0.000744127
0.000853661
0.00095155
0.00103436
0.00110194
0.00115589
0.00119838
0.00123158
0.0012574
0.00127737
0.00129271
0.00130433
0.00131292
0.00131901
0.00132296
0.00132506
0.0013255
0.00132443
0.00132197
0.00131819
0.00131314
0.00130687
0.00129939
0.00129073
0.00128091
0.00126993
0.00125781
0.00124459
0.0012303
0.00121499
0.00119874
0.00118162
0.00116374
0.00114524
0.00112624
0.0011069
0.0010874
0.0010679
0.00104857
0.00102959
0.00101111
0.000993297
0.000976267
0.000960133
0.00094498
0.000930867
0.000917829
0.000905878
0.000895005
0.000885182
0.000876366
0.000868503
0.000861531
0.000855382
0.000849986
0.000845273
0.000841174
0.000837624
0.000834561
0.000831927
0.00082967
0.000827741
0.000826099
0.000824704
0.000823522
0.000822523
0.000821681
0.000820972
0.000820377
0.000819878
0.000819461
0.000819112
0.000818821
0.000818579
0.000818377
0.000818209
0.00081807
0.000817954
0.000817858
0.000817779
0.000817713
0.000817658
0.000817613
0.000817575
0.000817544
0.000817519
0.000817497
0.00081748
0.000817465
0.000817453
0.000817443
0.000817435
0.000817428
0.000817423
0.000817419
0.000817415
0.000817412
0.00081741
0.000817408
0.000817407
0.000817406
0.000817406
0.000817406
0.000817407
0.000817408
0.000817409
0.000817411
0.000817414
0.000817417
0.000817422
0.000817427
0.000817433
0.00081744
0.000817449
0.00081746
0.000817474
0.00081749
0.000817509
0.000817532
0.00081756
0.000817594
0.000817634
0.000817683
0.000817741
0.000817812
0.000817896
0.000817998
0.00081812
0.000818267
0.000818444
0.000818657
0.000818912
0.000819219
0.000819588
0.000820031
0.000820564
0.000821205
0.000821975
0.000822902
0.000824016
0.000825357
0.00082697
0.000828913
0.000831254
0.000834078
0.000837487
0.000841608
0.0008466
0.000852658
0.000860031
0.000869033
0.00088007
0.000893667
0.000910518
0.000931555
0.000958044
0.000991738
0.00103511
0.00109168
0.00116651
0.00126684
0.00140248
0.00158619
0.00182937
0.00213335
0.00241801
0.00247062
0.00103391
0.000189778
0.000179273
0.000167205
0.000163273
0.000177122
0.000211579
0.00026481
0.000332423
0.000408428
0.000486397
0.000560721
0.000627283
0.000683298
0.000726725
0.000755653
0.000764308
0.000755102
0.000728451
0.000685478
0.000628588
0.000562025
0.000492075
0.00042643
0.000372673
0.00033681
0.000322939
0.000333951
0.000371979
0.000437432
0.000526891
0.000632096
0.00074196
0.000846425
0.000939094
0.00101745
0.00108167
0.0011333
0.00117437
0.00120685
0.00123247
0.00125265
0.00126849
0.00128085
0.00129038
0.00129754
0.0013027
0.0013061
0.00130793
0.00130832
0.00130738
0.00130517
0.00130174
0.00129714
0.00129137
0.00128445
0.0012764
0.00126722
0.00125691
0.00124549
0.00123299
0.00121942
0.00120485
0.00118932
0.00117293
0.00115578
0.00113798
0.00111967
0.001101
0.00108213
0.00106323
0.00104447
0.00102602
0.00100803
0.000990663
0.000974036
0.000958263
0.000943427
0.000929592
0.000916794
0.000905047
0.000894345
0.000884664
0.000875965
0.000868196
0.000861299
0.000855209
0.000849858
0.00084518
0.000841108
0.000837577
0.000834527
0.000831904
0.000829653
0.00082773
0.000826091
0.000824698
0.000823517
0.000822519
0.000821677
0.000820969
0.000820374
0.000819876
0.000819458
0.00081911
0.000818819
0.000818577
0.000818375
0.000818207
0.000818068
0.000817953
0.000817857
0.000817777
0.000817712
0.000817657
0.000817612
0.000817575
0.000817544
0.000817518
0.000817497
0.000817479
0.000817465
0.000817453
0.000817443
0.000817435
0.000817428
0.000817423
0.000817419
0.000817415
0.000817412
0.00081741
0.000817408
0.000817407
0.000817407
0.000817406
0.000817406
0.000817407
0.000817408
0.00081741
0.000817412
0.000817414
0.000817418
0.000817422
0.000817427
0.000817433
0.000817441
0.00081745
0.000817461
0.000817474
0.00081749
0.000817509
0.000817533
0.00081756
0.000817594
0.000817635
0.000817683
0.000817742
0.000817812
0.000817896
0.000817998
0.00081812
0.000818267
0.000818443
0.000818655
0.00081891
0.000819217
0.000819585
0.000820027
0.000820559
0.000821199
0.000821967
0.000822891
0.000824002
0.000825339
0.000826947
0.000828883
0.000831216
0.000834028
0.000837423
0.000841527
0.000846496
0.000852525
0.00085986
0.000868813
0.000879784
0.000893295
0.000910032
0.000930913
0.000957191
0.000990598
0.00103358
0.00108962
0.00116378
0.00126326
0.00139795
0.00158021
0.00182235
0.00212055
0.00241549
0.00248741
0.00130942
0.000271455
0.000250454
0.00022226
0.000191642
0.000169875
0.000164819
0.00017748
0.000205716
0.000246426
0.000295813
0.00034938
0.000402243
0.000449662
0.000487489
0.000512254
0.000519585
0.000511112
0.000488071
0.000453452
0.000411824
0.000368954
0.000331048
0.000303832
0.000291975
0.000299122
0.000328108
0.000380566
0.000455588
0.000548419
0.00065084
0.000753611
0.000849279
0.000933527
0.00100492
0.0010639
0.00111188
0.00115058
0.00118166
0.00120661
0.00122664
0.00124273
0.00125563
0.00126593
0.00127405
0.0012803
0.00128492
0.00128806
0.00128985
0.00129037
0.00128968
0.00128782
0.00128483
0.00128072
0.0012755
0.00126918
0.00126176
0.00125324
0.00124362
0.00123291
0.00122112
0.00120828
0.00119444
0.00117966
0.001164
0.00114757
0.00113047
0.00111285
0.00109485
0.00107662
0.00105833
0.00104014
0.00102222
0.00100474
0.000987821
0.000971608
0.000956205
0.0009417
0.000928155
0.000915609
0.000904078
0.00089356
0.000884034
0.000875463
0.0008678
0.000860988
0.000854967
0.000849672
0.000845036
0.000840997
0.000837493
0.000834463
0.000831854
0.000829616
0.000827701
0.000826068
0.00082468
0.000823503
0.000822507
0.000821668
0.000820961
0.000820367
0.000819869
0.000819453
0.000819105
0.000818815
0.000818573
0.000818372
0.000818205
0.000818066
0.00081795
0.000817855
0.000817776
0.00081771
0.000817656
0.000817611
0.000817574
0.000817543
0.000817517
0.000817496
0.000817479
0.000817465
0.000817453
0.000817443
0.000817435
0.000817428
0.000817423
0.000817419
0.000817415
0.000817412
0.00081741
0.000817408
0.000817407
0.000817407
0.000817406
0.000817407
0.000817407
0.000817408
0.00081741
0.000817412
0.000817414
0.000817418
0.000817422
0.000817427
0.000817433
0.000817441
0.00081745
0.000817461
0.000817474
0.00081749
0.000817509
0.000817533
0.000817561
0.000817594
0.000817635
0.000817683
0.000817742
0.000817812
0.000817896
0.000817998
0.00081812
0.000818266
0.000818442
0.000818654
0.000818909
0.000819214
0.000819582
0.000820023
0.000820554
0.000821192
0.000821958
0.00082288
0.000823988
0.00082532
0.000826923
0.000828853
0.000831177
0.000833978
0.000837359
0.000841444
0.000846389
0.000852387
0.000859681
0.000868579
0.000879478
0.000892891
0.000909495
0.000930194
0.000956217
0.000989267
0.00103174
0.00108707
0.0011602
0.00125822
0.00139087
0.00156961
0.00180682
0.0020946
0.00238805
0.00248909
0.00157234
0.000399141
0.000375329
0.000341787
0.000297359
0.000248492
0.000207521
0.000182687
0.000174684
0.000180469
0.000196331
0.000218615
0.000243618
0.000267525
0.000286547
0.000297122
0.000300062
0.000296556
0.00028749
0.000275352
0.000263792
0.000256995
0.000259114
0.000273908
0.000304459
0.000352721
0.000418731
0.000499869
0.000590883
0.000685086
0.00077617
0.000859577
0.0009329
0.000995516
0.00104795
0.00109132
0.00112694
0.00115612
0.00118
0.00119959
0.0012157
0.00122896
0.00123987
0.0012488
0.00125603
0.00126175
0.00126611
0.00126921
0.00127111
0.00127187
0.00127152
0.00127008
0.00126756
0.00126398
0.00125934
0.00125363
0.00124685
0.00123899
0.00123006
0.00122006
0.00120899
0.00119689
0.00118378
0.00116972
0.0011548
0.00113909
0.0011227
0.00110577
0.00108844
0.00107085
0.00105317
0.00103557
0.0010182
0.00100122
0.000984771
0.000968983
0.000953965
0.000939803
0.00092656
0.000914279
0.000902978
0.000892656
0.000883297
0.000874866
0.000867319
0.000860604
0.000854661
0.000849429
0.000844845
0.000840847
0.000837374
0.00083437
0.000831781
0.000829558
0.000827655
0.000826031
0.00082465
0.000823479
0.000822488
0.000821652
0.000820948
0.000820356
0.00081986
0.000819445
0.000819098
0.000818809
0.000818568
0.000818368
0.000818201
0.000818063
0.000817948
0.000817853
0.000817774
0.000817708
0.000817654
0.00081761
0.000817573
0.000817542
0.000817517
0.000817496
0.000817478
0.000817464
0.000817452
0.000817443
0.000817435
0.000817428
0.000817423
0.000817418
0.000817415
0.000817412
0.00081741
0.000817408
0.000817407
0.000817407
0.000817406
0.000817407
0.000817407
0.000817408
0.00081741
0.000817412
0.000817414
0.000817418
0.000817422
0.000817427
0.000817433
0.000817441
0.00081745
0.000817461
0.000817474
0.00081749
0.000817509
0.000817533
0.000817561
0.000817594
0.000817634
0.000817683
0.000817741
0.000817811
0.000817896
0.000817997
0.000818119
0.000818265
0.000818441
0.000818653
0.000818907
0.000819212
0.000819579
0.000820019
0.000820549
0.000821185
0.00082195
0.000822869
0.000823973
0.000825301
0.000826899
0.000828822
0.000831137
0.000833927
0.000837293
0.000841359
0.000846278
0.000852243
0.000859492
0.000868332
0.000879151
0.000892456
0.00090891
0.000929401
0.000955129
0.000987756
0.00102962
0.00108405
0.00115586
0.00125186
0.00138147
0.00155501
0.00178393
0.0020584
0.00234072
0.00247264
0.00180424
0.000521863
0.00050329
0.000477193
0.000440025
0.000390236
0.000332718
0.000278293
0.000236275
0.000209524
0.000196035
0.000192125
0.00019408
0.000198599
0.000202925
0.000205258
0.000207969
0.0002119
0.000218215
0.00022867
0.000245462
0.000270928
0.000307132
0.00035536
0.000415646
0.000486454
0.000564717
0.000646345
0.000727091
0.000803392
0.000872853
0.000934289
0.000987482
0.00103286
0.00107118
0.00110336
0.0011303
0.00115287
0.0011718
0.00118773
0.00120117
0.00121252
0.00122211
0.00123017
0.00123687
0.00124232
0.00124662
0.0012498
0.00125192
0.00125298
0.00125301
0.00125202
0.00125
0.00124696
0.0012429
0.0012378
0.00123166
0.00122448
0.00121623
0.00120693
0.00119658
0.0011852
0.00117282
0.0011595
0.0011453
0.00113031
0.00111464
0.00109841
0.00108175
0.00106481
0.00104776
0.00103075
0.00101393
0.000997473
0.000981505
0.000966157
0.000951536
0.000937731
0.000924807
0.000912804
0.000901746
0.000891635
0.000882455
0.000874176
0.000866757
0.000860148
0.000854293
0.000849133
0.000844607
0.000840656
0.000837222
0.000834248
0.000831684
0.00082948
0.000827593
0.000825981
0.00082461
0.000823446
0.000822461
0.00082163
0.00082093
0.000820341
0.000819848
0.000819435
0.00081909
0.000818802
0.000818562
0.000818362
0.000818196
0.000818059
0.000817945
0.00081785
0.000817771
0.000817706
0.000817653
0.000817608
0.000817571
0.000817541
0.000817516
0.000817495
0.000817478
0.000817464
0.000817452
0.000817442
0.000817434
0.000817428
0.000817422
0.000817418
0.000817415
0.000817412
0.00081741
0.000817408
0.000817407
0.000817406
0.000817406
0.000817406
0.000817407
0.000817408
0.00081741
0.000817412
0.000817414
0.000817418
0.000817422
0.000817427
0.000817433
0.000817441
0.00081745
0.000817461
0.000817474
0.00081749
0.000817509
0.000817532
0.00081756
0.000817594
0.000817634
0.000817683
0.000817741
0.000817811
0.000817895
0.000817997
0.000818118
0.000818264
0.00081844
0.000818651
0.000818905
0.000819209
0.000819575
0.000820015
0.000820543
0.000821178
0.000821941
0.000822857
0.000823958
0.000825282
0.000826874
0.00082879
0.000831096
0.000833874
0.000837225
0.000841271
0.000846164
0.000852093
0.000859296
0.000868072
0.000878805
0.000891991
0.000908281
0.000928538
0.000953934
0.00098608
0.00102723
0.00108061
0.00115082
0.00124435
0.00137008
0.00153712
0.00175512
0.00201426
0.00227931
0.00243623
0.00198979
0.000616065
0.000603558
0.000586807
0.000563435
0.000530523
0.000486351
0.000433281
0.000378345
0.000329585
0.000291849
0.000265944
0.000250293
0.000242719
0.000241571
0.000246539
0.000255658
0.000269823
0.000290054
0.000317371
0.000352595
0.000396114
0.000447665
0.000506219
0.00056999
0.000636632
0.000703583
0.000768468
0.000829411
0.000885186
0.000935187
0.00097931
0.0010178
0.00105109
0.00107975
0.00110435
0.00112545
0.00114357
0.00115917
0.00117263
0.00118428
0.00119437
0.0012031
0.00121061
0.001217
0.00122234
0.00122667
0.00123001
0.00123238
0.00123378
0.00123421
0.00123367
0.00123215
0.00122966
0.00122617
0.00122168
0.00121618
0.00120965
0.00120208
0.00119348
0.00118384
0.00117318
0.00116153
0.00114893
0.00113547
0.0011212
0.00110624
0.00109071
0.00107474
0.00105847
0.00104205
0.00102564
0.0010094
0.000993476
0.000978005
0.000963113
0.000948908
0.000935477
0.000922886
0.000911179
0.00090038
0.000890493
0.000881506
0.000873392
0.000866113
0.000859621
0.000853863
0.000848784
0.000844324
0.000840428
0.000837037
0.0008341
0.000831564
0.000829383
0.000827515
0.000825918
0.000824559
0.000823405
0.000822428
0.000821602
0.000820907
0.000820323
0.000819832
0.000819422
0.000819079
0.000818793
0.000818554
0.000818356
0.000818191
0.000818054
0.000817941
0.000817847
0.000817769
0.000817704
0.00081765
0.000817606
0.00081757
0.000817539
0.000817514
0.000817494
0.000817477
0.000817463
0.000817451
0.000817441
0.000817434
0.000817427
0.000817422
0.000817418
0.000817414
0.000817411
0.000817409
0.000817408
0.000817407
0.000817406
0.000817406
0.000817406
0.000817407
0.000817408
0.000817409
0.000817411
0.000817414
0.000817417
0.000817421
0.000817427
0.000817433
0.00081744
0.000817449
0.00081746
0.000817474
0.00081749
0.000817509
0.000817532
0.00081756
0.000817593
0.000817634
0.000817682
0.00081774
0.000817811
0.000817895
0.000817996
0.000818117
0.000818263
0.000818439
0.000818649
0.000818903
0.000819207
0.000819572
0.000820011
0.000820538
0.000821171
0.000821931
0.000822845
0.000823943
0.000825263
0.00082685
0.000828758
0.000831055
0.000833821
0.000837155
0.00084118
0.000846046
0.000851938
0.000859091
0.0008678
0.000878441
0.000891499
0.000907609
0.000927612
0.000952642
0.000984252
0.00102461
0.00107679
0.00114518
0.00123585
0.00135705
0.00151666
0.00172198
0.00196425
0.00220907
0.00238131
0.00212011
0.000682246
0.00067413
0.000663894
0.000650436
0.00063217
0.000607211
0.000574382
0.000534713
0.000492023
0.000451598
0.000418043
0.000394087
0.000380823
0.000378573
0.000386584
0.000400031
0.000419324
0.000444727
0.000476275
0.000513685
0.000556307
0.000603116
0.000652783
0.000703803
0.000754667
0.000804031
0.000850831
0.00089434
0.00093415
0.00097012
0.00100231
0.00103091
0.00105618
0.00107845
0.00109802
0.00111524
0.00113038
0.00114374
0.00115553
0.00116596
0.00117518
0.00118333
0.00119047
0.00119668
0.00120198
0.00120639
0.00120992
0.00121255
0.00121428
0.00121511
0.00121501
0.00121398
0.00121202
0.00120909
0.0012052
0.00120032
0.00119444
0.00118755
0.00117963
0.00117069
0.00116075
0.00114983
0.00113796
0.00112523
0.00111169
0.00109746
0.00108264
0.00106736
0.00105176
0.001036
0.00102022
0.00100457
0.000989198
0.000974244
0.000959829
0.000946059
0.000933023
0.000920785
0.000909391
0.000898868
0.000889222
0.000880444
0.000872509
0.000865382
0.000859018
0.000853369
0.000848379
0.000843995
0.000840159
0.000836819
0.000833923
0.000831421