/*--------------------------------*- C++ -*----------------------------------*\
| =========                 |                                                 |
| \\      /  F ield         | OpenFOAM: The Open Source CFD Toolbox           |
|  \\    /   O peration     | Version:  2.4.0                                 |
|   \\  /    A nd           | Web:      www.OpenFOAM.org                      |
|    \\/     M anipulation  |                                                 |
\*---------------------------------------------------------------------------*/
FoamFile
{
    version     2.0;
    format      ascii;
    class       surfaceScalarField;
    location    "0.157";
    object      phi_0;
}
// * * * * * * * * * * * * * * * * * * * * * * * * * * * * * * * * * * * * * //

dimensions      [0 3 -1 0 0 0 0];

internalField   nonuniform List<scalar> 
8640
(
1.14664e-05
1.35336e-05
7.17626e-06
4.29017e-06
5.91977e-06
1.25649e-06
5.36884e-06
5.50928e-07
5.10137e-06
2.67475e-07
4.9406e-06
1.60769e-07
4.8313e-06
1.093e-07
4.80034e-06
3.09529e-08
4.5989e-06
2.01442e-07
-8.80493e-07
5.47939e-06
2.10499e-05
1.74836e-05
1.74577e-05
7.88237e-06
1.55125e-05
3.20173e-06
1.42583e-05
1.80512e-06
1.35011e-05
1.02467e-06
1.30087e-05
6.53186e-07
1.27321e-05
3.85887e-07
1.25733e-05
1.89732e-07
1.22749e-05
4.99867e-07
-8.83288e-07
1.22777e-05
2.56981e-05
1.67855e-05
2.41166e-05
9.4639e-06
2.26054e-05
4.71287e-06
2.12414e-05
3.1691e-06
2.02514e-05
2.01476e-06
1.95197e-05
1.38487e-06
1.9149e-05
7.56607e-07
1.88686e-05
4.70097e-07
1.84278e-05
9.40646e-07
-1.04336e-06
1.85879e-05
2.74502e-05
1.43354e-05
2.77582e-05
9.15582e-06
2.73643e-05
5.10684e-06
2.65278e-05
4.00558e-06
2.5706e-05
2.8366e-06
2.49151e-05
2.17576e-06
2.45609e-05
1.11075e-06
2.42418e-05
7.89255e-07
2.36118e-05
1.57065e-06
-1.39112e-06
2.39595e-05
2.76308e-05
1.17046e-05
2.8935e-05
7.85161e-06
2.96095e-05
4.43232e-06
2.96748e-05
3.94034e-06
2.94726e-05
3.03875e-06
2.89185e-05
2.72987e-06
2.87561e-05
1.27315e-06
2.85149e-05
1.03041e-06
2.78287e-05
2.25689e-06
-1.84284e-06
2.82804e-05
2.74399e-05
9.2647e-06
2.89689e-05
6.32256e-06
3.00188e-05
3.38244e-06
3.06858e-05
3.27335e-06
3.1217e-05
2.50756e-06
3.11468e-05
2.80002e-06
3.13891e-05
1.03086e-06
3.13089e-05
1.11065e-06
3.09116e-05
2.65413e-06
-2.43476e-06
3.15035e-05
2.72973e-05
6.96737e-06
2.88916e-05
4.72832e-06
2.98805e-05
2.39354e-06
3.06741e-05
2.47977e-06
3.14929e-05
1.68874e-06
3.18256e-05
2.46735e-06
3.23927e-05
4.63746e-07
3.23796e-05
1.12371e-06
3.27023e-05
2.33149e-06
-3.13317e-06
3.34007e-05
2.72664e-05
4.70098e-06
2.89463e-05
3.04838e-06
2.97257e-05
1.61417e-06
3.05395e-05
1.66591e-06
3.13237e-05
9.0454e-07
3.1936e-05
1.85506e-06
3.24195e-05
-1.97019e-08
3.25158e-05
1.02738e-06
3.36831e-05
1.16425e-06
-4.6684e-06
3.52183e-05
2.7234e-05
2.46698e-06
2.89418e-05
1.34062e-06
2.96893e-05
8.66634e-07
3.04471e-05
9.08066e-07
3.12089e-05
1.42813e-07
3.19046e-05
1.15935e-06
3.21944e-05
-3.09504e-07
3.27189e-05
5.02813e-07
3.39259e-05
-4.26796e-08
-4.41092e-06
3.36684e-05
2.72106e-05
2.56384e-07
2.89656e-05
-4.14351e-07
2.96649e-05
1.67321e-07
3.04249e-05
1.48044e-07
3.12183e-05
-6.5057e-07
3.17888e-05
5.88793e-07
3.21273e-05
-6.47914e-07
3.2892e-05
-2.61956e-07
3.36042e-05
-7.54825e-07
-3.5506e-06
3.27438e-05
2.72429e-05
-1.98651e-06
2.89484e-05
-2.11986e-06
2.9624e-05
-5.08316e-07
3.04821e-05
-7.10008e-07
3.12018e-05
-1.37028e-06
3.17195e-05
7.11327e-08
3.22162e-05
-1.14464e-06
3.28688e-05
-9.146e-07
3.32118e-05
-1.09785e-06
-3.25749e-06
3.29187e-05
2.72753e-05
-4.26182e-06
2.89236e-05
-3.76814e-06
2.96956e-05
-1.28036e-06
3.0548e-05
-1.56234e-06
3.11523e-05
-1.97461e-06
3.1783e-05
-5.59549e-07
3.23065e-05
-1.66811e-06
3.27544e-05
-1.36252e-06
3.3135e-05
-1.47844e-06
-3.74516e-06
3.36226e-05
2.73479e-05
-6.60971e-06
2.89675e-05
-5.38776e-06
2.9793e-05
-2.10587e-06
3.05754e-05
-2.34471e-06
3.12077e-05
-2.60696e-06
3.18995e-05
-1.25128e-06
3.2311e-05
-2.07969e-06
3.27126e-05
-1.7641e-06
3.32483e-05
-2.01412e-06
-4.35411e-06
3.38573e-05
2.74543e-05
-9.06398e-06
2.88539e-05
-6.78742e-06
2.98612e-05
-3.11312e-06
3.06942e-05
-3.17769e-06
3.13271e-05
-3.23988e-06
3.19141e-05
-1.83828e-06
3.21882e-05
-2.35383e-06
3.24603e-05
-2.03619e-06
3.28292e-05
-2.38299e-06
-4.4355e-06
3.29106e-05
2.7549e-05
-1.1613e-05
2.88865e-05
-8.12498e-06
2.99899e-05
-4.21644e-06
3.07303e-05
-3.91817e-06
3.10426e-05
-3.55218e-06
3.12866e-05
-2.08219e-06
3.1205e-05
-2.27232e-06
3.10993e-05
-1.93047e-06
3.10528e-05
-2.33643e-06
-3.99621e-06
3.06135e-05
2.76838e-05
-1.42968e-05
2.88628e-05
-9.30391e-06
2.96161e-05
-4.96975e-06
2.97057e-05
-4.00783e-06
2.93254e-05
-3.17187e-06
2.90346e-05
-1.79138e-06
2.85625e-05
-1.8002e-06
2.81499e-05
-1.51787e-06
2.77618e-05
-1.9483e-06
-2.61902e-06
2.63846e-05
2.74742e-05
-1.6771e-05
2.77056e-05
-9.53533e-06
2.73814e-05
-4.6455e-06
2.65379e-05
-3.16439e-06
2.55901e-05
-2.22408e-06
2.49876e-05
-1.18882e-06
2.43548e-05
-1.16741e-06
2.38462e-05
-1.00927e-06
2.32993e-05
-1.40141e-06
-1.63727e-06
2.23175e-05
2.57063e-05
-1.74772e-05
2.40837e-05
-7.91277e-06
2.26185e-05
-3.18028e-06
2.12429e-05
-1.78884e-06
2.01635e-05
-1.14467e-06
1.9547e-05
-5.72256e-07
1.89565e-05
-5.76949e-07
1.84868e-05
-5.39544e-07
1.78847e-05
-7.99339e-07
-8.04451e-07
1.70519e-05
2.10542e-05
-1.35314e-05
1.74398e-05
-4.29841e-06
1.55151e-05
-1.25551e-06
1.42628e-05
-5.36574e-07
1.3434e-05
-3.15853e-07
1.30035e-05
-1.4176e-07
1.25844e-05
-1.57896e-07
1.22217e-05
-1.76822e-07
1.16996e-05
-2.77264e-07
-2.58839e-07
1.1154e-05
1.14686e-05
7.17017e-06
5.91466e-06
5.37809e-06
5.06224e-06
4.92048e-06
4.76258e-06
4.58576e-06
4.3085e-06
4.04966e-06
7.06138e-06
-1.44691e-07
-1.4373e-06
8.62153e-06
-1.17218e-06
-3.87968e-07
9.0307e-06
-1.02763e-06
6.18463e-07
9.06768e-06
-2.25053e-06
2.21355e-06
9.17279e-06
-1.65593e-06
1.55081e-06
9.00747e-06
-7.56905e-07
9.2223e-07
9.47151e-06
-1.57717e-06
1.11313e-06
1.01914e-05
6.17236e-08
-7.81641e-07
1.12155e-05
6.11339e-07
-1.6354e-06
1.22289e-05
1.16797e-06
-2.18137e-06
1.38794e-05
2.51746e-06
-4.16792e-06
1.54559e-05
3.26541e-06
-4.84199e-06
1.60865e-05
2.7099e-06
-3.34044e-06
1.78187e-05
1.07096e-06
-2.80321e-06
2.02172e-05
-5.55296e-09
-2.39289e-06
2.20125e-05
7.06508e-08
-1.866e-06
2.38268e-05
-4.46675e-06
2.65248e-06
2.60068e-05
-7.33104e-06
5.15104e-06
2.8029e-05
-9.86007e-06
7.8378e-06
3.02193e-05
-1.66822e-05
1.44919e-05
3.13605e-05
-1.907e-05
1.79289e-05
3.21066e-05
-1.9611e-05
1.88649e-05
3.23306e-05
-2.25261e-05
2.23021e-05
3.17669e-05
-2.20335e-05
2.25971e-05
3.12958e-05
-2.0124e-05
2.05952e-05
3.01949e-05
-1.89278e-05
2.00287e-05
2.87688e-05
-1.75942e-05
1.90203e-05
2.77741e-05
-1.82513e-05
1.92461e-05
2.6524e-05
-1.91263e-05
2.03764e-05
2.51476e-05
-2.00266e-05
2.1403e-05
2.4253e-05
-2.16007e-05
2.24953e-05
2.3625e-05
-2.48377e-05
2.54657e-05
2.23928e-05
-2.85124e-05
2.97446e-05
2.18581e-05
-2.79239e-05
2.84586e-05
2.2631e-05
-2.89745e-05
2.82016e-05
2.3625e-05
-3.40663e-05
3.30722e-05
2.47564e-05
-3.58037e-05
3.46724e-05
2.58057e-05
-2.83282e-05
2.72789e-05
2.59272e-05
-2.07667e-05
2.06452e-05
2.58755e-05
-1.0178e-05
1.02298e-05
2.59261e-05
4.69623e-06
-4.74687e-06
2.56506e-05
1.40718e-05
-1.37963e-05
2.47687e-05
2.33855e-05
-2.25035e-05
2.37544e-05
3.37142e-05
-3.26999e-05
2.19993e-05
3.94129e-05
-3.76578e-05
2.02203e-05
3.73279e-05
-3.5549e-05
1.8229e-05
3.79809e-05
-3.59897e-05
1.61564e-05
3.92455e-05
-3.71728e-05
1.46935e-05
4.54072e-05
-4.39443e-05
1.41129e-05
4.55726e-05
-4.4992e-05
1.53595e-05
4.20583e-05
-4.33049e-05
1.67718e-05
3.18421e-05
-3.32544e-05
1.74976e-05
2.09663e-05
-2.16921e-05
1.73419e-05
8.55771e-06
-8.40196e-06
1.80268e-05
-4.26607e-06
3.58113e-06
1.82392e-05
-1.28952e-05
1.26828e-05
1.87204e-05
-2.19177e-05
2.14364e-05
1.80858e-05
-3.28888e-05
3.35234e-05
1.80155e-05
-4.05246e-05
4.05949e-05
1.77642e-05
-3.85e-05
3.87513e-05
1.6021e-05
-3.47536e-05
3.64968e-05
1.68455e-05
-2.57391e-05
2.49147e-05
1.97338e-05
-2.67219e-05
2.38336e-05
2.33676e-05
-3.72588e-05
3.3625e-05
2.51129e-05
-4.16251e-05
3.98799e-05
2.42337e-05
-3.54059e-05
3.62852e-05
2.28904e-05
-3.01986e-05
3.15419e-05
2.15865e-05
-2.07183e-05
2.20223e-05
2.07672e-05
-4.64875e-06
5.46803e-06
2.02177e-05
8.97348e-06
-8.424e-06
1.94276e-05
1.63204e-05
-1.55303e-05
1.87413e-05
2.72541e-05
-2.65679e-05
1.80574e-05
4.14419e-05
-4.07579e-05
1.69041e-05
4.71586e-05
-4.60053e-05
1.59517e-05
4.04151e-05
-3.94627e-05
1.42933e-05
3.71108e-05
-3.54524e-05
1.35217e-05
3.88011e-05
-3.80294e-05
1.34205e-05
4.78547e-05
-4.77535e-05
1.51129e-05
4.59311e-05
-4.76235e-05
1.54562e-05
4.66148e-05
-4.69581e-05
1.70743e-05
2.7755e-05
-2.93731e-05
1.75561e-05
2.81967e-05
-2.86785e-05
1.85997e-05
8.52341e-06
-9.567e-06
1.79848e-05
7.07241e-06
-6.45745e-06
1.82598e-05
-1.46649e-05
1.43898e-05
1.81661e-05
-6.68288e-06
6.77661e-06
1.86618e-05
-2.35657e-05
2.307e-05
1.78197e-05
-7.59302e-06
8.43509e-06
1.97616e-05
-2.08301e-05
1.88882e-05
1.73361e-05
-5.69206e-06
8.11764e-06
1.926e-05
-2.74609e-05
2.5537e-05
1.72477e-05
-1.20309e-05
1.40432e-05
1.87183e-05
-1.40748e-05
1.26043e-05
1.64169e-05
-8.33368e-07
3.13474e-06
1.67958e-05
-2.09465e-06
1.71577e-06
1.68654e-05
1.09552e-05
-1.10248e-05
1.77116e-05
1.62321e-05
-1.70783e-05
1.41113e-05
2.79597e-05
-2.43594e-05
1.37572e-05
2.71877e-05
-2.68335e-05
5.44265e-05
-5.30491e-05
1.23798e-05
1.30639e-05
-9.30856e-07
1.4064e-05
-2.17228e-06
1.4349e-05
-1.31262e-06
1.40542e-05
-1.95577e-06
1.41121e-05
-1.71386e-06
1.41249e-05
-7.69622e-07
1.41264e-05
-1.57874e-06
1.46397e-05
-4.51504e-07
1.55335e-05
-2.82535e-07
1.58485e-05
8.5301e-07
1.69515e-05
1.41443e-06
1.90113e-05
1.2056e-06
1.98587e-05
1.86248e-06
2.12958e-05
-3.66143e-07
2.35438e-05
-2.25354e-06
2.54802e-05
-1.86574e-06
2.75504e-05
-6.53693e-06
2.93998e-05
-9.18045e-06
3.13665e-05
-1.18267e-05
3.30416e-05
-1.83573e-05
3.36828e-05
-1.97112e-05
3.41994e-05
-2.01276e-05
3.35314e-05
-2.18581e-05
3.22374e-05
-2.07395e-05
3.14252e-05
-1.93118e-05
3.01198e-05
-1.76224e-05
2.85925e-05
-1.60669e-05
2.71159e-05
-1.67747e-05
2.54373e-05
-1.74477e-05
2.38032e-05
-1.83926e-05
2.28131e-05
-2.06106e-05
2.21739e-05
-2.41984e-05
2.12167e-05
-2.75552e-05
2.0934e-05
-2.76412e-05
2.16214e-05
-2.96619e-05
2.25326e-05
-3.49774e-05
2.34033e-05
-3.66744e-05
2.40157e-05
-2.89407e-05
2.36693e-05
-2.04203e-05
2.32045e-05
-9.71319e-06
2.33656e-05
4.53506e-06
2.3458e-05
1.39794e-05
2.29113e-05
2.39322e-05
2.22354e-05
3.43901e-05
2.09165e-05
4.07318e-05
1.95691e-05
3.86753e-05
1.814e-05
3.94101e-05
1.65469e-05
4.08386e-05
1.56963e-05
4.62578e-05
1.56865e-05
4.55824e-05
1.7113e-05
4.06319e-05
1.83572e-05
3.05979e-05
1.8854e-05
2.04695e-05
1.87072e-05
8.70453e-06
1.93377e-05
-4.89657e-06
1.95643e-05
-1.31218e-05
2.00595e-05
-2.24128e-05
1.95659e-05
-3.23953e-05
1.89835e-05
-3.99422e-05
1.82393e-05
-3.77558e-05
1.65442e-05
-3.30586e-05
1.7224e-05
-2.64189e-05
1.8914e-05
-2.84118e-05
2.20362e-05
-4.03811e-05
2.38572e-05
-4.34461e-05
2.2954e-05
-3.45027e-05
2.13997e-05
-2.86443e-05
1.97323e-05
-1.9051e-05
1.88951e-05
-3.81155e-06
1.85075e-05
9.36111e-06
1.80071e-05
1.68209e-05
1.75716e-05
2.76895e-05
1.69141e-05
4.20994e-05
1.60463e-05
4.80264e-05
1.53577e-05
4.11036e-05
1.39341e-05
3.85344e-05
1.3935e-05
3.88002e-05
1.39192e-05
4.78705e-05
1.59503e-05
4.39e-05
1.62631e-05
4.6302e-05
1.81263e-05
2.58918e-05
1.92981e-05
2.70249e-05
2.08039e-05
7.01759e-06
2.00402e-05
7.83608e-06
1.97604e-05
-1.43851e-05
1.98383e-05
-6.76077e-06
2.02885e-05
-2.40159e-05
1.93962e-05
-6.70073e-06
2.12523e-05
-2.26862e-05
1.94039e-05
-3.84369e-06
2.15667e-05
-2.96236e-05
1.93574e-05
-9.82169e-06
2.09451e-05
-1.56626e-05
1.85393e-05
1.5725e-06
1.87144e-05
-2.26979e-06
1.78498e-05
1.18198e-05
2.01309e-05
1.3951e-05
1.80286e-05
3.0062e-05
1.95684e-05
2.56478e-05
5.59336e-05
1.80613e-05
1.92124e-05
-1.55534e-06
1.97701e-05
-2.73003e-06
2.0017e-05
-1.55948e-06
1.9705e-05
-1.64378e-06
1.92397e-05
-1.24859e-06
1.9501e-05
-1.03089e-06
1.9428e-05
-1.50576e-06
1.93816e-05
-4.05134e-07
2.04281e-05
-1.32899e-06
2.09046e-05
3.76435e-07
2.14225e-05
8.966e-07
2.31624e-05
-5.34352e-07
2.41614e-05
8.63515e-07
2.55115e-05
-1.71626e-06
2.72314e-05
-3.97343e-06
2.91985e-05
-3.83284e-06
3.12719e-05
-8.61031e-06
3.27478e-05
-1.06564e-05
3.44759e-05
-1.35548e-05
3.52767e-05
-1.9158e-05
3.5322e-05
-1.97565e-05
3.53268e-05
-2.01324e-05
3.41101e-05
-2.06415e-05
3.25633e-05
-1.91927e-05
3.13729e-05
-1.81213e-05
2.99084e-05
-1.61579e-05
2.83553e-05
-1.45139e-05
2.66382e-05
-1.50576e-05
2.46541e-05
-1.54636e-05
2.30221e-05
-1.67606e-05
2.2482e-05
-2.00705e-05
2.18799e-05
-2.35964e-05
2.0669e-05
-2.63443e-05
2.01651e-05
-2.71373e-05
2.05903e-05
-3.00871e-05
2.12767e-05
-3.56639e-05
2.16937e-05
-3.70914e-05
2.16655e-05
-2.89125e-05
2.0814e-05
-1.95688e-05
2.00146e-05
-8.91373e-06
2.03453e-05
4.20435e-06
2.08486e-05
1.34761e-05
2.06988e-05
2.4082e-05
2.03806e-05
3.47083e-05
1.96071e-05
4.15054e-05
1.8857e-05
3.94253e-05
1.8104e-05
4.01631e-05
1.70209e-05
4.19217e-05
1.66626e-05
4.66161e-05
1.71253e-05
4.51197e-05
1.87925e-05
3.89647e-05
1.9939e-05
2.94514e-05
2.03214e-05
2.00871e-05
2.03943e-05
8.63166e-06
2.08334e-05
-5.33572e-06
2.08651e-05
-1.31534e-05
2.10214e-05
-2.2569e-05
2.04597e-05
-3.18336e-05
1.97217e-05
-3.92042e-05
1.85072e-05
-3.65412e-05
1.69925e-05
-3.1544e-05
1.75568e-05
-2.69832e-05
1.82373e-05
-2.90923e-05
2.0378e-05
-4.25217e-05
2.20051e-05
-4.50732e-05
2.11969e-05
-3.36946e-05
1.95715e-05
-2.70188e-05
1.77602e-05
-1.72397e-05
1.71819e-05
-3.23321e-06
1.70853e-05
9.4577e-06
1.68657e-05
1.70405e-05
1.62867e-05
2.82684e-05
1.57259e-05
4.26603e-05
1.50925e-05
4.86598e-05
1.44112e-05
4.17849e-05
1.36609e-05
3.92846e-05
1.4497e-05
3.79642e-05
1.46548e-05
4.77127e-05
1.68372e-05
4.17176e-05
1.70056e-05
4.61336e-05
1.93093e-05
2.35881e-05
2.07909e-05
2.55433e-05
2.22113e-05
5.59723e-06
2.16746e-05
8.37274e-06
2.15258e-05
-1.42362e-05
2.15893e-05
-6.82423e-06
2.18102e-05
-2.42369e-05
2.06871e-05
-5.57756e-06
2.17228e-05
-2.37219e-05
2.05833e-05
-2.70425e-06
2.27083e-05
-3.17485e-05
2.07943e-05
-7.9077e-06
2.35505e-05
-1.84188e-05
2.17847e-05
3.3383e-06
2.25422e-05
-3.02728e-06
1.91402e-05
1.52218e-05
1.99776e-05
1.31136e-05
1.90361e-05
3.10034e-05
2.34981e-05
2.11859e-05
5.52739e-05
2.41577e-05
2.48032e-05
-2.39903e-06
2.51028e-05
-3.02959e-06
2.50392e-05
-1.49586e-06
2.50056e-05
-1.61022e-06
2.42372e-05
-4.80176e-07
2.43701e-05
-1.16381e-06
2.45479e-05
-1.68358e-06
2.42018e-05
-5.90629e-08
2.4919e-05
-2.04616e-06
2.55776e-05
-2.82121e-07
2.60934e-05
3.80756e-07
2.73089e-05
-1.74985e-06
2.84754e-05
-3.02968e-07
2.97652e-05
-3.00606e-06
3.08812e-05
-5.0894e-06
3.2743e-05
-5.69467e-06
3.43817e-05
-1.0249e-05
3.556e-05
-1.18347e-05
3.68267e-05
-1.48216e-05
3.6655e-05
-1.89863e-05
3.60799e-05
-1.91814e-05
3.54519e-05
-1.95043e-05
3.38795e-05
-1.90691e-05
3.23295e-05
-1.76427e-05
3.10074e-05
-1.67992e-05
2.93843e-05
-1.45349e-05
2.77812e-05
-1.29107e-05
2.61748e-05
-1.34512e-05
2.43731e-05
-1.36619e-05
2.32461e-05
-1.56336e-05
2.26783e-05
-1.95027e-05
2.10776e-05
-2.19956e-05
1.92972e-05
-2.45639e-05
1.88953e-05
-2.67354e-05
1.93052e-05
-3.0497e-05
1.96705e-05
-3.60292e-05
1.96078e-05
-3.70288e-05
1.9149e-05
-2.84537e-05
1.7869e-05
-1.82888e-05
1.67548e-05
-7.79958e-06
1.72241e-05
3.73514e-06
1.80742e-05
1.26259e-05
1.83109e-05
2.38453e-05
1.83349e-05
3.46843e-05
1.80991e-05
4.17411e-05
1.79064e-05
3.9618e-05
1.76977e-05
4.03718e-05
1.71728e-05
4.24466e-05
1.72649e-05
4.6524e-05
1.81045e-05
4.428e-05
2.00807e-05
3.69884e-05
2.14212e-05
2.81109e-05
2.18259e-05
1.96824e-05
2.2089e-05
8.3686e-06
2.23298e-05
-5.57654e-06
2.22622e-05
-1.30859e-05
2.20719e-05
-2.23788e-05
2.14233e-05
-3.1185e-05
2.02965e-05
-3.80774e-05
1.83185e-05
-3.45632e-05
1.70475e-05
-3.0273e-05
1.74541e-05
-2.73898e-05
1.74078e-05
-2.9046e-05
1.84195e-05
-4.35335e-05
1.9509e-05
-4.61627e-05
1.87656e-05
-3.29511e-05
1.72835e-05
-2.55368e-05
1.54402e-05
-1.53964e-05
1.50409e-05
-2.83389e-06
1.4981e-05
9.51761e-06
1.49634e-05
1.7058e-05
1.45146e-05
2.87173e-05
1.45263e-05
4.26486e-05
1.44397e-05
4.87464e-05
1.39582e-05
4.22664e-05
1.35767e-05
3.96661e-05
1.48245e-05
3.67163e-05
1.54087e-05
4.71285e-05
1.78326e-05
3.92937e-05
1.82761e-05
4.56902e-05
2.05344e-05
2.13298e-05
2.18353e-05
2.42424e-05
2.33046e-05
4.12787e-06
2.32426e-05
8.43473e-06
2.3303e-05
-1.42966e-05
2.30256e-05
-6.54681e-06
2.33915e-05
-2.46027e-05
2.18212e-05
-4.00726e-06
2.2266e-05
-2.41667e-05
2.18106e-05
-2.24884e-06
2.16869e-05
-3.16249e-05
2.09598e-05
-7.18059e-06
2.4751e-05
-2.221e-05
2.28244e-05
5.26494e-06
2.76999e-05
-7.9028e-06
2.50974e-05
1.78244e-05
2.57723e-05
1.24386e-05
2.06275e-05
3.61482e-05
2.30173e-05
1.87962e-05
5.22664e-05
2.60248e-05
2.92486e-05
-3.36721e-06
2.95292e-05
-3.31021e-06
2.91613e-05
-1.12797e-06
2.9089e-05
-1.53784e-06
2.83303e-05
2.78514e-07
2.82506e-05
-1.08413e-06
2.84489e-05
-1.88189e-06
2.8356e-05
3.38134e-08
2.87846e-05
-2.47475e-06
2.94669e-05
-9.6439e-07
3.01369e-05
-2.89274e-07
3.06975e-05
-2.31039e-06
3.19946e-05
-1.60012e-06
3.32678e-05
-4.27929e-06
3.40173e-05
-5.83881e-06
3.55773e-05
-7.25476e-06
3.64435e-05
-1.11152e-05
3.7181e-05
-1.25721e-05
3.77465e-05
-1.53871e-05
3.69517e-05
-1.81915e-05
3.6224e-05
-1.84538e-05
3.53069e-05
-1.85872e-05
3.37104e-05
-1.74726e-05
3.24374e-05
-1.63697e-05
3.10679e-05
-1.54297e-05
2.90987e-05
-1.25657e-05
2.73498e-05
-1.11618e-05
2.56705e-05
-1.17719e-05
2.40486e-05
-1.204e-05
2.30678e-05
-1.46528e-05
2.16085e-05
-1.80434e-05
1.90676e-05
-1.94546e-05
1.75549e-05
-2.30512e-05
1.75838e-05
-2.67643e-05
1.76021e-05
-3.05153e-05
1.72898e-05
-3.57169e-05
1.66897e-05
-3.64287e-05
1.60386e-05
-2.78026e-05
1.47771e-05
-1.70273e-05
1.37295e-05
-6.75202e-06
1.42835e-05
3.18112e-06
1.52267e-05
1.16827e-05
1.56658e-05
2.34062e-05
1.60091e-05
3.4341e-05
1.64181e-05
4.13321e-05
1.69374e-05
3.90988e-05
1.73212e-05
3.99881e-05
1.74255e-05
4.23423e-05
1.78647e-05
4.60848e-05
1.88474e-05
4.32974e-05
2.10316e-05
3.48041e-05
2.26678e-05
2.64747e-05
2.31587e-05
1.91915e-05
2.35061e-05
8.02118e-06
2.35417e-05
-5.61207e-06
2.3398e-05
-1.29422e-05
2.28658e-05
-2.18466e-05
2.22414e-05
-3.05605e-05
2.06093e-05
-3.64453e-05
1.81348e-05
-3.20887e-05
1.69153e-05
-2.90536e-05
1.66992e-05
-2.71737e-05
1.61444e-05
-2.84912e-05
1.62015e-05
-4.35906e-05
1.65381e-05
-4.64993e-05
1.58718e-05
-3.22848e-05
1.47612e-05
-2.44262e-05
1.31516e-05
-1.37868e-05
1.31705e-05
-2.8528e-06
1.33578e-05
9.33035e-06
1.35871e-05
1.68287e-05
1.28776e-05
2.94267e-05
1.3024e-05
4.25021e-05
1.35757e-05
4.81948e-05
1.38573e-05
4.19848e-05
1.34306e-05
4.00928e-05
1.46009e-05
3.5546e-05
1.59986e-05
4.57309e-05
1.87809e-05
3.65114e-05
1.9924e-05
4.4547e-05
2.20177e-05
1.9236e-05
2.27182e-05
2.35419e-05
2.42346e-05
2.6115e-06
2.44565e-05
8.21285e-06
2.51543e-05
-1.49944e-05
2.45365e-05
-5.92903e-06
2.51979e-05
-2.52641e-05
2.29171e-05
-1.72649e-06
2.33103e-05
-2.45599e-05
2.2925e-05
-1.86359e-06
2.13124e-05
-3.00123e-05
2.09153e-05
-6.78356e-06
2.15786e-05
-2.28733e-05
1.91323e-05
7.71123e-06
2.48131e-05
-1.35836e-05
2.46046e-05
1.80329e-05
3.09431e-05
6.10013e-06
2.77249e-05
3.93664e-05
2.74472e-05
1.90739e-05
5.05821e-05
2.91315e-05
3.22481e-05
-4.11182e-06
3.24225e-05
-3.48459e-06
3.2042e-05
-7.47415e-07
3.1676e-05
-1.17186e-06
3.11517e-05
8.02772e-07
3.09413e-05
-8.73659e-07
3.09664e-05
-1.907e-06
3.12954e-05
-2.95214e-07
3.13861e-05
-2.56545e-06
3.20279e-05
-1.60617e-06
3.29621e-05
-1.22351e-06
3.3201e-05
-2.54926e-06
3.4434e-05
-2.83316e-06
3.53379e-05
-5.18312e-06
3.58885e-05
-6.38944e-06
3.71548e-05
-8.52111e-06
3.75114e-05
-1.14718e-05
3.78116e-05
-1.28723e-05
3.76548e-05
-1.52303e-05
3.65585e-05
-1.70952e-05
3.60573e-05
-1.79526e-05
3.53069e-05
-1.78368e-05
3.37674e-05
-1.5933e-05
3.25032e-05
-1.51056e-05
3.1006e-05
-1.39325e-05
2.90764e-05
-1.0636e-05
2.7459e-05
-9.54443e-06
2.56781e-05
-9.99104e-06
2.3872e-05
-1.02339e-05
2.22634e-05
-1.30442e-05
1.99009e-05
-1.56809e-05
1.73471e-05
-1.69009e-05
1.63277e-05
-2.20318e-05
1.61443e-05
-2.65809e-05
1.54811e-05
-2.98522e-05
1.45821e-05
-3.48178e-05
1.36208e-05
-3.54675e-05
1.29436e-05
-2.71253e-05
1.20087e-05
-1.60924e-05
1.12119e-05
-5.95529e-06
1.17716e-05
2.62152e-06
1.25434e-05
1.09108e-05
1.29829e-05
2.29668e-05
1.36192e-05
3.37048e-05
1.45386e-05
4.04127e-05
1.56296e-05
3.80077e-05
1.64653e-05
3.91524e-05
1.71558e-05
4.16517e-05
1.80559e-05
4.51848e-05
1.9329e-05
4.20242e-05
2.16637e-05
3.24695e-05
2.35506e-05
2.45878e-05
2.42192e-05
1.85228e-05
2.46926e-05
7.54783e-06
2.45166e-05
-5.43614e-06
2.42907e-05
-1.27163e-05
2.36316e-05
-2.11875e-05
2.28746e-05
-2.98035e-05
2.06983e-05
-3.4269e-05
1.81271e-05
-2.95175e-05
1.66515e-05
-2.7578e-05
1.54851e-05
-2.60073e-05
1.46736e-05
-2.76796e-05
1.385e-05
-4.27671e-05
1.33687e-05
-4.60179e-05
1.29486e-05
-3.18648e-05
1.23166e-05
-2.37942e-05
1.08577e-05
-1.23278e-05
1.11468e-05
-3.14187e-06
1.15693e-05
8.90777e-06
1.20095e-05
1.63886e-05
1.12254e-05
3.02109e-05
1.15537e-05
4.21738e-05
1.21177e-05
4.76308e-05
1.33463e-05
4.07561e-05
1.31027e-05
4.03365e-05
1.42475e-05
3.44011e-05
1.63716e-05
4.36068e-05
1.94494e-05
3.34337e-05
2.13545e-05
4.26419e-05
2.33367e-05
1.72538e-05
2.39079e-05
2.29706e-05
2.56468e-05
8.72584e-07
2.58316e-05
8.02805e-06
2.66815e-05
-1.58443e-05
2.57906e-05
-5.03815e-06
2.61066e-05
-2.55801e-05
2.3723e-05
6.5713e-07
2.42194e-05
-2.50563e-05
2.39888e-05
-1.63303e-06
2.32142e-05
-2.92376e-05
2.1378e-05
-4.94733e-06
2.14678e-05
-2.29631e-05
1.79493e-05
1.12297e-05
1.95815e-05
-1.52158e-05
1.95666e-05
1.80477e-05
2.69029e-05
-1.23617e-06
2.74832e-05
3.87861e-05
2.93165e-05
1.72405e-05
4.77121e-05
3.21866e-05
3.3549e-05
-4.26017e-06
3.33564e-05
-3.29199e-06
3.31101e-05
-5.01076e-07
3.24544e-05
-5.16122e-07
3.2359e-05
8.98122e-07
3.23332e-05
-8.47884e-07
3.23587e-05
-1.93242e-06
3.31032e-05
-1.03976e-06
3.29047e-05
-2.36701e-06
3.33422e-05
-2.04367e-06
3.41883e-05
-2.06958e-06
3.43326e-05
-2.69355e-06
3.54503e-05
-3.95084e-06
3.61737e-05
-5.90649e-06
3.66532e-05
-6.86898e-06
3.7242e-05
-9.1099e-06
3.70284e-05
-1.12582e-05
3.72135e-05
-1.30574e-05
3.71264e-05
-1.51433e-05
3.63263e-05
-1.6295e-05
3.59652e-05
-1.75915e-05
3.52494e-05
-1.7121e-05
3.40724e-05
-1.4756e-05
3.29382e-05
-1.39713e-05
3.09821e-05
-1.19765e-05
2.88909e-05
-8.54479e-06
2.7402e-05
-8.05553e-06
2.55307e-05
-8.11981e-06
2.34972e-05
-8.20035e-06
2.14778e-05
-1.10248e-05
1.86353e-05
-1.28384e-05
1.60089e-05
-1.42744e-05
1.48739e-05
-2.08968e-05
1.41199e-05
-2.58268e-05
1.2888e-05
-2.86203e-05
1.15001e-05
-3.34299e-05
1.03315e-05
-3.42989e-05
9.86395e-06
-2.66577e-05
9.35812e-06
-1.55866e-05
8.90119e-06
-5.49835e-06
9.30034e-06
2.22236e-06
9.72874e-06
1.04824e-05
1.00972e-05
2.25983e-05
1.11444e-05
3.26575e-05
1.26582e-05
3.88989e-05
1.44328e-05
3.62331e-05
1.58405e-05
3.77447e-05
1.70538e-05
4.04384e-05
1.83317e-05
4.39069e-05
1.98181e-05
4.05378e-05
2.20968e-05
3.01908e-05
2.40081e-05
2.26766e-05
2.487e-05
1.76608e-05
2.55472e-05
6.87069e-06
2.5385e-05
-5.27397e-06
2.49313e-05
-1.22626e-05
2.42044e-05
-2.04606e-05
2.31752e-05
-2.87743e-05
2.04595e-05
-3.15533e-05
1.79446e-05
-2.70026e-05
1.60793e-05
-2.57128e-05
1.41505e-05
-2.40784e-05
1.31652e-05
-2.66944e-05
1.20454e-05
-4.16473e-05
1.08063e-05
-4.47788e-05
1.03368e-05
-3.13953e-05
1.01075e-05
-2.35649e-05
9.23784e-06
-1.14582e-05
9.61415e-06
-3.51817e-06
9.73178e-06
8.79015e-06
1.01488e-05
1.59716e-05
9.67429e-06
3.06853e-05
1.00493e-05
4.17988e-05
1.06681e-05
4.7012e-05
1.28266e-05
3.85976e-05
1.27023e-05
4.04607e-05
1.47847e-05
3.23188e-05
1.70843e-05
4.13071e-05
1.95751e-05
3.09429e-05
2.22183e-05
3.99987e-05
2.45423e-05
1.49298e-05
2.54075e-05
2.21055e-05
2.69993e-05
-7.19257e-07
2.6784e-05
8.24334e-06
2.76764e-05
-1.67368e-05
2.68579e-05
-4.21966e-06
2.65935e-05
-2.53157e-05
2.41047e-05
3.14596e-06
2.46889e-05
-2.56405e-05
2.47599e-05
-1.70401e-06
2.42604e-05
-2.87382e-05
2.12112e-05
-1.8981e-06
2.18289e-05
-2.35808e-05
1.86479e-05
1.44107e-05
1.92111e-05
-1.57789e-05
1.83179e-05
1.8941e-05
2.34422e-05
-6.36054e-06
2.50462e-05
3.71821e-05
2.66953e-05
1.55914e-05
4.29809e-05
3.14266e-05
3.3907e-05
-2.94893e-06
3.26459e-05
-2.03087e-06
3.23655e-05
-2.20625e-07
3.19835e-05
-1.34128e-07
3.26997e-05
1.81939e-07
3.29152e-05
-1.06344e-06
3.30267e-05
-2.04387e-06
3.38908e-05
-1.90392e-06
3.36089e-05
-2.08502e-06
3.37446e-05
-2.17945e-06
3.42294e-05
-2.55436e-06
3.44857e-05
-2.9498e-06
3.53237e-05
-4.78885e-06
3.57286e-05
-6.3114e-06
3.61353e-05
-7.27572e-06
3.64708e-05
-9.44537e-06
3.63767e-05
-1.11641e-05
3.66745e-05
-1.33552e-05
3.66241e-05
-1.50929e-05
3.62611e-05
-1.5932e-05
3.60522e-05
-1.73826e-05
3.51703e-05
-1.62391e-05
3.40327e-05
-1.36184e-05
3.27059e-05
-1.26446e-05
3.05036e-05
-9.77411e-06
2.85127e-05
-6.55392e-06
2.69374e-05
-6.48019e-06
2.48023e-05
-5.98472e-06
2.26475e-05
-6.04562e-06
2.03037e-05
-8.68093e-06
1.69961e-05
-9.5309e-06
1.43554e-05
-1.16337e-05
1.3027e-05
-1.95684e-05
1.18303e-05
-2.46301e-05
1.01409e-05
-2.69309e-05
8.37377e-06
-3.16627e-05
7.07738e-06
-3.30025e-05
6.76385e-06
-2.63442e-05
6.67976e-06
-1.55025e-05
6.59235e-06
-5.41094e-06
6.9523e-06
1.86242e-06
6.97171e-06
1.0463e-05
7.16692e-06
2.24031e-05
8.67722e-06
3.11472e-05
1.06962e-05
3.68799e-05
1.28998e-05
3.40295e-05
1.46981e-05
3.59463e-05
1.632e-05
3.88166e-05
1.80129e-05
4.2214e-05
1.99593e-05
3.85913e-05
2.23155e-05
2.78346e-05
2.41655e-05
2.08267e-05
2.52875e-05
1.65388e-05
2.61792e-05
5.97902e-06
2.6013e-05
-5.10782e-06
2.54207e-05
-1.16703e-05
2.47104e-05
-1.97503e-05
2.3382e-05
-2.74459e-05
2.02679e-05
-2.84392e-05
1.77797e-05
-2.45143e-05
1.53853e-05
-2.33184e-05
1.28743e-05
-2.15674e-05
1.19688e-05
-2.57889e-05
1.07466e-05
-4.0425e-05
9.15387e-06
-4.31861e-05
8.81243e-06
-3.10538e-05
8.23429e-06
-2.29868e-05
7.39015e-06
-1.0614e-05
7.50876e-06
-3.63678e-06
7.59074e-06
8.70817e-06
8.18609e-06
1.53762e-05
7.82617e-06
3.10453e-05
8.68346e-06
4.09415e-05
9.83658e-06
4.58588e-05
1.25859e-05
3.58483e-05
1.26013e-05
4.04454e-05
1.5722e-05
2.91981e-05
1.76312e-05
3.93979e-05
1.93437e-05
2.92304e-05
2.27642e-05
3.65782e-05
2.54763e-05
1.22178e-05
2.68379e-05
2.07438e-05
2.7748e-05
-1.6293e-06
2.74429e-05
8.54845e-06
2.83118e-05
-1.76057e-05
2.71901e-05
-3.09797e-06
2.64188e-05
-2.45443e-05
2.43737e-05
5.19098e-06
2.53126e-05
-2.65793e-05
2.56862e-05
-2.0776e-06
2.5642e-05
-2.8694e-05
2.20089e-05
1.73497e-06
2.17261e-05
-2.3298e-05
1.86694e-05
1.74674e-05
1.81217e-05
-1.52312e-05
1.78388e-05
1.92239e-05
2.03466e-05
-8.86832e-06
2.51177e-05
3.2411e-05
2.5545e-05
1.51641e-05
3.88408e-05
2.96851e-05
3.24212e-05
-1.70176e-06
3.16794e-05
-1.28907e-06
3.17568e-05
-2.97956e-07
3.21129e-05
-4.90281e-07
3.32987e-05
-1.00383e-06
3.36371e-05
-1.40182e-06
3.36702e-05
-2.07702e-06
3.39563e-05
-2.18999e-06
3.36371e-05
-1.76587e-06
3.37119e-05
-2.25417e-06
3.41158e-05
-2.95835e-06
3.4503e-05
-3.33691e-06
3.47565e-05
-5.04244e-06
3.48988e-05
-6.45366e-06
3.53692e-05
-7.74616e-06
3.56035e-05
-9.67967e-06
3.58731e-05
-1.14336e-05
3.64384e-05
-1.39205e-05
3.64695e-05
-1.5124e-05
3.61261e-05
-1.55886e-05
3.54734e-05
-1.67299e-05
3.42776e-05
-1.50434e-05
3.30905e-05
-1.24313e-05
3.14939e-05
-1.10479e-05
2.93449e-05
-7.62512e-06
2.77373e-05
-4.94638e-06
2.59799e-05
-4.72278e-06
2.34653e-05
-3.47014e-06
2.12545e-05
-3.83478e-06
1.85957e-05
-6.02212e-06
1.49834e-05
-5.91865e-06
1.24326e-05
-9.08288e-06
1.08643e-05
-1.80001e-05
9.45691e-06
-2.32227e-05
7.54195e-06
-2.50159e-05
5.48131e-06
-2.96021e-05
3.90527e-06
-3.14265e-05
3.43441e-06
-2.58733e-05
3.4953e-06
-1.55634e-05
3.47548e-06
-5.39111e-06
3.81798e-06
1.51991e-06
3.78936e-06
1.04916e-05
4.09824e-06
2.20943e-05
6.27367e-06
2.89718e-05
8.92691e-06
3.42267e-05
1.16193e-05
3.13372e-05
1.38068e-05
3.37589e-05
1.56666e-05
3.69567e-05
1.76244e-05
4.02562e-05
2.00242e-05
3.61915e-05
2.25205e-05
2.53382e-05
2.42013e-05
1.91459e-05
2.55455e-05
1.51946e-05
2.65592e-05
4.96527e-06
2.63512e-05
-4.89982e-06
2.57292e-05
-1.10482e-05
2.49917e-05
-1.90128e-05
2.3211e-05
-2.56652e-05
1.97983e-05
-2.50265e-05
1.72575e-05
-2.19735e-05
1.44669e-05
-2.05278e-05
1.17943e-05
-1.88948e-05
1.12033e-05
-2.51979e-05
9.62576e-06
-3.88475e-05
8.12376e-06
-4.16841e-05
7.65208e-06
-3.05822e-05
6.60781e-06
-2.19425e-05
5.99998e-06
-1.00062e-05
6.23392e-06
-3.87072e-06
6.34084e-06
8.60125e-06
6.27024e-06
1.54468e-05
5.96411e-06
3.13514e-05
7.82558e-06
3.908e-05
8.89907e-06
4.47853e-05
1.17137e-05
3.30337e-05
1.22431e-05
3.9916e-05
1.53925e-05
2.60487e-05
1.78195e-05
3.69709e-05
1.95085e-05
2.75414e-05
2.31623e-05
3.29244e-05
2.57789e-05
9.60118e-06
2.75721e-05
1.89506e-05
2.77163e-05
-1.77357e-06
2.79173e-05
8.34747e-06
2.88555e-05
-1.85439e-05
2.73765e-05
-1.61896e-06
2.62614e-05
-2.34293e-05
2.52543e-05
6.19813e-06
2.61443e-05
-2.74693e-05
2.68189e-05
-2.7522e-06
2.70373e-05
-2.89125e-05
2.38962e-05
4.87614e-06
2.33142e-05
-2.27161e-05
2.18686e-05
1.89131e-05
2.09386e-05
-1.43013e-05
2.06892e-05
1.94733e-05
1.8913e-05
-7.09206e-06
2.43523e-05
2.69717e-05
2.519e-05
1.43264e-05
3.58396e-05
2.81912e-05
3.21396e-05
-1.0975e-06
3.2113e-05
-1.26253e-06
3.25789e-05
-7.63841e-07
3.31811e-05
-1.09242e-06
3.38724e-05
-1.69519e-06
3.39251e-05
-1.45454e-06
3.36915e-05
-1.84343e-06
3.35576e-05
-2.05606e-06
3.34586e-05
-1.66684e-06
3.35387e-05
-2.33433e-06
3.38822e-05
-3.30185e-06
3.42574e-05
-3.71205e-06
3.41923e-05
-4.97739e-06
3.44111e-05
-6.67237e-06
3.5042e-05
-8.3771e-06
3.53452e-05
-9.98288e-06
3.56416e-05
-1.173e-05
3.57925e-05
-1.40714e-05
3.55239e-05
-1.48555e-05
3.50212e-05
-1.50858e-05
3.39813e-05
-1.569e-05
3.26504e-05
-1.37125e-05
3.13335e-05
-1.11144e-05
2.94433e-05
-9.1577e-06
2.75241e-05
-5.70592e-06
2.62187e-05
-3.64097e-06
2.42657e-05
-2.76979e-06
2.17139e-05
-9.18324e-07
1.96474e-05
-1.76832e-06
1.67384e-05
-3.11314e-06
1.30602e-05
-2.24038e-06
1.04995e-05
-6.52221e-06
8.59421e-06
-1.60948e-05
7.14741e-06
-2.17759e-05
5.26235e-06
-2.31309e-05
2.80489e-06
-2.71446e-05
5.28993e-07
-2.91506e-05
-2.06341e-07
-2.5138e-05
1.33527e-07
-1.59033e-05
2.81884e-07
-5.53947e-06
5.46174e-07
1.25562e-06
7.34278e-07
1.03035e-05
1.38025e-06
2.14483e-05
4.13853e-06
2.62135e-05
7.21719e-06
3.1148e-05
1.00502e-05
2.85041e-05
1.26377e-05
3.11714e-05
1.47163e-05