/*--------------------------------*- C++ -*----------------------------------*\
| =========                 |                                                 |
| \\      /  F ield         | OpenFOAM: The Open Source CFD Toolbox           |
|  \\    /   O peration     | Version:  2.4.0                                 |
|   \\  /    A nd           | Web:      www.OpenFOAM.org                      |
|    \\/     M anipulation  |                                                 |
\*---------------------------------------------------------------------------*/
FoamFile
{
    version     2.0;
    format      ascii;
    class       volVectorField;
    location    "0.157";
    object      U;
}
// * * * * * * * * * * * * * * * * * * * * * * * * * * * * * * * * * * * * * //

dimensions      [0 1 -1 0 0 0 0];

internalField   nonuniform List<vector> 
4400
(
(5.40466 0.316772 0)
(3.31551 0.0607435 0)
(2.58526 0.00139961 0)
(2.23083 -0.00198158 0)
(2.08861 -0.00164962 0)
(1.99432 -0.000795222 0)
(1.95257 0.000212775 0)
(1.92441 -0.000738212 0)
(1.94012 0.000299688 0)
(1.55148 -0.0504163 0)
(8.68623 0.857261 0)
(7.54031 0.344464 0)
(6.6333 0.11652 0)
(5.90151 0.0546589 0)
(5.54179 0.0265016 0)
(5.26129 0.0157992 0)
(5.13966 0.0101651 0)
(5.06228 0.00355302 0)
(5.0229 0.0181565 0)
(4.52572 -0.049352 0)
(9.89218 0.937222 0)
(9.98996 0.476798 0)
(9.50196 0.214301 0)
(8.7316 0.128264 0)
(8.30627 0.0745888 0)
(7.89721 0.0475182 0)
(7.71314 0.0269554 0)
(7.62002 0.0145403 0)
(7.51039 0.0330808 0)
(6.93212 -0.0429274 0)
(10.1218 0.807176 0)
(11.111 0.49663 0)
(11.2926 0.268638 0)
(10.7901 0.194164 0)
(10.4957 0.12894 0)
(10.071 0.0904222 0)
(9.85689 0.0479249 0)
(9.80273 0.0307748 0)
(9.6322 0.0598813 0)
(8.94337 -0.0565608 0)
(10.0484 0.647814 0)
(11.3119 0.433365 0)
(12.0229 0.251226 0)
(11.9124 0.21367 0)
(11.927 0.160687 0)
(11.6524 0.13124 0)
(11.4803 0.0657363 0)
(11.5299 0.0477263 0)
(11.3276 0.0970167 0)
(10.6174 -0.0725329 0)
(10.0106 0.517662 0)
(11.2077 0.353057 0)
(12.1154 0.196122 0)
(12.198 0.18256 0)
(12.5041 0.146767 0)
(12.4736 0.146879 0)
(12.4445 0.0670981 0)
(12.659 0.0516044 0)
(12.4413 0.139736 0)
(11.9728 -0.0838599 0)
(10.0001 0.403606 0)
(11.1266 0.275383 0)
(12.036 0.144785 0)
(12.1922 0.141263 0)
(12.5513 0.104756 0)
(12.6576 0.136138 0)
(12.8012 0.0413229 0)
(13.0866 0.0514657 0)
(12.863 0.136885 0)
(12.9843 -0.0912812 0)
(9.98931 0.288846 0)
(11.1347 0.197528 0)
(11.9082 0.0978314 0)
(12.2008 0.104523 0)
(12.4641 0.059387 0)
(12.6253 0.114692 0)
(12.9007 0.00466402 0)
(13.0049 0.0568442 0)
(12.9582 0.0986037 0)
(13.5929 -0.185709 0)
(9.97843 0.179778 0)
(11.1359 0.110138 0)
(11.8571 0.0638869 0)
(12.2211 0.060875 0)
(12.382 0.0283605 0)
(12.6259 0.0708595 0)
(12.8541 -0.00611996 0)
(12.8562 0.0388995 0)
(13.191 0.0356112 0)
(13.5938 -0.251029 0)
(9.9689 0.067628 0)
(11.1342 0.0253682 0)
(11.8595 0.0214493 0)
(12.1978 0.029933 0)
(12.3883 -0.0155907 0)
(12.6353 0.0438927 0)
(12.7393 -0.0242685 0)
(12.9062 0.00667112 0)
(13.2676 -0.0257734 0)
(13.2813 -0.20129 0)
(9.98249 -0.0419237 0)
(11.1462 -0.0661207 0)
(11.8367 -0.00654155 0)
(12.1877 -0.0130532 0)
(12.44 -0.051322 0)
(12.5814 0.0153127 0)
(12.7217 -0.0407595 0)
(12.9988 -0.0343896 0)
(13.1617 -0.0459515 0)
(13.0805 -0.166458 0)
(10.0098 -0.155772 0)
(11.1366 -0.147734 0)
(11.8473 -0.0447883 0)
(12.237 -0.0556957 0)
(12.4385 -0.0851983 0)
(12.545 -0.00917806 0)
(12.8018 -0.0705977 0)
(13.0008 -0.0604856 0)
(13.0804 -0.059822 0)
(13.1041 -0.168364 0)
(10.0375 -0.267887 0)
(11.1488 -0.232391 0)
(11.923 -0.0857414 0)
(12.2457 -0.0961739 0)
(12.4358 -0.112608 0)
(12.5873 -0.0453682 0)
(12.8595 -0.0945366 0)
(12.9628 -0.0786956 0)
(13.1099 -0.083918 0)
(13.205 -0.209687 0)
(10.0623 -0.38857 0)
(11.1864 -0.305351 0)
(11.9774 -0.130118 0)
(12.243 -0.132562 0)
(12.4969 -0.147719 0)
(12.6134 -0.0798627 0)
(12.8624 -0.113434 0)
(12.8745 -0.0993034 0)
(13.0403 -0.112398 0)
(13.0152 -0.232479 0)
(10.0534 -0.51214 0)
(11.2498 -0.37018 0)
(12.0213 -0.182279 0)
(12.2765 -0.17956 0)
(12.4366 -0.178553 0)
(12.4392 -0.107149 0)
(12.5525 -0.122008 0)
(12.3979 -0.10773 0)
(12.4675 -0.116809 0)
(12.2325 -0.227706 0)
(10.0764 -0.644801 0)
(11.3247 -0.442615 0)
(11.9593 -0.243055 0)
(11.9897 -0.213161 0)
(11.8486 -0.181781 0)
(11.6449 -0.105914 0)
(11.5593 -0.107453 0)
(11.2749 -0.0887893 0)
(11.2464 -0.1101 0)
(10.8769 -0.170353 0)
(10.1408 -0.8062 0)
(11.1099 -0.50169 0)
(11.2544 -0.264068 0)
(10.8511 -0.193966 0)
(10.4184 -0.142065 0)
(10.0799 -0.0770806 0)
(9.89446 -0.0744374 0)
(9.57436 -0.062639 0)
(9.50632 -0.0862987 0)
(9.05887 -0.104063 0)
(9.90172 -0.936582 0)
(9.98567 -0.478978 0)
(9.48057 -0.212409 0)
(8.7724 -0.127732 0)
(8.24476 -0.0824427 0)
(7.90777 -0.0415651 0)
(7.71777 -0.0409973 0)
(7.43366 -0.0374935 0)
(7.35733 -0.0545443 0)
(6.88792 -0.0612268 0)
(8.69107 -0.857101 0)
(7.53757 -0.345319 0)
(6.62144 -0.116233 0)
(5.92372 -0.0537933 0)
(5.50288 -0.0304708 0)
(5.26415 -0.01406 0)
(5.1276 -0.0154807 0)
(4.92686 -0.0167698 0)
(4.84946 -0.0256983 0)
(4.45575 -0.0274578 0)
(5.40558 -0.316704 0)
(3.31531 -0.0607568 0)
(2.58001 -0.00157091 0)
(2.23799 0.00253548 0)
(2.0741 0.000657992 0)
(1.98927 0.000960256 0)
(1.94023 -0.000268202 0)
(1.85968 -0.00159586 0)
(1.80384 -0.00269316 0)
(1.60951 0.00680801 0)
(2.5371 0.0287691 0)
(3.00173 -0.127385 0)
(3.57119 -0.176347 0)
(3.76369 -0.420141 0)
(3.71168 -0.277361 0)
(3.62929 -0.135016 0)
(3.8595 -0.261627 0)
(3.47123 0.0417639 0)
(4.74271 0.13853 0)
(4.28016 0.232189 0)
(5.16644 0.559839 0)
(6.01038 0.751799 0)
(6.10287 0.534988 0)
(6.82995 0.332601 0)
(7.54454 0.229468 0)
(8.1312 0.198885 0)
(9.29505 -0.518498 0)
(9.9146 -1.05339 0)
(10.5219 -1.42749 0)
(12.0181 -2.50786 0)
(12.4341 -3.07296 0)
(12.4481 -3.20183 0)
(13.2285 -3.74978 0)
(12.9234 -3.78025 0)
(12.5274 -3.45161 0)
(12.4536 -3.2718 0)
(11.9059 -3.05009 0)
(11.3909 -3.1357 0)
(11.0272 -3.28993 0)
(10.3679 -3.41842 0)
(9.84458 -3.62734 0)
(9.53091 -4.10055 0)
(9.15407 -4.74589 0)
(8.72054 -4.64233 0)
(8.83185 -4.71098 0)
(8.85727 -5.55318 0)
(9.57369 -5.99912 0)
(10.0275 -4.8402 0)
(10.3701 -3.63079 0)
(10.4695 -1.9324 0)
(10.5508 0.572294 0)
(10.3623 2.18921 0)
(10.3001 3.67349 0)
(10.1281 5.39578 0)
(9.10269 6.38202 0)
(8.53172 6.09605 0)
(7.50639 6.12196 0)
(7.25645 6.2258 0)
(5.42603 7.32399 0)
(6.031 7.52687 0)
(5.10229 7.23871 0)
(6.51628 5.60133 0)
(6.98159 3.67843 0)
(6.9905 1.5858 0)
(7.07919 -0.504109 0)
(7.42034 -2.05492 0)
(7.26329 -3.49917 0)
(8.07515 -5.39187 0)
(6.71028 -6.77989 0)
(7.74478 -6.53731 0)
(6.26361 -5.98717 0)
(6.68247 -4.3392 0)
(7.20729 -4.25465 0)
(7.84197 -5.90041 0)
(9.91894 -6.81123 0)
(10.2444 -6.00099 0)
(9.30774 -5.18435 0)
(8.86832 -3.70741 0)
(8.80549 -1.08039 0)
(8.16477 1.28955 0)
(7.88586 2.55068 0)
(7.76829 4.28039 0)
(7.82484 6.6564 0)
(6.9297 7.77512 0)
(6.651 6.76936 0)
(5.9051 6.04324 0)
(5.87672 6.32952 0)
(4.69519 7.87462 0)
(6.224 7.89495 0)
(5.20014 7.9541 0)
(7.69373 4.97999 0)
(5.38092 5.03104 0)
(8.76593 1.68234 0)
(5.9911 1.26114 0)
(9.07412 -2.34194 0)
(5.1371 -1.0334 0)
(9.78845 -3.90963 0)
(4.83343 -1.40182 0)
(9.6107 -3.41862 0)
(5.83202 -1.09853 0)
(8.79759 -4.3566 0)
(6.51503 -2.16878 0)
(7.53232 -2.17584 0)
(7.03805 -0.431782 0)
(6.64882 -0.34049 0)
(6.37728 1.61752 0)
(7.4673 2.88232 0)
(6.03579 4.34575 0)
(6.505 4.62228 0)
(3.99619 8.92896 0)
(5.21429 -0.0591763 0)
(5.30143 -0.286944 0)
(5.55836 -0.204371 0)
(5.98887 -0.364763 0)
(5.48823 -0.318909 0)
(5.76609 -0.101501 0)
(5.90422 -0.269598 0)
(5.15578 -0.0567713 0)
(6.55586 0.0516935 0)
(6.06361 0.14072 0)
(6.24142 0.252508 0)
(7.43565 0.353946 0)
(7.55797 0.404058 0)
(8.22997 0.0670099 0)
(9.03386 -0.231713 0)
(9.39973 -0.139952 0)
(10.7153 -0.839618 0)
(11.3611 -1.35514 0)
(11.862 -1.74396 0)
(13.3671 -2.88576 0)
(13.3258 -3.27665 0)
(13.4197 -3.34098 0)
(13.9547 -3.72134 0)
(13.1843 -3.61993 0)
(12.7283 -3.3552 0)
(12.4194 -3.0895 0)
(11.8512 -2.82089 0)
(11.3009 -2.9 0)
(10.6399 -3.02741 0)
(9.8855 -3.18871 0)
(9.25693 -3.45729 0)
(8.99457 -4.01365 0)
(8.59055 -4.66323 0)
(8.38404 -4.68272 0)
(8.48251 -4.88908 0)
(8.42819 -5.70258 0)
(9.058 -6.08699 0)
(9.44223 -4.90495 0)
(9.61883 -3.55048 0)
(9.44575 -1.8465 0)
(9.43572 0.588551 0)
(9.39713 2.22169 0)
(9.48911 3.78902 0)
(9.46932 5.53315 0)
(8.5047 6.6529 0)
(8.24098 6.38059 0)
(7.23469 6.47819 0)
(7.37727 6.62156 0)
(5.657 7.6141 0)
(6.46238 7.66651 0)
(5.95407 7.03608 0)
(7.04162 5.34316 0)
(7.59737 3.5928 0)
(7.56815 1.58552 0)
(7.593 -0.640633 0)
(7.97613 -2.03415 0)
(7.77761 -3.53423 0)
(8.59869 -5.24013 0)
(7.30869 -6.65366 0)
(8.03539 -6.39208 0)
(6.37374 -5.72778 0)
(7.03839 -4.39931 0)
(7.27807 -4.56895 0)
(7.29299 -6.44149 0)
(9.30589 -7.22077 0)
(9.76426 -5.88281 0)
(8.7582 -4.95642 0)
(8.23369 -3.48498 0)
(7.98041 -0.891045 0)
(7.3941 1.40546 0)
(7.27766 2.7147 0)
(7.19268 4.45969 0)
(7.42083 6.79603 0)
(6.36558 7.93253 0)
(6.53745 6.87839 0)
(5.53977 6.28383 0)
(6.00619 6.43064 0)
(4.75265 7.90051 0)
(6.55241 7.59532 0)
(5.48858 7.9477 0)
(8.05152 4.66684 0)
(5.86948 4.77713 0)
(9.60918 1.49018 0)
(6.82943 1.44811 0)
(9.91066 -2.3003 0)
(5.54392 -1.06274 0)
(10.6977 -3.99639 0)
(5.21055 -1.22865 0)
(10.5143 -3.75766 0)
(6.06919 -0.715468 0)
(10.0878 -4.84204 0)
(7.02622 -1.94916 0)
(8.83794 -2.4736 0)
(7.39653 0.0885744 0)
(8.13588 -0.421271 0)
(6.33305 1.85863 0)
(8.53203 2.31042 0)
(6.78155 4.65179 0)
(9.14497 4.47906 0)
(5.47484 9.65938 0)
(7.77728 -0.177095 0)
(7.81281 -0.440812 0)
(7.60121 -0.285091 0)
(8.41606 -0.290551 0)
(7.54873 -0.298155 0)
(7.77595 -0.159754 0)
(8.24735 -0.236247 0)
(7.08947 -0.110788 0)
(8.3507 -0.15452 0)
(8.25326 0.108313 0)
(8.04385 0.187231 0)
(9.21999 0.0209922 0)
(9.19572 0.23476 0)
(9.88094 -0.12773 0)
(10.7287 -0.56601 0)
(10.8034 -0.459127 0)
(12.2865 -1.20481 0)
(12.6851 -1.63308 0)
(13.2535 -2.06897 0)
(14.4822 -3.12694 0)
(14.0485 -3.32854 0)
(14.0886 -3.36781 0)
(14.1868 -3.56093 0)
(13.3834 -3.35269 0)
(12.8761 -3.14179 0)
(12.3023 -2.8546 0)
(11.7915 -2.54616 0)
(11.1721 -2.61044 0)
(10.402 -2.74147 0)
(9.54995 -2.91564 0)
(9.03636 -3.3731 0)
(9.00763 -4.00442 0)
(8.41207 -4.49872 0)
(8.13752 -4.54642 0)
(8.13734 -4.90424 0)
(8.01466 -5.81468 0)
(8.45812 -6.18381 0)
(8.68414 -4.93073 0)
(8.62687 -3.44152 0)
(8.19214 -1.73176 0)
(8.10835 0.556941 0)
(8.25311 2.19044 0)
(8.51807 3.88031 0)
(8.6755 5.65369 0)
(7.77506 6.86118 0)
(7.86624 6.56434 0)
(7.00733 6.62488 0)
(7.46298 6.78393 0)
(6.01719 7.66334 0)
(6.79915 7.62726 0)
(6.75413 6.78985 0)
(7.64633 5.16163 0)
(8.1462 3.4968 0)
(8.21466 1.62576 0)
(8.31563 -0.686069 0)
(8.48504 -2.08701 0)
(8.34619 -3.65713 0)
(8.803 -5.2432 0)
(7.78303 -6.5723 0)
(8.17176 -6.29678 0)
(6.46337 -5.44038 0)
(7.25264 -4.56658 0)
(7.40729 -4.70583 0)
(6.7669 -6.91055 0)
(8.46336 -7.49299 0)
(9.05195 -5.78918 0)
(8.04275 -4.66765 0)
(7.44441 -3.16082 0)
(7.17338 -0.789111 0)
(6.70906 1.41309 0)
(6.82505 2.62305 0)
(6.73829 4.3723 0)
(6.89781 6.90186 0)
(5.86056 8.07398 0)
(6.2795 6.97528 0)
(4.94438 6.51439 0)
(6.37215 6.37865 0)
(4.72209 7.9593 0)
(7.10762 7.25074 0)
(5.64715 7.82066 0)
(8.32227 4.24262 0)
(6.56719 4.53474 0)
(10.1253 1.16857 0)
(7.34905 1.47362 0)
(10.649 -2.28614 0)
(6.28974 -1.01472 0)
(11.3258 -4.01728 0)
(5.81488 -0.964473 0)
(10.926 -3.95804 0)
(6.10538 -0.363513 0)
(10.7954 -5.25428 0)
(7.16184 -1.62076 0)
(9.81029 -3.17311 0)
(8.34249 0.388157 0)
(9.95095 -0.266832 0)
(7.39676 2.30932 0)
(8.76792 2.38541 0)
(6.24944 5.06123 0)
(10.3949 3.76067 0)
(7.61969 9.55691 0)
(9.9649 -0.282127 0)
(10.1898 -0.491869 0)
(9.5201 -0.315166 0)
(10.5132 -0.278593 0)
(9.64416 -0.14441 0)
(9.6299 -0.187362 0)
(10.3182 -0.259503 0)
(9.15257 -0.0266653 0)
(10.0838 -0.31022 0)
(10.1637 -0.0171209 0)
(9.8734 0.122764 0)
(11.043 -0.225478 0)
(10.8392 0.0541373 0)
(11.6406 -0.32353 0)
(12.2744 -0.782231 0)
(12.3083 -0.785298 0)
(13.6839 -1.54076 0)
(13.7537 -1.8304 0)
(14.4296 -2.2802 0)
(15.1577 -3.14956 0)
(14.5348 -3.27409 0)
(14.336 -3.33855 0)
(14.0526 -3.34923 0)
(13.3377 -3.08853 0)
(12.788 -2.95107 0)
(12.1389 -2.62489 0)
(11.5567 -2.31002 0)
(10.9288 -2.38374 0)
(10.2217 -2.4401 0)
(9.5108 -2.65319 0)
(9.2619 -3.26122 0)
(8.95402 -3.74697 0)
(7.81182 -4.15179 0)
(7.57991 -4.41988 0)
(7.64901 -4.97989 0)
(7.4912 -5.90133 0)
(7.63548 -6.19196 0)
(7.79944 -4.84694 0)
(7.58895 -3.19886 0)
(6.91488 -1.49736 0)
(6.72339 0.557816 0)
(7.05683 2.07916 0)
(7.47364 3.87345 0)
(7.80617 5.6764 0)
(6.98212 6.96252 0)
(7.38658 6.68779 0)
(6.72608 6.78276 0)
(7.32449 7.04813 0)
(6.30916 7.77765 0)
(6.96536 7.58163 0)
(7.31516 6.54063 0)
(8.20368 4.96948 0)
(8.69565 3.46129 0)
(8.86898 1.61554 0)
(9.02358 -0.7538 0)
(8.99615 -2.07078 0)
(8.97575 -3.58586 0)
(9.029 -5.087 0)
(8.34772 -6.40835 0)
(8.06372 -6.01326 0)
(6.53606 -5.22221 0)
(7.16781 -4.61663 0)
(7.41793 -4.79126 0)
(6.18578 -7.12299 0)
(7.48446 -7.79007 0)
(8.01605 -5.69934 0)
(7.11363 -4.42854 0)
(6.51782 -2.80525 0)
(6.18621 -0.638508 0)
(5.90486 1.54374 0)
(5.98453 2.91341 0)
(6.01319 4.64508 0)
(6.23163 7.0014 0)
(5.45412 8.14613 0)
(6.15457 7.07746 0)
(4.54061 6.61664 0)
(6.68895 6.21466 0)
(4.69356 7.94239 0)
(7.60731 6.76389 0)
(5.95809 7.73521 0)
(8.83666 3.87696 0)
(7.10366 4.22212 0)
(10.4269 0.903633 0)
(7.91423 1.59941 0)
(11.237 -2.17449 0)
(7.1929 -1.05862 0)
(11.5485 -4.12267 0)
(6.8393 -0.869038 0)
(10.829 -3.96565 0)
(6.58969 -0.261857 0)
(11.2992 -5.06148 0)
(5.67665 -1.23408 0)
(11.4217 -3.5029 0)
(7.53721 0.34873 0)
(11.7069 -0.927517 0)
(9.18559 2.50328 0)
(12.209 2.2221 0)
(7.2458 5.70542 0)
(10.3443 3.11287 0)
(7.94613 9.27873 0)
(11.7111 -0.468075 0)
(12.0599 -0.549264 0)
(11.2311 -0.259183 0)
(12.1249 -0.295751 0)
(11.2872 -0.0281404 0)
(11.1991 -0.180642 0)
(11.8524 -0.324157 0)
(10.8166 0.0250721 0)
(11.6338 -0.382555 0)
(11.705 -0.130924 0)
(11.5321 0.0424626 0)
(12.4892 -0.369123 0)
(12.2046 -0.162716 0)
(13.1473 -0.551816 0)
(13.4319 -0.879262 0)
(13.6931 -1.03295 0)
(14.6527 -1.76018 0)
(14.4893 -2.03352 0)
(15.0192 -2.49594 0)
(15.2441 -3.1005 0)
(14.691 -3.13332 0)
(14.3788 -3.18156 0)
(13.9075 -3.08516 0)
(13.3561 -2.83632 0)
(12.8872 -2.69167 0)
(12.1404 -2.29551 0)
(11.3888 -2.02138 0)
(10.763 -2.12264 0)
(9.99001 -2.12039 0)
(9.50089 -2.4405 0)
(9.13309 -3.05324 0)
(8.23089 -3.37012 0)
(6.90232 -3.89351 0)
(7.06662 -4.44593 0)
(7.12163 -5.0583 0)
(6.68644 -5.92886 0)
(6.51014 -6.14234 0)
(6.57019 -4.77089 0)
(6.36889 -3.00232 0)
(5.67861 -1.32736 0)
(5.43696 0.507901 0)
(5.90836 1.97572 0)
(6.34853 3.86716 0)
(6.79653 5.6809 0)
(6.10847 6.9694 0)
(6.83892 6.63851 0)
(6.51364 6.69275 0)
(7.18027 7.01007 0)
(6.66481 7.6945 0)
(7.1298 7.40327 0)
(7.67143 6.18633 0)
(8.67368 4.71949 0)
(9.19696 3.39269 0)
(9.4303 1.54198 0)
(9.59546 -0.77455 0)
(9.43224 -2.02878 0)
(9.43641 -3.57525 0)
(9.22281 -5.03196 0)
(8.79541 -6.2267 0)
(7.85123 -5.64914 0)
(6.79905 -4.99843 0)
(6.82671 -4.64121 0)
(7.13556 -4.70864 0)
(5.53259 -7.16974 0)
(6.39166 -7.8947 0)
(6.7987 -5.57285 0)
(6.03192 -4.1989 0)
(5.58449 -2.54206 0)
(5.21297 -0.626214 0)
(5.27739 1.34152 0)
(5.32715 2.61276 0)
(5.52985 4.63059 0)
(5.40552 6.9449 0)
(4.96722 8.11025 0)
(6.0342 7.15232 0)
(4.52815 6.71464 0)
(6.60244 5.99414 0)
(4.67064 7.77641 0)
(7.94195 6.36159 0)
(6.43317 7.70228 0)
(9.58424 3.60294 0)
(7.5951 4.07912 0)
(10.6195 0.649588 0)
(8.52246 1.50549 0)
(11.4716 -2.33283 0)
(8.45935 -0.959203 0)
(11.4629 -4.21114 0)
(8.35029 -0.476939 0)
(10.2639 -4.03483 0)
(7.92258 -0.236986 0)
(10.9284 -4.93137 0)
(5.72953 -1.14027 0)
(11.4561 -3.81081 0)
(5.01643 1.24517 0)
(11.2376 -1.99097 0)
(7.08638 2.67761 0)
(14.087 1.41398 0)
(9.31533 5.98955 0)
(13.732 3.00563 0)
(8.91765 8.56696 0)
(13.11 -0.686287 0)
(13.2298 -0.656186 0)
(12.4605 -0.191564 0)
(13.1824 -0.258003 0)
(12.3301 0.101138 0)
(12.3481 -0.103763 0)
(12.801 -0.333084 0)
(12.001 0.0209953 0)
(12.7295 -0.410021 0)
(12.6385 -0.25235 0)
(12.7734 -0.0971668 0)
(13.3811 -0.384896 0)
(13.3062 -0.335837 0)
(14.1182 -0.751652 0)
(14.0597 -1.00015 0)
(14.5048 -1.28337 0)
(15.1246 -1.85829 0)
(14.9112 -2.08016 0)
(15.1342 -2.51571 0)
(15.0178 -2.93487 0)
(14.5888 -3.03681 0)
(14.3744 -3.04782 0)
(13.9005 -2.78185 0)
(13.4114 -2.63937 0)
(12.9341 -2.51596 0)
(12.0762 -1.98578 0)
(11.4137 -1.72849 0)
(10.805 -1.79461 0)
(9.99502 -1.78349 0)
(9.43118 -2.22953 0)
(8.61091 -2.7883 0)
(7.41751 -2.99359 0)
(6.3586 -3.69971 0)
(6.61895 -4.43608 0)
(6.43719 -4.97813 0)
(5.69279 -5.82404 0)
(5.35055 -6.0047 0)
(5.28104 -4.64982 0)
(5.20161 -2.8081 0)
(4.62813 -1.14662 0)
(4.37728 0.380585 0)
(4.90842 1.77205 0)
(5.22399 3.73994 0)
(5.74701 5.59465 0)
(5.21154 6.86675 0)
(6.16796 6.55642 0)
(6.15777 6.68775 0)
(6.82338 7.06379 0)
(6.78055 7.6748 0)
(7.20954 7.2646 0)
(7.88608 5.81997 0)
(9.01115 4.39738 0)
(9.55315 3.25868 0)
(9.92378 1.4977 0)
(10.0455 -0.759244 0)
(9.78873 -2.06055 0)
(9.79094 -3.41913 0)
(9.4913 -4.89566 0)
(9.04275 -5.85408 0)
(7.6627 -5.17222 0)
(7.09389 -4.74235 0)
(6.37202 -4.52731 0)
(6.62873 -4.52229 0)
(4.93465 -7.04782 0)
(5.29074 -7.81209 0)
(5.4818 -5.49784 0)
(5.07049 -4.08793 0)
(4.62256 -2.23056 0)
(4.31199 -0.566061 0)
(4.47495 1.58394 0)
(4.68875 2.69609 0)
(4.95943 4.79483 0)
(4.61149 6.95541 0)
(4.46756 7.97793 0)
(5.47945 7.02478 0)
(4.65373 6.7349 0)
(6.24058 5.82702 0)
(4.68228 7.56072 0)
(8.03519 5.93225 0)
(6.97423 7.54416 0)
(10.1823 3.29112 0)
(8.08786 4.03848 0)
(10.936 0.37135 0)
(9.44548 1.52017 0)
(11.5682 -2.43249 0)
(9.61978 -0.798263 0)
(11.3024 -4.39091 0)
(9.25154 -0.144269 0)
(10.0368 -4.14352 0)
(8.89656 -0.242571 0)
(10.8136 -4.83707 0)
(7.45103 -1.13846 0)
(10.2027 -3.84725 0)
(6.21342 1.45982 0)
(9.01273 -2.47229 0)
(5.36281 3.22271 0)
(11.5524 0.35223 0)
(8.68581 6.36877 0)
(14.1253 3.06189 0)
(10.282 7.97976 0)
(13.9605 -0.728987 0)
(13.5295 -0.682921 0)
(12.983 -0.156681 0)
(13.493 -0.184303 0)
(12.6573 0.156611 0)
(12.9497 -0.0820638 0)
(13.1859 -0.317061 0)
(12.8247 -0.0776038 0)
(13.3436 -0.393814 0)
(13.1577 -0.330283 0)
(13.4707 -0.276982 0)
(13.6476 -0.415389 0)
(13.8458 -0.556433 0)
(14.4868 -0.905066 0)
(14.346 -1.05375 0)
(14.7564 -1.44429 0)
(14.9935 -1.91607 0)
(14.6961 -2.19389 0)
(14.8623 -2.51695 0)
(14.7699 -2.73209 0)
(14.5764 -2.95873 0)
(14.3683 -2.95841 0)
(13.8534 -2.59592 0)
(13.6272 -2.43958 0)
(13.1025 -2.20124 0)
(11.9462 -1.64935 0)
(11.3612 -1.45788 0)
(10.7886 -1.45853 0)
(9.91003 -1.4718 0)
(9.22825 -1.93966 0)
(8.2091 -2.32448 0)
(6.84235 -2.51419 0)
(5.8741 -3.49896 0)
(5.90619 -4.32702 0)
(5.54902 -4.7973 0)
(4.54468 -5.65311 0)
(4.08083 -5.87609 0)
(3.92217 -4.59915 0)
(4.05444 -2.7586 0)
(3.65629 -1.03495 0)
(3.42941 0.350535 0)
(3.85945 1.72221 0)
(4.03946 3.70797 0)
(4.58332 5.47857 0)
(4.33134 6.66823 0)
(5.48526 6.27372 0)
(5.88499 6.41998 0)
(6.59497 6.81009 0)
(6.90127 7.42722 0)
(7.37461 6.99961 0)
(8.0593 5.3968 0)
(9.22505 4.025 0)
(9.72462 3.12344 0)
(10.2605 1.37454 0)
(10.3707 -0.739361 0)
(10.1611 -1.96454 0)
(9.96257 -3.32602 0)
(9.76429 -4.81494 0)
(9.06041 -5.51234 0)
(7.48253 -4.75383 0)
(7.1289 -4.53189 0)
(5.97921 -4.19339 0)
(5.93419 -4.38693 0)
(4.53999 -6.8126 0)
(4.49306 -7.59811 0)
(4.35703 -5.40669 0)
(4.25835 -4.01379 0)
(3.72473 -2.08842 0)
(3.81137 -0.774226 0)
(3.77592 1.25691 0)
(3.9291 2.5854 0)
(4.25721 4.87657 0)
(4.04805 6.88276 0)
(3.7028 7.88004 0)
(5.0702 6.72332 0)
(4.53627 6.71594 0)
(5.99636 5.64621 0)
(5.21934 7.20829 0)
(7.92975 5.40978 0)
(7.33954 7.18209 0)
(10.4032 2.89828 0)
(8.9059 3.99122 0)
(11.1347 0.117961 0)
(10.4393 1.46083 0)
(11.3443 -2.59533 0)
(10.6196 -0.682091 0)
(11.1695 -4.27533 0)
(9.76853 0.297292 0)
(9.84756 -4.12432 0)
(9.50509 -0.183355 0)
(10.8222 -4.69381 0)
(8.28295 -0.625129 0)
(9.33633 -4.07667 0)
(7.37696 1.95909 0)
(8.29384 -2.74939 0)
(6.15648 2.90252 0)
(9.33516 -1.00072 0)
(8.34495 6.17333 0)
(12.0421 2.64565 0)
(10.2406 7.66076 0)
(13.9229 -0.613664 0)
(13.0126 -0.508374 0)
(12.797 -0.107558 0)
(13.08 -0.0541426 0)
(12.6795 0.143793 0)
(13.1921 -0.0986935 0)
(13.27 -0.312545 0)
(13.3322 -0.254097 0)
(13.5267 -0.357674 0)
(13.4432 -0.36301 0)
(13.6637 -0.405612 0)
(13.5532 -0.44265 0)
(13.9377 -0.708934 0)
(14.3849 -1.01668 0)
(14.1363 -1.18583 0)
(14.4861 -1.55803 0)
(14.6258 -1.84439 0)
(14.5225 -2.15984 0)
(14.6546 -2.51053 0)
(14.5405 -2.69453 0)
(14.643 -2.94437 0)
(14.3928 -2.84489 0)
(13.7877 -2.40185 0)
(13.614 -2.25162 0)
(12.91 -1.88142 0)
(11.7369 -1.26246 0)
(11.2397 -1.17198 0)
(10.5362 -1.15839 0)
(9.57536 -1.12632 0)
(8.8751 -1.56635 0)
(7.62151 -1.81736 0)
(6.1296 -2.05592 0)
(5.23161 -3.27986 0)
(5.03899 -4.1349 0)
(4.59973 -4.54242 0)
(3.39513 -5.34526 0)
(2.84842 -5.6432 0)
(2.56096 -4.52478 0)
(2.86734 -2.71014 0)
(2.66455 -1.04544 0)
(2.56107 0.186992 0)
(2.83996 1.59876 0)
(2.86829 3.62678 0)
(3.3491 5.29045 0)
(3.49814 6.39842 0)
(4.72682 5.9884 0)
(5.41292 6.22621 0)
(6.20839 6.65452 0)
(6.70385 7.24406 0)
(7.37659 6.76447 0)
(8.13366 5.02401 0)
(9.34383 3.69803 0)
(9.75307 2.9433 0)
(10.5243 1.23904 0)
(10.5908 -0.723228 0)
(10.4406 -1.89821 0)
(10.0842 -3.21956 0)
(10.0331 -4.57343 0)
(8.98472 -4.96347 0)
(7.44773 -4.28806 0)
(7.01011 -4.1064 0)
(5.65841 -3.7776 0)
(5.19087 -4.25052 0)
(4.44075 -6.75852 0)
(3.75183 -7.32028 0)
(3.80186 -5.28072 0)
(3.70058 -4.01213 0)
(2.85432 -1.8929 0)
(3.16434 -0.591034 0)
(2.70058 1.44974 0)
(3.35168 2.58228 0)
(3.25196 5.03064 0)
(3.54838 6.86122 0)
(2.91566 7.81202 0)
(5.08132 6.27858 0)
(4.32966 6.75715 0)
(6.02296 5.18306 0)
(6.03726 6.68764 0)
(7.59081 4.99248 0)
(7.62489 6.68198 0)
(10.2191 2.43463 0)
(10.0687 3.76244 0)
(10.9875 -0.142093 0)
(11.2519 1.52577 0)
(11.0714 -2.74964 0)
(11.416 -0.554991 0)
(10.6899 -4.3316 0)
(10.1046 0.662545 0)
(9.6471 -4.30507 0)
(10.3723 -0.231854 0)
(10.6515 -4.7361 0)
(9.61754 -0.0610381 0)
(8.72359 -3.99988 0)
(8.10129 2.52346 0)
(7.59974 -2.43026 0)
(6.55057 3.1357 0)
(8.03862 -1.54686 0)
(8.16623 5.75106 0)
(11.4903 2.53584 0)
(9.84901 7.03065 0)
(13.1803 -0.409578 0)
(12.4314 -0.289829 0)
(12.5129 -0.0352576 0)
(12.7793 -0.0024694 0)
(12.9973 -0.0489081 0)
(13.4143 -0.186427 0)
(13.5469 -0.330393 0)
(13.6401 -0.361814 0)
(13.403 -0.319038 0)
(13.4904 -0.36725 0)
(13.6481 -0.448367 0)
(13.5284 -0.498904 0)
(13.9016 -0.841548 0)
(14.0453 -1.09849 0)
(13.8697 -1.24229 0)
(14.1449 -1.57074 0)
(14.2537 -1.86997 0)
(14.43 -2.29251 0)
(14.5746 -2.54012 0)
(14.4944 -2.61239 0)
(14.5228 -2.87784 0)
(14.0627 -2.70019 0)
(13.4349 -2.23814 0)
(13.1766 -2.04136 0)
(12.3241 -1.50465 0)
(11.3476 -0.946294 0)
(10.9588 -0.91549 0)
(10.0425 -0.775678 0)
(9.00692 -0.765704 0)
(8.32137 -1.17346 0)
(6.8046 -1.24124 0)
(5.35555 -1.62766 0)
(4.45135 -3.03118 0)
(4.06745 -3.90459 0)
(3.66453 -4.23204 0)
(2.37396 -5.01704 0)
(1.72202 -5.40344 0)
(1.13576 -4.50414 0)
(1.56344 -2.72107 0)
(1.38398 -0.975314 0)
(1.34626 0.236405 0)
(1.5436 1.69831 0)
(1.5911 3.64947 0)
(2.04617 5.03418 0)
(2.74958 6.02283 0)
(4.05297 5.52391 0)
(5.036 5.80114 0)
(5.9195 6.26093 0)
(6.45996 6.88299 0)
(7.32819 6.39826 0)
(8.20012 4.60461 0)
(9.4463 3.38371 0)
(9.71835 2.73537 0)
(10.7005 1.06507 0)
(10.7122 -0.719691 0)
(10.5824 -1.7914 0)
(10.1961 -3.08458 0)
(10.1382 -4.38361 0)
(8.76751 -4.48249 0)
(7.30765 -3.92863 0)
(6.75298 -3.67274 0)
(5.21965 -3.30689 0)
(4.71869 -4.20563 0)
(4.35141 -6.62777 0)
(2.99604 -7.09446 0)
(3.59091 -5.21914 0)
(2.96208 -3.81742 0)
(2.28997 -1.87843 0)
(2.64517 -0.809757 0)
(2.11927 1.25215 0)
(3.04053 2.33656 0)
(1.95432 5.0206 0)
(3.30541 6.65957 0)
(2.42257 7.558 0)
(4.69781 5.7718 0)
(4.17303 6.73392 0)
(5.71467 4.55809 0)
(6.37777 6.37389 0)
(7.41844 4.72326 0)
(8.04746 6.0287 0)
(9.73622 1.8907 0)
(11.0969 3.41625 0)
(10.5177 -0.229515 0)
(11.7339 1.58479 0)
(10.89 -2.95208 0)
(12.058 -0.392 0)
(10.2174 -4.06959 0)
(10.4809 1.02199 0)
(9.79692 -4.41096 0)
(11.0473 -0.404232 0)
(10.8077 -4.87683 0)
(10.4685 0.405618 0)
(9.33689 -4.05549 0)
(8.79148 2.78629 0)
(9.32324 -2.67962 0)
(7.60255 3.23132 0)
(8.65245 -1.4228 0)
(7.31227 5.15251 0)
(11.3692 2.63753 0)
(9.65535 6.30104 0)
(12.7663 -0.211511 0)
(12.4704 -0.196336 0)
(12.7246 -0.083989 0)
(13.1527 -0.127391 0)
(13.475 -0.25634 0)
(13.5526 -0.249078 0)
(13.6632 -0.321512 0)
(13.5768 -0.363641 0)
(13.2185 -0.276338 0)
(13.4456 -0.363025 0)
(13.5482 -0.517929 0)
(13.4849 -0.592354 0)
(13.7341 -0.815541 0)
(13.768 -1.06465 0)
(13.7759 -1.33968 0)
(14.0072 -1.63332 0)
(14.1684 -1.92491 0)
(14.3215 -2.36023 0)
(14.2486 -2.54405 0)
(14.0946 -2.60364 0)
(13.9696 -2.77938 0)
(13.3959 -2.48416 0)
(12.8148 -2.02619 0)
(12.3683 -1.748 0)
(11.4442 -1.16105 0)
(10.7152 -0.720419 0)
(10.3295 -0.625673 0)
(9.27762 -0.344782 0)
(8.3505 -0.395712 0)
(7.6665 -0.722986 0)
(5.97835 -0.626607 0)
(4.65413 -1.16354 0)
(3.61372 -2.68776 0)
(3.07264 -3.64551 0)
(2.80149 -3.91607 0)
(1.52865 -4.63503 0)
(0.596855 -5.00023 0)
(-0.288646 -4.36178 0)
(0.0451384 -2.7904 0)
(0.0552907 -1.03977 0)
(0.138883 0.126222 0)
(0.193296 1.65428 0)
(0.408536 3.56767 0)
(0.854284 4.62605 0)
(2.14697 5.5175 0)
(3.36056 5.05443 0)
(4.49024 5.46992 0)
(5.56857 6.00918 0)
(6.07643 6.58701 0)
(7.0609 5.98841 0)
(8.20144 4.18179 0)
(9.51532 3.10945 0)
(9.67929 2.49725 0)
(10.784 0.872998 0)
(10.7793 -0.688953 0)
(10.6092 -1.6855 0)
(10.2611 -2.99651 0)
(10.1685 -4.04818 0)
(8.57961 -3.85834 0)
(7.16924 -3.44722 0)
(6.44012 -3.13494 0)
(4.73306 -2.88632 0)
(4.56883 -4.16315 0)
(3.91716 -6.19672 0)
(1.95022 -6.80437 0)
(3.08656 -5.2097 0)
(2.10557 -3.61013 0)
(1.43057 -1.66441 0)
(1.85953 -0.712904 0)
(1.47403 1.37844 0)
(2.16614 2.41556 0)
(0.712538 5.08257 0)
(2.88683 6.3134 0)
(1.72204 7.39182 0)
(4.3038 5.31462 0)
(4.20014 6.56777 0)
(4.86099 4.07498 0)
(6.45094 5.94835 0)
(7.44316 4.42781 0)
(8.67709 5.43015 0)
(9.23384 1.48082 0)
(11.7129 3.09053 0)
(9.80536 -0.253221 0)
(12.1973 1.52164 0)
(10.7629 -3.09496 0)
(12.4838 -0.105135 0)
(9.2561 -3.9292 0)
(11.059 1.13373 0)
(9.72731 -4.58276 0)
(12.0651 -0.411255 0)
(10.1503 -4.92313 0)
(10.6502 0.945458 0)
(8.74127 -3.86569 0)
(8.44045 3.06032 0)
(9.19483 -2.22352 0)
(7.6407 3.01939 0)
(10.5134 -0.848219 0)
(6.92539 4.24498 0)
(10.8619 2.24365 0)
(9.84779 5.68096 0)
(12.8577 -0.160841 0)
(12.9184 -0.233503 0)
(13.1824 -0.182194 0)
(13.5377 -0.213394 0)
(13.5978 -0.290292 0)
(13.4549 -0.241004 0)
(13.4883 -0.290195 0)
(13.3198 -0.330258 0)
(13.1385 -0.275726 0)
(13.3581 -0.369123 0)
(13.361 -0.575682 0)
(13.3885 -0.649857 0)
(13.5845 -0.792566 0)
(13.7824 -1.13663 0)
(13.9003 -1.45019 0)
(13.8897 -1.66726 0)
(13.924 -1.95913 0)
(13.8941 -2.35037 0)
(13.6603 -2.48959 0)
(13.4522 -2.49218 0)
(13.0935 -2.54535 0)
(12.3527 -2.24833 0)
(11.7497 -1.81196 0)
(11.1568 -1.43586 0)
(10.3077 -0.866161 0)
(9.76664 -0.535276 0)
(9.26658 -0.315028 0)
(8.23036 0.0608637 0)
(7.6298 -0.0922648 0)
(6.87676 -0.235256 0)
(5.06488 -0.0242218 0)
(3.82779 -0.760015 0)
(2.73606 -2.38058 0)
(2.13919 -3.41331 0)
(2.074 -3.61145 0)
(0.854299 -4.18734 0)
(-0.49821 -4.5837 0)
(-1.60173 -4.09217 0)
(-1.59396 -2.73974 0)
(-1.45598 -1.06106 0)
(-1.26951 0.082855 0)
(-1.16924 1.63134 0)
(-0.753156 3.44824 0)
(-0.242541 4.14873 0)
(1.48292 5.00911 0)
(2.6254 4.56912 0)
(3.94045 4.96361 0)
(5.3617 5.57762 0)
(5.58856 6.19234 0)
(6.7998 5.45035 0)
(8.30745 3.63041 0)
(9.48188 2.81645 0)
(9.59316 2.24486 0)
(10.735 0.678913 0)
(10.7153 -0.662456 0)
(10.4944 -1.59116 0)
(10.2949 -2.87734 0)
(10.0027 -3.68983 0)
(8.25423 -3.29146 0)
(6.95282 -2.97757 0)
(5.95663 -2.61915 0)
(4.34211 -2.53765 0)
(4.38066 -3.90633 0)
(2.84205 -5.56407 0)
(0.580318 -6.6312 0)
(1.87977 -5.14701 0)
(0.799848 -3.40987 0)
(0.578882 -1.73634 0)
(1.27027 -0.839866 0)
(0.382734 1.33739 0)
(1.22145 2.62491 0)
(-0.0937807 5.17064 0)
(1.87928 5.83287 0)
(1.42304 7.14672 0)
(4.30286 4.83217 0)
(4.22973 6.49437 0)
(4.42222 3.74467 0)
(6.73999 5.23374 0)
(6.95224 4.09627 0)
(9.52838 4.867 0)
(8.87818 1.25529 0)
(12.1157 2.78132 0)
(9.04389 -0.22915 0)
(13.0671 1.23823 0)
(10.3747 -3.14942 0)
(12.8438 0.278978 0)
(8.41759 -3.68879 0)
(12.249 0.89014 0)
(9.87641 -4.64601 0)
(13.3034 -0.482391 0)
(9.63392 -4.59844 0)
(10.9929 1.30855 0)
(7.96028 -3.24017 0)
(8.21584 3.14382 0)
(8.69929 -1.57938 0)
(6.5571 2.44751 0)
(10.4832 -0.565632 0)
(6.98082 3.5961 0)
(9.98901 1.74131 0)
(10.055 5.2367 0)
(13.1883 -0.210997 0)
(13.2987 -0.298262 0)
(13.3514 -0.185247 0)
(13.5128 -0.191139 0)
(13.3646 -0.276546 0)
(13.2314 -0.199293 0)
(13.2348 -0.202263 0)
(13.0867 -0.330939 0)
(13.0707 -0.332803 0)
(13.2524 -0.350559 0)
(13.3733 -0.57849 0)
(13.4696 -0.71569 0)
(13.5626 -0.860404 0)
(13.6991 -1.18255 0)
(13.5598 -1.43358 0)
(13.3579 -1.62419 0)
(13.3384 -1.90763 0)
(13.1318 -2.23134 0)
(12.7276 -2.35313 0)
(12.3045 -2.34183 0)
(11.656 -2.25731 0)
(10.8316 -1.93505 0)
(10.2118 -1.53917 0)
(9.57361 -1.10601 0)
(8.84099 -0.60372 0)
(8.39998 -0.305806 0)
(7.87073 0.0392373 0)
(7.08747 0.352737 0)
(6.84115 0.172715 0)
(5.90421 0.291322 0)
(4.13755 0.570495 0)
(3.04622 -0.335937 0)
(1.98963 -2.05467 0)
(1.26823 -3.2674 0)
(1.35042 -3.36671 0)
(0.285732 -3.63333 0)
(-1.33871 -4.06322 0)
(-2.53445 -3.74157 0)
(-3.04562 -2.56778 0)
(-3.0112 -1.12527 0)
(-2.745 -0.0216331 0)
(-2.62807 1.58916 0)
(-1.64757 3.23764 0)
(-1.03312 3.49183 0)
(1.11378 4.30487 0)
(2.38383 3.94247 0)
(3.45302 4.36551 0)
(4.83668 5.26251 0)
(4.93743 5.87352 0)
(6.69424 4.80218 0)
(8.35678 3.11456 0)
(9.10619 2.61215 0)
(9.42771 1.96671 0)
(10.6019 0.472652 0)
(10.5674 -0.6102 0)
(10.3313 -1.52014 0)
(10.2889 -2.75432 0)
(9.70384 -3.24035 0)
(7.93297 -2.67198 0)
(6.67838 -2.42412 0)
(5.34671 -2.07421 0)
(4.13214 -2.17912 0)
(3.81243 -3.44662 0)
(1.49092 -4.7889 0)
(-0.483042 -6.54021 0)
(0.0883664 -5.15977 0)
(-0.634021 -3.04965 0)
(-0.241066 -1.90831 0)
(0.218831 -0.674383 0)
(-0.951698 1.39804 0)
(0.18579 2.58833 0)
(-0.876213 5.04955 0)
(0.575077 5.37179 0)
(1.41816 6.43152 0)
(3.62452 4.21077 0)
(4.4143 6.4202 0)
(4.63136 3.44609 0)
(7.02018 4.53637 0)
(6.1312 3.67682 0)
(10.4329 4.05377 0)
(8.34163 1.08915 0)
(12.6036 2.45809 0)
(8.41894 -0.273748 0)
(14.1952 0.794895 0)
(9.78009 -2.97456 0)
(13.105 0.69214 0)
(8.43955 -3.58456 0)
(13.6518 0.355111 0)
(10.42 -4.74122 0)
(13.8711 -0.352213 0)
(9.61923 -4.26361 0)
(11.1324 1.67415 0)
(8.74771 -2.8262 0)
(7.93201 2.66792 0)
(9.69989 -1.07116 0)