/*--------------------------------*- C++ -*----------------------------------*\
| =========                 |                                                 |
| \\      /  F ield         | OpenFOAM: The Open Source CFD Toolbox           |
|  \\    /   O peration     | Version:  2.4.0                                 |
|   \\  /    A nd           | Web:      www.OpenFOAM.org                      |
|    \\/     M anipulation  |                                                 |
\*---------------------------------------------------------------------------*/
FoamFile
{
    version     2.0;
    format      ascii;
    class       volScalarField;
    location    "0.176";
    object      k_0;
}
// * * * * * * * * * * * * * * * * * * * * * * * * * * * * * * * * * * * * * //

dimensions      [0 2 -2 0 0 0 0];

internalField   nonuniform List<scalar> 
17600
(
9.29269
7.39791
5.14158
3.92206
3.34434
2.95882
2.68274
2.48515
2.32215
2.22819
2.08323
2.0813
1.94624
1.95142
1.87256
1.85159
1.83481
1.80232
1.74674
2.13868
4.51164
6.19372
5.85221
5.0424
4.42538
3.94211
3.57477
3.33784
3.10076
2.97447
2.7797
2.75819
2.58634
2.58365
2.49577
2.44044
2.43347
2.37505
2.36707
2.50078
1.33113
3.2708
4.00473
3.9617
3.76696
3.47245
3.20225
3.03668
2.82778
2.73382
2.55855
2.53004
2.39127
2.37192
2.30941
2.23764
2.23646
2.17048
2.2136
2.1468
0.209344
1.18845
1.93016
2.33003
2.51145
2.51792
2.46417
2.41195
2.29381
2.25057
2.13812
2.11518
2.03057
2.00168
1.96811
1.90005
1.89929
1.84241
1.88951
1.79982
0.0262447
0.262641
0.637755
0.976675
1.2339
1.43604
1.53314
1.61178
1.60907
1.62702
1.6015
1.59661
1.58165
1.55251
1.54738
1.51511
1.50776
1.47476
1.49176
1.45324
0.00277737
0.043318
0.128473
0.286351
0.404276
0.569073
0.703343
0.821517
0.877852
0.972515
1.00476
1.02283
1.07267
1.07021
1.08482
1.08753
1.08276
1.08565
1.07441
1.08026
0.00028796
0.00622649
0.0192583
0.0558892
0.0891781
0.142199
0.224277
0.288342
0.33317
0.418025
0.479091
0.502709
0.575707
0.593873
0.627463
0.661402
0.66576
0.68968
0.677603
0.708615
5.10149e-05
0.000843932
0.00258339
0.00797757
0.0141874
0.0234784
0.047159
0.0684957
0.0837956
0.119203
0.157278
0.171333
0.218296
0.236404
0.263437
0.304275
0.313333
0.342023
0.34029
0.380472
2.75668e-05
0.000134087
0.000372722
0.00116649
0.00191066
0.00310269
0.00662091
0.0112256
0.0142959
0.0223139
0.0342389
0.0387862
0.0554304
0.0630888
0.0725321
0.0959022
0.101344
0.116894
0.118633
0.145826
2.41012e-05
4.463e-05
8.52919e-05
0.000298643
0.000387293
0.000491515
0.00080912
0.00137198
0.00175406
0.00294374
0.00516125
0.005942
0.0095818
0.0112553
0.0132676
0.0194428
0.0211467
0.0256123
0.0261322
0.0328581
2.54635e-05
3.49759e-05
4.57236e-05
0.000106454
0.00014507
0.000158314
0.000178343
0.000203579
0.000233792
0.000356143
0.000686605
0.000789552
0.00137696
0.00159306
0.00180615
0.0026486
0.002853
0.0034312
0.00350016
0.00438455
2.31778e-05
4.01475e-05
4.30568e-05
4.72332e-05
7.13903e-05
0.000114191
0.000131209
0.00012874
0.000115403
0.000118701
0.000133766
0.000143147
0.00023575
0.000294126
0.000351501
0.000556242
0.000577232
0.000603923
0.000589992
0.000626627
2.17726e-05
3.74465e-05
3.78798e-05
4.07602e-05
6.24604e-05
9.29261e-05
0.000129122
0.000134352
0.000119724
8.84683e-05
7.78345e-05
7.72777e-05
9.26558e-05
0.000144581
0.000257862
0.000344036
0.000341587
0.000316737
0.000241286
0.000226109
2.11039e-05
3.13291e-05
3.54564e-05
4.87328e-05
6.74594e-05
7.25467e-05
8.66486e-05
9.17386e-05
8.65399e-05
7.42754e-05
7.27202e-05
7.48938e-05
9.45263e-05
0.000123051
0.000136334
0.000149497
0.000147474
0.000148304
0.000144373
0.000152473
2.12419e-05
2.84388e-05
4.44552e-05
5.01287e-05
4.90293e-05
4.79272e-05
5.03469e-05
6.23727e-05
6.72462e-05
7.23467e-05
7.52888e-05
7.42333e-05
7.60039e-05
7.48622e-05
7.20832e-05
7.37665e-05
8.74651e-05
0.000124257
0.000130248
0.000158776
2.12498e-05
2.99717e-05
4.23094e-05
4.05334e-05
3.92476e-05
4.12017e-05
5.05221e-05
5.78992e-05
6.57503e-05
6.87003e-05
6.65334e-05
5.87272e-05
5.73405e-05
5.67359e-05
5.74715e-05
6.19876e-05
8.5915e-05
0.000103836
0.000107435
0.000105131
2.0642e-05
2.84668e-05
3.48671e-05
3.63246e-05
4.39603e-05
4.69254e-05
4.86789e-05
5.05942e-05
5.61307e-05
5.55643e-05
5.47312e-05
5.50063e-05
5.74377e-05
6.0461e-05
6.25445e-05
6.28573e-05
6.49604e-05
7.18696e-05
7.70636e-05
8.4897e-05
2.04613e-05
2.80017e-05
3.25179e-05
4.18421e-05
4.48924e-05
4.45337e-05
4.50564e-05
4.9194e-05
5.37828e-05
5.48902e-05
5.52792e-05
5.74691e-05
5.95397e-05
6.01048e-05
5.89904e-05
5.87454e-05
5.93937e-05
6.3967e-05
6.64399e-05
7.17211e-05
2.05462e-05
2.83117e-05
3.39897e-05
3.54115e-05
3.93072e-05
4.39029e-05
4.73083e-05
5.08548e-05
5.1902e-05
5.22502e-05
5.19332e-05
5.07577e-05
5.15172e-05
5.36052e-05
5.43154e-05
5.61744e-05
5.7829e-05
5.9903e-05
6.08568e-05
8.9938e-05
2.05979e-05
2.68554e-05
2.99612e-05
3.65513e-05
4.39327e-05
4.40089e-05
4.4392e-05
4.42865e-05
4.57497e-05
4.87224e-05
4.91416e-05
4.89783e-05
4.94753e-05
4.9597e-05
4.93562e-05
5.09881e-05
5.16063e-05
5.42739e-05
5.78506e-05
6.78341e-05
2.05245e-05
2.4518e-05
3.23803e-05
4.07443e-05
4.04278e-05
3.86725e-05
3.82433e-05
4.01689e-05
4.51283e-05
4.63255e-05
4.61614e-05
4.47424e-05
4.4664e-05
4.46452e-05
4.4846e-05
4.6708e-05
5.16665e-05
5.21649e-05
5.42956e-05
6.09249e-05
2.05676e-05
2.56449e-05
3.69359e-05
3.71228e-05
3.58238e-05
3.59147e-05
3.99992e-05
4.33637e-05
4.43616e-05
4.40632e-05
4.31297e-05
4.30177e-05
4.36642e-05
4.47523e-05
4.57322e-05
4.84558e-05
4.89391e-05
4.90155e-05
4.97479e-05
5.84139e-05
2.06243e-05
2.87446e-05
3.40582e-05
3.36749e-05
3.4762e-05
4.24467e-05
4.39381e-05
4.39908e-05
4.33889e-05
4.30343e-05
4.32592e-05
4.54574e-05
4.70013e-05
4.71149e-05
4.70364e-05
4.7793e-05
4.71569e-05
4.73158e-05
4.91335e-05
5.26182e-05
2.07058e-05
2.76591e-05
3.08104e-05
3.69318e-05
4.45319e-05
4.65159e-05
4.51519e-05
4.37923e-05
4.37541e-05
4.40468e-05
4.77351e-05
5.01299e-05
5.04934e-05
4.95835e-05
4.97406e-05
5.02909e-05
5.02043e-05
5.3098e-05
5.67695e-05
6.98028e-05
2.08724e-05
2.58432e-05
3.613e-05
4.65794e-05
4.80081e-05
4.70977e-05
4.41835e-05
4.43389e-05
4.63811e-05
5.20373e-05
5.53913e-05
5.62204e-05
5.52089e-05
5.47584e-05
5.66708e-05
5.77391e-05
5.83289e-05
6.37487e-05
6.48808e-05
7.15984e-05
2.11411e-05
2.69671e-05
4.39784e-05
4.95536e-05
4.89806e-05
4.68022e-05
4.64336e-05
4.81218e-05
5.71424e-05
6.20789e-05
6.27904e-05
6.25301e-05
6.08792e-05
6.19959e-05
6.71782e-05
6.74738e-05
6.87361e-05
7.17981e-05
7.39951e-05
8.15971e-05
2.14105e-05
2.83408e-05
4.92525e-05
5.26538e-05
5.17485e-05
5.00871e-05
5.07583e-05
5.39725e-05
6.90185e-05
7.31174e-05
7.41153e-05
7.43981e-05
7.4597e-05
7.91803e-05
8.27197e-05
8.32902e-05
8.71758e-05
9.48759e-05
0.000113924
0.00016938
2.16413e-05
3.01026e-05
5.58928e-05
5.524e-05
5.32878e-05
5.33127e-05
5.70883e-05
6.91311e-05
9.23565e-05
9.43278e-05
9.63378e-05
0.000100069
0.00010189
0.000110957
0.000118659
0.000131009
0.000158782
0.000225346
0.000371014
0.000707059
2.20559e-05
3.39764e-05
6.12745e-05
5.55466e-05
5.82363e-05
6.71496e-05
8.54556e-05
0.000104716
0.000142002
0.000142174
0.000164241
0.00019237
0.000211702
0.000294715
0.000384543
0.00050163
0.000739839
0.00135919
0.00231454
0.00458166
2.292e-05
4.51369e-05
6.4029e-05
6.12239e-05
8.1313e-05
0.000122836
0.000154689
0.0002327
0.000387167
0.000430867
0.000683212
0.000983454
0.00117106
0.00194118
0.0026154
0.00378794
0.00538823
0.0095759
0.0141174
0.0278431
2.4365e-05
6.76055e-05
9.26552e-05
0.000122151
0.00023543
0.000456528
0.000664902
0.00131456
0.00249626
0.00302992
0.00503036
0.00760956
0.0090167
0.0140356
0.0178402
0.02499
0.0320535
0.05013
0.0654876
0.114436
2.73068e-05
0.000168933
0.000346127
0.000674058
0.00163647
0.0035168
0.00530733
0.0105524
0.0183007
0.0220242
0.0335212
0.0469761
0.0534756
0.0734051
0.0888557
0.111377
0.132091
0.181728
0.21619
0.324723
4.90995e-05
0.000913032
0.00249568
0.00548909
0.0144446
0.0268608
0.0388762
0.0686755
0.0992087
0.113962
0.157446
0.19352
0.211362
0.259931
0.298936
0.334112
0.375179
0.455376
0.501262
0.623826
0.000285999
0.00657085
0.0198617
0.042018
0.0992368
0.146709
0.205818
0.294563
0.362239
0.39801
0.491988
0.536367
0.563791
0.631642
0.67503
0.704446
0.752502
0.820971
0.860118
0.957301
0.0027944
0.0461676
0.132769
0.250172
0.436277
0.557229
0.701027
0.821493
0.908409
0.948836
1.03347
1.04848
1.06912
1.10476
1.12782
1.13648
1.16474
1.19615
1.22018
1.26838
0.0264274
0.27738
0.627025
0.954873
1.25855
1.41602
1.54839
1.6004
1.6303
1.62054
1.6253
1.5991
1.59322
1.575
1.57003
1.54834
1.54994
1.53902
1.53769
1.52753
0.210653
1.19704
1.91404
2.3229
2.52094
2.51115
2.47948
2.38919
2.32809
2.2267
2.17339
2.08467
2.05781
1.98345
1.95869
1.9008
1.8761
1.81515
1.78016
1.719
1.33827
3.27055
3.9913
3.95945
3.77233
3.4571
3.23729
2.99692
2.86388
2.69641
2.59304
2.4721
2.42524
2.30116
2.26044
2.16787
2.11299
1.99357
1.91791
1.79651
4.51812
6.18759
5.84069
5.05322
4.41978
3.92763
3.60774
3.29757
3.12503
2.93137
2.80512
2.66793
2.61182
2.45591
2.40028
2.278
2.19704
2.02688
1.91267
1.72455
9.29808
7.3921
5.13231
3.93366
3.34065
2.94574
2.6993
2.46423
2.32453
2.18927
2.09915
1.98556
1.94597
1.82333
1.76415
1.65508
1.58503
1.42629
1.30995
1.12995
1.00706
0.621982
0.616009
0.64152
0.644518
0.506713
0.352607
0.278998
0.239324
0.191093
0.170977
0.175844
0.228388
0.281976
0.304496
0.300282
0.301374
0.306826
0.320931
0.333862
0.329212
0.316003
0.27238
0.166289
0.0677403
0.0278022
0.011568
0.00493519
0.00242439
0.00137325
0.000895574
0.000697493
0.000675869
0.000699913
0.000760668
0.00112594
0.00167491
0.00254282
0.00430723
0.0064121
0.00683316
0.00623917
0.00618755
0.00907107
0.0106116
0.0102039
0.00794298
0.00802133
0.00942029
0.00932696
0.00840377
0.00806234
0.00870813
0.0105531
0.0112042
0.0134747
0.0183922
0.0511153
0.167211
0.189565
0.177704
0.133636
0.0932416
0.0677383
0.0597099
0.0608179
0.0654737
0.061284
0.0446175
0.0364025
0.0341409
0.0340795
0.0361531
0.0390687
0.0410449
0.0415076
0.0418163
0.0428155
0.0451755
0.0503135
0.0585581
0.102178
0.142555
0.145935
0.136257
0.12584
0.107395
0.0827183
0.071507
0.0605136
0.0437461
0.0362676
0.0374698
0.0392671
0.0377501
0.0297423
0.0240016
0.0209228
0.0227595
0.0274945
0.0264064
0.0259254
0.0292836
0.0313943
0.0307137
0.0296116
0.0297013
0.0319653
0.0409227
0.0892372
0.169522
0.192337
0.177321
0.101134
0.0640835
0.0624633
0.0682202
0.07107
0.0696374
0.0726474
0.0777981
0.0813046
0.0789356
0.0638178
0.0528309
0.0493596
0.0507592
0.0559424
0.0564175
0.0498645
0.0451802
0.0420604
0.0378845
0.0358642
0.0367634
0.0396358
0.0395025
0.0362345
0.031693
0.0267457
0.0208622
0.0156073
0.0131569
0.0129467
0.0158132
0.0263846
0.0306961
0.0293112
0.0237498
0.0214186
0.0201986
0.0208011
0.0270822
0.0553176
0.0773274
0.0810004
0.0779065
0.073213
0.0709549
0.0720161
0.0724895
0.0704578
0.0581919
0.0429316
0.0320668
0.0240323
0.0194605
0.0163674
0.0153321
0.0152414
0.0165327
0.0175925
0.017484
0.0163877
0.016151
0.0164378
0.0187753
0.0234208
0.0317208
0.0571745
0.0863857
0.103462
0.126166
0.142577
0.14097
0.123452
0.100876
0.0851735
0.0777268
0.0653658
0.0472723
0.0366257
0.027644
0.0203789
0.0189308
0.0200814
0.0272322
0.0365838
0.0858862
0.367299
1.91895
1.32409
1.12857
0.931331
0.920112
0.874064
0.740114
0.65276
0.531165
0.39718
0.350955
0.359231
0.422955
0.474835
0.476785
0.4546
0.436765
0.402269
0.376321
0.360692
0.331583
0.272782
0.152119
0.0655804
0.028209
0.0123637
0.00543331
0.00265863
0.00157796
0.00103645
0.000764164
0.000659579
0.000664262
0.000720154
0.000896522
0.00183349
0.00288326
0.0050281
0.00803434
0.0111689
0.012426
0.0114628
0.00881976
0.00925409
0.0118266
0.0119536
0.00950791
0.00869118
0.0092964
0.00918343
0.00838711
0.00806513
0.00848149
0.0103527
0.0111637
0.0133723
0.0183537
0.038939
0.152079
0.189913
0.181835
0.141478
0.100057
0.0729042
0.0623738
0.0624613
0.0647539
0.0587571
0.0434592
0.0361352
0.0340818
0.0342532
0.0370782
0.0403065
0.0422135
0.042822
0.0432287
0.0442816
0.0466333
0.0519481
0.060929
0.106357
0.149175
0.152596
0.143036
0.130471
0.107494
0.0813916
0.0690378
0.0604852
0.0441659
0.0351744
0.0359782
0.0388573
0.0374088
0.028711
0.023084
0.0203052
0.0221691
0.0273155
0.0263862
0.0257802
0.0285163
0.0309038
0.0304549
0.0294534
0.029484
0.0314223
0.0393375
0.0812321
0.160488
0.18651
0.176413
0.110111
0.0643409
0.0582785
0.0623649
0.0707576
0.0742274
0.0810289
0.0836209
0.082741
0.0702385
0.0550927
0.0492705
0.0503802
0.0596325
0.0637883
0.0632011
0.0564943
0.0512526
0.0458165
0.0390215
0.034922
0.0347068
0.0371217
0.0372505
0.0345874
0.0291733
0.0246461
0.0195822
0.014913
0.012798
0.012626
0.0149521
0.026297
0.0323004
0.0314611
0.0254377
0.0219057
0.0199847
0.0201383
0.0257214
0.0546927
0.0789124
0.083284
0.0794848
0.0735412
0.0703709
0.0711939
0.0722936
0.0710892
0.0609523
0.044513
0.0329753
0.0241001
0.0193699
0.0167355
0.014716
0.0143869
0.015527
0.0169177
0.0169882
0.016205
0.0158843
0.0161326
0.0178329
0.022207
0.0291737
0.0504066
0.0798954
0.0977291
0.11981
0.13157
0.130739
0.121527
0.102724
0.0862456
0.0793417
0.0691532
0.0516423
0.0376383
0.0303522
0.0270067
0.0205195
0.0203179
0.0255893
0.03188
0.0682102
0.26283
1.82663
1.49243
1.29851
1.12064
1.06167
1.01308
0.885362
0.846047
0.794277
0.704512
0.654568
0.585103
0.556087
0.545517
0.515509
0.479584
0.451311
0.402966
0.359965
0.317754
0.236459
0.117366
0.0562181
0.0258497
0.0120262
0.00557501
0.00272068
0.00168178
0.00119279
0.000867465
0.000702504
0.000655133
0.000700005
0.000893012
0.00138626
0.00374583
0.00596825
0.0104621
0.0155765
0.0191977
0.0211303
0.0204698
0.0152466
0.0121904
0.0128729
0.0135943
0.0120962
0.00989126
0.00964563
0.00931209
0.00844416
0.00809428
0.00828168
0.00994895
0.0110032
0.0131117
0.0183618
0.0322197
0.133285
0.189467
0.185505
0.150178
0.107313
0.0794633
0.0666919
0.0652353
0.0649525
0.0559838
0.0426232
0.0360503
0.0341877
0.0344642
0.0378734
0.0419791
0.0438396
0.0444161
0.0447829
0.0457801
0.0480859
0.0535753
0.063606
0.111779
0.156121
0.159339
0.149987
0.134191
0.107106
0.0798343
0.0664755
0.0606394
0.0450212
0.0348754
0.0358022
0.0390719
0.0374404
0.0281391
0.0223768
0.0198948
0.0214938
0.0268158
0.0261871
0.0255951
0.0277087
0.0300536
0.0299665
0.0292738
0.0293017
0.0310254
0.038095
0.07442
0.150911
0.179565
0.174726
0.119522
0.0658523
0.0551879
0.0574036
0.0693969
0.0773422
0.0839781
0.0841621
0.0752378
0.0611571
0.0525505
0.05127
0.0615038
0.067211
0.0668808
0.06486
0.0583596
0.0528449
0.0470798
0.0397288
0.0327715
0.029179
0.0290554
0.0289669
0.0271029
0.0235451
0.0208717
0.0173881
0.0138392
0.0123215
0.0122611
0.0140571
0.0258011
0.0336653
0.0336641
0.0281754
0.0230877
0.0203755
0.0202734
0.0255184
0.0551679
0.0807092
0.085621
0.0810422
0.0734984
0.0690751
0.069846
0.0718562
0.0714151
0.0638036
0.0461061
0.0339862
0.0243988
0.0190754
0.0171026
0.0153402
0.0144169
0.0148009
0.0158792
0.0160577
0.015636
0.0152968
0.0155008
0.0172987
0.0213173
0.0272871
0.0458399
0.07114
0.0914081
0.113251
0.121269
0.121536
0.119206
0.106693
0.0862372
0.0789956
0.0715107
0.0556403
0.039159
0.0302448
0.02822
0.023406
0.0209423
0.0245329
0.0302084
0.0519291
0.158323
1.53921
1.3238
1.17576
1.04604
0.996869
0.966234
0.877546
0.83643
0.777754
0.733008
0.709868
0.643274
0.580526
0.511313
0.446995
0.401768
0.349846
0.29496
0.24414
0.163851
0.0880118
0.0442407
0.021789
0.0105947
0.00521564
0.00261604
0.00159158
0.00126233
0.00100093
0.00074921
0.000677983
0.000693561
0.000843801
0.00135968
0.0025698
0.0079054
0.0120643
0.0196853
0.0285265
0.0316028
0.0328309
0.0320282
0.027354
0.0189496
0.0159205
0.0154013
0.0144263
0.0115087
0.0103896
0.00950709
0.0085098
0.008128
0.00816028
0.0092372
0.0105855
0.0126438
0.0181408
0.0287305
0.112226
0.188088
0.189068
0.160737
0.115595
0.086738
0.0721851
0.0683493
0.0655175
0.0545306
0.0423837
0.0361308
0.0345634
0.0348302
0.0386774
0.0439174
0.0458229
0.0461682
0.0464094
0.047367
0.0498104
0.0556871
0.0668417
0.118217
0.163983
0.166454
0.157089
0.13667
0.107041
0.0784272
0.0642198
0.060189
0.0469637
0.0353087
0.0364672
0.0401998
0.0378609
0.0279851
0.0220991
0.0196711
0.0210693
0.0259932
0.0256265
0.0252039
0.0271995
0.0295498
0.029589
0.0292263
0.0292212
0.0307643
0.0371769
0.0686919
0.142133
0.172488
0.170959
0.127675
0.0692087
0.0529123
0.0539024
0.0654633
0.0770193
0.0797172
0.0749868
0.0639361
0.0587014
0.0578253
0.0648746
0.0729281
0.0725411
0.0683
0.0653405
0.0592693
0.0532032
0.0472437
0.0403221
0.0329623
0.0274311
0.0242924
0.0219703
0.0193965
0.0176762
0.0164044
0.0144517
0.0124216
0.0118299
0.0119674
0.0132168
0.0242913
0.0346833
0.0360801
0.0318576
0.0252476
0.0215403
0.0209975
0.0256556
0.0554282
0.082128
0.0875223
0.0821278
0.072038
0.0680385
0.069125
0.0718566
0.0715987
0.0669999
0.0483545
0.035291
0.024994
0.0189193
0.0172105
0.0165177
0.0150497
0.0148586
0.0152485
0.0157193
0.0153356
0.0150362
0.0150687
0.0162939
0.0205223
0.0260121
0.0424442
0.0662506
0.0877664
0.107085
0.114938
0.116323
0.115928
0.109433
0.0875992
0.0770958
0.0711881
0.0574545
0.0419109
0.030812
0.0276714
0.0253623
0.0225582
0.0255763
0.0299632
0.0477641
0.111765
1.28286
1.1165
0.984353
0.889849
0.843701
0.797062
0.771041
0.732696
0.660035
0.631255
0.591009
0.537256
0.489677
0.410803
0.353373
0.308333
0.236967
0.189538
0.11437
0.0638012
0.0328512
0.0166683
0.00843464
0.00430419
0.00231276
0.00141417
0.00113821
0.00105346
0.000792053
0.000674466
0.000678584
0.000768606
0.00118171
0.0024796
0.00534661
0.0165988
0.0235769
0.0362089
0.0490685
0.0501603
0.049261
0.0464249
0.0418497
0.0317783
0.0221469
0.0191736
0.0172892
0.0137707
0.0118583
0.0101034
0.00872212
0.00820651
0.00816284
0.0084777
0.00965153
0.0115545
0.0172431
0.0263108
0.0881692
0.18488
0.192671
0.172352
0.125187
0.0948072
0.0791921
0.0727127
0.0665733
0.0543593
0.0424514
0.0365085
0.035257
0.0355996
0.0396722
0.045902
0.0478318
0.0479039
0.0480333
0.0490036
0.0516487
0.0581131
0.0706756
0.126273
0.172008
0.174066
0.163928
0.138894
0.106183
0.076704
0.0623859
0.0591037
0.048709
0.0367094
0.0383155
0.0421712
0.0386314
0.0280117
0.0221222
0.0195996
0.0205885
0.0249138
0.0249448
0.0248506
0.0264299
0.028851
0.0292077
0.029142
0.0291919
0.030595
0.0364604
0.063774
0.133574
0.164769
0.165405
0.132534
0.0744717
0.0529511
0.0517935
0.0568152
0.0678724
0.0664252
0.0631718
0.0596575
0.0642023
0.0714799
0.076633
0.0792741
0.0753031
0.0697296
0.0667222
0.0601745
0.0531905
0.0469137
0.0407114
0.0338059
0.0276948
0.023869
0.0206309
0.0179211
0.0160531
0.0146452
0.013017
0.0118955
0.0116982
0.011931
0.0127729
0.0218819
0.0344166
0.0378817
0.035856
0.0284866
0.0235207
0.022333
0.0260669
0.0550638
0.0839152
0.0894179
0.0828099
0.0712001
0.067994
0.0691371
0.0723082
0.0724341
0.0702095
0.0515676
0.0358164
0.0251789
0.0186008
0.0172198
0.0159238
0.0149575
0.0148024
0.0149512
0.0151315
0.014742
0.0146394
0.0148537
0.0160144
0.0196638
0.0242992
0.0372324
0.0615618
0.0843927
0.0991933
0.108913
0.116148
0.117202
0.112363
0.0904245
0.0764075
0.071072
0.0574538
0.0461241
0.0327285
0.0279834
0.0263657
0.0234219
0.0281915
0.0303195
0.0423196
0.0946508
0.99872
0.908311
0.783648
0.7082
0.668862
0.612643
0.599575
0.57759
0.523495
0.498088
0.442516
0.39191
0.34687
0.279168
0.231683
0.179408
0.124916
0.0766224
0.0421578
0.0221617
0.0114654
0.00606881
0.00311644
0.00179173
0.00119112
0.000957419
0.000935916
0.000790954
0.000666575
0.000657013
0.00070507
0.000997668
0.00209486
0.00524502
0.0121136
0.0339267
0.0447633
0.0665266
0.078408
0.0771862
0.0737445
0.0645251
0.0561534
0.0478896
0.0325478
0.0256985
0.021522
0.0164016
0.0136928
0.0113828
0.00933436
0.00847878
0.00829046
0.00836302
0.00894475
0.0101257
0.0146652
0.0228952
0.060974
0.177075
0.197528
0.184236
0.137587
0.104609
0.0872396
0.0779677
0.0680327
0.0546832
0.0427872
0.0372803
0.0364597
0.0369303
0.0409224
0.0479113
0.0497556
0.0496315
0.0496762
0.050684
0.0536573
0.0609497
0.0753026
0.135167
0.180278
0.181633
0.170179
0.140419
0.104727
0.0744391
0.0612183
0.0581505
0.050393
0.0385183
0.0404897
0.0432457
0.0387649
0.0287727
0.0230124
0.0197095
0.0202437
0.0233763
0.0239299
0.0242993
0.0262647
0.0282082
0.02889
0.0290579
0.029217
0.0306112
0.0359792
0.0595074
0.12538
0.157556
0.159669
0.137167
0.0795526
0.0538314
0.0482844
0.0497252
0.054407
0.0576805
0.0582497
0.0612728
0.0721908
0.0784899
0.0816538
0.082594
0.0786463
0.0748778
0.0699256
0.0610082
0.0529132
0.0466606
0.0407639
0.0340001
0.0278728
0.0238679
0.0201493
0.0172871
0.0153567
0.0140627
0.0126166
0.0117722
0.01168
0.0119835
0.0126136
0.0190895
0.0326583
0.0381336
0.0379662
0.032675
0.0263103
0.0243635
0.0268925
0.0540619
0.0860826
0.091338
0.083675
0.0714422
0.0687526
0.0698636
0.0731213
0.0741136
0.0738095
0.0552751
0.0359384
0.0252668
0.0183032
0.0164287
0.0158554
0.0149555
0.0149862
0.0151183
0.0149354
0.0144965
0.0142148
0.0143615
0.0155204
0.0190786
0.0234903
0.0337825
0.0567478
0.0772435
0.0919389
0.105315
0.117041
0.121965
0.114773
0.0909168
0.0759692
0.0703267
0.0609705
0.0470467
0.0376873
0.0308814
0.0289214
0.0247227
0.0294777
0.0305522
0.0369861
0.0807378
0.671104
0.626817
0.539036
0.484953
0.44656
0.404852
0.398683
0.385737
0.366854
0.34075
0.297103
0.253866
0.211667
0.163482
0.11431
0.0742155
0.0444424
0.0253467
0.0133569
0.00699779
0.0038778
0.00211755
0.00119267
0.000931476
0.000811993
0.00077823
0.000759779
0.000659706
0.000640686
0.000673411
0.00086848
0.00169284
0.00442051
0.0114521
0.0284189
0.0630304
0.0815855
0.108889
0.115844
0.11224
0.105575
0.0910999
0.0716038
0.0632037
0.0448109
0.034556
0.0272463
0.0193158
0.0152252
0.0124135
0.0100163
0.00885012
0.00850324
0.00846805
0.00878458
0.00938042
0.0118927
0.0192091
0.0404163
0.155738
0.20191
0.19467
0.152423
0.114781
0.0955718
0.0839018
0.0709969
0.0557348
0.043755
0.0386301
0.0380557
0.0387291
0.0425821
0.0497362
0.0515914
0.0513245
0.0513147
0.0524531
0.0559434
0.0644447
0.0811556
0.145723
0.189295
0.189695
0.176268
0.141453
0.102886
0.07189
0.0601579
0.0576753
0.0513748
0.0399756
0.0407955
0.0430281
0.0380715
0.0298992
0.0249119
0.0202405
0.0199403
0.0221075
0.0233587
0.0238592
0.0260632
0.0278911
0.0285547
0.0290524
0.0293225
0.0307076
0.0356948
0.0562511
0.117139
0.149784
0.153363
0.139407
0.0855991
0.0557962
0.0458959
0.0453323
0.0483043
0.0562897
0.0596618
0.0669659
0.0752423
0.0815578
0.0856768
0.0870765
0.0843535
0.078528
0.0715227
0.0613708
0.0529238
0.046776
0.0407959
0.0339545
0.0277549
0.0239255
0.0200157
0.0167537
0.0148918
0.0138057
0.0125108
0.0117503
0.0117162
0.0121015
0.0126385
0.0162436
0.0291347
0.0371075
0.038132
0.0360536
0.0294637
0.0266798
0.0279893
0.0520513
0.0874049
0.0928861
0.0851488
0.0732732
0.0707223
0.0713776
0.0754216
0.077393
0.0772391
0.0591292
0.0355828
0.0253084
0.0182617
0.0158359
0.0161797
0.0167508
0.0156299
0.0149053
0.0145022
0.0141403
0.0140917
0.0142584
0.0151112
0.018426
0.022756
0.0320424
0.0547714
0.0726317
0.0888647
0.104355
0.116509
0.119968
0.110018
0.0864627
0.0743815
0.0660106
0.0622083
0.0496909
0.0422167
0.0331902
0.0355845
0.0290536
0.0321888
0.0319225
0.0363737
0.0665784
0.365277
0.334766
0.290064
0.256539
0.224897
0.208377
0.200019
0.191972
0.183721
0.162918
0.143195
0.110835
0.0836478
0.0578794
0.037467
0.0239683
0.0137752
0.00742944
0.00398422
0.00224526
0.00139072
0.000832487
0.000667428
0.000711524
0.000692398
0.000685729
0.000673779
0.000618466
0.000640442
0.00077258
0.00132499
0.00339213
0.00967856
0.0246568
0.0620559
0.107918
0.135192
0.155095
0.157372
0.151334
0.141349
0.122651
0.0936275
0.0820486
0.0588397
0.0450106
0.0356935
0.0243329
0.0179348
0.0141852
0.0109888
0.00950609
0.00892614
0.00868345
0.00883967
0.00921448
0.0102895
0.0157803
0.0285082
0.123286
0.200206
0.201822
0.170286
0.126445
0.104132
0.0905293
0.0754213
0.0582547
0.0453258
0.040397
0.040117
0.0409866
0.0442871
0.0513519
0.0532669
0.0529809
0.0529876
0.0543468
0.0585917
0.0686232
0.0883057
0.157377
0.197829
0.197124
0.181349
0.142022
0.100191
0.0690682
0.0592214
0.0572695
0.0525471
0.0402437
0.0403111
0.0415638
0.0373645
0.0310035
0.0277598
0.0215735
0.0197742
0.0207753
0.0225927
0.0234542
0.02591
0.0274078
0.0283412
0.029063
0.0295402
0.0309717
0.0356331
0.0532313
0.109266
0.14257
0.147333
0.138278
0.096539
0.0578898
0.0455407
0.0444861
0.0484703
0.0618853
0.0677319
0.0720841
0.0769521
0.0856904
0.0917322
0.0927934
0.0870944
0.079458
0.0718826
0.0613217
0.053072
0.0473577
0.0407724
0.0333807
0.0271708
0.0237478
0.0196878
0.016093
0.0145319
0.0136806
0.012482
0.0117904
0.0117966
0.0123327
0.012826
0.0144342
0.0241257
0.0343791
0.0374269
0.0368079
0.032244
0.0288894
0.0291866
0.0490824
0.086971
0.0936746
0.0878079
0.0771175
0.0738187
0.0744147
0.0793721
0.0823629
0.0814864
0.0599618
0.0340766
0.0251597
0.0183108
0.0149377
0.0147782
0.0153565
0.0155628
0.0149366
0.014119
0.0136246
0.0138272
0.0141099
0.0149731
0.0183676
0.0218252
0.0299644
0.0517914
0.0679351
0.0843398
0.0979453
0.105509
0.104663
0.0960542
0.0815591
0.0751695
0.0638472
0.0606634
0.0509417
0.0435206
0.0342996
0.0382164
0.0331623
0.0331877
0.0357016
0.0394552
0.0571814
0.139496
0.125195
0.109487
0.0931762
0.081019
0.0750064
0.0664557
0.0630524
0.0581074
0.0501619
0.0426974
0.0313162
0.0231724
0.0158825
0.0104861
0.00676348
0.00366479
0.00213993
0.00134257
0.000916948
0.000656041
0.000514053
0.000573846
0.000677975
0.000640002
0.000642632
0.000614628
0.000607672
0.000692636
0.00104182
0.00243789
0.00724946
0.0212915
0.0542725
0.120972
0.168224
0.183974
0.185968
0.181583
0.171485
0.16338
0.151274
0.118326
0.100536
0.0724632
0.0569048
0.0461126
0.0301226
0.0201962
0.0155221
0.0122654
0.0105905
0.00957706
0.00903462
0.00900449
0.00927688
0.0095333
0.0128152
0.0213836
0.0821824
0.19294
0.206637
0.188792
0.138608
0.1124
0.096682
0.0801565
0.0620896
0.048217
0.0430706
0.0428916
0.0437653
0.0461399
0.0529446
0.0549384
0.0546585
0.0547151
0.0563524
0.0618224
0.0737891
0.0972068
0.170075
0.206689
0.204479
0.185957
0.142367
0.0967819
0.066236
0.0582887
0.0568614
0.0534379
0.0405654
0.0384882
0.0397706
0.0372393
0.0312571
0.0302601
0.0240585
0.0199937
0.0201681
0.0221761
0.0233292
0.0257886
0.0269437
0.0283098
0.0292152
0.0298139
0.0312911
0.0357945
0.0510349
0.101963
0.135803
0.141591
0.136688
0.107419
0.0642517
0.0515516
0.0508833
0.05834
0.0713649
0.075772
0.0779075
0.0813467
0.0911679
0.096399
0.0962313
0.087239
0.0791018
0.0709423
0.0608316
0.0539182
0.0484116
0.0406619
0.0325818
0.0262977
0.0229147
0.0190276
0.0157139
0.0143166
0.0136149
0.0124662
0.0118565
0.0118679
0.0125874
0.0130979
0.0135744
0.0182785
0.0296583
0.0354699
0.0358847
0.033576
0.0307037
0.0305872
0.0455297
0.0846087
0.0942348
0.0922958
0.0824673
0.0770949
0.0780567
0.0857193
0.0885467
0.0839146
0.0588879
0.0323617
0.0249437
0.0184889
0.0145437
0.0140465
0.0141615
0.0149334
0.0145486
0.0136234
0.0134443
0.0135331
0.013821
0.0147548
0.0183909
0.0214531
0.0275136
0.0475613
0.0637704
0.0789733
0.0906783
0.0923154
0.0912257
0.0872226
0.0805703
0.0787054
0.0665589
0.0607464
0.0504502
0.0431662
0.0346438
0.0366513
0.0347646
0.0335847
0.0367908
0.0397479
0.0501294
0.0320595
0.030756
0.0277023
0.0228721
0.0199936
0.0174078
0.0145179
0.0134001
0.0120921
0.010172
0.0083315
0.0065182
0.00493513
0.00363624
0.00267343
0.00168663
0.00102207
0.00085472
0.000670853
0.000553551
0.000446559
0.00045452
0.000600599
0.000597172
0.000565666
0.000592399
0.000569555
0.000601879
0.000838993
0.00168042
0.00500186
0.0158725
0.0474439
0.120654
0.188713
0.205033
0.202952
0.195731
0.18489
0.174
0.166721
0.160336
0.139551
0.120686
0.0878102
0.0685174
0.0563215
0.0364871
0.0233083
0.0179984
0.0140358
0.0121697
0.0106526
0.00968692
0.0092084
0.0093572
0.00927306
0.0107003
0.0166134
0.0446861
0.169796
0.207941
0.200573
0.156614
0.120654
0.102102
0.0849902
0.0667464
0.0524706
0.0463703
0.0460079
0.046547
0.048129
0.0542579
0.0564881
0.0563005
0.0564759
0.0585297
0.0659061
0.0800661
0.10831
0.182329
0.215065
0.211323
0.190266
0.142029
0.092075
0.0634164
0.0572649
0.0563927
0.0541476
0.041475
0.0359226
0.0395625
0.0382728
0.0307963
0.0305195
0.0274356
0.0211352
0.0207506
0.0226478
0.0235308
0.0251553
0.0261841
0.0284874
0.0294314
0.0305077
0.0320935
0.0360473
0.0495133
0.0942348
0.127863
0.13566
0.133238
0.114158
0.0773965
0.0660257
0.0660145
0.0717072
0.0802311
0.0830874
0.0845074
0.088291
0.0956718
0.098317
0.0951295
0.0825887
0.076037
0.0686438
0.0606325
0.0555867
0.0491445
0.0402291
0.031539
0.0250537
0.021802
0.0186092
0.0156276
0.0141881
0.0135715
0.012578
0.0119707
0.0119523
0.0126264
0.0132223
0.0134354
0.0141968
0.0224237
0.0314917
0.0336872
0.0332047
0.0314393
0.0315147
0.0420971
0.0804285
0.0960172
0.0982822
0.0878129
0.0795867
0.0818434
0.0936206
0.0943965
0.0848096
0.0555139
0.0320299
0.0251971
0.0187648
0.014646
0.0133507
0.0138968
0.0142351
0.0140319
0.0132855
0.0132929
0.0136451
0.0139256
0.0146779
0.0180511
0.0215632
0.0266656
0.0444819
0.0621788
0.0764616
0.086126
0.0903956
0.0881696
0.0889567
0.0898249
0.08475
0.0691964
0.0625882
0.0509134
0.0420364
0.035134
0.033299
0.0340271
0.0330825
0.0360445
0.038642
0.0452411
0.00477715
0.00463083
0.00417312
0.00358021
0.00295776
0.00262236
0.0022108
0.00201586
0.00186525
0.00152618
0.0013279
0.00123831
0.00102306
0.000896909
0.000725749
0.000538334
0.000538999
0.000536057
0.000476281
0.000422543
0.000388965
0.000466846
0.000535849
0.000483804
0.000514295
0.000534241
0.00053097
0.000668831
0.00118023
0.00310617
0.0106046
0.0347369
0.10525
0.19762
0.221634
0.219278
0.208959
0.194658
0.181545
0.171767
0.165343
0.160826
0.148721
0.135818
0.103666
0.0796783
0.0658646
0.0441195
0.0281207
0.0205479
0.0156438
0.0134934
0.0118619
0.0104712
0.00952384
0.00942061
0.00931815
0.00972591
0.013747
0.0276885
0.127949
0.203668
0.205129
0.176456
0.132264
0.108265
0.0894333
0.0709609
0.0569921
0.0507241
0.0491909
0.0493282
0.0502709
0.0556864
0.0580178
0.0579683
0.0583884
0.0610529
0.0711606
0.0879607
0.121703
0.194265
0.222861
0.217401
0.193336
0.141313
0.0873818
0.0611365
0.0565527
0.0558936
0.0545402
0.0426423
0.0355944
0.0406787
0.0397946
0.0294673
0.0297723
0.0308937
0.0238186
0.0221931
0.0230679
0.0239246
0.0251046
0.0258788
0.0285516
0.0297961
0.0313281
0.0327959
0.036508
0.0483414
0.0889984
0.120433
0.129354
0.128255
0.117582
0.0902005
0.0803578
0.0806487
0.0831411
0.0869489
0.0902568