/*--------------------------------*- C++ -*----------------------------------*\
| =========                 |                                                 |
| \\      /  F ield         | OpenFOAM: The Open Source CFD Toolbox           |
|  \\    /   O peration     | Version:  2.4.0                                 |
|   \\  /    A nd           | Web:      www.OpenFOAM.org                      |
|    \\/     M anipulation  |                                                 |
\*---------------------------------------------------------------------------*/
FoamFile
{
    version     2.0;
    format      ascii;
    class       surfaceScalarField;
    location    "0.176";
    object      phi;
}
// * * * * * * * * * * * * * * * * * * * * * * * * * * * * * * * * * * * * * //

dimensions      [0 3 -1 0 0 0 0];

internalField   nonuniform List<scalar> 
34880
(
5.48685e-06
7.01315e-06
3.1246e-06
2.36225e-06
2.47526e-06
6.49343e-07
2.21865e-06
2.56605e-07
2.06781e-06
1.50836e-07
1.97686e-06
9.09536e-08
1.88526e-06
9.15966e-08
1.81296e-06
7.23001e-08
1.78127e-06
3.16938e-08
1.74241e-06
3.88581e-08
1.69113e-06
5.12778e-08
1.69181e-06
-6.78435e-10
1.66092e-06
3.0895e-08
1.61762e-06
4.32978e-08
1.63229e-06
-1.46732e-08
1.59309e-06
3.92063e-08
1.60005e-06
-6.963e-09
1.54013e-06
5.99208e-08
1.62044e-06
-8.03149e-08
3.36537e-07
1.28391e-06
1.01074e-05
9.40574e-06
7.83102e-06
4.63864e-06
6.71586e-06
1.7645e-06
6.05914e-06
9.13326e-07
5.64063e-06
5.69346e-07
5.35943e-06
3.72154e-07
5.11884e-06
3.32187e-07
4.93657e-06
2.54567e-07
4.82303e-06
1.45233e-07
4.70011e-06
1.61781e-07
4.60044e-06
1.50944e-07
4.55812e-06
4.16408e-08
4.47099e-06
1.18024e-07
4.40641e-06
1.07876e-07
4.38506e-06
6.68577e-09
4.3222e-06
1.02056e-07
4.32528e-06
-1.00395e-08
4.20293e-06
1.82268e-07
4.37922e-06
-2.56604e-07
7.75913e-07
3.93985e-06
1.24192e-05
9.48654e-06
1.10055e-05
6.05236e-06
9.98965e-06
2.78033e-06
9.19366e-06
1.70931e-06
8.61785e-06
1.14516e-06
8.19867e-06
7.91336e-07
7.85248e-06
6.78378e-07
7.58668e-06
5.20365e-07
7.40513e-06
3.26783e-07
7.21316e-06
3.53754e-07
7.07873e-06
2.85374e-07
6.99183e-06
1.2854e-07
6.86092e-06
2.48933e-07
6.78607e-06
1.82728e-07
6.72033e-06
7.24295e-08
6.64767e-06
1.74713e-07
6.63323e-06
4.40119e-09
6.50432e-06
3.11174e-07
6.63028e-06
-3.82563e-07
8.42587e-07
6.56361e-06
1.34034e-05
8.58316e-06
1.28881e-05
6.56764e-06
1.23411e-05
3.32732e-06
1.17023e-05
2.34809e-06
1.11362e-05
1.71128e-06
1.0668e-05
1.25958e-06
1.02652e-05
1.0811e-06
9.95149e-06
8.34115e-07
9.72622e-06
5.52058e-07
9.4832e-06
5.96772e-07
9.3219e-06
4.46675e-07
9.20511e-06
2.45327e-07
9.03215e-06
4.21902e-07
8.95492e-06
2.59953e-07
8.85154e-06
1.75808e-07
8.7694e-06
2.56855e-07
8.7267e-06
4.70986e-08
8.63233e-06
4.05544e-07
8.66532e-06
-4.15552e-07
7.66451e-07
8.74146e-06
1.35796e-05
7.50355e-06
1.36534e-05
6.49386e-06
1.3648e-05
3.3327e-06
1.33824e-05
2.61373e-06
1.30225e-05
2.07118e-06
1.26376e-05
1.64444e-06
1.22605e-05
1.45822e-06
1.19546e-05
1.13998e-06
1.17262e-05
7.80473e-07
1.14656e-05
8.57417e-07
1.12915e-05
6.2069e-07
1.11685e-05
3.68359e-07
1.0963e-05
6.27447e-07
1.08904e-05
3.32518e-07
1.07657e-05
3.00512e-07
1.0674e-05
3.48517e-07
1.06041e-05
1.17052e-07
1.05472e-05
4.62389e-07
1.05262e-05
-3.94559e-07
1.04556e-06
1.02471e-05
1.34696e-05
6.53394e-06
1.37341e-05
6.22936e-06
1.40354e-05
3.03144e-06
1.4124e-05
2.52512e-06
1.40849e-05
2.11023e-06
1.39185e-05
1.8109e-06
1.36767e-05
1.69995e-06
1.34633e-05
1.35336e-06
1.32915e-05
9.52277e-07
1.30667e-05
1.08221e-06
1.2907e-05
7.80402e-07
1.28108e-05
4.64559e-07
1.25958e-05
8.42457e-07
1.25342e-05
3.941e-07
1.24158e-05
4.1896e-07
1.23151e-05
4.49218e-07
1.22371e-05
1.95092e-07
1.21968e-05
5.02619e-07
1.21894e-05
-3.87134e-07
9.50222e-07
1.22847e-05
1.33541e-05
5.6798e-06
1.36466e-05
5.9369e-06
1.39844e-05
2.69363e-06
1.42119e-05
2.29759e-06
1.43824e-05
1.9398e-06
1.44335e-05
1.75973e-06
1.43779e-05
1.75558e-06
1.43251e-05
1.40621e-06
1.42743e-05
1.00302e-06
1.41597e-05
1.19686e-06
1.40573e-05
8.82805e-07
1.40316e-05
4.90199e-07
1.38505e-05
1.0236e-06
1.38106e-05
4.3401e-07
1.3733e-05
4.96541e-07
1.3631e-05
5.51207e-07
1.3582e-05
2.44089e-07
1.35277e-05
5.56875e-07
1.34882e-05
-3.47571e-07
1.52412e-06
1.29143e-05
1.32775e-05
4.90228e-06
1.36205e-05
5.59394e-06
1.38596e-05
2.45456e-06
1.4122e-05
2.03511e-06
1.43204e-05
1.74141e-06
1.44568e-05
1.62333e-06
1.45138e-05
1.69863e-06
1.45697e-05
1.35031e-06
1.46239e-05
9.48845e-07
1.46551e-05
1.16562e-06
1.4638e-05
8.99941e-07
1.47147e-05
4.135e-07
1.46235e-05
1.11482e-06
1.46282e-05
4.29289e-07
1.4622e-05
5.02744e-07
1.45497e-05
6.2349e-07
1.45569e-05
2.36897e-07
1.45059e-05
6.07843e-07
1.44276e-05
-2.69232e-07
2.07498e-06
1.38767e-05
1.32289e-05
4.17335e-06
1.35647e-05
5.25815e-06
1.37233e-05
2.29593e-06
1.40384e-05
1.72001e-06
1.42385e-05
1.5414e-06
1.43732e-05
1.48861e-06
1.44584e-05
1.61341e-06
1.45298e-05
1.27885e-06
1.45967e-05
8.82016e-07
1.47066e-05
1.05572e-06
1.47491e-05
8.57409e-07
1.48947e-05
2.6792e-07
1.49038e-05
1.10574e-06
1.49496e-05
3.83439e-07
1.50199e-05
4.32494e-07
1.501e-05
6.33351e-07
1.50714e-05
1.75468e-07
1.50937e-05
5.8563e-07
1.5044e-05
-2.19632e-07
1.0558e-06
1.60632e-05
1.31642e-05
3.5092e-06
1.35496e-05
4.87271e-06
1.36201e-05
2.22538e-06
1.39263e-05
1.41389e-06
1.41699e-05
1.29779e-06
1.43119e-05
1.34662e-06
1.43946e-05
1.53065e-06
1.44716e-05
1.20189e-06
1.45179e-05
8.3573e-07
1.4619e-05
9.54546e-07
1.46845e-05
7.91903e-07
1.48431e-05
1.09339e-07
1.49047e-05
1.0442e-06
1.4948e-05
3.40096e-07
1.50645e-05
3.15971e-07
1.51066e-05
5.91295e-07
1.51912e-05
9.08217e-08
1.529e-05
4.869e-07
1.5334e-05
-2.63659e-07
2.93523e-09
1.63868e-05
1.30891e-05
2.92013e-06
1.3547e-05
4.41475e-06
1.35694e-05
2.20298e-06
1.38105e-05
1.17283e-06
1.40626e-05
1.0457e-06
1.42265e-05
1.18272e-06
1.434e-05
1.41712e-06
1.44651e-05
1.07683e-06
1.4494e-05
8.06833e-07
1.45473e-05
9.01174e-07
1.45988e-05
7.40459e-07
1.47405e-05
-3.23881e-08
1.48132e-05
9.71522e-07
1.48598e-05
2.9347e-07
1.50076e-05
1.68169e-07
1.50823e-05
5.1664e-07
1.51821e-05
-9.03952e-09
1.53282e-05
3.40871e-07
1.54651e-05
-4.00624e-07
-4.83327e-07
1.59514e-05
1.30261e-05
2.39408e-06
1.3487e-05
3.95385e-06
1.3536e-05
2.15393e-06
1.37586e-05
9.50218e-07
1.39621e-05
8.42245e-07
1.41259e-05
1.0189e-06
1.42843e-05
1.25875e-06
1.44568e-05
9.04257e-07
1.44661e-05
7.9758e-07
1.44908e-05
8.76457e-07
1.4541e-05
6.90284e-07
1.46583e-05
-1.4971e-07
1.47402e-05
8.89635e-07
1.48139e-05
2.19798e-07
1.49539e-05
2.81188e-08
1.50192e-05
4.51383e-07
1.51379e-05
-1.27707e-07
1.53031e-05
1.75604e-07
1.53771e-05
-4.74589e-07
-6.05921e-07
1.54997e-05
1.29425e-05
1.95161e-06
1.33868e-05
3.50948e-06
1.35547e-05
1.98609e-06
1.376e-05
7.44893e-07
1.39117e-05
6.90593e-07
1.40526e-05
8.77984e-07
1.41936e-05
1.1177e-06
1.43833e-05
7.14604e-07
1.44078e-05
7.73089e-07
1.4455e-05
8.29213e-07
1.45366e-05
6.08642e-07
1.46266e-05
-2.39678e-07
1.47243e-05
7.91976e-07
1.47832e-05
1.60855e-07
1.48594e-05
-4.80775e-08
1.49061e-05
4.0465e-07
1.50421e-05
-2.63689e-07
1.5214e-05
3.75322e-09
1.52381e-05
-4.98748e-07
-9.90669e-07
1.56229e-05
1.28601e-05
1.59146e-06
1.33427e-05
3.02688e-06
1.36163e-05
1.71258e-06
1.37439e-05
6.17275e-07
1.38658e-05
5.68638e-07
1.39903e-05
7.53532e-07
1.40981e-05
1.00992e-06
1.42899e-05
5.22768e-07
1.43624e-05
7.00598e-07
1.44478e-05
7.43763e-07
1.45347e-05
5.21757e-07
1.45899e-05
-2.94908e-07
1.46924e-05
6.89511e-07
1.47217e-05
1.31558e-07
1.47579e-05
-8.43064e-08
1.48376e-05
3.24982e-07
1.49706e-05
-3.96677e-07
1.51472e-05
-1.72856e-07
1.5256e-05
-6.0751e-07
-1.51626e-06
1.57816e-05
1.28251e-05
1.26638e-06
1.33358e-05
2.51617e-06
1.36054e-05
1.443e-06
1.36981e-05
5.24503e-07
1.38114e-05
4.55371e-07
1.39465e-05
6.18476e-07
1.40526e-05
9.03779e-07
1.42447e-05
3.30635e-07
1.43474e-05
5.97942e-07
1.44271e-05
6.64012e-07
1.44986e-05
4.50257e-07
1.45289e-05
-3.25196e-07
1.46313e-05
5.87097e-07
1.46777e-05
8.52255e-08
1.47316e-05
-1.38276e-07
1.48333e-05
2.23284e-07
1.4927e-05
-4.90307e-07
1.51121e-05
-3.58015e-07
1.52922e-05
-7.87581e-07
-1.74047e-06
1.55164e-05
1.28112e-05
9.55209e-07
1.32852e-05
2.04212e-06
1.35524e-05
1.17581e-06
1.36841e-05
3.9282e-07
1.37937e-05
3.4579e-07
1.39195e-05
4.92644e-07
1.40351e-05
7.88241e-07
1.42268e-05
1.38862e-07
1.43162e-05
5.08531e-07
1.43693e-05
6.10917e-07
1.44694e-05
3.50193e-07
1.44888e-05
-3.44552e-07
1.4607e-05
4.68837e-07
1.46683e-05
2.3963e-08
1.47519e-05
-2.21902e-07
1.48107e-05
1.64535e-07
1.48844e-05
-5.64022e-07
1.50486e-05
-5.22247e-07
1.51907e-05
-9.29663e-07
-1.95642e-06
1.54066e-05
1.27717e-05
6.83494e-07
1.32237e-05
1.59012e-06
1.35455e-05
8.54049e-07
1.3705e-05
2.3326e-07
1.37708e-05
2.79979e-07
1.38821e-05
3.81418e-07
1.4023e-05
6.47338e-07
1.41921e-05
-3.0251e-08
1.42652e-05
4.3541e-07
1.43356e-05
5.40524e-07
1.44662e-05
2.19609e-07
1.4467e-05
-3.45356e-07
1.46024e-05
3.33423e-07
1.46479e-05
-2.15684e-08
1.4732e-05
-3.05985e-07
1.47806e-05
1.15899e-07
1.48618e-05
-6.45205e-07
1.49692e-05
-6.29628e-07
1.49499e-05
-9.10325e-07
-1.06169e-06
1.40551e-05
1.27366e-05
4.4691e-07
1.32275e-05
1.09917e-06
1.35683e-05
5.13289e-07
1.36791e-05
1.22469e-07
1.37098e-05
2.49233e-07
1.38639e-05
2.27385e-07
1.40289e-05
4.82324e-07
1.41553e-05
-1.56642e-07
1.42409e-05
3.49763e-07
1.4347e-05
4.34447e-07
1.4452e-05
1.14627e-07
1.44307e-05
-3.24045e-07
1.45585e-05
2.0558e-07
1.46225e-05
-8.55228e-08
1.46933e-05
-3.76798e-07
1.47954e-05
1.38021e-08
1.48323e-05
-6.82176e-07
1.494e-05
-7.37297e-07
1.51311e-05
-1.10143e-06
-1.55577e-06
1.56252e-05
1.27371e-05
2.09784e-07
1.32485e-05
5.87785e-07
1.3538e-05
2.23809e-07
1.36209e-05
3.95376e-08
1.36958e-05
1.74332e-07
1.38926e-05
3.05865e-08
1.40324e-05
3.42519e-07
1.41243e-05
-2.48523e-07
1.42349e-05
2.39196e-07
1.43392e-05
3.30119e-07
1.44272e-05
2.66386e-08
1.44068e-05
-3.03705e-07
1.45303e-05
8.20912e-08
1.46253e-05
-1.80516e-07
1.46965e-05
-4.47925e-07
1.47936e-05
-8.33622e-08
1.47873e-05
-6.75898e-07
1.49706e-05
-9.20523e-07
1.51475e-05
-1.27836e-06
-1.68744e-06
1.52792e-05
1.27488e-05
-3.89879e-08
1.32286e-05
1.07966e-07
1.3486e-05
-3.36094e-08
1.36252e-05
-9.96757e-08
1.37419e-05
5.76504e-08
1.39029e-05
-1.30456e-07
1.40034e-05
2.42073e-07
1.40998e-05
-3.44923e-07
1.42289e-05
1.10062e-07
1.4323e-05
2.36005e-07
1.44201e-05
-7.03992e-08
1.44204e-05
-3.04053e-07
1.45337e-05
-3.12125e-08
1.46389e-05
-2.85649e-07
1.46874e-05
-4.96505e-07
1.47546e-05
-1.50562e-07
1.47902e-05
-7.11484e-07
1.49992e-05
-1.12947e-06
1.50485e-05
-1.3277e-06
-1.84535e-06
1.52064e-05
1.27477e-05
-2.86723e-07
1.32014e-05
-3.45702e-07
1.34845e-05
-3.16747e-07
1.36663e-05
-2.8139e-07
1.37564e-05
-3.24685e-08
1.38729e-05
-2.47005e-07
1.39878e-05
1.27214e-07
1.41048e-05
-4.61959e-07
1.42443e-05
-2.93708e-08
1.43241e-05
1.56159e-07
1.44256e-05
-1.71905e-07
1.44281e-05
-3.06552e-07
1.45328e-05
-1.35865e-07
1.46263e-05
-3.7918e-07
1.46622e-05
-5.32461e-07
1.47334e-05
-2.21742e-07
1.48552e-05
-8.33312e-07
1.49581e-05
-1.2323e-06
1.49685e-05
-1.33818e-06
-2.40946e-06
1.55327e-05
1.27434e-05
-5.30092e-07
1.32036e-05
-8.05951e-07
1.35177e-05
-6.30802e-07
1.3676e-05
-4.39736e-07
1.37361e-05
-9.25657e-08
1.38662e-05
-3.77044e-07
1.40121e-05
-1.87182e-08
1.4122e-05
-5.71847e-07
1.4253e-05
-1.60431e-07
1.43201e-05
8.91338e-08
1.44241e-05
-2.75924e-07
1.44407e-05
-3.23176e-07
1.45362e-05
-2.31371e-07
1.46192e-05
-4.62192e-07
1.46634e-05
-5.7669e-07
1.47629e-05
-3.21187e-07
1.48912e-05
-9.61648e-07
1.49027e-05
-1.24373e-06
1.48868e-05
-1.32232e-06
-1.62298e-06
1.41003e-05
1.27521e-05
-7.82161e-07
1.32336e-05
-1.28745e-06
1.3542e-05
-9.39277e-07
1.36562e-05
-5.53917e-07
1.37328e-05
-1.69117e-07
1.38936e-05
-5.37908e-07
1.40366e-05
-1.6168e-07
1.4132e-05
-6.67252e-07
1.42484e-05
-2.76777e-07
1.43249e-05
1.25535e-08
1.4428e-05
-3.79025e-07
1.44754e-05
-3.70545e-07
1.45444e-05
-3.00338e-07
1.46353e-05
-5.53169e-07
1.46748e-05
-6.16122e-07
1.48045e-05
-4.50866e-07
1.48644e-05
-1.02161e-06
1.49136e-05
-1.29289e-06
1.50976e-05
-1.50634e-06
-2.05643e-06
1.55311e-05
1.27786e-05
-1.06078e-06
1.32587e-05
-1.76752e-06
1.35442e-05
-1.22474e-06
1.36477e-05
-6.57497e-07
1.3762e-05
-2.83353e-07
1.39231e-05
-6.99041e-07
1.40558e-05
-2.94394e-07
1.4148e-05
-7.594e-07
1.42607e-05
-3.89501e-07
1.43374e-05
-6.41492e-08
1.44485e-05
-4.90166e-07
1.45069e-05
-4.28887e-07
1.45566e-05
-3.50066e-07
1.46462e-05
-6.42811e-07
1.4688e-05
-6.57825e-07
1.48246e-05
-5.8755e-07
1.48458e-05
-1.04276e-06
1.49645e-05
-1.41159e-06
1.51274e-05
-1.66928e-06
-2.25077e-06
1.53218e-05
1.28055e-05
-1.36627e-06
1.32728e-05
-2.23481e-06
1.35576e-05
-1.5096e-06
1.36699e-05
-7.6978e-07
1.38003e-05
-4.13764e-07
1.3949e-05
-8.47704e-07
1.40791e-05
-4.24472e-07
1.41727e-05
-8.53084e-07
1.42763e-05
-4.93045e-07
1.43637e-05
-1.51561e-07
1.44692e-05
-5.95618e-07
1.45483e-05
-5.07981e-07
1.45706e-05
-3.72432e-07
1.46672e-05
-7.39348e-07
1.4721e-05
-7.11637e-07
1.4837e-05
-7.03605e-07
1.48622e-05
-1.06795e-06
1.50101e-05
-1.55948e-06
1.51351e-05
-1.79427e-06
-2.47911e-06
1.53634e-05
1.28306e-05
-1.69687e-06
1.33033e-05
-2.70749e-06
1.35911e-05
-1.79745e-06
1.36942e-05
-8.72862e-07
1.38325e-05
-5.5208e-07
1.39776e-05
-9.92767e-07
1.4111e-05
-5.57865e-07
1.42015e-05
-9.43566e-07
1.43074e-05
-5.98989e-07
1.4399e-05
-2.43185e-07
1.45058e-05
-7.02354e-07
1.45778e-05
-5.79967e-07
1.45978e-05
-3.92501e-07
1.46955e-05
-8.37008e-07
1.47738e-05
-7.8993e-07
1.48353e-05
-7.65134e-07
1.4928e-05
-1.16063e-06
1.50172e-05
-1.64872e-06
1.51238e-05
-1.90087e-06
-2.87715e-06
1.55219e-05
1.28656e-05
-2.06251e-06
1.33481e-05
-3.18999e-06
1.36198e-05
-2.06912e-06
1.37193e-05
-9.72341e-07
1.38759e-05
-7.08692e-07
1.40199e-05
-1.13674e-06
1.41499e-05
-6.87857e-07
1.4238e-05
-1.03169e-06
1.43517e-05
-7.12736e-07
1.44404e-05
-3.31824e-07
1.45423e-05
-8.04323e-07
1.46082e-05
-6.4585e-07
1.46389e-05
-4.23192e-07
1.47401e-05
-9.38216e-07
1.48144e-05
-8.64244e-07
1.48563e-05
-8.06962e-07
1.49834e-05
-1.28776e-06
1.50197e-05
-1.68501e-06
1.50324e-05
-1.91354e-06
-1.87845e-06
1.40337e-05
1.29094e-05
-2.47194e-06
1.34021e-05
-3.68269e-06
1.36254e-05
-2.2924e-06
1.37578e-05
-1.10471e-06
1.39247e-05
-8.75647e-07
1.40665e-05
-1.27854e-06
1.41914e-05
-8.12695e-07
1.42809e-05
-1.12126e-06
1.44024e-05
-8.3417e-07
1.44912e-05
-4.20652e-07
1.45796e-05
-8.92732e-07
1.4662e-05
-7.28211e-07
1.46856e-05
-4.4682e-07
1.48007e-05
-1.05331e-06
1.48287e-05
-8.92207e-07
1.49251e-05
-9.03443e-07
1.49833e-05
-1.34592e-06
1.50672e-05
-1.76889e-06
1.51845e-05
-2.03082e-06
-2.44308e-06
1.57491e-05
1.29666e-05
-2.93852e-06
1.34734e-05
-4.1895e-06
1.36443e-05
-2.46332e-06
1.37859e-05
-1.24634e-06
1.39752e-05
-1.06489e-06
1.41154e-05
-1.41878e-06
1.42403e-05
-9.37618e-07
1.43328e-05
-1.21366e-06
1.44638e-05
-9.65233e-07
1.45384e-05
-4.95215e-07
1.46371e-05
-9.91412e-07
1.47096e-05
-8.00739e-07
1.47499e-05
-4.87089e-07
1.48335e-05
-1.13698e-06
1.48861e-05
-9.4475e-07
1.49679e-05
-9.85313e-07
1.49914e-05
-1.36942e-06
1.51412e-05
-1.91863e-06
1.52715e-05
-2.16119e-06
-2.82481e-06
1.56533e-05
1.30371e-05
-3.47562e-06
1.35497e-05
-4.70211e-06
1.36692e-05
-2.58283e-06
1.38146e-05
-1.39172e-06
1.40412e-05
-1.29148e-06
1.41729e-05
-1.55052e-06
1.42972e-05
-1.06191e-06
1.4399e-05
-1.3154e-06
1.45199e-05
-1.08619e-06
1.45893e-05
-5.64571e-07
1.46991e-05
-1.10128e-06
1.47619e-05
-8.63541e-07
1.48113e-05
-5.36408e-07
1.48797e-05
-1.20539e-06
1.4954e-05
-1.01905e-06
1.49981e-05
-1.02944e-06
1.50477e-05
-1.41906e-06
1.5195e-05
-2.06586e-06
1.52799e-05
-2.24615e-06
-3.10597e-06
1.55611e-05
1.31178e-05
-4.09345e-06
1.36214e-05
-5.20564e-06
1.36898e-05
-2.65126e-06
1.38663e-05
-1.56818e-06
1.41247e-05
-1.54986e-06
1.42355e-05
-1.66139e-06
1.43683e-05
-1.19466e-06
1.44772e-05
-1.42434e-06
1.45718e-05
-1.18081e-06
1.46596e-05
-6.52351e-07
1.47649e-05
-1.20653e-06
1.48165e-05
-9.15144e-07
1.48747e-05
-5.94671e-07
1.49361e-05
-1.2668e-06
1.49944e-05
-1.07733e-06
1.50269e-05
-1.0619e-06
1.50736e-05
-1.46578e-06
1.51345e-05
-2.1268e-06
1.51501e-05
-2.26175e-06
-3.32193e-06
1.53661e-05
1.32112e-05
-4.80467e-06
1.36704e-05
-5.66479e-06
1.37178e-05
-2.69867e-06
1.39531e-05
-1.8035e-06
1.42176e-05
-1.81437e-06
1.43108e-05
-1.75462e-06
1.4463e-05
-1.3468e-06
1.45582e-05
-1.51958e-06
1.46271e-05
-1.24968e-06
1.4738e-05
-7.63249e-07
1.48007e-05
-1.26925e-06
1.48286e-05
-9.43098e-07
1.48898e-05
-6.55848e-07
1.48979e-05
-1.27486e-06
1.49102e-05
-1.08969e-06
1.49012e-05
-1.05282e-06
1.48732e-05
-1.43778e-06
1.47871e-05
-2.04076e-06
1.46868e-05
-2.16144e-06
-3.4189e-06
1.47838e-05
1.33012e-05
-5.60584e-06
1.36884e-05
-6.05202e-06
1.37867e-05
-2.797e-06
1.40766e-05
-2.0934e-06
1.43174e-05
-2.05514e-06
1.44067e-05
-1.84396e-06
1.45457e-05
-1.48579e-06
1.45862e-05
-1.56007e-06
1.46102e-05
-1.27363e-06
1.46858e-05
-8.38935e-07
1.46461e-05
-1.22951e-06
1.46175e-05
-9.14537e-07
1.46227e-05
-6.60968e-07
1.45261e-05
-1.1783e-06
1.44558e-05
-1.0194e-06
1.43697e-05
-9.66754e-07
1.42382e-05
-1.30624e-06
1.40231e-05
-1.82565e-06
1.37823e-05
-1.92067e-06
-2.52251e-06
1.28859e-05
1.33859e-05
-6.4917e-06
1.36631e-05
-6.32923e-06
1.39141e-05
-3.04801e-06
1.42096e-05
-2.38892e-06
1.43697e-05
-2.21526e-06
1.43948e-05
-1.869e-06
1.44153e-05
-1.50634e-06
1.43254e-05
-1.47015e-06
1.4237e-05
-1.18522e-06
1.41929e-05
-7.94854e-07
1.40284e-05
-1.06502e-06
1.3919e-05
-8.0512e-07
1.38402e-05
-5.82141e-07
1.36555e-05
-9.93619e-07
1.35149e-05
-8.78739e-07
1.33698e-05
-8.21723e-07
1.31636e-05
-1.10006e-06
1.28769e-05
-1.5389e-06
1.25907e-05
-1.63444e-06
-2.33155e-06
1.23997e-05
1.34918e-05
-7.4835e-06
1.37228e-05
-6.56019e-06
1.39948e-05
-3.32008e-06
1.41403e-05
-2.53442e-06
1.40678e-05
-2.14275e-06
1.38947e-05
-1.69593e-06
1.37075e-05
-1.31913e-06
1.34569e-05
-1.21947e-06
1.32456e-05
-9.73984e-07
1.30925e-05
-6.41723e-07
1.28548e-05
-8.27312e-07
1.26948e-05
-6.45106e-07
1.25642e-05
-4.51551e-07
1.23408e-05
-7.70229e-07
1.21649e-05
-7.02805e-07
1.19882e-05
-6.45036e-07
1.17461e-05
-8.57974e-07
1.14265e-05
-1.2193e-06
1.10853e-05
-1.29323e-06
-1.66274e-06
1.04165e-05
1.35916e-05
-8.57508e-06
1.36377e-05
-6.60633e-06
1.36289e-05
-3.31126e-06
1.33999e-05
-2.30543e-06
1.30071e-05
-1.74991e-06
1.2622e-05
-1.31092e-06
1.2283e-05
-9.80072e-07
1.19453e-05
-8.81826e-07
1.16782e-05
-7.06849e-07
1.14803e-05
-4.43841e-07
1.12289e-05
-5.7587e-07
1.10546e-05
-4.7081e-07
1.09074e-05
-3.04387e-07
1.06811e-05
-5.43947e-07
1.04953e-05
-5.16969e-07
1.03086e-05
-4.58308e-07
1.00602e-05
-6.09613e-07
9.73032e-06
-8.89408e-07
9.38208e-06
-9.44994e-07
-1.13618e-06
8.85553e-06
1.34088e-05
-9.48391e-06
1.28745e-05
-6.07196e-06
1.23333e-05
-2.77005e-06
1.17157e-05
-1.68785e-06
1.11249e-05
-1.15908e-06
1.06545e-05
-8.40554e-07
1.02804e-05
-6.05986e-07
9.94247e-06
-5.43883e-07
9.67876e-06
-4.43145e-07
9.48766e-06
-2.52737e-07
9.26021e-06
-3.48418e-07
9.09446e-06
-3.05063e-07
8.95849e-06
-1.68418e-07
8.75302e-06
-3.38478e-07
8.57448e-06
-3.38425e-07
8.39831e-06
-2.82142e-07
8.16602e-06
-3.77321e-07
7.85371e-06
-5.77094e-07
7.51751e-06
-6.088e-07
-7.0089e-07
7.08222e-06
1.2421e-05
-9.40487e-06
1.09957e-05
-4.64671e-06
9.98659e-06
-1.76094e-06
9.20224e-06
-9.03498e-07
8.61246e-06
-5.69307e-07
8.1839e-06
-4.11995e-07
7.86269e-06
-2.84776e-07
7.58111e-06
-2.62299e-07
7.35933e-06
-2.21364e-07
7.20987e-06
-1.0328e-07
7.02881e-06
-1.67355e-07
6.88674e-06
-1.62994e-07
6.78264e-06
-6.4325e-08
6.61345e-06
-1.69283e-07
6.45663e-06
-1.81606e-07
6.30994e-06
-1.3545e-07
6.11525e-06
-1.82635e-07
5.8429e-06
-3.04738e-07
5.54621e-06
-3.12116e-07
-3.44425e-07
5.18975e-06
1.0108e-05
-7.01285e-06
7.82546e-06
-2.36419e-06
6.71388e-06
-6.49361e-07
6.06407e-06
-2.53688e-07
5.64122e-06
-1.4646e-07
5.34163e-06
-1.12405e-07
5.12774e-06
-7.08874e-08
4.93592e-06
-7.04771e-08
4.78101e-06
-6.64509e-08
4.69412e-06
-1.63905e-08
4.57193e-06
-4.51635e-08
4.46518e-06
-5.62439e-08
4.4074e-06
-6.54912e-09
4.28645e-06
-4.83299e-08
4.1665e-06
-6.16535e-08
4.0667e-06
-3.56544e-08
3.93142e-06
-4.73547e-08
3.72376e-06
-9.70714e-08
3.50503e-06
-9.33862e-08
-9.97697e-08
3.26037e-06
5.48715e-06
3.12296e-06
2.4736e-06
2.21991e-06
2.07345e-06
1.96105e-06
1.89016e-06
1.81968e-06
1.75323e-06
1.73684e-06
1.69168e-06
1.63543e-06
1.62888e-06
1.58055e-06
1.5189e-06
1.48325e-06
1.43589e-06
1.33882e-06
1.24543e-06
1.14567e-06
1.53363e-06
5.12363e-07
-7.62087e-07
1.84528e-06
5.07349e-07
-8.18995e-07
2.13366e-06
2.52389e-07
-5.40769e-07
2.23383e-06
3.0274e-07
-4.02919e-07
2.35686e-06
1.17931e-06
-1.30234e-06
3.19004e-06
1.74459e-06
-2.57777e-06
3.99214e-06
2.03535e-06
-2.83745e-06
5.18153e-06
3.15099e-06
-4.34038e-06
6.58986e-06
2.76599e-06
-4.17431e-06
7.48629e-06
2.36541e-06
-3.26184e-06
8.21572e-06
3.021e-06
-3.75044e-06
8.74708e-06
2.40583e-06
-2.93719e-06
9.00122e-06
2.05584e-07
-4.59725e-07
9.67867e-06
-1.15777e-06
4.80322e-07
1.05246e-05
-2.2726e-06
1.42665e-06
1.11933e-05
-3.65058e-06
2.98191e-06
1.20169e-05
-4.50635e-06
3.68278e-06
1.26425e-05
-5.91229e-06
5.28662e-06
1.32035e-05
-7.41317e-06
6.8522e-06
1.3829e-05
-8.46271e-06
7.83718e-06
1.47031e-05
-1.04578e-05
9.58368e-06
1.58172e-05
-1.22533e-05
1.11393e-05
1.64709e-05
-1.40041e-05
1.33504e-05
1.68111e-05
-1.58329e-05
1.54926e-05
1.69131e-05
-1.72499e-05
1.7148e-05
1.65744e-05
-1.80376e-05
1.83763e-05
1.60803e-05
-1.82447e-05
1.87388e-05
1.56614e-05
-1.87165e-05
1.91353e-05
1.53884e-05
-1.85143e-05
1.87873e-05
1.52399e-05
-1.87204e-05
1.8869e-05
1.51579e-05
-1.83109e-05
1.83928e-05
1.51756e-05
-1.77109e-05
1.76933e-05
1.52862e-05
-1.78213e-05
1.77106e-05
1.53596e-05
-1.61804e-05
1.61071e-05
1.53861e-05
-1.56525e-05
1.56259e-05
1.55499e-05
-1.50966e-05
1.49329e-05
1.55162e-05
-1.26162e-05
1.26499e-05
1.5356e-05
-1.17023e-05
1.18626e-05
1.52296e-05
-9.76992e-06
9.8963e-06
1.48436e-05
-6.95791e-06
7.34391e-06
1.44061e-05
-5.92056e-06
6.35809e-06
1.40351e-05
-3.29891e-06
3.6699e-06
1.3494e-05
-1.08772e-06
1.62874e-06
1.29257e-05
-1.91459e-07
7.59848e-07
1.21649e-05
1.73447e-06
-9.73667e-07
1.13957e-05
2.47599e-06
-1.70683e-06
1.09737e-05
2.40322e-06
-1.98122e-06
1.04995e-05
3.30654e-06
-2.83235e-06
9.83969e-06
4.29052e-06
-3.63071e-06
9.41665e-06
4.26157e-06
-3.83854e-06
9.17697e-06
4.25114e-06
-4.01146e-06
8.86527e-06
4.44289e-06
-4.13119e-06
8.49781e-06
4.10782e-06
-3.74035e-06
8.32789e-06
5.10156e-06
-4.93164e-06
8.1537e-06
7.4444e-06
-7.27021e-06
7.46978e-06
7.34823e-06
-6.66431e-06
6.65508e-06
4.26653e-06
-3.45183e-06
6.66101e-06
2.97838e-06
-2.98431e-06
7.55109e-06
7.31191e-06
-8.20199e-06
8.54733e-06
1.43112e-05
-1.53074e-05
9.04528e-06
1.936e-05
-1.98579e-05
8.97923e-06
2.11462e-05
-2.10801e-05
8.67552e-06
2.10809e-05
-2.07772e-05
8.44601e-06
2.08328e-05
-2.06033e-05
8.28712e-06
2.11363e-05
-2.09774e-05
8.06265e-06
2.18116e-05
-2.15871e-05
7.70088e-06
2.29615e-05
-2.25997e-05
7.40442e-06
2.3847e-05
-2.35505e-05
7.34117e-06
2.22665e-05
-2.22032e-05
7.33216e-06
1.81448e-05
-1.81358e-05
7.22955e-06
1.3346e-05
-1.32434e-05
7.12009e-06
8.35956e-06
-8.2501e-06
7.06462e-06
2.74351e-06
-2.68804e-06
7.18324e-06
-3.89772e-06
3.7791e-06
7.59867e-06
-9.61577e-06
9.20035e-06
7.97012e-06
-1.24275e-05
1.20561e-05
8.03008e-06
-1.47121e-05
1.46521e-05
8.05875e-06
-1.78912e-05
1.78625e-05
8.24528e-06
-2.1288e-05
2.11015e-05
8.48024e-06
-2.51159e-05
2.48809e-05
8.65222e-06
-2.98504e-05
2.96784e-05
8.75687e-06
-3.20548e-05
3.19502e-05
8.77127e-06
-2.90017e-05
2.89873e-05
8.59281e-06
-2.46816e-05
2.48601e-05
8.41583e-06
-2.11207e-05
2.12977e-05
8.27726e-06
-1.97117e-05
1.98503e-05
8.0656e-06
-2.00043e-05
2.0216e-05
8.00796e-06
-2.05998e-05
2.06575e-05
8.14107e-06
-2.1613e-05
2.14799e-05
8.11432e-06
-2.40514e-05
2.40782e-05
8.10147e-06
-2.59747e-05
2.59875e-05
8.29017e-06
-2.39433e-05
2.37546e-05
8.42888e-06
-2.33584e-05
2.32196e-05
8.47272e-06
-2.37758e-05
2.3732e-05
8.5555e-06
-2.26043e-05
2.25215e-05
8.68606e-06
-1.96044e-05
1.94739e-05
9.27379e-06
-1.47192e-05
1.41315e-05
9.76904e-06
-1.06335e-05
1.01382e-05
9.58506e-06
-7.25857e-06
7.44255e-06
9.17131e-06
-9.90819e-07
1.40456e-06
9.04028e-06
6.4288e-06
-6.29777e-06
8.98099e-06
9.75819e-06
-9.69889e-06
8.85519e-06
1.24796e-05
-1.23538e-05
8.76364e-06
1.8028e-05
-1.79365e-05
8.74677e-06
2.20286e-05
-2.20117e-05
8.78484e-06
2.33209e-05
-2.3359e-05
8.87211e-06
2.50498e-05
-2.51371e-05
9.01661e-06
2.81701e-05
-2.83146e-05
9.08092e-06
3.12017e-05
-3.1266e-05
8.91915e-06
3.28543e-05
-3.26926e-05
8.44831e-06
3.12211e-05
-3.07503e-05
7.67323e-06
2.76634e-05
-2.68883e-05
6.90384e-06
2.34383e-05
-2.2669e-05
6.43958e-06
1.99093e-05
-1.9445e-05
6.48085e-06
1.91136e-05
-1.91549e-05
6.86861e-06
1.96506e-05
-2.00384e-05
7.26899e-06
2.0291e-05
-2.06914e-05
7.47065e-06
1.96033e-05
-1.9805e-05
7.70303e-06
1.82552e-05
-1.84876e-05
7.74505e-06
1.62031e-05
-1.62451e-05
7.71657e-06
1.38171e-05
-1.37886e-05
7.59096e-06
1.18219e-05
-1.16963e-05
7.34241e-06
1.01361e-05
-9.88758e-06
7.15473e-06
7.63479e-06
-7.44711e-06
7.10594e-06
6.34906e-06
-6.30027e-06
7.33057e-06
4.66056e-06
-4.88519e-06
7.60999e-06
3.44596e-07
-6.24021e-07
8.02056e-06
-3.35009e-06
2.93952e-06
8.45826e-06
-4.70696e-06
4.26925e-06
8.70979e-06
-5.75043e-06
5.4989e-06
8.97028e-06
-7.01621e-06
6.75573e-06
9.21149e-06
-7.62401e-06
7.38279e-06
9.28678e-06
-8.76143e-06
8.68614e-06
9.12095e-06
-9.87406e-06
1.00399e-05
8.89153e-06
-1.02946e-05
1.0524e-05
8.76843e-06
-9.74281e-06
9.86591e-06
8.80553e-06
-8.77006e-06
8.73295e-06
8.94646e-06
-9.05141e-06
8.91048e-06
8.95528e-06
-9.36774e-06
9.35892e-06
8.88559e-06
-9.36816e-06
9.43785e-06
8.71591e-06
-8.28226e-06
8.45194e-06
8.52587e-06
-8.55301e-06
8.74305e-06
8.37615e-06
-9.41774e-06
9.56747e-06
8.24715e-06
-9.59228e-06
9.72128e-06
7.92668e-06
-8.68101e-06
9.00148e-06
7.42726e-06
-8.07254e-06
8.57195e-06
6.78541e-06
-8.84572e-06
9.48757e-06
6.23469e-06
-8.88542e-06
9.43615e-06
6.18319e-06
-8.39757e-06
8.44907e-06
6.29844e-06
-6.63185e-06
6.5166e-06
6.4006e-06
-4.59854e-06
4.49639e-06
6.64339e-06
-3.92668e-06
3.68389e-06
6.5749e-06
-6.1802e-06
6.24869e-06
6.5243e-06
-9.34239e-06
9.39299e-06
7.1095e-06
-1.25866e-05
1.20014e-05
7.61184e-06
-1.50881e-05
1.45857e-05
8.00209e-06
-1.72969e-05
1.69067e-05
8.48825e-06
-1.74728e-05
1.69867e-05
8.73153e-06
-1.79775e-05
1.77342e-05
8.85331e-06
-1.8632e-05
1.85102e-05
9.05462e-06
-1.95793e-05
1.9378e-05
9.06901e-06
-2.01988e-05
2.01844e-05
9.39148e-06
-2.08258e-05
2.05034e-05
9.55543e-06
-1.99131e-05
1.97491e-05
9.61257e-06
-1.8877e-05
1.88198e-05
9.81622e-06
-1.65631e-05
1.63595e-05
9.83779e-06
-1.33661e-05
1.33445e-05
9.80472e-06
-1.0245e-05
1.02781e-05
9.95051e-06
-5.63842e-06
5.49263e-06
9.99446e-06
2.88385e-07
-3.32336e-07
9.84921e-06
5.35492e-06
-5.20967e-06
9.61496e-06
8.56161e-06
-8.32736e-06
9.52904e-06
1.15896e-05
-1.15037e-05
9.723e-06
1.55754e-05
-1.57694e-05
9.89755e-06
1.89354e-05
-1.91099e-05
9.98215e-06
2.06443e-05
-2.07289e-05
1.03112e-05
2.24094e-05
-2.27385e-05
1.07675e-05
2.58174e-05
-2.62737e-05
1.10247e-05
2.92112e-05
-2.94684e-05
1.11021e-05
3.09295e-05
-3.1007e-05
1.10145e-05
3.11137e-05
-3.1026e-05
1.07863e-05
3.00417e-05
-2.98135e-05
1.02816e-05
2.7773e-05
-2.72683e-05
9.37864e-06
2.46573e-05
-2.37543e-05
8.51006e-06
2.04257e-05
-1.95571e-05
8.02668e-06
1.56871e-05
-1.52037e-05
7.41721e-06
1.16819e-05
-1.10725e-05
7.00405e-06
8.44778e-06
-8.03461e-06
6.98932e-06
6.92818e-06
-6.91344e-06
7.15576e-06
7.07077e-06
-7.23721e-06
7.26268e-06
8.12955e-06
-8.23648e-06
7.26386e-06
9.17472e-06
-9.17589e-06
7.01043e-06
8.86424e-06
-8.61081e-06
7.21808e-06
8.99121e-06
-9.19886e-06
7.33713e-06
1.0295e-05
-1.04141e-05
7.03046e-06
1.14265e-05
-1.11198e-05
7.36436e-06
1.24176e-05
-1.27515e-05
6.84737e-06
1.76772e-05
-1.71602e-05
5.90635e-06
1.92218e-05
-1.82808e-05
2.52933e-05
-2.46517e-05
5.26474e-06
3.92298e-06
5.29228e-07
4.02921e-06
4.01123e-07
4.2495e-06
3.2102e-08
4.43868e-06
1.1356e-07
4.63768e-06
9.80308e-07
5.07422e-06
1.30805e-06
5.47522e-06
1.63435e-06
6.22136e-06
2.40485e-06
7.09172e-06
1.89563e-06
7.87654e-06
1.58059e-06
8.95144e-06
1.94611e-06
9.8378e-06
1.51947e-06
1.02066e-05
-1.63261e-07
1.08954e-05
-1.84656e-06
1.16331e-05
-3.01024e-06
1.22203e-05
-4.23778e-06
1.30861e-05
-5.37216e-06
1.3783e-05
-6.6092e-06
1.45206e-05
-8.15077e-06
1.53185e-05
-9.26063e-06
1.60742e-05
-1.12134e-05
1.68089e-05
-1.29881e-05
1.71087e-05
-1.43038e-05
1.71682e-05
-1.58924e-05
1.69292e-05
-1.7011e-05
1.63658e-05
-1.74742e-05
1.5926e-05
-1.78049e-05
1.56331e-05
-1.84237e-05
1.5431e-05
-1.83121e-05
1.53235e-05
-1.86129e-05
1.52521e-05
-1.82396e-05
1.52619e-05
-1.77207e-05
1.53791e-05
-1.79384e-05
1.55182e-05
-1.63196e-05
1.55678e-05
-1.5702e-05
1.57645e-05
-1.52934e-05
1.58289e-05
-1.26806e-05
1.56768e-05
-1.15502e-05
1.56022e-05
-9.69534e-06
1.52521e-05
-6.60773e-06
1.47523e-05
-5.42078e-06
1.42759e-05
-2.82257e-06
1.36871e-05
-4.98886e-07
1.31427e-05
3.5296e-07
1.23507e-05
2.52642e-06
1.15144e-05
3.31227e-06
1.10083e-05
2.90941e-06
1.05687e-05
3.74614e-06
9.92064e-06
4.93854e-06
9.474e-06
4.70821e-06
9.24632e-06
4.47882e-06
8.94801e-06
4.7412e-06
8.5764e-06
4.47942e-06
8.42457e-06
5.25339e-06
8.32229e-06
7.54668e-06
7.68473e-06
7.9858e-06
6.77428e-06
5.17697e-06
6.64361e-06
3.10906e-06
7.52374e-06
6.43178e-06
8.63159e-06
1.32033e-05
9.2716e-06
1.87199e-05
9.31272e-06
2.1105e-05
9.03728e-06
2.13563e-05
8.79337e-06
2.10767e-05
8.65236e-06
2.12773e-05
8.49416e-06
2.19697e-05
8.24407e-06
2.32116e-05
8.0806e-06
2.40105e-05
8.08446e-06
2.22626e-05
8.10209e-06
1.81272e-05
8.07968e-06
1.33684e-05
8.05953e-06
8.3797e-06
8.00186e-06
2.80118e-06
7.99898e-06
-3.89484e-06
8.25716e-06
-9.87395e-06
8.52918e-06
-1.26996e-05
8.53521e-06
-1.47181e-05
8.52237e-06
-1.78784e-05
8.70038e-06
-2.1466e-05
8.94054e-06
-2.5356e-05
9.08484e-06
-2.99947e-05
9.11358e-06
-3.20836e-05
9.01103e-06
-2.88992e-05
8.69722e-06
-2.43678e-05
8.41574e-06
-2.08392e-05
8.20616e-06
-1.95021e-05
7.92241e-06
-1.97206e-05
7.82646e-06
-2.05039e-05
7.90791e-06
-2.16944e-05
7.84024e-06
-2.39838e-05
7.80926e-06
-2.59437e-05
8.02454e-06
-2.41586e-05
8.17857e-06
-2.35124e-05
8.1558e-06
-2.37531e-05
8.21082e-06
-2.26593e-05
8.28348e-06
-1.96771e-05
8.84253e-06
-1.52782e-05
9.33453e-06
-1.11255e-05
9.14141e-06
-7.06545e-06
8.65901e-06
-5.08426e-07
8.51348e-06
6.57434e-06
8.48417e-06
9.7875e-06
8.3776e-06
1.25861e-05
8.26239e-06
1.81432e-05
8.25847e-06