/*--------------------------------*- C++ -*----------------------------------*\
| =========                 |                                                 |
| \\      /  F ield         | OpenFOAM: The Open Source CFD Toolbox           |
|  \\    /   O peration     | Version:  2.4.0                                 |
|   \\  /    A nd           | Web:      www.OpenFOAM.org                      |
|    \\/     M anipulation  |                                                 |
\*---------------------------------------------------------------------------*/
FoamFile
{
    version     2.0;
    format      ascii;
    class       surfaceScalarField;
    location    "0.229";
    object      phi;
}
// * * * * * * * * * * * * * * * * * * * * * * * * * * * * * * * * * * * * * //

dimensions      [0 3 -1 0 0 0 0];

internalField   nonuniform List<scalar> 
34880
(
5.48693e-06
7.01307e-06
3.12631e-06
2.36062e-06
2.46945e-06
6.56853e-07
2.22139e-06
2.4806e-07
2.07344e-06
1.47954e-07
1.96624e-06
1.07202e-07
1.88485e-06
8.13908e-08
1.82389e-06
6.09572e-08
1.76871e-06
5.51856e-08
1.73133e-06
3.73737e-08
1.70801e-06
2.33252e-08
1.66479e-06
4.32131e-08
1.64981e-06
1.49865e-08
1.61291e-06
3.68934e-08
1.60004e-06
1.28752e-08
1.58331e-06
1.67295e-08
1.5212e-06
6.21077e-08
1.57184e-06
-5.06437e-08
1.3413e-06
2.30546e-07
-9.6207e-07
2.30337e-06
1.01104e-05
9.40265e-06
7.82989e-06
4.64115e-06
6.70623e-06
1.78052e-06
6.06621e-06
8.8808e-07
5.64344e-06
5.70718e-07
5.34482e-06
4.05823e-07
5.12456e-06
3.01648e-07
4.94452e-06
2.41003e-07
4.80156e-06
1.98142e-07
4.69519e-06
1.43741e-07
4.60519e-06
1.13327e-07
4.52018e-06
1.28226e-07
4.44552e-06
8.96441e-08
4.38045e-06
1.01966e-07
4.3228e-06
7.05242e-08
4.26078e-06
7.87524e-08
4.16316e-06
1.59723e-07
4.24953e-06
-1.37013e-07
3.9061e-06
5.73978e-07
-1.32336e-06
4.26739e-06
1.24267e-05
9.4759e-06
1.1001e-05
6.0669e-06
9.97726e-06
2.80425e-06
9.20458e-06
1.66077e-06
8.61623e-06
1.15907e-06
8.18273e-06
8.39323e-07
7.86317e-06
6.21201e-07
7.58975e-06
5.14427e-07
7.38084e-06
4.07051e-07
7.21785e-06
3.06737e-07
7.06678e-06
2.64395e-07
6.95779e-06
2.37218e-07
6.82333e-06
2.24102e-07
6.74625e-06
1.79042e-07
6.64623e-06
1.70549e-07
6.54747e-06
1.77507e-07
6.44053e-06
2.66667e-07
6.503e-06
-1.99484e-07
6.24938e-06
8.27601e-07
-1.28599e-06
6.212e-06
1.34172e-05
8.55869e-06
1.28835e-05
6.60056e-06
1.23232e-05
3.36456e-06
1.17176e-05
2.26637e-06
1.11307e-05
1.74597e-06
1.06492e-05
1.32084e-06
1.02815e-05
9.88879e-07
9.95282e-06
8.43143e-07
9.69663e-06
6.63236e-07
9.50075e-06
5.02622e-07
9.29595e-06
4.69194e-07
9.17519e-06
3.57974e-07
8.99228e-06
4.07012e-07
8.90382e-06
2.67503e-07
8.78169e-06
2.92681e-07
8.63853e-06
3.20667e-07
8.54929e-06
3.55903e-07
8.5525e-06
-2.02685e-07
8.36532e-06
1.01478e-06
-1.23057e-06
8.30989e-06
1.36016e-05
7.45711e-06
1.3653e-05
6.54917e-06
1.362e-05
3.39756e-06
1.34008e-05
2.48556e-06
1.30144e-05
2.1324e-06
1.26147e-05
1.72052e-06
1.22808e-05
1.3228e-06
1.19602e-05
1.16375e-06
1.16884e-05
9.3502e-07
1.14963e-05
6.9473e-07
1.12577e-05
7.07779e-07
1.11402e-05
4.75441e-07
1.09307e-05
6.16529e-07
1.0828e-05
3.70219e-07
1.07124e-05
4.08237e-07
1.05203e-05
5.12754e-07
1.04669e-05
4.09374e-07
1.04268e-05
-1.62645e-07
1.0226e-05
1.21559e-06
-1.30473e-06
1.03002e-05
1.3504e-05
6.4531e-06
1.3747e-05
6.30622e-06
1.39921e-05
3.15247e-06
1.41401e-05
2.33746e-06
1.40726e-05
2.19994e-06
1.38903e-05
1.90279e-06
1.36946e-05
1.51857e-06
1.3479e-05
1.37936e-06
1.32466e-05
1.16734e-06
1.31086e-05
8.32809e-07
1.28735e-05
9.42803e-07
1.27783e-05
5.70701e-07
1.25791e-05
8.1569e-07
1.24619e-05
4.8739e-07
1.23827e-05
4.87423e-07
1.21546e-05
7.40934e-07
1.21355e-05
4.28414e-07
1.20869e-05
-1.14052e-07
1.18607e-05
1.44184e-06
-9.66946e-07
1.15229e-05
1.33982e-05
5.5549e-06
1.36947e-05
6.00969e-06
1.39289e-05
2.91826e-06
1.42095e-05
2.05693e-06
1.43663e-05
2.04308e-06
1.44049e-05
1.86421e-06
1.43813e-05
1.54216e-06
1.43573e-05
1.40342e-06
1.42282e-05
1.29637e-06
1.42063e-05
8.54696e-07
1.40359e-05
1.11325e-06
1.39892e-05
6.17379e-07
1.38511e-05
9.53775e-07
1.37352e-05
6.03316e-07
1.37149e-05
5.07749e-07
1.34862e-05
9.69582e-07
1.3498e-05
4.16668e-07
1.34585e-05
-7.45919e-08
1.3228e-05
1.67236e-06
-4.52851e-07
1.27139e-05
1.33006e-05
4.7543e-06
1.37258e-05
5.58445e-06
1.38369e-05
2.80721e-06
1.40922e-05
1.8016e-06
1.43018e-05
1.83355e-06
1.44452e-05
1.72081e-06
1.44923e-05
1.495e-06
1.46285e-05
1.26724e-06
1.4599e-05
1.32588e-06
1.46968e-05
7.56865e-07
1.46406e-05
1.16946e-06
1.46638e-05
5.94166e-07
1.46362e-05
9.81366e-07
1.45554e-05
6.84162e-07
1.4609e-05
4.54172e-07
1.44326e-05
1.14592e-06
1.44953e-05
3.53959e-07
1.4461e-05
-4.0302e-08
1.42704e-05
1.86301e-06
1.58449e-07
1.36591e-05
1.31913e-05
4.06298e-06
1.3683e-05
5.09282e-06
1.37817e-05
2.70845e-06
1.40104e-05
1.57289e-06
1.41992e-05
1.64481e-06
1.43744e-05
1.54562e-06
1.44121e-05
1.45723e-06
1.46051e-05
1.07424e-06
1.46311e-05
1.29992e-06
1.476e-05
6.27932e-07
1.47947e-05
1.13479e-06
1.48489e-05
5.39971e-07
1.49161e-05
9.14152e-07
1.48887e-05
7.11512e-07
1.49906e-05
3.52302e-07
1.49085e-05
1.228e-06
1.50449e-05
2.17598e-07
1.5019e-05
-1.44046e-08
1.50153e-05
1.86667e-06
-5.14784e-07
1.56886e-05
1.30866e-05
3.4764e-06
1.35963e-05
4.58311e-06
1.37199e-05
2.58487e-06
1.39517e-05
1.34101e-06
1.41292e-05
1.4673e-06
1.43029e-05
1.37193e-06
1.43297e-05
1.4305e-06
1.45091e-05
8.94844e-07
1.45931e-05
1.21586e-06
1.4693e-05
5.28033e-07
1.47837e-05
1.0441e-06
1.48342e-05
4.89496e-07
1.49193e-05
8.2903e-07
1.49322e-05
6.98614e-07
1.50116e-05
2.72861e-07
1.50064e-05
1.23327e-06
1.51764e-05
4.75444e-08
1.51447e-05
1.73637e-08
1.54189e-05
1.59246e-06
-1.0913e-06
1.59954e-05
1.30177e-05
2.95866e-06
1.35288e-05
4.07207e-06
1.3643e-05
2.47064e-06
1.38702e-05
1.11379e-06
1.40675e-05
1.27003e-06
1.42299e-05
1.20957e-06
1.42621e-05
1.39828e-06
1.44176e-05
7.39284e-07
1.45459e-05
1.0876e-06
1.4602e-05
4.71898e-07
1.47174e-05
9.2872e-07
1.47919e-05
4.15035e-07
1.4863e-05
7.57924e-07
1.49115e-05
6.50074e-07
1.4966e-05
2.18411e-07
1.49982e-05
1.20107e-06
1.50626e-05
-1.68653e-08
1.51056e-05
-2.56599e-08
1.56336e-05
1.06448e-06
-9.8817e-07
1.55305e-05
1.29754e-05
2.48324e-06
1.34641e-05
3.5834e-06
1.35756e-05
2.35915e-06
1.38069e-05
8.82454e-07
1.40046e-05
1.07235e-06
1.41407e-05
1.07344e-06
1.42069e-05
1.33208e-06
1.43605e-05
5.85673e-07
1.44757e-05
9.72479e-07
1.45155e-05
4.3206e-07
1.46415e-05
8.02736e-07
1.47314e-05
3.25114e-07
1.4803e-05
6.86324e-07
1.48423e-05
6.10821e-07
1.49447e-05
1.1599e-07
1.50029e-05
1.1428e-06
1.48971e-05
8.89486e-08
1.51471e-05
-2.75628e-07
1.56049e-05
6.06677e-07
-2.87943e-07
1.49047e-05
1.29299e-05
2.05333e-06
1.33867e-05
3.12661e-06
1.35598e-05
2.18609e-06
1.37771e-05
6.65068e-07
1.39419e-05
9.0762e-07
1.40587e-05
9.5663e-07
1.41556e-05
1.23517e-06
1.43019e-05
4.39321e-07
1.44072e-05
8.67192e-07
1.44713e-05
3.67947e-07
1.45873e-05
6.86788e-07
1.46464e-05
2.66002e-07
1.47377e-05
5.95058e-07
1.47451e-05
6.03384e-07
1.49192e-05
-5.80735e-08
1.49797e-05
1.0823e-06
1.48601e-05
2.08528e-07
1.52347e-05
-6.50185e-07
1.53414e-05
4.99951e-07
2.65625e-07
1.47878e-05
1.28787e-05
1.67465e-06
1.33349e-05
2.67036e-06
1.35891e-05
1.93194e-06
1.37356e-05
5.1852e-07
1.3874e-05
7.69213e-07
1.40057e-05
8.2498e-07
1.41114e-05
1.12944e-06
1.42438e-05
3.06932e-07
1.43735e-05
7.37496e-07
1.44503e-05
2.91179e-07
1.45367e-05
6.00374e-07
1.45492e-05
2.53488e-07
1.4666e-05
4.78243e-07
1.47066e-05
5.62807e-07
1.48731e-05
-2.24576e-07
1.49163e-05
1.03913e-06
1.49499e-05
1.74954e-07
1.51891e-05
-8.8942e-07
1.50152e-05
6.73827e-07
2.09858e-07
1.5071e-05
1.284e-05
1.33469e-06
1.33076e-05
2.20275e-06
1.35784e-05
1.66107e-06
1.36825e-05
4.14444e-07
1.38232e-05
6.28514e-07
1.39747e-05
6.73529e-07
1.40827e-05
1.02141e-06
1.4209e-05
1.80616e-07
1.43401e-05
6.06437e-07
1.44077e-05
2.23576e-07
1.44906e-05
5.17453e-07
1.4492e-05
2.52101e-07
1.46207e-05
3.49549e-07
1.47145e-05
4.68963e-07
1.47816e-05
-2.9169e-07
1.48844e-05
9.36406e-07
1.49981e-05
6.11936e-08
1.49759e-05
-8.67202e-07
1.48649e-05
7.84835e-07
-4.6729e-07
1.5542e-05
1.28142e-05
1.02045e-06
1.3269e-05
1.74798e-06
1.35497e-05
1.38037e-06
1.36584e-05
3.05725e-07
1.38002e-05
4.86738e-07
1.39398e-05
5.33927e-07
1.40507e-05
9.10472e-07
1.41819e-05
4.94101e-08
1.43006e-05
4.87786e-07
1.43668e-05
1.57393e-07
1.44742e-05
4.10066e-07
1.44656e-05
2.60642e-07
1.46013e-05
2.1383e-07
1.46871e-05
3.83257e-07
1.46976e-05
-3.0228e-07
1.48902e-05
7.43875e-07
1.49422e-05
9.20357e-09
1.47816e-05
-7.06595e-07
1.50241e-05
5.42316e-07
-1.50665e-06
1.60634e-05
1.27874e-05
7.33018e-07
1.32321e-05
1.30334e-06
1.35334e-05
1.07907e-06
1.36534e-05
1.85657e-07
1.37749e-05
3.65316e-07
1.38962e-05
4.12619e-07
1.40284e-05
7.78212e-07
1.41644e-05
-8.65591e-08
1.42785e-05
3.73664e-07
1.43412e-05
9.47262e-08
1.44631e-05
2.88129e-07
1.44308e-05
2.92954e-07
1.45851e-05
5.95273e-08
1.46391e-05
3.29255e-07
1.46799e-05
-3.43025e-07
1.4876e-05
5.47715e-07
1.48539e-05
3.12961e-08
1.47711e-05
-6.23812e-07
1.51055e-05
2.07925e-07
-7.90216e-07
1.43891e-05
1.27684e-05
4.64603e-07
1.32151e-05
8.56625e-07
1.35217e-05
7.72492e-07
1.36379e-05
6.94554e-08
1.37454e-05
2.57838e-07
1.38775e-05
2.80462e-07
1.40315e-05
6.24266e-07
1.41549e-05
-2.0996e-07
1.42464e-05
2.82177e-07
1.43147e-05
2.64285e-08
1.44308e-05
1.71982e-07
1.44244e-05
2.99412e-07
1.45693e-05
-8.53698e-08
1.46348e-05
2.63679e-07
1.46576e-05
-3.65739e-07
1.48306e-05
3.74682e-07
1.47926e-05
6.93265e-08
1.49112e-05
-7.42474e-07
1.52777e-05
-1.58526e-07
-1.03901e-06
1.55265e-05
1.27596e-05
2.05045e-07
1.32006e-05
4.15602e-07
1.35062e-05
4.66875e-07
1.36281e-05
-5.24385e-08
1.37369e-05
1.49037e-07
1.38711e-05
1.46222e-07
1.40324e-05
4.63011e-07
1.41325e-05
-3.10084e-07
1.42199e-05
1.94794e-07
1.42976e-05
-5.12585e-08
1.44203e-05
4.92974e-08
1.44363e-05
2.83422e-07
1.45581e-05
-2.07168e-07
1.46245e-05
1.97265e-07
1.46271e-05
-3.68324e-07
1.47616e-05
2.40151e-07
1.48507e-05
-1.98075e-08
1.49638e-05
-8.55505e-07
1.51124e-05
-3.07144e-07
-1.10898e-06
1.51823e-05
1.27505e-05
-4.54742e-08
1.31883e-05
-2.21751e-08
1.35059e-05
1.49274e-07
1.36389e-05
-1.85491e-07
1.3731e-05
5.69992e-08
1.38497e-05
2.75086e-08
1.40249e-05
2.87842e-07
1.41275e-05
-4.12702e-07
1.42195e-05
1.02767e-07
1.43002e-05
-1.31991e-07
1.44112e-05
-6.16999e-08
1.44434e-05
2.51317e-07
1.45336e-05
-2.97443e-07
1.46204e-05
1.10526e-07
1.45932e-05
-3.41132e-07
1.47717e-05
6.15845e-08
1.48933e-05
-1.41328e-07
1.49166e-05
-8.78832e-07
1.50152e-05
-4.0572e-07
-1.13413e-06
1.50403e-05
1.27473e-05
-2.92744e-07
1.31936e-05
-4.68502e-07
1.35178e-05
-1.74964e-07
1.36404e-05
-3.08009e-07
1.37128e-05
-1.54055e-08
1.3839e-05
-9.87566e-08
1.40429e-05
8.39222e-08
1.41333e-05
-5.03043e-07
1.42213e-05
1.47336e-08
1.42965e-05
-2.07183e-07
1.4395e-05
-1.60165e-07
1.44484e-05
1.97871e-07
1.45353e-05
-3.84318e-07
1.46113e-05
3.44756e-08
1.46023e-05
-3.32097e-07
1.48027e-05
-1.38759e-07
1.48781e-05
-2.16797e-07
1.48432e-05
-8.43892e-07
1.50042e-05
-5.66764e-07
-1.3026e-06
1.51727e-05
1.2757e-05
-5.49752e-07
1.32055e-05
-9.16974e-07
1.35229e-05
-4.92343e-07
1.36282e-05
-4.13343e-07
1.37111e-05
-9.82742e-08
1.38631e-05
-2.50799e-07
1.40606e-05
-1.13562e-07
1.41211e-05
-5.63554e-07
1.42252e-05
-8.93403e-08
1.42995e-05
-2.81487e-07
1.43964e-05
-2.57048e-07
1.44696e-05
1.24666e-07
1.45456e-05
-4.60322e-07
1.45881e-05
-8.05298e-09
1.46519e-05
-3.95867e-07
1.47861e-05
-2.73036e-07
1.48492e-05
-2.79885e-07
1.48274e-05
-8.22042e-07
1.4885e-05
-6.24351e-07
-2.65595e-07
1.3848e-05
1.27717e-05
-8.2146e-07
1.32161e-05
-1.36139e-06
1.353e-05
-8.06251e-07
1.36265e-05
-5.09839e-07
1.37326e-05
-2.04343e-07
1.38917e-05
-4.09867e-07
1.40524e-05
-2.74307e-07
1.41255e-05
-6.36658e-07
1.42423e-05
-2.06091e-07
1.43247e-05
-3.63963e-07
1.44057e-05
-3.37991e-07
1.44995e-05
3.08464e-08
1.45205e-05
-4.81299e-07
1.46216e-05
-1.09137e-07
1.46661e-05
-4.40413e-07
1.47771e-05
-3.83984e-07
1.48337e-05
-3.36556e-07
1.49182e-05
-9.06547e-07
1.50634e-05
-7.69528e-07
-5.26141e-07
1.5324e-05
1.27896e-05
-1.11107e-06
1.32357e-05
-1.80751e-06
1.35465e-05
-1.11707e-06
1.36341e-05
-5.97344e-07
1.37623e-05
-3.32626e-07
1.39023e-05
-5.49865e-07
1.4054e-05
-4.25976e-07
1.41593e-05
-7.41932e-07
1.42685e-05
-3.15315e-07
1.43411e-05
-4.36565e-07
1.44292e-05
-4.26084e-07
1.45098e-05
-4.97525e-08
1.45285e-05
-5.00047e-07
1.4664e-05
-2.44549e-07
1.46808e-05
-4.5722e-07
1.47705e-05
-4.7372e-07
1.48672e-05
-4.33288e-07
1.49708e-05
-1.01012e-06
1.50107e-05
-8.09384e-07
-8.00557e-07
1.52851e-05
1.28144e-05
-1.42544e-06
1.32661e-05
-2.25922e-06
1.3564e-05
-1.41496e-06
1.36495e-05
-6.82836e-07
1.37934e-05
-4.76533e-07
1.39145e-05
-6.70986e-07
1.40828e-05
-5.94331e-07
1.42036e-05
-8.62737e-07
1.42784e-05
-3.9011e-07
1.43699e-05
-5.28025e-07
1.44529e-05
-5.09072e-07
1.45258e-05
-1.22621e-07
1.45687e-05
-5.42941e-07
1.46947e-05
-3.70553e-07
1.46866e-05
-4.4913e-07
1.48027e-05
-5.89812e-07
1.49051e-05
-5.35759e-07
1.49717e-05
-1.07666e-06
1.50486e-05
-8.86325e-07
-1.14901e-06
1.5397e-05
1.28466e-05
-1.77202e-06
1.33007e-05
-2.71333e-06
1.35864e-05
-1.70068e-06
1.36755e-05
-7.71891e-07
1.38248e-05
-6.25883e-07
1.39422e-05
-7.88403e-07
1.41284e-05
-7.80496e-07
1.4231e-05
-9.65332e-07
1.42943e-05
-4.53437e-07
1.44135e-05
-6.47249e-07
1.44845e-05
-5.8003e-07
1.45561e-05
-1.94238e-07
1.46158e-05
-6.02662e-07
1.47011e-05
-4.55822e-07
1.47274e-05
-4.75457e-07
1.48431e-05
-7.05439e-07
1.49369e-05
-6.29604e-07
1.49792e-05
-1.11897e-06
1.51438e-05
-1.05087e-06
-1.54114e-06
1.55359e-05
1.28861e-05
-2.15813e-06
1.33429e-05
-3.17016e-06
1.36139e-05
-1.97159e-06
1.37051e-05
-8.63152e-07
1.38577e-05
-7.78468e-07
1.39871e-05
-9.1783e-07
1.41687e-05
-9.621e-07
1.42564e-05
-1.05302e-06
1.43415e-05
-5.38489e-07
1.4465e-05
-7.70811e-07
1.45214e-05
-6.36407e-07
1.4597e-05
-2.69798e-07
1.46516e-05
-6.57327e-07
1.47173e-05
-5.21477e-07
1.4792e-05
-5.50158e-07
1.48719e-05
-7.85393e-07
1.49839e-05
-7.41548e-07
1.50111e-05
-1.14616e-06
1.50177e-05
-1.0575e-06
-5.40169e-07
1.40167e-05
1.29335e-05
-2.59159e-06
1.33939e-05
-3.6306e-06
1.3607e-05
-2.18473e-06
1.37333e-05
-9.89399e-07
1.39005e-05
-9.45651e-07
1.40451e-05
-1.06244e-06
1.42117e-05
-1.12871e-06
1.43127e-05
-1.15401e-06
1.44029e-05
-6.2873e-07
1.45124e-05
-8.80317e-07
1.45561e-05
-6.80113e-07
1.46434e-05
-3.57056e-07
1.46728e-05
-6.86688e-07
1.47821e-05
-6.30866e-07
1.48332e-05
-6.01197e-07
1.49314e-05
-8.83579e-07
1.50102e-05
-8.20422e-07
1.50956e-05
-1.23149e-06
1.522e-05
-1.18194e-06
-9.37054e-07
1.56169e-05
1.29902e-05
-3.0818e-06
1.34477e-05
-4.08806e-06
1.36085e-05
-2.34561e-06
1.37638e-05
-1.14469e-06
1.39644e-05
-1.14617e-06
1.41148e-05
-1.21293e-06
1.42777e-05
-1.29158e-06
1.43802e-05
-1.25647e-06
1.44586e-05
-7.07156e-07
1.45431e-05
-9.64825e-07
1.45984e-05
-7.35454e-07
1.46762e-05
-4.34815e-07
1.47285e-05
-7.38991e-07
1.48449e-05
-7.4722e-07
1.48902e-05
-6.46558e-07
1.4993e-05
-9.86328e-07
1.50462e-05
-8.73673e-07
1.51639e-05
-1.34916e-06
1.52396e-05
-1.25762e-06
-1.23815e-06
1.55407e-05
1.30502e-05
-3.63201e-06
1.34969e-05
-4.53472e-06
1.36264e-05
-2.47515e-06
1.38143e-05
-1.33259e-06
1.40511e-05
-1.38292e-06
1.42004e-05
-1.36227e-06
1.43548e-05
-1.44597e-06
1.44388e-05
-1.34045e-06
1.44977e-05
-7.66088e-07
1.45723e-05
-1.03942e-06
1.46473e-05
-8.10472e-07
1.47221e-05
-5.09619e-07
1.48105e-05
-8.27327e-07
1.49061e-05
-8.4282e-07
1.49685e-05
-7.08979e-07
1.50457e-05
-1.06355e-06
1.50935e-05
-9.21517e-07
1.51914e-05
-1.44698e-06
1.52601e-05
-1.32638e-06
-1.55131e-06
1.55733e-05
1.31052e-05
-4.23723e-06
1.35457e-05
-4.97516e-06
1.36662e-05
-2.59569e-06
1.39026e-05
-1.56901e-06
1.41568e-05
-1.63713e-06
1.42922e-05
-1.4976e-06
1.44222e-05
-1.576e-06
1.44832e-05
-1.40144e-06
1.45387e-05
-8.21637e-07
1.46223e-05
-1.12303e-06
1.47153e-05
-9.03401e-07
1.47994e-05
-5.93784e-07
1.48948e-05
-9.22731e-07
1.49676e-05
-9.15577e-07
1.5028e-05
-7.69354e-07
1.50661e-05
-1.10167e-06
1.51049e-05
-9.60302e-07
1.51524e-05
-1.49449e-06
1.51983e-05
-1.37227e-06
-1.85415e-06
1.55011e-05
1.31626e-05
-4.89982e-06
1.36086e-05
-5.4212e-06
1.37467e-05
-2.73378e-06
1.40224e-05
-1.84465e-06
1.42566e-05
-1.87138e-06
1.43739e-05
-1.61486e-06
1.44811e-05
-1.68319e-06
1.453e-05
-1.45035e-06
1.46064e-05
-8.98058e-07
1.46926e-05
-1.20922e-06
1.47748e-05
-9.85633e-07
1.48469e-05
-6.65806e-07
1.49035e-05
-9.79414e-07
1.49281e-05
-9.40155e-07
1.49515e-05
-7.92727e-07
1.493e-05
-1.08016e-06
1.49288e-05
-9.5912e-07
1.48689e-05
-1.43456e-06
1.48529e-05
-1.35634e-06
-2.10017e-06
1.50989e-05
1.32411e-05
-5.64095e-06
1.36836e-05
-5.86371e-06
1.38544e-05
-2.90453e-06
1.41398e-05
-2.1301e-06
1.43382e-05
-2.06971e-06
1.44517e-05
-1.7284e-06
1.45273e-05
-1.75879e-06
1.45511e-05
-1.47416e-06
1.4621e-05
-9.67931e-07
1.4637e-05
-1.22519e-06
1.46422e-05
-9.90887e-07
1.46554e-05
-6.78972e-07
1.46181e-05
-9.4216e-07
1.45615e-05
-8.83576e-07
1.45156e-05
-7.46804e-07
1.44139e-05
-9.78446e-07
1.43418e-05
-8.86996e-07
1.41787e-05
-1.27151e-06
1.40159e-05
-1.19352e-06
-1.34674e-06
1.32625e-05
1.33478e-05
-6.48874e-06
1.37013e-05
-6.21724e-06
1.3967e-05
-3.17024e-06
1.42389e-05
-2.40193e-06
1.4371e-05
-2.20187e-06
1.44228e-05
-1.78019e-06
1.43826e-05
-1.71862e-06
1.43e-05
-1.39156e-06
1.42678e-05
-9.35695e-07
1.41461e-05
-1.10346e-06
1.40387e-05
-8.83566e-07
1.39667e-05
-6.06958e-07
1.38315e-05
-8.06946e-07
1.37038e-05
-7.55847e-07
1.35963e-05
-6.39356e-07
1.34389e-05
-8.20971e-07
1.33064e-05
-7.5452e-07
1.30976e-05
-1.0627e-06
1.29402e-05
-1.03615e-06
-1.34855e-06
1.2942e-05
1.34785e-05
-7.46727e-06
1.37666e-05
-6.50531e-06
1.40123e-05
-3.41591e-06
1.41463e-05
-2.53592e-06
1.40654e-05
-2.12106e-06
1.39137e-05
-1.62847e-06
1.36743e-05
-1.47918e-06
1.34416e-05
-1.15889e-06
1.32825e-05
-7.76556e-07
1.30543e-05
-8.753e-07
1.28735e-05
-7.02725e-07
1.27459e-05
-4.7933e-07
1.25606e-05
-6.21659e-07
1.23993e-05
-5.94567e-07
1.22618e-05
-5.01857e-07
1.20784e-05
-6.37569e-07
1.19182e-05
-5.94375e-07
1.16884e-05
-8.32853e-07
1.14685e-05
-8.16259e-07
-8.68943e-07
1.09889e-05
1.35911e-05
-8.55835e-06
1.36696e-05
-6.58388e-06
1.36275e-05
-3.37376e-06
1.33968e-05
-2.30525e-06
1.30054e-05
-1.72964e-06
1.26364e-05
-1.25948e-06
1.22525e-05
-1.09531e-06
1.19374e-05
-8.43737e-07
1.17153e-05
-5.54486e-07
1.14516e-05
-6.11619e-07
1.1251e-05
-5.02061e-07
1.11051e-05
-3.33429e-07
1.09112e-05
-4.27777e-07
1.07454e-05
-4.28747e-07
1.06001e-05
-3.56581e-07
1.04138e-05
-4.51318e-07
1.0248e-05
-4.28578e-07
1.00142e-05
-5.99019e-07
9.80471e-06
-6.06764e-07
-5.43216e-07
9.47899e-06
1.34142e-05
-9.47253e-06
1.28945e-05
-6.06425e-06
1.23255e-05
-2.8047e-06
1.17096e-05
-1.6894e-06
1.11245e-05
-1.14446e-06
1.06673e-05
-8.02313e-07
1.02544e-05
-6.82408e-07
9.93797e-06
-5.2732e-07
9.71423e-06
-3.30745e-07
9.46772e-06
-3.65116e-07
9.28081e-06
-3.15146e-07
9.14334e-06
-1.95963e-07
8.96927e-06
-2.53705e-07
8.81607e-06
-2.75543e-07
8.67946e-06
-2.19972e-07
8.50972e-06
-2.81576e-07
8.35245e-06
-2.7131e-07
8.13767e-06
-3.84238e-07
7.93235e-06
-4.01445e-07
-3.19286e-07
7.70842e-06
1.24274e-05
-9.39997e-06
1.10067e-05
-4.64354e-06
9.97812e-06
-1.77609e-06
9.19552e-06
-9.06792e-07
8.61248e-06
-5.61426e-07
8.19648e-06
-3.86308e-07
7.8421e-06
-3.28025e-07
7.57629e-06
-2.61509e-07
7.39314e-06
-1.47602e-07
7.19708e-06
-1.69057e-07
7.0429e-06
-1.60969e-07
6.93354e-06
-8.65971e-08
6.79724e-06
-1.17403e-07
6.66717e-06
-1.45476e-07
6.5537e-06
-1.06501e-07
6.41413e-06
-1.42002e-07
6.27936e-06
-1.3654e-07
6.09772e-06
-2.02606e-07
5.9096e-06
-2.1332e-07
-1.43433e-07
5.73375e-06
1.01119e-05
-7.01191e-06
7.83129e-06
-2.36289e-06
6.70821e-06
-6.53004e-07
6.0578e-06
-2.56382e-07
5.64073e-06
-1.44364e-07
5.35451e-06
-1.0008e-07
5.11317e-06
-8.66932e-08
4.92795e-06
-7.62827e-08
4.81307e-06
-3.27267e-08
4.68548e-06
-4.14629e-08
4.57567e-06
-5.11579e-08
4.50813e-06
-1.90559e-08
4.41962e-06
-2.8891e-08
4.32204e-06
-4.79e-08
4.24476e-06
-2.92215e-08
4.14534e-06
-4.25818e-08
4.04836e-06
-3.95663e-08
3.91183e-06
-6.6071e-08
3.7659e-06
-6.73929e-08
-3.77572e-08
3.66023e-06
5.48809e-06
3.1252e-06
2.4722e-06
2.21581e-06
2.07145e-06
1.97137e-06
1.88468e-06
1.80839e-06
1.77567e-06
1.73421e-06
1.68305e-06
1.66399e-06
1.6351e-06
1.5872e-06
1.55798e-06
1.5154e-06
1.47583e-06
1.40976e-06
1.34237e-06
1.30461e-06
2.62178e-06
3.9198e-08
-3.57612e-07
2.51677e-06
-9.00172e-07
1.00518e-06
2.46284e-06
-2.18328e-06
2.23721e-06
2.09477e-06
-1.38202e-06
1.75009e-06
2.03818e-06
-1.37222e-06
1.42881e-06
3.16569e-06
-5.75803e-07
-5.517e-07
4.384e-06
1.80285e-06
-3.02117e-06
5.50132e-06
4.36761e-06
-5.48493e-06
6.63473e-06
4.91684e-06
-6.05025e-06
7.41659e-06
6.10003e-06
-6.88189e-06
8.20893e-06
6.26524e-06
-7.05758e-06
8.49428e-06
6.36519e-06
-6.65054e-06
9.26175e-06
6.24548e-06
-7.01295e-06
9.95383e-06
4.50457e-06
-5.19664e-06
1.06878e-05
3.59138e-06
-4.32538e-06
1.14581e-05
2.72892e-06
-3.49918e-06
1.2033e-05
1.55085e-06
-2.12573e-06
1.25597e-05
-1.34367e-06
8.1698e-07
1.30128e-05
-2.93853e-06
2.48535e-06
1.3308e-05
-4.51083e-06
4.21565e-06
1.29726e-05
-6.37782e-06
6.71329e-06
1.2653e-05
-7.08459e-06
7.40415e-06
1.30244e-05
-8.179e-06
7.80766e-06
1.39951e-05
-9.98832e-06
9.01754e-06
1.53173e-05
-1.32646e-05
1.19424e-05
1.6225e-05
-1.72211e-05
1.63135e-05
1.63367e-05
-1.93063e-05
1.91945e-05
1.59313e-05
-2.06201e-05
2.10254e-05
1.52023e-05
-2.08628e-05
2.15918e-05
1.44431e-05
-2.00813e-05
2.08404e-05
1.39484e-05
-2.00991e-05
2.05938e-05
1.34653e-05
-2.00166e-05
2.04996e-05
1.29752e-05
-1.91269e-05
1.96171e-05
1.28864e-05
-1.91301e-05
1.92189e-05
1.28804e-05
-1.94193e-05
1.94253e-05
1.25094e-05
-1.95011e-05
1.98721e-05
1.2324e-05
-1.89039e-05
1.90892e-05
1.25465e-05
-1.8595e-05
1.83725e-05
1.29293e-05
-2.00983e-05
1.97155e-05
1.33617e-05
-1.99288e-05
1.94964e-05
1.36009e-05
-1.93195e-05
1.90802e-05
1.39706e-05
-1.90327e-05
1.86631e-05
1.43575e-05
-1.74462e-05
1.70593e-05
1.4591e-05
-1.63625e-05
1.6129e-05
1.49836e-05
-1.44084e-05
1.40159e-05
1.52051e-05
-1.16185e-05
1.13969e-05
1.51821e-05
-9.51191e-06
9.53494e-06
1.51375e-05
-6.32138e-06
6.36598e-06
1.48235e-05
-2.98078e-06
3.29477e-06
1.42794e-05
-4.79658e-07
1.02378e-06
1.38273e-05
2.2053e-06
-1.75327e-06
1.34166e-05
4.81912e-06
-4.40841e-06
1.27541e-05
7.07671e-06
-6.41422e-06
1.18448e-05
8.88508e-06
-7.97577e-06
1.0901e-05
9.28412e-06
-8.34032e-06
1.0007e-05
7.93032e-06
-7.03629e-06
9.22251e-06
7.26928e-06
-6.48479e-06
8.58712e-06
7.27785e-06
-6.64246e-06
8.15065e-06
5.72934e-06
-5.29287e-06
7.77544e-06
3.51626e-06
-3.14105e-06
7.35067e-06
2.11381e-06
-1.68904e-06
6.94499e-06
2.50841e-06
-2.10273e-06
6.5248e-06
3.62091e-06
-3.20072e-06
6.11903e-06
4.83324e-06
-4.42747e-06
5.90363e-06
7.4939e-06
-7.2785e-06
5.87214e-06
1.13232e-05
-1.12917e-05
6.05924e-06
1.51388e-05
-1.53259e-05
6.50033e-06
1.86928e-05
-1.91339e-05
7.08337e-06
2.12354e-05
-2.18184e-05
7.53893e-06
2.27007e-05
-2.31562e-05
7.78667e-06
2.34894e-05
-2.37372e-05
8.15917e-06
2.29178e-05
-2.32903e-05
8.64802e-06
2.16965e-05
-2.21854e-05
9.0997e-06
2.18152e-05
-2.22669e-05
9.47983e-06
2.30326e-05
-2.34127e-05
9.82498e-06
2.24085e-05
-2.27536e-05
9.804e-06
2.0539e-05
-2.0518e-05
9.56559e-06
1.83032e-05
-1.80648e-05
9.65034e-06
1.37476e-05
-1.38323e-05
9.8119e-06
1.00099e-05
-1.01715e-05
9.71833e-06
9.3172e-06
-9.22364e-06
9.6676e-06
7.78328e-06
-7.73256e-06
9.85232e-06
2.7048e-06
-2.88952e-06
1.0138e-05
-4.24519e-06
3.95954e-06
1.0411e-05
-9.99339e-06
9.72031e-06
1.05847e-05
-1.47477e-05
1.45741e-05
1.05868e-05
-2.07959e-05
2.07938e-05
1.04116e-05
-2.59041e-05
2.60793e-05
1.00614e-05
-2.76963e-05
2.80464e-05
9.66808e-06
-2.85691e-05
2.89625e-05
9.29735e-06
-2.92982e-05
2.96689e-05
8.82924e-06
-2.81916e-05
2.86597e-05
8.24049e-06
-2.45203e-05
2.5109e-05
7.64035e-06
-1.94598e-05
2.00599e-05
7.24921e-06
-1.64531e-05
1.68442e-05
7.33585e-06
-1.67599e-05
1.66732e-05
7.7093e-06
-1.81195e-05
1.7746e-05
8.18895e-06
-1.83345e-05
1.78549e-05
8.73612e-06
-1.8111e-05
1.75638e-05
9.19714e-06
-1.80378e-05
1.75768e-05
9.66039e-06
-1.82784e-05
1.78152e-05
1.02309e-05
-1.93324e-05
1.87619e-05
1.08119e-05
-1.98697e-05
1.92887e-05
1.12665e-05
-1.84232e-05
1.79685e-05
1.14649e-05
-1.67155e-05
1.65172e-05
1.14259e-05
-1.66494e-05
1.66883e-05
1.13184e-05
-1.6416e-05
1.65236e-05
1.12411e-05
-1.35902e-05
1.36674e-05
1.12965e-05
-9.47989e-06
9.42457e-06
1.15834e-05
-6.31258e-06
6.02564e-06
1.19948e-05
-3.52888e-06
3.11743e-06
1.21539e-05
2.61699e-07
-4.20706e-07
1.19497e-05
3.98608e-06
-3.78192e-06
1.16746e-05
7.50055e-06
-7.2255e-06
1.16096e-05
1.12586e-05
-1.11935e-05
1.15518e-05
1.48612e-05
-1.48034e-05
1.13329e-05
1.84458e-05
-1.8227e-05
1.09752e-05
2.01843e-05
-1.98266e-05
1.06419e-05
1.98563e-05
-1.9523e-05
1.02669e-05
2.0534e-05
-2.0159e-05
1.01415e-05
2.06612e-05
-2.05358e-05
1.00398e-05
2.08244e-05
-2.07227e-05
1.00462e-05
2.3047e-05
-2.30535e-05
1.00569e-05
2.41483e-05
-2.4159e-05
9.92634e-06
2.61429e-05
-2.60123e-05
9.52485e-06
2.71803e-05
-2.67788e-05
8.837e-06
2.27037e-05
-2.20158e-05
8.40629e-06
1.66586e-05
-1.62279e-05
8.71833e-06
1.68924e-05
-1.72044e-05
9.20703e-06
2.18705e-05
-2.23592e-05
9.26568e-06
2.58197e-05
-2.58784e-05
8.9006e-06
2.62759e-05
-2.59109e-05
8.36379e-06
2.48155e-05
-2.42787e-05
7.93874e-06
2.2175e-05
-2.17499e-05
7.69517e-06
1.9479e-05
-1.92354e-05
7.57507e-06
1.64102e-05
-1.62901e-05
7.70868e-06
1.27961e-05
-1.29297e-05
7.80968e-06
8.72744e-06
-8.82844e-06
7.74685e-06
5.51851e-06
-5.45568e-06
7.56374e-06
1.88022e-06
-1.69711e-06
7.50158e-06
-3.5983e-06
3.66046e-06
7.83218e-06
-7.97353e-06
7.64293e-06
8.02507e-06
-1.00719e-05
9.87906e-06
7.98176e-06
-9.31986e-06
9.36318e-06
8.1725e-06
-1.11415e-05
1.09508e-05
8.36694e-06
-1.46731e-05
1.44787e-05
8.68685e-06
-1.88616e-05
1.85417e-05
9.06912e-06
-2.12769e-05
2.08946e-05
9.00548e-06
-2.26025e-05
2.26661e-05
9.07718e-06
-2.03155e-05
2.02438e-05
9.07079e-06
-2.0193e-05
2.01994e-05
9.23273e-06
-1.63534e-05
1.61914e-05
9.07674e-06
-1.59212e-05
1.60772e-05
9.11498e-06
-1.33102e-05
1.32719e-05
8.58053e-06
-1.14514e-05
1.19858e-05
8.48363e-06
-9.2765e-06
9.3734e-06
8.37824e-06
-8.63582e-06
8.74121e-06
8.12443e-06
-6.69267e-06
6.94648e-06
7.90026e-06
-8.67734e-06
8.90152e-06
7.55411e-06
-5.05696e-06
5.40311e-06
7.45375e-06
-5.94321e-06
6.04357e-06
7.3811e-06
-5.272e-06
5.34465e-06
7.84125e-06
-8.16049e-06
7.70034e-06
7.7097e-06
-6.18253e-06
6.31407e-06
8.00212e-06
-7.77507e-06
7.48266e-06
8.19582e-06
-8.62818e-06
8.43447e-06
8.83331e-06
-8.12396e-06
7.48647e-06
9.50192e-06
-6.45687e-06
5.78826e-06
9.74486e-06
-6.1035e-06
5.86056e-06
1.00383e-05
-7.10904e-06
6.81564e-06
1.06376e-05
-6.46007e-06
5.86077e-06
1.06831e-05
-4.64932e-06
4.60383e-06
1.06553e-05
-4.70352e-06
4.73126e-06
1.12522e-05
-3.68745e-06
3.09055e-06
1.18267e-05
-1.28001e-06
7.05509e-07
1.23225e-05
3.41641e-07
-8.37457e-07
1.31979e-05
9.52729e-07
-1.82808e-06
1.40997e-05
1.84254e-06
-2.74438e-06
1.49165e-05
2.65852e-06
-3.47526e-06
1.54281e-05
4.7631e-06
-5.27469e-06
1.55187e-05
7.24449e-06
-7.33515e-06
1.4856e-05
8.27758e-06
-7.61484e-06
1.39684e-05
6.7502e-06
-5.86264e-06
1.33064e-05
5.86865e-06
-5.20669e-06
1.32815e-05
7.69231e-06
-7.66738e-06
1.32621e-05
1.15706e-05
-1.15512e-05
1.29394e-05
1.6122e-05
-1.57993e-05
1.236e-05
1.91632e-05
-1.85838e-05
1.15117e-05
2.05681e-05
-1.97198e-05
1.08244e-05
2.14806e-05
-2.07933e-05
1.02515e-05
2.20504e-05
-2.14775e-05
9.66092e-06
2.24861e-05
-2.18955e-05
9.10039e-06
2.23095e-05
-2.1749e-05
8.55974e-06
2.32965e-05
-2.27559e-05
7.70861e-06
2.37242e-05
-2.2873e-05
6.78378e-06
2.19959e-05
-2.1071e-05
6.25223e-06
2.0888e-05
-2.03565e-05
5.60852e-06
2.23777e-05
-2.1734e-05
5.21734e-06
2.4108e-05
-2.37169e-05
3.25096e-05
-3.20052e-05
4.71291e-06
4.75779e-06
-4.51204e-07
4.64433e-06
-7.86706e-07
4.52754e-06
-2.06649e-06
4.5849e-06
-1.43938e-06
4.06631e-06
-8.53634e-07
3.95389e-06
-4.63382e-07
4.4463e-06
1.31044e-06
5.71562e-06
3.09829e-06
7.13821e-06
3.49425e-06
8.22053e-06
5.01772e-06
9.10531e-06
5.38046e-06
9.56959e-06
5.9009e-06
1.03647e-05
5.45038e-06
1.08903e-05
3.97892e-06
1.15411e-05
2.94057e-06
1.20257e-05
2.24439e-06
1.25247e-05
1.05178e-06
1.27948e-05
-1.61372e-06
1.27562e-05
-2.89992e-06
1.2855e-05
-4.60963e-06
1.28398e-05
-6.36261e-06
1.30692e-05
-7.31405e-06
1.39428e-05
-9.05262e-06
1.51457e-05
-1.11912e-05
1.64349e-05
-1.45538e-05
1.69677e-05
-1.77539e-05
1.66501e-05
-1.89887e-05
1.60083e-05
-1.99783e-05
1.52247e-05
-2.00791e-05
1.45506e-05
-1.94073e-05
1.41172e-05
-1.96656e-05
1.36075e-05
-1.95068e-05
1.31597e-05
-1.86791e-05
1.30582e-05
-1.90287e-05
1.28428e-05
-1.92039e-05
1.23545e-05
-1.90129e-05
1.22574e-05
-1.88068e-05
1.26227e-05
-1.89604e-05
1.29545e-05
-2.04301e-05
1.33011e-05
-2.02754e-05
1.35324e-05
-1.95507e-05
1.38929e-05
-1.93932e-05
1.43461e-05
-1.78993e-05
1.45888e-05
-1.66053e-05
1.4958e-05
-1.47776e-05
1.52597e-05
-1.19202e-05
1.51966e-05
-9.4488e-06
1.50986e-05
-6.2234e-06
1.48229e-05
-2.70509e-06
1.42108e-05
1.32484e-07
1.36044e-05
2.81165e-06
1.31378e-05
5.2857e-06
1.25348e-05
7.67974e-06
1.17136e-05
9.70626e-06
1.079e-05
1.02077e-05
9.85664e-06
8.86372e-06
9.06711e-06
8.05881e-06
8.4454e-06
7.89956e-06
7.98734e-06
6.1874e-06
7.60663e-06
3.89697e-06
7.18429e-06
2.53615e-06
6.79565e-06
2.89706e-06
6.40945e-06
4.00711e-06
5.99777e-06
5.24492e-06
5.80746e-06
7.68421e-06
5.86306e-06
1.12676e-05
6.0916e-06
1.49102e-05
6.55312e-06
1.82313e-05
7.18199e-06
2.06065e-05
7.6662e-06
2.22165e-05
7.96443e-06
2.31912e-05
8.38415e-06
2.24981e-05
8.90011e-06
2.11806e-05
9.40662e-06
2.13087e-05
9.88974e-06
2.25495e-05
1.02976e-05
2.20006e-05
1.03022e-05
2.05343e-05
1.01237e-05
1.84817e-05
1.02001e-05
1.36712e-05
1.0238e-05
9.97203e-06
1.01576e-05
9.39765e-06
1.02585e-05
7.68236e-06
1.05492e-05
2.41413e-06
1.08106e-05
-4.50662e-06
1.09915e-05
-1.01744e-05
1.10966e-05
-1.48528e-05
1.10429e-05
-2.07422e-05
1.0792e-05
-2.56533e-05
1.03749e-05
-2.72791e-05
9.93276e-06
-2.8127e-05
9.51498e-06
-2.88804e-05
8.99644e-06
-2.76731e-05
8.34164e-06
-2.38655e-05
7.6714e-06
-1.87896e-05
7.26105e-06
-1.60427e-05
7.31662e-06
-1.68154e-05
7.63924e-06
-1.84421e-05
8.1399e-06
-1.88352e-05
8.67544e-06
-1.86465e-05
9.09741e-06
-1.84598e-05
9.5266e-06
-1.87076e-05
1.00511e-05
-1.98569e-05
1.05721e-05
-2.03907e-05
1.10202e-05
-1.88712e-05
1.12026e-05
-1.68979e-05
1.11449e-05
-1.65917e-05