/*--------------------------------*- C++ -*----------------------------------*\
| =========                 |                                                 |
| \\      /  F ield         | OpenFOAM: The Open Source CFD Toolbox           |
|  \\    /   O peration     | Version:  2.4.0                                 |
|   \\  /    A nd           | Web:      www.OpenFOAM.org                      |
|    \\/     M anipulation  |                                                 |
\*---------------------------------------------------------------------------*/
FoamFile
{
    version     2.0;
    format      ascii;
    class       volScalarField;
    location    "0.272";
    object      k_0;
}
// * * * * * * * * * * * * * * * * * * * * * * * * * * * * * * * * * * * * * //

dimensions      [0 2 -2 0 0 0 0];

internalField   nonuniform List<scalar> 
17600
(
9.2886
7.41132
5.11978
3.93731
3.33756
2.95409
2.68844
2.48726
2.30964
2.22386
2.09234
2.05079
1.94676
1.9307
1.82818
1.81816
1.75418
1.70415
1.63389
1.60283
4.50654
6.2083
5.83736
5.05381
4.41263
3.93528
3.59217
3.32926
3.09368
2.97322
2.78821
2.73151
2.59642
2.56473
2.44786
2.42963
2.35428
2.30855
2.23934
2.24172
1.32289
3.28843
3.98941
3.96092
3.76558
3.46655
3.21996
3.02535
2.83161
2.7279
2.5689
2.51573
2.39917
2.36637
2.27246
2.25197
2.18648
2.15471
2.12259
2.06555
0.207773
1.20207
1.91425
2.32819
2.51289
2.51408
2.47312
2.4059
2.3029
2.24437
2.14665
2.10938
2.03051
2.00653
1.94311
1.92591
1.8863
1.84532
1.8545
1.80516
0.0260342
0.278937
0.630365
0.964221
1.24176
1.43421
1.53322
1.60778
1.62244
1.62122
1.61074
1.59908
1.57163
1.56505
1.54178
1.52783
1.52566
1.48792
1.5033
1.49784
0.00274386
0.0457271
0.134413
0.265177
0.415008
0.577982
0.694182
0.816093
0.90877
0.952439
1.01341
1.03497
1.05797
1.07566
1.09419
1.09241
1.11761
1.10739
1.10975
1.14294
0.000278719
0.00649169
0.0199304
0.0474539
0.0883605
0.155806
0.210799
0.28201
0.367029
0.403272
0.479805
0.514326
0.56381
0.593642
0.645263
0.655172
0.698271
0.72152
0.723721
0.764074
4.77164e-05
0.00086773
0.00259201
0.00593586
0.0125316
0.0278596
0.0410647
0.0621554
0.100925
0.117156
0.155552
0.175256
0.212419
0.233191
0.279803
0.293492
0.330309
0.370232
0.380865
0.421807
2.67435e-05
0.000140934
0.000389916
0.000709321
0.00143166
0.00358372
0.00563296
0.00918332
0.0182922
0.0226642
0.0332806
0.0395478
0.0526178
0.0610812
0.0816266
0.088685
0.104782
0.132447
0.142528
0.170287
2.44647e-05
5.53231e-05
0.000117739
0.000140591
0.000199119
0.000408277
0.000682396
0.00119258
0.00256561
0.00318605
0.00484551
0.00597485
0.00839047
0.0103425
0.0155618
0.0173061
0.0211791
0.0318683
0.0348409
0.0416042
2.41921e-05
4.47622e-05
9.15111e-05
9.21862e-05
8.54899e-05
9.08183e-05
0.000114505
0.000201076
0.000449136
0.000518459
0.000694616
0.000794099
0.000998361
0.00123342
0.00199046
0.00221399
0.0029316
0.00518186
0.00550733
0.00649567
2.33318e-05
4.20968e-05
5.79833e-05
7.44851e-05
7.68295e-05
7.12419e-05
6.95483e-05
7.92303e-05
0.000148572
0.000172103
0.000184536
0.000185278
0.000191987
0.000213421
0.000300081
0.000314959
0.00041477
0.000692413
0.000691784
0.000755427
2.2084e-05
3.51374e-05
3.97897e-05
6.02624e-05
8.52009e-05
8.41747e-05
6.97349e-05
6.61855e-05
8.41518e-05
0.00010453
0.00011123
0.000113947
0.00012044
0.000130064
0.00013305
0.00012549
0.000131779
0.000156913
0.00016094
0.000193922
2.14423e-05
2.98958e-05
3.61312e-05
6.30187e-05
7.40074e-05
7.33148e-05
6.08495e-05
5.342e-05
5.68426e-05
8.05807e-05
0.000106465
0.000109772
0.000103527
9.34913e-05
8.49291e-05
8.17679e-05
8.3511e-05
0.00010109
0.000125913
0.000177146
2.1333e-05
2.76895e-05
3.76301e-05
4.761e-05
5.25277e-05
5.68118e-05
5.54641e-05
5.10397e-05
5.12843e-05
5.98783e-05
8.27119e-05
8.55312e-05
7.9949e-05
7.25872e-05
7.06667e-05
7.37602e-05
7.65436e-05
8.32724e-05
9.45697e-05
0.000143347
2.11818e-05
2.92395e-05
3.60166e-05
3.6101e-05
4.09029e-05
5.69952e-05
5.8012e-05
5.37641e-05
4.92381e-05
4.94622e-05
5.76331e-05
6.61436e-05
6.83271e-05
6.72525e-05
6.65633e-05
6.70731e-05
6.53952e-05
6.5459e-05
7.2998e-05
8.47067e-05
2.08212e-05
2.77995e-05
3.2819e-05
3.47311e-05
4.03346e-05
4.91535e-05
5.06253e-05
4.84329e-05
4.37247e-05
4.31987e-05
4.85066e-05
5.62578e-05
6.14735e-05
6.0257e-05
5.72403e-05
5.52878e-05
5.53821e-05
5.74017e-05
6.81959e-05
9.29054e-05
2.0586e-05
2.57682e-05
3.28112e-05
3.52818e-05
3.65945e-05
4.20543e-05
4.48629e-05
4.47008e-05
4.19077e-05
4.10098e-05
4.19318e-05
4.67173e-05
4.96345e-05
4.98519e-05
4.96382e-05
4.93528e-05
4.92247e-05
5.25949e-05
5.41311e-05
7.50575e-05
2.05265e-05
2.52889e-05
3.385e-05
3.45535e-05
3.48737e-05
3.91458e-05
4.28037e-05
4.34641e-05
4.20684e-05
3.98336e-05
3.9958e-05
4.21478e-05
4.60832e-05
4.73204e-05
5.00056e-05
4.92629e-05
4.85093e-05
5.00615e-05
5.21745e-05
6.24275e-05
2.04895e-05
2.52737e-05
3.52121e-05
3.54439e-05
3.43424e-05
3.53638e-05
4.05593e-05
4.24088e-05
4.20332e-05
4.02681e-05
4.00729e-05
4.09617e-05
4.37159e-05
4.54462e-05
4.65044e-05
4.6686e-05
4.66441e-05
4.65533e-05
5.08878e-05
6.46092e-05
2.04954e-05
2.66426e-05
3.44975e-05
3.4076e-05
3.35936e-05
3.76193e-05
4.26672e-05
4.31481e-05
4.24004e-05
4.05288e-05
3.99345e-05
4.04772e-05
4.44833e-05
4.64052e-05
4.64716e-05
4.66677e-05
4.62735e-05
4.79628e-05
4.79773e-05
6.0952e-05
2.05589e-05
2.74012e-05
3.10246e-05
3.28069e-05
3.83423e-05
4.27236e-05
4.31112e-05
4.22439e-05
4.11852e-05
4.10006e-05
4.10595e-05
4.35866e-05
4.57831e-05
4.59022e-05
4.70686e-05
4.70475e-05
4.8224e-05
4.92639e-05
5.11542e-05
6.39708e-05
2.06453e-05
2.55625e-05
2.95712e-05
4.0755e-05
4.28587e-05
4.23924e-05
4.11535e-05
4.11684e-05
4.15906e-05
4.39308e-05
4.41266e-05
4.56725e-05
4.55493e-05
4.57635e-05
4.79461e-05
4.90574e-05
5.05829e-05
5.02513e-05
5.02383e-05
5.81509e-05
2.07999e-05
2.50329e-05
3.61959e-05
4.41593e-05
4.18373e-05
4.03159e-05
4.14996e-05
4.51086e-05
4.69438e-05
4.7369e-05
4.71482e-05
4.76445e-05
4.77984e-05
5.18996e-05
5.33734e-05
5.3684e-05
5.30248e-05
5.26277e-05
5.38313e-05
7.10737e-05
2.10129e-05
2.66005e-05
4.133e-05
4.16181e-05
3.91918e-05
4.15997e-05
4.89567e-05
5.27818e-05
5.31657e-05
5.25573e-05
5.25882e-05
5.29111e-05
5.39124e-05
5.72514e-05
5.70562e-05
5.80403e-05
5.80163e-05
6.14438e-05
6.489e-05
7.36484e-05
2.12599e-05
2.993e-05
3.87517e-05
3.82141e-05
4.10205e-05
5.48874e-05
5.86665e-05
6.13936e-05
6.07077e-05
5.80438e-05
5.75122e-05
5.73509e-05
5.98933e-05
6.29326e-05
6.83522e-05
7.30492e-05
7.53861e-05
8.12329e-05
7.92317e-05
7.87037e-05
2.14675e-05
3.02646e-05
3.54289e-05
4.0318e-05
5.82373e-05
6.47568e-05
6.69093e-05
6.80285e-05
6.47852e-05
6.15175e-05
6.11881e-05
6.32277e-05
7.5041e-05
8.78379e-05
9.91366e-05
9.98198e-05
0.000102117
0.000100859
0.000101832
0.000114283
2.19627e-05
2.84214e-05
3.86791e-05
5.61066e-05
7.15644e-05
7.21249e-05
7.38528e-05
7.23363e-05
6.79797e-05
6.88404e-05
7.26495e-05
9.35459e-05
0.000120788
0.000140777
0.000145055
0.000152025
0.000160806
0.00017912
0.00022017
0.000327361
2.29739e-05
2.97526e-05
5.15392e-05
7.01002e-05
8.63303e-05
8.44061e-05
8.93108e-05
8.67707e-05
8.99608e-05
0.000113036
0.000138667
0.000206226
0.000252566
0.000317656
0.000366323
0.000489111
0.000618165
0.000917071
0.00133135
0.0025813
2.38217e-05
3.3694e-05
6.9018e-05
0.000106502
0.000120747
0.000124606
0.000164472
0.000184882
0.000248014
0.000471343
0.0005958
0.000935109
0.00119881
0.00177243
0.00227425
0.00351467
0.00457277
0.00710333
0.00960355
0.0168882
2.46477e-05
5.00792e-05
0.000126815
0.000251847
0.000295873
0.000393991
0.000844017
0.00114142
0.00177464
0.00360097
0.00450049
0.00701567
0.00889244
0.0130987
0.0162277
0.0236734
0.0288437
0.0410748
0.0506237
0.0810331
2.81728e-05
0.000150288
0.000436082
0.00117646
0.00170524
0.00284038
0.00697589
0.00966208
0.0144306
0.0259941
0.0310672
0.0441117
0.0533443
0.0715633
0.0828682
0.108412
0.123912
0.158551
0.181948
0.258147
5.01423e-05
0.000890381
0.00281535
0.00819745
0.0132148
0.0225168
0.0492115
0.0629648
0.088562
0.129847
0.146728
0.185142
0.219341
0.254425
0.280973
0.332089
0.359526
0.415643
0.449763
0.54308
0.000284288
0.00639666
0.0211416
0.0553569
0.0867064
0.137069
0.23557
0.272709
0.352065
0.428517
0.461509
0.529133
0.58185
0.615627
0.653871
0.700683
0.728346
0.77844
0.807861
0.882274
0.0027651
0.0440193
0.142815
0.272712
0.405482
0.559027
0.727609
0.786695
0.911647
0.969278
1.00384
1.04842
1.07991
1.08928
1.11208
1.12538
1.14407
1.16274
1.17954
1.21382
0.0261505
0.266049
0.646952
0.963954
1.23602
1.42469
1.55693
1.57966
1.63607
1.62063
1.61724
1.60157
1.5928
1.56606
1.56123
1.53955
1.53682
1.52299
1.51717
1.50666
0.208382
1.19392
1.93159
2.3194
2.51407
2.51233
2.4775
2.38653
2.33296
2.21299
2.17707
2.08913
2.05316
1.98611
1.96056
1.89691
1.87688
1.82579
1.78847
1.74783
1.32569
3.28072
4.00078
3.9552
3.77285
3.45879
3.21855
3.01498
2.86215
2.67647
2.61655
2.4697
2.41817
2.32075
2.27632
2.17505
2.13753
2.04375
1.97965
1.89089
4.50813
6.20185
5.84739
5.03435
4.43451
3.9278
3.58358
3.32581
3.12069
2.91026
2.84026
2.66459
2.60771
2.48936
2.43258
2.30448
2.25107
2.11923
2.0366
1.88925
9.28967
7.40419
5.13342
3.91811
3.35177
2.95104
2.68029
2.48068
2.33054
2.17416
2.12121
1.99413
1.95027
1.84885
1.80526
1.69882
1.6475
1.52818
1.45461
1.30032
0.995648
0.725269
0.695034
0.481825
0.251004
0.213624
0.218225
0.224127
0.209009
0.160896
0.141024
0.126453
0.120505
0.110893
0.102912
0.103314
0.112526
0.142163
0.17085
0.220309
0.272665
0.292801
0.290111
0.269291
0.2026
0.089874
0.0365298
0.0148556
0.00702405
0.00375805
0.00223724
0.0015508
0.00129972
0.00130352
0.00153032
0.00261481
0.00570558
0.0132458
0.0293378
0.044554
0.0581618
0.0651123
0.065279
0.0638302
0.0599499
0.0515438
0.0393338
0.0303594
0.0240195
0.0186926
0.0160433
0.0148299
0.0130454
0.0123885
0.0127779
0.0157993
0.0202547
0.0342315
0.0812927
0.0915394
0.0874062
0.0701384
0.0531685
0.0406365
0.0368054
0.0390985
0.0610961
0.0798359
0.0841377
0.0789779
0.0628553
0.0466787
0.0343162
0.0293825
0.0278146
0.0265402
0.0257461
0.0257465
0.0266963
0.0300251
0.0364678
0.0418848
0.0445344
0.0474137
0.0538275
0.0715113
0.108549
0.125516
0.127837
0.12775
0.119814
0.0793468
0.0517863
0.0437048
0.0403072
0.0377554
0.0360318
0.0320871
0.0215674
0.0166231
0.0155057
0.0153709
0.0153373
0.0151269
0.0150004
0.0160041
0.0174809
0.0183633
0.0192226
0.0220887
0.0272999
0.0308249
0.0334229
0.0375192
0.050892
0.088581
0.107843
0.120541
0.163679
0.224089
0.217833
0.212763
0.272935
0.303592
0.289765
0.23399
0.118456
0.0600765
0.0366901
0.0295574
0.0264286
0.0252913
0.0253011
0.0263761
0.0312583
0.0377233
0.0425198
0.0546395
0.0692138
0.0716856
0.0697277
0.0565531
0.0416414
0.0365559
0.0359349
0.0367039
0.0360891
0.0301827
0.0239266
0.021515
0.0214485
0.0223261
0.0343861
0.0438286
0.0486471
0.0502735
0.0538017
0.0647362
0.0643504
0.0638913
0.0633332
0.0623421
0.0634548
0.0691456
0.071229
0.0701229
0.0692404
0.0695608
0.0738058
0.073637
0.0641454
0.0566842
0.0491744
0.041761
0.037634
0.0374982
0.0382819
0.0376083
0.0336049
0.0245142
0.0211574
0.0206781
0.0205436
0.0214044
0.0233628
0.0272279
0.0338616
0.0645132
0.113339
0.116399
0.103963
0.0939732
0.0778942
0.055157
0.0598819
0.066614
0.0522586
0.0439888
0.0605641
0.163864
1.73202
1.19593
1.00584
0.896818
0.559701
0.388284
0.364589
0.32628
0.274034
0.241274
0.204368
0.16266
0.134252
0.120252
0.119014
0.125116
0.155366
0.194359
0.26227
0.304272
0.308635
0.301265
0.271429
0.204724
0.0907048
0.0411686
0.0172969
0.00764969
0.00451796
0.00282446
0.00182569
0.00141748
0.00133164
0.00141057
0.00208547
0.00453145
0.010804
0.0271286
0.0503633
0.0704985
0.0867813
0.0885685
0.0865713
0.0808269
0.0751841
0.0674115
0.0517692
0.0386101
0.0289962
0.0212317
0.0173695
0.0156663
0.0134478
0.0123474
0.0125704
0.0153072
0.0195021
0.029415
0.0758216
0.091938
0.0899116
0.0750651
0.0562034
0.0423917
0.0370948
0.0383702
0.0543324
0.0771705
0.0825544
0.078481
0.0635739
0.0469104
0.0351425
0.0298574
0.0275557
0.0259579
0.0253584
0.0255161
0.0265928
0.0293607
0.0363356
0.0424395
0.0455957
0.0487488
0.0553573
0.0719514
0.108145
0.12745
0.131188
0.131259
0.122964
0.0816725
0.0524954
0.0442095
0.0413009
0.0380796
0.0362206
0.0321454
0.0212657
0.0161318
0.0152434
0.0152411
0.0152633
0.0150118
0.0149398
0.0160796
0.0173952
0.018048
0.0188816
0.0218542
0.0273264
0.0310957
0.0335573
0.0370461
0.0471002
0.0804534
0.100285
0.113072
0.155004
0.217434
0.211283
0.205542
0.268209
0.310082
0.296033
0.231323
0.120081
0.0634125
0.0400098
0.0318473
0.0279528
0.0265309
0.0265258
0.0274433
0.0330021
0.0399533
0.047084
0.0645549
0.0729574
0.0723926
0.0651827
0.0431774
0.0320729
0.0300167
0.0304764
0.0319358
0.0317679
0.0269869
0.0221862
0.0206643
0.0207559
0.0220772
0.0337822
0.0428458
0.0480964
0.0524074
0.0538514
0.0618033
0.0633911
0.0603346
0.0594675
0.0599666
0.0627478
0.0696351
0.07432
0.0715118
0.0697673
0.0700516
0.0771464
0.0783931
0.0682476
0.0591217
0.0522991
0.0433607
0.037391
0.0353563
0.0364873
0.037069
0.035336
0.0273816
0.0223574
0.0211546
0.0209692
0.0213727
0.0233126
0.0272861
0.0337248
0.0598933
0.109745
0.113767
0.103052
0.0937179
0.0777552
0.0558384
0.0596845
0.070294
0.0637194
0.0462887
0.0597891
0.142701
1.73965
1.40506
1.11542
1.07198
0.977043
0.701387
0.621043
0.576008
0.459962
0.407188
0.331382
0.239866
0.175368
0.149424
0.145241
0.157183
0.228168
0.301577
0.332718
0.329293
0.313165
0.268517
0.183929
0.0853455
0.0402249
0.0190579
0.00828418
0.00439942
0.00333537
0.00222334
0.00154875
0.00132976
0.00134054
0.00163338
0.00326063
0.00826935
0.0210144
0.0508298
0.0819829
0.104287
0.116391
0.116613
0.112905
0.101517
0.0887732
0.0817905
0.0671484
0.04854
0.0352499
0.0247464
0.0192541
0.0172402
0.014337
0.0124969
0.012534
0.0147241
0.0187898
0.0262716
0.069738
0.0920967
0.0918597
0.0812209
0.0596352
0.0446783
0.0381364
0.0385655
0.0487211
0.0713037
0.0780222
0.076584
0.0658923
0.0479318
0.0363017
0.0304998
0.0276509
0.0259242
0.0253623
0.0255265
0.0265742
0.0289964
0.0359561
0.0428094
0.0465378
0.0501397
0.0570945
0.0730039
0.108056
0.1295
0.134727
0.134859
0.126041
0.0842847
0.0534101
0.0446563
0.0425219
0.0386018
0.0365597
0.0325025
0.0212295
0.0160156
0.01521
0.015239
0.0152543
0.0149483
0.0149644
0.0163425
0.0174499
0.0179222
0.0186953
0.0218559
0.0274637
0.0314963
0.0339471
0.0367741
0.0443811
0.0726596
0.0927285
0.105518
0.144604
0.209688
0.205472
0.196439
0.257949
0.310331
0.298804
0.227169
0.121016
0.0663789
0.0429132
0.0348454
0.0298312
0.0279166
0.0280666
0.029536
0.0371696
0.0433805
0.0562629
0.0725151
0.0755565
0.0709784
0.0516583
0.0326899
0.0264095
0.0258389
0.026572
0.0279532
0.0280534
0.0243396
0.0207558
0.019792
0.019899
0.021877
0.0328529
0.0426989
0.0457767
0.0521442
0.0522665
0.0535973
0.0582261
0.0555928
0.0569461
0.0594719
0.0643495
0.0717889
0.0762891
0.0749577
0.0713346
0.0714718
0.0808221
0.0855098
0.0770986
0.0635628
0.0594551
0.0498597
0.0391594
0.0348994
0.0347314
0.0362325
0.0355982
0.0309001
0.0246582
0.0217638
0.0213955
0.0215409
0.0232561
0.0272471
0.033757
0.058445
0.106561
0.110776
0.100653
0.0920255
0.07768
0.056718
0.0593958
0.0703791
0.0690574
0.0578036
0.0637807
0.119423
1.5565
1.33912
1.08906
1.00107
1.00633
0.932193
0.765562
0.71257
0.67058
0.63732
0.577578
0.418522
0.284694
0.239403
0.238075
0.297911
0.351228
0.355961
0.347188
0.319222
0.247377
0.149846
0.07272
0.0348801
0.018186
0.00875928
0.00418658
0.00292967
0.00257702
0.00165284
0.00128541
0.00123112
0.00134263
0.00217094
0.00564102
0.0157901
0.042883
0.0869147
0.120377
0.136751
0.140139
0.137857
0.133019
0.12372
0.104049
0.0946733
0.0823062
0.0606457
0.0427912
0.0292281
0.021425
0.0191341
0.0157574
0.0127847
0.0124938
0.0140384
0.0179667
0.0237306
0.0620557
0.0919165
0.093375
0.0868651
0.0643269
0.0468725
0.0392096
0.0389713
0.0444594
0.0640199
0.0722912
0.0724317
0.0663098
0.0498436
0.0377018
0.0312253
0.027898
0.0260382
0.0255105
0.0256996
0.0267053
0.0289368
0.0355835
0.0429725
0.0473986
0.0516627
0.0588295
0.0746948
0.108271
0.131362
0.138325
0.13852
0.129418
0.0878018
0.0543498
0.0450735
0.0437065
0.0393727
0.0369162
0.0332283
0.0214507
0.016006
0.0152304
0.0153487
0.0153057
0.0150184
0.0152236
0.0169595
0.0175804
0.0179227
0.0186652
0.0219579
0.0278268
0.0321083
0.0343708
0.0367732
0.0425898
0.0659117
0.0854109
0.0979981
0.134393
0.200645
0.19941
0.188873
0.24677
0.30846
0.29863
0.22353
0.121748
0.0683656
0.0446761
0.0363898
0.0313371
0.0294706
0.0297191
0.0344744
0.0413884
0.0490986
0.0668883
0.0767575
0.0765877
0.0635922
0.0408693
0.0294655
0.0247297
0.0235658
0.0239208
0.0244245
0.0241606
0.02127
0.0192932
0.0189912
0.0194093
0.0223199
0.0329396
0.0436627
0.0455458
0.0487155
0.0496841
0.0497737
0.0521126
0.0520912
0.056086
0.0605424
0.0707823
0.0762203
0.0773714
0.07723
0.0740043
0.073999
0.0860602
0.0944843
0.0912319
0.0712709
0.0643612
0.0594711
0.0461849
0.0362989
0.0343354
0.0354946
0.0354492
0.0328335
0.0260401
0.0223534
0.0215444
0.0217741
0.023099
0.0268956
0.0333341
0.0549616
0.102917
0.108739
0.0998456
0.0897642
0.0771641
0.0574691
0.0584911
0.0695206
0.0694825
0.0679603
0.0666664
0.0931331
1.33957
1.18582
1.00835
0.877681
0.884128
0.8771
0.804878
0.711105
0.674644
0.651853
0.631231
0.594677
0.50358
0.43751
0.423651
0.419709
0.399841
0.371659
0.314923
0.226392
0.114212
0.0589404
0.0289598
0.0148522
0.00829905
0.00391084
0.00236345
0.00220011
0.00179164
0.00115477
0.00108634
0.00115209
0.00152901
0.00342725
0.0105515
0.0319387
0.0833795
0.129595
0.149494
0.1523
0.149106
0.142437
0.137068
0.133029
0.11856
0.106815
0.0939412
0.0729995
0.0533625
0.0358656
0.0241834
0.0204164
0.016681
0.0129842
0.0122064
0.0132547
0.017161
0.0221728
0.0546702
0.091679
0.0950668
0.0911576
0.0715037
0.0501168
0.0407473
0.0393836
0.0421149
0.0565826
0.0654707
0.0670541
0.0648366
0.0528272
0.0397495
0.0324103
0.0284302
0.026357
0.0259063
0.0260942
0.0269679
0.0291244
0.0354538
0.0430337
0.0483191
0.0531774
0.0606709
0.0767756
0.108747
0.133022
0.141798
0.142077
0.132766
0.0915026
0.0552003
0.0456595
0.0447017
0.0405194
0.0372355
0.0340971
0.022181
0.016143
0.0153309
0.0154893
0.0153748
0.0151715
0.0158558
0.0175828
0.0177362
0.0179537
0.0186794
0.0222047
0.0283955
0.0330188
0.0352929
0.0369928
0.0414095
0.0598604
0.0784961
0.0906972
0.124195
0.189986
0.193067
0.184932
0.23904
0.302796
0.296252
0.22233
0.122771
0.0697781
0.0458149
0.036995
0.0326375
0.0312129
0.0323255
0.040685
0.0464876
0.0589287
0.0745434
0.0788314
0.0745524
0.0521585
0.0365526
0.02852
0.0245363
0.0228458
0.022004
0.0216935
0.0209072
0.0190603
0.018466
0.0186059
0.0193057
0.0233496
0.0342205
0.0447843
0.0466834
0.0473215
0.0500059
0.0495128
0.0507696
0.0516889
0.0583118
0.0652106
0.0824892
0.0843443
0.0831309
0.0789834
0.0772149
0.0775832
0.0889839
0.0973193
0.10074
0.0969202
0.0798876
0.0716066
0.0554988
0.0400416
0.0348307
0.0350178
0.0359723
0.0343323
0.0277474
0.0237081
0.0218283
0.0218735
0.0227336
0.0268525
0.0332904
0.0504799
0.0979761
0.10509
0.0990405
0.0891563
0.0760422
0.0584427
0.057104
0.0674886
0.0683794
0.0693291
0.0662031
0.076032
1.05302
0.966404
0.855669
0.755824
0.729621
0.734102
0.719471
0.63666
0.597103
0.541309
0.525787
0.52582
0.522068
0.501875
0.481256
0.43977
0.383574
0.308181
0.201807
0.104035
0.049662
0.0246469
0.0118137
0.00643471
0.00352878
0.00179684
0.00158079
0.00150033
0.00113513
0.00095696
0.00100334
0.00115105
0.00210761
0.00620594
0.0211861
0.067441
0.131539
0.158186
0.162377
0.158671
0.150212
0.142438
0.136748
0.133325
0.125633
0.116665
0.104325
0.0834498
0.0623495
0.0420232
0.0269633
0.0214989
0.0176478
0.0133205
0.0120237
0.0125728
0.0158923
0.0206085
0.0459733
0.0910912
0.0969597
0.0945429
0.0788662
0.0549811
0.0429855
0.039954
0.0409566
0.0492725
0.0589183
0.061928
0.0613737
0.0546978
0.0421112
0.0339151
0.0290879
0.0269466
0.0266379
0.0267884
0.02747
0.029766
0.0357815
0.0430352
0.0492042
0.0547062
0.0625059
0.0792627
0.109436
0.134316
0.145174
0.145766
0.136628
0.0955034
0.0567326
0.0464345
0.0459626
0.0419378
0.0373324
0.0348841
0.0234547
0.0165326
0.0154772
0.0155462
0.0156124
0.0157784
0.017446
0.0183496
0.018076
0.0180631
0.0187481
0.0226875
0.0293576
0.0337695
0.036172
0.037442
0.0408306
0.0552171
0.072168
0.0834512
0.112317
0.179251
0.189982
0.18327
0.231609
0.297289
0.291791
0.221155
0.125859
0.0732557
0.0482915
0.0382941
0.0342878
0.0335468
0.0373181
0.0463201
0.0517228
0.0692529
0.0804463
0.0802525
0.0663763
0.0451431
0.0346729
0.0283435
0.0246087
0.0224135
0.0202875
0.019687
0.0187689
0.0183267
0.0181972
0.018494
0.0195366
0.0238738
0.0374472
0.0445927
0.047012
0.0478848
0.0499146
0.0498053
0.0510794
0.0520665
0.0638424
0.0728994
0.0964553
0.0962744
0.0942037
0.0859658
0.0824276
0.0827885
0.0892035
0.0925837
0.0937129
0.101274
0.111981
0.102696
0.0742764
0.0480679
0.0368115
0.0351862
0.0357966
0.0352466
0.0306763
0.0247976
0.0224983
0.0221039
0.0228117
0.0271743
0.0330746
0.0458957
0.094526
0.103416
0.0984482
0.0888865
0.0755551
0.0596103
0.0552442
0.0614226
0.0622319
0.0656399
0.0626877
0.0662186
0.72103
0.689497
0.634909
0.557351
0.545947
0.552654
0.547611
0.51723
0.485806
0.419429
0.382876
0.380128
0.388535
0.385035
0.372422
0.334951
0.274793
0.177774
0.0920729
0.0436426
0.0202402
0.00975631
0.00458599
0.00261313
0.001489
0.00102889
0.00114202
0.00107857
0.000868775
0.000881038
0.000981342
0.00139211
0.00350886
0.0120418
0.0437073
0.120931
0.163499
0.172041
0.167723
0.158917
0.144882
0.137194
0.133748
0.131529
0.126502
0.120679
0.11321
0.0939462
0.0705694
0.0487651
0.0311524
0.0239432
0.0197943
0.0142779
0.0120729
0.0121616
0.0144308
0.018721
0.0344942
0.0879906
0.0993793
0.0976568
0.0854371
0.0610258
0.0460027
0.040659
0.040727
0.0440501
0.052193
0.0569439
0.0571637
0.0539187
0.0442146
0.035467
0.0299864
0.0277167
0.0273518
0.0274045
0.0280573
0.0311176
0.0365311
0.0431025
0.0499631
0.0563814
0.0645477
0.0821952
0.110466
0.135182
0.148258
0.149493
0.140604
0.0995129
0.058694
0.0471085
0.0473718
0.043647
0.0372859
0.0356127
0.0251309
0.0170949
0.0155841
0.0156004
0.0159349
0.0170465
0.0188545
0.0187965
0.018185
0.0181821
0.0189312
0.0234845
0.0309553
0.0352084
0.0377713
0.0384797
0.0406162
0.0511216
0.0667016
0.0769435
0.101025
0.166201
0.18634
0.18189
0.222794
0.292676
0.288468
0.221459
0.129961
0.0807003
0.0545148
0.0421021
0.0375244
0.0374235
0.0437845
0.0506487
0.0580199
0.0795182
0.0839157
0.0793821
0.0567438
0.0422725
0.0340409
0.0286041
0.0248247
0.0222012
0.0195074
0.0190321
0.0182859
0.0182044
0.0181505
0.0185866
0.0200726
0.0243789
0.0414042
0.044803
0.0477104
0.0502835
0.0497003
0.050486
0.0526824
0.0563289
0.07059
0.0803157
0.10891
0.109003
0.107256
0.100127
0.0960274
0.0966562
0.0925968
0.0892591
0.0868476
0.0898316
0.107547
0.116332
0.106785
0.0681002
0.0422381
0.036137
0.0358592
0.0357238
0.0326335
0.0255935
0.0228978
0.022487
0.0231631
0.0269362
0.0323991
0.0427733
0.0894351
0.101433
0.0979949
0.0872294
0.0755065
0.0610838
0.0548656
0.0572521
0.0566242
0.059675
0.0612605
0.0622375
0.400958
0.390201
0.377517
0.328451
0.322602
0.344001
0.348434
0.345901
0.341593
0.305107
0.261957
0.244272
0.237877
0.230431
0.214932
0.181204
0.123256
0.0695596
0.0353145
0.0161964
0.00767321
0.00354021
0.00168633
0.00113138
0.000788494
0.000738061
0.000863473
0.000806912
0.000769628
0.000854528
0.00107629
0.00196994
0.00630122
0.0240203
0.0910113
0.16135
0.181274
0.179097
0.1678
0.149869
0.130608
0.122794
0.123958
0.12586
0.124794
0.121305
0.117022
0.102543
0.0791549
0.0556667
0.0357843
0.0265834
0.0218266
0.0154972
0.0122017
0.0118219
0.0132857
0.0173013
0.0273158
0.0791671
0.101775
0.101241
0.0930109
0.0675228
0.0507522
0.0421939
0.0408374
0.0418779
0.0460366
0.05217
0.0533064
0.0519452
0.046325
0.0372795
0.0313244
0.0286965
0.0280276
0.0279588
0.028693
0.0331893
0.0379829
0.0433461
0.0506435
0.058202
0.0667656
0.0854
0.111812
0.13557
0.150804
0.153398
0.144698
0.10388
0.0614322
0.0474269
0.0487343
0.0455608
0.0371775
0.0358502
0.0268942
0.0176991
0.015808
0.0158846
0.0167023
0.0187404
0.019436
0.0188934
0.0182653
0.0182674
0.0192966
0.0246924
0.0327999
0.0370804
0.039628
0.039726
0.0408438
0.0478636
0.0615491
0.0707352
0.0906435
0.152513
0.183454
0.181545
0.216474
0.283713
0.283732
0.222064
0.134745
0.0871023
0.0595679
0.0465522
0.0421327
0.0424904
0.0490595
0.0537277
0.0688176
0.0870466
0.0867352
0.0708943
0.0510051
0.041034
0.0338933
0.0291196
0.0251095
0.0224445
0.0194827
0.0189843
0.0182417
0.0182535
0.0182651
0.0190125
0.0208545
0.0257295
0.0423403
0.0458007
0.0477847
0.0519084
0.0508905
0.0521903
0.0540826
0.0629351
0.0786918
0.0887372
0.116045
0.116281
0.121667
0.120867
0.121321
0.119266
0.111578
0.0942054
0.0868657
0.08674
0.0922897
0.112941
0.111662
0.0963159
0.0533992
0.0388394
0.0363674
0.0359456
0.0338338
0.0269302
0.0232519
0.0226645
0.0232356
0.0263787
0.0325461
0.0422351
0.0846704
0.098717
0.0970496
0.0866557
0.075558
0.0648118
0.0553089
0.0556021
0.0529809
0.054542
0.0606302
0.0604194
0.16338
0.163482
0.16363
0.142003
0.13732
0.150923
0.165653
0.173536
0.173586
0.163956
0.132426
0.110588
0.10038
0.094065
0.0821305
0.0674103
0.0436023
0.0243205
0.0122546
0.0055612
0.00273939
0.0012221
0.000735368
0.000649688
0.000552229
0.000612769
0.000754386
0.000716545
0.000747677
0.000915011
0.00131696
0.00313321
0.0119893
0.0489543
0.144357
0.18983
0.192092
0.181659
0.151795
0.129666
0.110874
0.10592
0.107669
0.115361
0.119619
0.119571
0.117525
0.108811
0.0871332
0.0630494
0.0401079
0.0283888
0.0228391
0.0162103
0.0123787
0.0115533
0.012502
0.0164102
0.0239101
0.0670079
0.103524
0.10437
0.0986136
0.0761731
0.055346
0.0441856
0.0412495
0.0414901
0.0429505
0.047502
0.0495787
0.0490324
0.0460781
0.0389169
0.0328085
0.0297675
0.0287103
0.0285951
0.0297765
0.0355104
0.0400725
0.0437925
0.051154
0.0600633
0.0691804
0.0887001
0.113508
0.135599
0.152854
0.157231
0.148998
0.108676
0.0649716
0.0477784
0.049894
0.047773
0.0372053
0.0356444
0.0284654
0.0185618
0.0164269
0.0165559
0.0182703
0.0200388
0.0198793
0.0187574
0.0182575
0.0183719
0.0196996
0.0266817
0.0343777
0.0394584
0.0415292
0.0415054
0.0416058
0.0454965
0.0568253
0.064913
0.0811437
0.137975
0.177785
0.180437
0.21252
0.274743
0.276143
0.220862
0.140072
0.0912078
0.061712
0.0503694
0.0469435
0.0473587
0.051966
0.058176
0.0831519
0.0926641
0.0853273
0.0621396
0.0484784
0.0406642
0.0343216
0.0296138
0.0256583
0.0226561
0.019619
0.0189769
0.0183413
0.0183811
0.0186098
0.0197577
0.0217533
0.028452
0.0430302
0.0472341
0.047967
0.0513221
0.0511457
0.0533144
0.0564452
0.077846
0.0881383
0.101752
0.117426
0.11674
0.129444
0.139016
0.151784
0.14741
0.136766
0.110145
0.0936222
0.0891863
0.0907828
0.101371
0.106307
0.101773
0.0722041
0.0447115
0.0382607
0.037019
0.0340645
0.0288114
0.0240395
0.023041
0.0233995
0.0263575
0.0322812
0.0416321
0.080335
0.0981842
0.0975357
0.0872538
0.0755935
0.0660646
0.0570604
0.0545365
0.0509046
0.0515141
0.0595624
0.0595777
0.0439094
0.0484344
0.0489718
0.0415446
0.0406609
0.0455687
0.0581424
0.064603
0.0646166
0.0583673
0.0415258
0.0295453
0.0253846
0.0240799
0.0224887
0.0201717
0.012817
0.00751738
0.00375719
0.00181472
0.00096807
0.000523964
0.000485789
0.000476251
0.000451444
0.000592519
0.000691618
0.000674805
0.000752838
0.00100742
0.00173653
0.00540282
0.0238237
0.101808
0.187521
0.205107
0.196881
0.16736
0.126273
0.107749
0.098039
0.0929441
0.0937278
0.101271
0.11186
0.116073
0.116123
0.112231
0.0953991
0.0704377
0.0451628
0.0305485
0.023853
0.0167799
0.0126009
0.0113925
0.0117813
0.014935
0.0207623
0.0510211
0.101683
0.108195
0.103769
0.0855961
0.0622189
0.0478992
0.042331
0.041685
0.0420581
0.0446013
0.0466299
0.0463684
0.0451008
0.0400982
0.0341018
0.0307551
0.0294418
0.0293666
0.0321095
0.0378934
0.042432
0.0449596
0.0511695
0.0620854
0.0718857
0.0923634
0.115728
0.135463
0.154059
0.161193
0.153601
0.114157
0.0691795
0.0479302
0.0507166
0.0500373
0.037666
0.0349219
0.0289345
0.0193124
0.0173295
0.0176559
0.0192234
0.020111
0.0195845
0.0184154
0.0182591
0.0185037
0.0203317
0.0297292
0.0364594
0.0426487
0.043488
0.0428519
0.0426616
0.0444699
0.0525107
0.0596102
0.0726929
0.122006
0.168612
0.17803
0.210532
0.2641
0.266413
0.218192
0.143848
0.0933174
0.06322
0.0535606
0.0509745
0.0517116
0.0549412
0.0721554
0.0949406
0.0968902
0.0773673
0.0581386
0.0475161
0.0408248
0.0351784
0.0302553
0.0264754
0.0226975
0.0199947
0.0188993
0.0186787
0.0186854
0.0192831
0.0206851
0.0228517
0.0310072
0.0448857
0.0490197
0.0505857
0.0515476
0.053096
0.0577344
0.0635662
0.0945524
0.0957002
0.112582
0.111955
0.11243
0.129493
0.141509
0.163783
0.156752
0.147328
0.127544
0.114557
0.112532
0.106906
0.10428
0.104895
0.101669
0.0841157
0.0512736
0.0409622
0.0380529
0.0357385
0.030178
0.0248524
0.0237941
0.0239808
0.026848
0.0319062
0.0386909
0.0689012
0.0970065
0.0987332
0.0901516
0.0756871
0.0685194
0.0587548
0.054447
0.050597
0.051155
0.0602519
0.060497
0.00789712
0.00932093
0.00927311
0.00811626
0.00813069
0.0100056
0.0144971
0.0159673
0.0152951
0.0108668
0.0072146
0.00500778
0.00482127
0.00507299
0.0050014
0.00460197
0.00307835
0.00214171
0.00111009
0.000693204
0.000465738
0.000378362
0.000415993
0.000394968
0.000396112
0.000604063
0.000640103
0.000638754
0.000775779
0.00113725
0.00252074
0.00999768
0.0482904
0.158871
0.214953
0.21399
0.192777
0.140885
0.109246
0.0978275
0.0928672
0.0878716
0.0875907
0.0902784
0.102266
0.110855
0.113672
0.112557
0.101371
0.0764048
0.0499573
0.0335265
0.025724
0.0179956
0.0129489
0.0112972
0.0112056
0.0126538
0.0165542
0.031018
0.0913554
0.112626
0.109825
0.0937711
0.0723631
0.0537583
0.0453935
0.0425503
0.0422122
0.0433244
0.0448918
0.0447914
0.0439487
0.0409151
0.0355629
0.0317971
0.0303819
0.0307314
0.0358678
0.0408764
0.0441837
0.0463071
0.0518215
0.0648289
0.0752507
0.0959359
0.117803
0.134896
0.15466
0.164831
0.158598
0.11997
0.0737938
0.0478825
0.0509035
0.052318
0.0390002
0.0340177
0.0285165
0.0197852
0.0181043
0.0181804
0.0193972
0.0195411
0.0187712
0.0182405
0.0182907
0.0186741
0.0215822
0.0334788
0.040092
0.0460813
0.0463732
0.0446361
0.0439228
0.0445776
0.0487667
0.054954
0.0657772
0.105741
0.157617
0.175301
0.208662
0.250368
0.25434
0.214634
0.147956
0.0952804
0.0671246
0.0567188
0.0543278
0.0552035
0.0656489
0.0916322
0.102595
0.0955291
0.0688257
0.0555769
0.047022
0.0410359
0.0363087
0.0313028
0.0272211
0.0226531
0.0203119