/*--------------------------------*- C++ -*----------------------------------*\
| =========                 |                                                 |
| \\      /  F ield         | OpenFOAM: The Open Source CFD Toolbox           |
|  \\    /   O peration     | Version:  2.4.0                                 |
|   \\  /    A nd           | Web:      www.OpenFOAM.org                      |
|    \\/     M anipulation  |                                                 |
\*---------------------------------------------------------------------------*/
FoamFile
{
    version     2.0;
    format      ascii;
    class       volVectorField;
    location    "0.272";
    object      U;
}
// * * * * * * * * * * * * * * * * * * * * * * * * * * * * * * * * * * * * * //

dimensions      [0 1 -1 0 0 0 0];

internalField   nonuniform List<vector> 
17600
(
(5.32786 0.309444 0)
(2.98543 0.0606145 0)
(2.19546 -0.00154003 0)
(1.84859 -0.0035364 0)
(1.7068 -0.00150129 0)
(1.6103 0.000224411 0)
(1.53678 -0.000149341 0)
(1.4837 -0.000385445 0)
(1.42895 0.000696416 0)
(1.40541 -0.000818198 0)
(1.36927 0.000293414 0)
(1.35439 0.000249106 0)
(1.31804 -1.02352e-05 0)
(1.31737 -0.000118296 0)
(1.27504 0.000772621 0)
(1.26767 0.000271575 0)
(1.2411 -0.000142125 0)
(1.21957 0.00103018 0)
(1.17026 0.00298276 0)
(1.08527 -0.0188984 0)
(8.5989 0.871975 0)
(6.94944 0.383463 0)
(5.80862 0.121869 0)
(5.05939 0.0508583 0)
(4.65215 0.027737 0)
(4.37617 0.0218815 0)
(4.17844 0.015178 0)
(4.02674 0.0120954 0)
(3.87712 0.0117212 0)
(3.81322 0.00516747 0)
(3.69977 0.00731652 0)
(3.66717 0.00638208 0)
(3.56681 0.00449742 0)
(3.56514 0.00446771 0)
(3.45307 0.007231 0)
(3.44931 0.00377332 0)
(3.37813 0.00494215 0)
(3.33158 0.00799099 0)
(3.23584 0.0128623 0)
(3.17597 0.0136268 0)
(9.85732 1.02214 0)
(9.34496 0.577425 0)
(8.46955 0.241438 0)
(7.64837 0.129947 0)
(7.09139 0.0810662 0)
(6.69276 0.0600827 0)
(6.40572 0.0421277 0)
(6.18076 0.0347636 0)
(5.9558 0.0301595 0)
(5.86191 0.0174153 0)
(5.68056 0.0197143 0)
(5.63668 0.0167175 0)
(5.48194 0.0125342 0)
(5.48085 0.0124906 0)
(5.3125 0.0170832 0)
(5.31668 0.00900042 0)
(5.20567 0.0130993 0)
(5.1489 0.0187383 0)
(5.03282 0.0196011 0)
(4.9079 0.0260534 0)
(10.1611 0.947784 0)
(10.5699 0.668971 0)
(10.2493 0.330497 0)
(9.65482 0.209768 0)
(9.11795 0.146665 0)
(8.68906 0.110722 0)
(8.3593 0.0786271 0)
(8.09627 0.0659874 0)
(7.81928 0.0548301 0)
(7.70898 0.0352315 0)
(7.47441 0.036942 0)
(7.42328 0.0309269 0)
(7.22618 0.0237556 0)
(7.22622 0.023723 0)
(7.01295 0.0297705 0)
(7.02746 0.0163535 0)
(6.88416 0.0235262 0)
(6.80993 0.0310726 0)
(6.73015 0.0363481 0)
(6.44847 0.0140541 0)
(10.0753 0.8054 0)
(10.9261 0.670924 0)
(11.1137 0.356982 0)
(10.9119 0.255418 0)
(10.5772 0.202072 0)
(10.2456 0.161769 0)
(9.95084 0.117964 0)
(9.70583 0.101615 0)
(9.41585 0.0831771 0)
(9.31074 0.0564519 0)
(9.05007 0.057602 0)
(8.99876 0.0476876 0)
(8.7782 0.0371084 0)
(8.78275 0.0373152 0)
(8.5407 0.0442733 0)
(8.56145 0.0244263 0)
(8.41618 0.0380206 0)
(8.292 0.0389093 0)
(8.27765 0.0621606 0)
(7.94866 0.0166991 0)
(9.988 0.690325 0)
(10.8713 0.638884 0)
(11.2779 0.334056 0)
(11.3909 0.250231 0)
(11.3259 0.222978 0)
(11.2007 0.194634 0)
(11.0382 0.147927 0)
(10.8914 0.13344 0)
(10.6515 0.110493 0)
(10.5834 0.0775356 0)
(10.3406 0.0794633 0)
(10.3023 0.0652925 0)
(10.0855 0.05101 0)
(10.1017 0.0520279 0)
(9.85881 0.059714 0)
(9.8699 0.031987 0)
(9.76982 0.0529342 0)
(9.58616 0.0544723 0)
(9.59789 0.0625196 0)
(9.3169 0.0806667 0)
(9.96809 0.599031 0)
(10.7632 0.607669 0)
(11.175 0.304966 0)
(11.4036 0.218239 0)
(11.4865 0.208967 0)
(11.5359 0.198773 0)
(11.5263 0.155502 0)
(11.5281 0.149008 0)
(11.4093 0.126963 0)
(11.415 0.0911125 0)
(11.2527 0.0972278 0)
(11.2511 0.0803781 0)
(11.0753 0.0628277 0)
(11.1166 0.0651929 0)
(10.9139 0.0756542 0)
(10.9029 0.0362055 0)
(10.8771 0.0687889 0)
(10.681 0.0672657 0)
(10.6546 0.0805656 0)
(10.4611 0.0518217 0)
(9.96068 0.518035 0)
(10.6983 0.572834 0)
(11.0668 0.288991 0)
(11.3037 0.187885 0)
(11.4186 0.185926 0)
(11.5245 0.187222 0)
(11.5902 0.146957 0)
(11.6777 0.146469 0)
(11.6878 0.128334 0)
(11.7465 0.0901764 0)
(11.7077 0.104707 0)
(11.7575 0.0857627 0)
(11.6593 0.0691446 0)
(11.7424 0.0701232 0)
(11.6276 0.0905051 0)
(11.6047 0.0341783 0)
(11.6597 0.0803592 0)
(11.5159 0.0805456 0)
(11.4254 0.0934868 0)
(11.3748 0.0622442 0)
(9.94681 0.443153 0)
(10.6383 0.529307 0)
(11.009 0.281737 0)
(11.2286 0.164061 0)
(11.347 0.161321 0)
(11.4367 0.172657 0)
(11.523 0.132642 0)
(11.6048 0.136541 0)
(11.7148 0.120517 0)
(11.7556 0.0818519 0)
(11.8128 0.100381 0)
(11.8753 0.0851237 0)
(11.8524 0.062754 0)
(11.9513 0.0711511 0)
(11.9485 0.0902966 0)
(11.9215 0.0367072 0)
(12.0655 0.0665154 0)
(11.9835 0.111661 0)
(11.8865 0.0650635 0)
(12.0335 0.104245 0)
(9.93902 0.379736 0)
(10.5628 0.475774 0)
(10.9456 0.275653 0)
(11.2088 0.142503 0)
(11.3091 0.143782 0)
(11.379 0.157287 0)
(11.4406 0.122675 0)
(11.4854 0.119959 0)
(11.6578 0.111537 0)
(11.6955 0.0691991 0)
(11.7938 0.0965492 0)
(11.8421 0.0747679 0)
(11.8494 0.0635171 0)
(11.9292 0.0547151 0)
(11.9817 0.0966731 0)
(11.9626 0.0187131 0)
(12.148 0.0660315 0)
(12.0807 0.103436 0)
(12.0789 0.070218 0)
(12.3567 0.00726583 0)
(9.94862 0.321333 0)
(10.5037 0.426028 0)
(10.8561 0.261882 0)
(11.1453 0.122617 0)
(11.27 0.125654 0)
(11.3808 0.14941 0)
(11.3914 0.113761 0)
(11.4004 0.107927 0)
(11.5779 0.0950571 0)
(11.6415 0.0576344 0)
(11.7359 0.0880467 0)
(11.7912 0.0734288 0)
(11.8173 0.0533131 0)
(11.875 0.0557475 0)
(11.9414 0.0837839 0)
(11.9347 0.0142997 0)
(12.0733 0.052761 0)
(12.0385 0.100651 0)
(12.1321 0.0282438 0)
(12.1787 0.0132818 0)
(9.97298 0.270557 0)
(10.4459 0.375454 0)
(10.7654 0.254908 0)
(11.0618 0.0989206 0)
(11.2101 0.103087 0)
(11.385 0.134997 0)
(11.3796 0.114026 0)
(11.3666 0.0954247 0)
(11.5025 0.0816403 0)
(11.5708 0.0449333 0)
(11.6689 0.0820802 0)
(11.7677 0.0629424 0)
(11.7874 0.0538151 0)
(11.827 0.0428273 0)
(11.911 0.0830889 0)
(11.9167 0.00675279 0)
(11.9577 0.0412998 0)
(12.0223 0.0898499 0)
(12.0706 0.0230743 0)
(12.0122 -0.0141132 0)
(9.99377 0.223404 0)
(10.3688 0.332043 0)
(10.7195 0.240199 0)
(11.0346 0.0805231 0)
(11.1385 0.0775858 0)
(11.3313 0.11942 0)
(11.3686 0.108822 0)
(11.3571 0.0900036 0)
(11.4194 0.0692977 0)
(11.5075 0.0318406 0)
(11.6475 0.0687607 0)
(11.753 0.0561936 0)
(11.7499 0.0486635 0)
(11.7746 0.0419403 0)
(11.8412 0.0696062 0)
(11.9183 0.0095366 0)
(11.8791 0.0318836 0)
(11.9832 0.0722116 0)
(12.0579 0.00834061 0)
(12.128 -0.0482548 0)
(9.99689 0.185034 0)
(10.3172 0.285364 0)
(10.7207 0.21532 0)
(10.9905 0.0677922 0)
(11.0682 0.0629742 0)
(11.2706 0.0981295 0)
(11.347 0.102625 0)
(11.3553 0.0852781 0)
(11.3741 0.0618536 0)
(11.4711 0.0129141 0)
(11.609 0.0557429 0)
(11.7094 0.0488512 0)
(11.7166 0.0516777 0)
(11.7152 0.0361067 0)
(11.8 0.0587135 0)
(11.9122 0.00210833 0)
(11.853 0.0302325 0)
(11.9373 0.0447318 0)
(12.0469 -0.00996425 0)
(12.2014 -0.0758247 0)
(9.99327 0.148078 0)
(10.3056 0.238756 0)
(10.6997 0.186001 0)
(10.9163 0.0657799 0)
(11.035 0.045177 0)
(11.2421 0.0773176 0)
(11.3145 0.0880214 0)
(11.3575 0.0838688 0)
(11.3697 0.051374 0)
(11.4393 0.00270053 0)
(11.539 0.0404901 0)
(11.6505 0.0451854 0)
(11.7021 0.0464494 0)
(11.6863 0.0372859 0)
(11.8095 0.0365307 0)
(11.8706 0.00437154 0)
(11.83 0.0153844 0)
(11.9343 0.0396875 0)
(12.0119 -0.0613669 0)
(12.0363 -0.0282997 0)
(10.006 0.11548 0)
(10.2795 0.191096 0)
(10.6431 0.161228 0)
(10.8909 0.0577345 0)
(11.0502 0.0296396 0)
(11.1955 0.0549696 0)
(11.2711 0.0776908 0)
(11.3458 0.0735281 0)
(11.3633 0.0481904 0)
(11.4189 -0.00850721 0)
(11.4994 0.033234 0)
(11.6139 0.0284338 0)
(11.6835 0.048078 0)
(11.676 0.0271845 0)
(11.7932 0.0296 0)
(11.8198 -0.00183399 0)
(11.8036 0.0212524 0)
(11.944 0.00171511 0)
(12.0228 -0.0329364 0)
(11.7639 -0.0956651 0)
(10.0205 0.0848378 0)
(10.2412 0.147969 0)
(10.6115 0.130233 0)
(10.8926 0.0469159 0)
(11.0496 0.0181225 0)
(11.1417 0.0410598 0)
(11.2372 0.059632 0)
(11.3185 0.065161 0)
(11.3691 0.0398618 0)
(11.4203 -0.0139212 0)
(11.469 0.0199363 0)
(11.5959 0.0223841 0)
(11.6364 0.0383864 0)
(11.6581 0.0268066 0)
(11.7801 0.0132995 0)
(11.7711 0.00307114 0)
(11.8178 -0.00117426 0)
(11.9562 -0.00512889 0)
(11.9243 -0.0307377 0)
(11.6695 -0.0124994 0)
(10.0203 0.057242 0)
(10.2211 0.104138 0)
(10.6023 0.0975145 0)
(10.8675 0.0357659 0)
(11.0431 0.0101812 0)
(11.1258 0.0263818 0)
(11.2104 0.0411776 0)
(11.3016 0.0535245 0)
(11.3824 0.0286922 0)
(11.411 -0.0156281 0)
(11.4349 0.00929492 0)
(11.5761 0.0144638 0)
(11.5881 0.0327216 0)
(11.659 0.0215855 0)
(11.7877 -0.00183315 0)
(11.7326 0.00305494 0)
(11.8546 -0.0214368 0)
(11.9435 -0.0049778 0)
(11.8002 -0.0333437 0)
(11.7955 0.035815 0)
(10.0156 0.0323467 0)
(10.2135 0.0579874 0)
(10.586 0.068191 0)
(10.8498 0.0213332 0)
(11.0659 0.00257406 0)
(11.1079 0.0115145 0)
(11.1942 0.0267088 0)
(11.28 0.035757 0)
(11.3818 0.0229548 0)
(11.3906 -0.0199951 0)
(11.4403 0.00457091 0)
(11.5589 0.00171905 0)
(11.5565 0.0305229 0)
(11.6959 0.00260724 0)
(11.7519 0.000949014 0)
(11.7226 -0.0121455 0)
(11.8782 -0.0205104 0)
(11.8792 -0.023155 0)
(11.7697 -0.00347711 0)
(11.99 -0.129833 0)
(10.0157 0.00694551 0)
(10.2076 0.0155995 0)
(10.5733 0.0352943 0)
(10.8618 0.00539938 0)
(11.0741 -0.00518057 0)
(11.0748 0.00515917 0)
(11.198 0.00593966 0)
(11.2598 0.0245039 0)
(11.3788 0.00866105 0)
(11.3815 -0.0178068 0)
(11.4749 -0.0105268 0)
(11.5247 0.00267145 0)
(11.5525 0.0133035 0)
(11.719 0.00174262 0)
(11.6975 -0.0141816 0)
(11.7456 -0.0084442 0)
(11.8715 -0.0485104 0)
(11.7985 -0.00183402 0)
(11.8765 -0.0733632 0)
(12.0573 -0.0991292 0)
(10.0119 -0.0160348 0)
(10.2058 -0.0301017 0)
(10.5872 0.00369772 0)
(10.8688 -0.0132695 0)
(11.0477 -0.00460217 0)
(11.067 -0.0100137 0)
(11.2257 -0.00943484 0)
(11.2506 0.0063263 0)
(11.3748 0.00288947 0)
(11.3857 -0.0289427 0)
(11.491 -0.00988345 0)
(11.4826 -0.00873168 0)
(11.5884 0.00821787 0)
(11.7056 -0.0152085 0)
(11.6847 -0.00534396 0)
(11.7755 -0.0397308 0)
(11.8329 -0.0279593 0)
(11.8045 -0.0400639 0)
(11.9677 -0.0583968 0)
(11.9324 -0.176927 0)
(10.0038 -0.0407016 0)
(10.2265 -0.0748845 0)
(10.5967 -0.0301965 0)
(10.8541 -0.0241956 0)
(11.0413 -0.010928 0)
(11.0954 -0.0231471 0)
(11.2407 -0.0295658 0)
(11.2445 -0.00143968 0)
(11.3705 -0.0128207 0)
(11.3979 -0.0304425 0)
(11.4931 -0.018165 0)
(11.4779 -0.0111897 0)
(11.6368 -0.0113649 0)
(11.6737 -0.0102805 0)
(11.7009 -0.0253321 0)
(11.7791 -0.0346358 0)
(11.8099 -0.0479138 0)
(11.8837 -0.0408163 0)
(11.9322 -0.0850037 0)
(11.7788 -0.0653695 0)
(10.0015 -0.0663208 0)
(10.255 -0.121637 0)
(10.582 -0.0573497 0)
(10.8561 -0.0391041 0)
(11.072 -0.018439 0)
(11.1184 -0.0391968 0)
(11.2342 -0.0428261 0)
(11.2494 -0.014299 0)
(11.3734 -0.02459 0)
(11.4257 -0.0384699 0)
(11.4932 -0.0198119 0)
(11.5068 -0.0229373 0)
(11.6446 -0.0198193 0)
(11.6542 -0.0127331 0)
(11.7291 -0.0367651 0)
(11.7684 -0.0386707 0)
(11.8418 -0.0630615 0)
(11.9086 -0.0448333 0)
(11.8883 -0.0956184 0)
(11.7938 0.00333745 0)
(10.0045 -0.0950914 0)
(10.2659 -0.16453 0)
(10.577 -0.0862861 0)
(10.9011 -0.0554414 0)
(11.0928 -0.0275945 0)
(11.1196 -0.0516797 0)
(11.2438 -0.0562503 0)
(11.2698 -0.0277509 0)
(11.3841 -0.0366233 0)
(11.4526 -0.0476176 0)
(11.4957 -0.0185033 0)
(11.5392 -0.038633 0)
(11.6241 -0.0192391 0)
(11.6792 -0.0281303 0)
(11.7563 -0.03548 0)
(11.7764 -0.0597941 0)
(11.881 -0.058661 0)
(11.8851 -0.0685353 0)
(11.8824 -0.0736766 0)
(11.8723 -0.0992135 0)
(10.0034 -0.125274 0)
(10.2754 -0.207232 0)
(10.6065 -0.118579 0)
(10.95 -0.0700968 0)
(11.0885 -0.0349519 0)
(11.1322 -0.0630205 0)
(11.2682 -0.0757235 0)
(11.2961 -0.0350756 0)
(11.4008 -0.0546842 0)
(11.4685 -0.048745 0)
(11.5177 -0.0278143 0)
(11.5673 -0.0405716 0)
(11.6242 -0.0343707 0)
(11.7267 -0.0282618 0)
(11.7638 -0.0547044 0)
(11.8059 -0.0545188 0)
(11.8796 -0.0791654 0)
(11.8859 -0.0630446 0)
(11.9312 -0.104522 0)
(11.9223 -0.12052 0)
(9.99637 -0.157202 0)
(10.306 -0.251962 0)
(10.6545 -0.150085 0)
(10.9678 -0.0834114 0)
(11.0901 -0.0402733 0)
(11.1729 -0.0826422 0)
(11.2877 -0.0864102 0)
(11.3257 -0.0517201 0)
(11.4309 -0.0598666 0)
(11.4881 -0.0650474 0)
(11.555 -0.0224231 0)
(11.5908 -0.0595521 0)
(11.6542 -0.0299596 0)
(11.7482 -0.0505042 0)
(11.7766 -0.0453554 0)
(11.8384 -0.0806536 0)
(11.8821 -0.0651733 0)
(11.932 -0.0962781 0)
(11.9698 -0.0898187 0)
(11.9673 -0.195573 0)
(9.99462 -0.194845 0)
(10.3471 -0.29578 0)
(10.6949 -0.179228 0)
(10.9765 -0.0913728 0)
(11.1267 -0.0560666 0)
(11.2156 -0.0937072 0)
(11.3073 -0.106127 0)
(11.3748 -0.0577054 0)
(11.4647 -0.078035 0)
(11.5161 -0.0655995 0)
(11.5881 -0.0341991 0)
(11.6149 -0.0590628 0)
(11.6863 -0.0457488 0)
(11.7655 -0.0478032 0)
(11.8224 -0.0658624 0)
(11.8643 -0.0739673 0)
(11.9176 -0.0886317 0)
(11.989 -0.0928619 0)
(11.9931 -0.119522 0)
(11.9785 -0.125667 0)
(10.0068 -0.236022 0)
(10.3787 -0.341816 0)
(10.7343 -0.198906 0)
(11.0083 -0.106841 0)
(11.1796 -0.0710593 0)
(11.2509 -0.110444 0)
(11.3498 -0.118326 0)
(11.4277 -0.07179 0)
(11.491 -0.0851665 0)
(11.5459 -0.0763855 0)
(11.6157 -0.0360389 0)
(11.6479 -0.0689597 0)
(11.7211 -0.0515914 0)
(11.8127 -0.0575418 0)
(11.8708 -0.0742852 0)
(11.9008 -0.0777461 0)
(11.9685 -0.103424 0)
(12.0153 -0.0944793 0)
(12.0182 -0.140982 0)
(12.007 -0.0679434 0)
(10.0344 -0.282823 0)
(10.3966 -0.387051 0)
(10.7937 -0.214292 0)
(11.0466 -0.124526 0)
(11.2398 -0.0900065 0)
(11.2833 -0.124575 0)
(11.407 -0.13347 0)
(11.4619 -0.0817428 0)
(11.5177 -0.0917442 0)
(11.5758 -0.0876519 0)
(11.6522 -0.0382508 0)
(11.693 -0.0820587 0)
(11.7723 -0.0535795 0)
(11.8727 -0.0760054 0)
(11.9089 -0.0704458 0)
(11.9514 -0.0978241 0)
(12.009 -0.0935657 0)
(12.0372 -0.126195 0)
(12.0539 -0.12192 0)
(12.0285 -0.144944 0)
(10.0614 -0.335871 0)
(10.4111 -0.431609 0)
(10.8689 -0.225871 0)
(11.082 -0.145137 0)
(11.3197 -0.112031 0)
(11.3014 -0.137231 0)
(11.4752 -0.148923 0)
(11.4754 -0.087156 0)
(11.5642 -0.102934 0)
(11.6098 -0.0936935 0)
(11.7178 -0.0495965 0)
(11.7376 -0.0868594 0)
(11.8493 -0.0683203 0)
(11.9144 -0.0772373 0)
(11.9609 -0.0834077 0)
(11.9926 -0.0971025 0)
(12.0442 -0.104558 0)
(12.0728 -0.129347 0)
(12.0917 -0.139473 0)
(12.0683 -0.18262 0)
(10.0687 -0.394486 0)
(10.436 -0.474847 0)
(10.9458 -0.239266 0)
(11.1512 -0.169453 0)
(11.3903 -0.133038 0)
(11.3172 -0.149069 0)
(11.5555 -0.161974 0)
(11.4871 -0.0935037 0)
(11.6401 -0.112597 0)
(11.655 -0.105962 0)
(11.8041 -0.0562023 0)
(11.7785 -0.0975657 0)
(11.9339 -0.0759225 0)
(11.9328 -0.0849202 0)
(12.0198 -0.0873603 0)
(11.9953 -0.104257 0)
(12.0839 -0.106828 0)
(12.0605 -0.139366 0)
(12.0889 -0.148468 0)
(12.0323 -0.219894 0)
(10.0528 -0.457278 0)
(10.4856 -0.519311 0)
(11.0423 -0.256695 0)
(11.2428 -0.1939 0)
(11.4197 -0.151083 0)
(11.3746 -0.163256 0)
(11.6253 -0.174531 0)
(11.5213 -0.09961 0)
(11.7337 -0.125831 0)
(11.6988 -0.115617 0)
(11.8653 -0.066266 0)
(11.8003 -0.10365 0)
(11.9586 -0.0858799 0)
(11.8917 -0.0885752 0)
(11.9925 -0.0907144 0)
(11.8944 -0.10937 0)
(11.9872 -0.103876 0)
(11.8675 -0.150094 0)
(11.8881 -0.135718 0)
(11.724 -0.25837 0)
(10.0255 -0.526732 0)
(10.5666 -0.562386 0)
(11.1579 -0.277277 0)
(11.3141 -0.214921 0)
(11.4511 -0.170048 0)
(11.4773 -0.180234 0)
(11.6585 -0.182504 0)
(11.5685 -0.110581 0)
(11.7677 -0.135745 0)
(11.6468 -0.121411 0)
(11.794 -0.0744393 0)
(11.666 -0.10497 0)
(11.7569 -0.089957 0)
(11.6272 -0.0857272 0)
(11.6804 -0.091958 0)
(11.5083 -0.1005 0)
(11.5481 -0.10565 0)
(11.3555 -0.130935 0)
(11.3177 -0.145302 0)
(11.0832 -0.20029 0)
(9.99992 -0.604747 0)
(10.6822 -0.599529 0)
(11.2716 -0.300238 0)
(11.3763 -0.23632 0)
(11.4985 -0.194552 0)
(11.5169 -0.194253 0)
(11.5549 -0.184044 0)
(11.4447 -0.118934 0)
(11.5146 -0.13491 0)
(11.2813 -0.116329 0)
(11.3625 -0.0741097 0)
(11.1444 -0.096341 0)
(11.1537 -0.0817097 0)
(10.9704 -0.0777089 0)
(10.9683 -0.0805146 0)
(10.7433 -0.0890216 0)
(10.7432 -0.0915345 0)
(10.4983 -0.115522 0)
(10.4307 -0.126204 0)
(10.1417 -0.158892 0)
(10.0057 -0.693457 0)
(10.8235 -0.633867 0)
(11.347 -0.331855 0)
(11.3466 -0.262262 0)
(11.3403 -0.212417 0)
(11.1995 -0.191611 0)
(11.0384 -0.169076 0)
(10.8391 -0.111297 0)
(10.7503 -0.11632 0)
(10.441 -0.0977059 0)
(10.4564 -0.0629254 0)
(10.1858 -0.0773107 0)
(10.1477 -0.0665691 0)
(9.94357 -0.0633362 0)
(9.9058 -0.0644762 0)
(9.66498 -0.0723278 0)
(9.63785 -0.074171 0)
(9.3738 -0.0961138 0)
(9.28565 -0.0961965 0)
(8.96652 -0.143688 0)
(10.085 -0.8072 0)
(10.8971 -0.668296 0)
(11.1613 -0.355648 0)
(10.8688 -0.263058 0)
(10.5939 -0.195181 0)
(10.2502 -0.158983 0)
(9.93682 -0.133185 0)
(9.67554 -0.0867342 0)
(9.49615 -0.0858674 0)
(9.17971 -0.0727352 0)
(9.1562 -0.0462962 0)
(8.88202 -0.0554507 0)
(8.82646 -0.0494967 0)
(8.62704 -0.0471691 0)
(8.57003 -0.0472075 0)
(8.34088 -0.0539129 0)
(8.29501 -0.0569411 0)
(8.03902 -0.0699059 0)
(7.93363 -0.0788504 0)
(7.63089 -0.0853296 0)
(10.1658 -0.948693 0)
(10.5523 -0.667777 0)
(10.2817 -0.329496 0)
(9.61933 -0.214443 0)
(9.13342 -0.14278 0)
(8.69549 -0.107944 0)
(8.34128 -0.0892533 0)
(8.07912 -0.057155 0)
(7.87841 -0.0545092 0)
(7.60137 -0.0482831 0)
(7.55796 -0.0293642 0)
(7.31761 -0.0349998 0)
(7.2617 -0.0331271 0)
(7.0829 -0.0313613 0)
(7.02146 -0.0305218 0)
(6.82242 -0.0364624 0)
(6.7668 -0.038522 0)
(6.53571 -0.0473052 0)
(6.43367 -0.0535068 0)
(6.14196 -0.0533707 0)
(9.85951 -1.02252 0)
(9.33463 -0.57702 0)
(8.49033 -0.24057 0)
(7.62353 -0.132717 0)
(7.10233 -0.0792766 0)
(6.69865 -0.0574122 0)
(6.39032 -0.0491393 0)
(6.16868 -0.0302937 0)
(5.9971 -0.0279319 0)
(5.78253 -0.0272 0)
(5.73538 -0.014775 0)
(5.55305 -0.0181751 0)
(5.50488 -0.0188576 0)
(5.35907 -0.0173742 0)
(5.30605 -0.0162924 0)
(5.1489 -0.0208761 0)
(5.09255 -0.0218629 0)
(4.90353 -0.0269374 0)
(4.81558 -0.0306668 0)
(4.55256 -0.0291609 0)
(8.59991 -0.872096 0)
(6.94366 -0.383459 0)
(5.82011 -0.121187 0)
(5.04565 -0.0522824 0)
(4.65728 -0.0272955 0)
(4.38047 -0.0197771 0)
(4.16935 -0.019033 0)
(4.01594 -0.0105242 0)
(3.90333 -0.00919286 0)
(3.76423 -0.011166 0)
(3.72593 -0.00456682 0)
(3.61382 -0.00632846 0)
(3.57794 -0.00783827 0)
(3.47724 -0.0067402 0)
(3.44058 -0.00585425 0)
(3.33524 -0.00857869 0)
(3.2885 -0.00876088 0)
(3.15824 -0.0110115 0)
(3.09145 -0.0122645 0)
(2.89538 -0.0112947 0)
(5.32816 -0.309436 0)
(2.98317 -0.0606838 0)
(2.19934 0.00179327 0)
(1.84478 0.00319312 0)
(1.70631 0.00140902 0)
(1.61305 0.00065254 0)
(1.53508 -0.000946837 0)
(1.4754 0.00048479 0)
(1.43993 0.000569065 0)
(1.3896 -0.0010555 0)
(1.37152 0.000629391 0)
(1.33684 8.03468e-05 0)
(1.32123 -0.000598967 0)
(1.28052 -0.000201655 0)
(1.26654 0.000152672 0)
(1.22728 -0.000494651 0)
(1.2048 -0.000298678 0)
(1.15319 -0.000585386 0)
(1.12222 -0.000381647 0)
(1.04398 0.00622325 0)
(1.22542 0.0773356 0)
(1.6258 -0.0338304 0)
(1.70131 -0.00508961 0)
(1.49021 0.0142392 0)
(1.99723 0.697888 0)
(2.81133 1.50036 0)
(3.89319 1.37095 0)
(4.71825 1.28959 0)
(5.83 1.43434 0)
(6.65561 1.58277 0)
(7.5258 1.7946 0)
(8.40881 1.78762 0)
(9.13376 1.52405 0)
(10.043 0.907814 0)
(10.6528 0.243983 0)
(10.7345 -0.398656 0)
(10.8568 -1.22204 0)
(10.6836 -1.83899 0)
(10.2909 -2.35655 0)
(10.539 -2.86201 0)
(10.4223 -3.43488 0)
(11.1613 -4.05231 0)
(11.788 -4.61249 0)
(12.5878 -4.99808 0)
(13.1685 -5.73953 0)
(13.3503 -6.1473 0)
(12.8808 -6.38742 0)
(12.5252 -6.56147 0)
(12.3829 -6.60709 0)
(11.7725 -6.70942 0)
(11.842 -6.57681 0)
(11.44 -6.72229 0)
(11.7064 -6.69935 0)
(11.3711 -6.52457 0)
(11.3211 -6.39863 0)
(11.6727 -6.27896 0)
(12.0453 -6.10948 0)
(12.5018 -5.84931 0)
(12.8017 -5.28865 0)
(13.0472 -4.51252 0)
(13.0742 -3.73688 0)
(13.0965 -2.74251 0)
(12.8986 -1.74626 0)
(12.5742 -0.795586 0)
(12.0772 0.148787 0)
(11.3137 0.842593 0)
(10.4765 1.34186 0)
(9.76073 1.74647 0)
(8.98068 1.94715 0)
(8.35133 1.93454 0)
(7.79912 2.11896 0)
(7.27258 2.14863 0)
(6.74651 1.74793 0)
(6.46834 1.80447 0)
(6.27167 2.15558 0)
(5.87622 2.16885 0)
(5.25039 1.41583 0)
(4.85401 0.927931 0)
(5.03579 2.11994 0)
(5.26473 3.50827 0)
(5.4258 4.13265 0)
(5.34273 4.50685 0)
(5.24585 5.10179 0)
(5.3155 5.75392 0)
(5.48443 6.19655 0)
(5.50425 6.26738 0)
(5.36658 6.31353 0)
(5.01261 6.9791 0)
(5.06298 7.66632 0)
(5.58062 7.95297 0)
(5.94074 8.15171 0)
(6.43943 7.77081 0)
(6.91023 6.58683 0)
(7.03336 5.43061 0)
(6.97866 4.56132 0)
(7.09625 3.39149 0)
(7.18753 1.6211 0)
(7.08003 -0.333143 0)
(7.04988 -1.99112 0)
(7.03845 -3.43444 0)
(6.73562 -5.1677 0)
(6.29476 -6.66701 0)
(6.28998 -7.12355 0)
(6.39585 -7.39518 0)
(6.16777 -8.5621 0)
(5.67237 -9.58309 0)
(5.56395 -9.12046 0)
(5.58085 -8.16589 0)
(5.44905 -7.53909 0)
(5.41991 -7.37472 0)
(5.22665 -8.08007 0)
(5.15246 -8.99049 0)
(5.32569 -9.21254 0)
(5.35258 -9.42047 0)
(5.52628 -9.44608 0)
(5.73494 -9.13067 0)
(5.9013 -9.05584 0)
(5.96573 -8.87329 0)
(6.06665 -7.75639 0)
(6.1221 -6.28075 0)
(6.14886 -5.08486 0)
(6.19574 -4.09657 0)
(6.24881 -2.9881 0)
(6.2552 -1.17931 0)
(6.18093 1.13177 0)
(6.14715 2.47866 0)
(6.4859 3.00942 0)
(6.89119 4.06428 0)
(7.02305 5.54573 0)
(6.98588 6.51351 0)
(6.99594 6.89594 0)
(7.21541 7.39401 0)
(7.6464 8.22564 0)
(8.09562 9.19463 0)
(8.32132 9.5634 0)
(8.28026 9.00472 0)
(8.12114 8.06512 0)
(7.84263 7.36321 0)
(7.43211 6.32146 0)
(6.81071 4.34469 0)
(5.63913 2.00881 0)
(4.90111 0.794983 0)
(5.19006 1.39748 0)
(5.25031 4.18099 0)
(5.12729 7.62145 0)
(5.64712 9.39319 0)
(5.21197 9.95029 0)
(5.83399 9.60266 0)
(5.92799 8.46988 0)
(6.30815 7.15965 0)
(6.63976 5.63772 0)
(7.0128 4.20985 0)
(7.09007 3.28218 0)
(7.2192 2.17869 0)
(7.58727 0.24092 0)
(7.71807 -1.55969 0)
(8.20666 -2.48059 0)
(8.72861 -3.54376 0)
(8.86168 -4.70576 0)
(8.78003 -5.15179 0)
(8.3918 -5.27875 0)
(8.06088 -5.5076 0)
(7.92209 -5.51713 0)
(7.85079 -5.15753 0)
(7.60546 -5.07045 0)
(7.59548 -4.31142 0)
(7.15205 -3.98249 0)
(7.35842 -3.36948 0)
(6.76117 -3.86859 0)
(7.33836 -3.86897 0)
(6.43645 -4.51647 0)
(7.13079 -4.43647 0)
(5.7434 -5.32723 0)
(7.38371 -3.70023 0)
(4.44275 -3.55263 0)
(8.11605 -2.61104 0)
(4.25869 -4.08563 0)
(6.34914 -2.87147 0)
(5.82221 -3.49973 0)
(6.15041 -4.22493 0)
(6.49085 -4.846 0)
(6.78645 -4.50113 0)
(6.87474 -5.35865 0)
(7.07933 -5.37922 0)
(7.05707 -4.71614 0)
(7.00572 -3.80758 0)
(7.35013 -3.27133 0)
(7.78758 -2.97594 0)
(7.86917 -2.26174 0)
(7.75006 -1.66973 0)
(7.52584 -0.925826 0)
(7.70258 0.124951 0)
(8.00843 1.08609 0)
(8.42528 2.15404 0)
(8.62338 2.91939 0)
(8.656 3.3228 0)
(8.24911 3.54147 0)
(7.89385 3.74147 0)
(7.40652 3.80719 0)
(7.09411 4.15538 0)
(7.11258 4.40544 0)
(6.83671 4.13325 0)
(6.62681 4.42436 0)
(6.50307 4.66642 0)
(6.08124 4.47382 0)
(5.70326 4.46662 0)
(5.6497 3.52095 0)
(5.25083 3.54663 0)
(5.02858 5.06963 0)
(4.9927 6.7024 0)
(5.2732 6.99857 0)
(4.50612 7.69213 0)
(5.01219 8.43871 0)
(3.92068 8.66965 0)
(4.99138 7.33781 0)
(2.9026 6.7267 0)
(3.485 6.19807 0)
(2.1775 6.45358 0)
(3.08577 6.19066 0)
(1.55948 6.7451 0)
(3.06575 -0.0114531 0)
(3.07483 -0.0747246 0)
(3.38017 0.0425977 0)
(3.01379 0.0189223 0)
(2.8422 0.495399 0)
(3.45539 1.23708 0)
(4.2039 1.08965 0)
(4.60852 0.83263 0)
(5.36045 1.03046 0)
(6.18002 1.15537 0)
(7.36403 1.30844 0)
(8.56034 1.36525 0)
(9.57074 1.15335 0)
(10.3534 0.582523 0)
(10.6982 0.112676 0)
(10.4886 -0.41967 0)
(10.5752 -1.24101 0)
(10.4003 -1.81296 0)
(10.3831 -2.41707 0)
(11.0587 -3.00543 0)
(11.3494 -3.61866 0)
(12.3995 -4.26517 0)
(12.9143 -4.7979 0)
(13.384 -5.17984 0)
(13.6221 -5.78671 0)
(13.336 -6.02752 0)
(12.8916 -6.24943 0)
(12.5688 -6.48014 0)
(12.3714 -6.46272 0)
(11.6298 -6.57418 0)
(11.8726 -6.52647 0)
(11.4227 -6.69079 0)
(11.586 -6.62899 0)
(11.2266 -6.46764 0)
(11.3553 -6.4516 0)
(11.9377 -6.4563 0)
(12.3917 -6.31924 0)
(12.8346 -6.00889 0)
(13.0426 -5.401 0)
(13.2037 -4.56214 0)
(13.1916 -3.76805 0)
(13.1786 -2.73225 0)
(12.9985 -1.67735 0)
(12.7461 -0.669391 0)
(12.3178 0.392802 0)
(11.6044 1.16119 0)
(10.7326 1.66747 0)
(9.93498 2.06372 0)
(9.02325 2.24955 0)
(8.29221 2.19071 0)
(7.73913 2.34736 0)
(7.19553 2.38097 0)
(6.64693 1.90857 0)
(6.3811 1.88987 0)
(6.28216 2.27446 0)
(5.90584 2.34322 0)
(5.30851 1.64621 0)
(4.79789 0.980305 0)
(5.00163 2.00139 0)
(5.35535 3.44065 0)
(5.52761 4.13099 0)
(5.47775 4.53125 0)
(5.42275 5.09643 0)
(5.49246 5.70372 0)
(5.64244 6.16455 0)
(5.76799 6.27774 0)
(5.71269 6.40371 0)
(5.37425 7.04621 0)
(5.54675 7.54573 0)
(6.03788 7.75364 0)
(6.43084 7.99981 0)
(7.01005 7.61606 0)
(7.46261 6.48256 0)
(7.55605 5.40413 0)
(7.56627 4.56162 0)
(7.7764 3.3776 0)
(7.93997 1.63902 0)
(7.79917 -0.295997 0)
(7.68357 -1.96931 0)
(7.65611 -3.35508 0)
(7.38292 -5.00688 0)
(6.87468 -6.57954 0)
(6.75062 -7.12324 0)
(6.81412 -7.33035 0)
(6.56416 -8.40144 0)
(6.03377 -9.4749 0)
(5.83059 -9.09634 0)
(5.79702 -8.10584 0)
(5.5708 -7.48457 0)
(5.4784 -7.32454 0)
(5.26237 -8.00413 0)
(5.10678 -8.9815 0)
(5.20558 -9.2497 0)
(5.22885 -9.42474 0)
(5.30372 -9.48641 0)
(5.46173 -9.21523 0)
(5.60959 -9.05941 0)
(5.56961 -8.83584 0)
(5.62336 -7.76807 0)
(5.63797 -6.32553 0)
(5.65348 -5.11524 0)
(5.71623 -4.11257 0)
(5.71384 -2.94877 0)
(5.63319 -1.11034 0)
(5.54463 1.1051 0)
(5.5893 2.37847 0)
(6.00856 2.91871 0)
(6.42573 3.98245 0)
(6.54616 5.47553 0)
(6.53629 6.47683 0)
(6.56421 6.85388 0)
(6.79539 7.28371 0)
(7.25667 8.04961 0)
(7.75197 9.04874 0)
(8.055 9.51483 0)
(8.08455 9.01485 0)
(8.01216 8.15678 0)
(7.811 7.50274 0)
(7.43727 6.51087 0)
(6.82557 4.69451 0)
(5.72347 2.37341 0)
(5.06317 0.933521 0)
(5.27958 1.29801 0)
(5.24739 4.21245 0)
(5.14584 7.53149 0)
(5.70892 9.33329 0)
(5.40154 9.9434 0)
(6.0035 9.49237 0)
(6.15914 8.34691 0)
(6.56579 7.05326 0)
(6.99441 5.5248 0)
(7.25953 4.14262 0)
(7.35177 3.24114 0)
(7.71506 2.08508 0)
(8.12082 0.147393 0)
(8.21424 -1.68794 0)
(8.64348 -2.66038 0)
(9.05835 -3.6378 0)
(9.0095 -4.68393 0)
(8.76741 -5.06734 0)
(8.30733 -5.10855 0)
(8.00997 -5.3995 0)
(7.96118 -5.48329 0)
(7.80602 -5.07463 0)
(7.6737 -4.98073 0)
(7.4866 -4.22036 0)
(7.26262 -3.92078 0)
(7.26943 -3.35477 0)
(7.00376 -3.80159 0)
(7.35687 -3.87211 0)
(6.67992 -4.36308 0)
(7.14125 -4.41514 0)
(6.09623 -5.24111 0)
(7.12491 -3.55841 0)
(4.97373 -3.71137 0)
(7.98453 -2.53954 0)
(4.42703 -3.84503 0)
(6.79602 -3.10075 0)
(5.80904 -3.42326 0)
(6.33969 -4.18295 0)
(6.4204 -5.11616 0)
(6.83939 -4.55128 0)
(7.16118 -5.32536 0)
(7.234 -5.41693 0)
(7.38837 -4.64203 0)
(7.03557 -3.69922 0)
(7.15681 -3.36844 0)
(7.59329 -3.12446 0)
(7.81285 -2.29057 0)
(7.61616 -1.5763 0)
(7.33 -0.83465 0)
(7.1475 0.106615 0)
(7.40579 0.943853 0)
(8.0288 1.98578 0)
(8.33787 2.84148 0)
(8.45772 3.41146 0)
(8.28684 3.71574 0)
(7.86571 3.87525 0)
(7.41257 3.93607 0)
(7.05716 4.14547 0)
(6.99874 4.36582 0)
(6.8042 4.2784 0)
(6.48996 4.48787 0)
(6.4379 4.76034 0)
(6.16109 4.64747 0)
(5.7757 4.61049 0)
(5.64296 3.58345 0)
(5.18891 3.63854 0)
(5.15403 5.09745 0)
(5.10495 6.67503 0)
(5.48069 6.9907 0)
(4.64788 7.71494 0)
(5.32329 8.46948 0)
(4.39769 8.73917 0)
(5.41479 7.5603 0)
(3.46912 7.03459 0)
(3.83211 6.3743 0)
(2.4229 6.54783 0)
(4.01349 6.01677 0)
(2.61743 6.96492 0)
(5.07776 0.0150132 0)
(4.75589 -0.0637933 0)
(4.97373 0.0491732 0)
(4.942 0.14123 0)
(4.38611 0.373657 0)
(4.69924 1.03921 0)
(5.67874 1.09501 0)
(5.74571 0.754526 0)
(5.64725 0.766895 0)
(6.16255 0.679198 0)
(7.14133 0.65286 0)
(8.41418 0.75367 0)
(9.43561 0.706656 0)
(10.1607 0.337785 0)
(10.3583 0.0717434 0)
(10.258 -0.426651 0)
(10.6318 -1.26167 0)
(10.7919 -1.84744 0)
(11.3318 -2.54831 0)
(12.0857 -3.16981 0)
(12.5592 -3.85823 0)
(13.4394 -4.45145 0)
(13.4882 -4.88937 0)
(13.7641 -5.32159 0)
(13.745 -5.791 0)
(13.1572 -5.8805 0)
(12.8956 -6.15939 0)
(12.5253 -6.38684 0)
(12.1971 -6.26468 0)
(11.4753 -6.44369 0)
(11.8518 -6.4826 0)
(11.3272 -6.64953 0)
(11.372 -6.56403 0)
(11.199 -6.5149 0)
(11.538 -6.61066 0)
(12.2648 -6.69364 0)
(12.6459 -6.5221 0)
(12.9466 -6.13279 0)
(13.0989 -5.50104 0)
(13.1683 -4.58117 0)
(13.134 -3.74776 0)
(13.1316 -2.71128 0)
(12.9212 -1.58745 0)
(12.7038 -0.5467 0)
(12.4323 0.603246 0)
(11.8306 1.48459 0)
(10.881 2.01836 0)
(10.0069 2.42987 0)
(9.07215 2.62071 0)
(8.30206 2.48801 0)
(7.77491 2.57132 0)
(7.26665 2.61857 0)
(6.69094 2.09268 0)
(6.35897 1.96212 0)
(6.30039 2.38041 0)
(5.93643 2.52416 0)
(5.36328 1.88504 0)
(4.77688 1.06649 0)
(4.8984 1.85252 0)
(5.41644 3.33143 0)
(5.64639 4.1187 0)
(5.60858 4.54197 0)
(5.60452 5.08469 0)
(5.69933 5.65709 0)
(5.8248 6.11019 0)
(6.0496 6.25258 0)
(6.05581 6.47329 0)
(5.79594 7.08211 0)
(6.07335 7.39992 0)
(6.52507 7.54338 0)
(6.95148 7.8126 0)
(7.58099 7.44337 0)
(8.01451 6.37473 0)
(8.08692 5.36566 0)
(8.1429 4.51246 0)
(8.4175 3.3159 0)
(8.63905 1.6511 0)
(8.48367 -0.246871 0)
(8.30046 -1.93422 0)
(8.24682 -3.27745 0)
(8.01084 -4.84185 0)
(7.46552 -6.46297 0)
(7.22983 -7.09301 0)
(7.23668 -7.25612 0)
(6.95715 -8.23118 0)
(6.39579 -9.34209 0)
(6.09431 -9.04556 0)
(6.0074 -8.01822 0)
(5.70668 -7.39533 0)
(5.51684 -7.26172 0)
(5.31434 -7.91441 0)
(5.06661 -8.93832 0)
(5.09631 -9.27855 0)
(5.11059 -9.40856 0)
(5.09437 -9.50588 0)
(5.17979 -9.27867 0)
(5.30878 -9.05348 0)
(5.16506 -8.79057 0)
(5.14851 -7.73763 0)
(5.1489 -6.34333 0)
(5.15226 -5.16469 0)
(5.17795 -4.11593 0)
(5.11994 -2.86246 0)
(4.98433 -1.0261 0)
(4.90908 1.04974 0)
(5.07138 2.20999 0)
(5.5518 2.78031 0)
(5.95371 3.90742 0)
(6.04688 5.4225 0)
(6.05235 6.44114 0)
(6.11512 6.81306 0)
(6.37055 7.14759 0)
(6.88034 7.85863 0)
(7.42009 8.8638 0)
(7.80037 9.4232 0)
(7.89248 8.99216 0)
(7.87217 8.23486 0)
(7.73692 7.6287 0)
(7.45638 6.68313 0)
(6.83747 5.05244 0)
(5.84117 2.72802 0)
(5.23767 1.03665 0)
(5.33771 1.2543 0)
(5.2137 4.27358 0)
(5.19274 7.43197 0)
(5.68256 9.2589 0)
(5.5833 9.91493 0)
(6.13241 9.32807 0)
(6.32617 8.15587 0)
(6.75745 6.90958 0)
(7.28299 5.37173 0)
(7.42057 4.06609 0)
(7.63581 3.12312 0)
(8.16539 1.90817 0)
(8.56759 0.0790228 0)
(8.698 -1.80799 0)
(9.02532 -2.83149 0)
(9.28471 -3.6668 0)
(9.05312 -4.56753 0)
(8.72809 -4.94172 0)
(8.25216 -4.95559 0)
(8.08678 -5.32664 0)
(8.02776 -5.45469 0)
(7.79643 -5.05901 0)
(7.7599 -4.92753 0)
(7.4329 -4.15055 0)
(7.44303 -3.85248 0)
(7.212 -3.38307 0)
(7.24472 -3.7627 0)
(7.38524 -3.89232 0)
(6.8644 -4.22666 0)
(7.32093 -4.40995 0)
(6.26357 -5.0893 0)
(6.94381 -3.44581 0)
(5.477 -3.74211 0)
(7.51708 -2.51252 0)
(4.89804 -3.79996 0)
(7.00515 -3.22325 0)
(5.38422 -3.39285 0)
(6.48957 -4.15347 0)
(6.22902 -5.36613 0)
(6.80445 -4.6886 0)