/*--------------------------------*- C++ -*----------------------------------*\
| =========                 |                                                 |
| \\      /  F ield         | OpenFOAM: The Open Source CFD Toolbox           |
|  \\    /   O peration     | Version:  2.4.0                                 |
|   \\  /    A nd           | Web:      www.OpenFOAM.org                      |
|    \\/     M anipulation  |                                                 |
\*---------------------------------------------------------------------------*/
FoamFile
{
    version     2.0;
    format      ascii;
    class       volSymmTensorField;
    location    "0.034";
    object      UPrime2Mean;
}
// * * * * * * * * * * * * * * * * * * * * * * * * * * * * * * * * * * * * * //

dimensions      [0 2 -2 0 0 0 0];

internalField   nonuniform List<symmTensor> 
4400
(
(0.162127 -0.016046 0 0.00285627 0 0)
(1.7987 -0.00556348 0 0.000246044 0 0)
(2.03165 -0.00317176 0 1.15448e-05 0 0)
(2.27345 -0.00191041 0 5.68339e-06 0 0)
(2.41671 0.000146819 0 1.93137e-06 0 0)
(2.47713 -6.41069e-05 0 2.84142e-06 0 0)
(2.52667 -9.37243e-05 0 3.4855e-06 0 0)
(2.59309 0.000473197 0 1.35304e-05 0 0)
(2.97227 -0.0491207 0 0.00109781 0 0)
(4.56817 0.263122 0 0.034891 0 0)
(0.119703 0.0496911 0 0.0292864 0 0)
(0.691334 -0.0552653 0 0.0050489 0 0)
(0.978717 -0.0321729 0 0.00107708 0 0)
(1.37416 -0.0256426 0 0.000621541 0 0)
(1.73278 -0.0131128 0 0.000295943 0 0)
(1.97232 -0.00946385 0 0.000128868 0 0)
(2.09083 -0.00420137 0 9.45084e-05 0 0)
(2.40139 -0.018272 0 0.000248629 0 0)
(2.31748 -0.0429787 0 0.00243394 0 0)
(6.44018 -0.824532 0 0.205669 0 0)
(0.373252 0.11826 0 0.0396982 0 0)
(0.113021 -0.0293875 0 0.011932 0 0)
(0.199023 -0.025772 0 0.00431677 0 0)
(0.388151 -0.0331252 0 0.00306193 0 0)
(0.656819 -0.0256681 0 0.00169351 0 0)
(0.953538 -0.0207707 0 0.00076187 0 0)
(1.03914 -0.0150779 0 0.000624641 0 0)
(1.48517 -0.0158483 0 0.000796572 0 0)
(1.31195 -0.12957 0 0.0206198 0 0)
(4.13596 -0.81143 0 0.348208 0 0)
(0.456904 0.114649 0 0.0300539 0 0)
(0.0178326 0.00417547 0 0.0147993 0 0)
(0.072609 0.0101011 0 0.00730137 0 0)
(0.0658462 -0.00231994 0 0.00701539 0 0)
(0.0789683 -0.011227 0 0.00474562 0 0)
(0.238867 -0.0173295 0 0.00186224 0 0)
(0.185314 -0.015369 0 0.00213752 0 0)
(0.572643 -0.00661459 0 0.00168892 0 0)
(0.420381 -0.0769941 0 0.0372065 0 0)
(1.24609 -0.272294 0 0.341343 0 0)
(0.435198 0.0887549 0 0.0189932 0 0)
(0.0234275 0.0102861 0 0.0114509 0 0)
(0.186663 0.0294485 0 0.00652356 0 0)
(0.230539 0.0335811 0 0.00852036 0 0)
(0.230169 0.0242599 0 0.00721977 0 0)
(0.144286 0.0047244 0 0.00414876 0 0)
(0.159121 0.00436411 0 0.0020785 0 0)
(0.149314 -0.00127775 0 0.00537702 0 0)
(0.21162 0.0118901 0 0.0303858 0 0)
(0.294036 0.0934429 0 0.489081 0 0)
(0.439393 0.0708472 0 0.012007 0 0)
(0.0217762 0.00584997 0 0.0078378 0 0)
(0.208229 0.0242278 0 0.00390915 0 0)
(0.324344 0.0384173 0 0.00698065 0 0)
(0.476265 0.0406538 0 0.00695542 0 0)
(0.374369 0.0273638 0 0.00419142 0 0)
(0.477543 0.0218022 0 0.00356512 0 0)
(0.376901 0.0269872 0 0.0044739 0 0)
(0.403009 0.0964552 0 0.0497423 0 0)
(0.491222 0.316856 0 0.305932 0 0)
(0.433972 0.0549866 0 0.00738015 0 0)
(0.0184118 0.00400909 0 0.00490013 0 0)
(0.179128 0.0159949 0 0.00217642 0 0)
(0.335462 0.0295074 0 0.00379747 0 0)
(0.471109 0.031542 0 0.00378351 0 0)
(0.502255 0.0301552 0 0.00471152 0 0)
(0.616031 0.0181781 0 0.00138689 0 0)
(0.617145 0.056861 0 0.0103911 0 0)
(0.703702 0.107882 0 0.0247214 0 0)
(0.819145 0.439562 0 0.348748 0 0)
(0.42341 0.0375498 0 0.00360411 0 0)
(0.0140809 0.00311921 0 0.00326731 0 0)
(0.162835 0.00898007 0 0.00120951 0 0)
(0.329734 0.0222245 0 0.00271869 0 0)
(0.436823 0.0171778 0 0.00251173 0 0)
(0.519013 0.0238222 0 0.00240213 0 0)
(0.591497 0.0165879 0 0.00130727 0 0)
(0.694639 0.0477115 0 0.00488174 0 0)
(0.780364 0.130517 0 0.0334074 0 0)
(1.098 0.461822 0 0.274033 0 0)
(0.420434 0.0231142 0 0.00135427 0 0)
(0.0145894 0.00190356 0 0.00106799 0 0)
(0.156937 0.00504908 0 0.000410027 0 0)
(0.325724 0.0131784 0 0.000955894 0 0)
(0.418053 0.00898336 0 0.000662503 0 0)
(0.506499 0.0192024 0 0.00179436 0 0)
(0.571949 0.00798177 0 0.000740485 0 0)
(0.694689 0.052393 0 0.00669086 0 0)
(0.797143 0.122792 0 0.0220059 0 0)
(1.16078 0.424205 0 0.193853 0 0)
(0.421581 0.00724295 0 0.00019689 0 0)
(0.0137127 0.00049073 0 0.000315761 0 0)
(0.153446 0.000514373 0 0.000227223 0 0)
(0.319945 0.00638667 0 0.000403713 0 0)
(0.411178 -0.00103671 0 0.000412792 0 0)
(0.499163 0.0102297 0 0.000746553 0 0)
(0.568507 0.00480008 0 0.000458875 0 0)
(0.698742 0.044353 0 0.004289 0 0)
(0.820698 0.11153 0 0.0202207 0 0)
(1.22734 0.397137 0 0.174829 0 0)
(0.422534 -0.00708823 0 0.000128394 0 0)
(0.0135213 -0.00066659 0 0.000114615 0 0)
(0.154513 -0.00302739 0 0.000150456 0 0)
(0.318276 -0.00181138 0 0.000216491 0 0)
(0.413685 -0.00943568 0 0.000619535 0 0)
(0.498986 0.00395898 0 0.000413835 0 0)
(0.573871 -0.00084363 0 0.000630715 0 0)
(0.709097 0.0376261 0 0.00359124 0 0)
(0.85354 0.104572 0 0.015159 0 0)
(1.30277 0.352055 0 0.120434 0 0)
(0.421749 -0.0225972 0 0.00129473 0 0)
(0.0138524 -0.00203062 0 0.0010102 0 0)
(0.157388 -0.00738709 0 0.000530918 0 0)
(0.321596 -0.00950025 0 0.000464611 0 0)
(0.420982 -0.0188051 0 0.00136243 0 0)
(0.50676 -0.00495337 0 0.000517963 0 0)
(0.585131 -0.00605388 0 0.000776147 0 0)
(0.72735 0.0305098 0 0.00261361 0 0)
(0.89252 0.089543 0 0.0107865 0 0)
(1.36248 0.307017 0 0.0857252 0 0)
(0.420104 -0.0375016 0 0.00351585 0 0)
(0.0146156 -0.00356512 0 0.00271526 0 0)
(0.162563 -0.0116708 0 0.00120454 0 0)
(0.330072 -0.0177066 0 0.00152254 0 0)
(0.435391 -0.0283072 0 0.00310066 0 0)
(0.522219 -0.0123955 0 0.00111861 0 0)
(0.604653 -0.0120477 0 0.00124347 0 0)
(0.750845 0.0218421 0 0.0021297 0 0)
(0.933428 0.0731307 0 0.00707066 0 0)
(1.40692 0.257318 0 0.0589721 0 0)
(0.41811 -0.0530666 0 0.00707573 0 0)
(0.0158549 -0.00557453 0 0.00503259 0 0)
(0.170527 -0.0168872 0 0.00230562 0 0)
(0.345255 -0.0271075 0 0.00302803 0 0)
(0.455733 -0.0381625 0 0.00510125 0 0)
(0.530218 -0.021337 0 0.00232771 0 0)
(0.607517 -0.0175404 0 0.00189478 0 0)
(0.718453 0.0118631 0 0.00173619 0 0)
(0.891664 0.0559862 0 0.00446649 0 0)
(1.28506 0.190677 0 0.0337289 0 0)
(0.417391 -0.0690365 0 0.0119871 0 0)
(0.0185837 -0.00829904 0 0.00771403 0 0)
(0.183825 -0.0236833 0 0.004166 0 0)
(0.354554 -0.036937 0 0.00541198 0 0)
(0.422868 -0.0433613 0 0.00748245 0 0)
(0.427734 -0.0226562 0 0.00353359 0 0)
(0.448336 -0.0161906 0 0.00224055 0 0)
(0.471111 0.00662318 0 0.00161971 0 0)
(0.572966 0.0344791 0 0.00276913 0 0)
(0.822143 0.113276 0 0.0183032 0 0)
(0.427426 -0.087862 0 0.0189271 0 0)
(0.022301 -0.0119146 0 0.0114348 0 0)
(0.169763 -0.0282444 0 0.00684999 0 0)
(0.24455 -0.033697 0 0.00752861 0 0)
(0.200803 -0.0236973 0 0.00773849 0 0)
(0.149767 -0.00592782 0 0.00335766 0 0)
(0.151462 -0.00240328 0 0.00166601 0 0)
(0.149614 0.00432316 0 0.00113149 0 0)
(0.189221 0.0101044 0 0.00191047 0 0)
(0.297134 0.037871 0 0.00848158 0 0)
(0.452004 -0.114121 0 0.0301141 0 0)
(0.0163085 -0.00498526 0 0.0147147 0 0)
(0.0708398 -0.00917576 0 0.00763163 0 0)
(0.0569494 0.00105637 0 0.00618686 0 0)
(0.0835264 0.0144239 0 0.00490274 0 0)
(0.172069 0.0127055 0 0.00185214 0 0)
(0.241894 0.00700948 0 0.000764926 0 0)
(0.2912 -0.00112269 0 0.00062338 0 0)
(0.252083 -0.0128771 0 0.00131097 0 0)
(0.19462 -0.00661389 0 0.00366007 0 0)
(0.370584 -0.117803 0 0.0397088 0 0)
(0.10952 0.0288712 0 0.0118777 0 0)
(0.206757 0.0266955 0 0.00444701 0 0)
(0.373577 0.0310015 0 0.00274762 0 0)
(0.659877 0.0291214 0 0.00184233 0 0)
(0.909935 0.013531 0 0.000617934 0 0)
(1.01125 0.00583475 0 0.000231249 0 0)
(1.08896 -0.00549497 0 0.000247374 0 0)
(0.941024 -0.0216443 0 0.000725387 0 0)
(0.762672 -0.00722789 0 0.0018019 0 0)
(0.119281 -0.0494983 0 0.0293009 0 0)
(0.687518 0.054998 0 0.00503075 0 0)
(0.98776 0.0327797 0 0.00110908 0 0)
(1.36185 0.0241411 0 0.000549976 0 0)
(1.73236 0.0153266 0 0.000326707 0 0)
(1.95398 0.00464279 0 9.91571e-05 0 0)
(2.01381 0.00138195 0 3.86127e-05 0 0)
(2.0585 -0.00461016 0 6.32904e-05 0 0)
(1.8783 -0.0148096 0 0.000218767 0 0)
(1.6597 0.00562643 0 0.00109663 0 0)
(0.162466 0.0160728 0 0.0028581 0 0)
(1.79715 0.00551262 0 0.000246763 0 0)
(2.03492 0.00330312 0 1.15882e-05 0 0)
(2.26907 0.00161561 0 4.88795e-06 0 0)
(2.41572 0.000202429 0 1.73817e-06 0 0)
(2.47053 -0.000465647 0 1.63946e-06 0 0)
(2.47317 -0.000325672 0 1.39794e-06 0 0)
(2.46407 -0.000992365 0 2.50918e-06 0 0)
(2.36287 -0.00334989 0 9.65802e-06 0 0)
(2.15072 0.00476919 0 0.000541018 0 0)
(14.5018 -9.60826 0 8.11297 0 0)
(11.4678 -6.56505 0 9.30492 0 0)
(8.95111 -4.70455 0 9.44646 0 0)
(7.94288 -3.76827 0 9.37497 0 0)
(5.99623 -2.41278 0 8.82902 0 0)
(5.05211 -1.59678 0 8.6828 0 0)
(4.47148 -0.390939 0 7.73082 0 0)
(5.05755 0.0217949 0 6.78984 0 0)
(5.83951 -0.226611 0 5.51587 0 0)
(6.44275 -0.844666 0 4.20645 0 0)
(6.38933 -1.44292 0 3.26638 0 0)
(5.92026 -1.96029 0 2.78967 0 0)
(5.68938 -2.55879 0 2.73443 0 0)
(5.91245 -3.29823 0 2.95419 0 0)
(6.23116 -3.99049 0 3.24517 0 0)
(6.66155 -4.51174 0 3.49541 0 0)
(6.98908 -4.79481 0 3.58827 0 0)
(6.68164 -4.60097 0 3.35763 0 0)
(5.69909 -3.90924 0 2.79213 0 0)
(4.46525 -3.00071 0 2.07753 0 0)
(3.4337 -2.13151 0 1.36956 0 0)
(2.54045 -1.39899 0 0.812972 0 0)
(1.77711 -0.841697 0 0.436377 0 0)
(1.23198 -0.462457 0 0.20448 0 0)
(0.808677 -0.240352 0 0.0946866 0 0)
(0.483018 -0.1263 0 0.0457112 0 0)
(0.283877 -0.0579611 0 0.0197868 0 0)
(0.177534 -0.014472 0 0.00831462 0 0)
(0.115926 0.00604163 0 0.00723553 0 0)
(0.0764426 0.0107296 0 0.00825799 0 0)
(0.0511649 0.0087106 0 0.00716897 0 0)
(0.0356369 0.00564697 0 0.00507747 0 0)
(0.0264337 0.00339574 0 0.00330511 0 0)
(0.0210773 0.00205966 0 0.00213091 0 0)
(0.0179703 0.00132713 0 0.00140099 0 0)
(0.0161504 0.000936239 0 0.000944856 0 0)
(0.0150627 0.000725385 0 0.00065197 0 0)
(0.0143971 0.00060317 0 0.000456598 0 0)
(0.0139814 0.000524878 0 0.000322854 0 0)
(0.0137178 0.000467754 0 0.000229508 0 0)
(0.0135486 0.000421275 0 0.000163676 0 0)
(0.0134399 0.000380361 0 0.000116862 0 0)
(0.0133701 0.000343419 0 8.35482e-05 0 0)
(0.0133256 0.000309811 0 5.98679e-05 0 0)
(0.0132975 0.000279275 0 4.30135e-05 0 0)
(0.0132801 0.000251958 0 3.10381e-05 0 0)
(0.0132697 0.000227987 0 2.25474e-05 0 0)
(0.0132636 0.000207592 0 1.65559e-05 0 0)
(0.0132609 0.000190827 0 1.2341e-05 0 0)
(0.0132597 0.000177892 0 9.4223e-06 0 0)
(0.0132613 0.000168578 0 7.39088e-06 0 0)
(0.0132615 0.000163621 0 6.09379e-06 0 0)
(0.0132687 0.000161611 0 5.16932e-06 0 0)
(0.0132654 0.000166205 0 4.89861e-06 0 0)
(0.0132882 0.000169874 0 4.43935e-06 0 0)
(0.0132648 0.000189895 0 5.38898e-06 0 0)
(0.0133404 0.000190474 0 4.48444e-06 0 0)
(0.0132375 0.000247782 0 8.92721e-06 0 0)
(0.0134898 0.00020661 0 4.59626e-06 0 0)
(0.0131149 0.000377687 0 2.5465e-05 0 0)
(0.0139324 0.000142047 0 1.0355e-05 0 0)
(0.0127389 0.000662269 0 0.000128179 0 0)
(0.0152636 -0.000336143 0 0.000123038 0 0)
(0.0119164 0.00112145 0 0.000853216 0 0)
(0.0192231 -0.00259927 0 0.00119066 0 0)
(0.0108595 0.000964604 0 0.00534354 0 0)
(0.0294463 -0.0107502 0 0.00715536 0 0)
(0.0102936 -0.00194424 0 0.0243411 0 0)
(0.0469865 -0.0291967 0 0.0254452 0 0)
(0.0094424 -0.00476858 0 0.0668345 0 0)
(0.0627727 -0.0512696 0 0.0535498 0 0)
(0.00858559 0.00109041 0 0.108521 0 0)
(0.0727751 -0.0657793 0 0.0733482 0 0)
(0.0109268 0.0118772 0 0.122978 0 0)
(0.0852056 -0.0663255 0 0.0723519 0 0)
(0.0163288 0.019374 0 0.119517 0 0)
(0.0998014 -0.053502 0 0.0601783 0 0)
(0.0205735 0.0231227 0 0.113635 0 0)
(0.101131 -0.0415806 0 0.0485448 0 0)
(0.024178 0.024952 0 0.107582 0 0)
(0.0719374 -0.0277576 0 0.0377563 0 0)
(0.0290397 0.0210455 0 0.0934692 0 0)
(0.0399838 -0.0132868 0 0.0275277 0 0)
(0.0217169 0.00982266 0 0.0746136 0 0)
(0.0187518 -0.00482081 0 0.0196687 0 0)
(0.0134166 -0.00183113 0 0.0556374 0 0)
(0.00815473 -0.00207027 0 0.0133556 0 0)
(0.0112162 -0.00966069 0 0.0395253 0 0)
(0.00620026 -0.00165046 0 0.00882845 0 0)
(0.0187155 -0.0141633 0 0.0295352 0 0)
(0.0138231 -9.27714e-05 0 0.00795567 0 0)
(0.0308326 -0.0168986 0 0.0264046 0 0)
(0.0282055 -0.0016097 0 0.0100989 0 0)
(0.0270277 -0.0168984 0 0.0307208 0 0)
(0.0448779 -0.00235438 0 0.022008 0 0)
(0.0501694 -0.0342588 0 0.0425368 0 0)
(0.216508 -0.0351868 0 0.0227674 0 0)
(0.0889439 -0.0410446 0 0.0367041 0 0)
(0.198953 -0.0295547 0 0.0275306 0 0)
(0.488396 0.0348417 0 0.10174 0 0)
(10.8213 -6.90161 0 6.81051 0 0)
(8.66071 -5.48979 0 7.86386 0 0)
(7.23634 -3.55719 0 7.60787 0 0)
(6.93704 -2.83608 0 7.39298 0 0)
(6.00446 -2.08809 0 6.91476 0 0)
(5.30204 -1.5833 0 6.70125 0 0)
(5.25248 -0.920159 0 5.98314 0 0)
(5.87538 -0.817714 0 5.32296 0 0)
(6.54243 -0.989019 0 4.44511 0 0)
(6.81778 -1.2747 0 3.40966 0 0)
(6.77591 -1.68111 0 2.6745 0 0)
(6.90896 -2.32624 0 2.40867 0 0)
(7.44579 -3.16681 0 2.53912 0 0)
(8.01012 -4.01968 0 2.85358 0 0)
(8.39905 -4.72199 0 3.17975 0 0)
(8.60229 -5.15085 0 3.41292 0 0)
(8.27445 -5.15295 0 3.41084 0 0)
(7.34044 -4.63924 0 3.05309 0 0)
(6.08684 -3.77946 0 2.4223 0 0)
(4.73056 -2.84347 0 1.75625 0 0)
(3.65062 -1.98909 0 1.12531 0 0)
(2.76866 -1.26701 0 0.616328 0 0)
(1.92401 -0.720765 0 0.301082 0 0)
(1.28014 -0.362528 0 0.127512 0 0)
(0.819332 -0.161372 0 0.0510446 0 0)
(0.472469 -0.0699257 0 0.022354 0 0)
(0.253171 -0.0257763 0 0.0102789 0 0)
(0.141197 0.000379918 0 0.00763574 0 0)
(0.0864382 0.0111962 0 0.00989104 0 0)
(0.0573874 0.0118785 0 0.0112226 0 0)
(0.0407463 0.00897125 0 0.00947869 0 0)
(0.0306728 0.00598754 0 0.00664117 0 0)
(0.0243301 0.0038318 0 0.00429491 0 0)
(0.0202713 0.00245244 0 0.00272868 0 0)
(0.0176832 0.00161896 0 0.00174966 0 0)
(0.016049 0.00113148 0 0.00114267 0 0)
(0.0150193 0.000847859 0 0.000761011 0 0)
(0.0143686 0.000678486 0 0.000515926 0 0)
(0.0139547 0.000571135 0 0.000355153 0 0)
(0.0136898 0.000495914 0 0.00024697 0 0)
(0.0135199 0.00043831 0 0.00017301 0 0)
(0.0134111 0.000390579 0 0.000121814 0 0)
(0.0133424 0.000349348 0 8.61059e-05 0 0)
(0.0132995 0.000313095 0 6.11401e-05 0 0)
(0.0132736 0.00028084 0 4.36004e-05 0 0)
(0.0132587 0.000252512 0 3.12752e-05 0 0)
(0.0132511 0.00022793 0 2.26112e-05 0 0)
(0.013248 0.000207179 0 1.65393e-05 0 0)
(0.0132484 0.000190213 0 1.22923e-05 0 0)
(0.0132503 0.000177115 0 9.35899e-06 0 0)
(0.0132552 0.000167669 0 7.32148e-06 0 0)
(0.0132584 0.000162531 0 6.0162e-06 0 0)
(0.0132697 0.000160366 0 5.08587e-06 0 0)
(0.0132685 0.000164642 0 4.79786e-06 0 0)
(0.013298 0.000168005 0 4.32092e-06 0 0)
(0.0132725 0.000187487 0 5.23219e-06 0 0)
(0.0133656 0.000187032 0 4.26956e-06 0 0)
(0.0132416 0.000244139 0 8.67206e-06 0 0)
(0.0135533 0.000197792 0 4.25566e-06 0 0)
(0.0130861 0.000372642 0 2.55888e-05 0 0)
(0.0141202 0.000107766 0 1.24456e-05 0 0)
(0.0126033 0.000645062 0 0.000137296 0 0)
(0.0159255 -0.000519588 0 0.000166635 0 0)
(0.0116216 0.000944033 0 0.000963987 0 0)
(0.0218786 -0.00369188 0 0.00164068 0 0)
(0.0109631 -0.000446205 0 0.00627466 0 0)
(0.0401247 -0.0164818 0 0.0101488 0 0)
(0.0132824 -0.00921146 0 0.0298699 0 0)
(0.0825453 -0.0511171 0 0.0376753 0 0)
(0.0183636 -0.0277777 0 0.0870402 0 0)
(0.150517 -0.107652 0 0.0840043 0 0)
(0.0204387 -0.0425272 0 0.15097 0 0)
(0.242638 -0.167742 0 0.124552 0 0)
(0.0160901 -0.0397909 0 0.182486 0 0)
(0.346508 -0.200521 0 0.135775 0 0)
(0.0129616 -0.0224508 0 0.187184 0 0)
(0.415191 -0.191233 0 0.12356 0 0)
(0.0200786 -0.00200642 0 0.186546 0 0)
(0.448271 -0.170025 0 0.106501 0 0)
(0.0302263 0.0164575 0 0.186458 0 0)
(0.414503 -0.136611 0 0.0863813 0 0)
(0.0511762 0.0281848 0 0.17185 0 0)
(0.310366 -0.0809134 0 0.0624628 0 0)
(0.0557453 0.0255159 0 0.14639 0 0)
(0.187193 -0.0322085 0 0.0455435 0 0)
(0.030789 0.013349 0 0.115727 0 0)
(0.0659581 -0.00423865 0 0.0357796 0 0)
(0.00572778 -0.000678008 0 0.0823653 0 0)
(0.0177247 0.0103608 0 0.0304398 0 0)
(0.00486459 -0.00259386 0 0.059608 0 0)
(0.0298744 0.0208533 0 0.0305472 0 0)
(0.00731507 -0.00373204 0 0.0481031 0 0)
(0.0446503 0.0103086 0 0.0306169 0 0)
(0.0569235 -0.00658564 0 0.044072 0 0)
(0.078978 0.00168685 0 0.0204284 0 0)
(0.0605811 -0.0394032 0 0.0492908 0 0)
(0.17505 0.0234048 0 0.0383976 0 0)
(0.153144 -0.0789072 0 0.082016 0 0)
(0.272696 -0.0808315 0 0.0543154 0 0)
(0.480641 -0.178055 0 0.17807 0 0)
(5.76415 -2.97425 0 3.45215 0 0)
(5.76255 -3.57864 0 5.2226 0 0)
(4.6294 -2.23433 0 6.03645 0 0)
(5.15355 -1.39223 0 6.17514 0 0)
(5.50448 -0.841314 0 5.7783 0 0)
(5.91133 -0.607069 0 5.34081 0 0)
(6.43457 -0.522319 0 4.75262 0 0)
(7.0156 -0.695993 0 4.23492 0 0)
(7.40818 -0.899481 0 3.53168 0 0)
(7.72847 -1.1847 0 2.68086 0 0)
(8.32031 -1.83376 0 2.16832 0 0)
(9.14696 -2.79312 0 2.1137 0 0)
(9.91162 -3.80762 0 2.37304 0 0)
(10.3286 -4.67366 0 2.74343 0 0)
(10.4057 -5.28628 0 3.07826 0 0)
(9.93713 -5.47997 0 3.24959 0 0)
(8.85987 -5.17163 0 3.14386 0 0)
(7.56751 -4.47708 0 2.72604 0 0)
(6.36635 -3.60123 0 2.09185 0 0)
(5.11892 -2.70364 0 1.47173 0 0)
(3.97619 -1.86465 0 0.913474 0 0)
(3.04007 -1.13184 0 0.452147 0 0)
(2.10945 -0.582983 0 0.185461 0 0)
(1.34698 -0.248179 0 0.0651999 0 0)
(0.828363 -0.0753906 0 0.0228136 0 0)
(0.460348 -0.0104909 0 0.0123434 0 0)
(0.226029 0.0069286 0 0.00971119 0 0)
(0.109939 0.0128023 0 0.0115706 0 0)
(0.0612952 0.0128589 0 0.0144081 0 0)
(0.0408372 0.0098343 0 0.0143335 0 0)
(0.0310662 0.00688873 0 0.0112641 0 0)
(0.025469 0.00484551 0 0.0076767 0 0)
(0.0217401 0.00343916 0 0.00495372 0 0)
(0.0190721 0.00243353 0 0.00316565 0 0)
(0.0171565 0.00172862 0 0.0020349 0 0)
(0.0158181 0.00125527 0 0.00132103 0 0)
(0.0149092 0.000947029 0 0.000866956 0 0)
(0.014305 0.000748255 0 0.000576265 0 0)
(0.0139082 0.000616353 0 0.000387792 0 0)
(0.01365 0.000524566 0 0.000264193 0 0)
(0.0134834 0.000455673 0 0.000181736 0 0)
(0.0133772 0.000400958 0 0.000126067 0 0)
(0.0133112 0.000355304 0 8.80806e-05 0 0)
(0.0132711 0.000316052 0 6.19073e-05 0 0)
(0.0132482 0.000282084 0 4.38026e-05 0 0)
(0.0132364 0.000252625 0 3.12257e-05 0 0)
(0.0132319 0.000227384 0 2.24631e-05 0 0)
(0.013232 0.000206214 0 1.63647e-05 0 0)
(0.0132356 0.000188978 0 1.21211e-05 0 0)
(0.0132407 0.000175688 0 9.19813e-06 0 0)
(0.013249 0.000166115 0 7.17646e-06 0 0)
(0.0132551 0.000160764 0 5.87531e-06 0 0)
(0.0132703 0.000158476 0 4.95519e-06 0 0)
(0.0132713 0.000162285 0 4.64425e-06 0 0)
(0.0133075 0.000165536 0 4.17501e-06 0 0)
(0.0132795 0.000183891 0 4.99993e-06 0 0)
(0.0133903 0.000183357 0 4.06317e-06 0 0)
(0.0132436 0.000238114 0 8.20246e-06 0 0)
(0.0136182 0.000190349 0 3.98513e-06 0 0)
(0.01305 0.000361663 0 2.46546e-05 0 0)
(0.0143245 7.91478e-05 0 1.42295e-05 0 0)
(0.0124526 0.000609963 0 0.00014016 0 0)
(0.0167009 -0.000702094 0 0.000207886 0 0)
(0.0113902 0.000686898 0 0.00104207 0 0)
(0.0251774 -0.00493742 0 0.00212107 0 0)
(0.0118332 -0.00225792 0 0.00706533 0 0)
(0.0536408 -0.0233895 0 0.0136587 0 0)
(0.0193428 -0.0175341 0 0.0347603 0 0)
(0.126955 -0.0771827 0 0.0524391 0 0)
(0.0335765 -0.049894 0 0.103261 0 0)
(0.256424 -0.169065 0 0.117352 0 0)
(0.0444349 -0.0798076 0 0.178786 0 0)
(0.43236 -0.26695 0 0.173343 0 0)
(0.0422247 -0.0859738 0 0.219392 0 0)
(0.60532 -0.333973 0 0.200844 0 0)
(0.0303383 -0.0629881 0 0.235661 0 0)
(0.722965 -0.356053 0 0.203125 0 0)
(0.0335035 -0.0232153 0 0.245541 0 0)
(0.827565 -0.356069 0 0.195325 0 0)
(0.0499963 0.0224208 0 0.257251 0 0)
(0.903971 -0.337 0 0.180639 0 0)
(0.104348 0.0652311 0 0.250085 0 0)
(0.921227 -0.278084 0 0.143183 0 0)
(0.177086 0.0898799 0 0.23017 0 0)
(0.861763 -0.187016 0 0.103412 0 0)
(0.238093 0.0985129 0 0.207033 0 0)
(0.638141 -0.0949397 0 0.0762673 0 0)
(0.21485 0.0672721 0 0.170027 0 0)
(0.295697 -0.0363133 0 0.0645284 0 0)
(0.0818072 0.00563158 0 0.124464 0 0)
(0.0429169 -0.0242909 0 0.0582743 0 0)
(0.018682 -0.0322606 0 0.0937298 0 0)
(0.0803188 -0.00386378 0 0.0639747 0 0)
(0.0475055 -0.0417208 0 0.100882 0 0)
(0.113226 -0.0478126 0 0.0555967 0 0)
(0.174379 -0.0596724 0 0.0967098 0 0)
(0.249121 -0.024837 0 0.0665984 0 0)
(0.304972 -0.14677 0 0.133266 0 0)
(0.43915 -0.145251 0 0.0862965 0 0)
(0.484657 -0.280039 0 0.287951 0 0)
(2.27185 -0.771101 0 2.87148 0 0)
(4.37819 -1.18777 0 4.26368 0 0)
(4.37148 -0.850253 0 4.77743 0 0)
(4.72372 -0.223844 0 4.94499 0 0)
(5.42189 0.311781 0 4.67095 0 0)
(6.30252 0.482224 0 4.21644 0 0)
(7.13699 0.377453 0 3.72824 0 0)
(7.88836 0.098144 0 3.25621 0 0)
(8.69731 -0.286686 0 2.61498 0 0)
(9.81903 -1.01606 0 1.97836 0 0)
(10.9506 -2.11343 0 1.74544 0 0)
(11.757 -3.28632 0 1.86451 0 0)
(12.1411 -4.31227 0 2.19355 0 0)
(12.0691 -5.0741 0 2.57625 0 0)
(11.5506 -5.49829 0 2.88008 0 0)
(10.448 -5.44209 0 2.97505 0 0)
(9.07173 -4.97276 0 2.80547 0 0)
(7.82136 -4.27008 0 2.38696 0 0)
(6.76568 -3.45172 0 1.8041 0 0)
(5.65224 -2.59277 0 1.22844 0 0)
(4.44432 -1.74318 0 0.722171 0 0)
(3.38136 -0.979598 0 0.311998 0 0)
(2.33494 -0.421315 0 0.0959046 0 0)
(1.43821 -0.114403 0 0.0260145 0 0)
(0.842553 0.0194875 0 0.0158446 0 0)
(0.450317 0.0516469 0 0.0203017 0 0)
(0.20641 0.0396326 0 0.0218253 0 0)
(0.0885905 0.0235323 0 0.0221786 0 0)
(0.0450194 0.0125827 0 0.0212224 0 0)
(0.0305418 0.00649462 0 0.0174448 0 0)
(0.0248305 0.00399544 0 0.0123244 0 0)
(0.021682 0.00310821 0 0.00805063 0 0)
(0.0194949 0.00258773 0 0.00518801 0 0)
(0.0178108 0.00209365 0 0.00336424 0 0)
(0.0164866 0.00163718 0 0.00219089 0 0)
(0.0154715 0.00126121 0 0.00142644 0 0)
(0.0147243 0.000980627 0 0.000931048 0 0)
(0.0141963 0.000781459 0 0.000612088 0 0)
(0.0138351 0.00064186 0 0.00040666 0 0)
(0.0135941 0.000541869 0 0.00027348 0 0)
(0.0134369 0.000466753 0 0.000185975 0 0)
(0.0133372 0.000407611 0 0.000127739 0 0)
(0.0132758 0.000358924 0 8.8497e-05 0 0)
(0.01324 0.000317574 0 6.17442e-05 0 0)
(0.013221 0.000282247 0 4.34204e-05 0 0)
(0.0132128 0.000251904 0 3.07954e-05 0 0)
(0.0132119 0.000226098 0 2.2058e-05 0 0)
(0.0132155 0.000204552 0 1.60087e-05 0 0)
(0.0132225 0.00018709 0 1.18195e-05 0 0)
(0.0132308 0.000173619 0 8.94184e-06 0 0)
(0.0132425 0.000163934 0 6.96103e-06 0 0)
(0.0132517 0.000158332 0 5.67589e-06 0 0)
(0.0132707 0.000155957 0 4.78197e-06 0 0)
(0.0132738 0.00015912 0 4.44024e-06 0 0)
(0.0133163 0.000162532 0 4.00904e-06 0 0)
(0.0132859 0.000179014 0 4.68877e-06 0 0)
(0.0134139 0.000179852 0 3.88864e-06 0 0)
(0.0132443 0.000229054 0 7.45368e-06 0 0)
(0.0136826 0.000186628 0 3.79049e-06 0 0)
(0.0130094 0.000341397 0 2.17816e-05 0 0)
(0.0145419 7.05238e-05 0 1.36977e-05 0 0)
(0.0122962 0.000545957 0 0.000124874 0 0)
(0.0176228 -0.000797977 0 0.000209317 0 0)
(0.011313 0.000334 0 0.000955571 0 0)
(0.0297103 -0.00591651 0 0.00222416 0 0)
(0.0147653 -0.00469173 0 0.00671687 0 0)
(0.0750622 -0.0303124 0 0.0150322 0 0)
(0.0385338 -0.0311536 0 0.0351831 0 0)
(0.202362 -0.1074 0 0.0611846 0 0)
(0.0889843 -0.0950522 0 0.114304 0 0)
(0.41303 -0.241078 0 0.145368 0 0)
(0.126556 -0.15894 0 0.215642 0 0)
(0.601842 -0.368057 0 0.231126 0 0)
(0.127222 -0.178449 0 0.288015 0 0)
(0.712872 -0.442685 0 0.292999 0 0)
(0.127224 -0.159738 0 0.33155 0 0)
(0.819293 -0.484476 0 0.315571 0 0)
(0.12604 -0.130628 0 0.358024 0 0)
(0.958176 -0.525844 0 0.321948 0 0)
(0.109419 -0.0902083 0 0.388414 0 0)
(1.1428 -0.557345 0 0.328789 0 0)
(0.109884 -0.0364461 0 0.38982 0 0)
(1.36552 -0.574421 0 0.296533 0 0)
(0.128298 0.0101593 0 0.364866 0 0)
(1.62064 -0.547794 0 0.243382 0 0)
(0.210174 0.0595308 0 0.332199 0 0)
(1.82267 -0.441833 0 0.179377 0 0)
(0.347188 0.089863 0 0.288564 0 0)
(1.78341 -0.251672 0 0.125364 0 0)
(0.384675 0.0820092 0 0.243053 0 0)
(1.19144 -0.0696197 0 0.104416 0 0)
(0.166589 0.00705213 0 0.187674 0 0)
(0.250982 -0.0449833 0 0.10238 0 0)
(0.110477 -0.04301 0 0.15653 0 0)
(0.204706 0.0424219 0 0.191852 0 0)
(0.159788 -0.0765517 0 0.168576 0 0)
(0.440803 -0.176921 0 0.140697 0 0)
(0.582454 -0.30792 0 0.245177 0 0)
(0.625922 -0.243655 0 0.172052 0 0)
(0.325155 -0.264818 0 0.43451 0 0)
(0.887831 0.344584 0 1.4601 0 0)
(2.19856 0.243811 0 2.41163 0 0)
(3.70078 0.261642 0 3.05799 0 0)
(4.64513 0.592624 0 3.48119 0 0)
(5.6348 0.987978 0 3.54014 0 0)
(6.82087 1.14284 0 3.26449 0 0)
(8.0876 1.05653 0 2.80235 0 0)
(9.4372 0.727269 0 2.30566 0 0)
(10.9297 0.0415427 0 1.77778 0 0)
(12.2902 -1.08706 0 1.4117 0 0)
(13.1994 -2.35875 0 1.39153 0 0)
(13.5813 -3.54175 0 1.61454 0 0)
(13.4787 -4.48915 0 1.97759 0 0)
(12.9138 -5.13076 0 2.35053 0 0)
(11.9104 -5.40619 0 2.61927 0 0)
(10.5772 -5.23442 0 2.67495 0 0)
(9.25028 -4.75838 0 2.50299 0 0)
(8.19738 -4.11582 0 2.11443 0 0)
(7.2264 -3.33487 0 1.58167 0 0)
(6.13051 -2.46554 0 1.03665 0 0)
(4.83913 -1.57556 0 0.562478 0 0)
(3.643 -0.785428 0 0.204625 0 0)
(2.51237 -0.229323 0 0.0422766 0 0)
(1.5229 0.0389752 0 0.0201589 0 0)
(0.856526 0.122522 0 0.036925 0 0)
(0.441142 0.115359 0 0.0507723 0 0)
(0.193389 0.0717927 0 0.0495263 0 0)
(0.0773447 0.0335499 0 0.0407596 0 0)
(0.0379888 0.0125366 0 0.0305961 0 0)
(0.0267637 0.00423995 0 0.0206311 0 0)
(0.022508 0.00220638 0 0.0127869 0 0)
(0.019963 0.00201193 0 0.00784068 0 0)
(0.0181823 0.00195966 0 0.00501766 0 0)
(0.0168617 0.00177261 0 0.00334381 0 0)
(0.0158482 0.00151248 0 0.00226006 0 0)
(0.0150695 0.0012474 0 0.00151895 0 0)
(0.014482 0.0010149 0 0.00100955 0 0)
(0.014049 0.000826582 0 0.00066571 0 0)
(0.01374 0.000680714 0 0.000438273 0 0)
(0.0135266 0.000569541 0 0.000289768 0 0)
(0.0133844 0.000484584 0 0.000193389 0 0)
(0.0132934 0.000417936 0 0.000130504 0 0)
(0.0132382 0.000364129 0 8.90304e-05 0 0)
(0.0132074 0.000319615 0 6.1377e-05 0 0)
(0.0131927 0.00028224 0 4.27494e-05 0 0)
(0.0131886 0.000250736 0 3.00999e-05 0 0)
(0.0131915 0.00022424 0 2.14437e-05 0 0)
(0.0131987 0.000202298 0 1.54953e-05 0 0)
(0.0132092 0.000184601 0 1.14025e-05 0 0)
(0.0132207 0.000170933 0 8.59889e-06 0 0)
(0.0132357 0.000161127 0 6.67992e-06 0 0)
(0.013248 0.000155233 0 5.42121e-06 0 0)
(0.0132707 0.000152815 0 4.56877e-06 0 0)
(0.0132761 0.00015517 0 4.19024e-06 0 0)
(0.0133243 0.000159026 0 3.82587e-06 0 0)
(0.0132921 0.000172921 0 4.31102e-06 0 0)
(0.0134358 0.000176545 0 3.74538e-06 0 0)
(0.0132451 0.000217279 0 6.50075e-06 0 0)
(0.0137423 0.000186374 0 3.67024e-06 0 0)
(0.0129725 0.000314293 0 1.76888e-05 0 0)
(0.0147434 8.06303e-05 0 1.14425e-05 0 0)
(0.0121692 0.000473204 0 9.89697e-05 0 0)
(0.0184491 -0.000788516 0 0.000180744 0 0)
(0.0113898 7.59069e-05 0 0.000771529 0 0)
(0.0334244 -0.00620741 0 0.0020278 0 0)
(0.0179395 -0.0059143 0 0.00559197 0 0)
(0.0901127 -0.0331469 0 0.014572 0 0)
(0.0554309 -0.0373297 0 0.0313442 0 0)
(0.243144 -0.121261 0 0.0648028 0 0)
(0.127312 -0.114882 0 0.113664 0 0)
(0.453587 -0.270376 0 0.170345 0 0)
(0.160462 -0.179424 0 0.234304 0 0)
(0.567439 -0.381541 0 0.294897 0 0)
(0.164456 -0.175079 0 0.328139 0 0)
(0.625757 -0.413353 0 0.389219 0 0)
(0.187561 -0.147373 0 0.385484 0 0)
(0.703068 -0.439117 0 0.424342 0 0)
(0.193825 -0.134135 0 0.421547 0 0)
(0.801183 -0.48983 0 0.439542 0 0)
(0.180638 -0.121752 0 0.46809 0 0)
(0.93963 -0.560041 0 0.468519 0 0)
(0.169466 -0.0946424 0 0.494547 0 0)
(1.14936 -0.635185 0 0.461872 0 0)
(0.148244 -0.0594585 0 0.487474 0 0)
(1.47644 -0.727418 0 0.444449 0 0)
(0.142706 0.00242012 0 0.47157 0 0)
(1.96573 -0.810429 0 0.414366 0 0)
(0.23394 0.0809469 0 0.419755 0 0)
(2.69085 -0.820305 0 0.338321 0 0)
(0.494472 0.146035 0 0.363467 0 0)
(3.42903 -0.67849 0 0.255319 0 0)
(0.830906 0.14666 0 0.31323 0 0)
(3.31407 -0.413258 0 0.206191 0 0)
(0.609818 0.028039 0 0.285976 0 0)
(1.881 -0.400103 0 0.194295 0 0)
(0.326926 -0.223337 0 0.270608 0 0)
(1.84979 -0.499543 0 0.204289 0 0)
(0.85937 -0.358267 0 0.373641 0 0)
(0.679123 -0.293171 0 0.327717 0 0)
(0.245603 -0.214937 0 0.554749 0 0)
(0.978099 0.839595 0 1.10843 0 0)
(2.03301 1.33524 0 2.11216 0 0)
(4.00493 1.70638 0 2.67429 0 0)
(5.89386 1.83682 0 2.87255 0 0)
(7.37164 1.89905 0 2.82118 0 0)
(8.69649 1.8698 0 2.48555 0 0)
(10.0157 1.61809 0 2.01856 0 0)
(11.3847 1.04766 0 1.58307 0 0)
(12.7206 0.0875061 0 1.23037 0 0)
(13.6564 -1.19358 0 1.05752 0 0)
(14.1741 -2.46793 0 1.14554 0 0)
(14.1859 -3.58235 0 1.41362 0 0)
(13.7525 -4.4425 0 1.7787 0 0)
(12.9004 -5.00005 0 2.13689 0 0)
(11.693 -5.1861 0 2.38409 0 0)
(10.4502 -4.9866 0 2.42828 0 0)
(9.31288 -4.54805 0 2.27893 0 0)
(8.4788 -3.96436 0 1.92301 0 0)
(7.58541 -3.19759 0 1.41975 0 0)
(6.48622 -2.29089 0 0.883448 0 0)
(5.11294 -1.34345 0 0.425042 0 0)
(3.76679 -0.539035 0 0.128449 0 0)
(2.56346 -0.00892866 0 0.0302123 0 0)
(1.54784 0.20763 0 0.0543365 0 0)
(0.856478 0.231805 0 0.0912036 0 0)
(0.431423 0.17836 0 0.10574 0 0)
(0.186817 0.102597 0 0.0934684 0 0)
(0.0756664 0.044135 0 0.0676806 0 0)
(0.0390833 0.0147007 0 0.0425118 0 0)
(0.0283795 0.00486344 0 0.0241209 0 0)
(0.0235569 0.00286303 0 0.0133091 0 0)
(0.0203905 0.00251013 0 0.00778114 0 0)
(0.0181941 0.00217042 0 0.0049234 0 0)
(0.0166408 0.00176985 0 0.00325024 0 0)
(0.0155416 0.00141382 0 0.0021611 0 0)
(0.0147723 0.00113849 0 0.00143165 0 0)
(0.0142362 0.00093114 0 0.000945204 0 0)
(0.0138626 0.000774141 0 0.000624512 0 0)
(0.0136038 0.000652767 0 0.000414675 0 0)
(0.0134275 0.00055646 0 0.000276906 0 0)
(0.0133107 0.000479075 0 0.000186207 0 0)
(0.0132366 0.000415572 0 0.000126194 0 0)
(0.0131928 0.000362546 0 8.61725e-05 0 0)
(0.0131702 0.000317908 0 5.93299e-05 0 0)
(0.0131618 0.000280109 0 4.1213e-05 0 0)
(0.0131629 0.000248186 0 2.89229e-05 0 0)
(0.0131702 0.000221394 0 2.05413e-05 0 0)
(0.0131813 0.000199243 0 1.48015e-05 0 0)
(0.0131954 0.000181398 0 1.08647e-05 0 0)
(0.0132104 0.00016756 0 8.16825e-06 0 0)
(0.0132288 0.000157657 0 6.33404e-06 0 0)
(0.0132441 0.000151457 0 5.11433e-06 0 0)
(0.0132703 0.000149066 0 4.31969e-06 0 0)
(0.0132781 0.000150447 0 3.89933e-06 0 0)
(0.0133315 0.000155096 0 3.63271e-06 0 0)
(0.0132981 0.000165533 0 3.87107e-06 0 0)
(0.013456 0.000173846 0 3.6587e-06 0 0)
(0.0132449 0.000202113 0 5.34548e-06 0 0)
(0.013803 0.000191843 0 3.74302e-06 0 0)
(0.0129272 0.000277132 0 1.23802e-05 0 0)
(0.0149822 0.000120189 0 7.64213e-06 0 0)
(0.0120265 0.00037919 0 6.25081e-05 0 0)
(0.0195966 -0.000644569 0 0.000118568 0 0)
(0.011774 -0.000182735 0 0.000503659 0 0)
(0.0390326 -0.0059575 0 0.00150914 0 0)
(0.024277 -0.00701094 0 0.0039952 0 0)
(0.111997 -0.0342744 0 0.0123488 0 0)
(0.0856107 -0.044085 0 0.0261611 0 0)
(0.297553 -0.133526 0 0.0653201 0 0)