/*--------------------------------*- C++ -*----------------------------------*\
| =========                 |                                                 |
| \\      /  F ield         | OpenFOAM: The Open Source CFD Toolbox           |
|  \\    /   O peration     | Version:  2.4.0                                 |
|   \\  /    A nd           | Web:      www.OpenFOAM.org                      |
|    \\/     M anipulation  |                                                 |
\*---------------------------------------------------------------------------*/
FoamFile
{
    version     2.0;
    format      ascii;
    class       volScalarField;
    location    "0.057";
    object      nuSgs;
}
// * * * * * * * * * * * * * * * * * * * * * * * * * * * * * * * * * * * * * //

dimensions      [0 2 -1 0 0 0 0];

internalField   nonuniform List<scalar> 
4400
(
0.00205067
0.00193949
0.00169369
0.00153498
0.00142718
0.00137449
0.00133193
0.0013095
0.00132933
0.00130372
0.00139264
0.00173187
0.00172413
0.00167191
0.00158254
0.00152706
0.00147597
0.00144746
0.00145268
0.00141926
0.000711028
0.0011862
0.00136232
0.00141819
0.00140559
0.00137959
0.00134158
0.00132143
0.0013191
0.00128879
0.0002653
0.000648073
0.000865184
0.00101294
0.00108647
0.00111723
0.00111513
0.00111665
0.00111831
0.00110411
8.59517e-05
0.000261126
0.000425198
0.000570473
0.00069693
0.000772438
0.000808554
0.000845495
0.000865775
0.000864677
2.50167e-05
8.71168e-05
0.000154699
0.000230953
0.000347299
0.000413436
0.000478404
0.000518395
0.000568303
0.000587039
7.70042e-06
2.59597e-05
4.46894e-05
7.11883e-05
0.000124142
0.000158511
0.000215697
0.000234604
0.000279104
0.000320533
4.22705e-06
1.00054e-05
1.31992e-05
1.87494e-05
3.11206e-05
4.81441e-05
6.70022e-05
7.11388e-05
9.62329e-05
0.000125621
3.86831e-06
7.2266e-06
8.50439e-06
9.26413e-06
1.1403e-05
1.62305e-05
1.76582e-05
1.84848e-05
2.3049e-05
3.14327e-05
3.82262e-06
7.7595e-06
8.49104e-06
8.56809e-06
9.32477e-06
1.05073e-05
1.08049e-05
1.07567e-05
1.12116e-05
1.26248e-05
3.79844e-06
8.21099e-06
8.71156e-06
8.67435e-06
9.24266e-06
1.01308e-05
1.0407e-05
1.09403e-05
1.19578e-05
1.8112e-05
3.85308e-06
8.62988e-06
9.18708e-06
9.56619e-06
1.07306e-05
1.3091e-05
1.6465e-05
2.27985e-05
3.1927e-05
5.7468e-05
4.22334e-06
1.13638e-05
1.42968e-05
1.95397e-05
2.88853e-05
4.54119e-05
6.18216e-05
8.92717e-05
0.000115195
0.000186957
7.82298e-06
2.74699e-05
4.53596e-05
7.13381e-05
0.000110373
0.000168158
0.000206184
0.000269079
0.000309832
0.000427837
2.57135e-05
8.96655e-05
0.000155711
0.000230749
0.00033751
0.000421625
0.000483544
0.000552964
0.0005951
0.000712969
8.80787e-05
0.000265746
0.000429786
0.000566836
0.000700548
0.000766754
0.000824922
0.000864711
0.000891419
0.000964189
0.000270915
0.000646531
0.000870382
0.00100713
0.00109242
0.00110919
0.00112951
0.00112783
0.00113313
0.00115617
0.000723311
0.00118038
0.00136522
0.00141355
0.00140727
0.00137136
0.00135469
0.00131662
0.00130876
0.00129012
0.00139732
0.00172712
0.00172499
0.00166647
0.00158862
0.00151179
0.00148142
0.00142209
0.00140212
0.00134163
0.00205327
0.00193564
0.00169631
0.00152799
0.00143013
0.00135626
0.00132467
0.00126267
0.00123066
0.00112679
0.000563415
0.00042366
0.000355381
0.000378328
0.000404497
0.000405771
0.000381933
0.000363874
0.000339018
0.000338649
0.000377089
0.000349681
0.000270673
0.000205595
0.000177699
0.000169523
0.000169108
0.000171381
0.000179173
0.000208866
0.000219575
0.000208133
0.000157952
0.000104209
8.82951e-05
9.7374e-05
0.000153106
0.000240485
0.000257148
0.0002459
0.00020836
0.000177722
0.000164527
0.000156804
0.00015085
0.0001509
0.00015466
0.000163078
0.000162306
0.000153047
0.000134013
0.000123998
0.000120686
0.000120919
0.000119979
0.00011904
0.000115176
0.000111792
0.000101157
9.05685e-05
7.73576e-05
6.9344e-05
5.98354e-05
5.18661e-05
4.64894e-05
3.74327e-05
3.4948e-05
2.80623e-05
2.63086e-05
2.12136e-05
1.98952e-05
1.73419e-05
1.65175e-05
1.535e-05
1.47338e-05
1.45352e-05
1.44132e-05
1.44483e-05
1.48109e-05
1.49432e-05
1.53877e-05
1.56908e-05
1.64019e-05
1.65711e-05
1.75535e-05
1.75247e-05
1.82776e-05
1.84229e-05
1.9557e-05
1.95127e-05
2.02568e-05
2.05621e-05
2.16964e-05
2.25112e-05
2.49014e-05
2.57355e-05
2.92074e-05
3.12031e-05
3.07809e-05
2.86351e-05
2.50892e-05
1.60339e-05
1.11135e-05
8.2898e-06
1.0024e-05
1.02058e-05
1.52356e-05
2.19675e-05
7.13367e-05
0.000221819
0.000670207
0.000581261
0.000517901
0.000483024
0.000442249
0.000419027
0.000384025
0.000332611
0.000318815
0.000304833
0.000353185
0.000364273
0.000300489
0.000228516
0.000192629
0.000180403
0.000181923
0.00018789
0.00020725
0.000231208
0.000225704
0.000189318
0.00012157
8.85605e-05
8.70645e-05
0.000115269
0.000212831
0.00026917
0.000264508
0.000235705
0.000188725
0.00016713
0.000159135
0.000155552
0.000149235
0.000147135
0.000148489
0.000156275
0.000160332
0.000156916
0.000141696
0.000127104
0.000121579
0.000121188
0.000119494
0.000118838
0.000115376
0.000111665
9.9327e-05
8.94307e-05
7.57855e-05
6.84238e-05
5.97283e-05
5.14008e-05
4.71831e-05
3.88554e-05
3.3568e-05
2.86747e-05
2.2689e-05
2.07835e-05
1.68708e-05
1.6078e-05
1.52499e-05
1.46542e-05
1.43649e-05
1.41865e-05
1.42619e-05
1.43831e-05
1.48861e-05
1.50654e-05
1.54456e-05
1.57098e-05
1.65657e-05
1.68846e-05
1.78888e-05
1.80961e-05
1.91042e-05
1.94016e-05
2.11486e-05
2.1264e-05
2.30315e-05
2.28395e-05
2.48641e-05
2.44048e-05
2.61611e-05
2.67437e-05
2.96368e-05
3.13736e-05
3.50365e-05
3.38016e-05
3.51329e-05
2.885e-05
2.6393e-05
1.63355e-05
1.57922e-05
1.25776e-05
2.15571e-05
2.32091e-05
6.6998e-05
0.000186304
0.000632001
0.000574232
0.000530419
0.000481811
0.000432076
0.000385589
0.000357613
0.000297009
0.000267417
0.000257763
0.000278597
0.000360709
0.000339793
0.000263555
0.000218365
0.000207428
0.000212347
0.00022952
0.000248133
0.000243874
0.000220414
0.000142006
9.4438e-05
8.22739e-05
9.09283e-05
0.000152296
0.000263093
0.000282388
0.000265896
0.000211351
0.000175376
0.000161242
0.000156962
0.000154962
0.00015004
0.000146416
0.000146539
0.000149984
0.000156802
0.000156283
0.000148173
0.000133186
0.000124227
0.000122375
0.000119731
0.000119096
0.000115379
0.000111298
9.79003e-05
8.86762e-05
7.43566e-05
6.74855e-05
5.84628e-05
5.14318e-05
4.35878e-05
3.83011e-05
2.91815e-05
2.67048e-05
2.08332e-05
1.93597e-05
1.56419e-05
1.49207e-05
1.28418e-05
1.29949e-05
1.23604e-05
1.25799e-05
1.21323e-05
1.30013e-05
1.28753e-05
1.38595e-05
1.39365e-05
1.49552e-05
1.48958e-05
1.61035e-05
1.63408e-05
1.74583e-05
1.7735e-05
1.87153e-05
1.99511e-05
2.0748e-05
2.27383e-05
2.33535e-05
2.67801e-05
2.69398e-05
3.15803e-05
3.09362e-05
3.87334e-05
3.70721e-05
4.66127e-05
4.38009e-05
5.24541e-05
4.34827e-05
4.52065e-05
3.2112e-05
3.12345e-05
2.10178e-05
3.98617e-05
2.95735e-05
7.12015e-05
0.000152595
0.000560263
0.000512008
0.000478127
0.000427779
0.000370397
0.000311056
0.000266947
0.000225774
0.000193821
0.000191792
0.000198025
0.000297216
0.000331173
0.000315821
0.000279579
0.00027121
0.000272558
0.000271378
0.000264303
0.000241949
0.000162828
0.000101666
8.01878e-05
8.10382e-05
0.000108475
0.000211731
0.000291985
0.000287856
0.000244881
0.000193937
0.000168958
0.000158943
0.000156472
0.000155021
0.000152472
0.000147991
0.000147315
0.00014834
0.000153695
0.000155303
0.000152079
0.000140154
0.000127962
0.000124956
0.000120834
0.000119971
0.00011585
0.00011138
9.61588e-05
8.70452e-05
7.21348e-05
6.65938e-05
5.63127e-05
5.09682e-05
4.1018e-05
3.68716e-05
2.80895e-05
2.48729e-05
1.8783e-05
1.71963e-05
1.30099e-05
1.23192e-05
1.06447e-05
1.08566e-05
1.01209e-05
1.06653e-05
9.7505e-06
1.10002e-05
1.03123e-05
1.1719e-05
1.12168e-05
1.28447e-05
1.24037e-05
1.44188e-05
1.44292e-05
1.6023e-05
1.60239e-05
1.77998e-05
1.82468e-05
2.00642e-05
2.05278e-05
2.28022e-05
2.39237e-05
2.567e-05
2.92397e-05
3.05076e-05
3.76849e-05
3.78092e-05
5.21756e-05
5.13e-05
8.13284e-05
7.40937e-05
0.000113908
7.5339e-05
0.000106526
6.18514e-05
6.77405e-05
4.51684e-05
6.85751e-05
0.000119456
0.00045059
0.000420303
0.000393315
0.000347561
0.000283698
0.000223121
0.000173854
0.00013828
0.000118525
0.000120947
0.000127593
0.000179487
0.000303383
0.000312043
0.000307
0.000300557
0.000289938
0.000277615
0.000251419
0.000170245
0.000106035
7.80216e-05
7.63741e-05
8.87069e-05
0.000143652
0.000265783
0.000306252
0.000289407
0.00022543
0.000185208
0.000165602
0.000157904
0.000156344
0.000154783
0.000154365
0.000152076
0.000149349
0.000149138
0.000151777
0.000154477
0.000153518
0.000145872
0.000132876
0.000128673
0.000123436
0.000121922
0.00011683
0.000111291
9.35672e-05
8.56924e-05
7.06016e-05
6.57772e-05
5.46966e-05
5.00448e-05
3.92684e-05
3.47394e-05
2.66891e-05
2.33616e-05
1.75275e-05
1.56681e-05
1.1798e-05
1.09503e-05
8.6837e-06
8.74445e-06
7.81053e-06
8.33544e-06
7.74277e-06
8.86641e-06
8.32861e-06
9.58034e-06
8.99111e-06
1.03237e-05
1.0026e-05
1.20456e-05
1.17228e-05
1.34323e-05
1.30358e-05
1.53931e-05
1.5592e-05
1.79952e-05
1.79149e-05
2.06471e-05
2.13288e-05
2.45145e-05
2.49351e-05
2.91338e-05
3.08432e-05
3.56162e-05
3.99813e-05
4.62097e-05
7.1673e-05
7.30937e-05
0.000138196
0.000122777
0.000229342
0.000179526
0.000217049
0.000122999
0.000102715
0.000113552
0.000309539
0.000292404
0.000265909
0.000217312
0.000167232
0.00012652
9.91719e-05
7.92965e-05
6.84245e-05
7.06119e-05
7.54413e-05
9.97699e-05
0.000206848
0.000283303
0.000290977
0.000286612
0.000270575
0.000231516
0.000161617
0.000103974
7.32931e-05
7.0463e-05
7.87605e-05
0.000114157
0.000198508
0.000310211
0.000317364
0.000274802
0.00020948
0.000177193
0.000161621
0.000157255
0.000156071
0.000153638
0.000154396
0.000155538
0.000153893
0.000150781
0.000151263
0.000153888
0.000153957
0.000150492
0.000139038
0.000132963
0.000126459
0.000124829
0.00011833
0.000111142
9.1266e-05
8.38577e-05
6.78164e-05
6.33667e-05
5.17913e-05
4.75577e-05
3.70656e-05
3.24395e-05
2.50497e-05
2.18367e-05
1.66333e-05
1.47951e-05
1.12783e-05
1.02594e-05
8.12525e-06
7.73024e-06
6.83251e-06
7.04375e-06
6.71506e-06
7.37611e-06
7.14801e-06
8.0704e-06
7.67507e-06
8.70664e-06
8.60109e-06
1.02094e-05
9.90072e-06
1.15302e-05
1.12832e-05
1.33908e-05
1.34345e-05
1.5511e-05
1.54336e-05
1.81491e-05
1.84985e-05
2.15844e-05
2.18893e-05
2.61881e-05
2.79414e-05
3.31542e-05
3.67813e-05
4.43324e-05
6.07158e-05
6.91486e-05
9.19492e-05
0.000105323
0.000148384
0.00016271
0.000194264
0.000182522
0.000185641
0.000134712
0.000168543
0.000156639
0.000134918
0.00010706
8.31209e-05
6.41133e-05
5.09242e-05
4.1492e-05
3.68589e-05
3.80544e-05
4.10858e-05
5.23735e-05
0.000105625
0.000201125
0.000217441
0.00021048
0.000184873
0.000135561
9.14745e-05
6.48257e-05
6.18163e-05
6.91845e-05
9.98305e-05
0.000160033
0.000270734
0.000330942
0.000322069
0.000256235
0.000197876
0.000168642
0.000156007
0.000155979
0.000155575
0.000151985
0.000151862
0.000155315
0.000155663
0.000152864
0.000151709
0.000153928
0.000155393
0.000154092
0.000143732
0.00013704
0.00013092
0.000128893
0.000118846
0.000108638
8.7713e-05
8.0733e-05
6.58396e-05
6.15185e-05
5.0095e-05
4.58368e-05
3.55435e-05
3.06326e-05
2.41312e-05
2.06158e-05
1.59423e-05
1.39718e-05
1.08792e-05
9.77229e-06
7.88008e-06
7.31412e-06
6.25097e-06
6.31101e-06
5.8886e-06
6.43729e-06
6.11554e-06
6.81416e-06
6.75787e-06
7.46506e-06
7.59298e-06
8.92645e-06
8.92663e-06
1.00256e-05
1.0301e-05
1.17485e-05
1.21333e-05
1.40372e-05
1.42541e-05
1.5919e-05
1.70949e-05
1.96706e-05
2.00442e-05
2.20484e-05
2.58202e-05
2.84213e-05
3.16599e-05
3.77124e-05
6.34844e-05
6.62333e-05
0.000125299
0.000115199
0.000218647
0.000188839
0.000221992
0.000203687
0.000199077
0.000169536
6.55214e-05
5.97889e-05
4.99103e-05
4.13395e-05
3.48793e-05
2.92206e-05
2.47071e-05
2.27804e-05
2.29889e-05
2.32358e-05
2.41956e-05
2.83826e-05
5.32703e-05
0.00011936
0.000131322
0.000125206
0.000100634
7.03845e-05
5.30821e-05
5.26693e-05
5.97734e-05
9.05191e-05
0.000146612
0.000226826
0.000320491
0.000341939
0.000313296
0.000229332
0.000188483
0.00016461
0.000153803
0.000154495
0.000155376
0.000151532
0.000150184
0.000153979
0.000155401
0.000153382
0.000152427
0.000154476
0.000156888
0.000156492
0.000147158
0.000142306
0.000135873
0.000132052
0.000116021
0.000105524
8.52367e-05
7.93561e-05
6.36977e-05
5.98042e-05
4.72799e-05
4.27977e-05
3.30408e-05
2.83046e-05
2.31406e-05
1.95227e-05
1.56775e-05
1.33086e-05
1.06291e-05
9.47869e-06
7.6908e-06
6.74575e-06
6.07826e-06
5.71623e-06
5.59934e-06
5.66149e-06
5.97034e-06
6.04812e-06
6.60307e-06
6.81614e-06
7.36705e-06
7.71837e-06
8.82042e-06
9.09705e-06
1.00486e-05
1.0619e-05
1.19597e-05
1.25523e-05
1.39106e-05
1.46495e-05
1.68904e-05
1.77169e-05
1.93335e-05
2.0347e-05
2.42826e-05
2.61606e-05
2.74348e-05
3.20736e-05
3.50782e-05
5.47322e-05
5.6568e-05
9.93577e-05
0.000101067
0.000166303
0.000177149
0.000197518
0.000211131
0.000188558
1.64588e-05
1.58565e-05
1.61754e-05
1.74555e-05
1.79389e-05
1.84805e-05
1.92001e-05
2.04987e-05
2.29351e-05
2.27795e-05
2.21169e-05
2.30364e-05
3.20048e-05
6.61601e-05
7.09403e-05
6.43296e-05
4.74502e-05
4.23559e-05
4.37957e-05
5.33076e-05
8.29609e-05
0.000140319
0.000216507
0.000296222
0.00034192
0.000344012
0.000285263
0.00021671
0.000185839
0.000162415
0.000152178
0.000153003
0.000155461
0.000152568
0.000150154
0.000153298
0.000154828
0.000153628
0.000153204
0.000155974
0.000158562
0.000158804
0.000152764
0.000149346
0.000139008
0.000132607
0.000112455
0.000102789
8.25912e-05
7.6769e-05
5.93602e-05
5.5233e-05
4.33026e-05
3.86696e-05
3.17263e-05
2.69097e-05
2.28115e-05
1.91282e-05
1.59074e-05
1.29631e-05
1.10567e-05
9.09617e-06
8.1753e-06
6.61477e-06
6.63417e-06
5.91918e-06
6.25365e-06
5.81969e-06
6.85967e-06
6.33699e-06
7.42169e-06
7.08903e-06
8.43873e-06
7.95702e-06
9.85256e-06
9.3962e-06
1.10958e-05
1.0831e-05
1.32217e-05
1.28027e-05
1.5181e-05
1.49177e-05
1.78644e-05
1.78153e-05
2.07528e-05
2.06617e-05
2.45032e-05
2.53976e-05
2.77922e-05
3.04934e-05
3.26453e-05
4.66315e-05
4.58237e-05
7.85597e-05
7.02169e-05
0.000130829
0.000125435
0.000164335
0.000219629
0.000206757
8.21323e-06
1.04643e-05
1.22663e-05
1.45347e-05
2.06484e-05
2.86892e-05
3.19243e-05
3.62481e-05
3.95317e-05
3.87287e-05
3.54548e-05
3.2908e-05
3.37411e-05
3.79926e-05
3.77023e-05
3.42961e-05
3.45567e-05
3.90105e-05
5.34657e-05
8.29667e-05
0.000133053
0.00021761
0.000289967
0.000325527
0.000348165
0.000333246
0.000249382
0.000211691
0.000185677
0.000161057
0.000149449
0.000148887
0.00015505
0.000156647
0.000154074
0.000154659
0.000155404
0.000154598
0.000154646
0.000158316
0.00016164
0.000163235
0.000158042
0.000153751
0.000139189
0.000129686
0.000108956
9.80169e-05
7.80727e-05
7.14923e-05
5.47595e-05
5.01763e-05
4.17162e-05
3.59986e-05
3.13836e-05
2.6276e-05
2.28918e-05
1.9077e-05
1.6361e-05
1.29601e-05
1.16441e-05
8.8689e-06
8.42255e-06
6.98531e-06
7.41288e-06
6.49434e-06
7.70278e-06
6.52528e-06
8.67513e-06
7.38746e-06
9.39995e-06
8.18595e-06
1.09278e-05
9.12191e-06
1.27787e-05
1.08533e-05
1.39894e-05
1.20794e-05
1.63862e-05
1.41657e-05
1.79465e-05
1.61096e-05
2.07297e-05
1.88113e-05
2.31328e-05
2.16785e-05
2.64582e-05
2.5876e-05
2.98362e-05
3.02361e-05
3.19569e-05
4.08787e-05
4.07468e-05
6.41278e-05
5.77352e-05
0.000105882
9.96647e-05
0.000132711
0.000159851
0.000191947
1.4308e-05
1.718e-05
2.20452e-05
3.18182e-05
4.97555e-05
6.10532e-05
6.48061e-05
7.0125e-05
7.2699e-05
7.11687e-05
6.64672e-05
5.98787e-05
4.85377e-05
4.17181e-05
4.11636e-05
4.30336e-05
5.03005e-05
6.7024e-05
9.49483e-05
0.00013684
0.000205054
0.000297754
0.000322331
0.000336258
0.000340765
0.000303471
0.000227705
0.000212892
0.000190737
0.00016089
0.000148708
0.000146146
0.000153023
0.000157851
0.000159587
0.000159193
0.000157972
0.000156966
0.000157526
0.000163405
0.000167087
0.00016836
0.000159617
0.000153976
0.000137154
0.00012303
0.000105706
9.13401e-05
7.29554e-05
6.38689e-05
5.25047e-05
4.59724e-05
4.11427e-05
3.48212e-05
3.21041e-05
2.64696e-05
2.36432e-05
1.93303e-05
1.71485e-05
1.31971e-05
1.23701e-05
9.27875e-06
1.01846e-05
8.44189e-06
9.92776e-06
8.32465e-06
1.08908e-05
8.4813e-06
1.25193e-05
9.98573e-06
1.35704e-05
1.09927e-05
1.5424e-05
1.18945e-05
1.74349e-05
1.39956e-05
1.87695e-05
1.50184e-05
2.15698e-05
1.72537e-05
2.30795e-05
1.89878e-05
2.6169e-05
2.15128e-05
2.79528e-05
2.40346e-05
3.12351e-05
2.76419e-05
3.32644e-05
3.10413e-05
3.499e-05
3.85193e-05
3.94311e-05
5.39995e-05
5.13243e-05
8.64295e-05
8.26057e-05
0.000114715
0.000119298
0.000149431
4.52332e-05
5.09669e-05
6.05351e-05
8.1998e-05
0.000104512
0.000113699
0.000118391
0.000124697
0.000124645
0.000121837
0.000114624
0.000104357
8.62367e-05
7.45676e-05
7.50065e-05
8.09589e-05
9.54216e-05
0.000122393
0.000155501
0.000206822
0.000299047
0.000332598
0.000333761
0.000333094
0.000325092
0.00026266
0.000217584
0.000224682
0.000204493
0.000166196
0.000148892
0.000145516
0.000148904
0.000156757
0.000161081
0.000162747
0.000162512
0.000161982
0.000164285
0.00016978
0.000171238
0.000170311
0.000158928
0.000151333
0.000134052
0.000115828
0.000101131
8.22966e-05
6.78644e-05
5.73343e-05
5.17523e-05
4.44791e-05
4.18589e-05
3.53233e-05
3.32904e-05
2.77688e-05
2.49973e-05
1.99707e-05
1.85076e-05
1.41717e-05
1.47842e-05
1.12398e-05
1.44005e-05
1.1682e-05
1.43133e-05
1.21244e-05
1.6119e-05
1.23342e-05
1.82393e-05
1.44623e-05
1.9002e-05
1.56598e-05
2.17777e-05
1.66921e-05
2.38609e-05
1.9152e-05
2.5381e-05
2.00319e-05
2.86381e-05
2.24358e-05
2.99017e-05
2.39035e-05
3.34412e-05
2.63265e-05
3.49652e-05
2.8368e-05
3.85266e-05
3.14607e-05
3.97227e-05
3.37228e-05
4.2594e-05
3.97298e-05
4.23091e-05
4.90388e-05
4.92099e-05
7.30774e-05
7.1368e-05
9.87502e-05
0.000100727
0.000119963
0.000122832
0.00012896
0.000140922
0.000169408
0.000185222
0.000189624
0.000195306
0.000196522
0.000194464
0.000187563
0.000175794
0.000162772
0.000141972
0.000131611
0.000133492
0.000142727
0.000164978
0.000191685
0.000227315
0.000300413
0.000341304
0.000343207
0.000335235
0.000321241
0.000292543
0.000223088
0.000216536
0.000239465
0.000230572
0.000182758
0.000152738
0.000145484
0.000145912
0.000152302
0.000158225
0.00016261
0.000164432
0.000166299
0.000169637
0.000173161
0.000171785
0.000169737
0.000155502
0.000143926
0.000131477
0.00010615
9.3489e-05
7.36951e-05
6.4529e-05
5.60822e-05
5.30252e-05
4.55254e-05
4.44367e-05
3.85304e-05
3.6321e-05
2.93649e-05
2.69276e-05
2.18724e-05
2.11912e-05
1.73703e-05
2.06392e-05
1.55948e-05
2.17408e-05
1.74502e-05
2.12366e-05
1.85397e-05
2.4279e-05
1.89186e-05
2.73224e-05
2.17199e-05
2.81541e-05
2.34307e-05
3.12414e-05
2.42358e-05
3.36078e-05
2.70924e-05
3.51299e-05
2.80219e-05
3.86441e-05
3.02777e-05
3.98066e-05
3.18226e-05
4.3563e-05
3.36565e-05
4.48829e-05
3.53409e-05
4.85459e-05
3.80529e-05
4.93038e-05
3.93944e-05
5.12208e-05
4.38667e-05
5.12537e-05
5.03571e-05
5.14074e-05
6.49933e-05
6.51637e-05
8.49781e-05
8.68256e-05
0.00010174
0.000246222
0.000249255
0.000258213
0.000274839
0.000279042
0.000278822
0.000277545
0.000274215
0.000266839
0.000254119
0.000238616
0.000226295
0.000210819
0.000207285
0.000210312
0.000218729
0.000236101
0.000259653
0.000308993
0.000347128
0.000353028
0.000344518
0.000315202
0.000292252
0.000245978
0.000200766
0.000218681
0.000260416
0.000267881
0.000215341
0.00016497
0.000147452
0.0001451
0.000149247
0.000154784
0.000160451
0.000164061
0.000167694
0.00017099
0.000173339
0.000170287
0.000165877
0.000152297
0.00013374
0.000124497
9.36136e-05
8.60796e-05
6.86703e-05
6.37946e-05
5.79852e-05
5.55636e-05
4.94112e-05
4.83195e-05
4.06151e-05
3.92048e-05
3.25653e-05
3.19193e-05
2.8609e-05
2.85633e-05
2.49462e-05
3.14258e-05
2.45171e-05
3.48723e-05
2.78015e-05
3.39857e-05
2.9708e-05
3.71461e-05
2.99451e-05
4.13239e-05
3.28953e-05
4.1102e-05
3.51883e-05
4.40061e-05
3.51613e-05
4.63239e-05
3.81767e-05
4.7067e-05
3.87303e-05
5.09297e-05
4.09228e-05
5.186e-05
4.26823e-05
5.59213e-05
4.40414e-05
5.74657e-05
4.63557e-05
6.15655e-05
4.80327e-05
6.21326e-05
4.91588e-05
6.43087e-05
5.29382e-05
6.19028e-05
5.56855e-05
5.78667e-05
6.55442e-05
6.5825e-05
7.60187e-05
7.75556e-05
8.79952e-05
0.000385486
0.000377147
0.000375022
0.000373833
0.000367088
0.000355261
0.000347878
0.000335237
0.000321981
0.000309072
0.000297462
0.000287832
0.000274395
0.000272021
0.000274515
0.000282614
0.000296029
0.000322721
0.000350063
0.000359496
0.000353359
0.00031489
0.000270106
0.000245197
0.000203802
0.000189462
0.000221632
0.000278777
0.000310713
0.000270073
0.000194073
0.000155404
0.000146045
0.000146886
0.000152632
0.00015818
0.000163098
0.000167455
0.000170319
0.000171895
0.000165308
0.000159061
0.00014756
0.000118653
0.000112595
8.46367e-05
7.99202e-05
6.70109e-05
6.42253e-05
5.89889e-05
5.65993e-05
5.33068e-05
5.32537e-05
4.49912e-05
5.10228e-05
4.2903e-05
4.72492e-05
4.39116e-05
4.59641e-05
4.18339e-05
5.16749e-05
4.26841e-05
5.725e-05
4.58404e-05
5.55496e-05
4.86663e-05
5.68683e-05
4.84704e-05
6.13865e-05
4.95229e-05
5.99152e-05
5.2228e-05
6.15945e-05
5.13992e-05
6.47255e-05
5.36637e-05
6.43959e-05
5.4604e-05
6.84698e-05
5.52032e-05
6.87175e-05
5.77125e-05
7.25855e-05
5.80768e-05
7.39481e-05
6.10069e-05
7.85491e-05
6.26326e-05
7.90891e-05
6.43493e-05
8.18437e-05
6.81949e-05
7.77212e-05
6.68242e-05
7.22237e-05
7.08707e-05
7.09406e-05
7.5383e-05
7.62159e-05
8.05091e-05
0.000507741
0.000483142
0.000464558
0.000441847
0.000420374
0.000401631
0.000387917
0.000373014
0.00035974
0.000347834
0.000336889
0.000326646
0.000317893
0.000317906
0.000320536
0.000327147
0.000340191
0.000353924
0.000361767
0.000354808
0.000313041
0.00023541
0.000208907
0.000196597
0.000178239
0.000182342
0.000218849
0.000281806
0.000340065
0.000342416
0.000253529
0.000181289
0.000152187
0.000146718
0.00015059
0.000156341
0.000161422
0.000165523
0.000167297
0.000166881
0.000158346
0.000144009
0.000135366
0.000103524
0.000100324
8.02873e-05
7.61147e-05
6.62693e-05
6.28346e-05
5.58624e-05
5.57757e-05
5.62897e-05
6.81935e-05
6.49608e-05
8.2209e-05
7.06177e-05
8.26822e-05
7.69146e-05
8.20692e-05
7.62385e-05
8.56933e-05
7.49989e-05
9.15166e-05
7.64231e-05
8.93947e-05
7.86998e-05
8.64401e-05
7.67667e-05
9.02608e-05
7.53406e-05
8.91385e-05
7.78158e-05
8.71768e-05
7.63131e-05
9.20362e-05
7.62347e-05
8.89046e-05
7.76868e-05
9.25095e-05
7.54241e-05
9.18013e-05
7.88065e-05
9.47985e-05
7.67145e-05
9.66561e-05
8.12524e-05
0.000101323
8.14544e-05
0.000101957
8.48811e-05
0.00010575
8.79637e-05
9.85793e-05
8.41201e-05
9.0545e-05
8.45933e-05
8.36926e-05
8.13605e-05
8.02367e-05
8.10585e-05
0.000593437
0.000546178
0.000502892
0.000466977
0.000440607
0.000418728
0.000403717
0.000389122
0.000377211
0.000367404
0.00035963
0.000351047
0.000347108
0.000347828
0.000350178
0.000355361
0.000361538
0.000361357
0.000349532
0.000295429
0.000208879
0.000164862
0.000161208
0.000163811
0.000166532
0.000178412
0.000211371
0.000274485
0.000346266
0.0003924
0.000355257
0.000250224
0.000178831
0.000152705
0.000147217
0.00015168
0.00015616
0.000158201
0.000158237
0.000152709
0.000141849
0.000125297
0.000118893
9.70099e-05
9.30565e-05
8.12829e-05
7.652e-05
7.58643e-05
7.58945e-05
7.81158e-05
8.92011e-05
8.86882e-05
0.000108407
0.00010328
0.000132169
0.000119669
0.000141581
0.000129221
0.000138087
0.000129208
0.000135792
0.000123232
0.000137795
0.000122522
0.000138996
0.000122473
0.000131839
0.000118812
0.000131556
0.000116133
0.000132763
0.000115898
0.000126437
0.000112836
0.000129332
0.000110107
0.000125385
0.000110408
0.000126235
0.000106931
0.000127139
0.00010947
0.000128551
0.000106734
0.000132389
0.000111906
0.000136659
0.000110842
0.00013796
0.000116685
0.000142558
0.00011825
0.000131695
0.000112294
0.000122157
0.000112047
0.00011022
0.000101349
9.86598e-05
9.25719e-05
0.000634875
0.000559359
0.000505246
0.0004675
0.000440788
0.000420279
0.00040665
0.000393155
0.000383021
0.000375504
0.000369275
0.000364569
0.000363454
0.000363499
0.000363049
0.000361229
0.00035324
0.000326907
0.000254125
0.000181005
0.000137487
0.000129791
0.000139312
0.000157131
0.000168646
0.000179911
0.000197738
0.000241064
0.000330298
0.000405487
0.000434214
0.000392506
0.000277604
0.000203981
0.000160564
0.000144474
0.000142265
0.000143269
0.000141658
0.000137142
0.000130151
0.000118801
0.000113924
0.000102428
9.98709e-05
0.000103837
0.000107376
0.000127423
0.000134584
0.00016183
0.000163678
0.00018595
0.000182142
0.000193751
0.000196793
0.000189953
0.00020335
0.000192866
0.000200696
0.000195738
0.000196945
0.000193605
0.000197682
0.000186487
0.000201897
0.000184424
0.000199375
0.000184261
0.000195451
0.000177955
0.000198032
0.00017633
0.000192009
0.000173993
0.000189957
0.000168477
0.000190332
0.000168611
0.000187205
0.000164677
0.000191894
0.000166123
0.000190366
0.000164029
0.000197311
0.000167315
0.000199162
0.000166224
0.000203465
0.000172429
0.000207887
0.000172594
0.000196613
0.000169986
0.000188843
0.000171588
0.000170747
0.00015957
0.000159908
0.000157035
0.000616403
0.000529423
0.000476311
0.000442837
0.000420097
0.00040327
0.000389421
0.0003767
0.000368018
0.000361341
0.0003565
0.000353718
0.000351389
0.000346666
0.000336354
0.000311326
0.000263889
0.000204804
0.00014874
0.000118528
0.000113669
0.000120408
0.00013859
0.000160307
0.000179531
0.000198074
0.000212907
0.000228924
0.0002734
0.000376064
0.000451105
0.000479795
0.000492712
0.000424671
0.000340566
0.000249315
0.000187774
0.000159622
0.00014799
0.00014145
0.000138341
0.000137404
0.000141618
0.00015197
0.000160308
0.000182781
0.000189934
0.000214818
0.000214036
0.000237326
0.000224493
0.000257363
0.000231457
0.000275681
0.000240165
0.000288149
0.000251435
0.000293065
0.000259182
0.000298991
0.00026304
0.000308551
0.000268222
0.000315355
0.00027756
0.000312752
0.000284916
0.000313457
0.000286421
0.000314291
0.00029371
0.000306755
0.000296229
0.000309836
0.00029722
0.000303149
0.000305445
0.000302953
0.000302443
0.000299453
0.000312063
0.000297482
0.00031044
0.000295901
0.00032148
0.000296019
0.00032275
0.000293576
0.000333617
0.000301726
0.000340024
0.000302265
0.000341908
0.000317808
0.000354353
0.000342604
0.000352876
0.00036488
0.000391628
0.000411003
0.00047124
0.000408621
0.000369456
0.000339193
0.00031227
0.000287209
0.00026515
0.00024834
0.000237544
0.000232179
0.000231331
0.000231985
0.0002315
0.000227504
0.000215782
0.000191217
0.000161978
0.000138986
0.000127693
0.000125679
0.000130213
0.000142163
0.00016692
0.000215387
0.000299656
0.00040314
0.000472824
0.000485884
0.000466043
0.000377656
0.000321837
0.000417341
0.000570778
0.000665273
0.000702278
0.000681479
0.000599798
0.000484266
0.000370219
0.000271492
0.000203681
0.000165038
0.000149733
0.000157984
0.000176658
0.000202937
0.000215321
0.000243927
0.000237296
0.000265662
0.000240425
0.000280843
0.000237268
0.000296342
0.000236102
0.000316295
0.000240681
0.000337225
0.000249052
0.000356142
0.000257752
0.000373844
0.000266085
0.000394559
0.00027733
0.000415247
0.000292213
0.000428851
0.000304758
0.000444517
0.000317421
0.000461027
0.000333659
0.000474422
0.000345971
0.000491932
0.000363131
0.000504483
0.000378683
0.000521643
0.000396797
0.000532522
0.000416185
0.000548323
0.000438255
0.000552732
0.000459763
0.000561837
0.000493089
0.000567453
0.000520452
0.000575846
0.000570728
0.000627897
0.000639966
0.000688861
0.000707751
0.000797455
0.000813051
0.000886198
8.06797e-05
9.59788e-05
0.000127469
0.000163893
0.000232759
0.000349834
0.000543714
0.000633835
0.000544901
0.000256095
0.000197066
0.000229638
0.000284702
0.000355775
0.00036402
0.000303359
0.000338908
0.000516558
0.000636762
0.000709496
0.000750283
0.000767214
0.000764217
0.000719741
0.000617453
0.000490922
0.000349245
0.000246222
0.000188524
0.00015633
0.000153705
0.000175819
0.000217937
0.000265569
0.000303635
0.00031785
0.000312646
0.000295523
0.000268646
0.000242489
0.00022126
0.000206559
0.000198407
0.000194877
0.000194666
0.000196329
0.000199433
0.000202854
0.000206779
0.000210516
0.000214121
0.000217481
0.000220166
0.000222905
0.00022462
0.000226667
0.000227729
0.000228991
0.000229732
0.000230208
0.000230736
0.000230606
0.000230728
0.000230356
0.000229871
0.000229316
0.000228154
0.000227281
0.000225756
0.000223968
0.000222366
0.000219386
0.000217332
0.000213418
0.000210085
0.000205432
0.000200167
0.00019439
0.000186955
0.000179161
0.000169277
0.00015867
0.000145764
0.000131899
0.000115924
9.95334e-05
8.29489e-05
7.58664e-05
7.75261e-05
8.78249e-05
9.94433e-05
0.000109918
0.000119653
0.000138087
0.000177406
0.000224075
0.000239916
0.000203744
0.000143125
0.000105818
9.68656e-05
0.000105407
0.000118663
0.000132074
0.000171789
0.000191225
0.000219529
0.000342902
0.000477123
0.00045152
0.00035005
0.000274621
0.000249655
0.000247825
0.00030739
0.000484593
0.000514419
0.000514076
0.000480834
0.000441866
0.000396823
0.000361622
0.000341315
0.000278947
0.00024989
0.000247685
0.000250589
0.00024975
0.000255678
0.000250795
0.000237493
0.0002174
0.000194983
0.000177215
0.00017067
0.000174207
0.000184742
0.000201756
0.00021601
0.000222045
0.000225962
0.000231621
0.000236568
0.00024004
0.000242433
0.000243437
0.000244103
0.000244377
0.00024452
0.000244412
0.000244088
0.000243914
0.000243271
0.000243194
0.000242554
0.000242453
0.000242002
0.000241787
0.000241513
0.000241053
0.000240975
0.0002405
0.000240284
0.000239993
0.000239364
0.000239237
0.000238568
0.000238141
0.000237791
0.00023664
0.000236518
0.000235252
0.000234797
0.000233574
0.000232424
0.000231413
0.000229193
0.000228078
0.000225441
0.000223545
0.000220089
0.000217271
0.0002125
0.000208333
0.000201403
0.000194579
0.000183582
0.000171672
0.00015428
0.000133549
0.000111375
0.000101783
0.000102504
0.0001217
0.000143731
0.000150608
0.000123007
0.000103493
0.000113571
0.000124394
9.93388e-05
0.000104294
0.000126381
0.000150509
0.000179033
0.000193631
0.00018286
0.000197826
0.000286572
0.000383236
0.000354125
0.000267394
0.000239693
0.000277101
0.000431864
0.000491914
0.000429872
0.000334698
0.00025766
0.000228866
0.000217359
0.000215135
0.000226721
0.000232335
0.000245854
0.000270148
0.000277661
0.000280078
0.000284138
0.000278203
0.000274357
0.000267487
0.000256417
0.000235329
0.000202011
0.000168368
0.000144598
0.000137217
0.000138113
0.00014551
0.00015795
0.000163928
0.000167447
0.000170795
0.000174515
0.00017952
0.000184971
0.000190703
0.000195384
0.000199071
0.000201331
0.000202514
0.000202856
0.00020277
0.000202368
0.000201821