/*--------------------------------*- C++ -*----------------------------------*\
| =========                 |                                                 |
| \\      /  F ield         | OpenFOAM: The Open Source CFD Toolbox           |
|  \\    /   O peration     | Version:  2.4.0                                 |
|   \\  /    A nd           | Web:      www.OpenFOAM.org                      |
|    \\/     M anipulation  |                                                 |
\*---------------------------------------------------------------------------*/
FoamFile
{
    version     2.0;
    format      ascii;
    class       volScalarField;
    location    "0.028";
    object      k;
}
// * * * * * * * * * * * * * * * * * * * * * * * * * * * * * * * * * * * * * //

dimensions      [0 2 -2 0 0 0 0];

internalField   nonuniform List<scalar> 
17600
(
9.29174
7.4017
5.12392
3.92799
3.35213
2.93961
2.69942
2.44668
2.35268
2.17247
2.11529
2.02989
1.97758
1.90692
1.81797
1.74456
1.72889
1.66272
1.65996
1.46511
4.50939
6.20079
5.83921
5.03728
4.43853
3.90947
3.61591
3.27924
3.14612
2.90894
2.81595
2.70963
2.62462
2.54975
2.44852
2.35004
2.34277
2.27793
2.23819
2.28593
1.32433
3.28451
3.9928
3.94891
3.78277
3.43983
3.25086
2.98136
2.87039
2.68738
2.58376
2.50076
2.41289
2.35968
2.29466
2.19633
2.18634
2.15474
2.07548
2.194
0.208032
1.19888
1.92694
2.30258
2.52718
2.50716
2.48477
2.38441
2.32141
2.23408
2.14843
2.10206
2.03428
1.99812
1.97514
1.90379
1.88302
1.86988
1.8019
1.83281
0.0261106
0.272175
0.650035
0.935969
1.25906
1.41351
1.56447
1.59644
1.61667
1.62894
1.60788
1.59599
1.57263
1.55693
1.56377
1.54105
1.51815
1.51043
1.49046
1.44358
0.00275686
0.0450744
0.153485
0.243941
0.4231
0.5576
0.7183
0.824828
0.883147
0.97834
1.00618
1.03382
1.05824
1.06898
1.10911
1.11911
1.1166
1.11343
1.12191
1.08609
0.000282066
0.00649762
0.0255972
0.0455185
0.0877517
0.146484
0.218823
0.301116
0.340472
0.424417
0.475475
0.513556
0.56474
0.590651
0.64764
0.691804
0.703937
0.715726
0.737991
0.72813
4.75491e-05
0.000882787
0.00353209
0.00641557
0.0121865
0.0258972
0.04135
0.0738377
0.0895058
0.1243
0.154379
0.173501
0.21323
0.234377
0.275211
0.324215
0.340478
0.366703
0.387591
0.397416
2.59285e-05
0.00013985
0.000563428
0.000869997
0.00147403
0.00315311
0.00561247
0.011972
0.0158336
0.0247199
0.0334934
0.0385999
0.0525156
0.0621158
0.0781964
0.103824
0.112964
0.131396
0.146635
0.157025
2.38866e-05
4.83365e-05
0.000156944
0.000187529
0.000240457
0.00037271
0.000651601
0.0015335
0.00214374
0.00360273
0.00503579
0.00583031
0.0083999
0.0105135
0.0146531
0.0216568
0.024441
0.0309173
0.0382452
0.04029
2.31123e-05
3.51627e-05
7.88697e-05
9.50896e-05
9.74602e-05
0.000104655
0.000129241
0.000238016
0.000326091
0.000537604
0.000689994
0.000759965
0.00103612
0.00130061
0.00185397
0.00300561
0.00352044
0.00492986
0.00664627
0.00669191
2.26362e-05
3.18702e-05
6.0008e-05
7.30505e-05
7.25859e-05
7.24433e-05
7.39405e-05
9.10208e-05
0.000112102
0.000147796
0.000170672
0.000175024
0.000194049
0.000213459
0.000258841
0.000380529
0.000454245
0.000665913
0.000900931
0.000926115
2.21149e-05
3.01847e-05
4.9376e-05
6.18094e-05
6.25066e-05
6.15258e-05
6.13431e-05
6.53902e-05
7.38583e-05
8.71406e-05
9.72811e-05
9.77881e-05
9.88583e-05
9.94868e-05
0.000102259
0.000111084
0.000125679
0.000162608
0.000191686
0.000196074
2.16259e-05
2.78357e-05
4.23864e-05
5.47326e-05
5.50358e-05
5.45286e-05
5.44141e-05
5.49257e-05
5.97436e-05
6.95686e-05
7.41552e-05
7.54382e-05
7.61479e-05
7.54186e-05
7.55219e-05
7.76733e-05
8.50403e-05
9.37727e-05
9.91189e-05
9.76833e-05
2.12561e-05
2.66638e-05
3.80288e-05
4.79232e-05
4.87244e-05
4.84571e-05
4.83097e-05
4.90039e-05
5.31316e-05
5.87659e-05
6.25137e-05
6.31922e-05
6.30613e-05
6.2484e-05
6.26416e-05
6.37177e-05
6.77945e-05
7.27847e-05
7.45075e-05
7.56831e-05
2.10457e-05
2.56615e-05
3.55433e-05
4.40062e-05
4.43675e-05
4.40825e-05
4.41145e-05
4.47131e-05
4.78668e-05
5.208e-05
5.40349e-05
5.41245e-05
5.41602e-05
5.37908e-05
5.37031e-05
5.42886e-05
5.73257e-05
6.02538e-05
6.12823e-05
6.38297e-05
2.08324e-05
2.51154e-05
3.3741e-05
4.06383e-05
4.10316e-05
4.0787e-05
4.07886e-05
4.15717e-05
4.44583e-05
4.69605e-05
4.80573e-05
4.8122e-05
4.80192e-05
4.75146e-05
4.75153e-05
4.79431e-05
4.98113e-05
5.17468e-05
5.2853e-05
5.36126e-05
2.07385e-05
2.46037e-05
3.24677e-05
3.86987e-05
3.88569e-05
3.85136e-05
3.86185e-05
3.94837e-05
4.16412e-05
4.3584e-05
4.40394e-05
4.39885e-05
4.386e-05
4.34072e-05
4.332e-05
4.35029e-05
4.47506e-05
4.63419e-05
4.68732e-05
4.73315e-05
2.06353e-05
2.4332e-05
3.2049e-05
3.73458e-05
3.74164e-05
3.70137e-05
3.70919e-05
3.82032e-05
4.00651e-05
4.13746e-05
4.15621e-05
4.15164e-05
4.12773e-05
4.07333e-05
4.06681e-05
4.07795e-05
4.16512e-05
4.28143e-05
4.31898e-05
4.37607e-05
2.06102e-05
2.41712e-05
3.16194e-05
3.67429e-05
3.67995e-05
3.63886e-05
3.65112e-05
3.77501e-05
3.91725e-05
4.03754e-05
4.04614e-05
4.03148e-05
4.01241e-05
3.96057e-05
3.94846e-05
3.95216e-05
4.01477e-05
4.12414e-05
4.15299e-05
4.2721e-05
2.05917e-05
2.41575e-05
3.19716e-05
3.67685e-05
3.68174e-05
3.63994e-05
3.64714e-05
3.77676e-05
3.92274e-05
4.03827e-05
4.04674e-05
4.03412e-05
4.01261e-05
3.95306e-05
3.94298e-05
3.95001e-05
4.01472e-05
4.12056e-05
4.14918e-05
4.21533e-05
2.06321e-05
2.42944e-05
3.229e-05
3.73546e-05
3.75287e-05
3.71596e-05
3.71866e-05
3.85119e-05
4.00105e-05
4.14663e-05
4.1672e-05
4.15157e-05
4.13362e-05
4.07554e-05
4.06525e-05
4.07652e-05
4.15581e-05
4.27924e-05
4.31769e-05
4.43547e-05
2.06973e-05
2.45569e-05
3.32274e-05
3.86922e-05
3.90192e-05
3.8685e-05
3.86417e-05
3.99059e-05
4.17296e-05
4.37313e-05
4.4206e-05
4.40594e-05
4.39507e-05
4.33767e-05
4.32626e-05
4.34932e-05
4.46709e-05
4.62679e-05
4.6918e-05
4.76568e-05
2.08114e-05
2.49978e-05
3.45006e-05
4.06898e-05
4.13109e-05
4.10381e-05
4.09605e-05
4.223e-05
4.44708e-05
4.72896e-05
4.82983e-05
4.81719e-05
4.81112e-05
4.75723e-05
4.74895e-05
4.7891e-05
4.96464e-05
5.18697e-05
5.25613e-05
5.3963e-05
2.09799e-05
2.5599e-05
3.62724e-05
4.35776e-05
4.46361e-05
4.444e-05
4.42919e-05
4.54606e-05
4.82218e-05
5.23589e-05
5.43869e-05
5.43219e-05
5.42974e-05
5.37384e-05
5.36851e-05
5.4369e-05
5.71006e-05
6.01937e-05
6.12507e-05
6.35036e-05
2.122e-05
2.64782e-05
3.86808e-05
4.75747e-05
4.92011e-05
4.90412e-05
4.87862e-05
4.99183e-05
5.31431e-05
5.92478e-05
6.30412e-05
6.31779e-05
6.32235e-05
6.26031e-05
6.2551e-05
6.36043e-05
6.77174e-05
7.26193e-05
7.54299e-05
7.82051e-05
2.15478e-05
2.77846e-05
4.21465e-05
5.32627e-05
5.53524e-05
5.51185e-05
5.47379e-05
5.6143e-05
6.0314e-05
6.92694e-05
7.54988e-05
7.59612e-05
7.61952e-05
7.56723e-05
7.57409e-05
7.75948e-05
8.3771e-05
9.47446e-05
0.000101233
0.000104876
2.20366e-05
2.97666e-05
4.84157e-05
6.14495e-05
6.30341e-05
6.24009e-05
6.22337e-05
6.61281e-05
7.32217e-05
8.77461e-05
9.70588e-05
9.79549e-05
9.94848e-05
0.00010022
0.000102954
0.00011439
0.000128252
0.000168521
0.000212666
0.000240638
2.27625e-05
3.2918e-05
6.12651e-05
7.35447e-05
7.34183e-05
7.16633e-05
7.33819e-05
9.38011e-05
0.000110691
0.000149668
0.000170063
0.000174984
0.000197623
0.000220639
0.000265429
0.000395962
0.000488912
0.000761528
0.00104717
0.00134676
2.36919e-05
3.86451e-05
8.55737e-05
9.72803e-05
9.97579e-05
0.00010305
0.000126456
0.00026022
0.000342704
0.000541743
0.000701042
0.000771491
0.00106308
0.00140864
0.00185895
0.00308578
0.00379104
0.00580503
0.00708514
0.00949168
2.49386e-05
5.51757e-05
0.000155354
0.000184926
0.000252818
0.000358097
0.000643162
0.0016995
0.00226059
0.00360537
0.00514
0.00590428
0.00848879
0.0113674
0.0143183
0.0221293
0.0258608
0.0352206
0.0398385
0.0500202
2.74651e-05
0.000155083
0.000563189
0.000829132
0.00168773
0.00289867
0.00555895
0.0129928
0.0164081
0.0243852
0.0339729
0.0389489
0.0525365
0.0647667
0.0766445
0.106789
0.117753
0.142902
0.153442
0.177683
4.75997e-05
0.000909694
0.00358524
0.00618278
0.0144881
0.0235212
0.0425305
0.0763937
0.0901702
0.122582
0.156439
0.174569
0.211
0.240531
0.272607
0.333441
0.348998
0.386538
0.399203
0.430877
0.000274735
0.00661622
0.0256478
0.0445138
0.096186
0.137991
0.221705
0.303037
0.34049
0.420496
0.483449
0.511821
0.561166
0.600093
0.645771
0.704736
0.71345
0.740761
0.746643
0.768854
0.00271721
0.0463084
0.152063
0.242698
0.427902
0.554016
0.723242
0.822723
0.888676
0.970395
1.01921
1.02906
1.05719
1.07396
1.10954
1.13099
1.12463
1.13113
1.12684
1.1339
0.0258501
0.281401
0.638982
0.946642
1.25441
1.41669
1.56533
1.5944
1.62407
1.62285
1.61773
1.58501
1.57882
1.55895
1.56334
1.5485
1.5258
1.50903
1.49486
1.48843
0.206433
1.20678
1.91428
2.32009
2.51732
2.5128
2.48525
2.38456
2.32867
2.21883
2.16977
2.07906
2.05073
1.98621
1.97201
1.90581
1.88774
1.84284
1.83094
1.80863
1.31627
3.29875
3.98544
3.9603
3.765
3.46739
3.23286
2.9914
2.87143
2.67746
2.59887
2.47782
2.43233
2.33038
2.29832
2.18379
2.17702
2.11033
2.09954
2.05014
4.50292
6.21908
5.83187
5.06076
4.40175
3.94266
3.59252
3.29412
3.13921
2.90751
2.8192
2.69299
2.63816
2.50907
2.46142
2.31344
2.32404
2.22393
2.21785
2.11699
9.28706
7.42223
5.10794
3.94795
3.32597
2.9623
2.68302
2.45891
2.34158
2.17768
2.10918
2.02128
1.98202
1.8725
1.82803
1.69922
1.71287
1.60696
1.59997
1.46049
0.999184
0.884656
0.541811
0.491052
0.441918
0.255254
0.146854
0.0756362
0.0517458
0.0511717
0.0487548
0.0505272
0.0559494
0.0776554
0.104833
0.098596
0.0914514
0.0923952
0.155679
0.247387
0.277152
0.264216
0.20784
0.18673
0.191069
0.200934
0.186311
0.137573
0.071849
0.0335571
0.0153878
0.00749458
0.00421747
0.00289018
0.00270777
0.00335856
0.00453466
0.0048461
0.00484426
0.00475839
0.00433997
0.00389555
0.0037502
0.00393179
0.00433443
0.00441034
0.00429103
0.00419981
0.00421139
0.00438992
0.00461208
0.0047664
0.00482961
0.00477474
0.00411298
0.00296343
0.00205003
0.00136799
0.00088623
0.000561536
0.000350042
0.000215812
0.00013229
8.10136e-05
4.97652e-05
3.07569e-05
1.91621e-05
1.20455e-05
7.64057e-06
4.88822e-06
3.15185e-06
2.04637e-06
1.33666e-06
8.77623e-07
5.78798e-07
3.8317e-07
2.54481e-07
1.69476e-07
1.13127e-07
7.56618e-08
5.06885e-08
3.40061e-08
2.28416e-08
1.53584e-08
1.03361e-08
6.96151e-09
4.69197e-09
3.16431e-09
2.13528e-09
1.44166e-09
9.73866e-10
6.58199e-10
4.45081e-10
3.01128e-10
2.03849e-10
1.38079e-10
9.35902e-11
6.34811e-11
4.30934e-11
2.92805e-11
1.99163e-11
1.35636e-11
9.25079e-12
6.32026e-12
4.3271e-12
2.96996e-12
2.04482e-12
1.4133e-12
9.8134e-13
6.85513e-13
4.82504e-13
3.42644e-13
2.46427e-13
1.79895e-13
1.33554e-13
1.02018e-13
7.98716e-14
6.46001e-14
5.53332e-14
4.84508e-14
4.5643e-14
4.59605e-14
4.77108e-14
5.21423e-14
5.89535e-14
7.35906e-14
9.26803e-14
1.1306e-13
1.64224e-13
2.09889e-13
3.16009e-13
4.05848e-13
6.69452e-13
8.56818e-13
1.55519e-12
1.91624e-12
3.97248e-12
4.75586e-12
1.09151e-11
1.38335e-11
2.77729e-11
5.02516e-11
6.6417e-11
2.30063e-10
1.9473e-10
7.72797e-10
5.94635e-10
1.9021e-09
2.93467e-09
5.94846e-09
2.43158e-08
8.84277e-08
3.38034e-07
1.21488e-06
3.032e-06
8.31482e-06
1.20647e-05
2.29158e-05
2.37739e-05
2.66401e-05
3.13711e-05
3.41747e-05
4.07587e-05
4.40106e-05
5.6092e-05
6.00256e-05
7.33823e-05
7.51933e-05
8.47066e-05
8.18374e-05
8.43649e-05
7.84052e-05
7.95783e-05
7.60888e-05
7.9011e-05
7.76025e-05
8.2473e-05
8.6298e-05
9.62193e-05
0.000125794
0.000140311
0.000189321
0.000178998
0.000213874
0.000162988
0.00015905
0.00013649
0.000158946
0.000221675
0.000225156
0.000304817
0.000321608
0.000406497
0.000629277
0.0010115
0.00204998
0.00392478
0.00716754
0.0301068
0.60767
1.64488
1.25608
1.02307
0.761671
0.746367
0.658933
0.482074
0.297167
0.169193
0.0970964
0.0622805
0.054529
0.0575018
0.0887467
0.103558
0.0960573
0.086404
0.0894565
0.175081
0.264774
0.287118
0.27492
0.251052
0.244165
0.236694
0.22006
0.181016
0.0975007
0.0433289
0.0172344
0.00771164
0.00462154
0.00310502
0.00234352
0.00224181
0.00310992
0.00441604
0.00458819
0.00452058
0.00439054
0.00418861
0.00387982
0.00366077
0.00366846
0.00411651
0.00450108
0.00455547
0.00446849
0.00442183
0.00444513
0.00453495
0.00456915
0.0045607
0.00449369
0.00405913
0.00298144
0.00207864
0.00139778
0.000911007
0.000578327
0.000360322
0.000221974
0.000135987
8.32529e-05
5.11349e-05
3.16011e-05
1.96848e-05
1.23698e-05
7.84177e-06
5.01294e-06
3.22903e-06
2.09403e-06
1.36601e-06
8.95654e-07
5.89842e-07
3.89915e-07
2.5859e-07
1.71972e-07
1.1464e-07
7.65771e-08
5.12411e-08
3.43391e-08
2.3042e-08
1.54789e-08
1.04083e-08
7.00482e-09
4.71788e-09
3.17979e-09
2.14451e-09
1.44716e-09
9.77131e-10
6.60134e-10
4.46223e-10
3.01799e-10
2.0424e-10
1.38304e-10
9.37182e-11
6.35526e-11
4.31324e-11
2.93008e-11
1.9926e-11
1.35676e-11
9.2518e-12
6.31996e-12
4.32634e-12
2.96912e-12
2.04408e-12
1.41272e-12
9.80943e-13
6.85269e-13
4.82371e-13
3.42589e-13
2.46418e-13
1.79904e-13
1.33569e-13
1.02027e-13
7.98696e-14
6.45927e-14
5.53044e-14
4.84144e-14
4.55888e-14
4.58995e-14
4.76374e-14
5.21289e-14
5.88571e-14
7.30137e-14
9.32118e-14
1.13119e-13
1.63548e-13
2.0913e-13
3.18736e-13
4.05244e-13
6.82609e-13
8.55088e-13
1.64021e-12
1.92994e-12
4.48756e-12
4.96716e-12
1.39275e-11
1.59024e-11
4.33903e-11
6.51734e-11
1.13244e-10
3.38987e-10
3.91849e-10
1.48124e-09
1.47586e-09
5.3337e-09
6.32792e-09
2.34366e-08
4.32964e-08
1.20068e-07
3.16074e-07
7.40435e-07
1.97458e-06
3.01642e-06
6.10216e-06
7.16418e-06
8.42282e-06
1.39133e-05
1.74368e-05
2.64096e-05
3.13317e-05
4.6743e-05
5.33908e-05
7.20915e-05
7.72882e-05
9.62145e-05
0.000101161
0.000119512
0.000123952
0.000144905
0.000146922
0.000166331
0.000151328
0.000149694
0.000126268
0.000122759
0.000112161
0.000121799
0.000127852
0.000144884
0.000198604
0.000209909
0.00027866
0.000219164
0.000224782
0.00018903
0.000205475
0.000252239
0.000294311
0.000322385
0.00039321
0.000575199
0.00120574
0.00196049
0.00386189
0.00718113
0.0386656
0.435292
1.7813
1.32535
1.19623
0.944095
0.847386
0.816392
0.722014
0.651385
0.538648
0.328197
0.172615
0.105792
0.100528
0.126511
0.133614
0.110335
0.0895794
0.111712
0.244779
0.289326
0.289423
0.279424
0.266427
0.256811
0.241468
0.206707
0.118603
0.0508984
0.0206825
0.00866689
0.00464135
0.0035136
0.00274796
0.00224769
0.00213199
0.00278689
0.00401101
0.00423786
0.00411637
0.00405257
0.00407977
0.00397631
0.0036871
0.0035461
0.00368835
0.00436527
0.00480496
0.00486589
0.00479801
0.00470292
0.00463608
0.004593
0.00453498
0.0043883
0.00385386
0.00289747
0.00205718
0.00139802
0.000918001
0.000586989
0.00036765
0.000227003
0.000139197
8.52598e-05
5.23813e-05
3.23735e-05
2.01625e-05
1.26643e-05
8.02274e-06
5.12366e-06
3.29653e-06
2.13507e-06
1.39091e-06
9.10751e-07
5.98991e-07
3.9546e-07
2.61951e-07
1.74011e-07
1.15877e-07
7.73281e-08
5.16971e-08
3.46161e-08
2.32103e-08
1.55811e-08
1.04705e-08
7.04256e-09
4.74081e-09
3.19372e-09
2.15295e-09
1.45227e-09
9.80224e-10
6.61998e-10
4.4734e-10
3.02464e-10
2.04632e-10
1.38533e-10
9.38496e-11
6.36269e-11
4.31739e-11
2.93239e-11
1.99388e-11
1.35746e-11
9.25554e-12
6.32189e-12
4.32719e-12
2.96936e-12
2.04398e-12
1.41244e-12
9.80573e-13
6.84855e-13
4.81946e-13
3.42176e-13
2.4603e-13
1.79553e-13
1.33253e-13
1.01739e-13
7.96148e-14
6.43675e-14
5.50918e-14
4.82143e-14
4.53909e-14
4.56979e-14
4.74272e-14
5.19687e-14
5.86693e-14
7.21516e-14
9.34387e-14
1.13148e-13
1.62619e-13
2.07537e-13
3.21149e-13
4.04001e-13
6.97017e-13
8.50757e-13
1.74555e-12
1.94403e-12
5.19425e-12
5.27367e-12
1.86273e-11
1.96045e-11
6.82162e-11
1.02265e-10
1.8839e-10
6.75814e-10
7.01561e-10
2.99764e-09
2.7155e-09
6.62794e-09
8.85326e-09
1.1272e-08
2.65219e-08
3.90944e-08
7.06056e-08
1.49448e-07
2.23297e-07
2.86036e-07
8.64155e-07
1.47331e-06
3.9395e-06
5.78461e-06
1.24751e-05
1.40164e-05
2.07535e-05
2.39945e-05
3.17131e-05
3.56668e-05
4.70517e-05
5.40727e-05
7.33174e-05
8.28204e-05
0.000108323
0.00012186
0.000164331
0.000172967
0.000220836
0.000227813
0.000279101
0.000248705
0.000245466
0.000191336
0.000181159
0.00016081
0.000177382
0.000214081
0.00023841
0.000339974
0.000282067
0.00029451
0.000238662
0.000266929
0.000404908
0.000373666
0.000420831
0.000545973
0.00101336
0.00172728
0.00407471
0.0070341
0.0388522
0.288549
1.60747
1.30606
1.15503
1.02336
0.879044
0.829559
0.765272
0.729095
0.69724
0.637766
0.497862
0.352193
0.302601
0.31121
0.31178
0.23175
0.19207
0.267583
0.339536
0.317422
0.260367
0.239165
0.230841
0.219262
0.19192
0.118722
0.0506464
0.0224205
0.0101904
0.00489728
0.00318344
0.00293629
0.00258061
0.002217
0.00213376
0.00245086
0.00339452
0.00366498
0.0036627
0.00371108
0.00396932
0.00404248
0.00388534
0.00351581
0.00343713
0.0038258
0.00479952
0.00534884
0.00543173
0.00529885
0.00508103
0.00491304
0.00471371
0.00434146
0.00356529
0.00273349
0.00198462
0.00137261
0.000912003
0.000587682
0.000370478
0.000230142
0.000141696
8.69965e-05
5.35319e-05
3.31183e-05
2.06386e-05
1.29658e-05
8.21209e-06
5.24161e-06
3.36943e-06
2.1798e-06
1.41819e-06
9.27299e-07
6.08994e-07
4.01493e-07
2.65583e-07
1.76196e-07
1.17192e-07
7.81189e-08
5.21731e-08
3.49026e-08
2.33829e-08
1.56851e-08
1.05331e-08
7.0803e-09
4.76354e-09
3.20741e-09
2.1612e-09
1.45724e-09
9.83216e-10
6.63803e-10
4.48431e-10
3.03125e-10
2.05033e-10
1.38777e-10
9.39979e-11
6.37168e-11
4.32279e-11
2.93559e-11
1.99573e-11
1.35849e-11
9.26096e-12
6.32437e-12
4.32797e-12
2.96918e-12
2.04331e-12
1.41159e-12
9.79703e-13
6.84028e-13
4.81193e-13
3.41528e-13
2.45485e-13
1.79084e-13
1.32846e-13
1.01384e-13
7.93138e-14
6.40886e-14
5.48243e-14
4.79713e-14
4.51435e-14
4.54425e-14
4.71557e-14
5.17127e-14
5.83482e-14
7.25186e-14
9.04249e-14
1.13004e-13
1.64062e-13
2.04083e-13
3.20629e-13
4.03658e-13
7.13058e-13
8.40705e-13
1.87547e-12
1.9646e-12
6.14433e-12
5.64438e-12
2.70926e-11
2.51299e-11
1.42285e-10
1.96645e-10
5.10666e-10
1.75104e-09
2.48241e-09
1.36361e-08
1.3967e-08
5.33376e-08
7.7415e-08
1.476e-07
3.79228e-07
6.72184e-07
1.32971e-06
3.08807e-06
3.51266e-06
7.30082e-06
8.05973e-06
1.19321e-05
1.34347e-05
1.83536e-05
1.84497e-05
1.99652e-05
2.03458e-05
2.06824e-05
2.15701e-05
2.32857e-05
2.52019e-05
2.74694e-05
3.363e-05
3.70534e-05
4.43105e-05
5.84257e-05
7.58087e-05
0.000116506
0.000144186
0.000217634
0.000247678
0.000349765
0.000356619
0.000425814
0.000363117
0.000343211
0.000248185
0.000245273
0.00024676
0.000278457
0.000400408
0.000347532
0.000366042
0.000316937
0.000366988
0.000529875
0.000523158
0.00068758
0.00129941
0.00169411
0.00457762
0.00668558
0.0372852
0.19151
1.28522
1.11669
0.974689
0.926793
0.850758
0.770434
0.719903
0.698394
0.683615
0.667918
0.639955
0.590359
0.536603
0.50244
0.488504
0.465446
0.454925
0.46253
0.443034
0.318802
0.209522
0.15559
0.126112
0.1049
0.0696261
0.0368728
0.018898
0.00968815
0.00538868
0.00331681
0.00254684
0.00251762
0.00245725
0.00218271
0.00216508
0.00233913
0.00279168
0.00313063
0.00320942
0.00333772
0.0038396
0.0040455
0.00397608
0.00355768
0.00334623
0.00340189
0.00431989
0.005454
0.00597521
0.00606194
0.00596963
0.00570596
0.0051555
0.00437559
0.00350741
0.00266033
0.00192261
0.00133465
0.000894671
0.000581737
0.00036942
0.000230836
0.000142902
8.81132e-05
5.43741e-05
3.37046e-05
2.10299e-05
1.32207e-05
8.37547e-06
5.3451e-06
3.43435e-06
2.2202e-06
1.44315e-06
9.42633e-07
6.18368e-07
4.072e-07
2.69049e-07
1.78295e-07
1.18461e-07
7.88862e-08
5.26366e-08
3.51826e-08
2.3552e-08
1.57873e-08
1.05949e-08
7.11768e-09
4.78617e-09
3.22112e-09
2.16951e-09
1.46228e-09
9.86272e-10
6.65654e-10
4.4955e-10
3.03798e-10
2.05436e-10
1.39016e-10
9.41384e-11
6.37975e-11
4.32729e-11
2.93799e-11
1.99693e-11
1.35902e-11
9.2626e-12
6.32419e-12
4.327e-12
2.96794e-12
2.04205e-12
1.4104e-12
9.78642e-13
6.83091e-13
4.8037e-13
3.40813e-13
2.44862e-13
1.78538e-13
1.32368e-13
1.00957e-13
7.89337e-14
6.3745e-14
5.44931e-14
4.76596e-14
4.48264e-14
4.5116e-14
4.68044e-14
5.11372e-14
5.77332e-14
7.22393e-14
9.02873e-14
1.1161e-13
1.6357e-13
2.03171e-13
3.2135e-13
3.99949e-13
7.29401e-13
8.35102e-13
2.02193e-12
1.99507e-12
7.29171e-12
6.09321e-12
4.02595e-11
3.36757e-11
2.99455e-10
3.59624e-10
1.65956e-09
3.77542e-09
8.28216e-09
3.07406e-08
4.57675e-08
1.7082e-07
2.3555e-07
6.42531e-07
8.99746e-07
1.7303e-06
2.20441e-06
3.25867e-06
5.24465e-06
7.75965e-06
1.45947e-05
1.69481e-05
2.24879e-05
2.30378e-05
2.38561e-05
2.73018e-05
2.82592e-05
3.16318e-05
3.19726e-05
3.46713e-05
3.54096e-05
3.97358e-05
4.02409e-05
4.36622e-05
4.49821e-05
5.07389e-05
5.23954e-05
5.76391e-05
6.81288e-05
9.30806e-05
0.000137693
0.00018986
0.000320743
0.000371031
0.000552958
0.000538033
0.000585078
0.000430579
0.000363322
0.000306589
0.000346376
0.000511848
0.000472959
0.000600848
0.000462944
0.000512386
0.000556956
0.000681287
0.00141937
0.00169818
0.00605836
0.00701297
0.031815
0.129311
0.975241
0.866845
0.750021
0.712994
0.702708
0.663239
0.606158
0.586673
0.588627
0.600192
0.601785
0.594918
0.570521
0.526824
0.518399
0.525402
0.523267
0.50059
0.421521
0.282914
0.169305
0.0890981
0.0518559
0.0342095
0.0221755
0.0133607
0.0076432
0.00453271
0.0032195
0.002646
0.00226452
0.00216313
0.00211817
0.00205253
0.0021381
0.00236458
0.00244977
0.00262972
0.00284643
0.00304117
0.00359292
0.0039352
0.00392483
0.00358299
0.00331783
0.00328227
0.00359053
0.00496435
0.00593865
0.00625778
0.00626631
0.006156
0.00577731
0.00471127
0.00362765
0.00268557
0.00191487
0.00131821
0.000879851
0.000572805
0.000365515
0.000229721
0.000142988
8.86314e-05
5.49482e-05
3.41808e-05
2.13794e-05
1.34608e-05
8.5339e-06
5.44699e-06
3.49872e-06
2.26034e-06
1.46796e-06
9.57853e-07
6.27659e-07
4.12851e-07
2.72477e-07
1.80371e-07
1.19717e-07
7.96457e-08
5.30957e-08
3.54601e-08
2.37197e-08
1.58887e-08
1.06562e-08
7.15473e-09
4.80855e-09
3.23463e-09
2.17766e-09
1.46719e-09
9.89218e-10
6.67421e-10
4.50607e-10
3.04427e-10
2.05808e-10
1.39235e-10
9.42662e-11
6.38714e-11
4.33151e-11
2.94038e-11
1.99824e-11
1.35967e-11
9.26527e-12
6.32477e-12
4.32645e-12
2.96679e-12
2.04065e-12
1.40899e-12
9.77333e-13
6.81896e-13
4.79295e-13
3.3989e-13
2.44078e-13
1.77852e-13
1.31763e-13
1.00427e-13
7.84792e-14
6.33246e-14
5.40877e-14
4.7294e-14
4.44605e-14
4.47404e-14
4.64215e-14
5.02823e-14
5.93354e-14
6.91657e-14
9.13561e-14
1.11888e-13
1.61085e-13
2.00927e-13
3.22516e-13
3.96077e-13
7.43402e-13
8.2926e-13
2.17333e-12
2.0468e-12
8.84308e-12
6.92494e-12
6.12341e-11
5.04036e-11
5.74165e-10
6.88011e-10
3.7579e-09
8.21454e-09
1.8266e-08
6.62224e-08
9.57906e-08
3.02106e-07
4.39935e-07
7.69688e-07
1.86408e-06
2.34649e-06
5.71479e-06
6.93146e-06
8.9619e-06
1.28378e-05
1.27627e-05
1.30736e-05
1.58707e-05
1.9198e-05
2.20898e-05
2.60442e-05
3.54979e-05
3.88e-05
4.73475e-05
5.14915e-05
6.23324e-05
6.60008e-05
7.71508e-05
8.00115e-05
9.34159e-05
8.9785e-05
9.03403e-05
8.45134e-05
8.66872e-05
8.77525e-05
9.29061e-05
0.000104771
0.000148415
0.000196358
0.000296477
0.000515464
0.000562062
0.000811379
0.000662801
0.000614973
0.00043767
0.000475043
0.000502011
0.000579172
0.00079408
0.000715407
0.000826375
0.000789634
0.00183165
0.00195244
0.0110483
0.00829558
0.024997
0.0867764
0.672738
0.615082
0.519499
0.489431
0.490929
0.490821
0.464077
0.439263
0.434881
0.439592
0.459731
0.488977
0.488386
0.465
0.435604
0.43704
0.435421
0.409813
0.310257
0.178278
0.0849093
0.0397386
0.0204411
0.0121759
0.00817631
0.00523523
0.00329611
0.0024161
0.00218435
0.00227996
0.00203038
0.00172902
0.00172176
0.00184586
0.00212433
0.00236066
0.00232898
0.00236806
0.00274925
0.00300827
0.00332323
0.00360107
0.00365011
0.00351093
0.00330195
0.00324074
0.0032714
0.0037671
0.00496968
0.00579828
0.00610765
0.00611803
0.0059398
0.00516526
0.00391288
0.00282116
0.00196369
0.00132878
0.000877936
0.000568328
0.000361996
0.000227918
0.00014242
8.86877e-05
5.5235e-05
3.44981e-05
2.1647e-05
1.36605e-05
8.67289e-06
5.53956e-06
3.55861e-06
2.29832e-06
1.49169e-06
9.72541e-07
6.36678e-07
4.1836e-07
2.75828e-07
1.82404e-07
1.20948e-07
8.03901e-08
5.35455e-08
3.57317e-08
2.38837e-08
1.59877e-08
1.0716e-08
7.1908e-09
4.83032e-09
3.24777e-09
2.18559e-09
1.47197e-09
9.921e-10
6.69157e-10
4.51651e-10
3.05053e-10
2.06182e-10
1.39457e-10
9.43969e-11
6.39468e-11
4.33573e-11
2.94263e-11
1.99932e-11
1.3601e-11
9.26598e-12
6.32369e-12
4.32459e-12
2.96466e-12
2.03855e-12
1.40708e-12
9.7564e-13
6.8042e-13
4.78028e-13
3.38813e-13
2.43151e-13
1.77048e-13
1.31074e-13
9.98221e-14
7.79431e-14
6.28378e-14
5.36304e-14
4.68723e-14
4.40284e-14
4.42974e-14
4.59575e-14
4.97864e-14
5.88381e-14
6.85435e-14
9.0457e-14
1.1085e-13
1.60627e-13
2.00396e-13
3.2213e-13
3.9166e-13
7.6178e-13
8.31471e-13
2.33357e-12
2.11384e-12
1.11457e-11
8.50713e-12
1.02164e-10
8.74956e-11
1.31703e-09
1.60063e-09
1.26914e-08
2.43288e-08
7.31502e-08
2.06151e-07
4.22017e-07
1.02688e-06
2.065e-06
3.20037e-06
9.26232e-06
9.41567e-06
1.86233e-05
1.83399e-05
1.7896e-05
2.0586e-05
2.15601e-05
2.317e-05
2.41064e-05
3.62507e-05
3.65894e-05
4.58776e-05
4.57249e-05
4.9342e-05
5.09616e-05
6.21848e-05
6.46298e-05
7.40712e-05
7.87846e-05
0.000100306
0.000107477
0.000146068
0.000152705
0.000197893
0.000184083
0.000206955
0.000174664
0.000177207
0.000164145
0.000170778
0.00018659
0.000256152
0.00039495
0.000566863
0.000942491
0.000898288
0.000950927
0.000676994
0.000608858
0.000671694
0.000874609
0.000794291
0.00102848
0.00101121
0.00440363
0.00274
0.014542
0.010081
0.0195764
0.0610671
0.377135
0.353283
0.289344
0.2706
0.276509
0.286765
0.285412
0.27981
0.279019
0.280669
0.286641
0.308858
0.313986
0.307019
0.279241
0.270228
0.260155
0.235136
0.154083
0.0757633
0.0345821
0.0157516
0.0074313
0.00423927
0.0029869
0.00209109
0.0016362
0.00154454
0.00166819
0.00191561
0.00184626
0.00156468
0.00154923
0.00176677
0.00210948
0.00224302
0.00220369
0.00223064
0.00272675
0.0030578
0.00303699
0.00301032
0.00312222
0.00320397
0.00319321
0.00317818
0.0032109
0.00346128
0.00410594
0.00467859
0.00513743
0.00539217
0.00544712
0.00521524
0.0040887
0.00292025
0.0020166
0.00135209
0.000885164
0.000568999
0.000360997
0.000227017
0.00014202
8.86706e-05
5.54141e-05
3.47333e-05
2.1864e-05
1.38322e-05
8.79731e-06
5.62479e-06
3.61482e-06
2.33442e-06
1.51446e-06
9.86706e-07
6.45411e-07
4.23708e-07
2.79089e-07
1.84386e-07
1.2215e-07
8.11178e-08
5.39858e-08
3.59979e-08
2.40446e-08
1.60849e-08
1.07747e-08
7.22631e-09
4.85177e-09
3.26072e-09
2.19341e-09
1.47668e-09
9.94935e-10
6.70859e-10
4.52668e-10
3.05657e-10
2.06537e-10
1.39664e-10
9.45146e-11
6.40119e-11
4.33917e-11
2.94432e-11
2.00005e-11
1.36028e-11
9.26501e-12
6.32149e-12
4.32198e-12
2.96199e-12
2.03602e-12
1.4048e-12
9.73646e-13
6.7869e-13
4.76525e-13
3.37534e-13
2.42073e-13
1.76124e-13
1.30268e-13
9.91138e-14
7.73308e-14
6.22808e-14
5.30978e-14
4.63791e-14
4.35385e-14
4.37994e-14
4.54371e-14
4.92308e-14
5.82317e-14
6.7865e-14
8.94873e-14
1.09607e-13
1.58946e-13
1.98429e-13
3.20345e-13
3.88059e-13
7.68497e-13
8.32673e-13
2.48011e-12
2.25474e-12
1.37754e-11
1.13124e-11
1.59115e-10
1.54177e-10
2.54035e-09
3.22465e-09
3.35333e-08
5.56326e-08
2.69697e-07
5.38782e-07
1.56602e-06
2.58469e-06
8.60391e-06
8.80381e-06
3.69573e-05
2.60527e-05
9.7797e-05
6.67749e-05
0.000123755
0.000104097
0.000191315
0.000156315
0.000306017
0.000233661
0.000241075
0.000234271
0.00022785
0.000177208
0.000188197
0.000172046
0.00015389
0.000136512
0.000132293
0.000127045
0.000128806
0.000137987
0.000151495
0.000171171
0.000214864
0.000226983
0.000279039
0.00025827
0.000296425
0.000241127
0.000281772
0.000270958
0.000302222
0.000358024
0.000625454
0.000782569
0.00125135
0.00122377
0.00095247
0.000818784
0.00190371
0.00126451
0.00356496
0.00206765
0.00642903
0.00419834
0.0357276
0.0158915
0.0187291
0.0432978
0.150652
0.139494
0.110909
0.10428
0.109536
0.128551
0.13377
0.135729
0.136776
0.136438
0.136861
0.145749
0.151861
0.148541
0.1308
0.122603
0.114526
0.0989423
0.0580858
0.0282066
0.0129831
0.00576158
0.00261586
0.00153947
0.00121043
0.00105797
0.00108874
0.00116128
0.00132393
0.00157188
0.00163201
0.0014723
0.00143959
0.00170248
0.00192834
0.00197061
0.00195354
0.00204565
0.00271376
0.00304977
0.00299634
0.00267967
0.00259394
0.00266373
0.00282988
0.00305276
0.00324052
0.00364025
0.00412922
0.00449333
0.00471834
0.00478607
0.00476907
0.00466509
0.00403643
0.00291219
0.00201725
0.00135409
0.00088636
0.000569219
0.000360719
0.000226751
0.000141974
8.8808e-05
5.56254e-05
3.49534e-05
2.20585e-05
1.39861e-05
8.91031e-06
5.70337e-06
3.66736e-06
2.36856e-06
1.53618e-06
1.00031e-06
6.53844e-07
4.28893e-07
2.82259e-07
1.86316e-07
1.23323e-07
8.18289e-08
5.44166e-08
3.62587e-08
2.42024e-08
1.61804e-08
1.08324e-08
7.26119e-09
4.87284e-09
3.27345e-09
2.20108e-09
1.48129e-09
9.97705e-10
6.72517e-10
4.53656e-10
3.06241e-10
2.0688e-10
1.39863e-10
9.46281e-11
6.40749e-11
4.34254e-11
2.94598e-11
2.00073e-11
1.36042e-11
9.26368e-12
6.31888e-12
4.31886e-12
2.95883e-12
2.03308e-12
1.40219e-12
9.71367e-13
6.76717e-13
4.74851e-13
3.36123e-13
2.40861e-13
1.75074e-13
1.29373e-13
9.83389e-14
7.66388e-14
6.16503e-14
5.25206e-14
4.5848e-14
4.29972e-14
4.32475e-14
4.4859e-14
4.86101e-14
5.7502e-14
6.70549e-14
8.84069e-14
1.08364e-13
1.56914e-13
1.96236e-13
3.16852e-13
3.84727e-13
7.6789e-13
8.37909e-13
2.62364e-12
2.48813e-12
1.70175e-11
1.6227e-11
2.3447e-10
2.75448e-10
4.37622e-09
6.04433e-09
7.29506e-08
1.10218e-07
7.77795e-07
1.19895e-06
5.54208e-06
6.62145e-06
3.32649e-05
2.67861e-05
0.000203147
0.00011148
0.000701789
0.000426969
0.000907629
0.000838717
0.00106521
0.00082564
0.00174589
0.00123856
0.00215845
0.00180983
0.00199687
0.00159266
0.00208477
0.00153753
0.00165492
0.00136346
0.00131717
0.000953379
0.000901445
0.000717847
0.000628155
0.000484229
0.000459448
0.000387086
0.000470931
0.000422469
0.000519239
0.000447345
0.000470864
0.000464374
0.000403189
0.000468837
0.000638417
0.000728019
0.00145733
0.00151159
0.00178576
0.00153416
0.00261739
0.00190807
0.00464672
0.00310828
0.0216564
0.00965373
0.0388838
0.0308021
0.0235753
0.0353599
0.0385615
0.0348284
0.0304228
0.0298137
0.0324198
0.0432858
0.0461193
0.0450273
0.0444752
0.0430893
0.0426428
0.0432356
0.0477184
0.0470874
0.0440386
0.0418253
0.0388801
0.0315889
0.0175438
0.00901962
0.00424539
0.00188386
0.00104815
0.000783008
0.000720939
0.000768233
0.000900904
0.0010031
0.000966271
0.00100425
0.0013498
0.00140356
0.00139444
0.00157196
0.00176056
0.00176235
0.00177094
0.00187187
0.00257662
0.00299065
0.00296351
0.00263513
0.00244826
0.002437
0.00253614
0.00303039
0.00374689
0.00429937
0.0046693
0.0048304
0.00483902
0.00479915
0.00466349
0.00421754