/*--------------------------------*- C++ -*----------------------------------*\
| =========                 |                                                 |
| \\      /  F ield         | OpenFOAM: The Open Source CFD Toolbox           |
|  \\    /   O peration     | Version:  2.4.0                                 |
|   \\  /    A nd           | Web:      www.OpenFOAM.org                      |
|    \\/     M anipulation  |                                                 |
\*---------------------------------------------------------------------------*/
FoamFile
{
    version     2.0;
    format      ascii;
    class       surfaceScalarField;
    location    "0.217";
    object      phi;
}
// * * * * * * * * * * * * * * * * * * * * * * * * * * * * * * * * * * * * * //

dimensions      [0 3 -1 0 0 0 0];

internalField   nonuniform List<scalar> 
34880
(
5.48961e-06
7.01039e-06
3.1226e-06
2.36701e-06
2.47224e-06
6.50354e-07
2.22134e-06
2.50909e-07
2.07009e-06
1.51241e-07
1.97142e-06
9.8671e-08
1.88981e-06
8.16175e-08
1.81452e-06
7.52835e-08
1.7758e-06
3.87265e-08
1.74534e-06
3.0453e-08
1.69708e-06
4.82666e-08
1.68946e-06
7.61256e-09
1.66467e-06
2.4791e-08
1.64736e-06
1.7312e-08
1.62378e-06
2.35863e-08
1.66141e-06
-3.76314e-08
1.62346e-06
3.79502e-08
1.7247e-06
-1.01247e-07
1.52202e-06
2.02688e-07
-1.08023e-06
2.60225e-06
1.01118e-05
9.39855e-06
7.82711e-06
4.65174e-06
6.71065e-06
1.76681e-06
6.06559e-06
8.95972e-07
5.63789e-06
5.78937e-07
5.35794e-06
3.78621e-07
5.12295e-06
3.16611e-07
4.93595e-06
2.62279e-07
4.81743e-06
1.57249e-07
4.70274e-06
1.45139e-07
4.60672e-06
1.44295e-07
4.55102e-06
6.33111e-08
4.48335e-06
9.24612e-08
4.42877e-06
7.18925e-08
4.3864e-06
6.59504e-08
4.41566e-06
-6.68843e-08
4.3455e-06
1.08106e-07
4.54358e-06
-2.99332e-07
4.39091e-06
3.5536e-07
-1.8614e-06
5.17208e-06
1.24244e-05
9.47413e-06
1.10013e-05
6.07482e-06
9.98182e-06
2.78634e-06
9.2031e-06
1.67469e-06
8.61012e-06
1.17192e-06
8.20208e-06
7.86661e-07
7.85462e-06
6.64071e-07
7.5842e-06
5.32706e-07
7.40274e-06
3.38707e-07
7.21309e-06
3.34782e-07
7.08436e-06
2.73033e-07
6.98028e-06
1.6739e-07
6.87969e-06
1.93048e-07
6.7895e-06
1.62082e-07
6.73468e-06
1.20772e-07
6.73402e-06
-6.62222e-08
6.65415e-06
1.8797e-07
6.85536e-06
-5.0054e-07
6.79803e-06
4.12698e-07
-2.62976e-06
7.56638e-06
1.34093e-05
8.56483e-06
1.28851e-05
6.59902e-06
1.23291e-05
3.34238e-06
1.17159e-05
2.28783e-06
1.11234e-05
1.7644e-06
1.06733e-05
1.23677e-06
1.02711e-05
1.06624e-06
9.94354e-06
8.60318e-07
9.72854e-06
5.53704e-07
9.48004e-06
5.83281e-07
9.32724e-06
4.25832e-07
9.18786e-06
3.06765e-07
9.05987e-06
3.2104e-07
8.93954e-06
2.82417e-07
8.87451e-06
1.85805e-07
8.84231e-06
-3.40253e-08
8.75798e-06
2.72302e-07
8.92414e-06
-6.667e-07
8.95933e-06
3.77501e-07
-3.18064e-06
9.51021e-06
1.35848e-05
7.48001e-06
1.36536e-05
6.5302e-06
1.36303e-05
3.36573e-06
1.33989e-05
2.51919e-06
1.30068e-05
2.15651e-06
1.26394e-05
1.60423e-06
1.22753e-05
1.43033e-06
1.194e-05
1.19557e-06
1.17346e-05
7.59129e-07
1.14597e-05
8.58188e-07
1.12979e-05
5.87557e-07
1.11449e-05
4.59845e-07
1.09999e-05
4.6601e-07
1.08632e-05
4.19151e-07
1.0789e-05
2.59944e-07
1.07388e-05
1.62205e-08
1.06482e-05
3.62847e-07
1.07629e-05
-7.8141e-07
1.08946e-05
2.45841e-07
-3.59665e-06
1.13106e-05
1.34692e-05
6.51085e-06
1.3739e-05
6.26037e-06
1.40105e-05
3.09424e-06
1.41376e-05
2.39204e-06
1.40726e-05
2.22159e-06
1.39089e-05
1.7679e-06
1.37033e-05
1.63591e-06
1.34428e-05
1.4561e-06
1.33076e-05
8.94348e-07
1.30603e-05
1.10548e-06
1.29143e-05
7.33527e-07
1.2782e-05
5.92113e-07
1.26361e-05
6.11986e-07
1.25096e-05
5.45637e-07
1.24278e-05
3.41718e-07
1.23806e-05
6.34119e-08
1.22892e-05
4.54289e-07
1.23515e-05
-8.43694e-07
1.25395e-05
5.78031e-08
-3.47036e-06
1.24132e-05
1.33409e-05
5.66998e-06
1.36626e-05
5.93859e-06
1.395e-05
2.80686e-06
1.42089e-05
2.13313e-06
1.43851e-05
2.04547e-06
1.44064e-05
1.74651e-06
1.44188e-05
1.62352e-06
1.43023e-05
1.57258e-06
1.42977e-05
8.99038e-07
1.41561e-05
1.24708e-06
1.40672e-05
8.22343e-07
1.40022e-05
6.57149e-07
1.38818e-05
7.32359e-07
1.38025e-05
6.24933e-07
1.37288e-05
4.15435e-07
1.36997e-05
9.25272e-08
1.36283e-05
5.25719e-07
1.36527e-05
-8.6811e-07
1.38665e-05
-1.56003e-07
-2.97222e-06
1.33684e-05
1.32559e-05
4.91406e-06
1.36207e-05
5.57386e-06
1.38149e-05
2.61263e-06
1.40723e-05
1.87568e-06
1.43349e-05
1.78292e-06
1.44169e-05
1.66449e-06
1.45629e-05
1.47757e-06
1.4561e-05
1.5744e-06
1.46612e-05
7.98927e-07
1.46565e-05
1.25175e-06
1.46556e-05
8.23183e-07
1.46942e-05
6.18613e-07
1.46371e-05
7.89466e-07
1.46373e-05
6.24714e-07
1.461e-05
4.42724e-07
1.46144e-05
8.81736e-08
1.45897e-05
5.50339e-07
1.46106e-05
-8.89009e-07
1.4849e-05
-3.94381e-07
-1.98399e-06
1.38608e-05
1.32219e-05
4.19213e-06
1.35561e-05
5.23973e-06
1.36897e-05
2.47894e-06
1.39295e-05
1.63597e-06
1.42129e-05
1.49951e-06
1.43148e-05
1.56251e-06
1.44912e-05
1.30126e-06
1.45444e-05
1.52119e-06
1.46574e-05
6.85851e-07
1.47167e-05
1.19246e-06
1.47752e-05
7.64723e-07
1.48872e-05
5.0664e-07
1.48989e-05
7.77686e-07
1.49704e-05
5.53216e-07
1.50114e-05
4.01768e-07
1.5062e-05
3.7584e-08
1.50961e-05
5.16222e-07
1.51577e-05
-9.50577e-07
1.54408e-05
-6.77517e-07
-2.16883e-06
1.56256e-05
1.31732e-05
3.5189e-06
1.35445e-05
4.86846e-06
1.3636e-05
2.38747e-06
1.38291e-05
1.44287e-06
1.40962e-05
1.23238e-06
1.42166e-05
1.44208e-06
1.43714e-05
1.14644e-06
1.44858e-05
1.40687e-06
1.45984e-05
5.73166e-07
1.46484e-05
1.14248e-06
1.47276e-05
6.85513e-07
1.4846e-05
3.88283e-07
1.48763e-05
7.47409e-07
1.49733e-05
4.56196e-07
1.5057e-05
3.18015e-07
1.51309e-05
-3.62515e-08
1.52215e-05
4.25563e-07
1.53239e-05
-1.05299e-06
1.5536e-05
-8.89586e-07
-2.45191e-06
1.58191e-05
1.30978e-05
2.9211e-06
1.3539e-05
4.4273e-06
1.36149e-05
2.31158e-06
1.37837e-05
1.27402e-06
1.40134e-05
1.00267e-06
1.41149e-05
1.34061e-06
1.42634e-05
9.97914e-07
1.44472e-05
1.22314e-06
1.45627e-05
4.57599e-07
1.46126e-05
1.09265e-06
1.46843e-05
6.1374e-07
1.47627e-05
3.0989e-07
1.47718e-05
7.38336e-07
1.48831e-05
3.44912e-07
1.49761e-05
2.2496e-07
1.50491e-05
-1.09259e-07
1.51834e-05
2.91278e-07
1.52853e-05
-1.15488e-06
1.54701e-05
-1.07435e-06
-2.9466e-06
1.59648e-05
1.3024e-05
2.39709e-06
1.34653e-05
3.98606e-06
1.35818e-05
2.195e-06
1.37853e-05
1.07053e-06
1.39651e-05
8.22878e-07
1.40545e-05
1.2512e-06
1.42183e-05
8.34129e-07
1.43919e-05
1.04953e-06
1.44703e-05
3.79178e-07
1.45674e-05
9.95627e-07
1.46394e-05
5.41697e-07
1.4688e-05
2.61331e-07
1.46977e-05
7.28637e-07
1.48375e-05
2.05024e-07
1.4919e-05
1.43497e-07
1.49667e-05
-1.56935e-07
1.51002e-05
1.57801e-07
1.52122e-05
-1.26695e-06
1.54615e-05
-1.32358e-06
-3.26086e-06
1.57757e-05
1.29431e-05
1.95403e-06
1.3374e-05
3.5551e-06
1.35926e-05
1.97638e-06
1.3782e-05
8.81111e-07
1.39406e-05
6.64298e-07
1.40467e-05
1.14515e-06
1.41643e-05
7.16507e-07
1.42976e-05
9.16215e-07
1.43707e-05
3.06116e-07
1.45121e-05
8.54197e-07
1.45829e-05
4.70899e-07
1.46408e-05
2.03472e-07
1.46853e-05
6.84136e-07
1.48014e-05
8.88769e-08
1.48694e-05
7.55033e-08
1.48974e-05
-1.8493e-07
1.50341e-05
2.11335e-08
1.51571e-05
-1.39001e-06
1.53986e-05
-1.56503e-06
-3.13399e-06
1.52717e-05
1.28692e-05
1.58481e-06
1.33291e-05
3.09523e-06
1.3636e-05
1.66946e-06
1.37503e-05
7.66809e-07
1.39008e-05
5.13773e-07
1.40216e-05
1.02437e-06
1.40877e-05
6.50454e-07
1.42263e-05
7.7763e-07
1.43397e-05
1.92691e-07
1.44893e-05
7.04569e-07
1.45263e-05
4.33953e-07
1.45988e-05
1.30886e-07
1.46703e-05
6.12686e-07
1.47384e-05
2.07551e-08
1.48063e-05
7.60625e-09
1.4847e-05
-2.25617e-07
1.49909e-05
-1.22796e-07
1.51158e-05
-1.51489e-06
1.52819e-05
-1.73109e-06
-2.93211e-06
1.508e-05
1.28389e-05
1.24596e-06
1.33185e-05
2.61564e-06
1.36107e-05
1.37722e-06
1.37008e-05
6.76683e-07
1.38416e-05
3.73018e-07
1.39749e-05
8.91017e-07
1.40492e-05
5.76165e-07
1.4217e-05
6.09839e-07
1.43252e-05
8.44621e-08
1.44555e-05
5.7433e-07
1.44756e-05
4.13824e-07
1.45497e-05
5.67698e-08
1.46274e-05
5.34985e-07
1.46918e-05
-4.36097e-08
1.47755e-05
-7.611e-08
1.48306e-05
-2.8074e-07
1.49593e-05
-2.51489e-07
1.50565e-05
-1.61204e-06
1.51924e-05
-1.86703e-06
-2.96495e-06
1.52253e-05
1.28263e-05
9.19698e-07
1.32736e-05
2.16826e-06
1.35565e-05
1.09433e-06
1.36798e-05
5.53431e-07
1.38114e-05
2.41418e-07
1.39524e-05
7.50017e-07
1.40423e-05
4.86211e-07
1.4214e-05
4.38194e-07
1.42783e-05
2.01172e-08
1.43935e-05
4.59162e-07
1.4432e-05
3.75296e-07
1.45001e-05
-1.12844e-08
1.4602e-05
4.33093e-07
1.46701e-05
-1.11732e-07
1.47811e-05
-1.87149e-07
1.47992e-05
-2.98774e-07
1.49424e-05
-3.94729e-07
1.49714e-05
-1.64107e-06
1.51072e-05
-2.00283e-06
-3.2988e-06
1.54411e-05
1.27891e-05
6.30592e-07
1.32232e-05
1.73412e-06
1.35452e-05
7.72387e-07
1.36841e-05
4.14569e-07
1.37885e-05
1.3702e-07
1.39338e-05
6.04695e-07
1.40246e-05
3.95339e-07
1.41882e-05
2.74679e-07
1.42393e-05
-3.10203e-08
1.43515e-05
3.46945e-07
1.44114e-05
3.15375e-07
1.44697e-05
-6.95024e-08
1.46026e-05
3.00154e-07
1.46478e-05
-1.56953e-07
1.47511e-05
-2.90474e-07
1.4749e-05
-2.96624e-07
1.4924e-05
-5.69753e-07
1.49173e-05
-1.63437e-06
1.48774e-05
-1.96291e-06
-2.28805e-06
1.38666e-05
1.27604e-05
3.70181e-07
1.32298e-05
1.26475e-06
1.35513e-05
4.50915e-07
1.36568e-05
3.08984e-07
1.37401e-05
5.37266e-08
1.39079e-05
4.3697e-07
1.40074e-05
2.95766e-07
1.41771e-05
1.04999e-07
1.42219e-05
-7.57692e-08
1.43359e-05
2.32877e-07
1.44027e-05
2.48578e-07
1.44675e-05
-1.34305e-07
1.45853e-05
1.82343e-07
1.46149e-05
-1.86508e-07
1.46864e-05
-3.61988e-07
1.47565e-05
-3.66761e-07
1.49011e-05
-7.14303e-07
1.49041e-05
-1.63736e-06
1.501e-05
-2.06883e-06
-2.69289e-06
1.54148e-05
1.27613e-05
1.08845e-07
1.32301e-05
7.96032e-07
1.35199e-05
1.61062e-07
1.36308e-05
1.98073e-07
1.37217e-05
-3.71822e-08
1.3908e-05
2.50735e-07
1.40103e-05
1.93391e-07
1.41713e-05
-5.59194e-08
1.42056e-05
-1.10072e-07
1.43134e-05
1.25075e-07
1.43987e-05
1.63279e-07
1.44544e-05
-1.90057e-07
1.45653e-05
7.14642e-08
1.45838e-05
-2.05006e-07
1.46689e-05
-4.47094e-07
1.47829e-05
-4.80774e-07
1.48767e-05
-8.08092e-07
1.48842e-05
-1.64484e-06
1.49919e-05
-2.17657e-06
-2.96653e-06
1.52656e-05
1.27579e-05
-1.49078e-07
1.31992e-05
3.54751e-07
1.35025e-05
-1.42252e-07
1.36544e-05
4.62037e-08
1.37281e-05
-1.10883e-07
1.39052e-05
7.35971e-08
1.40073e-05
9.13077e-08
1.41604e-05
-2.09056e-07
1.41924e-05
-1.42002e-07
1.43009e-05
1.65498e-08
1.43997e-05
6.44806e-08
1.4447e-05
-2.37397e-07
1.45499e-05
-3.14026e-08
1.45859e-05
-2.40993e-07
1.46759e-05
-5.37149e-07
1.47781e-05
-5.82939e-07
1.4838e-05
-8.67954e-07
1.48626e-05
-1.66947e-06
1.49928e-05
-2.3068e-06
-3.2081e-06
1.52344e-05
1.27452e-05
-3.94252e-07
1.31943e-05
-9.43482e-08
1.35286e-05
-4.76613e-07
1.36708e-05
-9.59656e-08
1.3706e-05
-1.46122e-07
1.38907e-05
-1.11065e-07
1.40071e-05
-2.51181e-08
1.41563e-05
-3.58196e-07
1.41992e-05
-1.84973e-07
1.43074e-05
-9.16075e-08
1.44114e-05
-3.95268e-08
1.44398e-05
-2.6577e-07
1.45492e-05
-1.40838e-07
1.45927e-05
-2.84483e-07
1.46746e-05
-6.19071e-07
1.47562e-05
-6.64539e-07
1.48311e-05
-9.42869e-07
1.48484e-05
-1.68675e-06
1.49857e-05
-2.44405e-06
-3.56416e-06
1.53417e-05
1.275e-05
-6.4423e-07
1.3216e-05
-5.60378e-07
1.3538e-05
-7.98575e-07
1.365e-05
-2.08044e-07
1.36979e-05
-1.9402e-07
1.3909e-05
-3.22149e-07
1.40225e-05
-1.38569e-07
1.41581e-05
-4.93768e-07
1.42158e-05
-2.42693e-07
1.43123e-05
-1.88135e-07
1.44126e-05
-1.3986e-07
1.44332e-05
-2.86381e-07
1.45615e-05
-2.69127e-07
1.45936e-05
-3.16562e-07
1.46752e-05
-7.00683e-07
1.47558e-05
-7.45143e-07
1.48383e-05
-1.02532e-06
1.48566e-05
-1.70511e-06
1.48419e-05
-2.42934e-06
-2.49404e-06
1.37718e-05
1.27685e-05
-9.12708e-07
1.32323e-05
-1.02417e-06
1.35287e-05
-1.09496e-06
1.36443e-05
-3.23729e-07
1.37269e-05
-2.76594e-07
1.39389e-05
-5.34112e-07
1.40301e-05
-2.29784e-07
1.41608e-05
-6.2442e-07
1.4233e-05
-3.14902e-07
1.43262e-05
-2.81348e-07
1.44067e-05
-2.20431e-07
1.44569e-05
-3.36514e-07
1.45722e-05
-3.84497e-07
1.46173e-05
-3.61568e-07
1.46694e-05
-7.52822e-07
1.47748e-05
-8.50574e-07
1.48243e-05
-1.07479e-06
1.48912e-05
-1.77201e-06
1.49741e-05
-2.51227e-06
-2.8137e-06
1.52938e-05
1.27888e-05
-1.20146e-06
1.32448e-05
-1.48017e-06
1.35363e-05
-1.38652e-06
1.36648e-05
-4.52248e-07
1.3757e-05
-3.68731e-07
1.39499e-05
-7.27094e-07
1.40381e-05
-3.17893e-07
1.41768e-05
-7.63195e-07
1.42663e-05
-4.04337e-07
1.43407e-05
-3.55823e-07
1.44248e-05
-3.04517e-07
1.44886e-05
-4.00333e-07
1.45816e-05
-4.77425e-07
1.46411e-05
-4.21106e-07
1.46779e-05
-7.89604e-07
1.47822e-05
-9.54833e-07
1.48248e-05
-1.11746e-06
1.49393e-05
-1.88652e-06
1.49777e-05
-2.55064e-06
-3.0148e-06
1.51788e-05
1.2811e-05
-1.5125e-06
1.32678e-05
-1.93696e-06
1.35594e-05
-1.67813e-06
1.36843e-05
-5.771e-07
1.37802e-05
-4.64628e-07
1.39674e-05
-9.14327e-07
1.40662e-05
-4.16706e-07
1.42109e-05
-9.07831e-07
1.42978e-05
-4.9125e-07
1.43547e-05
-4.12749e-07
1.44513e-05
-4.01142e-07
1.45177e-05
-4.66705e-07
1.45901e-05
-5.49852e-07
1.46701e-05
-5.01069e-07
1.4697e-05
-8.16468e-07
1.48007e-05
-1.05859e-06
1.48636e-05
-1.18038e-06
1.49473e-05
-1.9702e-06
1.49778e-05
-2.58109e-06
-3.23909e-06
1.52021e-05
1.28399e-05
-1.85236e-06
1.33062e-05
-2.40329e-06
1.35842e-05
-1.95617e-06
1.36996e-05
-6.92458e-07
1.38118e-05
-5.76872e-07
1.40006e-05
-1.10312e-06
1.41118e-05
-5.27935e-07
1.42394e-05
-1.03535e-06
1.43202e-05
-5.72069e-07
1.43778e-05
-4.70345e-07
1.44908e-05
-5.1413e-07
1.4542e-05
-5.17938e-07
1.46192e-05
-6.27062e-07
1.47047e-05
-5.86554e-07
1.47314e-05
-8.43191e-07
1.48262e-05
-1.15342e-06
1.49137e-05
-1.26788e-06
1.49267e-05
-1.98316e-06
1.49906e-05
-2.64496e-06
-3.64306e-06
1.53945e-05
1.28817e-05
-2.23402e-06
1.33489e-05
-2.8705e-06
1.35991e-05
-2.20636e-06
1.37232e-05
-8.1657e-07
1.38612e-05
-7.14924e-07
1.40478e-05
-1.28964e-06
1.41586e-05
-6.38783e-07
1.42606e-05
-1.1374e-06
1.43519e-05
-6.63288e-07
1.44181e-05
-5.36558e-07
1.45299e-05
-6.25991e-07
1.45764e-05
-5.64367e-07
1.46659e-05
-7.16632e-07
1.47382e-05
-6.58781e-07
1.47666e-05
-8.71639e-07
1.48619e-05
-1.24875e-06
1.49446e-05
-1.35052e-06
1.49433e-05
-1.98188e-06
1.49124e-05
-2.61403e-06
-2.62556e-06
1.38949e-05
1.29306e-05
-2.6646e-06
1.3387e-05
-3.32688e-06
1.35931e-05
-2.41254e-06
1.37664e-05
-9.89833e-07
1.39232e-05
-8.71697e-07
1.40996e-05
-1.46605e-06
1.42026e-05
-7.41823e-07
1.42896e-05
-1.22441e-06
1.43971e-05
-7.70739e-07
1.4471e-05
-6.10468e-07
1.4565e-05
-7.20032e-07
1.46336e-05
-6.32952e-07
1.47048e-05
-7.8776e-07
1.47861e-05
-7.40114e-07
1.47953e-05
-8.80896e-07
1.49105e-05
-1.36387e-06
1.49597e-05
-1.39978e-06
1.50209e-05
-2.04305e-06
1.51036e-05
-2.69678e-06
-3.01849e-06
1.54966e-05
1.29795e-05
-3.14413e-06
1.34298e-05
-3.77712e-06
1.36112e-05
-2.59398e-06
1.38204e-05
-1.19906e-06
1.39884e-05
-1.03965e-06
1.4148e-05
-1.62564e-06
1.42503e-05
-8.44167e-07
1.4325e-05
-1.29909e-06
1.44544e-05
-9.00162e-07
1.45193e-05
-6.75377e-07
1.4615e-05
-8.15739e-07
1.46925e-05
-7.10436e-07
1.47518e-05
-8.47023e-07
1.4826e-05
-8.14342e-07
1.48485e-05
-9.03353e-07
1.49612e-05
-1.4766e-06
1.49936e-05
-1.43221e-06
1.51015e-05
-2.15093e-06
1.51592e-05
-2.75444e-06
-3.31258e-06
1.54533e-05
1.30243e-05
-3.66846e-06
1.34908e-05
-4.24356e-06
1.36722e-05
-2.77541e-06
1.38734e-05
-1.40028e-06
1.40513e-05
-1.21757e-06
1.41983e-05
-1.77255e-06
1.43041e-05
-9.50007e-07
1.43729e-05
-1.36786e-06
1.45179e-05
-1.04521e-06
1.4575e-05
-7.32494e-07
1.46745e-05
-9.15231e-07
1.47476e-05
-7.83509e-07
1.48053e-05
-9.04746e-07
1.48741e-05
-8.83156e-07
1.49264e-05
-9.55598e-07
1.50193e-05
-1.56957e-06
1.50573e-05
-1.47017e-06
1.51409e-05
-2.23454e-06
1.51684e-05
-2.78197e-06
-3.51918e-06
1.5375e-05
1.30743e-05
-4.24279e-06
1.35819e-05
-4.75117e-06
1.37421e-05
-2.93556e-06
1.39176e-05
-1.57575e-06
1.41177e-05
-1.41773e-06
1.42558e-05
-1.91059e-06
1.43656e-05
-1.05982e-06
1.44455e-05
-1.44777e-06
1.45884e-05
-1.18817e-06
1.46428e-05
-7.86811e-07
1.47337e-05
-1.00613e-06
1.48086e-05
-8.58456e-07
1.48677e-05
-9.63853e-07
1.49372e-05
-9.52672e-07
1.50025e-05
-1.02089e-06
1.50472e-05
-1.61424e-06
1.50677e-05
-1.49069e-06
1.50672e-05
-2.23405e-06
1.50245e-05
-2.73924e-06
-3.64795e-06
1.51533e-05
1.31521e-05
-4.89488e-06
1.36849e-05
-5.28395e-06
1.37874e-05
-3.03804e-06
1.39603e-05
-1.74873e-06
1.42096e-05
-1.66696e-06
1.43298e-05
-2.03086e-06
1.44541e-05
-1.18407e-06
1.45404e-05
-1.53406e-06
1.46492e-05
-1.29697e-06
1.47073e-05
-8.44925e-07
1.47747e-05
-1.07359e-06
1.48416e-05
-9.25338e-07
1.48773e-05
-9.99515e-07
1.49118e-05
-9.87234e-07
1.49348e-05
-1.04389e-06
1.4886e-05
-1.56541e-06
1.48436e-05
-1.44825e-06
1.47173e-05
-2.10782e-06
1.45563e-05
-2.57821e-06
-3.72287e-06
1.46312e-05
1.32522e-05
-5.64709e-06
1.37468e-05
-5.77854e-06
1.38226e-05
-3.11383e-06
1.40605e-05
-1.98667e-06
1.43373e-05
-1.94377e-06
1.44103e-05
-2.10382e-06
1.45416e-05
-1.3154e-06
1.45827e-05
-1.57511e-06
1.46185e-05
-1.33278e-06
1.46536e-05
-8.8002e-07
1.46441e-05
-1.0641e-06
1.46407e-05
-9.21918e-07
1.45972e-05
-9.55984e-07
1.45447e-05
-9.34804e-07
1.44786e-05
-9.77783e-07
1.43266e-05
-1.41343e-06
1.41996e-05
-1.32117e-06
1.39618e-05
-1.8701e-06
1.3658e-05
-2.27441e-06
-2.80946e-06
1.27446e-05
1.33561e-05
-6.50317e-06
1.37302e-05
-6.15268e-06
1.39155e-05
-3.2991e-06
1.42077e-05
-2.27885e-06
1.44024e-05
-2.13848e-06
1.43734e-05
-2.07486e-06
1.44223e-05
-1.36426e-06
1.43283e-05
-1.48115e-06
1.42324e-05
-1.23684e-06
1.41722e-05
-8.19817e-07
1.40426e-05
-9.3448e-07
1.39384e-05
-8.17765e-07
1.38077e-05
-8.25308e-07
1.3675e-05
-8.02028e-07
1.35341e-05
-8.36957e-07
1.33165e-05
-1.19576e-06
1.31227e-05
-1.12743e-06
1.28232e-05
-1.57056e-06
1.24821e-05
-1.93334e-06
-2.62369e-06
1.22963e-05
1.34785e-05
-7.48172e-06
1.37805e-05
-6.45459e-06
1.39777e-05
-3.49638e-06
1.41489e-05
-2.45005e-06
1.40959e-05
-2.08543e-06
1.3865e-05
-1.84399e-06
1.37211e-05
-1.22032e-06
1.34606e-05
-1.22069e-06
1.32368e-05
-1.01297e-06
1.30817e-05
-6.64768e-07
1.28736e-05
-7.26414e-07
1.27085e-05
-6.52673e-07
1.25318e-05
-6.48594e-07
1.23586e-05
-6.28771e-07
1.21807e-05
-6.59108e-07
1.19326e-05
-9.47583e-07
1.17037e-05
-8.98538e-07
1.13761e-05
-1.24301e-06
1.09822e-05
-1.53944e-06
-1.9359e-06
1.02944e-05
1.3588e-05
-8.56967e-06
1.36794e-05
-6.54605e-06
1.36072e-05
-3.42413e-06
1.34101e-05
-2.253e-06
1.30277e-05
-1.70298e-06
1.25953e-05
-1.41168e-06
1.22965e-05
-9.21513e-07
1.19484e-05
-8.72525e-07
1.167e-05
-7.34564e-07
1.14745e-05
-4.69344e-07
1.12476e-05
-4.99424e-07
1.10649e-05
-4.69983e-07
1.08769e-05
-4.60637e-07
1.06951e-05
-4.4698e-07
1.05078e-05
-4.71762e-07
1.02536e-05
-6.93439e-07
1.00145e-05
-6.59374e-07
9.67841e-06
-9.0696e-07
9.28035e-06
-1.14138e-06
-1.38492e-06
8.72936e-06
1.34102e-05
-9.47992e-06
1.29029e-05
-6.03866e-06
1.23139e-05
-2.8352e-06
1.17237e-05
-1.66278e-06
1.11401e-05
-1.11939e-06
1.06345e-05
-9.06024e-07
1.02907e-05
-5.77708e-07
9.94508e-06
-5.26941e-07
9.67314e-06
-4.62624e-07
9.48268e-06
-2.78887e-07
9.27672e-06
-2.93466e-07
9.10378e-06
-2.97038e-07
8.92893e-06
-2.85785e-07
8.76095e-06
-2.79005e-07
8.58408e-06
-2.94889e-07
8.3439e-06
-4.53261e-07
8.11261e-06
-4.28086e-07
7.79439e-06
-5.88735e-07
7.40626e-06
-7.53245e-07
-9.18827e-07
6.94017e-06
1.2424e-05
-9.40394e-06
1.10143e-05
-4.62898e-06
9.97182e-06
-1.79269e-06
9.20611e-06
-8.9707e-07
8.62535e-06
-5.38631e-07
8.16994e-06
-4.50617e-07
7.86776e-06
-2.75527e-07
7.58492e-06
-2.44097e-07
7.3563e-06
-2.34004e-07
7.20272e-06
-1.25302e-07
7.0423e-06
-1.33046e-07
6.89676e-06
-1.51498e-07
6.7527e-06
-1.41725e-07
6.6136e-06
-1.39908e-07
6.46404e-06
-1.45332e-07
6.25415e-06
-2.43369e-07
6.05001e-06
-2.23949e-07
5.77161e-06
-3.10335e-07
5.41936e-06
-4.00987e-07
-5.13344e-07
5.01387e-06
1.01095e-05
-7.01348e-06
7.83785e-06
-2.35729e-06
6.70425e-06
-6.59092e-07
6.06293e-06
-2.55752e-07
5.65439e-06
-1.30091e-07
5.33144e-06
-1.27669e-07
5.12756e-06
-7.16424e-08
4.9422e-06
-5.87357e-08
4.77974e-06
-7.15461e-08
4.68363e-06
-2.91934e-08
4.58171e-06
-3.11213e-08
4.47684e-06
-4.66341e-08
4.37682e-06
-4.17064e-08
4.27825e-06
-4.13327e-08
4.17289e-06
-3.99741e-08
4.01053e-06
-8.10099e-08
3.85697e-06
-7.03886e-08
3.64437e-06
-9.77329e-08
3.37103e-06
-1.27651e-07
-1.9481e-07
3.0525e-06
5.48652e-06
3.12924e-06
2.47014e-06
2.21439e-06
2.0843e-06
1.95663e-06
1.88499e-06
1.82625e-06
1.75471e-06
1.72551e-06
1.69439e-06
1.64776e-06
1.60605e-06
1.56472e-06
1.52475e-06
1.44374e-06
1.37335e-06
1.27561e-06
1.14796e-06
9.53153e-07
3.50417e-06
-4.88213e-07
-4.13706e-07
3.72611e-06
-1.15635e-06
9.34408e-07
3.94373e-06
-1.53896e-06
1.32133e-06
3.82008e-06
-1.28598e-06
1.40964e-06
3.72979e-06
-9.29364e-07
1.01965e-06
4.77786e-06
1.74761e-06
-2.79568e-06
5.37647e-06
8.15413e-07
-1.41403e-06
5.38194e-06
1.06004e-07
-1.11474e-07
6.29187e-06
-3.97177e-07
-5.12751e-07
8.49614e-06
-2.01437e-06
-1.89895e-07
1.04714e-05
-1.94203e-07
-1.78103e-06
1.19571e-05
4.45396e-06
-5.93964e-06
1.27902e-05
4.26528e-06
-5.09845e-06
1.32195e-05
1.92585e-06
-2.35515e-06
1.41521e-05
1.77065e-06
-2.70322e-06
1.48432e-05
7.94283e-07
-1.48542e-06
1.54357e-05
-1.28832e-06
6.95872e-07
1.6e-05
-3.06899e-06
2.50471e-06
1.62887e-05
-4.84244e-06
4.55366e-06
1.6557e-05
-6.77191e-06
6.50362e-06
1.63765e-05
-9.14978e-06
9.33031e-06
1.57992e-05
-1.06684e-05
1.12456e-05
1.55956e-05
-1.17693e-05
1.19729e-05
1.60559e-05
-1.45275e-05
1.40673e-05
1.65304e-05
-1.71185e-05
1.6644e-05
1.65188e-05
-1.91909e-05
1.92025e-05
1.60575e-05
-2.01308e-05
2.05921e-05
1.53361e-05
-1.95532e-05
2.02746e-05
1.46904e-05
-1.88656e-05
1.95114e-05
1.40723e-05
-1.80871e-05
1.87051e-05
1.33599e-05
-1.66574e-05
1.73699e-05
1.28978e-05
-1.4965e-05
1.5427e-05
1.22892e-05
-1.34853e-05
1.4094e-05
1.17611e-05
-1.11831e-05
1.17112e-05
1.11463e-05
-9.03272e-06
9.64747e-06
1.03826e-05
-8.63838e-06
9.40206e-06
9.97263e-06
-6.58315e-06
6.99316e-06
9.32318e-06
-4.45456e-06
5.10401e-06
8.6216e-06
-3.72568e-06
4.42726e-06
8.23869e-06
-2.35297e-06
2.73588e-06
7.55142e-06
-7.93984e-07
1.48126e-06
7.1462e-06
9.5585e-07
-5.50629e-07
7.18354e-06
2.88866e-06
-2.926e-06
6.82742e-06
2.81873e-06
-2.46261e-06
6.36918e-06
2.45095e-06
-1.9927e-06
6.64945e-06
4.69216e-06
-4.97244e-06
7.58855e-06
9.83079e-06
-1.07699e-05
8.86185e-06
1.64334e-05
-1.77067e-05
1.00491e-05
2.23684e-05
-2.35556e-05
1.08199e-05
2.60129e-05
-2.67837e-05
1.10907e-05
2.69749e-05
-2.72457e-05
1.09893e-05
2.57921e-05
-2.56907e-05
1.07222e-05
2.33016e-05
-2.30345e-05
1.04866e-05
2.02123e-05
-1.99767e-05
1.04244e-05
1.72301e-05
-1.71679e-05
1.05353e-05
1.46275e-05
-1.47383e-05
1.07304e-05
1.22882e-05
-1.24833e-05
1.08908e-05
9.8439e-06
-1.00043e-05
1.10167e-05
6.80539e-06
-6.93131e-06
1.11331e-05
3.51554e-06
-3.63195e-06
1.0987e-05
1.02973e-06
-8.83643e-07
1.05564e-05
-1.44664e-06
1.87721e-06
1.01336e-05
-4.7716e-06
5.19447e-06
9.76765e-06
-8.13456e-06
8.50047e-06
9.38479e-06
-1.16873e-05
1.20702e-05
9.08571e-06
-1.60255e-05
1.63246e-05
9.00902e-06
-1.99109e-05
1.99876e-05
9.01403e-06
-2.26257e-05
2.26207e-05
9.00527e-06
-2.51922e-05
2.5201e-05
9.14264e-06
-2.63453e-05
2.62079e-05
9.28813e-06
-2.47032e-05
2.45577e-05
9.33836e-06
-2.23669e-05
2.23167e-05
9.29116e-06
-2.01692e-05
2.02164e-05
9.10399e-06
-1.65831e-05
1.67702e-05
8.77528e-06
-1.17219e-05
1.20506e-05
8.22273e-06
-8.80552e-06
9.35808e-06
7.68008e-06
-1.04196e-05
1.09623e-05
7.48142e-06
-1.42207e-05
1.44193e-05
7.53136e-06
-1.68653e-05
1.68154e-05
7.58727e-06
-1.82173e-05
1.81614e-05
7.6315e-06
-1.94439e-05
1.93997e-05
7.58296e-06
-2.09491e-05
2.09976e-05
7.53043e-06
-2.30158e-05
2.30684e-05
7.62313e-06
-2.42479e-05
2.41552e-05
7.82939e-06
-2.31508e-05
2.29446e-05
8.17116e-06
-2.08118e-05
2.047e-05
8.38763e-06
-1.95627e-05
1.93462e-05
8.52949e-06
-2.04108e-05
2.0269e-05
8.94772e-06
-1.96837e-05
1.92655e-05
9.06449e-06
-1.6523e-05
1.64062e-05
8.87795e-06
-1.13626e-05
1.15491e-05
9.05235e-06
-5.50783e-06
5.33344e-06
9.49393e-06
-3.09822e-06
2.65664e-06
9.94163e-06
7.31245e-07
-1.17895e-06
1.01203e-05
8.32321e-06
-8.50188e-06
9.97804e-06
1.28911e-05
-1.27488e-05
9.94128e-06
1.43076e-05
-1.42708e-05
1.01401e-05
1.81266e-05
-1.83254e-05
1.02356e-05
2.29503e-05
-2.30458e-05
1.00979e-05
2.51315e-05
-2.49938e-05
1.00682e-05
2.56457e-05
-2.56161e-05
1.04045e-05
2.75623e-05
-2.78987e-05
1.08144e-05
3.10567e-05
-3.14666e-05
1.0913e-05
3.34413e-05
-3.35399e-05
1.05474e-05
3.31992e-05
-3.28336e-05
9.85012e-06
3.08928e-05
-3.01956e-05
9.12371e-06
2.80551e-05
-2.73287e-05
8.52387e-06
2.53269e-05
-2.47271e-05
8.0194e-06
2.3138e-05
-2.26335e-05
7.51693e-06
2.13126e-05
-2.08101e-05
7.07629e-06
1.95699e-05
-1.91293e-05
6.6764e-06
1.83313e-05
-1.79314e-05
6.4081e-06
1.66257e-05
-1.63574e-05
6.45276e-06
1.49845e-05
-1.50292e-05
6.68637e-06
1.34875e-05
-1.37211e-05
6.85484e-06
1.12243e-05
-1.13928e-05
6.95571e-06
8.91692e-06
-9.01779e-06
7.19933e-06
6.18142e-06
-6.42504e-06
7.71446e-06
2.50577e-06
-3.0209e-06
8.38812e-06
-1.59375e-06
9.2009e-07
9.06054e-06
-4.31627e-06
3.64385e-06
9.7453e-06
-6.56319e-06
5.87843e-06
1.04416e-05
-9.01456e-06
8.31828e-06
1.09666e-05
-1.03894e-05
9.86434e-06
1.12583e-05
-1.10337e-05
1.07421e-05
1.12896e-05
-1.08864e-05
1.08551e-05
1.11665e-05
-1.00614e-05
1.01845e-05
1.10627e-05
-1.02907e-05
1.03945e-05
1.09281e-05
-1.11879e-05
1.13224e-05
1.06619e-05
-1.14515e-05
1.17177e-05
1.03895e-05
-1.12436e-05
1.15161e-05
1.0192e-05
-1.08392e-05
1.10367e-05
1.00811e-05
-1.01335e-05
1.02444e-05
9.98716e-06
-9.14379e-06
9.23776e-06
9.85227e-06
-8.78761e-06
8.9225e-06
9.73893e-06
-9.06815e-06
9.18148e-06
9.54428e-06
-9.20623e-06
9.40088e-06
9.22098e-06
-9.3471e-06
9.6704e-06
8.83925e-06
-8.75628e-06
9.13801e-06
8.55929e-06
-9.12819e-06
9.40815e-06
8.25751e-06
-9.8115e-06
1.01133e-05
8.14223e-06
-8.98423e-06
9.09951e-06
8.18906e-06
-9.12536e-06
9.07853e-06
8.14113e-06
-1.04346e-05
1.04825e-05
7.94005e-06
-1.03739e-05
1.0575e-05
7.54362e-06
-8.33125e-06
8.72768e-06
7.12195e-06
-6.90651e-06
7.32817e-06
7.00976e-06
-6.78778e-06
6.89997e-06
7.21607e-06
-6.85478e-06
6.64847e-06
7.70541e-06
-7.84165e-06
7.3523e-06
8.3055e-06
-9.67562e-06
9.07553e-06
8.87807e-06
-1.16374e-05
1.10648e-05
9.44276e-06
-1.37165e-05
1.31518e-05
1.00558e-05
-1.56852e-05
1.50722e-05
1.06411e-05
-1.73559e-05
1.67706e-05
1.11489e-05
-1.77772e-05
1.72693e-05
1.14835e-05
-1.73366e-05
1.70021e-05
1.15048e-05
-1.56923e-05
1.5671e-05
1.14439e-05
-1.32514e-05
1.33123e-05
1.13985e-05
-1.0183e-05
1.02284e-05
1.14174e-05
-7.91267e-06
7.89379e-06
1.14371e-05
-5.50126e-06
5.48148e-06
1.14835e-05
-1.79504e-06
1.74872e-06
1.15609e-05
1.19787e-06
-1.2753e-06
1.16091e-05
3.23895e-06
-3.28718e-06
1.16866e-05
6.12647e-06
-6.20397e-06
1.16699e-05
9.8302e-06
-9.81343e-06
1.16973e-05
1.30267e-05
-1.30542e-05
1.16401e-05
1.55836e-05
-1.55264e-05
1.13654e-05
1.82306e-05
-1.79559e-05
1.1175e-05
2.03107e-05
-2.01202e-05
1.08344e-05
2.23586e-05
-2.20181e-05
1.0426e-05
2.4313e-05
-2.39046e-05
9.94869e-06
2.5256e-05
-2.47787e-05
9.42316e-06
2.50029e-05
-2.44773e-05
8.93366e-06
2.36811e-05
-2.31916e-05
8.28339e-06
2.19648e-05
-2.13145e-05
7.72731e-06
1.98032e-05
-1.92471e-05
7.32907e-06
1.79707e-05
-1.75724e-05
7.20998e-06
1.65772e-05
-1.64581e-05
6.70958e-06
1.59872e-05
-1.54868e-05
6.50673e-06
1.57649e-05
-1.5562e-05
6.36493e-06
1.72079e-05
-1.70661e-05
6.23234e-06
1.80516e-05
-1.7919e-05
6.48642e-06
1.79877e-05
-1.82418e-05
6.34768e-06
1.94142e-05
-1.92755e-05
6.876e-06
1.69947e-05
-1.7523e-05
6.4434e-06
2.07784e-05
-2.03458e-05
6.40303e-06
1.91718e-05
-1.91314e-05
6.47726e-06
1.84476e-05
-1.85218e-05
7.24648e-06
1.33976e-05
-1.41668e-05
7.53091e-06
1.38065e-05
-1.40909e-05
7.32273e-06
7.41274e-06
-7.20456e-06
7.18739e-06
5.32919e-06
-5.19386e-06
6.06626e-06
1.62336e-07
9.58792e-07
5.06204e-06
-9.49224e-07
1.95345e-06
4.16573e-06
-5.5715e-06
6.46781e-06
3.79534e-06
-5.55389e-06
5.92427e-06
2.51398e-06
-7.64867e-06
8.93004e-06
-5.3212e-06
6.14259e-06
1.69259e-06
5.61265e-06
-9.2878e-07
5.69414e-06
-1.23784e-06
5.98322e-06
-1.82804e-06
5.86833e-06
-1.17109e-06
5.78955e-06
-8.50588e-07
7.01507e-06
5.22091e-07
7.59604e-06
2.34446e-07
7.3843e-06
3.17744e-07
7.59707e-06
-6.09946e-07
8.46879e-06
-2.8861e-06
9.87615e-06
-1.60156e-06
1.15223e-05
2.80776e-06
1.23739e-05
3.4137e-06
1.2817e-05
1.48276e-06
1.35647e-05
1.02297e-06
1.43155e-05
4.35194e-08
1.50094e-05
-1.98223e-06
1.54752e-05
-3.53482e-06
1.58628e-05
-5.23008e-06
1.6204e-05
-7.11305e-06
1.59752e-05
-8.92098e-06
1.5694e-05
-1.03872e-05
1.60555e-05
-1.21308e-05
1.67246e-05
-1.51966e-05
1.70237e-05
-1.74175e-05
1.67552e-05
-1.89225e-05
1.61805e-05
-1.95561e-05
1.5449e-05
-1.88217e-05
1.48337e-05
-1.82503e-05
1.42692e-05
-1.75225e-05
1.35803e-05
-1.59686e-05
1.31262e-05
-1.45109e-05
1.25192e-05
-1.28783e-05
1.20346e-05
-1.06985e-05
1.15714e-05
-8.56957e-06
1.07818e-05
-7.8487e-06
1.02336e-05
-6.03502e-06
9.57912e-06
-3.80004e-06
8.83863e-06
-2.98519e-06
8.46424e-06
-1.97858e-06
7.84039e-06
-1.70137e-07
7.40217e-06
1.39408e-06
7.40652e-06
2.8843e-06
6.9486e-06
3.27666e-06
6.31179e-06
3.08775e-06
6.50209e-06
4.50186e-06
7.51958e-06
8.8133e-06
8.90531e-06
1.50477e-05
1.02761e-05
2.09976e-05
1.12797e-05
2.50094e-05
1.17614e-05
2.64932e-05
1.17807e-05
2.57728e-05
1.15102e-05
2.35722e-05
1.11641e-05
2.05584e-05
1.09693e-05
1.74248e-05
1.09764e-05
1.46204e-05
1.11135e-05
1.21511e-05
1.12523e-05
9.70503e-06
1.13807e-05
6.67702e-06
1.15316e-05
3.36464e-06
1.14456e-05
1.11572e-06
1.10633e-05
-1.06437e-06
1.06827e-05
-4.39099e-06
1.03684e-05
-7.82019e-06
1.00392e-05
-1.13581e-05
9.76009e-06
-1.57465e-05
9.65235e-06
-1.98031e-05
9.63249e-06
-2.26058e-05
9.58015e-06
-2.51399e-05
9.6358e-06
-2.64009e-05
9.69242e-06
-2.47598e-05
9.64461e-06
-2.23191e-05
9.5113e-06
-2.00359e-05
9.23351e-06
-1.63053e-05
8.81152e-06
-1.12999e-05
8.19608e-06
-8.19008e-06
7.57608e-06
-9.79963e-06
7.31844e-06
-1.3963e-05
7.33316e-06
-1.688e-05
7.37099e-06
-1.82551e-05
7.37856e-06
-1.94515e-05
7.28812e-06
-2.08586e-05
7.17981e-06
-2.29075e-05
7.23226e-06
-2.43004e-05
7.44348e-06
-2.33621e-05
7.7619e-06
-2.11302e-05
7.95808e-06
-1.97589e-05
8.04167e-06
-2.04944e-05
8.33935e-06
-1.99814e-05
8.45233e-06
-1.6636e-05
8.32429e-06
-1.12345e-05
8.53147e-06
-5.71502e-06
8.97591e-06
-3.54266e-06
9.40679e-06
3.00369e-07
9.60163e-06
8.12837e-06
9.48843e-06
1.30043e-05
9.47806e-06
1.4318e-05
9.71554e-06
1.78891e-05
9.84382e-06
2.2822e-05
9.75909e-06
2.52163e-05
9.7579e-06
2.56469e-05
1.00777e-05
2.72425e-05
1.05721e-05