/*--------------------------------*- C++ -*----------------------------------*\
| =========                 |                                                 |
| \\      /  F ield         | OpenFOAM: The Open Source CFD Toolbox           |
|  \\    /   O peration     | Version:  2.4.0                                 |
|   \\  /    A nd           | Web:      www.OpenFOAM.org                      |
|    \\/     M anipulation  |                                                 |
\*---------------------------------------------------------------------------*/
FoamFile
{
    version     2.0;
    format      ascii;
    class       surfaceScalarField;
    location    "0.217";
    object      phi_0;
}
// * * * * * * * * * * * * * * * * * * * * * * * * * * * * * * * * * * * * * //

dimensions      [0 3 -1 0 0 0 0];

internalField   nonuniform List<scalar> 
34880
(
5.48954e-06
7.01046e-06
3.12249e-06
2.36705e-06
2.47252e-06
6.49973e-07
2.22117e-06
2.51345e-07
2.06998e-06
1.51195e-07
1.97182e-06
9.81538e-08
1.88947e-06
8.23547e-08
1.81439e-06
7.50805e-08
1.77634e-06
3.80522e-08
1.74487e-06
3.14673e-08
1.69695e-06
4.79219e-08
1.69013e-06
6.81443e-09
1.66446e-06
2.5673e-08
1.64706e-06
1.74012e-08
1.62481e-06
2.22449e-08
1.66203e-06
-3.72172e-08
1.62466e-06
3.73676e-08
1.72636e-06
-1.01695e-07
1.52648e-06
1.99878e-07
-1.10908e-06
2.63556e-06
1.01117e-05
9.3988e-06
7.82698e-06
4.65173e-06
6.71101e-06
1.76595e-06
6.06529e-06
8.97065e-07
5.63796e-06
5.78525e-07
5.35835e-06
3.77757e-07
5.1223e-06
3.18412e-07
4.93614e-06
2.6124e-07
4.81779e-06
1.56405e-07
4.70205e-06
1.47198e-07
4.60693e-06
1.43042e-07
4.55158e-06
6.21667e-08
4.48281e-06
9.44441e-08
4.42865e-06
7.15613e-08
4.38759e-06
6.33082e-08
4.41588e-06
-6.55056e-08
4.34717e-06
1.06078e-07
4.54548e-06
-3.00005e-07
4.40237e-06
3.42985e-07
-1.89925e-06
5.19255e-06
1.24242e-05
9.47464e-06
1.10012e-05
6.07465e-06
9.98215e-06
2.78504e-06
9.20273e-06
1.67649e-06
8.61035e-06
1.1709e-06
8.20246e-06
7.8565e-07
7.85378e-06
6.67097e-07
7.5847e-06
5.30318e-07
7.40281e-06
3.38294e-07
7.21234e-06
3.37662e-07
7.08494e-06
2.70446e-07
6.98058e-06
1.66532e-07
6.87895e-06
1.9607e-07
6.7896e-06
1.6091e-07
6.73576e-06
1.17152e-07
6.73367e-06
-6.34145e-08
6.65628e-06
1.83465e-07
6.8558e-06
-4.99522e-07
6.81139e-06
3.87389e-07
-2.68626e-06
7.5984e-06
1.34089e-05
8.56571e-06
1.28851e-05
6.5985e-06
1.23294e-05
3.34072e-06
1.17154e-05
2.29047e-06
1.11238e-05
1.76252e-06
1.06738e-05
1.23567e-06
1.02701e-05
1.07081e-06
9.94432e-06
8.56059e-07
9.7285e-06
5.54115e-07
9.47905e-06
5.87113e-07
9.32817e-06
4.21328e-07
9.18798e-06
3.06719e-07
9.05895e-06
3.25099e-07
8.9398e-06
2.80059e-07
8.87564e-06
1.81309e-07
8.84143e-06
-2.91984e-08
8.76031e-06
2.64588e-07
8.9249e-06
-6.64119e-07
8.96421e-06
3.48085e-07
-3.26588e-06
9.54382e-06
1.35842e-05
7.48151e-06
1.36537e-05
6.52898e-06
1.36307e-05
3.36376e-06
1.33983e-05
2.5229e-06
1.30072e-05
2.15357e-06
1.264e-05
1.6029e-06
1.2274e-05
1.43682e-06
1.19409e-05
1.18911e-06
1.17346e-05
7.60399e-07
1.14584e-05
8.63378e-07
1.12992e-05
5.80502e-07
1.11449e-05
4.60999e-07
1.09989e-05
4.71138e-07
1.08635e-05
4.15443e-07
1.07903e-05
2.5451e-07
1.07377e-05
2.33599e-08
1.06502e-05
3.5216e-07
1.07657e-05
-7.79619e-07
1.08962e-05
2.17559e-07
-3.67819e-06
1.13085e-05
1.34681e-05
6.51337e-06
1.37392e-05
6.2579e-06
1.40111e-05
3.09188e-06
1.41369e-05
2.39713e-06
1.40729e-05
2.21756e-06
1.39097e-05
1.76606e-06
1.3702e-05
1.64457e-06
1.34436e-05
1.44746e-06
1.33079e-05
8.96124e-07
1.30586e-05
1.1127e-06
1.29157e-05
7.23335e-07
1.27821e-05
5.94616e-07
1.2635e-05
6.18269e-07
1.25099e-05
5.40538e-07
1.2429e-05
3.35428e-07
1.23797e-05
7.2664e-08
1.22906e-05
4.41245e-07
1.23558e-05
-8.44851e-07
1.25417e-05
3.16536e-08
-3.52875e-06
1.23923e-05
1.33391e-05
5.67423e-06
1.36631e-05
5.9339e-06
1.39512e-05
2.8038e-06
1.42085e-05
2.13989e-06
1.4385e-05
2.04101e-06
1.44073e-05
1.74374e-06
1.44178e-05
1.63412e-06
1.43028e-05
1.56245e-06
1.42985e-05
9.00431e-07
1.41542e-05
1.25699e-06
1.40686e-05
8.08894e-07
1.40023e-05
6.60946e-07
1.38808e-05
7.39766e-07
1.3803e-05
6.18304e-07
1.37298e-05
4.08706e-07
1.36987e-05
1.03709e-07
1.36296e-05
5.10357e-07
1.36581e-05
-8.73304e-07
1.38667e-05
-1.77024e-07
-3.01864e-06
1.33566e-05
1.32533e-05
4.92093e-06
1.36201e-05
5.56711e-06
1.38168e-05
2.6071e-06
1.4073e-05
1.88368e-06
1.43346e-05
1.77944e-06
1.44178e-05
1.6605e-06
1.45628e-05
1.48909e-06
1.45608e-05
1.5645e-06
1.46621e-05
7.99142e-07
1.46548e-05
1.26424e-06
1.4657e-05
8.06705e-07
1.46943e-05
6.23629e-07
1.4636e-05
7.98084e-07
1.46381e-05
6.1626e-07
1.46108e-05
4.3593e-07
1.4613e-05
1.01601e-07
1.45909e-05
5.32409e-07
1.46169e-05
-8.99346e-07
1.48429e-05
-4.03016e-07
-2.03598e-06
1.38603e-05
1.3219e-05
4.20193e-06
1.35524e-05
5.23372e-06
1.36907e-05
2.4688e-06
1.39319e-05
1.64245e-06
1.42138e-05
1.49753e-06
1.43162e-05
1.55814e-06
1.44924e-05
1.31282e-06
1.45436e-05
1.51337e-06
1.46569e-05
6.858e-07
1.4715e-05
1.20614e-06
1.4777e-05
7.447e-07
1.48879e-05
5.12772e-07
1.48982e-05
7.87782e-07
1.49716e-05
5.42835e-07
1.50125e-05
3.95013e-07
1.50602e-05
5.38838e-08
1.50965e-05
4.9618e-07
1.51635e-05
-9.66365e-07
1.5431e-05
-6.70505e-07
-2.24114e-06
1.56361e-05
1.31723e-05
3.52965e-06
1.35406e-05
4.86541e-06
1.36338e-05
2.37554e-06
1.38303e-05
1.44595e-06
1.40979e-05
1.22994e-06
1.42171e-05
1.43896e-06
1.43743e-05
1.15563e-06
1.44878e-05
1.3999e-06
1.45966e-05
5.76965e-07
1.4646e-05
1.15675e-06
1.47296e-05
6.61111e-07
1.48458e-05
3.96538e-07
1.48751e-05
7.58477e-07
1.4975e-05
4.42975e-07
1.50585e-05
3.11476e-07
1.51297e-05
-1.72384e-08
1.52217e-05
4.04187e-07
1.53252e-05
-1.0699e-06
1.55349e-05
-8.80211e-07
-2.57851e-06
1.58723e-05
1.30992e-05
2.93043e-06
1.35354e-05
4.42922e-06
1.36107e-05
2.30026e-06
1.37837e-05
1.27292e-06
1.40129e-05
1.00078e-06
1.41138e-05
1.33805e-06
1.42699e-05
9.99533e-07
1.44532e-05
1.21654e-06
1.45609e-05
4.69294e-07
1.46098e-05
1.1079e-06
1.46837e-05
5.87146e-07
1.4759e-05
3.21301e-07
1.47702e-05
7.47279e-07
1.48857e-05
3.27437e-07
1.49773e-05
2.19851e-07
1.50492e-05
-8.91144e-08
1.51843e-05
2.69089e-07
1.52855e-05
-1.17106e-06
1.54874e-05
-1.08216e-06
-3.08921e-06
1.59981e-05
1.3024e-05
2.40645e-06
1.34608e-05
3.99239e-06
1.35812e-05
2.17986e-06
1.37864e-05
1.06777e-06
1.3962e-05
8.2513e-07
1.40538e-05
1.24627e-06
1.42246e-05
8.287e-07
1.4395e-05
1.04613e-06
1.4469e-05
3.95302e-07
1.45673e-05
1.00964e-06
1.46371e-05
5.173e-07
1.46828e-05
2.75682e-07
1.46982e-05
7.31843e-07
1.48412e-05
1.84388e-07
1.49178e-05
1.43303e-07
1.49652e-05
-1.36538e-07
1.51016e-05
1.32675e-07
1.52181e-05
-1.28755e-06
1.54759e-05
-1.33993e-06
-3.3274e-06
1.57141e-05
1.29409e-05
1.96555e-06
1.33721e-05
3.5612e-06
1.35962e-05
1.95572e-06
1.37839e-05
8.80129e-07
1.39381e-05
6.70919e-07
1.40441e-05
1.14023e-06
1.41649e-05
7.07908e-07
1.4298e-05
9.13068e-07
1.4372e-05
3.21291e-07
1.45146e-05
8.6702e-07
1.45814e-05
4.50549e-07
1.46382e-05
2.18877e-07
1.46867e-05
6.83284e-07
1.48028e-05
6.83573e-08
1.48663e-05
7.97487e-08
1.48954e-05
-1.65643e-07
1.50362e-05
-8.11775e-09
1.51638e-05
-1.41517e-06
1.53922e-05
-1.56831e-06
-3.13538e-06
1.52002e-05
1.28681e-05
1.59749e-06
1.33314e-05
3.09784e-06
1.36395e-05
1.64769e-06
1.37508e-05
7.68837e-07
1.38993e-05
5.22367e-07
1.40166e-05
1.02296e-06
1.40853e-05
6.39224e-07
1.42293e-05
7.69036e-07
1.4344e-05
2.06537e-07
1.44904e-05
7.20702e-07
1.4524e-05
4.169e-07
1.45985e-05
1.4441e-07
1.46704e-05
6.11339e-07
1.4737e-05
1.82454e-09
1.48037e-05
1.29829e-08
1.48468e-05
-2.08714e-07
1.49937e-05
-1.55038e-07
1.51187e-05
-1.54013e-06
1.5267e-05
-1.71667e-06
-2.93524e-06
1.50669e-05
1.284e-05
1.2575e-06
1.33204e-05
2.61745e-06
1.36106e-05
1.35745e-06
1.37004e-05
6.79069e-07
1.3841e-05
3.81792e-07
1.3971e-05
8.92925e-07
1.40487e-05
5.61573e-07
1.42213e-05
5.96392e-07
1.43283e-05
9.9571e-08
1.44544e-05
5.94578e-07
1.44728e-05
3.98501e-07
1.45497e-05
6.74734e-08
1.46276e-05
5.33485e-07
1.46912e-05
-6.17868e-08
1.47743e-05
-7.01082e-08
1.48309e-05
-2.65342e-07
1.49606e-05
-2.84735e-07
1.50568e-05
-1.63628e-06
1.51845e-05
-1.84442e-06
-2.98537e-06
1.52346e-05
1.28266e-05
9.30928e-07
1.32725e-05
2.17147e-06
1.35567e-05
1.07325e-06
1.36812e-05
5.54568e-07
1.38116e-05
2.51453e-07
1.39499e-05
7.54573e-07
1.40424e-05
4.6907e-07
1.42156e-05
4.23249e-07
1.42782e-05
3.69582e-08
1.43926e-05
4.80208e-07
1.44302e-05
3.60844e-07
1.4501e-05
-3.28591e-09
1.46038e-05
4.30636e-07
1.46711e-05
-1.29103e-07
1.47795e-05
-1.78494e-07
1.47983e-05
-2.84159e-07
1.49418e-05
-4.28177e-07
1.497e-05
-1.66449e-06
1.51072e-05
-1.98161e-06
-3.32281e-06
1.54446e-05
1.27881e-05
6.42794e-07
1.32235e-05
1.73608e-06
1.35476e-05
7.49168e-07
1.36851e-05
4.1703e-07
1.37882e-05
1.48374e-07
1.39317e-05
6.1107e-07
1.4024e-05
3.76784e-07
1.41882e-05
2.59093e-07
1.42385e-05
-1.3424e-08
1.43516e-05
3.67123e-07
1.44106e-05
3.01847e-07
1.44717e-05
-6.43483e-08
1.46049e-05
2.97392e-07
1.46471e-05
-1.71314e-07
1.47481e-05
-2.7949e-07
1.47491e-05
-2.85144e-07
1.49238e-05
-6.02862e-07
1.49148e-05
-1.65551e-06
1.48788e-05
-1.94559e-06
-2.29945e-06
1.38554e-05
1.27612e-05
3.81591e-07
1.3232e-05
1.26525e-06
1.35509e-05
4.30328e-07
1.3655e-05
3.12858e-07
1.37407e-05
6.27014e-08
1.39077e-05
4.44115e-07
1.40073e-05
2.77187e-07
1.41768e-05
8.95299e-08
1.42211e-05
-5.76746e-08
1.43368e-05
2.51422e-07
1.44026e-05
2.35985e-07
1.44692e-05
-1.30931e-07
1.45855e-05
1.81156e-07
1.46122e-05
-1.98005e-07
1.46854e-05
-3.52717e-07
1.47595e-05
-3.59238e-07
1.48998e-05
-7.43171e-07
1.49004e-05
-1.65608e-06
1.50133e-05
-2.05855e-06
-2.69084e-06
1.54047e-05
1.27628e-05
1.18742e-07
1.32304e-05
7.97732e-07
1.35174e-05
1.43313e-07
1.36298e-05
2.00443e-07
1.37244e-05
-3.18526e-08
1.3909e-05
2.59419e-07
1.40097e-05
1.76503e-07
1.41696e-05
-7.0362e-08
1.4204e-05
-9.20491e-08
1.43149e-05
1.4048e-07
1.43991e-05
1.51807e-07
1.44553e-05
-1.87089e-07
1.45641e-05
7.23364e-08
1.45818e-05
-2.15697e-07
1.46709e-05
-4.41822e-07
1.47862e-05
-4.74525e-07
1.48726e-05
-8.29556e-07
1.48796e-05
-1.66316e-06
1.49955e-05
-2.17438e-06
-2.96014e-06
1.52648e-05
1.2758e-05
-1.393e-07
1.31988e-05
3.57012e-07
1.35025e-05
-1.60469e-07
1.36546e-05
4.83505e-08
1.37297e-05
-1.06885e-07
1.39059e-05
8.3205e-08
1.40062e-05
7.6178e-08
1.4158e-05
-2.2218e-07
1.41908e-05
-1.24859e-07
1.43034e-05
2.79288e-08
1.44004e-05
5.48215e-08
1.44471e-05
-2.33843e-07
1.45492e-05
-2.97714e-08
1.45853e-05
-2.51773e-07
1.46777e-05
-5.34165e-07
1.47788e-05
-5.7567e-07
1.48335e-05
-8.84283e-07
1.48606e-05
-1.69019e-06
1.49962e-05
-2.31007e-06
-3.19428e-06
1.52304e-05
1.27451e-05
-3.844e-07
1.3196e-05
-9.38845e-08
1.35296e-05
-4.94105e-07
1.36684e-05
-9.0404e-08
1.37061e-05
-1.44554e-07
1.38926e-05
-1.03315e-07
1.40066e-05
-3.78918e-08
1.41541e-05
-3.69609e-07
1.41984e-05
-1.69179e-07
1.43102e-05
-8.38453e-08
1.44113e-05
-4.63206e-08
1.44393e-05
-2.61824e-07
1.45494e-05
-1.39892e-07
1.4592e-05
-2.94348e-07
1.46751e-05
-6.17252e-07
1.47561e-05
-6.56695e-07
1.48283e-05
-9.56495e-07
1.48483e-05
-1.71016e-06
1.4988e-05
-2.44974e-06
-3.54359e-06
1.53373e-05
1.27507e-05
-6.35095e-07
1.3218e-05
-5.6118e-07
1.35369e-05
-8.1305e-07
1.36467e-05
-2.00189e-07
1.36998e-05
-1.97647e-07
1.3912e-05
-3.15547e-07
1.40213e-05
-1.47151e-07
1.41558e-05
-5.04131e-07
1.42151e-05
-2.28481e-07
1.43142e-05
-1.82883e-07
1.44119e-05
-1.44049e-07
1.44335e-05
-2.83462e-07
1.45621e-05
-2.68457e-07
1.45923e-05
-3.24505e-07
1.46759e-05
-7.00943e-07
1.47559e-05
-7.36627e-07
1.48365e-05
-1.03707e-06
1.4857e-05
-1.73076e-06
1.48416e-05
-2.43428e-06
-2.46891e-06
1.37669e-05
1.27692e-05
-9.04334e-07
1.32329e-05
-1.02482e-06
1.35271e-05
-1.10725e-06
1.36431e-05
-3.16204e-07
1.37301e-05
-2.8467e-07
1.39406e-05
-5.26039e-07
1.40276e-05
-2.34167e-07
1.41592e-05
-6.35715e-07
1.42328e-05
-3.02047e-07
1.43269e-05
-2.77036e-07
1.44062e-05
-2.23351e-07
1.44584e-05
-3.35632e-07
1.45726e-05
-3.82614e-07
1.46153e-05
-3.67209e-07
1.467e-05
-7.55676e-07
1.47747e-05
-8.41311e-07
1.48233e-05
-1.08573e-06
1.48909e-05
-1.79827e-06
1.4972e-05
-2.51544e-06
-2.78592e-06
1.5289e-05
1.2789e-05
-1.19337e-06
1.32449e-05
-1.48068e-06
1.35359e-05
-1.3983e-06
1.36647e-05
-4.44921e-07
1.37589e-05
-3.78913e-07
1.39504e-05
-7.1751e-07
1.40362e-05
-3.2003e-07
1.41767e-05
-7.76169e-07
1.42659e-05
-3.91238e-07
1.43408e-05
-3.51902e-07
1.4425e-05
-3.07649e-07
1.449e-05
-4.00564e-07
1.45813e-05
-4.73955e-07
1.46394e-05
-4.2532e-07
1.46777e-05
-7.93913e-07
1.47822e-05
-9.45831e-07
1.48255e-05
-1.12901e-06
1.49375e-05
-1.91028e-06
1.49728e-05
-2.55079e-06
-2.99242e-06
1.51793e-05
1.2811e-05
-1.50439e-06
1.32682e-05
-1.9379e-06
1.35597e-05
-1.68981e-06
1.36839e-05
-5.69029e-07
1.37812e-05
-4.76251e-07
1.3968e-05
-9.04353e-07
1.40656e-05
-4.17634e-07
1.4211e-05
-9.21521e-07
1.42962e-05
-4.76456e-07
1.43545e-05
-4.10155e-07
1.44522e-05
-4.05399e-07
1.45181e-05
-4.6649e-07
1.459e-05
-5.45824e-07
1.4669e-05
-5.04321e-07
1.46965e-05
-8.21399e-07
1.48019e-05
-1.05123e-06
1.48638e-05
-1.19091e-06
1.49435e-05
-1.99003e-06
1.49734e-05
-2.58069e-06
-3.22625e-06
1.52073e-05
1.28399e-05
-1.84427e-06
1.33068e-05
-2.4048e-06
1.35844e-05
-1.96744e-06
1.3699e-05
-6.83634e-07
1.38129e-05
-5.90122e-07
1.40019e-05
-1.09334e-06
1.41114e-05
-5.27153e-07
1.42384e-05
-1.0485e-06
1.43183e-05
-5.5637e-07
1.43783e-05
-4.70217e-07
1.44916e-05
-5.18666e-07
1.45418e-05
-5.16728e-07
1.462e-05
-6.23949e-07
1.47037e-05
-5.88001e-07
1.47308e-05
-8.48558e-07
1.48279e-05
-1.1483e-06
1.49122e-05
-1.27524e-06
1.49228e-05
-2.00061e-06
1.49898e-05
-2.6477e-06
-3.63668e-06
1.54002e-05
1.28816e-05
-2.22585e-06
1.3349e-05
-2.8722e-06
1.35994e-05
-2.21791e-06
1.37234e-05
-8.076e-07
1.38625e-05
-7.29242e-07
1.40488e-05
-1.27957e-06
1.41572e-05
-6.3562e-07
1.42591e-05
-1.15038e-06
1.43509e-05
-6.48143e-07
1.44189e-05
-5.3826e-07
1.45303e-05
-6.30039e-07
1.45766e-05
-5.63071e-07
1.46668e-05
-7.14143e-07
1.47365e-05
-6.57642e-07
1.47664e-05
-8.7849e-07
1.48633e-05
-1.24515e-06
1.49423e-05
-1.35424e-06
1.4941e-05
-1.99932e-06
1.49133e-05
-2.62008e-06
-2.6202e-06
1.38969e-05
1.293e-05
-2.65582e-06
1.3387e-05
-3.32926e-06
1.35948e-05
-2.4257e-06
1.37672e-05
-9.79978e-07
1.3924e-05
-8.8599e-07
1.40997e-05
-1.45536e-06
1.42005e-05
-7.36415e-07
1.42886e-05
-1.23844e-06
1.43971e-05
-7.56654e-07
1.44713e-05
-6.12489e-07
1.45652e-05
-7.23932e-07
1.46344e-05
-6.32216e-07
1.4705e-05
-7.84808e-07
1.47842e-05
-7.36841e-07
1.47954e-05
-8.89678e-07
1.49115e-05
-1.36123e-06
1.49587e-05
-1.40147e-06
1.50196e-05
-2.0602e-06
1.5102e-05
-2.70247e-06
-3.01018e-06
1.5492e-05
1.29785e-05
-3.13436e-06
1.34309e-05
-3.78164e-06
1.36137e-05
-2.6085e-06
1.38206e-05
-1.18691e-06
1.39881e-05
-1.0534e-06
1.41474e-05
-1.61469e-06
1.42482e-05
-8.37248e-07
1.43248e-05
-1.315e-06
1.44549e-05
-8.86733e-07
1.45192e-05
-6.76836e-07
1.46156e-05
-8.20368e-07
1.4693e-05
-7.09611e-07
1.47511e-05
-8.42867e-07
1.48248e-05
-8.10539e-07
1.48492e-05
-9.14107e-07
1.49625e-05
-1.47454e-06
1.49934e-05
-1.43236e-06
1.51001e-05
-2.16683e-06
1.51568e-05
-2.7592e-06
-3.30549e-06
1.54521e-05
1.30236e-05
-3.65799e-06
1.34936e-05
-4.25162e-06
1.36744e-05
-2.78928e-06
1.38721e-05
-1.38466e-06
1.40503e-05
-1.23151e-06
1.41974e-05
-1.76184e-06
1.43024e-05
-9.42286e-07
1.43734e-05
-1.38592e-06
1.45186e-05
-1.03196e-06
1.45746e-05
-7.32853e-07
1.4675e-05
-9.20797e-07
1.47475e-05
-7.82041e-07
1.48045e-05
-8.99936e-07
1.48742e-05
-8.80198e-07
1.4928e-05
-9.67885e-07
1.50211e-05
-1.56767e-06
1.50568e-05
-1.46808e-06
1.51385e-05
-2.24849e-06
1.51649e-05
-2.78564e-06
-3.51037e-06
1.53698e-05
1.30749e-05
-4.23293e-06
1.35861e-05
-4.76278e-06
1.37419e-05
-2.9451e-06
1.39148e-05
-1.55752e-06
1.41167e-05
-1.43341e-06
1.42549e-05
-1.90004e-06
1.4365e-05
-1.05245e-06
1.44466e-05
-1.46751e-06
1.45888e-05
-1.17411e-06
1.46418e-05
-7.85844e-07
1.47339e-05
-1.01293e-06
1.48086e-05
-8.56706e-07
1.48679e-05
-9.59248e-07
1.49387e-05
-9.50972e-07
1.50041e-05
-1.03328e-06
1.5048e-05
-1.61161e-06
1.50664e-05
-1.48653e-06
1.5064e-05
-2.24606e-06
1.50202e-05
-2.74184e-06
-3.64138e-06
1.51512e-05
1.31543e-05
-4.88727e-06
1.36878e-05
-5.29627e-06
1.37837e-05
-3.04097e-06
1.39583e-05
-1.73213e-06
1.42095e-05
-1.6846e-06
1.43293e-05
-2.01981e-06
1.44549e-05
-1.17813e-06
1.45408e-05
-1.55341e-06
1.46488e-05
-1.28206e-06
1.47065e-05
-8.43573e-07
1.47752e-05
-1.08165e-06
1.48422e-05
-9.23671e-07
1.48781e-05
-9.95166e-07
1.49134e-05
-9.8623e-07
1.4935e-05
-1.05491e-06
1.48856e-05
-1.56218e-06
1.48424e-05
-1.44338e-06
1.47144e-05
-2.11807e-06
1.45538e-05
-2.5812e-06
-3.72139e-06
1.46338e-05
1.32548e-05
-5.64206e-06
1.37468e-05
-5.78825e-06
1.38184e-05
-3.11258e-06
1.40615e-05
-1.97521e-06
1.43371e-05
-1.9602e-06
1.441e-05
-2.09277e-06
1.45432e-05
-1.31127e-06
1.45816e-05
-1.59181e-06
1.46186e-05
-1.31904e-06
1.46539e-05
-8.78925e-07
1.46444e-05
-1.0721e-06
1.46412e-05
-9.20459e-07
1.45978e-05
-9.51852e-07
1.45456e-05
-9.34033e-07
1.44778e-05
-9.87057e-07
1.4326e-05
-1.41037e-06
1.41991e-05
-1.31649e-06
1.39598e-05
-1.8788e-06
1.36566e-05
-2.27799e-06
-2.80961e-06
1.27448e-05
1.33579e-05
-6.49998e-06
1.37287e-05
-6.159e-06
1.39133e-05
-3.29723e-06
1.42099e-05
-2.27175e-06
1.44008e-05
-2.15109e-06
1.43738e-05
-2.06577e-06
1.44239e-05
-1.36139e-06
1.43263e-05
-1.49421e-06
1.42332e-05
-1.22598e-06
1.41729e-05
-8.1865e-07
1.40422e-05
-9.41378e-07
1.39386e-05
-8.1684e-07
1.38082e-05
-8.21485e-07
1.36755e-05
-8.01316e-07
1.35331e-05
-8.44607e-07
1.3316e-05
-1.19325e-06
1.31228e-05
-1.12331e-06
1.28217e-05
-1.57774e-06
1.2481e-05
-1.93727e-06
-2.62516e-06
1.22965e-05
1.34797e-05
-7.47972e-06
1.37792e-05
-6.45844e-06
1.3977e-05
-3.49507e-06
1.41508e-05
-2.44553e-06
1.40939e-05
-2.09419e-06
1.38658e-05
-1.83768e-06
1.37223e-05
-1.2179e-06
1.34585e-05
-1.23041e-06
1.32379e-05
-1.00536e-06
1.30824e-05
-6.63186e-07
1.2873e-05
-7.31962e-07
1.27086e-05
-6.52444e-07
1.25323e-05
-6.45127e-07
1.2359e-05
-6.28039e-07
1.21797e-05
-6.6533e-07
1.19322e-05
-9.45769e-07
1.1704e-05
-8.95116e-07
1.13751e-05
-1.24882e-06
1.09813e-05
-1.54347e-06
-1.93703e-06
1.02932e-05
1.35887e-05
-8.56843e-06
1.36785e-05
-6.54826e-06
1.3607e-05
-3.42356e-06
1.34114e-05
-2.24991e-06
1.3026e-05
-1.70873e-06
1.25962e-05
-1.40794e-06
1.22974e-05
-9.19119e-07
1.19466e-05
-8.79546e-07
1.1671e-05
-7.29839e-07
1.14751e-05
-4.67294e-07
1.12469e-05
-5.03707e-07
1.10648e-05
-4.70348e-07
1.08773e-05
-4.57613e-07
1.06955e-05
-4.46247e-07
1.05069e-05
-4.76695e-07
1.02534e-05
-6.92328e-07
1.0015e-05
-6.56694e-07
9.67765e-06
-9.11478e-07
9.2793e-06
-1.14512e-06
-1.38542e-06
8.7277e-06
1.34108e-05
-9.47919e-06
1.29023e-05
-6.03983e-06
1.2314e-05
-2.8352e-06
1.17246e-05
-1.66057e-06
1.11388e-05
-1.12294e-06
1.06351e-05
-9.04257e-07
1.02913e-05
-5.7532e-07
9.94366e-06
-5.31856e-07
9.67393e-06
-4.60108e-07
9.48325e-06
-2.76619e-07
9.27615e-06
-2.96604e-07
9.10354e-06
-2.97736e-07
8.9293e-06
-2.83378e-07
8.76138e-06
-2.78327e-07
8.58326e-06
-2.98573e-07
8.34371e-06
-4.52775e-07
8.11316e-06
-4.26151e-07
7.7937e-06
-5.92014e-07
7.405e-06
-7.56423e-07
-9.19151e-07
6.93873e-06
1.24244e-05
-9.40355e-06
1.1014e-05
-4.6295e-06
9.9718e-06
-1.79297e-06
9.20677e-06
-8.9554e-07
8.62444e-06
-5.40608e-07
8.1703e-06
-4.50119e-07
7.86845e-06
-2.73473e-07
7.58381e-06
-2.47214e-07
7.35668e-06
-2.3298e-07
7.20339e-06
-1.23322e-07
7.04185e-06
-1.35064e-07
6.89634e-06
-1.52224e-07
6.75308e-06
-1.40122e-07
6.6141e-06
-1.39349e-07
6.46327e-06
-1.47738e-07
6.25384e-06
-2.43346e-07
6.05043e-06
-2.22741e-07
5.77082e-06
-3.12404e-07
5.41774e-06
-4.03344e-07
-5.13754e-07
5.01234e-06
1.01098e-05
-7.01334e-06
7.83772e-06
-2.35743e-06
6.70408e-06
-6.59328e-07
6.06355e-06
-2.55011e-07
5.65377e-06
-1.30824e-07
5.33144e-06
-1.27785e-07
5.12842e-06
-7.04541e-08
4.94127e-06
-6.00722e-08
4.77973e-06
-7.14316e-08
4.68446e-06
-2.80534e-08
4.58136e-06
-3.19675e-08
4.47627e-06
-4.71318e-08
4.37715e-06
-4.10075e-08
4.27878e-06
-4.09775e-08
4.1721e-06
-4.10562e-08
4.00996e-06
-8.12008e-08
3.85708e-06
-6.98606e-08
3.64329e-06
-9.86125e-08
3.36882e-06
-1.28876e-07
-1.95317e-07
3.05038e-06
5.48666e-06
3.12922e-06
2.4699e-06
2.21488e-06
2.08406e-06
1.95628e-06
1.88582e-06
1.82575e-06
1.75432e-06
1.72626e-06
1.6943e-06
1.64717e-06
1.60616e-06
1.56518e-06
1.52412e-06
1.44292e-06
1.37306e-06
1.27445e-06
1.14557e-06
9.50257e-07
3.50969e-06
-5.63103e-07
-3.11031e-07
3.74481e-06
-1.2255e-06
9.90385e-07
3.95395e-06
-1.55981e-06
1.35066e-06
3.8115e-06
-1.27546e-06
1.41791e-06
3.792e-06
-9.19646e-07
9.39148e-07
4.87208e-06
1.68088e-06
-2.76096e-06
5.31719e-06
5.9856e-07
-1.04367e-06
5.33615e-06
-2.56827e-07
2.37867e-07
6.46107e-06
-8.05598e-07
-3.19323e-07
8.73697e-06
-1.90837e-06
-3.6753e-07
1.06158e-05
7.87095e-07
-2.66597e-06
1.20197e-05
5.14594e-06
-6.54977e-06
1.27539e-05
4.19785e-06
-4.93209e-06
1.32518e-05
2.00208e-06
-2.49993e-06
1.42549e-05
1.95622e-06
-2.95938e-06
1.49496e-05
7.60821e-07
-1.4555e-06
1.55831e-05
-1.28457e-06
6.51136e-07
1.6127e-05
-3.01069e-06
2.46678e-06
1.63965e-05
-4.84008e-06
4.57054e-06
1.66242e-05
-6.88178e-06
6.65406e-06
1.63538e-05
-9.28691e-06
9.55734e-06
1.57698e-05
-1.07172e-05
1.13012e-05
1.56441e-05
-1.20536e-05
1.21793e-05
1.61525e-05
-1.49567e-05
1.44483e-05
1.65786e-05
-1.74806e-05
1.70545e-05
1.64988e-05
-1.95043e-05
1.95841e-05
1.59795e-05
-2.01697e-05
2.06889e-05
1.52388e-05
-1.95017e-05
2.02424e-05
1.46165e-05
-1.88468e-05
1.9469e-05
1.39766e-05
-1.79861e-05
1.86259e-05
1.32834e-05
-1.64954e-05
1.71886e-05
1.28226e-05
-1.47931e-05
1.52539e-05
1.2205e-05
-1.32934e-05
1.39109e-05
1.16783e-05
-1.08675e-05
1.13943e-05
1.10097e-05
-9.03589e-06
9.70451e-06
1.02844e-05
-8.66483e-06
9.39009e-06
9.89579e-06
-6.29544e-06
6.68404e-06
9.20304e-06
-4.37147e-06
5.06421e-06
8.53924e-06
-3.71494e-06
4.37875e-06
8.15934e-06
-2.21759e-06
2.59749e-06
7.46204e-06
-6.25396e-07
1.3227e-06
7.12114e-06
1.16479e-06
-8.23885e-07
7.16017e-06
2.93544e-06
-2.97447e-06
6.7566e-06
2.7414e-06
-2.33783e-06
6.33576e-06
2.58337e-06
-2.16252e-06
6.72491e-06
5.21107e-06
-5.60023e-06
7.74719e-06
1.06086e-05
-1.16308e-05
9.04344e-06
1.72116e-05
-1.85079e-05
1.02188e-05
2.29545e-05
-2.41299e-05
1.09572e-05
2.63441e-05
-2.70824e-05
1.11871e-05
2.70402e-05
-2.727e-05
1.10411e-05
2.56216e-05
-2.54756e-05
1.07299e-05
2.29387e-05
-2.26275e-05
1.04701e-05
1.97299e-05
-1.94701e-05
1.04148e-05
1.67155e-05
-1.66602e-05
1.05412e-05
1.41457e-05
-1.42721e-05
1.07432e-05
1.18434e-05
-1.20454e-05
1.09094e-05
9.36917e-06
-9.5354e-06
1.10486e-05
6.29039e-06
-6.42958e-06
1.11389e-05
3.14792e-06
-3.23827e-06
1.09176e-05
7.93861e-07
-5.72586e-07
1.04499e-05
-1.85812e-06
2.3259e-06
1.00308e-05
-5.36958e-06
5.7887e-06
9.65784e-06
-8.81563e-06
9.18855e-06
9.27267e-06
-1.25686e-05
1.29538e-05
9.00811e-06
-1.6975e-05
1.72395e-05
8.97229e-06
-2.06148e-05
2.06506e-05
8.98715e-06
-2.31688e-05
2.31539e-05
9.00343e-06
-2.55664e-05
2.55501e-05
9.16833e-06
-2.61403e-05
2.59754e-05
9.30853e-06
-2.41029e-05
2.39627e-05
9.34813e-06
-2.17676e-05
2.1728e-05
9.27721e-06
-1.9469e-05
1.95399e-05
9.05541e-06
-1.56352e-05
1.5857e-05
8.68487e-06
-1.09363e-05
1.13068e-05
8.10709e-06
-8.80484e-06
9.38261e-06
7.604e-06
-1.10982e-05
1.16013e-05
7.46313e-06
-1.4859e-05
1.49999e-05
7.52603e-06
-1.71878e-05
1.71249e-05
7.57084e-06
-1.84389e-05
1.8394e-05
7.60442e-06
-1.97217e-05
1.96881e-05
7.54724e-06
-2.13817e-05
2.14389e-05
7.51077e-06
-2.34109e-05
2.34474e-05
7.6209e-06
-2.42404e-05
2.41302e-05
7.83353e-06
-2.27624e-05
2.25497e-05
8.16276e-06
-2.04376e-05
2.01083e-05
8.34134e-06
-1.96377e-05
1.94591e-05
8.51289e-06
-2.05322e-05
2.03607e-05
8.94177e-06
-1.92912e-05
1.88623e-05
8.99117e-06
-1.58208e-05
1.57714e-05
8.84156e-06
-1.04023e-05
1.05519e-05
9.09666e-06
-4.83343e-06
4.57833e-06
9.56091e-06
-2.65477e-06
2.19052e-06
9.99665e-06
1.77926e-06
-2.215e-06
1.01293e-05
9.41173e-06
-9.54438e-06
9.96902e-06
1.33177e-05
-1.31574e-05
9.98174e-06
1.46958e-05
-1.47085e-05
1.02155e-05
1.88529e-05
-1.90867e-05
1.02836e-05
2.35031e-05
-2.35712e-05
1.01279e-05
2.53238e-05
-2.51682e-05
1.01351e-05
2.583e-05
-2.58372e-05
1.04994e-05
2.79243e-05
-2.82885e-05
1.09018e-05
3.13564e-05
-3.17588e-05
1.09765e-05
3.3458e-05
-3.35327e-05
1.05836e-05
3.29819e-05
-3.2589e-05
9.86572e-06
3.06044e-05
-2.98865e-05
9.13454e-06
2.77516e-05
-2.70205e-05
8.52778e-06
2.50393e-05
-2.44325e-05
8.02351e-06
2.28825e-05
-2.23782e-05
7.53783e-06
2.10836e-05
-2.0598e-05
7.11856e-06
1.93652e-05
-1.89459e-05
6.75159e-06
1.81093e-05
-1.77423e-05
6.52826e-06
1.62968e-05
-1.60735e-05
6.60229e-06
1.45878e-05
-1.46619e-05
6.81285e-06
1.30229e-05
-1.32335e-05
6.92973e-06
1.0709e-05
-1.08259e-05
7.0237e-06
8.33205e-06
-8.42601e-06
7.3198e-06
5.42439e-06
-5.72049e-06
7.88892e-06
1.63719e-06
-2.20631e-06
8.57461e-06
-2.27453e-06
1.58884e-06
9.24779e-06
-4.74282e-06
4.06964e-06
9.94089e-06
-6.90484e-06
6.21174e-06
1.06285e-05
-9.16881e-06
8.48117e-06
1.11084e-05
-1.0297e-05
9.81713e-06
1.13361e-05
-1.07658e-05
1.05381e-05
1.13123e-05
-1.04911e-05
1.05148e-05
1.11674e-05
-9.79756e-06
9.94248e-06
1.10595e-05
-1.02824e-05
1.03903e-05
1.09144e-05
-1.11834e-05
1.13284e-05
1.0651e-05
-1.13323e-05
1.15958e-05
1.04097e-05
-1.10565e-05
1.12978e-05
1.02386e-05
-1.05905e-05
1.07616e-05
1.01424e-05
-9.82228e-06
9.91844e-06
1.00468e-05
-8.90832e-06
9.00399e-06
9.9116e-06
-8.74091e-06
8.87606e-06
9.79578e-06
-9.09527e-06
9.2111e-06
9.57536e-06
-9.24363e-06
9.46405e-06
9.23506e-06
-9.33366e-06
9.67396e-06
8.85323e-06
-8.79367e-06
9.1755e-06
8.57888e-06
-9.29845e-06
9.5728e-06
8.29385e-06
-9.85833e-06
1.01434e-05
8.19534e-06
-8.93977e-06
9.03829e-06
8.23554e-06
-9.2801e-06
9.2399e-06
8.15421e-06
-1.05782e-05
1.06596e-05
7.91846e-06
-1.02222e-05
1.0458e-05
7.5139e-06
-8.10064e-06
8.5052e-06
7.10841e-06
-6.85068e-06
7.25617e-06
7.03833e-06
-6.80682e-06
6.87691e-06
7.29709e-06
-6.93305e-06
6.6743e-06
7.8128e-06
-8.04808e-06
7.53236e-06
8.41748e-06
-9.98219e-06
9.37751e-06
8.98638e-06
-1.20005e-05
1.14316e-05
9.54235e-06
-1.40914e-05
1.35354e-05
1.0133e-05
-1.60233e-05
1.54326e-05
1.07084e-05
-1.75733e-05
1.69979e-05
1.12155e-05
-1.78434e-05
1.73363e-05
1.15174e-05
-1.72593e-05
1.69574e-05
1.15123e-05
-1.54694e-05
1.54745e-05
1.14478e-05
-1.28366e-05
1.29011e-05
1.14125e-05
-9.82396e-06
9.85934e-06
1.14085e-05
-7.60428e-06
7.60826e-06
1.14157e-05
-4.97827e-06
4.97101e-06
1.14792e-05
-1.26079e-06
1.19737e-06
1.15591e-05
1.4442e-06
-1.5241e-06
1.16063e-05
3.50757e-06
-3.55482e-06
1.16717e-05
6.66392e-06
-6.72933e-06
1.16467e-05
1.04031e-05
-1.0378e-05
1.16631e-05
1.34346e-05
-1.3451e-05
1.15879e-05
1.59412e-05
-1.5866e-05
1.13179e-05
1.86104e-05
-1.83404e-05
1.1106e-05
2.06676e-05
-2.04558e-05
1.07729e-05
2.27789e-05
-2.24458e-05
1.03579e-05
2.46684e-05
-2.42534e-05
9.87518e-06
2.53885e-05
-2.49057e-05
9.30697e-06
2.49346e-05
-2.43664e-05
8.80778e-06
2.34897e-05
-2.29905e-05
8.14376e-06
2.17448e-05
-2.10808e-05
7.59578e-06
1.95534e-05
-1.90054e-05
7.22651e-06
1.78086e-05
-1.74394e-05
7.15277e-06
1.64078e-05
-1.63341e-05
6.71588e-06
1.59671e-05
-1.55302e-05
6.49983e-06
1.5953e-05
-1.57369e-05
6.33938e-06
1.74696e-05
-1.73091e-05
6.19004e-06
1.82747e-05
-1.81254e-05
6.42558e-06
1.80748e-05
-1.83103e-05
6.40879e-06
1.93629e-05
-1.93461e-05
7.01439e-06
1.6888e-05
-1.74936e-05
6.74712e-06
2.09079e-05
-2.06406e-05
6.96675e-06
1.88148e-05
-1.90344e-05
6.81098e-06
1.81646e-05
-1.80088e-05
7.30085e-06
1.30452e-05
-1.35351e-05
7.54886e-06
1.3351e-05
-1.3599e-05
7.27839e-06
6.92445e-06
-6.65398e-06
7.14006e-06
4.91392e-06
-4.7756e-06
6.00366e-06
-2.47569e-07
1.38397e-06
5.01857e-06
-1.28776e-06
2.27286e-06
4.20162e-06
-6.00828e-06
6.82523e-06
3.8196e-06
-5.62507e-06
6.00709e-06
2.50572e-06
-7.76161e-06
9.0755e-06
-5.18612e-06
5.89828e-06
1.79355e-06
5.60146e-06
-9.72017e-07
5.709e-06
-1.33304e-06
6.00338e-06
-1.85419e-06
5.8453e-06
-1.11737e-06
5.84703e-06
-9.21378e-07
7.12483e-06
4.03084e-07
7.53786e-06
1.85525e-07
7.23208e-06
4.89593e-08
7.54684e-06
-1.12036e-06
8.54768e-06
-2.90922e-06
1.00179e-05
-6.83138e-07
1.1587e-05
3.57687e-06
1.23257e-05
3.45918e-06
1.2819e-05
1.50869e-06
1.3649e-05
1.12628e-06
1.44642e-05
-5.43658e-08
1.51842e-05
-2.0046e-06
1.56425e-05
-3.46901e-06
1.60351e-05
-5.23272e-06
1.63077e-05
-7.15429e-06
1.59978e-05
-8.97709e-06
1.57568e-05
-1.04762e-05
1.6175e-05
-1.24718e-05
1.68236e-05
-1.56053e-05
1.7037e-05
-1.7694e-05
1.67055e-05
-1.91729e-05
1.60897e-05
-1.95539e-05
1.53557e-05
-1.87677e-05
1.47672e-05
-1.82583e-05
1.41855e-05
-1.74043e-05
1.351e-05
-1.58199e-05
1.30586e-05
-1.43417e-05
1.24438e-05
-1.26786e-05
1.19874e-05
-1.04111e-05
1.14571e-05
-8.50557e-06
1.0658e-05
-7.86579e-06
1.01405e-05
-5.7779e-06
9.45867e-06
-3.68965e-06
8.75396e-06
-3.01022e-06
8.39473e-06
-1.85836e-06
7.75703e-06
1.22979e-08
7.37431e-06
1.54751e-06
7.37281e-06
2.93694e-06
6.85224e-06
3.26198e-06
6.24687e-06
3.18874e-06
6.55746e-06
4.90048e-06
7.67607e-06
9.48996e-06
9.10064e-06
1.57871e-05
1.04622e-05
2.15929e-05
1.14352e-05
2.5371e-05
1.18794e-05
2.6596e-05
1.18534e-05
2.56476e-05
1.15282e-05
2.32639e-05
1.11469e-05
2.01112e-05
1.09514e-05
1.6911e-05
1.0971e-05
1.41261e-05
1.11177e-05
1.16968e-05
1.12692e-05
9.21765e-06
1.14203e-05
6.1393e-06
1.155e-05
3.01823e-06
1.13893e-05
9.54568e-07
1.09686e-05
-1.43745e-06
1.05936e-05
-4.99456e-06
1.02742e-05
-8.49626e-06
9.93945e-06
-1.22339e-05
9.6826e-06
-1.67181e-05
9.61115e-06
-2.05433e-05
9.60269e-06
-2.31603e-05
9.56641e-06
-2.55301e-05
9.64238e-06
-2.62162e-05
9.69201e-06
-2.41525e-05
9.63569e-06
-2.17113e-05
9.48173e-06
-1.9315e-05
9.17253e-06
-1.5326e-05
8.71286e-06
-1.04766e-05
8.07179e-06
-8.16377e-06
7.48779e-06
-1.05142e-05
7.29181e-06
-1.4663e-05
7.3277e-06
-1.72237e-05
7.35522e-06
-1.84664e-05
7.34829e-06
-1.97148e-05
7.24185e-06
-2.12753e-05
7.14775e-06
-2.33168e-05
7.23043e-06
-2.4323e-05
7.45819e-06
-2.29901e-05
7.76821e-06
-2.07476e-05
7.91771e-06
-1.97872e-05
8.00861e-06
-2.06231e-05
8.3258e-06
-1.96084e-05
8.38953e-06
-1.58846e-05
8.28735e-06
-1.03001e-05
8.56234e-06
-5.10842e-06
9.02952e-06
-3.12195e-06
9.45684e-06
1.35194e-06
9.60896e-06
9.25961e-06
9.47787e-06
1.34488e-05
9.5201e-06
1.46535e-05
9.79207e-06
1.8581e-05
9.89927e-06
2.33959e-05
9.80124e-06
2.54219e-05
9.82461e-06
2.58066e-05
1.01744e-05
2.75745e-05
1.06763e-05
3.08545e-05
1.09337e-05
3.32006e-05
1.07135e-05
3.32022e-05
1.01138e-05