/*--------------------------------*- C++ -*----------------------------------*\
| =========                 |                                                 |
| \\      /  F ield         | OpenFOAM: The Open Source CFD Toolbox           |
|  \\    /   O peration     | Version:  2.4.0                                 |
|   \\  /    A nd           | Web:      www.OpenFOAM.org                      |
|    \\/     M anipulation  |                                                 |
\*---------------------------------------------------------------------------*/
FoamFile
{
    version     2.0;
    format      ascii;
    class       volScalarField;
    location    "0.288";
    object      k_0;
}
// * * * * * * * * * * * * * * * * * * * * * * * * * * * * * * * * * * * * * //

dimensions      [0 2 -2 0 0 0 0];

internalField   nonuniform List<scalar> 
17600
(
9.29026
7.40779
5.11899
3.94406
3.32869
2.9648
2.69168
2.469
2.34622
2.19198
2.13588
2.0388
1.99613
1.96541
1.90317
1.99011
1.94476
2.16294
2.5623
3.04154
4.50764
6.20615
5.83573
5.05825
4.40398
3.94472
3.59936
3.29846
3.14475
2.92056
2.83802
2.70553
2.62401
2.57866
2.46411
2.50967
2.40178
2.54192
2.57547
2.86766
1.32213
3.28916
3.98663
3.96063
3.76414
3.46514
3.23597
2.99024
2.87773
2.68278
2.60342
2.49766
2.40353
2.36868
2.2567
2.26372
2.15638
2.20776
2.07105
2.01617
0.207559
1.20378
1.91067
2.32515
2.51657
2.5081
2.48202
2.38096
2.3315
2.22262
2.16026
2.10592
2.02386
2.00148
1.92597
1.91255
1.82507
1.81852
1.72639
1.52156
0.0260056
0.281796
0.629711
0.954921
1.25958
1.40531
1.56189
1.58808
1.62716
1.6237
1.60357
1.5987
1.56969
1.55703
1.52734
1.51003
1.46172
1.41517
1.36491
1.18959
0.00274006
0.0462393
0.140838
0.247354
0.442969
0.543022
0.719083
0.813354
0.89226
0.974011
0.994626
1.03914
1.06021
1.06433
1.07561
1.07224
1.06264
1.00044
0.968664
0.840877
0.000277819
0.00658373
0.0221549
0.0432202
0.10092
0.139747
0.220767
0.293263
0.336725
0.429156
0.462292
0.514572
0.571805
0.58874
0.622754
0.637439
0.656547
0.608765
0.577695
0.475895
4.81158e-05
0.000900287
0.00288418
0.00578019
0.0151502
0.0241869
0.0430595
0.0726101
0.0868924
0.124882
0.14686
0.173553
0.218651
0.234776
0.26089
0.278427
0.3114
0.285459
0.254665
0.182783
2.74803e-05
0.000157215
0.000439485
0.000730756
0.00177032
0.00307224
0.00558023
0.0121571
0.015276
0.0240829
0.0306793
0.0381908
0.054833
0.0639723
0.0704921
0.0787916
0.0996768
0.0919255
0.077474
0.0522765
2.46951e-05
5.6324e-05
0.000139324
0.000155074
0.00027893
0.000418046
0.000702557
0.00166969
0.00205785
0.00333859
0.00467003
0.00566716
0.00859716
0.0118607
0.0126017
0.0139509
0.0201197
0.0189307
0.0156164
0.0116385
2.38144e-05
4.01482e-05
9.14324e-05
8.42451e-05
0.000105614
0.000120445
0.000195131
0.000312894
0.000337042
0.000560409
0.000687053
0.000773574
0.00120772
0.00160317
0.00163885
0.00190154
0.00297809
0.00277499
0.00237314
0.00201268
2.28782e-05
3.68135e-05
6.38611e-05
6.47353e-05
6.27393e-05
6.73713e-05
0.000113723
0.000122843
0.000133998
0.000176889
0.000178302
0.00021236
0.000278895
0.000286489
0.000286937
0.000314575
0.000437341
0.000544222
0.000500693
0.000453591
2.16758e-05
2.95403e-05
4.47805e-05
6.68591e-05
6.19953e-05
6.86702e-05
7.28985e-05
8.48911e-05
0.000109271
0.000106139
0.000105936
0.000116822
0.000123243
0.000128991
0.000128475
0.000125113
0.000144909
0.000221642
0.000211801
0.0002542
2.1199e-05
2.72415e-05
4.87221e-05
5.65995e-05
5.38269e-05
5.32253e-05
5.33985e-05
7.82867e-05
8.23532e-05
8.12168e-05
8.49407e-05
8.21096e-05
8.80204e-05
0.000112037
0.000108175
0.000101136
0.000125856
0.000123871
0.000134416
0.000248414
2.13045e-05
2.61525e-05
4.70758e-05
4.89868e-05
5.41642e-05
5.14019e-05
5.27489e-05
6.19016e-05
6.23551e-05
6.69485e-05
6.62557e-05
6.45983e-05
7.34034e-05
8.51432e-05
8.3815e-05
8.25743e-05
8.53596e-05
8.35008e-05
0.000109373
0.000154231
2.12045e-05
2.61384e-05
3.59889e-05
4.44883e-05
4.91425e-05
4.66501e-05
4.66585e-05
4.6712e-05
4.96751e-05
6.06739e-05
5.88706e-05
5.86605e-05
6.08314e-05
6.24978e-05
7.102e-05
7.77771e-05
7.27658e-05
7.34631e-05
8.57536e-05
0.000102308
2.12588e-05
2.93937e-05
3.28283e-05
4.10986e-05
4.32943e-05
4.39683e-05
4.3617e-05
4.37754e-05
5.0035e-05
5.43775e-05
5.46409e-05
5.51661e-05
5.45941e-05
5.53807e-05
6.76852e-05
6.83784e-05
6.61349e-05
6.92616e-05
7.20353e-05
8.23944e-05
2.07742e-05
2.66038e-05
3.21444e-05
3.66716e-05
3.97509e-05
4.08571e-05
4.14084e-05
4.18873e-05
4.42138e-05
4.67468e-05
5.38761e-05
5.23943e-05
5.2258e-05
5.63315e-05
6.0371e-05
5.98228e-05
6.19472e-05
6.36401e-05
6.44928e-05
6.81236e-05
2.05609e-05
2.42865e-05
3.3467e-05
3.564e-05
3.84905e-05
4.08454e-05
4.14318e-05
4.15811e-05
4.17895e-05
4.41638e-05
5.00604e-05
5.04257e-05
5.1528e-05
5.15219e-05
5.22673e-05
5.23226e-05
5.56773e-05
5.63926e-05
5.64665e-05
6.40015e-05
2.05207e-05
2.62076e-05
3.29282e-05
3.37681e-05
3.82108e-05
4.05258e-05
4.12416e-05
4.10069e-05
4.13694e-05
4.41169e-05
4.68347e-05
4.7042e-05
4.72312e-05
4.65282e-05
4.64269e-05
4.75322e-05
5.11281e-05
5.11496e-05
5.18344e-05
7.11147e-05
2.0506e-05
2.7339e-05
2.97603e-05
3.3753e-05
4.09288e-05
4.13725e-05
4.08232e-05
4.16908e-05
4.17189e-05
4.32423e-05
4.51161e-05
4.62716e-05
4.56801e-05
4.56605e-05
4.60757e-05
4.8504e-05
4.97011e-05
4.99011e-05
5.20592e-05
7.11455e-05
2.06395e-05
2.57186e-05
2.87888e-05
3.75745e-05
4.06274e-05
4.03983e-05
4.10051e-05
4.28497e-05
4.24199e-05
4.32395e-05
4.41964e-05
4.41971e-05
4.54573e-05
4.65216e-05
4.90299e-05
4.92117e-05
4.95408e-05
5.02309e-05
5.14326e-05
6.2168e-05
2.06643e-05
2.47909e-05
3.06853e-05
4.08565e-05
4.20286e-05
4.32438e-05
4.43825e-05
4.3717e-05
4.16786e-05
4.17433e-05
4.21056e-05
4.62093e-05
4.84585e-05
4.98942e-05
4.94827e-05
4.94221e-05
4.96142e-05
5.01687e-05
5.11356e-05
5.80197e-05
2.09023e-05
2.51257e-05
3.63029e-05
4.29587e-05
4.4494e-05
4.47212e-05
4.37052e-05
4.16423e-05
4.1779e-05
4.35619e-05
5.09592e-05
5.25631e-05
5.26172e-05
5.14935e-05
5.19697e-05
5.21031e-05
5.26666e-05
5.4096e-05
5.85497e-05
6.67936e-05
2.10586e-05
2.64743e-05
3.9433e-05
4.46835e-05
4.46365e-05
4.29695e-05
4.22569e-05
4.40353e-05
4.96424e-05
5.66841e-05
5.82356e-05
5.70607e-05
5.42043e-05
5.44745e-05
5.64351e-05
6.02604e-05
6.25553e-05
6.39675e-05
6.7008e-05
7.33573e-05
2.12205e-05
2.71102e-05
4.01692e-05
4.51826e-05
4.42901e-05
4.42457e-05
4.91134e-05
5.9534e-05
6.08895e-05
6.2554e-05
6.113e-05
5.88455e-05
5.8787e-05
6.4292e-05
6.9271e-05
7.56654e-05
7.6347e-05
7.7571e-05
8.17798e-05
0.00010622
2.14869e-05
2.76523e-05
4.19183e-05
4.61915e-05
4.872e-05
5.76929e-05
6.66292e-05
6.70569e-05
6.53656e-05
6.36643e-05
6.28284e-05
6.37483e-05
7.37193e-05
8.59763e-05
9.22732e-05
9.51683e-05
9.6307e-05
0.000104018
0.000135338
0.000267956
2.17172e-05
2.9774e-05
4.40771e-05
5.07679e-05
6.32934e-05
7.28629e-05
7.34009e-05
7.16869e-05
6.82129e-05
6.86741e-05
7.11544e-05
9.00827e-05
0.000113355
0.000128637
0.000135323
0.000148112
0.000176283
0.000271122
0.000515424
0.00129406
2.2502e-05
3.07883e-05
5.22032e-05
6.292e-05
8.17088e-05
8.23036e-05
8.3034e-05
8.28838e-05
8.48638e-05
9.94172e-05
0.000124712
0.000198905
0.000254786
0.000331896
0.00039589
0.000539861
0.000832748
0.00168305
0.00318037
0.00783321
2.28351e-05
3.41447e-05
7.56243e-05
9.161e-05
0.000111895
0.000116304
0.000135813
0.000172818
0.000229062
0.000410322
0.000570384
0.000992974
0.00131842
0.00199745
0.00257823
0.00399775
0.00595463
0.0113833
0.0177311
0.0371111
2.4429e-05
5.05708e-05
0.000151712
0.000193618
0.00025201
0.000359126
0.000664062
0.00121321
0.00174625
0.00329209
0.00444135
0.00737836
0.0095558
0.014265
0.0177343
0.0261317
0.0345021
0.0563566
0.0754664
0.133895
2.79308e-05
0.000149943
0.000560623
0.000881178
0.00152907
0.00273531
0.00604181
0.0104212
0.0142525
0.0246615
0.0310913
0.0457052
0.0554138
0.0755047
0.0878667
0.116284
0.139419
0.194643
0.234382
0.339226
4.9122e-05
0.000882075
0.00353426
0.00649193
0.0131566
0.0227133
0.0459501
0.0655793
0.0848867
0.128812
0.150582
0.1892
0.220531
0.265189
0.291847
0.347604
0.387877
0.472767
0.525267
0.638183
0.000280966
0.00639558
0.025212
0.0462294
0.0903904
0.140784
0.226149
0.277527
0.34889
0.428593
0.475964
0.529152
0.584367
0.63044
0.666579
0.721479
0.768867
0.841603
0.889005
0.971744
0.00274976
0.0445272
0.149966
0.254618
0.416176
0.560034
0.717397
0.800805
0.905268
0.973328
1.01561
1.04625
1.08608
1.10031
1.12666
1.14961
1.18528
1.22086
1.25617
1.29024
0.0260688
0.269665
0.648548
0.952625
1.24573
1.42138
1.5556
1.58633
1.6339
1.62695
1.62202
1.60161
1.59785
1.57514
1.57499
1.5648
1.57268
1.57139
1.57648
1.56924
0.207901
1.19776
1.92863
2.31657
2.51736
2.51141
2.4799
2.3857
2.3328
2.22174
2.17787
2.0905
2.05886
1.98908
1.97049
1.91679
1.90176
1.8562
1.82812
1.77329
1.32357
3.28687
3.99653
3.95641
3.77272
3.45542
3.23089
3.003
2.8682
2.68171
2.61089
2.47447
2.42108
2.31367
2.27541
2.17503
2.12917
2.01787
1.95086
1.83227
4.50668
6.20993
5.84176
5.04296
4.42646
3.92498
3.59736
3.30869
3.12925
2.9103
2.82883
2.66688
2.59905
2.46346
2.40365
2.25687
2.17292
1.99007
1.87221
1.66114
9.28922
7.41442
5.12258
3.9275
3.34648
2.94821
2.68841
2.46822
2.3323
2.16932
2.10657
1.9824
1.92186
1.79857
1.72959
1.57837
1.46736
1.26023
1.10596
0.870919
2.42658
1.86078
1.36572
1.02753
0.788927
0.583629
0.457106
0.388073
0.295683
0.213814
0.331088
0.427886
0.345904
0.299814
0.334433
0.297853
0.174205
0.103768
0.0979578
0.0885988
0.0796894
0.0715517
0.0710731
0.066329
0.0604747
0.0570017
0.0546882
0.0656674
0.0992112
0.138712
0.171108
0.177687
0.168885
0.12366
0.0680014
0.034098
0.0154705
0.00690128
0.00350515
0.00251865
0.00241645
0.00265586
0.00379365
0.00744282
0.0204381
0.0372986
0.0514188
0.0795674
0.14905
0.197859
0.203339
0.18984
0.154846
0.117675
0.0964733
0.0791456
0.0637496
0.0543356
0.0493827
0.0447404
0.0405116
0.039134
0.0392535
0.0403447
0.0438701
0.054453
0.0689007
0.0754545
0.0757172
0.0728186
0.0616522
0.0468366
0.0366494
0.0313141
0.0298643
0.0279035
0.022299
0.0170521
0.0129784
0.0114677
0.0116353
0.0137726
0.0140757
0.0136399
0.0133091
0.0131949
0.0138424
0.0163346
0.0209161
0.0340612
0.053532
0.0637327
0.066395
0.0678045
0.0781593
0.0846887
0.0832353
0.0685086
0.0451073
0.0308486
0.0239351
0.0218117
0.0212821
0.0216208
0.0256703
0.0307219
0.0322595
0.0335546
0.0355099
0.0478032
0.0689971
0.0728982
0.0698067
0.0657014
0.0648069
0.0659111
0.0736513
0.0816125
0.0840468
0.083591
0.0783888
0.0611539
0.0444305
0.0332042
0.026896
0.0252923
0.0254827
0.0277419
0.0297715
0.0304586
0.0311002
0.032064
0.0344454
0.0398831
0.0446053
0.0457311
0.0426389
0.0385687
0.0381338
0.0391826
0.0562023
0.0837094
0.0851735
0.0855142
0.0983044
0.0997904
0.0831631
0.0537022
0.0400756
0.0353229
0.0348405
0.035102
0.0347112
0.0344448
0.0331845
0.030985
0.0278521
0.0234812
0.0207408
0.0205239
0.0280534
0.0351088
0.0362601
0.0378358
0.0386792
0.0368775
0.0348412
0.030575
0.0270176
0.0256329
0.0256884
0.0264838
0.0296307
0.0420576
0.108525
0.157039
0.163836
0.131943
0.0882807
0.0819398
0.0870056
0.0791744
0.0715397
0.0704672
0.066741
0.0553946
0.0457254
0.0417388
0.0406677
0.0384243
0.0356775
0.0352
0.0357637
0.035338
0.0357987
0.0409314
0.0541792
0.068094
0.124001
1.15409
2.45808
1.87921
1.32601
0.935113
0.712239
0.487349
0.328471
0.292841
0.260099
0.179216
0.206317
0.37861
0.366656
0.309904
0.335983
0.305569
0.196366
0.116124
0.10281
0.0883187
0.0816628
0.0759326
0.0753613
0.0673793
0.0630964
0.0555575
0.0547076
0.073615
0.110437
0.151752
0.173557
0.172344
0.157306
0.102982
0.05467
0.0255854
0.0110628
0.0050055
0.00292849
0.00244525
0.00250035
0.00318054
0.00563528
0.0129271
0.0360223
0.0556036
0.0755812
0.123817
0.202465
0.223518
0.214836
0.184111
0.134278
0.105709
0.0879663
0.0723838
0.0589095
0.0511607
0.0467933
0.0427998
0.038854
0.0370064
0.0368629
0.037388
0.0394603
0.0453153
0.060139
0.072737
0.0752092
0.0738269
0.0677865
0.0518048
0.0390814
0.0332292
0.031848
0.0294588
0.0229976
0.0174748
0.0130852
0.0111853
0.0111306
0.0127239
0.0131594
0.0128029
0.0124943
0.0123528
0.0128664
0.0148248
0.0190734
0.0312725
0.0514381
0.063428
0.0667955
0.0679734
0.0762547
0.0826739
0.0819932
0.0714851
0.0482364
0.0333962
0.0261399
0.0230198
0.0222004
0.0226072
0.0281846
0.0326255
0.0338216
0.0350351
0.0375427
0.0548945
0.0739979
0.075905
0.07026
0.0660936
0.0655465
0.0678263
0.0778834
0.085684
0.0876461
0.0862288
0.0763813
0.0541851
0.0390965
0.0298393
0.0247264
0.023097
0.0231984
0.0255722
0.0275845
0.0284109
0.0295489
0.0310675
0.0348575
0.0404373
0.0446654
0.0452826
0.041434
0.0376143
0.0373716
0.0385494
0.0584626
0.0845261
0.0850231
0.0849633
0.0969354
0.0980619
0.0810446
0.0534778
0.0396272
0.0343051
0.0324213
0.0324139
0.0320738
0.0313525
0.030318
0.0291831
0.0261895
0.0224909
0.0213063
0.0226956
0.0292952
0.0347272
0.0391939
0.0420348
0.0416932
0.0373923
0.0339333
0.0298319
0.0270635
0.0266233
0.0269347
0.0281836
0.0321236
0.0459025
0.11555
0.161438
0.165276
0.131421
0.0913217
0.0829925
0.0955902
0.101474
0.101829
0.102773
0.0942529
0.074011
0.053177
0.04468
0.0426358
0.0409536
0.0370538
0.0352502
0.0351648
0.0348607
0.0351729
0.0389011
0.0526985
0.0670056
0.13572
0.851893
1.6905
1.30789
0.943206
0.643907
0.471176
0.332573
0.175835
0.135337
0.165714
0.147637
0.133553
0.261734
0.355907
0.326591
0.346662
0.320336
0.212945
0.13306
0.102758
0.0888299
0.0858767
0.0835387
0.0777
0.0706796
0.0638262
0.05625
0.0565467
0.0789549
0.121455
0.158568
0.168499
0.165257
0.142963
0.0874119
0.0459192
0.02094
0.00887018
0.00409014
0.00267321
0.00247165
0.00279777
0.00443028
0.00942705
0.0241419
0.0597334
0.0805425
0.109173
0.184107
0.239978
0.240909
0.218188
0.159627
0.118947
0.0957162
0.0801386
0.0670024
0.0553477
0.0488498
0.0443209
0.0408732
0.0376064
0.0355027
0.0351329
0.0354433
0.0367547
0.0403581
0.0513234
0.0674198
0.0738259
0.0736194
0.0701993
0.0564222
0.0427527
0.0365775
0.034657
0.0305306
0.0240851
0.0184273
0.0134404
0.0111026
0.0108396
0.0119924
0.0124563
0.0121587
0.0118185
0.0116438
0.0120341
0.0135916
0.0172998
0.028615
0.0493855
0.0635541
0.0679273
0.0688601
0.0749894
0.0805846
0.0803935
0.0735694
0.0515457
0.0361303
0.0280504
0.0243274
0.0235975
0.0243403
0.031352
0.0347687
0.0355739
0.0365382
0.04025
0.0629968
0.0784119
0.0783081
0.0699155
0.0661502
0.0661349
0.0703967
0.0824717
0.0898383
0.0911007
0.0879141
0.070907
0.0472439
0.0333788
0.0262919
0.0228338
0.0217105
0.0219197
0.024064
0.0254905
0.0262484
0.0276496
0.029837
0.0350608
0.0407188
0.0444805
0.0446273
0.0400061
0.036676
0.0365343
0.0379629
0.0607278
0.0852506
0.0848126
0.0844213
0.0951877
0.0962186
0.0798801
0.0534927
0.0386877
0.0335552
0.0299324
0.0298476
0.0292206
0.0282712
0.0275391
0.027088
0.0254191
0.0233559
0.0237387
0.0253167
0.0278152
0.0354238
0.0426621
0.0440308
0.0427039
0.0364028
0.032481
0.0294246
0.0276148
0.0275877
0.0281055
0.0296644
0.0342854
0.049124
0.122684
0.166059
0.167674
0.130708
0.0923411
0.0828952
0.0925668
0.114276
0.123267
0.143376
0.140746
0.124796
0.0816529
0.0580551
0.0493902
0.0462982
0.0404279
0.036028
0.0351335
0.0348187
0.0348749
0.0369922
0.0491792
0.0638962
0.135057
0.599998
1.14008
0.86213
0.64343
0.459744
0.299074
0.19036
0.0999192
0.0561179
0.0576703
0.0930498
0.0911773
0.143991
0.315279
0.332103
0.379292
0.371279
0.253375
0.157269
0.103733
0.0939761
0.0931431
0.0877564
0.0828345
0.0796051
0.0658586
0.0587514
0.0604433
0.0914375
0.133719
0.161616
0.164673
0.160673
0.131653
0.0737203
0.0341968
0.0141472
0.00595382
0.00321818
0.0025653
0.00264514
0.00359241
0.00709321
0.0168679
0.0479327
0.0890043
0.112227
0.156182
0.242813
0.264826
0.250476
0.197926
0.138969
0.107015
0.0883542
0.0751211
0.0635285
0.0535008
0.0478839
0.042686
0.0389372
0.0364756
0.0342677
0.0335928
0.0338215
0.0348565
0.037532
0.0441511
0.0614442
0.0719374
0.073073
0.0711963
0.060669
0.0465791
0.0392031
0.0364442
0.0317391
0.0257197
0.0196857
0.0140167
0.0111609
0.0106201
0.0113714
0.0117634
0.0115441
0.0111806
0.0109888
0.011296
0.012579
0.0156076
0.0258364
0.0475586
0.0632635
0.0686285
0.069725
0.0750358
0.0787805
0.0788673
0.0743628
0.0549811
0.0390341
0.0299907
0.0261834
0.0256932
0.0272177
0.0350038
0.0369784
0.0373147
0.0382084
0.044599
0.071707
0.0823252
0.0795791
0.0687453
0.0660662
0.0668946
0.0740695
0.0870281
0.0939205
0.0944782
0.088418
0.063422
0.0398137
0.0280866
0.0231427
0.0213499
0.0210504
0.0216316
0.0233987
0.0240302
0.0246005
0.0259165
0.0288071
0.0349546
0.0406182
0.0439372
0.0437517
0.0385294
0.0356465
0.0356233
0.0374656
0.0637282
0.086473
0.084896
0.0842656
0.0939889
0.0946185
0.0792146
0.053285
0.0382624
0.0325823
0.0281828
0.0269727
0.0262167
0.0258564
0.0255628
0.0255146
0.0253445
0.0251242
0.0257553
0.0265481
0.0286055
0.0386575
0.0445762
0.0446928
0.0408355
0.0350747
0.0320694
0.0295499
0.0286527
0.0288416
0.029638
0.0314874
0.0370023
0.0531512
0.129436
0.171924
0.171521
0.129803
0.0938234
0.0814738
0.0845919
0.111907
0.123462
0.146956
0.164344
0.162066
0.145418
0.106978
0.0774003
0.0600014
0.0483699
0.0390658
0.0356969
0.0348705
0.0349484
0.0362524
0.0488158
0.0606586
0.129426
0.429124
0.863363
0.648223
0.465033
0.323159
0.188124
0.0949818
0.0487367
0.0269683
0.0240466
0.038435
0.0529278
0.0679403
0.219719
0.31497
0.362808
0.383246
0.312672
0.18631
0.11227
0.10238
0.099974
0.0950861
0.0957864
0.0875735
0.0690227
0.0625478
0.0676623
0.102423
0.139906
0.159013
0.15971
0.155035
0.114114
0.0595371
0.026991
0.0111538
0.00483023
0.00290595
0.00265103
0.00311317
0.00539054
0.0124956
0.0316254
0.0841966
0.125455
0.152918
0.219076
0.280411
0.281573
0.25179
0.175559
0.124574
0.0990813
0.0830681
0.0709812
0.0604505
0.0516106
0.0465723
0.0416236
0.0375646
0.0359964
0.0336393
0.0324053
0.03253
0.0334339
0.0356472
0.0402566
0.0550172
0.0683386
0.072245
0.0711005
0.0633098
0.0491918
0.040595
0.0380228
0.0334583
0.0268767
0.0202244
0.014308
0.0112115
0.0104091
0.0108931
0.0112104
0.0110669
0.0106757
0.0104298
0.010675
0.011776
0.0142997
0.0238627
0.0463826
0.0627573
0.0695054
0.0719975
0.0758488
0.0775986
0.0775727
0.0743472
0.05822
0.0423344
0.0324491
0.028876
0.0285203
0.0317663
0.0386001
0.0390214
0.0388833
0.0401047
0.051592
0.0790502
0.0852872
0.0799154
0.0674268
0.065632
0.0679259
0.078256
0.091659
0.0978473
0.0975487
0.086206
0.0540421
0.0331939
0.0244347
0.0215865
0.0208511
0.0208498
0.0218645
0.0231649
0.0234122
0.0237498
0.0247863
0.0278896
0.0347169
0.0401625
0.042974
0.0422986
0.0368615
0.0346236
0.0347948
0.0373029
0.0663282
0.0873449
0.0848879
0.0840144
0.093048
0.0936315
0.0792373
0.0532797
0.0378947
0.0312476
0.0271298
0.0250483
0.0241264
0.024388
0.0246292
0.0246505
0.0249446
0.0259799
0.026602
0.0272687
0.0340616
0.0431402
0.0455306
0.0441706
0.0384278
0.0346623
0.0323603
0.0308613
0.0304546
0.0307318
0.0316723
0.0337581
0.0402894
0.0576015
0.136229
0.179722
0.177133
0.12784
0.0966215
0.0811717
0.0759567
0.0964412
0.111335
0.122808
0.151599
0.159084
0.156969
0.143569
0.123038
0.0978133
0.0669985
0.0466476
0.0377628
0.0358311
0.0356161
0.0361824
0.0493905
0.0586776
0.11679
0.314561
0.597814
0.434287
0.278711
0.158794
0.0765222
0.0382812
0.0215659
0.0129739
0.0103447
0.0153216
0.0269028
0.035685
0.10885
0.268701
0.320525
0.367413
0.338828
0.208079
0.125323
0.106671
0.104513
0.105302
0.105096
0.0873779
0.0691316
0.0629598
0.0758219
0.109225
0.14192
0.156456
0.157316
0.149907
0.0959976
0.0455583
0.0188089
0.0074494
0.00368317
0.00276983
0.00288392
0.00424188
0.00918293
0.0231885
0.0608841
0.132937
0.165124
0.199785
0.276506
0.306166
0.290203
0.223501
0.150519
0.111527
0.0910627
0.0770416
0.0663349
0.0571887
0.0492065
0.0444578
0.0398766
0.0360248
0.0351633
0.0339323
0.0317963
0.0316748
0.0322338
0.0340503
0.0379058
0.0492014
0.0656053
0.0710551
0.0706373
0.0654261
0.052135
0.0435091
0.0402292
0.0342675
0.0275169
0.0209837
0.0149245
0.0113571
0.0103283
0.0105637
0.0107417
0.0106404
0.0103257
0.0100684
0.0102805
0.0112752
0.0133779
0.0222974
0.045568
0.0619499
0.0695197
0.074454
0.0766462
0.0771862
0.0768272
0.0741252
0.0607799
0.0453942
0.035512
0.0324474
0.0323211
0.0374616
0.0416771
0.0408191
0.0403633
0.042604
0.0612625
0.0847971
0.0876473
0.0779227
0.0656198
0.0650535
0.0698464
0.08289
0.0962452
0.101491
0.0993912
0.0802557
0.047183
0.0297856
0.0231273
0.0211414
0.0207805
0.0209112
0.0222813
0.0231218
0.0231722
0.0233571
0.0241827
0.0271113
0.0340626
0.0393559
0.0418358
0.040505
0.0352571
0.0335629
0.033759
0.0374798
0.0697167
0.0883098
0.0847802
0.0837885
0.0924174
0.0928811
0.0801597
0.0536134
0.0375595
0.0295774
0.0257897
0.0240536
0.0231255
0.0238192
0.024572
0.0245956
0.024912
0.0261641
0.0272125
0.0336776
0.0426157
0.0457545
0.0456009
0.0414412
0.037485
0.0355484
0.0350677
0.0341713
0.0335029
0.0337191
0.034465
0.0363605
0.0438188
0.0625783
0.14216
0.188186
0.182504
0.125428
0.100675
0.0856645
0.0711443
0.0759802
0.093129
0.106495
0.118823
0.129367
0.140929
0.139506
0.132838
0.120973
0.0998541
0.0637045
0.0430614
0.0370539
0.037503
0.0366571
0.0518986
0.0586938
0.103992
0.239043
0.299787
0.184514
0.100729
0.0544835
0.0278868
0.0144151
0.00939081
0.00674919
0.00494036
0.00588865
0.013918
0.0186881
0.0411416
0.173952
0.277224
0.349143
0.347637
0.243356
0.144392
0.112474
0.111451
0.111713
0.103086
0.0795607
0.0649276
0.0637519
0.0860132
0.109727
0.139128
0.155199
0.156841
0.141123
0.0779597
0.0359114
0.0146199
0.00582664
0.00323818
0.0028862
0.00354596
0.00681026
0.0169369
0.0441729
0.116892
0.179848
0.205003
0.256482
0.316443
0.321268
0.289551
0.196828
0.135469
0.103306
0.0868365
0.0736416
0.0632336
0.0544809
0.0461546
0.0417659
0.0377993
0.0350641
0.0346116
0.0341665
0.032039
0.0313721
0.03156
0.0327081
0.0356885
0.0448315
0.0623546
0.069598
0.0698751
0.0665404
0.0557527
0.0466235
0.0410521
0.0351997
0.0291126
0.0222115
0.0155369
0.0116224
0.010363
0.0103655
0.0104131
0.0103467
0.0101758
0.00994201
0.0101488
0.0110496
0.0127521
0.0217434
0.0440252
0.0601361
0.0690283
0.0754989
0.0769161
0.077178
0.076582
0.0739911
0.0624801
0.0484536
0.0391918
0.0367053
0.0372219
0.0426333
0.0440389
0.041953
0.041782
0.0463788
0.0717836
0.0891923
0.0887347
0.0744939
0.0636797
0.0645142
0.0729127
0.0874617
0.100489
0.104591
0.100114
0.0734979
0.0431093
0.0279877
0.0222673
0.0209493
0.020945
0.0215284
0.0228197
0.0231404
0.0230473
0.0231737
0.0237996
0.0267616
0.0334559
0.038233
0.0403954
0.0383981
0.0337829
0.0325411
0.0327876
0.038482
0.0738024
0.0897061
0.0849489
0.0834484
0.091985
0.0926677
0.0823916
0.0545908
0.037602
0.0283574
0.0245057
0.0234099
0.0227211
0.0239039
0.0259541
0.0257885
0.0257058
0.0263131
0.031738
0.042512
0.0462086
0.0462582
0.0431521
0.0396817
0.038153
0.0386041
0.0392837
0.0386594
0.0369499
0.0368782
0.0371959
0.0391697
0.0485037
0.0683534
0.150394
0.198851
0.185748
0.122598
0.105639
0.0923349
0.0695529
0.0646264
0.0719036
0.0876038
0.108438
0.11128
0.114386
0.117877
0.123198
0.120606
0.113191
0.0888464
0.0548682
0.0396918
0.0393631
0.0376138
0.0572287
0.0601632
0.0924693
0.187978
0.0872762
0.0543414
0.031133
0.0176204
0.00965693
0.00534452
0.00412962
0.00349284
0.00312338
0.00294004
0.00682588
0.00996353
0.0196291
0.0702701
0.222678
0.332317
0.349143
0.274466
0.167344
0.129572
0.123006
0.112232
0.0934996
0.071634
0.0618734
0.0696729
0.0933824
0.108998
0.138102
0.156769
0.158092
0.123326
0.0605848
0.0246454
0.00895082
0.00414003
0.00302816
0.00317458
0.00509927
0.0122417
0.0325642
0.085628
0.181539
0.225357
0.247227
0.300366
0.340112
0.328148
0.259983
0.162639
0.119819
0.095393
0.0816735
0.0688116
0.0585455
0.0509562
0.0425502
0.0387881
0.0362275
0.0345977
0.0346103
0.0344852
0.0326904
0.0314894
0.0313585
0.0319379
0.0341779
0.0412002
0.0587085
0.0682134
0.0687991
0.0665718
0.0581236
0.0476932
0.041823
0.0366354
0.0302086
0.0227889
0.0158248
0.0117335
0.0104187
0.0103302
0.0103458
0.010278
0.010187
0.00994299
0.0101532
0.011018
0.0125135
0.0215856
0.0418358
0.0570098
0.0678399
0.075383
0.0768581
0.077233
0.0766015
0.0740212
0.0644529
0.0508093
0.0426287
0.0413873
0.0430651
0.0461107
0.0453987
0.0428197
0.0434523
0.0531645
0.0816245
0.0917187
0.0891417
0.0696205
0.0613599
0.0642194
0.0768308
0.0922923
0.104379
0.10688
0.0999292
0.0674836
0.0404111
0.0265169
0.0216641
0.020873
0.0213043
0.0224384
0.022989
0.0231286
0.0228039
0.0229023
0.0233896
0.026087
0.0326469
0.0369548
0.0387348
0.0361179
0.0322374
0.0315494
0.0319687
0.0407219
0.0776293
0.0909482
0.0852696
0.0834908
0.0911425
0.0926314
0.0844154
0.0572316
0.0379853
0.0280472
0.0240109
0.0230712
0.0228015
0.0255207
0.0277619
0.0269624
0.0262781
0.0275154
0.0374994
0.0448554
0.0453209
0.0430164
0.0407101
0.0399521
0.0407061
0.0430857
0.0444304
0.04415
0.0412878
0.0406842
0.0407579
0.0432875
0.055347
0.0748859
0.156969
0.205691
0.183744
0.122315
0.110924
0.0932728
0.0687069
0.0591357
0.0592907
0.0633998
0.0887607
0.101916
0.104133
0.101501
0.102395
0.111064
0.111319
0.104515
0.0739843
0.0444452
0.0427745
0.0387274
0.0602357
0.0616823
0.0820435
0.152486
0.0247234
0.015204
0.00909291
0.00533428
0.00337489
0.0022551
0.00184711
0.00189138
0.00252072
0.00226116
0.00297102
0.00504915
0.00953212
0.027599
0.132381
0.301106
0.345644
0.309942
0.194349
0.147869
0.130597
0.11152
0.0885565
0.0695886
0.0645802
0.0845328
0.105016
0.114111
0.14333
0.164516
0.159548
0.100191
0.0439301
0.0164264
0.00636047
0.00354209
0.00317074
0.00406835
0.00872812
0.0234347
0.0636221
0.160202
0.234932
0.259014
0.279689
0.336943
0.350593
0.323885
0.222572
0.140868
0.109175
0.0902616
0.0790785
0.0660765
0.0549937
0.0490083
0.041101
0.0367284
0.0351574
0.034386
0.0347691
0.0348592
0.0341047
0.03192
0.0314021
0.0316569
0.0332399
0.0387776
0.0568668
0.0666038
0.067732
0.0663602
0.0588237
0.0487496
0.0429386
0.0374322
0.0315502
0.023879
0.0165707
0.0120468
0.0105694
0.0104154
0.0103904
0.0102592
0.0102416
0.0100226
0.0102059
0.011016
0.0123554
0.021072
0.0395198
0.0547772
0.0654705
0.0742569
0.0764732
0.0771898
0.0765856
0.0745465
0.0677387
0.0536372
0.0472324
0.0467304
0.0480819
0.0484528
0.045643
0.0438427
0.0460242
0.0643989
0.0877868
0.0931529
0.086931
0.0643847
0.059098
0.0651684
0.0811968
0.0971173
0.107574
0.107651
0.0976236
0.0633005
0.0380585
0.0252398
0.0210676
0.0207295
0.0215048
0.0225705
0.022918
0.0229525
0.0223155
0.0223159
0.0227862
0.0257957
0.0316735
0.035567
0.036905
0.033846
0.03073
0.0306037
0.0314332
0.0440601
0.0837539
0.0935364
0.0862282
0.0838576
0.0902415
0.0921619
0.0857686
0.0607141
0.0397744
0.0284709
0.02418
0.0235005
0.0244663
0.0276741
0.028698
0.0274627
0.027117
0.0296309
0.0388044
0.0418228
0.0411503
0.0403051
0.0406306
0.0420357
0.0461894
0.050812
0.0527369
0.0520766
0.0472688
0.045803
0.0457747
0.0496185
0.0641035
0.0822833
0.164091
0.207823
0.179549
0.131704
0.114996
0.0881804
0.0673809
0.0575591
0.0544893
0.0551184
0.0665058
0.0817458
0.0886168
0.0886486
0.0891434
0.0925116
0.105197
0.104133
0.0962876
0.0559514
0.0494031
0.0405601
0.0609886
0.0624406
0.0727239
0.126036
0.00607218
0.00381582
0.00265001
0.00181378
0.00142716
0.00115858
0.000953701
0.00115546
0.00199209
0.00211945
0.00192454
0.0028393
0.00505827
0.0141398
0.0558073
0.261138
0.340814
0.340477
0.262646
0.184567
0.144636
0.115657
0.0899952
0.075357
0.0789832
0.10198
0.110115
0.11893
0.163073
0.172131
0.148781
0.0733976
0.0292861
0.0104977
0.00458883
0.00330991
0.00352388
0.00617149
0.0164683
0.0458664
0.124309
0.229325
0.274783
0.285821
0.310413
0.355713
0.353114
0.297833
0.174297
0.123713
0.102059
0.0875197
0.0776153
0.0641355
0.0531866
0.0477588
0.0400882
0.0355394
0.0346007
0.0339931
0.0339169
0.0344922
0.0345509
0.0330476
0.0316118
0.0316931
0.0326877
0.0376142
0.0555042
0.0658369
0.0675206
0.0661856
0.0596718
0.0502396
0.0438812
0.03882
0.0328895
0.0251608
0.0173514
0.0123461
0.0109336
0.0107648
0.0106411
0.0103206
0.0103291
0.0102071
0.0103824
0.0111097
0.0123952
0.0201905
0.0376184
0.0530688
0.0634325
0.0708398
0.0744263
0.0760977
0.0758517
0.0742308
0.0702662
0.0576669
0.0519007
0.0510301
0.0512523
0.0488756
0.0455526
0.0451051
0.0509468
0.0759773
0.0919003
0.0935773
0.0815698
0.059083
0.0567224
0.0674848
0.0857713
0.101869
0.108869
0.107782
0.0945929
0.0607468
0.0365117
0.0243119
0.0205108
0.0202689
0.021287
0.0222551
0.0224913
0.0222418
0.0212538
0.0213507
0.0218373
0.0250838
0.0306516
0.0340019
0.0348248
0.0316744
0.0293934
0.0296625
0.0310031
0.0481092
0.0916749
0.0981086
0.0875444
0.0846954
0.0902954
0.0922357
0.0872162
0.0645443
0.0425918
0.0302989
0.0255464
0.0250721
0.0268645
0.0292024
0.0294737
0.0283722
0.0283395
0.0310431
0.03442
0.0367169
0.0382418
0.0395084
0.0435435
0.0503643
0.0595465
0.0670407
0.0687553
0.0661121
0.0575387
0.0542046
0.0538061
0.0587231
0.0737772
0.0905968
0.169167
0.207455
0.178292
0.139415
0.114695
0.082641
0.0673788
0.0592874
0.0530624
0.0504333
0.0574055
0.0667491
0.0747098
0.0745127
0.076326
0.0782156
0.0909384
0.100619
0.101603
0.0726913
0.0643478
0.0442448
0.0619673
0.063061
0.0676102
0.105085
0.00149199
0.00113614
0.0010748
0.000949737
0.000809411
0.00065004
0.000631948
0.00101535
0.00126667
0.00197651
0.00161346
0.00175231
0.00345065
0.00828603
0.0222356
0.171384
0.314891
0.345579
0.329542
0.272761
0.188353
0.141353
0.106527
0.1004
0.112577
0.117725
0.118393
0.145145
0.182336
0.180489
0.118287
0.0504776
0.0179763
0.00661218
0.00377055
0.00343893
0.00467794
0.011148
0.0326509
0.0898111
0.210116
0.277201
0.293001
0.299943
0.330359
0.362802
0.346943
0.248674
0.146194
0.111429
0.095581
0.0855782
0.0768807
0.0625005
0.0511979
0.0461872
0.0391257
0.0346119
0.0336787
0.0332175
0.0320217
0.0329159
0.0343888
0.0339287
0.0321908
0.0318448
0.0324364
0.0366267
0.0541461
0.0653284
0.0669345
0.0659782
0.0611234
0.0507443
0.0448537
0.0400421
0.0339093
0.0257831
0.0175831
0.012428
0.0111316
0.0111148
0.0110114
0.0106151
0.0106415
0.0106951
0.0110017
0.0116412
0.0127872
0.0188321
0.0357471
0.0513475
0.0619223
0.0681327
0.0710832
0.0731246
0.0733954
0.0730462
0.0715282
0.0609156
0.0553462
0.0545069
0.0522114
0.0480346
0.0462188
0.0470251
0.0615014
0.0845448
0.0940169
0.0928615
0.0729108
0.0544906
0.0547158
0.0714796
0.0910956
0.106141
0.109403
0.106276
0.0912113
0.0599786
0.0354736
0.0238509
0.0200028
0.0195631
0.0203203
0.020971
0.0211982
0.0204971
0.0199154
0.020237
0.0211329
0.0247894
0.0295354
0.0324489
0.032647
0.0296734
0.028098
0.0283775
0.0302108
0.0533348
0.0978391
0.102637