/*--------------------------------*- C++ -*----------------------------------*\
| =========                 |                                                 |
| \\      /  F ield         | OpenFOAM: The Open Source CFD Toolbox           |
|  \\    /   O peration     | Version:  2.4.0                                 |
|   \\  /    A nd           | Web:      www.OpenFOAM.org                      |
|    \\/     M anipulation  |                                                 |
\*---------------------------------------------------------------------------*/
FoamFile
{
    version     2.0;
    format      ascii;
    class       surfaceScalarField;
    location    "0.23";
    object      phi;
}
// * * * * * * * * * * * * * * * * * * * * * * * * * * * * * * * * * * * * * //

dimensions      [0 3 -1 0 0 0 0];

internalField   nonuniform List<scalar> 
34880
(
5.48648e-06
7.01352e-06
3.12708e-06
2.3594e-06
2.46949e-06
6.5758e-07
2.21988e-06
2.49611e-07
2.07529e-06
1.44592e-07
1.9661e-06
1.09193e-07
1.88322e-06
8.28818e-08
1.82294e-06
6.02722e-08
1.77252e-06
5.04221e-08
1.72792e-06
4.45987e-08
1.70807e-06
1.98476e-08
1.66792e-06
4.01506e-08
1.64769e-06
2.02335e-08
1.61561e-06
3.20822e-08
1.59071e-06
2.49028e-08
1.59721e-06
-6.50093e-09
1.51943e-06
7.77797e-08
1.57137e-06
-5.19424e-08
1.36427e-06
2.07102e-07
-1.0213e-06
2.38556e-06
1.01102e-05
9.40333e-06
7.83143e-06
4.63816e-06
6.70524e-06
1.78377e-06
6.06479e-06
8.90058e-07
5.64637e-06
5.63017e-07
5.34308e-06
4.12482e-07
5.12212e-06
3.03838e-07
4.94516e-06
2.37237e-07
4.8041e-06
1.9148e-07
4.69222e-06
1.56479e-07
4.60535e-06
1.06718e-07
4.52357e-06
1.21929e-07
4.44411e-06
9.96941e-08
4.37912e-06
9.70688e-08
4.31704e-06
8.69867e-08
4.28029e-06
3.02489e-08
4.14565e-06
2.12418e-07
4.25167e-06
-1.57955e-07
3.97072e-06
4.8805e-07
-1.30688e-06
4.2563e-06
1.24269e-05
9.47643e-06
1.10036e-05
6.0615e-06
9.97532e-06
2.81201e-06
9.20345e-06
1.66192e-06
8.61966e-06
1.14681e-06
8.17974e-06
8.52408e-07
7.8601e-06
6.23473e-07
7.59224e-06
5.05101e-07
7.3805e-06
4.03219e-07
7.21738e-06
3.19595e-07
7.066e-06
2.58097e-07
6.96019e-06
2.27744e-07
6.82389e-06
2.35991e-07
6.73958e-06
1.8138e-07
6.64766e-06
1.78911e-07
6.5663e-06
1.11608e-07
6.41092e-06
3.67793e-07
6.51163e-06
-2.58664e-07
6.30441e-06
6.95271e-07
-1.28546e-06
6.28299e-06
1.3417e-05
8.5594e-06
1.28882e-05
6.59035e-06
1.23209e-05
3.37926e-06
1.17164e-05
2.26644e-06
1.1135e-05
1.72817e-06
1.06455e-05
1.34199e-06
1.02769e-05
9.92053e-07
9.95769e-06
8.24291e-07
9.69312e-06
6.67788e-07
9.50182e-06
5.10895e-07
9.29567e-06
4.64247e-07
9.17589e-06
3.47521e-07
8.99638e-06
4.155e-07
8.89007e-06
2.87699e-07
8.78967e-06
2.79303e-07
8.65815e-06
2.43136e-07
8.50677e-06
5.19165e-07
8.57293e-06
-3.24818e-07
8.42121e-06
8.46992e-07
-1.15074e-06
8.28649e-06
1.36002e-05
7.45921e-06
1.36605e-05
6.53002e-06
1.36183e-05
3.4215e-06
1.33992e-05
2.48551e-06
1.30195e-05
2.10792e-06
1.26116e-05
1.74989e-06
1.2273e-05
1.3306e-06
1.19673e-05
1.13001e-06
1.16828e-05
9.52278e-07
1.14975e-05
6.96204e-07
1.12592e-05
7.02584e-07
1.11378e-05
4.68879e-07
1.09406e-05
6.1269e-07
1.0807e-05
4.21288e-07
1.0724e-05
3.62367e-07
1.05447e-05
4.22355e-07
1.0408e-05
6.55855e-07
1.04495e-05
-3.66241e-07
1.03552e-05
9.41213e-07
-9.34436e-07
1.01389e-05
1.34997e-05
6.45947e-06
1.3758e-05
6.27172e-06
1.39939e-05
3.18564e-06
1.4139e-05
2.34039e-06
1.40774e-05
2.16952e-06
1.38898e-05
1.93754e-06
1.36829e-05
1.53751e-06
1.34864e-05
1.32644e-06
1.32406e-05
1.19812e-06
1.31084e-05
8.28449e-07
1.28782e-05
9.3272e-07
1.27708e-05
5.76348e-07
1.25957e-05
7.8774e-07
1.24374e-05
5.79615e-07
1.23934e-05
4.06293e-07
1.21877e-05
6.28055e-07
1.20614e-05
7.82184e-07
1.20995e-05
-4.04287e-07
1.20497e-05
9.91018e-07
-2.87249e-07
1.14025e-05
1.33892e-05
5.57023e-06
1.37089e-05
5.95205e-06
1.3939e-05
2.95551e-06
1.42115e-05
2.06794e-06
1.43689e-05
2.01213e-06
1.44102e-05
1.89624e-06
1.43659e-05
1.58177e-06
1.43616e-05
1.33073e-06
1.42238e-05
1.33596e-06
1.42014e-05
8.50791e-07
1.40451e-05
1.08905e-06
1.39776e-05
6.43839e-07
1.38729e-05
8.9244e-07
1.3712e-05
7.4055e-07
1.37216e-05
3.96662e-07
1.35271e-05
8.22564e-07
1.34148e-05
8.94525e-07
1.34704e-05
-4.59867e-07
1.34171e-05
1.04432e-06
4.76378e-07
1.26534e-05
1.32847e-05
4.78549e-06
1.37262e-05
5.5106e-06
1.38521e-05
2.82965e-06
1.4107e-05
1.81301e-06
1.4305e-05
1.81415e-06
1.44603e-05
1.7409e-06
1.44761e-05
1.56599e-06
1.4622e-05
1.1848e-06
1.4599e-05
1.35899e-06
1.46881e-05
7.61649e-07
1.46541e-05
1.12303e-06
1.46524e-05
6.45566e-07
1.46603e-05
8.84569e-07
1.45393e-05
8.61544e-07
1.46154e-05
3.20561e-07
1.44702e-05
9.67759e-07
1.44107e-05
9.54004e-07
1.45042e-05
-5.5333e-07
1.43896e-05
1.15889e-06
1.27618e-06
1.35898e-05
1.31786e-05
4.10691e-06
1.36708e-05
5.01838e-06
1.37843e-05
2.71614e-06
1.40298e-05
1.56756e-06
1.4204e-05
1.63995e-06
1.43981e-05
1.54681e-06
1.44048e-05
1.55927e-06
1.45823e-05
1.0073e-06
1.46315e-05
1.30979e-06
1.47517e-05
6.41422e-07
1.48091e-05
1.06558e-06
1.48471e-05
6.07614e-07
1.4939e-05
7.92671e-07
1.48854e-05
9.15103e-07
1.50133e-05
1.92704e-07
1.49267e-05
1.05435e-06
1.49707e-05
9.1002e-07
1.51126e-05
-6.9528e-07
1.49958e-05
1.27574e-06
7.29224e-07
1.55427e-05
1.30869e-05
3.52005e-06
1.35803e-05
4.52497e-06
1.37009e-05
2.59554e-06
1.39554e-05
1.31305e-06
1.41293e-05
1.46599e-06
1.43314e-05
1.3447e-06
1.43467e-05
1.54398e-06
1.44778e-05
8.76222e-07
1.45839e-05
1.20374e-06
1.4686e-05
5.39249e-07
1.47835e-05
9.68136e-07
1.48419e-05
5.49225e-07
1.49389e-05
6.95663e-07
1.49427e-05
9.1131e-07
1.5064e-05
7.13916e-08
1.50017e-05
1.11666e-06
1.51557e-05
7.56026e-07
1.52334e-05
-7.72974e-07
1.51626e-05
1.34648e-06
-6.57763e-08
1.59576e-05
1.30124e-05
3.00764e-06
1.35149e-05
4.0225e-06
1.3637e-05
2.47339e-06
1.38592e-05
1.09084e-06
1.40517e-05
1.27355e-06
1.42574e-05
1.13904e-06
1.42984e-05
1.50296e-06
1.43821e-05
7.92497e-07
1.45309e-05
1.05497e-06
1.46126e-05
4.57509e-07
1.46978e-05
8.82921e-07
1.47894e-05
4.57671e-07
1.48723e-05
6.12778e-07
1.49188e-05
8.64753e-07
1.50079e-05
-1.76897e-08
1.50169e-05
1.10762e-06
1.51484e-05
6.24519e-07
1.5034e-05
-6.58502e-07
1.52633e-05
1.11714e-06
-1.02542e-06
1.6223e-05
1.29636e-05
2.54402e-06
1.34714e-05
3.51473e-06
1.35858e-05
2.35897e-06
1.3778e-05
8.98612e-07
1.39896e-05
1.06198e-06
1.41725e-05
9.5618e-07
1.42312e-05
1.44419e-06
1.43266e-05
6.97137e-07
1.44758e-05
9.05756e-07
1.45353e-05
3.98053e-07
1.46113e-05
8.06923e-07
1.47116e-05
3.57353e-07
1.48174e-05
5.06926e-07
1.48457e-05
8.36488e-07
1.49172e-05
-8.91764e-08
1.50821e-05
9.42663e-07
1.50317e-05
6.7499e-07
1.4896e-05
-5.22809e-07
1.54999e-05
5.13186e-07
-1.52011e-06
1.59946e-05
1.2929e-05
2.11498e-06
1.34119e-05
3.03186e-06
1.35563e-05
2.21455e-06
1.37362e-05
7.18728e-07
1.39441e-05
8.54064e-07
1.40939e-05
8.06387e-07
1.41676e-05
1.37054e-06
1.42797e-05
5.85001e-07
1.44058e-05
7.79675e-07
1.4473e-05
3.30832e-07
1.45725e-05
7.07398e-07
1.46318e-05
2.98052e-07
1.47678e-05
3.70984e-07
1.47432e-05
8.61112e-07
1.48401e-05
-1.86063e-07
1.5082e-05
7.00724e-07
1.49158e-05
8.41217e-07
1.50063e-05
-6.13361e-07
1.56127e-05
-9.32253e-08
-1.20728e-06
1.52999e-05
1.28851e-05
1.72988e-06
1.33473e-05
2.56966e-06
1.35777e-05
1.98418e-06
1.3714e-05
5.82424e-07
1.38819e-05
6.86093e-07
1.40278e-05
6.60505e-07
1.41247e-05
1.27368e-06
1.42271e-05
4.82547e-07
1.43508e-05
6.55966e-07
1.44409e-05
2.40788e-07
1.45579e-05
5.90366e-07
1.45627e-05
2.93273e-07
1.46799e-05
2.53812e-07
1.46753e-05
8.65627e-07
1.48222e-05
-3.32919e-07
1.49784e-05
5.44575e-07
1.49062e-05
9.13355e-07
1.51732e-05
-8.80328e-07
1.54215e-05
-3.41568e-07
-5.58428e-07
1.47727e-05
1.28406e-05
1.38931e-06
1.33042e-05
2.10605e-06
1.35826e-05
1.7058e-06
1.36837e-05
4.81315e-07
1.38174e-05
5.52367e-07
1.39796e-05
4.98345e-07
1.40954e-05
1.15786e-06
1.41971e-05
3.80807e-07
1.43206e-05
5.3251e-07
1.44016e-05
1.59722e-07
1.45213e-05
4.70745e-07
1.45152e-05
2.99377e-07
1.45975e-05
1.71438e-07
1.46834e-05
7.79752e-07
1.47861e-05
-4.35635e-07
1.48631e-05
4.67632e-07
1.49678e-05
8.08666e-07
1.51628e-05
-1.07534e-06
1.50683e-05
-2.47112e-07
-1.84299e-07
1.46942e-05
1.28141e-05
1.07518e-06
1.32711e-05
1.64909e-06
1.3561e-05
1.41593e-06
1.36549e-05
3.87339e-07
1.37858e-05
4.21467e-07
1.39487e-05
3.35501e-07
1.40622e-05
1.04439e-06
1.41737e-05
2.69217e-07
1.42929e-05
4.13351e-07
1.43521e-05
1.00508e-07
1.44933e-05
3.2958e-07
1.44874e-05
3.0527e-07
1.45665e-05
9.23106e-08
1.46957e-05
6.50546e-07
1.46974e-05
-4.37321e-07
1.48159e-05
3.49188e-07
1.50127e-05
6.11851e-07
1.49716e-05
-1.03423e-06
1.48758e-05
-1.51402e-07
-3.37098e-07
1.50286e-05
1.27924e-05
7.82815e-07
1.32351e-05
1.2063e-06
1.35361e-05
1.11496e-06
1.36469e-05
2.76559e-07
1.37708e-05
2.97561e-07
1.39103e-05
1.95994e-07
1.40281e-05
9.26624e-07
1.41534e-05
1.43841e-07
1.42765e-05
2.90336e-07
1.43193e-05
5.7657e-08
1.44847e-05
1.64211e-07
1.44545e-05
3.35409e-07
1.45544e-05
-7.58962e-09
1.46646e-05
5.40399e-07
1.46421e-05
-4.14862e-07
1.48325e-05
1.58789e-07
1.49842e-05
4.60201e-07
1.47743e-05
-8.24353e-07
1.47567e-05
-1.33799e-07
4.10706e-07
1.40089e-05
1.27722e-05
5.10594e-07
1.32135e-05
7.65027e-07
1.35271e-05
8.01383e-07
1.36422e-05
1.61427e-07
1.37427e-05
1.97093e-07
1.38745e-05
6.41958e-08
1.40186e-05
7.82447e-07
1.41571e-05
5.33981e-09
1.42596e-05
1.87916e-07
1.42964e-05
2.08699e-08
1.44481e-05
1.24526e-08
1.44337e-05
3.49841e-07
1.45365e-05
-1.10444e-07
1.46574e-05
4.19571e-07
1.46362e-05
-3.93728e-07
1.48286e-05
-3.35872e-08
1.48692e-05
4.19612e-07
1.48265e-05
-7.81613e-07
1.50284e-05
-3.35741e-07
-2.39892e-07
1.5679e-05
1.27626e-05
2.47978e-07
1.32023e-05
3.25387e-07
1.35164e-05
4.87267e-07
1.36322e-05
4.55721e-08
1.37271e-05
1.02199e-07
1.38587e-05
-6.73333e-08
1.40227e-05
6.18377e-07
1.41512e-05
-1.23147e-07
1.42376e-05
1.01563e-07
1.42751e-05
-1.66894e-08
1.4421e-05
-1.33386e-07
1.44368e-05
3.34043e-07
1.45345e-05
-2.08207e-07
1.4651e-05
3.0306e-07
1.46485e-05
-3.91199e-07
1.47466e-05
-1.31666e-07
1.48351e-05
3.31084e-07
1.49146e-05
-8.61135e-07
1.50409e-05
-4.61992e-07
-6.03317e-07
1.54043e-05
1.27569e-05
-8.95016e-09
1.31893e-05
-1.06977e-07
1.35068e-05
1.6976e-07
1.364e-05
-8.76454e-08
1.37329e-05
9.26877e-09
1.38426e-05
-1.77022e-07
1.4011e-05
4.50008e-07
1.41409e-05
-2.53053e-07
1.42318e-05
1.06496e-08
1.4281e-05
-6.58662e-08
1.44082e-05
-2.60634e-07
1.44491e-05
2.93145e-07
1.45149e-05
-2.74004e-07
1.46553e-05
1.62742e-07
1.46208e-05
-3.56721e-07
1.47078e-05
-2.18706e-07
1.4871e-05
1.67947e-07
1.4934e-05
-9.24151e-07
1.49824e-05
-5.10459e-07
-1.00071e-06
1.53798e-05
1.27529e-05
-2.61804e-07
1.3187e-05
-5.41094e-07
1.3514e-05
-1.5726e-07
1.36535e-05
-2.27123e-07
1.37297e-05
-6.69694e-08
1.38188e-05
-2.66071e-07
1.40149e-05
2.53814e-07
1.41488e-05
-3.86902e-07
1.42378e-05
-7.83803e-08
1.42898e-05
-1.17848e-07
1.43923e-05
-3.63088e-07
1.44448e-05
2.40601e-07
1.4517e-05
-3.46178e-07
1.46537e-05
2.60466e-08
1.46045e-05
-3.07524e-07
1.47334e-05
-3.47579e-07
1.49032e-05
-1.85044e-09
1.48655e-05
-8.86498e-07
1.50141e-05
-6.59023e-07
-1.45958e-06
1.54729e-05
1.27596e-05
-5.2136e-07
1.31986e-05
-9.8016e-07
1.35251e-05
-4.83779e-07
1.36502e-05
-3.52165e-07
1.37192e-05
-1.35981e-07
1.38258e-05
-3.72712e-07
1.40446e-05
3.50375e-08
1.41478e-05
-4.90057e-07
1.42357e-05
-1.66308e-07
1.4297e-05
-1.79112e-07
1.43852e-05
-4.51305e-07
1.44548e-05
1.70963e-07
1.45494e-05
-4.40761e-07
1.46235e-05
-4.80717e-08
1.46322e-05
-3.16249e-07
1.47549e-05
-4.70265e-07
1.48943e-05
-1.412e-07
1.48072e-05
-7.9941e-07
1.48714e-05
-7.23266e-07
-4.78357e-07
1.38902e-05
1.27747e-05
-7.96065e-07
1.32124e-05
-1.41781e-06
1.35348e-05
-8.06185e-07
1.36448e-05
-4.62201e-07
1.3727e-05
-2.18143e-07
1.38621e-05
-5.07874e-07
1.40574e-05
-1.60221e-07
1.41436e-05
-5.76327e-07
1.42401e-05
-2.62748e-07
1.43224e-05
-2.61452e-07
1.43893e-05
-5.18203e-07
1.44992e-05
6.10638e-08
1.45351e-05
-4.76629e-07
1.46313e-05
-1.44264e-07
1.46565e-05
-3.41452e-07
1.47738e-05
-5.87607e-07
1.48434e-05
-2.1073e-07
1.48815e-05
-8.37572e-07
1.50774e-05
-9.19104e-07
-7.98991e-07
1.5398e-05
1.27928e-05
-1.0889e-06
1.32322e-05
-1.85721e-06
1.35513e-05
-1.1252e-06
1.36452e-05
-5.56156e-07
1.37566e-05
-3.2957e-07
1.38917e-05
-6.42985e-07
1.40559e-05
-3.24384e-07
1.4158e-05
-6.78391e-07
1.427e-05
-3.7473e-07
1.43432e-05
-3.34677e-07
1.44139e-05
-5.88878e-07
1.45242e-05
-4.92321e-08
1.45321e-05
-4.84606e-07
1.4654e-05
-2.66137e-07
1.46977e-05
-3.8518e-07
1.47646e-05
-6.54506e-07
1.48481e-05
-2.94188e-07
1.49598e-05
-9.49243e-07
1.50613e-05
-1.02066e-06
-9.53557e-07
1.52159e-05
1.28162e-05
-1.40507e-06
1.32641e-05
-2.30517e-06
1.357e-05
-1.43108e-06
1.36536e-05
-6.3978e-07
1.37948e-05
-4.70756e-07
1.39125e-05
-7.60677e-07
1.40676e-05
-4.79434e-07
1.4202e-05
-8.12861e-07
1.4291e-05
-4.63675e-07
1.4367e-05
-4.10748e-07
1.44441e-05
-6.65982e-07
1.45399e-05
-1.4496e-07
1.45556e-05
-5.00362e-07
1.46984e-05
-4.08892e-07
1.47134e-05
-4.00183e-07
1.47762e-05
-7.173e-07
1.4891e-05
-4.08978e-07
1.49874e-05
-1.0457e-06
1.50435e-05
-1.07669e-06
-1.11379e-06
1.52037e-05
1.28486e-05
-1.75368e-06
1.33015e-05
-2.75805e-06
1.35888e-05
-1.71841e-06
1.36764e-05
-7.27371e-07
1.3835e-05
-6.29324e-07
1.39367e-05
-8.62414e-07
1.41056e-05
-6.48346e-07
1.42425e-05
-9.49774e-07
1.43039e-05
-5.25042e-07
1.44023e-05
-5.09169e-07
1.44822e-05
-7.45848e-07
1.45635e-05
-2.26241e-07
1.46079e-05
-5.44785e-07
1.4718e-05
-5.19032e-07
1.47385e-05
-4.20652e-07
1.48143e-05
-7.93118e-07
1.49353e-05
-5.29959e-07
1.49807e-05
-1.09105e-06
1.51027e-05
-1.1987e-06
-1.47922e-06
1.54681e-05
1.28886e-05
-2.14231e-06
1.33437e-05
-3.21309e-06
1.36124e-05
-1.98713e-06
1.37109e-05
-8.25879e-07
1.38715e-05
-7.89954e-07
1.39762e-05
-9.67122e-07
1.41522e-05
-8.24353e-07
1.4268e-05
-1.06558e-06
1.43349e-05
-5.91887e-07
1.44569e-05
-6.31182e-07
1.45256e-05
-8.14499e-07
1.46043e-05
-3.0502e-07
1.46581e-05
-5.98581e-07
1.47255e-05
-5.86443e-07
1.47897e-05
-4.84769e-07
1.48514e-05
-8.54828e-07
1.49807e-05
-6.59288e-07
1.49996e-05
-1.10994e-06
1.49929e-05
-1.19199e-06
-5.12563e-07
1.40262e-05
1.29354e-05
-2.57773e-06
1.3393e-05
-3.67063e-06
1.36083e-05
-2.20249e-06
1.37461e-05
-9.63613e-07
1.39102e-05
-9.54094e-07
1.40308e-05
-1.08774e-06
1.41964e-05
-9.89913e-07
1.43114e-05
-1.18058e-06
1.43946e-05
-6.75125e-07
1.45185e-05
-7.5511e-07
1.45653e-05
-8.61234e-07
1.46585e-05
-3.98248e-07
1.46785e-05
-6.18541e-07
1.47726e-05
-6.80549e-07
1.48283e-05
-5.40531e-07
1.49146e-05
-9.41101e-07
1.50013e-05
-7.45998e-07
1.50911e-05
-1.19971e-06
1.52109e-05
-1.31183e-06
-9.26813e-07
1.56252e-05
1.29912e-05
-3.0689e-06
1.3449e-05
-4.12843e-06
1.36156e-05
-2.36917e-06
1.37746e-05
-1.1226e-06
1.39621e-05
-1.14153e-06
1.40957e-05
-1.22141e-06
1.42579e-05
-1.15206e-06
1.4377e-05
-1.29973e-06
1.4467e-05
-7.65108e-07
1.45632e-05
-8.51257e-07
1.46121e-05
-9.10217e-07
1.46888e-05
-4.74912e-07
1.47197e-05
-6.49399e-07
1.48259e-05
-7.86792e-07
1.48858e-05
-6.00416e-07
1.49739e-05
-1.02923e-06
1.50415e-05
-8.13599e-07
1.51731e-05
-1.33128e-06
1.52376e-05
-1.37632e-06
-1.2218e-06
1.55326e-05
1.30526e-05
-3.62149e-06
1.35045e-05
-4.58034e-06
1.36346e-05
-2.49926e-06
1.38102e-05
-1.29822e-06
1.40343e-05
-1.36557e-06
1.41789e-05
-1.36609e-06
1.43391e-05
-1.31219e-06
1.44522e-05
-1.4129e-06
1.45255e-05
-8.38362e-07
1.45959e-05
-9.21683e-07
1.46568e-05
-9.71135e-07
1.47207e-05
-5.38785e-07
1.47888e-05
-7.17457e-07
1.48849e-05
-8.82972e-07
1.49643e-05
-6.79762e-07
1.50327e-05
-1.0976e-06
1.50998e-05
-8.80706e-07
1.52054e-05
-1.43691e-06
1.52538e-05
-1.42478e-06
-1.52689e-06
1.55589e-05
1.31119e-05
-4.2334e-06
1.35554e-05
-5.02381e-06
1.36617e-05
-2.60561e-06
1.38778e-05
-1.51431e-06
1.41365e-05
-1.62431e-06
1.42815e-05
-1.51108e-06
1.44249e-05
-1.45559e-06
1.45156e-05
-1.50352e-06
1.45698e-05
-8.9264e-07
1.46361e-05
-9.87977e-07
1.47101e-05
-1.04513e-06
1.47842e-05
-6.12884e-07
1.48723e-05
-8.05574e-07
1.49512e-05
-9.61873e-07
1.50298e-05
-7.58277e-07
1.50637e-05
-1.13158e-06
1.51127e-05
-9.2963e-07
1.51626e-05
-1.4868e-06
1.51876e-05
-1.44985e-06
-1.81948e-06
1.54802e-05
1.31718e-05
-4.9052e-06
1.36086e-05
-5.46063e-06
1.37226e-05
-2.71961e-06
1.39937e-05
-1.78543e-06
1.42552e-05
-1.88577e-06
1.43801e-05
-1.63597e-06
1.45001e-05
-1.57558e-06
1.45636e-05
-1.56709e-06
1.46194e-05
-9.48362e-07
1.4693e-05
-1.06163e-06
1.4761e-05
-1.11316e-06
1.48304e-05
-6.82226e-07
1.48931e-05
-8.68307e-07
1.49218e-05
-9.90574e-07
1.49573e-05
-7.93767e-07
1.49285e-05
-1.10275e-06
1.49326e-05
-9.338e-07
1.48729e-05
-1.42701e-06
1.4845e-05
-1.42197e-06
-2.06608e-06
1.50916e-05
1.32458e-05
-5.65095e-06
1.36702e-05
-5.8851e-06
1.3828e-05
-2.8774e-06
1.41327e-05
-2.09014e-06
1.43541e-05
-2.10714e-06
1.44586e-05
-1.74046e-06
1.45485e-05
-1.66547e-06
1.45672e-05
-1.58574e-06
1.46146e-05
-9.95802e-07
1.46409e-05
-1.08797e-06
1.46307e-05
-1.10293e-06
1.46427e-05
-6.94212e-07
1.46198e-05
-8.45452e-07
1.45596e-05
-9.30364e-07
1.45191e-05
-7.53205e-07
1.44115e-05
-9.95168e-07
1.43438e-05
-8.66093e-07
1.41802e-05
-1.26346e-06
1.4008e-05
-1.24977e-06
-1.3139e-06
1.32558e-05
1.33461e-05
-6.497e-06
1.36869e-05
-6.22594e-06
1.39557e-05
-3.14625e-06
1.42476e-05
-2.38199e-06
1.43815e-05
-2.24101e-06
1.44216e-05
-1.78062e-06
1.44017e-05
-1.64552e-06
1.43007e-05
-1.48482e-06
1.42559e-05
-9.51002e-07
1.41582e-05
-9.90194e-07
1.40285e-05
-9.73268e-07
1.39563e-05
-6.2197e-07
1.38395e-05
-7.28729e-07
1.37025e-05
-7.93357e-07
1.35971e-05
-6.47746e-07
1.34369e-05
-8.34996e-07
1.33075e-05
-7.36675e-07
1.30984e-05
-1.05434e-06
1.29355e-05
-1.08694e-06
-1.32329e-06
1.29449e-05
1.34755e-05
-7.47246e-06
1.37583e-05
-6.50875e-06
1.40107e-05
-3.39871e-06
1.4155e-05
-2.52626e-06
1.40667e-05
-2.15265e-06
1.39105e-05
-1.62448e-06
1.3691e-05
-1.42597e-06
1.34352e-05
-1.2291e-06
1.32716e-05
-7.8739e-07
1.30691e-05
-7.87632e-07
1.28637e-05
-7.67867e-07
1.27376e-05
-4.95953e-07
1.25708e-05
-5.61891e-07
1.23977e-05
-6.20251e-07
1.2261e-05
-5.11086e-07
1.20765e-05
-6.5048e-07
1.19188e-05
-5.78943e-07
1.16895e-05
-8.25098e-07
1.14624e-05
-8.59796e-07
-8.46059e-07
1.09852e-05
1.35887e-05
-8.56116e-06
1.36653e-05
-6.58537e-06
1.36293e-05
-3.36273e-06
1.34033e-05
-2.30021e-06
1.30028e-05
-1.75214e-06
1.26343e-05
-1.256e-06
1.22663e-05
-1.05795e-06
1.19282e-05
-8.91028e-07
1.17067e-05
-5.65943e-07
1.1466e-05
-5.46918e-07
1.12423e-05
-5.44179e-07
1.10989e-05
-3.52506e-07
1.09209e-05
-3.83929e-07
1.07436e-05
-4.42935e-07
1.05989e-05
-3.66349e-07
1.04116e-05
-4.63252e-07
1.02481e-05
-4.15364e-07
1.00155e-05
-5.9249e-07
9.7979e-06
-6.42232e-07
-5.25428e-07
9.47727e-06
1.34127e-05
-9.47384e-06
1.28924e-05
-6.06504e-06
1.23281e-05
-2.7985e-06
1.17141e-05
-1.68618e-06
1.11206e-05
-1.15862e-06
1.06662e-05
-8.01603e-07
1.02651e-05
-6.56903e-07
9.92911e-06
-5.54993e-07
9.70745e-06
-3.44282e-07
9.48023e-06
-3.19705e-07
9.27439e-06
-3.38333e-07
9.13791e-06
-2.16032e-07
8.97713e-06
-2.23148e-07
8.81528e-06
-2.81084e-07
8.67822e-06
-2.29291e-07
8.50654e-06
-2.91567e-07
8.35188e-06
-2.60706e-07
8.13857e-06
-3.79177e-07
7.92358e-06
-4.27239e-07
-3.08218e-07
7.70636e-06
1.24265e-05
-9.40037e-06
1.10057e-05
-4.64417e-06
9.98047e-06
-1.77331e-06
9.1986e-06
-9.0432e-07
8.60889e-06
-5.68911e-07
8.19539e-06
-3.88099e-07
7.85047e-06
-3.11986e-07
7.56988e-06
-2.74407e-07
7.38651e-06
-1.60912e-07
7.2074e-06
-1.40592e-07
7.03975e-06
-1.70684e-07
6.92757e-06
-1.03854e-07
6.80291e-06
-9.84853e-08
6.66788e-06
-1.46059e-07
6.5522e-06
-1.13609e-07
6.40972e-06
-1.49089e-07
6.27834e-06
-1.2932e-07
6.09807e-06
-1.98904e-07
5.90037e-06
-2.29542e-07
-1.39241e-07
5.73139e-06
1.01115e-05
-7.01189e-06
7.83064e-06
-2.3633e-06
6.70966e-06
-6.52331e-07
6.06025e-06
-2.54907e-07
5.63816e-06
-1.46819e-07
5.3524e-06
-1.02341e-07
5.12004e-06
-7.96234e-08
4.9249e-06
-7.92673e-08
4.80529e-06
-4.1308e-08
4.69408e-06
-2.93758e-08
4.57587e-06
-5.24727e-08
4.50097e-06
-2.89569e-08
4.42356e-06
-2.10714e-08
4.32405e-06
-4.65481e-08
4.24305e-06
-3.26165e-08
4.14021e-06
-4.62422e-08
4.04727e-06
-3.63783e-08
3.91215e-06
-6.37896e-08
3.75714e-06
-7.45278e-08
-3.67589e-08
3.65466e-06
5.48811e-06
3.12481e-06
2.47248e-06
2.21757e-06
2.07075e-06
1.96841e-06
1.88879e-06
1.80952e-06
1.76822e-06
1.73884e-06
1.68637e-06
1.65741e-06
1.63634e-06
1.58979e-06
1.55717e-06
1.51093e-06
1.47455e-06
1.41076e-06
1.33624e-06
1.29948e-06
2.83651e-06
-3.93282e-09
-4.47012e-07
2.58179e-06
-6.46864e-07
9.01586e-07
2.4679e-06
-1.90613e-06
2.02002e-06
2.23418e-06
-1.78891e-06
2.02263e-06
1.64715e-06
-1.71803e-06
2.30506e-06
2.15994e-06
-1.21813e-06
7.05344e-07
3.47425e-06
-1.62739e-07
-1.15158e-06
4.54952e-06
3.42827e-06
-4.50354e-06
5.80885e-06
5.60841e-06
-6.86774e-06
6.56451e-06
6.23472e-06
-6.99038e-06
7.70703e-06
7.47674e-06
-8.61926e-06
8.60601e-06
5.62445e-06
-6.52343e-06
8.85461e-06
5.5233e-06
-5.7719e-06
9.32672e-06
5.62737e-06
-6.09948e-06
1.01043e-05
5.09421e-06
-5.87178e-06
1.09446e-05
2.90311e-06
-3.74339e-06
1.16999e-05
2.10006e-06
-2.85542e-06
1.23741e-05
1.16443e-06
-1.83859e-06
1.28336e-05
-1.78235e-06
1.32285e-06
1.32761e-05
-3.37768e-06
2.93517e-06
1.35094e-05
-5.20643e-06
4.97319e-06
1.30699e-05
-6.97625e-06
7.41568e-06
1.27637e-05
-8.88877e-06
9.19502e-06
1.28641e-05
-1.08871e-05
1.07867e-05
1.36408e-05
-1.15861e-05
1.08094e-05
1.51351e-05
-1.41731e-05
1.26788e-05
1.62078e-05
-1.74249e-05
1.63522e-05
1.64588e-05
-1.92405e-05
1.89895e-05
1.61078e-05
-2.0804e-05
2.1155e-05
1.53091e-05
-2.10477e-05
2.18464e-05
1.45846e-05
-2.03262e-05
2.10507e-05
1.40297e-05
-2.06396e-05
2.11944e-05
1.33979e-05
-2.03293e-05
2.09611e-05
1.2887e-05
-1.93593e-05
1.98702e-05
1.26446e-05
-1.9616e-05
1.98584e-05
1.24303e-05
-1.9565e-05
1.97793e-05
1.20457e-05
-1.91584e-05
1.95431e-05
1.2036e-05
-1.90339e-05
1.90436e-05
1.2457e-05
-1.90986e-05
1.86775e-05
1.27928e-05
-2.00977e-05
1.9762e-05
1.31186e-05
-2.02611e-05
1.99354e-05
1.34013e-05
-1.93579e-05
1.90751e-05
1.37032e-05
-1.89436e-05
1.86417e-05
1.41612e-05
-1.80691e-05
1.76111e-05
1.44826e-05
-1.64086e-05
1.60871e-05
1.48466e-05
-1.46598e-05
1.42958e-05
1.52393e-05
-1.22676e-05
1.18749e-05
1.5274e-05
-9.57941e-06
9.54468e-06
1.51641e-05
-6.67692e-06
6.78687e-06
1.50407e-05
-3.3293e-06
3.45269e-06
1.45806e-05
-1.83076e-07
6.43128e-07
1.3887e-05
2.32909e-06
-1.63544e-06
1.33356e-05
4.71299e-06
-4.16163e-06
1.28673e-05
6.5896e-06
-6.12121e-06
1.22135e-05
8.67322e-06
-8.01944e-06
1.1355e-05
1.02949e-05
-9.43641e-06
1.05092e-05
9.63476e-06
-8.78894e-06
9.71326e-06
8.39735e-06
-7.60145e-06
9.01292e-06
7.89539e-06
-7.19505e-06
8.53175e-06
7.30083e-06
-6.81966e-06
8.20185e-06
5.32469e-06
-4.99478e-06
7.89837e-06
3.11545e-06
-2.81197e-06
7.56825e-06
2.45144e-06
-2.12133e-06
7.17543e-06
2.39244e-06
-1.99963e-06
6.76878e-06
2.79484e-06
-2.38819e-06
6.30385e-06
4.6572e-06
-4.19227e-06
5.93819e-06
7.70157e-06
-7.33591e-06
5.8959e-06
1.20848e-05
-1.20425e-05
6.12754e-06
1.70227e-05
-1.72543e-05
6.42055e-06
2.08447e-05
-2.11377e-05
6.75047e-06
2.27939e-05
-2.31238e-05
6.97463e-06
2.34256e-05
-2.36498e-05
7.13615e-06
2.37033e-05
-2.38648e-05
7.58495e-06
2.32809e-05
-2.37297e-05
8.26241e-06
2.27098e-05
-2.33872e-05
8.78492e-06
2.31534e-05
-2.36759e-05
9.24509e-06
2.32413e-05
-2.37015e-05
9.66664e-06
2.13966e-05
-2.18182e-05
9.59452e-06
1.88757e-05
-1.88036e-05
9.39856e-06
1.59994e-05
-1.58035e-05
9.71782e-06
1.19983e-05
-1.23176e-05
1.01684e-05
8.70596e-06
-9.15651e-06
1.03219e-05
7.55396e-06
-7.7075e-06
1.03086e-05
6.05477e-06
-6.04148e-06
1.03714e-05
1.11296e-06
-1.17571e-06
1.05236e-05
-5.20295e-06
5.05069e-06
1.06132e-05
-1.03008e-05
1.02113e-05
1.05758e-05
-1.60908e-05
1.61281e-05
1.04336e-05
-2.21709e-05
2.23131e-05
1.01291e-05
-2.56177e-05
2.59222e-05
9.74593e-06
-2.73877e-05
2.77709e-05
9.45377e-06
-2.92036e-05
2.94958e-05
9.07764e-06
-2.98969e-05
3.02731e-05
8.53342e-06
-2.74693e-05
2.80135e-05
7.97006e-06
-2.21842e-05
2.27476e-05
7.57403e-06
-1.78488e-05
1.82448e-05
7.44046e-06
-1.72147e-05
1.73483e-05
7.66818e-06
-1.88007e-05
1.8573e-05
8.21715e-06
-2.03648e-05
1.98158e-05
8.81095e-06
-2.05261e-05
1.99323e-05
9.38986e-06
-1.94617e-05
1.88828e-05
1.00556e-05
-1.85673e-05
1.79016e-05
1.06828e-05
-1.84219e-05
1.77946e-05
1.11672e-05
-1.92268e-05
1.87424e-05
1.15592e-05
-1.91087e-05
1.87167e-05
1.19354e-05
-1.67685e-05
1.63923e-05
1.22585e-05
-1.44128e-05
1.40896e-05
1.2429e-05
-1.35604e-05
1.33899e-05
1.23185e-05
-1.2633e-05
1.27435e-05
1.20645e-05
-1.01463e-05
1.04004e-05
1.19235e-05
-7.40199e-06
7.54292e-06
1.19588e-05
-4.81581e-06
4.78055e-06
1.2136e-05
-1.23191e-06
1.05475e-06
1.21526e-05
2.41627e-06
-2.43285e-06
1.18654e-05
5.43372e-06
-5.14653e-06
1.15432e-05
8.44032e-06
-8.11815e-06
1.14237e-05
1.16882e-05
-1.15687e-05
1.13188e-05
1.59035e-05
-1.57987e-05
1.10668e-05
1.93352e-05
-1.90832e-05
1.08415e-05
2.00422e-05
-1.9817e-05
1.05179e-05
2.10852e-05
-2.07615e-05
1.03522e-05
2.06999e-05
-2.05342e-05
1.02416e-05
2.09464e-05
-2.08358e-05
1.01357e-05
2.22953e-05
-2.21894e-05
1.01385e-05
2.28072e-05
-2.281e-05
1.01069e-05
2.49726e-05
-2.4941e-05
9.71582e-06
2.76893e-05
-2.72982e-05
8.96341e-06
2.4843e-05
-2.40906e-05
8.35299e-06
1.89025e-05
-1.82921e-05
8.4754e-06
1.73457e-05
-1.74681e-05
8.89943e-06
2.0629e-05
-2.10531e-05
9.01516e-06
2.34755e-05
-2.35913e-05
8.7726e-06
2.41867e-05
-2.39441e-05
8.41562e-06
2.34036e-05
-2.30466e-05
8.01333e-06
2.21148e-05
-2.17125e-05
7.72812e-06
2.01032e-05
-1.9818e-05
7.64416e-06
1.8549e-05
-1.8465e-05
7.65575e-06
1.57946e-05
-1.58061e-05
7.8534e-06
1.17237e-05
-1.19214e-05
7.98599e-06
8.19556e-06
-8.32816e-06
7.55963e-06
4.53358e-06
-4.10721e-06
7.23507e-06
3.34712e-07
-1.01543e-08
7.11149e-06
-5.68218e-06
5.80576e-06
7.007e-06
-8.63146e-06
8.73595e-06
7.00401e-06
-9.27098e-06
9.27396e-06
7.38123e-06
-9.92651e-06
9.5493e-06
7.83605e-06
-1.26336e-05
1.21788e-05
8.32767e-06
-1.6353e-05
1.58614e-05
8.57419e-06
-2.05356e-05
2.02891e-05
9.07613e-06
-2.22555e-05
2.17535e-05
9.11511e-06
-2.26862e-05
2.26472e-05
9.27543e-06
-2.15675e-05
2.14072e-05
9.47532e-06
-2.00175e-05
1.98176e-05
9.33189e-06
-1.7409e-05
1.75524e-05
9.33189e-06
-1.58812e-05
1.58812e-05
9.41331e-06
-1.28774e-05
1.27959e-05
9.03186e-06
-1.17391e-05
1.21206e-05
8.89514e-06
-7.83577e-06
7.9725e-06
8.68241e-06
-8.52287e-06
8.7356e-06
8.30011e-06
-6.81604e-06
7.19833e-06
8.01899e-06
-7.29935e-06
7.58047e-06
7.86583e-06
-4.23807e-06
4.39123e-06
7.8798e-06
-6.32872e-06
6.31476e-06
7.50755e-06
-5.90994e-06
6.28218e-06
7.8994e-06
-6.96403e-06
6.57218e-06
8.09985e-06
-6.91437e-06
6.71392e-06
8.61935e-06
-8.78272e-06
8.26323e-06
8.96642e-06
-8.94702e-06
8.59994e-06
9.37722e-06
-7.38758e-06
6.97679e-06
9.95945e-06
-6.07131e-06
5.48908e-06
1.01768e-05
-6.43925e-06
6.22191e-06
1.05257e-05
-6.14868e-06
5.79979e-06
1.09906e-05
-4.6442e-06
4.17927e-06
1.10061e-05
-3.58035e-06
3.56491e-06
1.10927e-05
-3.50076e-06
3.41415e-06
1.13866e-05
-1.93648e-06
1.64252e-06
1.16565e-05
3.46471e-07
-6.16318e-07
1.19043e-05
2.82247e-06
-3.07031e-06
1.24258e-05
4.61132e-06
-5.13284e-06
1.29965e-05
5.7554e-06
-6.32608e-06
1.37861e-05
6.42499e-06
-7.21462e-06
1.45462e-05
7.6525e-06
-8.41253e-06
1.48239e-05
1.03247e-05
-1.06024e-05
1.42209e-05
1.15661e-05
-1.09631e-05
1.32713e-05
1.06531e-05
-9.70356e-06
1.25798e-05
9.29943e-06
-8.6079e-06
1.25215e-05
9.33551e-06
-9.27719e-06
1.24361e-05
1.25428e-05
-1.24574e-05
1.19796e-05
1.56272e-05
-1.51708e-05
1.14593e-05
1.81102e-05
-1.75899e-05
1.07707e-05
2.00621e-05
-1.93735e-05
1.00201e-05
2.15628e-05
-2.08122e-05
9.43901e-06
2.18457e-05
-2.12646e-05
8.98268e-06
2.28731e-05
-2.24168e-05
8.43659e-06
2.42741e-05
-2.3728e-05
7.69986e-06
2.44009e-05
-2.36642e-05
6.60726e-06
2.37878e-05
-2.26952e-05
5.54048e-06
2.41237e-05
-2.30569e-05
5.15572e-06
2.58305e-05
-2.54458e-05
3.44104e-05
-3.40692e-05
4.81452e-06
4.79497e-06
-5.42609e-07
4.68657e-06
-5.38462e-07
4.36041e-06
-1.57997e-06
4.47881e-06
-1.90731e-06
4.15189e-06
-1.3911e-06
3.86513e-06
-9.31365e-07
4.05431e-06
-3.51921e-07
4.89725e-06
2.58533e-06
6.4794e-06
4.02626e-06
7.55216e-06
5.16196e-06
8.83961e-06
6.18929e-06
9.59978e-06
4.86427e-06
9.95923e-06
5.16385e-06
1.04314e-05
5.15519e-06
1.10765e-05
4.44909e-06
1.19352e-05
2.04442e-06
1.25938e-05
1.44153e-06
1.32163e-05
5.4185e-07
1.35032e-05
-2.06923e-06
1.34154e-05
-3.28991e-06
1.32607e-05
-5.05166e-06
1.30434e-05
-6.75897e-06
1.33254e-05
-9.17075e-06
1.39459e-05
-1.15077e-05
1.5087e-05
-1.27273e-05
1.64082e-05
-1.54943e-05
1.69161e-05
-1.79328e-05
1.67214e-05
-1.90458e-05
1.61039e-05
-2.01865e-05
1.52194e-05
-2.01632e-05
1.45583e-05
-1.96651e-05
1.39939e-05
-2.00752e-05
1.33347e-05
-1.967e-05
1.28871e-05
-1.89117e-05
1.27075e-05
-1.94365e-05
1.24821e-05
-1.93395e-05
1.2146e-05
-1.88223e-05
1.22154e-05
-1.91034e-05
1.26188e-05
-1.95019e-05
1.28297e-05
-2.03086e-05
1.30294e-05
-2.04608e-05
1.3284e-05
-1.96125e-05
1.35881e-05
-1.92477e-05
1.40863e-05
-1.85672e-05
1.44628e-05
-1.6785e-05
1.48311e-05
-1.50281e-05
1.52261e-05
-1.26626e-05
1.52468e-05
-9.6001e-06
1.50684e-05
-6.49853e-06
1.49354e-05
-3.19629e-06
1.45094e-05
2.42978e-07
1.37767e-05
3.06176e-06
1.31343e-05
5.35543e-06
1.25993e-05
7.12455e-06
1.19282e-05
9.34436e-06
1.11086e-05
1.11145e-05
1.03055e-05
1.04379e-05
9.51101e-06
9.19179e-06
8.78997e-06
8.61643e-06
8.32742e-06
7.76338e-06
8.01844e-06
5.63368e-06
7.70148e-06
3.43241e-06
7.39082e-06
2.7621e-06
7.00761e-06
2.77566e-06
6.60206e-06
3.20039e-06
6.19826e-06
5.061e-06
5.86992e-06
8.02991e-06
5.84457e-06
1.21102e-05
6.12286e-06
1.67444e-05
6.51121e-06
2.04563e-05
6.91243e-06
2.23927e-05
7.18147e-06
2.31566e-05
7.42584e-06
2.34589e-05
7.951e-06
2.27557e-05
8.65689e-06
2.20039e-05
9.20386e-06
2.26064e-05
9.74281e-06
2.27024e-05
1.0213e-05
2.09264e-05
1.01161e-05
1.89726e-05
9.94182e-06
1.61737e-05
1.0208e-05
1.17321e-05
1.0551e-05
8.36302e-06
1.07025e-05
7.40244e-06
1.08065e-05
5.95074e-06
1.09633e-05
9.56189e-07
1.10781e-05
-5.31775e-06
1.11103e-05
-1.0333e-05
1.10451e-05
-1.60256e-05
1.08758e-05
-2.20016e-05
1.05227e-05
-2.52646e-05
1.00949e-05
-2.69599e-05
9.73927e-06
-2.8848e-05
9.29883e-06
-2.94565e-05
8.67322e-06
-2.68437e-05
8.04411e-06
-2.15551e-05
7.60016e-06
-1.74048e-05
7.44909e-06
-1.70636e-05
7.63159e-06
-1.89832e-05
8.11563e-06
-2.08489e-05
8.66401e-06
-2.10745e-05
9.25847e-06
-2.00561e-05
9.94193e-06
-1.92508e-05
1.05775e-05
-1.90574e-05
1.10102e-05
-1.96596e-05
1.12993e-05