/*--------------------------------*- C++ -*----------------------------------*\
| =========                 |                                                 |
| \\      /  F ield         | OpenFOAM: The Open Source CFD Toolbox           |
|  \\    /   O peration     | Version:  2.4.0                                 |
|   \\  /    A nd           | Web:      www.OpenFOAM.org                      |
|    \\/     M anipulation  |                                                 |
\*---------------------------------------------------------------------------*/
FoamFile
{
    version     2.0;
    format      ascii;
    class       volScalarField;
    location    "0.006";
    object      pMean;
}
// * * * * * * * * * * * * * * * * * * * * * * * * * * * * * * * * * * * * * //

dimensions      [0 2 -2 0 0 0 0];

internalField   nonuniform List<scalar> 
17600
(
47.1828
46.1946
45.7531
45.4516
45.134
44.8054
44.4838
44.1679
43.8543
43.5441
43.238
42.9353
42.6376
42.3444
42.058
41.7798
41.5136
41.2676
41.0465
40.9847
46.6402
46.0071
45.6672
45.4065
45.1099
44.7925
44.477
44.1643
43.8526
43.5436
43.2381
42.9359
42.6385
42.3456
42.0593
41.7811
41.5149
41.2686
41.0468
40.936
46.6039
46.0814
45.7209
45.4376
45.1286
44.8041
44.4844
44.1691
43.8559
43.5461
43.2403
42.9379
42.6404
42.3475
42.0612
41.783
41.5164
41.2691
41.0433
40.9089
46.581
46.086
45.7147
45.4268
45.1198
44.7981
44.4806
44.1669
43.8548
43.5457
43.2404
42.9382
42.6409
42.348
42.0615
41.783
41.5156
41.2667
41.0359
40.88
46.5488
46.0793
45.7116
45.4234
45.1181
44.798
44.4812
44.1677
43.8557
43.5467
43.2412
42.939
42.6416
42.3485
42.0618
41.7828
41.5145
41.2634
41.0268
40.8518
46.5157
46.0725
45.7105
45.4213
45.1166
44.7974
44.4811
44.1679
43.856
43.5471
43.2417
42.9395
42.642
42.3488
42.0619
41.7823
41.5128
41.2593
41.0169
40.8248
46.4864
46.0666
45.7099
45.4194
45.1152
44.7969
44.4811
44.1681
43.8564
43.5476
43.2422
42.94
42.6424
42.349
42.0617
41.7816
41.5108
41.2547
41.0063
40.7991
46.4604
46.0605
45.7091
45.4175
45.1139
44.7966
44.4813
44.1684
43.8568
43.5481
43.2427
42.9404
42.6428
42.3492
42.0616
41.7807
41.5086
41.2496
40.9954
40.7747
46.4374
46.0543
45.708
45.4158
45.1127
44.7962
44.4814
44.1688
43.8573
43.5486
43.2433
42.9409
42.6432
42.3493
42.0613
41.7797
41.5061
41.2444
40.9843
40.7516
46.4169
46.048
45.7069
45.4143
45.1116
44.796
44.4816
44.1691
43.8578
43.5491
43.2438
42.9414
42.6435
42.3494
42.061
41.7786
41.5035
41.2388
40.9732
40.7296
46.3988
46.042
45.7058
45.4129
45.1106
44.7957
44.4817
44.1694
43.8582
43.5496
43.2442
42.9418
42.6438
42.3495
42.0606
41.7773
41.5007
41.2332
40.9622
40.7087
46.3829
46.0364
45.7047
45.4116
45.1097
44.7955
44.4818
44.1697
43.8586
43.5501
43.2447
42.9421
42.644
42.3494
42.0601
41.7759
41.4978
41.2273
40.9512
40.6888
46.3691
46.0311
45.7036
45.4104
45.1089
44.7952
44.4819
44.17
43.859
43.5505
43.245
42.9424
42.6442
42.3493
42.0595
41.7745
41.4947
41.2214
40.9404
40.67
46.3572
46.0264
45.7026
45.4095
45.1081
44.7951
44.482
44.1702
43.8593
43.5508
43.2453
42.9427
42.6442
42.3492
42.0588
41.7729
41.4915
41.2154
40.9297
40.6521
46.3472
46.0222
45.7016
45.4086
45.1075
44.7949
44.4821
44.1704
43.8595
43.5511
43.2456
42.9428
42.6443
42.3489
42.058
41.7712
41.4882
41.2093
40.9192
40.6352
46.339
46.0187
45.7008
45.4079
45.107
44.7947
44.4822
44.1706
43.8597
43.5513
43.2458
42.943
42.6442
42.3486
42.0572
41.7694
41.4849
41.2032
40.9089
40.619
46.3325
46.0158
45.7001
45.4073
45.1066
44.7946
44.4822
44.1707
43.8599
43.5515
43.2459
42.943
42.6441
42.3481
42.0562
41.7676
41.4814
41.1971
40.8989
40.6036
46.3276
46.0135
45.6996
45.4069
45.1062
44.7945
44.4823
44.1708
43.86
43.5516
43.246
42.943
42.6439
42.3477
42.0552
41.7656
41.478
41.191
40.8891
40.589
46.3244
46.012
45.6992
45.4066
45.106
44.7945
44.4823
44.1708
43.8601
43.5517
43.246
42.9429
42.6437
42.3471
42.0542
41.7637
41.4744
41.185
40.8795
40.575
46.3227
46.0112
45.699
45.4065
45.1059
44.7945
44.4824
44.1709
43.8601
43.5517
43.246
42.9428
42.6434
42.3465
42.053
41.7616
41.4709
41.179
40.8701
40.5616
46.3227
46.0112
45.6989
45.4065
45.1059
44.7945
44.4824
44.1709
43.8601
43.5517
43.2459
42.9426
42.643
42.3459
42.0518
41.7596
41.4674
41.173
40.8611
40.5488
46.3243
46.0119
45.699
45.4066
45.1061
44.7945
44.4824
44.1708
43.8601
43.5516
43.2457
42.9423
42.6426
42.3451
42.0506
41.7574
41.4638
41.1672
40.8523
40.5365
46.3275
46.0133
45.6993
45.4069
45.1063
44.7946
44.4823
44.1707
43.8599
43.5514
43.2455
42.942
42.6421
42.3444
42.0493
41.7553
41.4602
41.1615
40.8437
40.5248
46.3323
46.0154
45.6997
45.4073
45.1066
44.7947
44.4823
44.1706
43.8598
43.5512
43.2453
42.9417
42.6416
42.3435
42.048
41.7531
41.4567
41.1558
40.8354
40.5134
46.3387
46.0182
45.7003
45.4078
45.107
44.7949
44.4823
44.1705
43.8596
43.551
43.2449
42.9413
42.641
42.3427
42.0466
41.751
41.4532
41.1503
40.8274
40.5024
46.3469
46.0216
45.701
45.4085
45.1076
44.795
44.4822
44.1703
43.8593
43.5507
43.2446
42.9408
42.6403
42.3417
42.0452
41.7488
41.4498
41.145
40.8197
40.4918
46.3569
46.0257
45.7019
45.4093
45.1082
44.7952
44.4822
44.1701
43.859
43.5503
43.2441
42.9403
42.6396
42.3408
42.0438
41.7466
41.4464
41.1397
40.8122
40.4815
46.3687
46.0304
45.7028
45.4103
45.1089
44.7955
44.4821
44.1699
43.8586
43.5499
43.2436
42.9397
42.6389
42.3398
42.0424
41.7445
41.4431
41.1346
40.805
40.4714
46.3824
46.0356
45.7038
45.4114
45.1098
44.7957
44.482
44.1696
43.8582
43.5494
43.2431
42.939
42.6381
42.3388
42.0409
41.7423
41.4398
41.1297
40.7981
40.4615
46.3982
46.0412
45.7049
45.4127
45.1107
44.796
44.4819
44.1693
43.8578
43.5489
43.2425
42.9383
42.6372
42.3377
42.0395
41.7402
41.4367
41.125
40.7915
40.4518
46.4163
46.0471
45.706
45.4141
45.1117
44.7963
44.4817
44.1689
43.8573
43.5483
43.2418
42.9376
42.6363
42.3366
42.038
41.7382
41.4337
41.1205
40.7852
40.4423
46.4367
46.0533
45.707
45.4156
45.1128
44.7966
44.4816
44.1686
43.8568
43.5477
43.2411
42.9369
42.6355
42.3356
42.0366
41.7362
41.4308
41.1162
40.7793
40.4329
46.4597
46.0595
45.708
45.4173
45.114
44.797
44.4815
44.1682
43.8563
43.5471
43.2404
42.9361
42.6346
42.3345
42.0353
41.7344
41.4281
41.1122
40.7737
40.4237
46.4856
46.0655
45.7088
45.4192
45.1153
44.7974
44.4813
44.1679
43.8557
43.5465
43.2398
42.9354
42.6337
42.3335
42.034
41.7326
41.4257
41.1085
40.7686
40.4146
46.5149
46.0714
45.7093
45.4211
45.1168
44.7979
44.4813
44.1676
43.8553
43.5459
43.2391
42.9347
42.6329
42.3326
42.0328
41.731
41.4234
41.1051
40.7638
40.4055
46.548
46.0781
45.7103
45.4232
45.1183
44.7984
44.4814
44.1674
43.8549
43.5454
43.2386
42.9341
42.6322
42.3317
42.0316
41.7295
41.4213
41.1021
40.7594
40.3966
46.5802
46.0848
45.7134
45.4265
45.12
44.7987
44.4808
44.1666
43.854
43.5445
43.2376
42.9331
42.6311
42.3306
42.0304
41.728
41.4193
41.0993
40.7554
40.3878
46.603
46.0802
45.7195
45.4373
45.1289
44.8047
44.4846
44.1688
43.8551
43.5448
43.2375
42.9326
42.6304
42.3297
42.0293
41.7266
41.4175
41.0969
40.7519
40.38
46.6394
46.0058
45.6658
45.4062
45.1101
44.7931
44.4772
44.164
43.8518
43.5422
43.2353
42.9306
42.6284
42.3275
42.0269
41.7239
41.4145
41.0933
40.7476
40.373
47.182
46.1933
45.7518
45.4513
45.1342
44.8059
44.4841
44.1676
43.8534
43.5428
43.2351
42.93
42.6274
42.3263
42.0254
41.7223
41.4126
41.0912
40.7453
40.3698
40.4177
40.3475
39.8874
39.6093
39.3429
39.0371
38.7197
38.3929
38.0578
37.7206
37.3866
37.0601
36.7456
36.4477
36.1697
35.9148
35.6852
35.4826
35.308
35.1615
35.0431
34.952
34.8873
34.8477
34.8318
34.838
34.8648
34.9109
34.9747
35.055
35.1506
35.2605
35.3838
35.5196
35.6673
35.8263
35.996
36.1761
36.366
36.5655
36.7742
36.9918
37.218
37.4524
37.6948
37.9447
38.202
38.4661
38.7368
39.0136
39.2962
39.5841
39.8769
40.1741
40.4754
40.7802
41.088
41.3983
41.7107
42.0247
42.3398
42.6554
42.9712
43.2865
43.6011
43.9143
44.2257
44.535
44.8417
45.1454
45.4457
45.7423
46.0349
46.323
46.6065
46.8851
47.1585
47.4265
47.689
47.9457
48.1965
48.4413
48.68
48.9125
49.1388
49.3588
49.5726
49.7801
49.9814
50.1765
50.3656
50.5486
50.7257
50.897
51.0627
51.2229
51.3778
51.5275
51.6723
51.8123
51.9477
52.0787
52.2055
52.3283
52.4472
52.5625
52.6743
52.7828
52.8881
52.9904
53.0899
53.1866
53.2808
53.3724
53.4617
53.5488
53.6337
53.7165
53.7973
53.8762
53.9533
54.0287
54.1023
54.1743
54.2447
54.3136
54.381
54.4469
54.5114
54.5746
54.6364
54.6969
54.756
54.814
54.8706
54.926
54.9802
55.0332
55.0849
55.1354
55.1848
55.2329
55.2798
55.3256
55.3701
55.4134
55.4554
55.4963
55.5358
55.5741
55.611
55.6466
55.6807
55.7134
55.7446
55.7742
55.8022
55.8283
55.8527
55.875
55.8951
55.913
55.9283
55.9409
55.9506
55.957
55.9598
55.9586
55.953
55.9425
55.9265
55.9044
55.8754
55.8388
55.7935
55.7385
55.6726
55.5942
55.5016
55.3928
55.2655
55.1169
54.9438
54.7423
54.5077
54.2341
53.9141
53.5386
53.0951
52.5674
51.933
51.1597
50.2015
48.9858
47.4104
45.2625
42.3439
37.5818
31.2559
8.75701
40.5365
40.2713
39.9096
39.6621
39.423
39.1388
38.8299
38.5063
38.1712
37.8325
37.4971
37.1699
36.8559
36.5593
36.2834
36.0307
35.8033
35.6026
35.4293
35.2838
35.1658
35.0746
35.0093
34.9687
34.9514
34.956
34.9811
35.0253
35.0871
35.1653
35.2589
35.3667
35.4879
35.6217
35.7674
35.9243
36.0921
36.2702
36.4581
36.6556
36.8623
37.0779
37.302
37.5343
37.7745
38.0222
38.2772
38.5391
38.8074
39.0819
39.362
39.6475
39.9378
40.2325
40.5312
40.8334
41.1386
41.4463
41.7561
42.0675
42.3799
42.693
43.0061
43.3189
43.6309
43.9416
44.2506
44.5575
44.8618
45.1632
45.4613
45.7557
46.0461
46.3322
46.6137
46.8903
47.1619
47.4281
47.6889
47.9439
48.1932
48.4365
48.6738
48.905
49.13
49.3488
49.5614
49.7679
49.9681
50.1623
50.3504
50.5325
50.7088
50.8793
51.0442
51.2036
51.3578
51.5068
51.6509
51.7903
51.9251
52.0554
52.1817
52.3039
52.4223
52.5371
52.6484
52.7564
52.8613
52.9633
53.0624
53.1588
53.2526
53.344
53.4331
53.5199
53.6046
53.6872
53.7679
53.8466
53.9236
53.9988
54.0724
54.1443
54.2146
54.2834
54.3507
54.4165
54.481
54.544
54.6057
54.6661
54.7251
54.7829
54.8394
54.8946
54.9486
55.0013
55.0528
55.103
55.152
55.1997
55.2462
55.2915
55.3354
55.3781
55.4195
55.4596
55.4983
55.5356
55.5716
55.606
55.639
55.6703
55.7001
55.7281
55.7543
55.7785
55.8007
55.8208
55.8384
55.8536
55.866
55.8754
55.8815
55.8841
55.8827
55.877
55.8665
55.8506
55.8288
55.8002
55.7643
55.72
55.6663
55.6021
55.5261
55.4365
55.3316
55.2091
55.0667
54.9011
54.709
54.486
54.2268
53.925
53.5724
53.1586
52.6696
52.087
51.385
50.527
49.4598
48.0992
46.3239
43.8841
40.5087
34.9634
27.073
5.96978
40.5803
40.3325
40.0146
39.746
39.4894
39.2006
38.892
38.573
38.2457
37.9157
37.5889
37.2696
36.9622
36.671
36.3991
36.1495
35.9243
35.7251
35.5529
35.408
35.2901
35.1988
35.133
35.0916
35.0733
35.0766
35.1002
35.1427
35.2028
35.2791
35.3708
35.4767
35.5959
35.7277
35.8715
36.0265
36.1923
36.3684
36.5544
36.7499
36.9545
37.168
37.39
37.6202
37.8582
38.1038
38.3564
38.616
38.8819
39.1539
39.4316
39.7145
40.0023
40.2944
40.5905
40.89
41.1925
41.4976
41.8047
42.1133
42.4231
42.7334
43.0439
43.3541
43.6635
43.9716
44.2781
44.5824
44.8843
45.1833
45.4791
45.7712
46.0594
46.3434
46.6228
46.8975
47.1671
47.4315
47.6905
47.9438
48.1915
48.4333
48.6691
48.8989
49.1226
49.3402
49.5517
49.757
49.9562
50.1494
50.3365
50.5178
50.6932
50.8629
51.0271
51.1858
51.3392
51.4876
51.631
51.7697
51.9039
52.0336
52.1593
52.2809
52.3988
52.5131
52.6239
52.7315
52.836
52.9375
53.0362
53.1323
53.2258
53.3169
53.4056
53.4922
53.5767
53.6591
53.7396
53.8182
53.895
53.9701
54.0435
54.1152
54.1854
54.2541
54.3213
54.387
54.4513
54.5143
54.5758
54.636
54.6949
54.7525
54.8088
54.8638
54.9175
54.97
55.0211
55.071
55.1196
55.1669
55.2129
55.2576
55.301
55.3431
55.3837
55.423
55.4609
55.4972
55.5321
55.5654
55.5971
55.6271
55.6553
55.6817
55.7061
55.7284
55.7485
55.7661
55.7813
55.7937
55.8031
55.8092
55.8118
55.8105
55.8049
55.7946
55.7791
55.7577
55.73
55.695
55.6519
55.5999
55.5377
55.4643
55.378
55.2771
55.1597
55.0234
54.8655
54.6828
54.4714
54.2265
53.9426
53.6123
53.2268
52.7743
52.2396
51.602
50.8328
49.8912
48.7176
47.2182
45.2557
42.5565
38.8018
32.7847
24.1431
6.88611
40.5686
40.3334
40.0318
39.7569
39.4967
39.2154
38.9174
38.6093
38.2935
37.9748
37.6586
37.3494
37.0514
36.7688
36.5046
36.2617
36.0422
35.8475
35.6785
35.5357
35.4188
35.3276
35.2613
35.2188
35.199
35.2006
35.2223
35.2629
35.321
35.3955
35.4852
35.5892
35.7065
35.8365
35.9783
36.1315
36.2954
36.4696
36.6536
36.8472
37.0498
37.2613
37.4812
37.7093
37.9451
38.1884
38.4388
38.6959
38.9595
39.229
39.5042
39.7845
40.0697
40.3592
40.6525
40.9494
41.2492
41.5515
41.8558
42.1617
42.4687
42.7763
43.0841
43.3915
43.6982
44.0037
44.3076
44.6094
44.9088
45.2053
45.4987
45.7885
46.0744
46.3562
46.6335
46.9061
47.1738
47.4363
47.6935
47.9452
48.1912
48.4314
48.6657
48.8941
49.1165
49.3329
49.5431
49.7473
49.9455
50.1377
50.3239
50.5042
50.6788
50.8478
51.0112
51.1692
51.3219
51.4696
51.6124
51.7505
51.884
52.0132
52.1383
52.2594
52.3767
52.4905
52.6008
52.7079
52.812
52.913
53.0114
53.107
53.2002
53.291
53.3794
53.4657
53.5499
53.6321
53.7124
53.7908
53.8674
53.9423
54.0155
54.0871
54.1572
54.2257
54.2927
54.3583
54.4225
54.4852
54.5466
54.6067
54.6654
54.7227
54.7788
54.8335
54.887
54.9391
54.9899
55.0394
55.0876
55.1345
55.18
55.2241
55.2669
55.3082
55.3481
55.3866
55.4235
55.4589
55.4927
55.5248
55.5552
55.5838
55.6105
55.6351
55.6577
55.678
55.6959
55.7112
55.7238
55.7334
55.7397
55.7425
55.7415
55.7363
55.7264
55.7115
55.6909
55.6641
55.6303
55.5888
55.5386
55.4787
55.408
55.3251
55.2285
55.1162
54.9863
54.836
54.6626
54.4625
54.2316
53.9648
53.6558
53.2969
52.8783
52.3872
51.8068
51.1147
50.2795
49.2566
47.981
46.3515
44.2193
41.3002
37.2497
30.991
21.935
6.77053
40.5434
40.3175
40.0368
39.7695
39.5109
39.2363
38.9463
38.6466
38.3401
38.0311
37.7245
37.4246
37.1353
36.8605
36.6034
36.3666
36.1522
35.9618
35.7964
35.6564
35.5418
35.4522
35.3869
35.3448
35.3248
35.3258
35.3465
35.3856
35.442
35.5146
35.6023
35.7043
35.8196
35.9475
36.0873
36.2385
36.4005
36.5727
36.7549
36.9465
37.1472
37.3566
37.5745
37.8004
38.0341
38.2751
38.5233
38.7781
39.0392
39.3063
39.5789
39.8567
40.1392
40.4261
40.7167
41.0108
41.3079
41.6074
41.9089
42.2121
42.5163
42.8211
43.1261
43.4308
43.7348
44.0376
44.3388
44.638
44.9348
45.2289
45.5198
45.8072
46.0909
46.3704
46.6456
46.9161
47.1818
47.4424
47.6977
47.9476
48.192
48.4306
48.6635
48.8904
49.1115
49.3265
49.5356
49.7387
49.9358
50.127
50.3123
50.4918
50.6656
50.8337
50.9964
51.1537
51.3058
51.4529
51.5951
51.7325
51.8655
51.9942
52.1187
52.2392
52.356
52.4693
52.5791
52.6858
52.7893
52.89
52.9879
53.0832
53.176
53.2664
53.3545
53.4405
53.5244
53.6063
53.6864
53.7645
53.8409
53.9156
53.9887
54.0601
54.1299
54.1983
54.2651
54.3305
54.3945
54.4571
54.5183
54.5781
54.6366
54.6937
54.7495
54.8039
54.8571
54.9089
54.9593
55.0084
55.0561
55.1025
55.1474
55.191
55.2331
55.2737
55.3128
55.3504
55.3864
55.4208
55.4535
55.4844
55.5134
55.5405
55.5656
55.5886
55.6092
55.6275
55.6432
55.6561
55.666
55.6728
55.676
55.6755
55.6708
55.6616
55.6475
55.6278
55.6022
55.5698
55.53
55.4818
55.4245
55.3567
55.2774
55.185
55.078
54.9543
54.8116
54.6473
54.4583
54.2408
53.9903
53.7014
53.3673
52.9798
52.5281
51.9986
51.3732
50.6275
49.728
48.627
47.2553
45.5066
43.2249
40.1265
35.8561
29.4918
20.2739
6.38027
40.5126
40.2924
40.0289
39.7698
39.5137
39.245
38.9634
38.6732
38.3774
38.0796
37.7841
37.4948
37.2156
36.9499
36.7008
36.4709
36.2623
36.0765
35.9146
35.7771
35.6641
35.5752
35.51
35.4676
35.447
35.4471
35.4667
35.5048
35.56
35.6314
35.7179
35.8185
35.9323
36.0588
36.197
36.3465
36.5067
36.6772
36.8574
37.0471
37.2459
37.4533
37.6691
37.8929
38.1244
38.3633
38.6091
38.8616
39.1203
39.385
39.6551
39.9303
40.2103
40.4944
40.7824
41.0738
41.368
41.6648
41.9635
42.2639
42.5652
42.8673
43.1695
43.4714
43.7727
44.0728
44.3713
44.6679
44.9621
45.2537
45.5421
45.8272
46.1085
46.3858
46.6588
46.9272
47.1908
47.4495
47.703
47.9511
48.1937
48.4308
48.6621
48.8876
49.1073
49.3211
49.529
49.731
49.9271
50.1173
50.3017
50.4803
50.6533
50.8207
50.9827
51.1393
51.2908
51.4373
51.5789
51.7158
51.8482
51.9763
52.1003
52.2204
52.3367
52.4494
52.5588
52.6649
52.768
52.8683
52.9657
53.0606
53.153
53.2431
53.3309
53.4165
53.5001
53.5818
53.6615
53.7394
53.8156
53.89
53.9628
54.034
54.1037
54.1718
54.2385
54.3036
54.3674
54.4297
54.4907
54.5503
54.6085
54.6653
54.7208
54.775
54.8278
54.8792
54.9292
54.9779
55.0251
55.0709
55.1153
55.1582
55.1996
55.2395
55.2778
55.3145
55.3496
55.3829
55.4144
55.444
55.4717
55.4973
55.5208
55.542
55.5608
55.5769
55.5904
55.6008
55.6081
55.612
55.6121
55.6082
55.5998
55.5866
55.5681
55.5438
55.513
55.475
55.4291
55.3743
55.3097
55.2341
55.1461
55.0442
54.9267
54.7915
54.6361
54.4577
54.253
54.018
53.748
53.437
53.0779
52.6618
52.1774
51.6099
50.9402
50.1424
49.181
48.0059
46.5451
44.6893
42.2799
39.0414
34.6202
28.2459
19.1076
6.34797
40.4812
40.2653
40.0156
39.7652
39.5137
39.2515
38.9785
38.6979
38.4125
38.1255
37.8408
37.562
37.2927
37.0361
36.7952
36.5725
36.3701
36.1894
36.0315
35.897
35.7861
35.6986
35.634
35.5915
35.5703
35.5694
35.5877
35.6242
35.6777
35.7473
35.8319
35.9308
36.0429
36.1677
36.3044
36.4524
36.6111
36.78
36.9588
37.1469
37.344
37.5497
37.7637
37.9857
38.2152
38.452
38.6956
38.9459
39.2023
39.4645
39.7322
40.0049
40.2822
40.5638
40.8491
41.1377
41.4292
41.7232
42.0192
42.3167
42.6153
42.9145
43.2139
43.5131
43.8116
44.109
44.4048
44.6988
44.9904
45.2794
45.5654
45.848
46.127
46.402
46.6728
46.9391
47.2007
47.4574
47.709
47.9553
48.1963
48.4317
48.6615
48.8856
49.104
49.3165
49.5232
49.724
49.9191
50.1083
50.2918
50.4696
50.6418
50.8085
50.9698
51.1259
51.2768
51.4227
51.5638
51.7002
51.8321
51.9597
52.0832
52.2028
52.3186
52.4309
52.5397
52.6454
52.7481
52.8479
52.9449
53.0394
53.1314
53.2211
53.3085
53.3938
53.4771
53.5584
53.6379
53.7155
53.7914
53.8656
53.9381
54.0091
54.0785
54.1464
54.2128
54.2777
54.3412
54.4033
54.464
54.5233
54.5812
54.6377
54.6929
54.7467
54.7991
54.8501
54.8997
54.9479
54.9946
55.0399
55.0837
55.1259
55.1666
55.2057
55.2432
55.279
55.313
55.3452
55.3755
55.4039
55.4302
55.4543
55.4761
55.4955
55.5123
55.5264
55.5376
55.5456
55.5502
55.5511
55.5481
55.5407
55.5286
55.5114
55.4886
55.4595
55.4235
55.3799
55.3279
55.2665
55.1946
55.111
55.0144
54.903
54.775
54.6283
54.4601
54.2677
54.0473
53.7949
53.5053
53.1723
52.7884
52.344
51.8272
51.2225
50.5097
49.6615
48.6411
47.3966
45.8544
43.9046
41.3892
38.0473
33.5375
27.2279
18.3388
6.63277
40.4512
40.2385
39.9997
39.7577
39.5116
39.2558
38.9907
38.7191
38.4435
38.1668
37.8924
37.624
37.3645
37.1172
36.8848
36.6696
36.4736
36.2984
36.1449
36.0138
35.9054
35.8195
35.7557
35.7135
35.6921
35.6905
35.7079
35.7431
35.7952
35.8632
35.9462
36.0434
36.1538
36.2768
36.4118
36.558
36.715
36.8822
37.0593
37.2457
37.4411
37.6451
37.8574
38.0775
38.3052
38.54
38.7817
39.0299
39.2842
39.5442
39.8095
40.0798
40.3547
40.6337
40.9164
41.2024
41.4912
41.7825
42.0757
42.3704
42.6662
42.9627
43.2593
43.5557
43.8514
44.1461
44.4393
44.7306
45.0196
45.3061
45.5896
45.8697
46.1463
46.4191
46.6876
46.9518
47.2114
47.4661
47.7158
47.9603
48.1996
48.4334
48.6617
48.8843
49.1013
49.3125
49.518
49.7177
49.9117
50.1
50.2826
50.4596
50.6311
50.7971
50.9578
51.1133
51.2636
51.409
51.5496
51.6855
51.817
51.9442
52.0672
52.1863
52.3017
52.4135
52.522
52.6272
52.7295
52.8288
52.9255
53.0195
53.1111
53.2004
53.2875
53.3724
53.4554
53.5364
53.6155
53.6928
53.7684
53.8423
53.9145
53.9852
54.0544
54.122
54.1881
54.2528
54.316
54.3778
54.4382
54.4972
54.5548
54.611
54.6658
54.7192
54.7712
54.8218
54.8709
54.9186
54.9648
55.0095
55.0526
55.0942
55.1341
55.1724
55.209
55.2438
55.2768
55.3079
55.337
55.3641
55.3889
55.4115
55.4317
55.4492
55.4641
55.4761
55.4849
55.4904
55.4923
55.4903
55.4841
55.4733
55.4575
55.4362
55.4089
55.3751
55.3339
55.2847
55.2266
55.1585
55.0794
54.9879
54.8825
54.7616
54.6232
54.4649
54.2841
54.0776
53.8416
53.5718
53.2628
52.9081
52.4996
52.0274
51.4789
50.8379
50.0833
49.187
48.1109
46.8022
45.1869
43.1562
40.5561
37.1438
32.5988
26.4095
17.8666
7.10342
40.423
40.213
39.983
39.7489
39.5087
39.2594
39.0019
38.7387
38.4723
38.2053
37.9408
37.682
37.432
37.1936
36.9694
36.7616
36.5721
36.4024
36.2535
36.126
36.0203
35.9363
35.8738
35.8322
35.8108
35.8088
35.8253
35.8595
35.9103
35.9769
36.0584
36.154
36.2629
36.3844
36.5178
36.6625
36.8179
36.9836
37.1592
37.344
37.5378
37.7402
37.9507
38.1691
38.395
38.628
38.8677
39.1138
39.366
39.6238
39.887
40.155
40.4274
40.704
40.9842
41.2676
41.5538
41.8424
42.133
42.425
42.7181
43.0118
43.3056
43.5993
43.8923
44.1842
44.4747
44.7634
45.0498
45.3337
45.6147
45.8925
46.1667
46.4371
46.7034
46.9654
47.2229
47.4756
47.7234
47.9662
48.2037
48.4358
48.6625
48.8837
49.0993
49.3092
49.5135
49.7121
49.9051
50.0924
50.2742
50.4503
50.6211
50.7864
50.9465
51.1014
51.2512
51.3961
51.5363
51.6718
51.8028
51.9296
52.0523
52.171
52.286
52.3974
52.5055
52.6103
52.7121
52.8111
52.9073
53.001
53.0922
53.1811
53.2678
53.3524
53.4349
53.5156
53.5944
53.6713
53.7466
53.8202
53.8922
53.9625
54.0314
54.0987
54.1645
54.2289
54.2918
54.3533
54.4134
54.472
54.5293
54.5851
54.6396
54.6926
54.7441
54.7943
54.8429
54.89
54.9356
54.9797
55.0222
55.063
55.1022
55.1397
55.1754
55.2092
55.2412
55.2711
55.299
55.3247
55.3481
55.3691
55.3876
55.4033
55.4162
55.426
55.4325
55.4355
55.4346
55.4297
55.4202
55.406
55.3864
55.3611
55.3294
55.2908
55.2444
55.1896
55.1254
55.0506
54.9642
54.8648
54.7508
54.6204
54.4716
54.3018
54.1084
53.8879
53.6365
53.3495
53.0213
52.645
52.2124
51.7129
51.1335
50.4574
49.6627
48.7206
47.5925
46.2253
44.5452
42.4467
39.7818
36.3284
31.7919
25.7623
17.6164
7.69389
40.3969
40.1891
39.9665
39.7396
39.5055
39.2625
39.0122
38.7571
38.4994
38.2414
37.9861
37.7366
37.4954
37.2654
37.049
36.8483
36.6652
36.5009
36.3565
36.2328
36.1299
36.0481
35.9869
35.9461
35.925
35.9228
35.9388
35.9721
36.0219
36.0873
36.1675
36.2617
36.3691
36.489
36.6209
36.7641
36.9181
37.0824
37.2565
37.4399
37.6323
37.8332
38.0423
38.2592
38.4835
38.7148
38.9528
39.1971
39.4474
39.7032
39.9643
40.2301
40.5003
40.7746
41.0524
41.3334
41.6171
41.9031
42.191
42.4804
42.7708
43.0618
43.353
43.644
43.9343
44.2236
44.5114
44.7974
45.0813
45.3626
45.6411
45.9164
46.1882
46.4563
46.7204
46.9802
47.2356
47.4863
47.7322
47.973
48.2088
48.4392
48.6644
48.884
49.0982
49.3068
49.5099
49.7073
49.8992
50.0856
50.2664
50.4418
50.6117
50.7764
50.9359
51.0902
51.2395
51.384
51.5237
51.6589
51.7896
51.916
52.0383
52.1567
52.2714
52.3825
52.4902
52.5946
52.6961
52.7946
52.8905
52.9837
53.0746
53.1631
53.2494
53.3336
53.4158
53.4961
53.5745
53.6512
53.7261
53.7994
53.871
53.941
54.0096
54.0765
54.1421
54.2061
54.2687
54.3298
54.3896
54.4479
54.5048
54.5602
54.6143
54.6668
54.7179
54.7676
54.8157
54.8623
54.9073
54.9507
54.9925
55.0326
55.071
55.1076
55.1424
55.1752
55.2061
55.2349
55.2615
55.2859
55.3078
55.3272
55.3439
55.3578
55.3687
55.3763
55.3805
55.3809
55.3773
55.3694
55.3568
55.339
55.3157
55.2863
55.2502
55.2068
55.1553
55.0948
55.0245
54.9431
54.8495
54.7422
54.6195
54.4797
54.3205
54.1394
53.9334
53.6991
53.4324
53.1284
52.7813
52.3839
51.9276
51.4015
50.7922
50.0822
49.2493
48.2642
47.088
45.668
43.9317
41.7778
39.0666
35.5969
31.1038
25.2603
17.5341
8.36657
40.3727
40.1669
39.9505
39.7303
39.5021
39.2653
39.0221
38.7746
38.525
38.2756
38.029
37.788
37.5553
37.3332
37.1243
36.9303
36.7532
36.5941
36.4542
36.3341
36.2341
36.1544
36.0948
36.0549
36.0342
36.032
36.0476
36.0803
36.1292
36.1936
36.2726
36.3655
36.4716
36.5902
36.7207
36.8625
37.0151
37.178
37.3506
37.5327
37.7236
37.9232
38.1308
38.3463
38.5691
38.7989
39.0354
39.2781
39.5268
39.7809
40.0401
40.304
40.5722
40.8444
41.12
41.3987
41.6801
41.9638
42.2493
42.5362
42.8241
43.1125
43.4011
43.6895
43.9772
44.2639
44.5491
44.8326
45.1139
45.3927
45.6687
45.9416
46.2111
46.4768
46.7387
46.9963
47.2496
47.4982
47.7421
47.9811
48.2151
48.4438
48.6673
48.8854
49.0982
49.3054
49.5072
49.7035
49.8943
50.0796
50.2595
50.434
50.6032
50.7672
50.926
51.0798
51.2286
51.3726
51.512
51.6468
51.7771
51.9033
52.0253
52.1434
52.2578
52.3686
52.476
52.5801
52.6812
52.7794
52.8749
52.9678
53.0583
53.1464
53.2324
53.3162
53.3981
53.478
53.556
53.6323
53.7069
53.7798
53.8511
53.9208
53.989
54.0556
54.1208
54.1845
54.2468
54.3075
54.3669
54.4248
54.4813
54.5364
54.59
54.6421
54.6927
54.7418
54.7894
54.8354
54.8798
54.9226
54.9637
55.003
55.0406
55.0764
55.1102
55.142
55.1718
55.1994
55.2247
55.2477
55.2682
55.286
55.301
55.313
55.3218
55.3272
55.329
55.3269
55.3206
55.3097
55.2939
55.2726
55.2456
55.2121
55.1716
55.1234
55.0667
55.0006
54.9242
54.8362
54.7354
54.6202
54.489
54.3399
54.1704
53.978
53.7596
53.5116
53.2298
52.9091
52.5434
52.1254
51.646
51.0942
50.4559
49.7136
48.8446
47.8194
46.5992
45.1321
43.348
41.1505
38.4093
34.9445
30.5213
24.8809
17.5786
9.09084
40.3505
40.1465
39.9354
39.7212
39.4988
39.268
39.0314
38.7912
38.5493
38.308
38.0696
37.8367
37.6118
37.3973
37.1953
37.0078
36.8364
36.6823
36.5467
36.4301
36.333
36.2554
36.1973
36.1584
36.1382
36.1362
36.1516
36.1837
36.2319
36.2953
36.3733
36.465
36.5699
36.6873
36.8165
36.9571
37.1084
37.27
37.4413
37.622
37.8117
38.0099
38.2162
38.4302
38.6516
38.8799
39.1149
39.3561
39.6031
39.8556
40.1132
40.3754
40.6418
40.9121
41.1858
41.4626
41.7419
42.0234
42.3067
42.5913
42.8769
43.1629
43.4491
43.7351
44.0203
44.3046
44.5873
44.8684
45.1472
45.4236
45.6973
45.9678
46.2349
46.4985
46.7581
47.0136
47.2648
47.5114
47.7534
47.9905
48.2226
48.4497
48.6715
48.8881
49.0994
49.3052
49.5057
49.7008
49.8904
50.0747
50.2536
50.4272
50.5956
50.7589
50.917
51.0702
51.2185
51.3621
51.501
51.6354
51.7655
51.8914
52.0131
52.131
52.2451
52.3557
52.4628
52.5667
52.6675
52.7654
52.8606
52.9532
53.0433
53.1311
53.2167
53.3002
53.3817
53.4612
53.5389
53.6148
53.6891
53.7616
53.8325
53.9019
53.9697
54.036
54.1008
54.1642
54.226
54.2865
54.3454
54.403
54.459
54.5136
54.5668
54.6184
54.6686
54.7172
54.7642
54.8096
54.8534
54.8955
54.9358
54.9744
55.0111
55.046
55.0789
55.1097
55.1383
55.1647
55.1888
55.2104
55.2293
55.2455
55.2588
55.2689
55.2757
55.2789
55.2784
55.2737
55.2646
55.2507
55.2317
55.207
55.1761
55.1386
55.0937
55.0407
54.9789
54.9073
54.8247
54.7302
54.6222
54.4993
54.3596
54.2011
54.0215
53.8179
53.5873
53.3259
53.0293
52.6922
52.3084
51.8702
51.3685
50.7918
50.1258
49.3528
48.4498
47.3875
46.1275
44.6192
42.7952
40.565
37.8084
34.3657
30.0323
24.6042
17.7174
9.84195
40.33
40.1278
39.9212
39.7124
39.4956
39.2706
39.0404
38.807
38.5724
38.3386
38.1079
37.8827
37.6653
37.4579
37.2625
37.0811
36.9152
36.7659
36.6344
36.5212
36.4268
36.3514
36.2949
36.257
36.2374
36.2355
36.2507
36.2825
36.33
36.3926
36.4696
36.5603
36.6641
36.7803
36.9084
37.0477
37.1978
37.3581
37.5283
37.7078
37.8961
38.0931
38.2981
38.5108
38.7308
38.9578
39.1914
39.4311
39.6766
39.9275
40.1835
40.444
40.7087
40.9773
41.2492
41.524
41.8015
42.081
42.3623
42.6449
42.9284
43.2123
43.4964
43.7801
44.0631
44.345
44.6255
44.9042
45.1808
45.4549
45.7263
45.9945
46.2595
46.5208
46.7783
47.0318
47.2809
47.5256
47.7657
48.001
48.2313
48.4567
48.6769
48.892
49.1018
49.3063
49.5054
49.6992
49.8877
50.0709
50.2489
50.4216
50.5891
50.7516
50.9091
51.0616
51.2094
51.3524
51.4909
51.625
51.7547
51.8803
52.0018
52.1195
52.2334
52.3438
52.4507
52.5544
52.655
52.7526
52.8475
52.9398
53.0296
53.1171
53.2023
53.2855
53.3666
53.4458
53.5232
53.5987
53.6726
53.7448
53.8154
53.8843
53.9518
54.0177
54.0822
54.1451
54.2066
54.2666
54.3252
54.3823
54.438
54.4921
54.5448
54.596
54.6456
54.6936
54.7401
54.7849
54.828
54.8694
54.909
54.9468
54.9827
55.0167
55.0486
55.0783
55.1059
55.1311
55.1538
55.174
55.1914
55.206
55.2175
55.2258
55.2305
55.2316
55.2286
55.2214
55.2096
55.1927
55.1704
55.1423
55.1077
55.0661
55.0168
54.9592
54.8922
54.815
54.7265
54.6254
54.5103
54.3797
54.2316
54.064
53.8743
53.6598
53.4171
53.1425
52.8313
52.4782
52.0767
51.619
51.0957
50.4951
49.8028
49.0008
48.0662
46.9699
45.6743
44.1303
42.274
40.0209
37.2614
33.8549
29.6254
24.4127
17.9253
10.6017
40.3111
40.1106
39.9081
39.7042
39.4925
39.2732
39.0489
38.822
38.5942
38.3675
38.1441
37.9261
37.7157
37.515
37.326
37.1504
36.9896
36.845
36.7174
36.6075
36.5158
36.4425
36.3875
36.3507
36.3317
36.3301
36.3453
36.3767
36.4237
36.4856
36.5617
36.6515
36.7542
36.8694
36.9963
37.1345
37.2834
37.4426
37.6116
37.7898
37.977
38.1727
38.3765
38.588
38.8068
39.0324
39.2647
39.503
39.7471
39.9966
40.251
40.5099
40.773
41.0399
41.3101
41.5832
41.8588
42.1365
42.4159
42.6966
42.9781
43.26
43.5421
43.8238
44.1047
44.3846
44.663
44.9396
45.2141
45.4861
45.7553
46.0215
46.2844
46.5437
46.7992
47.0506
47.2978
47.5406
47.7789
48.0124
48.2411
48.4648
48.6835
48.897
49.1053
49.3084
49.5063
49.6989
49.8863
50.0684
50.2453
50.4171
50.5838
50.7455
50.9023
51.0542
51.2013
51.3439
51.4819
51.6156
51.745
51.8702
51.9915
52.1089
52.2226
52.3328
52.4396
52.5431
52.6435
52.7409
52.8356
52.9277
53.0172
53.1044
53.1894
53.2722
53.353
53.4319
53.5089
53.5841
53.6576
53.7294
53.7996
53.8682
53.9353
54.0009
54.0649
54.1275
54.1886
54.2482
54.3064
54.363
54.4182
54.472
54.5241
54.5748
54.6239
54.6714
54.7172
54.7614
54.8039
54.8446
54.8835
54.9205
54.9555
54.9885
55.0194
55.0482
55.0746
55.0986
55.12
55.1388
55.1547
55.1677
55.1774
55.1838
55.1865
55.1854
55.1801
55.1703
55.1557
55.1359
55.1104
55.0788
55.0405
54.9949
54.9413
54.8789
54.8069
54.7242
54.6297
54.5221
54.4001
54.2618
54.1054
53.9288
53.7292
53.5039
53.2494
52.9618
52.6365
52.2678
51.8491
51.3726
50.8285
50.2051
49.4878
48.6586
47.6948
46.5676
45.2405
43.6663
41.7847
39.5176
36.7658
33.4066
29.2902
24.2919
18.183
11.357
40.2937
40.0948
39.8959
39.6965
39.4897
39.2756
39.0571
38.8362
38.6149
38.3949
38.1783
37.967
37.7633
37.5689
37.3859
37.2157
37.06
36.9197
36.7959
36.6893
36.6002
36.5289
36.4755
36.4398
36.4215
36.4202
36.4354
36.4665
36.513
36.5743
36.6497
36.7386
36.8404
36.9545
37.0804
37.2175
37.3654
37.5234
37.6913
37.8684
38.0545
38.249
38.4516
38.6619
38.8794
39.1039
39.3348
39.5718
39.8146
40.0626
40.3156
40.573
40.8346
41.0999
41.3685
41.6399
41.9138
42.1898
42.4674
42.7463
43.0259
43.306
43.5861
43.8659
44.1449
44.4229
44.6993
44.974
45.2465
45.5166
45.7839
46.0482
46.3092
46.5666
46.8202
47.0698
47.3152
47.5563
47.7928
48.0246
48.2516
48.4738
48.6909
48.903
49.1099
49.3117
49.5083
49.6997
49.886
50.067
50.243
50.4138
50.5797
50.7406