/*--------------------------------*- C++ -*----------------------------------*\
| =========                 |                                                 |
| \\      /  F ield         | OpenFOAM: The Open Source CFD Toolbox           |
|  \\    /   O peration     | Version:  2.4.0                                 |
|   \\  /    A nd           | Web:      www.OpenFOAM.org                      |
|    \\/     M anipulation  |                                                 |
\*---------------------------------------------------------------------------*/
FoamFile
{
    version     2.0;
    format      ascii;
    class       volScalarField;
    location    "0.006";
    object      pPrime2Mean;
}
// * * * * * * * * * * * * * * * * * * * * * * * * * * * * * * * * * * * * * //

dimensions      [0 4 -4 0 0 0 0];

internalField   nonuniform List<scalar> 
17600
(
136641
134921
132712
130215
127546
124798
122015
119230
116460
113717
111005
108330
105700
103097
100524
97974.2
95422.9
92838.7
90133.8
86963.5
136677
134932
132715
130216
127546
124797
122014
119229
116460
113717
111005
108329
105700
103097
100524
97974.5
95423.4
92840
90136.5
86971.4
136702
134941
132717
130216
127544
124796
122013
119228
116459
113716
111004
108329
105699
103097
100524
97975
95424.5
92842.1
90140.1
86985.1
136727
134954
132721
130217
127544
124795
122012
119227
116458
113715
111004
108328
105699
103097
100525
97975.7
95425.9
92844.6
90143.2
87003.4
136751
134967
132727
130218
127544
124794
122011
119226
116457
113715
111003
108328
105699
103097
100525
97976.6
95427.5
92847.3
90146.3
87025.6
136772
134979
132732
130220
127543
124793
122009
119225
116456
113714
111002
108328
105699
103097
100525
97977.5
95429.3
92850.1
90149.9
87051
136790
134991
132738
130222
127543
124792
122008
119224
116455
113713
111002
108327
105699
103097
100526
97978.5
95431.1
92853
90154.1
87078.7
136806
135002
132743
130223
127543
124792
122007
119223
116454
113712
111001
108327
105698
103097
100526
97979.5
95432.9
92855.8
90159
87108.3
136820
135011
132748
130225
127544
124791
122006
119222
116453
113711
111001
108326
105698
103097
100527
97980.3
95434.5
92858.5
90164.3
87139
136833
135020
132753
130227
127544
124791
122006
119221
116452
113710
111000
108326
105698
103097
100527
97981
95435.9
92860.9
90170.1
87170.6
136843
135027
132757
130229
127544
124790
122005
119220
116451
113710
110999
108326
105698
103097
100527
97981.5
95437.1
92863.1
90176.3
87202.6
136852
135034
132761
130231
127545
124790
122004
119219
116450
113709
110999
108325
105697
103097
100527
97981.7
95437.9
92864.9
90182.6
87234.8
136859
135039
132765
130232
127545
124790
122004
119219
116450
113708
110998
108324
105697
103096
100526
97981.6
95438.3
92866.4
90189
87266.9
136865
135044
132768
130234
127546
124790
122003
119218
116449
113708
110998
108324
105696
103095
100525
97981.1
95438.3
92867.4
90195.5
87298.8
136870
135048
132770
130235
127546
124790
122003
119218
116448
113707
110997
108323
105695
103094
100525
97980.3
95437.9
92868.1
90201.9
87330.3
136874
135052
132772
130236
127546
124790
122003
119217
116448
113706
110996
108322
105694
103093
100523
97979.1
95437
92868.4
90208.3
87361.4
136876
135054
132774
130237
127547
124790
122003
119217
116447
113706
110996
108322
105693
103092
100522
97977.4
95435.6
92868.3
90214.5
87391.8
136879
135056
132776
130238
127547
124790
122003
119216
116447
113705
110995
108321
105692
103091
100520
97975.4
95433.7
92867.7
90220.6
87421.6
136880
135057
132777
130238
127547
124790
122002
119216
116446
113705
110994
108320
105691
103089
100518
97973
95431.3
92866.7
90226.5
87450.7
136881
135058
132777
130239
127547
124790
122002
119216
116446
113704
110993
108319
105689
103087
100516
97970.2
95428.5
92865.4
90232.2
87478.9
136881
135058
132777
130239
127547
124789
122002
119215
116445
113703
110993
108318
105688
103085
100513
97967.1
95425.3
92863.6
90237.6
87506.4
136880
135058
132777
130238
127547
124789
122002
119215
116445
113703
110992
108317
105687
103083
100511
97963.7
95421.6
92861.5
90242.8
87533
136879
135057
132776
130238
127547
124789
122001
119215
116445
113702
110991
108316
105685
103081
100508
97959.9
95417.6
92859
90247.6
87558.8
136877
135055
132775
130237
127546
124789
122001
119215
116444
113702
110990
108315
105683
103079
100505
97955.9
95413.2
92856.2
90252.2
87583.6
136875
135053
132774
130236
127546
124788
122001
119214
116444
113701
110989
108313
105682
103077
100501
97951.7
95408.6
92853.1
90256.5
87607.6
136871
135050
132772
130235
127545
124788
122001
119214
116444
113701
110989
108312
105680
103074
100498
97947.3
95403.7
92849.7
90260.5
87630.7
136867
135046
132769
130233
127545
124788
122001
119214
116443
113700
110988
108311
105679
103072
100495
97942.8
95398.6
92846.1
90264.1
87653.1
136861
135042
132766
130232
127544
124787
122001
119214
116443
113700
110987
108310
105677
103070
100491
97938.1
95393.4
92842.3
90267.5
87674.5
136854
135036
132763
130230
127543
124787
122001
119214
116443
113699
110986
108309
105675
103067
100488
97933.5
95388
92838.4
90270.5
87695.3
136846
135030
132759
130229
127543
124787
122001
119214
116443
113699
110986
108308
105674
103065
100485
97928.9
95382.7
92834.3
90273.2
87715.4
136836
135023
132755
130227
127542
124787
122001
119214
116443
113699
110985
108307
105672
103063
100481
97924.4
95377.3
92830.1
90275.6
87734.7
136824
135015
132750
130225
127542
124787
122001
119215
116444
113699
110985
108306
105671
103061
100478
97920
95372.1
92825.9
90277.7
87753.3
136810
135005
132745
130223
127542
124788
122002
119215
116444
113699
110984
108305
105669
103059
100475
97915.8
95367.1
92821.8
90279.6
87771
136795
134995
132740
130221
127542
124788
122003
119216
116444
113699
110984
108304
105668
103057
100473
97911.9
95362.4
92817.8
90281.3
87787.9
136776
134983
132735
130220
127542
124789
122003
119216
116445
113699
110984
108304
105667
103055
100470
97908.3
95358.1
92814.1
90282.8
87803.9
136756
134971
132729
130218
127542
124790
122004
119217
116445
113699
110984
108303
105666
103053
100468
97905.2
95354.3
92810.7
90284.2
87818.7
136733
134958
132724
130217
127543
124791
122005
119218
116446
113699
110984
108303
105666
103052
100466
97902.7
95351.2
92807.9
90285.5
87832.2
136708
134946
132720
130216
127543
124791
122006
119219
116447
113700
110984
108303
105665
103052
100465
97900.8
95348.8
92805.8
90286.5
87843.9
136683
134937
132718
130216
127545
124793
122007
119220
116447
113700
110984
108303
105665
103051
100464
97899.6
95347.4
92804.6
90287.5
87853.2
136647
134926
132715
130215
127545
124793
122008
119220
116448
113701
110984
108304
105665
103051
100464
97899.1
95346.7
92803.9
90287.8
87858.5
81272.2
78928.9
77276.3
75996.1
74952.4
74051.1
73237.2
72482.3
71770.8
71093.2
70443.8
69818.9
69215.4
68630.3
68062
67508.9
66969.2
66441.6
65924.8
65417.6
64919.2
64428.8
63945.5
63468.9
62998.3
62533.4
62073.7
61619
61168.9
60723.1
60281.4
59843.6
59409.5
58978.9
58551.6
58127.4
57706.2
57287.8
56872.2
56459.1
56048.6
55640.3
55234.4
54830.5
54428.8
54029.1
53631.2
53235.2
52841
52448.6
52057.8
51668.6
51281.1
50895.1
50510.6
50127.6
49746.2
49366.1
48987.6
48610.4
48234.8
47860.5
47487.7
47116.4
46746.5
46378
46011.1
45645.5
45281.5
44918.8
44557.7
44197.9
43839.7
43483
43127.7
42774
42421.7
42070.9
41721.7
41373.9
41027.6
40682.8
40339.4
39997.6
39657.3
39318.5
38981.3
38645.7
38311.6
37979.2
37648.4
37319.1
36991.5
36665.6
36341.2
36018.5
35697.3
35377.7
35059.7
34743.2
34428.2
34114.7
33802.6
33492.1
33183
32875.4
32569.4
32264.9
31962
31660.7
31360.9
31062.9
30766.4
30471.6
30178.3
29886.6
29596.5
29307.9
29020.9
28735.3
28451.3
28168.7
27887.6
27607.9
27329.7
27052.9
26777.7
26503.9
26231.5
25960.6
25691.2
25423.2
25156.5
24891.3
24627.5
24365
24103.9
23844.3
23586.1
23329.4
23074.1
22820.2
22567.9
22317
22067.7
21819.8
21573.4
21328.4
21084.8
20842.7
20602
20362.7
20124.7
19888.1
19652.9
19419
19186.4
18955.1
18725
18496.3
18268.7
18042.4
17817.3
17593.4
17370.6
17148.9
16928.2
16708.6
16489.9
16272.2
16055.3
15839.1
15623.7
15409
15194.7
14980.9
14767.5
14554.2
14340.9
14127.6
13914
13699.9
13485.1
13269.3
13052.3
12833.6
12613
12390
12164
11934.4
11700.5
11461.3
11215.7
10962.2
10698.7
10422
10126
9800.78
9410.75
8994.35
82035.5
79644.6
77863.1
76479
75352.4
74386.8
73523.3
72729
71985.4
71281.2
70609.3
69964.8
69344.2
68744.3
68163
67598.3
67048.3
66511.6
65986.7
65472.3
64967.5
64471.4
63983.1
63501.9
63027.4
62558.9
62096.1
61638.5
61185.9
60737.9
60294.2
59854.6
59418.9
58986.9
58558.3
58133
57710.8
57291.5
56875.1
56461.3
56050.1
55641.3
55234.9
54830.6
54428.5
54028.4
53630.3
53234.1
52839.7
52447
52056.1
51666.8
51279.2
50893.1
50508.6
50125.6
49744
49364
48985.4
48608.3
48232.7
47858.5
47485.7
47114.4
46744.5
46376.2
46009.3
45643.8
45279.8
44917.3
44556.2
44196.5
43838.4
43481.7
43126.5
42772.8
42420.6
42069.9
41720.7
41372.9
41026.7
40681.9
40338.6
39996.8
39656.5
39317.8
38980.6
38645
38311
37978.6
37647.8
37318.6
36991.1
36665.1
36340.8
36018.1
35697
35377.5
35059.5
34743
34428
34114.5
33802.4
33491.9
33182.8
32875.2
32569.2
32264.7
31961.8
31660.5
31360.9
31062.8
30766.3
30471.5
30178.3
29886.6
29596.5
29308
29021
28735.5
28451.4
28168.8
27887.7
27608.1
27329.9
27053.2
26777.9
26504.1
26231.8
25960.9
25691.4
25423.4
25156.7
24891.5
24627.6
24365.1
24104
23844.4
23586.1
23329.3
23074
22820.1
22567.8
22316.9
22067.5
21819.5
21573
21328
21084.4
20842.2
20601.4
20362
20123.9
19887.2
19651.8
19417.7
19185
18953.5
18723.2
18494.2
18266.4
18039.8
17814.4
17590.1
17366.8
17144.7
16923.5
16703.3
16484
16265.5
16047.9
15830.9
15614.5
15398.7
15183.3
14968.2
14753.3
14538.4
14323.5
14108.2
13892.4
13675.9
13458.4
13239.7
13019.3
12797
12572.3
12344.6
12113.3
11877.7
11637
11389.9
11135
10870.4
10593.4
10299.8
9981.36
9623.38
9182.04
8679.94
82529.6
80230.9
78398.9
76942.4
75746.4
74722
73810.7
72977.6
72201.9
71470.9
70776.1
70112
69474.2
68859.4
68264.9
67688.6
67128.3
66582.4
66049.3
65527.7
65016.4
64514.5
64021.1
63535.4
63056.8
62584.7
62118.7
61658.3
61203.1
60752.8
60307.1
59865.7
59428.4
58994.9
58565
58138.6
57715.3
57295.2
56878
56463.5
56051.6
55642.3
55235.3
54830.6
54428.1
54027.7
53629.3
53232.8
52838.2
52445.4
52054.3
51664.9
51277.1
50891
50506.4
50123.3
49741.8
49361.8
48983.2
48606.1
48230.4
47856.3
47483.6
47112.3
46742.5
46374.2
46007.4
45642
45278
44915.6
44554.6
44195
43836.9
43480.4
43125.2
42771.6
42419.5
42068.8
41719.6
41371.9
41025.7
40680.9
40337.6
39995.9
39655.6
39316.9
38979.8
38644.2
38310.3
37977.9
37647.2
37318.1
36990.6
36664.7
36340.4
36017.8
35696.7
35377.2
35059.2
34742.7
34427.7
34114.2
33802.2
33491.6
33182.6
32875
32569
32264.5
31961.7
31660.4
31360.7
31062.7
30766.3
30471.5
30178.3
29886.6
29596.6
29308
29021
28735.5
28451.5
28169
27887.9
27608.3
27330.1
27053.4
26778.1
26504.4
26232
25961.1
25691.7
25423.6
25156.9
24891.7
24627.7
24365.2
24104.1
23844.4
23586.1
23329.3
23073.9
22820
22567.6
22316.7
22067.2
21819.2
21572.7
21327.6
21083.9
20841.7
20600.8
20361.3
20123.1
19886.3
19650.7
19416.5
19183.5
18951.8
18721.4
18492.1
18264.1
18037.2
17811.4
17586.7
17363
17140.4
16918.7
16697.9
16478
16258.9
16040.4
15822.6
15605.3
15388.4
15171.8
14955.4
14739.1
14522.6
14305.9
14088.6
13870.7
13651.8
13431.7
13210
12986.3
12760.3
12531.5
12299.2
12062.7
11821.3
11573.8
11319
11055.1
10779.9
10490.1
10180.6
9841.94
9456.13
8980.71
8435.51
82898
80719.1
78884.9
77382.3
76130
75052.9
74096.6
73225.9
72418.8
71661.2
70943.8
70260
69605.2
68975.4
68367.7
67779.6
67208.9
66653.7
66112.4
65583.5
65065.7
64558
64059.4
63569.1
63086.4
62610.7
62141.5
61678.2
61220.4
60767.8
60320.1
59876.9
59437.9
59003
58571.8
58144.2
57719.9
57298.8
56880.8
56465.6
56053.1
55643.2
55235.7
54830.6
54427.7
54026.9
53628.2
53231.5
52836.6
52443.6
52052.4
51662.8
51275
50888.8
50504.1
50121
49739.4
49359.4
48980.8
48603.7
48228.1
47854
47481.3
47110.1
46740.4
46372.1
46005.4
45640.1
45276.2
44913.8
44552.9
44193.4
43835.5
43479
43123.9
42770.3
42418.3
42067.6
41718.5
41370.8
41024.6
40679.9
40336.6
39994.9
39654.7
39316
38978.9
38643.4
38309.5
37977.2
37646.5
37317.5
36990
36664.2
36340
36017.4
35696.3
35376.8
35058.8
34742.4
34427.4
34113.9
33801.9
33491.3
33182.3
32874.7
32568.7
32264.3
31961.4
31660.2
31360.6
31062.5
30766.1
30471.4
30178.2
29886.6
29596.5
29308
29021.1
28735.6
28451.6
28169.1
27888
27608.4
27330.3
27053.6
26778.4
26504.6
26232.2
25961.4
25691.9
25423.8
25157.1
24891.8
24627.8
24365.3
24104.1
23844.4
23586.1
23329.2
23073.8
22819.9
22567.4
22316.5
22067
21818.9
21572.4
21327.2
21083.5
20841.1
20600.1
20360.5
20122.2
19885.3
19649.6
19415.2
19182.1
18950.2
18719.5
18490
18261.7
18034.5
17808.3
17583.3
17359.2
17136.1
16913.9
16692.6
16472
16252.1
16032.9
15814.2
15595.9
15378
15160.2
14942.5
14724.7
14506.6
14288.1
14068.9
13848.8
13627.5
13404.7
13180.1
12953.1
12723.5
12490.5
12253.7
12012.1
11764.9
11510.8
11248.5
10976
10690.7
10388.9
10065
9708.84
9301.82
8809.68
8259.77
83184.4
81125.4
79316.9
77790.4
76495.9
75374.1
74377.1
73471.2
72634.1
71850.8
71111.2
70408.1
69736.3
69091.6
68470.8
67871.1
67290
66725.6
66176
65639.7
65115.4
64601.8
64098.1
63603.1
63116.3
62637
62164.4
61698.2
61237.8
60782.9
60333.1
59888.1
59447.5
59011
58578.5
58149.8
57724.5
57302.5
56883.6
56467.6
56054.5
55644
55236
54830.4
54427.1
54026.1
53627
53230
52835
52441.8
52050.4
51660.7
51272.8
50886.4
50501.7
50118.6
49737
49357
48978.4
48601.3
48225.7
47851.6
47479
47107.9
46738.2
46370
46003.3
45638.1
45274.3
44912
44551.2
44191.8
43833.9
43477.5
43122.5
42769
42417
42066.4
41717.3
41369.7
41023.5
40678.8
40335.6
39993.9
39653.7
39315.1
38978
38642.6
38308.7
37976.5
37645.8
37316.8
36989.4
36663.7
36339.5
36016.9
35695.9
35376.4
35058.5
34742
34427
34113.6
33801.5
33491
33182
32874.4
32568.4
32264
31961.2
31660
31360.4
31062.4
30766
30471.2
30178.1
29886.5
29596.5
29308
29021.1
28735.6
28451.6
28169.2
27888.1
27608.6
27330.4
27053.8
26778.5
26504.8
26232.4
25961.5
25692
25424
25157.2
24891.9
24627.9
24365.3
24104.1
23844.4
23586
23329.1
23073.7
22819.7
22567.3
22316.3
22066.7
21818.6
21572
21326.8
21083
20840.6
20599.5
20359.8
20121.4
19884.3
19648.5
19413.9
19180.6
18948.5
18717.6
18487.9
18259.3
18031.8
17805.3
17579.8
17355.3
17131.8
16909.1
16687.1
16465.9
16245.3
16025.3
15805.7
15586.5
15367.5
15148.5
14929.5
14710.3
14490.6
14270.3
14049.2
13826.9
13603.2
13377.7
13150.1
12919.9
12686.6
12449.6
12208.2
11961.5
11708.6
11448.1
11178.5
10897.7
10602.8
10289.9
9953.19
9582.6
9161.02
8664.83
8130.3
83417.5
81466
79697.3
78164
76840.4
75682.5
74650.1
73712
72846.7
72038.7
71277.6
70555.6
69867.3
69207.9
68574.1
67962.7
67371.3
66797.7
66239.8
65696.2
65165.3
64645.9
64136.9
63637.4
63146.4
62663.4
62187.6
61718.4
61255.4
60798.2
60346.3
59899.4
59457.1
59019.2
58585.4
58155.4
57729
57306.1
56886.4
56469.7
56055.9
55644.8
55236.3
54830.3
54426.6
54025.1
53625.8
53228.6
52833.3
52439.9
52048.3
51658.5
51270.5
50884.1
50499.3
50116.1
49734.5
49354.4
48975.9
48598.8
48223.3
47849.2
47476.6
47105.5
46735.9
46367.8
46001.2
45636
45272.4
44910.2
44549.4
44190.1
43832.3
43476
43121.1
42767.6
42415.6
42065.1
41716.1
41368.4
41022.3
40677.6
40334.4
39992.8
39652.6
39314.1
38977.1
38641.7
38307.8
37975.7
37645.1
37316.2
36988.8
36663.1
36339
36016.4
35695.4
35376
35058
34741.6
34426.6
34113.2
33801.1
33490.6
33181.6
32874.1
32568.1
32263.7
31960.9
31659.7
31360.1
31062.2
30765.8
30471.1
30178
29886.4
29596.4
29308
29021
28735.6
28451.7
28169.2
27888.2
27608.7
27330.6
27053.9
26778.7
26504.9
26232.6
25961.7
25692.2
25424.1
25157.3
24891.9
24627.9
24365.3
24104.1
23844.3
23586
23329
23073.6
22819.6
22567.1
22316
22066.4
21818.3
21571.6
21326.3
21082.5
20840
20598.8
20359
20120.5
19883.3
19647.3
19412.6
19179.1
18946.9
18715.7
18485.7
18256.8
18029
17802.2
17576.4
17351.5
17127.4
16904.2
16681.7
16459.8
16238.5
16017.7
15797.3
15577.1
15357
15136.9
14916.5
14695.9
14474.6
14252.5
14029.4
13805
13578.9
13350.7
13120.2
12886.7
12649.8
12408.8
12162.9
11911.3
11652.8
11386.1
11109.4
10820.7
10516.9
10193.9
9846.12
9464.24
9034
8541.81
8028.61
83613.4
81754.4
80030.9
78502.9
77161.4
75975.8
74913.3
73946.6
73055.1
72223.9
71442.2
70702.1
69997.5
69323.8
68677.1
68054.3
67452.7
66869.8
66303.8
65752.9
65215.4
64690.2
64176
63671.8
63176.7
62689.9
62210.8
61738.7
61273.1
60813.5
60359.5
59910.7
59466.8
59027.4
58592.2
58161.1
57733.6
57309.8
56889.2
56471.7
56057.3
55645.6
55236.6
54830.1
54426
54024.2
53624.6
53227
52831.5
52437.9
52046.2
51656.3
51268.1
50881.7
50496.8
50113.6
49732
49351.9
48973.3
48596.3
48220.8
47846.7
47474.2
47103.2
46733.6
46365.6
45999
45634
45270.4
44908.3
44547.6
44188.4
43830.7
43474.4
43119.6
42766.2
42414.3
42063.8
41714.8
41367.2
41021.1
40676.5
40333.3
39991.7
39651.6
39313
38976.1
38640.7
38307
37974.9
37644.3
37315.5
36988.2
36662.5
36338.4
36015.9
35694.9
35375.5
35057.6
34741.1
34426.2
34112.7
33800.7
33490.2
33181.2
32873.7
32567.7
32263.4
31960.6
31659.4
31359.9
31061.9
30765.6
30470.9
30177.8
29886.3
29596.3
29307.9
29021
28735.6
28451.7
28169.2
27888.3
27608.7
27330.7
27054
26778.8
26505.1
26232.8
25961.8
25692.3
25424.2
25157.4
24892
24628
24365.3
24104.1
23844.3
23585.9
23328.9
23073.4
22819.4
22566.8
22315.8
22066.1
21818
21571.2
21325.9
21082
20839.4
20598.1
20358.2
20119.6
19882.3
19646.2
19411.3
19177.7
18945.2
18713.8
18483.6
18254.4
18026.3
17799.1
17572.9
17347.6
17123.1
16899.3
16676.2
16453.7
16231.7
16010.1
15788.8
15567.6
15346.5
15125.2
14903.6
14681.4
14458.6
14234.8
14009.7
13783.1
13554.6
13323.9
13090.4
12853.8
12613.3
12368.3
12118.1
11861.6
11597.7
11325
11041.7
10745.5
10433.5
10101.7
9744.63
9354.44
8920.22
8436.49
7944.78
83781.9
82001.5
80324.1
78809.3
77458.9
76252.8
75165.7
74173.9
73258.7
72405.8
71604.6
70846.9
70126.6
69438.9
68779.7
68145.7
67533.9
66942
66367.8
65809.6
65265.6
64734.6
64215.1
63706.3
63207
62716.6
62234.1
61759.1
61290.8
60828.9
60372.8
59922.1
59476.5
59035.6
58599.1
58166.8
57738.3
57313.5
56892
56473.8
56058.7
55646.4
55236.9
54829.9
54425.4
54023.2
53623.3
53225.5
52829.8
52436
52044.1
51654.1
51265.8
50879.2
50494.3
50111
49729.4
49349.3
48970.7
48593.7
48218.2
47844.2
47471.7
47100.7
46731.3
46363.3
45996.8
45631.8
45268.3
44906.3
44545.8
44186.7
43829
43472.8
43118.1
42764.7
42412.9
42062.4
41713.4
41365.9
41019.8
40675.2
40332.1
39990.5
39650.4
39312
38975
38639.8
38306.1
37974
37643.6
37314.7
36987.5
36661.9
36337.8
36015.3
35694.4
35375
35057.1
34740.6
34425.7
34112.2
33800.2
33489.7
33180.7
32873.2
32567.3
32263
31960.2
31659.1
31359.6
31061.6
30765.4
30470.7
30177.6
29886.1
29596.2
29307.8
29020.9
28735.5
28451.6
28169.2
27888.3
27608.8
27330.7
27054.1
26779
26505.2
26232.9
25961.9
25692.4
25424.2
25157.4
24892
24627.9
24365.3
24104
23844.2
23585.7
23328.8
23073.2
22819.2
22566.6
22315.5
22065.8
21817.6
21570.8
21325.4
21081.4
20838.8
20597.5
20357.4
20118.7
19881.2
19645
19410
19176.2
18943.5
18711.9
18481.4
18252
18023.5
17796
17569.4
17343.7
17118.7
16894.4
16670.8
16447.6
16224.9
16002.5
15780.3
15558.2
15336
15113.5
14890.6
14667
14442.6
14217
13990
13761.3
13530.5
13297.2
13060.9
12821
12577.1
12328.3
12073.8
11812.6
11543.6
11265.1
10975.5
10672.5
10353.1
10013.6
9649.07
9253.19
8818.41
8345.26
7873.02
83929.5
82216.1
80583.1
79086.2
77733.5
76513.3
75406.3
74392.9
73456.5
72583.6
71764
70989.7
70254.3
69553
68881.5
68236.5
67614.8
67013.9
66431.7
65866.3
65315.8
64779
64254.4
63740.9
63237.5
62743.3
62257.6
61779.6
61308.7
60844.4
60386.2
59933.7
59486.4
59044
58606.1
58172.6
57743
57317.2
56894.9
56476
56060.2
55647.3
55237.2
54829.8
54424.9
54022.3
53622.1
53224
52828
52434
52042
51651.8
51263.4
50876.7
50491.8
50108.5
49726.8
49346.6
48968.1
48591.1
48215.6
47841.7
47469.2
47098.3
46728.9
46361
45994.6
45629.7
45266.3
44904.3
44543.9
44184.9
43827.3
43471.2
43116.5
42763.2
42411.4
42061
41712.1
41364.6
41018.5
40673.9
40330.9
39989.3
39649.3
39310.8
38974
38638.8
38305.1
37973.1
37642.8
37314
36986.8
36661.2
36337.2
36014.8
35693.8
35374.4
35056.5
34740.1
34425.1
34111.7
33799.7
33489.2
33180.2
32872.8
32566.9
32262.6
31959.8
31658.7
31359.2
31061.3
30765.1
30470.4
30177.4
29885.9
29596
29307.6
29020.8
28735.4
28451.6
28169.2
27888.3
27608.8
27330.8
27054.2
26779
26505.3
26233
25962
25692.5
25424.3
25157.4
24892
24627.9
24365.2
24103.9
23844
23585.6
23328.6
23073
22819
22566.4
22315.2
22065.5
21817.3
21570.4
21325
21080.9
20838.2
20596.8
20356.6
20117.8
19880.2
19643.8
19408.7
19174.6
18941.8
18710
18479.2
18249.5
18020.8
17792.9
17566
17339.8
17114.3
16889.5
16665.3
16441.5
16218.1
15994.9
15771.9
15548.8
15325.5
15101.9
14877.7
14652.7
14426.7
14199.4
13970.5
13739.7
13506.6
13270.7
13031.6
12788.7
12541.3
12288.8
12030.2
11764.5
11490.5
11206.7
10911.3
10601.9
10276
9929.97
9559.67
9160.28
8727.28
8265.2
7809.6
84060.9
82404.7
80813.2
79336.8
77986.8
76757.5
75634.9
74603.2
73648
72756.8
71920.1
71129.9
70380.1
69665.7
68982.4
68326.5
67695.1
67085.5
66495.4
65922.8
65366
64823.4
64293.6
63775.5
63268
62770.2
62281.1
61800.2
61326.7
60860
60399.7
59945.3
59496.3
59052.4
58613.3
58178.5
57747.9
57321.1
56898
56478.3
56061.7
55648.3
55237.6
54829.7
54424.4
54021.5
53620.9
53222.6
52826.3
52432.1
52039.9
51649.6
51261
50874.3
50489.2
50105.9
49724.1
49344
48965.5
48588.5
48213
47839.1
47466.7
47095.8
46726.5
46358.6
45992.3
45627.5
45264.2
44902.3
44542
44183.1
43825.6
43469.5
43114.9
42761.7
42409.9
42059.6
41710.6
41363.2
41017.2
40672.6
40329.6
39988.1
39648.1
39309.7
38972.9
38637.7
38304.2
37972.2
37641.9
37313.2
36986.1
36660.6
36336.6
36014.2
35693.2
35373.9
35055.9
34739.5
34424.6
34111.1
33799.1
33488.6
33179.7
32872.2
32566.4
32262.1
31959.4
31658.3
31358.9
31061
30764.8
30470.2
30177.1
29885.7
29595.8
29307.5
29020.6
28735.3
28451.5
28169.2
27888.3
27608.8
27330.8
27054.3
26779.1
26505.4
26233
25962.1
25692.5
25424.3
25157.4
24891.9
24627.8
24365.1
24103.8
23843.9
23585.4
23328.4
23072.8
22818.7
22566.1
22314.9
22065.2
21816.9
21570
21324.5
21080.3
20837.5
20596
20355.8
20116.9
19879.2
19642.7
19407.3
19173.1
18940
18708
18477.1
18247.1
18018
17789.8
17562.5
17335.9
17110
16884.7
16659.9
16435.4
16211.3
15987.4
15763.5
15539.4
15315.1
15090.3
14864.8
14638.5
14410.9
14181.9
13951.1
13718.3
13482.9
13244.5
13002.6
12756.7
12506.1
12249.9
11987.4
11717.4
11438.7
11149.8
10849
10534
10202.3
9850.9
9476.28
9075.13
8645.39
8193.99
7752.29
84179.3
82572.3
81018.9
79564
78220.1
76985.8
75851.4
74804.4
73832.6
72924.9
72072.2
71267.2
70503.7
69776.7
69081.9
68415.6
67774.7
67156.5
66558.7
65979.1
65416
64867.7
64332.8
63810.2
63298.6
62797
62304.7
61820.9
61344.8
60875.8
60413.4
59957.1
59506.4
59061
58620.5
58184.6
57752.9
57325.1
56901.1
56480.7
56063.5
55649.4
55238.2
54829.8
54424
54020.8
53619.9
53221.2
52824.7
52430.3
52037.9
51647.4
51258.7
50871.9
50486.8
50103.3
49721.6
49341.4
48962.8
48585.8
48210.4
47836.5
47464.2
47093.3
46724
46356.3
45990
45625.3
45262
44900.3
44540
44181.2
43823.8
43467.8
43113.3
42760.1
42408.4
42058.1
41709.2
41361.8
41015.8
40671.3
40328.3
39986.8
39646.9
39308.6
38971.8
38636.7
38303.2
37971.3
37641.1
37312.4
36985.4
36659.9
36335.9
36013.5
35692.6
35373.2
35055.3
34738.9
34424
34110.5
33798.5
33488.1
33179.1
32871.7
32565.9
32261.6
31959
31657.9
31358.5
31060.7
30764.5
30469.9
30176.9
29885.4
29595.6
29307.3
29020.5
28735.2
28451.4
28169.1
27888.2
27608.8
27330.8
27054.3
26779.1
26505.4
26233
25962.1
25692.5
25424.3
25157.4
24891.9
24627.7
24365
24103.6
23843.7
23585.2
23328.2
23072.6
22818.5
22565.8
22314.6
22064.9
21816.5
21569.6
21324
21079.8
20836.9
20595.3
20355
20116
19878.1
19641.5
19406
19171.6
18938.3
18706.1
18474.9
18244.6
18015.3
17786.7
17559
17332
17105.6
16879.8
16654.4
16429.4
16204.6
15979.9
15755.1
15530.1
15304.8
15078.8
14852.1
14624.3
14395.3
14164.6
13932
13697.1
13459.4
13218.6
12974.1
12725.2
12471.4
12211.7
11945.4
11671.3
11388.2
11094.6
10788.8
10468.8
10132.2
9776.42
9398.76
8997.18
8571.53
8129.96
7699.75
84286.9
82722.6
81204.1
79770.7
78435.2
77199
76055.9
74996.4
74010.1
73087.5
72220.3
71401.3
70624.8
69885.8
69179.9
68503.5
67853.4
67226.8
66621.4
66034.9
65465.6
64911.8
64371.9
63844.7
63329.1
62823.9
62328.4
61841.6
61362.9
60891.6
60427.1
59969
59516.6
59069.8
58627.9
58190.8
57758
57329.3
56904.5
56483.2
56065.3
55650.6
55238.9
54830
54423.8
54020.2
53619
53220
52823.3
52428.6
52036
51645.4
51256.6
50869.6
50484.4
50100.9
49719.1
49338.9
48960.3
48583.3
48207.9
47834
47461.7
47090.9
46721.6
46353.9
45987.7
45623.1
45259.9
44898.3
44538.1
44179.3
43822
43466.1
43111.6
42758.5
42406.8
42056.5
41707.7
41360.3
41014.3
40669.9
40326.9
39985.5
39645.6
39307.4
38970.7
38635.6
38302.2
37970.4
37640.2
37311.6
36984.6
36659.2
36335.2
36012.9
35692
35372.6
35054.7
34738.3
34423.3
34109.9
33797.9
33487.5
33178.5
32871.1
32565.3
32261.1
31958.5
31657.5
31358.1
31060.3
30764.1
30469.5
30176.6
29885.2
29595.3
29307
29020.3
28735
28451.3
28169
27888.2
27608.8
27330.8
27054.3
26779.1
26505.4
26233
25962.1
25692.4
25424.2
25157.3
24891.8
24627.6
24364.8
24103.5
23843.5
23585
23328
23072.4
22818.2
22565.5
22314.3
22064.5
21816.1
21569.1
21323.5
21079.2
20836.3
20594.6
20354.2
20115
19877.1
19640.3
19404.6
19170.1
18936.6
18704.2
18472.7
18242.2
18012.5
17783.7
17555.6
17328.2
17101.3
16875
16649
16423.4
16197.9
15972.4
15746.8
15520.9
15294.5
15067.5
14839.5
14610.3
14379.8
14147.4
13913
13676.1
13436.3
13193.1
12946
12694.3
12437.3
12174.3
11904.4
11626.4
11339.1
11041.2
10730.9
10406.4
10065.7
9706.39
9326.73
8925.71
8504.58
8071.85
7651.22
84385.5
82858.5
81371.5
79959.2
78633.5
77397.8
76248.7
75179
74180.3
73244.3
72363.7
71531.8
70743
69992.5
69276.1
68589.9
67930.9
67296.2
66683.4
66090.2
65514.8
64955.5
64410.6
63879
63359.4
62850.7
62351.9
61862.3
61381
60907.4
60440.9
59980.9
59526.9
59078.6
58635.4
58197.1
57763.2
57333.6
56907.9
56485.9
56067.3
55652
55239.8
54830.4
54423.8
54019.8
53618.2
53219
52822
52427.1
52034.3
51643.5
51254.6
50867.5
50482.1
50098.6
49716.7
49336.4
48957.8
48580.8
48205.4
47831.5
47459.2
47088.5
46719.3
46351.6
45985.5
45620.9
45257.8
44896.2
44536.1
44177.5
43820.2
43464.3
43109.9
42756.8
42405.2
42055
41706.1
41358.8
41012.9
40668.5
40325.5
39984.2
39644.4
39306.1
38969.5
38634.5
38301.2
37969.5
37639.3
37310.8
36983.8
36658.4
36334.5
36012.2
35691.3
35371.9
35054
34737.6
34422.7
34109.2
33797.3
33486.8
33177.9
32870.6
32564.8
32260.6
31958
31657
31357.6
31059.9
30763.7
30469.2
30176.2
29884.9
29595
29306.8
29020.1
28734.8
28451.1
28168.9
27888.1
27608.7
27330.8
27054.3
26779.1
26505.4
26233
25962
25692.4
25424.1
25157.2
24891.6
24627.4
24364.6
24103.3
23843.3
23584.8
23327.7
23072.1
22817.9
22565.2
22314
22064.1
21815.7
21568.7
21323
21078.6
20835.6
20593.9
20353.4
20114.1
19876
19639.1
19403.3
19168.6
18934.9
18702.2
18470.5
18239.7
18009.8
17780.6
17552.2
17324.3
17097
16870.2
16643.7
16417.4
16191.3
15965
15738.6
15511.8
15284.4
15056.2
14827
14596.5
14364.5
14130.5
13894.3
13655.5
13413.5
13168
12918.3
12663.9
12404
12137.8
11864.4
11582.7
11291.6
10989.6
10675.3
10346.9
10002.6
9640.71
9259.91
8860.15
8443.64
8018.77
7606.21
84476.6
82982.3
81523.8
80131.6
78816.6
77583.2
76430.1
75352.3
74343
73395.3
72502.5
71658.5
70858.2
70096.9
69370.3
68674.8
68007.1
67364.5
66744.5
66144.8
65563.4
64998.7
64449.1
63913.1
63389.5
62877.3
62375.4
61882.9
61399.1
60923.2
60454.7
59992.8
59537.2
59087.4
58642.9
58203.4
57768.6
57338
56911.5
56488.7
56069.5
55653.6
55240.8
54831
54423.9
54019.5
53617.6
53218.1
52820.8
52425.8
52032.8
51641.8
51252.7
50865.5
50480.1
50096.4
49714.4
49334.2
48955.5
48578.5
48203
47829.2
47456.9
47086.2
46717
46349.4
45983.3
45618.8
45255.8
44894.3
44534.2
44175.6
43818.4
43462.6
43108.2
42755.2
42403.6
42053.4
41704.6
41357.3
41011.4
40667
40324.1
39982.8
39643
39304.9
38968.3
38633.4
38300.1
37968.5
37638.4
37309.9
36983
36657.6
36333.8
36011.5
35690.6
35371.2
35053.3
34736.9
34422
34108.5
33796.6
33486.2
33177.3
32869.9
32564.2
32260
31957.5
31656.5
31357.2
31059.4
30763.3
30468.8
30175.9
29884.5
29594.7
29306.5
29019.8
28734.6
28450.9
28168.7
27887.9
27608.6
27330.7
27054.2
26779.1
26505.3
26232.9
25961.9
25692.3
25424
25157
24891.4
24627.2
24364.4
24103
23843.1
23584.5
23327.5
23071.8
22817.6
22564.9
22313.6
22063.7
21815.3
21568.2
21322.5
21078.1
20835
20593.1
20352.5
20113.1
19874.9
19637.9
19401.9
19167
18933.2
18700.3
18468.4
18237.3
18007.1
17777.6
17548.8
17320.5
17092.8
16865.5
16638.4
16411.5
16184.7
15957.7
15730.5
15502.8
15274.4
15045.1
14814.7
14582.9
14349.4
14113.8
13875.9
13635.1
13391.1
13143.3
12891.2
12634.1
12371.4
12102.1
11825.4
11540.3
11245.5
10939.9
10622
10290.2
9943.02
9579.13
9197.87
8799.84
8387.91
7970.02
7564.37
84561.1
83095.6
81662.8
80289.7
78985.7
77756
76600.6
75516.4
74498.2
73540
72636.2
71781.2
70970.1
70198.5
69462.2
68757.7
68081.8
67431.5
66804.5
66198.4
65611.3
65041.4
64487
63946.7
63419.3
62903.6
62398.6
61903.4
61417.1
60939
60468.4
60004.8
59547.6
59096.3
58650.5
58209.9
57774
57342.5
56915.1
56491.6
56071.7
55655.2
55241.9
54831.6
54424.2
54019.4
53617.2
53217.4
52819.8
52424.5
52031.3
51640.2
51251
50863.6
50478.1
50094.4
49712.4
49332
48953.3
48576.3
48200.8
47827
47454.7
47084
46714.8
46347.3
45981.2
45616.8
45253.8
44892.3
44532.4
44173.8
43816.7
43460.9
43106.5
42753.5
42402
42051.8
41703
41355.7
41009.9
40665.6
40322.7
39981.4
39641.7
39303.6
38967.2
38632.3
38299.1
37967.5
37637.5
37309.1
36982.2
36656.9
36333
36010.7
35689.9
35370.5
35052.6
34736.2
34421.3
34107.9
33795.9
33485.5
33176.6
32869.3
32563.6
32259.4
31956.9
31656
31356.7
31059
30762.9
30468.4
30175.5
29884.2
29594.4
29306.2
29019.5
28734.4
28450.7
28168.5
27887.8
27608.5
27330.6
27054.1
26779
26505.2
26232.8
25961.8
25692.1
25423.8
25156.9
24891.3
24627
24364.2
24102.8
23842.8
23584.3
23327.2
23071.5
22817.3
22564.6
22313.3
22063.4
21814.9
21567.7
21321.9
21077.5
20834.3
20592.4
20351.7
20112.2
19873.9
19636.7
19400.6
19165.5
18931.5
18698.4
18466.2
18234.9
18004.4
17774.6
17545.4
17316.8
17088.6
16860.8
16633.2
16405.7
16178.2
15950.5
15722.5
15493.9
15264.5
15034.2
14802.6
14569.5
14334.6
14097.5
13857.8
13615.2
13369.2
13119.2
12864.7
12605.1
12339.6
12067.4
11787.6
11499.2
11201.2
10892.2
10571.1
10236.3
9886.79
9521.5
9140.3
8744.31
8336.78
7925.07