/*--------------------------------*- C++ -*----------------------------------*\
| =========                 |                                                 |
| \\      /  F ield         | OpenFOAM: The Open Source CFD Toolbox           |
|  \\    /   O peration     | Version:  2.4.0                                 |
|   \\  /    A nd           | Web:      www.OpenFOAM.org                      |
|    \\/     M anipulation  |                                                 |
\*---------------------------------------------------------------------------*/
FoamFile
{
    version     2.0;
    format      ascii;
    class       volScalarField;
    location    "0.067";
    object      nuSgs;
}
// * * * * * * * * * * * * * * * * * * * * * * * * * * * * * * * * * * * * * //

dimensions      [0 2 -1 0 0 0 0];

internalField   nonuniform List<scalar> 
17600
(
0.00101292
0.000904371
0.000752428
0.000659025
0.000607699
0.000570819
0.000546196
0.000521417
0.000509597
0.000490841
0.000485785
0.000471472
0.000470333
0.000456278
0.000457942
0.000447805
0.00044393
0.000443112
0.000433049
0.00042445
0.00070563
0.000827685
0.000803194
0.000746591
0.000699053
0.000658384
0.000631623
0.000603032
0.000589856
0.000567288
0.000560589
0.000544415
0.000541314
0.000526826
0.000527148
0.000516602
0.000513178
0.000511269
0.000505154
0.000507871
0.000382608
0.000602161
0.000664158
0.00066106
0.000645723
0.000617269
0.00059857
0.000574356
0.000564107
0.000543926
0.000537452
0.000522892
0.000519316
0.000506615
0.000505782
0.000496813
0.000494264
0.00048938
0.000487138
0.000496651
0.000151679
0.000363684
0.000460894
0.000505839
0.000527754
0.0005263
0.000523506
0.000512573
0.000507522
0.000495048
0.000490304
0.000479545
0.000476971
0.000467046
0.000466127
0.000459346
0.000457528
0.000452394
0.000448974
0.000461579
5.37253e-05
0.000173065
0.000266414
0.00032385
0.000372883
0.000394424
0.000415116
0.00041837
0.000424163
0.000422922
0.000422431
0.000418757
0.000418784
0.000413679
0.000413358
0.000410209
0.000409111
0.000406331
0.000402323
0.000407859
1.7461e-05
7.02242e-05
0.000127789
0.000165169
0.00021887
0.000246164
0.00028137
0.000298544
0.000314872
0.000326402
0.00033386
0.000336949
0.000344317
0.00034442
0.000345512
0.000348089
0.000348256
0.00034845
0.00034826
0.000348204
5.58905e-06
2.65973e-05
5.17476e-05
7.05678e-05
0.000104381
0.00012384
0.000155574
0.000178431
0.000194083
0.000216021
0.000227696
0.000238022
0.000250993
0.000258972
0.000261633
0.000271723
0.000274559
0.00027766
0.000280774
0.000286041
2.34216e-06
9.86692e-06
1.91056e-05
2.64382e-05
4.07527e-05
5.15404e-05
6.7609e-05
8.84763e-05
9.81848e-05
0.00011718
0.000126957
0.00014094
0.000151711
0.000166696
0.000169985
0.000183501
0.000189346
0.000195842
0.000200121
0.000215036
1.74633e-06
4.0236e-06
7.54924e-06
9.69505e-06
1.41135e-05
1.85397e-05
2.43974e-05
3.52274e-05
4.08956e-05
5.16866e-05
5.77942e-05
6.78018e-05
7.4103e-05
8.7988e-05
9.07954e-05
0.000101697
0.000108666
0.000115237
0.00011863
0.000136121
1.62765e-06
2.31006e-06
3.96154e-06
4.43396e-06
5.5858e-06
6.79298e-06
8.49974e-06
1.23388e-05
1.45306e-05
1.86472e-05
2.29726e-05
2.52661e-05
2.94138e-05
3.83672e-05
3.92076e-05
4.49083e-05
5.11889e-05
5.45144e-05
5.63042e-05
6.89549e-05
1.5918e-06
1.92919e-06
2.92073e-06
3.04735e-06
3.45805e-06
3.66469e-06
3.99101e-06
5.05001e-06
5.52425e-06
7.08791e-06
8.33248e-06
8.84407e-06
1.08577e-05
1.41636e-05
1.41545e-05
1.70225e-05
1.99643e-05
2.07221e-05
2.14771e-05
2.83157e-05
1.58374e-06
1.84337e-06
2.50885e-06
2.59214e-06
2.88692e-06
2.93079e-06
3.18044e-06
3.28346e-06
3.34606e-06
3.8437e-06
3.98368e-06
4.39463e-06
4.84535e-06
5.55152e-06
5.67105e-06
6.75591e-06
7.39675e-06
7.43846e-06
7.72699e-06
1.051e-05
1.55851e-06
1.86895e-06
2.18545e-06
2.3952e-06
2.60552e-06
2.63429e-06
2.90584e-06
2.885e-06
3.18039e-06
3.14086e-06
3.19065e-06
3.55834e-06
3.5575e-06
3.78614e-06
3.93191e-06
4.00661e-06
4.15329e-06
4.3046e-06
4.39952e-06
5.08503e-06
1.54547e-06
1.88119e-06
2.02793e-06
2.33026e-06
2.37253e-06
2.53291e-06
2.59074e-06
2.61646e-06
2.82546e-06
2.79931e-06
3.11582e-06
3.09123e-06
3.09698e-06
3.40936e-06
3.39556e-06
3.38357e-06
3.50396e-06
3.72164e-06
3.66723e-06
3.81081e-06
1.5302e-06
1.76149e-06
1.99791e-06
2.25103e-06
2.26042e-06
2.38616e-06
2.40461e-06
2.63911e-06
2.6154e-06
2.64544e-06
2.83144e-06
2.80817e-06
2.89119e-06
3.07398e-06
3.0283e-06
3.03971e-06
3.24776e-06
3.26224e-06
3.21197e-06
3.31275e-06
1.52004e-06
1.68452e-06
2.02792e-06
2.1012e-06
2.18421e-06
2.21303e-06
2.23117e-06
2.40144e-06
2.41277e-06
2.64062e-06
2.60787e-06
2.60357e-06
2.77794e-06
2.79739e-06
2.77816e-06
2.88694e-06
2.9957e-06
2.9449e-06
2.94498e-06
3.04749e-06
1.51473e-06
1.6629e-06
1.97597e-06
2.0404e-06
2.13173e-06
2.14257e-06
2.2444e-06
2.26176e-06
2.3182e-06
2.41232e-06
2.41701e-06
2.50629e-06
2.54685e-06
2.56138e-06
2.605e-06
2.73741e-06
2.72267e-06
2.71699e-06
2.77093e-06
2.84314e-06
1.51112e-06
1.65325e-06
1.89858e-06
2.04435e-06
2.06485e-06
2.06778e-06
2.11702e-06
2.15726e-06
2.31926e-06
2.31874e-06
2.3521e-06
2.45073e-06
2.43988e-06
2.44716e-06
2.55541e-06
2.57823e-06
2.59041e-06
2.67052e-06
2.67585e-06
2.69836e-06
1.508e-06
1.64584e-06
1.87143e-06
2.01587e-06
2.02969e-06
2.06672e-06
2.0953e-06
2.16104e-06
2.1837e-06
2.21827e-06
2.30584e-06
2.30437e-06
2.32595e-06
2.40073e-06
2.41473e-06
2.43258e-06
2.48365e-06
2.50093e-06
2.49877e-06
2.5288e-06
1.50704e-06
1.63797e-06
1.86259e-06
2.00912e-06
2.01638e-06
2.02916e-06
2.06061e-06
2.12139e-06
2.16239e-06
2.20802e-06
2.24141e-06
2.25662e-06
2.26191e-06
2.31071e-06
2.31531e-06
2.32813e-06
2.38569e-06
2.37702e-06
2.37579e-06
2.40203e-06
1.50739e-06
1.63485e-06
1.88524e-06
2.00238e-06
2.01108e-06
2.06006e-06
2.06797e-06
2.0874e-06
2.14366e-06
2.15492e-06
2.18032e-06
2.21098e-06
2.21452e-06
2.2251e-06
2.2401e-06
2.26651e-06
2.28378e-06
2.2948e-06
2.29527e-06
2.30546e-06
1.50839e-06
1.64289e-06
1.93314e-06
1.9657e-06
2.02975e-06
2.06768e-06
2.07848e-06
2.15852e-06
2.15455e-06
2.15722e-06
2.21849e-06
2.21771e-06
2.21172e-06
2.2467e-06
2.25129e-06
2.26147e-06
2.27176e-06
2.29648e-06
2.29725e-06
2.32248e-06
1.51146e-06
1.69858e-06
1.89313e-06
1.96402e-06
2.10972e-06
2.11584e-06
2.14371e-06
2.18355e-06
2.17052e-06
2.20961e-06
2.23997e-06
2.23428e-06
2.26095e-06
2.28568e-06
2.28346e-06
2.28923e-06
2.32238e-06
2.33906e-06
2.34284e-06
2.36005e-06
1.51603e-06
1.71147e-06
1.85011e-06
2.10952e-06
2.15784e-06
2.15893e-06
2.22044e-06
2.21092e-06
2.21648e-06
2.29354e-06
2.29042e-06
2.29378e-06
2.35092e-06
2.3558e-06
2.35726e-06
2.37857e-06
2.43252e-06
2.43418e-06
2.44111e-06
2.49965e-06
1.52174e-06
1.68406e-06
1.99582e-06
2.21655e-06
2.20731e-06
2.24569e-06
2.26321e-06
2.26907e-06
2.35461e-06
2.39011e-06
2.38656e-06
2.43071e-06
2.46188e-06
2.46812e-06
2.48642e-06
2.56396e-06
2.58013e-06
2.58307e-06
2.61201e-06
2.69793e-06
1.5301e-06
1.71805e-06
2.15306e-06
2.21734e-06
2.23718e-06
2.34116e-06
2.35199e-06
2.41913e-06
2.50616e-06
2.50811e-06
2.54018e-06
2.61893e-06
2.61951e-06
2.63407e-06
2.71064e-06
2.77592e-06
2.78152e-06
2.80309e-06
2.86803e-06
2.97136e-06
1.5419e-06
1.79047e-06
2.17007e-06
2.20481e-06
2.3825e-06
2.45518e-06
2.50374e-06
2.65469e-06
2.66202e-06
2.67248e-06
2.76771e-06
2.80392e-06
2.82276e-06
2.90717e-06
2.9927e-06
3.05332e-06
3.10216e-06
3.21375e-06
3.44529e-06
3.95745e-06
1.55025e-06
1.8075e-06
2.15575e-06
2.40048e-06
2.62749e-06
2.65566e-06
2.78075e-06
2.83165e-06
2.8504e-06
2.93383e-06
3.03599e-06
3.08683e-06
3.21602e-06
3.42598e-06
3.54975e-06
3.80358e-06
4.08994e-06
4.74715e-06
5.92857e-06
8.18045e-06
1.57555e-06
1.82779e-06
2.49816e-06
2.61748e-06
2.87257e-06
2.92619e-06
3.11846e-06
3.17008e-06
3.29291e-06
3.58886e-06
3.80062e-06
4.25681e-06
4.65264e-06
5.40655e-06
6.07957e-06
7.35378e-06
8.61953e-06
1.13954e-05
1.49109e-05
2.15078e-05
1.59381e-06
1.9244e-06
2.92271e-06
3.05777e-06
3.4674e-06
3.63682e-06
4.00007e-06
4.66062e-06
5.34742e-06
6.77269e-06
7.7201e-06
9.70431e-06
1.11149e-05
1.3875e-05
1.60619e-05
2.01751e-05
2.35217e-05
3.09708e-05
3.79358e-05
5.25567e-05
1.63478e-06
2.33061e-06
3.89976e-06
4.40492e-06
5.55467e-06
6.65919e-06
8.46784e-06
1.18408e-05
1.41908e-05
1.893e-05
2.17934e-05
2.76117e-05
3.1198e-05
3.83392e-05
4.30429e-05
5.22357e-05
5.84005e-05
7.24252e-05
8.31107e-05
0.000110116
1.75873e-06
4.05304e-06
7.46478e-06
9.70465e-06
1.40906e-05
1.83799e-05
2.45672e-05
3.48485e-05
4.05122e-05
5.17309e-05
5.79806e-05
7.01579e-05
7.66685e-05
8.95222e-05
9.69581e-05
0.000111436
0.000119951
0.000139259
0.000152112
0.000187444
2.35431e-06
9.88383e-06
1.90601e-05
2.65092e-05
4.07536e-05
5.14989e-05
6.91168e-05
8.72009e-05
9.80709e-05
0.00011718
0.000128201
0.000144694
0.000153599
0.000169428
0.000178522
0.000193862
0.000202561
0.000221442
0.000232964
0.000262219
5.59384e-06
2.65703e-05
5.17698e-05
7.07766e-05
0.000104315
0.000123884
0.000156844
0.00017636
0.000197396
0.000214551
0.000229939
0.000241523
0.000252437
0.000262339
0.000271091
0.000279908
0.000286551
0.000299151
0.000307013
0.00032581
1.74566e-05
7.00113e-05
0.000127865
0.000165761
0.000218459
0.000246678
0.000281721
0.000298224
0.000316489
0.000325863
0.00033576
0.000339225
0.000345475
0.000347597
0.00035217
0.000354015
0.000357951
0.000362413
0.000366846
0.00037511
5.37384e-05
0.00017236
0.000266975
0.000324052
0.000372854
0.000394885
0.000415112
0.000418588
0.000424664
0.000423053
0.000423228
0.00042007
0.000419632
0.000416361
0.000416105
0.000413385
0.00041362
0.000412309
0.000412759
0.000411968
0.000151784
0.000363433
0.000461405
0.000505908
0.000527862
0.000526461
0.00052349
0.00051279
0.000507575
0.000494935
0.000490488
0.000479718
0.000476587
0.000467945
0.000465477
0.000457993
0.000455695
0.000448713
0.000445036
0.000437616
0.000382914
0.000601997
0.000664486
0.000661145
0.000645788
0.000617208
0.000598321
0.000574524
0.000563572
0.000543627
0.000536919
0.000521804
0.000517199
0.000504818
0.000500793
0.000489172
0.000484467
0.000471226
0.000462766
0.000447633
0.000705808
0.000827711
0.000803406
0.00074647
0.000699178
0.000658115
0.000631367
0.000602823
0.000588984
0.00056643
0.000559032
0.000541972
0.000536848
0.000521934
0.000516873
0.000501653
0.000494939
0.000475805
0.000462829
0.000438374
0.00101311
0.000904504
0.00075257
0.000658707
0.000607738
0.000570424
0.000545948
0.000520791
0.000508569
0.000489407
0.000483304
0.000468166
0.000463835
0.000449254
0.000444277
0.000428059
0.000420906
0.000399196
0.000383236
0.000353561
0.000194395
0.00013896
0.000122729
0.000111326
0.000101445
9.66173e-05
9.36868e-05
8.80067e-05
8.59687e-05
8.63589e-05
8.76118e-05
9.17702e-05
9.9835e-05
0.000110366
0.000114708
0.000114464
0.00011217
0.000105513
8.90516e-05
6.7244e-05
4.7678e-05
3.54695e-05
2.81033e-05
2.11022e-05
1.70923e-05
1.48923e-05
1.84752e-05
2.39149e-05
2.48825e-05
2.72602e-05
3.31685e-05
6.68091e-05
0.000103857
0.000102967
9.13615e-05
7.49368e-05
6.50138e-05
5.59117e-05
4.88446e-05
4.7106e-05
4.49466e-05
4.27449e-05
4.16242e-05
4.14999e-05
4.28631e-05
4.50307e-05
4.52731e-05
4.49418e-05
4.27311e-05
3.79524e-05
3.42131e-05
3.24674e-05
3.24719e-05
3.23437e-05
3.48291e-05
3.90327e-05
4.00374e-05
3.95877e-05
3.38875e-05
2.96758e-05
3.02951e-05
4.0454e-05
6.98376e-05
8.16761e-05
8.08248e-05
7.17719e-05
6.15673e-05
5.59309e-05
5.14202e-05
4.71221e-05
4.27484e-05
3.88856e-05
3.59312e-05
3.37574e-05
3.22718e-05
3.12234e-05
3.10586e-05
3.11931e-05
3.16582e-05
3.26334e-05
3.42282e-05
3.75735e-05
4.48775e-05
4.96319e-05
5.09919e-05
5.07783e-05
4.8675e-05
4.34084e-05
3.89953e-05
3.53223e-05
3.17339e-05
2.91495e-05
2.62066e-05
2.36246e-05
2.11469e-05
1.92164e-05
1.77988e-05
1.66418e-05
1.57565e-05
1.47554e-05
1.39201e-05
1.30724e-05
1.24021e-05
1.17639e-05
1.13018e-05
1.06972e-05
1.02929e-05
9.70549e-06
9.31024e-06
8.86572e-06
8.57066e-06
8.32538e-06
8.19139e-06
8.08807e-06
8.05685e-06
8.02039e-06
8.0133e-06
8.0012e-06
7.98464e-06
7.94907e-06
7.86769e-06
7.59216e-06
7.13449e-06
6.63976e-06
6.09633e-06
5.55151e-06
4.98661e-06
4.44836e-06
3.92091e-06
3.43612e-06
2.98139e-06
2.57962e-06
2.21431e-06
1.90204e-06
1.62959e-06
1.4031e-06
1.21135e-06
1.05756e-06
9.35343e-07
8.38675e-07
7.69731e-07
7.18823e-07
6.91711e-07
6.84419e-07
6.92479e-07
6.99206e-07
7.34088e-07
7.60775e-07
8.16085e-07
8.54917e-07
9.3554e-07
9.77311e-07
1.0798e-06
1.13509e-06
1.26814e-06
1.32093e-06
1.46237e-06
1.51127e-06
1.65397e-06
1.69773e-06
1.84632e-06
1.87563e-06
1.99062e-06
1.98699e-06
2.0075e-06
1.94864e-06
1.88809e-06
1.72091e-06
1.55733e-06
1.43194e-06
1.31448e-06
1.33293e-06
1.38959e-06
1.55439e-06
1.62423e-06
1.9459e-06
1.93986e-06
2.07595e-06
1.93621e-06
1.82763e-06
1.57773e-06
1.59885e-06
1.73941e-06
1.7682e-06
1.99963e-06
1.80273e-06
1.70426e-06
1.58564e-06
1.63434e-06
1.95473e-06
1.77567e-06
1.85169e-06
2.0856e-06
2.31675e-06
2.70426e-06
3.42863e-06
5.30125e-06
9.63474e-06
3.19724e-05
0.000119027
0.000242267
0.000200759
0.000154809
0.000123737
0.000107628
9.86822e-05
9.64319e-05
9.25441e-05
9.11082e-05
9.31149e-05
0.000100391
0.000115904
0.000119452
0.000117435
0.000116156
0.000113549
0.000105803
8.92005e-05
6.89341e-05
4.93228e-05
3.40924e-05
2.59488e-05
2.2613e-05
1.66862e-05
1.46418e-05
1.38377e-05
1.64442e-05
2.27053e-05
2.32234e-05
2.46739e-05
2.9635e-05
4.79668e-05
9.48926e-05
0.000100832
9.60142e-05
8.21033e-05
7.14127e-05
6.19826e-05
5.28153e-05
4.87676e-05
4.52413e-05
4.30919e-05
4.14361e-05
4.12554e-05
4.2797e-05
4.39867e-05
4.40701e-05
4.35867e-05
4.05992e-05
3.69243e-05
3.38794e-05
3.30613e-05
3.30877e-05
3.30137e-05
3.60529e-05
3.92127e-05
3.98501e-05
3.88862e-05
3.26939e-05
3.00501e-05
3.20614e-05
4.7865e-05
7.76635e-05
8.35634e-05
8.0854e-05
6.7866e-05
5.89425e-05
5.47273e-05
5.07055e-05
4.6328e-05
4.17702e-05
3.76948e-05
3.48093e-05
3.26072e-05
3.14516e-05
3.0587e-05
3.03501e-05
3.04323e-05
3.0803e-05
3.1777e-05
3.31535e-05
3.57478e-05
4.24225e-05
4.83528e-05
5.06189e-05
5.06966e-05
4.95361e-05
4.52261e-05
4.05206e-05
3.66169e-05
3.30612e-05
2.97244e-05
2.69478e-05
2.38619e-05
2.13181e-05
1.91745e-05
1.7751e-05
1.65132e-05
1.56039e-05
1.46266e-05
1.37074e-05
1.29937e-05
1.22136e-05
1.17235e-05
1.10816e-05
1.06114e-05
1.00167e-05
9.60289e-06
9.07679e-06
8.82011e-06
8.49344e-06
8.38297e-06
8.25436e-06
8.25437e-06
8.23187e-06
8.25577e-06
8.23196e-06
8.2435e-06
8.20285e-06
8.12767e-06
7.87737e-06
7.52468e-06
7.05865e-06
6.58424e-06
6.04442e-06
5.5127e-06
4.95737e-06
4.42451e-06
3.90275e-06
3.41757e-06
2.96437e-06
2.55576e-06
2.18805e-06
1.86515e-06
1.58564e-06
1.34498e-06
1.14372e-06
9.74099e-07
8.35648e-07
7.22407e-07
6.3265e-07
5.61876e-07
5.0542e-07
4.70699e-07
4.43867e-07
4.2063e-07
4.18555e-07
4.20843e-07
4.24145e-07
4.49217e-07
4.66268e-07
5.01739e-07
5.6223e-07
6.11928e-07
6.78196e-07
8.09439e-07
8.93312e-07
1.07192e-06
1.17166e-06
1.39619e-06
1.50439e-06
1.74842e-06
1.84694e-06
2.0949e-06
2.15717e-06
2.35801e-06
2.38413e-06
2.50603e-06
2.47081e-06
2.41752e-06
2.20801e-06
1.98758e-06
1.81305e-06
1.7214e-06
1.75848e-06
1.8392e-06
2.1118e-06
2.16619e-06
2.46388e-06
2.31792e-06
2.20799e-06
1.89747e-06
1.86645e-06
1.91269e-06
1.97212e-06
2.31429e-06
2.03361e-06
1.93363e-06
1.77387e-06
1.86688e-06
2.16543e-06
2.02371e-06
2.14235e-06
2.79797e-06
2.90185e-06
3.57487e-06
5.77487e-06
9.06144e-06
3.22306e-05
0.000100669
0.000245671
0.000212958
0.000198073
0.000169826
0.000130923
0.00011117
0.000106173
0.000105414
0.00010847
0.000122558
0.000127608
0.000126909
0.000124307
0.000116169
0.000109299
0.00010117
7.98083e-05
6.02535e-05
4.43133e-05
3.20313e-05
2.38561e-05
1.92711e-05
1.83639e-05
1.43679e-05
1.29248e-05
1.3186e-05
1.5185e-05
2.16664e-05
2.1725e-05
2.23708e-05
2.62627e-05
3.75782e-05
8.0189e-05
9.66413e-05
9.51545e-05
8.78259e-05
7.84885e-05
6.74417e-05
6.09426e-05
5.50116e-05
4.86788e-05
4.53637e-05
4.26682e-05
4.27216e-05
4.38436e-05
4.43229e-05
4.44468e-05
4.301e-05
4.00008e-05
3.66765e-05
3.4346e-05
3.41712e-05
3.40455e-05
3.40439e-05
3.70641e-05
3.93329e-05
3.97153e-05
3.78956e-05
3.18255e-05
3.06825e-05
3.46751e-05
5.86397e-05
8.23214e-05
8.506e-05
7.9111e-05
6.40278e-05
5.7634e-05
5.40807e-05
4.98077e-05
4.53015e-05
4.0702e-05
3.66e-05
3.38515e-05
3.1819e-05
3.07394e-05
3.02226e-05
2.99039e-05
2.99173e-05
3.01648e-05
3.10147e-05
3.22811e-05
3.44658e-05
4.01905e-05
4.71233e-05
5.01699e-05
5.05853e-05
4.99288e-05
4.67337e-05
4.1941e-05
3.7692e-05
3.41837e-05
3.06757e-05
2.72458e-05
2.43486e-05
2.13697e-05
1.92466e-05
1.75476e-05
1.64376e-05
1.53428e-05
1.44537e-05
1.35372e-05
1.28551e-05
1.20778e-05
1.1489e-05
1.09016e-05
1.02367e-05
9.83631e-06
9.26647e-06
8.98588e-06
8.67768e-06
8.57714e-06
8.49102e-06
8.53238e-06
8.51125e-06
8.56335e-06
8.51931e-06
8.52873e-06
8.452e-06
8.39618e-06
8.2081e-06
7.95966e-06
7.53905e-06
7.12449e-06
6.63156e-06
6.12738e-06
5.59167e-06
5.06517e-06
4.54326e-06
4.0322e-06
3.56806e-06
3.11856e-06
2.72666e-06
2.36242e-06
2.06648e-06
1.77521e-06
1.56365e-06
1.3566e-06
1.20949e-06
1.061e-06
9.81295e-07
8.77364e-07
8.19721e-07
7.67409e-07
7.35568e-07
6.90232e-07
6.79566e-07
6.4778e-07
6.38832e-07
6.19268e-07
6.05491e-07
6.01177e-07
5.9051e-07
5.85748e-07
5.87364e-07
5.98881e-07
6.09588e-07
6.37275e-07
6.60882e-07
7.31114e-07
7.8578e-07
9.08352e-07
1.01428e-06
1.23875e-06
1.40323e-06
1.76832e-06
1.93426e-06
2.32891e-06
2.44242e-06
2.78491e-06
2.83715e-06
3.04686e-06
2.99538e-06
2.90912e-06
2.66322e-06
2.36028e-06
2.13586e-06
2.1702e-06
2.32513e-06
2.4313e-06
2.89884e-06
2.796e-06
2.71656e-06
2.38652e-06
2.17416e-06
2.15592e-06
2.23551e-06
2.64678e-06
2.31732e-06
2.22618e-06
2.13906e-06
2.17667e-06
2.58957e-06
2.34569e-06
2.61333e-06
3.29293e-06
3.68043e-06
6.61986e-06
8.84359e-06
3.15152e-05
8.11912e-05
0.000238232
0.000215484
0.000196581
0.000190565
0.000171055
0.000149631
0.00014288
0.00013944
0.000140134
0.000139472
0.000135738
0.000126482
0.000116421
0.000100489
8.55897e-05
6.54333e-05
4.75162e-05
3.72562e-05
2.91957e-05
2.17272e-05
1.73733e-05
1.50698e-05
1.53235e-05
1.30816e-05
1.1417e-05
1.2751e-05
1.41847e-05
2.03018e-05
2.04177e-05
2.0603e-05
2.29202e-05
3.09824e-05
6.16182e-05
9.15313e-05
9.28608e-05
8.98226e-05
8.54367e-05
7.3348e-05
6.74944e-05
6.28405e-05
5.76396e-05
5.19105e-05
4.71878e-05
4.73351e-05
4.69243e-05
4.64772e-05
4.51704e-05
4.26392e-05
3.99125e-05
3.69542e-05
3.56079e-05
3.56129e-05
3.51927e-05
3.52886e-05
3.79415e-05
3.95874e-05
3.97162e-05
3.66322e-05
3.16068e-05
3.1529e-05
3.87565e-05
6.87151e-05
8.58946e-05
8.57124e-05
7.54897e-05
6.09762e-05
5.6049e-05
5.34004e-05
4.92976e-05
4.47468e-05
4.00845e-05
3.59324e-05
3.32055e-05
3.13904e-05
3.03516e-05
3.00617e-05
2.97307e-05
2.96352e-05
2.97655e-05
3.04245e-05
3.16115e-05
3.35138e-05
3.82839e-05
4.57343e-05
4.96303e-05
5.04454e-05
5.00879e-05
4.78381e-05
4.32963e-05
3.87706e-05
3.47823e-05
3.15776e-05
2.77143e-05
2.45053e-05
2.15084e-05
1.91619e-05
1.75184e-05
1.61734e-05
1.52153e-05
1.42214e-05
1.34262e-05
1.26459e-05
1.18884e-05
1.11824e-05
1.06285e-05
9.95386e-06
9.52262e-06
9.07557e-06
8.80876e-06
8.68801e-06
8.64412e-06
8.67787e-06
8.68455e-06
8.72286e-06
8.7001e-06
8.70312e-06
8.61694e-06
8.57541e-06
8.47239e-06
8.31353e-06
8.03413e-06
7.66677e-06
7.25591e-06
6.79734e-06
6.32118e-06
5.80382e-06
5.3216e-06
4.79178e-06
4.33024e-06
3.8528e-06
3.4559e-06
3.04109e-06
2.72914e-06
2.39863e-06
2.15956e-06
1.9212e-06
1.77203e-06
1.59604e-06
1.49803e-06
1.40448e-06
1.34738e-06
1.29213e-06
1.2822e-06
1.2578e-06
1.25161e-06
1.2586e-06
1.25515e-06
1.2667e-06
1.26779e-06
1.2545e-06
1.26468e-06
1.24002e-06
1.20379e-06
1.20935e-06
1.18371e-06
1.14133e-06
1.11945e-06
1.07893e-06
1.02854e-06
9.99165e-07
9.80494e-07
9.88441e-07
1.00833e-06
1.05152e-06
1.12705e-06
1.28031e-06
1.47794e-06
1.8453e-06
2.09115e-06
2.65366e-06
2.84643e-06
3.3673e-06
3.41895e-06
3.6674e-06
3.51687e-06
3.33303e-06
2.92457e-06
2.66864e-06
2.65472e-06
2.75757e-06
3.24469e-06
3.25461e-06
3.47612e-06
3.04332e-06
2.62633e-06
2.42473e-06
2.53575e-06
2.94044e-06
2.65876e-06
2.53658e-06
2.39621e-06
2.50354e-06
3.24385e-06
3.09101e-06
3.7655e-06
3.87709e-06
8.54313e-06
9.36171e-06
2.96919e-05
6.61618e-05
0.000216621
0.000209837
0.000191769
0.000187855
0.000179102
0.000166536
0.000156954
0.000151701
0.000145826
0.000136346
0.000127057
0.000110624
9.30547e-05
7.29712e-05
5.53838e-05
4.05697e-05
2.9891e-05
2.45456e-05
1.92443e-05
1.43658e-05
1.28318e-05
1.18268e-05
1.21694e-05
1.11e-05
9.69466e-06
1.26443e-05
1.40179e-05
1.83809e-05
1.96201e-05
1.95076e-05
2.07148e-05
2.66811e-05
4.18377e-05
7.69004e-05
8.85119e-05
8.84935e-05
8.64166e-05
7.91015e-05
7.23938e-05
6.62323e-05
6.3665e-05
5.90629e-05
5.45528e-05
5.24279e-05
4.97396e-05
4.81011e-05
4.55927e-05
4.30531e-05
4.04974e-05
3.82546e-05
3.76315e-05
3.74122e-05
3.63173e-05
3.65418e-05
3.87513e-05
3.99542e-05
3.97687e-05
3.54001e-05
3.18187e-05
3.2843e-05
4.48677e-05
7.77503e-05
8.84387e-05
8.61748e-05
7.09155e-05
5.88212e-05
5.52447e-05
5.30148e-05
4.86349e-05
4.397e-05
3.92468e-05
3.50211e-05
3.24686e-05
3.08724e-05
3.00778e-05
2.99464e-05
2.97562e-05
2.95304e-05
2.95726e-05
2.99915e-05
3.11106e-05
3.28377e-05
3.68567e-05
4.46721e-05
4.9119e-05
5.03133e-05
5.01449e-05
4.86173e-05
4.42869e-05
3.99235e-05
3.54002e-05
3.18406e-05
2.83438e-05
2.46201e-05
2.15182e-05
1.91616e-05
1.73501e-05
1.60159e-05
1.50566e-05
1.4044e-05
1.33162e-05
1.25116e-05
1.17247e-05
1.10005e-05
1.03899e-05
9.81371e-06
9.3423e-06
9.02191e-06
8.7913e-06
8.76784e-06
8.73746e-06
8.80309e-06
8.76131e-06
8.78707e-06
8.74873e-06
8.69703e-06
8.59645e-06
8.53435e-06
8.47961e-06
8.35974e-06
8.24836e-06
7.97395e-06
7.63583e-06
7.13704e-06
6.69488e-06
6.11059e-06
5.64669e-06
5.15031e-06
4.62224e-06
4.21216e-06
3.77867e-06
3.41869e-06
3.05179e-06
2.86632e-06
2.53654e-06
2.41847e-06
2.20679e-06
2.15166e-06
2.01151e-06
2.01564e-06
1.95326e-06
1.9657e-06
1.93624e-06
1.97732e-06
1.93857e-06
2.01042e-06
1.96657e-06
2.04296e-06
2.00402e-06
2.06554e-06
2.05329e-06
2.10769e-06
2.08516e-06
2.16636e-06
2.09798e-06
2.11762e-06
2.10099e-06
2.10164e-06
2.03191e-06
1.99075e-06
1.93564e-06
1.81496e-06
1.72162e-06
1.61327e-06
1.53194e-06
1.44435e-06
1.45145e-06
1.49255e-06
1.5707e-06
1.78863e-06
2.0386e-06
2.44097e-06
3.15912e-06
3.44025e-06
4.12605e-06
4.15643e-06
4.32073e-06
4.05407e-06
3.55392e-06
3.12068e-06
3.19483e-06
3.53094e-06
3.64897e-06
4.26118e-06
3.77883e-06
3.26522e-06
2.8509e-06
2.93856e-06
3.58699e-06
3.12193e-06
2.86533e-06
2.75127e-06
3.27013e-06
3.26638e-06
4.84603e-06
4.58294e-06
1.41638e-05
1.1286e-05
2.55798e-05
5.34839e-05
0.000184888
0.000182193
0.000175277
0.000174019
0.00017192
0.000165393
0.000155744
0.000149198
0.000139008
0.00012663
0.000113099
9.53108e-05
7.52544e-05
5.4843e-05
3.74778e-05
2.57155e-05
1.93775e-05
1.62172e-05
1.2373e-05
9.49846e-06
9.68151e-06
9.75334e-06
1.03113e-05
9.98556e-06
8.84218e-06
1.23142e-05
1.43054e-05
1.61187e-05
1.9049e-05
1.88379e-05
1.96766e-05
2.3691e-05
3.15188e-05
5.09899e-05
7.87699e-05
8.52961e-05
8.4683e-05
8.2174e-05
7.72523e-05
6.94273e-05
6.74732e-05
6.33841e-05
5.91309e-05
5.52283e-05
5.17349e-05
4.88843e-05
4.64858e-05
4.42186e-05
4.1922e-05
4.03796e-05
3.99909e-05
3.90251e-05
3.75535e-05
3.77584e-05
3.96701e-05
4.04808e-05
3.96498e-05
3.42283e-05
3.22793e-05
3.49345e-05
5.36651e-05
8.51505e-05
9.01273e-05
8.48599e-05
6.6201e-05
5.67326e-05
5.426e-05
5.26124e-05
4.82766e-05
4.35787e-05
3.88291e-05
3.4594e-05
3.21049e-05
3.06423e-05
2.99339e-05
2.98378e-05
2.98506e-05
2.96286e-05
2.96001e-05
2.98428e-05
3.06615e-05
3.22875e-05
3.57554e-05
4.35703e-05
4.86e-05
5.01693e-05
5.01333e-05
4.90541e-05
4.51375e-05
4.0734e-05
3.65021e-05
3.2134e-05
2.83342e-05
2.49424e-05
2.14234e-05
1.91132e-05
1.73655e-05
1.57193e-05
1.49784e-05
1.39632e-05
1.30782e-05
1.23378e-05
1.1459e-05
1.09079e-05
1.0252e-05
9.80911e-06
9.3274e-06
9.06912e-06
8.86291e-06
8.83974e-06
8.75843e-06
8.78823e-06
8.7378e-06
8.7375e-06
8.73593e-06
8.71089e-06
8.74017e-06
8.73841e-06
8.89798e-06
8.90066e-06
8.98835e-06
8.92556e-06
8.80741e-06
8.32209e-06
8.01619e-06
7.23733e-06
6.91989e-06
6.23677e-06
5.94032e-06
5.31282e-06
5.08942e-06
4.5771e-06
4.41779e-06
4.08028e-06
3.97556e-06
3.72753e-06
3.70594e-06
3.62098e-06
3.63173e-06
3.59663e-06
3.63547e-06
3.57649e-06
3.66604e-06
3.62503e-06
3.69962e-06
3.66176e-06
3.76707e-06
3.72088e-06
3.8268e-06
3.73971e-06
3.93474e-06
3.80576e-06
3.92132e-06
3.83736e-06
4.01292e-06
3.8446e-06
4.03196e-06
3.85857e-06
4.01666e-06
3.82163e-06
3.95848e-06
3.71184e-06
3.75806e-06
3.51442e-06
3.43252e-06
3.08058e-06
2.84029e-06
2.50904e-06
2.25005e-06
2.07506e-06
2.04376e-06
2.08674e-06
2.26317e-06
2.5632e-06
3.09689e-06
3.99814e-06
4.29376e-06
5.06191e-06
4.99786e-06
4.80638e-06
4.11122e-06
3.80037e-06
3.89135e-06
4.14661e-06
4.83494e-06
4.58209e-06
3.86249e-06
3.27876e-06
3.5493e-06
4.376e-06
3.78625e-06
3.19559e-06
4.25524e-06
3.93647e-06
8.62449e-06
6.29034e-06
1.68096e-05
1.32417e-05
2.23248e-05
4.37373e-05
0.000152158
0.000146686
0.000143426
0.0001434
0.000146691
0.000146663
0.000142564
0.000136913
0.000126011
0.0001123
9.74704e-05
7.4967e-05
5.27065e-05
3.52276e-05
2.29305e-05
1.6025e-05
1.27856e-05
1.03505e-05
7.76265e-06
6.70198e-06
7.98146e-06
8.52646e-06
8.87677e-06
8.62235e-06
7.84413e-06
1.11139e-05
1.45579e-05
1.49195e-05
1.77174e-05
1.78338e-05
1.82434e-05
1.98951e-05
2.41586e-05
3.40451e-05
6.02475e-05
7.6609e-05
8.02406e-05
8.07677e-05
7.95143e-05
7.49507e-05
7.17907e-05
6.58284e-05
6.15052e-05
5.70307e-05
5.31125e-05
4.99256e-05
4.83108e-05
4.59822e-05
4.38992e-05
4.29063e-05
4.23129e-05
4.03152e-05
3.86784e-05
3.89032e-05
4.06037e-05
4.08667e-05
3.87506e-05
3.36715e-05
3.30997e-05
3.81385e-05
6.5365e-05
8.94571e-05
9.10428e-05
8.11998e-05
6.2634e-05
5.53753e-05
5.36588e-05
5.22322e-05
4.78742e-05
4.3098e-05
3.83764e-05
3.40841e-05
3.16043e-05
3.04692e-05
2.9816e-05
2.97684e-05
2.98589e-05
2.97648e-05
2.96804e-05
2.98721e-05
3.04856e-05
3.19042e-05
3.511e-05
4.28353e-05
4.82322e-05
5.00427e-05
5.01066e-05
4.93325e-05
4.59078e-05
4.1065e-05
3.699e-05
3.29265e-05
2.83405e-05
2.49271e-05
2.16103e-05
1.88285e-05
1.73616e-05
1.57387e-05
1.46313e-05
1.39554e-05
1.28628e-05
1.22929e-05
1.14095e-05
1.09124e-05
1.02629e-05
9.83041e-06
9.40823e-06
9.15491e-06
8.97531e-06
8.88909e-06
8.78908e-06
8.7638e-06
8.77582e-06
8.78545e-06
8.93914e-06
9.02847e-06
9.34395e-06
9.41299e-06
9.58437e-06
9.55517e-06
9.57488e-06
9.45374e-06
9.29732e-06
8.79235e-06
8.52491e-06
7.8194e-06
7.53054e-06
6.81915e-06
6.53155e-06
5.86643e-06
5.63934e-06
5.09912e-06
4.94028e-06
4.56379e-06
4.45505e-06
4.19288e-06
4.16039e-06
4.03633e-06
4.03254e-06
3.97172e-06
3.97257e-06
3.9206e-06
3.95301e-06
3.92429e-06
3.93396e-06
3.92293e-06
3.96356e-06
3.96161e-06
3.96938e-06
3.97101e-06
4.02084e-06
4.04476e-06
4.03578e-06
4.11541e-06
4.10723e-06
4.14306e-06
4.13136e-06
4.28053e-06
4.2019e-06
4.34707e-06
4.26461e-06
4.52888e-06
4.39494e-06
4.65777e-06
4.50874e-06
4.83773e-06
4.60414e-06
4.70392e-06
4.37459e-06
4.28115e-06
3.83403e-06
3.35669e-06
2.99118e-06
2.75458e-06
2.82609e-06
3.0632e-06
3.53392e-06
4.1598e-06
5.31849e-06
5.46161e-06
5.90349e-06
5.43288e-06
4.77258e-06
4.55028e-06
4.70501e-06
5.89957e-06
5.59251e-06
4.76222e-06
4.0221e-06
4.27116e-06
5.2543e-06
4.59936e-06
6.83178e-06
5.27446e-06
1.08428e-05
8.53052e-06
2.84795e-05
1.81759e-05
2.08033e-05
3.5953e-05
0.000114657
0.000108944
0.000107484
0.000107022
0.0001103
0.000112555
0.000110994
0.000107765
0.000101027
8.55699e-05
6.56213e-05
4.60798e-05
3.12727e-05
2.04165e-05
1.33743e-05
1.02836e-05
8.40261e-06
6.3297e-06
5.15869e-06
5.22278e-06
7.26525e-06
7.8193e-06
7.89514e-06
7.88839e-06
7.42098e-06
9.9078e-06
1.39264e-05
1.43006e-05
1.60926e-05
1.69158e-05
1.67409e-05
1.71751e-05
1.91639e-05
2.35297e-05
4.3052e-05
6.05944e-05
7.0404e-05
7.73949e-05
7.84972e-05
7.71112e-05
7.46599e-05
6.92729e-05
6.42007e-05
5.94459e-05
5.52679e-05
5.20865e-05
5.07526e-05
4.82201e-05
4.64966e-05
4.57359e-05
4.45529e-05
4.1337e-05
3.95976e-05
3.98637e-05
4.12998e-05
4.12244e-05
3.74819e-05
3.36354e-05
3.41735e-05
4.31673e-05
7.59673e-05
9.27515e-05
9.17813e-05
7.63798e-05
5.90361e-05
5.39365e-05
5.31503e-05
5.19822e-05
4.76769e-05
4.28667e-05
3.81892e-05
3.38503e-05
3.13705e-05
3.03858e-05
2.96669e-05
2.95915e-05
2.98196e-05
2.98968e-05
2.98623e-05
2.99669e-05
3.04805e-05
3.16983e-05
3.46071e-05
4.22239e-05
4.79095e-05
4.99583e-05
5.01019e-05
4.94965e-05
4.65976e-05
4.1416e-05
3.69962e-05
3.32507e-05
2.85533e-05
2.45e-05
2.16598e-05
1.88541e-05
1.68795e-05
1.59219e-05
1.45577e-05
1.37986e-05
1.29046e-05
1.21458e-05
1.1457e-05
1.08615e-05
1.03824e-05
9.86208e-06
9.69394e-06
9.35148e-06
9.20933e-06
9.00337e-06
8.95136e-06
8.8931e-06
9.01474e-06
9.03802e-06
9.32348e-06
9.41882e-06
9.72704e-06
9.75346e-06
9.87727e-06
9.84233e-06
9.88675e-06
9.78171e-06
9.73386e-06
9.46474e-06
9.35075e-06
8.84819e-06
8.60455e-06
7.87175e-06
7.58648e-06
6.89942e-06
6.7037e-06
6.14509e-06
6.02318e-06
5.62734e-06
5.55445e-06
5.30664e-06
5.33323e-06
5.15699e-06
5.20892e-06
5.06893e-06
5.09507e-06
4.96583e-06
5.07133e-06
4.93528e-06
4.9935e-06
4.90302e-06
4.98101e-06
4.89521e-06
4.94953e-06
4.87378e-06
4.92976e-06
4.82834e-06
4.89475e-06
4.88639e-06
4.87202e-06
4.77969e-06
4.84711e-06
4.82028e-06
4.81696e-06
4.75438e-06
4.84469e-06
4.80111e-06
4.87123e-06
4.82169e-06
5.01283e-06
4.96009e-06
5.198e-06
5.0763e-06
5.42082e-06
5.23682e-06
5.56183e-06
5.25188e-06
5.2408e-06
4.77442e-06
4.44399e-06
3.81537e-06
3.6298e-06
3.73928e-06
4.32955e-06
4.92359e-06
5.98687e-06
6.94536e-06
6.78489e-06
5.99154e-06
5.24786e-06
5.49045e-06
7.04297e-06
6.58584e-06
7.72101e-06
6.04402e-06
7.75215e-06
6.26575e-06
9.40689e-06
7.5288e-06
2.29933e-05
1.49101e-05
3.14412e-05
2.72464e-05
2.38074e-05
3.08906e-05
7.29165e-05
6.84315e-05
6.85605e-05
6.82512e-05
7.06954e-05
7.53855e-05
7.45552e-05
7.20409e-05
6.54444e-05
5.17076e-05
3.80973e-05
2.62238e-05
1.73912e-05
1.12831e-05
8.09222e-06
6.86476e-06
5.39231e-06
4.04837e-06
4.0051e-06
4.57671e-06
6.68299e-06
6.86261e-06
6.46938e-06
6.73663e-06
7.00508e-06
8.84306e-06
1.30555e-05
1.35142e-05
1.38774e-05
1.52593e-05
1.68043e-05
1.80139e-05
1.88248e-05
1.99599e-05
3.15386e-05
4.22129e-05
5.20877e-05
6.91086e-05
7.55362e-05
7.56697e-05
7.46898e-05
7.20974e-05
6.74629e-05
6.3282e-05
5.85617e-05
5.57828e-05
5.38989e-05
5.09007e-05
4.94392e-05
4.87651e-05
4.62143e-05