/*--------------------------------*- C++ -*----------------------------------*\
| =========                 |                                                 |
| \\      /  F ield         | OpenFOAM: The Open Source CFD Toolbox           |
|  \\    /   O peration     | Version:  2.4.0                                 |
|   \\  /    A nd           | Web:      www.OpenFOAM.org                      |
|    \\/     M anipulation  |                                                 |
\*---------------------------------------------------------------------------*/
FoamFile
{
    version     2.0;
    format      ascii;
    class       volScalarField;
    location    "0.231568";
    object      p;
}
// * * * * * * * * * * * * * * * * * * * * * * * * * * * * * * * * * * * * * //

dimensions      [0 2 -2 0 0 0 0];

internalField   nonuniform List<scalar> 
17600
(
35.3929
34.6579
34.3076
34.1462
33.9772
33.7962
33.6243
33.4643
33.3118
33.1645
33.0216
32.8828
32.7471
32.614
32.483
32.3544
32.2283
32.1086
31.993
31.9129
34.7514
34.3826
34.2263
34.1152
33.9661
33.7944
33.6264
33.468
33.3162
33.1689
33.0257
32.8865
32.7504
32.6169
32.4856
32.3566
32.2301
32.1101
31.9901
31.9009
34.7541
34.5364
34.3074
34.1459
33.9807
33.8029
33.6316
33.4713
33.3185
33.1706
33.0273
32.8879
32.7518
32.6183
32.487
32.3581
32.2314
32.1108
31.9886
31.8865
34.7364
34.5274
34.2855
34.1285
33.9723
33.7998
33.6308
33.4716
33.3193
33.1716
33.0282
32.8887
32.7524
32.6188
32.4874
32.3583
32.2314
32.11
31.9858
31.8746
34.7063
34.5125
34.2814
34.1261
33.9718
33.8006
33.632
33.4728
33.3204
33.1727
33.0291
32.8895
32.7531
32.6193
32.4878
32.3586
32.2314
32.1091
31.9829
31.8651
34.6759
34.5025
34.2831
34.1254
33.9709
33.801
33.6329
33.4737
33.3213
33.1734
33.0298
32.89
32.7535
32.6196
32.488
32.3586
32.2312
32.108
31.9802
31.8572
34.6491
34.4948
34.2847
34.1241
33.9698
33.8013
33.6338
33.4746
33.3221
33.1742
33.0305
32.8906
32.7539
32.6199
32.4881
32.3586
32.2308
32.1068
31.9778
31.8508
34.6255
34.4873
34.2853
34.1227
33.9687
33.8017
33.6347
33.4756
33.323
33.175
33.0311
32.8911
32.7543
32.6202
32.4883
32.3586
32.2305
32.1057
31.9756
31.8456
34.6045
34.4797
34.2854
34.1216
33.9677
33.8021
33.6355
33.4764
33.3239
33.1758
33.0318
32.8917
32.7548
32.6205
32.4885
32.3586
32.2302
32.1046
31.9737
31.8415
34.586
34.4723
34.2853
34.1206
33.9668
33.8024
33.6364
33.4773
33.3247
33.1766
33.0325
32.8922
32.7552
32.6208
32.4886
32.3586
32.2299
32.1036
31.9721
31.8382
34.5696
34.4653
34.285
34.1198
33.9659
33.8027
33.6371
33.478
33.3254
33.1773
33.0331
32.8927
32.7556
32.6211
32.4888
32.3586
32.2297
32.1027
31.9707
31.8356
34.5553
34.4588
34.2846
34.1191
33.9652
33.8029
33.6378
33.4787
33.3261
33.1779
33.0337
32.8932
32.7559
32.6214
32.489
32.3586
32.2294
32.1018
31.9695
31.8336
34.5429
34.4529
34.284
34.1185
33.9644
33.803
33.6384
33.4793
33.3267
33.1785
33.0341
32.8936
32.7563
32.6216
32.4891
32.3585
32.2291
32.101
31.9685
31.8321
34.5322
34.4476
34.2835
34.118
33.9638
33.8032
33.6389
33.4799
33.3272
33.179
33.0346
32.8939
32.7566
32.6218
32.4892
32.3585
32.2288
32.1003
31.9675
31.8309
34.5232
34.443
34.2829
34.1175
33.9633
33.8033
33.6393
33.4803
33.3276
33.1794
33.035
32.8942
32.7568
32.622
32.4893
32.3584
32.2286
32.0996
31.9668
31.83
34.5158
34.4391
34.2824
34.1172
33.9628
33.8033
33.6397
33.4807
33.328
33.1797
33.0353
32.8945
32.757
32.6221
32.4893
32.3583
32.2283
32.099
31.9661
31.8294
34.51
34.436
34.2819
34.1169
33.9624
33.8034
33.64
33.481
33.3283
33.18
33.0355
32.8947
32.7571
32.6222
32.4893
32.3582
32.228
32.0984
31.9655
31.829
34.5057
34.4336
34.2816
34.1167
33.9621
33.8034
33.6402
33.4812
33.3285
33.1802
33.0357
32.8948
32.7572
32.6222
32.4893
32.358
32.2277
32.0978
31.965
31.8288
34.5028
34.4321
34.2813
34.1166
33.962
33.8034
33.6404
33.4814
33.3286
33.1804
33.0358
32.8949
32.7573
32.6222
32.4892
32.3579
32.2274
32.0973
31.9646
31.8287
34.5014
34.4313
34.2812
34.1165
33.9619
33.8035
33.6404
33.4814
33.3287
33.1804
33.0359
32.895
32.7573
32.6222
32.4891
32.3577
32.2271
32.0968
31.9642
31.8287
34.5014
34.4313
34.2812
34.1165
33.9619
33.8034
33.6404
33.4814
33.3287
33.1804
33.0358
32.8949
32.7573
32.6221
32.489
32.3575
32.2268
32.0964
31.9639
31.8288
34.5028
34.4321
34.2813
34.1166
33.962
33.8034
33.6404
33.4814
33.3286
33.1803
33.0358
32.8949
32.7572
32.622
32.4889
32.3573
32.2265
32.0959
31.9636
31.8289
34.5057
34.4336
34.2816
34.1167
33.9621
33.8034
33.6402
33.4812
33.3285
33.1802
33.0356
32.8947
32.757
32.6219
32.4887
32.357
32.2262
32.0955
31.9633
31.8291
34.51
34.436
34.2819
34.1169
33.9624
33.8034
33.64
33.481
33.3282
33.18
33.0354
32.8945
32.7569
32.6217
32.4885
32.3568
32.2258
32.0952
31.9631
31.8294
34.5158
34.4391
34.2824
34.1172
33.9628
33.8033
33.6397
33.4807
33.3279
33.1797
33.0352
32.8943
32.7566
32.6215
32.4883
32.3565
32.2255
32.0948
31.9629
31.8296
34.5232
34.443
34.2829
34.1175
33.9632
33.8033
33.6393
33.4803
33.3276
33.1793
33.0348
32.894
32.7564
32.6212
32.488
32.3562
32.2252
32.0944
31.9627
31.8299
34.5322
34.4476
34.2835
34.118
33.9638
33.8032
33.6389
33.4798
33.3271
33.1789
33.0344
32.8937
32.7561
32.6209
32.4877
32.3559
32.2249
32.0941
31.9626
31.8301
34.5429
34.4529
34.284
34.1185
33.9644
33.803
33.6384
33.4793
33.3266
33.1784
33.034
32.8933
32.7557
32.6206
32.4874
32.3556
32.2245
32.0937
31.9624
31.8304
34.5553
34.4588
34.2846
34.1191
33.9651
33.8029
33.6378
33.4787
33.326
33.1778
33.0334
32.8928
32.7553
32.6203
32.4871
32.3552
32.2242
32.0934
31.9623
31.8306
34.5696
34.4653
34.285
34.1198
33.9659
33.8027
33.6371
33.478
33.3253
33.1772
33.0329
32.8923
32.7549
32.6199
32.4867
32.3549
32.2238
32.0931
31.9621
31.8308
34.586
34.4723
34.2853
34.1206
33.9668
33.8024
33.6363
33.4772
33.3246
33.1764
33.0322
32.8918
32.7544
32.6195
32.4864
32.3545
32.2235
32.0928
31.962
31.8311
34.6045
34.4797
34.2854
34.1216
33.9677
33.8021
33.6355
33.4764
33.3238
33.1757
33.0316
32.8912
32.754
32.6191
32.486
32.3542
32.2232
32.0925
31.9619
31.8313
34.6255
34.4873
34.2853
34.1227
33.9687
33.8017
33.6346
33.4755
33.3229
33.1749
33.0309
32.8906
32.7535
32.6187
32.4857
32.3539
32.2229
32.0923
31.9618
31.8315
34.6491
34.4948
34.2847
34.1241
33.9698
33.8013
33.6337
33.4746
33.3221
33.1741
33.0302
32.8901
32.753
32.6183
32.4854
32.3536
32.2227
32.0921
31.9618
31.8318
34.6759
34.5025
34.2831
34.1254
33.9709
33.801
33.6328
33.4737
33.3212
33.1733
33.0295
32.8895
32.7526
32.618
32.4851
32.3534
32.2225
32.092
31.9618
31.832
34.7063
34.5125
34.2814
34.1261
33.9717
33.8006
33.632
33.4728
33.3203
33.1725
33.0288
32.8889
32.7521
32.6176
32.4848
32.3531
32.2222
32.0918
31.9617
31.8321
34.7364
34.5274
34.2855
34.1285
33.9723
33.7998
33.6308
33.4716
33.3192
33.1714
33.0279
32.8881
32.7514
32.617
32.4842
32.3526
32.2218
32.0914
31.9615
31.8322
34.7541
34.5364
34.3074
34.1459
33.9807
33.8028
33.6315
33.4713
33.3184
33.1705
33.0269
32.8873
32.7508
32.6165
32.4838
32.3522
32.2214
32.091
31.9611
31.8322
34.7514
34.3826
34.2263
34.1152
33.9661
33.7944
33.6264
33.468
33.3161
33.1687
33.0254
32.8859
32.7494
32.615
32.4823
32.3507
32.2198
32.0894
31.9595
31.8311
35.3929
34.6579
34.3076
34.1462
33.9772
33.7962
33.6243
33.4642
33.3117
33.1643
33.0213
32.8822
32.746
32.6121
32.4797
32.3484
32.2178
32.0876
31.958
31.8297
31.7234
31.6829
31.5171
31.4229
31.3878
31.359
31.3278
31.297
31.2652
31.2307
31.1933
31.1534
31.1121
31.0695
31.0261
30.9823
30.9387
30.8956
30.8531
30.8117
30.7715
30.7329
30.6963
30.6621
30.6306
30.6023
30.5776
30.557
30.5409
30.5298
30.5241
30.5242
30.5305
30.5434
30.5633
30.5906
30.6255
30.6683
30.7193
30.7787
30.8467
30.9235
31.0092
31.1038
31.2074
31.3201
31.4417
31.5724
31.7119
31.8602
32.0172
32.1826
32.3564
32.5382
32.7279
32.9252
33.1297
33.3413
33.5596
33.7842
34.0149
34.2513
34.493
34.7396
34.9908
35.2463
35.5056
35.7684
36.0342
36.3028
36.5737
36.8467
37.1213
37.3972
37.674
37.9515
38.2293
38.5072
38.7847
39.0617
39.3378
39.6128
39.8865
40.1586
40.4289
40.6972
40.9633
41.227
41.4882
41.7466
42.0022
42.2548
42.5044
42.7507
42.9937
43.2333
43.4695
43.7022
43.9312
44.1567
44.3785
44.5966
44.811
45.0218
45.2288
45.4322
45.6319
45.8279
46.0203
46.2092
46.3945
46.5763
46.7548
46.9298
47.1015
47.27
47.4354
47.5976
47.7569
47.9132
48.0667
48.2174
48.3654
48.5108
48.6538
48.7943
48.9325
49.0684
49.2021
49.3337
49.4634
49.591
49.7168
49.8408
49.963
50.0835
50.2023
50.3196
50.4353
50.5495
50.6622
50.7735
50.8834
50.9918
51.0989
51.2046
51.309
51.412
51.5136
51.6139
51.7128
51.8103
51.9064
52.0011
52.0944
52.1862
52.2765
52.3653
52.4525
52.5381
52.622
52.7041
52.7843
52.8625
52.9385
53.0122
53.0832
53.1514
53.2163
53.2775
53.3344
53.3864
53.4328
53.4724
53.5043
53.527
53.5388
53.5378
53.5217
53.4877
53.4325
53.3523
53.2424
53.0974
52.9106
52.6738
52.377
52.0071
51.5475
50.9762
50.2638
49.3705
48.2434
46.7999
44.944
42.4228
39.1932
33.7186
28.8205
4.42537
31.6399
31.5217
31.4458
31.4405
31.4413
31.4282
31.4051
31.3758
31.3406
31.3002
31.2562
31.2101
31.1637
31.1174
31.0714
31.0259
30.9813
30.9376
30.895
30.8535
30.8134
30.775
30.7388
30.7049
30.674
30.6463
30.6223
30.6024
30.587
30.5767
30.5717
30.5726
30.5797
30.5934
30.614
30.6419
30.6775
30.7208
30.7724
30.8322
30.9006
30.9776
31.0635
31.1582
31.2618
31.3744
31.4959
31.6263
31.7655
31.9134
32.0699
32.2347
32.4078
32.5889
32.7778
32.9741
33.1778
33.3883
33.6055
33.8291
34.0586
34.2937
34.5342
34.7795
35.0295
35.2836
35.5416
35.803
36.0675
36.3347
36.6043
36.8758
37.1491
37.4236
37.6991
37.9753
38.2518
38.5283
38.8046
39.0803
39.3552
39.6291
39.9016
40.1726
40.4418
40.7091
40.9741
41.2369
41.4971
41.7547
42.0094
42.2612
42.5099
42.7555
42.9978
43.2368
43.4723
43.7043
43.9328
44.1578
44.379
44.5967
44.8107
45.021
45.2276
45.4306
45.63
45.8257
46.0178
46.2064
46.3915
46.5731
46.7513
46.9261
47.0976
47.2659
47.4311
47.5932
47.7522
47.9084
48.0617
48.2122
48.36
48.5052
48.6479
48.7882
48.9261
49.0617
49.1951
49.3264
49.4556
49.5829
49.7082
49.8316
49.9532
50.0731
50.1912
50.3077
50.4226
50.5359
50.6476
50.7578
50.8665
50.9736
51.0793
51.1835
51.2862
51.3875
51.4872
51.5855
51.6822
51.7774
51.8711
51.9631
52.0536
52.1424
52.2295
52.3149
52.3985
52.4802
52.56
52.6378
52.7134
52.7867
52.8576
52.9257
52.991
53.053
53.1114
53.1656
53.2152
53.2593
53.2973
53.328
53.3502
53.3626
53.3632
53.35
53.3206
53.272
53.2006
53.1024
52.9724
52.8045
52.5915
52.3245
51.9923
51.5806
51.0705
50.4374
49.6479
48.656
47.3995
45.7812
43.679
40.7981
36.9767
30.5476
22.8085
-0.0845318
31.6575
31.5743
31.5313
31.5059
31.4783
31.449
31.4206
31.3917
31.3603
31.3259
31.2885
31.2476
31.2052
31.1611
31.1159
31.07
31.0243
30.9793
30.9355
30.8932
30.8527
30.8144
30.7784
30.7452
30.7149
30.688
30.6649
30.6459
30.6315
30.622
30.618
30.6197
30.6277
30.6422
30.6637
30.6924
30.7286
30.7726
30.8247
30.885
30.9538
31.0312
31.1172
31.2121
31.3158
31.4283
31.5497
31.6799
31.8188
31.9662
32.1222
32.2865
32.4589
32.6392
32.8273
33.0227
33.2254
33.4349
33.651
33.8734
34.1018
34.3357
34.5749
34.8189
35.0675
35.3203
35.5769
35.8369
36.1
36.3658
36.634
36.9042
37.176
37.4492
37.7234
37.9982
38.2734
38.5486
38.8236
39.0981
39.3718
39.6444
39.9158
40.1856
40.4538
40.72
40.9841
41.2458
41.5051
41.7618
42.0157
42.2667
42.5146
42.7595
43.0011
43.2394
43.4743
43.7057
43.9337
44.1581
44.3789
44.5961
44.8097
45.0196
45.2259
45.4285
45.6276
45.823
46.0149
46.2033
46.3881
46.5695
46.7475
46.9222
47.0935
47.2617
47.4267
47.5886
47.7475
47.9035
48.0566
48.207
48.3547
48.4997
48.6422
48.7822
48.9199
49.0552
49.1883
49.3193
49.4481
49.5749
49.6997
49.8226
49.9436
50.0629
50.1803
50.296
50.41
50.5223
50.633
50.742
50.8495
50.9553
51.0595
51.1622
51.2632
51.3626
51.4603
51.5565
51.6509
51.7437
51.8347
51.924
52.0115
52.0971
52.1809
52.2626
52.3424
52.4201
52.4956
52.5688
52.6396
52.7078
52.7733
52.8358
52.895
52.9505
53.0021
53.0491
53.091
53.1271
53.1564
53.1778
53.1902
53.1919
53.181
53.1555
53.1125
53.0491
52.9614
52.8449
52.6945
52.5035
52.2642
51.9668
51.5991
51.1454
50.585
49.8906
49.0248
47.936
46.5536
44.7679
42.4342
39.2335
34.9054
27.9507
18.5324
0.795265
31.675
31.5937
31.539
31.4984
31.4668
31.4406
31.416
31.3897
31.3602
31.3273
31.2918
31.2551
31.2159
31.1756
31.1348
31.0934
31.052
31.0109
30.9702
30.9302
30.8913
30.8539
30.8184
30.7854
30.7553
30.7287
30.706
30.6876
30.6739
30.6654
30.6623
30.665
30.674
30.6894
30.7118
30.7413
30.7783
30.823
30.8757
30.9366
31.0058
31.0835
31.1699
31.2649
31.3687
31.4812
31.6025
31.7324
31.871
32.0181
32.1735
32.3372
32.509
32.6886
32.8758
33.0704
33.272
33.4805
33.6956
33.9168
34.1439
34.3766
34.6145
34.8573
35.1045
35.3559
35.6111
35.8697
36.1314
36.3958
36.6626
36.9314
37.2018
37.4736
37.7464
38.0199
38.2937
38.5676
38.8413
39.1146
39.387
39.6585
39.9287
40.1975
40.4646
40.7297
40.9928
41.2536
41.512
41.7678
42.0208
42.271
42.5183
42.7624
43.0033
43.241
43.4753
43.7062
43.9336
44.1576
44.3779
44.5947
44.8079
45.0175
45.2235
45.4258
45.6246
45.8198
46.0115
46.1996
46.3843
46.5655
46.7434
46.9179
47.0892
47.2572
47.4221
47.5839
47.7427
47.8986
48.0516
48.2018
48.3494
48.4942
48.6366
48.7764
48.9138
49.0489
49.1817
49.3123
49.4408
49.5671
49.6915
49.8138
49.9343
50.0528
50.1695
50.2844
50.3975
50.5088
50.6184
50.7263
50.8324
50.9369
51.0396
51.1405
51.2398
51.3372
51.4329
51.5268
51.6189
51.7091
51.7974
51.8837
51.9681
52.0504
52.1306
52.2086
52.2844
52.3578
52.4288
52.4973
52.563
52.6259
52.6857
52.7422
52.7951
52.844
52.8885
52.9281
52.962
52.9897
53.01
53.022
53.0242
53.015
52.9925
52.9542
52.8976
52.8191
52.7148
52.5801
52.4091
52.195
51.9292
51.6015
51.1984
50.703
50.0929
49.3381
48.3978
47.2156
45.7132
43.7715
41.228
37.758
33.0315
25.8732
15.6016
0.862321
31.6863
31.6066
31.5507
31.5117
31.4821
31.4553
31.428
31.3987
31.367
31.3329
31.297
31.2598
31.2206
31.1805
31.14
31.1
31.0604
31.0213
30.9831
30.9461
30.9106
30.8768
30.8451
30.8156
30.7888
30.7651
30.7447
30.7282
30.7159
30.7085
30.7063
30.7098
30.7195
30.7357
30.7587
30.7889
30.8266
30.8719
30.9252
30.9866
31.0563
31.1344
31.221
31.3162
31.4201
31.5326
31.6538
31.7835
31.9218
32.0684
32.2234
32.3865
32.5576
32.7364
32.9228
33.1165
33.3172
33.5246
33.7386
33.9586
34.1846
34.416
34.6526
34.894
35.1399
35.39
35.6438
35.901
36.1613
36.4243
36.6896
36.957
37.226
37.4964
37.7678
38.0399
38.3125
38.5851
38.8575
39.1295
39.4008
39.6711
39.9402
40.2079
40.4739
40.738
41.0001
41.26
41.5175
41.7725
42.0247
42.2742
42.5207
42.7641
43.0044
43.2415
43.4752
43.7056
43.9326
44.1561
44.376
44.5925
44.8053
45.0146
45.2203
45.4224
45.621
45.816
46.0075
46.1955
46.38
46.5611
46.7389
46.9133
47.0845
47.2525
47.4173
47.5791
47.7378
47.8936
48.0465
48.1967
48.3441
48.4889
48.631
48.7707
48.9079
49.0428
49.1753
49.3056
49.4337
49.5596
49.6835
49.8053
49.9252
50.043
50.159
50.273
50.3852
50.4955
50.604
50.7106
50.8154
50.9184
51.0195
51.1187
51.2161
51.3115
51.4051
51.4966
51.5862
51.6737
51.7591
51.8424
51.9235
52.0023
52.0788
52.1529
52.2244
52.2934
52.3597
52.4232
52.4837
52.541
52.5949
52.6452
52.6915
52.7335
52.7706
52.8024
52.8282
52.8471
52.8583
52.8605
52.8523
52.832
52.7975
52.7465
52.6759
52.5822
52.4614
52.3082
52.1166
51.8794
51.5874
51.2294
50.7914
50.2549
49.5961
48.7826
47.7707
46.4996
44.8853
42.802
40.0754
36.3885
31.3673
24.1516
13.5214
0.165997
31.694
31.6186
31.5639
31.5248
31.4924
31.4619
31.4317
31.4009
31.3688
31.3351
31.2998
31.2633
31.2253
31.1865
31.1475
31.1088
31.0704
31.0323
30.9952
30.9594
30.925
30.8925
30.8621
30.8343
30.8094
30.7878
30.7699
30.7561
30.7467
30.7421
30.7426
30.7487
30.7606
30.7787
30.8034
30.8349
30.8736
30.9198
30.9737
31.0356
31.1057
31.184
31.2708
31.3661
31.47
31.5824
31.7034
31.8329
31.9708
32.117
32.2715
32.434
32.6044
32.7824
32.968
33.1607
33.3604
33.5668
33.7796
33.9985
34.2233
34.4534
34.6887
34.9288
35.1734
35.4221
35.6745
35.9303
36.1892
36.4507
36.7147
36.9806
37.2483
37.5173
37.7874
38.0582
38.3294
38.6007
38.8719
39.1427
39.4128
39.682
39.95
40.2165
40.4815
40.7447
41.0059
41.2649
41.5215
41.7756
42.0271
42.2759
42.5217
42.7645
43.0042
43.2407
43.474
43.7039
43.9304
44.1535
44.3731
44.5892
44.8018
45.0108
45.2163
45.4183
45.6166
45.8115
46.0029
46.1908
46.3752
46.5563
46.734
46.9084
47.0796
47.2475
47.4123
47.5741
47.7328
47.8885
48.0414
48.1915
48.3389
48.4836
48.6256
48.7651
48.9022
49.0368
49.1691
49.2991
49.4268
49.5524
49.6758
49.7971
49.9163
50.0335
50.1486
50.2618
50.3731
50.4823
50.5896
50.695
50.7984
50.8998
50.9993
51.0967
51.1921
51.2855
51.3767
51.4658
51.5528
51.6375
51.7199
51.8
51.8776
51.9528
52.0254
52.0954
52.1626
52.2269
52.2883
52.3466
52.4016
52.4531
52.5009
52.5447
52.5842
52.6189
52.6485
52.6723
52.6896
52.6996
52.7013
52.6935
52.6746
52.643
52.5964
52.5324
52.4477
52.3388
52.2012
52.0296
51.8176
51.5574
51.2394
50.8517
50.3793
49.8027
49.0966
48.2268
47.1469
45.7929
44.0763
41.8679
38.987
35.1338
29.9125
22.714
12.1101
-0.225488
31.7
31.6292
31.5756
31.5354
31.5008
31.4684
31.437
31.4057
31.3734
31.3398
31.3047
31.2686
31.2314
31.1935
31.1555
31.1178
31.0804
31.0436
31.0079
30.9734
30.9406
30.9096
30.8808
30.8546
30.8312
30.8112
30.7947
30.7823
30.7743
30.7711
30.7731
30.7807
30.7942
30.814
30.8403
30.8735
30.9139
30.9617
31.0171
31.0803
31.1514
31.2307
31.3181
31.4139
31.518
31.6305
31.7514
31.8806
32.0182
32.164
32.3179
32.4797
32.6494
32.8266
33.0112
33.203
33.4017
33.607
33.8187
34.0364
34.2599
34.4888
34.7228
34.9615
35.2047
35.452
35.703
35.9574
36.2149
36.4751
36.7376
37.0022
37.2685
37.5361
37.8049
38.0743
38.3443
38.6143
38.8843
39.1539
39.4229
39.6909
39.9578
40.2234
40.4874
40.7496
41.0099
41.268
41.5238
41.7772
42.028
42.276
42.5212
42.7635
43.0026
43.2387
43.4715
43.701
43.9271
44.1499
44.3692
44.585
44.7973
45.0062
45.2115
45.4133
45.6116
45.8063
45.9976
46.1855
46.3699
46.551
46.7287
46.9031
47.0743
47.2423
47.4071
47.5689
47.7276
47.8834
48.0363
48.1864
48.3337
48.4783
48.6203
48.7598
48.8967
49.0311
49.1632
49.2929
49.4203
49.5454
49.6683
49.7891
49.9077
50.0242
50.1386
50.2509
50.3612
50.4693
50.5754
50.6795
50.7814
50.8813
50.979
51.0746
51.168
51.2591
51.348
51.4346
51.5188
51.6006
51.6799
51.7566
51.8307
51.902
51.9706
52.0363
52.0989
52.1584
52.2147
52.2676
52.3168
52.3623
52.4037
52.4408
52.4732
52.5005
52.5222
52.5377
52.5463
52.5471
52.5391
52.521
52.4913
52.4482
52.3893
52.3121
52.2133
52.0891
51.9348
51.7449
51.5126
51.2297
50.8861
50.4693
49.9634
49.348
48.5965
47.6731
46.5296
45.0996
43.2918
40.976
37.9705
33.998
28.6622
21.5435
11.2326
-0.16623
31.7049
31.6384
31.5858
31.5447
31.5088
31.4751
31.4427
31.4105
31.3778
31.344
31.3091
31.2734
31.2369
31.2
31.163
31.1263
31.0901
31.0546
31.0202
30.9872
30.9558
30.9263
30.8991
30.8744
30.8528
30.8344
30.8196
30.8089
30.8026
30.801
30.8046
30.8136
30.8285
30.8496
30.8771
30.9114
30.9528
31.0014
31.0576
31.1215
31.1933
31.2732
31.3612
31.4574
31.5619
31.6748
31.7958
31.9252
32.0627
32.2083
32.3618
32.5232
32.6922
32.8688
33.0526
33.2434
33.4411
33.6454
33.8559
34.0724
34.2946
34.5222
34.7549
34.9923
35.2341
35.48
35.7296
35.9826
36.2386
36.4974
36.7585
37.0217
37.2866
37.5529
37.8203
38.0885
38.3571
38.626
38.8948
39.1632
39.431
39.698
39.9638
40.2284
40.4914
40.7528
41.0122
41.2695
41.5245
41.7772
42.0273
42.2747
42.5193
42.761
42.9997
43.2352
43.4676
43.6968
43.9226
44.145
44.3641
44.5797
44.7919
45.0006
45.2058
45.4075
45.6057
45.8005
45.9918
46.1796
46.3641
46.5452
46.723
46.8975
47.0687
47.2368
47.4017
47.5635
47.7224
47.8782
48.0312
48.1813
48.3287
48.4733
48.6152
48.7546
48.8913
49.0256
49.1575
49.2869
49.414
49.5388
49.6613
49.7815
49.8995
50.0153
50.1289
50.2403
50.3495
50.4566
50.5615
50.6641
50.7646
50.8628
50.9587
51.0524
51.1436
51.2325
51.319
51.4029
51.4843
51.563
51.639
51.7123
51.7826
51.8501
51.9144
51.9756
52.0335
52.088
52.139
52.1862
52.2296
52.2688
52.3036
52.3337
52.3588
52.3784
52.392
52.3989
52.3985
52.3899
52.3719
52.3434
52.3026
52.2477
52.1764
52.0859
51.9729
51.8334
51.6625
51.4544
51.2021
50.8969
50.5283
50.0832
49.5449
48.8923
48.0977
47.1242
45.9221
44.4236
42.5363
40.1315
37.0307
32.9817
27.6057
20.6219
10.7485
0.173326
31.709
31.6462
31.5948
31.5533
31.5164
31.4816
31.4482
31.4154
31.3822
31.3484
31.3138
31.2785
31.2428
31.2067
31.1706
31.1349
31.0998
31.0656
31.0324
31.0007
30.9706
30.9426
30.9169
30.8938
30.8737
30.8569
30.8437
30.8347
30.83
30.83
30.8352
30.8458
30.8622
30.8847
30.9136
30.9492
30.9917
31.0415
31.0986
31.1634
31.2359
31.3163
31.4047
31.5012
31.6058
31.7186
31.8396
31.9687
32.1059
32.251
32.4041
32.5649
32.7333
32.9091
33.0921
33.282
33.4788
33.682
33.8914
34.1068
34.3278
34.5541
34.7855
35.0216
35.262
35.5065
35.7547
36.0063
36.2609
36.5182
36.7779
37.0397
37.3032
37.5681
37.8342
38.101
38.3684
38.636
38.9036
39.1708
39.4375
39.7034
39.9682
40.2318
40.4939
40.7543
41.0129
41.2694
41.5237
41.7757
42.0251
42.2719
42.516
42.7572
42.9954
43.2306
43.4626
43.6914
43.9169
44.1392
44.358
44.5735
44.7855
44.9941
45.1993
45.4009
45.5992
45.7939
45.9853
46.1732
46.3578
46.539
46.7169
46.8915
47.0629
47.2311
47.3961
47.5581
47.7171
47.873
48.0261
48.1763
48.3237
48.4683
48.6103
48.7496
48.8863
49.0205
49.1521
49.2813
49.4081
49.5325
49.6546
49.7743
49.8916
50.0067
50.1195
50.23
50.3382
50.4442
50.5478
50.649
50.7479
50.8445
50.9386
51.0302
51.1193
51.2058
51.2897
51.3709
51.4493
51.5249
51.5975
51.6672
51.7337
51.797
51.857
51.9136
51.9666
52.0159
52.0613
52.1028
52.1399
52.1727
52.2007
52.2236
52.2411
52.2527
52.258
52.2561
52.2465
52.2281
52.2
52.1607
52.1087
52.0419
51.958
51.8541
51.7269
51.5721
51.3847
51.1587
50.8867
50.5597
50.1669
49.6944
49.1252
48.4373
47.6023
46.5823
45.327
43.7682
41.8137
39.3381
36.1698
32.0826
26.7273
19.9224
10.553
0.705386
31.7126
31.6531
31.6029
31.5611
31.5234
31.4879
31.4537
31.4203
31.3868
31.353
31.3186
31.2838
31.2486
31.2133
31.1782
31.1434
31.1094
31.0763
31.0443
31.0138
30.9851
30.9585
30.9342
30.9126
30.894
30.8787
30.8671
30.8596
30.8564
30.858
30.8647
30.8768
30.8946
30.9185
30.9488
30.9856
31.0294
31.0802
31.1384
31.204
31.2773
31.3585
31.4475
31.5444
31.6494
31.7625
31.8835
32.0126
32.1496
32.2945
32.4471
32.6073
32.7751
32.9501
33.1322
33.3212
33.5169
33.7189
33.9272
34.1413
34.361
34.586
34.8159
35.0506
35.2896
35.5326
35.7793
36.0294
36.2826
36.5385
36.7967
37.0571
37.3192
37.5827
37.8474
38.1129
38.3789
38.6453
38.9116
39.1776
39.4432
39.7079
39.9717
40.2343
40.4954
40.7549
41.0127
41.2684
41.5219
41.7732
42.022
42.2682
42.5117
42.7524
42.9902
43.225
43.4566
43.6852
43.9104
44.1325
44.3511
44.5665
44.7784
44.987
45.1921
45.3938
45.592
45.7869
45.9783
46.1664
46.3511
46.5324
46.7105
46.8853
47.0568
47.2252
47.3905
47.5526
47.7118
47.8679
48.0211
48.1714
48.3189
48.4637
48.6056
48.7449
48.8816
49.0157
49.1472
49.2762
49.4027
49.5267
49.6483
49.7675
49.8843
49.9986
50.1106
50.2202
50.3274
50.4321
50.5344
50.6342
50.7316
50.8264
50.9185
51.0081
51.0949
51.179
51.2603
51.3387
51.414
51.4863
51.5555
51.6214
51.6839
51.743
51.7985
51.8503
51.8982
51.9422
51.9819
52.0173
52.0482
52.0742
52.0952
52.1107
52.1204
52.1238
52.1204
52.1096
52.0904
52.0622
52.0236
51.9734
51.9099
51.831
51.7344
51.6172
51.4757
51.3056
51.1019
50.8583
50.5671
50.219
49.8027
49.3041
48.7056
47.9845
47.1119
46.0497
44.7471
43.1363
41.1269
38.5982
35.3882
31.2961
26.0094
19.4166
10.577
1.39558
31.7158
31.6591
31.6101
31.5682
31.53
31.4938
31.4591
31.4252
31.3915
31.3577
31.3236
31.2891
31.2546
31.22
31.1857
31.1519
31.1188
31.0868
31.056
31.0268
30.9993
30.974
30.9511
30.9309
30.9137
30.8999
30.8898
30.8838
30.8821
30.8852
30.8933
30.9068
30.926
30.9512
30.9827
31.0207
31.0656
31.1174
31.1766
31.2431
31.3172
31.399
31.4886
31.586
31.6914
31.8047
31.926
32.0551
32.1921
32.3369
32.4892
32.6491
32.8164
32.9909
33.1723
33.3606
33.5554
33.7566
33.9638
34.1768
34.3953
34.619
34.8477
35.0809
35.3185
35.5601
35.8053
36.0539
36.3056
36.5599
36.8166
37.0754
37.336
37.5981
37.8613
38.1253
38.39
38.655
38.92
39.1848
39.4491
39.7127
39.9753
40.2368
40.497
40.7555
41.0123
41.2672
41.5199
41.7705
42.0186
42.2642
42.5071
42.7473
42.9846
43.219
43.4503
43.6785
43.9035
44.1253
44.3439
44.5591
44.771
44.9795
45.1846
45.3863
45.5846
45.7796
45.9711
46.1593
46.3442
46.5257
46.704
46.879
47.0508
47.2194
47.3849
47.5473
47.7066
47.863
48.0163
48.1668
48.3145
48.4593
48.6013
48.7407
48.8773
49.0113
49.1427
49.2715
49.3977
49.5214
49.6426
49.7613
49.8774
49.9911
50.1022
50.2109
50.317
50.4206
50.5215
50.6199
50.7156
50.8086
50.8988
50.9862
51.0708
51.1523
51.2309
51.3063
51.3786
51.4475
51.5131
51.5751
51.6336
51.6883
51.7392
51.786
51.8287
51.8671
51.901
51.9303
51.9546
51.9737
51.9874
51.9953
51.997
51.992
51.9797
51.9596
51.9308
51.8924
51.8432
51.7818
51.7067
51.6156
51.5062
51.3755
51.2197
51.0346
50.8148
50.5539
50.244
49.8755
49.4369
48.9135
48.2873
47.5354
46.6285
45.5283
44.1845
42.5303
40.478
37.9131
34.6845
30.6161
25.4346
19.0779
10.7703
2.20909
31.7186
31.6644
31.6166
31.5747
31.5362
31.4995
31.4643
31.4301
31.3963
31.3625
31.3285
31.2945
31.2605
31.2266
31.1931
31.1602
31.1281
31.0971
31.0675
31.0394
31.0132
30.9891
30.9675
30.9487
30.9329
30.9205
30.9118
30.9072
30.9069
30.9114
30.9209
30.9357
30.9562
30.9827
31.0154
31.0545
31.1004
31.1533
31.2133
31.2807
31.3555
31.4379
31.5281
31.626
31.7317
31.8453
31.9667
32.0959
32.2329
32.3775
32.5296
32.6892
32.8561
33.0301
33.211
33.3986
33.5928
33.7931
33.9995
34.2116
34.4291
34.6518
34.8793
35.1115
35.3479
35.5882
35.8322
36.0794
36.3297
36.5827
36.838
37.0954
37.3546
37.6152
37.877
38.1397
38.4029
38.6665
38.9302
39.1936
39.4566
39.719
39.9804
40.2408
40.4998
40.7573
41.0131
41.267
41.5189
41.7686
42.016
42.2608
42.5031
42.7427
42.9795
43.2134
43.4444
43.6722
43.8969
44.1185
44.3368
44.5519
44.7637
44.9721
45.1772
45.379
45.5774
45.7724
45.9641
46.1525
46.3375
46.5192
46.6977
46.873
47.045
47.2138
47.3796
47.5422
47.7018
47.8584
48.012
48.1627
48.3105
48.4554
48.5976
48.7369
48.8736
49.0075
49.1388
49.2674
49.3934
49.5168
49.6375
49.7557
49.8712
49.9842
50.0945
50.2022
50.3072
50.4096
50.5092
50.606
50.7001
50.7912
50.8795
50.9647
51.0469
51.1259
51.2017
51.2741
51.3431
51.4086
51.4705
51.5286
51.5829
51.6331
51.6792
51.721
51.7583
51.7911
51.819
51.8418
51.8594
51.8715
51.8777
51.8778
51.8713
51.8576
51.8363
51.8067
51.768
51.7192
51.6592
51.5865
51.4995
51.3962
51.2739
51.1296
50.9597
50.7596
50.524
50.2462
49.9182
49.5302
49.0702
48.5235
47.8716
47.0915
46.1536
45.02
43.6411
41.9521
39.8684
37.2828
34.0564
30.0356
24.9865
18.8814
11.0929
3.1093
31.7212
31.6692
31.6224
31.5807
31.5419
31.5049
31.4694
31.4349
31.401
31.3672
31.3335
31.2999
31.2664
31.2332
31.2004
31.1684
31.1372
31.1072
31.0786
31.0517
31.0266
31.0038
30.9835
30.9659
30.9514
30.9404
30.9331
30.9298
30.9309
30.9367
30.9475
30.9636
30.9854
31.013
31.0469
31.0871
31.1341
31.1879
31.2488
31.3169
31.3924
31.4755
31.5661
31.6644
31.7705
31.8843
32.0058
32.1351
32.272
32.4165
32.5684
32.7277
32.8942
33.0677
33.2481
33.4351
33.6285
33.8281
34.0337
34.2449
34.4615
34.6832
34.9098
35.1409
35.3762
35.6154
35.8582
36.1044
36.3535
36.6052
36.8594
37.1155
37.3735
37.6329
37.8934
38.1549
38.4169
38.6793
38.9417
39.204
39.4659
39.7271
39.9874
40.2466
40.5046
40.761
41.0158
41.2688
41.5198
41.7686
42.0151
42.2592
42.5008
42.7398
42.976
43.2093
43.4397
43.6672
43.8915
44.1128
44.3308
44.5457
44.7573
44.9656
45.1707
45.3724
45.5708
45.7659
45.9577
46.1462
46.3314
46.5134
46.6921
46.8675
47.0398
47.2089
47.3749
47.5378
47.6976
47.8544
48.0083
48.1592
48.3071
48.4523
48.5945
48.734
48.8706
49.0045
49.1357
49.2642
49.3899
49.5129
49.6333
49.7509
49.8659
49.9781
50.0876
50.1943
50.2983
50.3994
50.4976
50.5929
50.6852
50.7745
50.8607
50.9437
51.0235
51.0999
51.1728
51.2422
51.3079
51.3699
51.428
51.4821
51.532
51.5777
51.6189
51.6555
51.6874
51.7143
51.736
51.7524
51.7632
51.768
51.7666
51.7587
51.7437
51.7212
51.6907
51.6514
51.6026
51.5432
51.4722
51.3881
51.2892
51.1734
51.0381
50.8804
50.6963
50.4815
50.2303
49.9361
49.5906
49.184
48.7039
48.1354
47.4599
46.6542
45.6889
44.5266
43.1187
41.403
39.299
36.7069
33.5005
29.547
24.6496
18.8046
11.5129
4.06531
31.7237
31.6734
31.6276
31.5861
31.5472
31.5101
31.4744
31.4397
31.4057
31.372
31.3385
31.3053
31.2723
31.2397
31.2076
31.1764
31.1461
31.1171
31.0895
31.0636
31.0397
31.0181
30.9989
30.9826
30.9694
30.9597
30.9536
30.9517
30.9541
30.9611
30.9732
30.9906
31.0135
31.0423
31.0772
31.1185
31.1664
31.2211
31.2829
31.3517
31.4279
31.5115
31.6027
31.7014
31.8078
31.9218
32.0435
32.1728
32.3097
32.454
32.6057
32.7647
32.9308
33.1039
33.2837
33.4701
33.6629
33.8617
34.0665
34.2769
34.4926
34.7134
34.939
35.169
35.4033
35.6415
35.8832
36.1282
36.3762
36.6269
36.8799
37.1349
37.3917
37.65
37.9094
38.1698
38.4307
38.692
38.9534
39.2146
39.4754
39.7356
39.995
40.2533
40.5103
40.7658
41.0198
41.2719
41.5221
41.7701
42.0159
42.2594
42.5003
42.7386
42.9742
43.207
43.4369
43.6639
43.8879
44.1088
44.3265
44.5411
44.7525
44.9607
45.1656
45.3673
45.5657
45.7608
45.9527
46.1412
46.3266
46.5087
46.6875
46.8632
47.0357
47.205
47.3713
47.5344
47.6945
47.8515
48.0056
48.1567
48.3048
48.4501
48.5925
48.732
48.8687
49.0025
49.1336
49.2619
49.3874
49.5101
49.63
49.7472
49.8615
49.973
50.0816
50.1874
50.2902
50.3901
50.4869
50.5806
50.6713
50.7587
50.8428
50.9235
51.0008
51.0745
51.1445
51.2108
51.2732
51.3316
51.3858
51.4358
51.4814
51.5224
51.5586
51.59
51.6162
51.6372
51.6527
51.6625
51.6662
51.6637
51.6546
51.6384
51.6149
51.5835
51.5435
51.4944
51.4353
51.3653
51.2831
51.1874
51.0765
50.9482
50.7999
50.6287
50.4307
50.2012
49.9348
49.6246
49.2624
48.8379
48.3389
47.7503
47.0533
46.2249
45.2358
44.0493
42.6186
40.884
38.7699
36.184
33.013
29.1425
24.4097
18.8275
12.0051
5.05316
31.7259
31.6773
31.6324
31.5911
31.5522
31.515
31.4791
31.4443
31.4103
31.3767
31.3435
31.3106
31.2781
31.2461
31.2147
31.1842
31.1548
31.1267
31.1001
31.0752
31.0524
31.0319
31.0139
30.9988
30.9868
30.9782
30.9735
30.9727
30.9764
30.9847
30.998
31.0165
31.0406
31.0705
31.1065
31.1487
31.1976
31.2532
31.3157
31.3853
31.4621
31.5463
31.6379
31.737
31.8437
31.9579
32.0797
32.2091
32.3459
32.4901
32.6416
32.8003
32.966
33.1387
33.318
33.5038
33.6959
33.8941
34.0981
34.3077
34.5225
34.7424
34.9671
35.1962
35.4294
35.6666
35.9073
36.1512
36.3981
36.6477
36.8996
37.1536
37.4093
37.6665
37.9248
38.1841
38.444
38.7043
38.9646
39.2249
39.4848
39.744
40.0025
40.2599
40.5161
40.7708
41.024
41.2754
41.5248
41.7722
42.0174
42.2602