/*--------------------------------*- C++ -*----------------------------------*\
| =========                 |                                                 |
| \\      /  F ield         | OpenFOAM: The Open Source CFD Toolbox           |
|  \\    /   O peration     | Version:  2.4.0                                 |
|   \\  /    A nd           | Web:      www.OpenFOAM.org                      |
|    \\/     M anipulation  |                                                 |
\*---------------------------------------------------------------------------*/
FoamFile
{
    version     2.0;
    format      ascii;
    class       volScalarField;
    location    "0.097";
    object      k;
}
// * * * * * * * * * * * * * * * * * * * * * * * * * * * * * * * * * * * * * //

dimensions      [0 2 -2 0 0 0 0];

internalField   nonuniform List<scalar> 
4400
(
9.51593
8.51838
6.47555
5.34399
4.58811
4.24857
3.99669
3.80152
3.57442
3.77797
4.38788
6.79895
6.713
6.34069
5.6417
5.26023
4.9609
4.68123
4.55879
4.4832
1.13919
3.20632
4.17439
4.56702
4.46257
4.2831
4.14946
3.90083
3.92752
3.77447
0.158693
0.974039
1.66624
2.33919
2.66999
2.78767
2.88261
2.82443
2.89528
2.86348
0.0166803
0.180472
0.389452
0.748519
1.10552
1.30572
1.53665
1.6534
1.7327
1.87585
0.00141015
0.021365
0.0544099
0.1214
0.276215
0.37529
0.501871
0.694289
0.754734
0.926654
0.000135302
0.0021286
0.00507033
0.0116855
0.0356248
0.0581836
0.0849205
0.165212
0.198035
0.303005
4.09653e-05
0.000348246
0.000547393
0.00093325
0.00288955
0.00462585
0.00725937
0.0189264
0.0248273
0.0562794
3.35725e-05
0.000146558
0.000219884
0.000252886
0.000382988
0.000446097
0.000523809
0.00123531
0.00162768
0.00534084
3.35559e-05
0.000122614
0.000164294
0.00020174
0.000231554
0.000230038
0.000219185
0.000242517
0.000259942
0.000482522
3.35657e-05
0.000135096
0.000144823
0.000169371
0.000206328
0.000219991
0.000225717
0.000234529
0.000267247
0.000352398
3.44737e-05
0.000129887
0.000141659
0.000201224
0.000271418
0.000438262
0.000609691
0.000809935
0.00145154
0.00346869
4.08116e-05
0.000230524
0.000397682
0.000896066
0.00184069
0.00469982
0.00794857
0.0143097
0.0240082
0.0526577
0.00013981
0.00149183
0.0043223
0.0126881
0.0270099
0.0620693
0.0911661
0.149283
0.196588
0.324079
0.00150861
0.0168656
0.0520457
0.133279
0.243277
0.396565
0.516143
0.666606
0.763802
0.973146
0.0175874
0.14928
0.415976
0.739611
1.09079
1.33149
1.52497
1.66098
1.74911
1.90011
0.166166
0.930873
1.72183
2.29996
2.68561
2.79157
2.86949
2.85517
2.85973
2.87744
1.18397
3.13951
4.23011
4.51795
4.47985
4.26864
4.14415
3.93283
3.8629
3.76777
4.41489
6.74239
6.74377
6.27774
5.72806
5.19547
4.97164
4.65119
4.5467
4.30181
9.5349
8.47111
6.52899
5.27539
4.65187
4.19467
4.007
3.74501
3.65099
3.3067
2.16563
0.942328
0.599223
0.552125
0.646507
0.755032
0.846924
1.07605
1.04279
1.18502
1.16817
0.916252
0.702239
0.511398
0.349533
0.282222
0.268471
0.276619
0.322148
0.34463
0.364525
0.367134
0.356113
0.334101
0.267333
0.116841
0.0541965
0.0376929
0.0397652
0.0525578
0.0862332
0.154036
0.166302
0.156374
0.12454
0.124967
0.152342
0.255351
0.335478
0.338807
0.313842
0.295534
0.280938
0.256958
0.241701
0.212276
0.175534
0.157104
0.126079
0.103642
0.10324
0.0983584
0.0885054
0.0943665
0.193102
0.399371
0.459428
0.3682
0.296659
0.222568
0.155884
0.110475
0.0979322
0.0989609
0.106476
0.127697
0.202755
0.247808
0.241008
0.177612
0.101531
0.0605172
0.047276
0.0399541
0.0363177
0.0339483
0.035677
0.0361713
0.0417187
0.0420147
0.0457408
0.0463859
0.0502571
0.0529606
0.0657346
0.0682676
0.0716185
0.0692277
0.0610805
0.0454885
0.0328271
0.0223247
0.0154137
0.0121065
0.010864
0.00648388
0.00660264
0.00820737
0.0528373
0.491721
3.45157
2.37371
1.72262
1.33442
1.12195
1.12759
1.12487
1.17647
1.13361
1.0898
1.11746
1.08384
1.00766
0.879062
0.646188
0.51677
0.464697
0.475278
0.473862
0.449477
0.422839
0.394034
0.35616
0.275061
0.12128
0.0554878
0.0328089
0.0326268
0.0436489
0.0834249
0.170138
0.233629
0.234272
0.221312
0.18112
0.138628
0.140234
0.166761
0.254012
0.308293
0.305345
0.29454
0.279898
0.26067
0.239146
0.19703
0.16111
0.147807
0.122575
0.101848
0.102157
0.0988217
0.0929277
0.11045
0.192722
0.456886
0.434501
0.35807
0.326712
0.248515
0.160865
0.107189
0.0906856
0.0910331
0.0979656
0.116915
0.18471
0.238466
0.236179
0.189125
0.109585
0.0647214
0.049936
0.0402997
0.0370923
0.034832
0.0380549
0.039631
0.0488044
0.0489596
0.0520707
0.0507288
0.0519568
0.053214
0.0648806
0.0675015
0.0743025
0.0694481
0.0655956
0.0504104
0.0440823
0.0298149
0.0219124
0.0132759
0.0131411
0.00970664
0.0123392
0.00954524
0.0430582
0.316331
3.13688
2.54017
2.13974
1.82681
1.60036
1.47331
1.29004
1.23311
1.13352
1.02597
0.966122
0.966817
0.949919
0.904385
0.862478
0.769708
0.645617
0.599733
0.521728
0.461459
0.404616
0.348094
0.243066
0.106628
0.0511302
0.0293229
0.0254504
0.030925
0.0695636
0.184945
0.279348
0.313731
0.308684
0.286947
0.257818
0.181347
0.148534
0.151334
0.175079
0.244354
0.27933
0.279035
0.271462
0.254864
0.213862
0.176582
0.152929
0.14325
0.121294
0.101647
0.101097
0.100883
0.0994986
0.134702
0.234565
0.470893
0.394286
0.376457
0.369482
0.307036
0.179036
0.107808
0.0858194
0.0850637
0.0908544
0.107797
0.16952
0.230341
0.229649
0.196522
0.121554
0.069225
0.0550977
0.0414942
0.0393744
0.0372175
0.0425153
0.0452314
0.0563032
0.0560245
0.0578233
0.0542096
0.0541858
0.0545149
0.0641548
0.0671586
0.0747939
0.069102
0.0678841
0.0531833
0.0497722
0.0375288
0.0348754
0.0206841
0.0186734
0.0122131
0.0214667
0.0132128
0.04329
0.197726
2.51363
2.15189
1.9075
1.67658
1.47771
1.36325
1.19836
1.05514
0.96196
0.852354
0.731197
0.721576
0.702637
0.671515
0.679729
0.655456
0.616661
0.543482
0.434818
0.355144
0.254407
0.148054
0.0764796
0.0371654
0.0241876
0.0202854
0.0233243
0.0450266
0.151801
0.314415
0.36878
0.367198
0.347826
0.313071
0.292033
0.250613
0.177721
0.156606
0.159675
0.182859
0.225279
0.238189
0.235129
0.22096
0.186627
0.166901
0.149856
0.141343
0.12001
0.10317
0.100625
0.103052
0.106791
0.139332
0.308738
0.428268
0.387919
0.428899
0.407891
0.32062
0.198961
0.111863
0.0827557
0.0806589
0.0855029
0.100546
0.153665
0.220792
0.222672
0.199327
0.137902
0.0773288
0.0644012
0.0446776
0.0437078
0.0420427
0.048745
0.0522304
0.0646463
0.0645599
0.0656979
0.0587229
0.0577111
0.0574121
0.0660164
0.0685055
0.0743997
0.0682284
0.0665614
0.0510394
0.0661297
0.0560167
0.115886
0.0718897
0.107828
0.0401839
0.0414008
0.022066
0.0374853
0.113043
1.72916
1.55786
1.40801
1.28881
1.10735
0.99502
0.913064
0.74492
0.675577
0.601568
0.468783
0.451276
0.416508
0.398532
0.399061
0.385885
0.364637
0.310759
0.236949
0.152891
0.0858281
0.0483233
0.0254473
0.0168705
0.0161935
0.0179808
0.0307082
0.0935844
0.299712
0.423234
0.426592
0.39344
0.352767
0.314411
0.288544
0.272234
0.229117
0.174053
0.161949
0.16584
0.18452
0.20162
0.200881
0.193181
0.174874
0.164573
0.149334
0.14101
0.119035
0.107344
0.103007
0.105822
0.11222
0.137991
0.335507
0.379014
0.430001
0.493334
0.420776
0.292744
0.205265
0.117062
0.0820988
0.0768865
0.0804987
0.0940765
0.142462
0.213883
0.217215
0.200547
0.150001
0.0858365
0.0730042
0.0501829
0.0503154
0.0485227
0.0559237
0.059602
0.0722568
0.0722562
0.0722306
0.0633592
0.0624128
0.0620578
0.0720147
0.0732896
0.0770731
0.073918
0.060107
0.0491146
0.0460199
0.0498487
0.0973127
0.088803
0.228976
0.160248
0.211646
0.104754
0.0687789
0.0905865
0.892186
0.847472
0.792474
0.757875
0.658259
0.569637
0.517101
0.399177
0.362516
0.312439
0.225062
0.206112
0.170911
0.164781
0.161463
0.153608
0.142898
0.114687
0.081139
0.0492816
0.0271614
0.0163507
0.0114234
0.0120864
0.0141791
0.0219708
0.0589885
0.221192
0.455809
0.489926
0.456044
0.382096
0.334934
0.299727
0.278251
0.271914
0.258617
0.210676
0.170882
0.16833
0.17264
0.184752
0.185218
0.182805
0.173915
0.168716
0.152433
0.142941
0.120368
0.112881
0.106008
0.107823
0.111808
0.135486
0.287212
0.360257
0.539731
0.522367
0.370612
0.252055
0.205814
0.120616
0.0844648
0.0753746
0.0779513
0.0897298
0.131487
0.2047
0.212291
0.199364
0.16692
0.0951406
0.0826062
0.0581302
0.0597983
0.0575675
0.0654351
0.0687011
0.0799391
0.0803593
0.0789593
0.0696934
0.0687691
0.0694419
0.080522
0.0837446
0.0861507
0.0804691
0.0614521
0.0434262
0.037709
0.0439704
0.0761748
0.0850183
0.146186
0.150843
0.175673
0.147788
0.163515
0.117484
0.30322
0.295779
0.281899
0.274786
0.237245
0.202639
0.172693
0.127073
0.114902
0.0926938
0.0677024
0.0562818
0.04562
0.0438705
0.041991
0.040847
0.0384511
0.0320283
0.0220805
0.0131531
0.00896048
0.00805194
0.0087732
0.0115659
0.0186736
0.0412517
0.132662
0.421977
0.54791
0.52017
0.431743
0.353846
0.310972
0.27573
0.258877
0.263816
0.262914
0.249346
0.19617
0.1771
0.176803
0.184316
0.1855
0.185058
0.181478
0.176648
0.158322
0.147693
0.126618
0.121295
0.110628
0.109669
0.10943
0.141035
0.228517
0.3559
0.562107
0.460272
0.314355
0.256931
0.218309
0.128038
0.0917268
0.075775
0.0764792
0.0857689
0.123496
0.197191
0.207343
0.197192
0.174222
0.110788
0.0979205
0.070384
0.0722415
0.0688551
0.0766104
0.0788773
0.0876209
0.0868022
0.0842086
0.0741671
0.0754289
0.0754186
0.0863171
0.0912408
0.0932636
0.0894175
0.0705234
0.0473582
0.0304671
0.0317059
0.0496021
0.0683218
0.201459
0.171827
0.252797
0.208657
0.192806
0.144082
0.0601461
0.0578657
0.0545957
0.0529605
0.044632
0.0383341
0.0315249
0.0246285
0.0215574
0.0163272
0.0123063
0.00951765
0.00795003
0.00738776
0.00708498
0.00714448
0.00691138
0.00643584
0.00501219
0.0050521
0.00572439
0.00715531
0.0113312
0.0207981
0.0401097
0.0918954
0.306008
0.586848
0.611967
0.523986
0.400416
0.341327
0.299871
0.266125
0.246637
0.248128
0.259947
0.258651
0.231969
0.19843
0.187942
0.191649
0.192316
0.193936
0.192466
0.186809
0.166473
0.154623
0.137596
0.131665
0.119596
0.113987
0.109991
0.159741
0.218579
0.391907
0.490522
0.400161
0.328101
0.334125
0.278312
0.137622
0.0992403
0.0769269
0.0769577
0.0839424
0.117401
0.187537
0.199586
0.192438
0.176233
0.125373
0.113569
0.0854545
0.0872352
0.0825496
0.089281
0.0904511
0.0958216
0.0929488
0.0899789
0.0814695
0.0869907
0.0871483
0.0994466
0.100775
0.102535
0.0963187
0.073577
0.0501
0.0302067
0.0279694
0.0238024
0.0451147
0.0452175
0.129452
0.143008
0.188692
0.252811
0.200977
0.00584349
0.00550754
0.00514327
0.00453214
0.00382196
0.00325308
0.00278041
0.00237834
0.00197752
0.00168088
0.00161185
0.00162901
0.00170779
0.00182655
0.00192188
0.00199032
0.00218984
0.00273326
0.00348686
0.00564312
0.00957555
0.0151505
0.0300038
0.0518786
0.0902007
0.192595
0.527694
0.682875
0.644542
0.477023
0.381945
0.336155
0.291471
0.263254
0.248448
0.248306
0.254009
0.26149
0.254567
0.230433
0.210704
0.210523
0.210983
0.213533
0.212256
0.201896
0.182975
0.17031
0.159054
0.146635
0.12514
0.117237
0.112532
0.171737
0.218752
0.40082
0.379923
0.398362
0.390134
0.383085
0.345572
0.157173
0.113539
0.0791727
0.0786425
0.0831696
0.11799
0.179831
0.196182
0.190108
0.178196
0.13672
0.127033
0.10215
0.103294
0.09782
0.102091
0.101881
0.103292
0.0986848
0.0978507
0.0952185
0.103405
0.103805
0.115804
0.113546
0.114801
0.106385
0.0802211
0.0536681
0.0330758
0.0273955
0.019991
0.0320789
0.0279962
0.0827309
0.0780812
0.126594
0.233714
0.227189
0.000494528
0.00047195
0.000451487
0.000448956
0.000470501
0.000486381
0.000535827
0.000614013
0.000836594
0.0010492
0.00140374
0.00234161
0.00305667
0.00417659
0.00480739
0.00531352
0.00651539
0.00866815
0.0119289
0.0205632
0.0298549
0.043797
0.0796368
0.117684
0.180805
0.381708
0.706558
0.727713
0.621457
0.437946
0.365743
0.333155
0.287166
0.270566
0.260944
0.254881
0.256564
0.266186
0.266108
0.258425
0.250321
0.239559
0.241191
0.243569
0.240348
0.223551
0.21052
0.196589
0.18306
0.161655
0.130248
0.118428
0.114685
0.170534
0.205984
0.364948
0.3662
0.495386
0.450838
0.41167
0.349698
0.168103
0.126247
0.0814493
0.0822485
0.0839166
0.121299
0.1753
0.194311
0.189036
0.18016
0.14641
0.139315
0.119143
0.119338
0.112422
0.113429
0.111802
0.110232
0.105044
0.108518
0.10894
0.123847
0.12487
0.140095
0.133088
0.133452
0.117571
0.0856666
0.055181
0.0355812
0.0270223
0.0194345
0.0252757
0.0223864
0.0562419
0.0527653
0.0908149
0.116746
0.192392
0.000394363
0.00041898
0.00047507
0.000632542
0.000831799
0.00140474
0.00205814
0.00302746
0.00529666
0.00660271
0.00927471
0.0132723
0.0161804
0.0209244
0.0234981
0.0251778
0.0290221
0.034277
0.0433136
0.0630443
0.0796821
0.109888
0.175858
0.2262
0.32224
0.618303
0.777531
0.741431
0.57937
0.422005
0.356052
0.332911
0.292461
0.272904
0.26351
0.262925
0.263787
0.269085
0.274706
0.27611
0.275282
0.271219
0.280069
0.278708
0.266372
0.252156
0.24486
0.229225
0.204594
0.171373
0.134919
0.119333
0.116128
0.148568
0.17738
0.304285
0.369697
0.689471
0.492629
0.440088
0.305763
0.153177
0.145285
0.0846939
0.0918663
0.086114
0.128631
0.174277
0.192698
0.187325
0.180842
0.154275
0.149668
0.136612
0.133536
0.124077
0.124819
0.122287
0.116545
0.116101
0.125142
0.130373
0.157256
0.156542
0.172192
0.15859
0.157089
0.129646
0.094959
0.0570475
0.0389348
0.0266501
0.0207736
0.0214957
0.0205452
0.0406836
0.0393638
0.0703256
0.0760295
0.113165
0.00429649
0.00452943
0.00527883
0.00672472
0.00967454
0.0159006
0.0192569
0.0253559
0.0342799
0.038842
0.0488199
0.0609147
0.068132
0.0778019
0.0822976
0.0856111
0.0926852
0.102644
0.123754
0.154888
0.182705
0.244465
0.324755
0.388417
0.541749
0.763463
0.791848
0.692055
0.562356
0.416292
0.351586
0.339681
0.316078
0.280926
0.269954
0.274286
0.27626
0.276514
0.285245
0.302306
0.310758
0.313938
0.322454
0.302882
0.296439
0.292251
0.285059
0.253013
0.215997
0.17206
0.135009
0.118046
0.116178
0.127083
0.151544
0.23043
0.431821
0.727372
0.455477
0.336919
0.233188
0.16094
0.207254
0.0894218
0.111227
0.0908348
0.142751
0.176018
0.194252
0.186973
0.182424
0.160907
0.159899
0.153299
0.143495
0.138909
0.1374
0.130347
0.129522
0.131516
0.155134
0.165602
0.207035
0.199393
0.218367
0.192141
0.18736
0.144784
0.101103
0.0574513
0.0413175
0.0260221
0.0234932
0.0216919
0.0211094
0.0319247
0.0313175
0.053293
0.0561781
0.0758758
0.0567395
0.0582497
0.0643998
0.0716592
0.0863007
0.103049
0.111188
0.128146
0.144564
0.153647
0.178286
0.195988
0.202334
0.210949
0.213361
0.216241
0.223463
0.239193
0.276531
0.310078
0.348629
0.441708
0.51599
0.591116
0.713286
0.804072
0.748831
0.630608
0.566611
0.417492
0.349797
0.345001
0.343923
0.312566
0.297327
0.303652
0.301281
0.29874
0.316517
0.329809
0.349888
0.350646
0.342648
0.326693
0.337115
0.325547
0.307223
0.254304
0.218172
0.167974
0.133105
0.114456
0.115998
0.121728
0.135716
0.185899
0.475004
0.650611
0.379528
0.286862
0.250289
0.237605
0.325155
0.0916964
0.158851
0.0982064
0.168085
0.181048
0.20044
0.188181
0.186549
0.171653
0.173033
0.167745
0.155575
0.156243
0.150148
0.144455
0.147456
0.158228
0.213371
0.229231
0.296486
0.272817
0.295637
0.249034
0.233693
0.155316
0.106002
0.0575237
0.0445547
0.0267287
0.0274635
0.0238138
0.0239643
0.0293783
0.0286752
0.0411135
0.042885
0.0560551
0.319931
0.31345
0.313871
0.318239
0.335753
0.350512
0.357245
0.374865
0.385554
0.397465
0.422384
0.428937
0.428633
0.428378
0.420078
0.416183
0.421797
0.442865
0.475778
0.504555
0.561469
0.65168
0.719455
0.737138
0.774238
0.770203
0.6306
0.601543
0.619415
0.454033
0.352721
0.346149
0.357802
0.351067
0.347692
0.337287
0.326114
0.334242
0.351552
0.366237
0.373561
0.363987
0.351259
0.357799
0.363908
0.328983
0.304302
0.246319
0.221547
0.159875
0.127868
0.111856
0.118656
0.119927
0.124688
0.167776
0.463399
0.571746
0.408269
0.342933
0.265396
0.285872
0.337315
0.112188
0.289427
0.104836
0.22554
0.193435
0.213389
0.192795
0.196426
0.188406
0.185661
0.182316
0.171084
0.171181
0.158788
0.158156
0.18274
0.209187
0.33117
0.353482
0.464731
0.40604
0.432527
0.358043
0.266169
0.153804
0.107627
0.0571894
0.0485866
0.0312664
0.0359035
0.0295066
0.0298946
0.0309051
0.0299131
0.0353504
0.0358652
0.0417289
0.926132
0.872175
0.824085
0.784757
0.773065
0.74652
0.718175
0.712146
0.706232
0.704602
0.704838
0.700223
0.680195
0.662345
0.634324
0.623532
0.629305
0.649603
0.668775
0.702263
0.773525
0.821231
0.817268
0.792063
0.751585
0.651297
0.517106
0.606254
0.724919
0.535178
0.374024
0.346623
0.36168
0.374436
0.379918
0.359059
0.368725
0.35683
0.380091
0.37912
0.374187
0.371081
0.376204
0.380765
0.350179
0.263976
0.250113
0.216314
0.205734
0.150447
0.123819
0.112217
0.123547
0.12216
0.12296
0.162702
0.406277
0.558245
0.530998
0.420179
0.279777
0.297666
0.197997
0.204545
0.476775
0.122165
0.26309
0.219009
0.251721
0.207267
0.2118
0.209333
0.20052
0.197448
0.186817
0.175478
0.174678
0.184141
0.288901
0.360288
0.624985
0.655613
0.796524
0.699424
0.596906
0.386927
0.266208
0.150318
0.109691
0.0583674
0.0587795
0.0443627
0.0505604
0.041143
0.0411809
0.0370389
0.034398
0.0362498
0.0358867
0.0369109
1.74492
1.57486
1.4101
1.28913
1.20441
1.11453
1.05501
1.02167
0.985151
0.958019
0.93692
0.891501
0.85302
0.831371
0.803299
0.800466
0.805699
0.819627
0.839576
0.880656
0.894289
0.884446
0.845796
0.751315
0.622083
0.470288
0.432101
0.614615
0.904112
0.734935
0.444825
0.355096
0.354488
0.370719
0.378344
0.375596
0.382013
0.363537
0.392182
0.377857
0.376249
0.376706
0.374111
0.325035
0.225948
0.231709
0.225215
0.2091
0.197558
0.13823
0.123466
0.117184
0.135624
0.133559
0.133017
0.16745
0.334518
0.600553
0.702384
0.474743
0.282804
0.231487
0.223824
0.234223
0.291911
0.164389
0.326069
0.249734
0.320305
0.243951
0.234721
0.234857
0.226485
0.210839
0.197313
0.198293
0.226605
0.310544
0.641977
0.847524
1.24822
1.1995
1.09634
0.821933
0.584752
0.371885
0.254806
0.140551
0.116478
0.0705729
0.0836585
0.0645867
0.074123
0.0593144
0.0583704
0.0492233
0.0469564
0.0444534
0.0415828
0.0398318
2.54055
2.17311
1.8575
1.64916
1.48564
1.3545
1.27095
1.2008
1.14256
1.10454
1.0594
1.00884
0.985546
0.961617
0.9417
0.942103
0.946491
0.95834
0.959318
0.952568
0.928772
0.861356
0.684486
0.513254
0.405652
0.345331
0.362729
0.588573
1.03185
1.11318
0.669762
0.412139
0.355435
0.356623
0.369829
0.377202
0.383086
0.381314
0.385454
0.383244
0.372438
0.354605
0.284009
0.192375
0.186603
0.223836
0.20863
0.218326
0.186779
0.134372
0.127684
0.133869
0.166743
0.172365
0.177413
0.20793
0.319406
0.621398
0.760299
0.496908
0.373085
0.328147
0.249692
0.248569
0.329272
0.271897
0.448559
0.290358
0.328342
0.312057
0.292852
0.288946
0.262335
0.257892
0.274254
0.337078
0.526247
0.936305
1.61553
1.65898
1.59845
1.39185
0.967502
0.72573
0.47781
0.304639
0.236835
0.139252
0.149873
0.111178
0.139768
0.106501
0.126607
0.0983786
0.0966417
0.0789382
0.0765715
0.070095
0.067996
0.0595271
3.1061
2.46754
2.04787
1.78345
1.58771
1.45894
1.3658
1.28891
1.2337
1.17984
1.12779
1.09005
1.06424
1.0445
1.0331
1.02845
1.02432
1.01284
0.982784
0.915516
0.759056
0.509559
0.328929
0.255678
0.251162
0.264284
0.305546
0.513425
1.04567
1.42417
1.26548
0.698659
0.455323
0.366717
0.349527
0.361898
0.371782
0.374801
0.364625
0.366873
0.325573
0.226562
0.150896
0.146122
0.171366
0.168005
0.157111
0.161984
0.162736
0.161638
0.158226
0.184632
0.225513
0.330244
0.340332
0.359102
0.404217
0.582953
0.775438
0.815728
0.634122
0.490772
0.339717
0.330099
0.48553
0.412139
0.415809
0.399875
0.38392
0.407828
0.394789
0.409687
0.45262
0.618128
0.796816
1.20961
1.93652
2.28502
2.18471
1.88925
1.41781
0.975624
0.717662
0.481665
0.402902
0.277474
0.297866
0.215861
0.287415
0.220712
0.293664
0.223051
0.279239
0.216136
0.224703
0.191655
0.198621
0.188834
0.19881
0.193177
3.21171
2.43258
2.02
1.77886
1.6224
1.52028
1.43068
1.34862
1.27097
1.19489
1.13635
1.09753
1.07078
1.05478
1.04267
1.02217
0.980272
0.892847
0.747429
0.56532
0.389816
0.263852
0.21234
0.212525
0.246438
0.294726
0.3499
0.457008
0.858893
1.47382
1.70101
1.75473
1.27078
0.809593
0.500555
0.365348
0.333237
0.320224
0.286901
0.262218
0.203128
0.148789
0.133202
0.152087
0.151143
0.153193
0.172261
0.184478
0.212915
0.307532
0.302058
0.394726
0.572547
0.756387
0.665342
0.607826
0.522868
0.550313
0.758145
1.01887
1.22355
1.01811
1.06652
0.47763
0.808994
0.748795
0.564766
0.688413
0.664996
0.807547
0.948938
1.58894
1.99318
3.01017
3.13553
3.46659
3.06866
2.79259
1.67967
1.43294
0.90262
0.887033
0.682103
0.628569
0.618524
0.579319
0.678834
0.62483
0.774206
0.685895
0.840716
0.729003
0.880268
0.776849
0.867014
0.873527
0.984472
1.066
1.22848
1.32445
2.25022
1.83727
1.65789
1.55296
1.4637
1.36594
1.24983
1.12383
1.00164
0.899275
0.821341
0.766858
0.728403
0.694513
0.652511
0.59437
0.51327
0.415619
0.32564
0.264322
0.237014
0.239795
0.275365
0.358885
0.537602
0.924909
1.49274
1.83477
1.73734
1.12717
1.2466
2.32167
3.13148
3.41794
3.04154
2.2544
1.43903
0.780311
0.414181
0.226506
0.155559
0.143229
0.155
0.158492
0.152283
0.172198
0.233784
0.264498
0.313432
0.491066
0.590688
1.08153
1.04035
1.12387
1.00195
1.06178
0.777055
0.695929
0.647613
0.9416
1.69257
1.88398
3.38076
0.712583
1.6457
0.836228
0.697112
1.30372
1.9749
3.86015
4.62509
6.30155
5.79521
5.93108
4.59831
4.26879
2.23284
2.07102
0.820555
1.23685
0.485984
1.194
0.568211
1.39041
0.841844
1.71298
1.21733
2.00967
1.59414
2.21882
1.92511
2.43415
2.32942
2.72218
2.86212
3.57457
3.77385
4.60769
4.74341
5.51065
0.0607728
0.127137
0.267266
0.801609
1.18199
0.844099
0.353068
0.29264
0.354775
0.532461
0.899204
1.01304
0.959005
0.830201
0.565774
0.386463
0.594355
1.93441
3.87706
5.54937
6.26186
6.32776
5.1902
3.53707
2.29446
1.31783
0.826515
0.613438
0.646437
0.916854
1.25525
1.46081
1.71026
1.81615
1.77445
1.33263
0.848369
1.02445
1.61028
1.80622
1.88119
1.62502
0.894886
0.863519
0.529091
0.400863
0.330523
0.36295
0.491084
0.62656
0.691373
0.686268
0.654606
0.651034
0.722261
0.885517
1.13049
1.37763
1.50386
1.4499
1.25904
1.05088
0.852146
0.620452
0.415963
0.266068
0.185531
0.133001
0.102989
0.0816531
0.072594
0.0728634
0.0797842
0.0910403
0.0993823
0.104277
0.106018
0.101898
0.0963491
0.0881796
0.0787374
0.0680575
0.0558309
0.0441059
0.0350492
0.0302909
0.0265629
0.0232502
0.021
0.0198045
0.0196283
0.0212952
0.0243895
0.0290199
0.0343902
0.0405077
0.111862
0.281307
0.218957
0.103999
0.129041
0.181416
0.174548
0.184256
0.393718
0.52767
0.441839
0.251577
0.157097
0.143524
0.164157
0.259917
0.271894
0.331672
0.674508
1.5902
2.42004
2.92688
3.14081
2.6223
1.80541
1.12983
0.731399
0.598438
0.55652
0.570071
0.650021
0.753096
0.667238
0.553006
0.537102
0.552061
0.568917
0.571854
0.633058
0.963219
1.15027
1.22803
1.07998
0.628983
0.485498
0.291033
0.177204
0.209696
0.197765
0.202332
0.227182
0.230224
0.246109
0.336479
0.498858
0.594249
0.609404
0.5901
0.523021
0.48312
0.498322
0.601132
0.895781
1.0663
1.0371
0.75913
0.43344
0.252449
0.160705
0.113999
0.0954653
0.0883918
0.0875459
0.0876213
0.0901801
0.0956094
0.10179
0.109508
0.116765
0.128245
0.139608
0.152415
0.164498
0.175726
0.183747
0.187084
0.183617
0.171969
0.15256
0.126946
0.0960203
0.0646715
0.0403776
0.0278236
0.0240086
0.0275625
0.0363907
0.0485871
0.0561053
0.0826573
0.169597
0.181609
0.10598
0.120769
0.16485
0.200438
0.158677
0.112697
0.134517
0.234842
0.249231
0.199394
0.128336
0.106324
0.100932
0.112999
0.203211
0.595863
1.38303
1.97421
2.16205
1.77229
0.983186
0.580271
0.372018
0.299035
0.286028
0.294493
0.303045
0.31898
0.378375
0.455895
0.575426
0.578337
0.504369
0.414099
0.396571
0.488999
0.83181
1.03941
1.00953
0.800817
0.361864
0.196873
0.155943
0.126847
0.118359
0.131468
0.161441
0.172918
0.20581
0.207252
0.177078
0.146359
0.146065
0.187578
0.224736
0.207378
0.143349
0.13226
0.146003
0.17298
0.216556
0.364658
0.632702
0.65814
0.54682
0.289213
0.159337
0.11038
0.095256
0.0912024
0.0883422
0.086574
0.0815348
0.0811416
0.0748889
0.074594
0.0647049
0.0673621
0.0667538
0.0756104
0.0889739
0.109212
0.136428
0.166475
0.192585
0.208021
0.212409
0.208622
0.192171
0.165597
0.129702
0.0855275
0.0496168
0.038579
0.0407389
0.0520508
0.0639992
0.104723
0.152076
0.101558
0.0793136
0.106709
0.177811
0.184059
0.135751
0.090051
0.0941693
0.137268
0.160031
0.145282
0.116936
0.117152
0.125499
0.166514
0.394555
1.06555
1.54608
1.72855
1.20416
0.601611
0.358648
0.276199
0.257204
0.258094
0.270272
0.267058
0.270017
0.261836
0.314016
0.359878
0.396127
0.404195
0.440451
0.469936
0.541079
0.708
0.848647
0.898148
0.604589
0.361581
0.192967
0.158965
0.152433
0.141319
0.122774
0.125983
0.150818
0.148537
0.177476
0.202105
0.186754
0.137011
0.0980214
0.0810828
0.082967
0.0787689
0.0739051
0.102273
0.157148
0.172573
0.174412
0.177243
0.223268
0.44277
0.489128
0.410822
0.208257
0.125919
0.0959943
0.0871292
0.0752666
0.0680953
0.0523154
0.0465621
0.0381129
0.0358425
0.0304036
0.0301599
0.0295822
0.0304635
0.0317427
0.0341041
0.0395476
0.052556
0.0841226
0.129133
0.173757
0.201167
0.216082
0.216569
0.208349
0.183429
0.132275
0.0838366
0.0675828
0.0691087
0.0662035
0.0986593
0.113786
0.069812
0.0616849
0.102226
0.189173
0.16197
0.0969733
0.0729319
0.0805836
0.108409
0.142167
0.133541
0.13283
0.157499
0.224138
0.383325
0.817789
1.22354
1.40066
1.05503
0.507196
0.311072
0.258779
0.250928
0.257874
0.26692
0.276731
0.265477
0.265367
0.246819
0.28085
0.34299
0.368588
0.360661
0.36235
0.435431
0.530533
0.662328
0.711576
0.587361
0.370743
0.226586
0.166496
0.162185
0.166052
0.167438
0.16506
0.1657
0.187009
0.150034
0.155797
0.155153
0.183886
0.156932
0.105633
0.0729372
0.0641653
0.0659377
0.075254
0.158477
0.260323
0.278393
0.275357
0.248154
0.222242
0.24982
0.39618
0.407471
0.310336
0.165516
0.105143
0.0777935
0.0592429
0.0485844
0.0382834
0.0343289
0.0309105
0.0297183
0.0290813
0.0293417
0.0304104
0.030163
0.029599
0.027953
0.0260271
0.0251779
0.0255321
0.0306924
0.0506672
0.108681
0.163995
0.198026
0.216145
0.220887
0.211252
0.174702
0.12937
0.112015
0.0817022
0.0898043
0.0934843
0.0533373
0.0461406
0.100215
0.199813
0.148025
0.0820486
0.0677415
0.0776143
0.107316
0.147838
0.142402
0.16105
0.257629
0.475696
0.747583
1.0107
1.15914
1.01651
0.512837
0.305188
0.254244
0.245505
0.256172
0.263864
0.266247
0.273673
0.268422
0.257264
0.239765
0.222095
0.326541
0.381323
0.403542
0.346158
0.356253
0.444808
0.5233
0.48595
0.370736
0.248865
0.182364
0.158716
0.158581
0.159446
0.160563
0.198914
0.228973
0.223864
0.182733
0.156909
0.137682
0.15303
0.155403
0.12723
0.0836172
0.0662345
0.0681982
0.112018
0.242281
0.292484
0.308219
0.306337
0.299479
0.259962
0.245145
0.292938
0.375169
0.351184
0.224635
0.121751
0.0770013
0.0536772
0.0423918
0.035281
0.0328554
0.031586
0.0314364
0.0355019
0.0376898
0.0420391
0.0426161
0.0421727
0.0387592
0.0337758
0.0277097
0.0222632
0.018922
0.0189357
0.0249362
0.047655
0.106634
0.168948
0.203105
0.221034
0.219936
0.199231
0.181724
0.1347
0.0923025
0.0849649
0.0451732
0.0403472
0.0996535
0.201491
0.133962
0.0762454
0.0675469
0.0817701
0.119676
0.147193
0.151546
0.2246
0.444352
0.698673
0.87912
0.983465
0.967944
0.550511
0.31626
0.251656
0.24036
0.246595
0.24937
0.248485
0.248316
0.256616
0.268881
0.232657
0.237665
0.201186
0.243291
0.370453
0.476809
0.409003
0.336047
0.350838
0.41002
0.354149
0.24833
0.192645
0.163739
0.148589
0.145755
0.149415
0.161277
0.195895
0.228898
0.214024
0.212191
0.174576
0.140311
0.139426
0.14088
0.129919
0.10082
0.0793809
0.0812509
0.154875
0.273572
0.302506
0.308877
0.308818
0.302929
0.289991
0.256152
0.261768
0.331073
0.343474
0.281276
0.147856
0.0815692
0.0526128
0.0403083
0.0352217
0.0337624
0.0356329
0.0381939
0.0424523
0.0440663
0.0471879
0.048535
0.0498925
0.0490696
0.0460335
0.0410086
0.0336228
0.0245169
0.0170571
0.014697
0.0165935
0.0277985
0.0585187
0.125904
0.184695
0.211629
0.215564
0.219588
0.213183
0.11728
0.0854822
0.041358
0.040041
0.0995253
0.200109
0.128424
0.0755632
0.0735672
0.100614
0.143418
0.131936
0.172567
0.333743
0.564776
0.748636
0.84638
0.857725
0.610235
0.350248
0.261325
0.245379
0.241212
0.251804
0.237589
0.233495
0.247774
0.252033
0.265507
0.214346
0.211294
0.193197
0.203252
0.262656
0.470946
0.525015
0.391048
0.317535
0.340643
0.296804
0.205737
0.172748
0.156789
0.146902
0.140751
0.139841
0.160619
0.176014
0.207046
0.166936
0.21284
0.189407
0.15535
0.138173
0.135762
0.127717
0.0980769
0.0892554
0.0901096
0.12386
0.229182
0.288466
0.291376
0.288914
0.283477
0.281622
0.265659
0.261801
0.292934
0.332822
0.311686
0.200559
0.0960687
0.0549955
0.0405497
0.0362149
0.0371155
0.04156
0.0423683
0.0442831
0.0448666
0.0481176
0.0495814
0.052605
0.0536345
0.0527385
0.0485299
0.042061
0.0356946
0.026193
0.0169217
0.0122922
0.0127764
0.0185243
0.0376891
0.0827997
0.160924
0.195292
0.21395
0.242454
0.182638
0.0925062
0.0432875
0.0479252
0.104158
0.19616
0.126751
0.0834582
0.0879295
0.132334
0.157341
0.126977
0.228418
0.397822
0.587233
0.693634
0.7132
0.551983
0.389421
0.278365
0.250335
0.248827
0.245387
0.251326
0.235802
0.240332
0.267554
0.24521
0.237668
0.193424
0.196585
0.184677
0.194029
0.225653
0.330837
0.530706
0.527005
0.36126
0.308939
0.280197
0.20674
0.172445
0.157723
0.149063
0.14278
0.130993
0.161896
0.162421
0.17229
0.15251
0.187927
0.191449
0.159383
0.148614
0.134616
0.12861
0.101398
0.0871176
0.0868606
0.113835
0.208904
0.270017
0.278967
0.27289
0.257078
0.256587
0.255646
0.254274
0.268348
0.315638
0.316294
0.259132
0.127132
0.0634295
0.0426083
0.0392992
0.0420323
0.044097
0.0435433
0.0437415
0.0444703
0.0469333
0.0489214
0.0527588
0.0551012
0.0571996
0.0568525
0.051959
0.0424753
0.0352051
0.0256516
0.0165936
0.0108193
0.0107354
0.0138869
0.026674
0.0631117
0.126499
0.176747
0.235842
0.226395
0.121725
0.0520593
0.056247
0.109627
0.192693
0.128381
0.0895417
0.100767
0.146961
0.163737
0.144567
0.262863
0.416758
0.513994
0.546652
0.453303
0.355717
0.291544
0.25552
0.251335
0.247413
0.246847
0.240866
0.236383
0.26641
0.284292
0.211252
0.199395
0.17607
0.191504
0.182097
0.194676
0.221671
0.273204
0.433255
0.566629
0.489453
0.331131
0.287668
0.21857
0.182466
0.163992
0.150922
0.153737
0.137564
0.145417
0.148709
0.162238
0.148875
0.1777
0.182065
0.161068
0.157746
0.136319
0.139852
0.120695
0.0917817
0.0874398
0.131397
0.214486
0.257647
0.270495
0.266672
0.240912
0.234244
0.235891
0.240981
0.252885
0.298293
0.313137
0.285562
0.168966
0.0824747
0.0503481
0.0456766
0.0461446
0.0449105
0.0435646
0.0424961
0.0429633
0.0465775
0.0476195
0.0526379
0.0547913
0.0581468
0.0592197
0.0581852
0.0532027
0.041346
0.0343587
0.023941
0.016108
0.00992229
0.00954439
0.0115597
0.0219076
0.0531464
0.0938056
0.191177
0.228462
0.18058