/*--------------------------------*- C++ -*----------------------------------*\
| =========                 |                                                 |
| \\      /  F ield         | OpenFOAM: The Open Source CFD Toolbox           |
|  \\    /   O peration     | Version:  2.4.0                                 |
|   \\  /    A nd           | Web:      www.OpenFOAM.org                      |
|    \\/     M anipulation  |                                                 |
\*---------------------------------------------------------------------------*/
FoamFile
{
    version     2.0;
    format      ascii;
    class       volScalarField;
    location    "0.111";
    object      pPrime2Mean;
}
// * * * * * * * * * * * * * * * * * * * * * * * * * * * * * * * * * * * * * //

dimensions      [0 4 -4 0 0 0 0];

internalField   nonuniform List<scalar> 
17600
(
5.82138e+06
5.67459e+06
5.51675e+06
5.36033e+06
5.20612e+06
5.05418e+06
4.90448e+06
4.75702e+06
4.6118e+06
4.46881e+06
4.32805e+06
4.18949e+06
4.05309e+06
3.91878e+06
3.78642e+06
3.65575e+06
3.52626e+06
3.39694e+06
3.26546e+06
3.12398e+06
5.82151e+06
5.67459e+06
5.51675e+06
5.36033e+06
5.20612e+06
5.05418e+06
4.90448e+06
4.75702e+06
4.6118e+06
4.46881e+06
4.32805e+06
4.18949e+06
4.05309e+06
3.91878e+06
3.78643e+06
3.65576e+06
3.5263e+06
3.39702e+06
3.26566e+06
3.12436e+06
5.8216e+06
5.67457e+06
5.51674e+06
5.36032e+06
5.20612e+06
5.05418e+06
4.90448e+06
4.75702e+06
4.6118e+06
4.46881e+06
4.32805e+06
4.18949e+06
4.0531e+06
3.91879e+06
3.78644e+06
3.6558e+06
3.52637e+06
3.39717e+06
3.26599e+06
3.1258e+06
5.82166e+06
5.67455e+06
5.51672e+06
5.36032e+06
5.20612e+06
5.05418e+06
4.90448e+06
4.75702e+06
4.6118e+06
4.46882e+06
4.32805e+06
4.1895e+06
4.0531e+06
3.91881e+06
3.78647e+06
3.65585e+06
3.52647e+06
3.39739e+06
3.26651e+06
3.12783e+06
5.82171e+06
5.67452e+06
5.51671e+06
5.36031e+06
5.20612e+06
5.05418e+06
4.90448e+06
4.75702e+06
4.6118e+06
4.46882e+06
4.32806e+06
4.1895e+06
4.05312e+06
3.91883e+06
3.78651e+06
3.65592e+06
3.52661e+06
3.39768e+06
3.26719e+06
3.13026e+06
5.82176e+06
5.6745e+06
5.51669e+06
5.36031e+06
5.20612e+06
5.05418e+06
4.90448e+06
4.75702e+06
4.6118e+06
4.46882e+06
4.32806e+06
4.18951e+06
4.05313e+06
3.91885e+06
3.78655e+06
3.65601e+06
3.52678e+06
3.39803e+06
3.26801e+06
3.13291e+06
5.82181e+06
5.67449e+06
5.51667e+06
5.3603e+06
5.20611e+06
5.05417e+06
4.90447e+06
4.75702e+06
4.6118e+06
4.46882e+06
4.32807e+06
4.18952e+06
4.05314e+06
3.91888e+06
3.78661e+06
3.65611e+06
3.52698e+06
3.39844e+06
3.26896e+06
3.13569e+06
5.82185e+06
5.67447e+06
5.51665e+06
5.3603e+06
5.20611e+06
5.05417e+06
4.90447e+06
4.75702e+06
4.6118e+06
4.46882e+06
4.32807e+06
4.18953e+06
4.05316e+06
3.91891e+06
3.78667e+06
3.65622e+06
3.5272e+06
3.3989e+06
3.27e+06
3.13853e+06
5.82189e+06
5.67446e+06
5.51664e+06
5.36029e+06
5.20611e+06
5.05417e+06
4.90447e+06
4.75702e+06
4.6118e+06
4.46882e+06
4.32808e+06
4.18954e+06
4.05318e+06
3.91895e+06
3.78674e+06
3.65635e+06
3.52745e+06
3.39941e+06
3.27113e+06
3.14137e+06
5.82193e+06
5.67445e+06
5.51662e+06
5.36029e+06
5.20611e+06
5.05417e+06
4.90447e+06
4.75701e+06
4.6118e+06
4.46883e+06
4.32808e+06
4.18955e+06
4.0532e+06
3.91899e+06
3.78681e+06
3.65649e+06
3.52773e+06
3.39996e+06
3.27231e+06
3.14418e+06
5.82196e+06
5.67445e+06
5.51661e+06
5.36028e+06
5.20611e+06
5.05417e+06
4.90447e+06
4.75701e+06
4.6118e+06
4.46883e+06
4.32809e+06
4.18956e+06
4.05323e+06
3.91903e+06
3.78689e+06
3.65665e+06
3.52802e+06
3.40055e+06
3.27355e+06
3.14694e+06
5.82199e+06
5.67444e+06
5.5166e+06
5.36028e+06
5.20611e+06
5.05417e+06
4.90447e+06
4.75701e+06
4.6118e+06
4.46883e+06
4.3281e+06
4.18958e+06
4.05325e+06
3.91908e+06
3.78698e+06
3.65681e+06
3.52834e+06
3.40116e+06
3.27481e+06
3.14964e+06
5.82201e+06
5.67444e+06
5.51658e+06
5.36027e+06
5.20611e+06
5.05417e+06
4.90447e+06
4.75701e+06
4.6118e+06
4.46884e+06
4.3281e+06
4.18959e+06
4.05328e+06
3.91913e+06
3.78707e+06
3.65698e+06
3.52866e+06
3.4018e+06
3.2761e+06
3.15226e+06
5.82203e+06
5.67444e+06
5.51657e+06
5.36027e+06
5.20611e+06
5.05417e+06
4.90447e+06
4.75701e+06
4.61181e+06
4.46884e+06
4.32811e+06
4.18961e+06
4.05331e+06
3.91918e+06
3.78717e+06
3.65717e+06
3.52901e+06
3.40246e+06
3.2774e+06
3.15478e+06
5.82205e+06
5.67444e+06
5.51657e+06
5.36026e+06
5.20611e+06
5.05417e+06
4.90447e+06
4.75701e+06
4.61181e+06
4.46884e+06
4.32812e+06
4.18962e+06
4.05334e+06
3.91924e+06
3.78727e+06
3.65735e+06
3.52936e+06
3.40313e+06
3.27869e+06
3.15722e+06
5.82206e+06
5.67444e+06
5.51656e+06
5.36026e+06
5.20612e+06
5.05418e+06
4.90447e+06
4.75701e+06
4.61181e+06
4.46885e+06
4.32813e+06
4.18964e+06
4.05337e+06
3.91929e+06
3.78738e+06
3.65755e+06
3.52972e+06
3.40381e+06
3.27997e+06
3.15955e+06
5.82207e+06
5.67443e+06
5.51655e+06
5.36025e+06
5.20612e+06
5.05418e+06
4.90447e+06
4.75702e+06
4.61181e+06
4.46885e+06
4.32814e+06
4.18966e+06
4.0534e+06
3.91935e+06
3.78748e+06
3.65775e+06
3.53009e+06
3.40449e+06
3.28124e+06
3.16179e+06
5.82208e+06
5.67443e+06
5.51655e+06
5.36025e+06
5.20612e+06
5.05418e+06
4.90447e+06
4.75702e+06
4.61181e+06
4.46886e+06
4.32815e+06
4.18967e+06
4.05343e+06
3.91941e+06
3.78759e+06
3.65795e+06
3.53045e+06
3.40517e+06
3.28248e+06
3.16392e+06
5.82209e+06
5.67443e+06
5.51655e+06
5.36025e+06
5.20612e+06
5.05418e+06
4.90447e+06
4.75702e+06
4.61182e+06
4.46886e+06
4.32816e+06
4.18969e+06
4.05347e+06
3.91947e+06
3.7877e+06
3.65815e+06
3.53082e+06
3.40585e+06
3.28369e+06
3.16596e+06
5.82209e+06
5.67444e+06
5.51655e+06
5.36025e+06
5.20612e+06
5.05418e+06
4.90447e+06
4.75702e+06
4.61182e+06
4.46887e+06
4.32817e+06
4.18971e+06
4.0535e+06
3.91953e+06
3.78781e+06
3.65835e+06
3.53119e+06
3.40651e+06
3.28487e+06
3.16789e+06
5.82209e+06
5.67444e+06
5.51655e+06
5.36025e+06
5.20612e+06
5.05418e+06
4.90447e+06
4.75702e+06
4.61182e+06
4.46887e+06
4.32818e+06
4.18973e+06
4.05353e+06
3.91959e+06
3.78792e+06
3.65855e+06
3.53156e+06
3.40717e+06
3.28601e+06
3.16972e+06
5.82209e+06
5.67444e+06
5.51655e+06
5.36025e+06
5.20612e+06
5.05418e+06
4.90448e+06
4.75702e+06
4.61182e+06
4.46888e+06
4.32819e+06
4.18975e+06
4.05356e+06
3.91965e+06
3.78803e+06
3.65875e+06
3.53192e+06
3.40781e+06
3.2871e+06
3.17145e+06
5.82208e+06
5.67444e+06
5.51655e+06
5.36025e+06
5.20612e+06
5.05418e+06
4.90448e+06
4.75702e+06
4.61183e+06
4.46889e+06
4.3282e+06
4.18976e+06
4.0536e+06
3.91971e+06
3.78814e+06
3.65895e+06
3.53227e+06
3.40842e+06
3.28815e+06
3.17308e+06
5.82207e+06
5.67444e+06
5.51655e+06
5.36026e+06
5.20612e+06
5.05418e+06
4.90448e+06
4.75703e+06
4.61183e+06
4.46889e+06
4.32821e+06
4.18978e+06
4.05363e+06
3.91977e+06
3.78825e+06
3.65914e+06
3.53261e+06
3.40902e+06
3.28916e+06
3.17462e+06
5.82206e+06
5.67444e+06
5.51656e+06
5.36026e+06
5.20612e+06
5.05418e+06
4.90448e+06
4.75703e+06
4.61183e+06
4.4689e+06
4.32822e+06
4.1898e+06
4.05366e+06
3.91983e+06
3.78835e+06
3.65932e+06
3.53294e+06
3.4096e+06
3.29011e+06
3.17605e+06
5.82205e+06
5.67444e+06
5.51657e+06
5.36026e+06
5.20612e+06
5.05418e+06
4.90448e+06
4.75703e+06
4.61184e+06
4.4689e+06
4.32823e+06
4.18982e+06
4.05369e+06
3.91988e+06
3.78845e+06
3.6595e+06
3.53326e+06
3.41014e+06
3.29101e+06
3.1774e+06
5.82203e+06
5.67444e+06
5.51658e+06
5.36027e+06
5.20612e+06
5.05418e+06
4.90448e+06
4.75703e+06
4.61184e+06
4.46891e+06
4.32823e+06
4.18983e+06
4.05372e+06
3.91994e+06
3.78855e+06
3.65967e+06
3.53356e+06
3.41066e+06
3.29185e+06
3.17864e+06
5.82201e+06
5.67444e+06
5.51659e+06
5.36027e+06
5.20612e+06
5.05418e+06
4.90448e+06
4.75704e+06
4.61185e+06
4.46891e+06
4.32824e+06
4.18985e+06
4.05375e+06
3.91999e+06
3.78864e+06
3.65984e+06
3.53385e+06
3.41115e+06
3.29264e+06
3.1798e+06
5.82199e+06
5.67444e+06
5.5166e+06
5.36028e+06
5.20612e+06
5.05418e+06
4.90448e+06
4.75704e+06
4.61185e+06
4.46892e+06
4.32825e+06
4.18986e+06
4.05378e+06
3.92004e+06
3.78872e+06
3.65999e+06
3.53412e+06
3.41161e+06
3.29337e+06
3.18086e+06
5.82196e+06
5.67445e+06
5.51661e+06
5.36029e+06
5.20612e+06
5.05418e+06
4.90449e+06
4.75704e+06
4.61185e+06
4.46892e+06
4.32826e+06
4.18988e+06
4.0538e+06
3.92008e+06
3.7888e+06
3.66014e+06
3.53437e+06
3.41203e+06
3.29404e+06
3.18183e+06
5.82193e+06
5.67445e+06
5.51662e+06
5.36029e+06
5.20612e+06
5.05418e+06
4.90449e+06
4.75704e+06
4.61186e+06
4.46893e+06
4.32827e+06
4.18989e+06
4.05382e+06
3.92012e+06
3.78888e+06
3.66027e+06
3.5346e+06
3.41242e+06
3.29466e+06
3.18271e+06
5.82189e+06
5.67446e+06
5.51664e+06
5.3603e+06
5.20612e+06
5.05418e+06
4.90449e+06
4.75705e+06
4.61186e+06
4.46893e+06
4.32827e+06
4.1899e+06
4.05384e+06
3.92016e+06
3.78895e+06
3.66039e+06
3.53481e+06
3.41277e+06
3.29521e+06
3.1835e+06
5.82185e+06
5.67447e+06
5.51666e+06
5.3603e+06
5.20612e+06
5.05418e+06
4.90449e+06
4.75705e+06
4.61186e+06
4.46894e+06
4.32828e+06
4.18991e+06
4.05386e+06
3.9202e+06
3.78901e+06
3.6605e+06
3.535e+06
3.41309e+06
3.2957e+06
3.1842e+06
5.82181e+06
5.67449e+06
5.51667e+06
5.36031e+06
5.20612e+06
5.05418e+06
4.90449e+06
4.75705e+06
4.61187e+06
4.46894e+06
4.32829e+06
4.18992e+06
4.05388e+06
3.92023e+06
3.78907e+06
3.6606e+06
3.53517e+06
3.41336e+06
3.29613e+06
3.18481e+06
5.82177e+06
5.67451e+06
5.51669e+06
5.36031e+06
5.20612e+06
5.05419e+06
4.9045e+06
4.75706e+06
4.61187e+06
4.46894e+06
4.32829e+06
4.18993e+06
4.0539e+06
3.92025e+06
3.78911e+06
3.66068e+06
3.53531e+06
3.4136e+06
3.2965e+06
3.18533e+06
5.82172e+06
5.67453e+06
5.51671e+06
5.36032e+06
5.20613e+06
5.05419e+06
4.9045e+06
4.75706e+06
4.61187e+06
4.46895e+06
4.3283e+06
4.18994e+06
4.05391e+06
3.92028e+06
3.78915e+06
3.66075e+06
3.53543e+06
3.4138e+06
3.29681e+06
3.18577e+06
5.82166e+06
5.67455e+06
5.51673e+06
5.36032e+06
5.20613e+06
5.05419e+06
4.9045e+06
4.75706e+06
4.61187e+06
4.46895e+06
4.3283e+06
4.18994e+06
4.05392e+06
3.92029e+06
3.78919e+06
3.66081e+06
3.53553e+06
3.41396e+06
3.29706e+06
3.18611e+06
5.8216e+06
5.67457e+06
5.51674e+06
5.36033e+06
5.20613e+06
5.05419e+06
4.9045e+06
4.75706e+06
4.61187e+06
4.46895e+06
4.3283e+06
4.18995e+06
4.05393e+06
3.92031e+06
3.78921e+06
3.66085e+06
3.5356e+06
3.41409e+06
3.29725e+06
3.18637e+06
5.82151e+06
5.67459e+06
5.51675e+06
5.36033e+06
5.20613e+06
5.05419e+06
4.9045e+06
4.75706e+06
4.61187e+06
4.46895e+06
4.3283e+06
4.18995e+06
4.05393e+06
3.92032e+06
3.78923e+06
3.66088e+06
3.53565e+06
3.41417e+06
3.29737e+06
3.18654e+06
5.82139e+06
5.67459e+06
5.51675e+06
5.36033e+06
5.20613e+06
5.05419e+06
4.9045e+06
4.75706e+06
4.61187e+06
4.46895e+06
4.3283e+06
4.18995e+06
4.05393e+06
3.92032e+06
3.78923e+06
3.6609e+06
3.53568e+06
3.41421e+06
3.29744e+06
3.18663e+06
2.99e+06
2.95792e+06
2.93309e+06
2.91134e+06
2.89095e+06
2.87142e+06
2.8525e+06
2.83403e+06
2.81591e+06
2.79808e+06
2.78049e+06
2.76311e+06
2.7459e+06
2.72885e+06
2.71193e+06
2.69513e+06
2.67843e+06
2.66182e+06
2.64528e+06
2.62881e+06
2.61241e+06
2.59607e+06
2.57978e+06
2.56355e+06
2.54736e+06
2.53122e+06
2.51512e+06
2.49908e+06
2.48308e+06
2.46715e+06
2.45127e+06
2.43545e+06
2.41968e+06
2.40396e+06
2.3883e+06
2.37268e+06
2.35711e+06
2.3416e+06
2.32613e+06
2.31072e+06
2.29537e+06
2.28007e+06
2.26483e+06
2.24965e+06
2.23453e+06
2.21946e+06
2.20445e+06
2.1895e+06
2.1746e+06
2.15977e+06
2.14499e+06
2.13026e+06
2.1156e+06
2.10099e+06
2.08644e+06
2.07194e+06
2.05749e+06
2.04309e+06
2.02875e+06
2.01445e+06
2.00021e+06
1.98601e+06
1.97187e+06
1.95777e+06
1.94372e+06
1.92972e+06
1.91577e+06
1.90187e+06
1.88801e+06
1.8742e+06
1.86043e+06
1.84671e+06
1.83304e+06
1.81941e+06
1.80583e+06
1.7923e+06
1.77882e+06
1.76539e+06
1.75202e+06
1.73869e+06
1.72542e+06
1.71221e+06
1.69905e+06
1.68594e+06
1.67288e+06
1.65988e+06
1.64693e+06
1.63403e+06
1.62118e+06
1.60838e+06
1.59564e+06
1.58294e+06
1.5703e+06
1.55771e+06
1.54517e+06
1.53269e+06
1.52025e+06
1.50787e+06
1.49554e+06
1.48326e+06
1.47102e+06
1.45884e+06
1.4467e+06
1.43462e+06
1.42258e+06
1.41058e+06
1.39864e+06
1.38674e+06
1.37489e+06
1.36308e+06
1.35133e+06
1.33962e+06
1.32797e+06
1.31637e+06
1.30482e+06
1.29332e+06
1.28187e+06
1.27048e+06
1.25914e+06
1.24785e+06
1.23661e+06
1.22543e+06
1.21429e+06
1.20321e+06
1.19218e+06
1.1812e+06
1.17028e+06
1.1594e+06
1.14858e+06
1.1378e+06
1.12708e+06
1.11641e+06
1.10579e+06
1.09522e+06
1.08471e+06
1.07424e+06
1.06383e+06
1.05347e+06
1.04316e+06
1.03289e+06
1.02268e+06
1.01252e+06
1.00241e+06
992348
982333
972368
962452
952587
942774
933012
923304
913649
904048
894498
885001
875556
866162
856819
847525
838280
829084
819935
810832
801774
792761
783794
774874
766004
757184
748416
739700
731036
722424
713862
705350
696886
688470
680099
671774
663493
655254
647056
638896
630773
622683
614623
606590
598577
590579
582587
574591
566577
558529
550421
542222
533878
525319
516430
506792
496286
3.00519e+06
2.97025e+06
2.94281e+06
2.91928e+06
2.89768e+06
2.87723e+06
2.85757e+06
2.83849e+06
2.81987e+06
2.8016e+06
2.78363e+06
2.76592e+06
2.74843e+06
2.73112e+06
2.71397e+06
2.69696e+06
2.68007e+06
2.66329e+06
2.6466e+06
2.63e+06
2.61348e+06
2.59702e+06
2.58064e+06
2.56432e+06
2.54805e+06
2.53184e+06
2.51568e+06
2.49958e+06
2.48353e+06
2.46755e+06
2.45163e+06
2.43577e+06
2.41997e+06
2.40422e+06
2.38852e+06
2.37288e+06
2.3573e+06
2.34176e+06
2.32628e+06
2.31086e+06
2.29549e+06
2.28018e+06
2.26493e+06
2.24974e+06
2.23461e+06
2.21954e+06
2.20453e+06
2.18957e+06
2.17468e+06
2.15984e+06
2.14505e+06
2.13033e+06
2.11566e+06
2.10105e+06
2.0865e+06
2.072e+06
2.05755e+06
2.04316e+06
2.02881e+06
2.01452e+06
2.00028e+06
1.98608e+06
1.97194e+06
1.95785e+06
1.9438e+06
1.9298e+06
1.91585e+06
1.90195e+06
1.88809e+06
1.87428e+06
1.86051e+06
1.84679e+06
1.83311e+06
1.81948e+06
1.8059e+06
1.79236e+06
1.77888e+06
1.76545e+06
1.75206e+06
1.73874e+06
1.72546e+06
1.71224e+06
1.69908e+06
1.68596e+06
1.6729e+06
1.6599e+06
1.64694e+06
1.63404e+06
1.62118e+06
1.60838e+06
1.59564e+06
1.58294e+06
1.5703e+06
1.55771e+06
1.54517e+06
1.53268e+06
1.52025e+06
1.50786e+06
1.49553e+06
1.48325e+06
1.47102e+06
1.45883e+06
1.4467e+06
1.43461e+06
1.42257e+06
1.41058e+06
1.39864e+06
1.38674e+06
1.37489e+06
1.36309e+06
1.35134e+06
1.33963e+06
1.32798e+06
1.31638e+06
1.30483e+06
1.29333e+06
1.28189e+06
1.2705e+06
1.25915e+06
1.24786e+06
1.23663e+06
1.22544e+06
1.21431e+06
1.20322e+06
1.19219e+06
1.18121e+06
1.17029e+06
1.15941e+06
1.14858e+06
1.13781e+06
1.12709e+06
1.11642e+06
1.1058e+06
1.09523e+06
1.08471e+06
1.07424e+06
1.06383e+06
1.05346e+06
1.04315e+06
1.03289e+06
1.02267e+06
1.01251e+06
1.00239e+06
992328
982310
972340
962419
952549
942731
932964
923250
913589
903981
894426
884923
875472
866071
856720
847419
838166
828961
819803
810691
801623
792599
783620
774687
765802
756966
748179
739442
730755
722117
713527
704984
696486
688033
679622
671253
662923
654630
646373
638149
629955
621787
613641
605511
597392
589274
581149
573001
564815
556567
548224
539744
531054
522044
512540
501986
489544
3.0172e+06
2.98107e+06
2.95194e+06
2.92695e+06
2.90424e+06
2.88293e+06
2.86257e+06
2.84291e+06
2.82378e+06
2.80509e+06
2.78675e+06
2.76871e+06
2.75093e+06
2.73337e+06
2.71599e+06
2.69878e+06
2.68171e+06
2.66476e+06
2.64793e+06
2.63119e+06
2.61454e+06
2.59798e+06
2.58149e+06
2.56508e+06
2.54873e+06
2.53245e+06
2.51623e+06
2.50007e+06
2.48398e+06
2.46795e+06
2.45199e+06
2.43609e+06
2.42025e+06
2.40447e+06
2.38875e+06
2.37309e+06
2.35748e+06
2.34192e+06
2.32643e+06
2.31099e+06
2.29561e+06
2.28029e+06
2.26503e+06
2.24984e+06
2.2347e+06
2.21963e+06
2.20461e+06
2.18965e+06
2.17475e+06
2.15991e+06
2.14512e+06
2.13039e+06
2.11572e+06
2.10111e+06
2.08656e+06
2.07206e+06
2.05761e+06
2.04322e+06
2.02888e+06
2.01459e+06
2.00035e+06
1.98615e+06
1.97201e+06
1.95792e+06
1.94388e+06
1.92988e+06
1.91593e+06
1.90203e+06
1.88817e+06
1.87436e+06
1.86059e+06
1.84687e+06
1.83319e+06
1.81955e+06
1.80596e+06
1.79242e+06
1.77893e+06
1.76549e+06
1.75211e+06
1.73878e+06
1.7255e+06
1.71227e+06
1.6991e+06
1.68598e+06
1.67292e+06
1.65991e+06
1.64695e+06
1.63404e+06
1.62118e+06
1.60838e+06
1.59563e+06
1.58294e+06
1.57029e+06
1.5577e+06
1.54516e+06
1.53267e+06
1.52024e+06
1.50785e+06
1.49552e+06
1.48324e+06
1.47101e+06
1.45882e+06
1.44669e+06
1.43461e+06
1.42257e+06
1.41058e+06
1.39863e+06
1.38674e+06
1.37489e+06
1.36309e+06
1.35134e+06
1.33963e+06
1.32798e+06
1.31638e+06
1.30484e+06
1.29334e+06
1.2819e+06
1.27051e+06
1.25916e+06
1.24788e+06
1.23664e+06
1.22545e+06
1.21432e+06
1.20323e+06
1.1922e+06
1.18122e+06
1.17029e+06
1.15942e+06
1.14859e+06
1.13782e+06
1.12709e+06
1.11642e+06
1.1058e+06
1.09523e+06
1.08471e+06
1.07424e+06
1.06383e+06
1.05346e+06
1.04314e+06
1.03288e+06
1.02266e+06
1.0125e+06
1.00238e+06
992308
982286
972312
962387
952512
942688
932916
923196
913530
903916
894355
884845
875387
865980
856622
847313
838052
828839
819672
810549
801471
792436
783446
774500
765600
756747
747942
739184
730475
721811
713194
704620
696089
687598
679147
670734
662355
654010
645695
637407
629142
620897
612666
604442
596218
587983
579727
571432
563077
554637
546071
537325
528316
518895
508879
497648
484185
3.02705e+06
2.99068e+06
2.96046e+06
2.93428e+06
2.9106e+06
2.88849e+06
2.86747e+06
2.84725e+06
2.82764e+06
2.80854e+06
2.78984e+06
2.77148e+06
2.75342e+06
2.7356e+06
2.718e+06
2.70059e+06
2.68333e+06
2.66622e+06
2.64924e+06
2.63237e+06
2.6156e+06
2.59892e+06
2.58234e+06
2.56584e+06
2.54941e+06
2.53306e+06
2.51677e+06
2.50056e+06
2.48442e+06
2.46834e+06
2.45234e+06
2.4364e+06
2.42053e+06
2.40472e+06
2.38898e+06
2.37329e+06
2.35766e+06
2.34209e+06
2.32657e+06
2.31112e+06
2.29573e+06
2.2804e+06
2.26514e+06
2.24993e+06
2.23479e+06
2.21972e+06
2.2047e+06
2.18973e+06
2.17483e+06
2.15998e+06
2.14519e+06
2.13046e+06
2.11578e+06
2.10117e+06
2.08661e+06
2.07211e+06
2.05767e+06
2.04328e+06
2.02894e+06
2.01465e+06
2.00041e+06
1.98622e+06
1.97208e+06
1.95799e+06
1.94395e+06
1.92995e+06
1.916e+06
1.9021e+06
1.88824e+06
1.87443e+06
1.86066e+06
1.84693e+06
1.83325e+06
1.81961e+06
1.80602e+06
1.79248e+06
1.77898e+06
1.76554e+06
1.75215e+06
1.73881e+06
1.72553e+06
1.7123e+06
1.69912e+06
1.686e+06
1.67293e+06
1.65991e+06
1.64695e+06
1.63403e+06
1.62118e+06
1.60837e+06
1.59562e+06
1.58292e+06
1.57028e+06
1.55769e+06
1.54515e+06
1.53266e+06
1.52022e+06
1.50784e+06
1.49551e+06
1.48322e+06
1.47099e+06
1.45881e+06
1.44668e+06
1.43459e+06
1.42256e+06
1.41057e+06
1.39862e+06
1.38673e+06
1.37488e+06
1.36308e+06
1.35133e+06
1.33963e+06
1.32798e+06
1.31639e+06
1.30484e+06
1.29335e+06
1.2819e+06
1.27051e+06
1.25917e+06
1.24788e+06
1.23664e+06
1.22546e+06
1.21432e+06
1.20324e+06
1.19221e+06
1.18123e+06
1.1703e+06
1.15942e+06
1.1486e+06
1.13782e+06
1.1271e+06
1.11642e+06
1.1058e+06
1.09523e+06
1.08471e+06
1.07424e+06
1.06382e+06
1.05345e+06
1.04313e+06
1.03287e+06
1.02265e+06
1.01248e+06
1.00236e+06
992287
982262
972284
962355
952475
942646
932868
923143
913471
903851
894284
884768
875304
865889
856524
847207
837939
828716
819540
810408
801320
792274
783272
774313
765399
756529
747706
738928
730195
721507
712862
704258
695693
687166
678675
670218
661792
653394
645021
636670
628337
620015
611700
603383
595057
586708
578324
569886
561371
552746
543969
534971
525680
515891
505468
493760
479949
3.03543e+06
2.9992e+06
2.96831e+06
2.94124e+06
2.91672e+06
2.89389e+06
2.87225e+06
2.8515e+06
2.83144e+06
2.81193e+06
2.79288e+06
2.77421e+06
2.75587e+06
2.73781e+06
2.71999e+06
2.70237e+06
2.68494e+06
2.66767e+06
2.65054e+06
2.63353e+06
2.61664e+06
2.59986e+06
2.58318e+06
2.56659e+06
2.55008e+06
2.53366e+06
2.51732e+06
2.50105e+06
2.48485e+06
2.46873e+06
2.45269e+06
2.43672e+06
2.42081e+06
2.40497e+06
2.3892e+06
2.37349e+06
2.35784e+06
2.34225e+06
2.32672e+06
2.31126e+06
2.29586e+06
2.28052e+06
2.26524e+06
2.25003e+06
2.23489e+06
2.2198e+06
2.20478e+06
2.18981e+06
2.1749e+06
2.16005e+06
2.14525e+06
2.13052e+06
2.11584e+06
2.10123e+06
2.08667e+06
2.07217e+06
2.05772e+06
2.04333e+06
2.02899e+06
2.01471e+06
2.00047e+06
1.98628e+06
1.97214e+06
1.95806e+06
1.94401e+06
1.93002e+06
1.91607e+06
1.90217e+06
1.88831e+06
1.8745e+06
1.86073e+06
1.847e+06
1.83331e+06
1.81967e+06
1.80607e+06
1.79253e+06
1.77902e+06
1.76558e+06
1.75218e+06
1.73884e+06
1.72555e+06
1.71231e+06
1.69913e+06
1.686e+06
1.67293e+06
1.65991e+06
1.64694e+06
1.63402e+06
1.62116e+06
1.60836e+06
1.59561e+06
1.58291e+06
1.57026e+06
1.55767e+06
1.54513e+06
1.53264e+06
1.5202e+06
1.50782e+06
1.49549e+06
1.48321e+06
1.47097e+06
1.45879e+06
1.44666e+06
1.43458e+06
1.42254e+06
1.41055e+06
1.39861e+06
1.38672e+06
1.37487e+06
1.36307e+06
1.35133e+06
1.33963e+06
1.32798e+06
1.31638e+06
1.30484e+06
1.29335e+06
1.28191e+06
1.27051e+06
1.25917e+06
1.24789e+06
1.23665e+06
1.22546e+06
1.21433e+06
1.20324e+06
1.19221e+06
1.18123e+06
1.1703e+06
1.15943e+06
1.1486e+06
1.13782e+06
1.1271e+06
1.11642e+06
1.1058e+06
1.09523e+06
1.0847e+06
1.07423e+06
1.06381e+06
1.05344e+06
1.04312e+06
1.03286e+06
1.02263e+06
1.01246e+06
1.00234e+06
992266
982237
972256
962323
952439
942605
932822
923091
913413
903787
894214
884692
875221
865799
856427
847103
837826
828595
819410
810267
801170
792113
783099
774126
765198
756312
747471
738673
729918
721205
712532
703898
695301
686738
678207
669706
661233
652783
644354
635941
627539
619143
610745
602338
593911
585452
576944
568368
559699
550897
541928
532691
523156
513046
502313
490311
476474
3.04271e+06
3.00682e+06
2.97556e+06
2.9478e+06
2.92258e+06
2.89911e+06
2.87691e+06
2.85566e+06
2.83516e+06
2.81526e+06
2.79587e+06
2.77691e+06
2.7583e+06
2.73999e+06
2.72195e+06
2.70414e+06
2.68652e+06
2.66909e+06
2.65182e+06
2.63468e+06
2.61767e+06
2.60079e+06
2.58401e+06
2.56733e+06
2.55075e+06
2.53426e+06
2.51785e+06
2.50153e+06
2.48529e+06
2.46912e+06
2.45304e+06
2.43703e+06
2.42109e+06
2.40522e+06
2.38942e+06
2.37369e+06
2.35802e+06
2.34241e+06
2.32687e+06
2.3114e+06
2.29598e+06
2.28064e+06
2.26535e+06
2.25014e+06
2.23498e+06
2.2199e+06
2.20487e+06
2.18989e+06
2.17498e+06
2.16012e+06
2.14532e+06
2.13058e+06
2.1159e+06
2.10128e+06
2.08672e+06
2.07222e+06
2.05777e+06
2.04338e+06
2.02905e+06
2.01476e+06
2.00053e+06
1.98634e+06
1.9722e+06
1.95811e+06
1.94407e+06
1.93008e+06
1.91613e+06
1.90223e+06
1.88837e+06
1.87456e+06
1.86079e+06
1.84705e+06
1.83337e+06
1.81972e+06
1.80612e+06
1.79257e+06
1.77906e+06
1.76561e+06
1.75221e+06
1.73886e+06
1.72556e+06
1.71232e+06
1.69914e+06
1.686e+06
1.67292e+06
1.6599e+06
1.64693e+06
1.63401e+06
1.62115e+06
1.60834e+06
1.59558e+06
1.58288e+06
1.57024e+06
1.55765e+06
1.5451e+06
1.53262e+06
1.52018e+06
1.5078e+06
1.49546e+06
1.48318e+06
1.47095e+06
1.45877e+06
1.44664e+06
1.43456e+06
1.42252e+06
1.41053e+06
1.39859e+06
1.3867e+06
1.37486e+06
1.36306e+06
1.35131e+06
1.33962e+06
1.32797e+06
1.31638e+06
1.30483e+06
1.29334e+06
1.2819e+06
1.27051e+06
1.25917e+06
1.24789e+06
1.23665e+06
1.22546e+06
1.21433e+06
1.20325e+06
1.19221e+06
1.18123e+06
1.1703e+06
1.15943e+06
1.1486e+06
1.13782e+06
1.1271e+06
1.11642e+06
1.1058e+06
1.09522e+06
1.0847e+06
1.07423e+06
1.0638e+06
1.05343e+06
1.04311e+06
1.03284e+06
1.02262e+06
1.01245e+06
1.00232e+06
992244
982212
972227
962290
952403
942564
932776
923039
913356
903725
894145
884617
875140
865711
856332
846999
837714
828474
819280
810128
801020
791952
782927
773941
764999
756097
747238
738420
729643
720905
712206
703541
694911
686313
677743
669200
660680
652179
643694
635220
626751
618282
609804
601308
592784
584216
575591
566880
558069
549093
539953
530492
520750
510371
499404
487250
473527
3.04911e+06
3.01368e+06
2.98223e+06
2.95398e+06
2.92818e+06
2.90414e+06
2.88142e+06
2.8597e+06
2.83879e+06
2.81853e+06
2.79882e+06
2.77955e+06
2.76068e+06
2.74214e+06
2.72388e+06
2.70587e+06
2.68809e+06
2.67049e+06
2.65308e+06
2.63581e+06
2.61869e+06
2.6017e+06
2.58483e+06
2.56806e+06
2.55141e+06
2.53485e+06
2.51838e+06
2.502e+06
2.48571e+06
2.46951e+06
2.45338e+06
2.43734e+06
2.42137e+06
2.40547e+06
2.38964e+06
2.37389e+06
2.3582e+06
2.34258e+06
2.32703e+06
2.31154e+06
2.29612e+06
2.28076e+06
2.26547e+06
2.25024e+06
2.23508e+06
2.21999e+06
2.20495e+06
2.18997e+06
2.17505e+06
2.16019e+06
2.14538e+06
2.13064e+06
2.11595e+06
2.10133e+06
2.08677e+06
2.07226e+06
2.05782e+06
2.04343e+06
2.02909e+06
2.01481e+06
2.00058e+06
1.98639e+06
1.97226e+06
1.95817e+06
1.94413e+06
1.93013e+06
1.91619e+06
1.90229e+06
1.88843e+06
1.87461e+06
1.86084e+06
1.8471e+06
1.83341e+06
1.81976e+06
1.80616e+06
1.7926e+06
1.77909e+06
1.76563e+06
1.75222e+06
1.73887e+06
1.72557e+06
1.71233e+06
1.69914e+06
1.686e+06
1.67291e+06
1.65989e+06
1.64691e+06
1.63399e+06
1.62112e+06
1.60831e+06
1.59556e+06
1.58286e+06
1.57021e+06
1.55762e+06
1.54508e+06
1.53259e+06
1.52015e+06
1.50777e+06
1.49544e+06
1.48316e+06
1.47093e+06
1.45874e+06
1.44661e+06
1.43453e+06
1.4225e+06
1.41051e+06
1.39857e+06
1.38668e+06
1.37484e+06
1.36304e+06
1.3513e+06
1.3396e+06
1.32796e+06
1.31637e+06
1.30483e+06
1.29333e+06
1.28189e+06
1.27051e+06
1.25917e+06
1.24788e+06
1.23665e+06
1.22546e+06
1.21433e+06
1.20324e+06
1.19221e+06
1.18123e+06
1.1703e+06
1.15942e+06
1.14859e+06
1.13782e+06
1.12709e+06
1.11641e+06
1.10579e+06
1.09521e+06
1.08469e+06
1.07422e+06
1.06379e+06
1.05342e+06
1.0431e+06
1.03283e+06
1.0226e+06
1.01243e+06
1.0023e+06
992221
982186
972199
962258
952366
942522
932730
922988
913300
903663
894078
884543
875060
865624
856238
846897
837605
828356
819153
809991
800873
791794
782757
773758
764802
755884
747007
738170
729371
720609
711882
703189
694527
685892
677285
668699
660133
651582
643043
634508
625975
617433
608877
600294
591678
583002
574268
565424
556484
547341
538048
528383
518461
507870
496724
484523
470964
3.05483e+06
3.01989e+06
2.98838e+06
2.95978e+06
2.9335e+06
2.90897e+06
2.88578e+06
2.86364e+06
2.84234e+06
2.82173e+06
2.8017e+06
2.78215e+06
2.76302e+06
2.74425e+06
2.72578e+06
2.70758e+06
2.68963e+06
2.67188e+06
2.65432e+06
2.63693e+06
2.6197e+06
2.6026e+06
2.58564e+06
2.56879e+06
2.55206e+06
2.53543e+06
2.51891e+06
2.50248e+06
2.48614e+06
2.46989e+06
2.45372e+06
2.43764e+06
2.42164e+06
2.40572e+06
2.38987e+06
2.37409e+06
2.35838e+06
2.34275e+06
2.32718e+06
2.31168e+06
2.29625e+06
2.28088e+06
2.26558e+06
2.25035e+06
2.23518e+06
2.22008e+06
2.20504e+06
2.19006e+06
2.17513e+06
2.16026e+06
2.14545e+06
2.1307e+06
2.11601e+06
2.10138e+06
2.08681e+06
2.07231e+06
2.05786e+06
2.04347e+06
2.02914e+06
2.01486e+06
2.00062e+06
1.98644e+06
1.9723e+06
1.95821e+06
1.94417e+06
1.93018e+06
1.91624e+06
1.90233e+06
1.88847e+06
1.87465e+06
1.86088e+06
1.84714e+06
1.83345e+06
1.81979e+06
1.80618e+06
1.79262e+06
1.77911e+06
1.76564e+06
1.75223e+06
1.73888e+06
1.72557e+06
1.71232e+06
1.69913e+06
1.68599e+06
1.6729e+06
1.65987e+06
1.64689e+06
1.63396e+06
1.6211e+06
1.60829e+06
1.59553e+06
1.58283e+06
1.57018e+06
1.55759e+06
1.54505e+06
1.53256e+06
1.52012e+06
1.50774e+06
1.49541e+06
1.48313e+06
1.4709e+06
1.45872e+06
1.44658e+06
1.4345e+06
1.42247e+06
1.41048e+06
1.39855e+06
1.38666e+06
1.37482e+06
1.36302e+06
1.35128e+06
1.33959e+06
1.32794e+06
1.31635e+06
1.30481e+06
1.29332e+06
1.28188e+06
1.2705e+06
1.25916e+06
1.24787e+06
1.23664e+06
1.22545e+06
1.21432e+06
1.20324e+06
1.1922e+06
1.18122e+06
1.17029e+06
1.15941e+06
1.14859e+06
1.13781e+06
1.12708e+06
1.11641e+06
1.10578e+06
1.0952e+06
1.08468e+06
1.0742e+06
1.06378e+06
1.05341e+06
1.04308e+06
1.03281e+06
1.02258e+06
1.01241e+06
1.00228e+06
992197
982159
972170
962225
952330
942482
932685
922938
913245
903602
894012
884471
874982
865539
856146
846797
837498
828239
819028
809855
800728
791637
782589
773577
764607
755673
746780
737922
729103
720316
711564
702840
694147
685477
676833
668205
659595
650993
642402
633807
625212
616597
607969
599297
590596
581812
572979
564003
554947
545646
536216
526369
516289
505550
494257
482065
468683
3.06001e+06
3.02554e+06
2.99406e+06
2.96521e+06
2.93855e+06
2.91359e+06
2.88999e+06
2.86745e+06
2.84579e+06
2.82485e+06
2.80452e+06
2.7847e+06
2.76532e+06
2.74632e+06
2.72765e+06
2.70927e+06
2.69114e+06
2.67324e+06
2.65555e+06
2.63804e+06
2.62069e+06
2.60349e+06
2.58644e+06
2.56951e+06
2.5527e+06
2.53601e+06
2.51943e+06
2.50295e+06
2.48656e+06
2.47027e+06
2.45406e+06
2.43795e+06
2.42191e+06
2.40596e+06
2.39009e+06
2.37429e+06
2.35857e+06
2.34291e+06
2.32733e+06
2.31182e+06
2.29638e+06
2.28101e+06
2.2657e+06
2.25046e+06
2.23529e+06
2.22018e+06
2.20513e+06
2.19014e+06
2.1752e+06
2.16033e+06
2.14551e+06
2.13075e+06
2.11606e+06
2.10143e+06
2.08686e+06
2.07235e+06
2.05791e+06
2.04351e+06
2.02918e+06
2.0149e+06
2.00066e+06
1.98648e+06
1.97234e+06
1.95825e+06
1.94421e+06
1.93022e+06
1.91628e+06
1.90237e+06
1.88851e+06
1.87469e+06
1.86091e+06
1.84717e+06
1.83347e+06
1.81982e+06
1.8062e+06
1.79263e+06
1.77912e+06
1.76565e+06
1.75224e+06
1.73887e+06
1.72557e+06
1.71231e+06
1.69911e+06
1.68597e+06
1.67288e+06
1.65984e+06
1.64686e+06
1.63394e+06
1.62107e+06
1.60825e+06
1.5955e+06
1.5828e+06
1.57015e+06
1.55756e+06
1.54502e+06
1.53253e+06
1.52009e+06
1.50771e+06
1.49538e+06
1.4831e+06
1.47086e+06
1.45868e+06
1.44655e+06
1.43447e+06
1.42244e+06
1.41046e+06
1.39852e+06
1.38663e+06
1.37479e+06
1.363e+06
1.35126e+06
1.33956e+06
1.32792e+06
1.31633e+06
1.30479e+06
1.29331e+06
1.28187e+06
1.27048e+06
1.25914e+06
1.24786e+06
1.23663e+06
1.22544e+06
1.21431e+06
1.20323e+06
1.19219e+06
1.18121e+06
1.17028e+06
1.1594e+06
1.14857e+06
1.1378e+06
1.12707e+06
1.11639e+06
1.10577e+06
1.09519e+06
1.08466e+06
1.07419e+06
1.06376e+06
1.05339e+06
1.04306e+06
1.03279e+06
1.02256e+06
1.01239e+06
1.00225e+06
992172
982131
972140
962192
952294
942441
932641
922889
913192
903543
893949
884400
874906
865456
856057
846700
837393
828125
818906
809722
800586
791483
782424
773399
764416
755465
746556
737678
728838
720026
711250
702496
693773
685068
676388
667717
659066
650413
641772
633117
624463
615776
607080
598321
589540
580652
571726
562625
553460
544012
534454
524461
514229
503405
491986
479814
466610
3.06474e+06
3.03071e+06
2.99932e+06
2.9703e+06
2.94333e+06
2.91801e+06
2.89403e+06
2.87114e+06
2.84914e+06
2.82789e+06
2.80727e+06
2.78719e+06
2.76757e+06
2.74836e+06
2.72949e+06
2.71093e+06
2.69264e+06
2.67459e+06
2.65676e+06
2.63913e+06
2.62167e+06
2.60437e+06
2.58723e+06
2.57022e+06
2.55334e+06
2.53659e+06
2.51994e+06
2.50341e+06
2.48698e+06
2.47064e+06
2.4544e+06
2.43825e+06
2.42219e+06
2.40621e+06
2.39031e+06
2.37449e+06
2.35875e+06
2.34308e+06
2.32749e+06
2.31197e+06
2.29652e+06
2.28114e+06
2.26582e+06
2.25057e+06
2.23539e+06
2.22027e+06
2.20521e+06
2.19022e+06
2.17528e+06
2.16039e+06
2.14557e+06
2.13081e+06
2.11611e+06
2.10147e+06
2.0869e+06
2.07239e+06
2.05794e+06
2.04355e+06
2.02921e+06
2.01493e+06