/*--------------------------------*- C++ -*----------------------------------*\
| =========                 |                                                 |
| \\      /  F ield         | OpenFOAM: The Open Source CFD Toolbox           |
|  \\    /   O peration     | Version:  2.4.0                                 |
|   \\  /    A nd           | Web:      www.OpenFOAM.org                      |
|    \\/     M anipulation  |                                                 |
\*---------------------------------------------------------------------------*/
FoamFile
{
    version     2.0;
    format      ascii;
    class       volVectorField;
    location    "0.198";
    object      UMean;
}
// * * * * * * * * * * * * * * * * * * * * * * * * * * * * * * * * * * * * * //

dimensions      [0 1 -1 0 0 0 0];

internalField   nonuniform List<vector> 
17600
(
(5.34127 0.30796 0)
(3.02651 0.0607293 0)
(2.24781 -0.00146566 0)
(1.90365 -0.0035223 0)
(1.7671 -0.00132723 0)
(1.67421 -0.000163707 0)
(1.61019 -1.25313e-05 0)
(1.55033 -1.59196e-05 0)
(1.51706 -0.000161357 0)
(1.47952 -1.97339e-05 0)
(1.46398 -0.000107712 0)
(1.43527 9.69065e-05 0)
(1.42689 -9.21713e-05 0)
(1.40324 4.31751e-05 0)
(1.40245 -0.000255531 0)
(1.38885 -0.000157171 0)
(1.40001 -0.000635574 0)
(1.41135 -0.000518053 0)
(1.45984 -0.00131518 0)
(1.44377 -0.0312455 0)
(8.59524 0.866465 0)
(6.98136 0.380131 0)
(5.86862 0.120042 0)
(5.12199 0.049905 0)
(4.73216 0.0271617 0)
(4.462 0.0194751 0)
(4.28597 0.0150413 0)
(4.12022 0.01151 0)
(4.02689 0.00841002 0)
(3.91735 0.00677252 0)
(3.87245 0.0051879 0)
(3.78874 0.00501223 0)
(3.76635 0.00365783 0)
(3.69669 0.00361798 0)
(3.69209 0.00139014 0)
(3.64468 0.00134182 0)
(3.66313 -0.00287004 0)
(3.6666 -0.00531025 0)
(3.72997 -0.00743359 0)
(3.86539 -0.0871309 0)
(9.84143 1.01457 0)
(9.35493 0.570909 0)
(8.5173 0.237271 0)
(7.69109 0.127389 0)
(7.16377 0.0789664 0)
(6.76821 0.0550135 0)
(6.51275 0.041599 0)
(6.26462 0.0318622 0)
(6.12627 0.0241529 0)
(5.95527 0.0192051 0)
(5.88766 0.0151567 0)
(5.75521 0.0136556 0)
(5.72331 0.0107165 0)
(5.61199 0.00980963 0)
(5.60562 0.00546546 0)
(5.5228 0.00413931 0)
(5.54931 -0.00363833 0)
(5.51989 -0.00868506 0)
(5.61363 -0.0244673 0)
(5.72671 -0.11299 0)
(10.1426 0.940416 0)
(10.5575 0.659919 0)
(10.2787 0.324067 0)
(9.66206 0.205469 0)
(9.16706 0.142725 0)
(8.72932 0.102506 0)
(8.44417 0.077753 0)
(8.14197 0.0597174 0)
(7.97983 0.0460769 0)
(7.76086 0.0366591 0)
(7.68014 0.029255 0)
(7.50655 0.0260347 0)
(7.47029 0.0206102 0)
(7.32262 0.0192399 0)
(7.3172 0.0112672 0)
(7.20003 0.0102059 0)
(7.23664 -0.00436849 0)
(7.16291 -0.00857296 0)
(7.29084 -0.0453868 0)
(7.31761 -0.124288 0)
(10.0626 0.79998 0)
(10.8989 0.660771 0)
(11.1348 0.349533 0)
(10.8836 0.250289 0)
(10.6002 0.19639 0)
(10.2393 0.150406 0)
(10.0034 0.11731 0)
(9.69615 0.0913316 0)
(9.54534 0.0717724 0)
(9.30264 0.0572967 0)
(9.2262 0.0464644 0)
(9.02553 0.0404911 0)
(8.99419 0.0332419 0)
(8.81958 0.0295169 0)
(8.82083 0.0205693 0)
(8.67613 0.0147673 0)
(8.71919 0.00205296 0)
(8.62127 -0.0153562 0)
(8.73384 -0.045481 0)
(8.74802 -0.166929 0)
(9.98374 0.686769 0)
(10.8312 0.628037 0)
(11.3095 0.327043 0)
(11.3402 0.246169 0)
(11.3351 0.216567 0)
(11.1538 0.180841 0)
(11.0632 0.148436 0)
(10.8258 0.119629 0)
(10.7391 0.0963986 0)
(10.5139 0.0784935 0)
(10.4675 0.0640052 0)
(10.2661 0.0565482 0)
(10.2512 0.0456153 0)
(10.0707 0.0425333 0)
(10.0807 0.0275448 0)
(9.92893 0.0255404 0)
(9.97194 -0.000545083 0)
(9.86777 -0.00452151 0)
(9.95947 -0.0679384 0)
(9.95793 -0.168618 0)
(9.975 0.597959 0)
(10.701 0.595391 0)
(11.2334 0.298119 0)
(11.3453 0.216308 0)
(11.5014 0.203334 0)
(11.4633 0.183424 0)
(11.5424 0.158683 0)
(11.4257 0.132795 0)
(11.4571 0.110993 0)
(11.3022 0.0929161 0)
(11.3251 0.0780969 0)
(11.1598 0.0692744 0)
(11.1859 0.0582658 0)
(11.0228 0.052203 0)
(11.0584 0.0388259 0)
(10.9124 0.0293299 0)
(10.9707 0.00895839 0)
(10.8619 -0.0111139 0)
(10.9527 -0.0648991 0)
(10.9226 -0.174384 0)
(9.99371 0.519295 0)
(10.5951 0.559641 0)
(11.1373 0.280346 0)
(11.2519 0.189625 0)
(11.4515 0.180989 0)
(11.449 0.171656 0)
(11.6084 0.152671 0)
(11.5703 0.130346 0)
(11.6969 0.110223 0)
(11.6281 0.095374 0)
(11.7313 0.081015 0)
(11.6402 0.0751681 0)
(11.723 0.0623717 0)
(11.6179 0.0599413 0)
(11.6884 0.041411 0)
(11.5839 0.0380244 0)
(11.6596 0.0050629 0)
(11.5744 -0.00167521 0)
(11.6669 -0.0831977 0)
(11.6132 -0.137505 0)
(10.0133 0.449018 0)
(10.5151 0.516162 0)
(11.0521 0.266899 0)
(11.1786 0.167142 0)
(11.3787 0.159016 0)
(11.384 0.157608 0)
(11.5433 0.141816 0)
(11.5363 0.121956 0)
(11.6772 0.101563 0)
(11.663 0.0889816 0)
(11.7902 0.0751197 0)
(11.7685 0.0716916 0)
(11.8783 0.0592458 0)
(11.848 0.0583934 0)
(11.9405 0.0398833 0)
(11.9075 0.037154 0)
(11.9929 0.00209955 0)
(11.9673 -0.00355891 0)
(12.0507 -0.0958804 0)
(12.0134 -0.135848 0)
(10.0145 0.386212 0)
(10.4647 0.469311 0)
(10.9637 0.254839 0)
(11.1341 0.14612 0)
(11.3063 0.138298 0)
(11.3428 0.143347 0)
(11.4648 0.13061 0)
(11.4937 0.112854 0)
(11.5997 0.0918104 0)
(11.6295 0.0804474 0)
(11.726 0.0668513 0)
(11.7553 0.0644275 0)
(11.8407 0.0526532 0)
(11.8687 0.0515686 0)
(11.9424 0.0348662 0)
(11.9733 0.0287297 0)
(12.041 -0.00096073 0)
(12.0776 -0.0222881 0)
(12.1359 -0.0952755 0)
(12.1274 -0.198491 0)
(9.99693 0.328279 0)
(10.4316 0.423449 0)
(10.8786 0.242306 0)
(11.0988 0.127494 0)
(11.2424 0.117808 0)
(11.3105 0.130302 0)
(11.3994 0.118366 0)
(11.4562 0.105113 0)
(11.5333 0.081566 0)
(11.5905 0.0733353 0)
(11.6619 0.0577209 0)
(11.7152 0.0586251 0)
(11.7811 0.0442817 0)
(11.8293 0.0460415 0)
(11.8893 0.0262689 0)
(11.9385 0.0228547 0)
(11.9973 -0.0116174 0)
(12.0475 -0.0321275 0)
(12.0971 -0.113467 0)
(12.0813 -0.233564 0)
(9.98329 0.277798 0)
(10.3948 0.376138 0)
(10.8106 0.230239 0)
(11.0556 0.108596 0)
(11.1939 0.0998162 0)
(11.2723 0.115317 0)
(11.3509 0.107477 0)
(11.4125 0.0950905 0)
(11.485 0.0734122 0)
(11.5456 0.0641791 0)
(11.6144 0.051507 0)
(11.6698 0.0503075 0)
(11.7347 0.0396263 0)
(11.7816 0.0371653 0)
(11.8431 0.0221248 0)
(11.8888 0.0111576 0)
(11.9498 -0.0163784 0)
(11.9928 -0.0505139 0)
(12.0416 -0.125489 0)
(12.0069 -0.259766 0)
(9.98157 0.23265 0)
(10.3552 0.329729 0)
(10.7564 0.213429 0)
(11.0089 0.0928943 0)
(11.155 0.0821247 0)
(11.2343 0.101089 0)
(11.31 0.095095 0)
(11.3703 0.0852637 0)
(11.4437 0.064077 0)
(11.5026 0.0560011 0)
(11.5737 0.0440531 0)
(11.6279 0.043191 0)
(11.6931 0.0333018 0)
(11.7392 0.0300887 0)
(11.8007 0.015667 0)
(11.8445 0.00281286 0)
(11.9047 -0.0248371 0)
(11.9441 -0.0644498 0)
(11.9874 -0.139153 0)
(11.9403 -0.277075 0)
(9.98092 0.193048 0)
(10.3239 0.283735 0)
(10.708 0.191392 0)
(10.9684 0.0792379 0)
(11.1198 0.0681453 0)
(11.203 0.0860572 0)
(11.2718 0.0841022 0)
(11.336 0.0737496 0)
(11.4039 0.0565017 0)
(11.4682 0.0465637 0)
(11.5349 0.0383375 0)
(11.5944 0.0348074 0)
(11.6534 0.0286175 0)
(11.7061 0.0214207 0)
(11.76 0.0105443 0)
(11.8103 -0.00707321 0)
(11.8615 -0.0327116 0)
(11.9064 -0.0772861 0)
(11.9355 -0.15211 0)
(11.8892 -0.288849 0)
(9.97824 0.155967 0)
(10.3001 0.240467 0)
(10.6665 0.163181 0)
(10.935 0.0688321 0)
(11.0911 0.0544784 0)
(11.1774 0.0730191 0)
(11.2413 0.0710848 0)
(11.3076 0.0636834 0)
(11.3719 0.0470217 0)
(11.4405 0.0392686 0)
(11.5043 0.0306967 0)
(11.5668 0.0286563 0)
(11.6231 0.0213708 0)
(11.6786 0.0153095 0)
(11.7289 0.00278883 0)
(11.7818 -0.0145728 0)
(11.8283 -0.0421771 0)
(11.8739 -0.0885552 0)
(11.8938 -0.16282 0)
(11.8475 -0.302542 0)
(9.97931 0.123437 0)
(10.2777 0.195886 0)
(10.6355 0.134603 0)
(10.9051 0.0569417 0)
(11.0707 0.0433477 0)
(11.1542 0.0580516 0)
(11.2206 0.0594805 0)
(11.2819 0.0509147 0)
(11.3502 0.0395756 0)
(11.4157 0.0294289 0)
(11.4837 0.025836 0)
(11.5418 0.0194465 0)
(11.6031 0.0173141 0)
(11.6527 0.00528488 0)
(11.7082 -0.00103343 0)
(11.7545 -0.0269312 0)
(11.8051 -0.0464961 0)
(11.8419 -0.104986 0)
(11.8624 -0.164989 0)
(11.8065 -0.31968 0)
(9.98209 0.0934404 0)
(10.2589 0.15181 0)
(10.6114 0.104966 0)
(10.8808 0.0454947 0)
(11.0541 0.032257 0)
(11.1362 0.0444164 0)
(11.2038 0.0462771 0)
(11.2611 0.0395686 0)
(11.3325 0.0301639 0)
(11.3952 0.0220605 0)
(11.4659 0.0184579 0)
(11.5218 0.0135428 0)
(11.5848 0.00972427 0)
(11.6316 0.000238429 0)
(11.6891 -0.0102803 0)
(11.7316 -0.0313034 0)
(11.7833 -0.0596071 0)
(11.8143 -0.108376 0)
(11.8335 -0.181212 0)
(11.7669 -0.297863 0)
(9.98162 0.0648731 0)
(10.2472 0.108558 0)
(10.5912 0.0748156 0)
(10.8641 0.0338647 0)
(11.039 0.0218049 0)
(11.1246 0.0314826 0)
(11.1875 0.0328662 0)
(11.247 0.0282483 0)
(11.3154 0.0209862 0)
(11.381 0.0147276 0)
(11.4486 0.0115121 0)
(11.5081 0.00712265 0)
(11.5663 0.00267457 0)
(11.6178 -0.006064 0)
(11.6696 -0.0183199 0)
(11.7158 -0.0375318 0)
(11.7609 -0.0702643 0)
(11.7941 -0.113582 0)
(11.8061 -0.195149 0)
(11.74 -0.277398 0)
(9.97983 0.0392744 0)
(10.2407 0.0638534 0)
(10.5771 0.0461012 0)
(10.8537 0.0195058 0)
(11.0285 0.0138968 0)
(11.1173 0.0169499 0)
(11.1761 0.0211192 0)
(11.2387 0.0147423 0)
(11.3031 0.0136371 0)
(11.3723 0.00537228 0)
(11.4368 0.00673802 0)
(11.4991 -0.00165281 0)
(11.5543 -0.00172912 0)
(11.6087 -0.015643 0)
(11.6561 -0.022333 0)
(11.705 -0.0489724 0)
(11.7446 -0.0738714 0)
(11.7799 -0.127184 0)
(11.7845 -0.195823 0)
(11.7193 -0.295051 0)
(9.98041 0.012603 0)
(10.2364 0.0216732 0)
(10.5714 0.0149091 0)
(10.8477 0.00701856 0)
(11.0249 0.00387173 0)
(11.1125 0.00581389 0)
(11.1729 0.00585258 0)
(11.2335 0.0048262 0)
(11.2994 0.00231879 0)
(11.3672 0.000320052 0)
(11.4334 -0.00260519 0)
(11.4935 -0.00524547 0)
(11.5512 -0.0115662 0)
(11.6022 -0.0189103 0)
(11.6518 -0.0327353 0)
(11.6967 -0.0528244 0)
(11.7381 -0.0846538 0)
(11.7681 -0.13289 0)
(11.7727 -0.201824 0)
(11.7021 -0.315993 0)
(9.98194 -0.0117193 0)
(10.235 -0.0228875 0)
(10.5728 -0.0139203 0)
(10.8466 -0.00863532 0)
(11.0261 -0.00279099 0)
(11.1115 -0.00889168 0)
(11.1748 -0.00555168 0)
(11.2322 -0.00941857 0)
(11.3014 -0.00430433 0)
(11.3664 -0.0099717 0)
(11.435 -0.00628104 0)
(11.4927 -0.0153319 0)
(11.5524 -0.0145248 0)
(11.6003 -0.0300138 0)
(11.652 -0.0349799 0)
(11.6934 -0.0657805 0)
(11.736 -0.0860912 0)
(11.761 -0.148054 0)
(11.7647 -0.197533 0)
(11.69 -0.337688 0)
(9.98206 -0.0380393 0)
(10.2387 -0.0654722 0)
(10.5794 -0.0446549 0)
(10.852 -0.0216378 0)
(11.0309 -0.0121651 0)
(11.1156 -0.0207416 0)
(11.1793 -0.0199786 0)
(11.2368 -0.0201158 0)
(11.3066 -0.0147522 0)
(11.3707 -0.0157608 0)
(11.4397 -0.0148423 0)
(11.4967 -0.0195291 0)
(11.5563 -0.0239092 0)
(11.6036 -0.0331947 0)
(11.655 -0.0459956 0)
(11.6951 -0.0676247 0)
(11.7363 -0.0999619 0)
(11.7591 -0.146235 0)
(11.7597 -0.214026 0)
(11.6812 -0.302217 0)
(9.9805 -0.064393 0)
(10.2482 -0.109263 0)
(10.5907 -0.0742784 0)
(10.8646 -0.0349382 0)
(11.0387 -0.0211919 0)
(11.1249 -0.034081 0)
(11.187 -0.0330314 0)
(11.2475 -0.0322362 0)
(11.3147 -0.0236544 0)
(11.3806 -0.0233732 0)
(11.4474 -0.0215074 0)
(11.5059 -0.0258493 0)
(11.5633 -0.030904 0)
(11.6122 -0.0389302 0)
(11.6611 -0.054163 0)
(11.7016 -0.0722838 0)
(11.7398 -0.11058 0)
(11.7622 -0.147265 0)
(11.7612 -0.227791 0)
(11.6831 -0.267525 0)
(9.97944 -0.0920348 0)
(10.2616 -0.153641 0)
(10.6087 -0.103325 0)
(10.8829 -0.0478906 0)
(11.0512 -0.0304071 0)
(11.1382 -0.0485553 0)
(11.1999 -0.04482 0)
(11.2626 -0.0455217 0)
(11.3281 -0.0308177 0)
(11.3953 -0.0330839 0)
(11.4601 -0.0257381 0)
(11.5198 -0.0353833 0)
(11.5753 -0.0339443 0)
(11.6253 -0.0496668 0)
(11.6719 -0.0557851 0)
(11.7128 -0.0850849 0)
(11.7484 -0.110329 0)
(11.7706 -0.162854 0)
(11.768 -0.221323 0)
(11.6866 -0.287799 0)
(9.97905 -0.123088 0)
(10.2785 -0.196446 0)
(10.6342 -0.134147 0)
(10.9063 -0.0579262 0)
(11.0688 -0.0428969 0)
(11.1556 -0.0605987 0)
(11.2183 -0.0594979 0)
(11.2822 -0.0552856 0)
(11.3473 -0.0417095 0)
(11.4144 -0.0386842 0)
(11.4786 -0.0347276 0)
(11.538 -0.0395274 0)
(11.593 -0.0428771 0)
(11.6429 -0.0534315 0)
(11.6883 -0.0648144 0)
(11.7286 -0.089122 0)
(11.7628 -0.118975 0)
(11.784 -0.168661 0)
(11.7797 -0.225212 0)
(11.6966 -0.305298 0)
(9.97861 -0.154946 0)
(10.3002 -0.241703 0)
(10.6668 -0.162095 0)
(10.9355 -0.0704478 0)
(11.0913 -0.0532218 0)
(11.1777 -0.0763034 0)
(11.2419 -0.0702492 0)
(11.307 -0.0688296 0)
(11.3722 -0.0482802 0)
(11.4387 -0.0491603 0)
(11.5023 -0.0387531 0)
(11.5612 -0.0491785 0)
(11.6161 -0.046036 0)
(11.6652 -0.0630872 0)
(11.7103 -0.0677286 0)
(11.7494 -0.0988943 0)
(11.7826 -0.122108 0)
(11.8022 -0.178885 0)
(11.7966 -0.227692 0)
(11.714 -0.316167 0)
(9.97887 -0.192437 0)
(10.3269 -0.284563 0)
(10.7066 -0.190732 0)
(10.9706 -0.0805293 0)
(11.1188 -0.0672815 0)
(11.2049 -0.0890529 0)
(11.2709 -0.0836975 0)
(11.3374 -0.0785803 0)
(11.4025 -0.0581715 0)
(11.4684 -0.0559651 0)
(11.5314 -0.0466521 0)
(11.5899 -0.054673 0)
(11.6445 -0.053289 0)
(11.693 -0.0679914 0)
(11.7378 -0.0752504 0)
(11.7754 -0.103025 0)
(11.8081 -0.130941 0)
(11.8255 -0.181718 0)
(11.8201 -0.24035 0)
(11.7372 -0.304311 0)
(9.9832 -0.232231 0)
(10.3573 -0.330227 0)
(10.7552 -0.213198 0)
(11.011 -0.0938176 0)
(11.1531 -0.0816315 0)
(11.2373 -0.103647 0)
(11.3064 -0.0953254 0)
(11.3736 -0.0895795 0)
(11.4387 -0.0664473 0)
(11.504 -0.064692 0)
(11.5662 -0.0529269 0)
(11.6246 -0.0622115 0)
(11.6783 -0.0583257 0)
(11.7271 -0.0752714 0)
(11.7703 -0.0798544 0)
(11.8077 -0.109939 0)
(11.8382 -0.136002 0)
(11.8551 -0.188157 0)
(11.8495 -0.249518 0)
(11.769 -0.298322 0)
(9.99727 -0.277537 0)
(10.3861 -0.376625 0)
(10.8176 -0.229725 0)
(11.0497 -0.109715 0)
(11.1982 -0.0987952 0)
(11.2691 -0.118135 0)
(11.3521 -0.107212 0)
(11.4099 -0.0998426 0)
(11.4838 -0.0750553 0)
(11.5405 -0.0734939 0)
(11.6093 -0.0593456 0)
(11.6608 -0.0700764 0)
(11.72 -0.06274 0)
(11.7633 -0.0835588 0)
(11.8102 -0.0824013 0)
(11.8429 -0.119374 0)
(11.8748 -0.136204 0)
(11.8886 -0.200643 0)
(11.8835 -0.248567 0)
(11.8038 -0.318655 0)
(10.0181 -0.328858 0)
(10.4118 -0.422822 0)
(10.8964 -0.242867 0)
(11.0811 -0.127256 0)
(11.2581 -0.11835 0)
(11.2948 -0.131328 0)
(11.4126 -0.120014 0)
(11.4404 -0.107753 0)
(11.5438 -0.0855107 0)
(11.5722 -0.0799337 0)
(11.6675 -0.06841 0)
(11.6932 -0.0748401 0)
(11.7767 -0.0705393 0)
(11.7964 -0.0877424 0)
(11.8642 -0.0890901 0)
(11.8752 -0.1234 0)
(11.9227 -0.140953 0)
(11.9164 -0.206407 0)
(11.9165 -0.25156 0)
(11.8196 -0.339332 0)
(10.0292 -0.386007 0)
(10.4465 -0.469533 0)
(10.983 -0.254646 0)
(11.1139 -0.146829 0)
(11.3272 -0.138132 0)
(11.3215 -0.145141 0)
(11.4855 -0.131444 0)
(11.4708 -0.116261 0)
(11.6187 -0.0950475 0)
(11.6033 -0.0876436 0)
(11.7417 -0.0765434 0)
(11.7229 -0.0811317 0)
(11.8476 -0.0772133 0)
(11.8209 -0.0932838 0)
(11.9252 -0.0941719 0)
(11.8859 -0.128032 0)
(11.9591 -0.143034 0)
(11.8932 -0.210576 0)
(11.8949 -0.250167 0)
(11.7269 -0.35569 0)
(10.0192 -0.449225 0)
(10.5061 -0.515866 0)
(11.0643 -0.267246 0)
(11.1664 -0.167294 0)
(11.3935 -0.159446 0)
(11.3688 -0.158541 0)
(11.5592 -0.143274 0)
(11.5183 -0.124409 0)
(11.6922 -0.10552 0)
(11.641 -0.0950859 0)
(11.8022 -0.0853896 0)
(11.737 -0.086785 0)
(11.879 -0.0839058 0)
(11.7928 -0.0971389 0)
(11.9056 -0.0976944 0)
(11.7914 -0.129456 0)
(11.8589 -0.140404 0)
(11.6974 -0.209457 0)
(11.6698 -0.236722 0)
(11.3837 -0.361176 0)
(9.99706 -0.518995 0)
(10.5906 -0.559768 0)
(11.1444 -0.28049 0)
(11.2451 -0.189961 0)
(11.4599 -0.18122 0)
(11.4393 -0.17252 0)
(11.6179 -0.154103 0)
(11.5576 -0.132483 0)
(11.7052 -0.114365 0)
(11.6099 -0.100669 0)
(11.7339 -0.0912737 0)
(11.6075 -0.0884544 0)
(11.7074 -0.0866475 0)
(11.5485 -0.0942073 0)
(11.6185 -0.0970961 0)
(11.4255 -0.120203 0)
(11.4475 -0.135297 0)
(11.2012 -0.189668 0)
(11.1156 -0.225346 0)
(10.7471 -0.319246 0)
(9.97659 -0.597874 0)
(10.6986 -0.59544 0)
(11.2375 -0.298293 0)
(11.3412 -0.216657 0)
(11.5061 -0.203473 0)
(11.4571 -0.184327 0)
(11.5477 -0.159874 0)
(11.4157 -0.134953 0)
(11.46 -0.114513 0)
(11.2839 -0.0980506 0)
(11.3187 -0.0868717 0)
(11.1212 -0.081939 0)
(11.1537 -0.078939 0)
(10.9342 -0.0842938 0)
(10.9566 -0.086133 0)
(10.7081 -0.105845 0)
(10.6942 -0.11876 0)
(10.3887 -0.166101 0)
(10.2699 -0.197485 0)
(9.84071 -0.269839 0)
(9.98453 -0.686616 0)
(10.8301 -0.628044 0)
(11.312 -0.327272 0)
(11.3375 -0.246514 0)
(11.3379 -0.216767 0)
(11.149 -0.181605 0)
(11.0654 -0.149537 0)
(10.8165 -0.121419 0)
(10.7377 -0.0996133 0)
(10.4938 -0.082683 0)
(10.4544 -0.0719107 0)
(10.2209 -0.0668931 0)
(10.2073 -0.0643457 0)
(9.96541 -0.0685455 0)
(9.9565 -0.0705449 0)
(9.688 -0.0867636 0)
(9.64906 -0.0981648 0)
(9.31768 -0.13756 0)
(9.17574 -0.161534 0)
(8.71193 -0.223568 0)
(10.0631 -0.799848 0)
(10.8984 -0.660846 0)
(11.1365 -0.349757 0)
(10.8814 -0.250585 0)
(10.6017 -0.196538 0)
(10.2351 -0.151034 0)
(10.0033 -0.11816 0)
(9.6877 -0.0928664 0)
(9.54005 -0.0742778 0)
(9.28252 -0.0608547 0)
(9.20707 -0.0525745 0)
(8.97791 -0.04925 0)
(8.94014 -0.0476068 0)
(8.7067 -0.0513529 0)
(8.67801 -0.0533193 0)
(8.41646 -0.0660454 0)
(8.35927 -0.0760281 0)
(8.02993 -0.104767 0)
(7.86976 -0.128029 0)
(7.41323 -0.158915 0)
(10.1429 -0.940321 0)
(10.5573 -0.659986 0)
(10.2798 -0.324235 0)
(9.66025 -0.205677 0)
(9.16757 -0.142828 0)
(8.72567 -0.102973 0)
(8.44289 -0.0783954 0)
(8.13407 -0.0608691 0)
(7.97216 -0.0479136 0)
(7.7413 -0.0392645 0)
(7.65764 -0.0338264 0)
(7.45856 -0.0323125 0)
(7.41141 -0.0313923 0)
(7.20721 -0.0346984 0)
(7.16721 -0.0361568 0)
(6.93295 -0.0457343 0)
(6.86486 -0.0529127 0)
(6.55852 -0.0733444 0)
(6.39758 -0.0902417 0)
(5.95448 -0.107574 0)
(9.84166 -1.01451 0)
(9.35497 -0.570971 0)
(8.51785 -0.237379 0)
(7.68956 -0.127527 0)
(7.16374 -0.0790128 0)
(6.76518 -0.0553248 0)
(6.51085 -0.0420216 0)
(6.25733 -0.0325975 0)
(6.11814 -0.0252949 0)
(5.93693 -0.0208912 0)
(5.86477 -0.017953 0)
(5.71023 -0.0177923 0)
(5.66491 -0.017326 0)
(5.50344 -0.0199258 0)
(5.46004 -0.0206837 0)
(5.26911 -0.027088 0)
(5.19785 -0.0312463 0)
(4.93713 -0.0440693 0)
(4.78689 -0.0542724 0)
(4.38605 -0.0648962 0)
(8.5954 -0.866439 0)
(6.98146 -0.380172 0)
(5.86879 -0.120088 0)
(5.12085 -0.0499742 0)
(4.73189 -0.0271766 0)
(4.45961 -0.0196362 0)
(4.28399 -0.0152421 0)
(4.11425 -0.011864 0)
(4.01979 -0.00894484 0)
(3.90232 -0.00758144 0)
(3.85286 -0.00651198 0)
(3.75203 -0.00695602 0)
(3.71672 -0.00674907 0)
(3.60808 -0.00833446 0)
(3.56977 -0.00850372 0)
(3.43662 -0.0118443 0)
(3.3733 -0.0134477 0)
(3.18327 -0.019734 0)
(3.05733 -0.0238979 0)
(2.75185 -0.0301913 0)
(5.34134 -0.307953 0)
(3.02657 -0.0607413 0)
(2.24777 0.00146547 0)
(1.90308 0.00350985 0)
(1.76681 0.00133738 0)
(1.67307 0.000134453 0)
(1.60892 -7.31284e-06 0)
(1.54727 -3.20194e-05 0)
(1.51308 0.000109406 0)
(1.47179 -7.26473e-05 0)
(1.45334 -2.17319e-05 0)
(1.41631 -0.000318726 0)
(1.40018 -0.000192469 0)
(1.35762 -0.000605362 0)
(1.33719 -0.000392499 0)
(1.28191 -0.00105483 0)
(1.24701 -0.000909911 0)
(1.16314 -0.0019614 0)
(1.09454 -0.00221847 0)
(0.958619 0.00168697 0)
(2.11387 -0.160068 0)
(2.67216 -0.116304 0)
(3.2158 -0.169883 0)
(3.70781 -0.24422 0)
(4.13288 -0.329337 0)
(4.5634 -0.4173 0)
(5.03266 -0.472706 0)
(5.49554 -0.558217 0)
(5.97225 -0.639076 0)
(6.35796 -0.702367 0)
(6.74798 -0.767609 0)
(7.02165 -0.836823 0)
(7.29625 -0.88856 0)
(7.52254 -0.919383 0)
(7.74703 -0.953794 0)
(7.92844 -0.994417 0)
(8.12707 -1.07886 0)
(8.28798 -1.19235 0)
(8.44272 -1.3245 0)
(8.62118 -1.46278 0)
(8.77121 -1.60358 0)
(8.92462 -1.73747 0)
(9.11464 -1.87722 0)
(9.25893 -2.0194 0)
(9.39667 -2.17238 0)
(9.4832 -2.32053 0)
(9.52058 -2.44012 0)
(9.5488 -2.53976 0)
(9.55759 -2.61824 0)
(9.56145 -2.68609 0)
(9.53836 -2.73747 0)
(9.5267 -2.78361 0)
(9.50137 -2.82223 0)
(9.45469 -2.85486 0)
(9.38845 -2.88141 0)
(9.30229 -2.907 0)
(9.21046 -2.92691 0)
(9.14034 -2.93473 0)
(9.1138 -2.92649 0)
(9.09899 -2.89787 0)
(9.08717 -2.86582 0)
(9.06083 -2.82819 0)
(9.02774 -2.78185 0)
(8.98415 -2.7327 0)
(8.94328 -2.6658 0)
(8.90534 -2.58348 0)
(8.84461 -2.48106 0)
(8.77889 -2.36989 0)
(8.65807 -2.2254 0)
(8.51864 -2.07251 0)
(8.4209 -1.94458 0)
(8.32457 -1.81119 0)
(8.24333 -1.67666 0)
(8.17884 -1.54508 0)
(8.1165 -1.40568 0)
(8.05652 -1.2724 0)
(8.01026 -1.15015 0)
(7.94377 -1.01724 0)
(7.88321 -0.88231 0)
(7.79752 -0.750651 0)
(7.70002 -0.599851 0)
(7.57778 -0.450294 0)
(7.4531 -0.317232 0)
(7.34504 -0.199933 0)
(7.23096 -0.0976868 0)
(7.12062 -0.0111663 0)
(7.01265 0.0634018 0)
(6.91719 0.122742 0)
(6.82377 0.169265 0)
(6.73796 0.217094 0)
(6.67812 0.26659 0)
(6.62146 0.303444 0)
(6.5872 0.325724 0)
(6.54481 0.335188 0)
(6.51299 0.340127 0)
(6.49764 0.370531 0)
(6.48759 0.40936 0)
(6.4822 0.445946 0)
(6.46906 0.488249 0)
(6.48268 0.526176 0)
(6.47681 0.555278 0)
(6.4823 0.577397 0)
(6.49767 0.595389 0)
(6.50314 0.598142 0)
(6.51968 0.591859 0)
(6.52034 0.585821 0)
(6.50633 0.590956 0)
(6.49973 0.601453 0)
(6.47806 0.598468 0)
(6.4866 0.606687 0)
(6.45905 0.601147 0)
(6.48815 0.596734 0)
(6.48947 0.569915 0)
(6.49674 0.563416 0)
(6.51807 0.529549 0)
(6.54008 0.504873 0)
(6.59266 0.472119 0)
(6.60794 0.456131 0)
(6.69041 0.415324 0)
(6.69738 0.386869 0)
(6.75738 0.343513 0)
(6.73858 0.335901 0)
(6.79182 0.290862 0)
(6.77718 0.292024 0)
(6.83088 0.247891 0)
(6.78464 0.25857 0)
(6.84292 0.19899 0)
(6.77095 0.206263 0)
(6.84862 0.159194 0)
(6.73989 0.183413 0)
(6.81328 0.128051 0)
(6.68491 0.141842 0)
(6.75499 0.0939545 0)
(6.61082 0.12558 0)
(6.70312 0.0777027 0)
(6.53393 0.12691 0)
(6.66442 0.0919253 0)
(6.45989 0.142215 0)
(6.60418 0.0966324 0)
(6.41512 0.152921 0)
(6.54646 0.10566 0)
(6.40165 0.180101 0)
(6.49622 0.138148 0)
(6.38728 0.2473 0)
(6.46476 0.193615 0)
(6.36434 0.317637 0)
(6.44106 0.243325 0)
(6.32321 0.376139 0)
(6.39418 0.286525 0)
(6.28654 0.423791 0)
(6.33524 0.326784 0)
(6.29617 0.465568 0)
(6.28619 0.350218 0)
(6.32286 0.473776 0)
(6.25875 0.349782 0)
(6.36623 0.453561 0)
(6.23426 0.309537 0)
(6.39855 0.395059 0)
(6.20273 0.261393 0)
(6.41024 0.339542 0)
(6.21705 0.218315 0)
(6.39156 0.309549 0)
(6.25498 0.182624 0)
(6.39579 0.275945 0)
(6.2849 0.154928 0)
(6.42542 0.232601 0)
(6.31866 0.133096 0)
(6.4485 0.196426 0)
(6.38086 0.126424 0)
(6.48243 0.171604 0)
(6.43973 0.11455 0)
(6.53681 0.14694 0)
(6.49434 0.104852 0)
(6.58112 0.13434 0)
(6.52367 0.0970604 0)
(6.60735 0.120867 0)
(6.54807 0.0716336 0)
(6.63762 0.102181 0)
(6.55818 0.0433586 0)
(6.66475 0.0887434 0)
(6.56021 0.0429242 0)
(6.67777 0.100625 0)
(6.58357 0.0520224 0)
(6.65914 0.117253 0)
(6.59841 0.0677454 0)
(6.60434 0.140672 0)
(6.59233 0.0973302 0)
(6.54227 0.175663 0)
(6.56452 0.155 0)
(6.48271 0.246659 0)
(6.52503 0.252195 0)
(6.4349 0.369925 0)
(6.49775 0.398725 0)
(6.41802 0.539949 0)
(6.47914 0.575869 0)
(6.40308 0.738018 0)
(6.46303 0.770112 0)
(6.39055 0.954052 0)
(6.46327 0.977945 0)
(6.3612 1.18437 0)
(6.48427 1.20775 0)
(6.32262 1.43142 0)
(6.50049 1.44774 0)
(6.28939 1.68875 0)
(6.48879 1.69601 0)
(6.24559 1.96045 0)
(6.4346 1.96855 0)
(6.19944 2.26268 0)
(6.34725 2.28746 0)
(6.13471 2.62709 0)
(6.26247 2.70451 0)
(6.05582 3.09475 0)
(6.12963 3.25802 0)
(5.86061 3.70589 0)
(5.96248 3.98601 0)
(5.75859 4.55863 0)
(5.72991 5.01738 0)
(5.28981 6.08418 0)
(5.78746 6.88249 0)
(3.26989 10.0516 0)
(4.08916 -0.212022 0)
(4.32138 -0.242761 0)
(4.64331 -0.326759 0)
(4.9867 -0.410747 0)
(5.32416 -0.488525 0)
(5.65491 -0.575458 0)
(5.96845 -0.643909 0)
(6.27164 -0.723915 0)
(6.58787 -0.80284 0)
(6.85239 -0.859136 0)
(7.16171 -0.916184 0)
(7.4064 -0.964392 0)
(7.6302 -1.00536 0)
(7.85231 -1.02916 0)
(8.08272 -1.0552 0)
(8.30235 -1.08788 0)
(8.51223 -1.15155 0)
(8.69307 -1.25415 0)
(8.85157 -1.38019 0)
(9.01206 -1.52282 0)
(9.15515 -1.66225 0)
(9.31088 -1.79752 0)
(9.47583 -1.93674 0)
(9.61351 -2.07071 0)
(9.71138 -2.20774 0)
(9.76711 -2.34311 0)
(9.78171 -2.45519 0)
(9.80699 -2.55151 0)
(9.81892 -2.62412 0)
(9.81809 -2.68194 0)
(9.7819 -2.72741 0)
(9.75834 -2.77108 0)
(9.72059 -2.80448 0)
(9.66512 -2.82993 0)
(9.59162 -2.84533 0)
(9.50456 -2.86479 0)
(9.41529 -2.89069 0)
(9.34245 -2.9125 0)
(9.30134 -2.91454 0)
(9.27246 -2.88878 0)
(9.23621 -2.85594 0)
(9.18802 -2.81274 0)
(9.13451 -2.76084 0)
(9.07634 -2.71123 0)
(9.0213 -2.64534 0)
(8.95641 -2.55969 0)
(8.8738 -2.44807 0)
(8.77747 -2.32218 0)
(8.62671 -2.16649 0)
(8.48371 -2.02176 0)
(8.38254 -1.90157 0)
(8.27659 -1.77536 0)
(8.19173 -1.64856 0)
(8.11763 -1.51662 0)
(8.047 -1.37727 0)
(7.98505 -1.24722 0)
(7.93453 -1.12489 0)
(7.859 -0.987964 0)
(7.79009 -0.848711 0)
(7.69363 -0.709607 0)
(7.59255 -0.550976 0)
(7.46863 -0.4016 0)
(7.35394 -0.269277 0)
(7.25321 -0.153645 0)
(7.14734 -0.0527926 0)
(7.04361 0.0325655 0)
(6.93817 0.107004 0)
(6.84245 0.163814 0)
(6.74791 0.207765 0)
(6.6589 0.25035 0)
(6.59646 0.29163 0)
(6.54137 0.322849 0)
(6.50998 0.340963 0)
(6.47053 0.350207 0)
(6.4377 0.352716 0)
(6.41654 0.378961 0)
(6.4037 0.417204 0)
(6.39854 0.451173 0)
(6.38181 0.490409 0)
(6.39349 0.526652 0)
(6.38615 0.555943 0)
(6.3843 0.575799 0)
(6.40229 0.589924 0)
(6.41117 0.593618 0)
(6.4256 0.589917 0)
(6.42928 0.589079 0)
(6.41011 0.598613 0)
(6.40326 0.60851 0)
(6.38319 0.602567 0)
(6.39177 0.612083 0)
(6.3711 0.598565 0)
(6.4029 0.591403 0)
(6.40783 0.563742 0)
(6.42397 0.558922 0)
(6.44766 0.518452 0)
(6.47038 0.49174 0)
(6.52507 0.456656 0)
(6.54541 0.437888 0)
(6.62765 0.392794 0)
(6.64455 0.374497 0)
(6.69886 0.334867 0)
(6.68307 0.331748 0)
(6.7397 0.281369 0)
(6.72246 0.285896 0)
(6.78762 0.245514 0)
(6.73949 0.260613 0)
(6.81486 0.199464 0)
(6.72914 0.210607 0)
(6.81239 0.164997 0)
(6.69101 0.194738 0)
(6.77167 0.136535 0)
(6.63481 0.159736 0)
(6.7145 0.106557 0)
(6.55278 0.141062 0)
(6.6696 0.0914903 0)
(6.47453 0.140719 0)
(6.62932 0.10629 0)
(6.40048 0.156565 0)
(6.56436 0.108839 0)
(6.35562 0.164173 0)
(6.50159 0.112095 0)
(6.33995 0.186339 0)
(6.45408 0.14626 0)
(6.31432 0.251085 0)
(6.42982 0.202001 0)
(6.28989 0.319318 0)
(6.41101 0.251867 0)
(6.24777 0.382328 0)
(6.36569 0.298367 0)
(6.20246 0.429149 0)
(6.31686 0.331834 0)
(6.21085 0.463504 0)
(6.28941 0.355807 0)
(6.24461 0.466213 0)
(6.2879 0.35109 0)
(6.292 0.448929 0)
(6.28454 0.313094 0)
(6.32927 0.397121 0)
(6.25131 0.263286 0)
(6.35604 0.336618 0)
(6.24202 0.221281 0)
(6.35028 0.30008 0)
(6.27444 0.179353 0)
(6.34405 0.271958 0)
(6.31685 0.146449 0)
(6.37078 0.232518 0)
(6.35448 0.123704 0)
(6.4077 0.188245 0)
(6.41484 0.113285 0)
(6.43953 0.163481 0)
(6.47436 0.100277 0)
(6.49226 0.141306 0)
(6.52484 0.0924435 0)
(6.54427 0.132545 0)
(6.55414 0.0873149 0)
(6.59863 0.11636 0)
(6.57547 0.0624616 0)
(6.65115 0.10256 0)
(6.57782 0.034582 0)
(6.69714 0.0938213 0)
(6.57438 0.0289679 0)
(6.73174 0.106443 0)
(6.58257 0.0392588 0)
(6.73383 0.130505 0)
(6.59296 0.057755 0)
(6.70097 0.161361 0)
(6.59084 0.0886943 0)
(6.64868 0.200766 0)
(6.56783 0.149833 0)
(6.58462 0.275239 0)
(6.53002 0.248545 0)
(6.53397 0.386775 0)
(6.53467 0.388549 0)
(6.50601 0.547163 0)
(6.54144 0.573818 0)
(6.46908 0.744743 0)
(6.56781 0.772168 0)
(6.43602 0.958372 0)
(6.61262 0.98359 0)
(6.39609 1.19199 0)
(6.64879 1.20483 0)
(6.37933 1.44835 0)
(6.65114 1.43654 0)
(6.37121 1.71683 0)
(6.62938 1.68639 0)
(6.34864 1.99305 0)
(6.58175 1.96249 0)
(6.29718 2.28834 0)
(6.54123 2.28675 0)
(6.23549 2.65608 0)
(6.48464 2.69665 0)
(6.19994 3.12877 0)
(6.44838 3.23219 0)
(6.17506 3.74351 0)
(6.27212 3.99299 0)
(6.00749 4.67527 0)
(6.13764 5.06509 0)
(5.57688 6.3183 0)
(7.02772 6.70729 0)
(4.65214 10.8192 0)
(5.94489 -0.258229 0)
(6.06389 -0.323225 0)
(6.26945 -0.421239 0)
(6.49335 -0.520055 0)
(6.72744 -0.604529 0)
(6.94457 -0.685181 0)
(7.1443 -0.750665 0)
(7.30557 -0.822656 0)
(7.48978 -0.900517 0)
(7.63816 -0.959226 0)
(7.82786 -1.0165 0)
(7.99518 -1.05631 0)
(8.14756 -1.09098 0)
(8.30387 -1.11964 0)
(8.49838 -1.14967 0)
(8.70087 -1.18448 0)
(8.90445 -1.24144 0)
(9.11557 -1.32798 0)
(9.28768 -1.44332 0)
(9.42962 -1.5794 0)
(9.56525 -1.71744 0)
(9.70005 -1.8504 0)
(9.81949 -1.98842 0)
(9.92603 -2.11633 0)
(9.98948 -2.24001 0)
(10.0382 -2.35908 0)
(10.0452 -2.4628 0)
(10.0581 -2.55667 0)
(10.0481 -2.62671 0)
(10.0372 -2.67383 0)
(9.99109 -2.71439 0)
(9.95624 -2.75565 0)
(9.90228 -2.78265 0)
(9.83683 -2.80315 0)
(9.76499 -2.81203 0)
(9.68907 -2.82761 0)
(9.6168 -2.85677 0)
(9.54623 -2.88609 0)
(9.48421 -2.894 0)
(9.42963 -2.86992 0)
(9.36961 -2.83595 0)
(9.29867 -2.78736 0)
(9.22351 -2.73274 0)
(9.15079 -2.68277 0)
(9.07851 -2.616 0)
(8.98504 -2.52224 0)
(8.87552 -2.40017 0)
(8.74609 -2.26278 0)
(8.57842 -2.10479 0)
(8.44009 -1.97125 0)
(8.32976 -1.85606 0)
(8.2144 -1.73613 0)
(8.12739 -1.61646 0)
(8.04216 -1.48498 0)
(7.96472 -1.34835 0)
(7.89948 -1.22131 0)
(7.84109 -1.09759 0)
(7.75455 -0.955291 0)
(7.67301 -0.810035 0)
(7.56771 -0.663707 0)
(7.46598 -0.501267 0)
(7.34462 -0.355528 0)
(7.24382 -0.224857 0)
(7.15018 -0.110588 0)
(7.0496 -0.0108104 0)
(6.95174 0.0748399 0)
(6.84844 0.149734 0)
(6.75131 0.205337 0)
(6.65952 0.246534 0)
(6.57209 0.284465 0)
(6.50887 0.317231 0)
(6.4545 0.341963 0)
(6.42317 0.354633 0)
(6.38805 0.363709 0)
(6.35489 0.367146 0)
(6.32901 0.389283 0)
(6.31097 0.424783 0)
(6.30545 0.457787 0)
(6.28518 0.495006 0)
(6.29531 0.528954 0)
(6.28851 0.557444 0)
(6.27851 0.574269 0)
(6.29625 0.583687 0)
(6.30925 0.587605 0)
(6.32067 0.587234 0)
(6.3267 0.592064 0)
(6.30578 0.605826 0)
(6.2992 0.615434 0)
(6.28183 0.606258 0)
(6.28849 0.615653 0)
(6.276 0.593632 0)
(6.3099 0.584964 0)
(6.31578 0.556367 0)
(6.34068 0.551895 0)
(6.37192 0.505642 0)
(6.38906 0.477728 0)
(6.4517 0.439411 0)
(6.46744 0.418721 0)
(6.55648 0.369919 0)
(6.56889 0.361955 0)
(6.63145 0.325835 0)
(6.60704 0.327195 0)
(6.67608 0.273508 0)
(6.64506 0.278939 0)
(6.72913 0.238423 0)
(6.67223 0.258401 0)
(6.76898 0.196718 0)
(6.67568 0.217369 0)
(6.76522 0.170196 0)
(6.64022 0.209072 0)
(6.72055 0.143738 0)
(6.5803 0.178376 0)
(6.66285 0.117332 0)
(6.49176 0.156418 0)
(6.61299 0.101746 0)
(6.41667 0.156689 0)
(6.56528 0.117885 0)
(6.35196 0.172839 0)
(6.49091 0.117746 0)
(6.31643 0.179386 0)
(6.42347 0.117138 0)
(6.30004 0.196281 0)
(6.37741 0.1509 0)
(6.2778 0.258571 0)
(6.35096 0.204658 0)
(6.25959 0.327315 0)
(6.32419 0.254838 0)
(6.22455 0.394925 0)
(6.27251 0.30449 0)
(6.18499 0.44073 0)
(6.21947 0.329384 0)
(6.20587 0.46891 0)
(6.1936 0.347693 0)
(6.26433 0.4678 0)
(6.19344 0.337528 0)
(6.33211 0.452889 0)
(6.19175 0.301987 0)
(6.38492 0.411018 0)
(6.15781 0.250864 0)
(6.42864 0.351297 0)
(6.1274 0.211195 0)
(6.44275 0.308046 0)
(6.1469 0.16534 0)
(6.44012 0.277732 0)