/*--------------------------------*- C++ -*----------------------------------*\
| =========                 |                                                 |
| \\      /  F ield         | OpenFOAM: The Open Source CFD Toolbox           |
|  \\    /   O peration     | Version:  2.4.0                                 |
|   \\  /    A nd           | Web:      www.OpenFOAM.org                      |
|    \\/     M anipulation  |                                                 |
\*---------------------------------------------------------------------------*/
FoamFile
{
    version     2.0;
    format      ascii;
    class       surfaceScalarField;
    location    "0.196";
    object      phi;
}
// * * * * * * * * * * * * * * * * * * * * * * * * * * * * * * * * * * * * * //

dimensions      [0 3 -1 0 0 0 0];

internalField   nonuniform List<scalar> 
8640
(
1.14663e-05
1.35337e-05
7.17488e-06
4.29138e-06
5.91778e-06
1.2571e-06
5.3764e-06
5.41383e-07
5.08661e-06
2.89788e-07
4.96333e-06
1.23282e-07
4.82696e-06
1.36365e-07
4.80105e-06
2.59136e-08
4.57169e-06
2.29355e-07
-1.46805e-06
6.03975e-06
2.10514e-05
1.74823e-05
1.74504e-05
7.89237e-06
1.55151e-05
3.19246e-06
1.42661e-05
1.7903e-06
1.34727e-05
1.08325e-06
1.30735e-05
5.22447e-07
1.26795e-05
5.30438e-07
1.25993e-05
1.06041e-07
1.23351e-05
4.93559e-07
-1.71794e-06
1.2585e-05
2.5703e-05
1.67793e-05
2.41006e-05
9.49478e-06
2.26137e-05
4.67939e-06
2.12509e-05
3.15302e-06
2.02028e-05
2.13143e-06
1.96277e-05
1.09748e-06
1.90572e-05
1.10097e-06
1.88708e-05
2.92424e-07
1.86645e-05
6.99899e-07
-1.77119e-06
1.87177e-05
2.7467e-05
1.43124e-05
2.77314e-05
9.23039e-06
2.73727e-05
5.03808e-06
2.65469e-05
3.97882e-06
2.56264e-05
3.05185e-06
2.50624e-05
1.66154e-06
2.44627e-05
1.70064e-06
2.41706e-05
5.84554e-07
2.39937e-05
8.76803e-07
-1.73829e-06
2.39608e-05
2.76715e-05
1.16409e-05
2.88999e-05
8.00196e-06
2.96081e-05
4.32987e-06
2.97094e-05
3.87749e-06
2.93631e-05
3.39821e-06
2.90831e-05
1.94148e-06
2.86781e-05
2.10563e-06
2.83911e-05
8.71572e-07
2.82966e-05
9.71318e-07
-1.57925e-06
2.81376e-05
2.75272e-05
9.11371e-06
2.89379e-05
6.59122e-06
3.0003e-05
3.26479e-06
3.07232e-05
3.15726e-06
3.10925e-05
3.02896e-06
3.13022e-05
1.73172e-06
3.13177e-05
2.09015e-06
3.12232e-05
9.66132e-07
3.13702e-05
8.24325e-07
-8.7945e-07
3.06704e-05
2.74017e-05
6.71203e-06
2.89053e-05
5.08757e-06
2.98943e-05
2.27585e-06
3.066e-05
2.39156e-06
3.14164e-05
2.27249e-06
3.19185e-05
1.22968e-06
3.22797e-05
1.72892e-06
3.24703e-05
7.75504e-07
3.29705e-05
3.24128e-07
-1.42942e-07
3.2234e-05
2.7326e-05
4.38607e-06
2.90545e-05
3.35901e-06
2.9747e-05
1.58338e-06
3.04971e-05
1.64148e-06
3.13351e-05
1.43442e-06
3.18586e-05
7.06244e-07
3.24044e-05
1.18307e-06
3.28006e-05
3.7929e-07
3.34191e-05
-2.94358e-07
-1.29094e-06
3.45671e-05
2.72757e-05
2.11041e-06
2.89437e-05
1.69102e-06
2.96543e-05
8.72768e-07
3.05099e-05
7.85868e-07
3.12227e-05
7.2162e-07
3.17788e-05
1.50112e-07
3.23672e-05
5.94665e-07
3.27656e-05
-1.91084e-08
3.33794e-05
-9.08172e-07
-2.2613e-06
3.43498e-05
2.72022e-05
-9.17908e-08
2.88883e-05
4.90376e-09
2.96816e-05
7.94932e-08
3.05103e-05
-4.28494e-08
3.11823e-05
4.9667e-08
3.17179e-05
-3.85502e-07
3.22562e-05
5.63565e-08
3.27676e-05
-5.30576e-07
3.33529e-05
-1.49339e-06
-2.79432e-06
3.38859e-05
2.72125e-05
-2.30428e-06
2.89209e-05
-1.70354e-06
2.96597e-05
-6.59223e-07
3.04655e-05
-8.48716e-07
3.11687e-05
-6.53471e-07
3.17292e-05
-9.46003e-07
3.23053e-05
-5.19836e-07
3.28027e-05
-1.02794e-06
3.32175e-05
-1.90814e-06
-3.22291e-06
3.3646e-05
2.72675e-05
-4.5718e-06
2.89156e-05
-3.35164e-06
2.96559e-05
-1.39951e-06
3.04979e-05
-1.6907e-06
3.12425e-05
-1.39813e-06
3.17864e-05
-1.4899e-06
3.23114e-05
-1.04484e-06
3.27687e-05
-1.4852e-06
3.31914e-05
-2.3308e-06
-3.77519e-06
3.37436e-05
2.7312e-05
-6.88383e-06
2.89305e-05
-4.97014e-06
2.97558e-05
-2.22475e-06
3.05831e-05
-2.51803e-06
3.12973e-05
-2.11236e-06
3.17955e-05
-1.98807e-06
3.23433e-05
-1.59259e-06
3.27924e-05
-1.93433e-06
3.32141e-05
-2.75246e-06
-4.16955e-06
3.36084e-05
2.73725e-05
-9.25633e-06
2.88563e-05
-6.45393e-06
2.98798e-05
-3.24822e-06
3.06795e-05
-3.31774e-06
3.13776e-05
-2.81053e-06
3.1817e-05
-2.42746e-06
3.22617e-05
-2.03729e-06
3.25062e-05
-2.1788e-06
3.26911e-05
-2.93742e-06
-4.2026e-06
3.27242e-05
2.74722e-05
-1.17286e-05
2.89129e-05
-7.89461e-06
3.00029e-05
-4.33821e-06
3.06979e-05
-4.01273e-06
3.11153e-05
-3.22789e-06
3.1212e-05
-2.52423e-06
3.12558e-05
-2.08109e-06
3.11052e-05
-2.02817e-06
3.08864e-05
-2.71864e-06
-3.83448e-06
3.05183e-05
2.76321e-05
-1.43607e-05
2.88998e-05
-9.16228e-06
2.96167e-05
-5.05512e-06
2.96794e-05
-4.07539e-06
2.93945e-05
-2.943e-06
2.89721e-05
-2.10189e-06
2.85831e-05
-1.69211e-06
2.81278e-05
-1.5728e-06
2.76055e-05
-2.19636e-06
-2.56211e-06
2.63331e-05
2.74442e-05
-1.68049e-05
2.77401e-05
-9.45821e-06
2.73757e-05
-4.69066e-06
2.65181e-05
-3.21775e-06
2.56455e-05
-2.07048e-06
2.49327e-05
-1.38906e-06
2.43535e-05
-1.11296e-06
2.38107e-05
-1.02994e-06
2.31653e-05
-1.55101e-06
-1.66156e-06
2.22648e-05
2.56889e-05
-1.74938e-05
2.4108e-05
-7.87732e-06
2.26128e-05
-3.19552e-06
2.12253e-05
-1.83021e-06
2.02061e-05
-1.05125e-06
1.94999e-05
-6.82883e-07
1.89427e-05
-5.55806e-07
1.84504e-05
-5.37592e-07
1.77707e-05
-8.71333e-07
-8.34575e-07
1.69437e-05
2.10431e-05
-1.35369e-05
1.74541e-05
-4.28827e-06
1.55144e-05
-1.25585e-06
1.4243e-05
-5.58848e-07
1.34682e-05
-2.76448e-07
1.29661e-05
-1.80763e-07
1.2566e-05
-1.55652e-07
1.21955e-05
-1.67175e-07
1.16186e-05
-2.94422e-07
-2.68558e-07
1.10526e-05
1.14631e-05
7.17483e-06
5.91899e-06
5.36014e-06
5.08369e-06
4.90293e-06
4.74727e-06
4.5801e-06
4.28568e-06
4.01712e-06
6.98506e-06
1.40545e-07
-1.08585e-06
7.94561e-06
-1.55901e-06
5.98461e-07
8.98581e-06
-1.0217e-06
-1.85021e-08
9.07522e-06
-1.08502e-06
9.95614e-07
9.76658e-06
-6.8465e-07
-6.71395e-09
9.73604e-06
1.41086e-07
-1.10542e-07
9.73895e-06
-2.22676e-06
2.22385e-06
9.87715e-06
-2.48612e-06
2.34792e-06
9.86382e-06
-1.9965e-06
2.00982e-06
1.03976e-05
-2.34424e-06
1.81048e-06
1.11763e-05
-2.31098e-07
-5.47658e-07
1.23329e-05
2.08216e-06
-3.2387e-06
1.45823e-05
3.34448e-06
-5.59389e-06
1.76353e-05
5.41265e-06
-8.46568e-06
1.99881e-05
5.01691e-06
-7.36964e-06
2.14468e-05
1.7263e-06
-3.18506e-06
2.24746e-05
-2.0151e-06
9.87344e-07
2.33915e-05
-5.77096e-06
4.85406e-06
2.44956e-05
-1.0509e-05
9.40489e-06
2.6101e-05
-1.50612e-05
1.34559e-05
2.78455e-05
-1.75315e-05
1.5787e-05
2.97669e-05
-2.13527e-05
1.94313e-05
3.11658e-05
-2.38163e-05
2.24174e-05
3.17316e-05
-2.26312e-05
2.20654e-05
3.25721e-05
-2.24312e-05
2.15907e-05
3.29796e-05
-2.22522e-05
2.18448e-05
3.21347e-05
-2.07942e-05
2.16391e-05
3.09383e-05
-1.75532e-05
1.87496e-05
2.94388e-05
-1.27104e-05
1.42099e-05
2.817e-05
-6.21708e-06
7.48584e-06
2.74937e-05
1.23168e-06
-5.55356e-07
2.66635e-05
7.4747e-06
-6.64447e-06
2.636e-05
1.31029e-05
-1.27994e-05
2.7268e-05
1.90616e-05
-1.99696e-05
2.85174e-05
2.26995e-05
-2.39489e-05
2.89157e-05
2.14646e-05
-2.18629e-05
2.83958e-05
1.50054e-05
-1.44856e-05
2.78026e-05
7.95408e-06
-7.36082e-06
2.71278e-05
5.98759e-06
-5.31277e-06
2.61973e-05
2.13575e-07
7.16842e-07
2.5366e-05
-1.20431e-05
1.28745e-05
2.40325e-05
-1.75554e-05
1.88889e-05
2.20988e-05
-1.69697e-05
1.89034e-05
2.0148e-05
-1.96735e-05
2.16243e-05
1.91677e-05
-1.99239e-05
2.09041e-05
1.88475e-05
-1.11502e-05
1.14704e-05
1.81796e-05
-2.52575e-06
3.19364e-06
1.74491e-05
-3.50663e-06
4.2371e-06
1.54818e-05
-1.66117e-05
1.85791e-05
1.31059e-05
-3.72934e-05
3.96692e-05
1.19898e-05
-5.13796e-05
5.24957e-05
1.21909e-05
-5.6385e-05
5.61839e-05
1.33072e-05
-5.32571e-05
5.21408e-05
1.47334e-05
-4.14289e-05
4.00027e-05
1.52429e-05
-2.86013e-05
2.80919e-05
1.60573e-05
-9.19416e-06
8.37975e-06
1.67114e-05
1.22818e-05
-1.29359e-05
1.69397e-05
2.19356e-05
-2.2164e-05
1.91624e-05
2.50362e-05
-2.72589e-05
2.29085e-05
3.51176e-05
-3.88637e-05
2.61361e-05
4.78703e-05
-5.10979e-05
2.70617e-05
5.70998e-05
-5.80255e-05
2.58585e-05
5.68481e-05
-5.56449e-05
2.34765e-05
5.0341e-05
-4.79589e-05
2.08836e-05
3.94713e-05
-3.68784e-05
1.73924e-05
3.16095e-05
-2.81183e-05
1.54182e-05
1.91543e-05
-1.71801e-05
1.35235e-05
1.80498e-05
-1.6155e-05
1.22866e-05
6.0172e-06
-4.78031e-06
1.21513e-05
8.37134e-06
-8.23603e-06
1.1979e-05
-2.42458e-06
2.59686e-06
1.31329e-05
7.09391e-07
-1.86328e-06
1.27355e-05
-3.47416e-06
3.8715e-06
1.65553e-05
-8.25744e-07
-2.99404e-06
1.89743e-05
3.02925e-06
-5.44819e-06
2.01361e-05
2.27659e-06
-3.43843e-06
2.1936e-05
1.4923e-06
-3.29221e-06
2.35032e-05
4.40645e-06
-5.97361e-06
2.43504e-05
-1.49455e-06
6.47292e-07
2.52774e-05
-3.84752e-06
2.92056e-06
2.44285e-05
-9.64221e-06
1.04911e-05
2.28778e-05
-1.44252e-05
1.59758e-05
2.1411e-05
-1.57084e-05
1.71752e-05
2.03963e-05
-1.6323e-05
1.73377e-05
2.00424e-05
-2.05002e-05
2.08541e-05
1.92984e-05
-8.42377e-06
9.1678e-06
2.02259e-05
-1.06373e-05
9.70983e-06
1.96562e-05
-1.40416e-05
1.46112e-05
1.93957e-05
-1.92905e-05
1.95511e-05
1.78626e-05
-6.8684e-06
8.40146e-06
1.72513e-05
-3.2594e-06
3.87077e-06
1.69859e-05
4.51969e-07
-1.86583e-07
1.92004e-05
1.37141e-06
-3.58589e-06
1.87971e-05
6.5398e-06
-6.13649e-06
2.02551e-05
4.72457e-06
-6.18264e-06
1.90431e-05
1.47186e-05
-1.35066e-05
1.99431e-05
1.78238e-05
-1.87238e-05
1.77575e-05
3.45117e-05
-3.23261e-05
1.76294e-05
4.36337e-05
-4.35056e-05
7.64916e-05
-7.44245e-05
1.55623e-05
1.31012e-05
-3.75642e-07
1.37036e-05
-2.16138e-06
1.45336e-05
-1.85179e-06
1.44583e-05
-1.00966e-06
1.50126e-05
-1.23901e-06
1.52685e-05
-1.14759e-07
1.48939e-05
-1.85219e-06
1.53438e-05
-2.936e-06
1.54176e-05
-2.07026e-06
1.54224e-05
-2.34907e-06
1.61135e-05
-9.22241e-07
1.67874e-05
1.40832e-06
1.78309e-05
2.30093e-06
1.99214e-05
3.3222e-06
2.22108e-05
2.7275e-06
2.37795e-05
1.57551e-07
2.51083e-05
-3.34388e-06
2.68723e-05
-7.53498e-06
2.83356e-05
-1.19723e-05
2.98892e-05
-1.66148e-05
3.13043e-05
-1.89467e-05
3.22959e-05
-2.23443e-05
3.30861e-05
-2.46065e-05
3.31471e-05
-2.26922e-05
3.34299e-05
-2.2714e-05
3.34491e-05
-2.22714e-05
3.23416e-05
-1.96867e-05
3.10942e-05
-1.63058e-05
2.99532e-05
-1.15694e-05
2.89552e-05
-5.21911e-06
2.83995e-05
1.78738e-06
2.78764e-05
7.99775e-06
2.73954e-05
1.3584e-05
2.77633e-05
1.86936e-05
2.88388e-05
2.16241e-05
2.94369e-05
2.08665e-05
2.91199e-05
1.53224e-05
2.85373e-05
8.53666e-06
2.79487e-05
6.57613e-06
2.7212e-05
9.50342e-07
2.63438e-05
-1.1175e-05
2.48435e-05
-1.60551e-05
2.27877e-05
-1.4914e-05
2.08984e-05
-1.77841e-05
1.9748e-05
-1.87734e-05
1.92592e-05
-1.06614e-05
1.84893e-05
-1.75583e-06
1.77048e-05
-2.72215e-06
1.56891e-05
-1.4596e-05
1.27963e-05
-3.44006e-05
1.13012e-05
-4.98845e-05
1.12427e-05
-5.63264e-05
1.1936e-05
-5.39505e-05
1.32459e-05
-4.27388e-05
1.37779e-05
-2.91333e-05
1.45027e-05
-9.91904e-06
1.54914e-05
1.12932e-05
1.56643e-05
2.17627e-05
1.73295e-05
2.3371e-05
2.105e-05
3.1397e-05
2.48749e-05
4.40454e-05
2.66894e-05
5.52854e-05
2.61578e-05
5.73797e-05
2.41166e-05
5.23822e-05
2.21945e-05
4.13934e-05
1.92881e-05
3.45159e-05
1.69804e-05
2.1462e-05
1.50975e-05
1.99327e-05
1.3698e-05
7.41664e-06
1.40182e-05
8.05117e-06
1.34315e-05
-1.8379e-06
1.52144e-05
-1.0735e-06
1.47765e-05
-3.03624e-06
1.70725e-05
-3.12175e-06
2.02922e-05
-1.90397e-07
2.15376e-05
1.03112e-06
2.28736e-05
1.56322e-07
2.45513e-05
2.72881e-06
2.53616e-05
-2.30492e-06
2.61337e-05
-4.61959e-06
2.51944e-05
-8.70291e-06
2.36659e-05
-1.28966e-05
2.24541e-05
-1.44966e-05
2.16712e-05
-1.554e-05
2.10199e-05
-1.98489e-05
2.02907e-05
-7.69456e-06
2.1176e-05
-1.15227e-05
2.04225e-05
-1.3288e-05
1.9779e-05
-1.86471e-05
1.79873e-05
-5.07676e-06
1.81862e-05
-3.45829e-06
1.73887e-05
1.24949e-06
2.01401e-05
-1.38004e-06
1.92744e-05
7.4055e-06
2.1467e-05
2.53203e-06
1.97212e-05
1.64644e-05
2.1756e-05
1.5789e-05
2.01034e-05
3.61643e-05
2.36899e-05
4.00472e-05
7.793e-05
2.22515e-05
1.90809e-05
-7.38801e-07
1.928e-05
-2.3605e-06
1.98705e-05
-2.44225e-06
1.9859e-05
-9.98176e-07
1.99111e-05
-1.29114e-06
2.05056e-05
-7.09242e-07
2.01262e-05
-1.47282e-06
2.01727e-05
-2.98252e-06
2.07458e-05
-2.64331e-06
2.07586e-05
-2.36191e-06
2.1128e-05
-1.29161e-06
2.20055e-05
5.30828e-07
2.2805e-05
1.50145e-06
2.39768e-05
2.15032e-06
2.58434e-05
8.60927e-07
2.74357e-05
-1.4347e-06
2.87453e-05
-4.65347e-06
3.04845e-05
-9.27421e-06
3.17332e-05
-1.3221e-05
3.27439e-05
-1.76255e-05
3.36868e-05
-1.98896e-05
3.39928e-05
-2.26503e-05
3.42653e-05
-2.4879e-05
3.4073e-05
-2.24999e-05
3.39132e-05
-2.25542e-05
3.36432e-05
-2.20013e-05
3.25694e-05
-1.8613e-05
3.15756e-05
-1.5312e-05
3.07241e-05
-1.07178e-05
2.96938e-05
-4.18877e-06
2.89682e-05
2.51296e-06
2.86081e-05
8.3578e-06
2.81723e-05
1.40198e-05
2.82081e-05
1.86579e-05
2.89507e-05
2.08814e-05
2.94754e-05
2.03418e-05
2.93772e-05
1.54207e-05
2.89408e-05
8.97308e-06
2.84903e-05
7.02658e-06
2.79462e-05
1.49448e-06
2.69824e-05
-1.02112e-05
2.53591e-05
-1.44318e-05
2.33168e-05
-1.28717e-05
2.16215e-05
-1.60888e-05
2.03106e-05
-1.74626e-05
1.9508e-05
-9.85883e-06
1.8669e-05
-9.16816e-07
1.77435e-05
-1.79667e-06
1.5714e-05
-1.25665e-05
1.25585e-05
-3.12451e-05
1.06866e-05
-4.80126e-05
1.02221e-05
-5.58619e-05
1.05145e-05
-5.42429e-05
1.16026e-05
-4.38269e-05
1.222e-05
-2.97507e-05
1.28697e-05
-1.05687e-05
1.40457e-05
1.01172e-05
1.44568e-05
2.13515e-05
1.59226e-05
2.19053e-05
1.93673e-05
2.79523e-05
2.31899e-05
4.02228e-05
2.58359e-05
5.26394e-05
2.627e-05
5.69456e-05
2.46831e-05
5.39691e-05
2.31892e-05
4.28873e-05
2.11198e-05
3.65853e-05
1.92444e-05
2.33374e-05
1.75478e-05
2.16293e-05
1.5456e-05
9.50841e-06
1.59317e-05
7.57547e-06
1.52385e-05
-1.14474e-06
1.69697e-05
-2.80472e-06
1.69911e-05
-3.05763e-06
1.79462e-05
-4.07683e-06
2.1201e-05
-3.44518e-06
2.2787e-05
-5.54926e-07
2.39091e-05
-9.6572e-07
2.55323e-05
1.10562e-06
2.62162e-05
-2.98883e-06
2.67872e-05
-5.19055e-06
2.58624e-05
-7.77817e-06
2.4428e-05
-1.14622e-05
2.33837e-05
-1.34523e-05
2.26255e-05
-1.47819e-05
2.17005e-05
-1.89239e-05
2.14065e-05
-7.40063e-06
2.21565e-05
-1.22727e-05
2.11624e-05
-1.22939e-05
2.02506e-05
-1.77353e-05
1.80919e-05
-2.91803e-06
1.89479e-05
-4.31429e-06
1.77711e-05
2.42632e-06
2.09316e-05
-4.54053e-06
1.95719e-05
8.76515e-06
2.24038e-05
-2.99861e-07
2.04798e-05
1.83884e-05
2.36323e-05
1.26366e-05
2.23289e-05
3.74676e-05
2.81724e-05
3.42037e-05
7.8652e-05
2.74505e-05
2.45679e-05
-1.34594e-06
2.47744e-05
-2.56701e-06
2.48067e-05
-2.47455e-06
2.49424e-05
-1.13384e-06
2.45534e-05
-9.02162e-07
2.47316e-05
-8.87376e-07
2.47861e-05
-1.52733e-06
2.44889e-05
-2.68541e-06
2.49814e-05
-3.13576e-06
2.5367e-05
-2.74752e-06
2.56084e-05
-1.53302e-06
2.65509e-05
-4.11622e-07
2.74783e-05
5.74051e-07
2.83508e-05
1.27785e-06
2.98609e-05
-6.49167e-07
3.13304e-05
-2.90423e-06
3.24488e-05
-5.77185e-06
3.36626e-05
-1.0488e-05
3.43924e-05
-1.39508e-05
3.48464e-05
-1.80795e-05
3.52124e-05
-2.02557e-05
3.48389e-05
-2.22767e-05
3.45875e-05
-2.46276e-05
3.42764e-05
-2.21889e-05
3.38689e-05
-2.21467e-05
3.34649e-05
-2.15973e-05
3.27366e-05
-1.78847e-05
3.23328e-05
-1.49082e-05
3.18891e-05
-1.02741e-05
3.10653e-05
-3.365e-06
3.01409e-05
3.43731e-06
2.9364e-05
9.13476e-06
2.85339e-05
1.48498e-05
2.83383e-05
1.88535e-05
2.88742e-05
2.03456e-05
2.93169e-05
1.98991e-05
2.9394e-05
1.53436e-05
2.90207e-05
9.34634e-06
2.86978e-05
7.34947e-06
2.83296e-05
1.86275e-06
2.72892e-05
-9.17086e-06
2.55558e-05
-1.26984e-05
2.36233e-05
-1.09392e-05
2.21488e-05
-1.46143e-05
2.07886e-05
-1.61023e-05
1.97385e-05
-8.80878e-06
1.88611e-05
-3.94223e-08
1.76837e-05
-6.19243e-07
1.56194e-05
-1.05023e-05
1.25146e-05
-2.81402e-05
1.03211e-05
-4.58191e-05
9.37793e-06
-5.49187e-05
9.1756e-06
-5.40406e-05
9.89994e-06
-4.45512e-05
1.05165e-05
-3.03673e-05
1.12624e-05
-1.13146e-05
1.27293e-05
8.65028e-06
1.35134e-05
2.05674e-05
1.45977e-05
2.0821e-05
1.76949e-05
2.48552e-05
2.16015e-05
3.63162e-05
2.47367e-05
4.95041e-05
2.60303e-05
5.56521e-05
2.50455e-05
5.49539e-05
2.36463e-05
4.42865e-05
2.21361e-05
3.80955e-05
2.1028e-05
2.44455e-05
2.02798e-05
2.23776e-05
1.81304e-05
1.16578e-05
1.82418e-05
7.46401e-06
1.75327e-05
-4.35604e-07
1.87938e-05
-4.06578e-06
1.92945e-05
-3.5584e-06
1.93483e-05
-4.13062e-06
2.19751e-05
-6.07198e-06
2.38107e-05
-2.39047e-06
2.4813e-05
-1.96804e-06
2.64759e-05
-5.5729e-07
2.71297e-05
-3.64261e-06
2.73369e-05
-5.39782e-06
2.64313e-05
-6.87256e-06
2.52515e-05
-1.02824e-05
2.44896e-05
-1.26905e-05
2.37771e-05
-1.40694e-05
2.24712e-05
-1.76179e-05
2.24609e-05
-7.39035e-06
2.27817e-05
-1.25935e-05
2.1822e-05
-1.13342e-05
2.0732e-05
-1.66452e-05
1.82719e-05
-4.57947e-07
1.94547e-05
-5.49712e-06
1.81826e-05
3.69845e-06
2.13876e-05
-7.74558e-06
2.02401e-05
9.91271e-06
2.35937e-05
-3.65348e-06
2.1406e-05
2.05761e-05
2.58162e-05
8.22629e-06
2.39343e-05
3.93495e-05
3.11638e-05
2.69742e-05
7.81258e-05
3.169e-05
2.85733e-05
-1.7817e-06
2.91383e-05
-3.13201e-06
2.90622e-05
-2.39845e-06
2.91798e-05
-1.25139e-06
2.87599e-05
-4.82305e-07
2.84844e-05
-6.11892e-07
2.86079e-05
-1.65081e-06
2.82814e-05
-2.35892e-06
2.84845e-05
-3.33884e-06
2.89841e-05
-3.24716e-06
2.92e-05
-1.74885e-06
2.99617e-05
-1.17336e-06
3.10248e-05
-4.89029e-07
3.18612e-05
4.41386e-07
3.29711e-05
-1.75904e-06
3.42174e-05
-4.15055e-06
3.50949e-05
-6.6493e-06
3.57165e-05
-1.11096e-05
3.58535e-05
-1.40878e-05
3.56768e-05
-1.79028e-05
3.56156e-05
-2.01945e-05
3.48251e-05
-2.14861e-05
3.41855e-05
-2.3988e-05
3.40263e-05
-2.20297e-05
3.36966e-05
-2.1817e-05
3.34723e-05
-2.1373e-05
3.31649e-05
-1.75773e-05
3.31047e-05
-1.48479e-05
3.26315e-05
-9.80092e-06
3.18371e-05
-2.57061e-06
3.11312e-05
4.14318e-06
3.00778e-05
1.01881e-05
2.87203e-05
1.62074e-05
2.82306e-05
1.93432e-05
2.85853e-05
1.99909e-05
2.90009e-05
1.94835e-05
2.91852e-05
1.51594e-05
2.87673e-05
9.76421e-06
2.84908e-05
7.62595e-06
2.82957e-05
2.05785e-06
2.71938e-05
-8.06888e-06
2.54338e-05
-1.09385e-05
2.38276e-05
-9.33294e-06
2.26565e-05
-1.34432e-05
2.12627e-05
-1.47085e-05
1.99107e-05
-7.45679e-06
1.8913e-05
9.58266e-07
1.75785e-05
7.15274e-07
1.54018e-05
-8.32556e-06
1.23244e-05
-2.50628e-05
9.88406e-06
-4.33787e-05
8.48974e-06
-5.35244e-05
7.84318e-06
-5.3394e-05
8.24865e-06
-4.49567e-05
8.78796e-06
-3.09066e-05
9.66697e-06
-1.21936e-05
1.12286e-05
7.08862e-06
1.24624e-05
1.93336e-05
1.36201e-05
1.96633e-05
1.6381e-05
2.20943e-05
1.99739e-05
3.27234e-05
2.32026e-05
4.62754e-05
2.52927e-05
5.3562e-05
2.51044e-05
5.51423e-05
2.39932e-05
4.53976e-05
2.28642e-05
3.92245e-05
2.20634e-05
2.52463e-05
2.22468e-05
2.21941e-05
2.09774e-05
1.29272e-05
2.09442e-05
7.49728e-06
2.02631e-05
2.45455e-07
2.07643e-05
-4.56702e-06
2.12765e-05
-4.07056e-06
2.11626e-05
-4.01674e-06
2.26177e-05
-7.52704e-06
2.43703e-05
-4.14307e-06
2.55581e-05
-3.15586e-06
2.73277e-05
-2.32691e-06
2.79734e-05
-4.28829e-06
2.78524e-05
-5.27682e-06
2.69961e-05
-6.01623e-06
2.61033e-05
-9.38958e-06
2.5586e-05
-1.21732e-05
2.48199e-05
-1.33033e-05
2.31549e-05
-1.59529e-05
2.34184e-05
-7.65379e-06
2.32311e-05
-1.24062e-05
2.22891e-05
-1.03922e-05
2.08213e-05
-1.51775e-05
1.85317e-05
1.83169e-06
1.91976e-05
-6.16299e-06
1.81712e-05
4.72483e-06
2.18127e-05
-1.13871e-05
2.11894e-05
1.0536e-05
2.48661e-05
-7.33018e-06
2.24749e-05
2.29674e-05
2.83066e-05
2.39454e-06
2.50884e-05
4.25676e-05
3.29566e-05
1.91061e-05
7.6114e-05
3.49684e-05
3.1139e-05
-2.25031e-06
3.18739e-05
-3.86692e-06
3.18671e-05
-2.39171e-06
3.19619e-05
-1.3461e-06
3.17541e-05
-2.74584e-07
3.13618e-05
-2.196e-07
3.1439e-05
-1.72795e-06
3.12823e-05
-2.20222e-06
3.12049e-05
-3.2614e-06
3.15779e-05
-3.62017e-06
3.18266e-05
-1.99753e-06
3.22922e-05
-1.63898e-06
3.32395e-05
-1.43632e-06
3.407e-05
-3.89109e-07
3.47838e-05
-2.47285e-06
3.5776e-05
-5.14282e-06
3.63101e-05
-7.1834e-06
3.62048e-05
-1.10043e-05
3.60333e-05
-1.39163e-05
3.5579e-05
-1.74484e-05
3.52584e-05
-1.98739e-05
3.44632e-05
-2.0691e-05
3.36665e-05
-2.31913e-05
3.38219e-05
-2.2185e-05
3.37386e-05
-2.17337e-05
3.36345e-05
-2.12688e-05
3.357e-05
-1.75128e-05
3.34873e-05
-1.47653e-05
3.2926e-05
-9.23963e-06
3.21244e-05
-1.76898e-06
3.15192e-05
4.74839e-06
3.02729e-05
1.14345e-05
2.86513e-05
1.78289e-05
2.79034e-05
2.00911e-05
2.79654e-05
1.99289e-05
2.82551e-05
1.91937e-05
2.84638e-05
1.49507e-05
2.81162e-05
1.01118e-05
2.79825e-05
7.7596e-06
2.79424e-05
2.09798e-06
2.68299e-05
-6.95636e-06
2.51785e-05
-9.28709e-06
2.39634e-05
-8.11783e-06
2.30252e-05
-1.25051e-05
2.16698e-05
-1.33531e-05
2.00459e-05
-5.83288e-06
1.88356e-05
2.16857e-06
1.74503e-05
2.10055e-06
1.52273e-05
-6.10255e-06
1.19308e-05
-2.17663e-05
9.02794e-06
-4.04759e-05
7.28343e-06
-5.17799e-05
6.41448e-06
-5.25251e-05
6.64187e-06
-4.51841e-05
6.96337e-06
-3.12281e-05
8.02522e-06
-1.32555e-05
9.82049e-06
5.29335e-06
1.14774e-05
1.76767e-05
1.27699e-05
1.83709e-05
1.49535e-05
1.99106e-05
1.84979e-05
2.91789e-05
2.17963e-05
4.2977e-05
2.43266e-05
5.10317e-05
2.49877e-05
5.44811e-05
2.43707e-05
4.60146e-05
2.34846e-05
4.01106e-05
2.24676e-05
2.62633e-05
2.31111e-05
2.15506e-05
2.29361e-05
1.31022e-05
2.31776e-05
7.25585e-06
2.27852e-05
6.3781e-07
2.2647e-05
-4.42876e-06
2.29026e-05
-4.32614e-06
2.29461e-05
-4.0603e-06
2.32475e-05
-7.82843e-06
2.44748e-05
-5.37034e-06
2.58862e-05
-4.56731e-06
2.77272e-05
-4.1679e-06
2.85745e-05
-5.13555e-06
2.81993e-05
-4.90163e-06
2.747e-05
-5.287e-06
2.68104e-05
-8.72994e-06
2.64101e-05
-1.17729e-05
2.55792e-05
-1.24724e-05
2.3846e-05
-1.42197e-05
2.41542e-05
-7.96205e-06
2.34667e-05
-1.17186e-05
2.27978e-05
-9.7234e-06
2.07968e-05
-1.31764e-05
1.86229e-05
4.00553e-06
1.8553e-05
-6.09301e-06
1.80222e-05
5.25558e-06
2.10836e-05
-1.44485e-05
2.11372e-05
1.04824e-05
2.47649e-05
-1.09579e-05
2.29869e-05
2.47454e-05
3.08348e-05
-5.45334e-06
2.52251e-05
4.81773e-05
3.34975e-05
1.08337e-05
7.27314e-05
3.688e-05
3.25816e-05
-2.59789e-06
3.30716e-05
-4.35694e-06
3.29762e-05
-2.29629e-06
3.29378e-05
-1.30767e-06
3.30012e-05
-3.37964e-07
3.28026e-05
-2.10636e-08
3.29101e-05
-1.83548e-06
3.29973e-05
-2.28942e-06
3.28117e-05
-3.07581e-06
3.29695e-05
-3.77796e-06
3.31932e-05
-2.22122e-06
3.33425e-05
-1.78828e-06
3.39805e-05
-2.07434e-06
3.47902e-05
-1.19871e-06
3.52427e-05
-2.92538e-06
3.58163e-05
-5.71646e-06
3.60881e-05
-7.45516e-06
3.56926e-05
-1.06089e-05
3.54789e-05
-1.37025e-05
3.50406e-05
-1.70102e-05
3.4589e-05
-1.94223e-05
3.40933e-05
-2.01953e-05
3.35037e-05
-2.26018e-05
3.37421e-05
-2.24234e-05
3.36562e-05
-2.16479e-05
3.32942e-05
-2.09067e-05
3.30395e-05
-1.72582e-05
3.25153e-05
-1.4241e-05
3.17287e-05
-8.45307e-06
3.11253e-05
-1.16554e-06
3.07965e-05
5.0772e-06
2.97823e-05
1.24486e-05
2.83472e-05
1.9264e-05
2.73081e-05
2.11301e-05
2.70049e-05
2.02322e-05
2.73126e-05
1.8886e-05
2.74975e-05
1.47658e-05
2.71873e-05
1.0422e-05
2.72279e-05
7.71897e-06
2.73584e-05
1.96754e-06
2.63301e-05
-5.9281e-06
2.49204e-05
-7.87736e-06
2.41482e-05
-7.34563e-06
2.33586e-05
-1.17155e-05
2.19134e-05
-1.19079e-05
2.0044e-05
-3.96352e-06
1.86607e-05
3.5519e-06
1.73321e-05
3.4291e-06
1.51275e-05
-3.89789e-06
1.1626e-05
-1.82649e-05
8.16899e-06
-3.70188e-05
6.05312e-06
-4.9664e-05
5.10211e-06
-5.15741e-05
5.15354e-06
-4.52355e-05
5.27717e-06
-3.13517e-05
6.46033e-06
-1.44386e-05
8.37187e-06
3.38181e-06
1.0439e-05
1.56095e-05
1.22362e-05
1.65737e-05
1.39253e-05
1.82216e-05
1.70312e-05
2.6073e-05
1.99067e-05
4.01014e-05
2.26842e-05
4.82542e-05
2.41412e-05
5.30241e-05
2.43651e-05
4.57907e-05
2.42376e-05
4.02381e-05
2.3241e-05
2.72599e-05
2.36654e-05
2.11262e-05
2.38535e-05
1.29141e-05
2.43659e-05
6.74347e-06
2.45685e-05
4.35172e-07
2.42394e-05
-4.09966e-06
2.42924e-05
-4.37916e-06
2.44719e-05
-4.23982e-06
2.38823e-05
-7.23882e-06
2.43532e-05
-5.84125e-06
2.59321e-05
-6.14615e-06
2.77217e-05
-5.95753e-06
2.84808e-05
-5.89463e-06
2.79814e-05
-4.40225e-06
2.76872e-05
-4.99276e-06
2.72998e-05
-8.34254e-06
2.67951e-05
-1.12682e-05
2.57763e-05
-1.14535e-05
2.43504e-05
-1.27938e-05
2.45884e-05
-8.20002e-06
2.37276e-05
-1.08579e-05
2.33887e-05
-9.38442e-06
2.027e-05
-1.00578e-05
1.87082e-05
5.5674e-06
1.79491e-05
-5.33393e-06
1.77006e-05
5.5041e-06
1.94247e-05
-1.61727e-05
1.98576e-05
1.00495e-05
2.28786e-05
-1.39788e-05
2.13025e-05
2.63215e-05
3.07705e-05
-1.49213e-05
2.54116e-05
5.35362e-05
3.34201e-05
2.82514e-06
6.87151e-05
3.74364e-05
3.40058e-05
-2.03657e-06
3.32293e-05
-3.58047e-06
3.27536e-05
-1.82052e-06
3.2611e-05
-1.16511e-06
3.29485e-05
-6.75423e-07
3.31595e-05
-2.32129e-07
3.32805e-05
-1.95651e-06
3.35133e-05
-2.52218e-06
3.33069e-05
-2.86943e-06
3.31388e-05
-3.60986e-06
3.33005e-05
-2.38293e-06
3.32969e-05
-1.78462e-06
3.35478e-05
-2.32528e-06
3.43565e-05
-2.00735e-06
3.48149e-05
-3.38384e-06
3.49337e-05
-5.83528e-06
3.50463e-05
-7.56772e-06
3.50126e-05
-1.05751e-05
3.50031e-05
-1.36931e-05
3.45894e-05
-1.65965e-05
3.4163e-05
-1.89959e-05
3.37987e-05
-1.9831e-05
3.31784e-05
-2.19815e-05
3.30873e-05
-2.23323e-05
3.25626e-05
-2.11231e-05
3.16266e-05
-1.99707e-05
3.10029e-05
-1.66345e-05
3.01566e-05
-1.33947e-05
2.9321e-05
-7.61745e-06
2.89381e-05
-7.82704e-07
2.88776e-05
5.13773e-06
2.86238e-05
1.27024e-05
2.79028e-05
1.9985e-05
2.68347e-05
2.21983e-05
2.63329e-05
2.0734e-05
2.63958e-05
1.88231e-05
2.62276e-05
1.4934e-05
2.59363e-05
1.07133e-05
2.623e-05
7.42527e-06
2.65213e-05
1.67626e-06
2.57213e-05
-5.1281e-06
2.46147e-05
-6.77078e-06
2.41599e-05
-6.89087e-06
2.34635e-05
-1.10191e-05
2.1906e-05
-1.03503e-05
1.98902e-05
-1.94775e-06
1.84204e-05
5.02175e-06
1.71785e-05
4.67095e-06
1.50726e-05
-1.79199e-06
1.15423e-05
-1.47345e-05
7.68475e-06
-3.31613e-05
5.11699e-06
-4.70962e-05
3.8902e-06
-5.03473e-05
3.67755e-06
-4.50229e-05
3.75023e-06
-3.14244e-05
4.99687e-06
-1.56853e-05
6.87015e-06
1.50853e-06
9.381e-06
1.30987e-05
1.15419e-05
1.44129e-05
1.25489e-05
1.72145e-05
1.57684e-05
2.28536e-05
1.84472e-05
3.74226e-05
2.0909e-05
4.57924e-05
2.29416e-05
5.09916e-05
2.40284e-05
4.47039e-05
2.48019e-05
3.94647e-05
2.43527e-05
2.7709e-05
2.46603e-05
2.08186e-05
2.49043e-05
1.26701e-05
2.55144e-05
6.13338e-06
2.59104e-05
3.91553e-08
2.5566e-05
-3.75525e-06
2.53534e-05
-4.16654e-06
2.55124e-05
-4.39886e-06
2.46894e-05
-6.41587e-06
2.46946e-05
-5.84642e-06
2.58971e-05
-7.34866e-06
2.72705e-05
-7.33091e-06
2.79454e-05
-6.56957e-06
2.76512e-05
-4.108e-06
2.76744e-05
-5.01598e-06
2.73113e-05
-7.97946e-06
2.66385e-05
-1.05954e-05
2.55802e-05
-1.03952e-05
2.44196e-05
-1.16333e-05
2.45911e-05
-8.37153e-06
2.39477e-05
-1.02144e-05
2.34449e-05
-8.88163e-06
1.93297e-05
-5.94257e-06
1.88613e-05
6.03577e-06
1.67068e-05
-3.17943e-06
1.73843e-05
4.82657e-06
1.8405e-05
-1.71933e-05
1.79237e-05
1.05307e-05
1.9487e-05
-1.5542e-05
1.41086e-05
3.16998e-05
2.07385e-05
-2.15512e-05
2.19581e-05
5.23166e-05
3.10115e-05
-6.22833e-06
6.32827e-05
3.6444e-05
3.37764e-05
-1.46316e-06
3.29412e-05
-2.74532e-06
3.25997e-05
-1.47897e-06
3.24921e-05
-1.05749e-06
3.3055e-05
-1.23837e-06
3.34873e-05
-6.64431e-07
3.3428e-05
-1.89722e-06
3.35761e-05
-2.67023e-06
3.33363e-05
-2.62961e-06
3.28819e-05
-3.15548e-06
3.29936e-05
-2.4946e-06
3.31204e-05
-1.91145e-06
3.32709e-05
-2.47585e-06
3.40435e-05
-2.77987e-06
3.44012e-05
-3.74161e-06
3.42312e-05
-5.66526e-06
3.45346e-05
-7.87109e-06
3.48085e-05
-1.0849e-05
3.46382e-05
-1.35228e-05
3.40847e-05
-1.60429e-05
3.36228e-05
-1.85341e-05
3.32758e-05
-1.94839e-05
3.22818e-05
-2.09875e-05
3.13558e-05
-2.14064e-05
3.02878e-05
-2.0055e-05
2.88972e-05
-1.85801e-05
2.78381e-05
-1.55755e-05
2.67451e-05
-1.23017e-05
2.60732e-05
-6.9456e-06
2.61353e-05
-8.44743e-07
2.65734e-05
4.69964e-06
2.69018e-05
1.2374e-05
2.65502e-05
2.03366e-05
2.58064e-05
2.29421e-05
2.53582e-05
2.11822e-05
2.50777e-05
1.91036e-05
2.48657e-05
1.51459e-05
2.49462e-05
1.06328e-05
2.54748e-05
6.89663e-06
2.57911e-05
1.35995e-06
2.51253e-05
-4.46225e-06
2.42217e-05
-5.86721e-06
2.39842e-05
-6.65337e-06
2.32904e-05
-1.03252e-05
2.15303e-05
-8.5903e-06
1.94251e-05
1.57443e-07
1.80548e-05
6.39204e-06
1.69991e-05
5.72673e-06
1.50226e-05
1.84476e-07
1.15735e-05
-1.12855e-05
7.38617e-06
-2.89739e-05
4.25425e-06
-4.39643e-05
2.55707e-06
-4.86501e-05
2.04532e-06
-4.45111e-05
2.3461e-06
-3.17252e-05
3.55602e-06
-1.68952e-05
5.30756e-06
-2.43006e-07
8.17049e-06
1.02357e-05
1.05463e-05
1.2037e-05
1.13993e-05
1.63615e-05
1.45182e-05
1.97347e-05
1.65404e-05
3.54004e-05
1.89204e-05
4.34123e-05
2.12615e-05
4.86505e-05
2.28486e-05
4.31168e-05
2.4624e-05
3.76893e-05
2.52626e-05
2.70704e-05
2.5925e-05
2.01562e-05
2.61616e-05
1.24335e-05
2.68119e-05
5.48308e-06
2.72526e-05
-4.01572e-07
2.69824e-05
-3.48503e-06
2.64793e-05
-3.66341e-06
2.62478e-05
-4.16739e-06
2.54142e-05
-5.58225e-06
2.52699e-05
-5.70214e-06
2.6044e-05
-8.12274e-06
2.68552e-05
-8.14209e-06
2.70518e-05
-6.76618e-06
2.70757e-05
-4.13187e-06
2.74225e-05
-5.36283e-06
2.69208e-05
-7.47775e-06
2.60038e-05
-9.67834e-06
2.49931e-05
-9.38458e-06
2.42104e-05
-1.08506e-05
2.44767e-05
-8.63786e-06
2.39214e-05
-9.65905e-06
2.28158e-05
-7.77608e-06
1.86735e-05
-1.80022e-06
1.85982e-05
6.11102e-06
1.50989e-05
3.19876e-07
1.76725e-05
2.25294e-06
1.86137e-05
-1.81345e-05
1.6245e-05
1.28995e-05
1.70324e-05
-1.63295e-05
1.09891e-05
3.77432e-05
1.29413e-05
-2.35034e-05
1.66596e-05
4.85983e-05
2.40646e-05
-1.36333e-05
5.39517e-05
3.33956e-05
3.34694e-05
-1.04668e-06
3.30243e-05
-2.30025e-06
3.29751e-05
-1.42972e-06
3.27884e-05
-8.70761e-07
3.31106e-05
-1.56057e-06
3.33618e-05
-9.15629e-07
3.31862e-05
-1.72162e-06
3.33542e-05
-2.83825e-06
3.32511e-05
-2.52651e-06
3.29204e-05
-2.82484e-06
3.32022e-05
-2.77634e-06
3.33946e-05
-2.10384e-06
3.33993e-05
-2.48054e-06
3.38721e-05
-3.25273e-06
3.39467e-05
-3.81618e-06
3.38851e-05
-5.60366e-06
3.44769e-05
-8.46287e-06
3.44839e-05
-1.0856e-05
3.38238e-05
-1.28628e-05
3.33548e-05
-1.55739e-05
3.27987e-05
-1.7978e-05
3.18605e-05
-1.85458e-05
3.02409e-05
-1.93678e-05
2.84693e-05
-1.96348e-05
2.68003e-05
-1.83861e-05
2.51808e-05
-1.69606e-05
2.40022e-05
-1.43968e-05
2.29275e-05
-1.1227e-05
2.24967e-05
-6.51488e-06
2.28899e-05
-1.23788e-06
2.35415e-05
4.04806e-06
2.40686e-05
1.18469e-05
2.43223e-05
2.00829e-05
2.43911e-05
2.28733e-05
2.40191e-05
2.15541e-05
2.37264e-05
1.93964e-05
2.39406e-05
1.49317e-05
2.43166e-05
1.02568e-05
2.48062e-05
6.40703e-06
2.50345e-05
1.13167e-06
2.4462e-05
-3.8897e-06
2.36699e-05
-5.0752e-06
2.35507e-05
-6.53416e-06
2.28272e-05
-9.60172e-06
2.08984e-05
-6.66147e-06
1.87403e-05
2.31549e-06
1.75198e-05
7.61253e-06
1.67546e-05