/*--------------------------------*- C++ -*----------------------------------*\
| =========                 |                                                 |
| \\      /  F ield         | OpenFOAM: The Open Source CFD Toolbox           |
|  \\    /   O peration     | Version:  2.4.0                                 |
|   \\  /    A nd           | Web:      www.OpenFOAM.org                      |
|    \\/     M anipulation  |                                                 |
\*---------------------------------------------------------------------------*/
FoamFile
{
    version     2.0;
    format      ascii;
    class       volScalarField;
    location    "0.196";
    object      pMean;
}
// * * * * * * * * * * * * * * * * * * * * * * * * * * * * * * * * * * * * * //

dimensions      [0 2 -2 0 0 0 0];

internalField   nonuniform List<scalar> 
4400
(
123.02
101.958
93.8603
90.1007
87.0781
84.139
81.1941
78.2689
75.2233
71.7267
121.098
102.024
93.897
90.1121
87.0809
84.1393
81.1945
78.2686
75.2371
71.9351
119.891
102.335
94.031
90.1509
87.1014
84.1474
81.1985
78.2663
75.2941
72.0395
119.158
102.713
94.2092
90.2085
87.1441
84.1749
81.2128
78.2791
75.3605
72.2251
118.565
103.058
94.389
90.2672
87.2039
84.2186
81.2441
78.2967
75.4515
72.4359
118.053
103.345
94.5463
90.3101
87.2602
84.2714
81.2845
78.3298
75.5622
72.6939
117.631
103.574
94.6774
90.3345
87.3054
84.3173
81.3251
78.367
75.6489
73.0277
117.308
103.747
94.7809
90.3472
87.3361
84.3554
81.3583
78.41
75.6916
73.3353
117.089
103.864
94.8509
90.3532
87.3556
84.3835
81.3831
78.4508
75.7609
73.6535
116.98
103.925
94.8859
90.3559
87.3662
84.3995
81.406
78.4881
75.8456
73.8803
116.979
103.926
94.8854
90.3583
87.3669
84.4077
81.4196
78.5279
75.9271
74.0636
117.087
103.869
94.8507
90.3584
87.3608
84.4038
81.4308
78.5661
76.0082
74.2042
117.304
103.754
94.7807
90.3561
87.3446
84.3901
81.4349
78.6012
76.091
74.3039
117.626
103.583
94.6768
90.3474
87.3175
84.3652
81.4326
78.6339
76.1755
74.3637
118.048
103.356
94.5456
90.3255
87.2779
84.3297
81.4248
78.6614
76.2594
74.3916
118.559
103.07
94.3879
90.2856
87.2267
84.2878
81.4135
78.6848
76.3287
74.4196
119.152
102.725
94.2084
90.2291
87.1715
84.2511
81.4049
78.7062
76.3739
74.444
119.885
102.348
94.0306
90.173
87.1314
84.2301
81.4033
78.7238
76.3991
74.4778
121.093
102.036
93.8969
90.1348
87.1123
84.2239
81.4054
78.7339
76.4092
74.517
123.015
101.97
93.8601
90.1237
87.1095
84.2245
81.4068
78.7373
76.4104
74.6192
70.0125
69.2142
68.0197
67.1403
66.5969
66.1357
65.6717
65.1631
64.9564
64.7398
64.2297
63.6184
62.9895
62.8509
62.9649
63.0083
63.1746
63.7085
64.398
65.2794
66.2358
67.2988
68.4141
69.4709
70.4695
71.3591
72.1305
72.7754
73.3056
73.6804
73.8975
74.0884
74.2135
74.3594
74.4964
74.648
74.7949
74.8701
74.8791
74.7592
74.6586
74.5125
74.2308
73.9244
73.6287
73.4878
73.6243
74.0003
74.5357
75.1091
75.77
76.4833
77.2432
78.0587
78.9322
79.7877
80.6481
81.3179
81.9428
82.3342
82.7656
82.941
83.2144
83.2244
83.375
83.229
83.333
83.0854
83.1708
82.9014
83.002
82.7932
82.9786
82.7943
83.0748
82.8861
83.3554
83.2844
83.9935
83.9547
84.7747
84.574
85.2769
84.9131
85.5955
85.2448
85.7883
85.5408
86.125
85.7408
86.2915
85.7761
86.1778
85.3892
85.5869
83.9197
83.7811
79.1618
77.9935
53.737
70.1535
69.3789
68.3923
67.6012
67.0754
66.6553
66.2526
65.8451
65.6333
65.4825
65.0736
64.5588
63.9806
63.7911
63.9152
64.0388
64.1994
64.6642
65.2913
66.0791
66.9298
67.8818
68.8918
69.8587
70.7619
71.5613
72.25
72.8239
73.2731
73.5735
73.7343
73.859
73.9284
74.0296
74.1335
74.2711
74.3866
74.4359
74.4138
74.234
74.1257
73.949
73.6609
73.3714
73.1198
73.0701
73.3002
73.7599
74.3688
75.004
75.7121
76.4547
77.2604
78.1215
79.0536
79.9576
80.8603
81.5497
82.1927
82.5769
83.0057
83.1594
83.3974
83.3737
83.4697
83.3073
83.366
83.1123
83.1813
82.9257
83.0467
82.8294
83.003
82.7713
83.0264
82.781
83.2679
83.0926
83.856
83.6442
84.5602
84.1322
84.9541
84.3592
85.1751
84.5985
85.2969
84.7753
85.5334
84.8628
85.5579
84.7598
85.2842
84.0562
84.4342
81.9397
82.0163
75.2868
73.3996
46.6478
70.4858
69.73
68.7974
68.0349
67.5103
67.1336
66.7946
66.4709
66.2567
66.131
65.8315
65.4275
64.9445
64.7397
64.8614
65.0524
65.233
65.6462
66.2132
66.9162
67.6722
68.5167
69.4158
70.2803
71.0748
71.7754
72.3763
72.874
73.2464
73.4913
73.6217
73.7097
73.7513
73.8325
73.9241
74.0662
74.1574
74.1922
74.1336
73.9049
73.7943
73.5774
73.3087
73.0455
72.8482
72.9016
73.2193
73.753
74.4323
75.1191
75.8722
76.6308
77.4848
78.3838
79.3717
80.3184
81.2543
81.9654
82.6191
83.0014
83.4116
83.5513
83.7377
83.6862
83.703
83.531
83.5277
83.2755
83.3148
83.0773
83.1965
82.9715
83.1169
82.8486
83.0899
82.7898
83.2762
82.9815
83.7879
83.385
84.3953
83.7183
84.6433
83.8426
84.7723
83.9462
84.8352
83.9822
84.9647
83.9547
84.8453
83.6901
84.3869
82.6342
83.1495
79.8033
80.161
71.8111
68.3745
44.7173
70.7898
70.1294
69.2906
68.5358
67.9903
67.6392
67.3685
67.1252
66.9272
66.8085
66.6001
66.297
65.9281
65.7426
65.8561
66.0919
66.3016
66.6741
67.1808
67.8067
68.4757
69.208
69.9844
70.7316
71.4056
71.9978
72.5034
72.9197
73.2316
73.4447
73.5645
73.6469
73.6908
73.776
73.8724
74.0254
74.0973
74.1245
74.0171
73.7591
73.6436
73.3856
73.1683
72.9369
72.8168
72.978
73.375
73.9823
74.7296
75.455
76.2506
77.0164
77.9155
78.8407
79.8788
80.8633
81.8183
82.5472
83.2058
83.5848
83.9697
84.0977
84.229
84.1537
84.0871
83.9049
83.8319
83.579
83.5753
83.3498
83.4526
83.2139
83.3258
83.0233
83.2588
82.9046
83.3768
82.9616
83.7942
83.1952
84.3013
83.361
84.3755
83.3911
84.3663
83.311
84.3447
83.1575
84.3995
82.9535
84.1645
82.4838
83.5203
81.1586
81.8027
77.6721
77.884
68.7289
63.1645
44.5985
71.0761
70.5332
69.8555
69.1053
68.5186
68.167
67.9621
67.8083
67.6623
67.5623
67.4205
67.2056
66.9483
66.8098
66.9102
67.1636
67.4036
67.7414
68.1884
68.7352
69.3156
69.9308
70.5748
71.1933
71.7419
72.2197
72.6276
72.9679
73.2378
73.4379
73.5657
73.6695
73.7379
73.8481
73.9676
74.1328
74.1892
74.2035
74.0353
73.7716
73.6415
73.3584
73.2199
73.0217
73.0113
73.2761
73.7464
74.4294
75.2485
76.0033
76.8445
77.6107
78.5486
79.4846
80.5614
81.5702
82.5354
83.2716
83.9395
84.3027
84.6736
84.7783
84.8661
84.753
84.6226
84.4163
84.2754
84.0009
83.9497
83.717
83.7971
83.5366
83.6267
83.2753
83.5
83.0905
83.553
83.0216
83.8857
83.0886
84.2975
83.079
84.1765
83.0305
83.9696
82.7478
83.7625
82.3616
83.6279
81.8679
83.2764
81.0602
82.4816
79.4343
80.5898
75.7201
75.4678
66.2225
57.9421
44.3492
71.3581
70.9224
70.375
69.6533
69.0536
68.721
68.5881
68.5268
68.4505
68.3814
68.2883
68.1501
67.9929
67.9144
68.0087
68.2526
68.5129
68.819
69.1995
69.66
70.1474
70.643
71.1515
71.6406
72.0628
72.4271
72.7469
73.0241
73.2653
73.4663
73.6182
73.7636
73.8801
74.0354
74.1893
74.3624
74.4109
74.3994
74.1711
73.9198
73.7696
73.4891
73.4366
73.2713
73.4012
73.7634
74.3059
75.0659
75.9663
76.7459
77.6432
78.4057
79.378
80.312
81.4101
82.4167
83.392
84.1119
84.8051
85.1279
85.5143
85.5749
85.6483
85.4769
85.3108
85.0423
84.844
84.5199
84.4288
84.1612
84.2172
83.9234
84.0037
83.591
83.7979
83.3281
83.7837
83.1503
84.0404
83.0661
84.3595
82.8661
84.0549
82.7396
83.6565
82.332
83.261
81.805
82.8966
81.0222
82.2333
79.6795
81.1324
77.4407
78.8235
73.1768
72.4651
63.7572
54.336
44.4881
71.8193
71.3363
70.7491
70.0635
69.5398
69.2899
69.2406
69.2571
69.2462
69.2151
69.1644
69.09
69.0138
68.9963
69.0943
69.3178
69.5785
69.8565
70.1722
70.5418
70.9291
71.307
71.6879
72.0522
72.3528
72.6163
72.8641
73.0961
73.3192
73.5286
73.716
73.9169
74.1017
74.3229
74.5161
74.6925
74.7415
74.6926
74.4121
74.1903
74.0196
73.7837
73.7976
73.6675
73.9509
74.4038
75.0263
75.8624
76.8604
77.6633
78.6288
79.3816
80.3876
81.3111
82.4212
83.3979
84.3759
85.0478
85.7747
86.0313
86.4684
86.4598
86.5594
86.3094
86.1409
85.7861
85.5363
85.1381
85.0057
84.6801
84.7173
84.3752
84.4433
83.9716
84.1557
83.6311
84.0648
83.3521
84.2273
83.134
84.4507
82.7651
83.9994
82.4922
83.3989
81.9868
82.8539
81.4253
82.2474
80.4668
81.2699
78.7281
79.7233
75.7885
76.4917
70.4297
68.8822
60.8544
52.3656
44.7599
72.5912
71.9551
71.0563
70.3551
69.9619
69.8376
69.8752
69.9581
70.003
70.0133
70.0036
69.9804
69.9674
70.003
70.1121
70.3144
70.5641
70.8159
71.0738
71.356
71.6443
71.9163
72.1861
72.434
72.6238
72.8058
72.9992
73.1946
73.4054
73.6304
73.862
74.1256
74.3904
74.6916
74.9295
75.107
75.1532
75.0722
74.7521
74.5667
74.3824
74.2268
74.2916
74.2115
74.6408
75.1789
75.896
76.7926
77.9002
78.7331
79.7689
80.5167
81.563
82.4631
83.5749
84.5051
85.4707
86.096
86.8449
87.0173
87.5218
87.4169
87.5786
87.2274
87.0927
86.6343
86.3517
85.8621
85.6902
85.2854
85.2995
84.9083
84.9424
84.4317
84.5723
84.0106
84.3996
83.6455
84.4508
83.2909
84.5507
82.7679
83.9477
82.294
83.1706
81.6519
82.4769
81.0187
81.6068
79.8764
80.3059
77.8957
78.2292
74.5043
74.1336
68.6637
65.9234
59.0661
51.5468
44.8178
73.1443
72.4365
71.3702
70.6511
70.3571
70.352
70.4778
70.6217
70.7148
70.763
70.7892
70.8062
70.8415
70.9199
71.0449
71.2311
71.459
71.6815
71.8891
72.0978
72.2994
72.4864
72.6672
72.8115
72.9069
73.0266
73.1735
73.3378
73.5413
73.7854
74.0627
74.39
74.7383
75.1276
75.41
75.5866
75.6194
75.5248
75.1901
75.0388
74.8563
74.796
74.911
74.9179
75.4616
76.0847
76.8898
77.828
79.0539
79.9298
81.0428
81.7802
82.8741
83.7396
84.8507
85.7151
86.6652
87.2549
88.0133
88.0985
88.6656
88.429
88.6775
88.2053
88.1493
87.5578
87.273
86.6816
86.484
85.9859
85.9665
85.5295
85.514
84.9814
85.0626
84.4865
84.8002
84.0607
84.7053
83.5548
84.6518
82.9219
83.8629
82.1768
82.9293
81.4194
82.1101
80.6543
80.9844
79.2718
79.348
77.0751
76.7332
73.4155
72.0374
67.7994
64.1691
58.7447
51.4475
45.0889
73.5458
72.8468
71.7286
71.0053
70.7684
70.852
71.0516
71.2447
71.3749
71.4545
71.5126
71.5644
71.639
71.7527
71.895
72.0699
72.2702
72.4601
72.6247
72.7753
72.9116
73.0383
73.1514
73.2089
73.2263
73.2953
73.4
73.5373
73.7351
73.9969
74.3196
74.7094
75.1435
75.6199
75.9419
76.1174
76.1349
76.0394
75.7227
75.6053
75.443
75.4873
75.6527
75.7857
76.3989
77.1001
77.9735
78.9447
80.2899
81.209
82.4117
83.1326
84.2952
85.1035
86.2111
86.9974
87.9272
88.4981
89.2503
89.2621
89.8776
89.484
89.8267
89.2207
89.2703
88.5383
88.2891
87.5765
87.3782
86.7732
86.7181
86.233
86.1603
85.6348
85.6472
85.0903
85.2808
84.6287
85.0232
83.9888
84.764
83.2012
83.7862
82.1639
82.7208
81.2952
81.7641
80.4061
80.3995
78.8039
78.4319
76.4735
75.4349
72.6355
70.787
67.5822
63.5301
59.4433
51.9062
45.98
73.8472
73.1879
72.0907
71.3919
71.1931
71.33
71.581
71.8139
71.9782
72.0889
72.1795
72.2672
72.3763
72.5192
72.6771
72.8439
73.0179
73.1762
73.3065
73.4119
73.4983
73.5827
73.6423
73.628
73.5815
73.6072
73.6708
73.7858
73.9877
74.2762
74.6483
75.0961
75.6138
76.1652
76.5138
76.6902
76.6988
76.6224
76.3527
76.2723
76.1381
76.2948
76.5097
76.7894
77.4301
78.2292
79.1268
80.1539
81.5905
82.5461
83.819
84.5472
85.7708
86.5224
87.6319
88.3219
89.2462
89.7878
90.5207
90.4888
91.1318
90.592
91.0178
90.282
90.4287
89.558
89.3694
88.5385
88.3511
87.6487
87.5544
87.0444
86.8943
86.418
86.3247
85.853
85.8659
85.387
85.463
84.7565
84.9409
83.6004
83.753
82.2224
82.6398
81.3854
81.5426
80.3791
79.9839
78.6073
77.7779
76.1951
74.6069
72.3522
70.3154
67.9893
63.6102
60.4622
52.8933
47.3345
74.0476
73.4473
72.4349
71.804
71.6452
71.8108
72.0873
72.3461
72.5391
72.6801
72.8026
72.9242
73.0639
73.2291
73.3981
73.5581
73.7108
73.8443
73.9444
74.0141
74.0659
74.1206
74.1358
74.0578
73.9555
73.9455
73.9738
74.0756
74.2976
74.6269
75.0528
75.5602
76.153
76.7568
77.1166
77.2893
77.3084
77.2793
77.0844
77.0444
76.9402
77.2072
77.4703
77.9096
78.5522
79.4659
80.325
81.457
82.9214
83.9158
85.2307
85.9919
87.2681
87.9533
89.072
89.6681
90.5773
91.1014
91.7897
91.7666
92.3947
91.7541
92.2169
91.4161
91.5988
90.625
90.4855
89.5641
89.3785
88.6184
88.4658
87.9866
87.7144
87.3647
87.0868
86.7877
86.5446
86.3001
86.0138
85.7006
85.2211
84.2558
83.9259
82.627
82.7656
81.7376
81.5817
80.6461
79.9392
78.8028
77.5911
76.3806
74.3763
72.808
70.4961
68.9181
64.1595
61.4796
54.2432
48.6731
74.1549
73.6369
72.771
72.2463
72.1309
72.2991
72.5724
72.8374
73.0502
73.219
73.3716
73.525
73.6918
73.8712
74.0438
74.1973
74.329
74.4352
74.5114
74.5559
74.5854
74.6239
74.6108
74.4836
74.3392
74.3026
74.3129
74.421
74.6767
75.053
75.5356
76.1088
76.7653
77.3892
77.744
77.9097
77.9544
77.9936
77.9022
77.9082
77.8433
78.2039
78.5261
79.1241
79.761
80.809
81.5739
82.8355
84.2356
85.2924
86.5873
87.4541
88.7152
89.3915
90.4921
91.0328
91.9066
92.4336
93.0507
93.1107
93.6432
93.0057
93.4234
92.6262
92.7559
91.776
91.6246
90.6682
90.4363
89.681
89.4331
89.0296
88.5832
88.4158
87.9083
87.8516
87.2767
87.3343
86.607
86.5893
85.6447
85.1412
84.3619
83.7259
83.0866
82.3388
81.8842
81.256
80.2549
79.4885
77.855
77.1046
74.7033
73.9735
71.1351
70.1169
65.004
62.4741
55.6486
49.8697
74.16
73.7469
73.0894
72.7012
72.631
72.7848
73.0315
73.2834
73.5046
73.6956
73.8743
74.0534
74.2377
74.4219
74.5916
74.7357
74.8521
74.9409
74.9973
75.0201
75.0339
75.0631
75.0348
74.8788
74.7099
74.6562
74.6698
74.8107
75.1222
75.5581
76.1037
76.7459
77.4471
78.0571
78.3901
78.553
78.6429
78.7604
78.784
78.8265
78.8153
79.2361
79.6264
80.3809
81.0217
82.212
82.8736
84.2991
85.5158
86.7013
87.8902
88.9399
90.0959
90.8232
91.8508
92.3868
93.1984
93.7609
94.2732
94.484
94.8246
94.3448
94.6048
93.924
93.8806
92.9815
92.7429
91.8423
91.4943
90.8069
90.4319
90.128
89.4911
89.5059
88.7577
88.9726
88.0487
88.3913
87.232
87.4478
86.1372
86.2617
85.0228
85.2996
83.6048
83.4078
82.2814
82.2036
80.8161
80.626
78.4771
78.3041
75.4757
75.5661
71.9969
71.2738
65.9406
63.4857
56.9567
50.9795
74.0901
73.8108
73.4052
73.1576
73.1124
73.2295
73.4355
73.6644
73.8841
74.0882
74.2829
74.4756
74.6666
74.8495
75.0146
75.1527
75.2604
75.3378
75.3818
75.3913
75.3959
75.4217
75.3917
75.2338
75.0666
75.0163
75.0535
75.2435
75.6222
76.1287
76.7486
77.4646
78.1893
78.7508
79.0398
79.1988
79.352
79.5571
79.6975
79.7773
79.826
80.2643
80.732
81.6275
82.2774
83.6078
84.1639
85.7871
86.8072
88.0964
89.1525
90.4238
91.3789
92.2535
93.0934
93.6989
94.3651
95.0243
95.3546
95.8087
95.8765
95.7072
95.7003
95.2913
94.9843
94.2602
93.8278
93.0543
92.5145
91.9661
91.4257
91.2402
90.403
90.6049
89.5945
90.0758
88.8049
89.4164
87.8628
88.3391
86.691
87.5609
85.8045
86.758
84.2684
84.8873
82.91
83.5104
81.5483
82.0031
79.341
79.7316
76.5183
77.2483
72.8417
72.2498
66.878
64.4909
58.1115
52.0291
73.9797
73.8389
73.6848
73.5488
73.5083
73.5874
73.7529
73.9554
74.1662
74.3746
74.5787
74.7805
74.9762
75.1568
75.3154
75.446
75.5478
75.6201
75.6603
75.6671
75.6749
75.7061
75.6846
75.5504
75.417
75.3932
75.4713
75.7308
76.1827
76.7649
77.4651
78.2411
78.9637
79.4648
79.6958
79.8491
80.0668
80.3517
80.5931
80.7212
80.8324
81.2651
81.8163
82.8133
83.4778
84.9398
85.3811
87.1905
88.0163
89.4363
90.2512
91.8305
92.5024
93.6154
94.1284
94.9203
95.324
96.1634
96.2341
96.9884
96.7436
96.9651
96.6327
96.5832
95.9608
95.5435
94.832
94.2799
93.4595
93.1086
92.3546
92.3087
91.2563
91.6249
90.3697
91.0982
89.5379
90.3043
88.4527
89.3472
87.3284
88.9181
86.5341
88.035
85.0413
86.4716
83.7418
85.1928
82.4189
83.5614
80.3134
81.2427
77.6214
78.7944
73.596
73.0958
67.8103
65.4503
59.0669
52.9804
74.0215
73.9303
73.8784
73.808
73.7784
73.8354
73.9704
74.15
74.3504
74.5592
74.7685
74.9739
75.1687
75.3448
75.4979
75.6247
75.725
75.7981
75.8441
75.8631
75.8865
75.9293
75.928
75.8405
75.7636
75.7873
75.9291
76.2684
76.7957
77.4549
78.2254
79.0351
79.7363
80.175
80.3569
80.5129
80.7703
81.1059
81.4139
81.5946
81.7757
82.2041
82.8229
83.8656
84.5442
86.1276
86.4954
88.4488
89.032
90.7568
91.2347
93.0573
93.4436
94.7862
94.9696
96.0109
96.1013
97.1762
96.9462
97.9888
97.442
98.0087
97.3812
97.6944
96.7573
96.7121
95.7002
95.4597
94.3217
94.198
93.1666
93.2967
92.0208
92.5346
91.0241
91.9804
90.1584
91.0772
88.9647
90.511
88.0374
90.1383
87.1964
89.1384
85.7706
87.9681
84.6082
86.8374
83.2629
85.2251
81.2235
82.7504
78.6646
80.0548
74.1779
73.9382
68.7489
66.248
59.7899
53.8394
74.094
74.0346
74.0021
73.9537
73.936
73.9835
74.0976
74.2593
74.4508
74.6577
74.8672
75.0713
75.2627
75.435
75.5848
75.7109
75.8168
75.8998
75.9585
75.9994
76.049
76.112
76.1389
76.1103
76.1048
76.1945
76.4124
76.8321
77.4255
78.1455
78.9601
79.7689
80.434
80.8212
80.9734
81.1353
81.403
81.7542
82.0846
82.3128
82.5754
83.0196
83.6784
84.7037
85.3986
87.0632
87.3835
89.483
89.793
91.8549
92.0885
94.008
94.1967
95.7579
95.6376
96.9061
96.6882
97.9753
97.4769
98.7456
97.9603
98.7915
97.9381
98.541
97.3365
97.6393
96.3361
96.4217
95.0009
95.1421
93.7832
94.1092
92.5759
93.2746
91.5008
92.7002
90.618
91.766
89.3475
91.6004
88.6839
91.0929
87.7753
90.0293
86.3978
89.1985
85.3613
88.1154
84.0036
86.6203
82.0804
84.1773
79.5587
80.9996
74.6742
74.9452
69.6095
66.751
60.2482
54.5859
74.1803
74.125
74.0705
74.0218
74.0081
74.0486
74.1484
74.2981
74.4834
74.689
74.8986
75.1027
75.2932
75.4655
75.6181
75.7496
75.8632
75.9585
76.0357
76.1021
76.1774
76.2608
76.3189
76.3495
76.4163
76.577
76.8691
77.3491
77.9789
78.7229
79.5364
80.3155
80.9371
81.2901
81.4305
81.5918
81.8523
82.1914
82.5213
82.7934
83.133
83.608
84.2913
85.2586
85.971
87.6875
87.94
90.2109
90.3561
92.5198
92.6329
94.6867
94.7647
96.4259
96.1053
97.5138
97.0959
98.467
97.8288
99.1993
98.2995
99.2864
98.3119
99.0946
97.7372
98.2471
96.735
97.0492
95.414
95.7826
94.169
94.6734
92.8979
93.7526
91.7595
93.1645
90.8708
92.3628
89.7186
92.2666
89.1198
91.6913
88.1743
90.611
86.8564
89.9909
85.9254
88.9089
84.5433
87.4486
82.6134
85.2939
80.2009
81.6085
75.3066
76.065
70.3766
66.9947
60.5265
55.1165
74.331
74.1915
74.0942
74.0391
74.0239
74.0603
74.155
74.3004
74.4826
74.6862
74.8943
75.0975
75.289
75.464
75.6211
75.7595
75.8823
75.9888
76.0799
76.1631
76.2533
76.3494
76.4263
76.4889
76.5924
76.7865
77.1081
77.6048
78.2376
78.9792
79.7761
80.5275
81.124
81.4709
81.6141
81.7808
82.036
82.3625
82.6859
82.9833
83.3704
83.8623
84.545
85.4848
86.2153
87.9509
88.2329
90.546
90.6339
92.7978
92.8932
95.0322
94.9749
96.6904
96.3104
97.7632
97.2751
98.6553
97.9981
99.3945
98.448
99.4994
98.4801
99.335
97.8981
98.4903
96.8767
97.2857
95.5488
96.0064
94.2827
94.8875
92.9818
93.9204
91.8273
93.3312
90.927
92.6172
89.8709
92.4919
89.2059
91.8908
88.2799
90.8393
87.0312
90.342
86.1106
89.2433
84.6905
87.7323
82.7724
85.7115
80.365
81.8439
75.5747
76.7402
70.5537
67.0389
60.6096
55.1187
71.5081
71.1095
70.1485
68.5416
67.3284
66.5385
65.958
65.6382
65.4494
65.4798
65.5871
65.7223
65.6301
65.3855
65.618
66.1584
66.874
67.8225
68.8024
69.8414
70.9935
72.2779
73.6243
74.9655
76.4517
78.1632
80.0288
81.9509
83.9208
85.8239
87.8572
89.7632
91.7047
93.3352
94.9577
96.29
97.7377
98.9578
100.118
100.801
100.985
100.533
99.7403
98.6578
97.6705
96.7552
96.1342
95.558
95.1796
94.7679
94.5252
94.2727
94.1518
94.0265
93.9783
93.9174
93.8753
93.811
93.7476
93.6375
93.5435
93.447
93.3742
93.2504
93.152
93.0147
92.918
92.8116
92.8081
92.7321
92.6864
92.5811
92.6966
92.7129
93.1224
93.0872
93.3451
93.3244
93.5675
93.7278
94.0037
94.3042
94.6206
94.913
95.1781
95.3761
95.5364
95.6624
95.772
95.8838
95.9991
96.1315
96.2774
96.4203
96.5481
96.7229
96.942
97.2199
97.807
98.5184
71.4531
71.0036
69.956
68.3033
67.0509
66.2959
65.7756
65.4739
65.2589
65.2615
65.3477
65.4539
65.3133
65.0558
65.2893
65.8696
66.6199
67.5917
68.5534
69.5846
70.7294
71.9955
73.2799
74.5574
76.0267
77.7568
79.6599
81.5909
83.5642
85.47
87.4987
89.3914
91.3057
92.9237
94.528
95.9018
97.3535
98.6295
99.7852
100.537
100.74
100.348
99.5733
98.5304
97.5558
96.6583
96.0503
95.4881
95.1236
94.7192
94.4915
94.2409
94.129
94.0007
93.9496
93.8824
93.8411
93.7758
93.7165
93.5988
93.4975
93.3857
93.3086
93.1788
93.0801
92.9365
92.8379
92.7346
92.7457
92.6713
92.6179
92.4945
92.6108
92.6187
93.0193
93.0086
93.2586
93.2557
93.5058
93.6852
93.9628
94.2657
94.5947
94.8882
95.1613
95.3611
95.5251
95.6514
95.762
95.8729
95.9881
96.1169
96.2645
96.407
96.5336
96.6864
96.8532
97.092
97.6778
98.3774
71.3372
70.8
69.5833
67.807
66.4859
65.7692
65.3658
65.1192
64.891
64.8522
64.9012
64.9461
64.6839
64.3584
64.5858
65.2117
66.0271
67.0064
67.9096
68.8943
70.0211
71.2463
72.4389
73.6269
75.09
76.8531
78.8294
80.773
82.7652
84.7033
86.74
88.6098
90.4686
92.0872
93.6687
95.1209
96.5779
97.9314
99.0762
99.9028
100.136
99.8406
99.0979
98.1311
97.1943
96.3475
95.7653
95.2371
94.8921
94.5108
94.3115
94.0734
93.9849
93.867
93.8239
93.7576
93.7187
93.6523
93.5997
93.4758
93.3638
93.2245
93.1226
92.972
92.863
92.7113
92.6095
92.5202
92.5487
92.4942
92.4388
92.2849
92.4053
92.3896
92.7716
92.8073
93.0358
93.0721
93.3269
93.561
93.8427
94.1625
94.502
94.8039
95.0866
95.2962
95.467
95.6026
95.7169
95.8348
95.951
96.0829
96.2337
96.3904
96.5188
96.6408
96.6971
96.8741
97.4361
98.1509
71.1601
70.5454
69.1097
67.1751
65.777
65.0863
64.8227
64.6473
64.4084
64.3466
64.3545
64.2962
63.8549
63.4167
63.626
64.2592
65.1215
66.102
66.9376
67.8619
68.9369
70.1076
71.2556
72.3966
73.8838
75.6714
77.7199
79.6922
81.7009
83.6972
85.747
87.595
89.3698
90.9843
92.5717
94.1057
95.5681
96.9754
98.0893
98.9602
99.2162
99.0159
98.338
97.4592
96.5808
95.8037
95.2485
94.7615
94.4443
94.0932
93.9309
93.7166
93.6639
93.5751
93.5504
93.5035
93.4707
93.4111
93.3632
93.231
93.0951
92.9189
92.7882
92.6161
92.4957
92.3413
92.2395
92.169
92.2131
92.1934
92.1419
91.9546
92.0844
92.0378
92.4141
92.4838
92.6945
92.7873
93.032
93.3326
93.6211
93.9705
94.3201
94.6477
94.9437
95.1701
95.3531
95.499
95.6265
95.752
95.8792
96.0145
96.1837
96.3645
96.5187
96.6012
96.5423
96.6379
97.1753
97.8863
70.9505
70.2633
68.6054
66.4844
64.9977
64.3483
64.2095
64.0971
63.8285
63.7179
63.6514
63.4656
62.8404
62.2916
62.4714
63.0742
63.9448
64.9106
65.7025
66.5911
67.6029
68.7294
69.8852
71.0276
72.5444
74.3568
76.4856
78.521
80.5452
82.5973
84.6496
86.4502
88.1329
89.7238
91.3481
92.9454
94.4026
95.8241
96.9019
97.7884
98.0537
97.9301
97.3293
96.5488
95.7499
95.0465
94.5248
94.0753
93.8056
93.4782
93.3592
93.1742
93.1605
93.1089
93.1099
93.0929
93.0798
93.0269
92.9863
92.8329
92.6669
92.4517
92.3125
92.135
92.0146
91.8609
91.7534
91.7036
91.7595
91.7728
91.7378
91.5133
91.6701
91.5935
91.9672
92.0445
92.243
92.4051
92.6372
93.0029
93.2998
93.697
94.0586
94.4202
94.7299
94.9811
95.1726
95.3347
95.4733
95.6149
95.7537
95.9078
96.0903
96.3094
96.487
96.5712
96.4041
96.4343
96.9344
97.6619
70.7557
70.0091
68.1539
65.8472
64.2665
63.6487
63.5759
63.4793
63.1361
62.9382
62.7463
62.4226
61.6735
61.0529
61.2037
61.7482
62.5913
63.5546
64.3349
65.2017
66.1785
67.2991
68.5
69.679
71.2213
73.0505
75.2569
77.3853
79.4203
81.4896
83.5365
85.2616
86.8581
88.4101
90.0671
91.7008
93.1413
94.5526
95.5797
96.4396
96.7035
96.6427
96.1292
95.4532
94.7326
94.1018
93.6129
93.204
92.9842
92.6824
92.6202
92.4716
92.5018
92.4975
92.5282
92.5396
92.5555
92.5019
92.4746
92.3001
92.1175
91.8798
91.7504
91.5739
91.4512
91.2966
91.1898
91.1552
91.2195
91.2569
91.2572
91.0018
91.186
91.0783
91.4379
91.5069
91.6945
91.9322
92.1576
92.5956
92.9046
93.3546
93.7316
94.1214
94.4481
94.7226
94.9271
95.1016
95.2536
95.4089
95.5719
95.7437
95.954
96.1903
96.4108
96.5057
96.3204
96.2899
96.8098
97.5048
70.6168
69.8163
67.7987
65.3282
63.6585
63.0433
62.9443
62.7736
62.3176
61.9771
61.6371
61.1928
60.413
59.7856
59.9147
60.3947
61.2102
62.1876
62.9891
63.8563
64.8519
65.9993
67.2597
68.4796
70.0334
71.8666
74.1277
76.3385
78.3778
80.4276
82.471
84.0994
85.6075
87.1075
88.7678
90.4163
91.8251
93.1935
94.1485
94.9496
95.2082
95.1953
94.7735
94.1813
93.5355
92.9704
92.5088
92.1469
91.9711
91.7182
91.7144
91.6087
91.6778
91.7176
91.7767
91.8247
91.8684
91.8262
91.82
91.6534
91.4765
91.241
91.1192
90.9246
90.7941
90.6468
90.5574
90.541
90.6252
90.6771
90.7171
90.4432
90.6464
90.5068
90.8462
90.8985
91.06
91.3719
91.603
92.1215
92.445
92.9426
93.3442
93.7596
94.0986
94.3893
94.6094
94.7969
94.9649
95.1317
95.3192
95.52
95.7552
96.0173
96.2548
96.3919
96.2297
96.2341
96.7329
97.4727
70.5458
69.6915
67.5465
64.9436
63.1966
62.5431
62.3115
61.9925
61.4145
60.903
60.4148
59.8666
59.1385
58.5797
58.6902
59.1297
59.913
60.9025
61.7615
62.6689
63.7463
64.9531
66.2762
67.5279
69.0807
70.9007
73.1759
75.4121
77.4502
79.4548
81.4814
82.9915
84.4026
85.8383
87.4634
89.1228
90.4679
91.7643
92.6384
93.3635
93.6102
93.6265
93.2902
92.7624
92.1914
91.6647
91.2271
90.8997
90.7706
90.5823
90.6256
90.567
90.6602
90.7449
90.8187
90.9246
91.0071
91.0142
91.0447
90.9115
90.7669
90.5412
90.4079
90.197
90.0739
89.9432
89.8754
89.8792
89.9873
90.0411
90.1178
89.8388
90.0515
89.892
90.1918
90.2415
90.3553
90.7452
90.9903
91.5789
91.9235
92.4673
92.8961
93.3355
93.6835
93.9872
94.2212
94.4242
94.6105
94.7877
94.9931
95.2206
95.483
95.7703
96.0315
96.2035
96.1434
96.1957
96.7714
97.4319
70.5254
69.6083
67.3787
64.6901
62.8806
62.1325
61.6752
61.1821
60.5115
59.8361
59.1951
58.5545
57.9332
57.5101
57.6074
58.0238
58.7646
59.7799
60.7325
61.7272
62.9192
64.2083
65.5938
66.8723
68.4094
70.2037
72.4408
74.65
76.6663
78.5849
80.5663
81.9394
83.2433
84.6285
86.1654
87.8079
89.074
90.2785
91.0691
91.7048
91.9315
91.9621
91.7012
91.2397
90.7351
90.23
89.8054
89.4922
89.4121
89.2785
89.3656
89.3688
89.4748
89.6183
89.7003
89.887
90.029
90.1184
90.1952
90.1202
90.0011
89.7899
89.647
89.4538
89.3422
89.2296
89.1743
89.1946
89.3261
89.3667
89.4676
89.1888
89.4011
89.2333
89.4654
89.5498
89.6107
90.0753
90.3401
90.9776
91.344
91.9236
92.3835
92.8448
93.2075
93.5161
93.7692
93.9855
94.1937
94.3805
94.6039
94.843
95.1309
95.4325
95.7268
95.9477
96
96.1488
96.7352
97.5343
70.5072
69.5194
67.2488
64.5412
62.6902
61.7999
61.0691
60.4033
59.678
58.86
58.0867
57.3674
56.8939
56.6489
56.7239
57.1212
57.8291
58.8918
59.9597
61.0602
62.3758
63.7629
65.2005
66.5107
68.0206
69.7699
71.9222
74.0563
76.0246
77.8195
79.7031
80.9631
82.1412
83.4805
84.8897
86.4649
87.6536
88.7403
89.4417
89.9871
90.1935
90.231
90.0403
89.6427
89.1829
88.6877
88.261
87.967
87.9242
87.8346
87.9647
88.0364
88.1549
88.3726
88.4787
88.7627
88.9658
89.1465
89.2718
89.2722
89.178
89.0073
88.8706
88.7046
88.595
88.5049
88.461
88.4947
88.6474
88.6712
88.7742
88.5155
88.7065
88.5243
88.6914
88.8204
88.8395
89.374
89.6637
90.3204
90.7143
91.313
91.8078
92.2887
92.6703
92.9765
93.2576
93.4799
93.7062
93.9092
94.1465
94.3982
94.6898
95.0094
95.3329
95.6137
95.7871
96.0521
96.7555
97.4672
70.4345
69.3664
67.1084
64.46
62.6099
61.5527
60.5561
59.737
58.9903
58.0573
57.1927
56.4257
56.1322
56.0791
56.1053
56.4761
57.1675
58.275
59.455
60.6605
62.0893
63.5842
65.061
66.4076
67.8873
69.5752
71.5925
73.6008
75.487
77.1398
78.8662
80.0447
81.0865
82.3716
83.6507
85.1057
86.2058
87.1544
87.7656
88.2335
88.4226
88.4705
88.3267
87.9771
87.5547
87.0619
86.6306
86.3636
86.3427
86.3001
86.4656
86.5994
86.7328
87.0342
87.177
87.5614
87.8179
88.0979
88.2865
88.3688
88.3242
88.2009
88.0777
87.9364
87.8392
87.7847
87.7593
87.7964
87.9508
87.9633
88.0439
87.8216
87.9677
87.7767
87.8942
88.0488
88.0522
88.6347
88.9712
89.6219
90.0457
90.6457
91.1713
91.6649
92.068
92.3779
92.6876
92.9071
93.1459
93.3649
93.6148
93.8734
94.1701
94.4924
94.8507
95.182
95.4826
95.851
96.6038
97.5294
70.2502
69.1092
66.9154
64.4276
62.6315
61.4178
60.2209
59.2921
58.5541
57.5623
56.6468
55.8507
55.7175
55.8335
55.8002
56.1332
56.8213
57.9527
59.2172
60.5143
62.0313
63.6152
65.1202
66.4985
67.9543
69.5771
71.4252
73.2636
75.0179
76.5176
78.0484
79.1673
80.0911
81.2943
82.4542
83.7544
84.7482
85.5497
86.0798
86.4754
86.6455
86.6983
86.5815
86.2735
85.8713
85.3783
84.9541
84.7137
84.7163
84.7253
84.9198
85.1046
85.2754
85.6407
85.8501
86.3095
86.6492
87.0032
87.272
87.4276
87.4442
87.3717
87.277
87.176
87.1114
87.0874
87.0816
87.1071
87.2526
87.2507
87.3036
87.1067
87.1983
87.017
87.0953
87.2634
87.2954
87.8773
88.2871
88.8931
89.355
89.9385
90.4907
90.9858
91.4186
91.7247
92.0628
92.2728
92.5301
92.753
93.0139
93.2721
93.5724
93.8887
94.2704
94.6529
95.0594
95.5691
96.4095
97.1859
69.9468
68.7252
66.6468
64.4009
62.7538
61.4401
60.1394
59.1548
58.4525
57.4597
56.5144
55.6869
55.6636
55.9016
55.8258
56.0942
56.7896
57.9167
59.2249
60.5929
62.1573
63.8071
65.3238
66.7133
68.1426
69.6955
71.3692
73.0235
74.6071
75.9579
77.2865
78.3345
79.1679
80.2471
81.2911
82.428
83.3001
83.9721
84.4252
84.7507
84.8936
84.9394
84.8339
84.5523
84.1579
83.674
83.2699
83.0579
83.0894
83.1469
83.3749
83.6058
83.8391
84.2535
84.5634
85.0758
85.5074
85.9103
86.2567
86.4787
86.5668
86.5511
86.5007
86.4446
86.4123
86.4076
86.4234
86.433
86.5623
86.5371
86.5604
86.371
86.4163
86.2678
86.3217
86.5094
86.6034
87.1339
87.6045
88.1542
88.6528
89.2207
89.79
90.2749
90.7308
91.0298
91.3923
91.5991
91.8646
92.0909
92.3541
92.6047
92.9047
93.1974
93.5956
93.9979
94.4751
95.0304
95.8511
96.8467
69.5638
68.2805
66.358
64.3828
62.9749
61.6467
60.3354
59.3497
58.7068
57.7573
56.7884
55.9278
55.9511
56.2681
56.1701
56.3548
57.0486
58.1408
59.4602
60.8743
62.4292
64.1124
65.6204
67.0027
68.3978
69.8817
71.3873
72.8641
74.2572
75.4646
76.6065
77.5584
78.3179
79.238
80.1612
81.138
81.8882
82.4511
82.824
83.0793
83.1886
83.2285
83.1205
82.8469
82.4524
81.9903
81.6148
81.4378
81.5027
81.6098
81.8776
82.1596
82.4692
82.9389
83.3528
83.9059
84.4229
84.8686
85.2854
85.5643
85.7215
85.7608
85.7574
85.7457
85.755
85.7621
85.7955
85.7823
85.8855
85.828
85.8298
85.6363
85.647
85.5429
85.5868
85.8013
85.9646
86.4176
86.924
87.4297
87.9684
88.5113
89.0839
89.5471
90.0252
90.3058
90.6826
90.8839
91.1535
91.3798
91.6463
91.8741
92.1816
92.4378
92.8304
93.2249
93.72
94.3124
95.1387
95.9248
69.2206
67.8887
66.139
64.4191
63.2866
62.0371
60.7854
59.8467
59.2846
58.4074
57.4327
56.5502
56.5443
56.8973
56.8038
56.9063
57.5768
58.6136
59.8894
61.2994
62.8128
64.4826
65.9783
67.3441
68.7004
70.1165
71.4623
72.7687
73.973
75.0351
76.0152
76.8522
77.5361
78.2874
79.0794
79.9039
80.5399
81.0032
81.2976
81.4908
81.5728
81.5959
81.4676
81.1892
80.7979
80.366
80.0256
79.8915
79.9959
80.1596
80.4756
80.8165
81.2045
81.7299
82.2339
82.8309
83.4278
83.9197
84.3887
84.712
84.9265
85.0205
85.075
85.1075
85.1597
85.159
85.2077
85.1592
85.2457
85.1503
85.1443
84.9398
84.9304
84.8656
84.9223
85.1499
85.3699
85.7483
86.2765
86.7502
87.3172
87.8226
88.3888
88.8161
89.3099
89.5573
89.941
90.136
90.4113
90.6362
90.9018