/*--------------------------------*- C++ -*----------------------------------*\
| =========                 |                                                 |
| \\      /  F ield         | OpenFOAM: The Open Source CFD Toolbox           |
|  \\    /   O peration     | Version:  2.4.0                                 |
|   \\  /    A nd           | Web:      www.OpenFOAM.org                      |
|    \\/     M anipulation  |                                                 |
\*---------------------------------------------------------------------------*/
FoamFile
{
    version     2.0;
    format      ascii;
    class       volVectorField;
    location    "0.196";
    object      UMean;
}
// * * * * * * * * * * * * * * * * * * * * * * * * * * * * * * * * * * * * * //

dimensions      [0 1 -1 0 0 0 0];

internalField   nonuniform List<vector> 
4400
(
(5.42792 0.31434 0)
(3.3868 0.0612174 0)
(2.66009 0.00153586 0)
(2.32048 -0.0022478 0)
(2.17615 -0.00145703 0)
(2.10397 -0.000751106 0)
(2.0633 -0.000222399 0)
(2.03799 -0.000321637 0)
(2.03684 0.000991013 0)
(1.87671 -0.0529931 0)
(8.67641 0.847531 0)
(7.60319 0.340444 0)
(6.70359 0.114123 0)
(6.01063 0.0523362 0)
(5.63279 0.0246673 0)
(5.41625 0.0134216 0)
(5.29284 0.00871276 0)
(5.21134 0.00359212 0)
(5.16408 0.0138448 0)
(5.10838 -0.110095 0)
(9.85662 0.924015 0)
(10.0229 0.469454 0)
(9.53063 0.208204 0)
(8.8216 0.123762 0)
(8.34903 0.0701123 0)
(8.0333 0.0400706 0)
(7.86033 0.0254105 0)
(7.71653 0.0143889 0)
(7.67121 0.013532 0)
(7.56676 -0.106161 0)
(10.0784 0.794405 0)
(11.1205 0.488134 0)
(11.2658 0.258747 0)
(10.8439 0.18785 0)
(10.4675 0.122528 0)
(10.1375 0.0754163 0)
(9.97636 0.0488978 0)
(9.77832 0.0286934 0)
(9.77545 0.0199537 0)
(9.57586 -0.10102 0)
(10.0084 0.637136 0)
(11.3212 0.42735 0)
(11.9525 0.239482 0)
(11.9358 0.206488 0)
(11.8441 0.156505 0)
(11.6214 0.10478 0)
(11.5682 0.0742578 0)
(11.3649 0.0419223 0)
(11.4106 0.0322463 0)
(11.2138 -0.107451 0)
(9.98178 0.507245 0)
(11.2378 0.352889 0)
(12.0146 0.18269 0)
(12.2158 0.175688 0)
(12.3945 0.149691 0)
(12.3767 0.110139 0)
(12.4814 0.0823633 0)
(12.4053 0.0518547 0)
(12.4849 0.0324299 0)
(12.3907 -0.0878243 0)
(9.98373 0.390978 0)
(11.173 0.283288 0)
(11.9494 0.1329 0)
(12.2013 0.131497 0)
(12.4392 0.118389 0)
(12.556 0.0896922 0)
(12.7489 0.0689684 0)
(12.8335 0.0452823 0)
(12.9665 0.0165071 0)
(13.0018 -0.0376712 0)
(9.97084 0.271877 0)
(11.1452 0.212985 0)
(11.8855 0.0866743 0)
(12.1785 0.0974156 0)
(12.3849 0.0787844 0)
(12.5476 0.0693916 0)
(12.7357 0.0392496 0)
(12.8886 0.0352542 0)
(13.0377 -0.0140121 0)
(13.1349 -0.0377019 0)
(9.95641 0.165063 0)
(11.1257 0.126114 0)
(11.845 0.0529404 0)
(12.1655 0.0549267 0)
(12.3478 0.0497713 0)
(12.5283 0.0369306 0)
(12.7005 0.0234891 0)
(12.8684 0.00673058 0)
(13.0074 -0.0259157 0)
(13.1023 -0.0940075 0)
(9.95701 0.0523323 0)
(11.1086 0.0455443 0)
(11.8321 0.0131523 0)
(12.1521 0.0221063 0)
(12.3361 0.0105701 0)
(12.5128 0.0152315 0)
(12.6872 -0.00433134 0)
(12.8509 -0.00837355 0)
(12.9893 -0.0541901 0)
(13.0689 -0.117045 0)
(9.95701 -0.0538452 0)
(11.1091 -0.0419914 0)
(11.8314 -0.0184169 0)
(12.1527 -0.0185371 0)
(12.3359 -0.0204737 0)
(12.5133 -0.0159862 0)
(12.6861 -0.0233666 0)
(12.8491 -0.0327907 0)
(12.9826 -0.0740826 0)
(13.0567 -0.139271 0)
(9.96413 -0.165405 0)
(11.1202 -0.124234 0)
(11.8505 -0.0560277 0)
(12.1609 -0.0540474 0)
(12.3519 -0.0564882 0)
(12.5235 -0.0418309 0)
(12.7002 -0.0463731 0)
(12.8572 -0.053468 0)
(12.991 -0.094916 0)
(13.0579 -0.160921 0)
(9.98521 -0.274943 0)
(11.1329 -0.208015 0)
(11.8964 -0.0928365 0)
(12.1683 -0.0925265 0)
(12.3921 -0.0899064 0)
(12.5364 -0.0692711 0)
(12.7365 -0.0683869 0)
(12.8658 -0.0739863 0)
(13.008 -0.114435 0)
(13.0428 -0.183629 0)
(10.0005 -0.391222 0)
(11.1543 -0.281902 0)
(11.9653 -0.135631 0)
(12.1824 -0.130173 0)
(12.4541 -0.124978 0)
(12.5333 -0.0950754 0)
(12.756 -0.0905597 0)
(12.7879 -0.0917365 0)
(12.9189 -0.130011 0)
(12.8227 -0.198892 0)
(9.98911 -0.509213 0)
(11.2257 -0.350405 0)
(12.0246 -0.18626 0)
(12.2021 -0.173117 0)
(12.4045 -0.156845 0)
(12.3553 -0.114736 0)
(12.4767 -0.102604 0)
(12.3434 -0.0975749 0)
(12.3872 -0.128405 0)
(12.1105 -0.19426 0)
(10.0122 -0.637812 0)
(11.3138 -0.425902 0)
(11.959 -0.241986 0)
(11.9247 -0.20467 0)
(11.8504 -0.162912 0)
(11.5973 -0.108734 0)
(11.5512 -0.09207 0)
(11.2872 -0.0809634 0)
(11.2506 -0.114109 0)
(10.8584 -0.150727 0)
(10.0796 -0.795089 0)
(11.1153 -0.487346 0)
(11.2705 -0.260529 0)
(10.832 -0.186628 0)
(10.4762 -0.12774 0)
(10.1012 -0.0779583 0)
(9.96699 -0.0645037 0)
(9.66333 -0.0565134 0)
(9.6004 -0.0882742 0)
(9.1426 -0.0973535 0)
(9.85629 -0.924273 0)
(10.0203 -0.468983 0)
(9.533 -0.209226 0)
(8.81237 -0.123212 0)
(8.35463 -0.0733321 0)
(7.99601 -0.0422247 0)
(7.85145 -0.0357573 0)
(7.58027 -0.033456 0)
(7.51542 -0.0565833 0)
(7.03596 -0.0560399 0)
(8.67593 -0.847656 0)
(7.60195 -0.340286 0)
(6.70414 -0.11458 0)
(6.00469 -0.0521984 0)
(5.63402 -0.0261608 0)
(5.38654 -0.0146882 0)
(5.27917 -0.0136063 0)
(5.08808 -0.0147903 0)
(5.02337 -0.0265688 0)
(4.61598 -0.0240125 0)
(5.4276 -0.314365 0)
(3.38644 -0.0611835 0)
(2.6598 -0.00160999 0)
(2.318 0.00228051 0)
(2.17477 0.00131296 0)
(2.08967 0.000494764 0)
(2.04878 -0.000197609 0)
(1.97344 -0.00115492 0)
(1.92551 -0.00250908 0)
(1.73086 0.00926046 0)
(2.90988 -0.169026 0)
(3.25885 -0.0710805 0)
(3.87271 -0.14679 0)
(4.19875 -0.200418 0)
(4.66629 -0.261543 0)
(4.88889 -0.317536 0)
(5.34358 -0.375667 0)
(5.57869 -0.472414 0)
(6.05305 -0.585501 0)
(6.24474 -0.606756 0)
(6.66951 -0.715674 0)
(6.93956 -0.770203 0)
(7.35786 -0.919312 0)
(7.69121 -1.04915 0)
(8.08327 -1.17839 0)
(8.42126 -1.29541 0)
(8.82003 -1.48621 0)
(9.12315 -1.6288 0)
(9.39181 -1.79096 0)
(9.68069 -1.90974 0)
(9.85111 -2.0333 0)
(10.0813 -2.11707 0)
(10.1761 -2.20217 0)
(10.3639 -2.2586 0)
(10.4536 -2.31979 0)
(10.5304 -2.33044 0)
(10.5117 -2.32594 0)
(10.4731 -2.29235 0)
(10.3545 -2.23746 0)
(10.1865 -2.11845 0)
(10.0116 -2.02529 0)
(9.90172 -1.93301 0)
(9.69678 -1.85823 0)
(9.55163 -1.73645 0)
(9.23606 -1.63394 0)
(9.00987 -1.45835 0)
(8.70363 -1.29735 0)
(8.38025 -1.04522 0)
(8.18467 -0.893473 0)
(7.9067 -0.68092 0)
(7.83731 -0.537806 0)
(7.61184 -0.331694 0)
(7.55448 -0.215879 0)
(7.43275 -0.00116282 0)
(7.40061 0.0860486 0)
(7.31162 0.321898 0)
(7.32333 0.374593 0)
(7.15579 0.618279 0)
(7.2189 0.572297 0)
(7.07388 0.781925 0)
(7.14874 0.699156 0)
(7.06811 0.967107 0)
(7.11418 0.83383 0)
(7.08128 1.1294 0)
(7.11581 0.913739 0)
(7.10641 1.23051 0)
(7.14571 0.884178 0)
(7.11901 1.20184 0)
(7.15175 0.750021 0)
(7.15665 1.10342 0)
(7.16475 0.5669 0)
(7.14303 0.923763 0)
(7.08664 0.279666 0)
(7.06142 0.676776 0)
(6.9619 -0.011017 0)
(6.97427 0.500569 0)
(6.8945 -0.192541 0)
(6.92837 0.407497 0)
(6.89174 -0.286009 0)
(6.87118 0.354354 0)
(6.88387 -0.356882 0)
(6.79462 0.339821 0)
(6.832 -0.374143 0)
(6.74886 0.358353 0)
(6.78826 -0.385045 0)
(6.76795 0.311885 0)
(6.83038 -0.426619 0)
(6.74988 0.308986 0)
(6.86779 -0.391608 0)
(6.63812 0.382961 0)
(6.83956 -0.259272 0)
(6.52803 0.474882 0)
(6.81327 -0.0919802 0)
(6.38049 0.625804 0)
(6.80644 0.124948 0)
(6.24543 0.80523 0)
(6.75047 0.342539 0)
(6.15506 1.03859 0)
(6.69773 0.682634 0)
(6.09662 1.36276 0)
(6.63012 1.05898 0)
(6.01932 1.74125 0)
(6.57138 1.49805 0)
(5.93931 2.28309 0)
(6.43275 2.05381 0)
(5.63477 3.05763 0)
(6.44545 2.87067 0)
(5.28324 4.51608 0)
(6.46861 4.70118 0)
(3.8006 8.6545 0)
(5.40731 -0.188419 0)
(5.48739 -0.157006 0)
(5.81411 -0.248846 0)
(5.96706 -0.329519 0)
(6.29879 -0.40149 0)
(6.46087 -0.453848 0)
(6.80258 -0.524672 0)
(7.00565 -0.603963 0)
(7.35917 -0.719408 0)
(7.54536 -0.753249 0)
(7.85303 -0.853663 0)
(8.10426 -0.91923 0)
(8.45294 -1.05577 0)
(8.78364 -1.19527 0)
(9.12154 -1.33486 0)
(9.42115 -1.44891 0)
(9.75313 -1.61615 0)
(10.0131 -1.74439 0)
(10.2123 -1.89156 0)
(10.4221 -2.00012 0)
(10.5179 -2.10476 0)
(10.6871 -2.17781 0)
(10.755 -2.25161 0)
(10.8583 -2.2984 0)
(10.8822 -2.33397 0)
(10.8473 -2.32041 0)
(10.7731 -2.29802 0)
(10.6423 -2.23729 0)
(10.4195 -2.15967 0)
(10.2111 -2.0474 0)
(10.0131 -1.95875 0)
(9.86126 -1.86183 0)
(9.59263 -1.76903 0)
(9.39701 -1.62574 0)
(9.01502 -1.50653 0)
(8.77008 -1.32807 0)
(8.39783 -1.16506 0)
(8.1039 -0.927973 0)
(7.88563 -0.800634 0)
(7.61734 -0.597935 0)
(7.5678 -0.47641 0)
(7.31986 -0.27776 0)
(7.30737 -0.17275 0)
(7.16797 0.0292285 0)
(7.18491 0.107296 0)
(7.08714 0.346364 0)
(7.13264 0.400834 0)
(6.96106 0.643401 0)
(7.06472 0.577514 0)
(6.92748 0.804133 0)
(7.01392 0.697145 0)
(6.92375 0.985335 0)
(7.01059 0.829356 0)
(6.9546 1.14911 0)
(7.00391 0.896515 0)
(7.01568 1.24142 0)
(7.02506 0.863726 0)
(7.08286 1.21927 0)
(7.06316 0.7233 0)
(7.14264 1.12186 0)
(7.12378 0.53533 0)
(7.15094 0.970278 0)
(7.09705 0.259437 0)
(7.08031 0.742785 0)
(6.97943 -0.0320147 0)
(6.98867 0.571031 0)
(6.90984 -0.232237 0)
(6.91182 0.459817 0)
(6.90308 -0.334461 0)
(6.8447 0.415356 0)
(6.89975 -0.398635 0)
(6.75002 0.420566 0)
(6.85555 -0.430342 0)
(6.7132 0.435998 0)
(6.86231 -0.465084 0)
(6.75179 0.393032 0)
(6.90353 -0.511223 0)
(6.71676 0.412177 0)
(6.92571 -0.485547 0)
(6.60319 0.506199 0)
(6.97661 -0.376287 0)
(6.52282 0.607619 0)
(7.02274 -0.206096 0)
(6.43545 0.765873 0)
(7.08173 -0.00121055 0)
(6.37216 0.95964 0)
(7.03944 0.228737 0)
(6.27441 1.20959 0)
(6.91682 0.535 0)
(6.19617 1.54865 0)
(6.89123 0.911459 0)
(6.11417 1.93597 0)
(6.86848 1.31621 0)
(6.08704 2.48908 0)
(6.95134 1.94515 0)
(5.85257 3.38108 0)
(6.82837 2.73566 0)
(5.23574 4.80199 0)
(8.18208 4.1684 0)
(5.80815 9.1434 0)
(7.75883 -0.227901 0)
(7.73725 -0.225514 0)
(7.93813 -0.310375 0)
(8.0282 -0.393988 0)
(8.23164 -0.478914 0)
(8.33701 -0.528996 0)
(8.54187 -0.606686 0)
(8.67377 -0.682287 0)
(8.89517 -0.797186 0)
(9.03487 -0.852428 0)
(9.24067 -0.948569 0)
(9.44634 -1.03377 0)
(9.70391 -1.16755 0)
(9.97201 -1.31139 0)
(10.2227 -1.44919 0)
(10.4174 -1.56238 0)
(10.6431 -1.70868 0)
(10.8262 -1.8222 0)
(10.9501 -1.94953 0)
(11.0576 -2.04357 0)
(11.0948 -2.13491 0)
(11.1792 -2.2086 0)
(11.1933 -2.27045 0)
(11.1982 -2.30328 0)
(11.136 -2.3144 0)
(11.0183 -2.28383 0)
(10.8748 -2.24001 0)
(10.647 -2.15021 0)
(10.3748 -2.06285 0)
(10.1535 -1.96115 0)
(9.90918 -1.87271 0)
(9.71342 -1.76206 0)
(9.37389 -1.64681 0)
(9.11941 -1.49016 0)
(8.70334 -1.36151 0)
(8.44705 -1.19059 0)
(8.01634 -1.02421 0)
(7.75701 -0.811315 0)
(7.49671 -0.704374 0)
(7.26512 -0.516623 0)
(7.22044 -0.422918 0)
(6.97025 -0.22742 0)
(7.00901 -0.136544 0)
(6.84968 0.0506936 0)
(6.91227 0.124886 0)
(6.81635 0.363858 0)
(6.86597 0.422439 0)
(6.73037 0.658582 0)
(6.83085 0.576965 0)
(6.74785 0.815489 0)
(6.81364 0.695622 0)
(6.74536 0.988521 0)
(6.83744 0.814716 0)
(6.78969 1.1533 0)
(6.86871 0.873317 0)
(6.8709 1.24034 0)
(6.89186 0.832031 0)
(7.00105 1.22095 0)
(6.94259 0.691798 0)
(7.10474 1.12613 0)
(7.03114 0.511784 0)
(7.13495 0.995785 0)
(7.05988 0.252288 0)
(7.08183 0.796128 0)
(6.9542 -0.0417767 0)
(6.98213 0.608381 0)
(6.88563 -0.25066 0)
(6.89028 0.508451 0)
(6.85395 -0.354649 0)
(6.81607 0.461576 0)
(6.83873 -0.427584 0)
(6.72723 0.471861 0)
(6.80161 -0.476762 0)
(6.69543 0.48171 0)
(6.84542 -0.531323 0)
(6.71607 0.463726 0)
(6.88016 -0.578762 0)
(6.65387 0.503417 0)
(6.91154 -0.572397 0)
(6.55826 0.604844 0)
(7.0481 -0.506133 0)
(6.51157 0.721277 0)
(7.21344 -0.345935 0)
(6.47054 0.885802 0)
(7.41067 -0.145402 0)
(6.47486 1.09792 0)
(7.50199 0.10302 0)
(6.43318 1.36368 0)
(7.49806 0.415722 0)
(6.28478 1.6962 0)
(7.45265 0.778623 0)
(6.1955 2.09733 0)
(7.32746 1.15534 0)
(6.06895 2.60275 0)
(7.58773 1.65391 0)
(6.12459 3.52507 0)
(8.38014 2.54698 0)
(5.52328 5.15995 0)
(9.11052 3.5805 0)
(6.93792 9.11315 0)
(9.75934 -0.264901 0)
(9.71178 -0.283132 0)
(9.82123 -0.357551 0)
(9.89867 -0.433522 0)
(10.0246 -0.519685 0)
(10.0979 -0.577222 0)
(10.2061 -0.656247 0)
(10.282 -0.732374 0)
(10.4006 -0.840171 0)
(10.4971 -0.914382 0)
(10.6305 -1.01169 0)
(10.7747 -1.10968 0)
(10.933 -1.2411 0)
(11.0904 -1.38535 0)
(11.2333 -1.52168 0)
(11.3156 -1.62873 0)
(11.4131 -1.75836 0)
(11.4954 -1.86159 0)
(11.5328 -1.96753 0)
(11.5488 -2.04977 0)
(11.5319 -2.1339 0)
(11.531 -2.20806 0)
(11.4691 -2.2562 0)
(11.3816 -2.27074 0)
(11.2358 -2.26004 0)
(11.0528 -2.21131 0)
(10.8209 -2.14456 0)
(10.5334 -2.04043 0)
(10.2573 -1.95468 0)
(10.0014 -1.85253 0)
(9.69804 -1.76353 0)
(9.43098 -1.63578 0)
(9.02847 -1.49947 0)
(8.7236 -1.3426 0)
(8.30599 -1.20998 0)
(8.02579 -1.0414 0)
(7.55807 -0.875101 0)
(7.3316 -0.695405 0)
(7.04393 -0.613161 0)
(6.88136 -0.443784 0)
(6.82547 -0.378366 0)
(6.59375 -0.183527 0)
(6.6801 -0.111954 0)
(6.49413 0.0706359 0)
(6.60606 0.137544 0)
(6.49296 0.378305 0)
(6.56158 0.429768 0)
(6.46373 0.674252 0)
(6.54895 0.568655 0)
(6.50642 0.825826 0)
(6.56792 0.686537 0)
(6.54003 0.999909 0)
(6.62006 0.800505 0)
(6.58459 1.15757 0)
(6.69898 0.848826 0)
(6.6765 1.24879 0)
(6.74627 0.787249 0)
(6.83234 1.22809 0)
(6.82405 0.644864 0)
(6.99944 1.13156 0)
(6.92091 0.476677 0)
(7.07238 1.00757 0)
(6.99403 0.231379 0)
(7.03355 0.841604 0)
(6.9211 -0.0419204 0)
(6.91798 0.666836 0)
(6.83764 -0.26188 0)
(6.81823 0.559283 0)
(6.77902 -0.387783 0)
(6.73656 0.519048 0)
(6.75127 -0.460485 0)
(6.64945 0.541879 0)
(6.73544 -0.524995 0)
(6.60751 0.544251 0)
(6.7847 -0.605091 0)
(6.56665 0.561787 0)
(6.80547 -0.662043 0)
(6.49195 0.625189 0)
(6.85993 -0.693555 0)
(6.41294 0.733915 0)
(7.04571 -0.651676 0)
(6.34931 0.860502 0)
(7.32885 -0.510067 0)
(6.31794 1.01777 0)
(7.64557 -0.349227 0)
(6.37551 1.24577 0)
(7.90082 -0.0978448 0)
(6.43793 1.53769 0)
(8.10373 0.234039 0)
(6.45546 1.91882 0)
(8.18891 0.611491 0)
(6.4129 2.37773 0)
(8.01968 1.01802 0)
(6.07532 2.9341 0)
(7.88222 1.36593 0)
(5.66103 3.71991 0)
(9.02958 2.04039 0)
(6.05843 5.29229 0)
(10.5704 2.69992 0)
(8.17697 8.55537 0)
(11.3382 -0.249974 0)
(11.32 -0.283177 0)
(11.3565 -0.369192 0)
(11.4026 -0.450986 0)
(11.471 -0.539066 0)
(11.5158 -0.607212 0)
(11.5604 -0.686132 0)
(11.5932 -0.762656 0)
(11.6464 -0.864426 0)
(11.705 -0.953817 0)
(11.7771 -1.05443 0)
(11.8516 -1.15556 0)
(11.9187 -1.27805 0)
(11.9707 -1.41015 0)
(12.0082 -1.54362 0)
(12.0015 -1.64693 0)
(11.9814 -1.76519 0)
(11.9618 -1.8664 0)
(11.9122 -1.96159 0)
(11.866 -2.04205 0)
(11.8012 -2.11759 0)
(11.7274 -2.18068 0)
(11.589 -2.20931 0)
(11.4227 -2.20652 0)
(11.2019 -2.1772 0)
(10.9483 -2.11153 0)
(10.645 -2.02858 0)
(10.3419 -1.9247 0)
(10.0485 -1.83407 0)
(9.7331 -1.72314 0)
(9.36618 -1.62509 0)
(9.01546 -1.48378 0)
(8.57204 -1.33918 0)
(8.24865 -1.19365 0)
(7.81889 -1.05278 0)
(7.5129 -0.884337 0)
(7.03552 -0.726901 0)
(6.85047 -0.594514 0)
(6.56289 -0.534836 0)
(6.48639 -0.392936 0)
(6.38593 -0.341998 0)
(6.20136 -0.147183 0)
(6.30935 -0.0969822 0)
(6.12267 0.0832804 0)
(6.27216 0.145883 0)
(6.13702 0.385489 0)
(6.22117 0.43252 0)
(6.17184 0.673654 0)
(6.23161 0.551781 0)
(6.24678 0.82859 0)
(6.25388 0.668106 0)
(6.30886 0.996228 0)
(6.34389 0.782258 0)
(6.38138 1.143 0)
(6.44611 0.816337 0)
(6.50091 1.2315 0)
(6.54372 0.747236 0)
(6.65046 1.21078 0)
(6.67407 0.597017 0)
(6.85393 1.12047 0)
(6.7981 0.443254 0)
(6.99846 1.00543 0)
(6.87593 0.226682 0)
(6.98248 0.862555 0)
(6.83764 -0.0307825 0)
(6.86417 0.692554 0)
(6.7283 -0.26426 0)
(6.75537 0.592878 0)
(6.65654 -0.402773 0)
(6.67662 0.555421 0)
(6.62357 -0.491189 0)
(6.5875 0.578881 0)
(6.62497 -0.564681 0)
(6.52955 0.590889 0)
(6.6401 -0.666434 0)
(6.4533 0.624854 0)
(6.6689 -0.743832 0)
(6.38053 0.711612 0)
(6.74087 -0.793122 0)
(6.31084 0.828488 0)
(6.95739 -0.790402 0)
(6.2306 0.954196 0)
(7.28531 -0.676877 0)
(6.20713 1.12558 0)
(7.62808 -0.546609 0)
(6.2352 1.36664 0)
(8.02935 -0.349692 0)
(6.32951 1.6716 0)
(8.55918 -0.0800254 0)
(6.45302 2.04245 0)
(9.21509 0.281004 0)
(6.65153 2.52652 0)
(9.8419 0.796565 0)
(6.5473 3.14254 0)
(10.1775 1.38624 0)
(5.85449 3.98317 0)
(10.0939 1.77961 0)
(5.88255 5.64265 0)
(10.1802 1.90575 0)
(8.78696 7.95688 0)
(12.458 -0.263661 0)
(12.4511 -0.335235 0)
(12.4569 -0.414488 0)
(12.4814 -0.478874 0)
(12.5101 -0.55005 0)
(12.5243 -0.615445 0)
(12.5207 -0.691691 0)
(12.5165 -0.76997 0)
(12.5213 -0.869981 0)
(12.534 -0.965879 0)
(12.5403 -1.06734 0)
(12.5463 -1.16647 0)
(12.5371 -1.27919 0)
(12.5135 -1.39629 0)
(12.4686 -1.52349 0)
(12.4005 -1.62733 0)
(12.3052 -1.73751 0)
(12.2154 -1.83752 0)
(12.1122 -1.93182 0)
(12.0264 -2.0139 0)
(11.9137 -2.0803 0)
(11.7698 -2.12502 0)
(11.5681 -2.1353 0)
(11.3334 -2.11583 0)
(11.048 -2.06969 0)
(10.7324 -1.98704 0)
(10.397 -1.8963 0)
(10.0694 -1.79142 0)
(9.72386 -1.69031 0)
(9.33983 -1.56863 0)
(8.91755 -1.45922 0)
(8.49325 -1.30993 0)
(8.03766 -1.17172 0)
(7.69316 -1.03287 0)
(7.25134 -0.891927 0)
(6.9369 -0.728869 0)
(6.48242 -0.590793 0)
(6.34796 -0.510495 0)
(6.08311 -0.471776 0)
(6.06291 -0.3478 0)
(5.9069 -0.302059 0)
(5.79966 -0.1223 0)
(5.89829 -0.102356 0)
(5.74563 0.0885777 0)
(5.91475 0.142968 0)
(5.7612 0.389339 0)
(5.87247 0.418088 0)
(5.85209 0.678552 0)
(5.88864 0.521296 0)
(5.93103 0.835077 0)
(5.93904 0.643125 0)
(6.02764 0.998635 0)
(6.04442 0.757134 0)
(6.15278 1.13633 0)
(6.15371 0.786111 0)
(6.30112 1.20867 0)
(6.30729 0.710086 0)
(6.46201 1.18264 0)
(6.49708 0.542033 0)
(6.65891 1.10483 0)
(6.68224 0.39203 0)
(6.84184 1.01073 0)
(6.75666 0.218301 0)
(6.85103 0.895182 0)
(6.73042 -0.015957 0)
(6.74475 0.738673 0)
(6.62652 -0.267249 0)
(6.62887 0.639825 0)
(6.55556 -0.425673 0)
(6.53708 0.606991 0)
(6.51199 -0.520558 0)
(6.44705 0.63249 0)
(6.51382 -0.605659 0)
(6.3656 0.66377 0)
(6.52008 -0.730471 0)
(6.28941 0.709586 0)
(6.56922 -0.839971 0)
(6.23454 0.817092 0)
(6.66622 -0.924785 0)
(6.17036 0.946381 0)
(6.86027 -0.943492 0)
(6.05657 1.07554 0)
(7.20875 -0.848613 0)
(6.0251 1.25158 0)
(7.56335 -0.702999 0)
(5.95506 1.53245 0)
(7.94966 -0.522169 0)
(5.87531 1.85506 0)
(8.52979 -0.304608 0)
(5.82695 2.23166 0)
(9.32509 -0.0500795 0)
(5.99255 2.68209 0)
(10.452 0.382907 0)
(6.35652 3.28392 0)
(11.5116 0.872779 0)
(6.88403 4.2031 0)
(11.8117 1.24557 0)
(7.60401 5.74627 0)
(10.7277 1.70263 0)
(9.02669 7.26311 0)
(13.0339 -0.287977 0)
(13.0379 -0.401708 0)
(13.048 -0.458821 0)
(13.0643 -0.492943 0)
(13.0619 -0.541198 0)
(13.0458 -0.603816 0)
(13.0116 -0.682972 0)
(12.9786 -0.768123 0)
(12.9457 -0.866518 0)
(12.914 -0.962481 0)
(12.8698 -1.06181 0)
(12.8257 -1.15846 0)
(12.7668 -1.2641 0)
(12.6998 -1.37224 0)
(12.6128 -1.49252 0)
(12.5187 -1.59754 0)
(12.4043 -1.70049 0)
(12.2959 -1.79719 0)
(12.1769 -1.89118 0)
(12.0556 -1.97119 0)
(11.8866 -2.02499 0)
(11.6785 -2.05048 0)
(11.4195 -2.04114 0)
(11.1258 -2.00403 0)
(10.7838 -1.93833 0)
(10.432 -1.84563 0)
(10.0644 -1.74975 0)
(9.68622 -1.64003 0)
(9.27416 -1.52744 0)
(8.83934 -1.39787 0)
(8.37535 -1.27561 0)
(7.91339 -1.12613 0)
(7.45154 -0.997897 0)
(7.07765 -0.867963 0)
(6.63604 -0.732764 0)
(6.32318 -0.579218 0)
(5.91628 -0.472112 0)
(5.82405 -0.443272 0)
(5.58242 -0.415887 0)
(5.5914 -0.305025 0)
(5.39754 -0.26334 0)
(5.39061 -0.110774 0)
(5.43131 -0.108836 0)
(5.34163 0.0870885 0)
(5.51941 0.139235 0)
(5.35961 0.38798 0)
(5.49308 0.397901 0)
(5.50681 0.67233 0)
(5.52811 0.512724 0)
(5.58168 0.837374 0)
(5.57132 0.607193 0)
(5.71404 0.980799 0)
(5.70254 0.720405 0)
(5.90169 1.10922 0)
(5.84901 0.752904 0)
(6.0945 1.17129 0)
(6.03069 0.67285 0)
(6.28206 1.13409 0)
(6.25775 0.49088 0)
(6.47304 1.05771 0)
(6.48757 0.337724 0)
(6.65326 0.998903 0)
(6.58733 0.19955 0)
(6.69217 0.905127 0)
(6.5816 -0.00165318 0)
(6.60653 0.778032 0)
(6.49347 -0.253009 0)
(6.48502 0.668336 0)
(6.43642 -0.433965 0)
(6.39323 0.643194 0)
(6.36602 -0.535372 0)
(6.30346 0.668175 0)
(6.35146 -0.637089 0)
(6.24366 0.707701 0)
(6.37072 -0.779782 0)
(6.19161 0.759829 0)
(6.41333 -0.917693 0)
(6.1624 0.882821 0)
(6.50365 -1.02895 0)
(6.10984 1.02528 0)
(6.68262 -1.07384 0)
(6.00515 1.1503 0)
(7.02332 -1.00848 0)
(5.99817 1.32557 0)
(7.31147 -0.865318 0)
(5.95795 1.58415 0)
(7.59778 -0.687427 0)
(5.83622 1.91255 0)
(7.86727 -0.492998 0)
(5.75632 2.33727 0)
(8.20233 -0.290535 0)
(5.69513 2.86515 0)
(8.75533 0.00584693 0)
(5.9903 3.55484 0)
(9.59875 0.36052 0)
(6.87732 4.50426 0)
(10.7036 0.721536 0)
(8.32722 5.79871 0)
(11.5269 1.79423 0)
(9.65582 6.53548 0)
(13.129 -0.27503 0)
(13.1429 -0.400079 0)
(13.1749 -0.460998 0)
(13.1868 -0.492794 0)
(13.1678 -0.533865 0)
(13.1348 -0.59521 0)
(13.0902 -0.675257 0)
(13.0402 -0.761484 0)
(12.9862 -0.853739 0)
(12.9291 -0.944976 0)
(12.8656 -1.04094 0)
(12.8011 -1.13617 0)
(12.7277 -1.23792 0)
(12.6536 -1.34256 0)
(12.5685 -1.45746 0)
(12.4816 -1.56212 0)
(12.3791 -1.66114 0)
(12.2733 -1.75444 0)
(12.1401 -1.8402 0)
(11.9731 -1.90413 0)
(11.7469 -1.93759 0)
(11.4759 -1.94008 0)
(11.1582 -1.9126 0)
(10.8022 -1.85993 0)
(10.4117 -1.78157 0)
(10.0245 -1.68389 0)
(9.60678 -1.5819 0)
(9.17239 -1.46307 0)
(8.71163 -1.34149 0)
(8.24158 -1.20372 0)
(7.75215 -1.07111 0)
(7.27779 -0.929071 0)
(6.82375 -0.817998 0)
(6.43079 -0.700663 0)
(5.99941 -0.577944 0)
(5.68484 -0.437717 0)
(5.3506 -0.379229 0)
(5.27772 -0.384802 0)
(5.05756 -0.366956 0)
(5.09012 -0.270896 0)
(4.89241 -0.241878 0)
(4.9597 -0.112142 0)
(4.92362 -0.119431 0)
(4.9155 0.0717646 0)
(5.05525 0.125758 0)
(4.92966 0.389755 0)
(5.08213 0.367628 0)
(5.11689 0.663618 0)
(5.12866 0.472646 0)
(5.19557 0.845021 0)
(5.20423 0.567142 0)
(5.35276 0.968701 0)
(5.36212 0.674743 0)
(5.58411 1.08547 0)
(5.53443 0.704495 0)
(5.82708 1.13223 0)
(5.75735 0.624748 0)
(6.064 1.101 0)
(6.00605 0.441313 0)
(6.28078 1.02827 0)
(6.25421 0.285077 0)
(6.44384 0.999932 0)
(6.37921 0.177159 0)
(6.47898 0.9302 0)
(6.41399 -0.00117164 0)
(6.42014 0.8107 0)
(6.37132 -0.24694 0)
(6.30094 0.716237 0)
(6.32332 -0.434529 0)
(6.2113 0.702899 0)
(6.22845 -0.55243 0)
(6.12105 0.713093 0)
(6.21637 -0.68043 0)
(6.10572 0.754116 0)
(6.24936 -0.835391 0)
(6.0842 0.820466 0)
(6.29024 -1.00167 0)
(6.06319 0.966074 0)
(6.40146 -1.13636 0)
(5.98837 1.1231 0)
(6.55578 -1.21795 0)
(5.91277 1.22835 0)
(6.89359 -1.19309 0)
(5.90223 1.43272 0)
(7.17815 -1.04082 0)
(5.87488 1.70139 0)
(7.49472 -0.861073 0)
(5.78526 2.03301 0)
(7.72248 -0.703217 0)
(5.85765 2.41984 0)
(7.98433 -0.521102 0)
(5.95653 2.91872 0)
(8.19802 -0.334337 0)
(6.31508 3.63727 0)
(8.47133 -0.140024 0)
(6.9716 4.6729 0)
(9.31863 0.209736 0)
(8.17354 5.67092 0)
(11.0057 1.66303 0)
(10.1795 5.91692 0)
(13.0811 -0.269352 0)
(13.0992 -0.359381 0)
(13.1433 -0.417136 0)
(13.1605 -0.459547 0)
(13.14 -0.505961 0)
(13.0975 -0.568348 0)
(13.042 -0.648018 0)
(12.9813 -0.73481 0)
(12.9178 -0.824915 0)
(12.8557 -0.916065 0)
(12.7932 -1.01197 0)
(12.7332 -1.10987 0)
(12.6666 -1.21052 0)
(12.6001 -1.3143 0)
(12.5222 -1.42317 0)
(12.4356 -1.52647 0)
(12.3242 -1.62092 0)
(12.1929 -1.705 0)
(12.0132 -1.76975 0)
(11.7826 -1.80857 0)
(11.4867 -1.81734 0)
(11.1463 -1.79725 0)
(10.7607 -1.75395 0)
(10.3419 -1.69179 0)
(9.90466 -1.60526 0)
(9.47312 -1.50375 0)
(9.0005 -1.39475 0)
(8.52851 -1.26939 0)
(8.03636 -1.1415 0)
(7.54628 -1.00324 0)
(7.04649 -0.869963 0)
(6.57992 -0.741119 0)
(6.14048 -0.639364 0)
(5.74386 -0.532998 0)
(5.32483 -0.425424 0)
(5.03307 -0.31468 0)
(4.77838 -0.30168 0)
(4.72258 -0.329366 0)
(4.52053 -0.323802 0)
(4.57566 -0.241456 0)
(4.37845 -0.220704 0)
(4.49021 -0.108126 0)
(4.38848 -0.12157 0)
(4.45816 0.0598415 0)
(4.54701 0.117826 0)
(4.48699 0.381023 0)
(4.64463 0.323278 0)
(4.71817 0.654245 0)
(4.72635 0.467598 0)
(4.80063 0.830794 0)
(4.79318 0.52081 0)
(4.97413 0.935899 0)
(4.97398 0.61768 0)
(5.25037 1.04326 0)
(5.21021 0.657094 0)
(5.53378 1.08104 0)
(5.45549 0.569759 0)
(5.83628 1.05457 0)
(5.70373 0.385134 0)
(6.08704 0.983435 0)
(5.95255 0.237119 0)
(6.24103 0.972995 0)
(6.11016 0.146759 0)
(6.27678 0.923046 0)
(6.17536 0.00346526 0)
(6.23635 0.826526 0)
(6.18142 -0.228125 0)
(6.15928 0.727331 0)
(6.14097 -0.42778 0)
(6.08699 0.726651 0)
(6.06012 -0.549001 0)
(6.0188 0.721001 0)
(6.04024 -0.696149 0)
(6.02562 0.76812 0)
(6.06351 -0.859304 0)
(6.0409 0.842211 0)
(6.11612 -1.0421 0)
(6.00352 0.996246 0)
(6.21102 -1.20402 0)
(5.92687 1.18286 0)
(6.31954 -1.3088 0)
(5.86798 1.29905 0)
(6.5759 -1.32245 0)
(5.89202 1.49522 0)
(6.89284 -1.19462 0)
(5.86469 1.77856 0)
(7.16104 -1.01323 0)
(5.77044 2.14419 0)
(7.36771 -0.897545 0)
(5.86665 2.54334 0)
(7.63681 -0.739634 0)
(6.00081 3.0627 0)
(7.97247 -0.626029 0)
(6.45999 3.76297 0)
(8.30804 -0.431587 0)
(7.22916 4.62734 0)
(8.82807 -0.0108737 0)
(8.24821 5.32715 0)
(9.98791 1.37972 0)
(10.3173 5.25792 0)
(13.038 -0.245082 0)
(13.0579 -0.311896 0)
(13.1061 -0.37085 0)
(13.1226 -0.428413 0)
(13.099 -0.488438 0)
(13.0462 -0.555823 0)
(12.9832 -0.635163 0)
(12.9206 -0.720156 0)
(12.8634 -0.809132 0)
(12.8086 -0.898965 0)
(12.7547 -0.9924 0)
(12.6982 -1.08788 0)
(12.6334 -1.18579 0)
(12.5545 -1.28411 0)
(12.4583 -1.3845 0)
(12.3379 -1.47921 0)
(12.1829 -1.56264 0)
(11.986 -1.62639 0)
(11.7323 -1.66635 0)
(11.4185 -1.67929 0)
(11.0459 -1.66454 0)
(10.6344 -1.62311 0)
(10.1887 -1.56817 0)
(9.71879 -1.49771 0)
(9.24303 -1.40524 0)
(8.76573 -1.30094 0)
(8.25245 -1.18903 0)
(7.75696 -1.05849 0)
(7.24754 -0.929779 0)
(6.75519 -0.797513 0)
(6.27286 -0.673018 0)
(5.83238 -0.560044 0)
(5.41915 -0.466115 0)
(5.03201 -0.369739 0)
(4.63367 -0.283416 0)
(4.38219 -0.213817 0)
(4.19643 -0.243521 0)
(4.15026 -0.290077 0)
(3.96828 -0.295373 0)
(4.03614 -0.221674 0)
(3.83086 -0.205371 0)
(3.97942 -0.108296 0)
(3.82602 -0.130813 0)
(3.97691 0.0387827 0)
(3.98223 0.0931046 0)
(4.03858 0.35274 0)
(4.15925 0.265915 0)
(4.27344 0.626363 0)
(4.25589 0.414372 0)
(4.40453 0.829984 0)
(4.37571 0.477103 0)
(4.58171 0.9112 0)
(4.59266 0.551668 0)
(4.86682 0.991095 0)
(4.85592 0.577494 0)
(5.2093 1.02826 0)
(5.11058 0.494885 0)
(5.55459 1.01297 0)
(5.36995 0.324423 0)
(5.83384 0.955997 0)
(5.61794 0.18934 0)
(6.00409 0.960166 0)
(5.81031 0.124402 0)
(6.05323 0.921088 0)
(5.93193 -0.00940643 0)
(6.04417 0.831807 0)
(5.97161 -0.215671 0)
(5.99918 0.747036 0)
(5.9598 -0.409446 0)
(5.95581 0.757273 0)
(5.91412 -0.530649 0)
(5.89966 0.7349 0)
(5.89001 -0.701418 0)
(5.91835 0.774628 0)
(5.91031 -0.876824 0)
(5.9438 0.865497 0)
(5.94457 -1.06872 0)
(5.9075 1.0345 0)
(6.06501 -1.24558 0)
(5.78375 1.22966 0)
(6.31176 -1.40972 0)
(5.79397 1.33829 0)
(6.5185 -1.45968 0)
(5.85205 1.56738 0)
(6.704 -1.31808 0)
(5.80764 1.8526 0)
(6.98028 -1.14293 0)
(5.79153 2.23041 0)
(7.20375 -1.06965 0)
(5.907 2.6187 0)
(7.43474 -0.943896 0)
(6.18941 3.12432 0)
(7.70903 -0.8641 0)
(6.74462 3.78214 0)
(7.97794 -0.599112 0)
(7.47 4.49706 0)
(8.44064 -0.0677558 0)
(8.48159 4.89086 0)
(9.37211 1.246 0)
(10.2006 4.54724 0)
(13.0179 -0.231341 0)
(13.0393 -0.281047 0)
(13.0891 -0.337676 0)
(13.1081 -0.40334 0)
(13.0849 -0.472558 0)
(13.0347 -0.545456 0)
(12.973 -0.623112 0)
(12.9131 -0.704041 0)
(12.8555 -0.787337 0)
(12.7967 -0.873088 0)
(12.7296 -0.959973 0)
(12.6545 -1.04973 0)
(12.5637 -1.14123 0)
(12.4495 -1.23243 0)
(12.3067 -1.32066 0)
(12.1273 -1.40181 0)
(11.8976 -1.4659 0)
(11.612 -1.50703 0)
(11.2625 -1.52292 0)
(10.8584 -1.51458 0)
(10.4084 -1.4807 0)
(9.93126 -1.42715 0)
(9.43415 -1.36863 0)
(8.92504 -1.29471 0)
(8.42364 -1.19771 0)
(7.91597 -1.08998 0)
(7.38451 -0.977139 0)
(6.88739 -0.847234 0)
(6.38196 -0.721176 0)
(5.91245 -0.595224 0)
(5.46548 -0.482172 0)
(5.0699 -0.385943 0)
(4.68895 -0.295182 0)
(4.32113 -0.210567 0)
(3.96171 -0.151309 0)
(3.76424 -0.128673 0)
(3.63781 -0.191833 0)
(3.58674 -0.24605 0)
(3.43232 -0.258059 0)
(3.50279 -0.200618 0)
(3.30573 -0.190233 0)
(3.48581 -0.106791 0)
(3.27758 -0.136885 0)
(3.49916 0.0196398 0)
(3.41083 0.0679282 0)
(3.59178 0.315524 0)
(3.63478 0.216828 0)
(3.8454 0.622499 0)
(3.79406 0.392717 0)
(4.01259 0.796528 0)
(3.93112 0.419227 0)
(4.21105 0.868492 0)
(4.17107 0.478157 0)
(4.51703 0.939769 0)
(4.45333 0.513151 0)
(4.88004 0.971509 0)
(4.73145 0.431236 0)
(5.25562 0.947505 0)
(4.9826 0.256225 0)
(5.57023 0.901346 0)
(5.23242 0.138405 0)
(5.755 0.921493 0)
(5.47104 0.102306 0)
(5.81864 0.886939 0)
(5.63557 -0.00710845 0)
(5.84884 0.805796 0)
(5.72001 -0.204012 0)
(5.83707 0.72567 0)
(5.73753 -0.389925 0)
(5.80044 0.738768 0)
(5.71862 -0.496797 0)
(5.76034 0.719944 0)
(5.68327 -0.674851 0)
(5.79228 0.757699 0)
(5.69961 -0.850075 0)
(5.85383 0.851301 0)
(5.72892 -1.03319 0)
(5.82215 1.01164 0)
(5.76373 -1.20019 0)
(5.732 1.23153 0)
(5.94523 -1.42288 0)
(5.74446 1.33932 0)
(6.18734 -1.51874 0)
(5.77518 1.57825 0)
(6.43224 -1.36719 0)
(5.71654 1.8982 0)
(6.65729 -1.23687 0)
(5.78203 2.27176 0)
(6.88149 -1.16411 0)
(5.91409 2.66393 0)
(7.12034 -1.06244 0)
(6.32062 3.13783 0)
(7.38937 -0.991056 0)
(6.92328 3.75361 0)
(7.82624 -0.65847 0)
(7.69775 4.26832 0)
(8.41845 -0.0796096 0)
(8.73574 4.36354 0)
(9.4517 1.24681 0)
(10.1689 3.81693 0)
(13.0157 -0.220824 0)
(13.0322 -0.250387 0)
(13.0762 -0.299283 0)
(13.0871 -0.366303 0)
(13.0589 -0.443466 0)
(13.0036 -0.522398 0)
(12.9357 -0.602213 0)
(12.8628 -0.680077 0)
(12.7872 -0.758792 0)
(12.7038 -0.838905 0)
(12.6067 -0.919901 0)
(12.4934 -1.00106 0)
(12.3551 -1.08359 0)
(12.1814 -1.16267 0)
(11.9665 -1.23468 0)
(11.7007 -1.29494 0)
(11.3746 -1.33561 0)
(10.985 -1.35088 0)
(10.5384 -1.34315 0)
(10.0506 -1.31561 0)
(9.52662 -1.26785 0)
(8.99215 -1.20912 0)
(8.44931 -1.1514 0)
(7.91272 -1.07821 0)
(7.40645 -0.980359 0)
(6.89547 -0.872316 0)
(6.37763 -0.766615 0)
(5.90756 -0.643159 0)
(5.43605 -0.528579 0)
(5.00912 -0.417764 0)
(4.60999 -0.320422 0)
(4.25856 -0.231393 0)
(3.91613 -0.144856 0)
(3.59044 -0.0767504 0)
(3.29156 -0.04977 0)
(3.15661 -0.0765537 0)
(3.06865 -0.158747 0)
(3.00755 -0.213337 0)
(2.89511 -0.233099 0)
(2.94979 -0.18511 0)
(2.79332 -0.179375 0)
(2.97338 -0.104823 0)
(2.73513 -0.144353 0)
(2.99574 0.00619029 0)
(2.82406 0.0366221 0)
(3.13991 0.264007 0)
(3.07411 0.161269 0)
(3.41671 0.571772 0)
(3.27904 0.319792 0)
(3.63828 0.780149 0)
(3.48063 0.379268 0)
(3.85287 0.830947 0)
(3.74744 0.41478 0)
(4.15069 0.865115 0)
(4.03687 0.416898 0)
(4.54812 0.900411 0)
(4.3224 0.343961 0)
(4.95496 0.88931 0)
(4.57998 0.195029 0)
(5.26722 0.857064 0)
(4.82452 0.0921417 0)
(5.47445 0.873282 0)
(5.11923 0.0801111 0)
(5.56663 0.856672 0)
(5.31714 -0.0214505 0)
(5.63713 0.784754 0)
(5.44652 -0.188902 0)
(5.65636 0.70645 0)
(5.50956 -0.358631 0)
(5.62309 0.728278 0)
(5.53516 -0.457871 0)
(5.60389 0.709363 0)
(5.5195 -0.649178 0)
(5.65641 0.728124 0)
(5.55151 -0.837797 0)
(5.72964 0.829992 0)