/*--------------------------------*- C++ -*----------------------------------*\
| =========                 |                                                 |
| \\      /  F ield         | OpenFOAM: The Open Source CFD Toolbox           |
|  \\    /   O peration     | Version:  2.4.0                                 |
|   \\  /    A nd           | Web:      www.OpenFOAM.org                      |
|    \\/     M anipulation  |                                                 |
\*---------------------------------------------------------------------------*/
FoamFile
{
    version     2.0;
    format      ascii;
    class       volScalarField;
    location    "0.122";
    object      nuSgs;
}
// * * * * * * * * * * * * * * * * * * * * * * * * * * * * * * * * * * * * * //

dimensions      [0 2 -1 0 0 0 0];

internalField   nonuniform List<scalar> 
17600
(
0.00101296
0.000903941
0.000753973
0.000656565
0.000610968
0.000567082
0.000549446
0.000518393
0.000512787
0.000487062
0.000489871
0.000471194
0.000470087
0.000463386
0.00045547
0.000459098
0.000449671
0.000460446
0.000481402
0.000416875
0.000705778
0.000827142
0.000804239
0.00074457
0.000702924
0.000653823
0.000635495
0.000599839
0.000591823
0.000564153
0.00056348
0.000544678
0.000540341
0.000534508
0.000521367
0.00052321
0.000513764
0.000518906
0.000516189
0.00053097
0.000383405
0.000600978
0.00066554
0.000660321
0.000647233
0.000614097
0.000601386
0.000572133
0.000565178
0.000542116
0.000538822
0.000524218
0.000517237
0.000513284
0.000500405
0.000499952
0.000491516
0.000494568
0.000479272
0.000497855
0.000152107
0.000361757
0.000463735
0.000503892
0.000529347
0.000524563
0.000524259
0.000511569
0.00050846
0.000494304
0.000490397
0.000481871
0.000473878
0.000471693
0.000462883
0.000460893
0.000452848
0.00045436
0.000439388
0.000438355
5.39417e-05
0.000167174
0.000271213
0.000321338
0.000374532
0.000393232
0.000416509
0.000417558
0.000424571
0.000422683
0.000420916
0.000420754
0.000416735
0.000415503
0.00041211
0.000410159
0.000404961
0.000402908
0.000397359
0.000385052
1.75754e-05
6.80856e-05
0.000130685
0.000164871
0.000217992
0.00024627
0.000283489
0.000294787
0.000316085
0.000328577
0.000330639
0.000339955
0.000341912
0.00034307
0.000345915
0.000345611
0.00034596
0.000340127
0.000340547
0.00032815
5.66871e-06
2.59443e-05
5.31923e-05
7.17711e-05
9.9974e-05
0.000126615
0.000159194
0.000172167
0.000194423
0.000220296
0.000225248
0.000240371
0.000250136
0.000254269
0.000264042
0.000266432
0.000273586
0.000267447
0.000271118
0.000260077
2.37838e-06
9.71435e-06
1.96981e-05
2.72966e-05
3.73498e-05
5.38307e-05
7.14206e-05
8.34605e-05
9.54261e-05
0.000121839
0.000127449
0.000141978
0.000153925
0.00015951
0.00017257
0.000177199
0.000189036
0.000185811
0.000189891
0.000181066
1.73678e-06
3.9943e-06
8.12363e-06
1.01502e-05
1.31899e-05
1.96746e-05
2.58765e-05
3.37418e-05
3.96739e-05
5.45795e-05
5.84939e-05
6.9519e-05
7.80298e-05
8.22843e-05
9.28762e-05
9.7298e-05
0.000107774
0.000107171
0.000109651
0.000104406
1.60786e-06
2.25488e-06
4.92556e-06
5.0307e-06
5.60149e-06
7.17555e-06
8.9484e-06
1.20111e-05
1.42156e-05
2.07221e-05
2.24095e-05
2.84106e-05
3.28027e-05
3.49744e-05
4.1156e-05
4.35644e-05
4.94754e-05
4.95475e-05
5.11039e-05
4.89079e-05
1.56432e-06
1.83586e-06
3.29224e-06
3.46095e-06
3.8518e-06
4.00851e-06
4.413e-06
5.02077e-06
5.44014e-06
7.67534e-06
8.30513e-06
1.07214e-05
1.22338e-05
1.30572e-05
1.58657e-05
1.67584e-05
1.89237e-05
1.89209e-05
1.98318e-05
1.89084e-05
1.55433e-06
1.83524e-06
2.36404e-06
3.55213e-06
3.75661e-06
3.8923e-06
4.43142e-06
4.23342e-06
4.0367e-06
4.40068e-06
4.49483e-06
5.08685e-06
5.62894e-06
5.96358e-06
7.00688e-06
7.45561e-06
8.23588e-06
8.2794e-06
8.3946e-06
7.79013e-06
1.533e-06
1.9245e-06
2.74204e-06
3.69226e-06
3.6872e-06
4.02842e-06
4.23115e-06
3.92745e-06
3.7512e-06
3.91032e-06
3.96764e-06
4.11386e-06
4.52715e-06
4.71087e-06
4.87978e-06
5.1675e-06
5.66924e-06
5.75834e-06
5.57669e-06
5.53167e-06
1.64712e-06
1.99256e-06
3.37081e-06
3.44221e-06
3.15347e-06
3.29317e-06
3.26546e-06
3.28158e-06
3.51823e-06
3.78804e-06
3.85573e-06
4.20458e-06
4.33078e-06
4.2333e-06
4.16327e-06
4.14875e-06
4.35454e-06
4.48495e-06
4.51728e-06
5.06861e-06
1.58824e-06
1.99891e-06
2.4973e-06
2.43196e-06
2.45428e-06
2.71648e-06
2.91993e-06
3.30572e-06
3.55139e-06
3.62715e-06
3.80535e-06
3.9215e-06
3.81311e-06
3.63773e-06
3.59477e-06
3.58496e-06
3.68188e-06
3.77281e-06
3.93847e-06
4.86907e-06
1.5198e-06
1.79534e-06
1.94795e-06
2.31322e-06
2.51086e-06
2.67461e-06
2.82477e-06
3.24172e-06
3.21157e-06
3.20586e-06
3.28737e-06
3.25053e-06
3.17479e-06
3.18148e-06
3.19502e-06
3.20313e-06
3.22847e-06
3.27818e-06
3.75242e-06
4.1578e-06
1.5089e-06
1.69413e-06
1.92262e-06
2.56622e-06
2.59478e-06
2.57686e-06
2.69753e-06
2.73386e-06
2.69625e-06
2.73803e-06
2.86746e-06
2.91237e-06
3.00563e-06
3.06615e-06
3.07274e-06
3.06918e-06
3.08619e-06
3.18311e-06
3.5339e-06
4.22177e-06
1.51592e-06
1.70661e-06
2.01094e-06
2.41453e-06
2.40898e-06
2.39547e-06
2.42301e-06
2.42997e-06
2.44059e-06
2.58959e-06
2.67221e-06
2.71231e-06
2.80815e-06
2.79522e-06
2.77925e-06
2.77768e-06
2.76447e-06
2.93489e-06
2.87685e-06
3.01149e-06
1.52005e-06
1.67303e-06
1.81312e-06
2.20489e-06
2.30239e-06
2.33124e-06
2.33045e-06
2.35402e-06
2.41558e-06
2.49227e-06
2.50783e-06
2.52586e-06
2.57145e-06
2.56972e-06
2.58815e-06
2.58684e-06
2.59757e-06
2.62525e-06
2.62925e-06
3.07375e-06
1.51286e-06
1.6537e-06
1.90323e-06
2.32601e-06
2.31213e-06
2.26602e-06
2.26992e-06
2.30112e-06
2.3411e-06
2.42088e-06
2.4525e-06
2.45692e-06
2.46169e-06
2.45545e-06
2.4626e-06
2.47447e-06
2.49376e-06
2.49317e-06
2.5312e-06
2.88278e-06
1.50828e-06
1.64009e-06
2.05514e-06
2.18346e-06
2.17437e-06
2.1575e-06
2.2327e-06
2.31588e-06
2.34956e-06
2.42028e-06
2.4148e-06
2.37122e-06
2.3621e-06
2.36843e-06
2.41857e-06
2.45772e-06
2.46206e-06
2.47248e-06
2.51495e-06
2.95412e-06
1.51438e-06
1.76901e-06
1.97265e-06
1.96623e-06
1.97886e-06
2.15826e-06
2.37889e-06
2.40844e-06
2.40081e-06
2.3474e-06
2.26731e-06
2.25015e-06
2.27416e-06
2.39372e-06
2.48259e-06
2.48613e-06
2.48133e-06
2.44926e-06
2.4856e-06
2.65215e-06
1.51288e-06
1.78366e-06
1.82326e-06
1.86453e-06
2.10028e-06
2.41539e-06
2.43303e-06
2.3722e-06
2.25013e-06
2.20809e-06
2.19923e-06
2.24782e-06
2.46343e-06
2.54626e-06
2.54325e-06
2.50142e-06
2.42816e-06
2.42004e-06
2.43148e-06
2.48892e-06
1.51752e-06
1.72216e-06
1.78962e-06
2.04261e-06
2.43231e-06
2.4525e-06
2.34167e-06
2.22403e-06
2.20509e-06
2.2396e-06
2.39992e-06
2.56944e-06
2.61198e-06
2.59835e-06
2.51487e-06
2.45661e-06
2.44971e-06
2.48039e-06
2.5663e-06
2.80253e-06
1.52679e-06
1.6921e-06
1.94332e-06
2.35955e-06
2.40711e-06
2.3126e-06
2.21127e-06
2.22832e-06
2.37015e-06
2.56552e-06
2.62877e-06
2.626e-06
2.59401e-06
2.52806e-06
2.5116e-06
2.52265e-06
2.61775e-06
2.76199e-06
2.83101e-06
2.90823e-06
1.53493e-06
1.72583e-06
2.11884e-06
2.31552e-06
2.28664e-06
2.23402e-06
2.26866e-06
2.51985e-06
2.62769e-06
2.63389e-06
2.59047e-06
2.5619e-06
2.57885e-06
2.63419e-06
2.6982e-06
2.88041e-06
2.97404e-06
2.99239e-06
3.04727e-06
3.18305e-06
1.5482e-06
1.75424e-06
2.15921e-06
2.23021e-06
2.31479e-06
2.43354e-06
2.59341e-06
2.68612e-06
2.64222e-06
2.61785e-06
2.62966e-06
2.71561e-06
2.98945e-06
3.08267e-06
3.11039e-06
3.18578e-06
3.23536e-06
3.35745e-06
3.68911e-06
4.46577e-06
1.56146e-06
1.78797e-06
2.23784e-06
2.38816e-06
2.67709e-06
2.67365e-06
2.69768e-06
2.74395e-06
2.73725e-06
2.83768e-06
3.1692e-06
3.40604e-06
3.52711e-06
3.56639e-06
3.65155e-06
3.88006e-06
4.33558e-06
5.22908e-06
6.72233e-06
9.71547e-06
1.58953e-06
1.84584e-06
2.5098e-06
2.6099e-06
2.88881e-06
2.86473e-06
3.05199e-06
3.23171e-06
3.38107e-06
3.99886e-06
4.31166e-06
4.56073e-06
4.99308e-06
5.51087e-06
6.19218e-06
7.73211e-06
9.55618e-06
1.27508e-05
1.65316e-05
2.49205e-05
1.60479e-06
1.98459e-06
2.75332e-06
2.87695e-06
3.26614e-06
3.42903e-06
4.4915e-06
5.15607e-06
5.73058e-06
7.73658e-06
8.4733e-06
9.88902e-06
1.16947e-05
1.41486e-05
1.6348e-05
2.11034e-05
2.53203e-05
3.31304e-05
4.03829e-05
5.82296e-05
1.64456e-06
2.59349e-06
3.25307e-06
3.85629e-06
5.41212e-06
6.55152e-06
1.01129e-05
1.25629e-05
1.44992e-05
2.0579e-05
2.29638e-05
2.74115e-05
3.25243e-05
3.86552e-05
4.32427e-05
5.34791e-05
6.09483e-05
7.52751e-05
8.61654e-05
0.000115519
1.75143e-06
4.21228e-06
6.26833e-06
8.92005e-06
1.43966e-05
1.84065e-05
2.7796e-05
3.48704e-05
3.99454e-05
5.41214e-05
5.97837e-05
6.81664e-05
7.97459e-05
8.96261e-05
9.67788e-05
0.000112883
0.000123131
0.000142189
0.000155079
0.000190568
2.3433e-06
9.88246e-06
1.67404e-05
2.52115e-05
4.16902e-05
5.16564e-05
7.25559e-05
8.61867e-05
9.64533e-05
0.000120843
0.000129579
0.000140655
0.000158406
0.000168795
0.000177827
0.000195967
0.000205869
0.000223321
0.000235026
0.000263666
5.60773e-06
2.6745e-05
4.69512e-05
6.93794e-05
0.000106389
0.000123986
0.000159166
0.000176002
0.000193853
0.000219814
0.000227639
0.000239937
0.000255466
0.000262191
0.000270635
0.000281879
0.000289077
0.000300258
0.000308268
0.000326682
1.7499e-05
7.06589e-05
0.000121648
0.000169092
0.00021975
0.000243979
0.000284464
0.00029744
0.000315086
0.000328881
0.000332968
0.000339736
0.000346709
0.000348257
0.000351976
0.000355181
0.000359308
0.000363389
0.000368001
0.000376153
5.38724e-05
0.000174192
0.000264047
0.00032596
0.000372293
0.000394403
0.00041593
0.000418432
0.000424535
0.000423504
0.00042259
0.000420618
0.000419932
0.000416718
0.000416371
0.000414051
0.000414359
0.000413298
0.000413761
0.000413108
0.000152206
0.000363599
0.000460368
0.000506947
0.000527119
0.000526586
0.000523516
0.000512714
0.000507891
0.000494661
0.000490151
0.000480869
0.000476283
0.000468671
0.000465821
0.000458255
0.000456047
0.000449897
0.000445762
0.000438676
0.000383856
0.000601439
0.000664217
0.000661402
0.000644759
0.00061892
0.000596764
0.000575212
0.000564049
0.000542617
0.000536927
0.000523086
0.000516366
0.000505971
0.000500907
0.000488899
0.000484021
0.000471855
0.00046232
0.000447576
0.000706278
0.000827071
0.000803276
0.000746914
0.000697924
0.000660109
0.000629271
0.000603984
0.000589244
0.000565253
0.000559356
0.000542973
0.000535509
0.000522846
0.000516145
0.000500487
0.000492516
0.000474184
0.000459047
0.000434118
0.00101341
0.000903916
0.000752681
0.000659026
0.000606629
0.00057196
0.000544295
0.000521674
0.000508664
0.000488594
0.000483264
0.000468551
0.000461986
0.00044855
0.00044156
0.00042483
0.000413521
0.000390817
0.000370678
0.000337444
0.000218893
0.000198442
0.00018495
0.000177874
0.000158586
0.000110336
9.80472e-05
9.87694e-05
9.66363e-05
9.22624e-05
8.75361e-05
7.65594e-05
7.11634e-05
7.06071e-05
7.1377e-05
7.37995e-05
7.92152e-05
8.49221e-05
8.64405e-05
8.90624e-05
8.91937e-05
8.63105e-05
7.41809e-05
5.10901e-05
3.33153e-05
2.08758e-05
1.34899e-05
1.09554e-05
1.0334e-05
1.02031e-05
1.06405e-05
1.18226e-05
1.40256e-05
1.73368e-05
1.94428e-05
2.33763e-05
3.4763e-05
6.36161e-05
8.60063e-05
8.92912e-05
8.24406e-05
8.07763e-05
9.07045e-05
9.30073e-05
8.15793e-05
6.02269e-05
5.06998e-05
4.446e-05
4.23605e-05
4.94167e-05
5.48821e-05
5.24382e-05
4.85376e-05
4.91604e-05
5.41796e-05
5.53783e-05
5.74293e-05
5.97366e-05
5.93273e-05
5.06426e-05
3.71587e-05
3.63956e-05
5.33166e-05
6.59826e-05
6.6046e-05
5.9658e-05
5.00991e-05
4.8222e-05
4.90485e-05
5.11103e-05
5.16645e-05
5.0985e-05
5.00925e-05
4.84938e-05
4.41914e-05
3.90677e-05
3.58125e-05
3.44451e-05
3.40261e-05
3.36133e-05
3.29671e-05
3.20284e-05
3.11164e-05
3.05487e-05
3.05041e-05
3.12264e-05
3.39386e-05
3.51631e-05
3.48742e-05
3.52638e-05
3.9956e-05
4.24589e-05
4.2963e-05
4.33224e-05
4.46716e-05
4.50246e-05
4.28558e-05
3.68238e-05
3.21654e-05
2.8329e-05
2.53836e-05
2.35604e-05
2.15469e-05
2.07223e-05
2.05061e-05
2.09023e-05
2.14726e-05
2.22661e-05
2.36329e-05
2.66577e-05
3.7841e-05
4.48531e-05
4.60197e-05
4.55684e-05
4.40442e-05
3.84084e-05
3.49142e-05
3.19417e-05
2.94635e-05
2.91293e-05
2.9201e-05
3.22344e-05
3.48346e-05
3.60802e-05
3.59682e-05
3.41711e-05
3.18957e-05
3.09205e-05
3.04135e-05
2.95656e-05
2.86648e-05
2.80994e-05
2.79351e-05
2.81501e-05
2.90633e-05
3.16244e-05
3.52775e-05
3.50321e-05
3.49694e-05
3.35053e-05
2.89059e-05
2.90321e-05
2.73134e-05
2.56354e-05
2.50427e-05
2.47545e-05
2.38914e-05
2.36032e-05
2.30401e-05
2.30881e-05
2.24996e-05
2.23659e-05
2.23171e-05
2.16676e-05
2.13988e-05
2.15566e-05
2.33725e-05
2.74999e-05
3.38641e-05
4.47963e-05
5.51911e-05
6.11034e-05
6.35763e-05
6.40803e-05
6.40499e-05
6.35905e-05
6.14974e-05
6.06842e-05
6.05812e-05
6.08386e-05
6.08958e-05
6.01424e-05
5.78078e-05
5.28269e-05
4.72244e-05
4.47838e-05
4.56366e-05
5.08361e-05
5.25242e-05
4.9577e-05
4.22261e-05
4.05544e-05
3.93441e-05
4.10737e-05
4.73625e-05
4.52404e-05
5.45838e-05
4.92097e-05
4.41088e-05
4.79126e-05
5.01181e-05
5.29437e-05
6.02418e-05
6.11252e-05
7.62023e-05
7.62478e-05
9.7022e-05
7.20011e-05
7.73958e-05
9.15205e-05
0.000258115
0.000222781
0.000196526
0.00018339
0.00017565
0.000155477
0.00012236
0.000112474
0.00010754
0.000101262
9.47864e-05
8.9074e-05
8.67747e-05
8.75053e-05
8.88065e-05
9.26028e-05
9.61187e-05
9.59315e-05
9.49548e-05
9.37931e-05
9.09325e-05
8.26355e-05
5.80483e-05
3.65641e-05
2.27404e-05
1.46415e-05
1.04724e-05
9.80705e-06
9.66357e-06
9.59313e-06
9.95071e-06
1.11851e-05
1.2764e-05
1.66681e-05
1.92434e-05
2.33956e-05
3.41501e-05
6.32981e-05
8.44629e-05
9.01617e-05
8.62576e-05
8.50603e-05
9.35663e-05
9.27845e-05
7.81454e-05
5.75484e-05
5.04118e-05
4.49013e-05
4.46164e-05
5.58089e-05
5.75245e-05
5.20153e-05
4.77091e-05
5.05651e-05
5.55845e-05
5.65167e-05
5.8985e-05
6.02991e-05
5.90886e-05
4.73202e-05
3.51214e-05
3.53873e-05
5.58808e-05
6.80359e-05
6.74986e-05
5.91647e-05
5.00337e-05
4.93804e-05
5.14889e-05
5.28777e-05
5.28889e-05
5.18117e-05
5.06354e-05
4.84565e-05
4.31582e-05
3.81007e-05
3.54451e-05
3.44448e-05
3.4262e-05
3.39428e-05
3.34627e-05
3.26156e-05
3.15439e-05
3.07173e-05
3.05689e-05
3.10654e-05
3.38629e-05
3.5164e-05
3.48456e-05
3.52138e-05
3.96682e-05
4.2199e-05
4.2769e-05
4.31309e-05
4.43683e-05
4.47472e-05
4.27455e-05
3.71062e-05
3.25429e-05
2.91373e-05
2.57044e-05
2.37925e-05
2.14643e-05
2.02559e-05
1.97268e-05
1.98128e-05
1.99548e-05
2.04105e-05
2.1388e-05
2.36327e-05
3.23306e-05
4.22206e-05
4.44555e-05
4.43988e-05
4.37275e-05
3.93745e-05
3.49775e-05
3.23278e-05
2.96671e-05
2.93806e-05
2.92796e-05
3.10122e-05
3.39511e-05
3.52331e-05
3.54147e-05
3.46713e-05
3.24007e-05
3.12154e-05
3.06837e-05
2.9763e-05
2.87588e-05
2.83638e-05
2.82129e-05
2.83482e-05
2.95425e-05
3.17246e-05
3.48583e-05
3.47557e-05
3.49432e-05
3.26064e-05
2.84463e-05
2.85136e-05
2.65549e-05
2.57774e-05
2.52719e-05
2.48259e-05
2.39219e-05
2.32931e-05
2.2681e-05
2.27368e-05
2.2199e-05
2.17226e-05
2.17118e-05
2.13104e-05
2.12278e-05
2.15212e-05
2.39449e-05
2.82619e-05
3.46417e-05
4.72237e-05
5.67638e-05
6.20093e-05
6.39982e-05
6.43814e-05
6.42818e-05
6.31055e-05
6.04506e-05
5.93899e-05
5.93624e-05
5.98451e-05
6.03115e-05
5.99317e-05
5.80258e-05
5.30292e-05
4.76959e-05
4.57538e-05
4.64538e-05
5.10378e-05
5.2534e-05
4.87661e-05
4.18853e-05
4.04394e-05
3.8792e-05
4.09048e-05
5.4307e-05
4.87876e-05
4.15884e-05
4.21464e-05
3.77098e-05
4.37515e-05
4.47837e-05
4.86572e-05
5.28332e-05
5.52514e-05
6.01594e-05
6.76243e-05
0.000102337
9.17488e-05
0.000105352
9.92688e-05
0.000247953
0.000223118
0.000201665
0.000184981
0.000176298
0.000173692
0.000162654
0.000147817
0.000131449
0.000116538
0.000104579
9.7266e-05
9.52273e-05
9.59088e-05
0.000101007
0.000104526
0.000102993
0.000100261
9.77891e-05
9.49168e-05
8.70372e-05
6.45128e-05
4.07249e-05
2.51595e-05
1.61659e-05
1.11361e-05
8.80056e-06
8.92336e-06
8.9175e-06
8.8258e-06
9.1599e-06
1.06268e-05
1.20433e-05
1.51964e-05
1.8451e-05
2.29906e-05
3.32107e-05
6.37096e-05
8.09853e-05
9.08798e-05
8.9734e-05
8.90367e-05
9.52906e-05
9.26258e-05
7.51722e-05
5.57437e-05
5.01494e-05
4.73351e-05
5.06961e-05
5.93072e-05
5.76219e-05
4.83276e-05
4.64527e-05
5.31868e-05
5.68055e-05
5.77932e-05
5.99794e-05
6.04736e-05
5.79258e-05
4.32964e-05
3.27527e-05
3.4691e-05
5.87232e-05
7.04236e-05
6.90833e-05
5.85214e-05
5.03351e-05
5.09601e-05
5.45317e-05
5.46539e-05
5.43772e-05
5.28077e-05
5.11082e-05
4.79516e-05
4.18851e-05
3.73137e-05
3.52543e-05
3.44492e-05
3.44828e-05
3.43475e-05
3.39808e-05
3.32511e-05
3.20485e-05
3.09864e-05
3.06927e-05
3.11299e-05
3.39797e-05
3.52189e-05
3.48522e-05
3.52462e-05
3.95658e-05
4.20425e-05
4.26107e-05
4.29797e-05
4.40192e-05
4.43643e-05
4.24426e-05
3.74118e-05
3.2779e-05
2.99916e-05
2.63746e-05
2.43086e-05
2.1585e-05
1.99287e-05
1.90527e-05
1.90448e-05
1.89733e-05
1.91986e-05
1.98486e-05
2.14781e-05
2.73312e-05
3.89751e-05
4.30094e-05
4.33722e-05
4.31781e-05
4.00806e-05
3.53202e-05
3.26978e-05
3.04104e-05
2.98127e-05
2.94841e-05
3.02568e-05
3.30657e-05
3.4299e-05
3.50206e-05
3.47348e-05
3.30569e-05
3.15437e-05
3.09152e-05
2.99412e-05
2.88493e-05
2.86128e-05
2.85655e-05
2.86578e-05
3.02815e-05
3.17044e-05
3.43937e-05
3.46873e-05
3.45183e-05
3.17959e-05
2.83952e-05
2.804e-05
2.57493e-05
2.56895e-05
2.52516e-05
2.48658e-05
2.40726e-05
2.31495e-05
2.24026e-05
2.23192e-05
2.19849e-05
2.14809e-05
2.14054e-05
2.10855e-05
2.11268e-05
2.17049e-05
2.55367e-05
3.00263e-05
3.67753e-05
5.00494e-05
5.93777e-05
6.39001e-05
6.52764e-05
6.53422e-05
6.49851e-05
6.21075e-05
5.87788e-05
5.78623e-05
5.79587e-05
5.85755e-05
5.95773e-05
5.95184e-05
5.79645e-05
5.30511e-05
4.80464e-05
4.63265e-05
4.75547e-05
5.14606e-05
5.19769e-05
4.73296e-05
4.14449e-05
4.0808e-05
3.8958e-05
4.44994e-05
5.38624e-05
4.92119e-05
3.73662e-05
3.81534e-05
3.57879e-05
4.22073e-05
4.29544e-05
4.58413e-05
4.96383e-05
5.34702e-05
5.36345e-05
5.92813e-05
8.56921e-05
9.12078e-05
0.000108582
0.000107406
0.000221092
0.000199943
0.000188592
0.000173497
0.000167788
0.000168477
0.000167236
0.000159541
0.000153027
0.000140856
0.000124844
0.000113133
0.000109311
0.000110664
0.000113401
0.000111232
0.00010494
0.00010155
9.76993e-05
8.93221e-05
6.61878e-05
4.22941e-05
2.68739e-05
1.68964e-05
1.13892e-05
8.74662e-06
7.78425e-06
8.31542e-06
8.49864e-06
8.46035e-06
8.92638e-06
1.02538e-05
1.19185e-05
1.49318e-05
1.76843e-05
2.21598e-05
3.14757e-05
6.41684e-05
7.93436e-05
9.02665e-05
9.10294e-05
9.25083e-05
9.57106e-05
9.187e-05
7.33102e-05
5.52376e-05
5.10666e-05
4.99409e-05
5.59713e-05
5.99323e-05
5.37117e-05
4.58689e-05
4.70506e-05
5.62937e-05
5.78848e-05
5.90833e-05
6.04722e-05
6.04649e-05
5.52317e-05
3.8829e-05
3.03539e-05
3.40735e-05
6.18537e-05
7.27733e-05
7.06334e-05
5.73976e-05
5.11627e-05
5.39253e-05
5.72698e-05
5.68221e-05
5.60078e-05
5.4418e-05
5.12363e-05
4.66417e-05
4.04559e-05
3.66658e-05
3.51972e-05
3.45666e-05
3.46684e-05
3.46641e-05
3.44611e-05
3.38977e-05
3.24411e-05
3.12425e-05
3.08709e-05
3.1312e-05
3.43163e-05
3.53246e-05
3.48856e-05
3.53943e-05
3.95706e-05
4.19136e-05
4.24897e-05
4.27956e-05
4.3569e-05
4.38933e-05
4.19071e-05
3.77188e-05
3.29412e-05
3.02362e-05
2.6856e-05
2.48742e-05
2.18448e-05
1.99235e-05
1.86898e-05
1.88229e-05
1.86646e-05
1.87322e-05
1.90721e-05
2.01422e-05
2.39878e-05
3.5034e-05
4.12721e-05
4.25209e-05
4.23759e-05
4.02284e-05
3.66231e-05
3.34662e-05
3.16822e-05
3.02553e-05
2.98208e-05
3.02872e-05
3.24659e-05
3.38037e-05
3.46586e-05
3.46188e-05
3.34268e-05
3.18407e-05
3.10661e-05
3.01075e-05
2.90604e-05
2.88975e-05
2.89037e-05
2.90466e-05
3.09205e-05
3.18724e-05
3.39618e-05
3.46821e-05
3.42202e-05
3.12901e-05
2.87168e-05
2.71055e-05
2.47304e-05
2.52651e-05
2.47223e-05
2.48635e-05
2.42955e-05
2.32761e-05
2.22468e-05
2.19561e-05
2.17505e-05
2.13195e-05
2.11167e-05
2.10017e-05
2.115e-05
2.23476e-05
2.70154e-05
3.1554e-05
3.99015e-05
5.39272e-05
6.29862e-05
6.68094e-05
6.75128e-05
6.7339e-05
6.61369e-05
6.06365e-05
5.66283e-05
5.60885e-05
5.63549e-05
5.72895e-05
5.86518e-05
5.88959e-05
5.77826e-05
5.30402e-05
4.81259e-05
4.65679e-05
4.81184e-05
5.16768e-05
5.18397e-05
4.63724e-05
4.15296e-05
4.17383e-05
4.27673e-05
4.71999e-05
4.78312e-05
4.54673e-05
3.51905e-05
3.69625e-05
3.5878e-05
4.22645e-05
4.22817e-05
4.43249e-05
4.69355e-05
5.03454e-05
4.94011e-05
5.30027e-05
9.62159e-05
9.3097e-05
9.16493e-05
0.000101178
0.000192345
0.000173168
0.000164754
0.000154273
0.000148295
0.000149181
0.000154485
0.000153135
0.000149798
0.000146514
0.000137154
0.000129504
0.000125962
0.000124091
0.000120444
0.000111554
0.000103146
9.53675e-05
8.53721e-05
6.10064e-05
4.04945e-05
2.67124e-05
1.74119e-05
1.14811e-05
8.43291e-06
7.406e-06
7.00609e-06
7.42064e-06
7.57063e-06
7.6564e-06
8.68594e-06
1.01469e-05
1.19597e-05
1.51373e-05
1.72664e-05
2.11274e-05
2.97069e-05
6.39307e-05
7.95185e-05
8.86174e-05
9.19782e-05
9.55278e-05
9.56299e-05
9.03311e-05
7.18285e-05
5.54913e-05
5.26815e-05
5.24208e-05
5.87766e-05
5.91085e-05
4.93932e-05
4.5301e-05
5.0758e-05
5.78795e-05
5.87741e-05
5.98997e-05
6.06369e-05
5.97558e-05
5.04891e-05
3.44377e-05
2.81204e-05
3.42005e-05
6.48614e-05
7.50479e-05
7.17351e-05
5.64194e-05
5.32276e-05
5.78085e-05
5.94551e-05
5.81413e-05
5.78603e-05
5.6288e-05
5.11128e-05
4.49871e-05
3.91027e-05
3.62994e-05
3.53075e-05
3.47917e-05
3.47306e-05
3.4743e-05
3.46767e-05
3.42198e-05
3.26818e-05
3.141e-05
3.10651e-05
3.16546e-05
3.47912e-05
3.54537e-05
3.49263e-05
3.56807e-05
3.969e-05
4.1819e-05
4.23943e-05
4.26829e-05
4.3241e-05
4.34068e-05
4.12477e-05
3.78441e-05
3.3007e-05
3.01999e-05
2.69768e-05
2.51173e-05
2.18941e-05
2.00101e-05
1.8602e-05
1.88521e-05
1.8678e-05
1.86761e-05
1.8849e-05
1.94581e-05
2.19699e-05
3.11817e-05
3.90057e-05
4.17049e-05
4.16397e-05
4.03944e-05
3.75878e-05
3.5356e-05
3.32365e-05
3.12282e-05
3.06387e-05
3.08025e-05
3.23141e-05
3.37021e-05
3.45699e-05
3.45989e-05
3.35975e-05
3.20561e-05
3.11489e-05
3.02256e-05
2.92935e-05
2.91958e-05
2.92459e-05
2.95006e-05
3.12158e-05
3.22339e-05
3.35017e-05
3.45767e-05
3.39481e-05
3.09716e-05
2.89246e-05
2.5592e-05
2.44692e-05
2.44092e-05
2.40546e-05
2.48782e-05
2.44977e-05
2.34939e-05
2.22969e-05
2.17918e-05
2.14462e-05
2.09526e-05
2.09743e-05
2.10739e-05
2.15276e-05
2.35769e-05
2.84746e-05
3.3116e-05
4.3428e-05
5.77021e-05
6.67247e-05
6.99423e-05
7.01948e-05
6.96797e-05
6.69851e-05
5.90391e-05
5.45565e-05
5.40038e-05
5.43532e-05
5.59212e-05
5.76465e-05
5.809e-05
5.74656e-05
5.30215e-05
4.82173e-05
4.67498e-05
4.84292e-05
5.16594e-05
5.1751e-05
4.56032e-05
4.24812e-05
4.17161e-05
4.68895e-05
4.65739e-05
4.20916e-05
4.00474e-05
3.40583e-05
3.76456e-05
3.64989e-05
4.14351e-05
4.01091e-05
4.35535e-05
4.70081e-05
4.70924e-05
4.93781e-05
5.1077e-05
5.9581e-05
8.98473e-05
9.12648e-05
9.51028e-05
0.000164846
0.0001506
0.000143437
0.000134571
0.000127085
0.000126283
0.000130424
0.00013315
0.000133768
0.000133899
0.000132383
0.000128801
0.000125038
0.000120842
0.000109872
9.73557e-05
8.37223e-05
6.87824e-05
5.08832e-05
3.53902e-05
2.44722e-05
1.66859e-05
1.11958e-05
8.17418e-06
6.73942e-06
6.40767e-06
6.44345e-06
6.89926e-06
6.9374e-06
7.1098e-06
8.64124e-06
1.0073e-05
1.26563e-05
1.56663e-05
1.72296e-05
2.01819e-05
2.79016e-05
6.19728e-05
8.15102e-05
8.62043e-05
9.19086e-05
9.70764e-05
9.57118e-05
8.77174e-05
6.94073e-05
5.61484e-05
5.36878e-05
5.46018e-05
5.92605e-05
5.65485e-05
4.73033e-05
4.62798e-05
5.46888e-05
5.85405e-05
5.94078e-05
6.02313e-05
6.04694e-05
5.79351e-05
4.40016e-05
3.0088e-05
2.60166e-05
3.45855e-05
6.80896e-05
7.74137e-05
7.23036e-05
5.60864e-05
5.56751e-05
6.02837e-05
6.20888e-05
5.99566e-05
6.03146e-05
5.77526e-05
5.02977e-05
4.33304e-05
3.82212e-05
3.61304e-05
3.55699e-05
3.49967e-05
3.4785e-05
3.47518e-05
3.46808e-05
3.42383e-05
3.27403e-05
3.1528e-05
3.12702e-05
3.21629e-05
3.53165e-05
3.55532e-05
3.51091e-05
3.63495e-05
3.98703e-05
4.18123e-05
4.23421e-05
4.26999e-05
4.30248e-05
4.29872e-05
4.0535e-05
3.77778e-05
3.31218e-05
2.98407e-05
2.68929e-05
2.51167e-05
2.16861e-05
2.02096e-05
1.86326e-05
1.89287e-05
1.88453e-05
1.87707e-05
1.88868e-05
1.92057e-05
2.07864e-05
2.7613e-05
3.64031e-05
4.07891e-05
4.09545e-05
4.05704e-05
3.81557e-05
3.69726e-05
3.47375e-05
3.3074e-05
3.26603e-05
3.25325e-05
3.28914e-05
3.38301e-05
3.45283e-05
3.46228e-05
3.36462e-05
3.21436e-05
3.12556e-05
3.02172e-05
2.95799e-05
2.94946e-05
2.95785e-05
2.99202e-05
3.14254e-05
3.24883e-05
3.32596e-05
3.42119e-05
3.36456e-05
3.07633e-05
2.86525e-05
2.49986e-05
2.45701e-05
2.39159e-05
2.37116e-05
2.50204e-05
2.48376e-05
2.38611e-05
2.24877e-05
2.16297e-05
2.09504e-05
2.08589e-05
2.10419e-05
2.1438e-05
2.25159e-05
2.56346e-05
3.09088e-05
3.54585e-05
4.61251e-05
6.11426e-05
6.93086e-05
7.14101e-05
7.13792e-05
7.03735e-05
6.61016e-05
5.74154e-05
5.26004e-05
5.19324e-05
5.23069e-05
5.41955e-05
5.66807e-05
5.73535e-05
5.68492e-05
5.2778e-05
4.82917e-05
4.69044e-05
4.87667e-05
5.13761e-05
5.1244e-05
4.47711e-05
4.22025e-05
4.11692e-05
4.65835e-05
4.54087e-05
4.01318e-05
3.81727e-05
3.45468e-05
3.85891e-05
3.54528e-05
3.85775e-05
3.86504e-05
4.26872e-05
4.79185e-05
4.63176e-05
5.29562e-05
5.11859e-05
5.92912e-05
8.1684e-05
8.54395e-05
9.38514e-05
0.000130569
0.000118049
0.000114098
0.000110047
0.000101826
9.99747e-05
0.000101749
0.000106988
0.000108362
0.000109649
0.000111241
0.000110118
0.000107326
0.000100811
8.69008e-05
7.01627e-05
5.28013e-05
3.95796e-05
2.91585e-05
2.07411e-05
1.48284e-05
1.05803e-05
7.56446e-06
6.35665e-06
5.77543e-06
5.77801e-06
5.92329e-06
6.45857e-06
6.58661e-06
6.87637e-06
8.77054e-06
1.03015e-05
1.3592e-05
1.66574e-05
1.76168e-05
1.97322e-05
2.59607e-05
5.84858e-05
8.32633e-05
8.51843e-05
8.98169e-05
9.70877e-05
9.59608e-05
8.53957e-05
6.64692e-05
5.67249e-05
5.42501e-05
5.59206e-05
5.85442e-05
5.39081e-05
4.73622e-05
4.86785e-05
5.71413e-05
5.89784e-05
5.98001e-05
6.03142e-05
5.97968e-05
5.33367e-05
3.71906e-05
2.61588e-05
2.42389e-05
3.56657e-05
7.10753e-05
7.97179e-05
7.24585e-05
5.72548e-05
5.77071e-05
6.25891e-05
6.42395e-05
6.28738e-05
6.34333e-05
5.87584e-05
4.95254e-05
4.27248e-05
3.79902e-05
3.60696e-05
3.56935e-05
3.52776e-05
3.49258e-05
3.47713e-05
3.45878e-05
3.40574e-05
3.26603e-05
3.16508e-05
3.15557e-05
3.29417e-05
3.57307e-05
3.57351e-05
3.55167e-05
3.73328e-05
4.01408e-05
4.18226e-05
4.23629e-05
4.27387e-05
4.27752e-05
4.24384e-05
3.99329e-05
3.75515e-05
3.3334e-05
2.91055e-05
2.64042e-05
2.494e-05
2.11511e-05
2.01459e-05
1.8763e-05
1.88958e-05
1.92068e-05
1.91203e-05
1.91381e-05
1.92806e-05
2.02229e-05
2.45286e-05
3.33141e-05
3.97583e-05
4.02768e-05
4.04093e-05
3.88505e-05
3.77075e-05
3.59139e-05
3.44176e-05
3.38874e-05
3.37433e-05
3.37753e-05
3.39314e-05
3.43296e-05
3.44889e-05
3.36196e-05
3.21772e-05
3.1304e-05
3.02028e-05
2.99358e-05
2.98329e-05
2.99063e-05
3.02978e-05
3.1553e-05
3.28061e-05
3.33096e-05
3.36806e-05
3.32681e-05
3.04315e-05
2.82904e-05
2.47188e-05
2.43179e-05
2.3803e-05
2.3616e-05
2.48849e-05
2.49855e-05
2.44552e-05
2.26564e-05
2.13112e-05
2.07929e-05
2.07645e-05
2.14592e-05
2.22176e-05
2.39757e-05
2.73589e-05
3.39493e-05
3.80312e-05
4.85931e-05
6.42617e-05
7.03419e-05
7.15277e-05
7.14309e-05
7.01415e-05
6.40979e-05
5.5127e-05
5.04445e-05
4.98682e-05
5.03339e-05
5.24759e-05
5.55384e-05
5.67088e-05
5.63176e-05
5.25196e-05
4.82457e-05
4.68955e-05
4.88563e-05
5.11854e-05
5.06084e-05
4.40321e-05
4.18888e-05
4.13826e-05
4.45492e-05
4.4454e-05
3.99524e-05
3.69843e-05
3.58173e-05
3.71737e-05
3.43496e-05
3.54854e-05
3.76021e-05
4.16749e-05
5.02276e-05
4.71836e-05
5.4003e-05
5.41673e-05
5.51565e-05
7.36243e-05
7.46908e-05
9.17105e-05
9.01745e-05
7.95999e-05
7.59886e-05
7.57455e-05
6.99597e-05
6.67843e-05
6.75433e-05
7.35056e-05
7.61645e-05
7.93478e-05
8.21944e-05
8.13134e-05
7.82212e-05
6.97949e-05
5.4979e-05
4.17245e-05
3.04611e-05
2.24389e-05
1.65278e-05
1.21092e-05
9.24552e-06
7.184e-06
5.76043e-06
5.40756e-06
5.2062e-06
5.28597e-06
5.73425e-06
5.96739e-06
6.16887e-06
6.67767e-06
8.79882e-06
1.03793e-05
1.39218e-05
1.78096e-05
1.83743e-05
1.98373e-05
2.51225e-05
5.3965e-05
8.4454e-05
8.49581e-05
8.63441e-05
9.44489e-05
9.55815e-05
8.35966e-05
6.47946e-05
5.72175e-05
5.48292e-05
5.66431e-05
5.78053e-05
5.22948e-05
4.86737e-05
5.17022e-05
5.79903e-05
5.92887e-05
6.00427e-05
6.00093e-05
5.78446e-05
4.55766e-05
3.07813e-05
2.31427e-05
2.27824e-05
3.71552e-05
7.41074e-05
8.14829e-05
7.1996e-05
5.89517e-05
6.03163e-05
6.47513e-05
6.66089e-05
6.60063e-05
6.6657e-05
5.96961e-05
4.97276e-05
4.27607e-05
3.79849e-05
3.60475e-05
3.58469e-05
3.54797e-05
3.50741e-05
3.47356e-05
3.4316e-05
3.36609e-05
3.2477e-05
3.18147e-05
3.19279e-05
3.39233e-05
3.60333e-05
3.59464e-05
3.61784e-05
3.83067e-05
4.04245e-05
4.18629e-05
4.23744e-05
4.26939e-05
4.23698e-05
4.18077e-05
3.93612e-05
3.73244e-05
3.34168e-05
2.88245e-05
2.56182e-05
2.45989e-05
2.11678e-05
1.98256e-05
1.90212e-05
1.90168e-05
1.9895e-05
1.99476e-05
1.98506e-05
1.96192e-05
2.01152e-05
2.26039e-05
2.96886e-05
3.82283e-05
3.95432e-05
4.01081e-05
3.89154e-05
3.81061e-05
3.68084e-05
3.54396e-05
3.43044e-05
3.41751e-05
3.39289e-05
3.37475e-05
3.37739e-05
3.39364e-05
3.34467e-05
3.21726e-05
3.11734e-05
3.023e-05
3.02358e-05
3.01759e-05
3.02214e-05
3.06232e-05
3.16346e-05
3.31797e-05
3.35133e-05
3.3331e-05
3.28958e-05
2.98532e-05
2.79882e-05
2.47428e-05
2.37071e-05
2.35354e-05
2.35468e-05
2.4455e-05
2.47734e-05
2.43951e-05
2.21368e-05
2.09676e-05
2.07887e-05
2.06577e-05
2.17414e-05
2.30116e-05
2.55513e-05
2.87027e-05
3.61837e-05
4.02114e-05
5.27845e-05
6.68615e-05
7.12225e-05
7.16984e-05
7.14014e-05
6.88219e-05
6.0084e-05
5.18617e-05
4.79536e-05
4.76828e-05
4.82834e-05
5.09261e-05
5.43084e-05
5.57492e-05
5.56146e-05
5.22963e-05
4.80868e-05
4.68114e-05
4.86595e-05
5.07477e-05
5.03559e-05
4.37202e-05
4.30589e-05
4.27191e-05
4.23164e-05
4.38234e-05
3.8891e-05
3.51242e-05
3.46955e-05
3.39665e-05
3.4627e-05
3.57399e-05
3.72384e-05
4.36894e-05
5.16906e-05
5.11435e-05
5.55446e-05
5.70926e-05
5.72324e-05
6.78213e-05
6.73238e-05
8.65833e-05
5.20028e-05
4.57557e-05
4.34884e-05
4.35965e-05
3.99938e-05
3.70336e-05
3.72612e-05
4.1261e-05
4.3895e-05
4.76362e-05
5.03053e-05
4.94869e-05
4.6566e-05
3.86209e-05
2.99556e-05
2.24066e-05
1.63578e-05
1.23622e-05
9.39152e-06
7.4729e-06
6.57234e-06
5.59178e-06
5.01356e-06
4.91316e-06
4.93747e-06
4.97642e-06
5.35659e-06
5.59506e-06
6.02758e-06
6.67732e-06
8.88003e-06
1.04239e-05
1.38624e-05
1.82015e-05
1.88943e-05
2.02808e-05
2.53189e-05
4.9503e-05
8.48392e-05
8.55472e-05
8.56635e-05
9.28726e-05
9.48722e-05
8.16071e-05
6.44664e-05
5.76663e-05
5.52908e-05