/*--------------------------------*- C++ -*----------------------------------*\
| =========                 |                                                 |
| \\      /  F ield         | OpenFOAM: The Open Source CFD Toolbox           |
|  \\    /   O peration     | Version:  2.4.0                                 |
|   \\  /    A nd           | Web:      www.OpenFOAM.org                      |
|    \\/     M anipulation  |                                                 |
\*---------------------------------------------------------------------------*/
FoamFile
{
    version     2.0;
    format      ascii;
    class       surfaceScalarField;
    location    "0.122";
    object      phi;
}
// * * * * * * * * * * * * * * * * * * * * * * * * * * * * * * * * * * * * * //

dimensions      [0 3 -1 0 0 0 0];

internalField   nonuniform List<scalar> 
34880
(
5.48588e-06
7.01412e-06
3.12531e-06
2.36057e-06
2.47784e-06
6.47473e-07
2.20868e-06
2.69157e-07
2.08061e-06
1.28071e-07
1.97055e-06
1.10064e-07
1.87852e-06
9.20277e-08
1.82557e-06
5.29478e-08
1.78302e-06
4.25526e-08
1.7249e-06
5.81249e-08
1.71422e-06
1.06729e-08
1.69721e-06
1.70124e-08
1.64929e-06
4.79231e-08
1.66065e-06
-1.1365e-08
1.64776e-06
1.2888e-08
1.66959e-06
-2.18212e-08
1.63989e-06
2.96981e-08
1.80979e-06
-1.69899e-07
1.57418e-06
2.35604e-07
-1.50409e-06
3.07828e-06
1.01058e-05
9.40831e-06
7.83383e-06
4.63255e-06
6.71462e-06
1.76668e-06
6.05213e-06
9.31645e-07
5.65379e-06
5.26411e-07
5.34908e-06
4.14777e-07
5.11333e-06
3.27769e-07
4.95612e-06
2.10166e-07
4.81521e-06
1.83458e-07
4.68577e-06
1.87564e-07
4.63446e-06
6.19835e-08
4.5463e-06
1.05169e-07
4.47556e-06
1.1867e-07
4.44925e-06
1.49433e-08
4.4141e-06
4.80416e-08
4.42451e-06
-3.22395e-08
4.37251e-06
8.17018e-08
4.65306e-06
-4.50445e-07
4.54303e-06
3.45627e-07
-2.66055e-06
5.69948e-06
1.24168e-05
9.4915e-06
1.10113e-05
6.03805e-06
9.98242e-06
2.79557e-06
9.19262e-06
1.72145e-06
8.62739e-06
1.09164e-06
8.18873e-06
8.53444e-07
7.84676e-06
6.69731e-07
7.6103e-06
4.46628e-07
7.39038e-06
4.03383e-07
7.20482e-06
3.73118e-07
7.11701e-06
1.49794e-07
6.96315e-06
2.59028e-07
6.88319e-06
1.98639e-07
6.81303e-06
8.50939e-08
6.7571e-06
1.03976e-07
6.74499e-06
-2.013e-08
6.69698e-06
1.29714e-07
6.93737e-06
-6.90834e-07
6.99914e-06
2.83855e-07
-3.64999e-06
7.98858e-06
1.33995e-05
8.59205e-06
1.28995e-05
6.53802e-06
1.23258e-05
3.36921e-06
1.17068e-05
2.34044e-06
1.11437e-05
1.65479e-06
1.06567e-05
1.34043e-06
1.02621e-05
1.06432e-06
9.97709e-06
7.31663e-07
9.70796e-06
6.72508e-07
9.47484e-06
6.06239e-07
9.36893e-06
2.55708e-07
9.1584e-06
4.69554e-07
9.06936e-06
2.87684e-07
8.97003e-06
1.84419e-07
8.88936e-06
1.84651e-07
8.84866e-06
2.05708e-08
8.82416e-06
1.54213e-07
8.98352e-06
-8.50196e-07
9.11969e-06
1.47684e-07
-4.37468e-06
9.84439e-06
1.35732e-05
7.51888e-06
1.36749e-05
6.4363e-06
1.3623e-05
3.42106e-06
1.33894e-05
2.57407e-06
1.30307e-05
2.01349e-06
1.26223e-05
1.74879e-06
1.22606e-05
1.42606e-06
1.19798e-05
1.01245e-06
1.17115e-05
9.40831e-07
1.14506e-05
8.6708e-07
1.13508e-05
3.5558e-07
1.11073e-05
7.13006e-07
1.1009e-05
3.86042e-07
1.09004e-05
2.92952e-07
1.08018e-05
2.83242e-07
1.07333e-05
8.90555e-08
1.07284e-05
1.59127e-07
1.08284e-05
-9.50211e-07
1.10023e-05
-2.61262e-08
-4.75992e-06
1.13875e-05
1.34572e-05
6.56166e-06
1.37729e-05
6.12059e-06
1.40007e-05
3.19325e-06
1.41257e-05
2.44911e-06
1.40979e-05
2.04126e-06
1.38954e-05
1.95136e-06
1.36818e-05
1.63966e-06
1.34827e-05
1.21158e-06
1.32895e-05
1.13397e-06
1.30414e-05
1.11516e-06
1.29776e-05
4.19446e-07
1.27427e-05
9.47866e-07
1.26416e-05
4.87164e-07
1.25459e-05
3.88651e-07
1.24442e-05
3.84909e-07
1.2369e-05
1.64299e-07
1.23625e-05
1.65563e-07
1.24298e-05
-1.01751e-06
1.26083e-05
-2.04585e-07
-4.6514e-06
1.24998e-05
1.33287e-05
5.73293e-06
1.37156e-05
5.73368e-06
1.39478e-05
2.9611e-06
1.41904e-05
2.2065e-06
1.44015e-05
1.83016e-06
1.44007e-05
1.95214e-06
1.43916e-05
1.64876e-06
1.43295e-05
1.27369e-06
1.42981e-05
1.16538e-06
1.41229e-05
1.2904e-06
1.41318e-05
4.10474e-07
1.39672e-05
1.11252e-06
1.38882e-05
5.66177e-07
1.38288e-05
4.47967e-07
1.37408e-05
4.73001e-07
1.36985e-05
2.06516e-07
1.3684e-05
1.80068e-07
1.37194e-05
-1.05287e-06
1.39307e-05
-4.15874e-07
-4.12872e-06
1.3408e-05
1.32238e-05
5.00917e-06
1.37203e-05
5.23717e-06
1.38607e-05
2.82065e-06
1.40623e-05
2.00492e-06
1.43336e-05
1.55882e-06
1.44237e-05
1.86206e-06
1.45329e-05
1.53962e-06
1.4543e-05
1.26353e-06
1.46864e-05
1.02197e-06
1.46162e-05
1.36062e-06
1.47026e-05
3.24097e-07
1.46621e-05
1.15295e-06
1.46495e-05
5.78807e-07
1.46539e-05
4.43569e-07
1.4598e-05
5.28883e-07
1.46311e-05
1.73479e-07
1.4631e-05
1.80142e-07
1.46477e-05
-1.06961e-06
1.48968e-05
-6.64903e-07
-3.22007e-06
1.39881e-05
1.31335e-05
4.37567e-06
1.36407e-05
4.72994e-06
1.38296e-05
2.63182e-06
1.39914e-05
1.8431e-06
1.42145e-05
1.33566e-06
1.43344e-05
1.74217e-06
1.44746e-05
1.39944e-06
1.44555e-05
1.2826e-06
1.46808e-05
7.9675e-07
1.46946e-05
1.3468e-06
1.47913e-05
2.27335e-07
1.48493e-05
1.095e-06
1.49119e-05
5.16155e-07
1.49831e-05
3.72424e-07
1.49636e-05
5.48383e-07
1.5082e-05
5.50569e-08
1.51223e-05
1.39825e-07
1.51879e-05
-1.13514e-06
1.54534e-05
-9.30449e-07
-3.44625e-06
1.56796e-05
1.30697e-05
3.80593e-06
1.35106e-05
4.28906e-06
1.37762e-05
2.36624e-06
1.39529e-05
1.6664e-06
1.41211e-05
1.16748e-06
1.42865e-05
1.57679e-06
1.44392e-05
1.24667e-06
1.43797e-05
1.3421e-06
1.45906e-05
5.85889e-07
1.46595e-05
1.2779e-06
1.47093e-05
1.77548e-07
1.47919e-05
1.01238e-06
1.4885e-05
4.23022e-07
1.49931e-05
2.6434e-07
1.49939e-05
5.47626e-07
1.51496e-05
-1.00633e-07
1.52394e-05
4.99837e-08
1.53736e-05
-1.26931e-06
1.55461e-05
-1.10298e-06
-3.54406e-06
1.56439e-05
1.30169e-05
3.28904e-06
1.34067e-05
3.89928e-06
1.36901e-05
2.08282e-06
1.38736e-05
1.48285e-06
1.40435e-05
9.97599e-07
1.42741e-05
1.34621e-06
1.44137e-05
1.10703e-06
1.43672e-05
1.38862e-06
1.45286e-05
4.24509e-07
1.46159e-05
1.1906e-06
1.46369e-05
1.56518e-07
1.47295e-05
9.19824e-07
1.48076e-05
3.44947e-07
1.4925e-05
1.46847e-07
1.49268e-05
5.45876e-07
1.50903e-05
-2.64167e-07
1.52332e-05
-9.28694e-08
1.53432e-05
-1.3793e-06
1.54331e-05
-1.19291e-06
-3.75423e-06
1.56433e-05
1.2929e-05
2.86007e-06
1.33838e-05
3.44444e-06
1.36636e-05
1.803e-06
1.3803e-05
1.3435e-06
1.3994e-05
8.06547e-07
1.42096e-05
1.13063e-06
1.43171e-05
9.9951e-07
1.43383e-05
1.36742e-06
1.44543e-05
3.08589e-07
1.45565e-05
1.0884e-06
1.45952e-05
1.17777e-07
1.47326e-05
7.82441e-07
1.47693e-05
3.08277e-07
1.48688e-05
4.72968e-08
1.48679e-05
5.46748e-07
1.5017e-05
-4.13271e-07
1.5185e-05
-2.60782e-07
1.52252e-05
-1.41955e-06
1.53535e-05
-1.32117e-06
-4.12728e-06
1.57265e-05
1.28688e-05
2.49126e-06
1.34231e-05
2.89017e-06
1.36754e-05
1.55068e-06
1.37615e-05
1.25744e-06
1.39454e-05
6.22567e-07
1.40686e-05
1.00749e-06
1.4184e-05
8.84117e-07
1.42981e-05
1.25328e-06
1.43669e-05
2.39773e-07
1.45058e-05
9.49523e-07
1.45878e-05
3.58196e-08
1.47312e-05
6.39042e-07
1.47274e-05
3.12057e-07
1.48134e-05
-3.87774e-08
1.48285e-05
5.31691e-07
1.49298e-05
-5.14562e-07
1.50881e-05
-4.19101e-07
1.51115e-05
-1.44293e-06
1.53491e-05
-1.55877e-06
-4.41575e-06
1.56376e-05
1.29005e-05
2.09073e-06
1.34138e-05
2.37689e-06
1.36151e-05
1.34942e-06
1.37182e-05
1.15436e-06
1.38562e-05
4.84507e-07
1.39345e-05
9.29174e-07
1.41197e-05
6.98931e-07
1.42846e-05
1.08839e-06
1.43059e-05
2.18518e-07
1.44928e-05
7.62582e-07
1.45658e-05
-3.71613e-08
1.46589e-05
5.45881e-07
1.466e-05
3.11009e-07
1.47514e-05
-1.30192e-07
1.47924e-05
4.90647e-07
1.48564e-05
-5.78502e-07
1.49947e-05
-5.57411e-07
1.5065e-05
-1.51324e-06
1.53568e-05
-1.85054e-06
-4.34511e-06
1.52861e-05
1.29092e-05
1.68158e-06
1.33069e-05
1.97917e-06
1.35236e-05
1.13268e-06
1.36994e-05
9.78604e-07
1.37826e-05
4.01254e-07
1.38941e-05
8.17693e-07
1.41251e-05
4.67922e-07
1.42686e-05
9.44945e-07
1.42734e-05
2.13706e-07
1.44788e-05
5.57163e-07
1.44888e-05
-4.71339e-08
1.45637e-05
4.70896e-07
1.46163e-05
2.58486e-07
1.47056e-05
-2.19542e-07
1.47725e-05
4.23787e-07
1.48162e-05
-6.22182e-07
1.49476e-05
-6.88896e-07
1.50704e-05
-1.63603e-06
1.52882e-05
-2.06836e-06
-4.07832e-06
1.50214e-05
1.28285e-05
1.35307e-06
1.3219e-05
1.5887e-06
1.35367e-05
8.1495e-07
1.37044e-05
8.10946e-07
1.37627e-05
3.42947e-07
1.39289e-05
6.51508e-07
1.41147e-05
2.82072e-07
1.42141e-05
8.45587e-07
1.42479e-05
1.79882e-07
1.44319e-05
3.73159e-07
1.44012e-05
-1.63924e-08
1.45286e-05
3.43471e-07
1.46142e-05
1.72888e-07
1.46721e-05
-2.7745e-07
1.47681e-05
3.27742e-07
1.47858e-05
-6.39829e-07
1.49534e-05
-8.56509e-07
1.50273e-05
-1.70989e-06
1.51857e-05
-2.22684e-06
-3.92392e-06
1.50313e-05
1.2771e-05
1.08208e-06
1.32308e-05
1.12892e-06
1.35637e-05
4.81994e-07
1.36691e-05
7.05529e-07
1.3768e-05
2.44091e-07
1.39432e-05
4.76275e-07
1.40429e-05
1.82406e-07
1.4164e-05
7.24461e-07
1.424e-05
1.03914e-07
1.43839e-05
2.29276e-07
1.43695e-05
-2.01523e-09
1.45345e-05
1.78513e-07
1.46006e-05
1.06755e-07
1.46259e-05
-3.02763e-07
1.47546e-05
1.99053e-07
1.47657e-05
-6.50931e-07
1.49666e-05
-1.05745e-06
1.49268e-05
-1.67005e-06
1.50018e-05
-2.30187e-06
-2.61904e-06
1.36969e-05
1.27873e-05
7.94814e-07
1.32663e-05
6.49906e-07
1.34997e-05
2.48618e-07
1.36201e-05
5.85073e-07
1.37773e-05
8.69302e-08
1.3891e-05
3.62516e-07
1.39773e-05
9.6157e-08
1.41757e-05
5.2602e-07
1.42449e-05
3.47342e-08
1.43551e-05
1.19125e-07
1.43671e-05
-1.40442e-08
1.45147e-05
3.09358e-08
1.45561e-05
6.5298e-08
1.45946e-05
-3.41231e-07
1.47309e-05
6.27287e-08
1.47723e-05
-6.92301e-07
1.4906e-05
-1.19114e-06
1.48791e-05
-1.64316e-06
1.49624e-05
-2.38521e-06
-3.06927e-06
1.54127e-05
1.27998e-05
4.95052e-07
1.32331e-05
2.16569e-07
1.3428e-05
5.37216e-08
1.36363e-05
3.76818e-07
1.37782e-05
-5.50656e-08
1.38431e-05
2.97704e-07
1.39861e-05
-4.68811e-08
1.41975e-05
3.14625e-07
1.42262e-05
6.04384e-09
1.43278e-05
1.7513e-08
1.43565e-05
-4.2728e-08
1.4476e-05
-8.86042e-08
1.45382e-05
3.13451e-09
1.45789e-05
-3.81903e-07
1.47197e-05
-7.81165e-08
1.47659e-05
-7.385e-07
1.48313e-05
-1.25651e-06
1.48593e-05
-1.67124e-06
1.50179e-05
-2.54382e-06
-3.53059e-06
1.54793e-05
1.27795e-05
2.15588e-07
1.31749e-05
-1.78825e-07
1.34397e-05
-2.11094e-07
1.36893e-05
1.27143e-07
1.37628e-05
-1.28543e-07
1.38382e-05
2.22343e-07
1.40114e-05
-2.20069e-07
1.41758e-05
1.50165e-07
1.41932e-05
-1.12746e-08
1.43171e-05
-1.06476e-07
1.43582e-05
-8.37456e-08
1.44703e-05
-2.00737e-07
1.45315e-05
-5.80982e-08
1.45707e-05
-4.21059e-07
1.47109e-05
-2.18349e-07
1.47466e-05
-7.74175e-07
1.48005e-05
-1.31039e-06
1.48832e-05
-1.75399e-06
1.50759e-05
-2.73648e-06
-3.79485e-06
1.53401e-05
1.27587e-05
-4.30831e-08
1.3176e-05
-5.96109e-07
1.34965e-05
-5.31625e-07
1.37002e-05
-7.65275e-08
1.3732e-05
-1.60435e-07
1.38358e-05
1.18552e-07
1.40095e-05
-3.93766e-07
1.41534e-05
6.31121e-09
1.41927e-05
-5.05422e-08
1.43381e-05
-2.51885e-07
1.43875e-05
-1.33162e-07
1.44611e-05
-2.74314e-07
1.4518e-05
-1.15082e-07
1.45681e-05
-4.711e-07
1.47143e-05
-3.64581e-07
1.47295e-05
-7.89306e-07
1.48205e-05
-1.40143e-06
1.49014e-05
-1.83485e-06
1.49934e-05
-2.82854e-06
-4.02591e-06
1.52245e-05
1.2754e-05
-2.97039e-07
1.32215e-05
-1.06361e-06
1.35319e-05
-8.42066e-07
1.36596e-05
-2.04192e-07
1.37065e-05
-2.07361e-07
1.3847e-05
-2.19516e-08
1.40199e-05
-5.66722e-07
1.41583e-05
-1.32013e-07
1.42245e-05
-1.16821e-07
1.43615e-05
-3.88858e-07
1.43956e-05
-1.67222e-07
1.44347e-05
-3.13466e-07
1.45258e-05
-2.06159e-07
1.45766e-05
-5.21899e-07
1.47186e-05
-5.06555e-07
1.47307e-05
-8.01423e-07
1.48544e-05
-1.52513e-06
1.48861e-05
-1.86652e-06
1.47401e-05
-2.68253e-06
-2.94314e-06
1.36573e-05
1.2776e-05
-5.73071e-07
1.32608e-05
-1.54842e-06
1.3522e-05
-1.10318e-06
1.36195e-05
-3.01774e-07
1.37195e-05
-3.07337e-07
1.38915e-05
-1.93941e-07
1.40443e-05
-7.19513e-07
1.41729e-05
-2.60618e-07
1.42428e-05
-1.86715e-07
1.43634e-05
-5.09503e-07
1.43704e-05
-1.74182e-07
1.44453e-05
-3.88382e-07
1.45418e-05
-3.02693e-07
1.46085e-05
-5.88598e-07
1.47082e-05
-6.06214e-07
1.47666e-05
-8.59844e-07
1.48438e-05
-1.60234e-06
1.48775e-05
-1.90017e-06
1.48633e-05
-2.66835e-06
-3.30802e-06
1.52282e-05
1.28097e-05
-8.82813e-07
1.32755e-05
-2.01422e-06
1.35032e-05
-1.33082e-06
1.36177e-05
-4.16244e-07
1.37727e-05
-4.62351e-07
1.39363e-05
-3.57516e-07
1.40533e-05
-8.36578e-07
1.41751e-05
-3.82418e-07
1.42494e-05
-2.61037e-07
1.43604e-05
-6.20505e-07
1.43862e-05
-1.99916e-07
1.44771e-05
-4.79293e-07
1.45711e-05
-3.9675e-07
1.46294e-05
-6.469e-07
1.47107e-05
-6.87425e-07
1.47877e-05
-9.36872e-07
1.48276e-05
-1.64223e-06
1.48847e-05
-1.95734e-06
1.49099e-05
-2.69347e-06
-3.62755e-06
1.52294e-05
1.28317e-05
-1.21456e-06
1.32847e-05
-2.4672e-06
1.35194e-05
-1.56548e-06
1.36572e-05
-5.54055e-07
1.38245e-05
-6.29683e-07
1.39526e-05
-4.85595e-07
1.40526e-05
-9.36586e-07
1.41846e-05
-5.14393e-07
1.4273e-05
-3.49497e-07
1.43902e-05
-7.37695e-07
1.44316e-05
-2.41276e-07
1.4512e-05
-5.59676e-07
1.45976e-05
-4.8233e-07
1.46458e-05
-6.95144e-07
1.47222e-05
-7.63814e-07
1.48003e-05
-1.01495e-06
1.48444e-05
-1.68637e-06
1.49124e-05
-2.02537e-06
1.49611e-05
-2.74208e-06
-3.84735e-06
1.51809e-05
1.28558e-05
-1.57031e-06
1.3319e-05
-2.93044e-06
1.35621e-05
-1.80863e-06
1.36918e-05
-6.83754e-07
1.38446e-05
-7.82466e-07
1.39645e-05
-6.05492e-07
1.40782e-05
-1.05026e-06
1.42262e-05
-6.62362e-07
1.43182e-05
-4.41531e-07
1.44304e-05
-8.49937e-07
1.44617e-05
-2.7249e-07
1.45374e-05
-6.35457e-07
1.4621e-05
-5.65935e-07
1.46739e-05
-7.4799e-07
1.47379e-05
-8.27834e-07
1.48354e-05
-1.11246e-06
1.48775e-05
-1.72842e-06
1.49421e-05
-2.08998e-06
1.50084e-05
-2.80838e-06
-3.9227e-06
1.50837e-05
1.28929e-05
-1.96324e-06
1.33667e-05
-3.40419e-06
1.35931e-05
-2.03504e-06
1.37081e-05
-7.98766e-07
1.38711e-05
-9.45432e-07
1.40065e-05
-7.40888e-07
1.41336e-05
-1.17741e-06
1.42771e-05
-8.05824e-07
1.43531e-05
-5.17535e-07
1.4451e-05
-9.47864e-07
1.44904e-05
-3.11908e-07
1.45731e-05
-7.18097e-07
1.46642e-05
-6.57063e-07
1.47124e-05
-7.96174e-07
1.47734e-05
-8.88864e-07
1.48824e-05
-1.22144e-06
1.49001e-05
-1.74616e-06
1.49792e-05
-2.16902e-06
1.50607e-05
-2.88991e-06
-3.90677e-06
1.50448e-05
1.29399e-05
-2.4031e-06
1.34146e-05
-3.87895e-06
1.35805e-05
-2.20092e-06
1.37376e-05
-9.55864e-07
1.39283e-05
-1.1361e-06
1.40631e-05
-8.75687e-07
1.41869e-05
-1.30124e-06
1.43114e-05
-9.3035e-07
1.4379e-05
-5.85157e-07
1.4483e-05
-1.0518e-06
1.45476e-05
-3.76565e-07
1.46314e-05
-8.01888e-07
1.47168e-05
-7.42459e-07
1.47581e-05
-8.3742e-07
1.48208e-05
-9.51545e-07
1.49204e-05
-1.32105e-06
1.49238e-05
-1.74962e-06
1.50376e-05
-2.28276e-06
1.51054e-05
-2.95771e-06
-3.98e-06
1.51786e-05
1.29965e-05
-2.89963e-06
1.34671e-05
-4.3495e-06
1.35917e-05
-2.32556e-06
1.37884e-05
-1.15254e-06
1.39918e-05
-1.33945e-06
1.41093e-05
-9.93214e-07
1.42377e-05
-1.42971e-06
1.43464e-05
-1.03898e-06
1.44243e-05
-6.63063e-07
1.45393e-05
-1.16686e-06
1.4619e-05
-4.56245e-07
1.4683e-05
-8.65899e-07
1.47646e-05
-8.24053e-07
1.48097e-05
-8.82502e-07
1.48719e-05
-1.01374e-06
1.49585e-05
-1.40759e-06
1.49729e-05
-1.76407e-06
1.50952e-05
-2.40503e-06
1.51345e-05
-2.99699e-06
-4.09054e-06
1.5245e-05
1.30607e-05
-3.4603e-06
1.35247e-05
-4.8135e-06
1.36299e-05
-2.43077e-06
1.3848e-05
-1.37071e-06
1.40452e-05
-1.53657e-06
1.41607e-05
-1.1087e-06
1.43037e-05
-1.57275e-06
1.43921e-05
-1.12737e-06
1.44899e-05
-7.60889e-07
1.45983e-05
-1.27528e-06
1.46796e-05
-5.37521e-07
1.47268e-05
-9.13083e-07
1.48259e-05
-9.23137e-07
1.48706e-05
-9.27234e-07
1.4935e-05
-1.07816e-06
1.50122e-05
-1.48471e-06
1.50323e-05
-1.78419e-06
1.51116e-05
-2.48434e-06
1.51236e-05
-3.009e-06
-4.22472e-06
1.52578e-05
1.31331e-05
-4.09341e-06
1.35873e-05
-5.2677e-06
1.36743e-05
-2.51775e-06
1.39119e-05
-1.60831e-06
1.40973e-05
-1.72201e-06
1.4235e-05
-1.24632e-06
1.43793e-05
-1.71706e-06
1.44511e-05
-1.19923e-06
1.45707e-05
-8.80505e-07
1.46571e-05
-1.36168e-06
1.47416e-05
-6.21995e-07
1.47916e-05
-9.63118e-07
1.48954e-05
-1.02693e-06
1.49326e-05
-9.64455e-07
1.49914e-05
-1.13691e-06
1.50337e-05
-1.52697e-06
1.50295e-05
-1.78003e-06
1.50228e-05
-2.47767e-06
1.49713e-05
-2.95751e-06
-4.32252e-06
1.50691e-05
1.32151e-05
-4.80855e-06
1.36356e-05
-5.68817e-06
1.37246e-05
-2.60673e-06
1.39866e-05
-1.87034e-06
1.41693e-05
-1.9047e-06
1.43444e-05
-1.42139e-06
1.44607e-05
-1.83334e-06
1.45297e-05
-1.26826e-06
1.4661e-05
-1.01181e-06
1.47063e-05
-1.40702e-06
1.47904e-05
-7.06029e-07
1.48326e-05
-1.00534e-06
1.48898e-05
-1.08415e-06
1.49004e-05
-9.75047e-07
1.49077e-05
-1.14423e-06
1.48727e-05
-1.49194e-06
1.48012e-05
-1.70853e-06
1.46673e-05
-2.3438e-06
1.44891e-05
-2.77926e-06
-4.31469e-06
1.44812e-05
1.32958e-05
-5.60439e-06
1.36631e-05
-6.05543e-06
1.38064e-05
-2.75008e-06
1.4093e-05
-2.15685e-06
1.42819e-05
-2.09365e-06
1.44659e-05
-1.60539e-06
1.45164e-05
-1.8838e-06
1.45725e-05
-1.32435e-06
1.46601e-05
-1.0994e-06
1.46201e-05
-1.36708e-06
1.46631e-05
-7.49009e-07
1.46343e-05
-9.76568e-07
1.4589e-05
-1.03881e-06
1.45333e-05
-9.1931e-07
1.44493e-05
-1.06028e-06
1.43152e-05
-1.3578e-06
1.41557e-05
-1.54904e-06
1.39006e-05
-2.08866e-06
1.35733e-05
-2.45202e-06
-3.3314e-06
1.259e-05
1.33784e-05
-6.48283e-06
1.36524e-05
-6.32939e-06
1.39382e-05
-3.03592e-06
1.42154e-05
-2.43396e-06
1.43508e-05
-2.22911e-06
1.44487e-05
-1.70329e-06
1.4367e-05
-1.80208e-06
1.43278e-05
-1.28515e-06
1.42812e-05
-1.05277e-06
1.41161e-05
-1.20201e-06
1.40646e-05
-6.97519e-07
1.39335e-05
-8.45487e-07
1.37892e-05
-8.9448e-07
1.36668e-05
-7.96897e-07
1.35068e-05
-9.00262e-07
1.33035e-05
-1.15458e-06
1.30762e-05
-1.32171e-06
1.275e-05
-1.7625e-06
1.23777e-05
-2.07972e-06
-3.05539e-06
1.21017e-05
1.34892e-05
-7.47206e-06
1.37244e-05
-6.56458e-06
1.40109e-05
-3.32243e-06
1.41361e-05
-2.55915e-06
1.40571e-05
-2.15009e-06
1.39335e-05
-1.57966e-06
1.36584e-05
-1.52707e-06
1.3468e-05
-1.09472e-06
1.32789e-05
-8.63626e-07
1.30232e-05
-9.46314e-07
1.28959e-05
-5.70212e-07
1.27034e-05
-6.53023e-07
1.25115e-05
-7.0259e-07
1.23522e-05
-6.37594e-07
1.21548e-05
-7.02846e-07
1.19176e-05
-9.17429e-07
1.16543e-05
-1.05842e-06
1.12943e-05
-1.40249e-06
1.08699e-05
-1.65525e-06
-2.29222e-06
1.01067e-05
1.3593e-05
-8.56501e-06
1.36412e-05
-6.61285e-06
1.36359e-05
-3.31707e-06
1.33924e-05
-2.31573e-06
1.30011e-05
-1.7588e-06
1.26486e-05
-1.22713e-06
1.22419e-05
-1.12038e-06
1.19583e-05
-8.11104e-07
1.17019e-05
-6.07202e-07
1.14241e-05
-6.68488e-07
1.12659e-05
-4.12041e-07
1.10591e-05
-4.46251e-07
1.08599e-05
-5.03349e-07
1.06881e-05
-4.65776e-07
1.04827e-05
-4.97469e-07
1.02373e-05
-6.72071e-07
9.96297e-06
-7.84062e-07
9.59137e-06
-1.0309e-06
9.16136e-06
-1.22523e-06
-1.65682e-06
8.52596e-06
1.34118e-05
-9.47681e-06
1.2877e-05
-6.07809e-06
1.23347e-05
-2.77478e-06
1.17088e-05
-1.68975e-06
1.11212e-05
-1.17122e-06
1.06736e-05
-7.79595e-07
1.0249e-05
-6.95689e-07
9.95164e-06
-5.13789e-07
9.69829e-06
-3.53853e-07
9.44381e-06
-4.14004e-07
9.28714e-06
-2.55368e-07
9.09981e-06
-2.58925e-07
8.91667e-06
-3.20205e-07
8.7509e-06
-3.00005e-07
8.56056e-06
-3.07138e-07
8.32731e-06
-4.38813e-07
8.06022e-06
-5.16974e-07
7.70587e-06
-6.76544e-07
7.28744e-06
-8.06809e-07
-1.11077e-06
6.74139e-06
1.24242e-05
-9.40104e-06
1.09969e-05
-4.65071e-06
9.9855e-06
-1.76343e-06
9.19752e-06
-9.01772e-07
8.60835e-06
-5.82051e-07
8.19965e-06
-3.70891e-07
7.83956e-06
-3.35597e-07
7.58326e-06
-2.57497e-07
7.38064e-06
-1.51224e-07
7.17404e-06
-2.07403e-07
7.04266e-06
-1.23991e-07
6.89758e-06
-1.13845e-07
6.74411e-06
-1.66737e-07
6.60053e-06
-1.56422e-07
6.44325e-06
-1.49855e-07
6.23839e-06
-2.3396e-07
5.99918e-06
-2.7776e-07
5.68614e-06
-3.63501e-07
5.3077e-06
-4.28374e-07
-6.28337e-07
4.82527e-06
1.01105e-05
-7.01155e-06
7.82556e-06
-2.36577e-06
6.71226e-06
-6.50128e-07
6.06213e-06
-2.51641e-07
5.63499e-06
-1.54905e-07
5.35697e-06
-9.28788e-08
5.11112e-06
-8.97432e-08
4.93015e-06
-7.65281e-08
4.80746e-06
-2.8534e-08
4.66204e-06
-6.19879e-08
4.57361e-06
-3.556e-08
4.48371e-06
-2.39448e-08
4.37017e-06
-5.31963e-08
4.26415e-06
-5.04025e-08
4.15541e-06
-4.1115e-08
3.9973e-06
-7.58516e-08
3.81175e-06
-9.2209e-08
3.56834e-06
-1.2009e-07
3.2759e-06
-1.35936e-07
-2.42487e-07
2.89005e-06
5.48845e-06
3.12269e-06
2.47256e-06
2.22092e-06
2.06601e-06
1.97313e-06
1.88339e-06
1.80686e-06
1.77833e-06
1.71634e-06
1.68078e-06
1.65684e-06
1.60364e-06
1.55324e-06
1.51212e-06
1.43627e-06
1.34406e-06
1.22397e-06
1.08804e-06
8.45549e-07
3.41784e-06
-2.9544e-06
2.61483e-06
3.68086e-06
-2.85025e-06
2.58724e-06
3.40952e-06
-2.36713e-06
2.63847e-06
3.16068e-06
-1.96629e-06
2.21514e-06
3.30089e-06
-2.05112e-06
1.91091e-06
4.03801e-06
-3.17808e-07
-4.1931e-07
5.9e-06
4.31731e-06
-6.1793e-06
8.03677e-06
4.62598e-06
-6.76275e-06
9.64714e-06
4.81732e-06
-6.42769e-06
1.14353e-05
6.04341e-06
-7.83156e-06
1.28111e-05
5.02333e-06
-6.39918e-06
1.3659e-05
4.26757e-06
-5.11546e-06
1.45506e-05
2.38354e-06
-3.27512e-06
1.4928e-05
-4.93589e-07
1.16214e-07
1.49974e-05
-2.5071e-06
2.43769e-06
1.55232e-05
-5.22314e-06
4.6973e-06
1.58621e-05
-8.10792e-06
7.76905e-06
1.5237e-05
-9.77978e-06
1.04049e-05
1.46032e-05
-1.05078e-05
1.11415e-05
1.4737e-05
-1.12219e-05
1.10882e-05
1.5413e-05
-1.38174e-05
1.31413e-05
1.57733e-05
-1.67188e-05
1.63585e-05
1.56219e-05
-1.88109e-05
1.89623e-05
1.50948e-05
-1.96192e-05
2.01463e-05
1.42794e-05
-1.95314e-05
2.03468e-05
1.33989e-05
-1.87896e-05
1.96702e-05
1.26139e-05
-1.78965e-05
1.86815e-05
1.18872e-05
-1.74859e-05
1.82126e-05
1.11707e-05
-1.55763e-05
1.62928e-05
1.04709e-05
-1.45416e-05
1.52415e-05
9.92473e-06
-1.42185e-05
1.47646e-05
9.3408e-06
-1.24868e-05
1.30708e-05
8.65008e-06
-1.22307e-05
1.29214e-05
7.99842e-06
-1.21569e-05
1.28086e-05
7.48619e-06
-1.04954e-05
1.10076e-05
6.76787e-06
-1.03486e-05
1.1067e-05
6.00737e-06
-1.24886e-05
1.32491e-05
5.60989e-06
-1.19591e-05
1.23566e-05
5.51403e-06
-7.07403e-06
7.16988e-06
5.58833e-06
2.22423e-07
-2.96716e-07
5.58076e-06
7.9182e-06
-7.91063e-06
5.57602e-06
1.43318e-05
-1.43271e-05
4.88786e-06
2.10398e-05
-2.03516e-05
4.12074e-06
3.04339e-05
-2.96668e-05
4.07945e-06
3.26856e-05
-3.26443e-05
4.49815e-06
3.19455e-05
-3.23642e-05
5.19325e-06
2.82904e-05
-2.89855e-05
5.62943e-06
2.24829e-05
-2.29191e-05
5.97823e-06
1.86173e-05
-1.89661e-05
7.13138e-06
1.29065e-05
-1.40596e-05
8.14242e-06
6.24775e-06
-7.25879e-06
8.29262e-06
3.13876e-06
-3.28896e-06
8.06329e-06
1.8955e-06
-1.66617e-06
8.62966e-06
-1.17152e-06
6.05151e-07
9.8329e-06
-7.10803e-06
5.90479e-06
1.07435e-05
-1.3214e-05
1.23034e-05
1.09273e-05
-1.75202e-05
1.73364e-05
1.04362e-05
-1.92645e-05
1.97556e-05
9.62505e-06
-1.81636e-05
1.89748e-05
9.03239e-06
-1.73828e-05
1.79755e-05
8.4745e-06
-1.90386e-05
1.95965e-05
7.79807e-06
-1.99416e-05
2.06181e-05
6.98899e-06
-1.84817e-05
1.92907e-05
6.06895e-06
-1.60252e-05
1.69452e-05
5.29602e-06
-1.31075e-05
1.38805e-05
4.67386e-06
-1.09902e-05
1.16123e-05
4.24166e-06
-1.13545e-05
1.17866e-05
4.26323e-06
-1.38402e-05
1.38186e-05
4.51533e-06
-1.6359e-05
1.61069e-05
4.78654e-06
-1.85867e-05
1.83155e-05
5.21984e-06
-2.08305e-05
2.03972e-05
5.73007e-06
-2.32198e-05
2.27096e-05
6.46773e-06
-2.47147e-05
2.3977e-05
7.29076e-06
-2.65673e-05
2.57443e-05
7.99742e-06
-2.7635e-05
2.69283e-05
8.41365e-06
-2.70526e-05
2.66364e-05
8.70907e-06
-2.47384e-05
2.4443e-05
9.06033e-06
-2.22089e-05
2.18577e-05
9.40773e-06
-1.92043e-05
1.88569e-05
9.56397e-06
-1.55733e-05
1.5417e-05
9.67155e-06
-1.15153e-05
1.14078e-05
9.92158e-06
-7.2732e-06
7.02317e-06
1.01741e-05
-4.22364e-06
3.97108e-06
1.0201e-05
-6.70696e-07
6.43845e-07
1.00931e-05
4.19416e-06
-4.08631e-06
9.97965e-06
8.93592e-06
-8.82245e-06
1.00497e-05
1.22514e-05
-1.23215e-05
1.01823e-05
1.25415e-05
-1.2674e-05
1.01546e-05
1.14316e-05
-1.1404e-05
1.0057e-05
1.25077e-05
-1.241e-05
9.89938e-06
1.62919e-05
-1.61343e-05
9.75157e-06
2.05057e-05
-2.03579e-05
9.77039e-06
2.39195e-05
-2.39383e-05
9.77448e-06
2.62775e-05
-2.62816e-05
9.58876e-06
2.625e-05
-2.60642e-05
9.23788e-06
2.44739e-05
-2.4123e-05
9.01937e-06
2.26645e-05
-2.2446e-05
8.98866e-06
2.14799e-05
-2.14492e-05
9.18037e-06
1.98758e-05
-2.00675e-05
9.36745e-06
1.84997e-05
-1.86867e-05
9.36423e-06
1.71709e-05
-1.71677e-05
9.24804e-06
1.53175e-05
-1.52013e-05
9.28027e-06
1.26871e-05
-1.27193e-05
9.29611e-06
1.23896e-05
-1.24055e-05
9.37945e-06
1.1305e-05
-1.13883e-05
9.46935e-06
1.08799e-05
-1.09698e-05
9.70594e-06
9.52127e-06
-9.75786e-06
9.82954e-06
9.64189e-06
-9.76548e-06
9.83964e-06
9.51834e-06
-9.52845e-06
9.63241e-06
9.97101e-06
-9.76378e-06
9.00199e-06
8.35123e-06
-7.72081e-06
8.22951e-06
8.35066e-06
-7.57818e-06
8.04449e-06
5.92886e-06
-5.74384e-06
7.67146e-06
7.23019e-06
-6.85716e-06
7.66945e-06
6.11853e-06
-6.11652e-06
7.9373e-06
9.81964e-06
-1.00875e-05
8.11941e-06
9.66688e-06
-9.84899e-06
8.421e-06
1.31228e-05
-1.34244e-05
8.49392e-06
1.2502e-05
-1.25749e-05
8.75082e-06
1.33876e-05
-1.36445e-05
9.08371e-06
1.11311e-05
-1.1464e-05
9.29145e-06
1.25823e-05
-1.279e-05
9.479e-06
1.20889e-05
-1.22765e-05
9.89001e-06
1.25618e-05
-1.29728e-05
1.01335e-05
1.16252e-05
-1.18687e-05
1.04537e-05
1.16195e-05
-1.19396e-05
1.05202e-05
8.77654e-06
-8.84312e-06
1.03519e-05
5.18761e-06
-5.01924e-06
1.01691e-05
2.48952e-07
-6.61956e-08
1.01054e-05
-2.89821e-06
2.96196e-06
9.91155e-06
-6.62146e-06
6.81529e-06
9.81377e-06
-8.98342e-06
9.0812e-06
9.57353e-06
-1.18982e-05
1.21385e-05
9.51261e-06
-1.29147e-05
1.29756e-05
9.09415e-06
-1.69686e-05
1.7387e-05
9.16948e-06
-1.5726e-05
1.56506e-05
9.16445e-06
-1.88999e-05
1.89049e-05
8.89475e-06
-1.53294e-05
1.55991e-05
8.78676e-06
-1.63073e-05
1.64153e-05
9.05312e-06
-1.40209e-05
1.37546e-05
9.04139e-06
-1.43148e-05
1.43265e-05
9.16286e-06
-9.40752e-06
9.28605e-06
9.35682e-06
-1.17434e-05
1.15494e-05
9.18697e-06
-8.64366e-06
8.81351e-06
9.68097e-06
-1.0357e-05
9.86296e-06
9.43208e-06
-6.97205e-06
7.22095e-06
9.53751e-06
-7.12819e-06
7.02276e-06
9.77454e-06
-5.13865e-06
4.90162e-06
9.94205e-06
-4.57284e-06
4.40533e-06
9.33606e-06
-3.32449e-06
3.93048e-06
9.27876e-06
-5.70924e-06
5.76655e-06
9.50189e-06
-6.35559e-06
6.13247e-06
9.93588e-06
-5.95449e-06
5.52049e-06
1.00047e-05
-5.16264e-06
5.09383e-06
1.00108e-05
-5.44915e-06
5.44304e-06
1.01497e-05
-5.65056e-06
5.51162e-06
1.03664e-05
-5.66552e-06
5.44891e-06
1.05499e-05
-6.06476e-06
5.88118e-06
1.08848e-05
-7.49452e-06
7.15967e-06
1.14555e-05
-9.63241e-06
9.06171e-06
1.21635e-05
-1.17241e-05
1.10161e-05
1.28594e-05
-1.31444e-05
1.24485e-05
1.34968e-05
-1.35355e-05
1.28981e-05
1.40184e-05
-1.28457e-05
1.2324e-05
1.43132e-05
-1.11815e-05
1.08867e-05
1.43392e-05
-8.55407e-06
8.52808e-06
1.41327e-05
-4.54843e-06
4.75487e-06
1.37511e-05
3.46095e-07
3.55623e-08
1.32373e-05
5.06298e-06
-4.54918e-06
1.26261e-05
9.30368e-06
-8.69248e-06
1.1975e-05
1.34834e-05
-1.28323e-05
1.12735e-05
1.74017e-05
-1.67003e-05
1.04584e-05
2.01028e-05
-1.92877e-05
9.58851e-06
2.07667e-05
-1.98968e-05
8.80652e-06
2.00769e-05
-1.9295e-05
8.03595e-06
1.95963e-05
-1.88258e-05
7.32388e-06
1.99305e-05
-1.92185e-05
6.42782e-06
2.13102e-05
-2.04141e-05
5.35995e-06
2.30656e-05
-2.19977e-05
4.54203e-06
2.41032e-05
-2.32853e-05
3.92116e-06
2.40884e-05
-2.34676e-05
3.14812e-06
2.40256e-05
-2.32525e-05
2.98861e-06
2.11274e-05
-2.09679e-05
1.49534e-06
2.37378e-05
-2.22445e-05
1.36733e-06
1.45782e-05
-1.44502e-05
2.28623e-06
1.37228e-05
-1.46417e-05
4.16564e-06
3.43924e-06
-5.31865e-06
3.48898e-06
8.22794e-06
-7.55128e-06
4.86729e-06
-3.39165e-06
2.01333e-06
3.90397e-06
5.12546e-06
-4.16214e-06
5.38776e-06
-6.33492e-06
4.85113e-06
4.48702e-06
2.73879e-06
-1.83805e-06
5.99677e-06
-6.27485e-06
4.7651e-06
4.87491e-06
1.98615e-06
-8.64292e-07
6.08905e-06
-4.98695e-06
3.77281e-06
4.6389e-06
1.85069e-06
-4.00543e-07
5.10265e-06
-2.16891e-06
1.70516e-06
4.12263e-06
4.11727e-06
-3.13726e-06
5.12016e-06
3.1737e-06
-4.17123e-06
1.51353e-05
-1.46028e-05
4.58763e-06
5.61686e-06
-2.87178e-06
5.56472e-06
-2.7981e-06
5.38431e-06
-2.18673e-06
5.21188e-06
-1.79386e-06
4.93768e-06
-1.77692e-06
4.88647e-06
-2.66607e-07
6.02556e-06
3.17822e-06
7.47376e-06
3.17777e-06
9.20444e-06
3.08664e-06
1.11413e-05
4.10651e-06
1.23445e-05
3.82022e-06
1.35052e-05
3.10683e-06
1.4449e-05
1.43969e-06
1.45592e-05
-6.0375e-07
1.48021e-05
-2.75002e-06
1.52843e-05
-5.7053e-06
1.52961e-05
-8.11969e-06
1.48001e-05
-9.28385e-06
1.47136e-05
-1.04212e-05
1.53637e-05
-1.18721e-05
1.61482e-05
-1.46019e-05
1.63344e-05
-1.6905e-05
1.59155e-05
-1.8392e-05
1.5188e-05
-1.88917e-05
1.4302e-05
-1.86455e-05
1.34545e-05
-1.79421e-05
1.27238e-05
-1.71658e-05
1.19941e-05
-1.67562e-05
1.1301e-05
-1.48832e-05
1.06436e-05
-1.38843e-05
1.00729e-05
-1.36477e-05
9.49677e-06
-1.19107e-05
8.83252e-06
-1.15664e-05
8.14653e-06
-1.14709e-05
7.5583e-06
-9.90718e-06
6.84723e-06
-9.63758e-06
6.04852e-06
-1.16899e-05
5.56819e-06
-1.14787e-05
5.42614e-06
-6.93198e-06
5.38674e-06
2.61825e-07
5.40332e-06
7.90161e-06
5.41349e-06
1.43216e-05
4.56018e-06
2.18931e-05
4.16597e-06
3.08281e-05
4.11711e-06
3.27344e-05
4.58155e-06
3.14811e-05
5.41485e-06
2.74571e-05
5.70706e-06
2.21907e-05
6.1819e-06
1.81424e-05
7.38585e-06
1.17025e-05
8.08386e-06
5.54974e-06
7.99724e-06
3.22538e-06
8.01146e-06
1.88128e-06
8.99344e-06
-2.1535e-06
1.03377e-05
-8.45226e-06
1.11094e-05
-1.39858e-05
1.11107e-05
-1.75214e-05
1.04636e-05
-1.86175e-05
9.64152e-06
-1.73415e-05
9.01741e-06
-1.67587e-05
8.40713e-06
-1.84283e-05
7.74223e-06
-1.92767e-05
6.89682e-06
-1.76362e-05
5.87696e-06
-1.50053e-05
5.03572e-06
-1.22663e-05
4.41551e-06
-1.03699e-05
3.99452e-06
-1.09335e-05
3.98585e-06
-1.38315e-05
4.18571e-06
-1.65589e-05
4.37725e-06
-1.87783e-05
4.81621e-06
-2.12695e-05
5.36171e-06
-2.37653e-05
6.15535e-06
-2.55083e-05
6.84597e-06
-2.72579e-05
7.42109e-06
-2.82101e-05
7.75606e-06
-2.73876e-05
8.0564e-06
-2.50388e-05
8.37548e-06
-2.2528e-05
8.67177e-06
-1.95006e-05
8.84307e-06
-1.57446e-05
8.96106e-06
-1.16333e-05
9.21122e-06
-7.52337e-06
9.43228e-06
-4.44469e-06
9.42063e-06
-6.59046e-07
9.3047e-06
4.31009e-06
9.24327e-06
8.99735e-06
9.41966e-06
1.2075e-05
9.66568e-06
1.22954e-05
9.71494e-06
1.13824e-05
9.62064e-06
1.2602e-05
9.43152e-06
1.6481e-05
9.26528e-06
2.06719e-05
9.27305e-06
2.39117e-05
9.3043e-06
2.62463e-05
9.18563e-06
2.63686e-05
8.86872e-06
2.47908e-05
8.66492e-06
2.28683e-05
8.62964e-06
2.15152e-05
8.85885e-06
1.96466e-05
9.16557e-06
1.81929e-05
9.31528e-06
1.70212e-05
9.26321e-06
1.53696e-05
9.31577e-06