/*--------------------------------*- C++ -*----------------------------------*\
| =========                 |                                                 |
| \\      /  F ield         | OpenFOAM: The Open Source CFD Toolbox           |
|  \\    /   O peration     | Version:  2.4.0                                 |
|   \\  /    A nd           | Web:      www.OpenFOAM.org                      |
|    \\/     M anipulation  |                                                 |
\*---------------------------------------------------------------------------*/
FoamFile
{
    version     2.0;
    format      ascii;
    class       volVectorField;
    location    "0.122";
    object      UMean;
}
// * * * * * * * * * * * * * * * * * * * * * * * * * * * * * * * * * * * * * //

dimensions      [0 1 -1 0 0 0 0];

internalField   nonuniform List<vector> 
17600
(
(5.34939 0.307051 0)
(3.05272 0.0607766 0)
(2.27944 -0.0013753 0)
(1.93863 -0.00350926 0)
(1.80435 -0.00135008 0)
(1.71443 -0.000157599 0)
(1.65304 -4.01765e-05 0)
(1.59571 4.80005e-06 0)
(1.56509 -0.000175478 0)
(1.52789 3.88244e-05 0)
(1.51521 -0.000143579 0)
(1.48426 0.000195732 0)
(1.47881 -0.000121388 0)
(1.45075 0.000145415 0)
(1.4512 -0.000205559 0)
(1.43148 -5.91968e-05 0)
(1.43633 -0.000359706 0)
(1.44238 -0.000325992 0)
(1.46922 -0.0019963 0)
(1.43609 -0.0232142 0)
(8.59212 0.863028 0)
(7.00339 0.378019 0)
(5.90219 0.119051 0)
(5.1644 0.0492105 0)
(4.77984 0.0264941 0)
(4.51698 0.0188423 0)
(4.34757 0.014345 0)
(4.18802 0.010945 0)
(4.10223 0.00794116 0)
(3.99383 0.00651437 0)
(3.95806 0.00488756 0)
(3.86853 0.00516742 0)
(3.85662 0.00356236 0)
(3.77561 0.00424 0)
(3.77804 0.00176308 0)
(3.71738 0.00300207 0)
(3.72394 -0.00143776 0)
(3.72409 -0.00174326 0)
(3.72447 -0.0028925 0)
(3.87031 -0.0943486 0)
(9.82985 1.00981 0)
(9.36549 0.566916 0)
(8.53954 0.234867 0)
(7.72492 0.125536 0)
(7.2041 0.0772898 0)
(6.81819 0.0533548 0)
(6.57195 0.0398806 0)
(6.33174 0.0302928 0)
(6.20513 0.022927 0)
(6.03494 0.0182428 0)
(5.98273 0.0144171 0)
(5.84064 0.0135647 0)
(5.82712 0.0104347 0)
(5.69837 0.0107813 0)
(5.70576 0.00610482 0)
(5.60431 0.00734547 0)
(5.62016 -0.000886957 0)
(5.58299 -0.0011622 0)
(5.61106 -0.0149785 0)
(5.70809 -0.116898 0)
(10.1277 0.935624 0)
(10.5577 0.654548 0)
(10.2848 0.320289 0)
(9.67862 0.202281 0)
(9.18894 0.139886 0)
(8.76065 0.0995958 0)
(8.48595 0.0748031 0)
(8.19104 0.0568212 0)
(8.04436 0.0438748 0)
(7.82413 0.0346707 0)
(7.76493 0.0278489 0)
(7.57736 0.0256035 0)
(7.56694 0.0198537 0)
(7.39646 0.0208608 0)
(7.41165 0.0116915 0)
(7.27031 0.015966 0)
(7.30391 -0.00115667 0)
(7.20939 0.0046548 0)
(7.29114 -0.0335487 0)
(7.26778 -0.107415 0)
(10.0483 0.79612 0)
(10.8955 0.655151 0)
(11.1291 0.345216 0)
(10.8832 0.246109 0)
(10.6014 0.192581 0)
(10.2464 0.146282 0)
(10.0203 0.113217 0)
(9.71673 0.0869821 0)
(9.5844 0.0685794 0)
(9.336 0.0540426 0)
(9.28634 0.0444107 0)
(9.06687 0.0393237 0)
(9.06745 0.0322058 0)
(8.86506 0.031 0)
(8.89366 0.0217543 0)
(8.71874 0.0208785 0)
(8.76733 0.00940261 0)
(8.64219 -0.00278145 0)
(8.71172 -0.0188042 0)
(8.68649 -0.149925 0)
(9.96934 0.683582 0)
(10.8294 0.622753 0)
(11.3008 0.323201 0)
(11.3317 0.241912 0)
(11.3229 0.212523 0)
(11.1408 0.175977 0)
(11.0578 0.143608 0)
(10.817 0.114107 0)
(10.7496 0.0922801 0)
(10.5129 0.0741606 0)
(10.4953 0.0610296 0)
(10.2717 0.0550571 0)
(10.29 0.0435348 0)
(10.0805 0.0448847 0)
(10.1188 0.027529 0)
(9.93641 0.0348759 0)
(9.98837 0.00473768 0)
(9.8542 0.0175447 0)
(9.91452 -0.0463865 0)
(9.86222 -0.115567 0)
(9.95948 0.59533 0)
(10.7005 0.590179 0)
(11.2261 0.295092 0)
(11.3353 0.21249 0)
(11.487 0.200019 0)
(11.4411 0.178491 0)
(11.5264 0.153989 0)
(11.3973 0.126665 0)
(11.4465 0.106633 0)
(11.2733 0.0877381 0)
(11.3229 0.0747497 0)
(11.1327 0.0671163 0)
(11.1892 0.0562373 0)
(10.9969 0.0539916 0)
(11.0592 0.0403129 0)
(10.8827 0.037871 0)
(10.9531 0.0188563 0)
(10.8109 0.0095063 0)
(10.8872 -0.0356421 0)
(10.7972 -0.111801 0)
(9.97787 0.517081 0)
(10.5948 0.554509 0)
(11.1321 0.277734 0)
(11.2418 0.186087 0)
(11.4393 0.178533 0)
(11.4255 0.167103 0)
(11.591 0.148455 0)
(11.5367 0.124499 0)
(11.6772 0.105911 0)
(11.5881 0.0905219 0)
(11.7089 0.0772103 0)
(11.5962 0.0736411 0)
(11.6974 0.0594191 0)
(11.5704 0.0629817 0)
(11.6551 0.0418723 0)
(11.5303 0.0488852 0)
(11.6081 0.0152985 0)
(11.5018 0.0206849 0)
(11.5767 -0.0458379 0)
(11.4855 -0.0923758 0)
(9.99595 0.447425 0)
(10.5158 0.511072 0)
(11.048 0.264872 0)
(11.1697 0.163594 0)
(11.3667 0.157492 0)
(11.3628 0.153276 0)
(11.525 0.13836 0)
(11.5056 0.116371 0)
(11.6538 0.097858 0)
(11.6256 0.0845663 0)
(11.759 0.071777 0)
(11.724 0.0705821 0)
(11.8393 0.0569432 0)
(11.7948 0.0616737 0)
(11.8907 0.041578 0)
(11.8443 0.048051 0)
(11.9263 0.0148494 0)
(11.8857 0.0200965 0)
(11.9552 -0.0564844 0)
(11.8954 -0.0884542 0)
(9.99755 0.384825 0)
(10.4638 0.4646 0)
(10.9618 0.253008 0)
(11.1262 0.143015 0)
(11.2943 0.137233 0)
(11.3244 0.139643 0)
(11.4455 0.12751 0)
(11.4662 0.10803 0)
(11.5747 0.0880937 0)
(11.596 0.0772169 0)
(11.6922 0.0634184 0)
(11.7145 0.0645145 0)
(11.799 0.050364 0)
(11.8182 0.0562176 0)
(11.8905 0.0369302 0)
(11.9113 0.040787 0)
(11.9754 0.0131578 0)
(11.9988 0.00235775 0)
(12.0503 -0.0534653 0)
(12.0264 -0.145446 0)
(9.98298 0.327729 0)
(10.4284 0.418638 0)
(10.8784 0.240814 0)
(11.0921 0.124499 0)
(11.2298 0.117405 0)
(11.2959 0.12681 0)
(11.3785 0.116009 0)
(11.4325 0.100581 0)
(11.5072 0.0782595 0)
(11.5605 0.0707124 0)
(11.6273 0.0546362 0)
(11.6785 0.0592222 0)
(11.7383 0.0423873 0)
(11.7838 0.0512258 0)
(11.8373 0.0290787 0)
(11.8818 0.0357054 0)
(11.9335 0.00347742 0)
(11.9763 -0.00467135 0)
(12.017 -0.0711901 0)
(11.9948 -0.173653 0)
(9.97171 0.277186 0)
(10.3915 0.372091 0)
(10.8114 0.22824 0)
(11.0489 0.106461 0)
(11.1825 0.0992592 0)
(11.2585 0.112773 0)
(11.3305 0.105216 0)
(11.3912 0.0914718 0)
(11.4598 0.0699862 0)
(11.5177 0.0627667 0)
(11.5823 0.048261 0)
(11.6349 0.0520461 0)
(11.6935 0.0378234 0)
(11.7381 0.043128 0)
(11.7924 0.0256413 0)
(11.8345 0.0242973 0)
(11.8881 -4.72777e-05 0)
(11.9254 -0.0219782 0)
(11.9646 -0.0824085 0)
(11.9285 -0.194567 0)
(9.97004 0.232728 0)
(10.3537 0.325507 0)
(10.7568 0.212037 0)
(11.0029 0.0906359 0)
(11.1448 0.082233 0)
(11.2195 0.0988128 0)
(11.2913 0.0934681 0)
(11.3503 0.0820162 0)
(11.4199 0.0612658 0)
(11.4771 0.0550628 0)
(11.5439 0.0414433 0)
(11.5942 0.0454219 0)
(11.6543 0.0320927 0)
(11.6968 0.0365984 0)
(11.7524 0.0199407 0)
(11.792 0.0167694 0)
(11.8457 -0.0074677 0)
(11.8798 -0.0346371 0)
(11.915 -0.093873 0)
(11.8682 -0.209774 0)
(9.96951 0.19255 0)
(10.3227 0.280666 0)
(10.707 0.189671 0)
(10.9645 0.0779322 0)
(11.1092 0.0676307 0)
(11.1891 0.085233 0)
(11.2545 0.0816323 0)
(11.3177 0.0722162 0)
(11.3813 0.0529066 0)
(11.4452 0.0472243 0)
(11.5067 0.0351878 0)
(11.5625 0.038515 0)
(11.6171 0.0272129 0)
(11.6658 0.0289226 0)
(11.7148 0.0149733 0)
(11.7605 0.00744331 0)
(11.8065 -0.0148311 0)
(11.8456 -0.0461414 0)
(11.8699 -0.105867 0)
(11.8207 -0.219465 0)
(9.96666 0.156164 0)
(10.2987 0.237148 0)
(10.6646 0.162537 0)
(10.9337 0.0667897 0)
(11.0791 0.0549862 0)
(11.1663 0.0715396 0)
(11.2238 0.0697232 0)
(11.2913 0.0617032 0)
(11.3495 0.0447611 0)
(11.4198 0.0391768 0)
(11.476 0.0293899 0)
(11.5379 0.031334 0)
(11.5877 0.0221108 0)
(11.6418 0.0216459 0)
(11.6852 0.00960087 0)
(11.7362 -0.00102114 0)
(11.7754 -0.0223459 0)
(11.8185 -0.0571014 0)
(11.832 -0.11644 0)
(11.782 -0.227439 0)
(9.96576 0.12325 0)
(10.2777 0.193694 0)
(10.6337 0.133488 0)
(10.9051 0.0559774 0)
(11.0582 0.0430632 0)
(11.145 0.057952 0)
(11.2021 0.0571502 0)
(11.2664 0.0508754 0)
(11.3278 0.0362552 0)
(11.3958 0.0313575 0)
(11.4552 0.023337 0)
(11.5153 0.0241697 0)
(11.5679 0.0165387 0)
(11.6187 0.0142715 0)
(11.665 0.00369533 0)
(11.712 -0.00936942 0)
(11.753 -0.0298711 0)
(11.7908 -0.0681451 0)
(11.8016 -0.124442 0)
(11.7449 -0.235679 0)
(9.9688 0.0934762 0)
(10.2584 0.149767 0)
(10.6116 0.104418 0)
(10.8786 0.044517 0)
(11.0443 0.0323612 0)
(11.1248 0.0442679 0)
(11.1867 0.0448037 0)
(11.2442 0.039429 0)
(11.3124 0.0280607 0)
(11.3736 0.023553 0)
(11.4403 0.0175961 0)
(11.4942 0.0170973 0)
(11.5525 0.011368 0)
(11.5967 0.00717943 0)
(11.6491 -0.00218624 0)
(11.6884 -0.0169439 0)
(11.7349 -0.0383377 0)
(11.7629 -0.0761482 0)
(11.7765 -0.13527 0)
(11.7092 -0.233819 0)
(9.97031 0.0651266 0)
(10.2454 0.10672 0)
(10.5922 0.0747335 0)
(10.8607 0.0329948 0)
(11.0316 0.0219453 0)
(11.1112 0.0316216 0)
(11.1728 0.0316974 0)
(11.2298 0.028504 0)
(11.2973 0.0193987 0)
(11.3588 0.0164428 0)
(11.4257 0.0113248 0)
(11.4797 0.010578 0)
(11.5371 0.00545717 0)
(11.5821 0.000483927 0)
(11.633 -0.00843921 0)
(11.6723 -0.0242933 0)
(11.7168 -0.0458668 0)
(11.7422 -0.0844567 0)
(11.7541 -0.144164 0)
(11.6805 -0.233444 0)
(9.96848 0.0390823 0)
(10.2394 0.0630414 0)
(10.5771 0.0458029 0)
(10.8522 0.0194235 0)
(11.0205 0.0134487 0)
(11.105 0.0179884 0)
(11.1618 0.0195435 0)
(11.2226 0.0161624 0)
(11.2848 0.0118689 0)
(11.3518 0.00804821 0)
(11.4138 0.00618154 0)
(11.473 0.00281074 0)
(11.5249 0.000497367 0)
(11.5753 -0.00734289 0)
(11.6198 -0.0138854 0)
(11.6644 -0.0325189 0)
(11.7014 -0.0523208 0)
(11.7311 -0.0938078 0)
(11.7347 -0.149509 0)
(11.6622 -0.242065 0)
(9.96832 0.0129394 0)
(10.2352 0.0207123 0)
(10.5717 0.0154208 0)
(10.847 0.00655428 0)
(11.016 0.00418613 0)
(11.1011 0.00611856 0)
(11.158 0.00563553 0)
(11.2176 0.00566747 0)
(11.2807 0.00228188 0)
(11.3475 0.00198723 0)
(11.41 -0.00130849 0)
(11.4686 -0.00212914 0)
(11.5208 -0.00729731 0)
(11.5706 -0.011946 0)
(11.6149 -0.0226929 0)
(11.6584 -0.0371248 0)
(11.6943 -0.0626024 0)
(11.7227 -0.0986121 0)
(11.7224 -0.158297 0)
(11.6479 -0.249162 0)
(9.96966 -0.0119091 0)
(10.2337 -0.0227393 0)
(10.5738 -0.0139175 0)
(10.845 -0.00783307 0)
(11.0175 -0.0034307 0)
(11.0995 -0.00734423 0)
(11.1599 -0.00647557 0)
(11.2159 -0.00689381 0)
(11.2829 -0.00507627 0)
(11.3459 -0.00663502 0)
(11.412 -0.00581588 0)
(11.4665 -0.010464 0)
(11.5224 -0.0109858 0)
(11.5682 -0.0211529 0)
(11.6158 -0.0256601 0)
(11.6544 -0.0480341 0)
(11.6933 -0.0646012 0)
(11.7156 -0.112051 0)
(11.7156 -0.155053 0)
(11.636 -0.264369 0)
(9.96899 -0.0377748 0)
(10.2386 -0.0654541 0)
(10.5794 -0.0438486 0)
(10.8505 -0.021044 0)
(11.0215 -0.0122501 0)
(11.1041 -0.0197831 0)
(11.1639 -0.0197469 0)
(11.221 -0.0181248 0)
(11.2871 -0.0140287 0)
(11.3506 -0.0134088 0)
(11.4155 -0.0126536 0)
(11.4707 -0.0160288 0)
(11.5257 -0.0184759 0)
(11.5721 -0.0258589 0)
(11.6181 -0.03444 0)
(11.6567 -0.0515616 0)
(11.6938 -0.0759116 0)
(11.7145 -0.112909 0)
(11.7111 -0.167954 0)
(11.6294 -0.240118 0)
(9.96833 -0.0643467 0)
(10.2475 -0.108559 0)
(10.5907 -0.0733858 0)
(10.8624 -0.0337738 0)
(11.0298 -0.0216019 0)
(11.1132 -0.0325795 0)
(11.1719 -0.0327761 0)
(11.2308 -0.0293722 0)
(11.2954 -0.0228396 0)
(11.36 -0.020291 0)
(11.4229 -0.0192248 0)
(11.4799 -0.0218357 0)
(11.533 -0.0253835 0)
(11.5806 -0.0310727 0)
(11.6241 -0.0423676 0)
(11.6638 -0.0559181 0)
(11.6978 -0.0859017 0)
(11.7187 -0.114463 0)
(11.7127 -0.179925 0)
(11.632 -0.215548 0)
(9.96839 -0.092016 0)
(10.2594 -0.15241 0)
(10.6096 -0.102198 0)
(10.8793 -0.0464046 0)
(11.0435 -0.0309642 0)
(11.1251 -0.0465791 0)
(11.1854 -0.0444784 0)
(11.2444 -0.0418124 0)
(11.3098 -0.0299995 0)
(11.3731 -0.0290763 0)
(11.4367 -0.0235768 0)
(11.4924 -0.0303932 0)
(11.5462 -0.0286877 0)
(11.592 -0.0404774 0)
(11.6363 -0.0445666 0)
(11.6738 -0.0670133 0)
(11.7079 -0.0865609 0)
(11.7261 -0.128084 0)
(11.7209 -0.174723 0)
(11.6353 -0.231905 0)
(9.9673 -0.122721 0)
(10.2769 -0.195189 0)
(10.6346 -0.132256 0)
(10.903 -0.0568027 0)
(11.0605 -0.042843 0)
(11.1422 -0.0588536 0)
(11.2029 -0.058241 0)
(11.2641 -0.0517914 0)
(11.3283 -0.0398303 0)
(11.3923 -0.0350748 0)
(11.4542 -0.0314473 0)
(11.5105 -0.0351089 0)
(11.5628 -0.0366537 0)
(11.6093 -0.0445292 0)
(11.6519 -0.0530467 0)
(11.6895 -0.0708594 0)
(11.7217 -0.0954364 0)
(11.7393 -0.132446 0)
(11.7326 -0.180983 0)
(11.645 -0.23816 0)
(9.96683 -0.154851 0)
(10.2985 -0.239621 0)
(10.6669 -0.160256 0)
(10.9317 -0.0686559 0)
(11.0823 -0.0536096 0)
(11.1638 -0.0734454 0)
(11.2259 -0.0695164 0)
(11.2884 -0.0639581 0)
(11.3522 -0.0470393 0)
(11.4158 -0.0439809 0)
(11.4767 -0.0362303 0)
(11.5329 -0.0431093 0)
(11.5847 -0.0407986 0)
(11.631 -0.0522412 0)
(11.6728 -0.0573238 0)
(11.7098 -0.0783625 0)
(11.7406 -0.100375 0)
(11.7572 -0.139645 0)
(11.7496 -0.186878 0)
(11.6613 -0.239581 0)
(9.96673 -0.191868 0)
(10.325 -0.282564 0)
(10.7062 -0.188013 0)
(10.9659 -0.0791596 0)
(11.1094 -0.0669281 0)
(11.1902 -0.0864425 0)
(11.2546 -0.0819953 0)
(11.3177 -0.0739667 0)
(11.3815 -0.0557551 0)
(11.4441 -0.0512997 0)
(11.5049 -0.0426581 0)
(11.5602 -0.049609 0)
(11.6124 -0.0462023 0)
(11.6572 -0.0587381 0)
(11.6995 -0.0623173 0)
(11.7345 -0.0851367 0)
(11.7652 -0.10524 0)
(11.7793 -0.147183 0)
(11.7731 -0.192554 0)
(11.6831 -0.241615 0)
(9.96865 -0.231678 0)
(10.3566 -0.327645 0)
(10.7532 -0.210358 0)
(11.0063 -0.0921125 0)
(11.1423 -0.0813361 0)
(11.2225 -0.10028 0)
(11.2887 -0.0936523 0)
(11.3531 -0.0840273 0)
(11.416 -0.0640362 0)
(11.4791 -0.059183 0)
(11.5381 -0.0488877 0)
(11.594 -0.056364 0)
(11.6445 -0.0512718 0)
(11.69 -0.0652335 0)
(11.7304 -0.0669501 0)
(11.7656 -0.0916781 0)
(11.7939 -0.109568 0)
(11.8083 -0.154772 0)
(11.8008 -0.197921 0)
(11.7128 -0.24642 0)
(9.97847 -0.276562 0)
(10.3886 -0.373791 0)
(10.8123 -0.226725 0)
(11.0468 -0.107871 0)
(11.1844 -0.098216 0)
(11.2554 -0.114273 0)
(11.3316 -0.105391 0)
(11.3902 -0.0935656 0)
(11.4586 -0.0726135 0)
(11.5162 -0.0671448 0)
(11.5784 -0.0554357 0)
(11.6303 -0.0630881 0)
(11.6832 -0.056351 0)
(11.7259 -0.0717813 0)
(11.7676 -0.0711786 0)
(11.8005 -0.0983389 0)
(11.8285 -0.112919 0)
(11.8416 -0.162748 0)
(11.833 -0.20212 0)
(11.7485 -0.256251 0)
(9.99606 -0.32747 0)
(10.4183 -0.419779 0)
(10.8867 -0.239586 0)
(11.0816 -0.125472 0)
(11.2398 -0.116883 0)
(11.2839 -0.127581 0)
(11.3881 -0.117198 0)
(11.4231 -0.101761 0)
(11.5144 -0.0818229 0)
(11.55 -0.074141 0)
(11.6317 -0.0629025 0)
(11.6643 -0.0687454 0)
(11.735 -0.0623876 0)
(11.7605 -0.0771838 0)
(11.817 -0.0760148 0)
(11.8343 -0.103872 0)
(11.8725 -0.116038 0)
(11.8715 -0.169701 0)
(11.8661 -0.204957 0)
(11.773 -0.270549 0)
(10.0089 -0.384463 0)
(10.453 -0.465837 0)
(10.9716 -0.251488 0)
(11.1148 -0.144461 0)
(11.3065 -0.136394 0)
(11.3118 -0.140731 0)
(11.4584 -0.128513 0)
(11.4543 -0.109531 0)
(11.5859 -0.0912632 0)
(11.5814 -0.080991 0)
(11.7016 -0.0709895 0)
(11.6946 -0.0741422 0)
(11.8015 -0.0692469 0)
(11.7865 -0.0818639 0)
(11.8743 -0.0814421 0)
(11.8487 -0.10804 0)
(11.9083 -0.118591 0)
(11.8592 -0.174327 0)
(11.8566 -0.204645 0)
(11.712 -0.285065 0)
(10.0027 -0.447299 0)
(10.5089 -0.511833 0)
(11.0545 -0.263734 0)
(11.1641 -0.164823 0)
(11.374 -0.156898 0)
(11.3564 -0.154078 0)
(11.5327 -0.139535 0)
(11.4986 -0.117635 0)
(11.6597 -0.100887 0)
(11.6155 -0.0882578 0)
(11.7629 -0.0791456 0)
(11.707 -0.0796056 0)
(11.8352 -0.075582 0)
(11.7608 -0.0856248 0)
(11.8616 -0.085087 0)
(11.7646 -0.109775 0)
(11.8256 -0.117046 0)
(11.6911 -0.174635 0)
(11.6701 -0.194463 0)
(11.4296 -0.294132 0)
(9.98194 -0.516877 0)
(10.591 -0.555111 0)
(11.1355 -0.276892 0)
(11.2404 -0.187111 0)
(11.4411 -0.178114 0)
(11.4246 -0.167698 0)
(11.5916 -0.149721 0)
(11.5355 -0.125472 0)
(11.6751 -0.109089 0)
(11.5839 -0.0936028 0)
(11.7026 -0.0847207 0)
(11.5826 -0.0812438 0)
(11.6788 -0.0782952 0)
(11.5308 -0.0832885 0)
(11.6008 -0.084805 0)
(11.425 -0.102266 0)
(11.4563 -0.112982 0)
(11.2392 -0.159265 0)
(11.1801 -0.185159 0)
(10.8624 -0.267327 0)
(9.96262 -0.595241 0)
(10.6976 -0.590557 0)
(11.2286 -0.294475 0)
(11.3346 -0.21338 0)
(11.4868 -0.199663 0)
(11.4421 -0.179174 0)
(11.5235 -0.154901 0)
(11.3985 -0.127948 0)
(11.4396 -0.108954 0)
(11.2709 -0.0911951 0)
(11.308 -0.0806725 0)
(11.1185 -0.0751304 0)
(11.156 -0.0714322 0)
(10.9486 -0.0743492 0)
(10.9803 -0.0753401 0)
(10.7499 -0.0897943 0)
(10.7566 -0.0994862 0)
(10.4816 -0.1396 0)
(10.4019 -0.16307 0)
(10.0247 -0.230973 0)
(9.97159 -0.68355 0)
(10.827 -0.622887 0)
(11.303 -0.322938 0)
(11.3304 -0.242542 0)
(11.3227 -0.212452 0)
(11.1414 -0.176423 0)
(11.0541 -0.144528 0)
(10.8175 -0.115069 0)
(10.7411 -0.0945102 0)
(10.5087 -0.0768208 0)
(10.4766 -0.0666544 0)
(10.253 -0.0611791 0)
(10.2494 -0.0581219 0)
(10.0203 -0.0602401 0)
(10.0262 -0.0616077 0)
(9.7758 -0.073325 0)
(9.7646 -0.0825379 0)
(9.46329 -0.115202 0)
(9.36789 -0.135416 0)
(8.95829 -0.189154 0)
(10.0497 -0.796057 0)
(10.8938 -0.655269 0)
(11.1311 -0.345107 0)
(10.8818 -0.246552 0)
(10.6012 -0.192587 0)
(10.2462 -0.1466 0)
(10.0164 -0.113942 0)
(9.71637 -0.0878364 0)
(9.57462 -0.0702645 0)
(9.33058 -0.0564222 0)
(9.26463 -0.0485863 0)
(9.0458 -0.0449137 0)
(9.0203 -0.0428786 0)
(8.79932 -0.0449569 0)
(8.7881 -0.0464117 0)
(8.54379 -0.0556764 0)
(8.51813 -0.0639999 0)
(8.21625 -0.0876416 0)
(8.10849 -0.108487 0)
(7.69888 -0.131645 0)
(10.1286 -0.935583 0)
(10.5565 -0.65463 0)
(10.2863 -0.320256 0)
(9.67722 -0.202552 0)
(9.18863 -0.139945 0)
(8.75995 -0.0997716 0)
(8.48242 -0.0754058 0)
(8.18955 -0.0574067 0)
(8.03472 -0.0451838 0)
(7.81724 -0.036328 0)
(7.74286 -0.0311369 0)
(7.55383 -0.0293937 0)
(7.51864 -0.0281749 0)
(7.32613 -0.0302512 0)
(7.30356 -0.0313425 0)
(7.08536 -0.0384783 0)
(7.04877 -0.044554 0)
(6.76692 -0.0612967 0)
(6.6593 -0.0771845 0)
(6.25458 -0.0870955 0)
(9.83034 -1.00977 0)
(9.36485 -0.566976 0)
(8.54057 -0.234864 0)
(7.72371 -0.125687 0)
(7.20371 -0.0773504 0)
(6.81725 -0.0534306 0)
(6.56901 -0.0403173 0)
(6.32933 -0.0306314 0)
(6.19678 -0.023781 0)
(6.02694 -0.0192924 0)
(5.96245 -0.0164341 0)
(5.81669 -0.0161566 0)
(5.78126 -0.0154815 0)
(5.63018 -0.0172952 0)
(5.60189 -0.0178321 0)
(5.42548 -0.0227771 0)
(5.38192 -0.0262657 0)
(5.14261 -0.0368412 0)
(5.04123 -0.0469332 0)
(4.6664 -0.0510541 0)
(8.5924 -0.863011 0)
(7.00309 -0.37806 0)
(5.90269 -0.11905 0)
(5.16354 -0.0492715 0)
(4.77946 -0.0265413 0)
(4.51598 -0.0188543 0)
(4.34536 -0.0145863 0)
(4.18541 -0.0110798 0)
(4.0959 -0.00837325 0)
(3.98625 -0.00698693 0)
(3.94204 -0.00590122 0)
(3.84757 -0.00631531 0)
(3.81903 -0.005995 0)
(3.71844 -0.00719553 0)
(3.69117 -0.00727434 0)
(3.56966 -0.00997506 0)
(3.52675 -0.0112448 0)
(3.35408 -0.0165968 0)
(3.26513 -0.0208755 0)
(2.97315 -0.0229252 0)
(5.34948 -0.307043 0)
(3.05266 -0.0607875 0)
(2.2795 0.00137938 0)
(1.93825 0.00350543 0)
(1.80408 0.00133767 0)
(1.71389 0.000174529 0)
(1.65195 -1.47865e-05 0)
(1.59408 1.05599e-06 0)
(1.56194 0.000107897 0)
(1.52351 -6.9727e-05 0)
(1.5071 1.01341e-05 0)
(1.4727 -0.000301395 0)
(1.45923 -0.000158876 0)
(1.42042 -0.000508887 0)
(1.40488 -0.000310325 0)
(1.3553 -0.000899692 0)
(1.32939 -0.000704771 0)
(1.25454 -0.00168421 0)
(1.20174 -0.00189221 0)
(1.07079 0.0040934 0)
(2.14696 -0.241894 0)
(2.55591 -0.10963 0)
(3.08251 -0.0814139 0)
(3.59606 -0.0721462 0)
(4.07634 -0.0940309 0)
(4.57611 -0.147062 0)
(5.08162 -0.205898 0)
(5.59084 -0.345179 0)
(6.0663 -0.495249 0)
(6.47874 -0.656759 0)
(6.82239 -0.824672 0)
(7.08641 -0.995469 0)
(7.33986 -1.13424 0)
(7.49874 -1.21787 0)
(7.68222 -1.28166 0)
(7.81769 -1.31768 0)
(7.93536 -1.3687 0)
(8.03748 -1.44124 0)
(8.11086 -1.52918 0)
(8.19111 -1.62093 0)
(8.23375 -1.70575 0)
(8.27049 -1.76267 0)
(8.34094 -1.81353 0)
(8.4024 -1.86011 0)
(8.47364 -1.92357 0)
(8.53948 -1.98711 0)
(8.58741 -2.03027 0)
(8.63887 -2.06138 0)
(8.67185 -2.07903 0)
(8.71335 -2.09566 0)
(8.72726 -2.10195 0)
(8.75383 -2.11795 0)
(8.76388 -2.13424 0)
(8.74719 -2.1532 0)
(8.70506 -2.17807 0)
(8.62282 -2.2214 0)
(8.52182 -2.26079 0)
(8.42597 -2.27737 0)
(8.39655 -2.27604 0)
(8.40268 -2.27513 0)
(8.41325 -2.28667 0)
(8.41567 -2.30985 0)
(8.40594 -2.33768 0)
(8.39091 -2.36855 0)
(8.36951 -2.38824 0)
(8.36753 -2.40415 0)
(8.35393 -2.41306 0)
(8.32875 -2.42349 0)
(8.25306 -2.39477 0)
(8.16815 -2.36084 0)
(8.12907 -2.34935 0)
(8.07375 -2.31188 0)
(8.04052 -2.26985 0)
(8.01079 -2.22483 0)
(7.97672 -2.15727 0)
(7.9318 -2.08771 0)
(7.90711 -2.01273 0)
(7.8383 -1.89851 0)
(7.78254 -1.76591 0)
(7.68913 -1.63737 0)
(7.59101 -1.46875 0)
(7.44736 -1.28485 0)
(7.3238 -1.11543 0)
(7.2216 -0.966265 0)
(7.13477 -0.84241 0)
(7.05862 -0.742136 0)
(7.00582 -0.646632 0)
(6.9776 -0.553812 0)
(6.94696 -0.466925 0)
(6.91937 -0.373695 0)
(6.90258 -0.270483 0)
(6.87884 -0.170055 0)
(6.86526 -0.0693718 0)
(6.83979 0.0343956 0)
(6.81796 0.141855 0)
(6.79827 0.265234 0)
(6.75553 0.380049 0)
(6.72429 0.487505 0)
(6.66643 0.595798 0)
(6.63856 0.693417 0)
(6.58591 0.79253 0)
(6.5405 0.873227 0)
(6.49927 0.945789 0)
(6.45499 0.998993 0)
(6.41914 1.02352 0)
(6.35969 1.03151 0)
(6.2991 1.03335 0)
(6.22742 1.03084 0)
(6.17414 1.0036 0)
(6.1248 0.992845 0)
(6.06946 0.97219 0)
(6.0513 0.930125 0)
(6.02775 0.895531 0)
(6.0016 0.857307 0)
(5.98648 0.808987 0)
(5.96182 0.75138 0)
(5.96325 0.704263 0)
(5.9246 0.671437 0)
(5.95483 0.617304 0)
(5.90239 0.572426 0)
(5.93693 0.515411 0)
(5.8447 0.492722 0)
(5.88955 0.434968 0)
(5.80779 0.419526 0)
(5.87164 0.366784 0)
(5.77432 0.376585 0)
(5.8596 0.321829 0)
(5.7415 0.318944 0)
(5.8544 0.261608 0)
(5.72167 0.269424 0)
(5.84389 0.20491 0)
(5.72105 0.216144 0)
(5.85191 0.157732 0)
(5.75018 0.181548 0)
(5.88655 0.116541 0)
(5.79373 0.133919 0)
(5.93188 0.0753545 0)
(5.84411 0.0885292 0)
(5.96284 0.0247026 0)
(5.90794 0.0363477 0)
(5.97225 -0.0289271 0)
(5.97207 -0.0111081 0)
(5.99304 -0.0713779 0)
(6.01288 -0.0482943 0)
(6.02083 -0.113391 0)
(6.03969 -0.0726717 0)
(6.03962 -0.148392 0)
(6.05632 -0.0916017 0)
(6.05093 -0.163313 0)
(6.09262 -0.0872564 0)
(6.06206 -0.144296 0)
(6.15531 -0.0552842 0)
(6.07607 -0.0955205 0)
(6.21937 0.00545512 0)
(6.09445 -0.0367173 0)
(6.27396 0.0759921 0)
(6.09157 0.0321199 0)
(6.31054 0.134291 0)
(6.0923 0.0937542 0)
(6.30628 0.183668 0)
(6.11507 0.143372 0)
(6.2702 0.231773 0)
(6.13395 0.185183 0)
(6.24283 0.264819 0)
(6.13468 0.227935 0)
(6.22477 0.290259 0)
(6.12246 0.270477 0)
(6.2007 0.312128 0)
(6.10749 0.308209 0)
(6.15968 0.334064 0)
(6.0883 0.339373 0)
(6.12384 0.35714 0)
(6.06711 0.371313 0)
(6.08962 0.379957 0)
(6.04473 0.400129 0)
(6.04379 0.407803 0)
(6.01799 0.431342 0)
(5.99462 0.43847 0)
(5.98311 0.46739 0)
(5.93602 0.477644 0)
(5.93845 0.513251 0)
(5.86765 0.527953 0)
(5.87756 0.568706 0)
(5.78517 0.584769 0)
(5.80214 0.623002 0)
(5.69246 0.637889 0)
(5.72095 0.667031 0)
(5.60002 0.679314 0)
(5.64092 0.69421 0)
(5.52037 0.70776 0)
(5.56648 0.708461 0)
(5.46088 0.729934 0)
(5.50222 0.718732 0)
(5.42641 0.75673 0)
(5.45111 0.737833 0)
(5.41032 0.802632 0)
(5.4159 0.780203 0)
(5.40533 0.869306 0)
(5.40524 0.847191 0)
(5.40387 0.955875 0)
(5.42709 0.945116 0)
(5.40691 1.07336 0)
(5.47817 1.08702 0)
(5.42265 1.23868 0)
(5.5427 1.28613 0)
(5.46734 1.47517 0)
(5.57648 1.55632 0)
(5.54325 1.80379 0)
(5.57074 1.92774 0)
(5.58592 2.21728 0)
(5.5628 2.41655 0)
(5.58985 2.74282 0)
(5.49802 3.06788 0)
(5.42266 3.45138 0)
(5.42701 3.90438 0)
(5.46802 4.43116 0)
(5.31956 5.06504 0)
(5.15508 6.16766 0)
(5.65544 7.17926 0)
(3.17883 10.4286 0)
(4.04137 -0.266535 0)
(4.15698 -0.221687 0)
(4.41813 -0.242226 0)
(4.75004 -0.256591 0)
(5.11234 -0.280929 0)
(5.50578 -0.337772 0)
(5.89449 -0.406129 0)
(6.25977 -0.525498 0)
(6.60429 -0.667794 0)
(6.91591 -0.817422 0)
(7.21213 -0.972333 0)
(7.45421 -1.11917 0)
(7.66776 -1.24022 0)
(7.82433 -1.311 0)
(7.98551 -1.36421 0)
(8.13537 -1.38988 0)
(8.26124 -1.41987 0)
(8.37366 -1.47788 0)
(8.43942 -1.55578 0)
(8.49734 -1.6434 0)
(8.54104 -1.72323 0)
(8.57428 -1.78327 0)
(8.64226 -1.83908 0)
(8.72617 -1.88724 0)
(8.79376 -1.9446 0)
(8.85073 -2.00687 0)
(8.87885 -2.05131 0)
(8.92394 -2.08403 0)
(8.95611 -2.09929 0)
(8.99365 -2.1077 0)
(9.00416 -2.11009 0)
(9.01868 -2.12144 0)
(9.00691 -2.12932 0)
(8.98501 -2.1396 0)
(8.93774 -2.1515 0)
(8.84856 -2.17881 0)
(8.74239 -2.21413 0)
(8.64437 -2.24634 0)
(8.60521 -2.26684 0)
(8.6017 -2.27555 0)
(8.58402 -2.2881 0)
(8.55896 -2.30536 0)
(8.52004 -2.32536 0)
(8.48387 -2.35548 0)
(8.449 -2.3808 0)
(8.42484 -2.39627 0)
(8.39559 -2.4009 0)
(8.35268 -2.39922 0)
(8.25827 -2.36022 0)
(8.1768 -2.33367 0)
(8.13141 -2.32789 0)
(8.06748 -2.29367 0)
(8.0292 -2.25927 0)
(7.98519 -2.20882 0)
(7.93562 -2.13748 0)
(7.88345 -2.06921 0)
(7.84328 -1.98986 0)
(7.75746 -1.86829 0)
(7.68547 -1.7307 0)
(7.57087 -1.59235 0)
(7.46185 -1.41346 0)
(7.3135 -1.23288 0)
(7.20037 -1.06928 0)
(7.10614 -0.926909 0)
(7.02633 -0.810871 0)
(6.95317 -0.717614 0)
(6.89734 -0.626855 0)
(6.86208 -0.539531 0)
(6.82574 -0.454019 0)
(6.79403 -0.361125 0)
(6.77434 -0.260539 0)
(6.75315 -0.16251 0)
(6.74411 -0.0629735 0)
(6.72076 0.043413 0)
(6.69836 0.153039 0)
(6.67788 0.279793 0)
(6.637 0.398286 0)
(6.60726 0.504785 0)
(6.54819 0.613448 0)
(6.51428 0.711136 0)
(6.46105 0.8117 0)
(6.41447 0.892329 0)
(6.37909 0.95973 0)
(6.34278 1.014 0)
(6.31574 1.0426 0)
(6.26494 1.05609 0)
(6.20803 1.06185 0)
(6.13935 1.05745 0)
(6.08963 1.02743 0)
(6.03679 1.01619 0)
(5.98173 0.985158 0)
(5.96684 0.941255 0)
(5.93955 0.906313 0)
(5.91854 0.867351 0)
(5.90635 0.813134 0)
(5.88906 0.758803 0)
(5.88746 0.70926 0)
(5.85957 0.676926 0)
(5.89206 0.614992 0)
(5.85118 0.580364 0)
(5.88659 0.523159 0)
(5.80511 0.507654 0)
(5.8533 0.437705 0)
(5.77057 0.427366 0)
(5.83993 0.371368 0)
(5.73705 0.383007 0)
(5.83703 0.32447 0)
(5.71324 0.322072 0)
(5.83357 0.263558 0)
(5.6992 0.27479 0)
(5.8254 0.203318 0)
(5.69865 0.217593 0)
(5.8325 0.151149 0)
(5.71883 0.175577 0)
(5.87397 0.107626 0)
(5.75681 0.125989 0)
(5.91674 0.06655 0)
(5.80349 0.0794055 0)
(5.94675 0.0172523 0)
(5.86258 0.0276173 0)
(5.96145 -0.0347809 0)
(5.90897 -0.0211878 0)
(5.99066 -0.0752579 0)
(5.93921 -0.057812 0)
(6.02291 -0.113601 0)
(5.96018 -0.0819751 0)
(6.05207 -0.146786 0)
(5.97017 -0.100936 0)
(6.07365 -0.162318 0)
(5.98619 -0.0977677 0)
(6.09518 -0.146634 0)
(6.02509 -0.0693878 0)
(6.12077 -0.0973622 0)
(6.07322 -0.012259 0)
(6.15699 -0.0354219 0)
(6.11562 0.0631673 0)
(6.16952 0.0352381 0)
(6.16087 0.126114 0)
(6.16367 0.0999448 0)
(6.1819 0.175315 0)
(6.16869 0.154131 0)
(6.16245 0.223893 0)
(6.18926 0.19365 0)
(6.13256 0.261762 0)
(6.20069 0.233386 0)
(6.11284 0.291249 0)
(6.1931 0.275377 0)
(6.09706 0.313051 0)
(6.17452 0.316535 0)
(6.07067 0.334987 0)
(6.15545 0.347984 0)
(6.04657 0.361467 0)
(6.13257 0.378601 0)
(6.03487 0.386098 0)
(6.09917 0.404613 0)
(6.0167 0.416293 0)
(6.0616 0.43411 0)
(5.9914 0.453194 0)
(6.01194 0.468784 0)
(5.96196 0.496759 0)
(5.95381 0.514016 0)
(5.92134 0.553375 0)
(5.87763 0.57052 0)
(5.86516 0.615765 0)
(5.79078 0.625648 0)
(5.79671 0.671375 0)
(5.70147 0.669299 0)
(5.72353 0.711736 0)
(5.61753 0.696127 0)
(5.65521 0.735341 0)
(5.54858 0.711766 0)
(5.5941 0.749046 0)
(5.50279 0.724255 0)
(5.54166 0.765099 0)
(5.48624 0.748622 0)
(5.49346 0.798802 0)
(5.49615 0.796539 0)
(5.44974 0.856272 0)
(5.52767 0.863266 0)
(5.42219 0.941975 0)
(5.57203 0.949272 0)
(5.43016 1.0682 0)
(5.61463 1.07407 0)
(5.47827 1.244 0)
(5.65284 1.25936 0)
(5.55281 1.48067 0)
(5.67471 1.53919 0)
(5.61406 1.79569 0)
(5.71844 1.92356 0)
(5.65472 2.20885 0)
(5.75287 2.40579 0)
(5.70897 2.73723 0)
(5.84528 3.0252 0)
(5.79656 3.44956 0)
(5.71422 3.90762 0)
(5.69512 4.53098 0)
(5.64198 5.12616 0)
(5.31541 6.37713 0)
(6.90887 6.94819 0)
(4.53998 11.2333 0)
(5.83692 -0.259587 0)
(5.85688 -0.271875 0)
(6.00585 -0.314529 0)
(6.20427 -0.36109 0)
(6.44603 -0.407159 0)
(6.70003 -0.46852 0)
(6.95799 -0.541828 0)
(7.18039 -0.647034 0)
(7.41091 -0.781373 0)
(7.62363 -0.927474 0)
(7.83875 -1.07494 0)
(7.99599 -1.20112 0)
(8.11129 -1.30847 0)
(8.20756 -1.37825 0)
(8.29697 -1.4354 0)
(8.4171 -1.46448 0)
(8.53964 -1.48965 0)
(8.6832 -1.52412 0)
(8.77125 -1.58571 0)
(8.82987 -1.65939 0)
(8.89056 -1.73522 0)
(8.92569 -1.79564 0)
(8.9758 -1.86289 0)
(9.04762 -1.91959 0)
(9.10912 -1.97139 0)
(9.16897 -2.02472 0)
(9.18543 -2.06606 0)
(9.21608 -2.10122 0)
(9.22658 -2.11512 0)
(9.24297 -2.11559 0)
(9.24321 -2.11334 0)
(9.24131 -2.11917 0)
(9.20724 -2.11935 0)
(9.17641 -2.12302 0)
(9.13121 -2.12611 0)
(9.04945 -2.1394 0)
(8.96089 -2.16851 0)
(8.87216 -2.21279 0)
(8.81615 -2.25182 0)
(8.78482 -2.26673 0)
(8.73822 -2.27733 0)
(8.68434 -2.28742 0)
(8.61625 -2.30163 0)
(8.56382 -2.33476 0)
(8.51927 -2.36581 0)
(8.47437 -2.37686 0)
(8.42597 -2.37678 0)
(8.36371 -2.36657 0)
(8.26157 -2.32502 0)
(8.1859 -2.30762 0)
(8.12696 -2.30231 0)
(8.05578 -2.2721 0)
(8.01075 -2.24338 0)
(7.9481 -2.186 0)
(7.88589 -2.11262 0)
(7.82416 -2.04565 0)
(7.76428 -1.96073 0)
(7.65822 -1.83094 0)
(7.56437 -1.68734 0)
(7.4323 -1.53944 0)
(7.31753 -1.35572 0)
(7.17109 -1.18377 0)
(7.07269 -1.02696 0)
(6.98567 -0.891327 0)
(6.90916 -0.78148 0)
(6.83774 -0.691823 0)
(6.77648 -0.604388 0)
(6.72949 -0.52212 0)
(6.69008 -0.439677 0)
(6.65861 -0.347897 0)
(6.63797 -0.251292 0)
(6.61789 -0.155827 0)
(6.60931 -0.0582273 0)
(6.59183 0.0512119 0)
(6.5677 0.164878 0)
(6.54612 0.294083 0)
(6.50718 0.415327 0)
(6.47964 0.523072 0)
(6.41994 0.633386 0)
(6.38342 0.730802 0)
(6.33041 0.83108 0)
(6.28046 0.910785 0)
(6.25039 0.972368 0)
(6.21985 1.0253 0)
(6.19998 1.05811 0)
(6.15836 1.07763 0)
(6.10843 1.08739 0)
(6.0456 1.08164 0)
(6.00133 1.0511 0)
(5.94685 1.03934 0)
(5.89377 0.997083 0)
(5.88005 0.952811 0)
(5.84891 0.916112 0)
(5.83187 0.876163 0)
(5.82514 0.815524 0)
(5.80615 0.764941 0)
(5.81358 0.711689 0)
(5.78176 0.678564 0)
(5.83109 0.609906 0)
(5.78277 0.585515 0)
(5.8359 0.527943 0)
(5.75062 0.518759 0)
(5.81781 0.440243 0)
(5.72174 0.434522 0)
(5.80854 0.375067 0)
(5.69215 0.388179 0)
(5.80876 0.32322 0)
(5.68383 0.326886 0)
(5.80321 0.262085 0)
(5.67782 0.281982 0)
(5.79617 0.199474 0)
(5.68012 0.221443 0)
(5.80092 0.143681 0)
(5.69439 0.172221 0)
(5.83784 0.0961295 0)
(5.7346 0.122642 0)
(5.87168 0.0547675 0)
(5.78486 0.0757465 0)
(5.89136 0.00505968 0)
(5.84475 0.0254045 0)
(5.90819 -0.0445827 0)
(5.88486 -0.0231606 0)
(5.93391 -0.0857742 0)
(5.91904 -0.0594498 0)
(5.95756 -0.122804 0)
(5.94986 -0.0826509 0)
(5.98038 -0.154512 0)
(5.97209 -0.0994334 0)
(5.99231 -0.171008 0)
(5.99095 -0.0951795 0)
(5.99942 -0.160347 0)
(6.03245 -0.0663872 0)
(6.00556 -0.115323 0)
(6.09451 -0.0103422 0)
(6.02326 -0.0533206 0)
(6.15356 0.0705896 0)
(6.02709 0.0150172 0)
(6.21974 0.141947 0)
(6.00975 0.0795372 0)
(6.26851 0.193693 0)
(5.99568 0.138775 0)