/*--------------------------------*- C++ -*----------------------------------*\
| =========                 |                                                 |
| \\      /  F ield         | OpenFOAM: The Open Source CFD Toolbox           |
|  \\    /   O peration     | Version:  2.4.0                                 |
|   \\  /    A nd           | Web:      www.OpenFOAM.org                      |
|    \\/     M anipulation  |                                                 |
\*---------------------------------------------------------------------------*/
FoamFile
{
    version     2.0;
    format      ascii;
    class       volScalarField;
    location    "0.176";
    object      p;
}
// * * * * * * * * * * * * * * * * * * * * * * * * * * * * * * * * * * * * * //

dimensions      [0 2 -2 0 0 0 0];

internalField   nonuniform List<scalar> 
4400
(
82.6065
62.3991
54.8134
51.4843
49.0347
46.6196
44.3567
41.9759
39.5285
38.0951
80.6707
62.4673
54.8507
51.4961
49.0375
46.6201
44.3562
41.9777
39.5325
37.9964
79.4554
62.7856
54.9863
51.5353
49.0581
46.6295
44.3595
41.9809
39.556
37.9438
78.721
63.1721
55.1675
51.5936
49.1006
46.6578
44.3736
41.9925
39.5976
37.9792
78.1271
63.5271
55.3513
51.6534
49.1585
46.7062
44.4015
42.0183
39.6594
38.0828
77.6138
63.8219
55.5135
51.6973
49.2127
46.7616
44.439
42.0545
39.7453
38.2348
77.1895
64.0564
55.6483
51.7236
49.2538
46.8117
44.475
42.0948
39.8216
38.4789
76.8645
64.2335
55.753
51.7389
49.2791
46.854
44.5019
42.1364
39.8336
38.6946
76.6473
64.3529
55.8231
51.7479
49.2928
46.8844
44.5238
42.1723
39.8941
38.9574
76.5398
64.4126
55.8573
51.7543
49.2967
46.9039
44.5411
42.203
39.9703
39.0973
76.5412
64.412
55.8556
51.761
49.2908
46.9133
44.5541
42.2329
40.0457
39.1943
76.6523
64.3498
55.8182
51.7653
49.2789
46.9112
44.5627
42.2584
40.1254
39.2492
76.8717
64.2282
55.7442
51.7676
49.2577
46.8977
44.5655
42.28
40.2118
39.2653
77.1967
64.049
55.6367
51.7641
49.2256
46.8722
44.562
42.2973
40.302
39.2518
77.6198
63.8128
55.5026
51.7464
49.1821
46.835
44.5527
42.3104
40.3935
39.2135
78.132
63.5176
55.3414
51.7095
49.1279
46.7903
44.5388
42.3204
40.4688
39.1906
78.7259
63.1635
55.1573
51.6545
49.0703
46.7509
44.5265
42.3319
40.5162
39.1735
79.4616
62.7774
54.9754
51.5986
49.0289
46.7284
44.5217
42.3431
40.5454
39.179
80.6786
62.4596
54.8398
51.5599
49.0091
46.7217
44.5216
42.3501
40.5604
39.1974
82.6155
62.3917
54.8025
51.548
49.0059
46.7229
44.5219
42.3527
40.5644
39.2805
35.4485
33.608
33.176
34.6675
36.6397
36.7925
34.403
31.1354
28.0347
24.8835
21.6773
18.1061
15.3347
16.5527
21.8911
31.4045
44.1226
54.5294
63.1167
71.2923
66.9049
53.3376
42.3094
33.5136
25.5335
19.4875
17.5639
19.2534
23.3172
28.0017
31.0554
32.9242
33.8408
32.2069
28.5165
23.5741
18.2118
12.4234
6.98791
3.20393
-0.0576592
-2.03186
-1.26445
1.54657
6.70821
13.4777
17.279
19.8193
23.5647
26.8712
30.0979
34.536
38.6774
42.6597
47.133
50.705
53.277
55.8014
57.2726
57.7401
57.4854
56.8994
54.9338
52.1399
49.1223
45.5307
42.0165
40.0829
39.1489
39.6253
40.7582
42.9952
47.2641
52.9285
56.1367
58.3808
56.4587
53.8846
47.7374
40.1226
37.5868
28.7535
25.663
22.7568
24.9026
31.4877
40.0016
48.6889
55.0755
58.5339
59.959
59.6246
58.7714
57.4962
54.5019
49.478
42.3668
33.7282
29.9734
25.1996
35.3665
33.7989
33.3187
34.5239
36.4771
36.7042
34.3353
31.15
27.9999
24.9353
22.1634
19.3539
17.2126
18.6677
24.038
32.6841
44.6477
54.3828
61.8486
68.8681
66.4614
54.1475
43.6532
35.6544
28.6923
23.1773
21.6019
23.4025
27.5828
31.9703
34.3142
35.1836
35.2941
33.2776
29.1268
23.694
17.8962
11.8386
6.42152
2.29152
-0.948298
-2.60748
-2.15776
0.511489
5.72029
12.0839
15.3115
17.8231
21.6869
24.9967
28.3223
33.0008
37.4702
41.8015
46.5688
50.3934
53.2575
55.9004
57.4515
58.0743
57.9229
57.4631
55.7169
53.3762
51.0714
47.8981
44.3998
42.4932
41.6682
41.9957
42.9994
45.0286
49.0599
54.1815
57.3838
58.9354
57.0058
54.3252
46.4327
39.2428
36.8237
27.1627
24.2785
20.2867
22.5823
29.2944
38.1205
47.4903
54.2289
57.9579
59.5743
59.0589
58.5485
57.1511
54.601
49.3895
41.8429
32.3686
27.1819
23.452
35.5281
34.1403
33.6239
34.3989
36.1547
36.495
34.2264
31.2343
28.2065
25.2733
22.9015
20.8494
19.3666
20.9942
26.2982
34.0178
44.6939
53.715
59.8769
65.9824
65.0508
54.5107
44.7512
37.812
31.8671
27.2814
26.3052
28.1515
32.0633
36.0436
37.8143
37.8454
37.1323
34.6221
30.0816
24.341
18.1719
11.9251
6.56386
2.22064
-0.877254
-2.41677
-2.15016
0.60044
5.37802
10.9416
13.4574
15.962
19.9023
23.125
26.5847
31.5559
36.3153
40.9814
46.0769
50.1937
53.4027
56.0924
57.7687
58.5739
58.5634
58.1968
56.5718
54.4826
52.6934
49.9499
46.5837
44.8559
44.3332
44.4126
45.2855
47.1323
50.9645
55.615
58.8276
59.7525
57.7654
54.9925
45.7623
38.8348
36.2912
26.3922
23.5406
17.7285
20.8756
27.5199
36.6991
46.6122
53.4364
57.5019
59.3018
58.7899
58.408
56.9262
54.8048
49.6187
41.5352
31.6228
25.9435
23.0012
35.5082
34.3543
34.0253
34.4897
35.783
36.1403
34.1377
31.4552
28.7029
25.9728
23.9375
22.5502
21.7585
23.4439
28.4488
35.3284
44.3832
52.5627
57.6507
62.8693
63.035
54.4885
45.7169
39.9187
35.0168
31.8712
31.5541
33.2802
36.6268
40.042
41.3016
40.6361
39.1295
36.1776
31.3893
25.4307
19.0032
12.6502
7.32824
2.9232
0.082701
-1.49884
-1.21094
1.45526
5.36445
9.94247
11.8021
14.301
18.1883
21.3057
24.9026
30.113
35.214
40.2873
45.6499
50.0829
53.6948
56.4588
58.2874
59.2528
59.3816
59.1052
57.5163
55.5101
54.0228
51.6267
48.5745
47.1396
46.8249
46.7208
47.4751
49.2543
52.815
57.1834
60.2446
60.8554
58.6201
55.7347
46.1353
39.1722
36.2584
26.3214
22.8014
15.4566
20.3204
26.1007
35.5302
45.7066
52.9691
57.0687
59.3613
58.9035
58.6439
56.9632
54.9446
49.7185
41.4569
31.8906
25.7565
22.519
35.6451
34.5675
34.5103
34.8019
35.4554
35.7724
34.1012
31.7433
29.4606
27.0417
25.3137
24.3906
24.1063
25.8026
30.3346
36.4285
44.0225
51.1712
55.5361
59.7895
60.7634
54.2789
46.8849
42.1635
38.5362
36.8269
37.0149
38.3301
40.9835
43.8049
44.6116
43.4257
41.2651
37.8666
32.95
26.9081
20.3112
13.8983
8.61082
4.22367
1.64912
0.00350986
0.346329
2.56156
5.50794
9.07867
10.3051
12.8172
16.5
19.4263
23.1748
28.6924
34.1275
39.5535
45.2643
50.1501
54.1374
56.99
58.9631
60.0433
60.3811
60.1712
58.5391
56.5815
55.1859
53.1093
50.4434
49.2427
49.0358
48.8873
49.4968
51.191
54.5204
58.6768
61.7021
62.2497
59.9389
56.6584
46.7116
40.6655
36.7368
26.636
22.1833
14.0482
20.5903
24.6296
35.4237
45.3904
53.1972
56.9782
59.7668
59.3233
59.2102
57.537
55.3765
50.1891
41.8061
32.5203
25.7253
21.9721
35.872
34.7832
34.9106
35.2139
35.2064
35.4431
34.2282
32.1055
30.3649
28.418
26.8998
26.2656
26.3567
28.012
31.9224
37.1978
43.5756
49.7773
53.752
57.1258
58.5386
53.9846
48.2693
44.409
42.0659
41.5671
42.0394
42.9293
45.0463
47.3676
47.7321
46.0575
43.358
39.5992
34.5691
28.5146
21.9073
15.4988
10.2778
5.94637
3.5839
1.83662
2.15642
3.55883
5.65989
8.18056
8.77461
11.3576
14.6947
17.3802
21.3556
27.2303
33.0922
38.9541
45.0276
50.3453
54.6985
57.7061
59.7997
61.0049
61.5581
61.3738
59.7237
57.875
56.4712
54.541
52.2083
51.1619
50.939
50.7682
51.4187
53.0472
56.1141
60.1024
63.0018
63.9464
61.4592
57.7052
48.0456
42.8805
37.1887
27.6878
22.3743
13.918
21.8346
23.2434
36.1447
45.276
53.6732
56.9757
60.3671
59.9595
60.1257
58.524
55.8772
50.7892
42.3164
33.2421
25.9028
21.8054
36.292
35.071
35.2073
35.5761
34.9763
35.1815
34.5068
32.5524
31.2811
29.8586
28.5608
28.1211
28.3905
29.9554
33.2194
37.7331
43.0656
48.3937
52.154
55.0028
56.5545
53.6393
49.5153
46.439
45.2108
45.5695
46.2087
46.9617
48.8163
50.7187
50.5901
48.4376
45.2492
41.212
36.1366
30.108
23.5826
17.26
12.1339
7.88779
5.58786
3.7749
3.82812
4.28501
5.53657
6.9881
7.09116
9.82906
12.6879
15.1692
19.4681
25.758
32.0818
38.3499
44.862
50.6968
55.401
58.5867
60.8428
62.163
62.9272
62.7997
61.1576
59.4384
57.9378
55.9382
53.8559
52.8986
52.5802
52.4641
53.2015
54.8591
57.5464
61.4228
64.1726
65.3787
62.8073
58.391
49.9484
45.5332
37.76
28.9555
23.2869
15.8052
23.3165
21.6318
37.8649
45.1402
54.1575
57.3129
61.4149
61.0767
61.1255
59.0777
56.0732
51.2827
43.2908
34.7067
26.8748
22.1175
37.0613
35.5921
35.4266
35.793
34.7768
35.0715
34.9197
33.0701
32.1571
31.2082
30.1024
29.7913
30.105
31.5628
34.2229
38.0396
42.5524
47.0975
50.6157
53.1552
54.7673
53.2402
50.4573
48.3171
47.9243
48.6114
49.4952
50.544
52.4057
53.8174
53.0407
50.4344
46.9127
42.6748
37.555
31.5921
25.169
18.994
13.9665
9.83416
7.52878
5.60929
5.21016
4.72418
5.0891
5.34334
5.51398
8.30096
10.5488
13.0905
17.7813
24.346
31.168
37.9296
44.8585
51.1539
56.229
59.6852
62.0911
63.4676
64.5078
64.4246
62.7462
61.0588
59.383
57.2304
55.399
54.4878
54.0618
53.95
54.8103
56.4858
58.8818
62.4602
65.3223
66.515
63.8862
59.4927
51.1458
47.1655
39.2033
30.5284
24.749
18.0239
25.8686
20.8249
40.3514
44.9503
55.0951
58.6531
62.8928
62.7294
61.8342
59.5852
56.7534
52.5293
45.0994
36.7452
28.3515
22.7738
37.617
36.0058
35.6578
35.9809
34.7192
35.1401
35.381
33.6275
33.0033
32.4366
31.4977
31.2961
31.5543
32.8657
35.0313
38.1515
42.0181
45.8735
49.0557
51.4497
53.1454
52.7231
51.1784
50.0091
50.028
51.0321
52.3821
53.8909
55.698
56.4982
55.0548
52.0209
48.249
43.8933
38.7516
32.8575
26.5482
20.6132
15.6757
11.7119
9.34857
7.31517
6.39383
5.0564
4.6602
4.12814
4.34214
6.86003
8.5624
11.4853
16.4761
23.3117
30.645
37.7666
45.1066
51.8863
57.2459
60.9647
63.473
64.8826
66.2021
66.1597
64.402
62.5754
60.6655
58.3983
56.8734
55.9515
55.3507
55.1946
56.2914
57.8829
59.9345
63.2429
66.2229
67.6125
65.0636
61.2827
52.3973
47.7999
40.7986
32.3368
25.8482
20.5819
25.3249
21.1244
43.0087
44.8054
56.5795
60.4674
64.2025
64.346
62.5668
60.7787
58.1302
54.2979
46.8524
38.531
30.1328
24.0292
37.9795
36.361
35.9456
36.2324
34.8341
35.3172
35.8453
34.2244
33.7942
33.5496
32.7471
32.621
32.836
33.9337
35.7049
38.1973
41.4496
44.6489
47.4547
49.8572
51.7084
52.181
51.7945
51.4353
51.8799
53.2721
55.0253
56.7762
58.439
58.6187
56.5727
53.1791
49.2244
44.8051
39.6891
33.8841
27.7803
22.1114
17.2848
13.4815
11.0509
8.92505
7.46549
5.42153
4.3872
3.25589
3.54679
5.54914
7.00229
10.4876
15.6469
22.7556
30.4531
37.9823
45.6937
52.781
58.3814
62.4528
64.9456
66.3256
67.9578
68.0046
66.0715
64.0075
61.5452
59.5471
58.2392
57.2753
56.4532
56.2927
57.5091
59.0321
60.6302
63.7624
66.8305
68.442
66.4145
63.4209
54.1079
48.8606
41.862
34.5759
25.1088
19.7081
26.8184
22.2116
45.2598
45.3577
58.642
62.3745
65.06
65.5066
63.5475
62.3342
59.5203
55.5686
48.3043
40.6105
32.513
25.9273
38.2158
36.6928
36.2702
36.5267
35.1392
35.5484
36.2517
34.8922
34.5367
34.5494
33.9025
33.7595
33.9826
34.8689
36.2504
38.2012
40.8408
43.4084
45.887
48.3828
50.4482
51.6597
52.3255
52.7827
53.6889
55.3305
57.1656
59.0154
60.4931
60.1133
57.5783
53.9375
49.8881
45.4471
40.3781
34.6903
28.8574
23.4687
18.7859
15.102
12.6092
10.428
8.44119
5.95656
4.35853
2.74259
3.12217
4.59421
6.02032
9.90892
15.1794
22.6321
30.5739
38.5087
46.5625
53.9078
59.7205
64.074
66.4302
67.8845
69.9446
69.9229
67.7672
65.5974
62.9429
60.7715
59.484
58.4541
57.4428
57.2803
58.5586
59.9099
61.0233
63.9499
67.1062
69.1588
68.027
65.2697
56.2741
50.9489
42.9734
36.6271
26.2405
16.8752
28.785
25.7495
46.1909
46.7288
61.15
64.7085
66.0106
66.8726
64.8603
63.814
60.6972
56.642
50.2096
43.2418
35.1061
28.0932
38.3091
37.0192
36.6389
36.7822
35.5925
35.8499
36.5641
35.625
35.2612
35.4099
34.9938
34.7689
35.0246
35.7354
36.6895
38.1888
40.2277
42.2315
44.4769
47.0097
49.3108
51.191
52.7831
54.0934
55.2893
56.992
58.7565
60.5842
61.8026
60.9818
58.1255
54.3498
50.2763
45.8239
40.7753
35.2646
29.748
24.6508
20.1285
16.5353
13.9968
11.7816
9.36059
6.6516
4.61678
2.87129
3.25682
4.1968
5.6646
9.68283
15.0608
22.8177
30.9737
39.3512
47.8314
55.1758
61.1731
65.8034
67.9574
69.677
72.1314
71.8079
69.5756
67.3873
64.4329
62.0131
60.6288
59.4654
58.3387
58.2419
59.4697
60.5417
61.1181
63.8161
67.0734
69.7403
69.6705
66.5399
58.5326
53.6458
45.5011
38.4158
28.9258
20.6805
29.1685
31.4985
48.4455
48.6971
62.7815
66.9362
67.5562
68.7643
66.3779
65.1782
62.0694
57.9946
52.3816
45.8462
37.5304
30.3231
38.2616
37.31
37.044
37.0137
36.1817
36.3059
36.7974
36.3145
36.0081
36.1365
35.9711
35.7295
35.9518
36.4774
37.0724
38.1815
39.6624
41.2154
43.2691
45.7824
48.3512
50.8261
53.128
55.0058
56.5282
58.1969
59.78
61.4306
62.3722
61.267
58.2563
54.4743
50.4421
45.9475
40.8764
35.5803
30.4253
25.626
21.3065
17.7865
15.1759
12.8603
10.2191
7.48971
5.22155
3.57773
3.71861
4.06167
5.7524
9.85698
15.4496
23.3167
31.6903
40.6124
49.4221
56.4902
62.8155
67.5228
69.5469
71.7011
74.2382
73.6093
71.4669
69.1204
65.8426
63.1799
61.6745
60.3496
59.1668
59.1309
60.3028
60.9537
60.9777
63.3736
66.8752
70.0709
70.6792
67.606
60.5786
55.7971
48.6678
40.7161
30.7117
28.3051
31.377
35.4126
50.0982
50.8589
63.3899
68.6157
69.1819
70.5792
67.9288
66.7026
63.6515
59.3509
54.397
48.188
39.8817
32.6898
38.1176
37.5171
37.4745
37.2958
36.8068
36.8386
36.9998
36.9072
36.7417
36.7873
36.81
36.584
36.7364
37.0922
37.3914
38.1744
39.2061
40.4297
42.3475
44.8331
47.6264
50.5368
53.3128
55.5836
57.3274
58.8094
60.1508
61.6569
62.3591
61.0606
58.0539
54.409
50.4617
45.8484
40.6887
35.6396
30.8876
26.4229
22.3316
18.8273
16.084
13.6697
11.0384
8.40772
6.07314
4.55173
4.34637
4.40016
6.27925
10.4811
16.3154
24.2004
32.7802
42.1856
51.14
57.8614
64.5743
69.0728
71.2968
73.8317
76.0437
75.3266
73.1921
70.5532
67.061
64.1737
62.5831
61.1425
59.9517
59.938
61.0127
61.2424
60.6292
62.4635
66.4705
70.0798
71.0929
68.556
62.5749
57.5563
50.798
42.8351
32.4507
35.3305
34.5542
39.3529
49.642
50.3851
63.5278
70.0861
70.472
72.0271
69.538
68.4352
65.1464
60.5569
56.2826
50.4389
42.3041
35.0973
37.9295
37.6522
37.8921
37.6346
37.3792
37.3676
37.2364
37.3958
37.3931
37.3385
37.4641
37.2835
37.3368
37.5728
37.6738
38.1829
38.9164
39.9265
41.7402
44.2109
47.1301
50.3006
53.3263
55.7782
57.61
58.8758
60.0867
61.4433
61.8969
60.4888
57.6574
54.2417
50.3802
45.5822
40.2806
35.4978
31.1863
27.0647
23.1841
19.6746
16.7809
14.2732
11.7353
9.33932
7.16641
5.72725
5.2771
5.35796
7.3987
11.6841
17.702
25.4828
34.1553
43.9822
52.8018
59.2924
66.2957
70.4548
73.0567
75.8773
77.6496
76.8727
74.5195
71.6523
68.0878
65.0393
63.3025
61.8163
60.674
60.6668
61.5505
61.4025
60.2681
61.807
66.0282
69.8278
71.1407
68.8641
64.0296
59.1345
52.8175
45.2866
35.7115
36.9518
36.7755
43.3581
48.3859
49.936
63.7736
71.3084
71.5507
73.3842
71.2794
70.1898
66.3726
61.7303
57.9969
52.3718
44.4073
37.2786
37.7542
37.707
38.2233
37.9846
37.8168
37.7907
37.501
37.7453
37.8678
37.7657
37.9157
37.8151
37.8046
37.9248
37.9205
38.2404
38.7833
39.6911
41.4197
43.8524
46.8253
50.0901
53.1909
55.7306
57.4954
58.6562
59.8294
61.0136
61.1897
59.7127
57.1784
54.027
50.2406
45.2325
39.8045
35.275
31.4181
27.5777
23.8642
20.3554
17.3185
14.675
12.2597
10.2947
8.55322
7.18645
6.57768
6.71945
8.71678
13.0029
19.2528
26.934
35.6777
45.8107
54.1364
60.673
67.7022
71.6646
74.81
77.7486
79.0979
78.1054
75.4768
72.511
68.885
65.7686
63.9298
62.3966
61.2804
61.2348
61.9316
61.5174
60.0716
61.5195
65.7235
69.373
70.7487
68.4215
64.2629
60.5002
54.8776
47.9484
39.7266
39.2407
39.3436
45.8032
47.8628
54.6927
64.7743
73.226
72.6462
74.6403
73.022
71.7549
67.1896
62.7677
59.2807
53.8106
46.1491
39.1486
37.8243
37.8322
38.399
38.2198
38.0916
38.0597
37.7333
37.9746
38.1659
38.0737
38.2092
38.1574
38.1204
38.1777
38.1304
38.3482
38.8033
39.6531
41.3184
43.7134
46.6598
49.9025
52.9912
55.5352
57.2834
58.4261
59.6327
60.592
60.4423
58.9589
56.7198
53.7979
50.0182
44.9598
39.4251
35.1281
31.6582
27.9689
24.359
20.8617
17.7144
14.9348
12.6497
11.1737
9.97321
8.78164
8.11209
8.18343
10.0007
14.3949
20.8542
28.3855
37.142
47.4088
55.0683
61.8384
68.7528
72.8717
76.5723
79.4104
80.3485
78.9974
76.1531
73.1105
69.4784
66.3829
64.4671
62.8751
61.7388
61.6363
62.1222
61.6233
60.2697
61.7865
65.6734
68.908
69.9019
67.9478
64.4906
61.39
56.3808
50.4143
43.9301
41.8882
41.6704
47.6096
47.6793
61.8085
65.6185
76.63
73.6272
75.7882
74.8256
72.8606
67.6296
63.6001
60.1751
54.9199
47.6618
40.8535
37.94
37.9607
38.4777
38.3521
38.2421
38.2047
37.9077
38.0989
38.3069
38.255
38.3637
38.3533
38.3188
38.3387
38.3029
38.4784
38.899
39.7509
41.3667
43.7121
46.6103
49.7993
52.8253
55.3297
57.1113
58.377
59.6088
60.3395
59.8842
58.3853
56.3525
53.5728
49.8327
44.8188
39.4373
35.2131
31.7729
28.2213
24.6633
21.1741
17.9872
15.1694
13.0184
11.876
11.1095
10.2368
9.57461
9.49039
11.3054
15.9919
22.4837
29.6425
38.3849
48.7625
55.818
62.8004
69.6395
74.0372
78.1566
80.7408
81.255
79.5179
76.587
73.4731
69.8519
66.8252
64.9247
63.286
62.0611
61.8444
62.1543
61.7408
60.758
62.4635
65.6969
68.5487
69.4398
67.3891
64.8528
62.1264
57.7317
52.6927
48.1088
44.4972
43.8426
49.65
48.5731
66.3329
65.8992
79.3561
74.0568
76.9451
76.4232
73.2701
67.8077
64.3295
60.9648
55.7564
48.8006
42.206
38.0877
38.1403
38.5096
38.407
38.3062
38.2485
38.0027
38.1471
38.3391
38.3302
38.4174
38.4295
38.4101
38.4178
38.4099
38.5853
39.0117
39.8927
41.4875
43.8092
46.6516
49.7899
52.7514
55.2221
57.0462
58.4603
59.7328
60.3153
59.6792
58.1751
56.1278
53.3509
49.6684
44.8239
39.5221
35.3535
31.8533
28.28
24.7088
21.2766
18.1749
15.5138
13.4059
12.2579
11.7502
11.2412
10.6797
10.5694
12.548
17.531
23.7392
30.4615
39.382
49.8606
56.4035
63.5185
70.2538
74.8961
79.2369
81.5352
81.7421
79.7871
76.8119
73.6586
70.0742
67.0668
65.1991
63.5631
62.2814
61.9515
62.073
61.7891
61.1309
62.8383
65.6526
68.3967
69.1934
67.8085
65.4275
62.7082
58.6574
54.3881
51.1217
47.1552
45.3841
52.0687
51.3519
68.7976
66.0089
80.1602
74.1011
77.8346
77.342
73.3611
67.9908
64.8544
61.4789
56.1488
49.4423
42.8766
38.2548
38.229
38.4838
38.4109
38.3179
38.238
38.0387
38.1542
38.3185
38.3394
38.4142
38.4324
38.4252
38.4327
38.4483
38.6311
39.0804
39.9986
41.6268
43.9169
46.731
49.8204
52.7458
55.199
57.0593
58.5598
59.8667
60.4079
59.7075
58.11
55.9566
53.1263
49.5139
44.8689
39.6553
35.46
31.8942
28.2892
24.7236
21.3279
18.2603
15.5748
13.4369
12.2465
11.9831
11.7078
11.2279
11.2211
13.3276
18.2453
24.2654
30.8629
39.9468
50.484
56.6872
63.8131
70.5086
75.29
79.5919
81.7691
81.8454
79.8191
76.8352
73.7074
70.192
67.1913
65.2073
63.6055
62.3689
62.0062
62.0354
61.7832
61.3349
62.8974
65.5679
68.3941
69.164
67.941
65.8016
63.002
59.0326
54.897
52.1669
48.4124
46.3457
53.9031
52.7635
69.8483
66.3929
79.8407
74.063
78.2155
77.4801
73.341
68.1026
64.9734
61.5227
56.1291
49.6188
42.7806
35.5253
35.3156
35.5198
34.8819
35.2535
35.9344
35.3703
34.8753
35.3278
36.2467
37.3616
39.8228
40.8754
36.8296
34.8768
33.5131
32.7591
33.1361
33.8645
35.5965
37.2205
36.7749
35.3356
34.3605
33.0325
31.2402
28.8581
25.9097
24.368
25.2827
28.5722
33.7977
39.7611
45.2644
50.7493
54.8871
58.1896
60.1837
60.7812
60.4934
59.3013
57.541
55.3361
53.246
51.5419
50.317
49.8369
49.9646
50.4282
51.2369
52.1348
52.8532
53.4077
54.0921
55.1645
56.5487
57.6406
58.392
58.8445
59.1642
59.211
58.2568
56.2712
53.2766
49.5478
46.1181
43.8299
43.2295
44.5925
46.965
50.8559
55.2136
60.5391
65.4918
70.1788
74.0184
76.7742
78.4635
79.1221
78.6625
77.3853
75.6896
73.6603
71.6511
69.862
68.3537
67.3829
67.0337
67.0141
66.9976
66.7072
65.8723
64.6661
63.241
61.6771
60.0543
58.5307
57.2569
56.3127
55.8352
35.4526
35.2632
35.2431
34.5402
34.8705
35.9311
35.3365
34.71
35.1342
36.0294
37.1492
39.4821
39.9544
35.9872
34.1846
32.8212
32.2107
33.139
33.8848
35.392
37.0574
36.6312
35.1163
34.3576
33.6503
31.1939
27.7724
24.6005
23.258
24.5233
28.0199
33.3333
39.5346
45.1469
50.5619
54.7175
57.9466
60.1176
60.6678
60.3591
59.2026
57.4918
55.2661
53.1372
51.4233
50.1805
49.7286
49.9076
50.3934
51.2339
52.1582
52.8635
53.4076
54.0565
55.1505
56.5367
57.6719
58.428
58.8711
59.2063
59.2978
58.3896
56.3963
53.2464
49.3774
45.8663
43.4876
42.9355
44.3972
46.7557
50.7574
55.1035
60.5506
65.4621
70.1832
74.0648
76.8291
78.5121
79.2006
78.7561
77.4808
75.7161
73.6513
71.6206
69.8338
68.2926
67.3037
66.9795
66.9874
66.9881
66.7333
65.9854
64.7497
63.251
61.6333
59.9897
58.4687
57.1902
56.2347
55.7471
35.3044
35.109
34.7545
33.7477
33.9866
35.5404
35.0509
34.4271
34.8194
35.6819
36.7737
38.8256
38.4654
34.6799
32.9159
31.6869
31.4778
33.4305
34.335
35.5373
36.8147
36.2125
34.7681
33.994
32.8471
29.7424
25.3786
22.0386
21.2105
23.2041
27.0166
32.5239
39.0904
44.8647
50.1454
54.4489
57.5254
59.8297
60.4443
59.9987
58.827
57.2269
55.0018
52.8479
51.1445
49.8958
49.4874
49.7287
50.2491
51.163
52.1368
52.85
53.3959
54.0273
55.1512
56.5811
57.7454
58.4998
58.951
59.3339
59.5204
58.7225
56.5495
53.0169
48.859
45.1796
42.7444
42.2963
43.7971
46.2826
50.4663
54.8778
60.6108
65.3826
70.1617
74.1138
76.9022
78.5729
79.2369
78.7387
77.4726
75.6932
73.57
71.5299
69.7781
68.2042
67.1658
66.8698
66.9464
66.9997
66.7848
66.0312
64.7471
63.1751
61.5117
59.8597
58.3456
57.0628
56.0807
55.5697
35.1042
34.8814
34.1052
32.6144
32.7551
34.8354
34.643
34.152
34.486
35.2013
36.1747
37.8365
36.792
33.2638
31.697
30.6278
30.7382
33.9474
35.449
36.3631
36.9936
36.0106
34.4042
33.2409
31.0613
26.885
21.9431
18.8698
18.9011
21.5747
25.8785
31.5751
38.4844
44.5036
49.6827
54.0422
56.9738
59.3142
60.0785
59.4154
58.1451
56.7024
54.5163
52.348
50.6572
49.4028
49.0637
49.4092
49.9738
50.9461
51.9787
52.7653
53.4046
54.0679
55.2232
56.7045
57.8776
58.6067
59.0773
59.5383
59.877
59.1526
56.5589
52.451
47.89
44.0179
41.4828
40.88
42.5964
45.3545
49.784
54.5008
60.4522
65.1239
70.0276
74.1225
76.9464
78.5764
79.1797
78.6463
77.2432
75.4159
73.301
71.3293
69.6918
68.0895
66.9286
66.6815
66.8785
67.0025
66.8083
66.0281
64.6697
63.0283
61.3535
59.7085
58.1879
56.8838
55.844
55.3027
34.8963
34.6151
33.3269
31.151
31.2584
33.8825
34.1651
33.8446
34.1172
34.6005
35.3433
36.6274
35.0678
31.8094
30.912
29.8393
30.3053
34.7083
36.9303
37.6472
37.5397
36.2391
34.3248
32.2087
28.6017
23.3401
18.3839
15.7597
16.6457
20.1959
24.8499
30.6803
37.8289
44.083
49.2012
53.5306
56.3169
58.5586
59.5126
58.5923
57.0862
55.8124
53.7418
51.5694
49.9572
48.7112
48.4398
48.8839
49.5335
50.599
51.7036
52.6037
53.3895
54.1459
55.3593
56.8734
58.0337
58.7431
59.2392
59.7873
60.2957
59.5425
56.2528
51.5745
46.6696
42.5118
39.8016
39.1972
40.9615
43.9557
48.6712
53.7354
60.022
64.5126
69.6519
74.0134
76.9212
78.5216
78.9919
78.3037
76.7985
74.9157
72.8214
70.9485
69.4241
67.8701
66.7115
66.4815
66.7988
66.9855
66.7735
65.9629
64.5646
62.9121
61.2375
59.5743
58.0179
56.6481
55.5228
54.9378
34.7348
34.3648
32.5907
29.5902
29.6604
32.854
33.6451
33.5053
33.6616
33.8848
34.2988
35.0087
33.3689
30.6996
30.1151
29.2224
30.3561
35.7559
38.3751
38.8603
38.347
36.7867
34.3165
30.8549
25.9073
19.7982
15.2417
13.2165
14.705
19.0429
23.9546
29.8022
37.136
43.5681
48.7317
52.8776
55.4569
57.5161
58.6341
57.495
55.6646
54.4751
52.5504
50.4528
48.9563
47.7765
47.6123
48.1796
48.9147
50.0852
51.2681
52.3078
53.3104
54.2097
55.4886
57.0587
58.2131
58.8962
59.4325
60.0603
60.7104
59.6904
55.9046
50.6681
45.3466
40.7073
37.7515
37.2356
39.0427
42.2258
47.2369
52.5977
59.0414
63.8524
68.9652
73.7088
76.7636
78.3202
78.6702
77.7403
76.0512
74.1059
72.0881
70.2789
68.9128
67.5583
66.4676
66.2845
66.7051
66.9442
66.7126
65.8759
64.4523
62.8009
61.135
59.4363
57.79
56.3119
55.1025
54.4599
34.6417
34.162
32.0161
28.2204
28.1778
31.895
33.1619
33.1258
33.0793
32.9427
32.9217
32.9909
31.4821
29.4544
29.3886
28.9645
31.0746
37.0726
39.5346
39.8633
39.2749
37.4799
34.2001
29.3772
23.3625
16.7182
12.6163
11.3119
13.1625
18.1368
23.2201
29.0548
36.4092
42.9619
48.181
52.0813
54.3357
56.0978
57.2883
55.992
53.7916
52.6672
50.9293
48.921
47.618
46.6038
46.5707
47.2721
48.1083
49.3962
50.6635
51.8521
53.1032
54.1736
55.5706
57.2226
58.3793
59.0442
59.5887
60.3304
61.0627
59.7355
55.5008
49.7105
43.641
38.4064
35.2154
34.7109
36.8221
40.2494
45.4313
51.2082
58.0131
62.8978
67.9332
73.0289
76.3742
77.8468
78.0937
76.8649
74.9221
72.9611
70.986
69.261
68.1251
67.0467
66.1384
66.0504
66.5862
66.9035
66.6204
65.7085
64.2327
62.6098
60.986
59.2441
57.4625
55.8548
54.5629
53.8678
34.6234
34.0256
31.667
27.3309
27.1432
31.0722
32.6488
32.6475
32.3416
31.7552
31.2653
30.7458
29.2154
27.8827
28.651
29.1916
32.576
38.5213
40.4473
40.8343
40.2779
38.1625
33.7104
27.9592
21.2157
14.1945
10.4475
9.78001
11.8838
17.4001
22.6393
28.431
35.6525
42.2536
47.5097
51.1802
52.9453
54.2397
55.3128
53.9469
51.4597
50.2996
48.7539
46.9478
45.9647
45.19
45.316
46.1672
47.1236
48.5296
49.8725
51.2282
52.7205
53.9769
55.5511
57.3193
58.493
59.177
59.7227
60.4274
61.2467
59.6578
54.9884
48.4413
41.5685
35.9473
32.5692
31.885
34.3592
37.9077
43.0849
49.6563
56.9
61.8434
66.7262
71.8216
75.5768
76.9235
77.0439
75.4968
73.2227
71.5472
69.4608
67.8511
67.0039
66.2895
65.6683
65.7227
66.4354
66.8677
66.5181
65.4605
63.9681
62.4241
60.8371
59.0287
57.0668
55.2793
53.8976
53.1445
34.6567
33.9388
31.5176
27.1251
26.8078
30.5669
32.198
32.1393
31.4886
30.427
29.4253
28.1304
26.4301
26.0143
27.5492
29.5377
34.2658
39.8066
41.4803
42.0246
41.4187
38.7698
32.9633
26.5013
19.6165
12.4023
8.95414
8.66965
10.9407
16.6584
22.1464
27.8664
34.8814
41.4246
46.5077
49.965
51.2717
51.9406
52.6816
51.1317
48.4925
47.3745
46.0838
44.4787
43.8938
43.5169
43.8383
44.8756
46.0125
47.4899
48.8979
50.4331
52.1568
53.634
55.377
57.2686
58.5188
59.2735
59.7961
60.4215
61.2194
59.4236
54.2506
47.1161
39.7017
33.8433
30.347
29.6542
32.0741
35.3468
40.4307
47.6873
55.4881
60.674
65.4926
70.2713
74.3722
75.492
75.4009
73.6114
70.8969
69.0655
67.3276
65.8998
65.3967
65.2321
65.019
65.3167
66.1919
66.7852
66.436
65.2625
63.7475
62.2501
60.6824
58.7973
56.6066
54.5803
53.0854
52.2665
34.6765
33.8549
31.529
27.477
27.1394
30.4857
31.9236
31.6146
30.5632
29.0088
27.1808
25.1636
23.2466
23.5991
25.8317
29.6954
35.4986
41.0763
42.7995
43.7333
42.9176
39.3971
32.592
25.2716
18.6268
11.5016
8.20836
8.14097
10.406
15.9851
21.709
27.377
34.1035
40.5208
45.2319
48.244
49.1159
49.1258
49.4105
47.6374
44.8787
43.8075
42.8031
41.5802
41.4393
41.5813
42.2007
43.3482
44.7052
46.3294
47.7968
49.5231
51.4362
53.0859
55.0024
57.071
58.4479
59.281
59.7594
60.2741
61.0799
59.0388
53.4563
45.9293
38.2202
32.1776
28.6285
27.8737
30.2598
33.0882
37.8305
45.4314
53.2949
59.2188
64.1813
68.5273
72.7745
73.6791
73.2431
71.1127
68.0573
66.0334
64.4961
63.3155
63.3375
63.7756
64.1071
64.8215
65.8774
66.6025
66.2933
65.0561
63.515
62.045
60.4713
58.493
56.0627
53.74
52.0931
51.2231
34.6241
33.7294
31.6463
28.1596
27.9462
30.7367
31.7352
31.116
29.7178
27.6471
25.1675
22.1645
19.9697
20.6822
23.8619
29.5147
36.4548
42.2858
44.6634
46.0253
44.7368
39.8964
32.6212
24.5351
17.9688
11.0192
7.65451
7.672
10.0797
15.4494
21.4239
27.0632
33.3719
39.5436
43.7131
46.0479
46.4455
45.7984
45.4706
43.5334
40.6778
39.6462
39.0152
38.2681
38.6216
39.3437
40.3738
41.6716
43.1876
44.9885
46.6181
48.5057
50.5787
52.381
54.4462
56.7112
58.2409
59.164
59.6359
59.9789
60.7875
58.5251
52.74
45.0666
37.0877
30.9517
27.5363
26.8801
28.9753
31.4006
35.397
43.0181
50.87
57.4136
62.6572
66.6838
70.837
71.4857
70.683
68.0603
64.7158
62.569
61.1297
60.1431
60.7184
61.9717
62.9721
64.0965
65.4691
66.3078
66.0222
64.7824
63.2533
61.7821
60.1535
58.1062
55.4248
52.73
50.8917
50.0006
34.4628
33.5302
31.8044
29.0824
29.1134
31.2421
31.7718
30.7901
28.9967
26.4951
23.4197
19.4415
16.9202
17.7189
21.6664
28.8018
37.1599
43.638
47.2401
49.0201
46.9945
40.5803
32.7332
24.2922
17.3777
10.8196
7.25457
7.30078
9.85206
15.0117
21.2327
26.8817
32.6172
38.3956
42.0694
43.4712
43.2669
42.0285
41.0528
38.9502
36.0944
34.967
34.736
34.5992
35.5023
36.8969
38.3713
39.8288
41.5314
43.4906
45.2636
47.3905
49.6699
51.5613
53.7877
56.221
57.8629
58.9256
59.4297
59.5829
60.334
57.9303
52.1489
44.5426
36.4041
30.3375
27.171
26.7182
28.179
30.2131
33.4678
40.7471
48.613
55.6407
60.9397
64.7448
68.7224
68.989
67.7992
64.6719
61.0445
58.725
57.2719
56.5487
57.6503
59.6727
61.4629
63.2491
64.9254
65.8559
65.6317
64.4425
62.9926
61.4933
59.7979
57.6115
54.6214
51.4724
49.4321
48.5744
34.2088
33.2336
31.9681
30.2401
30.5957
31.9366
32.0304
30.598
28.4744
25.5924
22.0519
17.4089
14.3653
15.089
19.5036
28.014
37.7244
45.372
50.6128
53.0288
50.0132
42.0199
33.0909
24.5873
17.1756
10.8359
7.09256
7.06864
9.7417
14.6717
20.9823
26.6714
31.8316
36.9322
40.1867
40.817
39.8385
37.9114
36.2458
34.0659
31.2572
29.9696
30.103
30.6607
32.1367
34.2175
36.2183
37.8506
39.6983
41.8617
43.8296
46.1828
48.6682
50.715
53.0554
55.5593
57.3542
58.6215
59.1401
59.1512
59.7786
57.385
51.7859
44.3355
36.2468
30.349
27.3328
26.8288
27.8612
29.6129
32.3566
38.8749
46.7531
54.175
59.2288
62.6779
66.4583
66.3625
64.6847
61.022
57.1504
54.7769
53.129
52.3804
54.1584
57.0973
59.6543
62.0948
64.2752
65.391
65.1963
64.1718
62.7722
61.2103
59.3481
56.915
53.6039
49.9404
47.6315
46.9251
33.9045
32.8441
32.1181
31.5217
32.3484
32.9961
32.4984
30.5567
28.228
25.0378
21.0662
15.9837
12.4902
13.2012
18.0253
27.5946
38.2702
47.1783
54.1314
57.8682
53.3012
43.7678
33.733
25.2354
17.3361
10.8943
7.01518
6.9485
9.77679
14.6432
20.9844
26.6206
31.122
35.4114
38.0594
38.12
36.3178
33.7359
31.2322
28.9947
26.2447
24.6857
25.2416
26.5233
28.5887
31.4223
33.9216
35.707
37.791
40.1488
42.2631
44.876
47.6002
49.803
52.2768
54.8938
56.7579
58.1925
58.7809
58.7664
59.1579
56.945
51.7016
44.4556
36.6657
30.9351
27.9751
27.4007
28.0857
29.5988
31.9178
37.6053
45.1104
52.8437
57.7262
60.7442
64.0748
63.6811
61.605
57.1584
53.2923
50.7258
48.8417
48.1234
50.2684
54.0109
57.6284
60.9215
63.4717
64.6986
64.7082
63.874
62.483
60.8432
58.7542
55.9376
52.2339
48.0516
45.4446
44.5099
33.6361
32.5065
32.2543
32.6903
34.0527
34.2412
33.0376
30.7021
28.1701
24.7931
20.5175
15.0599
11.4012
12.2029
17.2806
27.5237
38.7281
48.4577
57.2714
62.1234
56.1065
45.3645
34.5562
25.9429
17.6592
10.9081
7.03127
7.03873
10.052
14.9984
21.2933
26.9037
30.6905
33.9443
35.9035
35.421
32.8419
29.5626
26.1914
23.8687
21.1953
19.2318
19.967
22.2707
24.9216
28.4673
31.5243
33.5043
35.7918
38.3213
40.6197
43.5165
46.4518
48.8223
51.4759
54.176
56.0819
57.7401
58.4294
58.4179
58.51
56.6351
51.8073
44.9568
37.6284
32.0044
29.0812
28.4566
28.7983
30.0242
31.94
36.7723
43.6678
51.7784
56.5357
59.1953
61.7273
60.9804
58.7677
53.4536
49.6131
46.8671
44.3471
43.5693
46.2725
50.8449
55.2231
59.3267
62.5446
64.0488
64.1679
63.4758