/*--------------------------------*- C++ -*----------------------------------*\
| =========                 |                                                 |
| \\      /  F ield         | OpenFOAM: The Open Source CFD Toolbox           |
|  \\    /   O peration     | Version:  2.4.0                                 |
|   \\  /    A nd           | Web:      www.OpenFOAM.org                      |
|    \\/     M anipulation  |                                                 |
\*---------------------------------------------------------------------------*/
FoamFile
{
    version     2.0;
    format      ascii;
    class       surfaceScalarField;
    location    "0.008";
    object      phi_0;
}
// * * * * * * * * * * * * * * * * * * * * * * * * * * * * * * * * * * * * * //

dimensions      [0 3 -1 0 0 0 0];

internalField   nonuniform List<scalar> 
8640
(
1.16149e-05
1.33851e-05
7.34774e-06
4.26715e-06
6.05477e-06
1.29297e-06
5.82423e-06
2.30537e-07
6.03516e-06
-2.10928e-07
6.09959e-06
-6.44321e-08
6.23584e-06
-1.36252e-07
6.52429e-06
-2.88446e-07
5.52126e-06
1.00303e-06
-3.41214e-06
8.93339e-06
2.13431e-05
1.7042e-05
1.79338e-05
7.67641e-06
1.61561e-05
3.07071e-06
1.56171e-05
7.69552e-07
1.58578e-05
-4.5163e-07
1.5856e-05
-6.26936e-08
1.6298e-05
-5.78251e-07
1.63917e-05
-3.82075e-07
1.6212e-05
1.18264e-06
-1.14907e-05
2.42907e-05
2.59535e-05
1.60886e-05
2.46353e-05
8.99461e-06
2.34713e-05
4.23462e-06
2.29391e-05
1.30181e-06
2.31344e-05
-6.46907e-07
2.29865e-05
8.51869e-08
2.36668e-05
-1.25859e-06
2.32669e-05
1.78217e-08
2.45004e-05
-5.08734e-08
-1.88605e-05
3.18702e-05
2.74322e-05
1.36564e-05
2.79352e-05
8.49162e-06
2.79269e-05
4.24293e-06
2.77291e-05
1.49962e-06
2.78561e-05
-7.7389e-07
2.77311e-05
2.10187e-07
2.78338e-05
-1.36136e-06
2.85018e-05
-6.50203e-07
2.95399e-05
-1.08888e-06
-1.96091e-05
3.02884e-05
2.7519e-05
1.11374e-05
2.88241e-05
7.18653e-06
2.94552e-05
3.61186e-06
2.95612e-05
1.39356e-06
2.94249e-05
-6.37568e-07
2.94301e-05
2.04971e-07
2.93648e-05
-1.29603e-06
2.97361e-05
-1.02149e-06
3.02092e-05
-1.56201e-06
-2.00637e-05
3.06638e-05
2.73933e-05
8.74408e-06
2.88159e-05
5.76387e-06
2.95584e-05
2.86937e-06
2.97213e-05
1.23072e-06
2.96185e-05
-5.34784e-07
2.95986e-05
2.249e-07
2.93513e-05
-1.04876e-06
3.00481e-05
-1.71829e-06
3.06911e-05
-2.20502e-06
-1.76065e-05
2.82339e-05
2.72842e-05
6.45986e-06
2.87102e-05
4.3379e-06
2.94477e-05
2.1319e-06
2.96769e-05
1.00149e-06
2.96094e-05
-4.67336e-07
2.95585e-05
2.75824e-07
2.95263e-05
-1.01655e-06
2.98416e-05
-2.03364e-06
3.01864e-05
-2.54978e-06
-1.69493e-05
2.95292e-05
2.72018e-05
4.25803e-06
2.86345e-05
2.90522e-06
2.93676e-05
1.39879e-06
2.96441e-05
7.25068e-07
2.957e-05
-3.93296e-07
2.96077e-05
2.38158e-07
2.95395e-05
-9.48334e-07
2.96453e-05
-2.13944e-06
3.0241e-05
-3.14548e-06
-1.65875e-05
2.98791e-05
2.71462e-05
2.11181e-06
2.85867e-05
1.46476e-06
2.93187e-05
6.66735e-07
2.96144e-05
4.29372e-07
2.95689e-05
-3.47735e-07
2.95984e-05
2.08643e-07
2.95318e-05
-8.81782e-07
2.97063e-05
-2.3139e-06
2.98885e-05
-3.32766e-06
-1.43729e-05
2.76739e-05
2.71182e-05
-6.36182e-09
2.85635e-05
1.93999e-08
2.92933e-05
-6.30673e-08
2.96033e-05
1.19454e-07
2.95644e-05
-3.08884e-07
2.95883e-05
1.84721e-07
2.95749e-05
-8.68406e-07
2.95619e-05
-2.30081e-06
2.97695e-05
-3.53534e-06
-1.35673e-05
2.89639e-05
2.7118e-05
-2.12431e-06
2.8564e-05
-1.42662e-06
2.92926e-05
-7.91684e-07
2.9605e-05
-1.92999e-07
2.95643e-05
-2.68176e-07
2.95885e-05
1.60554e-07
2.95714e-05
-8.51274e-07
2.95107e-05
-2.24014e-06
2.95757e-05
-3.60032e-06
-1.21371e-05
2.81455e-05
2.71455e-05
-4.26983e-06
2.85882e-05
-2.86928e-06
2.93158e-05
-1.51928e-06
2.96208e-05
-4.9807e-07
2.95713e-05
-2.18613e-07
2.95829e-05
1.48918e-07
2.95676e-05
-8.3599e-07
2.94474e-05
-2.1199e-06
2.94969e-05
-3.64985e-06
-1.06564e-05
2.80162e-05
2.72007e-05
-6.47052e-06
2.86369e-05
-4.30546e-06
2.93635e-05
-2.24596e-06
2.96513e-05
-7.85862e-07
2.95818e-05
-1.49096e-07
2.95787e-05
1.52017e-07
2.95627e-05
-8.19955e-07
2.93937e-05
-1.95091e-06
2.93579e-05
-3.61409e-06
-9.12281e-06
2.78243e-05
2.72826e-05
-8.75311e-06
2.87138e-05
-5.73668e-06
2.94396e-05
-2.97177e-06
2.96968e-05
-1.04302e-06
2.95962e-05
-4.85012e-08
2.95761e-05
1.72095e-07
2.95519e-05
-7.9575e-07
2.93413e-05
-1.74032e-06
2.9281e-05
-3.55373e-06
-7.53889e-06
2.7697e-05
2.73908e-05
-1.11439e-05
2.88217e-05
-7.16756e-06
2.95446e-05
-3.69463e-06
2.975e-05
-1.24842e-06
2.96068e-05
9.46327e-08
2.95691e-05
2.09825e-07
2.95298e-05
-7.56394e-07
2.92853e-05
-1.49586e-06
2.91765e-05
-3.44496e-06
-5.90543e-06
2.75431e-05
2.75172e-05
-1.36611e-05
2.88277e-05
-8.47813e-06
2.94467e-05
-4.31363e-06
2.95718e-05
-1.37352e-06
2.94247e-05
2.41733e-07
2.93915e-05
2.43024e-07
2.9319e-05
-6.83902e-07
2.90254e-05
-1.2022e-06
2.87613e-05
-3.18088e-06
-4.29165e-06
2.71475e-05
2.74297e-05
-1.60908e-05
2.79424e-05
-8.99087e-06
2.79006e-05
-4.2718e-06
2.77791e-05
-1.25204e-06
2.77245e-05
2.96285e-07
2.77561e-05
2.11476e-07
2.76234e-05
-5.51259e-07
2.72866e-05
-8.65317e-07
2.66347e-05
-2.52898e-06
-2.81264e-06
2.51557e-05
2.59525e-05
-1.70433e-05
2.46375e-05
-7.67584e-06
2.3455e-05
-3.0893e-06
2.29596e-05
-7.56644e-07
2.29839e-05
2.71972e-07
2.30597e-05
1.35721e-07
2.28566e-05
-3.482e-07
2.25227e-05
-5.31375e-07
2.15234e-05
-1.52977e-06
-1.55139e-06
2.02622e-05
2.13424e-05
-1.33856e-05
1.79337e-05
-4.26718e-06
1.61445e-05
-1.30007e-06
1.56172e-05
-2.29369e-07
1.57382e-05
1.50981e-07
1.58205e-05
5.34393e-08
1.56075e-05
-1.35228e-07
1.52873e-05
-2.11206e-07
1.42884e-05
-5.30807e-07
-6.23804e-07
1.33608e-05
1.16144e-05
7.34718e-06
6.04711e-06
5.81774e-06
5.96872e-06
6.02216e-06
5.88694e-06
5.67573e-06
5.14492e-06
4.52112e-06
2.22521e-05
1.01499e-06
-1.43336e-05
2.63623e-05
-2.84651e-05
2.43548e-05
2.74437e-05
-3.31298e-05
3.20484e-05
2.19395e-05
-2.71403e-05
3.26445e-05
1.63413e-05
-2.70681e-05
3.26662e-05
1.6684e-05
-2.68275e-05
2.64849e-05
1.79584e-05
-2.06445e-05
1.937e-05
1.68413e-05
-1.51379e-05
1.6255e-05
1.51407e-05
-1.27817e-05
1.44824e-05
1.41695e-05
-1.12779e-05
1.2249e-05
1.37517e-05
-9.55106e-06
9.9688e-06
1.35294e-05
-7.85447e-06
8.07682e-06
1.33722e-05
-6.41797e-06
6.57519e-06
1.32544e-05
-5.24718e-06
5.36499e-06
1.31679e-05
-4.29244e-06
4.37887e-06
1.31056e-05
-3.51147e-06
3.57384e-06
1.30608e-05
-2.87196e-06
2.91676e-06
1.30285e-05
-2.34816e-06
2.38046e-06
1.3005e-05
-1.91926e-06
1.94269e-06
1.29879e-05
-1.56825e-06
1.58536e-06
1.29754e-05
-1.28109e-06
1.29367e-06
1.2966e-05
-1.04625e-06
1.05555e-06
1.29591e-05
-8.54255e-07
8.61184e-07
1.29539e-05
-6.97343e-07
7.02534e-07
1.295e-05
-5.69137e-07
5.73052e-07
1.2947e-05
-4.64414e-07
4.67384e-07
1.29448e-05
-3.7889e-07
3.81158e-07
1.2943e-05
-3.09062e-07
3.10804e-07
1.29417e-05
-2.52058e-07
2.53404e-07
1.29406e-05
-2.05534e-07
2.0658e-07
1.29398e-05
-1.67564e-07
1.6838e-07
1.29392e-05
-1.36583e-07
1.37224e-07
1.29387e-05
-1.11306e-07
1.11812e-07
1.29383e-05
-9.06783e-08
9.10793e-08
1.2938e-05
-7.38571e-08
7.41742e-08
1.29377e-05
-6.01244e-08
6.03778e-08
1.29375e-05
-4.89132e-08
4.9117e-08
1.29373e-05
-3.97721e-08
3.99333e-08
1.29372e-05
-3.23028e-08
3.24311e-08
1.29371e-05
-2.61868e-08
2.62911e-08
1.2937e-05
-2.11795e-08
2.12639e-08
1.2937e-05
-1.70727e-08
1.71395e-08
1.29369e-05
-1.36899e-08
1.37425e-08
1.29369e-05
-1.08885e-08
1.09297e-08
1.29368e-05
-8.55207e-09
8.58407e-09
1.29368e-05
-6.58286e-09
6.60717e-09
1.29368e-05
-4.89832e-09
4.91618e-09
1.29368e-05
-3.42858e-09
3.44099e-09
1.29368e-05
-2.113e-09
2.12066e-09
1.29368e-05
-8.98698e-10
9.02271e-10
1.29368e-05
2.63936e-10
-2.64018e-10
1.29368e-05
1.427e-09
-1.43064e-09
1.29368e-05
2.62941e-09
-2.63654e-09
1.29368e-05
3.92025e-09
-3.93108e-09
1.29368e-05
5.34966e-09
-5.36454e-09
1.29368e-05
6.97288e-09
-6.99275e-09
1.29368e-05
8.85146e-09
-8.87722e-09
1.29369e-05
1.10569e-08
-1.10898e-08
1.29369e-05
1.36725e-08
-1.37138e-08
1.2937e-05
1.67967e-08
-1.68481e-08
1.2937e-05
2.05471e-08
-2.06106e-08
1.29371e-05
2.50651e-08
-2.51431e-08
1.29372e-05
3.05206e-08
-3.0616e-08
1.29373e-05
3.71182e-08
-3.72345e-08
1.29375e-05
4.51054e-08
-4.52471e-08
1.29376e-05
5.4782e-08
-5.49542e-08
1.29378e-05
6.65106e-08
-6.67196e-08
1.29381e-05
8.07308e-08
-8.09844e-08
1.29384e-05
9.79748e-08
-9.82825e-08
1.29388e-05
1.18889e-07
-1.19263e-07
1.29392e-05
1.44258e-07
-1.4471e-07
1.29398e-05
1.7503e-07
-1.75579e-07
1.29404e-05
2.12359e-07
-2.13025e-07
1.29413e-05
2.57644e-07
-2.58452e-07
1.29422e-05
3.12583e-07
-3.13564e-07
1.29434e-05
3.79239e-07
-3.80431e-07
1.29449e-05
4.60113e-07
-4.61564e-07
1.29466e-05
5.58255e-07
-5.60023e-07
1.29488e-05
6.7736e-07
-6.79519e-07
1.29514e-05
8.21981e-07
-8.24622e-07
1.29547e-05
9.97503e-07
-1.00076e-06
1.29587e-05
1.21118e-06
-1.21514e-06
1.29638e-05
1.46972e-06
-1.47481e-06
1.29693e-05
1.78888e-06
-1.79446e-06
1.29788e-05
2.16514e-06
-2.17464e-06
1.29826e-05
2.66399e-06
-2.6678e-06
1.30099e-05
3.17449e-06
-3.20178e-06
1.298e-05
4.07411e-06
-4.04423e-06
1.30905e-05
4.56894e-06
-4.67941e-06
1.28208e-05
6.63114e-06
-6.36148e-06
1.33094e-05
6.25207e-06
-6.74058e-06
1.21027e-05
1.12121e-05
-1.00054e-05
1.33861e-05
8.29694e-06
-9.58039e-06
1.16348e-05
1.59738e-05
-1.42224e-05
1.26772e-05
1.18313e-05
-1.28738e-05
1.10731e-05
2.16705e-05
-2.00664e-05
1.30228e-05
1.81283e-05
-2.0078e-05
1.16819e-05
3.18906e-05
-3.05496e-05
1.27829e-05
3.08955e-05
-3.19966e-05
6.16117e-05
-6.05819e-05
1.1753e-05
3.17318e-05
-6.42618e-06
2.73647e-05
-2.40979e-05
2.57562e-05
-3.15213e-05
2.40326e-05
-2.54167e-05
1.81848e-05
-2.12202e-05
1.4901e-05
-2.35438e-05
1.60075e-05
-2.1751e-05
1.68417e-05
-1.5972e-05
1.60465e-05
-1.19865e-05
1.49317e-05
-1.01631e-05
1.42109e-05
-8.83022e-06
1.38177e-05
-7.46131e-06
1.35822e-05
-6.18246e-06
1.34216e-05
-5.08657e-06
1.33047e-05
-4.17552e-06
1.32178e-05
-3.42455e-06
1.31527e-05
-2.8069e-06
1.31038e-05
-2.2992e-06
1.30666e-05
-1.88216e-06
1.30383e-05
-1.53993e-06
1.30166e-05
-1.25933e-06
1.29997e-05
-1.02942e-06
1.29867e-05
-8.4117e-07
1.29764e-05
-6.87114e-07
1.29684e-05
-5.61102e-07
1.29621e-05
-4.58074e-07
1.2957e-05
-3.73868e-07
1.2953e-05
-3.0507e-07
1.29499e-05
-2.48873e-07
1.29473e-05
-2.02986e-07
1.29453e-05
-1.6552e-07
1.29436e-05
-1.34941e-07
1.29423e-05
-1.09984e-07
1.29412e-05
-8.96108e-08
1.29404e-05
-7.29953e-08
1.29397e-05
-5.94282e-08
1.29391e-05
-4.83496e-08
1.29387e-05
-3.93161e-08
1.29383e-05
-3.19341e-08
1.2938e-05
-2.58884e-08
1.29377e-05
-2.09383e-08
1.29375e-05
-1.68789e-08
1.29374e-05
-1.35349e-08
1.29373e-05
-1.07654e-08
1.29372e-05
-8.45521e-09
1.29371e-05
-6.50814e-09
1.2937e-05
-4.84246e-09
1.2937e-05
-3.38888e-09
1.2937e-05
-2.08742e-09
1.2937e-05
-8.85752e-10
1.2937e-05
2.65083e-10
1.2937e-05
1.41656e-09
1.2937e-05
2.6074e-09
1.2937e-05
3.88591e-09
1.29371e-05
5.30173e-09
1.29371e-05
6.90926e-09
1.29372e-05
8.76978e-09
1.29373e-05
1.09538e-08
1.29375e-05
1.35441e-08
1.29376e-05
1.66378e-08
1.29378e-05
2.0352e-08
1.2938e-05
2.48263e-08
1.29383e-05
3.02292e-08
1.29387e-05
3.67633e-08
1.29391e-05
4.46739e-08
1.29396e-05
5.42579e-08
1.29403e-05
6.58742e-08
1.29411e-05
7.99583e-08
1.2942e-05
9.70375e-08
1.29431e-05
1.17752e-07
1.29445e-05
1.42878e-07
1.29462e-05
1.73356e-07
1.29482e-05
2.10328e-07
1.29507e-05
2.5518e-07
1.29537e-05
3.09592e-07
1.29573e-05
3.75606e-07
1.29617e-05
4.55701e-07
1.29671e-05
5.5289e-07
1.29736e-05
6.7083e-07
1.29816e-05
8.1402e-07
1.29913e-05
9.87784e-07
1.30032e-05
1.1993e-06
1.30179e-05
1.455e-06
1.30355e-05
1.77132e-06
1.30598e-05
2.14081e-06
1.3081e-05
2.64279e-06
1.31373e-05
3.11818e-06
1.31255e-05
4.08593e-06
1.33105e-05
4.38391e-06
1.30621e-05
6.87953e-06
1.36385e-05
5.6757e-06
1.24792e-05
1.23715e-05
1.41828e-05
6.59328e-06
1.19775e-05
1.81791e-05
1.40111e-05
9.79767e-06
1.3274e-05
2.24076e-05
1.58312e-05
1.55711e-05
1.38042e-05
3.39176e-05
1.74413e-05
2.72584e-05
6.16841e-05
1.73689e-05
3.38695e-05
-8.42545e-06
2.68781e-05
-1.71065e-05
2.22121e-05
-2.68554e-05
2.31641e-05
-2.63687e-05
2.14354e-05
-1.94916e-05
1.66391e-05
-1.87475e-05
1.45558e-05
-1.96677e-05
1.51325e-05
-1.65487e-05
1.55212e-05
-1.23751e-05
1.51422e-05
-9.78414e-06
1.4561e-05
-8.24901e-06
1.41033e-05
-7.00366e-06
1.37951e-05
-5.87428e-06
1.35863e-05
-4.87772e-06
1.34372e-05
-4.02643e-06
1.33262e-05
-3.31357e-06
1.32418e-05
-2.7225e-06
1.31769e-05
-2.23432e-06
1.31267e-05
-1.83193e-06
1.30876e-05
-1.50079e-06
1.30569e-05
-1.22867e-06
1.30328e-05
-1.00529e-06
1.30137e-05
-8.22088e-07
1.29985e-05
-6.71966e-07
1.29865e-05
-5.49036e-07
1.29768e-05
-4.48433e-07
1.29691e-05
-3.66143e-07
1.29629e-05
-2.98866e-07
1.29579e-05
-2.4388e-07
1.29539e-05
-1.9896e-07
1.29506e-05
-1.62269e-07
1.2948e-05
-1.32311e-07
1.29459e-05
-1.07856e-07
1.29441e-05
-8.78864e-08
1.29427e-05
-7.15961e-08
1.29416e-05
-5.82943e-08
1.29407e-05
-4.74299e-08
1.29399e-05
-3.8569e-08
1.29393e-05
-3.13286e-08
1.29389e-05
-2.53984e-08
1.29385e-05
-2.05417e-08
1.29381e-05
-1.65591e-08
1.29379e-05
-1.32785e-08
1.29377e-05
-1.05612e-08
1.29375e-05
-8.29442e-09
1.29374e-05
-6.3838e-09
1.29373e-05
-4.74913e-09
1.29372e-05
-3.3222e-09
1.29372e-05
-2.04413e-09
1.29372e-05
-8.63618e-10
1.29372e-05
2.67409e-10
1.29372e-05
1.39948e-09
1.29372e-05
2.57065e-09
1.29373e-05
3.82825e-09
1.29374e-05
5.22106e-09
1.29375e-05
6.80246e-09
1.29376e-05
8.63274e-09
1.29378e-05
1.07812e-08
1.2938e-05
1.33293e-08
1.29383e-05
1.63727e-08
1.29386e-05
2.00266e-08
1.2939e-05
2.44284e-08
1.29395e-05
2.97438e-08
1.29401e-05
3.61724e-08
1.29408e-05
4.39555e-08
1.29416e-05
5.33851e-08
1.29427e-05
6.48144e-08
1.2944e-05
7.8672e-08
1.29455e-05
9.54766e-08
1.29474e-05
1.15858e-07
1.29497e-05
1.4058e-07
1.29525e-05
1.70568e-07
1.29559e-05
2.06946e-07
1.296e-05
2.51075e-07
1.2965e-05
3.0461e-07
1.2971e-05
3.69558e-07
1.29784e-05
4.48355e-07
1.29873e-05
5.43962e-07
1.29982e-05
6.59975e-07
1.30114e-05
8.00792e-07
1.30275e-05
9.71676e-07
1.30473e-05
1.17954e-06
1.30714e-05
1.43091e-06
1.31012e-05
1.74152e-06
1.31389e-05
2.10307e-06
1.31802e-05
2.60153e-06
1.32603e-05
3.03801e-06
1.32678e-05
4.07844e-06
1.35626e-05
4.08915e-06
1.32444e-05
7.19772e-06
1.41152e-05
4.80492e-06
1.28515e-05
1.36351e-05
1.44302e-05
5.01459e-06
1.19654e-05
2.06439e-05
1.49139e-05
6.8492e-06
1.32946e-05
2.40269e-05
1.59292e-05
1.29365e-05
1.5079e-05
3.47677e-05
2.08686e-05
2.14689e-05
6.03933e-05
2.21594e-05
3.13605e-05
-9.49747e-06
2.88894e-05
-1.46355e-05
2.38983e-05
-2.18642e-05
2.23224e-05
-2.47928e-05
2.30479e-05
-2.0217e-05
2.07009e-05
-1.64006e-05
1.68432e-05
-1.581e-05
1.49857e-05
-1.46911e-05
1.4807e-05
-1.21965e-05
1.48369e-05
-9.81407e-06
1.46235e-05
-8.03552e-06
1.42912e-05
-6.67137e-06
1.39828e-05
-5.5659e-06
1.37431e-05
-4.63807e-06
1.35648e-05
-3.84804e-06
1.34305e-05
-3.17934e-06
1.33275e-05
-2.61953e-06
1.32475e-05
-2.15428e-06
1.31848e-05
-1.76919e-06
1.31353e-05
-1.45132e-06
1.30961e-05
-1.18947e-06
1.30649e-05
-9.74109e-07
1.304e-05
-7.97205e-07
1.30201e-05
-6.5205e-07
1.30041e-05
-5.33054e-07
1.29913e-05
-4.35579e-07
1.29809e-05
-3.55785e-07
1.29726e-05
-2.90504e-07
1.29658e-05
-2.37121e-07
1.29603e-05
-1.93489e-07
1.29559e-05
-1.57837e-07
1.29523e-05
-1.28717e-07
1.29494e-05
-1.04938e-07
1.2947e-05
-8.55178e-08
1.29451e-05
-6.96711e-08
1.29435e-05
-5.67319e-08
1.29423e-05
-4.61608e-08
1.29412e-05
-3.75367e-08
1.29404e-05
-3.0491e-08
1.29397e-05
-2.47201e-08
1.29392e-05
-1.99927e-08
1.29387e-05
-1.61158e-08
1.29384e-05
-1.29227e-08
1.29381e-05
-1.02777e-08
1.29378e-05
-8.07091e-09
1.29377e-05
-6.21077e-09
1.29375e-05
-4.61907e-09
1.29375e-05
-3.22911e-09
1.29374e-05
-1.98353e-09
1.29374e-05
-8.3253e-10
1.29374e-05
2.7085e-10
1.29374e-05
1.37576e-09
1.29374e-05
2.51936e-09
1.29375e-05
3.74765e-09
1.29376e-05
5.10823e-09
1.29378e-05
6.65314e-09
1.2938e-05
8.44125e-09
1.29382e-05
1.05402e-08
1.29385e-05
1.30295e-08
1.29389e-05
1.6003e-08
1.29393e-05
1.9573e-08
1.29399e-05
2.38738e-08
1.29406e-05
2.90675e-08
1.29414e-05
3.53492e-08
1.29424e-05
4.29547e-08
1.29436e-05
5.21692e-08
1.29451e-05
6.33381e-08
1.29469e-05
7.688e-08
1.2949e-05
9.33021e-08
1.29517e-05
1.1322e-07
1.29549e-05
1.37379e-07
1.29588e-05
1.66684e-07
1.29635e-05
2.02233e-07
1.29692e-05
2.45357e-07
1.29761e-05
2.9767e-07
1.29846e-05
3.61134e-07
1.29948e-05
4.38126e-07
1.30072e-05
5.31533e-07
1.30223e-05
6.44867e-07
1.30407e-05
7.82389e-07
1.30631e-05
9.49295e-07
1.30906e-05
1.15203e-06
1.31238e-05
1.39772e-06
1.31661e-05
1.69928e-06
1.3215e-05
2.05409e-06
1.32822e-05
2.53438e-06
1.33659e-05
2.95429e-06
1.34392e-05
4.00516e-06
1.37598e-05
3.7685e-06
1.3492e-05
7.4656e-06
1.48927e-05
3.40422e-06
1.32592e-05
1.52686e-05
1.56184e-05
2.65534e-06
1.3278e-05
2.29844e-05
1.6862e-05
3.26513e-06
1.55844e-05
2.53045e-05
1.71244e-05
1.13965e-05
1.58888e-05
3.60034e-05
2.30373e-05
1.43203e-05
5.82785e-05
2.51521e-05
3.23351e-05
-1.11687e-05
3.15359e-05
-1.38364e-05
2.60359e-05
-1.63642e-05
2.06708e-05
-1.94277e-05
2.02897e-05
-1.9836e-05
2.14113e-05
-1.75221e-05
2.0016e-05
-1.44147e-05
1.72636e-05
-1.19388e-05
1.54784e-05
-1.04113e-05
1.48255e-05
-9.16118e-06
1.45764e-05
-7.78638e-06
1.43517e-05
-6.44672e-06
1.41041e-05
-5.31823e-06
1.38729e-05
-4.40694e-06
1.36811e-05
-3.65617e-06
1.35289e-05
-3.02717e-06
1.34093e-05
-2.49995e-06
1.33151e-05
-2.06007e-06
1.32405e-05
-1.69461e-06
1.31812e-05
-1.392e-06
1.31339e-05
-1.14212e-06
1.30959e-05
-9.36187e-07
1.30655e-05
-7.66758e-07
1.3041e-05
-6.27549e-07
1.30212e-05
-5.13299e-07
1.30053e-05
-4.19625e-07
1.29924e-05
-3.42882e-07
1.29819e-05
-2.80056e-07
1.29735e-05
-2.28652e-07
1.29666e-05
-1.86618e-07
1.2961e-05
-1.52259e-07
1.29565e-05
-1.24184e-07
1.29528e-05
-1.01255e-07
1.29498e-05
-8.25241e-08
1.29474e-05
-6.72346e-08
1.29454e-05
-5.47515e-08
1.29438e-05
-4.45523e-08
1.29425e-05
-3.6228e-08
1.29414e-05
-2.94275e-08
1.29405e-05
-2.38582e-08
1.29398e-05
-1.92951e-08
1.29393e-05
-1.55525e-08
1.29388e-05
-1.24702e-08
1.29385e-05
-9.9169e-09
1.29382e-05
-7.78643e-09
1.2938e-05
-5.99042e-09
1.29378e-05
-4.45331e-09
1.29377e-05
-3.11038e-09
1.29376e-05
-1.90621e-09
1.29376e-05
-7.92829e-10
1.29376e-05
2.75304e-10
1.29376e-05
1.34549e-09
1.29376e-05
2.45381e-09
1.29377e-05
3.64461e-09
1.29379e-05
4.96397e-09
1.29381e-05
6.46229e-09
1.29383e-05
8.19657e-09
1.29386e-05
1.02324e-08
1.2939e-05
1.26469e-08
1.29395e-05
1.55311e-08
1.29401e-05
1.8994e-08
1.29408e-05
2.31661e-08
1.29416e-05
2.82045e-08
1.29427e-05
3.42989e-08
1.2944e-05
4.16779e-08
1.29455e-05
5.06181e-08
1.29474e-05
6.14547e-08
1.29497e-05
7.45939e-08
1.29525e-05
9.05279e-08
1.29558e-05
1.09854e-07
1.29599e-05
1.33294e-07
1.29649e-05
1.61729e-07
1.29709e-05
1.9622e-07
1.29782e-05
2.38061e-07
1.2987e-05
2.88817e-07
1.29978e-05
3.50387e-07
1.30108e-05
4.25079e-07
1.30267e-05
5.15683e-07
1.30459e-05
6.25607e-07
1.30694e-05
7.58938e-07
1.30979e-05
9.20794e-07
1.31329e-05
1.117e-06
1.3175e-05
1.35565e-06
1.32293e-05
1.64495e-06
1.32886e-05
1.99481e-06
1.33844e-05
2.4386e-06
1.34534e-05
2.88524e-06
1.36492e-05
3.80936e-06
1.37922e-05
3.62549e-06
1.40196e-05
7.23825e-06
1.52205e-05
2.20332e-06
1.44177e-05
1.60714e-05
1.74135e-05
-3.40407e-07
1.67605e-05
2.36374e-05
1.96405e-05
3.85065e-07
1.87764e-05
2.61686e-05
2.35327e-05
6.64015e-06
1.96798e-05
3.98563e-05
2.52015e-05
8.79857e-06
5.56135e-05
2.78665e-05
2.70149e-05
-9.94967e-06
2.6437e-05
-1.32585e-05
2.64565e-05
-1.63837e-05
2.34869e-05
-1.6458e-05
1.95371e-05
-1.58862e-05
1.85801e-05
-1.65651e-05
1.93498e-05
-1.51843e-05
1.89274e-05
-1.15164e-05
1.73388e-05
-8.82274e-06
1.58907e-05
-7.71306e-06
1.5024e-05
-6.91964e-06
1.45435e-05
-5.9663e-06
1.42286e-05
-5.00328e-06
1.39834e-05
-4.16173e-06
1.37823e-05
-3.45506e-06
1.3618e-05
-2.86295e-06
1.34854e-05
-2.36728e-06
1.33789e-05
-1.95355e-06
1.32935e-05
-1.60923e-06
1.3225e-05
-1.32352e-06
1.317e-05
-1.08708e-06
1.31256e-05
-8.91876e-07
1.30899e-05
-7.31016e-07
1.3061e-05
-5.98673e-07
1.30377e-05
-4.89938e-07
1.30187e-05
-4.00702e-07
1.30034e-05
-3.27539e-07
1.29909e-05
-2.67604e-07
1.29808e-05
-2.1854e-07
1.29726e-05
-1.784e-07
1.29659e-05
-1.45577e-07
1.29605e-05
-1.1875e-07
1.29561e-05
-9.68328e-08
1.29525e-05
-7.89261e-08
1.29496e-05
-6.43065e-08
1.29472e-05
-5.23696e-08
1.29452e-05
-4.26154e-08
1.29437e-05
-3.46516e-08
1.29424e-05
-2.81461e-08
1.29413e-05
-2.28196e-08
1.29405e-05
-1.84544e-08
1.29398e-05
-1.48735e-08
1.29393e-05
-1.19244e-08
1.29388e-05
-9.48147e-09
1.29385e-05
-7.44303e-09
1.29382e-05
-5.72447e-09
1.2938e-05
-4.2532e-09
1.29379e-05
-2.96699e-09
1.29378e-05
-1.81282e-09
1.29377e-05
-7.44901e-10
1.29377e-05
2.80618e-10
1.29378e-05
1.30882e-09
1.29379e-05
2.37437e-09
1.2938e-05
3.51974e-09
1.29382e-05
4.78921e-09
1.29384e-05
6.23117e-09
1.29387e-05
7.90028e-09
1.29391e-05
9.85966e-09
1.29395e-05
1.21837e-08
1.29401e-05
1.496e-08
1.29408e-05
1.82935e-08
1.29416e-05
2.23098e-08
1.29427e-05
2.71604e-08
1.2944e-05
3.30283e-08
1.29455e-05
4.01333e-08
1.29474e-05
4.87417e-08
1.29497e-05
5.91762e-08
1.29524e-05
7.18283e-08
1.29558e-05
8.71718e-08
1.29599e-05
1.05781e-07
1.29648e-05
1.28353e-07
1.29708e-05
1.55734e-07
1.29781e-05
1.88947e-07
1.29869e-05
2.29235e-07
1.29976e-05
2.78107e-07
1.30106e-05
3.37389e-07
1.30264e-05
4.09299e-07
1.30455e-05
4.96519e-07
1.30688e-05
6.02323e-07
1.30972e-05
7.30604e-07
1.31316e-05
8.86359e-07
1.31738e-05
1.07475e-06
1.32246e-05
1.30486e-06
1.329e-05
1.57956e-06
1.33607e-05
1.92409e-06
1.34799e-05
2.31946e-06
1.35412e-05
2.82397e-06
1.38466e-05
3.50392e-06
1.37543e-05
3.71783e-06
1.45505e-05
6.442e-06
1.47507e-05
2.00315e-06
1.52349e-05
1.55871e-05
1.82407e-05
-3.34623e-06
1.7009e-05
2.48691e-05
2.10969e-05
-3.70278e-06
1.82265e-05
2.9039e-05
2.45872e-05
2.79498e-07
2.17171e-05
4.27264e-05
2.50193e-05
5.49639e-06
5.10864e-05
2.95464e-05
2.90435e-05
-9.46396e-06
2.77035e-05
-1.19186e-05
2.57427e-05
-1.44228e-05
2.34617e-05
-1.4177e-05
1.97798e-05
-1.22044e-05
1.63451e-05
-1.31304e-05
1.55915e-05
-1.44307e-05
1.6659e-05
-1.25839e-05
1.73354e-05
-9.49915e-06
1.68803e-05
-7.25795e-06
1.59314e-05
-5.97071e-06
1.51042e-05
-5.13912e-06
1.45397e-05
-4.43874e-06
1.4166e-05
-3.78805e-06
1.39047e-05
-3.19381e-06
1.37103e-05
-2.66849e-06
1.35593e-05
-2.21632e-06
1.34395e-05
-1.83379e-06
1.33436e-05
-1.51331e-06
1.32664e-05
-1.24634e-06
1.32042e-05
-1.02481e-06
1.31538e-05
-8.41545e-07
1.31131e-05
-6.90278e-07
1.30801e-05
-5.6566e-07
1.30533e-05
-4.63159e-07
1.30316e-05
-3.78961e-07
1.30139e-05
-3.09876e-07
1.29996e-05
-2.53246e-07
1.29879e-05
-2.06862e-07
1.29784e-05
-1.68898e-07
1.29706e-05
-1.37844e-07
1.29643e-05
-1.12454e-07
1.29592e-05
-9.17063e-08
1.2955e-05
-7.47532e-08
1.29516e-05
-6.09075e-08
1.29489e-05
-4.96019e-08
1.29466e-05
-4.03647e-08
1.29448e-05
-3.28205e-08
1.29433e-05
-2.66569e-08
1.29421e-05
-2.16114e-08
1.29411e-05
-1.74763e-08
1.29403e-05
-1.40835e-08
1.29397e-05
-1.12893e-08
1.29392e-05
-8.97476e-09
1.29388e-05
-7.04342e-09
1.29385e-05
-5.41497e-09
1.29383e-05
-4.02029e-09
1.29381e-05
-2.80014e-09
1.2938e-05
-1.70422e-09
1.29379e-05
-6.8924e-10
1.29379e-05
2.86645e-10
1.2938e-05
1.26583e-09
1.2938e-05
2.28144e-09
1.29382e-05
3.37381e-09
1.29384e-05
4.58511e-09
1.29387e-05
5.96125e-09
1.2939e-05
7.55428e-09
1.29395e-05
9.42455e-09
1.294e-05
1.1643e-08
1.29407e-05
1.42935e-08
1.29415e-05
1.74759e-08
1.29425e-05
2.13104e-08
1.29437e-05
2.5942e-08
1.29452e-05
3.15455e-08
1.2947e-05
3.83308e-08
1.29492e-05
4.65519e-08
1.29518e-05
5.65174e-08
1.29551e-05
6.86011e-08
1.2959e-05
8.32554e-08
1.29637e-05
1.01029e-07
1.29695e-05
1.22587e-07
1.29765e-05
1.48738e-07
1.2985e-05
1.80459e-07
1.29953e-05
2.18937e-07
1.30078e-05
2.65611e-07
1.30229e-05
3.22224e-07
1.30413e-05
3.90891e-07
1.30637e-05
4.74165e-07
1.30908e-05
5.75171e-07
1.31239e-05
6.97583e-07
1.3164e-05
8.46217e-07
1.32131e-05
1.02564e-06
1.32725e-05
1.24552e-06
1.33476e-05
1.5044e-06
1.34318e-05
1.83991e-06
1.35644e-05
2.18687e-06
1.36433e-05
2.74504e-06
1.39875e-05
3.15974e-06
1.38135e-05
3.89187e-06
1.48413e-05
5.41413e-06
1.42575e-05
2.58694e-06
1.5234e-05
1.46107e-05
1.8285e-05
-6.39724e-06
1.46457e-05
2.85084e-05
2.0428e-05
-9.48504e-06
1.73566e-05
3.21103e-05
2.13801e-05
-3.74397e-06
2.14515e-05
4.2655e-05
2.34842e-05
3.46369e-06
4.47459e-05
2.98246e-05
2.86359e-05
-8.22072e-06
2.49712e-05
-8.25387e-06
2.15434e-05
-1.0995e-05
2.28896e-05
-1.55232e-05
2.60722e-05
-1.53869e-05
2.45443e-05
-1.16026e-05
1.91434e-05
-9.02979e-06
1.52617e-05
-8.70215e-06
1.4254e-05
-8.49145e-06
1.4416e-05
-7.42e-06
1.46205e-05
-6.17518e-06
1.46028e-05
-5.12139e-06
1.44276e-05
-4.26354e-06
1.41979e-05
-3.5584e-06
1.39756e-05
-2.97153e-06
1.37836e-05
-2.47645e-06
1.36247e-05
-2.05744e-06
1.34953e-05
-1.70434e-06
1.33903e-05
-1.40833e-06
1.33052e-05
-1.16128e-06
1.32363e-05
-9.55868e-07
1.31804e-05
-7.85618e-07
1.3135e-05
-6.44875e-07
1.30981e-05
-5.28774e-07
1.30681e-05
-4.33173e-07
1.30437e-05
-3.54572e-07
1.30239e-05
-2.9003e-07
1.30077e-05
-2.3709e-07
1.29945e-05
-1.93708e-07
1.29838e-05
-1.58184e-07
1.29751e-05
-1.29116e-07
1.2968e-05
-1.05345e-07
1.29622e-05
-8.59134e-08
1.29575e-05
-7.00339e-08
1.29536e-05
-5.70634e-08
1.29505e-05
-4.64712e-08
1.2948e-05
-3.78168e-08
1.29459e-05
-3.0747e-08
1.29442e-05
-2.49704e-08
1.29428e-05
-2.02429e-08
1.29417e-05
-1.63683e-08
1.29408e-05
-1.31886e-08
1.29401e-05
-1.05697e-08
1.29395e-05
-8.40042e-09
1.29391e-05
-6.59048e-09
1.29387e-05
-5.06429e-09
1.29385e-05
-3.75646e-09
1.29383e-05
-2.61117e-09
1.29382e-05
-1.5813e-09
1.29381e-05
-6.26398e-10
1.29381e-05
2.93168e-10
1.29381e-05
1.21672e-09
1.29382e-05
2.17557e-09
1.29384e-05
3.20772e-09
1.29386e-05
4.35292e-09
1.29389e-05
5.65427e-09
1.29393e-05
7.16082e-09
1.29398e-05
8.92982e-09
1.29404e-05
1.10284e-08
1.29412e-05
1.35358e-08
1.29421e-05
1.65464e-08
1.29433e-05
2.01743e-08
1.29447e-05
2.4557e-08
1.29463e-05
2.98601e-08
1.29484e-05
3.62819e-08
1.29509e-05
4.40629e-08
1.29539e-05
5.34953e-08
1.29576e-05
6.49328e-08
1.2962e-05
7.88037e-08
1.29674e-05
9.56271e-08
1.2974e-05
1.16033e-07
1.29819e-05
1.40786e-07
1.29916e-05
1.70811e-07
1.30033e-05
2.07231e-07
1.30175e-05
2.51408e-07
1.30347e-05
3.04989e-07
1.30556e-05
3.69973e-07
1.3081e-05
4.48771e-07
1.31119e-05
5.44329e-07
1.31494e-05
6.60097e-07
1.31949e-05
8.00637e-07
1.32505e-05
9.70054e-07
1.33181e-05
1.17796e-06
1.34019e-05
1.42057e-06
1.35007e-05
1.74109e-06
1.36384e-05
2.04921e-06
1.3758e-05
2.62541e-06
1.40691e-05
2.84868e-06
1.40145e-05
3.94648e-06
1.49363e-05
4.49232e-06
1.42961e-05
3.22716e-06
1.52971e-05
1.36097e-05
1.80194e-05
-9.11954e-06
1.32856e-05
3.32422e-05
1.9264e-05
-1.54634e-05
1.87085e-05
3.26659e-05
2.00971e-05
-5.13257e-06
2.18837e-05
4.08684e-05
2.24954e-05
2.85193e-06
3.82649e-05
2.89765e-05
2.70224e-05
-7.56919e-06
2.84779e-05
-9.7094e-06
2.77356e-05
-1.02527e-05
2.1946e-05
-9.73362e-06
1.74174e-05
-1.08584e-05
1.79525e-05
-1.21376e-05
1.99363e-05
-1.10135e-05
2.02042e-05
-8.97007e-06
1.88795e-05
-7.16679e-06
1.72593e-05
-5.79979e-06
1.60263e-05
-4.94217e-06
1.52297e-05
-4.32474e-06
1.47134e-05
-3.74724e-06
1.43509e-05
-3.19597e-06
1.40768e-05
-2.69741e-06
1.38608e-05
-2.26046e-06
1.36875e-05
-1.88412e-06
1.35473e-05
-1.56417e-06
1.34336e-05
-1.29461e-06
1.33412e-05
-1.0689e-06
1.32661e-05
-8.80764e-07
1.3205e-05
-7.24526e-07
1.31553e-05
-5.95158e-07
1.31148e-05
-4.88298e-07
1.30819e-05
-4.00209e-07
1.3055e-05
-3.27719e-07
1.30331e-05
-2.6815e-07
1.30153e-05
-2.1926e-07
1.30008e-05
-1.79174e-07
1.29889e-05
-1.46338e-07
1.29793e-05
-1.1946e-07
1.29714e-05
-9.74729e-08
1.2965e-05
-7.94968e-08
1.29598e-05
-6.48053e-08
1.29555e-05
-5.2802e-08
1.2952e-05
-4.29987e-08
1.29492e-05
-3.49905e-08
1.29469e-05
-2.84473e-08
1.2945e-05
-2.30996e-08
1.29435e-05
-1.8724e-08
1.29423e-05
-1.51384e-08
1.29413e-05
-1.21952e-08
1.29405e-05
-9.77086e-09
1.29398e-05
-7.76277e-09
1.29393e-05
-6.0877e-09
1.2939e-05
-4.67515e-09
1.29387e-05
-3.46381e-09
1.29385e-05
-2.40167e-09
1.29383e-05
-1.44519e-09
1.29382e-05
-5.57e-10
1.29382e-05
3.00001e-10
1.29383e-05
1.16164e-09
1.29384e-05
2.05732e-09
1.29386e-05
3.0225e-09
1.29389e-05
4.09419e-09
1.29392e-05
5.3122e-09
1.29396e-05
6.72242e-09
1.29402e-05
8.3787e-09
1.29409e-05
1.03438e-08
1.29417e-05
1.26917e-08
1.29428e-05
1.55111e-08
1.2944e-05
1.89088e-08
1.29456e-05
2.30143e-08
1.29474e-05
2.79828e-08
1.29497e-05
3.39998e-08
1.29525e-05
4.12906e-08
1.29559e-05
5.01292e-08
1.29599e-05
6.0847e-08
1.29649e-05
7.38454e-08
1.29709e-05
8.96107e-08
1.29782e-05
1.08733e-07
1.29871e-05
1.31929e-07
1.29978e-05
1.60066e-07
1.30109e-05
1.94194e-07
1.30267e-05
2.35591e-07
1.30459e-05
2.85797e-07
1.30692e-05
3.46683e-07
1.30974e-05
4.205e-07
1.31318e-05
5.10001e-07
1.31735e-05
6.18399e-07
1.32242e-05
7.49931e-07
1.32858e-05
9.08373e-07
1.33611e-05
1.10267e-06
1.34529e-05
1.32878e-06
1.35659e-05
1.62813e-06
1.37053e-05
1.90979e-06
1.38727e-05
2.45799e-06
1.41151e-05
2.60636e-06
1.42886e-05
3.77295e-06
1.4887e-05
3.89387e-06
1.47586e-05
3.3556e-06
1.55607e-05
1.28075e-05
1.7616e-05
-1.11748e-05
1.3759e-05
3.70991e-05
1.86399e-05
-2.03444e-05
1.9983e-05
3.13228e-05
1.91344e-05
-4.28404e-06
2.19469e-05
3.80559e-05
2.17094e-05
3.08948e-06
3.23627e-05
2.76116e-05
2.77771e-05
-6.38241e-06
2.53345e-05
-7.26676e-06
2.38671e-05
-8.78526e-06
2.43927e-05
-1.02593e-05
2.35452e-05
-1.00109e-05
2.03379e-05
-8.93029e-06
1.74052e-05
-8.0809e-06
1.60421e-05
-7.6069e-06
1.57088e-05
-6.8335e-06
1.55966e-05
-5.68764e-06
1.53763e-05
-4.7218e-06
1.5056e-05
-4.00448e-06
1.47186e-05
-3.40987e-06
1.44102e-05
-2.88753e-06
1.41453e-05
-2.43248e-06
1.39244e-05
-2.03964e-06
1.37429e-05
-1.70255e-06
1.35943e-05
-1.41564e-06
1.34731e-05
-1.17336e-06
1.33742e-05
-9.69982e-07
1.32935e-05
-8.00093e-07
1.32277e-05
-6.58736e-07
1.3174e-05
-5.41502e-07
1.31303e-05
-4.44535e-07
1.30946e-05
-3.64514e-07
1.30655e-05
-2.98602e-07
1.30417e-05
-2.44399e-07
1.30223e-05
-1.99885e-07
1.30065e-05
-1.6337e-07
1.29937e-05
-1.33446e-07
1.29831e-05
-1.08945e-07
1.29746e-05
-8.88981e-08
1.29676e-05
-7.25038e-08
1.29619e-05
-5.91037e-08
1.29572e-05
-4.81548e-08
1.29534e-05
-3.92118e-08
1.29503e-05
-3.19067e-08
1.29478e-05
-2.59372e-08
1.29458e-05
-2.10577e-08
1.29441e-05
-1.70662e-08
1.29428e-05
-1.37958e-08
1.29417e-05
-1.11109e-08
1.29408e-05
-8.89868e-09
1.29401e-05
-7.06646e-09
1.29396e-05
-5.53878e-09
1.29392e-05
-4.25053e-09
1.29389e-05
-3.14467e-09
1.29386e-05
-2.17333e-09
1.29385e-05
-1.29701e-09
1.29384e-05
-4.81739e-10
1.29384e-05
3.06891e-10
1.29385e-05