/*--------------------------------*- C++ -*----------------------------------*\
| =========                 |                                                 |
| \\      /  F ield         | OpenFOAM: The Open Source CFD Toolbox           |
|  \\    /   O peration     | Version:  2.4.0                                 |
|   \\  /    A nd           | Web:      www.OpenFOAM.org                      |
|    \\/     M anipulation  |                                                 |
\*---------------------------------------------------------------------------*/
FoamFile
{
    version     2.0;
    format      ascii;
    class       volScalarField;
    location    "0.049";
    object      pMean;
}
// * * * * * * * * * * * * * * * * * * * * * * * * * * * * * * * * * * * * * //

dimensions      [0 2 -2 0 0 0 0];

internalField   nonuniform List<scalar> 
4400
(
191.021
167.327
157.76
152.603
148.018
143.332
138.583
133.766
128.561
121.258
189.142
167.387
157.795
152.614
148.02
143.334
138.584
133.773
128.591
122.391
187.96
167.679
157.923
152.652
148.038
143.339
138.587
133.773
128.736
122.951
187.232
168.03
158.09
152.71
148.077
143.369
138.595
133.813
128.879
123.583
186.642
168.348
158.255
152.77
148.134
143.405
138.625
133.832
129.064
124.107
186.133
168.612
158.397
152.818
148.185
143.46
138.655
133.887
129.242
124.594
185.717
168.82
158.514
152.848
148.228
143.504
138.691
133.939
129.381
125.11
185.398
168.978
158.606
152.867
148.257
143.54
138.73
133.992
129.515
125.541
185.182
169.086
158.667
152.878
148.275
143.569
138.753
134.051
129.649
125.94
185.072
169.143
158.698
152.883
148.285
143.581
138.786
134.101
129.785
126.271
185.069
169.148
158.696
152.886
148.284
143.589
138.803
134.154
129.919
126.547
185.172
169.101
158.664
152.885
148.278
143.583
138.822
134.209
130.039
126.77
185.381
169.002
158.6
152.88
148.26
143.57
138.833
134.257
130.154
126.947
185.696
168.852
158.506
152.867
148.233
143.547
138.838
134.306
130.26
127.074
186.11
168.65
158.385
152.84
148.194
143.515
138.838
134.348
130.358
127.158
186.616
168.391
158.239
152.798
148.144
143.479
138.835
134.387
130.44
127.216
187.206
168.075
158.072
152.741
148.092
143.449
138.835
134.421
130.5
127.258
187.933
167.724
157.904
152.685
148.055
143.433
138.839
134.448
130.538
127.289
189.114
167.432
157.776
152.648
148.037
143.43
138.844
134.464
130.553
127.316
190.992
167.373
157.741
152.638
148.035
143.431
138.847
134.47
130.556
127.428
116.131
116.357
115.605
114.548
113.85
113.017
111.462
109.491
107.642
106.482
106.151
106.622
107.946
110.131
112.994
116.237
119.562
122.694
125.451
127.737
129.492
130.721
131.483
131.892
132.059
132.102
132.178
132.391
132.802
133.444
134.26
135.141
136.021
136.813
137.396
137.726
137.842
137.797
137.635
137.394
137.106
136.79
136.458
136.113
135.761
135.402
135.042
134.676
134.314
133.943
133.582
133.202
132.844
132.451
132.102
131.695
131.368
130.955
130.657
130.239
129.959
129.523
129.254
128.792
128.542
128.057
127.841
127.33
127.158
126.61
126.484
125.892
125.82
125.189
125.177
124.501
124.545
123.82
123.924
123.16
123.312
122.515
122.675
121.88
122.025
121.225
121.311
120.489
120.484
119.578
119.443
118.327
118.05
116.45
116.008
113.178
112.574
105.834
104.335
74.0795
117.478
116.939
116.535
115.79
114.996
114.103
112.687
110.93
109.23
108.071
107.692
108.112
109.346
111.373
114.023
117.041
120.14
123.044
125.568
127.604
129.119
130.145
130.728
130.973
131.005
130.958
130.998
131.231
131.713
132.477
133.446
134.486
135.524
136.469
137.177
137.593
137.761
137.748
137.605
137.375
137.094
136.784
136.454
136.111
135.76
135.402
135.042
134.676
134.314
133.943
133.582
133.202
132.842
132.448
132.095
131.688
131.352
130.943
130.633
130.221
129.926
129.494
129.206
128.744
128.478
127.988
127.761
127.241
127.063
126.498
126.373
125.751
125.69
125.013
125.031
124.28
124.383
123.548
123.751
122.837
123.141
122.137
122.53
121.448
121.884
120.744
121.149
119.958
120.27
118.97
119.099
117.531
117.456
115.229
115.102
111.145
110.98
101.635
100.022
66.6978
119.147
118.101
117.383
116.768
116.005
115.116
113.837
112.238
110.673
109.581
109.232
109.669
110.862
112.757
115.205
117.987
120.831
123.47
125.72
127.482
128.75
129.564
129.954
130.027
129.922
129.792
129.805
130.066
130.636
131.533
132.654
133.848
135.038
136.129
136.961
137.463
137.684
137.701
137.576
137.357
137.083
136.777
136.45
136.109
135.759
135.402
135.042
134.677
134.315
133.944
133.582
133.202
132.842
132.449
132.09
131.686
131.339
130.934
130.608
130.202
129.885
129.457
129.146
128.685
128.399
127.91
127.666
127.147
126.951
126.385
126.239
125.611
125.531
124.835
124.841
124.053
124.16
123.256
123.496
122.465
122.858
121.67
122.229
120.878
121.593
120.075
120.88
119.212
119.989
118.158
118.73
116.6
116.848
113.885
114.032
108.948
109.336
98.0606
95.0112
65.0814
120.548
119.43
118.438
117.726
117.006
116.157
115.021
113.601
112.208
111.244
110.955
111.399
112.536
114.287
116.522
119.039
121.589
123.927
125.881
127.361
128.384
128.978
129.168
129.072
128.84
128.638
128.633
128.938
129.608
130.638
131.906
133.248
134.583
135.809
136.754
137.34
137.612
137.659
137.55
137.341
137.073
136.771
136.446
136.107
135.758
135.401
135.042
134.677
134.315
133.944
133.583
133.204
132.842
132.452
132.089
131.688
131.328
130.927
130.58
130.177
129.834
129.409
129.072
128.615
128.305
127.824
127.557
127.048
126.823
126.265
126.083
125.465
125.345
124.657
124.616
123.826
123.889
122.967
123.172
122.092
122.476
121.179
121.785
120.237
121.103
119.247
120.389
118.195
119.57
116.969
118.324
115.307
116.278
112.454
112.708
106.763
107.009
94.8936
89.2426
65.723
121.518
120.555
119.605
118.722
117.973
117.161
116.18
114.992
113.837
113.049
112.828
113.252
114.3
115.893
117.901
120.128
122.359
124.377
126.024
127.232
128.018
128.393
128.39
128.142
127.796
127.534
127.527
127.887
128.66
129.82
131.226
132.705
134.173
135.522
136.569
137.229
137.549
137.622
137.527
137.327
137.064
136.765
136.443
136.105
135.757
135.401
135.042
134.677
134.316
133.946
133.584
133.207
132.844
132.458
132.089
131.694
131.32
130.922
130.55
130.149
129.777
129.357
128.992
128.546
128.208
127.742
127.44
126.95
126.678
126.141
125.904
125.309
125.131
124.467
124.357
123.591
123.576
122.68
122.797
121.735
122.017
120.717
121.226
119.631
120.423
118.422
119.552
117.038
118.577
115.406
117.356
113.401
115.31
110.388
111.753
104.872
104.423
92.3689
82.3793
65.6011
122.33
121.489
120.586
119.628
118.855
118.144
117.357
116.437
115.533
114.911
114.745
115.127
116.068
117.494
119.262
121.187
123.09
124.784
126.139
127.096
127.659
127.823
127.65
127.277
126.83
126.521
126.53
126.947
127.82
129.101
130.635
132.241
133.825
135.277
136.409
137.133
137.494
137.589
137.507
137.313
137.055
136.758
136.438
136.102
135.755
135.4
135.042
134.678
134.316
133.947
133.585
133.21
132.847
132.464
132.092
131.702
131.314
130.92
130.521
130.122
129.723
129.309
128.921
128.487
128.12
127.67
127.329
126.856
126.533
126.017
125.72
125.154
124.905
124.274
124.076
123.349
123.233
122.386
122.384
121.373
121.51
120.276
120.611
119.09
119.675
117.736
118.634
116.124
117.441
114.08
115.858
111.321
113.529
107.517
109.73
101.654
100.671
89.7669
77.2313
65.7029
123.12
122.255
121.326
120.401
119.699
119.155
118.58
117.888
117.194
116.71
116.595
116.934
117.759
119.009
120.534
122.164
123.75
125.147
126.238
126.964
127.312
127.284
126.98
126.509
125.974
125.638
125.67
126.149
127.115
128.501
130.149
131.871
133.556
135.088
136.284
137.057
137.449
137.562
137.488
137.301
137.046
136.753
136.435
136.099
135.754
135.399
135.042
134.678
134.317
133.949
133.586
133.214
132.85
132.472
132.097
131.712
131.313
130.922
130.498
130.103
129.678
129.276
128.865
128.448
128.054
127.618
127.236
126.778
126.404
125.912
125.553
125.018
124.688
124.095
123.797
123.118
122.884
122.097
121.95
121.007
120.973
119.826
119.962
118.547
118.891
117.107
117.708
115.423
116.314
113.219
114.389
109.97
111.442
105.088
106.281
97.3285
95.3636
85.2665
74.2737
66.1031
124.006
123.088
122.004
121.128
120.528
120.121
119.716
119.218
118.703
118.348
118.289
118.597
119.311
120.39
121.686
123.046
124.351
125.483
126.331
126.833
126.984
126.808
126.421
125.871
125.261
124.918
124.982
125.517
126.568
128.047
129.787
131.6
133.369
134.961
136.199
137.002
137.415
137.54
137.473
137.29
137.038
136.746
136.43
136.096
135.751
135.398
135.041
134.678
134.317
133.95
133.587
133.217
132.852
132.479
132.102
131.723
131.315
130.929
130.484
130.095
129.646
129.262
128.828
128.437
128.01
127.598
127.169
126.734
126.303
125.843
125.418
124.917
124.505
123.948
123.55
122.92
122.564
121.834
121.53
120.659
120.437
119.379
119.295
117.975
118.065
116.39
116.709
114.54
115.058
112.131
112.727
108.66
109.01
103.149
102.462
94.2081
90.4428
82.0403
73.0831
65.9809
124.686
123.766
122.59
121.742
121.244
120.966
120.729
120.414
120.059
119.821
119.816
120.102
120.719
121.64
122.73
123.852
124.907
125.792
126.406
126.709
126.7
126.429
125.998
125.379
124.715
124.39
124.494
125.077
126.197
127.757
129.574
131.453
133.275
134.901
136.157
136.973
137.396
137.525
137.462
137.281
137.032
136.742
136.427
136.094
135.75
135.397
135.041
134.679
134.317
133.951
133.588
133.22
132.854
132.485
132.107
131.735
131.321
130.941
130.478
130.1
129.628
129.267
128.81
128.451
127.992
127.611
127.133
126.73
126.243
125.82
125.333
124.872
124.378
123.864
123.366
122.792
122.305
121.64
121.168
120.374
119.948
118.983
118.644
117.425
117.212
115.644
115.622
113.527
113.638
110.789
110.836
106.954
106.283
101.148
98.5608
92.426
87.3408
81.3821
72.901
65.9826
125.225
124.335
123.145
122.339
121.929
121.767
121.669
121.505
121.285
121.143
121.186
121.455
121.992
122.773
123.68
124.588
125.407
126.048
126.447
126.584
126.466
126.161
125.713
125.038
124.351
124.077
124.229
124.856
126.026
127.633
129.503
131.426
133.275
134.906
136.157
136.967
137.387
137.515
137.452
137.274
137.027
136.739
136.425
136.093
135.75
135.398
135.041
134.68
134.318
133.952
133.588
133.222
132.855
132.49
132.111
131.746
131.33
130.958
130.484
130.118
129.628
129.29
128.812
128.486
127.998
127.658
127.132
126.772
126.229
125.854
125.309
124.896
124.327
123.864
123.273
122.759
122.155
121.554
120.923
120.205
119.573
118.699
118.082
116.972
116.408
114.966
114.5
112.547
112.103
109.469
108.772
105.308
103.618
99.4822
95.9559
91.702
86.231
82.5902
73.3627
66.8047
125.654
124.823
123.667
122.901
122.561
122.485
122.501
122.47
122.375
122.324
122.417
122.684
123.154
123.81
124.553
125.263
125.854
126.273
126.49
126.491
126.299
126.002
125.562
124.857
124.183
123.991
124.198
124.87
126.083
127.711
129.596
131.528
133.372
134.98
136.201
136.987
137.391
137.512
137.447
137.269
137.023
136.735
136.422
136.091
135.748
135.397
135.041
134.68
134.318
133.953
133.588
133.223
132.855
132.494
132.114
131.757
131.34
130.98
130.501
130.15
129.646
129.331
128.834
128.539
128.026
127.729
127.165
126.855
126.257
125.944
125.336
124.995
124.347
123.959
123.276
122.844
122.131
121.613
120.84
120.209
119.395
118.614
117.74
116.737
115.817
114.511
113.549
111.813
110.721
108.439
106.95
104.083
101.69
98.5571
94.7821
92.1444
86.4702
84.3582
74.4364
68.205
125.969
125.203
124.129
123.442
123.178
123.183
123.286
123.365
123.38
123.411
123.544
123.807
124.219
124.757
125.336
125.852
126.247
126.489
126.551
126.444
126.215
125.96
125.551
124.838
124.203
124.113
124.38
125.092
126.332
127.966
129.841
131.75
133.555
135.111
136.282
137.029
137.409
137.517
137.448
137.268
137.021
136.734
136.421
136.091
135.749
135.398
135.042
134.681
134.319
133.955
133.588
133.225
132.855
132.497
132.116
131.766
131.351
131.004
130.529
130.195
129.683
129.388
128.874
128.607
128.074
127.818
127.227
126.968
126.324
126.077
125.411
125.154
124.433
124.145
123.365
123.048
122.217
121.83
120.909
120.419
119.422
118.781
117.674
116.81
115.583
114.436
113.043
111.546
109.896
108.005
105.913
103.684
100.867
98.8055
94.8064
93.584
87.4466
85.8923
75.8764
69.3989
126.204
125.523
124.579
123.994
123.804
123.863
124.02
124.17
124.269
124.365
124.532
124.795
125.151
125.566
125.974
126.305
126.518
126.602
126.559
126.396
126.175
126.001
125.668
124.984
124.411
124.426
124.775
125.526
126.767
128.376
130.208
132.067
133.806
135.284
136.387
137.084
137.433
137.527
137.451
137.269
137.022
136.735
136.422
136.091
135.749
135.399
135.043
134.682
134.32
133.956
133.589
133.226
132.855
132.499
132.116
131.774
131.362
131.031
130.563
130.249
129.734
129.459
128.93
128.69
128.136
127.92
127.308
127.104
126.422
126.238
125.521
125.351
124.566
124.392
123.52
123.342
122.388
122.179
121.097
120.821
119.61
119.219
117.842
117.26
115.686
114.856
113.025
111.908
109.738
108.378
105.719
104.341
101.037
100.178
95.6809
95.4613
88.7556
86.9652
77.2465
70.1939
126.328
125.739
124.976
124.525
124.417
124.521
124.704
124.892
125.049
125.197
125.384
125.628
125.914
126.208
126.46
126.628
126.705
126.688
126.574
126.375
126.181
126.101
125.873
125.258
124.775
124.875
125.312
126.117
127.35
128.913
130.675
132.451
134.099
135.484
136.506
137.148
137.464
137.541
137.458
137.273
137.024
136.736
136.423
136.092
135.75
135.4
135.044
134.684
134.321
133.958
133.591
133.228
132.856
132.501
132.117
131.78
131.37
131.055
130.598
130.306
129.793
129.537
128.996
128.779
128.207
128.026
127.398
127.247
126.538
126.414
125.652
125.565
124.73
124.668
123.718
123.681
122.616
122.599
121.37
121.348
119.918
119.862
118.183
118.039
116.043
115.755
113.388
112.946
110.117
109.621
106.24
105.981
101.931
102.161
97.0007
97.1208
89.9757
87.5408
78.313
70.7946
126.371
125.902
125.359
125.054
125.003
125.112
125.296
125.502
125.692
125.864
126.048
126.252
126.457
126.639
126.774
126.838
126.833
126.757
126.609
126.399
126.24
126.246
126.124
125.629
125.268
125.428
125.93
126.774
127.989
129.497
131.176
132.857
134.401
135.685
136.624
137.211
137.496
137.556
137.465
137.277
137.027
136.738
136.425
136.094
135.752
135.401
135.045
134.685
134.323
133.959
133.592
133.23
132.857
132.504
132.117
131.784
131.374
131.075
130.626
130.358
129.85
129.614
129.062
128.866
128.278
128.127
127.482
127.383
126.655
126.591
125.789
125.778
124.897
124.944
123.932
124.028
122.866
123.037
121.678
121.915
120.286
120.586
118.625
118.981
116.569
116.958
114.014
114.458
110.883
111.444
107.244
108.048
103.217
104.085
98.3494
98.2671
90.923
87.7289
79.1357
71.42
126.386
126.031
125.701
125.513
125.488
125.586
125.752
125.953
126.15
126.328
126.499
126.67
126.82
126.928
126.983
126.979
126.93
126.829
126.68
126.486
126.374
126.442
126.395
126.039
125.817
126.037
126.579
127.437
128.619
130.06
131.649
133.233
134.676
135.864
136.729
137.267
137.523
137.568
137.471
137.28
137.029
136.74
136.426
136.096
135.754
135.403
135.047
134.687
134.324
133.961
133.594
133.232
132.859
132.505
132.118
131.787
131.376
131.085
130.64
130.393
129.895
129.676
129.122
128.94
128.343
128.211
127.554
127.494
126.755
126.747
125.913
125.968
125.044
125.186
124.125
124.346
123.1
123.438
121.974
122.449
120.656
121.284
119.09
119.918
117.162
118.202
114.77
116.076
111.851
113.387
108.447
110.051
104.534
105.622
99.4835
98.9003
91.6352
87.7026
79.795
72.1107
126.407
126.137
125.962
125.853
125.835
125.913
126.058
126.246
126.439
126.616
126.778
126.924
127.034
127.095
127.108
127.076
127.013
126.913
126.789
126.64
126.578
126.669
126.665
126.446
126.359
126.628
127.19
128.042
129.182
130.555
132.058
133.549
134.902
136.008
136.81
137.307
137.54
137.574
137.473
137.281
137.03
136.741
136.428
136.097
135.755
135.404
135.048
134.688
134.325
133.962
133.595
133.233
132.86
132.506
132.119
131.788
131.376
131.088
130.64
130.406
129.91
129.711
129.159
128.992
128.39
128.272
127.609
127.57
126.826
126.862
126.015
126.119
125.168
125.378
124.282
124.608
123.306
123.777
122.228
122.9
120.989
121.89
119.515
120.736
117.729
119.305
115.518
117.505
112.827
115.069
109.601
111.68
105.667
106.715
100.341
99.1588
92.2262
87.6428
80.3099
72.8341
126.477
126.272
126.15
126.063
126.043
126.105
126.232
126.405
126.593
126.766
126.919
127.045
127.131
127.171
127.17
127.137
127.093
127.026
126.935
126.831
126.813
126.903
126.916
126.807
126.831
127.139
127.704
128.532
129.627
130.938
132.367
133.782
135.063
136.106
136.861
137.327
137.546
137.573
137.471
137.279
137.029
136.741
136.428
136.097
135.755
135.405
135.049
134.689
134.326
133.962
133.595
133.233
132.86
132.506
132.121
131.787
131.378
131.085
130.641
130.402
129.906
129.717
129.159
129.011
128.397
128.299
127.625
127.606
126.848
126.92
126.056
126.211
125.235
125.5
124.376
124.782
123.445
124.021
122.416
123.229
121.25
122.353
119.871
121.364
118.221
120.167
116.183
118.603
113.678
116.338
110.543
112.861
106.513
107.431
100.936
99.2328
92.7075
87.6399
80.684
73.52
126.557
126.378
126.252
126.163
126.137
126.185
126.298
126.459
126.641
126.814
126.965
127.087
127.168
127.207
127.213
127.192
127.165
127.123
127.066
127.008
127.02
127.097
127.11
127.072
127.172
127.506
128.071
128.876
129.931
131.19
132.564
133.924
135.155
136.156
136.881
137.33
137.541
137.566
137.464
137.273
137.025
136.738
136.426
136.096
135.755
135.404
135.049
134.689
134.326
133.963
133.596
133.233
132.861
132.505
132.123
131.785
131.381
131.082
130.643
130.395
129.908
129.708
129.162
129.006
128.401
128.301
127.63
127.612
126.853
126.934
126.062
126.244
125.246
125.549
124.392
124.858
123.475
124.138
122.468
123.394
121.34
122.6
120.029
121.711
118.477
120.658
116.58
119.236
114.219
117.077
111.165
113.545
107.086
107.813
101.427
99.2017
93.1466
87.6596
80.9158
74.0418
126.726
126.464
126.292
126.192
126.16
126.2
126.306
126.462
126.638
126.808
126.956
127.077
127.162
127.211
127.23
127.225
127.214
127.19
127.155
127.121
127.14
127.203
127.214
127.208
127.343
127.692
128.256
129.046
130.078
131.307
132.65
133.98
135.187
136.167
136.879
137.321
137.53
137.557
137.457
137.268
137.021
136.736
136.424
136.095
135.754
135.404
135.048
134.689
134.326
133.962
133.596
133.233
132.862
132.504
132.124
131.784
131.383
131.081
130.645
130.394
129.908
129.707
129.162
129.007
128.403
128.302
127.633
127.613
126.855
126.935
126.065
126.246
125.25
125.556
124.396
124.869
123.481
124.161
122.475
123.436
121.348
122.672
120.04
121.828
118.498
120.833
116.629
119.471
114.318
117.356
111.32
113.803
107.26
107.943
101.569
99.1195
93.2113
87.6115
80.9576
74.0401
120.195
119.52
118.159
116.319
114.279
112.808
112.251
112.508
113.199
114.168
115.272
116.626
118.263
120.084
122.053
124.347
126.965
129.736
132.381
134.705
136.598
138.134
139.239
140.127
140.786
141.267
141.596
141.745
141.74
141.584
141.312
140.955
140.546
140.113
139.674
139.24
138.816
138.403
138.001
137.608
137.223
136.846
136.474
136.106
135.742
135.381
135.021
134.663
134.305
133.948
133.592
133.236
132.882
132.528
132.176
131.825
131.476
131.128
130.782
130.438
130.096
129.756
129.419
129.084
128.752
128.423
128.098
127.778
127.462
127.153
126.849
126.554
126.268
125.991
125.727
125.475
125.24
125.022
124.824
124.65
124.502
124.384
124.298
124.25
124.24
124.274
124.349
124.469
124.628
124.827
125.062
125.331
125.625
125.947
126.305
126.736
127.297
128.002
128.717
129.182
120.116
119.436
118.042
116.126
114.002
112.496
111.962
112.281
112.954
113.85
114.933
116.309
117.929
119.679
121.657
124.032
126.749
129.6
132.292
134.659
136.569
138.106
139.22
140.101
140.762
141.244
141.58
141.732
141.732
141.58
141.31
140.953
140.546
140.113
139.674
139.241
138.817
138.403
138.001
137.608
137.223
136.845
136.473
136.106
135.742
135.381
135.021
134.663
134.305
133.948
133.592
133.236
132.882
132.528
132.176
131.825
131.475
131.128
130.782
130.438
130.096
129.756
129.419
129.083
128.752
128.423
128.098
127.777
127.461
127.152
126.848
126.553
126.266
125.989
125.725
125.473
125.237
125.018
124.821
124.645
124.497
124.378
124.292
124.242
124.233
124.264
124.341
124.459
124.621
124.82
125.06
125.329
125.627
125.944
126.296
126.711
127.265
127.963
128.688
129.158
119.991
119.295
117.849
115.779
113.492
111.886
111.338
111.696
112.337
113.074
114.075
115.427
116.997
118.761
120.826
123.379
126.277
129.279
132.082
134.518
136.472
138.008
139.143
140.006
140.68
141.163
141.512
141.676
141.686
141.542
141.279
140.928
140.526
140.098
139.664
139.234
138.813
138.403
138.002
137.61
137.225
136.847
136.475
136.107
135.743
135.382
135.022
134.663
134.305
133.948
133.592
133.236
132.881
132.528
132.175
131.824
131.475
131.127
130.781
130.437
130.095
129.755
129.418
129.082
128.75
128.421
128.096
127.775
127.459
127.149
126.845
126.549
126.262
125.984
125.718
125.466
125.228
125.009
124.809
124.633
124.481
124.361
124.27
124.219
124.204
124.234
124.304
124.422
124.578
124.78
125.015
125.291
125.587
125.912
126.255
126.672
127.205
127.916
128.645
129.13
119.825
119.132
117.606
115.38
112.921
111.135
110.442
110.688
111.215
111.807
112.709
114.017
115.541
117.425
119.714
122.523
125.664
128.85
131.789
134.296
136.316
137.855
139.01
139.864
140.544
141.037
141.401
141.581
141.604
141.472
141.219
140.878
140.484
140.065
139.639
139.217
138.803
138.397
138
137.61
137.226
136.849
136.478
136.11
135.745
135.383
135.023
134.664
134.306
133.949
133.592
133.236
132.881
132.527
132.174
131.823
131.474
131.126
130.78
130.436
130.094
129.754
129.416
129.08
128.748
128.418
128.093
127.771
127.455
127.144
126.839
126.542
126.254
125.974
125.708
125.452
125.214
124.99
124.789
124.607
124.454
124.325
124.232
124.17
124.152
124.169
124.235
124.34
124.495
124.687
124.927
125.196
125.505
125.828
126.191
126.606
127.167
127.872
128.636
129.123
119.626
118.93
117.342
114.981
112.344
110.316
109.356
109.314
109.624
110.052
110.828
112.122
113.707
115.841
118.455
121.551
124.953
128.328
131.421
134.013
136.1
137.658
138.826
139.68
140.37
140.877
141.258
141.456
141.493
141.375
141.134
140.805
140.423
140.016
139.601
139.19
138.785
138.386
137.994
137.608
137.227
136.851
136.48
136.113
135.748
135.386
135.025
134.666
134.307
133.949
133.592
133.236
132.88
132.526
132.173
131.822
131.472
131.124
130.778
130.434
130.092
129.752
129.413
129.078
128.744
128.415
128.088
127.766
127.449
127.137
126.831
126.533
126.242
125.963
125.692
125.436
125.192
124.968
124.759
124.575
124.412
124.28
124.176
124.108
124.075
124.083
124.133
124.228
124.367
124.553
124.781
125.054
125.358
125.705
126.074
126.54
127.102
127.87
128.605
129.142
119.397
118.689
117.054
114.601
111.817
109.513
108.169
107.668
107.64
107.878
108.516
109.834
111.651
114.109
117.104
120.48
124.154
127.727
130.979
133.675
135.826
137.416
138.603
139.464
140.168
140.696
141.091
141.308
141.358
141.254
141.027
140.711
140.344
139.952
139.553
139.155
138.761
138.371
137.986
137.604
137.226
136.852
136.482
136.115
135.751
135.388
135.027
134.667
134.308
133.95
133.592
133.235
132.88
132.525
132.172
131.82
131.47
131.122
130.776
130.432
130.089
129.749
129.41
129.074
128.741
128.41
128.084
127.76
127.442
127.129
126.822
126.522
126.23
125.947
125.675
125.415
125.169
124.939
124.727
124.535
124.367
124.225
124.112
124.032
123.985
123.979
124.011
124.09
124.209
124.381
124.594
124.86
125.167
125.52
125.933
126.418
127.065
127.815
128.659
129.116
119.117
118.391
116.728
114.227
111.348
108.755
106.93
105.839
105.374
105.389
105.91
107.303
109.511
112.299
115.677
119.332
123.279
127.072
130.476
133.287
135.505
137.133
138.344
139.227
139.949
140.501
140.908
141.14
141.202
141.111
140.897
140.598
140.248
139.874
139.493
139.111
138.732
138.352
137.974
137.598
137.224
136.852
136.484
136.117
135.753
135.39
135.029
134.669
134.309
133.95
133.592
133.234
132.879
132.523
132.17
131.818
131.468
131.12
130.774
130.43
130.087
129.747
129.407
129.071
128.736
128.406
128.078
127.754
127.435
127.12
126.812
126.509
126.216
125.93
125.656
125.392
125.142
124.907
124.69
124.491
124.316
124.163
124.041
123.946
123.887
123.861
123.878
123.931
124.035
124.177
124.379
124.621
124.932
125.288
125.728
126.271
126.939
127.787
128.529
129.164
118.772
118.007
116.316
113.812
110.91
108.038
105.663
103.924
102.993
102.803
103.239
104.736
107.384
110.501
114.191
118.16
122.361
126.386
129.944
132.864
135.147
136.818
138.059
138.974
139.717
140.292
140.708
140.95
141.021
140.941
140.743
140.463
140.134
139.782
139.422
139.06
138.697
138.33
137.961
137.59
137.22
136.851
136.484
136.119
135.755
135.392
135.031
134.67
134.31
133.95
133.592
133.234
132.877
132.521
132.168
131.815
131.466
131.117
130.772
130.427
130.084
129.743
129.403
129.067
128.731
128.4
128.071
127.747
127.426
127.11
126.8
126.496
126.2
125.913
125.633
125.368
125.112
124.873
124.648
124.444
124.259
124.098
123.962
123.855
123.779
123.736
123.73
123.764
123.839
123.963
124.13
124.365
124.643
125.021
125.456
126.049
126.764
127.629
128.523
128.881
118.353
117.512
115.774
113.297
110.448
107.339
104.41
102.055
100.717
100.345
100.702
102.274
105.296
108.774
112.731
117.022
121.446
125.697
129.399
132.42
134.756
136.474
137.751
138.704
139.47
140.063
140.484
140.729
140.806
140.739
140.56
140.304
140.001
139.676
139.341
139.002
138.657
138.305
137.945
137.582
137.216
136.85
136.484
136.12
135.757
135.394
135.032
134.671
134.311
133.95
133.592
133.233
132.876
132.519
132.166
131.812
131.464
131.114
130.769
130.423
130.081
129.74
129.399
129.063
128.726
128.394
128.064
127.738
127.417
127.099
126.788
126.48
126.184
125.891
125.611
125.339
125.08
124.835
124.604
124.391
124.198
124.026
123.878
123.757
123.662
123.603
123.572
123.584
123.63
123.726
123.868
124.066
124.339
124.677
125.147
125.718
126.485
127.338
128.094
128.873
117.838
116.88
115.059
112.641
109.906
106.636
103.242
100.354
98.6873
98.1517
98.4505
100.027
103.335
107.176
111.381
115.954
120.581
125.032
128.857
131.952
134.335
136.101
137.421
138.418
139.205
139.806
140.222
140.464
140.547
140.495
140.34
140.115
139.846
139.555
139.251
138.937
138.613
138.277
137.928
137.572
137.211
136.848
136.484
136.121
135.758
135.395
135.034
134.672
134.311
133.95
133.591
133.231
132.875
132.516
132.164
131.809
131.461
131.11
130.766
130.419
130.078
129.735
129.396
129.057
128.72
128.388
128.056
127.73
127.406
127.087
126.773
126.465
126.164
125.87
125.585
125.31
125.045
124.794
124.557
124.336
124.133
123.949
123.789
123.651
123.542
123.457
123.41
123.387
123.414
123.468
123.585
123.745
123.981
124.308
124.73
125.334
126.044
126.985
127.832
128.184
117.221
116.089
114.148
111.825
109.27
105.947
102.23
98.9246
97.0188
96.337
96.592
98.1609
101.718
105.86
110.239
115.034
119.832
124.422
128.326
131.468
133.887
135.702
137.072
138.113
138.913
139.507
139.91
140.143
140.23
140.199
140.076
139.891
139.666
139.417
139.149
138.866
138.566
138.246
137.91
137.561
137.205
136.845
136.484
136.121
135.759
135.397
135.035
134.673
134.312
133.95
133.591
133.229
132.873
132.513
132.161
131.805
131.458
131.105
130.764
130.415
130.075
129.73
129.392
129.051
128.715
128.38
128.048
127.72
127.394
127.075
126.758
126.448
126.144
125.846
125.558
125.278
125.008
124.751
124.506
124.277
124.063
123.869
123.693
123.542
123.411
123.309
123.231
123.189
123.173
123.206
123.268
123.405
123.585
123.875
124.27
124.802
125.529
126.282
127.122
127.808
116.487
115.158
113.054
110.89
108.584
105.319
101.461
97.8977
95.8447
95.0919
95.293
96.8574
100.561
104.904
109.386
114.307
119.223
123.878
127.817
130.975
133.419
135.284
136.708
137.781
138.578
139.148
139.526
139.748
139.844
139.838
139.758
139.625
139.455
139.258
139.036
138.789
138.514
138.213
137.889
137.549
137.198
136.842
136.483
136.122
135.76
135.398
135.036
134.673
134.312
133.95
133.59
133.228
132.871
132.51
132.158
131.8
131.455
131.1
130.761
130.409
130.073
129.724
129.389
129.044
128.71
128.371
128.04
127.709
127.383
127.06
126.743
126.429
126.122
125.821
125.529
125.243
124.969
124.705
124.453
124.214
123.991
123.784
123.594
123.425
123.276
123.151
123.049
122.973
122.93
122.915
122.948
123.018
123.17
123.381
123.727
124.199
124.822
125.646
126.28
126.684
115.663
114.128
111.867
109.938
107.975
104.851
101.056
97.4243
95.3114
94.5255
94.6576
96.1966
99.9111
104.328
108.857
113.799
118.76
123.41
127.334
130.482
132.942
134.854
136.322
137.407
138.178
138.709
139.055
139.266
139.374
139.405
139.378
139.31
139.208
139.075
138.909
138.704
138.459
138.178
137.867
137.536
137.191
136.838
136.482
136.122
135.761
135.399
135.037
134.674
134.312
133.949
133.589
133.225
132.869
132.505
132.155
131.794
131.452
131.093
130.758
130.401
130.071
129.716
129.386
129.034
128.706
128.36
128.033
127.696
127.372
127.045
126.727
126.409
126.1
125.795
125.498
125.208
124.928
124.656
124.396
124.149
123.914
123.695
123.491
123.304
123.136
122.986
122.857
122.751
122.669
122.617
122.594
122.623
122.691
122.857
123.092
123.477
123.981
124.531
125.147
125.575
114.831
113.144
110.869
109.141
107.557
104.674
101.127
97.5954
95.4524
94.6494
94.6976
96.1906
99.7945
104.157
108.661
113.522
118.445
123.023
126.886
129.999
132.466
134.409
135.898
136.966
137.691
138.174
138.489
138.69
138.817
138.892
138.931
138.941
138.92
138.865
138.764
138.609
138.399
138.141
137.844
137.521
137.183
136.834
136.48
136.122
135.762
135.4
135.038
134.674
134.313
133.948
133.588
133.223
132.866
132.5
132.152
131.786
131.448
131.084
130.755
130.392
130.068
129.706
129.384
129.022
128.702
128.345
128.027
127.679
127.364
127.025
126.713
126.385
126.078
125.765
125.467
125.17
124.885
124.606
124.337
124.081
123.834
123.603
123.382
123.179
122.989
122.816
122.658
122.52
122.398
122.301
122.228
122.187
122.197
122.248
122.411
122.634
122.994
123.417
123.685
123.856
114.226
112.409
110.279
108.682
107.435
104.928
101.703
98.4
96.2348
95.4023
95.3919
96.8112
100.188
104.372
108.764
113.474
118.279
122.721
126.478
129.538
131.997
133.945
135.418
136.442
137.108
137.541
137.827
138.025
138.176
138.304
138.42
138.52
138.593
138.627
138.602
138.504
138.333
138.1
137.819
137.506
137.174
136.83
136.478
136.121
135.762
135.4
135.038
134.675
134.313
133.947
133.587
133.22
132.864
132.495
132.147
131.777
131.443
131.073
130.751
130.38
130.065
129.693
129.381
129.007
128.698
128.327
128.023
127.657
127.357
126.999
126.702
126.355
126.061
125.729
125.44
125.126
124.844
124.55
124.28
124.007
123.754
123.506
123.272
123.049
122.838
122.641
122.454
122.281
122.12
121.972
121.842
121.732
121.648
121.612
121.603