/*--------------------------------*- C++ -*----------------------------------*\
| =========                 |                                                 |
| \\      /  F ield         | OpenFOAM: The Open Source CFD Toolbox           |
|  \\    /   O peration     | Version:  2.4.0                                 |
|   \\  /    A nd           | Web:      www.OpenFOAM.org                      |
|    \\/     M anipulation  |                                                 |
\*---------------------------------------------------------------------------*/
FoamFile
{
    version     2.0;
    format      ascii;
    class       volScalarField;
    location    "0.174";
    object      pPrime2Mean;
}
// * * * * * * * * * * * * * * * * * * * * * * * * * * * * * * * * * * * * * //

dimensions      [0 4 -4 0 0 0 0];

internalField   nonuniform List<scalar> 
17600
(
3.71399e+06
3.62033e+06
3.51963e+06
3.41984e+06
3.32146e+06
3.22453e+06
3.12902e+06
3.03494e+06
2.94229e+06
2.85107e+06
2.76127e+06
2.67287e+06
2.58585e+06
2.50016e+06
2.41572e+06
2.33235e+06
2.24975e+06
2.16724e+06
2.08337e+06
1.9931e+06
3.71407e+06
3.62033e+06
3.51963e+06
3.41984e+06
3.32146e+06
3.22453e+06
3.12902e+06
3.03494e+06
2.94229e+06
2.85107e+06
2.76127e+06
2.67287e+06
2.58585e+06
2.50016e+06
2.41572e+06
2.33236e+06
2.24977e+06
2.16729e+06
2.08349e+06
1.99334e+06
3.71413e+06
3.62032e+06
3.51963e+06
3.41984e+06
3.32146e+06
3.22453e+06
3.12902e+06
3.03494e+06
2.94229e+06
2.85107e+06
2.76127e+06
2.67287e+06
2.58585e+06
2.50017e+06
2.41574e+06
2.33239e+06
2.24981e+06
2.16739e+06
2.0837e+06
1.99427e+06
3.71417e+06
3.6203e+06
3.51962e+06
3.41983e+06
3.32146e+06
3.22452e+06
3.12902e+06
3.03494e+06
2.94229e+06
2.85107e+06
2.76127e+06
2.67287e+06
2.58586e+06
2.50018e+06
2.41575e+06
2.33242e+06
2.24988e+06
2.16753e+06
2.08404e+06
1.99556e+06
3.7142e+06
3.62029e+06
3.51961e+06
3.41983e+06
3.32146e+06
3.22452e+06
3.12902e+06
3.03494e+06
2.94229e+06
2.85107e+06
2.76127e+06
2.67288e+06
2.58586e+06
2.50019e+06
2.41578e+06
2.33246e+06
2.24997e+06
2.16771e+06
2.08447e+06
1.99711e+06
3.71423e+06
3.62028e+06
3.51959e+06
3.41983e+06
3.32146e+06
3.22452e+06
3.12902e+06
3.03494e+06
2.94229e+06
2.85108e+06
2.76127e+06
2.67288e+06
2.58587e+06
2.50021e+06
2.4158e+06
2.33252e+06
2.25008e+06
2.16794e+06
2.08499e+06
1.9988e+06
3.71426e+06
3.62027e+06
3.51958e+06
3.41982e+06
3.32146e+06
3.22452e+06
3.12902e+06
3.03494e+06
2.94229e+06
2.85108e+06
2.76128e+06
2.67289e+06
2.58588e+06
2.50022e+06
2.41584e+06
2.33258e+06
2.2502e+06
2.1682e+06
2.08559e+06
2.00058e+06
3.71429e+06
3.62026e+06
3.51957e+06
3.41982e+06
3.32145e+06
3.22452e+06
3.12901e+06
3.03494e+06
2.94229e+06
2.85108e+06
2.76128e+06
2.67289e+06
2.58589e+06
2.50025e+06
2.41588e+06
2.33266e+06
2.25035e+06
2.16849e+06
2.08626e+06
2.00238e+06
3.71431e+06
3.62025e+06
3.51956e+06
3.41982e+06
3.32145e+06
3.22452e+06
3.12901e+06
3.03494e+06
2.9423e+06
2.85108e+06
2.76128e+06
2.6729e+06
2.58591e+06
2.50027e+06
2.41592e+06
2.33274e+06
2.2505e+06
2.16882e+06
2.08698e+06
2.0042e+06
3.71434e+06
3.62024e+06
3.51955e+06
3.41982e+06
3.32145e+06
3.22452e+06
3.12901e+06
3.03494e+06
2.9423e+06
2.85108e+06
2.76129e+06
2.67291e+06
2.58592e+06
2.50029e+06
2.41597e+06
2.33283e+06
2.25068e+06
2.16917e+06
2.08773e+06
2.00599e+06
3.71436e+06
3.62024e+06
3.51954e+06
3.41981e+06
3.32145e+06
3.22452e+06
3.12901e+06
3.03494e+06
2.9423e+06
2.85108e+06
2.76129e+06
2.67291e+06
2.58593e+06
2.50032e+06
2.41602e+06
2.33293e+06
2.25087e+06
2.16954e+06
2.08852e+06
2.00775e+06
3.71437e+06
3.62024e+06
3.51953e+06
3.41981e+06
3.32145e+06
3.22452e+06
3.12901e+06
3.03494e+06
2.9423e+06
2.85108e+06
2.7613e+06
2.67292e+06
2.58595e+06
2.50035e+06
2.41608e+06
2.33303e+06
2.25107e+06
2.16993e+06
2.08933e+06
2.00947e+06
3.71439e+06
3.62024e+06
3.51953e+06
3.4198e+06
3.32145e+06
3.22452e+06
3.12901e+06
3.03494e+06
2.9423e+06
2.85109e+06
2.7613e+06
2.67293e+06
2.58597e+06
2.50038e+06
2.41613e+06
2.33314e+06
2.25128e+06
2.17034e+06
2.09015e+06
2.01114e+06
3.7144e+06
3.62023e+06
3.51952e+06
3.4198e+06
3.32146e+06
3.22452e+06
3.12901e+06
3.03494e+06
2.9423e+06
2.85109e+06
2.76131e+06
2.67294e+06
2.58599e+06
2.50042e+06
2.4162e+06
2.33326e+06
2.25149e+06
2.17076e+06
2.09097e+06
2.01275e+06
3.71441e+06
3.62023e+06
3.51951e+06
3.4198e+06
3.32146e+06
3.22452e+06
3.12901e+06
3.03494e+06
2.9423e+06
2.85109e+06
2.76131e+06
2.67295e+06
2.58601e+06
2.50045e+06
2.41626e+06
2.33338e+06
2.25172e+06
2.17119e+06
2.0918e+06
2.0143e+06
3.71442e+06
3.62023e+06
3.51951e+06
3.41979e+06
3.32146e+06
3.22452e+06
3.12901e+06
3.03494e+06
2.9423e+06
2.85109e+06
2.76132e+06
2.67296e+06
2.58602e+06
2.50049e+06
2.41633e+06
2.3335e+06
2.25195e+06
2.17162e+06
2.09261e+06
2.01579e+06
3.71443e+06
3.62023e+06
3.51951e+06
3.41979e+06
3.32146e+06
3.22452e+06
3.12901e+06
3.03494e+06
2.9423e+06
2.8511e+06
2.76132e+06
2.67297e+06
2.58604e+06
2.50053e+06
2.41639e+06
2.33363e+06
2.25218e+06
2.17205e+06
2.09342e+06
2.01722e+06
3.71443e+06
3.62023e+06
3.5195e+06
3.41979e+06
3.32146e+06
3.22452e+06
3.12901e+06
3.03494e+06
2.9423e+06
2.8511e+06
2.76133e+06
2.67299e+06
2.58607e+06
2.50056e+06
2.41646e+06
2.33375e+06
2.25242e+06
2.17249e+06
2.09421e+06
2.01858e+06
3.71444e+06
3.62023e+06
3.5195e+06
3.41979e+06
3.32146e+06
3.22452e+06
3.12901e+06
3.03494e+06
2.9423e+06
2.8511e+06
2.76134e+06
2.673e+06
2.58609e+06
2.5006e+06
2.41653e+06
2.33388e+06
2.25265e+06
2.17292e+06
2.09499e+06
2.01988e+06
3.71444e+06
3.62023e+06
3.5195e+06
3.41979e+06
3.32146e+06
3.22452e+06
3.12902e+06
3.03494e+06
2.94231e+06
2.85111e+06
2.76134e+06
2.67301e+06
2.58611e+06
2.50064e+06
2.4166e+06
2.33401e+06
2.25289e+06
2.17334e+06
2.09574e+06
2.02111e+06
3.71444e+06
3.62023e+06
3.5195e+06
3.41979e+06
3.32146e+06
3.22453e+06
3.12902e+06
3.03494e+06
2.94231e+06
2.85111e+06
2.76135e+06
2.67302e+06
2.58613e+06
2.50068e+06
2.41667e+06
2.33414e+06
2.25312e+06
2.17376e+06
2.09646e+06
2.02228e+06
3.71444e+06
3.62023e+06
3.5195e+06
3.41979e+06
3.32146e+06
3.22453e+06
3.12902e+06
3.03494e+06
2.94231e+06
2.85111e+06
2.76135e+06
2.67303e+06
2.58615e+06
2.50072e+06
2.41674e+06
2.33426e+06
2.25335e+06
2.17417e+06
2.09716e+06
2.02338e+06
3.71443e+06
3.62023e+06
3.5195e+06
3.41979e+06
3.32146e+06
3.22453e+06
3.12902e+06
3.03494e+06
2.94231e+06
2.85112e+06
2.76136e+06
2.67304e+06
2.58617e+06
2.50075e+06
2.41681e+06
2.33439e+06
2.25357e+06
2.17456e+06
2.09783e+06
2.02442e+06
3.71443e+06
3.62023e+06
3.51951e+06
3.41979e+06
3.32146e+06
3.22453e+06
3.12902e+06
3.03495e+06
2.94231e+06
2.85112e+06
2.76137e+06
2.67305e+06
2.58619e+06
2.50079e+06
2.41688e+06
2.33451e+06
2.25379e+06
2.17494e+06
2.09847e+06
2.0254e+06
3.71442e+06
3.62023e+06
3.51951e+06
3.4198e+06
3.32146e+06
3.22453e+06
3.12902e+06
3.03495e+06
2.94232e+06
2.85112e+06
2.76137e+06
2.67306e+06
2.58621e+06
2.50083e+06
2.41695e+06
2.33463e+06
2.254e+06
2.17531e+06
2.09908e+06
2.02631e+06
3.71441e+06
3.62023e+06
3.51952e+06
3.4198e+06
3.32146e+06
3.22452e+06
3.12902e+06
3.03495e+06
2.94232e+06
2.85113e+06
2.76138e+06
2.67308e+06
2.58623e+06
2.50086e+06
2.41701e+06
2.33474e+06
2.2542e+06
2.17566e+06
2.09965e+06
2.02717e+06
3.7144e+06
3.62023e+06
3.51952e+06
3.4198e+06
3.32146e+06
3.22452e+06
3.12902e+06
3.03495e+06
2.94232e+06
2.85113e+06
2.76138e+06
2.67309e+06
2.58625e+06
2.5009e+06
2.41707e+06
2.33485e+06
2.25439e+06
2.17599e+06
2.10019e+06
2.02796e+06
3.71439e+06
3.62024e+06
3.51953e+06
3.41981e+06
3.32146e+06
3.22452e+06
3.12902e+06
3.03495e+06
2.94232e+06
2.85113e+06
2.76139e+06
2.6731e+06
2.58627e+06
2.50093e+06
2.41713e+06
2.33496e+06
2.25458e+06
2.1763e+06
2.10069e+06
2.0287e+06
3.71437e+06
3.62024e+06
3.51954e+06
3.41981e+06
3.32146e+06
3.22452e+06
3.12902e+06
3.03495e+06
2.94233e+06
2.85114e+06
2.76139e+06
2.6731e+06
2.58628e+06
2.50096e+06
2.41718e+06
2.33505e+06
2.25475e+06
2.17659e+06
2.10116e+06
2.02937e+06
3.71436e+06
3.62024e+06
3.51954e+06
3.41981e+06
3.32146e+06
3.22452e+06
3.12902e+06
3.03496e+06
2.94233e+06
2.85114e+06
2.7614e+06
2.67311e+06
2.5863e+06
2.50099e+06
2.41724e+06
2.33515e+06
2.25491e+06
2.17686e+06
2.10158e+06
2.02999e+06
3.71434e+06
3.62025e+06
3.51955e+06
3.41982e+06
3.32146e+06
3.22452e+06
3.12902e+06
3.03496e+06
2.94233e+06
2.85114e+06
2.7614e+06
2.67312e+06
2.58631e+06
2.50101e+06
2.41728e+06
2.33523e+06
2.25505e+06
2.1771e+06
2.10197e+06
2.03055e+06
3.71431e+06
3.62025e+06
3.51956e+06
3.41982e+06
3.32146e+06
3.22453e+06
3.12903e+06
3.03496e+06
2.94233e+06
2.85115e+06
2.76141e+06
2.67313e+06
2.58633e+06
2.50104e+06
2.41733e+06
2.33531e+06
2.25519e+06
2.17733e+06
2.10233e+06
2.03106e+06
3.71429e+06
3.62026e+06
3.51957e+06
3.41982e+06
3.32146e+06
3.22453e+06
3.12903e+06
3.03496e+06
2.94233e+06
2.85115e+06
2.76141e+06
2.67314e+06
2.58634e+06
2.50106e+06
2.41737e+06
2.33538e+06
2.25531e+06
2.17753e+06
2.10264e+06
2.0315e+06
3.71426e+06
3.62027e+06
3.51958e+06
3.41983e+06
3.32146e+06
3.22453e+06
3.12903e+06
3.03496e+06
2.94234e+06
2.85115e+06
2.76142e+06
2.67314e+06
2.58635e+06
2.50108e+06
2.4174e+06
2.33544e+06
2.25542e+06
2.17771e+06
2.10291e+06
2.03189e+06
3.71423e+06
3.62028e+06
3.5196e+06
3.41983e+06
3.32146e+06
3.22453e+06
3.12903e+06
3.03497e+06
2.94234e+06
2.85115e+06
2.76142e+06
2.67315e+06
2.58636e+06
2.5011e+06
2.41743e+06
2.33549e+06
2.25551e+06
2.17786e+06
2.10315e+06
2.03222e+06
3.7142e+06
3.62029e+06
3.51961e+06
3.41983e+06
3.32146e+06
3.22453e+06
3.12903e+06
3.03497e+06
2.94234e+06
2.85116e+06
2.76142e+06
2.67315e+06
2.58637e+06
2.50111e+06
2.41746e+06
2.33554e+06
2.25558e+06
2.17799e+06
2.10335e+06
2.0325e+06
3.71417e+06
3.62031e+06
3.51962e+06
3.41984e+06
3.32146e+06
3.22453e+06
3.12903e+06
3.03497e+06
2.94234e+06
2.85116e+06
2.76142e+06
2.67316e+06
2.58637e+06
2.50112e+06
2.41748e+06
2.33557e+06
2.25565e+06
2.17809e+06
2.10351e+06
2.03272e+06
3.71413e+06
3.62032e+06
3.51963e+06
3.41984e+06
3.32147e+06
3.22453e+06
3.12903e+06
3.03497e+06
2.94234e+06
2.85116e+06
2.76143e+06
2.67316e+06
2.58638e+06
2.50113e+06
2.41749e+06
2.3356e+06
2.25569e+06
2.17817e+06
2.10363e+06
2.03289e+06
3.71407e+06
3.62033e+06
3.51963e+06
3.41984e+06
3.32147e+06
3.22453e+06
3.12903e+06
3.03497e+06
2.94234e+06
2.85116e+06
2.76143e+06
2.67316e+06
2.58638e+06
2.50114e+06
2.4175e+06
2.33562e+06
2.25573e+06
2.17822e+06
2.1037e+06
2.033e+06
3.71399e+06
3.62033e+06
3.51964e+06
3.41984e+06
3.32147e+06
3.22453e+06
3.12903e+06
3.03497e+06
2.94234e+06
2.85116e+06
2.76143e+06
2.67316e+06
2.58638e+06
2.50114e+06
2.41751e+06
2.33563e+06
2.25574e+06
2.17824e+06
2.10374e+06
2.03305e+06
1.90761e+06
1.88714e+06
1.8713e+06
1.85742e+06
1.84441e+06
1.83198e+06
1.81995e+06
1.80822e+06
1.79674e+06
1.78545e+06
1.77431e+06
1.76331e+06
1.75242e+06
1.7416e+06
1.73084e+06
1.72014e+06
1.70948e+06
1.69886e+06
1.68828e+06
1.67775e+06
1.66725e+06
1.6568e+06
1.64637e+06
1.63598e+06
1.62562e+06
1.61529e+06
1.60498e+06
1.59471e+06
1.58447e+06
1.57426e+06
1.56409e+06
1.55396e+06
1.54388e+06
1.53382e+06
1.52381e+06
1.51384e+06
1.5039e+06
1.49401e+06
1.48415e+06
1.47433e+06
1.46455e+06
1.45481e+06
1.44511e+06
1.43544e+06
1.42581e+06
1.41621e+06
1.40664e+06
1.39711e+06
1.38762e+06
1.37817e+06
1.36875e+06
1.35937e+06
1.35002e+06
1.34071e+06
1.33143e+06
1.32219e+06
1.31298e+06
1.3038e+06
1.29466e+06
1.28555e+06
1.27648e+06
1.26744e+06
1.25843e+06
1.24945e+06
1.24051e+06
1.2316e+06
1.22271e+06
1.21386e+06
1.20504e+06
1.19625e+06
1.18749e+06
1.17877e+06
1.17008e+06
1.16143e+06
1.15282e+06
1.14424e+06
1.13569e+06
1.12718e+06
1.11869e+06
1.11023e+06
1.10179e+06
1.09338e+06
1.08499e+06
1.07662e+06
1.06828e+06
1.05997e+06
1.05169e+06
1.04344e+06
1.03521e+06
1.02701e+06
1.01884e+06
1.01069e+06
1.00258e+06
994496
986446
978430
970446
962497
954585
946711
938874
931076
923315
915590
907901
900246
892626
885040
877488
869969
862482
855028
847605
840215
832857
825531
818237
810977
803750
796556
789395
782266
775171
768108
761078
754081
747115
740184
733284
726417
719583
712780
706010
699272
692565
685890
679247
672636
666056
659508
652991
646507
640055
633636
627249
620895
614574
608286
602029
595805
589613
583453
577323
571226
565159
559124
553122
547151
541213
535306
529430
523585
517771
511988
506235
500512
494821
489161
483532
477936
472369
466837
461334
455867
450426
445024
439642
434305
428977
423700
418422
413200
407973
402799
397616
392481
387336
382230
377106
372011
366890
361777
356621
351441
346183
340841
335340
329628
323431
316655
1.91731e+06
1.89501e+06
1.8775e+06
1.86248e+06
1.84871e+06
1.83568e+06
1.82318e+06
1.81106e+06
1.79925e+06
1.78767e+06
1.7763e+06
1.76509e+06
1.754e+06
1.74302e+06
1.73211e+06
1.72127e+06
1.71049e+06
1.69977e+06
1.6891e+06
1.67847e+06
1.6679e+06
1.65738e+06
1.64689e+06
1.63645e+06
1.62603e+06
1.61566e+06
1.60532e+06
1.59501e+06
1.58474e+06
1.57451e+06
1.56432e+06
1.55416e+06
1.54405e+06
1.53398e+06
1.52395e+06
1.51396e+06
1.50401e+06
1.49411e+06
1.48424e+06
1.47441e+06
1.46462e+06
1.45487e+06
1.44517e+06
1.4355e+06
1.42586e+06
1.41626e+06
1.40669e+06
1.39716e+06
1.38767e+06
1.37821e+06
1.3688e+06
1.35941e+06
1.35006e+06
1.34075e+06
1.33147e+06
1.32223e+06
1.31302e+06
1.30385e+06
1.29471e+06
1.2856e+06
1.27653e+06
1.26749e+06
1.25848e+06
1.24951e+06
1.24057e+06
1.23165e+06
1.22277e+06
1.21392e+06
1.2051e+06
1.19631e+06
1.18755e+06
1.17883e+06
1.17014e+06
1.16149e+06
1.15288e+06
1.1443e+06
1.13576e+06
1.12724e+06
1.11875e+06
1.11029e+06
1.10184e+06
1.09342e+06
1.08503e+06
1.07666e+06
1.06832e+06
1.06e+06
1.05172e+06
1.04346e+06
1.03523e+06
1.02703e+06
1.01885e+06
1.01071e+06
1.00259e+06
994508
986457
978439
970454
962503
954589
946713
938875
931076
923315
915589
907899
900244
892624
885038
877486
869967
862480
855026
847604
840214
832857
825531
818239
810979
803752
796558
789397
782269
775174
768111
761081
754084
747118
740186
733287
726420
719586
712783
706013
699274
692567
685891
679247
672634
666053
659503
652984
646498
640045
633624
627235
620880
614557
608268
602009
595784
589589
583426
577295
571194
565124
559086
553079
547105
541161
535249
529367
523516
517694
511903
506141
500410
494709
489039
483399
477791
472211
466666
461146
455663
450201
444780
439373
434012
428654
423347
418035
412775
407507
402286
397055
391863
386657
381481
376282
371099
365881
360655
355371
350038
344599
339033
333245
327133
320360
312356
1.92497e+06
1.90192e+06
1.88333e+06
1.86737e+06
1.85289e+06
1.83932e+06
1.82636e+06
1.81387e+06
1.80174e+06
1.78989e+06
1.77827e+06
1.76685e+06
1.75557e+06
1.74442e+06
1.73337e+06
1.7224e+06
1.71151e+06
1.70068e+06
1.68991e+06
1.6792e+06
1.66855e+06
1.65796e+06
1.64741e+06
1.63691e+06
1.62645e+06
1.61603e+06
1.60565e+06
1.59531e+06
1.58501e+06
1.57476e+06
1.56454e+06
1.55436e+06
1.54423e+06
1.53414e+06
1.52409e+06
1.51409e+06
1.50413e+06
1.49421e+06
1.48433e+06
1.47449e+06
1.46469e+06
1.45494e+06
1.44523e+06
1.43555e+06
1.42592e+06
1.41631e+06
1.40675e+06
1.39722e+06
1.38772e+06
1.37826e+06
1.36884e+06
1.35946e+06
1.35011e+06
1.34079e+06
1.33152e+06
1.32227e+06
1.31307e+06
1.30389e+06
1.29475e+06
1.28565e+06
1.27658e+06
1.26754e+06
1.25853e+06
1.24956e+06
1.24062e+06
1.23171e+06
1.22282e+06
1.21397e+06
1.20515e+06
1.19636e+06
1.18761e+06
1.17888e+06
1.1702e+06
1.16155e+06
1.15294e+06
1.14436e+06
1.13581e+06
1.12729e+06
1.1188e+06
1.11033e+06
1.10188e+06
1.09346e+06
1.08506e+06
1.07669e+06
1.06834e+06
1.06002e+06
1.05173e+06
1.04347e+06
1.03524e+06
1.02704e+06
1.01886e+06
1.01072e+06
1.0026e+06
994514
986461
978441
970455
962503
954588
946711
938872
931072
923310
915584
907894
900239
892618
885032
877480
869961
862474
855021
847599
840210
832853
825528
818236
810977
803751
796558
789397
782269
775174
768112
761082
754084
747119
740187
733288
726420
719586
712783
706012
699273
692565
685889
679244
672630
666047
659495
652976
646488
640033
633610
627220
620863
614539
608247
601987
595760
589563
583399
577264
571161
565088
559046
553036
547057
541109
535191
529303
523445
517616
511818
506047
500307
494596
488916
483265
477646
472052
466493
460956
455458
449975
444535
439103
433718
428332
422993
417649
412350
407044
401776
396497
391249
385984
380739
375467
370197
364886
359549
354142
348664
343054
337281
331236
324787
317588
308938
1.93126e+06
1.90805e+06
1.88876e+06
1.87205e+06
1.85695e+06
1.84287e+06
1.82949e+06
1.81664e+06
1.80419e+06
1.79208e+06
1.78023e+06
1.76859e+06
1.75713e+06
1.74582e+06
1.73462e+06
1.72352e+06
1.71251e+06
1.70157e+06
1.69071e+06
1.67992e+06
1.66919e+06
1.65853e+06
1.64792e+06
1.63737e+06
1.62686e+06
1.6164e+06
1.60598e+06
1.59561e+06
1.58528e+06
1.575e+06
1.56476e+06
1.55456e+06
1.54441e+06
1.5343e+06
1.52423e+06
1.51421e+06
1.50424e+06
1.49431e+06
1.48442e+06
1.47457e+06
1.46477e+06
1.45501e+06
1.44529e+06
1.43561e+06
1.42597e+06
1.41637e+06
1.4068e+06
1.39727e+06
1.38778e+06
1.37832e+06
1.36889e+06
1.3595e+06
1.35015e+06
1.34084e+06
1.33156e+06
1.32231e+06
1.31311e+06
1.30393e+06
1.2948e+06
1.28569e+06
1.27662e+06
1.26759e+06
1.25858e+06
1.24961e+06
1.24067e+06
1.23175e+06
1.22287e+06
1.21402e+06
1.2052e+06
1.19641e+06
1.18766e+06
1.17893e+06
1.17025e+06
1.1616e+06
1.15299e+06
1.14441e+06
1.13586e+06
1.12734e+06
1.11884e+06
1.11037e+06
1.10192e+06
1.09349e+06
1.08508e+06
1.07671e+06
1.06836e+06
1.06003e+06
1.05174e+06
1.04348e+06
1.03524e+06
1.02704e+06
1.01886e+06
1.01072e+06
1.0026e+06
994513
986459
978438
970450
962496
954581
946703
938864
931063
923301
915575
907885
900229
892609
885023
877470
869951
862464
855011
847590
840201
832845
825521
818230
810972
803747
796554
789394
782267
775172
768110
761080
754083
747118
740185
733287
726418
719584
712780
706009
699269
692560
685883
679237
672622
666038
659485
652964
646475
640018
633594
627202
620844
614518
608225
601963
595734
589536
583369
577233
571127
565050
559005
552991
547008
541055
535132
529238
523373
517537
511731
505952
500203
494482
488792
483130
477499
471892
466321
460767
455252
449750
444289
438834
433423
428011
422640
417266
411928
406584
401269
395944
390640
385318
380004
374662
369307
363907
358463
352940
347322
341555
335593
329322
322601
315101
306235
1.93661e+06
1.91349e+06
1.89378e+06
1.87649e+06
1.86086e+06
1.84631e+06
1.83254e+06
1.81935e+06
1.80661e+06
1.79423e+06
1.78215e+06
1.77031e+06
1.75867e+06
1.74719e+06
1.73584e+06
1.72462e+06
1.71349e+06
1.70246e+06
1.69151e+06
1.68063e+06
1.66983e+06
1.6591e+06
1.64843e+06
1.63782e+06
1.62727e+06
1.61676e+06
1.60631e+06
1.59591e+06
1.58555e+06
1.57524e+06
1.56498e+06
1.55476e+06
1.54458e+06
1.53446e+06
1.52438e+06
1.51434e+06
1.50435e+06
1.49441e+06
1.48451e+06
1.47466e+06
1.46485e+06
1.45508e+06
1.44536e+06
1.43568e+06
1.42604e+06
1.41643e+06
1.40686e+06
1.39733e+06
1.38783e+06
1.37837e+06
1.36894e+06
1.35955e+06
1.3502e+06
1.34088e+06
1.3316e+06
1.32236e+06
1.31315e+06
1.30398e+06
1.29484e+06
1.28574e+06
1.27667e+06
1.26763e+06
1.25863e+06
1.24965e+06
1.24071e+06
1.2318e+06
1.22292e+06
1.21407e+06
1.20525e+06
1.19646e+06
1.1877e+06
1.17898e+06
1.17029e+06
1.16164e+06
1.15303e+06
1.14445e+06
1.1359e+06
1.12738e+06
1.11888e+06
1.1104e+06
1.10194e+06
1.09351e+06
1.0851e+06
1.07672e+06
1.06836e+06
1.06004e+06
1.05174e+06
1.04348e+06
1.03524e+06
1.02703e+06
1.01886e+06
1.01071e+06
1.00259e+06
994505
986450
978428
970439
962484
954568
946690
938851
931050
923287
915562
907872
900216
892596
885010
877456
869937
862450
854997
847576
840188
832833
825510
818220
810963
803739
796547
789388
782261
775167
768106
761076
754078
747114
740181
733282
726414
719579
712774
706002
699261
692552
685874
679228
672612
666027
659472
652950
646460
640001
633575
627182
620822
614495
608200
601937
595707
589507
583338
577199
571090
565011
558963
552945
546958
541000
535071
529171
523301
517457
511643
505856
500099
494368
488668
482994
477353
471732
466147
460577
455046
449525
444043
438566
433129
427691
422288
416884
411507
406127
400766
395396
390036
384658
379278
373868
368431
362945
357398
351766
346018
340106
333975
327511
320579
312892
304017
1.94125e+06
1.91836e+06
1.8984e+06
1.88069e+06
1.8646e+06
1.84964e+06
1.83551e+06
1.82199e+06
1.80897e+06
1.79634e+06
1.78404e+06
1.772e+06
1.76018e+06
1.74854e+06
1.73705e+06
1.7257e+06
1.71446e+06
1.70333e+06
1.69229e+06
1.68133e+06
1.67046e+06
1.65966e+06
1.64894e+06
1.63827e+06
1.62767e+06
1.61713e+06
1.60664e+06
1.5962e+06
1.58582e+06
1.57548e+06
1.56519e+06
1.55495e+06
1.54476e+06
1.53462e+06
1.52452e+06
1.51447e+06
1.50447e+06
1.49451e+06
1.48461e+06
1.47475e+06
1.46493e+06
1.45516e+06
1.44543e+06
1.43575e+06
1.4261e+06
1.41649e+06
1.40692e+06
1.39739e+06
1.38789e+06
1.37842e+06
1.36899e+06
1.3596e+06
1.35024e+06
1.34092e+06
1.33164e+06
1.32239e+06
1.31319e+06
1.30401e+06
1.29488e+06
1.28578e+06
1.27671e+06
1.26767e+06
1.25867e+06
1.24969e+06
1.24075e+06
1.23184e+06
1.22295e+06
1.2141e+06
1.20528e+06
1.19649e+06
1.18774e+06
1.17902e+06
1.17033e+06
1.16168e+06
1.15307e+06
1.14448e+06
1.13593e+06
1.1274e+06
1.1189e+06
1.11042e+06
1.10196e+06
1.09352e+06
1.08511e+06
1.07672e+06
1.06836e+06
1.06003e+06
1.05173e+06
1.04347e+06
1.03523e+06
1.02702e+06
1.01884e+06
1.01069e+06
1.00258e+06
994491
986435
978412
970422
962467
954551
946673
938833
931032
923270
915544
907855
900200
892579
884993
877439
869919
862433
854979
847559
840171
832817
825495
818207
810950
803727
796537
789379
782253
775159
768098
761069
754071
747107
740174
733275
726406
719570
712765
705992
699250
692541
685862
679215
672597
666012
659457
652933
646441
639982
633554
627159
620798
614469
608173
601909
595677
589475
583304
577163
571052
564970
558919
552898
546906
540943
535009
529104
523227
517377
511555
505760
499994
494254
488544
482859
477206
471572
465973
460388
454839
449300
443797
438298
432835
427372
421939
416504
411090
405673
400267
394852
389439
384007
378561
373085
367568
362001
356357
350621
344753
338709
332430
325805
318717
310928
302136
1.94534e+06
1.92273e+06
1.90266e+06
1.88463e+06
1.86817e+06
1.85285e+06
1.83838e+06
1.82457e+06
1.81128e+06
1.79841e+06
1.78589e+06
1.77366e+06
1.76166e+06
1.74987e+06
1.73825e+06
1.72677e+06
1.71542e+06
1.70419e+06
1.69306e+06
1.68203e+06
1.67108e+06
1.66022e+06
1.64944e+06
1.63872e+06
1.62807e+06
1.61749e+06
1.60696e+06
1.59649e+06
1.58608e+06
1.57572e+06
1.56541e+06
1.55515e+06
1.54494e+06
1.53478e+06
1.52466e+06
1.5146e+06
1.50459e+06
1.49462e+06
1.48471e+06
1.47484e+06
1.46502e+06
1.45524e+06
1.44551e+06
1.43582e+06
1.42617e+06
1.41656e+06
1.40698e+06
1.39744e+06
1.38794e+06
1.37847e+06
1.36904e+06
1.35964e+06
1.35029e+06
1.34096e+06
1.33168e+06
1.32243e+06
1.31322e+06
1.30405e+06
1.29491e+06
1.28581e+06
1.27674e+06
1.26771e+06
1.2587e+06
1.24973e+06
1.24078e+06
1.23187e+06
1.22299e+06
1.21414e+06
1.20531e+06
1.19652e+06
1.18777e+06
1.17904e+06
1.17036e+06
1.16171e+06
1.15309e+06
1.14451e+06
1.13595e+06
1.12742e+06
1.11892e+06
1.11043e+06
1.10196e+06
1.09352e+06
1.0851e+06
1.07671e+06
1.06835e+06
1.06002e+06
1.05172e+06
1.04345e+06
1.03521e+06
1.027e+06
1.01882e+06
1.01067e+06
1.00256e+06
994470
986414
978391
970400
962445
954528
946651
938812
931011
923248
915523
907834
900180
892560
884973
877419
869899
862412
854958
847538
840151
832797
825476
818189
810933
803712
796522
789365
782240
775147
768086
761058
754060
747096
740163
733264
726394
719558
712752
705979
699236
692526
685846
679198
672580
665994
659438
652914
646420
639960
633530
627135
620772
614442
608145
601879
595645
589441
583268
577125
571011
564927
558873
552848
546852
540885
534946
529035
523152
517296
511467
505664
499890
494140
488421
482724
477059
471412
465799
460199
454633
449076
443552
438033
432543
427056
421591
416127
410677
405223
399773
394315
388849
383365
377856
372314
366723
361076
355342
349509
343528
337366
330960
324203
317001
309174
300500
1.94899e+06
1.92669e+06
1.90658e+06
1.88833e+06
1.87157e+06
1.85594e+06
1.84117e+06
1.82708e+06
1.81353e+06
1.80043e+06
1.78771e+06
1.77529e+06
1.76313e+06
1.75118e+06
1.73942e+06
1.72782e+06
1.71637e+06
1.70504e+06
1.69383e+06
1.68271e+06
1.6717e+06
1.66077e+06
1.64993e+06
1.63917e+06
1.62847e+06
1.61785e+06
1.60729e+06
1.59678e+06
1.58634e+06
1.57595e+06
1.56562e+06
1.55534e+06
1.54512e+06
1.53494e+06
1.52481e+06
1.51474e+06
1.50471e+06
1.49473e+06
1.48481e+06
1.47494e+06
1.46511e+06
1.45532e+06
1.44559e+06
1.43589e+06
1.42624e+06
1.41662e+06
1.40705e+06
1.3975e+06
1.388e+06
1.37853e+06
1.36909e+06
1.35969e+06
1.35033e+06
1.341e+06
1.33172e+06
1.32247e+06
1.31326e+06
1.30408e+06
1.29495e+06
1.28584e+06
1.27677e+06
1.26774e+06
1.25873e+06
1.24975e+06
1.24081e+06
1.23189e+06
1.22301e+06
1.21416e+06
1.20534e+06
1.19655e+06
1.18779e+06
1.17906e+06
1.17038e+06
1.16172e+06
1.15311e+06
1.14452e+06
1.13597e+06
1.12743e+06
1.11892e+06
1.11043e+06
1.10196e+06
1.09351e+06
1.08509e+06
1.07669e+06
1.06833e+06
1.06e+06
1.05169e+06
1.04342e+06
1.03518e+06
1.02697e+06
1.01879e+06
1.01065e+06
1.00253e+06
994443
986387
978364
970373
962418
954502
946625
938787
930986
923223
915498
907810
900157
892537
884950
877396
869875
862388
854934
847514
840127
832774
825454
818167
810913
803692
796503
789347
782223
775131
768071
761043
754045
747082
740148
733248
726379
719543
712736
705963
699218
692508
685827
679179
672560
665973
659416
652892
646397
639935
633504
627108
620744
614413
608114
601847
595611
589406
583230
577084
570969
564882
558825
552796
546797
540825
534881
528965
523077
517214
511379
505568
499786
494027
488297
482589
476913
471253
465625
460011
454428
448854
443309
437769
432253
426742
421247
415753
410267
404777
399286
393784
388268
382733
377164
371559
365896
360173
354353
348429
342348
336080
329564
322705
315420
307596
299045
1.95229e+06
1.9303e+06
1.91021e+06
1.8918e+06
1.8748e+06
1.85889e+06
1.84385e+06
1.8295e+06
1.81572e+06
1.80241e+06
1.78949e+06
1.77689e+06
1.76456e+06
1.75247e+06
1.74058e+06
1.72887e+06
1.71731e+06
1.70588e+06
1.69458e+06
1.6834e+06
1.67231e+06
1.66132e+06
1.65043e+06
1.63961e+06
1.62887e+06
1.61821e+06
1.60761e+06
1.59708e+06
1.5866e+06
1.57619e+06
1.56584e+06
1.55554e+06
1.54529e+06
1.5351e+06
1.52496e+06
1.51487e+06
1.50484e+06
1.49485e+06
1.48492e+06
1.47504e+06
1.4652e+06
1.45541e+06
1.44567e+06
1.43597e+06
1.42631e+06
1.41669e+06
1.40711e+06
1.39756e+06
1.38805e+06
1.37858e+06
1.36914e+06
1.35973e+06
1.35037e+06
1.34104e+06
1.33175e+06
1.3225e+06
1.31329e+06
1.30411e+06
1.29497e+06
1.28587e+06
1.2768e+06
1.26776e+06
1.25875e+06
1.24978e+06
1.24083e+06
1.23191e+06
1.22303e+06
1.21418e+06
1.20535e+06
1.19656e+06
1.1878e+06
1.17908e+06
1.17039e+06
1.16173e+06
1.15311e+06
1.14453e+06
1.13597e+06
1.12743e+06
1.11892e+06
1.11043e+06
1.10195e+06
1.0935e+06
1.08507e+06
1.07667e+06
1.0683e+06
1.05996e+06
1.05166e+06
1.04339e+06
1.03515e+06
1.02694e+06
1.01876e+06
1.01061e+06
1.00249e+06
994409
986354
978332
970341
962387
954472
946596
938758
930957
923195
915470
907783
900130
892511
884924
877370
869848
862361
854906
847486
840100
832747
825427
818141
810888
803668
796480
789325
782201
775111
768051
761024
754027
747063
740129
733229
726359
719523
712716
705942
699198
692487
685805
679156
672537
665950
659392
652867
646371
639909
633477
627079
620714
614383
608083
601814
595576
589368
583190
577042
570923
564834
558774
552743
546739
540763
534815
528894
523000
517132
511290
505473
499682
493914
488174
482456
476767
471095
465453
459825
454224
448633
443067
437507
431966
426431
420906
415383
409862
404338
398805
393262
387697
382112
376485
370820
365088
359294
353394
347385
341213
334853
328242
321308
313966
306159
297727
1.95531e+06
1.9336e+06
1.91357e+06
1.89505e+06
1.87785e+06
1.86171e+06
1.84643e+06
1.83185e+06
1.81785e+06
1.80434e+06
1.79122e+06
1.77845e+06
1.76597e+06
1.75374e+06
1.74173e+06
1.7299e+06
1.71823e+06
1.70672e+06
1.69533e+06
1.68407e+06
1.67292e+06
1.66187e+06
1.65091e+06
1.64005e+06
1.62927e+06
1.61856e+06
1.60793e+06
1.59737e+06
1.58687e+06
1.57643e+06
1.56605e+06
1.55574e+06
1.54547e+06
1.53527e+06
1.52511e+06
1.51501e+06
1.50497e+06
1.49497e+06
1.48503e+06
1.47514e+06
1.4653e+06
1.4555e+06
1.44575e+06
1.43605e+06
1.42638e+06
1.41676e+06
1.40717e+06
1.39762e+06
1.38811e+06
1.37863e+06
1.36918e+06
1.35978e+06
1.35041e+06
1.34108e+06
1.33179e+06
1.32253e+06
1.31332e+06
1.30414e+06
1.295e+06
1.28589e+06
1.27682e+06
1.26778e+06
1.25877e+06
1.24979e+06
1.24084e+06
1.23193e+06
1.22304e+06
1.21419e+06
1.20536e+06
1.19657e+06
1.18781e+06
1.17908e+06
1.17039e+06
1.16173e+06
1.15311e+06
1.14452e+06
1.13596e+06
1.12743e+06
1.11891e+06
1.11041e+06
1.10193e+06
1.09347e+06
1.08504e+06
1.07663e+06
1.06826e+06
1.05993e+06
1.05162e+06
1.04335e+06
1.03511e+06
1.0269e+06
1.01872e+06
1.01057e+06
1.00245e+06
994370
986316
978295
970305
962352
954439
946564
938727
930926
923164
915440
907753
900101
892482
884895
877341
869819
862331
854876
847456
840070
832718
825398
818113
810860
803640
796453
789299
782176
775086
768027
761000
754003
747040
740106
733206
726336
719500
712693
705919
699174
692463
685780
679131
672511
665924
659366
652840
646344
639880
633447
627049
620683
614351
608049
601779
595539
589329
583149
576998
570876
564784
558721
552686
546679
540699
534746
528821
522922
517049
511201
505377
499578
493802
488052
482323
476622
470939
465282
459640
454022
448414
442827
437248
431682
426124
420569
415018
409463
403905
398332
392749
387137
381503
375821
370098
364303
358439
352465
346378
340126
333685
326993
320006
312623
304837
296517
1.95809e+06
1.93664e+06
1.91668e+06
1.89809e+06
1.88074e+06
1.8644e+06
1.84891e+06
1.83412e+06
1.81991e+06
1.80621e+06
1.79292e+06
1.77998e+06
1.76736e+06
1.75499e+06
1.74285e+06
1.73091e+06
1.71914e+06
1.70754e+06
1.69607e+06
1.68474e+06
1.67352e+06
1.66241e+06
1.6514e+06
1.64049e+06
1.62966e+06
1.61892e+06
1.60825e+06
1.59765e+06
1.58713e+06
1.57667e+06
1.56627e+06
1.55593e+06
1.54566e+06
1.53544e+06
1.52527e+06
1.51516e+06
1.5051e+06
1.4951e+06
1.48515e+06
1.47525e+06
1.4654e+06
1.4556e+06
1.44584e+06
1.43613e+06
1.42646e+06
1.41683e+06
1.40724e+06
1.39768e+06
1.38816e+06
1.37867e+06
1.36923e+06
1.35982e+06
1.35045e+06
1.34111e+06
1.33182e+06
1.32256e+06
1.31334e+06
1.30416e+06
1.29502e+06
1.28591e+06
1.27684e+06
1.2678e+06
1.25878e+06
1.2498e+06
1.24085e+06
1.23194e+06
1.22305e+06
1.21419e+06
1.20536e+06
1.19656e+06
1.1878e+06
1.17907e+06
1.17038e+06
1.16172e+06
1.1531e+06
1.14451e+06
1.13595e+06
1.12741e+06
1.11889e+06
1.11039e+06
1.1019e+06
1.09344e+06
1.085e+06
1.07659e+06
1.06822e+06
1.05988e+06
1.05158e+06
1.0433e+06