/*--------------------------------*- C++ -*----------------------------------*\
| =========                 |                                                 |
| \\      /  F ield         | OpenFOAM: The Open Source CFD Toolbox           |
|  \\    /   O peration     | Version:  2.4.0                                 |
|   \\  /    A nd           | Web:      www.OpenFOAM.org                      |
|    \\/     M anipulation  |                                                 |
\*---------------------------------------------------------------------------*/
FoamFile
{
    version     2.0;
    format      ascii;
    class       surfaceScalarField;
    location    "0.159";
    object      phi;
}
// * * * * * * * * * * * * * * * * * * * * * * * * * * * * * * * * * * * * * //

dimensions      [0 3 -1 0 0 0 0];

internalField   nonuniform List<scalar> 
8640
(
1.14658e-05
1.35342e-05
7.17673e-06
4.2891e-06
5.91971e-06
1.25702e-06
5.36604e-06
5.53671e-07
5.10159e-06
2.64453e-07
4.94056e-06
1.61028e-07
4.82698e-06
1.13583e-07
4.76253e-06
6.4446e-08
4.55508e-06
2.07451e-07
-1.44219e-06
5.99727e-06
2.10478e-05
1.74864e-05
1.74597e-05
7.87719e-06
1.55157e-05
3.20102e-06
1.42486e-05
1.82077e-06
1.35085e-05
1.00456e-06
1.30135e-05
6.56043e-07
1.26959e-05
4.31149e-07
1.25654e-05
1.95009e-07
1.22472e-05
5.25607e-07
-1.75401e-06
1.2559e-05
2.56936e-05
1.67928e-05
2.41179e-05
9.45285e-06
2.26155e-05
4.70347e-06
2.12231e-05
3.21311e-06
2.02653e-05
1.96241e-06
1.95349e-05
1.38645e-06
1.9072e-05
8.94045e-07
1.89171e-05
3.49905e-07
1.85081e-05
9.34588e-07
-1.37419e-06
1.81283e-05
2.74442e-05
1.43486e-05
2.77539e-05
9.14314e-06
2.73843e-05
5.07304e-06
2.65001e-05
4.09733e-06
2.5723e-05
2.73954e-06
2.49497e-05
2.15969e-06
2.44346e-05
1.40915e-06
2.43205e-05
4.64028e-07
2.39672e-05
1.28784e-06
-6.30869e-08
2.26561e-05
2.76224e-05
1.17262e-05
2.89157e-05
7.84985e-06
2.96434e-05
4.3454e-06
2.96406e-05
4.10007e-06
2.94865e-05
2.89368e-06
2.89773e-05
2.66889e-06
2.85882e-05
1.79829e-06
2.86115e-05
4.40643e-07
2.84169e-05
1.48245e-06
1.73878e-06
2.66151e-05
2.74354e-05
9.29075e-06
2.89158e-05
6.36949e-06
3.00607e-05
3.20049e-06
3.0648e-05
3.51272e-06
3.12239e-05
2.31778e-06
3.12136e-05
2.67919e-06
3.12105e-05
1.80142e-06
3.14922e-05
1.58979e-07
3.14093e-05
1.56528e-06
3.55217e-06
2.95959e-05
2.73056e-05
6.9852e-06
2.88241e-05
4.85093e-06
2.99014e-05
2.12321e-06
3.06276e-05
2.78648e-06
3.14915e-05
1.45391e-06
3.18222e-05
2.34854e-06
3.22951e-05
1.32851e-06
3.27369e-05
-2.82842e-07
3.2596e-05
1.70618e-06
4.75662e-06
3.13915e-05
2.72733e-05
4.71186e-06
2.89343e-05
3.19001e-06
2.97264e-05
1.33105e-06
3.05228e-05
1.99009e-06
3.12871e-05
6.89573e-07
3.1825e-05
1.81067e-06
3.2546e-05
6.07567e-07
3.27912e-05
-5.28123e-07
3.27034e-05
1.79397e-06
2.93939e-06
3.45207e-05
2.7239e-05
2.47287e-06
2.89308e-05
1.49821e-06
2.96861e-05
5.7572e-07
3.04848e-05
1.19138e-06
3.11308e-05
4.36476e-08
3.18667e-05
1.07475e-06
3.24187e-05
5.55219e-08
3.24951e-05
-6.04482e-07
3.30448e-05
1.2442e-06
4.8962e-07
3.54946e-05
2.71957e-05
2.77205e-07
2.89445e-05
-2.50634e-07
2.96855e-05
-1.65276e-07
3.04308e-05
4.4612e-07
3.11637e-05
-6.89328e-07
3.18807e-05
3.57821e-07
3.22112e-05
-2.75046e-07
3.25117e-05
-9.0499e-07
3.34522e-05
3.03735e-07
-1.10086e-06
3.50427e-05
2.72239e-05
-1.94668e-06
2.89792e-05
-2.00594e-06
2.96291e-05
-8.1522e-07
3.04333e-05
-3.58095e-07
3.12342e-05
-1.49017e-06
3.18057e-05
-2.13664e-07
3.21712e-05
-6.40595e-07
3.26835e-05
-1.41729e-06
3.34852e-05
-4.97904e-07
-1.94054e-06
3.43248e-05
2.7285e-05
-4.23163e-06
2.89534e-05
-3.67435e-06
2.96398e-05
-1.50164e-06
3.05505e-05
-1.26885e-06
3.12339e-05
-2.17351e-06
3.17643e-05
-7.44045e-07
3.22763e-05
-1.1526e-06
3.27568e-05
-1.89781e-06
3.33654e-05
-1.10649e-06
-2.44764e-06
3.38725e-05
2.73479e-05
-6.57952e-06
2.89674e-05
-5.29382e-06
2.97653e-05
-2.29958e-06
3.06415e-05
-2.14508e-06
3.1238e-05
-2.76997e-06
3.18459e-05
-1.35198e-06
3.23575e-05
-1.66415e-06
3.27197e-05
-2.26004e-06
3.32312e-05
-1.618e-06
-2.95678e-06
3.37403e-05
2.74453e-05
-9.02486e-06
2.88862e-05
-6.73469e-06
2.98667e-05
-3.28011e-06
3.07349e-05
-3.01325e-06
3.13168e-05
-3.35183e-06
3.18814e-05
-1.91657e-06
3.22533e-05
-2.03606e-06
3.24168e-05
-2.42357e-06
3.27416e-05
-1.94279e-06
-3.33893e-06
3.31237e-05
2.75543e-05
-1.15792e-05
2.89245e-05
-8.10486e-06
2.99793e-05
-4.33492e-06
3.07551e-05
-3.7891e-06
3.10312e-05
-3.62788e-06
3.12621e-05
-2.14754e-06
3.1262e-05
-2.03594e-06
3.10494e-05
-2.21091e-06
3.10144e-05
-1.90779e-06
-3.25385e-06
3.09293e-05
2.76944e-05
-1.42735e-05
2.88863e-05
-9.2968e-06
2.95987e-05
-5.04725e-06
2.97284e-05
-3.9188e-06
2.9317e-05
-3.21646e-06
2.90147e-05
-1.84533e-06
2.86074e-05
-1.62863e-06
2.81051e-05
-1.7086e-06
2.77765e-05
-1.57913e-06
-2.24409e-06
2.67667e-05
2.74841e-05
-1.67576e-05
2.77198e-05
-9.53256e-06
2.7365e-05
-4.69239e-06
2.65556e-05
-3.10944e-06
2.55839e-05
-2.24474e-06
2.49709e-05
-1.23234e-06
2.43899e-05
-1.04761e-06
2.38121e-05
-1.1308e-06
2.33562e-05
-1.12324e-06
-1.50742e-06
2.26195e-05
2.57142e-05
-1.74718e-05
2.40917e-05
-7.91013e-06
2.26045e-05
-3.20517e-06
2.12558e-05
-1.76072e-06
2.01606e-05
-1.1495e-06
1.9532e-05
-6.03756e-07
1.89858e-05
-5.01459e-07
1.84644e-05
-6.09372e-07
1.79583e-05
-6.17186e-07
-7.6282e-07
1.72137e-05
2.10587e-05
-1.35305e-05
1.74449e-05
-4.29629e-06
1.55042e-05
-1.26451e-06
1.42712e-05
-5.27715e-07
1.34353e-05
-3.13523e-07
1.29893e-05
-1.5777e-07
1.26115e-05
-1.23727e-07
1.22081e-05
-2.05931e-07
1.17801e-05
-1.89162e-07
-2.29894e-07
1.12471e-05
1.14695e-05
7.17321e-06
5.9087e-06
5.38099e-06
5.06746e-06
4.90969e-06
4.78597e-06
4.58003e-06
4.39087e-06
4.16098e-06
6.99799e-06
2.27383e-06
-3.27456e-06
7.88033e-06
1.31241e-06
-2.19475e-06
8.73923e-06
-2.37685e-06
1.51796e-06
9.13859e-06
-3.9017e-06
3.50234e-06
9.4523e-06
-4.42338e-06
4.10967e-06
9.74413e-06
-2.96371e-06
2.67188e-06
9.52689e-06
-1.42196e-06
1.6392e-06
9.77891e-06
-1.44731e-06
1.19529e-06
1.04562e-05
1.24615e-07
-8.01952e-07
1.07799e-05
4.81287e-07
-8.04895e-07
1.19075e-05
5.13316e-07
-1.64091e-06
1.34042e-05
2.95542e-06
-4.45213e-06
1.46941e-05
2.35289e-06
-3.64281e-06
1.59526e-05
3.19191e-06
-4.45043e-06
1.77889e-05
2.62212e-06
-4.4584e-06
1.98355e-05
6.4576e-07
-2.69243e-06
2.14391e-05
-5.07164e-07
-1.09638e-06
2.4085e-05
-4.5177e-06
1.8718e-06
2.62276e-05
-7.05797e-06
4.91533e-06
2.83783e-05
-9.14697e-06
6.99624e-06
3.06441e-05
-1.51836e-05
1.29179e-05
3.22341e-05
-1.92459e-05
1.76559e-05
3.33705e-05
-2.21037e-05
2.09672e-05
3.37852e-05
-2.55738e-05
2.5159e-05
3.33451e-05
-2.5846e-05
2.62861e-05
3.21026e-05
-2.44314e-05
2.56739e-05
3.04151e-05
-2.31212e-05
2.48087e-05
2.85991e-05
-2.11267e-05
2.29427e-05
2.72376e-05
-1.94799e-05
2.08414e-05
2.58538e-05
-1.80915e-05
1.94753e-05
2.3847e-05
-1.77572e-05
1.97639e-05
2.2491e-05
-1.8696e-05
2.0052e-05
2.20267e-05
-2.139e-05
2.18543e-05
2.17038e-05
-2.49986e-05
2.53215e-05
2.14252e-05
-2.68311e-05
2.71097e-05
2.22818e-05
-2.56837e-05
2.4827e-05
2.37147e-05
-2.86699e-05
2.7237e-05
2.49368e-05
-3.28673e-05
3.16453e-05
2.62005e-05
-2.77197e-05
2.6456e-05
2.66185e-05
-1.97713e-05
1.93533e-05
2.61863e-05
-1.30266e-05
1.34588e-05
2.61528e-05
-2.20036e-06
2.23387e-06
2.58865e-05
1.07333e-05
-1.0467e-05
2.53998e-05
1.99122e-05
-1.94254e-05
2.43874e-05
2.93119e-05
-2.82995e-05
2.34263e-05
3.66346e-05
-3.56736e-05
2.16436e-05
4.00174e-05
-3.82348e-05
1.97932e-05
3.59075e-05
-3.4057e-05
1.76618e-05
3.40004e-05
-3.1869e-05
1.56799e-05
3.08839e-05
-2.89021e-05
1.52793e-05
3.98238e-05
-3.94232e-05
1.46171e-05
4.73791e-05
-4.6717e-05
1.50802e-05
4.49802e-05
-4.54433e-05
1.58501e-05
3.24355e-05
-3.32054e-05
1.68559e-05
1.78124e-05
-1.88182e-05
1.70802e-05
4.44642e-06
-4.67071e-06
1.75222e-05
-8.55117e-06
8.10909e-06
1.80552e-05
-1.647e-05
1.59371e-05
1.83095e-05
-2.73813e-05
2.7127e-05
1.84029e-05
-3.83542e-05
3.82608e-05
1.75098e-05
-3.89976e-05
3.98907e-05
1.69898e-05
-4.02681e-05
4.0788e-05
1.75782e-05
-3.21991e-05
3.16107e-05
1.9131e-05
-2.33232e-05
2.17704e-05
2.13416e-05
-3.4938e-05
3.27274e-05
2.24692e-05
-4.21217e-05
4.0994e-05
2.34235e-05
-3.92952e-05
3.8341e-05
2.39587e-05
-2.94095e-05
2.88743e-05
2.34696e-05
-2.19666e-05
2.24556e-05
2.20894e-05
-1.21365e-05
1.35167e-05
2.09822e-05
2.31551e-06
-1.20837e-06
2.02655e-05
1.21537e-05
-1.14369e-05
1.93149e-05
1.91789e-05
-1.82283e-05
1.82614e-05
3.20889e-05
-3.10355e-05
1.75959e-05
4.30919e-05
-4.24263e-05
1.63746e-05
4.40727e-05
-4.28515e-05
1.5743e-05
3.64166e-05
-3.57849e-05
1.4139e-05
3.59631e-05
-3.43591e-05
1.39791e-05
4.03859e-05
-4.0226e-05
1.36222e-05
5.22859e-05
-5.1929e-05
1.47749e-05
4.66417e-05
-4.77944e-05
1.53538e-05
4.61425e-05
-4.67215e-05
1.67424e-05
2.61695e-05
-2.75581e-05
1.6945e-05
2.64906e-05
-2.66932e-05
1.74696e-05
1.57827e-06
-2.10282e-06
1.64304e-05
7.58024e-06
-6.54109e-06
1.7713e-05
-2.03262e-05
1.90437e-05
1.69762e-05
-3.12251e-06
3.85928e-06
1.91425e-05
-2.8547e-05
2.63807e-05
1.83995e-05
-5.85467e-06
6.59768e-06
2.00024e-05
-1.70967e-05
1.54938e-05
1.80919e-05
-6.29476e-06
8.2053e-06
1.95055e-05
-1.87845e-05
1.73709e-05
1.82695e-05
-7.28788e-06
8.52387e-06
1.80282e-05
-6.62579e-06
6.86713e-06
1.59451e-05
3.21541e-06
-1.13234e-06
1.66084e-05
7.24002e-06
-7.90331e-06
1.37949e-05
2.35893e-05
-2.07759e-05
1.45321e-05
2.36443e-05
-2.43815e-05
5.28473e-05
-5.14001e-05
1.30848e-05
1.30435e-05
1.78937e-06
1.32927e-05
1.06322e-06
1.39897e-05
-3.07383e-06
1.4592e-05
-4.50404e-06
1.47043e-05
-4.53571e-06
1.49353e-05
-3.19472e-06
1.48819e-05
-1.36847e-06
1.44817e-05
-1.0472e-06
1.49163e-05
-3.09938e-07
1.54021e-05
-4.48084e-09
1.56062e-05
3.09137e-07
1.68625e-05
1.69917e-06
1.84273e-05
7.88073e-07
1.95486e-05
2.07065e-06
2.15016e-05
6.69129e-07
2.33647e-05
-1.21739e-06
2.49644e-05
-2.10689e-06
2.73504e-05
-6.90367e-06
2.93974e-05
-9.10496e-06
3.16048e-05
-1.13544e-05
3.3684e-05
-1.72628e-05
3.51348e-05
-2.06967e-05
3.57741e-05
-2.2743e-05
3.52688e-05
-2.50684e-05
3.4002e-05
-2.45792e-05
3.25539e-05
-2.29833e-05
3.07127e-05
-2.128e-05
2.86228e-05
-1.90368e-05
2.71391e-05
-1.79962e-05
2.52317e-05
-1.61841e-05
2.30707e-05
-1.55963e-05
2.23218e-05
-1.79471e-05
2.20485e-05
-2.11167e-05
2.13093e-05
-2.42594e-05
2.05971e-05
-2.61188e-05
2.11816e-05
-2.62682e-05
2.24195e-05
-2.99078e-05
2.33025e-05
-3.37503e-05
2.41735e-05
-2.85907e-05
2.43199e-05
-1.99177e-05
2.36783e-05
-1.2385e-05
2.36313e-05
-2.15339e-06
2.36285e-05
1.0736e-05
2.35117e-05
2.0029e-05
2.27577e-05
3.00659e-05
2.20811e-05
3.73113e-05
2.06654e-05
4.14332e-05
1.91045e-05
3.74684e-05
1.73583e-05
3.57466e-05
1.50974e-05
3.31448e-05
1.48546e-05
4.00666e-05
1.53049e-05
4.69288e-05
1.676e-05
4.35251e-05
1.75579e-05
3.16376e-05
1.8069e-05
1.73013e-05
1.85807e-05
3.93472e-06
1.91128e-05
-9.08326e-06
1.9495e-05
-1.68522e-05
1.97625e-05
-2.76488e-05
1.92545e-05
-3.78462e-05
1.83146e-05
-3.80576e-05
1.72914e-05
-3.9245e-05
1.73945e-05
-3.23021e-05
1.88696e-05
-2.47983e-05
2.06764e-05
-3.67448e-05
2.10744e-05
-4.25198e-05
2.13323e-05
-3.95531e-05
2.14114e-05
-2.94886e-05
2.09774e-05
-2.15325e-05
1.97152e-05
-1.08743e-05
1.88487e-05
3.18206e-06
1.82812e-05
1.27212e-05
1.75617e-05
1.98984e-05
1.6886e-05
3.27646e-05
1.63985e-05
4.35794e-05
1.5517e-05
4.49543e-05
1.54531e-05
3.64804e-05
1.42101e-05
3.72061e-05
1.4546e-05
4.005e-05
1.42092e-05
5.26227e-05
1.58406e-05
4.50103e-05
1.67491e-05
4.5234e-05
1.84606e-05
2.4458e-05
1.89145e-05
2.60367e-05
1.99575e-05
5.35267e-07
1.83202e-05
9.21757e-06
1.84207e-05
-2.04268e-05
1.84479e-05
-3.14962e-06
1.95286e-05
-2.96278e-05
1.92281e-05
-5.55415e-06
2.09713e-05
-1.88399e-05
1.88948e-05
-4.21824e-06
2.04419e-05
-2.03317e-05
1.94047e-05
-6.2507e-06
2.11445e-05
-8.36551e-06
1.74166e-05
6.94325e-06
1.95732e-05
5.08343e-06
1.81747e-05
2.49878e-05
1.98584e-05
2.19606e-05
5.38596e-05
1.88461e-05
1.86838e-05
1.23383e-06
1.92319e-05
5.15179e-07
1.95022e-05
-3.34419e-06
2.01384e-05
-5.14018e-06
2.04069e-05
-4.80426e-06
2.0103e-05
-2.89084e-06
2.04021e-05
-1.66751e-06
1.99507e-05
-5.95832e-07
1.96343e-05
6.47498e-09
2.04229e-05
-7.9307e-07
2.04509e-05
2.81146e-07
2.1324e-05
8.25997e-07
2.2694e-05
-5.81848e-07
2.3656e-05
1.10864e-06
2.54899e-05
-1.16481e-06
2.72421e-05
-2.96955e-06
2.89493e-05
-3.8141e-06
3.08577e-05
-8.81209e-06
3.27662e-05
-1.10134e-05
3.48015e-05
-1.33896e-05
3.62172e-05
-1.86785e-05
3.69595e-05
-2.1439e-05
3.70972e-05
-2.28807e-05
3.60593e-05
-2.40305e-05
3.42551e-05
-2.27749e-05
3.25553e-05
-2.12836e-05
3.06231e-05
-1.93478e-05
2.85942e-05
-1.70078e-05
2.67997e-05
-1.62017e-05
2.45412e-05
-1.39256e-05
2.31013e-05
-1.41563e-05
2.25525e-05
-1.73983e-05
2.11786e-05
-1.97427e-05
1.97831e-05
-2.28639e-05
1.91708e-05
-2.55066e-05
1.97166e-05
-2.68139e-05
2.06033e-05
-3.07945e-05
2.10876e-05
-3.42346e-05
2.16041e-05
-2.91072e-05
2.14893e-05
-1.98029e-05
2.06405e-05
-1.15362e-05
2.05946e-05
-2.10749e-06
2.09128e-05
1.04178e-05
2.12353e-05
1.97065e-05
2.07954e-05
3.05058e-05
2.04213e-05
3.76853e-05
1.95919e-05
4.22626e-05
1.85141e-05
3.85462e-05
1.73082e-05
3.69525e-05
1.50929e-05
3.53602e-05
1.45936e-05
4.05659e-05
1.56922e-05
4.58302e-05
1.79974e-05
4.12199e-05
1.92227e-05
3.04123e-05
1.95452e-05
1.69787e-05
2.01811e-05
3.2988e-06
2.06446e-05
-9.54678e-06
2.08402e-05
-1.70478e-05
2.10074e-05
-2.78159e-05
2.00296e-05
-3.68685e-05
1.92251e-05
-3.72531e-05
1.78035e-05
-3.78233e-05
1.69611e-05
-3.14597e-05
1.8217e-05
-2.60541e-05
1.98104e-05
-3.83382e-05
1.98216e-05
-4.2531e-05
1.9513e-05
-3.92445e-05
1.90784e-05
-2.9054e-05
1.83874e-05
-2.08415e-05
1.72946e-05
-9.78152e-06
1.68654e-05
3.61133e-06
1.66034e-05
1.29831e-05
1.60816e-05
2.04202e-05
1.55863e-05
3.32598e-05
1.52094e-05
4.39563e-05
1.47062e-05
4.54575e-05
1.50341e-05
3.61526e-05
1.42502e-05
3.799e-05
1.55099e-05
3.87903e-05
1.54269e-05
5.27057e-05
1.76455e-05
4.27916e-05
1.84072e-05
4.44723e-05
2.01932e-05
2.2672e-05
2.0429e-05
2.58009e-05
2.1925e-05
-9.60681e-07
2.00583e-05
1.10842e-05
1.94153e-05
-1.97838e-05
2.01626e-05
-3.89686e-06
1.98019e-05
-2.92671e-05
1.9485e-05
-5.23729e-06
2.15094e-05
-2.08643e-05
1.9017e-05
-1.72588e-06
2.07048e-05
-2.20195e-05
1.97372e-05
-5.28305e-06
2.36305e-05
-1.22588e-05
2.08378e-05
9.73586e-06
2.09547e-05
4.96659e-06
1.97534e-05
2.61891e-05
2.50746e-05
1.66394e-05
5.37867e-05
2.51475e-05
2.29537e-05
9.36266e-07
2.42024e-05
-7.33509e-07
2.46676e-05
-3.80937e-06
2.5036e-05
-5.50859e-06
2.56563e-05
-5.42453e-06
2.50316e-05
-2.26615e-06
2.51813e-05
-1.81722e-06
2.51128e-05
-5.27334e-07
2.44488e-05
6.70438e-07
2.50733e-05
-1.41757e-06
2.51548e-05
1.99631e-07
2.5799e-05
1.81834e-07
2.69482e-05
-1.7311e-06
2.79228e-05
1.34023e-07
2.93417e-05
-2.58365e-06
3.09145e-05
-4.54235e-06
3.27293e-05
-5.62887e-06
3.41371e-05
-1.02199e-05
3.56518e-05
-1.25281e-05
3.72986e-05
-1.50364e-05
3.78775e-05
-1.92575e-05
3.77047e-05
-2.12662e-05
3.72492e-05
-2.24252e-05
3.59183e-05
-2.26996e-05
3.42332e-05
-2.10899e-05
3.26748e-05
-1.97252e-05
3.06869e-05
-1.73599e-05
2.86481e-05
-1.4969e-05
2.63562e-05
-1.39099e-05
2.39669e-05
-1.15362e-05
2.28275e-05
-1.3017e-05
2.15383e-05
-1.61091e-05
1.94245e-05
-1.76289e-05
1.82931e-05
-2.17325e-05
1.77934e-05
-2.5007e-05
1.77424e-05
-2.67629e-05
1.81058e-05
-3.1158e-05
1.82469e-05
-3.43757e-05
1.84722e-05
-2.93325e-05
1.82221e-05
-1.95528e-05
1.73921e-05
-1.07062e-05
1.73523e-05
-2.06769e-06
1.79611e-05
9.80909e-06
1.87254e-05
1.89422e-05
1.86725e-05
3.05587e-05
1.85905e-05
3.77673e-05
1.83152e-05
4.25378e-05
1.76069e-05
3.92545e-05
1.68959e-05
3.76635e-05
1.51256e-05
3.71305e-05
1.44604e-05
4.12312e-05
1.58294e-05
4.44612e-05
1.87171e-05
3.83321e-05
2.04595e-05
2.86699e-05
2.10319e-05
1.64064e-05
2.17808e-05
2.54988e-06
2.19817e-05
-9.74768e-06
2.20332e-05
-1.70992e-05
2.18982e-05
-2.7681e-05
2.04969e-05
-3.54671e-05
1.97039e-05
-3.64602e-05
1.79568e-05
-3.60762e-05
1.63429e-05
-2.98458e-05
1.74007e-05
-2.71119e-05
1.87722e-05
-3.97097e-05
1.88479e-05
-4.26067e-05
1.81499e-05
-3.85465e-05
1.69783e-05
-2.78824e-05
1.58748e-05
-1.9738e-05
1.4828e-05
-8.73469e-06
1.48096e-05
3.62971e-06
1.48162e-05
1.29764e-05
1.4385e-05
2.08514e-05
1.37673e-05
3.38776e-05
1.41732e-05
4.35504e-05
1.41708e-05
4.54599e-05
1.47534e-05
3.557e-05
1.42652e-05
3.84782e-05
1.61902e-05
3.68653e-05
1.65545e-05
5.23415e-05
1.91784e-05
4.01678e-05
1.96686e-05
4.39822e-05
2.15856e-05
2.0755e-05
2.13032e-05
2.60833e-05
2.31513e-05
-2.80887e-06
2.15592e-05
1.26763e-05
2.07978e-05
-1.90223e-05
2.16859e-05
-4.78497e-06
2.04199e-05
-2.8001e-05
1.96888e-05
-4.50624e-06
2.08343e-05
-2.20097e-05
1.83624e-05
7.46014e-07
2.1116e-05
-2.47731e-05
2.00219e-05
-4.18891e-06
2.29573e-05
-1.51943e-05
2.32315e-05
9.46175e-06
2.72269e-05
9.71182e-07
2.19309e-05
3.14851e-05
2.53842e-05
1.31861e-05
5.08488e-05
2.83221e-05
2.65084e-05
1.04291e-06
2.7922e-05
-2.14713e-06
2.88121e-05
-4.69943e-06
2.90782e-05
-5.77466e-06
2.97308e-05
-6.0772e-06
2.91705e-05
-1.70582e-06
2.90109e-05
-1.65759e-06
2.90524e-05
-5.68808e-07
2.8449e-05
1.27377e-06
2.87041e-05
-1.67268e-06
2.90194e-05
-1.15625e-07
2.95847e-05
-3.83431e-07
3.04029e-05
-2.54938e-06
3.15855e-05
-1.04854e-06
3.255e-05
-3.54819e-06
3.37581e-05
-5.75045e-06
3.54381e-05
-7.30882e-06
3.638e-05
-1.11619e-05
3.74401e-05
-1.35882e-05
3.85589e-05
-1.61552e-05
3.83057e-05
-1.90043e-05
3.76294e-05
-2.059e-05
3.70052e-05
-2.1801e-05
3.56532e-05
-2.13476e-05
3.43352e-05
-1.97718e-05
3.29754e-05
-1.83654e-05
3.10282e-05
-1.54127e-05
2.89149e-05
-1.28557e-05
2.63687e-05
-1.13637e-05
2.41218e-05
-9.28928e-06
2.2611e-05
-1.15062e-05
2.03668e-05
-1.38648e-05
1.82178e-05
-1.54798e-05
1.7265e-05
-2.07797e-05
1.63725e-05
-2.41145e-05
1.57525e-05
-2.61429e-05
1.57176e-05
-3.11231e-05
1.56256e-05
-3.42837e-05
1.5546e-05
-2.92529e-05
1.50092e-05
-1.9016e-05
1.42253e-05
-9.92228e-06
1.42065e-05
-2.04891e-06
1.49653e-05
9.05025e-06
1.5975e-05
1.79325e-05
1.62573e-05
3.02764e-05
1.64863e-05
3.75383e-05
1.69065e-05
4.21176e-05
1.67497e-05
3.94113e-05
1.64827e-05
3.79305e-05
1.5398e-05
3.82152e-05
1.48789e-05
4.17502e-05
1.64057e-05
4.29344e-05
1.94463e-05
3.52915e-05
2.15584e-05
2.65578e-05
2.24773e-05
1.54875e-05
2.3266e-05
1.76114e-06
2.31509e-05
-9.63253e-06
2.30743e-05
-1.70226e-05
2.27011e-05
-2.73079e-05
2.09709e-05
-3.37369e-05
1.98617e-05
-3.5351e-05
1.75369e-05
-3.37514e-05
1.57244e-05
-2.80333e-05
1.65604e-05
-2.79479e-05
1.74699e-05
-4.06192e-05
1.79351e-05
-4.3072e-05
1.69718e-05
-3.75831e-05
1.50609e-05
-2.59715e-05
1.3835e-05
-1.85121e-05
1.2777e-05
-7.67662e-06
1.28225e-05
3.5842e-06
1.2801e-05
1.29979e-05
1.29501e-05
2.07023e-05
1.22054e-05
3.46223e-05
1.28858e-05
4.287e-05
1.32574e-05
4.50882e-05
1.42853e-05
3.45421e-05
1.37737e-05
3.89897e-05
1.61049e-05
3.4534e-05
1.71409e-05
5.13055e-05
1.9883e-05
3.74256e-05
2.02214e-05
4.36438e-05
2.26849e-05
1.82916e-05
2.20378e-05
2.67304e-05
2.36777e-05
-4.4488e-06
2.28139e-05
1.35401e-05
2.29241e-05
-1.91326e-05
2.33747e-05
-5.23553e-06
2.27929e-05
-2.74192e-05
2.09392e-05
-2.65248e-06
2.06643e-05
-2.17349e-05
2.00446e-05
1.36571e-06
2.04154e-05
-2.51438e-05
1.87327e-05
-2.50622e-06
2.10922e-05
-1.75538e-05
2.06433e-05
9.91074e-06
2.81513e-05
-6.53689e-06
2.70016e-05
3.26349e-05
2.82729e-05
1.19148e-05
4.85408e-05
3.05809e-05
2.97622e-05
8.76655e-07
3.11643e-05
-3.5492e-06
3.20533e-05
-5.58842e-06
3.21218e-05
-5.84319e-06
3.23707e-05
-6.32609e-06
3.20266e-05
-1.36179e-06
3.16129e-05
-1.24388e-06
3.15148e-05
-4.70671e-07
3.12492e-05
1.53938e-06
3.1101e-05
-1.52455e-06
3.16119e-05
-6.26447e-07
3.21599e-05
-9.31469e-07
3.2592e-05
-2.9815e-06
3.38968e-05
-2.35328e-06
3.47113e-05
-4.36272e-06
3.55337e-05
-6.57282e-06
3.68151e-05
-8.59024e-06
3.7309e-05
-1.16558e-05
3.78648e-05
-1.41439e-05
3.83165e-05
-1.66069e-05
3.76476e-05
-1.83354e-05
3.71533e-05
-2.00957e-05
3.67594e-05
-2.1407e-05
3.55698e-05
-2.0158e-05
3.44442e-05
-1.86463e-05
3.30845e-05
-1.70057e-05
3.09437e-05
-1.32719e-05
2.85712e-05
-1.04832e-05
2.60153e-05
-8.80781e-06
2.39292e-05
-7.20323e-06
2.20405e-05
-9.61748e-06
1.94544e-05
-1.12787e-05
1.72567e-05
-1.32821e-05
1.57074e-05
-1.92304e-05
1.42302e-05
-2.26373e-05
1.33063e-05
-2.52191e-05
1.28338e-05
-3.06505e-05
1.25528e-05
-3.40028e-05
1.24809e-05
-2.9181e-05
1.20696e-05
-1.86046e-05
1.15961e-05
-9.44887e-06
1.15604e-05
-2.01319e-06
1.22926e-05
8.31807e-06
1.32971e-05
1.6928e-05
1.38513e-05
2.97222e-05
1.43943e-05
3.69953e-05
1.5371e-05
4.11409e-05
1.5766e-05
3.90163e-05
1.58762e-05
3.78203e-05
1.55307e-05
3.85607e-05
1.55143e-05
4.17667e-05
1.73274e-05
4.11213e-05
2.02799e-05
3.2339e-05
2.25596e-05
2.42781e-05
2.38216e-05
1.42255e-05
2.46163e-05
9.6639e-07
2.42011e-05
-9.21725e-06
2.40362e-05
-1.68578e-05
2.34036e-05
-2.66753e-05
2.15803e-05
-3.19136e-05
1.98916e-05
-3.36623e-05
1.69744e-05
-3.08342e-05
1.52088e-05
-2.62678e-05
1.55259e-05
-2.8265e-05
1.57525e-05
-4.08458e-05
1.65232e-05
-4.38427e-05
1.52882e-05
-3.63481e-05
1.3268e-05
-2.39514e-05
1.18945e-05
-1.71386e-05
1.08345e-05
-6.61658e-06
1.09103e-05
3.50838e-06
1.10698e-05
1.28384e-05
1.14566e-05
2.03154e-05
1.04048e-05
3.56741e-05
1.12695e-05
4.20053e-05
1.19907e-05
4.4367e-05
1.37543e-05
3.27786e-05
1.33082e-05
3.94358e-05
1.62542e-05
3.1588e-05
1.76347e-05
4.99251e-05
2.01738e-05
3.48865e-05
2.05845e-05
4.32331e-05
2.33461e-05
1.553e-05
2.30422e-05
2.70342e-05
2.43531e-05
-5.75969e-06
2.40386e-05
1.38547e-05
2.4532e-05
-1.96261e-05
2.44993e-05
-5.20279e-06
2.46047e-05
-2.75246e-05
2.19046e-05
4.76452e-08
2.24768e-05
-2.23071e-05
2.27126e-05
1.12987e-06
2.17454e-05
-2.41767e-05
2.06578e-05
-1.41853e-06
2.09789e-05
-1.7875e-05
1.77573e-05
1.31323e-05
2.29454e-05
-1.1725e-05
2.66999e-05
2.88804e-05
3.0694e-05
7.92067e-06
4.59087e-05
3.33261e-05
3.24965e-05
-2.28311e-07
3.37828e-05
-4.83548e-06
3.41992e-05
-6.00482e-06
3.38887e-05
-5.53273e-06
3.33168e-05
-5.75417e-06
3.31066e-05
-1.15158e-06
3.25006e-05
-6.37865e-07
3.22217e-05
-1.91782e-07
3.24989e-05
1.26217e-06
3.22971e-05
-1.32271e-06
3.30086e-05
-1.338e-06
3.37108e-05
-1.6336e-06
3.38374e-05
-3.10816e-06
3.48555e-05
-3.3714e-06
3.54454e-05
-4.95261e-06
3.59703e-05
-7.09767e-06
3.68972e-05
-9.51714e-06
3.7086e-05
-1.18447e-05
3.72976e-05
-1.43556e-05
3.73741e-05
-1.66834e-05
3.68035e-05
-1.77647e-05
3.66929e-05
-1.99851e-05
3.65133e-05
-2.12275e-05
3.5436e-05
-1.90807e-05
3.42652e-05
-1.74755e-05
3.28158e-05
-1.55563e-05
3.06104e-05
-1.10666e-05
2.81319e-05
-8.00463e-06
2.53867e-05
-6.06257e-06
2.30758e-05
-4.89237e-06
2.08865e-05
-7.4282e-06
1.80325e-05
-8.42474e-06
1.54742e-05
-1.07238e-05
1.36181e-05
-1.73742e-05
1.21065e-05
-2.11257e-05
1.10606e-05
-2.41732e-05
1.01234e-05
-2.97134e-05
9.42659e-06
-3.33059e-05
9.18585e-06
-2.89403e-05
9.01541e-06
-1.84342e-05
9.06812e-06
-9.50158e-06
9.07316e-06
-2.01823e-06
9.649e-06
7.74223e-06
1.04744e-05
1.61026e-05
1.11053e-05
2.90913e-05
1.19586e-05
3.61421e-05
1.35261e-05
3.95734e-05
1.47581e-05
3.77843e-05
1.53179e-05
3.72606e-05
1.55462e-05
3.83324e-05
1.60967e-05
4.12162e-05
1.82654e-05
3.89526e-05
2.12101e-05
2.93943e-05
2.34297e-05
2.20585e-05
2.48019e-05
1.28533e-05
2.56163e-05
1.51985e-07
2.50259e-05
-8.62682e-06
2.4765e-05
-1.65968e-05
2.37132e-05
-2.56235e-05
2.18016e-05
-3.0002e-05
1.95729e-05
-3.14335e-05
1.63023e-05
-2.75636e-05
1.46269e-05
-2.45923e-05
1.41155e-05
-2.77535e-05
1.35255e-05
-4.02558e-05
1.40302e-05
-4.43474e-05
1.28214e-05
-3.51393e-05
1.13433e-05
-2.24733e-05
1.03654e-05
-1.61607e-05
9.36955e-06
-5.62078e-06
9.35923e-06
3.5187e-06
9.53223e-06
1.26654e-05
9.32881e-06
2.05188e-05
8.73137e-06
3.62716e-05
1.03299e-05
4.04068e-05
1.08957e-05
4.38012e-05
1.36465e-05
3.00277e-05
1.35639e-05
3.95184e-05
1.70241e-05
2.81279e-05
1.82293e-05
4.87199e-05
2.10768e-05
3.2039e-05
2.11551e-05
4.31547e-05
2.38468e-05
1.28383e-05
2.41181e-05
2.67628e-05
2.52752e-05
-6.91682e-06
2.51046e-05
1.40254e-05
2.56176e-05
-2.01391e-05
2.53277e-05
-4.91296e-06
2.50316e-05
-2.72285e-05
2.25646e-05
2.51461e-06
2.2935e-05
-2.26774e-05
2.3447e-05
6.17882e-07
2.35076e-05
-2.42373e-05
2.26282e-05
-5.39132e-07
2.26101e-05
-1.78569e-05
1.9566e-05
1.61764e-05
2.02161e-05
-1.23752e-05
2.3561e-05
2.55355e-05
2.88752e-05
2.60646e-06
4.10912e-05
3.36927e-05
3.53641e-05
-1.07177e-06
3.5109e-05
-4.58031e-06
3.46815e-05
-5.57736e-06
3.38456e-05
-4.6968e-06
3.2441e-05
-4.34958e-06
3.2256e-05
-9.66641e-07
3.18242e-05
-2.05983e-07
3.17938e-05
-1.61404e-07
3.26681e-05
3.87892e-07
3.27665e-05
-1.42114e-06
3.35734e-05
-2.14491e-06
3.43467e-05
-2.40693e-06
3.43301e-05
-3.09154e-06
3.49043e-05
-3.94563e-06
3.53528e-05
-5.40104e-06
3.57798e-05
-7.52469e-06
3.62099e-05
-9.94724e-06
3.61159e-05
-1.17507e-05
3.62866e-05
-1.45262e-05
3.65778e-05
-1.69746e-05
3.66496e-05
-1.78365e-05
3.6602e-05
-1.99375e-05
3.59899e-05
-2.06154e-05
3.49215e-05
-1.80123e-05
3.359e-05
-1.6144e-05
3.15193e-05
-1.34856e-05
2.91878e-05
-8.73514e-06
2.68931e-05
-5.70994e-06
2.41941e-05
-3.36349e-06
2.19043e-05
-2.60263e-06
1.92755e-05
-4.79937e-06
1.59855e-05
-5.13472e-06
1.33154e-05
-8.05373e-06
1.15414e-05
-1.56002e-05
1.01083e-05
-1.96926e-05
8.71986e-06
-2.27848e-05
7.24347e-06
-2.8237e-05
6.11774e-06
-3.21802e-05
5.76183e-06
-2.85844e-05
5.95541e-06
-1.86278e-05
6.5561e-06
-1.01023e-05
6.66515e-06
-2.12727e-06
7.08892e-06
7.31846e-06
7.74142e-06
1.545e-05
8.48173e-06
2.8351e-05
9.9802e-06
3.46436e-05
1.20585e-05
3.74951e-05
1.37439e-05
3.60989e-05
1.45812e-05
3.64233e-05
1.52657e-05
3.76479e-05
1.63178e-05
4.01641e-05
1.88348e-05
3.64356e-05
2.18224e-05
2.64067e-05
2.4032e-05
1.98488e-05
2.54375e-05
1.14478e-05
2.61841e-05
-5.94692e-07
2.55737e-05
-8.01636e-06
2.52662e-05
-1.62894e-05
2.40376e-05
-2.43948e-05
2.19687e-05
-2.79332e-05
1.9105e-05
-2.85698e-05
1.56263e-05
-2.4085e-05
1.37635e-05
-2.27295e-05
1.22248e-05
-2.62148e-05
1.08831e-05
-3.89142e-05
1.05616e-05
-4.40259e-05
9.79012e-06
-3.43678e-05
9.17801e-06
-2.18612e-05
8.35258e-06
-1.53353e-05
6.96162e-06
-4.22982e-06
7.26406e-06
3.21627e-06
7.48715e-06
1.24423e-05
7.37363e-06
2.06324e-05
7.31513e-06
3.63301e-05
9.09167e-06
3.86303e-05
1.0038e-05
4.2855e-05
1.30734e-05
2.69923e-05
1.31692e-05
3.94226e-05
1.7251e-05
2.4046e-05
1.85009e-05
4.747e-05
2.23862e-05
2.81536e-05
2.20552e-05
4.34858e-05
2.44347e-05
1.04588e-05
2.52229e-05
2.59747e-05
2.61291e-05
-7.82299e-06
2.64179e-05
1.37366e-05
2.69522e-05
-2.06734e-05
2.59494e-05
-3.91015e-06
2.51493e-05
-2.64283e-05
2.35227e-05
4.14122e-06
2.33198e-05
-2.24746e-05
2.46544e-05
-7.16691e-07
2.48536e-05
-2.44365e-05
2.44654e-05
-1.50917e-07
2.38141e-05
-1.72057e-05
2.23786e-05
1.7612e-05
1.99104e-05
-9.90697e-06
2.21277e-05
2.33182e-05
2.5674e-05
-9.39775e-07
3.50016e-05
3.17636e-05
3.58562e-05
-1.43341e-06
3.47697e-05
-3.49377e-06
3.36821e-05
-4.48979e-06
3.24673e-05
-3.48192e-06
3.10095e-05
-2.89182e-06
3.11253e-05
-1.08239e-06
3.12583e-05
-3.39052e-07
3.18336e-05
-7.36628e-07
3.31487e-05
-9.27289e-07
3.35327e-05
-1.80512e-06
3.39108e-05
-2.52303e-06
3.42478e-05
-2.74391e-06
3.43095e-05
-3.15321e-06
3.46835e-05
-4.31962e-06
3.50397e-05
-5.75728e-06
3.53515e-05
-7.83649e-06
3.5536e-05
-1.01317e-05
3.57025e-05
-1.19173e-05
3.5973e-05
-1.47967e-05
3.6131e-05
-1.71326e-05
3.62153e-05
-1.79208e-05
3.58027e-05
-1.95249e-05
3.464e-05
-1.94526e-05
3.33218e-05
-1.66941e-05
3.16858e-05
-1.4508e-05
2.92987e-05
-1.10986e-05
2.71513e-05
-6.58768e-06
2.51019e-05
-3.66055e-06
2.25513e-05
-8.1286e-07
2.02422e-05
-2.9361e-07
1.72886e-05
-1.84578e-06
1.39145e-05
-1.76061e-06
1.122e-05
-5.35922e-06
9.46523e-06
-1.38454e-05
8.19336e-06
-1.84207e-05
6.37224e-06
-2.09637e-05
4.31409e-06
-2.61788e-05
2.66321e-06
-3.05293e-05
2.14359e-06
-2.80648e-05
2.60655e-06
-1.90907e-05
3.41493e-06
-1.09106e-05
3.61617e-06
-2.32851e-06
4.12094e-06
6.81368e-06
4.7469e-06
1.48241e-05
5.46613e-06
2.76318e-05
7.5377e-06
3.2572e-05
9.97795e-06
3.50548e-05
1.23375e-05
3.37394e-05
1.39869e-05
3.47739e-05
1.5085e-05
3.65498e-05
1.64373e-05
3.88118e-05
1.9199e-05
3.36739e-05
2.21508e-05
2.34549e-05
2.42704e-05
1.77292e-05
2.58227e-05
9.89559e-06
2.64572e-05
-1.22918e-06
2.59455e-05
-7.50466e-06
2.55352e-05
-1.58791e-05
2.41138e-05
-2.29735e-05
2.1791e-05
-2.56104e-05
1.83345e-05
-2.51132e-05
1.49532e-05
-2.07037e-05
1.25868e-05
-2.03631e-05
1.013e-05
-2.3758e-05
7.91425e-06
-3.66985e-05
6.90524e-06
-4.30169e-05
6.70707e-06
-3.41697e-05
6.86824e-06
-2.20223e-05
6.31578e-06
-1.47828e-05
5.39959e-06
-3.31364e-06
6.05428e-06
2.56158e-06
5.78327e-06
1.27133e-05
5.41824e-06
2.09974e-05
5.49434e-06
3.6254e-05
7.8137e-06
3.63109e-05
9.4541e-06
4.12145e-05
1.1909e-05
2.45374e-05
1.21095e-05
3.92221e-05
1.63873e-05
1.97682e-05
1.80607e-05
4.57967e-05
2.25229e-05
2.36914e-05
2.26792e-05
4.33295e-05
2.52126e-05
7.92539e-06
2.62448e-05
2.49425e-05
2.66485e-05
-8.2267e-06
2.73996e-05
1.29854e-05
2.78234e-05
-2.10972e-05
2.62974e-05
-2.38415e-06
2.48628e-05
-2.49937e-05
2.46145e-05
4.38948e-06
2.44894e-05
-2.23494e-05
2.65136e-05
-2.7409e-06
2.53129e-05
-2.32358e-05
2.51395e-05
2.25114e-08
2.38537e-05
-1.59198e-05
2.52178e-05
1.62478e-05
2.2935e-05
-7.62414e-06
2.33217e-05
2.29315e-05
2.45108e-05
-2.12895e-06
2.96902e-05
2.98222e-05
3.49314e-05
-1.32207e-06
3.38482e-05
-2.41066e-06
3.27776e-05
-3.41911e-06
3.18001e-05
-2.5045e-06
3.10473e-05
-2.13902e-06
3.15649e-05
-1.59997e-06
3.21323e-05
-9.06402e-07
3.27682e-05
-1.37256e-06
3.369e-05
-1.84905e-06
3.3893e-05
-2.00816e-06
3.37451e-05
-2.37511e-06
3.38237e-05
-2.82256e-06
3.40345e-05
-3.36403e-06
3.42145e-05
-4.49962e-06
3.45029e-05
-6.04562e-06
3.48307e-05
-8.1643e-06
3.50473e-05
-1.03483e-05
3.54337e-05
-1.23037e-05
3.56505e-05
-1.50135e-05
3.55065e-05
-1.69886e-05
3.51114e-05
-1.75257e-05
3.39279e-05
-1.83414e-05
3.22413e-05
-1.7766e-05
3.07432e-05
-1.51959e-05
2.88355e-05
-1.26003e-05
2.6459e-05
-8.72203e-06
2.46473e-05
-4.77599e-06
2.27039e-05
-1.7172e-06
2.03537e-05
1.53732e-06
1.81773e-05
1.88282e-06
1.5188e-05
1.14352e-06
1.18211e-05
1.60633e-06
9.0828e-06
-2.62095e-06
7.4502e-06
-1.22128e-05
6.39488e-06
-1.73654e-05
4.3869e-06
-1.89557e-05
1.93806e-06
-2.373e-05
-3.84677e-07
-2.82066e-05
-1.17666e-06
-2.72728e-05
-5.53464e-07
-1.97139e-05
-3.40597e-08
-1.143e-05
2.48066e-07
-2.61064e-06
8.97639e-07
6.16411e-06
1.62725e-06
1.40945e-05
2.69884e-06
2.65602e-05
5.67124e-06
2.95996e-05
8.69093e-06
3.20351e-05
1.14086e-05
3.10217e-05
1.32909e-05
3.28916e-05