/*--------------------------------*- C++ -*----------------------------------*\
| =========                 |                                                 |
| \\      /  F ield         | OpenFOAM: The Open Source CFD Toolbox           |
|  \\    /   O peration     | Version:  2.4.0                                 |
|   \\  /    A nd           | Web:      www.OpenFOAM.org                      |
|    \\/     M anipulation  |                                                 |
\*---------------------------------------------------------------------------*/
FoamFile
{
    version     2.0;
    format      ascii;
    class       volScalarField;
    location    "0.294";
    object      p;
}
// * * * * * * * * * * * * * * * * * * * * * * * * * * * * * * * * * * * * * //

dimensions      [0 2 -2 0 0 0 0];

internalField   nonuniform List<scalar> 
17600
(
103.108
87.4215
83.0148
81.8683
80.8998
79.9793
79.0609
78.2805
77.5146
76.8122
75.9391
75.3158
74.4383
73.6569
72.9294
71.8104
71.3498
69.553
68.5962
67.7341
101.2
87.4714
83.0557
81.8781
80.9028
79.98
79.0615
78.2804
77.515
76.8127
75.9387
75.3153
74.4395
73.6546
72.9313
71.8082
71.351
69.5567
68.5964
67.5589
99.7869
87.7275
83.1996
81.9166
80.9164
79.9848
79.0638
78.282
77.5167
76.8145
75.9379
75.3166
74.4407
73.6539
72.9353
71.8052
71.3574
69.5601
68.5568
67.1371
98.8114
88.0691
83.4197
81.9821
80.9456
80.0004
79.0725
78.2885
77.5224
76.8187
75.9395
75.3198
74.4441
73.6552
72.9432
71.8079
71.3651
69.5831
68.4912
66.6504
97.9895
88.4043
83.6837
82.0645
80.9883
80.0292
79.0918
78.3039
77.5353
76.8273
75.9465
75.3256
74.4523
73.6588
72.9574
71.8218
71.3694
69.6434
68.4135
66.3307
97.2156
88.697
83.9613
82.1475
81.0311
80.0652
79.1205
78.3285
77.5565
76.8415
75.9605
75.3345
74.4673
73.6652
72.9788
71.8518
71.3685
69.7432
68.3629
66.2193
96.4871
88.9441
84.2377
82.2261
81.0639
80.0979
79.1527
78.3589
77.5835
76.8601
75.9811
75.346
74.4896
73.6755
73.0073
71.8987
71.3666
69.8615
68.385
66.1795
95.8139
89.1483
84.5065
82.302
81.0855
80.1233
79.1838
78.3916
77.6127
76.8802
76.0058
75.3582
74.5168
73.6899
73.0413
71.9609
71.3653
69.9956
68.4596
66.684
95.2022
89.3131
84.7591
82.3806
81.0977
80.1406
79.2119
78.4239
77.6424
76.9
76.032
75.3693
74.5457
73.708
73.0768
72.0339
71.3667
70.1539
68.5136
66.9266
94.6534
89.4403
84.9936
82.4629
81.1034
80.1503
79.2359
78.4549
77.6718
76.9184
76.0577
75.3793
74.5731
73.7313
73.1102
72.1119
71.3772
70.3053
68.6021
67.5942
94.1657
89.5332
85.2092
82.5506
81.1041
80.1523
79.256
78.484
77.701
76.935
76.0826
75.3878
74.5992
73.7557
73.1412
72.1916
71.3993
70.4469
68.7483
68.0999
93.7373
89.5962
85.4048
82.6438
81.1008
80.148
79.2729
78.5107
77.7296
76.9504
76.1067
75.3958
74.6249
73.7805
73.1713
72.2684
71.442
70.5779
68.9334
68.5027
93.3649
89.6346
85.5801
82.7407
81.0953
80.1396
79.2869
78.5351
77.7577
76.9637
76.1302
75.405
74.6474
73.811
73.2005
72.3437
71.4991
70.7022
69.1575
68.8601
93.0452
89.6542
85.7347
82.8345
81.0895
80.1283
79.2991
78.5556
77.7854
76.9763
76.1507
75.4151
74.6697
73.842
73.2295
72.4234
71.5629
70.8272
69.3974
69.1859
92.7756
89.6632
85.8671
82.9178
81.0853
80.1156
79.3087
78.5741
77.8101
76.9874
76.1712
75.4241
74.6901
73.8764
73.2582
72.5003
71.6388
70.9507
69.6492
69.5033
92.5533
89.6675
85.9755
82.9898
81.0829
80.1036
79.3165
78.5892
77.8335
76.9958
76.1915
75.4351
74.7077
73.9116
73.2922
72.5744
71.7223
71.0738
69.9108
69.8001
92.3784
89.6689
86.0603
83.0488
81.083
80.0919
79.3235
78.6005
77.8541
77.003
76.2087
75.4462
74.7268
73.9481
73.3274
72.6486
71.813
71.1971
70.1577
70.1049
92.2478
89.6695
86.1221
83.0945
81.084
80.0829
79.3288
78.61
77.8712
77.0099
76.2251
75.4577
74.7435
73.9903
73.3598
72.723
71.908
71.3263
70.3735
70.2936
92.1613
89.6702
86.1622
83.1251
81.0863
80.0752
79.334
78.6149
77.8852
77.0157
76.2383
75.4722
74.7553
74.0309
73.3955
72.8005
72.0036
71.4589
70.576
70.5255
92.1186
89.6715
86.1811
83.141
81.0883
80.0707
79.3381
78.618
77.8943
77.0211
76.2522
75.4849
74.7809
74.0696
73.4363
72.8693
72.1093
71.5903
70.7959
70.7801
92.1178
89.6744
86.179
83.1432
81.0903
80.0703
79.3413
78.6173
77.9004
77.0254
76.2628
75.5004
74.7923
74.1083
73.4826
72.9335
72.2188
71.7151
71.0444
71.0398
92.1605
89.6778
86.1571
83.1281
81.0942
80.0726
79.348
78.6135
77.9037
77.0293
76.2715
75.5157
74.8084
74.1474
73.5263
73.0054
72.3266
71.8424
71.2841
71.3264
92.2451
89.6826
86.1141
83.0988
81.0933
80.0786
79.3489
78.6086
77.8977
77.0314
76.2821
75.53
74.827
74.1877
73.5706
73.0766
72.4338
71.9838
71.4883
71.5211
92.3749
89.6863
86.0503
83.0529
81.0964
80.0852
79.3541
78.5993
77.8922
77.0339
76.2859
75.5484
74.841
74.2249
73.6211
73.1458
72.542
72.1275
71.6814
71.7773
92.5486
89.689
85.9634
82.9944
81.0987
80.095
79.3548
78.5896
77.8793
77.0343
76.2919
75.562
74.8619
74.2595
73.6729
73.2133
72.6572
72.2664
71.8953
72.0725
92.7694
89.6879
85.8539
82.9227
81.1043
80.1041
79.3552
78.5769
77.8638
77.0332
76.2962
75.5765
74.8817
74.2932
73.727
73.2798
72.7746
72.4034
72.1364
72.3877
93.0384
89.6804
85.7219
82.8379
81.1127
80.1129
79.3544
78.5618
77.8455
77.0316
76.2978
75.592
74.9003
74.3269
73.7811
73.3494
72.8886
72.5501
72.3609
72.7009
93.3566
89.6634
85.5672
82.7463
81.1218
80.1215
79.3489
78.5462
77.8224
77.0286
76.3
75.6038
74.9216
74.3595
73.8332
73.4236
72.9997
72.7062
72.5538
72.9078
93.7296
89.6262
85.3928
82.6494
81.1328
80.1256
79.3424
78.5281
77.7987
77.0239
76.3005
75.6155
74.9427
74.3904
73.8869
73.4974
73.1122
72.8674
72.734
73.1274
94.1574
89.5644
85.1982
82.5571
81.1394
80.1259
79.3305
78.5099
77.7738
77.0168
76.3012
75.6243
74.9646
74.4198
73.942
73.5683
73.2296
73.0285
72.9404
73.3494
94.6448
89.4706
84.9843
82.4694
81.1418
80.1208
79.3139
78.4911
77.7467
77.009
76.3002
75.6308
74.9876
74.4466
73.9965
73.6386
73.3497
73.1852
73.1795
73.5541
95.194
89.3407
84.7512
82.3866
81.1398
80.1084
79.2929
78.4707
77.719
76.9989
76.2983
75.6363
75.0083
74.4733
74.0481
73.7079
73.4654
73.3395
73.4271
73.7343
95.8059
89.1735
84.4988
82.3095
81.1305
80.0888
79.2667
78.4497
77.6913
76.9863
76.2966
75.6395
75.0278
74.4986
74.0951
73.7737
73.5707
73.4846
73.6441
73.901
96.4793
88.9674
84.2307
82.2347
81.1128
80.0613
79.2362
78.4283
77.6645
76.9728
76.294
75.6418
75.0449
74.5205
74.136
73.8308
73.6599
73.609
73.8149
74.0242
97.208
88.7193
83.9549
82.1572
81.084
80.0264
79.2046
78.4071
77.641
76.9598
76.2914
75.6439
75.0588
74.5389
74.169
73.8762
73.7298
73.7049
73.9413
74.1565
97.982
88.4261
83.6782
82.0744
81.0443
79.9897
79.1762
78.389
77.6235
76.9499
76.2901
75.6463
75.0696
74.5533
74.1931
73.9087
73.7792
73.7713
74.0272
74.2601
98.804
88.0908
83.4148
81.9919
81.0033
79.9613
79.1571
78.3772
77.6137
76.9446
76.2902
75.6489
75.0773
74.5631
74.2085
73.9288
73.809
73.8111
74.0781
74.3352
99.7801
87.7492
83.1953
81.9267
80.9742
79.9469
79.1484
78.3718
77.6102
76.9427
76.291
75.6509
75.0815
74.5685
74.2162
73.9382
73.8229
73.8297
74.1017
74.3873
101.194
87.493
83.0517
81.8886
80.9599
79.943
79.1463
78.3697
77.6095
76.9424
76.2913
75.6517
75.0828
74.5702
74.2182
73.94
73.8257
73.8334
74.106
74.4188
103.102
87.443
83.0107
81.8792
80.9563
79.9425
79.1465
78.3688
77.6094
76.9425
76.2912
75.6515
75.0826
74.57
74.2177
73.9383
73.8237
73.8303
74.1006
74.4343
61.6564
52.2627
42.1962
33.3263
26.2025
25.4113
29.3911
32.6102
39.6666
52.1113
65.436
76.9426
86.1992
93.2403
98.2489
101.917
106.031
106.775
107.036
109.317
108.142
99.4526
89.2815
80.9321
73.2403
67.0346
61.7392
56.6003
52.7748
49.6998
46.4183
43.5622
41.5357
39.8448
37.6509
36.1051
36.65
38.5307
40.8146
43.4601
46.4509
49.8746
53.8927
57.9134
61.5408
64.8369
67.394
68.8146
69.0799
68.3035
66.8242
64.7391
62.2649
59.5885
56.8861
54.2219
51.2506
47.9418
44.2484
40.124
35.5902
30.9298
26.2809
21.7278
18.2517
16.4386
15.5509
16.0982
18.2553
21.3112
25.8853
31.3304
36.9738
42.8179
48.7735
54.9736
60.5107
65.4925
70.441
74.7072
77.9176
80.8716
83.4872
85.389
86.9744
88.1834
89.1676
89.9445
90.2266
90.3811
90.9168
91.3422
91.2729
91.3827
91.2509
90.6593
90.1919
89.6255
88.7038
87.4696
85.9654
84.281
81.8257
78.7504
75.5908
71.4628
66.9787
63.2448
59.1609
55.0804
52.2662
50.5662
49.6599
49.7188
50.9499
53.0398
55.6714
58.9965
62.5667
65.7886
68.6639
71.2644
73.0216
73.3916
72.6539
71.0108
68.4076
65.1349
61.3082
56.8248
51.6707
46.3933
41.3441
36.8173
32.8755
30.0658
28.7511
29.5191
31.3261
32.505
34.692
38.437
43.1508
48.9197
54.805
59.8717
64.5272
69.257
73.2064
76.086
78.2123
79.9443
81.7393
83.321
83.9777
84.219
84.2859
83.3648
82.2643
80.7119
78.4681
75.8955
72.5909
68.4979
63.8651
58.2885
52.6293
47.6927
43.5158
40.4441
37.9684
36.3057
36.3881
37.251
39.974
44.1893
49.4106
53.6066
58.6677
64.3471
70.8107
75.655
80.1637
83.3906
86.4271
88.2849
89.5717
89.8874
89.8372
89.7092
89.606
89.2581
89.1266
89.2031
88.922
87.8291
84.7293
79.1474
70.7507
35.705
61.9956
53.4061
43.4134
35.2701
28.8497
27.836
32.427
36.7017
43.538
55.1022
67.4778
77.9961
86.6979
93.2635
98.1763
101.615
105.135
106.069
105.941
107.275
106.942
99.6118
90.5199
82.3479
74.5743
68.3675
63.0082
57.9395
54.4019
51.5945
48.4553
45.7362
44.0337
42.8472
41.1445
39.7976
40.2289
41.9833
44.2717
46.9825
49.9427
53.0661
56.6646
60.374
63.7686
66.7979
69.1227
70.3129
70.356
69.3705
67.6487
65.4248
62.8437
59.9902
57.1415
54.3183
51.2342
47.6931
43.5542
38.9202
33.9416
28.7858
23.7046
18.8749
15.2797
13.4001
12.5236
13.2128
15.4913
18.8109
23.7537
29.4631
35.4797
41.6975
47.9292
54.2787
59.8349
65.0026
70.2047
74.522
77.8201
80.9985
83.7429
85.6438
87.2746
88.5089
89.4634
90.2001
90.4939
90.6325
91.1036
91.4819
91.4367
91.5195
91.3545
90.752
90.291
89.7477
88.8683
87.6933
86.3443
84.7701
82.3983
79.6982
76.917
73.0017
68.9195
65.6749
61.8095
57.9425
55.5094
53.9425
52.998
53.1807
54.4616
56.488
59.0334
62.1591
65.4438
68.377
70.915
73.0518
74.3553
74.2736
73.095
70.9848
67.9932
64.3721
60.2935
55.5216
50.0401
44.5097
39.2958
34.6484
30.7069
27.9241
26.7137
27.707
29.6823
31.1295
33.496
37.1274
41.7649
47.6985
53.7538
58.9656
63.8162
68.7404
72.7259
75.5368
77.6765
79.4525
81.3567
82.9893
83.6919
83.8579
84.0636
83.1256
82.2335
80.6968
78.5397
76.0391
72.7119
68.8123
64.2395
59.0376
53.5413
48.7523
44.6067
41.6004
39.2546
37.6792
37.7115
38.433
41.165
45.0527
50.0971
54.0102
59.0277
64.5031
70.8833
75.7847
79.874
83.309
86.32
88.1004
89.3321
89.559
89.3043
88.9261
88.7938
88.2625
88.1174
88.1539
87.6424
85.9379
82.1603
74.7885
65.7096
25.7162
61.9238
54.082
44.1789
37.3982
32.141
30.9867
35.5733
40.644
47.4133
57.9593
69.3106
78.9236
86.9356
92.9594
97.6454
101.127
104.11
105.107
104.642
105.553
105.589
99.5958
91.649
83.7977
76.2144
69.9664
64.528
59.4978
56.1436
53.5763
50.6397
48.0189
46.528
45.7235
44.4895
43.4203
43.8213
45.4233
47.6361
50.3609
53.2669
56.1345
59.3716
62.8209
66.0217
68.8182
70.9089
71.8592
71.6736
70.481
68.5441
66.1608
63.4416
60.3853
57.3867
54.3869
51.2012
47.4716
42.8846
37.7605
32.3363
26.639
21.1186
16.0466
12.339
10.369
9.50433
10.322
12.7291
16.3678
21.6532
27.5791
33.9949
40.6571
47.2038
53.6772
59.2711
64.6309
70.0213
74.3842
77.7863
81.1575
84.0148
85.9327
87.6128
88.8528
89.7842
90.4926
90.7934
90.9031
91.3113
91.6398
91.6301
91.6761
91.4678
90.8742
90.4238
89.8799
89.0404
87.9553
86.746
85.2491
82.9705
80.5891
78.132
74.4459
70.7917
67.9781
64.3078
60.7443
58.7238
57.2469
56.3008
56.6449
57.9707
59.9327
62.4187
65.3765
68.374
71.0344
73.2484
74.9662
75.8353
75.3401
73.6911
71.1161
67.7609
63.8017
59.4491
54.4026
48.5937
42.8317
37.457
32.7284
28.7825
26.0374
24.9497
26.1348
28.3121
30.1099
32.6594
36.1175
40.6613
46.6806
52.8283
58.1617
63.205
68.3032
72.3006
75.0011
77.1902
79.0467
81.0347
82.7374
83.4468
83.6224
83.822
83.0405
82.3124
80.7583
78.6158
76.3139
73.0524
69.3063
64.8498
60.0028
54.5883
49.9874
45.788
42.8385
40.5566
39.018
39.0386
39.6362
42.3856
45.8898
50.7271
54.4058
59.4157
64.6762
70.9422
75.9024
79.6498
83.2414
86.318
87.9834
89.0949
89.2043
88.7849
88.0938
88.0239
87.2915
87.2688
86.9939
86.3701
84.1894
80.2255
70.2796
61.1045
23.1542
61.855
55.1628
45.6441
39.7166
35.8166
34.7083
38.876
44.3708
51.1413
60.5956
70.8446
79.7794
86.9516
92.5208
96.8432
100.383
103.145
104.036
103.489
104.127
104.183
99.575
92.639
85.2992
78.0844
71.7901
66.3862
61.4046
58.0973
55.6515
52.9339
50.4217
49.0669
48.5011
47.6638
46.9492
47.3628
48.7886
50.886
53.5758
56.4069
59.0777
62.0036
65.2238
68.252
70.8497
72.7237
73.4537
73.0523
71.6226
69.4787
66.9464
64.03
60.7698
57.6696
54.5072
51.1887
47.2768
42.2531
36.6807
30.8281
24.5885
18.5884
13.2907
9.4722
7.39716
6.54835
7.49492
10.037
14.0238
19.6007
25.7057
32.5583
39.6785
46.5338
53.1538
58.8537
64.4077
69.9152
74.2799
77.7798
81.3708
84.3219
86.2288
87.9616
89.2208
90.1302
90.8017
91.1
91.19
91.5368
91.8136
91.8327
91.8362
91.5829
91.0307
90.5832
90.0106
89.2196
88.2393
87.15
85.7102
83.5359
81.429
79.216
75.791
72.5889
70.1171
66.6406
63.443
61.8256
60.4409
59.5209
60.0461
61.4412
63.3532
65.7722
68.5818
71.3332
73.7373
75.6595
76.9934
77.4551
76.5625
74.4302
71.3979
67.6923
63.4226
58.7982
53.4633
47.3678
41.3827
35.8731
31.0717
27.1377
24.4264
23.4648
24.8273
27.2141
29.3893
32.1122
35.3852
39.8441
45.8665
52.0513
57.4667
62.7341
67.9673
71.9261
74.5039
76.8164
78.7237
80.8115
82.5705
83.2994
83.566
83.7139
83.1273
82.4419
80.8445
78.8112
76.7084
73.6106
69.9734
65.691
61.0071
55.7271
51.2402
46.9783
44.1133
41.8464
40.2665
40.3451
40.842
43.5923
46.6944
51.3463
54.7707
59.7656
64.8908
71.0728
75.9772
79.5682
83.1978
86.3794
87.8608
88.8085
88.7233
88.2183
87.2934
87.3355
86.1496
86.6025
85.925
85.4902
82.4338
78.8098
66.3369
57.128
24.6364
61.8407
56.5925
48.046
42.4966
39.7202
38.901
42.506
48.0384
54.6534
63.0571
72.1252
80.4942
86.9023
92.0452
96.0799
99.4791
102.208
103.129
102.621
103.033
102.83
99.3349
93.3288
86.7041
79.9577
73.7795
68.5327
63.7147
60.3537
57.8485
55.3564
53.0279
51.6964
51.1961
50.6805
50.336
50.7947
52.0548
54.0128
56.6357
59.3738
61.8705
64.5561
67.5745
70.4624
72.8809
74.5355
75.0696
74.4668
72.8183
70.4872
67.7749
64.6212
61.1937
58.0465
54.7511
51.245
47.1053
41.6705
35.6902
29.4218
22.693
16.2282
10.6897
6.74719
4.57883
3.74933
4.78534
7.46106
11.8075
17.6332
23.9389
31.2303
38.7589
45.9323
52.7454
58.5728
64.2652
69.851
74.2163
77.8442
81.6545
84.6221
86.5225
88.3404
89.6213
90.4841
91.1241
91.4204
91.4942
91.7713
91.9943
92.0365
92.0061
91.7101
91.2251
90.7662
90.1458
89.4008
88.525
87.5415
86.1385
84.1039
82.2217
80.167
77.0557
74.3132
72.0909
68.7796
66.0214
64.7863
63.4408
62.618
63.3653
64.8089
66.6722
69.0425
71.731
74.2903
76.4681
78.1182
79.113
79.2035
77.9147
75.3132
71.8362
67.7635
63.2198
58.3438
52.7158
46.3766
40.1917
34.5653
29.7065
25.7705
23.1121
22.2663
23.7704
26.3631
28.8976
31.7625
34.8895
39.3063
45.2737
51.4305
56.8881
62.4212
67.7142
71.5716
74.0751
76.5481
78.4999
80.6979
82.4876
83.2975
83.613
83.7422
83.2424
82.5575
81.0599
79.229
77.1597
74.3156
70.6948
66.6205
61.9076
56.9139
52.3886
48.187
45.3791
43.1248
41.4377
41.622
42.0668
44.7694
47.4525
51.9338
55.125
60.0708
65.0836
71.2023
76.0025
79.5918
83.2422
86.3937
87.7108
88.3811
88.0191
87.6086
86.459
86.5118
84.901
86.0727
84.4901
85.0824
80.4548
77.8663
62.941
53.46
26.7328
61.8851
57.9737
50.8687
45.6221
43.5493
43.2386
46.2309
51.5406
57.7969
65.313
73.2137
81.0024
86.8573
91.6095
95.4363
98.6402
101.209
102.147
101.77
101.95
101.637
98.7435
93.5386
87.8805
81.7064
75.7974
70.8556
66.3753
62.8657
60.1898
57.9091
55.8115
54.4405
53.8655
53.5679
53.5737
54.0864
55.202
57.0329
59.554
62.1763
64.5306
67.0248
69.8506
72.6301
74.8977
76.3298
76.6749
75.8888
74.0306
71.5605
68.6324
65.2292
61.7103
58.5496
55.1311
51.384
46.9776
41.1704
34.7979
28.1037
20.9322
14.1008
8.33837
4.27092
2.00429
1.2037
2.28559
5.07498
9.76283
15.8077
22.3344
30.0282
37.9212
45.4184
52.4404
58.3975
64.2251
69.8871
74.2106
77.9773
81.9877
84.9152
86.8437
88.7582
90.0471
90.8515
91.4711
91.7434
91.7959
92.0033
92.1801
92.2479
92.1825
91.8475
91.4397
90.9713
90.2954
89.5886
88.8036
87.8904
86.529
84.6818
82.9707
81.012
78.2691
75.9752
73.8705
70.7367
68.49
67.5423
66.2222
65.5818
66.5305
68.0106
69.8699
72.2044
74.7793
77.176
79.1804
80.6063
81.3075
81.0777
79.383
76.3282
72.4446
67.9802
63.1766
58.0642
52.1733
45.6143
39.2587
33.5308
28.6332
24.6865
22.0856
21.3522
22.9677
25.7211
28.5676
31.5479
34.6089
39.0299
44.8978
50.9774
56.4807
62.2799
67.5358
71.2565
73.7513
76.3735
78.41
80.6562
82.4975
83.3477
83.6801
83.8525
83.3235
82.7451
81.4906
79.8075
77.6676
75.0293
71.4073
67.5937
62.7696
58.0978
53.4783
49.4481
46.6246
44.4122
42.5835
42.8509
43.2918
45.918
48.1926
52.4833
55.4441
60.3007
65.1355
71.0973
75.8736
79.5322
83.3161
86.3434
87.5413
87.8629
87.1488
86.9265
85.3476
85.3864
83.4559
85.7672
82.9311
85.0983
77.9783
77.2252
60.3205
49.6628
27.6879
61.8789
58.7898
53.4152
48.6837
46.8877
47.081
49.6175
54.5349
60.3981
67.1271
74.0867
81.3292
86.8252
91.1921
94.9002
97.8774
100.211
101.113
100.736
100.776
100.542
97.8836
93.4084
88.8343
83.2408
77.7248
73.2374
69.1257
65.4662
62.6611
60.574
58.7549
57.3163
56.5662
56.3733
56.6276
57.2069
58.2408
59.9447
62.3371
64.8116
67.0297
69.4051
72.0858
74.7366
76.8686
78.1028
78.2733
77.3009
75.2809
72.6804
69.4943
65.8702
62.334
59.1613
55.5693
51.5673
46.8774
40.7728
34.0352
26.8852
19.3148
12.2142
6.28663
2.1129
-0.244418
-1.02207
0.0678173
2.94088
7.90934
14.1587
20.9434
28.9767
37.1629
44.9896
52.2354
58.3392
64.2953
69.9801
74.2369
78.173
82.3471
85.2007
87.2037
89.2058
90.4865
91.2226
91.8279
92.0597
92.0929
92.2402
92.3833
92.4681
92.3644
91.9924
91.6504
91.1869
90.4801
89.7917
89.0525
88.1834
86.8924
85.27
83.6821
81.7911
79.4496
77.5363
75.4584
72.556
70.8144
70.0721
68.7931
68.3756
69.5225
71.0248
72.8776
75.2036
77.6959
79.9843
81.8432
83.1014
83.5474
83.0521
80.9475
77.4655
73.1885
68.3824
63.295
57.9781
51.8317
45.0947
38.5592
32.7631
27.8329
23.8778
21.3434
20.7111
22.4067
25.2684
28.3591
31.4348
34.5345
39.0055
44.7503
50.7116
56.2986
62.2975
67.4583
71.0158
73.5224
76.3017
78.4942
80.7229
82.6289
83.4035
83.83
84.038
83.4871
83.105
81.9779
80.3235
78.1544
75.6757
72.1636
68.5932
63.6658
59.3262
54.5834
50.7425
47.8418
45.7199
43.7441
44.0469
44.5001
47.0497
48.9288
53.0224
55.7005
60.4764
65.1254
70.7625
75.5003
79.1625
83.0921
86.2273
87.2708
87.2908
86.1444
85.9586
83.5138
83.8718
81.9633
84.6962
80.8582
85.2987
75.2298
76.1271
58.0112
45.2648
27.1506
62.0631
59.4357
55.3568
51.3632
49.6451
50.0696
52.5365
56.9581
62.4287
68.5059
74.7816
81.5357
86.7686
90.736
94.3587
97.1167
99.2849
100.118
99.6555
99.7143
99.5369
96.9669
93.2599
89.5776
84.5477
79.5424
75.5415
71.7486
68.0633
65.3038
63.5392
61.7297
60.2451
59.3113
59.1006
59.4956
60.1649
61.1559
62.7329
64.9686
67.2834
69.3809
71.67
74.2574
76.7835
78.7871
79.8302
79.8597
78.6951
76.5755
73.8248
70.3564
66.5662
63.0573
59.8504
56.0077
51.794
46.7923
40.4635
33.4179
25.8406
17.8952
10.5868
4.55154
0.307468
-2.13848
-2.90239
-1.82797
1.11231
6.2948
12.7308
19.7932
28.1059
36.5393
44.6798
52.1312
58.3768
64.4672
70.1332
74.3059
78.4324
82.7336
85.4864
87.5851
89.6509
90.9317
91.6122
92.2114
92.3852
92.3923
92.4856
92.6078
92.708
92.5688
92.163
91.8538
91.4214
90.7195
90.0087
89.2737
88.4316
87.236
85.8567
84.3613
82.5423
80.5824
78.9674
76.8845
74.2619
72.9764
72.3654
71.158
70.9936
72.2899
73.8205
75.6932
78.0277
80.4708
82.6644
84.4386
85.5573
85.8338
85.0894
82.6274
78.6975
74.0574
68.953
63.6156
58.0885
51.7194
44.8018
38.096
32.2433
27.2915
23.3345
20.8672
20.327
22.0642
24.9773
28.2474
31.4434
34.6705
39.2379
44.814
50.648
56.364
62.4051
67.4434
70.8159
73.3598
76.3333
78.7074
80.9026
82.8434
83.5433
84.1077
84.2982
83.8517
83.5483
82.3512
80.7409
78.6817
76.4088
72.9972
69.5613
64.7517
60.6615
55.7053
52.0446
49.0815
47.0763
44.9273
45.2314
45.7134
48.1606
49.6533
53.5297
55.9498
60.551
65.1293
70.4378
75.0774
78.6094
82.2812
85.8462
86.5753
86.5061
84.9296
84.571
81.2863
81.8022
79.6747
83.0158
78.7856
84.3162
71.5371
74.0887
55.7275
40.4002
26.0715
63.2481
60.6595
57.0905
53.7181
52.0331
52.4583
55.06
59.054
64.0416
69.6847
75.349
81.6183
86.5469
90.1838
93.7274
96.2885
98.3285
99.1559
98.6405
98.7308
98.5712
96.2495
93.1886
90.0213
85.5882
81.1819
77.6015
74.1016
70.595
67.9682
66.1898
64.5664
63.1321
62.0581
61.76
62.1851
62.9393
63.915
65.3928
67.4695
69.6107
71.5732
73.8013
76.3328
78.7547
80.6193
81.5249
81.3932
80.0754
77.9003
74.9579
71.2015
67.3205
63.8522
60.5531
56.4591
52.0545
46.7482
40.2441
32.9502
25.0062
16.7203
9.24829
3.14073
-1.14317
-3.6823
-4.45101
-3.38074
-0.386811
4.93733
11.5243
18.8572
27.3911
36.0571
44.4972
52.1269
58.5122
64.7476
70.3234
74.4411
78.7983
83.1237
85.7559
87.9962
90.1227
91.4047
92.0311
92.6065
92.7125
92.687
92.7418
92.8589
92.9781
92.8055
92.3696
92.0484
91.6707
91
90.2373
89.4938
88.6613
87.5634
86.412
85.0041
83.2646
81.6509
80.2677
78.1841
75.8658
74.9628
74.4329
73.3271
73.4169
74.828
76.3972
78.3179
80.6288
83.0585
85.2053
86.9357
87.9596
88.1258
87.168
84.4158
80.0243
75.0431
69.6635
64.1324
58.3872
51.8466
44.7358
37.8769
31.9762
26.9958
23.0546
20.6478
20.1642
21.8998
24.8289
28.2514
31.5875
35.0134
39.7006
45.0772
50.8488
56.683
62.5855
67.498
70.6706
73.3044
76.4992
79.0157
81.2318
83.1499
83.8736
84.5213
84.6521
84.3442
83.9836
82.7681
81.2741
79.3905
77.2564
73.9175
70.6112
66.1186
62.0529
56.8789
53.4104
50.4216
48.5001
46.1425
46.4136
46.9662
49.2673
50.3744
53.9407
56.1479
60.4824
65.1249
70.2004
74.7077
78.1691
81.1042
84.7605
85.2719
85.2254
83.3728
82.9511
79.5642
79.7489
77.0174
78.8156
74.9894
83.1861
67.2351
69.7886
52.692
36.2401
25.3967
64.4398
62.0247
58.7175
55.7544
54.3104
54.6588
57.2619
61.0363
65.4831
70.7805
75.9106
81.6281
86.2508
89.5201
92.9951
95.4072
97.2347
98.2041
97.7281
97.7247
97.7186
95.7973
92.9644
90.1051
86.4094
82.5952
79.2881
76.0612
72.9147
70.4762
68.616
67.1682
65.8371
64.7082
64.306
64.6833
65.5232
66.5036
67.913
69.8284
71.7786
73.6279
75.802
78.2824
80.6233
82.3457
83.1605
82.8701
81.4463
79.2051
76.0446
72.0091
68.0991
64.7111
61.2202
56.9542
52.3536
46.7583
40.1176
32.6285
24.3714
15.8486
8.21724
2.06373
-2.25521
-4.90642
-5.68754
-4.59482
-1.55794
3.8579
10.5653
18.1402
26.8666
35.7687
44.446
52.201
58.7474
65.1104
70.5525
74.67
79.2322
83.4978
86.0722
88.4621
90.6195
91.8801
92.4647
93.0055
93.0531
92.9884
93.0282
93.1462
93.2768
93.0743
92.6138
92.243
91.9209
91.2992
90.4859
89.7389
88.8852
87.8815
86.9347
85.6046
83.9586
82.6562
81.4432
79.3857
77.3742
76.7826
76.2756
75.2991
75.665
77.1463
78.7265
80.7239
83.0494
85.4532
87.5929
89.2818
90.2841
90.3749
89.3023
86.2613
81.4812
76.1205
70.5116
64.7936
58.879
52.1945
44.914
37.9338
31.9664
26.9629
23.0316
20.6667
20.2031
21.8985
24.8253
28.376
31.8648
35.571
40.3396
45.5513
51.305
57.1832
62.8479
67.5835
70.5871
73.4045
76.818
79.4394
81.7004
83.571
84.3696
84.9958
85.0879
84.9066
84.5587
83.3972
81.9174
80.172
78.0829
74.9791
71.8178
67.6243
63.4608
58.1806
54.8723
51.8834
49.9799
47.4041
47.5915
48.2447
50.3454
51.0716
54.2465
56.2621
60.154
65.0282
69.8631
74.3124
77.6858
80.0283
82.9202
83.5189
83.5759
81.6994
81.1774
77.9844
77.6723
74.673
74.791
70.5346
75.7894
60.5747
62.8862
48.4163
33.9652
25.9842
65.5542
63.2798
60.2915
57.6509
56.4459
56.7297
59.1708
62.8079
66.7841
71.7318
76.4663
81.5973
86.0268
88.9373
92.205
94.5356
96.1028
97.2487
96.8909
96.7462
96.9525
95.3524
92.55
90.0702
87.1097
83.7078
80.5464
77.6188
74.9699
72.7227
70.7937
69.483
68.2913
67.2268
66.7586
67.0559
67.9197
68.9071
70.2806
72.0645
73.7953
75.5443
77.6841
80.1031
82.3386
83.9547
84.6909
84.2708
82.7941
80.4706
77.0541
72.766
68.8731
65.6124
61.864
57.5039
52.7294
46.866
40.093
32.4421
23.9465
15.3278
7.54012
1.31743
-3.04914
-5.82395
-6.62425
-5.488
-2.39725
3.04384
9.82229
17.6422
26.5819
35.6775
44.5138
52.3926
59.1088
65.5463
70.8182
74.9935
79.7497
83.8977
86.4275
88.9443
91.1471
92.3614
92.9191
93.4055
93.409
93.3002
93.342
93.4669
93.5833
93.3483
92.8674
92.4393
92.1623
91.597
90.7647
90.016
89.126
88.1931
87.4016
86.1585
84.6345
83.5852
82.4994
80.4949
78.8019
78.4338
77.8991
77.1221
77.7335
79.2246
80.8481
82.9265
85.2649
87.6553
89.8252
91.5118
92.5251
92.5932
91.4667
88.1564
83.0364
77.2923
71.4685
65.5782
59.5287
52.744
45.3492
38.2755
32.2432
27.2054
23.2949
20.9255
20.4328
22.0633
24.9766
28.6482
32.299
36.3056
41.0867
46.2126
51.9515
57.7724
63.1512
67.6195
70.5976
73.6997
77.2882
80.0073
82.2521
84.0791
84.9024
85.4311
85.5859
85.5437
85.2597
84.0941
82.5876
80.9879
78.9158
76.1334
73.0294
69.0738
64.8862
59.646
56.4051
53.4129
51.462
48.6907
48.792
49.5563
51.3683
51.6613
54.36
56.3135
59.6027
64.8536
69.4025
73.8166
76.9766
79.0997
81.1304
81.6926
81.8358
80.0045
79.0941
75.9248
75.3436
72.0537
71.5144
67.5922
65.5426
53.528
51.2575
42.7806
33.6406
27.9715
66.4736
64.341
61.6642
59.3602
58.315
58.6037
60.8743
64.3344
67.9082
72.5106
76.9363
81.4973
85.7425
88.5037
91.5134
93.7719
95.0686
96.3128
96.2108
95.8561
96.1508
94.7664
92.1385
90.0806
87.6585
84.5491
81.5418
78.9335
76.7405
74.6083
72.7205
71.513
70.4966
69.6052
69.0882
69.2865
70.1059
71.1355
72.4956
74.1366
75.6633
77.3109
79.4356
81.7827
83.8965
85.4275
86.0928
85.5932
84.0699
81.677
77.9896
73.4605
69.6153
66.5033
62.4905
58.1054
53.1706
47.0956
40.2003
32.4236
23.7386
15.0979
7.23356
0.927114
-3.53343
-6.44154
-7.24683
-6.03919
-2.89428
2.53476
9.34688
17.3831
26.5206
35.7636
44.7214
52.701
59.5672
66.0272
71.1371
75.4515
80.3249
84.2701
86.8072
89.4564
91.6973
92.8319
93.38
93.8057
93.774
93.6296
93.6819
93.805
93.8696
93.5955
93.1083
92.6484
92.3891
91.8793
91.0588
90.3108
89.3945
88.4931
87.8118
86.6762
85.301
84.4422
83.442
81.5256
80.1442
79.9167
79.3575
78.8105
79.6181
81.0924
82.7669
84.9263
87.2736
89.6651
91.8897
93.6215
94.6844
94.8076
93.6405
90.1067
84.6341
78.565
72.5129
66.4608
60.3009
53.4578
46.0294
38.8822
32.8081
27.7494
23.8509
21.459
20.8945
22.4444
25.334
29.1031
32.9026
37.1881
41.9248
47.0358
52.7299
58.4126
63.5301
67.6941
70.7687
74.1765
77.9325
80.708
82.8902
84.6345
85.4079
85.9597
86.2325
86.1772
85.8917
84.8285
83.4061
81.9208
79.8335
77.2636
74.1546
70.3771
66.3637
61.2231
57.9662
54.9337
52.9188
50.0258
50.0395
50.8724
52.3034
52.1602
54.2765
56.3448
58.9638
64.681
68.9068
73.2668
76.1692
77.9652
79.5909
80.1381
80.1227
78.2118
76.6702
73.901
72.8285
69.1147
67.5616
62.6006
57.8548
50.69
43.6721
38.571
34.7504
30.4908
67.2059
65.2487
62.8404
60.8507
60.0233
60.3016
62.2904
65.6025
68.8836
73.1495
77.2805
81.3997
85.3766
88.0168
90.8667
93.1068
94.1897
95.4058
95.5053
95.0362
95.2944
94.1632
91.8671
90.0674
88.1013
85.3653
82.4464
80.0578
78.2007
76.1852
74.4179
73.2333
72.4063
71.7363
71.1843
71.3272
72.1179
73.1609
74.5111
76.0192
77.3823
78.9375
81.0412
83.321
85.2859
86.7515
87.3427
86.8105
85.2452
82.77
78.8471
74.1188
70.3087
67.3269
63.1192
58.7343
53.673
47.4221
40.4809
32.6291
23.7321
15.1001
7.25559
0.908948
-3.66609
-6.71479
-7.53583
-6.22977
-3.02867
2.35093
9.16138
17.4287
26.7259
36.0325
45.0624
53.1417
60.135
66.5583
71.5351
75.9965
80.9069
84.6431
87.241
89.9845
92.2404
93.2922
93.8519
94.2117
94.1356
93.9793
94.0318
94.1589
94.1494
93.8105
93.3335
92.8803
92.6171
92.1527
91.3445
90.6071
89.6737
88.7717
88.1717
87.1685
85.964
85.2361
84.2737
82.4882
81.394
81.25
80.6736
80.367
81.3365
82.7686
84.5055
86.7402
89.0804
91.4572
93.7585
95.5893
96.7619
97.0021
95.8025
92.0843
86.2367
79.9009
73.6282
67.4312
61.1691
54.321
46.8806
39.7488
33.6032
28.5745
24.7052
22.2834
21.6497
23.1002
25.9406
29.771
33.6916
38.1792
42.8455
47.968
53.583
59.0657
63.9377
67.8393
71.0828
74.8117
78.7453
81.4894
83.5974
85.1388
85.9287
86.6558
86.9649
86.8097
86.542
85.6718
84.3092
82.894
80.8246
78.3367
75.2383
71.6131
67.8745
62.8562
59.5646
56.4275
54.3436
51.4373
51.3322
52.1722
53.1227
52.6278
54.0913
56.488
58.4971
64.5794
68.559
72.6792
75.4203
76.5246
77.6682
78.6563
78.513
76.5561
74.4752
71.851
69.6944
66.6506
64.1534
57.6197
52.5342
48.438
40.4876
40.1503
37.4405
32.9655
67.8616
66.0682
63.9584
62.2319
61.5075
61.8023
63.5273
66.7001
69.7599
73.7074
77.5236
81.2583
85.0359
87.4905
90.1387
92.3541
93.3827
94.5492
94.754
94.1549
94.4351
93.6328
91.6653
89.9806
88.4516
86.0881
83.2364
81.0639
79.4348
77.6117
75.9413
74.7228
74.1061
73.6255
73.0848
73.2307
73.9782
74.9883
76.3619
77.771
78.9702
80.4369
82.4803
84.6852
86.5036
87.8903
88.4358
87.885
86.303
83.7076
79.601
74.7624
70.9803
68.0142
63.769
59.3564
54.2333
47.8358
40.9333
33.059
23.9712
15.3616
7.58041
1.24325
-3.42057
-6.58892
-7.39507
-6.03389
-2.78509
2.51406
9.32772
17.8114
27.1577
36.4633
45.577
53.7245
60.773
67.123
72.0056
76.621
81.5072
85.0391
87.7274
90.5359
92.7681
93.7363
94.3218
94.6066
94.4824
94.3396
94.3758
94.523
94.4417
94.0234
93.5541
93.1313
92.8469
92.3861
91.5875
90.8834
89.9505
89.0341
88.5113
87.6539
86.6088
85.9689
85.0056
83.3856
82.5505
82.4413
81.8608
81.7992
82.8921
84.2712
86.077
88.3537
90.6823
93.0696
95.4303
97.3981
98.7153
99.1324
97.9271
94.0519
87.8546
81.2619
74.8045
68.4948
62.1396
55.2976
47.9025
40.7877
34.6271
29.595
25.8037
23.3992
22.7218
24.0861
26.8347
30.673
34.6467
39.2458
43.8377
49.0083
54.5133
59.6774
64.337
68.0998
71.5388
75.6589
79.6815
82.3548
84.3998
85.6816
86.5772
87.3954
87.7295
87.6285
87.3523
86.5047
85.1523
83.8345
81.8396
79.3821
76.3599
72.8782
69.3833
64.5311
61.2035
57.8967
55.7498
52.9143
52.6343
53.4678
53.8422
53.1121
53.9287
56.749
58.4793
64.6316
68.4446
72.1716
74.4439
75.0311
75.5065
76.9379
77.1676
74.9727
72.6318
70.0032
66.9975
64.5935
60.8105
54.7376
50.7947
48.9073
41.6719
45.1796
40.8613
35.1021
68.4264
66.791
64.9882
63.5063
62.8422
63.1325
64.6463
67.6725
70.4804
74.1272
77.7532
81.0567
84.665
87.035
89.4913
91.6078
92.5435
93.6904
94.074
93.6411
93.6908
93.2113
91.4666
89.8294
88.652
86.6518
84.0458
82.0472
80.5528
79.0157
77.4153
76.1968
75.7471
75.3284
74.8556
75.0599
75.7407
76.7023
78.0995
79.41
80.438
81.7952
83.7529
85.8303
87.5357
88.8283
89.3444
88.7802
87.2033
84.4614
80.2278
75.3688
71.6246
68.5999
64.3939
59.9417
54.8646
48.3188
41.5116
33.6805
24.5006
15.9614
8.20265
1.88893
-2.7959
-6.04895
-6.84318
-5.46074
-2.16806
3.08417
9.89823
18.5097
27.7786
37.0693
46.2717
54.404
61.4773
67.7373
72.5675
77.3061
82.0888
85.4528
88.2609
91.095