/*--------------------------------*- C++ -*----------------------------------*\
| =========                 |                                                 |
| \\      /  F ield         | OpenFOAM: The Open Source CFD Toolbox           |
|  \\    /   O peration     | Version:  2.4.0                                 |
|   \\  /    A nd           | Web:      www.OpenFOAM.org                      |
|    \\/     M anipulation  |                                                 |
\*---------------------------------------------------------------------------*/
FoamFile
{
    version     2.0;
    format      ascii;
    class       volScalarField;
    location    "0.106";
    object      k_0;
}
// * * * * * * * * * * * * * * * * * * * * * * * * * * * * * * * * * * * * * //

dimensions      [0 2 -2 0 0 0 0];

internalField   nonuniform List<scalar> 
4400
(
9.52929
8.50167
6.52529
5.26913
4.67228
4.185
4.00599
3.82758
3.55731
3.5867
4.4005
6.77316
6.75595
6.26259
5.75475
5.18414
4.96277
4.74262
4.44706
4.43596
1.15683
3.15978
4.25017
4.50572
4.48841
4.27112
4.135
3.97835
3.83975
3.70405
0.161214
0.926769
1.74796
2.2792
2.69626
2.79708
2.86318
2.86313
2.8676
2.76355
0.0169416
0.14808
0.441933
0.723224
1.08291
1.34959
1.51389
1.66532
1.76565
1.79072
0.00143808
0.0168155
0.0591
0.137759
0.225477
0.415609
0.506228
0.680392
0.762881
0.919701
0.000132707
0.00149518
0.00495402
0.0138424
0.0262183
0.067192
0.0929953
0.159751
0.200166
0.298724
3.83414e-05
0.000180419
0.000458509
0.0010984
0.00193548
0.00584863
0.00852366
0.0185532
0.0272997
0.0474612
3.35645e-05
0.000120371
0.0001907
0.00025059
0.000286404
0.000495813
0.000599109
0.00131311
0.00206798
0.003028
3.3803e-05
0.000121474
0.000169101
0.0002038
0.000216008
0.000215856
0.000216718
0.000256764
0.000295074
0.000322922
3.37497e-05
0.00011811
0.000168156
0.000211818
0.000220962
0.000213265
0.000210469
0.000214446
0.000231274
0.000291425
3.4592e-05
0.000124004
0.000206229
0.000238207
0.000337539
0.000359025
0.00047199
0.000800957
0.00139753
0.00303257
4.0811e-05
0.000281842
0.000452843
0.000823944
0.00251394
0.00381655
0.00689997
0.0158248
0.0244025
0.049049
0.000137716
0.00167304
0.00452225
0.011023
0.0342135
0.0537023
0.0852507
0.157131
0.198821
0.310433
0.00147591
0.0179538
0.054088
0.11867
0.271921
0.37315
0.51348
0.681254
0.762654
0.948155
0.0173629
0.159262
0.413046
0.726446
1.11542
1.30916
1.52482
1.67118
1.73964
1.87787
0.164835
0.949726
1.7044
2.30574
2.69212
2.78019
2.87147
2.85515
2.85593
2.87222
1.17724
3.16281
4.2083
4.53711
4.47574
4.26758
4.14836
3.92689
3.87575
3.7914
4.41461
6.76378
6.72972
6.31097
5.68371
5.2226
4.97847
4.64278
4.57349
4.34493
9.54083
8.49499
6.50174
5.31219
4.6128
4.21939
4.01321
3.73203
3.65705
3.29396
2.07923
1.36224
1.06166
0.832949
0.771722
0.783754
0.77068
0.795707
0.821632
0.975985
1.09169
0.882162
0.807537
0.716239
0.581404
0.475749
0.4074
0.367145
0.370041
0.426331
0.528181
0.543702
0.526482
0.47513
0.403585
0.249486
0.116583
0.0581715
0.0318672
0.0249082
0.0232511
0.0235434
0.0273725
0.043692
0.100281
0.191359
0.218212
0.214067
0.197525
0.149649
0.121274
0.137895
0.224508
0.275105
0.269294
0.229867
0.186174
0.157308
0.144696
0.140544
0.142578
0.15187
0.157153
0.153897
0.15889
0.15712
0.158312
0.142525
0.138999
0.136647
0.120871
0.115931
0.254801
0.409462
0.37089
0.313002
0.316142
0.289553
0.218069
0.177917
0.17456
0.176741
0.18178
0.198748
0.196514
0.166825
0.113013
0.0683268
0.0562224
0.0429446
0.0445166
0.0408963
0.0422524
0.0390648
0.0425346
0.0420974
0.0525452
0.0537297
0.0669269
0.065406
0.0766845
0.0771005
0.0926932
0.0969894
0.126083
0.100746
0.0997166
0.0547274
0.0939477
0.429271
3.4517
2.45415
1.94338
1.6164
1.29141
1.21577
1.13187
1.04873
1.05909
1.04514
1.09719
1.18947
1.03826
0.876508
0.689881
0.557972
0.517057
0.522028
0.564887
0.605387
0.596727
0.575701
0.503367
0.380517
0.213541
0.0998704
0.050499
0.0291736
0.0219634
0.0219649
0.022419
0.0256071
0.0385653
0.0822737
0.200121
0.271551
0.284492
0.274118
0.251597
0.200682
0.138194
0.137023
0.169592
0.244222
0.258581
0.244445
0.210355
0.177006
0.156049
0.153781
0.159906
0.164267
0.161534
0.154723
0.160332
0.161182
0.161243
0.1472
0.150079
0.148776
0.139223
0.129063
0.298538
0.384809
0.341112
0.243592
0.22285
0.230997
0.191299
0.159183
0.158595
0.163818
0.171739
0.193279
0.191353
0.169507
0.120398
0.0709836
0.0607214
0.044754
0.0448215
0.0412489
0.0394168
0.0349127
0.0354032
0.0363631
0.043843
0.0477946
0.0625617
0.0623756
0.0731431
0.0728264
0.0972407
0.0950454
0.164584
0.134531
0.159758
0.0876393
0.119051
0.315092
3.16114
2.59073
2.0858
1.91471
1.54489
1.34561
1.25723
1.09657
1.09204
1.11046
1.09369
1.23132
1.16202
1.03946
0.986617
0.857942
0.789497
0.763858
0.741578
0.67709
0.591457
0.513588
0.342348
0.171662
0.0838745
0.0421685
0.0263751
0.0202532
0.0201963
0.021676
0.0251628
0.0362253
0.0688972
0.181288
0.307729
0.341755
0.33158
0.299527
0.277071
0.24972
0.175321
0.141216
0.148611
0.203191
0.23762
0.237584
0.226018
0.196696
0.179765
0.174404
0.176663
0.17176
0.16216
0.15689
0.160882
0.165967
0.164069
0.151969
0.159232
0.164652
0.16583
0.164824
0.353246
0.393117
0.344593
0.24646
0.176173
0.178088
0.161207
0.141805
0.143273
0.151275
0.161779
0.187857
0.185875
0.169901
0.128954
0.0756959
0.0651216
0.0474291
0.0454758
0.0404387
0.0359714
0.032452
0.0325813
0.0334609
0.0388853
0.0440758
0.0591017
0.0603737
0.0681206
0.0681573
0.0809995
0.0856184
0.137222
0.149362
0.250849
0.142616
0.16042
0.236947
2.43615
2.15557
1.81031
1.70317
1.54357
1.27627
1.15669
0.99706
0.913602
0.960628
0.965224
1.08332
1.09657
1.03151
1.00871
0.957256
0.868075
0.781037
0.724578
0.590909
0.445777
0.283496
0.142898
0.0700956
0.0350892
0.0227076
0.0193682
0.0188276
0.0209083
0.0277787
0.0378805
0.0634899
0.13559
0.322564
0.397462
0.390139
0.345757
0.300742
0.274451
0.257696
0.215769
0.152377
0.147402
0.163771
0.209599
0.2236
0.221958
0.207011
0.19756
0.189153
0.185034
0.1707
0.161821
0.160819
0.16654
0.172092
0.168236
0.15621
0.163273
0.186749
0.177897
0.228658
0.389522
0.404672
0.365457
0.272554
0.166646
0.142531
0.125006
0.123863
0.128007
0.139265
0.151808
0.181947
0.179711
0.168508
0.134443
0.0813781
0.0673974
0.0507995
0.0468647
0.0390932
0.0348541
0.0316019
0.0317032
0.0322686
0.0365642
0.0419758
0.0571757
0.0600858
0.0637284
0.0651584
0.0674586
0.0719011
0.0790375
0.106182
0.212705
0.232803
0.213605
0.223947
1.64097
1.46341
1.29955
1.23243
1.19415
1.07747
0.915852
0.793453
0.663392
0.667475
0.690132
0.763967
0.883357
0.875022
0.87053
0.847726
0.771173
0.6426
0.534365
0.396383
0.234128
0.119442
0.0573912
0.0295836
0.0193011
0.0181245
0.0185209
0.02082
0.0311716
0.0483968
0.067231
0.114844
0.27483
0.437938
0.452165
0.411147
0.328057
0.278186
0.2566
0.249193
0.2311
0.176627
0.150248
0.152259
0.172725
0.202739
0.212638
0.207454
0.199091
0.194515
0.185591
0.168109
0.16291
0.165254
0.17838
0.183722
0.181513
0.16153
0.174816
0.197559
0.180065
0.249602
0.362581
0.416463
0.409268
0.309547
0.169351
0.122622
0.10501
0.107309
0.1143
0.129413
0.142576
0.176087
0.174007
0.166866
0.139591
0.087956
0.0702924
0.0529204
0.0486399
0.039454
0.0361675
0.0321512
0.0323399
0.0325156
0.0361265
0.0414207
0.0595467
0.0627612
0.0705731
0.0681498
0.0752377
0.0746739
0.0799207
0.0911731
0.208206
0.227554
0.237786
0.230858
0.846491
0.719387
0.662037
0.659506
0.678298
0.675168
0.625289
0.548293
0.402823
0.370729
0.381881
0.415687
0.525177
0.563799
0.564294
0.556919
0.509915
0.411966
0.312099
0.183562
0.0922603
0.0435467
0.0234265
0.0167143
0.0164451
0.0184855
0.0234096
0.0344353
0.0636377
0.0876155
0.118197
0.200034
0.425179
0.51528
0.482235
0.377053
0.289485
0.246727
0.223116
0.224416
0.222827
0.2019
0.158787
0.149334
0.15486
0.169069
0.192862
0.199765
0.195419
0.191328
0.176319
0.168554
0.168153
0.180276
0.197173
0.197679
0.19659
0.167008
0.184619
0.185571
0.170197
0.237122
0.341539
0.485143
0.446538
0.309353
0.16495
0.112417
0.0933432
0.0959325
0.103668
0.12205
0.135524
0.17233
0.170844
0.166628
0.14305
0.0920182
0.0769844
0.05539
0.0512164
0.0407576
0.0394929
0.0352204
0.0368924
0.0357017
0.0386782
0.0434458
0.0619296
0.0687688
0.0837821
0.0780917
0.0878207
0.0827877
0.0906069
0.0971063
0.126033
0.217532
0.219826
0.22776
0.268039
0.209687
0.203413
0.209854
0.268375
0.298715
0.287753
0.264309
0.175883
0.134775
0.138773
0.150765
0.197094
0.255551
0.260562
0.259549
0.240677
0.186581
0.114484
0.0603473
0.0297224
0.0168828
0.0145988
0.0150935
0.019635
0.0335161
0.04742
0.0764578
0.124899
0.150597
0.195389
0.346123
0.561063
0.587791
0.487928
0.334018
0.263682
0.229659
0.207964
0.20281
0.207012
0.202769
0.177738
0.152068
0.152829
0.157032
0.164008
0.179036
0.174944
0.174786
0.17023
0.173348
0.178402
0.207266
0.216827
0.214851
0.210518
0.170022
0.177176
0.168655
0.153438
0.218591
0.360313
0.540711
0.444918
0.255584
0.14983
0.104473
0.0862457
0.0889424
0.0962423
0.116756
0.129506
0.170279
0.169805
0.166152
0.148068
0.0969384
0.0840942
0.0587611
0.0552677
0.0441129
0.043833
0.0409818
0.0428138
0.0421787
0.0453165
0.0488178
0.064496
0.0726173
0.0919659
0.0906659
0.0995664
0.0982705
0.107068
0.107783
0.112083
0.16978
0.242249
0.239075
0.0413159
0.0317982
0.0325922
0.0377268
0.0741762
0.0978902
0.0940296
0.0837472
0.0502113
0.0316165
0.0312858
0.0322071
0.040752
0.0718715
0.0814096
0.0818424
0.0766318
0.0584145
0.0318732
0.0166828
0.0114761
0.0119196
0.0148359
0.022572
0.0462087
0.0776187
0.102385
0.161278
0.213513
0.241051
0.300762
0.522889
0.656652
0.619797
0.415809
0.308303
0.24898
0.218966
0.211394
0.195753
0.197616
0.199208
0.194269
0.163904
0.155849
0.158698
0.159678
0.170554
0.170151
0.176431
0.178317
0.190794
0.202416
0.239442
0.240649
0.231862
0.219703
0.172942
0.155189
0.143223
0.14036
0.198351
0.477863
0.554462
0.311356
0.187427
0.144555
0.0993354
0.0821832
0.0844327
0.0914523
0.113266
0.125426
0.168765
0.170029
0.16396
0.14896
0.103557
0.0928392
0.0651008
0.0608294
0.0482493
0.0492998
0.0459542
0.0484544
0.047169
0.0531043
0.0552223
0.0744976
0.0806004
0.102229
0.101047
0.112387
0.109674
0.116433
0.11275
0.106157
0.126682
0.169194
0.228031
0.0027103
0.00263982
0.00303796
0.00447056
0.0135608
0.0197949
0.0184326
0.0140035
0.00770507
0.00438184
0.00387463
0.00384143
0.00501206
0.0123351
0.0178156
0.0178126
0.0164698
0.0110921
0.00762537
0.0077022
0.00954781
0.0178254
0.0353806
0.0600243
0.118998
0.156687
0.200796
0.292644
0.328588
0.351105
0.42743
0.671156
0.696361
0.592132
0.360772
0.293985
0.231643
0.21479
0.214182
0.200036
0.199904
0.199341
0.199977
0.18958
0.166095
0.166859
0.164114
0.173874
0.176434
0.187585
0.194574
0.220139
0.241301
0.270459
0.26457
0.24106
0.222849
0.181647
0.134042
0.118666
0.130664
0.20558
0.551648
0.49891
0.220871
0.165924
0.158644
0.100634
0.0806517
0.0825468
0.0889694
0.110885
0.125145
0.168406
0.172175
0.159616
0.149983
0.111961
0.102576
0.0727268
0.0679016
0.0544493
0.0570783
0.0526557
0.0562535
0.0537628
0.0633406
0.064458
0.0915172
0.0962759
0.123996
0.121763
0.138719
0.131258
0.14014
0.133023
0.117357
0.121818
0.115923
0.166486
0.00039553
0.000462007
0.000487352
0.000638315
0.0018094
0.00250936
0.00215439
0.00147656
0.0012535
0.00119614
0.00103893
0.00100341
0.0010505
0.00177034
0.00245787
0.00254018
0.00269014
0.00327014
0.00548374
0.0114307
0.0258087
0.0614513
0.0945138
0.157749
0.237445
0.283407
0.36637
0.449445
0.467972
0.482089
0.579351
0.733817
0.708543
0.549609
0.342605
0.284291
0.225101
0.217954
0.219746
0.208463
0.207761
0.203812
0.207479
0.208462
0.189473
0.18811
0.179209
0.187582
0.196106
0.211006
0.224914
0.26922
0.289483
0.302172
0.277773
0.246613
0.221481
0.174154
0.123629
0.121352
0.144197
0.260197
0.568877
0.424556
0.207804
0.177202
0.199587
0.114022
0.0833532
0.0805696
0.087738
0.108958
0.128475
0.1664
0.177279
0.158287
0.151913
0.119356
0.110521
0.0800412
0.0757619
0.0623681
0.0664099
0.0609993
0.0664601
0.0627802
0.0784782
0.0796926
0.121365
0.125621
0.161251
0.153506
0.17276
0.157512
0.162186
0.149493
0.148088
0.130995
0.115164
0.128777
0.000386134
0.000515003
0.000566
0.000572898
0.000677397
0.000707529
0.000785569
0.00125671
0.00196023
0.00240695
0.00230181
0.00179321
0.00149222
0.00150244
0.00169201
0.0025385
0.00481561
0.0105607
0.0247142
0.0478314
0.099269
0.153978
0.215697
0.325052
0.407445
0.475624
0.574856
0.62218
0.593329
0.591019
0.684075
0.747854
0.686237
0.531818
0.336379
0.279001
0.226034
0.225527
0.226386
0.22349
0.219861
0.213902
0.215456
0.225612
0.213334
0.216765
0.21287
0.222546
0.233391
0.246302
0.280919
0.325962
0.330869
0.326938
0.278785
0.2492
0.205611
0.15929
0.120972
0.141086
0.164883
0.307361
0.463928
0.408577
0.250211
0.223495
0.215983
0.114455
0.102117
0.0807124
0.0898965
0.10884
0.144946
0.16391
0.183408
0.158495
0.154573
0.125137
0.117312
0.0881452
0.0846217
0.0720536
0.0773969
0.0714841
0.0795048
0.0751002
0.10205
0.108683
0.178271
0.186752
0.229676
0.215042
0.227373
0.203503
0.202472
0.182387
0.167304
0.143425
0.111502
0.111706
0.00404867
0.00603842
0.00616593
0.00532511
0.00538334
0.00549487
0.00650505
0.010988
0.0132141
0.0160959
0.0160549
0.0142908
0.0139773
0.0143245
0.0158446
0.020939
0.0327801
0.0613765
0.0928868
0.154509
0.24549
0.319156
0.433014
0.551624
0.627205
0.710094
0.742368
0.715955
0.630315
0.624578
0.710402
0.717615
0.645447
0.535411
0.33891
0.276513
0.246483
0.242754
0.230051
0.247439
0.242015
0.236691
0.228986
0.244524
0.238347
0.240962
0.245402
0.252244
0.264034
0.293295
0.36393
0.369572
0.364567
0.340083
0.274371
0.244957
0.183865
0.146526
0.118556
0.145431
0.154175
0.315864
0.392779
0.459676
0.350996
0.24513
0.191026
0.0984225
0.172949
0.0815013
0.103188
0.110514
0.182004
0.166657
0.186544
0.159368
0.15847
0.131944
0.125344
0.0963857
0.0944947
0.0830979
0.0903297
0.0831316
0.0944353
0.0941021
0.145708
0.177453
0.278397
0.30175
0.321271
0.298853
0.292245
0.251545
0.238635
0.202991
0.183036
0.156328
0.114886
0.0992196
0.0535877
0.0611047
0.0609288
0.0552896
0.0561759
0.057543
0.061438
0.076454
0.0815811
0.0867327
0.0865121
0.081384
0.0813511
0.0837727
0.09008
0.105911
0.144767
0.195779
0.252641
0.370657
0.47077
0.578104
0.698624
0.778306
0.817561
0.827489
0.804908
0.72926
0.623513
0.624317
0.69147
0.635147
0.621247
0.604875
0.382817
0.281902
0.269988
0.249069
0.228384
0.285936
0.277413
0.281167
0.261277
0.27169
0.264892
0.268606
0.284193
0.286369
0.321558
0.383423
0.41469
0.395033
0.381636
0.332704
0.280585
0.225996
0.165544
0.138598
0.114028
0.125022
0.127437
0.293551
0.374661
0.584955
0.37661
0.231404
0.157318
0.145084
0.240952
0.086421
0.164037
0.114279
0.222319
0.176754
0.195771
0.162741
0.1679
0.140105
0.136945
0.107501
0.110799
0.0980248
0.108267
0.105228
0.118853
0.153749
0.234452
0.363841
0.406526
0.413007
0.404835
0.359974
0.351264
0.296264
0.283393
0.241301
0.213227
0.172168
0.125895
0.0959893
0.304179
0.302993
0.295515
0.262831
0.260442
0.260118
0.263989
0.282702
0.282204
0.280335
0.275175
0.257651
0.25744
0.261853
0.272182
0.296421
0.35995
0.420185
0.526462
0.645432
0.742652
0.830327
0.87861
0.892712
0.888267
0.865615
0.807544
0.676931
0.593532
0.606691
0.629806
0.549539
0.629618
0.706341
0.462653
0.307882
0.286256
0.262955
0.240904
0.304459
0.285357
0.327954
0.308919
0.321403
0.310152
0.310134
0.319861
0.336464
0.435751
0.441794
0.440114
0.401729
0.387781
0.319596
0.279766
0.196354
0.159172
0.122286
0.106209
0.103767
0.111784
0.25768
0.392674
0.614284
0.360263
0.227097
0.169361
0.189768
0.218144
0.112345
0.273062
0.122623
0.233229
0.186314
0.222461
0.171645
0.194121
0.154182
0.157384
0.131243
0.134268
0.128823
0.133445
0.166354
0.18545
0.270403
0.348214
0.400343
0.500813
0.477891
0.512332
0.450612
0.477755
0.40274
0.386397
0.311703
0.244296
0.185124
0.135951
0.0977946
0.898404
0.854583
0.785242
0.68773
0.662173
0.635388
0.626231
0.62412
0.603384
0.580354
0.549602
0.510261
0.505069
0.508447
0.520343
0.553514
0.633688
0.712779
0.801876
0.883545
0.929802
0.947496
0.941581
0.927711
0.902945
0.840238
0.709795
0.592751
0.547403
0.562177
0.527941
0.475992
0.609117
0.869566
0.627049
0.361069
0.307389
0.314177
0.302257
0.313477
0.300825
0.379076
0.334503
0.367325
0.365541
0.370373
0.407707
0.443221
0.479589
0.447203
0.438424
0.395448
0.374587
0.276728
0.240294
0.164901
0.148874
0.104777
0.100592
0.0966827
0.106831
0.213167
0.434793
0.612716
0.366708
0.333859
0.194172
0.187951
0.162119
0.155338
0.25879
0.142854
0.262274
0.202501
0.293878
0.195218
0.217269
0.188833
0.171816
0.159689
0.15096
0.16177
0.161806
0.185544
0.214853
0.26491
0.438682
0.508282
0.784021
0.74633
0.845995
0.744557
0.7201
0.58639
0.481787
0.349703
0.257705
0.187303
0.139356
0.0991056
1.71728
1.54939
1.35459
1.19543
1.12705
1.05021
1.00214
0.959198
0.889876
0.846483
0.796441
0.755402
0.752609
0.758153
0.77518
0.826859
0.892783
0.944343
0.984879
1.00068
0.9953
0.979846
0.947237
0.908747
0.827475
0.663743
0.532595
0.473067
0.466488
0.470212
0.424941
0.413436
0.559696
0.949015
0.9339
0.478346
0.34028
0.335559
0.352875
0.359181
0.358848
0.420904
0.39036
0.419731
0.463036
0.453238
0.485924
0.464392
0.464582
0.423389
0.40401
0.334936
0.310369
0.238953
0.213729
0.137464
0.121376
0.100963
0.100053
0.096373
0.106798
0.195583
0.432843
0.613353
0.466049
0.478935
0.230081
0.199152
0.206019
0.176215
0.246977
0.19039
0.372081
0.21123
0.280457
0.231591
0.208487
0.205041
0.182699
0.184016
0.180006
0.18108
0.184672
0.198696
0.275737
0.414906
0.90307
1.16246
1.32
1.25123
1.15659
0.960164
0.782121
0.607226
0.456804
0.345282
0.249728
0.180919
0.137641
0.098636
2.52981
2.16008
1.82812
1.61104
1.46796
1.34672
1.26032
1.17494
1.10114
1.05054
1.00156
0.979218
0.980966
0.98948
1.01145
1.04566
1.05586
1.05271
1.04566
1.02946
0.992721
0.93075
0.858734
0.750104
0.536628
0.370976
0.324208
0.330706
0.341303
0.347067
0.354893
0.36372
0.478759
0.95013
1.28269
0.779559
0.428788
0.35181
0.366089
0.399026
0.420309
0.455958
0.460957
0.452266
0.495468
0.475241
0.478659
0.435458
0.408224
0.318008
0.273334
0.221431
0.212596
0.182936
0.136812
0.108415
0.10584
0.111443
0.111027
0.105543
0.115294
0.183498
0.37454
0.641116
0.607479
0.575986
0.306018
0.294438
0.283468
0.198491
0.279111
0.285567
0.327475
0.231979
0.269575
0.269377
0.253297
0.232914
0.218445
0.218367
0.22067
0.224841
0.270812
0.398794
0.732144
1.484
1.6974
1.69757
1.51414
1.37084
1.01888
0.909102
0.673246
0.55875
0.398922
0.308163
0.226652
0.162755
0.133845
0.097741
3.13048
2.49082
2.06567
1.80668
1.63088
1.50289
1.41382
1.34128
1.28759
1.24641
1.21429
1.20222
1.19804
1.18636
1.16482
1.14008
1.10209
1.05664
1.00438
0.940258
0.849199
0.740936
0.585391
0.377165
0.242143
0.196109
0.201452
0.226635
0.273175
0.333797
0.370612
0.355026
0.385856
0.80327
1.39291
1.41296
0.813961
0.484553
0.387472
0.371675
0.410214
0.437284
0.451385
0.44331
0.45747
0.436231
0.389309
0.305151
0.200595
0.178978
0.161945
0.159654
0.123254
0.128122
0.118687
0.124096
0.128138
0.154141
0.180554
0.175363
0.169798
0.194371
0.295246
0.624268
0.710762
0.759979
0.454077
0.447565
0.416446
0.278034
0.389657
0.347831
0.389399
0.321136
0.372551
0.354054
0.326139
0.310553
0.318076
0.35202
0.441347
0.635007
0.957178
1.8209
2.15059
2.23964
1.94907
1.66428
1.07283
0.996564
0.759559
0.662548
0.496868
0.401047
0.344226
0.273971
0.250497
0.199605
0.191803
0.185293
3.26632
2.48788
2.0812
1.86631
1.73322
1.65183
1.59552
1.54457
1.50893
1.47214
1.43373
1.39452
1.33758
1.26484
1.1867
1.09932
1.00229
0.90429
0.800524
0.67326
0.526155
0.377114
0.250562
0.169455
0.140669
0.149115
0.176424
0.220498
0.287903
0.374075
0.424081
0.439096
0.470995
0.615184
1.24369
1.68212
1.82389
1.41165
0.941906
0.585751
0.415142
0.365019
0.356904
0.340641
0.299801
0.262389
0.192879
0.16985
0.117875
0.152472
0.135842
0.158217
0.134361
0.176977
0.178668
0.233623
0.261416
0.370714
0.390716
0.375225
0.311631
0.318582
0.363622
0.560436
0.717697
0.897749
0.837693
0.574822
0.807579
0.437621
0.500475
0.534894
0.517792
0.557975
0.631056
0.739602
0.854594
1.13699
1.3294
2.0144
2.33385
3.2084
3.12832
3.29132
2.70445
2.31408
1.25738
1.16295
0.839967
0.84269
0.70113
0.664085
0.627932
0.602302
0.647806
0.668476
0.773404
0.859642
1.00856
1.17176
2.24676
1.85372
1.69905
1.63589
1.58954
1.54179
1.48358
1.41819
1.36132
1.31058
1.26208
1.20966
1.14248
1.0552
0.947602
0.814073
0.656481
0.492604
0.34064
0.216007
0.134854
0.0972358
0.0870601
0.0926831
0.115405
0.159328
0.218555
0.271446
0.32319
0.434045
0.744659
1.29736
1.621
1.57039
1.08178
0.973859
1.9864
3.05979
3.52203
3.41992
2.68596
1.72428
1.0189
0.519337
0.301396
0.144412
0.117655
0.182922
0.169766
0.206785
0.153318
0.176542
0.155678
0.215936
0.216839
0.316786
0.329192
0.456273
0.415402
0.609413
0.6586
1.16308
1.23496
1.22659
0.772797
0.892599
1.37981
0.931854
2.13533
0.501892
0.707691
0.616632
0.789194
1.1379
1.88455
3.11812
3.35301
4.64553
4.58105
5.54767
4.79409
5.22242
3.66866
3.58097
1.90185
1.99808
0.898271
1.29034
0.650467
1.1476
0.803279
1.2827
1.23766
1.75995
1.92714
2.66795
2.96109
3.90965
4.21427
5.24316
0.0376499
0.148454
0.356342
0.641155
1.08949
1.70535
1.71757
1.4542
1.16655
1.05664
1.00779
0.957131
0.734289
0.443446
0.448274
0.553078
0.682685
0.65552
0.480864
1.66615
3.38586
4.06957
4.35372
4.25297
3.67448
2.90314
2.37341
2.10116
1.62335
1.35803
0.791178
0.668878
0.428014
0.388984
0.476364
0.765204
1.29483
2.01859
2.66832
2.91095
2.85352
2.43993
1.67328
0.969486
0.754541
0.872328
0.932894
1.06761
0.880452
0.890551
0.654309
0.433908
0.326309
0.259029
0.238586
0.257
0.287079
0.298393
0.299018
0.297461
0.322935
0.380353
0.48225
0.6194
0.808979
0.989222
1.11856
1.14294
1.10165
0.971714
0.809199
0.611235
0.450504
0.314913
0.217034
0.144181
0.100664
0.0802013
0.0782
0.0902275
0.110907
0.133885
0.154062
0.166258
0.170585
0.164123
0.147771
0.126204
0.101292
0.0786253
0.066441
0.0599286
0.0536514
0.0413053
0.03133
0.029778
0.119737
0.264967
0.217308
0.0997136
0.0909384
0.20284
0.185908
0.172649
0.184064
0.266391
0.527928
0.603898
0.58569
0.506747
0.443235
0.463081
0.49619
0.428392
0.289648
0.282195
0.366014
1.14536
2.84597
2.74479
2.34061
1.59717
1.22707
0.780682
0.568174
0.476236
0.444397
0.433326
0.347386
0.348619
0.304332
0.321103
0.339294
0.326706
0.35314
0.38672
0.429536
0.505686
0.70654
0.872169
0.886416
0.804508
0.723445
0.77717
0.800755
0.674573
0.464657
0.409869
0.214301
0.253395
0.187398
0.191151
0.22093
0.245295
0.282182
0.332062
0.384711
0.389961
0.343405
0.285011
0.264904
0.264832
0.290499
0.346389
0.451029
0.609324
0.768941
0.802406
0.718191
0.49338
0.326488
0.217217
0.153205
0.117607
0.100793
0.0933718
0.0930791
0.0973765
0.104378
0.111359
0.117274
0.1201
0.119587
0.113597
0.10097
0.0829421
0.0628116
0.0443288
0.0319942
0.0260846
0.0244842
0.0280387
0.0364654
0.0464521
0.0513819
0.0656054
0.127368
0.141888
0.0926636
0.114134
0.156661
0.146066
0.116613
0.10908
0.101488
0.102597
0.128719
0.177803
0.18819
0.19099
0.182801
0.18578
0.213727
0.197096
0.154021
0.243026
1.05368
2.5337
2.58791
1.34227
0.574998
0.345739
0.262229
0.229294
0.226754
0.226465
0.225453
0.226788
0.242663
0.248531
0.264261
0.27746
0.290103
0.280162
0.295713
0.286607
0.288397
0.320537
0.340761
0.341232
0.373757
0.531805
0.695372
0.757892
0.625205
0.310513
0.210008
0.196173
0.14866
0.174515
0.158828
0.166495
0.196428
0.206078
0.220249
0.198883
0.185488
0.206574
0.215778
0.186937
0.157847
0.159369
0.178784
0.203593
0.237764
0.269597
0.318824
0.427977
0.467089
0.43263
0.28258
0.164458
0.113313
0.0969348
0.0932662
0.0930042
0.0950969
0.100112
0.1047
0.110331
0.114946
0.119737
0.128996
0.14146
0.151145
0.154755
0.14999
0.132309
0.103274
0.0646569
0.0425273
0.0367805
0.0391431
0.049092
0.0573895
0.0814079
0.108298
0.0801955
0.0689525
0.0984131
0.187266
0.134264
0.0910944
0.0990699
0.102512
0.101424
0.104525
0.117437
0.11608
0.113751
0.10676
0.106641
0.11674
0.107294
0.144989
0.660997
1.96964
2.35622
1.43115
0.45389
0.244335
0.2119
0.208626
0.227792
0.237664
0.242384
0.250656
0.245671
0.245253
0.27018
0.269745
0.299839
0.309215
0.29743
0.298726
0.26939
0.247022
0.248695
0.269524
0.350099
0.454928
0.539274
0.682636
0.650463
0.346742
0.180729
0.142973
0.139041
0.132741
0.152611
0.14917
0.145753
0.18139
0.188829
0.230628
0.219623
0.149163
0.119256
0.121334
0.126998
0.1351
0.152003
0.163162
0.1749
0.196518
0.231539
0.249399
0.255706
0.309719
0.345559
0.311251
0.187563
0.114113
0.0899596
0.0841336
0.0842311
0.0828658
0.0821326
0.0779498
0.076647
0.0742268
0.0754344
0.0786196
0.0866929
0.104576
0.128039
0.153547
0.171944
0.174173
0.157174
0.113492
0.0748746
0.0635359
0.0618375
0.0587922
0.0746508
0.0820741
0.0591312
0.0559922
0.0950779
0.189898
0.105604
0.0829332
0.100957
0.115301
0.114487
0.12427
0.150287
0.144505
0.13089
0.111809
0.101424
0.0969192
0.101316
0.273302
1.31723
1.95797
1.71698
0.565939
0.228617
0.182694
0.181783
0.192685
0.206218
0.211192
0.212758
0.226964
0.245118
0.222396
0.270227
0.275119
0.304644
0.318226
0.309563
0.312437
0.30436
0.272017
0.239858
0.243101
0.314256
0.43505
0.511441
0.630761
0.428541
0.198443
0.136522
0.129244
0.123544
0.127562
0.141132
0.150353
0.13725
0.163969
0.14657
0.176399
0.221249
0.198533
0.123026
0.11204
0.119854
0.135919
0.146185
0.154199
0.164531
0.183075
0.208096
0.234508
0.236742
0.240234
0.290727
0.298752
0.232613
0.129013
0.0862759
0.0693841
0.0645037
0.0571214
0.0528728
0.0459012
0.0417769
0.0368582
0.0341299
0.0320808
0.0320523
0.034352
0.0423149
0.0621241
0.105815
0.147337
0.179351
0.187391
0.158902
0.116536
0.101755
0.0786125
0.0677738
0.0676591
0.0453786
0.0433532
0.0944083
0.163451
0.0876401
0.078774
0.102201
0.111921
0.117157
0.141278
0.189915
0.183158
0.167348
0.140064
0.110334
0.0981708
0.120502
0.57948
1.57337
1.75489
0.823737
0.282586
0.183138
0.178601
0.18942
0.197031
0.206151
0.209759
0.212587
0.220237
0.224966
0.219852
0.258839
0.28993
0.310285
0.306504
0.30163
0.292472
0.305139
0.310319
0.285081
0.247734
0.282598
0.371855
0.423096
0.485842
0.282642
0.146502
0.120891
0.124141
0.12162
0.130242
0.144945
0.162365
0.143519
0.171194
0.142083
0.139834
0.170197
0.212057
0.16824
0.128975
0.129317
0.137157
0.133756
0.129991
0.144641
0.176998
0.205019
0.228095
0.237576
0.232639
0.24728
0.2823
0.264837
0.164262
0.0965038
0.0654735
0.0533638
0.0447022
0.0401719
0.0352315
0.0321635
0.0293558
0.0276514
0.0264091
0.0250142
0.0235637
0.0229156
0.0241647
0.0302019
0.0496759
0.105126
0.160836
0.189311
0.182131
0.165216
0.132618
0.075758
0.0636483
0.0397198
0.0391385
0.0949959
0.140444
0.0818851
0.0770319
0.0951179
0.10345
0.115005
0.137484
0.239008
0.242076
0.227218
0.196474
0.137357
0.112528
0.177006
0.966279
1.53286
1.25381
0.425393
0.206068
0.181179
0.196329
0.199352
0.200322
0.206922
0.218515
0.243119
0.264371
0.243475
0.243072
0.26437
0.291437
0.305609
0.300522
0.291477
0.257013
0.26667
0.307723
0.329515
0.281819
0.269661
0.321899
0.354257
0.347581
0.207621
0.134317
0.121156
0.125689
0.122991
0.133325
0.157631
0.164181
0.158554
0.203035
0.150813
0.136882
0.141609
0.197438
0.191176
0.133762
0.124805
0.12624
0.123019
0.121329
0.127213
0.163298
0.203794
0.235652
0.247178
0.241239
0.236614
0.262338
0.26574
0.215215
0.119982
0.0721611
0.0516301
0.0416816
0.0368733
0.0337429
0.0316235
0.0301422
0.0298294
0.0308511
0.0318131
0.0318647
0.0296387
0.0251567
0.0221213
0.0227741
0.0315425
0.0620197
0.138344
0.174517
0.195021
0.199645
0.12119
0.0670194
0.0386161
0.0396082
0.0982798
0.130824
0.0809933
0.0769559
0.0946156
0.106514
0.124659
0.157507
0.296078
0.299903
0.29584
0.26626
0.18834
0.153339
0.312991
1.17333
1.3941
0.719628
0.264756
0.183439
0.183149
0.193458
0.186311
0.188169
0.181773
0.215473
0.245422
0.277433
0.262041
0.243812
0.252527
0.26972
0.278811
0.279051
0.276829
0.232873
0.219267
0.25641
0.337048
0.334781
0.275531
0.289375
0.31109
0.270273
0.163161
0.133379
0.12846
0.13815
0.125198
0.141668
0.15507
0.14398
0.166266
0.213937
0.175759
0.144792
0.141286
0.168088
0.199581
0.15062
0.119274
0.115392
0.112747
0.112011
0.116663
0.14193
0.19601
0.237495
0.259092
0.259785
0.241622
0.248572
0.258355
0.237362
0.153753
0.0867783
0.0553735
0.042131
0.03706
0.034415
0.0339227
0.0359351
0.0373372
0.0388914
0.040057
0.0409324
0.0408692
0.0389448
0.0322132
0.0240153
0.021355
0.0250366
0.0444925
0.108604
0.164686
0.211976
0.198225
0.0845152
0.0419104
0.0498854
0.103708
0.123878
0.0831974
0.0826602
0.10776
0.128413
0.1623
0.250217
0.308115
0.31486
0.331168
0.300483
0.219383
0.201402
0.602565
1.17444
1.1052
0.428595
0.209905
0.181754
0.193655
0.186534
0.178201
0.187269
0.174263
0.199654
0.239897
0.265824
0.261664
0.237921
0.238408
0.255113
0.274322
0.275671
0.258844
0.213419
0.185083
0.195057
0.302147
0.366833
0.324614
0.252195
0.270748
0.240799
0.150968
0.139744
0.128175
0.152109
0.142402
0.143716
0.152177
0.132948
0.163677
0.194192
0.182406
0.16262
0.151502
0.153781
0.206472
0.186869
0.133702
0.119047
0.106615
0.102428
0.106119
0.12805
0.190285
0.234602
0.261191
0.265201
0.252379
0.244195
0.249328
0.241526
0.184415
0.100331
0.0594991
0.0435017
0.0381209
0.0381677
0.0398391
0.0407536
0.0402263
0.0407998
0.0416511
0.0438351
0.0447369
0.0451493
0.0432245
0.0374327
0.0263558
0.0212001
0.0232122
0.0369971
0.0777685
0.171929
0.213731
0.133349
0.0553889
0.0613137
0.113874
0.121851
0.0907252
0.0972351
0.127382
0.144281
0.205676
0.270678
0.262204
0.307623
0.342742
0.310251
0.256468
0.30566
0.81452
1.11667
0.783608
0.296051
0.199613
0.188129
0.220456
0.193614
0.177479
0.187291
0.181516
0.194015
0.23541
0.252038
0.258593
0.238251
0.239452
0.254123
0.277363
0.277606
0.245997
0.200521
0.160205
0.158855
0.223432
0.36613
0.362723
0.259929
0.240548
0.218808
0.153286
0.148615
0.123562
0.142267
0.145224
0.12313
0.164757
0.129453
0.159699
0.164748
0.176887
0.17611
0.157664
0.157353
0.194182
0.242465
0.199356
0.138419
0.109637
0.101285
0.103634
0.12215
0.188107
0.237678
0.260616
0.266261
0.25999
0.243898
0.242934
0.239771
0.206149
0.119143
0.0666865
0.0473536
0.0424825
0.043085
0.0436574
0.0416619
0.0401512
0.0404821
0.0411742
0.0442573
0.0455539
0.0472712
0.0470545
0.045135
0.0397115
0.0286853
0.0220493
0.0226688
0.0325148
0.0771165
0.187469
0.172822
0.0960211
0.0835639
0.13057
0.120469
0.09939
0.11315
0.130028
0.141852
0.197971
0.22368
0.232604
0.288142
0.338143
0.334183
0.340293
0.5101
0.838563
0.970549
0.503303
0.237769
0.199141
0.20248
0.224071
0.203078
0.18399
0.180412