/*--------------------------------*- C++ -*----------------------------------*\
| =========                 |                                                 |
| \\      /  F ield         | OpenFOAM: The Open Source CFD Toolbox           |
|  \\    /   O peration     | Version:  2.4.0                                 |
|   \\  /    A nd           | Web:      www.OpenFOAM.org                      |
|    \\/     M anipulation  |                                                 |
\*---------------------------------------------------------------------------*/
FoamFile
{
    version     2.0;
    format      ascii;
    class       volSymmTensorField;
    location    "0.133";
    object      UPrime2Mean;
}
// * * * * * * * * * * * * * * * * * * * * * * * * * * * * * * * * * * * * * //

dimensions      [0 2 -2 0 0 0 0];

internalField   nonuniform List<symmTensor> 
17600
(
(0.0295315 -0.0032012 0 0.000482931 0 0)
(0.304088 -0.00123097 0 2.79166e-05 0 0)
(0.394807 -7.9136e-06 0 1.98187e-06 0 0)
(0.438241 -0.00031778 0 1.22634e-06 0 0)
(0.468224 -0.000239019 0 6.09786e-07 0 0)
(0.49108 -0.000103682 0 3.86482e-07 0 0)
(0.505778 -2.36532e-05 0 2.91554e-07 0 0)
(0.519199 -9.51689e-07 0 2.37472e-07 0 0)
(0.526324 1.66452e-05 0 2.77317e-07 0 0)
(0.535177 -2.21232e-06 0 3.05618e-07 0 0)
(0.538828 -4.67696e-07 0 3.52898e-07 0 0)
(0.546817 -4.05128e-05 0 4.84629e-07 0 0)
(0.550416 -3.62064e-05 0 6.08925e-07 0 0)
(0.559918 -0.000105227 0 8.70524e-07 0 0)
(0.566146 -0.000110439 0 1.09145e-06 0 0)
(0.583175 -0.000334023 0 2.7405e-06 0 0)
(0.599702 -0.000493554 0 2.7577e-06 0 0)
(0.66979 0.000340777 0 1.77063e-05 0 0)
(0.785809 -0.02229 0 0.00093005 0 0)
(1.44745 0.113545 0 0.0141486 0 0)
(0.0142861 0.00640562 0 0.0050354 0 0)
(0.124313 -0.0118938 0 0.00120175 0 0)
(0.250729 -0.00670457 0 0.000182504 0 0)
(0.337396 -0.00474877 0 7.33389e-05 0 0)
(0.409581 -0.0038662 0 5.6786e-05 0 0)
(0.482587 -0.00322368 0 5.19655e-05 0 0)
(0.537306 -0.00251527 0 4.04833e-05 0 0)
(0.592765 -0.00196885 0 2.63285e-05 0 0)
(0.623887 -0.00145786 0 1.43325e-05 0 0)
(0.66456 -0.00127625 0 9.51099e-06 0 0)
(0.680346 -0.00108869 0 5.73446e-06 0 0)
(0.716833 -0.00119104 0 6.18561e-06 0 0)
(0.728757 -0.0012338 0 9.02981e-06 0 0)
(0.768613 -0.00132719 0 1.00176e-05 0 0)
(0.782083 -0.00200132 0 1.77933e-05 0 0)
(0.845174 -0.00177498 0 2.28019e-05 0 0)
(0.847958 -0.00558496 0 7.75397e-05 0 0)
(1.11125 -0.00798384 0 0.000162295 0 0)
(0.991991 -0.0245072 0 0.00131769 0 0)
(3.03169 -0.334978 0 0.063824 0 0)
(0.050658 0.0192161 0 0.00794263 0 0)
(0.0206639 -0.00760715 0 0.00343334 0 0)
(0.0873941 -0.00848181 0 0.000895361 0 0)
(0.152678 -0.0081138 0 0.000440367 0 0)
(0.220614 -0.00792762 0 0.000332491 0 0)
(0.307184 -0.00762179 0 0.000297918 0 0)
(0.379627 -0.00658268 0 0.000243401 0 0)
(0.461662 -0.00555005 0 0.000166177 0 0)
(0.509444 -0.00435095 0 9.74417e-05 0 0)
(0.576465 -0.00385831 0 6.07161e-05 0 0)
(0.601549 -0.00326474 0 3.17676e-05 0 0)
(0.664145 -0.00359458 0 3.53193e-05 0 0)
(0.68099 -0.00341977 0 3.6888e-05 0 0)
(0.748699 -0.00413432 0 5.20825e-05 0 0)
(0.764748 -0.00492 0 7.04885e-05 0 0)
(0.860115 -0.00575648 0 0.000100627 0 0)
(0.867362 -0.0128257 0 0.000310735 0 0)
(1.14075 -0.0160781 0 0.000753884 0 0)
(1.15478 -0.0642389 0 0.00639688 0 0)
(2.52069 -0.427299 0 0.135206 0 0)
(0.067303 0.0213396 0 0.00717266 0 0)
(0.00174439 0.00137814 0 0.00536173 0 0)
(0.0115492 -0.00312894 0 0.0019691 0 0)
(0.0284949 -0.00515966 0 0.00116951 0 0)
(0.0532954 -0.00688384 0 0.000942057 0 0)
(0.104748 -0.00852572 0 0.000850597 0 0)
(0.156599 -0.00848348 0 0.000727205 0 0)
(0.229556 -0.00803374 0 0.000517918 0 0)
(0.273826 -0.00663221 0 0.000326404 0 0)
(0.344294 -0.00613638 0 0.00020044 0 0)
(0.369238 -0.0054392 0 0.000114492 0 0)
(0.440321 -0.00548483 0 9.93202e-05 0 0)
(0.456245 -0.00611335 0 0.000121428 0 0)
(0.533731 -0.0052391 0 0.000127774 0 0)
(0.549325 -0.00954788 0 0.000269288 0 0)
(0.642212 -0.0043116 0 0.000249232 0 0)
(0.679561 -0.0239725 0 0.00128506 0 0)
(0.80861 -0.0098739 0 0.00127431 0 0)
(1.09322 -0.117359 0 0.0210554 0 0)
(1.34736 -0.187261 0 0.0884985 0 0)
(0.0629481 0.0172375 0 0.00501959 0 0)
(0.00620698 0.00540027 0 0.00559419 0 0)
(0.00886577 0.00305621 0 0.0024536 0 0)
(0.00918884 0.00175141 0 0.00179686 0 0)
(0.0060395 0.000163091 0 0.00169069 0 0)
(0.0105791 -0.00308608 0 0.00162198 0 0)
(0.0233118 -0.00469198 0 0.00145581 0 0)
(0.0559404 -0.00627413 0 0.00110333 0 0)
(0.0784268 -0.00563327 0 0.000724714 0 0)
(0.124473 -0.00610541 0 0.000476768 0 0)
(0.139804 -0.0052411 0 0.000253626 0 0)
(0.192724 -0.00640144 0 0.000279571 0 0)
(0.206741 -0.00572146 0 0.000210652 0 0)
(0.260511 -0.00799715 0 0.000362499 0 0)
(0.287776 -0.00647006 0 0.000356406 0 0)
(0.334411 -0.0131765 0 0.00075274 0 0)
(0.393664 -0.00788863 0 0.0010295 0 0)
(0.459972 -0.0412699 0 0.0067223 0 0)
(0.608454 -0.0415348 0 0.0103327 0 0)
(0.859395 -0.26701 0 0.231069 0 0)
(0.0592208 0.0140763 0 0.00358819 0 0)
(0.00605446 0.00470095 0 0.00497677 0 0)
(0.0140266 0.0044365 0 0.00210346 0 0)
(0.0231458 0.00521936 0 0.00172196 0 0)
(0.0300313 0.00656026 0 0.00198738 0 0)
(0.0212477 0.00467461 0 0.00218168 0 0)
(0.017988 0.00326953 0 0.00213214 0 0)
(0.0125586 -2.95983e-05 0 0.00171985 0 0)
(0.0145082 -0.000627245 0 0.00126752 0 0)
(0.0238739 -0.00238719 0 0.000832124 0 0)
(0.0261844 -0.00236438 0 0.000526625 0 0)
(0.0470086 -0.00340021 0 0.000469613 0 0)
(0.0497908 -0.00432286 0 0.000533584 0 0)
(0.0766836 -0.00434111 0 0.00053817 0 0)
(0.086213 -0.00745497 0 0.00109701 0 0)
(0.115077 -0.00528462 0 0.000941095 0 0)
(0.133924 -0.0157299 0 0.00379182 0 0)
(0.18545 -0.0116295 0 0.00344119 0 0)
(0.237273 -0.0622015 0 0.0344135 0 0)
(0.405108 -0.124527 0 0.119116 0 0)
(0.0601792 0.0121927 0 0.00267961 0 0)
(0.00575505 0.0034156 0 0.00442815 0 0)
(0.0137712 0.00367913 0 0.00168203 0 0)
(0.0253478 0.00469307 0 0.00126876 0 0)
(0.0435504 0.00763311 0 0.00168254 0 0)
(0.0433501 0.00795302 0 0.00213559 0 0)
(0.0531768 0.00863272 0 0.00231454 0 0)
(0.0414064 0.00591152 0 0.00208205 0 0)
(0.0464027 0.00520794 0 0.00153579 0 0)
(0.0344022 0.00286436 0 0.00122052 0 0)
(0.0374536 0.00265453 0 0.000691228 0 0)
(0.0284843 0.00112807 0 0.000865784 0 0)
(0.0301542 0.000664512 0 0.000589067 0 0)
(0.0243 -0.000613411 0 0.00107146 0 0)
(0.0275311 -0.00119654 0 0.00102715 0 0)
(0.0255014 -0.00266261 0 0.0021024 0 0)
(0.0281599 -0.00324062 0 0.00240085 0 0)
(0.0399372 -0.00910941 0 0.0112236 0 0)
(0.0577185 -0.0180376 0 0.0174209 0 0)
(0.141328 -0.0595417 0 0.159181 0 0)
(0.0636475 0.0107044 0 0.00199982 0 0)
(0.00677875 0.00247678 0 0.00390969 0 0)
(0.0130582 0.00303246 0 0.00149355 0 0)
(0.0235486 0.00368118 0 0.000956663 0 0)
(0.0415843 0.00643048 0 0.00129151 0 0)
(0.0438865 0.00741628 0 0.00180751 0 0)
(0.0612181 0.00911209 0 0.00207315 0 0)
(0.0560936 0.00752984 0 0.00189594 0 0)
(0.0727388 0.0074127 0 0.00164595 0 0)
(0.0653687 0.00563134 0 0.00126971 0 0)
(0.078784 0.00603742 0 0.000897885 0 0)
(0.0694935 0.00470442 0 0.000919215 0 0)
(0.0771041 0.00518308 0 0.00105489 0 0)
(0.0644146 0.00365309 0 0.00114204 0 0)
(0.0680721 0.00448069 0 0.001904 0 0)
(0.0526043 0.00231714 0 0.00199617 0 0)
(0.0506326 0.00494044 0 0.00427461 0 0)
(0.0368881 0.00395747 0 0.00763296 0 0)
(0.0376947 0.00414635 0 0.0287156 0 0)
(0.0710898 0.0129177 0 0.173219 0 0)
(0.0667216 0.00932899 0 0.00148428 0 0)
(0.00710541 0.00191505 0 0.00331692 0 0)
(0.0113535 0.00256448 0 0.00140224 0 0)
(0.0208825 0.00301256 0 0.000754287 0 0)
(0.0360303 0.00518517 0 0.000982323 0 0)
(0.038362 0.00631674 0 0.00148243 0 0)
(0.0531002 0.00783376 0 0.0017746 0 0)
(0.0514847 0.00684598 0 0.00182487 0 0)
(0.0686251 0.00673396 0 0.00129623 0 0)
(0.0673398 0.00594563 0 0.0012652 0 0)
(0.0865056 0.00577443 0 0.000790496 0 0)
(0.0838698 0.00638773 0 0.00113302 0 0)
(0.102407 0.0054605 0 0.000950361 0 0)
(0.0956435 0.00750247 0 0.00151073 0 0)
(0.111024 0.00556883 0 0.00179454 0 0)
(0.0978661 0.00908371 0 0.00275818 0 0)
(0.10571 0.00849896 0 0.00379803 0 0)
(0.0869611 0.0154083 0 0.0109042 0 0)
(0.0902312 0.0250732 0 0.0297046 0 0)
(0.105538 0.0508269 0 0.131047 0 0)
(0.0654944 0.00796034 0 0.00111207 0 0)
(0.00494692 0.00170007 0 0.00277902 0 0)
(0.00799952 0.00210385 0 0.0013503 0 0)
(0.0173772 0.00251571 0 0.000610521 0 0)
(0.0299986 0.00407995 0 0.000768926 0 0)
(0.0338601 0.00546616 0 0.0012394 0 0)
(0.0436726 0.00649782 0 0.00149287 0 0)
(0.0457975 0.00611698 0 0.00144953 0 0)
(0.0571559 0.005513 0 0.00125487 0 0)
(0.0621806 0.00501761 0 0.00117214 0 0)
(0.0743561 0.00509741 0 0.000838015 0 0)
(0.081643 0.00537304 0 0.00101089 0 0)
(0.0938318 0.0052399 0 0.00112096 0 0)
(0.100939 0.00657317 0 0.00145255 0 0)
(0.110234 0.00617612 0 0.00197965 0 0)
(0.11534 0.00924596 0 0.00276136 0 0)
(0.118451 0.00983567 0 0.00406025 0 0)
(0.119055 0.0228371 0 0.0123089 0 0)
(0.117755 0.0296202 0 0.0278445 0 0)
(0.145424 0.0794682 0 0.147089 0 0)
(0.0620897 0.00657877 0 0.000824617 0 0)
(0.00324241 0.00145056 0 0.00230371 0 0)
(0.00628019 0.00155592 0 0.00129577 0 0)
(0.0151857 0.00199756 0 0.000531622 0 0)
(0.0252519 0.00302208 0 0.000638966 0 0)
(0.0317609 0.00465011 0 0.00107097 0 0)
(0.0381296 0.00519368 0 0.001304 0 0)
(0.0429289 0.00530391 0 0.00147493 0 0)
(0.0501824 0.00404119 0 0.00102043 0 0)
(0.0577003 0.00445914 0 0.00111094 0 0)
(0.0657865 0.00351199 0 0.000767653 0 0)
(0.076738 0.00481995 0 0.00108212 0 0)
(0.084804 0.00365745 0 0.00107702 0 0)
(0.0952758 0.00610758 0 0.00143569 0 0)
(0.101582 0.00501144 0 0.00184946 0 0)
(0.111634 0.00844139 0 0.00253635 0 0)
(0.113197 0.0105914 0 0.00401898 0 0)
(0.118667 0.0206298 0 0.0108003 0 0)
(0.11956 0.034814 0 0.0307967 0 0)
(0.149516 0.0804157 0 0.12425 0 0)
(0.0610076 0.00537829 0 0.000620719 0 0)
(0.00360935 0.000915402 0 0.0018769 0 0)
(0.00611841 0.00093074 0 0.00124882 0 0)
(0.0140385 0.00142477 0 0.000465201 0 0)
(0.0232416 0.00212348 0 0.000560894 0 0)
(0.0299241 0.00362702 0 0.000933227 0 0)
(0.0347737 0.00414422 0 0.00114631 0 0)
(0.0396535 0.00432937 0 0.00120878 0 0)
(0.0452508 0.00325501 0 0.000991522 0 0)
(0.052662 0.00333583 0 0.00107818 0 0)
(0.0606849 0.00280711 0 0.000747483 0 0)
(0.0706898 0.00366257 0 0.000960102 0 0)
(0.0780731 0.00304329 0 0.00105932 0 0)
(0.0873671 0.00506163 0 0.00135686 0 0)
(0.0946405 0.00421707 0 0.00162286 0 0)
(0.102959 0.00855107 0 0.00263523 0 0)
(0.105517 0.00949155 0 0.00359179 0 0)
(0.111175 0.0225542 0 0.0118412 0 0)
(0.116052 0.0353169 0 0.0295568 0 0)
(0.146744 0.0786299 0 0.115711 0 0)
(0.0612381 0.00439565 0 0.000477274 0 0)
(0.00360548 0.00040234 0 0.0015365 0 0)
(0.00510226 0.00040928 0 0.00121908 0 0)
(0.0120223 0.00105479 0 0.000454349 0 0)
(0.0211957 0.00157347 0 0.000502223 0 0)
(0.0269086 0.00284988 0 0.000806526 0 0)
(0.030989 0.00338804 0 0.00100695 0 0)
(0.035166 0.00368957 0 0.00112718 0 0)
(0.0409328 0.0026214 0 0.000813354 0 0)
(0.0482803 0.00282655 0 0.000856657 0 0)
(0.0558104 0.00216313 0 0.000628175 0 0)
(0.0642715 0.00324522 0 0.000866795 0 0)
(0.0713531 0.00274048 0 0.000931535 0 0)
(0.0807043 0.00441425 0 0.00107668 0 0)
(0.0869873 0.00422166 0 0.00135997 0 0)
(0.0949333 0.00729616 0 0.0021108 0 0)
(0.0978453 0.0102838 0 0.00342803 0 0)
(0.104794 0.0218979 0 0.0110791 0 0)
(0.111817 0.0355787 0 0.0288039 0 0)
(0.147278 0.0807265 0 0.107145 0 0)
(0.0609242 0.00359255 0 0.00035544 0 0)
(0.00255208 0.000231651 0 0.00120506 0 0)
(0.00389095 0.000157771 0 0.00104597 0 0)
(0.0102469 0.00088533 0 0.000391651 0 0)
(0.0190483 0.00136163 0 0.000387744 0 0)
(0.0245889 0.00247121 0 0.000618195 0 0)
(0.0281447 0.00298384 0 0.000789685 0 0)
(0.0323624 0.0032751 0 0.000819221 0 0)
(0.0374689 0.00245851 0 0.000603891 0 0)
(0.0445944 0.00245814 0 0.000694816 0 0)
(0.0509285 0.00200473 0 0.000521927 0 0)
(0.0593372 0.00289041 0 0.000701981 0 0)
(0.0658345 0.00259195 0 0.000749294 0 0)
(0.0751339 0.00428527 0 0.0009055 0 0)
(0.0800989 0.00395902 0 0.00106715 0 0)
(0.0886098 0.00759273 0 0.00200565 0 0)
(0.0916977 0.0101958 0 0.00313455 0 0)
(0.100458 0.0216255 0 0.0107164 0 0)
(0.109716 0.0361305 0 0.0282671 0 0)
(0.147805 0.0806332 0 0.0981716 0 0)
(0.0604152 0.00293241 0 0.000250053 0 0)
(0.0018349 0.000373557 0 0.000882228 0 0)
(0.00361413 0.000303096 0 0.000777401 0 0)
(0.00943815 0.000901495 0 0.000318058 0 0)
(0.0172811 0.00124686 0 0.00029691 0 0)
(0.0230007 0.00225098 0 0.000451915 0 0)
(0.0260702 0.00261928 0 0.000596035 0 0)
(0.0302186 0.00286009 0 0.000643098 0 0)
(0.0342597 0.00209258 0 0.000448157 0 0)
(0.0412765 0.0021022 0 0.000494843 0 0)
(0.0470687 0.00167871 0 0.000385442 0 0)
(0.0559095 0.0025247 0 0.000530132 0 0)
(0.0614243 0.002197 0 0.000568891 0 0)
(0.0707976 0.00357871 0 0.000667221 0 0)
(0.0748 0.00348783 0 0.000859309 0 0)
(0.0844478 0.00695773 0 0.00172144 0 0)
(0.0873986 0.00956129 0 0.00308926 0 0)
(0.0987977 0.0209654 0 0.0104594 0 0)
(0.109163 0.0360519 0 0.0274737 0 0)
(0.15056 0.0783519 0 0.0901702 0 0)
(0.0603569 0.00230757 0 0.000173155 0 0)
(0.00150746 0.000369695 0 0.000617405 0 0)
(0.00345761 0.000329668 0 0.000542959 0 0)
(0.00879538 0.000747023 0 0.00026101 0 0)
(0.0161252 0.000901038 0 0.000251709 0 0)
(0.0214154 0.00172756 0 0.000358214 0 0)
(0.0243854 0.00200293 0 0.000486625 0 0)
(0.0281076 0.00212436 0 0.000495822 0 0)
(0.0320317 0.00150189 0 0.000385414 0 0)
(0.0385322 0.00143138 0 0.000453527 0 0)
(0.0445064 0.00119272 0 0.00037879 0 0)
(0.0527054 0.00185102 0 0.000488907 0 0)
(0.0585475 0.00159295 0 0.000538838 0 0)
(0.067121 0.00265622 0 0.000670022 0 0)
(0.071799 0.00286534 0 0.000795278 0 0)
(0.0809615 0.00582504 0 0.00178481 0 0)
(0.0855286 0.00896325 0 0.00300976 0 0)
(0.0973848 0.0196143 0 0.0105693 0 0)
(0.110364 0.0360549 0 0.0261519 0 0)
(0.153776 0.0754524 0 0.0838987 0 0)
(0.0605072 0.0016966 0 0.000137971 0 0)
(0.00116008 0.000112288 0 0.000466942 0 0)
(0.00300881 2.28109e-05 0 0.000443084 0 0)
(0.0079716 0.000363531 0 0.000279925 0 0)
(0.0153111 0.000432625 0 0.000277997 0 0)
(0.0200646 0.00102591 0 0.000342847 0 0)
(0.0232598 0.00126879 0 0.000438055 0 0)
(0.0263543 0.0013483 0 0.000427363 0 0)
(0.030702 0.000903374 0 0.000345476 0 0)
(0.0364435 0.000840581 0 0.000380108 0 0)
(0.0428164 0.000727689 0 0.000331022 0 0)
(0.0499671 0.00119878 0 0.00041939 0 0)
(0.0567269 0.000943942 0 0.000472842 0 0)
(0.0640604 0.0019699 0 0.000578331 0 0)
(0.0700052 0.00216545 0 0.000715448 0 0)
(0.0780532 0.005278 0 0.00158768 0 0)
(0.0846866 0.00805096 0 0.00306491 0 0)
(0.0960276 0.0192834 0 0.0097521 0 0)
(0.1124 0.0345853 0 0.0254675 0 0)
(0.155271 0.075505 0 0.0749905 0 0)
(0.0606628 0.00114282 0 0.000103788 0 0)
(0.00134233 -3.41536e-05 0 0.000331279 0 0)
(0.00330137 -0.000175894 0 0.000329293 0 0)
(0.00794037 0.000139764 0 0.000244915 0 0)
(0.0150892 0.000199516 0 0.000240406 0 0)
(0.019683 0.000624011 0 0.000272818 0 0)
(0.0228562 0.000776953 0 0.000336292 0 0)
(0.0257385 0.000889177 0 0.000312856 0 0)
(0.0298908 0.000579857 0 0.000256856 0 0)
(0.0353952 0.000575648 0 0.000292916 0 0)
(0.0416392 0.000422683 0 0.000263069 0 0)
(0.0487058 0.000799338 0 0.000342427 0 0)
(0.0554081 0.000597605 0 0.000372545 0 0)
(0.0625544 0.00150226 0 0.000489848 0 0)
(0.0685247 0.00181498 0 0.000624478 0 0)
(0.0766411 0.00479386 0 0.00144084 0 0)
(0.0839955 0.00775703 0 0.0030028 0 0)
(0.0963649 0.018816 0 0.00909615 0 0)
(0.115001 0.0337737 0 0.0246833 0 0)
(0.158956 0.0746461 0 0.0679939 0 0)
(0.0605729 0.000694313 0 7.14888e-05 0 0)
(0.0014763 2.40908e-05 0 0.000193389 0 0)
(0.00360553 -3.75735e-05 0 0.000189792 0 0)
(0.00803293 0.00015719 0 0.000157411 0 0)
(0.0146887 0.000200769 0 0.000163494 0 0)
(0.0194213 0.000434507 0 0.000172387 0 0)
(0.0222546 0.000582591 0 0.000219504 0 0)
(0.0253192 0.000574634 0 0.000189139 0 0)
(0.0290407 0.000452585 0 0.000178381 0 0)
(0.034642 0.000313196 0 0.000207455 0 0)
(0.0404451 0.000298973 0 0.000203075 0 0)
(0.0479029 0.000440355 0 0.000255686 0 0)
(0.0539772 0.000482007 0 0.000274382 0 0)
(0.0616876 0.00101585 0 0.000398853 0 0)
(0.0670655 0.00164192 0 0.000508656 0 0)
(0.0759956 0.00413463 0 0.00136476 0 0)
(0.0831852 0.00782668 0 0.00267818 0 0)
(0.0978087 0.0177093 0 0.00891864 0 0)
(0.117216 0.0339194 0 0.0223002 0 0)
(0.163763 0.0701605 0 0.0628824 0 0)
(0.0605254 0.000220872 0 5.55616e-05 0 0)
(0.00124987 5.16845e-05 0 0.000127908 0 0)
(0.00330793 7.97372e-05 0 0.000112048 0 0)
(0.00769281 0.000134013 0 0.000110122 0 0)
(0.0143003 9.86405e-05 0 0.000131667 0 0)
(0.0189712 0.000220505 0 0.000130819 0 0)
(0.021679 0.00023887 0 0.00015203 0 0)
(0.0246357 0.000284079 0 0.000133454 0 0)
(0.0284889 0.000118005 0 0.000132468 0 0)
(0.0340297 0.000118406 0 0.000156786 0 0)
(0.0399567 -6.98041e-05 0 0.000159098 0 0)
(0.0470267 0.000309129 0 0.000182342 0 0)
(0.0532552 1.70719e-06 0 0.000222094 0 0)
(0.0608346 0.000890409 0 0.00031127 0 0)
(0.0667211 0.00089916 0 0.000505709 0 0)
(0.0755055 0.00409537 0 0.00119699 0 0)
(0.0838002 0.00686579 0 0.00262211 0 0)
(0.0994449 0.0174525 0 0.00834477 0 0)
(0.120724 0.03255 0 0.0207015 0 0)
(0.170027 0.0659101 0 0.0576226 0 0)
(0.0605633 -0.000246829 0 5.45053e-05 0 0)
(0.00102742 -5.43456e-05 0 0.00012999 0 0)
(0.0029784 -1.88079e-05 0 0.000118323 0 0)
(0.00737577 -6.67828e-05 0 0.000115518 0 0)
(0.0141904 -8.31366e-05 0 0.000134316 0 0)
(0.0187137 -0.000203616 0 0.00013786 0 0)
(0.0215071 -0.000184252 0 0.000159184 0 0)
(0.0241444 -0.000265823 0 0.00015113 0 0)
(0.0283594 -0.000201813 0 0.000152723 0 0)
(0.0337386 -0.000345441 0 0.000173471 0 0)
(0.0401154 -0.000273682 0 0.000150864 0 0)
(0.0465794 -0.00022428 0 0.000188141 0 0)
(0.0534137 -0.000166022 0 0.000174251 0 0)
(0.060451 0.00015703 0 0.00032548 0 0)
(0.0673244 0.000816191 0 0.000416196 0 0)
(0.075623 0.00311952 0 0.00115514 0 0)
(0.0858395 0.00678065 0 0.0024941 0 0)
(0.101504 0.0158459 0 0.00771489 0 0)
(0.125776 0.032262 0 0.0197638 0 0)
(0.176926 0.0606853 0 0.0509542 0 0)
(0.0605267 -0.000733475 0 6.19521e-05 0 0)
(0.00103937 -0.000149271 0 0.000173783 0 0)
(0.0029878 -0.000133831 0 0.000161828 0 0)
(0.00742192 -0.000284868 0 0.000137625 0 0)
(0.0142722 -0.000298864 0 0.0001516 0 0)
(0.0188756 -0.000590629 0 0.000158389 0 0)
(0.0216547 -0.000702409 0 0.000188458 0 0)
(0.0243405 -0.0007504 0 0.000188084 0 0)
(0.0285413 -0.000631889 0 0.000180414 0 0)
(0.0340502 -0.000645759 0 0.000168987 0 0)
(0.0404359 -0.000668056 0 0.000161671 0 0)
(0.0470394 -0.000543439 0 0.000163991 0 0)
(0.0539208 -0.000694865 0 0.000192799 0 0)
(0.0611039 -0.000192229 0 0.000281561 0 0)
(0.0682043 0.000131206 0 0.000457461 0 0)
(0.0770269 0.00274705 0 0.00104453 0 0)
(0.0882189 0.00567823 0 0.00240616 0 0)
(0.104815 0.0154137 0 0.00721002 0 0)
(0.131488 0.0297508 0 0.0177328 0 0)
(0.183101 0.0621577 0 0.0457612 0 0)
(0.0604558 -0.00122326 0 7.63256e-05 0 0)
(0.00109179 -0.000193122 0 0.000250586 0 0)
(0.00310433 -0.000159928 0 0.000224487 0 0)
(0.00774237 -0.000445131 0 0.000155568 0 0)
(0.0146154 -0.000504233 0 0.000169992 0 0)
(0.0192996 -0.000957108 0 0.000194579 0 0)
(0.0221062 -0.00116057 0 0.000243239 0 0)
(0.0250726 -0.00123891 0 0.000256534 0 0)
(0.0291961 -0.000998393 0 0.000230647 0 0)
(0.0348688 -0.00095251 0 0.0001984 0 0)
(0.0411708 -0.000996892 0 0.000186315 0 0)
(0.0481305 -0.000917856 0 0.000177022 0 0)
(0.0549142 -0.00114887 0 0.000223343 0 0)
(0.0624924 -0.000625532 0 0.000270162 0 0)
(0.0697261 -0.000496624 0 0.000529131 0 0)
(0.0793777 0.00222491 0 0.000947904 0 0)
(0.0910246 0.00469589 0 0.00245582 0 0)
(0.10922 0.0146528 0 0.00659843 0 0)
(0.138193 0.0272682 0 0.0165082 0 0)
(0.191035 0.0622214 0 0.0417617 0 0)
(0.0604082 -0.00173255 0 9.88373e-05 0 0)
(0.00109844 -0.000227946 0 0.000366495 0 0)
(0.00315393 -0.00016198 0 0.000304171 0 0)
(0.00814243 -0.000561897 0 0.000164602 0 0)
(0.0152077 -0.00068564 0 0.000179501 0 0)
(0.0199225 -0.00134826 0 0.000236095 0 0)
(0.0229588 -0.001553 0 0.00028778 0 0)
(0.0260973 -0.00174252 0 0.000337655 0 0)
(0.0304095 -0.0012986 0 0.000262518 0 0)
(0.0360347 -0.00134887 0 0.000240089 0 0)
(0.0425686 -0.00120747 0 0.000185714 0 0)
(0.0496722 -0.00147028 0 0.000223931 0 0)
(0.0567879 -0.00137221 0 0.000201751 0 0)
(0.0644642 -0.0014278 0 0.000344799 0 0)
(0.0722496 -0.000680045 0 0.000482597 0 0)
(0.0823016 0.00104772 0 0.00101728 0 0)
(0.0948208 0.00453336 0 0.00226264 0 0)
(0.114464 0.0124522 0 0.00607733 0 0)
(0.145504 0.0266953 0 0.0152767 0 0)
(0.199038 0.0551485 0 0.0345472 0 0)
(0.0602538 -0.00231723 0 0.000141022 0 0)
(0.000984796 -0.000272094 0 0.000530345 0 0)
(0.00301367 -0.000179564 0 0.000440612 0 0)
(0.0084684 -0.000646214 0 0.000173385 0 0)
(0.0158428 -0.00089353 0 0.000201089 0 0)
(0.0208478 -0.00169935 0 0.000293423 0 0)
(0.0240235 -0.00204434 0 0.000385941 0 0)
(0.027431 -0.00215306 0 0.000434792 0 0)
(0.0318378 -0.00174237 0 0.000355434 0 0)
(0.0377337 -0.00165063 0 0.000293497 0 0)
(0.044408 -0.0016657 0 0.000249793 0 0)
(0.0518675 -0.00178881 0 0.000256586 0 0)
(0.059141 -0.00194805 0 0.000260569 0 0)
(0.0672058 -0.00183611 0 0.000373578 0 0)
(0.0753294 -0.00143149 0 0.000529119 0 0)
(0.0860387 0.000494285 0 0.00104986 0 0)
(0.0994028 0.00340293 0 0.00206116 0 0)
(0.120784 0.0111995 0 0.0058932 0 0)
(0.153667 0.0240627 0 0.0133655 0 0)
(0.20931 0.0497657 0 0.0317458 0 0)
(0.0601263 -0.00294017 0 0.000197601 0 0)
(0.000919544 -0.000384443 0 0.000749713 0 0)
(0.0029402 -0.000289564 0 0.000604744 0 0)
(0.00889618 -0.000801402 0 0.000191184 0 0)
(0.0166375 -0.00112032 0 0.000217598 0 0)
(0.0219734 -0.00218196 0 0.000369434 0 0)
(0.0254018 -0.00252008 0 0.000469642 0 0)
(0.0290553 -0.00274124 0 0.000563209 0 0)
(0.0336931 -0.00211686 0 0.000416817 0 0)
(0.0399225 -0.00217377 0 0.000371537 0 0)
(0.0468486 -0.00200283 0 0.000272405 0 0)
(0.0546083 -0.00238873 0 0.000306342 0 0)
(0.0621563 -0.00228498 0 0.00027061 0 0)
(0.0705881 -0.00262153 0 0.000424471 0 0)
(0.0792863 -0.00186258 0 0.000568345 0 0)
(0.0906287 -0.000574844 0 0.0010478 0 0)
(0.105223 0.0025542 0 0.00205094 0 0)
(0.128068 0.00924695 0 0.00542058 0 0)
(0.16346 0.0212426 0 0.0122059 0 0)
(0.22113 0.0447438 0 0.0292866 0 0)
(0.0600249 -0.00369555 0 0.000287666 0 0)
(0.000956395 -0.000538907 0 0.00101793 0 0)
(0.0030709 -0.000474705 0 0.000823958 0 0)
(0.00965035 -0.00099822 0 0.000227056 0 0)
(0.017764 -0.00146458 0 0.000272981 0 0)
(0.023383 -0.00267572 0 0.000481812 0 0)
(0.0271766 -0.00310396 0 0.00062106 0 0)
(0.0311745 -0.00331588 0 0.000727757 0 0)
(0.0362342 -0.00263259 0 0.000541786 0 0)
(0.042726 -0.00264954 0 0.000477282 0 0)
(0.0500564 -0.00246272 0 0.000330486 0 0)
(0.0580959 -0.00294522 0 0.000391326 0 0)
(0.0661505 -0.00276802 0 0.000302826 0 0)
(0.0749613 -0.00338256 0 0.00053009 0 0)
(0.0845132 -0.00244407 0 0.000589399 0 0)
(0.0963632 -0.00168383 0 0.00114189 0 0)
(0.112506 0.00153236 0 0.00199708 0 0)
(0.136431 0.00703642 0 0.0050655 0 0)
(0.174935 0.0181268 0 0.0113345 0 0)
(0.234038 0.0391282 0 0.0266855 0 0)
(0.0600489 -0.00451042 0 0.000403887 0 0)
(0.00102437 -0.000726014 0 0.00134617 0 0)
(0.00332844 -0.000697584 0 0.00100143 0 0)
(0.0106787 -0.00123391 0 0.000268605 0 0)
(0.0192571 -0.00187921 0 0.000335659 0 0)
(0.0252408 -0.00325757 0 0.000612208 0 0)
(0.0294331 -0.00371442 0 0.000773445 0 0)
(0.0339546 -0.00395854 0 0.000896179 0 0)
(0.0394077 -0.00318907 0 0.000661921 0 0)
(0.0463844 -0.00321529 0 0.000580404 0 0)
(0.0540064 -0.00295792 0 0.00038104 0 0)
(0.0626284 -0.00359431 0 0.000474266 0 0)
(0.0710122 -0.00328766 0 0.00034017 0 0)
(0.0806771 -0.00426463 0 0.000639536 0 0)
(0.0907072 -0.00306816 0 0.000628993 0 0)
(0.103649 -0.00295546 0 0.00124698 0 0)
(0.120711 0.000459273 0 0.00197201 0 0)
(0.146498 0.00452583 0 0.00478471 0 0)
(0.187426 0.0147842 0 0.0106335 0 0)
(0.249021 0.032526 0 0.0242977 0 0)
(0.0606584 -0.0054772 0 0.000568647 0 0)
(0.00113114 -0.000947204 0 0.00175358 0 0)
(0.00379986 -0.00101455 0 0.00112428 0 0)
(0.0118101 -0.00151889 0 0.000342675 0 0)
(0.0213527 -0.00242676 0 0.000439449 0 0)
(0.0272652 -0.00390549 0 0.00078754 0 0)
(0.0326311 -0.00445297 0 0.000974273 0 0)
(0.036999 -0.00461929 0 0.00109233 0 0)
(0.0435718 -0.00385758 0 0.00081468 0 0)
(0.0504456 -0.00383773 0 0.000715856 0 0)
(0.0591509 -0.0035914 0 0.00045894 0 0)
(0.067735 -0.00429436 0 0.00057926 0 0)
(0.0771899 -0.00390946 0 0.000392086 0 0)
(0.0870761 -0.00520599 0 0.000774784 0 0)
(0.0983244 -0.0037849 0 0.00067508 0 0)
(0.111945 -0.00435261 0 0.00140392 0 0)
(0.130391 -0.000683883 0 0.00192061 0 0)
(0.157957 0.00173003 0 0.00469693 0 0)
(0.201186 0.0113481 0 0.00982311 0 0)
(0.265819 0.0247853 0 0.0227594 0 0)
(0.0620323 -0.00664631 0 0.000795985 0 0)
(0.00147 -0.00118767 0 0.00221988 0 0)
(0.00479069 -0.00146727 0 0.00121342 0 0)
(0.0130148 -0.00184376 0 0.000441641 0 0)
(0.0244894 -0.003157 0 0.000582345 0 0)
(0.0291211 -0.0045561 0 0.00098698 0 0)
(0.0374001 -0.00537809 0 0.00120745 0 0)
(0.0398009 -0.0052136 0 0.00128945 0 0)
(0.0496512 -0.0047458 0 0.0010016 0 0)
(0.0542148 -0.00438291 0 0.000850582 0 0)
(0.0665987 -0.00445014 0 0.000559535 0 0)
(0.0726619 -0.0049392 0 0.000692411 0 0)
(0.0860729 -0.00476053 0 0.000467639 0 0)
(0.0932827 -0.006048 0 0.000923472 0 0)
(0.108974 -0.00473911 0 0.000731127 0 0)
(0.120078 -0.00567391 0 0.00160452 0 0)
(0.142951 -0.00203029 0 0.00184211 0 0)
(0.168625 -0.000998333 0 0.00476303 0 0)
(0.215201 0.00810346 0 0.0087838 0 0)
(0.278489 0.0171004 0 0.0220364 0 0)
(0.0631077 -0.00796684 0 0.00110251 0 0)
(0.00217206 -0.00149395 0 0.00275204 0 0)
(0.00641368 -0.00204967 0 0.00131031 0 0)
(0.014498 -0.00225398 0 0.00057592 0 0)
(0.0287641 -0.00411466 0 0.000772353 0 0)
(0.0311628 -0.00527055 0 0.00122014 0 0)
(0.0439709 -0.00654587 0 0.00147851 0 0)
(0.0426669 -0.00577938 0 0.00149457 0 0)
(0.0582407 -0.00594101 0 0.00122504 0 0)
(0.0578705 -0.0048807 0 0.000983865 0 0)
(0.0771814 -0.00558952 0 0.000689298 0 0)
(0.077112 -0.00552458 0 0.000796268 0 0)
(0.0984295 -0.00593554 0 0.000577736 0 0)
(0.0979499 -0.0067046 0 0.00105578 0 0)
(0.121989 -0.00594664 0 0.000827422 0 0)
(0.123561 -0.00656535 0 0.00175118 0 0)
(0.153556 -0.00335592 0 0.00185325 0 0)
(0.166953 -0.00251817 0 0.00459906 0 0)
(0.215065 0.00629104 0 0.00800646 0 0)
(0.262218 0.0138992 0 0.0203491 0 0)
(0.0624802 -0.00930322 0 0.00149574 0 0)
(0.00292009 -0.00195478 0 0.00334751 0 0)
(0.00813633 -0.00263053 0 0.00141859 0 0)
(0.0164569 -0.00284059 0 0.000756017 0 0)
(0.0332712 -0.0052306 0 0.00102262 0 0)
(0.0344739 -0.00619333 0 0.00151056 0 0)
(0.0512198 -0.00787031 0 0.0017936 0 0)
(0.0470128 -0.00652229 0 0.0017389 0 0)
(0.0674962 -0.00723706 0 0.00147422 0 0)
(0.0619983 -0.00548282 0 0.00113142 0 0)
(0.086574 -0.00669518 0 0.000825284 0 0)
(0.0785143 -0.00596309 0 0.000904853 0 0)
(0.104345 -0.0068558 0 0.000687718 0 0)
(0.0923478 -0.0067165 0 0.00117085 0 0)
(0.118193 -0.00628034 0 0.00088635 0 0)
(0.104904 -0.00597687 0 0.00183084 0 0)
(0.132197 -0.00277637 0 0.00175815 0 0)
(0.127365 -0.00104994 0 0.00428855 0 0)
(0.166048 0.00886827 0 0.00696083 0 0)
(0.195534 0.0181868 0 0.0177194 0 0)
(0.0606455 -0.0106563 0 0.002005 0 0)
(0.00352287 -0.00259782 0 0.00394868 0 0)
(0.00965791 -0.00311871 0 0.00152882 0 0)
(0.0192066 -0.00365297 0 0.000984991 0 0)
(0.0377569 -0.00643984 0 0.00133443 0 0)
(0.0394927 -0.00732887 0 0.00184239 0 0)
(0.0570514 -0.00906454 0 0.00212617 0 0)
(0.0505258 -0.00719308 0 0.00198346 0 0)
(0.0687955 -0.00783937 0 0.00168749 0 0)
(0.0575025 -0.00540333 0 0.00122787 0 0)
(0.0755332 -0.00652592 0 0.000919837 0 0)
(0.0595909 -0.00485604 0 0.000921315 0 0)
(0.0748476 -0.00574555 0 0.000745625 0 0)
(0.0557242 -0.0040613 0 0.00112151 0 0)
(0.0682588 -0.00403326 0 0.000869486 0 0)
(0.0518684 -0.00181052 0 0.00163174 0 0)
(0.0649392 0.000327701 0 0.00157971 0 0)
(0.0622573 0.00471302 0 0.0034679 0 0)
(0.0901949 0.0134114 0 0.0058625 0 0)
(0.131847 0.026816 0 0.0124597 0 0)
(0.0588469 -0.0121598 0 0.00268322 0 0)
(0.00421438 -0.00348448 0 0.00445872 0 0)
(0.011404 -0.0036962 0 0.00170977 0 0)
(0.0227821 -0.00472442 0 0.00130591 0 0)
(0.0405059 -0.00757024 0 0.00171799 0 0)
(0.0401439 -0.00788446 0 0.00217052 0 0)
(0.0489818 -0.00852707 0 0.00235118 0 0)
(0.0365612 -0.00569721 0 0.00208908 0 0)
(0.0408374 -0.0053799 0 0.00168323 0 0)
(0.0275016 -0.00252939 0 0.00115322 0 0)
(0.0297702 -0.00301563 0 0.000827867 0 0)
(0.0205976 -0.000829131 0 0.000782326 0 0)
(0.0208309 -0.00133848 0 0.000624816 0 0)
(0.0189089 0.00120644 0 0.000908527 0 0)
(0.0194024 0.000610381 0 0.000673143 0 0)
(0.027964 0.00404956 0 0.00129719 0 0)
(0.0332178 0.00421636 0 0.00118459 0 0)
(0.0594617 0.0107491 0 0.00265502 0 0)
(0.0885411 0.0162193 0 0.00441002 0 0)
(0.161131 0.0312244 0 0.00803483 0 0)
(0.0587341 -0.0140588 0 0.00358815 0 0)
(0.00555017 -0.00473604 0 0.00498913 0 0)
(0.0128226 -0.00438701 0 0.0021133 0 0)
(0.0219941 -0.00524198 0 0.00174205 0 0)
(0.0282471 -0.00648781 0 0.00200508 0 0)
(0.0193119 -0.00462031 0 0.002201 0 0)
(0.0150132 -0.00313862 0 0.00215722 0 0)
(0.00903921 0.000168588 0 0.00176806 0 0)
(0.00979423 0.00071717 0 0.00131141 0 0)
(0.0184785 0.00268503 0 0.000836751 0 0)
(0.0189887 0.00226717 0 0.000570103 0 0)
(0.0418527 0.00396748 0 0.000518842 0 0)
(0.0390974 0.00348431 0 0.000417071 0 0)
(0.0765899 0.00579412 0 0.000601561 0 0)
(0.0735188 0.00446504 0 0.000441753 0 0)
(0.122399 0.00806449 0 0.000881894 0 0)
(0.12712 0.0059407 0 0.000789182 0 0)
(0.186698 0.0138982 0 0.00184912 0 0)
(0.224449 0.0139329 0 0.00283656 0 0)
(0.318561 0.032608 0 0.00545642 0 0)
(0.0627765 -0.0172261 0 0.00501827 0 0)
(0.00610507 -0.00542319 0 0.00560048 0 0)
(0.008357 -0.00301243 0 0.00245556 0 0)
(0.00859549 -0.00175935 0 0.00180929 0 0)
(0.00526392 -0.000101353 0 0.00169974 0 0)
(0.00934394 0.00312707 0 0.00163368 0 0)
(0.0218916 0.00480785 0 0.00146991 0 0)
(0.053806 0.00639619 0 0.00111882 0 0)
(0.0758038 0.00584605 0 0.000772536 0 0)
(0.121953 0.00621387 0 0.000470449 0 0)
(0.134958 0.0055307 0 0.00030554 0 0)
(0.193326 0.00640619 0 0.000279261 0 0)
(0.196196 0.00584985 0 0.000227724 0 0)
(0.269669 0.00743347 0 0.00033393 0 0)
(0.267062 0.00583076 0 0.000247142 0 0)
(0.348725 0.00860002 0 0.000509897 0 0)
(0.35289 0.00533097 0 0.00046682 0 0)
(0.42991 0.0127677 0 0.00110215 0 0)
(0.478296 0.00911872 0 0.00167146 0 0)