/*--------------------------------*- C++ -*----------------------------------*\
| =========                 |                                                 |
| \\      /  F ield         | OpenFOAM: The Open Source CFD Toolbox           |
|  \\    /   O peration     | Version:  2.4.0                                 |
|   \\  /    A nd           | Web:      www.OpenFOAM.org                      |
|    \\/     M anipulation  |                                                 |
\*---------------------------------------------------------------------------*/
FoamFile
{
    version     2.0;
    format      ascii;
    class       volScalarField;
    location    "0.102";
    object      p;
}
// * * * * * * * * * * * * * * * * * * * * * * * * * * * * * * * * * * * * * //

dimensions      [0 2 -2 0 0 0 0];

internalField   nonuniform List<scalar> 
4400
(
103.366
83.167
75.5785
72.2257
69.8464
67.4041
65.1948
63.0063
60.7827
60.507
101.431
83.2353
75.6156
72.2373
69.8488
67.4053
65.1924
63.0081
60.7814
60.3945
100.218
83.5531
75.751
72.2762
69.8686
67.4143
65.1916
63.0085
60.7807
60.2822
99.4854
83.9379
75.932
72.3351
69.9088
67.4417
65.1972
63.0089
60.7832
60.1795
98.8922
84.2912
76.1154
72.3965
69.962
67.4892
65.2122
63.0124
60.7932
60.0564
98.3788
84.5846
76.2781
72.441
70.01
67.5444
65.2339
63.0118
60.832
59.9408
97.9551
84.8173
76.4146
72.4663
70.0435
67.5962
65.2515
63.0079
60.8353
59.8438
97.6308
84.9918
76.5214
72.4804
70.0618
67.6411
65.2555
63.0022
60.7699
59.7663
97.4137
85.1079
76.5944
72.4867
70.0682
67.6744
65.2561
62.9861
60.7498
59.7103
97.306
85.1645
76.6306
72.4914
70.0656
67.696
65.2518
62.9643
60.7536
59.6238
97.3077
85.1605
76.6308
72.4963
70.0538
67.7074
65.2419
62.9425
60.7583
59.5222
97.4197
85.0956
76.5952
72.4992
70.0352
67.7062
65.2289
62.9189
60.7651
59.4063
97.6409
84.9714
76.5222
72.5005
70.0071
67.6937
65.212
62.8948
60.774
59.2809
97.9676
84.7902
76.4146
72.4964
69.9682
67.6687
65.1907
62.869
60.7886
59.1437
98.3917
84.5522
76.2804
72.4796
69.9175
67.6291
65.1663
62.8445
60.8117
58.9914
98.9045
84.2555
76.1192
72.4436
69.8563
67.5808
65.1415
62.8236
60.8339
58.8838
99.4987
83.9003
75.935
72.3895
69.7937
67.5376
65.1213
62.8151
60.8368
58.8173
100.235
83.5137
75.7529
72.3342
69.7496
67.5117
65.1118
62.8159
60.8335
58.8007
101.452
83.1959
75.617
72.2956
69.7291
67.5027
65.1096
62.8193
60.8318
58.7983
103.389
83.128
75.5799
72.2833
69.7263
67.5034
65.1087
62.8219
60.8316
58.9046
55.4172
53.4534
53.2464
53.5298
53.8369
53.864
53.6884
54.0829
55.442
56.881
57.6744
55.235
52.3313
49.501
41.1539
34.269
30.6816
25.8876
23.8736
24.5538
24.982
27.3365
30.3548
34.0987
40.1494
45.6791
51.0438
56.2871
59.592
62.803
65.7205
66.7164
65.9029
64.4265
62.8853
61.9122
61.5936
61.1319
60.8935
59.5505
55.6295
50.9008
46.1538
41.3648
38.0234
37.0771
38.7409
42.3868
47.7093
54.9595
63.0839
70.847
76.5427
80.5035
82.9759
84.7492
85.267
84.3311
83.7244
84.1007
81.5566
72.0156
64.2269
56.2666
50.9493
48.9803
49.317
51.8178
58.0796
66.5706
73.6356
77.286
79.4264
78.4541
78.1242
74.1618
71.7131
67.8535
66.0352
64.8287
65.0408
65.6485
67.1892
68.809
71.1748
72.4428
74.4694
75.4506
77.6644
78.7238
81.1082
81.7091
83.2263
82.6915
83.0168
81.1943
80.7486
76.2734
75.7347
51.4844
55.3292
53.1748
53.2797
53.6409
54.0994
54.432
54.0329
54.5094
55.4425
56.4753
57.2807
54.5561
51.7797
49.5288
41.3955
35.0336
32.2542
27.6056
25.3277
26.2499
27.1867
29.3217
32.0449
35.6697
41.5347
46.9483
51.7712
56.7772
60.1462
62.9629
65.3767
65.738
63.5091
60.6369
58.2428
56.7917
55.9798
55.713
56.4223
56.2755
53.8341
51.0414
47.8269
44.4119
42.3385
41.9646
43.3668
46.767
51.6079
57.9821
65.1838
72.0156
77.1383
80.8636
83.1419
85.0496
85.925
85.2236
84.2691
85.19
83.2186
71.9223
62.3593
53.8132
47.9109
45.6141
46.1424
48.8872
55.7085
64.7417
72.5854
76.4755
79.2133
78.236
78.1182
74.2921
71.8976
68.2899
66.4773
65.3057
65.2647
65.6774
66.9037
68.3269
70.5052
71.7982
73.7637
74.5951
76.8672
77.7627
80.3802
80.696
82.5865
81.444
81.9189
79.3725
79.3721
72.5195
70.8408
43.746
55.3404
53.0036
53.4382
53.8623
54.231
54.9232
54.2632
54.7739
55.4431
55.8995
56.7797
53.9029
51.2
49.5107
41.7891
35.8181
33.8
29.7324
27.1879
28.1031
29.6282
31.6463
34.1058
37.6248
43.0897
48.3279
52.7898
57.355
60.7588
63.3801
65.271
65.029
61.4459
57.1248
53.8493
51.7854
50.4178
50.4934
52.1164
52.981
52.1416
51.3032
49.5468
47.6812
46.8468
47.0983
48.2943
51.3636
55.6974
61.1707
67.3062
73.1382
77.7493
81.1535
83.3884
85.3584
86.3758
85.9845
84.9299
86.2649
84.4399
72.2604
61.0652
52.4299
45.8723
42.9746
43.4957
46.4625
53.8011
63.2399
71.9228
75.9285
79.3188
78.2239
78.2979
74.7592
72.2754
69.0092
67.1773
65.9399
65.6589
65.8726
66.7668
67.925
69.7593
71.1327
72.904
73.5876
75.7749
76.5264
79.0879
79.3237
81.5821
79.9139
80.6352
77.2146
77.297
68.9216
65.44
41.8416
55.4164
52.9642
53.6552
54.1559
54.33
55.3251
54.4111
54.8946
55.3705
55.225
56.2344
53.4139
50.4737
49.505
42.6624
36.778
35.1821
32.1288
29.5057
30.1071
32.0499
34.1702
36.4049
39.6467
44.5866
49.583
53.8503
58.0251
61.4597
64.1117
65.5715
64.6143
59.6382
53.9496
49.8337
46.9571
45.005
45.6449
48.0554
49.8375
50.7167
51.6139
51.3799
51.2009
51.502
52.2845
53.4153
56.1354
59.8424
64.3338
69.3751
74.2005
78.308
81.3591
83.5923
85.5738
86.7984
86.6488
85.693
87.2559
84.593
72.3868
59.914
51.4712
44.5923
40.9588
41.5433
44.5782
52.4271
62.205
71.6895
75.7905
79.6932
78.5453
78.7086
75.4762
72.9428
69.9578
68.0136
66.6863
66.217
66.1898
66.7742
67.6256
69.1635
70.6212
72.0822
72.8207
74.5829
75.2373
77.3717
77.3594
79.617
77.5218
79.8166
74.8381
75.1142
65.7621
59.1179
41.2398
55.5153
53.1588
53.9646
54.5073
54.4076
55.5706
54.5011
54.8565
55.3336
54.5176
55.6184
53.2697
49.9973
49.3677
44.0514
38.1618
36.4954
34.5423
32.1513
32.3109
34.392
36.6472
38.7018
41.6073
45.9872
50.6743
54.8301
58.7437
62.2562
65.1214
66.3035
64.5796
58.1439
51.0485
46.0592
42.3078
39.9855
41.3396
44.3674
47.0353
49.5694
51.9771
53.3826
54.8739
56.1478
57.4141
58.6284
60.901
63.8915
67.3863
71.3411
75.1898
78.7627
81.5092
83.6435
85.6493
87.1058
87.1904
86.2957
88.168
84.6729
72.7277
58.6353
49.9462
43.6134
39.3702
40.2957
43.0591
51.6881
61.6011
71.9006
76.1354
80.3293
79.2623
79.2807
76.37
73.8233
70.9465
68.9218
67.5349
66.8758
66.5221
66.8611
67.3827
68.7753
70.2701
71.4973
72.2266
73.6376
74.3716
75.999
75.7462
77.2177
74.5424
77.0118
70.8728
72.4503
63.0723
53.1946
40.8009
55.6261
53.2822
54.3026
54.8782
54.4679
55.7038
54.6414
54.6932
55.327
54.1199
54.9416
53.3751
49.9298
49.1343
45.4318
39.9009
37.8659
36.763
34.8685
34.6553
36.6023
38.9396
40.8879
43.4664
47.3128
51.6436
55.7217
59.5288
63.1529
66.353
67.4116
64.922
57.0392
48.5317
42.5374
37.9304
35.4846
37.565
41.0898
44.687
48.7318
52.3981
55.4751
58.5141
60.6647
62.3816
63.7338
65.5528
67.757
70.194
73.0921
76.0563
79.0888
81.631
83.5656
85.5427
87.0162
87.476
86.6362
88.7397
85.492
73.2556
56.9204
47.5443
42.5257
38.0009
39.6705
41.7404
51.7559
61.3787
72.6051
76.8727
81.2107
80.2264
79.9976
77.3885
74.7855
71.947
69.8774
68.4071
67.5436
66.839
66.9247
67.1734
68.4894
69.8969
71.0112
71.5489
72.7754
73.6136
74.8661
74.9702
75.4195
72.7569
72.9601
66.5456
68.0368
58.6201
49.4965
41.1844
56.0209
53.8686
54.5273
55.049
54.4605
55.5988
54.8269
54.5229
55.2976
54.0356
54.295
53.5772
50.2892
48.9807
46.6031
41.8378
39.3824
38.7175
37.426
36.9993
38.6652
41.002
42.8616
45.0899
48.4894
52.4952
56.4729
60.3424
64.1687
67.7378
68.7655
65.4971
56.2639
46.4646
39.4286
34.0864
31.7022
34.3359
38.2376
42.8163
48.1341
52.8448
57.5854
61.9441
64.9051
67.0552
68.586
69.9346
71.3419
72.7423
74.6282
76.7691
79.284
81.6698
83.4042
85.1701
86.6857
87.2251
86.9239
88.6909
86.6846
73.5838
54.8949
45.1333
41.3299
36.8075
39.6039
40.538
52.7399
61.4229
73.7473
78.0408
82.255
81.3378
80.8737
78.4179
75.7884
72.9819
70.8014
69.2456
68.1644
67.1618
67.0231
67.1061
68.2729
69.4572
70.4153
70.8082
71.8584
72.7599
73.7221
73.7917
73.5174
71.3592
69.6474
64.3922
61.6187
54.5678
47.866
41.0596
56.7484
54.7742
54.7085
55.0261
54.3997
55.3633
54.9948
54.4367
55.2424
54.1537
53.8648
53.7606
50.8854
49.0892
47.5316
43.6712
41.0096
40.4929
39.6953
39.2366
40.6448
42.8135
44.5663
46.5876
49.5782
53.2295
57.0877
61.0054
65.0904
69.0894
70.2116
66.1524
55.7248
44.8061
36.8186
31.0014
28.7089
31.5881
35.8058
41.3386
47.6487
53.3118
59.582
65.0052
68.7333
71.3287
73.0478
73.9461
74.5984
75.0284
75.931
77.3152
79.3711
81.5958
83.21
85.0025
86.4465
87.0475
87.8953
89.0287
87.6698
73.8676
53.9669
44.1105
40.3415
35.8934
39.8531
39.4406
54.6139
61.5517
75.3617
79.5895
83.4482
82.5772
81.8578
79.4664
76.8428
74.0451
71.7385
70.0823
68.7928
67.5491
67.2005
67.1349
68.0949
69.0542
69.8107
70.1674
71.0076
72.0443
72.6141
72.6383
71.5694
69.4289
66.7576
63.1114
58.107
53.5462
47.2972
40.4827
57.387
55.5582
54.9413
55.0169
54.4162
55.1834
55.1419
54.5017
55.1819
54.3352
53.675
53.8172
51.5167
49.454
48.2792
45.2901
42.6882
42.1542
41.7176
41.343
42.4957
44.4428
46.0988
47.96
50.5839
53.8195
57.4809
61.4147
65.8045
70.2447
71.5409
66.7811
55.4395
43.5948
34.7756
28.7173
26.5376
29.4795
33.9782
40.2721
47.303
53.8569
61.4231
67.6835
72.1156
75.1837
77.0364
77.528
77.4681
76.9846
76.9719
77.6949
79.3511
81.4154
82.9922
84.8797
86.5426
87.4263
89.3859
90.1957
88.2849
74.9356
55.486
45.542
39.8088
35.6027
40.6337
38.6279
57.1928
61.5871
77.4288
81.2374
84.7863
83.9708
82.9819
80.6473
77.9476
75.1848
72.709
70.9523
69.4763
67.9934
67.4078
67.2373
67.9768
68.7224
69.289
69.7485
70.3593
71.4967
71.6122
71.6254
70.0075
68.2749
65.1742
62.1724
56.8088
54.3741
46.9542
40.4019
57.8457
56.2084
55.2217
55.0736
54.5261
55.022
55.2463
54.6863
55.1357
54.504
53.6754
53.8193
52.0774
49.984
48.9346
46.6808
44.3374
43.738
43.526
43.3025
44.2518
45.94
47.491
49.2168
51.4569
54.201
57.5358
61.4379
66.1722
70.9708
72.4285
67.1723
55.3738
42.9071
33.4932
27.3461
25.2162
28.1201
32.8315
39.6901
47.2215
54.5789
63.1225
69.9821
75.06
78.5791
80.4575
80.6156
79.9153
78.5865
77.7434
77.9424
79.2878
81.1463
82.7508
84.8152
86.9082
88.2695
90.626
91.2492
88.2857
76.9651
59.0104
48.5217
40.0014
36.1606
41.2465
38.2253
60.4045
61.5527
79.6835
82.986
86.2703
85.5701
84.2641
81.9994
79.1244
76.4393
73.7019
71.8753
70.2138
68.5252
67.6764
67.4365
67.9156
68.5361
68.894
69.5085
69.8863
71.0717
70.8809
70.8032
69.091
67.5469
64.4139
62.1121
56.9896
55.5599
47.0647
41.2967
58.0922
56.6795
55.4975
55.1805
54.7071
54.9922
55.3247
54.9312
55.1343
54.6707
53.8365
53.8318
52.5362
50.6139
49.5618
47.8626
45.9066
45.241
45.1323
45.1213
45.9306
47.3183
48.7499
50.3171
52.0996
54.3266
57.2862
61.0392
66.041
71.0854
72.6184
67.1673
55.3734
42.6737
32.9818
26.8624
24.8
27.5505
32.3244
39.5611
47.407
55.4667
64.6036
71.8786
77.5522
81.4404
83.2692
83.0995
81.8754
79.8494
78.3121
78.0517
79.1702
80.8616
82.5713
84.8087
87.2291
88.8775
90.9237
91.4996
88.0615
78.9986
62.625
51.3865
40.9172
37.9332
42.049
38.573
63.6129
61.5207
81.9724
85.064
87.931
87.3797
85.6596
83.5583
80.3602
77.7804
74.7284
72.8839
70.9806
69.209
68.0087
67.7562
67.9052
68.4835
68.5513
69.3645
69.5342
70.712
70.3939
70.2747
68.6543
67.2967
64.1686
62.6
57.4756
56.3943
47.8321
42.5354
58.2201
57.0058
55.7397
55.3054
54.9373
55.0414
55.376
55.1812
55.1992
54.8533
54.1075
53.8801
52.9088
51.2703
50.1729
48.8763
47.35
46.6748
46.628
46.772
47.4493
48.5856
49.8464
51.1804
52.5521
54.2699
56.7357
60.2485
65.4239
70.5544
71.9851
66.8134
55.5002
42.8964
33.1403
27.0841
25.0871
27.6815
32.4397
39.8929
47.8185
56.4001
65.747
73.3987
79.5934
83.6986
85.4414
85.101
83.3673
80.755
78.6996
78.1055
79.0442
80.5103
82.453
84.8958
87.4245
89.1278
90.7056
91.3024
88.3803
80.9127
65.4471
53.6297
42.3773
41.2995
43.194
40.1417
66.4457
61.6215
84.1442
87.4487
89.6401
89.4132
87.1363
85.2806
81.6271
79.1759
75.7898
73.9738
71.7223
70.0758
68.3816
68.2119
67.9341
68.4742
68.2163
69.1861
69.2486
70.3329
70.0686
69.9269
68.5745
67.4282
64.4118
63.3888
58.2918
56.9289
48.9334
43.3625
58.2172
57.1882
55.956
55.4541
55.2072
55.1754
55.4409
55.4305
55.3234
55.0253
54.4233
54.0129
53.2175
51.8781
50.7929
49.7825
48.6466
48.0049
47.9556
48.1863
48.7734
49.6751
50.7298
51.8244
52.8409
54.0472
55.9199
59.2456
64.4551
69.3009
70.4685
66.0497
55.8221
43.6976
33.9763
27.9082
25.9405
28.2989
33.0413
40.5286
48.3127
57.2761
66.6252
74.6842
81.1373
85.3301
87.0196
86.5792
84.4184
81.3832
78.9592
78.1126
78.9748
80.2919
82.4082
85.0616
87.5334
89.1941
90.4828
91.3141
89.3696
83.4473
68.6884
56.5363
44.8793
46.0343
44.9479
43.4693
68.5167
62.7689
86.1024
90.1053
91.3561
91.671
88.652
87.0571
82.8934
80.5738
76.8618
75.1482
72.4343
71.1318
68.8319
68.7794
67.9684
68.4497
67.906
68.8637
68.9178
69.8365
69.8619
69.7268
68.7444
67.8242
64.9316
64.1527
59.1296
57.1559
49.7968
43.8549
58.056
57.2198
56.1686
55.6457
55.4968
55.3742
55.5244
55.6351
55.4722
55.199
54.7442
54.1967
53.4785
52.4392
51.4111
50.5495
49.7207
49.159
49.081
49.3313
49.8325
50.5536
51.412
52.2615
52.9644
53.7223
55.0951
58.2905
63.3407
67.5276
68.2639
64.9847
56.3551
45.1905
35.5588
29.3618
27.278
29.2784
33.9806
41.2646
48.9078
58.1934
67.3876
75.7498
82.1932
86.4525
88.0704
87.5483
85.0589
81.8005
79.1782
78.1413
78.6862
80.2106
82.5062
85.343
87.664
89.2116
90.4544
91.704
90.6131
86.1202
72.8251
61.1952
49.0085
51.5075
47.5949
48.063
70.1411
66.158
87.8275
93.2457
93.0876
93.9901
90.1884
88.8152
84.1489
81.9027
77.9185
76.4244
73.2666
72.3051
69.5479
69.3111
67.9144
68.162
67.5563
68.3009
68.4988
69.2377
69.7552
69.7297
69.1082
68.3359
65.5482
64.7218
59.7813
57.1025
50.416
44.2964
57.8595
57.2157
56.4086
55.9002
55.7593
55.5835
55.6271
55.8002
55.6336
55.3489
55.0124
54.4207
53.7037
52.8679
51.9524
51.1917
50.5619
50.0787
49.9672
50.2044
50.6251
51.1808
51.8715
52.559
53.0398
53.4424
54.5065
57.706
62.3809
65.5918
65.7896
63.7659
57.1827
47.2862
37.8592
31.4452
29.0453
30.6028
35.1237
42.0715
49.733
59.1463
68.0977
76.6258
82.8782
87.1306
88.6457
88.0281
85.3498
82.0647
79.385
78.3042
78.8548
80.3459
82.7945
85.7487
87.8812
89.2097
90.4637
92.0862
91.5795
87.6044
76.5764
66.5192
54.3785
56.4413
51.0087
53.9349
71.2148
72.1259
89.3875
96.862
94.5266
96.0888
91.7292
90.523
85.4835
83.1724
79.0574
77.6811
74.4333
73.546
70.5442
69.6815
67.6685
67.6166
67.1056
67.6179
68.1557
68.7976
69.764
69.9729
69.4874
68.8282
66.1052
65.0723
60.2559
56.9294
50.8422
44.7896
57.557
57.1412
56.642
56.1562
55.9825
55.7823
55.7464
55.9124
55.7577
55.4697
55.1916
54.589
53.8764
53.1947
52.3919
51.689
51.1703
50.7586
50.6225
50.7955
51.1308
51.5919
52.1891
52.7706
53.111
53.3323
54.3286
57.7
61.8711
63.9708
63.5924
62.6701
58.2578
49.8553
40.7774
34.1044
31.2187
32.2245
36.445
43.0603
50.8111
60.0905
68.8588
77.3006
83.3273
87.3905
88.8119
88.1279
85.4044
82.2565
79.6028
78.5634
79.1835
80.7404
83.3449
86.2096
88.1502
89.1829
90.4468
92.1287
91.8706
88.0415
78.6306
70.7308
59.5866
60.1492
55.0874
60.6711
72.0038
81.1036
90.9074
100.648
95.4708
97.8946
93.3479
92.144
87.0221
84.344
80.3534
78.7988
75.8851
74.7108
71.5514
69.8533
67.3095
67.089
66.7114
67.2062
68.0318
68.8537
69.943
70.5311
69.8303
69.3097
66.5543
65.1858
60.5955
56.7811
51.1499
45.3142
57.5784
57.1868
56.7677
56.3184
56.1207
55.9317
55.8532
55.9755
55.824
55.5329
55.2749
54.7038
54.0153
53.413
52.6971
52.0342
51.5679
51.2029
51.0419
51.1587
51.4333
51.8253
52.3741
52.9264
53.2274
53.4392
54.6255
58.3024
61.9585
63.0297
62.1992
61.9839
59.4768
52.6583
44.0629
37.1258
33.674
34.1248
37.9857
44.2782
52.0118
61.0632
69.7361
77.8204
83.6027
87.2932
88.6284
87.9298
85.3829
82.4632
79.8362
78.9854
79.7132
81.3674
84.0585
86.6116
88.3518
89.1277
90.3405
91.7639
91.4846
88.1768
80.3379
74.0766
63.2525
63.3473
59.1567
68.424
74.3467
90.4985
91.1076
104.44
96.7154
99.595
95.2542
93.4968
88.5381
85.2671
81.5087
79.6992
77.2339
75.6423
72.317
70.0287
67.1512
66.9355
66.4963
67.3667
68.1369
69.5118
70.1812
71.3124
70.1046
69.7326
66.8773
65.1678
60.8437
56.7344
51.3793
45.8315
57.6225
57.2361
56.8433
56.4229
56.2167
56.0357
55.9276
55.9875
55.8398
55.5583
55.2923
54.7554
54.1032
53.533
52.8746
52.2459
51.7915
51.4496
51.2839
51.3488
51.5758
51.9467
52.4746
53.0215
53.3739
53.7291
55.3258
59.3299
62.5104
62.9304
62.0373
61.7985
60.5193
55.1839
47.2627
40.1414
36.1344
36.0288
39.5086
45.5189
53.1904
62.0161
70.5312
78.2489
83.6753
87.0194
88.2239
87.5819
85.3077
82.6908
80.1439
79.5998
80.3929
81.982
84.6096
86.8264
88.3786
89.0401
90.0866
91.2553
90.8705
87.8558
82.1226
76.9561
65.8459
65.6383
62.3031
76.0745
77.0368
98.0587
90.6673
108.357
98.7925
100.79
96.8516
94.2977
89.5662
85.8155
82.3828
80.4302
78.1581
76.1953
72.7643
70.2696
67.2398
67.3058
66.5055
68.1224
68.2568
70.521
70.3124
72.0995
70.2656
70.0764
67.0815
65.0904
60.9966
56.744
51.5296
46.3243
57.7069
57.3257
56.9004
56.4911
56.2719
56.0884
55.9657
55.9704
55.8197
55.5512
55.2724
54.7641
54.1434
53.5752
52.9433
52.3367
51.8826
51.5531
51.3971
51.4469
51.646
51.9969
52.5118
53.0617
53.5079
54.2484
56.0467
60.3017
63.2041
63.2974
62.1805
62.046
61.0828
56.7258
49.6842
42.6555
38.2779
37.7119
40.8596
46.6133
54.1851
62.793
71.1153
78.4857
83.6867
86.7345
87.7934
87.2247
85.2593
82.8997
80.4412
80.1331
80.8963
82.3237
84.7762
86.8431
88.2995
88.9841
89.9592
90.9395
90.0588
87.62
83.2195
78.7022
67.2109
67.1596
64.2123
81.8343
79.3201
103.43
91.4778
110.887
100.516
101.118
97.6822
94.597
90.0321
86.0242
82.7226
80.8505
78.6139
76.4032
72.9087
70.4619
67.3876
67.6795
66.5244
68.7474
68.2883
71.2959
70.3593
72.6499
70.3916
70.2904
67.2985
64.9747
61.0895
56.7906
51.6236
46.6904
57.8603
57.3901
56.9253
56.5223
56.2885
56.1013
55.9766
55.95
55.7991
55.5392
55.243
54.7487
54.147
53.5729
52.9532
52.3612
51.9048
51.5774
51.4205
51.4627
51.6651
52.0162
52.5165
53.0621
53.5631
54.3446
56.2352
60.6783
63.4178
63.4595
62.3991
62.0048
60.5671
57.0422
50.8334
43.9998
39.5046
38.6757
41.5932
47.263
54.7611
63.2053
71.4215
78.5987
83.6867
86.595
87.5905
87.0633
85.2091
83.0219
80.5799
80.3488
81.0778
82.3439
84.8005
86.7902
88.2252
88.9941
89.9797
90.9171
90.0418
87.7216
83.5831
78.9975
68.0435
68.04
64.7538
84.7898
80.4084
105.719
91.5097
111.418
100.694
101.016
97.851
94.4796
90.1558
86.1221
82.7142
80.6707
78.4993
76.3778
73.0092
70.5798
67.5031
67.8666
66.5176
69.0203
68.2145
71.6207
70.2806
72.8449
70.3468
70.3416
67.3065
64.8921
61.0998
56.7716
51.6486
46.6494
56.8071
56.6759
55.1186
52.441
49.7755
47.3568
45.5555
44.2414
43.0282
41.8606
41.0074
40.5925
40.5554
41.1075
41.8005
41.7823
40.8458
39.387
37.9389
36.0237
34.7935
35.4452
38.2807
42.8676
48.1291
53.7304
59.3198
63.9455
69.904
75.7619
81.7333
87.4553
91.3886
93.4602
93.2748
91.2531
88.7035
86.7701
85.4373
83.2417
79.5961
74.273
67.3193
59.9747
53.546
49.8427
51.0558
52.5123
59.1272
64.2435
70.6009
76.2229
80.8751
84.0062
85.7446
86.3915
86.0562
85.0051
84.4337
85.841
88.8559
92.1971
94.9176
96.3392
96.6129
96.39
95.9309
95.0693
93.7656
92.2936
90.9795
89.8119
88.6225
87.2775
85.7273
83.9758
82.096
80.158
78.4161
76.9989
76.0562
75.6372
75.7422
76.277
77.1352
78.2061
79.3893
80.6035
81.7953
82.9186
83.9355
84.8364
85.6504
86.3858
86.9197
87.2809
87.8247
87.8042
88.3844
89.5343
56.8037
56.5478
54.8565
52.1243
49.5334
47.1529
45.5323
44.2833
43.0078
41.7151
40.8145
40.4312
40.5153
41.1784
41.8745
41.7928
41.0139
39.6699
37.4848
34.8396
33.5043
34.4487
37.6148
42.4088
47.8072
53.4513
59.0095
63.6659
69.5683
75.4762
81.4675
87.3181
91.307
93.4373
93.2717
91.2538
88.6005
86.6639
85.4659
83.5387
79.7033
74.0735
66.6979
59.2565
52.7621
48.9146
50.2613
52.0837
58.71
64.039
70.4916
76.2402
80.9977
84.1664
85.8983
86.5151
86.1155
84.9482
84.275
85.6373
88.7068
92.1968
95.0414
96.4622
96.647
96.3959
95.9565
95.1372
93.7993
92.2846
90.9678
89.8221
88.6458
87.296
85.733
83.9633
82.056
80.1067
78.3387
76.9071
75.9605
75.5476
75.6672
76.2159
77.0919
78.1769
79.3717
80.5925
81.7919
82.9249
83.9493
84.8463
85.65
86.3758
86.898
87.3048
87.7821
87.6107
88.1937
89.2511
56.7302
56.1144
54.2396
51.4419
48.963
46.8082
45.6618
44.5967
43.0372
41.4045
40.3215
40.0559
40.5577
41.5273
42.1895
42.0794
40.7645
38.7027
35.6554
32.297
30.9553
32.4866
36.1209
41.336
47.1517
52.8328
58.3896
63.0167
68.6298
74.642
80.5974
86.6203
90.7879
93.1031
92.9601
90.9258
88.311
86.3347
85.3036
83.3442
79.3199
73.2331
65.3994
57.7537
51.2801
47.1753
48.6042
50.9855
57.4488
63.4361
70.0569
76.0581
81.0557
84.3689
86.1031
86.6273
86.1875
84.8141
83.9467
85.1562
88.2898
91.942
94.9715
96.5222
96.7657
96.438
96.0009
95.1805
93.7852
92.2118
90.9061
89.8038
88.6511
87.2992
85.7206
83.9226
81.977
79.9943
78.1912
76.7374
75.7904
75.3896
75.5381
76.1163
77.0134
78.1303
79.3474
80.5873
81.8009
82.9472
83.9794
84.8686
85.6427
86.3633
86.9048
87.3507
87.7441
87.3334
87.8203
88.8798
56.6024
55.5352
53.3904
50.7765
48.4179
46.4633
45.8493
44.944
43.1102
40.997
39.5961
39.4688
40.6181
41.8695
42.4079
41.9259
39.8387
36.4597
32.4895
28.9034
27.9575
30.1915
34.5658
40.1522
46.4283
52.2758
57.7983
62.1869
67.3407
73.3489
79.2719
85.4487
89.9056
92.5562
92.6609
90.8286
88.2476
86.1986
85.1379
82.9047
78.4655
71.9766
63.5371
55.5447
49.2977
44.9861
46.4182
49.1699
55.4851
62.4044
69.2155
75.5766
80.8668
84.4724
86.3292
86.8862
86.2806
84.5424
83.2348
84.3138
87.532
91.3641
94.615
96.3725
96.6374
96.3077
95.9056
95.1142
93.6728
92.0612
90.8033
89.7682
88.6401
87.2837
85.6841
83.8521
81.8576
79.8279
77.9797
76.4992
75.5537
75.17
75.3659
75.9899
76.9458
78.0884
79.3328
80.5918
81.8228
82.9822
84.0289
84.9131
85.6592
86.3795
86.9902
87.5667
87.7654
87.0929
87.4052
88.4979
56.3423
55.0642
52.647
50.2582
48.0187
46.2291
46.1205
45.2958
43.0934
40.4302
38.6404
38.7247
40.4982
41.9369
42.3103
41.1862
37.9054
33.2321
28.8827
25.5601
24.9879
27.8219
32.8453
38.8396
45.6246
51.7982
57.3045
61.394
66.1505
72.0433
77.9928
84.2435
88.9654
92.0326
92.5934
91.2624
88.9289
86.8584
85.2475
82.4347
77.4775
70.3954
61.2573
52.9144
47.0002
42.6386
43.9764
46.7909
53.4394
60.9297
67.9557
74.7492
80.3965
84.4037
86.5181
87.0945
86.3113
84.0214
82.1097
83.0601
86.41
90.4606
93.9161
95.874
96.2975
95.9205
95.5484
94.8626
93.4481
91.8363
90.6614
89.7087
88.6019
87.2373
85.618
83.7457
81.6908
79.5946
77.6876
76.1694
75.2293
74.8723
75.1303
75.8175
76.8253
78.0247
79.3121
80.6109
81.863
83.042
84.0906
84.9847
85.7092
86.4346
87.0979
87.8277
87.8321
86.8815
87.0227
88.2002
55.985
54.6997
52.1468
49.9848
47.8783
46.2288
46.5047
45.6572
42.9518
39.6853
37.4984
37.8606
40.119
41.6184
41.6591
39.6811
35.0901
29.6986
25.3232
22.4571
22.099
25.4526
30.9275
37.3042
44.6405
51.3474
56.8707
60.6331
65.0819
70.8941
76.9037
83.2281
88.1745
91.6279
92.8005
92.2077
90.2561
88.11
85.7707
82.1564
76.4084
68.6584
59.0663
50.2808
44.4148
40.1143
41.2957
44.4451
51.2483
59.0745
66.4312
73.6163
79.6108
84.187
86.6812
87.2191
86.2138
83.3418
80.8078
81.5355
84.9685
89.2477
92.9274
95.0259
95.5781
95.2163
94.9026
94.3572
93.0102
91.4896
90.477
89.6394
88.547
87.1692
85.5177
83.5913
81.4548
79.2726
77.2892
75.723
74.793
74.4702
74.8102
75.5636
76.6501
77.9131
79.2565
80.5901
81.8858
83.0825
84.159
85.0655
85.8138
86.5264
87.2167
88.0585
87.9364
86.7886
86.8548
88.1011
55.7206
54.5373
51.9703
50.0367
48.0478
46.4732
46.9756
45.8968
42.6732
38.8125
36.2742
36.9558
39.4672
40.8477
40.3715
37.4016
31.8906
26.3452
22.079
19.6002
19.4827
23.245
29.0534
35.5725
43.4328
50.8676
56.4456
59.8205
64.0063
69.7867
75.9399
82.4297
87.6335
91.4253
93.2353
93.4141
91.9279
89.7599
86.6641
82.0204
75.3849
67.0329
56.9113
47.5221
41.4933
37.2418
38.2595
41.9361
48.5228
57.1412
64.969
72.3536
78.5622
83.7831
86.8091
87.4903
86.2045
82.6504
79.4204
79.8268
83.2719
87.7356
91.6763
93.8969
94.5127
94.2068
93.9152
93.4677
92.323
91.0925
90.3102
89.5447
88.4376
87.0343
85.3521
83.3692
81.1427
78.8502
76.7753
75.1464
74.2342
73.9556
74.3892
75.2287
76.405
77.7491
79.1555
80.5432
81.8682
83.1047
84.2022
85.1431
85.9217
86.6467
87.3434
88.2255
88.079
86.8787
86.9681
88.208
55.6126
54.5071
52.1381
50.3375
48.47
46.8795
47.4783
46.0479
42.3711
38.0612
35.2588
36.1602
38.697
39.8203
38.6796
34.7683
28.9042
23.4695
19.4081
16.974
17.2403
21.3988
27.5199
33.9449
42.1479
50.3436
56.0399
58.9178
62.8755
68.6588
74.9913
81.7071
87.2908
91.3881
93.7601
94.5576
93.5575
91.34
87.596
82.003
74.4508
65.2306
54.4543
44.2907
38.1584
34.1141
35.0496
38.9074
45.4549
55.3009
63.6712
71.1857
77.4705
83.1111
86.8596
87.9486
86.4187
81.8907
77.8552
77.9661
81.4681
85.9902
90.1766
92.5414
93.1514
92.8339
92.5122
92.2069
91.4646
90.6416
90.0795
89.3466
88.2317
86.8391
85.144
83.0989
80.7441
78.3106
76.1159
74.4143
73.5263
73.3156
73.8609
74.8057
76.0932
77.5263
79.0105
80.4496
81.8271
83.0814
84.22
85.1884
86.0219
86.7673
87.4837
88.2757
88.2567
87.1603
87.3044
88.5047
55.6281
54.5912
52.4706
50.7858
48.9033
47.2716
47.9361
46.3095
42.308
37.8093
34.7804
35.7564
38.1031
38.8541
36.8826
32.1305
26.4263
21.1797
17.4669
14.8925
15.5013
20.0423
26.2886
32.5345
40.9225
49.8387
55.6265
57.9891
61.8274
67.6116
74.1215
80.9761
86.9904
91.3909
94.1863
95.4306
94.8628
92.6203
88.4586
82.0556
73.4179
63.3698
51.7495
41.0921
35.0108
31.4057
32.3044
35.831
42.7959
53.4216
62.2137
70.1718
76.4611
82.2232
86.7182
88.389
86.6403
81.3564
76.7399
76.7224
80.0194
84.264
88.487
90.9945
91.5098
91.2229
90.7836
90.6047
90.3314
90.0394
89.7349
89.0508
87.9535
86.5855
84.8567
82.7247
80.2189
77.6158
75.289
73.4981
72.6609
72.5348
73.2168
74.2827
75.7054
77.2444
78.8132
80.3179
81.7448
83.0456
84.1979
85.2104
86.0615
86.849
87.5532
88.3217
88.3958
87.5226
87.8177
88.9367
55.7113
54.7273
52.8389
51.2232
49.2187
47.6268
48.3473
46.7043
42.6743
38.2509
35.287
36.0091
38.0078
38.2364
35.3151
29.8036
24.4296
19.4801
16.1671
13.6118
14.4218
19.1932
25.2964
31.2273
39.7673
49.3145
55.143
57.0692
60.8207
66.7182
73.4119
80.2618
86.5259
91.249
94.3155
95.8698
95.6046
93.4891
89.0924
81.8743
72.398
61.3419
49.2207
38.5706
32.1767
28.9336
29.8487
33.5558
40.8005
51.3111
60.4863
69.1635
75.6126
81.2909
86.2356
88.5851
86.8055
81.2964
76.3712
75.9566
78.8649
82.6258
86.6361
89.2379
89.5711
89.112
88.6652
88.6217
88.91
89.2004
89.2187
88.6429
87.5856
86.2295
84.4616
82.251
79.5721
76.7553
74.2871
72.4088
71.6546
71.6353
72.4631
73.6759
75.2322
76.8941
78.5542
80.1418
81.6233
82.9803
84.1466
85.1931
86.0546
86.8577
87.5748
88.2662
88.4941
87.9028
88.3264
89.4878
55.8235
54.8707
53.1948
51.6521
49.5455
48.0571
48.7817
47.1956
43.5076
39.4574
36.7879
37.369
38.8371
38.2897
34.2259
28.1814
22.9911
18.4051
15.3756
13.05
13.836
18.8184
24.5574
30.1162
38.7241
48.6397
54.647
56.1978
59.8644
65.9425
72.7817
79.5855
85.7912
90.75
93.9806
95.7515
95.8777
93.7782
89.1641
81.5029
71.3141
59.3497
47.1643
36.3766
29.5058
26.7096
27.6838
31.8044
39.0679
49.0796
58.6857
68.2244
75.0122
80.5307
85.4669
88.3693
86.9525
81.5907
76.3627
75.321
77.8204
81.0772
84.5825
87.1997
87.3193
86.6116
86.1729
86.2993
87.1132
88.0953
88.5322
88.0764
87.0758
85.7913
84.0009
81.681
78.7756
75.7086
73.1532
71.1813
70.5537
70.5818
71.6375
73.0131
74.7007
76.4856
78.2373
79.9143
81.4549
82.875
84.0964
85.148
86.0123
86.798
87.5081
88.1813
88.5294
88.2997
88.8496
90.1939
55.9131
54.9887
53.5267
52.0707
49.9754
48.699
49.2466
47.7928
44.8188
41.422
39.2851
39.7632
40.6747
39.2416
33.8124
27.3011
22.2327
17.8635
15.0365
13.0199
13.6336
18.6619
24.0429
29.2929
37.754
47.9067
54.127
55.4559
59.0222
65.3098
72.0943
78.7954
84.807
89.7523
93.0689
94.9604
95.1756
93.2794
88.6781
80.84
70.0286
57.7484
45.3426
34.4839
27.3769
24.8519
25.9263
30.2387
37.5362
47.2826
57.3183
67.4237
74.5953
80.0031
84.6668
87.7755
86.938
81.9163
76.5515
74.9647
77.1033
79.8155
82.4708
84.7715
84.7046
83.7789
83.3133
83.6256
84.9958
86.7171
87.5639
87.3276
86.4949
85.3001
83.4294
80.9626
77.8694
74.5375
71.932
69.8989
69.396
69.6115
70.7883
72.3482
74.1414
76.0414
77.8746
79.6361
81.2405
82.7275
83.9786
85.0669
85.9197
86.6938
87.3743
87.9919
88.5506
88.6799
89.565
90.6511
55.9286
55.0296
53.7629
52.4141
50.4746
49.4738
49.7221
48.516
46.5107
43.99
42.6255
42.8911
43.2294
40.9617
34.1558
27.0839
22.138
17.7936
15.1163
13.5097
13.8425
18.6688
23.7652
28.7639
36.9115
47.1925
53.5964
54.8595
58.3131
64.8578
71.3932
77.7251
83.5578
88.2679
91.5601
93.4564
93.7217
92.0332
87.6817
79.6959
68.705
56.2781
43.7926
33.2
25.7755
23.4269
24.6777
29.0499
36.3026
46.1094
56.6153
66.7992
74.2128
79.5741
84.0634
87.0621
86.7971
82.174
76.9623
74.9712
76.6195
78.7459
80.4142
81.9825
81.6954
80.6088
80.1199
80.635
82.5654
85.001
86.3757
86.489
85.805
84.6591
82.7431
80.1739
76.9004
73.2557
70.651
68.6395
68.2792
68.7055
70.021
71.7151
73.6081
75.5694
77.4875
79.2909
80.9859
82.5175
83.844
84.913
85.8054
86.5142
87.1765
87.7473
88.4322
88.958
89.8014
91.2564
55.8548
54.9535
53.8431
52.6796
51.0534
50.2907
50.242
49.3383
48.3945
47.1621
46.4035
46.3578
46.0771
43.0989
34.8851
27.3218
22.3773
18.1195
15.6164
14.406
14.5109
18.915
23.7839
28.6282
36.2961
46.4371
53.0303
54.3927
57.7262
64.5289
70.8323
76.4985
82.0216
86.3983
89.4924
91.2805
91.5781
90.0956
86.0126
78.1825
67.297
54.8982
42.7722
32.3374
24.7533
22.5295
23.967
28.3702
35.4528
45.4581
56.3101
66.4706
73.9576
79.186
83.5577
86.4618
86.745
82.5179
77.6837
75.3435
76.325
77.7709
78.4197
78.9671
78.3454
77.1257
76.6139
77.3826
79.852
82.9894
85.0004
85.4949
84.9717
83.945
82.0396
79.2715
75.8426
71.9447
69.4285
67.501
67.2772
67.9208
69.3943
71.1691
73.1356
75.1167
77.081
78.9043
80.6682
82.2655
83.6583
84.7761
85.6363
86.3222
86.8794
87.445
88.1617
88.9501
90.1654
90.973
55.6207
54.75
53.797
52.8841
51.6579
51.0875
50.8845
50.176
50.2134
49.9778
49.9818
49.6236
48.6367
45.1974
35.666
27.8197
22.803
18.6255
16.3113
15.4988
15.5117
19.4041
24.0055
28.7884
36.0273
45.7293
52.5018
54.0749
57.1978
64.1582
70.3261
75.2741
80.2268
84.238
86.9273
88.5441
88.8485
87.4527
83.679
76.3617
65.7591
53.7342
42.0667
31.8866
24.3036
22.2366
23.9953
28.2711
35.0982
45.2919
56.2824
66.3888
73.9645
78.9734
83.0529
85.9531
86.7453
82.9437
78.5886
76.2119
76.4699
76.9272
76.4376
75.8247
74.7252
73.3795
72.885
73.878
76.8225
80.7407
83.4738
84.3637
84.0806
83.1829
81.2388
78.2676
74.8303
70.7304
68.3091
66.4887
66.4163
67.2838
68.9235
70.7454
72.7375
74.7131
76.6627
78.5068
80.2959
81.9556