/*--------------------------------*- C++ -*----------------------------------*\
| =========                 |                                                 |
| \\      /  F ield         | OpenFOAM: The Open Source CFD Toolbox           |
|  \\    /   O peration     | Version:  2.4.0                                 |
|   \\  /    A nd           | Web:      www.OpenFOAM.org                      |
|    \\/     M anipulation  |                                                 |
\*---------------------------------------------------------------------------*/
FoamFile
{
    version     2.0;
    format      ascii;
    class       volVectorField;
    location    "0.127";
    object      U;
}
// * * * * * * * * * * * * * * * * * * * * * * * * * * * * * * * * * * * * * //

dimensions      [0 1 -1 0 0 0 0];

internalField   nonuniform List<vector> 
4400
(
(5.40458 0.316785 0)
(3.31393 0.0606781 0)
(2.58614 0.00147633 0)
(2.2293 -0.00210491 0)
(2.08555 -0.00152724 0)
(1.99263 -0.000729251 0)
(1.95414 0.000138988 0)
(1.89088 -0.000539631 0)
(1.9358 0.00200805 0)
(1.45447 -0.0665812 0)
(8.6891 0.85747 0)
(7.53347 0.344311 0)
(6.63894 0.116661 0)
(5.89948 0.0549126 0)
(5.53282 0.0267146 0)
(5.25839 0.0152789 0)
(5.15833 0.0136415 0)
(4.95516 0.00161287 0)
(5.09976 0.0328735 0)
(4.29987 -0.118747 0)
(9.89981 0.937566 0)
(9.97564 0.476315 0)
(9.51121 0.214032 0)
(8.73381 0.129483 0)
(8.29055 0.0751871 0)
(7.88921 0.0444689 0)
(7.7678 0.0384384 0)
(7.42474 0.00544981 0)
(7.679 0.0627013 0)
(6.77646 -0.115742 0)
(10.142 0.808272 0)
(11.0878 0.496419 0)
(11.3009 0.267036 0)
(10.8007 0.196704 0)
(10.4759 0.131026 0)
(10.0463 0.0811857 0)
(9.9712 0.0733033 0)
(9.51711 0.0120987 0)
(9.83262 0.0858002 0)
(9.05703 -0.0743208 0)
(10.0886 0.648831 0)
(11.2778 0.434028 0)
(12.0239 0.247443 0)
(11.9353 0.217501 0)
(11.9099 0.166413 0)
(11.599 0.111395 0)
(11.6575 0.107869 0)
(11.1954 0.0258065 0)
(11.4989 0.0924438 0)
(10.9735 -0.0178268 0)
(10.0917 0.518309 0)
(11.1638 0.356798 0)
(12.0955 0.186544 0)
(12.2386 0.186927 0)
(12.4924 0.159942 0)
(12.3976 0.112614 0)
(12.6503 0.126053 0)
(12.3388 0.0347587 0)
(12.6026 0.0884613 0)
(12.3404 0.0399762 0)
(10.1313 0.400133 0)
(11.0938 0.290201 0)
(12.0007 0.129572 0)
(12.2344 0.141831 0)
(12.5349 0.126089 0)
(12.6059 0.0885433 0)
(12.9318 0.111291 0)
(12.8709 0.0385533 0)
(13.1066 0.0570743 0)
(13.0229 0.107482 0)
(10.0743 0.276258 0)
(11.1027 0.226431 0)
(11.9328 0.0769938 0)
(12.2208 0.106956 0)
(12.4474 0.0812119 0)
(12.6065 0.0659758 0)
(12.8643 0.078619 0)
(13.0285 0.0308135 0)
(13.2024 0.0211221 0)
(13.1982 0.142059 0)
(9.99573 0.169804 0)
(11.1336 0.133222 0)
(11.894 0.0435154 0)
(12.1962 0.0645704 0)
(12.4068 0.0541777 0)
(12.5809 0.0278872 0)
(12.8165 0.0519432 0)
(13.0314 -0.00114181 0)
(13.1487 0.0139009 0)
(13.1888 0.129915 0)
(10.0053 0.0531644 0)
(11.1108 0.050396 0)
(11.8554 0.00432592 0)
(12.182 0.0330842 0)
(12.416 0.00850528 0)
(12.6087 0.00618797 0)
(12.7725 0.0172506 0)
(12.9577 -0.0121696 0)
(13.1003 -0.0216088 0)
(13.1816 0.115997 0)
(10.0025 -0.0525747 0)
(11.098 -0.0397931 0)
(11.8614 -0.0263373 0)
(12.188 -0.0136933 0)
(12.4251 -0.0239763 0)
(12.6195 -0.0263067 0)
(12.7512 0.000658284 0)
(12.9518 -0.0415218 0)
(13.0612 -0.0420023 0)
(13.13 0.0988879 0)
(10.0015 -0.16604 0)
(11.1189 -0.125428 0)
(11.8858 -0.0650305 0)
(12.2011 -0.0495857 0)
(12.4411 -0.0656911 0)
(12.6068 -0.0487362 0)
(12.7697 -0.0264209 0)
(12.9739 -0.0588178 0)
(13.0468 -0.0629062 0)
(13.1477 0.046717 0)
(10.0206 -0.275591 0)
(11.1437 -0.213584 0)
(11.9324 -0.101141 0)
(12.2169 -0.0924148 0)
(12.4617 -0.097863 0)
(12.6008 -0.0777689 0)
(12.8128 -0.0519765 0)
(13.0005 -0.078781 0)
(13.0617 -0.0833001 0)
(13.2216 -0.0255865 0)
(10.0407 -0.394684 0)
(11.176 -0.29105 0)
(11.9938 -0.143703 0)
(12.2223 -0.12943 0)
(12.5161 -0.133828 0)
(12.5959 -0.104709 0)
(12.8484 -0.0812194 0)
(12.9155 -0.093248 0)
(12.9774 -0.105711 0)
(13.1068 -0.0818362 0)
(10.0329 -0.515458 0)
(11.2472 -0.360229 0)
(12.0369 -0.192454 0)
(12.247 -0.175893 0)
(12.4668 -0.167041 0)
(12.411 -0.126849 0)
(12.5625 -0.0968716 0)
(12.4359 -0.0988014 0)
(12.4334 -0.110267 0)
(12.3931 -0.11525 0)
(10.0572 -0.646937 0)
(11.3286 -0.436353 0)
(11.9683 -0.249648 0)
(11.9648 -0.210529 0)
(11.8869 -0.173436 0)
(11.6146 -0.119886 0)
(11.5811 -0.0893198 0)
(11.3142 -0.0790062 0)
(11.2416 -0.104984 0)
(11.0474 -0.0792851 0)
(10.126 -0.807335 0)
(11.1176 -0.497913 0)
(11.2595 -0.268058 0)
(10.8324 -0.192612 0)
(10.4556 -0.135772 0)
(10.052 -0.0865756 0)
(9.91962 -0.0621931 0)
(9.6138 -0.0533421 0)
(9.52057 -0.0829511 0)
(9.22482 -0.0355438 0)
(9.89239 -0.937352 0)
(9.99235 -0.476918 0)
(9.48297 -0.214464 0)
(8.75892 -0.127322 0)
(8.27511 -0.0780058 0)
(7.88697 -0.0475688 0)
(7.74029 -0.0337264 0)
(7.47134 -0.0300561 0)
(7.38396 -0.053087 0)
(7.04249 -0.0127466 0)
(8.68568 -0.857413 0)
(7.54133 -0.344387 0)
(6.62336 -0.116963 0)
(5.91484 -0.0540002 0)
(5.52351 -0.0278388 0)
(5.25268 -0.0171407 0)
(5.14305 -0.0121256 0)
(4.96012 -0.0120596 0)
(4.88154 -0.0257299 0)
(4.58251 -0.00260723 0)
(5.40385 -0.316834 0)
(3.31592 -0.0606228 0)
(2.58183 -0.00162007 0)
(2.23377 0.00224862 0)
(2.08264 0.00148318 0)
(1.9873 0.000122472 0)
(1.94524 0.000292925 0)
(1.88059 -0.000334174 0)
(1.82562 -0.0037177 0)
(1.67657 0.0101061 0)
(2.84079 -0.306908 0)
(2.50911 -0.221721 0)
(2.86493 -0.212503 0)
(2.4108 0.268641 0)
(3.18695 0.644679 0)
(3.96086 1.26422 0)
(5.29194 1.47931 0)
(6.3887 1.16758 0)
(7.06547 0.648197 0)
(7.45559 0.276789 0)
(8.27575 -0.603993 0)
(8.25401 -0.752627 0)
(8.8311 -1.16068 0)
(9.14027 -1.87796 0)
(8.72531 -2.00781 0)
(10.4039 -2.87296 0)
(10.7599 -3.68476 0)
(10.8819 -3.80856 0)
(11.3352 -4.70995 0)
(10.63 -4.78313 0)
(8.63683 -3.68282 0)
(9.00781 -2.56376 0)
(7.03624 -1.22499 0)
(6.851 0.767233 0)
(6.3749 2.57856 0)
(7.23373 3.44364 0)
(8.16468 3.39435 0)
(7.85458 3.58948 0)
(8.92082 2.45256 0)
(8.96815 1.468 0)
(9.22213 0.759722 0)
(9.91072 -0.625605 0)
(9.86444 -2.24425 0)
(10.1688 -3.62713 0)
(9.74991 -4.39466 0)
(9.91705 -5.92654 0)
(9.74474 -7.50456 0)
(8.22402 -7.17418 0)
(6.65002 -5.76532 0)
(5.41337 -6.74913 0)
(5.34288 -9.03644 0)
(5.50418 -8.88928 0)
(6.29808 -7.97538 0)
(6.65455 -5.45705 0)
(6.703 -3.24575 0)
(6.58236 -1.47022 0)
(7.1402 -0.421964 0)
(7.03451 0.932131 0)
(7.4294 2.95711 0)
(7.92962 5.20944 0)
(8.26779 6.92254 0)
(7.86459 7.15377 0)
(8.39791 6.12313 0)
(7.5719 5.88827 0)
(8.40093 4.94002 0)
(6.57253 3.98289 0)
(7.73568 3.2748 0)
(6.82147 3.25943 0)
(7.02355 3.76428 0)
(7.88293 5.7375 0)
(6.3942 5.67787 0)
(9.63657 5.66422 0)
(7.54046 4.30824 0)
(10.1021 3.59392 0)
(8.43119 1.28835 0)
(10.3907 -0.843632 0)
(8.19405 -2.72442 0)
(10.2557 -3.95707 0)
(6.90737 -6.06121 0)
(9.75788 -6.73139 0)
(5.3208 -7.09517 0)
(7.48778 -5.91661 0)
(3.6951 -4.56818 0)
(3.68998 -0.655246 0)
(1.10471 -1.94191 0)
(4.34901 -1.82327 0)
(4.24631 -4.80352 0)
(6.23777 -2.98383 0)
(6.54431 -2.30182 0)
(7.64135 -0.628253 0)
(7.8678 -0.0104385 0)
(7.99322 0.178421 0)
(9.29603 1.29559 0)
(10.1996 2.51639 0)
(9.91545 3.10998 0)
(9.76901 3.53679 0)
(9.93423 4.31823 0)
(10.2907 4.94584 0)
(9.72623 4.99176 0)
(9.15052 4.41174 0)
(8.45364 3.4419 0)
(7.30158 2.67867 0)
(7.19514 1.97776 0)
(5.94394 1.70013 0)
(6.49567 1.75737 0)
(5.55251 2.13228 0)
(5.94073 2.70154 0)
(4.73304 3.84265 0)
(5.12711 4.3993 0)
(3.30735 8.20605 0)
(5.30379 -0.226554 0)
(4.86326 -0.173862 0)
(5.16993 -0.147106 0)
(4.574 0.286673 0)
(5.07035 0.489421 0)
(5.09513 0.835928 0)
(5.84282 0.944181 0)
(6.88859 0.733609 0)
(7.671 0.448134 0)
(8.20044 0.100028 0)
(8.86845 -0.817452 0)
(8.57135 -1.0164 0)
(9.71175 -1.42601 0)
(10.5164 -2.07754 0)
(10.1049 -2.23162 0)
(11.9246 -3.23976 0)
(11.984 -3.89189 0)
(11.9544 -3.71917 0)
(12.2377 -4.38864 0)
(11.1449 -4.31232 0)
(9.5751 -3.19588 0)
(9.46113 -2.22569 0)
(7.74602 -0.878381 0)
(7.57586 0.843741 0)
(7.38384 2.47808 0)
(7.91593 3.18211 0)
(9.04365 3.18663 0)
(8.75574 3.45203 0)
(9.66723 2.36807 0)
(9.647 1.37352 0)
(9.90455 0.601655 0)
(10.4644 -0.726608 0)
(10.4438 -2.28093 0)
(10.6154 -3.59528 0)
(10.1363 -4.31077 0)
(10.021 -5.78703 0)
(9.71719 -7.14955 0)
(7.84102 -6.53404 0)
(6.38713 -5.17185 0)
(5.03741 -6.55182 0)
(4.3986 -8.9983 0)
(5.11796 -8.91142 0)
(4.90314 -8.15401 0)
(5.72254 -5.5134 0)
(5.91416 -3.27801 0)
(5.57049 -1.56732 0)
(6.22267 -0.523948 0)
(6.00615 0.892225 0)
(6.57022 2.82385 0)
(6.97122 5.08131 0)
(7.35609 6.77461 0)
(7.11544 7.09596 0)
(7.99104 6.15201 0)
(6.84216 5.87831 0)
(8.22717 5.07503 0)
(6.46209 4.16686 0)
(7.29645 3.21864 0)
(7.20201 3.33521 0)
(6.53901 3.59043 0)
(8.48229 5.69589 0)
(6.386 5.45126 0)
(9.62424 5.39202 0)
(7.95811 4.1227 0)
(10.2705 3.5454 0)
(9.22412 1.17735 0)
(10.6599 -0.698538 0)
(8.81577 -2.64409 0)
(10.4227 -3.79144 0)
(7.36365 -5.80975 0)
(9.99654 -6.28014 0)
(5.04034 -6.6354 0)
(7.72642 -5.42205 0)
(3.10818 -4.04338 0)
(4.36774 -0.106023 0)
(1.32663 -2.14743 0)
(5.42576 -2.42871 0)
(4.30791 -5.37636 0)
(6.56553 -3.07975 0)
(6.08204 -2.72505 0)
(7.22305 -0.703342 0)
(7.33094 -0.154309 0)
(7.37149 -0.0622836 0)
(8.50881 0.83672 0)
(10.0835 2.28583 0)
(10.1162 3.13986 0)
(9.92497 3.60426 0)
(9.69379 4.2581 0)
(9.98314 5.04268 0)
(9.69655 5.19363 0)
(9.08131 4.66929 0)
(8.95196 3.81301 0)
(7.77718 3.02344 0)
(7.32505 2.25437 0)
(6.68315 2.0033 0)
(6.17801 1.62637 0)
(6.27767 2.41457 0)
(5.40952 2.68282 0)
(5.42728 4.19486 0)
(6.17512 4.23073 0)
(4.81124 8.62777 0)
(7.39302 -0.252138 0)
(7.08466 -0.173246 0)
(7.46029 -0.0850321 0)
(6.90756 0.283126 0)
(7.30407 0.440192 0)
(7.31087 0.74472 0)
(7.51006 0.726905 0)
(8.20787 0.425101 0)
(8.67602 0.195094 0)
(9.49099 -0.162361 0)
(10.4457 -0.884023 0)
(10.0224 -1.11042 0)
(11.1377 -1.70414 0)
(12.1359 -2.35519 0)
(11.6755 -2.43952 0)
(13.3382 -3.38362 0)
(12.9338 -3.95768 0)
(12.6331 -3.70169 0)
(12.6976 -4.16771 0)
(11.1699 -3.95789 0)
(10.0162 -2.8058 0)
(9.62462 -1.90257 0)
(8.21942 -0.585424 0)
(8.17684 0.888416 0)
(8.10061 2.37732 0)
(8.54976 2.9214 0)
(9.6791 2.9435 0)
(9.47351 3.30931 0)
(10.2977 2.28513 0)
(10.3489 1.26456 0)
(10.5856 0.47516 0)
(10.9998 -0.794599 0)
(10.9784 -2.2841 0)
(10.948 -3.45427 0)
(10.3406 -4.16022 0)
(10.0509 -5.67226 0)
(9.61285 -6.65997 0)
(7.5069 -5.80337 0)
(6.03687 -4.56964 0)
(4.67161 -6.19627 0)
(3.42776 -9.07687 0)
(4.89166 -9.02115 0)
(3.9601 -8.16201 0)
(4.33651 -5.62107 0)
(4.8725 -3.33651 0)
(4.58441 -1.63556 0)
(5.14711 -0.625872 0)
(4.87922 0.912511 0)
(5.64096 2.7095 0)
(5.99461 4.95613 0)
(6.38848 6.57596 0)
(6.30951 6.94928 0)
(7.60168 6.21616 0)
(6.11333 5.81307 0)
(7.64845 5.10021 0)
(6.43504 4.35906 0)
(6.66373 3.08546 0)
(7.57506 3.4086 0)
(6.06611 3.37455 0)
(8.89504 5.54891 0)
(6.77877 5.34918 0)
(9.56231 5.04786 0)
(8.54324 3.96923 0)
(10.4318 3.28656 0)
(9.84842 1.20485 0)
(10.7748 -0.714226 0)
(9.23735 -2.62511 0)
(10.4235 -3.50153 0)
(7.74969 -5.62958 0)
(9.89395 -5.9458 0)
(4.96115 -6.32662 0)
(7.99845 -4.94663 0)
(2.41628 -3.54252 0)
(5.8797 0.138492 0)
(2.25506 -1.93112 0)
(6.37932 -2.89561 0)
(4.10104 -5.72927 0)
(6.72345 -3.06539 0)
(5.45262 -3.12799 0)
(6.83656 -0.670061 0)
(6.45102 -0.351003 0)
(6.67448 -0.241211 0)
(7.51604 0.284229 0)
(9.51137 1.96581 0)
(9.97666 3.11596 0)
(9.95312 3.66104 0)
(9.54501 4.20476 0)
(9.5332 4.95838 0)
(9.79658 5.2677 0)
(9.01711 4.81908 0)
(8.87431 3.88297 0)
(8.42704 3.42978 0)
(7.00267 2.3267 0)
(7.27092 2.28637 0)
(6.199 1.60254 0)
(6.53449 2.70267 0)
(6.28341 2.79954 0)
(5.43944 4.32935 0)
(7.42005 3.95113 0)
(5.99377 8.32317 0)
(9.33143 -0.209537 0)
(9.00192 -0.229748 0)
(9.32597 -0.10413 0)
(9.03769 0.288297 0)
(9.32644 0.378871 0)
(9.48326 0.646915 0)
(9.57388 0.614225 0)
(10.2271 0.307359 0)
(10.3899 0.0753666 0)
(11.0443 -0.480769 0)
(12.0062 -1.16777 0)
(11.6901 -1.2974 0)
(12.6281 -1.92467 0)
(13.4617 -2.57277 0)
(12.9544 -2.69219 0)
(14.1703 -3.42542 0)
(13.6228 -3.80567 0)
(13.0236 -3.56713 0)
(13.1006 -3.78006 0)
(11.5304 -3.39167 0)
(10.6045 -2.31362 0)
(9.80405 -1.53548 0)
(8.41887 -0.367247 0)
(8.63265 0.899647 0)
(8.51637 2.30678 0)
(9.02554 2.66212 0)
(10.0509 2.73298 0)
(9.93442 3.1681 0)
(10.8177 2.16344 0)
(10.9536 1.23454 0)
(11.1362 0.413875 0)
(11.4372 -0.846789 0)
(11.34 -2.22157 0)
(11.1022 -3.29202 0)
(10.3977 -3.99847 0)
(10.0732 -5.42687 0)
(9.35756 -6.12328 0)
(7.28769 -5.03449 0)
(5.58791 -3.94797 0)
(4.45404 -5.79178 0)
(2.7471 -9.15043 0)
(4.2154 -9.20659 0)
(3.49724 -7.92462 0)
(2.85853 -5.67842 0)
(3.76556 -3.47822 0)
(3.56523 -1.70657 0)
(4.10018 -0.752427 0)
(3.82571 0.893506 0)
(4.73077 2.5368 0)
(5.01071 4.88784 0)
(5.35072 6.33256 0)
(5.44529 6.70176 0)
(7.01831 6.24232 0)
(5.5912 5.75193 0)
(6.79164 5.06128 0)
(6.57883 4.43066 0)
(5.85647 2.87001 0)
(7.89663 3.47365 0)
(5.71033 3.09633 0)
(8.91504 5.35595 0)
(7.29429 5.13915 0)
(9.73613 4.74203 0)
(9.06953 3.69014 0)
(10.54 3.04876 0)
(10.0121 1.1629 0)
(10.9635 -0.649504 0)
(9.5744 -2.31159 0)
(10.371 -3.39411 0)
(8.20165 -5.41016 0)
(9.556 -5.54464 0)
(5.26393 -5.89811 0)
(8.05433 -4.55909 0)
(2.16524 -3.25923 0)
(7.43012 -0.0685408 0)
(2.86384 -1.69081 0)
(7.1575 -3.11667 0)
(3.04023 -5.8564 0)
(6.62003 -2.95779 0)
(4.73129 -3.44163 0)
(6.46423 -0.530108 0)
(5.57398 -0.541717 0)
(6.03698 -0.291119 0)
(6.54965 -0.314582 0)
(8.6858 1.42257 0)
(9.60675 2.95514 0)
(9.55756 3.79843 0)
(9.47062 4.37592 0)
(8.8693 4.97785 0)
(9.50066 5.27562 0)
(9.21452 5.12678 0)
(8.53174 3.86578 0)
(8.57799 3.89955 0)
(7.55364 2.52457 0)
(6.93325 2.4889 0)
(7.68721 1.87107 0)
(5.82458 2.84149 0)
(7.60835 2.75173 0)
(5.70907 4.45326 0)
(8.32316 3.44812 0)
(6.86168 7.82652 0)
(11.0255 -0.136777 0)
(10.735 -0.255908 0)
(10.9495 -0.11599 0)
(10.8213 0.256617 0)
(10.9929 0.282606 0)
(11.2575 0.53657 0)
(11.3905 0.491801 0)
(11.8905 0.114728 0)
(12.03 -0.0766975 0)
(12.6842 -0.637332 0)
(13.3023 -1.32206 0)
(13.1082 -1.45711 0)
(13.8057 -2.0364 0)
(14.2888 -2.69186 0)
(13.8483 -2.85235 0)
(14.4312 -3.41743 0)
(13.8021 -3.60871 0)
(13.1503 -3.39132 0)
(13.0574 -3.48748 0)
(11.5486 -3.04701 0)
(11.1099 -1.92505 0)
(10.2941 -1.05405 0)
(8.76085 -0.149286 0)
(9.00669 0.887519 0)
(8.81945 2.2198 0)
(9.34166 2.41798 0)
(10.165 2.56425 0)
(10.1736 2.96809 0)
(11.2001 1.98125 0)
(11.304 1.19632 0)
(11.4487 0.362984 0)
(11.6776 -0.86467 0)
(11.4469 -2.14261 0)
(11.1008 -3.07187 0)
(10.3435 -3.78417 0)
(10.0186 -5.15881 0)
(9.06445 -5.56459 0)
(7.07194 -4.22884 0)
(5.09735 -3.35369 0)
(4.20526 -5.40476 0)
(2.49402 -9.05355 0)
(2.85938 -9.30851 0)
(3.02179 -7.50184 0)
(1.66331 -5.61394 0)
(2.91188 -3.67549 0)
(2.60465 -1.82404 0)
(3.1201 -0.886585 0)
(3.05043 0.789756 0)
(3.84813 2.32424 0)
(3.92848 4.81004 0)
(4.4928 6.05544 0)
(4.56554 6.40799 0)
(6.38618 6.21074 0)
(5.25709 5.74452 0)
(5.86157 4.89936 0)
(6.87449 4.53088 0)
(4.93819 2.64753 0)
(7.97047 3.40419 0)
(5.74516 2.99491 0)
(8.51185 4.94694 0)
(7.65608 4.85439 0)
(9.80002 4.34077 0)
(9.18881 3.57318 0)
(10.5627 2.87604 0)
(10.0395 1.1105 0)
(11.0883 -0.574314 0)
(9.65138 -2.25163 0)
(10.3995 -3.27021 0)
(8.53774 -4.89587 0)
(9.10598 -4.97371 0)
(5.92723 -5.26376 0)
(7.63606 -4.0889 0)
(2.56105 -3.12611 0)
(7.83271 -0.344841 0)
(2.76021 -1.5508 0)
(7.30149 -3.14603 0)
(1.21792 -5.85133 0)
(6.37785 -3.10183 0)
(3.87898 -3.68865 0)
(6.00432 -0.392231 0)
(5.16101 -0.779316 0)
(5.39465 -0.362026 0)
(5.70818 -0.947646 0)
(7.55492 0.934649 0)
(9.12153 2.72845 0)
(8.92786 3.68362 0)
(9.24354 4.39761 0)
(8.51317 5.037 0)
(8.84932 4.98976 0)
(9.18436 5.3767 0)
(8.80302 3.88676 0)
(7.9065 4.17472 0)
(8.91068 2.87221 0)
(6.10067 2.62398 0)
(8.89511 1.83469 0)
(5.64783 3.04365 0)
(8.49715 2.45613 0)
(6.22894 4.39077 0)
(8.94456 3.11464 0)
(7.61137 7.38412 0)
(12.3779 -0.0524302 0)
(12.161 -0.296676 0)
(12.146 -0.178128 0)
(12.2116 0.218511 0)
(12.3466 0.237027 0)
(12.4904 0.434632 0)
(12.8481 0.380458 0)
(13.1782 0.0204166 0)
(13.1882 -0.23014 0)
(13.9287 -0.738312 0)
(14.1614 -1.40884 0)
(13.9923 -1.67944 0)
(14.4432 -2.08771 0)
(14.6115 -2.71136 0)
(14.3231 -2.92957 0)
(14.3561 -3.24996 0)
(13.66 -3.3603 0)
(13.2356 -3.24057 0)
(13.1636 -3.11027 0)
(11.6822 -2.65223 0)
(11.2302 -1.6964 0)
(10.6589 -0.661605 0)
(9.35854 0.0924129 0)
(9.43524 0.883696 0)
(9.14205 2.11386 0)
(9.59893 2.22368 0)
(10.1311 2.40145 0)
(10.2091 2.67506 0)
(11.2404 1.73311 0)
(11.217 1.15459 0)
(11.4073 0.317095 0)
(11.6637 -0.879232 0)
(11.3638 -1.99846 0)
(10.9605 -2.84285 0)
(10.2478 -3.58776 0)
(9.87583 -4.85052 0)
(8.77947 -4.96487 0)
(6.80903 -3.4039 0)
(4.82739 -2.7932 0)
(3.85819 -4.96885 0)
(2.4862 -8.61537 0)
(1.43134 -9.25138 0)
(2.34721 -7.11672 0)
(1.00254 -5.48369 0)
(2.38665 -3.80163 0)
(1.67653 -1.91468 0)
(2.23089 -1.03893 0)
(2.31659 0.736899 0)
(2.92271 2.19515 0)
(2.8263 4.74921 0)
(3.67161 5.7816 0)
(3.68565 6.03921 0)
(5.60293 6.0683 0)
(4.95679 5.69385 0)
(4.62564 4.52429 0)
(6.99965 4.61795 0)
(4.48935 2.48687 0)
(7.67112 3.16438 0)
(5.99333 2.94335 0)
(8.07542 4.48076 0)
(7.65853 4.52277 0)
(9.73177 4.08515 0)
(8.95024 3.49009 0)
(10.5575 2.65042 0)
(10.156 1.07758 0)
(11.1313 -0.542253 0)
(9.72378 -2.00272 0)
(10.4943 -3.04369 0)
(8.51525 -4.62938 0)
(8.697 -4.90349 0)
(6.28036 -4.86714 0)
(6.67686 -3.58597 0)
(2.6304 -2.91904 0)
(6.63867 -0.377563 0)
(2.62951 -1.4561 0)
(6.62402 -2.80352 0)
(-0.282076 -5.69046 0)
(6.2835 -3.48163 0)
(3.14669 -3.85389 0)
(5.61518 -0.33459 0)
(4.88172 -0.903597 0)
(5.13186 -0.125873 0)
(4.84075 -1.69473 0)
(6.43151 0.347102 0)
(8.46286 2.41863 0)
(8.25529 3.77737 0)
(8.47436 4.39649 0)
(8.45003 5.28083 0)
(8.05503 4.69838 0)
(8.50855 5.46876 0)
(9.51844 4.04265 0)
(6.7379 4.37592 0)
(9.81977 2.98106 0)
(5.97265 2.84268 0)
(9.41544 1.65268 0)
(5.93297 3.23885 0)
(9.04017 2.19466 0)
(6.8017 4.26409 0)
(9.31348 2.93378 0)
(8.44088 7.01577 0)
(13.0228 -0.0547757 0)
(13.0749 -0.317599 0)
(12.9618 -0.18806 0)
(13.0433 0.0834272 0)
(13.271 0.180562 0)
(13.2515 0.31631 0)
(13.6896 0.184777 0)
(13.968 -0.013931 0)
(13.8872 -0.403493 0)
(14.5414 -0.82393 0)
(14.5831 -1.35927 0)
(14.4222 -1.81607 0)
(14.622 -2.09255 0)
(14.5121 -2.68535 0)
(14.2769 -2.97232 0)
(13.9633 -3.09781 0)
(13.5245 -3.14054 0)
(13.2735 -3.12128 0)
(13.0779 -2.87242 0)
(12.1486 -2.28581 0)
(11.5439 -1.4515 0)
(11.0067 -0.369758 0)
(10.168 0.311395 0)
(9.85907 0.977858 0)
(9.31293 2.09456 0)
(9.72865 2.12807 0)
(9.89156 2.33626 0)
(10.0065 2.37563 0)
(10.9162 1.53883 0)
(10.7654 1.14927 0)
(11.2353 0.222188 0)
(11.4976 -0.884259 0)
(11.1314 -1.84546 0)
(10.7574 -2.64008 0)
(10.081 -3.39823 0)
(9.68937 -4.48846 0)
(8.48937 -4.32611 0)
(6.48414 -2.64524 0)
(4.66651 -2.13871 0)
(3.56171 -4.50667 0)
(2.41082 -8.05149 0)
(0.56317 -9.10236 0)
(1.61035 -7.03648 0)
(0.811125 -5.46783 0)
(1.93866 -3.83696 0)
(0.81464 -1.90541 0)
(1.37826 -1.20802 0)
(1.38226 0.746731 0)
(1.86571 2.23262 0)
(1.53526 4.595 0)
(3.06208 5.46771 0)
(2.84651 5.60028 0)
(4.67775 5.87023 0)
(4.86414 5.78884 0)
(3.23244 4.10533 0)
(6.84445 4.51262 0)
(4.52429 2.53905 0)
(7.07092 2.79714 0)
(6.13079 2.864 0)
(7.90297 4.06275 0)
(7.50124 4.16658 0)
(9.57851 3.89428 0)
(8.7236 3.27314 0)
(10.5931 2.42485 0)
(10.2256 0.959754 0)
(11.041 -0.414038 0)
(9.67617 -1.88336 0)
(10.5128 -2.90613 0)
(8.49579 -4.08447 0)
(8.84468 -4.3029 0)
(6.55314 -4.02451 0)
(6.21866 -2.79021 0)
(2.54239 -2.4747 0)
(4.93852 -0.360119 0)
(2.85363 -1.53993 0)
(5.34529 -2.40388 0)
(-0.222634 -5.69033 0)
(6.32634 -3.96602 0)
(2.9626 -3.94637 0)
(5.48533 -0.418736 0)
(4.4464 -1.0895 0)
(5.79516 0.168281 0)
(4.03269 -2.07197 0)
(5.43437 -0.123813 0)
(7.31719 1.82055 0)
(7.87875 3.77491 0)
(7.41217 4.05455 0)
(8.08592 5.47721 0)
(7.87785 4.53208 0)
(7.29985 5.3376 0)
(10.014 4.15208 0)
(5.70252 4.55422 0)
(9.98151 2.68801 0)
(6.17238 2.93985 0)
(9.59353 1.61626 0)
(6.2771 3.31612 0)
(9.28192 1.99183 0)
(7.55598 4.16253 0)
(9.55247 2.73117 0)
(9.24025 6.56009 0)
(13.0599 -0.0886881 0)
(13.1009 -0.349791 0)
(13.2707 -0.143468 0)
(13.4187 -0.0445913 0)
(13.555 0.14448 0)
(13.7042 0.257177 0)
(13.9501 0.000497489 0)
(14.1226 -0.0530802 0)
(14.1986 -0.525383 0)
(14.4989 -0.876978 0)
(14.4965 -1.35136 0)
(14.3992 -1.91074 0)
(14.3816 -2.03676 0)
(14.2538 -2.63247 0)
(14.1168 -2.89033 0)
(13.6759 -2.89207 0)
(13.4976 -3.03259 0)
(13.487 -2.97115 0)
(12.9275 -2.68103 0)
(12.3651 -2.09578 0)
(11.7996 -1.23755 0)
(11.2959 -0.175577 0)
(10.8697 0.488092 0)
(10.0958 1.26043 0)
(9.31868 2.18479 0)
(9.66333 2.09999 0)
(9.47268 2.30042 0)
(9.79185 2.10271 0)
(10.511 1.40889 0)
(10.3239 1.0927 0)
(11.1046 0.0788676 0)
(11.2184 -0.862991 0)
(10.7537 -1.71085 0)
(10.5539 -2.45414 0)
(9.89313 -3.21342 0)
(9.43664 -4.13943 0)
(8.15594 -3.65464 0)
(6.12438 -1.912 0)
(4.43681 -1.52844 0)
(3.42091 -4.16528 0)
(2.12736 -7.56044 0)
(0.330087 -8.85694 0)
(0.840134 -7.31388 0)
(0.588278 -5.668 0)
(1.06896 -3.81996 0)
(-0.068413 -1.84602 0)
(0.590508 -1.35516 0)
(0.448528 0.7233 0)
(0.889183 2.24445 0)
(0.327761 4.28479 0)
(2.49808 5.19505 0)
(1.95413 5.2011 0)
(3.79749 5.52586 0)
(4.80842 5.95275 0)
(2.53029 3.85428 0)
(6.21832 4.0922 0)
(4.36095 2.51078 0)
(6.65361 2.36445 0)
(6.05343 2.60002 0)
(7.66911 3.72769 0)
(7.2702 3.84635 0)
(9.31117 3.66384 0)
(8.63402 3.03667 0)
(10.4971 2.07541 0)
(10.2637 0.875812 0)
(10.786 -0.230444 0)
(9.67406 -1.8353 0)
(10.3947 -2.68494 0)
(8.51899 -3.77685 0)
(8.63147 -4.08581 0)
(5.98598 -3.61078 0)
(6.11129 -2.23808 0)
(2.49018 -2.00852 0)
(4.12797 -0.489508 0)
(2.71633 -1.60172 0)
(4.53043 -2.11898 0)
(1.64231 -5.96603 0)
(6.29457 -4.47045 0)
(3.07817 -3.99948 0)
(5.57021 -0.420566 0)
(3.72077 -1.51474 0)
(6.41602 0.439851 0)
(4.02456 -2.07178 0)
(4.82166 -0.285721 0)
(5.75263 1.09283 0)
(7.16588 4.04299 0)
(6.53688 3.79202 0)
(7.23001 5.60413 0)
(8.25497 4.57911 0)
(5.85956 5.23527 0)
(10.2282 4.13881 0)
(5.37502 4.80272 0)
(9.88381 2.46321 0)
(6.32757 3.03588 0)
(9.55218 1.62654 0)
(6.85654 3.34145 0)
(9.24572 1.8626 0)
(8.21238 4.02383 0)
(9.73359 2.5388 0)
(9.911 6.05307 0)
(13.1038 -0.094833 0)
(12.8655 -0.368393 0)
(13.2661 -0.146961 0)
(13.5309 -0.162698 0)
(13.4474 0.0687384 0)
(13.9224 0.212514 0)
(14.0394 -0.054535 0)
(14.0688 -0.115797 0)
(14.2533 -0.596081 0)
(14.2672 -0.847123 0)
(14.3389 -1.33558 0)
(14.212 -1.93978 0)
(14.0558 -1.99314 0)
(14.083 -2.58214 0)
(13.9603 -2.81325 0)
(13.6256 -2.78103 0)
(13.5261 -3.03066 0)
(13.4696 -2.83585 0)
(12.8581 -2.4662 0)
(12.4993 -1.93398 0)
(12.0094 -1.01052 0)
(11.4205 -0.011854 0)
(10.9852 0.70381 0)
(10.0254 1.61625 0)
(9.4155 2.26071 0)
(9.6177 2.09396 0)
(9.22698 2.25348 0)
(9.74303 1.84883 0)
(10.2071 1.31706 0)
(10.0645 0.958167 0)
(10.9281 -0.0940404 0)
(10.8207 -0.783123 0)
(10.4039 -1.56952 0)
(10.3422 -2.34317 0)
(9.70914 -3.02304 0)
(9.12911 -3.71276 0)
(7.8036 -2.97182 0)
(5.84921 -1.19222 0)
(4.24849 -0.992519 0)
(3.44996 -3.72691 0)
(1.82483 -7.00393 0)
(0.28445 -8.44959 0)
(0.0245098 -7.47552 0)
(-0.294064 -5.79633 0)
(-0.362909 -3.73007 0)
(-0.913533 -1.83993 0)
(-0.247394 -1.49138 0)
(-0.47337 0.677082 0)
(-0.0140266 2.23106 0)
(-0.632962 3.88308 0)
(1.83771 4.89725 0)
(1.42687 4.84344 0)
(2.57821 4.94921 0)
(4.60714 6.02112 0)
(2.57536 3.85051 0)
(5.29166 3.61936 0)
(4.08768 2.28758 0)
(6.60312 1.95724 0)
(5.66506 2.39278 0)
(7.18721 3.52016 0)
(7.16213 3.43637 0)
(8.97301 3.42594 0)
(8.66054 2.68647 0)
(10.3461 1.78293 0)
(10.1193 0.839022 0)
(10.3537 -0.181513 0)
(9.86362 -1.68125 0)
(10.079 -2.51156 0)
(8.65953 -3.41101 0)
(8.59205 -3.46129 0)
(5.86002 -3.00081 0)
(6.16175 -1.68039 0)
(2.51612 -1.46482 0)
(4.34838 -0.589052 0)
(2.40051 -1.60051 0)
(4.74712 -2.17453 0)
(3.15304 -6.10899 0)
(5.44983 -5.10589 0)
(2.2071 -3.91111 0)
(5.51106 -0.359035 0)
(2.95296 -2.17072 0)
(6.43631 0.496574 0)
(4.55631 -1.76067 0)
(5.04196 -0.229697 0)
(4.2304 0.303155 0)
(6.32368 4.0174 0)
(5.78427 3.36548 0)
(6.01981 5.53155 0)
(8.49275 4.55094 0)
(4.89042 5.09309 0)
(9.95008 3.81075 0)
(5.51963 4.91479 0)
(9.67892 2.34392 0)
(6.64278 3.059 0)
(9.27861 1.59177 0)
(7.43312 3.37704 0)
(9.04265 1.78295 0)
(8.74686 3.67489 0)
(9.97744 2.25916 0)
(10.5198 5.44335 0)
(13.2187 -0.0294081 0)
(12.9641 -0.327163 0)
(13.3422 -0.150566 0)
(13.6011 -0.214082 0)
(13.4246 -0.0478802 0)
(13.8585 0.0873705 0)
(13.951 -0.13815 0)
(13.9944 -0.176662 0)
(14.0526 -0.597542 0)
(14.0744 -0.860487 0)
(14.2615 -1.32212 0)
(14.0286 -1.85459 0)
(14.0313 -1.96645 0)
(14.1304 -2.53217 0)
(13.8214 -2.72172 0)
(13.5539 -2.73088 0)
(13.4515 -2.97078 0)
(13.1059 -2.65078 0)
(12.6009 -2.32943 0)
(12.3978 -1.85142 0)
(11.7842 -0.757852 0)
(11.1343 0.217899 0)
(10.7746 0.9384 0)
(9.91179 1.90113 0)
(9.60118 2.32216 0)
(9.64449 2.18133 0)
(9.17114 2.24857 0)
(9.72757 1.6638 0)
(9.84913 1.26153 0)
(9.85737 0.801961 0)
(10.6927 -0.174819 0)
(10.282 -0.663517 0)
(10.1043 -1.51244 0)
(10.1999 -2.23717 0)
(9.46516 -2.78562 0)
(8.74755 -3.25821 0)
(7.38874 -2.30457 0)
(5.53424 -0.497082 0)
(4.14459 -0.496776 0)
(3.50259 -3.18272 0)
(1.63067 -6.35183 0)
(-0.0754496 -7.98515 0)
(-0.727266 -7.07455 0)
(-1.64497 -5.39208 0)
(-1.75353 -3.44904 0)
(-1.76911 -1.87667 0)
(-0.948829 -1.53257 0)
(-1.76642 0.741085 0)
(-0.79402 2.35696 0)
(-1.63529 3.35574 0)
(1.2926 4.50013 0)
(1.05495 4.67396 0)
(0.967622 4.29456 0)
(4.31045 5.90492 0)
(2.7639 3.82664 0)
(4.79041 3.22772 0)
(4.01002 1.95799 0)
(6.41256 1.79868 0)
(5.05898 2.35578 0)
(6.80415 3.13751 0)
(7.22388 2.98351 0)
(8.5088 3.08995 0)
(8.61067 2.34851 0)
(10.0367 1.53528 0)
(9.82504 0.839303 0)
(9.87202 -0.114812 0)
(9.92003 -1.6326 0)
(9.93064 -2.33979 0)
(8.58152 -3.09617 0)
(8.14944 -3.03003 0)
(6.16861 -2.51097 0)
(6.21098 -1.1402 0)
(3.19735 -0.956964 0)
(4.56648 -0.554293 0)
(2.32007 -1.68815 0)
(5.16186 -2.52568 0)
(2.50557 -5.52657 0)
(3.55933 -5.03272 0)
(-0.0925884 -3.73616 0)
(5.20214 -0.454336 0)
(2.24886 -2.60267 0)
(5.60718 0.235972 0)
(4.99424 -1.97367 0)
(4.77963 0.330991 0)
(3.3002 -0.100976 0)
(5.23748 4.27733 0)
(5.60016 3.34115 0)
(4.21196 5.32505 0)
(8.37985 4.3151 0)
(3.992 5.06559 0)
(8.99873 3.43959 0)
(5.53036 4.86639 0)
(9.24273 2.22595 0)
(7.01217 3.04988 0)
(8.91251 1.58418 0)
(7.98964 3.2471 0)
(9.0558 1.67321 0)
(9.28004 3.14022 0)
(10.1858 2.04367 0)
(10.9243 4.89041 0)
(13.3956 -0.0373357 0)
(13.2871 -0.352903 0)
(13.4452 -0.146675 0)
(13.648 -0.265054 0)
(13.4064 -0.11369 0)
(13.6789 0.0808681 0)
(13.7333 -0.208068 0)
(13.7743 -0.226762 0)
(13.8136 -0.544085 0)
(13.9779 -0.914858 0)
(14.1444 -1.29933 0)
(13.966 -1.77705 0)
(14.1594 -2.02031 0)
(13.9845 -2.43081 0)
(13.545 -2.57965 0)
(13.304 -2.69311 0)
(13.0223 -2.83521 0)
(12.5731 -2.46392 0)
(12.2183 -2.20357 0)
(11.8287 -1.62376 0)
(10.8952 -0.409857 0)
(10.5533 0.375263 0)
(10.3844 1.08791 0)
(9.58206 2.11779 0)
(9.69112 2.35393 0)
(9.48857 2.28968 0)
(9.04841 2.24828 0)
(9.63665 1.57946 0)
(9.43404 1.26503 0)
(9.67832 0.648829 0)
(10.3199 -0.218124 0)
(9.77536 -0.575387 0)
(9.95183 -1.51206 0)
(10.0812 -2.13693 0)
(9.1446 -2.49214 0)
(8.23545 -2.76019 0)
(6.93118 -1.64502 0)
(5.25767 0.124911 0)
(4.06872 -0.0681907 0)
(3.57318 -2.61753 0)
(1.53292 -5.59217 0)
(-0.650628 -7.47463 0)
(-1.24838 -6.54931 0)
(-2.21309 -4.91443 0)
(-2.26193 -3.4391 0)
(-2.06273 -2.0998 0)
(-1.31692 -1.48679 0)
(-3.17061 0.727303 0)
(-1.00155 2.35689 0)
(-2.19535 2.88821 0)
(0.794891 4.04152 0)
(0.878333 4.75189 0)
(-0.387424 3.77206 0)
(3.90128 5.34011 0)
(2.74148 3.56338 0)
(4.6 2.98365 0)
(3.9299 1.76036 0)
(5.91503 1.74539 0)
(4.75307 2.18496 0)
(6.67291 2.60926 0)
(7.09487 2.61968 0)
(7.86264 2.87382 0)
(8.4361 2.03773 0)
(9.56437 1.32264 0)
(9.46929 0.879397 0)
(9.60268 -0.211801 0)
(9.78596 -1.67432 0)
(9.75316 -2.0797 0)
(8.76519 -2.58008 0)
(7.6047 -2.57486 0)
(6.05344 -2.11972 0)
(5.59988 -0.702186 0)
(3.95652 -0.577134 0)
(4.51336 -0.362722 0)
(2.89079 -1.65108 0)
(4.81672 -2.65383 0)
(0.96157 -4.69041 0)
(1.32624 -4.25092 0)
(-2.16564 -3.97755 0)
(5.22693 -1.20306 0)
(1.49991 -2.48358 0)
(4.6312 -0.099532 0)
(4.20434 -2.16842 0)
(4.39429 0.901719 0)
(3.43822 -0.395053 0)
(3.81095 4.05983 0)
(5.84681 3.00898 0)
(2.75992 5.07193 0)
(8.13572 3.99197 0)
(3.87274 5.13642 0)
(8.15086 3.1826 0)
(5.52901 4.70506 0)
(8.71125 2.08704 0)
(7.28094 2.95495 0)
(8.67946 1.52462 0)
(8.39777 2.94891 0)
(9.08755 1.59055 0)
(9.58148 2.71382 0)
(10.2779 1.85971 0)
(11.2002 4.33973 0)
(13.5766 -0.0894972 0)
(13.4104 -0.336111 0)
(13.492 -0.0685436 0)
(13.6546 -0.210447 0)
(13.3119 -0.150507 0)
(13.5574 0.0553496 0)
(13.5151 -0.23153 0)
(13.5397 -0.306541 0)
(13.6688 -0.567186 0)
(13.8736 -0.955321 0)
(13.9989 -1.28222 0)
(13.9349 -1.75384 0)
(13.9273 -1.98685 0)
(13.3975 -2.21632 0)
(13.0518 -2.44356 0)
(12.7682 -2.59836 0)
(12.2042 -2.60452 0)
(11.7034 -2.28816 0)
(11.213 -2.01899 0)
(10.4511 -1.24496 0)
(9.66322 -0.152881 0)
(9.84717 0.387427 0)
(9.46917 1.27341 0)
(8.92602 2.24676 0)
(9.40622 2.34782 0)
(8.85665 2.4527 0)
(8.88273 2.21405 0)
(9.35832 1.53836 0)
(9.00279 1.22889 0)
(9.6076 0.446419 0)
(9.9286 -0.204738 0)
(9.43733 -0.524682 0)
(9.96531 -1.55973 0)
(9.86949 -1.96607 0)
(8.64685 -2.10605 0)
(7.63303 -2.21827 0)
(6.41967 -1.04141 0)
(4.97795 0.61317 0)
(4.08026 0.307208 0)
(3.75286 -2.01452 0)
(1.63065 -4.73257 0)
(-1.06431 -6.85286 0)
(-1.7479 -6.38387 0)
(-1.90647 -4.81745 0)
(-2.37399 -3.64423 0)
(-2.12354 -2.35887 0)
(-2.08044 -1.23875 0)
(-3.98948 0.620466 0)
(-0.749329 2.07376 0)
(-2.63009 2.43121 0)
(0.213286 3.20932 0)
(0.939357 4.90689 0)
(-1.1047 3.30943 0)
(3.40197 4.37756 0)
(2.15952 3.28172 0)
(4.29945 2.77283 0)
(3.91758 1.51693 0)
(5.43424 1.56179 0)
(4.75143 1.90735 0)
(6.40986 2.21015 0)
(6.61543 2.47863 0)
(7.27703 2.6062 0)
(8.21421 1.65365 0)
(9.08529 1.15347 0)
(9.09697 0.804699 0)
(9.60316 -0.254949 0)
(9.75938 -1.61071 0)
(9.421 -1.99192 0)
(8.55462 -2.20968 0)
(7.45009 -1.97141 0)
(6.12813 -1.55964 0)
(5.1675 -0.333915 0)
(4.52623 -0.3298 0)
(4.61828 -0.160528 0)
(4.04901 -1.42094 0)
(3.87522 -2.18855 0)
(0.680213 -3.99208 0)
(0.817404 -3.7783 0)
(-1.10881 -5.00986 0)
(4.2016 -2.28375 0)
(0.318986 -2.11362 0)
(3.58358 -0.717792 0)
(2.5294 -2.24022 0)
(3.11939 0.78567 0)
(4.36777 -0.256662 0)
(2.17498 4.08315 0)
(5.79674 2.96466 0)
(1.35217 5.09685 0)
(7.26349 3.20963 0)
(3.96837 5.07817 0)
(7.30639 3.00913 0)
(5.79278 4.39703 0)
(8.27865 1.92876 0)
(7.6656 2.70667 0)
(8.49688 1.45175 0)
(8.54204 2.67044 0)
(9.21567 1.51334 0)