/*--------------------------------*- C++ -*----------------------------------*\
| =========                 |                                                 |
| \\      /  F ield         | OpenFOAM: The Open Source CFD Toolbox           |
|  \\    /   O peration     | Version:  2.4.0                                 |
|   \\  /    A nd           | Web:      www.OpenFOAM.org                      |
|    \\/     M anipulation  |                                                 |
\*---------------------------------------------------------------------------*/
FoamFile
{
    version     2.0;
    format      ascii;
    class       surfaceScalarField;
    location    "0.041";
    object      phi;
}
// * * * * * * * * * * * * * * * * * * * * * * * * * * * * * * * * * * * * * //

dimensions      [0 3 -1 0 0 0 0];

internalField   nonuniform List<scalar> 
34880
(
5.48723e-06
7.01277e-06
3.12353e-06
2.36369e-06
2.47288e-06
6.50651e-07
2.22005e-06
2.5283e-07
2.0731e-06
1.46958e-07
1.96749e-06
1.05603e-07
1.88492e-06
8.25688e-08
1.81799e-06
6.69328e-08
1.77032e-06
4.76699e-08
1.72905e-06
4.12681e-08
1.69723e-06
3.18234e-08
1.66926e-06
2.79684e-08
1.63822e-06
3.10404e-08
1.59965e-06
3.85669e-08
1.57647e-06
2.31854e-08
1.5343e-06
4.21687e-08
1.50648e-06
2.78212e-08
1.44924e-06
5.72349e-08
1.4151e-06
3.41433e-08
-1.83523e-07
1.59862e-06
1.01094e-05
9.4034e-06
7.82597e-06
4.64709e-06
6.71134e-06
1.76528e-06
6.065e-06
8.99173e-07
5.64278e-06
5.69172e-07
5.34916e-06
3.99221e-07
5.11979e-06
3.11938e-07
4.93894e-06
2.4779e-07
4.80191e-06
1.84702e-07
4.68505e-06
1.58123e-07
4.59547e-06
1.21408e-07
4.51449e-06
1.08945e-07
4.43254e-06
1.12992e-07
4.34742e-06
1.23691e-07
4.2776e-06
9.30053e-08
4.18401e-06
1.3575e-07
4.10413e-06
1.07704e-07
3.97716e-06
1.84208e-07
3.90187e-06
1.09432e-07
-1.45043e-07
3.86339e-06
1.24242e-05
9.47924e-06
1.09969e-05
6.07437e-06
9.98209e-06
2.78008e-06
9.20383e-06
1.67743e-06
8.61511e-06
1.1579e-06
8.19087e-06
8.23458e-07
7.85391e-06
6.48899e-07
7.58695e-06
5.14749e-07
7.37944e-06
3.9221e-07
7.20092e-06
3.36649e-07
7.06309e-06
2.59235e-07
6.93914e-06
2.32891e-07
6.81672e-06
2.35409e-07
6.69928e-06
2.41138e-07
6.59176e-06
2.00523e-07
6.46625e-06
2.61261e-07
6.34567e-06
2.28285e-07
6.18367e-06
3.46205e-07
6.05744e-06
2.35661e-07
-7.33039e-08
5.9857e-06
1.34128e-05
8.56641e-06
1.28789e-05
6.60825e-06
1.23272e-05
3.33185e-06
1.17172e-05
2.28738e-06
1.11282e-05
1.74695e-06
1.06614e-05
1.29028e-06
1.02696e-05
1.04063e-06
9.95047e-06
8.33899e-07
9.69798e-06
6.44709e-07
9.47549e-06
5.59132e-07
9.30139e-06
4.33338e-07
9.14653e-06
3.87754e-07
8.99179e-06
3.90147e-07
8.85262e-06
3.80304e-07
8.71596e-06
3.37187e-07
8.57174e-06
4.05483e-07
8.42118e-06
3.78847e-07
8.24304e-06
5.24344e-07
8.07925e-06
3.99448e-07
5.45883e-08
7.95136e-06
1.35948e-05
7.47162e-06
1.36481e-05
6.55498e-06
1.36222e-05
3.35774e-06
1.34005e-05
2.50905e-06
1.30103e-05
2.13713e-06
1.26303e-05
1.67034e-06
1.22692e-05
1.40173e-06
1.19546e-05
1.14846e-06
1.16975e-05
9.01785e-07
1.14617e-05
7.94962e-07
1.12721e-05
6.22924e-07
1.11064e-05
5.5346e-07
1.09326e-05
5.63965e-07
1.07853e-05
5.27562e-07
1.06309e-05
4.91615e-07
1.04802e-05
5.56225e-07
1.03148e-05
5.44222e-07
1.01269e-05
7.12174e-07
9.96026e-06
5.66133e-07
4.09862e-07
9.60499e-06
1.34912e-05
6.48044e-06
1.37413e-05
6.30488e-06
1.39918e-05
3.10718e-06
1.41405e-05
2.36039e-06
1.40698e-05
2.20784e-06
1.39069e-05
1.83326e-06
1.36894e-05
1.61916e-06
1.34659e-05
1.37201e-06
1.32661e-05
1.10154e-06
1.30654e-05
9.95709e-07
1.28941e-05
7.94157e-07
1.27476e-05
7.00044e-07
1.25777e-05
7.33841e-07
1.24395e-05
6.65711e-07
1.22859e-05
6.45223e-07
1.21403e-05
7.01862e-07
1.19821e-05
7.02402e-07
1.17916e-05
9.02695e-07
1.16411e-05
7.16612e-07
9.64117e-07
1.10869e-05
1.33761e-05
5.6043e-06
1.36937e-05
5.98732e-06
1.39238e-05
2.87706e-06
1.42092e-05
2.075e-06
1.43688e-05
2.04821e-06
1.44176e-05
1.78445e-06
1.43929e-05
1.64388e-06
1.43322e-05
1.43273e-06
1.42585e-05
1.17527e-06
1.41576e-05
1.09659e-06
1.40565e-05
8.9526e-07
1.39708e-05
7.857e-07
1.38439e-05
8.60746e-07
1.37401e-05
7.69538e-07
1.36138e-05
7.71568e-07
1.34889e-05
8.26715e-07
1.33637e-05
8.27639e-07
1.31919e-05
1.07447e-06
1.30753e-05
8.33206e-07
1.0412e-06
1.29982e-05
1.32739e-05
4.83038e-06
1.37049e-05
5.55632e-06
1.38162e-05
2.76573e-06
1.40839e-05
1.80738e-06
1.43135e-05
1.8186e-06
1.44506e-05
1.64733e-06
1.45306e-05
1.5639e-06
1.4589e-05
1.37435e-06
1.46311e-05
1.13311e-06
1.4649e-05
1.07873e-06
1.4651e-05
8.93231e-07
1.46625e-05
7.74242e-07
1.4625e-05
8.98264e-07
1.45903e-05
8.04213e-07
1.45272e-05
8.34632e-07
1.4447e-05
9.06923e-07
1.43825e-05
8.92161e-07
1.42711e-05
1.18586e-06
1.41894e-05
9.14941e-07
1.02805e-06
1.42025e-05
1.31767e-05
4.15364e-06
1.36557e-05
5.07736e-06
1.37493e-05
2.67216e-06
1.39737e-05
1.58296e-06
1.42057e-05
1.58663e-06
1.43638e-05
1.4892e-06
1.44715e-05
1.45619e-06
1.45698e-05
1.27604e-06
1.46515e-05
1.05146e-06
1.47187e-05
1.01154e-06
1.4774e-05
8.37851e-07
1.48507e-05
6.97581e-07
1.49004e-05
8.48544e-07
1.49423e-05
7.62279e-07
1.49561e-05
8.20864e-07
1.49427e-05
9.20377e-07
1.49525e-05
8.82331e-07
1.49435e-05
1.19482e-06
1.49242e-05
9.34245e-07
8.94593e-07
1.50577e-05
1.30951e-05
3.55852e-06
1.35786e-05
4.59385e-06
1.36936e-05
2.55721e-06
1.38977e-05
1.3788e-06
1.41098e-05
1.37452e-06
1.42698e-05
1.32928e-06
1.43958e-05
1.33012e-06
1.45108e-05
1.1611e-06
1.46011e-05
9.61101e-07
1.46697e-05
9.42955e-07
1.47247e-05
7.82827e-07
1.47992e-05
6.23161e-07
1.48823e-05
7.6542e-07
1.49631e-05
6.81472e-07
1.50227e-05
7.6123e-07
1.50614e-05
8.81684e-07
1.51186e-05
8.25171e-07
1.52005e-05
1.11295e-06
1.52474e-05
8.87314e-07
6.72989e-07
1.5469e-05
1.30263e-05
3.03217e-06
1.35063e-05
4.1139e-06
1.36492e-05
2.4143e-06
1.38384e-05
1.18962e-06
1.40263e-05
1.18662e-06
1.41862e-05
1.16939e-06
1.43201e-05
1.19619e-06
1.44399e-05
1.04126e-06
1.45394e-05
8.61669e-07
1.46166e-05
8.65762e-07
1.46683e-05
7.31058e-07
1.47293e-05
5.62232e-07
1.48059e-05
6.88836e-07
1.48933e-05
5.94003e-07
1.49615e-05
6.93021e-07
1.50299e-05
8.13325e-07
1.51052e-05
7.49838e-07
1.52265e-05
9.91691e-07
1.53162e-05
7.97578e-07
4.88099e-07
1.55011e-05
1.29727e-05
2.55952e-06
1.34496e-05
3.63697e-06
1.36084e-05
2.25548e-06
1.3785e-05
1.01306e-06
1.39617e-05
1.00992e-06
1.41158e-05
1.01525e-06
1.42484e-05
1.06358e-06
1.43704e-05
9.19254e-07
1.44735e-05
7.58592e-07
1.45575e-05
7.8178e-07
1.46207e-05
6.6785e-07
1.46778e-05
5.05166e-07
1.47455e-05
6.21139e-07
1.48208e-05
5.18683e-07
1.48946e-05
6.19178e-07
1.49796e-05
7.28332e-07
1.5061e-05
6.68444e-07
1.51922e-05
8.6046e-07
1.52843e-05
7.05487e-07
4.25198e-07
1.53472e-05
1.2923e-05
2.13653e-06
1.33964e-05
3.16357e-06
1.36008e-05
2.05103e-06
1.37415e-05
8.72444e-07
1.39036e-05
8.47722e-07
1.406e-05
8.58915e-07
1.4192e-05
9.31553e-07
1.43073e-05
8.0396e-07
1.44096e-05
6.56335e-07
1.45035e-05
6.87819e-07
1.45747e-05
5.96698e-07
1.46287e-05
4.5109e-07
1.46957e-05
5.54181e-07
1.47677e-05
4.46679e-07
1.4841e-05
5.45899e-07
1.49283e-05
6.41068e-07
1.50173e-05
5.79422e-07
1.51431e-05
7.34638e-07
1.52218e-05
6.26818e-07
3.42322e-07
1.53046e-05
1.28794e-05
1.75717e-06
1.33482e-05
2.6947e-06
1.36114e-05
1.7879e-06
1.3709e-05
7.74778e-07
1.38605e-05
6.96275e-07
1.40116e-05
7.07803e-07
1.41406e-05
8.02582e-07
1.42563e-05
6.88188e-07
1.43583e-05
5.54383e-07
1.44536e-05
5.92549e-07
1.45304e-05
5.19905e-07
1.45876e-05
3.93851e-07
1.46554e-05
4.86412e-07
1.47215e-05
3.80569e-07
1.47953e-05
4.72038e-07
1.48862e-05
5.50209e-07
1.49746e-05
4.90973e-07
1.50906e-05
6.18697e-07
1.51793e-05
5.38072e-07
2.84694e-07
1.5237e-05
1.28434e-05
1.41376e-06
1.33045e-05
2.23361e-06
1.35879e-05
1.5045e-06
1.36863e-05
6.76334e-07
1.38249e-05
5.57693e-07
1.39695e-05
5.63229e-07
1.41004e-05
6.71661e-07
1.42179e-05
5.70686e-07
1.43164e-05
4.55895e-07
1.4413e-05
4.9598e-07
1.44936e-05
4.39224e-07
1.45489e-05
3.38567e-07
1.46197e-05
4.15652e-07
1.46847e-05
3.15542e-07
1.47593e-05
3.97455e-07
1.485e-05
4.59534e-07
1.49361e-05
4.04854e-07
1.5048e-05
5.06832e-07
1.51282e-05
4.57847e-07
2.8362e-07
1.51293e-05
1.28138e-05
1.09996e-06
1.32669e-05
1.78052e-06
1.35625e-05
1.20893e-06
1.36689e-05
5.69908e-07
1.37971e-05
4.29531e-07
1.39357e-05
4.24587e-07
1.40677e-05
5.39634e-07
1.41874e-05
4.51026e-07
1.42844e-05
3.5893e-07
1.43798e-05
4.00553e-07
1.44606e-05
3.58387e-07
1.45177e-05
2.81468e-07
1.45919e-05
3.41512e-07
1.46539e-05
2.53529e-07
1.47308e-05
3.20516e-07
1.48198e-05
3.70555e-07
1.49052e-05
3.19431e-07
1.50092e-05
4.02827e-07
1.50854e-05
3.8168e-07
2.17684e-07
1.51513e-05
1.27893e-05
8.10693e-07
1.32368e-05
1.33299e-06
1.35416e-05
9.04096e-07
1.36571e-05
4.54484e-07
1.37747e-05
3.11841e-07
1.39086e-05
2.90771e-07
1.40424e-05
4.05831e-07
1.41641e-05
3.29325e-07
1.42584e-05
2.64582e-07
1.43548e-05
3.04148e-07
1.44349e-05
2.7826e-07
1.44921e-05
2.24267e-07
1.45686e-05
2.65013e-07
1.46305e-05
1.9165e-07
1.47073e-05
2.43707e-07
1.47958e-05
2.82079e-07
1.48796e-05
2.35626e-07
1.498e-05
3.02487e-07
1.50687e-05
2.92956e-07
1.77879e-07
1.51085e-05
1.27711e-05
5.39556e-07
1.32147e-05
8.89462e-07
1.35243e-05
5.94457e-07
1.36497e-05
3.29105e-07
1.37599e-05
2.01622e-07
1.38884e-05
1.62259e-07
1.40231e-05
2.71189e-07
1.41474e-05
2.04984e-07
1.42394e-05
1.72596e-07
1.43361e-05
2.07415e-07
1.44145e-05
1.99824e-07
1.44738e-05
1.65053e-07
1.45523e-05
1.86468e-07
1.46119e-05
1.32036e-07
1.46901e-05
1.65505e-07
1.47782e-05
1.94001e-07
1.48609e-05
1.52884e-07
1.49597e-05
2.03734e-07
1.50457e-05
2.07001e-07
1.87118e-07
1.50364e-05
1.27589e-05
2.80676e-07
1.31995e-05
4.48816e-07
1.35129e-05
2.81036e-07
1.36464e-05
1.95679e-07
1.375e-05
9.80278e-08
1.38747e-05
3.75071e-08
1.40111e-05
1.34848e-07
1.41367e-05
7.93243e-08
1.42257e-05
8.35848e-08
1.43248e-05
1.08302e-07
1.44008e-05
1.23821e-07
1.44616e-05
1.0427e-07
1.45407e-05
1.074e-07
1.46e-05
7.27797e-08
1.46791e-05
8.63859e-08
1.47656e-05
1.0751e-07
1.4849e-05
6.94267e-08
1.49465e-05
1.06245e-07
1.50225e-05
1.31037e-07
2.08647e-07
1.50009e-05
1.27531e-05
2.75415e-08
1.31918e-05
1.0156e-08
1.35068e-05
-3.39766e-08
1.36446e-05
5.78987e-08
1.37458e-05
-3.19661e-09
1.38683e-05
-8.49818e-08
1.40053e-05
-2.17224e-09
1.41318e-05
-4.71417e-08
1.42185e-05
-3.13288e-09
1.43198e-05
6.98353e-09
1.43928e-05
5.08798e-08
1.4456e-05
4.09931e-08
1.45352e-05
2.82098e-08
1.45939e-05
1.40864e-08
1.46729e-05
7.37597e-09
1.476e-05
2.04703e-08
1.48438e-05
-1.43666e-08
1.49352e-05
1.48408e-08
1.50033e-05
6.29539e-08
1.66482e-07
1.50454e-05
1.27535e-05
-2.25929e-07
1.31908e-05
-4.27223e-07
1.35068e-05
-3.49975e-07
1.36437e-05
-7.89924e-08
1.37467e-05
-1.06132e-07
1.38686e-05
-2.06913e-07
1.40062e-05
-1.39726e-07
1.41328e-05
-1.73758e-07
1.42169e-05
-8.72763e-08
1.43212e-05
-9.73304e-08
1.43909e-05
-1.88001e-08
1.44571e-05
-2.52374e-08
1.45349e-05
-4.95765e-08
1.4594e-05
-4.49463e-08
1.46728e-05
-7.14834e-08
1.47607e-05
-6.74573e-08
1.48418e-05
-9.54608e-08
1.49309e-05
-7.41998e-08
1.50281e-05
-3.43037e-08
7.89782e-08
1.51156e-05
1.27602e-05
-4.86107e-07
1.31972e-05
-8.64272e-07
1.35124e-05
-6.65176e-07
1.36434e-05
-2.09949e-07
1.37531e-05
-2.15813e-07
1.38759e-05
-3.29771e-07
1.40135e-05
-2.77299e-07
1.41395e-05
-2.99717e-07
1.42216e-05
-1.69374e-07
1.43284e-05
-2.04151e-07
1.43955e-05
-8.5945e-08
1.44646e-05
-9.43125e-08
1.45402e-05
-1.25211e-07
1.46002e-05
-1.04948e-07
1.46786e-05
-1.4981e-07
1.47669e-05
-1.55769e-07
1.48464e-05
-1.75042e-07
1.49437e-05
-1.71454e-07
1.50476e-05
-1.38199e-07
1.30082e-07
1.49965e-05
1.27731e-05
-7.59179e-07
1.32105e-05
-1.30172e-06
1.35236e-05
-9.78235e-07
1.36458e-05
-3.32174e-07
1.3765e-05
-3.34983e-07
1.38899e-05
-4.54728e-07
1.40275e-05
-4.14898e-07
1.41517e-05
-4.2388e-07
1.42322e-05
-2.49843e-07
1.43415e-05
-3.13514e-07
1.44067e-05
-1.51109e-07
1.44784e-05
-1.66007e-07
1.45512e-05
-1.98021e-07
1.46129e-05
-1.66702e-07
1.46898e-05
-2.26697e-07
1.47791e-05
-2.45045e-07
1.48592e-05
-2.55119e-07
1.49576e-05
-2.69826e-07
1.50403e-05
-2.20941e-07
9.39713e-08
1.50764e-05
1.27921e-05
-1.05126e-06
1.32312e-05
-1.74089e-06
1.35398e-05
-1.28678e-06
1.36522e-05
-4.44552e-07
1.37829e-05
-4.65702e-07
1.3911e-05
-5.82791e-07
1.40481e-05
-5.52079e-07
1.41693e-05
-5.45078e-07
1.42493e-05
-3.29835e-07
1.43605e-05
-4.24718e-07
1.44245e-05
-2.15068e-07
1.44985e-05
-2.39974e-07
1.45682e-05
-2.67764e-07
1.46321e-05
-2.30609e-07
1.47068e-05
-3.01364e-07
1.47978e-05
-3.36071e-07
1.48771e-05
-3.34464e-07
1.49764e-05
-3.69122e-07
1.50742e-05
-3.18708e-07
-1.75527e-08
1.51857e-05
1.28171e-05
-1.36834e-06
1.32594e-05
-2.18324e-06
1.35603e-05
-1.58764e-06
1.3664e-05
-5.48265e-07
1.38075e-05
-6.09155e-07
1.39388e-05
-7.14083e-07
1.40754e-05
-6.8873e-07
1.41926e-05
-6.62304e-07
1.42732e-05
-4.10388e-07
1.43852e-05
-5.36742e-07
1.44495e-05
-2.79338e-07
1.45246e-05
-3.15093e-07
1.45916e-05
-3.34727e-07
1.46579e-05
-2.96902e-07
1.47293e-05
-3.72837e-07
1.48229e-05
-4.29678e-07
1.49022e-05
-4.13753e-07
1.50089e-05
-4.7585e-07
1.50917e-05
-4.01483e-07
-5.82052e-08
1.51324e-05
1.28479e-05
-1.71626e-06
1.32952e-05
-2.63048e-06
1.3584e-05
-1.87652e-06
1.3682e-05
-6.46272e-07
1.38391e-05
-7.66176e-07
1.39735e-05
-8.48551e-07
1.41094e-05
-8.24562e-07
1.42218e-05
-7.74698e-07
1.43044e-05
-4.9302e-07
1.44156e-05
-6.47998e-07
1.44816e-05
-3.45264e-07
1.45566e-05
-3.90096e-07
1.46215e-05
-3.99624e-07
1.46903e-05
-3.65771e-07
1.47581e-05
-4.40591e-07
1.48554e-05
-5.2702e-07
1.49336e-05
-4.9192e-07
1.50433e-05
-5.85508e-07
1.51164e-05
-4.74654e-07
-1.7112e-07
1.52293e-05
1.28844e-05
-2.10064e-06
1.33379e-05
-3.08396e-06
1.36079e-05
-2.14656e-06
1.37079e-05
-7.46303e-07
1.38786e-05
-9.36826e-07
1.40152e-05
-9.85225e-07
1.415e-05
-9.59281e-07
1.42576e-05
-8.823e-07
1.4344e-05
-5.79403e-07
1.4452e-05
-7.56088e-07
1.45203e-05
-4.13529e-07
1.45938e-05
-4.63592e-07
1.46586e-05
-4.64464e-07
1.47295e-05
-4.36616e-07
1.47948e-05
-5.05914e-07
1.48959e-05
-6.28147e-07
1.49692e-05
-5.65171e-07
1.5085e-05
-7.01299e-07
1.51819e-05
-5.71533e-07
-2.60596e-07
1.52713e-05
1.29265e-05
-2.52715e-06
1.33862e-05
-3.54361e-06
1.36029e-05
-2.36329e-06
1.37449e-05
-8.88295e-07
1.39279e-05
-1.11979e-06
1.4064e-05
-1.12135e-06
1.41972e-05
-1.09253e-06
1.43014e-05
-9.86445e-07
1.43932e-05
-6.71266e-07
1.44941e-05
-8.56999e-07
1.45644e-05
-4.83818e-07
1.46346e-05
-5.33784e-07
1.47037e-05
-5.33529e-07
1.47762e-05
-5.09078e-07
1.48426e-05
-5.72349e-07
1.49437e-05
-7.29263e-07
1.50107e-05
-6.32134e-07
1.51363e-05
-8.26956e-07
1.52274e-05
-6.626e-07
-3.70758e-07
1.53376e-05
1.29746e-05
-3.00173e-06
1.34395e-05
-4.00848e-06
1.36145e-05
-2.53836e-06
1.37954e-05
-1.06915e-06
1.39869e-05
-1.31135e-06
1.41184e-05
-1.25286e-06
1.42492e-05
-1.2233e-06
1.43522e-05
-1.08948e-06
1.44505e-05
-7.6952e-07
1.45392e-05
-9.45733e-07
1.46099e-05
-5.54433e-07
1.4677e-05
-6.00901e-07
1.47567e-05
-6.13292e-07
1.48327e-05
-5.85018e-07
1.49031e-05
-6.42795e-07
1.49977e-05
-8.23841e-07
1.50578e-05
-6.92256e-07
1.51894e-05
-9.58503e-07
1.52743e-05
-7.47553e-07
-5.84073e-07
1.54876e-05
1.30285e-05
-3.5302e-06
1.35022e-05
-4.48226e-06
1.36604e-05
-2.69655e-06
1.38569e-05
-1.26564e-06
1.40542e-05
-1.50863e-06
1.41797e-05
-1.37839e-06
1.43058e-05
-1.34935e-06
1.44086e-05
-1.19228e-06
1.45115e-05
-8.72475e-07
1.45852e-05
-1.01943e-06
1.46575e-05
-6.26672e-07
1.47261e-05
-6.69524e-07
1.48225e-05
-7.09701e-07
1.4903e-05
-6.65468e-07
1.49764e-05
-7.16236e-07
1.50541e-05
-9.01499e-07
1.51066e-05
-7.44789e-07
1.52342e-05
-1.08608e-06
1.53179e-05
-8.31263e-07
-7.89621e-07
1.55234e-05
1.30904e-05
-4.12055e-06
1.35832e-05
-4.97514e-06
1.37173e-05
-2.83059e-06
1.39218e-05
-1.47013e-06
1.41263e-05
-1.71322e-06
1.42523e-05
-1.50431e-06
1.43718e-05
-1.4689e-06
1.44687e-05
-1.28918e-06
1.45719e-05
-9.75699e-07
1.46363e-05
-1.0838e-06
1.47187e-05
-7.09055e-07
1.47949e-05
-7.45782e-07
1.49006e-05
-8.15385e-07
1.49745e-05
-7.39375e-07
1.50386e-05
-7.80265e-07
1.50837e-05
-9.46682e-07
1.51242e-05
-7.85232e-07
1.5212e-05
-1.17384e-06
1.52745e-05
-8.93777e-07
-1.01208e-06
1.54969e-05
1.3169e-05
-4.78959e-06
1.36738e-05
-5.47994e-06
1.37701e-05
-2.92687e-06
1.39926e-05
-1.69265e-06
1.42072e-05
-1.92775e-06
1.43422e-05
-1.63936e-06
1.44516e-05
-1.57826e-06
1.45346e-05
-1.37215e-06
1.46339e-05
-1.07502e-06
1.46911e-05
-1.14107e-06
1.47778e-05
-7.95667e-07
1.48437e-05
-8.11746e-07
1.4915e-05
-8.86708e-07
1.495e-05
-7.74349e-07
1.49708e-05
-8.01027e-07
1.49589e-05
-9.34838e-07
1.49607e-05
-7.87025e-07
1.49594e-05
-1.17248e-06
1.49599e-05
-8.94336e-07
-1.17276e-06
1.51206e-05
1.32688e-05
-5.55843e-06
1.37362e-05
-5.94728e-06
1.38259e-05
-3.01655e-06
1.40968e-05
-1.96357e-06
1.43077e-05
-2.13871e-06
1.44373e-05
-1.76894e-06
1.45168e-05
-1.65779e-06
1.45651e-05
-1.4204e-06
1.46279e-05
-1.13778e-06
1.46301e-05
-1.14335e-06
1.46608e-05
-8.26311e-07
1.46578e-05
-8.08793e-07
1.46355e-05
-8.64424e-07
1.45962e-05
-7.34983e-07
1.45413e-05
-7.46127e-07
1.4457e-05
-8.50615e-07
1.43963e-05
-7.26259e-07
1.42944e-05
-1.0706e-06
1.42214e-05
-8.21294e-07
-1.20309e-06
1.42517e-05
1.33789e-05
-6.43738e-06
1.37201e-05
-6.28841e-06
1.39225e-05
-3.21894e-06
1.4226e-05
-2.26708e-06
1.43609e-05
-2.27366e-06
1.44115e-05
-1.81952e-06
1.43838e-05
-1.63005e-06
1.43181e-05
-1.35466e-06
1.42608e-05
-1.08058e-06
1.41446e-05
-1.02709e-06
1.40673e-05
-7.49012e-07
1.39693e-05
-7.10783e-07
1.38515e-05
-7.46605e-07
1.37457e-05
-6.29272e-07
1.36293e-05
-6.29692e-07
1.34942e-05
-7.15544e-07
1.33862e-05
-6.18199e-07
1.32184e-05
-9.02867e-07
1.30989e-05
-7.01695e-07
-1.1033e-06
1.29991e-05
1.3501e-05
-7.43842e-06
1.37641e-05
-6.55143e-06
1.39825e-05
-3.43742e-06
1.41561e-05
-2.44064e-06
1.40597e-05
-2.17725e-06
1.39039e-05
-1.6637e-06
1.36832e-05
-1.4094e-06
1.34598e-05
-1.13124e-06
1.32694e-05
-8.90211e-07
1.30578e-05
-8.15486e-07
1.29036e-05
-5.94799e-07
1.27485e-05
-5.55633e-07
1.25828e-05
-5.80952e-07
1.24454e-05
-4.91878e-07
1.23013e-05
-4.85581e-07
1.21436e-05
-5.57844e-07
1.20126e-05
-4.87203e-07
1.18132e-05
-7.03491e-07
1.16662e-05
-5.54635e-07
-6.31275e-07
1.11942e-05
1.36046e-05
-8.54304e-06
1.36629e-05
-6.60969e-06
1.36109e-05
-3.38546e-06
1.34124e-05
-2.24213e-06
1.30015e-05
-1.76637e-06
1.26285e-05
-1.29067e-06
1.22637e-05
-1.04464e-06
1.19532e-05
-8.20722e-07
1.17005e-05
-6.37537e-07
1.14581e-05
-5.73047e-07
1.12794e-05
-4.16079e-07
1.11093e-05
-3.8555e-07
1.09352e-05
-4.06897e-07
1.07927e-05
-3.49348e-07
1.06448e-05
-3.37692e-07
1.04851e-05
-3.98098e-07
1.03477e-05
-3.49835e-07
1.01443e-05
-5.00105e-07
1.00007e-05
-4.11027e-07
-3.14637e-07
9.68408e-06
1.34218e-05
-9.46488e-06
1.28885e-05
-6.07635e-06
1.23165e-05
-2.8135e-06
1.17246e-05
-1.65023e-06
1.11223e-05
-1.16407e-06
1.06604e-05
-8.28715e-07
1.02649e-05
-6.49195e-07
9.95135e-06
-5.07149e-07
9.7004e-06
-3.86593e-07
9.47431e-06
-3.46954e-07
9.30687e-06
-2.48644e-07
9.15056e-06
-2.29234e-07
8.99281e-06
-2.49146e-07
8.86199e-06
-2.18529e-07
8.72731e-06
-2.03015e-07
8.58116e-06
-2.51944e-07
8.45019e-06
-2.18868e-07
8.26562e-06
-3.15531e-07
8.12884e-06
-2.7425e-07
-1.32819e-07
7.94702e-06
1.24316e-05
-9.39652e-06
1.10029e-05
-4.64762e-06
9.97286e-06
-1.78344e-06
9.20778e-06
-8.85153e-07
8.61249e-06
-5.68772e-07
8.18978e-06
-4.06006e-07
7.85023e-06
-3.09642e-07
7.58844e-06
-2.45362e-07
7.38181e-06
-1.79968e-07
7.20067e-06
-1.65808e-07
7.06722e-06
-1.15198e-07
6.94353e-06
-1.05542e-07
6.81684e-06
-1.2245e-07
6.70871e-06
-1.10401e-07
6.60061e-06
-9.49194e-08
6.47886e-06
-1.30187e-07
6.36721e-06
-1.07224e-07
6.21569e-06
-1.64006e-07
6.0892e-06
-1.47762e-07
-2.92511e-08
5.98563e-06
1.01144e-05
-7.01093e-06
7.83003e-06
-2.36324e-06
6.70378e-06
-6.57184e-07
6.06702e-06
-2.48395e-07
5.643e-06
-1.44758e-07
5.34724e-06
-1.10242e-07
5.11809e-06
-8.04966e-08
4.93973e-06
-6.69972e-08
4.80481e-06
-4.50453e-08
4.68403e-06
-4.50354e-08
4.59832e-06
-2.948e-08
4.51863e-06
-2.58555e-08
4.43179e-06
-3.56134e-08
4.35504e-06
-3.36509e-08
4.28412e-06
-2.3994e-08
4.19491e-06
-4.0981e-08
4.11713e-06
-2.94439e-08
4.00612e-06
-5.30005e-08
3.90622e-06
-4.78566e-08
1.00666e-08
3.8669e-06
5.48907e-06
3.12582e-06
2.46864e-06
2.22025e-06
2.07549e-06
1.96525e-06
1.88475e-06
1.81775e-06
1.77271e-06
1.72767e-06
1.69819e-06
1.67234e-06
1.63672e-06
1.60307e-06
1.57908e-06
1.5381e-06
1.50865e-06
1.45565e-06
1.4078e-06
1.41786e-06
1.78115e-06
-3.12996e-07
1.30475e-07
1.92353e-06
-4.54241e-07
3.11861e-07
2.00843e-06
-5.9395e-07
5.09048e-07
1.98945e-06
-6.29554e-07
6.48534e-07
1.88647e-06
-5.83444e-07
6.86427e-07
1.88759e-06
-4.78628e-07
4.775e-07
1.95722e-06
-1.92611e-07
1.22981e-07
2.18362e-06
8.84651e-08
-3.14858e-07
2.66696e-06
2.65668e-07
-7.49008e-07
3.44056e-06
1.64789e-06
-2.42149e-06
4.49095e-06
2.13096e-06
-3.18135e-06
5.27068e-06
3.07401e-06
-3.85374e-06
5.83809e-06
5.09529e-06
-5.6627e-06
6.71523e-06
5.74504e-06
-6.62219e-06
7.65244e-06
4.84439e-06
-5.7816e-06
8.62514e-06
5.2845e-06
-6.2572e-06
9.59725e-06
5.91375e-06
-6.88586e-06
1.05182e-05
5.85357e-06
-6.77454e-06
1.12858e-05
5.27131e-06
-6.03887e-06
1.18089e-05
4.11821e-06
-4.64133e-06
1.23365e-05
2.17959e-06
-2.70719e-06
1.2831e-05
-3.52708e-07
-1.418e-07
1.30286e-05
-2.17646e-06
1.97885e-06
1.30124e-05
-3.18551e-06
3.2017e-06
1.29065e-05
-4.86713e-06
4.97306e-06
1.25759e-05
-7.3484e-06
7.67898e-06
1.2066e-05
-9.1689e-06
9.67888e-06
1.18023e-05
-9.72178e-06
9.98548e-06
1.20734e-05
-9.84103e-06
9.56983e-06
1.27609e-05
-1.05239e-05
9.8364e-06
1.35866e-05
-1.18348e-05
1.1009e-05
1.43646e-05
-1.32167e-05
1.24387e-05
1.49799e-05
-1.42106e-05
1.35953e-05
1.53544e-05
-1.48723e-05
1.44978e-05
1.5513e-05
-1.52884e-05
1.51298e-05
1.54744e-05
-1.5283e-05
1.53217e-05
1.52842e-05
-1.49533e-05
1.51435e-05
1.49736e-05
-1.44797e-05
1.47903e-05
1.46076e-05
-1.40156e-05
1.43816e-05
1.42646e-05
-1.34713e-05
1.38143e-05
1.39389e-05
-1.27518e-05
1.30775e-05
1.3652e-05
-1.19667e-05
1.22537e-05
1.33371e-05
-1.12104e-05
1.15253e-05
1.296e-05
-1.03461e-05
1.07231e-05
1.25149e-05
-9.18423e-06
9.62931e-06
1.19784e-05
-8.17008e-06
8.70666e-06
1.14834e-05
-7.35624e-06
7.85125e-06
1.10532e-05
-6.26691e-06
6.69705e-06
1.06002e-05
-5.13144e-06
5.58448e-06
1.01396e-05
-4.25923e-06
4.71975e-06
9.67881e-06
-3.48524e-06
3.94608e-06
9.2048e-06
-2.75914e-06
3.23315e-06
8.76489e-06
-2.29098e-06
2.73089e-06
8.43376e-06
-2.09023e-06
2.42136e-06
8.21511e-06
-1.79546e-06
2.0141e-06
8.00502e-06
-1.20988e-06
1.41998e-06
7.72536e-06
-6.33965e-07
9.13621e-07
7.4345e-06
-4.06137e-07
6.96999e-07
7.23608e-06
-4.86318e-07
6.84743e-07
7.14281e-06
-6.12805e-07
7.06075e-07
7.08382e-06
-6.23352e-07
6.82342e-07
7.00669e-06
-5.25279e-07
6.02403e-07
6.91972e-06
-3.76225e-07
4.63201e-07
6.84861e-06
-2.16049e-07
2.87159e-07
6.79457e-06
-7.97044e-08
1.33737e-07
6.73981e-06
3.63029e-09
5.11351e-08
6.67285e-06
3.07615e-08
3.61972e-08
6.59973e-06
2.2658e-08
5.04595e-08
6.53707e-06
2.25258e-09
6.04118e-08
6.49862e-06
-1.82005e-08
5.66446e-08
6.48848e-06
-3.74532e-08
4.75924e-08
6.50169e-06
-5.65991e-08
4.33979e-08
6.52877e-06
-7.42346e-08
4.7152e-08
6.56008e-06
-8.682e-08
5.55118e-08
6.58841e-06
-9.15082e-08
6.31787e-08
6.6099e-06
-8.78879e-08
6.63905e-08
6.62367e-06
-7.76989e-08
6.3932e-08
6.63071e-06
-6.35895e-08
5.65466e-08
6.63284e-06
-4.8062e-08
4.5937e-08
6.63186e-06
-3.29742e-08
3.39503e-08
6.62922e-06
-1.94541e-08
2.20941e-08
6.62589e-06
-8.02648e-09
1.13564e-08
6.62246e-06
1.1988e-09
2.22798e-09
6.61924e-06
8.42073e-09
-5.19702e-09
6.61636e-06
1.39142e-08
-1.10326e-08
6.61386e-06
1.80561e-08
-1.55614e-08
6.61177e-06
2.11151e-08
-1.90192e-08
6.61001e-06
2.33938e-08
-2.16394e-08
6.60858e-06
2.5042e-08
-2.36065e-08
6.6074e-06
2.63053e-08
-2.51246e-08
6.60645e-06
2.72464e-08
-2.62944e-08
6.60568e-06
2.79792e-08
-2.72113e-08
6.60506e-06
2.85756e-08
-2.79588e-08
6.60457e-06
2.91009e-08
-2.86089e-08
6.60418e-06
2.95832e-08
-2.91957e-08
6.60387e-06
3.00928e-08
-2.97814e-08
6.60363e-06
3.06316e-08
-3.03946e-08
6.60345e-06
3.12627e-08
-3.10782e-08
6.60331e-06
3.1973e-08
-3.18364e-08
6.60321e-06
3.28708e-08
-3.27671e-08
6.60315e-06
3.38283e-08
-3.37654e-08
6.6031e-06
3.51451e-08
-3.50947e-08
6.60309e-06
3.63744e-08
-3.63733e-08
6.60307e-06
3.83781e-08
-3.83495e-08
6.60314e-06
3.97645e-08
-3.98389e-08
6.60308e-06
4.29748e-08
-4.29156e-08
6.60329e-06
4.40493e-08
-4.42577e-08
6.60307e-06
4.96399e-08
-4.94224e-08
6.60358e-06
4.91031e-08
-4.96135e-08
6.60289e-06
5.96384e-08
-5.89485e-08
6.60411e-06
5.44153e-08
-5.56331e-08
6.6022e-06
7.52276e-08
-7.33221e-08
6.605e-06
5.89481e-08
-6.17407e-08
6.60029e-06
1.00004e-07
-9.52928e-08
6.60624e-06
6.12625e-08
-6.72194e-08
6.59574e-06
1.38486e-07
-1.27978e-07
6.60719e-06
6.04654e-08
-7.19235e-08
6.58633e-06
1.93191e-07
-1.72331e-07
6.60568e-06
5.77164e-08
-7.70594e-08
6.5698e-06
2.58073e-07
-2.22194e-07
6.59805e-06
5.59731e-08
-8.4229e-08
6.54607e-06
3.13273e-07
-2.61292e-07
6.58249e-06
5.45056e-08
-9.0926e-08
6.51911e-06
3.34614e-07
-2.71228e-07
6.56387e-06
4.27763e-08
-8.75419e-08
6.49636e-06
3.12872e-07
-2.45359e-07
6.55046e-06
1.79595e-08
-7.20627e-08
6.4889e-06
2.45048e-07
-1.83487e-07
6.54154e-06
2.3141e-08
-7.57819e-08
6.50978e-06
1.13885e-07
-8.21236e-08
6.52829e-06
1.21348e-07
-1.39855e-07
6.55019e-06
-4.43041e-08
2.2399e-08
6.51508e-06
2.509e-07
-2.1579e-07
6.57117e-06
-8.88043e-08
3.27166e-08
6.52612e-06
2.45443e-07
-2.00393e-07
6.54528e-06
4.96886e-08
-6.88459e-08
6.5553e-06
1.2424e-07
-1.34264e-07
6.50842e-06
1.86645e-07
-1.3976e-07
6.57278e-06
7.39188e-08
-1.3828e-07
6.5047e-06
1.92277e-07
-1.24197e-07
6.55643e-06
1.28744e-07
-1.80478e-07
6.53019e-06
1.65348e-07
-1.39103e-07
6.53053e-06
1.6324e-07
-1.63578e-07
6.54144e-06
2.07064e-07
-2.17982e-07
6.53232e-06
1.53887e-07
-1.44762e-07
6.52453e-06
2.48683e-07
-2.40896e-07
6.54838e-06
1.8334e-07
-2.07187e-07
6.51923e-06
2.43629e-07
-2.14477e-07
6.54199e-06
2.4993e-07
-2.72687e-07
6.5378e-06
2.52365e-07
-2.48182e-07
6.52352e-06
3.04922e-07
-2.90635e-07
6.55252e-06
2.8949e-07
-3.18492e-07
6.51921e-06
3.57169e-07
-3.23863e-07
6.55307e-06
3.40068e-07
-3.73921e-07
6.52676e-06
4.1104e-07
-3.84733e-07
6.54895e-06
4.16899e-07
-4.39089e-07
6.52994e-06
4.69499e-07
-4.50486e-07
6.55539e-06
4.94625e-07
-5.20079e-07
6.52601e-06
5.59379e-07
-5.29996e-07
6.55913e-06
5.71638e-07
-6.04766e-07
6.53163e-06
6.60758e-07
-6.33256e-07
6.56517e-06
6.71819e-07
-7.05358e-07
6.52621e-06
7.73612e-07
-7.34646e-07
6.57763e-06
7.88454e-07
-8.39877e-07
6.53572e-06
9.06657e-07
-8.64751e-07
6.58209e-06
9.25232e-07
-9.71598e-07
6.53948e-06
1.06723e-06
-1.02463e-06
6.59735e-06
1.09013e-06
-1.148e-06
6.55121e-06
1.24408e-06
-1.19794e-06
6.6064e-06
1.30412e-06
-1.35931e-06
6.57263e-06
1.42758e-06
-1.39381e-06
6.61175e-06
1.54871e-06
-1.58783e-06
6.59605e-06
1.73222e-06
-1.71652e-06
6.63444e-06
1.73262e-06
-1.77101e-06
6.62164e-06
2.05363e-06
-2.04083e-06
6.6535e-06
2.15423e-06
-2.18609e-06
6.66482e-06
2.26338e-06
-2.2747e-06
6.62593e-06
2.63778e-06
-2.59889e-06
6.75831e-06
2.71176e-06
-2.84414e-06
6.66587e-06
2.99287e-06
-2.90044e-06
6.75254e-06
3.32256e-06
-3.40922e-06
6.68572e-06
3.55228e-06
-3.48547e-06
6.78883e-06
3.86548e-06
-3.96859e-06
6.69438e-06
4.37421e-06
-4.27976e-06
6.76364e-06
4.50829e-06
-4.57755e-06
6.7418e-06
5.20002e-06
-5.17818e-06
6.69039e-06
5.58136e-06
-5.52996e-06
6.78851e-06
6.01243e-06
-6.11055e-06
6.58516e-06
6.832e-06
-6.62866e-06
6.71404e-06
7.28771e-06
-7.41658e-06
6.69941e-06
8.23113e-06
-8.2165e-06
6.5525e-06
9.11127e-06
-8.96435e-06
6.50879e-06
1.00708e-05
-1.00271e-05
6.36423e-06
1.1247e-05
-1.11025e-05
6.31882e-06
1.27611e-05
-1.27157e-05
6.33891e-06
1.42613e-05
-1.42814e-05
6.27002e-06
1.68948e-05
-1.68259e-05
5.44518e-06
2.0366e-05
-1.95412e-05
5.61777e-06
2.28217e-05
-2.29943e-05
3.39279e-05
-3.36541e-05
5.34399e-06
3.88813e-06
-3.37736e-07
3.89727e-06
-4.63384e-07
3.89542e-06
-5.92101e-07
3.90089e-06
-6.35025e-07
3.82058e-06
-5.03132e-07
3.69365e-06
-3.51694e-07
3.64839e-06
-1.47349e-07
3.52972e-06
2.07127e-07
3.48846e-06
3.0693e-07
3.88067e-06
1.25568e-06
4.50638e-06
1.50525e-06
5.12986e-06
2.45053e-06
5.83609e-06
4.38907e-06
6.83191e-06
4.74922e-06
7.8153e-06
3.861e-06
8.92894e-06
4.17086e-06
1.01154e-05
4.72733e-06
1.11064e-05
4.86257e-06
1.18176e-05
4.56007e-06
1.23381e-05
3.5977e-06
1.26737e-05
1.84397e-06
1.27837e-05
-4.62715e-07
1.27529e-05
-2.14558e-06
1.27079e-05
-3.14059e-06
1.26703e-05
-4.82954e-06
1.25283e-05
-7.20634e-06
1.23886e-05
-9.02923e-06
1.25898e-05
-9.92301e-06
1.32063e-05
-1.04575e-05
1.40327e-05
-1.13503e-05
1.48171e-05
-1.26192e-05
1.54065e-05
-1.38061e-05
1.5775e-05
-1.45791e-05
1.59041e-05
-1.50014e-05
1.58508e-05
-1.5235e-05
1.56461e-05
-1.50784e-05
1.53533e-05
-1.46605e-05
1.50379e-05
-1.41644e-05
1.47269e-05
-1.37046e-05
1.44818e-05
-1.32262e-05
1.42222e-05
-1.24921e-05
1.39342e-05
-1.16788e-05
1.36181e-05
-1.08943e-05
1.32304e-05
-9.95833e-06
1.27813e-05
-8.73519e-06
1.22202e-05
-7.60893e-06
1.16306e-05
-6.76661e-06
1.11306e-05
-5.76698e-06
1.06817e-05
-4.68245e-06
1.0263e-05
-3.84054e-06
9.86358e-06
-3.08587e-06
9.43206e-06
-2.32763e-06
8.96479e-06
-1.8237e-06
8.53547e-06
-1.66091e-06
8.22008e-06
-1.48007e-06
7.99058e-06
-9.80383e-07
7.75373e-06
-3.9711e-07
7.49238e-06
-1.44788e-07
7.27497e-06
-2.68909e-07
7.14304e-06
-4.80876e-07
7.0572e-06
-5.37511e-07
6.96123e-06
-4.29313e-07
6.85187e-06
-2.66859e-07
6.7649e-06
-1.2908e-07
6.72237e-06
-3.71783e-08
6.71182e-06
1.41838e-08
6.70434e-06
3.82394e-08
6.68006e-06
4.69393e-08
6.63874e-06
4.35681e-08
6.59352e-06
2.70204e-08
6.55914e-06
-3.0757e-09
6.54344e-06
-4.08984e-08
6.54606e-06
-7.68482e-08
6.56123e-06
-1.01991e-07
6.58163e-06
-1.11909e-07
6.60118e-06
-1.07439e-07
6.6163e-06
-9.28213e-08
6.62586e-06
-7.31446e-08
6.63037e-06
-5.25755e-08
6.63113e-06
-3.37369e-08
6.62953e-06
-1.78501e-08
6.62669e-06
-5.18941e-09
6.62341e-06
4.48463e-09
6.62014e-06
1.16918e-08
6.61713e-06
1.69203e-08
6.6145e-06
2.06821e-08
6.61226e-06
2.33542e-08
6.61041e-06
2.52491e-08
6.60887e-06
2.65775e-08
6.60763e-06
2.75503e-08
6.60663e-06
2.8249e-08
6.60582e-06
2.87826e-08
6.60518e-06
2.9216e-08
6.60468e-06
2.96026e-08
6.60429e-06
2.99782e-08
6.60398e-06
3.03971e-08
6.60375e-06
3.08595e-08
6.60358e-06
3.14329e-08
6.60347e-06
3.20879e-08
6.60339e-06
3.29481e-08
6.60336e-06
3.38594e-08
6.60334e-06
3.51602e-08
6.60339e-06
3.6333e-08
6.6034e-06
3.83606e-08
6.60354e-06
3.96314e-08
6.60353e-06
4.29792e-08
6.60383e-06