/*--------------------------------*- C++ -*----------------------------------*\
| =========                 |                                                 |
| \\      /  F ield         | OpenFOAM: The Open Source CFD Toolbox           |
|  \\    /   O peration     | Version:  2.4.0                                 |
|   \\  /    A nd           | Web:      www.OpenFOAM.org                      |
|    \\/     M anipulation  |                                                 |
\*---------------------------------------------------------------------------*/
FoamFile
{
    version     2.0;
    format      ascii;
    class       volScalarField;
    location    "0.041";
    object      pPrime2Mean;
}
// * * * * * * * * * * * * * * * * * * * * * * * * * * * * * * * * * * * * * //

dimensions      [0 4 -4 0 0 0 0];

internalField   nonuniform List<scalar> 
17600
(
1.57551e+07
1.53578e+07
1.49307e+07
1.45073e+07
1.409e+07
1.36787e+07
1.32736e+07
1.28745e+07
1.24815e+07
1.20945e+07
1.17135e+07
1.13385e+07
1.09694e+07
1.06059e+07
1.02477e+07
9.89402e+06
9.54358e+06
9.19359e+06
8.83779e+06
8.45506e+06
1.57554e+07
1.53578e+07
1.49307e+07
1.45073e+07
1.409e+07
1.36787e+07
1.32736e+07
1.28745e+07
1.24815e+07
1.20945e+07
1.17135e+07
1.13385e+07
1.09694e+07
1.06059e+07
1.02477e+07
9.89406e+06
9.54368e+06
9.1938e+06
8.8383e+06
8.45598e+06
1.57556e+07
1.53578e+07
1.49306e+07
1.45073e+07
1.409e+07
1.36787e+07
1.32736e+07
1.28745e+07
1.24815e+07
1.20945e+07
1.17135e+07
1.13386e+07
1.09694e+07
1.06059e+07
1.02477e+07
9.89416e+06
9.54387e+06
9.1942e+06
8.83921e+06
8.45984e+06
1.57558e+07
1.53577e+07
1.49306e+07
1.45073e+07
1.409e+07
1.36787e+07
1.32736e+07
1.28745e+07
1.24815e+07
1.20945e+07
1.17136e+07
1.13386e+07
1.09694e+07
1.0606e+07
1.02478e+07
9.8943e+06
9.54415e+06
9.1948e+06
8.84061e+06
8.4653e+06
1.57559e+07
1.53577e+07
1.49306e+07
1.45073e+07
1.409e+07
1.36787e+07
1.32736e+07
1.28745e+07
1.24815e+07
1.20945e+07
1.17136e+07
1.13386e+07
1.09695e+07
1.0606e+07
1.02479e+07
9.89449e+06
9.54452e+06
9.19558e+06
8.84244e+06
8.47183e+06
1.57561e+07
1.53576e+07
1.49305e+07
1.45073e+07
1.40899e+07
1.36787e+07
1.32736e+07
1.28745e+07
1.24815e+07
1.20945e+07
1.17136e+07
1.13386e+07
1.09695e+07
1.06061e+07
1.0248e+07
9.89472e+06
9.54498e+06
9.19653e+06
8.84466e+06
8.47899e+06
1.57562e+07
1.53576e+07
1.49305e+07
1.45073e+07
1.40899e+07
1.36787e+07
1.32736e+07
1.28745e+07
1.24815e+07
1.20945e+07
1.17136e+07
1.13386e+07
1.09695e+07
1.06062e+07
1.02482e+07
9.89499e+06
9.54552e+06
9.19764e+06
8.84721e+06
8.4865e+06
1.57563e+07
1.53575e+07
1.49304e+07
1.45072e+07
1.40899e+07
1.36787e+07
1.32736e+07
1.28745e+07
1.24815e+07
1.20945e+07
1.17136e+07
1.13386e+07
1.09696e+07
1.06063e+07
1.02483e+07
9.89531e+06
9.54613e+06
9.19889e+06
8.85003e+06
8.49416e+06
1.57564e+07
1.53575e+07
1.49304e+07
1.45072e+07
1.40899e+07
1.36787e+07
1.32736e+07
1.28745e+07
1.24815e+07
1.20945e+07
1.17136e+07
1.13387e+07
1.09696e+07
1.06063e+07
1.02485e+07
9.89566e+06
9.54681e+06
9.20027e+06
8.85307e+06
8.50185e+06
1.57565e+07
1.53575e+07
1.49303e+07
1.45072e+07
1.40899e+07
1.36787e+07
1.32736e+07
1.28745e+07
1.24815e+07
1.20945e+07
1.17136e+07
1.13387e+07
1.09697e+07
1.06065e+07
1.02487e+07
9.89604e+06
9.54755e+06
9.20176e+06
8.85628e+06
8.50947e+06
1.57566e+07
1.53575e+07
1.49303e+07
1.45072e+07
1.40899e+07
1.36787e+07
1.32735e+07
1.28745e+07
1.24815e+07
1.20945e+07
1.17136e+07
1.13387e+07
1.09698e+07
1.06066e+07
1.0249e+07
9.89646e+06
9.54835e+06
9.20334e+06
8.85962e+06
8.51695e+06
1.57567e+07
1.53574e+07
1.49303e+07
1.45072e+07
1.40899e+07
1.36787e+07
1.32735e+07
1.28745e+07
1.24815e+07
1.20946e+07
1.17137e+07
1.13388e+07
1.09698e+07
1.06067e+07
1.02492e+07
9.8969e+06
9.5492e+06
9.20501e+06
8.86305e+06
8.52425e+06
1.57567e+07
1.53574e+07
1.49302e+07
1.45072e+07
1.40899e+07
1.36787e+07
1.32735e+07
1.28745e+07
1.24815e+07
1.20946e+07
1.17137e+07
1.13388e+07
1.09699e+07
1.06068e+07
1.02494e+07
9.89737e+06
9.55009e+06
9.20674e+06
8.86653e+06
8.53134e+06
1.57568e+07
1.53574e+07
1.49302e+07
1.45072e+07
1.40899e+07
1.36787e+07
1.32735e+07
1.28745e+07
1.24815e+07
1.20946e+07
1.17137e+07
1.13389e+07
1.097e+07
1.0607e+07
1.02497e+07
9.89787e+06
9.55101e+06
9.20852e+06
8.87004e+06
8.53818e+06
1.57568e+07
1.53574e+07
1.49302e+07
1.45072e+07
1.40899e+07
1.36787e+07
1.32735e+07
1.28745e+07
1.24815e+07
1.20946e+07
1.17137e+07
1.13389e+07
1.09701e+07
1.06071e+07
1.025e+07
9.89838e+06
9.55197e+06
9.21034e+06
8.87354e+06
8.54478e+06
1.57569e+07
1.53574e+07
1.49302e+07
1.45071e+07
1.40899e+07
1.36787e+07
1.32735e+07
1.28745e+07
1.24815e+07
1.20946e+07
1.17138e+07
1.1339e+07
1.09701e+07
1.06073e+07
1.02503e+07
9.8989e+06
9.55294e+06
9.21218e+06
8.87702e+06
8.5511e+06
1.57569e+07
1.53574e+07
1.49302e+07
1.45071e+07
1.40899e+07
1.36787e+07
1.32735e+07
1.28745e+07
1.24815e+07
1.20946e+07
1.17138e+07
1.1339e+07
1.09702e+07
1.06074e+07
1.02506e+07
9.89944e+06
9.55394e+06
9.21402e+06
8.88045e+06
8.55716e+06
1.57569e+07
1.53574e+07
1.49302e+07
1.45071e+07
1.40899e+07
1.36787e+07
1.32736e+07
1.28745e+07
1.24815e+07
1.20946e+07
1.17138e+07
1.1339e+07
1.09703e+07
1.06076e+07
1.02509e+07
9.89998e+06
9.55494e+06
9.21587e+06
8.88381e+06
8.56294e+06
1.57569e+07
1.53574e+07
1.49301e+07
1.45071e+07
1.40899e+07
1.36787e+07
1.32736e+07
1.28745e+07
1.24815e+07
1.20946e+07
1.17138e+07
1.13391e+07
1.09704e+07
1.06078e+07
1.02512e+07
9.90053e+06
9.55594e+06
9.2177e+06
8.88709e+06
8.56845e+06
1.57569e+07
1.53574e+07
1.49301e+07
1.45071e+07
1.40899e+07
1.36787e+07
1.32736e+07
1.28745e+07
1.24815e+07
1.20947e+07
1.17139e+07
1.13391e+07
1.09705e+07
1.06079e+07
1.02515e+07
9.90108e+06
9.55694e+06
9.21951e+06
8.89028e+06
8.57369e+06
1.57569e+07
1.53574e+07
1.49301e+07
1.45071e+07
1.40899e+07
1.36787e+07
1.32736e+07
1.28745e+07
1.24815e+07
1.20947e+07
1.17139e+07
1.13392e+07
1.09706e+07
1.06081e+07
1.02518e+07
9.90162e+06
9.55793e+06
9.22128e+06
8.89337e+06
8.57865e+06
1.57569e+07
1.53574e+07
1.49301e+07
1.45071e+07
1.40899e+07
1.36787e+07
1.32736e+07
1.28745e+07
1.24815e+07
1.20947e+07
1.17139e+07
1.13392e+07
1.09707e+07
1.06083e+07
1.0252e+07
9.90216e+06
9.5589e+06
9.22301e+06
8.89634e+06
8.58334e+06
1.57569e+07
1.53574e+07
1.49302e+07
1.45071e+07
1.40899e+07
1.36787e+07
1.32736e+07
1.28745e+07
1.24816e+07
1.20947e+07
1.17139e+07
1.13393e+07
1.09708e+07
1.06084e+07
1.02523e+07
9.90269e+06
9.55986e+06
9.22469e+06
8.89919e+06
8.58776e+06
1.57569e+07
1.53574e+07
1.49302e+07
1.45071e+07
1.40899e+07
1.36787e+07
1.32736e+07
1.28745e+07
1.24816e+07
1.20947e+07
1.1714e+07
1.13393e+07
1.09709e+07
1.06086e+07
1.02526e+07
9.90321e+06
9.56078e+06
9.22631e+06
8.9019e+06
8.59192e+06
1.57569e+07
1.53574e+07
1.49302e+07
1.45071e+07
1.40899e+07
1.36787e+07
1.32736e+07
1.28745e+07
1.24816e+07
1.20947e+07
1.1714e+07
1.13394e+07
1.09709e+07
1.06087e+07
1.02529e+07
9.90372e+06
9.56168e+06
9.22786e+06
8.90448e+06
8.59581e+06
1.57568e+07
1.53574e+07
1.49302e+07
1.45072e+07
1.40899e+07
1.36787e+07
1.32736e+07
1.28745e+07
1.24816e+07
1.20948e+07
1.1714e+07
1.13394e+07
1.0971e+07
1.06089e+07
1.02532e+07
9.9042e+06
9.56254e+06
9.22935e+06
8.90692e+06
8.59945e+06
1.57568e+07
1.53574e+07
1.49302e+07
1.45072e+07
1.40899e+07
1.36787e+07
1.32736e+07
1.28745e+07
1.24816e+07
1.20948e+07
1.17141e+07
1.13395e+07
1.09711e+07
1.0609e+07
1.02534e+07
9.90467e+06
9.56336e+06
9.23075e+06
8.9092e+06
8.60282e+06
1.57567e+07
1.53574e+07
1.49302e+07
1.45072e+07
1.40899e+07
1.36787e+07
1.32736e+07
1.28745e+07
1.24816e+07
1.20948e+07
1.17141e+07
1.13395e+07
1.09712e+07
1.06092e+07
1.02537e+07
9.90511e+06
9.56414e+06
9.23208e+06
8.91134e+06
8.60595e+06
1.57567e+07
1.53575e+07
1.49303e+07
1.45072e+07
1.40899e+07
1.36787e+07
1.32736e+07
1.28745e+07
1.24816e+07
1.20948e+07
1.17141e+07
1.13396e+07
1.09713e+07
1.06093e+07
1.02539e+07
9.90553e+06
9.56487e+06
9.23332e+06
8.91333e+06
8.60882e+06
1.57566e+07
1.53575e+07
1.49303e+07
1.45072e+07
1.40899e+07
1.36787e+07
1.32736e+07
1.28746e+07
1.24816e+07
1.20948e+07
1.17141e+07
1.13396e+07
1.09713e+07
1.06094e+07
1.02541e+07
9.90592e+06
9.56555e+06
9.23447e+06
8.91515e+06
8.61145e+06
1.57565e+07
1.53575e+07
1.49303e+07
1.45072e+07
1.40899e+07
1.36787e+07
1.32736e+07
1.28746e+07
1.24816e+07
1.20948e+07
1.17141e+07
1.13396e+07
1.09714e+07
1.06095e+07
1.02544e+07
9.90629e+06
9.56618e+06
9.23552e+06
8.91682e+06
8.61384e+06
1.57564e+07
1.53575e+07
1.49304e+07
1.45072e+07
1.40899e+07
1.36787e+07
1.32736e+07
1.28746e+07
1.24816e+07
1.20948e+07
1.17142e+07
1.13397e+07
1.09714e+07
1.06096e+07
1.02545e+07
9.90662e+06
9.56675e+06
9.23648e+06
8.91832e+06
8.61598e+06
1.57563e+07
1.53575e+07
1.49304e+07
1.45073e+07
1.409e+07
1.36787e+07
1.32736e+07
1.28746e+07
1.24816e+07
1.20948e+07
1.17142e+07
1.13397e+07
1.09715e+07
1.06097e+07
1.02547e+07
9.90692e+06
9.56727e+06
9.23733e+06
8.91966e+06
8.61788e+06
1.57562e+07
1.53576e+07
1.49305e+07
1.45073e+07
1.409e+07
1.36787e+07
1.32736e+07
1.28746e+07
1.24817e+07
1.20948e+07
1.17142e+07
1.13397e+07
1.09715e+07
1.06098e+07
1.02549e+07
9.90718e+06
9.56772e+06
9.23809e+06
8.92083e+06
8.61954e+06
1.57561e+07
1.53576e+07
1.49305e+07
1.45073e+07
1.409e+07
1.36787e+07
1.32736e+07
1.28746e+07
1.24817e+07
1.20949e+07
1.17142e+07
1.13397e+07
1.09716e+07
1.06099e+07
1.0255e+07
9.90741e+06
9.56812e+06
9.23874e+06
8.92183e+06
8.62096e+06
1.5756e+07
1.53577e+07
1.49306e+07
1.45073e+07
1.409e+07
1.36788e+07
1.32736e+07
1.28746e+07
1.24817e+07
1.20949e+07
1.17142e+07
1.13398e+07
1.09716e+07
1.061e+07
1.02551e+07
9.9076e+06
9.56844e+06
9.23928e+06
8.92267e+06
8.62215e+06
1.57558e+07
1.53577e+07
1.49306e+07
1.45073e+07
1.409e+07
1.36788e+07
1.32736e+07
1.28746e+07
1.24817e+07
1.20949e+07
1.17142e+07
1.13398e+07
1.09716e+07
1.061e+07
1.02552e+07
9.90776e+06
9.56871e+06
9.23972e+06
8.92335e+06
8.62309e+06
1.57556e+07
1.53578e+07
1.49307e+07
1.45073e+07
1.409e+07
1.36788e+07
1.32736e+07
1.28746e+07
1.24817e+07
1.20949e+07
1.17142e+07
1.13398e+07
1.09717e+07
1.061e+07
1.02553e+07
9.90787e+06
9.56891e+06
9.24005e+06
8.92386e+06
8.62379e+06
1.57554e+07
1.53578e+07
1.49307e+07
1.45073e+07
1.409e+07
1.36788e+07
1.32736e+07
1.28746e+07
1.24817e+07
1.20949e+07
1.17142e+07
1.13398e+07
1.09717e+07
1.06101e+07
1.02553e+07
9.90795e+06
9.56905e+06
9.24027e+06
8.92419e+06
8.62426e+06
1.57551e+07
1.53578e+07
1.49307e+07
1.45073e+07
1.409e+07
1.36788e+07
1.32736e+07
1.28746e+07
1.24817e+07
1.20949e+07
1.17142e+07
1.13398e+07
1.09717e+07
1.06101e+07
1.02553e+07
9.90799e+06
9.56911e+06
9.24038e+06
8.92436e+06
8.62448e+06
8.09257e+06
8.00553e+06
7.93817e+06
7.87913e+06
7.82376e+06
7.77075e+06
7.71942e+06
7.66939e+06
7.62034e+06
7.57211e+06
7.52455e+06
7.47752e+06
7.43097e+06
7.38482e+06
7.33902e+06
7.29352e+06
7.24827e+06
7.20324e+06
7.1584e+06
7.11372e+06
7.06918e+06
7.02476e+06
6.98045e+06
6.93627e+06
6.8922e+06
6.84827e+06
6.80448e+06
6.76084e+06
6.71737e+06
6.67407e+06
6.63094e+06
6.58798e+06
6.54519e+06
6.50258e+06
6.46013e+06
6.41784e+06
6.37572e+06
6.33375e+06
6.29195e+06
6.25029e+06
6.20879e+06
6.16745e+06
6.12626e+06
6.08522e+06
6.04434e+06
6.0036e+06
5.96302e+06
5.92259e+06
5.8823e+06
5.84216e+06
5.80216e+06
5.76231e+06
5.7226e+06
5.68303e+06
5.6436e+06
5.60431e+06
5.56516e+06
5.52615e+06
5.48728e+06
5.44854e+06
5.40995e+06
5.37149e+06
5.33317e+06
5.29498e+06
5.25694e+06
5.21903e+06
5.18126e+06
5.14363e+06
5.10613e+06
5.06878e+06
5.03156e+06
4.99447e+06
4.95753e+06
4.92072e+06
4.88405e+06
4.84752e+06
4.81112e+06
4.77486e+06
4.73874e+06
4.70276e+06
4.66691e+06
4.6312e+06
4.59563e+06
4.56019e+06
4.52489e+06
4.48973e+06
4.45471e+06
4.41982e+06
4.38507e+06
4.35046e+06
4.31599e+06
4.28165e+06
4.24745e+06
4.21339e+06
4.17946e+06
4.14567e+06
4.11202e+06
4.0785e+06
4.04513e+06
4.01188e+06
3.97878e+06
3.94581e+06
3.91299e+06
3.88029e+06
3.84774e+06
3.81532e+06
3.78304e+06
3.7509e+06
3.71889e+06
3.68702e+06
3.65529e+06
3.62369e+06
3.59223e+06
3.56091e+06
3.52973e+06
3.49868e+06
3.46777e+06
3.437e+06
3.40637e+06
3.37587e+06
3.34551e+06
3.31528e+06
3.2852e+06
3.25525e+06
3.22543e+06
3.19576e+06
3.16622e+06
3.13682e+06
3.10755e+06
3.07842e+06
3.04943e+06
3.02058e+06
2.99186e+06
2.96328e+06
2.93484e+06
2.90653e+06
2.87837e+06
2.85033e+06
2.82244e+06
2.79468e+06
2.76706e+06
2.73958e+06
2.71223e+06
2.68502e+06
2.65795e+06
2.63101e+06
2.60421e+06
2.57755e+06
2.55103e+06
2.52464e+06
2.49839e+06
2.47227e+06
2.44629e+06
2.42045e+06
2.39474e+06
2.36917e+06
2.34374e+06
2.31844e+06
2.29328e+06
2.26825e+06
2.24336e+06
2.21861e+06
2.19399e+06
2.16951e+06
2.14516e+06
2.12094e+06
2.09686e+06
2.07292e+06
2.0491e+06
2.02542e+06
2.00188e+06
1.97846e+06
1.95517e+06
1.93201e+06
1.90898e+06
1.88608e+06
1.8633e+06
1.84065e+06
1.81811e+06
1.7957e+06
1.77339e+06
1.7512e+06
1.72911e+06
1.70712e+06
1.68522e+06
1.66341e+06
1.64166e+06
1.61997e+06
1.59833e+06
1.5767e+06
1.55506e+06
1.53338e+06
1.51161e+06
1.48968e+06
1.46751e+06
1.44496e+06
1.42184e+06
1.39783e+06
1.3718e+06
1.34346e+06
8.13355e+06
8.03886e+06
7.96444e+06
7.90059e+06
7.84196e+06
7.78648e+06
7.73319e+06
7.68153e+06
7.63113e+06
7.58172e+06
7.53313e+06
7.48522e+06
7.43788e+06
7.39103e+06
7.34459e+06
7.29853e+06
7.25278e+06
7.20729e+06
7.16204e+06
7.117e+06
7.07213e+06
7.02742e+06
6.98286e+06
6.93845e+06
6.89419e+06
6.85008e+06
6.80612e+06
6.76234e+06
6.71874e+06
6.67532e+06
6.63208e+06
6.58902e+06
6.54614e+06
6.50344e+06
6.46092e+06
6.41857e+06
6.37638e+06
6.33436e+06
6.2925e+06
6.2508e+06
6.20926e+06
6.16787e+06
6.12665e+06
6.08557e+06
6.04466e+06
6.0039e+06
5.96329e+06
5.92283e+06
5.88252e+06
5.84236e+06
5.80234e+06
5.76247e+06
5.72275e+06
5.68316e+06
5.64372e+06
5.60442e+06
5.56526e+06
5.52624e+06
5.48736e+06
5.44862e+06
5.41001e+06
5.37155e+06
5.33322e+06
5.29503e+06
5.25698e+06
5.21907e+06
5.1813e+06
5.14366e+06
5.10616e+06
5.0688e+06
5.03158e+06
4.9945e+06
4.95755e+06
4.92074e+06
4.88407e+06
4.84753e+06
4.81114e+06
4.77488e+06
4.73875e+06
4.70277e+06
4.66692e+06
4.63121e+06
4.59564e+06
4.5602e+06
4.5249e+06
4.48974e+06
4.45471e+06
4.41983e+06
4.38508e+06
4.35047e+06
4.31599e+06
4.28165e+06
4.24745e+06
4.21339e+06
4.17946e+06
4.14567e+06
4.11202e+06
4.0785e+06
4.04513e+06
4.01188e+06
3.97878e+06
3.94581e+06
3.91298e+06
3.88029e+06
3.84774e+06
3.81532e+06
3.78304e+06
3.75089e+06
3.71889e+06
3.68702e+06
3.65529e+06
3.62369e+06
3.59223e+06
3.56091e+06
3.52973e+06
3.49868e+06
3.46777e+06
3.437e+06
3.40636e+06
3.37586e+06
3.3455e+06
3.31527e+06
3.28519e+06
3.25524e+06
3.22542e+06
3.19574e+06
3.1662e+06
3.1368e+06
3.10753e+06
3.07841e+06
3.04941e+06
3.02056e+06
2.99184e+06
2.96326e+06
2.93481e+06
2.9065e+06
2.87833e+06
2.8503e+06
2.8224e+06
2.79464e+06
2.76701e+06
2.73953e+06
2.71217e+06
2.68496e+06
2.65788e+06
2.63094e+06
2.60413e+06
2.57746e+06
2.55093e+06
2.52453e+06
2.49827e+06
2.47214e+06
2.44615e+06
2.42029e+06
2.39457e+06
2.36899e+06
2.34354e+06
2.31822e+06
2.29304e+06
2.26799e+06
2.24308e+06
2.2183e+06
2.19365e+06
2.16913e+06
2.14475e+06
2.1205e+06
2.09638e+06
2.07239e+06
2.04852e+06
2.02479e+06
2.00118e+06
1.9777e+06
1.95434e+06
1.93111e+06
1.908e+06
1.885e+06
1.86212e+06
1.83936e+06
1.8167e+06
1.79415e+06
1.77171e+06
1.74935e+06
1.72709e+06
1.70491e+06
1.6828e+06
1.66075e+06
1.63874e+06
1.61677e+06
1.5948e+06
1.57281e+06
1.55076e+06
1.52861e+06
1.5063e+06
1.48374e+06
1.46081e+06
1.43732e+06
1.41297e+06
1.38729e+06
1.35878e+06
1.3252e+06
8.16593e+06
8.06809e+06
7.98912e+06
7.92132e+06
7.85973e+06
7.80194e+06
7.74677e+06
7.69354e+06
7.6418e+06
7.59125e+06
7.54166e+06
7.49286e+06
7.44474e+06
7.3972e+06
7.35014e+06
7.30352e+06
7.25727e+06
7.21133e+06
7.16568e+06
7.12027e+06
7.07507e+06
7.03008e+06
6.98527e+06
6.94063e+06
6.89617e+06
6.85188e+06
6.80776e+06
6.76383e+06
6.7201e+06
6.67655e+06
6.6332e+06
6.59005e+06
6.54708e+06
6.5043e+06
6.46171e+06
6.41929e+06
6.37704e+06
6.33497e+06
6.29305e+06
6.25131e+06
6.20972e+06
6.1683e+06
6.12703e+06
6.08593e+06
6.04498e+06
6.00419e+06
5.96355e+06
5.92307e+06
5.88274e+06
5.84255e+06
5.80252e+06
5.76263e+06
5.72289e+06
5.6833e+06
5.64384e+06
5.60453e+06
5.56536e+06
5.52633e+06
5.48744e+06
5.44869e+06
5.41008e+06
5.37161e+06
5.33327e+06
5.29508e+06
5.25703e+06
5.21911e+06
5.18133e+06
5.14369e+06
5.10619e+06
5.06883e+06
5.03161e+06
4.99452e+06
4.95757e+06
4.92076e+06
4.88408e+06
4.84755e+06
4.81115e+06
4.77489e+06
4.73876e+06
4.70278e+06
4.66693e+06
4.63122e+06
4.59564e+06
4.56021e+06
4.52491e+06
4.48974e+06
4.45472e+06
4.41983e+06
4.38508e+06
4.35047e+06
4.31599e+06
4.28165e+06
4.24745e+06
4.21339e+06
4.17946e+06
4.14567e+06
4.11202e+06
4.0785e+06
4.04513e+06
4.01188e+06
3.97878e+06
3.94581e+06
3.91298e+06
3.88029e+06
3.84774e+06
3.81532e+06
3.78304e+06
3.75089e+06
3.71889e+06
3.68702e+06
3.65528e+06
3.62369e+06
3.59223e+06
3.56091e+06
3.52972e+06
3.49867e+06
3.46776e+06
3.43699e+06
3.40635e+06
3.37585e+06
3.34549e+06
3.31527e+06
3.28518e+06
3.25523e+06
3.22541e+06
3.19573e+06
3.16619e+06
3.13679e+06
3.10752e+06
3.07839e+06
3.04939e+06
3.02054e+06
2.99181e+06
2.96323e+06
2.93478e+06
2.90647e+06
2.8783e+06
2.85026e+06
2.82236e+06
2.79459e+06
2.76697e+06
2.73947e+06
2.71212e+06
2.6849e+06
2.65781e+06
2.63086e+06
2.60405e+06
2.57737e+06
2.55083e+06
2.52442e+06
2.49815e+06
2.47201e+06
2.44601e+06
2.42014e+06
2.39441e+06
2.36881e+06
2.34334e+06
2.318e+06
2.2928e+06
2.26773e+06
2.24279e+06
2.21799e+06
2.19331e+06
2.16876e+06
2.14435e+06
2.12006e+06
2.09589e+06
2.07186e+06
2.04794e+06
2.02416e+06
2.00049e+06
1.97695e+06
1.95352e+06
1.93021e+06
1.90701e+06
1.88392e+06
1.86095e+06
1.83807e+06
1.8153e+06
1.79262e+06
1.77003e+06
1.74752e+06
1.72508e+06
1.70271e+06
1.68039e+06
1.65811e+06
1.63585e+06
1.61359e+06
1.59131e+06
1.56896e+06
1.54652e+06
1.52391e+06
1.50108e+06
1.47791e+06
1.45427e+06
1.42991e+06
1.40445e+06
1.37738e+06
1.34702e+06
1.31068e+06
8.1925e+06
8.09403e+06
8.01213e+06
7.94116e+06
7.87696e+06
7.81703e+06
7.76008e+06
7.70535e+06
7.65232e+06
7.60065e+06
7.55008e+06
7.50042e+06
7.45154e+06
7.40331e+06
7.35564e+06
7.30847e+06
7.26172e+06
7.21534e+06
7.16929e+06
7.12352e+06
7.07801e+06
7.03272e+06
6.98766e+06
6.94279e+06
6.89813e+06
6.85366e+06
6.80938e+06
6.76531e+06
6.72144e+06
6.67778e+06
6.63432e+06
6.59107e+06
6.54802e+06
6.50516e+06
6.46249e+06
6.42001e+06
6.3777e+06
6.33557e+06
6.29361e+06
6.25181e+06
6.21019e+06
6.16872e+06
6.12742e+06
6.08628e+06
6.0453e+06
6.00448e+06
5.96381e+06
5.92331e+06
5.88295e+06
5.84275e+06
5.8027e+06
5.7628e+06
5.72304e+06
5.68343e+06
5.64396e+06
5.60464e+06
5.56546e+06
5.52642e+06
5.48752e+06
5.44876e+06
5.41014e+06
5.37167e+06
5.33333e+06
5.29513e+06
5.25707e+06
5.21915e+06
5.18137e+06
5.14373e+06
5.10622e+06
5.06886e+06
5.03163e+06
4.99454e+06
4.95759e+06
4.92078e+06
4.8841e+06
4.84756e+06
4.81116e+06
4.7749e+06
4.73877e+06
4.70279e+06
4.66694e+06
4.63123e+06
4.59565e+06
4.56021e+06
4.52491e+06
4.48975e+06
4.45472e+06
4.41984e+06
4.38509e+06
4.35047e+06
4.316e+06
4.28166e+06
4.24746e+06
4.21339e+06
4.17946e+06
4.14567e+06
4.11202e+06
4.07851e+06
4.04513e+06
4.01189e+06
3.97878e+06
3.94581e+06
3.91298e+06
3.88029e+06
3.84774e+06
3.81532e+06
3.78303e+06
3.75089e+06
3.71888e+06
3.68701e+06
3.65528e+06
3.62368e+06
3.59222e+06
3.5609e+06
3.52972e+06
3.49867e+06
3.46776e+06
3.43698e+06
3.40635e+06
3.37585e+06
3.34548e+06
3.31526e+06
3.28517e+06
3.25522e+06
3.2254e+06
3.19572e+06
3.16618e+06
3.13677e+06
3.1075e+06
3.07837e+06
3.04937e+06
3.02051e+06
2.99179e+06
2.96321e+06
2.93476e+06
2.90644e+06
2.87827e+06
2.85022e+06
2.82232e+06
2.79455e+06
2.76692e+06
2.73942e+06
2.71206e+06
2.68483e+06
2.65774e+06
2.63079e+06
2.60397e+06
2.57728e+06
2.55073e+06
2.52432e+06
2.49803e+06
2.47189e+06
2.44587e+06
2.41999e+06
2.39424e+06
2.36862e+06
2.34314e+06
2.31779e+06
2.29256e+06
2.26747e+06
2.24251e+06
2.21768e+06
2.19297e+06
2.16839e+06
2.14394e+06
2.11961e+06
2.09541e+06
2.07133e+06
2.04737e+06
2.02353e+06
1.9998e+06
1.97619e+06
1.9527e+06
1.92931e+06
1.90603e+06
1.88285e+06
1.85978e+06
1.8368e+06
1.8139e+06
1.79109e+06
1.76836e+06
1.7457e+06
1.72309e+06
1.70053e+06
1.67801e+06
1.6555e+06
1.63299e+06
1.61045e+06
1.58786e+06
1.56517e+06
1.54234e+06
1.5193e+06
1.49597e+06
1.47222e+06
1.4479e+06
1.42277e+06
1.39631e+06
1.36815e+06
1.33648e+06
1.2992e+06
8.21514e+06
8.11703e+06
8.03338e+06
7.95999e+06
7.89355e+06
7.83168e+06
7.77308e+06
7.71692e+06
7.66266e+06
7.6099e+06
7.55838e+06
7.50788e+06
7.45824e+06
7.40935e+06
7.36108e+06
7.31337e+06
7.26613e+06
7.21931e+06
7.17286e+06
7.12674e+06
7.08091e+06
7.03535e+06
6.99003e+06
6.94494e+06
6.90007e+06
6.85542e+06
6.81098e+06
6.76677e+06
6.72277e+06
6.679e+06
6.63544e+06
6.59209e+06
6.54895e+06
6.50602e+06
6.46328e+06
6.42073e+06
6.37836e+06
6.33617e+06
6.29416e+06
6.25232e+06
6.21065e+06
6.16914e+06
6.1278e+06
6.08663e+06
6.04562e+06
6.00477e+06
5.96408e+06
5.92354e+06
5.88317e+06
5.84295e+06
5.80287e+06
5.76295e+06
5.72318e+06
5.68356e+06
5.64408e+06
5.60474e+06
5.56555e+06
5.5265e+06
5.4876e+06
5.44883e+06
5.41021e+06
5.37173e+06
5.33338e+06
5.29518e+06
5.25712e+06
5.21919e+06
5.18141e+06
5.14376e+06
5.10625e+06
5.06888e+06
5.03165e+06
4.99456e+06
4.95761e+06
4.92079e+06
4.88412e+06
4.84758e+06
4.81118e+06
4.77491e+06
4.73879e+06
4.7028e+06
4.66695e+06
4.63123e+06
4.59566e+06
4.56022e+06
4.52492e+06
4.48975e+06
4.45473e+06
4.41984e+06
4.38509e+06
4.35048e+06
4.316e+06
4.28166e+06
4.24746e+06
4.21339e+06
4.17947e+06
4.14568e+06
4.11202e+06
4.07851e+06
4.04513e+06
4.01189e+06
3.97878e+06
3.94581e+06
3.91298e+06
3.88029e+06
3.84773e+06
3.81532e+06
3.78303e+06
3.75089e+06
3.71888e+06
3.68701e+06
3.65528e+06
3.62368e+06
3.59222e+06
3.5609e+06
3.52971e+06
3.49867e+06
3.46775e+06
3.43698e+06
3.40634e+06
3.37584e+06
3.34548e+06
3.31525e+06
3.28516e+06
3.25521e+06
3.22539e+06
3.19571e+06
3.16616e+06
3.13676e+06
3.10749e+06
3.07835e+06
3.04935e+06
3.02049e+06
2.99177e+06
2.96318e+06
2.93473e+06
2.90641e+06
2.87823e+06
2.85019e+06
2.82228e+06
2.79451e+06
2.76687e+06
2.73937e+06
2.712e+06
2.68477e+06
2.65768e+06
2.63071e+06
2.60389e+06
2.57719e+06
2.55063e+06
2.52421e+06
2.49792e+06
2.47176e+06
2.44573e+06
2.41984e+06
2.39407e+06
2.36844e+06
2.34294e+06
2.31757e+06
2.29233e+06
2.26721e+06
2.24223e+06
2.21737e+06
2.19263e+06
2.16802e+06
2.14354e+06
2.11917e+06
2.09493e+06
2.0708e+06
2.0468e+06
2.0229e+06
1.99912e+06
1.97545e+06
1.95188e+06
1.92842e+06
1.90506e+06
1.88179e+06
1.85862e+06
1.83553e+06
1.81252e+06
1.78958e+06
1.76671e+06
1.74389e+06
1.72112e+06
1.69838e+06
1.67565e+06
1.65292e+06
1.63016e+06
1.60735e+06
1.58446e+06
1.56144e+06
1.53823e+06
1.51477e+06
1.49097e+06
1.4667e+06
1.44173e+06
1.41594e+06
1.3886e+06
1.35961e+06
1.32713e+06
1.28977e+06
8.23478e+06
8.13763e+06
8.05297e+06
7.97778e+06
7.90944e+06
7.84585e+06
7.78572e+06
7.72822e+06
7.67278e+06
7.61899e+06
7.56654e+06
7.51523e+06
7.46486e+06
7.41531e+06
7.36645e+06
7.3182e+06
7.27048e+06
7.22323e+06
7.1764e+06
7.12992e+06
7.08378e+06
7.03794e+06
6.99236e+06
6.94705e+06
6.90198e+06
6.85716e+06
6.81257e+06
6.76821e+06
6.72409e+06
6.6802e+06
6.63654e+06
6.59311e+06
6.54989e+06
6.50687e+06
6.46406e+06
6.42145e+06
6.37902e+06
6.33678e+06
6.29471e+06
6.25282e+06
6.21111e+06
6.16956e+06
6.12819e+06
6.08698e+06
6.04593e+06
6.00505e+06
5.96434e+06
5.92378e+06
5.88338e+06
5.84314e+06
5.80305e+06
5.76311e+06
5.72333e+06
5.68369e+06
5.6442e+06
5.60485e+06
5.56565e+06
5.52659e+06
5.48768e+06
5.44891e+06
5.41027e+06
5.37178e+06
5.33344e+06
5.29523e+06
5.25716e+06
5.21923e+06
5.18144e+06
5.14379e+06
5.10628e+06
5.06891e+06
5.03168e+06
4.99458e+06
4.95763e+06
4.92081e+06
4.88413e+06
4.84759e+06
4.81119e+06
4.77492e+06
4.7388e+06
4.70281e+06
4.66696e+06
4.63124e+06
4.59566e+06
4.56023e+06
4.52492e+06
4.48976e+06
4.45473e+06
4.41984e+06
4.38509e+06
4.35048e+06
4.316e+06
4.28166e+06
4.24746e+06
4.21339e+06
4.17947e+06
4.14568e+06
4.11202e+06
4.07851e+06
4.04513e+06
4.01189e+06
3.97878e+06
3.94581e+06
3.91298e+06
3.88029e+06
3.84773e+06
3.81531e+06
3.78303e+06
3.75089e+06
3.71888e+06
3.68701e+06
3.65527e+06
3.62368e+06
3.59222e+06
3.5609e+06
3.52971e+06
3.49866e+06
3.46775e+06
3.43697e+06
3.40634e+06
3.37583e+06
3.34547e+06
3.31524e+06
3.28515e+06
3.2552e+06
3.22538e+06
3.1957e+06
3.16615e+06
3.13674e+06
3.10747e+06
3.07834e+06
3.04933e+06
3.02047e+06
2.99175e+06
2.96316e+06
2.9347e+06
2.90638e+06
2.8782e+06
2.85015e+06
2.82224e+06
2.79447e+06
2.76682e+06
2.73932e+06
2.71195e+06
2.68471e+06
2.65761e+06
2.63064e+06
2.60381e+06
2.57711e+06
2.55054e+06
2.52411e+06
2.4978e+06
2.47163e+06
2.44559e+06
2.41969e+06
2.39391e+06
2.36826e+06
2.34274e+06
2.31736e+06
2.29209e+06
2.26696e+06
2.24195e+06
2.21706e+06
2.1923e+06
2.16766e+06
2.14314e+06
2.11874e+06
2.09445e+06
2.07028e+06
2.04623e+06
2.02228e+06
1.99844e+06
1.97471e+06
1.95107e+06
1.92754e+06
1.90409e+06
1.88074e+06
1.85747e+06
1.83427e+06
1.81115e+06
1.78808e+06
1.76507e+06
1.74211e+06
1.71917e+06
1.69624e+06
1.67332e+06
1.65037e+06
1.62738e+06
1.60431e+06
1.58112e+06
1.55778e+06
1.53421e+06
1.51036e+06
1.48609e+06
1.46135e+06
1.43577e+06
1.40943e+06
1.38135e+06
1.35173e+06
1.31884e+06
1.28177e+06
8.25208e+06
8.15617e+06
8.07103e+06
7.99452e+06
7.92461e+06
7.85951e+06
7.79799e+06
7.73924e+06
7.68268e+06
7.62789e+06
7.57456e+06
7.52245e+06
7.47137e+06
7.42117e+06
7.37174e+06
7.32297e+06
7.27478e+06
7.2271e+06
7.17988e+06
7.13306e+06
7.08661e+06
7.04049e+06
6.99467e+06
6.94914e+06
6.90388e+06
6.85888e+06
6.81414e+06
6.76965e+06
6.7254e+06
6.6814e+06
6.63764e+06
6.59412e+06
6.55081e+06
6.50772e+06
6.46484e+06
6.42216e+06
6.37967e+06
6.33737e+06
6.29526e+06
6.25333e+06
6.21157e+06
6.16998e+06
6.12857e+06
6.08733e+06
6.04625e+06
6.00534e+06
5.9646e+06
5.92402e+06
5.88359e+06
5.84333e+06
5.80322e+06
5.76327e+06
5.72347e+06
5.68382e+06
5.64431e+06
5.60496e+06
5.56575e+06
5.52668e+06
5.48776e+06
5.44898e+06
5.41034e+06
5.37184e+06
5.33349e+06
5.29528e+06
5.2572e+06
5.21927e+06
5.18148e+06
5.14382e+06
5.10631e+06
5.06894e+06
5.0317e+06
4.99461e+06
4.95765e+06
4.92083e+06
4.88415e+06
4.84761e+06
4.8112e+06
4.77494e+06
4.73881e+06
4.70282e+06
4.66696e+06
4.63125e+06
4.59567e+06
4.56023e+06
4.52493e+06
4.48977e+06
4.45474e+06
4.41985e+06
4.3851e+06
4.35048e+06
4.316e+06
4.28166e+06
4.24746e+06
4.2134e+06
4.17947e+06
4.14568e+06
4.11202e+06
4.07851e+06
4.04513e+06
4.01189e+06
3.97878e+06
3.94581e+06
3.91298e+06
3.88029e+06
3.84773e+06
3.81531e+06
3.78303e+06
3.75089e+06
3.71888e+06
3.68701e+06
3.65527e+06
3.62367e+06
3.59221e+06
3.56089e+06
3.52971e+06
3.49866e+06
3.46774e+06
3.43697e+06
3.40633e+06
3.37583e+06
3.34546e+06
3.31523e+06
3.28514e+06
3.25519e+06
3.22537e+06
3.19569e+06
3.16614e+06
3.13673e+06
3.10745e+06
3.07832e+06
3.04932e+06
3.02045e+06
2.99172e+06
2.96313e+06
2.93467e+06
2.90635e+06
2.87817e+06
2.85012e+06
2.8222e+06
2.79442e+06
2.76678e+06
2.73927e+06
2.71189e+06
2.68465e+06
2.65754e+06
2.63057e+06
2.60373e+06
2.57702e+06
2.55044e+06
2.524e+06
2.49769e+06
2.47151e+06
2.44546e+06
2.41954e+06
2.39375e+06
2.36809e+06
2.34255e+06
2.31714e+06
2.29186e+06
2.26671e+06
2.24167e+06
2.21676e+06
2.19197e+06
2.1673e+06
2.14274e+06
2.11831e+06
2.09398e+06
2.06977e+06
2.04566e+06
2.02167e+06
1.99777e+06
1.97397e+06
1.95027e+06
1.92666e+06
1.90314e+06
1.8797e+06
1.85633e+06
1.83303e+06
1.80979e+06
1.78661e+06
1.76346e+06
1.74034e+06
1.71724e+06
1.69414e+06
1.67102e+06
1.64786e+06
1.62463e+06
1.60131e+06
1.57784e+06
1.55419e+06
1.53027e+06
1.50607e+06
1.48135e+06
1.4562e+06
1.43006e+06
1.40324e+06
1.37457e+06
1.34448e+06
1.31146e+06
1.27483e+06
8.26757e+06
8.17297e+06
8.08769e+06
8.01023e+06
7.93905e+06
7.87262e+06
7.80985e+06
7.74994e+06
7.69233e+06
7.6366e+06
7.58242e+06
7.52954e+06
7.47776e+06
7.42694e+06
7.37694e+06
7.32766e+06
7.27901e+06
7.23092e+06
7.18332e+06
7.13616e+06
7.08941e+06
7.04301e+06
6.99695e+06
6.9512e+06
6.90575e+06
6.86058e+06
6.81569e+06
6.77107e+06
6.7267e+06
6.68259e+06
6.63873e+06
6.59511e+06
6.55173e+06
6.50856e+06
6.46561e+06
6.42286e+06
6.38032e+06
6.33797e+06
6.2958e+06
6.25382e+06
6.21203e+06
6.1704e+06
6.12895e+06
6.08767e+06
6.04657e+06
6.00563e+06
5.96486e+06
5.92425e+06
5.88381e+06
5.84352e+06
5.8034e+06
5.76343e+06
5.72361e+06
5.68394e+06
5.64443e+06
5.60506e+06
5.56584e+06
5.52676e+06
5.48783e+06
5.44905e+06
5.4104e+06
5.3719e+06
5.33354e+06
5.29532e+06
5.25725e+06
5.21931e+06
5.18151e+06
5.14386e+06
5.10634e+06
5.06896e+06
5.03173e+06
4.99463e+06
4.95767e+06
4.92085e+06
4.88417e+06
4.84762e+06
4.81122e+06
4.77495e+06
4.73882e+06
4.70283e+06
4.66697e+06
4.63126e+06
4.59568e+06
4.56024e+06
4.52494e+06
4.48977e+06
4.45474e+06
4.41985e+06
4.3851e+06
4.35049e+06
4.31601e+06
4.28167e+06
4.24746e+06
4.2134e+06
4.17947e+06
4.14568e+06
4.11202e+06
4.07851e+06
4.04513e+06
4.01189e+06
3.97878e+06
3.94581e+06
3.91298e+06
3.88029e+06
3.84773e+06
3.81531e+06
3.78303e+06
3.75088e+06
3.71888e+06
3.687e+06
3.65527e+06
3.62367e+06
3.59221e+06
3.56089e+06
3.5297e+06
3.49865e+06
3.46774e+06
3.43696e+06
3.40632e+06
3.37582e+06
3.34545e+06
3.31523e+06
3.28513e+06
3.25518e+06
3.22536e+06
3.19567e+06
3.16613e+06
3.13672e+06
3.10744e+06
3.0783e+06
3.0493e+06
3.02043e+06
2.9917e+06
2.96311e+06
2.93465e+06
2.90633e+06
2.87814e+06
2.85009e+06
2.82216e+06
2.79438e+06
2.76673e+06
2.73922e+06
2.71184e+06
2.68459e+06
2.65748e+06
2.6305e+06
2.60365e+06
2.57694e+06
2.55035e+06
2.5239e+06
2.49757e+06
2.47139e+06
2.44532e+06
2.41939e+06
2.39359e+06
2.36791e+06
2.34236e+06
2.31694e+06
2.29163e+06
2.26646e+06
2.24139e+06
2.21646e+06
2.19164e+06
2.16694e+06
2.14235e+06
2.11788e+06
2.09351e+06
2.06926e+06
2.04511e+06
2.02106e+06
1.99711e+06
1.97325e+06
1.94948e+06
1.9258e+06
1.9022e+06
1.87867e+06
1.85521e+06
1.83181e+06
1.80845e+06
1.78515e+06
1.76187e+06
1.73861e+06
1.71534e+06
1.69208e+06
1.66876e+06
1.6454e+06
1.62194e+06
1.59838e+06
1.57462e+06
1.5507e+06
1.52643e+06
1.50191e+06
1.47675e+06
1.45125e+06
1.4246e+06
1.39737e+06
1.36827e+06
1.3378e+06
1.30482e+06
1.26865e+06
8.28159e+06
8.18828e+06
8.10307e+06
8.02495e+06
7.95274e+06
7.88518e+06
7.82128e+06
7.76031e+06
7.70172e+06
7.64509e+06
7.59009e+06
7.53647e+06
7.48403e+06
7.4326e+06
7.38205e+06
7.33227e+06
7.28317e+06
7.23467e+06
7.18671e+06
7.13922e+06
7.09216e+06
7.0455e+06
6.9992e+06
6.95324e+06
6.9076e+06
6.86227e+06
6.81723e+06
6.77247e+06
6.72799e+06
6.68377e+06
6.63981e+06
6.5961e+06
6.55263e+06
6.50939e+06
6.46637e+06
6.42356e+06
6.38096e+06
6.33856e+06
6.29634e+06
6.25432e+06
6.21248e+06
6.17082e+06
6.12933e+06
6.08802e+06
6.04688e+06
6.00591e+06