/*--------------------------------*- C++ -*----------------------------------*\
| =========                 |                                                 |
| \\      /  F ield         | OpenFOAM: The Open Source CFD Toolbox           |
|  \\    /   O peration     | Version:  2.4.0                                 |
|   \\  /    A nd           | Web:      www.OpenFOAM.org                      |
|    \\/     M anipulation  |                                                 |
\*---------------------------------------------------------------------------*/
FoamFile
{
    version     2.0;
    format      ascii;
    class       volScalarField;
    location    "0.116";
    object      pMean;
}
// * * * * * * * * * * * * * * * * * * * * * * * * * * * * * * * * * * * * * //

dimensions      [0 2 -2 0 0 0 0];

internalField   nonuniform List<scalar> 
17600
(
116.272
100.008
95.087
93.5427
92.1821
90.8052
89.4941
88.2398
87.0289
85.8124
84.6215
83.4149
82.2493
81.0632
79.9267
78.73
77.5533
76.2557
74.7562
72.4032
114.378
100.057
95.1275
93.5521
92.1853
90.8058
89.4943
88.24
87.0291
85.8125
84.6215
83.4151
82.2494
81.0638
79.9267
78.7318
77.5539
76.2605
74.7659
72.7377
112.976
100.309
95.2692
93.5896
92.199
90.8101
89.4963
88.2414
87.0302
85.8129
84.6218
83.4148
82.2496
81.0634
79.9274
78.7308
77.5569
76.2601
74.825
72.9083
112.007
100.645
95.4851
93.6532
92.2279
90.8253
89.5048
88.2474
87.0342
85.8155
84.6229
83.4163
82.2498
81.0665
79.9279
78.7389
77.5576
76.2819
74.8731
73.0996
111.19
100.974
95.7434
93.7328
92.2695
90.8542
89.524
88.2613
87.0439
85.8221
84.6267
83.4179
82.2518
81.0671
79.9317
78.7389
77.5701
76.2933
74.9514
73.3
110.421
101.26
96.0144
93.8126
92.3105
90.8909
89.5528
88.284
87.0604
85.8343
84.6333
83.4245
82.2541
81.075
79.934
78.7517
77.5769
76.3192
75.0342
73.5193
109.698
101.502
96.2842
93.8872
92.3419
90.925
89.5856
88.3121
87.082
85.8508
84.6437
83.4318
82.2598
81.0812
79.9403
78.7624
77.5867
76.354
75.1042
73.7743
109.03
101.702
96.5464
93.9586
92.3631
90.9516
89.6178
88.3424
87.1055
85.8692
84.6551
83.4415
82.2658
81.091
79.9493
78.7763
77.6072
76.3858
75.1845
74.0792
108.423
101.864
96.7932
94.0323
92.376
90.97
89.6469
88.3725
87.1295
85.8878
84.6664
83.4517
82.2712
81.1022
79.9545
78.7958
77.6186
76.4332
75.245
74.3851
107.879
101.989
97.0217
94.1101
92.3826
90.9807
89.672
88.4014
87.1528
85.9052
84.6771
83.4603
82.278
81.1119
79.9656
78.8121
77.6422
76.4788
75.3318
74.7162
107.395
102.08
97.2312
94.1926
92.3842
90.9847
89.693
88.4288
87.1751
85.9219
84.6864
83.4689
82.2826
81.1223
79.9733
78.8308
77.668
76.527
75.4464
74.9998
106.97
102.141
97.4214
94.2792
92.382
90.9832
89.7101
88.4544
87.1967
85.9373
84.6949
83.4761
82.2888
81.1317
79.9848
78.8492
77.6962
76.5827
75.5654
75.2525
106.6
102.178
97.5921
94.3683
92.3774
90.9771
89.7239
88.4781
87.217
85.9514
84.7026
83.4825
82.2942
81.1409
79.9969
78.8683
77.7306
76.6406
75.6881
75.4846
106.283
102.197
97.7424
94.4552
92.3723
90.9683
89.7347
88.4993
87.2361
85.9642
84.7094
83.4884
82.3003
81.1502
80.01
78.8887
77.7666
76.7016
75.8107
75.6994
106.016
102.206
97.8714
94.5332
92.3684
90.9582
89.7432
88.5181
87.2532
85.9755
84.7156
83.4932
82.3065
81.1595
80.0244
78.9107
77.8045
76.7648
75.9308
75.8996
105.796
102.209
97.978
94.6001
92.3662
90.9481
89.7496
88.534
87.2683
85.9852
84.7211
83.498
82.3127
81.1688
80.0393
78.9334
77.8441
76.8301
76.0473
76.0869
105.623
102.209
98.0621
94.6549
92.3658
90.9387
89.7542
88.547
87.2809
85.9932
84.7259
83.5021
82.3192
81.1786
80.055
78.9577
77.8848
76.8962
76.1596
76.2626
105.494
102.208
98.1239
94.697
92.3665
90.931
89.7574
88.5569
87.2908
85.9997
84.7302
83.5063
82.3257
81.1886
80.0713
78.9832
77.9267
76.9628
76.2677
76.4261
105.409
102.206
98.1646
94.7256
92.3678
90.9254
89.7595
88.5637
87.2981
86.0045
84.7342
83.5102
82.3327
81.1986
80.0885
79.0089
77.9697
77.0294
76.3725
76.5776
105.366
102.204
98.1846
94.7402
92.3687
90.9225
89.7606
88.5674
87.3023
86.0079
84.7372
83.5145
82.3392
81.2094
80.1051
79.0365
78.0118
77.0969
76.4744
76.7147
105.367
102.204
98.1845
94.7404
92.3688
90.9228
89.7608
88.5679
87.3033
86.0096
84.7398
83.5186
82.3461
81.2202
80.1232
79.0635
78.056
77.1606
76.5825
76.8345
105.409
102.205
98.1644
94.7259
92.3683
90.926
89.7604
88.565
87.3016
86.0093
84.7421
83.5221
82.3535
81.2303
80.142
79.0904
78.1009
77.222
76.6862
76.9693
105.495
102.207
98.1237
94.6977
92.3673
90.9322
89.7589
88.5593
87.2964
86.0082
84.7431
83.527
82.3596
81.2426
80.1589
79.1208
78.1414
77.2891
76.757
77.0754
105.624
102.209
98.0619
94.6558
92.367
90.9403
89.7565
88.5503
87.2886
86.0048
84.744
83.5308
82.3666
81.2538
80.1773
79.15
78.1836
77.3522
76.8271
77.2009
105.798
102.209
97.9779
94.6013
92.3678
90.9499
89.7526
88.5383
87.278
86.0001
84.7442
83.5347
82.3737
81.2649
80.1964
79.179
78.2273
77.4118
76.9023
77.3059
106.018
102.205
97.8714
94.5347
92.3703
90.9602
89.747
88.5234
87.2647
85.9939
84.7434
83.5386
82.3802
81.2766
80.2149
79.209
78.2703
77.4722
76.9735
77.3948
106.285
102.196
97.7424
94.4567
92.3747
90.9704
89.7396
88.5057
87.2493
85.986
84.7422
83.5417
82.387
81.2879
80.234
79.2391
78.3141
77.5332
77.0405
77.4682
106.603
102.177
97.5921
94.3701
92.3803
90.9795
89.7297
88.4856
87.2321
85.9766
84.7403
83.5441
82.3937
81.2991
80.2532
79.2694
78.3587
77.595
77.1045
77.5239
106.973
102.14
97.4213
94.2808
92.3855
90.9857
89.7169
88.4631
87.2134
85.9657
84.7375
83.5456
82.4005
81.3097
80.2725
79.2995
78.4044
77.6579
77.1686
77.5598
107.398
102.079
97.2311
94.1941
92.3882
90.9876
89.7005
88.4385
87.1936
85.9535
84.7336
83.5461
82.407
81.3196
80.2921
79.3289
78.4514
77.7217
77.2369
77.5733
107.882
101.988
97.0216
94.1116
92.3869
90.984
89.6803
88.4123
87.1727
85.9401
84.7286
83.5456
82.4132
81.3287
80.3116
79.3572
78.4996
77.7856
77.3136
77.5635
108.427
101.862
96.7931
94.0338
92.3805
90.9739
89.6559
88.3846
87.151
85.9255
84.7223
83.5441
82.4187
81.3367
80.3307
79.3836
78.5486
77.8477
77.4005
77.5333
109.034
101.7
96.5461
93.9604
92.3677
90.9561
89.6276
88.3558
87.1286
85.9101
84.715
83.5418
82.4233
81.3438
80.3483
79.408
78.595
77.9061
77.4872
77.5007
109.702
101.5
96.284
93.8891
92.3467
90.93
89.5961
88.3268
87.1064
85.8946
84.7072
83.5392
82.4268
81.3502
80.3633
79.43
78.6352
77.9589
77.5607
77.4646
110.425
101.259
96.0145
93.8146
92.3155
90.8962
89.5641
88.2998
87.0861
85.8805
84.7004
83.537
82.4298
81.3559
80.3758
79.4486
78.668
78.002
77.6186
77.4522
111.193
100.972
95.7436
93.7349
92.2745
90.8598
89.5358
88.278
87.0707
85.8704
84.6961
83.5362
82.4329
81.361
80.3857
79.4634
78.6924
78.0349
77.6566
77.4438
112.01
100.644
95.4854
93.6553
92.2331
90.8312
89.517
88.2647
87.0618
85.865
84.6944
83.5367
82.4356
81.3651
80.3927
79.4738
78.7084
78.0574
77.6767
77.4452
112.98
100.308
95.2696
93.5918
92.2042
90.8162
89.5088
88.2591
87.0582
85.8632
84.6943
83.5376
82.4375
81.3679
80.3968
79.4799
78.7172
78.07
77.6864
77.4551
114.382
100.056
95.1279
93.5542
92.1905
90.8119
89.5068
88.2577
87.0573
85.8629
84.6945
83.5383
82.4383
81.369
80.3984
79.4823
78.7204
78.0748
77.6889
77.4746
116.276
100.007
95.0875
93.5449
92.1873
90.8115
89.5066
88.2575
87.0572
85.8629
84.6945
83.5384
82.4383
81.3691
80.3985
79.4824
78.7207
78.075
77.688
77.5168
70.3972
70.0124
68.9962
67.6523
66.2452
64.9385
63.7823
62.8062
62.2045
61.9547
62.0258
62.3214
62.7664
63.1285
63.2867
63.1944
62.8313
62.3742
61.9184
61.5641
61.3634
61.2709
61.328
61.5397
61.8944
62.399
63.0066
63.676
64.3652
65.0207
65.613
66.1328
66.6067
67.0947
67.6171
68.1515
68.7283
69.3583
70.0267
70.7006
71.3394
71.9206
72.4518
72.9508
73.4237
73.8911
74.3948
74.9095
75.3474
75.7012
76.0077
76.2586
76.4164
76.4598
76.4197
76.327
76.1934
76.0258
75.8461
75.6737
75.5166
75.3704
75.2273
75.1175
75.0397
74.9848
74.9538
74.9468
74.9679
75.0263
75.13
75.2852
75.4952
75.758
76.0727
76.4396
76.8497
77.2916
77.7472
78.207
78.6632
79.1062
79.5328
79.9314
80.3075
80.6606
80.9832
81.2733
81.5275
81.7473
81.9306
82.0693
82.1759
82.251
82.2971
82.3083
82.292
82.253
82.2027
82.1329
82.0647
81.9965
81.9418
81.8902
81.8521
81.8277
81.8228
81.8301
81.8534
81.901
81.9766
82.0891
82.2331
82.411
82.6214
82.8672
83.1464
83.4544
83.7806
84.1192
84.4548
84.7779
85.071
85.3312
85.5531
85.7447
85.9045
86.0405
86.1535
86.2498
86.3266
86.3865
86.4246
86.4482
86.4537
86.4489
86.4325
86.4062
86.3754
86.3351
86.2961
86.2444
86.1989
86.1419
86.0932
86.0323
85.9805
85.9223
85.8712
85.8231
85.7838
85.7593
85.7519
85.7635
85.7871
85.8182
85.8512
85.8775
85.8905
85.8826
85.8532
85.7999
85.7285
85.6418
85.5521
85.4585
85.3764
85.3029
85.2565
85.2273
85.233
85.2543
85.3184
85.3838
85.488
85.5789
85.6794
85.7441
85.7721
85.7444
85.6661
85.5305
85.3451
85.1048
84.8174
84.4776
84.0873
83.6423
83.1363
82.5567
81.8898
81.1111
80.1721
79.0188
77.4852
75.5244
72.5678
67.8468
62.0157
35.7275
70.9427
70.333
69.4099
68.2132
66.9264
65.7233
64.6815
63.816
63.2811
63.0878
63.1814
63.4638
63.8536
64.1767
64.3201
64.2328
63.8835
63.4138
62.9425
62.5473
62.31
62.2045
62.2532
62.4605
62.8128
63.3076
63.9023
64.5545
65.2227
65.8716
66.4714
66.9974
67.4675
67.9446
68.452
68.958
69.4972
70.0861
70.7051
71.3301
71.9271
72.4625
72.9431
73.3859
73.7938
74.182
74.6105
75.0716
75.4739
75.7878
76.0453
76.2483
76.3625
76.3673
76.2866
76.148
75.9635
75.7435
75.5123
75.2898
75.0898
74.9042
74.7206
74.5762
74.4676
74.3874
74.3375
74.318
74.3327
74.3898
74.4982
74.6632
74.8883
75.1726
75.5139
75.9121
76.357
76.8388
77.3383
77.844
78.3492
78.8435
79.3234
79.776
80.2022
80.6021
80.9674
81.2931
81.5768
81.822
82.0243
82.1778
82.2961
82.3795
82.4315
82.4461
82.4332
82.3944
82.3407
82.2641
82.1871
82.1072
82.0384
81.9721
81.9217
81.8866
81.8724
81.8713
81.8883
81.9278
81.997
82.1008
82.2378
82.4049
82.6067
82.8424
83.1143
83.4123
83.7302
84.0577
84.3848
84.698
84.9848
85.2388
85.458
85.6474
85.8079
85.9451
86.0616
86.1611
86.2434
86.31
86.3574
86.3916
86.4089
86.4149
86.4077
86.3891
86.3643
86.3289
86.2948
86.2463
86.2046
86.149
86.1034
86.0432
85.9965
85.9381
85.8906
85.843
85.8083
85.7867
85.7854
85.8023
85.834
85.8714
85.9123
85.9442
85.9626
85.9578
85.9289
85.8735
85.7967
85.7023
85.6013
85.495
85.3988
85.3099
85.2471
85.1994
85.1904
85.1923
85.2454
85.2933
85.3842
85.4581
85.5428
85.5878
85.5995
85.5499
85.4517
85.2926
85.0841
84.8189
84.503
84.1313
83.7039
83.2134
82.6541
82.0107
81.2618
80.3861
79.3088
78.0063
76.225
73.8817
70.7034
64.3848
58.329
28.618
71.458
70.7691
69.8239
68.6918
67.4993
66.3891
65.4442
64.6859
64.218
64.065
64.1724
64.4451
64.7862
65.0684
65.1916
65.112
64.7979
64.351
63.8939
63.4852
63.2346
63.1286
63.1725
63.3761
63.721
64.2019
64.7807
65.4198
66.0739
66.7183
67.3231
67.855
68.3258
68.7944
69.2866
69.7705
70.2766
70.829
71.4036
71.9757
72.523
73.0101
73.4402
73.8276
74.1746
74.4894
74.8416
75.2473
75.6147
75.8946
76.1107
76.2713
76.3475
76.3204
76.206
76.0264
75.794
75.5221
75.239
74.9667
74.7237
74.4958
74.2715
74.0922
73.9533
73.8467
73.7769
73.7442
73.7518
73.8077
73.9197
74.0925
74.331
74.6367
75.0062
75.4369
75.9169
76.4373
76.9805
77.5326
78.0872
78.6328
79.1655
79.6725
80.1502
80.597
81.0043
81.3654
81.6774
81.9455
82.1643
82.331
82.46
82.5494
82.6056
82.6219
82.6119
82.573
82.5167
82.4348
82.3514
82.2608
82.1791
82.098
82.0367
81.99
81.9664
81.956
81.9676
81.9986
82.0614
82.1553
82.2851
82.4404
82.6332
82.857
83.1197
83.4046
83.712
84.0257
84.3427
84.6438
84.9233
85.1691
85.3851
85.5704
85.7309
85.8676
85.9874
86.0891
86.1765
86.2487
86.305
86.3493
86.3782
86.3956
86.3983
86.3888
86.3703
86.3405
86.3103
86.2653
86.2267
86.1728
86.128
86.0681
86.0244
85.9667
85.922
85.8754
85.8444
85.8273
85.8309
85.855
85.8937
85.9398
85.9873
86.027
86.0502
86.0498
86.0221
85.9659
85.8856
85.7831
85.6736
85.5539
85.4452
85.3391
85.2621
85.193
85.1715
85.1511
85.1922
85.2201
85.2948
85.35
85.4145
85.4394
85.4306
85.361
85.2406
85.058
84.8237
84.53
84.1866
83.781
83.3175
82.7821
82.1666
81.4618
80.6306
79.6679
78.4487
76.9605
75.0163
72.1365
69.1121
60.9464
54.8164
26.9304
71.8561
71.196
70.2795
69.1542
68.0081
66.9786
66.1335
65.4861
65.0921
64.9761
65.0869
65.3377
65.6294
65.8668
65.9665
65.8983
65.6198
65.2173
64.7961
64.4119
64.1664
64.0636
64.1
64.2961
64.6322
65.0971
65.6566
66.2779
66.9162
67.5499
68.1545
68.6924
69.1672
69.6306
70.1095
70.5796
71.0605
71.5784
72.1094
72.6295
73.122
73.5596
73.9398
74.2751
74.5662
74.8157
75.094
75.4392
75.7693
76.0187
76.2028
76.3286
76.3737
76.3207
76.1783
75.9603
75.682
75.3606
75.027
74.7065
74.4204
74.1476
73.8831
73.6712
73.502
73.3684
73.2768
73.2302
73.2303
73.2848
73.4005
73.58
73.8304
74.1564
74.5542
75.0183
75.5341
76.0926
76.6788
77.2771
77.8807
78.4768
79.0607
79.6218
80.1518
80.6444
81.0928
81.4885
81.8278
82.1164
82.3495
82.5278
82.6663
82.7593
82.818
82.8343
82.8266
82.7868
82.7288
82.6426
82.5545
82.454
82.3612
82.2652
82.1939
82.1356
82.1021
82.0817
82.0886
82.1115
82.1682
82.2513
82.3737
82.517
82.7009
82.91
83.1622
83.431
83.7263
84.0232
84.3291
84.6153
84.8869
85.1224
85.3353
85.5146
85.6758
85.8101
85.9338
86.0357
86.1295
86.2053
86.2711
86.3232
86.3646
86.392
86.4057
86.4053
86.3942
86.3697
86.3431
86.3008
86.2656
86.2127
86.1688
86.1071
86.0654
86.0064
85.9659
85.9184
85.8927
85.8788
85.8889
85.9189
85.967
86.0202
86.077
86.1227
86.1532
86.1559
86.1322
86.0741
85.9933
85.8827
85.7663
85.6341
85.5138
85.3911
85.2995
85.2099
85.1737
85.1311
85.1548
85.1638
85.2159
85.2532
85.2922
85.2949
85.2639
85.1715
85.0322
84.823
84.5671
84.2409
83.8688
83.428
82.9258
82.3482
81.673
80.9069
79.9963
78.9269
77.6211
75.8679
73.9748
70.2626
67.7624
57.7785
51.4579
27.8294
72.1879
71.5938
70.7309
69.6143
68.4961
67.5424
66.7975
66.261
65.9486
65.8669
65.9681
66.1826
66.4301
66.6271
66.7057
66.6496
66.4129
66.063
65.6913
65.3506
65.1261
65.0274
65.05
65.2309
65.5544
65.9971
66.5322
67.1279
67.7455
68.3602
68.957
69.4996
69.9826
70.4422
70.9114
71.3755
71.8403
72.3238
72.8099
73.2803
73.7202
74.1089
74.44
74.7256
74.9673
75.1604
75.3685
75.6501
75.9375
76.1602
76.3205
76.4218
76.4446
76.3705
76.2033
75.9491
75.6259
75.2577
74.8765
74.5097
74.1814
73.8621
73.5608
73.3182
73.1189
72.9573
72.8423
72.7801
72.7728
72.8269
72.9462
73.1326
73.3939
73.7392
74.1647
74.6616
75.2135
75.809
76.4373
77.0813
77.7327
78.3779
79.0112
79.6241
80.2048
80.7424
81.2309
81.6599
82.0257
82.3328
82.5781
82.7664
82.9128
83.007
83.0663
83.0813
83.0751
83.0336
82.9743
82.8842
82.7925
82.6831
82.5807
82.471
82.3902
82.3202
82.2774
82.246
82.2488
82.2633
82.3155
82.3864
82.5021
82.6324
82.8078
82.9999
83.2409
83.4905
83.7729
84.0499
84.3441
84.6123
84.8763
85.0984
85.3094
85.4803
85.6439
85.7736
85.9033
86.0026
86.1049
86.1808
86.2583
86.3135
86.3698
86.4032
86.4314
86.4367
86.4367
86.4142
86.394
86.3505
86.3211
86.2659
86.2259
86.1586
86.12
86.0557
86.0214
85.9704
85.9526
85.9397
85.958
85.9931
86.0516
86.1121
86.179
86.231
86.2691
86.2755
86.2561
86.1975
86.1161
86.0001
85.8773
85.7336
85.602
85.4626
85.3588
85.246
85.1953
85.1288
85.1313
85.1207
85.148
85.1633
85.1765
85.1522
85.0963
84.9816
84.8192
84.5887
84.3073
83.9558
83.5502
83.0754
82.5331
81.9076
81.1853
80.3464
79.3911
78.1378
76.8617
74.6378
73.1123
68.254
66.5227
55.0856
48.0767
28.8193
72.5645
72.0105
71.144
70.037
68.9549
68.0782
67.4359
67.01
66.7804
66.7297
66.8197
66.9997
67.2105
67.3759
67.44
67.394
67.2052
66.9095
66.5913
66.298
66.1016
66.0162
66.0314
66.1904
66.4897
66.901
67.4045
67.9686
68.5613
69.1535
69.7329
70.276
70.7689
71.2287
71.688
72.1467
72.599
73.0494
73.4923
73.9184
74.3107
74.6539
74.9394
75.1782
75.3775
75.5229
75.6651
75.8819
76.1251
76.3232
76.4676
76.5542
76.5614
76.471
76.2795
75.9906
75.6242
75.2132
74.7879
74.3759
74.0061
73.6431
73.3089
73.0386
72.8088
72.6166
72.4767
72.3995
72.3856
72.4396
72.5631
72.7568
73.0292
73.3941
73.8456
74.3737
74.96
75.5907
76.2594
76.9478
77.6456
78.338
79.0183
79.6797
80.3081
80.8887
81.4154
81.8766
82.2679
82.5918
82.8478
83.0444
83.197
83.2899
83.3488
83.3603
83.3547
83.3102
83.2497
83.1558
83.0619
82.9443
82.8346
82.7133
82.6234
82.5407
82.4898
82.4477
82.4463
82.4518
82.4999
82.5584
82.667
82.7838
82.9506
83.1249
83.3535
83.5821
83.8509
84.1055
84.3874
84.6351
84.891
85.0974
85.3072
85.4681
85.6361
85.7592
85.896
85.9908
86.1031
86.1764
86.2666
86.3213
86.3934
86.4288
86.4741
86.482
86.4962
86.4727
86.4623
86.4141
86.3927
86.3306
86.298
86.2222
86.1882
86.1143
86.0875
86.0308
86.0242
86.0084
86.0378
86.0755
86.1475
86.213
86.2933
86.3491
86.3981
86.4056
86.394
86.3326
86.2543
86.1299
86.0055
85.8475
85.7093
85.5489
85.4365
85.2991
85.2322
85.1429
85.1205
85.0902
85.09
85.0812
85.0657
85.0133
84.9285
84.7899
84.6022
84.3465
84.0431
83.6614
83.234
82.7139
82.1468
81.443
80.7159
79.7341
78.8383
77.2422
76.2564
73.2515
72.3725
66.2052
65.049
52.8822
44.5449
29.0071
73.0559
72.4891
71.5261
70.3957
69.3562
68.5656
68.0347
67.7182
67.57
67.5533
67.6403
67.7971
67.9755
68.1169
68.1746
68.1385
67.9959
67.7564
67.4883
67.2408
67.0768
67.0144
67.0355
67.1731
67.4406
67.8144
68.2801
68.8094
69.3705
69.936
70.4933
71.0256
71.5223
71.9857
72.4362
72.8813
73.3181
73.7399
74.1464
74.5344
74.8854
75.1879
75.4336
75.6293
75.7941
75.8996
75.9822
76.1376
76.3381
76.5127
76.6461
76.7252
76.7215
76.6156
76.4015
76.0813
75.6767
75.2261
74.758
74.3014
73.892
73.4915
73.1304
72.8347
72.5734
72.3498
72.1842
72.0941
72.074
72.1283
72.2566
72.4584
72.7433
73.1275
73.6036
74.1612
74.7792
75.4426
76.149
76.8793
77.6208
78.358
79.0827
79.7885
80.4602
81.0808
81.6435
82.1348
82.5509
82.8899
83.156
83.3587
83.5159
83.6052
83.6627
83.6689
83.6623
83.6129
83.5512
83.4535
83.3581
83.2335
83.119
82.9887
82.8904
82.7953
82.737
82.6848
82.6785
82.6747
82.7181
82.7642
82.8657
82.9679
83.1257
83.2817
83.4979
83.7041
83.9589
84.1896
84.4587
84.6838
84.931
85.1198
85.3287
85.4784
85.6522
85.767
85.9124
85.9991
86.1233
86.1903
86.2952
86.3447
86.4343
86.4664
86.5324
86.5376
86.571
86.5419
86.5467
86.4885
86.4803
86.4034
86.3837
86.2926
86.2711
86.1782
86.1663
86.0935
86.1087
86.0789
86.1304
86.1599
86.256
86.3166
86.4209
86.471
86.5409
86.5399
86.5455
86.4727
86.4062
86.267
86.1474
85.9706
85.8328
85.6479
85.5299
85.3661
85.2835
85.1697
85.123
85.0659
85.0422
85.0001
84.9631
84.8736
84.7707
84.5923
84.3893
84.0893
83.78
83.3445
82.9233
82.324
81.7832
80.9265
80.3052
79.0068
78.3632
76.1554
75.6938
71.7115
71.5539
64.2389
63.1214
51.0697
40.8699
28.6192
73.6608
73.0424
71.8808
70.6674
69.6701
68.9869
68.5781
68.3692
68.2985
68.3234
68.4198
68.5629
68.7161
68.8406
68.8995
68.8773
68.7737
68.5901
68.3718
68.1684
68.0357
67.999
68.0367
68.1646
68.4029
68.7381
69.1613
69.6502
70.1744
70.71
71.2417
71.7552
72.2438
72.7045
73.1444
73.5722
73.9885
74.3868
74.7625
75.119
75.4365
75.7032
75.9131
76.073
76.2106
76.2846
76.315
76.4164
76.577
76.7276
76.8522
76.9275
76.9157
76.7969
76.5634
76.2172
75.7805
75.2923
74.78
74.2807
73.8359
73.4064
73.0256
72.7054
72.4129
72.1579
71.9689
71.8682
71.8433
71.8978
72.0306
72.2408
72.5391
72.9426
73.4423
74.0274
74.6755
75.3693
76.1101
76.8786
77.6597
78.4386
79.2046
79.9501
80.6602
81.3167
81.912
82.4309
82.8698
83.223
83.4991
83.7059
83.8656
83.9503
84.0048
84.0047
83.9948
83.9387
83.8745
83.7732
83.6764
83.5468
83.4288
83.2927
83.1881
83.0814
83.0166
82.9543
82.9428
82.9288
82.9673
83.0004
83.0947
83.1814
83.3301
83.4674
83.6716
83.8544
84.0952
84.3013
84.5573
84.7587
84.9969
85.1667
85.3744
85.5113
85.6913
85.7966
85.9508
86.0276
86.1628
86.2211
86.3414
86.3823
86.4896
86.5141
86.6023
86.6001
86.6556
86.617
86.6419
86.5694
86.5793
86.4813
86.4789
86.3649
86.3647
86.2447
86.2556
86.1554
86.2026
86.1469
86.2318
86.2405
86.3736
86.4161
86.5583
86.5888
86.6941
86.6703
86.7084
86.6098
86.5704
86.4026
86.304
86.0945
85.9727
85.7488
85.64
85.4358
85.3508
85.1962
85.1422
85.0376
85.0089
84.9134
84.8754
84.7279
84.6294
84.3833
84.1915
83.8059
83.5304
82.9745
82.6325
81.8418
81.4551
80.2881
79.955
78.1248
77.9152
74.9328
75.0632
70.1067
70.4962
62.4632
60.2388
49.4439
37.8293
28.3192
74.4389
73.7224
72.2241
70.8814
69.9236
69.3507
69.0616
68.9545
68.9595
69.0333
69.1483
69.2857
69.4226
69.5364
69.5997
69.5958
69.5256
69.3935
69.2284
69.0705
68.966
68.9496
69.0075
69.1374
69.3565
69.6589
70.0379
70.4812
70.9663
71.4713
71.9767
72.4673
72.9369
73.3835
73.8075
74.2138
74.6071
74.984
75.3345
75.6618
75.9529
76.1902
76.3672
76.4964
76.6122
76.6647
76.6534
76.7108
76.8358
76.9621
77.0782
77.151
77.1364
77.0114
76.7647
76.3978
75.932
75.4049
74.8461
74.3089
73.8351
73.3849
72.9905
72.6486
72.3263
72.0426
71.8342
71.7258
71.697
71.751
71.8872
72.106
72.4186
72.8409
73.3626
73.9737
74.6506
75.3736
76.1457
76.9479
77.7637
78.5797
79.3833
80.1637
80.9061
81.5937
82.2183
82.7613
83.2207
83.5868
83.8732
84.0811
84.2417
84.3214
84.3719
84.3652
84.3495
84.2854
84.2164
84.1109
84.0119
83.8777
83.7589
83.6188
83.5118
83.3944
83.3245
83.2518
83.2357
83.2108
83.2441
83.264
83.3506
83.421
83.5602
83.6793
83.871
84.0309
84.2575
84.439
84.6814
84.8589
85.0876
85.2383
85.4443
85.5677
85.7522
85.847
86.0092
86.075
86.2198
86.2674
86.402
86.4328
86.5571
86.5711
86.6809
86.6681
86.7462
86.6952
86.7425
86.6538
86.6838
86.5623
86.5782
86.4368
86.461
86.3114
86.349
86.2141
86.2986
86.2087
86.3363
86.3118
86.4938
86.504
86.699
86.6926
86.8514
86.7854
86.8768
86.7318
86.7426
86.523
86.4715
86.2029
86.126
85.8348
85.7629
85.4917
85.4356
85.2072
85.1818
84.9921
84.9962
84.8055
84.8088
84.5514
84.5102
84.1325
84.0223
83.4664
83.3115
82.5267
82.3653
81.2535
81.1177
79.5133
79.5208
77.0806
77.3008
73.5885
74.2327
68.5976
68.7914
61.0132
56.3346
47.8212
36.2507
28.7784
75.0803
74.3144
72.5951
71.1458
70.1878
69.6836
69.4916
69.4787
69.5591
69.6831
69.8204
69.9584
70.0875
70.1945
70.2626
70.2778
70.2378
70.1505
70.0388
69.9288
69.8549
69.8558
69.9314
70.0696
70.28
70.5586
70.8993
71.2978
71.7408
72.2121
72.6904
73.1571
73.6032
74.0282
74.4295
74.8082
75.1733
75.5256
75.855
76.1552
76.4228
76.6374
76.7858
76.8888
76.9848
77.0262
76.9857
77.0097
77.106
77.2106
77.3177
77.3909
77.3794
77.2553
77.0037
76.6217
76.1254
75.5554
74.9496
74.3829
73.8883
73.4242
73.021
72.6597
72.3121
72.0053
71.7826
71.6695
71.6366
71.6897
71.8282
72.0559
72.3829
72.8231
73.3651
74
74.7042
75.4556
76.2563
77.0877
77.9328
78.7808
79.6171
80.4272
81.1963
81.9099
82.5593
83.1222
83.5994
83.9761
84.272
84.4797
84.6394
84.7139
84.76
84.7466
84.7226
84.6494
84.5736
84.4611
84.3596
84.2199
84.1022
83.9597
83.8541
83.7287
83.6551
83.5732
83.5526
83.5173
83.5443
83.5511
83.6291
83.6835
83.8125
83.9133
84.0915
84.2294
84.4417
84.5993
84.8278
84.9821
85.201
85.3331
85.536
85.6457
85.8324
85.9161
86.0838
86.138
86.291
86.327
86.4736
86.4939
86.6339
86.637
86.7651
86.7404
86.8396
86.7756
86.8442
86.7393
86.7884
86.6439
86.6782
86.5076
86.5537
86.3754
86.4409
86.2683
86.3881
86.2599
86.4335
86.3678
86.604
86.572
86.8289
86.7718
86.9971
86.8719
87.033
86.8213
86.9037
86.606
86.6314
86.2715
86.2751
85.8841
85.8874
85.5117
85.5286
85.1829
85.2335
84.9067
84.9945
84.6514
84.7488
84.3249
84.3946
83.8239
83.8481
83.0571
83.0703
81.9888
82.0428
80.5534
80.6925
78.6064
78.9361
75.9434
76.5277
72.3573
72.9486
67.3949
65.9794
59.5251
52.9048
46.5367
36.0846
29.8953
75.5973
74.8418
73.0007
71.4579
70.4675
69.9962
69.8796
69.9505
70.1
70.2702
70.4324
70.5777
70.706
70.8104
70.8815
70.9125
70.8994
70.8516
70.7874
70.7254
70.6871
70.7071
70.7984
70.947
71.1551
71.4198
71.7332
72.0941
72.4967
72.9317
73.38
73.8202
74.2405
74.6389
75.012
75.3599
75.6934
76.0158
76.3202
76.5942
76.8395
77.0363
77.1627
77.2432
77.3225
77.3612
77.3052
77.3062
77.38
77.4677
77.5676
77.6451
77.6428
77.5247
77.2747
76.8836
76.3546
75.7359
75.0858
74.5009
73.9953
73.5234
73.1146
72.737
72.3679
72.0446
71.8145
71.6999
71.6636
71.7155
71.8559
72.0922
72.4334
72.8897
73.4499
74.106
74.8354
75.6138
76.4407
77.2969
78.1663
79.0402
79.9038
80.7378
81.5284
82.2628
82.9319
83.5098
84.002
84.386
84.6898
84.8958
85.0534
85.1229
85.1635
85.1432
85.11
85.0258
84.9429
84.8213
84.716
84.5709
84.4536
84.3105
84.2072
84.0785
84.0027
83.9135
83.8888
83.8442
83.8644
83.8587
83.9275
83.9663
84.0846
84.1666
84.3302
84.4468
84.6445
84.779
84.9931
85.1248
85.3338
85.4482
85.6468
85.7421
85.929
86.0004
86.1712
86.2132
86.3722
86.3966
86.5529
86.5631
86.7163
86.7096
86.8522
86.8156
86.9324
86.8562
86.9433
86.8238
86.8888
86.7235
86.7738
86.5779
86.6392
86.4352
86.5247
86.3192
86.4652
86.3013
86.5138
86.4095
86.69
86.6198
86.9286
86.8247
87.1083
86.9257
87.154
86.8702
87.0305
86.6407
86.7571
86.2871
86.3893
85.8769
85.9827
85.4693
85.5953
85.0896
85.2618
84.7523
84.9714
84.4302
84.666
84.0313
84.2445
83.4351
83.6117
82.5527
82.7249
81.3306
81.5717
79.7179
80.0981
77.6357
78.1393
74.9382
75.4055
71.5106
70.9202
66.2845
62.7942
57.7348
50.8702
46.1483
37.0451
31.2711
76.0173
75.3007
73.4042
71.7963
70.7717
70.3095
70.242
70.3756
70.5825
70.7967
70.9883
71.1482
71.2803
71.3839
71.4566
71.4989
71.5101
71.4964
71.4724
71.4534
71.4525
71.4948
71.6002
71.7597
71.9701
72.2283
72.5249
72.8599
73.2294
73.6296
74.0452
74.4547
74.8451
75.2129
75.5541
75.8695
76.1704
76.4613
76.7345
76.9807
77.203
77.3853
77.4955
77.5545
77.6209
77.6636
77.6099
77.5972
77.6551
77.7304
77.8265
77.912
77.9262
77.8201
77.5742
77.1736
76.6114
75.9412
75.2529
74.6624
74.1556
73.6811
73.2675
72.8782
72.4928
72.1581
71.9277
71.8166
71.7778
71.829
71.972
72.2159
72.5696
73.0408
73.6166
74.2911
75.043
75.8463
76.6961
77.5727
78.4612
79.3551
80.2398
81.0922
81.8994
82.6495
83.3334
83.9206
84.4245
84.8111
85.12
85.3239
85.4768
85.5414
85.5763
85.5475
85.5066
85.4107
85.3212
85.1904
85.0803
84.9293
84.8105
84.6663
84.5655
84.4359
84.3608
84.2668
84.2394
84.1865
84.1999
84.1832
84.2422
84.2665
84.3733
84.437
84.5845
84.6804
84.8622
84.9748
85.1742
85.2847
85.4823
85.5803
85.7733
85.8545
86.0385
86.0972
86.2674
86.2981
86.4595
86.4741
86.637
86.6395
86.8013
86.7873
86.9394
86.8934
87.0223
86.9359
87.0361
86.9046
86.9804
86.7987
86.8593
86.645
86.7144
86.4895
86.5936
86.3667
86.5256
86.3327
86.5707
86.4374
86.7451
86.6483
86.9888
86.8522
87.1725
86.9483
87.2195
86.8813
87.0928
86.6303
86.8083
86.2492
86.4218
85.8011
85.99
85.337
85.5699
84.8877
85.199
84.4792
84.8631
84.0776
84.4993
83.5924
84.0048
82.9105
83.2808
81.9476
82.2657
80.6521
80.9772
79.0045
79.3457
76.9184
77.0897
74.243
73.7743
70.6029
68.435
64.7308
60.3592
56.3466
50.0605
46.6122
38.5702
32.6143
76.3642
75.6963
73.7926
72.1502
71.0947
70.6215
70.5772
70.7576
71.0157
71.2738
71.4972
71.6744
71.812
71.9169
71.9921
72.0431
72.0742
72.0902
72.0995
72.1165
72.1506
72.2169
72.3356
72.5048
72.7202
72.978
73.2655
73.5827
73.9279
74.2964
74.6785
75.0548
75.4126
75.748
76.0564
76.3394
76.6067
76.8629
77.1029
77.3196
77.516
77.6828
77.7833
77.8225
77.8767
77.9299
77.8951
77.8786
77.9312
77.9987
78.0955
78.1939
78.229
78.1411
77.9023
77.487
76.8875
76.1669
75.449
74.8648
74.3686
73.8962
73.478
73.0802
72.6844
72.3439
72.1184
72.0149
71.9766
72.0293
72.1767
72.4273
72.7911
73.2755
73.865
74.5544
75.3256
76.1503
77.0187
77.9112
78.8138
79.7212
80.6205
81.4866
82.306
83.0662
83.7601
84.3509
84.8637
85.2466
85.5562
85.7573
85.9028
85.962
85.9913
85.9525
85.9062
85.8
85.7063
85.566
85.4504
85.2925
85.1716
85.0241
84.9255
84.7958
84.7238
84.6273
84.599
84.5393
84.5472
84.52
84.5697
84.5806
84.676
84.7215
84.8532
84.928
85.093
85.1839
85.3688
85.4586
85.6443
85.726
85.9114
85.9788
86.1583
86.2038
86.3703
86.3901
86.5517
86.5578
86.7248
86.7218
86.8891
86.8692
87.026
86.9731
87.1086
87.014
87.1211
86.9799
87.0613
86.8667
86.9328
86.7049
86.7777
86.5356
86.6441
86.4057
86.5681
86.3512
86.6015
86.4471
86.7662
86.6535
87.006
86.8517
87.1861
86.9401
87.2276
86.8602
87.0902
86.5884
86.7845
86.1791
86.3658
85.6887
85.8905
85.1598
85.4142
84.6367
84.9734
84.1464
84.5583
83.6487
84.1116
83.0639
83.5323
82.3017
82.7249
81.2741
81.6124
79.9371
80.1874
78.2669
78.3441
76.1277
75.7332
73.2695
71.8771
69.1211
66.3143
63.1143
58.9161
55.9699
50.308
47.5872
40.1486
33.8052
76.6617
76.0431
74.1565
72.4974
71.4192
70.9314
70.9
71.116
71.4164
71.7127
71.965
72.1603
72.3059
72.4141
72.4933
72.5513
72.5973
72.6373
72.6748
72.7207
72.786
72.8774
73.0105
73.1883
73.4083
73.6674
73.9513
74.257
74.5824
74.9235
75.2728
75.615
75.9396
76.2421
76.5186
76.7701
77.0037
77.2232
77.4289
77.6147
77.7829
77.9296
78.0234
78.0505
78.0939
78.1596
78.1521
78.1467
78.2045
78.2714
78.3732
78.4897
78.5486
78.4803
78.2524
77.8217
77.1798
76.411
75.6726
75.1054
74.629
74.1642
73.7453
73.3419
72.9402
72.5996
72.3824
72.2883
72.2561
72.3131
72.4665
72.7241
73.0964
73.5919
74.1933
74.8948
75.6809
76.5225
77.4043
78.3078
79.2199
80.1347
81.0419
81.9162
82.744
83.5087
84.2092
84.7963
85.3155
85.687
85.9932
86.1892
86.3243
86.3769
86.4021
86.3506
86.303
86.1876
86.092
85.9414
85.8236
85.6572
85.536
85.3823
85.2866
85.1543
85.0874
84.9891
84.9622
84.8967
84.9016
84.8643
84.906
84.9051
84.9899
85.0174
85.1341
85.187
85.3354
85.4043
85.5746
85.6439
85.8182
85.8824
86.0591
86.1119
86.2851
86.3176
86.4791
86.4886
86.6488
86.6479
86.8164
86.8092
86.98
86.9554
87.1135
87.0548
87.1918
87.09
87.1984
87.0487
87.1308
86.9261
86.9941
86.7572
86.8304
86.5747
86.6794
86.4329
86.5934
86.3571
86.6091
86.4376
86.7569
86.6334
86.983
86.821
87.1525
86.8983
87.1823
86.8043
87.0281
86.5151
86.6951
86.0842
86.2414
85.5602
85.721
84.9836
85.1902
84.4061
84.6827
83.8436
84.1847
83.2558
83.6355
82.5696
82.9418
81.6977
82.0061
80.554
80.7591
79.0915
79.1555
77.2297
77.0282
74.8115
74.0688
71.5994
69.8824
67.2753
64.6338
61.9655
58.3533
56.3829
51.2367
48.6112
41.517
34.8897
76.9246
76.3497
74.4919
72.8338
71.7483
71.2498
71.2213
71.4576
71.7882
72.1156
72.3957
72.6115
72.7687
72.8825
72.9654
73.029
73.0849
73.143
73.2047
73.2759
73.3673
73.4825
73.6312
73.8174
74.0411
74.3
74.582
74.8796
75.1884
75.5061
75.8252
76.1338
76.4244
76.6937
76.9392
77.1607
77.3614
77.5442
77.7151
77.8688
78.0071
78.1308
78.2177
78.2422
78.2783
78.3532
78.3777
78.3957
78.4687
78.5459
78.6544
78.7928
78.8781
78.8284
78.6116
78.1667
77.4857
76.6732
75.924
75.3847
74.9359
74.4822
74.0659
73.6613
73.2577
72.9223
72.7147
72.6312
72.6104
72.675
72.8365
73.1025
73.4824
73.9862
74.5986
75.3095
76.1068
76.9592
77.8478
78.7578
79.6749
80.5913
81.4998
82.376
83.2088
83.9716
84.6768
85.2527
85.777
86.1274
86.4271
86.613
86.7363
86.7791
86.8053
86.7375