/*--------------------------------*- C++ -*----------------------------------*\
| =========                 |                                                 |
| \\      /  F ield         | OpenFOAM: The Open Source CFD Toolbox           |
|  \\    /   O peration     | Version:  2.4.0                                 |
|   \\  /    A nd           | Web:      www.OpenFOAM.org                      |
|    \\/     M anipulation  |                                                 |
\*---------------------------------------------------------------------------*/
FoamFile
{
    version     2.0;
    format      ascii;
    class       surfaceScalarField;
    location    "0.271706";
    object      phi;
}
// * * * * * * * * * * * * * * * * * * * * * * * * * * * * * * * * * * * * * //

dimensions      [0 3 -1 0 0 0 0];

internalField   nonuniform List<scalar> 
34880
(
1.21365e-05
3.63532e-07
1.17082e-05
4.28303e-07
1.13213e-05
3.86854e-07
1.09667e-05
3.54649e-07
1.06482e-05
3.18443e-07
1.0373e-05
2.7525e-07
1.01404e-05
2.32582e-07
9.94605e-06
1.94338e-07
9.78442e-06
1.61633e-07
9.64994e-06
1.34478e-07
9.5374e-06
1.1254e-07
9.44216e-06
9.52361e-08
9.36029e-06
8.18727e-08
9.28855e-06
7.17353e-08
9.22438e-06
6.41681e-08
9.16569e-06
5.86896e-08
9.11068e-06
5.50118e-08
9.05518e-06
5.5499e-08
8.99623e-06
5.89569e-08
2.04316e-07
8.79191e-06
1.26428e-05
2.2078e-07
1.27059e-05
3.65159e-07
1.2723e-05
3.69764e-07
1.26946e-05
3.82998e-07
1.26302e-05
3.82839e-07
1.25382e-05
3.67257e-07
1.24265e-05
3.44349e-07
1.23018e-05
3.1904e-07
1.21698e-05
2.93557e-07
1.20353e-05
2.69029e-07
1.19017e-05
2.46152e-07
1.17717e-05
2.25241e-07
1.16472e-05
2.06362e-07
1.15294e-05
1.89472e-07
1.14192e-05
1.74452e-07
1.13163e-05
1.61517e-07
1.12214e-05
1.4992e-07
1.11305e-05
1.464e-07
1.10546e-05
1.34933e-07
2.49784e-07
1.10091e-05
1.25414e-05
1.79419e-07
1.25885e-05
3.17987e-07
1.26282e-05
3.30053e-07
1.26611e-05
3.50109e-07
1.26834e-05
3.6053e-07
1.26943e-05
3.56413e-07
1.26941e-05
3.44558e-07
1.26833e-05
3.29784e-07
1.26628e-05
3.14125e-07
1.26332e-05
2.98564e-07
1.25956e-05
2.83752e-07
1.25509e-05
2.69993e-07
1.24999e-05
2.5733e-07
1.24437e-05
2.4569e-07
1.23832e-05
2.34925e-07
1.23194e-05
2.25317e-07
1.22532e-05
2.16183e-07
1.21849e-05
2.1464e-07
1.2112e-05
2.07896e-07
2.95724e-07
1.2066e-05
1.25232e-05
1.56177e-07
1.25543e-05
2.8691e-07
1.25822e-05
3.02127e-07
1.26114e-05
3.20904e-07
1.26385e-05
3.33497e-07
1.26621e-05
3.32819e-07
1.26819e-05
3.24737e-07
1.26977e-05
3.14032e-07
1.27092e-05
3.02551e-07
1.27167e-05
2.91122e-07
1.27201e-05
2.80337e-07
1.27196e-05
2.70498e-07
1.27152e-05
2.61662e-07
1.27072e-05
2.53777e-07
1.26954e-05
2.46717e-07
1.26799e-05
2.40805e-07
1.26606e-05
2.35508e-07
1.26377e-05
2.37478e-07
1.26083e-05
2.37309e-07
3.08398e-07
1.25956e-05
1.25185e-05
1.37633e-07
1.25435e-05
2.61956e-07
1.25662e-05
2.7944e-07
1.25911e-05
2.96004e-07
1.26159e-05
3.08652e-07
1.26396e-05
3.09124e-07
1.26618e-05
3.02597e-07
1.2682e-05
2.93781e-07
1.27002e-05
2.8435e-07
1.27163e-05
2.74999e-07
1.27304e-05
2.66263e-07
1.27425e-05
2.58427e-07
1.27526e-05
2.51546e-07
1.27608e-05
2.45587e-07
1.27671e-05
2.40449e-07
1.27714e-05
2.36502e-07
1.27735e-05
2.33349e-07
1.27738e-05
2.37158e-07
1.27706e-05
2.40583e-07
2.98497e-07
1.27805e-05
1.25161e-05
1.21544e-07
1.25385e-05
2.39522e-07
1.25592e-05
2.58806e-07
1.25816e-05
2.73521e-07
1.26046e-05
2.85663e-07
1.26272e-05
2.86552e-07
1.2649e-05
2.80798e-07
1.26697e-05
2.73038e-07
1.26893e-05
2.64806e-07
1.27076e-05
2.56691e-07
1.27247e-05
2.49183e-07
1.27406e-05
2.42548e-07
1.27553e-05
2.36835e-07
1.27688e-05
2.32018e-07
1.27813e-05
2.28015e-07
1.27925e-05
2.25227e-07
1.28025e-05
2.23348e-07
1.28116e-05
2.28063e-07
1.28189e-05
2.33293e-07
2.80577e-07
1.28368e-05
1.25142e-05
1.07341e-07
1.25354e-05
2.18372e-07
1.25551e-05
2.39011e-07
1.25764e-05
2.52297e-07
1.25982e-05
2.63803e-07
1.26199e-05
2.64904e-07
1.2641e-05
2.59655e-07
1.26615e-05
2.52608e-07
1.26811e-05
2.45196e-07
1.26998e-05
2.37925e-07
1.27178e-05
2.31249e-07
1.27349e-05
2.25423e-07
1.27512e-05
2.20488e-07
1.27668e-05
2.16429e-07
1.27817e-05
2.13177e-07
1.27957e-05
2.11156e-07
1.2809e-05
2.10127e-07
1.28217e-05
2.15285e-07
1.28336e-05
2.21395e-07
2.60097e-07
1.28541e-05
1.25127e-05
9.4676e-08
1.25329e-05
1.98149e-07
1.25523e-05
2.19629e-07
1.25728e-05
2.31736e-07
1.25941e-05
2.42566e-07
1.26151e-05
2.43834e-07
1.26358e-05
2.39028e-07
1.26558e-05
2.32573e-07
1.26752e-05
2.25819e-07
1.26939e-05
2.19207e-07
1.2712e-05
2.13167e-07
1.27295e-05
2.07944e-07
1.27464e-05
2.03578e-07
1.27627e-05
2.00063e-07
1.27786e-05
1.97347e-07
1.27938e-05
1.95868e-07
1.28085e-05
1.95437e-07
1.28231e-05
2.00765e-07
1.28372e-05
2.07228e-07
2.38927e-07
1.28584e-05
1.25114e-05
8.32855e-08
1.25308e-05
1.78744e-07
1.25499e-05
2.00514e-07
1.25701e-05
2.11565e-07
1.2591e-05
2.21673e-07
1.26117e-05
2.23088e-07
1.2632e-05
2.18727e-07
1.26518e-05
2.12832e-07
1.26709e-05
2.0668e-07
1.26895e-05
2.00652e-07
1.27075e-05
1.95157e-07
1.2725e-05
1.90434e-07
1.2742e-05
1.86524e-07
1.27587e-05
1.83435e-07
1.27749e-05
1.81129e-07
1.27907e-05
1.80052e-07
1.28061e-05
1.80059e-07
1.28215e-05
1.8538e-07
1.28368e-05
1.91874e-07
2.17799e-07
1.28579e-05
1.25103e-05
7.29606e-08
1.2529e-05
1.60091e-07
1.25479e-05
1.8161e-07
1.25678e-05
1.91663e-07
1.25885e-05
2.00995e-07
1.2609e-05
2.0252e-07
1.26291e-05
1.98612e-07
1.26487e-05
1.93276e-07
1.26677e-05
1.8771e-07
1.26861e-05
1.82243e-07
1.2704e-05
1.7726e-07
1.27214e-05
1.72991e-07
1.27385e-05
1.69482e-07
1.27551e-05
1.66754e-07
1.27715e-05
1.64786e-07
1.27875e-05
1.64026e-07
1.28032e-05
1.64362e-07
1.2819e-05
1.69565e-07
1.2835e-05
1.7589e-07
1.97019e-07
1.28558e-05
1.25094e-05
6.35296e-08
1.25274e-05
1.42125e-07
1.25461e-05
1.62891e-07
1.25658e-05
1.71973e-07
1.25863e-05
1.80478e-07
1.26068e-05
1.82059e-07
1.26268e-05
1.78602e-07
1.26462e-05
1.73825e-07
1.26651e-05
1.68842e-07
1.26834e-05
1.63934e-07
1.27012e-05
1.59453e-07
1.27186e-05
1.55623e-07
1.27356e-05
1.52494e-07
1.27522e-05
1.50096e-07
1.27686e-05
1.48427e-07
1.27847e-05
1.4793e-07
1.28005e-05
1.48525e-07
1.28166e-05
1.53541e-07
1.28329e-05
1.59577e-07
1.76707e-07
1.28532e-05
1.25087e-05
5.48464e-08
1.2526e-05
1.24779e-07
1.25446e-05
1.4434e-07
1.25641e-05
1.5246e-07
1.25845e-05
1.60093e-07
1.26049e-05
1.61672e-07
1.26248e-05
1.58655e-07
1.26442e-05
1.54434e-07
1.2663e-05
1.50032e-07
1.26813e-05
1.45681e-07
1.2699e-05
1.41704e-07
1.27163e-05
1.38311e-07
1.27333e-05
1.35555e-07
1.27499e-05
1.33475e-07
1.27662e-05
1.32087e-07
1.27823e-05
1.31822e-07
1.27982e-05
1.32628e-07
1.28144e-05
1.37419e-07
1.28308e-05
1.43098e-07
1.56886e-07
1.28507e-05
1.25081e-05
4.67853e-08
1.25249e-05
1.07985e-07
1.25433e-05
1.25942e-07
1.25626e-05
1.33096e-07
1.25829e-05
1.39824e-07
1.26032e-05
1.41343e-07
1.26231e-05
1.3875e-07
1.26425e-05
1.3508e-07
1.26613e-05
1.31252e-07
1.26795e-05
1.27459e-07
1.26972e-05
1.23989e-07
1.27145e-05
1.21035e-07
1.27314e-05
1.1865e-07
1.2748e-05
1.16885e-07
1.27643e-05
1.15768e-07
1.27804e-05
1.15717e-07
1.27963e-05
1.16703e-07
1.28125e-05
1.21254e-07
1.2829e-05
1.26542e-07
1.37538e-07
1.28484e-05
1.25075e-05
3.9237e-08
1.25239e-05
9.16713e-08
1.25421e-05
1.07682e-07
1.25614e-05
1.1386e-07
1.25815e-05
1.19658e-07
1.26018e-05
1.21062e-07
1.26217e-05
1.18878e-07
1.2641e-05
1.15749e-07
1.26598e-05
1.1249e-07
1.2678e-05
1.09253e-07
1.26957e-05
1.0629e-07
1.27129e-05
1.03777e-07
1.27298e-05
1.01766e-07
1.27464e-05
1.00315e-07
1.27627e-05
9.94637e-08
1.27788e-05
9.96163e-08
1.27947e-05
1.00758e-07
1.28109e-05
1.05067e-07
1.28275e-05
1.09955e-07
1.18622e-07
1.28464e-05
1.25071e-05
3.21057e-08
1.2523e-05
7.57692e-08
1.25412e-05
8.95435e-08
1.25603e-05
9.47285e-08
1.25804e-05
9.95793e-08
1.26006e-05
1.00823e-07
1.26205e-05
9.9031e-08
1.26398e-05
9.64376e-08
1.26585e-05
9.37378e-08
1.26767e-05
9.10548e-08
1.26944e-05
8.86001e-08
1.27117e-05
8.65285e-08
1.27285e-05
8.48915e-08
1.27451e-05
8.37536e-08
1.27614e-05
8.31662e-08
1.27775e-05
8.35139e-08
1.27935e-05
8.47961e-08
1.28097e-05
8.88701e-08
1.28263e-05
9.33643e-08
1.00092e-07
1.28448e-05
1.25068e-05
2.53067e-08
1.25224e-05
6.02085e-08
1.25404e-05
7.15079e-08
1.25594e-05
7.56831e-08
1.25794e-05
7.95749e-08
1.25996e-05
8.06181e-08
1.26195e-05
7.92045e-08
1.26388e-05
7.71398e-08
1.26575e-05
7.49935e-08
1.26757e-05
7.28603e-08
1.26934e-05
7.09131e-08
1.27106e-05
6.92833e-08
1.27275e-05
6.80209e-08
1.27441e-05
6.71956e-08
1.27604e-05
6.6869e-08
1.27765e-05
6.74056e-08
1.27925e-05
6.88148e-08
1.28087e-05
7.26667e-08
1.28252e-05
7.67838e-08
8.19029e-08
1.28434e-05
1.25065e-05
1.87639e-08
1.25218e-05
4.49199e-08
1.25398e-05
5.35564e-08
1.25588e-05
5.6705e-08
1.25787e-05
5.963e-08
1.25989e-05
6.04414e-08
1.26187e-05
5.93939e-08
1.2638e-05
5.7853e-08
1.26567e-05
5.62544e-08
1.26749e-05
5.46681e-08
1.26926e-05
5.32273e-08
1.27098e-05
5.2039e-08
1.27267e-05
5.11507e-08
1.27433e-05
5.06369e-08
1.27596e-05
5.0568e-08
1.27757e-05
5.12881e-08
1.27917e-05
5.2814e-08
1.28079e-05
5.64598e-08
1.28245e-05
6.02229e-08
6.40134e-08
1.28423e-05
1.25064e-05
1.24079e-08
1.25214e-05
2.98345e-08
1.25393e-05
3.56688e-08
1.25583e-05
3.77768e-08
1.25782e-05
3.97301e-08
1.25983e-05
4.02857e-08
1.26181e-05
3.95951e-08
1.26374e-05
3.85743e-08
1.26561e-05
3.7519e-08
1.26743e-05
3.64769e-08
1.2692e-05
3.55418e-08
1.27092e-05
3.47942e-08
1.27261e-05
3.42792e-08
1.27427e-05
3.40754e-08
1.2759e-05
3.4261e-08
1.27751e-05
3.51599e-08
1.27911e-05
3.67938e-08
1.28073e-05
4.02515e-08
1.28239e-05
4.36879e-08
4.63884e-08
1.28415e-05
1.25062e-05
6.17389e-09
1.25212e-05
1.48842e-08
1.2539e-05
1.78242e-08
1.25579e-05
1.88815e-08
1.25778e-05
1.98602e-08
1.25979e-05
2.0144e-08
1.26177e-05
1.9804e-08
1.2637e-05
1.93009e-08
1.26557e-05
1.87858e-08
1.26739e-05
1.82863e-08
1.26916e-05
1.7856e-08
1.27089e-05
1.75483e-08
1.27257e-05
1.74056e-08
1.27423e-05
1.751e-08
1.27586e-05
1.79467e-08
1.27747e-05
1.90201e-08
1.27908e-05
2.07554e-08
1.2807e-05
2.40438e-08
1.28235e-05
2.71836e-08
2.89973e-08
1.28409e-05
1.25062e-05
2.20344e-13
1.25211e-05
7.46137e-13
1.25389e-05
1.52892e-12
1.25578e-05
2.86155e-12
1.25776e-05
5.21198e-12
1.25977e-05
9.39357e-12
1.26175e-05
1.68417e-11
1.26368e-05
3.01157e-11
1.26555e-05
5.3672e-11
1.26737e-05
9.55856e-11
1.26914e-05
1.69422e-10
1.27087e-05
3.01036e-10
1.27255e-05
5.29422e-10
1.27421e-05
9.40084e-10
1.27584e-05
1.62458e-09
1.27746e-05
2.86878e-09
1.27906e-05
4.70024e-09
1.28068e-05
7.83879e-09
1.28233e-05
1.07131e-08
1.18138e-08
1.28405e-05
1.25062e-05
-6.17345e-09
1.25211e-05
-1.48827e-08
1.25389e-05
-1.78212e-08
1.25578e-05
-1.88758e-08
1.25776e-05
-1.98498e-08
1.25977e-05
-2.01253e-08
1.26175e-05
-1.97704e-08
1.26368e-05
-1.92409e-08
1.26555e-05
-1.86788e-08
1.26737e-05
-1.80957e-08
1.26914e-05
-1.75181e-08
1.27087e-05
-1.69479e-08
1.27255e-05
-1.63496e-08
1.27421e-05
-1.56347e-08
1.27585e-05
-1.47057e-08
1.27746e-05
-1.3294e-08
1.27907e-05
-1.13703e-08
1.28069e-05
-8.36215e-09
1.28233e-05
-5.72147e-09
-5.1848e-09
1.28403e-05
1.25062e-05
-1.24075e-08
1.25212e-05
-2.98331e-08
1.2539e-05
-3.56657e-08
1.25579e-05
-3.77711e-08
1.25778e-05
-3.97198e-08
1.25979e-05
-4.02671e-08
1.26177e-05
-3.95618e-08
1.2637e-05
-3.85148e-08
1.26557e-05
-3.74129e-08
1.26739e-05
-3.62879e-08
1.26916e-05
-3.52067e-08
1.27089e-05
-3.41987e-08
1.27257e-05
-3.32318e-08
1.27423e-05
-3.22147e-08
1.27587e-05
-3.10445e-08
1.27748e-05
-2.94681e-08
1.27909e-05
-2.74551e-08
1.28071e-05
-2.4558e-08
1.28235e-05
-2.21194e-08
-2.20188e-08
1.28404e-05
1.25064e-05
-1.87635e-08
1.25214e-05
-4.49184e-08
1.25393e-05
-5.35534e-08
1.25583e-05
-5.66994e-08
1.25782e-05
-5.96199e-08
1.25983e-05
-6.04231e-08
1.26181e-05
-5.93611e-08
1.26374e-05
-5.77943e-08
1.26561e-05
-5.61498e-08
1.26743e-05
-5.44817e-08
1.2692e-05
-5.28969e-08
1.27093e-05
-5.14517e-08
1.27262e-05
-5.01176e-08
1.27427e-05
-4.88005e-08
1.27591e-05
-4.73923e-08
1.27753e-05
-4.5654e-08
1.27914e-05
-4.35534e-08
1.28076e-05
-4.07488e-08
1.28239e-05
-3.84811e-08
-3.87064e-08
1.28406e-05
1.25065e-05
-2.53063e-08
1.25218e-05
-6.02071e-08
1.25398e-05
-7.1505e-08
1.25588e-05
-7.56776e-08
1.25787e-05
-7.95649e-08
1.25989e-05
-8.06002e-08
1.26187e-05
-7.91723e-08
1.2638e-05
-7.70823e-08
1.26567e-05
-7.4891e-08
1.26749e-05
-7.26776e-08
1.26926e-05
-7.05891e-08
1.27099e-05
-6.87074e-08
1.27268e-05
-6.70077e-08
1.27434e-05
-6.53931e-08
1.27597e-05
-6.37503e-08
1.27759e-05
-6.18524e-08
1.2792e-05
-5.96655e-08
1.28082e-05
-5.69354e-08
1.28245e-05
-5.48085e-08
-5.52645e-08
1.28411e-05
1.25068e-05
-3.21053e-08
1.25224e-05
-7.57678e-08
1.25404e-05
-8.95406e-08
1.25594e-05
-9.47232e-08
1.25794e-05
-9.95696e-08
1.25997e-05
-1.00805e-07
1.26195e-05
-9.89997e-08
1.26388e-05
-9.63815e-08
1.26575e-05
-9.3638e-08
1.26757e-05
-9.08768e-08
1.26934e-05
-8.82844e-08
1.27107e-05
-8.59672e-08
1.27276e-05
-8.39037e-08
1.27442e-05
-8.19944e-08
1.27605e-05
-8.01206e-08
1.27768e-05
-7.80656e-08
1.27929e-05
-7.57928e-08
1.28091e-05
-7.31199e-08
1.28254e-05
-7.11047e-08
-7.17087e-08
1.28418e-05
1.25071e-05
-3.92366e-08
1.2523e-05
-9.167e-08
1.25412e-05
-1.07679e-07
1.25603e-05
-1.13855e-07
1.25804e-05
-1.19648e-07
1.26006e-05
-1.21045e-07
1.26205e-05
-1.18848e-07
1.26398e-05
-1.15695e-07
1.26585e-05
-1.12393e-07
1.26767e-05
-1.09081e-07
1.26944e-05
-1.05985e-07
1.27117e-05
-1.03234e-07
1.27286e-05
-1.00809e-07
1.27452e-05
-9.86082e-08
1.27616e-05
-9.65072e-08
1.27778e-05
-9.42973e-08
1.2794e-05
-9.19383e-08
1.28102e-05
-8.93056e-08
1.28264e-05
-8.73733e-08
-8.80527e-08
1.28428e-05
1.25075e-05
-4.6785e-08
1.25239e-05
-1.07983e-07
1.25421e-05
-1.25939e-07
1.25614e-05
-1.33092e-07
1.25815e-05
-1.39815e-07
1.26018e-05
-1.41327e-07
1.26217e-05
-1.38721e-07
1.2641e-05
-1.35028e-07
1.26598e-05
-1.31159e-07
1.2678e-05
-1.27294e-07
1.26957e-05
-1.23695e-07
1.2713e-05
-1.20512e-07
1.27299e-05
-1.17729e-07
1.27465e-05
-1.15241e-07
1.27629e-05
-1.12916e-07
1.27792e-05
-1.10553e-07
1.27954e-05
-1.08105e-07
1.28116e-05
-1.05495e-07
1.28278e-05
-1.03616e-07
-1.04306e-07
1.28441e-05
1.25081e-05
-5.48461e-08
1.25249e-05
-1.24778e-07
1.25433e-05
-1.44337e-07
1.25626e-05
-1.52455e-07
1.25829e-05
-1.60085e-07
1.26032e-05
-1.61657e-07
1.26231e-05
-1.58627e-07
1.26425e-05
-1.54385e-07
1.26613e-05
-1.49943e-07
1.26795e-05
-1.45523e-07
1.26972e-05
-1.41424e-07
1.27145e-05
-1.37812e-07
1.27315e-05
-1.34675e-07
1.27481e-05
-1.31901e-07
1.27646e-05
-1.29355e-07
1.27809e-05
-1.26837e-07
1.2797e-05
-1.24296e-07
1.28132e-05
-1.21688e-07
1.28294e-05
-1.1983e-07
-1.20469e-07
1.28456e-05
1.25087e-05
-6.35292e-08
1.2526e-05
-1.42124e-07
1.25446e-05
-1.62888e-07
1.25641e-05
-1.71969e-07
1.25845e-05
-1.8047e-07
1.26049e-05
-1.82045e-07
1.26248e-05
-1.78575e-07
1.26442e-05
-1.73778e-07
1.2663e-05
-1.68759e-07
1.26813e-05
-1.63784e-07
1.2699e-05
-1.59187e-07
1.27164e-05
-1.5515e-07
1.27334e-05
-1.51659e-07
1.27501e-05
-1.48602e-07
1.27665e-05
-1.45831e-07
1.27829e-05
-1.43151e-07
1.27991e-05
-1.40504e-07
1.28153e-05
-1.37871e-07
1.28314e-05
-1.35995e-07
-1.36522e-07
1.28475e-05
1.25094e-05
-7.29603e-08
1.25274e-05
-1.6009e-07
1.25461e-05
-1.81608e-07
1.25658e-05
-1.91659e-07
1.25863e-05
-2.00988e-07
1.26068e-05
-2.02507e-07
1.26268e-05
-1.98587e-07
1.26463e-05
-1.93232e-07
1.26651e-05
-1.87631e-07
1.26834e-05
-1.82103e-07
1.27013e-05
-1.7701e-07
1.27187e-05
-1.72546e-07
1.27357e-05
-1.68699e-07
1.27524e-05
-1.65347e-07
1.2769e-05
-1.62339e-07
1.27853e-05
-1.5948e-07
1.28015e-05
-1.56701e-07
1.28176e-05
-1.54004e-07
1.28337e-05
-1.52059e-07
-1.52409e-07
1.28496e-05
1.25103e-05
-8.32852e-08
1.2529e-05
-1.78743e-07
1.25479e-05
-2.00512e-07
1.25678e-05
-2.11561e-07
1.25885e-05
-2.21666e-07
1.2609e-05
-2.23075e-07
1.26291e-05
-2.18704e-07
1.26487e-05
-2.12792e-07
1.26677e-05
-2.06607e-07
1.26861e-05
-2.00522e-07
1.2704e-05
-1.94926e-07
1.27215e-05
-1.90021e-07
1.27386e-05
-1.85795e-07
1.27554e-05
-1.82123e-07
1.27719e-05
-1.78845e-07
1.27882e-05
-1.75766e-07
1.28043e-05
-1.7281e-07
1.28203e-05
-1.69991e-07
1.28361e-05
-1.67908e-07
-1.68003e-07
1.28517e-05
1.25114e-05
-9.46757e-08
1.25308e-05
-1.98148e-07
1.25499e-05
-2.19627e-07
1.25701e-05
-2.31732e-07
1.2591e-05
-2.42559e-07
1.26117e-05
-2.43822e-07
1.2632e-05
-2.39007e-07
1.26518e-05
-2.32536e-07
1.26709e-05
-2.25752e-07
1.26895e-05
-2.19088e-07
1.27075e-05
-2.12954e-07
1.27251e-05
-2.07564e-07
1.27422e-05
-2.02907e-07
1.27589e-05
-1.98854e-07
1.27753e-05
-1.9524e-07
1.27914e-05
-1.91869e-07
1.28072e-05
-1.88658e-07
1.28229e-05
-1.85627e-07
1.28383e-05
-1.83306e-07
-1.83052e-07
1.28533e-05
1.25127e-05
-1.0734e-07
1.25329e-05
-2.18371e-07
1.25523e-05
-2.39009e-07
1.25728e-05
-2.52293e-07
1.25941e-05
-2.63798e-07
1.26151e-05
-2.64893e-07
1.26358e-05
-2.59636e-07
1.26558e-05
-2.52575e-07
1.26752e-05
-2.45136e-07
1.26939e-05
-2.37817e-07
1.2712e-05
-2.31057e-07
1.27295e-05
-2.25079e-07
1.27465e-05
-2.19879e-07
1.2763e-05
-2.15329e-07
1.2779e-05
-2.11258e-07
1.27946e-05
-2.07472e-07
1.28098e-05
-2.03876e-07
1.28247e-05
-2.00499e-07
1.28392e-05
-1.97793e-07
-1.97059e-07
1.28532e-05
1.25142e-05
-1.21544e-07
1.25354e-05
-2.39521e-07
1.25551e-05
-2.58805e-07
1.25764e-05
-2.73518e-07
1.25982e-05
-2.85658e-07
1.26199e-05
-2.86543e-07
1.2641e-05
-2.80781e-07
1.26615e-05
-2.73008e-07
1.26811e-05
-2.64752e-07
1.26999e-05
-2.56595e-07
1.27178e-05
-2.49011e-07
1.2735e-05
-2.42242e-07
1.27514e-05
-2.36291e-07
1.27671e-05
-2.31034e-07
1.27821e-05
-2.26296e-07
1.27965e-05
-2.21883e-07
1.28104e-05
-2.17691e-07
1.28236e-05
-2.13753e-07
1.28362e-05
-2.10433e-07
-2.09021e-07
1.28482e-05
1.25161e-05
-1.37633e-07
1.25385e-05
-2.61955e-07
1.25592e-05
-2.79439e-07
1.25816e-05
-2.96001e-07
1.26046e-05
-3.08648e-07
1.26272e-05
-3.09117e-07
1.2649e-05
-3.02583e-07
1.26698e-05
-2.93755e-07
1.26893e-05
-2.84304e-07
1.27076e-05
-2.74916e-07
1.27247e-05
-2.66113e-07
1.27406e-05
-2.58159e-07
1.27554e-05
-2.5107e-07
1.27691e-05
-2.44723e-07
1.27818e-05
-2.3894e-07
1.27934e-05
-2.33525e-07
1.28041e-05
-2.28357e-07
1.28138e-05
-2.23473e-07
1.28225e-05
-2.19127e-07
-2.16686e-07
1.28301e-05
1.25185e-05
-1.56177e-07
1.25435e-05
-2.8691e-07
1.25662e-05
-3.02126e-07
1.25911e-05
-3.20902e-07
1.26159e-05
-3.33494e-07
1.26396e-05
-3.32812e-07
1.26618e-05
-3.24725e-07
1.2682e-05
-3.1401e-07
1.27002e-05
-3.02511e-07
1.27164e-05
-2.91051e-07
1.27305e-05
-2.80209e-07
1.27426e-05
-2.7027e-07
1.27528e-05
-2.61255e-07
1.27611e-05
-2.53038e-07
1.27676e-05
-2.45427e-07
1.27723e-05
-2.3822e-07
1.27752e-05
-2.31269e-07
1.27763e-05
-2.24619e-07
1.27755e-05
-2.18362e-07
-2.14203e-07
1.27731e-05
1.25232e-05
-1.79419e-07
1.25543e-05
-3.17986e-07
1.25822e-05
-3.30053e-07
1.26115e-05
-3.50108e-07
1.26385e-05
-3.60528e-07
1.26621e-05
-3.56408e-07
1.26819e-05
-3.44549e-07
1.26977e-05
-3.29766e-07
1.27092e-05
-3.14093e-07
1.27167e-05
-2.98506e-07
1.27201e-05
-2.83648e-07
1.27197e-05
-2.69806e-07
1.27154e-05
-2.56998e-07
1.27075e-05
-2.45086e-07
1.26959e-05
-2.33874e-07
1.26809e-05
-2.23172e-07
1.26624e-05
-2.12837e-07
1.26408e-05
-2.02967e-07
1.26159e-05
-1.93454e-07
-1.86864e-07
1.25885e-05
1.25414e-05
-2.2078e-07
1.25885e-05
-3.65159e-07
1.26282e-05
-3.69763e-07
1.26611e-05
-3.82997e-07
1.26834e-05
-3.82837e-07
1.26943e-05
-3.67253e-07
1.26941e-05
-3.44342e-07
1.26833e-05
-3.19026e-07
1.26628e-05
-2.93532e-07
1.26333e-05
-2.68984e-07
1.25957e-05
-2.46073e-07
1.2551e-05
-2.251e-07
1.25001e-05
-2.06113e-07
1.2444e-05
-1.8902e-07
1.23838e-05
-1.73673e-07
1.23206e-05
-1.59906e-07
1.22553e-05
-1.4756e-07
1.2189e-05
-1.36662e-07
1.21224e-05
-1.26915e-07
-1.20694e-07
1.20563e-05
1.26428e-05
-3.63532e-07
1.27059e-05
-4.28303e-07
1.2723e-05
-3.86854e-07
1.26946e-05
-3.54648e-07
1.26302e-05
-3.18441e-07
1.25382e-05
-2.75247e-07
1.24265e-05
-2.32576e-07
1.23018e-05
-1.94328e-07
1.21699e-05
-1.61616e-07
1.20353e-05
-1.34448e-07
1.19017e-05
-1.12485e-07
1.17718e-05
-9.51393e-08
1.16474e-05
-8.17012e-08
1.15298e-05
-7.14302e-08
1.14197e-05
-6.36195e-08
1.13175e-05
-5.7644e-08
1.12229e-05
-5.29987e-08
1.11356e-05
-4.93746e-08
1.10553e-05
-4.65621e-08
-4.5221e-08
1.09798e-05
1.21365e-05
1.17082e-05
1.13213e-05
1.09667e-05
1.06482e-05
1.0373e-05
1.01404e-05
9.94607e-06
9.78445e-06
9.65001e-06
9.53752e-06
9.44238e-06
9.36068e-06
9.28925e-06
9.22563e-06
9.16799e-06
9.11499e-06
9.06561e-06
9.01905e-06
8.97383e-06
8.61169e-06
2.91659e-08
1.51056e-07
8.40858e-06
-6.23755e-09
2.09349e-07
8.18347e-06
-5.29286e-08
2.78033e-07
7.99215e-06
-9.22897e-08
2.8361e-07
7.84807e-06
-1.29781e-07
2.73859e-07
7.74939e-06
-1.61016e-07
2.597e-07
7.68884e-06
-1.85191e-07
2.45742e-07
7.65646e-06
-2.02776e-07
2.35154e-07
7.64279e-06
-2.14812e-07
2.28487e-07
7.64071e-06
-2.22708e-07
2.24789e-07
7.64551e-06
-2.27704e-07
2.22898e-07
7.6545e-06
-2.31174e-07
2.22186e-07
7.66619e-06
-2.34076e-07
2.22383e-07
7.67979e-06
-2.36956e-07
2.23362e-07
7.69481e-06
-2.40147e-07
2.25125e-07
7.71089e-06
-2.43748e-07
2.27672e-07
7.72772e-06
-2.47888e-07
2.31057e-07
7.74505e-06
-2.52662e-07
2.35333e-07
7.76266e-06
-2.58142e-07
2.40524e-07
7.78041e-06
-2.64419e-07
2.46668e-07
7.79819e-06
-2.71587e-07
2.53815e-07
7.8159e-06
-2.79731e-07
2.62019e-07
7.83348e-06
-2.88923e-07
2.71337e-07
7.85089e-06
-2.99219e-07
2.81817e-07
7.86805e-06
-3.10665e-07
2.93501e-07
7.88493e-06
-3.233e-07
3.06422e-07
7.90147e-06
-3.37155e-07
3.20609e-07
7.91765e-06
-3.52254e-07
3.36079e-07
7.93342e-06
-3.6861e-07
3.5284e-07
7.94875e-06
-3.86227e-07
3.70892e-07
7.96363e-06
-4.05097e-07
3.90226e-07
7.97801e-06
-4.25204e-07
4.10823e-07
7.99187e-06
-4.46521e-07
4.32654e-07
8.0052e-06
-4.69015e-07
4.55685e-07
8.01798e-06
-4.92643e-07
4.79871e-07
8.03017e-06
-5.17356e-07
5.0516e-07
8.04177e-06
-5.43097e-07
5.31495e-07
8.05277e-06
-5.69805e-07
5.58812e-07
8.06314e-06
-5.97412e-07
5.87041e-07
8.07288e-06
-6.25845e-07
6.16107e-07
8.08197e-06
-6.55026e-07
6.45931e-07
8.09041e-06
-6.84874e-07
6.76431e-07
8.0982e-06
-7.15305e-07
7.07521e-07
8.10532e-06
-7.46233e-07
7.39113e-07
8.11177e-06
-7.7757e-07
7.71119e-07
8.11755e-06
-8.0923e-07
8.0345e-07
8.12265e-06
-8.41122e-07
8.36016e-07
8.12709e-06
-8.7316e-07
8.68729e-07
8.13084e-06
-9.05257e-07
9.01501e-07
8.13392e-06
-9.37325e-07
9.34245e-07
8.13633e-06
-9.69282e-07
9.66874e-07
8.13807e-06
-1.00104e-06
9.99306e-07
8.13913e-06
-1.03253e-06
1.03146e-06
8.13954e-06
-1.06365e-06
1.06325e-06
8.13928e-06
-1.09435e-06
1.09461e-06
8.13837e-06
-1.12454e-06
1.12545e-06
8.13681e-06
-1.15416e-06
1.15572e-06
8.13461e-06
-1.18314e-06
1.18534e-06
8.13177e-06
-1.21142e-06
1.21425e-06
8.12831e-06
-1.23894e-06
1.24239e-06
8.12424e-06
-1.26564e-06
1.26971e-06
8.11956e-06
-1.29148e-06
1.29616e-06
8.11429e-06
-1.31641e-06
1.32168e-06
8.10844e-06
-1.34039e-06
1.34624e-06
8.10201e-06
-1.36337e-06
1.3698e-06
8.09503e-06
-1.38534e-06
1.39232e-06
8.08751e-06
-1.40625e-06
1.41378e-06
8.07945e-06
-1.42608e-06
1.43414e-06
8.07088e-06
-1.44482e-06
1.45339e-06
8.06181e-06
-1.46244e-06
1.47151e-06
8.05226e-06
-1.47893e-06
1.48848e-06
8.04223e-06
-1.49427e-06
1.5043e-06
8.03176e-06
-1.50848e-06
1.51895e-06
8.02085e-06
-1.52153e-06
1.53244e-06
8.00952e-06
-1.53344e-06
1.54476e-06
7.99779e-06
-1.54419e-06
1.55592e-06
7.98569e-06
-1.55382e-06
1.56592e-06
7.97321e-06
-1.56231e-06
1.57478e-06
7.96039e-06
-1.56968e-06
1.5825e-06
7.94725e-06
-1.57595e-06
1.5891e-06
7.93379e-06
-1.58114e-06
1.5946e-06
7.92005e-06
-1.58526e-06
1.59901e-06
7.90603e-06
-1.58833e-06
1.60235e-06
7.89176e-06
-1.59038e-06
1.60465e-06
7.87725e-06
-1.59143e-06
1.60594e-06
7.86253e-06
-1.59151e-06
1.60624e-06
7.84761e-06
-1.59065e-06
1.60557e-06
7.83251e-06
-1.58886e-06
1.60396e-06
7.81725e-06
-1.58619e-06
1.60145e-06
7.80185e-06
-1.58267e-06
1.59807e-06
7.78632e-06
-1.57831e-06
1.59385e-06
7.77067e-06
-1.57317e-06
1.58881e-06
7.75494e-06
-1.56726e-06
1.58299e-06
7.73913e-06
-1.56062e-06
1.57643e-06
7.72326e-06
-1.55328e-06
1.56915e-06
7.70734e-06
-1.54528e-06
1.5612e-06
7.6914e-06
-1.53665e-06
1.55259e-06
7.67543e-06
-1.52742e-06
1.54338e-06
7.65947e-06
-1.51762e-06
1.53358e-06
7.64353e-06
-1.50729e-06
1.52323e-06
7.62761e-06
-1.49645e-06
1.51237e-06
7.61173e-06
-1.48514e-06
1.50102e-06
7.5959e-06
-1.47339e-06
1.48922e-06
7.58014e-06
-1.46123e-06
1.47699e-06
7.56445e-06
-1.44869e-06
1.46437e-06
7.54885e-06
-1.43579e-06
1.45139e-06
7.53335e-06
-1.42256e-06
1.43806e-06
7.51795e-06
-1.40903e-06
1.42443e-06
7.50267e-06
-1.39523e-06
1.41051e-06
7.48752e-06
-1.38118e-06
1.39633e-06
7.4725e-06
-1.36689e-06
1.38191e-06
7.45763e-06
-1.35241e-06
1.36728e-06
7.4429e-06
-1.33774e-06
1.35247e-06
7.42833e-06
-1.32291e-06
1.33748e-06
7.41393e-06
-1.30793e-06
1.32234e-06
7.39969e-06
-1.29283e-06
1.30707e-06
7.38563e-06
-1.27762e-06
1.29169e-06
7.37174e-06
-1.26232e-06
1.2762e-06
7.35804e-06
-1.24693e-06
1.26063e-06
7.34453e-06
-1.23148e-06
1.24499e-06
7.33121e-06
-1.21597e-06
1.22929e-06
7.31808e-06
-1.20041e-06
1.21354e-06
7.30515e-06
-1.18481e-06
1.19774e-06
7.29242e-06
-1.16917e-06
1.1819e-06
7.27989e-06
-1.1535e-06
1.16604e-06
7.26756e-06
-1.13781e-06
1.15014e-06
7.25543e-06
-1.12208e-06
1.13421e-06
7.24351e-06
-1.10633e-06
1.11825e-06
7.23178e-06
-1.09054e-06
1.10226e-06
7.22026e-06
-1.07471e-06
1.08623e-06
7.20894e-06
-1.05883e-06
1.07016e-06
7.19781e-06
-1.0429e-06
1.05403e-06
7.18689e-06
-1.0269e-06
1.03783e-06
7.17615e-06
-1.01082e-06
1.02155e-06
7.16561e-06
-9.94639e-07
1.00518e-06
7.15526e-06
-9.78338e-07
9.88693e-07
7.14509e-06
-9.61896e-07
9.72068e-07
7.13509e-06
-9.45287e-07
9.5528e-07
7.12527e-06
-9.28483e-07
9.38303e-07
7.11562e-06
-9.11452e-07
9.21104e-07
7.10613e-06
-8.94158e-07
9.0365e-07
7.09679e-06
-8.76564e-07
8.85903e-07
7.0876e-06
-8.58625e-07
8.67818e-07
7.07854e-06
-8.40293e-07
8.4935e-07
7.06961e-06
-8.21517e-07
8.30448e-07
7.06079e-06
-8.02239e-07
8.11053e-07
7.05208e-06
-7.82395e-07
7.91105e-07
7.04347e-06
-7.61917e-07
7.70534e-07
7.03493e-06
-7.4073e-07
7.49268e-07
7.02646e-06
-7.18749e-07
7.27223e-07
7.01803e-06
-6.95885e-07
7.0431e-07
7.00964e-06
-6.7204e-07
6.80433e-07
7.00126e-06
-6.47104e-07
6.55484e-07
6.99287e-06
-6.20961e-07
6.29346e-07
6.98446e-06
-5.9348e-07
6.01891e-07
6.976e-06
-5.6452e-07
5.7298e-07
6.96747e-06
-5.33928e-07
5.4246e-07
6.95884e-06
-5.01533e-07
5.10163e-07
6.95008e-06
-4.6715e-07
4.75904e-07
6.94118e-06
-4.30575e-07
4.39482e-07
6.93209e-06
-3.91586e-07
4.00676e-07
6.92278e-06
-3.49937e-07
3.5924e-07
6.91323e-06
-3.05358e-07
3.14908e-07
6.9034e-06
-2.57551e-07
2.67382e-07
6.89325e-06
-2.06189e-07
2.16338e-07
6.88275e-06
-1.50912e-07
1.61414e-07
6.87186e-06
-9.13203e-08
1.02213e-07
6.86054e-06
-2.69709e-08
3.82936e-08
6.84874e-06
4.26322e-08
-3.08396e-08
6.83644e-06
1.18041e-07
-1.05739e-07
6.82359e-06
1.99872e-07
-1.8702e-07
6.81015e-06
2.88813e-07
-2.75372e-07
6.79608e-06
3.85641e-07
-3.71573e-07
6.78135e-06
4.91229e-07
-4.76498e-07
6.76592e-06
6.0657e-07
-5.91141e-07
6.74977e-06
7.32788e-07
-7.16633e-07
6.73286e-06
8.71174e-07
-8.54266e-07
6.71518e-06
1.02321e-06
-1.00553e-06
6.69671e-06
1.19061e-06
-1.17214e-06
6.67746e-06
1.37538e-06
-1.35612e-06
6.65743e-06
1.57987e-06
-1.55984e-06
6.63665e-06
1.80691e-06
-1.78613e-06
6.61517e-06
2.05989e-06
-2.03841e-06
6.59306e-06
2.34298e-06
-2.32086e-06
6.5704e-06
2.66131e-06
-2.63866e-06
6.54731e-06
3.02133e-06
-2.99824e-06
6.52385e-06
3.43107e-06
-3.40761e-06
6.50001e-06
3.90041e-06
-3.87658e-06
6.47557e-06
4.44118e-06
-4.41674e-06
6.44991e-06
5.06681e-06
-5.04115e-06
6.42179e-06
5.79166e-06
-5.76354e-06
6.38914e-06
6.62999e-06
-6.59734e-06
6.34875e-06
7.59537e-06
-7.55499e-06
6.2962e-06
8.70074e-06
-8.64818e-06
6.2252e-06
9.961e-06
-9.89e-06
6.1294e-06
1.13955e-05
-1.12997e-05
5.99397e-06
1.3052e-05
-1.29166e-05
5.83452e-06
1.50008e-05
-1.48414e-05
5.48078e-06
1.77612e-05
-1.74074e-05
2.43541e-05
-2.55034e-05
6.63009e-06
1.09709e-05
6.73325e-08
1.09074e-05
5.72493e-08
1.08124e-05
4.2145e-08
1.0696e-05
2.41054e-08
1.05605e-05
5.63726e-09
1.04124e-05
-1.28727e-08
1.0259e-05
-3.18326e-08
1.01077e-05
-5.14643e-08
9.96439e-06
-7.14688e-08
9.83321e-06
-9.15305e-08
9.71619e-06
-1.10683e-07
9.61377e-06
-1.28758e-07
9.52507e-06
-1.45373e-07
9.44848e-06
-1.60366e-07
9.38221e-06
-1.73884e-07
9.32455e-06
-1.86086e-07
9.2741e-06
-1.97439e-07
9.22976e-06
-2.0832e-07
9.19067e-06
-2.1905e-07
9.15615e-06
-2.29902e-07
9.12565e-06
-2.41084e-07
9.09867e-06
-2.5275e-07
9.07477e-06
-2.6502e-07
9.05354e-06
-2.77998e-07
9.03466e-06
-2.91776e-07
9.0178e-06
-3.0644e-07
9.00271e-06
-3.22065e-07
8.98916e-06
-3.38708e-07
8.97696e-06
-3.56411e-07
8.96593e-06
-3.75196e-07
8.95591e-06
-3.95074e-07
8.94674e-06
-4.1604e-07
8.9383e-06
-4.38082e-07
8.93046e-06
-4.61176e-07
8.92311e-06
-4.85293e-07
8.91615e-06
-5.10394e-07
8.90949e-06
-5.36433e-07
8.90304e-06
-5.63356e-07
8.89673e-06
-5.91105e-07
8.8905e-06
-6.19611e-07
8.88428e-06
-6.48804e-07
8.87801e-06
-6.78608e-07
8.87165e-06
-7.08945e-07
8.86515e-06
-7.39734e-07
8.85847e-06
-7.70892e-07
8.85158e-06
-8.02335e-07
8.84443e-06
-8.33979e-07
8.83701e-06
-8.6574e-07
8.82929e-06
-8.97533e-07
8.82124e-06
-9.29276e-07
8.81284e-06
-9.60885e-07
8.80408e-06
-9.92281e-07
8.79494e-06
-1.02338e-06
8.78541e-06
-1.05412e-06
8.77547e-06
-1.08441e-06
8.76511e-06
-1.11419e-06
8.75434e-06
-1.14339e-06
8.74314e-06
-1.17194e-06
8.73151e-06
-1.19979e-06
8.71945e-06
-1.22688e-06
8.70696e-06
-1.25315e-06
8.69404e-06
-1.27856e-06
8.68069e-06
-1.30306e-06
8.66692e-06
-1.32661e-06
8.65272e-06
-1.34918e-06
8.63812e-06
-1.37073e-06
8.6231e-06
-1.39124e-06
8.6077e-06
-1.41067e-06
8.5919e-06
-1.42902e-06
8.57572e-06
-1.44626e-06
8.55918e-06
-1.46239e-06
8.54229e-06
-1.47738e-06
8.52506e-06
-1.49124e-06
8.50749e-06
-1.50397e-06
8.48962e-06
-1.51556e-06
8.47145e-06
-1.52602e-06
8.45299e-06
-1.53536e-06
8.43427e-06
-1.54358e-06
8.41529e-06
-1.55071e-06
8.39608e-06
-1.55674e-06
8.37665e-06
-1.56171e-06
8.35703e-06
-1.56563e-06
8.33721e-06
-1.56852e-06
8.31723e-06
-1.5704e-06
8.2971e-06
-1.57131e-06
8.27684e-06
-1.57125e-06
8.25647e-06
-1.57027e-06
8.23599e-06
-1.56839e-06
8.21543e-06
-1.56564e-06
8.19481e-06
-1.56204e-06
8.17414e-06
-1.55764e-06
8.15344e-06
-1.55246e-06
8.13272e-06
-1.54654e-06
8.112e-06
-1.5399e-06
8.09129e-06
-1.53258e-06
8.07061e-06
-1.5246e-06
8.04998e-06
-1.51602e-06
8.02941e-06
-1.50684e-06
8.0089e-06
-1.49712e-06
7.98848e-06
-1.48687e-06
7.96816e-06
-1.47613e-06
7.94795e-06
-1.46493e-06
7.92786e-06
-1.4533e-06
7.9079e-06
-1.44127e-06
7.88809e-06
-1.42887e-06