/*--------------------------------*- C++ -*----------------------------------*\
| =========                 |                                                 |
| \\      /  F ield         | OpenFOAM: The Open Source CFD Toolbox           |
|  \\    /   O peration     | Version:  2.4.0                                 |
|   \\  /    A nd           | Web:      www.OpenFOAM.org                      |
|    \\/     M anipulation  |                                                 |
\*---------------------------------------------------------------------------*/
FoamFile
{
    version     2.0;
    format      ascii;
    class       volVectorField;
    location    "0.059";
    object      U;
}
// * * * * * * * * * * * * * * * * * * * * * * * * * * * * * * * * * * * * * //

dimensions      [0 1 -1 0 0 0 0];

internalField   nonuniform List<vector> 
17600
(
(5.32793 0.309438 0)
(2.98558 0.0606342 0)
(2.1962 -0.00155991 0)
(1.84765 -0.00357319 0)
(1.70762 -0.00131349 0)
(1.60993 -0.000146064 0)
(1.5408 7.51729e-05 0)
(1.47762 -0.000134365 0)
(1.438 -5.5701e-05 0)
(1.40037 -0.000162472 0)
(1.38278 -0.000258093 0)
(1.34943 0.000305097 0)
(1.34904 -0.000632091 0)
(1.31539 0.00035441 0)
(1.33078 -0.0005174 0)
(1.30591 -0.000500393 0)
(1.33666 9.45507e-06 0)
(1.34459 -0.00180384 0)
(1.44344 -0.000312491 0)
(1.25746 -0.0507472 0)
(8.59877 0.871943 0)
(6.94977 0.383408 0)
(5.81152 0.121988 0)
(5.05498 0.0506908 0)
(4.65623 0.0282419 0)
(4.37398 0.020623 0)
(4.18597 0.0163036 0)
(4.01257 0.0123203 0)
(3.90075 0.00959234 0)
(3.79189 0.00683994 0)
(3.73779 0.00572014 0)
(3.64039 0.00546943 0)
(3.63944 0.00263298 0)
(3.53289 0.00398717 0)
(3.57922 0.000539754 0)
(3.48035 -0.000728262 0)
(3.56079 -0.00241543 0)
(3.5429 -0.013728 0)
(3.71739 -0.00509639 0)
(3.61031 -0.0591574 0)
(9.85692 1.02212 0)
(9.34453 0.577122 0)
(8.47673 0.24198 0)
(7.63827 0.129571 0)
(7.09988 0.081756 0)
(6.68812 0.0579399 0)
(6.41611 0.0445254 0)
(6.15954 0.0344059 0)
(5.99215 0.0270929 0)
(5.82329 0.0197878 0)
(5.74149 0.0173513 0)
(5.58472 0.0143437 0)
(5.58943 0.00997894 0)
(5.41144 0.010416 0)
(5.49053 0.00410441 0)
(5.31689 0.00143402 0)
(5.43209 -0.00489848 0)
(5.38638 -0.0228986 0)
(5.55898 -0.0273014 0)
(5.52239 -0.05983 0)
(10.1604 0.947788 0)
(10.5664 0.668103 0)
(10.2642 0.331729 0)
(9.63676 0.2092 0)
(9.13315 0.147512 0)
(8.67886 0.107664 0)
(8.37455 0.0825191 0)
(8.06725 0.0645598 0)
(7.86798 0.0513517 0)
(7.65232 0.0377855 0)
(7.55744 0.0342091 0)
(7.34569 0.0264457 0)
(7.36449 0.021185 0)
(7.11984 0.0193634 0)
(7.23049 0.0102326 0)
(6.99363 0.00643373 0)
(7.12367 -0.00789787 0)
(7.06415 -0.0288613 0)
(7.21061 -0.0459301 0)
(7.13241 -0.0809353 0)
(10.0758 0.805747 0)
(10.9152 0.668872 0)
(11.1414 0.35905 0)
(10.8842 0.254957 0)
(10.6004 0.202853 0)
(10.2278 0.157823 0)
(9.97284 0.123738 0)
(9.66691 0.0984955 0)
(9.47743 0.0798219 0)
(9.23556 0.0588119 0)
(9.15358 0.0547087 0)
(8.89857 0.0408751 0)
(8.94111 0.0350421 0)
(8.64576 0.0305071 0)
(8.7834 0.0177992 0)
(8.50619 0.0147455 0)
(8.63388 -0.0108255 0)
(8.57101 -0.0323904 0)
(8.709 -0.0588291 0)
(8.50462 -0.0856646 0)
(9.99301 0.691441 0)
(10.8438 0.634646 0)
(11.3267 0.337141 0)
(11.3535 0.250274 0)
(11.3579 0.223424 0)
(11.1751 0.189787 0)
(11.0694 0.15602 0)
(10.8411 0.128395 0)
(10.723 0.107464 0)
(10.4937 0.0796505 0)
(10.457 0.0762458 0)
(10.1877 0.0561499 0)
(10.263 0.0498208 0)
(9.94671 0.0430343 0)
(10.1056 0.0255043 0)
(9.81992 0.025768 0)
(9.93217 -0.0138982 0)
(9.88015 -0.0345598 0)
(10.0283 -0.0670056 0)
(9.63163 -0.0823276 0)
(9.98541 0.602494 0)
(10.7014 0.599835 0)
(11.2571 0.30842 0)
(11.3614 0.219573 0)
(11.5299 0.209366 0)
(11.5011 0.19249 0)
(11.5691 0.166223 0)
(11.4691 0.141893 0)
(11.4823 0.124425 0)
(11.3204 0.093254 0)
(11.3687 0.0932486 0)
(11.1334 0.0688969 0)
(11.2553 0.062572 0)
(10.9616 0.0553526 0)
(11.1373 0.0314047 0)
(10.8868 0.0384176 0)
(10.9653 -0.0168269 0)
(10.9666 -0.0405848 0)
(11.0844 -0.0616768 0)
(10.6036 -0.101757 0)
(10.0164 0.524195 0)
(10.5781 0.56212 0)
(11.1572 0.289631 0)
(11.2678 0.192193 0)
(11.4785 0.18639 0)
(11.4895 0.180132 0)
(11.6426 0.160475 0)
(11.6192 0.137943 0)
(11.7445 0.125467 0)
(11.6632 0.0931857 0)
(11.8049 0.0989021 0)
(11.6529 0.0732231 0)
(11.8248 0.0679083 0)
(11.6129 0.0629557 0)
(11.8012 0.0323506 0)
(11.6377 0.049222 0)
(11.6705 -0.0212245 0)
(11.7955 -0.0496978 0)
(11.7593 -0.0507647 0)
(11.4604 -0.159027 0)
(10.0508 0.454923 0)
(10.4934 0.517512 0)
(11.0596 0.274413 0)
(11.1905 0.169035 0)
(11.4006 0.163979 0)
(11.4172 0.163914 0)
(11.5795 0.149678 0)
(11.58 0.128102 0)
(11.7282 0.11791 0)
(11.7059 0.0850138 0)
(11.8629 0.0929821 0)
(11.8108 0.0691111 0)
(11.9758 0.063119 0)
(11.8776 0.0635776 0)
(12.0619 0.0236493 0)
(11.9971 0.0562399 0)
(12.0166 -0.0340362 0)
(12.2646 -0.0612617 0)
(12.0663 -0.0397501 0)
(12.0478 -0.24872 0)
(10.0557 0.391173 0)
(10.4553 0.472124 0)
(10.9638 0.260693 0)
(11.1379 0.146735 0)
(11.3244 0.142458 0)
(11.3694 0.148839 0)
(11.4967 0.138507 0)
(11.5314 0.117074 0)
(11.6382 0.106997 0)
(11.6781 0.0756768 0)
(11.7812 0.083949 0)
(11.8202 0.0614562 0)
(11.9197 0.0555613 0)
(11.9121 0.0567082 0)
(12.0758 0.0135097 0)
(12.015 0.053628 0)
(12.1322 -0.0516876 0)
(12.3357 -0.072258 0)
(12.0517 -0.0470355 0)
(12.4135 -0.342691 0)
(10.0324 0.332245 0)
(10.4332 0.426078 0)
(10.8802 0.249726 0)
(11.1011 0.127154 0)
(11.2593 0.121611 0)
(11.3314 0.132726 0)
(11.4276 0.127362 0)
(11.4941 0.10823 0)
(11.5606 0.0971965 0)
(11.6386 0.0666344 0)
(11.6966 0.0723455 0)
(11.7913 0.0542641 0)
(11.8359 0.0484491 0)
(11.899 0.0476614 0)
(12.0179 0.00774 0)
(11.927 0.0465336 0)
(12.2016 -0.0735274 0)
(12.125 -0.0685248 0)
(12.0394 -0.0862367 0)
(12.537 -0.411545 0)
(10.0094 0.280026 0)
(10.4015 0.379555 0)
(10.8133 0.237664 0)
(11.0605 0.10757 0)
(11.2108 0.103031 0)
(11.2927 0.11832 0)
(11.3775 0.115596 0)
(11.4518 0.0970897 0)
(11.5119 0.0867281 0)
(11.5916 0.0595673 0)
(11.6385 0.06244 0)
(11.7469 0.0472902 0)
(11.7646 0.0402452 0)
(11.894 0.0372522 0)
(11.9118 0.00772927 0)
(11.9255 0.0268202 0)
(12.177 -0.0773644 0)
(11.903 -0.0668366 0)
(12.1578 -0.145047 0)
(12.496 -0.448662 0)
(9.9997 0.234578 0)
(10.3628 0.331639 0)
(10.7589 0.221994 0)
(11.0169 0.0916578 0)
(11.1713 0.0856102 0)
(11.2527 0.101443 0)
(11.3381 0.102918 0)
(11.4113 0.0866921 0)
(11.4748 0.078269 0)
(11.5416 0.0506783 0)
(11.604 0.0519564 0)
(11.6948 0.0403313 0)
(11.7227 0.0312911 0)
(11.8649 0.0294289 0)
(11.8061 0.00539113 0)
(11.9957 0.00270344 0)
(12.0069 -0.064708 0)
(11.8782 -0.0920476 0)
(12.2604 -0.191239 0)
(12.2872 -0.454633 0)
(9.99778 0.194037 0)
(10.3288 0.286016 0)
(10.7129 0.198295 0)
(10.9744 0.0781871 0)
(11.1361 0.0711428 0)
(11.2184 0.0872844 0)
(11.3046 0.0899774 0)
(11.3739 0.0745896 0)
(11.4397 0.0680549 0)
(11.4989 0.0439983 0)
(11.5802 0.0424987 0)
(11.6382 0.0347689 0)
(11.7145 0.0201771 0)
(11.7848 0.0270898 0)
(11.7872 -0.00784258 0)
(11.9979 -0.00877195 0)
(11.829 -0.060583 0)
(12.007 -0.122953 0)
(12.2029 -0.223331 0)
(12.0341 -0.417156 0)
(9.9984 0.157202 0)
(10.3017 0.24095 0)
(10.6727 0.170015 0)
(10.9382 0.0679615 0)
(11.1073 0.0589262 0)
(11.1918 0.0706132 0)
(11.2743 0.0769694 0)
(11.3433 0.0635298 0)
(11.4069 0.0600344 0)
(11.4682 0.0351369 0)
(11.5524 0.0340957 0)
(11.6013 0.0259749 0)
(11.7031 0.0146773 0)
(11.6969 0.0202224 0)
(11.8451 -0.0209136 0)
(11.869 -0.0104754 0)
(11.8058 -0.0699521 0)
(12.0928 -0.152977 0)
(12.0379 -0.231185 0)
(11.8352 -0.383161 0)
(9.99962 0.123931 0)
(10.2799 0.196922 0)
(10.6384 0.139613 0)
(10.908 0.0566706 0)
(11.0853 0.0470934 0)
(11.1716 0.0565823 0)
(11.2472 0.0637723 0)
(11.3183 0.0504008 0)
(11.3779 0.0500275 0)
(11.4475 0.0276762 0)
(11.5224 0.0262275 0)
(11.5907 0.0175029 0)
(11.6519 0.0110968 0)
(11.6817 0.00743601 0)
(11.8573 -0.0277455 0)
(11.7201 -0.0130351 0)
(11.9181 -0.0922247 0)
(12.0248 -0.166175 0)
(11.8956 -0.2245 0)
(11.7492 -0.372671 0)
(10.0006 0.0935075 0)
(10.2624 0.152255 0)
(10.6117 0.10895 0)
(10.884 0.0461532 0)
(11.0685 0.0363302 0)
(11.1545 0.0409551 0)
(11.2259 0.0495952 0)
(11.2993 0.0387027 0)
(11.3549 0.0409561 0)
(11.4282 0.0200075 0)
(11.5048 0.0160696 0)
(11.5774 0.0118927 0)
(11.5955 0.0057609 0)
(11.7314 -0.00785269 0)
(11.7559 -0.0251583 0)
(11.7115 -0.0274257 0)
(11.9859 -0.110419 0)
(11.877 -0.165721 0)
(11.8493 -0.22669 0)
(11.7697 -0.387146 0)
(10.0014 0.06513 0)
(10.2496 0.108343 0)
(10.5917 0.0785791 0)
(10.8656 0.0331686 0)
(11.0569 0.0263369 0)
(11.141 0.0274155 0)
(11.2116 0.036428 0)
(11.2834 0.0255229 0)
(11.3372 0.0306057 0)
(11.4138 0.0122068 0)
(11.5014 0.00778504 0)
(11.5383 0.00832622 0)
(11.5978 -0.005911 0)
(11.7391 -0.0155814 0)
(11.644 -0.0235443 0)
(11.821 -0.0528675 0)
(11.9067 -0.11374 0)
(11.7998 -0.166734 0)
(11.867 -0.238907 0)
(11.8021 -0.403254 0)
(10.002 0.0383191 0)
(10.2411 0.0644181 0)
(10.5781 0.0476489 0)
(10.8542 0.0204739 0)
(11.0487 0.0175654 0)
(11.131 0.0129281 0)
(11.2039 0.0222423 0)
(11.2715 0.0133046 0)
(11.324 0.0214418 0)
(11.4111 0.00322771 0)
(11.4893 0.000887234 0)
(11.5074 0.00187746 0)
(11.6424 -0.0168681 0)
(11.6571 -0.0167311 0)
(11.6573 -0.0345713 0)
(11.8718 -0.0689873 0)
(11.7818 -0.111923 0)
(11.8271 -0.175811 0)
(11.8744 -0.254184 0)
(11.791 -0.411915 0)
(10.0022 0.012267 0)
(10.2373 0.0210802 0)
(10.5708 0.0171359 0)
(10.8492 0.00571716 0)
(11.0435 0.00895554 0)
(11.1271 -0.000295398 0)
(11.201 0.00905494 0)
(11.2624 0.000964199 0)
(11.3189 0.00964263 0)
(11.4166 -0.00460668 0)
(11.4613 -0.00380094 0)
(11.5254 -0.00871425 0)
(11.6437 -0.022417 0)
(11.5848 -0.0199448 0)
(11.7528 -0.0514473 0)
(11.7945 -0.0736941 0)
(11.7534 -0.117214 0)
(11.8682 -0.186893 0)
(11.8532 -0.267956 0)
(11.7737 -0.417202 0)
(10.0021 -0.0133184 0)
(10.2377 -0.0223943 0)
(10.5702 -0.0139834 0)
(10.8503 -0.00861547 0)
(11.0418 0.00150969 0)
(11.1293 -0.0145225 0)
(11.1999 -0.00469976 0)
(11.259 -0.0115059 0)
(11.3256 -0.00139744 0)
(11.4124 -0.0104375 0)
(11.4485 -0.0121283 0)
(11.5656 -0.0188024 0)
(11.5848 -0.0227505 0)
(11.617 -0.0325216 0)
(11.7799 -0.0616289 0)
(11.7114 -0.0757902 0)
(11.8054 -0.128544 0)
(11.8654 -0.197848 0)
(11.8258 -0.274695 0)
(11.76 -0.420153 0)
(10.0015 -0.0394156 0)
(10.2426 -0.0657033 0)
(10.5762 -0.0446277 0)
(10.8562 -0.0229764 0)
(11.0454 -0.0072655 0)
(11.1367 -0.0281836 0)
(11.2004 -0.0169506 0)
(11.2655 -0.0249737 0)
(11.3363 -0.0126462 0)
(11.3998 -0.0162452 0)
(11.4755 -0.022393 0)
(11.5648 -0.0238087 0)
(11.5535 -0.0262248 0)
(11.6919 -0.0486406 0)
(11.7173 -0.0612071 0)
(11.7237 -0.0873401 0)
(11.8386 -0.137901 0)
(11.8419 -0.208235 0)
(11.81 -0.272565 0)
(11.7478 -0.431776 0)
(10.0005 -0.0663023 0)
(10.2518 -0.109426 0)
(10.589 -0.0753843 0)
(10.8673 -0.0363445 0)
(11.0555 -0.016113 0)
(11.1458 -0.0419589 0)
(11.206 -0.0304245 0)
(11.2826 -0.0386194 0)
(11.3396 -0.0216957 0)
(11.4052 -0.0240496 0)
(11.5105 -0.0318164 0)
(11.5298 -0.0270901 0)
(11.6002 -0.0358507 0)
(11.701 -0.0568043 0)
(11.6783 -0.0645208 0)
(11.7803 -0.0999819 0)
(11.8312 -0.146372 0)
(11.8265 -0.212139 0)
(11.8155 -0.279359 0)
(11.7447 -0.432379 0)
(9.99949 -0.0947358 0)
(10.2652 -0.153517 0)
(10.608 -0.105598 0)
(10.8847 -0.0489156 0)
(11.0701 -0.0263978 0)
(11.1574 -0.0559871 0)
(11.2212 -0.0434045 0)
(11.3012 -0.0513988 0)
(11.3424 -0.0310241 0)
(11.4378 -0.034501 0)
(11.5132 -0.0368615 0)
(11.531 -0.033739 0)
(11.6569 -0.0455526 0)
(11.6621 -0.0602796 0)
(11.7142 -0.0734349 0)
(11.8058 -0.109959 0)
(11.82 -0.154136 0)
(11.8292 -0.213966 0)
(11.8352 -0.294241 0)
(11.7402 -0.417 0)
(9.99854 -0.125281 0)
(10.2831 -0.197676 0)
(10.6328 -0.136065 0)
(10.91 -0.0606992 0)
(11.0869 -0.0372217 0)
(11.1746 -0.0700828 0)
(11.2441 -0.0573469 0)
(11.3157 -0.0633597 0)
(11.3653 -0.0415188 0)
(11.4676 -0.0431479 0)
(11.5058 -0.0419227 0)
(11.582 -0.0442229 0)
(11.6612 -0.0496205 0)
(11.6633 -0.0674023 0)
(11.7665 -0.0818817 0)
(11.8052 -0.120485 0)
(11.8244 -0.156252 0)
(11.8516 -0.22424 0)
(11.8521 -0.300857 0)
(11.7297 -0.407336 0)
(9.99723 -0.158656 0)
(10.3059 -0.241918 0)
(10.664 -0.166024 0)
(10.9427 -0.0719307 0)
(11.1058 -0.0491223 0)
(11.2003 -0.0849916 0)
(11.268 -0.0701372 0)
(11.3355 -0.0749754 0)
(11.4054 -0.0528347 0)
(11.4772 -0.050267 0)
(11.5337 -0.0497383 0)
(11.6238 -0.0532903 0)
(11.6515 -0.0517272 0)
(11.7151 -0.0780666 0)
(11.7916 -0.0890659 0)
(11.8097 -0.127015 0)
(11.8493 -0.162061 0)
(11.8775 -0.234982 0)
(11.8616 -0.303133 0)
(11.7402 -0.40709 0)
(9.99625 -0.195699 0)
(10.3333 -0.285857 0)
(10.7033 -0.194946 0)
(10.9805 -0.0829412 0)
(11.1312 -0.0622967 0)
(11.2318 -0.099614 0)
(11.292 -0.081967 0)
(11.3712 -0.0881253 0)
(11.4407 -0.0619414 0)
(11.4944 -0.0580294 0)
(11.5853 -0.0585822 0)
(11.6341 -0.0594141 0)
(11.681 -0.0572439 0)
(11.7696 -0.0880644 0)
(11.8033 -0.0934809 0)
(11.837 -0.133655 0)
(11.8849 -0.170751 0)
(11.8897 -0.239877 0)
(11.8772 -0.309604 0)
(11.7842 -0.412765 0)
(9.9985 -0.236418 0)
(10.3653 -0.331496 0)
(10.7524 -0.218441 0)
(11.0207 -0.0958353 0)
(11.1674 -0.0775882 0)
(11.2645 -0.114016 0)
(11.3264 -0.0947965 0)
(11.4142 -0.0994537 0)
(11.4702 -0.0709167 0)
(11.5404 -0.0676991 0)
(11.6235 -0.0656471 0)
(11.6529 -0.0657408 0)
(11.7405 -0.065232 0)
(11.8036 -0.0955441 0)
(11.8321 -0.097352 0)
(11.8826 -0.142564 0)
(11.9091 -0.174459 0)
(11.8998 -0.246889 0)
(11.9113 -0.316715 0)
(11.8294 -0.425009 0)
(10.0104 -0.28195 0)
(10.3993 -0.378467 0)
(10.8119 -0.235157 0)
(11.0597 -0.111977 0)
(11.2139 -0.0958944 0)
(11.2964 -0.128251 0)
(11.3771 -0.108513 0)
(11.4494 -0.109231 0)
(11.515 -0.081784 0)
(11.5916 -0.0768042 0)
(11.6558 -0.0719769 0)
(11.7028 -0.0745267 0)
(11.7951 -0.0726481 0)
(11.8318 -0.102266 0)
(11.8855 -0.101838 0)
(11.9167 -0.150662 0)
(11.9288 -0.173773 0)
(11.9263 -0.258297 0)
(11.9544 -0.319867 0)
(11.8574 -0.444814 0)
(10.038 -0.333941 0)
(10.4244 -0.42548 0)
(10.8859 -0.246919 0)
(11.093 -0.130873 0)
(11.2735 -0.115864 0)
(11.3252 -0.14262 0)
(11.4428 -0.121273 0)
(11.4783 -0.118472 0)
(11.5835 -0.0927246 0)
(11.6226 -0.0850175 0)
(11.7195 -0.0799344 0)
(11.7538 -0.0831309 0)
(11.8476 -0.0788631 0)
(11.8651 -0.109009 0)
(11.9401 -0.106328 0)
(11.9316 -0.15448 0)
(11.9699 -0.175674 0)
(11.9613 -0.26593 0)
(11.9864 -0.32491 0)
(11.863 -0.457384 0)
(10.0679 -0.392679 0)
(10.4387 -0.471069 0)
(10.9787 -0.258826 0)
(11.1231 -0.151054 0)
(11.3513 -0.13752 0)
(11.3494 -0.156297 0)
(11.5237 -0.134055 0)
(11.5084 -0.126583 0)
(11.6681 -0.104311 0)
(11.6469 -0.0929151 0)
(11.8121 -0.0899336 0)
(11.7792 -0.0894865 0)
(11.9206 -0.0862515 0)
(11.8774 -0.113718 0)
(11.9926 -0.110776 0)
(11.9284 -0.157229 0)
(12.016 -0.178526 0)
(11.9368 -0.269854 0)
(11.9543 -0.325474 0)
(11.7399 -0.463965 0)
(10.0673 -0.456134 0)
(10.4733 -0.516966 0)
(11.0812 -0.272646 0)
(11.1702 -0.172839 0)
(11.4327 -0.160117 0)
(11.3886 -0.17013 0)
(11.6094 -0.147234 0)
(11.5502 -0.13484 0)
(11.7528 -0.116036 0)
(11.678 -0.101519 0)
(11.8816 -0.0996974 0)
(11.7757 -0.0949227 0)
(11.9555 -0.093141 0)
(11.8275 -0.116101 0)
(11.9741 -0.114754 0)
(11.8189 -0.157561 0)
(11.9146 -0.17693 0)
(11.7075 -0.26627 0)
(11.6833 -0.311899 0)
(11.3166 -0.460301 0)
(10.0332 -0.525295 0)
(10.5571 -0.561526 0)
(11.1824 -0.288359 0)
(11.2445 -0.195932 0)
(11.507 -0.183055 0)
(11.4553 -0.184119 0)
(11.6731 -0.159518 0)
(11.5856 -0.143152 0)
(11.7671 -0.125492 0)
(11.6381 -0.108277 0)
(11.805 -0.104912 0)
(11.6239 -0.0967957 0)
(11.7737 -0.0952866 0)
(11.5531 -0.112958 0)
(11.6694 -0.112842 0)
(11.4099 -0.148639 0)
(11.4647 -0.167232 0)
(11.1343 -0.24714 0)
(11.0507 -0.286943 0)
(10.5552 -0.432134 0)
(9.9999 -0.603421 0)
(10.683 -0.599482 0)
(11.2793 -0.307337 0)
(11.3367 -0.222159 0)
(11.5547 -0.206898 0)
(11.4699 -0.195588 0)
(11.5973 -0.166604 0)
(11.4354 -0.145588 0)
(11.5036 -0.125532 0)
(11.2908 -0.105908 0)
(11.3559 -0.0992842 0)
(11.1013 -0.0895578 0)
(11.1785 -0.0872369 0)
(10.8892 -0.100717 0)
(10.9524 -0.100922 0)
(10.628 -0.130873 0)
(10.6373 -0.147607 0)
(10.2332 -0.216985 0)
(10.1046 -0.250882 0)
(9.52669 -0.381383 0)
(10.0036 -0.692191 0)
(10.8289 -0.634259 0)
(11.3438 -0.336217 0)
(11.332 -0.252515 0)
(11.3793 -0.221846 0)
(11.1484 -0.192023 0)
(11.0936 -0.156748 0)
(10.808 -0.131137 0)
(10.7415 -0.109227 0)
(10.4581 -0.0897879 0)
(10.4373 -0.0820204 0)
(10.1478 -0.0733089 0)
(10.171 -0.0712032 0)
(9.85929 -0.0821606 0)
(9.88211 -0.0832675 0)
(9.53844 -0.107667 0)
(9.50876 -0.122954 0)
(9.08136 -0.179083 0)
(8.90785 -0.210489 0)
(8.30653 -0.306947 0)
(10.0826 -0.806236 0)
(10.904 -0.668705 0)
(11.1545 -0.358369 0)
(10.8672 -0.256706 0)
(10.6179 -0.201703 0)
(10.205 -0.159482 0)
(9.99185 -0.124532 0)
(9.63593 -0.100546 0)
(9.492 -0.0816536 0)
(9.19627 -0.0664034 0)
(9.13047 -0.0599972 0)
(8.85121 -0.0541461 0)
(8.84232 -0.0527127 0)
(8.54408 -0.0619474 0)
(8.53874 -0.0634326 0)
(8.20632 -0.0825953 0)
(8.14786 -0.0952916 0)
(7.72839 -0.138308 0)
(7.52138 -0.165656 0)
(6.9385 -0.223377 0)
(10.1643 -0.948061 0)
(10.5586 -0.668053 0)
(10.274 -0.33121 0)
(9.62384 -0.210503 0)
(9.14596 -0.146692 0)
(8.66092 -0.108905 0)
(8.38772 -0.0831025 0)
(8.04037 -0.0660936 0)
(7.87742 -0.0528615 0)
(7.61327 -0.0430165 0)
(7.53265 -0.0386523 0)
(7.29304 -0.0356965 0)
(7.26641 -0.0347341 0)
(7.00702 -0.0422424 0)
(6.9817 -0.0435072 0)
(6.68433 -0.0575728 0)
(6.6074 -0.0667796 0)
(6.2192 -0.0979254 0)
(6.00213 -0.116561 0)
(5.44622 -0.155064 0)
(9.85886 -1.0222 0)
(9.33956 -0.577149 0)
(8.48356 -0.241622 0)
(7.62927 -0.130486 0)
(7.10815 -0.0811524 0)
(6.67506 -0.0588071 0)
(6.42378 -0.0448541 0)
(6.13799 -0.03545 0)
(5.99627 -0.0280585 0)
(5.78841 -0.0229327 0)
(5.7162 -0.0205758 0)
(5.53145 -0.0198123 0)
(5.49925 -0.0190948 0)
(5.29496 -0.0246228 0)
(5.2581 -0.025269 0)
(5.01482 -0.0343689 0)
(4.93026 -0.0398818 0)
(4.59822 -0.0595663 0)
(4.38888 -0.0699988 0)
(3.89566 -0.0982789 0)
(8.59971 -0.871968 0)
(6.94701 -0.383477 0)
(5.81541 -0.121764 0)
(5.04961 -0.0512112 0)
(4.66071 -0.0278881 0)
(4.36531 -0.0210861 0)
(4.18956 -0.0164183 0)
(3.9973 -0.0128969 0)
(3.90064 -0.0100217 0)
(3.76512 -0.00829111 0)
(3.71484 -0.00753466 0)
(3.5943 -0.00787918 0)
(3.56599 -0.00734495 0)
(3.42904 -0.0105893 0)
(3.39051 -0.0106557 0)
(3.2197 -0.015211 0)
(3.14205 -0.0175093 0)
(2.8962 -0.0271001 0)
(2.71836 -0.0312033 0)
(2.34742 -0.0487406 0)
(5.32817 -0.309423 0)
(2.98467 -0.0606625 0)
(2.19737 0.0016307 0)
(1.84577 0.00343331 0)
(1.70868 0.00144765 0)
(1.60663 2.45803e-05 0)
(1.54115 -4.64803e-05 0)
(1.47094 6.10769e-06 0)
(1.43575 6.38036e-05 0)
(1.3878 -8.97483e-06 0)
(1.36889 -9.17551e-05 0)
(1.32413 -0.00043659 0)
(1.31001 -0.000103545 0)
(1.25658 -0.000941538 0)
(1.23274 -0.000604331 0)
(1.16083 -0.00143025 0)
(1.11664 -0.00132385 0)
(1.00495 -0.00292415 0)
(0.908574 -0.00320958 0)
(0.74079 -0.00403761 0)
(2.09115 0.162808 0)
(2.77035 0.171954 0)
(3.20602 0.252916 0)
(3.91378 0.251975 0)
(4.66154 0.143043 0)
(5.6079 -0.204681 0)
(5.68956 -0.488124 0)
(6.67755 -0.910186 0)
(7.11092 -1.5681 0)
(7.53646 -2.05443 0)
(8.60864 -2.70841 0)
(8.64747 -3.38795 0)
(9.66058 -4.12043 0)
(9.10772 -5.01108 0)
(9.1628 -5.2234 0)
(8.02365 -5.23833 0)
(7.36391 -4.8266 0)
(6.59919 -3.80244 0)
(5.57425 -3.17034 0)
(5.83473 -2.17193 0)
(5.00507 -0.906361 0)
(4.12681 -0.727432 0)
(4.47676 -0.639776 0)
(4.75064 1.77683 0)
(5.13926 4.63776 0)
(5.80763 5.16666 0)
(5.7019 4.58553 0)
(5.53555 4.22457 0)
(5.79879 3.85824 0)
(6.11553 3.63085 0)
(6.79411 3.29358 0)
(6.50952 3.65559 0)
(7.47576 3.94813 0)
(8.31386 3.7845 0)
(8.56394 4.06356 0)
(9.74742 3.35855 0)
(10.4864 2.01238 0)
(10.6903 1.24375 0)
(11.4217 -0.231654 0)
(11.6871 -1.77765 0)
(11.6442 -2.73276 0)
(11.6662 -3.79516 0)
(10.9418 -4.09981 0)
(10.7896 -4.45132 0)
(11.6091 -5.84348 0)
(11.9703 -6.87807 0)
(12.1404 -7.52155 0)
(12.052 -8.06013 0)
(11.5361 -7.92741 0)
(11.1089 -7.66357 0)
(10.8835 -7.81949 0)
(10.5748 -7.72076 0)
(10.1078 -7.29036 0)
(9.92804 -7.22465 0)
(10.1377 -7.59096 0)
(10.2932 -7.75478 0)
(10.1821 -7.49061 0)
(9.95099 -7.21099 0)
(9.92678 -7.07512 0)
(10.3632 -7.12187 0)
(11.0144 -7.27474 0)
(11.4175 -6.92013 0)
(11.6013 -5.98681 0)
(11.7893 -5.10547 0)
(11.9513 -4.15958 0)
(11.9854 -2.75739 0)
(11.8167 -1.36522 0)
(11.5878 -0.196379 0)
(11.3964 1.14489 0)
(11.0579 2.50838 0)
(10.4863 3.42677 0)
(9.85232 4.01115 0)
(9.27364 4.56204 0)
(8.70614 4.97989 0)
(8.12221 5.03546 0)
(7.57026 4.76591 0)
(7.09155 4.37031 0)
(6.69816 3.9761 0)
(6.39421 3.5974 0)
(6.16482 3.2379 0)
(5.98423 2.90694 0)
(5.8302 2.63346 0)
(5.70192 2.39113 0)
(5.60183 2.1929 0)
(5.53257 1.99151 0)
(5.48329 1.84982 0)
(5.44185 1.69695 0)
(5.4054 1.62702 0)
(5.36952 1.4962 0)
(5.35339 1.4412 0)
(5.34058 1.26385 0)
(5.3504 1.18158 0)
(5.34616 0.964722 0)
(5.34721 0.895676 0)
(5.33548 0.704704 0)
(5.31519 0.693303 0)
(5.31707 0.560396 0)
(5.28199 0.585531 0)
(5.31843 0.505634 0)
(5.25356 0.50345 0)
(5.34163 0.476977 0)
(5.21335 0.407151 0)
(5.37777 0.425973 0)
(5.1723 0.320549 0)
(5.39897 0.333885 0)
(5.17395 0.270601 0)
(5.36602 0.229704 0)
(5.24261 0.232035 0)
(5.28183 0.166915 0)
(5.33905 0.170193 0)
(5.20536 0.15876 0)
(5.39357 0.102554 0)
(5.18765 0.15971 0)
(5.38247 0.0749675 0)
(5.2112 0.127435 0)
(5.35383 0.0889527 0)
(5.21778 0.0802333 0)
(5.35842 0.0981589 0)
(5.19121 0.0575151 0)
(5.38659 0.0830356 0)
(5.1657 0.0566686 0)
(5.39859 0.0685626 0)
(5.16307 0.0529883 0)
(5.39076 0.0638199 0)
(5.16682 0.0486887 0)
(5.38802 0.0545349 0)
(5.16093 0.0506374 0)
(5.39553 0.0481389 0)
(5.15205 0.046285 0)
(5.40006 0.05576 0)
(5.14672 0.0361628 0)
(5.40214 0.0600777 0)
(5.14251 0.0385835 0)
(5.40449 0.0536868 0)
(5.14095 0.0454889 0)
(5.40657 0.0579342 0)
(5.1344 0.0418657 0)
(5.41784 0.0685864 0)
(5.12171 0.0452626 0)
(5.42731 0.070403 0)
(5.11748 0.0555992 0)
(5.43196 0.0778182 0)
(5.10927 0.0606758 0)
(5.44399 0.0878194 0)
(5.10253 0.0730078 0)
(5.4456 0.0955981 0)
(5.10763 0.0839476 0)
(5.4446 0.114792 0)
(5.10846 0.0938728 0)
(5.45116 0.126328 0)
(5.10472 0.123292 0)
(5.4579 0.135414 0)
(5.116 0.13836 0)
(5.43579 0.178694 0)
(5.15159 0.140994 0)
(5.43328 0.20295 0)
(5.13331 0.206349 0)
(5.47528 0.177623 0)
(5.13521 0.275708 0)
(5.43323 0.223854 0)
(5.22373 0.265182 0)
(5.37433 0.308902 0)
(5.28083 0.309985 0)
(5.34728 0.324037 0)
(5.3624 0.396518 0)
(5.28516 0.359179 0)
(5.44542 0.473415 0)
(5.24341 0.410047 0)
(5.54722 0.542755 0)
(5.18589 0.490522 0)
(5.63343 0.629393 0)
(5.1829 0.56608 0)
(5.69848 0.708038 0)
(5.19981 0.704743 0)
(5.72712 0.790948 0)
(5.30189 0.831843 0)
(5.70131 0.878075 0)
(5.4681 1.02994 0)
(5.56468 0.986925 0)
(5.7123 1.20615 0)
(5.45334 1.12855 0)
(5.91521 1.39977 0)
(5.40776 1.35345 0)
(5.99047 1.54251 0)
(5.51393 1.66654 0)
(5.87671 1.71469 0)
(5.82354 1.98347 0)
(5.70948 2.00186 0)
(6.04291 2.24127 0)
(5.69993 2.46207 0)
(5.79488 2.53928 0)
(5.8275 2.95672 0)
(5.43619 3.1728 0)
(5.7401 3.41015 0)
(5.48717 3.99639 0)
(5.49014 4.34558 0)
(5.44934 4.92238 0)
(5.15158 6.14734 0)
(5.43503 7.14399 0)
(3.03974 10.451 0)
(4.01827 0.0111797 0)
(4.48205 -0.019857 0)
(4.89074 0.0681775 0)
(5.46658 -0.00148809 0)
(5.91678 -0.10541 0)
(7.03778 -0.444735 0)
(7.09589 -0.713787 0)
(7.89274 -1.15148 0)
(8.6003 -1.73098 0)
(8.76203 -2.21237 0)
(9.90647 -2.93046 0)
(9.5752 -3.50568 0)
(10.3433 -4.11733 0)
(9.72239 -4.90571 0)
(9.52494 -5.01169 0)
(8.46405 -4.89076 0)
(7.55077 -4.58876 0)
(6.9717 -3.41649 0)
(5.77524 -2.98768 0)
(6.12872 -2.1151 0)
(5.38037 -0.612761 0)
(4.88972 -0.488007 0)
(5.00744 -0.806869 0)
(4.94926 1.48961 0)
(5.46605 4.55081 0)
(6.02792 5.13253 0)
(5.92853 4.6974 0)
(5.82443 4.21522 0)
(6.04938 3.74396 0)
(6.29767 3.52385 0)
(6.8625 3.10506 0)
(6.73648 3.41443 0)
(7.60291 3.68408 0)
(8.48925 3.4564 0)
(8.87706 3.68892 0)
(10.0236 3.06426 0)
(10.7615 1.77213 0)
(11.0749 1.02211 0)
(11.7215 -0.380142 0)
(11.9929 -1.83905 0)
(11.8927 -2.70248 0)
(11.735 -3.63961 0)
(11.1281 -3.98216 0)
(11.314 -4.62539 0)
(12.1586 -6.08166 0)
(12.3577 -6.95126 0)
(12.4214 -7.51185 0)
(12.194 -7.94549 0)
(11.5558 -7.71346 0)
(11.1897 -7.53711 0)
(10.9471 -7.7431 0)
(10.5389 -7.54511 0)
(10.1166 -7.14527 0)
(10.0226 -7.25744 0)
(10.195 -7.65519 0)
(10.2314 -7.72501 0)
(10.0009 -7.40906 0)
(9.75252 -7.18538 0)
(9.79292 -7.20639 0)
(10.2517 -7.34718 0)
(10.8584 -7.45721 0)
(11.1876 -7.03031 0)
(11.2859 -6.06169 0)
(11.4329 -5.15074 0)
(11.584 -4.16484 0)
(11.5695 -2.71732 0)
(11.364 -1.27871 0)
(11.1288 -0.0957864 0)
(10.9398 1.2547 0)
(10.6336 2.67172 0)
(10.1113 3.64982 0)
(9.51361 4.25233 0)
(8.95435 4.79333 0)
(8.40254 5.20438 0)
(7.84269 5.25714 0)
(7.32417 4.97386 0)
(6.87775 4.55009 0)
(6.50825 4.12103 0)
(6.22278 3.7073 0)
(6.01062 3.32052 0)
(5.84803 2.97141 0)
(5.70991 2.68901 0)
(5.59607 2.43528 0)
(5.50494 2.22899 0)
(5.44195 2.01321 0)
(5.39432 1.87098 0)
(5.35879 1.70618 0)
(5.33398 1.6439 0)
(5.31873 1.49427 0)
(5.33089 1.45071 0)
(5.33766 1.2495 0)
(5.37413 1.19095 0)
(5.35607 0.951029 0)
(5.37873 0.918252 0)
(5.30372 0.694824 0)
(5.33013 0.725952 0)
(5.21207 0.543503 0)
(5.29346 0.618775 0)
(5.1401 0.47999 0)
(5.29049 0.531243 0)
(5.11351 0.453602 0)
(5.28746 0.42262 0)
(5.14174 0.41433 0)
(5.26307 0.321921 0)
(5.20756 0.330394 0)
(5.2351 0.26761 0)
(5.26869 0.223677 0)
(5.22276 0.236729 0)
(5.30791 0.152499 0)
(5.21606 0.184684 0)
(5.34285 0.137484 0)
(5.19845 0.123471 0)
(5.37603 0.135482 0)
(5.18268 0.0982757 0)
(5.38096 0.106581 0)
(5.18958 0.105587 0)
(5.36212 0.0740091 0)
(5.19626 0.0938958 0)
(5.36703 0.0739649 0)
(5.17021 0.0579916 0)
(5.40429 0.0846512 0)
(5.13622 0.0438735 0)
(5.42176 0.0700926 0)
(5.13675 0.0571361 0)
(5.40313 0.0478375 0)
(5.15427 0.0588953 0)
(5.3928 0.0481759 0)
(5.15088 0.0436466 0)
(5.40529 0.0588556 0)
(5.13641 0.0364188 0)
(5.41142 0.0585696 0)
(5.13538 0.0376617 0)
(5.40773 0.0580546 0)
(5.13544 0.0345931 0)
(5.41589 0.0647077 0)
(5.12139 0.0339426 0)
(5.43234 0.0688608 0)
(5.10686 0.0381228 0)
(5.44604 0.0736172 0)
(5.09346 0.0433463 0)
(5.46148 0.0782807 0)
(5.08265 0.0543459 0)
(5.46704 0.0851168 0)
(5.08189 0.0575351 0)
(5.4755 0.103268 0)
(5.06794 0.0649944 0)
(5.49479 0.109804 0)
(5.05982 0.0869973 0)
(5.49973 0.122727 0)
(5.05852 0.0926026 0)
(5.51295 0.153286 0)
(5.05213 0.104572 0)
(5.52472 0.168724 0)
(5.04202 0.14262 0)
(5.5567 0.169694 0)
(5.03056 0.181994 0)
(5.53996 0.21407 0)
(5.101 0.160914 0)
(5.49183 0.297667 0)
(5.12155 0.200625 0)
(5.53938 0.266813 0)
(5.10739 0.321067 0)
(5.52082 0.288381 0)
(5.19129 0.337883 0)
(5.47833 0.36059 0)
(5.24314 0.406752 0)
(5.43793 0.405551 0)
(5.36987 0.469715 0)
(5.35579 0.458442 0)
(5.48988 0.576634 0)
(5.26205 0.525252 0)
(5.66012 0.655184 0)
(5.19671 0.596024 0)
(5.77779 0.782543 0)
(5.14182 0.722316 0)
(5.89635 0.849742 0)
(5.22645 0.863717 0)
(5.86119 0.966027 0)
(5.36956 1.07951 0)
(5.79531 1.06188 0)
(5.66604 1.26456 0)
(5.63858 1.20194 0)
(5.91364 1.50311 0)
(5.47361 1.45593 0)
(6.0479 1.68688 0)
(5.57073 1.77331 0)
(5.94777 1.83757 0)
(5.86671 2.13977 0)
(5.68048 2.17494 0)
(6.13034 2.43147 0)
(5.77664 2.70566 0)
(5.98967 2.76556 0)
(6.06509 3.25665 0)
(5.7459 3.55087 0)
(5.81992 3.8812 0)
(5.7381 4.58804 0)
(5.4056 5.23857 0)
(5.20244 6.3227 0)
(6.71734 6.86786 0)
(4.35686 11.2975 0)
(5.98335 -0.130264 0)
(6.23638 -0.224213 0)
(6.54267 -0.173979 0)
(7.25685 -0.246593 0)
(7.38208 -0.334576 0)
(8.4302 -0.716981 0)
(8.64659 -0.920795 0)
(9.14271 -1.37018 0)
(9.88474 -1.93112 0)
(9.8248 -2.35983 0)
(10.8483 -3.10399 0)
(10.3548 -3.57561 0)
(10.8398 -4.05783 0)
(10.2403 -4.75041 0)
(9.72246 -4.74236 0)
(8.79766 -4.5181 0)
(7.66645 -4.3188 0)
(7.17713 -3.05857 0)
(6.04316 -2.77626 0)
(6.33683 -2.08258 0)
(5.69509 -0.364715 0)
(5.51118 -0.283099 0)
(5.44149 -0.858781 0)
(5.071 1.3225 0)
(5.79211 4.47272 0)
(6.27238 5.08302 0)
(6.16407 4.68857 0)
(6.12702 4.16019 0)
(6.23908 3.62503 0)
(6.56592 3.43839 0)
(7.06694 2.96314 0)
(7.04093 3.19725 0)
(7.73158 3.43968 0)
(8.61735 3.09303 0)
(9.13573 3.29331 0)
(10.1303 2.7838 0)
(10.9698 1.52794 0)
(11.3588 0.79836 0)
(11.9111 -0.533925 0)
(12.1943 -1.89329 0)
(12.0052 -2.63818 0)
(11.7525 -3.47989 0)
(11.4067 -3.94466 0)
(11.8914 -4.8675 0)
(12.6585 -6.2977 0)
(12.6783 -6.96163 0)
(12.6205 -7.43808 0)
(12.2836 -7.77803 0)
(11.5813 -7.48138 0)
(11.2582 -7.41473 0)
(11.0043 -7.63556 0)
(10.498 -7.34883 0)
(10.1148 -7.04178 0)
(10.1147 -7.32086 0)
(10.2133 -7.68309 0)
(10.0966 -7.63612 0)
(9.77057 -7.32024 0)
(9.54012 -7.18789 0)
(9.63817 -7.34715 0)
(10.0915 -7.56812 0)
(10.6252 -7.61092 0)
(10.8684 -7.10384 0)
(10.9036 -6.11132 0)
(11.0111 -5.18041 0)
(11.1313 -4.14934 0)
(11.0764 -2.66425 0)
(10.833 -1.18824 0)
(10.5927 0.000268484 0)
(10.4185 1.35937 0)
(10.1406 2.81981 0)
(9.66197 3.85537 0)
(9.11496 4.47892 0)
(8.58959 5.01504 0)
(8.05864 5.41897 0)
(7.53023 5.46311 0)
(7.05402 5.1665 0)
(6.6436 4.71881 0)
(6.29922 4.25654 0)
(6.03681 3.80918 0)
(5.84897 3.39878 0)
(5.7098 3.03434 0)
(5.5917 2.74319 0)
(5.49307 2.47628 0)
(5.4122 2.26267 0)
(5.35023 2.03252 0)
(5.30389 1.89241 0)
(5.26527 1.7105 0)
(5.256 1.65722 0)
(5.25087 1.47832 0)
(5.29827 1.45462 0)
(5.31316 1.21909 0)
(5.38048 1.2036 0)
(5.34914 0.927046 0)
(5.38335 0.956294 0)
(5.28246 0.678806 0)
(5.29902 0.780437 0)
(5.17225 0.519946 0)
(5.21426 0.671767 0)
(5.1061 0.446862 0)
(5.16765 0.570545 0)
(5.11644 0.423702 0)
(5.13768 0.442711 0)
(5.18655 0.393557 0)
(5.12459 0.330729 0)
(5.24843 0.311292 0)
(5.17298 0.278687 0)
(5.2343 0.201993 0)
(5.28621 0.249179 0)
(5.17116 0.136371 0)
(5.38016 0.189025 0)
(5.15464 0.133641 0)
(5.38271 0.119333 0)
(5.21258 0.13835 0)
(5.32839 0.0980278 0)
(5.26235 0.101488 0)
(5.31337 0.118995 0)
(5.23571 0.0567558 0)
(5.35764 0.116403 0)
(5.18314 0.048728 0)
(5.3917 0.0846268 0)
(5.17354 0.0560302 0)
(5.38498 0.0725884 0)
(5.18541 0.0449666 0)
(5.37647 0.0776421 0)
(5.18066 0.0366844 0)
(5.37973 0.0649203 0)
(5.17968 0.0443073 0)
(5.37161 0.0534052 0)
(5.19343 0.0416074 0)
(5.35965 0.064219 0)
(5.19305 0.0287441 0)
(5.36729 0.0677954 0)
(5.17886 0.0346607 0)
(5.37746 0.054887 0)
(5.17685 0.0457438 0)
(5.37839 0.0594242 0)
(5.17044 0.0385034 0)
(5.39628 0.0727375 0)
(5.14756 0.0421273 0)
(5.41532 0.0710416 0)
(5.14202 0.0531448 0)
(5.41781 0.0840927 0)
(5.13274 0.0496779 0)
(5.44193 0.0970553 0)
(5.10908 0.0650374 0)
(5.45758 0.100437 0)
(5.11087 0.0734158 0)
(5.46264 0.128037 0)
(5.09592 0.0766131 0)
(5.49337 0.138923 0)