/*--------------------------------*- C++ -*----------------------------------*\
| =========                 |                                                 |
| \\      /  F ield         | OpenFOAM: The Open Source CFD Toolbox           |
|  \\    /   O peration     | Version:  2.4.0                                 |
|   \\  /    A nd           | Web:      www.OpenFOAM.org                      |
|    \\/     M anipulation  |                                                 |
\*---------------------------------------------------------------------------*/
FoamFile
{
    version     2.0;
    format      ascii;
    class       volScalarField;
    location    "0.002";
    object      kMean;
}
// * * * * * * * * * * * * * * * * * * * * * * * * * * * * * * * * * * * * * //

dimensions      [0 2 -2 0 0 0 0];

internalField   nonuniform List<scalar> 
17600
(
0.590658
0.790844
0.943581
1.04594
1.10623
1.13456
1.14054
1.13217
1.11537
1.09424
1.07149
1.04872
1.02705
1.00714
0.989186
0.973239
0.959114
0.946677
0.934852
0.952816
0.416913
0.422412
0.424737
0.428549
0.431988
0.434925
0.438416
0.443267
0.449839
0.458277
0.468729
0.481274
0.495756
0.512114
0.530037
0.549225
0.569378
0.590308
0.614169
0.707088
0.387168
0.38379
0.376541
0.368664
0.36057
0.35239
0.344791
0.338521
0.333943
0.331185
0.330335
0.331497
0.334677
0.339874
0.347042
0.356179
0.36735
0.380868
0.398656
0.468521
0.379173
0.374476
0.368205
0.361327
0.35401
0.346327
0.338633
0.331352
0.324691
0.318779
0.313728
0.309663
0.306652
0.304725
0.303914
0.304275
0.305933
0.30928
0.31532
0.353688
0.37723
0.371852
0.365697
0.359352
0.352852
0.346241
0.339685
0.333318
0.327191
0.321369
0.315916
0.310918
0.306427
0.302462
0.299045
0.296203
0.293999
0.292713
0.292431
0.312224
0.376698
0.370993
0.364689
0.358368
0.352091
0.345935
0.339971
0.334195
0.328582
0.323149
0.317913
0.31292
0.308205
0.303773
0.299637
0.295803
0.292302
0.289346
0.286617
0.296882
0.376555
0.370744
0.364359
0.357988
0.35172
0.345657
0.339837
0.334221
0.328773
0.323492
0.318375
0.313434
0.308692
0.304148
0.299802
0.295654
0.291722
0.288189
0.28472
0.28986
0.376518
0.370702
0.364323
0.357963
0.351705
0.345648
0.339823
0.3342
0.328754
0.323483
0.318379
0.313441
0.308681
0.304095
0.299679
0.295428
0.291352
0.287615
0.284024
0.286187
0.376511
0.370717
0.364377
0.358068
0.351854
0.345818
0.339989
0.334353
0.328897
0.323622
0.318523
0.313591
0.308832
0.30424
0.299809
0.295532
0.291411
0.28759
0.284027
0.28438
0.376513
0.370741
0.364438
0.358186
0.352029
0.346034
0.340229
0.334607
0.329166
0.323909
0.318831
0.313923
0.309184
0.304611
0.300193
0.295924
0.291801
0.287951
0.284442
0.283692
0.376518
0.370764
0.364484
0.358276
0.352172
0.346225
0.34046
0.334873
0.329467
0.324243
0.319198
0.314324
0.309616
0.305071
0.30068
0.296435
0.292335
0.28849
0.285044
0.283626
0.376527
0.370785
0.364517
0.358337
0.352274
0.34637
0.340647
0.335103
0.329739
0.324556
0.31955
0.314715
0.310044
0.305533
0.301175
0.296963
0.292899
0.28908
0.285696
0.283873
0.376537
0.370807
0.364543
0.358379
0.352343
0.346472
0.340785
0.335281
0.329958
0.324817
0.319852
0.315057
0.310425
0.305951
0.30163
0.297456
0.293433
0.289648
0.286319
0.284248
0.376549
0.37083
0.364567
0.358411
0.352392
0.346542
0.340882
0.335409
0.330122
0.325018
0.320091
0.315334
0.31074
0.306304
0.30202
0.297885
0.293903
0.290155
0.286873
0.284647
0.376563
0.370855
0.364591
0.358439
0.352429
0.346592
0.340949
0.335499
0.330239
0.325164
0.320269
0.315546
0.310986
0.306585
0.302337
0.298238
0.294295
0.290581
0.287338
0.285013
0.376577
0.370882
0.364617
0.358466
0.35246
0.346631
0.340998
0.335562
0.33032
0.325267
0.320396
0.3157
0.311169
0.306798
0.302581
0.298514
0.294606
0.290923
0.287711
0.285319
0.376592
0.370909
0.364643
0.358492
0.352488
0.346662
0.341034
0.335606
0.330376
0.325337
0.320484
0.315808
0.3113
0.306952
0.30276
0.29872
0.294842
0.291183
0.287994
0.285555
0.376606
0.370935
0.364668
0.358516
0.352513
0.346687
0.341061
0.335638
0.330414
0.325385
0.320543
0.315881
0.311388
0.307058
0.302885
0.298866
0.29501
0.291371
0.288197
0.28572
0.376619
0.370956
0.364689
0.358535
0.352532
0.346706
0.341081
0.33566
0.33044
0.325416
0.320581
0.315928
0.311445
0.307126
0.302965
0.29896
0.29512
0.291493
0.288327
0.285818
0.376628
0.370971
0.364701
0.358547
0.352544
0.346719
0.341094
0.335674
0.330456
0.325434
0.320603
0.315953
0.311475
0.307162
0.303008
0.299011
0.295179
0.291557
0.288392
0.285853
0.376629
0.370973
0.364702
0.358548
0.352546
0.346723
0.3411
0.335681
0.330463
0.325442
0.32061
0.315961
0.311483
0.30717
0.303017
0.29902
0.29519
0.291567
0.288396
0.285827
0.376621
0.370962
0.364693
0.35854
0.35254
0.34672
0.341099
0.33568
0.330461
0.325437
0.320603
0.31595
0.311467
0.307149
0.30299
0.298988
0.295152
0.291521
0.288338
0.285738
0.376609
0.370944
0.364677
0.358526
0.352527
0.346709
0.341089
0.335669
0.330447
0.325419
0.320578
0.315916
0.311423
0.307094
0.302923
0.298909
0.295061
0.291416
0.288215
0.285583
0.376595
0.370922
0.364658
0.358508
0.35251
0.346692
0.34107
0.335647
0.330419
0.325382
0.320529
0.315853
0.311344
0.306996
0.302807
0.298775
0.294909
0.291243
0.288019
0.285354
0.376581
0.370899
0.364638
0.358489
0.35249
0.346669
0.341043
0.335612
0.330372
0.325319
0.320448
0.31575
0.311217
0.306845
0.30263
0.298573
0.294682
0.290991
0.28774
0.285042
0.376568
0.370876
0.364618
0.358469
0.352466
0.346639
0.341002
0.335556
0.330297
0.325221
0.320322
0.315595
0.31103
0.306626
0.302379
0.29829
0.29437
0.29065
0.28737
0.284642
0.376556
0.370854
0.3646
0.358448
0.352437
0.346596
0.340941
0.335471
0.330182
0.325073
0.320138
0.315372
0.310768
0.306325
0.30204
0.297916
0.293964
0.290214
0.286905
0.284155
0.376545
0.370834
0.364582
0.358423
0.352396
0.346532
0.340848
0.335343
0.330014
0.324862
0.319882
0.31507
0.31042
0.305932
0.301607
0.297446
0.293462
0.289686
0.286351
0.283595
0.376536
0.370816
0.364562
0.358387
0.352332
0.346434
0.34071
0.335158
0.329779
0.324575
0.319544
0.314681
0.309982
0.305448
0.301082
0.296886
0.292876
0.289083
0.285731
0.283001
0.376529
0.370798
0.364534
0.358331
0.352233
0.346287
0.340513
0.334907
0.329473
0.324214
0.319128
0.314212
0.309465
0.304887
0.300484
0.296261
0.292235
0.288445
0.285096
0.282444
0.376524
0.370778
0.364491
0.358241
0.352086
0.346084
0.340257
0.334599
0.329111
0.323798
0.318658
0.313692
0.308899
0.304283
0.299851
0.295614
0.291595
0.287841
0.284541
0.28204
0.376523
0.370755
0.364431
0.358118
0.351895
0.345837
0.339967
0.33427
0.32874
0.323384
0.318197
0.313185
0.308354
0.303711
0.299268
0.295041
0.291069
0.287414
0.284246
0.282019
0.376531
0.37074
0.36437
0.357993
0.351709
0.345609
0.33972
0.33401
0.328465
0.323088
0.317869
0.312832
0.307986
0.303343
0.298927
0.294763
0.290914
0.28746
0.284571
0.282809
0.376567
0.370778
0.36439
0.357982
0.351668
0.345546
0.339653
0.333951
0.328412
0.323036
0.317812
0.312787
0.307971
0.30339
0.29908
0.295083
0.291493
0.288409
0.286015
0.284983
0.376708
0.371015
0.364694
0.358324
0.352005
0.345821
0.339844
0.334061
0.328448
0.323013
0.317754
0.312759
0.308038
0.303627
0.299586
0.295976
0.292916
0.290518
0.288987
0.288994
0.377234
0.371856
0.365681
0.359325
0.352871
0.346366
0.339959
0.333753
0.327791
0.322121
0.31678
0.311904
0.307491
0.303612
0.30034
0.297749
0.295958
0.295071
0.295292
0.296986
0.379162
0.374458
0.368207
0.361435
0.354347
0.346983
0.339652
0.332721
0.326381
0.320749
0.315914
0.312065
0.309169
0.307328
0.306635
0.307153
0.308943
0.31204
0.316542
0.322009
0.387131
0.383769
0.376615
0.368956
0.361232
0.353518
0.346413
0.340599
0.336398
0.333937
0.333302
0.334661
0.337873
0.343045
0.350196
0.35926
0.370111
0.382518
0.396189
0.409359
0.416932
0.422451
0.424906
0.428964
0.432766
0.436187
0.440203
0.445527
0.452435
0.46109
0.471654
0.484197
0.498628
0.514862
0.532709
0.551837
0.571804
0.592068
0.611862
0.628096
0.590656
0.790885
0.943721
1.04624
1.10677
1.13539
1.14169
1.13364
1.11714
1.09631
1.07381
1.05125
1.02991
1.01037
0.992988
0.978011
0.965584
0.955879
0.949054
0.944608
1.23841
1.54782
1.78973
1.95141
2.02518
2.02892
1.99007
1.93157
1.86818
1.80779
1.75375
1.70695
1.66722
1.6339
1.60621
1.58332
1.56449
1.54897
1.53612
1.52532
1.51598
1.50758
1.4996
1.49157
1.48307
1.47368
1.46306
1.45087
1.43683
1.42072
1.40232
1.38149
1.35813
1.33218
1.30366
1.27267
1.23934
1.20384
1.16638
1.12722
1.08665
1.04501
1.00265
0.959963
0.917379
0.875335
0.834286
0.794687
0.756982
0.721592
0.688888
0.659182
0.632698
0.609566
0.589803
0.573316
0.559905
0.549283
0.541094
0.534947
0.530436
0.527172
0.524797
0.523002
0.521528
0.520175
0.518796
0.517291
0.515604
0.513706
0.511595
0.509278
0.506776
0.50411
0.501305
0.498384
0.495367
0.492273
0.489117
0.485913
0.482671
0.479397
0.476097
0.472775
0.46943
0.46606
0.462662
0.459228
0.455749
0.452216
0.448615
0.444936
0.441167
0.437302
0.433334
0.429262
0.425088
0.420819
0.416463
0.412033
0.407542
0.403004
0.398433
0.393844
0.38925
0.384664
0.380097
0.375561
0.371066
0.366619
0.36223
0.357904
0.353648
0.349466
0.345361
0.341339
0.3374
0.333547
0.329781
0.326104
0.322515
0.319015
0.315603
0.31228
0.309044
0.305895
0.302831
0.299851
0.296955
0.29414
0.291405
0.288749
0.286169
0.283665
0.281235
0.278877
0.27659
0.274372
0.272221
0.270136
0.268116
0.266158
0.264262
0.262426
0.260649
0.258929
0.257265
0.255657
0.254102
0.2526
0.25115
0.249752
0.248404
0.247107
0.24586
0.244663
0.243516
0.242421
0.24138
0.240392
0.239461
0.23859
0.237781
0.237039
0.23637
0.235781
0.23528
0.234877
0.234586
0.234423
0.234407
0.234562
0.234917
0.235508
0.23638
0.237588
0.2392
0.241303
0.244004
0.24744
0.251787
0.257272
0.264193
0.272946
0.284066
0.298281
0.316607
0.340475
0.37193
0.413937
0.47085
0.54914
0.658553
0.813758
1.03695
1.35888
1.82453
2.44476
3.33517
1.86536
0.750372
0.823554
0.930264
1.06879
1.22106
1.36538
1.48536
1.57249
1.62626
1.65162
1.65574
1.64572
1.62746
1.6052
1.58178
1.5589
1.5375
1.51799
1.50044
1.48469
1.47044
1.45731
1.44489
1.43275
1.42047
1.40765
1.39394
1.37901
1.36257
1.34439
1.32428
1.30207
1.27767
1.25102
1.22217
1.1912
1.15825
1.12346
1.08707
1.04931
1.01047
0.970883
0.930908
0.890932
0.851369
0.812648
0.775205
0.739468
0.705846
0.674707
0.646363
0.62105
0.598908
0.579977
0.564187
0.551363
0.54124
0.533485
0.527724
0.523567
0.520634
0.518575
0.517085
0.51591
0.514849
0.513755
0.512529
0.511112
0.509477
0.507616
0.50554
0.503268
0.500822
0.498227
0.495507
0.492685
0.489779
0.486807
0.483783
0.480718
0.477622
0.474501
0.471359
0.4682
0.465023
0.461828
0.458611
0.455365
0.452084
0.448757
0.445374
0.441924
0.438395
0.434779
0.431067
0.427255
0.423344
0.419335
0.415237
0.411058
0.406809
0.402503
0.398154
0.393774
0.389377
0.384975
0.380579
0.376202
0.371853
0.367541
0.363276
0.359063
0.35491
0.350822
0.346803
0.342857
0.338987
0.335197
0.331487
0.327859
0.324314
0.320852
0.317475
0.31418
0.31097
0.307841
0.304795
0.30183
0.298944
0.296137
0.293408
0.290755
0.288176
0.285671
0.283238
0.280875
0.278581
0.276355
0.274194
0.272099
0.270066
0.268096
0.266186
0.264335
0.262542
0.260805
0.259124
0.257498
0.255925
0.254405
0.252936
0.251518
0.250151
0.248834
0.247567
0.246349
0.245182
0.244067
0.243004
0.241996
0.241044
0.240152
0.239322
0.23856
0.23787
0.23726
0.236738
0.236315
0.236004
0.23582
0.235782
0.235915
0.236248
0.236815
0.237663
0.238844
0.240427
0.242498
0.245163
0.248559
0.252861
0.258296
0.265164
0.273862
0.28493
0.299111
0.317441
0.341394
0.373098
0.41566
0.473682
0.554062
0.667272
0.829271
1.06438
1.40747
1.90621
2.58948
3.47377
2.23475
0.49132
0.518368
0.55208
0.600936
0.66769
0.751329
0.847209
0.948281
1.04687
1.13639
1.21231
1.27253
1.3171
1.34762
1.3665
1.37639
1.37968
1.37838
1.37399
1.36754
1.35973
1.35091
1.34127
1.33081
1.31947
1.30709
1.29353
1.2786
1.26213
1.24397
1.22399
1.20208
1.17819
1.15231
1.12451
1.0949
1.0636
1.0308
0.9967
0.961553
0.925647
0.889306
0.852881
0.816752
0.781316
0.74698
0.714148
0.683207
0.654511
0.628363
0.604997
0.584559
0.567101
0.55257
0.540812
0.531589
0.524592
0.519469
0.515856
0.513391
0.511743
0.51062
0.50978
0.509031
0.508233
0.507289
0.506144
0.504769
0.50316
0.501326
0.499284
0.49706
0.494677
0.492161
0.489535
0.486819
0.484032
0.481188
0.478302
0.475382
0.472436
0.469472
0.466492
0.463499
0.460493
0.457474
0.454438
0.451381
0.448296
0.445174
0.442006
0.438782
0.43549
0.43212
0.428662
0.425111
0.421464
0.417721
0.413886
0.409965
0.405968
0.401905
0.397788
0.393629
0.38944
0.385233
0.38102
0.376813
0.372621
0.368455
0.364323
0.360233
0.356192
0.352206
0.34828
0.344418
0.340625
0.336903
0.333255
0.329682
0.326186
0.322768
0.319428
0.316167
0.312985
0.309881
0.306856
0.303907
0.301035
0.298239
0.295517
0.292868
0.290292
0.287787
0.285352
0.282985
0.280685
0.278452
0.276282
0.274176
0.272132
0.270149
0.268225
0.266359
0.26455
0.262797
0.261098
0.259454
0.257862
0.256322
0.254834
0.253396
0.252008
0.25067
0.249381
0.248142
0.246953
0.245816
0.244731
0.243701
0.242726
0.241811
0.240959
0.240174
0.239462
0.238829
0.238285
0.237839
0.237505
0.237298
0.237238
0.237348
0.237657
0.2382
0.239022
0.240177
0.241732
0.243771
0.246402
0.249759
0.254017
0.259403
0.266215
0.274852
0.285856
0.299977
0.318268
0.342236
0.374072
0.416999
0.475828
0.557811
0.67401
0.841407
1.08586
1.44501
1.96557
2.68555
3.50759
2.5839
0.370049
0.387441
0.401951
0.418409
0.439932
0.469143
0.507555
0.555329
0.611451
0.673937
0.740092
0.806883
0.87137
0.931057
0.984135
1.02958
1.0671
1.097
1.11994
1.1368
1.14847
1.15575
1.15932
1.15969
1.15724
1.15224
1.14486
1.1352
1.12332
1.10926
1.09304
1.07467
1.0542
1.03173
1.0074
0.981368
0.9538
0.924902
0.894908
0.864086
0.832729
0.801164
0.769737
0.738814
0.708773
0.679988
0.65282
0.627602
0.604618
0.584093
0.566171
0.550909
0.538267
0.528112
0.52023
0.514344
0.510136
0.507271
0.505421
0.504283
0.503592
0.503126
0.50271
0.502217
0.50156
0.500687
0.499573
0.498214
0.49662
0.494811
0.492808
0.490639
0.488327
0.485898
0.483373
0.480771
0.478108
0.475399
0.472654
0.469883
0.467092
0.464287
0.461471
0.458646
0.455812
0.452969
0.450114
0.447244
0.444352
0.441432
0.438475
0.43547
0.432408
0.429277
0.426067
0.422772
0.419386
0.415908
0.412337
0.408679
0.404939
0.401126
0.397249
0.39332
0.38935
0.385349
0.38133
0.377304
0.373281
0.369272
0.365285
0.361329
0.357411
0.353538
0.349715
0.345948
0.34224
0.338596
0.335017
0.331508
0.328068
0.324701
0.321406
0.318185
0.315038
0.311964
0.308965
0.306038
0.303185
0.300404
0.297694
0.295054
0.292485
0.289983
0.28755
0.285182
0.28288
0.280641
0.278465
0.276351
0.274298
0.272304
0.270367
0.268488
0.266665
0.264896
0.263181
0.26152
0.25991
0.258352
0.256844
0.255386
0.253978
0.252619
0.251309
0.250048
0.248838
0.247678
0.24657
0.245516
0.244519
0.24358
0.242704
0.241896
0.241159
0.240503
0.239934
0.239464
0.239105
0.238874
0.238788
0.238873
0.239156
0.239673
0.240468
0.241595
0.24312
0.245128
0.247723
0.251042
0.255256
0.260592
0.267345
0.275915
0.286842
0.30088
0.319091
0.343002
0.374847
0.417937
0.477238
0.560269
0.678518
0.849659
1.10043
1.46985
2.0018
2.73522
3.50292
2.87686
0.323432
0.335658
0.344018
0.350975
0.358056
0.366914
0.378944
0.39515
0.416209
0.442453
0.473811
0.509809
0.549622
0.592158
0.636151
0.680264
0.723193
0.763772
0.801055
0.834361
0.863286
0.887671
0.907549
0.923084
0.934511
0.942089
0.946074
0.946697
0.94416
0.938641
0.9303
0.919286
0.905754
0.889913
0.871991
0.852222
0.830849
0.808128
0.784337
0.75977
0.734744
0.709591
0.684657
0.660293
0.63685
0.614663
0.59404
0.575249
0.558498
0.543925
0.531589
0.521462
0.513433
0.507319
0.50288
0.49984
0.497909
0.496803
0.496261
0.496054
0.49599
0.495921
0.495737
0.495366
0.494762
0.493906
0.492796
0.491442
0.489864
0.488084
0.486129
0.484023
0.481792
0.479458
0.477041
0.474559
0.472026
0.469455
0.466856
0.464236
0.461602
0.458958
0.456307
0.45365
0.450989
0.448322
0.445647
0.442962
0.440261
0.437538
0.434785
0.431994
0.429154
0.426255
0.423287
0.420243
0.417114
0.413897
0.410591
0.407196
0.403717
0.400159
0.39653
0.39284
0.389097
0.385314
0.3815
0.377667
0.373824
0.369983
0.366153
0.362342
0.358558
0.354808
0.351099
0.347436
0.343823
0.340266
0.336767
0.333329
0.329955
0.326646
0.323404
0.320229
0.317124
0.314087
0.311119
0.308221
0.305392
0.302631
0.299938
0.297312
0.294753
0.292259
0.289831
0.287466
0.285164
0.282924
0.280745
0.278626
0.276565
0.274562
0.272616
0.270725
0.268889
0.267107
0.265377
0.263699
0.262073
0.260497
0.25897
0.257493
0.256065
0.254685
0.253354
0.252072
0.250839
0.249657
0.248526
0.247448
0.246427
0.245464
0.244563
0.243729
0.242967
0.242284
0.241689
0.241193
0.240807
0.240548
0.240435
0.240491
0.240745
0.241232
0.241997
0.243091
0.244582
0.246554
0.249111
0.252387
0.256552
0.261832
0.26852
0.277011
0.287846
0.301775
0.31986
0.343638
0.375366
0.418408
0.477829
0.561319
0.680613
0.853733
1.10767
1.48158
2.01596
2.7444
3.47573
3.11024
0.304699
0.31393
0.320139
0.324591
0.327941
0.331054
0.334754
0.339692
0.346405
0.355336
0.3668
0.380976
0.397906
0.417504
0.439571
0.463796
0.489774
0.517009
0.544935
0.572939
0.600396
0.626699
0.651288
0.673687
0.693509
0.710469
0.724383
0.73515
0.742746
0.747203
0.748599
0.747049
0.7427
0.735746
0.726446
0.715071
0.701907
0.68725
0.671409
0.654705
0.637468
0.620035
0.602741
0.585917
0.569877
0.554909
0.541258
0.529122
0.518631
0.509848
0.502759
0.49728
0.493267
0.490526
0.488837
0.487967
0.487687
0.487789
0.488089
0.488437
0.488715
0.488836
0.488743
0.488402
0.487799
0.486934
0.485818
0.484469
0.482912
0.481171
0.479272
0.47724
0.475097
0.472866
0.470563
0.468206
0.465807
0.463377
0.460926
0.458459
0.455982
0.4535
0.451014
0.448526
0.446037
0.443545
0.441049
0.438546
0.436032
0.433502
0.430949
0.428365
0.42574
0.423066
0.420332
0.417531
0.414654
0.411695
0.40865
0.405519
0.402302
0.399003
0.395628
0.392183
0.388678
0.385121
0.381522
0.377893
0.374242
0.370581
0.366918
0.363264
0.359625
0.35601
0.352425
0.348877
0.34537
0.341909
0.338498
0.335141
0.33184
0.328598
0.325416
0.322296
0.319239
0.316246
0.313317
0.310453
0.307653
0.304918
0.302247
0.299639
0.297096
0.294614
0.292195
0.289837
0.287539
0.285301
0.283121
0.281
0.278935
0.276925
0.274971
0.273071
0.271225
0.26943
0.267687
0.265995
0.264353
0.26276
0.261216
0.25972
0.258273
0.256874
0.255522
0.254218
0.252964
0.251758
0.250604
0.249503
0.248457
0.247469
0.246542
0.245682
0.244893
0.244183
0.24356
0.243035
0.24262
0.242332
0.242188
0.242213
0.242435
0.242889
0.243618
0.244677
0.24613
0.248061
0.250574
0.253801
0.257912
0.263128
0.269741
0.278143
0.288867
0.302658
0.320573
0.344144
0.37563
0.418414
0.477602
0.560953
0.68027
0.853587
1.1076
1.48052
2.0096
2.71966
3.42637
3.27904
0.295449
0.302745
0.308033
0.311959
0.314717
0.316735
0.318512
0.320443
0.32285
0.326005
0.330127
0.335378
0.341872
0.349678
0.358826
0.36931
0.381088
0.394083
0.408183
0.423238
0.43906
0.455424
0.472068
0.4887
0.505004
0.520651
0.535312
0.548671
0.56044
0.570374
0.578279
0.584025
0.587545
0.588825
0.587954
0.585096
0.580465
0.57431
0.566908
0.558551
0.549542
0.540188
0.530789
0.521628
0.512967
0.50503
0.497998
0.491997
0.487094
0.483297
0.480557
0.478774
0.477816
0.477524
0.477732
0.478279
0.479013
0.479805
0.480546
0.481153
0.481562
0.481734
0.481645
0.481285
0.480658
0.479776
0.478655
0.47732
0.475793
0.4741
0.472267
0.470316
0.46827
0.466146
0.463963
0.461734
0.459471
0.457185
0.454881
0.452568
0.450249
0.447928
0.445606
0.443286
0.440966
0.438648
0.436328
0.434005
0.431675
0.429333
0.426974
0.42459
0.422174
0.419716
0.41721
0.414644
0.412012
0.409305
0.406518
0.403648
0.400693
0.397656
0.394538
0.391346
0.388084
0.384762
0.381389
0.377973
0.374525
0.371055
0.367572
0.364085
0.360603
0.357134
0.353684
0.350261
0.34687
0.343516
0.340203
0.336936
0.333718
0.33055
0.327437
0.324379
0.321378
0.318435
0.315552
0.312728
0.309964
0.30726
0.304616
0.302033
0.299509
0.297044
0.294638
0.292291
0.290001
0.287768
0.285591
0.28347
0.281403
0.279391
0.277431
0.275524
0.273669
0.271864
0.270109
0.268404
0.266748
0.26514
0.26358
0.262067
0.260601
0.259182
0.257811
0.256486
0.25521
0.253982
0.252805
0.25168
0.250609
0.249596
0.248644
0.247757
0.246941
0.246203
0.245551
0.244997
0.244551
0.244231
0.244055
0.244047
0.244234
0.244652
0.245343
0.246362
0.247772
0.249658
0.252121
0.255293
0.259342
0.264487
0.271015
0.279313
0.289908
0.303534
0.321235
0.344527
0.375652
0.417974
0.476586
0.559212
0.677557
0.849353
1.10053
1.46753
1.98465
2.6675
3.35404
3.38034
0.290223
0.296017
0.30061
0.304346
0.307188
0.309308
0.311006
0.312537
0.314103
0.315871
0.317975
0.320514
0.323563
0.327177
0.331392
0.336228
0.341693
0.34778
0.354471
0.361737
0.369532
0.377802
0.386478
0.395478
0.404707
0.414054
0.423396
0.432596
0.441507
0.449974
0.457838
0.464945
0.471155
0.47632
0.48031
0.483072
0.484621
0.485036
0.484451
0.483036
0.48099
0.478522
0.475845
0.47316
0.470646
0.468454
0.466694
0.465438
0.464711
0.4645
0.464759
0.465413
0.466371
0.467534
0.468805
0.470092
0.471312
0.472399
0.473297
0.473968
0.474384
0.47453
0.474402
0.474005
0.473349
0.472453
0.471336
0.470022
0.468536
0.466902
0.465143
0.463281
0.461335
0.459324
0.457263
0.455164
0.453039
0.450895
0.44874
0.446579
0.444417
0.442255
0.440096
0.437941
0.435789
0.433641
0.431494
0.429348
0.427197
0.425039
0.422868
0.420678
0.418463
0.416216
0.413927
0.41159
0.409194
0.406732
0.404197
0.401584
0.39889
0.396114
0.393256
0.39032
0.387309
0.384229
0.381089
0.377897
0.374662
0.371394
0.368101
0.364793
0.361479
0.358167
0.354864
0.351576
0.348312
0.345074
0.34187
0.338702
0.335575
0.332492
0.329455
0.326467
0.32353
0.320645
0.317814
0.315037
0.312314
0.309648
0.307037
0.304482
0.301983
0.29954
0.297152
0.294819
0.292541
0.290317
0.288147
0.286029
0.283964
0.281951
0.279989
0.278077
0.276215
0.274402
0.272638
0.270921
0.269253
0.267631
0.266055
0.264526
0.263043
0.261606
0.260216
0.258871
0.257574
0.256325
0.255125
0.253976
0.252882
0.251843
0.250865
0.249952
0.249109
0.248343
0.247662
0.247077
0.246601
0.246248
0.246039
0.245995
0.246146
0.246525
0.247176
0.248152
0.249516
0.251351
0.25376
0.256871
0.260851
0.265915
0.272348
0.280529
0.290975
0.304408
0.321852
0.344797
0.375447
0.417117
0.474825
0.556174
0.672609
0.841299
1.08703
1.44387
1.9434
2.59359
3.25935
3.41731
0.287282
0.291809
0.295686
0.299138
0.302034
0.30439
0.306371
0.308134
0.30981
0.311508
0.313315
0.315297
0.317505
0.319974
0.32273
0.32579
0.329161
0.332846
0.336839
0.341128
0.345697
0.350522
0.355576
0.360826
0.366236
0.371765
0.37737
0.383008
0.388633
0.394202
0.399672
0.405007
0.410175
0.415129
0.419778
0.424038
0.427849
0.431178
0.434028
0.436431
0.438447
0.440155
0.441645
0.443008
0.444329
0.445678
0.447107
0.448645
0.4503
0.452061
0.453898
0.455773
0.45764
0.459448
0.46115
0.462703
0.464065
0.465207
0.466104
0.466738
0.4671
0.46719
0.467012
0.466576
0.465897
0.464996
0.463893
0.462612
0.461175
0.459607
0.457929
0.45616
0.45432
0.452424
0.450486
0.448517
0.446528
0.444526
0.442518
0.440507
0.438498
0.436493
0.434494
0.432501
0.430514
0.428533
0.426556
0.424582
0.422607
0.420627
0.418638
0.416637
0.414616
0.412571
0.410493
0.408374
0.406206
0.403981
0.401691
0.39933
0.396892
0.394375
0.391777
0.389099
0.386342
0.38351
0.380611
0.377651
0.374638
0.371582
0.36849
0.365373
0.362237
0.359093
0.355947
0.352807
0.349678
0.346568
0.343482
0.340423
0.337397
0.334407
0.331455
0.328546
0.32568
0.322861
0.320089
0.317365
0.314692
0.312069
0.309497
0.306976
0.304507
0.30209
0.299725
0.297411
0.295149
0.292937
0.290777
0.288667
0.286606
0.284595
0.282633
0.280719
0.278852
0.277034
0.275261
0.273536
0.271856
0.270222
0.268633
0.267089
0.26559
0.264136
0.262727
0.261364
0.260047
0.258777
0.257555
0.256384
0.255265
0.254203
0.2532
0.25226
0.25139
0.250596
0.249886
0.249272
0.248764
0.248379
0.248136
0.248057
0.24817
0.24851
0.249119
0.250049
0.251365
0.253146
0.255496
0.25854
0.262445
0.26742
0.273747
0.281796
0.292075
0.305288
0.322435
0.344968
0.375037
0.415878
0.472383
0.551946
0.665621
0.829795
1.0678
1.41102
1.8884
2.5026
3.14429
3.39729
0.285761
0.289236
0.292398
0.29545
0.298239
0.300699
0.302899
0.304928
0.306862
0.30877
0.310711
0.312733
0.31487
0.317148
0.319587
0.322201
0.324998
0.32798
0.331147
0.334493
0.33801
0.341685
0.345505
0.349451
0.353504
0.357645
0.36185
0.366099
0.370371
0.374648
0.378915
0.383164
0.387391
0.391595
0.395748
0.399821
0.403785
0.407616
0.411295
0.414814
0.418174
0.421383
0.424456
0.427413
0.430273
0.433052
0.43576
0.438403
0.440976
0.443468
0.445864
0.448143
0.45028
0.452252
0.454032
0.455599
0.456934
0.458019
0.458844
0.459403
0.459694
0.459722
0.459496
0.459029
0.458338
0.457442
0.456363
0.455123
0.453744
0.452247
0.450654
0.448982
0.447248
0.445467
0.443651
0.441812
0.439957
0.438095
0.436229
0.434366
0.432507
0.430655
0.428811
0.426977
0.42515
0.423332
0.42152
0.419713
0.417907
0.4161
0.414289
0.41247
0.410637
0.408786
0.40691
0.405001
0.403052
0.401055
0.399001
0.396884
0.394697
0.392435
0.390095
0.387674
0.385173
0.382594
0.379941
0.37722
0.374437
0.371602
0.368721
0.365804
0.362858
0.359892
0.356915
0.353932
0.350951
0.347978
0.34502
0.34208
0.339164
0.336276
0.333419
0.330596
0.32781
0.325064
0.322358
0.319696
0.317077
0.314504
0.311977
0.309496
0.307063
0.304677
0.302339
0.300049
0.297806
0.295612
0.293465
0.291365
0.289312
0.287306
0.285346
0.283433
0.281565
0.279742
0.277964
0.276231
0.274542
0.272897
0.271296
0.269739
0.268225
0.266756
0.26533
0.263949
0.262613
0.261323
0.260081
0.258888
0.257747
0.256661
0.255634
0.254669
0.253773
0.252951
0.252214
0.25157
0.251032
0.250615
0.250339
0.250224
0.2503
0.250601
0.251167
0.252051
0.253316
0.255042
0.257329
0.260303
0.264126
0.269005
0.275215
0.28312
0.293213
0.30618
0.322992
0.345054
0.374448
0.4143
0.469333
0.54666
0.65683
0.815285
1.0437
1.37056
1.82229
2.39845
3.01186
3.32931
0.285093
0.287733
0.290247
0.292849
0.295403
0.297812
0.300085
0.30226
0.304376
0.306472
0.308586
0.310747
0.312979
0.315303
0.317732
0.320278
0.322948
0.325745
0.328671
0.331724
0.334899
0.338189
0.341587
0.345082
0.348663
0.352318
0.356033
0.359797
0.363597
0.367422
0.371261
0.375109
0.378961
0.382813
0.386654
0.390474
0.394261
0.398002
0.401687
0.405305
0.408849
0.412311
0.415688
0.418974
0.422166
0.425259
0.428248
0.431124
0.433879
0.436498
0.438969
0.441275
0.443399
0.445325
0.447037
0.448519
0.44976
0.45075
0.451484
0.45196
0.452181
0.452154
0.451889
0.451402
0.450708
0.449828
0.448781
0.447589
0.446272
0.444851
0.443344
0.44177
0.440142
0.438475
0.436779
0.435066
0.433342
0.431615
0.429889
0.428167
0.426454
0.42475
0.423057
0.421376
0.419705
0.418044
0.416392
0.414746
0.413105
0.411465
0.409826
0.408182
0.406531
0.404867
0.403184
0.401476
0.399737
0.397957
0.39613
0.394247
0.392302
0.390289
0.388201
0.386036
0.38379
0.381465
0.379062
0.376585
0.37404
0.371433
0.368772
0.366064
0.363318
0.360541
0.357742
0.354927
0.352104
0.34928
0.346459
0.343648
0.340852
0.338075
0.335321
0.332594
0.329896
0.32723
0.324599
0.322004
0.319448
0.316931
0.314454
0.312019
0.309627
0.307278
0.304972
0.30271
0.300492
0.298318
0.296188
0.294102
0.292061
0.290063
0.288109
0.286198
0.284331
0.282507
0.280726
0.278987
0.277291
0.275637
0.274026
0.272457
0.27093
0.269446
0.268005
0.266607
0.265253
0.263945
0.262683
0.26147
0.260308
0.2592
0.258149
0.25716
0.256239
0.255392
0.254628
0.253956
0.253389
0.252942
0.252633
0.252485
0.252524
0.252786
0.25331
0.254148
0.255362
0.257032
0.259255
0.262156
0.265893
0.270671
0.276756
0.284504
0.294395
0.307093
0.323534
0.345073
0.373706
0.41243
0.465758
0.54046
0.646499
0.798254
1.01561
1.32413
1.74768
2.28458
2.86566
3.22278
0.284908
0.286908
0.288872
0.291034
0.293288
0.295534
0.29775
0.299943
0.302126
0.304316
0.306532
0.308791
0.311109
0.313497
0.315965
0.318521
0.321171
0.323918
0.326763
0.329705
0.332743
0.335872
0.339086
0.342381
0.345748
0.349178
0.352664
0.356197
0.359767
0.363367
0.366988
0.370624
0.374268
0.377915
0.381558
0.385188
0.388798
0.39238
0.395925
0.399425
0.402872
0.406258
0.409573
0.412808
0.415956
0.419005
0.421945
0.424764
0.427451
0.429992
0.432372
0.434577
0.436593
0.438406
0.440002
0.441371
0.442503
0.443393
0.444037
0.444437
0.444597
0.444526
0.444233
0.443735
0.443048
0.44219
0.441181
0.440041
0.438789
0.437445
0.436026
0.434547
0.433023
0.431466
0.429887
0.428296
0.426698
0.425101
0.423508
0.421923
0.420349
0.418788
0.41724
0.415705
0.414184
0.412674
0.411175
0.409685
0.408202
0.406725
0.405251
0.403777
0.402299
0.400814
0.399317
0.3978
0.39626
0.394687
0.393076
0.391418
0.389705
0.387931
0.38609
0.384174
0.382181
0.380108
0.377956
0.375726
0.373423
0.371051
0.368617
0.366128
0.36359
0.361012
0.358401
0.355764
0.353109
0.350442
0.34777
0.345098
0.342431
0.339775
0.337133
0.334509
0.331908
0.329331
0.326782
0.324262
0.321775
0.31932
0.316901
0.314518
0.312172
0.309865
0.307596
0.305367
0.303177
0.301028
0.298919
0.296851
0.294824
0.292838
0.290892
0.288988
0.287124
0.2853
0.283518
0.281776
0.280075
0.278414
0.276794
0.275215
0.273676
0.27218
0.270724
0.269311
0.267942
0.266617
0.265337
0.264105
0.262922
0.261793
0.260721
0.25971
0.258766
0.257895
0.257105
0.256407
0.255813
0.255337
0.254998
0.254818
0.254824
0.255048
0.255532
0.256325
0.257491
0.259105
0.261264
0.264091
0.26774
0.272411
0.278365
0.285947
0.295622
0.30803
0.324071
0.34504
0.37284
0.410317
0.461745
0.533505
0.634907
0.779203
0.984428
1.27326
1.66709
2.16408
2.70949
3.0868
0.284975
0.286491
0.288006
0.28977
0.291708
0.293729
0.295801
0.297914
0.300063
0.302252
0.304486
0.306773
0.30912
0.311532
0.314014
0.316571
0.319205
0.321919
0.324714
0.327589
0.330541
0.33357
0.336669
0.339836
0.343064
0.346348
0.34968
0.353054
0.356462
0.359899
0.363356
0.366828
0.370307
0.373789
0.377265
0.38073
0.384177
0.387598
0.390986
0.394334
0.397632
0.400874
0.404049
0.407149
0.410162
0.413079
0.415887
0.418574
0.421128
0.423535
0.425781
0.427854
0.429739
0.431424
0.432898
0.434153
0.435181
0.435977
0.436541
0.436875
0.436985
0.436878
0.436567
0.436066
0.435391
0.434561
0.433593
0.432507
0.431321
0.430053
0.428718
0.427332
0.425908
0.424458
0.42299
0.421515
0.420037
0.418563
0.417098
0.415643
0.414202
0.412776
0.411366
0.409971
0.408591
0.407225
0.405872
0.404532
0.403202
0.40188
0.400565
0.399254
0.397943
0.396629
0.395307
0.393973
0.392621
0.391245
0.389838
0.388392
0.386901
0.385356
0.38375
0.382077
0.38033