/*--------------------------------*- C++ -*----------------------------------*\
| =========                 |                                                 |
| \\      /  F ield         | OpenFOAM: The Open Source CFD Toolbox           |
|  \\    /   O peration     | Version:  2.4.0                                 |
|   \\  /    A nd           | Web:      www.OpenFOAM.org                      |
|    \\/     M anipulation  |                                                 |
\*---------------------------------------------------------------------------*/
FoamFile
{
    version     2.0;
    format      ascii;
    class       volScalarField;
    location    "0.147";
    object      k_0;
}
// * * * * * * * * * * * * * * * * * * * * * * * * * * * * * * * * * * * * * //

dimensions      [0 2 -2 0 0 0 0];

internalField   nonuniform List<scalar> 
4400
(
9.52079
8.50002
6.49327
5.32075
4.62217
4.22893
4.06007
3.77485
3.82118
3.59795
4.39916
6.77181
6.72306
6.3182
5.68333
5.23044
5.0037
4.65329
4.65993
4.52135
1.16542
3.169
4.19993
4.54564
4.47156
4.28027
4.13849
3.91278
3.90231
3.7533
0.163212
0.947176
1.69531
2.32242
2.66347
2.81164
2.84819
2.83021
2.83688
2.77976
0.0172207
0.154581
0.403557
0.749938
1.07901
1.34458
1.49937
1.65478
1.69415
1.76014
0.00147016
0.0171108
0.0530948
0.120895
0.262606
0.38781
0.506271
0.674321
0.719842
0.840107
0.000138989
0.00151027
0.00441992
0.0111486
0.0337826
0.0554994
0.0897649
0.159684
0.179955
0.245336
4.12742e-05
0.000265308
0.000423429
0.000786232
0.00247318
0.00410861
0.0075144
0.0177964
0.0210613
0.0357123
3.41624e-05
0.000155671
0.000194667
0.000207116
0.000284704
0.000344101
0.000492157
0.00107322
0.00121352
0.00196309
3.31895e-05
0.000128312
0.000186239
0.000193588
0.000200771
0.000200709
0.000206942
0.000235389
0.000246378
0.000271926
3.29398e-05
0.000126585
0.000184096
0.000206421
0.000212259
0.000210807
0.00021202
0.000224737
0.000274163
0.000412929
3.37672e-05
0.000124811
0.000205258
0.000245679
0.000274443
0.000368474
0.000547783
0.000927877
0.00193411
0.00462691
3.98721e-05
0.000234947
0.000435389
0.000882784
0.0017542
0.00465753
0.00833092
0.0160568
0.0278612
0.0586515
0.000138844
0.00150277
0.00446952
0.012246
0.0258887
0.0624627
0.0943113
0.157837
0.210484
0.358778
0.00149568
0.0168817
0.0532903
0.133045
0.234429
0.402146
0.528987
0.681115
0.78867
1.0533
0.0174709
0.149461
0.42402
0.734735
1.08842
1.3396
1.53761
1.67856
1.77722
1.99071
0.165192
0.933039
1.72725
2.29647
2.68834
2.797
2.88065
2.87053
2.88286
2.94398
1.17781
3.14806
4.23167
4.51752
4.48244
4.26817
4.14959
3.93364
3.86493
3.77001
4.41015
6.75267
6.74286
6.27605
5.73023
5.18393
4.96564
4.62599
4.49288
4.19206
9.53042
8.48042
6.52186
5.27419
4.65032
4.17802
3.98552
3.69009
3.53601
3.09949
2.35745
1.29879
0.690429
0.39936
0.315522
0.344871
0.5503
0.805228
0.895372
0.90433
0.829006
0.819809
0.738372
0.654912
0.671407
0.751403
0.727657
0.617483
0.545666
0.439216
0.365803
0.327107
0.280034
0.246979
0.238111
0.230209
0.211969
0.204884
0.228264
0.321007
0.392635
0.408688
0.393184
0.366303
0.338979
0.283038
0.228172
0.189211
0.187434
0.275095
0.329298
0.312115
0.216943
0.13242
0.0939425
0.0824076
0.0826119
0.0940482
0.114435
0.153972
0.20634
0.225826
0.207063
0.205665
0.279303
0.319155
0.312416
0.243739
0.13864
0.0818022
0.0625193
0.0635416
0.0674715
0.0746737
0.0850861
0.102121
0.146206
0.296154
0.349292
0.340614
0.306694
0.225956
0.152561
0.0984068
0.0732235
0.0714208
0.075564
0.0895213
0.139104
0.155388
0.146107
0.122527
0.0968018
0.0894529
0.09007
0.0886522
0.082883
0.0957337
0.103848
0.102477
0.106077
0.126694
0.147669
0.155084
0.170738
0.195736
0.203053
0.208463
0.252857
0.662585
3.49325
2.60075
1.88378
1.40219
1.01924
0.937855
0.998408
1.03898
0.974466
0.908438
0.743631
0.651805
0.618257
0.53694
0.504877
0.530366
0.517271
0.535636
0.521049
0.438533
0.385463
0.347295
0.297482
0.265032
0.249752
0.232597
0.190187
0.198603
0.276774
0.413051
0.437026
0.425882
0.394539
0.36294
0.343581
0.296745
0.234765
0.193342
0.186394
0.251332
0.304702
0.297842
0.222249
0.136953
0.0966691
0.0855809
0.0869992
0.0998196
0.121759
0.161807
0.216784
0.236952
0.218342
0.219216
0.288751
0.336947
0.336726
0.276057
0.144793
0.0816004
0.0610359
0.0609664
0.0645967
0.068843
0.0774538
0.0936639
0.132414
0.26661
0.331345
0.325213
0.300053
0.225158
0.156291
0.107704
0.0853971
0.0852518
0.0931114
0.132177
0.167791
0.164372
0.134838
0.0962856
0.0772579
0.0745569
0.0756965
0.0768024
0.0734503
0.0818219
0.0936098
0.0968695
0.102188
0.127247
0.157505
0.162565
0.169041
0.188722
0.205847
0.205512
0.262052
0.540208
3.10725
2.62464
2.15548
1.87802
1.65315
1.4353
1.25553
1.14812
0.941533
0.730788
0.565898
0.462378
0.357025
0.343421
0.348659
0.327522
0.288298
0.295764
0.310144
0.333417
0.3365
0.321632
0.281926
0.256703
0.241893
0.187444
0.164756
0.214647
0.396547
0.468735
0.457845
0.427388
0.381497
0.3536
0.337946
0.297986
0.246352
0.200332
0.185682
0.234608
0.285653
0.282625
0.224799
0.142145
0.101376
0.0929962
0.0957815
0.109147
0.131971
0.172448
0.229409
0.247112
0.228245
0.232164
0.291264
0.369646
0.37774
0.289349
0.146332
0.0810887
0.0606739
0.0597451
0.064051
0.0662953
0.071976
0.0860274
0.119928
0.247318
0.316702
0.309709
0.290262
0.223884
0.164672
0.126725
0.116837
0.120482
0.134775
0.178467
0.178286
0.160693
0.103878
0.0768926
0.0696491
0.0694205
0.0689009
0.0689
0.0693284
0.0770596
0.0836811
0.0880968
0.10082
0.138051
0.176279
0.175473
0.175709
0.18001
0.208202
0.202854
0.256791
0.428007
2.41589
2.07245
1.85452
1.67575
1.54191
1.38923
1.20704
0.966299
0.741066
0.496387
0.306802
0.215823
0.137583
0.131842
0.155194
0.153735
0.139479
0.126761
0.122759
0.15141
0.204964
0.22695
0.228548
0.221623
0.19292
0.128119
0.152536
0.312475
0.494352
0.496531
0.462709
0.395457
0.354549
0.33519
0.325757
0.294488
0.251934
0.204943
0.184628
0.224564
0.276016
0.27558
0.231845
0.152234
0.112914
0.105499
0.108877
0.121732
0.144717
0.182122
0.245158
0.261355
0.240175
0.244164
0.291075
0.420814
0.414575
0.279977
0.140642
0.0803962
0.0607055
0.0599752
0.0651626
0.0666282
0.0695659
0.0793007
0.108773
0.227971
0.299001
0.293289
0.280532
0.226558
0.174313
0.145832
0.143844
0.14787
0.169119
0.18914
0.17532
0.121595
0.0854251
0.0713455
0.0677993
0.0683384
0.0673578
0.0669166
0.0683339
0.076488
0.0809772
0.0844087
0.119629
0.159588
0.198935
0.196944
0.18948
0.181591
0.209854
0.201045
0.244051
0.354048
1.60536
1.40497
1.28395
1.17267
1.12109
1.00289
0.841942
0.684487
0.436025
0.232487
0.128131
0.0815773
0.0500822
0.0457107
0.0497998
0.0503487
0.048018
0.0433107
0.0430495
0.0444216
0.0541281
0.106554
0.12771
0.123206
0.0879391
0.0938188
0.18803
0.469115
0.539727
0.507695
0.413276
0.341822
0.313039
0.305068
0.304385
0.287537
0.254226
0.208919
0.184185
0.217716
0.272938
0.275305
0.253766
0.185072
0.136824
0.124314
0.127044
0.137878
0.15969
0.195728
0.259528
0.274834
0.253038
0.252974
0.298783
0.462278
0.422595
0.246322
0.136741
0.0807518
0.0609327
0.0598785
0.0649834
0.0673884
0.0684471
0.0756957
0.0989959
0.203492
0.285397
0.284443
0.272818
0.244392
0.1895
0.156422
0.150452
0.154963
0.182158
0.181526
0.143727
0.102005
0.0800843
0.0702173
0.0675359
0.0682103
0.0667788
0.0663745
0.0691852
0.0760135
0.0796025
0.0837419
0.147842
0.18644
0.224593
0.216532
0.211111
0.184878
0.218079
0.202303
0.230537
0.296732
0.787934
0.705657
0.642187
0.594816
0.580899
0.542909
0.44467
0.30258
0.16479
0.083579
0.0448752
0.026511
0.0175663
0.0154796
0.0154894
0.016079
0.0152143
0.0144479
0.0141487
0.0143105
0.0163521
0.0286691
0.0456132
0.0454513
0.0475238
0.0836166
0.342525
0.566992
0.559892
0.46423
0.356414
0.300642
0.273539
0.27264
0.278798
0.274571
0.255823
0.21139
0.182679
0.213339
0.271648
0.276753
0.267504
0.224283
0.167714
0.147071
0.148165
0.15559
0.174222
0.212936
0.273978
0.285521
0.263658
0.258275
0.321768
0.478229
0.392482
0.240283
0.145133
0.0833514
0.0611078
0.0592652
0.0647601
0.0687424
0.0682309
0.0735984
0.0941619
0.182144
0.276583
0.279617
0.26713
0.251362
0.201942
0.162586
0.153702
0.160173
0.175478
0.163384
0.123544
0.0966321
0.0791021
0.0700062
0.068324
0.0685567
0.0668203
0.0663008
0.0710267
0.0759377
0.0766868
0.0818162
0.16797
0.21804
0.284007
0.237977
0.234517
0.193338
0.229227
0.205773
0.222372
0.267857
0.233106
0.206094
0.187544
0.175212
0.172961
0.163771
0.132881
0.0848082
0.0434526
0.0226417
0.0126561
0.00858285
0.00751152
0.0073482
0.00677955
0.00656914
0.00628381
0.00633349
0.00618782
0.00668467
0.00774311
0.0114059
0.0212478
0.0245201
0.0374946
0.143038
0.524026
0.622993
0.565789
0.396316
0.329088
0.284786
0.254917
0.251622
0.258912
0.261001
0.255165
0.217411
0.181127
0.208525
0.270142
0.277305
0.273729
0.252933
0.200105
0.172436
0.170963
0.175365
0.190721
0.231615
0.288529
0.296986
0.270669
0.260567
0.337435
0.481664
0.335761
0.255072
0.183424
0.0943572
0.0630437
0.0581158
0.0626168
0.0692911
0.0686932
0.0717367
0.0900438
0.163158
0.26383
0.27005
0.260626
0.249189
0.207032
0.171077
0.165686
0.175468
0.174182
0.146576
0.117172
0.0949597
0.0798688
0.0720074
0.070921
0.0698077
0.0686073
0.0675143
0.0724461
0.0771002
0.0778575
0.0820822
0.206815
0.259598
0.351012
0.281437
0.282797
0.212933
0.246653
0.212082
0.219061
0.250505
0.0345809
0.0303115
0.0274469
0.0260125
0.0253646
0.0242612
0.0206365
0.0128422
0.0072479
0.00494114
0.004932
0.00527419
0.00633304
0.0067981
0.00639322
0.00571616
0.00551267
0.00528052
0.00520522
0.00591958
0.00632981
0.00819457
0.0123064
0.0182751
0.0511094
0.318418
0.662224
0.646723
0.479853
0.352512
0.314502
0.27917
0.248529
0.242344
0.248272
0.253629
0.254015
0.218867
0.179449
0.19965
0.265001
0.275859
0.27376
0.264535
0.232039
0.198335
0.190995
0.194005
0.208646
0.253537
0.302903
0.306508
0.27288
0.260877
0.340768
0.477283
0.325358
0.293547
0.247392
0.120095
0.0726777
0.0589178
0.0631961
0.0681666
0.0685281
0.0695202
0.0886007
0.160553
0.247402
0.263665
0.256764
0.244104
0.209612
0.195107
0.196807
0.192672
0.163738
0.136403
0.115101
0.09391
0.0827011
0.0756404
0.0734985
0.0698404
0.070182
0.0690201
0.0739839
0.0813994
0.0839239
0.0871465
0.226279
0.286459
0.349108
0.319989
0.434778
0.264146
0.296987
0.227289
0.218633
0.236005
0.0019288
0.0017397
0.00164442
0.00162534
0.00162733
0.00170931
0.00171389
0.0017878
0.00214525
0.00291452
0.00488648
0.00913967
0.0145023
0.0151996
0.0144789
0.0117649
0.0105942
0.00854424
0.00839658
0.00792552
0.00770034
0.00858196
0.0111652
0.0220394
0.104944
0.5424
0.73146
0.640301
0.396662
0.320414
0.305123
0.279993
0.252415
0.241663
0.241395
0.249187
0.253676
0.218058
0.179551
0.192059
0.244363
0.26534
0.269811
0.265013
0.247536
0.217192
0.208369
0.211038
0.227426
0.277743
0.3139
0.311285
0.268555
0.256061
0.333405
0.459393
0.328651
0.339388
0.277434
0.169032
0.0982851
0.0616389
0.066128
0.0665389
0.0677263
0.0679814
0.0898609
0.164455
0.238712
0.256214
0.250005
0.231253
0.205735
0.199609
0.199417
0.182783
0.148661
0.13164
0.113421
0.0948513
0.0855878
0.0796779
0.0745269
0.0684295
0.0702961
0.0699318
0.0745617
0.0894689
0.0916809
0.099175
0.226498
0.291441
0.330941
0.311107
0.530947
0.359721
0.488732
0.278363
0.228099
0.229921
0.000286204
0.000334507
0.000382625
0.000431819
0.00057085
0.000742889
0.00119468
0.00248467
0.00464072
0.00921037
0.019653
0.0328944
0.0416143
0.041981
0.0395383
0.0345229
0.0276597
0.0239681
0.0217072
0.016667
0.0164703
0.0174566
0.0216134
0.0494352
0.243658
0.738991
0.758475
0.529943
0.338925
0.29699
0.297025
0.287045
0.263988
0.24974
0.242966
0.250311
0.256391
0.219822
0.182975
0.189006
0.209958
0.244965
0.259038
0.26043
0.251684
0.229244
0.223658
0.227047
0.249186
0.303216
0.32477
0.313035
0.256373
0.243597
0.304217
0.431199
0.373902
0.431064
0.272687
0.201636
0.156856
0.0640568
0.0701939
0.0643006
0.06898
0.0679537
0.0927608
0.176741
0.239107
0.252356
0.238052
0.209179
0.193167
0.188532
0.179284
0.151631
0.138241
0.129243
0.112666
0.0985261
0.0889667
0.0852984
0.0748234
0.0676843
0.0682955
0.0684553
0.0761812
0.0911275
0.095016
0.11259
0.233342
0.280074
0.368193
0.31215
0.328123
0.358318
0.578982
0.3837
0.274447
0.234719
0.000592613
0.000961527
0.00171921
0.00215882
0.00367162
0.00508062
0.00797954
0.0160868
0.0237009
0.0421761
0.0709149
0.0930073
0.102514
0.100874
0.0940179
0.0806684
0.0622912
0.055704
0.0481414
0.0405029
0.0411951
0.043721
0.0553147
0.120916
0.511721
0.818722
0.747663
0.40908
0.278045
0.268384
0.282747
0.285921
0.273761
0.266706
0.248229
0.257991
0.268256
0.237181
0.196093
0.185842
0.190161
0.216953
0.251456
0.25809
0.250641
0.238613
0.237152
0.242539
0.275884
0.325734
0.331902
0.305024
0.238346
0.228697
0.270363
0.413381
0.443322
0.462361
0.241362
0.202606
0.189872
0.0625574
0.0862237
0.0645961
0.0790736
0.0692876
0.0978176
0.207907
0.252025
0.257394
0.232689
0.197108
0.176101
0.160432
0.156171
0.147904
0.141577
0.130438
0.115325
0.106135
0.097468
0.0912123
0.0767776
0.0717933
0.0693306
0.0694078
0.0863078
0.0879397
0.0926184
0.125447
0.242842
0.285351
0.344908
0.328055
0.314335
0.34037
0.335184
0.40918
0.377025
0.254786
0.0068909
0.0108017
0.0172166
0.0201846
0.029709
0.0364794
0.0489395
0.075723
0.0956105
0.148715
0.194899
0.215392
0.218719
0.208355
0.189676
0.162435
0.131728
0.120809
0.099253
0.089766
0.0920636
0.0977883
0.124813
0.26273
0.733931
0.846481
0.659988
0.35055
0.245486
0.230801
0.250355
0.264565
0.274353
0.27073
0.256119
0.277437
0.306509
0.305735
0.240909
0.186128
0.180864
0.206586
0.252257
0.258739
0.25085
0.248265
0.251112
0.26264
0.30938
0.345439
0.337373
0.28071
0.217436
0.211643
0.242826
0.403431
0.459042
0.46119
0.230904
0.199338
0.190436
0.103165
0.142189
0.0636492
0.0907108
0.0713183
0.108881
0.24572
0.297319
0.288697
0.237267
0.197177
0.175168
0.155507
0.154473
0.151372
0.145542
0.131716
0.123974
0.121234
0.112484
0.0983405
0.0848344
0.0828464
0.0809434
0.0842758
0.107499
0.0962293
0.0996689
0.155029
0.249888
0.303454
0.334488
0.323153
0.257887
0.312525
0.301484
0.401892
0.416879
0.306651
0.0708098
0.091168
0.115417
0.125029
0.151615
0.167408
0.195673
0.246404
0.288557
0.375758
0.404188
0.405261
0.399621
0.370168
0.341453
0.291251
0.256442
0.23547
0.193315
0.182408
0.184468
0.19462
0.249199
0.530016
0.831017
0.816867
0.605926
0.329592
0.230634
0.216177
0.229272
0.241776
0.262365
0.267553
0.274235
0.332038
0.403234
0.361411
0.247154
0.186526
0.179697
0.208882
0.25792
0.260979
0.255192
0.259212
0.271891
0.286805
0.342649
0.364491
0.33081
0.247239
0.193425
0.188981
0.218599
0.399148
0.454976
0.465553
0.247987
0.217406
0.201256
0.230239
0.287198
0.0703628
0.128137
0.0736218
0.110926
0.259041
0.305052
0.299204
0.242185
0.202263
0.17722
0.160181
0.160637
0.158618
0.14776
0.139878
0.143097
0.145969
0.138747
0.120633
0.109274
0.110645
0.11031
0.118603
0.139176
0.118029
0.116813
0.154842
0.250957
0.302337
0.346791
0.327419
0.250814
0.282959
0.277381
0.380229
0.405063
0.369282
0.368187
0.395055
0.413678
0.421135
0.447293
0.463976
0.499354
0.559122
0.608797
0.657587
0.6601
0.650462
0.620534
0.579018
0.528585
0.465013
0.4312
0.374235
0.320819
0.314392
0.31719
0.340899
0.453908
0.737332
0.824306
0.746777
0.585611
0.32688
0.224564
0.209769
0.222295
0.23773
0.261478
0.280591
0.350524
0.41501
0.410194
0.332501
0.248673
0.196249
0.186051
0.224268
0.269196
0.266043
0.264781
0.279164
0.295968
0.319662
0.381988
0.3818
0.302931
0.214421
0.167422
0.161476
0.19222
0.386683
0.436954
0.486254
0.308608
0.284653
0.241655
0.253608
0.22491
0.107875
0.218958
0.0905384
0.113659
0.24445
0.280909
0.276685
0.240913
0.207415
0.183048
0.176355
0.175136
0.165879
0.159205
0.168393
0.188132
0.196755
0.18991
0.183052
0.176396
0.181111
0.17464
0.176059
0.165752
0.135108
0.127163
0.155847
0.244016
0.3052
0.356275
0.32946
0.254473
0.265235
0.266695
0.36072
0.387925
0.404036
1.01079
0.985754
0.934833
0.893292
0.882648
0.87499
0.886492
0.91172
0.921754
0.920959
0.898457
0.845323
0.80959
0.751649
0.670001
0.621706
0.564139
0.487373
0.465613
0.468371
0.480266
0.53435
0.685649
0.78439
0.73412
0.678226
0.655541
0.38461
0.22641
0.20631
0.219037
0.244708
0.281457
0.330439
0.372189
0.398107
0.331986
0.265893
0.235806
0.206222
0.204793
0.2704
0.292307
0.281842
0.282165
0.310243
0.329296
0.373839
0.423467
0.395226
0.256261
0.176641
0.142877
0.141932
0.182126
0.352143
0.423632
0.529055
0.376856
0.36471
0.265338
0.235986
0.21654
0.130027
0.247614
0.173223
0.135199
0.240874
0.265693
0.262538
0.245929
0.213172
0.19367
0.190778
0.182234
0.180396
0.192052
0.247235
0.283638
0.308986
0.310549
0.321403
0.335223
0.317386
0.269019
0.245196
0.157405
0.124911
0.132883
0.151118
0.278043
0.321026
0.376904
0.326393
0.281306
0.270602
0.267118
0.349419
0.357747
0.430675
1.83709
1.67925
1.49292
1.3787
1.28569
1.21644
1.18411
1.13586
1.10771
1.06298
0.994071
0.956244
0.914233
0.827581
0.772535
0.728708
0.659978
0.626586
0.627369
0.635793
0.667094
0.746232
0.760252
0.723237
0.589308
0.646042
0.79568
0.552697
0.275954
0.207268
0.208515
0.245642
0.283443
0.300667
0.304211
0.292562
0.293325
0.249893
0.228223
0.223146
0.264745
0.327518
0.319855
0.304894
0.31948
0.352437
0.38388
0.456886
0.473025
0.384025
0.20507
0.14044
0.122192
0.130155
0.188713
0.337224
0.418568
0.548927
0.4291
0.434151
0.312325
0.308376
0.253746
0.136062
0.28082
0.350054
0.257508
0.28194
0.295033
0.29316
0.265817
0.227446
0.210534
0.202845
0.204363
0.226562
0.317482
0.453634
0.49303
0.541108
0.576244
0.556644
0.524665
0.401612
0.324943
0.255549
0.134657
0.11762
0.126631
0.156531
0.417205
0.430745
0.402738
0.307482
0.295338
0.28489
0.268504
0.331426
0.321928
0.400797
2.59865
2.21464
1.87915
1.66761
1.48964
1.38543
1.29896
1.21882
1.17037
1.09979
1.04252
1.01226
0.952862
0.889638
0.863769
0.822727
0.785158
0.781084
0.783403
0.798521
0.81888
0.799437
0.693759
0.515337
0.458118
0.601642
0.966494
0.872761
0.438895
0.239718
0.198974
0.204757
0.211294
0.207958
0.21544
0.265333
0.291332
0.272036
0.269715
0.291063
0.349657
0.349385
0.338184
0.344424
0.387353
0.415898
0.517214
0.576918
0.545096
0.342957
0.166756
0.120711
0.112387
0.135306
0.225332
0.356861
0.425923
0.560314
0.468496
0.517552
0.352309
0.359191
0.308319
0.16481
0.335043
0.44129
0.368005
0.437453
0.416049
0.365451
0.296423
0.250268
0.236865
0.243357
0.29248
0.474488
0.744273
0.903739
0.920399
0.891806
0.80144
0.651463
0.562741
0.329723
0.29185
0.199316
0.127911
0.109579
0.123776
0.220371
0.481085
0.472855
0.376813
0.341423
0.342524
0.322455
0.277434
0.300714
0.283839
0.341352
3.08356
2.41431
1.99138
1.725
1.53226
1.41889
1.3081
1.22814
1.16238
1.08334
1.04186
0.996181
0.946589
0.930856
0.920598
0.901391
0.892833
0.888692
0.879253
0.850342
0.757597
0.547352
0.388816
0.333535
0.353709
0.542066
1.00896
1.21915
0.909554
0.427216
0.241502
0.180618
0.166661
0.17076
0.187983
0.246684
0.285245
0.310751
0.334846
0.365905
0.393984
0.380781
0.385288
0.434069
0.478662
0.645454
0.817244
0.799405
0.611265
0.299252
0.169605
0.147187
0.147867
0.181571
0.282637
0.413681
0.491008
0.681801
0.622001
0.693305
0.442949
0.43602
0.509025
0.259098
0.438257
0.57266
0.44299
0.531961
0.478441
0.395461
0.339349
0.336095
0.371124
0.525077
0.908118
1.50969
1.5692
1.48852
1.20961
1.01058
0.754811
0.568343
0.413051
0.32517
0.2233
0.182395
0.142228
0.145558
0.151944
0.26965
0.515459
0.52551
0.41783
0.357355
0.395772
0.360676
0.305053
0.299648
0.274214
0.285198
3.0561
2.27819
1.86936
1.62043
1.45307
1.32612
1.20565
1.0987
0.992819
0.913341
0.8717
0.842873
0.836238
0.846252
0.846602
0.839459
0.825758
0.789046
0.698425
0.544055
0.37896
0.280896
0.26501
0.288056
0.345486
0.468173
0.922219
1.30767
1.3268
1.1481
0.750049
0.469179
0.316315
0.256616
0.249716
0.284203
0.326339
0.360859
0.392262
0.449263
0.492163
0.516774
0.578059
0.722667
1.12131
1.41919
1.36735
1.01921
0.689624
0.457462
0.421924
0.465948
0.541169
0.550184
0.51714
0.488966
0.531595
0.727142
0.95664
1.16772
1.01125
0.865429
1.12732
0.497689
0.565501
0.6513
0.561505
0.633523
0.615575
0.674803
0.832475
1.16293
1.85156
2.71915
2.89261
2.74487
2.09197
1.62893
1.03955
0.789077
0.503986
0.491788
0.386139
0.480067
0.308996
0.417424
0.339698
0.454464
0.427266
0.509899
0.746686
0.777283
0.588775
0.502232
0.623422
0.495984
0.414944
0.361039
0.383597
0.415005
1.98339
1.55357
1.33562
1.17785
1.02366
0.857384
0.684571
0.528285
0.409229
0.333975
0.297603
0.286463
0.291487
0.306177
0.319368
0.326805
0.328144
0.312993
0.291837
0.283614
0.295008
0.347369
0.474787
0.746544
1.31859
1.87575
1.84728
1.24352
1.18616
1.68079
2.03083
2.11904
1.95516
1.68472
1.4581
1.30549
1.09603
0.824156
0.672951
0.588802
0.637937
0.879775
1.38271
2.10966
2.48153
2.34354
1.73692
1.33505
0.994163
0.947982
0.986112
1.20227
1.38876
1.40027
1.32994
0.916165
0.643017
0.636581
0.986654
1.72525
2.35794
2.07444
3.41168
1.32926
1.11814
0.645194
0.66763
1.02583
1.86263
3.33371
4.5551
5.44807
5.58894
5.24233
3.95704
2.89827
1.77602
1.18673
0.619712
0.48465
0.282848
0.351311
0.236735
0.538311
0.30345
0.861227
0.662906
1.10159
0.637992
1.97579
1.20661
1.0942
0.735823
1.58285
1.1465
0.780276
0.843987
1.06774
1.64363
2.29729
0.0467036
0.0832955
0.174479
0.327117
0.775545
0.987674
0.583259
0.128752
0.128962
0.132456
0.150149
0.251183
0.470015
1.02444
1.32683
1.25982
0.966211
0.562856
0.738174
1.92547
3.26814
4.43251
5.50544
6.03799
6.16521
5.31836
3.74955
2.7743
1.43226
0.926454
0.47583
0.398421
0.450429
0.559904
0.68248
0.914281
1.2365
1.64
2.05206
1.91441
1.3082
0.660753
0.324511
0.350784
0.20777
0.19524
0.199935
0.232471
0.284194
0.350532
0.422194
0.503048
0.595048
0.725665
0.92157
1.21945
1.64708
2.23964
2.70061
2.64381
1.95836
1.21927
0.770326
0.5747
0.51874
0.56034
0.723785
1.06427
1.375
1.6009
1.60325
1.26268
0.743325
0.568456
0.670949
0.800981
0.535746
0.67819
0.537489
0.425838
0.379926
0.320765
0.29354
0.292813
0.305963
0.320968
0.329606
0.329527
0.313219
0.294237
0.266529
0.257819
0.260676
0.297874
0.331611
0.351132
0.38418
0.339804
0.153913
0.0430442
0.0954668
0.0995883
0.107344
0.117963
0.164271
0.416925
0.602396
0.543623
0.296274
0.157817
0.167146
0.209918
0.260104
0.293573
0.384655
0.620303
1.50149
2.46956
2.60948
2.66237
2.73824
2.46835
2.18964
1.63384
1.23324
0.700273
0.51139
0.45797
0.414797
0.434097
0.443865
0.420402
0.448751
0.486583
0.502254
0.542766
0.597563
0.625674
0.705937
0.763373
0.719727
0.531132
0.276262
0.260818
0.175011
0.15691
0.162946
0.160751
0.172801
0.198815
0.231868
0.273554
0.311227
0.33571
0.368689
0.438157
0.538874
0.685097
1.06828
1.73316
1.84847
1.56777
0.828887
0.409108
0.231587
0.176286
0.177488
0.228049
0.30889
0.355629
0.466811
0.736979
0.724886
0.582198
0.551786
0.401021
0.274136
0.320592
0.234428
0.240485
0.235155
0.252704
0.295009
0.352138
0.418994
0.480435
0.533417
0.593292
0.632964
0.632838
0.540774
0.378997
0.249784
0.175289
0.144599
0.1375
0.143003
0.157042
0.135692
0.0553666
0.104331
0.101183
0.110035
0.126871
0.118913
0.154671
0.36492
0.477731
0.36858
0.199902
0.158089
0.210995
0.324614
0.45667
0.774365
1.65267
2.25845
2.25495
1.8452
1.37308
0.888477
0.671111
0.506034
0.392109
0.349114
0.330792
0.342809
0.344589
0.353128
0.346654
0.35281
0.342702
0.390233
0.383209
0.347706
0.313553
0.273668
0.250645
0.266754
0.463104
0.639525
0.440043
0.244273
0.216446
0.179958
0.164072
0.173086
0.140431
0.131566
0.131372
0.134542
0.141775
0.157773
0.17744
0.194354
0.20852
0.222332
0.245104
0.290341
0.418421
0.99941
1.31403
1.19746
0.666257
0.273016
0.121174
0.0992085
0.103607
0.109109
0.148515
0.464241
0.766395
0.667419
0.433014
0.309047
0.240545
0.230156
0.237526
0.205391
0.249961
0.23673
0.237414
0.227796
0.205936
0.193744
0.192668
0.201478
0.224555
0.27335
0.397848
0.503689
0.50839
0.394703
0.194808
0.0918062
0.052339
0.0477881
0.082067
0.103474
0.0570672
0.105964
0.101795
0.130125
0.156387
0.151124
0.129513
0.17915
0.30757
0.306652
0.208561
0.179564
0.297187
0.496652
0.821681
1.40127
1.80976
1.92083
1.26031
0.740591
0.493821
0.365483
0.324982
0.311659
0.313036
0.327444
0.353027
0.375606
0.386329
0.397324
0.388233
0.425021
0.34322
0.330073
0.297025
0.255809
0.22565
0.194506
0.187436
0.211608
0.448917
0.616296
0.36508
0.225588
0.189074
0.165101
0.187596
0.202498
0.153273
0.13532
0.137315
0.15123
0.178271
0.189579
0.187902
0.179887
0.17988
0.186943
0.205179
0.221262
0.237439
0.319865
0.766165
1.05034
0.95747
0.491244
0.200357
0.135328
0.127176
0.130034
0.211811
0.614727
0.743263
0.463608
0.284264
0.207241
0.17336
0.164514
0.177015
0.160753
0.196637
0.199968
0.203379
0.217363
0.196733
0.179383
0.164913
0.159341
0.159422
0.16467
0.17682
0.210261
0.344724
0.392757
0.353491
0.19053
0.076529
0.0482465
0.0732242
0.0903328
0.0538305
0.109451
0.113234
0.161995
0.169956
0.174859
0.137829
0.13631
0.180391
0.22635
0.181446
0.197472
0.359919
0.596644
0.998952
1.37298
1.53017
1.02653
0.544129
0.361862
0.30136
0.287611
0.31172
0.3255
0.337805
0.339376
0.338602
0.367448
0.389714
0.408711
0.425663
0.456189
0.349197
0.340844
0.286445
0.222995
0.181945
0.166487
0.1695
0.214233
0.487474
0.580283
0.282119
0.189049
0.147692
0.136351
0.191927
0.207351
0.177372
0.141578
0.135687
0.149473
0.191099
0.198551
0.18954
0.167069
0.16656
0.178629
0.195203
0.216802
0.224749
0.2352
0.32195
0.743887
0.889753
0.757576
0.372713
0.219519
0.17645
0.178895
0.318042
0.680421
0.582409
0.298329
0.201719
0.160241
0.144659
0.140142
0.149343
0.150879
0.175444
0.184411
0.194732
0.208098
0.198208
0.177207
0.165958
0.164657
0.16822
0.178917
0.199874
0.204986
0.205909
0.272841
0.317733
0.284608
0.144042
0.0672542
0.0763968
0.0815126
0.0513318
0.113989
0.135915
0.178989
0.193296
0.195408
0.162596
0.126753
0.138393
0.17173
0.159731
0.221194
0.386524
0.629045
0.915056
1.05473
0.888952
0.485201
0.319418
0.2771
0.272442
0.289366
0.309104
0.320939
0.346185
0.352175
0.33445
0.339876
0.402419
0.417237
0.42589
0.415755
0.378757
0.338541
0.294279
0.233736
0.176776
0.160044
0.166941
0.245289
0.536071
0.537009
0.220475
0.143707
0.113292
0.104029
0.144287
0.171635
0.208743
0.188304
0.141339
0.125105
0.133561
0.184162
0.179399
0.163896
0.170301
0.195302
0.210785
0.212239
0.220633
0.222142
0.238056
0.381424
0.763445
0.77156
0.582609
0.335882
0.233379
0.229756
0.407633
0.669885
0.370534
0.197381
0.150722
0.132721
0.13294
0.139794
0.144046
0.157683
0.176937
0.172694
0.201344
0.211971
0.228578
0.22136
0.182946
0.157681
0.147751
0.14943
0.160396
0.202036
0.207029
0.204105
0.252039
0.265575
0.212414
0.0950146
0.085991
0.0740253
0.0497494
0.122529
0.154949
0.195114
0.218205
0.204742
0.170176
0.122569
0.121023
0.135754
0.146763
0.231532
0.390971
0.561141
0.684306
0.714071
0.465757
0.311838
0.267904
0.27015
0.273852
0.281808
0.289273
0.281187
0.286492
0.331209
0.337932
0.325999
0.405146
0.417161
0.407428
0.394344
0.394139
0.344816
0.299433
0.254243
0.184064
0.161365
0.175085
0.295994
0.556011
0.464141
0.160927
0.114046
0.0936007
0.0902187
0.100299
0.131927
0.213261
0.241627
0.196165
0.130702
0.118394
0.125031
0.165816
0.162324
0.164731
0.19666
0.220618
0.222032
0.215956
0.214787
0.216667
0.25772
0.516906
0.718124
0.673608
0.474076
0.304339
0.284998
0.465568
0.582974
0.24399
0.145233
0.127192
0.120833
0.121764
0.134835
0.135257
0.141262
0.156225
0.148249
0.16573
0.175188
0.21089
0.245499
0.24565
0.206213
0.152625
0.133258
0.12637
0.13607
0.188559
0.189658
0.196566
0.241862
0.227935
0.14021
0.0933614
0.069827
0.0517984
0.134232
0.17136
0.218112
0.229631
0.214689
0.187808
0.119323
0.110724
0.117774
0.139269
0.226952
0.37079
0.470827
0.525265
0.471784
0.320445
0.271367
0.263112
0.267915
0.269097
0.252092
0.259789
0.271161
0.263346
0.28843
0.341005
0.320373
0.379758
0.377847
0.389268
0.3521
0.373543
0.34589
0.301154
0.269732
0.207738
0.176397
0.19487
0.343142
0.556774
0.410231
0.133651
0.098599
0.0832555
0.0861516
0.0955251
0.111885
0.180399
0.237748
0.209142
0.15619
0.119976
0.116203
0.128504
0.147306
0.161323
0.209077
0.232824
0.234666
0.224208
0.211718
0.208196
0.217921
0.320226
0.61905
0.654947
0.587897
0.384992
0.337436
0.494141
0.475645
0.174048
0.118306
0.118374
0.119239
0.111402
0.117795
0.129256
0.126959
0.143829
0.138418
0.150156
0.149484
0.150229
0.180904
0.234164
0.229549
0.172884
0.126813
0.115869
0.118294
0.143981
0.176565
0.177258
0.209937
0.222398
0.175377
0.111222
0.0623352
0.0554397
0.145484
0.195141
0.235911
0.240655
0.226412
0.194015
0.114398
0.106159
0.103335
0.129758
0.208717
0.351987
0.407914
0.414119
0.336028
0.275197
0.259833
0.264376
0.251037
0.246958
0.208699
0.204109
0.246427
0.256937
0.275055
0.308501
0.326187
0.341813
0.342869
0.353975
0.321437
0.324035
0.315558
0.293159
0.267211
0.231658
0.198903
0.221049
0.375196
0.537228
0.392806
0.127699
0.0871698
0.0776248
0.0860251
0.0914075
0.10056
0.13107
0.195398
0.20084
0.169992
0.129347
0.113777
0.116006
0.139378
0.172576
0.224195
0.243089
0.243221
0.237076
0.217859
0.202555
0.201953
0.238612
0.460444
0.620789
0.612659
0.474332
0.383375
0.505163
0.414938
0.141473
0.104787
0.105384
0.11172
0.0911414
0.0992518
0.11569
0.116986
0.13873
0.131157
0.148057
0.145687
0.14357
0.138189
0.162218
0.171069
0.16173
0.121652
0.109598
0.111777
0.130311
0.163783
0.167045
0.179297
0.216541
0.194491
0.130706
0.0652392
0.0662502
0.161326
0.214095
0.244835
0.245114
0.231057
0.195558
0.105077
0.0942852
0.0900744
0.11409
0.18189
0.321031
0.383203
0.35662
0.294426
0.26642
0.255932
0.255713
0.203666
0.193454
0.199732
0.190019
0.230395
0.243324
0.290556
0.290241
0.32232
0.300545
0.279077
0.276685
0.27553
0.277392
0.278367
0.274344
0.248875
0.237903
0.213673
0.237716
0.404937
0.492053
0.369362
0.128134
0.0833299
0.0777412
0.0897384
0.0914818
0.0946026
0.108615
0.134463
0.188594
0.180657
0.136629
0.114535
0.11594
0.138774
0.180574
0.223378
0.243567
0.242323
0.235601
0.217927
0.202044
0.194159
0.205344
0.320203
0.555712
0.604395
0.529319
0.411536
0.496993
0.399884
0.140809
0.103524
0.0877955
0.088039
0.08581
0.107459
0.112827
0.107924
0.130727
0.129838
0.145083
0.142699
0.145549
0.133724
0.144054
0.14644
0.145358
0.130221
0.115818
0.117472
0.12965
0.157701
0.161759
0.16584
0.200897
0.20651
0.145928
0.0729451
0.0723481
0.171611
0.225629
0.257484
0.262088
0.249241
0.218867
0.108913
0.0846601
0.0871024
0.0940831
0.153068
0.287101
0.35038
0.347798
0.288789
0.259263
0.247709
0.217303
0.191267
0.167683
0.206058
0.200125
0.240656
0.242412
0.288561
0.280676
0.270808
0.247805
0.233337
0.233034
0.241208
0.250406
0.253612
0.254462