/*--------------------------------*- C++ -*----------------------------------*\
| =========                 |                                                 |
| \\      /  F ield         | OpenFOAM: The Open Source CFD Toolbox           |
|  \\    /   O peration     | Version:  2.4.0                                 |
|   \\  /    A nd           | Web:      www.OpenFOAM.org                      |
|    \\/     M anipulation  |                                                 |
\*---------------------------------------------------------------------------*/
FoamFile
{
    version     2.0;
    format      ascii;
    class       volScalarField;
    location    "0.147";
    object      pMean;
}
// * * * * * * * * * * * * * * * * * * * * * * * * * * * * * * * * * * * * * //

dimensions      [0 2 -2 0 0 0 0];

internalField   nonuniform List<scalar> 
4400
(
129.805
108.453
100.188
96.2789
93.0763
89.9489
86.7981
83.6646
80.379
76.4283
127.888
108.518
100.225
96.2901
93.0791
89.9493
86.7987
83.6648
80.3943
76.7502
126.684
108.828
100.358
96.3288
93.0994
89.9571
86.8028
83.6624
80.4607
76.9151
125.951
109.202
100.535
96.3863
93.1418
89.9845
86.8168
83.6778
80.5353
77.1547
125.359
109.545
100.713
96.4451
93.2014
90.0271
86.8484
83.6951
80.6369
77.3984
124.847
109.829
100.869
96.4883
93.2575
90.0798
86.8885
83.7303
80.757
77.6801
124.426
110.055
100.999
96.5131
93.303
90.1249
86.9293
83.7693
80.8484
78.0303
124.103
110.226
101.101
96.5259
93.3341
90.1623
86.9637
83.8139
80.9015
78.3499
123.885
110.342
101.171
96.5318
93.3542
90.1901
86.9888
83.857
80.9766
78.6748
123.776
110.401
101.206
96.5342
93.3655
90.2053
87.013
83.8963
81.067
78.9147
123.775
110.403
101.205
96.5362
93.3668
90.2134
87.027
83.938
81.1545
79.1103
123.883
110.347
101.171
96.5357
93.361
90.2094
87.0391
83.9786
81.2402
79.2624
124.099
110.233
101.102
96.5326
93.345
90.1957
87.044
84.0159
81.3267
79.3736
124.421
110.065
101
96.5232
93.3181
90.1711
87.0425
84.051
81.414
79.4438
124.841
109.84
100.87
96.5007
93.2786
90.1361
87.0357
84.0805
81.4995
79.4808
125.352
109.557
100.714
96.4604
93.2275
90.095
87.0255
84.106
81.5708
79.5138
125.944
109.215
100.536
96.4038
93.1726
90.0591
87.0179
84.1289
81.6185
79.5421
126.677
108.841
100.359
96.3478
93.1328
90.0387
87.017
84.1476
81.6454
79.5763
127.882
108.531
100.226
96.3096
93.1139
90.0329
87.0195
84.1584
81.656
79.6148
129.799
108.466
100.189
96.2986
93.1111
90.0335
87.021
84.162
81.6574
79.718
74.42
73.8579
72.5504
71.2037
69.9929
69.1304
68.7179
68.3532
68.4596
68.6318
68.4566
68.0923
67.5781
67.4599
67.5459
67.5369
67.7451
68.4071
69.3269
70.4991
71.7779
73.1001
74.3811
75.5591
76.5837
77.4102
78.0878
78.5937
78.9656
79.235
79.4065
79.6492
79.9305
80.3004
80.6204
80.9289
81.1641
81.269
81.2512
81.094
81.023
81.0474
81.1959
81.4819
81.9284
82.4363
83.0067
83.5178
84.0099
84.417
84.7709
85.0599
85.258
85.4516
85.6347
85.804
86.059
86.2716
86.7072
87.0092
87.544
87.9348
88.5754
88.9442
89.484
89.5814
89.9235
89.7025
89.8343
89.4773
89.6516
89.361
89.7518
89.5685
90.1277
90.0326
90.7459
90.7166
91.5563
91.442
92.1638
91.9076
92.4696
92.054
92.4999
91.9699
92.3768
91.8523
92.1683
91.5462
91.6909
90.8677
90.8283
89.6049
89.3857
87.206
86.828
81.7457
80.7966
56.214
74.6826
74.0179
72.9602
71.7837
70.6858
69.8797
69.4967
69.2578
69.3503
69.5672
69.483
69.1905
68.7062
68.533
68.6321
68.6989
68.8606
69.4115
70.2257
71.2694
72.4041
73.5876
74.7293
75.779
76.6776
77.3834
77.939
78.3495
78.6311
78.83
78.9713
79.1802
79.4424
79.8073
80.1486
80.5147
80.7817
80.9135
80.8981
80.7182
80.685
80.7347
80.9413
81.2932
81.823
82.4017
83.0301
83.5791
84.1021
84.5479
84.9226
85.1993
85.4048
85.5926
85.7888
85.9627
86.2204
86.4258
86.8539
87.1291
87.6437
87.995
88.601
88.9611
89.4883
89.6115
89.9442
89.7459
89.875
89.5223
89.7005
89.3812
89.735
89.4789
89.9715
89.7905
90.5211
90.3394
91.2363
90.9393
91.7791
91.3379
92.0764
91.4354
92.1284
91.3546
92.0359
91.2338
91.8187
90.8792
91.2591
90.0714
90.2154
88.4792
88.4701
85.3852
85.277
77.982
76.3907
49.1797
75.1416
74.386
73.3702
72.305
71.3221
70.5919
70.2309
70.0748
70.149
70.3593
70.3643
70.168
69.7719
69.5835
69.6893
69.8342
69.9898
70.4578
71.1754
72.0994
73.0956
74.1336
75.1294
76.0352
76.79
77.3638
77.7935
78.1052
78.3093
78.462
78.5971
78.8012
79.0687
79.4459
79.821
80.2545
80.5518
80.7156
80.6891
80.4953
80.5025
80.5739
80.8593
81.2879
81.9052
82.5634
83.25
83.8292
84.3935
84.8672
85.2649
85.5176
85.7352
85.9109
86.1194
86.2897
86.54
86.7409
87.1446
87.4033
87.8826
88.2049
88.7531
89.1051
89.5795
89.7394
90.0372
89.8788
89.9916
89.6548
89.808
89.465
89.7518
89.4416
89.8814
89.6042
90.3287
89.9989
90.9141
90.4371
91.3667
90.7424
91.613
90.7729
91.6843
90.6497
91.6292
90.4903
91.4244
90.0904
90.8156
89.1829
89.5919
87.256
87.3973
83.3971
83.5788
74.7168
71.4367
47.3758
75.5541
74.8348
73.8832
72.8878
71.9949
71.3423
71.0157
70.9149
70.9766
71.1596
71.2263
71.1148
70.8324
70.6655
70.7715
70.9776
71.1531
71.5544
72.1753
72.9849
73.85
74.7351
75.5735
76.3196
76.9192
77.3539
77.6587
77.8747
78.0236
78.1536
78.2979
78.5251
78.8218
79.2294
79.6481
80.1459
80.4704
80.6646
80.6052
80.4161
80.457
80.5518
80.9417
81.4538
82.1684
82.9082
83.6454
84.2544
84.8691
85.3618
85.7868
86.009
86.2398
86.3947
86.6149
86.7759
87.0062
87.197
87.5632
87.8024
88.2403
88.5395
89.0253
89.368
89.7758
89.967
90.2225
90.1048
90.1872
89.8666
89.9728
89.6073
89.8143
89.4539
89.8529
89.4738
90.1641
89.7013
90.6031
89.9707
90.9527
90.1666
91.1143
90.1208
91.1446
89.8924
91.0918
89.6121
90.9338
89.0869
90.3296
88.0608
88.9956
85.965
86.2526
81.4602
81.352
71.8367
66.0832
47.3848
75.909
75.2934
74.4907
73.538
72.6955
72.1048
71.8273
71.7809
71.8591
72.0243
72.1254
72.0848
71.914
71.7991
71.8964
72.1345
72.3439
72.6892
73.2149
73.9055
74.6395
75.3673
76.0404
76.6212
77.0655
77.3613
77.5478
77.6798
77.7926
77.9198
78.0882
78.3594
78.701
79.1529
79.6256
80.1786
80.5278
80.7373
80.6251
80.4635
80.5244
80.6568
81.1714
81.7668
82.5936
83.4126
84.1939
84.8278
85.5075
86.0125
86.4716
86.6634
86.9068
87.027
87.2556
87.3973
87.6048
87.7688
88.1034
88.3016
88.71
88.9731
89.4111
89.7244
90.0847
90.284
90.4988
90.3955
90.443
90.1253
90.1784
89.7833
89.9271
89.497
89.8552
89.3765
90.0179
89.4441
90.3201
89.5576
90.5626
89.6371
90.6083
89.5346
90.5316
89.1854
90.3482
88.6771
90.0758
87.8724
89.4631
86.5559
88.1059
84.2427
85.2781
79.7117
78.9957
69.6263
60.4994
47.1723
76.2343
75.7296
75.0612
74.1653
73.3747
72.8684
72.6648
72.6795
72.7876
72.9445
73.0622
73.0829
73.012
72.9641
73.0609
73.2971
73.5352
73.8354
74.2627
74.8261
75.4251
75.9944
76.5051
76.9306
77.2252
77.3926
77.4789
77.5421
77.6299
77.7654
77.9688
78.297
78.6996
79.2062
79.7357
80.3318
80.7074
80.9101
80.7441
80.6283
80.7026
80.8926
81.5294
82.1971
83.1489
84.0517
84.873
85.5247
86.2873
86.7994
87.2997
87.4648
87.7252
87.7988
88.0251
88.1286
88.3254
88.4309
88.7588
88.8762
89.2896
89.4908
89.916
90.1708
90.5097
90.6692
90.858
90.7256
90.7471
90.4
90.4116
89.9707
90.0751
89.559
89.8748
89.3082
89.89
89.2321
90.0668
89.2013
90.2014
89.1504
90.1325
89.0111
89.9407
88.6088
89.6198
87.9684
89.1975
86.8951
88.3221
85.0321
86.7084
82.0375
83.5055
77.0274
75.8503
67.3146
56.8497
47.5613
76.7207
76.1731
75.4828
74.6549
73.9866
73.6167
73.5114
73.5787
73.7136
73.8712
74.0012
74.0724
74.0819
74.1015
74.2089
74.4293
74.6739
74.942
75.2796
75.7129
76.1728
76.5907
76.9546
77.2393
77.3988
77.4596
77.4667
77.4785
77.5464
77.691
77.9337
78.324
78.7987
79.3735
79.9606
80.5883
80.9907
81.1668
80.9592
80.907
80.9943
81.2758
82.0008
82.725
83.8083
84.7917
85.6521
86.3221
87.192
87.6983
88.2476
88.389
88.672
88.6983
88.9228
88.9649
89.1581
89.1677
89.5057
89.5033
89.9659
90.0692
90.5331
90.7024
91.0443
91.1351
91.3086
91.1128
91.1083
90.7003
90.6833
90.1755
90.2536
89.6492
89.9137
89.2788
89.7843
89.0706
89.8364
88.9125
89.8621
88.718
89.686
88.5119
89.369
88.0787
88.9274
87.4105
88.3432
86.2264
87.2084
84.0061
85.146
80.2181
80.8806
73.9286
71.8946
64.1848
55.084
48.0232
77.4957
76.8102
75.8407
75.031
74.5243
74.3101
74.3055
74.4235
74.583
74.7508
74.8958
75.0057
75.0775
75.1536
75.2805
75.4848
75.7225
75.9623
76.2254
76.5401
76.8669
77.1532
77.3957
77.5587
77.6022
77.5801
77.5267
77.4924
77.5409
77.6964
77.9813
78.4307
78.981
79.6338
80.2819
80.933
81.3478
81.5018
81.2768
81.2955
81.4013
81.7952
82.5722
83.3487
84.5487
85.5976
86.5072
87.1917
88.192
88.6806
89.2788
89.4126
89.7284
89.7068
89.932
89.9039
90.0928
90.0071
90.3487
90.2028
90.7384
90.7095
91.2578
91.3115
91.6869
91.6879
91.8522
91.5762
91.5436
91.0535
91.0039
90.426
90.4656
89.7959
89.9911
89.3131
89.7258
88.9833
89.6426
88.7051
89.5408
88.3897
89.2548
88.0563
88.7859
87.5083
88.2087
86.7435
87.4135
85.4252
85.9918
83.0318
83.3771
78.8107
78.1278
71.9842
68.7024
62.3411
54.5182
47.9627
78.0591
77.3117
76.1945
75.3955
75.0121
74.9354
75.0317
75.2052
75.3906
75.5705
75.7284
75.8656
75.9847
76.105
76.2541
76.4487
76.6663
76.8734
77.0761
77.2961
77.5113
77.6975
77.8495
77.9099
77.8569
77.7694
77.6629
77.5892
77.6211
77.7892
78.1138
78.6162
79.2381
79.9724
80.6779
81.3455
81.7525
81.9038
81.6969
81.7805
81.9175
82.42
83.2294
84.0759
85.3469
86.4472
87.4001
88.1077
89.25
89.7184
90.3772
90.503
90.8618
90.8029
91.0416
90.9311
91.1275
90.9528
91.2928
91.0011
91.6021
91.4065
92.082
91.984
92.4374
92.327
92.4939
92.1285
92.0656
91.4816
91.3899
90.7408
90.7323
90.0151
90.1331
89.4442
89.7409
89.0094
89.5135
88.6107
89.2613
88.1981
88.8351
87.6978
88.1813
86.9442
87.4624
86.0548
86.4308
84.5175
84.6811
81.9738
81.5111
77.564
75.6381
71.0652
66.9241
62.2047
54.5472
48.0231
78.4775
77.7423
76.5863
75.807
75.5009
75.5269
75.7064
75.9271
76.1328
76.3212
76.4904
76.6487
76.8059
76.9627
77.1324
77.3217
77.5124
77.6835
77.8369
77.9848
78.1202
78.2415
78.3268
78.3
78.1668
78.028
77.8773
77.7743
77.7942
77.9722
78.3322
78.8816
79.5708
80.3818
81.1356
81.8092
82.1976
82.3647
82.2149
82.3605
82.5397
83.1418
83.9622
84.8992
86.1786
87.3162
88.3055
89.0571
90.3296
90.7674
91.5108
91.6213
92.0542
91.9524
92.2175
92.0262
92.2308
91.9831
92.3123
91.8929
92.5339
92.1573
92.9805
92.701
93.2811
93.0351
93.2277
92.76
92.6779
91.99
91.8653
91.1431
91.0823
90.3457
90.3786
89.7101
89.8719
89.1902
89.5019
88.6761
89.086
88.1538
88.4786
87.4737
87.5869
86.4479
86.7324
85.4615
85.4387
83.7105
83.3444
81.1235
79.8479
76.6271
74.151
70.8753
66.4253
63.1381
55.0198
48.8123
78.7975
78.1063
76.9783
76.2383
75.9877
76.08
76.3185
76.5775
76.8047
77.0059
77.1894
77.3704
77.5591
77.7468
77.9341
78.1188
78.2842
78.4226
78.5386
78.6325
78.7107
78.7887
78.8199
78.7192
78.5219
78.345
78.1583
78.0379
78.063
78.2622
78.6571
79.2438
79.9964
80.8695
81.6503
82.3189
82.6868
82.8906
82.8289
83.0434
83.2687
83.9584
84.7625
85.7885
87.0195
88.216
89.1971
90.0395
91.4088
91.8233
92.6337
92.7506
93.2567
93.128
93.4349
93.1601
93.3932
93.0696
93.3797
92.8646
93.5088
92.9926
93.9344
93.4811
94.2092
93.8081
94.0417
93.4689
93.3578
92.5925
92.4187
91.6631
91.5186
90.8284
90.7347
90.1517
90.1369
89.5691
89.6499
88.9692
89.105
88.3391
88.3185
87.4601
87.1577
86.1436
86.1861
85.1059
84.6376
83.1868
82.299
80.6434
78.7617
76.1988
73.5585
71.4045
66.7028
64.3331
56.0007
50.1261
79.0163
78.3866
77.348
76.6871
76.4922
76.627
76.8976
77.1801
77.4254
77.6403
77.8404
78.0428
78.2565
78.4675
78.6673
78.8466
78.9936
79.1097
79.1941
79.2488
79.2892
79.3372
79.3223
79.1561
78.9068
78.7074
78.4992
78.3753
78.4265
78.6635
79.0963
79.7197
80.5242
81.437
82.2242
82.8717
83.234
83.4943
83.5444
83.8335
84.1042
84.8622
85.6271
86.7318
87.8778
89.1529
90.0604
91.0689
92.4483
92.8845
93.7297
93.8699
94.4505
94.2862
94.6453
94.3131
94.5594
94.2061
94.467
93.9162
94.503
93.9235
94.897
94.3461
95.1756
94.6621
94.9145
94.2631
94.0879
93.3077
93.0363
92.3311
92.0385
91.4854
91.1895
90.7896
90.5219
90.1769
89.9603
89.5138
89.3492
88.7652
88.4213
87.7002
87.0091
86.1542
86.0136
85.113
84.2743
83.1126
81.8148
80.7163
78.3962
76.5713
73.7143
72.4943
67.469
65.4249
57.3274
51.3234
79.1435
78.5981
77.709
77.1616
77.0222
77.1723
77.4448
77.73
77.9852
78.2127
78.43
78.6538
78.8868
79.1117
79.3167
79.4905
79.6202
79.7131
79.7758
79.8042
79.8207
79.8536
79.8116
79.5985
79.3186
79.1144
78.9124
78.8132
78.9065
79.1857
79.6557
80.319
81.1632
82.0857
82.8541
83.4681
83.8491
84.1891
84.3728
84.7318
85.0516
85.8478
86.5704
87.7352
88.7747
90.149
90.9294
92.158
93.4337
93.9396
94.7394
94.9845
95.5659
95.4396
95.8143
95.4917
95.7202
95.3984
95.5746
95.0849
95.5248
94.9996
95.8681
95.3285
96.162
95.6119
95.8251
95.1507
94.851
94.1354
93.7031
93.135
92.6259
92.29
91.7222
91.5978
91.0021
90.9802
90.3953
90.2802
89.744
89.4428
88.7087
88.2893
87.1123
86.6032
86.2004
85.599
84.3567
83.6275
81.8694
81.387
78.6595
77.7115
74.4139
73.8611
68.4926
66.294
58.5984
52.2651
79.1679
78.7274
78.0474
77.6423
77.5588
77.7053
77.9554
78.2242
78.4793
78.7158
78.9483
79.1883
79.4297
79.6593
79.8637
80.0289
80.1495
80.2325
80.2776
80.2825
80.2823
80.3073
80.2541
80.0213
79.737
79.5451
79.3787
79.3364
79.4947
79.8283
80.3416
81.0442
81.9103
82.8094
83.5405
84.1199
84.5443
84.983
85.3125
85.7283
86.103
86.8903
87.574
88.787
89.7091
91.1891
91.8292
93.3233
94.3484
95.0294
95.6871
96.1318
96.6126
96.5922
96.92
96.6789
96.8488
96.6201
96.6689
96.3395
96.5381
96.2292
96.8148
96.4469
97.123
96.6591
96.7424
96.1205
95.6317
95.0446
94.3976
94.0169
93.2569
93.1705
92.306
92.4916
91.5441
91.8773
90.9012
91.172
90.2066
90.3177
89.1302
89.2135
87.5313
87.5808
86.598
86.5698
84.7381
84.7044
82.3397
82.5149
79.3826
79.2426
75.4246
75.1314
69.4817
66.8953
59.6394
53.0828
79.1173
78.8097
78.38
78.12
78.0692
78.1868
78.3993
78.6431
78.8899
79.1289
79.3676
79.6114
79.8509
80.0785
80.2814
80.4437
80.5627
80.6414
80.6759
80.667
80.6577
80.6824
80.6369
80.4196
80.1633
80.0051
79.8948
79.9278
80.1632
80.5591
81.1251
81.8743
82.7447
83.5931
84.2806
84.8347
85.3205
85.8603
86.3278
86.7898
87.2177
87.9536
88.6203
89.8596
90.656
92.2416
92.7248
94.5164
95.2727
96.1174
96.6053
97.3114
97.5727
97.7738
97.9184
97.8463
97.8483
97.8095
97.6335
97.5996
97.4731
97.5364
97.6979
97.6794
98.0322
97.7706
97.6202
97.1342
96.3947
95.9941
95.0826
94.933
93.8965
94.0703
92.91
93.3871
92.1185
92.767
91.4393
92.0804
90.7055
91.278
89.6604
90.3318
88.18
88.9992
87.1933
87.9023
85.3579
86.1382
83.0551
83.7886
80.3316
80.7512
76.4637
76.0968
70.2846
67.2411
60.4472
53.8772
79.0287
78.8582
78.6757
78.5297
78.4884
78.5721
78.7458
78.9612
79.1932
79.4287
79.6694
79.9147
80.1537
80.3785
80.5765
80.7343
80.8533
80.9323
80.9666
80.9576
80.9557
80.9923
80.9649
80.7881
80.59
80.4893
80.4557
80.5828
80.8954
81.3563
81.981
82.7633
83.6144
84.4074
85.0512
85.5963
86.1496
86.7745
87.3543
87.8565
88.3244
88.9975
89.6872
90.9157
91.5965
93.2706
93.5753
95.6328
96.1224
97.1806
97.3542
98.4619
98.3867
98.9254
98.7141
98.944
98.631
98.8958
98.3988
98.7567
98.2612
98.7697
98.476
98.9145
98.8365
98.8679
98.3921
98.1336
97.0937
96.9312
95.7256
95.821
94.5096
94.9181
93.5016
94.2144
92.6914
93.5956
91.9711
92.9584
91.2023
92.2671
90.2135
91.5221
88.9483
90.5116
87.909
89.4057
86.1757
87.7627
83.85
85.0638
81.3127
82.0638
77.3661
76.6975
70.9073
67.4241
61.0673
54.6494
79.0655
78.9535
78.8833
78.8061
78.7769
78.8393
78.9828
79.1737
79.3914
79.6226
79.863
80.1065
80.341
80.5602
80.7537
80.9109
81.033
81.1171
81.1616
81.1711
81.1928
81.2475
81.2474
81.1309
81.0088
80.9792
81.0401
81.266
81.6505
82.1747
82.8529
83.6494
84.4634
85.1947
85.8002
86.3518
86.9594
87.643
88.2973
88.8369
89.3397
89.9657
90.6931
91.8706
92.4635
94.2187
94.3964
96.6323
96.7827
98.2864
98.0175
99.4698
99.0516
99.9192
99.3481
99.9434
99.2602
99.8871
99.0197
99.768
98.9237
99.8144
99.1402
100.026
99.5161
99.8974
99.0558
99.0744
97.714
97.7955
96.2892
96.6208
95.0457
95.6773
94.0266
94.9606
93.2001
94.3656
92.4524
93.7994
91.6746
93.2238
90.7447
92.6331
89.6544
91.8708
88.6096
90.8262
87.0006
89.341
84.5688
86.3446
82.235
83.0874
78.0638
77.0115
71.4078
67.561
61.5446
55.3759
79.1407
79.0632
79.0181
78.9644
78.9465
78.9988
79.1211
79.2936
79.5005
79.7272
79.9642
80.2026
80.4314
80.6456
80.8362
80.995
81.1268
81.2261
81.2894
81.3289
81.3866
81.4672
81.4977
81.4465
81.4052
81.4542
81.6072
81.9195
82.365
82.9398
83.6513
84.4371
85.204
85.8755
86.4489
87.0079
87.6361
88.3455
89.0356
89.6163
90.1692
90.7846
91.5344
92.6246
93.1843
94.9863
95.0645
97.4555
97.2225
99.1974
98.6158
100.237
99.5801
100.768
99.8648
100.777
99.7416
100.679
99.4936
100.541
99.4255
100.615
99.6546
100.887
100.015
100.729
99.5297
99.839
98.1584
98.4889
96.6916
97.2574
95.4303
96.2875
94.4072
95.575
93.5759
95.0118
92.8255
94.5056
92.0728
94.019
91.2193
93.5418
90.2521
92.9403
89.2215
91.9709
87.705
90.498
85.3059
87.658
83.01
83.7555
78.5502
77.1631
71.7871
67.7033
61.8852
56.0127
79.2274
79.1561
79.0917
79.0382
79.0239
79.0688
79.1767
79.3371
79.5371
79.7617
79.9974
80.2344
80.4618
80.6757
80.8694
81.0354
81.1769
81.2917
81.3795
81.4533
81.5439
81.6476
81.7099
81.7196
81.7498
81.8646
82.0851
82.4536
82.9311
83.5294
84.2423
84.9996
85.7176
86.3425
86.8925
87.4497
88.0828
88.7915
89.4904
90.1092
90.7202
91.361
92.1373
93.136
93.7019
95.5186
95.4599
98.0172
97.5531
99.6747
98.952
100.787
99.9939
101.354
100.227
101.336
100.089
101.159
99.8226
100.984
99.7502
101.121
100.003
101.448
100.347
101.275
99.8355
100.343
98.4371
98.9397
96.9292
97.6642
95.6462
96.6746
94.6154
95.9593
93.7862
95.4085
93.0492
94.9399
92.3348
94.5173
91.5448
94.1168
90.6285
93.5876
89.6507
92.6698
88.2326
91.1787
85.7843
88.7123
83.5953
84.1063
78.9623
77.2083
72.0926
67.8097
62.0908
56.463
79.3796
79.2251
79.1178
79.0573
79.0413
79.0818
79.1845
79.3407
79.5372
79.7596
79.9934
80.2289
80.458
80.6751
80.8745
81.0499
81.2034
81.3324
81.4376
81.5315
81.6384
81.7539
81.8347
81.8756
81.9378
82.0772
82.321
82.7068
83.1909
83.7881
84.4875
85.2197
85.9094
86.5178
87.0647
87.629
88.2629
88.9624
89.6538
90.2964
90.9521
91.6143
92.3994
93.3661
93.9449
95.7567
95.7012
98.2725
97.7288
99.858
99.1298
101.094
100.129
101.572
100.376
101.554
100.244
101.34
99.9808
101.171
99.9026
101.338
100.154
101.686
100.462
101.493
99.9226
100.53
98.5148
99.103
96.9911
97.807
95.6942
96.8044
94.6594
96.0858
93.8319
95.5433
93.1002
95.0945
92.3924
94.6998
91.6216
94.3365
90.7259
93.8435
89.761
92.9636
88.3469
91.4024
85.973
89.1213
83.7132
84.2198
79.0626
77.1808
72.1478
67.8035
62.1283
56.4299
76.2684
75.8603
74.7225
73.024
71.5834
70.4503
69.7019
69.4584
69.3098
69.324
69.5668
70.0453
70.6441
71.2715
71.9141
72.6564
73.5084
74.4291
75.3308
76.3399
77.6359
79.1903
80.9917
82.893
84.8408
86.8519
88.8512
90.6864
92.3872
93.9058
95.4147
96.839
98.296
99.4802
100.626
101.374
102.173
102.682
103.276
103.432
103.302
102.712
102.043
101.203
100.549
99.9498
99.6324
99.3073
99.1688
98.9305
98.854
98.6859
98.6445
98.5344
98.5158
98.4505
98.4007
98.303
98.1891
98.0256
97.87
97.6993
97.5746
97.4404
97.3537
97.2414
97.194
97.1275
97.1387
97.0827
97.0877
96.9946
97.0969
97.0956
97.4318
97.3399
97.3901
97.2177
97.1814
97.1625
97.2354
97.3512
97.4823
97.6152
97.7342
97.8368
97.9244
98.0017
98.0701
98.1332
98.1905
98.2489
98.3038
98.3303
98.3103
98.3368
98.3993
98.5609
99.236
100.137
76.2126
75.7451
74.534
72.8004
71.3246
70.1872
69.4716
69.2578
69.0944
69.0967
69.3419
69.8203
70.4255
71.0406
71.6521
72.3833
73.2369
74.1459
75.0186
76.0191
77.3152
78.8807
80.6421
82.4782
84.4011
86.4227
88.4745
90.3517
92.0731
93.601
95.1048
96.503
97.9326
99.106
100.242
101.017
101.808
102.356
102.939
103.177
103.053
102.528
101.87
101.081
100.442
99.8655
99.5639
99.2558
99.1312
98.8958
98.8304
98.6553
98.6189
98.5024
98.4836
98.4145
98.3673
98.2681
98.1586
97.9875
97.8293
97.6476
97.5226
97.3812
97.2914
97.1708
97.1215
97.0517
97.0661
97.0087
97.007
96.904
97.004
97.0129
97.3234
97.2786
97.3166
97.1724
97.1482
97.1415
97.2263
97.3512
97.4866
97.6202
97.7383
97.8384
97.9253
98.0007
98.0689
98.1301
98.1871
98.2434
98.2999
98.325
98.3025
98.2997
98.2904
98.396
99.0625
99.9481
76.0947
75.5258
74.1764
72.356
70.8203
69.644
68.9936
68.8246
68.6479
68.6316
68.8954
69.3857
69.9696
70.5152
71.0291
71.6804
72.4948
73.3609
74.2044
75.2162
76.5578
78.1443
79.8355
81.5606
83.4451
85.4626
87.6134
89.5759
91.3381
92.9059
94.4312
95.7808
97.1713
98.3381
99.4453
100.271
101.041
101.661
102.215
102.554
102.453
102.033
101.397
100.699
100.101
99.5823
99.3106
99.0449
98.9418
98.7298
98.6886
98.5133
98.4911
98.3746
98.3561
98.2835
98.2405
98.1407
98.0391
97.867
97.7099
97.5179
97.3856
97.2324
97.1305
96.9941
96.9346
96.864
96.8774
96.8268
96.8138
96.7004
96.7944
96.8271
97.0802
97.1202
97.1342
97.0483
97.0425
97.0759
97.1847
97.3319
97.4756
97.6126
97.7272
97.8269
97.9116
97.9884
98.055
98.1182
98.1695
98.2233
98.2794
98.3224
98.3021
98.2608
98.1066
98.1241
98.7484
99.6511
75.9096
75.2433
73.7326
71.8164
70.221
68.9639
68.3604
68.1929
67.9925
68.003
68.3073
68.7907
69.294
69.7132
70.104
70.6424
71.3853
72.1856
72.9914
74.0367
75.4424
77.0573
78.7279
80.3672
82.2339
84.2444
86.4793
88.5441
90.3553
91.9729
93.5309
94.8385
96.1706
97.3333
98.4223
99.2903
100.034
100.713
101.215
101.628
101.558
101.24
100.663
100.063
99.5281
99.089
98.8512
98.6381
98.5674
98.3879
98.3793
98.2133
98.2145
98.1118
98.0911
98.026
97.9824
97.8931
97.8003
97.6364
97.4853
97.29
97.1533
96.9879
96.8666
96.7095
96.6343
96.568
96.5764
96.542
96.5183
96.4039
96.4783
96.5367
96.7461
96.8622
96.8687
96.8509
96.8645
96.9552
97.0927
97.2686
97.4284
97.5713
97.6881
97.7846
97.8715
97.9466
98.0177
98.0794
98.1349
98.1818
98.2471
98.3091
98.3144
98.2249
97.9252
97.8279
98.4098
99.3119
75.6784
74.9271
73.2673
71.2604
69.5895
68.2349
67.6295
67.4158
67.1579
67.1714
67.4773
67.9342
68.3471
68.6293
68.9084
69.3529
70.0216
70.7719
71.5579
72.6491
74.103
75.7321
77.4194
79.0203
80.8909
82.9455
85.2798
87.458
89.3126
90.9515
92.5239
93.7708
95.0363
96.1823
97.2735
98.1608
98.8704
99.5824
100.043
100.491
100.448
100.221
99.7179
99.221
98.7731
98.4178
98.2269
98.0582
98.0421
97.883
97.9114
97.7601
97.7849
97.7039
97.6821
97.6275
97.5881
97.5087
97.4325
97.2764
97.1453
96.9537
96.8225
96.6448
96.5061
96.3315
96.2367
96.1763
96.1775
96.1576
96.13
96.0193
96.0783
96.1539
96.3405
96.5033
96.5277
96.586
96.6284
96.7846
96.9522
97.1652
97.3418
97.4933
97.6072
97.7016
97.7846
97.8628
97.9353
98.0051
98.0626
98.1198
98.1842
98.2746
98.294
98.1931
97.7533
97.5697
98.1057
99.0284
75.4447
74.6325
72.8463
70.7634
69.0102
67.5365
66.8584
66.5242
66.1502
66.1128
66.3495
66.7515
67.117
67.2896
67.5179
67.9114
68.5407
69.2884
70.0918
71.2139
72.6873
74.3375
76.0602
77.6705
79.5601
81.6931
84.129
86.4167
88.2984
89.9051
91.479
92.6522
93.8441
94.9663
96.0562
96.9444
97.618
98.3457
98.7721
99.205
99.1812
99.0421
98.6308
98.2397
97.8753
97.6061
97.4661
97.3432
97.381
97.2369
97.3091
97.1774
97.2275
97.1806
97.1645
97.115
97.0847
97.0061
96.9491
96.8005
96.6982
96.5133
96.3934
96.2162
96.0757
95.8885
95.7813
95.7172
95.7078
95.6954
95.6696
95.5674
95.6149
95.7
95.8715
96.0597
96.1244
96.2654
96.3541
96.5787
96.7826
97.0301
97.2235
97.3799
97.4887
97.5745
97.6503
97.7249
97.7985
97.8738
97.946
98.0147
98.0946
98.1904
98.24
98.1274
97.6463
97.3899
97.9507
98.8469
75.2524
74.3978
72.4969
70.3502
68.5076
66.9051
66.0703
65.5151
64.9823
64.8135
64.9417
65.2819
65.6652
65.7944
66.0291
66.4151
67.0572
67.8657
68.7326
69.8841
71.3759
73.0535
74.8138
76.4417
78.3426
80.5582
83.0707
85.4259
87.327
88.8641
90.4374
91.5446
92.6578
93.7409
94.809
95.6935
96.3319
97.0441
97.4326
97.8182
97.8113
97.746
97.4349
97.1198
96.8376
96.6545
96.5647
96.4996
96.5817
96.4716
96.5764
96.4737
96.5409
96.5321
96.5163
96.4763
96.4452
96.3799
96.3407
96.2197
96.1468
95.9871
95.8959
95.7301
95.6014
95.4063
95.2882
95.2153
95.1948
95.1794
95.1551
95.0654
95.1041
95.1944
95.3605
95.5579
95.6781
95.9003
96.0562
96.3483
96.5959
96.8694
97.0786
97.233
97.3342
97.4038
97.4694
97.5333
97.6052
97.6822
97.7687
97.8566
97.9514
98.0612
98.1154
98.033
97.5638
97.3335
97.8764
98.8254
75.1179
74.2289
72.2195
70.0096
68.0769
66.3387
65.2654
64.4334
63.7389
63.3885
63.3898
63.6588
64.1043
64.2726
64.537
64.9621
65.6605
66.5785
67.5553
68.7525
70.2877
72.0001
73.7968
75.4351
77.329
79.6023
82.1437
84.4912
86.4111
87.8698
89.4269
90.4641
91.4938
92.5223
93.5422
94.4378
95.029
95.7056
96.0558
96.3825
96.3843
96.3699
96.1525
95.8901
95.6918
95.5676
95.5307
95.5194
95.6533
95.5939
95.717
95.6481
95.7153
95.744
95.7065
95.6899
95.6583
95.6273
95.6198
95.5408
95.5219
95.4023
95.3483
95.2025
95.0893
94.8976
94.7719
94.6916
94.6491
94.6245
94.6005
94.5208
94.557
94.6521
94.8188
95.0273
95.2088
95.5088
95.7412
96.0982
96.3859
96.6822
96.8985
97.0488
97.1381
97.1957
97.2449
97.2999
97.3607
97.4387
97.5288
97.6364
97.744
97.8656
97.9331
97.8779
97.5154
97.3426
97.966
98.821
75.032
74.1004
71.9989
69.7253
67.6881
65.8112
64.4384
63.3444
62.5379
62.0102
61.8593
62.0451
62.5656
62.8452
63.1473
63.6419
64.4217
65.4874
66.6089
67.8789
69.4741
71.2247
73.056
74.7046
76.572
78.8645
81.3754
83.6537
85.5669
86.9336
88.4535
89.4033
90.3471
91.3313
92.264
93.1662
93.7154
94.3458
94.6568
94.9172
94.9176
94.9354
94.7977
94.5925
94.4679
94.3867
94.3995
94.4269
94.6209
94.6015
94.7388
94.7098
94.7635
94.8278
94.7767
94.8037
94.7955
94.8126
94.8476
94.8193
94.8478
94.7743
94.7505
94.6427
94.5525
94.3803
94.2456
94.1578
94.09
94.0531
94.0252
93.9486
93.9879
94.081
94.2546
94.4891
94.7329
95.1118
95.4146
95.8276
96.1486
96.4595
96.6784
96.8213
96.9034
96.9513
96.9902
97.0296
97.0803
97.1471
97.2386
97.3469
97.4696
97.5921
97.6826
97.6692
97.4366
97.3679
98.0002
99.0171
74.9597
73.9737
71.7982
69.4615
67.3053
65.2947
63.6178
62.319
61.4597
60.7799
60.4927
60.587
61.1879
61.6153
61.9454
62.5192
63.3971
64.6237
65.9013
67.2575
68.9295
70.7217
72.5768
74.2495
76.0769
78.3348
80.761
82.9221
84.7793
86.0534
87.4948
88.3796
89.2267
90.1712
90.9998
91.8798
92.4031
92.9674
93.2323
93.4273
93.4257
93.4586
93.3943
93.2475
93.171
93.1255
93.1787
93.2562
93.5038
93.5137
93.6662
93.6767
93.7121
93.8138
93.7679
93.849
93.8698
93.9388
94.0074
94.0429
94.1065
94.0993
94.1154
94.0598
93.9939
93.8493
93.7069
93.6157
93.5278
93.4719
93.4329
93.3631
93.4055
93.4867
93.6749
93.9428
94.2529
94.7133
95.081
95.5345
95.8838
96.1963
96.4199
96.5537
96.6325
96.6743
96.7055
96.7285
96.7641
96.818
96.897
97.0047
97.1185
97.2511
97.353
97.4009
97.304
97.3817
98.1358
99.0373
74.8554
73.8018
71.5824
69.1819
66.9134
64.7941
62.8729
61.4456
60.5862
59.7887
59.4072
59.4255
60.1103
60.6895
61.0131
61.6535
62.6218
63.986
65.4147
66.8592
68.6154
70.4647
72.331
74.0336
75.8173
77.988
80.2746
82.2822
84.0326
85.2151
86.5274
87.3738
88.1209
89.0333
89.7736
90.5936
91.0918
91.5733
91.7888
91.9311
91.9285
91.9724
91.9545
91.8538
91.8201
91.8064
91.8946
92.0317
92.3138
92.3611
92.5296
92.5657
92.582
92.7195
92.6792
92.8139
92.8537
92.9852
93.0994
93.207
93.3245
93.3828
93.4479
93.4456
93.4099
93.3053
93.1663
93.0679
92.9647
92.8811
92.8324
92.7679
92.8093
92.8777
93.0912
93.3927
93.7712
94.3069
94.7379
95.2166
95.5853
95.8971
96.1236
96.2532
96.3248
96.3646
96.3851
96.3948
96.4109
96.4519
96.5142
96.6088
96.7138
96.8342
96.9561
97.0477
97.1013
97.3006
98.1143
99.2676
74.6667
73.5524
71.324
68.8919
66.5383
64.3636
62.3134
60.849
60.0358
59.1957
58.7575
58.7052
59.4287
60.1222
60.4141
61.0913
62.1281
63.5906
65.1427
66.6707
68.4938
70.3996
72.2691
74.0018
75.7429
77.7974
79.8961
81.7233
83.3231
84.4077
85.5499
86.3785
87.0486
87.9251
88.6027
89.3376
89.7987
90.1849
90.3579
90.45
90.4418
90.4876
90.4928
90.4379
90.4376
90.4552
90.5834
90.7733
91.0859
91.179
91.3537
91.3992
91.413
91.5635
91.5505
91.7139
91.805
91.9829
92.1646
92.332
92.5122
92.6344
92.7536
92.8141
92.8206
92.7574
92.6322
92.5185
92.4151
92.3042
92.2511
92.1764
92.2205
92.2796
92.5297
92.8702
93.3328
93.9001
94.3899
94.8738
95.2582
95.5648
95.7965
95.9211
95.9852
96.0185
96.0331
96.0259
96.0264
96.0477
96.095
96.1696
96.2572
96.3626
96.4803
96.6199
96.7913
97.1798
98.0814
99.0344
74.3796
73.2044
71.0066
68.6047
66.26
64.0919
62.054
60.6372
59.9173
59.101
58.6207
58.4851
59.1909
59.9373
60.1869
60.8405
61.9295
63.432
65.0608
66.6623
68.5245
70.4794
72.3337
74.0855
75.7738
77.6896
79.5815
81.2259
82.6578
83.6473
84.6168
85.4121
86.0337
86.847
87.4784
88.1285
88.5348
88.8429
88.9763
89.0178
88.9924
89.025
89.0372
89.0214
89.0531
89.1103
89.2828
89.5186
89.8592
89.99
90.1738
90.2265
90.2547
90.4064
90.4468
90.6187
90.7667
90.9719
91.2153
91.4383
91.683
91.8738
92.0589
92.1835
92.2337
92.2084
92.1116
91.9895
91.8919
91.7524
91.6904
91.6002
91.6548
91.7213
92.0198
92.4047
92.9443
93.5082
94.0332
94.5145
94.9086
95.2101
95.4424
95.5628
95.6177
95.6459
95.6522
95.6311
95.6099
95.6134
95.6388
95.6938
95.7545
95.8306
95.9353
96.0788
96.3323
96.7757
97.6642
98.8779
74.0273
72.8139
70.6957
68.3496
66.1268
64.0376
62.148
60.8457
60.2511
59.5128
58.9866
58.7644
59.4017
60.1407
60.3376
60.9031
62.0048
63.4984
65.1605
66.823
68.6888
70.6696
72.4894
74.2339
75.8613
77.6224
79.3085
80.7805
82.0441
82.9389
83.7567
84.4912
85.0815
85.8001
86.3932
86.9674
87.3189
87.5675
87.6527
87.6427
87.5902
87.6158
87.6284
87.6415
87.7022
87.809
88.0284
88.3056
88.6664
88.8279
89.0241
89.0888
89.1452
89.3087
89.4026
89.5734
89.7662
89.9885
90.2919
90.5666
90.8717
91.1281
91.3799
91.5616
91.6672
91.6785
91.6201
91.4902
91.3963
91.2235
91.1604
91.0561
91.1336
91.2207
91.57
91.9841
92.5805
93.1295
93.6711
94.1464
94.5455
94.8383
95.0685
95.1839
95.2341
95.2532
95.2461
95.2052
95.1639
95.1463
95.158
95.1824
95.2153
95.246
95.3136
95.4383
95.7013
96.2147
97.1179
98.0822
73.7203
72.4658
70.4706
68.2038
66.1591
64.2426
62.5763
61.4389
60.9924
60.3757
59.8191
59.5188
60.0228
60.7036
60.8419
61.2842
62.3502
63.7973
65.4339
67.1166
68.9551
70.9256
72.7144
74.4285
75.9913
77.5909
79.0764
80.3761
81.4721
82.274
82.97
83.6276
84.1895
84.8045
85.3569
85.8653
86.1689
86.3616
86.3992
86.349
86.2753
86.2887
86.2944
86.3281
86.4247
86.5926
86.8579
87.1685
87.5413
87.7312
87.9439
88.0343
88.1215
88.2994
88.4282
88.6025
88.8327
89.0737
89.4229
89.7415
90.0964
90.4153
90.7376
90.9744
91.1421
91.1782
91.1659
91.0255
90.9483
90.7481
90.6957
90.5749
90.6858
90.7941
91.1938
91.6074
92.2458
92.7715
93.3233
93.7802
94.1816
94.4575
94.6821
94.7889
94.8383
94.8394
94.8156
94.7522
94.6983