/*--------------------------------*- C++ -*----------------------------------*\
| =========                 |                                                 |
| \\      /  F ield         | OpenFOAM: The Open Source CFD Toolbox           |
|  \\    /   O peration     | Version:  2.4.0                                 |
|   \\  /    A nd           | Web:      www.OpenFOAM.org                      |
|    \\/     M anipulation  |                                                 |
\*---------------------------------------------------------------------------*/
FoamFile
{
    version     2.0;
    format      ascii;
    class       surfaceScalarField;
    location    "0.081";
    object      phi_0;
}
// * * * * * * * * * * * * * * * * * * * * * * * * * * * * * * * * * * * * * //

dimensions      [0 3 -1 0 0 0 0];

internalField   nonuniform List<scalar> 
34880
(
5.48774e-06
7.01226e-06
3.12421e-06
2.36353e-06
2.47357e-06
6.50639e-07
2.2177e-06
2.5587e-07
2.07274e-06
1.44963e-07
1.97194e-06
1.00802e-07
1.88445e-06
8.7489e-08
1.81665e-06
6.78008e-08
1.77638e-06
4.02687e-08
1.73601e-06
4.03716e-08
1.69178e-06
4.42262e-08
1.68751e-06
4.26911e-09
1.64255e-06
4.49661e-08
1.62171e-06
2.08352e-08
1.60348e-06
1.82313e-08
1.58733e-06
1.61514e-08
1.56137e-06
2.59626e-08
1.53034e-06
3.10248e-08
1.5851e-06
-5.47566e-08
3.65402e-07
1.2197e-06
1.01094e-05
9.4029e-06
7.82982e-06
4.64306e-06
6.71188e-06
1.76858e-06
6.06079e-06
9.0696e-07
5.64437e-06
5.61391e-07
5.35328e-06
3.91892e-07
5.11967e-06
3.21091e-07
4.93919e-06
2.48282e-07
4.81357e-06
1.65887e-07
4.69085e-06
1.63098e-07
4.59924e-06
1.3583e-07
4.53974e-06
6.37719e-08
4.44809e-06
1.36618e-07
4.39232e-06
7.66036e-08
4.33227e-06
7.82851e-08
4.29684e-06
5.15752e-08
4.21834e-06
1.04466e-07
4.1678e-06
8.15678e-08
4.25284e-06
-1.39794e-07
8.96966e-07
3.72127e-06
1.24221e-05
9.48077e-06
1.10041e-05
6.06105e-06
9.98325e-06
2.78947e-06
9.19771e-06
1.69249e-06
8.61924e-06
1.13986e-06
8.19336e-06
8.17772e-07
7.85456e-06
6.59888e-07
7.58781e-06
5.15037e-07
7.39443e-06
3.5926e-07
7.20284e-06
3.54692e-07
7.07676e-06
2.61906e-07
6.96202e-06
1.78519e-07
6.84156e-06
2.57071e-07
6.75487e-06
1.63299e-07
6.65894e-06
1.74214e-07
6.60879e-06
1.01728e-07
6.49104e-06
2.22217e-07
6.43427e-06
1.38333e-07
6.4759e-06
-1.81419e-07
1.10368e-06
6.26918e-06
1.34074e-05
8.57333e-06
1.28879e-05
6.58055e-06
1.23312e-05
3.34624e-06
1.17086e-05
2.31505e-06
1.11357e-05
1.71282e-06
1.06617e-05
1.29173e-06
1.02704e-05
1.05122e-06
9.95116e-06
8.34255e-07
9.71623e-06
5.94193e-07
9.47156e-06
5.99357e-07
9.32276e-06
4.10714e-07
9.16612e-06
3.35155e-07
9.01862e-06
4.04568e-07
8.91424e-06
2.67684e-07
8.78673e-06
3.01726e-07
8.72324e-06
1.65211e-07
8.57799e-06
3.67475e-07
8.52909e-06
1.87235e-07
8.47414e-06
-1.26475e-07
1.01234e-06
8.56549e-06
1.35848e-05
7.48857e-06
1.36565e-05
6.50884e-06
1.36332e-05
3.3695e-06
1.33893e-05
2.559e-06
1.30216e-05
2.08049e-06
1.26286e-05
1.68469e-06
1.22696e-05
1.41023e-06
1.19529e-05
1.15097e-06
1.17202e-05
8.26868e-07
1.14516e-05
8.67937e-07
1.12968e-05
5.65521e-07
1.11246e-05
5.07364e-07
1.09545e-05
5.74702e-07
1.08474e-05
3.74753e-07
1.07011e-05
4.48063e-07
1.06263e-05
2.39993e-07
1.04682e-05
5.25607e-07
1.04198e-05
2.35562e-07
1.03238e-05
-3.0423e-08
7.85361e-07
1.05508e-05
1.34749e-05
6.5137e-06
1.37435e-05
6.24026e-06
1.40146e-05
3.09832e-06
1.41269e-05
2.44669e-06
1.40856e-05
2.12187e-06
1.39053e-05
1.86496e-06
1.36908e-05
1.62469e-06
1.34589e-05
1.3829e-06
1.32933e-05
9.92465e-07
1.30519e-05
1.10936e-06
1.29146e-05
7.02832e-07
1.27679e-05
6.54075e-07
1.25899e-05
7.52648e-07
1.24973e-05
4.67344e-07
1.23512e-05
5.94177e-07
1.22753e-05
3.15928e-07
1.21236e-05
6.77325e-07
1.20544e-05
3.04707e-07
1.19576e-05
6.63455e-08
8.27724e-07
1.19153e-05
1.33544e-05
5.6593e-06
1.36705e-05
5.92413e-06
1.39617e-05
2.80719e-06
1.42e-05
2.20835e-06
1.43867e-05
1.93515e-06
1.44165e-05
1.83521e-06
1.43978e-05
1.64338e-06
1.43167e-05
1.46398e-06
1.42879e-05
1.02128e-06
1.41485e-05
1.24874e-06
1.40641e-05
7.87284e-07
1.39962e-05
7.2189e-07
1.38434e-05
9.0545e-07
1.37878e-05
5.23012e-07
1.3666e-05
7.15932e-07
1.36093e-05
3.72651e-07
1.34911e-05
7.95563e-07
1.3391e-05
4.04781e-07
1.33167e-05
1.40649e-07
1.04418e-06
1.31002e-05
1.32661e-05
4.89319e-06
1.3652e-05
5.53827e-06
1.38496e-05
2.60955e-06
1.4082e-05
1.97594e-06
1.43177e-05
1.69948e-06
1.44428e-05
1.71009e-06
1.45407e-05
1.54544e-06
1.45579e-05
1.44684e-06
1.46544e-05
9.24705e-07
1.46588e-05
1.24439e-06
1.46414e-05
8.04648e-07
1.46899e-05
6.73386e-07
1.46143e-05
9.8104e-07
1.4622e-05
5.15384e-07
1.4555e-05
7.82868e-07
1.45432e-05
3.84506e-07
1.44987e-05
8.40051e-07
1.43968e-05
5.06633e-07
1.43331e-05
2.04386e-07
1.53118e-06
1.38461e-05
1.32024e-05
4.19075e-06
1.35841e-05
5.15656e-06
1.37598e-05
2.43394e-06
1.39963e-05
1.73939e-06
1.41968e-05
1.49901e-06
1.43451e-05
1.56173e-06
1.4486e-05
1.40457e-06
1.45115e-05
1.42136e-06
1.4639e-05
7.97195e-07
1.4749e-05
1.13442e-06
1.47578e-05
7.9585e-07
1.48709e-05
5.60238e-07
1.48888e-05
9.63192e-07
1.49619e-05
4.42234e-07
1.49562e-05
7.88626e-07
1.49977e-05
3.43014e-07
1.50575e-05
7.80243e-07
1.50231e-05
5.41038e-07
1.50263e-05
2.01182e-07
8.63726e-07
1.56937e-05
1.31607e-05
3.53003e-06
1.35244e-05
4.79288e-06
1.36786e-05
2.27971e-06
1.39365e-05
1.48152e-06
1.40891e-05
1.34647e-06
1.42478e-05
1.40297e-06
1.44157e-05
1.23672e-06
1.44428e-05
1.39419e-06
1.45461e-05
6.93918e-07
1.47043e-05
9.76271e-07
1.4722e-05
7.78066e-07
1.48137e-05
4.68559e-07
1.48813e-05
8.95641e-07
1.49913e-05
3.32252e-07
1.50103e-05
7.69534e-07
1.50641e-05
2.89215e-07
1.52104e-05
6.33976e-07
1.5256e-05
4.95413e-07
1.53131e-05
1.44106e-07
1.8446e-07
1.59924e-05
1.30902e-05
2.93986e-06
1.34605e-05
4.42259e-06
1.3618e-05
2.12218e-06
1.38511e-05
1.24843e-06
1.40009e-05
1.19666e-06
1.41898e-05
1.21402e-06
1.43482e-05
1.07833e-06
1.44055e-05
1.33694e-06
1.44931e-05
6.06263e-07
1.46447e-05
8.24691e-07
1.46694e-05
7.53352e-07
1.47429e-05
3.95057e-07
1.48202e-05
8.1834e-07
1.49246e-05
2.27843e-07
1.4959e-05
7.35206e-07
1.50139e-05
2.34264e-07
1.51675e-05
4.80349e-07
1.52484e-05
4.14529e-07
1.5438e-05
-4.54901e-08
-3.61926e-07
1.59844e-05
1.29786e-05
2.46124e-06
1.34146e-05
3.98657e-06
1.35926e-05
1.94426e-06
1.377e-05
1.07099e-06
1.39689e-05
9.97789e-07
1.41558e-05
1.02707e-06
1.42643e-05
9.69815e-07
1.43719e-05
1.22938e-06
1.44506e-05
5.27569e-07
1.45626e-05
7.12648e-07
1.45963e-05
7.19667e-07
1.47041e-05
2.87231e-07
1.47655e-05
7.56997e-07
1.48267e-05
1.66651e-07
1.4914e-05
6.4786e-07
1.49782e-05
1.70073e-07
1.50823e-05
3.76275e-07
1.51996e-05
2.97215e-07
1.54579e-05
-3.03805e-07
-6.23367e-07
1.57194e-05
1.29029e-05
2.0583e-06
1.34086e-05
3.48094e-06
1.36041e-05
1.74873e-06
1.37379e-05
9.37165e-07
1.39498e-05
7.85911e-07
1.40888e-05
8.88114e-07
1.41684e-05
8.90206e-07
1.43265e-05
1.07121e-06
1.43848e-05
4.69295e-07
1.44729e-05
6.24525e-07
1.45497e-05
6.42931e-07
1.46681e-05
1.68837e-07
1.46983e-05
7.26723e-07
1.47561e-05
1.08907e-07
1.48869e-05
5.17034e-07
1.49256e-05
1.31358e-07
1.50166e-05
2.85343e-07
1.51681e-05
1.45689e-07
1.53932e-05
-5.28915e-07
-6.16793e-07
1.53866e-05
1.28876e-05
1.67071e-06
1.3394e-05
2.97457e-06
1.36082e-05
1.53445e-06
1.37224e-05
8.23021e-07
1.38856e-05
6.22655e-07
1.39955e-05
7.78206e-07
1.41088e-05
7.7699e-07
1.42848e-05
8.952e-07
1.43217e-05
4.32362e-07
1.44306e-05
5.15633e-07
1.45366e-05
5.36927e-07
1.46063e-05
9.91351e-08
1.46435e-05
6.89531e-07
1.47284e-05
2.39831e-08
1.48459e-05
3.99528e-07
1.48604e-05
1.1689e-07
1.49843e-05
1.61415e-07
1.51443e-05
-1.43285e-08
1.52726e-05
-6.57202e-07
-5.34281e-07
1.51901e-05
1.28673e-05
1.30336e-06
1.33243e-05
2.5176e-06
1.35655e-05
1.29326e-06
1.36956e-05
6.92901e-07
1.3812e-05
5.06238e-07
1.39439e-05
6.46298e-07
1.41019e-05
6.19076e-07
1.42524e-05
7.44622e-07
1.42833e-05
4.01536e-07
1.44273e-05
3.71623e-07
1.45107e-05
4.53487e-07
1.4534e-05
7.58147e-08
1.4622e-05
6.01526e-07
1.47031e-05
-5.71217e-08
1.47926e-05
3.10074e-07
1.48185e-05
9.10115e-08
1.49644e-05
1.54577e-08
1.50997e-05
-1.49622e-07
1.51411e-05
-6.98594e-07
-5.823e-07
1.51891e-05
1.28127e-05
9.9066e-07
1.32516e-05
2.07873e-06
1.35551e-05
9.89751e-07
1.36766e-05
5.71374e-07
1.37739e-05
4.08979e-07
1.39507e-05
4.6946e-07
1.40876e-05
4.82222e-07
1.42042e-05
6.27994e-07
1.42719e-05
3.33825e-07
1.44058e-05
2.37704e-07
1.44516e-05
4.07657e-07
1.44941e-05
3.34104e-08
1.4617e-05
4.78597e-07
1.46564e-05
-9.65868e-08
1.47488e-05
2.17706e-07
1.48064e-05
3.34391e-08
1.49367e-05
-1.14878e-07
1.5033e-05
-2.45871e-07
1.50648e-05
-7.30407e-07
-8.39162e-07
1.53216e-05
1.27671e-05
7.23544e-07
1.32465e-05
1.59937e-06
1.35651e-05
6.71147e-07
1.36598e-05
4.76614e-07
1.37659e-05
3.02874e-07
1.39464e-05
2.88968e-07
1.40263e-05
4.02342e-07
1.41636e-05
4.90745e-07
1.42698e-05
2.2763e-07
1.43527e-05
1.54762e-07
1.44112e-05
3.49124e-07
1.44897e-05
-4.5058e-08
1.45941e-05
3.74219e-07
1.46123e-05
-1.14762e-07
1.47296e-05
1.00389e-07
1.4796e-05
-3.30009e-08
1.48959e-05
-2.14729e-07
1.49777e-05
-3.27699e-07
1.50709e-05
-8.23588e-07
-1.19156e-06
1.54233e-05
1.27624e-05
4.61161e-07
1.32659e-05
1.09586e-06
1.35338e-05
4.03262e-07
1.36364e-05
3.73986e-07
1.37622e-05
1.77106e-07
1.38943e-05
1.56845e-07
1.39785e-05
3.18149e-07
1.41684e-05
3.00854e-07
1.42546e-05
1.41432e-07
1.43123e-05
9.70798e-08
1.44164e-05
2.45005e-07
1.44771e-05
-1.05823e-07
1.45585e-05
2.92886e-07
1.45965e-05
-1.52804e-07
1.472e-05
-2.30636e-08
1.47713e-05
-8.43309e-08
1.48588e-05
-3.02262e-07
1.49685e-05
-4.37323e-07
1.50953e-05
-9.50448e-07
-1.46008e-06
1.53638e-05
1.27719e-05
1.89211e-07
1.32337e-05
6.34088e-07
1.3481e-05
1.55971e-07
1.36422e-05
2.12779e-07
1.37487e-05
7.06037e-08
1.3856e-05
4.95725e-08
1.39941e-05
1.80079e-07
1.41777e-05
1.17176e-07
1.42291e-05
9.00483e-08
1.43061e-05
2.00645e-08
1.44219e-05
1.29212e-07
1.44467e-05
-1.30622e-07
1.4542e-05
1.97618e-07
1.45943e-05
-2.0513e-07
1.47048e-05
-1.33578e-07
1.47521e-05
-1.3154e-07
1.48414e-05
-3.91655e-07
1.49849e-05
-5.80772e-07
1.50727e-05
-1.0383e-06
-1.56927e-06
1.51819e-05
1.27578e-05
-6.85651e-08
1.31844e-05
2.07422e-07
1.34848e-05
-1.44361e-07
1.36745e-05
2.30269e-08
1.37318e-05
1.32843e-08
1.38666e-05
-8.51728e-08
1.40158e-05
3.08313e-08
1.41512e-05
-1.81573e-08
1.42158e-05
2.53754e-08
1.431e-05
-7.40554e-08
1.44067e-05
3.24431e-08
1.44316e-05
-1.55506e-07
1.45423e-05
8.69092e-08
1.45963e-05
-2.59062e-07
1.46894e-05
-2.26742e-07
1.47449e-05
-1.87064e-07
1.48445e-05
-4.91253e-07
1.50018e-05
-7.38045e-07
1.49826e-05
-1.01913e-06
-1.65241e-06
1.50658e-05
1.27348e-05
-3.0338e-07
1.31899e-05
-2.47698e-07
1.35264e-05
-4.80829e-07
1.36733e-05
-1.2389e-07
1.37224e-05
-3.58443e-08
1.38817e-05
-2.44458e-07
1.4001e-05
-8.84025e-08
1.4127e-05
-1.44237e-07
1.42261e-05
-7.36889e-08
1.43121e-05
-1.60031e-07
1.43983e-05
-5.37493e-08
1.44382e-05
-1.95388e-07
1.45455e-05
-2.04596e-08
1.45993e-05
-3.12875e-07
1.46832e-05
-3.10592e-07
1.47403e-05
-2.44149e-07
1.48711e-05
-6.22036e-07
1.49653e-05
-8.32292e-07
1.49321e-05
-9.85944e-07
-1.91039e-06
1.51901e-05
1.27422e-05
-5.45619e-07
1.32286e-05
-7.34096e-07
1.35284e-05
-7.80601e-07
1.36428e-05
-2.38283e-07
1.37298e-05
-1.22895e-07
1.38823e-05
-3.96925e-07
1.39938e-05
-1.99882e-07
1.41397e-05
-2.90092e-07
1.42472e-05
-1.81218e-07
1.43177e-05
-2.30597e-07
1.44004e-05
-1.3641e-07
1.44495e-05
-2.44439e-07
1.45508e-05
-1.21791e-07
1.46024e-05
-3.64488e-07
1.46832e-05
-3.9135e-07
1.47475e-05
-3.08466e-07
1.48983e-05
-7.72843e-07
1.4894e-05
-8.27974e-07
1.49169e-05
-1.00885e-06
-1.13091e-06
1.41374e-05
1.27703e-05
-8.15926e-07
1.32406e-05
-1.20437e-06
1.35083e-05
-1.04832e-06
1.36419e-05
-3.71839e-07
1.37554e-05
-2.36386e-07
1.38934e-05
-5.34929e-07
1.40145e-05
-3.20978e-07
1.41655e-05
-4.411e-07
1.42591e-05
-2.7483e-07
1.43215e-05
-2.9305e-07
1.44085e-05
-2.23358e-07
1.44655e-05
-3.01501e-07
1.45556e-05
-2.11815e-07
1.46168e-05
-4.2574e-07
1.46864e-05
-4.60934e-07
1.47745e-05
-3.9662e-07
1.48898e-05
-8.88092e-07
1.49018e-05
-8.40017e-07
1.50147e-05
-1.12166e-06
-1.61976e-06
1.55035e-05
1.27875e-05
-1.10338e-06
1.32406e-05
-1.65752e-06
1.35268e-05
-1.33453e-06
1.36697e-05
-5.14765e-07
1.37808e-05
-3.47417e-07
1.39119e-05
-6.66049e-07
1.40368e-05
-4.4585e-07
1.41827e-05
-5.87004e-07
1.42634e-05
-3.55589e-07
1.43344e-05
-3.64051e-07
1.44319e-05
-3.20817e-07
1.44877e-05
-3.57349e-07
1.45687e-05
-2.92842e-07
1.46415e-05
-4.98523e-07
1.4699e-05
-5.18383e-07
1.48014e-05
-4.99039e-07
1.48884e-05
-9.75131e-07
1.49348e-05
-8.86397e-07
1.50633e-05
-1.25018e-06
-1.86637e-06
1.53099e-05
1.28028e-05
-1.40618e-06
1.3272e-05
-2.1267e-06
1.35685e-05
-1.6311e-06
1.36842e-05
-6.30413e-07
1.37943e-05
-4.57551e-07
1.39321e-05
-8.03784e-07
1.40619e-05
-5.75654e-07
1.42e-05
-7.25134e-07
1.42824e-05
-4.37956e-07
1.43701e-05
-4.51805e-07
1.44612e-05
-4.11876e-07
1.45149e-05
-4.11051e-07
1.45936e-05
-3.71546e-07
1.46661e-05
-5.71039e-07
1.47175e-05
-5.69764e-07
1.48352e-05
-6.16736e-07
1.48958e-05
-1.03572e-06
1.49622e-05
-9.52829e-07
1.51058e-05
-1.39374e-06
-1.96111e-06
1.52005e-05
1.28353e-05
-1.74146e-06
1.33209e-05
-2.61235e-06
1.35931e-05
-1.90322e-06
1.36847e-05
-7.22089e-07
1.38189e-05
-5.91768e-07
1.39717e-05
-9.56501e-07
1.40979e-05
-7.01903e-07
1.4228e-05
-8.55239e-07
1.43223e-05
-5.32253e-07
1.44076e-05
-5.37043e-07
1.44832e-05
-4.8755e-07
1.45518e-05
-4.79575e-07
1.46223e-05
-4.42052e-07
1.46902e-05
-6.38968e-07
1.47529e-05
-6.32501e-07
1.48734e-05
-7.37193e-07
1.48957e-05
-1.05808e-06
1.5006e-05
-1.0631e-06
1.51485e-05
-1.53623e-06
-2.06434e-06
1.52517e-05
1.28782e-05
-2.11967e-06
1.33635e-05
-3.09762e-06
1.36039e-05
-2.14363e-06
1.37027e-05
-8.20874e-07
1.3872e-05
-7.61096e-07
1.40218e-05
-1.1063e-06
1.41367e-05
-8.16806e-07
1.42668e-05
-9.85379e-07
1.4363e-05
-6.28412e-07
1.44342e-05
-6.08262e-07
1.45153e-05
-5.6866e-07
1.45997e-05
-5.63918e-07
1.46519e-05
-4.94243e-07
1.47318e-05
-7.1892e-07
1.48059e-05
-7.06552e-07
1.48952e-05
-8.26557e-07
1.49105e-05
-1.07333e-06
1.5077e-05
-1.22964e-06
1.52081e-05
-1.66727e-06
-2.16557e-06
1.53093e-05
1.29263e-05
-2.54598e-06
1.34066e-05
-3.57791e-06
1.35924e-05
-2.3294e-06
1.37457e-05
-9.7423e-07
1.39319e-05
-9.47258e-07
1.40659e-05
-1.24035e-06
1.41837e-05
-9.34561e-07
1.43088e-05
-1.1105e-06
1.43998e-05
-7.19425e-07
1.44734e-05
-6.81807e-07
1.45695e-05
-6.64781e-07
1.46482e-05
-6.42689e-07
1.46927e-05
-5.38708e-07
1.47939e-05
-8.20065e-07
1.48506e-05
-7.63312e-07
1.49129e-05
-8.8886e-07
1.4961e-05
-1.12137e-06
1.51526e-05
-1.42126e-06
1.52432e-05
-1.7579e-06
-2.23994e-06
1.53176e-05
1.29827e-05
-3.02869e-06
1.3459e-05
-4.05421e-06
1.36092e-05
-2.47962e-06
1.37914e-05
-1.15636e-06
1.39852e-05
-1.1411e-06
1.41171e-05
-1.37221e-06
1.42441e-05
-1.06158e-06
1.43513e-05
-1.21771e-06
1.44474e-05
-8.15553e-07
1.45285e-05
-7.62843e-07
1.46302e-05
-7.66527e-07
1.46934e-05
-7.05886e-07
1.47507e-05
-5.95964e-07
1.48508e-05
-9.20234e-07
1.48885e-05
-8.00999e-07
1.49556e-05
-9.55911e-07
1.50298e-05
-1.19559e-06
1.51938e-05
-1.58525e-06
1.52533e-05
-1.81745e-06
-2.37692e-06
1.53903e-05
1.30451e-05
-3.5738e-06
1.35187e-05
-4.52782e-06
1.3648e-05
-2.6089e-06
1.38367e-05
-1.34503e-06
1.40506e-05
-1.35505e-06
1.41814e-05
-1.50294e-06
1.43093e-05
-1.1895e-06
1.44022e-05
-1.3106e-06
1.45039e-05
-9.17334e-07
1.45847e-05
-8.43592e-07
1.46903e-05
-8.72084e-07
1.47441e-05
-7.59767e-07
1.48186e-05
-6.70386e-07
1.49004e-05
-1.0021e-06
1.49448e-05
-8.45355e-07
1.50175e-05
-1.0286e-06
1.50845e-05
-1.26257e-06
1.52079e-05
-1.70873e-06
1.52711e-05
-1.88063e-06
-2.59976e-06
1.5494e-05
1.31097e-05
-4.18355e-06
1.3583e-05
-5.00104e-06
1.36913e-05
-2.7172e-06
1.38995e-05
-1.55326e-06
1.41301e-05
-1.5856e-06
1.42492e-05
-1.62209e-06
1.43795e-05
-1.31976e-06
1.44658e-05
-1.3969e-06
1.4566e-05
-1.01753e-06
1.46506e-05
-9.28203e-07
1.47551e-05
-9.76641e-07
1.4805e-05
-8.09683e-07
1.48896e-05
-7.5493e-07
1.49511e-05
-1.06363e-06
1.50012e-05
-8.95457e-07
1.50528e-05
-1.08014e-06
1.50917e-05
-1.30152e-06
1.51588e-05
-1.77581e-06
1.51898e-05
-1.91162e-06
-2.74888e-06
1.53389e-05
1.31815e-05
-4.86502e-06
1.36489e-05
-5.46844e-06
1.37459e-05
-2.81427e-06
1.3983e-05
-1.79029e-06
1.42162e-05
-1.81885e-06
1.43315e-05
-1.73739e-06
1.44661e-05
-1.45437e-06
1.45424e-05
-1.47317e-06
1.46371e-05
-1.11227e-06
1.47219e-05
-1.01294e-06
1.47956e-05
-1.05041e-06
1.48357e-05
-8.49758e-07
1.48999e-05
-8.19087e-07
1.49134e-05
-1.07718e-06
1.49305e-05
-9.12561e-07
1.49231e-05
-1.07268e-06
1.48982e-05
-1.27663e-06
1.48535e-05
-1.73114e-06
1.4779e-05
-1.83708e-06
-2.74053e-06
1.47706e-05
1.3266e-05
-5.63101e-06
1.37018e-05
-5.90428e-06
1.38208e-05
-2.93328e-06
1.40938e-05
-2.06326e-06
1.43198e-05
-2.04488e-06
1.44284e-05
-1.84594e-06
1.45395e-05
-1.56553e-06
1.45756e-05
-1.50923e-06
1.46299e-05
-1.16653e-06
1.46607e-05
-1.04376e-06
1.46512e-05
-1.04091e-06
1.46371e-05
-8.35668e-07
1.46222e-05
-8.04193e-07
1.45474e-05
-1.00242e-06
1.44907e-05
-8.55832e-07
1.44005e-05
-9.82492e-07
1.42887e-05
-1.16484e-06
1.41222e-05
-1.56456e-06
1.39424e-05
-1.65727e-06
-2.41595e-06
1.36178e-05
1.33632e-05
-6.4942e-06
1.3696e-05
-6.23705e-06
1.39333e-05
-3.1706e-06
1.42191e-05
-2.34908e-06
1.43752e-05
-2.20095e-06
1.44059e-05
-1.87668e-06
1.44037e-05
-1.56335e-06
1.43209e-05
-1.42645e-06
1.42559e-05
-1.10154e-06
1.4166e-05
-9.53777e-07
1.40421e-05
-9.17038e-07
1.39429e-05
-7.365e-07
1.38367e-05
-6.97945e-07
1.36856e-05
-8.51387e-07
1.35643e-05
-7.34539e-07
1.34139e-05
-8.32044e-07
1.32372e-05
-9.88187e-07
1.29982e-05
-1.32553e-06
1.27508e-05
-1.40988e-06
-2.09324e-06
1.24281e-05
1.34832e-05
-7.4774e-06
1.37554e-05
-6.50928e-06
1.39952e-05
-3.41037e-06
1.41453e-05
-2.49921e-06
1.40728e-05
-2.1284e-06
1.38977e-05
-1.70162e-06
1.36965e-05
-1.36211e-06
1.34566e-05
-1.18655e-06
1.32619e-05
-9.06834e-07
1.30703e-05
-7.62182e-07
1.28729e-05
-7.19677e-07
1.27198e-05
-5.83342e-07
1.25636e-05
-5.41777e-07
1.23774e-05
-6.65196e-07
1.22238e-05
-5.80883e-07
1.20435e-05
-6.51741e-07
1.18355e-05
-7.80221e-07
1.15608e-05
-1.05087e-06
1.12682e-05
-1.11726e-06
-1.45018e-06
1.06252e-05
1.35903e-05
-8.56773e-06
1.36614e-05
-6.58032e-06
1.36208e-05
-3.36981e-06
1.34027e-05
-2.28104e-06
1.30112e-05
-1.73697e-06
1.26228e-05
-1.3132e-06
1.22737e-05
-1.01304e-06
1.19471e-05
-8.5996e-07
1.16926e-05
-6.52257e-07
1.14637e-05
-5.33318e-07
1.1248e-05
-5.03987e-07
1.10796e-05
-4.14967e-07
1.09111e-05
-3.73223e-07
1.07208e-05
-4.74906e-07
1.05587e-05
-4.18825e-07
1.03715e-05
-4.64534e-07
1.01558e-05
-5.64494e-07
9.87184e-06
-7.66909e-07
9.57727e-06
-8.22693e-07
-9.79223e-07
9.10631e-06
1.3411e-05
-9.47878e-06
1.28899e-05
-6.05917e-06
1.23238e-05
-2.80369e-06
1.17173e-05
-1.67454e-06
1.11285e-05
-1.14825e-06
1.06557e-05
-8.40347e-07
1.02727e-05
-6.30077e-07
9.94438e-06
-5.31611e-07
9.69228e-06
-4.00156e-07
9.4755e-06
-3.16547e-07
9.27751e-06
-3.05991e-07
9.11973e-06
-2.57193e-07
8.96559e-06
-2.19077e-07
8.79118e-06
-3.00499e-07
8.63784e-06
-2.65481e-07
8.46311e-06
-2.89801e-07
8.25779e-06
-3.59179e-07
7.99022e-06
-4.99341e-07
7.70501e-06
-5.37475e-07
-6.13363e-07
7.33915e-06
1.24241e-05
-9.40285e-06
1.10051e-05
-4.64019e-06
9.97844e-06
-1.77704e-06
9.20259e-06
-8.98691e-07
8.6158e-06
-5.61458e-07
8.18623e-06
-4.10775e-07
7.85611e-06
-2.99964e-07
7.58201e-06
-2.57507e-07
7.3731e-06
-1.91248e-07
7.20043e-06
-1.43873e-07
7.04186e-06
-1.47425e-07
6.91208e-06
-1.27408e-07
6.79078e-06
-9.77762e-08
6.6451e-06
-1.54828e-07
6.5148e-06
-1.3518e-07
6.36868e-06
-1.43675e-07
6.19191e-06
-1.82406e-07
5.95909e-06
-2.66522e-07
5.70229e-06
-2.8068e-07
-3.09995e-07
5.39892e-06
1.01098e-05
-7.01269e-06
7.83122e-06
-2.36157e-06
6.70835e-06
-6.54173e-07
6.0632e-06
-2.5354e-07
5.64433e-06
-1.42593e-07
5.34474e-06
-1.11184e-07
5.12221e-06
-7.74283e-08
4.93508e-06
-7.03843e-08
4.79543e-06
-5.15909e-08
4.68544e-06
-3.38868e-08
4.57891e-06
-4.08925e-08
4.48928e-06
-3.77804e-08
4.41308e-06
-2.15753e-08
4.30633e-06
-4.80737e-08
4.21279e-06
-4.16427e-08
4.10966e-06
-4.05449e-08
3.98101e-06
-5.37521e-08
3.80207e-06
-8.75814e-08
3.60734e-06
-8.59566e-08
-9.77774e-08
3.39513e-06
5.48731e-06
3.12574e-06
2.47157e-06
2.21803e-06
2.07544e-06
1.96425e-06
1.88682e-06
1.81644e-06
1.76485e-06
1.73096e-06
1.69007e-06
1.65229e-06
1.63071e-06
1.58264e-06
1.541e-06
1.50045e-06
1.4467e-06
1.35912e-06
1.27316e-06
1.17538e-06
1.83145e-06
4.92533e-07
-1.10429e-06
2.25219e-06
-3.70541e-07
-5.01996e-08
2.27114e-06
-6.53482e-07
6.34541e-07
2.28949e-06
-4.81986e-07
4.63633e-07
2.14915e-06
1.95154e-07
-5.48114e-08
2.56175e-06
4.67517e-07
-8.80122e-07
4.03719e-06
8.52363e-07
-2.3278e-06
5.92285e-06
2.4075e-06
-4.29317e-06
7.49006e-06
4.68053e-06
-6.24774e-06
8.70687e-06
5.7435e-06
-6.96031e-06
9.42396e-06
4.37463e-06
-5.09172e-06
1.01071e-05
2.64324e-06
-3.32641e-06
1.10444e-05
2.15921e-06
-3.09653e-06
1.1676e-05
1.30526e-06
-1.93677e-06
1.2086e-05
-6.07862e-07
1.97843e-07
1.27632e-05
-2.13233e-06
1.45508e-06
1.33038e-05
-3.0188e-06
2.47824e-06
1.34253e-05
-4.56656e-06
4.44502e-06
1.33921e-05
-6.07072e-06
6.10388e-06
1.34142e-05
-7.3847e-06
7.36265e-06
1.37059e-05
-9.05765e-06
8.76592e-06
1.41218e-05
-1.05227e-05
1.01068e-05
1.4726e-05
-1.18945e-05
1.12903e-05
1.54311e-05
-1.30412e-05
1.23362e-05
1.61121e-05
-1.42976e-05
1.36165e-05
1.6641e-05
-1.59108e-05
1.5382e-05
1.66141e-05
-1.647e-05
1.64968e-05
1.61569e-05
-1.68007e-05
1.72579e-05
1.56511e-05
-1.69565e-05
1.74623e-05
1.51497e-05
-1.68587e-05
1.73601e-05
1.45975e-05
-1.66457e-05
1.71979e-05
1.41305e-05
-1.63056e-05
1.67726e-05
1.36572e-05
-1.58853e-05
1.63586e-05
1.31795e-05
-1.52189e-05
1.56966e-05
1.27231e-05
-1.41528e-05
1.46092e-05
1.22047e-05
-1.34194e-05
1.39377e-05
1.17257e-05
-1.22379e-05
1.27169e-05
1.12253e-05
-1.13132e-05
1.18136e-05
1.06877e-05
-1.11012e-05
1.16388e-05
1.01406e-05
-1.05162e-05
1.10633e-05
9.66752e-06
-1.02137e-05
1.06867e-05
9.12767e-06
-1.03834e-05
1.09233e-05
8.68479e-06
-1.08668e-05
1.13097e-05
8.25689e-06
-1.07599e-05
1.11878e-05
7.89933e-06
-1.21193e-05
1.24768e-05
7.58652e-06
-1.59385e-05
1.62513e-05
7.20175e-06
-1.63938e-05
1.67786e-05
6.73615e-06
-1.13424e-05
1.1808e-05
5.91094e-06
-5.68722e-06
6.51244e-06
4.69205e-06
-1.22674e-06
2.44563e-06
3.5686e-06
3.7688e-06
-2.64535e-06
3.12846e-06
9.73673e-06
-9.29659e-06
3.5534e-06
1.43415e-05
-1.47665e-05
3.69088e-06
2.01152e-05
-2.02527e-05
4.31442e-06
2.46662e-05
-2.52898e-05
4.43635e-06
2.86561e-05
-2.8778e-05
4.6129e-06
3.12612e-05
-3.14377e-05
4.7111e-06
3.30557e-05
-3.31539e-05
4.94537e-06
3.3872e-05
-3.41063e-05
5.55751e-06
3.00284e-05
-3.06405e-05
6.11856e-06
2.70359e-05
-2.7597e-05
7.03695e-06
2.29966e-05
-2.3915e-05
8.00545e-06
1.47212e-05
-1.56897e-05
8.51167e-06
5.84644e-06
-6.35266e-06
8.66388e-06
-2.90231e-08
-1.2319e-07
8.87314e-06
-3.57395e-06
3.36469e-06
9.31929e-06
-8.09068e-06
7.64452e-06
9.72902e-06
-1.30194e-05
1.26097e-05
9.88711e-06
-1.61724e-05
1.60143e-05
9.83204e-06
-1.80998e-05
1.81549e-05
9.63246e-06
-1.9267e-05
1.94665e-05
9.34833e-06
-1.91072e-05
1.93913e-05
9.16786e-06
-1.83084e-05
1.84889e-05
9.17615e-06
-1.8552e-05
1.85437e-05
9.13741e-06
-1.97279e-05
1.97666e-05
8.80084e-06
-1.9628e-05
1.99645e-05
8.18039e-06
-1.77562e-05
1.83767e-05
7.48015e-06
-1.51179e-05
1.58181e-05
6.96485e-06
-1.32329e-05
1.37482e-05
6.55526e-06
-1.26149e-05
1.30245e-05
6.05379e-06
-1.20027e-05
1.25042e-05
5.81249e-06
-1.26041e-05
1.28454e-05
5.94576e-06
-1.53227e-05
1.51894e-05
6.19209e-06
-1.81181e-05
1.78717e-05
6.34263e-06
-1.97145e-05
1.95639e-05
6.28791e-06
-2.04308e-05
2.04855e-05
6.19485e-06
-2.09826e-05
2.10757e-05
6.14574e-06
-2.1441e-05
2.14901e-05
6.13928e-06
-2.16336e-05
2.164e-05
6.14855e-06
-2.14435e-05
2.14342e-05
6.23844e-06
-2.08102e-05
2.07203e-05
6.47601e-06
-1.92264e-05
1.89889e-05
6.79948e-06
-1.63814e-05
1.60579e-05
7.09702e-06
-1.29298e-05
1.26323e-05
7.37936e-06
-9.48816e-06
9.20582e-06
7.73267e-06
-5.83293e-06
5.47962e-06
8.15672e-06
-1.77488e-06
1.35082e-06
8.57478e-06
2.1655e-06
-2.58356e-06
8.81806e-06
5.68022e-06
-5.92349e-06
8.96797e-06
9.29948e-06
-9.4494e-06
9.1556e-06
1.28577e-05
-1.30453e-05
9.40549e-06
1.53394e-05
-1.55893e-05
9.57841e-06
1.66966e-05
-1.68695e-05
9.5694e-06
1.78419e-05
-1.78329e-05
9.45361e-06
1.89994e-05
-1.88836e-05
9.35055e-06
1.91205e-05
-1.90175e-05
9.26695e-06
1.7507e-05
-1.74234e-05
9.11095e-06
1.50199e-05
-1.48639e-05
8.85817e-06
1.33913e-05
-1.31386e-05
8.5809e-06
1.34016e-05
-1.31244e-05
8.33679e-06
1.45477e-05
-1.43036e-05
8.15206e-06
1.55716e-05
-1.53868e-05
8.01791e-06
1.5745e-05
-1.56109e-05
7.90917e-06
1.48559e-05
-1.47472e-05
7.79407e-06
1.324e-05
-1.31249e-05
7.73494e-06
1.12126e-05
-1.11534e-05
7.68607e-06
9.3453e-06
-9.29643e-06
7.62832e-06
7.71873e-06
-7.66099e-06
7.60764e-06
6.45573e-06
-6.43505e-06
7.55685e-06
5.38879e-06
-5.33801e-06
7.52742e-06
4.52546e-06
-4.49603e-06
7.46149e-06
3.77256e-06
-3.70662e-06
7.38986e-06
3.19091e-06
-3.11928e-06
7.30932e-06
2.75235e-06
-2.67181e-06
7.21803e-06
2.36498e-06
-2.27368e-06
7.12944e-06
2.231e-06
-2.14242e-06
7.04076e-06
1.95881e-06
-1.87013e-06
6.92887e-06
2.00628e-06
-1.89439e-06
6.86763e-06
1.8521e-06
-1.79085e-06
6.77765e-06
1.8044e-06
-1.71442e-06
6.73016e-06
1.8472e-06
-1.79971e-06
6.72305e-06
1.59064e-06
-1.58354e-06
6.68678e-06
1.64056e-06
-1.60429e-06
6.72018e-06
1.49249e-06
-1.52589e-06
6.72316e-06
1.29247e-06
-1.29545e-06
6.74489e-06
1.29967e-06
-1.3214e-06
6.75505e-06
1.11237e-06
-1.12252e-06
6.7858e-06
9.84111e-07
-1.01486e-06
6.75847e-06
9.68912e-07
-9.41589e-07
6.79866e-06
8.19427e-07
-8.59616e-07
6.763e-06
7.51432e-07
-7.15771e-07
6.77773e-06
7.33763e-07
-7.48494e-07
6.74395e-06
6.63353e-07
-6.29573e-07
6.76947e-06
5.76402e-07
-6.01916e-07
6.70975e-06
6.39755e-07
-5.8004e-07
6.74592e-06
5.37904e-07
-5.74077e-07
6.70112e-06
5.50501e-07
-5.05702e-07
6.73106e-06
5.21378e-07
-5.51314e-07
6.68012e-06
5.77395e-07
-5.26457e-07
6.73096e-06
4.94364e-07
-5.45198e-07
6.68359e-06
5.66902e-07
-5.19536e-07
6.72061e-06
5.56869e-07
-5.93885e-07
6.68383e-06
6.1189e-07
-5.75118e-07
6.73019e-06
5.72303e-07
-6.18659e-07
6.69455e-06
6.70113e-07
-6.34474e-07
6.72509e-06
6.62984e-07
-6.9352e-07
6.70583e-06
7.42716e-07
-7.23458e-07
6.73924e-06
7.32301e-07
-7.65713e-07
6.72683e-06
8.2642e-07
-8.14007e-07
6.73798e-06
8.47826e-07
-8.58978e-07
6.74711e-06
9.48972e-07
-9.58104e-07
6.75552e-06
9.61193e-07
-9.69598e-07
6.78896e-06
1.04016e-06
-1.07361e-06
6.75389e-06
1.12822e-06
-1.09315e-06
6.8192e-06
1.20669e-06
-1.27199e-06
6.78352e-06
1.29981e-06
-1.26414e-06
6.87177e-06
1.31872e-06
-1.40697e-06
6.79339e-06
1.51485e-06
-1.43648e-06
6.90458e-06
1.53619e-06
-1.64738e-06
6.84169e-06
1.75179e-06
-1.6889e-06
6.95245e-06
1.72523e-06
-1.83599e-06
6.87876e-06
1.9942e-06
-1.92051e-06
6.98102e-06
2.00108e-06
-2.10335e-06
6.94477e-06
2.30058e-06
-2.26433e-06
7.01018e-06
2.32419e-06
-2.3896e-06
7.04597e-06
2.58686e-06
-2.62265e-06
7.02622e-06
2.72762e-06
-2.70787e-06
7.14134e-06
2.89322e-06
-3.00835e-06
7.07279e-06
3.23038e-06
-3.16184e-06
7.23181e-06
3.32262e-06
-3.48163e-06
7.12308e-06
3.77781e-06
-3.66909e-06
7.2886e-06
3.83012e-06
-3.99564e-06
7.23075e-06
4.31229e-06
-4.25444e-06
7.30766e-06
4.54444e-06
-4.62135e-06
7.37816e-06
4.93206e-06
-5.00256e-06
7.29552e-06
5.37144e-06
-5.2888e-06
7.41473e-06
5.70868e-06
-5.82789e-06
7.28265e-06
6.41577e-06
-6.28368e-06
7.43557e-06
6.60561e-06
-6.75854e-06
7.44016e-06
7.45084e-06
-7.45543e-06
7.36106e-06
8.03224e-06
-7.95313e-06
7.43526e-06
8.74484e-06
-8.81904e-06
7.15851e-06
9.74662e-06
-9.46987e-06
7.2868e-06
1.04175e-05
-1.05458e-05
7.28315e-06
1.19408e-05
-1.19372e-05
7.01877e-06
1.31858e-05
-1.29214e-05
7.26062e-06
1.47498e-05
-1.49916e-05
6.50956e-06
1.85735e-05
-1.78224e-05
6.36267e-06
2.06303e-05
-2.04834e-05
3.06722e-05
-3.01656e-05
5.85602e-06
4.07582e-06
1.37983e-07
4.33156e-06
-6.26278e-07
4.35097e-06
-6.72896e-07
4.38946e-06
-5.20476e-07
4.49029e-06
9.43259e-08
4.42636e-06
5.31453e-07
4.80517e-06
4.73549e-07
5.87981e-06
1.33286e-06
7.3724e-06
3.18794e-06
8.5778e-06
4.5381e-06
9.18856e-06
3.76388e-06
9.79523e-06
2.03657e-06
1.06927e-05
1.26173e-06
1.13894e-05
6.0861e-07
1.17751e-05
-9.93584e-07
1.2347e-05
-2.70424e-06
1.28368e-05
-3.50858e-06
1.31514e-05
-4.88114e-06
1.35728e-05
-6.4922e-06
1.40633e-05
-7.87512e-06
1.48337e-05
-9.82808e-06
1.54632e-05
-1.11521e-05
1.61018e-05
-1.25332e-05
1.66474e-05
-1.35867e-05
1.69904e-05
-1.46406e-05
1.6992e-05
-1.59124e-05
1.6621e-05
-1.6099e-05
1.60442e-05
-1.62239e-05
1.55371e-05
-1.64495e-05
1.50949e-05
-1.64165e-05
1.46092e-05
-1.616e-05
1.41897e-05
-1.58861e-05
1.37347e-05
-1.54303e-05
1.32829e-05
-1.47671e-05
1.28368e-05
-1.37067e-05
1.23169e-05
-1.28995e-05
1.1834e-05
-1.1755e-05
1.13044e-05
-1.07836e-05
1.07365e-05
-1.05333e-05
1.01492e-05
-9.92887e-06
9.61647e-06
-9.68099e-06
9.00723e-06
-9.77418e-06
8.50089e-06
-1.03604e-05
8.05509e-06
-1.03141e-05
7.57454e-06
-1.16387e-05
7.18532e-06
-1.55493e-05
6.75786e-06
-1.59664e-05
6.27269e-06
-1.08572e-05
5.36031e-06
-4.77484e-06
4.12085e-06
1.27226e-08
3.14446e-06
4.74519e-06
2.9782e-06
9.90299e-06
3.3396e-06
1.39801e-05
3.57078e-06
1.98841e-05
4.22825e-06
2.40087e-05
4.3498e-06
2.85345e-05
4.61698e-06
3.0994e-05
4.85872e-06
3.2814e-05
5.21952e-06
3.35112e-05
5.83755e-06
2.94103e-05
6.48461e-06
2.63889e-05
7.5284e-06
2.19528e-05
8.49101e-06
1.37586e-05
8.92681e-06
5.41065e-06
9.032e-06
-1.34216e-07
9.25606e-06
-3.79801e-06
9.71513e-06
-8.54975e-06
1.00768e-05
-1.3381e-05
1.01678e-05
-1.62635e-05
1.00759e-05
-1.80079e-05
9.85678e-06
-1.90478e-05
9.56843e-06
-1.88188e-05
9.39072e-06
-1.81307e-05
9.35587e-06
-1.85171e-05
9.22694e-06
-1.95989e-05
8.81507e-06
-1.92161e-05
8.11764e-06
-1.70588e-05
7.38403e-06
-1.43843e-05
6.87026e-06
-1.27191e-05
6.4027e-06
-1.21473e-05
5.90038e-06
-1.15004e-05
5.71298e-06
-1.24167e-05
5.84811e-06
-1.54578e-05
6.06332e-06
-1.83333e-05
6.10628e-06
-1.97574e-05
5.95865e-06
-2.02832e-05
5.81529e-06
-2.08393e-05
5.68972e-06
-2.13155e-05
5.59228e-06
-2.15361e-05
5.50856e-06
-2.13598e-05
5.51866e-06
-2.08203e-05
5.68216e-06
-1.93899e-05
5.94323e-06
-1.66424e-05
6.21221e-06
-1.31988e-05
6.47244e-06
-9.74839e-06
6.80455e-06
-6.16504e-06
7.22774e-06
-2.19806e-06
7.64494e-06
1.7483e-06
7.87406e-06
5.45109e-06
8.03009e-06
9.14346e-06
8.26239e-06
1.26254e-05
8.56791e-06
1.50339e-05
8.80526e-06
1.64593e-05
8.86333e-06
1.77838e-05