/*--------------------------------*- C++ -*----------------------------------*\
| =========                 |                                                 |
| \\      /  F ield         | OpenFOAM: The Open Source CFD Toolbox           |
|  \\    /   O peration     | Version:  2.4.0                                 |
|   \\  /    A nd           | Web:      www.OpenFOAM.org                      |
|    \\/     M anipulation  |                                                 |
\*---------------------------------------------------------------------------*/
FoamFile
{
    version     2.0;
    format      ascii;
    class       volSymmTensorField;
    location    "0.081";
    object      UPrime2Mean;
}
// * * * * * * * * * * * * * * * * * * * * * * * * * * * * * * * * * * * * * //

dimensions      [0 2 -2 0 0 0 0];

internalField   nonuniform List<symmTensor> 
17600
(
(0.0480995 -0.00521257 0 0.000788063 0 0)
(0.495187 -0.00202757 0 4.58248e-05 0 0)
(0.642294 -3.02978e-05 0 3.19245e-06 0 0)
(0.712043 -0.000522455 0 1.98515e-06 0 0)
(0.760647 -0.000392701 0 9.54555e-07 0 0)
(0.796253 -0.000163019 0 5.55662e-07 0 0)
(0.819749 -3.89399e-05 0 3.66466e-07 0 0)
(0.83942 4.43377e-06 0 2.25955e-07 0 0)
(0.850648 2.44514e-05 0 2.28545e-07 0 0)
(0.863246 -3.10126e-06 0 1.98446e-07 0 0)
(0.869147 -4.2653e-06 0 1.62001e-07 0 0)
(0.880979 -5.90745e-05 0 2.80086e-07 0 0)
(0.887012 -7.11722e-05 0 3.28277e-07 0 0)
(0.901858 -0.000147952 0 5.37091e-07 0 0)
(0.91234 -0.000205501 0 6.63358e-07 0 0)
(0.939792 -0.000499413 0 2.7949e-06 0 0)
(0.968098 -0.00085625 0 2.93004e-06 0 0)
(1.08209 0.000590522 0 2.64092e-05 0 0)
(1.26281 -0.0361272 0 0.00151147 0 0)
(2.31404 0.18263 0 0.0227363 0 0)
(0.0233862 0.0104499 0 0.00819782 0 0)
(0.20118 -0.0192468 0 0.00194592 0 0)
(0.40511 -0.0108062 0 0.000293237 0 0)
(0.542571 -0.00761011 0 0.000117075 0 0)
(0.659484 -0.00617563 0 9.06007e-05 0 0)
(0.772714 -0.00504763 0 8.17097e-05 0 0)
(0.860791 -0.00389739 0 6.32324e-05 0 0)
(0.942543 -0.00292831 0 3.92073e-05 0 0)
(0.992036 -0.00218026 0 2.07596e-05 0 0)
(1.04976 -0.00185677 0 1.24398e-05 0 0)
(1.0748 -0.00163777 0 6.19843e-06 0 0)
(1.12807 -0.00177187 0 6.16135e-06 0 0)
(1.14717 -0.0019693 0 1.00213e-05 0 0)
(1.20835 -0.00199461 0 9.21956e-06 0 0)
(1.23082 -0.00329944 0 1.96203e-05 0 0)
(1.33095 -0.00274182 0 1.87532e-05 0 0)
(1.34088 -0.00931077 0 0.000100948 0 0)
(1.76668 -0.0123264 0 0.000149189 0 0)
(1.55111 -0.0426152 0 0.00172412 0 0)
(4.8543 -0.559353 0 0.0939324 0 0)
(0.0823056 0.0312151 0 0.012908 0 0)
(0.0331596 -0.01223 0 0.00554095 0 0)
(0.140701 -0.0136137 0 0.00143217 0 0)
(0.242827 -0.0129213 0 0.000701308 0 0)
(0.353248 -0.0126446 0 0.0005292 0 0)
(0.486873 -0.0119492 0 0.000468978 0 0)
(0.604213 -0.0102478 0 0.000381004 0 0)
(0.725471 -0.00832694 0 0.000251206 0 0)
(0.802047 -0.00654285 0 0.000146607 0 0)
(0.897363 -0.0056135 0 8.55827e-05 0 0)
(0.936722 -0.00488459 0 4.2348e-05 0 0)
(1.02791 -0.00527952 0 4.55227e-05 0 0)
(1.05372 -0.00533284 0 4.77218e-05 0 0)
(1.15708 -0.00612306 0 6.49972e-05 0 0)
(1.18335 -0.00793857 0 8.40741e-05 0 0)
(1.33345 -0.00860944 0 0.000100582 0 0)
(1.35251 -0.0212643 0 0.00039692 0 0)
(1.79436 -0.0240583 0 0.000733198 0 0)
(1.79525 -0.107551 0 0.00947845 0 0)
(4.03825 -0.69985 0 0.204597 0 0)
(0.108986 0.034597 0 0.0116425 0 0)
(0.00265402 0.00229299 0 0.00863084 0 0)
(0.0184741 -0.0050492 0 0.00313827 0 0)
(0.0439901 -0.00810159 0 0.00185764 0 0)
(0.0847674 -0.0109951 0 0.00149677 0 0)
(0.163037 -0.0133538 0 0.00133889 0 0)
(0.247771 -0.0132964 0 0.00113793 0 0)
(0.355541 -0.0121109 0 0.000785008 0 0)
(0.426862 -0.0100331 0 0.000494972 0 0)
(0.527393 -0.00893832 0 0.000286685 0 0)
(0.565806 -0.00809759 0 0.000162172 0 0)
(0.669513 -0.0079955 0 0.000134675 0 0)
(0.69261 -0.00933671 0 0.000169741 0 0)
(0.810308 -0.00758031 0 0.00017015 0 0)
(0.835726 -0.0149343 0 0.000364689 0 0)
(0.979629 -0.00587894 0 0.000260822 0 0)
(1.04769 -0.0386182 0 0.00185555 0 0)
(1.2524 -0.0126555 0 0.0010022 0 0)
(1.70456 -0.190135 0 0.0331407 0 0)
(2.12618 -0.295529 0 0.126583 0 0)
(0.10166 0.0279448 0 0.00815463 0 0)
(0.00964023 0.00879973 0 0.00899796 0 0)
(0.0131716 0.00475897 0 0.0038996 0 0)
(0.0138758 0.00296585 0 0.00284281 0 0)
(0.00829237 0.000161384 0 0.00268174 0 0)
(0.0141332 -0.00475403 0 0.00254913 0 0)
(0.0348024 -0.0075084 0 0.00227666 0 0)
(0.0824588 -0.00947955 0 0.00166979 0 0)
(0.11836 -0.00861208 0 0.00109951 0 0)
(0.183945 -0.0089037 0 0.000681176 0 0)
(0.206537 -0.00774211 0 0.000359399 0 0)
(0.283441 -0.00927326 0 0.000388251 0 0)
(0.303388 -0.0085022 0 0.000280932 0 0)
(0.383711 -0.0115334 0 0.000499304 0 0)
(0.4284 -0.00972086 0 0.000412558 0 0)
(0.496431 -0.0190068 0 0.000930028 0 0)
(0.601327 -0.0126644 0 0.00111419 0 0)
(0.694299 -0.06028 0 0.00924062 0 0)
(0.944403 -0.0667294 0 0.0146115 0 0)
(1.32357 -0.415528 0 0.356591 0 0)
(0.0948618 0.0227802 0 0.00582923 0 0)
(0.00852834 0.00771522 0 0.00800751 0 0)
(0.0199415 0.00690604 0 0.00333902 0 0)
(0.0357242 0.00847715 0 0.00271157 0 0)
(0.0442885 0.0102507 0 0.0031461 0 0)
(0.0312282 0.00746518 0 0.00341692 0 0)
(0.0233224 0.00483255 0 0.00332955 0 0)
(0.0147006 -1.72476e-05 0 0.00258919 0 0)
(0.0160664 -0.00109939 0 0.00191823 0 0)
(0.0285863 -0.00344926 0 0.00118051 0 0)
(0.0304135 -0.00336341 0 0.000741058 0 0)
(0.0600173 -0.00471288 0 0.000639171 0 0)
(0.0634436 -0.00607731 0 0.000723662 0 0)
(0.102692 -0.00572435 0 0.000709576 0 0)
(0.120616 -0.0106119 0 0.00145713 0 0)
(0.160298 -0.00631333 0 0.00103185 0 0)
(0.199923 -0.023582 0 0.00539913 0 0)
(0.26774 -0.0130499 0 0.0032023 0 0)
(0.35917 -0.096853 0 0.054219 0 0)
(0.594609 -0.18582 0 0.175632 0 0)
(0.0945662 0.0196522 0 0.0043513 0 0)
(0.00595708 0.00564547 0 0.00710557 0 0)
(0.0173905 0.00566773 0 0.00266855 0 0)
(0.0372488 0.00756688 0 0.00197645 0 0)
(0.0633581 0.0119241 0 0.00265824 0 0)
(0.0647745 0.0125351 0 0.00331285 0 0)
(0.0757757 0.0131876 0 0.00360534 0 0)
(0.0590244 0.00895395 0 0.00309878 0 0)
(0.0631732 0.00774559 0 0.00230017 0 0)
(0.0453691 0.00426316 0 0.00170675 0 0)
(0.0477445 0.0042578 0 0.00093184 0 0)
(0.0341688 0.00205911 0 0.00116448 0 0)
(0.0357397 0.00179257 0 0.000695039 0 0)
(0.0269194 2.44455e-05 0 0.00139265 0 0)
(0.0330027 -0.000423986 0 0.00109367 0 0)
(0.0281947 -0.00192828 0 0.00257946 0 0)
(0.0362754 -0.00292723 0 0.00258326 0 0)
(0.0459509 -0.00869341 0 0.0152131 0 0)
(0.0757482 -0.0245877 0 0.0254441 0 0)
(0.170648 -0.0801126 0 0.242568 0 0)
(0.0970634 0.0171342 0 0.00323609 0 0)
(0.00462608 0.00407089 0 0.00623833 0 0)
(0.0143472 0.00454657 0 0.0023414 0 0)
(0.0318764 0.00580976 0 0.00145013 0 0)
(0.0587752 0.00997461 0 0.00201505 0 0)
(0.0642811 0.0115654 0 0.00275466 0 0)
(0.0876595 0.0138754 0 0.00318751 0 0)
(0.0819763 0.0113084 0 0.00275059 0 0)
(0.10389 0.0110094 0 0.0024202 0 0)
(0.0953582 0.00834963 0 0.00172236 0 0)
(0.112018 0.00925511 0 0.00115116 0 0)
(0.101394 0.00738711 0 0.00114697 0 0)
(0.108664 0.00861992 0 0.00125959 0 0)
(0.0935099 0.00642435 0 0.00132886 0 0)
(0.0940067 0.00842286 0 0.00221601 0 0)
(0.0743507 0.00562904 0 0.00205686 0 0)
(0.0653276 0.0108341 0 0.00522244 0 0)
(0.0429923 0.011398 0 0.00862223 0 0)
(0.0350161 0.0136717 0 0.0424398 0 0)
(0.0590955 0.0289083 0 0.261234 0 0)
(0.0994087 0.014871 0 0.00238605 0 0)
(0.00400437 0.00300478 0 0.00519888 0 0)
(0.0117831 0.00362784 0 0.00214385 0 0)
(0.0275219 0.00458038 0 0.00106963 0 0)
(0.0506918 0.00800732 0 0.00149431 0 0)
(0.056861 0.00973871 0 0.0021697 0 0)
(0.0771077 0.011888 0 0.00268216 0 0)
(0.077145 0.0101188 0 0.00256285 0 0)
(0.100405 0.0100025 0 0.00181764 0 0)
(0.10236 0.00879104 0 0.00161703 0 0)
(0.126894 0.0087286 0 0.00087318 0 0)
(0.127827 0.00977997 0 0.0013247 0 0)
(0.149903 0.00899399 0 0.000900283 0 0)
(0.144774 0.0120456 0 0.00165092 0 0)
(0.160076 0.0102827 0 0.0017248 0 0)
(0.145387 0.0157377 0 0.00289141 0 0)
(0.146638 0.017554 0 0.00403104 0 0)
(0.11928 0.0285592 0 0.0133798 0 0)
(0.108008 0.0479538 0 0.0435194 0 0)
(0.111877 0.0847328 0 0.191814 0 0)
(0.0995129 0.0126647 0 0.00174447 0 0)
(0.0029579 0.00233141 0 0.00425303 0 0)
(0.00911493 0.00279693 0 0.00199372 0 0)
(0.0242822 0.00371525 0 0.000806445 0 0)
(0.0437058 0.00627472 0 0.00110073 0 0)
(0.0517916 0.00833051 0 0.00173601 0 0)
(0.0657702 0.00993148 0 0.00217495 0 0)
(0.070259 0.00902046 0 0.00192944 0 0)
(0.085885 0.00825726 0 0.00169157 0 0)
(0.0956996 0.00735639 0 0.00141501 0 0)
(0.111855 0.00765619 0 0.00082048 0 0)
(0.125154 0.00821844 0 0.00102951 0 0)
(0.140089 0.00862869 0 0.00100233 0 0)
(0.152353 0.0105463 0 0.0014161 0 0)
(0.161976 0.0110969 0 0.0018581 0 0)
(0.170103 0.0158428 0 0.0028063 0 0)
(0.167993 0.0195862 0 0.0045073 0 0)
(0.165977 0.0395325 0 0.0158644 0 0)
(0.15196 0.0541668 0 0.0403245 0 0)
(0.177311 0.13097 0 0.222418 0 0)
(0.0982913 0.0106238 0 0.00124971 0 0)
(0.00239706 0.00185841 0 0.00341546 0 0)
(0.00723328 0.00209384 0 0.00188818 0 0)
(0.0217012 0.00301906 0 0.000619044 0 0)
(0.0380031 0.00490338 0 0.000816407 0 0)
(0.0478046 0.00711338 0 0.00137355 0 0)
(0.0571963 0.00830279 0 0.0018234 0 0)
(0.0643426 0.0079043 0 0.00188147 0 0)
(0.0750054 0.00642976 0 0.00124547 0 0)
(0.0875014 0.00659811 0 0.00117917 0 0)
(0.0991698 0.00567018 0 0.000630161 0 0)
(0.114962 0.00761498 0 0.00102413 0 0)
(0.125846 0.00658956 0 0.000798637 0 0)
(0.141266 0.0100373 0 0.00123717 0 0)
(0.148332 0.00955487 0 0.00160434 0 0)
(0.161 0.0147324 0 0.00238713 0 0)
(0.159735 0.02065 0 0.00459834 0 0)
(0.164167 0.0359849 0 0.013396 0 0)
(0.157359 0.0616179 0 0.0451774 0 0)
(0.189707 0.134588 0 0.185494 0 0)
(0.0975856 0.00882538 0 0.000891091 0 0)
(0.00195284 0.00134846 0 0.00268774 0 0)
(0.00608776 0.00145458 0 0.00175533 0 0)
(0.0194532 0.0023082 0 0.000447242 0 0)
(0.03424 0.00374606 0 0.000594911 0 0)
(0.0438404 0.00586136 0 0.00108106 0 0)
(0.0513902 0.00695493 0 0.00145629 0 0)
(0.058566 0.00668481 0 0.00138416 0 0)
(0.0677492 0.00546132 0 0.00107656 0 0)
(0.0795545 0.00520782 0 0.0010807 0 0)
(0.0904739 0.00487805 0 0.000555211 0 0)
(0.104927 0.0061746 0 0.000799915 0 0)
(0.115776 0.00570259 0 0.000718715 0 0)
(0.12915 0.00876115 0 0.00112021 0 0)
(0.13721 0.00828561 0 0.00137903 0 0)
(0.1478 0.0152893 0 0.00270124 0 0)
(0.149255 0.018315 0 0.00419433 0 0)
(0.15474 0.0392542 0 0.015535 0 0)
(0.155455 0.0614642 0 0.0433454 0 0)
(0.189889 0.133675 0 0.172614 0 0)
(0.0977143 0.00734451 0 0.000627635 0 0)
(0.00188759 0.00101555 0 0.0020466 0 0)
(0.00554514 0.00104933 0 0.00158455 0 0)
(0.0174878 0.00186695 0 0.000337969 0 0)
(0.0313612 0.00297029 0 0.00042508 0 0)
(0.0402647 0.00484854 0 0.000805158 0 0)
(0.046683 0.00587771 0 0.0011498 0 0)
(0.0535065 0.00573054 0 0.00121185 0 0)
(0.0616063 0.00447791 0 0.00078927 0 0)
(0.072831 0.00448936 0 0.000769511 0 0)
(0.0830629 0.00395518 0 0.000399173 0 0)
(0.0969856 0.0054795 0 0.000666113 0 0)
(0.106502 0.00498769 0 0.000584476 0 0)
(0.120032 0.00747785 0 0.000817951 0 0)
(0.126532 0.00800597 0 0.00117643 0 0)
(0.13839 0.0129621 0 0.0020791 0 0)
(0.139632 0.0189745 0 0.00417145 0 0)
(0.148999 0.0376959 0 0.01481 0 0)
(0.152121 0.0618041 0 0.0419335 0 0)
(0.195603 0.136042 0 0.160962 0 0)
(0.0977985 0.0060351 0 0.000427491 0 0)
(0.00180149 0.000796142 0 0.00150392 0 0)
(0.00508361 0.000697312 0 0.00126557 0 0)
(0.0157842 0.00151444 0 0.000240621 0 0)
(0.0286619 0.0023685 0 0.000287064 0 0)
(0.0373331 0.00403426 0 0.000583582 0 0)
(0.0426621 0.00490589 0 0.000850693 0 0)
(0.049321 0.00485494 0 0.000845935 0 0)
(0.0561987 0.00380525 0 0.000572358 0 0)
(0.0674677 0.00372695 0 0.000647616 0 0)
(0.0767567 0.00334271 0 0.000307382 0 0)
(0.0903177 0.00469011 0 0.000491093 0 0)
(0.0989339 0.00417393 0 0.000460465 0 0)
(0.11247 0.00681559 0 0.000734043 0 0)
(0.118026 0.00698652 0 0.000971156 0 0)
(0.130685 0.0128318 0 0.00211826 0 0)
(0.132472 0.0182184 0 0.00398051 0 0)
(0.144635 0.0367238 0 0.0145846 0 0)
(0.150736 0.0628817 0 0.0411487 0 0)
(0.199378 0.134877 0 0.147621 0 0)
(0.0979128 0.00484878 0 0.000287414 0 0)
(0.00158591 0.00056275 0 0.00109088 0 0)
(0.00474586 0.000437133 0 0.000949988 0 0)
(0.0144069 0.00120131 0 0.000207371 0 0)
(0.0266717 0.00182412 0 0.000221768 0 0)
(0.0348301 0.00323515 0 0.000421498 0 0)
(0.0398895 0.00401343 0 0.000635753 0 0)
(0.0456067 0.00395653 0 0.000678491 0 0)
(0.0524639 0.00303807 0 0.000431824 0 0)
(0.0628327 0.00298567 0 0.000456466 0 0)
(0.072264 0.00268039 0 0.000240149 0 0)
(0.0844466 0.00385205 0 0.000401685 0 0)
(0.093732 0.00351842 0 0.000404157 0 0)
(0.105893 0.00558635 0 0.000571687 0 0)
(0.112369 0.00632982 0 0.000854349 0 0)
(0.12423 0.0116912 0 0.00191471 0 0)
(0.128354 0.0173562 0 0.00394389 0 0)
(0.14148 0.0360066 0 0.0143831 0 0)
(0.152184 0.0629358 0 0.039841 0 0)
(0.204042 0.132842 0 0.134528 0 0)
(0.0981907 0.00379292 0 0.000186007 0 0)
(0.00145097 0.00032543 0 0.000737984 0 0)
(0.00455788 0.000214069 0 0.000647417 0 0)
(0.0133276 0.000898123 0 0.000155656 0 0)
(0.0253209 0.00133082 0 0.000159812 0 0)
(0.0327649 0.00244998 0 0.000292462 0 0)
(0.0378704 0.00314398 0 0.000445504 0 0)
(0.0425054 0.00304757 0 0.000460273 0 0)
(0.0498156 0.00235136 0 0.000294579 0 0)
(0.0588669 0.00222601 0 0.000366486 0 0)
(0.0688366 0.00198203 0 0.000209408 0 0)
(0.0796007 0.00305369 0 0.000311639 0 0)
(0.0899108 0.00277564 0 0.000318543 0 0)
(0.100249 0.00474436 0 0.000481667 0 0)
(0.108468 0.005468 0 0.000733143 0 0)
(0.118818 0.0107739 0 0.00177441 0 0)
(0.126211 0.0163962 0 0.00382951 0 0)
(0.139118 0.0354283 0 0.0139128 0 0)
(0.156024 0.0622079 0 0.0379607 0 0)
(0.21 0.131821 0 0.12227 0 0)
(0.0984396 0.00284926 0 0.000117004 0 0)
(0.00151505 0.000197234 0 0.00046805 0 0)
(0.00457637 7.29451e-05 0 0.00042487 0 0)
(0.012629 0.000660194 0 0.000132241 0 0)
(0.024263 0.000941322 0 0.000131772 0 0)
(0.0314596 0.00177152 0 0.000207919 0 0)
(0.0361351 0.00234069 0 0.000308048 0 0)
(0.0405427 0.00226173 0 0.000330454 0 0)
(0.0475936 0.00168822 0 0.000220883 0 0)
(0.0561679 0.00159124 0 0.000272346 0 0)
(0.0660268 0.00142067 0 0.000176053 0 0)
(0.0764888 0.0023256 0 0.000254344 0 0)
(0.0865345 0.00211031 0 0.000281001 0 0)
(0.0966237 0.00389309 0 0.000414256 0 0)
(0.10511 0.00470601 0 0.000631239 0 0)
(0.115622 0.00994638 0 0.00165986 0 0)
(0.124513 0.0156973 0 0.00367129 0 0)
(0.138979 0.0346092 0 0.0133035 0 0)
(0.160263 0.0613908 0 0.0358844 0 0)
(0.216605 0.129581 0 0.11097 0 0)
(0.0983852 0.00200143 0 6.49825e-05 0 0)
(0.00153538 0.000150677 0 0.00024933 0 0)
(0.00457431 2.3924e-05 0 0.000233819 0 0)
(0.0121502 0.000459085 0 8.78573e-05 0 0)
(0.0233372 0.00065167 0 8.77899e-05 0 0)
(0.03056 0.00121924 0 0.000123524 0 0)
(0.0347515 0.00164948 0 0.000184061 0 0)
(0.0393355 0.00158522 0 0.000191438 0 0)
(0.0456803 0.00119214 0 0.000130915 0 0)
(0.0544732 0.00112057 0 0.000176074 0 0)
(0.0638434 0.00100092 0 0.000126637 0 0)
(0.0744976 0.0017497 0 0.000173883 0 0)
(0.0837242 0.00166676 0 0.000204534 0 0)
(0.0945127 0.00310161 0 0.000322616 0 0)
(0.102333 0.00422743 0 0.000523862 0 0)
(0.114078 0.0090771 0 0.00149738 0 0)
(0.12323 0.0153628 0 0.00345628 0 0)
(0.14067 0.0333939 0 0.0125698 0 0)
(0.164606 0.0609323 0 0.0336117 0 0)
(0.224798 0.125706 0 0.0995991 0 0)
(0.0983608 0.00119921 0 3.61919e-05 0 0)
(0.00146954 8.74938e-05 0 0.000119401 0 0)
(0.00450206 1.99375e-05 0 0.00011425 0 0)
(0.0117912 0.000283422 0 6.21718e-05 0 0)
(0.022708 0.000388437 0 7.06679e-05 0 0)
(0.029851 0.000717858 0 7.71148e-05 0 0)
(0.0339311 0.00100981 0 0.000103181 0 0)
(0.0383609 0.000953586 0 0.000108941 0 0)
(0.04445 0.000724173 0 8.40922e-05 0 0)
(0.0532333 0.000677718 0 0.000110865 0 0)
(0.062473 0.000605829 0 9.15326e-05 0 0)
(0.0728818 0.00123214 0 0.000118854 0 0)
(0.08212 0.00115051 0 0.000156112 0 0)
(0.0929356 0.00244924 0 0.000254981 0 0)
(0.100966 0.00362588 0 0.000433316 0 0)
(0.113179 0.00839396 0 0.00133787 0 0)
(0.123479 0.0147175 0 0.0032343 0 0)
(0.143242 0.0323011 0 0.01176 0 0)
(0.170465 0.0598796 0 0.0311597 0 0)
(0.234029 0.121612 0 0.0894569 0 0)
(0.0984604 0.00042425 0 2.21526e-05 0 0)
(0.00141222 -5.00528e-06 0 5.75312e-05 0 0)
(0.00445833 -1.79475e-05 0 5.4002e-05 0 0)
(0.0115676 7.93385e-05 0 4.48436e-05 0 0)
(0.0224015 0.0001281 0 5.80408e-05 0 0)
(0.0293939 0.000188184 0 5.57289e-05 0 0)
(0.0335656 0.000355845 0 6.107e-05 0 0)
(0.0375714 0.000299988 0 6.4763e-05 0 0)
(0.0439713 0.000228927 0 6.33028e-05 0 0)
(0.0523304 0.000204364 0 7.41462e-05 0 0)
(0.0618636 0.000143988 0 7.88696e-05 0 0)
(0.0717623 0.000665056 0 9.06374e-05 0 0)
(0.081638 0.00056865 0 0.000122439 0 0)
(0.0918419 0.00182429 0 0.00020538 0 0)
(0.100972 0.00285457 0 0.000385154 0 0)
(0.112795 0.007753 0 0.00119376 0 0)
(0.125414 0.0136693 0 0.00306521 0 0)
(0.146489 0.0313394 0 0.0108732 0 0)
(0.177841 0.0579587 0 0.028757 0 0)
(0.244079 0.117165 0 0.0796132 0 0)
(0.0984447 -0.000333408 0 2.2464e-05 0 0)
(0.00144219 -7.0029e-05 0 6.36616e-05 0 0)
(0.00449008 -5.60551e-05 0 5.70586e-05 0 0)
(0.0115704 -0.000141407 0 5.26942e-05 0 0)
(0.0224017 -0.000135246 0 6.44846e-05 0 0)
(0.0294139 -0.000349927 0 6.65951e-05 0 0)
(0.0335235 -0.000327021 0 6.86475e-05 0 0)
(0.0375113 -0.000380739 0 7.5789e-05 0 0)
(0.0440212 -0.000305115 0 8.51051e-05 0 0)
(0.0522543 -0.000305372 0 7.68153e-05 0 0)
(0.0619131 -0.00033535 0 9.17071e-05 0 0)
(0.0717625 4.85491e-05 0 9.203e-05 0 0)
(0.0818466 1.27905e-05 0 0.000118266 0 0)
(0.0919867 0.00105623 0 0.000197967 0 0)
(0.101736 0.00218812 0 0.000368834 0 0)
(0.113834 0.00678199 0 0.00109992 0 0)
(0.128369 0.0128473 0 0.00287638 0 0)
(0.150995 0.0297282 0 0.00995743 0 0)
(0.186068 0.056319 0 0.0263812 0 0)
(0.256028 0.111631 0 0.0701601 0 0)
(0.0982811 -0.00109329 0 3.47673e-05 0 0)
(0.00140166 -0.000107128 0 0.000129349 0 0)
(0.00446832 -5.06783e-05 0 0.00010449 0 0)
(0.0117453 -0.000342441 0 6.72444e-05 0 0)
(0.0226137 -0.00038677 0 7.27874e-05 0 0)
(0.0297997 -0.000867043 0 9.08902e-05 0 0)
(0.0337762 -0.00097243 0 0.000102891 0 0)
(0.0381113 -0.00106223 0 0.0001216 0 0)
(0.0444139 -0.000801169 0 0.000122955 0 0)
(0.0529841 -0.000801584 0 9.3988e-05 0 0)
(0.0624234 -0.000755543 0 0.000100306 0 0)
(0.0727655 -0.00055603 0 9.99981e-05 0 0)
(0.0825209 -0.000496172 0 0.000110837 0 0)
(0.0933278 0.000286529 0 0.00019821 0 0)
(0.103025 0.0015688 0 0.000342015 0 0)
(0.116437 0.00578495 0 0.00103096 0 0)
(0.131819 0.0119558 0 0.00261446 0 0)
(0.156954 0.0281652 0 0.00915933 0 0)
(0.194763 0.0538925 0 0.0234271 0 0)
(0.269475 0.108019 0 0.0625377 0 0)
(0.0982304 -0.00189575 0 6.33442e-05 0 0)
(0.00135207 -0.000165509 0 0.000266177 0 0)
(0.00440836 -5.05533e-05 0 0.000206542 0 0)
(0.0120455 -0.000523414 0 8.89082e-05 0 0)
(0.0231387 -0.000653601 0 8.87452e-05 0 0)
(0.0304059 -0.00138937 0 0.000136422 0 0)
(0.0345399 -0.00162057 0 0.000169637 0 0)
(0.0390604 -0.00172727 0 0.000203063 0 0)
(0.0454458 -0.00130594 0 0.000182649 0 0)
(0.0541932 -0.00127651 0 0.000130013 0 0)
(0.0637861 -0.00119475 0 0.000117961 0 0)
(0.0743265 -0.00113178 0 0.000119614 0 0)
(0.0842438 -0.00105118 0 0.000119146 0 0)
(0.0953975 -0.000437412 0 0.000205296 0 0)
(0.105675 0.000853892 0 0.00035331 0 0)
(0.119919 0.00481928 0 0.00094927 0 0)
(0.136674 0.0108861 0 0.00243262 0 0)
(0.163835 0.0264464 0 0.00827545 0 0)
(0.205233 0.0510193 0 0.0208846 0 0)
(0.283005 0.103773 0 0.055558 0 0)
(0.0981895 -0.00276384 0 0.000111336 0 0)
(0.00133709 -0.000267634 0 0.0004786 0 0)
(0.00441328 -0.000129307 0 0.000375821 0 0)
(0.0125175 -0.000731231 0 0.00012129 0 0)
(0.0239876 -0.000975507 0 0.000117578 0 0)
(0.0313237 -0.0019707 0 0.000211397 0 0)
(0.0358313 -0.00233714 0 0.000278585 0 0)
(0.0404133 -0.00242739 0 0.000324677 0 0)
(0.0472081 -0.00186582 0 0.00026862 0 0)
(0.0559714 -0.00178944 0 0.00018954 0 0)
(0.066095 -0.00169196 0 0.000149163 0 0)
(0.076524 -0.00174797 0 0.000157958 0 0)
(0.0871528 -0.00165965 0 0.000141963 0 0)
(0.0982982 -0.00122766 0 0.000236283 0 0)
(0.10974 8.65507e-05 0 0.000388697 0 0)
(0.124232 0.00373513 0 0.000887282 0 0)
(0.143137 0.0097624 0 0.00227863 0 0)
(0.171639 0.0242964 0 0.00726953 0 0)
(0.217749 0.0482166 0 0.018738 0 0)
(0.296441 0.0962334 0 0.0473509 0 0)
(0.0979805 -0.00370558 0 0.000181462 0 0)
(0.00134738 -0.000403138 0 0.000763289 0 0)
(0.00448997 -0.000262874 0 0.000605584 0 0)
(0.0132586 -0.000976317 0 0.000162148 0 0)
(0.0250869 -0.00135046 0 0.00016025 0 0)
(0.0327556 -0.00263265 0 0.000317141 0 0)
(0.0375184 -0.0030947 0 0.000423859 0 0)
(0.0424881 -0.00321555 0 0.000493124 0 0)
(0.0495016 -0.00244452 0 0.000374614 0 0)
(0.0586549 -0.0023996 0 0.00028096 0 0)
(0.0689985 -0.00219404 0 0.000188175 0 0)
(0.0798199 -0.0024662 0 0.000223165 0 0)
(0.0908411 -0.00226035 0 0.000167874 0 0)
(0.102492 -0.00213492 0 0.000297784 0 0)
(0.114625 -0.000691146 0 0.000415799 0 0)
(0.130079 0.00254164 0 0.000886151 0 0)
(0.150551 0.00844244 0 0.00208988 0 0)
(0.181247 0.0220343 0 0.0064816 0 0)
(0.231758 0.0445136 0 0.0164573 0 0)
(0.312019 0.0895048 0 0.0406607 0 0)
(0.0977514 -0.00475581 0 0.000281171 0 0)
(0.0013691 -0.000570524 0 0.00111773 0 0)
(0.00462105 -0.000438196 0 0.000894397 0 0)
(0.0142652 -0.00123916 0 0.00020575 0 0)
(0.0265253 -0.00179877 0 0.000220218 0 0)
(0.0346862 -0.00335084 0 0.000453581 0 0)
(0.0396838 -0.00391783 0 0.000610715 0 0)
(0.0452813 -0.0040461 0 0.000696349 0 0)
(0.052463 -0.00310182 0 0.000513687 0 0)
(0.0622069 -0.00306301 0 0.000399286 0 0)
(0.0726471 -0.00275866 0 0.000242362 0 0)
(0.0842724 -0.00325708 0 0.000308671 0 0)
(0.0954544 -0.00289886 0 0.000202381 0 0)
(0.107991 -0.00318431 0 0.0003901 0 0)
(0.120639 -0.00145227 0 0.000451635 0 0)
(0.137568 0.00107867 0 0.000924013 0 0)
(0.159101 0.00715288 0 0.00192993 0 0)
(0.193036 0.0192013 0 0.00575723 0 0)
(0.24696 0.0405424 0 0.0143429 0 0)
(0.33078 0.0820252 0 0.0348178 0 0)
(0.097566 -0.00594748 0 0.000422238 0 0)
(0.00141558 -0.000793244 0 0.00154845 0 0)
(0.00484643 -0.000696744 0 0.00122409 0 0)
(0.0155511 -0.00153476 0 0.000256985 0 0)
(0.0284154 -0.00233324 0 0.000300701 0 0)
(0.0370834 -0.00414582 0 0.000622934 0 0)
(0.0425434 -0.00481799 0 0.000835907 0 0)
(0.0487964 -0.00492782 0 0.000927693 0 0)
(0.0563646 -0.0038594 0 0.000681891 0 0)
(0.0666718 -0.00378209 0 0.000533421 0 0)
(0.0775038 -0.00344323 0 0.000311238 0 0)
(0.0898853 -0.00407972 0 0.000404473 0 0)
(0.101437 -0.00366736 0 0.000256351 0 0)
(0.11489 -0.00427785 0 0.000496843 0 0)
(0.128369 -0.00235967 0 0.00051373 0 0)
(0.146523 -0.000481609 0 0.00097648 0 0)
(0.169645 0.0056255 0 0.00184334 0 0)
(0.206669 0.0160655 0 0.00505805 0 0)
(0.263725 0.03599 0 0.0125447 0 0)
(0.351868 0.0738269 0 0.0295674 0 0)
(0.0975175 -0.00729019 0 0.00061628 0 0)
(0.00150806 -0.00109458 0 0.00207808 0 0)
(0.00524876 -0.0010663 0 0.00152033 0 0)
(0.0171696 -0.00191207 0 0.000330924 0 0)
(0.0308311 -0.00300209 0 0.000414053 0 0)
(0.0400213 -0.00504927 0 0.000833826 0 0)
(0.0462854 -0.00582372 0 0.00110266 0 0)
(0.0531347 -0.00589829 0 0.00119434 0 0)
(0.0613324 -0.00470306 0 0.000873292 0 0)
(0.0722235 -0.00461859 0 0.000694767 0 0)
(0.0836938 -0.00420574 0 0.000390393 0 0)
(0.096747 -0.0050165 0 0.00052501 0 0)
(0.108943 -0.00447819 0 0.000313612 0 0)
(0.12338 -0.00553201 0 0.00064009 0 0)
(0.137813 -0.00328127 0 0.000567027 0 0)
(0.157222 -0.0023009 0 0.00109539 0 0)
(0.18244 0.0040606 0 0.00174808 0 0)
(0.222078 0.0123882 0 0.0045302 0 0)
(0.282633 0.0312088 0 0.010878 0 0)
(0.375238 0.0641783 0 0.025282 0 0)
(0.098031 -0.00882827 0 0.000880384 0 0)
(0.00166498 -0.00145873 0 0.00272256 0 0)
(0.00595971 -0.00155472 0 0.00171572 0 0)
(0.0190427 -0.0023988 0 0.000445191 0 0)
(0.034024 -0.00387716 0 0.000580524 0 0)
(0.0433214 -0.00605967 0 0.0010954 0 0)
(0.0511879 -0.00699236 0 0.00142176 0 0)
(0.0580081 -0.00690834 0 0.00148468 0 0)
(0.0676676 -0.00571465 0 0.00110402 0 0)
(0.0785387 -0.00551611 0 0.00087951 0 0)
(0.0914533 -0.00513301 0 0.000495249 0 0)
(0.104583 -0.00601682 0 0.000666528 0 0)
(0.118319 -0.00543333 0 0.00038546 0 0)
(0.133158 -0.00688623 0 0.000825077 0 0)
(0.149333 -0.00431177 0 0.000618398 0 0)
(0.169761 -0.00433183 0 0.00130628 0 0)
(0.197632 0.00241473 0 0.00161299 0 0)
(0.239224 0.00825807 0 0.0042631 0 0)
(0.304189 0.0262387 0 0.00921967 0 0)
(0.401232 0.0526853 0 0.0221424 0 0)
(0.0994968 -0.0106607 0 0.00124678 0 0)
(0.00204474 -0.00185283 0 0.00346945 0 0)
(0.00729494 -0.00219672 0 0.00185233 0 0)
(0.0210645 -0.00296265 0 0.000605573 0 0)
(0.0386078 -0.00501078 0 0.000813567 0 0)
(0.0465871 -0.00711549 0 0.00140452 0 0)
(0.0580769 -0.00838969 0 0.00179038 0 0)
(0.062845 -0.00784628 0 0.00177834 0 0)
(0.0764583 -0.00701463 0 0.00138237 0 0)
(0.0849452 -0.0063446 0 0.00106096 0 0)
(0.102171 -0.00635869 0 0.000636403 0 0)
(0.112739 -0.0069377 0 0.000795372 0 0)
(0.131238 -0.00673899 0 0.000498532 0 0)
(0.143459 -0.00811581 0 0.000996689 0 0)
(0.164827 -0.00572469 0 0.000713149 0 0)
(0.183076 -0.00624824 0 0.00150545 0 0)
(0.216245 0.000408989 0 0.00156438 0 0)
(0.256331 0.00418891 0 0.00399038 0 0)
(0.326639 0.0208611 0 0.00798549 0 0)
(0.423516 0.0405355 0 0.0189444 0 0)
(0.100976 -0.0127608 0 0.00174334 0 0)
(0.00291346 -0.00232974 0 0.00432492 0 0)
(0.00954577 -0.0030119 0 0.00199575 0 0)
(0.0234784 -0.00361509 0 0.000818765 0 0)
(0.0449916 -0.00645419 0 0.0011229 0 0)
(0.050057 -0.00823974 0 0.00177479 0 0)
(0.0678456 -0.0101084 0 0.00221148 0 0)
(0.067735 -0.00874483 0 0.0021075 0 0)
(0.0891264 -0.00870237 0 0.00170964 0 0)
(0.0912526 -0.00715524 0 0.0012671 0 0)
(0.117693 -0.00794255 0 0.000813869 0 0)
(0.120319 -0.00785349 0 0.000946198 0 0)
(0.149365 -0.00840196 0 0.000647702 0 0)
(0.151605 -0.00922805 0 0.00119354 0 0)
(0.183914 -0.00737114 0 0.000831821 0 0)
(0.190006 -0.00785725 0 0.00172548 0 0)
(0.232233 -0.00146782 0 0.00154514 0 0)
(0.257125 0.000775673 0 0.00375729 0 0)
(0.330105 0.0166042 0 0.00698664 0 0)
(0.406775 0.0300468 0 0.0156601 0 0)
(0.100279 -0.0149486 0 0.00238945 0 0)
(0.00399254 -0.00306952 0 0.00529449 0 0)
(0.0121621 -0.00388784 0 0.00216437 0 0)
(0.0266859 -0.00450745 0 0.00109951 0 0)
(0.0521896 -0.00819675 0 0.00152868 0 0)
(0.055291 -0.0096475 0 0.00222897 0 0)
(0.0795023 -0.0121613 0 0.00271178 0 0)
(0.0744938 -0.00985837 0 0.00248982 0 0)
(0.103909 -0.0107015 0 0.00209635 0 0)
(0.0976714 -0.00802874 0 0.00148819 0 0)
(0.132675 -0.00969077 0 0.00103648 0 0)
(0.122679 -0.00849232 0 0.00109903 0 0)
(0.159373 -0.00990336 0 0.000830536 0 0)
(0.14354 -0.00928136 0 0.00136019 0 0)
(0.180236 -0.00820979 0 0.000951239 0 0)
(0.16344 -0.00740597 0 0.00185598 0 0)
(0.203914 -0.0017635 0 0.00147352 0 0)
(0.200965 0.000596529 0 0.00349117 0 0)
(0.261748 0.0155421 0 0.00585178 0 0)
(0.306771 0.0248142 0 0.0128423 0 0)
(0.0975843 -0.017188 0 0.00322961 0 0)
(0.00495622 -0.00417785 0 0.00629864 0 0)
(0.0146738 -0.00472809 0 0.00235941 0 0)
(0.0311556 -0.00581258 0 0.00147847 0 0)
(0.0594209 -0.0101462 0 0.00204582 0 0)
(0.0631909 -0.0114986 0 0.00278733 0 0)
(0.089082 -0.0140664 0 0.00325257 0 0)
(0.0797538 -0.0109392 0 0.00291132 0 0)
(0.106756 -0.0117219 0 0.00244493 0 0)
(0.0904487 -0.00794902 0 0.00166705 0 0)
(0.117135 -0.00959739 0 0.00120288 0 0)
(0.0937655 -0.00700801 0 0.00116505 0 0)
(0.116751 -0.00845428 0 0.000932558 0 0)
(0.0881159 -0.00569632 0 0.00135141 0 0)
(0.10799 -0.00556693 0 0.000942313 0 0)
(0.0832464 -0.00240919 0 0.00173492 0 0)
(0.104723 0.00070393 0 0.00126766 0 0)
(0.0982205 0.0053773 0 0.00298013 0 0)
(0.138675 0.0157828 0 0.00459903 0 0)
(0.183371 0.0260275 0 0.00981836 0 0)
(0.0950161 -0.0196824 0 0.0043437 0 0)
(0.00625434 -0.00568242 0 0.00715132 0 0)
(0.0176764 -0.0057726 0 0.0026807 0 0)
(0.0369219 -0.00758918 0 0.0020147 0 0)
(0.0637861 -0.0119912 0 0.00268354 0 0)
(0.0641965 -0.0124795 0 0.00334654 0 0)
(0.0765459 -0.0132656 0 0.00363503 0 0)
(0.0578472 -0.00872228 0 0.00311648 0 0)
(0.0639453 -0.00810438 0 0.0024764 0 0)
(0.0439948 -0.00377175 0 0.00159493 0 0)
(0.0474481 -0.00457085 0 0.00111273 0 0)
(0.0335363 -0.00131073 0 0.00100509 0 0)
(0.0339602 -0.00219671 0 0.00080323 0 0)
(0.0303932 0.0015216 0 0.00109903 0 0)
(0.030535 0.000343555 0 0.000741895 0 0)
(0.0413749 0.00483389 0 0.00137176 0 0)
(0.0449428 0.00391159 0 0.000949688 0 0)
(0.0756161 0.0109874 0 0.00229369 0 0)
(0.100414 0.01372 0 0.0033869 0 0)
(0.174363 0.0284418 0 0.0068506 0 0)
(0.0951625 -0.0228043 0 0.00582072 0 0)
(0.00868108 -0.00771038 0 0.00802417 0 0)
(0.0201704 -0.00695486 0 0.00334508 0 0)
(0.0356121 -0.00846272 0 0.00273098 0 0)
(0.0445678 -0.0102931 0 0.00315842 0 0)
(0.0310097 -0.00739092 0 0.00342638 0 0)
(0.0235465 -0.00485881 0 0.00334995 0 0)
(0.0144502 0.000200242 0 0.0026605 0 0)
(0.0157105 0.00103705 0 0.0019408 0 0)
(0.0286215 0.00384419 0 0.00116646 0 0)
(0.0288041 0.00313569 0 0.000771651 0 0)
(0.0625237 0.00551742 0 0.000669219 0 0)
(0.0563903 0.00476343 0 0.000538391 0 0)
(0.112001 0.00772896 0 0.000725052 0 0)
(0.101209 0.00534378 0 0.000482883 0 0)
(0.172107 0.00956336 0 0.000918059 0 0)
(0.163209 0.00482534 0 0.000642696 0 0)
(0.239215 0.0132818 0 0.00153971 0 0)
(0.255374 0.00818663 0 0.00234698 0 0)
(0.341669 0.0259538 0 0.00427729 0 0)
(0.101844 -0.0279516 0 0.00814313 0 0)
(0.00972619 -0.00879049 0 0.00900942 0 0)
(0.0132973 -0.00479609 0 0.00390302 0 0)
(0.0138967 -0.00293966 0 0.00285615 0 0)
(0.00835251 -0.000176075 0 0.00268807 0 0)
(0.0143299 0.00480606 0 0.0025545 0 0)
(0.0346241 0.00750836 0 0.00228619 0 0)
(0.0832985 0.00966339 0 0.00168893 0 0)
(0.117401 0.00869844 0 0.00114464 0 0)
(0.186078 0.00898098 0 0.000656014 0 0)
(0.203934 0.00791618 0 0.000412179 0 0)
(0.290275 0.00899119 0 0.000358385 0 0)
(0.290177 0.00819931 0 0.000292144 0 0)
(0.399704 0.0098768 0 0.000398657 0 0)
(0.383679 0.00708422 0 0.000263273 0 0)
(0.503915 0.00988749 0 0.000523807 0 0)
(0.482154 0.00339207 0 0.000375809 0 0)
(0.582898 0.0114095 0 0.000919188 0 0)
(0.592712 0.000936951 0 0.00143669 0 0)
(0.644122 0.0193323 0 0.00269504 0 0)
(0.109094 -0.0346005 0 0.0116322 0 0)
(0.00271629 -0.00229107 0 0.00863883 0 0)
(0.0184081 0.00502778 0 0.00314049 0 0)
(0.0441515 0.00813321 0 0.00186416 0 0)
(0.0846979 0.011003 0 0.00149983 0 0)
(0.1635 0.0133836 0 0.00133989 0 0)
(0.247517 0.0133081 0 0.00113959 0 0)
(0.356954 0.0122685 0 0.000799426 0 0)
(0.42638 0.0100832 0 0.000509648 0 0)