/*--------------------------------*- C++ -*----------------------------------*\
| =========                 |                                                 |
| \\      /  F ield         | OpenFOAM: The Open Source CFD Toolbox           |
|  \\    /   O peration     | Version:  2.4.0                                 |
|   \\  /    A nd           | Web:      www.OpenFOAM.org                      |
|    \\/     M anipulation  |                                                 |
\*---------------------------------------------------------------------------*/
FoamFile
{
    version     2.0;
    format      ascii;
    class       volScalarField;
    location    "0.185";
    object      k_0;
}
// * * * * * * * * * * * * * * * * * * * * * * * * * * * * * * * * * * * * * //

dimensions      [0 2 -2 0 0 0 0];

internalField   nonuniform List<scalar> 
17600
(
9.28429
7.40743
5.11943
3.94393
3.31954
2.98013
2.66543
2.48775
2.32867
2.19475
2.13308
2.00516
2.00037
1.8792
1.87723
1.82642
1.77936
1.76712
1.87164
1.61679
4.50304
6.20747
5.83526
5.06044
4.38835
3.97084
3.55985
3.32901
3.12693
2.91869
2.85023
2.6703
2.65124
2.50404
2.48866
2.4289
2.33526
2.30853
2.3461
2.18549
1.31823
3.29088
3.98513
3.96528
3.74629
3.49409
3.20196
3.01363
2.8702
2.67099
2.62227
2.46556
2.44253
2.32438
2.29642
2.25405
2.16219
2.13101
2.12993
2.02218
0.206976
1.20439
1.90358
2.34455
2.49383
2.52139
2.47906
2.38118
2.33499
2.20279
2.17998
2.07731
2.06118
1.9884
1.95019
1.93181
1.86432
1.83452
1.81508
1.73872
0.0259449
0.284242
0.615739
0.984388
1.23216
1.42257
1.55871
1.5801
1.63365
1.6077
1.62193
1.58446
1.58599
1.57041
1.53244
1.53576
1.50463
1.48819
1.45247
1.40439
0.00273104
0.0508614
0.124743
0.278512
0.420139
0.549035
0.729976
0.792841
0.909579
0.944947
1.02045
1.03237
1.0589
1.09301
1.08258
1.10236
1.09626
1.09952
1.06143
1.03425
0.000274921
0.00727708
0.0197046
0.0493028
0.0998033
0.137136
0.229518
0.277156
0.352935
0.406578
0.476317
0.518879
0.551952
0.626149
0.634194
0.66319
0.686209
0.703275
0.679822
0.665667
4.68082e-05
0.000941961
0.00264243
0.00633441
0.0159162
0.0237193
0.0468238
0.0664296
0.0862269
0.122263
0.148619
0.183131
0.201714
0.256865
0.274116
0.294486
0.342537
0.346053
0.346601
0.343996
2.71122e-05
0.000153905
0.000367343
0.000831208
0.00210586
0.0031466
0.00671129
0.0106773
0.0142298
0.0237069
0.0303853
0.0433185
0.0492394
0.0707748
0.0799665
0.0890169
0.119925
0.119836
0.126382
0.121877
2.56397e-05
6.87618e-05
9.62348e-05
0.00016618
0.000405629
0.00052806
0.00098027
0.00136875
0.00181388
0.00309348
0.00421561
0.00677176
0.0079599
0.0131769
0.015249
0.0178827
0.0271768
0.0284487
0.0301225
0.0276028
2.4415e-05
5.5225e-05
5.89303e-05
7.01489e-05
0.00015613
0.00020183
0.000294903
0.000302483
0.000322657
0.000374749
0.000480623
0.000811405
0.000988559
0.00194891
0.0022684
0.00258613
0.00432086
0.00448846
0.00449243
0.00469414
2.29184e-05
4.56834e-05
4.87312e-05
5.29287e-05
8.67485e-05
0.000107982
0.000134303
0.000144754
0.000141223
0.000128574
0.000130428
0.000147475
0.000164562
0.000346869
0.000398052
0.000418475
0.00073032
0.000721883
0.000697756
0.0011947
2.22206e-05
3.76121e-05
4.9177e-05
5.01279e-05
5.33423e-05
5.77073e-05
7.11643e-05
0.00010897
0.000114774
0.000114087
0.000105491
8.77666e-05
8.51635e-05
0.000110022
0.000132263
0.000248633
0.000269194
0.000247568
0.000346958
0.000457539
2.17838e-05
3.28781e-05
4.70024e-05
4.39642e-05
4.23691e-05
4.55705e-05
6.49393e-05
8.9359e-05
9.31902e-05
9.35922e-05
8.71044e-05
7.00038e-05
6.91533e-05
7.36861e-05
9.65227e-05
0.000189978
0.000185241
0.000198939
0.000221657
0.000213887
2.1265e-05
2.99622e-05
4.05159e-05
3.90513e-05
4.02809e-05
4.8474e-05
5.65307e-05
6.30618e-05
6.30367e-05
6.46209e-05
6.41057e-05
6.3643e-05
6.46997e-05
6.56339e-05
8.29565e-05
8.68745e-05
9.28762e-05
0.000127645
0.000126145
0.000131762
2.08825e-05
2.58616e-05
3.64582e-05
4.23438e-05
4.40143e-05
4.33547e-05
4.35387e-05
4.70641e-05
5.09555e-05
5.88342e-05
5.94319e-05
6.29248e-05
5.98221e-05
5.73408e-05
6.1197e-05
6.59739e-05
9.20154e-05
0.000102601
9.86681e-05
0.000103784
2.07615e-05
2.51816e-05
3.61963e-05
4.06491e-05
4.04309e-05
3.96805e-05
4.24437e-05
4.79687e-05
5.0499e-05
5.2621e-05
5.42044e-05
5.48826e-05
5.27965e-05
5.60685e-05
5.57312e-05
5.71469e-05
8.29612e-05
7.94261e-05
7.92618e-05
0.000101634
2.06931e-05
2.49071e-05
3.47644e-05
3.65033e-05
3.75712e-05
3.93613e-05
4.50587e-05
4.70588e-05
4.75301e-05
4.78783e-05
5.22553e-05
5.34131e-05
5.3029e-05
5.48413e-05
5.51366e-05
6.26078e-05
6.32588e-05
6.50469e-05
7.11748e-05
8.0485e-05
2.05636e-05
2.443e-05
3.51492e-05
3.77746e-05
3.75052e-05
3.78022e-05
3.87684e-05
4.41663e-05
4.59711e-05
4.74481e-05
5.04927e-05
5.04502e-05
5.00141e-05
5.03147e-05
5.10288e-05
5.34884e-05
5.83753e-05
6.6133e-05
7.39095e-05
7.68743e-05
2.0503e-05
2.48571e-05
3.56975e-05
3.61241e-05
3.57889e-05
3.57073e-05
4.04581e-05
4.49967e-05
4.53151e-05
4.54104e-05
4.54633e-05
4.65364e-05
4.67813e-05
4.75074e-05
4.98279e-05
5.19643e-05
5.4178e-05
6.43233e-05
6.22912e-05
6.64962e-05
2.05281e-05
2.59867e-05
3.13641e-05
3.33676e-05
3.7488e-05
3.98524e-05
4.06295e-05
4.13713e-05
4.07906e-05
4.07736e-05
4.27937e-05
4.54282e-05
4.57115e-05
4.63625e-05
4.61466e-05
4.83015e-05
5.26591e-05
5.42302e-05
5.59343e-05
6.12087e-05
2.06132e-05
2.43239e-05
3.18618e-05
3.9054e-05
4.05116e-05
3.95354e-05
3.78305e-05
3.7837e-05
3.98858e-05
4.31878e-05
4.47677e-05
4.52151e-05
4.40197e-05
4.33295e-05
4.71464e-05
4.70061e-05
4.87273e-05
5.13167e-05
5.25555e-05
7.00252e-05
2.06448e-05
2.46395e-05
3.65899e-05
4.09583e-05
4.02443e-05
3.77651e-05
3.76645e-05
4.13473e-05
4.51176e-05
4.57585e-05
4.52407e-05
4.52299e-05
4.45952e-05
4.77017e-05
4.9342e-05
4.95741e-05
5.04448e-05
5.18814e-05
5.18347e-05
5.38936e-05
2.08263e-05
2.52758e-05
3.91849e-05
3.97937e-05
3.92836e-05
3.94376e-05
4.37195e-05
4.69857e-05
4.67558e-05
4.57897e-05
4.59966e-05
4.6253e-05
4.75143e-05
5.41706e-05
5.37395e-05
5.29819e-05
5.42081e-05
5.42029e-05
5.43867e-05
6.16248e-05
2.08974e-05
2.61688e-05
3.79673e-05
4.01319e-05
4.50176e-05
4.61363e-05
4.69274e-05
4.68539e-05
4.62388e-05
4.70636e-05
5.02906e-05
5.48586e-05
6.14687e-05
6.1653e-05
5.88856e-05
5.90466e-05
5.95165e-05
6.01969e-05
6.17133e-05
7.5449e-05
2.11495e-05
2.64685e-05
3.85579e-05
4.83811e-05
5.0074e-05
4.91563e-05
4.77937e-05
4.75382e-05
4.8846e-05
5.80912e-05
6.20848e-05
7.01656e-05
7.22866e-05
6.8915e-05
6.6321e-05
6.80881e-05
6.92221e-05
7.22397e-05
7.65309e-05
8.81632e-05
2.13746e-05
2.72124e-05
4.39406e-05
5.45872e-05
5.4811e-05
5.26814e-05
5.18698e-05
5.24965e-05
6.06899e-05
7.14254e-05
7.87471e-05
8.7711e-05
8.60935e-05
7.91629e-05
7.94486e-05
8.08384e-05
8.40996e-05
9.42435e-05
0.000109096
0.00015445
2.15566e-05
2.84763e-05
5.55312e-05
6.17458e-05
5.99724e-05
5.60491e-05
5.6394e-05
6.2365e-05
8.76783e-05
0.000100477
0.000108061
0.000111222
0.000103896
0.000102167
0.000104722
0.000116199
0.00013545
0.000192304
0.000266985
0.000426336
2.22153e-05
3.12682e-05
7.12227e-05
6.80733e-05
6.42794e-05
6.44306e-05
7.32544e-05
0.000103938
0.000158667
0.000166398
0.000173996
0.000195383
0.000200136
0.000228839
0.00029123
0.000442181
0.000589903
0.00102927
0.00153266
0.00280747
2.30858e-05
4.06293e-05
8.92759e-05
7.80334e-05
8.14888e-05
0.000111649
0.000161913
0.000250301
0.000460292
0.000504423
0.000592766
0.000936434
0.00110849
0.00155569
0.00211648
0.00339067
0.00443066
0.00749012
0.0102892
0.0173587
2.51164e-05
7.0023e-05
0.000136827
0.000144769
0.000224827
0.000509107
0.000766868
0.00132506
0.00269826
0.00321624
0.00417436
0.00737835
0.00888483
0.0123246
0.0157426
0.0232071
0.0281896
0.0421127
0.0525089
0.0811992
2.82341e-05
0.000160076
0.000492824
0.000747287
0.00162038
0.00393995
0.0057918
0.0102256
0.0190723
0.0228816
0.0291765
0.0466737
0.0536721
0.0679224
0.0827947
0.107913
0.122201
0.160099
0.185255
0.251553
4.8805e-05
0.000907163
0.00334628
0.00599716
0.0140461
0.0292302
0.0402076
0.0666707
0.102703
0.117279
0.144683
0.194727
0.212329
0.246336
0.287374
0.330256
0.355137
0.416947
0.452812
0.531528
0.000277638
0.00657836
0.0251881
0.043908
0.0971666
0.155421
0.200002
0.29319
0.371563
0.402771
0.469732
0.538525
0.563556
0.609251
0.661943
0.698151
0.722606
0.781017
0.81064
0.867165
0.00272694
0.0458767
0.151838
0.24103
0.438539
0.565532
0.692837
0.82365
0.914622
0.945584
1.01526
1.04877
1.06481
1.08553
1.11737
1.12583
1.14005
1.16518
1.18444
1.19833
0.0259595
0.278176
0.642463
0.938621
1.27217
1.41702
1.54434
1.60252
1.62881
1.61471
1.6174
1.59734
1.58831
1.56447
1.56182
1.54252
1.53832
1.52555
1.5202
1.50427
0.207464
1.20447
1.91824
2.31671
2.52755
2.50945
2.47965
2.38701
2.32412
2.22273
2.17243
2.08159
2.05496
1.98483
1.95993
1.90415
1.88294
1.83027
1.79764
1.75658
1.32238
3.29302
3.98888
3.96061
3.77432
3.44666
3.24933
2.98672
2.86049
2.69668
2.59944
2.46829
2.42724
2.31719
2.27484
2.18622
2.14734
2.04961
1.99381
1.91122
4.5083
6.21436
5.83455
5.06081
4.40887
3.91881
3.62218
3.28328
3.12576
2.93327
2.8194
2.66628
2.619
2.48606
2.42878
2.31114
2.25823
2.11959
2.04277
1.90422
9.29298
7.41938
5.11073
3.94627
3.33093
2.94353
2.70652
2.45511
2.32973
2.18741
2.11444
1.99067
1.95071
1.84927
1.79473
1.68185
1.63252
1.50095
1.41376
1.25859
1.24004
1.03669
0.891263
0.80007
0.812054
0.865054
0.670225
0.435813
0.400231
0.292337
0.280058
0.252501
0.269899
0.262515
0.210924
0.228096
0.22823
0.211591
0.208249
0.200974
0.183869
0.16987
0.161597
0.160928
0.168428
0.204432
0.212706
0.196311
0.12885
0.054012
0.0219079
0.00889438
0.00469345
0.00298171
0.00180052
0.00144998
0.00146662
0.00152004
0.00193603
0.00401163
0.0130463
0.0517957
0.10865
0.136594
0.144367
0.139961
0.123382
0.0988236
0.0822874
0.0749753
0.0671856
0.0637064
0.0645168
0.0706436
0.0841008
0.088571
0.0873791
0.0842398
0.0736223
0.0566646
0.0386821
0.0235723
0.0172078
0.0148293
0.0119688
0.0108413
0.0109391
0.0128481
0.0136865
0.0143812
0.0231707
0.0350947
0.0489286
0.0631104
0.0665085
0.0636407
0.0540525
0.0517115
0.0521399
0.0525789
0.0740146
0.0866775
0.082147
0.0584706
0.0423287
0.0357846
0.0328895
0.0299133
0.0271324
0.0256028
0.0254967
0.0256067
0.0265408
0.0291066
0.0325584
0.0432939
0.0526879
0.0606624
0.0793032
0.0971505
0.102906
0.0992616
0.0769709
0.0603922
0.0489826
0.0405016
0.036995
0.0334742
0.028534
0.0265295
0.0255084
0.0224339
0.0191776
0.018655
0.0194654
0.0230986
0.0265772
0.0278572
0.0277859
0.027774
0.0283352
0.0308422
0.034229
0.0386174
0.0490499
0.0962041
0.120696
0.122175
0.142517
0.191234
0.193429
0.153804
0.0839588
0.0528604
0.0429945
0.0388187
0.0348622
0.0314848
0.0282849
0.0270171
0.0274849
0.0328536
0.0368775
0.0368355
0.0344683
0.0340089
0.0381626
0.0440978
0.0489813
0.0543616
0.0609761
0.0653947
0.0675308
0.0668615
0.0610981
0.049008
0.0409122
0.0315943
0.0253983
0.0204223
0.0160519
0.0132079
0.0115111
0.0109988
0.0109822
0.0111477
0.0121759
0.0140987
0.0256059
0.0398052
0.0533074
0.0586355
0.0654591
0.0789806
0.0917991
0.0947475
0.094083
0.0909745
0.0858621
0.0768656
0.0667961
0.0595624
0.0497601
0.0388845
0.0328205
0.0308666
0.0310199
0.0358914
0.0433099
0.0464053
0.0491537
0.0513271
0.0562923
0.0900652
0.10657
0.0958292
0.0550186
0.0397907
0.0601398
1.54206
1.62371
1.2527
0.99987
0.883526
0.793884
0.859675
0.864468
0.608973
0.447268
0.322024
0.35399
0.3257
0.327654
0.299769
0.225513
0.215452
0.203092
0.198762
0.18972
0.169468
0.165589
0.164223
0.166088
0.177863
0.216434
0.23208
0.218779
0.166595
0.0684841
0.0269156
0.0113012
0.00493943
0.00302917
0.00208299
0.00149252
0.00140849
0.00147743
0.00163814
0.00244328
0.00618703
0.02223
0.080392
0.13083
0.149949
0.149978
0.138472
0.108257
0.0893347
0.0765155
0.0702762
0.0640716
0.0596664
0.0595688
0.0616278
0.0734252
0.0838501
0.0858643
0.0845373
0.0782735
0.0612445
0.0430258
0.0267179
0.0191682
0.0161498
0.0125683
0.0109328
0.0109509
0.0127814
0.0136342
0.0142801
0.0236947
0.035875
0.047075
0.0641515
0.070906
0.0673408
0.0540678
0.053723
0.0547224
0.0553312
0.0752465
0.085306
0.0812864
0.0588726
0.042318
0.0349968
0.0322554
0.0299807
0.0277209
0.026237
0.0260318
0.0260637
0.026581
0.0290377
0.0324975
0.0429012
0.0527377
0.0596577
0.0781073
0.0981278
0.104632
0.100768
0.0786104
0.063556
0.0520942
0.0413967
0.0364241
0.0343035
0.0297407
0.0260139
0.0231871
0.0197742
0.0179202
0.0177814
0.0183177
0.0207493
0.0249244
0.0270647
0.0274164
0.027552
0.0280777
0.0298967
0.0329625
0.0373769
0.047327
0.093766
0.118578
0.11989
0.135275
0.184051
0.189537
0.160988
0.0913623
0.0568158
0.044576
0.0394827
0.0352122
0.0316384
0.0280312
0.0262945
0.0262734
0.0298865
0.0344048
0.0348352
0.0332619
0.0328389
0.0377331
0.0453621
0.0495982
0.055261
0.0619728
0.0661969
0.0680103
0.0674001
0.0612949
0.0487914
0.040519
0.03144
0.0253687
0.0204728
0.0163513
0.0133429
0.0114486
0.0106884
0.010648
0.0107776
0.0120934
0.0151047
0.0319849
0.0440527
0.0554434
0.0600456
0.0731778
0.0877379
0.0939907
0.0936305
0.0891279
0.0800173
0.0726697
0.0622268
0.0546431
0.0508523
0.0428152
0.0344133
0.0299598
0.0285092
0.0288703
0.0327567
0.0413346
0.0443063
0.0472238
0.0501919
0.0553643
0.0861189
0.104234
0.0968695
0.0561435
0.0397394
0.062102
1.22636
1.6143
1.29503
1.03584
0.901465
0.808935
0.785251
0.844951
0.846075
0.61928
0.401433
0.404916
0.375904
0.364554
0.321109
0.255143
0.214209
0.184659
0.173139
0.160193
0.159942
0.166193
0.177537
0.198523
0.246526
0.253326
0.241126
0.194377
0.0835955
0.0326805
0.0136757
0.00639133
0.00317366
0.00229375
0.00172325
0.00138
0.00139831
0.00153982
0.00186193
0.00331668
0.0099422
0.0381359
0.113144
0.149525
0.157869
0.152501
0.124959
0.099175
0.0838434
0.0723938
0.0670738
0.062274
0.0575762
0.0566145
0.0574742
0.06384
0.0777912
0.0830838
0.0834668
0.0804672
0.0670867
0.0470218
0.028834
0.0208033
0.0177694
0.0134191
0.0110895
0.010989
0.0128189
0.0137136
0.0143414
0.0237782
0.0377281
0.0458247
0.0633209
0.0746331
0.0713176
0.0556059
0.0569632
0.0576263
0.0585889
0.0767079
0.0845446
0.0808635
0.0594088
0.0425304
0.0347134
0.0318806
0.0303183
0.0287999
0.0273625
0.0268002
0.0266693
0.0268583
0.0290504
0.0325734
0.0427072
0.0529673
0.0594232
0.0772299
0.099074
0.106338
0.102002
0.079827
0.067502
0.0564385
0.0429403
0.0356427
0.0341236
0.0310456
0.0256817
0.021506
0.0183312
0.0170499
0.0170508
0.0176333
0.0191781
0.0233236
0.0260593
0.0270656
0.0272864
0.0278646
0.0292333
0.0320598
0.0363626
0.0459146
0.092894
0.117349
0.118181
0.129851
0.175692
0.184851
0.165073
0.098928
0.0615739
0.0466039
0.0403611
0.0358944
0.0319294
0.0281742
0.0260863
0.0258568
0.0279033
0.0321636
0.0330699
0.0320703
0.0317081
0.0373482
0.0464029
0.0507691
0.0567049
0.0632899
0.0672727
0.068807
0.0680094
0.0609903
0.0481747
0.0395718
0.030972
0.0250654
0.0202686
0.016662
0.0135601
0.0115107
0.0106313
0.0106116
0.0107707
0.0123563
0.0169997
0.0378842
0.0482701
0.0576591
0.0643184
0.0848945
0.0908704
0.0921475
0.0865243
0.0698128
0.0551282
0.0455278
0.0386588
0.0371696
0.0379658
0.0352355
0.0287201
0.0261331
0.0260391
0.0266971
0.0303816
0.0379794
0.0428917
0.0451032
0.0486751
0.0546796
0.0832995
0.100357
0.0962273
0.0586728
0.0394982
0.0613815
0.948798
1.44393
1.17619
1.02184
0.856448
0.781856
0.753397
0.753115
0.83003
0.805557
0.619659
0.480471
0.408655
0.383003
0.323277
0.269723
0.23211
0.20079
0.193675
0.199081
0.221055
0.248348
0.273139
0.285057
0.279861
0.26234
0.212566
0.0936923
0.0384634
0.0156187
0.00724466
0.00362246
0.00214253
0.00186268
0.00149679
0.00132386
0.00139779
0.0016182
0.00220762
0.00478746
0.0161121
0.0673769
0.137941
0.164518
0.164953
0.150789
0.112097
0.0895945
0.0771682
0.0678537
0.063941
0.0606777
0.05624
0.0546347
0.0550137
0.05786
0.0709639
0.0798563
0.0821616
0.0810822
0.0727996
0.0512931
0.0315055
0.0226217
0.0190736
0.0139882
0.011187
0.0110387
0.0128932
0.0138191
0.0144597
0.0236725
0.0394594
0.0461084
0.0613563
0.0767486
0.0746386
0.0604079
0.0615244
0.0610312
0.0621206
0.0786119
0.0846631
0.0809129
0.0599481
0.0430051
0.0348644
0.0314846
0.0302015
0.0298839
0.0286942
0.0276066
0.0272857
0.0273513
0.0293791
0.0329314
0.0426704
0.0532963
0.0597111
0.0769025
0.100235
0.107936
0.103056
0.0817098
0.0717847
0.0613309
0.0457882
0.0354544
0.0333691
0.0317892
0.0257705
0.0210017
0.0178487
0.016629
0.0166254
0.0171703
0.0183666
0.0218294
0.0252464
0.0266264
0.0270214
0.0278392
0.0289284
0.0314349
0.0354569
0.0451521
0.0932675
0.116887
0.117069
0.125412
0.167889
0.180038
0.166773
0.107314
0.0670064
0.049369
0.0417359
0.0370146
0.0325091
0.0285398
0.0263036
0.0259286
0.0271925
0.03066
0.0318513
0.0311403
0.0308634
0.0373614
0.0478478
0.0521823
0.0583314
0.0645681
0.0685985
0.0695953
0.0683188
0.059764
0.04716
0.0381896
0.0301628
0.0244641
0.0197346
0.0168807
0.0138284
0.0117166
0.0107238
0.01065
0.0109779
0.0131952
0.0212861
0.0435704
0.0522895
0.0628374
0.0736077
0.0899247
0.0908711
0.0857625
0.0707537
0.0571884
0.0460012
0.0366799
0.0275302
0.0245038
0.0259872
0.0264737
0.0236108
0.0223228
0.022658
0.0238308
0.0280575
0.0352872
0.0408555
0.0437648
0.0471035
0.0533787
0.0814564
0.0976106
0.0948664
0.0616802
0.0395567
0.0597201
0.719654
1.21891
1.00619
0.897988
0.760506
0.666913
0.663209
0.656471
0.720372
0.770376
0.749354
0.652202
0.48603
0.4115
0.346279
0.306213
0.289018
0.284563
0.289219
0.309949
0.32237
0.318831
0.312234
0.301694
0.274623
0.213213
0.0963453
0.0412004
0.0174021
0.00761315
0.00401963
0.00230771
0.00169105
0.00156915
0.0013221
0.00126829
0.0014025
0.00174688
0.00283293
0.00737105
0.0271924
0.101791
0.161258
0.174729
0.168275
0.13649
0.103317
0.0844722
0.073494
0.0654713
0.0622557
0.0596615
0.055372
0.0532609
0.0533344
0.0548357
0.0644489
0.0758862
0.0800607
0.0804076
0.0758182
0.0557444
0.0342994
0.0248459
0.0206343
0.0146328
0.0112962
0.0110845
0.0129975
0.0139297
0.0146085
0.0237051
0.0407811
0.0465827
0.0590958
0.0770475
0.0776763
0.0661009
0.0658113
0.0644529
0.0662023
0.0809613
0.0851574
0.0814124
0.0610423
0.0440992
0.0352481
0.0310541
0.0299272
0.0299742
0.0294026
0.0281893
0.0278859
0.0279698
0.0301553
0.03378
0.0428981
0.0537008
0.06035
0.076936
0.101411
0.109536
0.104067
0.0837601
0.0755017
0.0660763
0.0492449
0.0358925
0.0327342
0.0319213
0.026335
0.0208521
0.0176022
0.0164103
0.0164133
0.0169395
0.0178411
0.0205982
0.0244304
0.0259438
0.0269785
0.0278542
0.0287475
0.0306841
0.0348474
0.045299
0.0946621
0.116978
0.116707
0.122226
0.159874
0.175006
0.165607
0.114581
0.0725012
0.0523833
0.0431129
0.0386543
0.0336259
0.0292625
0.0271516
0.0268576
0.0275376
0.0302538
0.0311817
0.0304754
0.0303027
0.0380611
0.0496689
0.0539282
0.0600663
0.06626
0.0700108
0.0705061
0.0684628
0.0576049
0.0452692
0.03682
0.0290424
0.0237849
0.0190054
0.0168849
0.0141773
0.012002
0.0110503
0.0108268
0.0114355
0.0146595
0.0284474
0.0492141
0.056552
0.0720831
0.0826657
0.0906602
0.0859218
0.0751062
0.065891
0.056119
0.0453819
0.0350827
0.0260509
0.0201699
0.019358
0.0195217
0.0188881
0.0192101
0.0200612
0.0215063
0.0252155
0.0334801
0.0382388
0.0429458
0.0456793
0.0511277
0.0773403
0.0959362
0.0940562
0.0633502
0.0397752
0.0564825
0.52877
0.931938
0.814712
0.722907
0.6246
0.529996
0.514029
0.522848
0.556462
0.640472
0.715964
0.68572
0.605064
0.511557
0.45256
0.426147
0.414882
0.400401
0.383376
0.366234
0.3485
0.323295
0.303617
0.267168
0.186391
0.0897307
0.0401068
0.0178416
0.00795924
0.003961
0.00247871
0.00166608
0.00144422
0.00133121
0.00118947
0.00122913
0.00146485
0.00208903
0.00407265
0.0119148
0.0458577
0.137041
0.180437
0.183887
0.167871
0.124488
0.0946155
0.0789401
0.0697445
0.0632692
0.0608716
0.0588009
0.0547474
0.0522951
0.0520897
0.0529545
0.0594741
0.0720079
0.0783576
0.0798084
0.0774974
0.0597603
0.0367537
0.0270818
0.0221136
0.01523
0.0114305
0.0111086
0.0130597
0.0140993
0.014924
0.0238388
0.0416759
0.0470514
0.0551172
0.0757149
0.0779784
0.0697385
0.0678236
0.0671658
0.0715628
0.0840293
0.0863536
0.0823482
0.0623129
0.0453463
0.0360731
0.0311462
0.0296793
0.0297095
0.0293986
0.0285722
0.0285025
0.0287594
0.0313406
0.0350606
0.0436538
0.0545628
0.0611523
0.0771494
0.102849
0.111109
0.105204
0.0855937
0.0783547
0.0703566
0.0529324
0.0368666
0.032386
0.0318279
0.0272728
0.0209114
0.0173217
0.0161526
0.0161995
0.0168561
0.0175704
0.0197728
0.0234597
0.0252981
0.0271833
0.0279631
0.0287342
0.0301776
0.0339721
0.0459924
0.0986141
0.117578
0.11674
0.119763
0.151776
0.168517
0.163404
0.120048
0.0769469
0.0550622
0.0450883
0.040507
0.0347942
0.030478
0.0288057
0.0286789
0.0291625
0.0306955
0.0308675
0.0298074
0.0298447
0.0397134
0.0521054
0.0559129
0.0620309
0.068186
0.0713377
0.0712651
0.0677039
0.0543806
0.0427807
0.0350306
0.0279649
0.0226113
0.0180675
0.0165186
0.0143001
0.012314
0.0114716
0.0111901
0.0124439
0.0170205
0.0368612
0.0556258
0.0639845
0.0798418
0.0854838
0.086037
0.0767561
0.0717551
0.0652695
0.0566984
0.0456193
0.0344685
0.0252036
0.0191402
0.0162502
0.0151164
0.0151742
0.0157942
0.0174393
0.0192933
0.0227844
0.0309681
0.0365512
0.0409236
0.0447763
0.0492316
0.0725103
0.0934324
0.0932926
0.0668187
0.0403048
0.0532263
0.383667
0.604739
0.535969
0.487038
0.429303
0.362605
0.34575
0.355358
0.384857
0.44281
0.573195
0.609801
0.590803
0.542238
0.486456
0.464117
0.429427
0.40922
0.38925
0.34949
0.30957
0.260989
0.22314
0.144156
0.0739923
0.035859
0.016511
0.00785802
0.00387841
0.00232817
0.00173347
0.0013528
0.00119556
0.00112594
0.00112458
0.00122575
0.00166833
0.00281197
0.00633362
0.0191819
0.0786914
0.165708
0.193806
0.188735
0.153369
0.115732
0.0900948
0.0750107
0.0662317
0.0608171
0.0590517
0.0576737
0.0539906
0.0515369
0.0511156
0.0516288
0.0558644
0.0682714
0.0758156
0.0790209
0.0781635
0.0638305
0.0397814
0.0290655
0.023072
0.0155971
0.0115077
0.0111354
0.0132576
0.0145329
0.0154044
0.0240063
0.0420026
0.047678
0.0527759
0.0716626
0.077201
0.0718884
0.0680695
0.068175
0.0771601
0.0882774
0.0887777
0.0838922
0.0641421
0.0476996
0.0374122
0.031515
0.0296423
0.0295504
0.0293665
0.0290869
0.0292433
0.0298555
0.0330562
0.0368527
0.0447187
0.0555644
0.0622985
0.0781415
0.104728
0.112877
0.106264
0.0873761
0.0802874
0.0738175
0.0565266
0.0379779
0.0321268
0.031479
0.028305
0.0211488
0.0170523
0.0158264
0.0159913
0.0166576
0.0173211
0.0193297
0.0226843
0.0249074
0.0272946
0.0283714
0.0287872
0.0298571
0.0328875
0.0468652
0.102882
0.119008
0.116968
0.118316
0.144376
0.161196
0.158369
0.12351
0.0805483
0.0578628
0.0473615
0.0421807
0.03615
0.0318226
0.0307747
0.0310073
0.032196
0.032214
0.0309747
0.0290847
0.0296152
0.0425186
0.054607
0.0580646
0.0641463
0.0701732
0.0723474
0.0716141
0.0656368
0.0506324
0.0400503
0.0330561
0.0269994
0.0215321
0.0171763
0.0160848
0.0143198
0.0127992
0.0120081
0.0116919
0.0137375
0.0203844
0.0476378
0.0630492
0.0728869
0.0826009
0.0846201
0.0825108
0.0734307
0.0711646
0.0663348
0.0593097
0.0468865
0.0344025
0.0247385
0.0186675
0.014913
0.0131219
0.0131023
0.0136322
0.0149172
0.0168838
0.0203487
0.028374
0.0348787
0.0392798
0.0435946
0.0480168
0.068714
0.0902553
0.0913749
0.0726504
0.0413968
0.0523786
0.277168
0.310313
0.269319
0.249753
0.227166
0.192588
0.18758
0.195389
0.215658
0.265241
0.359449
0.400228
0.470513
0.467527
0.445768
0.4228
0.369855
0.340247
0.309194
0.254056
0.210609
0.166373
0.105676
0.0577491
0.0293024
0.014424
0.0069745
0.00374131
0.00216155
0.00159437
0.00137702
0.00109556
0.00102114
0.00104161
0.00109932
0.00135611
0.00216647
0.00417474
0.0101202
0.0311699
0.116592
0.19134
0.205471
0.190555
0.14214
0.106396
0.0839728
0.0714543
0.0642806
0.059678
0.0578091
0.0564405
0.0531292
0.050846
0.0503474
0.0507621
0.0537958
0.0647749
0.0734844
0.0781243
0.0782847
0.0666024
0.0420231
0.03136
0.0247435
0.0164167
0.0117124
0.0112289
0.0135938
0.0148847
0.0157569
0.0241374
0.0421241
0.0483263
0.0516188
0.0641018
0.0746696
0.0719515
0.0679157
0.0681
0.079996
0.0928929
0.0930747
0.0873732
0.0675193
0.0509718
0.0396771
0.0325484
0.0299667
0.0297133
0.0297643
0.0299099
0.0304114
0.0315113
0.0354151
0.0391494
0.0459583
0.0564373
0.0633597
0.0795247
0.106668
0.114597
0.107502
0.0889576
0.0817183
0.0764627
0.0600795
0.03878
0.0315681
0.0308935
0.0291987
0.0217785
0.0170167
0.015634
0.015855
0.0165999
0.0171713
0.0187868
0.0220371
0.0248197
0.0273882
0.0288505
0.0287868
0.0297173
0.0325842
0.0478431
0.107395
0.121495
0.117618
0.117902
0.13857
0.154684
0.153446
0.124755
0.0835494
0.0611557
0.0500276
0.0435676
0.0370589
0.0332342
0.0331644
0.0350791
0.0358293
0.0338859
0.0300992
0.0284197
0.030107
0.0465799
0.0569632
0.0600641
0.0661997
0.0716006
0.0727218
0.0713182
0.0614706
0.0473917
0.0368612
0.0315037
0.0262173
0.0210421
0.0169806
0.0159264
0.0145773
0.013301
0.0124514
0.0122677
0.0144898
0.0236629
0.0585672
0.0697179
0.0795356
0.0828027
0.0802501
0.0790076
0.072666
0.0721279
0.0671307
0.0599394
0.0470229
0.0340154
0.024248
0.0183175
0.0146217
0.0123002
0.0118413
0.0121908
0.0133735
0.0149966
0.017912
0.0258975
0.0322428
0.0382588
0.0420746
0.0464194
0.0659948
0.0875229
0.0896619
0.0749373
0.0436593
0.051689
0.201354
0.107064
0.0956373
0.0908722
0.087161
0.075596
0.0747573
0.0792978
0.0903674
0.11755
0.179101
0.208863
0.258406
0.278183
0.276522
0.265087
0.231633
0.211219
0.170507
0.143318
0.109317
0.069866
0.0413802
0.0217112
0.0112087
0.00580023
0.00324223
0.00208265
0.00143672
0.00126282
0.00112245
0.000928678
0.000940062
0.00100882
0.00114474
0.00166882
0.00312315
0.00656982
0.0162705
0.0505594
0.158
0.212164
0.21357
0.179618
0.131461
0.101194
0.0806566
0.068564
0.0620314
0.0584315
0.056833
0.054808
0.0519988
0.0502088
0.0495798
0.0498722
0.0522522
0.0619841
0.0716203
0.0776293
0.078385
0.0683434
0.0433938
0.0329839
0.0261202
0.0170315
0.0119459
0.0114311
0.0138238
0.0149458
0.0158282
0.0243028
0.0420681
0.0492134
0.0516888
0.0576598
0.0682892
0.0697366
0.0665899
0.0666706
0.0799104
0.0953923
0.0964536
0.0911953
0.0713816
0.0545814
0.0425919
0.0343584
0.0308688
0.0306572
0.030988
0.031468
0.0322664
0.0337726
0.0381304
0.0416278
0.047349
0.0572772
0.0643931
0.0810377
0.109132
0.116568
0.108885
0.0892528
0.0827067
0.0783857
0.0632864
0.0394415
0.0308078
0.0300351
0.0295742
0.0231144
0.0172176
0.0156255
0.0157339
0.0164679
0.0171097
0.0185812
0.0218313
0.0248249
0.0277059
0.0291772
0.0286933
0.0296001
0.032678
0.052907
0.113103
0.125542
0.119468
0.11829
0.13344
0.148397
0.148375
0.125584
0.0866472
0.065092
0.0529627
0.0446624
0.0375738
0.0347577
0.0362727
0.0388654
0.0382255
0.0336226
0.0293635
0.0278368
0.031675
0.051203
0.0591701
0.0621561
0.0684136
0.072275
0.0728086
0.0698087
0.0566185
0.0433924
0.034096
0.0300866
0.0258923
0.020823
0.0171471
0.0159152
0.0148108
0.0137351
0.0127582
0.012879
0.0151361
0.0305185
0.0671534
0.0743343
0.0817041
0.0790318
0.078797
0.078449
0.0751724
0.0731948
0.0661501
0.0584331
0.0454615
0.032798
0.0234072
0.0180811
0.0144712
0.0120697
0.0111649
0.0112595
0.0122059
0.0138372
0.0161777
0.0232481
0.0301253
0.0364005
0.0408501
0.0450222
0.0639588
0.0846725
0.0875308
0.0777642
0.0451293
0.0512141
0.149113
0.0258895
0.0267643
0.0267113
0.0271744
0.0252184
0.024387
0.0259701
0.0298722
0.0402486
0.0687048
0.0827942
0.114277
0.124329
0.122299
0.115518
0.100618
0.0860998
0.0716297
0.0581924
0.0408382
0.0254019
0.0144788
0.00747126
0.00429821
0.00266888
0.00187579
0.00140501
0.00111739
0.00105397
0.000915299
0.000852103
0.000902395
0.00100907
0.00129439
0.00236562
0.00496537
0.0106778
0.0256152
0.0847215
0.193438
0.227806
0.217519
0.166559
0.1211
0.0940752
0.0781048
0.0672729
0.0607832
0.0578519
0.0565082
0.0539388
0.0511218
0.0495208
0.0491479
0.0494699
0.0514535
0.0593293
0.0689524
0.0768289
0.0783525
0.0697291
0.0447385
0.0348174
0.0271965
0.0173707
0.0120865
0.0115608
0.01396
0.0150521
0.015917
0.0242819
0.042085
0.0500823
0.0517686
0.054097
0.0602499
0.0616961
0.0594309
0.0606106
0.0769138
0.0951216
0.0972567
0.0938023
0.0776816
0.0596771
0.0470944
0.0376454
0.0331873
0.0328626
0.0331303
0.033711
0.0347781
0.0370287
0.0413643
0.0444964
0.0487387
0.0582661
0.065512
0.0828678
0.111612
0.11842
0.109804
0.0890585
0.0833976
0.0802416
0.0665576
0.0404566
0.0299537
0.0290247
0.0295467
0.0248592
0.0179064
0.0157912
0.0157493
0.0162799
0.0170654
0.0186071
0.0218661
0.0249045
0.0284034
0.0292244
0.0285323
0.0295263
0.0328834
0.0633084
0.118613
0.128672
0.121033
0.118007
0.128758
0.14258
0.143557
0.125698
0.0897838
0.0692313
0.0556508
0.0454122
0.0381114
0.0365441
0.0397572
0.0411029
0.0387716
0.0317001
0.0277948
0.0270355
0.0348564
0.055066
0.0605741
0.0642699
0.0700437
0.072526
0.0722855
0.0658397
0.0515873
0.0396489
0.0318892
0.0292555
0.025817
0.0207908
0.0176512
0.016385
0.0153049
0.0144015
0.0135854
0.0137062
0.016592
0.0420401
0.0736213
0.0779588
0.081828
0.0779494
0.0797468
0.079538
0.0765847
0.0735146
0.065083
0.0578671
0.0449437
0.0320488
0.0228215
0.0175996
0.0143482
0.0117818
0.0108558
0.0108146
0.0112232
0.0125202
0.0147308
0.0209079
0.0284237
0.0345066
0.0397365
0.0439988
0.062261
0.082496
0.0864659
0.0810954
0.0476819
0.0516364
0.118699
0.00598784
0.00676971
0.00675897
0.00684531
0.0062449
0.00609501
0.00669814
0.00810387
0.0114499
0.0206574
0.0244558
0.0352269
0.0384354
0.0369605
0.0337983
0.0307767
0.0279157
0.0247858
0.0199994
0.0137504
0.00830493
0.00456644
0.00272881
0.00212737
0.00169113
0.00134789
0.0010914
0.000964047
0.000917101
0.000821253
0.000820726
0.000895815
0.00110914
0.00174856
0.00397139
0.0083915
0.0173181
0.0398706
0.128269
0.223642
0.239982
0.214211
0.150469
0.114166
0.090348
0.0764527
0.0665859
0.0597897
0.0572752
0.0562039
0.0536417
0.0510145
0.0491237
0.0485379
0.0489213
0.0510157
0.0582249
0.0677136
0.0765933
0.078405
0.0703065
0.0465517
0.0373104
0.0284502
0.0177846
0.0122055
0.0116072
0.0139518
0.0153326
0.0162116
0.0242523
0.0423727
0.050787
0.0514796
0.0521427
0.055249
0.0564643
0.0531716
0.053342
0.0650172
0.0917303
0.0966655
0.0939646
0.0811658
0.0648787
0.052284
0.0416811
0.0363298
0.0356663
0.0359877
0.0367742
0.0383424
0.0413614
0.0445854
0.04711
0.0502201
0.0590741
0.0665732
0.0849362
0.113911
0.120556
0.110721
0.0882202
0.0833934
0.0817133
0.0698269
0.0419191
0.029243
0.0279065
0.0293455
0.0266206
0.019023
0.0162038
0.0159008
0.0162753
0.0170778
0.0187554
0.0220242
0.0252515
0.0293477
0.0291912
0.0284627
0.0293016
0.0323001
0.0753028
0.123281
0.12991
0.121425
0.117724
0.125371
0.13794
0.139746
0.124995
0.092842
0.0727199
0.0577449
0.0458448