/*--------------------------------*- C++ -*----------------------------------*\
| =========                 |                                                 |
| \\      /  F ield         | OpenFOAM: The Open Source CFD Toolbox           |
|  \\    /   O peration     | Version:  2.4.0                                 |
|   \\  /    A nd           | Web:      www.OpenFOAM.org                      |
|    \\/     M anipulation  |                                                 |
\*---------------------------------------------------------------------------*/
FoamFile
{
    version     2.0;
    format      ascii;
    class       volSymmTensorField;
    location    "0.185";
    object      UPrime2Mean;
}
// * * * * * * * * * * * * * * * * * * * * * * * * * * * * * * * * * * * * * //

dimensions      [0 2 -2 0 0 0 0];

internalField   nonuniform List<symmTensor> 
17600
(
(0.0152771 0.000747808 0 8.00014e-05 0 0)
(0.0013875 -0.000265897 0 0.00112584 0 0)
(0.0263187 -0.00635568 0 0.00189635 0 0)
(0.0808045 -0.0106449 0 0.00154676 0 0)
(0.153409 -0.0111347 0 0.000860376 0 0)
(0.241109 -0.0088799 0 0.000351218 0 0)
(0.334077 -0.00524894 0 9.96392e-05 0 0)
(0.422349 -0.00162877 0 1.75673e-05 0 0)
(0.49711 0.00132138 0 1.08278e-05 0 0)
(0.556333 0.00321871 0 2.71251e-05 0 0)
(0.60047 0.00408707 0 4.11102e-05 0 0)
(0.633706 0.00413228 0 4.28735e-05 0 0)
(0.657823 0.00372475 0 3.61672e-05 0 0)
(0.677157 0.00313508 0 2.80261e-05 0 0)
(0.691754 0.00257856 0 1.99516e-05 0 0)
(0.705181 0.00205346 0 1.54152e-05 0 0)
(0.715485 0.00162638 0 1.18137e-05 0 0)
(0.726568 0.00121385 0 7.0388e-06 0 0)
(0.734375 0.000914937 0 5.99103e-06 0 0)
(0.744888 0.000625849 0 4.21592e-06 0 0)
(0.750654 0.000465789 0 3.90527e-06 0 0)
(0.761929 0.000262877 0 3.72291e-06 0 0)
(0.765438 0.000176791 0 3.97359e-06 0 0)
(0.778858 3.37231e-05 0 3.48717e-06 0 0)
(0.779375 -5.3813e-05 0 3.90379e-06 0 0)
(0.79674 -0.000100801 0 4.24435e-06 0 0)
(0.793127 -0.000334013 0 6.12184e-06 0 0)
(0.816729 -0.000181942 0 6.55573e-06 0 0)
(0.808606 -0.00081946 0 1.3995e-05 0 0)
(0.839731 -0.00024156 0 1.30336e-05 0 0)
(0.832385 -0.00183227 0 3.5058e-05 0 0)
(0.864255 -6.28463e-05 0 3.57815e-05 0 0)
(0.884063 -0.00485232 0 0.000114078 0 0)
(0.884116 0.00253804 0 0.000183052 0 0)
(1.01071 -0.018208 0 0.000751385 0 0)
(0.901378 0.0173851 0 0.00171851 0 0)
(1.30083 -0.0716816 0 0.00616251 0 0)
(1.00441 0.0697003 0 0.0123591 0 0)
(1.97706 -0.273867 0 0.0458798 0 0)
(1.78188 0.0914177 0 0.0139928 0 0)
(0.0153849 0.00125835 0 0.000166254 0 0)
(0.00283644 0.00199312 0 0.00145878 0 0)
(0.000273704 0.000760152 0 0.0036622 0 0)
(0.000519631 -0.000962091 0 0.00552808 0 0)
(0.00195709 -0.00265989 0 0.00618167 0 0)
(0.00465274 -0.00482018 0 0.00586508 0 0)
(0.0105929 -0.00723108 0 0.00507629 0 0)
(0.0223804 -0.00941682 0 0.00411817 0 0)
(0.0397226 -0.0106278 0 0.00315019 0 0)
(0.0627053 -0.0108195 0 0.00225593 0 0)
(0.0883558 -0.0101821 0 0.00154594 0 0)
(0.117588 -0.00922341 0 0.001023 0 0)
(0.146872 -0.0082276 0 0.000685694 0 0)
(0.178802 -0.00734536 0 0.000476002 0 0)
(0.208547 -0.0064981 0 0.000323611 0 0)
(0.241433 -0.0059439 0 0.000259759 0 0)
(0.268652 -0.00517813 0 0.000179021 0 0)
(0.302517 -0.00495235 0 0.000180124 0 0)
(0.323798 -0.00417224 0 0.000110724 0 0)
(0.3613 -0.00446786 0 0.000130675 0 0)
(0.372548 -0.00354403 0 7.73319e-05 0 0)
(0.417282 -0.00442347 0 0.000117439 0 0)
(0.41575 -0.00299626 0 6.04854e-05 0 0)
(0.471015 -0.00498183 0 0.00013794 0 0)
(0.454779 -0.00224849 0 6.48643e-05 0 0)
(0.523315 -0.00640567 0 0.000192871 0 0)
(0.492359 -0.000948635 0 8.73395e-05 0 0)
(0.573943 -0.00936892 0 0.00032451 0 0)
(0.533495 0.00135143 0 0.000187455 0 0)
(0.622344 -0.0149266 0 0.000640884 0 0)
(0.586777 0.00485712 0 0.00046999 0 0)
(0.670113 -0.0243906 0 0.0014146 0 0)
(0.665147 0.0089064 0 0.00115923 0 0)
(0.728393 -0.0391597 0 0.00319355 0 0)
(0.787509 0.0100975 0 0.00252207 0 0)
(0.835742 -0.0643496 0 0.00748705 0 0)
(0.992987 -0.00372255 0 0.00444705 0 0)
(1.0849 -0.124426 0 0.0215521 0 0)
(1.36252 -0.0963984 0 0.0103401 0 0)
(1.53444 -0.350476 0 0.137665 0 0)
(0.0155079 0.000926863 0 9.09179e-05 0 0)
(0.00287768 0.00159096 0 0.00097192 0 0)
(0.000812955 0.00122235 0 0.00275839 0 0)
(0.00108538 0.00165074 0 0.00466216 0 0)
(0.00356093 0.0033871 0 0.00568576 0 0)
(0.0066034 0.00494263 0 0.0057912 0 0)
(0.00888954 0.00588472 0 0.00532327 0 0)
(0.00928022 0.00549774 0 0.00468659 0 0)
(0.00897881 0.00466269 0 0.00397802 0 0)
(0.00760277 0.00329151 0 0.0033131 0 0)
(0.00656774 0.00223098 0 0.00266339 0 0)
(0.00509519 0.00112327 0 0.00216441 0 0)
(0.00453173 0.000424168 0 0.00177879 0 0)
(0.00416119 -0.000491862 0 0.00147849 0 0)
(0.00478499 -0.000933455 0 0.00133745 0 0)
(0.0066565 -0.00185334 0 0.00115508 0 0)
(0.00822053 -0.00211955 0 0.00112052 0 0)
(0.0132011 -0.00284308 0 0.000873529 0 0)
(0.0147595 -0.00289162 0 0.000890219 0 0)
(0.0239893 -0.00352786 0 0.000752809 0 0)
(0.0239798 -0.0035339 0 0.000717844 0 0)
(0.0383273 -0.00403942 0 0.000626565 0 0)
(0.0359785 -0.00411257 0 0.000628139 0 0)
(0.0556984 -0.00444941 0 0.000558331 0 0)
(0.0505733 -0.00470401 0 0.000586899 0 0)
(0.0759985 -0.00478032 0 0.000547612 0 0)
(0.0681519 -0.00542643 0 0.000579186 0 0)
(0.0989454 -0.00520468 0 0.000575623 0 0)
(0.0892723 -0.0064575 0 0.000632786 0 0)
(0.124887 -0.00590303 0 0.000640794 0 0)
(0.115473 -0.00827662 0 0.000823322 0 0)
(0.155757 -0.00759394 0 0.00083822 0 0)
(0.149879 -0.0118116 0 0.00134378 0 0)
(0.196891 -0.0118302 0 0.00139101 0 0)
(0.199794 -0.0192013 0 0.00285058 0 0)
(0.260641 -0.0232179 0 0.00311101 0 0)
(0.283462 -0.0390767 0 0.00860242 0 0)
(0.37663 -0.0647645 0 0.0133845 0 0)
(0.433023 -0.115258 0 0.0468944 0 0)
(0.528296 -0.223333 0 0.138651 0 0)
(0.0157732 0.000661137 0 7.57918e-05 0 0)
(0.00292536 0.00120007 0 0.000640526 0 0)
(0.000956438 0.000834 0 0.0017337 0 0)
(0.000909701 0.00101326 0 0.00302718 0 0)
(0.00316929 0.00256104 0 0.00372079 0 0)
(0.00692573 0.00422983 0 0.00391688 0 0)
(0.0120527 0.00595913 0 0.00366864 0 0)
(0.0163731 0.00662271 0 0.00327961 0 0)
(0.0213925 0.00708023 0 0.00289738 0 0)
(0.0244528 0.00671123 0 0.00252603 0 0)
(0.0286069 0.00660181 0 0.0023 0 0)
(0.030152 0.00607314 0 0.00196604 0 0)
(0.0333042 0.00606835 0 0.00183229 0 0)
(0.0333537 0.00554865 0 0.00165088 0 0)
(0.035609 0.00565608 0 0.00148292 0 0)
(0.0346166 0.00494175 0 0.00152727 0 0)
(0.0363065 0.0051004 0 0.00126976 0 0)
(0.0347926 0.00435158 0 0.0015043 0 0)
(0.0361452 0.0045078 0 0.00100221 0 0)
(0.0343563 0.00380219 0 0.00142427 0 0)
(0.0352813 0.0039174 0 0.000852737 0 0)
(0.033325 0.00338165 0 0.00131021 0 0)
(0.0338477 0.0033271 0 0.000762871 0 0)
(0.0317519 0.00301195 0 0.00132803 0 0)
(0.0317513 0.00288321 0 0.000710928 0 0)
(0.0298086 0.00270963 0 0.00139154 0 0)
(0.0293429 0.00241869 0 0.000727695 0 0)
(0.0273847 0.00245183 0 0.00154358 0 0)
(0.026447 0.00200631 0 0.00082077 0 0)
(0.024585 0.00232448 0 0.00178908 0 0)
(0.0231716 0.00170425 0 0.00109261 0 0)
(0.0213165 0.00226917 0 0.00229885 0 0)
(0.0193565 0.00152502 0 0.00174316 0 0)
(0.0174215 0.00213462 0 0.0035552 0 0)
(0.0151678 0.00123718 0 0.00353149 0 0)
(0.0138728 0.000799579 0 0.00751387 0 0)
(0.0133038 -0.00130905 0 0.0106818 0 0)
(0.0156003 -0.00602184 0 0.0232537 0 0)
(0.0205127 -0.0125479 0 0.0470798 0 0)
(0.0263059 -0.0209033 0 0.0969189 0 0)
(0.0155225 0.000605989 0 9.19112e-05 0 0)
(0.00277574 0.000881772 0 0.000427626 0 0)
(0.00074221 0.000599649 0 0.00117689 0 0)
(0.00059171 0.000616506 0 0.00177412 0 0)
(0.00213992 0.00160964 0 0.00244853 0 0)
(0.00514053 0.00289896 0 0.00242498 0 0)
(0.0092276 0.00422985 0 0.00248644 0 0)
(0.0136797 0.00493097 0 0.00209547 0 0)
(0.0183962 0.00542802 0 0.00191954 0 0)
(0.0229609 0.00534746 0 0.00160125 0 0)
(0.0274152 0.00542541 0 0.00152488 0 0)
(0.0316582 0.005241 0 0.00132061 0 0)
(0.0355213 0.00532545 0 0.00128842 0 0)
(0.0392542 0.00527159 0 0.0010654 0 0)
(0.0424791 0.00529148 0 0.00110922 0 0)
(0.0458795 0.00527059 0 0.00101082 0 0)
(0.048652 0.00531466 0 0.0010668 0 0)
(0.0523146 0.00520557 0 0.000932483 0 0)
(0.0547885 0.00523066 0 0.000912965 0 0)
(0.0588667 0.00507141 0 0.000904748 0 0)
(0.0609891 0.00513304 0 0.00078331 0 0)
(0.0653753 0.00504504 0 0.000828525 0 0)
(0.0670165 0.00509278 0 0.000745133 0 0)
(0.0715855 0.00518333 0 0.000867151 0 0)
(0.0726175 0.00523979 0 0.000730693 0 0)
(0.0772306 0.00548988 0 0.000835608 0 0)
(0.0776358 0.00545579 0 0.000814208 0 0)
(0.0818902 0.00600493 0 0.000931948 0 0)
(0.0814204 0.00607617 0 0.000933578 0 0)
(0.0851075 0.00701489 0 0.00112849 0 0)
(0.0834411 0.00742771 0 0.00122138 0 0)
(0.0859455 0.00903718 0 0.0016203 0 0)
(0.0823273 0.0101684 0 0.0019972 0 0)
(0.0827073 0.0132076 0 0.00307205 0 0)
(0.0762006 0.0157013 0 0.00439695 0 0)
(0.073346 0.0216257 0 0.00818734 0 0)
(0.0631931 0.0264519 0 0.0139364 0 0)
(0.0579754 0.0371176 0 0.0299957 0 0)
(0.0522533 0.045616 0 0.05433 0 0)
(0.0725499 0.0782279 0 0.116006 0 0)
(0.0153868 0.000279668 0 0.000127526 0 0)
(0.0027686 0.000887578 0 0.000578801 0 0)
(0.000651278 0.000285209 0 0.000640882 0 0)
(0.000502726 0.000451825 0 0.00153426 0 0)
(0.00158615 0.000927015 0 0.00127921 0 0)
(0.00401606 0.002206 0 0.00217979 0 0)
(0.00717241 0.00267914 0 0.00132146 0 0)
(0.0110878 0.0040799 0 0.00204392 0 0)
(0.0148926 0.00339092 0 0.000976934 0 0)
(0.0193073 0.00478208 0 0.00159788 0 0)
(0.0230744 0.00313469 0 0.000727731 0 0)
(0.0274199 0.00504331 0 0.00141023 0 0)
(0.0307471 0.00281736 0 0.000542004 0 0)
(0.0347294 0.00536829 0 0.00140217 0 0)
(0.0376051 0.0026477 0 0.000318247 0 0)
(0.0412685 0.00571508 0 0.00137276 0 0)
(0.0439635 0.00241354 0 0.000265256 0 0)
(0.0478609 0.00610788 0 0.00142022 0 0)
(0.0506474 0.00210276 0 0.000257473 0 0)
(0.0548924 0.00640493 0 0.00127166 0 0)
(0.0578025 0.00173212 0 0.000209148 0 0)
(0.0623535 0.00673399 0 0.00121494 0 0)
(0.0653163 0.00157238 0 0.000210595 0 0)
(0.0699528 0.00723821 0 0.00125966 0 0)
(0.0729132 0.00161319 0 0.00025123 0 0)
(0.0774876 0.00790501 0 0.0012225 0 0)
(0.0803607 0.00189855 0 0.00034264 0 0)
(0.0847211 0.00874424 0 0.00135084 0 0)
(0.0872959 0.00271457 0 0.000440617 0 0)
(0.0912167 0.0101469 0 0.00163153 0 0)
(0.0931918 0.00451222 0 0.000663933 0 0)
(0.0962291 0.0127087 0 0.00230009 0 0)
(0.0969954 0.00830932 0 0.00132498 0 0)
(0.0984953 0.0178928 0 0.00420713 0 0)
(0.0975194 0.0163506 0 0.00367505 0 0)
(0.0975461 0.0290505 0 0.0104746 0 0)
(0.0963648 0.0335359 0 0.0138773 0 0)
(0.0988637 0.0548527 0 0.0359378 0 0)
(0.104728 0.0726325 0 0.0604209 0 0)
(0.110263 0.104598 0 0.122211 0 0)
(0.0153897 0.000335964 0 5.2338e-05 0 0)
(0.00271036 0.000502059 0 0.000207885 0 0)
(0.000672712 0.000227419 0 0.000401621 0 0)
(0.000463243 0.000185608 0 0.000616651 0 0)
(0.00132292 0.000615636 0 0.000897103 0 0)
(0.00325972 0.00132132 0 0.000951297 0 0)
(0.00590686 0.00203805 0 0.00104575 0 0)
(0.00918087 0.00244981 0 0.000851689 0 0)
(0.0125996 0.00284408 0 0.000827406 0 0)
(0.0164698 0.00271155 0 0.00060148 0 0)
(0.020074 0.00299381 0 0.000652464 0 0)
(0.0239241 0.002598 0 0.000477182 0 0)
(0.027126 0.0030365 0 0.0005806 0 0)
(0.0306126 0.0025763 0 0.000358907 0 0)
(0.0333664 0.00314369 0 0.000517481 0 0)
(0.0366292 0.0025952 0 0.000358161 0 0)
(0.0392373 0.00333597 0 0.000516595 0 0)
(0.0426008 0.00258818 0 0.000366208 0 0)
(0.0452734 0.00341393 0 0.000464029 0 0)
(0.048996 0.00251521 0 0.000338821 0 0)
(0.051869 0.0034369 0 0.000404609 0 0)
(0.0560443 0.00250076 0 0.000294703 0 0)
(0.0588746 0.00358936 0 0.000389293 0 0)
(0.0632649 0.00269096 0 0.00035809 0 0)
(0.0659836 0.0038866 0 0.000409654 0 0)
(0.070547 0.00309458 0 0.000359807 0 0)
(0.0730287 0.00437276 0 0.000430534 0 0)
(0.077712 0.00379086 0 0.000491951 0 0)
(0.0798355 0.00527784 0 0.000544001 0 0)
(0.0844507 0.00522097 0 0.000697177 0 0)
(0.086029 0.00707108 0 0.000851252 0 0)
(0.0903554 0.00802919 0 0.00120195 0 0)
(0.0911193 0.0108568 0 0.00173404 0 0)
(0.0949744 0.0139044 0 0.00280398 0 0)
(0.0950114 0.0190246 0 0.00472405 0 0)
(0.09893 0.0262048 0 0.00838449 0 0)
(0.0997459 0.0361598 0 0.0156696 0 0)
(0.105535 0.0502428 0 0.0287271 0 0)
(0.108748 0.0671068 0 0.05157 0 0)
(0.112598 0.0831809 0 0.0782859 0 0)
(0.0154499 0.00014426 0 3.06092e-05 0 0)
(0.00268314 0.000352739 0 0.000145091 0 0)
(0.00068406 8.4152e-05 0 0.000184476 0 0)
(0.000446893 7.53884e-05 0 0.000377527 0 0)
(0.00119307 0.000330458 0 0.00040069 0 0)
(0.00280303 0.000854452 0 0.000604288 0 0)
(0.00512785 0.00122443 0 0.000459623 0 0)
(0.00796171 0.00172907 0 0.000579444 0 0)
(0.0111786 0.00165706 0 0.000348222 0 0)
(0.0146286 0.00207296 0 0.000441095 0 0)
(0.0181775 0.00161997 0 0.000250953 0 0)
(0.0216144 0.0021375 0 0.000359972 0 0)
(0.0248546 0.00150606 0 0.000207038 0 0)
(0.0279413 0.00223067 0 0.000348272 0 0)
(0.0307576 0.00152288 0 0.000169081 0 0)
(0.0335356 0.00240159 0 0.000327424 0 0)
(0.0362083 0.00147804 0 0.000152589 0 0)
(0.0390897 0.00247661 0 0.000334122 0 0)
(0.041831 0.00144979 0 0.000189733 0 0)
(0.0450412 0.00255488 0 0.000298212 0 0)
(0.0480353 0.00141124 0 0.000137631 0 0)
(0.0516605 0.00261884 0 0.000287239 0 0)
(0.0547192 0.00143025 0 0.000141864 0 0)
(0.0584739 0.00287012 0 0.000310042 0 0)
(0.0614738 0.00165474 0 0.000201595 0 0)
(0.0653582 0.00326514 0 0.00031791 0 0)
(0.0682241 0.00211678 0 0.000223998 0 0)
(0.0722386 0.00392515 0 0.000420086 0 0)
(0.0749664 0.0029902 0 0.000323619 0 0)
(0.0789801 0.00528238 0 0.000596837 0 0)
(0.0814709 0.00483892 0 0.000579679 0 0)
(0.085521 0.00798041 0 0.00110814 0 0)
(0.0877677 0.00872654 0 0.0013418 0 0)
(0.0919288 0.0137231 0 0.00268931 0 0)
(0.0942589 0.0168888 0 0.0039938 0 0)
(0.0995226 0.025601 0 0.00802425 0 0)
(0.103595 0.033514 0 0.0131656 0 0)
(0.112498 0.0493601 0 0.0254767 0 0)
(0.120193 0.0658035 0 0.0420523 0 0)
(0.12611 0.0893412 0 0.0730176 0 0)
(0.015436 0.000125929 0 2.6599e-05 0 0)
(0.00263315 0.000160438 0 7.92349e-05 0 0)
(0.000703075 5.71598e-05 0 0.000107424 0 0)
(0.000478474 9.06547e-06 0 0.0001365 0 0)
(0.00112057 0.000171911 0 0.000196929 0 0)
(0.00252517 0.000445559 0 0.000218767 0 0)
(0.00460941 0.000736166 0 0.000230906 0 0)
(0.00722401 0.000893587 0 0.000206137 0 0)
(0.0102144 0.00104731 0 0.000187765 0 0)
(0.0135149 0.00103441 0 0.000152546 0 0)
(0.0168526 0.00112607 0 0.000155821 0 0)
(0.0202051 0.00102895 0 0.000135781 0 0)
(0.0232699 0.00114224 0 0.000136359 0 0)
(0.026269 0.00104763 0 0.000113244 0 0)
(0.0288866 0.00117229 0 0.000129855 0 0)
(0.0316411 0.0010708 0 0.00011656 0 0)
(0.0341248 0.00121013 0 0.000120594 0 0)
(0.0369659 0.00107959 0 0.000122577 0 0)
(0.039474 0.0012284 0 0.000121478 0 0)
(0.0426259 0.00111218 0 0.000114289 0 0)
(0.0453805 0.00126499 0 0.000106428 0 0)
(0.049004 0.00118578 0 0.00011813 0 0)
(0.0518806 0.00135759 0 0.000103445 0 0)
(0.0556256 0.00136924 0 0.000136194 0 0)
(0.0584149 0.00158487 0 0.000139022 0 0)
(0.0623669 0.00174814 0 0.00016328 0 0)
(0.0650261 0.00206431 0 0.00016109 0 0)
(0.0691694 0.00240862 0 0.000234042 0 0)
(0.0717898 0.00294846 0 0.000272782 0 0)
(0.0761063 0.00372713 0 0.000384855 0 0)
(0.0786326 0.00481483 0 0.000526661 0 0)
(0.0832866 0.0063629 0 0.000817484 0 0)
(0.0859877 0.00855882 0 0.00128313 0 0)
(0.091382 0.0117809 0 0.00215181 0 0)
(0.0949489 0.0163008 0 0.00375274 0 0)
(0.102408 0.0230178 0 0.00657394 0 0)
(0.109002 0.0324088 0 0.0118095 0 0)
(0.121286 0.0460069 0 0.0205965 0 0)
(0.131576 0.0633053 0 0.0353295 0 0)
(0.136019 0.0811557 0 0.0560575 0 0)
(0.015482 0.000145858 0 5.64985e-05 0 0)
(0.00266644 -4.01458e-05 0 7.92632e-05 0 0)
(0.000827408 1.89507e-05 0 8.52488e-05 0 0)
(0.000571903 -4.16937e-05 0 7.55483e-05 0 0)
(0.00114501 4.70522e-05 0 0.00010356 0 0)
(0.00244256 8.39299e-05 0 6.10033e-05 0 0)
(0.00446848 0.000305725 0 0.000105669 0 0)
(0.00691491 0.00012716 0 5.87743e-05 0 0)
(0.00991953 0.000493169 0 9.61582e-05 0 0)
(0.0130147 6.04756e-05 0 5.64563e-05 0 0)
(0.0164575 0.000646177 0 9.70983e-05 0 0)
(0.019552 -3.10118e-05 0 6.19908e-05 0 0)
(0.0228033 0.000731341 0 9.54965e-05 0 0)
(0.0255047 -0.000120346 0 5.58474e-05 0 0)
(0.0283618 0.000776267 0 9.54886e-05 0 0)
(0.0307469 -0.000157689 0 6.0811e-05 0 0)
(0.0335 0.000784064 0 9.39103e-05 0 0)
(0.0359431 -0.000288754 0 6.29196e-05 0 0)
(0.0387998 0.000820256 0 9.26795e-05 0 0)
(0.0414976 -0.000307343 0 6.58308e-05 0 0)
(0.0446439 0.000956053 0 9.41596e-05 0 0)
(0.0477395 -0.000237181 0 6.85514e-05 0 0)
(0.0510686 0.00106967 0 9.60884e-05 0 0)
(0.0542726 -0.00015254 0 6.96113e-05 0 0)
(0.0576076 0.00130924 0 0.000108465 0 0)
(0.0609716 0.00014066 0 8.61819e-05 0 0)
(0.0642698 0.00172863 0 0.000134181 0 0)
(0.0678167 0.000771012 0 0.000122133 0 0)
(0.0712367 0.00256454 0 0.000210871 0 0)
(0.0750517 0.00201264 0 0.000220691 0 0)
(0.0786083 0.00434029 0 0.000429681 0 0)
(0.0829497 0.00452228 0 0.000532599 0 0)
(0.0871144 0.00784151 0 0.00107698 0 0)
(0.0926563 0.00950964 0 0.00155509 0 0)
(0.0984511 0.0149001 0 0.00308569 0 0)
(0.107075 0.0196562 0 0.00496502 0 0)
(0.116966 0.0296331 0 0.00949746 0 0)
(0.131384 0.0406526 0 0.0157263 0 0)
(0.144919 0.0580561 0 0.0275593 0 0)
(0.149505 0.0744035 0 0.0433657 0 0)
(0.0154115 -6.86779e-06 0 2.78091e-05 0 0)
(0.00263302 -0.000171888 0 0.000107529 0 0)
(0.000732282 -7.46369e-05 0 0.000123763 0 0)
(0.000519865 -9.68679e-05 0 0.000125276 0 0)
(0.00110778 -0.00011055 0 9.43418e-05 0 0)
(0.00243146 -0.000206745 0 9.80037e-05 0 0)
(0.00439518 -0.00022799 0 8.63637e-05 0 0)
(0.00692793 -0.000394727 0 0.00011192 0 0)
(0.00980646 -0.000306854 0 8.84909e-05 0 0)
(0.0131349 -0.00046421 0 9.4019e-05 0 0)
(0.0163405 -0.000255809 0 8.06202e-05 0 0)
(0.0196899 -0.000426639 0 9.36762e-05 0 0)
(0.0226264 -0.000247177 0 7.65903e-05 0 0)
(0.0256477 -0.000418201 0 9.25765e-05 0 0)
(0.0281379 -0.000323202 0 8.62368e-05 0 0)
(0.0309077 -0.000440865 0 9.72557e-05 0 0)
(0.0332613 -0.000416119 0 9.26437e-05 0 0)
(0.0361533 -0.000464366 0 8.71215e-05 0 0)
(0.0386061 -0.000438969 0 8.5348e-05 0 0)
(0.0417711 -0.00035992 0 8.34469e-05 0 0)
(0.0444668 -0.000386269 0 9.31154e-05 0 0)
(0.0480276 -0.000169055 0 9.60484e-05 0 0)
(0.0509018 -0.000347265 0 9.82817e-05 0 0)
(0.0546287 3.65741e-05 0 9.74747e-05 0 0)
(0.0574989 -0.000242971 0 9.2702e-05 0 0)
(0.061421 0.000443884 0 0.000102688 0 0)
(0.0643036 6.80214e-05 0 0.000108521 0 0)
(0.0685006 0.00120508 0 0.000150754 0 0)
(0.0715566 0.000805005 0 0.00015569 0 0)
(0.0761866 0.00257428 0 0.000271175 0 0)
(0.0794713 0.00243045 0 0.000302175 0 0)
(0.0848717 0.00517595 0 0.000606796 0 0)
(0.089027 0.00563212 0 0.00078993 0 0)
(0.0960708 0.00999757 0 0.0015911 0 0)
(0.10241 0.0118117 0 0.00226068 0 0)
(0.11347 0.0190483 0 0.0043572 0 0)
(0.125157 0.0236932 0 0.0064906 0 0)
(0.143191 0.036621 0 0.0121463 0 0)
(0.160396 0.0479452 0 0.0192713 0 0)
(0.165244 0.0725349 0 0.0388346 0 0)
(0.0153654 6.25219e-05 0 0.000238199 0 0)
(0.0027055 -0.000670693 0 0.000920838 0 0)
(0.000745457 -0.000108632 0 0.000410265 0 0)
(0.000531051 -0.000290494 0 0.000796374 0 0)
(0.00110956 -0.000243317 0 0.000489375 0 0)
(0.00257828 -0.00077488 0 0.000917497 0 0)
(0.00461304 -0.000515185 0 0.000419449 0 0)
(0.00734487 -0.00163956 0 0.00100942 0 0)
(0.0102914 -0.000408773 0 0.000367859 0 0)
(0.0138136 -0.00225856 0 0.00087991 0 0)
(0.0170121 2.6842e-05 0 0.000355512 0 0)
(0.0205282 -0.00269025 0 0.000799232 0 0)
(0.0234685 0.000439373 0 0.00034797 0 0)
(0.0266341 -0.00315677 0 0.000826406 0 0)
(0.0291653 0.000678159 0 0.000279627 0 0)
(0.0320433 -0.00357555 0 0.000885413 0 0)
(0.0344755 0.000868311 0 0.000247992 0 0)
(0.0374162 -0.00394776 0 0.000890991 0 0)
(0.0400294 0.0011773 0 0.000240948 0 0)
(0.0432072 -0.00426131 0 0.000837515 0 0)
(0.0461403 0.00162094 0 0.000239891 0 0)
(0.0495907 -0.00455916 0 0.000798773 0 0)
(0.0527689 0.00203878 0 0.000255915 0 0)
(0.056345 -0.00492727 0 0.000768292 0 0)
(0.0596772 0.0025112 0 0.000264346 0 0)
(0.0633742 -0.00510261 0 0.00069884 0 0)
(0.066895 0.00317785 0 0.000305714 0 0)
(0.0707998 -0.00490267 0 0.000635033 0 0)
(0.074677 0.0042436 0 0.000405093 0 0)
(0.0790223 -0.00408029 0 0.000552019 0 0)
(0.0834086 0.00607712 0 0.000671594 0 0)
(0.0885654 -0.0020595 0 0.000533425 0 0)
(0.0941758 0.00939099 0 0.00130909 0 0)
(0.101169 0.00193702 0 0.000872253 0 0)
(0.109389 0.0152234 0 0.00287847 0 0)
(0.120559 0.00906568 0 0.00222461 0 0)
(0.134933 0.0248487 0 0.00617646 0 0)
(0.155604 0.020294 0 0.00553679 0 0)
(0.182682 0.0400995 0 0.0122999 0 0)
(0.19901 0.0415868 0 0.0146339 0 0)
(0.0153667 -0.000116656 0 7.30291e-05 0 0)
(0.00297135 -0.000685682 0 0.000339536 0 0)
(0.000915967 -0.000125116 0 0.000229841 0 0)
(0.000717563 -0.000342438 0 0.000550729 0 0)
(0.00128653 -0.000382737 0 0.000423488 0 0)
(0.00302425 -0.00116027 0 0.000862916 0 0)
(0.00525905 -0.00114841 0 0.000432245 0 0)
(0.00841594 -0.00222111 0 0.00090772 0 0)
(0.0114837 -0.00136151 0 0.000330225 0 0)
(0.0153852 -0.00276927 0 0.000759917 0 0)
(0.0185747 -0.0010779 0 0.000266661 0 0)
(0.0225109 -0.00303946 0 0.000663313 0 0)
(0.0252773 -0.000721302 0 0.000236304 0 0)
(0.0289101 -0.00335419 0 0.000677511 0 0)
(0.0312356 -0.000515755 0 0.00017391 0 0)
(0.034584 -0.00369395 0 0.000719176 0 0)
(0.0368287 -0.000348078 0 0.000144244 0 0)
(0.0403134 -0.00397275 0 0.000721915 0 0)
(0.0427001 -5.5838e-05 0 0.000136307 0 0)
(0.0464663 -0.00417921 0 0.000672918 0 0)
(0.0491206 0.000344544 0 0.00013125 0 0)
(0.0531621 -0.00439832 0 0.000634562 0 0)
(0.0560431 0.00072462 0 0.00012911 0 0)
(0.0602855 -0.00467222 0 0.000611084 0 0)
(0.0633493 0.00117362 0 0.000140882 0 0)
(0.0677289 -0.00478431 0 0.000547343 0 0)
(0.0710802 0.00184559 0 0.000178211 0 0)
(0.0756838 -0.00456582 0 0.000482493 0 0)
(0.0795041 0.0029623 0 0.000276332 0 0)
(0.0845894 -0.00377556 0 0.000391464 0 0)
(0.0891917 0.00483686 0 0.000532214 0 0)
(0.0951663 -0.00189424 0 0.000368035 0 0)
(0.101278 0.00816649 0 0.00108794 0 0)
(0.109183 0.00174771 0 0.000619218 0 0)
(0.11825 0.0137052 0 0.0023947 0 0)
(0.13017 0.00775786 0 0.00167504 0 0)
(0.1448 0.02193 0 0.00493193 0 0)
(0.164141 0.0157412 0 0.00397639 0 0)
(0.189333 0.0331582 0 0.00897829 0 0)
(0.2417 0.0307258 0 0.0091724 0 0)
(0.0153464 -0.000321468 0 2.12339e-05 0 0)
(0.00279071 -0.000413742 0 0.000148054 0 0)
(0.000698925 -0.000269783 0 0.000340062 0 0)
(0.000506041 -0.000203235 0 0.000558212 0 0)
(0.00131732 -0.000684089 0 0.000904057 0 0)
(0.00330873 -0.0013546 0 0.000880738 0 0)
(0.00595005 -0.00212805 0 0.00104651 0 0)
(0.00931347 -0.00244159 0 0.000759037 0 0)
(0.0127841 -0.00296875 0 0.000839107 0 0)
(0.0167375 -0.00272976 0 0.000546873 0 0)
(0.0203283 -0.00316793 0 0.000656016 0 0)
(0.0242089 -0.00262136 0 0.000427355 0 0)
(0.027364 -0.00320754 0 0.000562648 0 0)
(0.0308873 -0.00254446 0 0.000342962 0 0)
(0.0336421 -0.0033609 0 0.000516243 0 0)
(0.0368931 -0.0025651 0 0.000284799 0 0)
(0.0395704 -0.00351901 0 0.00051944 0 0)
(0.0429814 -0.00253366 0 0.000261983 0 0)
(0.0458057 -0.00359276 0 0.000495457 0 0)
(0.0495467 -0.0024006 0 0.000226508 0 0)
(0.0525884 -0.00369131 0 0.000461263 0 0)
(0.0566487 -0.00228741 0 0.000163086 0 0)
(0.0598729 -0.00384238 0 0.000440644 0 0)
(0.0642091 -0.00218928 0 0.000147053 0 0)
(0.067586 -0.00398653 0 0.000446377 0 0)
(0.0721963 -0.00194442 0 0.000121532 0 0)
(0.0758192 -0.00392605 0 0.000427023 0 0)
(0.0808441 -0.00142305 0 0.000115908 0 0)
(0.0848837 -0.00344478 0 0.000391644 0 0)
(0.0906062 -0.000373137 0 0.000113749 0 0)
(0.0954643 -0.00222469 0 0.000416639 0 0)
(0.102375 0.00164682 0 0.000228517 0 0)
(0.10875 0.000337571 0 0.000588024 0 0)
(0.117842 0.00526686 0 0.000627267 0 0)
(0.127091 0.00481965 0 0.00125248 0 0)
(0.140334 0.0110845 0 0.00174147 0 0)
(0.155327 0.0120393 0 0.00303021 0 0)
(0.178327 0.0210873 0 0.00457225 0 0)
(0.210214 0.0274047 0 0.00800917 0 0)
(0.282414 0.0520032 0 0.0140712 0 0)
(0.0151771 -0.000385988 0 2.97733e-05 0 0)
(0.0029581 -0.000729629 0 0.000211883 0 0)
(0.000526054 -0.000297755 0 0.000552013 0 0)
(0.000536641 -0.000473516 0 0.00113504 0 0)
(0.00147843 -0.000937037 0 0.00142108 0 0)
(0.0040754 -0.00216041 0 0.00168333 0 0)
(0.00699035 -0.00286935 0 0.00149936 0 0)
(0.0112106 -0.00374747 0 0.00143611 0 0)
(0.0146527 -0.00384483 0 0.00115798 0 0)
(0.0195012 -0.00422079 0 0.00109095 0 0)
(0.0228426 -0.00394458 0 0.000884213 0 0)
(0.0276208 -0.00420047 0 0.000877113 0 0)
(0.0304492 -0.00387664 0 0.000717226 0 0)
(0.0348227 -0.00419996 0 0.000728819 0 0)
(0.0372382 -0.00392152 0 0.000592366 0 0)
(0.0413464 -0.00429028 0 0.000658146 0 0)
(0.043722 -0.00397336 0 0.000550572 0 0)
(0.0479563 -0.00432636 0 0.000623714 0 0)
(0.0505445 -0.00392705 0 0.000507457 0 0)
(0.055044 -0.0043113 0 0.000565414 0 0)
(0.0578929 -0.00389185 0 0.000426657 0 0)
(0.0626405 -0.00434463 0 0.000487872 0 0)
(0.065729 -0.0039023 0 0.000353886 0 0)
(0.0706621 -0.00441679 0 0.000447267 0 0)
(0.0740214 -0.00388212 0 0.000347224 0 0)
(0.0791122 -0.00439144 0 0.000434242 0 0)
(0.0828499 -0.00369405 0 0.000320852 0 0)
(0.0882673 -0.00411743 0 0.000384827 0 0)
(0.092599 -0.00315403 0 0.000283504 0 0)
(0.0986108 -0.00333551 0 0.00032368 0 0)
(0.103962 -0.00196221 0 0.000264214 0 0)
(0.111119 -0.00166624 0 0.000358895 0 0)
(0.118185 0.000440282 0 0.000369579 0 0)
(0.127431 0.00158297 0 0.000598558 0 0)
(0.137604 0.00490583 0 0.000904458 0 0)
(0.151139 0.00752476 0 0.00151949 0 0)
(0.167799 0.0131278 0 0.00251116 0 0)
(0.191467 0.0186275 0 0.00403963 0 0)
(0.22676 0.0282715 0 0.00645583 0 0)
(0.298667 0.039938 0 0.00971228 0 0)
(0.0150945 -0.000512172 0 5.98296e-05 0 0)
(0.00379803 -0.000837297 0 0.00033681 0 0)
(0.000619955 -0.000263716 0 0.00110886 0 0)
(0.0011363 -0.000847574 0 0.00169736 0 0)
(0.00200191 -0.00116078 0 0.00254849 0 0)
(0.00601689 -0.00325142 0 0.00233197 0 0)
(0.00841736 -0.00383293 0 0.00253813 0 0)
(0.0152324 -0.00511489 0 0.00191271 0 0)
(0.0167037 -0.00515887 0 0.00197902 0 0)
(0.0251494 -0.00542301 0 0.00144742 0 0)
(0.0251181 -0.00535129 0 0.00158742 0 0)
(0.0343402 -0.00521755 0 0.00114744 0 0)
(0.0327542 -0.00532585 0 0.00134057 0 0)
(0.0421424 -0.00510736 0 0.000898199 0 0)
(0.0393568 -0.00538916 0 0.00116892 0 0)
(0.0489046 -0.00505894 0 0.000766458 0 0)
(0.0454765 -0.0054561 0 0.00109919 0 0)
(0.0554232 -0.00492956 0 0.00071765 0 0)
(0.0516537 -0.00543763 0 0.00101825 0 0)
(0.0620277 -0.00474887 0 0.000638388 0 0)
(0.0579724 -0.00545133 0 0.000903988 0 0)
(0.0686362 -0.00464452 0 0.000516014 0 0)
(0.0643605 -0.00550682 0 0.000793792 0 0)
(0.075101 -0.00456698 0 0.000457633 0 0)
(0.0707797 -0.0055529 0 0.000773639 0 0)
(0.0813832 -0.0044273 0 0.000453361 0 0)
(0.0772722 -0.00545337 0 0.000725121 0 0)
(0.0876786 -0.00407765 0 0.000411951 0 0)
(0.0841755 -0.005076 0 0.000640722 0 0)
(0.0943858 -0.0033471 0 0.000334685 0 0)
(0.0920729 -0.00416573 0 0.000549637 0 0)
(0.102372 -0.00189766 0 0.000336455 0 0)
(0.102112 -0.00227921 0 0.000527949 0 0)
(0.113168 0.000959116 0 0.000502057 0 0)
(0.116503 0.00160621 0 0.000798582 0 0)
(0.130158 0.00664017 0 0.00129167 0 0)
(0.140327 0.0092501 0 0.00197273 0 0)
(0.161785 0.0169905 0 0.00339107 0 0)
(0.189609 0.0219099 0 0.00451084 0 0)
(0.253067 0.0309622 0 0.00656565 0 0)
(0.0150717 -0.000697729 0 5.96348e-05 0 0)
(0.00389209 -0.00131949 0 0.000570554 0 0)
(0.000698634 -0.000470239 0 0.0017262 0 0)
(0.00150479 -0.00154773 0 0.00290801 0 0)
(0.00281408 -0.00186538 0 0.00384378 0 0)
(0.00838571 -0.00501735 0 0.00378627 0 0)
(0.0105218 -0.00520347 0 0.00373781 0 0)
(0.019283 -0.00728594 0 0.00308319 0 0)
(0.0183714 -0.00641482 0 0.00294069 0 0)
(0.028764 -0.00726011 0 0.00235426 0 0)
(0.024373 -0.00606002 0 0.00234059 0 0)
(0.0355805 -0.00661165 0 0.00179493 0 0)
(0.0281418 -0.00550309 0 0.00190301 0 0)
(0.0394505 -0.00609066 0 0.00136763 0 0)
(0.0298372 -0.00504695 0 0.00163438 0 0)
(0.0411158 -0.00552532 0 0.00114396 0 0)
(0.0302775 -0.00456435 0 0.00149819 0 0)
(0.0415288 -0.00485435 0 0.00100263 0 0)
(0.0300415 -0.00405051 0 0.0013613 0 0)
(0.0411017 -0.00418432 0 0.00083375 0 0)
(0.0293009 -0.00360631 0 0.0011958 0 0)
(0.0399217 -0.00359267 0 0.000661206 0 0)
(0.0281566 -0.00323777 0 0.00104971 0 0)
(0.0381456 -0.00301642 0 0.000563346 0 0)
(0.0267905 -0.00286081 0 0.000974791 0 0)
(0.0359539 -0.00240467 0 0.000534977 0 0)
(0.0253717 -0.00245553 0 0.000879688 0 0)
(0.0336753 -0.00171765 0 0.000474339 0 0)
(0.0242239 -0.00199233 0 0.000742901 0 0)
(0.0317064 -0.000919955 0 0.000391501 0 0)
(0.0237744 -0.0013889 0 0.000601456 0 0)
(0.0307004 0.000131038 0 0.000356251 0 0)
(0.0246891 -0.000501493 0 0.000497231 0 0)
(0.0316476 0.00174968 0 0.000459853 0 0)
(0.0282317 0.00114038 0 0.000547765 0 0)
(0.036528 0.00474493 0 0.00104723 0 0)
(0.037162 0.0047542 0 0.00127036 0 0)
(0.0497336 0.0112581 0 0.00317838 0 0)
(0.0598964 0.0133171 0 0.00393017 0 0)
(0.0930967 0.0241555 0 0.00719182 0 0)
(0.0151327 -0.000927673 0 8.87343e-05 0 0)
(0.00310513 -0.00165901 0 0.000950123 0 0)
(0.000569252 -0.00103458 0 0.00275893 0 0)
(0.00122156 -0.00195721 0 0.00460436 0 0)
(0.00323736 -0.00295614 0 0.00572785 0 0)
(0.00713976 -0.00547886 0 0.00573841 0 0)
(0.00806547 -0.0053428 0 0.00537086 0 0)
(0.0102845 -0.0060595 0 0.00461036 0 0)
(0.00780691 -0.00411443 0 0.004013 0 0)
(0.00871209 -0.00384703 0 0.00321409 0 0)
(0.00546955 -0.00167659 0 0.00270191 0 0)
(0.00583135 -0.0017264 0 0.00206805 0 0)
(0.00406074 0.000206115 0 0.0018095 0 0)
(0.00391499 -0.000190508 0 0.00139748 0 0)
(0.00557512 0.00167362 0 0.00134475 0 0)
(0.00469933 0.00106544 0 0.00105542 0 0)
(0.0110036 0.0028431 0 0.00108139 0 0)
(0.00889111 0.00200981 0 0.000822008 0 0)
(0.0202572 0.00369573 0 0.00086916 0 0)
(0.0164182 0.00265987 0 0.000628817 0 0)
(0.0328094 0.00431099 0 0.000688134 0 0)
(0.0270162 0.00311152 0 0.000472718 0 0)
(0.048143 0.00476112 0 0.0005528 0 0)
(0.0405516 0.00344451 0 0.000378779 0 0)
(0.0658135 0.00508645 0 0.000469771 0 0)
(0.0567291 0.00364919 0 0.000328734 0 0)
(0.0852195 0.0051965 0 0.000389248 0 0)
(0.0750424 0.00364997 0 0.00027123 0 0)
(0.105622 0.00501435 0 0.000298993 0 0)
(0.0946106 0.00337109 0 0.000213535 0 0)
(0.126016 0.0044371 0 0.000220704 0 0)
(0.114219 0.00267852 0 0.000190266 0 0)
(0.144761 0.00322814 0 0.000175949 0 0)
(0.131882 0.00126433 0 0.000261157 0 0)
(0.159016 0.00106594 0 0.000232784 0 0)