/*--------------------------------*- C++ -*----------------------------------*\
| =========                 |                                                 |
| \\      /  F ield         | OpenFOAM: The Open Source CFD Toolbox           |
|  \\    /   O peration     | Version:  2.4.0                                 |
|   \\  /    A nd           | Web:      www.OpenFOAM.org                      |
|    \\/     M anipulation  |                                                 |
\*---------------------------------------------------------------------------*/
FoamFile
{
    version     2.0;
    format      ascii;
    class       volScalarField;
    location    "0.039";
    object      nut;
}
// * * * * * * * * * * * * * * * * * * * * * * * * * * * * * * * * * * * * * //

dimensions      [0 2 -1 0 0 0 0];

internalField   nonuniform List<scalar> 
17600
(
0.00010783
0.00012451
0.000135993
0.000143228
0.000147274
0.000149058
0.000149311
0.000148581
0.000147257
0.000145609
0.000143819
0.000142008
0.000140255
0.00013861
0.000137104
0.000135752
0.000134561
0.000133527
0.00013263
0.000132021
0.000329173
0.000212655
0.000162185
0.00013586
0.000121229
0.000113025
0.000108733
0.000107059
0.000107297
0.000109044
0.000112053
0.000116155
0.000121216
0.000127109
0.000133698
0.000140833
0.000148347
0.000156065
0.000163871
0.000169484
0.000659514
0.000505622
0.000400841
0.000328641
0.000277966
0.000241566
0.000214856
0.000194963
0.000180061
0.000168962
0.00016088
0.000155282
0.000151805
0.000150191
0.000150254
0.000151844
0.000154826
0.000159064
0.000164382
0.000169666
0.000798066
0.000719144
0.00063947
0.00056817
0.000507729
0.000457532
0.000415973
0.000381395
0.000352386
0.000327824
0.000306848
0.000288812
0.00027324
0.000259793
0.000248236
0.000238415
0.000230232
0.000223615
0.000218412
0.000213888
0.000836034
0.000805282
0.000764927
0.000720394
0.00067586
0.000633741
0.000595094
0.000560169
0.000528805
0.000500655
0.000475318
0.0004524
0.000431545
0.000412444
0.000394846
0.000378552
0.000363413
0.000349312
0.000336054
0.000323159
0.000845497
0.000833333
0.000815252
0.00079227
0.0007661
0.00073842
0.000710527
0.000683286
0.000657208
0.000632544
0.000609372
0.000587659
0.000567314
0.00054821
0.00053021
0.000513175
0.000496973
0.000481471
0.000466472
0.000451713
0.000847815
0.000841759
0.000833143
0.000821665
0.000807553
0.000791359
0.000773738
0.000755308
0.000736577
0.00071793
0.000699633
0.000681856
0.00066469
0.000648175
0.000632308
0.00061706
0.000602381
0.000588205
0.000574415
0.000560921
0.000848382
0.000844198
0.000839116
0.000832753
0.00082492
0.000815628
0.000805039
0.000793399
0.000780981
0.000768051
0.000754839
0.000741534
0.000728282
0.000715189
0.000702327
0.000689738
0.000677442
0.000665437
0.00065369
0.000642219
0.00084852
0.000844889
0.000841035
0.000836725
0.000831764
0.000826029
0.000819477
0.000812137
0.00080409
0.00079545
0.000786341
0.000776887
0.000767203
0.000757387
0.000747522
0.000737671
0.000727885
0.000718196
0.000708618
0.000699225
0.000848553
0.000845082
0.000841635
0.000838096
0.000834345
0.000830269
0.000825787
0.000820851
0.000815449
0.000809598
0.000803336
0.000796716
0.000789799
0.000782645
0.000775315
0.000767861
0.000760331
0.000752764
0.000745192
0.000737705
0.00084856
0.000845133
0.000841817
0.000838556
0.000835284
0.000831931
0.000828429
0.000824725
0.000820777
0.000816564
0.000812078
0.000807326
0.000802327
0.000797105
0.00079169
0.000786112
0.000780404
0.000774596
0.000768717
0.000762853
0.00084856
0.000845146
0.000841871
0.000838706
0.000835616
0.000832561
0.000829497
0.000826382
0.000823178
0.000819856
0.000816392
0.000812773
0.000808994
0.000805056
0.000800966
0.000796736
0.00079238
0.000787914
0.00078336
0.000778789
0.00084856
0.000845148
0.000841885
0.000838752
0.000835729
0.000832792
0.000829914
0.000827067
0.000824224
0.000821357
0.000818445
0.000815468
0.000812413
0.000809271
0.000806035
0.000802704
0.000799282
0.000795773
0.000792187
0.000788582
0.000848559
0.000845147
0.000841887
0.000838765
0.000835766
0.000832874
0.000830072
0.000827342
0.000824664
0.000822019
0.00081939
0.000816758
0.000814109
0.00081143
0.000808713
0.000805948
0.000803133
0.000800264
0.000797346
0.000794424
0.000848558
0.000845146
0.000841887
0.000838767
0.000835776
0.000832901
0.000830129
0.000827448
0.000824844
0.000822303
0.000819811
0.000817356
0.000814924
0.000812503
0.000810084
0.000807657
0.000805216
0.000802755
0.000800272
0.000797808
0.000848557
0.000845145
0.000841885
0.000838767
0.000835778
0.000832908
0.000830148
0.000827487
0.000824914
0.00082242
0.000819994
0.000817625
0.000815304
0.00081302
0.000810766
0.000808532
0.000806311
0.000804096
0.000801885
0.000799712
0.000848557
0.000845144
0.000841884
0.000838765
0.000835777
0.00083291
0.000830154
0.0008275
0.00082494
0.000822466
0.00082007
0.000817742
0.000815476
0.000813263
0.000811095
0.000808966
0.000806869
0.000804798
0.000802748
0.000800754
0.000848557
0.000845143
0.000841883
0.000838764
0.000835776
0.000832909
0.000830154
0.000827504
0.000824949
0.000822484
0.0008201
0.000817791
0.000815551
0.000813372
0.000811249
0.000809176
0.000807146
0.000805153
0.000803195
0.000801304
0.000848556
0.000845143
0.000841883
0.000838763
0.000835775
0.000832908
0.000830154
0.000827504
0.000824952
0.00082249
0.000820111
0.000817811
0.000815582
0.00081342
0.000811318
0.000809271
0.000807275
0.000805323
0.000803413
0.000801577
0.000848556
0.000845143
0.000841882
0.000838763
0.000835774
0.000832908
0.000830153
0.000827504
0.000824952
0.000822491
0.000820115
0.000817818
0.000815593
0.000813437
0.000811344
0.000809308
0.000807325
0.000805391
0.000803501
0.000801688
0.000848556
0.000845143
0.000841882
0.000838763
0.000835774
0.000832908
0.000830153
0.000827504
0.000824952
0.000822491
0.000820115
0.000817818
0.000815593
0.000813437
0.000811344
0.000809308
0.000807325
0.00080539
0.0008035
0.000801686
0.000848556
0.000845143
0.000841883
0.000838763
0.000835775
0.000832908
0.000830154
0.000827504
0.000824952
0.00082249
0.000820111
0.000817811
0.000815582
0.00081342
0.000811318
0.000809271
0.000807274
0.000805322
0.000803411
0.000801572
0.000848557
0.000845143
0.000841883
0.000838764
0.000835776
0.000832909
0.000830154
0.000827504
0.000824949
0.000822484
0.0008201
0.000817791
0.000815551
0.000813372
0.000811249
0.000809175
0.000807145
0.000805152
0.000803191
0.000801295
0.000848557
0.000845144
0.000841884
0.000838765
0.000835777
0.00083291
0.000830154
0.0008275
0.00082494
0.000822466
0.00082007
0.000817742
0.000815476
0.000813263
0.000811095
0.000808966
0.000806869
0.000804796
0.000802742
0.00080074
0.000848557
0.000845145
0.000841885
0.000838767
0.000835778
0.000832908
0.000830148
0.000827487
0.000824914
0.00082242
0.000819994
0.000817625
0.000815304
0.00081302
0.000810766
0.000808531
0.000806309
0.000804093
0.000801877
0.000799693
0.000848558
0.000845146
0.000841887
0.000838767
0.000835776
0.000832901
0.000830129
0.000827448
0.000824844
0.000822303
0.000819811
0.000817356
0.000814923
0.000812503
0.000810084
0.000807657
0.000805214
0.000802751
0.000800261
0.000797782
0.000848559
0.000845147
0.000841887
0.000838765
0.000835766
0.000832874
0.000830072
0.000827342
0.000824664
0.000822019
0.00081939
0.000816758
0.000814109
0.00081143
0.000808712
0.000805947
0.00080313
0.000800259
0.000797331
0.000794392
0.00084856
0.000845148
0.000841885
0.000838752
0.000835729
0.000832792
0.000829914
0.000827067
0.000824224
0.000821357
0.000818445
0.000815468
0.000812413
0.00080927
0.000806034
0.000802703
0.000799278
0.000795765
0.000792169
0.000788545
0.00084856
0.000845146
0.000841871
0.000838706
0.000835616
0.000832561
0.000829497
0.000826382
0.000823178
0.000819856
0.000816392
0.000812773
0.000808994
0.000805056
0.000800965
0.000796733
0.000792375
0.000787904
0.000783338
0.00077875
0.00084856
0.000845133
0.000841817
0.000838556
0.000835284
0.000831931
0.000828429
0.000824725
0.000820777
0.000816564
0.000812078
0.000807326
0.000802327
0.000797104
0.000791688
0.000786108
0.000780397
0.000774584
0.000768695
0.000762825
0.000848553
0.000845082
0.000841635
0.000838096
0.000834345
0.000830269
0.000825787
0.000820851
0.000815449
0.000809598
0.000803336
0.000796716
0.000789798
0.000782644
0.000775312
0.000767855
0.000760321
0.00075275
0.000745173
0.000737711
0.00084852
0.000844889
0.000841035
0.000836725
0.000831764
0.000826029
0.000819477
0.000812137
0.00080409
0.00079545
0.000786341
0.000776887
0.000767202
0.000757385
0.000747517
0.000737664
0.000727873
0.000718182
0.000708613
0.000699314
0.000848382
0.000844198
0.000839116
0.000832753
0.00082492
0.000815628
0.000805039
0.000793399
0.000780981
0.000768051
0.000754839
0.000741534
0.000728281
0.000715186
0.000702321
0.000689728
0.000677427
0.000665425
0.000653715
0.00064248
0.000847815
0.000841759
0.000833143
0.000821665
0.000807553
0.000791359
0.000773739
0.000755308
0.000736577
0.00071793
0.000699633
0.000681855
0.000664688
0.000648171
0.000632301
0.000617047
0.000602363
0.000588199
0.000574501
0.00056151
0.000845497
0.000833333
0.000815252
0.00079227
0.0007661
0.000738421
0.000710527
0.000683286
0.000657208
0.000632544
0.000609371
0.000587658
0.000567311
0.000548205
0.0005302
0.000513159
0.000496953
0.000481477
0.000466655
0.000452847
0.000836034
0.000805282
0.000764927
0.000720395
0.00067586
0.000633741
0.000595094
0.00056017
0.000528805
0.000500655
0.000475318
0.000452399
0.000431542
0.000412438
0.000394836
0.000378536
0.000363395
0.000349332
0.000336321
0.000324853
0.000798066
0.000719144
0.000639471
0.000568171
0.000507729
0.000457533
0.000415974
0.000381395
0.000352386
0.000327824
0.000306848
0.000288811
0.000273238
0.000259789
0.000248228
0.000238404
0.000230221
0.000223632
0.000218614
0.000215469
0.000659514
0.000505623
0.000400841
0.000328642
0.000277966
0.000241566
0.000214856
0.000194963
0.000180061
0.000168963
0.00016088
0.000155282
0.000151804
0.00015019
0.000150252
0.00015184
0.000154822
0.000159069
0.000164434
0.000170904
0.000329173
0.000212655
0.000162185
0.00013586
0.000121229
0.000113025
0.000108733
0.000107059
0.000107297
0.000109044
0.000112053
0.000116155
0.000121216
0.000127109
0.000133698
0.000140832
0.000148346
0.000156071
0.000163834
0.0001716
0.00010783
0.00012451
0.000135993
0.000143228
0.000147274
0.000149058
0.000149311
0.000148581
0.000147257
0.000145609
0.000143819
0.000142008
0.000140255
0.000138609
0.000137103
0.00013575
0.000134558
0.000133524
0.000132643
0.000131877
0.000169889
0.000219759
0.000277636
0.000340167
0.000403645
0.000465599
0.000525157
0.000582482
0.000638235
0.000693153
0.000747814
0.000802593
0.000857713
0.000913343
0.000969644
0.00102678
0.0010849
0.00114418
0.00120476
0.00126679
0.00133037
0.00139559
0.00146254
0.00153127
0.00160185
0.00167431
0.00174868
0.00182498
0.00190324
0.00198348
0.00206575
0.00215012
0.00223669
0.00232562
0.00241711
0.00251142
0.00260886
0.00270983
0.00281475
0.00292414
0.00303855
0.00315859
0.00328488
0.00341808
0.00355883
0.00370773
0.00386532
0.00403204
0.00420821
0.00439397
0.00458926
0.00479378
0.00500703
0.0052282
0.00545627
0.00568998
0.00592786
0.00616829
0.00640952
0.00664973
0.00688711
0.00711988
0.00734635
0.00756496
0.0077743
0.00797316
0.00816049
0.00833547
0.00849742
0.00864587
0.00878047
0.00890102
0.00900734
0.00909933
0.0091772
0.00924113
0.00929135
0.00932808
0.00935162
0.00936227
0.00936037
0.00934626
0.00932031
0.00928292
0.00923477
0.00917633
0.00910806
0.00903043
0.00894391
0.00884899
0.00874615
0.00863589
0.0085187
0.00839505
0.00826542
0.00813029
0.0079901
0.0078453
0.00769634
0.00754363
0.00738759
0.00722864
0.00706716
0.00690353
0.00673813
0.00657132
0.00640344
0.00623484
0.00606584
0.00589675
0.00572787
0.00555949
0.0053919
0.00522535
0.00506009
0.00489638
0.00473443
0.00457447
0.00441671
0.00426133
0.00410852
0.00395847
0.00381132
0.00366723
0.00352635
0.0033888
0.00325472
0.00312421
0.00299737
0.0028743
0.00275509
0.0026398
0.0025285
0.00242125
0.00231809
0.00221906
0.00212417
0.00203344
0.00194688
0.00186447
0.00178619
0.00171201
0.00164188
0.00157575
0.00151355
0.0014552
0.00140061
0.00134967
0.00130229
0.00125833
0.00121768
0.00118019
0.00114574
0.00111418
0.00108537
0.00105917
0.00103544
0.00101405
0.000994862
0.000977757
0.000962623
0.000949356
0.000937865
0.00092807
0.000919907
0.000913322
0.00090828
0.000904754
0.000902602
0.000901816
0.000902449
0.000904583
0.000908331
0.000913829
0.000921252
0.000930815
0.000942782
0.00095748
0.000975314
0.000996779
0.00102249
0.00105319
0.00108981
0.00113348
0.00118558
0.00124784
0.00132235
0.00141175
0.00151942
0.0016498
0.00180913
0.00200651
0.00225565
0.00257544
0.0029837
0.00347147
0.00395585
0.00418176
0.00368949
0.000810393
0.000174783
0.000184333
0.000199814
0.000222588
0.00025311
0.000290992
0.00033513
0.000383973
0.000435852
0.000489285
0.000543192
0.000596967
0.000650426
0.000703682
0.000756992
0.000810629
0.000864815
0.000919698
0.000975378
0.00103193
0.00108945
0.00114803
0.00120777
0.0012688
0.00133121
0.00139512
0.0014606
0.00152772
0.00159656
0.00166718
0.00173969
0.0018142
0.00189084
0.00196979
0.00205126
0.00213551
0.00222287
0.00231368
0.00240838
0.00250746
0.00261145
0.00272094
0.00283656
0.00295897
0.00308882
0.00322678
0.00337343
0.00352933
0.00369489
0.00387039
0.00405594
0.00425143
0.00445651
0.0046706
0.00489282
0.00512208
0.00535705
0.00559617
0.00583777
0.00608002
0.00632109
0.00655911
0.00679228
0.00701891
0.00723745
0.0074465
0.00764489
0.00783162
0.00800587
0.00816704
0.00831466
0.00844844
0.00856815
0.00867363
0.00876494
0.00884219
0.00890553
0.00895514
0.00899126
0.00901416
0.00902414
0.00902154
0.00900668
0.00898006
0.00894229
0.00889383
0.00883514
0.00876667
0.00868892
0.00860236
0.0085075
0.00840482
0.00829484
0.00817803
0.00805489
0.0079259
0.00779152
0.00765223
0.00750847
0.00736067
0.00720929
0.00705472
0.00689739
0.00673768
0.00657598
0.00641267
0.00624811
0.00608265
0.00591661
0.00575034
0.00558413
0.0054183
0.00525312
0.00508888
0.00492583
0.00476423
0.00460432
0.00444632
0.00429044
0.0041369
0.00398589
0.00383758
0.00369215
0.00354976
0.00341056
0.00327469
0.00314227
0.00301344
0.0028883
0.00276695
0.00264948
0.00253597
0.00242649
0.00232109
0.00221984
0.00212276
0.00202989
0.00194123
0.00185679
0.00177655
0.00170051
0.00162861
0.00156081
0.00149705
0.00143726
0.00138133
0.00132919
0.0012807
0.00123576
0.00119422
0.00115595
0.00112081
0.00108863
0.00105928
0.00103258
0.0010084
0.000986571
0.00096696
0.000949427
0.000933841
0.000920086
0.000908054
0.000897651
0.000888796
0.000881422
0.000875479
0.000870928
0.000867745
0.000865787
0.000865059
0.000865612
0.000867521
0.000870886
0.000875834
0.000882525
0.000891158
0.000901979
0.000915293
0.000931479
0.000951003
0.000974445
0.00100253
0.00103614
0.00107639
0.00112467
0.00118269
0.00125261
0.00133713
0.00143975
0.00156513
0.00171972
0.00191299
0.00215912
0.00247781
0.00288801
0.00338249
0.00387936
0.00414145
0.003717
0.00117369
0.000171619
0.000173966
0.000177106
0.000181569
0.000187965
0.000197193
0.000210213
0.000227907
0.000250932
0.000279598
0.000313811
0.000353095
0.000396671
0.000443594
0.000492897
0.000543731
0.000595453
0.00064767
0.000700217
0.000753106
0.000806455
0.000860427
0.000915179
0.000970839
0.00102751
0.00108526
0.00114417
0.00120432
0.0012658
0.00132873
0.00139325
0.0014595
0.00152768
0.00159797
0.00167061
0.00174588
0.00182408
0.00190558
0.00199079
0.00208019
0.00217431
0.00227373
0.00237906
0.00249097
0.00261014
0.00273725
0.00287296
0.00301788
0.00317254
0.00333736
0.00351257
0.00369826
0.00389426
0.00410017
0.00431531
0.00453878
0.00476937
0.00500568
0.0052461
0.00548887
0.00573213
0.00597398
0.00621254
0.00644598
0.00667262
0.00689094
0.00709957
0.00729737
0.0074834
0.00765689
0.00781727
0.00796412
0.00809716
0.00821621
0.00832118
0.00841205
0.00848889
0.00855183
0.00860104
0.00863677
0.00865927
0.00866884
0.00866578
0.00865069
0.00862405
0.00858632
0.00853795
0.0084794
0.00841116
0.00833373
0.00824759
0.00815325
0.00805121
0.00794197
0.00782604
0.00770389
0.00757603
0.00744291
0.00730501
0.00716278
0.00701666
0.00686709
0.0067145
0.00655928
0.00640184
0.00624256
0.00608183
0.00591999
0.00575741
0.00559441
0.00543132
0.00526845
0.0051061
0.00494456
0.00478409
0.00462497
0.00446743
0.00431172
0.00415806
0.00400667
0.00385774
0.00371148
0.00356805
0.00342764
0.00329039
0.00315646
0.00302599
0.00289911
0.00277592
0.00265655
0.00254109
0.00242962
0.00232223
0.00221898
0.00211991
0.00202508
0.00193451
0.00184821
0.0017662
0.00168845
0.00161495
0.00154565
0.0014805
0.00141942
0.00136234
0.00130915
0.00125974
0.00121399
0.00117176
0.00113289
0.00109725
0.00106465
0.00103494
0.00100795
0.00098351
0.000961453
0.00094162
0.000923858
0.000908022
0.00089398
0.00088161
0.000870805
0.000861471
0.000853529
0.000846917
0.000841584
0.000837497
0.000834634
0.000832861
0.000832191
0.000832671
0.000834372
0.000837382
0.000841819
0.000847829
0.000855594
0.00086534
0.000877349
0.000891971
0.000909639
0.000930898
0.000956427
0.000987076
0.00102392
0.00106829
0.00112191
0.00118691
0.00126605
0.0013629
0.00148222
0.00163062
0.00181778
0.00205816
0.00237189
0.00277858
0.00327248
0.00377374
0.00406614
0.0037117
0.00158099
0.000212949
0.00021222
0.000211678
0.000211332
0.000211153
0.000211186
0.000211494
0.000212298
0.000214048
0.000217335
0.000222879
0.000231457
0.00024381
0.000260545
0.000282063
0.000308513
0.000339792
0.000375556
0.000415281
0.000458327
0.000504023
0.000551746
0.000600981
0.000651355
0.000702646
0.000754767
0.000807737
0.000861645
0.000916619
0.000972806
0.00103036
0.00108944
0.00115022
0.00121288
0.00127766
0.00134482
0.00141466
0.00148756
0.00156391
0.0016442
0.00172893
0.00181868
0.00191406
0.00201574
0.0021244
0.00224075
0.00236551
0.00249934
0.00264288
0.00279665
0.00296104
0.00313629
0.00332242
0.00351921
0.00372621
0.00394266
0.00416756
0.00439965
0.00463743
0.00487921
0.00512316
0.00536736
0.00560987
0.00584877
0.00608226
0.00630866
0.00652648
0.00673443
0.00693141
0.00711655
0.00728913
0.00744862
0.00759468
0.00772712
0.00784567
0.00795019
0.00804065
0.0081171
0.00817967
0.00822854
0.00826393
0.00828613
0.00829541
0.00829234
0.00827735
0.00825089
0.0082134
0.00816536
0.00810723
0.00803951
0.0079627
0.00787731
0.00778383
0.00768278
0.00757466
0.00745998
0.00733923
0.00721289
0.00708145
0.00694536
0.00680509
0.00666109
0.00651379
0.0063636
0.00621096
0.00605624
0.00589985
0.00574215
0.00558351
0.00542427
0.00526477
0.00510533
0.00494626
0.00478787
0.00463042
0.00447421
0.00431948
0.00416648
0.00401545
0.00386662
0.0037202
0.00357638
0.00343536
0.00329732
0.00316243
0.00303085
0.00290273
0.00277819
0.00265738
0.0025404
0.00242737
0.00231837
0.00221349
0.0021128
0.00201636
0.00192421
0.00183639
0.00175291
0.00167377
0.00159896
0.00152844
0.00146218
0.00140011
0.00134214
0.00128818
0.00123812
0.00119183
0.00114916
0.00110996
0.00107406
0.0010413
0.00101149
0.00098444
0.000959977
0.000937915
0.000918077
0.000900295
0.000884409
0.000870273
0.000857751
0.000846727
0.000837095
0.000828769
0.000821675
0.000815756
0.000810971
0.000807293
0.000804704
0.000803082
0.000802445
0.000802841
0.000804334
0.000807007
0.000810968
0.000816349
0.000823315
0.000832073
0.000842878
0.00085605
0.000871987
0.000891189
0.000914289
0.000942083
0.000975587
0.00101609
0.00106524
0.00112516
0.00119857
0.00128906
0.00140142
0.00154234
0.00172154
0.0019535
0.00225844
0.00265621
0.00314259
0.00364173
0.00395912
0.00369201
0.00198499
0.000319621
0.000316337
0.000313277
0.000310433
0.000307736
0.000305109
0.000302473
0.000299751
0.00029677
0.000293502
0.000289954
0.000286215
0.000282488
0.000279119
0.000276597
0.000275535
0.000276617
0.00028053
0.000287894
0.000299204
0.000314794
0.000334823
0.000359277
0.000387985
0.00042065
0.000456891
0.000496285
0.000538415
0.00058291
0.000629475
0.000677912
0.000728126
0.000780122
0.00083399
0.000889902
0.000948089
0.00100884
0.00107249
0.00113943
0.00121009
0.00128496
0.00136457
0.00144951
0.00154044
0.00163805
0.00174305
0.00185621
0.00197825
0.00210989
0.00225176
0.00240439
0.00256818
0.00274332
0.00292979
0.00312733
0.00333539
0.00355315
0.0037795
0.00401309
0.00425232
0.00449541
0.00474044
0.00498543
0.00522839
0.00546739
0.00570064
0.00592653
0.00614362
0.00635069
0.00654672
0.00673087
0.00690249
0.00706131
0.00720694
0.00733893
0.00745705
0.00756116
0.00765124
0.00772735
0.00778961
0.00783822
0.00787343
0.0078955
0.0079049
0.00790204
0.00788735
0.00786128
0.00782427
0.00777681
0.00771938
0.00765248
0.00757662
0.0074923
0.00740004
0.00730034
0.00719373
0.00708069
0.00696173
0.00683733
0.00670798
0.00657415
0.00643628
0.00629484
0.00615026
0.00600295
0.00585334
0.00570182
0.00554878
0.0053946
0.00523962
0.00508421
0.0049287
0.0047734
0.00461863
0.00446468
0.00431183
0.00416037
0.00401054
0.0038626
0.00371677
0.00357329
0.00343237
0.0032942
0.00315898
0.00302689
0.0028981
0.00277276
0.00265103
0.00253304
0.00241891
0.00230877
0.0022027
0.00210081
0.00200316
0.00190982
0.00182085
0.00173625
0.00165607
0.00158029
0.00150889
0.00144184
0.00137908
0.00132053
0.00126611
0.00121569
0.00116914
0.00112632
0.00108707
0.0010512
0.00101852
0.000988857
0.000961993
0.000937733
0.000915876
0.00089623
0.000878608
0.000862838
0.000848758
0.000836226
0.000825111
0.000815304
0.000806711
0.000799255
0.000792875
0.000787527
0.000783178
0.000779812
0.000777418
0.000775885
0.000775238
0.000775524
0.000776805
0.000779159
0.000782683
0.000787498
0.000793753
0.000801633
0.000811366
0.000823239
0.000837613
0.00085494
0.000875798
0.000900923
0.00093126
0.000968023
0.00101278
0.00106758
0.00113509
0.00121883
0.00132356
0.00145592
0.00162553
0.00184667
0.00213929
0.0025232
0.0029958
0.00348745
0.00382477
0.00365556
0.00234908
0.000447424
0.000443343
0.000439439
0.000435721
0.000432166
0.000428739
0.000425407
0.000422132
0.000418833
0.000415421
0.000411826
0.000407969
0.000403764
0.000399127
0.00039399
0.000388314
0.000382119
0.000375505
0.000368673
0.000361944
0.000355749
0.000350612
0.000347106
0.00034581
0.000347264
0.000351926
0.000360152
0.000372187
0.000388167
0.000408135
0.000432054
0.000459836
0.000491363
0.000526515
0.000565191
0.000607335
0.00065295
0.000702116
0.000754997
0.000811849
0.000873018
0.000938942
0.00101014
0.00108722
0.00117085
0.00126174
0.00136067
0.00146841
0.00158572
0.00171333
0.00185189
0.00200195
0.00216386
0.00233782
0.00252374
0.00272128
0.00292981
0.00314839
0.0033758
0.00361056
0.00385094
0.00409503
0.0043408
0.0045862
0.00482922
0.00506795
0.00530065
0.00552578
0.00574197
0.00594807
0.00614309
0.00632647
0.00649777
0.00665631
0.00680156
0.00693316
0.0070509
0.00715465
0.00724441
0.00732025
0.00738233
0.00743088
0.00746612
0.0074884
0.00749811
0.00749565
0.00748147
0.00745601
0.00741975
0.00737315
0.00731672
0.00725095
0.00717637
0.00709348
0.0070028
0.00690484
0.00680011
0.00668913
0.00657238
0.00645035
0.00632354
0.0061924
0.00605739
0.00591898
0.00577758
0.00563363
0.00548754
0.00533971
0.00519051
0.00504034
0.00488954
0.00473846
0.00458744
0.00443679
0.00428684
0.00413786
0.00399015
0.00384398
0.0036996
0.00355727
0.00341721
0.00327965
0.00314482
0.0030129
0.00288409
0.00275857
0.00263652
0.00251808
0.0024034
0.00229263
0.00218588
0.00208326
0.00198486
0.00189078
0.00180107
0.00171578
0.00163495
0.00155858
0.00148667
0.0014192
0.00135611
0.00129733
0.00124278
0.00119233
0.00114585
0.00110319
0.00106417
0.00102861
0.000996301
0.000967032
0.000940587
0.000916743
0.000895285
0.000876
0.000858687
0.000843158
0.000829241
0.000816783
0.00080565
0.000795727
0.000786919
0.00077915
0.00077236
0.000766506
0.000761557
0.000757497
0.00075432
0.000752024
0.000750505
0.000749798
0.000749949
0.000751018
0.000753078
0.000756217
0.000760546
0.000766196
0.00077333
0.000782153
0.000792915
0.000805937
0.000821622
0.000840488
0.000863202
0.000890629
0.00092389
0.000964459
0.00101427
0.00107587
0.00115268
0.00124934
0.00137234
0.00153104
0.00173933
0.00201654
0.00238222
0.00283558
0.00331486
0.00366717
0.00359623
0.00264475
0.000556916
0.000553074
0.000549352
0.000545758
0.000542286
0.000538925
0.000535666
0.0005325
0.000529401
0.000526333
0.000523274
0.000520199
0.000517076
0.000513866
0.00051052
0.000506981
0.000503182
0.000499052
0.000494518
0.000489512
0.000483981
0.000477895
0.000471268
0.000464165
0.000456718
0.000449134
0.000441698
0.000434762
0.000428733
0.00042405
0.000421162
0.000420507
0.000422497
0.000427509
0.000435887
0.000447943
0.00046397
0.000484257
0.000509098
0.000538812
0.000573752
0.000614318
0.000660964
0.000714209
0.000774631
0.000842875
0.000919642
0.00100568
0.00110177
0.00120869
0.00132719
0.00145794
0.00160147
0.00175812
0.00192799
0.00211092
0.00230643
0.00251374
0.00273176
0.00295909
0.00319404
0.00343468
0.00367892
0.00392463
0.00416973
0.0044122
0.00465016
0.004882
0.00510616
0.00532138
0.00552685
0.00572168
0.00590502
0.0060761
0.00623432
0.00637921
0.00651045
0.00662784
0.0067313
0.00682085
0.00689659
0.00695871
0.00700746
0.00704298
0.00706564
0.00707584
0.00707401
0.00706057
0.00703599
0.00700074
0.0069553
0.00690018
0.00683589
0.00676294
0.00668185
0.00659314
0.00649731
0.00639489
0.00628638
0.00617228
0.00605307
0.00592925
0.00580127
0.0056696
0.00553469
0.00539698
0.00525688
0.00511481
0.00497117
0.00482634
0.0046807
0.0045346
0.00438839
0.00424241
0.00409697
0.00395239
0.00380895
0.00366695
0.00352665
0.00338832
0.0032522
0.00311854
0.00298755
0.00285945
0.00273445
0.00261273
0.00249449
0.00237988
0.00226907
0.00216219
0.00205939
0.00196077
0.00186644
0.00177649
0.00169097
0.00160995
0.00153344
0.00146145
0.00139396
0.00133095
0.00127233
0.00121802
0.00116791
0.00112186
0.00107969
0.00104124
0.00100628
0.000974616
0.000946001
0.000920201
0.000896975
0.000876084
0.000857298
0.000840401
0.000825191
0.000811487
0.000799131
0.000787986
0.00077794
0.000768901
0.0007608
0.000753583
0.000747213
0.000741667
0.000736933
0.000733007
0.000729895
0.000727602
0.000726032
0.000725226
0.000725231
0.000726104
0.000727912
0.000730736
0.000734674
0.000739843
0.000746386
0.00075448
0.000764344
0.000776258
0.000790574
0.00080775
0.000828376
0.000853228
0.000883326
0.00092002
0.000965106
0.00102099
0.00109091
0.00117932
0.00129245
0.00143929
0.00163311
0.00189239
0.0022362
0.00266563
0.00312789
0.00349016
0.00350992
0.00285679
0.000638784
0.000635477
0.000632249
0.000629105
0.000626044
0.000623062
0.000620157
0.000617335
0.000614569
0.000611854
0.000609187
0.000606564
0.000603981
0.000601431
0.000598905
0.000596389
0.000593867
0.000591318
0.000588714
0.000586023
0.000583207
0.000580222
0.000577021
0.000573552
0.000569766
0.000565615
0.000561059
0.000556073
0.00055065
0.00054481
0.000538605
0.000532127
0.000525511
0.000518942
0.000512657
0.000506947
0.000502156
0.000498685
0.000496991
0.000497595
0.000501085
0.000508128
0.000519477
0.000535987
0.000558616
0.000588428
0.000626584
0.000674315
0.000732878
0.000803495
0.000887289
0.000985213
0.00109801
0.00122616
0.00136991
0.0015292
0.00170366
0.00189262
0.00209501
0.00230943
0.00253411
0.00276701
0.00300588
0.00324851
0.00349275
0.00373645
0.00397748
0.00421427
0.00444529
0.00466909
0.00488429
0.00508974
0.00528444
0.00546754
0.00563829
0.00579614
0.00594067
0.00607157
0.00618869
0.00629196
0.00638146
0.00645733
0.00651981
0.00656888
0.00660485
0.0066281
0.00663902
0.00663804
0.00662561
0.00660218
0.00656825
0.0065243
0.00647084
0.00640838
0.00633744
0.00625854
0.0061722
0.00607893
0.00597925
0.00587366
0.00576266
0.00564674
0.00552638
0.00540205
0.00527422
0.00514333
0.0050098
0.00487408
0.00473656
0.00459765
0.00445774
0.00431718
0.00417634
0.00403558
0.00389521
0.00375557
0.00361697
0.00347969
0.00334403
0.00321025
0.00307863
0.00294941
0.00282283
0.00269912
0.00257849
0.00246115
0.0023473
0.00223711
0.00213075
0.00202838
0.00193014
0.00183614
0.00174649
0.00166128
0.00158058
0.00150443
0.00143285
0.00136583
0.00130335
0.00124533
0.0011917
0.00114233
0.00109709
0.00105579
0.00101824
0.000984209
0.000953467
0.000925756
0.000900816
0.00087838
0.000858191
0.00084
0.000823573
0.000808701
0.000795197
0.000782904
0.000771688
0.000761447
0.000752099
0.000743587
0.00073587
0.000728924
0.000722735
0.0007173
0.000712622
0.00070871
0.000705576
0.000703228
0.000701575
0.000700665
0.000700541
0.000701257
0.000702874
0.000705466
0.000709119
0.000713936
0.000720044
0.000727595
0.00073678
0.000747839
0.000761076
0.000776888
0.00079579
0.000818463
0.000845814
0.000879056
0.000919827
0.000970341
0.00103363
0.00111386
0.00121694
0.00135136
0.00152959
0.00176905
0.00208811
0.00248978
0.00293057
0.00329737
0.00339526
0.00298289
0.000696397
0.00069367
0.000690991
0.000688363
0.000685787
0.000683264
0.000680792
0.000678378
0.000676002
0.000673666
0.000671371
0.000669119
0.00066691
0.000664746
0.000662628
0.000660557
0.000658531
0.00065655
0.00065461
0.000652707
0.000650833
0.000648979
0.000647132
0.000645277
0.000643396
0.000641465
0.000639459
0.00063735
0.000635104
0.000632689
0.000630068
0.000627206
0.000624068
0.000620622
0.000616842
0.00061271
0.000608222
0.00060339
0.000598253
0.000592883
0.000587404
0.000582004
0.000576967
0.000572697
0.00056976
0.000568928
0.000571229
0.000577986
0.000590851
0.000611801
0.000643093
0.000687146
0.000746368
0.00082291
0.000918421
0.00103384
0.00116932
0.00132428
0.00149756
0.0016875
0.00189195
0.00210859
0.0023347
0.00256805
0.0028064
0.00304745
0.00328909
0.0035289
0.00376492
0.00399536
0.00421865
0.00443339
0.00463839
0.00483262
0.00501522
0.00518549
0.00534288
0.005487
0.00561759
0.0057345
0.00583773
0.00592738
0.00600368
0.00606657
0.00611615
0.00615277
0.00617682
0.00618869
0.00618882
0.00617767
0.00615571
0.00612342
0.0060813
0.00602986
0.00596962
0.00590109
0.00582479
0.00574125
0.00565098
0.00555449
0.00545229
0.00534488
0.00523274
0.00511635
0.00499619
0.00487272
0.00474637
0.00461759
0.00448679
0.00435439
0.00422079
0.00408636
0.00395149
0.00381653
0.00368183
0.00354772
0.00341453
0.00328256
0.00315212
0.0030235
0.00289697
0.0027728
0.00265124
0.00253253
0.0024169
0.00230457
0.00219575
0.00209063
0.00198939
0.00189218
0.00179916
0.00171046
0.00162617
0.00154638
0.00147116
0.00140054
0.00133453
0.00127309
0.00121617
0.00116369
0.00111553
0.00107152
0.00103148
0.000995186
0.000962406
0.000932871
0.000906299