/*--------------------------------*- C++ -*----------------------------------*\
| =========                 |                                                 |
| \\      /  F ield         | OpenFOAM: The Open Source CFD Toolbox           |
|  \\    /   O peration     | Version:  2.4.0                                 |
|   \\  /    A nd           | Web:      www.OpenFOAM.org                      |
|    \\/     M anipulation  |                                                 |
\*---------------------------------------------------------------------------*/
FoamFile
{
    version     2.0;
    format      ascii;
    class       surfaceScalarField;
    location    "0.271";
    object      phi;
}
// * * * * * * * * * * * * * * * * * * * * * * * * * * * * * * * * * * * * * //

dimensions      [0 3 -1 0 0 0 0];

internalField   nonuniform List<scalar> 
34880
(
5.48734e-06
7.01266e-06
3.12555e-06
2.36179e-06
2.47174e-06
6.53809e-07
2.21887e-06
2.52864e-07
2.07636e-06
1.42509e-07
1.9638e-06
1.12568e-07
1.88965e-06
7.41479e-08
1.82153e-06
6.81136e-08
1.7646e-06
5.69331e-08
1.74278e-06
2.18212e-08
1.6981e-06
4.46843e-08
1.67264e-06
2.5455e-08
1.64984e-06
2.28032e-08
1.62519e-06
2.46465e-08
1.58894e-06
3.62459e-08
1.57757e-06
1.1373e-08
1.54764e-06
2.99358e-08
1.51239e-06
3.5247e-08
1.41984e-06
9.25506e-08
-1.73891e-07
1.59373e-06
1.01101e-05
9.40256e-06
7.8303e-06
4.64159e-06
6.70927e-06
1.77484e-06
6.0638e-06
8.9833e-07
5.64646e-06
5.59857e-07
5.34415e-06
4.14875e-07
5.12945e-06
2.88851e-07
4.94044e-06
2.57124e-07
4.7994e-06
1.97972e-07
4.70598e-06
1.15242e-07
4.59909e-06
1.5157e-07
4.52722e-06
9.7322e-08
4.46096e-06
8.9066e-08
4.39449e-06
9.11225e-08
4.31782e-06
1.1291e-07
4.28583e-06
4.33683e-08
4.20831e-06
1.07454e-07
4.13728e-06
1.06274e-07
4.06558e-06
1.64247e-07
1.76498e-08
3.87404e-06
1.2425e-05
9.47759e-06
1.10031e-05
6.06347e-06
9.98056e-06
2.79737e-06
9.20278e-06
1.67611e-06
8.6186e-06
1.14404e-06
8.18518e-06
8.48299e-07
7.86608e-06
6.0795e-07
7.5863e-06
5.36908e-07
7.37964e-06
4.04623e-07
7.22334e-06
2.7155e-07
7.06901e-06
3.05895e-07
6.9564e-06
2.09934e-07
6.85552e-06
1.89941e-07
6.75507e-06
1.91572e-07
6.65089e-06
2.17091e-07
6.59596e-06
9.83023e-08
6.49353e-06
2.09885e-07
6.39104e-06
2.08761e-07
6.32556e-06
2.29727e-07
1.0967e-07
6.23354e-06
1.34127e-05
8.56487e-06
1.28864e-05
6.58983e-06
1.23278e-05
3.35593e-06
1.17167e-05
2.28717e-06
1.11323e-05
1.7285e-06
1.06546e-05
1.32593e-06
1.0283e-05
9.79567e-07
9.94801e-06
8.71925e-07
9.69887e-06
6.53756e-07
9.49822e-06
4.72202e-07
9.30664e-06
4.97476e-07
9.16468e-06
3.5189e-07
9.03603e-06
3.18597e-07
8.90892e-06
3.18677e-07
8.78676e-06
3.39254e-07
8.70954e-06
1.75519e-07
8.58952e-06
3.29907e-07
8.4842e-06
3.14084e-07
8.35604e-06
3.5789e-07
8.45591e-08
8.38115e-06
1.35929e-05
7.47193e-06
1.36548e-05
6.528e-06
1.36269e-05
3.3838e-06
1.34022e-05
2.51184e-06
1.30155e-05
2.11525e-06
1.26228e-05
1.71865e-06
1.22832e-05
1.31913e-06
1.19508e-05
1.20431e-06
1.16975e-05
9.07081e-07
1.14838e-05
6.85868e-07
1.12746e-05
7.06738e-07
1.11211e-05
5.05328e-07
1.09784e-05
4.6128e-07
1.08347e-05
4.62432e-07
1.07064e-05
4.67574e-07
1.06193e-05
2.62539e-07
1.04727e-05
4.7657e-07
1.03868e-05
3.99949e-07
1.02533e-05
4.91405e-07
3.19161e-07
1.00187e-05
1.34881e-05
6.48387e-06
1.37426e-05
6.27345e-06
1.40013e-05
3.12508e-06
1.41469e-05
2.3663e-06
1.40763e-05
2.18587e-06
1.38999e-05
1.89503e-06
1.37043e-05
1.51468e-06
1.34621e-05
1.44657e-06
1.32643e-05
1.10486e-06
1.30862e-05
8.6399e-07
1.28921e-05
9.00843e-07
1.27545e-05
6.4284e-07
1.26205e-05
5.9531e-07
1.24781e-05
6.04895e-07
1.23546e-05
5.90998e-07
1.22835e-05
3.33631e-07
1.21122e-05
6.47922e-07
1.20307e-05
4.81399e-07
1.19504e-05
5.71691e-07
7.98161e-07
1.14714e-05
1.33752e-05
5.60864e-06
1.36794e-05
5.96932e-06
1.39304e-05
2.87409e-06
1.42254e-05
2.07122e-06
1.43768e-05
2.03449e-06
1.44138e-05
1.85801e-06
1.44087e-05
1.51979e-06
1.43307e-05
1.52457e-06
1.42557e-05
1.17988e-06
1.41768e-05
9.42841e-07
1.40484e-05
1.0293e-06
1.39668e-05
7.24469e-07
1.38757e-05
6.86383e-07
1.37651e-05
7.15445e-07
1.36632e-05
6.92959e-07
1.36311e-05
3.65713e-07
1.34709e-05
8.08159e-07
1.33594e-05
5.92865e-07
1.34176e-05
5.13533e-07
6.70193e-07
1.35455e-05
1.32965e-05
4.81219e-06
1.36767e-05
5.58904e-06
1.37927e-05
2.75814e-06
1.40932e-05
1.77065e-06
1.43113e-05
1.81639e-06
1.44464e-05
1.72296e-06
1.45475e-05
1.41869e-06
1.45964e-05
1.47572e-06
1.46321e-05
1.1441e-06
1.46681e-05
9.06834e-07
1.46395e-05
1.05788e-06
1.46449e-05
7.1912e-07
1.46345e-05
6.96765e-07
1.45963e-05
7.53705e-07
1.45479e-05
7.41329e-07
1.457e-05
3.43562e-07
1.44798e-05
8.98412e-07
1.43541e-05
7.18549e-07
1.44221e-05
4.45546e-07
1.43549e-06
1.36568e-05
1.32206e-05
4.09156e-06
1.36555e-05
5.15416e-06
1.37141e-05
2.69954e-06
1.39735e-05
1.51124e-06
1.4181e-05
1.60894e-06
1.43382e-05
1.56569e-06
1.44685e-05
1.28842e-06
1.45786e-05
1.36561e-06
1.46527e-05
1.07006e-06
1.47376e-05
8.21858e-07
1.47692e-05
1.02635e-06
1.48302e-05
6.58129e-07
1.48821e-05
6.44847e-07
1.49247e-05
7.11136e-07
1.49438e-05
7.22161e-07
1.50302e-05
2.57149e-07
1.50225e-05
9.06126e-07
1.49849e-05
7.56169e-07
1.51896e-05
2.40829e-07
1.24336e-06
1.53817e-05
1.3134e-05
3.45752e-06
1.36182e-05
4.66995e-06
1.36984e-05
2.61936e-06
1.39131e-05
1.29659e-06
1.40754e-05
1.44657e-06
1.42116e-05
1.42952e-06
1.43402e-05
1.15988e-06
1.44977e-05
1.20806e-06
1.46008e-05
9.66974e-07
1.46901e-05
7.32509e-07
1.47301e-05
9.86423e-07
1.47935e-05
5.94704e-07
1.48543e-05
5.84033e-07
1.49263e-05
6.39105e-07
1.49891e-05
6.59369e-07
1.50998e-05
1.46475e-07
1.51513e-05
8.54648e-07
1.52582e-05
6.49267e-07
1.54388e-05
6.02076e-08
1.07727e-06
1.56049e-05
1.30561e-05
2.90138e-06
1.35301e-05
4.19596e-06
1.3649e-05
2.50053e-06
1.3881e-05
1.06458e-06
1.40423e-05
1.28521e-06
1.41334e-05
1.33847e-06
1.423e-05
1.06322e-06
1.44096e-05
1.02848e-06
1.45376e-05
8.38981e-07
1.46243e-05
6.45835e-07
1.46749e-05
9.35788e-07
1.47416e-05
5.28034e-07
1.47916e-05
5.33986e-07
1.48607e-05
5.70075e-07
1.49311e-05
5.88912e-07
1.50134e-05
6.4168e-08
1.51126e-05
7.55492e-07
1.52438e-05
5.18025e-07
1.54137e-05
-1.09697e-07
6.94962e-07
1.57961e-05
1.29822e-05
2.41922e-06
1.34295e-05
3.74858e-06
1.35904e-05
2.33967e-06
1.38371e-05
8.17911e-07
1.40274e-05
1.09488e-06
1.41063e-05
1.25956e-06
1.41631e-05
1.00647e-06
1.43202e-05
8.7131e-07
1.44566e-05
7.02607e-07
1.45657e-05
5.36775e-07
1.4646e-05
8.55481e-07
1.47003e-05
4.73676e-07
1.4737e-05
4.97338e-07
1.48125e-05
4.94502e-07
1.48732e-05
5.28253e-07
1.49153e-05
2.21167e-08
1.50562e-05
6.14577e-07
1.5194e-05
3.802e-07
1.53668e-05
-2.82483e-07
4.30272e-07
1.56315e-05
1.29165e-05
2.00274e-06
1.33814e-05
3.2837e-06
1.3596e-05
2.12499e-06
1.37652e-05
6.48745e-07
1.3961e-05
8.99048e-07
1.4084e-05
1.13663e-06
1.41227e-05
9.6774e-07
1.4234e-05
7.59995e-07
1.43965e-05
5.40136e-07
1.45468e-05
3.86444e-07
1.46201e-05
7.82181e-07
1.46387e-05
4.55045e-07
1.46675e-05
4.68612e-07
1.47493e-05
4.12661e-07
1.48435e-05
4.34064e-07
1.48568e-05
8.78316e-09
1.50216e-05
4.49805e-07
1.5216e-05
1.85792e-07
1.53013e-05
-3.67798e-07
4.69917e-07
1.52617e-05
1.28805e-05
1.62225e-06
1.33617e-05
2.80247e-06
1.36011e-05
1.88559e-06
1.36864e-05
5.63505e-07
1.38983e-05
6.87111e-07
1.40588e-05
9.76173e-07
1.41047e-05
9.21776e-07
1.41875e-05
6.77266e-07
1.4348e-05
3.79603e-07
1.44975e-05
2.36976e-07
1.45684e-05
7.11257e-07
1.45833e-05
4.40112e-07
1.46107e-05
4.41264e-07
1.47106e-05
3.12721e-07
1.48313e-05
3.13408e-07
1.48285e-05
1.15809e-08
1.49764e-05
3.01854e-07
1.5184e-05
-2.18136e-08
1.51861e-05
-3.69901e-07
4.76674e-07
1.51794e-05
1.28562e-05
1.26608e-06
1.33172e-05
2.34142e-06
1.35449e-05
1.65787e-06
1.36515e-05
4.56947e-07
1.38685e-05
4.70107e-07
1.40273e-05
8.17415e-07
1.40988e-05
8.50271e-07
1.41729e-05
6.03141e-07
1.42911e-05
2.61392e-07
1.44159e-05
1.12133e-07
1.45149e-05
6.12327e-07
1.45657e-05
3.89321e-07
1.45948e-05
4.12143e-07
1.46976e-05
2.09948e-07
1.47938e-05
2.17139e-07
1.4803e-05
2.3896e-09
1.4937e-05
1.67898e-07
1.50974e-05
-1.82261e-07
1.50688e-05
-3.41309e-07
1.50559e-07
1.53949e-05
1.28174e-05
9.48688e-07
1.32632e-05
1.89558e-06
1.35358e-05
1.38531e-06
1.36578e-05
3.34957e-07
1.38153e-05
3.12575e-07
1.39738e-05
6.58906e-07
1.40878e-05
7.36239e-07
1.41616e-05
5.29393e-07
1.42598e-05
1.63202e-07
1.43682e-05
3.7166e-09
1.44804e-05
5.00093e-07
1.45438e-05
3.25917e-07
1.45804e-05
3.75581e-07
1.4658e-05
1.32347e-07
1.47564e-05
1.1872e-07
1.47699e-05
-1.10639e-08
1.49424e-05
-4.65774e-09
1.50027e-05
-2.42508e-07
1.50319e-05
-3.70532e-07
-5.33899e-07
1.57164e-05
1.27837e-05
6.64945e-07
1.3236e-05
1.44329e-06
1.35417e-05
1.07962e-06
1.3647e-05
2.29702e-07
1.37556e-05
2.03976e-07
1.39281e-05
4.86346e-07
1.40752e-05
5.89225e-07
1.41625e-05
4.42021e-07
1.42564e-05
6.9333e-08
1.43271e-05
-6.7005e-08
1.44474e-05
3.79835e-07
1.44972e-05
2.76146e-07
1.45591e-05
3.13592e-07
1.46307e-05
6.08129e-08
1.47347e-05
1.47224e-08
1.47593e-05
-3.5666e-08
1.49395e-05
-1.84836e-07
1.49075e-05
-2.1053e-07
1.48584e-05
-3.2144e-07
1.07434e-07
1.4217e-05
1.27626e-05
4.02393e-07
1.32201e-05
9.8579e-07
1.35236e-05
7.76107e-07
1.36401e-05
1.13156e-07
1.37357e-05
1.08425e-07
1.38984e-05
3.236e-07
1.40638e-05
4.23822e-07
1.41697e-05
3.36124e-07
1.42376e-05
1.40804e-09
1.42868e-05
-1.16218e-07
1.44085e-05
2.58164e-07
1.44722e-05
2.12478e-07
1.4545e-05
2.40822e-07
1.4649e-05
-4.32289e-08
1.46998e-05
-3.60439e-08
1.47847e-05
-1.20646e-07
1.48823e-05
-2.82391e-07
1.48789e-05
-2.07104e-07
1.51005e-05
-5.43065e-07
-3.7507e-07
1.5583e-05
1.27465e-05
1.55906e-07
1.32058e-05
5.26451e-07
1.35174e-05
4.64552e-07
1.36576e-05
-2.70784e-08
1.37202e-05
4.58864e-08
1.38671e-05
1.76699e-07
1.40483e-05
2.42561e-07
1.41597e-05
2.24713e-07
1.42278e-05
-6.6634e-08
1.42773e-05
-1.65783e-07
1.43924e-05
1.43134e-07
1.44567e-05
1.4818e-07
1.45555e-05
1.41979e-07
1.46342e-05
-1.21949e-07
1.46746e-05
-7.64029e-08
1.4792e-05
-2.38085e-07
1.48311e-05
-3.21474e-07
1.49125e-05
-2.88539e-07
1.51092e-05
-7.39761e-07
-5.74569e-07
1.53087e-05
1.27381e-05
-8.22063e-08
1.3202e-05
6.25294e-08
1.35265e-05
1.40136e-07
1.36613e-05
-1.6188e-07
1.36929e-05
1.42764e-08
1.38546e-05
1.49774e-08
1.40395e-05
5.76138e-08
1.41513e-05
1.12896e-07
1.42363e-05
-1.51602e-07
1.42888e-05
-2.18279e-07
1.43729e-05
5.90243e-08
1.44476e-05
7.35134e-08
1.45594e-05
3.02035e-08
1.46052e-05
-1.67757e-07
1.46705e-05
-1.41736e-07
1.47829e-05
-3.5052e-07
1.48065e-05
-3.45028e-07
1.49689e-05
-4.50934e-07
1.50722e-05
-8.43031e-07
-6.37556e-07
1.51351e-05
1.27398e-05
-3.21996e-07
1.32136e-05
-4.1126e-07
1.35237e-05
-1.69935e-07
1.36392e-05
-2.77406e-07
1.36924e-05
-3.89454e-08
1.38758e-05
-1.68375e-07
1.40364e-05
-1.03027e-07
1.41434e-05
5.89402e-09
1.42453e-05
-2.53486e-07
1.42885e-05
-2.61538e-07
1.4356e-05
-8.4361e-09
1.44592e-05
-2.96483e-08
1.45636e-05
-7.41933e-08
1.45885e-05
-1.92712e-07
1.46921e-05
-2.4537e-07
1.47606e-05
-4.18938e-07
1.48341e-05
-4.18534e-07
1.4966e-05
-5.82828e-07
1.49965e-05
-8.73605e-07
-9.62503e-07
1.53215e-05
1.27541e-05
-5.76092e-07
1.322e-05
-8.77156e-07
1.35087e-05
-4.58596e-07
1.36377e-05
-4.06472e-07
1.37224e-05
-1.23583e-07
1.38895e-05
-3.35544e-07
1.40286e-05
-2.42072e-07
1.41415e-05
-1.07081e-07
1.42563e-05
-3.68288e-07
1.42948e-05
-3.00035e-07
1.43678e-05
-8.13794e-08
1.44834e-05
-1.45232e-07
1.45568e-05
-1.4759e-07
1.45814e-05
-2.17344e-07
1.47137e-05
-3.77649e-07
1.47525e-05
-4.57714e-07
1.48792e-05
-5.45255e-07
1.49106e-05
-6.14209e-07
1.48097e-05
-7.72783e-07
-2.03558e-07
1.40508e-05
1.27716e-05
-8.47673e-07
1.32164e-05
-1.32197e-06
1.3512e-05
-7.54172e-07
1.36655e-05
-5.60022e-07
1.37425e-05
-2.0059e-07
1.38862e-05
-4.7918e-07
1.40326e-05
-3.88468e-07
1.41596e-05
-2.34138e-07
1.42744e-05
-4.83034e-07
1.43168e-05
-3.42479e-07
1.4377e-05
-1.41605e-07
1.45019e-05
-2.70045e-07
1.45357e-05
-1.81486e-07
1.46153e-05
-2.96881e-07
1.47135e-05
-4.7591e-07
1.4787e-05
-5.31175e-07
1.48735e-05
-6.31786e-07
1.49151e-05
-6.55804e-07
1.50511e-05
-9.08794e-07
-8.53617e-07
1.57012e-05
1.27846e-05
-1.13223e-06
1.32284e-05
-1.76587e-06
1.35462e-05
-1.07192e-06
1.3681e-05
-6.94861e-07
1.37451e-05
-2.64701e-07
1.3903e-05
-6.37084e-07
1.40581e-05
-5.43487e-07
1.41783e-05
-3.54331e-07
1.42939e-05
-5.98627e-07
1.43335e-05
-3.82154e-07
1.43905e-05
-1.98615e-07
1.4509e-05
-3.88522e-07
1.45544e-05
-2.26822e-07
1.46583e-05
-4.00829e-07
1.47213e-05
-5.38885e-07
1.48118e-05
-6.2169e-07
1.48541e-05
-6.74061e-07
1.49688e-05
-7.7055e-07
1.51339e-05
-1.07387e-06
-1.22215e-06
1.55024e-05
1.28051e-05
-1.43729e-06
1.32649e-05
-2.22572e-06
1.35797e-05
-1.38666e-06
1.36764e-05
-7.91586e-07
1.37604e-05
-3.48742e-07
1.39414e-05
-8.181e-07
1.40875e-05
-6.89519e-07
1.41979e-05
-4.64722e-07
1.43117e-05
-7.12447e-07
1.43637e-05
-4.34188e-07
1.44172e-05
-2.52075e-07
1.45318e-05
-5.03156e-07
1.45919e-05
-2.86918e-07
1.46847e-05
-4.93623e-07
1.47344e-05
-5.88622e-07
1.48224e-05
-7.09664e-07
1.48722e-05
-7.23886e-07
1.50258e-05
-9.24084e-07
1.51614e-05
-1.20954e-06
-1.46126e-06
1.54005e-05
1.28428e-05
-1.78011e-06
1.33092e-05
-2.69208e-06
1.35891e-05
-1.66662e-06
1.36779e-05
-8.80317e-07
1.38059e-05
-4.76746e-07
1.398e-05
-9.92202e-07
1.41197e-05
-8.2927e-07
1.4232e-05
-5.76949e-07
1.43398e-05
-8.20336e-07
1.44016e-05
-4.95926e-07
1.44563e-05
-3.06755e-07
1.45582e-05
-6.05083e-07
1.46245e-05
-3.53192e-07
1.46998e-05
-5.68976e-07
1.47744e-05
-6.63223e-07
1.48412e-05
-7.76466e-07
1.49346e-05
-8.17288e-07
1.50471e-05
-1.03658e-06
1.51685e-05
-1.33097e-06
-1.82135e-06
1.55286e-05
1.28896e-05
-2.16968e-06
1.33474e-05
-3.14989e-06
1.35923e-05
-1.91158e-06
1.37079e-05
-9.95908e-07
1.3864e-05
-6.32783e-07
1.40194e-05
-1.14765e-06
1.41702e-05
-9.80043e-07
1.42747e-05
-6.8149e-07
1.43685e-05
-9.14102e-07
1.44381e-05
-5.65573e-07
1.44937e-05
-3.62336e-07
1.45894e-05
-7.00788e-07
1.46658e-05
-4.29524e-07
1.47413e-05
-6.44512e-07
1.48242e-05
-7.46164e-07
1.48806e-05
-8.32821e-07
1.49993e-05
-9.35956e-07
1.50523e-05
-1.08962e-06
1.50022e-05
-1.28083e-06
-8.31778e-07
1.40126e-05
1.29379e-05
-2.60755e-06
1.33864e-05
-3.59838e-06
1.35831e-05
-2.10832e-06
1.37547e-05
-1.16749e-06
1.3925e-05
-8.03094e-07
1.40745e-05
-1.2972e-06
1.42255e-05
-1.13099e-06
1.43094e-05
-7.65448e-07
1.43936e-05
-9.98264e-07
1.44807e-05
-6.52652e-07
1.45345e-05
-4.16118e-07
1.46461e-05
-8.12396e-07
1.47183e-05
-5.01777e-07
1.481e-05
-7.36178e-07
1.48578e-05
-7.93922e-07
1.49417e-05
-9.16801e-07
1.50091e-05
-1.00335e-06
1.50922e-05
-1.17274e-06
1.51943e-05
-1.38293e-06
-1.32925e-06
1.56918e-05
1.29908e-05
-3.09834e-06
1.34327e-05
-4.04033e-06
1.35967e-05
-2.27229e-06
1.38055e-05
-1.37626e-06
1.39914e-05
-9.89046e-07
1.41319e-05
-1.43767e-06
1.4272e-05
-1.27104e-06
1.43356e-05
-8.29132e-07
1.44319e-05
-1.09451e-06
1.45293e-05
-7.50095e-07
1.45999e-05
-4.86722e-07
1.47091e-05
-9.21563e-07
1.47882e-05
-5.80874e-07
1.48636e-05
-8.1163e-07
1.49052e-05
-8.35466e-07
1.49887e-05
-1.00036e-06
1.50139e-05
-1.02847e-06
1.51513e-05
-1.3102e-06
1.52569e-05
-1.48847e-06
-1.74708e-06
1.56747e-05
1.3046e-05
-3.64433e-06
1.34852e-05
-4.4795e-06
1.36427e-05
-2.42983e-06
1.38663e-05
-1.59987e-06
1.40559e-05
-1.17867e-06
1.4185e-05
-1.56669e-06
1.43168e-05
-1.40289e-06
1.43755e-05
-8.87797e-07
1.44933e-05
-1.2123e-06
1.45936e-05
-8.50386e-07
1.46793e-05
-5.72439e-07
1.47739e-05
-1.01623e-06
1.48594e-05
-6.66343e-07
1.49083e-05
-8.6052e-07
1.4964e-05
-8.91152e-07
1.50228e-05
-1.05917e-06
1.5056e-05
-1.06164e-06
1.51933e-05
-1.44757e-06
1.52874e-05
-1.58258e-06
-2.09519e-06
1.56355e-05
1.30996e-05
-4.24395e-06
1.35474e-05
-4.92724e-06
1.37133e-05
-2.59575e-06
1.39322e-05
-1.81879e-06
1.41154e-05
-1.36186e-06
1.42554e-05
-1.7067e-06
1.43734e-05
-1.52092e-06
1.44448e-05
-9.59149e-07
1.45756e-05
-1.34308e-06
1.46695e-05
-9.44335e-07
1.47576e-05
-6.60549e-07
1.48356e-05
-1.09425e-06
1.49164e-05
-7.47147e-07
1.49473e-05
-8.91389e-07
1.5006e-05
-9.49884e-07
1.50437e-05
-1.09682e-06
1.50809e-05
-1.0988e-06
1.51546e-05
-1.5213e-06
1.52111e-05
-1.63908e-06
-2.37795e-06
1.54939e-05
1.3165e-05
-4.90894e-06
1.36268e-05
-5.38905e-06
1.37931e-05
-2.76207e-06
1.39903e-05
-2.01595e-06
1.41964e-05
-1.56797e-06
1.43507e-05
-1.86103e-06
1.44424e-05
-1.61259e-06
1.45444e-05
-1.06117e-06
1.46533e-05
-1.45199e-06
1.47247e-05
-1.01578e-06
1.48076e-05
-7.43414e-07
1.485e-05
-1.13662e-06
1.49035e-05
-8.00628e-07
1.49082e-05
-8.96134e-07
1.49304e-05
-9.72046e-07
1.49167e-05
-1.08313e-06
1.49061e-05
-1.08825e-06
1.48627e-05
-1.4779e-06
1.48267e-05
-1.60304e-06
-2.58962e-06
1.50383e-05
1.32493e-05
-5.65828e-06
1.37006e-05
-5.84028e-06
1.38671e-05
-2.92854e-06
1.40704e-05
-2.21927e-06
1.43189e-05
-1.8165e-06
1.44435e-05
-1.9856e-06
1.45012e-05
-1.67028e-06
1.46053e-05
-1.16528e-06
1.46284e-05
-1.47513e-06
1.46452e-05
-1.0326e-06
1.46788e-05
-7.76943e-07
1.46308e-05
-1.08869e-06
1.46141e-05
-7.8393e-07
1.45556e-05
-8.37581e-07
1.44915e-05
-9.07977e-07
1.43978e-05
-9.89439e-07
1.43098e-05
-1.00025e-06
1.41541e-05
-1.32218e-06
1.39716e-05
-1.42053e-06
-1.78983e-06
1.31718e-05
1.33511e-05
-6.50936e-06
1.37072e-05
-6.19642e-06
1.39603e-05
-3.18162e-06
1.41858e-05
-2.44481e-06
1.43943e-05
-2.02491e-06
1.44062e-05
-1.99754e-06
1.43674e-05
-1.63147e-06
1.43664e-05
-1.16426e-06
1.4237e-05
-1.34575e-06
1.41489e-05
-9.44558e-07
1.40798e-05
-7.07784e-07
1.39245e-05
-9.33369e-07
1.38278e-05
-6.87233e-07
1.37038e-05
-7.13638e-07
1.35643e-05
-7.68482e-07
1.34144e-05
-8.39516e-07
1.32644e-05
-8.50292e-07
1.30484e-05
-1.1061e-06
1.28444e-05
-1.21661e-06
-1.74275e-06
1.27974e-05
1.34766e-05
-7.486e-06
1.37668e-05
-6.48662e-06
1.4005e-05
-3.41977e-06
1.41172e-05
-2.55708e-06
1.40986e-05
-2.00622e-06
1.38898e-05
-1.78879e-06
1.36704e-05
-1.41209e-06
1.35022e-05
-9.96052e-07
1.32365e-05
-1.08008e-06
1.30585e-05
-7.66558e-07
1.29102e-05
-5.59404e-07
1.26973e-05
-7.20468e-07
1.25568e-05
-5.46803e-07
1.23984e-05
-5.55222e-07
1.22243e-05
-5.94346e-07
1.20472e-05
-6.62401e-07
1.18663e-05
-6.69409e-07
1.16236e-05
-8.63404e-07
1.13658e-05
-9.58794e-07
-1.18676e-06
1.08098e-05
1.35866e-05
-8.57263e-06
1.36686e-05
-6.56864e-06
1.36229e-05
-3.37402e-06
1.33834e-05
-2.31753e-06
1.30351e-05
-1.65795e-06
1.26122e-05
-1.3659e-06
1.22563e-05
-1.05624e-06
1.19859e-05
-7.25573e-07
1.16682e-05
-7.62396e-07
1.14566e-05
-5.54946e-07
1.12793e-05
-3.82161e-07
1.10589e-05
-5.00042e-07
1.09069e-05
-3.94808e-07
1.07403e-05
-3.88616e-07
1.05614e-05
-4.15406e-07
1.03783e-05
-4.79303e-07
1.01898e-05
-4.80908e-07
9.94058e-06
-6.1422e-07
9.68298e-06
-7.01189e-07
-7.8452e-07
9.28074e-06
1.34089e-05
-9.48152e-06
1.28942e-05
-6.05395e-06
1.23233e-05
-2.80309e-06
1.17049e-05
-1.69917e-06
1.11476e-05
-1.10061e-06
1.06465e-05
-8.64834e-07
1.02606e-05
-6.7037e-07
9.97477e-06
-4.39711e-07
9.67344e-06
-4.61068e-07
9.46888e-06
-3.50384e-07
9.30211e-06
-2.15387e-07
9.10554e-06
-3.03476e-07
8.9617e-06
-2.50962e-07
8.80767e-06
-2.34593e-07
8.64489e-06
-2.52619e-07
8.47271e-06
-3.07127e-07
8.29351e-06
-3.01707e-07
8.06423e-06
-3.84944e-07
7.81571e-06
-4.52665e-07
-4.71385e-07
7.50257e-06
1.24228e-05
-9.40429e-06
1.10072e-05
-4.63834e-06
9.97805e-06
-1.77397e-06
9.19416e-06
-9.15284e-07
8.62938e-06
-5.35825e-07
8.18124e-06
-4.16694e-07
7.84503e-06
-3.34161e-07
7.60553e-06
-2.00213e-07
7.36221e-06
-2.1775e-07
7.19034e-06
-1.78513e-07
7.06187e-06
-8.69136e-08
6.90597e-06
-1.47578e-07
6.78397e-06
-1.28964e-07
6.65973e-06
-1.10346e-07
6.52801e-06
-1.20905e-07
6.3802e-06
-1.59316e-07
6.22807e-06
-1.49571e-07
6.03697e-06
-1.93849e-07
5.81557e-06
-2.31266e-07
-2.18409e-07
5.5626e-06
1.01089e-05
-7.01319e-06
7.83186e-06
-2.3613e-06
6.70954e-06
-6.51652e-07
6.05586e-06
-2.61608e-07
5.65348e-06
-1.33446e-07
5.34526e-06
-1.08472e-07
5.10834e-06
-9.72352e-08
4.95414e-06
-4.6012e-08
4.79266e-06
-5.62722e-08
4.6703e-06
-5.61579e-08
4.59686e-06
-1.34755e-08
4.49028e-06
-4.0992e-08
4.40215e-06
-4.0839e-08
4.32023e-06
-2.84211e-08
4.23108e-06
-3.17576e-08
4.12137e-06
-4.96095e-08
4.01435e-06
-4.25443e-08
3.87723e-06
-5.67307e-08
3.71303e-06
-6.70662e-08
-5.64011e-08
3.55102e-06
5.48681e-06
3.12551e-06
2.47386e-06
2.21225e-06
2.0788e-06
1.97033e-06
1.87309e-06
1.82708e-06
1.77081e-06
1.71465e-06
1.70118e-06
1.66018e-06
1.61935e-06
1.59092e-06
1.55917e-06
1.50956e-06
1.46701e-06
1.41028e-06
1.34322e-06
1.28681e-06
2.00835e-06
1.83906e-08
-4.3301e-07
1.99627e-06
-1.10997e-07
1.23081e-07
1.82969e-06
6.38312e-08
1.0274e-07
1.99588e-06
1.20694e-06
-1.37312e-06
2.77163e-06
3.11623e-06
-3.89198e-06
4.13164e-06
2.93522e-06
-4.29524e-06
5.79153e-06
1.87674e-06
-3.53663e-06
7.38199e-06
3.14998e-06
-4.74044e-06
8.77042e-06
4.4558e-06
-5.84422e-06
1.00878e-05
4.93801e-06
-6.25541e-06
1.09996e-05
5.3104e-06
-6.22214e-06
1.16724e-05
4.06494e-06
-4.73774e-06
1.21321e-05
2.13861e-06
-2.59836e-06
1.25207e-05
5.88844e-07
-9.77472e-07
1.2814e-05
-1.12055e-06
8.27278e-07
1.292e-05
-2.9943e-06
2.88827e-06
1.29308e-05
-4.24918e-06
4.23846e-06
1.28762e-05
-5.45823e-06
5.51276e-06
1.29466e-05
-7.15546e-06
7.08514e-06
1.29937e-05
-8.64237e-06
8.59521e-06
1.32599e-05
-9.8654e-06
9.5992e-06
1.41128e-05
-1.16068e-05
1.07539e-05
1.51078e-05
-1.37839e-05
1.27889e-05
1.58541e-05
-1.61167e-05
1.53705e-05
1.61764e-05
-1.79934e-05
1.76711e-05
1.59516e-05
-1.88254e-05
1.90502e-05
1.55668e-05
-1.92897e-05
1.96745e-05
1.51552e-05
-1.94765e-05
1.98882e-05
1.47553e-05
-1.99035e-05
2.03034e-05
1.45108e-05
-1.94027e-05
1.96471e-05
1.44977e-05
-1.99107e-05
1.99239e-05
1.45716e-05
-1.9953e-05
1.98791e-05
1.4605e-05
-1.95483e-05
1.9515e-05
1.46531e-05
-1.91447e-05
1.90966e-05
1.47915e-05
-1.83967e-05
1.82582e-05
1.51047e-05
-1.77014e-05
1.73882e-05
1.5434e-05
-1.66262e-05
1.62969e-05
1.57135e-05
-1.48212e-05
1.45417e-05
1.5849e-05
-1.2826e-05
1.26904e-05
1.58366e-05
-1.05351e-05
1.05476e-05
1.5606e-05
-7.72501e-06
7.95558e-06
1.51609e-05
-5.02429e-06
5.4694e-06
1.45908e-05
-2.45257e-06
3.02271e-06
1.37845e-05
8.76864e-08
7.18558e-07
1.29187e-05
1.82959e-06
-9.63717e-07
1.21164e-05
3.37109e-06
-2.56885e-06
1.12419e-05
4.60105e-06
-3.72653e-06
1.03914e-05
4.99635e-06
-4.14584e-06
9.69132e-06
5.26489e-06
-4.56482e-06
9.08068e-06
5.73835e-06
-5.12771e-06
8.48032e-06
5.73289e-06
-5.13253e-06
8.05111e-06
4.72262e-06
-4.29342e-06
7.83202e-06
5.07913e-06
-4.86004e-06
7.40424e-06
6.74221e-06
-6.31442e-06
6.69682e-06
6.26579e-06
-5.55837e-06
6.16965e-06
4.19995e-06
-3.67278e-06
6.13111e-06
3.44192e-06
-3.40338e-06
6.70662e-06
6.66653e-06
-7.24204e-06
7.16973e-06
1.19061e-05
-1.23693e-05
7.10358e-06
1.44062e-05
-1.43401e-05
6.95037e-06
1.51935e-05
-1.50403e-05
7.04972e-06
1.64241e-05
-1.65234e-05
7.26596e-06
1.78572e-05
-1.80734e-05
7.47234e-06
1.89007e-05
-1.91071e-05
7.60441e-06
1.97899e-05
-1.99219e-05
7.61192e-06
2.10729e-05
-2.10804e-05
7.79187e-06
2.20711e-05
-2.22511e-05
8.15671e-06
2.19647e-05
-2.23295e-05
8.37383e-06
2.23558e-05
-2.25729e-05
8.58422e-06
2.25218e-05
-2.27322e-05
8.73225e-06
2.04069e-05
-2.05549e-05
8.69412e-06
1.72182e-05
-1.71801e-05
8.64727e-06
1.42988e-05
-1.42519e-05
8.72004e-06
1.07385e-05
-1.08112e-05
8.72544e-06
5.8317e-06
-5.8371e-06
8.60879e-06
-1.20302e-07
2.36951e-07
8.51994e-06
-5.6051e-06
5.69395e-06
8.3557e-06
-1.00371e-05
1.02013e-05
8.05465e-06
-1.48321e-05
1.51331e-05
7.90215e-06
-1.9299e-05
1.94515e-05
7.97356e-06
-2.08958e-05
2.08244e-05
7.83406e-06
-2.13938e-05
2.15333e-05
7.45003e-06
-2.46644e-05
2.50485e-05
7.1077e-06
-2.88717e-05
2.9214e-05
7.01932e-06
-2.89175e-05
2.90059e-05
6.91159e-06
-2.51241e-05
2.52318e-05
6.73511e-06
-2.26995e-05
2.2876e-05
6.69004e-06
-2.22084e-05
2.22535e-05
6.62382e-06
-2.3344e-05
2.34102e-05
6.56524e-06
-2.59153e-05
2.59738e-05
6.75558e-06
-2.72607e-05
2.70703e-05
6.89548e-06
-2.73708e-05
2.72309e-05
6.98328e-06
-2.78009e-05
2.77131e-05
7.29805e-06
-2.70783e-05
2.67636e-05
7.46706e-06
-2.64538e-05
2.62847e-05
7.48505e-06
-2.72431e-05
2.72251e-05
7.64621e-06
-2.49385e-05
2.47773e-05
7.71987e-06
-2.01401e-05
2.00665e-05
7.51461e-06
-1.62216e-05
1.64268e-05
7.42927e-06
-1.29687e-05
1.30541e-05
7.59525e-06
-9.41776e-06
9.25177e-06
7.74663e-06
-4.81117e-06
4.65979e-06
7.88984e-06
1.4404e-06
-1.5836e-06
8.14489e-06
6.94002e-06
-7.19507e-06
8.37477e-06
9.02439e-06
-9.25427e-06
8.5194e-06
1.06189e-05
-1.07635e-05
8.68896e-06
1.50092e-05
-1.51788e-05
8.77552e-06
1.96532e-05
-1.97398e-05
8.79247e-06
2.17084e-05
-2.17254e-05
8.93037e-06
2.21118e-05
-2.22497e-05
9.38478e-06
2.28074e-05
-2.32618e-05
1.00065e-05
2.46899e-05
-2.53116e-05
1.03986e-05
2.68281e-05
-2.72202e-05
1.04904e-05
2.69924e-05
-2.70842e-05
1.03045e-05
2.50336e-05
-2.48477e-05
9.89157e-06
2.27971e-05
-2.23842e-05
9.28744e-06
2.07654e-05
-2.01613e-05
8.30425e-06
1.68425e-05
-1.58594e-05
6.9082e-06
1.112e-05
-9.72395e-06
5.79655e-06
5.05943e-06
-3.94778e-06
5.5727e-06
3.07826e-06
-2.85441e-06
5.57998e-06
8.16373e-06
-8.17102e-06
5.42199e-06
1.74659e-05
-1.73079e-05
5.53656e-06
2.70473e-05
-2.71619e-05
5.94925e-06
2.90482e-05
-2.94609e-05
6.40926e-06
2.87667e-05
-2.92267e-05
6.90958e-06
2.53255e-05
-2.58258e-05
7.49999e-06
2.08945e-05
-2.14849e-05
8.09605e-06
1.75147e-05
-1.81107e-05
8.54597e-06
1.40614e-05
-1.45113e-05
8.89663e-06
1.07372e-05
-1.10878e-05
9.32248e-06
7.39349e-06
-7.81934e-06
9.90469e-06
2.38786e-06
-2.97007e-06
1.04409e-05
-3.12559e-06
2.58935e-06
1.10324e-05
-6.26801e-06
5.67659e-06
1.15207e-05
-7.8049e-06
7.31658e-06
1.18586e-05
-1.13349e-05
1.0997e-05
1.20889e-05
-1.42924e-05
1.40621e-05
1.20486e-05
-1.43636e-05
1.44039e-05
1.17375e-05
-1.49509e-05
1.52619e-05
1.1482e-05
-1.53626e-05
1.56181e-05
1.12208e-05
-1.42808e-05
1.4542e-05
1.07857e-05
-1.37326e-05
1.41676e-05
1.02532e-05
-1.32677e-05
1.38002e-05
9.84951e-06
-1.15528e-05
1.19565e-05
9.44437e-06
-1.06102e-05
1.10154e-05
9.06881e-06
-1.16922e-05
1.20678e-05
8.81996e-06
-1.23125e-05
1.25614e-05
8.41834e-06
-1.45965e-05
1.49981e-05
8.21135e-06
-1.38209e-05
1.40279e-05
7.76263e-06
-1.60885e-05
1.65372e-05
7.52527e-06
-1.25596e-05
1.27969e-05
7.341e-06
-1.1708e-05
1.18922e-05
6.84762e-06
-7.41269e-06
7.90607e-06
6.97508e-06
-1.03396e-05
1.02122e-05
6.7342e-06
-1.11879e-05
1.14288e-05
6.09712e-06
-1.23567e-05
1.29938e-05
5.8326e-06
-7.51074e-06
7.77525e-06
5.89916e-06
-1.58275e-05
1.5761e-05
6.15035e-06
-1.33393e-05
1.30881e-05
6.65716e-06
-1.46403e-05
1.41335e-05
7.41017e-06
-1.6519e-05
1.5766e-05
8.41898e-06
-1.54954e-05
1.44866e-05
9.14927e-06
-1.18209e-05
1.10906e-05
9.52568e-06
-1.07218e-05
1.03454e-05
9.47274e-06
-9.68953e-06
9.74247e-06
9.16805e-06
-9.41917e-06
9.72386e-06
9.21114e-06
-6.43814e-06
6.39505e-06
9.2792e-06
-3.73825e-06
3.67018e-06
9.54765e-06
-1.35631e-06
1.08786e-06
1.00566e-05
1.88451e-06
-2.39346e-06
1.06573e-05
4.055e-06
-4.65572e-06
1.09738e-05
6.26275e-06
-6.57923e-06
1.0985e-05
8.40435e-06
-8.41558e-06
1.07517e-05
9.51154e-06
-9.2782e-06
1.02789e-05
1.08688e-05
-1.0396e-05
9.56927e-06
1.19065e-05
-1.11969e-05
9.13e-06
1.20633e-05
-1.1624e-05
8.86064e-06
1.23469e-05
-1.20775e-05
8.56672e-06
1.28832e-05
-1.25892e-05
8.43348e-06
1.26715e-05
-1.25382e-05
8.1094e-06
1.37317e-05
-1.34076e-05
7.77221e-06
1.44084e-05
-1.40712e-05
7.58191e-06
1.31409e-05
-1.29506e-05
6.9932e-06
1.28181e-05
-1.22294e-05
6.56327e-06
1.1544e-05
-1.1114e-05
6.30652e-06
1.14472e-05
-1.11905e-05
6.48918e-06
1.67297e-05
-1.69124e-05
6.32912e-06
2.16402e-05
-2.14801e-05
6.17196e-06
2.27694e-05
-2.26122e-05
6.04688e-06
2.27468e-05
-2.26217e-05
6.17391e-06
2.43572e-05
-2.44842e-05
6.2738e-06
2.4462e-05
-2.45619e-05
5.8757e-06
2.36347e-05
-2.32366e-05
5.03497e-06
2.10757e-05
-2.0235e-05
4.40583e-06
1.86161e-05
-1.79869e-05
3.83725e-06
1.47683e-05
-1.41997e-05
3.78352e-06
1.30403e-05
-1.29865e-05
3.16329e-06
1.25455e-05
-1.19253e-05
1.33805e-05
-1.30392e-05
2.82196e-06
3.99434e-06
-1.01907e-07
4.00716e-06
-1.23818e-07
3.8063e-06
2.64692e-07
3.84159e-06
1.17165e-06
4.47618e-06
2.48164e-06
4.99013e-06
2.42127e-06
5.51819e-06
1.34868e-06
6.72942e-06
1.93876e-06
8.44015e-06
2.74506e-06
1.0013e-05
3.3652e-06
1.09361e-05
4.38728e-06
1.1393e-05
3.60807e-06
1.16697e-05
1.8619e-06
1.20494e-05
2.09139e-07
1.23382e-05
-1.40936e-06
1.24892e-05
-3.14535e-06
1.26472e-05
-4.40711e-06
1.2966e-05
-5.77705e-06
1.34399e-05
-7.62935e-06
1.39058e-05
-9.1083e-06
1.46279e-05
-1.05875e-05
1.55814e-05
-1.25602e-05
1.63102e-05
-1.45128e-05
1.6569e-05
-1.63755e-05
1.64057e-05
-1.78301e-05
1.59256e-05
-1.83453e-05
1.55267e-05
-1.88908e-05
1.51459e-05
-1.90957e-05
1.47808e-05
-1.95383e-05
1.46275e-05
-1.92493e-05
1.46711e-05
-1.99543e-05
1.46891e-05
-1.99711e-05
1.46529e-05
-1.95122e-05
1.47614e-05
-1.92531e-05
1.50366e-05
-1.86718e-05
1.54732e-05
-1.8138e-05
1.58813e-05
-1.70344e-05
1.62145e-05
-1.51543e-05
1.63461e-05
-1.29576e-05
1.63314e-05
-1.05205e-05
1.61197e-05
-7.51328e-06
1.56422e-05
-4.54677e-06
1.5034e-05
-1.8444e-06
1.41803e-05
9.41349e-07
1.31696e-05
2.84032e-06
1.22067e-05
4.33401e-06
1.12561e-05
5.55161e-06
1.04142e-05
5.83828e-06
9.75429e-06
5.92479e-06
9.1641e-06
6.32853e-06
8.51826e-06
6.37874e-06
8.01488e-06
5.226e-06
7.83011e-06
5.26389e-06
7.49773e-06
7.07459e-06
6.78676e-06
6.97676e-06
6.18822e-06
4.79849e-06
6.09212e-06
3.53802e-06
6.68605e-06
6.0726e-06
7.33439e-06
1.12578e-05
7.39814e-06
1.43425e-05
7.22001e-06
1.53717e-05
7.30158e-06
1.63425e-05
7.57221e-06
1.75866e-05
7.85747e-06
1.86154e-05
8.05387e-06
1.95935e-05
8.16026e-06
2.09665e-05
8.44778e-06
2.17836e-05
8.83091e-06
2.15815e-05
9.0648e-06
2.21219e-05
9.2977e-06
2.22889e-05
9.45336e-06
2.02512e-05
9.4151e-06
1.72565e-05
9.43356e-06
1.42803e-05
9.58564e-06
1.05864e-05
9.6327e-06
5.78465e-06
9.46885e-06
4.35484e-08
9.29797e-06
-5.43422e-06
9.08303e-06
-9.82214e-06
8.72863e-06
-1.44777e-05
8.48139e-06
-1.90518e-05
8.46408e-06
-2.08785e-05
8.28891e-06
-2.12187e-05
7.8698e-06
-2.42453e-05
7.47362e-06
-2.84755e-05
7.29183e-06
-2.87357e-05
7.11367e-06
-2.49459e-05
6.84393e-06
-2.24298e-05
6.71317e-06
-2.20777e-05
6.55399e-06
-2.31848e-05
6.40487e-06
-2.57661e-05
6.53336e-06
-2.73892e-05
6.64263e-06
-2.74801e-05
6.67081e-06
-2.78291e-05
6.92596e-06
-2.73335e-05
7.05067e-06
-2.65785e-05
6.95916e-06
-2.71516e-05
7.05336e-06
-2.50327e-05
7.16526e-06
-2.0252e-05
7.03502e-06
-1.60913e-05
6.93587e-06
-1.28696e-05
6.97837e-06
-9.46025e-06
7.02311e-06
-4.85591e-06
7.13204e-06
1.33147e-06
7.44299e-06
6.62906e-06
7.75659e-06
8.71078e-06
7.93851e-06