/*--------------------------------*- C++ -*----------------------------------*\
| =========                 |                                                 |
| \\      /  F ield         | OpenFOAM: The Open Source CFD Toolbox           |
|  \\    /   O peration     | Version:  2.4.0                                 |
|   \\  /    A nd           | Web:      www.OpenFOAM.org                      |
|    \\/     M anipulation  |                                                 |
\*---------------------------------------------------------------------------*/
FoamFile
{
    version     2.0;
    format      ascii;
    class       volSymmTensorField;
    location    "0.271";
    object      UPrime2Mean;
}
// * * * * * * * * * * * * * * * * * * * * * * * * * * * * * * * * * * * * * //

dimensions      [0 2 -2 0 0 0 0];

internalField   nonuniform List<symmTensor> 
17600
(
(0.0145924 -0.0015821 0 0.000238238 0 0)
(0.150209 -0.000601837 0 1.37107e-05 0 0)
(0.195236 -2.86487e-07 0 9.91534e-07 0 0)
(0.216741 -0.000155096 0 6.2995e-07 0 0)
(0.231873 -0.000119554 0 3.50969e-07 0 0)
(0.243197 -5.09406e-05 0 2.67995e-07 0 0)
(0.251023 -1.36658e-05 0 2.52743e-07 0 0)
(0.257625 2.95437e-07 0 2.61328e-07 0 0)
(0.261772 6.59772e-06 0 3.21631e-07 0 0)
(0.265954 7.15413e-07 0 3.9911e-07 0 0)
(0.268263 -1.38805e-06 0 4.7406e-07 0 0)
(0.271926 -1.91795e-05 0 6.70236e-07 0 0)
(0.273937 -1.84528e-05 0 7.99182e-07 0 0)
(0.27844 -5.34e-05 0 1.20132e-06 0 0)
(0.281391 -5.81177e-05 0 1.37794e-06 0 0)
(0.28993 -0.000171354 0 2.67225e-06 0 0)
(0.298551 -0.000276572 0 3.15559e-06 0 0)
(0.334601 0.000140462 0 1.09242e-05 0 0)
(0.406212 -0.0111923 0 0.000466715 0 0)
(0.768148 0.0568185 0 0.0076553 0 0)
(0.00702371 0.00315521 0 0.00248844 0 0)
(0.0616554 -0.00589966 0 0.000595951 0 0)
(0.124903 -0.00334138 0 9.10974e-05 0 0)
(0.167891 -0.00236902 0 3.68299e-05 0 0)
(0.204708 -0.00195021 0 2.8939e-05 0 0)
(0.240743 -0.00163236 0 2.67365e-05 0 0)
(0.269922 -0.00130347 0 2.1424e-05 0 0)
(0.297092 -0.00101814 0 1.44207e-05 0 0)
(0.315212 -0.000781983 0 8.827e-06 0 0)
(0.33455 -0.000655475 0 6.62922e-06 0 0)
(0.344903 -0.000584534 0 5.08297e-06 0 0)
(0.361911 -0.000588979 0 6.52507e-06 0 0)
(0.369166 -0.000641158 0 8.10439e-06 0 0)
(0.388564 -0.000636426 0 1.28623e-05 0 0)
(0.394881 -0.0010412 0 1.72747e-05 0 0)
(0.427193 -0.000878763 0 3.74159e-05 0 0)
(0.430808 -0.00314522 0 7.36101e-05 0 0)
(0.563825 -0.00438543 0 0.000234838 0 0)
(0.56238 -0.0145704 0 0.00106448 0 0)
(1.64067 -0.163215 0 0.0360298 0 0)
(0.0250241 0.0094998 0 0.00393147 0 0)
(0.010287 -0.00378062 0 0.00170781 0 0)
(0.0440214 -0.00425174 0 0.00044789 0 0)
(0.0763194 -0.00406007 0 0.000221311 0 0)
(0.111398 -0.00400871 0 0.000168485 0 0)
(0.15392 -0.00385293 0 0.00015196 0 0)
(0.19274 -0.00339856 0 0.000126195 0 0)
(0.232768 -0.00286 0 8.74811e-05 0 0)
(0.260713 -0.00232147 0 5.42315e-05 0 0)
(0.292666 -0.00199294 0 3.52874e-05 0 0)
(0.309467 -0.00175972 0 2.20481e-05 0 0)
(0.339001 -0.00181396 0 2.62917e-05 0 0)
(0.349842 -0.00180723 0 2.7708e-05 0 0)
(0.383389 -0.00204579 0 5.02328e-05 0 0)
(0.391103 -0.00259378 0 6.00223e-05 0 0)
(0.440356 -0.00292918 0 0.000156232 0 0)
(0.448271 -0.00728846 0 0.000280583 0 0)
(0.585278 -0.00892917 0 0.00102765 0 0)
(0.666307 -0.0393093 0 0.00461005 0 0)
(1.40306 -0.219068 0 0.0747752 0 0)
(0.033297 0.0105552 0 0.00355381 0 0)
(0.00103799 0.000710221 0 0.00267392 0 0)
(0.00624026 -0.00160082 0 0.000987612 0 0)
(0.0145493 -0.00258174 0 0.000589146 0 0)
(0.0279319 -0.00350838 0 0.000476773 0 0)
(0.0530009 -0.00428911 0 0.0004335 0 0)
(0.0813412 -0.00438076 0 0.000375491 0 0)
(0.116738 -0.00411252 0 0.000270375 0 0)
(0.143026 -0.00353998 0 0.000177395 0 0)
(0.176696 -0.00316974 0 0.000110834 0 0)
(0.193967 -0.00295104 0 7.22838e-05 0 0)
(0.227849 -0.00280328 0 6.69824e-05 0 0)
(0.238811 -0.00327087 0 8.11368e-05 0 0)
(0.27764 -0.0026564 0 0.000121049 0 0)
(0.285808 -0.00507734 0 0.000187911 0 0)
(0.333809 -0.00243119 0 0.0004011 0 0)
(0.358286 -0.0135492 0 0.00092463 0 0)
(0.422687 -0.00727415 0 0.00214212 0 0)
(0.629011 -0.0710695 0 0.0134809 0 0)
(0.821986 -0.115405 0 0.0578093 0 0)
(0.031207 0.00851078 0 0.00248551 0 0)
(0.00362632 0.00274455 0 0.00279457 0 0)
(0.00513262 0.0014843 0 0.00123423 0 0)
(0.0055266 0.000902746 0 0.000908703 0 0)
(0.00432313 8.59501e-06 0 0.000857792 0 0)
(0.00675073 -0.00150143 0 0.000828007 0 0)
(0.014354 -0.00244962 0 0.00075297 0 0)
(0.0302915 -0.00315467 0 0.000576779 0 0)
(0.0442511 -0.00303453 0 0.000394012 0 0)
(0.0663734 -0.00314474 0 0.000261745 0 0)
(0.0777577 -0.00289164 0 0.000161649 0 0)
(0.103148 -0.00335474 0 0.00017541 0 0)
(0.112845 -0.00315074 0 0.000150436 0 0)
(0.139988 -0.00428848 0 0.000290242 0 0)
(0.154649 -0.00368888 0 0.000287666 0 0)
(0.179119 -0.00759331 0 0.000848715 0 0)
(0.214066 -0.00618469 0 0.00110226 0 0)
(0.24997 -0.0252253 0 0.00554883 0 0)
(0.373846 -0.0377595 0 0.0107011 0 0)
(0.570282 -0.165114 0 0.134749 0 0)
(0.0296788 0.00694181 0 0.00177655 0 0)
(0.0043413 0.00244215 0 0.00249272 0 0)
(0.00855935 0.00218125 0 0.00106518 0 0)
(0.0136755 0.0026674 0 0.00087803 0 0)
(0.0169244 0.0032136 0 0.00101579 0 0)
(0.0137955 0.00245881 0 0.00111892 0 0)
(0.0119812 0.00160924 0 0.00111131 0 0)
(0.0103051 0.000107837 0 0.00090593 0 0)
(0.0116849 -0.000431887 0 0.000696928 0 0)
(0.0168004 -0.00121536 0 0.000464291 0 0)
(0.019278 -0.00140933 0 0.000339728 0 0)
(0.0297404 -0.00194956 0 0.000309363 0 0)
(0.0322421 -0.0025065 0 0.000364118 0 0)
(0.0465168 -0.0028004 0 0.000470189 0 0)
(0.0515189 -0.00442021 0 0.000744545 0 0)
(0.0678952 -0.00456794 0 0.00125219 0 0)
(0.0799952 -0.0106546 0 0.00276599 0 0)
(0.113811 -0.0131912 0 0.00532585 0 0)
(0.172766 -0.0484006 0 0.0243073 0 0)
(0.33406 -0.107678 0 0.0919995 0 0)
(0.0310817 0.00602473 0 0.0013287 0 0)
(0.00600849 0.00189845 0 0.00223287 0 0)
(0.0101951 0.00184575 0 0.000872985 0 0)
(0.0165738 0.00243836 0 0.000665084 0 0)
(0.0250765 0.00377449 0 0.000879222 0 0)
(0.026695 0.00413993 0 0.00111262 0 0)
(0.0305589 0.0043648 0 0.00122949 0 0)
(0.0267612 0.00319287 0 0.00111766 0 0)
(0.0278119 0.00261967 0 0.000875203 0 0)
(0.0236381 0.00149405 0 0.000702392 0 0)
(0.0240709 0.00121937 0 0.000484332 0 0)
(0.0209747 0.000236734 0 0.000574711 0 0)
(0.0208146 1.48232e-05 0 0.00047027 0 0)
(0.0198543 -0.00127523 0 0.000851944 0 0)
(0.0198389 -0.00143585 0 0.000853396 0 0)
(0.0227935 -0.00405422 0 0.00207532 0 0)
(0.0232751 -0.00473289 0 0.0025819 0 0)
(0.0428917 -0.0136515 0 0.00991168 0 0)
(0.0683045 -0.0262044 0 0.018662 0 0)
(0.186479 -0.081989 0 0.119004 0 0)
(0.0348406 0.00534575 0 0.00100323 0 0)
(0.00931381 0.00157693 0 0.00200328 0 0)
(0.0113832 0.00159167 0 0.000817912 0 0)
(0.0176989 0.00199646 0 0.000534305 0 0)
(0.0251849 0.00324416 0 0.000717613 0 0)
(0.0276452 0.00385729 0 0.00097666 0 0)
(0.0351574 0.00468764 0 0.00115414 0 0)
(0.0341315 0.00402699 0 0.00106601 0 0)
(0.040777 0.00383765 0 0.000992564 0 0)
(0.0389949 0.00289472 0 0.000787479 0 0)
(0.0439132 0.00304038 0 0.00067712 0 0)
(0.0412456 0.00198519 0 0.000699132 0 0)
(0.0432387 0.00237339 0 0.000814858 0 0)
(0.0396632 0.000678913 0 0.00104824 0 0)
(0.0391354 0.00140445 0 0.00144864 0 0)
(0.0364183 -0.00196384 0 0.00237149 0 0)
(0.0336706 -0.000755445 0 0.00396674 0 0)
(0.0405255 -0.00768273 0 0.00915977 0 0)
(0.0497067 -0.0148029 0 0.0270896 0 0)
(0.121261 -0.0400873 0 0.133063 0 0)
(0.0380515 0.00472686 0 0.000769073 0 0)
(0.0102046 0.00139791 0 0.00176114 0 0)
(0.0100475 0.00145791 0 0.000828686 0 0)
(0.0163631 0.00173582 0 0.00047722 0 0)
(0.0214515 0.00268762 0 0.000607348 0 0)
(0.0235436 0.00323544 0 0.00085571 0 0)
(0.0300495 0.00415042 0 0.00106294 0 0)
(0.0298182 0.00367008 0 0.00108584 0 0)
(0.0377075 0.00356018 0 0.000882713 0 0)
(0.037698 0.00303487 0 0.000860101 0 0)
(0.0465417 0.00296017 0 0.000708422 0 0)
(0.0464709 0.00291761 0 0.000919689 0 0)
(0.0548101 0.00257133 0 0.000868879 0 0)
(0.053972 0.00273024 0 0.00139583 0 0)
(0.0600511 0.00202181 0 0.0015646 0 0)
(0.0580871 0.00163225 0 0.00300756 0 0)
(0.0609667 0.00111902 0 0.00419568 0 0)
(0.0619792 -0.00118315 0 0.011523 0 0)
(0.0681946 -0.00203255 0 0.0299149 0 0)
(0.109783 -0.00916221 0 0.114793 0 0)
(0.0362197 0.00405228 0 0.000620675 0 0)
(0.00675965 0.00129525 0 0.00155531 0 0)
(0.00663067 0.00131151 0 0.000870662 0 0)
(0.0120072 0.00146171 0 0.000456211 0 0)
(0.0166801 0.00213087 0 0.000551801 0 0)
(0.0193648 0.00273862 0 0.000792191 0 0)
(0.0235427 0.00354175 0 0.00100465 0 0)
(0.0252988 0.00315254 0 0.00094921 0 0)
(0.0306593 0.00293018 0 0.000928615 0 0)
(0.0334666 0.00245907 0 0.000876235 0 0)
(0.039372 0.00259055 0 0.000813402 0 0)
(0.0437696 0.00245488 0 0.000950313 0 0)
(0.0499759 0.00245615 0 0.00103176 0 0)
(0.0550824 0.0024464 0 0.00148792 0 0)
(0.0592418 0.00245024 0 0.00176322 0 0)
(0.0652928 0.00205084 0 0.00312656 0 0)
(0.0667353 0.00208904 0 0.00463374 0 0)
(0.073711 0.00400797 0 0.0124929 0 0)
(0.0758837 0.00307377 0 0.0310259 0 0)
(0.111127 0.0156898 0 0.117835 0 0)
(0.0319061 0.00328216 0 0.000509172 0 0)
(0.00333577 0.00098192 0 0.00137144 0 0)
(0.00448441 0.000977355 0 0.000872121 0 0)
(0.00896265 0.00104136 0 0.000449851 0 0)
(0.0138518 0.00145914 0 0.000534789 0 0)
(0.0172623 0.00225786 0 0.000785765 0 0)
(0.0206677 0.00280358 0 0.000965427 0 0)
(0.023598 0.00253552 0 0.00100218 0 0)
(0.0271565 0.00205424 0 0.000863325 0 0)
(0.0311623 0.00208874 0 0.000899919 0 0)
(0.0354627 0.0016839 0 0.000817211 0 0)
(0.041541 0.0021895 0 0.00103867 0 0)
(0.0461871 0.00148552 0 0.00103573 0 0)
(0.051621 0.00241041 0 0.00155203 0 0)
(0.0561719 0.0017172 0 0.00171018 0 0)
(0.0627689 0.00214747 0 0.00311724 0 0)
(0.0647454 0.0024606 0 0.00469815 0 0)
(0.070392 0.00446801 0 0.01239 0 0)
(0.075476 0.00704081 0 0.0324139 0 0)
(0.104237 0.0231932 0 0.108184 0 0)
(0.0305961 0.00265399 0 0.000430784 0 0)
(0.00301021 0.000475947 0 0.0011876 0 0)
(0.00452201 0.000506321 0 0.00086458 0 0)
(0.0086581 0.000685309 0 0.000427541 0 0)
(0.0132909 0.000957299 0 0.000539481 0 0)
(0.0164516 0.00170767 0 0.000780895 0 0)
(0.0195301 0.00221064 0 0.00092003 0 0)
(0.0221486 0.0020045 0 0.000884451 0 0)
(0.0251062 0.00163788 0 0.000889314 0 0)
(0.0289465 0.0014793 0 0.000915022 0 0)
(0.0333177 0.0013852 0 0.000816052 0 0)
(0.0385285 0.00159246 0 0.000972924 0 0)
(0.0426766 0.00119905 0 0.00100203 0 0)
(0.0476435 0.00195599 0 0.00148631 0 0)
(0.0530422 0.00134431 0 0.00152194 0 0)
(0.0576974 0.00255579 0 0.00310136 0 0)
(0.0602477 0.00228372 0 0.00444098 0 0)
(0.0653547 0.00645831 0 0.0129437 0 0)
(0.0718385 0.00873168 0 0.0314238 0 0)
(0.0983239 0.0266829 0 0.106682 0 0)
(0.0308498 0.00216676 0 0.000353157 0 0)
(0.00318488 0.000136951 0 0.00101407 0 0)
(0.00388957 0.000146063 0 0.000851273 0 0)
(0.00708302 0.00052796 0 0.000437946 0 0)
(0.0118898 0.00078879 0 0.000514154 0 0)
(0.0150038 0.00141116 0 0.000727747 0 0)
(0.0174542 0.00183118 0 0.0008428 0 0)
(0.0195567 0.00183567 0 0.000845836 0 0)
(0.022557 0.00144092 0 0.00079924 0 0)
(0.026256 0.00133686 0 0.000814972 0 0)
(0.0300004 0.00114343 0 0.000733993 0 0)
(0.0344464 0.00148584 0 0.000903671 0 0)
(0.0385649 0.00121328 0 0.000872827 0 0)
(0.0439069 0.00180327 0 0.00130362 0 0)
(0.0478011 0.00150311 0 0.00134537 0 0)
(0.0521274 0.00223556 0 0.0028203 0 0)
(0.0547494 0.00305431 0 0.00440936 0 0)
(0.0600773 0.00667985 0 0.01258 0 0)
(0.0665143 0.0100906 0 0.0312331 0 0)
(0.0939334 0.0309035 0 0.103273 0 0)
(0.0305294 0.0018107 0 0.000288162 0 0)
(0.00229049 0.000131386 0 0.000833447 0 0)
(0.00282691 8.11148e-05 0 0.000777559 0 0)
(0.00578142 0.000478749 0 0.000426497 0 0)
(0.010439 0.000787359 0 0.00047865 0 0)
(0.01361 0.00129625 0 0.0006531 0 0)
(0.0156254 0.00165417 0 0.000758767 0 0)
(0.0176725 0.00165299 0 0.000729555 0 0)
(0.0202117 0.00148209 0 0.000714736 0 0)
(0.0238996 0.00126373 0 0.000730068 0 0)
(0.0271257 0.00114537 0 0.000653173 0 0)
(0.0316881 0.00133535 0 0.000789583 0 0)
(0.0352293 0.00122788 0 0.000731072 0 0)
(0.0402732 0.00176305 0 0.00119075 0 0)
(0.0431975 0.0014059 0 0.00117611 0 0)
(0.0481972 0.00245872 0 0.00273958 0 0)
(0.050619 0.002991 0 0.00436823 0 0)
(0.0566411 0.00660653 0 0.0125853 0 0)
(0.0639338 0.011304 0 0.0307198 0 0)
(0.0927225 0.0322547 0 0.0987824 0 0)
(0.0301471 0.00148738 0 0.000222234 0 0)
(0.00153462 0.000249395 0 0.000652305 0 0)
(0.00237599 0.000220346 0 0.000613488 0 0)
(0.00514733 0.000524207 0 0.000388476 0 0)
(0.00910924 0.000713361 0 0.000443077 0 0)
(0.0120421 0.00120359 0 0.000588327 0 0)
(0.0138766 0.00143234 0 0.000672596 0 0)
(0.0158263 0.00143793 0 0.000679818 0 0)
(0.0180939 0.00121448 0 0.000652319 0 0)
(0.0215299 0.0011093 0 0.000649513 0 0)
(0.0249278 0.000874323 0 0.000563698 0 0)
(0.0294468 0.00111533 0 0.000700526 0 0)
(0.0327242 0.000808446 0 0.000635 0 0)
(0.0372759 0.00133945 0 0.00109093 0 0)
(0.0403504 0.000928066 0 0.00108548 0 0)
(0.0454213 0.00219752 0 0.00265232 0 0)
(0.048254 0.00242725 0 0.00441134 0 0)
(0.0547924 0.00663159 0 0.0127279 0 0)
(0.0629566 0.0120614 0 0.0300957 0 0)
(0.0925501 0.0324603 0 0.0914045 0 0)
(0.0301564 0.00116078 0 0.000182845 0 0)
(0.00120295 0.000151189 0 0.000517699 0 0)
(0.00207075 0.000148959 0 0.000495095 0 0)
(0.00466357 0.000390527 0 0.000362445 0 0)
(0.00857285 0.000452632 0 0.000436726 0 0)
(0.0111758 0.000812955 0 0.000555492 0 0)
(0.0130276 0.0010736 0 0.000632047 0 0)
(0.0147036 0.00100473 0 0.00061846 0 0)
(0.0171407 0.000810361 0 0.000643446 0 0)
(0.0200536 0.000567013 0 0.000647249 0 0)
(0.023634 0.000502535 0 0.00055792 0 0)
(0.0276086 0.000594483 0 0.000671617 0 0)
(0.0313661 0.000431206 0 0.000602447 0 0)
(0.0353428 0.000684642 0 0.00108079 0 0)
(0.0389883 0.000701416 0 0.00103107 0 0)
(0.0432814 0.00151238 0 0.00269092 0 0)
(0.0472364 0.00246798 0 0.00444455 0 0)
(0.0533113 0.0062472 0 0.0127336 0 0)
(0.0627649 0.0132749 0 0.0297947 0 0)
(0.0933829 0.0323732 0 0.0812939 0 0)
(0.0302024 0.000826162 0 0.000157409 0 0)
(0.00107491 -4.86506e-05 0 0.000433094 0 0)
(0.00199661 -0.000102504 0 0.000435842 0 0)
(0.00434939 9.42807e-05 0 0.0003737 0 0)
(0.00820458 9.93783e-05 0 0.000451077 0 0)
(0.0106885 0.00033664 0 0.000552733 0 0)
(0.0125092 0.0005544 0 0.000610136 0 0)
(0.0138922 0.000531923 0 0.000602856 0 0)
(0.0163424 0.000369075 0 0.000616447 0 0)
(0.0190961 0.000194297 0 0.000610294 0 0)
(0.022654 0.000185051 0 0.00049918 0 0)
(0.0263472 0.000326581 0 0.000594133 0 0)
(0.0302871 0.000125811 0 0.000516752 0 0)
(0.0339915 0.000458436 0 0.000965795 0 0)
(0.0376273 0.000367901 0 0.000977558 0 0)
(0.041669 0.00139484 0 0.00252754 0 0)
(0.0461188 0.0021805 0 0.00442388 0 0)
(0.0523076 0.00660274 0 0.0125702 0 0)
(0.0628618 0.0132728 0 0.0283151 0 0)
(0.0932503 0.0362633 0 0.0781285 0 0)
(0.0301636 0.000555826 0 0.000132412 0 0)
(0.00119394 -8.31089e-05 0 0.000348029 0 0)
(0.00228842 -0.000182436 0 0.000353422 0 0)
(0.00447213 -4.48368e-05 0 0.000344314 0 0)
(0.00803335 -2.53049e-05 0 0.000414639 0 0)
(0.0105165 0.000140154 0 0.000496486 0 0)
(0.0121686 0.000254752 0 0.000546904 0 0)
(0.0136347 0.000239604 0 0.000546474 0 0)
(0.0157461 0.000172688 0 0.000548719 0 0)
(0.018639 0.000132848 0 0.00053792 0 0)
(0.0219041 0.000101802 0 0.000415978 0 0)
(0.02572 0.000237008 0 0.000520575 0 0)
(0.0292595 3.25853e-05 0 0.000435208 0 0)
(0.033138 0.000321124 0 0.000864487 0 0)
(0.0362728 0.000157926 0 0.00100326 0 0)
(0.0408213 0.00127267 0 0.00227434 0 0)
(0.0451282 0.00203821 0 0.00477052 0 0)
(0.0522801 0.0067391 0 0.0116173 0 0)
(0.0637882 0.0134706 0 0.0290021 0 0)
(0.0956003 0.0377224 0 0.0723156 0 0)
(0.030084 0.000348064 0 0.000106726 0 0)
(0.00112641 -4.0777e-05 0 0.000254879 0 0)
(0.00227946 -8.26724e-05 0 0.000247777 0 0)
(0.00448807 1.30398e-05 0 0.000257115 0 0)
(0.00785441 3.34053e-05 0 0.000328451 0 0)
(0.0103068 0.000110094 0 0.000382212 0 0)
(0.0118979 0.000239998 0 0.00041716 0 0)
(0.0135389 0.000149266 0 0.000415029 0 0)
(0.0155463 0.00018864 0 0.000429407 0 0)
(0.0183581 5.38386e-05 0 0.000429359 0 0)
(0.0213464 8.4632e-05 0 0.000338314 0 0)
(0.0250472 4.01627e-05 0 0.000448009 0 0)
(0.0284118 -4.21832e-05 0 0.000377484 0 0)
(0.0324696 -6.73773e-06 0 0.000790278 0 0)
(0.0355964 7.84813e-05 0 0.000959329 0 0)
(0.0404171 0.000948791 0 0.0021895 0 0)
(0.0447364 0.00217528 0 0.00472718 0 0)
(0.0527832 0.00643021 0 0.0112585 0 0)
(0.0650327 0.0141829 0 0.0283926 0 0)
(0.0967762 0.0344317 0 0.0616378 0 0)
(0.0300642 9.77963e-05 0 9.45719e-05 0 0)
(0.000931006 -4.58538e-05 0 0.000216894 0 0)
(0.001996 -3.23472e-05 0 0.000191756 0 0)
(0.00417476 2.73276e-05 0 0.000209001 0 0)
(0.00757488 -1.14522e-05 0 0.000278655 0 0)
(0.00997983 3.19525e-05 0 0.000321233 0 0)
(0.0115593 8.42071e-05 0 0.000337216 0 0)
(0.0130484 0.000102846 0 0.000338191 0 0)
(0.0151976 5.7075e-05 0 0.000354516 0 0)
(0.0179103 -3.10225e-05 0 0.000382999 0 0)
(0.0210105 -0.000174895 0 0.000305259 0 0)
(0.0244284 -5.51583e-05 0 0.000416763 0 0)
(0.0280513 -0.000350082 0 0.000329404 0 0)
(0.0319211 -5.12132e-05 0 0.000777961 0 0)
(0.0354577 -0.000240361 0 0.000804702 0 0)
(0.0399634 0.00101575 0 0.00239885 0 0)
(0.044808 0.00188786 0 0.00395846 0 0)
(0.053038 0.00663762 0 0.0124727 0 0)
(0.0665803 0.0139205 0 0.023984 0 0)
(0.0988962 0.0322951 0 0.0627259 0 0)
(0.0300258 -0.00011576 0 8.54831e-05 0 0)
(0.000719583 -8.71596e-05 0 0.000200844 0 0)
(0.00174469 -7.41005e-05 0 0.000172136 0 0)
(0.00392772 -6.90413e-05 0 0.000189612 0 0)
(0.0074128 -8.0748e-05 0 0.000247513 0 0)
(0.00976335 -0.000188713 0 0.000281088 0 0)
(0.0113005 -0.000126203 0 0.000290596 0 0)
(0.0125907 -0.000201455 0 0.000307263 0 0)
(0.0147987 -0.000106207 0 0.000313525 0 0)
(0.0175091 -0.000306999 0 0.000358681 0 0)
(0.0208524 -0.00027527 0 0.000278774 0 0)
(0.0241923 -0.000362389 0 0.000396895 0 0)
(0.0280244 -0.000369014 0 0.000314147 0 0)
(0.0316048 -0.000423751 0 0.000692224 0 0)
(0.0354299 -0.000153641 0 0.000919715 0 0)
(0.0397841 0.000450058 0 0.00207953 0 0)
(0.0453049 0.0021515 0 0.00447714 0 0)
(0.0537927 0.00582503 0 0.0111166 0 0)
(0.068479 0.0147133 0 0.0244309 0 0)
(0.101801 0.0291739 0 0.0568706 0 0)
(0.0299885 -0.00036458 0 8.4043e-05 0 0)
(0.000648763 -0.000129078 0 0.000213373 0 0)
(0.00165527 -0.000118579 0 0.000180388 0 0)
(0.00387092 -0.000166154 0 0.000184408 0 0)
(0.00737849 -0.000190318 0 0.000239236 0 0)
(0.00974288 -0.000364731 0 0.00026287 0 0)
(0.0112617 -0.000408674 0 0.000289096 0 0)
(0.0125534 -0.000465961 0 0.000313632 0 0)
(0.0147758 -0.000402741 0 0.00032498 0 0)
(0.0175029 -0.000468388 0 0.000345396 0 0)
(0.0209692 -0.000514936 0 0.000280477 0 0)
(0.0243585 -0.000471544 0 0.000361405 0 0)
(0.0282407 -0.000673752 0 0.000316617 0 0)
(0.031788 -0.000518982 0 0.000641069 0 0)
(0.0358331 -0.000638049 0 0.000927485 0 0)
(0.0403642 0.000424549 0 0.00203992 0 0)
(0.0464822 0.00144983 0 0.00433226 0 0)
(0.055506 0.00610927 0 0.010817 0 0)
(0.0710271 0.0133386 0 0.0231382 0 0)
(0.104776 0.0318227 0 0.0549033 0 0)
(0.0299379 -0.000605697 0 8.66548e-05 0 0)
(0.000677996 -0.000164404 0 0.000245481 0 0)
(0.00168663 -0.000143387 0 0.000200853 0 0)
(0.00396519 -0.00025406 0 0.000181628 0 0)
(0.00747591 -0.000302618 0 0.000231609 0 0)
(0.0099469 -0.000582865 0 0.000260706 0 0)
(0.0114715 -0.000654989 0 0.00029253 0 0)
(0.0129458 -0.000742839 0 0.000330226 0 0)
(0.0150954 -0.000618532 0 0.00032586 0 0)
(0.0179496 -0.000679343 0 0.000349648 0 0)
(0.0213269 -0.000698301 0 0.000286738 0 0)
(0.0248642 -0.000705433 0 0.000354179 0 0)
(0.0285973 -0.000894154 0 0.000331532 0 0)
(0.0324324 -0.000807353 0 0.000607356 0 0)
(0.0365209 -0.000933755 0 0.000962856 0 0)
(0.0414701 0.000168337 0 0.00200323 0 0)
(0.0479028 0.00108337 0 0.00427334 0 0)
(0.0575543 0.00601635 0 0.0105103 0 0)
(0.0744131 0.0123304 0 0.0224714 0 0)
(0.109158 0.0333246 0 0.0523057 0 0)
(0.0298959 -0.000858848 0 9.41576e-05 0 0)
(0.000681196 -0.000186253 0 0.000298954 0 0)
(0.00170936 -0.000147068 0 0.000233893 0 0)
(0.00415908 -0.000321779 0 0.000178884 0 0)
(0.00774355 -0.000401161 0 0.000225419 0 0)
(0.0102889 -0.000796266 0 0.000268453 0 0)
(0.0118679 -0.000859567 0 0.000295855 0 0)
(0.013483 -0.00101435 0 0.000357391 0 0)
(0.0156583 -0.000763516 0 0.000318634 0 0)
(0.0185992 -0.000898358 0 0.000358542 0 0)
(0.0219729 -0.000791948 0 0.000282911 0 0)
(0.0256492 -0.00102188 0 0.000380219 0 0)
(0.0294066 -0.000976385 0 0.00034207 0 0)
(0.0334588 -0.00125532 0 0.000634976 0 0)
(0.0376234 -0.000910038 0 0.000985094 0 0)
(0.0429453 -0.000460357 0 0.00198358 0 0)
(0.0496541 0.00129112 0 0.00430053 0 0)
(0.0600655 0.00493275 0 0.0097806 0 0)
(0.0781726 0.0126773 0 0.0225888 0 0)
(0.112286 0.0283434 0 0.0430627 0 0)
(0.0298273 -0.00115513 0 0.000111593 0 0)
(0.000605344 -0.000209531 0 0.000373728 0 0)
(0.00161166 -0.000152257 0 0.000297141 0 0)
(0.00429991 -0.000358287 0 0.00017113 0 0)
(0.00807534 -0.00051528 0 0.000224793 0 0)
(0.0107187 -0.000962866 0 0.00028515 0 0)
(0.0123568 -0.00111726 0 0.000335695 0 0)
(0.014075 -0.00121261 0 0.000391833 0 0)
(0.0163566 -0.00101593 0 0.000352233 0 0)
(0.019387 -0.00103054 0 0.000366291 0 0)
(0.0228795 -0.00104418 0 0.000313265 0 0)
(0.0266942 -0.00116403 0 0.000387945 0 0)
(0.0306152 -0.00129235 0 0.000363925 0 0)
(0.0347891 -0.00141242 0 0.000685128 0 0)
(0.0391481 -0.00129076 0 0.000897379 0 0)
(0.0447495 -0.00062723 0 0.00226142 0 0)
(0.0518804 0.000751771 0 0.00361708 0 0)
(0.0631487 0.00455928 0 0.0106805 0 0)
(0.0822652 0.0114185 0 0.0191511 0 0)
(0.116928 0.0245541 0 0.0444655 0 0)
(0.0297553 -0.00145241 0 0.000138331 0 0)
(0.000565898 -0.000263319 0 0.000486603 0 0)
(0.00155857 -0.000203229 0 0.000375111 0 0)
(0.00448368 -0.000432937 0 0.000182583 0 0)
(0.00842977 -0.000607351 0 0.000227663 0 0)
(0.011264 -0.00121853 0 0.000325142 0 0)
(0.0130174 -0.0013228 0 0.000371084 0 0)
(0.0149051 -0.00153722 0 0.000464072 0 0)
(0.0172747 -0.00116843 0 0.000370554 0 0)
(0.0205029 -0.0013399 0 0.000414994 0 0)
(0.0240994 -0.00115024 0 0.000322356 0 0)
(0.0281311 -0.00153574 0 0.00041782 0 0)
(0.0321593 -0.00136054 0 0.000385754 0 0)
(0.0365432 -0.00191187 0 0.000675211 0 0)
(0.0411045 -0.00134464 0 0.000979744 0 0)
(0.047106 -0.00133959 0 0.00212615 0 0)
(0.0548054 0.000646909 0 0.00381797 0 0)
(0.0669902 0.0033057 0 0.0100202 0 0)
(0.0869929 0.0107548 0 0.0185227 0 0)
(0.122972 0.0205013 0 0.0443309 0 0)
(0.0297455 -0.00183602 0 0.000179969 0 0)
(0.000602967 -0.000337293 0 0.000610935 0 0)
(0.00165792 -0.00029827 0 0.000488266 0 0)
(0.00485377 -0.000525237 0 0.000188788 0 0)
(0.00895217 -0.000782495 0 0.000243659 0 0)
(0.0119682 -0.00145004 0 0.000369581 0 0)
(0.0139613 -0.00165198 0 0.000446469 0 0)
(0.0160259 -0.00178815 0 0.000528814 0 0)
(0.0185538 -0.00145548 0 0.000430201 0 0)
(0.0219607 -0.00153577 0 0.000444721 0 0)
(0.0257382 -0.0014584 0 0.000369924 0 0)
(0.0299709 -0.00174226 0 0.000437417 0 0)
(0.0342379 -0.00171834 0 0.00043158 0 0)
(0.0388578 -0.0021713 0 0.000686863 0 0)
(0.0437367 -0.00184452 0 0.001027 0 0)
(0.0500706 -0.00164664 0 0.00206823 0 0)
(0.0584964 -0.000177296 0 0.00384649 0 0)
(0.0713978 0.00271564 0 0.00930701 0 0)
(0.0926343 0.00865128 0 0.0182485 0 0)
(0.129409 0.0201901 0 0.0410345 0 0)
(0.029926 -0.00224122 0 0.000237942 0 0)
(0.000705094 -0.000438374 0 0.00078294 0 0)
(0.00189434 -0.000434619 0 0.000584162 0 0)
(0.00542395 -0.000652325 0 0.000217028 0 0)
(0.00974043 -0.000979452 0 0.000272725 0 0)
(0.0128907 -0.00176554 0 0.000444802 0 0)
(0.0152404 -0.00197902 0 0.000530593 0 0)
(0.0174841 -0.00214207 0 0.000626127 0 0)
(0.0202749 -0.00173002 0 0.000490996 0 0)
(0.0238284 -0.00184309 0 0.000501961 0 0)
(0.0278465 -0.0017322 0 0.000404879 0 0)
(0.0323394 -0.00213457 0 0.000488711 0 0)
(0.0368712 -0.00201707 0 0.000469049 0 0)
(0.0418589 -0.00265753 0 0.000750945 0 0)
(0.0470222 -0.0022466 0 0.00105117 0 0)
(0.0538059 -0.00223841 0 0.00213009 0 0)
(0.0627139 -0.00084841 0 0.00382146 0 0)
(0.0765673 0.00172695 0 0.00892201 0 0)
(0.099162 0.00670345 0 0.0182343 0 0)
(0.137055 0.0188956 0 0.0385377 0 0)
(0.0305734 -0.00274292 0 0.000320653 0 0)
(0.000927301 -0.000563571 0 0.00099162 0 0)
(0.0023596 -0.000648739 0 0.000658266 0 0)
(0.00615003 -0.00081553 0 0.000261288 0 0)
(0.0109978 -0.00126251 0 0.000325622 0 0)
(0.0138665 -0.00210524 0 0.000544703 0 0)
(0.0171033 -0.00240122 0 0.000647258 0 0)
(0.0190228 -0.00252758 0 0.000756754 0 0)
(0.0227241 -0.0020958 0 0.000578045 0 0)
(0.0258442 -0.00217037 0 0.000589218 0 0)
(0.0307085 -0.00204258 0 0.000447335 0 0)
(0.0348438 -0.0025724 0 0.000579189 0 0)
(0.0402898 -0.00231021 0 0.000494764 0 0)
(0.0450701 -0.00321302 0 0.00086508 0 0)
(0.0512054 -0.0025645 0 0.00102022 0 0)
(0.0579931 -0.00305129 0 0.00224826 0 0)
(0.0677638 -0.00123825 0 0.00364159 0 0)
(0.0824248 0.000170264 0 0.00864684 0 0)
(0.106289 0.00571268 0 0.017572 0 0)
(0.145245 0.013588 0 0.034946 0 0)
(0.0314453 -0.00335444 0 0.000435401 0 0)
(0.00131204 -0.000718132 0 0.00122744 0 0)
(0.0032112 -0.000958079 0 0.000719305 0 0)
(0.00701064 -0.00101158 0 0.000314908 0 0)
(0.0129632 -0.0016766 0 0.000399404 0 0)
(0.0147993 -0.00241184 0 0.000640658 0 0)
(0.0199059 -0.00296581 0 0.000785973 0 0)
(0.0204234 -0.00283241 0 0.000859545 0 0)
(0.0263864 -0.00267209 0 0.000704846 0 0)
(0.0277478 -0.00238154 0 0.000646211 0 0)
(0.0350265 -0.00255556 0 0.0005219 0 0)
(0.0371851 -0.00280939 0 0.000626194 0 0)
(0.0453434 -0.00289645 0 0.00057377 0 0)
(0.048027 -0.00344335 0 0.00093446 0 0)
(0.0572365 -0.00331974 0 0.00106122 0 0)
(0.0620168 -0.00338 0 0.0023552 0 0)
(0.0746106 -0.00226124 0 0.00340439 0 0)
(0.0878099 -0.000268667 0 0.00875793 0 0)
(0.11361 0.00427835 0 0.0155166 0 0)
(0.151816 0.0128428 0 0.0359941 0 0)
(0.0317714 -0.00401874 0 0.000586927 0 0)
(0.00173841 -0.000939996 0 0.00150624 0 0)
(0.00424112 -0.0013374 0 0.000778773 0 0)
(0.00789897 -0.00129777 0 0.000400572 0 0)
(0.015322 -0.00221427 0 0.000499737 0 0)
(0.0158563 -0.00280217 0 0.000764867 0 0)
(0.0233139 -0.00359911 0 0.000926501 0 0)
(0.0218613 -0.00320066 0 0.000984838 0 0)
(0.0309909 -0.0033607 0 0.000831064 0 0)
(0.0296448 -0.00270691 0 0.000727548 0 0)
(0.0406714 -0.00314504 0 0.000582014 0 0)
(0.0393957 -0.00314445 0 0.000683687 0 0)
(0.0518663 -0.00353637 0 0.000627516 0 0)
(0.0501875 -0.00375614 0 0.000993203 0 0)
(0.0640624 -0.0039572 0 0.00109379 0 0)
(0.0635476 -0.00365145 0 0.0023352 0 0)
(0.0799501 -0.00274508 0 0.00333389 0 0)
(0.0871119 0.000480742 0 0.00813085 0 0)
(0.113697 0.0058341 0 0.0140541 0 0)
(0.149155 0.0209074 0 0.0345942 0 0)
(0.0313029 -0.00467769 0 0.000774149 0 0)
(0.0022144 -0.00120392 0 0.00178498 0 0)
(0.0051022 -0.00164669 0 0.000830614 0 0)
(0.00884805 -0.00163817 0 0.000489728 0 0)
(0.0174925 -0.00282472 0 0.000627216 0 0)
(0.0175561 -0.00327598 0 0.000902349 0 0)
(0.0266344 -0.00424858 0 0.00107966 0 0)
(0.0240224 -0.00359676 0 0.00110248 0 0)
(0.0352695 -0.00402072 0 0.000966851 0 0)
(0.0317108 -0.0030527 0 0.000804702 0 0)
(0.0449979 -0.00367949 0 0.000646767 0 0)
(0.0401172 -0.00333977 0 0.000728574 0 0)
(0.0541621 -0.00392553 0 0.000667721 0 0)
(0.0471412 -0.00368432 0 0.00102689 0 0)
(0.0609829 -0.00380804 0 0.00107094 0 0)
(0.0537195 -0.002884 0 0.00221233 0 0)
(0.0678585 -0.00116337 0 0.00314584 0 0)
(0.0691513 0.00360837 0 0.00694992 0 0)
(0.0936968 0.0131018 0 0.0128862 0 0)
(0.138983 0.0347931 0 0.0281733 0 0)
(0.0303811 -0.00532492 0 0.0010139 0 0)
(0.00256679 -0.00148103 0 0.0020577 0 0)
(0.00567709 -0.00180769 0 0.000859221 0 0)
(0.0100075 -0.00199373 0 0.000588277 0 0)
(0.0195338 -0.00340079 0 0.000771736 0 0)
(0.0200247 -0.00380525 0 0.00104853 0 0)
(0.0293057 -0.00474762 0 0.0012162 0 0)
(0.0257757 -0.0038453 0 0.00118816 0 0)
(0.035444 -0.00419493 0 0.00104032 0 0)
(0.0293433 -0.00293072 0 0.000818987 0 0)
(0.0387322 -0.00346462 0 0.000657035 0 0)
(0.0303636 -0.00262505 0 0.000690517 0 0)
(0.0380337 -0.0030883 0 0.000643971 0 0)
(0.0282762 -0.00203793 0 0.000939581 0 0)
(0.0343112 -0.00200413 0 0.000960201 0 0)
(0.0275001 0.000196508 0 0.00192732 0 0)
(0.0351951 0.00234842 0 0.00264476 0 0)
(0.0442955 0.0095964 0 0.00578135 0 0)
(0.073553 0.0211066 0 0.0102907 0 0)
(0.149523 0.0486046 0 0.0214927 0 0)
(0.0294224 -0.00604391 0 0.00133839 0 0)
(0.00275598 -0.00182838 0 0.00227417 0 0)
(0.00625357 -0.00197068 0 0.000915942 0 0)
(0.011608 -0.00241796 0 0.000715739 0 0)
(0.0207665 -0.00386728 0 0.000930255 0 0)
(0.0203386 -0.00399647 0 0.00117483 0 0)
(0.0251717 -0.00436383 0 0.00128324 0 0)
(0.0187283 -0.00294633 0 0.00118629 0 0)
(0.0209759 -0.002784 0 0.000984514 0 0)
(0.0139941 -0.00129308 0 0.000726183 0 0)
(0.015087 -0.0014923 0 0.000554597 0 0)
(0.0104676 -0.000320915 0 0.000558236 0 0)
(0.0104909 -0.000501405 0 0.000509748 0 0)
(0.0102945 0.00108203 0 0.000742825 0 0)
(0.011203 0.00108879 0 0.000737634 0 0)
(0.0193994 0.00415637 0 0.00150382 0 0)
(0.0276663 0.00603363 0 0.0020227 0 0)
(0.0585944 0.0146919 0 0.00437177 0 0)
(0.10421 0.0261445 0 0.0077174 0 0)
(0.216148 0.0529313 0 0.0147323 0 0)
(0.0292521 -0.00696687 0 0.00177917 0 0)
(0.00318933 -0.00238972 0 0.00251176 0 0)
(0.00672522 -0.00222907 0 0.00109245 0 0)
(0.0111547 -0.00261348 0 0.000908039 0 0)
(0.0145073 -0.00325466 0 0.0010444 0 0)
(0.00989353 -0.0022952 0 0.0011558 0 0)
(0.00788917 -0.00156704 0 0.00114679 0 0)
(0.00484848 0.00014849 0 0.000974748 0 0)
(0.00518608 0.000458098 0 0.000746507 0 0)
(0.00979858 0.00154 0 0.000512442 0 0)
(0.0102903 0.00136535 0 0.000372665 0 0)
(0.022546 0.0023577 0 0.000365233 0 0)
(0.0220997 0.00221996 0 0.000337072 0 0)
(0.0428218 0.00377761 0 0.000497255 0 0)
(0.0445001 0.00353989 0 0.000497122 0 0)
(0.07534 0.00681094 0 0.00104003 0 0)
(0.0896733 0.00771404 0 0.00138592 0 0)
(0.143807 0.0169579 0 0.00302801 0 0)
(0.209004 0.0251712 0 0.00512573 0 0)
(0.351003 0.0518328 0 0.0096216 0 0)
(0.0311739 -0.00853122 0 0.00248466 0 0)
(0.00328695 -0.0027109 0 0.00280381 0 0)
(0.00434924 -0.00150798 0 0.00124838 0 0)
(0.00442541 -0.000845345 0 0.000925526 0 0)
(0.00288288 -1.81042e-05 0 0.000871852 0 0)
(0.00501559 0.00163654 0 0.000847113 0 0)
(0.0113656 0.00250325 0 0.000772867 0 0)
(0.027906 0.00339308 0 0.000609839 0 0)
(0.0392639 0.00315797 0 0.00043618 0 0)
(0.0636194 0.0034376 0 0.000286642 0 0)
(0.0711115 0.00310437 0 0.000201055 0 0)