/*--------------------------------*- C++ -*----------------------------------*\
| =========                 |                                                 |
| \\      /  F ield         | OpenFOAM: The Open Source CFD Toolbox           |
|  \\    /   O peration     | Version:  2.4.0                                 |
|   \\  /    A nd           | Web:      www.OpenFOAM.org                      |
|    \\/     M anipulation  |                                                 |
\*---------------------------------------------------------------------------*/
FoamFile
{
    version     2.0;
    format      ascii;
    class       volVectorField;
    location    "0.172";
    object      UMean;
}
// * * * * * * * * * * * * * * * * * * * * * * * * * * * * * * * * * * * * * //

dimensions      [0 1 -1 0 0 0 0];

internalField   nonuniform List<vector> 
17600
(
(5.34327 0.307737 0)
(3.03281 0.0607431 0)
(2.25558 -0.00144642 0)
(1.91197 -0.00351678 0)
(1.77637 -0.0013376 0)
(1.68362 -0.000153589 0)
(1.62105 -3.48156e-05 0)
(1.56087 6.60403e-06 0)
(1.52928 -0.000176878 0)
(1.49075 -1.65997e-06 0)
(1.47709 -0.000115768 0)
(1.44665 0.000130091 0)
(1.44011 -0.000115527 0)
(1.4146 8.37889e-05 0)
(1.41442 -0.000234522 0)
(1.39983 -0.000162704 0)
(1.40794 -0.000493675 0)
(1.42013 -0.000514274 0)
(1.45833 -0.00132076 0)
(1.43451 -0.0290355 0)
(8.59462 0.865629 0)
(6.98645 0.379625 0)
(5.87719 0.119796 0)
(5.13174 0.049744 0)
(4.7444 0.026995 0)
(4.47434 0.0193294 0)
(4.30222 0.0148348 0)
(4.1352 0.0114159 0)
(4.04694 0.0082575 0)
(3.93431 0.00671778 0)
(3.89516 0.00510061 0)
(3.80671 0.0050897 0)
(3.78994 0.00354294 0)
(3.71529 0.00386147 0)
(3.71347 0.0013955 0)
(3.66428 0.00175485 0)
(3.67565 -0.00242708 0)
(3.68581 -0.00442521 0)
(3.72119 -0.00527643 0)
(3.86318 -0.0894603 0)
(9.83889 1.01341 0)
(9.35694 0.569937 0)
(8.52353 0.236688 0)
(7.69829 0.126946 0)
(7.17476 0.0785631 0)
(6.77869 0.054607 0)
(6.52923 0.0411372 0)
(6.27844 0.0315347 0)
(6.14833 0.0237869 0)
(5.97199 0.018992 0)
(5.91369 0.0149255 0)
(5.77385 0.0137251 0)
(5.75092 0.0104441 0)
(5.63216 0.0102623 0)
(5.63058 0.00534305 0)
(5.54567 0.00505332 0)
(5.563 -0.00299517 0)
(5.54377 -0.00677898 0)
(5.60324 -0.0204396 0)
(5.72628 -0.114411 0)
(10.1396 0.93927 0)
(10.5565 0.658598 0)
(10.2815 0.323155 0)
(9.66446 0.204694 0)
(9.1743 0.142065 0)
(8.73443 0.101763 0)
(8.45742 0.077 0)
(8.15036 0.0590731 0)
(7.99945 0.0454368 0)
(7.7727 0.0362247 0)
(7.7044 0.0287994 0)
(7.52116 0.0260968 0)
(7.49659 0.0200805 0)
(7.33958 0.0200134 0)
(7.34084 0.0108314 0)
(7.22078 0.0119319 0)
(7.24892 -0.00383324 0)
(7.18398 -0.00514403 0)
(7.28136 -0.0404806 0)
(7.31272 -0.119235 0)
(10.0601 0.799082 0)
(10.8965 0.659365 0)
(11.1354 0.348499 0)
(10.8811 0.249265 0)
(10.6033 0.195525 0)
(10.2375 0.149329 0)
(10.0116 0.116294 0)
(9.69661 0.0903438 0)
(9.55962 0.0708318 0)
(9.30658 0.0566147 0)
(9.24487 0.0457589 0)
(9.03271 0.0404686 0)
(9.01509 0.032486 0)
(8.82938 0.0304372 0)
(8.83953 0.0200261 0)
(8.68981 0.0167795 0)
(8.72763 0.00336964 0)
(8.6348 -0.011975 0)
(8.7217 -0.0367176 0)
(8.73949 -0.161355 0)
(9.98205 0.686072 0)
(10.8282 0.626662 0)
(11.3103 0.326133 0)
(11.3348 0.245108 0)
(11.336 0.215683 0)
(11.1461 0.179551 0)
(11.067 0.147235 0)
(10.8183 0.118403 0)
(10.747 0.0951354 0)
(10.5092 0.0776454 0)
(10.4785 0.062963 0)
(10.2643 0.0565399 0)
(10.2641 0.0444585 0)
(10.0712 0.0438293 0)
(10.0919 0.026451 0)
(9.93254 0.028447 0)
(9.97493 0.000213617 0)
(9.86961 0.000969002 0)
(9.94584 -0.0596872 0)
(9.93848 -0.154055 0)
(9.97419 0.597444 0)
(10.697 0.594004 0)
(11.2356 0.297397 0)
(11.3382 0.215312 0)
(11.5031 0.202664 0)
(11.4522 0.182107 0)
(11.5445 0.157465 0)
(11.4131 0.131529 0)
(11.4599 0.109519 0)
(11.2906 0.0919906 0)
(11.3288 0.0768506 0)
(11.1497 0.069176 0)
(11.1907 0.0570089 0)
(11.0136 0.0534896 0)
(11.0619 0.0379083 0)
(10.9044 0.0320776 0)
(10.9684 0.0107987 0)
(10.8504 -0.00588139 0)
(10.9385 -0.0551005 0)
(10.8923 -0.153355 0)
(9.99416 0.518924 0)
(10.5901 0.558289 0)
(11.1408 0.279718 0)
(11.2436 0.188646 0)
(11.4548 0.180527 0)
(11.437 0.170492 0)
(11.6101 0.151445 0)
(11.5568 0.129326 0)
(11.697 0.108575 0)
(11.6139 0.0946598 0)
(11.73 0.0795704 0)
(11.6256 0.0752597 0)
(11.7211 0.0608261 0)
(11.6025 0.0615973 0)
(11.6846 0.0401597 0)
(11.5677 0.0413068 0)
(11.6511 0.00693531 0)
(11.5546 0.00422464 0)
(11.6495 -0.0719408 0)
(11.5804 -0.118327 0)
(10.0142 0.4488 0)
(10.5105 0.514881 0)
(11.0557 0.266418 0)
(11.1704 0.166103 0)
(11.3816 0.158681 0)
(11.3737 0.156659 0)
(11.5435 0.14057 0)
(11.5251 0.121219 0)
(11.6752 0.0998757 0)
(11.6502 0.0885015 0)
(11.7858 0.0737023 0)
(11.7543 0.0719223 0)
(11.8721 0.0578338 0)
(11.8314 0.0601179 0)
(11.9322 0.0389587 0)
(11.8885 0.0403205 0)
(11.9802 0.00478557 0)
(11.9449 0.00245986 0)
(12.0315 -0.0834793 0)
(11.9845 -0.117413 0)
(10.014 0.385974 0)
(10.4623 0.468211 0)
(10.9657 0.254471 0)
(11.1289 0.145189 0)
(11.3059 0.137883 0)
(11.3366 0.142738 0)
(11.4617 0.129204 0)
(11.4864 0.112524 0)
(11.5953 0.089963 0)
(11.6202 0.080415 0)
(11.7187 0.0652998 0)
(11.7446 0.0649939 0)
(11.8314 0.0512041 0)
(11.8552 0.053614 0)
(11.9311 0.0340358 0)
(11.9567 0.0321297 0)
(12.0262 0.0021765 0)
(12.0575 -0.0160733 0)
(12.1168 -0.0820833 0)
(12.1054 -0.179855 0)
(9.99399 0.328114 0)
(10.4318 0.42237 0)
(10.8788 0.24206 0)
(11.0976 0.126663 0)
(11.2384 0.117436 0)
(11.3085 0.129836 0)
(11.3929 0.117015 0)
(11.4524 0.104923 0)
(11.5274 0.0797639 0)
(11.5844 0.0735661 0)
(11.6533 0.0562589 0)
(11.708 0.0592833 0)
(11.7699 0.0430368 0)
(11.8191 0.0480835 0)
(11.8763 0.0258353 0)
(11.9246 0.0263069 0)
(11.9816 -0.0079868 0)
(12.0306 -0.0253281 0)
(12.0781 -0.100297 0)
(12.0636 -0.21419 0)
(9.9795 0.277572 0)
(10.3956 0.375225 0)
(10.8105 0.229879 0)
(11.0546 0.108107 0)
(11.1905 0.0992924 0)
(11.2701 0.115228 0)
(11.3446 0.106007 0)
(11.4088 0.0951193 0)
(11.4798 0.0714971 0)
(11.5395 0.0648455 0)
(11.6075 0.0499687 0)
(11.662 0.0513448 0)
(11.7246 0.0384536 0)
(11.7712 0.0393559 0)
(11.8311 0.0220031 0)
(11.8748 0.0146486 0)
(11.9351 -0.0123894 0)
(11.9766 -0.0431385 0)
(12.0244 -0.112943 0)
(11.9909 -0.238512 0)
(9.97826 0.232522 0)
(10.3553 0.328825 0)
(10.7563 0.213177 0)
(11.0074 0.0924 0)
(11.1531 0.0817274 0)
(11.2305 0.101147 0)
(11.3053 0.0937096 0)
(11.3653 0.0853147 0)
(11.4388 0.0623311 0)
(11.4961 0.056733 0)
(11.5671 0.0428083 0)
(11.6192 0.0442191 0)
(11.6842 0.0324546 0)
(11.7285 0.0321883 0)
(11.7902 0.0159795 0)
(11.8308 0.00634646 0)
(11.8913 -0.0204534 0)
(11.9287 -0.0567508 0)
(11.9726 -0.126658 0)
(11.9271 -0.255076 0)
(9.9776 0.192846 0)
(10.3239 0.283077 0)
(10.7072 0.191063 0)
(10.9681 0.0788797 0)
(11.1172 0.0676492 0)
(11.2001 0.0864516 0)
(11.2671 0.0825757 0)
(11.3312 0.0741455 0)
(11.3985 0.0546354 0)
(11.4627 0.0475815 0)
(11.5275 0.0371462 0)
(11.587 0.0359411 0)
(11.6447 0.0278717 0)
(11.6969 0.023601 0)
(11.7499 0.0110414 0)
(11.7982 -0.00336008 0)
(11.8488 -0.0282669 0)
(11.8928 -0.0693061 0)
(11.9222 -0.139653 0)
(11.879 -0.267528 0)
(9.9745 0.155905 0)
(10.3005 0.239801 0)
(10.6653 0.162993 0)
(10.9358 0.06838 0)
(11.0873 0.0541826 0)
(11.1757 0.0733128 0)
(11.2361 0.0698593 0)
(11.3035 0.0639652 0)
(11.3665 0.0454313 0)
(11.4358 0.0401149 0)
(11.4971 0.0299466 0)
(11.5608 0.0294309 0)
(11.6144 0.0211139 0)
(11.6705 0.0171507 0)
(11.719 0.00385731 0)
(11.7709 -0.0111051 0)
(11.8161 -0.0372142 0)
(11.8619 -0.0808724 0)
(11.8813 -0.150113 0)
(11.838 -0.281638 0)
(9.97583 0.123282 0)
(10.2779 0.19547 0)
(10.6349 0.134319 0)
(10.905 0.0567416 0)
(11.0677 0.0428852 0)
(11.1521 0.0586089 0)
(11.216 0.0581758 0)
(11.2774 0.0514932 0)
(11.3459 0.0378425 0)
(11.4101 0.0306263 0)
(11.4774 0.0249697 0)
(11.5354 0.0205217 0)
(11.5947 0.0169291 0)
(11.6443 0.00763621 0)
(11.6989 -0.000312622 0)
(11.7437 -0.0224949 0)
(11.7937 -0.0422809 0)
(11.8301 -0.0960933 0)
(11.8507 -0.153868 0)
(11.7965 -0.296797 0)
(9.97924 0.0933742 0)
(10.2582 0.151437 0)
(10.6114 0.104864 0)
(10.88 0.0452344 0)
(11.0524 0.0318612 0)
(11.133 0.0449516 0)
(11.2 0.0452535 0)
(11.2564 0.0400036 0)
(11.3285 0.0288372 0)
(11.3891 0.0230897 0)
(11.4602 0.0180742 0)
(11.5147 0.0142565 0)
(11.5769 0.00996815 0)
(11.623 0.00204694 0)
(11.6801 -0.00879965 0)
(11.7207 -0.0273837 0)
(11.7726 -0.0546434 0)
(11.8025 -0.100201 0)
(11.8226 -0.16979 0)
(11.758 -0.280136 0)
(9.97847 0.0648154 0)
(10.2469 0.108308 0)
(10.5911 0.0747473 0)
(10.8643 0.0336 0)
(11.0367 0.0214677 0)
(11.1214 0.0320678 0)
(11.1837 0.0319687 0)
(11.243 0.028709 0)
(11.3105 0.0199428 0)
(11.3758 0.0156771 0)
(11.4428 0.0114254 0)
(11.5016 0.00764509 0)
(11.5588 0.00326727 0)
(11.6094 -0.0045039 0)
(11.6608 -0.0163182 0)
(11.7054 -0.0339626 0)
(11.7509 -0.0645286 0)
(11.7831 -0.106262 0)
(11.7957 -0.182989 0)
(11.7317 -0.265169 0)
(9.97631 0.0391989 0)
(10.241 0.0637726 0)
(10.5769 0.0459619 0)
(10.8544 0.0194561 0)
(11.0253 0.0135418 0)
(11.1148 0.0176561 0)
(11.1725 0.0201932 0)
(11.2348 0.015447 0)
(11.2983 0.0126277 0)
(11.3678 0.00644883 0)
(11.4309 0.00662158 0)
(11.4935 -0.000905796 0)
(11.5465 -0.00129829 0)
(11.6007 -0.0135023 0)
(11.6475 -0.0208608 0)
(11.6954 -0.0445315 0)
(11.735 -0.0689457 0)
(11.7695 -0.11893 0)
(11.7749 -0.184916 0)
(11.7111 -0.280949 0)
(9.97729 0.0125869 0)
(10.2363 0.0215702 0)
(10.5717 0.014924 0)
(10.8473 0.00697449 0)
(11.0222 0.00369966 0)
(11.11 0.00623363 0)
(11.1695 0.00536579 0)
(11.2291 0.00531698 0)
(11.2951 0.00180372 0)
(11.3622 0.00106154 0)
(11.4277 -0.00219247 0)
(11.4878 -0.00486588 0)
(11.5433 -0.0105751 0)
(11.5943 -0.0171473 0)
(11.6434 -0.0308604 0)
(11.6875 -0.0486792 0)
(11.7284 -0.0794697 0)
(11.758 -0.124745 0)
(11.7633 -0.191335 0)
(11.6938 -0.300267 0)
(9.97887 -0.0118047 0)
(10.2349 -0.022765 0)
(10.5729 -0.0139659 0)
(10.846 -0.00839528 0)
(11.0241 -0.00324293 0)
(11.1088 -0.00820103 0)
(11.171 -0.00613081 0)
(11.2279 -0.00854902 0)
(11.2968 -0.00497175 0)
(11.3611 -0.00883501 0)
(11.4294 -0.00609808 0)
(11.4866 -0.0144841 0)
(11.5448 -0.0138095 0)
(11.5925 -0.0276745 0)
(11.6437 -0.0334714 0)
(11.6839 -0.0608884 0)
(11.7263 -0.0813037 0)
(11.7513 -0.139285 0)
(11.7554 -0.187868 0)
(11.6817 -0.320423 0)
(9.9789 -0.0380546 0)
(10.2387 -0.0653638 0)
(10.5792 -0.0445079 0)
(10.8519 -0.0215016 0)
(11.0287 -0.0124614 0)
(11.1127 -0.0202157 0)
(11.1756 -0.0202021 0)
(11.2327 -0.019491 0)
(11.3017 -0.0149093 0)
(11.3657 -0.0150533 0)
(11.4339 -0.0141204 0)
(11.4907 -0.019147 0)
(11.5488 -0.022682 0)
(11.5958 -0.031296 0)
(11.6464 -0.0439227 0)
(11.6856 -0.063254 0)
(11.7268 -0.0945392 0)
(11.7499 -0.138453 0)
(11.7503 -0.203505 0)
(11.6732 -0.288461 0)
(9.97785 -0.0644378 0)
(10.2476 -0.108979 0)
(10.591 -0.0741135 0)
(10.8642 -0.034683 0)
(11.0366 -0.0215056 0)
(11.1216 -0.033447 0)
(11.1839 -0.0332248 0)
(11.243 -0.0313868 0)
(11.3102 -0.0237424 0)
(11.3755 -0.0224723 0)
(11.4416 -0.0207939 0)
(11.4997 -0.0252596 0)
(11.5561 -0.0296826 0)
(11.604 -0.0368558 0)
(11.6524 -0.0519819 0)
(11.6922 -0.0679536 0)
(11.7307 -0.105007 0)
(11.7531 -0.139765 0)
(11.7517 -0.216869 0)
(11.6748 -0.256792 0)
(9.97687 -0.0921216 0)
(10.2607 -0.153185 0)
(10.6094 -0.103228 0)
(10.882 -0.0474103 0)
(11.0491 -0.0308531 0)
(11.1348 -0.0477501 0)
(11.1968 -0.0450527 0)
(11.2578 -0.0443699 0)
(11.3237 -0.0309644 0)
(11.3899 -0.0319563 0)
(11.4541 -0.0250674 0)
(11.5135 -0.0345702 0)
(11.568 -0.0327804 0)
(11.617 -0.0472642 0)
(11.6632 -0.0537917 0)
(11.7035 -0.0802802 0)
(11.7393 -0.105307 0)
(11.7611 -0.154549 0)
(11.7584 -0.211398 0)
(11.6788 -0.275155 0)
(9.97621 -0.122931 0)
(10.278 -0.196208 0)
(10.6346 -0.133633 0)
(10.9053 -0.0577747 0)
(11.0666 -0.0429068 0)
(11.1522 -0.0602528 0)
(11.2148 -0.0591084 0)
(11.2775 -0.0546516 0)
(11.3426 -0.0411083 0)
(11.4091 -0.0381886 0)
(11.472 -0.033248 0)
(11.5319 -0.0393891 0)
(11.5853 -0.0409953 0)
(11.6346 -0.0515319 0)
(11.6793 -0.0623048 0)
(11.7195 -0.0847595 0)
(11.7532 -0.113649 0)
(11.7745 -0.160545 0)
(11.7703 -0.215867 0)
(11.6887 -0.289573 0)
(9.97587 -0.155133 0)
(10.2997 -0.240865 0)
(10.6669 -0.162032 0)
(10.9344 -0.0695885 0)
(11.0891 -0.0539177 0)
(11.1741 -0.0750417 0)
(11.2384 -0.0707114 0)
(11.3021 -0.0670666 0)
(11.3672 -0.0486722 0)
(11.4331 -0.0473686 0)
(11.4955 -0.038451 0)
(11.5549 -0.047622 0)
(11.6081 -0.0453625 0)
(11.6568 -0.0597222 0)
(11.701 -0.0664149 0)
(11.7402 -0.0932419 0)
(11.7727 -0.117894 0)
(11.7927 -0.169636 0)
(11.7876 -0.220259 0)
(11.7048 -0.297577 0)
(9.97608 -0.192173 0)
(10.3263 -0.284195 0)
(10.7065 -0.190007 0)
(10.9694 -0.0802973 0)
(11.1165 -0.0671426 0)
(11.2011 -0.0885428 0)
(11.2672 -0.0830826 0)
(11.3321 -0.0776959 0)
(11.3973 -0.057355 0)
(11.4626 -0.0552743 0)
(11.5245 -0.0450534 0)
(11.5831 -0.0543119 0)
(11.6364 -0.0511899 0)
(11.6842 -0.0659608 0)
(11.7283 -0.0724333 0)
(11.7659 -0.0989588 0)
(11.7977 -0.125015 0)
(11.8159 -0.174571 0)
(11.8108 -0.231173 0)
(11.7275 -0.292595 0)
(9.97994 -0.232254 0)
(10.3567 -0.329369 0)
(10.7547 -0.212721 0)
(11.0098 -0.0931874 0)
(11.1504 -0.0818283 0)
(11.2335 -0.102628 0)
(11.3024 -0.0949908 0)
(11.368 -0.0881759 0)
(11.4331 -0.0658432 0)
(11.498 -0.063651 0)
(11.5588 -0.0514351 0)
(11.6174 -0.0616018 0)
(11.6699 -0.0561701 0)
(11.7177 -0.0732229 0)
(11.7605 -0.0766763 0)
(11.7978 -0.106412 0)
(11.8277 -0.129095 0)
(11.8451 -0.182491 0)
(11.8394 -0.238624 0)
(11.758 -0.293753 0)
(9.9931 -0.277323 0)
(10.386 -0.375766 0)
(10.8166 -0.229254 0)
(11.0488 -0.109011 0)
(11.195 -0.099069 0)
(11.2653 -0.116879 0)
(11.3475 -0.107106 0)
(11.4042 -0.0979949 0)
(11.4779 -0.0748081 0)
(11.5345 -0.0718342 0)
(11.6014 -0.0584475 0)
(11.6535 -0.0685394 0)
(11.7111 -0.0615224 0)
(11.7538 -0.0802002 0)
(11.7998 -0.0806161 0)
(11.833 -0.114205 0)
(11.8639 -0.131097 0)
(11.8783 -0.193076 0)
(11.8726 -0.239862 0)
(11.7927 -0.311575 0)
(10.0133 -0.328458 0)
(10.4125 -0.422087 0)
(10.8948 -0.242095 0)
(11.0807 -0.126849 0)
(11.254 -0.117945 0)
(11.2915 -0.130612 0)
(11.4073 -0.119046 0)
(11.435 -0.106671 0)
(11.5374 -0.0841572 0)
(11.5664 -0.0792208 0)
(11.6588 -0.0662629 0)
(11.686 -0.0743863 0)
(11.7669 -0.0680143 0)
(11.7869 -0.0854748 0)
(11.853 -0.0862034 0)
(11.8655 -0.119136 0)
(11.9107 -0.135267 0)
(11.9062 -0.199071 0)
(11.9049 -0.243429 0)
(11.8102 -0.329077 0)
(10.0251 -0.385767 0)
(10.4469 -0.468302 0)
(10.9816 -0.254326 0)
(11.113 -0.145789 0)
(11.3228 -0.138127 0)
(11.3183 -0.143769 0)
(11.4799 -0.130964 0)
(11.4655 -0.11452 0)
(11.612 -0.0941906 0)
(11.5971 -0.0861648 0)
(11.7323 -0.0749397 0)
(11.7155 -0.0800063 0)
(11.837 -0.0751027 0)
(11.8115 -0.0905843 0)
(11.9136 -0.0915028 0)
(11.8764 -0.123721 0)
(11.947 -0.137349 0)
(11.8848 -0.203558 0)
(11.8858 -0.242271 0)
(11.7233 -0.343628 0)
(10.0157 -0.448616 0)
(10.5058 -0.514908 0)
(11.0635 -0.266608 0)
(11.1644 -0.166465 0)
(11.3898 -0.159037 0)
(11.3649 -0.157438 0)
(11.5537 -0.142344 0)
(11.5123 -0.122925 0)
(11.6856 -0.104261 0)
(11.6337 -0.0936375 0)
(11.7932 -0.0836142 0)
(11.7291 -0.0855797 0)
(11.8688 -0.0817672 0)
(11.7842 -0.094313 0)
(11.8954 -0.0951992 0)
(11.7841 -0.125041 0)
(11.8508 -0.135179 0)
(11.6949 -0.202635 0)
(11.6688 -0.22948 0)
(11.3917 -0.349508 0)
(9.99346 -0.51849 0)
(10.5902 -0.558556 0)
(11.1434 -0.279883 0)
(11.2426 -0.18893 0)
(11.4567 -0.180785 0)
(11.4348 -0.171253 0)
(11.6126 -0.153025 0)
(11.5512 -0.130918 0)
(11.699 -0.11294 0)
(11.6024 -0.0991046 0)
(11.7271 -0.0894783 0)
(11.6006 -0.0871896 0)
(11.7007 -0.0844717 0)
(11.5435 -0.0916068 0)
(11.6142 -0.0945527 0)
(11.4243 -0.116288 0)
(11.4491 -0.130227 0)
(11.2087 -0.183937 0)
(11.1284 -0.218077 0)
(10.7691 -0.311659 0)
(9.973 -0.597133 0)
(10.6985 -0.594269 0)
(11.236 -0.297549 0)
(11.3388 -0.215607 0)
(11.5026 -0.202824 0)
(11.4523 -0.182986 0)
(11.5429 -0.158659 0)
(11.4103 -0.133371 0)
(11.456 -0.113039 0)
(11.2796 -0.0964941 0)
(11.317 -0.0852417 0)
(11.1195 -0.0806617 0)
(11.1545 -0.0770292 0)
(10.937 -0.0819129 0)
(10.962 -0.0839168 0)
(10.717 -0.102328 0)
(10.7083 -0.114457 0)
(10.4088 -0.161046 0)
(10.2975 -0.191473 0)
(9.8774 -0.26465 0)
(9.98119 -0.685819 0)
(10.8298 -0.626835 0)
(11.3099 -0.326353 0)
(11.3355 -0.245361 0)
(11.3349 -0.215923 0)
(11.1461 -0.180268 0)
(11.0637 -0.14832 0)
(10.8155 -0.119964 0)
(10.7394 -0.0982694 0)
(10.4963 -0.0813459 0)
(10.4606 -0.0705463 0)
(10.2275 -0.0657988 0)
(10.2177 -0.0627836 0)
(9.97803 -0.0665538 0)
(9.97281 -0.0687069 0)
(9.70783 -0.0838394 0)
(9.6756 -0.0946927 0)
(9.35007 -0.133278 0)
(9.21694 -0.157225 0)
(8.76229 -0.218373 0)
(10.0597 -0.798879 0)
(10.8976 -0.659529 0)
(11.135 -0.348707 0)
(10.8814 -0.249474 0)
(10.602 -0.195717 0)
(10.2369 -0.149904 0)
(10.0074 -0.11714 0)
(9.69348 -0.0917019 0)
(9.5492 -0.0732272 0)
(9.29322 -0.0598457 0)
(9.22181 -0.0515413 0)
(8.99324 -0.0484176 0)
(8.9597 -0.0464359 0)
(8.72842 -0.0498072 0)
(8.70402 -0.0518992 0)
(8.44579 -0.0638106 0)
(8.39607 -0.0733362 0)
(8.07193 -0.10156 0)
(7.92163 -0.124707 0)
(7.47245 -0.155069 0)
(10.1394 -0.939142 0)
(10.5574 -0.658716 0)
(10.2811 -0.323319 0)
(9.66442 -0.204835 0)
(9.17281 -0.142214 0)
(8.73338 -0.102168 0)
(8.45314 -0.0776685 0)
(8.14655 -0.0600635 0)
(7.98797 -0.0472012 0)
(7.75895 -0.0386018 0)
(7.67895 -0.033123 0)
(7.48066 -0.0317601 0)
(7.43747 -0.0306058 0)
(7.23532 -0.0336063 0)
(7.1996 -0.0351735 0)
(6.96837 -0.0441768 0)
(6.90768 -0.0510359 0)
(6.60591 -0.0710776 0)
(6.45493 -0.0880587 0)
(6.01753 -0.104492 0)
(9.83889 -1.01335 0)
(9.35757 -0.570019 0)
(8.5231 -0.236795 0)
(7.69794 -0.127033 0)
(7.17344 -0.0786531 0)
(6.77744 -0.0548578 0)
(6.52538 -0.0415999 0)
(6.27408 -0.0321403 0)
(6.13768 -0.0249001 0)
(5.95818 -0.0205362 0)
(5.88894 -0.0175458 0)
(5.73526 -0.0174943 0)
(5.6931 -0.0168812 0)
(5.53354 -0.0192614 0)
(5.49387 -0.0201074 0)
(5.30565 -0.0261663 0)
(5.2409 -0.0301098 0)
(4.9842 -0.0426976 0)
(4.84303 -0.0530402 0)
(4.44582 -0.062641 0)
(8.59467 -0.865602 0)
(6.98683 -0.379666 0)
(5.87683 -0.119849 0)
(5.13128 -0.0497812 0)
(4.7434 -0.0270387 0)
(4.47307 -0.0194501 0)
(4.29911 -0.0150718 0)
(4.13107 -0.0116834 0)
(4.03855 -0.00879455 0)
(3.9223 -0.0074539 0)
(3.87479 -0.0063379 0)
(3.77469 -0.00685101 0)
(3.74143 -0.0065712 0)
(3.63441 -0.00803035 0)
(3.59885 -0.00825963 0)
(3.46787 -0.0114461 0)
(3.40938 -0.0129252 0)
(3.22276 -0.0191203 0)
(3.10368 -0.0233699 0)
(2.80006 -0.0288398 0)
(5.34332 -0.307732 0)
(3.03294 -0.0607531 0)
(2.2554 0.00144209 0)
(1.91162 0.00351318 0)
(1.77585 0.00133624 0)
(1.6829 0.000139836 0)
(1.61942 -2.18232e-06 0)
(1.55848 -2.71679e-05 0)
(1.52503 0.000111565 0)
(1.48418 -7.57787e-05 0)
(1.46649 -3.57313e-06 0)
(1.42982 -0.000325456 0)
(1.41441 -0.000186669 0)
(1.37271 -0.000567268 0)
(1.35354 -0.000380033 0)
(1.29933 -0.001022 0)
(1.26662 -0.000844757 0)
(1.18472 -0.00189112 0)
(1.11916 -0.00214119 0)
(0.984177 0.00226358 0)
(2.11811 -0.179758 0)
(2.62248 -0.104806 0)
(3.15086 -0.105257 0)
(3.64735 -0.129243 0)
(4.11944 -0.177993 0)
(4.60413 -0.249145 0)
(5.07544 -0.306458 0)
(5.58491 -0.425524 0)
(6.09603 -0.544596 0)
(6.51977 -0.672868 0)
(6.92418 -0.812958 0)
(7.20134 -0.960445 0)
(7.47174 -1.08238 0)
(7.67438 -1.16055 0)
(7.87996 -1.2156 0)
(8.04694 -1.2659 0)
(8.21523 -1.34886 0)
(8.34473 -1.4634 0)
(8.44305 -1.58716 0)
(8.56427 -1.70712 0)
(8.64592 -1.81493 0)
(8.73831 -1.90813 0)
(8.86787 -1.99857 0)
(8.96052 -2.08479 0)
(9.06175 -2.1808 0)
(9.11856 -2.26736 0)
(9.14973 -2.32681 0)
(9.17202 -2.36918 0)
(9.16975 -2.39034 0)
(9.16479 -2.40728 0)
(9.1454 -2.41609 0)
(9.14322 -2.42484 0)
(9.12683 -2.42988 0)
(9.08517 -2.43879 0)
(9.02629 -2.44719 0)
(8.94024 -2.46058 0)
(8.84504 -2.47088 0)
(8.76723 -2.46696 0)
(8.73943 -2.45096 0)
(8.74106 -2.42772 0)
(8.74187 -2.41032 0)
(8.73058 -2.38399 0)
(8.70666 -2.36045 0)
(8.67958 -2.34272 0)
(8.6586 -2.30695 0)
(8.64364 -2.27038 0)
(8.62266 -2.22886 0)
(8.59819 -2.19284 0)
(8.51497 -2.119 0)
(8.40459 -2.02742 0)
(8.31848 -1.94997 0)
(8.22543 -1.84949 0)
(8.14458 -1.75113 0)
(8.07766 -1.6622 0)
(8.01474 -1.57616 0)
(7.94778 -1.51219 0)
(7.89914 -1.46741 0)
(7.82698 -1.41054 0)
(7.76912 -1.34666 0)
(7.68323 -1.28049 0)
(7.59037 -1.18177 0)
(7.47122 -1.07122 0)
(7.35644 -0.96753 0)
(7.26086 -0.871876 0)
(7.15764 -0.784511 0)
(7.05993 -0.700951 0)
(6.96414 -0.617854 0)
(6.88607 -0.535809 0)
(6.80304 -0.461366 0)
(6.7277 -0.377739 0)
(6.6726 -0.28957 0)
(6.61931 -0.209568 0)
(6.58821 -0.139989 0)
(6.55494 -0.0772066 0)
(6.52733 -0.0152924 0)
(6.51556 0.0698797 0)
(6.49377 0.154668 0)
(6.48008 0.23707 0)
(6.45106 0.326505 0)
(6.45657 0.414498 0)
(6.43781 0.499197 0)
(6.42732 0.574523 0)
(6.43132 0.648414 0)
(6.42693 0.705746 0)
(6.43014 0.749674 0)
(6.42117 0.787941 0)
(6.39594 0.832718 0)
(6.37918 0.873886 0)
(6.35235 0.898291 0)
(6.35015 0.92988 0)
(6.31581 0.948964 0)
(6.33123 0.961229 0)
(6.33071 0.963918 0)
(6.3321 0.977687 0)
(6.34664 0.962261 0)
(6.35549 0.952725 0)
(6.39432 0.927504 0)
(6.3899 0.918208 0)
(6.46123 0.875416 0)
(6.44499 0.834485 0)
(6.50127 0.766412 0)
(6.47793 0.740588 0)
(6.54238 0.674163 0)
(6.52229 0.654991 0)
(6.58317 0.581865 0)
(6.52159 0.569117 0)
(6.58821 0.479401 0)
(6.50213 0.466598 0)
(6.60003 0.387164 0)
(6.48793 0.388876 0)
(6.59212 0.303677 0)
(6.46954 0.298534 0)
(6.58238 0.21783 0)
(6.45365 0.225729 0)
(6.58742 0.133627 0)
(6.42141 0.144565 0)
(6.59338 0.0525048 0)
(6.38394 0.066062 0)
(6.56367 -0.0219883 0)
(6.36014 0.0114657 0)
(6.50769 -0.0708207 0)
(6.34307 -0.0188111 0)
(6.44162 -0.105263 0)
(6.31697 -0.0203647 0)
(6.38985 -0.117242 0)
(6.2738 -0.013274 0)
(6.34954 -0.135914 0)
(6.21157 -0.0146133 0)
(6.2863 -0.1406 0)
(6.16142 0.00219737 0)
(6.21396 -0.12216 0)
(6.17384 0.0344389 0)
(6.16915 -0.0940257 0)
(6.21989 0.0590655 0)
(6.16251 -0.0664852 0)
(6.29047 0.0866247 0)
(6.16231 -0.0427096 0)
(6.36094 0.106776 0)
(6.15721 -0.0036108 0)
(6.4058 0.130579 0)
(6.19482 0.0319181 0)
(6.4069 0.175667 0)
(6.2599 0.0676083 0)
(6.42277 0.208739 0)
(6.30399 0.10571 0)
(6.46617 0.218732 0)
(6.34113 0.146993 0)
(6.48919 0.240957 0)
(6.40153 0.201245 0)
(6.50453 0.277635 0)
(6.45754 0.258963 0)
(6.53802 0.324951 0)
(6.50643 0.328119 0)
(6.56454 0.387904 0)
(6.54111 0.402772 0)
(6.57784 0.454933 0)
(6.56167 0.469193 0)
(6.58517 0.51682 0)
(6.57098 0.52611 0)
(6.57882 0.578305 0)
(6.56454 0.583471 0)
(6.56151 0.634467 0)
(6.54483 0.62381 0)
(6.51171 0.666874 0)
(6.49698 0.645059 0)
(6.42984 0.680722 0)
(6.43481 0.64283 0)
(6.33983 0.678318 0)
(6.37337 0.631496 0)
(6.25455 0.67843 0)
(6.30343 0.640439 0)
(6.18607 0.70797 0)
(6.24923 0.676 0)
(6.1413 0.764599 0)
(6.19832 0.728299 0)
(6.10091 0.832878 0)
(6.16137 0.788058 0)
(6.0671 0.921594 0)
(6.14369 0.876154 0)
(6.01785 1.0465 0)
(6.15863 1.01294 0)
(5.97489 1.21659 0)
(6.18569 1.18533 0)
(5.9499 1.41936 0)
(6.199 1.39468 0)
(5.94552 1.67102 0)
(6.18201 1.65313 0)
(5.94826 1.97289 0)
(6.1504 1.97654 0)
(5.93087 2.33536 0)
(6.098 2.38271 0)
(5.88602 2.78882 0)
(6.00145 2.92929 0)
(5.71288 3.39279 0)
(5.86155 3.64971 0)
(5.65737 4.23344 0)
(5.66929 4.69189 0)
(5.21188 5.78817 0)
(5.76937 6.5882 0)
(3.28001 9.83203 0)
(4.06971 -0.217945 0)
(4.26325 -0.220929 0)
(4.55372 -0.264845 0)
(4.89815 -0.307917 0)
(5.25693 -0.356802 0)
(5.64505 -0.428501 0)
(5.99045 -0.493593 0)
(6.34501 -0.603106 0)
(6.69317 -0.72127 0)
(6.99017 -0.840096 0)
(7.3152 -0.967866 0)
(7.57173 -1.08919 0)
(7.7853 -1.19719 0)
(7.98491 -1.26466 0)
(8.18923 -1.3122 0)
(8.38934 -1.35387 0)
(8.56711 -1.41011 0)
(8.70863 -1.50577 0)
(8.81574 -1.62131 0)
(8.9185 -1.74487 0)
(8.99393 -1.8505 0)
(9.09436 -1.94473 0)
(9.21145 -2.0369 0)
(9.30884 -2.11875 0)
(9.37595 -2.20132 0)
(9.40791 -2.27981 0)
(9.41462 -2.33747 0)
(9.42566 -2.378 0)
(9.4324 -2.39513 0)
(9.43261 -2.40442 0)
(9.40621 -2.40864 0)
(9.39196 -2.41502 0)
(9.36195 -2.41516 0)
(9.31225 -2.41722 0)
(9.24564 -2.41288 0)
(9.15465 -2.41686 0)
(9.05935 -2.43062 0)
(8.97735 -2.44238 0)
(8.93965 -2.44177 0)
(8.93024 -2.42551 0)
(8.90433 -2.40626 0)
(8.87024 -2.37305 0)
(8.82618 -2.3452 0)
(8.78817 -2.32745 0)
(8.75676 -2.29591 0)
(8.72194 -2.26044 0)
(8.68674 -2.21394 0)
(8.63231 -2.16348 0)
(8.51663 -2.0738 0)
(8.3951 -1.98379 0)
(8.29843 -1.90835 0)
(8.19259 -1.81296 0)
(8.10651 -1.72344 0)
(8.03176 -1.63379 0)
(7.96086 -1.54683 0)
(7.893 -1.48581 0)
(7.83937 -1.44129 0)
(7.75668 -1.38041 0)
(7.68621 -1.31276 0)
(7.5848 -1.23889 0)
(7.48389 -1.13318 0)
(7.35996 -1.02525 0)
(7.25247 -0.924165 0)
(7.16282 -0.830102 0)
(7.06543 -0.744001 0)
(6.97159 -0.662056 0)
(6.87464 -0.579872 0)
(6.79357 -0.500266 0)
(6.7077 -0.426851 0)
(6.62786 -0.347118 0)
(6.5692 -0.26574 0)
(6.51562 -0.191478 0)
(6.48377 -0.127392 0)
(6.45063 -0.0656017 0)
(6.41962 -0.00519552 0)
(6.40257 0.079428 0)
(6.37975 0.166163 0)
(6.36457 0.246187 0)
(6.33059 0.33261 0)
(6.33209 0.419721 0)
(6.31291 0.505712 0)
(6.29528 0.577888 0)
(6.30057 0.647071 0)
(6.30152 0.705436 0)
(6.30604 0.751773 0)
(6.30128 0.794954 0)
(6.27248 0.843357 0)
(6.25761 0.884213 0)
(6.23334 0.905612 0)
(6.23064 0.940156 0)
(6.20281 0.95061 0)
(6.21865 0.959951 0)
(6.21913 0.961234 0)
(6.22635 0.975382 0)
(6.24222 0.955366 0)
(6.25517 0.945555 0)
(6.2957 0.918003 0)
(6.30087 0.906755 0)
(6.37671 0.858971 0)
(6.37667 0.826637 0)
(6.4328 0.757762 0)
(6.41763 0.734 0)
(6.49098 0.661888 0)
(6.47291 0.647914 0)
(6.54974 0.579373 0)
(6.48672 0.57228 0)
(6.57336 0.480487 0)
(6.47134 0.469505 0)
(6.57706 0.389119 0)
(6.45038 0.394675 0)
(6.56281 0.303366 0)
(6.43125 0.306319 0)
(6.55507 0.217849 0)
(6.40913 0.228843 0)
(6.57337 0.136237 0)
(6.37932 0.149515 0)
(6.58011 0.0590776 0)
(6.34118 0.0744456 0)
(6.54253 -0.0136772 0)
(6.31595 0.0218565 0)
(6.47905 -0.0624703 0)
(6.29644 -0.00895394 0)
(6.41718 -0.0923012 0)
(6.25595 -0.0135562 0)
(6.3726 -0.105623 0)
(6.20928 -0.00771331 0)
(6.33465 -0.12196 0)
(6.14305 -0.00447558 0)
(6.27067 -0.125796 0)
(6.07896 0.0101042 0)
(6.20403 -0.115057 0)
(6.08355 0.0306217 0)
(6.17611 -0.090901 0)
(6.12389 0.047288 0)
(6.18242 -0.0684478 0)
(6.18232 0.0760752 0)
(6.19371 -0.0455034 0)
(6.2508 0.101685 0)
(6.1843 -0.00785078 0)
(6.31363 0.121872 0)
(6.19708 0.0298158 0)
(6.33038 0.161095 0)
(6.25628 0.0614747 0)
(6.33508 0.201483 0)
(6.31265 0.0945665 0)
(6.37383 0.218513 0)
(6.35422 0.13653 0)
(6.41213 0.234612 0)
(6.41397 0.189533 0)
(6.42541 0.272387 0)
(6.47083 0.246327 0)
(6.46068 0.32243 0)
(6.51473 0.316562 0)
(6.50097 0.387255 0)
(6.54963 0.391431 0)
(6.54196 0.456692 0)
(6.56638 0.45785 0)
(6.57762 0.522749 0)
(6.56696 0.517753 0)
(6.59942 0.58839 0)
(6.56271 0.572764 0)
(6.60604 0.649856 0)
(6.53724 0.617687 0)
(6.57935 0.691302 0)
(6.4964 0.641561 0)
(6.5278 0.709134 0)
(6.44443 0.641424 0)
(6.46271 0.708715 0)
(6.39452 0.631228 0)
(6.3867 0.708162 0)
(6.33526 0.637924 0)
(6.31918 0.729756 0)
(6.31007 0.674995 0)
(6.26517 0.781584 0)
(6.29967 0.730543 0)
(6.2082 0.843387 0)
(6.31289 0.793659 0)
(6.14737 0.92866 0)
(6.34114 0.883898 0)
(6.08223 1.05566 0)
(6.36656 1.00818 0)
(6.05543 1.23221 0)
(6.37505 1.16901 0)
(6.05534 1.44401 0)
(6.36338 1.37149 0)
(6.06368 1.69774 0)
(6.35179 1.63625 0)
(6.0464 1.99015 0)
(6.35925 1.96363 0)
(6.03492 2.35967 0)
(6.33938 2.36598 0)
(6.02879 2.81836 0)
(6.3425 2.89048 0)
(6.04669 3.42595 0)
(6.1836 3.6453 0)
(5.90016 4.34641 0)
(6.07255 4.73675 0)
(5.48738 6.02806 0)
(7.0144 6.39474 0)
(4.65702 10.5917 0)
(5.90687 -0.246875 0)
(6.00042 -0.289362 0)
(6.17726 -0.353884 0)
(6.40148 -0.420876 0)
(6.64427 -0.483681 0)
(6.90287 -0.556642 0)
(7.14365 -0.622415 0)
(7.35968 -0.717457 0)
(7.58704 -0.831205 0)
(7.77517 -0.947583 0)
(7.98149 -1.07203 0)
(8.15705 -1.17731 0)
(8.29005 -1.27376 0)
(8.42335 -1.34449 0)
(8.57356 -1.39891 0)
(8.75398 -1.44138 0)
(8.91767 -1.48977 0)
(9.08957 -1.56181 0)
(9.21853 -1.66274 0)
(9.30835 -1.7769 0)
(9.38728 -1.88052 0)
(9.47473 -1.97451 0)
(9.55083 -2.07014 0)
(9.62155 -2.15102 0)
(9.65907 -2.22267 0)
(9.68874 -2.28929 0)
(9.68266 -2.34183 0)
(9.67996 -2.38113 0)
(9.67232 -2.39889 0)
(9.66823 -2.39964 0)
(9.63277 -2.39898 0)
(9.60476 -2.40255 0)
(9.55736 -2.39669 0)
(9.49821 -2.39329 0)
(9.43103 -2.37994 0)
(9.34839 -2.37651 0)
(9.27121 -2.39191 0)
(9.19405 -2.41414 0)
(9.14016 -2.42512 0)
(9.10422 -2.41362 0)
(9.05204 -2.39128 0)
(8.99484 -2.35293 0)
(8.93061 -2.32397 0)
(8.88321 -2.30659 0)
(8.83957 -2.27839 0)
(8.78475 -2.23967 0)
(8.72789 -2.18529 0)
(8.63808 -2.12148 0)
(8.50081 -2.02294 0)
(8.37691 -1.93731 0)
(8.26545 -1.86215 0)
(8.14915 -1.77279 0)
(8.06007 -1.69235 0)
(7.97471 -1.60233 0)
(7.89729 -1.51746 0)
(7.82689 -1.45887 0)
(7.76414 -1.4119 0)
(7.66871 -1.34538 0)
(7.58085 -1.27237 0)
(7.46599 -1.19112 0)
(7.36015 -1.08271 0)
(7.23584 -0.980865 0)
(7.13967 -0.88336 0)
(7.05497 -0.790949 0)
(6.96041 -0.705187 0)
(6.8695 -0.622903 0)
(6.77065 -0.541179 0)
(6.68414 -0.463471 0)
(6.59921 -0.392016 0)
(6.51985 -0.315905 0)
(6.45981 -0.241428 0)
(6.40587 -0.172561 0)
(6.37009 -0.114678 0)
(6.33876 -0.0534944 0)
(6.30451 0.00804741 0)
(6.28159 0.0912341 0)
(6.25577 0.178071 0)
(6.23957 0.25823 0)
(6.20081 0.342291 0)
(6.19798 0.426732 0)
(6.17942 0.512653 0)
(6.1553 0.581472 0)
(6.15987 0.644459 0)
(6.16533 0.701899 0)
(6.17061 0.751769 0)
(6.17078 0.801539 0)
(6.14288 0.853181 0)
(6.12946 0.89323 0)
(6.10993 0.911849 0)
(6.10599 0.947873 0)
(6.08701 0.950136 0)
(6.10409 0.959058 0)
(6.10268 0.958613 0)
(6.11537 0.97135 0)
(6.13606 0.946568 0)
(6.14533 0.936332 0)
(6.19542 0.904735 0)
(6.19898 0.891439 0)
(6.2875 0.838709 0)
(6.28741 0.81479 0)
(6.35914 0.745686 0)
(6.33851 0.723627 0)
(6.43084 0.647308 0)
(6.40146 0.637452 0)
(6.50205 0.571652 0)
(6.42953 0.571702 0)
(6.54149 0.477956 0)
(6.4314 0.474629 0)
(6.54554 0.390112 0)
(6.41449 0.40371 0)
(6.52655 0.30073 0)
(6.39139 0.314381 0)
(6.51832 0.215542 0)
(6.36286 0.231373 0)
(6.53465 0.133907 0)
(6.34179 0.155592 0)
(6.53497 0.0627787 0)
(6.31202 0.0863894 0)
(6.48334 -0.0082519 0)
(6.29473 0.0371384 0)
(6.41298 -0.0567901 0)
(6.27547 0.00412882 0)
(6.35269 -0.0835071 0)
(6.23626 -0.00207662 0)
(6.30431 -0.100375 0)
(6.19468 0.00543601 0)
(6.25473 -0.114156 0)
(6.13522 0.0133623 0)
(6.18087 -0.116722 0)
(6.07435 0.0257996 0)
(6.10546 -0.115948 0)
(6.08605 0.0370114 0)
(6.06832 -0.100415 0)
(6.13956 0.0499274 0)
(6.06012 -0.0834711 0)
(6.2088 0.0782906 0)
(6.06385 -0.0637375 0)
(6.28743 0.110569 0)
(6.0502 -0.0288854 0)