/*--------------------------------*- C++ -*----------------------------------*\
| =========                 |                                                 |
| \\      /  F ield         | OpenFOAM: The Open Source CFD Toolbox           |
|  \\    /   O peration     | Version:  2.4.0                                 |
|   \\  /    A nd           | Web:      www.OpenFOAM.org                      |
|    \\/     M anipulation  |                                                 |
\*---------------------------------------------------------------------------*/
FoamFile
{
    version     2.0;
    format      ascii;
    class       volScalarField;
    location    "0.154";
    object      pMean;
}
// * * * * * * * * * * * * * * * * * * * * * * * * * * * * * * * * * * * * * //

dimensions      [0 2 -2 0 0 0 0];

internalField   nonuniform List<scalar> 
17600
(
108.162
92.0391
87.2438
85.8002
84.5409
83.2661
82.0668
80.9226
79.827
78.7272
77.6452
76.5534
75.4927
74.4129
73.3715
72.2703
71.1702
69.9344
68.501
66.2624
106.265
92.0882
87.2844
85.8096
84.5442
83.2666
82.0671
80.9228
79.8272
78.7272
77.6452
76.5535
75.4927
74.4134
73.3715
72.2718
71.1708
69.938
68.5093
66.506
104.86
92.3415
87.4266
85.8473
84.558
83.271
82.0692
80.9244
79.8284
78.7279
77.6455
76.5535
75.4931
74.4134
73.3724
72.2716
71.174
69.9385
68.5588
66.6405
103.889
92.6787
87.6434
85.9113
84.587
83.2863
82.0778
80.9306
79.8326
78.7307
77.6468
76.555
75.4937
74.4164
73.3737
72.2791
71.1769
69.9584
68.6049
66.8117
103.07
93.009
87.9031
85.9916
84.6287
83.3152
82.097
80.9449
79.8427
78.7379
77.6509
76.5574
75.4962
74.4182
73.3784
72.2817
71.1906
69.974
68.6815
67.0077
102.3
93.297
88.1756
86.0721
84.67
83.3519
82.1257
80.968
79.8596
78.7507
77.6582
76.5644
75.4998
74.4265
73.3832
72.2955
71.2021
70.0042
68.7728
67.238
101.576
93.5402
88.4469
86.1474
84.7016
83.3861
82.1584
80.9965
79.8817
78.7681
77.6695
76.5728
75.5067
74.4345
73.3924
72.3092
71.2181
70.0448
68.8632
67.5201
100.907
93.7416
88.7107
86.2195
84.7227
83.4125
82.1903
81.0272
79.9057
78.7874
77.6819
76.5836
75.5145
74.446
73.4046
72.3271
71.2435
70.0879
68.9564
67.8622
100.298
93.905
88.9591
86.2939
84.7356
83.4307
82.2191
81.0577
79.9301
78.807
77.6943
76.5948
75.5219
74.4591
73.4141
72.3508
71.2623
70.1471
69.0272
68.2039
99.7521
94.0316
89.1891
86.3728
84.7421
83.441
82.2439
81.087
79.9539
78.8253
77.7061
76.6047
75.5304
74.4711
73.4285
72.3725
71.2922
70.2052
69.128
68.5764
99.2674
94.1236
89.3999
86.4565
84.7434
83.4447
82.2645
81.1147
79.9768
78.8428
77.7166
76.6143
75.5373
74.4834
73.4409
72.396
71.3253
70.266
69.2595
68.8995
98.8409
94.1854
89.5915
86.5445
84.7409
83.4429
82.2812
81.1406
79.999
78.8589
77.7263
76.6225
75.5455
74.4951
73.4561
72.4197
71.3612
70.3338
69.3975
69.1862
98.47
94.2226
89.7633
86.635
84.7359
83.4367
82.2945
81.1645
80.0199
78.8738
77.7351
76.63
75.553
74.5066
73.4721
72.444
71.4029
70.4046
69.5393
69.4459
98.1521
94.2421
89.9146
86.7233
84.7306
83.4274
82.3049
81.1858
80.0397
78.8871
77.7433
76.6365
75.5614
74.5179
73.4893
72.4695
71.4469
70.4788
69.6805
69.6819
97.8841
94.2511
90.0444
86.8026
84.7267
83.417
82.3129
81.2047
80.0575
78.8991
77.7506
76.6425
75.5693
74.5298
73.507
72.4972
71.4922
70.5559
69.8198
69.8967
97.6637
94.2545
90.1517
86.8706
84.7246
83.4066
82.3191
81.2208
80.0733
78.9094
77.7573
76.6482
75.5776
74.5414
73.5258
72.5248
71.5411
70.6321
69.9623
70.0931
97.4897
94.2546
90.2362
86.9262
84.7244
83.3967
82.3235
81.2339
80.0867
78.9177
77.7635
76.6531
75.5863
74.5533
73.546
72.5539
71.5912
70.7086
70.0986
70.2949
97.3604
94.2533
90.2985
86.9691
84.7252
83.3887
82.3264
81.2441
80.097
78.9249
77.7685
76.6588
75.594
74.5666
73.5644
72.5866
71.6393
70.79
70.2115
70.4687
97.275
94.2515
90.3394
86.9982
84.7268
83.3827
82.3285
81.251
80.105
78.9301
77.7738
76.6636
75.6029
74.5792
73.5852
72.6182
71.6898
70.8693
70.3234
70.6481
97.2325
94.2504
90.3596
87.0131
84.7277
83.3798
82.3295
81.255
80.1096
78.9339
77.7778
76.669
75.6109
74.5926
73.6056
72.6511
71.7405
70.9472
70.4409
70.8047
97.2326
94.2505
90.3596
87.0134
84.7278
83.3803
82.3297
81.2558
80.111
78.936
77.7812
76.6743
75.6193
74.6061
73.6271
72.6835
71.7931
71.021
70.5684
70.9407
97.2754
94.2515
90.3396
86.9986
84.7273
83.3837
82.3295
81.253
80.1097
78.9359
77.7847
76.6789
75.6284
74.6188
73.6495
72.7159
71.846
71.0929
70.6892
71.0989
97.3609
94.2533
90.2988
86.9699
84.726
83.3905
82.328
81.2477
80.1045
78.9351
77.7861
76.6851
75.6357
74.6342
73.6696
72.7522
71.8939
71.1708
70.7693
71.2128
97.4905
94.2546
90.2368
86.9274
84.7255
83.3991
82.3258
81.2388
80.097
78.9319
77.7878
76.6902
75.6442
74.6481
73.6914
72.7871
71.9437
71.2442
70.8484
71.356
97.6648
94.2545
90.1524
86.8721
84.7262
83.4093
82.3223
81.227
80.0866
78.9271
77.7888
76.695
75.6529
74.6619
73.714
72.8213
71.9954
71.313
70.9352
71.4819
97.8853
94.2512
90.0452
86.8045
84.7286
83.4203
82.317
81.2123
80.0735
78.9209
77.7887
76.6999
75.6609
74.6762
73.7362
72.8566
72.0467
71.3827
71.0197
71.5903
98.1535
94.2422
89.9155
86.7254
84.7331
83.4311
82.31
81.1948
80.0582
78.9129
77.788
76.7041
75.6691
74.6902
73.7587
72.8922
72.0983
71.4538
71.1001
71.6805
98.4715
94.2229
89.7642
86.6374
84.7389
83.4407
82.3006
81.1747
80.0411
78.9034
77.7865
76.7074
75.6773
74.7039
73.7814
72.928
72.1508
71.5263
71.1774
71.7507
98.8424
94.186
89.5923
86.5467
84.7444
83.4474
82.2884
81.1523
80.0225
78.8925
77.7841
76.7098
75.6854
74.7171
73.8043
72.9635
72.2046
71.6001
71.2553
71.7993
99.2689
94.1244
89.4009
86.4587
84.7474
83.4497
82.2726
81.1279
80.0026
78.8802
77.7806
76.711
75.6933
74.7295
73.8275
72.9981
72.2598
71.6748
71.3389
71.8242
99.7537
94.0323
89.1901
86.3751
84.7464
83.4466
82.2529
81.1017
79.9817
78.8668
77.7759
76.7111
75.7009
74.7408
73.8506
73.0315
72.3163
71.7494
71.4324
71.8256
100.3
93.9058
88.9602
86.2963
84.7403
83.4368
82.2291
81.0742
79.9598
78.8521
77.7699
76.7101
75.7077
74.751
73.8732
73.0628
72.3733
71.8215
71.5366
71.8086
100.908
93.7426
88.7118
86.222
84.7278
83.4192
82.2012
81.0455
79.9372
78.8366
77.7628
76.7083
75.7135
74.7603
73.894
73.0919
72.4267
71.8894
71.637
71.7946
101.577
93.5414
88.448
86.1499
84.707
83.3934
82.17
81.0167
79.9148
78.821
77.7552
76.7061
75.7182
74.7686
73.9118
73.1181
72.4724
71.9504
71.7183
71.7691
102.302
93.2984
88.1769
86.0747
84.6758
83.3598
82.1382
80.9897
79.8943
78.8068
77.7485
76.7043
75.7221
74.7757
73.9266
73.1398
72.5096
71.9994
71.7815
71.7724
103.072
93.0104
87.9046
85.9942
84.6347
83.3236
82.11
80.9679
79.8786
78.7964
77.7442
76.7037
75.7259
74.7819
73.9382
73.1568
72.537
72.0359
71.8238
71.7754
103.89
92.6803
87.6451
85.914
84.5932
83.295
82.0913
80.9544
79.8695
78.791
77.7426
76.7044
75.7291
74.7866
73.9463
73.1685
72.5548
72.0605
71.847
71.785
104.861
92.3431
87.4283
85.85
84.5643
83.28
82.083
80.9487
79.8658
78.7891
77.7425
76.7055
75.7312
74.7897
73.9509
73.1753
72.5644
72.0741
71.8583
71.8003
106.266
92.0898
87.2861
85.8123
84.5505
83.2757
82.081
80.9472
79.8648
78.7888
77.7427
76.7061
75.7321
74.7909
73.9526
73.1778
72.5678
72.079
71.8616
71.8222
108.163
92.0407
87.2456
85.8029
84.5473
83.2752
82.0808
80.947
79.8646
78.7888
77.7427
76.7062
75.7321
74.791
73.9528
73.1779
72.5679
72.079
71.8606
71.8615
64.3757
63.768
62.6952
61.5451
60.5188
59.6939
59.0095
58.3993
58.0296
57.7809
57.6101
57.5043
57.3902
57.1319
56.6328
55.853
54.8272
53.8215
52.9789
52.3418
51.8957
51.6323
51.6156
51.8299
52.2276
52.8078
53.5085
54.3114
55.1932
56.0995
57.0019
57.8931
58.7568
59.5906
60.3926
61.1552
61.9044
62.6668
63.438
64.1788
64.841
65.4031
65.886
66.3204
66.7136
67.056
67.3666
67.6433
67.8309
67.9324
67.9946
68.0297
68.0135
67.9318
67.8133
67.6871
67.5672
67.4556
67.3704
67.3389
67.3721
67.4665
67.5939
67.7609
67.9742
68.2109
68.452
68.6931
68.9164
69.1065
69.2597
69.3653
69.4185
69.4083
69.3376
69.2414
69.1634
69.125
69.1238
69.1683
69.2609
69.3902
69.5502
69.7258
69.9083
70.097
70.2851
70.4722
70.6589
70.8429
71.0247
71.1882
71.3397
71.4763
71.5982
71.7064
71.8044
71.8976
71.9968
72.0929
72.1909
72.2878
72.3951
72.5133
72.6423
72.7789
72.9193
73.044
73.1568
73.2558
73.3447
73.4079
73.4657
73.503
73.5331
73.5395
73.5556
73.5602
73.5683
73.5884
73.6196
73.6809
73.7572
73.8658
74.0172
74.1845
74.4096
74.6203
74.8744
75.1382
75.4117
75.7234
76.0158
76.3284
76.6193
76.9163
77.1915
77.4591
77.7046
77.9256
78.1271
78.2824
78.4289
78.5224
78.607
78.6449
78.6836
78.6756
78.6727
78.6311
78.594
78.5319
78.4701
78.3905
78.3134
78.231
78.1565
78.0817
78.0246
77.9747
77.9527
77.9444
77.9666
78.0056
78.0805
78.1558
78.2564
78.3479
78.4596
78.5445
78.645
78.7125
78.7938
78.8511
78.9332
78.9809
79.063
79.1109
79.209
79.2282
79.3033
79.2561
79.289
79.1496
79.1226
78.8954
78.7905
78.4572
78.2351
77.7556
77.3453
76.6389
75.9089
74.7958
73.4272
71.486
68.676
64.0588
58.309
32.7296
64.7838
64.0707
63.1183
62.1078
61.1985
60.4749
59.9043
59.4046
59.1101
58.9299
58.7882
58.6843
58.539
58.2465
57.7432
56.9924
55.9969
54.9759
54.1237
53.4734
53.0171
52.7608
52.7519
52.9703
53.3724
53.9403
54.6235
55.3952
56.2404
57.1226
58.008
58.8804
59.7215
60.5275
61.2953
62.01
62.6971
63.3866
64.077
64.7402
65.3309
65.8178
66.2161
66.5627
66.8717
67.1269
67.3608
67.5828
67.731
67.7949
67.8171
67.815
67.7626
67.6472
67.4922
67.3235
67.1559
66.9956
66.8644
66.7925
66.7965
66.8679
66.9732
67.1278
67.3352
67.5674
67.8061
68.0467
68.269
68.4591
68.6151
68.7252
68.783
68.7794
68.7227
68.6527
68.6092
68.6114
68.6576
68.757
68.9096
69.1006
69.321
69.5539
69.7865
70.0187
70.2463
70.4667
70.6835
70.8932
71.0961
71.2779
71.4431
71.5907
71.7215
71.8383
71.9459
72.0448
72.1472
72.2429
72.3358
72.4237
72.5219
72.6309
72.7527
72.8836
73.0213
73.1432
73.2578
73.3567
73.4448
73.5019
73.5484
73.5661
73.5732
73.5526
73.5386
73.5161
73.495
73.4923
73.5047
73.5508
73.6191
73.7237
73.8766
74.0473
74.2732
74.4945
74.7496
75.0327
75.3156
75.6468
75.9613
76.2904
76.601
76.9119
77.201
77.4802
77.7341
77.9659
78.1741
78.3394
78.4915
78.5894
78.6775
78.7154
78.7561
78.7481
78.7497
78.7053
78.6706
78.6054
78.5453
78.4611
78.3819
78.2918
78.2109
78.1266
78.0574
77.9932
77.9539
77.925
77.9221
77.9316
77.9767
78.0189
78.0876
78.1454
78.2261
78.2793
78.3553
78.3963
78.4602
78.4934
78.5623
78.5879
78.6602
78.6858
78.7745
78.7709
78.8375
78.7697
78.7901
78.63
78.5805
78.3285
78.1907
77.8239
77.5523
77.0222
76.5388
75.7436
74.8919
73.6237
72.0319
69.7051
66.6559
60.4903
54.449
25.5494
65.2002
64.4791
63.5618
62.6223
61.7949
61.1422
60.6565
60.2573
60.0209
59.8898
59.766
59.6612
59.4952
59.185
58.6838
57.9771
57.05
56.0635
55.2323
54.5818
54.1416
53.9073
53.9039
54.1197
54.5145
55.0628
55.7253
56.4717
57.288
58.1486
59.0149
59.8669
60.6857
61.4647
62.2001
62.8728
63.5017
64.1226
64.7369
65.3202
65.8356
66.2472
66.5634
66.8239
67.0503
67.222
67.3801
67.5473
67.6571
67.6881
67.6769
67.6397
67.5525
67.4063
67.219
67.0116
66.7991
66.5915
66.4159
66.3048
66.2803
66.3259
66.4097
66.553
66.7542
66.9808
67.2168
67.4562
67.6775
67.8689
68.0282
68.1427
68.2059
68.2117
68.1729
68.1329
68.1263
68.1695
68.2637
68.4178
68.6301
68.8823
69.1622
69.452
69.7352
70.0105
70.2767
70.5304
70.7757
71.0092
71.2308
71.4298
71.6086
71.7666
71.9071
72.0319
72.1493
72.2539
72.3595
72.4549
72.5443
72.6243
72.7148
72.8141
72.9295
73.053
73.1867
73.3045
73.4219
73.5202
73.608
73.6596
73.6961
73.6948
73.6801
73.6335
73.588
73.536
73.4854
73.4555
73.4475
73.4742
73.5329
73.6302
73.7821
73.9528
74.1754
74.405
74.6591
74.9593
75.2517
75.6002
75.9351
76.282
76.6093
76.9357
77.2373
77.5265
77.7865
78.0267
78.2381
78.4122
78.5665
78.671
78.7607
78.7997
78.839
78.8319
78.8334
78.787
78.7517
78.6841
78.624
78.5373
78.456
78.3599
78.2724
78.1804
78.0993
78.0216
77.9645
77.9149
77.8892
77.8696
77.8874
77.8956
77.9339
77.9572
78.0075
78.0283
78.0801
78.0919
78.1392
78.1465
78.2018
78.2048
78.2663
78.2708
78.3465
78.3236
78.3731
78.2883
78.2863
78.1095
78.0308
77.7568
77.5787
77.1836
76.8481
76.2776
75.7082
74.8391
73.8527
72.4129
70.6514
67.8209
64.8494
56.9284
50.7455
23.7051
65.5569
64.8993
64.0519
63.136
62.3413
61.736
61.3237
61.019
60.8304
60.7323
60.6239
60.5056
60.322
60.0086
59.5233
58.8737
58.0308
57.1181
56.3296
55.7043
55.2948
55.0833
55.0737
55.2755
55.6554
56.1816
56.8206
57.5425
58.3312
59.1655
60.008
60.8374
61.6341
62.3888
63.0956
63.7334
64.312
64.8679
65.4082
65.9129
66.3507
66.6888
66.9269
67.1068
67.2546
67.3494
67.4342
67.5423
67.6112
67.6124
67.5747
67.5056
67.3861
67.2119
66.9955
66.7512
66.4966
66.2455
66.0288
65.8809
65.828
65.8455
65.909
66.0435
66.2376
66.4578
66.69
66.9277
67.1485
67.3427
67.5071
67.6263
67.6957
67.7132
67.6957
67.6884
67.7202
67.8048
67.9463
68.1541
68.4238
68.7358
69.0737
69.4201
69.7542
70.0717
70.3758
70.6622
70.9347
71.19
71.4282
71.6434
71.8355
72.0027
72.1533
72.2856
72.4129
72.5228
72.6314
72.7255
72.8127
72.8861
72.9701
73.0598
73.1697
73.2841
73.412
73.525
73.6451
73.7428
73.8301
73.8765
73.9046
73.8857
73.8509
73.7789
73.7025
73.6191
73.5394
73.4781
73.4488
73.4529
73.5006
73.5867
73.7359
73.903
74.1206
74.3546
74.6088
74.9193
75.2237
75.5861
75.9384
76.3037
76.6449
76.9851
77.2977
77.5958
77.8611
78.1075
78.32
78.5011
78.6555
78.7674
78.8576
78.8982
78.9344
78.9266
78.9244
78.8755
78.8389
78.7678
78.7091
78.6193
78.5376
78.4347
78.3428
78.241
78.1513
78.0584
77.9853
77.9144
77.8685
77.8208
77.812
77.7866
77.7952
77.7852
77.8055
77.7951
77.8202
77.8036
77.831
77.8137
77.8514
77.8339
77.882
77.8664
77.9257
77.8838
77.9129
77.8108
77.7804
77.5892
77.4745
77.1844
76.9589
76.5391
76.1323
75.5207
74.8593
73.9069
72.8146
71.1519
69.3833
65.8206
63.2373
53.6631
47.2203
24.3865
65.8906
65.3177
64.5549
63.6574
62.8681
62.2994
61.9496
61.7319
61.5968
61.5225
61.4247
61.2881
61.0942
60.7899
60.331
59.7414
58.9982
58.1764
57.444
56.8624
56.4877
56.2906
56.2641
56.4411
56.7979
57.2973
57.9086
58.6027
59.3623
60.1634
60.9759
61.7803
62.5564
63.2875
63.9692
64.5803
65.119
65.6139
66.0812
66.5104
66.8733
67.1415
67.307
67.4133
67.489
67.514
67.5282
67.5729
67.5962
67.5705
67.5108
67.4151
67.2672
67.067
66.8234
66.5441
66.2494
65.9596
65.7065
65.5249
65.444
65.4325
65.4786
65.6058
65.7916
66.0044
66.2316
66.4666
66.6881
66.8877
67.0582
67.1837
67.2607
67.2918
67.2985
67.3252
67.3958
67.5214
67.7095
67.9687
68.2931
68.6629
69.0568
69.4577
69.8418
70.2012
70.5427
70.8608
71.159
71.4343
71.6878
71.9177
72.122
72.2973
72.4577
72.5972
72.7339
72.849
72.9599
73.0516
73.1372
73.2048
73.2838
73.3649
73.4691
73.5732
73.6942
73.8015
73.9237
74.0195
74.1071
74.1478
74.1692
74.1339
74.0813
73.9848
73.8801
73.7638
73.6562
73.5609
73.5091
73.4878
73.5236
73.5946
73.7396
73.8998
74.1122
74.3458
74.6026
74.9156
75.2345
75.6049
75.9731
76.3535
76.7074
77.0578
77.3802
77.6869
77.9576
78.2077
78.4215
78.6058
78.759
78.8761
78.967
79.0074
79.0409
79.0305
79.0237
78.9715
78.9332
78.8574
78.8013
78.7077
78.6263
78.5167
78.4211
78.3093
78.212
78.1038
78.0162
77.925
77.8593
77.786
77.7496
77.6929
77.6728
77.63
77.6224
77.5797
77.5789
77.5315
77.5388
77.4958
77.5164
77.476
77.5104
77.473
77.5128
77.4518
77.4581
77.3393
77.2767
77.0716
76.9165
76.6118
76.3397
75.8899
75.4227
74.7573
74.0254
72.9342
71.819
69.7741
68.2499
63.7119
61.7301
50.8851
43.7812
25.2308
66.2659
65.7628
65.0392
64.1514
63.3638
62.8276
62.5371
62.4
62.325
62.2718
62.1861
62.0461
61.8499
61.5622
61.1399
60.6099
59.9692
59.2471
58.5794
58.0467
57.7023
57.5193
57.4783
57.6231
57.9445
58.4085
58.9863
59.6497
60.3774
61.1404
61.9154
62.691
63.4477
64.1575
64.8123
65.3987
65.9056
66.3468
66.7456
67.1051
67.3991
67.6042
67.7066
67.7472
67.7593
67.721
67.6656
67.6439
67.6185
67.5673
67.4895
67.3714
67.1987
66.9747
66.7039
66.3916
66.0596
65.7369
65.4522
65.2395
65.1314
65.0933
65.1251
65.246
65.4217
65.6244
65.8456
66.0786
66.303
66.51
66.6883
66.8217
66.9086
66.9562
66.9885
67.0496
67.1583
67.3229
67.5557
67.8641
68.2403
68.6649
69.1123
69.5642
69.9961
70.3967
70.7748
71.1238
71.4468
71.741
72.0087
72.2513
72.4671
72.6485
72.8182
72.9636
73.1089
73.2287
73.3419
73.4298
73.5142
73.5771
73.6532
73.727
73.8247
73.9165
74.0305
74.1314
74.2544
74.3466
74.4343
74.4694
74.4844
74.4345
74.3662
74.247
74.1171
73.9682
73.8348
73.7045
73.629
73.5797
73.6028
73.6553
73.7947
73.9447
74.1524
74.3813
74.6418
74.9518
75.2854
75.6588
76.041
76.4308
76.7988
77.1525
77.4839
77.7975
78.0749
78.3263
78.5433
78.7266
78.879
78.9953
79.0867
79.1249
79.1575
79.1427
79.1333
79.0768
79.0382
78.9545
78.9016
78.8008
78.7226
78.6042
78.5083
78.3846
78.2827
78.1568
78.0594
77.9457
77.8639
77.7632
77.7022
77.6138
77.5686
77.4917
77.4596
77.3839
77.3589
77.2802
77.2667
77.1972
77.1994
77.1343
77.1523
77.0922
77.1091
77.027
77.0095
76.8691
76.7803
76.5524
76.3666
76.0345
75.7285
75.2272
74.7335
73.9605
73.239
71.8851
70.9467
68.2791
67.2409
61.5868
60.0595
48.6193
40.3559
25.3937
66.745
66.259
65.4883
64.5743
63.7927
63.2977
63.0746
63.0144
63.0039
62.9801
62.9137
62.7893
62.6009
62.3334
61.9557
61.4856
60.939
60.3184
59.7186
59.232
58.9152
58.7515
58.7078
58.82
59.0984
59.5198
60.0596
60.6878
61.3767
62.0978
62.8323
63.5718
64.3036
64.9921
65.6196
66.1756
66.653
67.0503
67.3911
67.6889
67.9231
68.074
68.1248
68.1084
68.0663
67.9716
67.8493
67.7594
67.6852
67.6082
67.5134
67.3752
67.18
66.9325
66.636
66.2947
65.9311
65.5801
65.2668
65.0249
64.8921
64.8322
64.8539
64.9674
65.1305
65.3218
65.5359
65.7691
65.9987
66.2148
66.4023
66.5459
66.646
66.7124
66.7717
66.8665
67.0114
67.2134
67.4888
67.8433
68.2675
68.7431
69.2405
69.7391
70.2152
70.6553
71.0684
71.4472
71.7951
72.1076
72.3891
72.6428
72.8687
73.0543
73.2322
73.3823
73.5345
73.6573
73.7726
73.8565
73.9396
73.9991
74.0744
74.142
74.2331
74.3114
74.4177
74.512
74.6336
74.7208
74.8078
74.837
74.846
74.7828
74.7007
74.5609
74.4101
74.23
74.0731
73.9084
73.8089
73.7297
73.739
73.771
73.9029
74.0393
74.2431
74.463
74.728
75.0291
75.3762
75.7469
76.1407
76.5329
76.9174
77.2678
77.6115
77.9239
78.2118
78.4601
78.6846
78.86
79.0161
79.1221
79.2176
79.2471
79.2854
79.2588
79.2555
79.1871
79.1562
79.0565
79.0115
78.8949
78.8272
78.6927
78.6063
78.4635
78.3653
78.2149
78.1164
77.9737
77.8826
77.7499
77.6701
77.5484
77.4831
77.3712
77.3182
77.2087
77.1631
77.0522
77.0186
76.919
76.9037
76.8084
76.8119
76.7203
76.7195
76.6047
76.5704
76.3954
76.2951
76.0257
75.8334
75.4439
75.1395
74.5318
74.0973
73.0855
72.528
70.6959
70.1358
66.6795
66.2185
59.5689
58.0425
46.7971
36.9566
25.0543
67.3936
66.8533
65.8901
64.8849
64.1188
63.6927
63.5516
63.5678
63.6213
63.6414
63.6053
63.5064
63.3361
63.0944
62.7657
62.354
61.8871
61.3624
60.836
60.3946
60.1043
59.9614
59.9281
60.0199
60.2582
60.6351
61.1297
61.7124
62.3573
63.0347
63.7269
64.4272
65.1232
65.7823
66.3795
66.9024
67.3494
67.7133
68.0075
68.255
68.4411
68.5467
68.5555
68.4928
68.4057
68.2625
68.0772
67.9207
67.7986
67.6942
67.5797
67.4221
67.2064
66.938
66.6196
66.2544
65.8657
65.49
65.1483
64.8802
64.7271
64.6513
64.6669
64.7711
64.9197
65.0981
65.3059
65.5422
65.7799
66.0065
66.2045
66.3602
66.4758
66.5632
66.6506
66.7784
66.9587
67.1961
67.5111
67.9084
68.3761
68.8981
69.4412
69.9816
70.497
70.9735
71.4193
71.8269
72.1994
72.5303
72.8261
73.0894
73.3245
73.5132
73.6969
73.8508
74.0078
74.1317
74.2484
74.3279
74.4097
74.4675
74.543
74.6062
74.6907
74.7549
74.8533
74.9402
75.0583
75.1386
75.2241
75.2467
75.2501
75.1746
75.0809
74.9221
74.7547
74.5459
74.3677
74.171
74.0479
73.9382
73.9328
73.9431
74.0654
74.1855
74.3861
74.593
74.862
75.1506
75.5069
75.8684
76.2723
76.6585
77.0574
77.403
77.7607
78.0633
78.3644
78.6046
78.8406
79.0017
79.1674
79.2544
79.3585
79.3711
79.4209
79.3743
79.3859
79.2978
79.2834
79.1605
79.1293
78.9875
78.9388
78.779
78.7136
78.541
78.4591
78.2738
78.1864
78.0043
77.9162
77.7409
77.6565
77.4931
77.4207
77.2642
77.2034
77.0494
76.9969
76.8424
76.8007
76.6587
76.6371
76.4976
76.4966
76.3557
76.3515
76.1798
76.1492
75.9051
75.8262
75.4644
75.3254
74.7923
74.5911
73.7513
73.5175
72.1011
71.8547
69.4085
69.3077
65.0392
65.0257
57.7586
55.3237
45.2212
34.1557
24.7679
68.2716
67.6189
66.2735
65.1182
64.371
64.0278
63.9736
64.0634
64.1797
64.2541
64.2561
64.1866
64.0423
63.8306
63.5487
63.1938
62.7938
62.3523
61.9032
61.5127
61.25
61.1267
61.1107
61.1973
61.4077
61.7441
62.1888
62.719
63.3164
63.9489
64.5978
65.2562
65.9083
66.526
67.0851
67.5722
67.9894
68.3268
68.5881
68.796
68.9458
69.0169
68.99
68.889
68.7646
68.5821
68.3406
68.1225
67.9556
67.8218
67.6838
67.5063
67.2747
66.9917
66.6576
66.2744
65.8646
65.4645
65.0936
64.8042
64.6365
64.5506
64.5624
64.6571
64.79
64.955
65.1587
65.4016
65.6498
65.8874
66.0967
66.2667
66.4001
66.5097
66.6252
66.7856
67.0007
67.2727
67.6243
68.0607
68.567
69.1301
69.7136
70.2906
70.8389
71.3468
71.8226
72.2569
72.6536
73.0037
73.3151
73.5867
73.8304
74.0223
74.2098
74.3667
74.5265
74.65
74.7661
74.8411
74.9209
74.9775
75.055
75.1137
75.1929
75.2433
75.3337
75.4118
75.5251
75.5969
75.6796
75.6954
75.6932
75.606
75.5023
75.3269
75.1459
74.9118
74.7148
74.4889
74.344
74.2043
74.1833
74.1714
74.2831
74.3849
74.5805
74.7719
75.0428
75.3165
75.6782
76.0254
76.4374
76.8083
77.2194
77.5584
77.9283
78.2156
78.5312
78.7578
79.0068
79.1497
79.3287
79.3919
79.5061
79.4965
79.5591
79.4875
79.518
79.4051
79.4145
79.264
79.2532
79.0785
79.0551
78.8593
78.8259
78.6106
78.5603
78.3263
78.2662
78.0293
77.9626
77.7282
77.6629
77.4389
77.3836
77.1621
77.1181
76.8974
76.8641
76.6427
76.6199
76.4082
76.4084
76.1922
76.2157
75.9833
76.015
75.7328
75.7554
75.3754
75.3806
74.8444
74.8385
74.0624
74.0487
72.8741
72.8921
70.9955
71.0777
68.0287
68.3614
63.4816
63.341
56.2587
51.8421
43.7128
32.6135
25.1022
68.9921
68.2826
66.6778
65.3924
64.6277
64.3339
64.3508
64.5096
64.6879
64.8169
64.8598
64.8215
64.707
64.5263
64.2864
63.9852
63.6431
63.2728
62.8985
62.5645
62.3336
62.2317
62.2362
62.329
62.5234
62.8252
63.222
63.7009
64.247
64.832
65.4369
66.0507
66.654
67.2237
67.7378
68.1861
68.5717
68.8841
69.1233
69.3034
69.4276
69.4759
69.4209
69.2885
69.1304
68.9186
68.6293
68.3557
68.1505
67.9865
67.8213
67.6264
67.3845
67.0938
66.752
66.3571
65.9273
65.5002
65.1
64.7958
64.6198
64.5284
64.5374
64.6219
64.7405
64.8941
65.097
65.3501
65.6092
65.8587
66.0805
66.2664
66.4192
66.5518
66.695
66.8867
67.1358
67.4413
67.8274
68.299
68.8397
69.4377
70.0559
70.6638
71.2385
71.7717
72.2727
72.7313
73.1514
73.5198
73.8481
74.129
74.3815
74.5772
74.7674
74.9266
75.0874
75.2093
75.3232
75.3919
75.47
75.5237
75.6044
75.6587
75.7336
75.7716
75.8541
75.9227
76.0294
76.0929
76.1706
76.1791
76.1711
76.0729
75.9605
75.7697
75.5769
75.321
75.1076
74.8563
74.6915
74.524
74.487
74.4534
74.5543
74.6362
74.8259
74.9997
75.2686
75.5246
75.8875
76.2179
76.6346
76.9857
77.4061
77.7346
78.1142
78.3829
78.711
78.9197
79.1809
79.3038
79.4955
79.5345
79.6589
79.624
79.6979
79.5991
79.6477
79.5079
79.5421
79.3626
79.376
79.1654
79.1701
78.9306
78.934
78.666
78.6572
78.3631
78.3427
78.0363
78.0099
77.6985
77.6783
77.371
77.3621
77.0514
77.0558
76.7406
76.7603
76.4399
76.4728
76.1511
76.2117
75.8747
75.961
75.5929
75.6985
75.2582
75.3732
74.801
74.9249
74.1528
74.3127
73.2409
73.4425
71.8872
72.172
69.8171
70.2082
66.7389
67.076
62.1756
60.8195
54.7907
48.7079
42.4908
32.3174
26.0225
69.5738
68.8601
67.1088
65.7138
64.9031
64.6249
64.6941
64.9142
65.1493
65.3279
65.4128
65.4072
65.3236
65.1725
64.9683
64.7146
64.4249
64.1185
63.8147
63.5405
63.3443
63.2637
63.2887
63.3939
63.5822
63.8582
64.2155
64.6461
65.14
65.6771
66.2364
66.8015
67.3538
67.8715
68.3376
68.7468
69.0995
69.3868
69.6072
69.7684
69.8773
69.9142
69.843
69.6858
69.4978
69.265
68.936
68.615
68.3778
68.1843
67.9905
67.7827
67.5368
67.2438
66.9012
66.5016
66.052
65.5936
65.1656
64.8553
64.6768
64.5831
64.5893
64.6634
64.7693
64.9154
65.1228
65.3885
65.659
65.9209
66.157
66.3601
66.5333
66.6891
66.8586
67.08
67.3614
67.6989
68.1172
68.6203
69.1914
69.8181
70.4647
71.0974
71.6923
72.2441
72.766
73.2446
73.6857
74.0705
74.4165
74.7082
74.9713
75.1723
75.3645
75.5255
75.6863
75.8051
75.9168
75.9775
76.0538
76.1036
76.1864
76.2358
76.3059
76.3345
76.409
76.468
76.5673
76.6224
76.6944
76.695
76.6799
76.5716
76.4513
76.2459
76.0418
75.7673
75.5403
75.2667
75.084
74.8907
74.8387
74.785
74.8754
74.9369
75.1195
75.2739
75.5372
75.7728
76.1316
76.4426
76.8606
77.1909
77.6154
77.9301
78.3167
78.5654
78.901
79.0905
79.3609
79.4638
79.6643
79.6804
79.8132
79.7537
79.8357
79.7118
79.7725
79.6079
79.6601
79.4555
79.4897
79.2484
79.2752
78.9955
79.0252
78.7083
78.7333
78.3816
78.3997
78.0213
78.0432
77.6472
77.6841
77.2814
77.3358
76.9204
76.9965
76.5633
76.6637
76.2126
76.3352
75.8674
76.0247
75.531
75.7134
75.1759
75.3825
74.7453
74.969
74.169
74.4061
73.3729
73.6816
72.3119
72.7132
70.8369
71.2943
68.7332
69.0857
65.7516
65.2238
60.9833
57.9791
53.1265
46.6997
41.9929
33.0432
27.2233
70.0388
69.3564
67.5384
66.0679
65.2095
64.9221
65.0178
65.2819
65.565
65.79
65.9187
65.9484
65.8944
65.7711
65.5973
65.3835
65.1424
64.8916
64.6517
64.4376
64.2803
64.2191
64.2592
64.3775
64.5665
64.8271
65.155
65.5453
65.9917
66.4819
66.9924
67.5051
68.0046
68.4688
68.8853
69.2543
69.5738
69.8381
70.0409
70.1875
70.288
70.3249
70.2512
70.0759
69.8654
69.616
69.2556
68.8965
68.6348
68.4118
68.1908
67.9746
67.7325
67.4439
67.104
66.702
66.2344
65.743
65.2902
64.9821
64.8071
64.7125
64.7149
64.7803
64.8767
65.0191
65.236
65.5172
65.7996
66.0743
66.3262
66.5473
66.7411
66.9204
67.1145
67.3635
67.6748
68.0415
68.4885
69.0193
69.6172
70.2669
70.9358
71.5874
72.197
72.7614
73.2994
73.7927
74.2515
74.6485
75.0111
75.3161
75.5904
75.7992
75.9949
76.1564
76.3179
76.4334
76.5433
76.5956
76.6701
76.7142
76.7971
76.839
76.9039
76.9242
76.9925
77.0412
77.1343
77.1805
77.2471
77.2391
77.2157
77.098
76.9693
76.7509
76.5352
76.2449
76.0056
75.7128
75.5148
75.2991
75.2323
75.1608
75.241
75.2839
75.4568
75.5918
75.8451
76.0584
76.4074
76.6972
77.1125
77.4229
77.8452
78.1436
78.5324
78.7626
79.0992
79.2697
79.5441
79.6279
79.8305
79.8277
79.9644
79.8834
79.97
79.8268
79.8918
79.7073
79.7659
79.5422
79.5884
79.3249
79.3652
79.0555
79.0956
78.7419
78.7806
78.3851
78.4236
77.9901
78.0415
77.5802
77.6535
77.1721
77.2728
76.763
76.9001
76.3489
76.527
75.9338
76.1587
75.5199
75.8017
75.1136
75.4297
74.6774
75.029
74.1534
74.516
73.4748
73.8169
72.5905
72.9772
71.478
71.8848
69.9772
70.2282
67.87
67.5765
64.7294
63.0015
59.5042
55.6638
51.7746
45.7517
42.2202
34.3273
28.4546
70.4195
69.7824
67.9545
66.4425
65.5408
65.2243
65.3213
65.6147
65.9406
66.2117
66.3846
66.4512
66.4266
66.3296
66.1827
66.0022
65.8043
65.6019
65.4147
65.2559
65.1406
65.1008
65.152
65.2785
65.4704
65.7237
66.0305
66.3884
66.7945
67.2387
67.6983
68.1578
68.6038
69.0155
69.3841
69.711
69.9958
70.2371
70.4258
70.5619
70.6583
70.7012
70.6387
70.4553
70.2285
69.9662
69.5831
69.1967
68.9195
68.668
68.4232
68.2036
67.9708
67.6936
67.361
66.9557
66.4691
65.9457
65.4743
65.1746
65.009
64.9146
64.9125
64.9719
65.0629
65.2063
65.4358
65.7333
66.0289
66.3181
66.5872
66.827
67.0413
67.2434
67.4608
67.735
68.0726
68.4648
68.9364
69.4904
70.1107
70.7781
71.4632
72.1289
72.7486
73.321
73.8712
74.3731
74.8459
75.2494
75.625
75.9432
76.229
76.4483
76.6502
76.8113
76.9755
77.0887
77.1988
77.242
77.3153
77.3508
77.4324
77.463
77.523
77.5339
77.5984
77.6358
77.7257
77.7615
77.8259
77.806
77.774
77.6472
77.5099
77.2794
77.0528
76.7488
76.4984
76.1874
75.9767
75.7422
75.6622
75.5738
75.6445
75.6711
75.8335
75.9498
76.1896
76.3786
76.7142
76.9801
77.3882
77.6791
78.0943
78.3735
78.7593
78.9724
79.3043
79.4562
79.7293
79.7954
79.9944
79.9745
80.1109
80.0119
80.1
79.942
80.0056
79.8052
79.8599
79.6201
79.6691
79.3899
79.4355
79.1058
79.1437
78.7665
78.7991
78.378
78.4161
77.9518
78.007
77.509
77.5883
77.0606
77.1703
76.6056
76.7526
76.1327
76.3226
75.6472
75.8898
75.1547
75.4609
74.6648
75.0096
74.1368
74.527
73.5194
73.9206
72.7506
73.1166
71.8025
72.1604
70.6353
70.8883
69.0622
68.9411
66.804
65.8393
63.2924
61.0133
57.9846
54.1437
51.234
45.7601
42.9278
35.7248
29.5948
70.7344
70.152
68.3496
66.8195
65.8823
65.5305
65.6172
65.9295
66.2901
66.602
66.8154
66.9188
66.9248
66.8542
66.7333
66.581
66.4192
66.2592
66.1149
66.0022
65.9285
65.9136
65.976
66.1071
66.2991
66.5477
66.8405
67.1703
67.539
67.9384
68.3473
68.7538
69.1471
69.5093
69.8342
70.1208
70.3707
70.5867
70.7629
70.8934
70.989
71.0395
70.9966
70.82
70.5839
70.3101
69.9099
69.512
69.2274
68.951
68.6864
68.469
68.2495
67.9864
67.6667
67.2608
66.7534
66.2003
65.7167
65.4309
65.2774
65.1844
65.1804
65.2386
65.3295
65.4774
65.72
66.0332
66.3443
66.6493
66.9365
67.1963
67.4313
67.6549
67.8946
68.1917
68.5509
68.9641
69.4552
70.0271
70.6649
71.3456
72.0416
72.7162
73.3428
73.92
74.4795
74.9838
75.467
75.8698
76.2541
76.5829
76.8781
77.1089
77.3222
77.4808
77.6511
77.7621
77.8745
77.9083
77.9834
78.0063
78.0874
78.1023
78.1592
78.1566
78.2212
78.2449
78.336
78.3585
78.4253
78.3892
78.3503
78.213
78.0676
77.8257
77.5897
77.273
77.0124
76.6839
76.4635
76.2133
76.1227
76.0164
76.0792
76.0905
76.2422
76.3404
76.5668
76.7308
77.0506
77.2914
77.6868
77.9573
78.3629
78.6213
78.9991
79.1954
79.5179
79.6505
79.9163
79.9659
80.1559
80.1196
80.2522
80.1391
80.2253
80.0556
80.1142
79.9007
79.9448
79.6908
79.7348
79.4424
79.4857
79.1435
79.1708
78.7791
78.7949
78.3612
78.3839
77.9068
77.9466
77.4356
77.4972
76.9541
77.0443
76.4651
76.5827
75.9492
76.0987
75.4065
75.604
74.8443
75.1001
74.2699
74.5565
73.6464
73.9654
72.9141
73.2314
72.0191
72.3028
70.9482
71.191
69.5883
69.6662
67.7618
67.4205
65.2339
63.9969
61.6003
59.3472
56.8287
53.3924
51.3822
46.4235
43.7543
36.9866
30.6615
70.9988
70.4725
68.7227
67.1952
66.2349
65.848
65.9151
66.2329
66.6179
66.9633
67.2146
67.3546
67.3928
67.3496
67.254
67.1272
66.9943
66.87
66.7625
66.688
66.6508
66.6614
66.7365
66.8715
67.0616
67.3036
67.5836
67.89
68.2224
68.5773
68.9364
69.2911
69.6326
69.9484
70.2337
70.4842
70.7022
70.8929
71.0552
71.1829
71.2804
71.3401
71.3199
71.1639
70.928
70.641
70.2317
69.8365
69.5519
69.2579
68.9762
68.7651
68.5617
68.314
68.0102
67.6076
67.0842
66.5053
66.0161
65.7501
65.6113
65.5194
65.5173
65.5805
65.6754
65.8301
66.085
66.4127
66.7416
67.0634
67.3695
67.6509
67.907
68.15
68.4115
68.7288
69.1053
69.5347
70.0385
70.6234
71.2732
71.9623
72.6644
73.3438
73.9755
74.5545
75.122
75.6226
76.1146
76.5081
76.8963
77.2296
77.5317
77.7712