/*--------------------------------*- C++ -*----------------------------------*\
| =========                 |                                                 |
| \\      /  F ield         | OpenFOAM: The Open Source CFD Toolbox           |
|  \\    /   O peration     | Version:  2.4.0                                 |
|   \\  /    A nd           | Web:      www.OpenFOAM.org                      |
|    \\/     M anipulation  |                                                 |
\*---------------------------------------------------------------------------*/
FoamFile
{
    version     2.0;
    format      ascii;
    class       volScalarField;
    location    "0.154";
    object      pPrime2Mean;
}
// * * * * * * * * * * * * * * * * * * * * * * * * * * * * * * * * * * * * * //

dimensions      [0 4 -4 0 0 0 0];

internalField   nonuniform List<scalar> 
17600
(
4.19619e+06
4.09037e+06
3.9766e+06
3.86385e+06
3.7527e+06
3.64317e+06
3.53527e+06
3.42897e+06
3.3243e+06
3.22123e+06
3.11976e+06
3.01989e+06
2.92157e+06
2.82475e+06
2.72934e+06
2.63516e+06
2.54182e+06
2.44861e+06
2.35384e+06
2.25186e+06
4.19628e+06
4.09037e+06
3.9766e+06
3.86385e+06
3.7527e+06
3.64317e+06
3.53527e+06
3.42897e+06
3.3243e+06
3.22123e+06
3.11976e+06
3.01989e+06
2.92157e+06
2.82476e+06
2.72935e+06
2.63517e+06
2.54185e+06
2.44866e+06
2.35398e+06
2.25213e+06
4.19634e+06
4.09036e+06
3.97659e+06
3.86384e+06
3.7527e+06
3.64317e+06
3.53527e+06
3.42897e+06
3.3243e+06
3.22123e+06
3.11977e+06
3.01989e+06
2.92157e+06
2.82476e+06
2.72936e+06
2.63519e+06
2.5419e+06
2.44877e+06
2.35422e+06
2.25317e+06
4.19639e+06
4.09034e+06
3.97658e+06
3.86384e+06
3.75269e+06
3.64317e+06
3.53526e+06
3.42897e+06
3.3243e+06
3.22123e+06
3.11977e+06
3.01989e+06
2.92158e+06
2.82477e+06
2.72938e+06
2.63523e+06
2.54197e+06
2.44893e+06
2.35459e+06
2.25463e+06
4.19643e+06
4.09033e+06
3.97657e+06
3.86384e+06
3.75269e+06
3.64317e+06
3.53526e+06
3.42897e+06
3.3243e+06
3.22123e+06
3.11977e+06
3.0199e+06
2.92159e+06
2.82479e+06
2.72941e+06
2.63528e+06
2.54207e+06
2.44914e+06
2.35508e+06
2.25638e+06
4.19646e+06
4.09031e+06
3.97656e+06
3.86383e+06
3.75269e+06
3.64317e+06
3.53526e+06
3.42897e+06
3.3243e+06
3.22123e+06
3.11977e+06
3.0199e+06
2.92159e+06
2.82481e+06
2.72944e+06
2.63534e+06
2.54219e+06
2.44939e+06
2.35568e+06
2.2583e+06
4.1965e+06
4.0903e+06
3.97654e+06
3.86383e+06
3.75269e+06
3.64317e+06
3.53526e+06
3.42897e+06
3.3243e+06
3.22123e+06
3.11977e+06
3.01991e+06
2.92161e+06
2.82483e+06
2.72948e+06
2.63542e+06
2.54234e+06
2.44969e+06
2.35635e+06
2.2603e+06
4.19653e+06
4.09029e+06
3.97653e+06
3.86383e+06
3.75269e+06
3.64317e+06
3.53526e+06
3.42897e+06
3.3243e+06
3.22123e+06
3.11978e+06
3.01991e+06
2.92162e+06
2.82485e+06
2.72952e+06
2.6355e+06
2.5425e+06
2.45002e+06
2.35711e+06
2.26234e+06
4.19656e+06
4.09028e+06
3.97652e+06
3.86382e+06
3.75269e+06
3.64317e+06
3.53526e+06
3.42897e+06
3.3243e+06
3.22124e+06
3.11978e+06
3.01992e+06
2.92163e+06
2.82488e+06
2.72957e+06
2.63559e+06
2.54268e+06
2.45039e+06
2.35792e+06
2.26439e+06
4.19658e+06
4.09027e+06
3.97651e+06
3.86382e+06
3.75269e+06
3.64317e+06
3.53526e+06
3.42897e+06
3.3243e+06
3.22124e+06
3.11979e+06
3.01993e+06
2.92165e+06
2.8249e+06
2.72963e+06
2.63569e+06
2.54288e+06
2.45078e+06
2.35877e+06
2.26641e+06
4.1966e+06
4.09027e+06
3.9765e+06
3.86382e+06
3.75269e+06
3.64317e+06
3.53526e+06
3.42897e+06
3.3243e+06
3.22124e+06
3.11979e+06
3.01994e+06
2.92166e+06
2.82494e+06
2.72969e+06
2.6358e+06
2.54309e+06
2.4512e+06
2.35966e+06
2.2684e+06
4.19662e+06
4.09027e+06
3.97649e+06
3.86381e+06
3.75269e+06
3.64317e+06
3.53526e+06
3.42897e+06
3.3243e+06
3.22124e+06
3.1198e+06
3.01995e+06
2.92168e+06
2.82497e+06
2.72975e+06
2.63592e+06
2.54332e+06
2.45165e+06
2.36057e+06
2.27035e+06
4.19664e+06
4.09026e+06
3.97648e+06
3.86381e+06
3.75269e+06
3.64317e+06
3.53526e+06
3.42897e+06
3.3243e+06
3.22124e+06
3.1198e+06
3.01996e+06
2.9217e+06
2.82501e+06
2.72982e+06
2.63605e+06
2.54355e+06
2.45211e+06
2.3615e+06
2.27223e+06
4.19666e+06
4.09026e+06
3.97647e+06
3.8638e+06
3.75269e+06
3.64317e+06
3.53526e+06
3.42897e+06
3.3243e+06
3.22125e+06
3.11981e+06
3.01997e+06
2.92172e+06
2.82504e+06
2.72989e+06
2.63618e+06
2.5438e+06
2.45258e+06
2.36243e+06
2.27405e+06
4.19667e+06
4.09026e+06
3.97647e+06
3.8638e+06
3.75269e+06
3.64317e+06
3.53526e+06
3.42897e+06
3.3243e+06
3.22125e+06
3.11981e+06
3.01998e+06
2.92174e+06
2.82508e+06
2.72996e+06
2.63631e+06
2.54405e+06
2.45306e+06
2.36336e+06
2.27581e+06
4.19668e+06
4.09026e+06
3.97646e+06
3.8638e+06
3.75269e+06
3.64317e+06
3.53526e+06
3.42897e+06
3.3243e+06
3.22125e+06
3.11982e+06
3.01999e+06
2.92177e+06
2.82512e+06
2.73003e+06
2.63645e+06
2.54431e+06
2.45355e+06
2.36429e+06
2.27749e+06
4.19669e+06
4.09026e+06
3.97646e+06
3.86379e+06
3.75269e+06
3.64317e+06
3.53526e+06
3.42897e+06
3.3243e+06
3.22126e+06
3.11983e+06
3.02001e+06
2.92179e+06
2.82517e+06
2.73011e+06
2.63659e+06
2.54457e+06
2.45404e+06
2.3652e+06
2.2791e+06
4.19669e+06
4.09026e+06
3.97645e+06
3.86379e+06
3.75269e+06
3.64317e+06
3.53526e+06
3.42897e+06
3.32431e+06
3.22126e+06
3.11983e+06
3.02002e+06
2.92181e+06
2.82521e+06
2.73019e+06
2.63674e+06
2.54484e+06
2.45453e+06
2.3661e+06
2.28064e+06
4.1967e+06
4.09026e+06
3.97645e+06
3.86379e+06
3.75269e+06
3.64317e+06
3.53526e+06
3.42897e+06
3.32431e+06
3.22126e+06
3.11984e+06
3.02003e+06
2.92184e+06
2.82525e+06
2.73027e+06
2.63688e+06
2.54511e+06
2.45502e+06
2.36697e+06
2.28211e+06
4.1967e+06
4.09026e+06
3.97645e+06
3.86379e+06
3.75269e+06
3.64317e+06
3.53526e+06
3.42897e+06
3.32431e+06
3.22127e+06
3.11985e+06
3.02004e+06
2.92186e+06
2.8253e+06
2.73035e+06
2.63703e+06
2.54537e+06
2.4555e+06
2.36782e+06
2.2835e+06
4.1967e+06
4.09026e+06
3.97645e+06
3.86379e+06
3.75269e+06
3.64317e+06
3.53526e+06
3.42897e+06
3.32431e+06
3.22127e+06
3.11985e+06
3.02006e+06
2.92188e+06
2.82534e+06
2.73043e+06
2.63717e+06
2.54564e+06
2.45597e+06
2.36864e+06
2.28482e+06
4.1967e+06
4.09026e+06
3.97645e+06
3.86379e+06
3.75269e+06
3.64317e+06
3.53526e+06
3.42897e+06
3.32431e+06
3.22128e+06
3.11986e+06
3.02007e+06
2.92191e+06
2.82538e+06
2.73051e+06
2.63732e+06
2.54589e+06
2.45643e+06
2.36943e+06
2.28606e+06
4.19669e+06
4.09026e+06
3.97645e+06
3.86379e+06
3.75269e+06
3.64317e+06
3.53526e+06
3.42898e+06
3.32432e+06
3.22128e+06
3.11987e+06
3.02008e+06
2.92193e+06
2.82542e+06
2.73059e+06
2.63746e+06
2.54615e+06
2.45688e+06
2.37018e+06
2.28724e+06
4.19669e+06
4.09026e+06
3.97646e+06
3.8638e+06
3.75269e+06
3.64317e+06
3.53526e+06
3.42898e+06
3.32432e+06
3.22128e+06
3.11988e+06
3.0201e+06
2.92195e+06
2.82547e+06
2.73066e+06
2.6376e+06
2.54639e+06
2.45731e+06
2.37091e+06
2.28834e+06
4.19668e+06
4.09026e+06
3.97646e+06
3.8638e+06
3.75269e+06
3.64317e+06
3.53526e+06
3.42898e+06
3.32432e+06
3.22129e+06
3.11988e+06
3.02011e+06
2.92198e+06
2.82551e+06
2.73074e+06
2.63773e+06
2.54663e+06
2.45772e+06
2.37159e+06
2.28938e+06
4.19667e+06
4.09026e+06
3.97647e+06
3.8638e+06
3.75269e+06
3.64317e+06
3.53527e+06
3.42898e+06
3.32432e+06
3.22129e+06
3.11989e+06
3.02012e+06
2.922e+06
2.82555e+06
2.73081e+06
2.63786e+06
2.54686e+06
2.45812e+06
2.37224e+06
2.29035e+06
4.19666e+06
4.09026e+06
3.97647e+06
3.86381e+06
3.75269e+06
3.64317e+06
3.53527e+06
3.42898e+06
3.32433e+06
3.2213e+06
3.1199e+06
3.02013e+06
2.92202e+06
2.82559e+06
2.73088e+06
2.63798e+06
2.54708e+06
2.45849e+06
2.37285e+06
2.29124e+06
4.19664e+06
4.09027e+06
3.97648e+06
3.86381e+06
3.75269e+06
3.64317e+06
3.53527e+06
3.42899e+06
3.32433e+06
3.2213e+06
3.1199e+06
3.02014e+06
2.92204e+06
2.82562e+06
2.73094e+06
2.6381e+06
2.54728e+06
2.45884e+06
2.37342e+06
2.29207e+06
4.19662e+06
4.09027e+06
3.97649e+06
3.86381e+06
3.75269e+06
3.64317e+06
3.53527e+06
3.42899e+06
3.32433e+06
3.2213e+06
3.11991e+06
3.02015e+06
2.92206e+06
2.82566e+06
2.731e+06
2.63821e+06
2.54748e+06
2.45917e+06
2.37394e+06
2.29284e+06
4.19661e+06
4.09027e+06
3.9765e+06
3.86382e+06
3.75269e+06
3.64317e+06
3.53527e+06
3.42899e+06
3.32433e+06
3.22131e+06
3.11991e+06
3.02016e+06
2.92208e+06
2.82569e+06
2.73106e+06
2.63831e+06
2.54766e+06
2.45947e+06
2.37443e+06
2.29354e+06
4.19658e+06
4.09028e+06
3.97651e+06
3.86382e+06
3.75269e+06
3.64317e+06
3.53527e+06
3.42899e+06
3.32434e+06
3.22131e+06
3.11992e+06
3.02017e+06
2.92209e+06
2.82572e+06
2.73112e+06
2.63841e+06
2.54782e+06
2.45975e+06
2.37487e+06
2.29417e+06
4.19656e+06
4.09028e+06
3.97652e+06
3.86383e+06
3.75269e+06
3.64317e+06
3.53527e+06
3.42899e+06
3.32434e+06
3.22131e+06
3.11992e+06
3.02018e+06
2.92211e+06
2.82575e+06
2.73117e+06
2.6385e+06
2.54798e+06
2.46001e+06
2.37527e+06
2.29474e+06
4.19653e+06
4.09029e+06
3.97653e+06
3.86383e+06
3.75269e+06
3.64317e+06
3.53527e+06
3.429e+06
3.32434e+06
3.22132e+06
3.11993e+06
3.02019e+06
2.92212e+06
2.82577e+06
2.73121e+06
2.63858e+06
2.54811e+06
2.46023e+06
2.37562e+06
2.29525e+06
4.1965e+06
4.0903e+06
3.97654e+06
3.86383e+06
3.75269e+06
3.64318e+06
3.53528e+06
3.429e+06
3.32434e+06
3.22132e+06
3.11993e+06
3.0202e+06
2.92214e+06
2.82579e+06
2.73125e+06
2.63865e+06
2.54823e+06
2.46043e+06
2.37593e+06
2.29569e+06
4.19646e+06
4.09031e+06
3.97656e+06
3.86384e+06
3.75269e+06
3.64318e+06
3.53528e+06
3.429e+06
3.32435e+06
3.22132e+06
3.11994e+06
3.0202e+06
2.92215e+06
2.82581e+06
2.73128e+06
2.63871e+06
2.54834e+06
2.46061e+06
2.3762e+06
2.29606e+06
4.19643e+06
4.09033e+06
3.97657e+06
3.86384e+06
3.7527e+06
3.64318e+06
3.53528e+06
3.429e+06
3.32435e+06
3.22132e+06
3.11994e+06
3.02021e+06
2.92216e+06
2.82583e+06
2.73131e+06
2.63876e+06
2.54842e+06
2.46075e+06
2.37642e+06
2.29638e+06
4.19639e+06
4.09034e+06
3.97658e+06
3.86384e+06
3.7527e+06
3.64318e+06
3.53528e+06
3.429e+06
3.32435e+06
3.22133e+06
3.11994e+06
3.02021e+06
2.92216e+06
2.82584e+06
2.73134e+06
2.6388e+06
2.54849e+06
2.46087e+06
2.3766e+06
2.29662e+06
4.19635e+06
4.09036e+06
3.97659e+06
3.86385e+06
3.7527e+06
3.64318e+06
3.53528e+06
3.429e+06
3.32435e+06
3.22133e+06
3.11994e+06
3.02021e+06
2.92217e+06
2.82585e+06
2.73135e+06
2.63883e+06
2.54855e+06
2.46095e+06
2.37673e+06
2.29681e+06
4.19628e+06
4.09037e+06
3.9766e+06
3.86385e+06
3.7527e+06
3.64318e+06
3.53528e+06
3.429e+06
3.32435e+06
3.22133e+06
3.11994e+06
3.02022e+06
2.92217e+06
2.82586e+06
2.73137e+06
2.63885e+06
2.54858e+06
2.46101e+06
2.37682e+06
2.29693e+06
4.19619e+06
4.09038e+06
3.9766e+06
3.86385e+06
3.7527e+06
3.64318e+06
3.53528e+06
3.429e+06
3.32435e+06
3.22133e+06
3.11994e+06
3.02022e+06
2.92217e+06
2.82586e+06
2.73137e+06
2.63886e+06
2.5486e+06
2.46104e+06
2.37687e+06
2.297e+06
2.15527e+06
2.13215e+06
2.11426e+06
2.09858e+06
2.08389e+06
2.06982e+06
2.0562e+06
2.04292e+06
2.0299e+06
2.0171e+06
2.00448e+06
1.99202e+06
1.97968e+06
1.96744e+06
1.95527e+06
1.94318e+06
1.93115e+06
1.91917e+06
1.90724e+06
1.89537e+06
1.88354e+06
1.87175e+06
1.85999e+06
1.84827e+06
1.83658e+06
1.82492e+06
1.81329e+06
1.8017e+06
1.79014e+06
1.77863e+06
1.76716e+06
1.75574e+06
1.74435e+06
1.73299e+06
1.72168e+06
1.71041e+06
1.69918e+06
1.68798e+06
1.67683e+06
1.66572e+06
1.65466e+06
1.64364e+06
1.63266e+06
1.62172e+06
1.61083e+06
1.59998e+06
1.58917e+06
1.5784e+06
1.56768e+06
1.55699e+06
1.54634e+06
1.53574e+06
1.52517e+06
1.51465e+06
1.50416e+06
1.49371e+06
1.4833e+06
1.47293e+06
1.46259e+06
1.45229e+06
1.44203e+06
1.43179e+06
1.42159e+06
1.41143e+06
1.4013e+06
1.3912e+06
1.38114e+06
1.37111e+06
1.36112e+06
1.35118e+06
1.34127e+06
1.33141e+06
1.32159e+06
1.31181e+06
1.30207e+06
1.29238e+06
1.28272e+06
1.2731e+06
1.26351e+06
1.25395e+06
1.24442e+06
1.23491e+06
1.22543e+06
1.21598e+06
1.20657e+06
1.19718e+06
1.18783e+06
1.17851e+06
1.16923e+06
1.15998e+06
1.15077e+06
1.14159e+06
1.13245e+06
1.12335e+06
1.11428e+06
1.10526e+06
1.09627e+06
1.08733e+06
1.07842e+06
1.06955e+06
1.06071e+06
1.05192e+06
1.04316e+06
1.03444e+06
1.02576e+06
1.01711e+06
1.00849e+06
999919
991381
982880
974415
965987
957596
949242
940925
932646
924404
916200
908033
899904
891813
883759
875743
867765
859822
851915
844042
836206
828404
820634
812898
805193
797522
789884
782281
774712
767181
759687
752231
744813
737434
730095
722794
715533
708310
701125
693978
686869
679797
672762
665764
658804
651880
644994
638145
631333
624559
617822
611123
604461
597835
591245
584692
578173
571688
565238
558822
552441
546093
539781
533502
527260
521050
514876
508733
502627
496550
490509
484493
478517
472561
466649
460750
454896
449046
443240
437430
431657
425872
420113
414331
408555
402737
396891
390965
384945
378758
372337
365371
357758
2.16623e+06
2.14104e+06
2.12126e+06
2.1043e+06
2.08873e+06
2.074e+06
2.05985e+06
2.04613e+06
2.03274e+06
2.01963e+06
2.00673e+06
1.99403e+06
1.98148e+06
1.96905e+06
1.95672e+06
1.94448e+06
1.93231e+06
1.92022e+06
1.90818e+06
1.8962e+06
1.88428e+06
1.87241e+06
1.86059e+06
1.8488e+06
1.83705e+06
1.82534e+06
1.81367e+06
1.80204e+06
1.79045e+06
1.77891e+06
1.76741e+06
1.75595e+06
1.74454e+06
1.73317e+06
1.72184e+06
1.71055e+06
1.6993e+06
1.6881e+06
1.67693e+06
1.66582e+06
1.65474e+06
1.64372e+06
1.63273e+06
1.6218e+06
1.6109e+06
1.60005e+06
1.58924e+06
1.57847e+06
1.56774e+06
1.55705e+06
1.5464e+06
1.5358e+06
1.52523e+06
1.5147e+06
1.50422e+06
1.49377e+06
1.48336e+06
1.47299e+06
1.46265e+06
1.45235e+06
1.44209e+06
1.43186e+06
1.42166e+06
1.41149e+06
1.40136e+06
1.39126e+06
1.3812e+06
1.37117e+06
1.36119e+06
1.35124e+06
1.34133e+06
1.33147e+06
1.32165e+06
1.31187e+06
1.30214e+06
1.29245e+06
1.28279e+06
1.27317e+06
1.26357e+06
1.25401e+06
1.24447e+06
1.23496e+06
1.22547e+06
1.21602e+06
1.2066e+06
1.19721e+06
1.18785e+06
1.17853e+06
1.16925e+06
1.15999e+06
1.15078e+06
1.1416e+06
1.13246e+06
1.12335e+06
1.11429e+06
1.10526e+06
1.09628e+06
1.08733e+06
1.07842e+06
1.06955e+06
1.06071e+06
1.05192e+06
1.04316e+06
1.03444e+06
1.02576e+06
1.01711e+06
1.0085e+06
999921
991383
982882
974418
965990
957600
949247
940931
932652
924411
916208
908042
899914
891823
883770
875754
867775
859831
851924
844050
836213
828410
820639
812902
805195
797522
789881
782276
774706
767173
759678
752220
744801
737420
730079
722777
715514
708288
701102
693952
686841
679766
672729
665727
658764
651837
644948
638095
631279
624501
617759
611054
604387
597755
591159
584598
578073
571580
565122
558697
552306
545946
539621
533328
527069
520841
514647
508481
502352
496247
490178
484129
478119
472124
466169
460223
454318
448411
442541
436662
430811
424941
419084
413193
407290
401328
395312
389181
382912
376398
369531
361907
352901
2.17489e+06
2.14885e+06
2.12785e+06
2.10982e+06
2.09346e+06
2.07811e+06
2.06345e+06
2.0493e+06
2.03556e+06
2.02213e+06
2.00897e+06
1.99603e+06
1.98327e+06
1.97065e+06
1.95816e+06
1.94577e+06
1.93347e+06
1.92125e+06
1.90911e+06
1.89703e+06
1.88502e+06
1.87307e+06
1.86117e+06
1.84933e+06
1.83752e+06
1.82576e+06
1.81405e+06
1.80238e+06
1.79076e+06
1.77918e+06
1.76765e+06
1.75617e+06
1.74474e+06
1.73334e+06
1.72199e+06
1.71069e+06
1.69943e+06
1.68821e+06
1.67704e+06
1.66591e+06
1.65483e+06
1.6438e+06
1.63281e+06
1.62187e+06
1.61097e+06
1.60012e+06
1.58931e+06
1.57854e+06
1.5678e+06
1.55711e+06
1.54647e+06
1.53586e+06
1.52529e+06
1.51476e+06
1.50427e+06
1.49382e+06
1.48341e+06
1.47304e+06
1.46271e+06
1.45242e+06
1.44215e+06
1.43192e+06
1.42172e+06
1.41156e+06
1.40142e+06
1.39132e+06
1.38126e+06
1.37123e+06
1.36125e+06
1.3513e+06
1.34139e+06
1.33153e+06
1.32171e+06
1.31194e+06
1.30221e+06
1.29251e+06
1.28285e+06
1.27323e+06
1.26363e+06
1.25406e+06
1.24452e+06
1.235e+06
1.22551e+06
1.21605e+06
1.20662e+06
1.19723e+06
1.18787e+06
1.17855e+06
1.16926e+06
1.16e+06
1.15078e+06
1.1416e+06
1.13246e+06
1.12335e+06
1.11429e+06
1.10526e+06
1.09627e+06
1.08732e+06
1.07841e+06
1.06954e+06
1.06071e+06
1.05191e+06
1.04316e+06
1.03444e+06
1.02575e+06
1.0171e+06
1.00849e+06
999919
991381
982880
974415
965988
957598
949246
940931
932653
924413
916211
908047
899919
891830
883777
875761
867782
859837
851929
844056
836217
828414
820641
812903
805194
797519
789877
782270
774699
767164
759667
752208
744787
737405
730063
722759
715494
708267
701079
693927
686813
679735
672696
665692
658726
651795
644902
638046
631226
624443
617697
610987
604313
597675
591073
584506
577973
571472
565006
558571
552170
545799
539462
533153
526879
520632
514418
508230
502077
495945
489847
483766
477721
471688
465691
459699
453742
447780
441847
435901
429973
424020
418066
412070
406044
399944
393765
387442
380941
374133
366892
358782
349042
2.18199e+06
2.15577e+06
2.13398e+06
2.11511e+06
2.09804e+06
2.08211e+06
2.06698e+06
2.05243e+06
2.03833e+06
2.02461e+06
2.01119e+06
1.99801e+06
1.98504e+06
1.97224e+06
1.95958e+06
1.94705e+06
1.93462e+06
1.92228e+06
1.91003e+06
1.89786e+06
1.88576e+06
1.87373e+06
1.86176e+06
1.84985e+06
1.83799e+06
1.82618e+06
1.81442e+06
1.80271e+06
1.79106e+06
1.77945e+06
1.76789e+06
1.75639e+06
1.74493e+06
1.73352e+06
1.72215e+06
1.71083e+06
1.69955e+06
1.68832e+06
1.67714e+06
1.66601e+06
1.65492e+06
1.64388e+06
1.63289e+06
1.62195e+06
1.61105e+06
1.60019e+06
1.58938e+06
1.57861e+06
1.56787e+06
1.55718e+06
1.54653e+06
1.53592e+06
1.52534e+06
1.51482e+06
1.50433e+06
1.49388e+06
1.48347e+06
1.4731e+06
1.46277e+06
1.45248e+06
1.44221e+06
1.43198e+06
1.42178e+06
1.41162e+06
1.40148e+06
1.39138e+06
1.38132e+06
1.37129e+06
1.3613e+06
1.35136e+06
1.34145e+06
1.33159e+06
1.32177e+06
1.312e+06
1.30227e+06
1.29257e+06
1.28291e+06
1.27328e+06
1.26368e+06
1.25411e+06
1.24456e+06
1.23503e+06
1.22554e+06
1.21607e+06
1.20664e+06
1.19724e+06
1.18788e+06
1.17855e+06
1.16926e+06
1.16e+06
1.15078e+06
1.1416e+06
1.13245e+06
1.12335e+06
1.11428e+06
1.10525e+06
1.09626e+06
1.08731e+06
1.0784e+06
1.06953e+06
1.0607e+06
1.0519e+06
1.04315e+06
1.03443e+06
1.02574e+06
1.0171e+06
1.00849e+06
999912
991374
982873
974408
965982
957592
949240
940926
932650
924411
916210
908047
899921
891832
883779
875764
867785
859840
851932
844058
836218
828415
820641
812901
805191
797514
789870
782262
774689
767154
759655
752195
744773
737390
730046
722741
715474
708246
701055
693902
686786
679706
672664
665657
658688
651754
644858
637997
631174
624386
617635
610920
604241
597597
590988
584414
577874
571365
564891
558446
552035
545652
539302
532979
526688
520423
514190
507980
501802
495644
489517
483405
477325
471255
465216
459179
453170
447155
441159
435148
429143
423111
417062
410965
404821
398588
392255
385753
379043
371976
364432
355981
345992
2.18803e+06
2.16191e+06
2.13964e+06
2.12012e+06
2.10245e+06
2.086e+06
2.07042e+06
2.05549e+06
2.04106e+06
2.02705e+06
2.01337e+06
1.99997e+06
1.98679e+06
1.97381e+06
1.96099e+06
1.94831e+06
1.93575e+06
1.9233e+06
1.91094e+06
1.89867e+06
1.88649e+06
1.87438e+06
1.86234e+06
1.85036e+06
1.83845e+06
1.82659e+06
1.81479e+06
1.80305e+06
1.79135e+06
1.77972e+06
1.76813e+06
1.7566e+06
1.74512e+06
1.73369e+06
1.7223e+06
1.71097e+06
1.69968e+06
1.68844e+06
1.67725e+06
1.66611e+06
1.65502e+06
1.64397e+06
1.63298e+06
1.62203e+06
1.61113e+06
1.60027e+06
1.58945e+06
1.57868e+06
1.56794e+06
1.55725e+06
1.54659e+06
1.53598e+06
1.5254e+06
1.51487e+06
1.50438e+06
1.49393e+06
1.48353e+06
1.47316e+06
1.46283e+06
1.45254e+06
1.44227e+06
1.43204e+06
1.42184e+06
1.41167e+06
1.40154e+06
1.39143e+06
1.38137e+06
1.37134e+06
1.36135e+06
1.35141e+06
1.3415e+06
1.33164e+06
1.32182e+06
1.31205e+06
1.30232e+06
1.29263e+06
1.28296e+06
1.27333e+06
1.26373e+06
1.25415e+06
1.24459e+06
1.23506e+06
1.22556e+06
1.21609e+06
1.20665e+06
1.19725e+06
1.18788e+06
1.17855e+06
1.16926e+06
1.16e+06
1.15077e+06
1.14159e+06
1.13244e+06
1.12333e+06
1.11427e+06
1.10524e+06
1.09625e+06
1.0873e+06
1.07839e+06
1.06951e+06
1.06068e+06
1.05189e+06
1.04313e+06
1.03441e+06
1.02573e+06
1.01708e+06
1.00847e+06
999900
991362
982861
974397
965970
957581
949230
940916
932641
924404
916204
908042
899917
891829
883778
875763
867784
859840
851931
844057
836217
828413
820638
812897
805185
797507
789861
782252
774678
767141
759642
752181
744758
737374
730029
722722
715454
708224
701032
693877
686759
679677
672632
665623
658651
651714
644814
637950
631122
624330
617574
610854
604169
597519
590905
584323
577775
571259
564776
558322
551900
545505
539142
532805
526499
520215
513963
507730
501529
495344
489188
483045
476931
470824
464743
458663
452603
446536
440479
434404
428324
422214
416074
409881
403622
397265
390788
384120
377225
369934
362157
353493
343490
2.19327e+06
2.16741e+06
2.14486e+06
2.12485e+06
2.10668e+06
2.08976e+06
2.07377e+06
2.05848e+06
2.04374e+06
2.02944e+06
2.01551e+06
2.00189e+06
1.98852e+06
1.97536e+06
1.96238e+06
1.94955e+06
1.93686e+06
1.92429e+06
1.91183e+06
1.89947e+06
1.8872e+06
1.87502e+06
1.86291e+06
1.85088e+06
1.83891e+06
1.827e+06
1.81516e+06
1.80338e+06
1.79165e+06
1.77998e+06
1.76837e+06
1.75682e+06
1.74531e+06
1.73386e+06
1.72246e+06
1.71111e+06
1.69981e+06
1.68856e+06
1.67736e+06
1.66621e+06
1.65511e+06
1.64406e+06
1.63307e+06
1.62212e+06
1.61121e+06
1.60035e+06
1.58953e+06
1.57875e+06
1.56801e+06
1.55731e+06
1.54665e+06
1.53604e+06
1.52546e+06
1.51493e+06
1.50444e+06
1.49399e+06
1.48358e+06
1.47321e+06
1.46289e+06
1.45259e+06
1.44233e+06
1.4321e+06
1.4219e+06
1.41173e+06
1.40159e+06
1.39149e+06
1.38142e+06
1.37139e+06
1.3614e+06
1.35145e+06
1.34155e+06
1.33169e+06
1.32187e+06
1.3121e+06
1.30237e+06
1.29267e+06
1.28301e+06
1.27337e+06
1.26376e+06
1.25418e+06
1.24462e+06
1.23508e+06
1.22557e+06
1.2161e+06
1.20665e+06
1.19725e+06
1.18788e+06
1.17854e+06
1.16925e+06
1.15998e+06
1.15076e+06
1.14157e+06
1.13243e+06
1.12332e+06
1.11425e+06
1.10522e+06
1.09623e+06
1.08728e+06
1.07837e+06
1.06949e+06
1.06066e+06
1.05187e+06
1.04312e+06
1.0344e+06
1.02571e+06
1.01707e+06
1.00846e+06
999885
991347
982845
974381
965954
957566
949215
940902
932628
924392
916193
908033
899909
891822
883772
875758
867779
859835
851926
844052
836212
828407
820631
812889
805176
797496
789849
782239
774664
767127
759627
752165
744741
737357
730011
722704
715434
708203
701009
693852
686732
679648
672601
665590
658615
651675
644772
637903
631072
624275
617514
610789
604099
597443
590822
584233
577678
571154
564662
558198
551766
545359
538984
532631
526309
520008
513736
507482
501257
495046
488862
482688
476540
470397
464275
458152
452043
445923
439806
433669
427517
421331
415104
408816
402451
395975
389366
382544
375489
368012
360058
351281
341366
2.19789e+06
2.17235e+06
2.14967e+06
2.1293e+06
2.11071e+06
2.09339e+06
2.07702e+06
2.06139e+06
2.04635e+06
2.03179e+06
2.01762e+06
2.00378e+06
1.99021e+06
1.97688e+06
1.96374e+06
1.95077e+06
1.93796e+06
1.92528e+06
1.91272e+06
1.90027e+06
1.88791e+06
1.87565e+06
1.86348e+06
1.85138e+06
1.83936e+06
1.82741e+06
1.81553e+06
1.8037e+06
1.79195e+06
1.78025e+06
1.76861e+06
1.75703e+06
1.7455e+06
1.73403e+06
1.72262e+06
1.71125e+06
1.69994e+06
1.68868e+06
1.67747e+06
1.66632e+06
1.65522e+06
1.64416e+06
1.63316e+06
1.6222e+06
1.6113e+06
1.60043e+06
1.58961e+06
1.57883e+06
1.56808e+06
1.55738e+06
1.54672e+06
1.5361e+06
1.52552e+06
1.51498e+06
1.50449e+06
1.49404e+06
1.48363e+06
1.47327e+06
1.46294e+06
1.45264e+06
1.44238e+06
1.43215e+06
1.42195e+06
1.41178e+06
1.40164e+06
1.39153e+06
1.38146e+06
1.37143e+06
1.36144e+06
1.35149e+06
1.34159e+06
1.33173e+06
1.32191e+06
1.31214e+06
1.30241e+06
1.29271e+06
1.28304e+06
1.27341e+06
1.26379e+06
1.2542e+06
1.24464e+06
1.23509e+06
1.22558e+06
1.2161e+06
1.20665e+06
1.19724e+06
1.18786e+06
1.17853e+06
1.16923e+06
1.15997e+06
1.15074e+06
1.14155e+06
1.1324e+06
1.12329e+06
1.11422e+06
1.10519e+06
1.0962e+06
1.08725e+06
1.07834e+06
1.06947e+06
1.06064e+06
1.05185e+06
1.04309e+06
1.03437e+06
1.02569e+06
1.01705e+06
1.00844e+06
999865
991327
982826
974361
965935
957546
949196
940884
932610
924375
916177
908018
899896
891810
883761
875747
867769
859826
851917
844043
836202
828397
820621
812878
805163
797483
789835
782224
774648
767111
759610
752148
744724
737339
729992
722684
715413
708181
700986
693827
686706
679620
672571
665556
658579
651636
644729
637857
631022
624220
617455
610724
604029
597367
590740
584144
577582
571049
564549
558076
551633
545214
538826
532459
526121
519802
513510
507235
500986
494750
488538
482334
476152
469974
463812
457646
451489
445318
439144
432945
426724
420463
414153
407773
401310
394720
387991
381030
373836
366210
358124
349306
339517
2.20202e+06
2.17683e+06
2.15411e+06
2.13348e+06
2.11454e+06
2.09687e+06
2.08017e+06
2.06423e+06
2.0489e+06
2.03408e+06
2.01968e+06
2.00563e+06
1.99188e+06
1.97837e+06
1.96508e+06
1.95198e+06
1.93904e+06
1.92625e+06
1.91359e+06
1.90105e+06
1.88862e+06
1.87628e+06
1.86404e+06
1.85189e+06
1.83981e+06
1.82782e+06
1.81589e+06
1.80403e+06
1.79224e+06
1.78051e+06
1.76885e+06
1.75724e+06
1.7457e+06
1.73421e+06
1.72278e+06
1.7114e+06
1.70007e+06
1.68881e+06
1.67759e+06
1.66643e+06
1.65532e+06
1.64426e+06
1.63325e+06
1.62229e+06
1.61138e+06
1.60051e+06
1.58969e+06
1.5789e+06
1.56815e+06
1.55745e+06
1.54678e+06
1.53615e+06
1.52557e+06
1.51504e+06
1.50454e+06
1.49409e+06
1.48368e+06
1.47332e+06
1.46299e+06
1.45269e+06
1.44243e+06
1.4322e+06
1.422e+06
1.41182e+06
1.40168e+06
1.39157e+06
1.3815e+06
1.37147e+06
1.36148e+06
1.35153e+06
1.34162e+06
1.33176e+06
1.32194e+06
1.31217e+06
1.30244e+06
1.29274e+06
1.28307e+06
1.27343e+06
1.26382e+06
1.25422e+06
1.24465e+06
1.2351e+06
1.22558e+06
1.21609e+06
1.20664e+06
1.19722e+06
1.18784e+06
1.17851e+06
1.1692e+06
1.15994e+06
1.15071e+06
1.14153e+06
1.13238e+06
1.12327e+06
1.1142e+06
1.10516e+06
1.09617e+06
1.08722e+06
1.07831e+06
1.06944e+06
1.06061e+06
1.05182e+06
1.04306e+06
1.03435e+06
1.02567e+06
1.01702e+06
1.00841e+06
999842
991303
982802
974338
965911
957522
949173
940861
932588
924354
916157
907999
899877
891793
883745
875732
867755
859812
851903
844030
836188
828383
820606
812862
805147
797467
789818
782206
774631
767093
759592
752130
744705
737320
729972
722663
715392
708159
700962
693802
686679
679591
672540
665523
658543
651597
644687
637811
630972
624166
617397
610660
603960
597292
590659
584056
577487
570946
564437
557954
551501
545070
538669
532288
525934
519598
513287
506991
500718
494457
488217
481984
475769
469556
463355
457147
450943
444722
438492
432233
425946
419611
413224
406756
400200
393504
386665
379583
372266
364528
356341
347526
337873
2.20574e+06
2.18089e+06
2.1582e+06
2.1374e+06
2.11818e+06
2.1002e+06
2.0832e+06
2.06697e+06
2.05138e+06
2.03632e+06
2.0217e+06
2.00745e+06
1.99351e+06
1.97984e+06
1.96641e+06
1.95317e+06
1.94011e+06
1.92721e+06
1.91445e+06
1.90182e+06
1.88931e+06
1.87691e+06
1.8646e+06
1.85239e+06
1.84026e+06
1.82822e+06
1.81625e+06
1.80436e+06
1.79253e+06
1.78077e+06
1.76908e+06
1.75745e+06
1.74589e+06
1.73438e+06
1.72294e+06
1.71155e+06
1.70021e+06
1.68893e+06
1.67771e+06
1.66654e+06
1.65543e+06
1.64437e+06
1.63335e+06
1.62239e+06
1.61147e+06
1.6006e+06
1.58976e+06
1.57897e+06
1.56822e+06
1.55751e+06
1.54684e+06
1.53621e+06
1.52563e+06
1.51509e+06
1.50459e+06
1.49414e+06
1.48373e+06
1.47336e+06
1.46303e+06
1.45273e+06
1.44247e+06
1.43224e+06
1.42203e+06
1.41186e+06
1.40171e+06
1.39161e+06
1.38153e+06
1.3715e+06
1.3615e+06
1.35155e+06
1.34165e+06
1.33178e+06
1.32197e+06
1.3122e+06
1.30246e+06
1.29276e+06
1.28309e+06
1.27345e+06
1.26383e+06
1.25423e+06
1.24465e+06
1.23509e+06
1.22557e+06
1.21607e+06
1.20661e+06
1.1972e+06
1.18782e+06
1.17848e+06
1.16917e+06
1.15991e+06
1.15068e+06
1.14149e+06
1.13234e+06
1.12323e+06
1.11416e+06
1.10513e+06
1.09614e+06
1.08719e+06
1.07828e+06
1.06941e+06
1.06058e+06
1.05179e+06
1.04303e+06
1.03432e+06
1.02564e+06
1.01699e+06
1.00839e+06
999814
991276
982775
974310
965883
957495
949146
940835
932562
924329
916133
907975
899854
891771
883723
875712
867735
859793
851884
844011
836170
828364
820587
812843
805128
797447
789798
782187
774611
767073
759572
752110
744685
737299
729951
722642
715370
708135
700938
693777
686652
679562
672509
665490
658507
651558
644646
637766
630923
624113
617339
610597
603892
597218
590579
583970
577393
570845
564327
557834
551370
544928
538513
532118
525748
519395
513065
506748
500453
494168
487901
481639
475392
469144
462905
456656
450407
444137
437853
431535
425185
418779
412318
405766
399124
392328
385391
378205
370778
362964
354700
345903
336383
2.20915e+06
2.18462e+06
2.16199e+06
2.14107e+06
2.12163e+06
2.10339e+06
2.08611e+06
2.06963e+06
2.05379e+06
2.0385e+06
2.02367e+06
2.00923e+06
1.99512e+06
1.98129e+06
1.96771e+06
1.95434e+06
1.94117e+06
1.92816e+06
1.91531e+06
1.90259e+06
1.89e+06
1.87752e+06
1.86515e+06
1.85288e+06
1.84071e+06
1.82862e+06
1.81661e+06
1.80468e+06
1.79282e+06
1.78104e+06
1.76932e+06
1.75767e+06
1.74608e+06
1.73456e+06
1.7231e+06
1.7117e+06
1.70035e+06
1.68907e+06
1.67784e+06
1.66666e+06
1.65554e+06
1.64447e+06
1.63345e+06
1.62248e+06
1.61156e+06
1.60068e+06
1.58984e+06
1.57904e+06
1.56829e+06
1.55757e+06
1.5469e+06
1.53627e+06
1.52568e+06
1.51514e+06
1.50464e+06
1.49418e+06
1.48377e+06
1.4734e+06
1.46307e+06
1.45277e+06
1.44251e+06
1.43227e+06
1.42207e+06
1.41189e+06
1.40174e+06
1.39163e+06
1.38156e+06
1.37152e+06
1.36152e+06
1.35157e+06
1.34166e+06
1.3318e+06
1.32198e+06
1.31221e+06
1.30248e+06
1.29277e+06
1.2831e+06
1.27345e+06
1.26383e+06
1.25423e+06
1.24464e+06
1.23508e+06
1.22555e+06
1.21605e+06
1.20659e+06
1.19717e+06
1.18779e+06
1.17844e+06
1.16914e+06
1.15987e+06
1.15064e+06
1.14145e+06
1.1323e+06
1.12319e+06
1.11412e+06
1.10509e+06
1.0961e+06
1.08715e+06
1.07824e+06
1.06937e+06
1.06054e+06
1.05175e+06
1.043e+06
1.03428e+06
1.0256e+06
1.01696e+06
1.00836e+06
999783
991245
982744
974279
965852
957465
949115
940805
932533
924300
916104
907947
899827
891744
883698
875687
867711
859769
851861
843988
836147
828340
820564
812820
805105
797425
789776
782165
774589
767051
759551
752089
744663
737277
729929
722619
715347
708112
700913
693751
686625
679533
672478
665456
658471
651519
644604
637721
630874
624060
617282
610535
603825
597145
590500
583884
577301
570744
564218
557715
551241
544787
538359
531950
525564
519194
512845
506508
500191
493882
487589
481298
475020
468738
462462
456174
449881
443563
437228
430852
424443
417968
411438
404805
398082
391198
384169
376898
369372
361504
353185
344409
335015
2.21229e+06
2.18806e+06
2.1655e+06
2.1445e+06
2.12489e+06
2.10642e+06
2.08891e+06
2.07219e+06
2.05613e+06
2.04062e+06
2.02559e+06
2.01097e+06
1.99669e+06
1.98271e+06
1.96899e+06
1.9555e+06
1.94221e+06
1.9291e+06
1.91615e+06
1.90335e+06
1.89068e+06
1.87814e+06
1.8657e+06
1.85338e+06
1.84115e+06
1.82902e+06
1.81697e+06
1.805e+06
1.79311e+06
1.7813e+06
1.76956e+06
1.75788e+06
1.74628e+06
1.73474e+06