/*--------------------------------*- C++ -*----------------------------------*\
| =========                 |                                                 |
| \\      /  F ield         | OpenFOAM: The Open Source CFD Toolbox           |
|  \\    /   O peration     | Version:  2.4.0                                 |
|   \\  /    A nd           | Web:      www.OpenFOAM.org                      |
|    \\/     M anipulation  |                                                 |
\*---------------------------------------------------------------------------*/
FoamFile
{
    version     2.0;
    format      ascii;
    class       volScalarField;
    location    "0.182";
    object      k;
}
// * * * * * * * * * * * * * * * * * * * * * * * * * * * * * * * * * * * * * //

dimensions      [0 2 -2 0 0 0 0];

internalField   nonuniform List<scalar> 
4400
(
9.53468
8.48829
6.52734
5.28033
4.66077
4.20648
4.03058
3.83375
3.76069
3.52859
4.40997
6.75764
6.7488
6.28198
5.73658
5.20047
4.97782
4.7225
4.58871
4.42108
1.17408
3.14867
4.23472
4.52074
4.48636
4.27003
4.13487
3.95935
3.8644
3.69311
0.164268
0.930985
1.72528
2.2972
2.69484
2.7937
2.85408
2.85
2.83648
2.73994
0.0173175
0.148889
0.417711
0.733721
1.09657
1.34172
1.5068
1.64916
1.73449
1.71845
0.00147595
0.016761
0.0522933
0.129231
0.24416
0.407847
0.510123
0.646827
0.769205
0.820629
0.000138663
0.00148147
0.00436982
0.011885
0.0267841
0.0660517
0.0913516
0.141341
0.201178
0.246574
4.08659e-05
0.00023273
0.00039608
0.000811987
0.00172363
0.00536959
0.00797854
0.0153879
0.0241806
0.0352397
3.34318e-05
0.000151608
0.000177671
0.000194888
0.000235047
0.000461068
0.000581364
0.00102959
0.00140501
0.00229417
3.25065e-05
0.000155759
0.0001841
0.000177242
0.000177101
0.000204928
0.000226424
0.000249015
0.000274793
0.000308116
3.28841e-05
0.000132268
0.000169644
0.000201167
0.000226004
0.000226563
0.000222519
0.00022501
0.000243957
0.000524795
3.36604e-05
0.000130741
0.000228403
0.000255314
0.000289951
0.00034934
0.000505544
0.000855295
0.00161581
0.00679411
3.99421e-05
0.000264801
0.000483504
0.000866337
0.00181691
0.00421665
0.00797987
0.016279
0.0261754
0.0699812
0.00013672
0.00155518
0.00478536
0.011527
0.0267503
0.0611909
0.0931409
0.157708
0.204975
0.36362
0.00146704
0.0172059
0.0586832
0.121404
0.249029
0.395118
0.525557
0.679398
0.778451
1.03301
0.0172328
0.151678
0.429102
0.72461
1.09612
1.33236
1.53238
1.67594
1.76868
1.95752
0.163472
0.945965
1.71789
2.29636
2.68775
2.79527
2.87583
2.86792
2.88137
2.91256
1.16825
3.16805
4.21697
4.5274
4.4788
4.27104
4.1442
3.9361
3.87891
3.76739
4.40572
6.7728
6.73233
6.29508
5.70463
5.20237
4.96245
4.63011
4.52746
4.2181
9.53083
8.50243
6.49966
5.29848
4.62968
4.19424
3.98448
3.68627
3.56886
3.11326
2.20045
1.6418
1.36436
1.3194
1.20435
1.11876
0.892497
0.716202
0.577931
0.443386
0.449387
0.46912
0.474595
0.519868
0.575158
0.654557
0.650612
0.599375
0.481603
0.297305
0.213095
0.172671
0.172948
0.212246
0.455056
0.496143
0.454981
0.369159
0.292819
0.251511
0.248042
0.245022
0.225403
0.163462
0.173978
0.312972
0.401887
0.368752
0.236992
0.169101
0.164658
0.162062
0.161061
0.156985
0.158863
0.193885
0.279974
0.296006
0.293005
0.278906
0.237596
0.173189
0.138454
0.126186
0.122883
0.113975
0.100044
0.0839997
0.0661776
0.0499562
0.0456534
0.048859
0.0723064
0.105716
0.114854
0.130336
0.132999
0.132843
0.118955
0.114784
0.118078
0.117791
0.117874
0.112131
0.0930457
0.0867103
0.0816952
0.0764419
0.0778918
0.084693
0.146202
0.226307
0.323479
0.348717
0.346206
0.318713
0.258548
0.20102
0.146337
0.114135
0.110694
0.139191
0.197383
0.207149
0.199049
0.131943
0.0915636
0.0929125
0.146568
0.36943
3.39674
2.57678
1.95515
1.72928
1.47564
1.42274
1.27134
1.1624
1.04888
0.883054
0.859649
0.827536
0.800802
0.790049
0.74438
0.721863
0.666672
0.533927
0.353071
0.170585
0.108694
0.102512
0.0918854
0.104157
0.226813
0.382237
0.397339
0.380402
0.334583
0.290042
0.270274
0.253797
0.188721
0.141168
0.181953
0.370191
0.411529
0.332178
0.211988
0.172274
0.18088
0.188163
0.183372
0.167296
0.158922
0.164983
0.23042
0.27483
0.283188
0.27754
0.25681
0.207379
0.160013
0.144448
0.136232
0.115399
0.0961128
0.0795475
0.0657792
0.0492097
0.0428696
0.0435948
0.0541167
0.088999
0.1002
0.118482
0.12346
0.1241
0.118161
0.120352
0.123056
0.120878
0.116126
0.09635
0.0790786
0.0781971
0.0738025
0.0728526
0.0754443
0.086086
0.15731
0.263953
0.331167
0.35
0.35068
0.341434
0.298844
0.215289
0.149323
0.111493
0.104138
0.125446
0.18541
0.202631
0.19771
0.154323
0.0952135
0.09086
0.128942
0.297569
3.03439
2.56035
2.06508
1.80439
1.5264
1.45458
1.30292
1.23604
1.17105
1.04588
0.992348
0.904432
0.87235
0.802132
0.744507
0.67778
0.51861
0.347382
0.174428
0.0870237
0.0522036
0.0489331
0.0450477
0.0490682
0.0811316
0.186537
0.298884
0.315974
0.310015
0.28726
0.266788
0.231015
0.129657
0.11939
0.221444
0.414195
0.414622
0.286474
0.205555
0.19468
0.219012
0.234986
0.224461
0.191769
0.163703
0.16245
0.191873
0.25732
0.272984
0.272447
0.260608
0.228295
0.181914
0.161638
0.141808
0.114588
0.0936201
0.0777884
0.0658656
0.0487242
0.040601
0.0403001
0.0444781
0.0696719
0.0856499
0.105235
0.113613
0.115716
0.115366
0.119517
0.119734
0.113201
0.0921224
0.0755793
0.0702029
0.0698595
0.0695755
0.0712772
0.0752266
0.0967124
0.178356
0.303589
0.346557
0.344647
0.341603
0.338005
0.306573
0.216501
0.14623
0.109697
0.101711
0.118411
0.179161
0.198905
0.194276
0.156176
0.105769
0.0916428
0.120318
0.219445
2.33806
2.00639
1.74553
1.53588
1.3244
1.26221
1.12207
1.07856
0.997605
0.95189
0.861931
0.752323
0.712306
0.608687
0.542291
0.420408
0.255517
0.137256
0.0671221
0.0388926
0.0291259
0.0283964
0.0288747
0.030096
0.0384351
0.0624462
0.138224
0.200778
0.218646
0.21436
0.198822
0.138816
0.0871924
0.107066
0.292482
0.437038
0.403772
0.256761
0.210435
0.221962
0.272745
0.255701
0.238967
0.212034
0.175137
0.166627
0.177682
0.243797
0.268209
0.269582
0.259398
0.232994
0.18867
0.165997
0.143325
0.114908
0.0935212
0.0770042
0.0653955
0.0485865
0.0389242
0.037977
0.0393123
0.05467
0.0723565
0.0909166
0.101028
0.103534
0.110022
0.114541
0.108866
0.0899068
0.075995
0.0694976
0.0690215
0.0684847
0.0686886
0.0710353
0.0771413
0.127737
0.204142
0.362837
0.355716
0.323349
0.318337
0.318692
0.292458
0.205753
0.138768
0.104642
0.0972873
0.109284
0.166749
0.186651
0.180368
0.151449
0.124981
0.0949396
0.115124
0.182886
1.53991
1.33218
1.21387
1.05723
0.932483
0.896763
0.804035
0.775357
0.716655
0.685426
0.614913
0.526126
0.459185
0.345541
0.265773
0.161224
0.0888933
0.0464618
0.026259
0.020004
0.0210247
0.0224929
0.0237395
0.0276832
0.0281147
0.0316003
0.0452116
0.0776745
0.112985
0.112325
0.101909
0.0674296
0.0661792
0.12625
0.375577
0.447497
0.369898
0.239815
0.229488
0.251022
0.292644
0.257559
0.240636
0.214971
0.196229
0.173232
0.174231
0.219211
0.258826
0.267095
0.255679
0.234855
0.190485
0.170149
0.14864
0.119023
0.0940474
0.075997
0.0638592
0.048263
0.0382244
0.0367899
0.03709
0.0428349
0.0607537
0.079076
0.0877477
0.0899345
0.100927
0.105087
0.0941706
0.080229
0.0719667
0.0685541
0.0691901
0.0685611
0.0689049
0.0717532
0.0807329
0.148886
0.22888
0.379768
0.354752
0.299663
0.298966
0.29009
0.247716
0.179483
0.126574
0.0968202
0.0922337
0.104525
0.153944
0.171705
0.168791
0.14826
0.135445
0.102012
0.117016
0.168044
0.749239
0.644786
0.604518
0.525707
0.469168
0.46053
0.427546
0.405285
0.386537
0.36839
0.326912
0.266713
0.191787
0.126418
0.0791153
0.0461582
0.0264332
0.0157745
0.0136376
0.014831
0.0200654
0.0227058
0.0263388
0.0280463
0.0244378
0.0231733
0.0243354
0.032803
0.048476
0.0492263
0.0460148
0.0419948
0.0571152
0.196746
0.431491
0.445131
0.329866
0.232932
0.236429
0.275632
0.299764
0.258814
0.238524
0.211618
0.214439
0.182292
0.172252
0.195329
0.241398
0.261708
0.25072
0.234626
0.194374
0.172084
0.149965
0.119645
0.0936253
0.0728728
0.0619555
0.0480993
0.0382694
0.0364483
0.0364842
0.0381988
0.0501055
0.0676745
0.0733227
0.0784009
0.0907241
0.0944517
0.0845369
0.0779739
0.0713394
0.0691656
0.0706941
0.0700748
0.0705404
0.0737623
0.0855124
0.149144
0.269602
0.363839
0.341627
0.298684
0.29802
0.285791
0.21572
0.160623
0.112992
0.0891628
0.0869878
0.100641
0.148703
0.169828
0.166956
0.147243
0.136444
0.111496
0.124008
0.167863
0.222997
0.187031
0.177509
0.158822
0.145612
0.147478
0.144465
0.133691
0.128801
0.119227
0.101526
0.0728597
0.0494383
0.0309716
0.0179307
0.0117199
0.00874573
0.00927419
0.0112467
0.0162386
0.0305145
0.038115
0.0391962
0.0367779
0.0286553
0.0218244
0.020404
0.0218102
0.0235063
0.0258607
0.0272791
0.0329119
0.0752617
0.300281
0.455404
0.431117
0.290087
0.226186
0.241141
0.287676
0.304562
0.280204
0.233509
0.209199
0.217921
0.198467
0.171549
0.179721
0.214465
0.251806
0.246209
0.232379
0.201456
0.172192
0.147303
0.117122
0.0904638
0.0703758
0.0615009
0.0485009
0.0391962
0.0368663
0.0367169
0.0368317
0.0431338
0.0557125
0.0618601
0.0715606
0.0809539
0.0859316
0.0784521
0.0758291
0.0706982
0.0694901
0.0716043
0.0707743
0.0712259
0.0744318
0.0868201
0.14507
0.309504
0.31562
0.342287
0.3225
0.30691
0.289958
0.210205
0.13646
0.0953721
0.0824073
0.0821384
0.0929724
0.143752
0.175209
0.172034
0.151121
0.130104
0.114065
0.123831
0.172658
0.0328597
0.0287789
0.0278892
0.0262284
0.0256553
0.0266611
0.0264377
0.0246892
0.0233825
0.0207418
0.0170716
0.0116121
0.00821427
0.00541808
0.00458599
0.0049361
0.00609513
0.0108783
0.0192752
0.0388984
0.0667843
0.0705466
0.0678761
0.0606267
0.0425073
0.028551
0.0234955
0.0201983
0.0194644
0.0205049
0.0237838
0.0393257
0.135401
0.402546
0.467131
0.398193
0.266653
0.215926
0.250114
0.30201
0.327784
0.314761
0.234357
0.211283
0.218789
0.221508
0.181364
0.172523
0.186922
0.233418
0.240709
0.229007
0.213521
0.173645
0.14461
0.117207
0.0903051
0.0706304
0.0611864
0.0509065
0.0420655
0.038892
0.0374617
0.0372233
0.0391208
0.0471555
0.0531893
0.0643642
0.0730042
0.0775446
0.0733307
0.0701959
0.0691987
0.0704161
0.0725939
0.0718361
0.0725252
0.0763303
0.0893756
0.160154
0.322263
0.313976
0.401392
0.37702
0.33983
0.305358
0.214681
0.122322
0.0861609
0.0761935
0.0782445
0.0904034
0.13002
0.177247
0.171967
0.152025
0.12297
0.114201
0.122616
0.177841
0.00225861
0.00208428
0.00203596
0.0020206
0.00203962
0.00214657
0.00213075
0.00199546
0.00189986
0.00188619
0.0019215
0.0020239
0.0022048
0.00261593
0.00367327
0.00606333
0.012881
0.0340529
0.0549204
0.101802
0.132759
0.132159
0.12357
0.100738
0.0704116
0.0493697
0.0340145
0.0259618
0.025815
0.0281197
0.0361723
0.0718668
0.264531
0.456796
0.462499
0.349924
0.23469
0.211265
0.261688
0.3314
0.376416
0.358676
0.251719
0.222752
0.223314
0.241967
0.216721
0.173934
0.17358
0.201161
0.228954
0.222446
0.214958
0.177393
0.1469
0.123052
0.0940381
0.076228
0.0617641
0.0553428
0.0476341
0.0449537
0.0396371
0.0382655
0.0393411
0.0447926
0.0473733
0.0552726
0.0646511
0.0705036
0.0700309
0.0685464
0.0695633
0.0767631
0.0797385
0.0778604
0.0780444
0.0825467
0.0933732
0.19864
0.315249
0.356086
0.466171
0.423013
0.414409
0.33919
0.240053
0.110478
0.0852042
0.0736896
0.0780731
0.0919081
0.125361
0.165017
0.158068
0.142692
0.121443
0.117605
0.121912
0.169129
0.000349252
0.00038545
0.000379071
0.00037309
0.000373255
0.000389193
0.000477377
0.000631535
0.000925077
0.00157271
0.00222074
0.00335417
0.00486773
0.00738174
0.012587
0.0230475
0.0506964
0.0953754
0.143533
0.215649
0.234664
0.226755
0.205289
0.155323
0.112587
0.085491
0.056534
0.0456564
0.0468456
0.0512086
0.0667798
0.140804
0.402051
0.482474
0.439116
0.292201
0.206526
0.214119
0.270099
0.377258
0.451365
0.450994
0.292535
0.234887
0.226263
0.248974
0.249862
0.189096
0.172516
0.179803
0.19994
0.20144
0.205865
0.17503
0.146623
0.122367
0.095055
0.0786133
0.061252
0.0595525
0.0556405
0.053916
0.0469019
0.0413245
0.0414311
0.0457902
0.0468962
0.0497898
0.0594328
0.0672437
0.0699003
0.0708267
0.0753791
0.0898791
0.0936462
0.0902893
0.0896725
0.0948688
0.106202
0.24036
0.294161
0.399433
0.494308
0.438833
0.462722
0.357625
0.303887
0.111871
0.0913238
0.0736497
0.07962
0.0987498
0.129036
0.153653
0.151763
0.137427
0.121662
0.120015
0.118083
0.147489
0.000973162
0.00102454
0.00105152
0.00106992
0.00112572
0.00139919
0.00263139
0.00403812
0.00695301
0.0105412
0.0135214
0.0179984
0.0240534
0.0323226
0.049303
0.080773
0.152878
0.221312
0.306923
0.379045
0.380247
0.35885
0.310471
0.234455
0.17645
0.135246
0.0956798
0.0868863
0.0884208
0.0938051
0.12126
0.289391
0.489187
0.488455
0.36822
0.236562
0.193484
0.224073
0.27851
0.448368
0.568232
0.590733
0.369649
0.248582
0.230576
0.251796
0.262722
0.224108
0.179773
0.177981
0.189218
0.179613
0.176758
0.158057
0.136894
0.11231
0.0918092
0.0766286
0.0618301
0.0620106
0.0611101
0.0605538
0.0572625
0.0485344
0.0465074
0.0484763
0.0481775
0.0491989
0.0570698
0.067615
0.0724302
0.0759546
0.088175
0.108092
0.11082
0.106484
0.107372
0.113695
0.129596
0.258822
0.3078
0.372626
0.511245
0.444464
0.464264
0.349387
0.419198
0.12199
0.0903775
0.0729927
0.0795924
0.125853
0.153402
0.15727
0.157254
0.138034
0.125457
0.120737
0.11576
0.142071
0.00982624
0.00966101
0.00973765
0.0099186
0.0105328
0.0134786
0.0232526
0.0308292
0.042727
0.0530131
0.0616143
0.0722351
0.0883991
0.110161
0.153138
0.238574
0.335218
0.434579
0.535676
0.576059
0.564731
0.520067
0.45234
0.353684
0.28082
0.212124
0.162695
0.153234
0.152191
0.159856
0.215909
0.462613
0.52769
0.442679
0.27157
0.195484
0.188539
0.229563
0.312377
0.522855
0.721589
0.791259
0.554251
0.29296
0.246539
0.251368
0.276113
0.260131
0.211811
0.189125
0.193498
0.177645
0.168034
0.149338
0.130765
0.108149
0.0905757
0.0764024
0.0650244
0.0657212
0.0690735
0.0684466
0.0644178
0.0541573
0.0530552
0.0537316
0.0515447
0.051229
0.0564019
0.0715086
0.0765891
0.0833821
0.106891
0.128828
0.129148
0.127605
0.134776
0.143963
0.161543
0.267657
0.318148
0.338315
0.551982
0.428748
0.440532
0.523461
0.529919
0.163851
0.0830788
0.073078
0.0799808
0.159922
0.177251
0.166559
0.164508
0.144601
0.139644
0.124962
0.118114
0.139034
0.0792752
0.0770289
0.0774891
0.0786954
0.0817828
0.0957261
0.124897
0.142642
0.165686
0.182354
0.195588
0.212352
0.238943
0.288418
0.377632
0.487435
0.59584
0.712188
0.775248
0.771281
0.734865
0.671057
0.576478
0.472259
0.391871
0.306249
0.263276
0.251437
0.248165
0.263806
0.400505
0.560894
0.524509
0.316107
0.204057
0.170737
0.186207
0.254902
0.363108
0.566066
0.856732
1.06917
0.88463
0.404771
0.269481
0.253212
0.284672
0.286293
0.262977
0.237574
0.233203
0.197014
0.179662
0.154193
0.138153
0.114124
0.0975294
0.0846961
0.0743339
0.0765285
0.086107
0.0862651
0.0804624
0.0674795
0.0628927
0.0618885
0.0568445
0.0557406
0.059259
0.0745246
0.0812122
0.0943162
0.135384
0.155136
0.152822
0.158097
0.182107
0.184674
0.18967
0.264469
0.306779
0.335002
0.56304
0.37538
0.426141
0.715281
0.54986
0.196713
0.101983
0.0791772
0.08511
0.161051
0.18904
0.171187
0.167492
0.151924
0.140461
0.137612
0.125992
0.13252
0.362346
0.347492
0.342184
0.336087
0.336595
0.353862
0.384648
0.398289
0.412822
0.421423
0.429875
0.448291
0.488418
0.569516
0.666259
0.774168
0.866713
0.91064
0.903049
0.861344
0.794206
0.722804
0.634608
0.571572
0.498851
0.418524
0.38236
0.362878
0.36211
0.40261
0.573645
0.586081
0.417742
0.211309
0.157644
0.153817
0.193002
0.302452
0.424065
0.578493
0.877435
1.26636
1.37519
0.69418
0.333382
0.260894
0.283711
0.303583
0.298158
0.281495
0.280358
0.261358
0.241797
0.189543
0.184808
0.141348
0.133628
0.115889
0.0977205
0.105807
0.114512
0.114952
0.0971952
0.0793156
0.0769496
0.0720283
0.0632657
0.0628367
0.0662422
0.0811046
0.0913443
0.122521
0.172764
0.180285
0.181676
0.219244
0.245265
0.22706
0.218803
0.263536
0.270283
0.336528
0.556769
0.392359
0.428904
0.489079
0.502505
0.178426
0.175464
0.126686
0.112759
0.152578
0.186428
0.173255
0.169751
0.155912
0.141435
0.141911
0.128741
0.126214
0.981879
0.90084
0.860176
0.803707
0.770899
0.772377
0.767996
0.747346
0.712246
0.696302
0.698231
0.717583
0.781115
0.849504
0.92216
0.972679
0.991205
0.980004
0.943792
0.872183
0.802339
0.732149
0.676437
0.628505
0.556011
0.501176
0.480068
0.470698
0.484847
0.58772
0.623712
0.532533
0.252761
0.143691
0.129227
0.142207
0.211793
0.3283
0.459118
0.573268
0.800078
1.31642
1.76134
1.39019
0.569628
0.312165
0.274038
0.31013
0.320474
0.312996
0.311818
0.321286
0.318661
0.266704
0.25202
0.199554
0.194158
0.144186
0.147904
0.154674
0.152959
0.140558
0.107921
0.0971266
0.0967083
0.0916216
0.0784083
0.0780841
0.0833288
0.0969725
0.115417
0.176361
0.210328
0.214965
0.240987
0.342969
0.346545
0.282089
0.243764
0.249388
0.249123
0.334185
0.571227
0.426524
0.424695
0.385965
0.389595
0.188583
0.233434
0.164965
0.176167
0.152873
0.193447
0.178943
0.176526
0.16514
0.149111
0.147692
0.132111
0.123367
1.78849
1.59107
1.46222
1.31363
1.22072
1.16311
1.07402
0.996314
0.949042
0.935897
0.942344
0.971764
1.004
1.02761
1.04276
1.0405
1.02666
0.984295
0.908984
0.838156
0.773152
0.726557
0.687358
0.639544
0.60045
0.591485
0.593917
0.608437
0.633591
0.633643
0.57311
0.322036
0.149246
0.112968
0.114625
0.136597
0.211937
0.311623
0.444494
0.549021
0.683011
1.13157
1.90104
2.17426
1.2509
0.50768
0.313931
0.295607
0.339968
0.353721
0.36017
0.364666
0.357022
0.353789
0.3419
0.254653
0.25637
0.202906
0.198697
0.190303
0.171122
0.141074
0.115958
0.114018
0.116281
0.111176
0.101634
0.102137
0.111693
0.128348
0.178626
0.241432
0.295275
0.32883
0.468493
0.477167
0.424026
0.290972
0.245263
0.234536
0.232993
0.331171
0.606777
0.408595
0.471209
0.417881
0.361253
0.370193
0.519749
0.192551
0.3417
0.165416
0.214535
0.192626
0.185193
0.187856
0.181859
0.171146
0.146946
0.128007
2.56893
2.2094
1.89919
1.64062
1.48561
1.35802
1.24815
1.17984
1.14541
1.12372
1.11647
1.11384
1.09962
1.08778
1.06911
1.02866
0.947817
0.847378
0.778678
0.73649
0.710134
0.700121
0.687156
0.671007
0.670887
0.676185
0.672222
0.656518
0.617363
0.532157
0.333587
0.175945
0.124086
0.114433
0.117864
0.13816
0.206817
0.25262
0.313753
0.421232
0.499078
0.703563
1.69796
2.45525
2.52908
1.24387
0.521747
0.327503
0.306697
0.352972
0.371477
0.378376
0.365495
0.366383
0.342449
0.274423
0.305479
0.250463
0.236036
0.212876
0.172638
0.141835
0.127937
0.130459
0.130011
0.124939
0.123573
0.13514
0.154797
0.203348
0.339525
0.430829
0.602708
0.675394
0.659133
0.528856
0.363257
0.249016
0.220744
0.214059
0.219244
0.368623
0.595681
0.404549
0.593492
0.565873
0.404908
0.421941
0.342295
0.232715
0.398328
0.206898
0.244126
0.223653
0.213968
0.222755
0.213454
0.189554
0.178382
0.154941
3.08895
2.46639
2.01968
1.73893
1.57482
1.44387
1.3581
1.30263
1.25535
1.21607
1.18561
1.14962
1.10119
1.02591
0.923611
0.800701
0.689059
0.62435
0.599612
0.596538
0.608835
0.627981
0.636952
0.636954
0.636051
0.617238
0.563667
0.472435
0.362382
0.262679
0.194904
0.161184
0.154293
0.145471
0.144309
0.155384
0.194862
0.22511
0.241711
0.258269
0.299175
0.402506
0.776091
2.2195
2.99182
2.97023
1.65311
0.74237
0.414942
0.322793
0.319001
0.357772
0.3647
0.361879
0.317002
0.276388
0.303325
0.275403
0.259882
0.20861
0.167985
0.147094
0.144163
0.156201
0.160002
0.166236
0.185073
0.238663
0.384042
0.593664
0.880252
1.0548
1.0086
0.885654
0.622926
0.369041
0.277049
0.222781
0.205082
0.21541
0.258437
0.448418
0.594858
0.478257
0.698938
0.74679
0.436724
0.391919
0.297092
0.262437
0.340319
0.376955
0.361166
0.303281
0.281078
0.25827
0.249306
0.243671
0.267362
0.287948
3.08759
2.33648
1.92561
1.71888
1.58718
1.48252
1.41236
1.34624
1.27623
1.19787
1.10204
0.985671
0.848854
0.704223
0.567182
0.457233
0.389168
0.362559
0.360655
0.372391
0.385356
0.397892
0.407432
0.404983
0.379848
0.324295
0.261356
0.223209
0.208992
0.213181
0.222799
0.248506
0.276959
0.266446
0.261468
0.289268
0.367768
0.563049
0.606524
0.555183
0.492757
0.45516
0.435374
0.796297
2.5041
3.54651
3.56291
3.33983
2.08637
1.27152
0.867092
0.680654
0.583933
0.466608
0.342875
0.290207
0.284805
0.303657
0.242245
0.209177
0.199806
0.207733
0.237234
0.33418
0.418924
0.527303
0.705315
1.22322
1.63568
1.81428
1.68283
1.47627
0.992961
0.739857
0.439411
0.437596
0.369839
0.360844
0.33261
0.442867
0.672298
0.6337
0.603741
0.551596
0.72307
1.16286
0.720409
0.522728
0.651014
0.374619
0.364346
0.47929
0.443326
0.442834
0.461995
0.510227
0.627243
0.805998
1.28013
1.63752
1.97947
1.60009
1.43373
1.3375
1.24762
1.14956
1.045
0.933781
0.813443
0.682176
0.544863
0.40417
0.273188
0.169861
0.110844
0.094694
0.116268
0.17251
0.248301
0.316073
0.349663
0.346528
0.300954
0.242491
0.192205
0.164649
0.160723
0.191709
0.265766
0.406587
0.718079
1.00098
1.22099
1.27961
1.44568
2.02395
2.91895
3.12295
2.97687
2.59921
2.28893
1.87774
1.35862
0.85417
0.512058
0.654605
3.0353
5.34552
6.4019
6.60862
6.00463
5.18662
4.33227
3.09225
1.69011
0.882065
0.693676
0.271808
0.226167
0.23728
0.316894
0.506497
0.796985
1.29923
1.76632
2.41548
2.89235
3.12882
2.94228
2.51385
1.63001
1.18517
0.623243
0.621241
0.36294
0.550487
0.410147
0.701857
0.881262
1.50322
1.42167
1.01412
0.676442
0.589558
0.582972
1.40097
1.79722
1.1873
1.93734
0.677982
0.408394
0.396386
0.575543
1.01782
1.56361
2.80293
3.65753
5.6259
6.44608
7.53918
0.0429484
0.0572879
0.102149
0.319112
0.24516
0.13667
0.230571
0.297124
0.217325
0.196308
0.206007
0.162535
0.204903
0.374275
0.397973
0.760834
0.715871
0.250013
0.257772
0.273633
0.340047
0.511017
0.82512
1.12235
1.22871
1.25378
1.13858
0.737011
1.46864
2.94162
3.72411
3.95772
3.55754
2.54826
1.38282
0.863732
0.434961
0.387263
0.448728
0.594
0.936412
1.49346
2.12025
2.64089
2.76648
2.6397
2.25186
1.64972
1.08329
0.621558
0.320563
0.167009
0.10963
0.0982499
0.0998425
0.10115
0.0948978
0.086466
0.081134
0.088485
0.123621
0.21045
0.396863
0.528334
0.514261
0.374024
0.247055
0.246067
0.366341
0.60066
0.843185
0.925311
0.745823
0.686398
0.515404
0.402844
0.321312
0.288723
0.320218
0.41232
0.575833
0.885175
1.2692
1.65254
1.76481
1.62077
1.23952
0.947964
0.792348
0.745656
0.758445
0.799276
0.840827
0.838737
0.729096
0.443025
0.198928
0.0819975
0.0416246
0.016413
0.0698342
0.0743295
0.0935004
0.135154
0.254056
0.206415
0.157038
0.137321
0.108145
0.149622
0.186331
0.209429
0.288348
0.381028
0.301109
0.406876
0.686251
0.692937
0.643721
0.526541
0.486178
0.42729
0.404035
0.48718
0.560664
0.552244
0.881507
1.96874
2.01988
1.86648
1.35566
0.940897
0.688259
0.570031
0.565465
0.615661
0.635944
0.697754
0.699256
0.701636
0.680097
0.670861
0.687479
0.740339
0.843462
0.991611
1.11149
1.12765
1.04722
0.899829
0.803641
0.700071
0.518925
0.362929
0.271851
0.212594
0.162536
0.127805
0.098843
0.0843058
0.0848723
0.0914056
0.112515
0.162707
0.238857
0.25834
0.24218
0.232668
0.252508
0.288034
0.276178
0.235908
0.179222
0.192621
0.18042
0.190921
0.208151
0.216532
0.227903
0.25173
0.284891
0.342858
0.425728
0.611207
0.858067
0.957521
0.904444
0.66929
0.474503
0.375004
0.331713
0.303163
0.275931
0.259852
0.247617
0.210304
0.109023
0.0478999
0.0287424
0.0205228
0.0793198
0.0857263
0.093297
0.0902175
0.216372
0.22981
0.103613
0.0868778
0.111864
0.173258
0.234526
0.312352
0.344442
0.527511
0.305026
0.614725
0.516118
0.509441
0.463088
0.421583
0.358329
0.284076
0.252876
0.257403
0.262883
0.460867
1.49616
1.92387
1.25238
0.697329
0.524898
0.470573
0.472874
0.507635
0.567816
0.640052
0.645283
0.738087
0.714956
0.719685
0.716756
0.696465
0.674398
0.656568
0.614303
0.568147
0.568182
0.582147
0.656391
0.701394
0.718141
0.692217
0.642174
0.572046
0.438086
0.321218
0.217582
0.144035
0.0925763
0.0710488
0.0677582
0.0739083
0.103891
0.195883
0.258244
0.262364
0.244219
0.221141
0.193968
0.179865
0.155516
0.146977
0.139439
0.147551
0.165765
0.173736
0.195449
0.195779
0.20069
0.208167
0.227841
0.250106
0.260788
0.269465
0.291864
0.430678
0.592637
0.580701
0.436171
0.229644
0.133106
0.105713
0.105681
0.126705
0.14115
0.121305
0.0620137
0.0358412
0.0271257
0.0213524
0.0853896
0.0943678
0.0836528
0.0813593
0.163005
0.232157
0.0978782
0.0830831
0.132767
0.190222
0.275731
0.353972
0.383778
0.418249
0.429255
0.512014
0.606796
0.494438
0.407949
0.363066
0.292648
0.237277
0.214006
0.209024
0.261834
0.796251
1.67609
1.4125
0.611564
0.41937
0.378147
0.365241
0.382097
0.450017
0.526646
0.6045
0.605551
0.615633
0.605647
0.608976
0.629721
0.644672
0.652945
0.657537
0.655294
0.639392
0.591688
0.519736
0.482218
0.484567
0.502467
0.522154
0.553728
0.541858
0.50101
0.419559
0.287485
0.186426
0.108505
0.0718894
0.0656393
0.0766167
0.14361
0.228891
0.252838
0.251541
0.236953
0.209997
0.183626
0.167555
0.149728
0.149714
0.14587
0.154219
0.170971
0.17059
0.196976
0.204755
0.216063
0.218811
0.236065
0.260054
0.270222
0.267243
0.249069
0.251824
0.312643
0.444613
0.430459
0.295651
0.147267
0.094355
0.0920694
0.113291
0.118579
0.0922458
0.0525674
0.0379216
0.0279456
0.0225907
0.089918
0.0990063
0.0779151
0.0756136
0.125691
0.228259
0.10034
0.0903931
0.153786
0.208244
0.285935
0.347754
0.384368
0.420212
0.478798
0.490036
0.752634
0.576533
0.540608
0.451477
0.312603
0.246384
0.22968
0.237821
0.369384
1.15844
1.58375
0.791918
0.404281
0.317901
0.290988
0.28526
0.337686
0.426942
0.494553
0.526558
0.524557
0.500605
0.445138
0.429262
0.438124
0.465501
0.50788
0.54817
0.590605
0.62021
0.62021
0.594538
0.513941
0.44385
0.402709
0.39665
0.39741
0.407512
0.433373
0.412794
0.358188
0.253828
0.155916
0.0916569
0.0761794
0.0911261
0.171723
0.216879
0.197956
0.197705
0.199373
0.173793
0.159211
0.149509
0.140599
0.144986
0.141065
0.143174
0.160019
0.143459
0.149581
0.172084
0.203404
0.208339
0.21458
0.238846
0.262989
0.265585
0.2642
0.248687
0.250087
0.297313
0.376311
0.353814
0.231864
0.126082
0.101196
0.109223
0.115425
0.0963968
0.0618976
0.051111
0.0339696
0.0259252
0.0962028
0.100902
0.0754342
0.0697035
0.103187
0.216144
0.109016
0.104303
0.172092
0.222525
0.296481
0.355193
0.375874
0.39647
0.418874
0.435921
0.580079
0.612978
0.611988
0.521502
0.324289
0.275911
0.277387
0.32666
0.62643
1.28072
1.25648
0.487965
0.306277
0.258875
0.2423
0.241901
0.321852
0.411984
0.435972
0.416125
0.403233
0.362607
0.30776
0.285221
0.284786
0.287961
0.304957
0.368791
0.428584
0.518293
0.586349
0.593168
0.577065
0.494009
0.409488
0.354056
0.325864
0.31699
0.319481
0.342599
0.336921
0.304298
0.213734
0.122891
0.0938465
0.106964
0.182395
0.194443
0.162867
0.161626
0.148042
0.12908
0.123231
0.124483
0.128082
0.128988
0.106878
0.134026
0.145586
0.125567
0.125162
0.13095
0.157908
0.19083
0.196824
0.2034
0.224127
0.234937
0.244992
0.250341
0.24514
0.251307
0.306714
0.332865
0.293726
0.173175
0.114969
0.105284
0.103451
0.0914252
0.0648762
0.0589583
0.0445625
0.0327561
0.101666
0.102867
0.0747783
0.0676803
0.0879208
0.204687
0.11817
0.113199
0.187897
0.252676
0.322279
0.337541
0.332024
0.361845
0.388379
0.41595
0.51445
0.60815
0.62398
0.565631
0.340944
0.305908
0.337949
0.472597
0.854091
1.26245
0.84747
0.348805
0.241718
0.208974
0.201441
0.226093
0.330841
0.391576
0.36427
0.316854
0.308653
0.282568
0.248577
0.232348
0.227242
0.21915
0.218763
0.223733
0.244002
0.294658
0.446944
0.549154
0.562944
0.5463
0.462932
0.367975
0.311711
0.277609
0.265057
0.266524
0.287427
0.287464
0.259668
0.165365
0.113557
0.121911
0.182145
0.178918
0.135645
0.142982
0.124244
0.11113
0.108933
0.115266
0.115484
0.105471
0.0840823
0.125764
0.128471
0.116689
0.118895
0.120288
0.130125
0.176062
0.189684
0.192035
0.201994
0.206127
0.209466
0.22156
0.233975
0.237931
0.254207
0.30871
0.303191
0.218896
0.133406
0.109457
0.0960996
0.0741513
0.0596036
0.0577517
0.0513045
0.0398481
0.106646
0.106989
0.0779957
0.0687708
0.0797985
0.187615
0.127197
0.126859
0.197794
0.274875
0.311494
0.313277
0.319495
0.361665
0.39237
0.433568
0.490889
0.571902
0.596009
0.585877
0.407849
0.352513
0.415631
0.598341
0.92121
1.16167
0.558052
0.281334
0.200607
0.174549
0.179546
0.212939
0.340062
0.347469
0.313095
0.276114
0.270223
0.249888
0.216124
0.204559
0.196841
0.191438
0.187703
0.18376
0.185517
0.197139
0.239116
0.384049
0.50768
0.528738
0.508033
0.420972
0.327088
0.272668
0.23648
0.226789
0.231664
0.256873
0.25567
0.213147
0.137197
0.135499
0.176023
0.168539
0.127673
0.122993
0.104886
0.0948644
0.0983839
0.106514
0.108712
0.09021
0.0803649
0.0993227
0.0865504
0.103073
0.109635
0.112108
0.109173
0.137846
0.171872
0.181497
0.192794
0.193867
0.193528
0.196583
0.206405
0.220191
0.232727
0.271556
0.290686
0.257174
0.159235
0.121313
0.0985825
0.0689953
0.0514757
0.0531103
0.0509599
0.0471502
0.112598
0.114258
0.0859012
0.0739344
0.0773262
0.167215
0.129464
0.129209
0.205259
0.279824
0.314425
0.321536
0.354306
0.405329
0.432706
0.437783
0.457238
0.48964
0.531738
0.562604
0.480517
0.383707
0.464493
0.652593
0.912358
0.906822
0.4117
0.246315
0.178918
0.160403
0.171854
0.208221
0.32671
0.302125
0.276289
0.252294
0.241351
0.210736
0.186453
0.184074
0.181865
0.180281
0.177647
0.172904
0.164573
0.16515
0.174018
0.213936
0.355154
0.47504
0.489755
0.463304
0.370015
0.286378
0.230843
0.202016
0.198805
0.21158
0.236858
0.227178
0.169399
0.149714
0.174444
0.169813
0.131512
0.116448
0.09579
0.0902018
0.100441
0.10836
0.121612
0.114185
0.0863226
0.110182
0.0773457
0.0857358
0.0806102
0.0946013
0.0911276
0.106011
0.150679
0.171803
0.18305
0.186306
0.180956
0.179939
0.183009
0.198589
0.213225
0.248023
0.27886
0.26086
0.174706
0.127748
0.106435
0.0703318
0.0491519
0.0486575
0.0493804
0.0566485
0.115882
0.120133
0.0944201
0.0779271
0.0722917
0.147132
0.128636
0.12502
0.202487
0.278884
0.332352
0.357805
0.429472
0.473313
0.492555
0.489479
0.452926
0.451724
0.465743
0.540809
0.532492
0.410078
0.486367
0.666613
0.866553
0.674713
0.330393
0.224455
0.170005
0.159726
0.170406
0.203816
0.275571
0.255334
0.255499
0.223634
0.201284
0.182037
0.176011
0.177764
0.179161
0.179426
0.177359
0.172776
0.164552
0.152365
0.151531
0.159875
0.20272
0.346219
0.443778
0.446046
0.40973
0.316367
0.241648
0.192358
0.175446
0.177645
0.206747
0.218645
0.196835
0.166727
0.176825
0.174348
0.145734
0.118276
0.0941441
0.0911419
0.116786
0.119509
0.111156
0.188605
0.0884107
0.132777
0.0788642
0.0853131
0.0715898
0.0875019
0.0833584
0.0928552
0.13826
0.16786
0.17834
0.181497
0.17728
0.165599
0.168059
0.174899
0.192328
0.229645
0.271506
0.271644
0.20665
0.136308
0.105935
0.0775118
0.052121
0.0476104
0.0485242
0.064484
0.119267
0.126751
0.107378
0.0858377
0.0718365
0.131555
0.126835
0.120666
0.190853
0.272736
0.343764
0.38537
0.44237
0.469217
0.491281