/*--------------------------------*- C++ -*----------------------------------*\
| =========                 |                                                 |
| \\      /  F ield         | OpenFOAM: The Open Source CFD Toolbox           |
|  \\    /   O peration     | Version:  2.4.0                                 |
|   \\  /    A nd           | Web:      www.OpenFOAM.org                      |
|    \\/     M anipulation  |                                                 |
\*---------------------------------------------------------------------------*/
FoamFile
{
    version     2.0;
    format      ascii;
    class       volScalarField;
    location    "0.182";
    object      pPrime2Mean;
}
// * * * * * * * * * * * * * * * * * * * * * * * * * * * * * * * * * * * * * //

dimensions      [0 4 -4 0 0 0 0];

internalField   nonuniform List<scalar> 
17600
(
3.55074e+06
3.46121e+06
3.36493e+06
3.26952e+06
3.17547e+06
3.08279e+06
2.99149e+06
2.90154e+06
2.81297e+06
2.72576e+06
2.6399e+06
2.55538e+06
2.47219e+06
2.39027e+06
2.30954e+06
2.22984e+06
2.15086e+06
2.07198e+06
1.99179e+06
1.90549e+06
3.55082e+06
3.4612e+06
3.36493e+06
3.26952e+06
3.17547e+06
3.08279e+06
2.99149e+06
2.90154e+06
2.81297e+06
2.72576e+06
2.6399e+06
2.55538e+06
2.47219e+06
2.39027e+06
2.30954e+06
2.22985e+06
2.15088e+06
2.07203e+06
1.99191e+06
1.90572e+06
3.55087e+06
3.46119e+06
3.36492e+06
3.26952e+06
3.17547e+06
3.08279e+06
2.99149e+06
2.90154e+06
2.81297e+06
2.72576e+06
2.6399e+06
2.55539e+06
2.47219e+06
2.39028e+06
2.30955e+06
2.22987e+06
2.15092e+06
2.07212e+06
1.99212e+06
1.90661e+06
3.55091e+06
3.46118e+06
3.36492e+06
3.26952e+06
3.17547e+06
3.08279e+06
2.99149e+06
2.90154e+06
2.81297e+06
2.72576e+06
2.6399e+06
2.55539e+06
2.4722e+06
2.39029e+06
2.30957e+06
2.2299e+06
2.15099e+06
2.07226e+06
1.99243e+06
1.90785e+06
3.55095e+06
3.46116e+06
3.36491e+06
3.26952e+06
3.17547e+06
3.08279e+06
2.99148e+06
2.90154e+06
2.81297e+06
2.72576e+06
2.6399e+06
2.55539e+06
2.4722e+06
2.3903e+06
2.30959e+06
2.22994e+06
2.15107e+06
2.07243e+06
1.99285e+06
1.90933e+06
3.55098e+06
3.46115e+06
3.36489e+06
3.26951e+06
3.17547e+06
3.08279e+06
2.99148e+06
2.90154e+06
2.81297e+06
2.72576e+06
2.6399e+06
2.5554e+06
2.47221e+06
2.39031e+06
2.30962e+06
2.22999e+06
2.15117e+06
2.07265e+06
1.99335e+06
1.91095e+06
3.551e+06
3.46114e+06
3.36488e+06
3.26951e+06
3.17546e+06
3.08279e+06
2.99148e+06
2.90154e+06
2.81297e+06
2.72576e+06
2.63991e+06
2.5554e+06
2.47222e+06
2.39033e+06
2.30965e+06
2.23006e+06
2.15129e+06
2.0729e+06
1.99392e+06
1.91264e+06
3.55103e+06
3.46113e+06
3.36487e+06
3.26951e+06
3.17546e+06
3.08279e+06
2.99148e+06
2.90154e+06
2.81297e+06
2.72576e+06
2.63991e+06
2.55541e+06
2.47223e+06
2.39035e+06
2.30969e+06
2.23013e+06
2.15143e+06
2.07318e+06
1.99456e+06
1.91437e+06
3.55105e+06
3.46113e+06
3.36486e+06
3.2695e+06
3.17546e+06
3.08279e+06
2.99148e+06
2.90154e+06
2.81297e+06
2.72576e+06
2.63991e+06
2.55541e+06
2.47224e+06
2.39037e+06
2.30973e+06
2.2302e+06
2.15158e+06
2.07349e+06
1.99524e+06
1.9161e+06
3.55108e+06
3.46112e+06
3.36485e+06
3.2695e+06
3.17546e+06
3.08279e+06
2.99148e+06
2.90154e+06
2.81297e+06
2.72576e+06
2.63992e+06
2.55542e+06
2.47226e+06
2.3904e+06
2.30977e+06
2.23029e+06
2.15175e+06
2.07382e+06
1.99597e+06
1.91782e+06
3.55109e+06
3.46112e+06
3.36484e+06
3.2695e+06
3.17546e+06
3.08279e+06
2.99148e+06
2.90154e+06
2.81297e+06
2.72576e+06
2.63992e+06
2.55543e+06
2.47227e+06
2.39042e+06
2.30982e+06
2.23038e+06
2.15193e+06
2.07418e+06
1.99672e+06
1.9195e+06
3.55111e+06
3.46111e+06
3.36484e+06
3.26949e+06
3.17546e+06
3.08279e+06
2.99148e+06
2.90154e+06
2.81297e+06
2.72577e+06
2.63992e+06
2.55544e+06
2.47229e+06
2.39045e+06
2.30988e+06
2.23048e+06
2.15212e+06
2.07455e+06
1.99749e+06
1.92114e+06
3.55113e+06
3.46111e+06
3.36483e+06
3.26949e+06
3.17546e+06
3.08279e+06
2.99148e+06
2.90154e+06
2.81297e+06
2.72577e+06
2.63993e+06
2.55545e+06
2.4723e+06
2.39048e+06
2.30993e+06
2.23059e+06
2.15232e+06
2.07494e+06
1.99828e+06
1.92274e+06
3.55114e+06
3.46111e+06
3.36482e+06
3.26949e+06
3.17546e+06
3.08279e+06
2.99148e+06
2.90154e+06
2.81297e+06
2.72577e+06
2.63993e+06
2.55545e+06
2.47232e+06
2.39051e+06
2.30999e+06
2.2307e+06
2.15253e+06
2.07534e+06
1.99906e+06
1.92428e+06
3.55115e+06
3.46111e+06
3.36482e+06
3.26948e+06
3.17546e+06
3.08279e+06
2.99148e+06
2.90154e+06
2.81297e+06
2.72577e+06
2.63994e+06
2.55546e+06
2.47234e+06
2.39055e+06
2.31005e+06
2.23081e+06
2.15274e+06
2.07575e+06
1.99985e+06
1.92576e+06
3.55116e+06
3.46111e+06
3.36481e+06
3.26948e+06
3.17546e+06
3.08279e+06
2.99148e+06
2.90154e+06
2.81297e+06
2.72578e+06
2.63995e+06
2.55547e+06
2.47236e+06
2.39058e+06
2.31012e+06
2.23093e+06
2.15296e+06
2.07617e+06
2.00063e+06
1.92719e+06
3.55117e+06
3.46111e+06
3.36481e+06
3.26948e+06
3.17546e+06
3.08279e+06
2.99148e+06
2.90154e+06
2.81297e+06
2.72578e+06
2.63995e+06
2.55549e+06
2.47238e+06
2.39062e+06
2.31018e+06
2.23105e+06
2.15319e+06
2.07658e+06
2.00141e+06
1.92855e+06
3.55117e+06
3.46111e+06
3.36481e+06
3.26948e+06
3.17546e+06
3.08279e+06
2.99148e+06
2.90154e+06
2.81298e+06
2.72578e+06
2.63996e+06
2.5555e+06
2.4724e+06
2.39065e+06
2.31025e+06
2.23117e+06
2.15341e+06
2.077e+06
2.00216e+06
1.92985e+06
3.55117e+06
3.46111e+06
3.36481e+06
3.26948e+06
3.17546e+06
3.08279e+06
2.99148e+06
2.90154e+06
2.81298e+06
2.72579e+06
2.63996e+06
2.55551e+06
2.47242e+06
2.39069e+06
2.31032e+06
2.2313e+06
2.15364e+06
2.07741e+06
2.0029e+06
1.93109e+06
3.55118e+06
3.46111e+06
3.36481e+06
3.26947e+06
3.17546e+06
3.08279e+06
2.99148e+06
2.90154e+06
2.81298e+06
2.72579e+06
2.63997e+06
2.55552e+06
2.47244e+06
2.39073e+06
2.31038e+06
2.23142e+06
2.15386e+06
2.07781e+06
2.00362e+06
1.93227e+06
3.55118e+06
3.46111e+06
3.36481e+06
3.26947e+06
3.17546e+06
3.08279e+06
2.99148e+06
2.90154e+06
2.81298e+06
2.72579e+06
2.63997e+06
2.55553e+06
2.47246e+06
2.39076e+06
2.31045e+06
2.23154e+06
2.15408e+06
2.07821e+06
2.00431e+06
1.93339e+06
3.55117e+06
3.46111e+06
3.36481e+06
3.26948e+06
3.17547e+06
3.08279e+06
2.99148e+06
2.90155e+06
2.81298e+06
2.7258e+06
2.63998e+06
2.55554e+06
2.47248e+06
2.3908e+06
2.31052e+06
2.23166e+06
2.1543e+06
2.0786e+06
2.00498e+06
1.93444e+06
3.55117e+06
3.46111e+06
3.36481e+06
3.26948e+06
3.17547e+06
3.08279e+06
2.99148e+06
2.90155e+06
2.81298e+06
2.7258e+06
2.63999e+06
2.55555e+06
2.4725e+06
2.39083e+06
2.31058e+06
2.23178e+06
2.15452e+06
2.07898e+06
2.00562e+06
1.93544e+06
3.55117e+06
3.46111e+06
3.36481e+06
3.26948e+06
3.17547e+06
3.08279e+06
2.99148e+06
2.90155e+06
2.81299e+06
2.7258e+06
2.63999e+06
2.55556e+06
2.47252e+06
2.39087e+06
2.31065e+06
2.2319e+06
2.15472e+06
2.07934e+06
2.00623e+06
1.93637e+06
3.55116e+06
3.46111e+06
3.36481e+06
3.26948e+06
3.17547e+06
3.08279e+06
2.99148e+06
2.90155e+06
2.81299e+06
2.72581e+06
2.64e+06
2.55557e+06
2.47254e+06
2.39091e+06
2.31071e+06
2.23201e+06
2.15493e+06
2.07969e+06
2.00681e+06
1.93725e+06
3.55115e+06
3.46111e+06
3.36482e+06
3.26948e+06
3.17547e+06
3.08279e+06
2.99149e+06
2.90155e+06
2.81299e+06
2.72581e+06
2.64e+06
2.55558e+06
2.47255e+06
2.39094e+06
2.31077e+06
2.23212e+06
2.15512e+06
2.08003e+06
2.00736e+06
1.93807e+06
3.55114e+06
3.46111e+06
3.36482e+06
3.26949e+06
3.17547e+06
3.08279e+06
2.99149e+06
2.90155e+06
2.81299e+06
2.72581e+06
2.64001e+06
2.55559e+06
2.47257e+06
2.39097e+06
2.31083e+06
2.23223e+06
2.1553e+06
2.08034e+06
2.00787e+06
1.93883e+06
3.55113e+06
3.46111e+06
3.36483e+06
3.26949e+06
3.17547e+06
3.08279e+06
2.99149e+06
2.90155e+06
2.813e+06
2.72582e+06
2.64001e+06
2.5556e+06
2.47259e+06
2.391e+06
2.31089e+06
2.23232e+06
2.15548e+06
2.08064e+06
2.00836e+06
1.93953e+06
3.55111e+06
3.46111e+06
3.36484e+06
3.26949e+06
3.17547e+06
3.08279e+06
2.99149e+06
2.90156e+06
2.813e+06
2.72582e+06
2.64002e+06
2.55561e+06
2.4726e+06
2.39103e+06
2.31094e+06
2.23242e+06
2.15564e+06
2.08092e+06
2.0088e+06
1.94017e+06
3.5511e+06
3.46112e+06
3.36485e+06
3.2695e+06
3.17547e+06
3.08279e+06
2.99149e+06
2.90156e+06
2.813e+06
2.72582e+06
2.64002e+06
2.55562e+06
2.47262e+06
2.39106e+06
2.31099e+06
2.23251e+06
2.15579e+06
2.08118e+06
2.00921e+06
1.94076e+06
3.55108e+06
3.46112e+06
3.36485e+06
3.2695e+06
3.17547e+06
3.08279e+06
2.99149e+06
2.90156e+06
2.813e+06
2.72582e+06
2.64003e+06
2.55563e+06
2.47263e+06
2.39108e+06
2.31103e+06
2.23259e+06
2.15593e+06
2.08141e+06
2.00958e+06
1.9413e+06
3.55106e+06
3.46113e+06
3.36486e+06
3.26951e+06
3.17547e+06
3.08279e+06
2.99149e+06
2.90156e+06
2.813e+06
2.72583e+06
2.64003e+06
2.55563e+06
2.47265e+06
2.39111e+06
2.31107e+06
2.23266e+06
2.15606e+06
2.08163e+06
2.00992e+06
1.94178e+06
3.55103e+06
3.46113e+06
3.36487e+06
3.26951e+06
3.17547e+06
3.0828e+06
2.99149e+06
2.90156e+06
2.81301e+06
2.72583e+06
2.64004e+06
2.55564e+06
2.47266e+06
2.39113e+06
2.31111e+06
2.23273e+06
2.15618e+06
2.08182e+06
2.01022e+06
1.94221e+06
3.551e+06
3.46114e+06
3.36488e+06
3.26951e+06
3.17547e+06
3.0828e+06
2.99149e+06
2.90156e+06
2.81301e+06
2.72583e+06
2.64004e+06
2.55565e+06
2.47267e+06
2.39115e+06
2.31115e+06
2.23279e+06
2.15628e+06
2.08199e+06
2.01048e+06
1.94258e+06
3.55098e+06
3.46115e+06
3.3649e+06
3.26951e+06
3.17547e+06
3.0828e+06
2.9915e+06
2.90157e+06
2.81301e+06
2.72583e+06
2.64004e+06
2.55565e+06
2.47268e+06
2.39116e+06
2.31117e+06
2.23284e+06
2.15637e+06
2.08213e+06
2.01071e+06
1.9429e+06
3.55095e+06
3.46117e+06
3.36491e+06
3.26952e+06
3.17547e+06
3.0828e+06
2.9915e+06
2.90157e+06
2.81301e+06
2.72584e+06
2.64005e+06
2.55566e+06
2.47269e+06
2.39118e+06
2.3112e+06
2.23288e+06
2.15644e+06
2.08225e+06
2.0109e+06
1.94316e+06
3.55091e+06
3.46118e+06
3.36492e+06
3.26952e+06
3.17547e+06
3.0828e+06
2.9915e+06
2.90157e+06
2.81301e+06
2.72584e+06
2.64005e+06
2.55566e+06
2.47269e+06
2.39119e+06
2.31122e+06
2.23292e+06
2.1565e+06
2.08235e+06
2.01105e+06
1.94337e+06
3.55088e+06
3.46119e+06
3.36493e+06
3.26952e+06
3.17547e+06
3.0828e+06
2.9915e+06
2.90157e+06
2.81301e+06
2.72584e+06
2.64005e+06
2.55566e+06
2.4727e+06
2.3912e+06
2.31123e+06
2.23294e+06
2.15655e+06
2.08243e+06
2.01116e+06
1.94353e+06
3.55082e+06
3.4612e+06
3.36493e+06
3.26953e+06
3.17547e+06
3.0828e+06
2.9915e+06
2.90157e+06
2.81301e+06
2.72584e+06
2.64005e+06
2.55566e+06
2.4727e+06
2.3912e+06
2.31124e+06
2.23296e+06
2.15658e+06
2.08248e+06
2.01124e+06
1.94364e+06
3.55075e+06
3.46121e+06
3.36493e+06
3.26953e+06
3.17547e+06
3.0828e+06
2.9915e+06
2.90157e+06
2.81301e+06
2.72584e+06
2.64005e+06
2.55566e+06
2.4727e+06
2.3912e+06
2.31125e+06
2.23297e+06
2.15659e+06
2.0825e+06
2.01128e+06
1.94369e+06
1.82376e+06
1.80419e+06
1.78905e+06
1.77577e+06
1.76334e+06
1.75145e+06
1.73995e+06
1.72874e+06
1.71776e+06
1.70697e+06
1.69633e+06
1.68582e+06
1.67541e+06
1.66508e+06
1.6548e+06
1.64458e+06
1.6344e+06
1.62425e+06
1.61414e+06
1.60407e+06
1.59404e+06
1.58404e+06
1.57407e+06
1.56413e+06
1.55421e+06
1.54432e+06
1.53446e+06
1.52463e+06
1.51484e+06
1.50508e+06
1.49536e+06
1.48567e+06
1.47602e+06
1.46641e+06
1.45684e+06
1.44731e+06
1.43781e+06
1.42835e+06
1.41893e+06
1.40954e+06
1.40019e+06
1.39088e+06
1.3816e+06
1.37236e+06
1.36315e+06
1.35397e+06
1.34483e+06
1.33571e+06
1.32664e+06
1.3176e+06
1.30859e+06
1.29962e+06
1.29068e+06
1.28178e+06
1.27291e+06
1.26407e+06
1.25527e+06
1.2465e+06
1.23776e+06
1.22905e+06
1.22037e+06
1.21173e+06
1.20312e+06
1.19454e+06
1.18599e+06
1.17747e+06
1.16899e+06
1.16053e+06
1.15211e+06
1.14371e+06
1.13535e+06
1.12702e+06
1.11872e+06
1.11045e+06
1.10222e+06
1.09402e+06
1.08585e+06
1.07771e+06
1.06959e+06
1.0615e+06
1.05343e+06
1.04538e+06
1.03735e+06
1.02934e+06
1.02136e+06
1.0134e+06
1.00548e+06
997581
989711
981870
974060
966279
958530
950813
943129
935478
927861
920278
912729
905214
897733
890286
882871
875486
868131
860805
853510
846246
839011
831807
824633
817492
810383
803307
796264
789255
782280
775337
768428
761551
754706
747893
741112
734363
727644
720957
714301
707676
701083
694519
687987
681483
675010
668565
662151
655766
649412
643088
636793
630529
624296
618094
611923
605785
599678
593603
587560
581548
575567
569617
563696
557807
551947
546118
540318
534549
528810
523103
517427
511781
506167
500584
495032
489512
484022
478563
473133
467734
462363
457021
451706
446422
441163
435936
430731
425562
420409
415297
410192
405136
400079
395076
390069
385115
380155
375241
370319
365436
360536
355664
350768
345880
340951
335998
330972
325865
320606
315145
309222
302740
1.83303e+06
1.81172e+06
1.79497e+06
1.78062e+06
1.76745e+06
1.75499e+06
1.74304e+06
1.73146e+06
1.72016e+06
1.7091e+06
1.69823e+06
1.68752e+06
1.67693e+06
1.66643e+06
1.65602e+06
1.64566e+06
1.63537e+06
1.62512e+06
1.61492e+06
1.60477e+06
1.59466e+06
1.58459e+06
1.57456e+06
1.56456e+06
1.5546e+06
1.54468e+06
1.53478e+06
1.52492e+06
1.5151e+06
1.50532e+06
1.49557e+06
1.48586e+06
1.4762e+06
1.46657e+06
1.45698e+06
1.44743e+06
1.43792e+06
1.42845e+06
1.41901e+06
1.40962e+06
1.40026e+06
1.39095e+06
1.38166e+06
1.37242e+06
1.36321e+06
1.35403e+06
1.34488e+06
1.33577e+06
1.32669e+06
1.31764e+06
1.30863e+06
1.29966e+06
1.29072e+06
1.28182e+06
1.27295e+06
1.26411e+06
1.25531e+06
1.24654e+06
1.2378e+06
1.2291e+06
1.22042e+06
1.21178e+06
1.20317e+06
1.19459e+06
1.18604e+06
1.17753e+06
1.16904e+06
1.16059e+06
1.15216e+06
1.14377e+06
1.1354e+06
1.12707e+06
1.11877e+06
1.11051e+06
1.10228e+06
1.09408e+06
1.08591e+06
1.07776e+06
1.06964e+06
1.06155e+06
1.05347e+06
1.04542e+06
1.03738e+06
1.02937e+06
1.02139e+06
1.01343e+06
1.0055e+06
997601
989730
981888
974076
966294
958543
950825
943141
935490
927872
920289
912740
905224
897743
890296
882880
875494
868137
860811
853515
846250
839015
831810
824636
817494
810385
803309
796266
789257
782282
775339
768430
761553
754709
747896
741115
734365
727647
720959
714302
707677
701084
694520
687988
681484
675010
668565
662151
655766
649411
643085
636790
630525
624289
618086
611914
605774
599665
593589
587544
581531
575548
569596
563673
557782
551920
546087
540285
534512
528770
523059
517378
511727
506107
500518
494960
489432
483935
478468
473029
467621
462240
456887
451560
446263
440988
435746
430522
425334
420157
415022
409889
404802
399713
394672
389626
384627
379619
374652
369671
364721
359749
354793
349804
344807
339755
334657
329457
324136
318602
312759
306285
298628
1.84036e+06
1.81832e+06
1.80055e+06
1.78529e+06
1.77145e+06
1.75847e+06
1.74609e+06
1.73414e+06
1.72254e+06
1.71122e+06
1.70012e+06
1.6892e+06
1.67843e+06
1.66778e+06
1.65722e+06
1.64674e+06
1.63633e+06
1.62599e+06
1.61569e+06
1.60546e+06
1.59527e+06
1.58514e+06
1.57505e+06
1.565e+06
1.55499e+06
1.54503e+06
1.5351e+06
1.52521e+06
1.51536e+06
1.50555e+06
1.49578e+06
1.48605e+06
1.47637e+06
1.46672e+06
1.45712e+06
1.44755e+06
1.43803e+06
1.42855e+06
1.4191e+06
1.4097e+06
1.40034e+06
1.39101e+06
1.38173e+06
1.37248e+06
1.36327e+06
1.35408e+06
1.34494e+06
1.33582e+06
1.32674e+06
1.31769e+06
1.30868e+06
1.29971e+06
1.29077e+06
1.28186e+06
1.27299e+06
1.26415e+06
1.25535e+06
1.24658e+06
1.23784e+06
1.22914e+06
1.22047e+06
1.21183e+06
1.20322e+06
1.19464e+06
1.18609e+06
1.17758e+06
1.16909e+06
1.16064e+06
1.15221e+06
1.14382e+06
1.13546e+06
1.12712e+06
1.11882e+06
1.11056e+06
1.10233e+06
1.09413e+06
1.08595e+06
1.07781e+06
1.06969e+06
1.06159e+06
1.05351e+06
1.04545e+06
1.03741e+06
1.0294e+06
1.02141e+06
1.01345e+06
1.00552e+06
997614
989741
981898
974085
966302
958550
950832
943147
935495
927878
920294
912745
905229
897748
890300
882883
875496
868138
860811
853515
846250
839014
831809
824634
817492
810382
803306
796264
789255
782280
775338
768430
761553
754709
747896
741115
734366
727647
720959
714302
707677
701083
694519
687986
681482
675008
668563
662148
655763
649407
643081
636784
630517
624281
618076
611902
605761
599651
593573
587526
581511
575527
569573
563649
557756
551891
546056
540250
534474
528728
523013
517327
511672
506047
500451
494886
489352
483846
478371
472924
467506
462115
456752
451412
446102
440811
435555
430310
425104
419903
414745
409585
404468
399347
394269
389186
384141
379088
374065
369029
364011
358970
353930
348853
343750
338581
333343
327980
322460
316681
310516
303633
295361
1.84637e+06
1.82419e+06
1.80574e+06
1.78977e+06
1.77533e+06
1.76186e+06
1.74907e+06
1.73679e+06
1.72489e+06
1.71331e+06
1.70199e+06
1.69087e+06
1.67992e+06
1.66911e+06
1.65841e+06
1.64781e+06
1.63729e+06
1.62684e+06
1.61646e+06
1.60614e+06
1.59588e+06
1.58568e+06
1.57554e+06
1.56544e+06
1.55538e+06
1.54538e+06
1.53542e+06
1.5255e+06
1.51562e+06
1.50579e+06
1.49599e+06
1.48624e+06
1.47654e+06
1.46687e+06
1.45725e+06
1.44768e+06
1.43814e+06
1.42865e+06
1.4192e+06
1.40979e+06
1.40042e+06
1.39109e+06
1.3818e+06
1.37255e+06
1.36333e+06
1.35415e+06
1.345e+06
1.33588e+06
1.32679e+06
1.31774e+06
1.30873e+06
1.29975e+06
1.29081e+06
1.2819e+06
1.27303e+06
1.26419e+06
1.25539e+06
1.24662e+06
1.23789e+06
1.22918e+06
1.22051e+06
1.21187e+06
1.20326e+06
1.19469e+06
1.18614e+06
1.17762e+06
1.16914e+06
1.16068e+06
1.15226e+06
1.14386e+06
1.1355e+06
1.12717e+06
1.11887e+06
1.1106e+06
1.10237e+06
1.09417e+06
1.086e+06
1.07785e+06
1.06972e+06
1.06162e+06
1.05353e+06
1.04547e+06
1.03743e+06
1.02941e+06
1.02142e+06
1.01346e+06
1.00552e+06
997619
989744
981900
974086
966303
958551
950832
943146
935494
927877
920293
912744
905229
897747
890298
882880
875492
868134
860807
853510
846244
839008
831803
824628
817485
810376
803300
796258
789250
782275
775334
768426
761550
754707
747894
741113
734364
727645
720957
714300
707674
701080
694515
687982
681478
675003
668558
662143
655757
649400
643073
636775
630508
624270
618063
611888
605745
599633
593554
587506
581490
575504
569548
563623
557727
551861
546023
540214
534435
528686
522966
517276
511616
505985
500383
494811
489270
483756
478273
472817
467390
461988
456615
451262
445940
440633
435361
430098
424872
419650
414466
409281
404134
398983
393867
388748
383658
378560
373483
368392
363309
358201
353080
347917
342712
337431
332060
326546
320846
314851
308424
301254
292776
1.85149e+06
1.82938e+06
1.81054e+06
1.79401e+06
1.77906e+06
1.76516e+06
1.75199e+06
1.73938e+06
1.7272e+06
1.71537e+06
1.70383e+06
1.69251e+06
1.68139e+06
1.67042e+06
1.65958e+06
1.64886e+06
1.63823e+06
1.62768e+06
1.61721e+06
1.60681e+06
1.59649e+06
1.58622e+06
1.57602e+06
1.56587e+06
1.55577e+06
1.54573e+06
1.53573e+06
1.52578e+06
1.51588e+06
1.50602e+06
1.4962e+06
1.48643e+06
1.47671e+06
1.46703e+06
1.45739e+06
1.4478e+06
1.43825e+06
1.42875e+06
1.41929e+06
1.40988e+06
1.4005e+06
1.39117e+06
1.38187e+06
1.37262e+06
1.3634e+06
1.35421e+06
1.34506e+06
1.33594e+06
1.32685e+06
1.3178e+06
1.30878e+06
1.2998e+06
1.29085e+06
1.28194e+06
1.27307e+06
1.26423e+06
1.25543e+06
1.24666e+06
1.23793e+06
1.22922e+06
1.22055e+06
1.21191e+06
1.20331e+06
1.19473e+06
1.18618e+06
1.17766e+06
1.16918e+06
1.16072e+06
1.1523e+06
1.1439e+06
1.13554e+06
1.12721e+06
1.11891e+06
1.11064e+06
1.10241e+06
1.0942e+06
1.08603e+06
1.07788e+06
1.06975e+06
1.06164e+06
1.05355e+06
1.04549e+06
1.03744e+06
1.02942e+06
1.02142e+06
1.01346e+06
1.00552e+06
997615
989739
981894
974080
966296
958545
950826
943139
935487
927870
920286
912737
905222
897739
890290
882871
875482
868124
860797
853500
846234
838998
831792
824617
817474
810365
803289
796248
789240
782266
775326
768419
761544
754701
747889
741109
734359
727640
720952
714296
707669
701075
694510
687976
681471
674996
668550
662134
655747
649390
643062
636764
630495
624256
618048
611872
605727
599614
593533
587484
581466
575479
569522
563595
557697
551828
545988
540177
534394
528642
522918
517223
511558
505921
500314
494735
489187
483666
478175
472710
467274
461860
456477
451111
445777
440455
435166
429886
424639
419396
414187
408978
403800
398620
393468
388313
383178
378036
372907
367762
362615
357442
352242
346997
341694
336308
330812
325160
319298
313119
306491
299141
290656
1.85592e+06
1.83403e+06
1.81495e+06
1.79802e+06
1.78264e+06
1.76834e+06
1.75483e+06
1.74191e+06
1.72946e+06
1.71739e+06
1.70563e+06
1.69413e+06
1.68283e+06
1.67171e+06
1.66074e+06
1.64989e+06
1.63915e+06
1.62851e+06
1.61796e+06
1.60748e+06
1.59708e+06
1.58676e+06
1.5765e+06
1.5663e+06
1.55616e+06
1.54607e+06
1.53604e+06
1.52606e+06
1.51613e+06
1.50625e+06
1.49641e+06
1.48662e+06
1.47688e+06
1.46718e+06
1.45753e+06
1.44793e+06
1.43837e+06
1.42886e+06
1.41939e+06
1.40997e+06
1.40059e+06
1.39125e+06
1.38195e+06
1.37269e+06
1.36347e+06
1.35428e+06
1.34512e+06
1.336e+06
1.32691e+06
1.31785e+06
1.30883e+06
1.29984e+06
1.2909e+06
1.28198e+06
1.27311e+06
1.26427e+06
1.25547e+06
1.2467e+06
1.23796e+06
1.22926e+06
1.22059e+06
1.21195e+06
1.20335e+06
1.19477e+06
1.18622e+06
1.1777e+06
1.16921e+06
1.16076e+06
1.15233e+06
1.14394e+06
1.13557e+06
1.12724e+06
1.11893e+06
1.11067e+06
1.10243e+06
1.09423e+06
1.08605e+06
1.0779e+06
1.06977e+06
1.06166e+06
1.05356e+06
1.04549e+06
1.03744e+06
1.02942e+06
1.02142e+06
1.01345e+06
1.00551e+06
997604
989727
981881
974066
966283
958531
950812
943126
935474
927857
920273
912724
905208
897726
890276
882857
875468
868110
860782
853486
846220
838983
831777
824602
817459
810350
803274
796233
789226
782254
775314
768408
761534
754692
747881
741101
734351
727633
720945
714288
707661
701067
694501
687967
681460
674985
668538
662122
655734
649377
643048
636749
630479
624240
618031
611853
605707
599592
593510
587460
581441
575452
569493
563564
557665
551794
545951
540137
534352
528596
522869
517169
511499
505857
500244
494659
489103
483575
478076
472602
467156
461732
456338
450959
445611
440275
434970
429672
424406
419141
413908
408675
403467
398259
393070
387880
382702
377517
372336
367139
361930
356693
351418
346095
340698
335214
329603
323825
317821
311487
304710
297263
288857
1.85983e+06
1.83822e+06
1.81903e+06
1.80179e+06
1.78606e+06
1.77141e+06
1.75758e+06
1.74437e+06
1.73167e+06
1.71937e+06
1.7074e+06
1.69571e+06
1.68425e+06
1.67298e+06
1.66188e+06
1.65091e+06
1.64007e+06
1.62933e+06
1.61869e+06
1.60814e+06
1.59768e+06
1.58729e+06
1.57697e+06
1.56672e+06
1.55654e+06
1.54642e+06
1.53635e+06
1.52634e+06
1.51638e+06
1.50647e+06
1.49662e+06
1.48681e+06
1.47705e+06
1.46734e+06
1.45767e+06
1.44806e+06
1.43849e+06
1.42897e+06
1.4195e+06
1.41007e+06
1.40068e+06
1.39134e+06
1.38204e+06
1.37277e+06
1.36355e+06
1.35435e+06
1.34519e+06
1.33606e+06
1.32697e+06
1.31791e+06
1.30888e+06
1.29989e+06
1.29094e+06
1.28202e+06
1.27315e+06
1.26431e+06
1.2555e+06
1.24673e+06
1.238e+06
1.2293e+06
1.22063e+06
1.21199e+06
1.20338e+06
1.1948e+06
1.18625e+06
1.17773e+06
1.16924e+06
1.16079e+06
1.15236e+06
1.14396e+06
1.13559e+06
1.12726e+06
1.11896e+06
1.11069e+06
1.10245e+06
1.09425e+06
1.08607e+06
1.07791e+06
1.06978e+06
1.06166e+06
1.05356e+06
1.04549e+06
1.03743e+06
1.02941e+06
1.02141e+06
1.01344e+06
1.0055e+06
997586
989707
981860
974045
966262
958511
950793
943106
935455
927837
920254
912705
905190
897707
890257
882837
875448
868090
860763
853467
846201
838964
831758
824583
817440
810331
803256
796215
789209
782237
775298
768393
761520
754679
747869
741089
734340
727622
720934
714277
707650
701055
694489
687954
681447
674971
668523
662106
655718
649361
643031
636732
630461
624221
618011
611832
605684
599569
593485
587434
581413
575423
569463
563532
557631
551757
545913
540096
534308
528549
522817
517114
511439
505791
500173
494581
489019
483483
477976
472493
467039
461604
456198
450807
445446
440095
434773
429459
424172
418888
413629
408373
403136
397899
392676
387450
382230
377004
371772
366525
361256
355956
350609
345210
339727
334150
328432
322540
316415
309955
303068
295585
287292
1.86332e+06
1.84201e+06
1.82278e+06
1.80533e+06
1.78931e+06
1.77436e+06
1.76024e+06
1.74677e+06
1.73382e+06
1.7213e+06
1.70914e+06
1.69727e+06
1.68565e+06
1.67424e+06
1.663e+06
1.65192e+06
1.64097e+06
1.63014e+06
1.61942e+06
1.60879e+06
1.59826e+06
1.58781e+06
1.57744e+06
1.56715e+06
1.55692e+06
1.54676e+06
1.53666e+06
1.52662e+06
1.51663e+06
1.5067e+06
1.49682e+06
1.487e+06
1.47722e+06
1.4675e+06
1.45782e+06
1.44819e+06
1.43862e+06
1.42909e+06
1.41961e+06
1.41017e+06
1.40078e+06
1.39143e+06
1.38213e+06
1.37286e+06
1.36363e+06
1.35443e+06
1.34526e+06
1.33613e+06
1.32703e+06
1.31796e+06
1.30893e+06
1.29994e+06
1.29098e+06
1.28206e+06
1.27318e+06
1.26434e+06
1.25553e+06
1.24676e+06
1.23803e+06
1.22933e+06
1.22066e+06
1.21202e+06
1.20341e+06
1.19483e+06
1.18628e+06
1.17776e+06
1.16927e+06
1.16081e+06
1.15238e+06
1.14398e+06
1.13561e+06
1.12727e+06
1.11897e+06
1.1107e+06
1.10246e+06
1.09425e+06
1.08607e+06
1.07791e+06
1.06978e+06
1.06166e+06
1.05356e+06
1.04548e+06
1.03742e+06
1.02939e+06
1.02138e+06
1.01341e+06
1.00547e+06
997560
989680
981833
974018
966235
958484
950766
943081
935430
927812
920229
912681
905166
897683
890232
882812
875423
868066
860740
853444
846178
838942
831735
824560
817417
810308
803233
796193
789188
782216
775278
768374
761502
754662
747852
741073
734325
727607
720919
714263
707635
701040
694473
687937
681430
674954
668505
662088
655699
649341
643011
636711
630440
624200
617988
611809
605659
599543
593459
587406
581384
575393
569431
563498
557594
551719
545872
540053
534262
528499
522764
517056
511377
505724
500101
494503
488935
483392
477877
472385
466921
461475
456058
450655
445279
439915
434577
429246
423939
418635
413352
408073
402806
397542
392284
387024
381764
376496
371217
365921
360593
355234
349818
344347
338782
333118
327303
321311
315080
308522
301557
294077
285901
1.86648e+06
1.84545e+06
1.82625e+06
1.80865e+06
1.79239e+06
1.77718e+06
1.7628e+06
1.74909e+06
1.73592e+06
1.72319e+06
1.71084e+06
1.6988e+06
1.68702e+06
1.67547e+06
1.66411e+06
1.65291e+06
1.64186e+06
1.63094e+06
1.62014e+06
1.60944e+06
1.59884e+06
1.58834e+06
1.57791e+06
1.56757e+06
1.5573e+06
1.5471e+06
1.53697e+06
1.52689e+06
1.51688e+06
1.50693e+06
1.49703e+06
1.48718e+06
1.47739e+06
1.46765e+06
1.45797e+06
1.44833e+06
1.43874e+06
1.42921e+06
1.41972e+06
1.41028e+06
1.40089e+06
1.39153e+06
1.38222e+06
1.37295e+06
1.36371e+06
1.3545e+06
1.34533e+06
1.33619e+06
1.32709e+06
1.31801e+06
1.30898e+06
1.29998e+06
1.29102e+06
1.2821e+06
1.27322e+06
1.26437e+06
1.25556e+06
1.24679e+06
1.23805e+06
1.22935e+06
1.22068e+06
1.21204e+06
1.20343e+06
1.19485e+06
1.1863e+06
1.17777e+06
1.16928e+06
1.16082e+06
1.15239e+06
1.14399e+06
1.13562e+06
1.12728e+06
1.11897e+06
1.1107e+06
1.10246e+06
1.09425e+06
1.08607e+06
1.07791e+06
1.06977e+06
1.06165e+06
1.05354e+06
1.04545e+06
1.03739e+06
1.02936e+06
1.02135e+06
1.01338e+06
1.00544e+06
997527
989647
981800
973984
966202
958451
950734
943049
935399
927782
920199
912651
905137
897655
890204
882784
875395
868038
860713
853418
846152
838915
831708
824533
817390
810282
803207
796168
789163
782192
775255
768351
761480
754640
747832
741054
734305
727588
720900
714244
707616
701020
694453
687917
681409
674933
668484
662067
655677
649318
642988
636688
630416
624176
617963
611783
605633
599516
593430
587377
581354
575361
569397
563462
557556
551678
545828
540007
534214
528448
522709
516997
511313
505656
500027
494424
488850
483300
477777
472277
466803
461347
455918
450503
445114
439736
434381
429033
423706
418384
413076
407775
402480
397188
391897
386604
381304
375997
370670
365326
359944
354527
349046
343506
337864
332119
326218
320137
313816
307186
300166
292702
284641
1.86936e+06
1.84861e+06
1.82946e+06
1.81176e+06
1.79531e+06
1.77988e+06
1.76527e+06
1.75134e+06
1.73795e+06
1.72503e+06
1.7125e+06
1.7003e+06
1.68837e+06
1.67668e+06
1.6652e+06
1.65389e+06
1.64274e+06
1.63173e+06
1.62085e+06
1.61008e+06
1.59942e+06
1.58885e+06
1.57838e+06
1.56799e+06
1.55768e+06
1.54744e+06
1.53727e+06
1.52717e+06
1.51713e+06
1.50715e+06
1.49723e+06
1.48737e+06
1.47757e+06
1.46782e+06
1.45812e+06
1.44847e+06
1.43888e+06
1.42933e+06
1.41984e+06
1.41039e+06
1.40099e+06
1.39164e+06
1.38232e+06
1.37304e+06
1.36379e+06
1.35458e+06
1.3454e+06
1.33626e+06
1.32714e+06
1.31807e+06
1.30903e+06
1.30002e+06
1.29106e+06
1.28214e+06
1.27325e+06
1.2644e+06
1.25559e+06
1.24682e+06
1.23808e+06
1.22937e+06
1.2207e+06
1.21206e+06
1.20345e+06
1.19486e+06
1.18631e+06
1.17779e+06
1.16929e+06
1.16083e+06
1.1524e+06
1.14399e+06
1.13562e+06
1.12728e+06
1.11897e+06
1.1107e+06
1.10246e+06
1.09424e+06
1.08606e+06
1.0779e+06
1.06975e+06
1.06163e+06
1.05352e+06
1.04543e+06
1.03736e+06
1.02932e+06
1.02132e+06
1.01334e+06
1.0054e+06
997489
989609
981761
973945
966163
958412
950696
943012
935362
927746
920164
912617
905104
897623
890172
882752
875363
868007
860682
853387
846122
838885
831678
824503
817360
810252
803178
796139
789134
782164
775228
768325
761454
754615
747807
741030
734282
727565
720877
714221
707593
700997
694429
687893
681385
674909
668460
662042
655652
649293
642963
636662
630390
624149
617937
611756
605605
599487
593401
587346
581322
575327
569362
563425
557516
551636
545783
539959
534163
528394
522651
516936
511247
505586
499952
494345
488764
483208
477677
472169
466684
461219
455778
450352
444949
439558
434186
428822
423475
418134
412803
407479
402156
396838
391514
386189
380851
375506
370134
364744
359308
353836
348294
342689
336976
331156
325178
319020
312622
305941
298883
291439
283484
1.87202e+06
1.85151e+06
1.83243e+06
1.81466e+06
1.79807e+06
1.78245e+06
1.76764e+06
1.7535e+06
1.73993e+06
1.72682e+06
1.71412e+06
1.70176e+06
1.68969e+06
1.67787e+06
1.66627e+06
1.65486e+06
1.64361e+06
1.63252e+06
1.62155e+06
1.61072e+06
1.59999e+06
1.58937e+06
1.57884e+06
1.5684e+06
1.55805e+06
1.54778e+06
1.53758e+06
1.52744e+06
1.51738e+06
1.50738e+06
1.49744e+06
1.48756e+06
1.47774e+06
1.46798e+06
1.45827e+06
1.44861e+06
1.43901e+06
1.42946e+06
1.41996e+06
1.41051e+06
1.4011e+06
1.39174e+06
1.38241e+06
1.37313e+06
1.36388e+06
1.35466e+06
1.34547e+06
1.33632e+06
1.3272e+06
1.31812e+06
1.30907e+06
1.30006e+06
1.2911e+06
1.28217e+06
1.27328e+06
1.26443e+06
1.25561e+06
1.24684e+06
1.2381e+06
1.22939e+06
1.22072e+06
1.21207e+06
1.20346e+06
1.19487e+06
1.18632e+06
1.17779e+06
1.1693e+06
1.16083e+06
1.15239e+06
1.14399e+06
1.13561e+06
1.12727e+06
1.11896e+06
1.11068e+06
1.10244e+06
1.09423e+06
1.08604e+06
1.07788e+06
1.06973e+06
1.0616e+06
1.05348e+06
1.04539e+06
1.03732e+06
1.02928e+06
1.02127e+06
1.0133e+06
1.00536e+06
997445
989566
981717
973902
966119
958369
950653
942970
935321
927705
920124
912580
905068
897588
890137
882717
875328
867972
860647
853354
846088
838852
831645
824470
817327
810220
803146
796108
789104
782134
775198
768295
761424
754586
747779
741002
734255
727538
720850
714194
707566
700970
694403
687867
681359
674882