/*--------------------------------*- C++ -*----------------------------------*\
| =========                 |                                                 |
| \\      /  F ield         | OpenFOAM: The Open Source CFD Toolbox           |
|  \\    /   O peration     | Version:  2.4.0                                 |
|   \\  /    A nd           | Web:      www.OpenFOAM.org                      |
|    \\/     M anipulation  |                                                 |
\*---------------------------------------------------------------------------*/
FoamFile
{
    version     2.0;
    format      ascii;
    class       volVectorField;
    location    "0.067";
    object      U;
}
// * * * * * * * * * * * * * * * * * * * * * * * * * * * * * * * * * * * * * //

dimensions      [0 1 -1 0 0 0 0];

internalField   nonuniform List<vector> 
17600
(
(5.32801 0.309445 0)
(2.98387 0.060637 0)
(2.19691 -0.00164037 0)
(1.84851 -0.00350105 0)
(1.70691 -0.00130324 0)
(1.60972 -0.000135466 0)
(1.54224 -4.53715e-05 0)
(1.47382 0.000118185 0)
(1.44218 -0.00026816 0)
(1.39435 -5.26973e-05 0)
(1.38318 -5.92581e-05 0)
(1.34028 0.000378539 0)
(1.34589 -0.000853269 0)
(1.29755 0.00141611 0)
(1.30247 -0.000336213 0)
(1.2789 -0.000805197 0)
(1.25817 0.00229156 0)
(1.24068 0.000341153 0)
(1.23011 -0.0016671 0)
(1.04865 -0.00877943 0)
(8.59957 0.872087 0)
(6.94524 0.383482 0)
(5.81337 0.121404 0)
(5.05624 0.0511214 0)
(4.65476 0.0282656 0)
(4.37398 0.0204685 0)
(4.1906 0.0163221 0)
(4.00132 0.0126801 0)
(3.9159 0.00918686 0)
(3.77484 0.00751318 0)
(3.74377 0.00617925 0)
(3.62491 0.00607419 0)
(3.63667 0.00236301 0)
(3.50321 0.00864877 0)
(3.53673 0.001021 0)
(3.44791 0.00293255 0)
(3.4114 0.00823824 0)
(3.39976 0.00457036 0)
(3.33876 0.000748862 0)
(3.14166 0.0159281 0)
(9.85889 1.02246 0)
(9.33776 0.577305 0)
(8.47853 0.240656 0)
(7.63992 0.130476 0)
(7.09811 0.0818005 0)
(6.68703 0.0573752 0)
(6.42552 0.0450991 0)
(6.13986 0.0344901 0)
(6.01843 0.0265273 0)
(5.79719 0.0213775 0)
(5.75268 0.0175934 0)
(5.56797 0.0157795 0)
(5.58717 0.00952913 0)
(5.37867 0.0191672 0)
(5.44447 0.00379349 0)
(5.29255 0.0109786 0)
(5.25445 0.0148046 0)
(5.23332 0.0090034 0)
(5.15355 0.00434223 0)
(5.03806 0.058132 0)
(10.1645 0.948499 0)
(10.5584 0.668584 0)
(10.2641 0.329458 0)
(9.63847 0.21055 0)
(9.13245 0.147754 0)
(8.67332 0.10624 0)
(8.39259 0.0841216 0)
(8.03707 0.0640784 0)
(7.90535 0.0504908 0)
(7.62011 0.0408731 0)
(7.57033 0.0336283 0)
(7.33142 0.0289812 0)
(7.3628 0.0206154 0)
(7.08489 0.0324557 0)
(7.18789 0.00844929 0)
(6.97525 0.0226072 0)
(6.94894 0.0228737 0)
(6.90484 0.0164174 0)
(6.78568 -0.00352251 0)
(6.84127 0.135722 0)
(10.082 0.806698 0)
(10.9077 0.669943 0)
(11.1376 0.355765 0)
(10.8847 0.256579 0)
(10.6032 0.20358 0)
(10.2137 0.155087 0)
(10.0021 0.126647 0)
(9.62633 0.0975335 0)
(9.52193 0.0780523 0)
(9.20401 0.064135 0)
(9.16303 0.0528429 0)
(8.88805 0.0443311 0)
(8.94439 0.0348393 0)
(8.60335 0.0476499 0)
(8.75232 0.0141416 0)
(8.48609 0.0367648 0)
(8.47788 0.0314065 0)
(8.42402 0.0304863 0)
(8.25155 -0.0181312 0)
(8.27263 0.162425 0)
(10.0002 0.692344 0)
(10.8408 0.636664 0)
(11.3171 0.332904 0)
(11.3493 0.251821 0)
(11.3671 0.225108 0)
(11.1481 0.185366 0)
(11.1092 0.160004 0)
(10.7942 0.127558 0)
(10.7666 0.103857 0)
(10.4705 0.0878695 0)
(10.4611 0.0731245 0)
(10.1776 0.059667 0)
(10.2798 0.0508941 0)
(9.88982 0.0638518 0)
(10.0905 0.0194919 0)
(9.7958 0.0529534 0)
(9.79662 0.0386184 0)
(9.75328 0.0478242 0)
(9.59755 -0.0159262 0)
(9.3349 0.145825 0)
(9.98927 0.602882 0)
(10.7092 0.603161 0)
(11.2464 0.304255 0)
(11.3438 0.219877 0)
(11.5508 0.212309 0)
(11.4552 0.18648 0)
(11.6149 0.170744 0)
(11.4223 0.142127 0)
(11.5147 0.117783 0)
(11.3124 0.104571 0)
(11.3681 0.0897009 0)
(11.1182 0.0710639 0)
(11.2935 0.0658152 0)
(10.8898 0.0799075 0)
(11.1353 0.0221703 0)
(10.8621 0.0704593 0)
(10.857 0.0443596 0)
(10.8312 0.0609806 0)
(10.7727 0.00185888 0)
(10.2579 0.158571 0)
(10.0085 0.523777 0)
(10.5942 0.565397 0)
(11.1655 0.288302 0)
(11.235 0.191057 0)
(11.515 0.190519 0)
(11.4308 0.172979 0)
(11.6785 0.163342 0)
(11.5872 0.140888 0)
(11.7433 0.115018 0)
(11.68 0.106797 0)
(11.7968 0.0965003 0)
(11.6262 0.0719361 0)
(11.8896 0.0738782 0)
(11.5349 0.0925564 0)
(11.8003 0.0182758 0)
(11.6223 0.0857227 0)
(11.6048 0.0492767 0)
(11.6041 0.0650275 0)
(11.652 0.0195264 0)
(11.1154 0.211259 0)
(10.0342 0.454388 0)
(10.5007 0.518451 0)
(11.087 0.276399 0)
(11.1583 0.167022 0)
(11.4449 0.168533 0)
(11.3785 0.159721 0)
(11.5901 0.149075 0)
(11.5835 0.134706 0)
(11.6782 0.102845 0)
(11.7536 0.0989187 0)
(11.832 0.0944525 0)
(11.7753 0.0625206 0)
(12.0542 0.0705486 0)
(11.8086 0.099701 0)
(12.0461 0.00533398 0)
(12.0093 0.0919051 0)
(11.9866 0.055153 0)
(12.0281 0.0558028 0)
(12.1308 0.0248557 0)
(11.8143 0.244363 0)
(10.0381 0.391862 0)
(10.4487 0.469532 0)
(10.986 0.264513 0)
(11.1244 0.14518 0)
(11.3596 0.1458 0)
(11.3521 0.147653 0)
(11.5066 0.13385 0)
(11.5543 0.13017 0)
(11.5781 0.0891659 0)
(11.7546 0.0878432 0)
(11.7041 0.0906998 0)
(11.8204 0.0472364 0)
(11.9642 0.064503 0)
(11.8553 0.100218 0)
(12.0495 -0.0117689 0)
(12.0737 0.0889954 0)
(12.0586 0.0572825 0)
(12.1536 0.0380411 0)
(12.251 0.0167218 0)
(12.1393 0.216377 0)
(10.0179 0.335041 0)
(10.4267 0.421533 0)
(10.8826 0.252423 0)
(11.1011 0.124347 0)
(11.2829 0.125379 0)
(11.3113 0.134351 0)
(11.4734 0.118693 0)
(11.4638 0.125989 0)
(11.5816 0.0736946 0)
(11.673 0.0835327 0)
(11.6225 0.0830821 0)
(11.8589 0.0330679 0)
(11.7884 0.0616919 0)
(11.8767 0.0936296 0)
(12.0089 -0.0245232 0)
(11.9777 0.0849981 0)
(12.0391 0.0536563 0)
(12.1416 0.0199133 0)
(12.1909 -0.00380749 0)
(12.1303 0.180881 0)
(9.99945 0.283621 0)
(10.4045 0.37438 0)
(10.7973 0.239978 0)
(11.0769 0.104823 0)
(11.2054 0.106821 0)
(11.2876 0.116965 0)
(11.4225 0.108276 0)
(11.3838 0.117386 0)
(11.6112 0.0594375 0)
(11.5232 0.0830822 0)
(11.6645 0.0657135 0)
(11.7932 0.0309011 0)
(11.6727 0.0584368 0)
(11.9058 0.0777728 0)
(11.9448 -0.0249908 0)
(11.8712 0.0764464 0)
(12.0231 0.047467 0)
(12.1282 0.00291644 0)
(12.0912 -0.0208171 0)
(11.9724 0.134279 0)
(9.99503 0.238649 0)
(10.3716 0.327139 0)
(10.7349 0.22329 0)
(11.0445 0.0881519 0)
(11.1339 0.0901179 0)
(11.2949 0.098975 0)
(11.3155 0.0997906 0)
(11.3971 0.0998471 0)
(11.5349 0.0544322 0)
(11.4604 0.0749542 0)
(11.6985 0.0514301 0)
(11.6551 0.0324037 0)
(11.6759 0.0483169 0)
(11.886 0.0610236 0)
(11.856 -0.018001 0)
(11.8319 0.0638402 0)
(12.006 0.0299943 0)
(12.1036 -0.00511606 0)
(12.0006 -0.0206927 0)
(11.8656 0.0794294 0)
(10.0005 0.197606 0)
(10.33 0.282356 0)
(10.6978 0.198824 0)
(10.9907 0.0777733 0)
(11.1062 0.0713002 0)
(11.2713 0.0865868 0)
(11.2364 0.0869701 0)
(11.4306 0.0860892 0)
(11.3985 0.050014 0)
(11.5153 0.059966 0)
(11.621 0.0441059 0)
(11.5831 0.0333575 0)
(11.7144 0.0316696 0)
(11.8101 0.0546541 0)
(11.7916 -0.0155208 0)
(11.8457 0.0449877 0)
(11.9752 0.0189018 0)
(12.0274 -0.0124526 0)
(11.9814 -0.0256869 0)
(11.8605 0.0406286 0)
(10.0055 0.161112 0)
(10.2929 0.238098 0)
(10.6725 0.169871 0)
(10.9311 0.0671697 0)
(11.1167 0.0563782 0)
(11.1954 0.0762018 0)
(11.252 0.0701258 0)
(11.374 0.0750442 0)
(11.3486 0.0425137 0)
(11.5541 0.0449092 0)
(11.5 0.0462513 0)
(11.6067 0.0213263 0)
(11.7039 0.0209481 0)
(11.7272 0.0515799 0)
(11.7761 -0.0201399 0)
(11.8542 0.0293751 0)
(11.9346 0.0119501 0)
(11.9341 -0.0209283 0)
(12.0004 -0.0355249 0)
(11.9121 0.00961258 0)
(10.0037 0.128305 0)
(10.2737 0.193227 0)
(10.6383 0.140362 0)
(10.9002 0.0555249 0)
(11.106 0.0443227 0)
(11.1395 0.0626567 0)
(11.291 0.0542686 0)
(11.2619 0.0673627 0)
(11.409 0.0279662 0)
(11.4797 0.0374777 0)
(11.4564 0.0430403 0)
(11.6428 0.00672669 0)
(11.6422 0.0194427 0)
(11.6738 0.0445301 0)
(11.7965 -0.0294544 0)
(11.8299 0.0167494 0)
(11.8555 0.00981801 0)
(11.927 -0.0337618 0)
(11.9947 -0.0529743 0)
(11.9235 -0.0226714 0)
(9.9996 0.0981151 0)
(10.2655 0.148918 0)
(10.6008 0.109672 0)
(10.8964 0.0432727 0)
(11.0573 0.0348021 0)
(11.1574 0.0464236 0)
(11.25 0.0433709 0)
(11.229 0.0528705 0)
(11.4466 0.0150891 0)
(11.3688 0.0362984 0)
(11.5006 0.0311426 0)
(11.6226 -0.00214886 0)
(11.5726 0.0192663 0)
(11.6797 0.0311141 0)
(11.8012 -0.037646 0)
(11.7663 0.0128678 0)
(11.8141 -0.000185208 0)
(11.9583 -0.0495203 0)
(11.9434 -0.0679801 0)
(11.9092 -0.0461947 0)
(9.99963 0.0697453 0)
(10.2535 0.105068 0)
(10.5827 0.0784175 0)
(10.8806 0.0326777 0)
(11.0281 0.0228289 0)
(11.1847 0.0320811 0)
(11.1686 0.0334512 0)
(11.2939 0.0338555 0)
(11.3758 0.011279 0)
(11.3481 0.0275046 0)
(11.54 0.0174887 0)
(11.5582 -0.00298746 0)
(11.5517 0.0147309 0)
(11.713 0.0140451 0)
(11.7589 -0.0379731 0)
(11.7121 0.00562934 0)
(11.8533 -0.0139151 0)
(11.9251 -0.0628275 0)
(11.9039 -0.0778857 0)
(11.9176 -0.0814782 0)
(10.0013 0.0431428 0)
(10.2423 0.0610096 0)
(10.5791 0.0475649 0)
(10.8482 0.0206082 0)
(11.0496 0.0102596 0)
(11.1469 0.0231049 0)
(11.1643 0.0175716 0)
(11.3247 0.0174296 0)
(11.288 0.00926056 0)
(11.4098 0.012234 0)
(11.513 0.0113366 0)
(11.5091 -0.00426843 0)
(11.5894 0.00187065 0)
(11.7072 0.00367085 0)
(11.7029 -0.0368165 0)
(11.7292 -0.00735969 0)
(11.867 -0.028052 0)
(11.8749 -0.0683536 0)
(11.9081 -0.095686 0)
(11.9259 -0.115246 0)
(9.99961 0.017279 0)
(10.2438 0.0168061 0)
(10.5662 0.0182356 0)
(10.8418 0.00545553 0)
(11.065 0.00122763 0)
(11.0935 0.012272 0)
(11.2294 -0.00102194 0)
(11.2631 0.00828528 0)
(11.2931 0.00168497 0)
(11.445 -0.0035421 0)
(11.4549 0.0108962 0)
(11.5182 -0.0125048 0)
(11.6238 -0.00926235 0)
(11.658 -0.000407001 0)
(11.6942 -0.0418333 0)
(11.7687 -0.0210809 0)
(11.8221 -0.0374495 0)
(11.8754 -0.0771616 0)
(11.9171 -0.114364 0)
(11.9049 -0.131957 0)
(9.99825 -0.00865394 0)
(10.2489 -0.0262144 0)
(10.5519 -0.0120114 0)
(10.8677 -0.0110882 0)
(11.0346 -0.00448321 0)
(11.1106 -0.00260128 0)
(11.2466 -0.0157708 0)
(11.2105 -0.000641121 0)
(11.3522 -0.0128086 0)
(11.4179 -0.0104804 0)
(11.4313 0.00774589 0)
(11.5607 -0.0245521 0)
(11.6086 -0.0155074 0)
(11.6283 -0.00489603 0)
(11.7282 -0.0522179 0)
(11.7595 -0.029037 0)
(11.8039 -0.0473296 0)
(11.8855 -0.0874306 0)
(11.9105 -0.131762 0)
(11.8903 -0.137746 0)
(10.0002 -0.0349109 0)
(10.2454 -0.0688679 0)
(10.566 -0.0439958 0)
(10.8779 -0.0243587 0)
(11.0137 -0.012175 0)
(11.1619 -0.0194742 0)
(11.1998 -0.0253859 0)
(11.242 -0.0158499 0)
(11.3714 -0.0226991 0)
(11.3847 -0.0164686 0)
(11.4584 -0.000536759 0)
(11.5805 -0.0352918 0)
(11.5781 -0.0158103 0)
(11.649 -0.0181989 0)
(11.7436 -0.0563742 0)
(11.7423 -0.0393775 0)
(11.8174 -0.0542197 0)
(11.8787 -0.103204 0)
(11.9214 -0.142831 0)
(11.8762 -0.146528 0)
(9.99897 -0.0615769 0)
(10.2489 -0.112697 0)
(10.5974 -0.0755127 0)
(10.8625 -0.0356132 0)
(11.0482 -0.0240912 0)
(11.1638 -0.0318601 0)
(11.1851 -0.0370311 0)
(11.2958 -0.0332647 0)
(11.3499 -0.0288016 0)
(11.3919 -0.0246961 0)
(11.4978 -0.0106684 0)
(11.5666 -0.0395693 0)
(11.5824 -0.0223444 0)
(11.6815 -0.0284856 0)
(11.7371 -0.0608259 0)
(11.7532 -0.0489707 0)
(11.8214 -0.0627576 0)
(11.8933 -0.117959 0)
(11.9323 -0.152807 0)
(11.8394 -0.157843 0)
(9.99356 -0.0895059 0)
(10.271 -0.158214 0)
(10.612 -0.104562 0)
(10.8715 -0.0478884 0)
(11.0882 -0.0358425 0)
(11.1389 -0.0429188 0)
(11.2299 -0.0532563 0)
(11.3076 -0.0466003 0)
(11.3435 -0.0344543 0)
(11.4289 -0.0361546 0)
(11.513 -0.0189816 0)
(11.5589 -0.0429048 0)
(11.6172 -0.0323257 0)
(11.6939 -0.0346853 0)
(11.7446 -0.068849 0)
(11.7647 -0.0536513 0)
(11.8398 -0.0783481 0)
(11.9161 -0.126952 0)
(11.9151 -0.163103 0)
(11.8403 -0.17179 0)
(9.99379 -0.120371 0)
(10.2916 -0.202457 0)
(10.6224 -0.133806 0)
(10.916 -0.0610564 0)
(11.0913 -0.0458782 0)
(11.1559 -0.0570666 0)
(11.27 -0.0682136 0)
(11.3019 -0.0581544 0)
(11.3725 -0.0423801 0)
(11.4626 -0.0492366 0)
(11.5136 -0.0217532 0)
(11.5819 -0.0525362 0)
(11.648 -0.0375775 0)
(11.7036 -0.0463214 0)
(11.7606 -0.0692727 0)
(11.7853 -0.0667697 0)
(11.873 -0.0886876 0)
(11.9159 -0.135647 0)
(11.9146 -0.173922 0)
(11.9017 -0.198721 0)
(9.99838 -0.153925 0)
(10.3018 -0.245804 0)
(10.6617 -0.164948 0)
(10.9529 -0.0721156 0)
(11.095 -0.0567451 0)
(11.2033 -0.0732785 0)
(11.2798 -0.0808553 0)
(11.3208 -0.069711 0)
(11.4166 -0.0528119 0)
(11.4785 -0.0578847 0)
(11.5312 -0.0280939 0)
(11.6207 -0.0611702 0)
(11.6675 -0.0439885 0)
(11.7214 -0.053595 0)
(11.786 -0.0740015 0)
(11.8223 -0.0791846 0)
(11.8882 -0.095125 0)
(11.9267 -0.146628 0)
(11.9491 -0.189485 0)
(11.956 -0.220956 0)
(9.99747 -0.190389 0)
(10.3247 -0.290309 0)
(10.7165 -0.194532 0)
(10.9734 -0.0817561 0)
(11.1302 -0.0709309 0)
(11.2368 -0.0881398 0)
(11.2923 -0.0917015 0)
(11.3669 -0.0835321 0)
(11.45 -0.0615941 0)
(11.4956 -0.0657115 0)
(11.5728 -0.0371856 0)
(11.6568 -0.0674133 0)
(11.685 -0.0501879 0)
(11.7534 -0.0611662 0)
(11.8239 -0.0814504 0)
(11.8509 -0.0863635 0)
(11.9089 -0.104107 0)
(11.9618 -0.158993 0)
(11.9853 -0.203491 0)
(11.9736 -0.238573 0)
(9.99852 -0.23091 0)
(10.3629 -0.336535 0)
(10.7632 -0.21782 0)
(11.007 -0.0936955 0)
(11.178 -0.0875876 0)
(11.2559 -0.101437 0)
(11.3341 -0.104801 0)
(11.4156 -0.0964558 0)
(11.4762 -0.0685634 0)
(11.5324 -0.0755892 0)
(11.6217 -0.046268 0)
(11.6843 -0.07341 0)
(11.7186 -0.055502 0)
(11.7973 -0.0716979 0)
(11.8562 -0.084432 0)
(11.8845 -0.0971472 0)
(11.949 -0.110031 0)
(11.9937 -0.173151 0)
(12.0249 -0.213833 0)
(11.9795 -0.258692 0)
(10.0164 -0.276529 0)
(10.3919 -0.383722 0)
(10.819 -0.233989 0)
(11.0528 -0.110094 0)
(11.2249 -0.105722 0)
(11.2821 -0.116113 0)
(11.3968 -0.118848 0)
(11.447 -0.106798 0)
(11.5206 -0.0763787 0)
(11.5754 -0.0869458 0)
(11.6664 -0.0542081 0)
(11.7116 -0.0798647 0)
(11.7757 -0.0612633 0)
(11.8325 -0.0821465 0)
(11.8952 -0.0865917 0)
(11.931 -0.109202 0)
(11.9874 -0.11342 0)
(12.0311 -0.189463 0)
(12.0678 -0.218422 0)
(12.0017 -0.287204 0)
(10.0465 -0.328387 0)
(10.4074 -0.430436 0)
(10.9063 -0.246869 0)
(11.0839 -0.128843 0)
(11.2901 -0.125124 0)
(11.3129 -0.131228 0)
(11.4637 -0.132116 0)
(11.467 -0.11512 0)
(11.5906 -0.0864115 0)
(11.6023 -0.0950382 0)
(11.7243 -0.0640604 0)
(11.7413 -0.0848685 0)
(11.8472 -0.0703457 0)
(11.8596 -0.0877094 0)
(11.9609 -0.0937342 0)
(11.9668 -0.115518 0)
(12.0365 -0.121597 0)
(12.0694 -0.198385 0)
(12.1021 -0.228815 0)
(12.0409 -0.315674 0)
(10.0661 -0.386409 0)
(10.4336 -0.477323 0)
(11.0091 -0.259568 0)
(11.1061 -0.148447 0)
(11.3777 -0.146774 0)
(11.3313 -0.144851 0)
(11.5407 -0.144216 0)
(11.485 -0.123307 0)
(11.6743 -0.0965411 0)
(11.6227 -0.102903 0)
(11.8113 -0.0749287 0)
(11.7673 -0.0908915 0)
(11.931 -0.0787337 0)
(11.8829 -0.0946413 0)
(12.0343 -0.099728 0)
(11.9725 -0.121851 0)
(12.0854 -0.12709 0)
(12.0423 -0.206785 0)
(12.0808 -0.233819 0)
(11.9579 -0.342061 0)
(10.0574 -0.449946 0)
(10.4931 -0.525115 0)
(11.0979 -0.272147 0)
(11.1557 -0.169999 0)
(11.4519 -0.168908 0)
(11.3634 -0.157988 0)
(11.6208 -0.156275 0)
(11.5221 -0.131896 0)
(11.7583 -0.108023 0)
(11.659 -0.110978 0)
(11.8868 -0.0869083 0)
(11.7778 -0.0960599 0)
(11.9705 -0.0874067 0)
(11.8499 -0.0997528 0)
(12.0132 -0.104126 0)
(11.8642 -0.124644 0)
(11.9834 -0.128536 0)
(11.8176 -0.20817 0)
(11.8303 -0.227317 0)
(11.5674 -0.351491 0)
(10.0297 -0.52071 0)
(10.5857 -0.569825 0)
(11.1733 -0.285405 0)
(11.2401 -0.193527 0)
(11.51 -0.190469 0)
(11.4335 -0.172719 0)
(11.684 -0.167481 0)
(11.5616 -0.140771 0)
(11.7808 -0.118526 0)
(11.627 -0.116882 0)
(11.8162 -0.0948 0)
(11.6336 -0.0973521 0)
(11.7844 -0.0907496 0)
(11.5814 -0.0983055 0)
(11.6958 -0.102309 0)
(11.4591 -0.118275 0)
(11.5372 -0.12382 0)
(11.2599 -0.193095 0)
(11.2189 -0.212231 0)
(10.8423 -0.330835 0)
(10.006 -0.600796 0)
(10.7001 -0.605516 0)
(11.2574 -0.303209 0)
(11.3453 -0.221164 0)
(11.5456 -0.212545 0)
(11.463 -0.186544 0)
(11.6085 -0.173279 0)
(11.4165 -0.143765 0)
(11.5237 -0.120034 0)
(11.2804 -0.112959 0)
(11.3676 -0.0912581 0)
(11.1109 -0.0894717 0)
(11.1844 -0.0832698 0)
(10.9192 -0.0879611 0)
(10.9733 -0.090612 0)
(10.6843 -0.104302 0)
(10.7172 -0.109093 0)
(10.3748 -0.16904 0)
(10.2925 -0.186551 0)
(9.84455 -0.289756 0)
(10.012 -0.690808 0)
(10.8337 -0.63784 0)
(11.3276 -0.33314 0)
(11.3472 -0.252525 0)
(11.3648 -0.225724 0)
(11.153 -0.185472 0)
(11.1003 -0.16168 0)
(10.7923 -0.12972 0)
(10.7631 -0.105058 0)
(10.4461 -0.0950745 0)
(10.4488 -0.0758974 0)
(10.1562 -0.0727357 0)
(10.1758 -0.0679111 0)
(9.88945 -0.0712987 0)
(9.90316 -0.0737607 0)
(9.60084 -0.0853118 0)
(9.59616 -0.0898964 0)
(9.23647 -0.138632 0)
(9.1123 -0.155491 0)
(8.64658 -0.22821 0)
(10.0893 -0.805491 0)
(10.9036 -0.67072 0)
(11.1459 -0.356496 0)
(10.8811 -0.256808 0)
(10.6021 -0.204188 0)
(10.215 -0.15503 0)
(9.99406 -0.127801 0)
(9.624 -0.0996692 0)
(9.5122 -0.0785875 0)
(9.18426 -0.0701219 0)
(9.14178 -0.0555937 0)
(8.85844 -0.0532463 0)
(8.84766 -0.0501183 0)
(8.57379 -0.0529796 0)
(8.56238 -0.0552816 0)
(8.27371 -0.0646464 0)
(8.24234 -0.0683607 0)
(7.8944 -0.105513 0)
(7.74049 -0.121307 0)
(7.29448 -0.159128 0)
(10.1689 -0.947646 0)
(10.5568 -0.66912 0)
(10.2699 -0.330197 0)
(9.63443 -0.210481 0)
(9.1318 -0.148306 0)
(8.67197 -0.106092 0)
(8.38671 -0.0849831 0)
(8.03276 -0.0658051 0)
(7.89388 -0.0505967 0)
(7.60306 -0.0454625 0)
(7.54344 -0.0357149 0)
(7.29946 -0.0346294 0)
(7.27346 -0.0328661 0)
(7.03587 -0.0352545 0)
(7.0097 -0.0371644 0)
(6.75492 -0.0441562 0)
(6.70837 -0.0463762 0)
(6.39293 -0.0731056 0)
(6.23301 -0.0837025 0)
(5.81239 -0.104635 0)
(9.86152 -1.02194 0)
(9.33801 -0.577675 0)
(8.48187 -0.241216 0)
(7.63624 -0.130296 0)
(7.0975 -0.0822195 0)
(6.68442 -0.0571857 0)
(6.42161 -0.0456962 0)
(6.13408 -0.0356249 0)
(6.00803 -0.0264237 0)
(5.78164 -0.0243968 0)
(5.72551 -0.0188383 0)
(5.5377 -0.0187965 0)
(5.5084 -0.0179595 0)
(5.32257 -0.0197371 0)
(5.2907 -0.021012 0)
(5.0858 -0.0255333 0)
(5.03492 -0.026233 0)
(4.77357 -0.043042 0)
(4.62363 -0.0486629 0)
(4.25848 -0.0611838 0)
(8.60118 -0.871869 0)
(6.94632 -0.383699 0)
(5.81452 -0.121692 0)
(5.05352 -0.0509496 0)
(4.65419 -0.0285158 0)
(4.37141 -0.0203167 0)
(4.18814 -0.0166416 0)
(3.99568 -0.0132438 0)
(3.90797 -0.009005 0)
(3.7622 -0.00903056 0)
(3.72163 -0.00669156 0)
(3.6008 -0.00713869 0)
(3.57622 -0.00685397 0)
(3.45377 -0.00784177 0)
(3.42443 -0.00844837 0)
(3.2843 -0.0106609 0)
(3.24035 -0.0103028 0)
(3.05639 -0.0184366 0)
(2.93462 -0.0203207 0)
(2.67182 -0.0256785 0)
(5.32856 -0.309387 0)
(2.98476 -0.0606875 0)
(2.19668 0.00160158 0)
(1.84725 0.00358332 0)
(1.70656 0.00122316 0)
(1.60844 0.000208691 0)
(1.54129 -2.4492e-05 0)
(1.47059 -0.000208719 0)
(1.43854 0.000417196 0)
(1.38819 -0.000234247 0)
(1.37221 9.32912e-05 0)
(1.32932 -0.000228679 0)
(1.31771 -0.000142764 0)
(1.27234 -0.000318812 0)
(1.25693 -0.000340271 0)
(1.2013 -0.00072081 0)
(1.17972 -4.32198e-05 0)
(1.10539 -0.00142235 0)
(1.04532 -0.00135308 0)
(0.938486 0.00390243 0)
(1.35157 -0.11133 0)
(1.3265 0.528205 0)
(2.93505 0.946349 0)
(4.3224 1.86959 0)
(5.77192 2.36831 0)
(7.12821 2.04088 0)
(7.83902 1.73273 0)
(8.79725 1.17852 0)
(8.74581 0.316116 0)
(8.5992 -0.308002 0)
(9.03948 -0.926525 0)
(8.4567 -1.62972 0)
(8.64969 -2.20532 0)
(9.02227 -2.86243 0)
(8.8086 -2.90825 0)
(9.56673 -2.98176 0)
(10.5567 -3.77913 0)
(11.1362 -4.375 0)
(11.2723 -4.84754 0)
(11.3112 -5.60324 0)
(10.3371 -5.84684 0)
(9.42568 -5.55405 0)
(8.12664 -5.21439 0)
(7.49702 -4.24911 0)
(6.92075 -3.83962 0)
(6.47323 -3.89093 0)
(6.03372 -2.86743 0)
(5.31212 -2.21104 0)
(5.2899 -1.19688 0)
(5.06585 -0.118971 0)
(4.80457 -0.198245 0)
(4.39763 1.32761 0)
(4.9449 3.94729 0)
(6.59519 4.74832 0)
(7.31034 4.53985 0)
(7.26402 3.9566 0)
(7.18372 3.2324 0)
(7.15634 2.965 0)
(7.00429 2.57866 0)
(7.04235 2.29232 0)
(7.77699 2.35478 0)
(8.09614 2.36913 0)
(8.35446 2.03129 0)
(8.65954 1.46944 0)
(9.07105 1.30151 0)
(9.79145 0.793988 0)
(9.97863 -0.0631302 0)
(10.1433 -0.859576 0)
(10.4491 -1.79475 0)
(10.3555 -2.56592 0)
(10.7435 -3.59097 0)
(11.1214 -4.66177 0)
(10.5733 -4.79401 0)
(9.96156 -4.63311 0)
(9.94149 -5.11611 0)
(10.2526 -6.03208 0)
(10.508 -7.00266 0)
(10.4129 -7.57189 0)
(10.1189 -7.70022 0)
(10.0814 -8.07286 0)
(10.2883 -8.79131 0)
(10.1323 -9.02635 0)
(9.36177 -8.41154 0)
(8.33274 -7.44578 0)
(7.48612 -6.73207 0)
(7.04796 -6.55434 0)
(7.02051 -6.81683 0)
(7.22369 -7.21228 0)
(7.53393 -7.47121 0)
(7.9011 -7.40878 0)
(8.23204 -6.98628 0)
(8.50517 -6.31859 0)
(8.81211 -5.41632 0)
(9.13582 -4.32081 0)
(9.35109 -3.10509 0)
(9.44742 -1.74017 0)
(9.52471 -0.345343 0)
(9.54789 0.944189 0)
(9.47692 2.21917 0)
(9.30878 3.38242 0)
(9.14152 4.31286 0)
(8.95203 5.11268 0)
(8.64093 5.74617 0)
(8.18558 6.00272 0)
(7.70535 5.88675 0)
(7.27865 5.63622 0)
(6.9446 5.38138 0)
(6.68404 5.10061 0)
(6.47336 4.76792 0)
(6.29645 4.42672 0)
(6.13631 4.02184 0)
(5.96318 3.63314 0)
(5.90687 3.21815 0)
(5.72895 2.88109 0)
(5.71891 2.59203 0)
(5.56115 2.37789 0)
(5.54436 2.15648 0)
(5.43543 1.95572 0)
(5.40304 1.7478 0)
(5.3403 1.56856 0)
(5.30634 1.4321 0)
(5.26259 1.32778 0)
(5.21683 1.25129 0)
(5.21413 1.19628 0)
(5.12274 1.10287 0)
(5.22331 1.03477 0)
(5.1028 0.917806 0)
(5.29827 0.82328 0)
(5.18391 0.729022 0)
(5.39555 0.649147 0)
(5.28456 0.584078 0)
(5.47104 0.539502 0)
(5.33372 0.488364 0)
(5.50485 0.455735 0)
(5.33049 0.415959 0)
(5.49402 0.380722 0)
(5.3022 0.340178 0)
(5.45996 0.315643 0)
(5.26525 0.262864 0)
(5.43385 0.251857 0)
(5.23181 0.204345 0)
(5.42193 0.190848 0)
(5.213 0.162935 0)
(5.41599 0.152088 0)
(5.20037 0.125274 0)
(5.42033 0.131732 0)
(5.18376 0.101158 0)
(5.42819 0.110473 0)
(5.17445 0.0917469 0)
(5.428 0.0968053 0)
(5.16877 0.0787634 0)
(5.43236 0.0939703 0)
(5.15804 0.0697825 0)
(5.43675 0.0874932 0)
(5.15575 0.0685259 0)
(5.43507 0.0867097 0)
(5.15114 0.0641145 0)
(5.44319 0.088397 0)
(5.14215 0.0675037 0)
(5.4468 0.0900758 0)
(5.14288 0.0660288 0)
(5.44958 0.105474 0)
(5.13236 0.0683993 0)
(5.47311 0.0993619 0)
(5.10545 0.106428 0)
(5.49714 0.0829351 0)
(5.10557 0.118184 0)
(5.46764 0.130587 0)
(5.1606 0.0801007 0)
(5.42971 0.183237 0)
(5.1726 0.105689 0)
(5.45438 0.154158 0)
(5.16637 0.180024 0)
(5.43669 0.155015 0)
(5.21492 0.188333 0)
(5.40896 0.205775 0)
(5.23783 0.217495 0)
(5.40066 0.217068 0)
(5.28985 0.267139 0)
(5.35243 0.252547 0)
(5.35244 0.310457 0)
(5.31952 0.283154 0)
(5.43348 0.366705 0)
(5.25126 0.328082 0)
(5.52392 0.432892 0)
(5.2122 0.367728 0)
(5.61245 0.493894 0)
(5.16794 0.449338 0)
(5.67621 0.564206 0)
(5.19346 0.511814 0)
(5.71555 0.630862 0)
(5.21917 0.649995 0)
(5.71552 0.692523 0)
(5.37735 0.753208 0)
(5.62836 0.775056 0)
(5.54319 0.930659 0)
(5.51985 0.86709 0)
(5.78535 1.07297 0)
(5.4088 1.00359 0)
(5.97762 1.22978 0)
(5.38212 1.21874 0)
(6.03523 1.34388 0)
(5.54234 1.48225 0)
(5.90421 1.5051 0)
(5.83965 1.77335 0)
(5.73781 1.73199 0)
(6.1067 1.99009 0)
(5.75201 2.08707 0)
(6.06278 2.21211 0)
(5.99315 2.52512 0)
(5.76192 2.6191 0)
(6.10425 2.88898 0)
(5.66303 3.23572 0)
(5.8158 3.35676 0)
(5.83073 3.86054 0)
(5.68389 4.36573 0)
(5.59817 4.74518 0)
(5.37745 5.84762 0)
(5.72476 6.88457 0)
(3.15499 10.2534 0)
(3.29108 0.0353074 0)
(2.84921 0.337566 0)
(3.31031 0.455779 0)
(4.11478 1.18702 0)
(5.66213 1.76787 0)
(6.79979 1.62621 0)
(7.30736 1.27319 0)
(8.18327 0.929695 0)
(8.32361 0.330647 0)
(8.2425 -0.42679 0)
(8.8483 -1.06648 0)
(8.80566 -1.67639 0)
(9.3637 -2.28843 0)
(10.0749 -3.01176 0)
(10.0849 -3.13215 0)
(10.7618 -3.25127 0)
(11.5092 -4.0261 0)
(11.9403 -4.53696 0)
(11.7067 -4.82647 0)
(11.5199 -5.32096 0)
(10.4127 -5.52713 0)
(9.47528 -5.1454 0)
(8.34848 -4.83066 0)
(7.58417 -4.00816 0)
(7.31585 -3.574 0)
(6.60767 -3.72643 0)
(6.29416 -2.69143 0)
(5.70315 -1.95522 0)
(5.40287 -1.22267 0)
(5.37917 -0.00938287 0)
(5.31409 0.0772435 0)
(4.53975 1.1125 0)
(5.19363 3.36436 0)
(6.99264 4.28671 0)
(7.90829 4.45014 0)
(8.02881 3.993 0)
(8.07458 3.19772 0)
(8.10957 3.08525 0)
(7.79296 2.6883 0)
(7.60682 2.13052 0)
(8.03677 2.18226 0)
(8.53353 2.25104 0)
(8.74543 1.92107 0)
(8.84388 1.34247 0)
(9.2874 1.09222 0)
(9.8054 0.656214 0)
(10.1043 -0.155498 0)
(10.5308 -0.999065 0)
(10.8063 -1.86567 0)
(10.7222 -2.61694 0)
(11.1307 -3.69285 0)
(11.3194 -4.61082 0)
(10.6477 -4.57523 0)
(10.1502 -4.50751 0)
(10.2518 -5.16104 0)
(10.5543 -6.13451 0)
(10.6978 -7.02865 0)
(10.4877 -7.48369 0)
(10.195 -7.63438 0)
(10.1905 -8.11226 0)
(10.3062 -8.78376 0)
(9.95245 -8.8133 0)
(8.99488 -8.01841 0)
(7.90037 -7.04132 0)
(7.11931 -6.48171 0)
(6.7576 -6.48766 0)
(6.7483 -6.86566 0)
(6.92809 -7.32087 0)
(7.1871 -7.6 0)
(7.49647 -7.53039 0)
(7.77994 -7.09618 0)
(8.01359 -6.43228 0)
(8.29999 -5.53144 0)
(8.60031 -4.41357 0)
(8.78235 -3.15397 0)
(8.86184 -1.77491 0)
(8.95204 -0.364489 0)
(9.01216 0.962664 0)
(8.94338 2.2567 0)
(8.76298 3.43188 0)
(8.6079 4.37743 0)
(8.47466 5.20398 0)
(8.21199 5.87383 0)
(7.82012 6.16404 0)
(7.39562 6.06541 0)
(6.99791 5.79365 0)
(6.68423 5.5021 0)
(6.43995 5.19646 0)
(6.25272 4.85312 0)
(6.07152 4.48292 0)
(5.96346 4.1042 0)
(5.79613 3.66517 0)
(5.71065 3.27753 0)
(5.66227 2.91377 0)
(5.51332 2.6359 0)
(5.53605 2.40053 0)
(5.36722 2.19735 0)
(5.42679 1.96752 0)
(5.27968 1.78708 0)
(5.31765 1.57004 0)
(5.22754 1.46673 0)
(5.20932 1.33342 0)
(5.15889 1.27481 0)
(5.11626 1.20748 0)
(5.10707 1.11173 0)
(5.08769 1.02633 0)
(5.158 0.915672 0)
(5.13992 0.789114 0)
(5.28922 0.723587 0)
(5.22638 0.616164 0)
(5.39803 0.575857 0)
(5.30126 0.527797 0)
(5.43781 0.481383 0)
(5.32964 0.457344 0)
(5.43576 0.422013 0)
(5.30067 0.377734 0)
(5.42136 0.362068 0)
(5.25032 0.305521 0)
(5.40072 0.286339 0)
(5.22042 0.241806 0)
(5.38592 0.220388 0)
(5.20596 0.18065 0)
(5.39303 0.178086 0)
(5.18817 0.136782 0)
(5.41017 0.14413 0)
(5.17504 0.113447 0)
(5.41904 0.119482 0)
(5.16872 0.0938595 0)
(5.4265 0.108488 0)
(5.15895 0.080155 0)
(5.43299 0.0982015 0)
(5.15324 0.0726318 0)
(5.43612 0.0935284 0)
(5.14418 0.0634042 0)
(5.45002 0.091864 0)
(5.12916 0.0641129 0)
(5.45788 0.0874713 0)
(5.1266 0.0617608 0)
(5.46397 0.0963059 0)
(5.11252 0.0594753 0)
(5.48442 0.0945132 0)
(5.1008 0.0774043 0)
(5.48514 0.0948962 0)
(5.11278 0.0704195 0)
(5.47471 0.134152 0)
(5.12579 0.0520042 0)
(5.47577 0.152761 0)
(5.10912 0.0902111 0)
(5.52348 0.117566 0)
(5.06642 0.152498 0)
(5.53651 0.125538 0)
(5.10501 0.12893 0)
(5.49882 0.208284 0)
(5.12208 0.121432 0)
(5.52521 0.207707 0)
(5.12826 0.1945 0)
(5.49172 0.22095 0)
(5.19923 0.206581 0)
(5.46047 0.265105 0)
(5.23355 0.265277 0)
(5.43481 0.279435 0)
(5.31763 0.3095 0)
(5.37816 0.326448 0)
(5.38933 0.377061 0)
(5.33065 0.360792 0)
(5.50264 0.434503 0)
(5.26897 0.411546 0)
(5.59948 0.526759 0)
(5.19727 0.471223 0)
(5.7417 0.589752 0)
(5.16638 0.545199 0)
(5.8091 0.69286 0)
(5.18197 0.649858 0)
(5.84776 0.765038 0)
(5.2848 0.782903 0)
(5.83163 0.834175 0)
(5.45708 0.968856 0)
(5.67911 0.94783 0)
(5.76518 1.12819 0)
(5.54271 1.05141 0)
(6.0065 1.32273 0)
(5.44518 1.27997 0)
(6.10608 1.4884 0)
(5.59685 1.55647 0)
(6.03975 1.59396 0)
(5.91626 1.88021 0)
(5.78562 1.86524 0)
(6.16609 2.16536 0)
(5.78798 2.26172 0)
(6.15638 2.37226 0)
(6.1643 2.7233 0)
(5.97528 2.83048 0)
(6.38207 3.11063 0)
(6.04643 3.55667 0)
(5.90617 3.84699 0)
(6.05923 4.36894 0)
(5.75893 5.05943 0)
(5.30117 6.20823 0)
(6.96747 6.58257 0)
(4.53041 11.0389 0)
(4.85334 0.0347383 0)
(4.63957 0.326815 0)
(5.06935 0.473995 0)
(4.93247 0.722229 0)
(5.86651 1.2622 0)
(7.077 1.39412 0)
(7.3693 0.99488 0)
(7.96264 0.732559 0)
(8.61414 0.242416 0)
(8.82183 -0.503572 0)
(9.60175 -1.17702 0)
(10.0284 -1.86014 0)
(10.6392 -2.46726 0)
(11.2616 -3.16754 0)
(11.2778 -3.311 0)
(11.7708 -3.45887 0)
(12.25 -4.17597 0)
(12.4872 -4.54203 0)
(11.9021 -4.69922 0)
(11.4933 -4.97769 0)
(10.3815 -5.13591 0)
(9.4737 -4.78172 0)
(8.57025 -4.41761 0)
(7.62128 -3.8078 0)
(7.6765 -3.33879 0)
(6.78919 -3.56757 0)
(6.49823 -2.56705 0)
(6.10945 -1.68408 0)
(5.51433 -1.19876 0)
(5.56463 -0.0089578 0)
(5.83041 0.321829 0)
(4.81986 1.04796 0)
(5.17967 2.77112 0)
(7.07304 3.7285 0)
(8.29402 4.27103 0)
(8.6151 3.93656 0)
(8.82629 3.08788 0)
(8.96431 3.19553 0)
(8.81618 2.85152 0)
(8.41982 2.11763 0)
(8.41833 2.07114 0)
(9.14527 2.09549 0)
(9.19907 1.86475 0)
(9.3283 1.26194 0)
(9.73737 0.939819 0)
(10.0771 0.510014 0)
(10.5508 -0.320921 0)
(11.0268 -1.13092 0)
(11.1959 -1.92518 0)
(11.1114 -2.69461 0)
(11.4902 -3.77064 0)
(11.4871 -4.5044 0)
(10.7454 -4.36058 0)
(10.3932 -4.44588 0)
(10.5765 -5.2358 0)
(10.818 -6.2026 0)
(10.8395 -7.00491 0)
(10.5505 -7.37765 0)
(10.2932 -7.57662 0)
(10.3022 -8.125 0)
(10.2775 -8.68039 0)
(9.71166 -8.4909 0)
(8.59086 -7.56162 0)
(7.47381 -6.63508 0)
(6.77043 -6.25683 0)
(6.47384 -6.43572 0)
(6.4604 -6.9122 0)
(6.59448 -7.41241 0)
(6.79693 -7.70477 0)
(7.05201 -7.63038 0)
(7.28506 -7.19214 0)
(7.4851 -6.52942 0)
(7.74392 -5.63103 0)
(8.01666 -4.48913 0)
(8.16645 -3.19519 0)
(8.22688 -1.80685 0)
(8.3495 -0.401214 0)
(8.43867 0.97077 0)
(8.36548 2.31315 0)
(8.18625 3.49417 0)
(8.04899 4.43585 0)
(7.94596 5.27661 0)
(7.74047 5.97726 0)
(7.4032 6.29914 0)
(7.04246 6.22151 0)
(6.69311 5.93813 0)
(6.40433 5.61788 0)
(6.17697 5.27963 0)
(6.02675 4.93239 0)
(5.8486 4.53534 0)
(5.74468 4.16056 0)
(5.66263 3.71975 0)
(5.53487 3.30548 0)
(5.49638 2.9446 0)
(5.43491 2.67061 0)
(5.36392 2.42543 0)
(5.33432 2.21821 0)
(5.27794 1.98603 0)
(5.27053 1.80178 0)
(5.20553 1.58559 0)
(5.21743 1.48257 0)
(5.11336 1.35292 0)
(5.13819 1.29436 0)
(5.03274 1.21846 0)
(5.07009 1.11414 0)
(5.05848 1.02081 0)
(5.09593 0.888234 0)
(5.16401 0.779796 0)
(5.20321 0.683608 0)
(5.2597 0.61317 0)
(5.28931 0.546755 0)
(5.32469 0.529822 0)
(5.30173 0.470398 0)
(5.34831 0.465212 0)
(5.28026 0.418394 0)
(5.32313 0.397093 0)
(5.26139 0.350886 0)
(5.29379 0.33377 0)
(5.2367 0.267696 0)
(5.30269 0.264735 0)
(5.21537 0.204418 0)
(5.32514 0.193846 0)
(5.22039 0.163639 0)
(5.33525 0.152415 0)
(5.22749 0.123004 0)
(5.35472 0.136 0)
(5.21343 0.0963675 0)
(5.37702 0.113719 0)
(5.20815 0.0900713 0)
(5.37822 0.0994784 0)
(5.20791 0.0754887 0)
(5.38916 0.0989714 0)
(5.18856 0.0665698 0)
(5.40627 0.0883722 0)
(5.18405 0.0684108 0)
(5.40412 0.0895469 0)
(5.18044 0.0584069 0)
(5.42248 0.0935286 0)
(5.15671 0.064371 0)
(5.44069 0.0907294 0)
(5.15353 0.0609444 0)
(5.44671 0.115868 0)
(5.1356 0.0509754 0)
(5.48373 0.116737 0)
(5.09681 0.086449 0)
(5.52684 0.0972 0)
(5.0649 0.109864 0)
(5.55087 0.12748 0)
(5.0766 0.0779984 0)
(5.527 0.199651 0)
(5.09291 0.0644355 0)
(5.56253 0.194381 0)
(5.04208 0.148219 0)
(5.60686 0.168149 0)
(5.04943 0.160645 0)