/*--------------------------------*- C++ -*----------------------------------*\
| =========                 |                                                 |
| \\      /  F ield         | OpenFOAM: The Open Source CFD Toolbox           |
|  \\    /   O peration     | Version:  2.4.0                                 |
|   \\  /    A nd           | Web:      www.OpenFOAM.org                      |
|    \\/     M anipulation  |                                                 |
\*---------------------------------------------------------------------------*/
FoamFile
{
    version     2.0;
    format      ascii;
    class       volSymmTensorField;
    location    "0.195";
    object      UPrime2Mean;
}
// * * * * * * * * * * * * * * * * * * * * * * * * * * * * * * * * * * * * * //

dimensions      [0 2 -2 0 0 0 0];

internalField   nonuniform List<symmTensor> 
17600
(
(0.0144976 0.00070945 0 7.59007e-05 0 0)
(0.00131704 -0.000251729 0 0.00106867 0 0)
(0.0249784 -0.00603368 0 0.00180078 0 0)
(0.0767143 -0.0101087 0 0.00146918 0 0)
(0.145672 -0.0105759 0 0.000817432 0 0)
(0.228985 -0.00843535 0 0.000333733 0 0)
(0.317298 -0.00498521 0 9.4665e-05 0 0)
(0.401177 -0.00154782 0 1.67335e-05 0 0)
(0.472215 0.00125465 0 1.03222e-05 0 0)
(0.528532 0.0030589 0 2.58176e-05 0 0)
(0.57049 0.00388308 0 3.90907e-05 0 0)
(0.602135 0.00392833 0 4.07896e-05 0 0)
(0.625074 0.00354224 0 3.44197e-05 0 0)
(0.643511 0.00298115 0 2.66609e-05 0 0)
(0.657405 0.00245317 0 1.89953e-05 0 0)
(0.670231 0.00195591 0 1.4697e-05 0 0)
(0.68004 0.00154816 0 1.12534e-05 0 0)
(0.690637 0.00115783 0 6.72926e-06 0 0)
(0.698072 0.000872973 0 5.71909e-06 0 0)
(0.70812 0.000598506 0 4.0309e-06 0 0)
(0.713613 0.000445058 0 3.7251e-06 0 0)
(0.72438 0.000254274 0 3.55761e-06 0 0)
(0.727726 0.000169223 0 3.78036e-06 0 0)
(0.740522 3.57146e-05 0 3.32347e-06 0 0)
(0.741031 -5.00666e-05 0 3.71026e-06 0 0)
(0.757557 -9.30458e-05 0 4.03508e-06 0 0)
(0.754162 -0.000317429 0 5.8149e-06 0 0)
(0.776589 -0.000170874 0 6.22558e-06 0 0)
(0.768951 -0.000778931 0 1.32852e-05 0 0)
(0.79847 -0.000229338 0 1.23675e-05 0 0)
(0.791659 -0.00174087 0 3.32649e-05 0 0)
(0.821782 -5.94141e-05 0 3.39499e-05 0 0)
(0.840909 -0.00461489 0 0.000108289 0 0)
(0.84066 0.00241751 0 0.00017372 0 0)
(0.961403 -0.0173214 0 0.000713741 0 0)
(0.857156 0.0165403 0 0.00163148 0 0)
(1.23706 -0.0681308 0 0.00585186 0 0)
(0.955359 0.0663479 0 0.0117459 0 0)
(1.87848 -0.259979 0 0.0435358 0 0)
(1.69561 0.0871138 0 0.013305 0 0)
(0.0145995 0.0011937 0 0.000157782 0 0)
(0.00269378 0.00189148 0 0.00138469 0 0)
(0.000261288 0.000721828 0 0.00347729 0 0)
(0.000493998 -0.000914804 0 0.0052504 0 0)
(0.00185852 -0.0025272 0 0.00587294 0 0)
(0.00442656 -0.00458379 0 0.00557377 0 0)
(0.0100652 -0.00687098 0 0.00482357 0 0)
(0.0212818 -0.00895274 0 0.0039148 0 0)
(0.0377474 -0.0101016 0 0.00299505 0 0)
(0.0596154 -0.0102867 0 0.00214471 0 0)
(0.0839849 -0.00968493 0 0.00147103 0 0)
(0.11181 -0.00877725 0 0.00097386 0 0)
(0.139642 -0.00782951 0 0.000652842 0 0)
(0.170062 -0.00699819 0 0.000454043 0 0)
(0.198342 -0.00619138 0 0.000308811 0 0)
(0.229693 -0.00566489 0 0.000247771 0 0)
(0.255605 -0.00493962 0 0.00017115 0 0)
(0.287881 -0.0047258 0 0.000172022 0 0)
(0.308187 -0.0039792 0 0.000105698 0 0)
(0.343905 -0.00426762 0 0.000124885 0 0)
(0.354717 -0.00338155 0 7.38135e-05 0 0)
(0.397264 -0.00422252 0 0.000112031 0 0)
(0.395998 -0.00285791 0 5.76403e-05 0 0)
(0.448471 -0.00475608 0 0.000131489 0 0)
(0.433318 -0.0021401 0 6.16108e-05 0 0)
(0.498312 -0.00611254 0 0.000183705 0 0)
(0.469263 -0.000902879 0 8.28924e-05 0 0)
(0.546556 -0.00892895 0 0.000308697 0 0)
(0.508594 0.00128232 0 0.000177863 0 0)
(0.592701 -0.0142127 0 0.000609213 0 0)
(0.559457 0.00461147 0 0.000445951 0 0)
(0.638291 -0.0232069 0 0.00134384 0 0)
(0.634145 0.00845255 0 0.0011 0 0)
(0.693911 -0.0372424 0 0.00303268 0 0)
(0.750668 0.00957544 0 0.00239312 0 0)
(0.796223 -0.0611878 0 0.00710889 0 0)
(0.946365 -0.0036123 0 0.00422073 0 0)
(1.03353 -0.118342 0 0.0204683 0 0)
(1.29816 -0.0919625 0 0.00985701 0 0)
(1.46046 -0.33356 0 0.130845 0 0)
(0.0147215 0.000879331 0 8.67236e-05 0 0)
(0.00273479 0.00150981 0 0.000924142 0 0)
(0.000778926 0.00116303 0 0.00262177 0 0)
(0.00103194 0.00156553 0 0.00442934 0 0)
(0.0033841 0.00321985 0 0.00540477 0 0)
(0.00626645 0.004689 0 0.00550643 0 0)
(0.00844651 0.00559091 0 0.0050609 0 0)
(0.0088085 0.00522032 0 0.00445856 0 0)
(0.00853341 0.00443311 0 0.00378332 0 0)
(0.00721911 0.00312683 0 0.0031503 0 0)
(0.00623861 0.00212188 0 0.00253496 0 0)
(0.00483744 0.00106848 0 0.0020611 0 0)
(0.00430141 0.000403614 0 0.00169311 0 0)
(0.00395045 -0.000467282 0 0.00141012 0 0)
(0.00454473 -0.000889413 0 0.00127429 0 0)
(0.00632094 -0.00176274 0 0.00110143 0 0)
(0.00782362 -0.00202095 0 0.00106841 0 0)
(0.0125423 -0.00270654 0 0.000834281 0 0)
(0.0140699 -0.00275842 0 0.000848338 0 0)
(0.0228096 -0.0033621 0 0.000719124 0 0)
(0.0228828 -0.00337327 0 0.000684558 0 0)
(0.0364607 -0.00384953 0 0.000597752 0 0)
(0.0343562 -0.00392753 0 0.000599126 0 0)
(0.0530113 -0.00424158 0 0.000532325 0 0)
(0.0483022 -0.00449081 0 0.000559377 0 0)
(0.072369 -0.00455844 0 0.000521683 0 0)
(0.0650859 -0.00518116 0 0.000552082 0 0)
(0.0942617 -0.00496285 0 0.000547732 0 0)
(0.0852381 -0.0061647 0 0.000603102 0 0)
(0.119028 -0.00563132 0 0.000609715 0 0)
(0.110216 -0.0078936 0 0.000783843 0 0)
(0.148509 -0.00724736 0 0.000797736 0 0)
(0.143009 -0.0112519 0 0.00127775 0 0)
(0.187766 -0.0112885 0 0.00132404 0 0)
(0.190583 -0.0182754 0 0.00270812 0 0)
(0.248526 -0.0221429 0 0.0029624 0 0)
(0.270311 -0.0371949 0 0.00817238 0 0)
(0.358987 -0.0617953 0 0.0127725 0 0)
(0.412789 -0.109901 0 0.0446449 0 0)
(0.503105 -0.213107 0 0.132338 0 0)
(0.0149807 0.000626657 0 7.38066e-05 0 0)
(0.0027829 0.00114181 0 0.000614049 0 0)
(0.000922706 0.000798828 0 0.00165291 0 0)
(0.000871391 0.00096338 0 0.00287979 0 0)
(0.00301689 0.00243472 0 0.00353622 0 0)
(0.00657695 0.00401545 0 0.00372845 0 0)
(0.0114499 0.00565978 0 0.00348903 0 0)
(0.0155568 0.00629842 0 0.00312656 0 0)
(0.0203289 0.00672924 0 0.00275609 0 0)
(0.023247 0.00638253 0 0.0024044 0 0)
(0.0271755 0.00627462 0 0.00218909 0 0)
(0.0286807 0.00578382 0 0.00187503 0 0)
(0.031639 0.00576847 0 0.0017437 0 0)
(0.031741 0.00529092 0 0.00157585 0 0)
(0.0338375 0.0053794 0 0.00141258 0 0)
(0.0329537 0.00471444 0 0.00145685 0 0)
(0.0344999 0.00485677 0 0.00121175 0 0)
(0.033132 0.00415785 0 0.00143534 0 0)
(0.0343474 0.00429153 0 0.000956164 0 0)
(0.0327118 0.00363478 0 0.00135909 0 0)
(0.0335282 0.00373194 0 0.000814428 0 0)
(0.0317221 0.00323102 0 0.00124875 0 0)
(0.0321683 0.00317109 0 0.000728649 0 0)
(0.0302143 0.00287762 0 0.00126525 0 0)
(0.0301796 0.00274798 0 0.000678151 0 0)
(0.0283503 0.00258955 0 0.00132595 0 0)
(0.0278921 0.00230558 0 0.000693514 0 0)
(0.0260308 0.0023422 0 0.00147047 0 0)
(0.0251392 0.0019134 0 0.000781776 0 0)
(0.0233568 0.00222016 0 0.00170484 0 0)
(0.0220231 0.00162549 0 0.00103917 0 0)
(0.0202405 0.00216575 0 0.00219117 0 0)
(0.0183924 0.00145509 0 0.00165696 0 0)
(0.0165337 0.00203339 0 0.00338701 0 0)
(0.0144043 0.00118166 0 0.00335745 0 0)
(0.0131639 0.000758732 0 0.00715499 0 0)
(0.0126267 -0.00123831 0 0.0101596 0 0)
(0.0148115 -0.00572623 0 0.0221268 0 0)
(0.0194707 -0.0119127 0 0.0447646 0 0)
(0.0249718 -0.0198434 0 0.0921885 0 0)
(0.014736 0.000575786 0 8.94405e-05 0 0)
(0.00263971 0.000840328 0 0.000412851 0 0)
(0.000713923 0.000574391 0 0.00112593 0 0)
(0.000566916 0.000586764 0 0.00168897 0 0)
(0.00203428 0.00152725 0 0.0023261 0 0)
(0.00488602 0.00275543 0 0.00230988 0 0)
(0.00876443 0.00401843 0 0.00236737 0 0)
(0.0130047 0.00469303 0 0.00200016 0 0)
(0.0174794 0.00515878 0 0.00182607 0 0)
(0.0218348 0.0050859 0 0.00152396 0 0)
(0.0260456 0.00515832 0 0.00145295 0 0)
(0.0301191 0.0049914 0 0.00126044 0 0)
(0.033757 0.0050641 0 0.0012264 0 0)
(0.0373515 0.00502212 0 0.00101569 0 0)
(0.0403859 0.00503402 0 0.00105655 0 0)
(0.043663 0.00502194 0 0.000964548 0 0)
(0.046273 0.00506568 0 0.00101834 0 0)
(0.049804 0.00496579 0 0.000889704 0 0)
(0.0521244 0.00498446 0 0.000870292 0 0)
(0.0560426 0.00484225 0 0.000864919 0 0)
(0.058041 0.00489407 0 0.000747854 0 0)
(0.0622386 0.00481468 0 0.000790426 0 0)
(0.0638003 0.00485667 0 0.000710524 0 0)
(0.0681608 0.00494849 0 0.000827339 0 0)
(0.0691512 0.00499259 0 0.000695614 0 0)
(0.0735486 0.00524565 0 0.000797963 0 0)
(0.0739579 0.00519798 0 0.000774315 0 0)
(0.0779954 0.00573544 0 0.000889247 0 0)
(0.0775861 0.00578833 0 0.000887695 0 0)
(0.0810858 0.00670101 0 0.00107703 0 0)
(0.0795408 0.00707349 0 0.00116085 0 0)
(0.0819076 0.00862694 0 0.00154543 0 0)
(0.0785257 0.00968552 0 0.00189864 0 0)
(0.0788575 0.0125982 0 0.0029271 0 0)
(0.072729 0.0149575 0 0.00418119 0 0)
(0.0700008 0.020618 0 0.00779384 0 0)
(0.0603752 0.0252097 0 0.0132546 0 0)
(0.0554263 0.0353909 0 0.0285379 0 0)
(0.0500519 0.043514 0 0.0516699 0 0)
(0.0695998 0.0746832 0 0.110358 0 0)
(0.0146018 0.00026273 0 0.000124332 0 0)
(0.00262978 0.000844403 0 0.000557786 0 0)
(0.000622539 0.000271226 0 0.00061284 0 0)
(0.000484072 0.000431893 0 0.00146457 0 0)
(0.00151378 0.000883159 0 0.00121644 0 0)
(0.00382146 0.00210245 0 0.00208393 0 0)
(0.00681956 0.00254807 0 0.00126002 0 0)
(0.0105375 0.00388598 0 0.00195386 0 0)
(0.0141545 0.00322041 0 0.000927945 0 0)
(0.0183493 0.00455182 0 0.00152423 0 0)
(0.0219383 0.0029787 0 0.000693055 0 0)
(0.0260761 0.00480886 0 0.0013484 0 0)
(0.0292409 0.00267546 0 0.00051546 0 0)
(0.0330276 0.00511779 0 0.00133832 0 0)
(0.0357722 0.00251378 0 0.000303103 0 0)
(0.0392545 0.00544954 0 0.00131095 0 0)
(0.0418382 0.00229679 0 0.00025314 0 0)
(0.04554 0.00582935 0 0.00135668 0 0)
(0.0482083 0.00199895 0 0.000244816 0 0)
(0.0522463 0.00611948 0 0.00121861 0 0)
(0.0550326 0.00164857 0 0.000199771 0 0)
(0.0593483 0.00642934 0 0.0011616 0 0)
(0.0622078 0.00149533 0 0.00020039 0 0)
(0.0666018 0.00691337 0 0.00120476 0 0)
(0.0694549 0.00153052 0 0.000239069 0 0)
(0.0738002 0.00754975 0 0.00116904 0 0)
(0.0765798 0.00180295 0 0.000325472 0 0)
(0.0807096 0.00834999 0 0.00129081 0 0)
(0.0832098 0.00257958 0 0.000418459 0 0)
(0.0869278 0.00968425 0 0.00155693 0 0)
(0.088865 0.00429393 0 0.000630673 0 0)
(0.0917314 0.0121213 0 0.00219243 0 0)
(0.0925328 0.0079097 0 0.001259 0 0)
(0.0939434 0.0170603 0 0.00400687 0 0)
(0.0930903 0.0155709 0 0.00349418 0 0)
(0.0931078 0.0276928 0 0.00996975 0 0)
(0.0920805 0.0319501 0 0.0131956 0 0)
(0.0945104 0.0522938 0 0.0341909 0 0)
(0.100254 0.0692162 0 0.0574321 0 0)
(0.105587 0.0996502 0 0.116129 0 0)
(0.0146087 0.000316375 0 5.18764e-05 0 0)
(0.002594 0.000469407 0 0.000205897 0 0)
(0.000671179 0.000207971 0 0.000393858 0 0)
(0.000476455 0.000173249 0 0.00059682 0 0)
(0.00128405 0.000587706 0 0.000861429 0 0)
(0.00311192 0.00125928 0 0.000911061 0 0)
(0.00561596 0.00193663 0 0.00100066 0 0)
(0.00871998 0.00232685 0 0.00081505 0 0)
(0.0119688 0.00270332 0 0.000789939 0 0)
(0.0156546 0.00257549 0 0.000572432 0 0)
(0.0190812 0.00284995 0 0.000624249 0 0)
(0.0227475 0.00247127 0 0.000455742 0 0)
(0.0257963 0.00288968 0 0.000553421 0 0)
(0.0291141 0.00245219 0 0.000341991 0 0)
(0.0317423 0.00299303 0 0.000493811 0 0)
(0.0348426 0.00246935 0 0.000342846 0 0)
(0.0373363 0.00318006 0 0.000493971 0 0)
(0.0405308 0.00246905 0 0.000350307 0 0)
(0.0430862 0.00325054 0 0.000442731 0 0)
(0.0466305 0.00240601 0 0.000326849 0 0)
(0.0493768 0.00327597 0 0.000387449 0 0)
(0.0533427 0.00238949 0 0.000282338 0 0)
(0.0560642 0.00341828 0 0.000371407 0 0)
(0.060233 0.00257548 0 0.000343219 0 0)
(0.0628448 0.00369692 0 0.00039034 0 0)
(0.0671827 0.00295889 0 0.000344409 0 0)
(0.069578 0.00416209 0 0.000409824 0 0)
(0.0740305 0.00362331 0 0.000470124 0 0)
(0.0760856 0.00502123 0 0.000517684 0 0)
(0.0804727 0.00498375 0 0.000664843 0 0)
(0.082021 0.0067306 0 0.00080962 0 0)
(0.0861411 0.0076552 0 0.00114455 0 0)
(0.0868955 0.0103335 0 0.00164815 0 0)
(0.0906007 0.0132502 0 0.00266829 0 0)
(0.0906589 0.0181122 0 0.00449082 0 0)
(0.0944281 0.0249682 0 0.00797628 0 0)
(0.0952268 0.0344262 0 0.0148941 0 0)
(0.100789 0.0478363 0 0.0273051 0 0)
(0.103844 0.0638417 0 0.0489789 0 0)
(0.107633 0.0790772 0 0.0743208 0 0)
(0.0146623 0.000132554 0 3.44343e-05 0 0)
(0.00255671 0.000323329 0 0.000160133 0 0)
(0.000661071 6.13419e-05 0 0.000210513 0 0)
(0.000433349 5.68282e-05 0 0.000396507 0 0)
(0.00113654 0.000307243 0 0.000406363 0 0)
(0.00266606 0.000810182 0 0.000589422 0 0)
(0.00487217 0.00115873 0 0.000443385 0 0)
(0.00756362 0.00164158 0 0.000560725 0 0)
(0.0106168 0.00157131 0 0.000334906 0 0)
(0.0139027 0.00197267 0 0.00042324 0 0)
(0.0172712 0.00153819 0 0.000241022 0 0)
(0.0205531 0.00203561 0 0.000345627 0 0)
(0.0236307 0.00142756 0 0.000198407 0 0)
(0.0265809 0.00212898 0 0.000333475 0 0)
(0.0292553 0.00144472 0 0.000161747 0 0)
(0.0319069 0.00228855 0 0.000313889 0 0)
(0.0344462 0.0014057 0 0.000146961 0 0)
(0.0372024 0.00236488 0 0.000320287 0 0)
(0.0397979 0.00137747 0 0.000181248 0 0)
(0.0428722 0.00244137 0 0.000287585 0 0)
(0.0457108 0.00134424 0 0.000133535 0 0)
(0.049185 0.0024978 0 0.00027597 0 0)
(0.0520744 0.00136228 0 0.000136648 0 0)
(0.055686 0.00273951 0 0.000297709 0 0)
(0.0585226 0.00157535 0 0.00019378 0 0)
(0.0622547 0.0031108 0 0.000303983 0 0)
(0.0649654 0.00201785 0 0.000214062 0 0)
(0.0688364 0.00373929 0 0.000400731 0 0)
(0.0714148 0.0028478 0 0.000308607 0 0)
(0.0752856 0.0050262 0 0.000567493 0 0)
(0.0776532 0.0046078 0 0.000551413 0 0)
(0.0815562 0.00759364 0 0.00105337 0 0)
(0.083678 0.00830603 0 0.00127564 0 0)
(0.0877176 0.0130584 0 0.00255556 0 0)
(0.0898949 0.0160783 0 0.00379681 0 0)
(0.0949805 0.024365 0 0.00762477 0 0)
(0.0988434 0.0318977 0 0.0125118 0 0)
(0.107399 0.046979 0 0.024206 0 0)
(0.114727 0.0626511 0 0.0399718 0 0)
(0.120453 0.0850604 0 0.0693921 0 0)
(0.0146533 0.000118175 0 2.79605e-05 0 0)
(0.00252165 0.000148646 0 8.71276e-05 0 0)
(0.00070462 4.33335e-05 0 0.000124469 0 0)
(0.0004896 -4.84161e-06 0 0.00015466 0 0)
(0.00108204 0.000149851 0 0.000206159 0 0)
(0.0024039 0.00041412 0 0.000218911 0 0)
(0.00438084 0.00069614 0 0.00022443 0 0)
(0.00686566 0.000850119 0 0.000201356 0 0)
(0.00971068 0.000996736 0 0.000181827 0 0)
(0.0128414 0.000984714 0 0.000147626 0 0)
(0.0160172 0.0010721 0 0.000150924 0 0)
(0.0192069 0.000980093 0 0.000131537 0 0)
(0.0221248 0.00108511 0 0.000131255 0 0)
(0.0249834 0.00100043 0 0.000108831 0 0)
(0.027478 0.00111458 0 0.000123976 0 0)
(0.0300969 0.00102079 0 0.000111662 0 0)
(0.0324688 0.00115321 0 0.000116176 0 0)
(0.0351746 0.0010307 0 0.000118026 0 0)
(0.0375559 0.00116919 0 0.000116109 0 0)
(0.0405568 0.00106236 0 0.000109754 0 0)
(0.0431851 0.00120692 0 0.000102485 0 0)
(0.0466353 0.0011309 0 0.000113099 0 0)
(0.0493752 0.00129471 0 9.88253e-05 0 0)
(0.0529553 0.00130529 0 0.000130114 0 0)
(0.0556295 0.00151056 0 0.000132998 0 0)
(0.059393 0.00166385 0 0.000155679 0 0)
(0.0619305 0.00196678 0 0.000153818 0 0)
(0.0658961 0.00229218 0 0.000223099 0 0)
(0.0684071 0.00280404 0 0.000259873 0 0)
(0.0725246 0.00354282 0 0.00036634 0 0)
(0.0749474 0.00457973 0 0.000501341 0 0)
(0.0793892 0.00605204 0 0.000777772 0 0)
(0.0819861 0.00813557 0 0.0012201 0 0)
(0.0871304 0.011208 0 0.00204491 0 0)
(0.090546 0.0155056 0 0.00356522 0 0)
(0.0976671 0.0219012 0 0.00624637 0 0)
(0.103985 0.0308352 0 0.0112188 0 0)
(0.115697 0.0437767 0 0.0195694 0 0)
(0.125546 0.0602244 0 0.033559 0 0)
(0.129776 0.0771806 0 0.0532351 0 0)
(0.0147057 0.000139213 0 5.45704e-05 0 0)
(0.00260342 -4.01561e-05 0 7.78519e-05 0 0)
(0.000889144 1.6955e-05 0 8.41796e-05 0 0)
(0.000659968 -4.88942e-05 0 7.6523e-05 0 0)
(0.00115567 2.85723e-05 0 0.000105914 0 0)
(0.00234599 6.42516e-05 0 6.81939e-05 0 0)
(0.00425743 0.000283607 0 0.000110576 0 0)
(0.00659857 0.000121347 0 6.34995e-05 0 0)
(0.0094591 0.000473857 0 9.58372e-05 0 0)
(0.0123936 5.68552e-05 0 5.60101e-05 0 0)
(0.0156528 0.000619139 0 9.6499e-05 0 0)
(0.018595 -2.99505e-05 0 6.30269e-05 0 0)
(0.021685 0.00069707 0 9.54251e-05 0 0)
(0.0242684 -0.000115237 0 5.6482e-05 0 0)
(0.0269836 0.000739655 0 9.31645e-05 0 0)
(0.0292601 -0.000153296 0 6.02185e-05 0 0)
(0.0318805 0.000749668 0 9.16643e-05 0 0)
(0.0342082 -0.000273949 0 6.13837e-05 0 0)
(0.0369097 0.000782739 0 8.96028e-05 0 0)
(0.0394883 -0.000294437 0 6.41134e-05 0 0)
(0.0424795 0.000911939 0 9.14634e-05 0 0)
(0.0454353 -0.000228434 0 6.69111e-05 0 0)
(0.0486085 0.00101714 0 9.26115e-05 0 0)
(0.0516816 -0.000149715 0 6.73968e-05 0 0)
(0.0548637 0.00124656 0 0.000104054 0 0)
(0.0580732 0.000131315 0 8.25631e-05 0 0)
(0.061211 0.00164529 0 0.000128076 0 0)
(0.0646173 0.000727157 0 0.000116339 0 0)
(0.0678642 0.00243755 0 0.00020093 0 0)
(0.0715174 0.00190554 0 0.000210332 0 0)
(0.0749013 0.00412574 0 0.000408639 0 0)
(0.0790674 0.00428946 0 0.00050638 0 0)
(0.083024 0.00745237 0 0.00102355 0 0)
(0.0883384 0.009035 0 0.00147629 0 0)
(0.0938669 0.0141654 0 0.00293022 0 0)
(0.102109 0.0186833 0 0.00471362 0 0)
(0.111549 0.0281749 0 0.00901876 0 0)
(0.125315 0.0386449 0 0.0149307 0 0)
(0.138211 0.055189 0 0.0261658 0 0)
(0.142544 0.070719 0 0.0411702 0 0)
(0.0146333 -8.04434e-06 0 3.03163e-05 0 0)
(0.002544 -0.0001698 0 0.000116269 0 0)
(0.000781072 -8.70526e-05 0 0.000144904 0 0)
(0.000607551 -0.000113798 0 0.000138974 0 0)
(0.00114569 -0.000131654 0 0.000103319 0 0)
(0.00235909 -0.000216859 0 0.000101788 0 0)
(0.00418738 -0.00022737 0 9.56332e-05 0 0)
(0.00658505 -0.000376329 0 0.00012381 0 0)
(0.00933534 -0.000292969 0 0.000102008 0 0)
(0.0125024 -0.000442904 0 0.000100494 0 0)
(0.0155463 -0.000242691 0 8.27082e-05 0 0)
(0.0187206 -0.000404159 0 9.57692e-05 0 0)
(0.0215126 -0.000237179 0 8.24774e-05 0 0)
(0.0243943 -0.000397715 0 9.84122e-05 0 0)
(0.0267717 -0.000312506 0 9.15641e-05 0 0)
(0.029406 -0.000423451 0 0.000100946 0 0)
(0.0316527 -0.000399865 0 9.45651e-05 0 0)
(0.0343991 -0.000436802 0 8.73776e-05 0 0)
(0.0367246 -0.000419435 0 8.53061e-05 0 0)
(0.0397456 -0.000343144 0 8.34889e-05 0 0)
(0.0423191 -0.000373009 0 9.35078e-05 0 0)
(0.0457111 -0.00016143 0 9.59444e-05 0 0)
(0.0484583 -0.000342297 0 9.83574e-05 0 0)
(0.052017 3.4394e-05 0 9.60529e-05 0 0)
(0.0547544 -0.000236572 0 9.02938e-05 0 0)
(0.0584852 0.000427394 0 9.91731e-05 0 0)
(0.0612498 5.80284e-05 0 0.000104115 0 0)
(0.0652511 0.00114874 0 0.000143845 0 0)
(0.0681661 0.000757677 0 0.000148417 0 0)
(0.0725798 0.00244826 0 0.000257836 0 0)
(0.0757343 0.00230091 0 0.000287097 0 0)
(0.0808846 0.00491997 0 0.000576619 0 0)
(0.0848505 0.0053423 0 0.000750175 0 0)
(0.0915815 0.00949996 0 0.00151115 0 0)
(0.097647 0.0112174 0 0.00214605 0 0)
(0.108183 0.0181053 0 0.00413724 0 0)
(0.119355 0.0225054 0 0.00616029 0 0)
(0.136531 0.0347973 0 0.0115292 0 0)
(0.152954 0.0455318 0 0.0182893 0 0)
(0.157522 0.0689235 0 0.0368623 0 0)
(0.0145854 5.79755e-05 0 0.000237723 0 0)
(0.00258206 -0.000656419 0 0.000918742 0 0)
(0.000735552 -0.000141743 0 0.000460145 0 0)
(0.000542383 -0.000322832 0 0.000823161 0 0)
(0.00110332 -0.000277153 0 0.000514326 0 0)
(0.00249685 -0.000765544 0 0.00089473 0 0)
(0.00442025 -0.000495545 0 0.000403777 0 0)
(0.00699736 -0.00156518 0 0.000978265 0 0)
(0.00978466 -0.000387706 0 0.000372061 0 0)
(0.0131305 -0.00216195 0 0.000860159 0 0)
(0.0161866 2.68023e-05 0 0.000353904 0 0)
(0.0195323 -0.00257222 0 0.000770506 0 0)
(0.0223322 0.000428713 0 0.000338696 0 0)
(0.0253412 -0.0030206 0 0.000803113 0 0)
(0.0277614 0.000654748 0 0.00028016 0 0)
(0.0304782 -0.00342296 0 0.000861983 0 0)
(0.0328021 0.00083488 0 0.000247124 0 0)
(0.0355948 -0.00377253 0 0.000859043 0 0)
(0.0380971 0.00113252 0 0.000237208 0 0)
(0.0411121 -0.0040777 0 0.000809632 0 0)
(0.043926 0.00155377 0 0.000234669 0 0)
(0.0472004 -0.00436021 0 0.000770585 0 0)
(0.0502456 0.00194448 0 0.000249518 0 0)
(0.0536257 -0.00470984 0 0.000741012 0 0)
(0.0568295 0.00240452 0 0.000256177 0 0)
(0.0603351 -0.00487612 0 0.000671245 0 0)
(0.0637284 0.00303252 0 0.00029357 0 0)
(0.0674287 -0.00468833 0 0.000609631 0 0)
(0.0711666 0.00404443 0 0.000386697 0 0)
(0.0752782 -0.00391288 0 0.000530259 0 0)
(0.0795137 0.00578059 0 0.000638728 0 0)
(0.0843967 -0.00199499 0 0.000511635 0 0)
(0.0897936 0.00892859 0 0.00124339 0 0)
(0.0964242 0.00179722 0 0.000831956 0 0)
(0.104312 0.0144694 0 0.00273296 0 0)
(0.114935 0.00856855 0 0.0021133 0 0)
(0.128668 0.0236074 0 0.00586211 0 0)
(0.148322 0.0192217 0 0.00525593 0 0)
(0.174148 0.0380718 0 0.0116718 0 0)
(0.189619 0.0394243 0 0.0138878 0 0)
(0.0145983 -0.000113052 0 7.24126e-05 0 0)
(0.00288395 -0.000667662 0 0.000335627 0 0)
(0.000965373 -0.000146294 0 0.000241364 0 0)
(0.000788286 -0.000366354 0 0.000553571 0 0)
(0.0012852 -0.000395218 0 0.000427322 0 0)
(0.00290034 -0.00112284 0 0.000835983 0 0)
(0.00501082 -0.00109503 0 0.000414704 0 0)
(0.00801104 -0.0021108 0 0.000866892 0 0)
(0.0109307 -0.00129146 0 0.000318643 0 0)
(0.0146426 -0.00264245 0 0.000732003 0 0)
(0.0176785 -0.00102856 0 0.000260314 0 0)
(0.0214206 -0.00289872 0 0.000636516 0 0)
(0.0240576 -0.000681627 0 0.000227682 0 0)
(0.0275047 -0.00319857 0 0.000650426 0 0)
(0.0297334 -0.000484935 0 0.000169842 0 0)
(0.0329062 -0.00352483 0 0.000690284 0 0)
(0.035045 -0.000328074 0 0.000140885 0 0)
(0.0383577 -0.00378967 0 0.000692184 0 0)
(0.040654 -4.91209e-05 0 0.000133086 0 0)
(0.0442236 -0.00399383 0 0.000647068 0 0)
(0.0467652 0.000333568 0 0.000127335 0 0)
(0.0506101 -0.00419898 0 0.000608385 0 0)
(0.0533718 0.000691199 0 0.000125242 0 0)
(0.0573866 -0.00446117 0 0.000586035 0 0)
(0.0603389 0.00112476 0 0.000135442 0 0)
(0.0645031 -0.00456933 0 0.000523915 0 0)
(0.0677275 0.00175936 0 0.000169942 0 0)
(0.0721002 -0.00436448 0 0.000462013 0 0)
(0.0757808 0.00281975 0 0.000262862 0 0)
(0.0806039 -0.00361701 0 0.000375335 0 0)
(0.0850299 0.00459632 0 0.000505723 0 0)
(0.0906982 -0.00183163 0 0.000352825 0 0)
(0.0965694 0.00776073 0 0.00103318 0 0)
(0.104073 0.00162562 0 0.000590423 0 0)
(0.112767 0.013016 0 0.00227344 0 0)
(0.124093 0.00733061 0 0.00159201 0 0)
(0.138089 0.020825 0 0.00468113 0 0)
(0.156472 0.0148935 0 0.00377611 0 0)
(0.180521 0.0314677 0 0.00851947 0 0)
(0.230335 0.0290911 0 0.00870771 0 0)
(0.0145687 -0.000307035 0 2.10471e-05 0 0)
(0.00267219 -0.000395261 0 0.000142719 0 0)
(0.000705193 -0.000264487 0 0.000326193 0 0)
(0.000518632 -0.000198598 0 0.000530753 0 0)
(0.00127711 -0.000655396 0 0.000862801 0 0)
(0.00315529 -0.00128913 0 0.000838145 0 0)
(0.00565518 -0.00202546 0 0.00100004 0 0)
(0.00884601 -0.00231707 0 0.000721342 0 0)
(0.0121494 -0.00282507 0 0.000802125 0 0)
(0.0159113 -0.00259002 0 0.00051949 0 0)
(0.0193289 -0.00302101 0 0.000628931 0 0)
(0.0230271 -0.00248718 0 0.00040608 0 0)
(0.0260274 -0.00306064 0 0.000539056 0 0)
(0.0293751 -0.00241335 0 0.000325821 0 0)
(0.0320049 -0.00320903 0 0.00049515 0 0)
(0.035102 -0.00243381 0 0.000270535 0 0)
(0.0376483 -0.00336359 0 0.000499053 0 0)
(0.0409044 -0.00240617 0 0.000248822 0 0)
(0.0436027 -0.00343713 0 0.000476053 0 0)
(0.0471613 -0.00228341 0 0.000215404 0 0)
(0.0500603 -0.00353271 0 0.000443477 0 0)
(0.0539385 -0.00217502 0 0.000155133 0 0)
(0.0570148 -0.00368023 0 0.000424347 0 0)
(0.0611446 -0.002084 0 0.000140319 0 0)
(0.0643691 -0.00381532 0 0.00042844 0 0)
(0.0687742 -0.0018529 0 0.000116049 0 0)
(0.0722318 -0.00376342 0 0.000410572 0 0)
(0.0770257 -0.00135945 0 0.000110764 0 0)
(0.0808872 -0.00330972 0 0.000376771 0 0)
(0.0863479 -0.000364679 0 0.000108421 0 0)
(0.0909913 -0.00215678 0 0.000400593 0 0)
(0.0975815 0.00155041 0 0.00021747 0 0)
(0.103672 0.000273138 0 0.000562625 0 0)
(0.11235 0.0049848 0 0.000595734 0 0)
(0.121172 0.00452237 0 0.001193 0 0)
(0.133793 0.0105051 0 0.00165308 0 0)
(0.148103 0.0113632 0 0.0028806 0 0)
(0.169995 0.0199864 0 0.00433951 0 0)
(0.200366 0.0259354 0 0.00760464 0 0)
(0.269076 0.0493638 0 0.0133519 0 0)
(0.0144003 -0.000366326 0 2.94624e-05 0 0)
(0.00281244 -0.000693516 0 0.000204315 0 0)
(0.000502819 -0.000284304 0 0.000527822 0 0)
(0.000513434 -0.000451791 0 0.00108072 0 0)
(0.00140437 -0.000888816 0 0.00135113 0 0)
(0.0038727 -0.00205385 0 0.00160326 0 0)
(0.00663676 -0.00272449 0 0.00142491 0 0)
(0.0106484 -0.00356242 0 0.00136706 0 0)
(0.0139197 -0.0036533 0 0.00110145 0 0)
(0.0185351 -0.00401413 0 0.00103911 0 0)
(0.0217094 -0.00375051 0 0.000841531 0 0)
(0.0262641 -0.00399731 0 0.000834895 0 0)
(0.0289517 -0.00368642 0 0.00068181 0 0)
(0.0331211 -0.00400062 0 0.000695018 0 0)
(0.0354207 -0.00373285 0 0.00056432 0 0)
(0.0393372 -0.00408822 0 0.000627661 0 0)
(0.0415963 -0.00378547 0 0.000524568 0 0)
(0.0456372 -0.00412501 0 0.000594901 0 0)
(0.0481007 -0.00374416 0 0.000484234 0 0)
(0.0523932 -0.00411531 0 0.000540482 0 0)
(0.0551054 -0.00371282 0 0.00040727 0 0)
(0.0596365 -0.0041471 0 0.000466128 0 0)
(0.0625796 -0.0037248 0 0.000338536 0 0)
(0.067284 -0.00421623 0 0.000427469 0 0)
(0.0704881 -0.00370421 0 0.000331441 0 0)
(0.0753548 -0.00419602 0 0.000415185 0 0)
(0.0789188 -0.00352964 0 0.000306597 0 0)
(0.0840928 -0.00393838 0 0.000368313 0 0)
(0.0882293 -0.00302181 0 0.000271514 0 0)
(0.0939729 -0.00320206 0 0.0003106 0 0)
(0.0990791 -0.00189318 0 0.000253076 0 0)
(0.10591 -0.00162149 0 0.000344034 0 0)
(0.112652 0.000383919 0 0.000353009 0 0)
(0.121475 0.00145919 0 0.000571347 0 0)
(0.13117 0.0046195 0 0.000860404 0 0)
(0.144074 0.00709372 0 0.00144512 0 0)
(0.159945 0.0124221 0 0.00238448 0 0)
(0.182482 0.0176281 0 0.00383595 0 0)
(0.216087 0.0267979 0 0.00612637 0 0)
(0.284582 0.0378731 0 0.00921556 0 0)
(0.0143208 -0.000486096 0 5.89304e-05 0 0)
(0.00361372 -0.000792961 0 0.000324302 0 0)
(0.000589926 -0.000250263 0 0.00105943 0 0)
(0.00108446 -0.000806066 0 0.00161166 0 0)
(0.00190068 -0.0010988 0 0.00242531 0 0)
(0.00572039 -0.00309126 0 0.00221882 0 0)
(0.00798825 -0.00363951 0 0.00241575 0 0)
(0.0144774 -0.0048605 0 0.00181779 0 0)
(0.0158594 -0.00490153 0 0.00188334 0 0)
(0.0239118 -0.00515319 0 0.00137587 0 0)
(0.0238609 -0.00509048 0 0.00151306 0 0)
(0.0326677 -0.0049635 0 0.00109164 0 0)
(0.0311281 -0.00506727 0 0.00127613 0 0)
(0.0400932 -0.00486206 0 0.000854899 0 0)
(0.0374167 -0.00513163 0 0.00111402 0 0)
(0.0465371 -0.00481883 0 0.000730401 0 0)
(0.0432479 -0.00520062 0 0.0010487 0 0)
(0.0527552 -0.00469881 0 0.000683812 0 0)
(0.0491373 -0.00518644 0 0.000972182 0 0)
(0.0590486 -0.00453172 0 0.000609529 0 0)
(0.0551602 -0.00520119 0 0.000863292 0 0)
(0.0653459 -0.00443196 0 0.000492671 0 0)
(0.0612519 -0.00525604 0 0.000758638 0 0)
(0.071511 -0.00435928 0 0.000437228 0 0)
(0.067378 -0.00530089 0 0.000739079 0 0)
(0.077512 -0.00423026 0 0.000433445 0 0)
(0.073579 -0.00521064 0 0.000693279 0 0)
(0.0835205 -0.00389968 0 0.000394066 0 0)
(0.080171 -0.00485685 0 0.000613601 0 0)
(0.0899196 -0.00321076 0 0.000321098 0 0)
(0.0877016 -0.00399425 0 0.000526795 0 0)
(0.0975305 -0.00183902 0 0.000323134 0 0)
(0.0972694 -0.00220695 0 0.000506139 0 0)
(0.107809 0.000869664 0 0.000480411 0 0)
(0.11097 0.00147842 0 0.000762684 0 0)
(0.123969 0.00625967 0 0.00122928 0 0)
(0.133631 0.00873563 0 0.00187546 0 0)
(0.154036 0.0160854 0 0.00322003 0 0)
(0.180487 0.0207594 0 0.00428152 0 0)
(0.240822 0.0293512 0 0.00623044 0 0)
(0.0142997 -0.000662529 0 5.82076e-05 0 0)
(0.00370301 -0.00125435 0 0.000546109 0 0)
(0.000665364 -0.000447607 0 0.00164565 0 0)
(0.00143277 -0.0014734 0 0.00276493 0 0)
(0.00267085 -0.00176742 0 0.00365403 0 0)
(0.00796869 -0.00476968 0 0.0036028 0 0)
(0.00998354 -0.00493994 0 0.00355489 0 0)
(0.0183281 -0.00692738 0 0.00293344 0 0)
(0.0174419 -0.00609391 0 0.00279749 0 0)
(0.0273506 -0.0069013 0 0.00223773 0 0)
(0.0231462 -0.00576131 0 0.00222789 0 0)
(0.0338445 -0.00629178 0 0.00170781 0 0)
(0.0267342 -0.00523408 0 0.00181087 0 0)
(0.037531 -0.00580081 0 0.00130285 0 0)
(0.0283525 -0.00480454 0 0.00155707 0 0)
(0.0391238 -0.00526505 0 0.00109024 0 0)
(0.0287741 -0.00434952 0 0.00142906 0 0)
(0.0395233 -0.00462921 0 0.000956046 0 0)
(0.0285506 -0.00386127 0 0.00129875 0 0)
(0.0391117 -0.00399336 0 0.000796045 0 0)
(0.0278454 -0.00343889 0 0.00114124 0 0)
(0.0379834 -0.0034291 0 0.000631509 0 0)
(0.0267547 -0.00308806 0 0.00100259 0 0)
(0.0362882 -0.00288055 0 0.000538316 0 0)
(0.025453 -0.00272862 0 0.000930969 0 0)
(0.0341958 -0.00229879 0 0.000511423 0 0)
(0.0240995 -0.00234273 0 0.000840817 0 0)
(0.032017 -0.00164436 0 0.000453504 0 0)
(0.0230023 -0.00190144 0 0.000711321 0 0)
(0.0301301 -0.000885598 0 0.000374935 0 0)
(0.0225675 -0.00132609 0 0.000576809 0 0)
(0.0291574 0.000114258 0 0.000341473 0 0)
(0.0234284 -0.000481202 0 0.000477938 0 0)
(0.0300405 0.00165372 0 0.000439374 0 0)
(0.0267857 0.00107996 0 0.000525602 0 0)
(0.0346608 0.00449921 0 0.000995853 0 0)
(0.0352583 0.00451145 0 0.00120951 0 0)
(0.0471869 0.0106816 0 0.00301627 0 0)
(0.0568295 0.0126364 0 0.00373037 0 0)
(0.0883312 0.022918 0 0.0068238 0 0)
(0.014359 -0.000880272 0 8.47265e-05 0 0)
(0.00295242 -0.00157468 0 0.000903081 0 0)
(0.000542618 -0.000982405 0 0.00262199 0 0)
(0.00116028 -0.00185941 0 0.00437418 0 0)
(0.00307207 -0.00280515 0 0.00544327 0 0)
(0.00677909 -0.00520398 0 0.00545644 0 0)
(0.00765408 -0.00507242 0 0.00510513 0 0)
(0.00976835 -0.00575796 0 0.00438309 0 0)
(0.00741028 -0.00390771 0 0.00381533 0 0)
(0.00827789 -0.00365708 0 0.00305499 0 0)
(0.00519018 -0.00159266 0 0.0025706 0 0)
(0.0055392 -0.00164368 0 0.00196787 0 0)
(0.00385317 0.000196539 0 0.00172189 0 0)
(0.00371505 -0.000182406 0 0.00133139 0 0)
(0.00529602 0.00159356 0 0.00128107 0 0)
(0.00446069 0.00101382 0 0.00100603 0 0)
(0.0104682 0.00270935 0 0.00103115 0 0)
(0.00845169 0.00191497 0 0.00078408 0 0)
(0.0192887 0.00352361 0 0.00082898 0 0)
(0.0156279 0.00253753 0 0.00060047 0 0)
(0.0312594 0.00411189 0 0.000656553 0 0)
(0.0257375 0.00297016 0 0.00045163 0 0)
(0.0458926 0.00454361 0 0.000527748 0 0)
(0.0386536 0.00329015 0 0.000362131 0 0)
(0.0627634 0.00485534 0 0.000448442 0 0)
(0.0540983 0.00348855 0 0.000314437 0 0)
(0.081304 0.00496425 0 0.0003719 0 0)
(0.0715912 0.00349252 0 0.00025958 0 0)
(0.100814 0.00479611 0 0.000286174 0 0)
(0.0903013 0.00323246 0 0.000204773 0 0)
(0.120338 0.00425124 0 0.000211648 0 0)
(0.109076 0.00257954 0 0.000182603 0 0)
(0.138321 0.00310753 0 0.00016902 0 0)
(0.126027 0.00123865 0 0.000249536 0 0)