/*--------------------------------*- C++ -*----------------------------------*\
| =========                 |                                                 |
| \\      /  F ield         | OpenFOAM: The Open Source CFD Toolbox           |
|  \\    /   O peration     | Version:  2.4.0                                 |
|   \\  /    A nd           | Web:      www.OpenFOAM.org                      |
|    \\/     M anipulation  |                                                 |
\*---------------------------------------------------------------------------*/
FoamFile
{
    version     2.0;
    format      ascii;
    class       volScalarField;
    location    "0.119";
    object      p;
}
// * * * * * * * * * * * * * * * * * * * * * * * * * * * * * * * * * * * * * //

dimensions      [0 2 -2 0 0 0 0];

internalField   nonuniform List<scalar> 
4400
(
80.9702
60.721
53.1672
49.8445
47.3688
45.0131
42.7098
40.5304
38.0497
36.3441
79.0328
60.789
53.2044
49.8569
47.3713
45.0133
42.7093
40.5287
38.0636
36.2656
77.8153
61.1075
53.3396
49.8963
47.3914
45.0221
42.7124
40.5255
38.0969
36.2015
77.0789
61.4949
53.5198
49.9544
47.4336
45.0487
42.7263
40.5232
38.1444
36.1691
76.4846
61.8513
53.701
50.0135
47.4916
45.0945
42.7537
40.5266
38.203
36.171
75.9713
62.1494
53.8606
50.0547
47.5459
45.1469
42.7897
40.5322
38.2721
36.2158
75.5468
62.3886
53.9945
50.077
47.5874
45.1945
42.8219
40.5384
38.318
36.3724
75.2179
62.5706
54.1014
50.089
47.6126
45.2341
42.8429
40.5488
38.312
36.5704
74.9948
62.6957
54.1731
50.0949
47.6271
45.2618
42.8585
40.5521
38.3293
36.8405
74.8812
62.7611
54.2084
50.098
47.6319
45.2782
42.8688
40.5533
38.3676
37.0148
74.8767
62.7668
54.2072
50.1011
47.6279
45.2852
42.8714
40.5568
38.3977
37.1705
74.9821
62.7101
54.1715
50.102
47.6177
45.2783
42.8699
40.5592
38.4383
37.2631
75.1964
62.5944
54.0997
50.1
47.5988
45.261
42.8607
40.5612
38.4875
37.2981
75.5177
62.4206
53.9935
50.0904
47.5697
45.2324
42.8442
40.5616
38.546
37.2796
75.9387
62.1889
53.8597
50.0669
47.528
45.1928
42.823
40.5583
38.6084
37.2264
76.4501
61.8963
53.6984
50.0255
47.4744
45.1458
42.7996
40.554
38.6645
37.1853
77.0437
61.5426
53.5144
49.9677
47.4166
45.1045
42.7812
40.556
38.6975
37.1537
77.7788
61.1559
53.3327
49.9107
47.375
45.08
42.7734
40.5625
38.7173
37.1519
78.9946
60.8374
53.1969
49.8719
47.3553
45.0719
42.7725
40.5684
38.729
37.1627
80.9303
60.7693
53.1592
49.8602
47.3527
45.0724
42.7726
40.5715
38.7334
37.2538
37.5408
37.1959
35.675
32.994
29.4054
24.6707
18.5598
12.4612
7.90767
6.29023
6.94205
9.33449
17.2429
28.1624
41.0723
54.2674
62.7678
70.0312
74.5114
70.184
61.7807
51.0308
38.3953
28.9389
21.8206
13.6019
7.69144
5.76607
5.45725
6.95102
11.1834
16.6872
21.5741
23.7544
23.3134
21.0988
18.4646
15.2363
10.7361
7.14521
6.45891
8.30851
12.7348
18.2708
24.5236
31.2795
38.207
44.4837
50.0292
54.2943
57.1945
57.7394
57.5049
55.7686
51.1479
45.9667
38.3923
31.5898
25.305
23.0802
24.1516
26.6416
32.4286
40.4879
46.1729
51.0462
54.6681
55.4651
56.0373
57.0015
59.2309
59.329
58.3961
52.3048
48.1615
43.2058
39.881
37.6208
37.4628
39.4499
43.0689
47.7351
52.2047
56.0705
58.7018
60.4245
61.1966
61.2171
60.6953
58.3527
55.7258
50.7559
47.6882
39.8991
39.7643
37.3547
40.535
41.3031
45.5963
40.783
37.3587
37.0786
35.4599
32.5573
29.0755
25.027
19.5827
13.9887
9.29371
7.47345
8.57324
11.0592
18.8012
29.6336
41.6558
54.2118
62.445
68.8959
73.0348
69.6889
62.1278
52.1147
40.2689
31.053
24.3364
16.6959
10.942
9.27558
9.42269
11.3576
15.5377
20.2167
23.844
25.1719
24.2751
21.5451
18.3863
14.7064
9.35985
4.48953
3.36899
4.95624
9.06056
14.5152
21.0853
28.326
35.8323
42.5946
48.7302
53.5375
56.9789
57.7476
57.7334
56.6993
52.2839
48.1338
41.7365
35.0806
29.4288
27.3726
28.5016
30.4704
35.1822
42.5021
47.2491
50.886
53.8782
54.8259
55.5317
56.1331
57.9857
58.7058
56.5911
49.6089
45.8164
40.2788
37.213
34.3631
34.1483
36.2651
40.4294
45.8775
51.0036
55.4634
58.4665
60.3466
61.3225
61.226
60.8333
57.7765
55.743
50.136
47.5464
39.2114
38.5343
37.3237
39.4855
39.6804
41.6728
36.8482
37.1907
36.8789
35.1851
32.1306
28.7331
25.2167
20.4097
15.5345
11.005
9.01324
10.693
13.4997
20.7629
31.2238
42.1214
53.7533
61.5203
67.0843
71.0589
68.6643
62.0769
53.0579
42.1621
33.2836
27.1535
20.1431
14.7095
13.3043
14.0106
16.3166
20.3759
24.2267
26.553
27.0376
25.7546
22.7901
19.4261
15.3516
9.11931
3.01533
1.40712
2.33846
5.93866
11.2634
17.998
25.6544
33.6177
40.7696
47.516
52.9356
56.7369
57.8911
58.2182
57.7975
53.9731
50.6556
45.3096
38.8819
33.6234
31.9251
32.947
34.5681
38.4311
44.6771
48.4256
51.0776
53.2678
54.4377
55.3183
55.8499
57.3805
58.4424
54.7788
47.1741
43.6303
37.5879
34.9982
31.1569
31.1477
33.0495
37.7604
43.9588
49.7569
54.8544
58.307
60.206
61.6313
60.9289
60.9995
57.394
56.0653
49.9174
47.2733
39.63
37.5737
37.3036
38.169
38.0698
37.4195
33.852
36.9391
36.5302
34.884
31.8913
28.5795
25.5233
21.1602
17.2083
13.1312
10.9713
13.1721
16.4419
22.973
32.818
42.5913
53.0097
60.1313
64.8863
68.55
67.0512
61.5841
53.6801
43.8767
35.7131
30.2982
23.9174
19.0245
17.8324
19.0468
21.7032
25.5132
28.4979
29.5464
29.1657
27.6741
24.675
21.2241
16.8298
9.70994
2.50317
0.283266
0.598218
3.33109
8.64739
15.4153
23.3953
31.6283
39.1462
46.457
52.4638
56.5069
58.3491
58.9616
59.0102
56.0784
53.1246
48.5978
42.8672
37.9926
36.448
37.3441
38.7795
42.0101
46.9415
49.6954
51.5888
52.8133
54.2192
55.1195
56.2699
57.8658
58.9564
53.2733
45.1031
41.6501
35.3808
33.1683
28.0108
28.7702
29.8537
35.3521
41.9882
48.5633
54.1456
58.372
59.899
61.8902
60.6377
61.4238
57.5257
56.4764
50.263
46.9404
40.4993
37.2684
37.0594
36.6945
36.5076
34.144
32.4751
36.7194
36.1582
34.6184
31.8985
28.5759
26.0288
22.23
18.8822
15.6733
13.4729
15.8038
19.4386
25.183
34.1406
42.8834
52.2249
58.5484
62.5739
65.8556
65.0572
60.7682
54.0376
45.4888
38.3696
33.6405
28.0183
23.8221
22.853
24.4089
27.3441
30.8217
32.8037
32.6884
31.4261
29.7751
26.9885
23.5358
18.6589
10.4469
2.2615
-0.948512
-1.78534
1.07631
6.44223
13.2644
21.6295
29.9678
37.8668
45.5289
52.1432
56.5183
59.0076
59.8746
60.4333
58.3349
55.4331
51.665
47.065
42.482
40.8721
41.7234
43.0441
45.7279
49.318
51.1263
52.3828
52.738
54.1732
54.7722
57.2232
59.2332
59.8582
51.909
43.3386
39.9008
33.7739
31.554
25.225
27.2113
26.5421
33.5788
39.9028
47.5858
53.3024
58.6576
59.4182
62.3524
60.7929
62.1123
58.2031
56.638
50.8425
46.5889
41.1791
37.4974
36.7843
35.5886
35.5647
32.5435
32.3777
36.5568
35.8003
34.3536
32.16
28.8171
26.6532
23.5785
20.5463
18.3342
16.4396
18.4984
22.2092
27.2623
35.2332
42.8181
51.1888
57.0807
60.4341
63.2399
63.0517
59.8394
54.4176
47.2008
41.2508
37.133
32.4459
28.995
28.2667
30.0096
33.0151
36.1062
37.0083
35.725
33.7362
31.9265
29.3364
26.0253
20.4554
10.9119
1.70424
-2.4187
-4.3309
-0.935055
4.23347
11.4329
20.2346
28.6876
36.9738
44.7741
52.1028
56.795
59.6447
61.0682
62.194
60.5622
57.8378
54.8147
51.113
46.7882
45.0202
45.867
47.2374
49.4319
51.7754
52.6235
53.1794
53.135
54.3254
54.5152
58.0261
60.5212
60.3521
50.7592
42.3302
38.2873
32.6583
30.1093
23.2307
26.2828
23.3121
32.6921
37.5036
47.0977
52.2526
59.0287
59.3136
63.352
61.408
62.6686
59.081
56.6674
51.1796
46.4047
42.0289
38.1744
36.8461
35.1091
35.5406
32.4142
32.1705
36.5516
35.5246
34.0649
32.4527
29.1987
27.2878
25.1218
22.2446
20.777
19.4904
21.1192
24.5787
28.9808
36.0207
42.5712
49.8552
55.5691
58.4559
60.9621
61.3338
58.9876
54.8361
48.9606
44.1256
40.5842
36.9781
34.2271
33.7871
35.6494
38.5905
41.1207
40.9191
38.5319
35.9476
34.0582
31.5557
28.4484
22.2238
11.1698
1.09619
-3.6818
-6.14398
-2.59223
1.88489
9.87343
19.063
27.798
36.4289
44.4504
52.3524
57.2104
60.509
62.6769
64.1477
62.7174
60.3868
57.8235
54.5719
50.6769
48.9096
49.8537
51.3146
52.9979
54.2477
54.1309
53.9738
53.9067
54.7305
54.6942
58.5569
61.3591
60.32
50.1447
42.5209
36.8014
31.8971
28.9553
22.3519
25.4481
20.4682
32.5374
34.85
47.1935
50.9298
59.7637
60.0229
64.3315
62.286
62.7515
59.6161
56.6681
51.6268
46.7958
43.1137
39.0868
37.4485
35.2069
35.6606
32.3961
31.4511
36.7697
35.5321
33.8426
32.6302
29.6073
27.9352
26.6128
23.977
22.9285
22.2092
23.4502
26.4834
30.2711
36.4331
42.1217
48.4112
53.9893
56.537
58.9126
59.9165
58.2888
55.1236
50.5939
46.7654
43.8788
41.2731
39.2469
39.2762
41.1698
43.8832
45.7363
44.3473
41.0106
37.9633
36.0138
33.5375
30.6124
24.0186
11.368
0.969058
-4.41724
-7.00403
-3.90292
-0.110293
8.80511
18.0649
27.2041
36.2235
44.608
52.6886
57.87
61.9618
64.5392
66.054
64.8259
62.7866
60.4635
57.6112
54.2468
52.6661
53.6392
55.1165
56.3681
56.7093
55.5965
54.8496
54.8787
55.3571
55.286
58.939
61.2326
59.6819
49.765
43.4009
35.4428
31.3595
28.0895
22.3194
24.599
18.706
32.619
32.1664
47.6294
49.9008
61.1877
61.4121
64.9377
63.0707
62.4442
59.7022
56.8617
52.6154
47.6231
44.3189
40.1953
38.372
35.6278
35.6212
32.3973
30.6675
36.8055
35.4251
33.8216
32.8055
30.083
28.6533
27.9659
25.6914
24.8298
24.5414
25.4711
27.991
31.1913
36.5715
41.5114
46.903
52.2685
54.6623
56.9791
58.594
57.6455
55.2778
52.1088
49.2404
47.1093
45.3281
44.049
44.5946
46.402
48.7395
49.8038
47.284
43.059
39.6603
37.632
35.1069
32.2179
25.67
11.7871
1.77445
-4.36172
-7.1102
-5.07808
-1.33047
8.20932
17.265
27.003
36.2112
44.9635
53.1977
59.0121
63.74
66.3973
67.8525
66.8785
65.0484
63.0255
60.5576
57.6737
56.3474
57.214
58.5833
59.4233
58.936
56.9258
55.7874
55.8385
56.1184
55.91
59.0362
60.3352
58.6707
49.3481
43.7549
33.9917
30.9842
27.4444
22.5446
23.9469
18.2495
32.6205
30.2228
48.6851
50.1153
62.8921
63.089
65.1351
63.4256
62.244
59.8831
57.3835
53.9903
48.8359
45.6814
41.4534
39.3312
36.2224
35.426
32.4719
30.2722
36.7163
35.3493
33.9949
33.0519
30.6237
29.4763
29.1693
27.2945
26.5142
26.4883
27.2114
29.2989
31.934
36.4461
40.7119
45.3251
50.3498
52.7791
55.1179
57.2867
57.0887
55.5375
53.5624
51.6723
50.3173
49.1153
48.5599
49.4171
51.0589
53.0781
53.2532
49.7125
44.7241
40.9917
38.7817
36.1068
32.9963
26.6952
12.6079
3.10471
-3.79224
-6.75158
-5.85621
-1.54072
8.03816
16.9365
27.1929
36.3777
45.6756
54.3245
60.5549
65.5001
68.222
69.601
68.9825
67.4273
65.6742
63.4415
60.9488
59.8657
60.5254
61.6626
62.1386
60.9092
58.1808
56.7434
56.6636
56.8734
56.4363
58.724
59.3639
58.0338
49.4668
43.6788
32.5374
31.1737
27.0072
22.7717
23.6342
18.8028
32.5646
29.8618
50.6318
51.5133
63.8907
64.2806
65.2311
63.7058
62.4905
60.6451
58.2209
55.4506
50.33
47.1542
42.733
40.2202
36.8935
35.3101
32.6309
30.1207
36.5956
35.2899
34.2657
33.367
31.252
30.3234
30.1928
28.753
28.0228
28.205
28.8247
30.4552
32.5503
36.1263
39.7375
43.6428
48.2404
50.8598
53.362
56.0797
56.7039
55.9033
54.8462
53.9481
53.26
52.4784
52.5074
53.5142
55.0491
56.7451
56.0954
51.6463
46.0661
42.0031
39.4177
36.4355
32.92
27.0521
13.9544
4.27343
-3.20938
-6.14533
-6.16937
-0.83733
8.24751
17.3138
27.6887
36.9251
46.9937
55.9851
62.2347
67.257
70.0896
71.3919
71.1473
69.8743
68.2344
66.147
64.2815
63.0833
63.4884
64.3243
64.4437
62.6162
59.3536
57.6392
57.3255
57.3356
56.8082
57.8999
58.4801
57.7606
50.3605
44.7103
32.0746
32.4595
26.8202
23.2695
23.6812
20.0894
32.4225
31.3673
53.2664
53.2134
63.3882
64.3988
65.4527
64.4049
63.3655
61.9033
59.2076
56.8442
51.9039
48.6239
43.9989
41.0631
37.6285
35.348
32.8196
30.1942
36.4331
35.2666
34.5468
33.7495
31.9806
31.1592
31.0791
30.103
29.4539
29.7825
30.2895
31.4364
33.0785
35.6898
38.6351
41.9148
46.0784
48.9756
51.7657
55.0012
56.3885
56.2767
56.0426
55.9613
55.7067
55.2951
55.7423
56.8418
58.3944
59.6668
58.2811
53.1373
47.1488
42.7838
39.5855
36.0951
32.1922
27.01
16.2089
5.9836
-1.74039
-4.7646
-5.3469
0.503077
8.81144
18.3588
28.4729
37.8571
48.7676
57.6565
63.982
69.1321
72.0584
73.2144
73.2037
72.1746
70.5175
68.5164
66.882
65.8074
65.982
66.5037
66.3051
64.0834
60.4935
58.494
57.9158
57.6492
56.9584
56.921
57.7796
57.4298
51.37
46.8548
32.884
34.5315
27.0028
24.747
24.2146
21.9716
35.6698
34.86
54.7919
54.1645
62.1869
64.2388
65.995
65.6645
64.5685
63.4048
60.2983
58.1535
53.4084
49.9782
45.2651
41.8935
38.3893
35.5637
33.0429
30.3374
36.2048
35.2899
34.8622
34.1477
32.7894
32.0533
31.8788
31.3309
30.7943
31.182
31.6056
32.3041
33.5313
35.1933
37.4764
40.3137
43.9579
47.1822
50.3901
54.019
56.0684
56.7389
57.2424
57.6525
57.6245
57.6765
58.4408
59.4953
60.9215
61.7647
59.7963
54.2249
48.0459
43.427
39.3871
35.1789
31.0771
26.9944
18.7652
8.70745
1.40661
-2.13665
-3.26807
2.27711
9.78136
19.9034
29.6338
39.0933
50.7708
59.1918
65.9403
71.0896
74.0345
74.9575
75.0174
74.1374
72.4362
70.5208
68.9915
67.9808
67.9696
68.1461
67.6732
65.2963
61.6094
59.3272
58.4604
57.9412
57.0774
56.6306
57.2182
56.9883
52.1937
48.9762
33.8308
36.5439
27.3622
27.3311
26.0825
24.9939
38.2471
38.6682
54.2648
53.2087
61.1309
64.9808
67.0023
67.1922
65.6411
64.9004
61.6225
59.4037
54.793
51.1425
46.4763
42.6941
39.1355
35.9276
33.3273
30.5704
35.9358
35.3219
35.227
34.6068
33.6597
32.9737
32.599
32.3693
32.0184
32.405
32.7261
33.0379
33.8599
34.7486
36.4898
38.9972
42.1792
45.6705
49.3039
53.1437
55.8112
57.3109
58.4121
59.1437
59.3738
59.805
60.5917
61.4385
62.5466
63.0029
60.6822
54.9805
48.8246
44.0279
39.0781
34.175
30.0987
27.3563
21.1466
11.778
5.04392
0.70709
-1.00756
4.19053
11.0988
21.7593
31.0729
40.6301
52.9301
60.7275
68.0606
73.01
75.8644
76.5502
76.5577
75.7225
74.007
72.1494
70.6524
69.6446
69.4321
69.263
68.5517
66.2261
62.6765
60.1725
59.05
58.2803
57.2866
56.8167
56.8902
56.6866
53.0253
50.6338
35.3481
38.0951
28.4725
30.5071
29.0185
29.5986
39.6406
41.243
52.4927
52.9177
60.6945
67.248
68.1779
68.9032
66.6605
66.2221
63.0433
60.5787
56.0976
52.093
47.4762
43.4826
39.9217
36.6888
33.6904
30.9087
35.6742
35.3485
35.6224
35.1241
34.4468
33.8098
33.2626
33.2117
33.069
33.4029
33.5951
33.6292
34.0927
34.4414
35.7767
38.0332
40.8809
44.558
48.5218
52.484
55.7017
57.9791
59.5561
60.4758
60.9959
61.5116
62.0672
62.5856
63.3356
63.4607
61.0095
55.4979
49.5464
44.6632
38.8722
33.4759
29.7395
28.1003
23.5695
15.3257
8.61577
3.38914
1.58501
6.38637
12.8481
23.8392
32.6988
42.4687
54.8768
62.3346
70.2074
74.8389
77.5104
78.0205
77.8639
76.9881
75.2716
73.4365
71.8991
70.8551
70.415
69.9123
69.0076
66.8639
63.6107
61.0021
59.6592
58.6805
57.5632
56.8734
56.8303
56.726
54.1491
52.0347
38.5863
39.6749
30.3683
33.4504
31.7101
33.8274
40.58
42.2341
50.6958
56.4553
61.9832
70.9575
69.0629
70.673
67.9725
67.47
64.2643
61.5009
57.1858
52.9079
48.3152
44.2276
40.5662
37.0442
33.9977
31.2239
35.4593
35.3579
35.9472
35.5963
35.0585
34.468
33.8369
33.8679
33.8852
34.1266
34.2193
34.0875
34.2509
34.3172
35.386
37.4097
40.0599
43.8685
48.0454
52.1291
55.7825
58.6236
60.4986
61.5496
62.1946
62.6186
62.8394
63.0185
63.4629
63.3199
60.8968
55.8349
50.2242
45.1571
39.0277
33.3526
29.9503
28.9823
25.9151
19.3319
12.524
6.71655
5.10935
9.12425
14.9822
25.9632
34.2894
44.5017
56.5202
64.1526
72.1882
76.5112
79.015
79.3583
78.9391
77.9829
76.2502
74.4062
72.784
71.6574
70.9896
70.2218
69.1816
67.2261
64.2903
61.7235
60.216
59.089
57.8806
57.1386
56.9794
57.001
55.5075
53.0454
42.7787
41.6981
32.8664
35.791
34.0362
36.8548
41.4374
44.0837
50.5533
64.3905
63.0143
74.9692
69.6387
72.1994
69.2643
68.56
65.1586
62.152
57.9494
53.5467
48.9749
44.7529
40.9444
37.3274
34.2761
31.5796
35.5172
35.4571
36.0997
35.8926
35.4435
34.9098
34.2894
34.3297
34.4314
34.6014
34.6279
34.4209
34.3986
34.3694
35.2618
37.1062
39.7077
43.577
47.8481
52.0235
55.9339
59.0908
61.141
62.2506
62.8403
63.1123
63.0749
63.0225
63.2017
62.8246
60.532
56.0508
50.8544
45.7278
39.43
33.6612
30.6267
29.7343
27.7807
23.0275
16.5781
10.6422
9.09144
12.0412
17.0077
27.8033
35.7315
46.7148
57.9517
65.9758
73.847
77.9932
80.3293
80.4685
79.7859
78.729
76.9566
74.9736
73.3251
72.1063
71.2884
70.3551
69.2007
67.3374
64.6655
62.2438
60.6548
59.4635
58.1984
57.3923
57.2171
57.2528
56.2446
53.8293
46.0157
43.7646
35.8025
37.6884
36.2089
39.3241
40.8088
49.3362
52.6957
71.3446
63.2687
78.0329
70.1068
73.3453
70.2176
69.2831
65.7765
62.6353
58.404
53.9534
49.437
45.1536
41.2181
37.5185
34.4605
31.9222
35.6194
35.5816
36.1688
36.0388
35.6527
35.169
34.602
34.6073
34.7304
34.8634
34.8601
34.6504
34.5515
34.5335
35.336
37.0748
39.6934
43.542
47.8169
52.0541
56.0825
59.3461
61.4426
62.5371
63.0387
63.1847
63.0334
62.9067
62.9299
62.2456
60.1114
56.1683
51.4102
46.3177
40.0486
34.2506
31.2991
30.3104
28.8864
25.5412
20.1239
14.6129
12.6271
14.0735
18.5876
29.3229
36.7973
48.6082
59.1395
67.5457
74.9994
79.1511
81.3727
81.2853
80.4
79.2036
77.3857
75.3639
73.6209
72.3387
71.4444
70.4285
69.1534
67.267
64.7464
62.5092
60.9699
59.7673
58.4684
57.581
57.3824
57.3663
56.4932
54.1093
47.9047
45.2051
38.1656
39.318
37.3767
41.8457
40.8152
55.9608
56.1511
75.2439
62.9966
80.1282
70.1847
74.0857
70.9486
69.6158
66.1701
62.9219
58.7388
54.2806
49.8387
45.5217
41.432
37.5263
34.4723
32.1681
35.7567
35.729
36.204
36.0878
35.7316
35.2712
34.7643
34.7287
34.8487
34.9665
34.9505
34.772
34.6689
34.7106
35.5013
37.1996
39.8412
43.6454
47.8843
52.1326
56.165
59.3988
61.4764
62.5539
63.0003
63.1321
62.9832
62.8544
62.7633
61.9174
59.7996
56.1575
51.7182
46.7799
40.636
34.9757
31.6557
30.3246
29.201
26.6611
22.3636
17.8231
15.479
15.9258
20.7427
30.4883
37.61
49.9512
60.0063
68.6714
75.6471
79.8329
82.0616
81.7557
80.759
79.443
77.5751
75.5053
73.7434
72.4597
71.5051
70.4372
69.077
67.1787
64.7486
62.6432
61.1724
59.9455
58.6008
57.6829
57.3579
57.2657
56.4002
54.0372
48.9098
46.0439
39.5044
40.3375
38.0036
43.9689
42.8192
60.9733
57.987
77.2824
62.6083
81.5966
70.6354
74.2886
71.5293
69.6645
66.3585
63.0349
58.9593
54.4533
50.0154
45.705
41.5404
37.5908
34.512
32.1991
35.949
35.8541
36.1543
36.0677
35.7326
35.2831
34.8225
34.7583
34.8585
34.9658
34.9534
34.8089
34.7123
34.8083
35.6188
37.3148
39.9969
43.7499
47.9497
52.1716
56.1959
59.3718
61.4243
62.5055
62.9813
63.1176
63.0008
62.8776
62.7308
61.7935
59.5828
55.9907
51.6554
46.9808
40.97
35.4295
31.8662
30.1952
28.8665
26.3503
23.2647
19.5389
17.1152
17.2175
22.0477
31.2036
38.1095
50.6528
60.745
69.2254
75.8225
80.1575
82.2971
81.8718
80.8366
79.4813
77.6259
75.588
73.8054
72.4969
71.4673
70.3542
68.9812
67.1039
64.7643
62.7198
61.2595
59.9845
58.6195
57.7026
57.3478
57.2317
56.1688
53.873
49.1565
46.4192
40.0854
40.7085
38.2057
44.9607
43.7936
63.3225
58.4519
78.3019
62.5144
82.233
70.7475
74.2723
71.6161
69.5416
66.3257
62.9948
58.9508
54.4171
49.9813
45.6503
41.51
37.6021
34.5592
32.1209
32.9039
32.7512
32.3558
31.7515
31.5716
31.3211
31.6326
31.5327
30.388
29.6114
29.9047
31.6236
34.4562
37.259
39.8211
42.0643
43.3936
44.4709
45.6454
45.0979
42.8977
41.4241
41.1034
39.881
36.5053
32.129
26.6237
20.5264
16.6276
15.4916
16.9061
22.4582
32.2664
42.6659
54.7727
64.5288
71.256
74.6953
75.317
74.7901
73.6783
72.3209
70.6693
69.0131
67.6916
66.6476
65.7085
65.1417
65.2677
65.8105
66.9066
68.8695
70.3063
69.8957
67.6242
63.7884
58.1352
51.5854
45.6996
42.0226
42.8061
46.2428
53.5649
61.4237
68.1157
72.6267
74.9257
75.7843
75.7473
75.1534
74.132
72.7547
71.1371
69.3595
67.4778
65.5958
63.911
62.638
61.8554
61.4698
61.3204
61.2802
61.2733
61.2487
61.1599
60.9632
60.6342
60.1292
59.4103
58.4522
57.2263
55.8441
54.3804
52.9403
51.6432
50.5398
49.4227
49.0696
50.1298
50.8495
32.9401
32.6777
32.2889
31.701
31.5144
31.2999
31.7427
31.5215
30.1738
29.2188
29.443
31.2643
34.4318
37.4458
40.0029
42.1504
43.4049
44.3364
45.4405
44.9916
42.8573
41.3552
41.1454
40.158
37.0353
31.8407
25.6339
19.388
15.4945
14.5976
16.1319
21.4019
31.4227
42.1475
54.2799
64.3475
71.1771
74.6929
75.1873
74.5944
73.4627
72.1748
70.575
68.9171
67.5865
66.583
65.6406
65.0541
65.2783
65.891
66.8976
68.8554
70.3961
70.0916
67.8627
63.7796
57.683
50.9571
44.9918
41.1853
42.132
45.5913
53.0848
61.1562
68.0526
72.6547
74.978
75.8171
75.762
75.1674
74.1488
72.7802
71.1574
69.3727
67.4738
65.5644
63.8514
62.5681
61.796
61.4306
61.3013
61.2754
61.2813
61.265
61.182
60.9965
60.6702
60.1679
59.4547
58.4971
57.2457
55.8506
54.373
52.9209
51.6187
50.4646
49.2034
48.7933
49.8055
50.5368
32.9762
32.6474
32.1625
31.6194
31.3803
31.2508
31.8998
31.4733
29.7459
28.4462
28.605
30.8236
34.57
37.8337
40.4401
42.5219
43.6631
44.3274
45.0429
44.3346
42.2682
41.1678
41.3011
39.8151
35.8779
29.916
23.3827
17.3251
13.4535
12.9856
15.0086
19.4447
29.7399
41.1473
53.3568
64.0843
70.9454
74.5184
74.9609
74.1348
72.9438
71.7293
70.2098
68.6214
67.3585
66.4484
65.5334
64.9455
65.2256
65.9871
67.0946
69.0007
70.6035
70.3178
67.9054
63.4651
56.713
49.62
43.6117
39.5598
40.7711
44.2125
51.8515
60.4492
67.7445
72.5895
74.9701
75.8041
75.7453
75.1596
74.1447
72.7695
71.1397
69.3429
67.4237
65.4827
63.7343
62.4376
61.6823
61.3518
61.2553
61.2523
61.2716
61.2717
61.2033
61.0362
60.7318
60.2514
59.5422
58.5668
57.3
55.8585
54.3492
52.874
51.5498
50.346
48.883
48.3869
49.2696
50.0793
33.006
32.6482
32.0821
31.5711
31.3076
31.1631
31.8816
31.2687
29.2116
27.5938
27.7498
30.3861
34.7388
38.3583
41.2398
43.4252
44.4071
44.7823
44.7836
43.4604
41.5159
40.7196
40.8186
38.4412
33.2197
26.4505
20.206
14.8543
11.1632
10.8119
13.6952
17.7484
27.6584
39.7608
52.1769
63.5871
70.5897
74.1691
74.5567
73.4513
72.1349
71.0067
69.6093
68.0904
66.9085
66.2099
65.3565
64.651
64.9533
65.9521
67.2272
69.1459
70.7321
70.3541
67.6003
62.6304
55.2847
47.5335
41.488
37.1106
38.4051
42.0285
49.7356
59.1976
67.1095
72.38
74.8809
75.7233
75.6704
75.121
74.1396
72.7503
71.1003
69.2924
67.3457
65.34
63.5295
62.2238
61.5064
61.2238
61.1657
61.1875
61.2332
61.2594
61.221
61.08
60.8047
60.3434
59.651
58.6723
57.3731
55.8623
54.312
52.8106
51.4438
50.1697
48.5173
47.9042
48.6932
49.5096
33.064
32.6536
32.0167
31.5087
31.2078
31.0195
31.6462
30.8315
28.5091
26.6758
26.8099
29.8388
34.8674
38.9341
42.0965
44.3926
45.4563
45.5445
44.7494
42.7682
40.5838
40.2585
39.8249
36.0783
29.7131
22.5831
16.8475
12.3096
9.02831
8.49772
12.0722
15.9561
25.2385
37.997
50.751
62.7382
70.0064
73.5647
73.8701
72.5287
71.0316
69.975
68.727
67.3119
66.2655
65.7946
65.0461
64.306
64.5907
65.7837
67.1396
69.0621
70.6371
70.1233
66.7436
61.0043
53.1621
44.7083
38.691
33.9866
35.3329
39.17
46.8282
57.3663
66.1265
71.99
74.6733
75.5397
75.5178
75.0214
74.0588
72.7279
71.0701
69.2415
67.2404
65.1362
63.2403
61.9267
61.2643
61.0441
61.0302
61.0816
61.1537
61.213
61.2064
61.1022
60.8615
60.439
59.7676
58.7818
57.4522
55.8656
54.2567
52.7198
51.2954
49.9605
48.1617
47.4
48.1418
48.9617
33.1548
32.7004
31.9837
31.4652
31.0729
30.7488
31.1018
29.9455
27.4577
25.5823
25.7603
29.2738
34.86
39.3125
42.8179
45.3945
46.5401
46.3004
44.8792
42.5479
40.3677
39.7153
38.1437
33.0139
26.0472
19.0037
13.6703
9.72636
6.98074
6.16358
10.1637
14.0239
22.7158
35.9974
48.9928
61.4293
69.0398
72.6095
72.7784
71.3366
69.6209
68.5961
67.5509
66.2425
65.3238
65.1691
64.6406
63.9539
64.2737
65.5904
67.0363
68.9106
70.3986
69.5945
65.2517
58.6147
50.6646
41.4835
35.5142
30.534
31.8174
35.8201
43.2279
54.8903
64.6954
71.4168
74.3616
75.2198
75.1963
74.7913
73.9142
72.5365
70.8786
69.0798
67.086
64.8748
62.8453
61.5229
60.9505
60.8128
60.8358
60.9161
61.03
61.1378
61.1773
61.1106
60.9063
60.5147
59.8656
58.8756
57.5142
55.8694
54.1853
52.5911
51.0958
49.7464
47.9137
47.0716
47.7651
48.5013
33.32
32.7934
31.9645
31.4062
30.8582
30.2203
29.9005
28.2768
25.7379
23.9658
24.4396
28.5992
34.5377
39.3977
43.4986
46.4602
47.5154
47.0096
45.2773
42.9319
40.7083
39.1835
36.0135
29.9221
22.7371
15.9719
10.7908
7.16709
4.97216
3.90483
8.2127
12.3999
20.4327
34.1386
47.2421
59.6384
67.5328
71.1459
71.1506
69.7575
67.8713
66.8223
66.0431
64.8805
64.1364
64.2734
64.0198
63.5482
64.0194
65.4142
66.9034
68.6549
69.9152
68.6814
63.5005
56.252
48.2001
38.153
32.0612
26.8716
27.7539
32.2359
39.4599
51.8443
62.6715
70.5052
73.8958
74.7767
74.7362
74.391
73.5781
72.2358
70.6072
68.8322
66.7997
64.4944
62.3846
61.0561
60.5624
60.5081
60.5919
60.727
60.8993
61.0542
61.1331
61.1028
60.9315
60.5661
59.9261
58.9321
57.544
55.8603
54.0967
52.4281
50.8507
49.4978
47.7642
46.9237
47.5478
48.1621
33.5815
32.9987
32.0305
31.3629
30.545
29.3081
27.8996
25.5672
22.9905
21.58
22.7773
27.5446
33.7103
39.2012
44.1259
47.4893
48.3395
47.7496
46.063
44.0562
41.7089
39.0095
33.9777
27.2021
19.9711
13.3463
8.17092
4.78677
3.11007
1.93458
6.39134
11.0461
18.814
32.579
45.5563
57.5723
65.5227
69.0884
68.9226
67.7021
65.7747
64.621
64.1176
63.2078
62.7076
63.1077
63.1861
63.0858
63.774
65.2157
66.7849
68.2755
69.0831
67.2225
61.6794
54.2167
45.4439
34.5121
28.4425
23.4518
24.1754
29.047
36.2176
48.7008
60.3872
69.1617
73.1653
74.127
74.0975
73.832
73.0942
71.7444
70.1334
68.423
66.4088
64.0603
61.8816
60.5383
60.1059
60.1439
60.3048
60.5077
60.7352
60.9482
61.0757
61.0826
60.9384
60.5975
59.9662
58.9656
57.5578
55.8289
54.0076
52.2289
50.5802
49.1653
47.6793
46.8929
47.3961
47.9512
33.9528
33.3396
32.3185
31.4372
30.1636
27.9915
25.0599
21.7761
19.3782
18.5624
20.5156
25.7552
32.2933
38.5862
44.5374
48.183
48.9896
48.6113
47.3184
45.6713
43.1569
39.1545
32.4547
24.868
17.5045
10.8825
5.7489
2.66773
1.40508
0.360942
4.80123
9.69875
17.4028
31.0329
43.8132
55.3043
63.0671
66.4667
66.1145
65.051
63.26
62.0315
61.7915
61.2025
61.0206
61.6974
62.1496
62.4659
63.4668
64.9836
66.5381
67.7629
68.0089
65.3569
59.733
51.7017
42.1153
30.9356
25.0659
20.361
20.8951
25.9695
32.8676
45.7678
58.1312
67.5578
72.2287
73.3237
73.271
73.0595
72.4096
71.0889
69.5034
67.8427
65.8417
63.4712
61.291
59.9925
59.6127
59.6985
59.9342
60.2299
60.555
60.8387
61.0156
61.0615
60.96
60.6369
60.0068
58.9839
57.5493
55.79
53.8825
52.0162
50.2659
48.8151
47.5295
46.7979
47.2783
47.8556
34.3995
33.8006
32.7713
31.6398
29.777
26.3837
21.6193
17.4581
15.2416
14.9229
17.2894
22.9645
30.0448
37.2682
44.2459
48.3983
49.5344
49.716
49.105
47.7433
44.7387
39.3531
31.635
23.2235
15.5099
8.84285
3.72469
0.862701
-0.173022
-1.05599
3.35668
8.47739
16.2491
29.4188
41.8175
52.7897
60.2019
63.2576
62.7766
61.8613
60.3083
59.0538
59.0295
58.8832
59.1178
60.0715
60.8811
61.6546
63.0574
64.673
66.1147
67.1958
66.8907
63.6023
57.7742
48.7884
39.0603
28.1479
21.9655
17.2224
17.1952
22.9631
29.9161
42.8177
55.8222
65.8691
71.1178
72.429
72.3492
72.1328
71.5568
70.2305
68.6689
67.1051
65.0907
62.6812
60.5965
59.3889
59.0257
59.1316
59.4709
59.9132
60.3558
60.7266
60.9632
61.0473
60.964
60.6635
60.0373
59.0134
57.5393
55.7292
53.7349
51.7507
49.9349
48.459
47.3397
46.746
47.2284
47.8609
34.8448
34.3036
33.3119
31.9256
29.4042
24.7694
18.1304
13.1782
11.1617
10.9847
13.4436
19.4485
26.9442
35.177
43.1256
48.4105
50.1977
51.2864
51.4913
50.3109
46.574
39.6921
31.18
22.2284
13.9832
7.1782
2.05205
-0.609614
-1.58426
-2.18867
2.06508
7.52131
15.6009
28.1005
39.7182
49.9544
56.9311
59.5752
58.9505
58.1234
56.8863
55.7262
55.8823
56.2639
56.9781
58.2342
59.4001
60.6508
62.4771
64.2172
65.5261
66.587
65.8302
62.0894
55.7272
46.3286
36.7652
25.8359
18.9327
14.4009
14.2555
20.4981
27.8411
40.1967
53.639
64.1854
69.8413
71.3952
71.3379
71.0547
70.564
69.2424
67.6686
66.1736
64.1948
61.7202
59.6507
58.5377
58.2217
58.4066
58.8784
59.5051
60.1212
60.6104
60.8946
61.0115
60.9844
60.7208
60.1088
59.0482
57.5238
55.633
53.5177
51.4313
49.5367
48.0991
47.1795
46.7279
47.239
47.9711
35.2276
34.7648
33.8367
32.2428
29.073
23.3835
15.2027
9.54923
7.78703
7.62919
10.0021
15.9068
23.4945
32.3332
41.3982
48.1006
51.5812
53.5564
54.4291
53.2423
48.6382
40.287
30.7015
21.4684
12.7037
5.65512
0.571854
-1.77467
-2.76395
-2.97604
0.972951
6.7211
15.057
26.947
37.7264
46.942
53.2751
55.4633
54.673
53.8767
52.964
52.0508
52.3913
53.3195
54.597
56.2256
57.7591
59.4609
61.7092
63.5952
64.7673
65.7834
64.7108
60.532
53.7549
44.478
34.565
23.5569
16.1894
12.1531
11.8194
18.2098
25.8359
37.8765
51.6093
62.433
68.4257
70.0998
70.1558
69.7914
69.3217
68.1261
66.5679
65.0535
63.1105
60.5911
58.4738
57.3619
57.0842
57.4048
58.1142
59.0102
59.8564
60.457
60.8159
61.0103
61.0284
60.7906
60.1656
59.0777
57.4914
55.5046
53.2245
51.0012
49.0626
47.6436
46.9875
46.7933
47.2918
48.1735
35.5355
35.1367
34.2974
32.5559
28.8153
22.3308
13.1484
6.95462
5.38282
5.34839
7.54085
13.0293
20.3652
29.3804
39.6853
47.8399
53.0847
56.4671
57.773
56.2686
50.4852
41.0306
30.5298
21.1205
12.0201
4.63229
-0.520508
-2.57567
-3.50385
-3.44073
0.217896
6.06909
14.4261
25.6427
35.7521
43.7937
49.2136
50.9434
50.0098
49.2107
48.5326
47.94
48.5807
50.1059
51.9741
54.0466
55.9775
58.1065
60.7895
62.7808
63.8512
64.7383
63.3574
58.922
52.215
42.7836
32.5591
21.7817
13.8837
10.4705
10.1707
16.4347
24.3551
36.0346
49.7542
60.6884
66.8526
68.5586
68.7468
68.3175
67.8034
66.8024
65.3923
63.8401
61.7948
59.2862
57.1172
55.909
55.6287
56.1189
57.161
58.4112
59.505
60.2865
60.7565
60.9905
61.0545
60.8495
60.2457
59.1377
57.444
55.3167
52.8235
50.4241
48.4324
47.0321
46.6293
46.6493
47.3459
48.3934
35.794
35.4401
34.6577
32.8156
28.6466
21.651
11.9898
5.44433
3.8646
3.86991
5.74036
10.7608
18.0627
27.3221
38.6278
47.864
54.5628
59.7746
61.3818
59.4455
52.1657
42.0244
30.9269
21.1808
11.9595
4.25775
-1.11285
-3.04745
-3.95708
-3.66643
0.0133031
5.97266
14.0379
24.1843
33.7118
40.6632
44.9054
45.9689
44.8515
44.0867
43.7014
43.482
44.432
46.5735
49.1068
51.7196
54.0739
56.6643
59.7072
61.7856
62.8317
63.5391
61.8264
57.5761
51.1822
41.3364
31.2026
20.7563
12.2847
9.47998
9.49287
15.5863
23.4884
34.5783
48.1069
59.0526
65.1206
66.8213
67.1083
66.6573
66.1231
65.3166
64.1767
62.6445
60.3918
57.7686
55.4816
54.2173
53.9593
54.6486
56.0618
57.6503
59.0566
60.0639
60.6339
60.9613
61.0868
60.9433
60.3578
59.1671
57.3329
55.0144
52.3089
49.6724
47.5995
46.2079
46.0597
46.3618
47.2931
48.4605
36.0253
35.7005
34.9613
33.0377
28.5999
21.33
11.6532
4.92729
3.09092
2.98198
4.44819
8.89937
16.4771
26.2757
38.2655
48.2598
56.0288
63.1686
65.0867
62.6305
54.0592
43.2662
31.5633
21.3315
12.2244
4.2761
-1.35661
-3.34355
-4.19091
-3.75586
0.196016
6.55239
14.151
22.817
31.4621
37.3483
40.3969
40.6929
39.3169
38.4991
38.3827
38.6541
40.0733
42.8233
45.9753
49.1928
52.0809
55.1448
58.4255
60.7083
61.7816
62.2779
60.4265
56.5151
50.3559
40.3032
30.4064
20.3876
11.6372
9.25058
9.47656
15.2698
23.11
33.5884
46.6412
57.4803
63.3688
64.9263
65.2148
64.8355
64.4101
63.8766
63.1424
61.5636
59.0563
56.1561
53.6823
52.2378
52.0382
53.0259
54.7647
56.7064
58.4327
59.6781
60.4778
60.918
61.1493
61.0344