/*--------------------------------*- C++ -*----------------------------------*\
| =========                 |                                                 |
| \\      /  F ield         | OpenFOAM: The Open Source CFD Toolbox           |
|  \\    /   O peration     | Version:  2.4.0                                 |
|   \\  /    A nd           | Web:      www.OpenFOAM.org                      |
|    \\/     M anipulation  |                                                 |
\*---------------------------------------------------------------------------*/
FoamFile
{
    version     2.0;
    format      ascii;
    class       surfaceScalarField;
    location    "0.119";
    object      phi;
}
// * * * * * * * * * * * * * * * * * * * * * * * * * * * * * * * * * * * * * //

dimensions      [0 3 -1 0 0 0 0];

internalField   nonuniform List<scalar> 
8640
(
1.14666e-05
1.35334e-05
7.17174e-06
4.29484e-06
5.92099e-06
1.25075e-06
5.36668e-06
5.54304e-07
5.08978e-06
2.76901e-07
4.92951e-06
1.60267e-07
4.81297e-06
1.16542e-07
4.74901e-06
6.3962e-08
4.40816e-06
3.40852e-07
-1.5561e-06
5.96426e-06
2.10484e-05
1.7485e-05
1.74472e-05
7.89605e-06
1.55196e-05
3.17841e-06
1.42526e-05
1.82125e-06
1.3474e-05
1.0555e-06
1.30097e-05
6.24639e-07
1.26852e-05
4.41014e-07
1.24652e-05
2.83982e-07
1.20464e-05
7.59656e-07
-1.79677e-06
1.2287e-05
2.56957e-05
1.67893e-05
2.40967e-05
9.495e-06
2.26169e-05
4.65826e-06
2.12395e-05
3.19861e-06
2.02055e-05
2.08954e-06
1.95451e-05
1.28504e-06
1.90816e-05
9.04531e-07
1.872e-05
6.45504e-07
1.83535e-05
1.12621e-06
-1.44488e-06
1.80016e-05
2.74579e-05
1.43314e-05
2.7724e-05
9.22889e-06
2.73711e-05
5.0112e-06
2.65376e-05
4.03207e-06
2.56355e-05
2.9917e-06
2.49641e-05
1.9564e-06
2.44963e-05
1.37234e-06
2.40313e-05
1.11054e-06
2.37283e-05
1.42917e-06
-9.87767e-07
2.32712e-05
2.76623e-05
1.16691e-05
2.88872e-05
8.00402e-06
2.95959e-05
4.30246e-06
2.96983e-05
3.92968e-06
2.9381e-05
3.30897e-06
2.897e-05
2.36741e-06
2.87089e-05
1.6335e-06
2.82733e-05
1.54615e-06
2.80652e-05
1.63727e-06
-5.7461e-07
2.7652e-05
2.75259e-05
9.14311e-06
2.89407e-05
6.58929e-06
2.99788e-05
3.26435e-06
3.07008e-05
3.20761e-06
3.11144e-05
2.89543e-06
3.11588e-05
2.32301e-06
3.13298e-05
1.46251e-06
3.11367e-05
1.73925e-06
3.11703e-05
1.60362e-06
6.33059e-08
3.05324e-05
2.74198e-05
6.72335e-06
2.89204e-05
5.0887e-06
2.98939e-05
2.29081e-06
3.06865e-05
2.41498e-06
3.14235e-05
2.1585e-06
3.17442e-05
2.00228e-06
3.22378e-05
9.68924e-07
3.23841e-05
1.59292e-06
3.27883e-05
1.19942e-06
9.58111e-07
3.18935e-05
2.73321e-05
4.39129e-06
2.89652e-05
3.45558e-06
2.98112e-05
1.44481e-06
3.06472e-05
1.57894e-06
3.13342e-05
1.47155e-06
3.1743e-05
1.59342e-06
3.22302e-05
4.81787e-07
3.26947e-05
1.12837e-06
3.33732e-05
5.20966e-07
4.32067e-07
3.38992e-05
2.72442e-05
2.14711e-06
2.89232e-05
1.77653e-06
2.97508e-05
6.17235e-07
3.05358e-05
7.93965e-07
3.11905e-05
8.16835e-07
3.17405e-05
1.04337e-06
3.22423e-05
-1.99856e-08
3.28081e-05
5.62641e-07
3.32793e-05
4.97523e-08
-1.27582e-07
3.38389e-05
2.72271e-05
-7.9951e-08
2.8958e-05
4.56115e-08
2.96492e-05
-7.4026e-08
3.03947e-05
4.85221e-08
3.11587e-05
5.28585e-08
3.18395e-05
3.62523e-07
3.22938e-05
-4.74282e-07
3.2685e-05
1.71459e-07
3.31287e-05
-3.93983e-07
-9.79385e-07
3.39805e-05
2.72515e-05
-2.33148e-06
2.89526e-05
-1.65549e-06
2.9608e-05
-7.29353e-07
3.03881e-05
-7.31639e-07
3.11515e-05
-7.1057e-07
3.18748e-05
-3.60733e-07
3.2287e-05
-8.86511e-07
3.26777e-05
-2.19206e-07
3.3178e-05
-8.94282e-07
-1.87762e-06
3.40762e-05
2.72794e-05
-4.61087e-06
2.89432e-05
-3.31931e-06
2.96363e-05
-1.42242e-06
3.04453e-05
-1.54069e-06
3.12029e-05
-1.4681e-06
3.18996e-05
-1.05748e-06
3.22982e-05
-1.28513e-06
3.27515e-05
-6.7245e-07
3.32929e-05
-1.43574e-06
-2.56343e-06
3.39787e-05
2.73203e-05
-6.93112e-06
2.89269e-05
-4.92598e-06
2.9709e-05
-2.20446e-06
3.05644e-05
-2.39616e-06
3.1299e-05
-2.20267e-06
3.19126e-05
-1.6711e-06
3.2322e-05
-1.69455e-06
3.28326e-05
-1.18304e-06
3.33543e-05
-1.95744e-06
-2.91677e-06
3.37077e-05
2.73615e-05
-9.29259e-06
2.88203e-05
-6.38478e-06
2.9854e-05
-3.23814e-06
3.07158e-05
-3.25798e-06
3.13955e-05
-2.88244e-06
3.19034e-05
-2.17899e-06
3.2249e-05
-2.04013e-06
3.26113e-05
-1.54529e-06
3.28568e-05
-2.203e-06
-2.82412e-06
3.27642e-05
2.74482e-05
-1.17408e-05
2.89024e-05
-7.8389e-06
3.00139e-05
-4.34964e-06
3.07345e-05
-3.97858e-06
3.11219e-05
-3.26987e-06
3.12703e-05
-2.3274e-06
3.12662e-05
-2.03603e-06
3.12609e-05
-1.54003e-06
3.1075e-05
-2.01704e-06
-2.37949e-06
3.06304e-05
2.76188e-05
-1.43596e-05
2.89098e-05
-9.12991e-06
2.96308e-05
-5.07069e-06
2.97011e-05
-4.04885e-06
2.93998e-05
-2.96856e-06
2.90205e-05
-1.94814e-06
2.86237e-05
-1.63919e-06
2.83011e-05
-1.21748e-06
2.78295e-05
-1.54541e-06
-1.40096e-06
2.6851e-05
2.74414e-05
-1.6801e-05
2.77529e-05
-9.44145e-06
2.73851e-05
-4.70285e-06
2.65319e-05
-3.19561e-06
2.56529e-05
-2.08957e-06
2.49811e-05
-1.27641e-06
2.44127e-05
-1.07074e-06
2.39867e-05
-7.91535e-07
2.34759e-05
-1.03461e-06
-9.31493e-07
2.30065e-05
2.56903e-05
-1.74913e-05
2.41182e-05
-7.86929e-06
2.26183e-05
-3.20301e-06
2.12365e-05
-1.81375e-06
2.0214e-05
-1.0671e-06
1.95488e-05
-6.11174e-07
1.90085e-05
-5.30434e-07
1.86252e-05
-4.08278e-07
1.81483e-05
-5.57739e-07
-4.88721e-07
1.77056e-05
2.10448e-05
-1.35361e-05
1.74612e-05
-4.28572e-06
1.55171e-05
-1.25883e-06
1.42539e-05
-5.50599e-07
1.34728e-05
-2.85992e-07
1.3012e-05
-1.50388e-07
1.26268e-05
-1.45242e-07
1.23487e-05
-1.30102e-07
1.19646e-05
-1.73703e-07
-1.26621e-07
1.16025e-05
1.14639e-05
7.17814e-06
5.9193e-06
5.36871e-06
5.08271e-06
4.93233e-06
4.78708e-06
4.65698e-06
4.48328e-06
4.35666e-06
6.51576e-06
-1.15167e-07
-4.36343e-07
6.83519e-06
1.25378e-06
-1.57321e-06
7.63357e-06
2.1169e-06
-2.91528e-06
9.16699e-06
3.47394e-06
-5.00736e-06
1.16059e-05
3.2478e-06
-5.68672e-06
1.45194e-05
3.8648e-06
-6.77824e-06
1.63832e-05
4.50019e-06
-6.36402e-06
1.73699e-05
1.52882e-06
-2.51555e-06
1.85535e-05
-1.56417e-06
3.80551e-07
1.86512e-05
-3.48149e-06
3.38382e-06
1.9432e-05
-1.00463e-05
9.26554e-06
2.1249e-05
-1.56343e-05
1.38172e-05
2.14545e-05
-2.12891e-05
2.10837e-05
2.12846e-05
-2.55396e-05
2.57095e-05
2.06009e-05
-2.61963e-05
2.688e-05
1.95523e-05
-2.26231e-05
2.36717e-05
1.73103e-05
-1.63708e-05
1.86128e-05
1.35481e-05
-1.22068e-05
1.5969e-05
1.2988e-05
-3.3756e-06
3.93575e-06
1.4471e-05
1.22455e-05
-1.37286e-05
1.69399e-05
1.88973e-05
-2.13662e-05
1.81177e-05
2.47819e-05
-2.59597e-05
1.89269e-05
2.31844e-05
-2.39936e-05
1.99691e-05
1.61409e-05
-1.71831e-05
2.07993e-05
1.44346e-05
-1.52648e-05
2.23566e-05
7.87627e-06
-9.43364e-06
2.31858e-05
-5.68224e-07
-2.60906e-07
2.48491e-05
-8.38572e-06
6.72242e-06
2.72858e-05
-1.98487e-05
1.7412e-05
2.96949e-05
-3.19636e-05
2.95545e-05
3.20531e-05
-4.46472e-05
4.22889e-05
3.3593e-05
-5.35514e-05
5.20115e-05
3.35713e-05
-5.69142e-05
5.6936e-05
3.17745e-05
-5.42555e-05
5.60522e-05
2.90891e-05
-4.85194e-05
5.12048e-05
2.6851e-05
-4.26257e-05
4.48638e-05
2.43908e-05
-3.52281e-05
3.76884e-05
2.32798e-05
-2.7768e-05
2.8879e-05
2.35238e-05
-2.35703e-05
2.33263e-05
2.34415e-05
-1.40372e-05
1.41195e-05
2.39368e-05
-6.55059e-06
6.05531e-06
2.44954e-05
1.90866e-06
-2.46724e-06
2.4908e-05
7.04177e-06
-7.45435e-06
2.46143e-05
1.44422e-05
-1.41485e-05
2.42456e-05
1.81629e-05
-1.77942e-05
2.32491e-05
2.29129e-05
-2.19164e-05
2.21681e-05
2.29979e-05
-2.1917e-05
2.05458e-05
2.78246e-05
-2.62023e-05
1.91389e-05
2.68738e-05
-2.54669e-05
1.75914e-05
2.60524e-05
-2.4505e-05
1.52742e-05
2.31793e-05
-2.0862e-05
1.49815e-05
2.92744e-05
-2.89817e-05
1.59721e-05
3.18454e-05
-3.2836e-05
1.61764e-05
3.71736e-05
-3.73779e-05
1.75063e-05
3.64108e-05
-3.77407e-05
1.90389e-05
3.78719e-05
-3.94045e-05
2.0368e-05
2.76426e-05
-2.89717e-05
2.16717e-05
2.36286e-05
-2.49323e-05
2.29052e-05
9.78739e-06
-1.10209e-05
2.36528e-05
-1.51669e-06
7.69106e-07
2.38174e-05
-1.41463e-05
1.39817e-05
2.43007e-05
-2.43671e-05
2.38839e-05
2.50632e-05
-3.63126e-05
3.555e-05
2.54194e-05
-4.17693e-05
4.14131e-05
2.40033e-05
-4.51279e-05
4.6544e-05
2.29176e-05
-3.67022e-05
3.7788e-05
2.14607e-05
-3.1181e-05
3.26378e-05
1.90292e-05
-2.06403e-05
2.30718e-05
1.59414e-05
-1.5033e-05
1.81207e-05
1.14376e-05
5.34751e-06
-8.43685e-07
1.2099e-05
-2.91479e-06
2.25339e-06
1.47185e-05
-8.20501e-06
5.58551e-06
1.95087e-05
-2.35976e-05
1.88074e-05
2.08607e-05
-1.68715e-05
1.55195e-05
2.28905e-05
-1.60194e-05
1.39896e-05
2.37832e-05
-9.66466e-06
8.77192e-06
2.5271e-05
-3.52979e-06
2.04207e-06
2.6316e-05
3.96563e-06
-5.0107e-06
2.6753e-05
1.19253e-05
-1.23623e-05
2.68122e-05
1.96598e-05
-1.97191e-05
2.60922e-05
2.56196e-05
-2.48995e-05
2.46851e-05
2.64693e-05
-2.50622e-05
2.31862e-05
2.56184e-05
-2.41195e-05
2.13081e-05
2.50707e-05
-2.31927e-05
1.97151e-05
2.33357e-05
-2.17426e-05
1.77831e-05
2.19598e-05
-2.00277e-05
1.66863e-05
1.78277e-05
-1.67309e-05
1.51438e-05
1.91444e-05
-1.76019e-05
1.49441e-05
1.8419e-05
-1.82194e-05
1.20154e-05
2.61963e-05
-2.32676e-05
1.26771e-05
2.05466e-05
-2.12083e-05
1.22266e-05
2.58895e-05
-2.5439e-05
1.08632e-05
1.97502e-05
-1.83868e-05
1.07567e-05
2.19326e-05
-2.18261e-05
1.37039e-05
7.64712e-06
-1.05942e-05
1.34129e-05
9.87227e-06
-9.58129e-06
1.63664e-05
-2.60857e-06
-3.4492e-07
1.40563e-05
9.59522e-06
-7.28514e-06
1.36903e-05
1.06343e-06
-6.97456e-07
2.28195e-05
-1.99239e-05
1.07947e-05
1.24579e-05
-2.86065e-07
1.24466e-05
1.26506e-06
1.25445e-05
2.01904e-06
1.33747e-05
2.64371e-06
1.44673e-05
2.15527e-06
1.64871e-05
1.84497e-06
1.88157e-05
2.17157e-06
1.95858e-05
7.58765e-07
2.10793e-05
-3.0577e-06
2.27581e-05
-5.16026e-06
2.326e-05
-1.05483e-05
2.45909e-05
-1.69652e-05
2.48828e-05
-2.1581e-05
2.41653e-05
-2.48221e-05
2.30877e-05
-2.51187e-05
2.1669e-05
-2.12043e-05
1.99641e-05
-1.46659e-05
1.63457e-05
-8.58835e-06
1.46871e-05
-1.71703e-06
1.59934e-05
1.09392e-05
1.8661e-05
1.62298e-05
2.02685e-05
2.31744e-05
2.13747e-05
2.20782e-05
2.18539e-05
1.56617e-05
2.28172e-05
1.34712e-05
2.42487e-05
6.44483e-06
2.51487e-05
-1.46829e-06
2.72327e-05
-1.04697e-05
2.93073e-05
-2.19233e-05
3.14185e-05
-3.40748e-05
3.32449e-05
-4.64736e-05
3.37995e-05
-5.4106e-05
3.25735e-05
-5.56882e-05
2.96832e-05
-5.13652e-05
2.64755e-05
-4.53117e-05
2.37234e-05
-3.98736e-05
2.07139e-05
-3.22186e-05
1.98476e-05
-2.69016e-05
1.98922e-05
-2.36149e-05
1.96946e-05
-1.38397e-05
2.09512e-05
-7.80718e-06
2.19644e-05
8.95476e-07
2.26035e-05
6.40266e-06
2.27789e-05
1.42668e-05
2.29384e-05
1.80035e-05
2.24595e-05
2.33918e-05
2.16371e-05
2.38203e-05
2.03323e-05
2.91294e-05
1.878e-05
2.84261e-05
1.7555e-05
2.72774e-05
1.52389e-05
2.54954e-05
1.46014e-05
2.99119e-05
1.62e-05
3.02468e-05
1.65078e-05
3.68658e-05
1.81189e-05
3.47998e-05
2.04035e-05
3.55873e-05
2.16102e-05
2.6436e-05
2.2897e-05
2.23418e-05
2.4095e-05
8.58943e-06
2.49438e-05
-2.36548e-06
2.49514e-05
-1.41539e-05
2.51954e-05
-2.46112e-05
2.57697e-05
-3.68868e-05
2.56828e-05
-4.16825e-05
2.3884e-05
-4.33291e-05
2.24078e-05
-3.5226e-05
2.03993e-05
-2.91725e-05
1.72987e-05
-1.75397e-05
1.39612e-05
-1.16955e-05
1.08351e-05
8.47361e-06
1.21372e-05
-4.2169e-06
1.50687e-05
-1.11364e-05
1.90241e-05
-2.7553e-05
1.97656e-05
-1.76131e-05
2.18137e-05
-1.80675e-05
2.19976e-05
-9.84849e-06
2.38791e-05
-5.41135e-06
2.49596e-05
2.88515e-06
2.59557e-05
1.09292e-05
2.65065e-05
1.9109e-05
2.62939e-05
2.58322e-05
2.51862e-05
2.7577e-05
2.36314e-05
2.71733e-05
2.1795e-05
2.69071e-05
2.02073e-05
2.49234e-05
1.77885e-05
2.43786e-05
1.76975e-05
1.79186e-05
1.4886e-05
2.19559e-05
1.51974e-05
1.81076e-05
1.46093e-05
2.67844e-05
1.38267e-05
2.13292e-05
1.31219e-05
2.65943e-05
1.35258e-05
1.93463e-05
1.3102e-05
2.23564e-05
1.69543e-05
3.79477e-06
1.65109e-05
1.03157e-05
1.84861e-05
-4.58379e-06
1.75819e-05
1.04994e-05
2.02689e-05
-1.62355e-06
2.43816e-05
1.87068e-05
1.80975e-05
-3.81965e-07
1.82003e-05
1.16222e-06
1.80844e-05
2.13494e-06
1.873e-05
1.9981e-06
1.9682e-05
1.20332e-06
2.04958e-05
1.0312e-06
2.26896e-05
-2.22494e-08
2.38226e-05
-3.74293e-07
2.45959e-05
-3.83098e-06
2.69625e-05
-7.52681e-06
2.77211e-05
-1.13069e-05
2.80455e-05
-1.72896e-05
2.77464e-05
-2.12819e-05
2.64054e-05
-2.34811e-05
2.49707e-05
-2.3684e-05
2.3123e-05
-1.93566e-05
2.18605e-05
-1.34035e-05
1.90783e-05
-5.80612e-06
1.65321e-05
8.29177e-07
1.79666e-05
9.5047e-06
2.04653e-05
1.37312e-05
2.2026e-05
2.16137e-05
2.35091e-05
2.05951e-05
2.38379e-05
1.53329e-05
2.49475e-05
1.23616e-05
2.60371e-05
5.35526e-06
2.71805e-05
-2.61169e-06
2.93208e-05
-1.261e-05
3.09698e-05
-2.35722e-05
3.28081e-05
-3.59131e-05
3.39367e-05
-4.76022e-05
3.33388e-05
-5.35081e-05
3.08938e-05
-5.32433e-05
2.72635e-05
-4.77348e-05
2.37976e-05
-4.18458e-05
2.03234e-05
-3.63994e-05
1.67659e-05
-2.86612e-05
1.61434e-05
-2.62791e-05
1.58376e-05
-2.33091e-05
1.60335e-05
-1.40356e-05
1.8094e-05
-9.86775e-06
1.91479e-05
-1.58406e-07
1.97816e-05
5.76895e-06
2.04112e-05
1.36372e-05
2.10008e-05
1.74138e-05
2.10643e-05
2.33283e-05
2.05905e-05
2.4294e-05
1.986e-05
2.986e-05
1.84024e-05
2.98837e-05
1.72929e-05
2.83869e-05
1.53921e-05
2.73962e-05
1.45344e-05
3.07696e-05
1.62728e-05
2.85084e-05
1.66589e-05
3.64797e-05
1.83376e-05
3.31211e-05
2.13867e-05
3.25381e-05
2.26024e-05
2.52203e-05
2.39718e-05
2.09723e-05
2.49515e-05
7.6098e-06
2.57115e-05
-3.12553e-06
2.57021e-05
-1.41445e-05
2.6295e-05
-2.52041e-05
2.65891e-05
-3.71808e-05
2.58151e-05
-4.09085e-05
2.37097e-05
-4.12237e-05
2.17331e-05
-3.32495e-05
1.90265e-05
-2.64659e-05
1.57525e-05
-1.42656e-05
1.25811e-05
-8.52416e-06
1.14823e-05
9.57236e-06
1.27072e-05
-5.44171e-06
1.55316e-05
-1.39609e-05
1.83017e-05
-3.03231e-05
1.84071e-05
-1.77185e-05
2.01299e-05
-1.97903e-05
1.96438e-05
-9.36239e-06
2.22305e-05
-7.99804e-06
2.2962e-05
2.15363e-06
2.46053e-05
9.28596e-06
2.54336e-05
1.82807e-05
2.58353e-05
2.54306e-05
2.50234e-05
2.83888e-05
2.376e-05
2.84367e-05
2.15025e-05
2.91646e-05
2.07663e-05
2.56596e-05
1.76505e-05
2.74944e-05
1.76724e-05
1.78967e-05
1.60829e-05
2.35454e-05
1.54845e-05
1.8706e-05
1.54423e-05
2.68266e-05
1.62246e-05
2.05468e-05
1.50811e-05
2.77378e-05
1.6969e-05
1.74584e-05
1.63341e-05
2.29912e-05
1.83935e-05
1.73543e-06
1.73897e-05
1.13194e-05
1.87727e-05
-5.96673e-06
1.73411e-05
1.1931e-05
2.08022e-05
-5.08457e-06
2.17218e-05
2.3462e-05
2.32021e-05
-3.12892e-07
2.35045e-05
8.5985e-07
2.35704e-05
2.06908e-06
2.37001e-05
1.86834e-06
2.48238e-05
7.96393e-08
2.53289e-05
5.26122e-07
2.66969e-05
-1.39028e-06
2.84377e-05
-2.11513e-06
2.87871e-05
-4.18035e-06
3.05166e-05
-9.25627e-06
3.13396e-05
-1.21299e-05
3.08299e-05
-1.67799e-05
3.00063e-05
-2.04584e-05
2.81036e-05
-2.15784e-05
2.6257e-05
-2.18374e-05
2.41724e-05
-1.7272e-05
2.30055e-05
-1.22366e-05
2.1284e-05
-4.08466e-06
1.8767e-05
3.34625e-06
2.02995e-05
7.97217e-06
2.20774e-05
1.19533e-05
2.34802e-05
2.02108e-05
2.51381e-05
1.89372e-05
2.55293e-05
1.49417e-05
2.67576e-05
1.11332e-05
2.76726e-05
4.44031e-06
2.91561e-05
-4.09524e-06
3.094e-05
-1.43938e-05
3.23169e-05
-2.49492e-05
3.37877e-05
-3.73839e-05
3.39627e-05
-4.77772e-05
3.21783e-05
-5.17237e-05
2.86777e-05
-4.97427e-05
2.46355e-05
-4.36925e-05
2.09588e-05
-3.81692e-05
1.67732e-05
-3.22137e-05
1.29969e-05
-2.4885e-05
1.24585e-05
-2.57407e-05
1.22458e-05
-2.30963e-05
1.37013e-05
-1.54912e-05
1.61302e-05
-1.22966e-05
1.68162e-05
-8.44413e-07
1.74074e-05
5.17771e-06
1.80618e-05
1.29828e-05
1.86969e-05
1.67787e-05
1.93209e-05
2.27043e-05
1.91616e-05
2.44533e-05
1.9e-05
3.00216e-05
1.79211e-05
3.09626e-05
1.66905e-05
2.96174e-05
1.56114e-05
2.84753e-05
1.46553e-05
3.17257e-05
1.62796e-05
2.68842e-05
1.72553e-05
3.55039e-05
1.85755e-05
3.18009e-05
2.18507e-05
2.9263e-05
2.32821e-05
2.37888e-05
2.48298e-05
1.94247e-05
2.56174e-05
6.82211e-06
2.62943e-05
-3.80239e-06
2.63279e-05
-1.41781e-05
2.69094e-05
-2.57857e-05
2.65398e-05
-3.68112e-05
2.51318e-05
-3.95006e-05
2.29804e-05
-3.90723e-05
2.04348e-05
-3.07038e-05
1.73564e-05
-2.33876e-05
1.43636e-05
-1.12728e-05
1.18361e-05
-5.99665e-06
1.28662e-05
8.54229e-06
1.33661e-05
-5.94163e-06
1.60207e-05
-1.66155e-05
1.77372e-05
-3.20396e-05
1.71874e-05
-1.71686e-05
1.81474e-05
-2.07504e-05
1.72009e-05
-8.41587e-06
2.01887e-05
-1.09859e-05
2.02993e-05
2.04307e-06
2.30406e-05
6.54467e-06
2.34496e-05
1.78717e-05
2.47737e-05
2.41064e-05
2.40289e-05
2.91336e-05
2.36187e-05
2.88469e-05
2.08515e-05
3.19319e-05
2.07106e-05
2.58005e-05
1.81482e-05
3.00567e-05
1.77113e-05
1.83337e-05
1.69004e-05
2.43563e-05
1.68798e-05
1.87266e-05
1.65566e-05
2.71498e-05
1.77373e-05
1.93662e-05
1.64421e-05
2.90331e-05
1.93443e-05
1.45562e-05
1.88526e-05
2.3483e-05
1.96886e-05
8.99346e-07
1.78549e-05
1.31532e-05
1.86218e-05
-6.73362e-06
1.75417e-05
1.3011e-05
1.88317e-05
-6.37458e-06
1.63993e-05
2.41542e-05
2.75491e-05
-2.10013e-07
2.76697e-05
7.3927e-07
2.8161e-05
1.57775e-06
2.83211e-05
1.70825e-06
2.91498e-05
-7.49081e-07
2.98801e-05
-2.04164e-07
3.05432e-05
-2.05339e-06
3.22119e-05
-3.78377e-06
3.25671e-05
-4.53556e-06
3.32346e-05
-9.92375e-06
3.38483e-05
-1.27436e-05
3.27556e-05
-1.56872e-05
3.15898e-05
-1.92926e-05
2.95547e-05
-1.95433e-05
2.72266e-05
-1.95093e-05
2.48401e-05
-1.48854e-05
2.35249e-05
-1.09214e-05
2.27018e-05
-3.26159e-06
2.10849e-05
4.96319e-06
2.21805e-05
6.87652e-06
2.30241e-05
1.11097e-05
2.47602e-05
1.84748e-05
2.63986e-05
1.72988e-05
2.69847e-05
1.43556e-05
2.83634e-05
9.75458e-06
2.93681e-05
3.43564e-06
3.09282e-05
-5.65542e-06
3.21402e-05
-1.56058e-05
3.3304e-05
-2.6113e-05
3.42507e-05
-3.83306e-05
3.33677e-05
-4.68942e-05
3.04737e-05
-4.88297e-05
2.62513e-05
-4.55204e-05
2.21278e-05
-3.95691e-05
1.80328e-05
-3.40742e-05
1.28974e-05
-2.70783e-05
9.31114e-06
-2.12987e-05
9.5068e-06
-2.59364e-05
1.06487e-05
-2.42383e-05
1.3342e-05
-1.81845e-05
1.49408e-05
-1.38954e-05
1.51641e-05
-1.06767e-06
1.61001e-05
4.24168e-06
1.64666e-05
1.26164e-05
1.65573e-05
1.6688e-05
1.73074e-05
2.19541e-05
1.7399e-05
2.43617e-05
1.77895e-05
2.96312e-05
1.74185e-05
3.13336e-05
1.59026e-05
3.11333e-05
1.57093e-05
2.86687e-05
1.48739e-05
3.25611e-05
1.60938e-05
2.56643e-05
1.81919e-05
3.34058e-05
1.92002e-05
3.07926e-05
2.19358e-05
2.65275e-05
2.36075e-05
2.21171e-05
2.53007e-05
1.77315e-05
2.5931e-05
6.19182e-06
2.64535e-05
-4.3249e-06
2.68065e-05
-1.45311e-05
2.74698e-05
-2.6449e-05
2.65457e-05
-3.58871e-05
2.47402e-05
-3.76951e-05
2.23123e-05
-3.66443e-05
1.8876e-05
-2.72676e-05
1.58579e-05
-2.03694e-05
1.35296e-05
-8.94455e-06
1.18291e-05
-4.29616e-06
1.35015e-05
6.86995e-06
1.33256e-05
-5.7658e-06
1.56298e-05
-1.89197e-05
1.62434e-05
-3.26532e-05
1.57963e-05
-1.67216e-05
1.6195e-05
-2.1149e-05
1.4885e-05
-7.10581e-06
1.74932e-05
-1.35941e-05
1.72575e-05
2.27868e-06
2.10431e-05
2.75913e-06
2.08261e-05
1.80888e-05
2.32881e-05
2.16444e-05
2.21408e-05
3.02809e-05
2.2961e-05
2.80267e-05
2.0053e-05
3.48399e-05
2.00202e-05
2.58332e-05
1.8751e-05
3.1326e-05
1.814e-05
1.89446e-05
1.75503e-05
2.4946e-05
1.8128e-05
1.81489e-05
1.76463e-05
2.76315e-05
2.0205e-05
1.68074e-05
1.84589e-05
3.07792e-05
2.02818e-05
1.27333e-05
2.05927e-05
2.31721e-05
2.05359e-05
9.56167e-07
1.92231e-05
1.4466e-05
1.86028e-05
-6.11332e-06
1.99909e-05
1.16229e-05
1.92198e-05
-5.60349e-06
1.1908e-05
2.37111e-05
3.07456e-05
-4.2321e-07
3.08595e-05
6.2534e-07
3.13423e-05
1.095e-06
3.17189e-05
1.33164e-06
3.21108e-05
-1.141e-06
3.30966e-05
-1.18995e-06
3.35272e-05
-2.48399e-06
3.47199e-05
-4.97648e-06
3.53656e-05
-5.18129e-06
3.52758e-05
-9.83397e-06
3.52766e-05
-1.27444e-05
3.38831e-05
-1.42937e-05
3.23968e-05
-1.78063e-05
3.04476e-05
-1.75941e-05
2.7954e-05
-1.70157e-05
2.56899e-05
-1.26213e-05
2.3798e-05
-9.02947e-06
2.3153e-05
-2.61658e-06
2.30175e-05
5.09866e-06
2.33039e-05
6.59007e-06
2.35454e-05
1.08683e-05
2.5852e-05
1.61681e-05
2.72297e-05
1.59211e-05
2.8327e-05
1.32584e-05
2.98251e-05
8.25648e-06
3.0895e-05
2.36567e-06
3.2093e-05
-6.8534e-06
3.28354e-05
-1.63482e-05
3.38755e-05
-2.71531e-05
3.40948e-05
-3.85498e-05
3.2054e-05
-4.48534e-05
2.82347e-05
-4.50103e-05
2.3712e-05
-4.09977e-05
1.95231e-05
-3.53803e-05
1.4864e-05
-2.94151e-05
9.30766e-06
-2.1522e-05
6.56614e-06
-1.85572e-05
7.53355e-06
-2.69038e-05
1.00667e-05
-2.67714e-05
1.2594e-05
-2.07118e-05
1.30339e-05
-1.43352e-05
1.33644e-05
-1.39817e-06
1.49546e-05
2.65153e-06
1.50559e-05
1.2515e-05
1.50275e-05
1.67165e-05
1.56146e-05
2.1367e-05
1.55923e-05
2.4384e-05
1.61466e-05
2.90769e-05
1.67095e-05
3.07707e-05
1.51158e-05
3.27269e-05
1.5382e-05
2.84025e-05
1.52176e-05
3.27255e-05
1.57895e-05
2.50924e-05
1.85972e-05
3.0598e-05
1.98424e-05
2.95474e-05
2.18098e-05
2.45601e-05
2.34633e-05
2.04636e-05
2.51781e-05
1.60167e-05
2.59626e-05
5.40727e-06
2.66057e-05
-4.96804e-06
2.72728e-05
-1.51981e-05
2.74395e-05
-2.66157e-05
2.58132e-05
-3.42608e-05
2.37763e-05
-3.56582e-05
2.0886e-05
-3.3754e-05
1.72364e-05
-2.3618e-05
1.44364e-05
-1.75694e-05
1.25446e-05
-7.05275e-06
1.13333e-05
-3.08487e-06
1.24919e-05
5.71138e-06
1.25258e-05
-5.7997e-06
1.36408e-05
-2.00348e-05
1.32285e-05
-3.22408e-05
1.3826e-05
-1.7319e-05
1.41649e-05
-2.1488e-05
1.27486e-05
-5.68943e-06
1.46551e-05
-1.55007e-05
1.42327e-05
2.70112e-06
1.82098e-05
-1.21802e-06
1.75181e-05
1.87805e-05
2.13568e-05
1.78056e-05
1.96649e-05
3.19728e-05
2.15539e-05
2.61378e-05
1.93313e-05
3.70624e-05
1.88513e-05
2.63132e-05
1.88055e-05
3.13718e-05
1.86574e-05
1.90927e-05
1.76136e-05
2.59898e-05
2.01245e-05
1.5638e-05
1.8834e-05
2.89219e-05
2.08404e-05
1.4801e-05
2.07354e-05
3.08843e-05
2.16546e-05
1.1814e-05
2.21522e-05
2.26746e-05
2.13903e-05
1.718e-06
2.12954e-05
1.4561e-05
1.9834e-05
-4.65196e-06
2.16906e-05
9.76629e-06
2.05907e-05
-4.50353e-06
8.82142e-06
2.36773e-05
3.23294e-05
-8.59155e-07
3.27045e-05
2.50238e-07
3.31897e-05
6.09883e-07
3.36788e-05
8.4249e-07
3.36723e-05
-1.13451e-06
3.46275e-05
-2.14508e-06
3.50137e-05
-2.87027e-06
3.56708e-05
-5.63355e-06
3.64212e-05
-5.93169e-06
3.59499e-05
-9.36263e-06
3.53164e-05
-1.21109e-05
3.39375e-05
-1.29148e-05
3.23797e-05
-1.62485e-05
3.0572e-05
-1.57864e-05
2.8141e-05
-1.45847e-05
2.66283e-05
-1.11086e-05
2.45668e-05
-6.96802e-06
2.32906e-05
-1.34033e-06
2.38169e-05
4.57239e-06
2.36627e-05
6.74423e-06
2.41356e-05
1.03954e-05
2.6267e-05
1.40366e-05
2.74038e-05
1.47843e-05
2.9165e-05
1.14972e-05
3.0493e-05
6.92843e-06
3.16678e-05
1.19092e-06
3.26162e-05
-7.80184e-06
3.31707e-05
-1.69026e-05
3.39838e-05
-2.79663e-05
3.32325e-05
-3.77985e-05
3.0081e-05
-4.17019e-05
2.5684e-05
-4.06133e-05
2.12278e-05
-3.65414e-05
1.68909e-05
-3.10434e-05
1.15373e-05
-2.40615e-05
6.28376e-06
-1.62684e-05
4.82372e-06
-1.70971e-05
5.85184e-06
-2.79319e-05
8.48035e-06
-2.93999e-05
9.72407e-06
-2.19555e-05
9.77965e-06
-1.43908e-05
1.11509e-05
-2.76937e-06
1.27418e-05
1.06054e-06
1.30485e-05
1.22084e-05
1.36973e-05
1.60677e-05
1.3792e-05
2.12722e-05
1.40547e-05
2.41214e-05
1.45008e-05
2.86308e-05
1.57107e-05
2.95608e-05
1.45143e-05
3.39233e-05
1.46455e-05
2.82714e-05
1.55618e-05
3.18091e-05
1.58434e-05
2.48108e-05
1.84794e-05
2.7962e-05
2.01733e-05
2.78535e-05
2.16372e-05
2.30961e-05
2.30579e-05
1.90429e-05
2.4794e-05
1.42807e-05
2.5943e-05
4.25827e-06
2.67771e-05
-5.80221e-06
2.76079e-05
-1.60289e-05
2.72212e-05
-2.6229e-05
2.5193e-05
-3.22325e-05
2.2796e-05
-3.32612e-05
1.92902e-05
-3.02483e-05
1.59001e-05
-2.02279e-05
1.26921e-05
-1.43614e-05
1.04739e-05
-4.83455e-06
9.39841e-06
-2.00941e-06
1.06069e-05
4.50291e-06
1.12956e-05
-6.48844e-06
1.02662e-05
-1.90054e-05
9.60188e-06
-3.15764e-05
1.18278e-05
-1.95449e-05
1.2099e-05
-2.17593e-05
1.07553e-05
-4.34572e-06
1.1836e-05
-1.65813e-05
1.10488e-05
3.48825e-06
1.49484e-05
-5.11762e-06
1.42356e-05
1.94933e-05
1.87801e-05
1.32612e-05
1.69014e-05
3.38515e-05
1.93893e-05
2.36499e-05
1.86203e-05
3.78314e-05
1.78157e-05
2.71179e-05
1.7889e-05
3.12985e-05
1.96506e-05
1.73311e-05
1.78309e-05
2.78096e-05
2.08296e-05
1.26393e-05
2.03424e-05
2.94091e-05
2.11739e-05
1.39695e-05
2.19417e-05
3.01166e-05
2.27437e-05
1.10119e-05
2.33683e-05
2.205e-05
2.21891e-05
2.89719e-06
2.27495e-05
1.40006e-05
2.11607e-05
-3.06321e-06
2.31419e-05
7.78511e-06
2.24863e-05
-3.84793e-06
6.43989e-06
2.48678e-05
3.37659e-05
-7.25802e-07
3.34281e-05
5.87987e-07
3.36164e-05
4.21592e-07
3.41733e-05
2.85635e-07
3.42209e-05
-1.1822e-06
3.49643e-05
-2.88844e-06
3.53264e-05
-3.23236e-06
3.56138e-05
-5.92099e-06
3.6069e-05
-6.38686e-06
3.53427e-05
-8.6363e-06
3.44609e-05
-1.12291e-05
3.34165e-05
-1.18704e-05
3.20423e-05
-1.48744e-05
3.04875e-05
-1.42316e-05
2.84385e-05
-1.25356e-05
2.7137e-05
-9.8071e-06
2.52195e-05
-5.05056e-06
2.37959e-05
8.33271e-08
2.39458e-05
4.42247e-06
2.38582e-05
6.83188e-06
2.48901e-05
9.3635e-06
2.62898e-05
1.26369e-05
2.77257e-05
1.33484e-05
2.96066e-05
9.61631e-06
3.05833e-05
5.95174e-06
3.20505e-05
-2.76313e-07
3.2833e-05
-8.58428e-06
3.32635e-05
-1.73332e-05
3.35294e-05
-2.82321e-05
3.16268e-05
-3.5896e-05
2.75956e-05
-3.76706e-05
2.30578e-05
-3.60755e-05
1.86947e-05
-3.21783e-05
1.39956e-05
-2.63442e-05
8.24615e-06
-1.83121e-05
3.56811e-06
-1.15904e-05
2.92734e-06
-1.64564e-05
3.52118e-06
-2.85257e-05
5.56366e-06
-3.14424e-05
5.95137e-06
-2.23433e-05
6.62419e-06
-1.50636e-05
9.08733e-06
-5.23252e-06
9.9968e-06
1.51073e-07
1.05676e-05
1.16376e-05
1.19163e-05
1.4719e-05
1.18272e-05
2.13613e-05
1.28841e-05
2.30645e-05
1.29106e-05
2.86043e-05
1.43891e-05
2.80823e-05
1.41225e-05
3.41899e-05
1.37996e-05
2.85943e-05
1.54215e-05
3.01872e-05
1.60196e-05
2.42128e-05
1.82361e-05
2.57455e-05
2.02336e-05
2.58559e-05
2.15329e-05
2.17968e-05
2.28131e-05
1.77627e-05
2.4776e-05
1.23178e-05
2.61913e-05
2.84296e-06
2.70337e-05
-6.64463e-06
2.76142e-05
-1.66094e-05
2.65251e-05
-2.51399e-05
2.41054e-05
-2.98128e-05
2.12202e-05
-3.0376e-05
1.75356e-05
-2.65637e-05
1.4401e-05
-1.70933e-05
1.07416e-05
-1.0702e-05
8.44198e-06
-2.53493e-06
7.14333e-06
-7.10758e-07
8.59646e-06
3.04979e-06
9.30817e-06
-7.20016e-06
7.23856e-06
-1.69358e-05
7.59402e-06
-3.19319e-05
1.08425e-05
-2.27934e-05
1.0408e-05
-2.13247e-05
9.0774e-06
-3.01515e-06
9.55376e-06
-1.70577e-05
8.26496e-06
4.77705e-06
1.13688e-05
-8.22144e-06
1.06134e-05
2.02487e-05
1.53529e-05
8.52159e-06
1.45029e-05
3.47015e-05
1.6973e-05
2.11797e-05
1.77304e-05
3.70741e-05
1.7952e-05
2.68963e-05
1.69908e-05
3.22597e-05
1.99217e-05
1.44002e-05
1.85778e-05
2.91535e-05
2.07285e-05
1.04886e-05
2.10145e-05
2.91231e-05
2.17242e-05
1.32598e-05
2.28483e-05
2.89924e-05
2.34538e-05
1.04065e-05
2.4384e-05
2.11198e-05
2.31331e-05
4.14814e-06
2.42098e-05
1.29239e-05
2.25838e-05
-1.43719e-06
2.40151e-05
6.35378e-06
2.34914e-05
-3.32419e-06
3.99298e-06
2.59383e-05
3.37905e-05
-6.77381e-07
3.35982e-05
7.80301e-07
3.37733e-05
2.46449e-07
3.42902e-05
-2.31219e-07
3.44113e-05
-1.30332e-06
3.50009e-05
-3.47808e-06
3.51923e-05
-3.42372e-06
3.51192e-05
-5.84789e-06
3.52041e-05
-6.4718e-06
3.44539e-05
-7.88601e-06
3.38826e-05
-1.06579e-05
3.3404e-05
-1.13918e-05
3.22351e-05
-1.37055e-05
3.07645e-05
-1.2761e-05
2.91661e-05
-1.09372e-05
2.76294e-05
-8.27041e-06
2.57502e-05
-3.17133e-06
2.48731e-05
9.60443e-07
2.46573e-05
4.63819e-06
2.44405e-05
7.04872e-06
2.51703e-05
8.63376e-06
2.62688e-05
1.15383e-05
2.82146e-05
1.14027e-05
2.95564e-05
8.27452e-06
3.07331e-05
4.77502e-06
3.23924e-05
-1.93558e-06
3.26614e-05
-8.85336e-06
3.28906e-05
-1.75623e-05
3.24078e-05
-2.77493e-05
2.93868e-05
-3.2875e-05
2.48158e-05
-3.30996e-05
2.03597e-05
-3.16194e-05
1.61037e-05
-2.79223e-05
1.10526e-05
-2.12931e-05
5.16772e-06
-1.24272e-05
1.23043e-06
-7.65311e-06
7.41381e-07
-1.59673e-05
5.62045e-07
-2.83464e-05
2.29919e-06
-3.31795e-05
2.61135e-06
-2.26554e-05
3.79637e-06
-1.62486e-05
6.56575e-06
-8.0019e-06
6.91718e-06
-2.00354e-07
7.96639e-06
1.05884e-05
9.6801e-06
1.30053e-05
9.3933e-06
2.16481e-05
1.10985e-05
2.13593e-05
1.11482e-05
2.85545e-05
1.26492e-05
2.65813e-05
1.35515e-05
3.32876e-05
1.31469e-05
2.89989e-05
1.47896e-05
2.85445e-05
1.58814e-05
2.3121e-05
1.79862e-05
2.36407e-05
2.01461e-05
2.36961e-05
2.14156e-05
2.05274e-05
2.29531e-05
1.62252e-05
2.52149e-05
1.00559e-05
2.65174e-05
1.54047e-06
2.71048e-05
-7.23194e-06
2.7221e-05
-1.67256e-05
2.55895e-05
-2.35084e-05
2.27003e-05
-2.69237e-05
1.94014e-05
-2.7077e-05
1.59153e-05
-2.30776e-05
1.27531e-05
-1.39311e-05
9.11413e-06
-7.06295e-06
6.81966e-06
-2.40458e-07
5.50203e-06
6.06874e-07
6.99675e-06
1.55507e-06
7.27694e-06
-7.48034e-06
6.80211e-06
-1.6461e-05
7.55076e-06
-3.26806e-05
1.02712e-05
-2.55139e-05
8.67047e-06
-1.9724e-05
7.82866e-06
-2.17334e-06
7.85415e-06
-1.70832e-05
6.10921e-06
6.522e-06
8.29822e-06
-1.04105e-05
7.8725e-06
2.06745e-05
1.19462e-05
4.44786e-06
1.2292e-05
3.43558e-05
1.38682e-05
1.96035e-05
1.54646e-05
3.54777e-05
1.83926e-05
2.39682e-05
1.66383e-05
3.4014e-05
1.93328e-05
1.17056e-05
1.89822e-05
2.95041e-05
2.02391e-05
9.23174e-06
2.09722e-05
2.839e-05
2.20828e-05
1.21492e-05
2.36481e-05
2.74272e-05
2.37776e-05
1.02769e-05
2.52685e-05
1.96289e-05
2.4293e-05
5.12366e-06
2.56293e-05
1.15875e-05
2.43734e-05
-1.81242e-07
2.56831e-05
5.044e-06
2.49879e-05
-2.62895e-06
2.09468e-06
2.68862e-05
3.40567e-05
-7.53514e-07
3.39305e-05
9.0644e-07
3.40648e-05
1.12137e-07
3.43417e-05
-5.08066e-07
3.43303e-05
-1.29198e-06
3.46196e-05
-3.7673e-06
3.46784e-05
-3.48257e-06
3.44961e-05
-5.66556e-06
3.44922e-05
-6.46794e-06
3.42091e-05
-7.60289e-06
3.40336e-05
-1.04823e-05
3.34192e-05
-1.07775e-05
3.23203e-05
-1.26065e-05
3.11979e-05
-1.16386e-05
2.96714e-05
-9.41073e-06
2.79993e-05
-6.59832e-06
2.6531e-05
-1.70309e-06
2.59542e-05
1.53725e-06
2.55162e-05
5.07625e-06
2.49949e-05
7.57002e-06
2.50796e-05
8.54908e-06
2.63362e-05
1.02817e-05
2.81753e-05
9.56361e-06
2.92394e-05
7.21038e-06
3.1021e-05
2.99342e-06
3.2072e-05
-2.98656e-06
3.18472e-05
-8.62849e-06
3.20457e-05
-1.77608e-05
3.06616e-05
-2.63652e-05
2.66034e-05
-2.88169e-05
2.18622e-05
-2.83584e-05
1.76267e-05
-2.73839e-05
1.33739e-05
-2.36695e-05
8.25795e-06
-1.61772e-05
2.59893e-06
-6.7682e-06
-6.69578e-07
-4.3846e-06
-1.48306e-06
-1.51538e-05
-1.94776e-06
-2.78817e-05
-6.89396e-07
-3.44379e-05
1.90562e-07
-2.35354e-05
1.53003e-06
-1.75881e-05
3.71866e-06
-1.01905e-05
3.72224e-06
-2.03934e-07
5.06872e-06
9.24187e-06
6.46332e-06
1.16107e-05
6.41693e-06
2.16945e-05
8.90796e-06
1.88683e-05
9.41487e-06
2.80476e-05
1.06764e-05
2.53198e-05
1.27079e-05
3.1256e-05
1.27684e-05
2.89384e-05
1.40775e-05
2.72355e-05
1.54135e-05
2.17851e-05
1.76792e-05
2.13749e-05