/*--------------------------------*- C++ -*----------------------------------*\
| =========                 |                                                 |
| \\      /  F ield         | OpenFOAM: The Open Source CFD Toolbox           |
|  \\    /   O peration     | Version:  2.4.0                                 |
|   \\  /    A nd           | Web:      www.OpenFOAM.org                      |
|    \\/     M anipulation  |                                                 |
\*---------------------------------------------------------------------------*/
FoamFile
{
    version     2.0;
    format      ascii;
    class       volScalarField;
    location    "0.119";
    object      pMean;
}
// * * * * * * * * * * * * * * * * * * * * * * * * * * * * * * * * * * * * * //

dimensions      [0 2 -2 0 0 0 0];

internalField   nonuniform List<scalar> 
4400
(
137.715
116.088
107.671
103.609
100.252
96.9339
93.6052
90.2715
86.7648
82.4899
135.803
116.152
107.707
103.62
100.255
96.9345
93.6056
90.2729
86.7806
82.9011
134.601
116.46
107.84
103.659
100.275
96.9421
93.6092
90.2714
86.8538
83.1004
133.87
116.831
108.016
103.717
100.316
96.9701
93.6219
90.2903
86.933
83.3678
133.277
117.171
108.193
103.776
100.375
97.0125
93.6523
90.3083
87.0408
83.6234
132.766
117.452
108.347
103.82
100.43
97.0663
93.69
90.3455
87.1644
83.9111
132.345
117.676
108.475
103.846
100.475
97.1121
93.7288
90.3854
87.258
84.2648
132.023
117.845
108.576
103.86
100.505
97.1502
93.7619
90.4296
87.3179
84.5871
131.805
117.96
108.644
103.867
100.524
97.1789
93.7855
90.4732
87.3977
84.9129
131.696
118.019
108.678
103.87
100.535
97.1943
93.8096
90.5122
87.4917
85.1585
131.695
118.021
108.678
103.873
100.536
97.2029
93.8231
90.5535
87.5832
85.3605
131.803
117.966
108.643
103.872
100.529
97.1989
93.8352
90.5941
87.6717
85.5186
132.018
117.854
108.575
103.869
100.513
97.1855
93.8403
90.6312
87.7604
85.6358
132.339
117.687
108.473
103.86
100.485
97.1609
93.8393
90.6665
87.8492
85.7118
132.759
117.465
108.344
103.837
100.445
97.1261
93.833
90.6964
87.9353
85.7539
133.269
117.185
108.189
103.797
100.394
97.0854
93.8236
90.7226
88.0075
85.7888
133.862
116.846
108.012
103.741
100.339
97.0499
93.8168
90.746
88.0568
85.819
134.594
116.475
107.836
103.685
100.3
97.0299
93.8164
90.7652
88.0847
85.8519
135.796
116.167
107.704
103.647
100.281
97.0243
93.8191
90.7764
88.0956
85.8885
137.708
116.103
107.667
103.636
100.278
97.025
93.8207
90.7802
88.0971
85.9924
79.9505
79.4083
77.9863
76.4619
75.1892
74.2828
73.9208
73.5046
73.5891
73.9172
74.1028
74.2835
74.2808
74.6802
75.2258
75.3479
75.3653
75.6111
75.9381
76.467
77.1875
78.0703
79.0541
80.0984
81.116
82.0922
83.0268
83.9237
84.7427
85.487
86.1007
86.5992
86.9415
87.1853
87.3241
87.4229
87.4998
87.5494
87.6613
87.8612
88.2536
88.7996
89.4492
90.143
90.858
91.4397
91.9582
92.3283
92.6097
92.8084
92.951
93.1563
93.2608
93.4348
93.6094
93.7945
94.1658
94.3998
94.9529
95.254
95.8239
96.083
96.5875
96.6668
96.9998
96.839
97.0511
96.7137
96.9058
96.5259
96.7523
96.3398
96.6176
96.2653
96.6978
96.4717
97.0775
96.895
97.5985
97.3477
98.0318
97.6044
98.1682
97.5635
98.0124
97.2857
97.6363
96.8374
97.0651
96.1924
96.2864
95.2861
95.2716
93.9676
93.8935
91.7265
91.6189
86.4256
85.8926
60.1034
80.3321
79.595
78.4558
77.1339
75.9659
75.1012
74.7383
74.4818
74.6002
74.9941
75.2439
75.4381
75.4318
75.7149
76.2052
76.3658
76.3155
76.4568
76.7102
77.1426
77.7554
78.5248
79.4049
80.3445
81.2625
82.1342
82.9655
83.7504
84.4462
85.0598
85.5546
85.9418
86.2008
86.397
86.5007
86.6104
86.6947
86.7704
86.9146
87.1504
87.652
88.2924
89.0641
89.8808
90.7305
91.4276
92.0477
92.5046
92.8483
93.1103
93.2829
93.4801
93.5773
93.7297
93.8868
94.0354
94.3784
94.5593
95.0703
95.3081
95.8097
95.9896
96.4054
96.4337
96.6981
96.5162
96.6827
96.3341
96.5006
96.1026
96.3235
95.8735
96.1921
95.784
96.2898
96.002
96.6985
96.4345
97.2671
96.907
97.7728
97.1757
97.9795
97.1081
97.8365
96.7843
97.4426
96.2857
96.8174
95.5644
95.9275
94.5012
94.6937
92.8284
93.0151
89.8502
90.1032
82.5047
81.4136
52.8276
80.9313
80.0402
78.9175
77.7302
76.6828
75.9004
75.5435
75.3935
75.5219
75.9154
76.2269
76.454
76.4869
76.6888
77.1208
77.3364
77.2743
77.3532
77.5553
77.9168
78.4344
79.0957
79.8571
80.6753
81.4686
82.2191
82.9374
83.6049
84.1783
84.6668
85.0463
85.3337
85.5266
85.694
85.7885
85.9248
86.0169
86.1267
86.2906
86.5684
87.1778
87.8958
88.7983
89.7399
90.7251
91.5455
92.2741
92.8159
93.2373
93.5541
93.7654
93.9397
94.0377
94.1536
94.2937
94.3957
94.6924
94.8215
95.2754
95.4548
95.8823
95.9979
96.3105
96.2975
96.4605
96.2741
96.3787
96.037
96.167
95.7645
95.9619
95.4787
95.8128
95.3625
95.921
95.5765
96.3338
95.9934
96.9105
96.4514
97.4479
96.6986
97.6784
96.5695
97.5457
96.1573
97.1474
95.5742
96.5021
94.7768
95.5229
93.5851
94.0612
91.5384
91.9065
87.7339
88.3713
79.1041
76.2494
50.9606
81.4603
80.592
79.5055
78.3918
77.4417
76.747
76.4144
76.3353
76.4671
76.8357
77.187
77.4351
77.5247
77.6809
78.0488
78.3112
78.2776
78.3196
78.4755
78.7795
79.2127
79.7612
80.3889
81.067
81.7199
82.3414
82.941
83.4908
83.9503
84.3216
84.593
84.7943
84.9406
85.0976
85.2052
85.3761
85.4793
85.6259
85.789
86.1226
86.8217
87.6081
88.6564
89.7208
90.844
91.7872
92.6246
93.2493
93.7581
94.121
94.3835
94.5253
94.6301
94.6929
94.8208
94.8711
95.1104
95.1768
95.5663
95.6738
96.0289
96.0854
96.301
96.254
96.317
96.1329
96.1723
95.8461
95.9342
95.53
95.6897
95.1703
95.4911
95.0109
95.6046
95.2092
96.004
95.5943
96.5554
96.0223
97.0788
96.2253
97.2863
96.0013
97.1026
95.4391
96.6687
94.6842
96.0383
93.7003
95.0268
92.3582
93.4091
90.135
90.6553
85.6437
85.9497
76.0335
70.4624
50.9163
81.8898
81.1393
80.2028
79.1267
78.2254
77.6029
77.3146
77.2996
77.4591
77.8036
78.1677
78.4326
78.5773
78.7233
79.0163
79.2961
79.3192
79.343
79.4529
79.6938
80.0431
80.4753
80.9647
81.4991
82.0118
82.5022
82.9813
83.4187
83.7734
84.0382
84.2111
84.3422
84.4577
84.6199
84.7604
84.9707
85.0894
85.2599
85.4015
85.8075
86.5623
87.4243
88.6313
89.8102
91.0776
92.1392
93.0848
93.7797
94.3926
94.7914
95.1183
95.2198
95.3385
95.3301
95.4496
95.4358
95.6302
95.6105
95.9471
95.9535
96.2547
96.2363
96.3787
96.2858
96.2802
96.087
96.0685
95.7489
95.7989
95.3811
95.502
94.9396
95.2337
94.7201
95.3471
94.8944
95.7224
95.2353
96.2259
95.6308
96.6926
95.7969
96.8301
95.4915
96.5273
94.7564
95.9115
93.6988
95.0818
92.335
94.0321
90.6341
92.3469
88.1788
89.5655
83.7413
83.3178
73.6224
64.1724
50.4971
82.2675
81.6412
80.8516
79.8398
78.9846
78.4562
78.2412
78.2917
78.4858
78.8072
79.1611
79.4392
79.6291
79.7885
80.0235
80.2838
80.3638
80.3855
80.4463
80.6116
80.8723
81.189
81.5516
81.9569
82.3378
82.7056
83.0711
83.402
83.6574
83.8247
83.9114
83.9902
84.0907
84.2686
84.4511
84.7028
84.8466
85.0173
85.1325
85.6146
86.3965
87.349
88.7136
89.9945
91.4081
92.5853
93.6359
94.3851
95.1269
95.5455
95.9466
96.0045
96.1504
96.0562
96.166
96.0617
96.2413
96.0984
96.4136
96.2806
96.5719
96.4507
96.5578
96.3903
96.3557
96.1184
96.0656
95.7204
95.7488
95.2987
95.3881
94.782
95.0488
94.4953
95.1542
94.6352
95.4932
94.9141
95.9349
95.266
96.3146
95.4053
96.3564
95.0566
95.931
94.2253
95.1383
92.9608
94.08
91.2403
92.6858
88.8696
90.6332
85.6154
87.451
80.6214
79.6682
70.9412
60.0221
50.7992
82.7878
82.1306
81.3384
80.4134
79.6798
79.2951
79.1796
79.2773
79.495
79.7947
80.1295
80.4165
80.6379
80.82
81.0194
81.2444
81.3562
81.3903
81.415
81.5015
81.666
81.8757
82.1351
82.4305
82.6953
82.957
83.2184
83.4494
83.6079
83.6825
83.6961
83.7414
83.8418
84.0477
84.2761
84.5699
84.748
84.8955
84.9883
85.5419
86.3384
87.4074
88.895
90.2658
91.8212
93.1108
94.251
95.0407
95.9434
96.356
96.8413
96.8521
97.0372
96.8571
96.9696
96.7512
96.9345
96.632
96.9499
96.6446
96.9736
96.7188
96.8379
96.5744
96.5416
96.2383
96.1711
95.7784
95.7909
95.2902
95.3577
94.7024
94.9457
94.3451
95.026
94.4386
95.3136
94.6447
95.6797
94.9294
95.9534
95.0323
95.8735
94.6438
95.315
93.7468
94.3652
92.3903
93.1068
90.5013
91.3631
87.6999
88.7227
83.518
84.2661
76.9251
74.9733
67.1484
57.9828
51.1681
83.5783
82.8035
81.7585
80.8752
80.3041
80.0726
80.056
80.1951
80.4277
80.7138
81.032
81.3221
81.5643
81.7674
81.9528
82.1445
82.2668
82.3147
82.3235
82.3455
82.4211
82.5445
82.7261
82.9262
83.0882
83.2597
83.4288
83.5598
83.6215
83.6129
83.5685
83.5912
83.704
83.9496
84.2305
84.5671
84.7729
84.9022
84.981
85.5944
86.402
87.6026
89.1667
90.628
92.3011
93.6945
94.914
95.7236
96.8059
97.1911
97.76
97.7362
97.9759
97.7172
97.8396
97.5169
97.6992
97.2576
97.5661
97.0771
97.4618
97.0472
97.2174
96.8451
96.8367
96.4558
96.3939
95.9392
95.938
95.3764
95.4292
94.7213
94.9401
94.2993
94.974
94.3278
95.1925
94.4529
95.461
94.647
95.6135
94.6907
95.3863
94.2351
94.6573
93.1943
93.5225
91.6571
92.034
89.5707
89.905
86.5495
86.5738
81.8954
80.9364
74.6075
71.1651
64.8658
57.244
50.8526
84.1568
83.339
82.1635
81.3057
80.8622
80.7657
80.8495
81.036
81.2825
81.5574
81.8576
82.145
82.4003
82.6189
82.8041
82.9767
83.0926
83.1437
83.1485
83.1346
83.1474
83.2145
83.3402
83.4525
83.5202
83.6133
83.696
83.7297
83.7012
83.6213
83.5322
83.5405
83.673
83.9646
84.3
84.6788
84.9002
85.0371
85.1169
85.7698
86.5888
87.9079
89.5196
91.0796
92.8287
94.3239
95.5878
96.4245
97.6851
98.033
98.6822
98.6137
98.9183
98.6132
98.7532
98.35
98.5305
97.9874
98.2693
97.6147
98.0373
97.4406
97.696
97.1951
97.24
96.7763
96.7391
96.2103
96.2049
95.5772
95.6222
94.8615
95.0527
94.383
95.0132
94.331
95.1473
94.3792
95.3003
94.4743
95.316
94.431
94.9128
93.8627
93.9659
92.6159
92.617
90.8386
90.8563
88.4927
88.3187
85.2128
84.3089
80.4145
77.9468
73.523
69.0592
64.6344
57.0913
50.6294
84.5917
83.7986
82.5961
81.7682
81.41
81.4154
81.5814
81.8081
82.0619
82.3242
82.6055
82.8855
83.1492
83.3805
83.5716
83.7352
83.8402
83.887
83.8935
83.8667
83.8486
83.8884
83.972
84.0021
83.9815
84.0054
84.0094
83.9557
83.8444
83.6987
83.5765
83.5833
83.7469
84.089
84.477
84.8915
85.1266
85.2979
85.3974
86.0769
86.9017
88.3174
89.9503
91.6091
93.3822
94.9753
96.2516
97.1406
98.5484
98.8535
99.5851
99.4687
99.8557
99.5133
99.6725
99.2228
99.3838
98.7914
99.0278
98.2463
98.6738
97.9073
98.2558
97.6189
97.7418
97.1905
97.1998
96.5863
96.6013
95.9025
95.9487
95.1568
95.3057
94.6302
95.1752
94.4915
95.2267
94.4683
95.2588
94.4726
95.116
94.3109
94.5043
93.5731
93.2981
92.0981
91.6985
90.0938
89.6152
87.5094
86.6734
84.0407
82.322
79.3191
76.2161
73.2868
68.4797
65.6644
57.3673
51.2386
84.9266
84.1878
83.0218
82.2392
81.9447
82.0159
82.2403
82.5009
82.7644
83.0223
83.2889
83.5618
83.8288
84.0704
84.2691
84.4298
84.5299
84.5751
84.5882
84.559
84.5244
84.5514
84.5996
84.5536
84.4529
84.4186
84.3519
84.224
84.0477
83.8551
83.7164
83.7313
83.9367
84.3301
84.7605
85.2044
85.4592
85.6885
85.8241
86.5238
87.3395
88.8338
90.4579
92.2025
93.9498
95.6453
96.8867
97.8912
99.3836
99.6713
100.441
100.306
100.755
100.398
100.579
100.106
100.242
99.6332
99.8046
98.9601
99.3546
98.4656
98.8908
98.1312
98.3439
97.7027
97.7642
97.0776
97.1054
96.37
96.3919
95.6364
95.6922
95.0752
95.4654
94.8578
95.4511
94.772
95.3824
94.7061
95.1071
94.406
94.2807
93.4625
92.8318
91.7933
90.97
89.6032
88.5741
86.818
85.3656
83.2632
81.0679
78.8806
75.588
73.8659
68.7773
66.9131
58.1782
52.4323
85.1588
84.4889
83.4184
82.719
82.4878
82.603
82.861
83.1423
83.4123
83.6685
83.9243
84.188
84.4528
84.6987
84.903
85.0634
85.1681
85.2233
85.2413
85.2128
85.1736
85.1942
85.2044
85.0804
84.9072
84.8293
84.7062
84.5227
84.3065
84.0926
83.9558
83.9959
84.2494
84.6879
85.1526
85.6168
85.9117
86.2116
86.4045
87.1059
87.8963
89.451
91.0336
92.8571
94.536
96.3366
97.5005
98.7082
100.169
100.505
101.255
101.14
101.629
101.259
101.459
100.987
101.09
100.51
100.593
99.7642
100.071
99.1389
99.5752
98.7505
99.0123
98.3267
98.409
97.702
97.7035
97.005
96.9432
96.3095
96.1917
95.7361
95.8702
95.4643
95.8007
95.3293
95.6609
95.2018
95.2877
94.749
94.2857
93.6161
92.7114
91.8424
90.6684
89.5256
88.0521
86.6341
84.7527
83.1875
80.6763
79.3367
75.8184
75.0306
69.5619
67.9207
59.3583
53.4425
85.302
84.7221
83.803
83.2196
83.0504
83.1818
83.4437
83.7259
83.9937
84.2467
84.494
84.7503
85.0095
85.2508
85.4562
85.6194
85.7289
85.7911
85.818
85.794
85.7582
85.7815
85.7642
85.5719
85.3428
85.2329
85.0776
84.8664
84.6342
84.4213
84.3071
84.3873
84.6892
85.1671
85.6506
86.126
86.4884
86.8697
87.146
87.8231
88.5905
90.1713
91.697
93.5802
95.1587
97.0823
98.1361
99.6047
100.925
101.373
101.989
102.009
102.43
102.12
102.313
101.881
101.938
101.438
101.4
100.687
100.811
99.9703
100.299
99.5083
99.7399
99.0782
99.1176
98.4706
98.3749
97.8034
97.5804
97.1521
96.7775
96.5827
96.3599
96.2873
96.2427
96.1228
96.0511
95.9354
95.5648
95.3461
94.4818
94.1435
92.9065
92.3655
90.7878
89.9989
88.074
87.1299
84.8022
83.9256
81.0084
80.5477
76.5999
76.3687
70.553
68.581
60.4544
54.1276
85.3427
84.8701
84.1589
83.7202
83.6133
83.7431
83.9846
84.2488
84.5047
84.7501
84.9892
85.2363
85.4822
85.7125
85.9161
86.0798
86.2009
86.2806
86.3137
86.2889
86.2577
86.2853
86.2506
86.0145
85.7521
85.6171
85.4584
85.2546
85.0383
84.8559
84.7864
84.9183
85.2704
85.7688
86.2564
86.7402
87.1868
87.6563
88.0275
88.6593
89.4252
90.9746
92.4363
94.3684
95.8258
97.8815
98.8122
100.581
101.629
102.291
102.686
102.948
103.19
103.013
103.123
102.796
102.766
102.408
102.216
101.709
101.574
100.951
101.024
100.411
100.484
99.9529
99.8629
99.3656
99.0945
98.7254
98.2721
98.0991
97.4221
97.5334
96.8969
97.2263
96.7237
97.048
96.4859
96.8062
95.9235
96.1603
94.8496
95.0492
93.3399
93.3329
91.2178
91.0217
88.5193
88.291
85.3642
85.3126
81.8261
82.0432
77.6249
77.4575
71.4437
68.8901
61.2967
54.6794
85.3083
84.9693
84.5059
84.2147
84.1454
84.2474
84.4511
84.6882
84.9256
85.1576
85.383
85.6127
85.8396
86.0576
86.2609
86.4317
86.5683
86.6645
86.7047
86.6832
86.6601
86.6939
86.6524
86.4075
86.1433
85.9992
85.8568
85.6845
85.5134
85.3913
85.391
85.589
85.9852
86.4903
86.9735
87.4639
87.9945
88.5446
89.0011
89.583
90.3584
91.8131
93.222
95.1857
96.5182
98.7123
99.4859
101.578
102.365
103.203
103.401
103.961
103.905
103.974
103.867
103.722
103.534
103.385
102.982
102.789
102.332
102.054
101.76
101.442
101.227
100.926
100.606
100.342
99.8158
99.7205
98.9709
99.1019
98.0877
98.5244
97.4573
98.1813
97.2121
97.9847
96.9325
97.7166
96.3499
97.1327
95.3474
96.1794
93.9186
94.5495
91.8503
92.3791
89.2487
89.8083
86.243
86.8829
82.8512
83.3647
78.597
78.1344
72.0976
68.9314
61.9171
55.2504
85.2378
85.0343
84.8137
84.6383
84.5816
84.6502
84.8123
85.0171
85.2314
85.4471
85.6604
85.8779
86.0937
86.3038
86.5038
86.6774
86.8266
86.9378
86.9908
86.9828
86.9789
87.021
86.977
86.7507
86.5165
86.387
86.2785
86.1631
86.064
86.0239
86.1071
86.3723
86.8031
87.3041
87.7721
88.2726
88.8676
89.4817
90.0106
90.5611
91.333
92.6561
94.0421
95.9976
97.2249
99.5464
100.118
102.498
103.032
104.067
103.953
104.959
104.536
104.958
104.488
104.639
104.162
104.315
103.621
103.798
102.985
103.138
102.424
102.507
101.909
101.931
101.284
101.341
100.486
100.725
99.6367
100.087
98.7389
99.4723
98.0283
99.0768
97.6942
98.8654
97.3778
98.6245
96.7953
98.1811
95.8951
97.3282
94.547
95.7786
92.5854
93.7865
90.1176
91.3533
87.2311
88.3362
83.8457
84.37
79.3812
78.4385
72.5734
68.8518
62.3957
55.8601
85.2698
85.1315
85.0328
84.9297
84.8836
84.9287
85.0571
85.2331
85.4276
85.6309
85.8364
86.0443
86.2498
86.4526
86.6496
86.8286
86.9888
87.1133
87.1862
87.2068
87.2312
87.2816
87.244
87.0601
86.8781
86.7832
86.7258
86.6833
86.6692
86.7222
86.891
87.2136
87.6609
88.1369
88.5825
89.0932
89.723
90.3833
90.972
91.5239
92.2817
93.4655
94.8379
96.7354
97.872
100.312
100.727
103.312
103.5
104.994
104.456
105.785
105.049
105.787
104.986
105.506
104.663
105.172
104.132
104.663
103.522
104.059
102.982
103.495
102.502
102.924
101.897
102.317
101.096
101.666
100.227
100.983
99.3194
100.334
98.5641
99.9035
98.1397
99.6989
97.7908
99.5217
97.2407
99.1762
96.4386
98.3231
95.1437
96.8637
93.3068
95.0327
90.9705
92.6863
88.1548
89.516
84.6844
85.0629
79.9725
78.5005
72.9563
68.7953
62.7723
56.4848
85.3457
85.2448
85.1764
85.0978
85.0605
85.0934
85.1981
85.3526
85.5336
85.7286
85.9273
86.127
86.3249
86.523
86.7191
86.9037
87.0783
87.2226
87.3202
87.3751
87.4327
87.4951
87.4713
87.3399
87.2189
87.1714
87.1697
87.1987
87.2667
87.4026
87.6414
88.0004
88.4424
88.8791
89.2976
89.811
90.4443
91.1234
91.7609
92.3535
93.1126
94.1845
95.53
97.3238
98.4125
100.926
101.229
103.99
103.764
105.738
104.903
106.338
105.404
106.454
105.365
106.192
105.012
105.817
104.476
105.296
103.9
104.756
103.392
104.281
102.94
103.756
102.344
103.131
101.531
102.429
100.646
101.701
99.7367
101.038
98.9649
100.606
98.4905
100.417
98.134
100.289
97.6438
99.9548
96.8843
99.0865
95.655
97.7154
93.9385
96.0064
91.697
93.7104
88.8961
90.3852
85.3114
85.507
80.3907
78.4691
73.2558
68.8072
63.0492
57.0686
85.4316
85.3389
85.2531
85.1752
85.14
85.1644
85.2536
85.3947
85.5684
85.7606
85.9578
86.1565
86.3533
86.5521
86.7522
86.946
87.132
87.2927
87.4152
87.504
87.5895
87.6622
87.6562
87.5747
87.5093
87.5043
87.5463
87.6252
87.7474
87.9343
88.2088
88.575
88.9941
89.3954
89.7885
90.2875
90.9109
91.5994
92.272
92.9204
93.711
94.7304
96.0586
97.729
98.8104
101.364
101.501
104.488
104.003
106.075
105.135
106.723
105.685
106.889
105.592
106.611
105.248
106.175
104.693
105.637
104.123
105.195
103.658
104.802
103.242
104.317
102.644
103.675
101.806
102.927
100.893
102.165
99.9761
101.492
99.191
101.054
98.6918
100.865
98.343
100.757
97.89
100.402
97.1306
99.5233
95.9666
98.2051
94.3436
96.5727
92.1704
94.3156
89.3896
90.8923
85.7454
85.7326
80.7622
78.3991
73.5187
68.8434
63.2168
57.5004
85.5863
85.4098
85.28
85.1954
85.1579
85.1778
85.2612
85.3971
85.5672
85.7572
85.9533
86.1517
86.352
86.5566
86.764
86.9681
87.165
87.3378
87.4751
87.5815
87.6777
87.7535
87.7581
87.7016
87.6596
87.6689
87.7232
87.8166
87.9541
88.1538
88.4344
88.7963
89.2032
89.5963
89.9822
90.4793
91.0947
91.7798
92.4619
93.1606
93.995
94.9969
96.3059
97.919
99.0057
101.561
101.69
104.715
104.138
106.21
105.268
106.984
105.755
107.039
105.699
106.783
105.351
106.305
104.796
105.779
104.227
105.386
103.773
105.032
103.347
104.551
102.73
103.882
101.881
103.108
100.955
102.329
100.031
101.647
99.244
101.207
98.7359
101.021
98.382
100.924
97.9282
100.555
97.1528
99.6716
95.9968
98.3755
94.395
96.776
92.255
94.5369
89.5066
91.0758
85.8646
85.7976
80.8469
78.3231
73.5598
68.8189
63.245
57.4681
82.0633
81.663
80.5669
78.9081
77.5613
76.4231
75.5643
75.2204
74.9344
74.8227
75.058
75.7524
76.8351
77.9275
78.8515
79.7205
80.5989
81.4329
82.1256
82.8486
83.917
85.3014
86.8596
88.4913
90.1594
91.8927
93.6663
95.3823
97.0955
98.8148
100.687
102.507
104.337
105.68
106.67
107.015
107.044
106.709
106.24
105.659
105.182
104.616
104.176
103.656
103.293
102.959
102.874
102.709
102.709
102.536
102.526
102.367
102.336
102.207
102.202
102.17
102.216
102.286
102.434
102.596
102.804
102.99
103.144
103.216
103.199
103.101
102.956
102.775
102.583
102.38
102.186
101.995
101.823
101.664
101.532
101.419
101.332
101.264
101.216
101.182
101.163
101.155
101.159
101.175
101.203
101.242
101.293
101.356
101.43
101.513
101.607
101.717
101.836
101.925
101.962
102.05
102.204
102.482
103.333
104.414
82.0003
81.5525
80.3746
78.678
77.3017
76.1664
75.338
75.0119
74.6971
74.5759
74.813
75.5082
76.5934
77.6726
78.5694
79.4435
80.3402
81.1784
81.8549
82.5802
83.6555
85.0527
86.5688
88.1195
89.7409
91.4846
93.3086
95.0737
96.8138
98.5369
100.426
102.244
104.068
105.448
106.427
106.804
106.83
106.531
106.063
105.516
105.044
104.524
104.08
103.586
103.227
102.902
102.825
102.674
102.685
102.508
102.506
102.336
102.31
102.17
102.161
102.123
102.174
102.245
102.405
102.57
102.787
102.978
103.138
103.215
103.197
103.1
102.954
102.77
102.578
102.374
102.18
101.988
101.816
101.656
101.525
101.411
101.326
101.257
101.211
101.177
101.158
101.15
101.156
101.172
101.2
101.239
101.291
101.354
101.428
101.51
101.603
101.711
101.832
101.92
101.953
102.011
102.098
102.309
103.155
104.212
81.8807
81.3332
80.0034
78.2145
76.79
75.6164
74.8529
74.5663
74.2349
74.082
74.306
74.9795
76.0241
77.0525
77.8945
78.7373
79.6223
80.4316
81.0994
81.8633
83.0195
84.4424
85.873
87.2808
88.8406
90.6058
92.5382
94.405
96.202
97.9281
99.8531
101.677
103.474
104.924
105.875
106.319
106.339
106.094
105.644
105.134
104.688
104.228
103.795
103.334
102.988
102.685
102.618
102.504
102.532
102.376
102.397
102.221
102.208
102.063
102.047
102.001
102.06
102.137
102.313
102.493
102.724
102.932
103.103
103.192
103.18
103.084
102.939
102.755
102.563
102.358
102.164
101.971
101.799
101.638
101.507
101.393
101.308
101.24
101.193
101.159
101.139
101.131
101.135
101.151
101.178
101.218
101.268
101.333
101.405
101.49
101.578
101.685
101.808
101.92
101.96
101.98
101.925
102.037
102.838
103.9
81.6954
81.0487
79.5341
77.6452
76.1747
74.9218
74.2154
73.9234
73.5472
73.3828
73.6085
74.2207
75.1574
76.1033
76.9123
77.7252
78.5677
79.3077
79.9511
80.7769
82.0367
83.4915
84.886
86.178
87.6892
89.4833
91.5336
93.5127
95.3895
97.1323
99.0861
100.947
102.692
104.21
105.149
105.645
105.676
105.477
105.058
104.582
104.165
103.76
103.344
102.895
102.576
102.297
102.238
102.167
102.225
102.102
102.156
101.984
101.989
101.849
101.819
101.775
101.84
101.936
102.132
102.339
102.591
102.831
103.02
103.129
103.126
103.033
102.891
102.709
102.521
102.318
102.127
101.933
101.763
101.601
101.472
101.356
101.272
101.202
101.157
101.121
101.1
101.089
101.092
101.105
101.132
101.169
101.222
101.283
101.359
101.441
101.533
101.633
101.768
101.906
101.983
101.96
101.768
101.761
102.509
103.565
81.4621
80.7232
79.0373
77.0583
75.5284
74.1803
73.4773
73.1293
72.6588
72.4396
72.6091
73.1455
73.9854
74.8715
75.6983
76.5004
77.2879
77.9631
78.599
79.4951
80.8338
82.3099
83.7129
84.9541
86.449
88.3183
90.5033
92.5932
94.5482
96.3169
98.2607
100.142
101.83
103.375
104.314
104.836
104.891
104.731
104.354
103.918
103.525
103.174
102.768
102.34
102.049
101.783
101.741
101.695
101.805
101.698
101.79
101.624
101.645
101.516
101.473
101.436
101.512
101.635
101.858
102.099
102.381
102.665
102.88
103.018
103.03
102.942
102.804
102.624
102.442
102.242
102.056
101.865
101.7
101.538
101.412
101.295
101.213
101.143
101.097
101.058
101.035
101.021
101.02
101.03
101.053
101.089
101.138
101.2
101.274
101.361
101.452
101.561
101.695
101.867
101.968
101.951
101.623
101.534
102.224
103.301
81.2171
80.412
78.5799
76.527
74.9307
73.4638
72.6913
72.2062
71.5692
71.2304
71.2734
71.7241
72.5419
73.429
74.3283
75.1428
75.9066
76.5724
77.2317
78.174
79.5419
81.0494
82.4903
83.7505
85.2596
87.2396
89.5647
91.7567
93.7631
95.5445
97.4375
99.302
100.915
102.442
103.379
103.897
103.978
103.856
103.541
103.136
102.771
102.474
102.106
101.722
101.443
101.198
101.169
101.136
101.289
101.187
101.322
101.166
101.201
101.099
101.054
101.025
101.117
101.261
101.509
101.788
102.099
102.43
102.677
102.853
102.889
102.811
102.681
102.505
102.331
102.134
101.955
101.765
101.607
101.447
101.326
101.209
101.131
101.061
101.015
100.974
100.947
100.929
100.922
100.928
100.945
100.976
101.019
101.078
101.15
101.237
101.335
101.451
101.599
101.778
101.918
101.906
101.547
101.389
102.108
103.156
81.0005
80.1498
78.1886
76.0729
74.3983
72.8066
71.8777
71.1432
70.2917
69.7539
69.65
70.0312
70.93
71.8986
72.9004
73.7523
74.5432
75.2648
75.9803
76.956
78.334
79.8779
81.3653
82.6674
84.2022
86.2981
88.7454
91.0068
93.0374
94.8121
96.6378
98.4578
99.9769
101.44
102.371
102.865
102.972
102.885
102.635
102.265
101.933
101.686
101.375
101.018
100.753
100.54
100.516
100.504
100.674
100.593
100.753
100.619
100.66
100.592
100.542
100.53
100.62
100.801
101.07
101.408
101.746
102.13
102.413
102.629
102.698
102.635
102.518
102.348
102.186
101.994
101.824
101.637
101.487
101.329
101.215
101.099
101.028
100.958
100.916
100.869
100.842
100.816
100.806
100.802
100.813
100.833
100.87
100.918
100.987
101.068
101.173
101.297
101.456
101.648
101.8
101.834
101.495
101.382
102.078
103.196
80.8279
79.9383
77.8553
75.6735
73.9106
72.1914
71.0263
69.9894
68.9275
68.1529
67.9124
68.2454
69.2854
70.4144
71.5102
72.4289
73.2815
74.1013
74.9081
75.9173
77.3123
78.8973
80.4373
81.7776
83.3337
85.5208
88.0442
90.322
92.3615
94.1214
95.8708
97.6054
99.0304
100.392
101.297
101.777
101.901
101.847
101.657
101.331
101.027
100.826
100.566
100.228
99.9883
99.7964
99.7866
99.7891
99.9737
99.9251
100.093
99.9851
100.01
99.9749
99.8984
99.9152
100.004
100.241
100.552
100.957
101.344
101.774
102.1
102.35
102.456
102.413
102.311
102.148
102
101.814
101.656
101.473
101.336
101.181
101.077
100.963
100.9
100.831
100.793
100.746
100.716
100.686
100.67
100.659
100.66
100.672
100.695
100.734
100.788
100.866
100.963
101.097
101.258
101.462
101.629
101.701
101.483
101.442
102.244
103.247
80.6948
79.7523
77.5576
75.299
73.4222
71.5783
70.1221
68.8133
67.6094
66.6299
66.254
66.5568
67.7373
69.0822
70.2556
71.2434
72.1759
73.1219
74.0484
75.1076
76.5205
78.1396
79.7305
81.1063
82.6743
84.9131
87.4464
89.7038
91.7236
93.4429
95.117
96.7257
98.062
99.316
100.178
100.65
100.785
100.758
100.622
100.339
100.063
99.8982
99.6876
99.3842
99.1774
99.0062
99.0164
99.0161
99.2206
99.186
99.3534
99.2746
99.267
99.2643
99.1689
99.2383
99.3577
99.6631
100.024
100.486
100.915
101.381
101.751
102.026
102.17
102.146
102.063
101.909
101.775
101.596
101.451
101.274
101.149
100.999
100.905
100.797
100.742
100.678
100.645
100.599
100.57
100.537
100.515
100.498
100.49
100.491
100.502
100.527
100.568
100.628
100.719
100.841
101.008
101.206
101.401
101.52
101.447
101.534
102.346
103.542
80.5688
79.5573
77.2605
74.9081
72.8847
70.9264
69.1948
67.6821
66.4186
65.2912
64.8231
65.1024
66.413
67.9795
69.2026
70.2461
71.2799
72.3551
73.4054
74.5206
75.9572
77.6019
79.2236
80.6403
82.2123
84.4469
86.926
89.1244
91.0839
92.7472
94.3391
95.812
97.0597
98.2212
99.03
99.4991
99.643
99.6364
99.5408
99.3019
99.0561
98.9114
98.7516
98.4996
98.3175
98.1767
98.2028
98.214
98.43
98.3917
98.5541
98.4999
98.4559
98.4929
98.4003
98.539
98.6984
99.0628
99.4585
99.9755
100.444
100.946
101.357
101.653
101.835
101.829
101.769
101.622
101.504
101.332
101.205
101.035
100.925
100.779
100.698
100.596
100.555
100.495
100.472
100.427
100.404
100.366
100.343
100.316
100.302
100.29
100.292
100.3
100.325
100.368
100.437
100.548
100.693
100.895
101.1
101.289
101.365
101.625
102.581
103.621
80.4126
79.3115
76.936
74.4722
72.2891
70.2432
68.3148
66.6815
65.4287
64.2177
63.7261
64.0065
65.4394
67.1929
68.4151
69.4929
70.6235
71.7975
72.9521
74.1209
75.5838
77.2607
78.8875
80.3409
81.9113
84.08
86.4395
88.5394
90.4132
92.0114
93.5078
94.8582
96.0244
97.1084
97.8648
98.3321
98.4825
98.4903
98.4214
98.2268
98.0141
97.8869
97.7613
97.5616
97.4226
97.3159
97.3542
97.3931
97.6018
97.5683
97.7188
97.6712
97.5938
97.6714
97.5808
97.7906
97.9754
98.4041
98.8451
99.4193
99.9399
100.463
100.919
101.23
101.449
101.462
101.427
101.288
101.187
101.023
100.913
100.751
100.657
100.517
100.45
100.357
100.332
100.283
100.271
100.233
100.214
100.176
100.15
100.118
100.094
100.074
100.06
100.056
100.059
100.085
100.128
100.214
100.339
100.517
100.743
100.977
101.22
101.616
102.64
103.969
80.1704
78.9854
76.569
74.0193
71.6939
69.609
67.6119
65.9457
64.7541
63.5602
63.1012
63.3848
64.883
66.7558
67.9369
69.0167
70.2203
71.461
72.6817
73.8906
75.3574
77.0608
78.6774
80.1654
81.7252
83.7904
85.9732
87.9403
89.7057
91.2237
92.6245
93.8811
94.9873
95.9993
96.7069
97.1647
97.3184
97.3366
97.2821
97.1243
96.9477
96.8403
96.7489
96.6078
96.5151
96.44
96.4979
96.5607
96.7626
96.7437
96.8635
96.8039
96.716
96.8075
96.7514
96.9982
97.2457
97.7212
98.2251
98.8352
99.4098
99.9472
100.444
100.769
101.023
101.052
101.044
100.911
100.829
100.672
100.58
100.424
100.346
100.215
100.165
100.084
100.075
100.038
100.042
100.015
100.004
99.9688
99.941
99.9028
99.8718
99.84
99.8139
99.7911
99.7767
99.7752
99.7941
99.8476
99.9428
100.097
100.314
100.601
100.966
101.582
102.702
103.766
79.8278
78.5634
76.1541
73.5868
71.2257
69.1528
67.2251
65.6055
64.5274
63.4307
63.0278
63.2859
64.7759
66.6825
67.8082
68.8397
70.0817
71.3456
72.5776
73.8036
75.2485
76.9573
78.5436
80.0551
81.5875
83.5168
85.5064
87.3324
88.9788
90.4164
91.7353
92.9171
93.9682
94.9082
95.5673
96.007
96.1601
96.186
96.1396
96.0179
95.876
95.7886
95.728
95.6473
95.6093
95.5775
95.6625
95.7447
95.9393
95.9255
96.0148
95.947
95.871
95.964
95.9812
96.2375
96.554
97.0529
97.603
98.2348
98.8621
99.4075
99.9413
100.279
100.565
100.605
100.623
100.496
100.433
100.283
100.208
100.058
99.9961
99.8749
99.8454
99.7776
99.7879
99.766
99.7885
99.777
99.7772
99.749
99.7204
99.6786
99.638
99.5955
99.5537
99.5139
99.4746
99.4486
99.4329
99.453
99.5099
99.6258
99.8251
100.113
100.564
101.234
102.334
103.704
79.4209
78.1054
75.7671
73.223
70.9651
68.9651
67.2279
65.7186
64.7837
63.8505
63.4993
63.7201
65.1325
66.9883
68.041
68.9678
70.1894
71.4306
72.6283
73.8526
75.2519
76.9242
78.4603
79.9619
81.4557
83.2319
85.0397
86.7345
88.2633
89.6252
90.8681
91.9811
92.9744
93.8394
94.4512
94.8608
95.0112
95.0399
94.9972
94.9045
94.7986
94.7475
94.728
94.7118
94.7322
94.7544
94.8685
94.9703
95.1513
95.1369
95.2017
95.1368
95.0926
95.2
95.2925
95.5509
95.9216
96.4255
97.0169
97.6564
98.3204
98.8653
99.4288
99.772
100.086
100.128
100.171
100.047
100.009
99.8596
99.8028
99.6528
99.6126
99.4999
99.4945
99.4426
99.4767
99.4741
99.5184
99.525
99.5405
99.5199
99.495
99.448
99.4005
99.3441
99.2872
99.2246
99.162
99.1017
99.0568
99.0292
99.049
99.1105
99.2669
99.5349
99.991
100.748
101.87
102.941
79.0733
77.7063
75.4942
73.0076
70.9344
69.1088
67.6091
66.2642
65.4912
64.7689
64.4736
64.6556
65.911
67.6417
68.6048
69.3944
70.5343
71.7072
72.8222
74.0076
75.3421
76.9403
78.419
79.8893
81.3349
82.9531
84.5923
86.161
87.5772
88.867
90.0396
91.0873
92.0152
92.7968
93.3576
93.7257
93.8699
93.9004
93.8639
93.8
93.7389
93.7355
93.7687
93.8214
93.907
93.9968
94.1406
94.2566
94.4194
94.4067
94.4568
94.4141
94.4083
94.5372
94.6827
94.9522
95.3651
95.8689
96.4871
97.1148
97.7987
98.336
98.9192
99.2542
99.593
99.6257
99.6958
99.5674
99.5585
99.3993
99.3718
99.2171
99.2084
99.0981
99.1221
99.0828
99.1495
99.1648
99.2403
99.2628
99.3005
99.2852
99.2691
99.2149
99.1634
99.0889
99.0183
98.9271
98.8412
98.7431
98.6606
98.5859
98.5485
98.5543
98.6382