/*--------------------------------*- C++ -*----------------------------------*\
| =========                 |                                                 |
| \\      /  F ield         | OpenFOAM: The Open Source CFD Toolbox           |
|  \\    /   O peration     | Version:  2.4.0                                 |
|   \\  /    A nd           | Web:      www.OpenFOAM.org                      |
|    \\/     M anipulation  |                                                 |
\*---------------------------------------------------------------------------*/
FoamFile
{
    version     2.0;
    format      ascii;
    class       volScalarField;
    location    "0.065";
    object      pPrime2Mean;
}
// * * * * * * * * * * * * * * * * * * * * * * * * * * * * * * * * * * * * * //

dimensions      [0 4 -4 0 0 0 0];

internalField   nonuniform List<scalar> 
17600
(
1.00141e+07
9.89162e+06
9.75552e+06
9.61951e+06
9.48427e+06
9.34997e+06
9.2166e+06
9.08412e+06
8.95257e+06
8.82194e+06
8.69225e+06
8.56351e+06
8.43572e+06
8.30889e+06
8.18301e+06
8.05809e+06
7.93413e+06
7.81112e+06
7.68907e+06
7.56797e+06
7.44782e+06
7.32861e+06
7.21034e+06
7.09299e+06
6.97657e+06
6.86105e+06
6.74641e+06
6.63263e+06
6.51966e+06
6.40745e+06
6.29594e+06
6.18501e+06
6.07451e+06
5.96425e+06
5.85389e+06
5.74296e+06
5.63069e+06
5.51585e+06
5.39554e+06
5.26245e+06
1.00143e+07
9.89175e+06
9.7556e+06
9.61954e+06
9.48428e+06
9.34998e+06
9.21659e+06
9.08411e+06
8.95256e+06
8.82193e+06
8.69224e+06
8.5635e+06
8.43572e+06
8.30888e+06
8.18301e+06
8.05809e+06
7.93413e+06
7.81112e+06
7.68907e+06
7.56797e+06
7.44782e+06
7.32861e+06
7.21034e+06
7.093e+06
6.97658e+06
6.86107e+06
6.74644e+06
6.63266e+06
6.51971e+06
6.40753e+06
6.29604e+06
6.18515e+06
6.07471e+06
5.96453e+06
5.8543e+06
5.74358e+06
5.63168e+06
5.5175e+06
5.39897e+06
5.27088e+06
1.00144e+07
9.89186e+06
9.75567e+06
9.61957e+06
9.48427e+06
9.34994e+06
9.21654e+06
9.08407e+06
8.95252e+06
8.8219e+06
8.69222e+06
8.56349e+06
8.43571e+06
8.30888e+06
8.18301e+06
8.05809e+06
7.93413e+06
7.81113e+06
7.68908e+06
7.56798e+06
7.44783e+06
7.32862e+06
7.21036e+06
7.09303e+06
6.97661e+06
6.86111e+06
6.74649e+06
6.63274e+06
6.51981e+06
6.40767e+06
6.29623e+06
6.18542e+06
6.07509e+06
5.96507e+06
5.85509e+06
5.74477e+06
5.63354e+06
5.52057e+06
5.40453e+06
5.28384e+06
1.00145e+07
9.89196e+06
9.75572e+06
9.61958e+06
9.48425e+06
9.34991e+06
9.2165e+06
9.08403e+06
8.95249e+06
8.82188e+06
8.6922e+06
8.56348e+06
8.4357e+06
8.30887e+06
8.183e+06
8.05809e+06
7.93413e+06
7.81113e+06
7.68908e+06
7.56799e+06
7.44784e+06
7.32864e+06
7.21038e+06
7.09306e+06
6.97666e+06
6.86117e+06
6.74657e+06
6.63285e+06
6.51996e+06
6.40787e+06
6.29652e+06
6.18581e+06
6.07565e+06
5.96586e+06
5.85623e+06
5.74646e+06
5.63612e+06
5.52471e+06
5.41169e+06
5.29721e+06
1.00146e+07
9.89203e+06
9.75577e+06
9.6196e+06
9.48424e+06
9.34988e+06
9.21647e+06
9.084e+06
8.95246e+06
8.82185e+06
8.69219e+06
8.56346e+06
8.43569e+06
8.30887e+06
8.183e+06
8.05809e+06
7.93413e+06
7.81113e+06
7.68909e+06
7.56799e+06
7.44785e+06
7.32866e+06
7.21041e+06
7.0931e+06
6.97671e+06
6.86124e+06
6.74667e+06
6.63299e+06
6.52016e+06
6.40814e+06
6.29688e+06
6.18632e+06
6.07636e+06
5.96686e+06
5.85767e+06
5.74855e+06
5.63923e+06
5.52949e+06
5.41936e+06
5.30992e+06
1.00147e+07
9.89209e+06
9.75581e+06
9.61962e+06
9.48424e+06
9.34987e+06
9.21645e+06
9.08398e+06
8.95244e+06
8.82184e+06
8.69218e+06
8.56346e+06
8.43568e+06
8.30886e+06
8.183e+06
8.05809e+06
7.93413e+06
7.81113e+06
7.68909e+06
7.56801e+06
7.44787e+06
7.32869e+06
7.21045e+06
7.09314e+06
6.97678e+06
6.86133e+06
6.7468e+06
6.63316e+06
6.52039e+06
6.40846e+06
6.29732e+06
6.18693e+06
6.0772e+06
5.96804e+06
5.85934e+06
5.75095e+06
5.64275e+06
5.53475e+06
5.42732e+06
5.3216e+06
1.00148e+07
9.89213e+06
9.75584e+06
9.61963e+06
9.48424e+06
9.34986e+06
9.21644e+06
9.08396e+06
8.95242e+06
8.82182e+06
8.69216e+06
8.56345e+06
8.43568e+06
8.30886e+06
8.183e+06
8.05809e+06
7.93414e+06
7.81114e+06
7.6891e+06
7.56802e+06
7.44789e+06
7.32872e+06
7.21049e+06
7.0932e+06
6.97685e+06
6.86144e+06
6.74694e+06
6.63335e+06
6.52065e+06
6.40882e+06
6.29782e+06
6.18761e+06
6.07814e+06
5.96936e+06
5.86118e+06
5.75355e+06
5.64647e+06
5.54009e+06
5.43496e+06
5.33216e+06
1.00148e+07
9.89216e+06
9.75587e+06
9.61964e+06
9.48424e+06
9.34985e+06
9.21642e+06
9.08394e+06
8.95241e+06
8.82181e+06
8.69216e+06
8.56344e+06
8.43568e+06
8.30886e+06
8.183e+06
8.05809e+06
7.93414e+06
7.81115e+06
7.68911e+06
7.56804e+06
7.44792e+06
7.32875e+06
7.21053e+06
7.09326e+06
6.97694e+06
6.86155e+06
6.7471e+06
6.63356e+06
6.52094e+06
6.40921e+06
6.29836e+06
6.18835e+06
6.07916e+06
5.97076e+06
5.86313e+06
5.75627e+06
5.65026e+06
5.54538e+06
5.44224e+06
5.3418e+06
1.00148e+07
9.89218e+06
9.75588e+06
9.61965e+06
9.48425e+06
9.34985e+06
9.21642e+06
9.08394e+06
8.9524e+06
8.8218e+06
8.69215e+06
8.56344e+06
8.43568e+06
8.30886e+06
8.183e+06
8.05809e+06
7.93415e+06
7.81116e+06
7.68913e+06
7.56806e+06
7.44794e+06
7.32878e+06
7.21058e+06
7.09333e+06
6.97703e+06
6.86167e+06
6.74726e+06
6.63379e+06
6.52125e+06
6.40963e+06
6.29893e+06
6.18913e+06
6.08023e+06
5.97222e+06
5.86513e+06
5.75901e+06
5.65402e+06
5.55049e+06
5.44903e+06
5.35045e+06
1.00148e+07
9.8922e+06
9.75589e+06
9.61966e+06
9.48425e+06
9.34984e+06
9.21641e+06
9.08393e+06
8.9524e+06
8.8218e+06
8.69215e+06
8.56344e+06
8.43568e+06
8.30886e+06
8.183e+06
8.0581e+06
7.93415e+06
7.81117e+06
7.68914e+06
7.56808e+06
7.44797e+06
7.32882e+06
7.21063e+06
7.0934e+06
6.97712e+06
6.8618e+06
6.74743e+06
6.63402e+06
6.52157e+06
6.41006e+06
6.29952e+06
6.18993e+06
6.08131e+06
5.97369e+06
5.86712e+06
5.76171e+06
5.65766e+06
5.55532e+06
5.45529e+06
5.35821e+06
1.00148e+07
9.8922e+06
9.75589e+06
9.61966e+06
9.48425e+06
9.34984e+06
9.21641e+06
9.08393e+06
8.9524e+06
8.8218e+06
8.69215e+06
8.56344e+06
8.43568e+06
8.30887e+06
8.18301e+06
8.0581e+06
7.93416e+06
7.81118e+06
7.68916e+06
7.5681e+06
7.448e+06
7.32886e+06
7.21068e+06
7.09347e+06
6.97722e+06
6.86193e+06
6.74761e+06
6.63426e+06
6.52189e+06
6.4105e+06
6.3001e+06
6.19072e+06
6.08238e+06
5.97513e+06
5.86907e+06
5.76431e+06
5.6611e+06
5.5598e+06
5.46098e+06
5.36512e+06
1.00148e+07
9.89219e+06
9.75588e+06
9.61965e+06
9.48425e+06
9.34985e+06
9.21642e+06
9.08394e+06
8.9524e+06
8.82181e+06
8.69216e+06
8.56345e+06
8.43568e+06
8.30887e+06
8.18301e+06
8.05811e+06
7.93417e+06
7.81119e+06
7.68917e+06
7.56812e+06
7.44803e+06
7.3289e+06
7.21073e+06
7.09354e+06
6.97731e+06
6.86205e+06
6.74778e+06
6.63449e+06
6.5222e+06
6.41092e+06
6.30068e+06
6.19149e+06
6.08342e+06
5.97652e+06
5.87092e+06
5.76675e+06
5.66429e+06
5.56389e+06
5.4661e+06
5.37129e+06
1.00148e+07
9.89217e+06
9.75587e+06
9.61965e+06
9.48425e+06
9.34985e+06
9.21642e+06
9.08395e+06
8.95241e+06
8.82182e+06
8.69216e+06
8.56345e+06
8.43569e+06
8.30888e+06
8.18302e+06
8.05812e+06
7.93418e+06
7.8112e+06
7.68919e+06
7.56814e+06
7.44805e+06
7.32893e+06
7.21078e+06
7.0936e+06
6.9774e+06
6.86218e+06
6.74794e+06
6.63472e+06
6.5225e+06
6.41133e+06
6.30122e+06
6.19222e+06
6.0844e+06
5.97783e+06
5.87264e+06
5.76901e+06
5.66719e+06
5.56754e+06
5.47056e+06
5.37672e+06
1.00147e+07
9.89214e+06
9.75585e+06
9.61963e+06
9.48424e+06
9.34986e+06
9.21644e+06
9.08396e+06
8.95243e+06
8.82183e+06
8.69217e+06
8.56346e+06
8.43569e+06
8.30888e+06
8.18302e+06
8.05813e+06
7.93419e+06
7.81122e+06
7.6892e+06
7.56816e+06
7.44808e+06
7.32897e+06
7.21083e+06
7.09367e+06
6.97748e+06
6.86229e+06
6.7481e+06
6.63492e+06
6.52278e+06
6.4117e+06
6.30173e+06
6.1929e+06
6.0853e+06
5.97902e+06
5.8742e+06
5.77104e+06
5.66977e+06
5.57078e+06
5.47451e+06
5.38138e+06
1.00147e+07
9.89209e+06
9.75581e+06
9.61962e+06
9.48424e+06
9.34987e+06
9.21645e+06
9.08398e+06
8.95244e+06
8.82185e+06
8.69219e+06
8.56347e+06
8.4357e+06
8.30889e+06
8.18303e+06
8.05814e+06
7.9342e+06
7.81123e+06
7.68922e+06
7.56818e+06
7.4481e+06
7.329e+06
7.21087e+06
7.09372e+06
6.97756e+06
6.86239e+06
6.74824e+06
6.63511e+06
6.52303e+06
6.41204e+06
6.30218e+06
6.19351e+06
6.08611e+06
5.98008e+06
5.87559e+06
5.77282e+06
5.67204e+06
5.57358e+06
5.47787e+06
5.38527e+06
1.00146e+07
9.89203e+06
9.75577e+06
9.6196e+06
9.48425e+06
9.34989e+06
9.21648e+06
9.08401e+06
8.95247e+06
8.82186e+06
8.6922e+06
8.56348e+06
8.43571e+06
8.3089e+06
8.18304e+06
8.05814e+06
7.93421e+06
7.81124e+06
7.68923e+06
7.56819e+06
7.44812e+06
7.32903e+06
7.21091e+06
7.09377e+06
6.97763e+06
6.86248e+06
6.74836e+06
6.63527e+06
6.52325e+06
6.41234e+06
6.30258e+06
6.19403e+06
6.0868e+06
5.981e+06
5.87678e+06
5.77434e+06
5.67395e+06
5.57592e+06
5.48066e+06
5.38847e+06
1.00145e+07
9.89196e+06
9.75573e+06
9.61958e+06
9.48426e+06
9.34991e+06
9.21651e+06
9.08404e+06
8.95249e+06
8.82189e+06
8.69222e+06
8.5635e+06
8.43572e+06
8.30891e+06
8.18305e+06
8.05815e+06
7.93422e+06
7.81125e+06
7.68924e+06
7.56821e+06
7.44814e+06
7.32905e+06
7.21094e+06
7.09381e+06
6.97768e+06
6.86256e+06
6.74846e+06
6.63541e+06
6.52344e+06
6.41258e+06
6.3029e+06
6.19447e+06
6.08737e+06
5.98175e+06
5.87775e+06
5.77558e+06
5.6755e+06
5.57781e+06
5.48287e+06
5.39095e+06
1.00144e+07
9.89186e+06
9.75567e+06
9.61957e+06
9.48427e+06
9.34994e+06
9.21655e+06
9.08408e+06
8.95253e+06
8.82191e+06
8.69224e+06
8.56351e+06
8.43574e+06
8.30892e+06
8.18306e+06
8.05816e+06
7.93423e+06
7.81126e+06
7.68925e+06
7.56822e+06
7.44816e+06
7.32907e+06
7.21096e+06
7.09385e+06
6.97773e+06
6.86262e+06
6.74854e+06
6.63551e+06
6.52358e+06
6.41277e+06
6.30315e+06
6.1948e+06
6.08781e+06
5.98232e+06
5.87849e+06
5.77652e+06
5.67667e+06
5.57925e+06
5.48458e+06
5.3928e+06
1.00143e+07
9.89175e+06
9.7556e+06
9.61955e+06
9.48429e+06
9.34998e+06
9.21659e+06
9.08412e+06
8.95257e+06
8.82194e+06
8.69226e+06
8.56352e+06
8.43575e+06
8.30892e+06
8.18306e+06
8.05817e+06
7.93423e+06
7.81126e+06
7.68926e+06
7.56823e+06
7.44817e+06
7.32908e+06
7.21098e+06
7.09387e+06
6.97776e+06
6.86266e+06
6.74859e+06
6.63559e+06
6.52367e+06
6.4129e+06
6.30332e+06
6.19502e+06
6.08811e+06
5.98271e+06
5.87899e+06
5.77715e+06
5.67745e+06
5.58018e+06
5.48566e+06
5.39404e+06
1.00141e+07
9.89162e+06
9.75553e+06
9.61951e+06
9.48427e+06
9.34998e+06
9.2166e+06
9.08413e+06
8.95258e+06
8.82195e+06
8.69227e+06
8.56353e+06
8.43575e+06
8.30893e+06
8.18307e+06
8.05817e+06
7.93423e+06
7.81126e+06
7.68926e+06
7.56823e+06
7.44817e+06
7.32909e+06
7.21099e+06
7.09388e+06
6.97777e+06
6.86268e+06
6.74862e+06
6.63562e+06
6.52372e+06
6.41296e+06
6.30341e+06
6.19514e+06
6.08826e+06
5.9829e+06
5.87924e+06
5.77747e+06
5.67784e+06
5.58065e+06
5.48621e+06
5.39467e+06
5.14273e+06
5.10431e+06
5.0737e+06
5.04851e+06
5.02634e+06
5.00577e+06
4.98629e+06
4.96761e+06
4.94956e+06
4.932e+06
4.91486e+06
4.89805e+06
4.88153e+06
4.86527e+06
4.84922e+06
4.83336e+06
4.81767e+06
4.80213e+06
4.78673e+06
4.77145e+06
4.75628e+06
4.74121e+06
4.72623e+06
4.71134e+06
4.69653e+06
4.68179e+06
4.66711e+06
4.6525e+06
4.63794e+06
4.62343e+06
4.60898e+06
4.59458e+06
4.58022e+06
4.5659e+06
4.55162e+06
4.53739e+06
4.52319e+06
4.50903e+06
4.4949e+06
4.4808e+06
4.46674e+06
4.45271e+06
4.4387e+06
4.42473e+06
4.41078e+06
4.39686e+06
4.38297e+06
4.36911e+06
4.35527e+06
4.34146e+06
4.32767e+06
4.31391e+06
4.30018e+06
4.28647e+06
4.27278e+06
4.25912e+06
4.24548e+06
4.23186e+06
4.21827e+06
4.2047e+06
4.19115e+06
4.17762e+06
4.16412e+06
4.15063e+06
4.13717e+06
4.12372e+06
4.1103e+06
4.0969e+06
4.08351e+06
4.07015e+06
4.05681e+06
4.04349e+06
4.03019e+06
4.01691e+06
4.00365e+06
3.99041e+06
3.9772e+06
3.964e+06
3.95083e+06
3.93768e+06
3.92455e+06
3.91145e+06
3.89837e+06
3.88532e+06
3.87229e+06
3.85928e+06
3.84631e+06
3.83335e+06
3.82042e+06
3.80752e+06
3.79464e+06
3.78179e+06
3.76897e+06
3.75617e+06
3.74339e+06
3.73064e+06
3.71792e+06
3.70521e+06
3.69254e+06
3.67989e+06
3.66726e+06
3.65465e+06
3.64207e+06
3.62951e+06
3.61698e+06
3.60446e+06
3.59197e+06
3.57951e+06
3.56706e+06
3.55464e+06
3.54224e+06
3.52987e+06
3.51751e+06
3.50518e+06
3.49286e+06
3.48057e+06
3.4683e+06
3.45605e+06
3.44381e+06
3.4316e+06
3.41941e+06
3.40724e+06
3.39508e+06
3.38295e+06
3.37083e+06
3.35874e+06
3.34666e+06
3.3346e+06
3.32256e+06
3.31055e+06
3.29855e+06
3.28657e+06
3.27462e+06
3.26268e+06
3.25077e+06
3.23889e+06
3.22702e+06
3.21518e+06
3.20337e+06
3.19157e+06
3.1798e+06
3.16806e+06
3.15634e+06
3.14464e+06
3.13297e+06
3.12133e+06
3.1097e+06
3.0981e+06
3.08652e+06
3.07497e+06
3.06344e+06
3.05193e+06
3.04045e+06
3.02898e+06
3.01754e+06
3.00613e+06
2.99473e+06
2.98336e+06
2.97201e+06
2.96068e+06
2.94937e+06
2.93808e+06
2.92682e+06
2.91558e+06
2.90436e+06
2.89316e+06
2.88198e+06
2.87083e+06
2.85969e+06
2.84858e+06
2.83749e+06
2.82642e+06
2.81537e+06
2.80435e+06
2.79335e+06
2.78236e+06
2.7714e+06
2.76046e+06
2.74955e+06
2.73865e+06
2.72778e+06
2.71693e+06
2.7061e+06
2.69529e+06
2.6845e+06
2.67374e+06
2.66299e+06
2.65227e+06
2.64157e+06
2.63089e+06
2.62024e+06
2.6096e+06
2.59899e+06
2.5884e+06
2.57783e+06
2.56728e+06
2.55675e+06
2.54624e+06
2.53576e+06
2.5253e+06
2.51486e+06
2.50444e+06
2.49404e+06
2.48367e+06
2.47331e+06
2.46298e+06
2.45267e+06
2.44238e+06
2.43211e+06
2.42187e+06
2.41164e+06
2.40144e+06
2.39126e+06
2.3811e+06
2.37096e+06
2.36085e+06
2.35075e+06
2.34068e+06
2.33063e+06
2.3206e+06
2.31059e+06
2.30061e+06
2.29064e+06
2.2807e+06
2.27078e+06
2.26088e+06
2.251e+06
2.24115e+06
2.23131e+06
2.2215e+06
2.21171e+06
2.20194e+06
2.19219e+06
2.18246e+06
2.17276e+06
2.16307e+06
2.15341e+06
2.14377e+06
2.13415e+06
2.12456e+06
2.11498e+06
2.10543e+06
2.0959e+06
2.08639e+06
2.0769e+06
2.06743e+06
2.05798e+06
2.04856e+06
2.03916e+06
2.02978e+06
2.02042e+06
2.01108e+06
2.00176e+06
1.99247e+06
1.9832e+06
1.97395e+06
1.96472e+06
1.95551e+06
1.94632e+06
1.93716e+06
1.92802e+06
1.91889e+06
1.90979e+06
1.90072e+06
1.89166e+06
1.88262e+06
1.87361e+06
1.86462e+06
1.85565e+06
1.8467e+06
1.83777e+06
1.82887e+06
1.81998e+06
1.81112e+06
1.80228e+06
1.79346e+06
1.78466e+06
1.77589e+06
1.76713e+06
1.7584e+06
1.74969e+06
1.741e+06
1.73233e+06
1.72368e+06
1.71506e+06
1.70646e+06
1.69787e+06
1.68931e+06
1.68077e+06
1.67226e+06
1.66376e+06
1.65529e+06
1.64683e+06
1.6384e+06
1.62999e+06
1.62161e+06
1.61324e+06
1.60489e+06
1.59657e+06
1.58827e+06
1.57999e+06
1.57173e+06
1.56349e+06
1.55527e+06
1.54708e+06
1.53891e+06
1.53076e+06
1.52262e+06
1.51452e+06
1.50643e+06
1.49836e+06
1.49032e+06
1.48229e+06
1.47429e+06
1.46631e+06
1.45835e+06
1.45041e+06
1.4425e+06
1.4346e+06
1.42673e+06
1.41887e+06
1.41104e+06
1.40323e+06
1.39544e+06
1.38767e+06
1.37993e+06
1.3722e+06
1.36449e+06
1.35681e+06
1.34915e+06
1.34151e+06
1.33388e+06
1.32628e+06
1.3187e+06
1.31115e+06
1.30361e+06
1.29609e+06
1.28859e+06
1.28112e+06
1.27366e+06
1.26623e+06
1.25881e+06
1.25142e+06
1.24404e+06
1.23669e+06
1.22935e+06
1.22204e+06
1.21474e+06
1.20747e+06
1.20021e+06
1.19297e+06
1.18576e+06
1.17856e+06
1.17138e+06
1.16421e+06
1.15707e+06
1.14994e+06
1.14284e+06
1.13575e+06
1.12867e+06
1.12162e+06
1.11458e+06
1.10755e+06
1.10054e+06
1.09355e+06
1.08657e+06
1.0796e+06
1.07265e+06
1.06571e+06
1.05878e+06
1.05186e+06
1.04495e+06
1.03805e+06
1.03116e+06
1.02427e+06
1.01739e+06
1.01051e+06
1.00363e+06
996747
989859
982968
976063
969147
962211
955252
948263
941237
934168
927039
919846
912562
905176
897653
889955
882029
873771
865078
855713
845105
832940
5.18031e+06
5.14436e+06
5.11273e+06
5.08435e+06
5.05891e+06
5.03548e+06
5.01353e+06
4.99273e+06
4.97282e+06
4.95363e+06
4.93502e+06
4.91691e+06
4.89921e+06
4.88187e+06
4.86483e+06
4.84806e+06
4.83153e+06
4.81522e+06
4.79909e+06
4.78313e+06
4.76733e+06
4.75167e+06
4.73614e+06
4.72073e+06
4.70542e+06
4.69022e+06
4.67511e+06
4.66008e+06
4.64513e+06
4.63026e+06
4.61546e+06
4.60073e+06
4.58605e+06
4.57144e+06
4.55688e+06
4.54238e+06
4.52793e+06
4.51353e+06
4.49918e+06
4.48487e+06
4.4706e+06
4.45637e+06
4.44219e+06
4.42804e+06
4.41393e+06
4.39985e+06
4.38581e+06
4.37181e+06
4.35783e+06
4.34389e+06
4.32999e+06
4.31611e+06
4.30226e+06
4.28845e+06
4.27466e+06
4.2609e+06
4.24717e+06
4.23347e+06
4.21979e+06
4.20614e+06
4.19252e+06
4.17892e+06
4.16534e+06
4.15179e+06
4.13827e+06
4.12477e+06
4.11129e+06
4.09784e+06
4.08441e+06
4.071e+06
4.05761e+06
4.04425e+06
4.03092e+06
4.0176e+06
4.00431e+06
3.99104e+06
3.9778e+06
3.96458e+06
3.95139e+06
3.93822e+06
3.92507e+06
3.91195e+06
3.89886e+06
3.88579e+06
3.87274e+06
3.85972e+06
3.84673e+06
3.83377e+06
3.82083e+06
3.80792e+06
3.79503e+06
3.78217e+06
3.76933e+06
3.75653e+06
3.74374e+06
3.73098e+06
3.71825e+06
3.70554e+06
3.69286e+06
3.6802e+06
3.66757e+06
3.65496e+06
3.64237e+06
3.62981e+06
3.61727e+06
3.60476e+06
3.59227e+06
3.5798e+06
3.56736e+06
3.55494e+06
3.54254e+06
3.53016e+06
3.5178e+06
3.50547e+06
3.49315e+06
3.48086e+06
3.46858e+06
3.45633e+06
3.44409e+06
3.43187e+06
3.41967e+06
3.40749e+06
3.39533e+06
3.38319e+06
3.37107e+06
3.35896e+06
3.34687e+06
3.3348e+06
3.32275e+06
3.31072e+06
3.29871e+06
3.28672e+06
3.27476e+06
3.26281e+06
3.25089e+06
3.23899e+06
3.22712e+06
3.21527e+06
3.20344e+06
3.19164e+06
3.17987e+06
3.16812e+06
3.15639e+06
3.14469e+06
3.13301e+06
3.12136e+06
3.10973e+06
3.09813e+06
3.08655e+06
3.07499e+06
3.06346e+06
3.05195e+06
3.04047e+06
3.029e+06
3.01756e+06
3.00614e+06
2.99475e+06
2.98337e+06
2.97202e+06
2.96069e+06
2.94938e+06
2.9381e+06
2.92683e+06
2.91559e+06
2.90437e+06
2.89317e+06
2.88199e+06
2.87083e+06
2.8597e+06
2.84859e+06
2.8375e+06
2.82643e+06
2.81538e+06
2.80436e+06
2.79335e+06
2.78237e+06
2.77141e+06
2.76047e+06
2.74955e+06
2.73866e+06
2.72778e+06
2.71693e+06
2.7061e+06
2.69529e+06
2.6845e+06
2.67374e+06
2.663e+06
2.65227e+06
2.64157e+06
2.6309e+06
2.62024e+06
2.6096e+06
2.59899e+06
2.5884e+06
2.57783e+06
2.56728e+06
2.55675e+06
2.54625e+06
2.53576e+06
2.5253e+06
2.51486e+06
2.50444e+06
2.49404e+06
2.48367e+06
2.47331e+06
2.46298e+06
2.45267e+06
2.44238e+06
2.43211e+06
2.42187e+06
2.41164e+06
2.40144e+06
2.39126e+06
2.3811e+06
2.37096e+06
2.36085e+06
2.35075e+06
2.34068e+06
2.33063e+06
2.3206e+06
2.31059e+06
2.30061e+06
2.29064e+06
2.2807e+06
2.27078e+06
2.26088e+06
2.251e+06
2.24114e+06
2.23131e+06
2.22149e+06
2.2117e+06
2.20193e+06
2.19218e+06
2.18246e+06
2.17275e+06
2.16307e+06
2.15341e+06
2.14376e+06
2.13415e+06
2.12455e+06
2.11497e+06
2.10542e+06
2.09589e+06
2.08638e+06
2.07689e+06
2.06742e+06
2.05797e+06
2.04855e+06
2.03914e+06
2.02976e+06
2.0204e+06
2.01106e+06
2.00175e+06
1.99245e+06
1.98318e+06
1.97393e+06
1.9647e+06
1.95549e+06
1.9463e+06
1.93714e+06
1.92799e+06
1.91887e+06
1.90977e+06
1.90069e+06
1.89163e+06
1.88259e+06
1.87358e+06
1.86459e+06
1.85561e+06
1.84666e+06
1.83774e+06
1.82883e+06
1.81994e+06
1.81108e+06
1.80224e+06
1.79341e+06
1.78461e+06
1.77584e+06
1.76708e+06
1.75834e+06
1.74963e+06
1.74094e+06
1.73227e+06
1.72362e+06
1.71499e+06
1.70638e+06
1.6978e+06
1.68923e+06
1.68069e+06
1.67217e+06
1.66367e+06
1.65519e+06
1.64673e+06
1.6383e+06
1.62988e+06
1.62149e+06
1.61312e+06
1.60477e+06
1.59644e+06
1.58813e+06
1.57984e+06
1.57158e+06
1.56333e+06
1.55511e+06
1.54691e+06
1.53873e+06
1.53057e+06
1.52243e+06
1.51431e+06
1.50621e+06
1.49814e+06
1.49008e+06
1.48205e+06
1.47404e+06
1.46604e+06
1.45807e+06
1.45012e+06
1.44219e+06
1.43428e+06
1.42639e+06
1.41852e+06
1.41068e+06
1.40285e+06
1.39504e+06
1.38726e+06
1.37949e+06
1.37174e+06
1.36402e+06
1.35631e+06
1.34863e+06
1.34096e+06
1.33331e+06
1.32569e+06
1.31808e+06
1.31049e+06
1.30293e+06
1.29538e+06
1.28785e+06
1.28034e+06
1.27285e+06
1.26538e+06
1.25792e+06
1.25049e+06
1.24307e+06
1.23567e+06
1.22829e+06
1.22093e+06
1.21358e+06
1.20625e+06
1.19894e+06
1.19165e+06
1.18437e+06
1.17711e+06
1.16986e+06
1.16263e+06
1.15542e+06
1.14822e+06
1.14103e+06
1.13386e+06
1.1267e+06
1.11955e+06
1.11242e+06
1.10529e+06
1.09818e+06
1.09108e+06
1.08398e+06
1.0769e+06
1.06982e+06
1.06275e+06
1.05568e+06
1.04862e+06
1.04156e+06
1.0345e+06
1.02743e+06
1.02037e+06
1.0133e+06
1.00622e+06
999129
992024
984904
977759
970592
963388
956152
948863
941527
934120
926638
919064
911375
903555
895558
887368
878908
870126
860928
851165
840658
829161
816048
5.20591e+06
5.17255e+06
5.14166e+06
5.1129e+06
5.0863e+06
5.06143e+06
5.03797e+06
5.01568e+06
4.99437e+06
4.97387e+06
4.95405e+06
4.93482e+06
4.91608e+06
4.89778e+06
4.87985e+06
4.86225e+06
4.84495e+06
4.82791e+06
4.8111e+06
4.79451e+06
4.77811e+06
4.76189e+06
4.74583e+06
4.72991e+06
4.71413e+06
4.69848e+06
4.68295e+06
4.66752e+06
4.6522e+06
4.63697e+06
4.62183e+06
4.60678e+06
4.5918e+06
4.5769e+06
4.56208e+06
4.54732e+06
4.53262e+06
4.51798e+06
4.50341e+06
4.48889e+06
4.47442e+06
4.46e+06
4.44563e+06
4.43131e+06
4.41703e+06
4.4028e+06
4.38861e+06
4.37447e+06
4.36036e+06
4.34629e+06
4.33226e+06
4.31827e+06
4.30431e+06
4.29039e+06
4.2765e+06
4.26265e+06
4.24882e+06
4.23503e+06
4.22127e+06
4.20755e+06
4.19385e+06
4.18018e+06
4.16654e+06
4.15292e+06
4.13934e+06
4.12578e+06
4.11225e+06
4.09875e+06
4.08527e+06
4.07182e+06
4.05839e+06
4.045e+06
4.03162e+06
4.01828e+06
4.00496e+06
3.99166e+06
3.97839e+06
3.96515e+06
3.95194e+06
3.93875e+06
3.92558e+06
3.91245e+06
3.89934e+06
3.88625e+06
3.8732e+06
3.86017e+06
3.84716e+06
3.83419e+06
3.82124e+06
3.80832e+06
3.79542e+06
3.78255e+06
3.76971e+06
3.75689e+06
3.7441e+06
3.73134e+06
3.7186e+06
3.70589e+06
3.6932e+06
3.68054e+06
3.6679e+06
3.65529e+06
3.6427e+06
3.63014e+06
3.6176e+06
3.60509e+06
3.5926e+06
3.58013e+06
3.56768e+06
3.55526e+06
3.54286e+06
3.53048e+06
3.51813e+06
3.50579e+06
3.49347e+06
3.48118e+06
3.4689e+06
3.45664e+06
3.4444e+06
3.43218e+06
3.41997e+06
3.40778e+06
3.39561e+06
3.38346e+06
3.37133e+06
3.35921e+06
3.34711e+06
3.33503e+06
3.32296e+06
3.31092e+06
3.2989e+06
3.28689e+06
3.27491e+06
3.26296e+06
3.25102e+06
3.23911e+06
3.22722e+06
3.21536e+06
3.20353e+06
3.19172e+06
3.17993e+06
3.16818e+06
3.15644e+06
3.14474e+06
3.13306e+06
3.1214e+06
3.10977e+06
3.09816e+06
3.08658e+06
3.07502e+06
3.06349e+06
3.05198e+06
3.04049e+06
3.02902e+06
3.01758e+06
3.00616e+06
2.99476e+06
2.98339e+06
2.97204e+06
2.9607e+06
2.9494e+06
2.93811e+06
2.92684e+06
2.9156e+06
2.90438e+06
2.89318e+06
2.882e+06
2.87084e+06
2.85971e+06
2.8486e+06
2.83751e+06
2.82644e+06
2.81539e+06
2.80436e+06
2.79336e+06
2.78238e+06
2.77141e+06
2.76047e+06
2.74956e+06
2.73866e+06
2.72779e+06
2.71694e+06
2.7061e+06
2.6953e+06
2.68451e+06
2.67374e+06
2.663e+06
2.65228e+06
2.64158e+06
2.6309e+06
2.62024e+06
2.60961e+06
2.59899e+06
2.5884e+06
2.57783e+06
2.56728e+06
2.55675e+06
2.54625e+06
2.53576e+06
2.5253e+06
2.51486e+06
2.50444e+06
2.49404e+06
2.48367e+06
2.47331e+06
2.46298e+06
2.45267e+06
2.44238e+06
2.43211e+06
2.42187e+06
2.41164e+06
2.40144e+06
2.39126e+06
2.3811e+06
2.37096e+06
2.36085e+06
2.35075e+06
2.34068e+06
2.33063e+06
2.3206e+06
2.31059e+06
2.3006e+06
2.29064e+06
2.28069e+06
2.27077e+06
2.26087e+06
2.25099e+06
2.24114e+06
2.2313e+06
2.22149e+06
2.2117e+06
2.20193e+06
2.19218e+06
2.18245e+06
2.17274e+06
2.16306e+06
2.1534e+06
2.14376e+06
2.13414e+06
2.12454e+06
2.11496e+06
2.10541e+06
2.09588e+06
2.08636e+06
2.07687e+06
2.06741e+06
2.05796e+06
2.04853e+06
2.03913e+06
2.02975e+06
2.02039e+06
2.01105e+06
2.00173e+06
1.99244e+06
1.98316e+06
1.97391e+06
1.96468e+06
1.95547e+06
1.94628e+06
1.93711e+06
1.92797e+06
1.91884e+06
1.90974e+06
1.90066e+06
1.8916e+06
1.88256e+06
1.87355e+06
1.86455e+06
1.85558e+06
1.84663e+06
1.8377e+06
1.82879e+06
1.8199e+06
1.81104e+06
1.80219e+06
1.79337e+06
1.78457e+06
1.77579e+06
1.76703e+06
1.75829e+06
1.74957e+06
1.74088e+06
1.7322e+06
1.72355e+06
1.71492e+06
1.70631e+06
1.69772e+06
1.68915e+06
1.68061e+06
1.67208e+06
1.66358e+06
1.6551e+06
1.64663e+06
1.63819e+06
1.62977e+06
1.62138e+06
1.613e+06
1.60464e+06
1.59631e+06
1.58799e+06
1.5797e+06
1.57143e+06
1.56318e+06
1.55495e+06
1.54674e+06
1.53855e+06
1.53038e+06
1.52223e+06
1.51411e+06
1.506e+06
1.49792e+06
1.48985e+06
1.48181e+06
1.47378e+06
1.46578e+06
1.45779e+06
1.44983e+06
1.44189e+06
1.43396e+06
1.42606e+06
1.41818e+06
1.41031e+06
1.40247e+06
1.39465e+06
1.38684e+06
1.37906e+06
1.37129e+06
1.36354e+06
1.35582e+06
1.34811e+06
1.34042e+06
1.33275e+06
1.3251e+06
1.31746e+06
1.30985e+06
1.30225e+06
1.29467e+06
1.28711e+06
1.27957e+06
1.27204e+06
1.26454e+06
1.25704e+06
1.24957e+06
1.24211e+06
1.23467e+06
1.22724e+06
1.21983e+06
1.21244e+06
1.20506e+06
1.19769e+06
1.19034e+06
1.18301e+06
1.17568e+06
1.16837e+06
1.16108e+06
1.15379e+06
1.14651e+06
1.13925e+06
1.132e+06
1.12475e+06
1.11752e+06
1.11029e+06
1.10307e+06
1.09586e+06
1.08865e+06
1.08145e+06
1.07424e+06
1.06705e+06
1.05985e+06
1.05265e+06
1.04544e+06
1.03823e+06
1.03102e+06
1.0238e+06
1.01656e+06
1.00931e+06
1.00204e+06
994754
987439
980098
972720
965303
957840
950321
942743
935084
927350
919503
911552
903451
895191
886735
878040
869084
859756
850059
839826
828956
817410
804939
5.22556e+06
5.19416e+06
5.16437e+06
5.136e+06
5.10917e+06
5.08369e+06
5.05942e+06
5.03621e+06
5.01393e+06
4.99246e+06
4.9717e+06
4.95155e+06
4.93194e+06
4.91281e+06
4.8941e+06
4.87576e+06
4.85776e+06
4.84007e+06
4.82264e+06
4.80546e+06
4.7885e+06
4.77176e+06
4.75519e+06
4.73881e+06
4.72258e+06
4.70651e+06
4.69057e+06
4.67476e+06
4.65908e+06
4.6435e+06
4.62804e+06
4.61268e+06
4.59741e+06
4.58223e+06
4.56714e+06
4.55212e+06
4.53719e+06
4.52232e+06
4.50753e+06
4.4928e+06
4.47814e+06
4.46353e+06
4.44899e+06
4.4345e+06
4.42006e+06
4.40567e+06
4.39134e+06
4.37705e+06
4.36281e+06
4.34862e+06
4.33447e+06
4.32036e+06
4.3063e+06
4.29227e+06
4.27828e+06
4.26433e+06
4.25042e+06
4.23655e+06
4.22271e+06
4.2089e+06
4.19513e+06
4.1814e+06
4.16769e+06
4.15402e+06
4.14038e+06
4.12677e+06
4.11319e+06
4.09964e+06
4.08612e+06
4.07262e+06
4.05916e+06
4.04573e+06
4.03233e+06
4.01895e+06
4.0056e+06
3.99228e+06
3.97899e+06
3.96573e+06
3.95249e+06
3.93928e+06
3.9261e+06
3.91295e+06
3.89982e+06
3.88673e+06
3.87366e+06
3.86062e+06
3.8476e+06
3.83461e+06
3.82166e+06
3.80872e+06
3.79582e+06
3.78294e+06
3.77009e+06
3.75727e+06
3.74447e+06
3.7317e+06
3.71896e+06
3.70624e+06
3.69355e+06
3.68089e+06
3.66825e+06
3.65564e+06
3.64305e+06
3.63049e+06
3.61795e+06
3.60544e+06
3.59295e+06
3.58048e+06
3.56803e+06
3.55561e+06
3.54321e+06
3.53083e+06
3.51847e+06
3.50613e+06
3.49382e+06
3.48152e+06
3.46924e+06
3.45698e+06
3.44473e+06
3.4325e+06
3.42029e+06
3.4081e+06
3.39592e+06
3.38376e+06
3.37161e+06
3.35948e+06
3.34737e+06
3.33527e+06
3.3232e+06
3.31114e+06
3.2991e+06
3.28708e+06
3.27508e+06
3.26311e+06
3.25116e+06
3.23924e+06
3.22734e+06
3.21547e+06
3.20362e+06
3.1918e+06
3.18001e+06
3.16824e+06
3.1565e+06
3.14479e+06
3.1331e+06
3.12144e+06
3.1098e+06
3.09819e+06
3.08661e+06
3.07505e+06
3.06351e+06
3.052e+06
3.04051e+06
3.02904e+06
3.0176e+06
3.00618e+06
2.99478e+06
2.9834e+06
2.97205e+06
2.96072e+06
2.94941e+06
2.93812e+06
2.92685e+06
2.91561e+06
2.90439e+06
2.89319e+06
2.88201e+06
2.87085e+06
2.85972e+06
2.8486e+06
2.83751e+06
2.82644e+06
2.81539e+06
2.80437e+06
2.79336e+06
2.78238e+06
2.77142e+06
2.76048e+06
2.74956e+06
2.73867e+06
2.72779e+06
2.71694e+06
2.70611e+06
2.6953e+06
2.68451e+06
2.67375e+06
2.663e+06
2.65228e+06
2.64158e+06
2.6309e+06
2.62024e+06
2.60961e+06
2.59899e+06
2.5884e+06
2.57783e+06
2.56728e+06
2.55675e+06
2.54625e+06
2.53576e+06
2.5253e+06
2.51486e+06
2.50444e+06
2.49404e+06
2.48367e+06
2.47331e+06
2.46298e+06
2.45267e+06
2.44238e+06
2.43211e+06
2.42187e+06
2.41164e+06
2.40144e+06
2.39126e+06
2.3811e+06
2.37096e+06
2.36084e+06
2.35075e+06
2.34068e+06
2.33062e+06
2.32059e+06
2.31059e+06
2.3006e+06
2.29063e+06
2.28069e+06
2.27077e+06
2.26087e+06
2.25099e+06
2.24113e+06
2.2313e+06
2.22148e+06
2.21169e+06
2.20192e+06
2.19217e+06
2.18244e+06
2.17274e+06
2.16305e+06
2.15339e+06
2.14375e+06
2.13413e+06
2.12453e+06
2.11495e+06
2.1054e+06
2.09587e+06
2.08635e+06
2.07686e+06
2.06739e+06
2.05795e+06
2.04852e+06
2.03912e+06
2.02973e+06
2.02037e+06
2.01103e+06
2.00172e+06
1.99242e+06
1.98314e+06
1.97389e+06
1.96466e+06
1.95545e+06
1.94626e+06
1.93709e+06
1.92794e+06
1.91882e+06
1.90972e+06
1.90063e+06
1.89157e+06
1.88254e+06
1.87352e+06
1.86452e+06
1.85555e+06
1.84659e+06
1.83766e+06
1.82875e+06
1.81986e+06
1.81099e+06
1.80215e+06
1.79332e+06
1.78452e+06
1.77574e+06
1.76697e+06
1.75823e+06
1.74951e+06
1.74082e+06
1.73214e+06
1.72349e+06
1.71485e+06
1.70624e+06
1.69765e+06
1.68908e+06
1.68053e+06
1.672e+06
1.66349e+06
1.655e+06
1.64654e+06
1.63809e+06
1.62967e+06
1.62126e+06
1.61288e+06
1.60452e+06
1.59618e+06
1.58786e+06
1.57956e+06
1.57128e+06
1.56303e+06
1.55479e+06
1.54657e+06
1.53837e+06
1.5302e+06
1.52204e+06
1.51391e+06
1.50579e+06
1.4977e+06
1.48962e+06
1.48157e+06
1.47353e+06
1.46552e+06
1.45752e+06
1.44954e+06
1.44159e+06
1.43365e+06
1.42573e+06
1.41784e+06
1.40996e+06
1.4021e+06
1.39426e+06
1.38643e+06
1.37863e+06
1.37085e+06
1.36308e+06
1.35533e+06
1.3476e+06
1.33989e+06
1.33219e+06
1.32452e+06
1.31686e+06
1.30922e+06
1.30159e+06
1.29398e+06
1.28639e+06
1.27881e+06
1.27125e+06
1.26371e+06
1.25618e+06
1.24867e+06
1.24117e+06
1.23368e+06
1.22621e+06
1.21876e+06
1.21131e+06
1.20388e+06
1.19647e+06
1.18906e+06
1.18167e+06
1.17428e+06
1.16691e+06
1.15955e+06
1.15219e+06
1.14484e+06
1.13751e+06
1.13018e+06
1.12285e+06
1.11553e+06
1.10822e+06
1.1009e+06
1.09359e+06
1.08628e+06
1.07897e+06
1.07166e+06
1.06434e+06
1.05702e+06
1.04969e+06
1.04235e+06
1.03501e+06
1.02765e+06
1.02027e+06
1.01287e+06
1.00545e+06
998011
990534
983031
975479
967894
960246
952552
944782
936942
929013
920986
912847
904570
896161
887549
878773
869729
860452
850839
840879
830511
819646
808358
796578
5.24248e+06
5.21239e+06
5.18326e+06
5.15521e+06
5.1284e+06
5.10272e+06
5.07806e+06
5.05433e+06
5.03143e+06
5.00929e+06
4.98782e+06
4.96696e+06
4.94665e+06
4.92683e+06
4.90745e+06
4.88848e+06
4.86987e+06
4.85159e+06
4.83361e+06
4.8159e+06
4.79844e+06
4.78121e+06
4.76418e+06
4.74736e+06
4.73071e+06
4.71424e+06
4.69792e+06
4.68175e+06
4.66572e+06
4.64982e+06
4.63405e+06
4.61839e+06
4.60284e+06
4.58739e+06
4.57204e+06
4.55679e+06
4.54162e+06
4.52654e+06
4.51153e+06
4.4966e+06
4.48175e+06
4.46696e+06
4.45224e+06
4.43759e+06
4.423e+06
4.40846e+06
4.39399e+06
4.37957e+06
4.3652e+06
4.35088e+06
4.33662e+06
4.3224e+06
4.30823e+06
4.2941e+06
4.28002e+06
4.26598e+06
4.25199e+06
4.23803e+06
4.22411e+06
4.21024e+06
4.1964e+06
4.1826e+06
4.16883e+06
4.1551e+06
4.14141e+06
4.12774e+06
4.11412e+06
4.10052e+06
4.08696e+06
4.07343e+06
4.05993e+06
4.04647e+06
4.03303e+06
4.01962e+06
4.00625e+06
3.9929e+06
3.97959e+06
3.9663e+06
3.95305e+06
3.93982e+06
3.92662e+06
3.91345e+06
3.90031e+06
3.8872e+06
3.87412e+06
3.86107e+06
3.84804e+06
3.83504e+06
3.82208e+06
3.80914e+06