/*--------------------------------*- C++ -*----------------------------------*\
| =========                 |                                                 |
| \\      /  F ield         | OpenFOAM: The Open Source CFD Toolbox           |
|  \\    /   O peration     | Version:  2.4.0                                 |
|   \\  /    A nd           | Web:      www.OpenFOAM.org                      |
|    \\/     M anipulation  |                                                 |
\*---------------------------------------------------------------------------*/
FoamFile
{
    version     2.0;
    format      ascii;
    class       surfaceScalarField;
    location    "0.167966";
    object      phi;
}
// * * * * * * * * * * * * * * * * * * * * * * * * * * * * * * * * * * * * * //

dimensions      [0 3 -1 0 0 0 0];

internalField   nonuniform List<scalar> 
34880
(
1.21383e-05
3.61696e-07
1.17094e-05
4.28919e-07
1.1322e-05
3.87419e-07
1.0967e-05
3.54926e-07
1.06482e-05
3.18827e-07
1.03728e-05
2.75429e-07
1.01401e-05
2.32639e-07
9.9458e-06
1.94346e-07
9.78418e-06
1.61616e-07
9.64973e-06
1.34451e-07
9.53722e-06
1.1251e-07
9.44202e-06
9.52048e-08
9.36018e-06
8.18395e-08
9.28848e-06
7.16978e-08
9.22436e-06
6.41224e-08
9.16573e-06
5.86281e-08
9.11078e-06
5.49522e-08
9.05536e-06
5.54143e-08
8.9959e-06
5.94619e-08
2.15859e-07
8.78004e-06
1.26412e-05
2.20537e-07
1.27047e-05
3.65386e-07
1.27223e-05
3.69832e-07
1.26942e-05
3.82991e-07
1.26301e-05
3.82936e-07
1.25382e-05
3.67308e-07
1.24265e-05
3.44366e-07
1.23018e-05
3.19046e-07
1.21699e-05
2.93553e-07
1.20353e-05
2.69017e-07
1.19017e-05
2.46137e-07
1.17717e-05
2.25221e-07
1.16472e-05
2.06336e-07
1.15294e-05
1.89436e-07
1.14191e-05
1.74399e-07
1.13163e-05
1.61443e-07
1.12215e-05
1.49811e-07
1.11305e-05
1.46407e-07
1.1055e-05
1.34969e-07
2.57195e-07
1.10136e-05
1.25407e-05
1.79859e-07
1.25884e-05
3.17651e-07
1.26281e-05
3.3017e-07
1.2661e-05
3.50079e-07
1.26834e-05
3.60566e-07
1.26942e-05
3.56445e-07
1.2694e-05
3.44559e-07
1.26833e-05
3.29772e-07
1.26627e-05
3.14106e-07
1.26332e-05
2.98542e-07
1.25956e-05
2.83728e-07
1.25509e-05
2.69967e-07
1.24999e-05
2.57299e-07
1.24437e-05
2.45648e-07
1.23832e-05
2.34862e-07
1.23195e-05
2.25228e-07
1.22532e-05
2.1604e-07
1.2185e-05
2.14652e-07
1.2112e-05
2.07953e-07
3.00526e-07
1.20687e-05
1.25233e-05
1.56534e-07
1.25543e-05
2.86634e-07
1.25822e-05
3.02311e-07
1.26114e-05
3.20908e-07
1.26384e-05
3.33523e-07
1.2662e-05
3.32843e-07
1.26818e-05
3.24728e-07
1.26976e-05
3.14009e-07
1.27092e-05
3.02523e-07
1.27166e-05
2.91092e-07
1.27201e-05
2.80306e-07
1.27196e-05
2.70465e-07
1.27152e-05
2.61623e-07
1.27072e-05
2.53726e-07
1.26954e-05
2.46641e-07
1.26799e-05
2.40698e-07
1.26606e-05
2.35334e-07
1.26378e-05
2.37449e-07
1.26085e-05
2.37293e-07
3.11369e-07
1.25976e-05
1.25187e-05
1.3788e-07
1.25435e-05
2.6178e-07
1.25662e-05
2.79614e-07
1.25911e-05
2.96032e-07
1.26159e-05
3.08682e-07
1.26396e-05
3.09151e-07
1.26618e-05
3.0259e-07
1.2682e-05
2.93758e-07
1.27002e-05
2.84322e-07
1.27163e-05
2.74968e-07
1.27304e-05
2.6623e-07
1.27425e-05
2.58391e-07
1.27526e-05
2.51503e-07
1.27608e-05
2.45529e-07
1.27671e-05
2.40362e-07
1.27714e-05
2.36379e-07
1.27736e-05
2.33146e-07
1.2774e-05
2.37069e-07
1.27708e-05
2.40424e-07
3.00012e-07
1.27822e-05
1.25161e-05
1.21734e-07
1.25385e-05
2.39402e-07
1.25592e-05
2.58946e-07
1.25817e-05
2.73564e-07
1.26046e-05
2.85696e-07
1.26272e-05
2.86582e-07
1.2649e-05
2.80796e-07
1.26698e-05
2.73018e-07
1.26893e-05
2.6478e-07
1.27076e-05
2.56662e-07
1.27247e-05
2.4915e-07
1.27406e-05
2.42511e-07
1.27553e-05
2.36789e-07
1.27688e-05
2.31955e-07
1.27813e-05
2.27918e-07
1.27926e-05
2.25088e-07
1.28026e-05
2.23117e-07
1.28118e-05
2.27904e-07
1.28192e-05
2.32957e-07
2.80929e-07
1.28383e-05
1.25142e-05
1.07498e-07
1.25354e-05
2.18282e-07
1.25552e-05
2.39119e-07
1.25764e-05
2.52346e-07
1.25983e-05
2.63837e-07
1.26199e-05
2.64934e-07
1.2641e-05
2.59657e-07
1.26615e-05
2.52593e-07
1.26811e-05
2.45174e-07
1.26998e-05
2.37898e-07
1.27178e-05
2.31218e-07
1.27349e-05
2.25386e-07
1.27512e-05
2.2044e-07
1.27668e-05
2.16362e-07
1.27817e-05
2.13072e-07
1.27958e-05
2.11003e-07
1.2809e-05
2.09867e-07
1.28219e-05
2.15049e-07
1.2834e-05
2.2087e-07
2.59525e-07
1.28554e-05
1.25127e-05
9.48081e-08
1.25329e-05
1.98081e-07
1.25523e-05
2.19715e-07
1.25729e-05
2.31786e-07
1.25941e-05
2.42597e-07
1.26152e-05
2.43863e-07
1.26358e-05
2.39033e-07
1.26558e-05
2.32561e-07
1.26752e-05
2.25799e-07
1.26939e-05
2.19183e-07
1.2712e-05
2.13138e-07
1.27295e-05
2.07908e-07
1.27464e-05
2.03529e-07
1.27628e-05
1.99992e-07
1.27786e-05
1.97235e-07
1.27939e-05
1.957e-07
1.28086e-05
1.95149e-07
1.28232e-05
2.00449e-07
1.28376e-05
2.06519e-07
2.37624e-07
1.28595e-05
1.25114e-05
8.33958e-08
1.25308e-05
1.78694e-07
1.25499e-05
2.00583e-07
1.25701e-05
2.11614e-07
1.2591e-05
2.21701e-07
1.26117e-05
2.23114e-07
1.2632e-05
2.18733e-07
1.26518e-05
2.12822e-07
1.26709e-05
2.06662e-07
1.26895e-05
2.0063e-07
1.27075e-05
1.9513e-07
1.2725e-05
1.90398e-07
1.2742e-05
1.86474e-07
1.27587e-05
1.83361e-07
1.27749e-05
1.81009e-07
1.27907e-05
1.7987e-07
1.28061e-05
1.79742e-07
1.28216e-05
1.84985e-07
1.28371e-05
1.90993e-07
2.15922e-07
1.28588e-05
1.25103e-05
7.30522e-08
1.2529e-05
1.60054e-07
1.25479e-05
1.81665e-07
1.25678e-05
1.9171e-07
1.25885e-05
2.01021e-07
1.26091e-05
2.02543e-07
1.26292e-05
1.98618e-07
1.26487e-05
1.93267e-07
1.26677e-05
1.87694e-07
1.26861e-05
1.82223e-07
1.2704e-05
1.77233e-07
1.27214e-05
1.72955e-07
1.27385e-05
1.69432e-07
1.27552e-05
1.66677e-07
1.27715e-05
1.6466e-07
1.27876e-05
1.63829e-07
1.28033e-05
1.64018e-07
1.28192e-05
1.69092e-07
1.28353e-05
1.74853e-07
1.94697e-07
1.28565e-05
1.25094e-05
6.36053e-08
1.25274e-05
1.42099e-07
1.25461e-05
1.62935e-07
1.25658e-05
1.72017e-07
1.25863e-05
1.80501e-07
1.26068e-05
1.82079e-07
1.26268e-05
1.78607e-07
1.26463e-05
1.73817e-07
1.26651e-05
1.68828e-07
1.26834e-05
1.63914e-07
1.27013e-05
1.59427e-07
1.27186e-05
1.55588e-07
1.27356e-05
1.52442e-07
1.27523e-05
1.50016e-07
1.27686e-05
1.48295e-07
1.27847e-05
1.4772e-07
1.28006e-05
1.48155e-07
1.28167e-05
1.52995e-07
1.28332e-05
1.58401e-07
1.74044e-07
1.28538e-05
1.25087e-05
5.49088e-08
1.2526e-05
1.24761e-07
1.25446e-05
1.44375e-07
1.25641e-05
1.52499e-07
1.25845e-05
1.60114e-07
1.26049e-05
1.61689e-07
1.26248e-05
1.5866e-07
1.26442e-05
1.54427e-07
1.2663e-05
1.50019e-07
1.26813e-05
1.45663e-07
1.2699e-05
1.4168e-07
1.27163e-05
1.38277e-07
1.27333e-05
1.35502e-07
1.27499e-05
1.33392e-07
1.27663e-05
1.31948e-07
1.27824e-05
1.31599e-07
1.27983e-05
1.32233e-07
1.28145e-05
1.36805e-07
1.28311e-05
1.41801e-07
1.53968e-07
1.28512e-05
1.25081e-05
4.68363e-08
1.25249e-05
1.07973e-07
1.25433e-05
1.2597e-07
1.25626e-05
1.33131e-07
1.25829e-05
1.39843e-07
1.26032e-05
1.41357e-07
1.26231e-05
1.38755e-07
1.26425e-05
1.35073e-07
1.26613e-05
1.3124e-07
1.26795e-05
1.27442e-07
1.26972e-05
1.23965e-07
1.27145e-05
1.21e-07
1.27314e-05
1.18597e-07
1.2748e-05
1.168e-07
1.27643e-05
1.15624e-07
1.27804e-05
1.15483e-07
1.27964e-05
1.16285e-07
1.28126e-05
1.20578e-07
1.28293e-05
1.25142e-07
1.34435e-07
1.28488e-05
1.25076e-05
3.92781e-08
1.25239e-05
9.16636e-08
1.25421e-05
1.07705e-07
1.25614e-05
1.1389e-07
1.25815e-05
1.19674e-07
1.26018e-05
1.21074e-07
1.26217e-05
1.18882e-07
1.2641e-05
1.15744e-07
1.26598e-05
1.12478e-07
1.2678e-05
1.09237e-07
1.26957e-05
1.06267e-07
1.2713e-05
1.03743e-07
1.27298e-05
1.01712e-07
1.27464e-05
1.00227e-07
1.27627e-05
9.93147e-08
1.27788e-05
9.93706e-08
1.27948e-05
1.0032e-07
1.2811e-05
1.04336e-07
1.28277e-05
1.08469e-07
1.15391e-07
1.28468e-05
1.25071e-05
3.21382e-08
1.2523e-05
7.57645e-08
1.25412e-05
8.95611e-08
1.25603e-05
9.47536e-08
1.25804e-05
9.95927e-08
1.26006e-05
1.00833e-07
1.26205e-05
9.90339e-08
1.26398e-05
9.64323e-08
1.26586e-05
9.37275e-08
1.26767e-05
9.10396e-08
1.26944e-05
8.85778e-08
1.27117e-05
8.64946e-08
1.27286e-05
8.4837e-08
1.27451e-05
8.3664e-08
1.27614e-05
8.3013e-08
1.27775e-05
8.32585e-08
1.27935e-05
8.43391e-08
1.28098e-05
8.80917e-08
1.28264e-05
9.18089e-08
9.678e-08
1.2845e-05
1.25068e-05
2.53316e-08
1.25224e-05
6.02058e-08
1.25404e-05
7.15213e-08
1.25595e-05
7.57031e-08
1.25795e-05
7.95856e-08
1.25997e-05
8.06256e-08
1.26195e-05
7.92065e-08
1.26388e-05
7.7135e-08
1.26575e-05
7.49841e-08
1.26757e-05
7.28462e-08
1.26934e-05
7.08916e-08
1.27107e-05
6.92498e-08
1.27275e-05
6.79662e-08
1.27441e-05
6.71046e-08
1.27604e-05
6.67123e-08
1.27765e-05
6.71417e-08
1.27925e-05
6.8342e-08
1.28088e-05
7.18482e-08
1.28254e-05
7.51746e-08
7.85486e-08
1.28436e-05
1.25065e-05
1.8782e-08
1.25218e-05
4.49184e-08
1.25398e-05
5.3566e-08
1.25588e-05
5.67199e-08
1.25787e-05
5.9638e-08
1.25989e-05
6.04467e-08
1.26187e-05
5.9395e-08
1.2638e-05
5.78487e-08
1.26567e-05
5.6246e-08
1.26749e-05
5.46549e-08
1.26926e-05
5.32068e-08
1.27099e-05
5.20061e-08
1.27267e-05
5.1096e-08
1.27433e-05
5.05449e-08
1.27596e-05
5.04087e-08
1.27757e-05
5.10173e-08
1.27917e-05
5.23282e-08
1.2808e-05
5.56087e-08
1.28246e-05
5.85745e-08
6.06489e-08
1.28425e-05
1.25064e-05
1.24197e-08
1.25214e-05
2.98338e-08
1.25393e-05
3.56749e-08
1.25583e-05
3.77866e-08
1.25782e-05
3.97353e-08
1.25983e-05
4.02889e-08
1.26181e-05
3.95952e-08
1.26374e-05
3.85704e-08
1.26561e-05
3.75115e-08
1.26743e-05
3.64649e-08
1.2692e-05
3.55223e-08
1.27093e-05
3.47621e-08
1.27261e-05
3.42248e-08
1.27427e-05
3.39828e-08
1.2759e-05
3.40998e-08
1.27751e-05
3.48837e-08
1.27912e-05
3.6298e-08
1.28074e-05
3.93751e-08
1.2824e-05
4.2014e-08
4.30399e-08
1.28416e-05
1.25062e-05
6.17972e-09
1.25212e-05
1.48838e-08
1.2539e-05
1.78272e-08
1.25579e-05
1.88863e-08
1.25778e-05
1.98625e-08
1.2598e-05
2.01451e-08
1.26177e-05
1.98032e-08
1.2637e-05
1.92974e-08
1.26558e-05
1.87793e-08
1.26739e-05
1.82753e-08
1.26916e-05
1.78375e-08
1.27089e-05
1.75171e-08
1.27257e-05
1.73518e-08
1.27423e-05
1.74173e-08
1.27586e-05
1.77844e-08
1.27748e-05
1.87401e-08
1.27908e-05
2.02525e-08
1.2807e-05
2.31496e-08
1.28236e-05
2.54968e-08
2.56866e-08
1.28409e-05
1.25062e-05
2.65836e-13
1.25211e-05
6.62053e-13
1.25389e-05
1.36742e-12
1.25578e-05
2.56061e-12
1.25776e-05
4.66832e-12
1.25978e-05
8.40863e-12
1.26176e-05
1.50833e-11
1.26368e-05
2.69802e-11
1.26556e-05
4.81197e-11
1.26737e-05
8.57852e-11
1.26914e-05
1.52169e-10
1.27087e-05
2.70814e-10
1.27256e-05
4.76383e-10
1.27421e-05
8.47801e-10
1.27584e-05
1.46212e-09
1.27746e-05
2.58662e-09
1.27907e-05
4.19332e-09
1.28069e-05
6.93366e-09
1.28233e-05
9.02536e-09
8.5592e-09
1.28405e-05
1.25062e-05
-6.17919e-09
1.25211e-05
-1.48825e-08
1.25389e-05
-1.78245e-08
1.25578e-05
-1.88812e-08
1.25776e-05
-1.98532e-08
1.25978e-05
-2.01284e-08
1.26176e-05
-1.97731e-08
1.26368e-05
-1.92436e-08
1.26556e-05
-1.86833e-08
1.26737e-05
-1.81043e-08
1.26914e-05
-1.7534e-08
1.27087e-05
-1.69769e-08
1.27256e-05
-1.64016e-08
1.27421e-05
-1.57261e-08
1.27585e-05
-1.48675e-08
1.27746e-05
-1.35766e-08
1.27907e-05
-1.18782e-08
1.28069e-05
-9.27137e-09
1.28233e-05
-7.39919e-09
-8.36792e-09
1.28403e-05
1.25062e-05
-1.24192e-08
1.25212e-05
-2.98325e-08
1.2539e-05
-3.56722e-08
1.25579e-05
-3.77816e-08
1.25778e-05
-3.97261e-08
1.2598e-05
-4.02722e-08
1.26177e-05
-3.95654e-08
1.2637e-05
-3.8517e-08
1.26558e-05
-3.74163e-08
1.26739e-05
-3.62952e-08
1.26916e-05
-3.52214e-08
1.27089e-05
-3.42264e-08
1.27258e-05
-3.32824e-08
1.27423e-05
-3.23047e-08
1.27587e-05
-3.12047e-08
1.27749e-05
-2.97496e-08
1.27909e-05
-2.79609e-08
1.28071e-05
-2.54649e-08
1.28235e-05
-2.37769e-08
-2.51172e-08
1.28403e-05
1.25064e-05
-1.87815e-08
1.25214e-05
-4.49171e-08
1.25393e-05
-5.35633e-08
1.25583e-05
-5.6715e-08
1.25782e-05
-5.96289e-08
1.25983e-05
-6.04303e-08
1.26181e-05
-5.93656e-08
1.26374e-05
-5.77961e-08
1.26561e-05
-5.61522e-08
1.26743e-05
-5.44877e-08
1.2692e-05
-5.29101e-08
1.27093e-05
-5.14778e-08
1.27262e-05
-5.01665e-08
1.27427e-05
-4.88886e-08
1.27591e-05
-4.75501e-08
1.27753e-05
-4.59326e-08
1.27914e-05
-4.4054e-08
1.28076e-05
-4.16471e-08
1.28239e-05
-4.01089e-08
-4.17086e-08
1.28405e-05
1.25065e-05
-2.53311e-08
1.25218e-05
-6.02045e-08
1.25398e-05
-7.15187e-08
1.25588e-05
-7.56982e-08
1.25787e-05
-7.95767e-08
1.25989e-05
-8.06096e-08
1.26187e-05
-7.91777e-08
1.2638e-05
-7.70835e-08
1.26567e-05
-7.48922e-08
1.26749e-05
-7.26822e-08
1.26926e-05
-7.06008e-08
1.27099e-05
-6.87318e-08
1.27268e-05
-6.70546e-08
1.27434e-05
-6.54788e-08
1.27597e-05
-6.39048e-08
1.27759e-05
-6.21265e-08
1.2792e-05
-6.0158e-08
1.28082e-05
-5.78192e-08
1.28245e-05
-5.63978e-08
-5.81605e-08
1.28409e-05
1.25068e-05
-3.21377e-08
1.25224e-05
-7.57632e-08
1.25404e-05
-8.95586e-08
1.25595e-05
-9.47488e-08
1.25795e-05
-9.9584e-08
1.25997e-05
-1.00817e-07
1.26195e-05
-9.90059e-08
1.26388e-05
-9.63821e-08
1.26575e-05
-9.3638e-08
1.26757e-05
-9.08799e-08
1.26934e-05
-8.82944e-08
1.27107e-05
-8.59897e-08
1.27276e-05
-8.39484e-08
1.27442e-05
-8.20773e-08
1.27606e-05
-8.02709e-08
1.27768e-05
-7.83335e-08
1.27929e-05
-7.62744e-08
1.2809e-05
-7.39839e-08
1.28253e-05
-7.26474e-08
-7.44897e-08
1.28416e-05
1.25071e-05
-3.92776e-08
1.2523e-05
-9.16624e-08
1.25412e-05
-1.07702e-07
1.25603e-05
-1.13885e-07
1.25804e-05
-1.19665e-07
1.26006e-05
-1.21059e-07
1.26205e-05
-1.18855e-07
1.26398e-05
-1.15695e-07
1.26586e-05
-1.12392e-07
1.26768e-05
-1.09083e-07
1.26945e-05
-1.05993e-07
1.27117e-05
-1.03254e-07
1.27286e-05
-1.00851e-07
1.27452e-05
-9.86877e-08
1.27616e-05
-9.66524e-08
1.27778e-05
-9.45574e-08
1.2794e-05
-9.2406e-08
1.28101e-05
-9.01444e-08
1.28263e-05
-8.88618e-08
-9.07106e-08
1.28426e-05
1.25076e-05
-4.68358e-08
1.25239e-05
-1.07972e-07
1.25421e-05
-1.25968e-07
1.25614e-05
-1.33127e-07
1.25815e-05
-1.39835e-07
1.26018e-05
-1.41343e-07
1.26217e-05
-1.38729e-07
1.2641e-05
-1.35027e-07
1.26598e-05
-1.31157e-07
1.2678e-05
-1.27294e-07
1.26957e-05
-1.23701e-07
1.2713e-05
-1.2053e-07
1.27299e-05
-1.17768e-07
1.27465e-05
-1.15316e-07
1.27629e-05
-1.13055e-07
1.27792e-05
-1.10803e-07
1.27953e-05
-1.08557e-07
1.28115e-05
-1.06304e-07
1.28277e-05
-1.05044e-07
-1.06834e-07
1.28438e-05
1.25081e-05
-5.49084e-08
1.25249e-05
-1.2476e-07
1.25433e-05
-1.44373e-07
1.25626e-05
-1.52495e-07
1.25829e-05
-1.60106e-07
1.26032e-05
-1.61676e-07
1.26231e-05
-1.58635e-07
1.26425e-05
-1.54383e-07
1.26613e-05
-1.49939e-07
1.26795e-05
-1.45521e-07
1.26972e-05
-1.41428e-07
1.27145e-05
-1.37828e-07
1.27315e-05
-1.34711e-07
1.27481e-05
-1.31973e-07
1.27646e-05
-1.29488e-07
1.27808e-05
-1.27077e-07
1.2797e-05
-1.24728e-07
1.28132e-05
-1.22462e-07
1.28293e-05
-1.2119e-07
-1.22859e-07
1.28453e-05
1.25087e-05
-6.36049e-08
1.2526e-05
-1.42098e-07
1.25446e-05
-1.62933e-07
1.25641e-05
-1.72013e-07
1.25845e-05
-1.80494e-07
1.26049e-05
-1.82066e-07
1.26248e-05
-1.78584e-07
1.26442e-05
-1.73775e-07
1.2663e-05
-1.68753e-07
1.26813e-05
-1.6378e-07
1.26991e-05
-1.59189e-07
1.27164e-05
-1.55163e-07
1.27334e-05
-1.51692e-07
1.27501e-05
-1.48668e-07
1.27665e-05
-1.45956e-07
1.27828e-05
-1.43379e-07
1.2799e-05
-1.40915e-07
1.28152e-05
-1.38606e-07
1.28313e-05
-1.37282e-07
-1.3877e-07
1.28472e-05
1.25094e-05
-7.30518e-08
1.25274e-05
-1.60053e-07
1.25461e-05
-1.81663e-07
1.25658e-05
-1.91706e-07
1.25863e-05
-2.01014e-07
1.26068e-05
-2.02531e-07
1.26268e-05
-1.98596e-07
1.26463e-05
-1.93228e-07
1.26651e-05
-1.87624e-07
1.26835e-05
-1.82097e-07
1.27013e-05
-1.7701e-07
1.27187e-05
-1.72556e-07
1.27357e-05
-1.68727e-07
1.27525e-05
-1.65408e-07
1.2769e-05
-1.62456e-07
1.27853e-05
-1.59693e-07
1.28014e-05
-1.57088e-07
1.28175e-05
-1.54697e-07
1.28335e-05
-1.53267e-07
-1.54508e-07
1.28493e-05
1.25103e-05
-8.33955e-08
1.2529e-05
-1.78693e-07
1.25479e-05
-2.00581e-07
1.25678e-05
-2.11611e-07
1.25885e-05
-2.21695e-07
1.26091e-05
-2.23103e-07
1.26292e-05
-2.18712e-07
1.26487e-05
-2.12786e-07
1.26677e-05
-2.06597e-07
1.26861e-05
-2.00513e-07
1.2704e-05
-1.94922e-07
1.27215e-05
-1.90027e-07
1.27386e-05
-1.85819e-07
1.27554e-05
-1.82178e-07
1.27719e-05
-1.78952e-07
1.27881e-05
-1.75965e-07
1.28042e-05
-1.73171e-07
1.28202e-05
-1.70637e-07
1.28359e-05
-1.69031e-07
-1.69948e-07
1.28514e-05
1.25114e-05
-9.48078e-08
1.25308e-05
-1.98081e-07
1.25499e-05
-2.19713e-07
1.25701e-05
-2.31783e-07
1.2591e-05
-2.42591e-07
1.26118e-05
-2.43853e-07
1.26321e-05
-2.39014e-07
1.26518e-05
-2.32527e-07
1.26709e-05
-2.2574e-07
1.26895e-05
-2.19076e-07
1.27075e-05
-2.12947e-07
1.27251e-05
-2.07567e-07
1.27422e-05
-2.02926e-07
1.27589e-05
-1.98902e-07
1.27753e-05
-1.95337e-07
1.27914e-05
-1.92052e-07
1.28072e-05
-1.8899e-07
1.28228e-05
-1.86225e-07
1.28381e-05
-1.84342e-07
-1.84838e-07
1.2853e-05
1.25127e-05
-1.07498e-07
1.25329e-05
-2.18282e-07
1.25523e-05
-2.39117e-07
1.25729e-05
-2.52343e-07
1.25941e-05
-2.63832e-07
1.26152e-05
-2.64925e-07
1.26358e-05
-2.59641e-07
1.26558e-05
-2.52563e-07
1.26752e-05
-2.4512e-07
1.26939e-05
-2.37801e-07
1.2712e-05
-2.31046e-07
1.27295e-05
-2.25077e-07
1.27465e-05
-2.19894e-07
1.2763e-05
-2.15371e-07
1.2779e-05
-2.11345e-07
1.27946e-05
-2.07637e-07
1.28098e-05
-2.04179e-07
1.28246e-05
-2.01045e-07
1.2839e-05
-1.98737e-07
-1.98682e-07
1.28528e-05
1.25142e-05
-1.21734e-07
1.25354e-05
-2.39401e-07
1.25552e-05
-2.58944e-07
1.25764e-05
-2.73561e-07
1.25983e-05
-2.85692e-07
1.26199e-05
-2.86574e-07
1.26411e-05
-2.80781e-07
1.26615e-05
-2.72992e-07
1.26811e-05
-2.64732e-07
1.26999e-05
-2.56576e-07
1.27178e-05
-2.48997e-07
1.2735e-05
-2.42236e-07
1.27514e-05
-2.36301e-07
1.27671e-05
-2.31069e-07
1.27821e-05
-2.26372e-07
1.27965e-05
-2.22031e-07
1.28103e-05
-2.17964e-07
1.28235e-05
-2.14245e-07
1.2836e-05
-2.11282e-07
-2.10477e-07
1.28478e-05
1.25161e-05
-1.3788e-07
1.25385e-05
-2.61779e-07
1.25592e-05
-2.79613e-07
1.25817e-05
-2.9603e-07
1.26046e-05
-3.08678e-07
1.26272e-05
-3.09144e-07
1.2649e-05
-3.02577e-07
1.26698e-05
-2.93735e-07
1.26893e-05
-2.8428e-07
1.27076e-05
-2.74893e-07
1.27247e-05
-2.66096e-07
1.27406e-05
-2.58151e-07
1.27554e-05
-2.51076e-07
1.27691e-05
-2.44752e-07
1.27817e-05
-2.39006e-07
1.27934e-05
-2.33655e-07
1.2804e-05
-2.28598e-07
1.28137e-05
-2.23908e-07
1.28222e-05
-2.19878e-07
-2.17969e-07
1.28297e-05
1.25187e-05
-1.56533e-07
1.25435e-05
-2.86634e-07
1.25662e-05
-3.0231e-07
1.25911e-05
-3.20906e-07
1.26159e-05
-3.3352e-07
1.26396e-05
-3.32837e-07
1.26618e-05
-3.24717e-07
1.2682e-05
-3.13989e-07
1.27002e-05
-3.02488e-07
1.27164e-05
-2.91029e-07
1.27304e-05
-2.80193e-07
1.27426e-05
-2.70261e-07
1.27527e-05
-2.6126e-07
1.27611e-05
-2.53063e-07
1.27675e-05
-2.45484e-07
1.27722e-05
-2.38332e-07
1.27751e-05
-2.31478e-07
1.27762e-05
-2.24995e-07
1.27753e-05
-2.1901e-07
-2.15302e-07
1.27726e-05
1.25233e-05
-1.79859e-07
1.25543e-05
-3.17651e-07
1.25822e-05
-3.3017e-07
1.26114e-05
-3.50077e-07
1.26384e-05
-3.60563e-07
1.2662e-05
-3.5644e-07
1.26819e-05
-3.4455e-07
1.26976e-05
-3.29756e-07
1.27092e-05
-3.14078e-07
1.27167e-05
-2.9849e-07
1.27201e-05
-2.83636e-07
1.27197e-05
-2.698e-07
1.27154e-05
-2.57003e-07
1.27074e-05
-2.45107e-07
1.26959e-05
-2.33922e-07
1.26808e-05
-2.23265e-07
1.26623e-05
-2.13009e-07
1.26406e-05
-2.03275e-07
1.26156e-05
-1.93982e-07
-1.87753e-07
1.2588e-05
1.25407e-05
-2.20537e-07
1.25884e-05
-3.65386e-07
1.26281e-05
-3.69831e-07
1.2661e-05
-3.8299e-07
1.26834e-05
-3.82934e-07
1.26942e-05
-3.67304e-07
1.2694e-05
-3.4436e-07
1.26833e-05
-3.19034e-07
1.26628e-05
-2.93531e-07
1.26332e-05
-2.68978e-07
1.25957e-05
-2.46066e-07
1.2551e-05
-2.25096e-07
1.25001e-05
-2.06114e-07
1.2444e-05
-1.89033e-07
1.23838e-05
-1.73704e-07
1.23205e-05
-1.59971e-07
1.22552e-05
-1.47683e-07
1.21888e-05
-1.36886e-07
1.21221e-05
-1.27301e-07
-1.21342e-07
1.20557e-05
1.26412e-05
-3.61696e-07
1.27047e-05
-4.28919e-07
1.27223e-05
-3.87418e-07
1.26942e-05
-3.54926e-07
1.26301e-05
-3.18825e-07
1.25382e-05
-2.75427e-07
1.24265e-05
-2.32634e-07
1.23018e-05
-1.94338e-07
1.21699e-05
-1.61601e-07
1.20353e-05
-1.34424e-07
1.19017e-05
-1.12462e-07
1.17717e-05
-9.51195e-08
1.16473e-05
-8.16881e-08
1.15297e-05
-7.14275e-08
1.14196e-05
-6.36329e-08
1.13174e-05
-5.76833e-08
1.12228e-05
-5.3081e-08
1.11354e-05
-4.95279e-08
1.10549e-05
-4.68261e-08
-4.56527e-08
1.09792e-05
1.21383e-05
1.17094e-05
1.1322e-05
1.0967e-05
1.06482e-05
1.03728e-05
1.01402e-05
9.94582e-06
9.78422e-06
9.64979e-06
9.53733e-06
9.44221e-06
9.36052e-06
9.2891e-06
9.22546e-06
9.16778e-06
9.1147e-06
9.06517e-06
9.01834e-06
8.97269e-06
8.5906e-06
3.14414e-08
1.58004e-07
8.36747e-06
-1.11723e-08
2.34298e-07
8.12406e-06
-6.83546e-08
3.11768e-07
7.92031e-06
-1.1676e-07
3.20505e-07
7.77003e-06
-1.62411e-07
3.12696e-07
7.66864e-06
-1.95727e-07
2.97117e-07
7.60746e-06
-2.1839e-07
2.79567e-07
7.57527e-06
-2.3169e-07
2.63881e-07
7.5621e-06
-2.37901e-07
2.51075e-07
7.56088e-06
-2.39804e-07
2.41021e-07
7.56724e-06
-2.39882e-07
2.33517e-07
7.5786e-06
-2.39824e-07
2.28468e-07
7.59356e-06
-2.41089e-07
2.26124e-07
7.61123e-06
-2.44296e-07
2.26628e-07
7.63089e-06
-2.49591e-07
2.29934e-07
7.65191e-06
-2.56911e-07
2.35894e-07
7.67373e-06
-2.66135e-07
2.44307e-07
7.69595e-06
-2.77189e-07
2.54977e-07
7.71822e-06
-2.89981e-07
2.67706e-07
7.74033e-06
-3.04428e-07
2.82316e-07
7.76212e-06
-3.20464e-07
2.98674e-07
7.78348e-06
-3.38027e-07
3.1667e-07
7.80432e-06
-3.57059e-07
3.36216e-07
7.82459e-06
-3.77509e-07
3.57237e-07
7.84426e-06
-3.99336e-07
3.79672e-07
7.8633e-06
-4.22505e-07
4.03466e-07
7.88171e-06
-4.46982e-07
4.28567e-07
7.89951e-06
-4.7273e-07
4.54929e-07
7.91672e-06
-4.99709e-07
4.82503e-07
7.93335e-06
-5.27874e-07
5.11242e-07
7.94943e-06
-5.57173e-07
5.41094e-07
7.96498e-06
-5.87551e-07
5.72004e-07
7.98001e-06
-6.1895e-07
6.03916e-07
7.99455e-06
-6.51311e-07
6.36772e-07
8.00861e-06
-6.8457e-07
6.70509e-07
8.02221e-06
-7.18666e-07
7.05067e-07
8.03536e-06
-7.53532e-07
7.40382e-07
8.04807e-06
-7.89105e-07
7.76391e-07
8.06036e-06
-8.25319e-07
8.13028e-07
8.07224e-06
-8.6211e-07
8.50231e-07
8.08372e-06
-8.99415e-07
8.87937e-07
8.09481e-06
-9.37174e-07
9.26082e-07
8.10553e-06
-9.75327e-07
9.64608e-07
8.11589e-06
-1.01382e-06
1.00346e-06
8.12592e-06
-1.0526e-06
1.04258e-06
8.13562e-06
-1.09162e-06
1.08191e-06
8.14503e-06
-1.13083e-06
1.12142e-06
8.15417e-06
-1.1702e-06
1.16106e-06
8.16306e-06
-1.20969e-06
1.20079e-06
8.17175e-06
-1.24928e-06
1.24059e-06
8.18026e-06
-1.28894e-06
1.28043e-06
8.18863e-06
-1.32866e-06
1.3203e-06
8.19689e-06
-1.36845e-06
1.36019e-06
8.2051e-06
-1.40831e-06
1.4001e-06
8.21328e-06
-1.44824e-06
1.44006e-06
8.2215e-06
-1.48828e-06
1.48007e-06
8.22978e-06
-1.52846e-06
1.52018e-06
8.23817e-06
-1.56881e-06
1.56042e-06
8.24674e-06
-1.60939e-06
1.60083e-06
8.25551e-06
-1.65025e-06
1.64147e-06
8.26454e-06
-1.69144e-06
1.68241e-06
8.27387e-06
-1.73303e-06
1.7237e-06
8.28355e-06
-1.7751e-06
1.76542e-06
8.29363e-06
-1.81771e-06
1.80763e-06
8.30415e-06
-1.86093e-06
1.85042e-06
8.31514e-06
-1.90483e-06
1.89384e-06
8.32665e-06
-1.94949e-06
1.93798e-06
8.33872e-06
-1.99496e-06
1.98289e-06
8.35137e-06
-2.0413e-06
2.02864e-06
8.36465e-06
-2.08856e-06
2.07529e-06
8.37856e-06
-2.13678e-06
2.12286e-06
8.39315e-06
-2.18599e-06
2.17141e-06
8.40842e-06
-2.23621e-06
2.22093e-06
8.42439e-06
-2.28743e-06
2.27145e-06
8.44108e-06
-2.33964e-06
2.32295e-06
8.45847e-06
-2.3928e-06
2.3754e-06
8.47658e-06
-2.44686e-06
2.42875e-06
8.49539e-06
-2.50175e-06
2.48293e-06
8.5149e-06
-2.55736e-06
2.53785e-06
8.53507e-06
-2.61357e-06
2.5934e-06
8.55588e-06
-2.67025e-06
2.64944e-06
8.57729e-06
-2.72722e-06
2.70581e-06
8.59927e-06
-2.7843e-06
2.76232e-06
8.62177e-06
-2.84127e-06
2.81878e-06
8.64471e-06
-2.89789e-06
2.87495e-06
8.66805e-06
-2.95392e-06
2.93059e-06
8.6917e-06
-3.00908e-06
2.98543e-06
8.71558e-06
-3.06308e-06
3.0392e-06
8.73961e-06
-3.11564e-06
3.09161e-06
8.76369e-06
-3.16644e-06
3.14236e-06
8.78772e-06
-3.21518e-06
3.19114e-06
8.8116e-06
-3.26155e-06
3.23767e-06
8.83522e-06
-3.30528e-06
3.28165e-06
8.85848e-06
-3.34606e-06
3.3228e-06
8.88127e-06
-3.38366e-06
3.36087e-06
8.90348e-06
-3.41783e-06
3.39562e-06
8.92502e-06
-3.44838e-06
3.42684e-06
8.9458e-06
-3.47515e-06
3.45438e-06
8.96573e-06
-3.49802e-06
3.47809e-06
8.98474e-06
-3.51692e-06
3.4979e-06
9.00278e-06
-3.53182e-06
3.51378e-06
9.01981e-06
-3.54275e-06
3.52573e-06
9.0358e-06
-3.54981e-06
3.53382e-06
9.05073e-06
-3.5531e-06
3.53817e-06
9.06462e-06
-3.55282e-06
3.53893e-06
9.07749e-06
-3.54919e-06
3.53632e-06
9.08937e-06
-3.54246e-06
3.53058e-06
9.10031e-06
-3.53292e-06
3.52199e-06
9.11036e-06
-3.52092e-06
3.51086e-06
9.1196e-06
-3.50677e-06
3.49753e-06
9.12809e-06
-3.49085e-06
3.48236e-06
9.1359e-06
-3.47352e-06
3.46571e-06
9.1431e-06
-3.45514e-06
3.44794e-06
9.14976e-06
-3.43608e-06
3.42943e-06
9.15593e-06
-3.41671e-06
3.41053e-06
9.16166e-06
-3.39735e-06
3.39161e-06
9.16701e-06
-3.37835e-06
3.37301e-06
9.17199e-06
-3.36002e-06
3.35503e-06
9.17663e-06
-3.34265e-06
3.33801e-06
9.18095e-06
-3.32652e-06
3.32221e-06
9.18493e-06
-3.31189e-06
3.3079e-06
9.18859e-06
-3.29899e-06
3.29533e-06
9.19191e-06
-3.28804e-06
3.28472e-06
9.1949e-06
-3.27924e-06
3.27625e-06
9.19756e-06
-3.27276e-06
3.2701e-06
9.1999e-06
-3.26875e-06
3.2664e-06
9.20197e-06
-3.26734e-06
3.26527e-06
9.20383e-06
-3.26863e-06
3.26677e-06
9.20556e-06
-3.27268e-06
3.27095e-06
9.20732e-06
-3.27954e-06
3.27778e-06
9.20931e-06
-3.2892e-06
3.28722e-06
9.21182e-06
-3.30169e-06
3.29918e-06
9.21526e-06
-3.31702e-06
3.31358e-06
9.22012e-06
-3.33522e-06
3.33036e-06
9.22687e-06
-3.35618e-06
3.34943e-06
9.2357e-06
-3.37942e-06
3.37059e-06
9.24607e-06
-3.4036e-06
3.39323e-06
9.25634e-06
-3.42614e-06
3.41586e-06
9.26358e-06
-3.44297e-06
3.43573e-06
9.26386e-06
-3.44899e-06
3.44871e-06
9.25308e-06
-3.43891e-06
3.44969e-06
9.22798e-06
-3.40848e-06
3.43357e-06
9.18707e-06
-3.35546e-06
3.39637e-06
9.1309e-06
-3.28e-06
3.33616e-06
9.06191e-06
-3.18427e-06
3.25327e-06
8.98374e-06
-3.07173e-06
3.1499e-06
8.90054e-06
-2.94611e-06
3.02932e-06
8.81627e-06
-2.81074e-06
2.89501e-06
8.73434e-06
-2.66799e-06
2.74992e-06
8.65736e-06
-2.51918e-06
2.59616e-06
8.58713e-06
-2.36459e-06
2.43481e-06
8.52477e-06
-2.2037e-06
2.26606e-06
8.4708e-06
-2.03542e-06
2.08939e-06
8.42534e-06
-1.85834e-06
1.9038e-06
8.38822e-06
-1.67089e-06
1.70801e-06
8.35909e-06
-1.47151e-06
1.50064e-06
8.33752e-06
-1.25874e-06
1.28031e-06
8.32305e-06
-1.03127e-06
1.04573e-06
8.31522e-06
-7.8795e-07
7.9578e-07
8.31359e-06
-5.27841e-07
5.29476e-07
8.31773e-06
-2.50165e-07
2.46021e-07
8.32726e-06
4.57055e-08
-5.52325e-08
8.34178e-06
3.60205e-07
-3.74721e-07
8.36085e-06
6.93528e-07
-7.12601e-07
8.38396e-06
1.04564e-06
-1.06875e-06
8.41046e-06
1.4162e-06
-1.4427e-06
8.43948e-06
1.80448e-06
-1.8335e-06
8.46989e-06
2.20923e-06
-2.23964e-06
8.50022e-06
2.62852e-06
-2.65886e-06
8.52871e-06
3.05963e-06
-3.08811e-06
8.5533e-06
3.49897e-06
-3.52357e-06
8.57185e-06
3.94219e-06
-3.96073e-06
8.58231e-06
4.38435e-06
-4.39481e-06
8.58301e-06
4.82039e-06
-4.8211e-06
8.57286e-06
5.24561e-06
-5.23546e-06
8.55146e-06
5.65619e-06
-5.6348e-06
8.51913e-06
6.04959e-06
-6.01726e-06
8.47679e-06
6.42478e-06
-6.38244e-06
8.42582e-06
6.78231e-06
-6.73134e-06
8.36789e-06
7.12416e-06
-7.06624e-06
8.30476e-06
7.45363e-06
-7.39049e-06
8.23809e-06
7.77503e-06
-7.70837e-06
8.16938e-06
8.09353e-06
-8.02482e-06
8.09979e-06
8.41494e-06
-8.34536e-06
8.03012e-06
8.74569e-06
-8.67601e-06
7.96071e-06
9.09275e-06
-9.02334e-06
7.89141e-06
9.46385e-06
-9.39455e-06
7.82153e-06
9.86768e-06
-9.79781e-06
7.74979e-06
1.03145e-05
-1.02427e-05
7.67423e-06
1.08166e-05
-1.0741e-05
7.59206e-06
1.13901e-05
-1.13079e-05
7.49955e-06
1.20561e-05
-1.19636e-05
7.3916e-06
1.2844e-05
-1.2736e-05
7.26152e-06
1.37947e-05
-1.36646e-05
7.09919e-06
1.49634e-05
-1.48011e-05
6.89252e-06
1.64254e-05
-1.62187e-05
6.60704e-06
1.8267e-05
-1.79816e-05
6.23594e-06
2.06388e-05
-2.02677e-05
5.5609e-06
2.35951e-05
-2.29201e-05
3.03832e-05
-3.04673e-05
5.64495e-06
1.0977e-05
6.8112e-08
1.09102e-05
5.56013e-08
1.0807e-05
3.47999e-08
1.06791e-05
1.12187e-08
1.05287e-05
-1.20545e-08
1.03637e-05
-3.07257e-08
1.01937e-05
-4.83756e-08
1.00273e-05
-6.52929e-08
9.87158e-06
-8.21993e-08
9.73134e-06
-9.95637e-08
9.60878e-06
-1.1732e-07
9.50368e-06
-1.34726e-07
9.41465e-06
-1.52051e-07
9.33943e-06
-1.69075e-07
9.27571e-06
-1.85871e-07
9.22144e-06
-2.02646e-07
9.175e-06
-2.19688e-07
9.13512e-06
-2.37315e-07
9.10083e-06
-2.55685e-07
9.07128e-06
-2.74879e-07
9.04575e-06
-2.94941e-07
9.02362e-06
-3.15893e-07
9.00432e-06
-3.3776e-07
8.98739e-06
-3.60579e-07
8.97245e-06
-3.84395e-07
8.95919e-06
-4.09244e-07
8.94736e-06
-4.35151e-07
8.93675e-06
-4.62123e-07
8.92719e-06
-4.90153e-07
8.91854e-06
-5.1922e-07
8.91066e-06
-5.49295e-07
8.90346e-06
-5.80344e-07
8.89683e-06
-6.12324e-07
8.89071e-06
-6.4519e-07
8.88503e-06
-6.78892e-07
8.87974e-06
-7.13375e-07
8.87479e-06
-7.48583e-07
8.87014e-06
-7.84454e-07
8.86575e-06
-8.2093e-07
8.86159e-06
-8.57949e-07
8.85763e-06
-8.95455e-07
8.85384e-06
-9.33389e-07
8.85022e-06
-9.717e-07
8.84673e-06
-1.01034e-06
8.84338e-06
-1.04925e-06
8.84015e-06
-1.08839e-06
8.83705e-06
-1.12773e-06
8.83407e-06
-1.16722e-06
8.83122e-06
-1.20684e-06
8.82851e-06
-1.24657e-06
8.82596e-06
-1.28639e-06
8.82359e-06
-1.32629e-06
8.82141e-06
-1.36627e-06
8.81946e-06
-1.40635e-06
8.81775e-06
-1.44654e-06
8.81633e-06
-1.48686e-06
8.81522e-06
-1.52735e-06
8.81446e-06
-1.56805e-06
8.81408e-06
-1.60901e-06
8.81412e-06
-1.65029e-06
8.81462e-06
-1.69194e-06
8.81562e-06
-1.73403e-06
8.81714e-06
-1.77663e-06
8.81924e-06
-1.8198e-06
8.82193e-06
-1.86362e-06
8.82526e-06
-1.90816e-06
8.82925e-06
-1.95348e-06
8.83393e-06
-1.99964e-06
8.83934e-06
-2.0467e-06
8.84548e-06
-2.0947e-06
8.85238e-06
-2.14368e-06
8.86005e-06
-2.19366e-06
8.8685e-06
-2.24466e-06
8.87774e-06
-2.29666e-06
8.88776e-06
-2.34966e-06
8.89856e-06
-2.4036e-06
8.91012e-06
-2.45842e-06
8.92243e-06
-2.51405e-06
8.93545e-06
-2.57038e-06
8.94917e-06
-2.62729e-06
8.96353e-06
-2.68461e-06
8.97848e-06
-2.74218e-06
8.99398e-06
-2.7998e-06
9.00995e-06
-2.85724e-06
9.02633e-06
-2.91427e-06
9.04303e-06
-2.97062e-06
9.05996e-06
-3.02602e-06
9.07704e-06
-3.08016e-06
9.09415e-06
-3.13275e-06
9.11119e-06
-3.18348e-06
9.12804e-06
-3.23203e-06
9.1446e-06
-3.27811e-06
9.16074e-06
-3.32142e-06
9.17635e-06
-3.36167e-06
9.19131e-06
-3.39862e-06
9.20552e-06
-3.43204e-06
9.21888e-06
-3.46174e-06
9.2313e-06
-3.48757e-06
9.2427e-06
-3.50942e-06
9.25302e-06
-3.52724e-06
9.26222e-06
-3.54102e-06
9.27028e-06
-3.55081e-06
9.27719e-06
-3.55671e-06
9.28296e-06
-3.55887e-06
9.28762e-06
-3.55748e-06
9.29122e-06