/*--------------------------------*- C++ -*----------------------------------*\
| =========                 |                                                 |
| \\      /  F ield         | OpenFOAM: The Open Source CFD Toolbox           |
|  \\    /   O peration     | Version:  2.4.0                                 |
|   \\  /    A nd           | Web:      www.OpenFOAM.org                      |
|    \\/     M anipulation  |                                                 |
\*---------------------------------------------------------------------------*/
FoamFile
{
    version     2.0;
    format      ascii;
    class       surfaceScalarField;
    location    "0.011";
    object      phi_0;
}
// * * * * * * * * * * * * * * * * * * * * * * * * * * * * * * * * * * * * * //

dimensions      [0 3 -1 0 0 0 0];

internalField   nonuniform List<scalar> 
8640
(
1.1518e-05
1.3482e-05
7.25749e-06
4.26054e-06
5.88289e-06
1.3746e-06
5.34911e-06
5.33786e-07
5.407e-06
-5.78964e-08
5.50139e-06
-9.43859e-08
5.52131e-06
-1.99248e-08
5.50468e-06
1.6631e-08
6.29331e-06
-7.88635e-07
-2.15439e-07
6.50875e-06
2.11614e-05
1.73205e-05
1.76562e-05
7.76578e-06
1.55608e-05
3.47001e-06
1.44195e-05
1.67512e-06
1.4426e-05
-6.44245e-08
1.44218e-05
-9.02302e-08
1.46337e-05
-2.31739e-07
1.45934e-05
5.68798e-08
1.51056e-05
-1.30081e-06
1.17236e-05
3.16658e-06
2.58215e-05
1.6499e-05
2.43582e-05
9.22913e-06
2.27257e-05
5.1025e-06
2.1488e-05
2.91278e-06
2.14348e-05
-1.12273e-08
2.12778e-05
6.68531e-08
2.15832e-05
-5.37229e-07
2.16667e-05
-2.66207e-08
2.15075e-05
-1.14153e-06
2.0917e-05
1.23141e-05
2.75248e-05
1.39742e-05
2.79008e-05
8.85319e-06
2.74387e-05
5.56458e-06
2.67306e-05
3.62087e-06
2.66602e-05
5.91997e-08
2.6564e-05
1.63038e-07
2.66721e-05
-6.45321e-07
2.68919e-05
-2.46462e-07
2.53522e-05
3.9818e-07
1.96755e-05
2.65936e-05
2.76416e-05
1.13326e-05
2.89272e-05
7.56754e-06
2.95453e-05
4.94646e-06
2.96984e-05
3.46784e-06
2.96679e-05
8.97117e-08
2.9606e-05
2.24857e-07
2.95718e-05
-6.1109e-07
2.95464e-05
-2.21054e-07
2.90322e-05
9.12332e-07
1.49568e-05
3.3751e-05
2.74477e-05
8.8849e-06
2.8908e-05
6.10723e-06
2.99784e-05
3.87604e-06
3.05386e-05
2.90764e-06
3.04833e-05
1.45017e-07
3.05796e-05
1.28569e-07
3.02129e-05
-2.44414e-07
3.01916e-05
-1.99717e-07
3.03916e-05
7.12347e-07
1.12868e-05
3.40616e-05
2.73195e-05
6.56539e-06
2.87978e-05
4.62898e-06
2.98864e-05
2.78741e-06
3.04904e-05
2.30369e-06
3.06025e-05
3.28293e-08
3.05227e-05
2.08366e-07
3.02855e-05
-7.188e-09
3.04918e-05
-4.05992e-07
3.05936e-05
6.10528e-07
7.3683e-06
3.45122e-05
2.72383e-05
4.32708e-06
2.87427e-05
3.12461e-06
2.97476e-05
1.78244e-06
3.04359e-05
1.61547e-06
3.05171e-05
-4.83628e-08
3.04805e-05
2.44943e-07
3.0449e-05
2.43385e-08
3.04502e-05
-4.07266e-07
3.08661e-05
1.94668e-07
6.08337e-06
3.2151e-05
2.71879e-05
2.13918e-06
2.87062e-05
1.60635e-06
2.96819e-05
8.06673e-07
3.03659e-05
9.31507e-07
3.04766e-05
-1.59091e-07
3.05245e-05
1.9708e-07
3.03956e-05
1.53208e-07
3.05015e-05
-5.13187e-07
3.0579e-05
1.17227e-07
3.6446e-06
3.30177e-05
2.71609e-05
-2.17085e-08
2.86934e-05
7.38448e-08
2.96425e-05
-1.42397e-07
3.0336e-05
2.37983e-07
3.049e-05
-3.13135e-07
3.04489e-05
2.38201e-07
3.04945e-05
1.07573e-07
3.04813e-05
-4.99972e-07
3.09211e-05
-3.225e-07
1.36722e-06
3.31984e-05
2.71603e-05
-2.18196e-06
2.86948e-05
-1.46071e-06
2.96417e-05
-1.08924e-06
3.03414e-05
-4.61797e-07
3.04776e-05
-4.49306e-07
3.04807e-05
2.35107e-07
3.05047e-05
8.35458e-08
3.05127e-05
-5.07954e-07
3.0715e-05
-5.24813e-07
3.9239e-07
3.16899e-05
2.71849e-05
-4.36682e-06
2.87126e-05
-2.98847e-06
2.9675e-05
-2.05162e-06
3.03716e-05
-1.15844e-06
3.05105e-05
-5.88212e-07
3.04655e-05
2.8011e-07
3.05375e-05
1.1629e-08
3.05045e-05
-4.74971e-07
3.07778e-05
-7.98142e-07
-6.45588e-07
3.18158e-05
2.72346e-05
-6.60142e-06
2.87493e-05
-4.50318e-06
2.97459e-05
-3.04822e-06
3.04371e-05
-1.84963e-06
3.05471e-05
-6.98191e-07
3.04848e-05
3.42368e-07
3.05554e-05
-5.89674e-08
3.04874e-05
-4.07002e-07
3.07591e-05
-1.06977e-06
-1.54708e-06
3.16606e-05
2.73114e-05
-8.91281e-06
2.88153e-05
-6.0071e-06
2.98613e-05
-4.09418e-06
3.05344e-05
-2.52279e-06
3.06006e-05
-7.64321e-07
3.05022e-05
4.40768e-07
3.05717e-05
-1.28469e-07
3.04807e-05
-3.16034e-07
3.0734e-05
-1.32307e-06
-1.90667e-06
3.10936e-05
2.74378e-05
-1.13506e-05
2.89266e-05
-7.49591e-06
2.99587e-05
-5.12629e-06
3.05524e-05
-3.1165e-06
3.05636e-05
-7.75501e-07
3.04567e-05
5.47702e-07
3.0505e-05
-1.7677e-07
3.03899e-05
-2.00946e-07
3.05661e-05
-1.49932e-06
-2.18212e-06
3.08416e-05
2.76366e-05
-1.39872e-05
2.89386e-05
-8.7979e-06
2.95315e-05
-5.71914e-06
2.97238e-05
-3.30881e-06
2.96459e-05
-6.97596e-07
2.96243e-05
5.69297e-07
2.96357e-05
-1.88143e-07
2.95552e-05
-1.20486e-07
2.95147e-05
-1.45883e-06
-1.95996e-06
2.92926e-05
2.75175e-05
-1.65047e-05
2.79207e-05
-9.20114e-06
2.73968e-05
-5.19527e-06
2.68001e-05
-2.71204e-06
2.65453e-05
-4.42873e-07
2.66251e-05
4.8953e-07
2.65772e-05
-1.40241e-07
2.6544e-05
-8.7285e-08
2.62312e-05
-1.14603e-06
-1.3615e-06
2.56327e-05
2.58183e-05
-1.7323e-05
2.43707e-05
-7.75357e-06
2.26903e-05
-3.51481e-06
2.15584e-05
-1.58013e-06
2.12671e-05
-1.51605e-07
2.14215e-05
3.35152e-07
2.13502e-05
-6.8982e-08
2.13266e-05
-6.36277e-08
2.08431e-05
-6.62592e-07
-6.47573e-07
2.01292e-05
2.116e-05
-1.3483e-05
1.76627e-05
-4.25629e-06
1.55376e-05
-1.38969e-06
1.44624e-05
-5.04913e-07
1.43104e-05
3.10382e-10
1.45019e-05
1.43692e-07
1.44487e-05
-1.58157e-08
1.44135e-05
-2.83917e-08
1.39508e-05
-1.99934e-07
-1.54146e-07
1.34574e-05
1.1517e-05
7.26074e-06
5.87105e-06
5.36614e-06
5.36645e-06
5.51014e-06
5.49433e-06
5.46594e-06
5.266e-06
5.11186e-06
7.1426e-06
2.01611e-05
-2.0795e-05
1.60492e-05
2.56509e-05
-3.45576e-05
2.28769e-05
-1.50286e-05
8.20092e-06
2.54417e-05
-3.92641e-05
3.66993e-05
2.55213e-05
-4.09356e-05
4.0856e-05
2.1952e-05
-3.4814e-05
3.83833e-05
1.98188e-05
-3.08524e-05
3.29856e-05
1.84084e-05
-2.48683e-05
2.62787e-05
1.58748e-05
-2.03555e-05
2.28891e-05
1.44661e-05
-1.81115e-05
1.95202e-05
1.4367e-05
-1.50828e-05
1.51818e-05
1.43406e-05
-1.1745e-05
1.17714e-05
1.40698e-05
-9.28883e-06
9.55962e-06
1.37629e-05
-7.611e-06
7.9179e-06
1.35396e-05
-6.29933e-06
6.52269e-06
1.33952e-05
-5.1863e-06
5.33072e-06
1.32996e-05
-4.24541e-06
4.34094e-06
1.32333e-05
-3.46537e-06
3.53172e-06
1.31858e-05
-2.82558e-06
2.87302e-06
1.31515e-05
-2.30285e-06
2.33719e-06
1.31265e-05
-1.87628e-06
1.90127e-06
1.31083e-05
-1.52833e-06
1.54659e-06
1.30949e-05
-1.24458e-06
1.25798e-06
1.3085e-05
-1.01324e-06
1.02313e-06
1.30776e-05
-8.24708e-07
8.3204e-07
1.30722e-05
-6.71097e-07
6.76564e-07
1.30681e-05
-5.45973e-07
5.50074e-07
1.3065e-05
-4.44084e-07
4.47178e-07
1.30626e-05
-3.61133e-07
3.63481e-07
1.30608e-05
-2.93617e-07
2.95409e-07
1.30595e-05
-2.38674e-07
2.4005e-07
1.30584e-05
-1.93967e-07
1.9503e-07
1.30576e-05
-1.57603e-07
1.58427e-07
1.30569e-05
-1.28015e-07
1.28659e-07
1.30564e-05
-1.03951e-07
1.04456e-07
1.3056e-05
-8.43807e-08
8.47761e-08
1.30557e-05
-6.84491e-08
6.87626e-08
1.30555e-05
-5.5489e-08
5.5738e-08
1.30553e-05
-4.49453e-08
4.51416e-08
1.30551e-05
-3.63483e-08
3.65041e-08
1.3055e-05
-2.93293e-08
2.94546e-08
1.30549e-05
-2.35948e-08
2.36949e-08
1.30548e-05
-1.88962e-08
1.89753e-08
1.30548e-05
-1.50268e-08
1.5089e-08
1.30547e-05
-1.18198e-08
1.18684e-08
1.30547e-05
-9.13825e-09
9.1757e-09
1.30546e-05
-6.86712e-09
6.89515e-09
1.30546e-05
-4.90924e-09
4.92936e-09
1.30546e-05
-3.18175e-09
3.19516e-09
1.30546e-05
-1.61323e-09
1.62091e-09
1.30546e-05
-1.43812e-10
1.46092e-10
1.30546e-05
1.30979e-09
-1.31228e-09
1.30546e-05
2.78113e-09
-2.78836e-09
1.30546e-05
4.33435e-09
-4.34638e-09
1.30546e-05
6.02972e-09
-6.04668e-09
1.30547e-05
7.93236e-09
-7.95501e-09
1.30547e-05
1.01141e-08
-1.01433e-08
1.30547e-05
1.26564e-08
-1.26937e-08
1.30548e-05
1.56536e-08
-1.57003e-08
1.30548e-05
1.92161e-08
-1.9274e-08
1.30549e-05
2.34748e-08
-2.35462e-08
1.3055e-05
2.85861e-08
-2.86738e-08
1.30551e-05
3.47376e-08
-3.48451e-08
1.30552e-05
4.21548e-08
-4.22861e-08
1.30554e-05
5.11088e-08
-5.12689e-08
1.30556e-05
6.19274e-08
-6.21225e-08
1.30558e-05
7.5006e-08
-7.52438e-08
1.30561e-05
9.08232e-08
-9.11131e-08
1.30565e-05
1.09957e-07
-1.1031e-07
1.30569e-05
1.33107e-07
-1.33539e-07
1.30574e-05
1.6112e-07
-1.61649e-07
1.30581e-05
1.95024e-07
-1.95673e-07
1.30589e-05
2.36058e-07
-2.36857e-07
1.30599e-05
2.85737e-07
-2.86724e-07
1.30611e-05
3.45877e-07
-3.471e-07
1.30626e-05
4.18753e-07
-4.20274e-07
1.30645e-05
5.06926e-07
-5.08839e-07
1.30669e-05
6.14217e-07
-6.16586e-07
1.307e-05
7.43197e-07
-7.46345e-07
1.30736e-05
9.03448e-07
-9.06973e-07
1.30797e-05
1.08856e-06
-1.09466e-06
1.30828e-05
1.34167e-06
-1.34483e-06
1.31002e-05
1.58263e-06
-1.59999e-06
1.30865e-05
2.05302e-06
-2.03936e-06
1.31559e-05
2.24192e-06
-2.31132e-06
1.30234e-05
3.36975e-06
-3.23726e-06
1.32934e-05
2.99902e-06
-3.26902e-06
1.26814e-05
5.93222e-06
-5.32017e-06
1.33667e-05
3.77831e-06
-4.46365e-06
1.21031e-05
9.37229e-06
-8.10864e-06
1.29176e-05
4.9557e-06
-5.77023e-06
1.17147e-05
1.17211e-05
-1.05181e-05
1.30128e-05
6.78617e-06
-8.08431e-06
1.14866e-05
1.41825e-05
-1.26563e-05
1.27206e-05
1.18903e-05
-1.31243e-05
1.12574e-05
2.07948e-05
-1.93316e-05
1.33868e-05
1.78048e-05
-1.99342e-05
1.24135e-05
3.13246e-05
-3.03513e-05
1.34909e-05
3.11121e-05
-3.21895e-05
6.18143e-05
-6.00548e-05
1.17314e-05
7.53335e-06
1.57944e-05
2.33694e-05
9.81485e-06
2.84427e-05
-2.01019e-05
2.61774e-05
-3.69988e-05
2.47704e-05
-3.95285e-05
2.2111e-05
-3.21546e-05
1.9329e-05
-2.80704e-05
1.89306e-05
-2.44699e-05
1.77045e-05
-1.91294e-05
1.55913e-05
-1.59983e-05
1.4511e-05
-1.40025e-05
1.4299e-05
-1.15329e-05
1.4183e-05
-9.17282e-06
1.39716e-05
-7.39967e-06
1.37484e-05
-6.07611e-06
1.35703e-05
-5.00815e-06
1.34406e-05
-4.11575e-06
1.33469e-05
-3.37167e-06
1.3278e-05
-2.7567e-06
1.32266e-05
-2.25139e-06
1.31877e-05
-1.83743e-06
1.31582e-05
-1.49878e-06
1.31355e-05
-1.22196e-06
1.31181e-05
-9.95835e-07
1.31047e-05
-8.11237e-07
1.30942e-05
-6.60621e-07
1.3086e-05
-5.37787e-07
1.30796e-05
-4.37661e-07
1.30745e-05
-3.56072e-07
1.30705e-05
-2.89614e-07
1.30673e-05
-2.35498e-07
1.30648e-05
-1.91438e-07
1.30628e-05
-1.55585e-07
1.30612e-05
-1.26401e-07
1.30599e-05
-1.02657e-07
1.30588e-05
-8.33421e-08
1.3058e-05
-6.76141e-08
1.30573e-05
-5.48171e-08
1.30568e-05
-4.44049e-08
1.30564e-05
-3.59134e-08
1.3056e-05
-2.89786e-08
1.30557e-05
-2.3313e-08
1.30555e-05
-1.86711e-08
1.30553e-05
-1.48479e-08
1.30552e-05
-1.16786e-08
1.30551e-05
-9.02823e-09
1.3055e-05
-6.78345e-09
1.30549e-05
-4.84806e-09
1.30549e-05
-3.14003e-09
1.30549e-05
-1.58872e-09
1.30548e-05
-1.34786e-10
1.30548e-05
1.30368e-09
1.30549e-05
2.76034e-09
1.30549e-05
4.29838e-09
1.3055e-05
5.97769e-09
1.3055e-05
7.86229e-09
1.30551e-05
1.00234e-08
1.30552e-05
1.25417e-08
1.30554e-05
1.55105e-08
1.30556e-05
1.90392e-08
1.30558e-05
2.32576e-08
1.3056e-05
2.83205e-08
1.30564e-05
3.44139e-08
1.30568e-05
4.17608e-08
1.30572e-05
5.06299e-08
1.30578e-05
6.13458e-08
1.30585e-05
7.43001e-08
1.30594e-05
8.99663e-08
1.30604e-05
1.08916e-07
1.30617e-05
1.31843e-07
1.30632e-05
1.59584e-07
1.30651e-05
1.93155e-07
1.30674e-05
2.33782e-07
1.30701e-05
2.82961e-07
1.30735e-05
3.42485e-07
1.30777e-05
4.14596e-07
1.30828e-05
5.01819e-07
1.30891e-05
6.07932e-07
1.3097e-05
7.35326e-07
1.31064e-05
8.94011e-07
1.31196e-05
1.07531e-06
1.31318e-05
1.32949e-06
1.31614e-05
1.553e-06
1.31608e-05
2.05364e-06
1.32596e-05
2.14315e-06
1.31381e-05
3.49121e-06
1.35096e-05
2.62751e-06
1.2792e-05
6.64984e-06
1.39254e-05
2.64489e-06
1.20369e-05
1.12608e-05
1.38304e-05
3.16223e-06
1.19749e-05
1.35766e-05
1.35734e-05
5.18762e-06
1.22705e-05
1.54855e-05
1.39081e-05
1.02527e-05
1.29902e-05
2.17127e-05
1.51265e-05
1.56685e-05
1.32623e-05
3.31889e-05
1.69462e-05
2.74281e-05
6.13695e-05
1.7391e-05
1.93857e-05
8.72275e-06
3.20313e-05
-2.83074e-06
3.39946e-05
-2.20652e-05
2.82173e-05
-3.12215e-05
2.43008e-05
-3.56121e-05
2.25284e-05
-3.03822e-05
1.91375e-05
-2.46795e-05
1.76942e-05
-2.30266e-05
1.7971e-05
-1.94062e-05
1.69948e-05
-1.5022e-05
1.54483e-05
-1.2456e-05
1.4582e-05
-1.06666e-05
1.42706e-05
-8.86143e-06
1.409e-05
-7.21904e-06
1.39026e-05
-5.88873e-06
1.37226e-05
-4.82813e-06
1.35726e-05
-3.96572e-06
1.3456e-05
-3.25512e-06
1.33672e-05
-2.66792e-06
1.32995e-05
-2.1836e-06
1.32473e-05
-1.78525e-06
1.32068e-05
-1.45833e-06
1.31753e-05
-1.19042e-06
1.31506e-05
-9.71127e-07
1.31311e-05
-7.91794e-07
1.31158e-05
-6.45261e-07
1.31036e-05
-5.25612e-07
1.30939e-05
-4.27979e-07
1.30862e-05
-3.48351e-07
1.308e-05
-2.83441e-07
1.30751e-05
-2.30552e-07
1.30711e-05
-1.87469e-07
1.30679e-05
-1.52393e-07
1.30653e-05
-1.23831e-07
1.30633e-05
-1.00585e-07
1.30616e-05
-8.167e-08
1.30603e-05
-6.62653e-08
1.30592e-05
-5.3727e-08
1.30583e-05
-4.35241e-08
1.30576e-05
-3.52031e-08
1.3057e-05
-2.8406e-08
1.30565e-05
-2.28519e-08
1.30562e-05
-1.83014e-08
1.30559e-05
-1.45533e-08
1.30556e-05
-1.14456e-08
1.30555e-05
-8.84652e-09
1.30553e-05
-6.64501e-09
1.30552e-05
-4.74655e-09
1.30551e-05
-3.07047e-09
1.30551e-05
-1.54747e-09
1.30551e-05
-1.19528e-10
1.30551e-05
1.29398e-09
1.30551e-05
2.72607e-09
1.30552e-05
4.23872e-09
1.30553e-05
5.89081e-09
1.30554e-05
7.7452e-09
1.30556e-05
9.87195e-09
1.30557e-05
1.23501e-08
1.3056e-05
1.52718e-08
1.30563e-05
1.87445e-08
1.30566e-05
2.28961e-08
1.30571e-05
2.78789e-08
1.30576e-05
3.38758e-08
1.30583e-05
4.11064e-08
1.30591e-05
4.98353e-08
1.306e-05
6.03817e-08
1.30612e-05
7.31306e-08
1.30626e-05
8.85478e-08
1.30643e-05
1.07196e-07
1.30664e-05
1.29756e-07
1.3069e-05
1.57051e-07
1.3072e-05
1.90079e-07
1.30758e-05
2.30045e-07
1.30803e-05
2.78413e-07
1.30859e-05
3.36948e-07
1.30926e-05
4.07833e-07
1.31009e-05
4.93562e-07
1.3111e-05
5.97768e-07
1.31235e-05
7.22851e-07
1.31389e-05
8.78604e-07
1.31588e-05
1.05543e-06
1.31806e-05
1.30772e-06
1.3221e-05
1.51259e-06
1.32343e-05
2.04031e-06
1.33635e-05
2.01402e-06
1.32599e-05
3.59477e-06
1.37065e-05
2.18092e-06
1.30496e-05
7.30669e-06
1.42325e-05
1.46201e-06
1.23777e-05
1.31156e-05
1.45764e-05
9.63497e-07
1.24599e-05
1.56931e-05
1.41771e-05
3.47041e-06
1.30815e-05
1.65812e-05
1.55074e-05
7.82674e-06
1.41966e-05
2.30235e-05
1.74406e-05
1.24245e-05
1.60835e-05
3.45459e-05
2.11394e-05
2.23722e-05
6.04652e-05
2.20437e-05
3.34648e-05
1.85162e-06
3.79421e-05
-7.30804e-06
3.55601e-05
-1.96832e-05
2.97213e-05
-2.53826e-05
2.40064e-05
-2.98972e-05
2.21734e-05
-2.85492e-05
1.99026e-05
-2.24087e-05
1.69664e-05
-2.00904e-05
1.66307e-05
-1.90705e-05
1.70982e-05
-1.54895e-05
1.64464e-05
-1.18042e-05
1.53672e-05
-9.58748e-06
1.4649e-05
-8.14321e-06
1.42785e-05
-6.8485e-06
1.40459e-05
-5.65611e-06
1.38555e-05
-4.63781e-06
1.36924e-05
-3.80261e-06
1.35585e-05
-3.12123e-06
1.34525e-05
-2.56185e-06
1.33695e-05
-2.10069e-06
1.33048e-05
-1.72046e-06
1.32539e-05
-1.40748e-06
1.32138e-05
-1.15034e-06
1.31821e-05
-9.39398e-07
1.31569e-05
-7.6659e-07
1.31368e-05
-6.25179e-07
1.31208e-05
-5.09569e-07
1.31079e-05
-4.15132e-07
1.30976e-05
-3.38043e-07
1.30893e-05
-2.75155e-07
1.30827e-05
-2.23882e-07
1.30773e-05
-1.82092e-07
1.30729e-05
-1.48053e-07
1.30694e-05
-1.20327e-07
1.30666e-05
-9.7751e-08
1.30643e-05
-7.93783e-08
1.30625e-05
-6.44134e-08
1.3061e-05
-5.22279e-08
1.30597e-05
-4.23104e-08
1.30588e-05
-3.4223e-08
1.3058e-05
-2.76154e-08
1.30573e-05
-2.22149e-08
1.30568e-05
-1.77901e-08
1.30564e-05
-1.41455e-08
1.30561e-05
-1.1123e-08
1.30558e-05
-8.59466e-09
1.30557e-05
-6.45292e-09
1.30555e-05
-4.60555e-09
1.30554e-05
-2.97369e-09
1.30554e-05
-1.49004e-09
1.30553e-05
-9.81406e-11
1.30553e-05
1.28066e-09
1.30554e-05
2.67844e-09
1.30555e-05
4.15563e-09
1.30556e-05
5.76964e-09
1.30558e-05
7.58185e-09
1.3056e-05
9.66057e-09
1.30562e-05
1.20829e-08
1.30566e-05
1.49389e-08
1.3057e-05
1.83338e-08
1.30575e-05
2.23926e-08
1.30581e-05
2.72641e-08
1.30589e-05
3.31269e-08
1.30598e-05
4.0196e-08
1.30609e-05
4.873e-08
1.30622e-05
5.90409e-08
1.30638e-05
7.15048e-08
1.30658e-05
8.65769e-08
1.30682e-05
1.04807e-07
1.30711e-05
1.26859e-07
1.30746e-05
1.53539e-07
1.30789e-05
1.85817e-07
1.3084e-05
2.24872e-07
1.30903e-05
2.72127e-07
1.3098e-05
3.29305e-07
1.31073e-05
3.98511e-07
1.31186e-05
4.82221e-07
1.31326e-05
5.83789e-07
1.31495e-05
7.05942e-07
1.3171e-05
8.57143e-07
1.31966e-05
1.02983e-06
1.32297e-05
1.2746e-06
1.32755e-05
1.46682e-06
1.33114e-05
2.00439e-06
1.34593e-05
1.86608e-06
1.33753e-05
3.6788e-06
1.39838e-05
1.5724e-06
1.32678e-05
8.02273e-06
1.4751e-05
-2.1256e-08
1.27489e-05
1.51178e-05
1.53976e-05
-1.68515e-06
1.2603e-05
1.84876e-05
1.55075e-05
5.65942e-07
1.37495e-05
1.83391e-05
1.5387e-05
6.18932e-06
1.41627e-05
2.42478e-05
1.6491e-05
1.00962e-05
1.61684e-05
3.48686e-05
2.32277e-05
1.53129e-05
5.79166e-05
2.57763e-05
3.62573e-05
-6.5469e-07
3.58502e-05
-6.90095e-06
3.41182e-05
-1.79512e-05
3.15529e-05
-2.28174e-05
2.56606e-05
-2.40049e-05
2.20519e-05
-2.49405e-05
2.11039e-05
-2.14607e-05
1.85236e-05
-1.75101e-05
1.62895e-05
-1.68364e-05
1.62077e-05
-1.54077e-05
1.64668e-05
-1.20633e-05
1.59852e-05
-9.10586e-06
1.52203e-05
-7.37837e-06
1.46246e-05
-6.25273e-06
1.42454e-05
-5.27695e-06
1.3993e-05
-4.38539e-06
1.38039e-05
-3.6135e-06
1.36532e-05
-2.9706e-06
1.35324e-05
-2.441e-06
1.34361e-05
-2.00441e-06
1.33597e-05
-1.64406e-06
1.32991e-05
-1.34686e-06
1.32509e-05
-1.10214e-06
1.32125e-05
-9.00969e-07
1.31817e-05
-7.3587e-07
1.31571e-05
-6.00564e-07
1.31374e-05
-4.89806e-07
1.31215e-05
-3.99237e-07
1.31087e-05
-3.2524e-07
1.30983e-05
-2.64829e-07
1.309e-05
-2.15544e-07
1.30833e-05
-1.75354e-07
1.30778e-05
-1.42602e-07
1.30734e-05
-1.15917e-07
1.30698e-05
-9.41801e-08
1.30669e-05
-7.64854e-08
1.30646e-05
-6.20717e-08
1.30627e-05
-5.03314e-08
1.30612e-05
-4.07741e-08
1.30599e-05
-3.29809e-08
1.30589e-05
-2.66129e-08
1.30581e-05
-2.14068e-08
1.30575e-05
-1.71411e-08
1.3057e-05
-1.36275e-08
1.30565e-05
-1.0713e-08
1.30562e-05
-8.27466e-09
1.3056e-05
-6.20878e-09
1.30558e-05
-4.42623e-09
1.30557e-05
-2.85059e-09
1.30556e-05
-1.41694e-09
1.30556e-05
-7.10489e-11
1.30556e-05
1.26366e-09
1.30557e-05
2.61763e-09
1.30558e-05
4.04953e-09
1.30559e-05
5.61489e-09
1.30561e-05
7.37324e-09
1.30564e-05
9.39063e-09
1.30567e-05
1.17418e-08
1.30572e-05
1.45141e-08
1.30577e-05
1.78098e-08
1.30583e-05
2.17502e-08
1.30591e-05
2.64797e-08
1.30601e-05
3.21717e-08
1.30612e-05
3.90351e-08
1.30626e-05
4.7321e-08
1.30643e-05
5.7332e-08
1.30664e-05
6.94332e-08
1.30689e-05
8.4066e-08
1.3072e-05
1.01764e-07
1.30757e-05
1.23172e-07
1.30801e-05
1.49069e-07
1.30855e-05
1.80397e-07
1.30921e-05
2.18296e-07
1.31001e-05
2.64142e-07
1.31098e-05
3.19609e-07
1.31216e-05
3.86696e-07
1.3136e-05
4.67878e-07
1.31536e-05
5.66098e-07
1.31748e-05
6.84759e-07
1.32023e-05
8.29668e-07
1.32327e-05
9.99414e-07
1.32793e-05
1.228e-06
1.33213e-05
1.42487e-06
1.3403e-05
1.92266e-06
1.35034e-05
1.76571e-06
1.35678e-05
3.61441e-06
1.41512e-05
9.88929e-07
1.37285e-05
8.44541e-06
1.56638e-05
-1.95647e-06
1.42321e-05
1.65494e-05
1.70853e-05
-4.53832e-06
1.62942e-05
1.92787e-05
1.9913e-05
-3.05289e-06
1.90506e-05
1.92016e-05
2.1022e-05
4.21791e-06
1.86529e-05
2.66168e-05
2.21838e-05
6.5653e-06
1.83599e-05
3.86925e-05
2.35212e-05
1.01515e-05
5.40951e-05
2.73428e-05
3.60477e-05
-2.64079e-06
3.59155e-05
-6.76878e-06
3.26448e-05
-1.46806e-05
3.08103e-05
-2.09829e-05
2.77222e-05
-2.09167e-05
2.33629e-05
-2.05813e-05
2.19746e-05
-2.00724e-05
2.10831e-05
-1.66185e-05
1.84204e-05
-1.41737e-05
1.64061e-05
-1.33935e-05
1.59876e-05
-1.16447e-05
1.5944e-05
-9.0623e-06
1.55826e-05
-7.01702e-06
1.50337e-05
-5.70374e-06
1.45409e-05
-4.78415e-06
1.41819e-05
-4.02646e-06
1.3931e-05
-3.36257e-06
1.37483e-05
-2.78786e-06
1.36086e-05
-2.30135e-06
1.34989e-05
-1.89468e-06
1.34116e-05
-1.55683e-06
1.3342e-05
-1.27719e-06
1.32862e-05
-1.04636e-06
1.32415e-05
-8.56233e-07
1.32055e-05
-6.99928e-07
1.31766e-05
-5.71641e-07
1.31533e-05
-4.66499e-07
1.31345e-05
-3.80431e-07
1.31193e-05
-3.1005e-07
1.3107e-05
-2.52548e-07
1.30971e-05
-2.05607e-07
1.3089e-05
-1.67309e-07
1.30825e-05
-1.36085e-07
1.30772e-05
-1.10636e-07
1.3073e-05
-8.98989e-08
1.30695e-05
-7.30142e-08
1.30667e-05
-5.92598e-08
1.30644e-05
-4.80527e-08
1.30625e-05
-3.89267e-08
1.3061e-05
-3.14859e-08
1.30598e-05
-2.54061e-08
1.30589e-05
-2.04341e-08
1.30581e-05
-1.63597e-08
1.30575e-05
-1.30034e-08
1.3057e-05
-1.0219e-08
1.30566e-05
-7.88894e-09
1.30563e-05
-5.91452e-09
1.30561e-05
-4.2101e-09
1.30559e-05
-2.70229e-09
1.30558e-05
-1.329e-09
1.30558e-05
-3.82999e-11
1.30558e-05
1.24281e-09
1.30559e-05
2.54388e-09
1.3056e-05
3.92099e-09
1.30562e-05
5.42746e-09
1.30565e-05
7.12063e-09
1.30568e-05
9.06379e-09
1.30572e-05
1.13288e-08
1.30577e-05
1.39999e-08
1.30584e-05
1.71757e-08
1.30591e-05
2.0973e-08
1.30601e-05
2.55309e-08
1.30612e-05
3.10163e-08
1.30626e-05
3.7631e-08
1.30643e-05
4.56171e-08
1.30664e-05
5.52658e-08
1.30689e-05
6.69286e-08
1.3072e-05
8.10311e-08
1.30756e-05
9.80869e-08
1.30801e-05
1.18717e-07
1.30855e-05
1.4367e-07
1.3092e-05
1.73852e-07
1.31e-05
2.10361e-07
1.31096e-05
2.54514e-07
1.31213e-05
3.07923e-07
1.31355e-05
3.72473e-07
1.31527e-05
4.50628e-07
1.3174e-05
5.44847e-07
1.31993e-05
6.59414e-07
1.32325e-05
7.96546e-07
1.32676e-05
9.64254e-07
1.33273e-05
1.16836e-06
1.33622e-05
1.38996e-06
1.35009e-05
1.78398e-06
1.34956e-05
1.77101e-06
1.38328e-05
3.27714e-06
1.39558e-05
8.65992e-07
1.44046e-05
7.99655e-06
1.58471e-05
-3.39891e-06
1.54406e-05
1.69558e-05
1.77295e-05
-6.82719e-06
1.77277e-05
1.92805e-05
2.14763e-05
-6.80145e-06
1.97388e-05
2.09391e-05
2.42556e-05
-2.98882e-07
2.12767e-05
2.95957e-05
2.69287e-05
9.13345e-07
2.37734e-05
4.18478e-05
2.60126e-05
7.91226e-06
5.0546e-05
2.95617e-05
3.48718e-05
-3.00048e-06
3.34827e-05
-5.37968e-06
3.05037e-05
-1.17015e-05
2.93194e-05
-1.97986e-05
2.83787e-05
-1.99761e-05
2.43018e-05
-1.65044e-05
2.10103e-05
-1.67808e-05
2.09561e-05
-1.65643e-05
2.0443e-05
-1.36607e-05
1.81391e-05
-1.10896e-05
1.61008e-05
-9.60646e-06
1.53124e-05
-8.27395e-06
1.51352e-05
-6.83983e-06
1.49537e-05
-5.52223e-06
1.46548e-05
-4.48518e-06
1.43335e-05
-3.7052e-06
1.40605e-05
-3.08956e-06
1.38484e-05
-2.5758e-06
1.36862e-05
-2.13907e-06
1.35604e-05
-1.76895e-06
1.34615e-05
-1.45788e-06
1.33827e-05
-1.19845e-06
1.33197e-05
-9.83281e-07
1.32689e-05
-8.05515e-07
1.32281e-05
-6.59057e-07
1.31951e-05
-5.38654e-07
1.31684e-05
-4.39843e-07
1.31469e-05
-3.5887e-07
1.31294e-05
-2.92598e-07
1.31153e-05
-2.38412e-07
1.31038e-05
-1.94151e-07
1.30945e-05
-1.58021e-07
1.3087e-05
-1.28551e-07
1.30809e-05
-1.04525e-07
1.30759e-05
-8.49426e-08
1.30719e-05
-6.89923e-08
1.30686e-05
-5.59977e-08
1.3066e-05
-4.54084e-08
1.30639e-05
-3.67831e-08
1.30621e-05
-2.97505e-08
1.30607e-05
-2.40044e-08
1.30596e-05
-1.93042e-08
1.30587e-05
-1.54517e-08
1.3058e-05
-1.2278e-08
1.30574e-05
-9.64464e-09
1.30569e-05
-7.44063e-09
1.30566e-05
-5.57254e-09
1.30563e-05
-3.95895e-09
1.30562e-05
-2.53008e-09
1.30561e-05
-1.22721e-09
1.3056e-05
-2.49498e-13
1.3056e-05
1.21797e-09
1.30561e-05
2.45749e-09
1.30563e-05
3.77063e-09
1.30565e-05
5.20845e-09
1.30568e-05
6.82559e-09
1.30572e-05
8.68207e-09
1.30577e-05
1.08465e-08
1.30583e-05
1.33996e-08
1.3059e-05
1.64355e-08
1.30599e-05
2.00658e-08
1.3061e-05
2.44233e-08
1.30624e-05
2.96679e-08
1.3064e-05
3.59926e-08
1.3066e-05
4.36289e-08
1.30684e-05
5.2855e-08
1.30713e-05
6.40068e-08
1.30749e-05
7.74911e-08
1.30792e-05
9.37986e-08
1.30844e-05
1.13522e-07
1.30906e-05
1.37376e-07
1.30983e-05
1.66226e-07
1.31075e-05
2.01118e-07
1.31187e-05
2.43303e-07
1.31323e-05
2.94325e-07
1.31489e-05
3.5594e-07
1.31689e-05
4.30581e-07
1.31935e-05
5.20227e-07
1.3223e-05
6.29983e-07
1.32611e-05
7.58422e-07
1.33018e-05
9.23556e-07
1.33708e-05
1.09935e-06
1.3406e-05
1.35474e-06
1.35823e-05
1.60772e-06
1.35006e-05
1.85271e-06
1.40333e-05
2.74437e-06
1.36641e-05
1.23524e-06
1.47051e-05
6.95558e-06
1.53494e-05
-4.04322e-06
1.46889e-05
1.76163e-05
1.80986e-05
-1.02368e-05
1.55528e-05
2.18263e-05
1.90795e-05
-1.03282e-05
1.62481e-05
2.37705e-05
2.03303e-05
-4.38109e-06
1.78955e-05
3.20304e-05
2.2913e-05
-4.1041e-06
2.34796e-05
4.12812e-05
2.4916e-05
6.4758e-06
4.53114e-05
3.01506e-05
3.23753e-05
-3.22477e-06
3.43826e-05
-7.38695e-06
3.28748e-05
-1.01937e-05
2.67625e-05
-1.36863e-05
2.42145e-05
-1.74281e-05
2.42013e-05
-1.64913e-05
2.18247e-05
-1.44042e-05
1.96534e-05
-1.4393e-05
1.96758e-05
-1.36831e-05
1.94546e-05
-1.08683e-05
1.77517e-05
-7.90361e-06
1.59471e-05
-6.46933e-06
1.49648e-05
-5.85756e-06
1.45791e-05
-5.13649e-06
1.43958e-05
-4.30192e-06
1.42336e-05
-3.54296e-06
1.40606e-05
-2.91654e-06
1.38911e-05
-2.40633e-06
1.37396e-05
-1.98753e-06
1.36114e-05
-1.64077e-06
1.35059e-05
-1.35243e-06
1.34202e-05
-1.11271e-06
1.33508e-05
-9.13868e-07
1.32946e-05
-7.49369e-07
1.32492e-05
-6.13632e-07
1.32124e-05
-5.01881e-07
1.31827e-05
-4.10057e-07
1.31585e-05
-3.34729e-07
1.31389e-05
-2.73022e-07
1.31231e-05
-2.22533e-07
1.31102e-05
-1.81265e-07
1.30997e-05
-1.47563e-07
1.30912e-05
-1.20062e-07
1.30843e-05
-9.76331e-08
1.30787e-05
-7.93476e-08
1.30742e-05
-6.44497e-08
1.30705e-05
-5.23121e-08
1.30675e-05
-4.24199e-08
1.30651e-05
-3.43595e-08
1.30631e-05
-2.77872e-08
1.30615e-05
-2.24181e-08
1.30603e-05
-1.80255e-08
1.30592e-05
-1.44243e-08
1.30584e-05
-1.1457e-08
1.30578e-05
-8.99445e-09
1.30573e-05
-6.93314e-09
1.30569e-05
-5.18554e-09
1.30566e-05
-3.67489e-09
1.30564e-05
-2.33545e-09
1.30563e-05
-1.1124e-09
1.30562e-05
4.23017e-11
1.30563e-05
1.18919e-09
1.30564e-05
2.35879e-09
1.30565e-05
3.5993e-09
1.30568e-05
4.95915e-09
1.30571e-05
6.48988e-09
1.30576e-05
8.2478e-09
1.30581e-05
1.02979e-08
1.30588e-05
1.27168e-08
1.30596e-05
1.55938e-08
1.30607e-05
1.90342e-08
1.30619e-05
2.31641e-08
1.30635e-05
2.81349e-08
1.30653e-05
3.41299e-08
1.30676e-05
4.1369e-08
1.30703e-05
5.01149e-08
1.30736e-05
6.06863e-08
1.30777e-05
7.34685e-08
1.30825e-05
8.89262e-08
1.30884e-05
1.07621e-07
1.30956e-05
1.30228e-07
1.31042e-05
1.57567e-07
1.31147e-05
1.90626e-07
1.31274e-05
2.30584e-07
1.31429e-05
2.78903e-07
1.31616e-05
3.37211e-07
1.31843e-05
4.07866e-07
1.32121e-05
4.92446e-07
1.32455e-05
5.96575e-07
1.32879e-05
7.15996e-07
1.33351e-05
8.76387e-07
1.34087e-05
1.02572e-06
1.34558e-05
1.30771e-06
1.36369e-05
1.42662e-06
1.35577e-05
1.93185e-06
1.41291e-05
2.173e-06
1.35626e-05
1.80175e-06
1.47616e-05
5.75658e-06
1.47529e-05
-4.03458e-06
1.38769e-05
1.84923e-05
1.8367e-05
-1.4727e-05
1.43237e-05
2.58696e-05
1.73397e-05
-1.33442e-05
1.57354e-05
2.53748e-05
1.91096e-05
-7.75531e-06
1.67317e-05
3.44084e-05
2.0354e-05
-7.72647e-06
2.2677e-05
3.89582e-05
2.34328e-05
5.72008e-06
3.90707e-05
2.96735e-05
3.36034e-05
-3.8104e-06
3.31962e-05
-6.9798e-06
3.1159e-05
-8.15647e-06
2.83951e-05
-1.09224e-05
2.66673e-05
-1.57003e-05
2.64906e-05
-1.63146e-05
2.42854e-05
-1.2199e-05
1.94044e-05
-9.51199e-06
1.62915e-05
-1.05702e-05
1.6474e-05
-1.10508e-05
1.76683e-05
-9.09787e-06
1.79219e-05
-6.72293e-06
1.71432e-05
-5.07893e-06
1.60752e-05
-4.0685e-06
1.5211e-05
-3.43764e-06
1.46334e-05
-2.96542e-06
1.42585e-05
-2.54166e-06
1.40014e-05
-2.14921e-06
1.3812e-05
-1.79815e-06
1.36654e-05
-1.49417e-06
1.3549e-05
-1.23597e-06
1.34554e-05
-1.0191e-06
1.33797e-05
-8.38236e-07
1.33185e-05
-6.88128e-07
1.32688e-05
-5.63987e-07
1.32286e-05
-4.61611e-07
1.31959e-05
-3.77375e-07
1.31694e-05
-3.08197e-07
1.31478e-05
-2.51477e-07
1.31303e-05
-2.05033e-07
1.31161e-05
-1.6705e-07
1.31045e-05
-1.36016e-07
1.30952e-05
-1.1068e-07
1.30875e-05
-9.00115e-08
1.30814e-05
-7.31581e-08
1.30763e-05
-5.94222e-08
1.30722e-05
-4.82301e-08
1.30689e-05
-3.91088e-08
1.30662e-05
-3.16744e-08
1.30641e-05
-2.56119e-08
1.30623e-05
-2.06599e-08
1.30609e-05
-1.6608e-08
1.30598e-05
-1.32852e-08
1.30588e-05
-1.05466e-08
1.30581e-05
-8.27334e-09
1.30576e-05
-6.37046e-09
1.30571e-05
-4.75668e-09
1.30568e-05
-3.36027e-09
1.30566e-05
-2.12008e-09
1.30565e-05
-9.85693e-10
1.30564e-05
8.85421e-11
1.30565e-05
1.1565e-09
1.30566e-05
2.24822e-09
1.30568e-05
3.40786e-09
1.3057e-05
4.681e-09
1.30574e-05
6.11557e-09
1.30579e-05
7.76366e-09
1.30585e-05
9.68645e-09
1.30593e-05
1.1956e-08
1.30602e-05
1.46558e-08
1.30614e-05
1.78848e-08
1.30628e-05
2.1761e-08
1.30645e-05
2.64268e-08
1.30666e-05
3.20548e-08
1.30691e-05
3.88513e-08
1.30721e-05
4.70625e-08
1.30758e-05
5.69877e-08
1.30803e-05
6.89882e-08
1.30857e-05
8.35003e-08
1.30923e-05
1.0105e-07
1.31003e-05
1.22271e-07
1.31099e-05
1.4793e-07
1.31216e-05
1.78952e-07
1.31357e-05
2.16439e-07
1.31529e-05
2.61757e-07
1.31737e-05
3.1641e-07
1.31989e-05
3.82632e-07
1.32296e-05
4.61714e-07
1.32668e-05
5.5937e-07
1.3313e-05
6.6983e-07
1.3367e-05
8.22331e-07
1.34418e-05
9.50935e-07
1.3509e-05
1.24054e-06
1.3668e-05
1.26762e-06
1.36627e-05
1.93718e-06
1.41394e-05
1.69626e-06
1.37023e-05
2.23886e-06
1.47783e-05
4.68061e-06
1.44818e-05
-3.73814e-06
1.37394e-05
1.92347e-05
1.82076e-05
-1.91952e-05
1.41427e-05
2.99346e-05
1.66317e-05
-1.58332e-05
1.66027e-05
2.54038e-05
1.8937e-05
-1.00896e-05
1.75066e-05
3.58389e-05
1.93749e-05
-9.59482e-06
2.31134e-05
3.52197e-05
2.25422e-05
6.29136e-06
3.33638e-05
2.8249e-05
3.17764e-05
-2.38839e-06
2.94293e-05
-4.63265e-06
3.07462e-05
-9.47339e-06
3.15941e-05
-1.17703e-05
2.61575e-05
-1.02637e-05
2.0713e-05
-1.08701e-05
2.16509e-05
-1.31369e-05
2.43076e-05
-1.21688e-05
2.28736e-05
-9.13613e-06
1.86641e-05
-6.84136e-06
1.56288e-05
-6.06259e-06
1.46645e-05
-5.75861e-06
1.46143e-05
-5.02874e-06
1.46799e-05
-4.13409e-06
1.46187e-05
-3.37646e-06
1.44476e-05
-2.79425e-06
1.4237e-05
-2.33109e-06
1.40338e-05
-1.94604e-06
1.38565e-05
-1.62079e-06
1.37081e-05
-1.34583e-06
1.35863e-05
-1.11412e-06
1.34869e-05
-9.19705e-07
1.3406e-05
-7.57363e-07
1.33403e-05
-6.22376e-07
1.32868e-05
-5.10538e-07
1.32434e-05
-4.18162e-07
1.3208e-05
-3.42052e-07
1.31793e-05
-2.79478e-07
1.3156e-05
-2.28127e-07
1.3137e-05
-1.86049e-07
1.31216e-05
-1.51614e-07
1.3109e-05
-1.23466e-07
1.30988e-05
-1.00478e-07
1.30905e-05
-8.17195e-08
1.30838e-05
-6.64196e-08
1.30783e-05
-5.39471e-08
1.30739e-05
-4.37838e-08
1.30702e-05
-3.55012e-08
1.30673e-05
-2.87481e-08
1.30649e-05
-2.32404e-08
1.3063e-05
-1.87427e-08
1.30615e-05
-1.50623e-08
1.30602e-05
-1.20432e-08
1.30592e-05
-9.55383e-09
1.30585e-05
-7.48693e-09
1.30578e-05
-5.75694e-09
1.30574e-05
-4.28934e-09
1.3057e-05
-3.0177e-09
1.30568e-05
-1.88587e-09
1.30567e-05
-8.48303e-10
1.30566e-05
1.37853e-10
1.30567e-05
1.11978e-09