/*--------------------------------*- C++ -*----------------------------------*\
| =========                 |                                                 |
| \\      /  F ield         | OpenFOAM: The Open Source CFD Toolbox           |
|  \\    /   O peration     | Version:  2.4.0                                 |
|   \\  /    A nd           | Web:      www.OpenFOAM.org                      |
|    \\/     M anipulation  |                                                 |
\*---------------------------------------------------------------------------*/
FoamFile
{
    version     2.0;
    format      ascii;
    class       volVectorField;
    location    "0.011";
    object      U;
}
// * * * * * * * * * * * * * * * * * * * * * * * * * * * * * * * * * * * * * //

dimensions      [0 1 -1 0 0 0 0];

internalField   nonuniform List<vector> 
4400
(
(5.40582 0.316286 0)
(3.35539 0.0611425 0)
(2.58988 0.00388441 0)
(2.20483 -0.000322153 0)
(2.1154 -0.00171628 0)
(2.20945 -0.00360224 0)
(2.13068 0.00345841 0)
(2.31075 -0.00152489 0)
(2.11773 -0.00395577 0)
(3.26661 -0.196891 0)
(8.67974 0.853133 0)
(7.63223 0.341481 0)
(6.66439 0.126257 0)
(5.92488 0.0512104 0)
(5.66278 -0.00497222 0)
(5.85788 -0.00406756 0)
(5.58059 -0.00499473 0)
(6.15836 0.00378478 0)
(5.46959 -0.0609928 0)
(7.24265 0.123609 0)
(9.86771 0.927116 0)
(10.1052 0.469004 0)
(9.53914 0.232225 0)
(8.81586 0.118653 0)
(8.43458 0.00309204 0)
(8.67904 -0.00829798 0)
(8.23556 -0.015477 0)
(9.06648 0.00547273 0)
(8.24482 -0.0964775 0)
(9.70449 0.742049 0)
(10.0826 0.789201 0)
(11.2013 0.480496 0)
(11.2818 0.289565 0)
(10.9091 0.182945 0)
(10.5562 -0.00266553 0)
(10.7372 0.0184238 0)
(10.3831 -0.0433917 0)
(11.0455 -0.0064973 0)
(10.46 -0.0290245 0)
(10.4784 1.10682 0)
(10.0254 0.628314 0)
(11.3366 0.41471 0)
(11.9679 0.276137 0)
(11.9886 0.191123 0)
(11.8956 0.0170385 0)
(11.7823 -0.00852115 0)
(11.8078 -0.00995327 0)
(11.983 -0.0143284 0)
(11.6295 0.0160756 0)
(12.0359 0.966979 0)
(9.9969 0.500979 0)
(11.2197 0.337532 0)
(12.0446 0.222397 0)
(12.3232 0.17148 0)
(12.265 -0.00647596 0)
(12.0723 0.0387719 0)
(12.2734 -0.0570647 0)
(12.0849 -0.0105292 0)
(12.0081 0.0727059 0)
(12.6286 0.646415 0)
(9.99796 0.384502 0)
(11.1357 0.266199 0)
(12.0008 0.167891 0)
(12.3247 0.122886 0)
(12.2413 0.0282055 0)
(12.1771 -0.0298109 0)
(12.1182 0.0293831 0)
(12.2803 -0.00818467 0)
(12.0114 -0.0253527 0)
(12.6319 0.525967 0)
(10.0038 0.271647 0)
(11.0845 0.193002 0)
(11.9677 0.110412 0)
(12.255 0.109909 0)
(12.2728 -0.0212117 0)
(12.0612 0.0479789 0)
(12.2179 -0.0271442 0)
(12.2182 -0.0295304 0)
(12.0499 0.0604296 0)
(12.7528 0.306069 0)
(10.0074 0.161309 0)
(11.0553 0.116969 0)
(11.9359 0.0673839 0)
(12.237 0.0557942 0)
(12.2303 0.0161883 0)
(12.081 -0.018268 0)
(12.2003 0.0286059 0)
(12.1989 -0.0051698 0)
(12.1084 -0.0385642 0)
(12.3258 0.313083 0)
(10.0096 0.0526631 0)
(11.0391 0.0424921 0)
(11.9249 0.0143568 0)
(12.2159 0.035798 0)
(12.2309 -0.0264334 0)
(12.0718 0.0323629 0)
(12.1821 -0.00659104 0)
(12.2245 -0.0420739 0)
(12.0579 0.0330703 0)
(12.5838 0.127744 0)
(10.0098 -0.0549426 0)
(11.0387 -0.0346781 0)
(11.9251 -0.0295668 0)
(12.2167 -0.00980843 0)
(12.2286 -0.0097451 0)
(12.0727 -0.0028524 0)
(12.1885 0.0149428 0)
(12.2116 -0.00605746 0)
(12.1162 -0.0541844 0)
(12.335 0.0341279 0)
(10.0082 -0.163432 0)
(11.0526 -0.110119 0)
(11.9407 -0.0792249 0)
(12.2286 -0.0392572 0)
(12.24 -0.0316964 0)
(12.0793 0.0212024 0)
(12.1834 -0.00261653 0)
(12.2163 -0.032782 0)
(12.106 -0.0134477 0)
(12.3448 0.0371218 0)
(10.0048 -0.273613 0)
(11.0815 -0.185749 0)
(11.9707 -0.126937 0)
(12.2556 -0.076858 0)
(12.2598 -0.0320157 0)
(12.0917 0.0111535 0)
(12.1859 0.00414539 0)
(12.2141 -0.0163158 0)
(12.105 -0.0545215 0)
(12.2992 -0.0810168 0)
(10.0001 -0.386393 0)
(11.1282 -0.260216 0)
(12.0158 -0.178177 0)
(12.2953 -0.110646 0)
(12.29 -0.0391557 0)
(12.1084 0.019933 0)
(12.1887 -0.00658436 0)
(12.2136 -0.0175205 0)
(12.1114 -0.0542669 0)
(12.2621 -0.0499162 0)
(9.99968 -0.501821 0)
(11.2105 -0.333556 0)
(12.0607 -0.233499 0)
(12.2993 -0.146728 0)
(12.2813 -0.0419965 0)
(12.0997 0.0248522 0)
(12.17 -0.00686669 0)
(12.1789 -0.0100255 0)
(12.0915 -0.0720614 0)
(12.1569 -0.120061 0)
(10.0258 -0.629438 0)
(11.3342 -0.410803 0)
(11.9706 -0.284791 0)
(11.9851 -0.176428 0)
(11.8956 -0.0436472 0)
(11.7618 0.0294445 0)
(11.8455 -0.00861162 0)
(11.808 -0.00477841 0)
(11.8069 -0.0749269 0)
(11.6329 -0.0965092 0)
(10.0831 -0.78952 0)
(11.1969 -0.478535 0)
(11.2941 -0.296242 0)
(10.873 -0.167416 0)
(10.6339 -0.034448 0)
(10.5559 0.0275453 0)
(10.6561 -0.00787259 0)
(10.554 -0.00307939 0)
(10.6586 -0.0649633 0)
(10.2022 -0.0868008 0)
(9.86607 -0.927281 0)
(10.1061 -0.468192 0)
(9.54133 -0.23512 0)
(8.79491 -0.112706 0)
(8.49872 -0.0150149 0)
(8.48253 0.0217553 0)
(8.57932 -0.00487729 0)
(8.46024 -0.00334246 0)
(8.58839 -0.0463217 0)
(8.00163 -0.0490359 0)
(8.67851 -0.853206 0)
(7.63392 -0.341108 0)
(6.66236 -0.127599 0)
(5.91681 -0.0486595 0)
(5.69536 -0.00166547 0)
(5.7323 0.012554 0)
(5.80803 -0.00168295 0)
(5.72206 -0.00274269 0)
(5.80356 -0.0209966 0)
(5.29386 -0.0203019 0)
(5.40523 -0.316323 0)
(3.35638 -0.0610458 0)
(2.58795 -0.0041495 0)
(2.20333 0.00077652 0)
(2.12409 0.00133025 0)
(2.16846 0.00221688 0)
(2.20677 1.09027e-05 0)
(2.17768 -2.04631e-05 0)
(2.19457 5.69809e-05 0)
(1.99308 0.0140118 0)
(3.4202 3.01811 0)
(2.04318 5.87776 0)
(9.17183 -1.6295 0)
(10.2559 -6.60014 0)
(10.6627 -7.1376 0)
(9.41876 -6.0708 0)
(7.66784 -5.38023 0)
(7.85177 -4.31574 0)
(6.96491 -3.60649 0)
(5.86365 -3.21264 0)
(5.67002 -2.60708 0)
(5.74195 -1.99933 0)
(5.6831 -1.58668 0)
(5.5573 -1.3081 0)
(5.45182 -1.08342 0)
(5.38186 -0.889852 0)
(5.33648 -0.726552 0)
(5.30559 -0.591929 0)
(5.28367 -0.481977 0)
(5.26783 -0.392384 0)
(5.25629 -0.319409 0)
(5.24786 -0.25997 0)
(5.24167 -0.211558 0)
(5.23711 -0.172131 0)
(5.23373 -0.140028 0)
(5.23121 -0.113893 0)
(5.22933 -0.0926196 0)
(5.22791 -0.0753071 0)
(5.22683 -0.0612202 0)
(5.22601 -0.0497598 0)
(5.22538 -0.0404373 0)
(5.2249 -0.0328552 0)
(5.22452 -0.0266894 0)
(5.22423 -0.0216743 0)
(5.224 -0.0175969 0)
(5.22382 -0.0142813 0)
(5.22368 -0.0115829 0)
(5.22357 -0.00938839 0)
(5.22348 -0.00760347 0)
(5.22341 -0.00614833 0)
(5.22335 -0.00496055 0)
(5.22331 -0.00399029 0)
(5.22328 -0.00319546 0)
(5.22325 -0.00254108 0)
(5.22322 -0.00199891 0)
(5.22321 -0.00154577 0)
(5.22319 -0.00116213 0)
(5.22318 -0.00083156 0)
(5.22318 -0.000540015 0)
(5.22317 -0.000275216 0)
(5.22317 -2.62573e-05 0)
(5.22317 0.000217029 0)
(5.22317 0.000464156 0)
(5.22318 0.00072497 0)
(5.22318 0.00100948 0)
(5.22319 0.00132867 0)
(5.2232 0.00169452 0)
(5.22322 0.00212073 0)
(5.22323 0.00262307 0)
(5.22325 0.00322004 0)
(5.22328 0.00393354 0)
(5.22331 0.00478976 0)
(5.22335 0.00582012 0)
(5.2234 0.00706232 0)
(5.22346 0.00856173 0)
(5.22354 0.0103732 0)
(5.22362 0.0125629 0)
(5.22373 0.0152109 0)
(5.22387 0.0184139 0)
(5.22403 0.022289 0)
(5.22423 0.0269778 0)
(5.22447 0.0326524 0)
(5.22477 0.0395203 0)
(5.22515 0.0478349 0)
(5.22562 0.0579001 0)
(5.22618 0.0700984 0)
(5.22695 0.0848557 0)
(5.22778 0.102821 0)
(5.2292 0.12441 0)
(5.2301 0.151261 0)
(5.23354 0.182277 0)
(5.23265 0.224631 0)
(5.24338 0.26546 0)
(5.23193 0.342935 0)
(5.26558 0.379173 0)
(5.21617 0.554994 0)
(5.29188 0.523927 0)
(5.16784 0.938784 0)
(5.23166 0.70573 0)
(5.05982 1.44012 0)
(5.09552 0.932847 0)
(4.72374 1.86587 0)
(5.14637 1.27098 0)
(4.76059 2.2614 0)
(4.93656 2.10532 0)
(4.68649 3.44515 0)
(4.96554 3.20462 0)
(4.84526 5.01349 0)
(6.45247 5.25457 0)
(3.62505 9.93991 0)
(0.0477117 2.8439 0)
(4.82103 3.14596 0)
(12.4198 -2.69003 0)
(12.0256 -6.3371 0)
(10.0302 -7.14 0)
(9.55778 -5.85477 0)
(7.65451 -4.9938 0)
(7.40205 -4.16729 0)
(7.5655 -3.24511 0)
(6.64033 -2.83283 0)
(5.89212 -2.4934 0)
(5.71529 -2.00296 0)
(5.69199 -1.56714 0)
(5.62884 -1.26392 0)
(5.53981 -1.0423 0)
(5.46005 -0.860551 0)
(5.39998 -0.706713 0)
(5.3566 -0.578108 0)
(5.32493 -0.47201 0)
(5.30137 -0.385048 0)
(5.28362 -0.313953 0)
(5.27014 -0.255886 0)
(5.25983 -0.208483 0)
(5.25191 -0.169803 0)
(5.24579 -0.138255 0)
(5.24103 -0.112535 0)
(5.23732 -0.0915738 0)
(5.23442 -0.074498 0)
(5.23213 -0.0605905 0)
(5.23032 -0.0492674 0)
(5.22889 -0.0400516 0)
(5.22775 -0.0325502 0)
(5.22685 -0.0264485 0)
(5.22612 -0.0214834 0)
(5.22554 -0.0174445 0)
(5.22507 -0.0141596 0)
(5.2247 -0.0114856 0)
(5.2244 -0.0093107 0)
(5.22416 -0.00754131 0)
(5.22396 -0.00609846 0)
(5.2238 -0.00492045 0)
(5.22368 -0.00395834 0)
(5.22358 -0.00317026 0)
(5.2235 -0.00252132 0)
(5.22343 -0.0019835 0)
(5.22338 -0.00153387 0)
(5.22334 -0.00115317 0)
(5.22331 -0.000825089 0)
(5.22329 -0.000535665 0)
(5.22328 -0.000272762 0)
(5.22327 -2.54205e-05 0)
(5.22327 0.000216222 0)
(5.22328 0.000461766 0)
(5.22329 0.000720914 0)
(5.22331 0.00100371 0)
(5.22333 0.00132089 0)
(5.22337 0.00168446 0)
(5.22341 0.00210796 0)
(5.22346 0.00260713 0)
(5.22353 0.00320029 0)
(5.22361 0.00390925 0)
(5.22371 0.00476008 0)
(5.22383 0.00578394 0)
(5.22397 0.00701826 0)
(5.22415 0.00850819 0)
(5.22437 0.0103082 0)
(5.22463 0.012484 0)
(5.22495 0.0151151 0)
(5.22534 0.0182973 0)
(5.22581 0.0221472 0)
(5.22638 0.0268052 0)
(5.22708 0.0324417 0)
(5.22793 0.0392629 0)
(5.22897 0.0475197 0)
(5.23024 0.0575132 0)
(5.23179 0.0696221 0)
(5.23375 0.0842657 0)
(5.236 0.102095 0)
(5.23928 0.123478 0)
(5.24209 0.15018 0)
(5.24888 0.180614 0)
(5.24965 0.223406 0)
(5.26871 0.26131 0)
(5.2535 0.344541 0)
(5.31597 0.363837 0)
(5.2315 0.579509 0)
(5.41322 0.462499 0)
(5.14946 1.06567 0)
(5.44021 0.532204 0)
(5.16917 1.70435 0)
(5.06827 0.70273 0)
(5.30095 2.06534 0)
(4.93133 1.01208 0)
(5.25569 2.42571 0)
(5.1868 1.95437 0)
(5.15731 3.41654 0)
(6.06197 2.92503 0)
(4.9491 5.3633 0)
(7.21477 5.12352 0)
(5.1512 10.7415 0)
(3.61618 2.20748 0)
(9.47303 0.721029 0)
(14.9516 -3.13806 0)
(13.9427 -5.3472 0)
(10.192 -6.20802 0)
(9.39224 -5.34288 0)
(8.24057 -4.49319 0)
(6.8732 -4.09419 0)
(7.09253 -3.23153 0)
(7.10046 -2.50463 0)
(6.463 -2.18585 0)
(5.94909 -1.89435 0)
(5.74494 -1.54608 0)
(5.66557 -1.2425 0)
(5.59702 -1.01096 0)
(5.52394 -0.830185 0)
(5.458 -0.68249 0)
(5.40521 -0.559956 0)
(5.36476 -0.458479 0)
(5.3339 -0.374851 0)
(5.31019 -0.306183 0)
(5.29184 -0.249918 0)
(5.27756 -0.20387 0)
(5.26638 -0.166219 0)
(5.2576 -0.135456 0)
(5.25066 -0.110339 0)
(5.24518 -0.0898445 0)
(5.24082 -0.0731305 0)
(5.23734 -0.0595056 0)
(5.23457 -0.0484047 0)
(5.23235 -0.0393623 0)
(5.23057 -0.0319995 0)
(5.22913 -0.0260074 0)
(5.22798 -0.0211284 0)
(5.22706 -0.017159 0)
(5.22631 -0.0139307 0)
(5.2257 -0.0113012 0)
(5.22521 -0.0091614 0)
(5.22482 -0.00742095 0)
(5.2245 -0.00600188 0)
(5.22425 -0.00484273 0)
(5.22404 -0.00389562 0)
(5.22387 -0.00311977 0)
(5.22374 -0.00248091 0)
(5.22364 -0.0019514 0)
(5.22355 -0.00150874 0)
(5.22349 -0.00113396 0)
(5.22344 -0.000810931 0)
(5.22341 -0.000525891 0)
(5.22339 -0.000266855 0)
(5.22338 -2.31802e-05 0)
(5.22338 0.000215086 0)
(5.22338 0.000457295 0)
(5.2234 0.000713004 0)
(5.22343 0.000992106 0)
(5.22348 0.00130523 0)
(5.22353 0.00166421 0)
(5.2236 0.00208234 0)
(5.22369 0.0025752 0)
(5.2238 0.0031609 0)
(5.22393 0.00386099 0)
(5.2241 0.00470109 0)
(5.22429 0.00571202 0)
(5.22454 0.00693082 0)
(5.22483 0.00840196 0)
(5.22519 0.0101792 0)
(5.22563 0.0123273 0)
(5.22616 0.0149249 0)
(5.2268 0.0180666 0)
(5.22757 0.021867 0)
(5.22852 0.0264649 0)
(5.22966 0.0320282 0)
(5.23106 0.0387599 0)
(5.23275 0.046907 0)
(5.23483 0.056766 0)
(5.23733 0.0687079 0)
(5.24048 0.0831463 0)
(5.24412 0.100717 0)
(5.24925 0.121767 0)
(5.25386 0.148109 0)
(5.26418 0.177784 0)
(5.26594 0.220664 0)
(5.2947 0.255148 0)
(5.27254 0.343859 0)
(5.36979 0.344048 0)
(5.24075 0.598527 0)
(5.5559 0.393019 0)
(5.07911 1.18635 0)
(5.83898 0.329389 0)
(4.8775 2.0562 0)
(5.77817 0.344742 0)
(5.04357 2.39945 0)
(5.76449 0.824416 0)
(4.73459 2.67628 0)
(6.48063 1.52339 0)
(5.04061 3.77368 0)
(7.41199 2.24096 0)
(5.41814 5.44609 0)
(9.15037 4.23732 0)
(6.5053 10.6379 0)
(10.4913 1.06652 0)
(14.0722 -0.767463 0)
(15.3837 -3.5168 0)
(14.4401 -4.72471 0)
(11.0075 -5.43946 0)
(8.80191 -4.95769 0)
(8.55624 -3.90802 0)
(7.24862 -3.71029 0)
(6.43981 -3.42049 0)
(6.71172 -2.60622 0)
(6.76187 -1.97952 0)
(6.36745 -1.66875 0)
(5.98069 -1.43474 0)
(5.7693 -1.19594 0)
(5.65954 -0.979279 0)
(5.57959 -0.800613 0)
(5.50964 -0.656314 0)
(5.45031 -0.538694 0)
(5.40258 -0.441904 0)
(5.3651 -0.362043 0)
(5.33579 -0.296248 0)
(5.31282 -0.242165 0)
(5.29473 -0.197789 0)
(5.28043 -0.161428 0)
(5.26908 -0.131667 0)
(5.26004 -0.107333 0)
(5.25283 -0.0874516 0)
(5.24706 -0.0712208 0)
(5.24243 -0.0579784 0)
(5.23872 -0.0471796 0)
(5.23573 -0.0383791 0)
(5.23332 -0.0312086 0)
(5.23137 -0.0253692 0)
(5.22981 -0.0206148 0)
(5.22854 -0.0167448 0)
(5.22751 -0.0135952 0)
(5.22669 -0.0110302 0)
(5.22601 -0.00894279 0)
(5.22547 -0.00724426 0)
(5.22503 -0.00585892 0)
(5.22468 -0.00472712 0)
(5.22439 -0.00380242 0)
(5.22417 -0.0030451 0)
(5.22398 -0.00242151 0)
(5.22384 -0.00190452 0)
(5.22372 -0.0014722 0)
(5.22363 -0.0011061 0)
(5.22357 -0.000790496 0)
(5.22352 -0.000511896 0)
(5.22349 -0.000258582 0)
(5.22348 -2.01267e-05 0)
(5.22347 0.000213165 0)
(5.22349 0.000450439 0)
(5.22351 0.000701066 0)
(5.22356 0.00097475 0)
(5.22361 0.00128184 0)
(5.22369 0.00163391 0)
(5.22379 0.00204404 0)
(5.22391 0.0025275 0)
(5.22406 0.00310202 0)
(5.22425 0.00378871 0)
(5.22448 0.0046128 0)
(5.22476 0.0056045 0)
(5.22509 0.00680005 0)
(5.2255 0.00824311 0)
(5.226 0.00998647 0)
(5.22661 0.0120937 0)
(5.22734 0.0146417 0)
(5.22823 0.0177232 0)
(5.22931 0.0214506 0)
(5.23062 0.0259598 0)
(5.2322 0.0314151 0)
(5.23413 0.0380153 0)
(5.23647 0.0460014 0)
(5.23933 0.0556643 0)
(5.24278 0.0673628 0)
(5.24709 0.081507 0)
(5.25208 0.0986964 0)
(5.25905 0.119304 0)
(5.26535 0.145031 0)
(5.27935 0.173913 0)
(5.28115 0.216235 0)
(5.322 0.247339 0)
(5.28604 0.341044 0)
(5.43177 0.317839 0)
(5.23812 0.617634 0)
(5.70254 0.300317 0)
(5.08019 1.2867 0)
(6.12678 0.138552 0)
(4.84865 2.31946 0)
(6.25115 -0.0136015 0)
(5.09601 2.70541 0)
(5.92588 0.384939 0)
(5.47612 2.95211 0)
(6.35922 1.19211 0)
(4.93904 3.98593 0)
(7.61306 2.10558 0)
(4.39663 5.87247 0)
(10.0231 3.0479 0)
(7.73315 10.0274 0)
(13.6377 -0.042553 0)
(14.2169 -1.27511 0)
(13.9304 -3.00777 0)
(14.0404 -3.80576 0)
(12.4055 -4.40915 0)
(9.13446 -4.6274 0)
(8.44236 -3.64783 0)
(8.21252 -2.99052 0)
(6.9174 -3.07431 0)
(6.30292 -2.77645 0)
(6.50564 -2.08693 0)
(6.53551 -1.56504 0)
(6.25598 -1.29128 0)
(5.95879 -1.10299 0)
(5.76449 -0.92621 0)
(5.64442 -0.764113 0)
(5.55906 -0.626797 0)
(5.49186 -0.514338 0)
(5.43781 -0.42235 0)
(5.39458 -0.346642 0)
(5.3602 -0.284171 0)
(5.33292 -0.232666 0)
(5.31123 -0.190283 0)
(5.29395 -0.15547 0)
(5.28014 -0.126922 0)
(5.26909 -0.103543 0)
(5.26023 -0.0844169 0)
(5.2531 -0.0687858 0)
(5.24736 -0.0560207 0)
(5.24274 -0.0456039 0)
(5.239 -0.0371087 0)
(5.23599 -0.0301829 0)
(5.23355 -0.0245412 0)
(5.23158 -0.0199457 0)
(5.22998 -0.0162025 0)
(5.22869 -0.0131565 0)
(5.22764 -0.0106762 0)
(5.22679 -0.008656 0)
(5.22611 -0.00701139 0)
(5.22555 -0.00567068 0)
(5.2251 -0.00457556 0)
(5.22474 -0.00368049 0)
(5.22445 -0.00294725 0)
(5.22422 -0.0023434 0)
(5.22403 -0.00184265 0)
(5.22389 -0.00142384 0)
(5.22377 -0.00106919 0)
(5.22369 -0.000763386 0)
(5.22363 -0.000493238 0)
(5.22359 -0.000247433 0)
(5.22357 -1.5871e-05 0)
(5.22357 0.00021076 0)
(5.22359 0.000441491 0)
(5.22362 0.000685365 0)
(5.22368 0.000951753 0)
(5.22375 0.00125077 0)
(5.22385 0.0015937 0)
(5.22397 0.00199324 0)
(5.22413 0.00246418 0)
(5.22432 0.00302387 0)
(5.22456 0.00369294 0)
(5.22485 0.0044959 0)
(5.22521 0.00546208 0)
(5.22564 0.00662691 0)
(5.22616 0.00803303 0)
(5.2268 0.00973173 0)
(5.22757 0.0117848 0)
(5.2285 0.0142672 0)
(5.22963 0.0172694 0)
(5.231 0.0209006 0)
(5.23267 0.025293 0)
(5.23469 0.0306062 0)
(5.23713 0.0370337 0)
(5.2401 0.044809 0)
(5.24373 0.0542154 0)
(5.2481 0.0655957 0)
(5.25354 0.0793606 0)
(5.25986 0.0960451 0)
(5.26858 0.116122 0)
(5.27653 0.140925 0)
(5.29417 0.169215 0)
(5.29534 0.20963 0)
(5.35053 0.239504 0)
(5.29084 0.332826 0)
(5.51357 0.291825 0)
(5.17584 0.632123 0)
(5.96507 0.173048 0)
(4.91768 1.41789 0)
(6.7331 -0.216221 0)
(4.88748 2.62534 0)
(7.60272 -0.60874 0)
(5.00371 3.1191 0)
(9.19293 -0.163149 0)
(5.64334 2.94958 0)
(10.757 1.02385 0)
(4.80269 4.26227 0)
(11.5618 1.47974 0)
(4.76688 6.27828 0)
(10.8497 1.79619 0)
(8.31594 9.40689 0)
(13.362 -0.0846729 0)
(14.4677 -0.89493 0)
(13.9154 -2.83282 0)
(12.7284 -3.88229 0)
(12.6115 -3.63691 0)
(10.3848 -3.83163 0)
(8.5012 -3.72714 0)
(8.75034 -2.81918 0)
(8.23223 -2.41008 0)
(6.88126 -2.41729 0)
(6.32474 -2.10193 0)
(6.37113 -1.59205 0)
(6.33528 -1.22008 0)
(6.13361 -1.00364 0)
(5.91088 -0.850235 0)
(5.74002 -0.714625 0)
(5.6207 -0.592754 0)
(5.53562 -0.488287 0)
(5.47193 -0.401351 0)
(5.42243 -0.329608 0)
(5.38323 -0.270444 0)
(5.35194 -0.221662 0)
(5.32691 -0.181478 0)
(5.30684 -0.148423 0)
(5.29072 -0.121273 0)
(5.27776 -0.0990069 0)
(5.26731 -0.0807688 0)
(5.25889 -0.0658472 0)
(5.25209 -0.0536509 0)
(5.2466 -0.0436904 0)
(5.24215 -0.0355621 0)
(5.23855 -0.0289325 0)
(5.23564 -0.0235289 0)
(5.23328 -0.0191256 0)
(5.23137 -0.0155386 0)
(5.22982 -0.0126189 0)
(5.22856 -0.0102405 0)
(5.22754 -0.00830264 0)
(5.22672 -0.00672523 0)
(5.22605 -0.00543957 0)
(5.22551 -0.00438913 0)
(5.22507 -0.00353015 0)
(5.22472 -0.00282638 0)
(5.22444 -0.00224683 0)
(5.22422 -0.00176621 0)
(5.22404 -0.00136418 0)
(5.22391 -0.00102366 0)
(5.22381 -0.000729893 0)
(5.22374 -0.000470197 0)
(5.22369 -0.000233711 0)
(5.22367 -1.06231e-05 0)
(5.22366 0.000207762 0)
(5.22369 0.000430368 0)
(5.22373 0.000665833 0)
(5.22379 0.000923208 0)
(5.22388 0.00121228 0)
(5.224 0.00154387 0)
(5.22415 0.00193022 0)
(5.22434 0.00238569 0)
(5.22458 0.00292709 0)
(5.22486 0.00357432 0)
(5.22521 0.00435105 0)
(5.22564 0.00528571 0)
(5.22617 0.00641261 0)
(5.2268 0.00777297 0)
(5.22757 0.00941633 0)
(5.2285 0.0114025 0)
(5.22963 0.013804 0)
(5.23099 0.0167081 0)
(5.23265 0.0202204 0)
(5.23466 0.0244686 0)
(5.23709 0.0296068 0)
(5.24005 0.0358217 0)
(5.24363 0.0433377 0)
(5.24799 0.0524292 0)
(5.25326 0.0634196 0)
(5.25978 0.0767218 0)
(5.2674 0.0927849 0)
(5.27776 0.112244 0)
(5.28743 0.135816 0)
(5.3082 0.163814 0)
(5.30943 0.200519 0)
(5.37727 0.233387 0)
(5.29353 0.313983 0)
(5.60033 0.283161 0)
(5.06546 0.603939 0)
(6.32647 0.101799 0)
(4.38259 1.46781 0)
(7.8314 -0.549768 0)
(3.96083 2.87781 0)
(9.57872 -0.950655 0)
(3.55106 3.37735 0)
(11.7663 -0.720264 0)
(4.28693 3.45335 0)
(12.8197 0.368175 0)
(5.31067 4.61944 0)
(13.1867 0.552277 0)
(7.07916 6.39123 0)
(12.251 1.3445 0)
(9.5479 8.53802 0)
(13.5982 -0.536387 0)
(13.6602 -1.14834 0)
(12.9835 -2.05313 0)
(11.8877 -3.32217 0)
(11.9933 -3.38814 0)
(11.0857 -2.87398 0)
(8.58112 -3.10511 0)
(8.02232 -2.96924 0)
(8.5795 -2.283 0)
(7.9323 -1.88843 0)
(6.75489 -1.73595 0)
(6.18547 -1.48615 0)
(6.06872 -1.18152 0)
(6.0239 -0.934209 0)
(5.92665 -0.762746 0)
(5.79872 -0.638976 0)
(5.6786 -0.53788 0)
(5.58171 -0.450071 0)
(5.50734 -0.373934 0)
(5.45017 -0.309029 0)
(5.4055 -0.254469 0)
(5.37009 -0.209026 0)
(5.34178 -0.171389 0)
(5.31905 -0.140331 0)
(5.30074 -0.114765 0)
(5.28597 -0.0937632 0)
(5.27405 -0.0765381 0)
(5.2644 -0.0624301 0)
(5.25659 -0.0508882 0)
(5.25027 -0.041455 0)
(5.24515 -0.0337522 0)
(5.241 -0.0274663 0)
(5.23764 -0.0223404 0)
(5.23491 -0.0181624 0)
(5.23269 -0.0147579 0)
(5.2309 -0.0119852 0)
(5.22944 -0.00972675 0)
(5.22826 -0.00788669 0)
(5.2273 -0.00638829 0)
(5.22652 -0.00516671 0)
(5.2259 -0.00416863 0)
(5.22539 -0.00335238 0)
(5.22498 -0.00268357 0)
(5.22466 -0.0021328 0)
(5.2244 -0.00167595 0)
(5.2242 -0.0012937 0)
(5.22404 -0.000969856 0)
(5.22392 -0.000690331 0)
(5.22384 -0.000443012 0)
(5.22378 -0.000217527 0)
(5.22376 -4.5385e-06 0)
(5.22375 0.00020409 0)
(5.22378 0.000417094 0)
(5.22383 0.000642607 0)
(5.2239 0.000889302 0)
(5.22401 0.00116655 0)
(5.22415 0.00148467 0)
(5.22432 0.00185541 0)
(5.22454 0.00229256 0)
(5.22482 0.00281226 0)
(5.22515 0.00343356 0)
(5.22556 0.00417922 0)
(5.22607 0.00507652 0)
(5.22667 0.00615842 0)
(5.22741 0.00746451 0)
(5.22831 0.0090423 0)
(5.2294 0.0109492 0)
(5.23071 0.0132548 0)
(5.23231 0.0160428 0)
(5.23424 0.0194144 0)
(5.23658 0.023492 0)
(5.23942 0.0284233 0)
(5.24286 0.034387 0)
(5.24702 0.0415971 0)
(5.25209 0.0503175 0)
(5.25822 0.0608499 0)
(5.26577 0.0736073 0)
(5.27466 0.088946 0)
(5.2865 0.107682 0)
(5.29805 0.129804 0)
(5.32105 0.157616 0)
(5.3244 0.189324 0)
(5.39844 0.228525 0)
(5.3058 0.285167 0)
(5.65858 0.294952 0)
(4.99838 0.52251 0)
(6.5704 0.134984 0)
(3.90218 1.34098 0)
(8.51244 -0.706912 0)
(2.98821 2.98606 0)
(9.75082 -1.37961 0)
(3.85905 3.43389 0)
(9.46594 -1.3761 0)
(4.64468 3.7352 0)
(9.38584 -0.473206 0)
(5.8243 4.97013 0)
(9.59865 -0.333989 0)
(7.67696 6.77086 0)
(10.8141 1.24871 0)
(10.1492 7.92679 0)
(12.3816 -0.496295 0)
(12.7142 -0.759652 0)
(14.3895 -1.67076 0)
(12.5278 -3.07258 0)
(9.79753 -3.53731 0)
(9.97126 -2.71976 0)
(9.45621 -2.33613 0)
(7.95861 -2.6816 0)
(7.69285 -2.57673 0)
(7.97309 -1.95741 0)
(7.53903 -1.44041 0)
(6.72223 -1.22709 0)
(6.14889 -1.10179 0)
(5.89068 -0.940367 0)
(5.79052 -0.767139 0)
(5.7282 -0.622057 0)
(5.66241 -0.509688 0)
(5.59301 -0.420824 0)
(5.52794 -0.348149 0)
(5.47164 -0.287677 0)
(5.42482 -0.237168 0)
(5.38658 -0.195086 0)
(5.35555 -0.160162 0)
(5.33045 -0.131278 0)
(5.31013 -0.107457 0)
(5.29369 -0.0878567 0)
(5.28037 -0.0717604 0)
(5.26958 -0.0585622 0)
(5.26083 -0.047755 0)
(5.25374 -0.0389157 0)
(5.24798 -0.0316931 0)
(5.24331 -0.0257963 0)
(5.23952 -0.0209856 0)
(5.23644 -0.0170631 0)
(5.23394 -0.0138657 0)
(5.23191 -0.0112612 0)
(5.23027 -0.00913969 0)
(5.22893 -0.00741078 0)
(5.22785 -0.00600227 0)
(5.22697 -0.00485404 0)
(5.22626 -0.00391614 0)
(5.22569 -0.00314895 0)
(5.22523 -0.00252014 0)
(5.22486 -0.00200219 0)
(5.22457 -0.00157249 0)
(5.22434 -0.0012129 0)
(5.22416 -0.000908183 0)
(5.22403 -0.000645005 0)
(5.22393 -0.000411881 0)
(5.22387 -0.000199052 0)
(5.22384 2.185e-06 0)
(5.22384 0.000199798 0)
(5.22387 0.000401784 0)
(5.22392 0.000615846 0)
(5.22401 0.000850254 0)
(5.22413 0.00111389 0)
(5.22429 0.00141651 0)
(5.22449 0.00176929 0)
(5.22474 0.00218535 0)
(5.22505 0.00268005 0)
(5.22543 0.00327154 0)
(5.2259 0.00398145 0)
(5.22647 0.00483575 0)
(5.22716 0.00586589 0)
(5.228 0.00710958 0)
(5.22902 0.008612 0)
(5.23025 0.0104278 0)
(5.23175 0.0126231 0)
(5.23356 0.0152776 0)
(5.23576 0.0184877 0)
(5.23841 0.0223695 0)
(5.24163 0.0270633 0)
(5.24554 0.0327389 0)
(5.25027 0.0395988 0)
(5.25601 0.0478941 0)
(5.26296 0.0579044 0)
(5.27148 0.0700367 0)
(5.2816 0.0845635 0)
(5.29476 0.102446 0)
(5.30834 0.123022 0)
(5.33258 0.150412 0)
(5.34044 0.176956 0)
(5.41273 0.222771 0)
(5.33263 0.252324 0)
(5.67409 0.314328 0)
(5.02591 0.417163 0)
(6.6171 0.227509 0)
(3.77607 1.12246 0)
(8.66787 -0.752769 0)
(2.43055 3.09456 0)
(9.41625 -2.1249 0)
(4.60717 3.81923 0)
(7.64645 -2.05669 0)
(5.2176 3.96236 0)
(8.06256 -1.12546 0)
(6.48841 5.44868 0)
(7.65061 -1.17061 0)
(8.03747 6.76615 0)
(9.42004 0.982271 0)
(10.2983 7.13305 0)
(12.8838 -0.461145 0)
(13.4369 -1.52417 0)
(12.9311 -1.73234 0)
(12.3024 -1.4949 0)
(11.1663 -2.41951 0)
(10.6713 -3.07272 0)
(10.5701 -2.40593 0)
(8.85981 -1.83947 0)
(6.99528 -1.92086 0)
(6.32857 -1.85717 0)
(6.7399 -1.41695 0)
(7.18899 -1.04148 0)
(7.09315 -0.850548 0)
(6.66763 -0.741279 0)
(6.2521 -0.645125 0)
(5.96114 -0.550916 0)
(5.77472 -0.463242 0)
(5.65121 -0.38597 0)
(5.56319 -0.320111 0)
(5.49653 -0.264776 0)
(5.44415 -0.218509 0)
(5.40222 -0.179941 0)
(5.3684 -0.147892 0)
(5.34103 -0.121342 0)
(5.31884 -0.0994095 0)
(5.30085 -0.0813361 0)
(5.28626 -0.0664741 0)
(5.2744 -0.0542747 0)
(5.26478 -0.0442763 0)
(5.25697 -0.0360923 0)
(5.25062 -0.0294012 0)
(5.24546 -0.0239355 0)
(5.24127 -0.0194745 0)
(5.23787 -0.015836 0)
(5.23511 -0.0128696 0)
(5.23286 -0.0104524 0)
(5.23104 -0.00848314 0)
(5.22956 -0.00687837 0)
(5.22836 -0.00557065 0)
(5.22739 -0.00450445 0)
(5.22661 -0.00363361 0)
(5.22597 -0.00292116 0)
(5.22546 -0.00233708 0)
(5.22505 -0.00185589 0)
(5.22473 -0.00145661 0)
(5.22447 -0.00112246 0)
(5.22427 -0.000839198 0)
(5.22413 -0.000594332 0)
(5.22402 -0.000377111 0)
(5.22396 -0.000178493 0)
(5.22392 9.55138e-06 0)
(5.22392 0.000194849 0)
(5.22395 0.000384445 0)
(5.22401 0.000585637 0)
(5.22411 0.000806242 0)
(5.22425 0.0010546 0)
(5.22442 0.00133979 0)
(5.22464 0.00167236 0)
(5.22492 0.00206472 0)
(5.22527 0.00253134 0)
(5.2257 0.0030893 0)
(5.22622 0.00375899 0)
(5.22685 0.00456495 0)
(5.22762 0.0055369 0)
(5.22856 0.00671044 0)
(5.22969 0.0081281 0)
(5.23107 0.00984146 0)
(5.23273 0.0119129 0)
(5.23475 0.0144175 0)
(5.23719 0.0174461 0)
(5.24015 0.0211081 0)
(5.24374 0.0255354 0)
(5.24808 0.030888 0)
(5.25334 0.0373555 0)
(5.25972 0.0451747 0)
(5.26745 0.0546033 0)
(5.27688 0.0660333 0)
(5.28817 0.0796737 0)
(5.30249 0.0965551 0)
(5.31818 0.115589 0)
(5.3429 0.142039 0)
(5.35699 0.164258 0)
(5.42127 0.214018 0)
(5.37122 0.221669 0)
(5.65251 0.326384 0)
(5.143 0.318774 0)
(6.48949 0.323584 0)
(4.02963 0.909888 0)
(8.44563 -0.741999 0)
(2.47152 3.25538 0)
(9.03722 -2.97236 0)
(4.9921 4.41042 0)
(7.00537 -2.57753 0)
(5.69314 4.14308 0)
(7.91011 -1.63318 0)
(6.87073 5.66833 0)
(7.39515 -1.49949 0)
(8.48439 6.36717 0)
(9.15512 1.02863 0)
(9.93996 6.2092 0)
(13.1275 -0.67096 0)
(12.0794 -0.861453 0)
(11.3494 -1.21155 0)
(13.0634 -2.01408 0)
(12.6321 -2.35976 0)
(9.19396 -2.28785 0)
(7.76423 -2.05276 0)
(9.04073 -1.63349 0)
(10.0684 -1.49196 0)
(8.58073 -1.57404 0)
(6.70676 -1.49032 0)
(5.92565 -1.21699 0)
(5.80795 -0.920997 0)
(5.85399 -0.694237 0)
(5.86588 -0.556691 0)
(5.81902 -0.470456 0)
(5.74087 -0.402539 0)
(5.65677 -0.341661 0)
(5.57988 -0.286921 0)
(5.51444 -0.239047 0)
(5.46033 -0.198087 0)
(5.41607 -0.163527 0)
(5.38 -0.134622 0)
(5.35066 -0.110587 0)
(5.32681 -0.0906833 0)
(5.30742 -0.0742516 0)
(5.29165 -0.0607205 0)
(5.27883 -0.0496008 0)
(5.26841 -0.0404789 0)
(5.25994 -0.0330069 0)
(5.25305 -0.0268938 0)
(5.24745 -0.021898 0)
(5.24289 -0.0178189 0)
(5.23919 -0.0144908 0)
(5.23618 -0.0117768 0)
(5.23374 -0.00956479 0)
(5.23176 -0.00776249 0)
(5.23015 -0.00629375 0)
(5.22884 -0.00509651 0)
(5.22778 -0.00412026 0)
(5.22692 -0.00332308 0)
(5.22623 -0.00267085 0)
(5.22568 -0.00213597 0)
(5.22523 -0.00169514 0)
(5.22487 -0.00132925 0)
(5.2246 -0.00102304 0)
(5.22438 -0.00076339 0)
(5.22422 -0.000538676 0)
(5.22411 -0.000338963 0)
(5.22403 -0.000155978 0)
(5.224 1.77096e-05 0)
(5.224 0.000189283 0)
(5.22403 0.0003652 0)
(5.2241 0.000552189 0)
(5.22421 0.000757581 0)
(5.22435 0.000989066 0)
(5.22455 0.001255 0)
(5.22479 0.00156523 0)
(5.2251 0.00193142 0)
(5.22548 0.00236701 0)
(5.22594 0.00288794 0)
(5.22651 0.00351321 0)
(5.22721 0.00426575 0)
(5.22805 0.00517346 0)
(5.22908 0.00626954 0)
(5.23032 0.00759362 0)
(5.23183 0.00919392 0)
(5.23366 0.0111286 0)
(5.23587 0.0134678 0)
(5.23854 0.0162962 0)
(5.24178 0.0197157 0)
(5.24571 0.0238494 0)
(5.25046 0.028846 0)
(5.25622 0.0348819 0)
(5.2632 0.0421769 0)
(5.27165 0.0509684 0)
(5.28193 0.0616233 0)
(5.29432 0.074312 0)
(5.30969 0.0900471 0)
(5.32743 0.107588 0)
(5.35221 0.132477 0)
(5.37315 0.151687 0)
(5.42642 0.201199 0)
(5.41471 0.197087 0)
(5.60924 0.320776 0)
(5.31383 0.248882 0)
(6.2327 0.377241 0)
(4.57723 0.749057 0)
(7.86052 -0.715763 0)
(3.17211 3.39851 0)
(8.55235 -3.71239 0)
(5.11121 5.00117 0)
(6.75808 -2.85535 0)
(6.27014 4.10572 0)
(7.42243 -1.81757 0)
(7.09609 6.01767 0)
(7.60041 -1.48977 0)
(8.20032 5.73827 0)
(9.2045 1.1903 0)
(9.55108 5.18463 0)
(12.2404 -0.186774 0)
(13.1119 -0.516191 0)
(13.1754 -1.6371 0)
(10.9153 -2.05708 0)
(10.4454 -1.50472 0)
(11.7798 -1.3126 0)
(10.6795 -1.93036 0)
(7.98033 -2.23515 0)
(7.05639 -1.71488 0)
(7.37669 -0.985144 0)
(7.60165 -0.674715 0)
(7.33658 -0.687855 0)
(6.85536 -0.702969 0)
(6.44363 -0.6377 0)
(6.1521 -0.540496 0)
(5.95013 -0.449062 0)
(5.80438 -0.372693 0)
(5.69293 -0.309775 0)
(5.60452 -0.2575 0)
(5.53333 -0.21376 0)
(5.47563 -0.17705 0)
(5.4287 -0.146268 0)
(5.39048 -0.12054 0)
(5.35935 -0.0991197 0)
(5.334 -0.0813512 0)
(5.31335 -0.0666592 0)
(5.29653 -0.054544 0)
(5.28284 -0.0445763 0)
(5.2717 -0.036392 0)
(5.26263 -0.0296826 0)
(5.25525 -0.0241901 0)
(5.24924 -0.0196995 0)
(5.24436 -0.0160313 0)
(5.24039 -0.0130376 0)
(5.23716 -0.0105959 0)
(5.23454 -0.00860518 0)
(5.23241 -0.00698298 0)
(5.23067 -0.00566123 0)
(5.22927 -0.00458355 0)
(5.22813 -0.00370464 0)
(5.22721 -0.00298703 0)
(5.22647 -0.00239988 0)
(5.22587 -0.00191824 0)
(5.22539 -0.00152109 0)
(5.22501 -0.00119136 0)
(5.22471 -0.00091545 0)
(5.22448 -0.000681417 0)
(5.2243 -0.000478559 0)
(5.22418 -0.000297815 0)
(5.2241 -0.00013179 0)
(5.22407 2.63463e-05 0)
(5.22407 0.000183021 0)
(5.2241 0.000344077 0)
(5.22418 0.000515629 0)
(5.22429 0.000704507 0)
(5.22445 0.000917647 0)
(5.22466 0.00116262 0)
(5.22493 0.00144857 0)
(5.22526 0.00178629 0)
(5.22567 0.00218812 0)
(5.22617 0.00266874 0)
(5.22679 0.00324566 0)
(5.22754 0.00394006 0)
(5.22846 0.00477786 0)
(5.22957 0.00578965 0)
(5.23091 0.00701189 0)
(5.23254 0.00848919 0)
(5.23451 0.0102751 0)
(5.2369 0.0124344 0)
(5.2398 0.0150451 0)
(5.2433 0.0182011 0)
(5.24754 0.0220158 0)
(5.25268 0.026626 0)
(5.25889 0.0321934 0)
(5.26642 0.0389202 0)
(5.27555 0.0470231 0)
(5.28661 0.0568367 0)
(5.30002 0.0685134 0)
(5.31633 0.0829724 0)
(5.33598 0.0990628 0)
(5.3607 0.12184 0)
(5.38808 0.139267 0)
(5.43053 0.184547 0)
(5.45571 0.179111 0)
(5.56332 0.29523 0)
(5.48715 0.216349 0)
(5.93334 0.360452 0)
(5.21647 0.668461 0)
(7.0398 -0.727413 0)
(4.25132 3.45509 0)
(8.07249 -4.20204 0)
(5.0112 5.56519 0)
(6.78097 -2.86699 0)
(6.56053 3.8098 0)
(7.29218 -1.80489 0)
(7.15384 6.03797 0)
(7.74823 -1.32643 0)
(7.65423 4.98235 0)
(9.46342 1.27798 0)
(9.71823 4.266 0)
(12.4747 -0.700243 0)
(12.2298 -1.12684 0)
(12.1764 -0.651171 0)
(12.4667 -0.743829 0)
(11.3341 -2.00183 0)
(9.73944 -2.28718 0)
(9.44032 -1.24107 0)
(9.40735 -0.631726 0)
(8.6364 -0.998333 0)
(7.5967 -1.33422 0)
(6.91684 -1.21842 0)
(6.5785 -0.924087 0)
(6.38954 -0.667918 0)
(6.23279 -0.513513 0)
(6.07965 -0.424555 0)
(5.93792 -0.362676 0)
(5.81429 -0.310783 0)
(5.70912 -0.264122 0)
(5.62108 -0.222377 0)
(5.54831 -0.185887 0)
(5.48858 -0.154568 0)
(5.43967 -0.128008 0)
(5.39968 -0.105672 0)