/*--------------------------------*- C++ -*----------------------------------*\
| =========                 |                                                 |
| \\      /  F ield         | OpenFOAM: The Open Source CFD Toolbox           |
|  \\    /   O peration     | Version:  2.4.0                                 |
|   \\  /    A nd           | Web:      www.OpenFOAM.org                      |
|    \\/     M anipulation  |                                                 |
\*---------------------------------------------------------------------------*/
FoamFile
{
    version     2.0;
    format      ascii;
    class       volSymmTensorField;
    location    "0.01";
    object      UPrime2Mean;
}
// * * * * * * * * * * * * * * * * * * * * * * * * * * * * * * * * * * * * * //

dimensions      [0 2 -2 0 0 0 0];

internalField   nonuniform List<symmTensor> 
17600
(
(0.330658 -0.0356357 0 0.00564745 0 0)
(3.40929 -0.0175397 0 0.000369084 0 0)
(4.30451 -0.00262738 0 1.94298e-05 0 0)
(4.68915 -0.0044995 0 1.56794e-05 0 0)
(4.93336 -0.00284265 0 7.05343e-06 0 0)
(5.00559 -0.000266579 0 2.27799e-06 0 0)
(4.96317 0.000773278 0 9.83016e-07 0 0)
(4.91511 0.000214197 0 4.80791e-07 0 0)
(4.90654 -0.000246784 0 7.95306e-08 0 0)
(4.92119 -0.000284683 0 1.09139e-07 0 0)
(4.92763 -3.79908e-05 0 5.14666e-08 0 0)
(4.93007 0.000145027 0 1.07104e-07 0 0)
(4.93559 -0.000321293 0 1.16526e-07 0 0)
(4.93648 0.000449649 0 7.92011e-07 0 0)
(4.98714 -0.00137936 0 1.11692e-06 0 0)
(4.98896 0.000157532 0 9.50567e-06 0 0)
(5.19494 -0.00525342 0 1.50958e-05 0 0)
(5.40958 0.00780232 0 0.000201233 0 0)
(6.2471 -0.217368 0 0.010761 0 0)
(12.0012 1.07262 0 0.15704 0 0)
(0.181924 0.0758201 0 0.0559795 0 0)
(1.22038 -0.115696 0 0.0118092 0 0)
(2.23571 -0.0564372 0 0.00144743 0 0)
(2.83303 -0.037164 0 0.000556669 0 0)
(3.33238 -0.0223642 0 0.000343458 0 0)
(3.56657 -0.00282326 0 0.000104877 0 0)
(3.51844 0.00782857 0 3.10562e-05 0 0)
(3.41235 0.00424193 0 1.9999e-05 0 0)
(3.38048 -0.000844111 0 2.03711e-06 0 0)
(3.40823 -0.00192224 0 2.79158e-06 0 0)
(3.41902 0.000187216 0 2.71832e-07 0 0)
(3.42272 -0.000728821 0 4.00545e-07 0 0)
(3.43225 0.000336698 0 5.33273e-07 0 0)
(3.398 -0.00294816 0 6.47121e-06 0 0)
(3.5244 -0.0013833 0 1.02985e-05 0 0)
(3.397 -0.00915304 0 5.26157e-05 0 0)
(3.74647 -0.0107199 0 0.000140237 0 0)
(4.18597 -0.034291 0 0.000432612 0 0)
(3.91642 -0.115118 0 0.006475 0 0)
(13.1575 -2.24668 0 0.528005 0 0)
(0.5571 0.206119 0 0.0846063 0 0)
(0.187943 -0.0652575 0 0.0306159 0 0)
(0.647351 -0.0586519 0 0.00615671 0 0)
(0.993216 -0.0534881 0 0.00294802 0 0)
(1.42147 -0.0427128 0 0.00176268 0 0)
(1.71518 -0.0119799 0 0.000491889 0 0)
(1.73593 0.0110143 0 0.000102798 0 0)
(1.65158 0.00817174 0 7.39187e-05 0 0)
(1.61228 -0.000639286 0 6.54554e-06 0 0)
(1.63658 -0.00302404 0 8.7231e-06 0 0)
(1.646 -0.000640381 0 1.91401e-06 0 0)
(1.65229 0.000733385 0 7.60879e-07 0 0)
(1.66724 -0.000134321 0 3.79558e-07 0 0)
(1.61494 -9.77677e-05 0 9.87144e-07 0 0)
(1.76623 -0.00386867 0 1.96383e-05 0 0)
(1.60664 -0.00334662 0 3.55654e-05 0 0)
(1.9276 -0.0291659 0 0.000600316 0 0)
(2.31368 -0.0394222 0 0.00261134 0 0)
(2.35056 -0.235349 0 0.038637 0 0)
(8.1286 -2.47342 0 1.17635 0 0)
(0.710984 0.221913 0 0.074456 0 0)
(0.0183794 0.0112985 0 0.0440504 0 0)
(0.0943567 -0.0140519 0 0.0117373 0 0)
(0.136055 -0.024305 0 0.00710689 0 0)
(0.259166 -0.0335956 0 0.00475101 0 0)
(0.422738 -0.0169352 0 0.00132567 0 0)
(0.479354 0.00613234 0 0.000191198 0 0)
(0.454551 0.00755739 0 0.000148357 0 0)
(0.430304 0.000253812 0 1.29028e-05 0 0)
(0.443308 -0.00297166 0 2.28128e-05 0 0)
(0.448468 0.00028192 0 1.94113e-06 0 0)
(0.455817 -0.00177792 0 7.90903e-06 0 0)
(0.465181 0.00205283 0 1.76998e-05 0 0)
(0.435537 -0.00349772 0 9.39843e-05 0 0)
(0.508857 -0.00359788 0 0.000269072 0 0)
(0.471511 0.00245036 0 0.000799895 0 0)
(0.507706 -0.0374425 0 0.00432514 0 0)
(0.897522 0.00879121 0 0.00378602 0 0)
(0.943038 -0.25065 0 0.124698 0 0)
(2.40427 -0.600927 0 0.723213 0 0)
(0.682988 0.184392 0 0.0534287 0 0)
(0.046106 0.0421725 0 0.0444976 0 0)
(0.0898719 0.02275 0 0.0127694 0 0)
(0.107832 0.0201836 0 0.00982635 0 0)
(0.0623495 0.00467449 0 0.00811919 0 0)
(0.0502318 -0.00605995 0 0.00246029 0 0)
(0.0659578 -0.000801459 0 0.000240942 0 0)
(0.0710195 0.0023208 0 0.000209771 0 0)
(0.0662201 0.000458571 0 1.39008e-05 0 0)
(0.0681677 -0.00069926 0 2.36453e-05 0 0)
(0.0691051 -0.00057362 0 1.12367e-05 0 0)
(0.0709018 0.0003026 0 4.9267e-06 0 0)
(0.0780624 -0.000154956 0 1.42113e-05 0 0)
(0.059544 -0.000249637 0 2.92844e-05 0 0)
(0.09965 0.000661509 0 0.000253192 0 0)
(0.0594028 -0.00317992 0 0.000658847 0 0)
(0.101593 0.00855774 0 0.00444865 0 0)
(0.184472 -0.0388203 0 0.0305149 0 0)
(0.183398 -0.00219777 0 0.0684629 0 0)
(0.628394 -0.504392 0 1.85039 0 0)
(0.649784 0.153756 0 0.0390806 0 0)
(0.0441746 0.0397853 0 0.0400714 0 0)
(0.111704 0.0285057 0 0.0102512 0 0)
(0.20884 0.0378198 0 0.00899139 0 0)
(0.205226 0.0347758 0 0.00931141 0 0)
(0.146296 0.0114197 0 0.00318643 0 0)
(0.111953 -0.00253347 0 0.000202963 0 0)
(0.106996 -0.00226408 0 0.000191801 0 0)
(0.106511 0.000489197 0 2.327e-05 0 0)
(0.102533 0.00164514 0 7.84615e-05 0 0)
(0.0955333 -0.000430103 0 5.1776e-06 0 0)
(0.0965349 0.00164592 0 6.22891e-05 0 0)
(0.0898884 -0.0025856 0 0.000143069 0 0)
(0.0949626 0.0048168 0 0.000430413 0 0)
(0.0821393 -0.00416862 0 0.00128015 0 0)
(0.0815701 0.00746477 0 0.00339399 0 0)
(0.0597404 0.000753356 0 0.0147748 0 0)
(0.0452504 0.0111206 0 0.0132478 0 0)
(0.0713371 -0.048127 0 0.188748 0 0)
(0.262145 -0.0573774 0 0.735337 0 0)
(0.641582 0.132406 0 0.0292935 0 0)
(0.0327492 0.0318003 0 0.0359038 0 0)
(0.0967783 0.0236258 0 0.00802425 0 0)
(0.212881 0.0348252 0 0.00686184 0 0)
(0.260339 0.0406591 0 0.00822615 0 0)
(0.225412 0.0195815 0 0.00308521 0 0)
(0.177917 -0.000979234 0 0.00011981 0 0)
(0.158529 -0.00299848 0 0.000145484 0 0)
(0.156974 0.00146213 0 2.7248e-05 0 0)
(0.144676 0.00198301 0 4.44469e-05 0 0)
(0.143 0.00184626 0 5.68479e-05 0 0)
(0.126088 -0.00115647 0 2.92344e-05 0 0)
(0.140714 0.00389155 0 0.000171795 0 0)
(0.11404 -0.00239981 0 0.000172333 0 0)
(0.136463 0.00870955 0 0.00136534 0 0)
(0.0954966 0.000733274 0 0.00227901 0 0)
(0.0964385 0.0157016 0 0.00878735 0 0)
(0.0493638 0.0192114 0 0.0453963 0 0)
(0.0397776 0.0289308 0 0.0501413 0 0)
(0.176415 0.105861 0 0.955996 0 0)
(0.643471 0.114525 0 0.0217887 0 0)
(0.0241582 0.0248248 0 0.0316902 0 0)
(0.0802483 0.0190082 0 0.00668066 0 0)
(0.189372 0.0286467 0 0.00506792 0 0)
(0.244126 0.0362246 0 0.0065479 0 0)
(0.22015 0.0198698 0 0.00272111 0 0)
(0.176292 0.000531822 0 6.58242e-05 0 0)
(0.157614 -0.00141087 0 5.28902e-05 0 0)
(0.160415 0.00143336 0 3.14256e-05 0 0)
(0.144385 0.00398415 0 0.000202621 0 0)
(0.152598 -0.000446626 0 5.32329e-06 0 0)
(0.121716 0.0031726 0 0.000134645 0 0)
(0.156127 -0.00403507 0 0.00018962 0 0)
(0.111098 0.00459595 0 0.00057001 0 0)
(0.140025 0.000396853 0 0.00152365 0 0)
(0.122554 -0.00165528 0 0.00348281 0 0)
(0.0825168 0.00947163 0 0.0123706 0 0)
(0.0985918 0.0211214 0 0.0084533 0 0)
(0.0496277 0.0098277 0 0.125819 0 0)
(0.125496 0.187662 0 0.925263 0 0)
(0.647233 0.0985428 0 0.0160138 0 0)
(0.0182923 0.019005 0 0.0271462 0 0)
(0.0676003 0.0154506 0 0.00573238 0 0)
(0.168522 0.0235092 0 0.00373414 0 0)
(0.218432 0.0308929 0 0.00514993 0 0)
(0.195778 0.018143 0 0.00237284 0 0)
(0.158559 0.00189565 0 7.9771e-05 0 0)
(0.14877 -0.000806157 0 4.66256e-05 0 0)
(0.152291 0.00306026 0 8.65599e-05 0 0)
(0.145708 0.002131 0 4.81905e-05 0 0)
(0.141839 0.00347201 0 0.000194318 0 0)
(0.133202 -0.00185838 0 6.62461e-05 0 0)
(0.137993 0.0050579 0 0.000294939 0 0)
(0.126195 -0.0023917 0 0.000271795 0 0)
(0.131047 0.00650543 0 0.00112076 0 0)
(0.110815 0.00645814 0 0.00225204 0 0)
(0.0931358 0.0133777 0 0.00510849 0 0)
(0.0781043 0.033426 0 0.0310882 0 0)
(0.034461 0.0322181 0 0.081202 0 0)
(0.138266 0.165303 0 0.590844 0 0)
(0.650821 0.0842105 0 0.0116383 0 0)
(0.014277 0.0142 0 0.022667 0 0)
(0.0579728 0.0125642 0 0.0049744 0 0)
(0.151559 0.019406 0 0.00276787 0 0)
(0.196569 0.0262084 0 0.00402355 0 0)
(0.173616 0.0163635 0 0.00210794 0 0)
(0.143666 0.00239814 0 8.09013e-05 0 0)
(0.139487 0.000467587 0 1.4664e-05 0 0)
(0.148961 0.00223721 0 5.31253e-05 0 0)
(0.139267 0.00425519 0 0.000253231 0 0)
(0.146011 4.14593e-05 0 3.88901e-06 0 0)
(0.124887 0.00307547 0 0.000120947 0 0)
(0.147309 -0.00125955 0 6.20749e-05 0 0)
(0.11986 0.00241287 0 0.00035593 0 0)
(0.133032 0.00735346 0 0.00152377 0 0)
(0.120717 -0.00221157 0 0.00121917 0 0)
(0.0915189 0.0212567 0 0.00988451 0 0)
(0.0874703 0.0303671 0 0.0214602 0 0)
(0.0579652 0.0458339 0 0.0887162 0 0)
(0.181184 0.244342 0 0.691273 0 0)
(0.653996 0.0714251 0 0.0083598 0 0)
(0.0115903 0.0103281 0 0.0185166 0 0)
(0.05067 0.0101193 0 0.00430861 0 0)
(0.137491 0.0160251 0 0.00204609 0 0)
(0.178609 0.0221627 0 0.00311568 0 0)
(0.155754 0.0144387 0 0.00178817 0 0)
(0.131097 0.00295636 0 0.00011747 0 0)
(0.132846 0.000598994 0 2.22137e-05 0 0)
(0.143744 0.00334382 0 0.000116218 0 0)
(0.138316 0.00234568 0 6.42542e-05 0 0)
(0.141669 0.00359173 0 0.000207692 0 0)
(0.127128 -0.0012345 0 4.49728e-05 0 0)
(0.144983 0.00456517 0 0.000224338 0 0)
(0.119894 -0.000175301 0 0.000140034 0 0)
(0.137555 0.00630858 0 0.00066059 0 0)
(0.115198 0.00912693 0 0.00111842 0 0)
(0.0970728 0.0172522 0 0.00482584 0 0)
(0.0948385 0.0373935 0 0.0217167 0 0)
(0.0625329 0.0608576 0 0.0930595 0 0)
(0.180098 0.243266 0 0.493703 0 0)
(0.656762 0.0600721 0 0.00592428 0 0)
(0.00988376 0.00728353 0 0.0147658 0 0)
(0.0452393 0.00801696 0 0.00366593 0 0)
(0.125762 0.0132082 0 0.0015025 0 0)
(0.163882 0.0185983 0 0.00236229 0 0)
(0.141127 0.0126889 0 0.00151338 0 0)
(0.121047 0.00296768 0 0.000119143 0 0)
(0.126876 0.00119792 0 2.00781e-05 0 0)
(0.140345 0.00263894 0 7.35566e-05 0 0)
(0.135676 0.00359295 0 0.0001851 0 0)
(0.140575 0.00112073 0 2.2785e-05 0 0)
(0.127129 0.00194519 0 4.30451e-05 0 0)
(0.14252 0.00158242 0 5.73538e-05 0 0)
(0.123842 0.000175127 0 0.000133639 0 0)
(0.133668 0.0105445 0 0.00131627 0 0)
(0.119062 0.000320235 0 0.000174874 0 0)
(0.102082 0.0237595 0 0.0082826 0 0)
(0.100486 0.0419463 0 0.0258702 0 0)
(0.0742844 0.0644221 0 0.0768943 0 0)
(0.186914 0.234387 0 0.459753 0 0)
(0.659134 0.050006 0 0.00412587 0 0)
(0.00888857 0.00495035 0 0.0114336 0 0)
(0.0413129 0.00622023 0 0.00302895 0 0)
(0.116042 0.0108427 0 0.0010907 0 0)
(0.1518 0.0155009 0 0.00175897 0 0)
(0.129276 0.0109314 0 0.00122286 0 0)
(0.112759 0.00298195 0 0.000130936 0 0)
(0.122121 0.00116675 0 2.2416e-05 0 0)
(0.137019 0.00300366 0 0.000102657 0 0)
(0.134168 0.00237092 0 7.07633e-05 0 0)
(0.13881 0.00301509 0 0.000150994 0 0)
(0.127018 -0.00044773 0 1.75161e-05 0 0)
(0.14289 0.00387485 0 0.000157732 0 0)
(0.123756 0.000847626 0 4.40987e-05 0 0)
(0.134764 0.00775453 0 0.000617679 0 0)
(0.121911 0.0079781 0 0.000643323 0 0)
(0.105101 0.0226213 0 0.00660964 0 0)
(0.105874 0.0405415 0 0.021215 0 0)
(0.0924374 0.0771186 0 0.0817718 0 0)
(0.220801 0.25512 0 0.407399 0 0)
(0.66113 0.0410722 0 0.00280525 0 0)
(0.00838875 0.00321741 0 0.00853473 0 0)
(0.0385677 0.00470986 0 0.00240221 0 0)
(0.108068 0.00883857 0 0.000776825 0 0)
(0.141975 0.0127624 0 0.00126983 0 0)
(0.119693 0.00929023 0 0.000957947 0 0)
(0.106095 0.00274322 0 0.000118419 0 0)
(0.118133 0.00130283 0 2.26119e-05 0 0)
(0.134404 0.00253167 0 7.35155e-05 0 0)
(0.132648 0.00268256 0 0.000101773 0 0)
(0.137436 0.00185313 0 5.42755e-05 0 0)
(0.127492 0.000824966 0 6.10173e-06 0 0)
(0.141281 0.003232 0 0.000119689 0 0)
(0.125713 -0.000477608 0 5.60486e-05 0 0)
(0.134835 0.0105704 0 0.00109452 0 0)
(0.123285 0.00457935 0 0.000261242 0 0)
(0.109496 0.02341 0 0.00683674 0 0)
(0.114618 0.0458873 0 0.0245232 0 0)
(0.109059 0.0846938 0 0.0774977 0 0)
(0.237967 0.250057 0 0.327451 0 0)
(0.662776 0.0331163 0 0.00184196 0 0)
(0.00821381 0.00197764 0 0.00607302 0 0)
(0.0367222 0.00346728 0 0.00180325 0 0)
(0.101625 0.00710871 0 0.000534781 0 0)
(0.134079 0.0103332 0 0.000880261 0 0)
(0.112058 0.00770183 0 0.000707252 0 0)
(0.100758 0.00246302 0 0.000103179 0 0)
(0.114931 0.00118964 0 1.99654e-05 0 0)
(0.132164 0.00241081 0 7.0632e-05 0 0)
(0.131528 0.00202781 0 5.36704e-05 0 0)
(0.136188 0.00239595 0 9.43213e-05 0 0)
(0.127728 9.16521e-06 0 7.03771e-06 0 0)
(0.140724 0.00370254 0 0.000137842 0 0)
(0.126983 0.000652255 0 2.00095e-05 0 0)
(0.134818 0.00934935 0 0.000828757 0 0)
(0.125489 0.00660495 0 0.000439587 0 0)
(0.114744 0.0248861 0 0.00707898 0 0)
(0.121105 0.0464229 0 0.0234185 0 0)
(0.123154 0.0869705 0 0.0710512 0 0)
(0.239289 0.240039 0 0.297714 0 0)
(0.664099 0.0259845 0 0.00114667 0 0)
(0.00823258 0.00113111 0 0.00404223 0 0)
(0.0355372 0.00246938 0 0.00125527 0 0)
(0.0965282 0.0055846 0 0.000348158 0 0)
(0.127855 0.00814557 0 0.000573731 0 0)
(0.106082 0.00619536 0 0.00048693 0 0)
(0.0965823 0.00208739 0 7.88923e-05 0 0)
(0.112379 0.00107432 0 1.61478e-05 0 0)
(0.130376 0.00203751 0 5.14115e-05 0 0)
(0.13061 0.00178898 0 4.24573e-05 0 0)
(0.135151 0.0020298 0 6.4093e-05 0 0)
(0.128106 0.000163458 0 4.07415e-06 0 0)
(0.139964 0.00378504 0 0.000147346 0 0)
(0.128348 4.58461e-05 0 2.83368e-05 0 0)
(0.135075 0.00994774 0 0.000932231 0 0)
(0.127963 0.00712286 0 0.000521939 0 0)
(0.118941 0.0248326 0 0.006725 0 0)
(0.128107 0.047384 0 0.0226604 0 0)
(0.138394 0.0910736 0 0.0675111 0 0)
(0.272031 0.241064 0 0.244849 0 0)
(0.665122 0.0195238 0 0.000654493 0 0)
(0.00834734 0.000587856 0 0.00243325 0 0)
(0.0348167 0.00168436 0 0.000783143 0 0)
(0.0926283 0.00420942 0 0.00020658 0 0)
(0.1231 0.00614928 0 0.000339942 0 0)
(0.101548 0.0047479 0 0.000300714 0 0)
(0.0934089 0.00167391 0 5.35592e-05 0 0)
(0.110422 0.000880278 0 1.11343e-05 0 0)
(0.128969 0.0016986 0 3.68541e-05 0 0)
(0.129933 0.00135628 0 2.29079e-05 0 0)
(0.134302 0.00193023 0 5.73885e-05 0 0)
(0.128475 1.09925e-05 0 6.02709e-06 0 0)
(0.139386 0.00374131 0 0.000139319 0 0)
(0.129615 0.000346251 0 2.09813e-05 0 0)
(0.135475 0.00967421 0 0.000872903 0 0)
(0.130133 0.00763794 0 0.000586446 0 0)
(0.123425 0.025018 0 0.00646638 0 0)
(0.13552 0.0482448 0 0.021778 0 0)
(0.15547 0.0935274 0 0.0621817 0 0)
(0.281594 0.230848 0 0.212158 0 0)
(0.66587 0.0135823 0 0.000319802 0 0)
(0.00848785 0.000268373 0 0.00123642 0 0)
(0.0344071 0.00107338 0 0.000408753 0 0)
(0.0898061 0.00293882 0 0.000104043 0 0)
(0.119662 0.00429491 0 0.000170785 0 0)
(0.0982879 0.00335344 0 0.000155752 0 0)
(0.0911246 0.00122666 0 2.99127e-05 0 0)
(0.109005 0.000656598 0 6.29686e-06 0 0)
(0.127926 0.00130885 0 2.23493e-05 0 0)
(0.129475 0.000949361 0 1.02641e-05 0 0)
(0.133633 0.00172439 0 4.40917e-05 0 0)
(0.128874 -8.72552e-05 0 7.56739e-06 0 0)
(0.13892 0.00373217 0 0.000137937 0 0)
(0.130805 0.000405382 0 1.9813e-05 0 0)
(0.13596 0.00948544 0 0.000832702 0 0)
(0.132302 0.00813915 0 0.000657341 0 0)
(0.128086 0.0249912 0 0.00614398 0 0)
(0.142672 0.0487285 0 0.0207655 0 0)
(0.16856 0.0940273 0 0.0573818 0 0)
(0.292835 0.219752 0 0.182041 0 0)
(0.666358 0.0080099 0 0.000111996 0 0)
(0.00860601 0.000101837 0 0.000443818 0 0)
(0.0341953 0.000590539 0 0.000149344 0 0)
(0.0879732 0.00173644 0 3.71132e-05 0 0)
(0.117428 0.00253861 0 6.0823e-05 0 0)
(0.0961818 0.00199662 0 5.64833e-05 0 0)
(0.0896453 0.000760699 0 1.17611e-05 0 0)
(0.108092 0.000406419 0 2.49312e-06 0 0)
(0.127227 0.000901352 0 1.0868e-05 0 0)
(0.129229 0.000524184 0 2.66717e-06 0 0)
(0.133143 0.00149388 0 3.13713e-05 0 0)
(0.129294 -0.000166168 0 8.97945e-06 0 0)
(0.138561 0.00361705 0 0.000127718 0 0)
(0.131919 0.000534682 0 1.78831e-05 0 0)
(0.136526 0.00915965 0 0.000770721 0 0)
(0.134528 0.00860474 0 0.00071929 0 0)
(0.132494 0.0248279 0 0.00578453 0 0)
(0.149459 0.0485146 0 0.0193306 0 0)
(0.182561 0.0936747 0 0.0519893 0 0)
(0.313183 0.20821 0 0.14845 0 0)
(0.666598 0.00265813 0 1.23619e-05 0 0)
(0.00867216 2.43617e-05 0 4.91585e-05 0 0)
(0.0341075 0.000186683 0 1.66964e-05 0 0)
(0.0870717 0.000572909 0 4.07552e-06 0 0)
(0.11633 0.000839891 0 6.69711e-06 0 0)
(0.0951519 0.000663261 0 6.20754e-06 0 0)
(0.0889169 0.000284578 0 1.62846e-06 0 0)
(0.107657 0.000142612 0 4.30658e-07 0 0)
(0.126859 0.000480067 0 3.31114e-06 0 0)
(0.12919 9.35115e-05 0 9.72099e-07 0 0)
(0.132826 0.00124169 0 2.00888e-05 0 0)
(0.129736 -0.000244344 0 1.06038e-05 0 0)
(0.138306 0.00346489 0 0.000115662 0 0)
(0.132949 0.000655627 0 1.66416e-05 0 0)
(0.1372 0.00878304 0 0.00070362 0 0)
(0.136653 0.00899703 0 0.000772096 0 0)
(0.136796 0.0243581 0 0.00533432 0 0)
(0.156385 0.0481217 0 0.0178949 0 0)
(0.19559 0.0924322 0 0.0469836 0 0)
(0.32335 0.198293 0 0.13001 0 0)
(0.666597 -0.00262018 0 1.20679e-05 0 0)
(0.00867188 -2.40512e-05 0 4.93993e-05 0 0)
(0.0341069 -0.000190923 0 1.67616e-05 0 0)
(0.0870721 -0.000578209 0 4.18172e-06 0 0)
(0.11633 -0.000839997 0 6.78795e-06 0 0)
(0.0951605 -0.000662633 0 6.53732e-06 0 0)
(0.0889123 -0.000195172 0 8.89593e-07 0 0)
(0.107689 -0.000126119 0 4.61869e-07 0 0)
(0.126814 5.24135e-05 0 3.8433e-07 0 0)
(0.129357 -0.000337971 0 5.28984e-06 0 0)
(0.132678 0.00097245 0 1.0971e-05 0 0)
(0.130203 -0.000313153 0 1.21141e-05 0 0)
(0.138145 0.00326832 0 0.00010142 0 0)
(0.133909 0.000786962 0 1.58038e-05 0 0)
(0.137936 0.00833477 0 0.000629321 0 0)
(0.138719 0.00927321 0 0.000803031 0 0)
(0.141027 0.0238004 0 0.00488906 0 0)
(0.162952 0.0473355 0 0.0163856 0 0)
(0.206929 0.0899783 0 0.0417806 0 0)
(0.334837 0.183085 0 0.105392 0 0)
(0.666354 -0.00797201 0 0.000111104 0 0)
(0.00860542 -0.000101565 0 0.00044457 0 0)
(0.0341938 -0.000594749 0 0.000149539 0 0)
(0.0879749 -0.00174165 0 3.74221e-05 0 0)
(0.11743 -0.0025391 0 6.11059e-05 0 0)
(0.0962073 -0.00199623 0 5.74568e-05 0 0)
(0.0896313 -0.000671827 0 9.60516e-06 0 0)
(0.108188 -0.000390209 0 2.55579e-06 0 0)
(0.127094 -0.000374881 0 2.30946e-06 0 0)
(0.129729 -0.000765335 0 1.5339e-05 0 0)
(0.132697 0.000693793 0 4.68842e-06 0 0)
(0.130695 -0.000376093 0 1.35483e-05 0 0)
(0.138072 0.00304423 0 8.67321e-05 0 0)
(0.134795 0.000908042 0 1.54629e-05 0 0)
(0.138726 0.00783317 0 0.000552544 0 0)
(0.140727 0.00948209 0 0.000823395 0 0)
(0.145045 0.0230281 0 0.00440875 0 0)
(0.169232 0.0461016 0 0.0147531 0 0)
(0.218045 0.0872184 0 0.0370636 0 0)
(0.347693 0.173622 0 0.0908312 0 0)
(0.665863 -0.0135448 0 0.00031829 0 0)
(0.00848673 -0.000268397 0 0.00123767 0 0)
(0.0344045 -0.00107788 0 0.00040905 0 0)
(0.0898087 -0.00294434 0 0.000104569 0 0)
(0.119664 -0.00429624 0 0.000171304 0 0)
(0.0983312 -0.00335353 0 0.000157327 0 0)
(0.0911001 -0.00113903 0 2.6535e-05 0 0)
(0.109168 -0.000639909 0 6.29765e-06 0 0)
(0.1277 -0.00079517 0 8.84126e-06 0 0)
(0.130311 -0.00118245 0 3.042e-05 0 0)
(0.13288 0.000411407 0 1.51359e-06 0 0)
(0.131216 -0.000432552 0 1.48141e-05 0 0)
(0.138077 0.0027982 0 7.22699e-05 0 0)
(0.135613 0.00101733 0 1.54716e-05 0 0)
(0.139556 0.0072936 0 0.000476603 0 0)
(0.142648 0.00958314 0 0.000824614 0 0)
(0.148889 0.0220932 0 0.00391932 0 0)
(0.175362 0.0447381 0 0.0132381 0 0)
(0.227893 0.0837838 0 0.0325797 0 0)
(0.354911 0.1582 0 0.0732279 0 0)
(0.665114 -0.0194868 0 0.000652328 0 0)
(0.00834601 -0.000588142 0 0.0024351 0 0)
(0.0348135 -0.00168892 0 0.000783561 0 0)
(0.0926322 -0.00421509 0 0.000207303 0 0)
(0.123103 -0.00615175 0 0.00034076 0 0)
(0.10161 -0.00474868 0 0.000302833 0 0)
(0.0933726 -0.00158757 0 4.91906e-05 0 0)
(0.110653 -0.000864251 0 1.09374e-05 0 0)
(0.128647 -0.00120051 0 1.9255e-05 0 0)
(0.13111 -0.00158376 0 4.94478e-05 0 0)
(0.133227 0.000131653 0 1.41981e-06 0 0)
(0.131767 -0.000481947 0 1.5836e-05 0 0)
(0.138154 0.00253709 0 5.86879e-05 0 0)
(0.136366 0.001109 0 1.56852e-05 0 0)
(0.140411 0.00671793 0 0.000402898 0 0)
(0.144486 0.00959612 0 0.000811615 0 0)
(0.152536 0.0210148 0 0.00343409 0 0)
(0.181096 0.042981 0 0.0116846 0 0)
(0.236742 0.0794251 0 0.0280359 0 0)
(0.3651 0.147328 0 0.0612938 0 0)
(0.664087 -0.025948 0 0.00114377 0 0)
(0.00823088 -0.00113193 0 0.00404458 0 0)
(0.0355334 -0.00247429 0 0.00125579 0 0)
(0.0965332 -0.00559067 0 0.000349085 0 0)
(0.127859 -0.00814996 0 0.000574998 0 0)
(0.106163 -0.00619587 0 0.000489271 0 0)
(0.0965314 -0.00200635 0 7.42072e-05 0 0)
(0.112682 -0.00105079 0 1.55209e-05 0 0)
(0.129949 -0.00158246 0 3.23884e-05 0 0)
(0.132133 -0.00196257 0 7.09879e-05 0 0)
(0.133737 -0.000138772 0 4.07057e-06 0 0)
(0.132351 -0.000523625 0 1.65387e-05 0 0)
(0.138295 0.00226724 0 4.64405e-05 0 0)
(0.137057 0.00117838 0 1.5903e-05 0 0)
(0.141279 0.00611723 0 0.000333564 0 0)
(0.146228 0.00951602 0 0.000784312 0 0)
(0.155954 0.0197639 0 0.00294984 0 0)
(0.186572 0.0410189 0 0.0102074 0 0)
(0.244974 0.0751527 0 0.0241598 0 0)
(0.372281 0.134974 0 0.0501609 0 0)
(0.662763 -0.0330805 0 0.00183831 0 0)
(0.00821213 -0.00197901 0 0.00607614 0 0)
(0.0367183 -0.00347236 0 0.00180383 0 0)
(0.101631 -0.00711529 0 0.000535906 0 0)
(0.134084 -0.0103391 0 0.000881984 0 0)
(0.11216 -0.00770598 0 0.000710499 0 0)
(0.100692 -0.00237855 0 9.75382e-05 0 0)
(0.11531 -0.00118379 0 1.90187e-05 0 0)
(0.131633 -0.0019306 0 4.66659e-05 0 0)
(0.133395 -0.00231161 0 9.32846e-05 0 0)
(0.134414 -0.00039286 0 8.83684e-06 0 0)
(0.13297 -0.000556818 0 1.68549e-05 0 0)
(0.138495 0.00199521 0 3.58191e-05 0 0)
(0.137687 0.00122292 0 1.59613e-05 0 0)
(0.14215 0.00549656 0 0.000269739 0 0)
(0.147863 0.00934474 0 0.000744143 0 0)
(0.15915 0.0183758 0 0.00248275 0 0)
(0.191719 0.038876 0 0.008822 0 0)
(0.252129 0.0701339 0 0.0203508 0 0)
(0.379249 0.122419 0 0.0402093 0 0)
(0.661114 -0.0410375 0 0.00280077 0 0)
(0.00838707 -0.00321969 0 0.00853839 0 0)
(0.0385639 -0.00471535 0 0.00240274 0 0)
(0.108076 -0.00884556 0 0.000778089 0 0)
(0.141982 -0.0127728 0 0.00127271 0 0)
(0.119819 -0.00928828 0 0.000959542 0 0)
(0.106004 -0.00268293 0 0.000115224 0 0)
(0.118603 -0.0012447 0 2.06127e-05 0 0)
(0.133729 -0.00223301 0 6.02425e-05 0 0)
(0.134909 -0.00262226 0 0.00011435 0 0)
(0.135258 -0.000623659 0 1.48624e-05 0 0)
(0.133626 -0.00058004 0 1.67084e-05 0 0)
(0.138746 0.00172652 0 2.69209e-05 0 0)
(0.138258 0.00123941 0 1.56959e-05 0 0)
(0.143013 0.00486316 0 0.000212467 0 0)
(0.149385 0.00908708 0 0.000693424 0 0)
(0.162106 0.0168473 0 0.00203725 0 0)
(0.196525 0.0365321 0 0.00751697 0 0)
(0.25857 0.064882 0 0.0169079 0 0)
(0.385755 0.110977 0 0.0323062 0 0)
(0.659115 -0.0499724 0 0.00412053 0 0)
(0.00888741 -0.00495362 0 0.0114382 0 0)
(0.0413097 -0.00622582 0 0.00302927 0 0)
(0.116051 -0.010851 0 0.00109223 0 0)
(0.15181 -0.0155101 0 0.00176175 0 0)
(0.12942 -0.0109453 0 0.00122858 0 0)
(0.112658 -0.00288924 0 0.000123801 0 0)
(0.122653 -0.00120941 0 1.9952e-05 0 0)
(0.136277 -0.00247411 0 7.10686e-05 0 0)
(0.136696 -0.00288425 0 0.000132004 0 0)
(0.136276 -0.000823248 0 2.11194e-05 0 0)
(0.134322 -0.000591364 0 1.603e-05 0 0)
(0.139043 0.0014666 0 1.97184e-05 0 0)
(0.138772 0.0012258 0 1.49981e-05 0 0)
(0.143861 0.00422422 0 0.000162435 0 0)
(0.150781 0.00874411 0 0.000633816 0 0)
(0.164823 0.015187 0 0.00162053 0 0)
(0.200994 0.0340673 0 0.00632486 0 0)
(0.264183 0.0593268 0 0.0137757 0 0)
(0.391405 0.0990655 0 0.0252479 0 0)
(0.65674 -0.0600395 0 0.00591798 0 0)
(0.00988337 -0.00728812 0 0.0147712 0 0)
(0.0452375 -0.00802291 0 0.00366646 0 0)
(0.125773 -0.013217 0 0.00150407 0 0)
(0.16389 -0.0186191 0 0.0023688 0 0)
(0.141311 -0.0126745 0 0.00151008 0 0)
(0.120887 -0.00295821 0 0.000121269 0 0)
(0.127564 -0.00104848 0 1.76426e-05 0 0)
(0.139328 -0.00263629 0 7.72567e-05 0 0)
(0.138777 -0.00308582 0 0.000144124 0 0)
(0.137471 -0.000983324 0 2.65177e-05 0 0)
(0.135058 -0.000588264 0 1.47665e-05 0 0)
(0.139381 0.00122143 0 1.40867e-05 0 0)
(0.139228 0.00118017 0 1.38068e-05 0 0)
(0.144686 0.00358703 0 0.000120006 0 0)
(0.15204 0.00831835 0 0.000567388 0 0)
(0.167301 0.0134096 0 0.00124052 0 0)
(0.205107 0.0314851 0 0.0052414 0 0)
(0.269007 0.053465 0 0.0109388 0 0)
(0.396712 0.0874904 0 0.019388 0 0)
(0.653972 -0.0713938 0 0.00835258 0 0)
(0.0115913 -0.0103342 0 0.018523 0 0)
(0.05067 -0.0101252 0 0.00430858 0 0)
(0.137502 -0.0160365 0 0.00204822 0 0)
(0.178629 -0.0221758 0 0.00311943 0 0)
(0.155933 -0.0144718 0 0.00179979 0 0)
(0.130985 -0.00283717 0 0.000108004 0 0)
(0.133473 -0.000723685 0 1.57169e-05 0 0)
(0.142941 -0.00269705 0 7.72855e-05 0 0)
(0.14118 -0.00321458 0 0.000148865 0 0)
(0.13885 -0.00109622 0 3.0077e-05 0 0)
(0.135837 -0.000568498 0 1.29254e-05 0 0)
(0.139755 0.000995854 0 9.80453e-06 0 0)
(0.139626 0.00110098 0 1.21263e-05 0 0)
(0.145484 0.00295989 0 8.52647e-05 0 0)
(0.15315 0.00780802 0 0.000495662 0 0)
(0.169543 0.0115348 0 0.000904788 0 0)
(0.208855 0.0288049 0 0.00426802 0 0)
(0.273068 0.0473459 0 0.00841511 0 0)
(0.401591 0.0761141 0 0.0145555 0 0)
(0.650794 -0.084181 0 0.0116303 0 0)
(0.0142802 -0.0142079 0 0.0226741 0 0)
(0.0579755 -0.0125702 0 0.00497444 0 0)
(0.151574 -0.0194169 0 0.00276937 0 0)
(0.196576 -0.0262436 0 0.00403674 0 0)
(0.173891 -0.0163301 0 0.00209556 0 0)
(0.143356 -0.0024679 0 8.89019e-05 0 0)
(0.140567 -0.000187133 0 1.80413e-05 0 0)
(0.1472 -0.00262186 0 7.00769e-05 0 0)
(0.143938 -0.00324901 0 0.000144261 0 0)
(0.140424 -0.00114955 0 3.08367e-05 0 0)
(0.136662 -0.000527556 0 1.0512e-05 0 0)
(0.14016 0.000795301 0 6.62827e-06 0 0)
(0.139966 0.000985892 0 1.0006e-05 0 0)
(0.14625 0.00235487 0 5.80207e-05 0 0)
(0.154102 0.00720487 0 0.000419588 0 0)
(0.171551 0.00958183 0 0.00061928 0 0)
(0.21222 0.0260658 0 0.00340986 0 0)
(0.276385 0.0408728 0 0.00617295 0 0)
(0.406182 0.0650393 0 0.0106976 0 0)
(0.647205 -0.0985148 0 0.0160049 0 0)
(0.0182984 -0.0190151 0 0.0271551 0 0)
(0.0676068 -0.0154561 0 0.00573105 0 0)
(0.168531 -0.0235254 0 0.00373754 0 0)
(0.218482 -0.0309137 0 0.00515504 0 0)
(0.195935 -0.0181892 0 0.00238959 0 0)
(0.158581 -0.00176739 0 7.15273e-05 0 0)
(0.149155 0.00061148 0 3.18487e-05 0 0)
(0.152253 -0.00238488 0 5.68616e-05 0 0)
(0.147115 -0.00317501 0 0.000130043 0 0)
(0.142211 -0.00113452 0 2.83923e-05 0 0)
(0.137536 -0.000462457 0 7.68885e-06 0 0)
(0.140593 0.000623334 0 4.31624e-06 0 0)
(0.140248 0.000833041 0 7.60057e-06 0 0)
(0.146974 0.00177654 0 3.76248e-05 0 0)
(0.154881 0.00651887 0 0.000343043 0 0)
(0.173327 0.00753656 0 0.000385886 0 0)
(0.215136 0.0233175 0 0.002671 0 0)
(0.278986 0.0339508 0 0.00420983 0 0)
(0.410426 0.054369 0 0.00775494 0 0)
(0.643441 -0.114499 0 0.0217792 0 0)
(0.0241688 -0.0248376 0 0.0317002 0 0)
(0.0802589 -0.0190133 0 0.00667934 0 0)
(0.189387 -0.0286623 0 0.00507006 0 0)
(0.244139 -0.036268 0 0.00656627 0 0)
(0.220491 -0.0198453 0 0.00270869 0 0)
(0.175868 -0.000626519 0 7.18289e-05 0 0)
(0.159033 0.00174051 0 6.85096e-05 0 0)
(0.15797 -0.00193857 0 4.06582e-05 0 0)
(0.150553 -0.00296807 0 0.000106922 0 0)
(0.144072 -0.00103808 0 2.28539e-05 0 0)
(0.138342 -0.000366851 0 4.68719e-06 0 0)
(0.140921 0.000486456 0 2.71363e-06 0 0)
(0.140372 0.000640982 0 5.17063e-06 0 0)
(0.147443 0.00123842 0 2.32333e-05 0 0)
(0.155366 0.00571975 0 0.000265484 0 0)
(0.174544 0.0055011 0 0.000214384 0 0)
(0.217033 0.0203851 0 0.00201163 0 0)
(0.280395 0.0268016 0 0.00261933 0 0)
(0.412279 0.0432958 0 0.00550392 0 0)
(0.641559 -0.132383 0 0.0292837 0 0)
(0.0327649 -0.0318154 0 0.0359137 0 0)
(0.0967939 -0.0236304 0 0.00802168 0 0)
(0.212891 -0.0348453 0 0.00686619 0 0)
(0.260386 -0.0406964 0 0.00823935 0 0)
(0.225615 -0.019601 0 0.00309251 0 0)
(0.177796 0.00101592 0 0.000118909 0 0)
(0.159217 0.00295919 0 0.000136807 0 0)
(0.156196 -0.00121796 0 2.68243e-05 0 0)
(0.147556 -0.00246318 0 7.51568e-05 0 0)
(0.140497 -0.000795971 0 1.49401e-05 0 0)
(0.134519 -0.000220795 0 2.0039e-06 0 0)
(0.136601 0.000388832 0 1.84824e-06 0 0)
(0.136301 0.000416187 0 3.26332e-06 0 0)
(0.14245 0.000780923 0 1.37453e-05 0 0)
(0.151048 0.00473506 0 0.000194592 0 0)
(0.168722 0.00351349 0 0.000103412 0 0)
(0.209096 0.0172236 0 0.00147548 0 0)
(0.270903 0.0190983 0 0.00141442 0 0)
(0.391283 0.0315069 0 0.00399638 0 0)
(0.649776 -0.153737 0 0.0390712 0 0)
(0.0441938 -0.0398021 0 0.0400833 0 0)
(0.111721 -0.0285097 0 0.010247 0 0)
(0.208839 -0.0378434 0 0.00899807 0 0)
(0.205282 -0.0348163 0 0.0093297 0 0)
(0.146332 -0.0114024 0 0.00318362 0 0)
(0.11209 0.00251712 0 0.000205529 0 0)
(0.106888 0.00233354 0 0.000202924 0 0)
(0.107234 -0.00063521 0 1.94897e-05 0 0)
(0.101957 -0.00123735 0 4.57754e-05 0 0)
(0.0982471 -0.000272502 0 8.08855e-06 0 0)
(0.0955849 -3.3041e-05 0 5.16167e-07 0 0)
(0.0971153 0.000220161 0 1.56816e-06 0 0)
(0.0977014 0.000149144 0 2.38235e-06 0 0)
(0.100655 0.000474865 0 8.52157e-06 0 0)
(0.108011 0.0028317 0 0.000138756 0 0)
(0.119375 0.00181545 0 4.89273e-05 0 0)
(0.145956 0.0120781 0 0.00107617 0 0)
(0.196994 0.0104311 0 0.000695237 0 0)
(0.270601 0.0198676 0 0.00327185 0 0)
(0.682999 -0.184378 0 0.0534201 0 0)
(0.0461204 -0.0421855 0 0.0445071 0 0)
(0.0898738 -0.0227545 0 0.0127632 0 0)
(0.107815 -0.0202053 0 0.00983542 0 0)
(0.0623709 -0.00467652 0 0.00813292 0 0)
(0.050208 0.00606334 0 0.00246509 0 0)
(0.0661494 0.00080361 0 0.000241381 0 0)
(0.0707531 -0.00228535 0 0.000207143 0 0)
(0.0668868 -0.000510578 0 1.54554e-05 0 0)
(0.0675513 0.000782412 0 2.92846e-05 0 0)
(0.0700083 0.000366077 0 4.86463e-06 0 0)
(0.0720247 1.34814e-05 0 1.67702e-07 0 0)
(0.0731162 -0.000148374 0 1.17616e-06 0 0)
(0.0703898 -0.000154657 0 1.83094e-06 0 0)
(0.0749053 0.000217713 0 5.26634e-06 0 0)
(0.0693871 -0.000801127 0 8.75841e-05 0 0)
(0.0707967 0.00066084 0 2.59439e-05 0 0)
(0.0782199 0.00228447 0 0.000722259 0 0)
(0.0760648 0.0015025 0 0.000414725 0 0)
(0.0998216 0.0139854 0 0.00325278 0 0)
(0.71099 -0.221902 0 0.0744484 0 0)
(0.0183793 -0.0113027 0 0.0440595 0 0)
(0.0943206 0.014038 0 0.0117307 0 0)
(0.136005 0.0243092 0 0.00711515 0 0)
(0.259266 0.0336502 0 0.00476307 0 0)
(0.422586 0.016921 0 0.00132587 0 0)
(0.479977 -0.00611251 0 0.000191757 0 0)
(0.453751 -0.00762399 0 0.0001514 0 0)
(0.432104 -5.95167e-05 0 1.22554e-05 0 0)
(0.441161 0.00261581 0 1.77958e-05 0 0)
(0.450912 0.000709953 0 2.64593e-06 0 0)
(0.45537 -0.00011699 0 1.38637e-07 0 0)
(0.455448 -0.000401756 0 7.09611e-07 0 0)
(0.447037 -0.000322058 0 1.31042e-06 0 0)
(0.457722 -0.000153328 0 2.92188e-06 0 0)
(0.431552 -0.004029 0 4.61491e-05 0 0)
(0.419651 -0.000530313 0 1.74799e-05 0 0)
(0.418836 -0.0085579 0 0.000409113 0 0)
(0.297858 -0.00510345 0 0.000278184 0 0)