/*--------------------------------*- C++ -*----------------------------------*\
| =========                 |                                                 |
| \\      /  F ield         | OpenFOAM: The Open Source CFD Toolbox           |
|  \\    /   O peration     | Version:  2.4.0                                 |
|   \\  /    A nd           | Web:      www.OpenFOAM.org                      |
|    \\/     M anipulation  |                                                 |
\*---------------------------------------------------------------------------*/
FoamFile
{
    version     2.0;
    format      ascii;
    class       volScalarField;
    location    "0.052";
    object      nuSgs;
}
// * * * * * * * * * * * * * * * * * * * * * * * * * * * * * * * * * * * * * //

dimensions      [0 2 -1 0 0 0 0];

internalField   nonuniform List<scalar> 
4400
(
0.00205003
0.00194062
0.00169209
0.0015345
0.00142701
0.00137381
0.00133288
0.00130672
0.00130843
0.00128436
0.00139173
0.00173361
0.00172345
0.00167052
0.00158246
0.00152515
0.00148065
0.00144366
0.00142466
0.00143714
0.000708658
0.00118912
0.00136233
0.00141695
0.00140477
0.00137625
0.00134972
0.00132259
0.00128894
0.00130068
0.000264422
0.000650792
0.000867771
0.00101155
0.00108511
0.00111128
0.0011243
0.00112144
0.00109832
0.00109717
8.57792e-05
0.000260533
0.000436071
0.000571766
0.000693521
0.000757991
0.000828647
0.00084865
0.000857309
0.000851094
2.49757e-05
8.79907e-05
0.000165508
0.000236464
0.000345293
0.000396322
0.00049497
0.000527398
0.000574475
0.000563061
7.67647e-06
2.67533e-05
4.8987e-05
7.52953e-05
0.000125243
0.000153115
0.000215563
0.000250295
0.000291147
0.00028762
4.28178e-06
9.63731e-06
1.63569e-05
2.22041e-05
3.55797e-05
4.28259e-05
6.41329e-05
8.96605e-05
9.57857e-05
0.000107109
3.89689e-06
7.1081e-06
1.0215e-05
1.10915e-05
1.29662e-05
1.31348e-05
1.74572e-05
2.29456e-05
2.34179e-05
2.8596e-05
3.84402e-06
7.17412e-06
8.98729e-06
9.7679e-06
9.89065e-06
9.6625e-06
9.68236e-06
9.87428e-06
1.10829e-05
1.1823e-05
3.84771e-06
7.31588e-06
8.78014e-06
9.71065e-06
9.79539e-06
9.57883e-06
9.52001e-06
9.75703e-06
1.13882e-05
1.81359e-05
3.8987e-06
7.74868e-06
9.11287e-06
1.06065e-05
1.12883e-05
1.25917e-05
1.47502e-05
2.04384e-05
3.31494e-05
6.4169e-05
4.24662e-06
1.09596e-05
1.39052e-05
2.05361e-05
2.92217e-05
4.30812e-05
5.78608e-05
8.589e-05
0.000120768
0.000197484
7.88123e-06
2.73429e-05
4.40641e-05
7.57156e-05
0.000111132
0.000161514
0.000198586
0.000267575
0.000317997
0.000429808
2.59212e-05
8.94532e-05
0.000151362
0.00024291
0.000332356
0.000411307
0.000472288
0.0005574
0.00060583
0.000700612
8.8608e-05
0.000267205
0.000420816
0.000573361
0.000693678
0.000762457
0.00082133
0.000869403
0.000898673
0.00094796
0.000272282
0.000644934
0.000868193
0.0010092
0.00108827
0.00110828
0.00113016
0.00113047
0.00113588
0.00114386
0.000726145
0.00117762
0.00136496
0.00141332
0.00140622
0.00137219
0.00135631
0.00131851
0.00131023
0.00128756
0.00139797
0.00172485
0.00172522
0.00166574
0.00158882
0.00151433
0.00148384
0.0014232
0.00140475
0.00134709
0.00205328
0.00193355
0.00169788
0.00152665
0.00143106
0.00135868
0.00132705
0.00126419
0.00123377
0.00113348
0.00057587
0.000495645
0.00046509
0.000438183
0.000410772
0.000390952
0.000400914
0.000429236
0.000422269
0.000328414
0.000310745
0.000279033
0.000254285
0.000250196
0.000242741
0.000216253
0.000209903
0.000216286
0.000228045
0.000220889
0.000182395
0.000118315
8.7535e-05
8.63952e-05
0.000105244
0.000166169
0.000237994
0.000249445
0.00024101
0.000224108
0.000206055
0.000193594
0.000189613
0.000188761
0.000185864
0.000176243
0.000156902
0.000135964
0.000120267
0.000113971
0.000112804
0.000111847
0.000109209
0.000101812
8.91947e-05
7.87727e-05
6.98406e-05
6.26514e-05
5.4132e-05
4.65945e-05
3.80561e-05
3.11649e-05
2.49506e-05
1.96798e-05
1.5866e-05
1.26462e-05
9.88886e-06
7.91541e-06
7.68616e-06
6.46433e-06
9.30574e-06
8.08595e-06
1.20679e-05
1.04072e-05
1.39211e-05
1.24894e-05
1.50483e-05
1.4175e-05
1.54171e-05
1.52072e-05
1.60078e-05
1.57857e-05
1.70523e-05
1.6626e-05
1.76781e-05
1.77232e-05
1.86193e-05
1.84272e-05
1.95344e-05
1.98455e-05
2.08486e-05
2.16773e-05
2.39279e-05
2.52562e-05
2.97405e-05
3.04714e-05
3.5484e-05
3.5182e-05
3.43001e-05
2.78659e-05
2.07402e-05
1.29905e-05
9.06334e-06
8.86883e-06
1.08035e-05
1.02768e-05
1.6282e-05
2.29623e-05
7.15177e-05
0.000216674
0.000698185
0.000595556
0.000524876
0.000473917
0.000433934
0.00039273
0.000382358
0.0003988
0.000423098
0.0004115
0.000373062
0.000304664
0.000274881
0.000267149
0.000254351
0.000243801
0.000245581
0.000246262
0.00023804
0.000209993
0.000136729
9.30582e-05
8.14916e-05
9.00266e-05
0.000138811
0.000233229
0.000262845
0.00025735
0.000235187
0.00021143
0.000192777
0.000179057
0.000177493
0.000179294
0.000181373
0.00017836
0.000166386
0.000146435
0.000129014
0.00011945
0.000115758
0.00011315
0.000109514
0.000100581
8.82501e-05
7.81186e-05
6.90696e-05
6.19828e-05
5.31203e-05
4.59528e-05
3.70588e-05
3.09615e-05
2.40757e-05
1.96894e-05
1.49028e-05
1.2181e-05
1.00916e-05
8.07354e-06
9.72329e-06
8.94145e-06
1.18207e-05
1.0998e-05
1.18465e-05
1.19098e-05
1.17894e-05
1.25948e-05
1.27653e-05
1.34208e-05
1.37355e-05
1.46501e-05
1.51714e-05
1.57633e-05
1.70168e-05
1.72173e-05
1.7879e-05
1.83703e-05
1.97797e-05
2.01091e-05
2.17406e-05
2.18018e-05
2.3074e-05
2.31262e-05
2.51821e-05
2.56663e-05
2.76262e-05
2.89556e-05
3.27713e-05
3.51877e-05
3.91411e-05
4.08322e-05
4.19735e-05
3.39219e-05
2.95449e-05
1.60848e-05
1.58572e-05
1.32904e-05
2.19909e-05
2.41885e-05
6.93309e-05
0.000184516
0.000657009
0.000588203
0.000524869
0.000476368
0.000438417
0.000390558
0.000361103
0.00036282
0.00037195
0.000406501
0.000397771
0.000353008
0.000315693
0.0003051
0.000291907
0.000278328
0.000268529
0.000256083
0.000229327
0.000152267
0.000100008
7.92902e-05
8.0323e-05
0.000109912
0.000200636
0.000272692
0.000273922
0.000258202
0.000215994
0.000191956
0.000181566
0.00017289
0.000170157
0.000170614
0.000174242
0.000175501
0.000171573
0.000157504
0.000141131
0.000128841
0.000120454
0.000116079
0.000110331
9.96327e-05
8.67163e-05
7.67054e-05
6.74836e-05
6.0602e-05
5.1503e-05
4.48112e-05
3.56116e-05
3.031e-05
2.28916e-05
1.92313e-05
1.43585e-05
1.16644e-05
1.0374e-05
8.65734e-06
9.12725e-06
8.88211e-06
7.9042e-06
8.91751e-06
8.36224e-06
9.87192e-06
1.0194e-05
1.16941e-05
1.17578e-05
1.26856e-05
1.28074e-05
1.37493e-05
1.38977e-05
1.51932e-05
1.54553e-05
1.66178e-05
1.68235e-05
1.78272e-05
1.86041e-05
1.95273e-05
2.12225e-05
2.17361e-05
2.36415e-05
2.40751e-05
2.74436e-05
2.7486e-05
3.1585e-05
3.13051e-05
3.81822e-05
3.80637e-05
4.78022e-05
4.7113e-05
5.83233e-05
4.92655e-05
5.19384e-05
3.56839e-05
3.40208e-05
2.22071e-05
4.05639e-05
3.03595e-05
7.26063e-05
0.000151831
0.000564193
0.000520028
0.000459722
0.000421501
0.000401787
0.000365834
0.000322277
0.00031489
0.000317319
0.000344874
0.000368073
0.00035911
0.00033968
0.000323822
0.000300018
0.000281062
0.000265192
0.000235018
0.000159221
0.00010244
7.70384e-05
7.44505e-05
8.72441e-05
0.000152495
0.000266025
0.000288431
0.000277998
0.000231636
0.00019416
0.000182636
0.000177397
0.000171586
0.000168446
0.000167969
0.000169547
0.000172883
0.000172325
0.000165827
0.000148896
0.0001341
0.000123877
0.00011857
0.000110157
9.772e-05
8.47769e-05
7.52421e-05
6.63018e-05
5.94959e-05
5.01616e-05
4.35857e-05
3.41517e-05
2.92508e-05
2.16209e-05
1.83702e-05
1.36548e-05
1.14419e-05
9.81375e-06
8.76705e-06
7.72652e-06
7.79226e-06
6.74427e-06
7.18593e-06
6.74193e-06
7.78451e-06
7.10235e-06
8.61122e-06
8.73793e-06
1.01214e-05
1.03178e-05
1.17036e-05
1.14595e-05
1.32915e-05
1.33747e-05
1.49663e-05
1.49087e-05
1.67322e-05
1.67481e-05
1.84666e-05
1.88848e-05
2.09364e-05
2.12596e-05
2.33019e-05
2.43838e-05
2.58894e-05
2.87578e-05
3.02698e-05
3.73272e-05
3.78827e-05
5.21047e-05
5.17736e-05
8.10012e-05
7.66825e-05
0.000116164
7.88582e-05
0.000106982
6.23006e-05
6.76145e-05
4.52606e-05
7.08877e-05
0.000121134
0.000440821
0.000416462
0.00036012
0.000322697
0.000313453
0.000302615
0.000272683
0.000254969
0.00025541
0.000261808
0.000281956
0.000316373
0.000313676
0.00029917
0.000259529
0.000230674
0.000196457
0.000140713
9.44033e-05
7.09268e-05
6.70057e-05
7.30631e-05
0.000109858
0.000220488
0.000296926
0.00029372
0.00026335
0.000203976
0.000184807
0.000179302
0.000176496
0.000172329
0.000169808
0.00016733
0.000167152
0.000169948
0.000171988
0.000169604
0.000156387
0.000138062
0.000126741
0.000120027
0.00010952
9.65595e-05
8.38679e-05
7.46214e-05
6.53994e-05
5.82842e-05
4.83461e-05
4.1732e-05
3.22936e-05
2.75911e-05
2.03193e-05
1.72102e-05
1.2757e-05
1.10388e-05
8.8717e-06
8.38969e-06
6.87376e-06
6.68326e-06
5.84294e-06
6.03074e-06
5.44974e-06
6.01408e-06
5.82005e-06
6.78229e-06
6.65637e-06
7.98591e-06
7.43756e-06
8.92144e-06
8.5218e-06
1.05907e-05
1.00588e-05
1.19861e-05
1.14069e-05
1.37214e-05
1.33683e-05
1.59349e-05
1.57678e-05
1.83487e-05
1.82491e-05
2.11659e-05
2.16198e-05
2.47508e-05
2.54604e-05
2.92839e-05
3.08524e-05
3.61279e-05
4.02434e-05
4.62625e-05
6.87938e-05
7.26437e-05
0.000143625
0.000127659
0.000240897
0.000184945
0.000221981
0.000116896
0.000103263
0.000114901
0.000290699
0.000277396
0.000236745
0.000203314
0.000197552
0.000194539
0.000185416
0.000168793
0.000168421
0.000170281
0.000179408
0.000216459
0.000222443
0.000210712
0.000169473
0.000135006
0.00010513
7.7947e-05
5.95756e-05
5.85842e-05
6.39798e-05
8.67204e-05
0.000153185
0.000279353
0.000312327
0.00029424
0.000226764
0.000190058
0.000181437
0.000178496
0.000176844
0.000173246
0.000170932
0.000168075
0.000166827
0.00016848
0.000172099
0.000171418
0.00015989
0.000140719
0.000130049
0.000121756
0.000109125
9.52768e-05
8.24033e-05
7.30562e-05
6.3247e-05
5.56788e-05
4.57367e-05
3.91873e-05
3.03445e-05
2.58254e-05
1.91628e-05
1.62093e-05
1.21535e-05
1.06383e-05
8.28042e-06
7.75612e-06
6.09636e-06
5.88166e-06
5.09444e-06
5.25638e-06
4.81054e-06
5.26707e-06
5.10339e-06
5.82272e-06
5.57618e-06
6.46211e-06
6.24664e-06
7.25126e-06
7.21607e-06
8.67486e-06
8.47634e-06
9.96685e-06
9.61549e-06
1.1318e-05
1.13602e-05
1.35389e-05
1.31984e-05
1.55056e-05
1.53495e-05
1.80013e-05
1.834e-05
2.19491e-05
2.20886e-05
2.61083e-05
2.77636e-05
3.43923e-05
3.72242e-05
4.39742e-05
5.61518e-05
6.81334e-05
9.07897e-05
0.000106242
0.000151166
0.000166924
0.000203574
0.000190282
0.000190172
0.000136576
0.000151818
0.000146245
0.000126768
0.000108482
0.000105783
0.000105356
0.00010186
9.22217e-05
8.8973e-05
8.83695e-05
9.25913e-05
0.000118464
0.000125948
0.000118493
9.34073e-05
7.08774e-05
5.60269e-05
4.67397e-05
4.83272e-05
5.5587e-05
7.64921e-05
0.000122299
0.000221928
0.000320854
0.000319316
0.000268759
0.000204073
0.000183683
0.000180297
0.000178518
0.00017714
0.000174118
0.000169999
0.000167464
0.000166622
0.000168614
0.000172758
0.000172589
0.000162315
0.000144157
0.000133381
0.000122467
0.000107814
9.36822e-05
8.13545e-05
7.20343e-05
6.20413e-05
5.39265e-05
4.37733e-05
3.68986e-05
2.86734e-05
2.41153e-05
1.85343e-05
1.5325e-05
1.19114e-05
1.00913e-05
7.91479e-06
7.19577e-06
5.41149e-06
5.09985e-06
4.40393e-06
4.52823e-06
4.09568e-06
4.5461e-06
4.44929e-06
5.08098e-06
5.13302e-06
5.58712e-06
5.66226e-06
6.40655e-06
6.4539e-06
7.50626e-06
7.30309e-06
8.48236e-06
8.4998e-06
9.71005e-06
9.88028e-06
1.18613e-05
1.17692e-05
1.3353e-05
1.39519e-05
1.64042e-05
1.66424e-05
1.92013e-05
2.00267e-05
2.28791e-05
2.46421e-05
2.94165e-05
3.27551e-05
3.74015e-05
6.05858e-05
6.50692e-05
0.000127288
0.000115748
0.000215989
0.000189793
0.000224827
0.000208433
0.000205844
0.000175579
5.74597e-05
5.59217e-05
5.09218e-05
4.48795e-05
4.37974e-05
4.36581e-05
4.27495e-05
3.93961e-05
3.6449e-05
3.4796e-05
3.67711e-05
5.15401e-05
5.74383e-05
5.42015e-05
4.31032e-05
3.40411e-05
3.43256e-05
3.76577e-05
4.77187e-05
7.18214e-05
0.000112362
0.000179842
0.000296578
0.000338015
0.000320259
0.000238214
0.00019264
0.000180411
0.00017937
0.000178676
0.000177611
0.000174345
0.00017007
0.000167163
0.000166654
0.000169098
0.000173511
0.000173525
0.00016327
0.00014639
0.00013519
0.000122275
0.000106771
9.28182e-05
8.04416e-05
6.98213e-05
5.8092e-05
4.8517e-05
3.90495e-05
3.29922e-05
2.68566e-05
2.23718e-05
1.84168e-05
1.47576e-05
1.19625e-05
9.64005e-06
7.77808e-06
6.89811e-06
5.22699e-06
4.66838e-06
4.16588e-06
4.09466e-06
3.81921e-06
4.003e-06
4.08974e-06
4.62314e-06
4.66442e-06
4.87717e-06
5.09707e-06
5.66669e-06
5.95339e-06
6.58058e-06
6.89924e-06
7.49971e-06
8.10457e-06
8.69072e-06
9.42716e-06
1.04838e-05
1.13889e-05
1.18995e-05
1.35623e-05
1.46072e-05
1.57691e-05
1.73342e-05
1.9505e-05
2.06201e-05
2.27836e-05
2.68664e-05
2.87034e-05
3.26999e-05
3.4632e-05
5.32198e-05
5.70511e-05
9.94017e-05
0.000102734
0.000165943
0.000186811
0.000203878
0.00021396
0.000191668
1.54181e-05
1.55409e-05
1.51139e-05
1.49258e-05
1.47143e-05
1.47571e-05
1.52066e-05
1.62858e-05
1.66289e-05
1.65138e-05
1.68666e-05
2.14658e-05
2.32224e-05
2.33148e-05
2.36453e-05
2.58187e-05
3.24074e-05
4.64755e-05
7.31242e-05
0.000114639
0.000170134
0.000260851
0.000337339
0.000343793
0.000295926
0.000216104
0.000184366
0.000172667
0.00017451
0.000177577
0.000178333
0.000174403
0.000170487
0.000167605
0.000167113
0.000170079
0.000174485
0.000173961
0.000162689
0.000148292
0.000135801
0.000121345
0.000105573
9.10632e-05
7.67272e-05
6.3916e-05
5.28185e-05
4.49653e-05
3.81532e-05
3.26955e-05
2.83039e-05
2.32953e-05
1.95031e-05
1.52662e-05
1.25278e-05
9.63802e-06
7.93826e-06
6.53575e-06
5.22231e-06
4.22793e-06
4.05583e-06
3.98984e-06
3.93542e-06
3.84179e-06
4.14231e-06
4.26144e-06
5.06374e-06
4.95871e-06
5.72654e-06
5.69627e-06
6.4709e-06
6.41461e-06
8.01436e-06
7.72166e-06
9.02608e-06
8.8678e-06
1.0623e-05
1.04764e-05
1.26569e-05
1.22547e-05
1.46036e-05
1.46263e-05
1.72553e-05
1.74192e-05
2.05671e-05
2.06777e-05
2.34928e-05
2.48541e-05
2.87106e-05
3.10939e-05
3.26087e-05
4.5521e-05
4.52498e-05
7.83165e-05
7.08605e-05
0.000131178
0.000126487
0.000172141
0.000229278
0.000213418
7.00571e-06
7.41742e-06
8.80202e-06
1.07361e-05
1.11334e-05
1.1809e-05
1.47755e-05
1.73748e-05
1.81956e-05
2.00653e-05
2.05426e-05
1.9101e-05
1.90669e-05
2.09998e-05
2.77055e-05
4.01646e-05
5.74087e-05
8.20578e-05
0.000120591
0.000177759
0.000243359
0.000320623
0.000352267
0.000342772
0.000262618
0.000202325
0.000174143
0.000163055
0.000166295
0.000174491
0.000178357
0.00017624
0.000172229
0.000168939
0.000168232
0.000171793
0.000175359
0.000173852
0.000161656
0.000148868
0.000135492
0.000119843
0.000103447
8.68691e-05
7.20301e-05
5.98247e-05
5.09306e-05
4.38848e-05
3.84028e-05
3.30449e-05
2.83498e-05
2.35128e-05
1.94793e-05
1.52026e-05
1.28009e-05
9.52309e-06
8.27006e-06
6.14417e-06
5.53769e-06
4.28636e-06
4.44924e-06
4.33884e-06
4.69119e-06
4.20149e-06
5.26246e-06
4.66056e-06
6.34637e-06
5.6424e-06
7.05689e-06
6.30369e-06
8.22796e-06
7.04732e-06
9.78728e-06
8.59076e-06
1.08262e-05
9.73082e-06
1.30796e-05
1.13302e-05
1.49323e-05
1.34367e-05
1.71378e-05
1.54089e-05
1.99017e-05
1.83337e-05
2.24527e-05
2.12528e-05
2.59897e-05
2.5398e-05
2.99432e-05
3.05672e-05
3.21093e-05
3.97259e-05
3.99763e-05
6.40082e-05
5.83547e-05
0.000106846
0.000100559
0.000135724
0.00017191
0.000199685
1.26798e-05
1.455e-05
2.02498e-05
2.4006e-05
2.5018e-05
2.72949e-05
3.31094e-05
3.74308e-05
4.19937e-05
4.31315e-05
4.20253e-05
3.8269e-05
3.92671e-05
4.52971e-05
6.15891e-05
7.94764e-05
0.000101334
0.000132401
0.000183097
0.000253202
0.000311452
0.000345563
0.000355541
0.000321111
0.000230123
0.000195345
0.00017076
0.000160086
0.000161368
0.000171414
0.000175499
0.000176709
0.000174869
0.00017188
0.000170344
0.000173186
0.000175758
0.000172432
0.000160678
0.000148576
0.000134433
0.000117745
9.95952e-05
8.12301e-05
6.68014e-05
5.62263e-05
4.89813e-05
4.35149e-05
3.81894e-05
3.37361e-05
2.88204e-05
2.425e-05
2.08924e-05
1.57449e-05
1.41658e-05
9.86328e-06
8.96976e-06
6.36642e-06
6.48864e-06
5.24936e-06
5.51891e-06
5.24714e-06
5.99988e-06
5.26339e-06
7.35207e-06
5.8104e-06
8.69245e-06
7.33152e-06
9.68992e-06
8.12303e-06
1.16462e-05
9.02045e-06
1.37987e-05
1.11002e-05
1.5115e-05
1.22112e-05
1.78002e-05
1.38929e-05
2.00245e-05
1.63375e-05
2.22205e-05
1.78652e-05
2.51841e-05
2.10418e-05
2.7287e-05
2.32326e-05
3.05638e-05
2.72571e-05
3.32918e-05
3.12612e-05
3.49085e-05
3.74343e-05
3.89285e-05
5.4382e-05
5.21622e-05
8.7578e-05
8.34879e-05
0.000116582
0.000122219
0.000156072
4.13261e-05
4.49699e-05
5.68318e-05
6.03772e-05
6.11795e-05
6.47068e-05
7.76777e-05
8.27371e-05
8.59284e-05
8.6478e-05
8.41755e-05
8.29119e-05
8.55007e-05
9.54444e-05
0.000113941
0.000133853
0.000160747
0.000199277
0.000267264
0.000320478
0.000339762
0.000352831
0.000346024
0.000274233
0.000215068
0.000193599
0.000169956
0.000158269
0.000155922
0.000166676
0.000170999
0.000173859
0.000174059
0.000172826
0.000172176
0.000174512
0.000175861
0.000170287
0.000159949
0.000147771
0.000132327
0.000113106
9.21308e-05
7.42835e-05
6.25646e-05
5.48818e-05
4.91169e-05
4.44609e-05
4.01648e-05
3.51686e-05
3.11289e-05
2.58326e-05
2.19488e-05
1.7197e-05
1.51505e-05
1.04477e-05
1.02134e-05
7.52604e-06
8.91983e-06
7.22817e-06
7.86412e-06
7.35488e-06
8.59658e-06
7.56831e-06
1.13481e-05
8.40962e-06
1.35551e-05
1.09634e-05
1.47067e-05
1.21357e-05
1.74802e-05
1.30431e-05
2.00326e-05
1.58213e-05
2.12776e-05
1.69254e-05
2.47458e-05
1.86715e-05
2.64709e-05
2.12464e-05
2.93002e-05
2.24459e-05
3.2162e-05
2.57914e-05
3.45943e-05
2.72984e-05
3.78247e-05
3.1181e-05
4.0257e-05
3.38779e-05
4.20213e-05
3.87476e-05
4.2347e-05
5.03311e-05
5.03584e-05
7.40298e-05
7.22778e-05
0.000100261
0.000102832
0.000123808
0.000114436
0.000118503
0.00012968
0.000131524
0.000132498
0.000138536
0.000151984
0.000153873
0.000154151
0.00015366
0.00014933
0.000148142
0.000151722
0.000164968
0.000180261
0.000204936
0.000231842
0.000284124
0.000333389
0.000348165
0.000348545
0.000345458
0.000315968
0.000233128
0.000209974
0.000199221
0.000173024
0.0001575
0.000152702
0.000158303
0.00016743
0.000170932
0.000172468
0.000172877
0.000173953
0.000175743
0.000175605
0.000169035
0.00015913
0.000145785
0.000127514
0.000103537
8.36255e-05
6.99459e-05
6.18235e-05
5.58663e-05
5.22143e-05
4.67593e-05
4.27629e-05
3.58876e-05
3.1545e-05
2.5835e-05
2.157e-05
1.76656e-05
1.57968e-05
1.14607e-05
1.33694e-05
9.89876e-06
1.37924e-05
1.11541e-05
1.28271e-05
1.19838e-05
1.37529e-05
1.22424e-05
1.83308e-05
1.33537e-05
2.14698e-05
1.71111e-05
2.19111e-05
1.88693e-05
2.60767e-05
1.9718e-05
2.90232e-05
2.32116e-05
3.01526e-05
2.44871e-05
3.42672e-05
2.61231e-05
3.60943e-05
2.90621e-05
3.91617e-05
2.97498e-05
4.21658e-05
3.34666e-05
4.45634e-05
3.4077e-05
4.7741e-05
3.78373e-05
5.00789e-05
3.93638e-05
5.04368e-05
4.31006e-05
5.25093e-05
5.16405e-05
5.24826e-05
6.60408e-05
6.59174e-05
8.66689e-05
8.89039e-05
0.000104849
0.000234655
0.000234289
0.000236014
0.000233909
0.00023305
0.000238712
0.000242639
0.000239633
0.000235332
0.000232864
0.000225931
0.00022583
0.000228954
0.000236309
0.00025199
0.00027117
0.00030801
0.000345262
0.000358101
0.000355369
0.000346243
0.000326128
0.000262958
0.000211643
0.00021711
0.000218644
0.000189132
0.000160662
0.000151872
0.000151085
0.000161389
0.000166939
0.000169855
0.000172452
0.000174654
0.00017631
0.00017492
0.000167874
0.000156976
0.000140017
0.000115161
9.3401e-05
7.91256e-05
6.95074e-05
6.43546e-05
5.87228e-05
5.46218e-05
4.7176e-05
4.25047e-05
3.46748e-05
3.00277e-05
2.40048e-05
2.09425e-05
1.70762e-05
1.70601e-05
1.43351e-05
2.08053e-05
1.50584e-05
2.38532e-05
1.9122e-05
2.30615e-05
2.16096e-05
2.37793e-05
2.12174e-05
3.00869e-05
2.26398e-05
3.48219e-05
2.75417e-05
3.43768e-05
2.99285e-05
3.89358e-05
3.03152e-05
4.30611e-05
3.44573e-05
4.34179e-05
3.61382e-05
4.76724e-05
3.7021e-05
4.92177e-05
4.05481e-05
5.19461e-05
4.0864e-05
5.535e-05
4.44987e-05
5.74595e-05
4.47356e-05
6.13169e-05
4.87892e-05
6.3245e-05
4.87611e-05
6.36217e-05
5.25117e-05
6.36899e-05
5.69442e-05
5.87713e-05
6.63597e-05
6.61543e-05
7.69152e-05
7.89228e-05
9.0521e-05
0.000374159
0.000362739
0.000356867
0.000340601
0.000331481
0.00033159
0.000328979
0.000316628
0.000310057
0.000305438
0.000292361
0.000289119
0.000291035
0.000297254
0.000307962
0.000330435
0.000355766
0.000366065
0.000364119
0.000350895
0.000323046
0.000273559
0.00021401
0.000204431
0.000231991
0.000249437
0.000225119
0.00017786
0.000154548
0.000149814
0.000153951
0.000162735
0.000167204
0.000171622
0.000174502
0.000176108
0.000173124
0.000164718
0.000149325
0.000125406
0.00010452
8.90051e-05
7.92335e-05
7.17044e-05
6.6345e-05
5.8928e-05
5.32214e-05
4.53066e-05
3.96583e-05
3.34307e-05
2.90713e-05
2.42291e-05
2.35296e-05
2.05107e-05
2.64013e-05
2.40637e-05
3.80379e-05
2.84906e-05
4.49966e-05
3.58946e-05
4.40426e-05
4.09046e-05
4.41618e-05
3.98006e-05
5.12787e-05
4.09895e-05
5.73344e-05
4.52499e-05
5.57343e-05
4.84577e-05
5.87847e-05
4.82037e-05
6.31328e-05
5.07782e-05
6.11581e-05
5.31299e-05
6.5282e-05
5.20067e-05
6.65592e-05
5.5878e-05
6.81723e-05
5.4977e-05
7.21717e-05
5.89886e-05
7.35161e-05
5.91112e-05
7.83197e-05
6.33746e-05
8.01661e-05
6.3386e-05
8.09508e-05
6.83049e-05
8.01675e-05
6.81902e-05
7.25154e-05
7.09197e-05
7.07183e-05
7.59807e-05
7.7347e-05
8.25878e-05
0.000496663
0.000471786
0.000446868
0.000421333
0.000407611
0.000399887
0.000381953
0.000363401
0.00035649
0.000346928
0.000334822
0.000333003
0.000335208
0.000340773
0.000353232
0.00036635
0.00037135
0.000369305
0.000351837
0.000305749
0.000258268
0.000212041
0.000186711
0.000204195
0.000253036
0.000289641
0.000281213
0.000221411
0.000171782
0.000152541
0.000149983
0.000157205
0.000164377
0.000169498
0.000172225
0.000173405
0.000167136
0.000153505
0.000133299
0.000114133
9.9194e-05
8.78651e-05
7.96439e-05
7.20291e-05
6.5429e-05
5.87502e-05
5.26683e-05
4.83159e-05
4.48586e-05
4.5056e-05
4.5014e-05
4.57681e-05
4.98251e-05
4.81924e-05
5.79072e-05
5.27649e-05
7.4476e-05
6.39174e-05
8.69281e-05
7.09359e-05
8.49358e-05
7.7469e-05
8.26306e-05
7.55818e-05
8.61146e-05
7.3674e-05
9.2336e-05
7.46573e-05
8.90133e-05
7.79325e-05
8.64827e-05
7.58189e-05
9.14929e-05
7.46813e-05
8.81711e-05
7.75272e-05
8.962e-05
7.44548e-05
9.27828e-05
7.79116e-05
9.1387e-05
7.63021e-05
9.71665e-05
7.93494e-05
9.62021e-05
7.90953e-05
0.000102685
8.37181e-05
0.000103159
8.3209e-05
0.000105046
8.89087e-05
0.000102128
8.57532e-05
9.03961e-05
8.37812e-05
8.32337e-05
8.19276e-05
8.16393e-05
8.26674e-05
0.000586769
0.000541132
0.000498066
0.000466224
0.000443752
0.000424335
0.000402023
0.000390352
0.000382831
0.000371231
0.000364657
0.000364589
0.00036755
0.000371167
0.000375577
0.00037551
0.000368327
0.000341162
0.000270875
0.000220896
0.000188171
0.000170889
0.000174184
0.000206485
0.00026207
0.000317325
0.000346625
0.000305754
0.000228748
0.000173458
0.000153058
0.000149244
0.000155306
0.000160622
0.000162859
0.000160382
0.00015059
0.000136669
0.00012186
0.000108817
9.79375e-05
8.87733e-05
8.18582e-05
7.73159e-05
7.55882e-05
7.6303e-05
7.80586e-05
8.62833e-05
8.99336e-05
0.000101674
0.000103905
0.000114026
0.000115061
0.000120469
0.00012376
0.000118915
0.000132465
0.00011784
0.000147452
0.000127608
0.000150565
0.000134069
0.000142098
0.00013114
0.000137429
0.000122671
0.000139786
0.00012097
0.000137708
0.000120561
0.000129407
0.000115883
0.000132205
0.000112992
0.000129711
0.000113772
0.00012635
0.000109855
0.000130639
0.000109863
0.000125876
0.000108928
0.000132545
0.000108853
0.000130149
0.000110466
0.00013866
0.000113571
0.0001378
0.000113911
0.000141963
0.00012042
0.000136655
0.000113641
0.000120718
0.000110324
0.000109462
0.000102446
0.000100823
9.54387e-05
0.000634278
0.000561867
0.00050936
0.000474894
0.000449315
0.000428454
0.000411966
0.00040424
0.00039565
0.000387664
0.000385371
0.00038443
0.000383251
0.00038025
0.000373396
0.000354523
0.000302613
0.000228744
0.00017485
0.000154112
0.000152358
0.000158063
0.000172629
0.000203537
0.000258756
0.000321623
0.000375062
0.000398785
0.000358039
0.0002617
0.000197671
0.000159166
0.000147271
0.000147415
0.000149004
0.000146327
0.000139517
0.000130531
0.000120724
0.000111915
0.000107117
0.000106979
0.000111246
0.000123021
0.000134268
0.000149242
0.000156566
0.000170403
0.000173487
0.000184363
0.000183703
0.000194298
0.000188582
0.000204269
0.000193723
0.00021198
0.000199952
0.000207583
0.000208877
0.000194729
0.000211113
0.000194545
0.000204925
0.000195658
0.000198353
0.00019095
0.000198611
0.000182629
0.000202928
0.000181734
0.000196394
0.000179817
0.000193161
0.000172591
0.000195115
0.000172603
0.00018791
0.000167878
0.000191251
0.000165879
0.00018761
0.00016518
0.000192321
0.000163354
0.000192445
0.000166028
0.000200797
0.000166513
0.000200385
0.00016931
0.000207218
0.000175157
0.000200551
0.00016863
0.000185306
0.000169072
0.000169571
0.000161614
0.000164461
0.000160834
0.000624269
0.000540308
0.000489681
0.000459967
0.000438956
0.000423653
0.000412453
0.000404851
0.000396534
0.000391078
0.000386709
0.000379161
0.000366636
0.000345084
0.00030442
0.000242022
0.000181614
0.000138966
0.000125182
0.000129485
0.000144262
0.000158829
0.000174465
0.000192319
0.000221203
0.000288575
0.000371223
0.000426457
0.000455695
0.000464701
0.000403322
0.000316605
0.000232073
0.000179221
0.000159921
0.000151251
0.000146768
0.000144598
0.000147866
0.000154967
0.000166308
0.000180097
0.000194138
0.000206647
0.00021624
0.000224342
0.000229268
0.000236009
0.000237187
0.000243607
0.000240939
0.000250176
0.000240528
0.000258884
0.00023911
0.000271116
0.000240024
0.000286097
0.000246497
0.000296054
0.000257687
0.000296798
0.000264899
0.000300751
0.000266827
0.000310383
0.00027188
0.000313736
0.000283263
0.000307156
0.000288214
0.000310837
0.000289732
0.000306352
0.000299543
0.000301355
0.000296685
0.000304372
0.000304933
0.000294397
0.000305471
0.000299358
0.000311528
0.00029072
0.000316898
0.000296986
0.000324996
0.000291341
0.000329276
0.000298024
0.000341904
0.000304989
0.000341778
0.00031069
0.000349052
0.00034047
0.000351348
0.00036579
0.000399592
0.000415402
0.000483891
0.000428033
0.000398194
0.000378624
0.000360428
0.000342648
0.000326793
0.000314013
0.000302137
0.000292335
0.000280973
0.000263446
0.000238776
0.000207265
0.000168186
0.000130434
0.00011002
0.000106255
0.000113541
0.00013306
0.000168111
0.000211721
0.00027954
0.000359596
0.000396017
0.000388589
0.000325715
0.00031051
0.000424276
0.000564236
0.000649664
0.000680807
0.000644878
0.000555846
0.000435658
0.000323809
0.000240659
0.000185685
0.000158414
0.000153075
0.000164695
0.000181999
0.000199434
0.000214189
0.000225946
0.000234821
0.000240963
0.000246535
0.000247782
0.000253347
0.000249221
0.000258813
0.000245589
0.000266584
0.000238859
0.000277862
0.000232335
0.000295223
0.000231158
0.000320718
0.000238566
0.000348112
0.000252032
0.000371068
0.000264924
0.000392837
0.000275911
0.000418576
0.000291416
0.000439577
0.000310334
0.000452653
0.000323368
0.000472058
0.000339805
0.000486713
0.000358132
0.000502992
0.00037248
0.000518344
0.000395207
0.000532076
0.000410497
0.000544334
0.000438499
0.000554808
0.000456185
0.00055651
0.00048902
0.000569883
0.000524409
0.00057594
0.000561447
0.000615
0.000638297
0.00069841
0.000715294
0.000804921
0.000818909
0.000883816
9.79226e-05
0.000123666
0.000170421
0.000235806
0.00035032
0.000530823
0.000649843
0.000597831
0.000349118
0.00023274
0.000252315
0.000306451
0.000330385
0.000291267
0.000352526
0.000569445
0.000658485
0.000689704
0.000693466
0.000653272
0.00061663
0.000592716
0.000528187
0.000464806
0.000392078
0.000297578
0.000250139
0.000175279
0.000144311
0.000126557
0.000127252
0.000145149
0.000173886
0.000205243
0.000231997
0.0002503
0.000260916
0.00026577
0.000266754
0.000265789
0.000263259
0.000260245
0.000257347
0.000254671
0.000252413
0.000250584
0.000249326
0.000248348
0.000247795
0.000247253
0.000246972
0.000246523
0.000246196
0.000245716
0.0002452
0.000244737
0.000244033
0.000243659
0.000242854
0.000242515
0.000241741
0.000241257
0.000240599
0.000239793
0.000239174
0.000238058
0.000237171
0.000235901
0.000234424
0.000232952
0.000230872
0.00022874
0.000226255
0.000222939
0.0002199
0.000215283
0.000210984
0.000205118
0.000198697
0.000191286
0.000182184
0.000172356
0.000160207
0.000147112
0.000131635
0.000115377
9.76386e-05
8.27754e-05
7.85041e-05
8.48873e-05
9.90627e-05
0.000116098
0.000133332
0.000155277
0.000187892
0.000213259
0.00021859
0.000173375
0.000127179
9.64387e-05
0.000116759
0.000122569
0.000130673
0.000149924
0.000172507
0.000198875
0.00029847
0.000466611
0.000445244
0.000357465
0.000275018
0.000254176
0.000296177
0.000506536
0.000547121
0.000523477
0.000430946
0.000360122
0.000301506
0.000246347
0.000232425
0.000226805
0.000190188
0.000180651
0.000173887
0.000167989
0.000167707
0.000167156
0.000160396
0.000157472
0.000149814
0.000144338
0.000143324
0.000145509
0.000154219
0.000173882
0.000197531
0.000220167
0.000239498
0.000253977
0.000263451
0.000268524
0.000270308
0.000270213
0.000268386
0.000265458
0.000262827
0.000260335
0.00025831
0.000256448
0.000255074
0.000253807
0.000252852
0.000252019
0.000251216
0.000250717
0.00024992
0.000249616
0.000248897
0.0002486
0.000248023
0.000247596
0.000247234
0.000246586
0.000246327
0.000245708
0.00024524
0.000244816
0.000243999
0.000243618
0.000242845
0.000241922
0.000241478
0.000239978
0.000239417
0.000237846
0.000236694
0.000235139
0.00023277
0.000231322
0.000227974
0.000225786
0.000221393
0.000218021
0.000211895
0.00020666
0.000197129
0.000187787
0.000172722
0.000156054
0.000132319
0.000115736
0.000109122
0.000114373
0.000124999
0.000126931
0.000105784
9.40741e-05
0.000103781
0.000108553
0.000119202
0.000123643
0.000133545
0.000148032
0.00017009
0.000165579
0.000173648
0.000246117
0.000359583
0.000330954
0.000253501
0.00027144
0.000442014
0.000525055
0.000443955
0.000293506
0.000210984
0.000178877
0.000168501
0.000166493
0.000172593
0.000180601
0.000184704
0.000197794
0.000210489
0.000214601
0.000225485
0.000223018
0.000221373
0.000211597
0.000196235
0.00017497
0.000154416
0.000138204
0.000126258
0.000119356
0.000118405
0.000119918
0.000124383
0.000133384
0.000151856
0.000171198
0.000187128
0.00019896
0.000206471
0.000210298
0.000211646
0.000211796
0.000211356
0.000209953
0.000208446
0.000207196
0.000206006
0.000205085
0.000204275
0.000203587
0.000203115