/*--------------------------------*- C++ -*----------------------------------*\
| =========                 |                                                 |
| \\      /  F ield         | OpenFOAM: The Open Source CFD Toolbox           |
|  \\    /   O peration     | Version:  2.4.0                                 |
|   \\  /    A nd           | Web:      www.OpenFOAM.org                      |
|    \\/     M anipulation  |                                                 |
\*---------------------------------------------------------------------------*/
FoamFile
{
    version     2.0;
    format      ascii;
    class       surfaceScalarField;
    location    "0.052";
    object      phi;
}
// * * * * * * * * * * * * * * * * * * * * * * * * * * * * * * * * * * * * * //

dimensions      [0 3 -1 0 0 0 0];

internalField   nonuniform List<scalar> 
8640
(
1.14668e-05
1.35332e-05
7.17974e-06
4.28707e-06
5.91645e-06
1.26329e-06
5.38031e-06
5.36147e-07
5.09617e-06
2.84136e-07
4.98251e-06
1.13659e-07
4.85871e-06
1.23796e-07
4.92477e-06
-6.60511e-08
4.77299e-06
1.51775e-07
-1.38906e-06
6.16205e-06
2.10586e-05
1.74746e-05
1.74589e-05
7.88682e-06
1.55082e-05
3.21402e-06
1.42735e-05
1.77075e-06
1.34937e-05
1.06401e-06
1.30974e-05
5.09961e-07
1.27498e-05
4.71345e-07
1.27451e-05
-6.13405e-08
1.26616e-05
2.35283e-07
-2.11896e-06
1.33915e-05
2.57177e-05
1.67569e-05
2.41172e-05
9.48726e-06
2.2604e-05
4.72726e-06
2.12557e-05
3.11899e-06
2.02305e-05
2.08922e-06
1.96435e-05
1.09702e-06
1.91597e-05
9.55112e-07
1.89924e-05
1.05992e-07
1.89818e-05
2.45849e-07
-3.21133e-06
2.00742e-05
2.74793e-05
1.42776e-05
2.77669e-05
9.19965e-06
2.73689e-05
5.12523e-06
2.65506e-05
3.93727e-06
2.56542e-05
2.98566e-06
2.50685e-05
1.68274e-06
2.45837e-05
1.43989e-06
2.42595e-05
4.30158e-07
2.42881e-05
2.17242e-07
-4.64551e-06
2.57223e-05
2.76663e-05
1.16113e-05
2.89624e-05
7.90354e-06
2.96212e-05
4.4665e-06
2.97256e-05
3.83285e-06
2.93785e-05
3.33278e-06
2.90932e-05
1.96805e-06
2.88053e-05
1.72772e-06
2.8434e-05
8.01523e-07
2.85679e-05
8.32735e-08
-6.17846e-06
3.01009e-05
2.74658e-05
9.14545e-06
2.90052e-05
6.36415e-06
3.00447e-05
3.427e-06
3.07729e-05
3.10464e-06
3.10583e-05
3.04739e-06
3.13341e-05
1.69231e-06
3.1468e-05
1.59382e-06
3.12071e-05
1.06243e-06
3.16478e-05
-3.57495e-07
-6.50455e-06
3.19739e-05
2.72956e-05
6.84988e-06
2.89076e-05
4.75209e-06
2.99478e-05
2.38683e-06
3.0777e-05
2.27541e-06
3.12884e-05
2.53603e-06
3.1962e-05
1.01871e-06
3.24512e-05
1.1046e-06
3.24445e-05
1.06913e-06
3.33168e-05
-1.22975e-06
-5.64471e-06
3.2457e-05
2.72353e-05
4.61458e-06
2.89609e-05
3.02651e-06
2.98122e-05
1.53553e-06
3.05935e-05
1.49404e-06
3.122e-05
1.90961e-06
3.19781e-05
2.60563e-07
3.23937e-05
6.89008e-07
3.27903e-05
6.72529e-07
3.3783e-05
-2.22247e-06
-5.72165e-06
3.386e-05
2.72402e-05
2.37442e-06
2.89346e-05
1.33208e-06
2.96528e-05
8.17282e-07
3.04599e-05
6.86948e-07
3.13033e-05
1.06627e-06
3.1861e-05
-2.97118e-07
3.21937e-05
3.5631e-07
3.29626e-05
-9.64582e-08
3.34658e-05
-2.72559e-06
-5.72943e-06
3.34735e-05
2.72303e-05
1.44104e-07
2.89226e-05
-3.60241e-07
2.95883e-05
1.51669e-07
3.04415e-05
-1.66327e-07
3.13082e-05
1.99555e-07
3.17147e-05
-7.03529e-07
3.22572e-05
-1.86206e-07
3.29355e-05
-7.74776e-07
3.31464e-05
-2.93646e-06
-6.11837e-06
3.35353e-05
2.72402e-05
-2.09613e-06
2.89352e-05
-2.05517e-06
2.95772e-05
-4.90355e-07
3.04435e-05
-1.03268e-06
3.12919e-05
-6.48778e-07
3.17287e-05
-1.14034e-06
3.23093e-05
-7.66861e-07
3.27953e-05
-1.26075e-06
3.31046e-05
-3.24572e-06
-6.29761e-06
3.32838e-05
2.72842e-05
-4.38035e-06
2.89383e-05
-3.70923e-06
2.96308e-05
-1.18284e-06
3.0498e-05
-1.89993e-06
3.13147e-05
-1.46547e-06
3.17431e-05
-1.5687e-06
3.22708e-05
-1.29457e-06
3.27422e-05
-1.73216e-06
3.3153e-05
-3.65658e-06
-6.56916e-06
3.34246e-05
2.73551e-05
-6.73547e-06
2.89481e-05
-5.30221e-06
2.97502e-05
-1.98498e-06
3.05844e-05
-2.73406e-06
3.13282e-05
-2.20931e-06
3.17175e-05
-1.95802e-06
3.22466e-05
-1.82363e-06
3.27543e-05
-2.23987e-06
3.31819e-05
-4.08419e-06
-6.70829e-06
3.33211e-05
2.7438e-05
-9.17342e-06
2.88669e-05
-6.73119e-06
2.98958e-05
-3.01384e-06
3.06772e-05
-3.51549e-06
3.13466e-05
-2.87872e-06
3.17029e-05
-2.3143e-06
3.21514e-05
-2.27218e-06
3.24921e-05
-2.58051e-06
3.25722e-05
-4.16432e-06
-6.21723e-06
3.20812e-05
2.75359e-05
-1.17093e-05
2.88787e-05
-8.07398e-06
3.00069e-05
-4.142e-06
3.06567e-05
-4.16527e-06
3.10542e-05
-3.27624e-06
3.11572e-05
-2.4173e-06
3.11912e-05
-2.30619e-06
3.1062e-05
-2.45137e-06
3.061e-05
-3.71225e-06
-5.37719e-06
2.97699e-05
2.76586e-05
-1.4368e-05
2.88443e-05
-9.25965e-06
2.96207e-05
-4.91836e-06
2.96409e-05
-4.1855e-06
2.93425e-05
-2.9779e-06
2.8955e-05
-2.02977e-06
2.85271e-05
-1.87829e-06
2.80228e-05
-1.9471e-06
2.72508e-05
-2.94025e-06
-4.18037e-06
2.6054e-05
2.74474e-05
-1.68153e-05
2.76947e-05
-9.50703e-06
2.73854e-05
-4.60901e-06
2.6487e-05
-3.28707e-06
2.56043e-05
-2.09525e-06
2.49259e-05
-1.35134e-06
2.42922e-05
-1.24457e-06
2.36569e-05
-1.31179e-06
2.27618e-05
-2.04517e-06
-2.80408e-06
2.13855e-05
2.56836e-05
-1.74989e-05
2.40771e-05
-7.90053e-06
2.26233e-05
-3.15525e-06
2.12011e-05
-1.86482e-06
2.01742e-05
-1.06835e-06
1.94914e-05
-6.68566e-07
1.88765e-05
-6.29634e-07
1.82718e-05
-7.0712e-07
1.738e-05
-1.15336e-06
-1.56339e-06
1.61393e-05
2.10388e-05
-1.35377e-05
1.74344e-05
-4.29614e-06
1.55224e-05
-1.24318e-06
1.42265e-05
-5.69009e-07
1.34436e-05
-2.85413e-07
1.29534e-05
-1.78372e-07
1.2504e-05
-1.80215e-07
1.20283e-05
-2.31391e-07
1.1273e-05
-3.98087e-07
-5.81184e-07
1.02908e-05
1.14623e-05
7.16613e-06
5.92294e-06
5.35393e-06
5.06852e-06
4.89015e-06
4.70994e-06
4.47854e-06
4.08046e-06
3.49927e-06
8.17925e-06
-1.68522e-07
-1.84867e-06
1.02967e-05
-8.23668e-07
-1.2938e-06
1.22089e-05
-3.80983e-06
1.89767e-06
1.26771e-05
-6.68714e-06
6.21892e-06
1.18455e-05
-9.11999e-06
9.95164e-06
1.07395e-05
-1.11784e-05
1.22843e-05
8.95657e-06
-9.65492e-06
1.14379e-05
6.79558e-06
-6.1937e-06
8.35469e-06
5.90044e-06
-3.08204e-06
3.97718e-06
8.11763e-06
6.51731e-06
-8.7345e-06
1.36599e-05
1.66837e-05
-2.22259e-05
1.7857e-05
1.64617e-05
-2.06588e-05
2.02193e-05
1.19973e-05
-1.43596e-05
2.29592e-05
4.47973e-06
-7.21953e-06
2.54489e-05
-4.99294e-06
2.5032e-06
2.64113e-05
-9.8058e-06
8.84343e-06
2.70936e-05
-1.23167e-05
1.16343e-05
2.80796e-05
-1.88299e-05
1.78438e-05
2.9396e-05
-2.52658e-05
2.39494e-05
3.11111e-05
-3.18884e-05
3.01733e-05
3.17442e-05
-3.7244e-05
3.66108e-05
3.07109e-05
-3.78659e-05
3.88991e-05
2.99347e-05
-3.82735e-05
3.90498e-05
3.07711e-05
-4.10248e-05
4.01885e-05
3.10598e-05
-4.27444e-05
4.24556e-05
2.99024e-05
-4.05169e-05
4.16743e-05
2.85448e-05
-3.60803e-05
3.74378e-05
2.76248e-05
-3.33393e-05
3.42593e-05
2.74798e-05
-2.93458e-05
2.94908e-05
2.77345e-05
-2.28731e-05
2.26184e-05
2.79098e-05
-1.67093e-05
1.6534e-05
2.78183e-05
-8.05531e-06
8.14683e-06
2.74493e-05
1.00126e-06
-6.32235e-07
2.74542e-05
6.96641e-06
-6.97137e-06
2.78742e-05
1.39037e-05
-1.43237e-05
2.76565e-05
2.24718e-05
-2.22542e-05
2.63254e-05
2.76322e-05
-2.63011e-05
2.44868e-05
2.74879e-05
-2.56493e-05
2.28455e-05
2.45762e-05
-2.2935e-05
2.14957e-05
2.12618e-05
-1.99119e-05
2.02279e-05
1.75901e-05
-1.63224e-05
1.89852e-05
1.378e-05
-1.25373e-05
1.79092e-05
9.99905e-06
-8.92307e-06
1.70482e-05
7.66644e-06
-6.80549e-06
1.64235e-05
5.51263e-06
-4.88796e-06
1.58738e-05
5.27426e-06
-4.7245e-06
1.54837e-05
3.23773e-06
-2.84761e-06
1.50207e-05
4.48527e-06
-4.02227e-06
1.48262e-05
1.02632e-06
-8.31907e-07
1.44177e-05
4.58546e-06
-4.17695e-06
1.45111e-05
-1.40789e-06
1.31457e-06
1.41068e-05
5.47314e-06
-5.06886e-06
1.44906e-05
-3.5558e-06
3.17197e-06
1.40456e-05
6.14536e-06
-5.70039e-06
1.45637e-05
-4.59133e-06
4.07327e-06
1.41444e-05
5.50579e-06
-5.08646e-06
1.47097e-05
-4.46736e-06
3.90199e-06
1.4177e-05
4.32041e-06
-3.78771e-06
1.49714e-05
-4.09954e-06
3.30515e-06
1.40586e-05
4.01424e-06
-3.10143e-06
1.50443e-05
-3.99223e-06
3.00659e-06
1.39479e-05
4.45409e-06
-3.35774e-06
1.4816e-05
-4.05212e-06
3.18401e-06
1.38173e-05
4.95707e-06
-3.95839e-06
1.45984e-05
-4.29981e-06
3.51872e-06
1.3722e-05
5.01509e-06
-4.13864e-06
1.44882e-05
-4.17072e-06
3.40454e-06
1.3812e-05
4.39736e-06
-3.72118e-06
1.45554e-05
-3.4531e-06
2.70973e-06
1.38495e-05
4.20858e-06
-3.50269e-06
1.47586e-05
-3.41035e-06
2.50118e-06
1.39337e-05
4.76338e-06
-3.93842e-06
1.49438e-05
-3.72603e-06
2.71595e-06
1.41366e-05
4.70074e-06
-3.8936e-06
1.51676e-05
-2.81619e-06
1.78517e-06
1.43508e-05
4.51473e-06
-3.69792e-06
1.54543e-05
-2.55142e-06
1.448e-06
1.45175e-05
5.30719e-06
-4.3704e-06
1.5805e-05
-2.28533e-06
9.97763e-07
1.4861e-05
4.91068e-06
-3.96663e-06
1.5946e-05
-7.06729e-07
-3.78323e-07
1.49464e-05
5.49259e-06
-4.49294e-06
1.61667e-05
-2.43602e-07
-9.76696e-07
1.50521e-05
5.57194e-06
-4.45735e-06
1.57957e-05
1.6964e-06
-2.44007e-06
1.46241e-05
6.38472e-06
-5.21305e-06
1.52837e-05
2.5738e-06
-3.23341e-06
1.40701e-05
6.6843e-06
-5.47075e-06
1.43433e-05
4.45428e-06
-4.72741e-06
1.30296e-05
7.91791e-06
-6.60428e-06
1.37474e-05
5.51797e-06
-6.2357e-06
1.30174e-05
9.38258e-06
-8.65256e-06
1.44304e-05
7.40805e-06
-8.82109e-06
1.43204e-05
1.29836e-05
-1.28736e-05
1.49742e-05
1.15411e-05
-1.21949e-05
1.37383e-05
1.90415e-05
-1.78056e-05
1.57653e-05
1.64682e-05
-1.84952e-05
1.2898e-05
3.02837e-05
-2.74164e-05
1.29989e-05
2.89834e-05
-2.90843e-05
5.67879e-05
-5.52108e-05
1.14218e-05
1.45854e-05
-1.36246e-06
1.58355e-05
-2.07375e-06
1.71718e-05
-5.14611e-06
1.76438e-05
-7.15915e-06
1.6749e-05
-8.22516e-06
1.53665e-05
-9.79595e-06
1.41484e-05
-8.43678e-06
1.27883e-05
-4.83358e-06
1.10457e-05
-1.33946e-06
1.24243e-05
5.1387e-06
1.71877e-05
1.19203e-05
2.05012e-05
1.31482e-05
2.26869e-05
9.81152e-06
2.50127e-05
2.15393e-06
2.67799e-05
-6.7601e-06
2.76476e-05
-1.06735e-05
2.89025e-05
-1.35715e-05
3.02155e-05
-2.01429e-05
3.1695e-05
-2.67453e-05
3.28314e-05
-3.30248e-05
3.19421e-05
-3.63546e-05
3.04102e-05
-3.6334e-05
3.03456e-05
-3.82089e-05
3.08624e-05
-4.15416e-05
2.99261e-05
-4.18081e-05
2.76714e-05
-3.82622e-05
2.58579e-05
-3.42667e-05
2.51839e-05
-3.26653e-05
2.5336e-05
-2.94979e-05
2.58128e-05
-2.33499e-05
2.61797e-05
-1.70762e-05
2.62058e-05
-8.08139e-06
2.56973e-05
1.50977e-06
2.53057e-05
7.35798e-06
2.55088e-05
1.37006e-05
2.55332e-05
2.24474e-05
2.4695e-05
2.84704e-05
2.32412e-05
2.89418e-05
2.17535e-05
2.60639e-05
2.04343e-05
2.2581e-05
1.92528e-05
1.87716e-05
1.82073e-05
1.48256e-05
1.73378e-05
1.08686e-05
1.66335e-05
8.37075e-06
1.60888e-05
6.05725e-06
1.56199e-05
5.74323e-06
1.52459e-05
3.61175e-06
1.48816e-05
4.84953e-06
1.46457e-05
1.26226e-06
1.43894e-05
4.84169e-06
1.4364e-05
-1.38242e-06
1.41408e-05
5.69632e-06
1.44057e-05
-3.82075e-06
1.39916e-05
6.55949e-06
1.45756e-05
-5.17532e-06
1.38399e-05
6.24145e-06
1.47139e-05
-5.34136e-06
1.36503e-05
5.38408e-06
1.46695e-05
-5.11881e-06
1.34686e-05
5.21519e-06
1.43176e-05
-4.84125e-06
1.3338e-05
5.43366e-06
1.39962e-05
-4.71033e-06
1.32615e-05
5.69177e-06
1.39506e-05
-4.98886e-06
1.3368e-05
5.59763e-06
1.4047e-05
-4.84972e-06
1.35865e-05
4.85792e-06
1.42111e-05
-4.07775e-06
1.35419e-05
4.87782e-06
1.4526e-05
-4.39445e-06
1.35655e-05
5.72385e-06
1.46469e-05
-4.80738e-06
1.38557e-05
5.49194e-06
1.47747e-05
-3.73518e-06
1.38112e-05
5.47817e-06
1.51105e-05
-3.85072e-06
1.40141e-05
6.40357e-06
1.52849e-05
-3.55614e-06
1.43102e-05
5.88539e-06
1.56889e-05
-2.08538e-06
1.44497e-05
6.73174e-06
1.60547e-05
-1.84855e-06
1.48832e-05
6.74342e-06
1.63177e-05
2.61905e-07
1.49813e-05
7.72114e-06
1.64608e-05
1.09427e-06
1.49815e-05
8.16361e-06
1.6001e-05
3.43482e-06
1.43275e-05
9.59141e-06
1.50983e-05
4.74715e-06
1.36958e-05
1.0785e-05
1.44289e-05
6.67494e-06
1.37398e-05
1.36727e-05
1.55196e-05
9.76128e-06
1.35081e-05
2.10531e-05
1.49698e-05
1.50065e-05
1.50607e-05
3.01927e-05
1.98724e-05
2.41717e-05
5.76229e-05
1.90374e-05
2.08035e-05
-2.09181e-06
2.13179e-05
-2.58809e-06
2.20789e-05
-5.90713e-06
2.23016e-05
-7.3819e-06
2.1241e-05
-7.16453e-06
1.99084e-05
-8.46338e-06
1.90136e-05
-7.54193e-06
1.80254e-05
-3.84535e-06
1.6942e-05
-2.56085e-07
1.80014e-05
4.07931e-06
2.10763e-05
8.84538e-06
2.34682e-05
1.07563e-05
2.54238e-05
7.8559e-06
2.74457e-05
1.32082e-07
2.8793e-05
-8.10739e-06
2.97291e-05
-1.16096e-05
3.13931e-05
-1.52355e-05
3.28187e-05
-2.15685e-05
3.37479e-05
-2.76745e-05
3.37305e-05
-3.30074e-05
3.21627e-05
-3.47868e-05
3.0723e-05
-3.48943e-05
3.06118e-05
-3.80978e-05
2.99592e-05
-4.0889e-05
2.7665e-05
-3.95139e-05
2.50795e-05
-3.56767e-05
2.34641e-05
-3.26513e-05
2.29998e-05
-3.22011e-05
2.33279e-05
-2.9826e-05
2.37781e-05
-2.38001e-05
2.39917e-05
-1.72898e-05
2.40514e-05
-8.14104e-06
2.36672e-05
1.89394e-06
2.3128e-05
7.89725e-06
2.31288e-05
1.36998e-05
2.32682e-05
2.2308e-05
2.27551e-05
2.89835e-05
2.16106e-05
3.00862e-05
2.03062e-05
2.73683e-05
1.91207e-05
2.37665e-05
1.81113e-05
1.9781e-05
1.72442e-05
1.56927e-05
1.6519e-05
1.15938e-05
1.59552e-05
8.93461e-06
1.55219e-05
6.49048e-06
1.51856e-05
6.07953e-06
1.4875e-05
3.9224e-06
1.46406e-05
5.08391e-06
1.44013e-05
1.50152e-06
1.42839e-05
4.95912e-06
1.42027e-05
-1.30125e-06
1.40816e-05
5.81748e-06
1.43428e-05
-4.08201e-06
1.38515e-05
7.05086e-06
1.46029e-05
-5.92678e-06
1.35755e-05
7.26892e-06
1.46713e-05
-6.43722e-06
1.34215e-05
6.63387e-06
1.44009e-05
-6.09814e-06
1.34541e-05
6.16199e-06
1.40526e-05
-5.43981e-06
1.35725e-05
5.91385e-06
1.40067e-05
-5.14453e-06
1.37187e-05
5.97969e-06
1.43158e-05
-5.58592e-06
1.38736e-05
6.03979e-06
1.47028e-05
-5.6789e-06
1.40412e-05
5.5195e-06
1.47991e-05
-4.8356e-06
1.40527e-05
5.62417e-06
1.5017e-05
-5.35872e-06
1.39867e-05
6.75412e-06
1.51684e-05
-5.98904e-06
1.42261e-05
6.4342e-06
1.52237e-05
-4.73275e-06
1.42518e-05
6.45007e-06
1.55584e-05
-5.15735e-06
1.44071e-05
7.55492e-06
1.58384e-05
-4.98743e-06
1.46936e-05
7.03011e-06
1.6187e-05
-3.57877e-06
1.4817e-05
8.10176e-06
1.66601e-05
-3.69159e-06
1.52573e-05
8.14614e-06
1.69773e-05
-1.45805e-06
1.54069e-05
9.29152e-06
1.7317e-05
-8.15846e-07
1.57358e-05
9.74481e-06
1.7179e-05
1.99169e-06
1.53969e-05
1.13735e-05
1.66472e-05
3.49687e-06
1.48953e-05
1.25369e-05
1.59161e-05
5.65417e-06
1.4396e-05
1.51927e-05
1.67213e-05
7.43606e-06
1.65348e-05
2.12396e-05
1.79993e-05
1.35419e-05
1.51787e-05
3.30134e-05
2.08494e-05
1.8501e-05
5.61427e-05
2.23295e-05
2.60554e-05
-2.42494e-06
2.61743e-05
-2.70695e-06
2.65333e-05
-6.26611e-06
2.65383e-05
-7.38696e-06
2.55715e-05
-6.1977e-06
2.39645e-05
-6.85633e-06
2.3028e-05
-6.60549e-06
2.24159e-05
-3.23327e-06
2.18845e-05
2.75398e-07
2.31531e-05
2.81065e-06
2.54691e-05
6.52943e-06
2.73761e-05
8.84925e-06
2.92034e-05
6.02862e-06
3.11045e-05
-1.76901e-06
3.21004e-05
-9.1033e-06
3.29237e-05
-1.24329e-05
3.42007e-05
-1.65126e-05
3.49666e-05
-2.23344e-05
3.49718e-05
-2.76798e-05
3.3814e-05
-3.18496e-05
3.20527e-05
-3.30255e-05
3.10569e-05
-3.38985e-05
3.02934e-05
-3.73343e-05
2.80478e-05
-3.86434e-05
2.44926e-05
-3.59587e-05
2.17596e-05
-3.29437e-05
2.08137e-05
-3.17054e-05
2.07028e-05
-3.20902e-05
2.10519e-05
-3.01751e-05
2.14945e-05
-2.42427e-05
2.1517e-05
-1.73123e-05
2.13709e-05
-7.99499e-06
2.1148e-05
2.11687e-06
2.07991e-05
8.24609e-06
2.06891e-05
1.38099e-05
2.071e-05
2.22871e-05
2.03888e-05
2.93047e-05
1.9591e-05
3.0884e-05
1.85665e-05
2.83928e-05
1.76201e-05
2.47129e-05
1.68419e-05
2.05592e-05
1.62197e-05
1.63148e-05
1.57263e-05
1.20872e-05
1.53683e-05
9.29257e-06
1.50432e-05
6.81565e-06
1.482e-05
6.30266e-06
1.45193e-05
4.2231e-06
1.44078e-05
5.19545e-06
1.41179e-05
1.79141e-06
1.41538e-05
4.9232e-06
1.39755e-05
-1.12293e-06
1.39817e-05
5.81124e-06
1.4198e-05
-4.29833e-06
1.37057e-05
7.54318e-06
1.45575e-05
-6.77859e-06
1.34103e-05
8.41621e-06
1.45705e-05
-7.59751e-06
1.34117e-05
7.79268e-06
1.42011e-05
-6.88747e-06
1.36668e-05
6.6962e-06
1.39566e-05
-5.72953e-06
1.38347e-05
6.03575e-06
1.40936e-05
-5.40346e-06
1.37436e-05
6.32968e-06
1.44423e-05
-6.28462e-06
1.35566e-05
6.92553e-06
1.45318e-05
-6.65413e-06
1.36327e-05
6.41861e-06
1.43015e-05
-5.50442e-06
1.35736e-05
6.35204e-06
1.45216e-05
-6.30666e-06
1.34416e-05
7.83408e-06
1.45268e-05
-7.07422e-06
1.37807e-05
7.18024e-06
1.45703e-05
-5.52232e-06
1.37337e-05
7.28667e-06
1.51291e-05
-6.55269e-06
1.40834e-05
8.60059e-06
1.53483e-05
-6.25235e-06
1.44595e-05
7.91889e-06
1.60594e-05
-5.17863e-06
1.48626e-05
9.29854e-06
1.68251e-05
-5.65408e-06
1.56774e-05
9.29388e-06
1.76611e-05
-3.44176e-06
1.62938e-05
1.06588e-05
1.88279e-05
-3.35001e-06
1.70762e-05
1.14965e-05
1.94019e-05
-3.33945e-07
1.7328e-05
1.34474e-05
1.94034e-05
1.42143e-06
1.65242e-05
1.54162e-05
1.76757e-05
4.5026e-06
1.48532e-05
1.80153e-05
1.57174e-05
6.57183e-06
1.57633e-05
2.11937e-05
1.99311e-05
9.37411e-06
2.02094e-05
3.27351e-05
2.54979e-05
1.32125e-05
5.49519e-05
2.66887e-05
2.99692e-05
-2.29325e-06
2.97993e-05
-2.53709e-06
2.98599e-05
-6.32668e-06
2.96576e-05
-7.18466e-06
2.89202e-05
-5.46027e-06
2.75205e-05
-5.4567e-06
2.649e-05
-5.575e-06
2.60792e-05
-2.82241e-06
2.58815e-05
4.73128e-07
2.7049e-05
1.64315e-06
2.9013e-05
4.56536e-06
3.08409e-05
7.0214e-06
3.26658e-05
4.20371e-06
3.424e-05
-3.34322e-06
3.49287e-05
-9.79203e-06
3.54787e-05
-1.29829e-05
3.60572e-05
-1.70911e-05
3.58909e-05
-2.21681e-05
3.50652e-05
-2.68541e-05
3.33214e-05
-3.01057e-05
3.13945e-05
-3.10987e-05
3.02968e-05
-3.28007e-05
2.86511e-05
-3.56886e-05
2.52944e-05
-3.52867e-05
2.13904e-05
-3.20547e-05
1.87449e-05
-3.02981e-05
1.79878e-05
-3.09483e-05
1.80785e-05
-3.21808e-05
1.83184e-05
-3.0415e-05
1.86356e-05
-2.45599e-05
1.85412e-05
-1.72178e-05
1.829e-05
-7.74378e-06
1.82078e-05
2.19907e-06
1.80232e-05
8.43068e-06
1.78742e-05
1.39588e-05
1.79423e-05
2.2219e-05
1.78606e-05
2.93865e-05
1.73814e-05
3.13631e-05
1.6703e-05
2.90711e-05
1.60599e-05
2.53561e-05
1.55386e-05
2.10805e-05
1.51834e-05
1.667e-05
1.49199e-05
1.23507e-05
1.47309e-05
9.48164e-06
1.44865e-05
7.05996e-06
1.4352e-05
6.43718e-06
1.40726e-05
4.50253e-06
1.40712e-05
5.19683e-06
1.37807e-05
2.08196e-06
1.39382e-05
4.76564e-06
1.3735e-05
-9.19722e-07
1.3838e-05
5.70827e-06
1.40323e-05
-4.4926e-06
1.35984e-05
7.97705e-06
1.44435e-05
-7.62369e-06
1.33582e-05
9.50155e-06
1.4382e-05
-8.62132e-06
1.34562e-05
8.71844e-06
1.39655e-05
-7.3967e-06
1.37004e-05
6.96126e-06
1.38021e-05
-5.83124e-06
1.36654e-05
6.1725e-06
1.40185e-05
-5.75657e-06
1.335e-05
6.99819e-06
1.41815e-05
-7.11614e-06
1.32311e-05
7.87589e-06
1.40361e-05
-7.45909e-06
1.34127e-05
7.04202e-06
1.39203e-05
-6.01204e-06
1.33903e-05
6.882e-06
1.42191e-05
-7.1354e-06
1.32812e-05
8.77193e-06
1.43097e-05
-8.1027e-06
1.36309e-05
7.85902e-06
1.43041e-05
-6.19545e-06
1.35022e-05
8.08852e-06
1.48292e-05
-7.87968e-06
1.36462e-05
9.78363e-06
1.48142e-05
-7.42035e-06
1.3925e-05
8.80805e-06
1.53735e-05
-6.62715e-06
1.41289e-05
1.05431e-05
1.59285e-05
-7.45366e-06
1.49584e-05
1.0264e-05
1.69275e-05
-5.41078e-06
1.58266e-05
1.17597e-05
1.84833e-05
-6.00672e-06
1.75693e-05
1.24105e-05
2.0526e-05
-3.29059e-06
1.94269e-05
1.45464e-05
2.2778e-05
-1.92964e-06
2.13622e-05
1.6832e-05
2.38492e-05
2.01554e-06
2.13536e-05
2.05109e-05
2.18496e-05
6.07584e-06
1.76923e-05
2.53509e-05
1.92083e-05
7.85808e-06
1.74777e-05
3.44657e-05
2.30164e-05
7.67382e-06
4.88636e-05
2.91048e-05
3.21444e-05
-2.46376e-06
3.22279e-05
-2.62055e-06
3.19114e-05
-6.01016e-06
3.14077e-05
-6.681e-06
3.08854e-05
-4.93794e-06
2.98134e-05
-4.3847e-06
2.88932e-05
-4.65484e-06
2.8747e-05
-2.67616e-06
2.9003e-05
2.17128e-07
2.99468e-05
6.99295e-07
3.14639e-05
3.04824e-06
3.31962e-05
5.28919e-06
3.47533e-05
2.64655e-06
3.57403e-05
-4.3302e-06
3.60289e-05
-1.00806e-05
3.62924e-05
-1.32464e-05
3.63036e-05
-1.71023e-05
3.52676e-05
-2.11321e-05
3.38227e-05
-2.54092e-05
3.21956e-05
-2.84786e-05
3.08473e-05
-2.97505e-05
2.98255e-05
-3.17788e-05
2.72077e-05
-3.30709e-05
2.26109e-05
-3.06899e-05
1.83187e-05
-2.77625e-05
1.60067e-05
-2.79862e-05
1.53772e-05
-3.03187e-05
1.53541e-05
-3.21578e-05
1.54008e-05
-3.04617e-05
1.54757e-05
-2.46348e-05
1.52123e-05
-1.69544e-05
1.4883e-05
-7.41456e-06
1.50046e-05
2.07746e-06
1.51589e-05
8.27641e-06
1.51144e-05
1.40033e-05
1.51018e-05
2.22316e-05
1.51176e-05
2.93707e-05
1.5016e-05
3.14648e-05
1.47445e-05
2.93426e-05
1.4426e-05
2.56746e-05
1.42261e-05
2.12804e-05
1.41663e-05
1.67298e-05
1.40854e-05
1.24316e-05
1.40127e-05
9.55433e-06
1.38115e-05
7.26119e-06
1.37856e-05
6.46307e-06
1.35397e-05
4.74849e-06
1.36976e-05
5.03887e-06
1.3408e-05
2.37162e-06
1.37175e-05
4.45608e-06
1.34662e-05
-6.68405e-07
1.36985e-05
5.47598e-06
1.37951e-05
-4.58916e-06
1.35401e-05
8.23199e-06
1.42144e-05
-8.29798e-06
1.33742e-05
1.03417e-05
1.41653e-05
-9.41244e-06
1.35451e-05
9.33866e-06
1.37437e-05
-7.59529e-06
1.37822e-05
6.92279e-06
1.36655e-05
-5.71458e-06
1.36784e-05
6.1596e-06
1.40302e-05
-6.10833e-06
1.341e-05
7.61841e-06
1.42255e-05
-7.93167e-06
1.35574e-05
8.54401e-06
1.40971e-05
-7.99885e-06
1.37589e-05
7.38027e-06
1.42425e-05
-6.49569e-06
1.3581e-05
7.54349e-06
1.44982e-05
-8.05252e-06
1.35401e-05
9.72996e-06
1.43464e-05
-8.90897e-06
1.3805e-05
8.40041e-06
1.44949e-05
-6.88533e-06
1.35543e-05
9.02912e-06
1.49221e-05
-9.24753e-06
1.38591e-05
1.08466e-05
1.47492e-05
-8.31044e-06
1.39715e-05
9.58584e-06
1.54701e-05
-8.12583e-06
1.42533e-05
1.176e-05
1.56044e-05
-8.80479e-06
1.46961e-05
1.11723e-05
1.64799e-05
-7.19464e-06
1.54051e-05
1.28345e-05
1.72465e-05
-7.84812e-06
1.65502e-05
1.31067e-05
1.90169e-05
-5.75727e-06
1.8602e-05
1.49614e-05
2.16787e-05
-5.00641e-06
2.15217e-05
1.6989e-05
2.58314e-05
-2.29418e-06
2.4732e-05
2.16103e-05
2.9418e-05
1.3899e-06
2.58317e-05
2.89372e-05
2.89279e-05
4.76188e-06
2.41512e-05
3.92424e-05
2.29682e-05
8.85687e-06
4.3249e-05
2.85828e-05
3.27956e-05
-2.80236e-06
3.33332e-05
-3.15822e-06
3.27168e-05
-5.39376e-06
3.18714e-05
-5.83559e-06
3.14286e-05
-4.49511e-06
3.07617e-05
-3.71782e-06
3.0208e-05
-4.10111e-06
3.02998e-05
-2.76799e-06
3.09057e-05
-3.88772e-07
3.1619e-05
-1.4022e-08
3.28407e-05
1.82661e-06
3.44365e-05
3.69332e-06
3.55392e-05
1.5439e-06
3.58929e-05
-4.68397e-06
3.56825e-05
-9.8702e-06
3.56198e-05
-1.31837e-05
3.52372e-05
-1.67197e-05
3.42036e-05
-2.00985e-05
3.30561e-05
-2.42617e-05
3.17167e-05
-2.71391e-05
3.05272e-05
-2.8561e-05
2.89844e-05
-3.02361e-05
2.53428e-05
-2.94293e-05
2.00002e-05
-2.53473e-05
1.55651e-05
-2.33274e-05
1.34292e-05
-2.58503e-05
1.28388e-05
-2.97283e-05
1.25348e-05
-3.18539e-05
1.22867e-05
-3.02136e-05
1.21115e-05
-2.44596e-05
1.17606e-05
-1.66035e-05
1.14889e-05
-7.14285e-06
1.17462e-05
1.82017e-06
1.20051e-05
8.0175e-06
1.19687e-05
1.40397e-05
1.20256e-05
2.21747e-05
1.23223e-05
2.90741e-05
1.26066e-05
3.11805e-05
1.27245e-05
2.92247e-05
1.27998e-05
2.55993e-05
1.2935e-05
2.11452e-05
1.31388e-05
1.65259e-05
1.32585e-05
1.23119e-05
1.33769e-05
9.4359e-06
1.32909e-05
7.34722e-06
1.33845e-05
6.36945e-06
1.31583e-05
4.97469e-06
1.33963e-05
4.8009e-06
1.31022e-05
2.66572e-06
1.3479e-05
4.0792e-06
1.32341e-05
-4.23428e-07
1.35481e-05
5.16192e-06
1.35547e-05
-4.59574e-06
1.35047e-05
8.28199e-06
1.39755e-05
-8.76876e-06
1.34083e-05
1.09089e-05
1.39942e-05
-9.99838e-06
1.36228e-05
9.71007e-06
1.35638e-05
-7.5363e-06
1.39135e-05
6.57308e-06
1.3531e-05
-5.332e-06
1.3719e-05
5.9716e-06
1.40428e-05
-6.43213e-06
1.3336e-05
8.32513e-06
1.41567e-05
-8.7523e-06
1.3429e-05
9.2717e-06
1.378e-05
-8.34987e-06
1.34194e-05
7.74086e-06
1.38391e-05
-6.91535e-06
1.30669e-05
8.3157e-06
1.39055e-05
-8.89112e-06
1.3178e-05
1.04574e-05
1.3678e-05
-9.40899e-06
1.3225e-05
8.85339e-06
1.39056e-05
-7.56588e-06
1.30182e-05
9.91651e-06
1.41451e-05
-1.03744e-05
1.33402e-05
1.16515e-05
1.40649e-05
-9.03515e-06
1.33455e-05
1.03053e-05
1.47714e-05
-9.55175e-06
1.35147e-05
1.30167e-05
1.4617e-05
-9.90709e-06
1.38645e-05
1.19248e-05
1.55545e-05
-8.88462e-06
1.41315e-05
1.42575e-05
1.55627e-05
-9.27935e-06
1.45383e-05
1.41312e-05
1.65435e-05
-7.76249e-06
1.49908e-05
1.6514e-05
1.67713e-05
-6.78685e-06
1.5735e-05
1.80253e-05
1.94446e-05
-6.00374e-06
1.84462e-05
2.26087e-05
2.35009e-05
-3.66485e-06
2.29385e-05
2.94996e-05
2.81673e-05
-4.66935e-07
2.9014e-05
3.83956e-05
2.72292e-05
1.06417e-05
4.05765e-05
2.99016e-05
3.36577e-05
-2.6001e-06
3.35675e-05
-3.06804e-06
3.25523e-05
-4.37851e-06
3.15795e-05
-4.86283e-06
3.11613e-05
-4.07695e-06
3.1047e-05
-3.60349e-06
3.09907e-05
-4.04478e-06
3.11718e-05
-2.9491e-06
3.17705e-05
-9.87492e-07
3.20765e-05
-3.20062e-07
3.2916e-05
9.8719e-07
3.42412e-05
2.36811e-06
3.51648e-05
6.20247e-07
3.52276e-05
-4.74675e-06
3.48313e-05
-9.47393e-06
3.46006e-05
-1.29529e-05
3.40389e-05
-1.6158e-05
3.34518e-05
-1.95114e-05
3.28027e-05
-2.36127e-05
3.16155e-05
-2.59518e-05
2.99817e-05
-2.69272e-05
2.71832e-05
-2.74376e-05
2.22759e-05
-2.45219e-05
1.65671e-05
-1.96385e-05
1.2613e-05
-1.93734e-05
1.07972e-05
-2.40345e-05
9.98814e-06
-2.89192e-05
9.36841e-06
-3.12341e-05
8.95174e-06
-2.97969e-05
8.62436e-06
-2.41322e-05
8.27698e-06
-1.62562e-05
8.14887e-06
-7.01474e-06
8.60486e-06
1.36418e-06
8.95394e-06
7.66842e-06
8.89499e-06
1.40986e-05
8.9449e-06
2.21248e-05
9.44691e-06
2.8572e-05
1.01413e-05
3.04861e-05
1.07119e-05
2.86541e-05
1.11746e-05
2.51366e-05
1.16571e-05
2.06628e-05
1.21727e-05
1.60103e-05
1.24758e-05
1.20089e-05
1.26365e-05
9.27519e-06
1.24844e-05
7.49927e-06
1.25796e-05
6.27426e-06
1.23641e-05
5.19017e-06
1.27724e-05
4.39261e-06
1.25778e-05
2.86035e-06
1.31604e-05
3.49655e-06
1.2926e-05
-1.89044e-07
1.3419e-05
4.66895e-06
1.32927e-05
-4.46944e-06
1.34664e-05
8.10829e-06
1.37275e-05
-9.02982e-06
1.341e-05
1.12264e-05
1.3817e-05
-1.04053e-05
1.36243e-05
9.90276e-06
1.34054e-05
-7.31738e-06
1.39294e-05
6.04903e-06
1.33062e-05
-4.70878e-06
1.36872e-05
5.59065e-06
1.38617e-05
-6.60668e-06
1.32665e-05
8.92034e-06
1.39892e-05
-9.47497e-06
1.34562e-05
9.80465e-06
1.35966e-05
-8.49021e-06
1.35215e-05
7.8159e-06
1.37566e-05
-7.15044e-06
1.32893e-05
8.78304e-06
1.39585e-05
-9.56032e-06
1.35233e-05
1.08926e-05
1.38617e-05
-9.74739e-06
1.34866e-05
9.2285e-06
1.41524e-05
-8.2317e-06
1.33897e-05
1.06792e-05
1.4237e-05
-1.12217e-05
1.36401e-05
1.22484e-05
1.43258e-05
-9.72094e-06
1.34977e-05
1.11334e-05
1.47744e-05
-1.08284e-05
1.37454e-05
1.40457e-05
1.46591e-05
-1.08208e-05
1.39126e-05
1.26713e-05
1.55005e-05
-1.04725e-05
1.40905e-05
1.56676e-05
1.54211e-05
-1.061e-05
1.43682e-05
1.51841e-05
1.6614e-05
-1.00083e-05
1.48199e-05
1.83081e-05
1.67733e-05
-8.74024e-06
1.48394e-05
1.99592e-05
1.80244e-05
-9.18879e-06
1.59346e-05
2.46986e-05
1.9065e-05
-6.79526e-06
1.88755e-05
2.96891e-05
2.24544e-05
-4.04584e-06
2.62941e-05
3.4556e-05
2.78866e-05
9.04911e-06
3.73732e-05
3.109e-05
3.34497e-05
-2.57626e-06
3.30456e-05
-2.6639e-06
3.22277e-05
-3.56068e-06
3.16692e-05
-4.30433e-06
3.14215e-05
-3.82924e-06
3.17905e-05
-3.97251e-06
3.19536e-05
-4.20788e-06
3.18221e-05
-2.81757e-06
3.17963e-05
-9.61702e-07
3.16487e-05
-1.72441e-07
3.22171e-05
4.1884e-07
3.35128e-05
1.07237e-06
3.45072e-05
-3.74154e-07
3.45074e-05
-4.74697e-06
3.42459e-05
-9.21243e-06
3.39776e-05
-1.26846e-05
3.34507e-05
-1.56311e-05
3.29726e-05
-1.90333e-05
3.20836e-05
-2.27238e-05
3.06378e-05
-2.4506e-05
2.84098e-05
-2.46992e-05
2.44403e-05
-2.34681e-05
1.87953e-05
-1.88769e-05
1.33525e-05
-1.41956e-05
9.90719e-06
-1.59281e-05
8.03233e-06
-2.21596e-05
6.79812e-06
-2.7685e-05
5.86496e-06
-3.0301e-05
5.36455e-06
-2.92965e-05
5.05104e-06
-2.38187e-05
4.79847e-06
-1.60036e-05
4.84242e-06
-7.0587e-06
5.31069e-06
8.95914e-07
5.59627e-06
7.38285e-06
5.53637e-06
1.41585e-05
5.75982e-06
2.19013e-05
6.65565e-06
2.76762e-05
7.76219e-06
2.93795e-05
8.71069e-06
2.77056e-05
9.59169e-06
2.42556e-05
1.04745e-05
1.97799e-05
1.12261e-05
1.52587e-05
1.15715e-05
1.16634e-05
1.17853e-05
9.0614e-06
1.17671e-05
7.51751e-06
1.21471e-05
5.89422e-06
1.22231e-05
5.11412e-06
1.28716e-05
3.74412e-06
1.2824e-05
2.90802e-06
1.34319e-05
2.88859e-06
1.31491e-05
9.38183e-08
1.36075e-05
4.21047e-06
1.33103e-05
-4.1722e-06
1.35749e-05
7.84371e-06
1.35585e-05
-9.01347e-06
1.35094e-05
1.12755e-05
1.36579e-05
-1.05539e-05
1.36552e-05
9.90549e-06
1.33464e-05
-7.00861e-06
1.39533e-05
5.44222e-06
1.31636e-05
-3.91915e-06
1.38785e-05
4.87577e-06
1.36059e-05
-6.33403e-06
1.35535e-05
8.97274e-06
1.38636e-05
-9.78515e-06
1.36329e-05
1.00354e-05
1.349e-05
-8.34735e-06
1.35981e-05
7.70778e-06
1.36377e-05
-7.18996e-06
1.32761e-05
9.14465e-06
1.37785e-05
-1.00627e-05
1.32961e-05
1.1375e-05
1.3454e-05
-9.90521e-06
1.3208e-05
9.47446e-06
1.36516e-05
-8.67533e-06
1.31011e-05
1.12298e-05
1.3661e-05
-1.17815e-05
1.32279e-05
1.26814e-05
1.37235e-05
-1.02165e-05
1.31189e-05
1.1738e-05
1.41144e-05
-1.1824e-05
1.33855e-05
1.47745e-05
1.41509e-05
-1.15862e-05
1.34318e-05
1.33904e-05
1.48133e-05
-1.1854e-05
1.36436e-05
1.68373e-05
1.48462e-05
-1.18126e-05
1.38664e-05
1.61639e-05
1.58988e-05
-1.20407e-05
1.43278e-05
1.98791e-05
1.6056e-05
-1.04684e-05
1.4708e-05
2.13072e-05
1.74059e-05
-1.18867e-05
1.6479e-05
2.56255e-05
1.87781e-05
-9.09442e-06
1.86213e-05
2.98459e-05
1.96521e-05
-5.0766e-06
2.2807e-05
3.14011e-05
2.53782e-05
6.47791e-06
3.23252e-05
3.04263e-05
3.31302e-05
-2.17113e-06
3.25737e-05
-2.10739e-06
3.27305e-05
-3.71756e-06
3.26083e-05
-4.18214e-06
3.22264e-05
-3.44732e-06
3.22792e-05
-4.02524e-06
3.18688e-05
-3.79752e-06
3.1106e-05
-2.05477e-06
3.08502e-05
-7.05908e-07
3.14088e-05
-7.31032e-07
3.25229e-05
-6.9521e-07
3.34648e-05
1.30385e-07
3.39343e-05
-8.43635e-07
3.39885e-05
-4.80115e-06
3.38536e-05
-9.07752e-06
3.34485e-05
-1.22795e-05
3.2934e-05
-1.51166e-05
3.22547e-05
-1.8354e-05
3.07758e-05
-2.12449e-05
2.8732e-05
-2.24622e-05
2.5877e-05
-2.18442e-05
2.11108e-05
-1.87019e-05
1.50912e-05
-1.28573e-05
1.02067e-05
-9.31114e-06
7.29143e-06
-1.30129e-05
5.38157e-06
-2.02498e-05
3.91395e-06
-2.62174e-05
2.67826e-06
-2.90653e-05
1.84559e-06
-2.84638e-05
1.46265e-06
-2.34357e-05
1.31427e-06
-1.58552e-05
1.52487e-06
-7.2693e-06
1.97495e-06
4.45829e-07
2.26926e-06
7.08854e-06
2.36204e-06
1.40658e-05
2.77128e-06
2.14921e-05
3.92e-06
2.65275e-05
5.38815e-06
2.79114e-05
6.79828e-06
2.62955e-05
8.1458e-06
2.29081e-05
9.34336e-06
1.85824e-05
1.02411e-05
1.4361e-05
1.06957e-05
1.12088e-05
1.10796e-05
8.6775e-06
1.12785e-05
7.31862e-06
1.1789e-05
5.3837e-06
1.19382e-05
4.9649e-06
1.25294e-05
3.15294e-06
1.24264e-05
3.01101e-06
1.30126e-05
2.30239e-06
1.26862e-05
4.2025e-07
1.32776e-05
3.61907e-06
1.28968e-05
-3.79137e-06
1.34377e-05
7.30279e-06