/*--------------------------------*- C++ -*----------------------------------*\
| =========                 |                                                 |
| \\      /  F ield         | OpenFOAM: The Open Source CFD Toolbox           |
|  \\    /   O peration     | Version:  2.4.0                                 |
|   \\  /    A nd           | Web:      www.OpenFOAM.org                      |
|    \\/     M anipulation  |                                                 |
\*---------------------------------------------------------------------------*/
FoamFile
{
    version     2.0;
    format      ascii;
    class       volVectorField;
    location    "0.001";
    object      U;
}
// * * * * * * * * * * * * * * * * * * * * * * * * * * * * * * * * * * * * * //

dimensions      [0 1 -1 0 0 0 0];

internalField   nonuniform List<vector> 
17600
(
(9.83111 -0.283269 0)
(9.68091 -0.160809 0)
(9.59734 -0.116528 0)
(9.74009 -0.0827567 0)
(10.0473 -0.041852 0)
(10.3212 -0.00491848 0)
(10.4448 0.0184169 0)
(10.4282 0.0273307 0)
(10.3332 0.0262374 0)
(10.2213 0.0195033 0)
(10.1382 0.0112672 0)
(10.1038 0.00422735 0)
(10.1094 -0.0013466 0)
(10.1379 -0.00565922 0)
(10.2074 -0.00838389 0)
(10.316 -0.0104259 0)
(10.447 -0.012071 0)
(10.6195 -0.0135001 0)
(10.6797 -0.00467489 0)
(10.6347 0.144438 0)
(10.0198 0.117797 0)
(10.039 0.0731486 0)
(10.1172 0.000597188 0)
(10.4015 -0.0108995 0)
(10.8249 0.0259088 0)
(11.2005 0.061903 0)
(11.4233 0.07438 0)
(11.5045 0.0658999 0)
(11.4994 0.0473527 0)
(11.4633 0.0262844 0)
(11.4273 0.00823781 0)
(11.4174 -0.00424817 0)
(11.4327 -0.012634 0)
(11.464 -0.0181261 0)
(11.5272 -0.0209984 0)
(11.6231 -0.0230639 0)
(11.7379 -0.0253713 0)
(11.8915 -0.0270238 0)
(11.9694 -0.0180241 0)
(12.3316 0.26028 0)
(10.0288 0.0241304 0)
(10.0585 -0.0483855 0)
(10.1583 -0.106056 0)
(10.4804 -0.0685915 0)
(10.9423 0.0178138 0)
(11.3485 0.080055 0)
(11.5977 0.0962164 0)
(11.7057 0.0796107 0)
(11.7268 0.0502563 0)
(11.7155 0.020408 0)
(11.6944 -0.00243012 0)
(11.6929 -0.0168318 0)
(11.7101 -0.02581 0)
(11.7388 -0.0312952 0)
(11.7942 -0.0338363 0)
(11.8779 -0.0360316 0)
(11.9772 -0.0391221 0)
(12.1143 -0.0410359 0)
(12.1961 -0.0374638 0)
(12.7093 0.207654 0)
(10.0262 0.00490209 0)
(10.0494 -0.0657231 0)
(10.145 -0.104507 0)
(10.4675 -0.0434617 0)
(10.9278 0.0551759 0)
(11.3287 0.113475 0)
(11.5738 0.116557 0)
(11.6817 0.0859773 0)
(11.7056 0.0458982 0)
(11.6971 0.0101159 0)
(11.6765 -0.0143359 0)
(11.6733 -0.0284994 0)
(11.6853 -0.0366317 0)
(11.7062 -0.0412797 0)
(11.7506 -0.0431866 0)
(11.8208 -0.0454277 0)
(11.9051 -0.0493979 0)
(12.0276 -0.0513169 0)
(12.1074 -0.05844 0)
(12.6531 0.098431 0)
(10.0222 -0.00610258 0)
(10.0405 -0.0713407 0)
(10.1333 -0.0958636 0)
(10.4494 -0.0250478 0)
(10.8955 0.0731529 0)
(11.2789 0.123528 0)
(11.5096 0.117139 0)
(11.6079 0.0794779 0)
(11.6257 0.0355842 0)
(11.6099 -0.000810526 0)
(11.5828 -0.0238417 0)
(11.5725 -0.036389 0)
(11.5757 -0.0431762 0)
(11.5866 -0.046999 0)
(11.6195 -0.0486074 0)
(11.6772 -0.0513052 0)
(11.7485 -0.0566938 0)
(11.8593 -0.0597642 0)
(11.9351 -0.0805518 0)
(12.4687 -0.00724715 0)
(10.0187 -0.0111774 0)
(10.034 -0.0681061 0)
(10.1281 -0.0829166 0)
(10.44 -0.0113863 0)
(10.8714 0.0803134 0)
(11.2353 0.122918 0)
(11.4494 0.111101 0)
(11.5358 0.0710257 0)
(11.5446 0.0269917 0)
(11.5193 -0.00794071 0)
(11.4838 -0.0290448 0)
(11.4648 -0.0401359 0)
(11.4582 -0.0459571 0)
(11.4589 -0.0493911 0)
(11.4811 -0.0511884 0)
(11.5278 -0.0547545 0)
(11.5888 -0.0620586 0)
(11.6897 -0.067624 0)
(11.7607 -0.104882 0)
(12.2422 -0.101953 0)
(10.0158 -0.0133617 0)
(10.0292 -0.0617041 0)
(10.1267 -0.0705197 0)
(10.4381 -0.00297215 0)
(10.8585 0.080418 0)
(11.206 0.117008 0)
(11.4054 0.103075 0)
(11.4805 0.0635289 0)
(11.4804 0.0212543 0)
(11.4464 -0.0114708 0)
(11.403 -0.0307823 0)
(11.3757 -0.0408083 0)
(11.3602 -0.0460974 0)
(11.352 -0.0494919 0)
(11.3651 -0.051799 0)
(11.4027 -0.0564844 0)
(11.4555 -0.0660063 0)
(11.548 -0.0751969 0)
(11.6136 -0.129304 0)
(12.0287 -0.180057 0)
(10.0136 -0.0139389 0)
(10.0254 -0.0546388 0)
(10.1266 -0.059859 0)
(10.4398 0.00176117 0)
(10.8536 0.0767486 0)
(11.1892 0.108928 0)
(11.3773 0.0949855 0)
(11.4436 0.0576262 0)
(11.4363 0.0180219 0)
(11.3957 -0.0122907 0)
(11.346 -0.0300612 0)
(11.3119 -0.0393595 0)
(11.2893 -0.0444113 0)
(11.2739 -0.0479929 0)
(11.2797 -0.0510095 0)
(11.3103 -0.0569702 0)
(11.357 -0.0688882 0)
(11.442 -0.0825116 0)
(11.5017 -0.152053 0)
(11.8488 -0.241307 0)
(10.0119 -0.0137224 0)
(10.0224 -0.0479804 0)
(10.1268 -0.0509419 0)
(10.4426 0.00429561 0)
(10.8527 0.0713689 0)
(11.1806 0.100198 0)
(11.361 0.0873657 0)
(11.4214 0.0530323 0)
(11.4092 0.0165253 0)
(11.3643 -0.0113379 0)
(11.3103 -0.0277403 0)
(11.2714 -0.0365054 0)
(11.2435 -0.0415075 0)
(11.2228 -0.0453919 0)
(11.2232 -0.0491997 0)
(11.2485 -0.0564927 0)
(11.2906 -0.0708563 0)
(11.3688 -0.089333 0)
(11.4219 -0.171987 0)
(11.7031 -0.288171 0)
(10.0106 -0.0130678 0)
(10.0201 -0.0419231 0)
(10.127 -0.0433349 0)
(10.4454 0.00569764 0)
(10.8536 0.0654375 0)
(11.1763 0.0914981 0)
(11.3518 0.0802381 0)
(11.4087 0.0492844 0)
(11.3939 0.0160522 0)
(11.3468 -0.00936858 0)
(11.2904 -0.0244815 0)
(11.2486 -0.0327989 0)
(11.2172 -0.0378153 0)
(11.1929 -0.0420462 0)
(11.1896 -0.0466611 0)
(11.2111 -0.0552878 0)
(11.2498 -0.0720368 0)
(11.3217 -0.0954353 0)
(11.3672 -0.18847 0)
(11.5872 -0.323168 0)
(10.0097 -0.0121206 0)
(10.0183 -0.0363931 0)
(10.1271 -0.0366675 0)
(10.4479 0.00654996 0)
(10.855 0.0594914 0)
(11.1742 0.083075 0)
(11.3466 0.0734924 0)
(11.4016 0.0460086 0)
(11.3856 0.016104 0)
(11.3379 -0.00689359 0)
(11.2807 -0.0207302 0)
(11.2374 -0.0286034 0)
(11.204 -0.0336629 0)
(11.1773 -0.0382317 0)
(11.1715 -0.0436125 0)
(11.1902 -0.0535064 0)
(11.2263 -0.0725027 0)
(11.2919 -0.100601 0)
(11.3292 -0.201294 0)
(11.4932 -0.348428 0)
(10.0091 -0.0109505 0)
(10.017 -0.0312646 0)
(10.1273 -0.030687 0)
(10.4501 0.0071263 0)
(10.8566 0.0537319 0)
(11.1733 0.0749784 0)
(11.3436 0.0670178 0)
(11.3976 0.0429725 0)
(11.3814 0.0163832 0)
(11.3339 -0.00421879 0)
(11.2768 -0.0167633 0)
(11.2329 -0.0241705 0)
(11.1984 -0.02924 0)
(11.1703 -0.0341181 0)
(11.1628 -0.0402075 0)
(11.1795 -0.0512812 0)
(11.2134 -0.0723121 0)
(11.2728 -0.104714 0)
(11.3013 -0.210571 0)
(11.4151 -0.3656 0)
(10.0088 -0.00961946 0)
(10.0161 -0.026459 0)
(10.1276 -0.0252529 0)
(10.4521 0.007525 0)
(10.8582 0.0481895 0)
(11.1731 0.0671718 0)
(11.3421 0.0607346 0)
(11.3957 0.0400521 0)
(11.3795 0.0167392 0)
(11.3327 -0.00149803 0)
(11.2761 -0.0127247 0)
(11.2322 -0.019624 0)
(11.1971 -0.0246758 0)
(11.1681 -0.0298182 0)
(11.1593 -0.0365449 0)
(11.1741 -0.0486834 0)
(11.2058 -0.0715057 0)
(11.2589 -0.107691 0)
(11.2781 -0.216563 0)
(11.3476 -0.375992 0)
(10.0085 -0.00816352 0)
(10.0155 -0.0219159 0)
(10.1279 -0.0202731 0)
(10.4539 0.00777545 0)
(10.86 0.0428272 0)
(11.1737 0.0595979 0)
(11.3418 0.0545889 0)
(11.3952 0.0371794 0)
(11.3794 0.0171019 0)
(11.3332 0.00120034 0)
(11.2773 -0.00868968 0)
(11.2335 -0.0150433 0)
(11.1981 -0.0200229 0)
(11.1684 -0.0253826 0)
(11.1585 -0.0326731 0)
(11.1716 -0.045765 0)
(11.2009 -0.0701002 0)
(11.2475 -0.109486 0)
(11.2572 -0.219572 0)
(11.2878 -0.380596 0)
(10.0085 -0.00661803 0)
(10.0152 -0.0176056 0)
(10.1283 -0.0157064 0)
(10.4557 0.00786202 0)
(10.8619 0.0375713 0)
(11.1749 0.0521999 0)
(11.3425 0.0485441 0)
(11.3959 0.0343115 0)
(11.3808 0.0174463 0)
(11.3349 0.00386898 0)
(11.2797 -0.00468801 0)
(11.2361 -0.0104461 0)
(11.2005 -0.0153297 0)
(11.17 -0.020847 0)
(11.1589 -0.0286248 0)
(11.1701 -0.0425321 0)
(11.1967 -0.068125 0)
(11.2367 -0.110084 0)
(11.2369 -0.219889 0)
(11.2333 -0.38027 0)
(10.0085 -0.00500488 0)
(10.015 -0.0134872 0)
(10.1286 -0.0115016 0)
(10.4572 0.00776804 0)
(10.8639 0.0323547 0)
(11.1767 0.0449229 0)
(11.3442 0.0425664 0)
(11.3979 0.0314234 0)
(11.3833 0.0177626 0)
(11.3377 0.00650356 0)
(11.2831 -0.000730833 0)
(11.2397 -0.00586435 0)
(11.2037 -0.0105928 0)
(11.1725 -0.0162145 0)
(11.1601 -0.0243985 0)
(11.1693 -0.0389849 0)
(11.193 -0.0655442 0)
(11.2261 -0.109469 0)
(11.2168 -0.217759 0)
(11.1833 -0.375682 0)
(10.0085 -0.00334902 0)
(10.015 -0.00953378 0)
(10.129 -0.00761845 0)
(10.4587 0.00747461 0)
(10.8661 0.0271064 0)
(11.1791 0.0377051 0)
(11.3468 0.0366204 0)
(11.4009 0.0285038 0)
(11.387 0.0180519 0)
(11.3415 0.00910883 0)
(11.2875 0.00317992 0)
(11.2441 -0.00129087 0)
(11.2077 -0.0058316 0)
(11.1756 -0.0114949 0)
(11.1618 -0.0200031 0)
(11.1687 -0.0351112 0)
(11.189 -0.0623693 0)
(11.2151 -0.107656 0)
(11.1965 -0.213424 0)
(11.1369 -0.367452 0)
(10.0086 -0.00165419 0)
(10.015 -0.00570294 0)
(10.1292 -0.00399119 0)
(10.4599 0.00700205 0)
(10.8682 0.0217878 0)
(11.1819 0.0304732 0)
(11.3503 0.0306576 0)
(11.405 0.0255368 0)
(11.3917 0.0182974 0)
(11.3466 0.0116793 0)
(11.2926 0.00705341 0)
(11.2492 0.00325825 0)
(11.2123 -0.0010391 0)
(11.1793 -0.0066948 0)
(11.1638 -0.0154254 0)
(11.1683 -0.0309038 0)
(11.1851 -0.0585606 0)
(11.2043 -0.104656 0)
(11.1764 -0.20709 0)
(11.0938 -0.356063 0)
(10.0087 6.82158e-05 0)
(10.0151 -0.00197211 0)
(10.1294 -0.000573054 0)
(10.4608 0.00638288 0)
(10.8702 0.0163886 0)
(11.185 0.0231602 0)
(11.3544 0.0246189 0)
(11.4098 0.0225064 0)
(11.3971 0.0184712 0)
(11.3527 0.0142058 0)
(11.2985 0.0108969 0)
(11.2549 0.00780645 0)
(11.2176 0.00375246 0)
(11.1834 -0.00182837 0)
(11.1662 -0.0106869 0)
(11.1679 -0.0263443 0)
(11.1809 -0.0541585 0)
(11.1932 -0.100541 0)
(11.1565 -0.198987 0)
(11.0536 -0.341976 0)
(10.0088 0.00180893 0)
(10.0151 0.00168582 0)
(10.1294 0.00270766 0)
(10.4614 0.00566475 0)
(10.8719 0.0109118 0)
(11.1879 0.0157195 0)
(11.3586 0.0184397 0)
(11.4148 0.0193761 0)
(11.4028 0.0185643 0)
(11.3589 0.0166754 0)
(11.3051 0.0147199 0)
(11.261 0.012339 0)
(11.2229 0.00855769 0)
(11.1877 0.00309403 0)
(11.1686 -0.00577304 0)
(11.1676 -0.0214306 0)
(11.1767 -0.0491104 0)
(11.1823 -0.095334 0)
(11.1371 -0.189276 0)
(11.0162 -0.325564 0)
(10.0089 0.00356091 0)
(10.0152 0.00528792 0)
(10.1294 0.00589975 0)
(10.4617 0.00491422 0)
(10.8731 0.00536998 0)
(11.1902 0.00813401 0)
(11.3621 0.0120737 0)
(11.4193 0.016089 0)
(11.4079 0.0185652 0)
(11.3646 0.019099 0)
(11.3114 0.0185075 0)
(11.2672 0.0168734 0)
(11.2281 0.0133575 0)
(11.192 0.00805185 0)
(11.1711 -0.000719412 0)
(11.1672 -0.0161719 0)
(11.1723 -0.0434807 0)
(11.1714 -0.0891059 0)
(11.1181 -0.178156 0)
(10.9813 -0.307185 0)
(10.0089 0.00532003 0)
(10.0153 0.00888833 0)
(10.1294 0.00907045 0)
(10.4616 0.00420007 0)
(10.8733 -0.000197551 0)
(11.1912 0.000409308 0)
(11.3642 0.00550446 0)
(11.4224 0.0126092 0)
(11.4116 0.018423 0)
(11.3689 0.0214526 0)
(11.3162 0.0222632 0)
(11.2725 0.0213753 0)
(11.2328 0.0181674 0)
(11.1956 0.0130304 0)
(11.1732 0.00446473 0)
(11.1667 -0.0106055 0)
(11.1679 -0.0372533 0)
(11.1609 -0.0818917 0)
(11.1 -0.165781 0)
(10.9491 -0.287158 0)
(10.0089 0.00704231 0)
(10.0155 0.0125366 0)
(10.1293 0.012316 0)
(10.4612 0.00354884 0)
(10.8729 -0.00579444 0)
(11.1912 -0.00743482 0)
(11.3647 -0.00122509 0)
(11.4239 0.00896 0)
(11.4137 0.018111 0)
(11.3714 0.0236855 0)
(11.3192 0.025963 0)
(11.276 0.0258606 0)
(11.2366 0.0229409 0)
(11.1983 0.0180237 0)
(11.1747 0.00971289 0)
(11.1659 -0.00478269 0)
(11.1634 -0.0305428 0)
(11.1506 -0.0738113 0)
(11.0827 -0.152366 0)
(10.9194 -0.265755 0)
(10.009 0.00868832 0)
(10.0158 0.016268 0)
(10.1294 0.015752 0)
(10.4605 0.0029828 0)
(10.872 -0.0114447 0)
(11.1905 -0.0153712 0)
(11.364 -0.00807064 0)
(11.4239 0.00518456 0)
(11.4142 0.0176635 0)
(11.3721 0.025766 0)
(11.3203 0.0295792 0)
(11.2777 0.0302937 0)
(11.2388 0.0277013 0)
(11.1999 0.0230175 0)
(11.1754 0.0149998 0)
(11.1647 0.00121726 0)
(11.1589 -0.0233605 0)
(11.1408 -0.0649411 0)
(11.0666 -0.138067 0)
(10.8922 -0.243247 0)
(10.009 0.0102519 0)
(10.0161 0.0201063 0)
(10.1295 0.0194476 0)
(10.4597 0.00252534 0)
(10.8709 -0.0171696 0)
(11.1895 -0.0234367 0)
(11.3633 -0.0150124 0)
(11.4232 0.00133154 0)
(11.4138 0.0171374 0)
(11.3716 0.0277281 0)
(11.3198 0.0330606 0)
(11.2776 0.0346807 0)
(11.2394 0.0324207 0)
(11.2008 0.0279771 0)
(11.1753 0.0202683 0)
(11.1631 0.00731747 0)
(11.1544 -0.0158666 0)
(11.1316 -0.055439 0)
(11.0517 -0.12311 0)
(10.8679 -0.219837 0)
(10.0091 0.0117327 0)
(10.0166 0.0240848 0)
(10.1296 0.0234513 0)
(10.4588 0.00218359 0)
(10.8697 -0.0229889 0)
(11.1887 -0.0316683 0)
(11.3628 -0.022062 0)
(11.4223 -0.00257567 0)
(11.4131 0.0165602 0)
(11.3705 0.0296258 0)
(11.3184 0.0364265 0)
(11.2764 0.0389795 0)
(11.2386 0.037107 0)
(11.2009 0.0328938 0)
(11.1744 0.0255218 0)
(11.1614 0.0134397 0)
(11.1502 -0.00812036 0)
(11.1234 -0.0454153 0)
(11.0385 -0.107695 0)
(10.8466 -0.19584 0)
(10.0093 0.0131268 0)
(10.0172 0.0282409 0)
(10.1298 0.0278021 0)
(10.4578 0.00195278 0)
(10.8686 -0.0289437 0)
(11.1882 -0.0400868 0)
(11.3627 -0.0292163 0)
(11.4219 -0.00653029 0)
(11.4125 0.015945 0)
(11.3693 0.0315031 0)
(11.3167 0.0397036 0)
(11.2745 0.043185 0)
(11.2373 0.0417303 0)
(11.2003 0.0377804 0)
(11.1735 0.0307193 0)
(11.1598 0.0195128 0)
(11.1467 -0.000301526 0)
(11.1164 -0.0350798 0)
(11.0276 -0.0921026 0)
(10.8291 -0.171533 0)
(10.0095 0.0144048 0)
(10.018 0.0326018 0)
(10.1299 0.0325337 0)
(10.4565 0.00180924 0)
(10.8674 -0.0350967 0)
(11.1882 -0.0487398 0)
(11.3633 -0.0365016 0)
(11.4222 -0.0105454 0)
(11.4125 0.0152876 0)
(11.3685 0.03337 0)
(11.3153 0.0429233 0)
(11.2728 0.0472597 0)
(11.2359 0.0462853 0)
(11.1998 0.0426085 0)
(11.1736 0.0358318 0)
(11.1592 0.0254827 0)
(11.1448 0.00751109 0)
(11.112 -0.0246315 0)
(11.0202 -0.0766434 0)
(10.8168 -0.147367 0)
(10.01 0.0155422 0)
(10.0191 0.0372139 0)
(10.1301 0.0377031 0)
(10.455 0.00174918 0)
(10.8663 -0.0415005 0)
(11.1886 -0.0576805 0)
(11.3648 -0.0439472 0)
(11.4236 -0.0146424 0)
(11.4136 0.0145748 0)
(11.3687 0.0352082 0)
(11.315 0.0460829 0)
(11.2722 0.0512024 0)
(11.2358 0.0507114 0)
(11.2006 0.0473252 0)
(11.1758 0.0408164 0)
(11.1609 0.0313015 0)
(11.1464 0.0151568 0)
(11.112 -0.0143308 0)
(11.0187 -0.0616973 0)
(10.812 -0.123649 0)
(10.0107 0.0164901 0)
(10.0207 0.0421256 0)
(10.1304 0.0433821 0)
(10.4532 0.00178224 0)
(10.8651 -0.0482028 0)
(11.1898 -0.0669766 0)
(11.3675 -0.0516189 0)
(11.4267 -0.0188835 0)
(11.4166 0.013747 0)
(11.3711 0.0369633 0)
(11.3171 0.049159 0)
(11.2747 0.0549657 0)
(11.2389 0.0549418 0)
(11.2053 0.0518678 0)
(11.1825 0.0456342 0)
(11.1686 0.0368776 0)
(11.1548 0.0225256 0)
(11.1204 -0.004353 0)
(11.0274 -0.0476457 0)
(10.8187 -0.100666 0)
(10.0116 0.0172016 0)
(10.0227 0.0474281 0)
(10.1306 0.0497216 0)
(10.4512 0.00201212 0)
(10.8641 -0.0551826 0)
(11.1921 -0.076679 0)
(11.3726 -0.0596161 0)
(11.4329 -0.0233986 0)
(11.4233 0.0126754 0)
(11.378 0.0385083 0)
(11.3246 0.0520384 0)
(11.2833 0.0584757 0)
(11.2495 0.0588595 0)
(11.2183 0.0561301 0)
(11.1988 0.0501458 0)
(11.188 0.0420702 0)
(11.176 0.0294209 0)
(11.1435 0.00505712 0)
(11.0532 -0.0347635 0)
(10.8429 -0.078627 0)
(10.013 0.0175938 0)
(10.0253 0.0532166 0)
(10.1308 0.0569449 0)
(10.4488 0.00268256 0)
(10.8638 -0.0622852 0)
(11.1969 -0.086794 0)
(11.3818 -0.0681111 0)
(11.445 -0.0284471 0)
(11.4372 0.01108 0)
(11.3935 0.0395791 0)
(11.3421 0.0544847 0)
(11.3036 0.0615123 0)
(11.2731 0.0623091 0)
(11.2461 0.0599175 0)
(11.2314 0.0541373 0)
(11.2262 0.0466745 0)
(11.2176 0.0356791 0)
(11.1899 0.0136109 0)
(11.1049 -0.0230924 0)
(10.892 -0.0577284 0)
(10.0147 0.017528 0)
(10.0285 0.0595674 0)
(10.1311 0.0654405 0)
(10.4468 0.00439579 0)
(10.8657 -0.0690071 0)
(11.2068 -0.0971657 0)
(11.3991 -0.0773228 0)
(11.4674 -0.0344855 0)
(11.4636 0.00843926 0)
(11.4234 0.0396796 0)
(11.3759 0.0560913 0)
(11.3422 0.0638369 0)
(11.3173 0.0649548 0)
(11.2964 0.0629115 0)
(11.2887 0.0573377 0)
(11.2913 0.0504923 0)
(11.2897 0.0409104 0)
(11.2689 0.0209586 0)
(11.1924 -0.0125534 0)
(10.9737 -0.0380659 0)
(10.017 0.0166319 0)
(10.0326 0.0662507 0)
(10.1318 0.0755981 0)
(10.4461 0.00820549 0)
(10.8724 -0.0742159 0)
(11.2258 -0.107209 0)
(11.4292 -0.0873909 0)
(11.5058 -0.042157 0)
(11.5084 0.0039014 0)
(11.4742 0.0379857 0)
(11.4327 0.0561581 0)
(11.4059 0.0648302 0)
(11.3885 0.0663929 0)
(11.376 0.0647354 0)
(11.3775 0.0594094 0)
(11.3903 0.053096 0)
(11.3992 0.0447727 0)
(11.3875 0.026823 0)
(11.3224 -0.00313446 0)
(11.0994 -0.0200667 0)
(10.02 0.0141093 0)
(10.0376 0.0721878 0)
(10.1339 0.0874168 0)
(10.4495 0.0156814 0)
(10.8876 -0.0757455 0)
(11.2583 -0.115401 0)
(11.4769 -0.0979352 0)
(11.5644 -0.0520253 0)
(11.5757 -0.00360437 0)
(11.5494 0.0333151 0)
(11.5157 0.0536784 0)
(11.4975 0.063713 0)
(11.4899 0.0659558 0)
(11.4876 0.064841 0)
(11.5003 0.0599444 0)
(11.5252 0.0541499 0)
(11.5472 0.0469434 0)
(11.5473 0.0309917 0)
(11.4964 0.00491007 0)
(11.2694 -0.00426239 0)
(10.0236 0.0086415 0)
(10.0444 0.0747905 0)
(10.14 0.0996411 0)
(10.4606 0.0284775 0)
(10.9143 -0.0700413 0)
(11.3056 -0.118323 0)
(11.5417 -0.106946 0)
(11.6418 -0.0636864 0)
(11.6629 -0.0148742 0)
(11.6463 0.0242874 0)
(11.6212 0.0471613 0)
(11.6125 0.0590901 0)
(11.6151 0.0625914 0)
(11.6244 0.0624189 0)
(11.6495 0.0582647 0)
(11.6879 0.0531113 0)
(11.7245 0.0470282 0)
(11.7387 0.0331415 0)
(11.7039 0.0112197 0)
(11.4691 0.00896196 0)
(10.0276 -0.00285439 0)
(10.0538 0.0683594 0)
(10.1526 0.107382 0)
(10.48 0.0461896 0)
(10.9482 -0.0529839 0)
(11.3582 -0.110019 0)
(11.6109 -0.109257 0)
(11.7229 -0.074053 0)
(11.7525 -0.0290454 0)
(11.7449 0.0101442 0)
(11.7274 0.035129 0)
(11.7269 0.0493274 0)
(11.7396 0.0545595 0)
(11.7597 0.0559858 0)
(11.7971 0.0532188 0)
(11.8491 0.0491793 0)
(11.9011 0.0442088 0)
(11.9311 0.0327365 0)
(11.9121 0.0153668 0)
(11.6654 0.0191259 0)
(10.0302 -0.0226128 0)
(10.0632 0.0501902 0)
(10.1664 0.107968 0)
(10.4929 0.070793 0)
(10.9624 -0.0158789 0)
(11.3782 -0.077259 0)
(11.6371 -0.0907351 0)
(11.7524 -0.0710426 0)
(11.7815 -0.0376821 0)
(11.7762 -0.00457954 0)
(11.7611 0.0192217 0)
(11.7651 0.0345887 0)
(11.7838 0.0404033 0)
(11.8131 0.0437945 0)
(11.8616 0.0430619 0)
(11.9267 0.0411057 0)
(11.9929 0.0369422 0)
(12.0388 0.0288106 0)
(12.0326 0.0162574 0)
(11.7736 0.0255159 0)
(10.0215 -0.117091 0)
(10.044 -0.0724858 0)
(10.1252 -0.000127723 0)
(10.4125 0.0115804 0)
(10.8416 -0.0254059 0)
(11.2254 -0.0607972 0)
(11.4576 -0.0714581 0)
(11.5477 -0.0610343 0)
(11.5517 -0.0397111 0)
(11.5279 -0.0160898 0)
(11.5024 0.00314854 0)
(11.5026 0.0171417 0)
(11.5206 0.0224353 0)
(11.5539 0.026923 0)
(11.6092 0.0281152 0)
(11.6837 0.0282945 0)
(11.7602 0.0254266 0)
(11.8172 0.0209985 0)
(11.8173 0.0135507 0)
(11.5492 0.0250644 0)
(9.83268 0.283534 0)
(9.68609 0.161097 0)
(9.60547 0.11677 0)
(9.75077 0.0830817 0)
(10.0625 0.0419568 0)
(10.3425 0.00500486 0)
(10.4732 -0.0178113 0)
(10.4632 -0.0260969 0)
(10.375 -0.0238074 0)
(10.278 -0.0158402 0)
(10.2099 -0.00677193 0)
(10.19 0.00130488 0)
(10.1938 0.00470229 0)
(10.2233 0.00847842 0)
(10.2806 0.0105117 0)
(10.3615 0.0119683 0)
(10.4445 0.0112227 0)
(10.511 0.0106237 0)
(10.517 0.00805879 0)
(10.1795 0.0154249 0)
(9.61052 -0.38084 0)
(12.5763 -2.11008 0)
(13.2659 -3.79339 0)
(12.1278 -4.79077 0)
(10.7122 -5.19499 0)
(9.53561 -5.23452 0)
(8.62796 -5.08332 0)
(7.91889 -4.84367 0)
(7.35775 -4.57367 0)
(6.91456 -4.30311 0)
(6.56772 -4.04417 0)
(6.29861 -3.79961 0)
(6.09071 -3.56842 0)
(5.93028 -3.34894 0)
(5.8065 -3.13995 0)
(5.71109 -2.94087 0)
(5.63768 -2.7515 0)
(5.58147 -2.57179 0)
(5.53887 -2.40166 0)
(5.50704 -2.24103 0)
(5.48367 -2.08963 0)
(5.46701 -1.9472 0)
(5.45574 -1.81334 0)
(5.44881 -1.6877 0)
(5.44527 -1.56984 0)
(5.44447 -1.45936 0)
(5.44592 -1.35582 0)
(5.44927 -1.25884 0)
(5.45408 -1.16798 0)
(5.4601 -1.0829 0)
(5.46719 -1.00319 0)
(5.47521 -0.928546 0)
(5.4839 -0.858619 0)
(5.49309 -0.793148 0)
(5.5027 -0.731836 0)
(5.51261 -0.674484 0)
(5.5226 -0.62086 0)
(5.53249 -0.570796 0)
(5.54223 -0.524103 0)
(5.55174 -0.480655 0)
(5.56083 -0.440285 0)
(5.56945 -0.402876 0)
(5.5776 -0.368259 0)
(5.58532 -0.336329 0)
(5.59253 -0.306901 0)
(5.59929 -0.279857 0)
(5.6057 -0.254995 0)
(5.61188 -0.232193 0)
(5.61779 -0.211242 0)
(5.62347 -0.192011 0)
(5.629 -0.174307 0)
(5.63444 -0.158011 0)
(5.63969 -0.142968 0)
(5.6447 -0.129075 0)
(5.64949 -0.116218 0)
(5.65405 -0.104331 0)
(5.65825 -0.0933437 0)
(5.66201 -0.0832148 0)
(5.6653 -0.0739041 0)
(5.66814 -0.065396 0)
(5.6704 -0.0576625 0)
(5.67206 -0.0506919 0)
(5.67316 -0.0444495 0)
(5.67376 -0.0389251 0)
(5.67384 -0.0340632 0)
(5.67346 -0.0298438 0)
(5.67274 -0.0261907 0)
(5.67182 -0.0230799 0)
(5.67071 -0.020417 0)
(5.66952 -0.0181712 0)
(5.66839 -0.0162504 0)
(5.66742 -0.0146322 0)
(5.66659 -0.0132392 0)
(5.66588 -0.0120547 0)
(5.66533 -0.0110182 0)
(5.66493 -0.010126 0)
(5.66458 -0.00933083 0)
(5.66423 -0.00863497 0)
(5.6639 -0.00800208 0)
(5.6636 -0.00744484 0)
(5.66326 -0.00693258 0)
(5.66287 -0.0064795 0)
(5.66247 -0.0060601 0)
(5.6621 -0.00569424 0)
(5.6617 -0.00535773 0)
(5.66126 -0.00507196 0)
(5.66084 -0.00481435 0)
(5.66048 -0.0046128 0)
(5.66013 -0.00444147 0)
(5.65981 -0.00432472 0)
(5.6596 -0.00423561 0)
(5.65954 -0.00419564 0)
(5.6596 -0.00417623 0)
(5.65974 -0.00418928 0)
(5.65996 -0.00421591 0)
(5.66026 -0.00426956 0)
(5.66055 -0.00432842 0)
(5.66079 -0.00440156 0)
(5.66098 -0.00446748 0)
(5.66115 -0.00453942 0)
(5.66122 -0.0045984 0)
(5.66119 -0.00465308 0)
(5.66109 -0.00467978 0)
(5.66096 -0.00469058 0)
(5.66074 -0.00467097 0)
(5.66045 -0.00463814 0)
(5.66011 -0.00457558 0)
(5.65977 -0.00450135 0)
(5.65937 -0.00440554 0)
(5.65892 -0.00430635 0)
(5.65844 -0.00418803 0)
(5.65798 -0.00406674 0)
(5.65746 -0.00393234 0)
(5.65689 -0.00379945 0)
(5.65628 -0.00365268 0)
(5.65567 -0.00350545 0)
(5.65496 -0.00334736 0)
(5.65418 -0.00319325 0)
(5.65332 -0.00302481 0)
(5.65244 -0.00285731 0)
(5.65149 -0.00267434 0)
(5.6505 -0.00249311 0)
(5.64953 -0.00228957 0)
(5.64865 -0.00207741 0)
(5.64779 -0.00184106 0)
(5.64696 -0.00159008 0)
(5.64617 -0.00128835 0)
(5.64541 -0.000922318 0)
(5.64458 -0.000476861 0)
(5.64366 3.5857e-05 0)
(5.64264 0.000638378 0)
(5.64157 0.00132233 0)
(5.64037 0.00210325 0)
(5.63906 0.00297415 0)
(5.63767 0.0039613 0)
(5.63625 0.00505701 0)
(5.63475 0.00628274 0)
(5.63319 0.00763456 0)
(5.63159 0.00914542 0)
(5.62999 0.0108126 0)
(5.62835 0.0126651 0)
(5.62665 0.0147058 0)
(5.62493 0.0169765 0)
(5.62321 0.0194832 0)
(5.62142 0.0222654 0)
(5.61957 0.025337 0)
(5.61766 0.0287519 0)
(5.61573 0.0325295 0)
(5.61369 0.0367243 0)
(5.61154 0.0413658 0)
(5.60931 0.0465259 0)
(5.607 0.0522427 0)
(5.60455 0.0585931 0)
(5.60195 0.0656284 0)
(5.59922 0.0734481 0)
(5.59637 0.0821163 0)
(5.59334 0.0917457 0)
(5.59013 0.102419 0)
(5.58675 0.114281 0)
(5.58322 0.127435 0)
(5.57948 0.142048 0)
(5.57551 0.158255 0)
(5.57133 0.176261 0)
(5.56695 0.19624 0)
(5.56226 0.218424 0)
(5.55724 0.243031 0)
(5.55185 0.270342 0)
(5.54607 0.300629 0)
(5.53976 0.334212 0)
(5.53284 0.371433 0)
(5.52522 0.412683 0)
(5.51685 0.458382 0)
(5.50756 0.509003 0)
(5.49726 0.565063 0)
(5.48586 0.627154 0)
(5.47332 0.695917 0)
(5.45951 0.772083 0)
(5.44442 0.856443 0)
(5.42803 0.94992 0)
(5.41037 1.05349 0)
(5.39142 1.16832 0)
(5.37121 1.29562 0)
(5.34983 1.43684 0)
(5.32734 1.59353 0)
(5.30372 1.76752 0)
(5.27901 1.96077 0)
(5.2533 2.17567 0)
(5.22662 2.41485 0)
(5.19893 2.68153 0)
(5.17021 2.97949 0)
(5.14043 3.31355 0)
(5.10935 3.68978 0)
(5.07632 4.11652 0)
(5.04018 4.60535 0)
(4.99921 5.17378 0)
(4.94488 5.85021 0)
(4.90726 6.67541 0)
(4.79088 7.7711 0)
(4.88928 9.18507 0)
(3.83231 12.1487 0)
(13.4211 0.549089 0)
(14.6326 -0.894096 0)
(14.3102 -2.88477 0)
(12.8506 -4.15044 0)
(11.2897 -4.69737 0)
(10.0147 -4.82061 0)
(9.03883 -4.73954 0)
(8.28441 -4.56603 0)
(7.69055 -4.35511 0)
(7.21974 -4.13369 0)
(6.84676 -3.91361 0)
(6.55207 -3.699 0)
(6.3195 -3.49074 0)
(6.13595 -3.28886 0)
(5.99106 -3.09348 0)
(5.87671 -2.90501 0)
(5.78651 -2.72397 0)
(5.7155 -2.55082 0)
(5.65983 -2.38591 0)
(5.61647 -2.22942 0)
(5.58289 -2.08136 0)
(5.55717 -1.94162 0)
(5.53781 -1.80994 0)
(5.52364 -1.68608 0)
(5.51359 -1.56969 0)
(5.50693 -1.4604 0)
(5.50309 -1.35783 0)
(5.50163 -1.26162 0)
(5.50207 -1.1714 0)
(5.50412 -1.08678 0)
(5.50759 -1.00741 0)
(5.51229 -0.932995 0)
(5.51794 -0.86324 0)
(5.52434 -0.797843 0)
(5.53139 -0.736551 0)
(5.53894 -0.679164 0)
(5.54674 -0.625496 0)
(5.55462 -0.575354 0)
(5.56249 -0.528567 0)
(5.57026 -0.485011 0)
(5.57776 -0.44455 0)
(5.5849 -0.407036 0)
(5.59167 -0.372314 0)
(5.59812 -0.340265 0)
(5.60416 -0.310743 0)
(5.60983 -0.283573 0)
(5.61526 -0.258582 0)
(5.62053 -0.235621 0)
(5.62562 -0.21453 0)
(5.63055 -0.195122 0)
(5.63542 -0.177234 0)
(5.64024 -0.160734 0)
(5.64494 -0.145505 0)
(5.64946 -0.131415 0)
(5.65381 -0.118359 0)
(5.65796 -0.106279 0)
(5.66179 -0.0951261 0)
(5.66522 -0.0848503 0)
(5.6682 -0.0754044 0)
(5.67075 -0.0667851 0)
(5.67274 -0.0589738 0)
(5.67417 -0.0519467 0)
(5.67504 -0.0456614 0)
(5.67543 -0.0401057 0)
(5.67531 -0.0352424 0)
(5.67475 -0.0310142 0)
(5.67387 -0.0273578 0)
(5.6728 -0.0242288 0)
(5.67157 -0.0215711 0)
(5.67026 -0.019301 0)
(5.66904 -0.0173528 0)
(5.66799 -0.0156857 0)
(5.66709 -0.0142615 0)
(5.66632 -0.013026 0)
(5.66572 -0.0119393 0)
(5.66528 -0.0109887 0)
(5.6649 -0.0101591 0)
(5.66453 -0.00941924 0)
(5.66418 -0.00874793 0)
(5.66386 -0.00814778 0)
(5.66351 -0.00761704 0)
(5.66311 -0.00713494 0)
(5.66271 -0.00669053 0)
(5.66233 -0.00629372 0)
(5.66191 -0.00595024 0)
(5.66147 -0.00564514 0)
(5.66104 -0.00537477 0)
(5.66065 -0.00515151 0)
(5.66028 -0.00498375 0)
(5.65993 -0.00485157 0)
(5.6597 -0.00474821 0)
(5.65962 -0.00467993 0)
(5.65966 -0.00464949 0)
(5.65978 -0.00464198 0)
(5.65998 -0.00464959 0)
(5.66027 -0.00467991 0)
(5.66054 -0.00473441 0)
(5.66077 -0.00479914 0)
(5.66095 -0.00485894 0)
(5.6611 -0.00492233 0)
(5.66116 -0.00499027 0)
(5.66111 -0.0050449 0)
(5.661 -0.00506796 0)
(5.66085 -0.00506733 0)
(5.66061 -0.00505176 0)
(5.66029 -0.00501411 0)
(5.65993 -0.00494628 0)
(5.65956 -0.00486209 0)
(5.65914 -0.0047737 0)
(5.65867 -0.00467434 0)
(5.65819 -0.00455487 0)
(5.65771 -0.00442786 0)
(5.65719 -0.00430276 0)
(5.65661 -0.00417208 0)
(5.656 -0.00402414 0)
(5.65537 -0.00387046 0)
(5.65466 -0.00371926 0)
(5.65386 -0.00356262 0)
(5.653 -0.00339024 0)
(5.65211 -0.00321056 0)
(5.65116 -0.00303349 0)
(5.65016 -0.00284512 0)
(5.64919 -0.00263255 0)
(5.6483 -0.00240336 0)
(5.64743 -0.00216417 0)
(5.64659 -0.00190546 0)
(5.64578 -0.00159989 0)
(5.645 -0.00123168 0)
(5.64418 -0.000795736 0)
(5.64325 -0.000285546 0)
(5.64224 0.000315942 0)
(5.64117 0.00100287 0)
(5.63998 0.00177304 0)
(5.63868 0.00264184 0)
(5.63731 0.0036294 0)
(5.6359 0.00473289 0)
(5.63443 0.00595309 0)
(5.63289 0.00731108 0)
(5.63132 0.00883099 0)
(5.62976 0.010516 0)
(5.62816 0.0123731 0)
(5.62651 0.0144311 0)
(5.62485 0.0167217 0)
(5.62319 0.0192576 0)
(5.62147 0.0220562 0)
(5.6197 0.0251572 0)
(5.61788 0.0286048 0)
(5.61604 0.0324252 0)
(5.61411 0.0366509 0)
(5.61209 0.041338 0)
(5.60999 0.0465482 0)
(5.60784 0.0523272 0)
(5.60556 0.0587292 0)
(5.60315 0.065834 0)
(5.60063 0.073729 0)
(5.59802 0.0824882 0)
(5.59526 0.0921983 0)
(5.59234 0.102975 0)
(5.5893 0.114947 0)
(5.58614 0.128231 0)
(5.58281 0.142964 0)
(5.5793 0.159318 0)
(5.57565 0.177479 0)
(5.57183 0.197632 0)
(5.56779 0.219983 0)
(5.56348 0.24478 0)
(5.55888 0.272289 0)
(5.55396 0.302787 0)
(5.5486 0.336579 0)
(5.54273 0.374016 0)
(5.53627 0.415494 0)
(5.52918 0.461425 0)
(5.5213 0.512276 0)
(5.51258 0.56857 0)
(5.50294 0.630904 0)
(5.49237 0.699912 0)
(5.4808 0.77632 0)
(5.46824 0.86093 0)
(5.45476 0.954657 0)
(5.44044 1.05849 0)
(5.42532 1.17354 0)
(5.40954 1.30108 0)
(5.39329 1.44252 0)
(5.37673 1.59941 0)
(5.35998 1.77352 0)
(5.34324 1.96687 0)
(5.32677 2.18178 0)
(5.31084 2.4209 0)
(5.2957 2.68738 0)
(5.28176 2.98505 0)
(5.26953 3.31868 0)
(5.25961 3.6944 0)
(5.25265 4.12052 0)
(5.24955 4.6088 0)
(5.25224 5.17686 0)
(5.25767 5.85328 0)
(5.3156 6.67988 0)
(5.35758 7.75921 0)
(5.76225 9.13505 0)
(5.3651 11.4051 0)
(14.0277 0.442332 0)
(14.6702 -0.844727 0)
(14.202 -2.54311 0)
(12.8958 -3.68424 0)
(11.4741 -4.23066 0)
(10.2676 -4.40517 0)
(9.31718 -4.38969 0)
(8.56926 -4.28102 0)
(7.97197 -4.12752 0)
(7.4907 -3.95374 0)
(7.10209 -3.77175 0)
(6.78857 -3.58705 0)
(6.53588 -3.40221 0)
(6.33238 -3.21874 0)
(6.16862 -3.03794 0)
(6.03696 -2.86107 0)
(5.93115 -2.6893 0)
(5.84621 -2.52359 0)
(5.77816 -2.36466 0)
(5.72379 -2.213 0)
(5.68044 -2.06888 0)
(5.64601 -1.93234 0)
(5.61887 -1.8033 0)
(5.59774 -1.68161 0)
(5.58146 -1.56702 0)
(5.5692 -1.45921 0)
(5.56031 -1.35786 0)
(5.5543 -1.26263 0)
(5.55063 -1.17321 0)
(5.54896 -1.08921 0)
(5.54906 -1.01032 0)
(5.5507 -0.93626 0)
(5.55356 -0.866757 0)
(5.55742 -0.801521 0)
(5.56215 -0.740325 0)
(5.56758 -0.682981 0)
(5.57343 -0.629324 0)
(5.57953 -0.579163 0)
(5.58576 -0.532342 0)
(5.59202 -0.488739 0)
(5.59812 -0.448228 0)
(5.60398 -0.410654 0)
(5.60957 -0.375868 0)
(5.61493 -0.343745 0)
(5.61997 -0.314142 0)
(5.62475 -0.286873 0)
(5.62935 -0.261769 0)
(5.63386 -0.238677 0)
(5.63827 -0.217441 0)
(5.6426 -0.19787 0)
(5.64692 -0.179806 0)
(5.65125 -0.163119 0)
(5.6555 -0.147703 0)
(5.65962 -0.133422 0)
(5.66361 -0.120183 0)
(5.66743 -0.107931 0)
(5.67096 -0.0966289 0)
(5.67411 -0.0862215 0)
(5.67684 -0.0766712 0)
(5.67914 -0.0679711 0)
(5.68091 -0.060109 0)
(5.68212 -0.0530487 0)
(5.6828 -0.04675 0)
(5.683 -0.0411913 0)
(5.68272 -0.0363358 0)
(5.68201 -0.0321129 0)
(5.681 -0.0284591 0)
(5.6798 -0.0253247 0)
(5.67846 -0.0226552 0)
(5.67706 -0.0203607 0)
(5.67576 -0.0183797 0)
(5.67463 -0.0166723 0)
(5.67367 -0.0152068 0)
(5.67285 -0.0139253 0)
(5.67221 -0.0127943 0)
(5.67173 -0.0118008 0)
(5.67131 -0.0109349 0)
(5.67091 -0.0101598 0)
(5.67054 -0.00945805 0)
(5.67021 -0.00883014 0)
(5.66984 -0.00827784 0)
(5.66943 -0.00777419 0)
(5.66902 -0.00731118 0)
(5.66863 -0.00689706 0)
(5.66821 -0.00654076 0)
(5.66776 -0.00622166 0)
(5.66731 -0.00593822 0)
(5.66691 -0.00570079 0)
(5.66651 -0.00551957 0)
(5.66615 -0.00536913 0)
(5.66589 -0.00524565 0)
(5.66579 -0.00515396 0)
(5.6658 -0.00510252 0)
(5.6659 -0.00507522 0)
(5.66608 -0.00506706 0)
(5.66634 -0.0050842 0)
(5.66659 -0.00513191 0)
(5.66681 -0.00518987 0)
(5.66698 -0.0052482 0)
(5.66711 -0.00531222 0)
(5.66715 -0.00538331 0)
(5.66708 -0.00543486 0)
(5.66695 -0.00545339 0)
(5.66677 -0.00544724 0)
(5.66651 -0.00542902 0)
(5.66617 -0.00538561 0)
(5.66579 -0.00531457 0)
(5.66541 -0.0052289 0)
(5.66497 -0.00514285 0)
(5.66449 -0.00504282 0)