/*--------------------------------*- C++ -*----------------------------------*\
| =========                 |                                                 |
| \\      /  F ield         | OpenFOAM: The Open Source CFD Toolbox           |
|  \\    /   O peration     | Version:  2.4.0                                 |
|   \\  /    A nd           | Web:      www.OpenFOAM.org                      |
|    \\/     M anipulation  |                                                 |
\*---------------------------------------------------------------------------*/
FoamFile
{
    version     2.0;
    format      ascii;
    class       volVectorField;
    location    "0.001";
    object      U;
}
// * * * * * * * * * * * * * * * * * * * * * * * * * * * * * * * * * * * * * //

dimensions      [0 1 -1 0 0 0 0];

internalField   nonuniform List<vector> 
17600
(
(9.80731 -0.277256 0)
(9.60805 -0.147874 0)
(9.37473 -0.0802814 0)
(9.14081 -0.0414952 0)
(8.91676 -0.0191411 0)
(8.70489 -0.00637736 0)
(8.50646 0.000736574 0)
(8.32218 0.00449776 0)
(8.15205 0.0062756 0)
(7.99564 0.00689863 0)
(7.8523 0.00687187 0)
(7.72117 0.00650746 0)
(7.60123 0.00600363 0)
(7.49115 0.00549876 0)
(7.38896 0.00511169 0)
(7.29166 0.00499017 0)
(7.19406 0.00538898 0)
(7.08513 0.00693367 0)
(6.94815 0.0110532 0)
(6.64869 0.0219382 0)
(9.99583 0.123545 0)
(9.98202 0.108442 0)
(9.94172 0.0858931 0)
(9.88802 0.0695582 0)
(9.82545 0.0574356 0)
(9.75482 0.0484601 0)
(9.67763 0.041805 0)
(9.5957 0.0367647 0)
(9.51061 0.0328239 0)
(9.42366 0.0296354 0)
(9.33587 0.0269755 0)
(9.24798 0.0247112 0)
(9.16044 0.0227823 0)
(9.07323 0.0212008 0)
(8.98561 0.020076 0)
(8.89557 0.0196878 0)
(8.79867 0.0206838 0)
(8.6841 0.0246548 0)
(8.53483 0.0370933 0)
(8.21101 0.095022 0)
(10.0095 0.0375003 0)
(10.0251 0.0259964 0)
(10.0298 0.0233872 0)
(10.029 0.0261474 0)
(10.0254 0.0288368 0)
(10.0181 0.0306225 0)
(10.0067 0.0315938 0)
(9.9915 0.0318908 0)
(9.97252 0.0316634 0)
(9.94983 0.0310605 0)
(9.92343 0.0302188 0)
(9.89324 0.0292681 0)
(9.85899 0.0283484 0)
(9.82015 0.0276429 0)
(9.77563 0.0274465 0)
(9.72327 0.0283081 0)
(9.65876 0.0313893 0)
(9.57212 0.0394469 0)
(9.4473 0.0620634 0)
(9.18249 0.12865 0)
(10.0117 0.0299497 0)
(10.0323 0.0317687 0)
(10.0464 0.0336207 0)
(10.0572 0.036099 0)
(10.0675 0.0370788 0)
(10.0764 0.0369912 0)
(10.0837 0.0363896 0)
(10.0891 0.0355284 0)
(10.0926 0.0345369 0)
(10.0942 0.0335038 0)
(10.0937 0.0325038 0)
(10.0908 0.0316194 0)
(10.0853 0.0309656 0)
(10.0764 0.0307339 0)
(10.0632 0.031282 0)
(10.0434 0.0333262 0)
(10.0133 0.0384302 0)
(9.96426 0.050307 0)
(9.88405 0.0811175 0)
(9.70454 0.155226 0)
(10.0113 0.0267811 0)
(10.0324 0.0308553 0)
(10.0493 0.0318995 0)
(10.0638 0.0335131 0)
(10.0784 0.0342396 0)
(10.0926 0.0342629 0)
(10.1059 0.0339476 0)
(10.1181 0.0334392 0)
(10.1292 0.0328108 0)
(10.1391 0.0321282 0)
(10.1477 0.0314648 0)
(10.1548 0.0309161 0)
(10.1601 0.0306247 0)
(10.1631 0.0308304 0)
(10.1629 0.031977 0)
(10.1577 0.0349439 0)
(10.1444 0.0416311 0)
(10.1163 0.0564226 0)
(10.0658 0.0928535 0)
(9.95061 0.171786 0)
(10.0103 0.0245037 0)
(10.0306 0.0290496 0)
(10.0485 0.0299173 0)
(10.0645 0.0314485 0)
(10.081 0.032281 0)
(10.0973 0.0324383 0)
(10.1131 0.0322463 0)
(10.1281 0.0318511 0)
(10.1424 0.0313325 0)
(10.1558 0.0307651 0)
(10.1682 0.0302314 0)
(10.1795 0.02984 0)
(10.1894 0.0297537 0)
(10.1974 0.0302487 0)
(10.2028 0.0318353 0)
(10.204 0.0355182 0)
(10.1983 0.0434461 0)
(10.1806 0.0604049 0)
(10.146 0.100514 0)
(10.0703 0.182038 0)
(10.0092 0.0218974 0)
(10.0285 0.0267104 0)
(10.0466 0.0277121 0)
(10.0634 0.0292419 0)
(10.0806 0.0301207 0)
(10.098 0.0303368 0)
(10.1149 0.0302113 0)
(10.1314 0.0298932 0)
(10.1472 0.0294633 0)
(10.1623 0.0289978 0)
(10.1767 0.0285831 0)
(10.19 0.0283364 0)
(10.2022 0.0284372 0)
(10.2128 0.0291937 0)
(10.2209 0.0311748 0)
(10.2254 0.0354906 0)
(10.2239 0.0444847 0)
(10.2123 0.0631808 0)
(10.1872 0.105822 0)
(10.137 0.188493 0)
(10.0082 0.0194668 0)
(10.0264 0.0244783 0)
(10.0445 0.0256046 0)
(10.0615 0.0270663 0)
(10.0791 0.0279262 0)
(10.097 0.0281605 0)
(10.1145 0.0280756 0)
(10.1317 0.0278152 0)
(10.1484 0.027457 0)
(10.1645 0.027077 0)
(10.1799 0.0267642 0)
(10.1944 0.0266433 0)
(10.2079 0.0269095 0)
(10.2199 0.0279001 0)
(10.2297 0.030236 0)
(10.2363 0.0351178 0)
(10.2375 0.0450416 0)
(10.23 0.0651635 0)
(10.2118 0.109555 0)
(10.1799 0.192388 0)
(10.0074 0.0172622 0)
(10.0245 0.0223153 0)
(10.0425 0.0235021 0)
(10.0596 0.024865 0)
(10.0773 0.0256862 0)
(10.0954 0.0259279 0)
(10.1132 0.0258744 0)
(10.1308 0.0256625 0)
(10.1479 0.0253666 0)
(10.1646 0.025062 0)
(10.1806 0.0248402 0)
(10.1958 0.0248331 0)
(10.2101 0.0252497 0)
(10.223 0.0264538 0)
(10.2339 0.0291126 0)
(10.2419 0.034503 0)
(10.2451 0.0452381 0)
(10.241 0.0665301 0)
(10.2282 0.112068 0)
(10.2108 0.194337 0)
(10.0067 0.0152487 0)
(10.0228 0.0201983 0)
(10.0406 0.0214043 0)
(10.0578 0.0226617 0)
(10.0755 0.0234355 0)
(10.0936 0.0236764 0)
(10.1116 0.0236461 0)
(10.1294 0.0234742 0)
(10.1468 0.0232323 0)
(10.1637 0.0229947 0)
(10.1801 0.0228553 0)
(10.1957 0.0229518 0)
(10.2105 0.0235062 0)
(10.224 0.0249058 0)
(10.2358 0.0278584 0)
(10.2448 0.033704 0)
(10.2497 0.0451405 0)
(10.2484 0.0673781 0)
(10.2403 0.113572 0)
(10.2349 0.194718 0)
(10.0061 0.0133927 0)
(10.0214 0.0181239 0)
(10.0389 0.0193177 0)
(10.0561 0.0204664 0)
(10.0738 0.021185 0)
(10.0919 0.0214184 0)
(10.11 0.0214052 0)
(10.1278 0.0212674 0)
(10.1453 0.0210734 0)
(10.1624 0.0208967 0)
(10.179 0.0208327 0)
(10.195 0.0210246 0)
(10.2101 0.0217059 0)
(10.2241 0.0232845 0)
(10.2364 0.026503 0)
(10.2463 0.0327525 0)
(10.2526 0.0447867 0)
(10.254 0.0677674 0)
(10.25 0.11421 0)
(10.2548 0.193801 0)
(10.0056 0.01167 0)
(10.0202 0.0160922 0)
(10.0375 0.017245 0)
(10.0546 0.0182817 0)
(10.0723 0.0189389 0)
(10.0903 0.01916 0)
(10.1084 0.0191597 0)
(10.1263 0.0190518 0)
(10.1439 0.0189016 0)
(10.1611 0.0187811 0)
(10.1778 0.0187871 0)
(10.1939 0.0190673 0)
(10.2093 0.0198653 0)
(10.2236 0.0216071 0)
(10.2364 0.0250642 0)
(10.2471 0.0316673 0)
(10.2547 0.0442002 0)
(10.2584 0.0677383 0)
(10.2583 0.114088 0)
(10.2718 0.191783 0)
(10.0052 0.0100602 0)
(10.0192 0.0141006 0)
(10.0363 0.0151852 0)
(10.0533 0.0161073 0)
(10.0709 0.0166984 0)
(10.089 0.0169037 0)
(10.107 0.0169136 0)
(10.1249 0.0168328 0)
(10.1425 0.0167232 0)
(10.1598 0.0166555 0)
(10.1766 0.0167268 0)
(10.1928 0.0170892 0)
(10.2083 0.0179945 0)
(10.2229 0.0198841 0)
(10.2362 0.023553 0)
(10.2476 0.0304605 0)
(10.2563 0.0433971 0)
(10.2624 0.0673218 0)
(10.2658 0.113291 0)
(10.2869 0.188824 0)
(10.0049 0.00854473 0)
(10.0183 0.0121455 0)
(10.0352 0.0131373 0)
(10.0522 0.0139425 0)
(10.0698 0.0144637 0)
(10.0878 0.0146503 0)
(10.1058 0.0146684 0)
(10.1237 0.0146128 0)
(10.1413 0.0145417 0)
(10.1586 0.0145238 0)
(10.1755 0.0146568 0)
(10.1918 0.0150956 0)
(10.2074 0.0160994 0)
(10.2223 0.0181218 0)
(10.2359 0.021976 0)
(10.248 0.0291395 0)
(10.2579 0.0423892 0)
(10.266 0.0665431 0)
(10.2727 0.111889 0)
(10.3005 0.185056 0)
(10.0046 0.00710742 0)
(10.0176 0.0102224 0)
(10.0343 0.0110998 0)
(10.0513 0.0117862 0)
(10.0688 0.0122344 0)
(10.0868 0.0124 0)
(10.1048 0.0124248 0)
(10.1227 0.0123929 0)
(10.1403 0.0123584 0)
(10.1576 0.0123882 0)
(10.1745 0.0125794 0)
(10.1909 0.0130895 0)
(10.2067 0.0141832 0)
(10.2217 0.0163238 0)
(10.2357 0.0203371 0)
(10.2484 0.0277094 0)
(10.2594 0.0411859 0)
(10.2696 0.0654245 0)
(10.2793 0.109944 0)
(10.313 0.180588 0)
(10.0044 0.00573357 0)
(10.017 0.00832687 0)
(10.0336 0.00907133 0)
(10.0505 0.009637 0)
(10.068 0.0100097 0)
(10.086 0.0101525 0)
(10.104 0.0101828 0)
(10.1219 0.0101733 0)
(10.1395 0.0101741 0)
(10.1568 0.0102495 0)
(10.1737 0.010496 0)
(10.1902 0.0110724 0)
(10.2061 0.0122477 0)
(10.2213 0.0144918 0)
(10.2356 0.0186386 0)
(10.2489 0.0261736 0)
(10.261 0.039795 0)
(10.2731 0.0639854 0)
(10.2857 0.107507 0)
(10.3246 0.175514 0)
(10.0042 0.00440991 0)
(10.0165 0.0064541 0)
(10.033 0.00705024 0)
(10.0499 0.00749373 0)
(10.0674 0.00778889 0)
(10.0853 0.00790726 0)
(10.1033 0.00794195 0)
(10.1212 0.00795394 0)
(10.1388 0.00798878 0)
(10.1562 0.00810802 0)
(10.1731 0.00840697 0)
(10.1896 0.00904495 0)
(10.2056 0.0102936 0)
(10.221 0.012627 0)
(10.2357 0.0168818 0)
(10.2496 0.0245348 0)
(10.2627 0.0382235 0)
(10.2767 0.0622445 0)
(10.292 0.104626 0)
(10.3354 0.169916 0)
(10.0041 0.00312422 0)
(10.0162 0.00459915 0)
(10.0326 0.00503498 0)
(10.0495 0.00535503 0)
(10.0669 0.00557103 0)
(10.0848 0.00566372 0)
(10.1028 0.00570204 0)
(10.1207 0.00573465 0)
(10.1383 0.00580239 0)
(10.1557 0.00596382 0)
(10.1727 0.00631243 0)
(10.1892 0.00700731 0)
(10.2053 0.00832126 0)
(10.2209 0.0107296 0)
(10.2359 0.0150675 0)
(10.2504 0.0227952 0)
(10.2646 0.036478 0)
(10.2803 0.0602189 0)
(10.2981 0.101339 0)
(10.3456 0.163864 0)
(10.004 0.00186512 0)
(10.016 0.00275699 0)
(10.0323 0.00302393 0)
(10.0492 0.00321958 0)
(10.0666 0.00335527 0)
(10.0845 0.00342133 0)
(10.1025 0.00346261 0)
(10.1204 0.00351509 0)
(10.138 0.00361474 0)
(10.1554 0.00381671 0)
(10.1724 0.00421234 0)
(10.189 0.00495942 0)
(10.2052 0.00633068 0)
(10.221 0.00880002 0)
(10.2364 0.0131966 0)
(10.2514 0.0209571 0)
(10.2665 0.0345651 0)
(10.2839 0.0579255 0)
(10.3042 0.0976858 0)
(10.3551 0.157419 0)
(10.0039 0.000621869 0)
(10.0159 0.000922741 0)
(10.0322 0.00101573 0)
(10.0491 0.00108645 0)
(10.0665 0.00114112 0)
(10.0844 0.00117994 0)
(10.1024 0.00122369 0)
(10.1202 0.00129541 0)
(10.1379 0.00142597 0)
(10.1553 0.00166691 0)
(10.1723 0.0021068 0)
(10.189 0.00290142 0)
(10.2053 0.00432189 0)
(10.2213 0.00683835 0)
(10.237 0.0112697 0)
(10.2526 0.0190228 0)
(10.2687 0.0324914 0)
(10.2876 0.0553799 0)
(10.3101 0.0936975 0)
(10.3642 0.150634 0)
(10.0039 -0.000616447 0)
(10.0159 -0.000909699 0)
(10.0322 -0.000992623 0)
(10.0491 -0.00104726 0)
(10.0665 -0.00107402 0)
(10.0844 -0.00106279 0)
(10.1024 -0.00101692 0)
(10.1202 -0.000926421 0)
(10.1379 -0.000765679 0)
(10.1553 -0.000487059 0)
(10.1724 -5.11119e-06 0)
(10.1891 0.000833053 0)
(10.2056 0.00229507 0)
(10.2217 0.00484493 0)
(10.2377 0.00928781 0)
(10.2539 0.0169948 0)
(10.2709 0.0302635 0)
(10.2914 0.0525979 0)
(10.3159 0.0894054 0)
(10.3727 0.143557 0)
(10.004 -0.00185972 0)
(10.016 -0.00274402 0)
(10.0323 -0.00300094 0)
(10.0492 -0.00318061 0)
(10.0666 -0.00328855 0)
(10.0845 -0.00330486 0)
(10.1025 -0.00325709 0)
(10.1204 -0.0031483 0)
(10.1381 -0.00295837 0)
(10.1555 -0.00264377 0)
(10.1726 -0.00212282 0)
(10.1894 -0.00124632 0)
(10.206 0.000249792 0)
(10.2223 0.00282011 0)
(10.2386 0.007252 0)
(10.2554 0.0148761 0)
(10.2733 0.0278883 0)
(10.2951 0.0495942 0)
(10.3216 0.084836 0)
(10.3808 0.136229 0)
(10.0041 -0.00311888 0)
(10.0162 -0.0045863 0)
(10.0326 -0.00501223 0)
(10.0495 -0.00531647 0)
(10.0669 -0.00550507 0)
(10.0849 -0.00554858 0)
(10.1029 -0.0054989 0)
(10.1208 -0.00537209 0)
(10.1385 -0.00515353 0)
(10.1559 -0.00480415 0)
(10.1731 -0.00424629 0)
(10.1899 -0.00333531 0)
(10.2066 -0.00181332 0)
(10.2231 0.000764581 0)
(10.2397 0.00516375 0)
(10.257 0.0126697 0)
(10.2757 0.0253727 0)
(10.2989 0.0463836 0)
(10.3272 0.0800152 0)
(10.3886 0.128687 0)
(10.0042 -0.00440465 0)
(10.0165 -0.00644144 0)
(10.033 -0.00702785 0)
(10.0499 -0.0074558 0)
(10.0674 -0.00772406 0)
(10.0853 -0.00779412 0)
(10.1034 -0.00774241 0)
(10.1213 -0.00759775 0)
(10.139 -0.00735122 0)
(10.1565 -0.00696834 0)
(10.1737 -0.00637601 0)
(10.1906 -0.00543481 0)
(10.2073 -0.0038937 0)
(10.224 -0.00132153 0)
(10.2409 0.00302456 0)
(10.2587 0.0103793 0)
(10.2783 0.0227244 0)
(10.3027 0.0429804 0)
(10.3326 0.0749652 0)
(10.3959 0.120965 0)
(10.0044 -0.00572842 0)
(10.017 -0.00831447 0)
(10.0336 -0.00904942 0)
(10.0505 -0.0095999 0)
(10.068 -0.0099464 0)
(10.086 -0.010042 0)
(10.104 -0.00998796 0)
(10.122 -0.00982552 0)
(10.1397 -0.00955149 0)
(10.1572 -0.00913628 0)
(10.1744 -0.00851165 0)
(10.1914 -0.00754428 0)
(10.2082 -0.00599115 0)
(10.2251 -0.00343586 0)
(10.2423 0.000837015 0)
(10.2606 0.00800893 0)
(10.2809 0.0199509 0)
(10.3065 0.0393989 0)
(10.338 0.0697086 0)
(10.4028 0.11309 0)
(10.0046 -0.00710241 0)
(10.0176 -0.0102103 0)
(10.0343 -0.0110785 0)
(10.0513 -0.0117501 0)
(10.0688 -0.0121729 0)
(10.0868 -0.0122928 0)
(10.1049 -0.0122359 0)
(10.1228 -0.0120556 0)
(10.1406 -0.0117544 0)
(10.1581 -0.0113078 0)
(10.1754 -0.0106529 0)
(10.1924 -0.00966302 0)
(10.2093 -0.00810455 0)
(10.2263 -0.00557767 0)
(10.2438 -0.00139738 0)
(10.2625 0.00556309 0)
(10.2836 0.0170608 0)
(10.3103 0.0356532 0)
(10.3431 0.0642649 0)
(10.4093 0.105092 0)
(10.0049 -0.00853989 0)
(10.0183 -0.0121338 0)
(10.0352 -0.0131167 0)
(10.0522 -0.0139077 0)
(10.0698 -0.0144045 0)
(10.0878 -0.014547 0)
(10.1059 -0.0144865 0)
(10.1239 -0.0142879 0)
(10.1417 -0.0139597 0)
(10.1592 -0.0134824 0)
(10.1765 -0.0127989 0)
(10.1935 -0.0117899 0)
(10.2105 -0.0102321 0)
(10.2277 -0.00774434 0)
(10.2454 -0.00367321 0)
(10.2645 0.0030481 0)
(10.2862 0.0140632 0)
(10.3139 0.031758 0)
(10.348 0.0586546 0)
(10.4154 0.0969945 0)
(10.0052 -0.0100555 0)
(10.0192 -0.0140894 0)
(10.0363 -0.0151655 0)
(10.0533 -0.0160739 0)
(10.0709 -0.0166418 0)
(10.089 -0.0168048 0)
(10.1071 -0.0167397 0)
(10.1251 -0.0165222 0)
(10.1429 -0.0161666 0)
(10.1604 -0.015659 0)
(10.1777 -0.0149482 0)
(10.1948 -0.0139228 0)
(10.2119 -0.0123712 0)
(10.2291 -0.0099321 0)
(10.247 -0.00598655 0)
(10.2665 0.000470487 0)
(10.2887 0.0109689 0)
(10.3173 0.0277291 0)
(10.3525 0.052897 0)
(10.4208 0.0888215 0)
(10.0056 -0.0116656 0)
(10.0202 -0.0160815 0)
(10.0375 -0.0172261 0)
(10.0546 -0.0182499 0)
(10.0723 -0.0188851 0)
(10.0904 -0.0190663 0)
(10.1085 -0.018995 0)
(10.1265 -0.0187573 0)
(10.1443 -0.0183736 0)
(10.1618 -0.0178353 0)
(10.1791 -0.0170977 0)
(10.1961 -0.016058 0)
(10.2132 -0.0145171 0)
(10.2305 -0.0121354 0)
(10.2485 -0.00833011 0)
(10.2682 -0.00216074 0)
(10.291 0.00779011 0)
(10.3203 0.0235833 0)
(10.3565 0.0470131 0)
(10.4255 0.0805943 0)
(10.0061 -0.0133885 0)
(10.0214 -0.0181138 0)
(10.039 -0.0193 0)
(10.0561 -0.0204364 0)
(10.0738 -0.0211344 0)
(10.092 -0.0213303 0)
(10.1101 -0.0212505 0)
(10.1281 -0.0209906 0)
(10.1458 -0.020577 0)
(10.1632 -0.0200069 0)
(10.1804 -0.0192423 0)
(10.1974 -0.0181893 0)
(10.2144 -0.0166627 0)
(10.2317 -0.0143455 0)
(10.2497 -0.0106936 0)
(10.2696 -0.00483168 0)
(10.2927 0.00454335 0)
(10.3225 0.0193404 0)
(10.3596 0.0410259 0)
(10.4291 0.0723369 0)
(10.0067 -0.0152448 0)
(10.0228 -0.0201888 0)
(10.0406 -0.0213877 0)
(10.0578 -0.0226338 0)
(10.0755 -0.0233884 0)
(10.0937 -0.0235944 0)
(10.1118 -0.0235023 0)
(10.1296 -0.0232169 0)
(10.1472 -0.0227705 0)
(10.1645 -0.0221661 0)
(10.1816 -0.0213728 0)
(10.1984 -0.0203065 0)
(10.2152 -0.0187963 0)
(10.2323 -0.0165495 0)
(10.2503 -0.0130622 0)
(10.2702 -0.00752626 0)
(10.2935 0.0012483 0)
(10.3236 0.0150232 0)
(10.3613 0.0349604 0)
(10.4311 0.0640724 0)
(10.0074 -0.0172587 0)
(10.0245 -0.0223066 0)
(10.0425 -0.0234869 0)
(10.0596 -0.0248393 0)
(10.0774 -0.025643 0)
(10.0954 -0.0258525 0)
(10.1134 -0.0257423 0)
(10.1311 -0.025426 0)
(10.1484 -0.024942 0)
(10.1655 -0.0242992 0)
(10.1822 -0.0234742 0)
(10.1987 -0.0223929 0)
(10.2151 -0.0208999 0)
(10.2319 -0.0187276 0)
(10.2495 -0.0154141 0)
(10.2692 -0.0102201 0)
(10.2924 -0.00206983 0)
(10.3227 0.0106606 0)
(10.3607 0.0288504 0)
(10.4304 0.0558249 0)
(10.0082 -0.0194636 0)
(10.0264 -0.0244704 0)
(10.0445 -0.0255908 0)
(10.0616 -0.027043 0)
(10.0792 -0.0278869 0)
(10.0971 -0.0280922 0)
(10.1147 -0.027956 0)
(10.132 -0.027601 0)
(10.1489 -0.027072 0)
(10.1654 -0.0263847 0)
(10.1816 -0.0255225 0)
(10.1974 -0.0244224 0)
(10.2132 -0.0229449 0)
(10.2293 -0.020849 0)
(10.2464 -0.0177159 0)
(10.2654 -0.0128773 0)
(10.2882 -0.00536917 0)
(10.3182 0.00629209 0)
(10.3562 0.0227363 0)
(10.4253 0.0476225 0)
(10.0092 -0.0218946 0)
(10.0285 -0.0267034 0)
(10.0466 -0.0276999 0)
(10.0634 -0.0292211 0)
(10.0807 -0.0300857 0)
(10.0981 -0.0302759 0)
(10.1151 -0.0301049 0)
(10.1317 -0.0297025 0)
(10.1478 -0.0291202 0)
(10.1633 -0.02838 0)
(10.1785 -0.0274733 0)
(10.1932 -0.0263482 0)
(10.2079 -0.0248818 0)
(10.2228 -0.0228612 0)
(10.2386 -0.0199121 0)
(10.2565 -0.0154392 0)
(10.2782 -0.00859122 0)
(10.3072 0.00197897 0)
(10.3445 0.0166889 0)
(10.4126 0.0395061 0)
(10.0103 -0.0245012 0)
(10.0307 -0.0290435 0)
(10.0485 -0.0299067 0)
(10.0646 -0.0314305 0)
(10.081 -0.0322505 0)
(10.0974 -0.0323853 0)
(10.1133 -0.0321537 0)
(10.1285 -0.0316851 0)
(10.143 -0.0310333 0)
(10.1569 -0.0302258 0)
(10.1701 -0.0292606 0)
(10.1829 -0.0280976 0)
(10.1954 -0.0266313 0)
(10.208 -0.0246782 0)
(10.2215 -0.0219104 0)
(10.237 -0.017808 0)
(10.2564 -0.0116327 0)
(10.2832 -0.00218487 0)
(10.3188 0.0108109 0)
(10.3846 0.0315365 0)
(10.0113 -0.026779 0)
(10.0324 -0.0308502 0)
(10.0493 -0.0318906 0)
(10.0638 -0.0334979 0)
(10.0785 -0.0342139 0)
(10.0927 -0.0342179 0)
(10.1061 -0.0338692 0)
(10.1184 -0.0332988 0)
(10.1298 -0.0325573 0)
(10.1402 -0.0316708 0)
(10.1497 -0.0306397 0)
(10.1584 -0.0294327 0)
(10.1665 -0.0279602 0)
(10.1745 -0.0260693 0)
(10.183 -0.0234804 0)
(10.1934 -0.0197529 0)
(10.2077 -0.0142633 0)
(10.2294 -0.00597175 0)
(10.2605 0.00532494 0)
(10.3216 0.023848 0)
(10.0117 -0.0299481 0)
(10.0323 -0.0317646 0)
(10.0464 -0.0336135 0)
(10.0572 -0.0360869 0)
(10.0675 -0.0370581 0)
(10.0765 -0.036955 0)
(10.0839 -0.0363263 0)
(10.0894 -0.0354151 0)
(10.0933 -0.0343318 0)
(10.0954 -0.0331335 0)
(10.0958 -0.0318345 0)
(10.0947 -0.0304147 0)
(10.0922 -0.0287984 0)
(10.0889 -0.02686 0)
(10.0855 -0.0243668 0)
(10.0835 -0.0209606 0)
(10.085 -0.0161385 0)
(10.094 -0.00905643 0)
(10.1134 0.000522043 0)
(10.163 0.0165449 0)
(10.0095 -0.0374991 0)
(10.0252 -0.0259933 0)
(10.0298 -0.0233817 0)
(10.029 -0.0261385 0)
(10.0254 -0.028821 0)
(10.0182 -0.0305952 0)
(10.0069 -0.0315462 0)
(9.99189 -0.0318068 0)
(9.97324 -0.0315105 0)
(9.95115 -0.0307868 0)
(9.92585 -0.0297236 0)
(9.89763 -0.0283803 0)
(9.86695 -0.026752 0)
(9.83451 -0.0247979 0)
(9.80146 -0.0223782 0)
(9.76968 -0.0192656 0)
(9.742 -0.0151224 0)
(9.72331 -0.00934829 0)
(9.71718 -0.00167525 0)
(9.74553 0.0110823 0)
(9.99583 -0.123544 0)
(9.98203 -0.108441 0)
(9.94173 -0.0858899 0)
(9.88805 -0.0695533 0)
(9.82551 -0.0574265 0)
(9.75494 -0.0484445 0)
(9.67786 -0.0417776 0)
(9.59613 -0.0367173 0)
(9.51141 -0.0327359 0)
(9.42513 -0.0294792 0)
(9.33854 -0.0266908 0)
(9.25283 -0.0242018 0)
(9.16918 -0.0218617 0)
(9.08891 -0.0195604 0)
(9.01365 -0.017149 0)
(8.94565 -0.0144596 0)
(8.88798 -0.0112743 0)
(8.84565 -0.00721331 0)
(8.82213 -0.00197884 0)
(8.84229 0.0065139 0)
(9.80731 0.277256 0)
(9.60805 0.147875 0)
(9.37474 0.0802827 0)
(9.14084 0.0414969 0)
(8.91682 0.0191446 0)
(8.705 0.00638323 0)
(8.50668 -0.000726537 0)
(8.32258 -0.00448147 0)
(8.15279 -0.00624488 0)
(7.997 -0.00684524 0)
(7.85477 -0.00677364 0)
(7.72564 -0.00633196 0)
(7.60928 -0.00568213 0)
(7.50557 -0.00492233 0)
(7.41476 -0.00407436 0)
(7.33775 -0.00312313 0)
(7.27627 -0.00201551 0)
(7.23398 -0.000592514 0)
(7.21267 0.00119067 0)
(7.24321 0.00444778 0)
(6.23908 0.0181917 0)
(5.89092 0.0701451 0)
(5.5763 0.144669 0)
(5.30792 0.224387 0)
(5.11534 0.300463 0)
(5.00583 0.37054 0)
(4.9679 0.433707 0)
(4.98564 0.488649 0)
(5.04479 0.534112 0)
(5.13381 0.569202 0)
(5.24366 0.593329 0)
(5.3673 0.606079 0)
(5.49924 0.607211 0)
(5.63515 0.596579 0)
(5.77161 0.574186 0)
(5.906 0.54019 0)
(6.03639 0.49494 0)
(6.16144 0.438991 0)
(6.28035 0.373116 0)
(6.39294 0.298339 0)
(6.49956 0.216125 0)
(6.60031 0.127655 0)
(6.69832 0.0319196 0)
(6.80138 -0.0721644 0)
(6.90813 -0.183604 0)
(7.02214 -0.302839 0)
(7.14653 -0.430809 0)
(7.28405 -0.568778 0)
(7.43673 -0.718215 0)
(7.6053 -0.880545 0)
(7.78856 -1.05677 0)
(7.98296 -1.24698 0)
(8.18232 -1.44989 0)
(8.37794 -1.66246 0)
(8.55926 -1.87977 0)
(8.71496 -2.09526 0)
(8.83445 -2.30132 0)
(8.90935 -2.49018 0)
(8.93467 -2.65481 0)
(8.90938 -2.78964 0)
(8.83625 -2.8911 0)
(8.72119 -2.9577 0)
(8.57228 -2.98989 0)
(8.39856 -2.9897 0)
(8.20911 -2.96034 0)
(8.01221 -2.90571 0)
(7.81484 -2.82997 0)
(7.62247 -2.73721 0)
(7.43907 -2.63125 0)
(7.26728 -2.51553 0)
(7.10866 -2.39309 0)
(6.96392 -2.26649 0)
(6.83319 -2.13791 0)
(6.7161 -2.00913 0)
(6.61204 -1.88158 0)
(6.52015 -1.75639 0)
(6.4395 -1.63446 0)
(6.3691 -1.51644 0)
(6.30794 -1.40281 0)
(6.25504 -1.29391 0)
(6.20944 -1.18996 0)
(6.17024 -1.09109 0)
(6.1366 -0.997355 0)
(6.10773 -0.908741 0)
(6.0829 -0.825209 0)
(6.06143 -0.746677 0)
(6.04269 -0.67305 0)
(6.02613 -0.604207 0)
(6.01124 -0.540026 0)
(5.99753 -0.480367 0)
(5.98461 -0.425092 0)
(5.97212 -0.374048 0)
(5.95974 -0.32708 0)
(5.94723 -0.284023 0)
(5.93438 -0.244709 0)
(5.92104 -0.208958 0)
(5.90712 -0.176593 0)
(5.89254 -0.147425 0)
(5.87727 -0.121273 0)
(5.86133 -0.0979494 0)
(5.84474 -0.077275 0)
(5.82753 -0.0590703 0)
(5.80978 -0.0431657 0)
(5.79155 -0.0293943 0)
(5.77292 -0.0176006 0)
(5.75398 -0.0076327 0)
(5.73481 0.000652277 0)
(5.71549 0.00739906 0)
(5.69604 0.0127372 0)
(5.67653 0.0167997 0)
(5.65701 0.0197037 0)
(5.63754 0.0215598 0)
(5.61817 0.0224678 0)
(5.59893 0.0225229 0)
(5.57986 0.0218101 0)
(5.56097 0.0204122 0)
(5.5423 0.0184021 0)
(5.52384 0.0158489 0)
(5.50562 0.0128151 0)
(5.48763 0.0093587 0)
(5.46987 0.00553238 0)
(5.45238 0.00139128 0)
(5.43515 -0.00301802 0)
(5.41819 -0.00765196 0)
(5.40149 -0.0124724 0)
(5.38505 -0.0174419 0)
(5.36885 -0.0225281 0)
(5.35289 -0.027699 0)
(5.33716 -0.0329272 0)
(5.32166 -0.0381855 0)
(5.30638 -0.0434505 0)
(5.2913 -0.048699 0)
(5.27643 -0.0539111 0)
(5.26174 -0.0590667 0)
(5.24725 -0.064149 0)
(5.23293 -0.0691404 0)
(5.21879 -0.0740264 0)
(5.20481 -0.0787917 0)
(5.19101 -0.0834235 0)
(5.17737 -0.0879082 0)
(5.16389 -0.0922344 0)
(5.15059 -0.0963898 0)
(5.13745 -0.100364 0)
(5.12449 -0.104146 0)
(5.11172 -0.107725 0)
(5.09914 -0.11109 0)
(5.08676 -0.114233 0)
(5.07461 -0.117141 0)
(5.06269 -0.119805 0)
(5.05103 -0.122214 0)
(5.03964 -0.124357 0)
(5.02855 -0.126221 0)
(5.01778 -0.127795 0)
(5.00736 -0.129066 0)
(4.99731 -0.130021 0)
(4.98766 -0.130643 0)
(4.97845 -0.130918 0)
(4.9697 -0.13083 0)
(4.96145 -0.13036 0)
(4.95372 -0.129489 0)
(4.94654 -0.128197 0)
(4.93994 -0.126463 0)
(4.93394 -0.124264 0)
(4.92857 -0.121575 0)
(4.92384 -0.11837 0)
(4.91978 -0.114621 0)
(4.91638 -0.110298 0)
(4.91366 -0.105368 0)
(4.91163 -0.0997946 0)
(4.91029 -0.0935401 0)
(4.90963 -0.0865623 0)
(4.90965 -0.078815 0)
(4.91033 -0.070248 0)
(4.91168 -0.0608056 0)
(4.91367 -0.0504275 0)
(4.91629 -0.0390468 0)
(4.91953 -0.0265908 0)
(4.92337 -0.0129794 0)
(4.92779 0.00188324 0)
(4.93279 0.0181123 0)
(4.93838 0.0358288 0)
(4.94454 0.0551637 0)
(4.95128 0.0762585 0)
(4.95859 0.0992678 0)
(4.96648 0.124358 0)
(4.97494 0.151712 0)
(4.98398 0.181524 0)
(4.9936 0.214008 0)
(5.00381 0.249394 0)
(5.01462 0.287932 0)
(5.02603 0.329892 0)
(5.03806 0.375568 0)
(5.05071 0.425278 0)
(5.06399 0.479372 0)
(5.0779 0.538228 0)
(5.09245 0.602261 0)
(5.10762 0.67193 0)
(5.12339 0.747741 0)
(5.13972 0.830259 0)
(5.15655 0.920119 0)
(5.17381 1.01804 0)
(5.19137 1.12484 0)
(5.20907 1.24149 0)
(5.22669 1.3691 0)
(5.24395 1.509 0)
(5.26049 1.66281 0)
(5.27581 1.83249 0)
(5.28932 2.02051 0)
(5.30021 2.22997 0)
(5.30745 2.46488 0)
(5.30965 2.73046 0)
(5.30491 3.03363 0)
(5.29066 3.3836 0)
(5.26273 3.79293 0)
(5.21644 4.27853 0)
(5.13815 4.86699 0)
(5.03061 5.59226 0)
(4.80525 6.54042 0)
(4.72304 7.70826 0)
(3.84774 10.0847 0)
(8.03563 0.185609 0)
(7.86175 0.269735 0)
(7.66961 0.339484 0)
(7.44159 0.397416 0)
(7.19754 0.443445 0)
(6.96299 0.479239 0)
(6.75663 0.507811 0)
(6.59003 0.53127 0)
(6.46818 0.550313 0)
(6.3906 0.564564 0)
(6.3533 0.573041 0)
(6.3506 0.574558 0)
(6.37628 0.567995 0)
(6.42432 0.552433 0)
(6.48925 0.527241 0)
(6.56629 0.492058 0)
(6.65148 0.446803 0)
(6.74165 0.391665 0)
(6.83447 0.327079 0)
(6.92857 0.253761 0)
(7.02326 0.172855 0)
(7.11796 0.0844802 0)
(7.22115 -0.0129381 0)
(7.33096 -0.119254 0)
(7.44931 -0.233898 0)
(7.57803 -0.357385 0)
(7.71865 -0.490536 0)
(7.8722 -0.634329 0)
(8.03875 -0.789737 0)
(8.21688 -0.957461 0)
(8.40328 -1.13759 0)
(8.59243 -1.3292 0)
(8.77664 -1.53004 0)
(8.94649 -1.73631 0)
(9.09169 -1.9428 0)
(9.20238 -2.14321 0)
(9.27042 -2.33082 0)
(9.29064 -2.49919 0)
(9.26141 -2.64287 0)
(9.18476 -2.75783 0)
(9.0658 -2.84179 0)
(8.91191 -2.89411 0)
(8.73168 -2.91569 0)
(8.53395 -2.90863 0)
(8.32697 -2.87586 0)
(8.11787 -2.82076 0)
(7.91236 -2.74687 0)
(7.71472 -2.65766 0)
(7.52796 -2.55642 0)
(7.35399 -2.44614 0)
(7.19384 -2.32948 0)
(7.04789 -2.20877 0)
(6.91603 -2.08598 0)
(6.79781 -1.96275 0)
(6.69251 -1.84044 0)
(6.59927 -1.72012 0)
(6.51717 -1.60265 0)
(6.44523 -1.48867 0)
(6.38246 -1.37868 0)
(6.32789 -1.27302 0)
(6.28062 -1.17193 0)
(6.23975 -1.07556 0)
(6.20448 -0.983985 0)
(6.17402 -0.897225 0)
(6.14767 -0.815257 0)
(6.12478 -0.738026 0)
(6.10473 -0.665454 0)
(6.08697 -0.597446 0)
(6.071 -0.533893 0)
(6.05637 -0.474683 0)
(6.04265 -0.419691 0)
(6.0295 -0.36879 0)
(6.01659 -0.321842 0)
(6.00367 -0.278707 0)
(5.99051 -0.239236 0)
(5.97694 -0.203272 0)
(5.96285 -0.170652 0)
(5.94815 -0.14121 0)
(5.9328 -0.114774 0)
(5.91677 -0.0911716 0)
(5.90009 -0.0702297 0)
(5.88279 -0.0517794 0)
(5.86492 -0.0356541 0)
(5.84655 -0.0216932 0)
(5.82776 -0.00974307 0)
(5.80864 0.000344019 0)
(5.78928 0.00871801 0)
(5.76967 0.0155238 0)
(5.74991 0.0209044 0)
(5.73007 0.0249866 0)
(5.71019 0.0278888 0)
(5.69035 0.0297217 0)
(5.67059 0.030589 0)
(5.65095 0.0305865 0)
(5.63146 0.0298041 0)
(5.61215 0.0283253 0)
(5.59305 0.0262278 0)
(5.57416 0.0235815 0)
(5.55551 0.0204513 0)
(5.53708 0.0168967 0)
(5.5189 0.0129725 0)
(5.50094 0.00872695 0)
(5.4832 0.00420846 0)
(5.46574 -0.000534242 0)
(5.44853 -0.00546038 0)
(5.43158 -0.0105336 0)
(5.41487 -0.0157201 0)
(5.39839 -0.0209885 0)
(5.38215 -0.02631 0)
(5.36613 -0.0316587 0)
(5.35032 -0.0370104 0)
(5.33472 -0.0423424 0)
(5.31931 -0.0476342 0)
(5.30409 -0.0528672 0)
(5.28905 -0.0580237 0)
(5.27419 -0.0630873 0)
(5.25949 -0.068043 0)
(5.24496 -0.072877 0)
(5.23059 -0.0775763 0)
(5.21637 -0.0821286 0)
(5.20232 -0.0865221 0)
(5.18842 -0.0907464 0)
(5.17469 -0.094791 0)
(5.16112 -0.0986458 0)
(5.14773 -0.102301 0)
(5.13452 -0.105747 0)
(5.12151 -0.108976 0)
(5.1087 -0.111977 0)
(5.09612 -0.11474 0)
(5.08378 -0.117256 0)
(5.0717 -0.119515 0)
(5.0599 -0.121506 0)
(5.0484 -0.123218 0)
(5.03724 -0.124637 0)
(5.02644 -0.125751 0)
(5.01602 -0.126546 0)
(5.00603 -0.127006 0)
(4.99648 -0.127115 0)
(4.98742 -0.126856 0)
(4.97887 -0.126208 0)
(4.97086 -0.125151 0)
(4.96343 -0.123663 0)
(4.9566 -0.121721 0)
(4.9504 -0.119298 0)
(4.94485 -0.116368 0)
(4.93997 -0.112901 0)
(4.93578 -0.108865 0)
(4.93229 -0.104226 0)
(4.92952 -0.0989459 0)
(4.92747 -0.092986 0)
(4.92615 -0.0863022 0)
(4.92555 -0.078847 0)
(4.92567 -0.0705688 0)
(4.92651 -0.0614115 0)
(4.92806 -0.0513135 0)
(4.93031 -0.0402077 0)
(4.93325 -0.0280207 0)
(4.93687 -0.0146725 0)
(4.94115 -7.08577e-05 0)
(4.9461 0.0158974 0)
(4.95172 0.0333544 0)
(4.958 0.05243 0)
(4.96496 0.0732656 0)
(4.9726 0.0960149 0)
(4.98091 0.120844 0)
(4.98991 0.147935 0)
(4.99961 0.177481 0)
(5.01 0.209696 0)
(5.02112 0.244809 0)
(5.03297 0.283068 0)
(5.04556 0.324744 0)
(5.05892 0.370131 0)
(5.07306 0.419547 0)
(5.08801 0.473342 0)
(5.10377 0.531895 0)
(5.12036 0.595626 0)
(5.13779 0.664995 0)
(5.15605 0.740514 0)
(5.17513 0.822753 0)
(5.19501 0.912357 0)
(5.21564 1.01006 0)
(5.23695 1.11669 0)
(5.25883 1.23322 0)
(5.28115 1.36081 0)
(5.30371 1.5008 0)
(5.32627 1.65485 0)
(5.34851 1.82496 0)
(5.37005 2.01364 0)
(5.39038 2.22408 0)
(5.40889 2.46037 0)
(5.42478 2.72787 0)
(5.43705 3.03368 0)
(5.44446 3.38732 0)
(5.4449 3.8018 0)
(5.43751 4.29481 0)
(5.41448 4.89363 0)
(5.39441 5.63507 0)
(5.31011 6.59468 0)
(5.49268 7.77983 0)
(5.15504 9.64973 0)
(9.06644 0.216298 0)
(8.96647 0.306436 0)
(8.8728 0.387742 0)
(8.75747 0.460001 0)
(8.61629 0.519358 0)
(8.45437 0.563449 0)
(8.27964 0.59313 0)
(8.10277 0.610591 0)
(7.93522 0.618094 0)
(7.78673 0.617487 0)
(7.66389 0.609963 0)
(7.56991 0.596029 0)
(7.50523 0.575644 0)
(7.46824 0.548405 0)
(7.45606 0.513794 0)
(7.46524 0.471317 0)
(7.49224 0.420615 0)
(7.53376 0.361526 0)
(7.587 0.294093 0)
(7.65 0.218597 0)
(7.72119 0.135517 0)
(7.8001 0.0437386 0)
(7.89639 -0.0579793 0)
(8.00345 -0.168518 0)
(8.12224 -0.287748 0)
(8.25315 -0.416176 0)
(8.3961 -0.55445 0)
(8.55029 -0.703187 0)
(8.71381 -0.862812 0)
(8.88324 -1.03331 0)
(9.05343 -1.21392 0)
(9.21747 -1.40291 0)
(9.36695 -1.59737 0)
(9.49274 -1.79319 0)
(9.58597 -1.98533 0)
(9.6392 -2.16822 0)
(9.6475 -2.33629 0)
(9.60905 -2.4845 0)
(9.52533 -2.60882 0)
(9.40068 -2.70646 0)
(9.24163 -2.77601 0)
(9.05601 -2.81737 0)
(8.85204 -2.83155 0)
(8.63756 -2.82046 0)
(8.41947 -2.78658 0)
(8.20349 -2.73275 0)
(7.99403 -2.66192 0)
(7.79435 -2.57705 0)
(7.60665 -2.48099 0)
(7.43231 -2.37638 0)
(7.272 -2.26562 0)
(7.12587 -2.15081 0)
(6.9937 -2.03377 0)
(6.87497 -1.91604 0)
(6.76895 -1.7989 0)
(6.67479 -1.68338 0)
(6.5916 -1.57031 0)
(6.51841 -1.46033 0)
(6.45427 -1.35394 0)
(6.39828 -1.2515 0)
(6.34952 -1.15326 0)
(6.30715 -1.05939 0)
(6.27037 -0.969989 0)
(6.23845 -0.885103 0)
(6.21069 -0.804727 0)
(6.18644 -0.728832 0)
(6.16513 -0.657358 0)
(6.14621 -0.59023 0)
(6.12919 -0.52736 0)
(6.11363 -0.468652 0)
(6.09912 -0.414001 0)
(6.08529 -0.363297 0)
(6.07185 -0.316423 0)
(6.05851 -0.273258 0)
(6.04503 -0.233672 0)
(6.03125 -0.197527 0)
(6.01701 -0.164678 0)
(6.00222 -0.134977 0)
(5.98681 -0.108267 0)
(5.97076 -0.0843864 0)
(5.95405 -0.0631743 0)
(5.93673 -0.0444699 0)
(5.91882 -0.0281135 0)
(5.90038 -0.0139522 0)
(5.88152 -0.00183848 0)
(5.86232 0.00838172 0)
(5.84277 0.0168625 0)
(5.82295 0.0237565 0)
(5.80295 0.0291992 0)
(5.78284 0.0333162 0)
(5.76268 0.0362271 0)
(5.74252 0.0380452 0)
(5.72243 0.0388774 0)
(5.70244 0.0388225 0)
(5.68259 0.0379739 0)
(5.66291 0.0364178 0)
(5.64343 0.0342345 0)
(5.62415 0.0314965 0)
(5.60511 0.0282709 0)
(5.58629 0.0246195 0)
(5.56771 0.020598 0)
(5.54935 0.0162567 0)
(5.53123 0.0116429 0)
(5.51331 0.00679643 0)
(5.49562 0.0017653 0)
(5.47819 -0.00341043 0)
(5.461 -0.00869626 0)
(5.44405 -0.0140608 0)
(5.42732 -0.0194751 0)
(5.41081 -0.0249132 0)
(5.39451 -0.0303505 0)
(5.3784 -0.0357647 0)
(5.36249 -0.0411354 0)
(5.34676 -0.046444 0)
(5.33121 -0.0516733 0)
(5.31582 -0.0568072 0)
(5.3006 -0.061831 0)
(5.28554 -0.0667315 0)
(5.27063 -0.0714961 0)
(5.25587 -0.0761131 0)
(5.24127 -0.0805715 0)