/*--------------------------------*- C++ -*----------------------------------*\
| =========                 |                                                 |
| \\      /  F ield         | OpenFOAM: The Open Source CFD Toolbox           |
|  \\    /   O peration     | Version:  2.4.0                                 |
|   \\  /    A nd           | Web:      www.OpenFOAM.org                      |
|    \\/     M anipulation  |                                                 |
\*---------------------------------------------------------------------------*/
FoamFile
{
    version     2.0;
    format      ascii;
    class       volScalarField;
    location    "0.035";
    object      nuSgs;
}
// * * * * * * * * * * * * * * * * * * * * * * * * * * * * * * * * * * * * * //

dimensions      [0 2 -1 0 0 0 0];

internalField   nonuniform List<scalar> 
17600
(
0.000292773
0.000700366
0.000906608
0.000960015
0.000947185
0.000906514
0.000849463
0.000796126
0.000751429
0.000714859
0.000685529
0.000661701
0.000642804
0.000625555
0.000612566
0.00059932
0.000589489
0.000578576
0.000571882
0.000561927
0.000557522
0.000548807
0.000545219
0.00053704
0.000534175
0.000526437
0.000524301
0.00051682
0.000515837
0.000509502
0.000508392
0.000501767
0.000501342
0.000494266
0.000493749
0.000486484
0.00048536
0.000475827
0.000471355
0.000456675
3.80409e-05
0.000179291
0.000340542
0.000470473
0.000544462
0.000581236
0.000594109
0.000593925
0.000591877
0.000585014
0.000580464
0.000572997
0.00056634
0.000559776
0.000555208
0.000546941
0.000543407
0.00053656
0.000532546
0.000526068
0.000523394
0.000517135
0.000514637
0.000509653
0.00050743
0.000502235
0.00050047
0.000495765
0.000493781
0.000489753
0.000488225
0.000483994
0.000482797
0.000479223
0.000477975
0.000474346
0.000473893
0.0004711
0.000469854
0.000465351
3.20369e-06
2.84275e-05
7.2571e-05
0.000125797
0.000191561
0.00024422
0.00027203
0.000296645
0.000315716
0.000320122
0.000328702
0.000335196
0.000336834
0.000341102
0.000346472
0.000347197
0.00035089
0.000354882
0.000355257
0.000357845
0.000360805
0.000361055
0.000362968
0.000365879
0.00036605
0.000367844
0.000369663
0.000370878
0.000371172
0.000372654
0.000372959
0.000374129
0.000374298
0.00037579
0.000375994
0.000377096
0.000377611
0.000380207
0.000382392
0.000381971
1.51018e-06
4.05667e-06
1.25631e-05
2.58563e-05
4.48508e-05
7.50561e-05
8.91614e-05
0.000106669
0.000128607
0.000134801
0.00014407
0.000155239
0.000158056
0.000163082
0.000169899
0.00017148
0.000175667
0.00018142
0.000182415
0.000185697
0.000189991
0.000191025
0.00019401
0.000198379
0.000199403
0.000202394
0.000205462
0.000208624
0.000210649
0.000214491
0.000216218
0.000219811
0.00022149
0.00022545
0.000227522
0.000231602
0.00023341
0.000237842
0.000239285
0.0002426
1.49701e-06
1.59649e-06
2.46224e-06
4.70942e-06
8.79035e-06
1.72194e-05
2.2262e-05
2.75741e-05
3.90215e-05
4.2917e-05
4.70933e-05
5.50055e-05
5.69572e-05
5.98826e-05
6.51743e-05
6.65604e-05
6.97086e-05
7.48585e-05
7.58769e-05
7.84134e-05
8.17924e-05
8.25514e-05
8.46772e-05
8.7779e-05
8.84228e-05
8.99726e-05
9.25864e-05
9.35957e-05
9.56166e-05
9.78112e-05
9.93546e-05
0.00010177
0.000102853
0.000104939
0.000106873
0.00010971
0.000111134
0.000114237
0.000115597
0.000117714
1.49404e-06
1.52422e-06
1.59958e-06
1.76935e-06
2.2229e-06
3.73931e-06
4.8157e-06
6.13452e-06
9.30228e-06
1.09606e-05
1.19504e-05
1.50617e-05
1.57903e-05
1.67813e-05
1.85869e-05
1.92964e-05
2.06038e-05
2.39368e-05
2.44061e-05
2.58549e-05
2.69199e-05
2.75385e-05
2.86342e-05
3.07714e-05
3.09404e-05
3.20083e-05
3.25198e-05
3.37466e-05
3.43361e-05
3.60786e-05
3.67826e-05
3.86291e-05
3.90308e-05
4.02683e-05
4.07117e-05
4.2177e-05
4.29042e-05
4.55051e-05
4.69128e-05
5.0214e-05
1.48978e-06
1.51538e-06
1.5803e-06
1.63632e-06
1.68939e-06
1.91184e-06
2.05055e-06
2.22824e-06
2.74174e-06
3.08891e-06
3.25918e-06
3.93683e-06
4.09285e-06
4.25766e-06
4.64605e-06
4.83247e-06
5.20209e-06
6.27096e-06
6.42974e-06
6.91392e-06
7.15464e-06
7.32057e-06
7.648e-06
8.40964e-06
8.46703e-06
8.83683e-06
8.97325e-06
9.3521e-06
9.56597e-06
1.02619e-05
1.0583e-05
1.14007e-05
1.15451e-05
1.19601e-05
1.2081e-05
1.26146e-05
1.28974e-05
1.38329e-05
1.4311e-05
1.56865e-05
1.488e-06
1.49924e-06
1.55334e-06
1.59772e-06
1.64726e-06
1.76155e-06
1.85802e-06
1.89778e-06
2.03376e-06
2.10203e-06
2.15296e-06
2.22026e-06
2.23116e-06
2.23415e-06
2.26809e-06
2.28077e-06
2.32353e-06
2.47088e-06
2.50917e-06
2.59265e-06
2.64228e-06
2.65043e-06
2.68536e-06
2.77465e-06
2.79379e-06
2.84165e-06
2.87846e-06
2.90397e-06
2.96188e-06
3.05835e-06
3.21374e-06
3.33726e-06
3.37508e-06
3.4205e-06
3.4532e-06
3.5296e-06
3.62802e-06
3.78907e-06
3.91701e-06
4.26738e-06
1.48651e-06
1.51023e-06
1.53535e-06
1.61576e-06
1.64593e-06
1.76327e-06
1.80635e-06
1.92222e-06
1.96074e-06
2.04657e-06
2.06093e-06
2.09715e-06
2.0924e-06
2.09368e-06
2.09376e-06
2.09634e-06
2.10072e-06
2.14505e-06
2.15763e-06
2.17427e-06
2.17589e-06
2.17927e-06
2.17785e-06
2.18672e-06
2.18855e-06
2.1992e-06
2.19909e-06
2.2017e-06
2.20413e-06
2.21737e-06
2.22334e-06
2.24201e-06
2.24809e-06
2.2625e-06
2.26326e-06
2.27718e-06
2.28399e-06
2.30095e-06
2.33383e-06
2.61176e-06
1.48643e-06
1.49717e-06
1.52093e-06
1.58556e-06
1.62815e-06
1.72713e-06
1.76947e-06
1.86916e-06
1.93023e-06
1.98904e-06
1.99968e-06
2.02432e-06
2.03071e-06
2.03064e-06
2.03086e-06
2.02831e-06
2.03056e-06
2.05995e-06
2.08288e-06
2.09085e-06
2.09673e-06
2.09728e-06
2.09723e-06
2.09709e-06
2.09694e-06
2.09398e-06
2.09051e-06
2.08692e-06
2.08809e-06
2.09161e-06
2.10637e-06
2.11174e-06
2.12311e-06
2.12575e-06
2.13149e-06
2.13633e-06
2.15594e-06
2.16812e-06
2.20506e-06
2.45568e-06
1.4867e-06
1.49812e-06
1.5191e-06
1.58107e-06
1.62617e-06
1.73523e-06
1.7768e-06
1.89127e-06
1.91952e-06
1.99732e-06
2.00515e-06
2.02694e-06
2.02632e-06
2.0458e-06
2.04464e-06
2.05813e-06
2.05772e-06
2.085e-06
2.09495e-06
2.12043e-06
2.11985e-06
2.13117e-06
2.12737e-06
2.13893e-06
2.13723e-06
2.14813e-06
2.14738e-06
2.15819e-06
2.15953e-06
2.17815e-06
2.17888e-06
2.1937e-06
2.19666e-06
2.21515e-06
2.2143e-06
2.23808e-06
2.24182e-06
2.2886e-06
2.33566e-06
2.78813e-06
1.48767e-06
1.49841e-06
1.52085e-06
1.58301e-06
1.63558e-06
1.74451e-06
1.79173e-06
1.91825e-06
1.95028e-06
2.02564e-06
2.03571e-06
2.06225e-06
2.06666e-06
2.08009e-06
2.07342e-06
2.0847e-06
2.08479e-06
2.12303e-06
2.13771e-06
2.17211e-06
2.17276e-06
2.18794e-06
2.18618e-06
2.20519e-06
2.20476e-06
2.22361e-06
2.22298e-06
2.24186e-06
2.24302e-06
2.27104e-06
2.27307e-06
2.30905e-06
2.31482e-06
2.35374e-06
2.35617e-06
2.40313e-06
2.42367e-06
2.56134e-06
2.62742e-06
3.01096e-06
1.4946e-06
1.5033e-06
1.55296e-06
1.58364e-06
1.70831e-06
1.75128e-06
1.89351e-06
1.94623e-06
2.06099e-06
2.09866e-06
2.17999e-06
2.19233e-06
2.25736e-06
2.27306e-06
2.31457e-06
2.34134e-06
2.38982e-06
2.52699e-06
2.56499e-06
2.62796e-06
2.64895e-06
2.69531e-06
2.73928e-06
2.87088e-06
2.92675e-06
3.05503e-06
3.07059e-06
3.14258e-06
3.18136e-06
3.32715e-06
3.41465e-06
3.64908e-06
3.70161e-06
3.8587e-06
3.93082e-06
4.19164e-06
4.37755e-06
4.95844e-06
5.24251e-06
5.97486e-06
1.49447e-06
1.5088e-06
1.54531e-06
1.60726e-06
1.74087e-06
1.83336e-06
2.09249e-06
2.31662e-06
2.63307e-06
3.02882e-06
3.22389e-06
3.63448e-06
4.13298e-06
4.29704e-06
4.68092e-06
4.94131e-06
5.51396e-06
6.1024e-06
6.33074e-06
6.64022e-06
7.05013e-06
7.24877e-06
7.80111e-06
8.1775e-06
8.84369e-06
9.19712e-06
9.39577e-06
9.59074e-06
1.01673e-05
1.05445e-05
1.13841e-05
1.18957e-05
1.23193e-05
1.26659e-05
1.30244e-05
1.38373e-05
1.44833e-05
1.58791e-05
1.65891e-05
1.82487e-05
1.51172e-06
1.52848e-06
1.59066e-06
1.80087e-06
2.2738e-06
3.19694e-06
5.40625e-06
6.74549e-06
9.17869e-06
1.04909e-05
1.18859e-05
1.44375e-05
1.59872e-05
1.67094e-05
1.84902e-05
1.96159e-05
2.19858e-05
2.30131e-05
2.41982e-05
2.54905e-05
2.68306e-05
2.74631e-05
2.90527e-05
2.9983e-05
3.19194e-05
3.26557e-05
3.35765e-05
3.42133e-05
3.58132e-05
3.66281e-05
3.8588e-05
3.94844e-05
4.09053e-05
4.1615e-05
4.28404e-05
4.41637e-05
4.53628e-05
4.73532e-05
4.83357e-05
4.9995e-05
1.50113e-06
1.58364e-06
2.35899e-06
5.005e-06
8.92128e-06
1.44649e-05
2.48697e-05
2.94716e-05
3.82182e-05
4.19283e-05
4.77133e-05
5.39623e-05
5.7213e-05
5.92746e-05
6.48203e-05
6.71799e-05
7.17329e-05
7.31956e-05
7.65099e-05
7.80744e-05
8.14082e-05
8.26646e-05
8.56441e-05
8.68389e-05
9.00231e-05
9.11501e-05
9.3813e-05
9.4917e-05
9.7651e-05
9.87509e-05
0.000102213
0.000103425
0.000106328
0.000107457
0.000110698
0.000111768
0.000114481
0.000115403
0.000117018
0.000118707
1.51075e-06
3.88552e-06
1.21235e-05
2.75715e-05
4.5193e-05
6.66244e-05
9.69978e-05
0.00010744
0.000126502
0.000134966
0.000145328
0.000153662
0.000158184
0.000162654
0.000169394
0.000172041
0.000177375
0.000179137
0.000183667
0.000185648
0.000189777
0.000191474
0.000195595
0.000197262
0.000201739
0.000203294
0.000207447
0.000209203
0.000213528
0.000215071
0.000219867
0.000221427
0.000225643
0.000227228
0.00023193
0.000233027
0.000236244
0.000236222
0.000236668
0.00023845
3.30117e-06
2.8045e-05
7.14955e-05
0.000136566
0.000185576
0.000239861
0.00027659
0.000296212
0.000313701
0.000322507
0.000327964
0.000334602
0.000337058
0.000342313
0.000344309
0.000348919
0.00035119
0.000353614
0.000355977
0.000358693
0.000359936
0.000362729
0.000363794
0.000365832
0.000367625
0.000368685
0.000370604
0.000372215
0.000372762
0.000373404
0.000375105
0.000375796
0.000376296
0.000377271
0.000377437
0.000377202
0.000376244
0.000375436
0.000373477
0.000375458
3.82996e-05
0.00017882
0.000337757
0.000474276
0.000543091
0.000581961
0.000594312
0.000594288
0.000590677
0.000586734
0.000578209
0.000574102
0.000565401
0.000561637
0.000552649
0.000549599
0.000541242
0.000538224
0.000531006
0.00052822
0.000521323
0.00051925
0.000512921
0.000511198
0.000505588
0.000503895
0.000498665
0.000497024
0.000491848
0.000490549
0.000485914
0.000484495
0.000479979
0.000478464
0.000473917
0.000472277
0.000468066
0.000467421
0.000465679
0.000465105
0.000292894
0.000698589
0.000907752
0.000960284
0.000947223
0.000907503
0.000848096
0.000797841
0.000748966
0.000717231
0.000683206
0.000663726
0.000640791
0.000627518
0.000610298
0.000601732
0.000586137
0.000581304
0.000568375
0.000564462
0.000554004
0.000550986
0.000541442
0.000538959
0.000529682
0.00052771
0.000519115
0.000517223
0.000509871
0.000508155
0.000501029
0.000498809
0.000492409
0.000489512
0.000484748
0.000480697
0.000479671
0.000475166
0.000476006
0.00046635
0.000213322
0.000187056
0.000174078
0.000166461
0.000160699
0.000155459
0.000150762
0.000146385
0.00014202
0.000137192
0.000131925
0.000125979
0.000119266
0.000111563
0.000102417
9.2534e-05
8.32023e-05
7.51046e-05
6.94194e-05
6.62755e-05
6.58515e-05
6.60293e-05
6.64396e-05
6.72308e-05
6.7974e-05
6.85747e-05
6.86687e-05
6.85182e-05
6.81677e-05
6.73806e-05
6.68529e-05
6.62629e-05
6.55793e-05
6.52463e-05
6.4928e-05
6.42444e-05
6.3943e-05
6.34375e-05
6.28651e-05
6.24898e-05
6.19524e-05
6.17524e-05
6.15738e-05
6.13557e-05
6.13065e-05
6.12358e-05
6.1257e-05
6.13502e-05
6.15777e-05
6.21509e-05
6.32915e-05
6.54424e-05
6.7201e-05
6.94817e-05
7.12929e-05
7.21119e-05
7.23329e-05
7.23357e-05
7.22485e-05
7.19344e-05
7.11577e-05
6.97364e-05
6.70681e-05
6.35859e-05
5.84938e-05
5.24809e-05
4.49985e-05
3.7625e-05
3.15269e-05
2.66323e-05
2.31211e-05
2.02709e-05
1.77088e-05
1.68734e-05
1.58951e-05
1.39071e-05
1.21697e-05
1.09432e-05
1.00172e-05
9.24024e-06
8.86204e-06
8.85831e-06
8.90384e-06
8.86048e-06
8.53557e-06
8.39251e-06
8.43612e-06
9.2471e-06
9.86191e-06
9.88908e-06
9.62915e-06
9.45739e-06
9.48444e-06
9.57889e-06
1.04239e-05
1.20745e-05
1.29208e-05
1.30296e-05
1.25915e-05
1.13045e-05
1.0379e-05
9.5529e-06
8.58174e-06
8.08105e-06
8.63018e-06
1.35079e-05
1.7275e-05
1.8498e-05
1.82109e-05
1.63156e-05
1.461e-05
1.37842e-05
1.39272e-05
1.46363e-05
1.49383e-05
1.5174e-05
1.53113e-05
1.51001e-05
1.4597e-05
1.45176e-05
1.46986e-05
1.56989e-05
1.7092e-05
1.82592e-05
1.91124e-05
1.95777e-05
1.97189e-05
1.97197e-05
2.0047e-05
2.19372e-05
2.39736e-05
2.53421e-05
2.5955e-05
2.60464e-05
2.56942e-05
2.46876e-05
2.36682e-05
2.26582e-05
2.15828e-05
2.03485e-05
1.89033e-05
1.7257e-05
1.54701e-05
1.3628e-05
1.18152e-05
1.00993e-05
8.52567e-06
7.11908e-06
5.88841e-06
4.83105e-06
3.93713e-06
3.19264e-06
2.58094e-06
2.08449e-06
1.68606e-06
1.36951e-06
1.12011e-06
9.24769e-07
7.72122e-07
6.5257e-07
5.58247e-07
4.82913e-07
4.21785e-07
3.71305e-07
3.28887e-07
2.92685e-07
2.61381e-07
2.34031e-07
2.09949e-07
1.8862e-07
1.69651e-07
1.52726e-07
1.37593e-07
1.24037e-07
1.11878e-07
1.0096e-07
9.1148e-08
8.23221e-08
7.43779e-08
6.7223e-08
6.07752e-08
5.49616e-08
4.97172e-08
4.49843e-08
4.07112e-08
3.68517e-08
3.33646e-08
3.02129e-08
2.73634e-08
2.47866e-08
2.24556e-08
2.03466e-08
1.84379e-08
1.67103e-08
1.51462e-08
1.37299e-08
1.24473e-08
1.12856e-08
1.02332e-08
9.27974e-09
8.41582e-09
7.63292e-09
6.9234e-09
6.2803e-09
5.69736e-09
5.16891e-09
4.68981e-09
4.25544e-09
3.86158e-09
3.50443e-09
3.18057e-09
2.88686e-09
2.62049e-09
2.37891e-09
2.15979e-09
1.96105e-09
1.78078e-09
1.61726e-09
1.46892e-09
1.33437e-09
1.2123e-09
1.10157e-09
1.00111e-09
9.09976e-10
8.27299e-10
7.52303e-10
6.84267e-10
6.22556e-10
5.66577e-10
5.1581e-10
4.69769e-10
4.2802e-10
3.90171e-10
3.5587e-10
3.24782e-10
2.96626e-10
2.71141e-10
2.48075e-10
2.27219e-10
2.08387e-10
1.91378e-10
1.76056e-10
1.62301e-10
1.49904e-10
1.38817e-10
1.28989e-10
1.20196e-10
1.12356e-10
1.05713e-10
9.96736e-11
9.4621e-11
9.0389e-11
8.69176e-11
8.38243e-11
8.24463e-11
8.04e-11
8.06067e-11
8.0264e-11
8.32297e-11
8.28731e-11
9.37947e-11
9.42125e-11
1.28438e-10
1.37989e-10
2.39318e-10
2.99906e-10
5.68442e-10
8.44029e-10
1.53372e-09
2.47688e-09
4.37199e-09
7.02942e-09
1.17158e-08
1.83584e-08
2.92689e-08
4.44177e-08
6.81004e-08
1.00001e-07
1.46577e-07
2.09647e-07
2.81418e-07
3.9786e-07
4.72917e-07
6.14799e-07
6.63273e-07
7.56171e-07
7.77582e-07
7.86518e-07
8.25276e-07
8.49103e-07
8.66228e-07
9.18453e-07
9.35802e-07
9.72821e-07
9.86092e-07
1.01239e-06
1.04426e-06
1.06303e-06
1.08472e-06
1.12958e-06
1.15767e-06
1.22585e-06
1.23561e-06
1.27688e-06
1.29718e-06
1.33046e-06
1.34491e-06
1.37749e-06
1.42584e-06
1.49436e-06
1.52526e-06
1.61537e-06
1.62981e-06
1.66761e-06
1.68194e-06
1.73556e-06
1.75696e-06
1.77984e-06
1.80214e-06
1.85752e-06
1.87003e-06
1.89729e-06
1.91176e-06
1.95528e-06
1.97254e-06
2.0102e-06
2.0172e-06
2.05445e-06
2.06425e-06
2.09134e-06
2.09768e-06
2.13019e-06
2.13822e-06
2.15834e-06
2.17928e-06
2.19212e-06
2.20968e-06
2.24788e-06
2.25718e-06
2.27807e-06
2.32758e-06
2.34712e-06
2.39675e-06
2.42317e-06
2.48555e-06
2.51099e-06
2.59288e-06
2.62494e-06
2.73232e-06
2.76809e-06
2.9043e-06
2.95161e-06
3.11765e-06
3.17134e-06
3.38132e-06
3.44784e-06
3.6784e-06
3.76525e-06
4.01527e-06
4.1029e-06
4.35228e-06
4.45638e-06
4.69973e-06
4.81186e-06
4.98481e-06
5.09493e-06
5.16639e-06
5.13693e-06
5.07603e-06
4.8822e-06
4.79193e-06
4.5811e-06
4.58204e-06
4.6192e-06
4.6985e-06
4.98736e-06
5.11877e-06
5.7528e-06
5.86951e-06
6.64957e-06
6.72997e-06
7.39093e-06
7.10359e-06
7.20969e-06
6.78046e-06
6.85799e-06
7.23081e-06
7.66811e-06
9.55978e-06
9.71738e-06
1.14562e-05
1.08329e-05
1.15405e-05
1.32374e-05
1.52631e-05
2.18261e-05
2.43418e-05
3.42396e-05
8.04222e-05
0.000276005
0.000241618
0.000227267
0.000214551
0.000204116
0.000195642
0.000188667
0.000182587
0.000177305
0.000172645
0.000168732
0.000165335
0.000162485
0.000159905
0.000157417
0.00015498
0.000152382
0.000149308
0.00014538
0.000140484
0.000134701
0.000128148
0.000120779
0.000112768
0.000105287
9.78122e-05
9.09255e-05
8.55041e-05
8.13207e-05
7.79991e-05
7.55835e-05
7.35861e-05
7.18702e-05
7.05064e-05
6.93187e-05
6.81986e-05
6.73254e-05
6.62247e-05
6.54205e-05
6.46368e-05
6.45354e-05
6.4676e-05
6.50505e-05
6.591e-05
6.68875e-05
6.82773e-05
6.96986e-05
7.09369e-05
7.25113e-05
7.40261e-05
7.51801e-05
7.59659e-05
7.59045e-05
7.573e-05
7.54458e-05
7.49986e-05
7.40545e-05
7.29111e-05
7.12891e-05
6.85898e-05
6.57605e-05
6.12007e-05
5.55763e-05
4.9635e-05
4.25572e-05
3.62476e-05
3.08433e-05
2.63714e-05
2.27557e-05
1.98479e-05
1.75666e-05
1.56002e-05
1.43e-05
1.30539e-05
1.16877e-05
1.04127e-05
9.46791e-06
8.77772e-06
8.2914e-06
7.9731e-06
7.80734e-06
7.80073e-06
7.93876e-06
8.13662e-06
8.19739e-06
8.22845e-06
8.25269e-06
8.585e-06
9.31474e-06
9.5131e-06
9.38789e-06
9.18489e-06
9.16956e-06
9.38151e-06
1.01754e-05
1.13835e-05
1.2038e-05
1.20455e-05
1.12913e-05
1.03926e-05
9.78359e-06
9.27762e-06
9.05386e-06
9.08942e-06
9.18718e-06
9.0408e-06
8.87185e-06
9.22698e-06
1.05582e-05
1.13979e-05
1.16777e-05
1.18719e-05
1.20429e-05
1.24674e-05
1.39166e-05
1.47982e-05
1.51071e-05
1.52038e-05
1.505e-05
1.3863e-05
1.30844e-05
1.31406e-05
1.44398e-05
1.56483e-05
1.61736e-05
1.63656e-05
1.66287e-05
1.68931e-05
1.70397e-05
1.7117e-05
1.74384e-05
1.91367e-05
2.10697e-05
2.25368e-05
2.3416e-05
2.37944e-05
2.3838e-05
2.34735e-05
2.2572e-05
2.15543e-05
2.03835e-05
1.90178e-05
1.74528e-05
1.57301e-05
1.39244e-05
1.21208e-05
1.03943e-05
8.80027e-06
7.37111e-06
6.11982e-06
5.04497e-06
4.13532e-06
3.3746e-06
2.74517e-06
2.2297e-06
1.81168e-06
1.47574e-06
1.20794e-06
9.95822e-07
8.28477e-07
6.96532e-07
5.92123e-07
5.08838e-07
4.416e-07
3.86509e-07
3.4065e-07
3.01884e-07
2.68661e-07
2.39862e-07
2.14669e-07
1.92476e-07
1.72824e-07
1.55353e-07
1.39777e-07
1.2586e-07
1.13404e-07
1.0224e-07
9.2223e-08
8.32267e-08
7.51402e-08
6.78661e-08
6.13184e-08
5.54209e-08
5.0106e-08
4.53137e-08
4.09905e-08
3.70888e-08
3.3566e-08
3.0384e-08
2.7509e-08
2.49105e-08
2.25611e-08
2.04365e-08
1.85146e-08
1.67757e-08
1.5202e-08
1.37776e-08
1.2488e-08
1.13204e-08
1.02629e-08
9.30514e-09
8.43751e-09
7.65145e-09
6.93922e-09
6.2938e-09
5.70888e-09
5.17873e-09
4.69819e-09
4.26259e-09
3.86768e-09
3.50965e-09
3.18503e-09
2.89068e-09
2.62376e-09
2.38171e-09
2.1622e-09
1.96311e-09
1.78254e-09
1.61876e-09
1.4702e-09
1.33545e-09
1.21321e-09
1.10233e-09
1.00175e-09
9.10506e-10
8.27743e-10
7.52655e-10
6.84555e-10
6.22775e-10
5.66748e-10
5.15927e-10
4.6985e-10
4.28061e-10
3.90188e-10
3.55855e-10
3.24753e-10
2.96575e-10
2.71089e-10
2.47995e-10
2.27147e-10
2.08295e-10
1.91308e-10
1.75946e-10
1.62215e-10
1.49778e-10
1.38732e-10
1.28835e-10
1.20086e-10
1.12231e-10
1.05573e-10
9.97206e-11
9.42752e-11
9.09886e-11
8.6137e-11
8.50716e-11
8.16976e-11
8.24062e-11
7.99689e-11
8.57529e-11
8.11266e-11
9.9932e-11
9.20372e-11
1.48862e-10
1.50001e-10
2.94959e-10
3.86296e-10
7.18581e-10
1.19973e-09
2.23847e-09
3.85809e-09
6.84213e-09
1.14876e-08
1.88532e-08
2.94651e-08
4.44202e-08
6.31534e-08
9.09662e-08
1.10982e-07
1.47262e-07
1.58221e-07
1.8124e-07
1.82604e-07
1.87064e-07
2.08322e-07
2.38398e-07
3.25983e-07
3.74816e-07
5.19357e-07
5.63944e-07
6.72654e-07
6.92146e-07
7.47392e-07
7.59428e-07
7.90751e-07
8.027e-07
8.4645e-07
8.72019e-07
9.41463e-07
9.75394e-07
1.05536e-06
1.07526e-06
1.12472e-06
1.14929e-06
1.20691e-06
1.23081e-06
1.29481e-06
1.35189e-06
1.45558e-06
1.48725e-06
1.55268e-06
1.58106e-06
1.64123e-06
1.67627e-06
1.77157e-06
1.80924e-06
1.86637e-06
1.93565e-06
1.99359e-06
2.02493e-06
2.11247e-06
2.1663e-06
2.27305e-06
2.31814e-06
2.38938e-06
2.45644e-06
2.53218e-06
2.57713e-06
2.68052e-06
2.73679e-06
2.81071e-06
2.87386e-06
2.91589e-06
2.98858e-06
3.06849e-06
3.12155e-06
3.18051e-06
3.24327e-06
3.31097e-06
3.34459e-06
3.40948e-06
3.44436e-06
3.49043e-06
3.51512e-06
3.58284e-06
3.58954e-06
3.6244e-06
3.61833e-06
3.62866e-06
3.59621e-06
3.60657e-06
3.54174e-06
3.53249e-06
3.46854e-06
3.4841e-06
3.44931e-06
3.47604e-06
3.48208e-06
3.5134e-06
3.56062e-06
3.58776e-06
3.72448e-06
3.77346e-06
4.00823e-06
4.06162e-06
4.41976e-06
4.48866e-06
4.95165e-06
5.02832e-06
5.54533e-06
5.63942e-06
6.17312e-06
6.24307e-06
6.55973e-06
6.51053e-06
6.57103e-06
6.35656e-06
6.24136e-06
5.882e-06
5.90612e-06
5.95516e-06
6.07958e-06
6.56727e-06
6.80945e-06
7.82021e-06
7.96003e-06
8.95821e-06
8.6414e-06
8.94339e-06
8.54787e-06
8.91787e-06
1.01044e-05
1.06566e-05
1.41711e-05
1.35531e-05
1.58261e-05
1.63122e-05
1.87646e-05
2.93653e-05
3.18539e-05
5.39869e-05
0.000136571
0.000203259
0.00019621
0.000188848
0.00018251
0.000176886
0.000172018
0.000167682
0.000163757
0.000160218
0.000156987
0.000154059
0.000151349
0.000148934
0.000146796
0.000144823
0.000143284
0.000141761
0.000140569
0.00013924
0.000137789
0.000136462
0.000134851
0.000133287
0.000131196
0.000129017
0.000126688
0.000123705
0.000120475
0.000116979
0.000113452
0.000109963
0.000106722
0.000103751
0.000100843
9.85388e-05
9.63117e-05
9.47238e-05
9.33928e-05
9.21222e-05
9.10783e-05
8.99392e-05
8.89473e-05
8.7985e-05
8.68122e-05
8.58153e-05
8.49685e-05
8.37176e-05
8.26946e-05
8.16019e-05
7.99216e-05
7.855e-05
7.65117e-05
7.43164e-05
7.17837e-05
6.79555e-05
6.38813e-05
5.87501e-05
5.33778e-05
4.76069e-05
4.13165e-05
3.57137e-05
3.08732e-05
2.66449e-05
2.3103e-05
2.01138e-05
1.75054e-05
1.55532e-05
1.38627e-05
1.22647e-05
1.11631e-05
1.02049e-05
9.1266e-06
8.33954e-06
7.98666e-06
7.5392e-06
7.1228e-06
7.11086e-06
7.21527e-06
7.31722e-06
7.40497e-06
7.53664e-06
7.92296e-06
8.10733e-06
8.11452e-06
8.19921e-06
8.48345e-06
9.40072e-06
9.73123e-06
9.56801e-06
9.12736e-06
9.09019e-06
9.43356e-06
1.09285e-05
1.17737e-05
1.18398e-05
1.13916e-05
1.04241e-05
9.77721e-06
9.54013e-06
9.36123e-06
9.16268e-06
9.19976e-06
9.63741e-06
9.83179e-06
9.83566e-06
9.51925e-06
9.28488e-06
9.37827e-06
9.82578e-06
9.93166e-06
9.55684e-06
9.06564e-06
9.24733e-06
1.10344e-05
1.27015e-05
1.34727e-05
1.35601e-05
1.28371e-05
1.15159e-05
1.07898e-05
1.07178e-05
1.1155e-05
1.15225e-05
1.15958e-05
1.17296e-05
1.37955e-05
1.71946e-05
1.93848e-05
2.03684e-05
2.04785e-05
2.01378e-05
1.9975e-05
2.0535e-05
2.17282e-05
2.24406e-05
2.26869e-05
2.26282e-05
2.18835e-05
2.07535e-05
1.95022e-05
1.80871e-05
1.65107e-05
1.48221e-05
1.30972e-05
1.14139e-05
9.83294e-06
8.39168e-06
7.106e-06
5.97658e-06
4.99517e-06
4.1505e-06
3.43046e-06
2.8228e-06
2.31535e-06
1.89609e-06
1.55331e-06
1.27579e-06
1.05299e-06
8.75252e-07
7.3395e-07
6.21566e-07
5.31765e-07
4.59371e-07
4.00295e-07
3.514e-07
3.10335e-07
2.75372e-07
2.45245e-07
2.19028e-07
1.96038e-07
1.75755e-07
1.5778e-07
1.41796e-07
1.27546e-07
1.14816e-07
1.03426e-07
9.32216e-08
8.40687e-08
7.58514e-08
6.84676e-08
6.18278e-08
5.58528e-08
5.04726e-08
4.56251e-08
4.12553e-08
3.73141e-08
3.37579e-08
3.05477e-08
2.76486e-08
2.50296e-08
2.26629e-08
2.05235e-08
1.8589e-08
1.68394e-08
1.52565e-08
1.38242e-08
1.25279e-08
1.13545e-08
1.02921e-08
9.33011e-09
8.45886e-09
7.6697e-09
6.95481e-09
6.30713e-09
5.72027e-09
5.18846e-09
4.7065e-09
4.26968e-09
3.87373e-09
3.5148e-09
3.1894e-09
2.89439e-09
2.62691e-09
2.38437e-09
2.16443e-09
1.96498e-09
1.78409e-09
1.62005e-09
1.47126e-09
1.33632e-09
1.21392e-09
1.10289e-09
1.00219e-09
9.10841e-10
8.27983e-10
7.52822e-10
6.84652e-10
6.22818e-10
5.66734e-10
5.15876e-10
4.69757e-10
4.27943e-10
3.90035e-10
3.55688e-10
3.24564e-10
2.96376e-10
2.70861e-10
2.4776e-10
2.26894e-10
2.08023e-10
1.91022e-10
1.75624e-10
1.61946e-10
1.49412e-10
1.38529e-10
1.2836e-10
1.20114e-10
1.11488e-10
1.06089e-10
9.8395e-11
9.56051e-11
8.91699e-11
8.78788e-11
8.33949e-11
8.4081e-11
8.13994e-11
8.66773e-11
8.47257e-11
9.91341e-11
1.04516e-10
1.33814e-10
1.72405e-10
2.515e-10
4.05685e-10
6.57144e-10
1.16746e-09
1.9031e-09
3.30886e-09
5.21283e-09
8.40384e-09
1.243e-08
1.88566e-08
2.50891e-08
3.58496e-08
4.43375e-08
5.93737e-08
7.60074e-08
1.06502e-07
1.52226e-07
2.29108e-07
3.34675e-07
4.74039e-07
6.85846e-07
8.18304e-07
1.08818e-06
1.1583e-06
1.32194e-06
1.348e-06
1.41814e-06
1.43196e-06
1.4638e-06
1.47063e-06
1.49753e-06
1.51647e-06
1.56753e-06
1.57736e-06
1.62176e-06
1.6256e-06
1.63843e-06
1.64946e-06
1.67474e-06
1.68448e-06
1.71188e-06
1.72941e-06
1.78016e-06
1.77891e-06
1.78814e-06
1.82014e-06
1.83752e-06
1.85015e-06
1.87047e-06
1.9041e-06
1.94631e-06
1.96614e-06
1.97806e-06
2.01544e-06
2.03339e-06
2.0726e-06
2.08599e-06
2.11605e-06
2.12803e-06
2.17545e-06
2.19198e-06
2.23303e-06
2.24977e-06
2.31485e-06
2.33807e-06
2.41631e-06
2.43813e-06
2.52155e-06
2.55513e-06
2.66098e-06
2.6962e-06
2.80534e-06
2.84347e-06
2.95091e-06
2.99993e-06
3.14061e-06
3.19732e-06
3.34347e-06
3.4014e-06
3.53729e-06
3.60214e-06
3.75947e-06
3.85329e-06
3.97031e-06
4.12338e-06
4.25599e-06
4.44373e-06
4.53823e-06
4.73273e-06
4.82788e-06
5.0313e-06
5.09186e-06
5.25068e-06
5.28808e-06
5.39328e-06
5.41187e-06
5.47877e-06
5.47929e-06
5.44738e-06
5.41139e-06
5.24923e-06
5.19892e-06
5.02814e-06
5.03269e-06
5.04686e-06
5.09444e-06
5.266e-06
5.35222e-06
5.80146e-06
5.91407e-06
6.58759e-06
6.67161e-06
7.49934e-06
7.58992e-06
8.33538e-06
8.22319e-06
8.53797e-06
8.09702e-06
8.07637e-06
7.71074e-06
7.81984e-06
8.18282e-06
8.39836e-06
9.88438e-06
9.981e-06
1.17276e-05
1.11987e-05
1.22479e-05
1.17089e-05
1.246e-05
1.50926e-05
1.59138e-05
2.37477e-05
2.27053e-05
3.05576e-05
3.16642e-05
3.65845e-05
6.97502e-05
0.000131365
0.000129617
0.000127036
0.000124446
0.000121583
0.00011888
0.000116504
0.000114439
0.000112713
0.000111223
0.000109987
0.000108912
0.000108105
0.00010733
0.000106855
0.0001064
0.00010622
0.00010629
0.000106602
0.00010699
0.000107776
0.00010834
0.00010909
0.000109676
0.000110096
0.000110426
0.000110373
0.000110146
0.000109622
0.000108765
0.000107779
0.000106476
0.000105113
0.000103955
0.000102465
0.000101055
9.96207e-05
9.78945e-05
9.61868e-05
9.44502e-05
9.24437e-05
9.04049e-05
8.81593e-05
8.55406e-05
8.29099e-05
7.96635e-05
7.62723e-05
7.26975e-05
6.83667e-05
6.42758e-05
5.93861e-05
5.45262e-05
4.92814e-05
4.37142e-05
3.87312e-05
3.42335e-05
3.01884e-05
2.66372e-05
2.34451e-05
2.06661e-05
1.81875e-05
1.60446e-05
1.42042e-05
1.25552e-05
1.12221e-05
1.00629e-05
9.08019e-06
8.26917e-06
7.59065e-06
7.10999e-06
6.71444e-06
6.38617e-06
6.34623e-06
6.37251e-06
6.3976e-06
6.45913e-06
6.81796e-06
7.05094e-06
7.11578e-06
7.23632e-06
7.82121e-06
8.25418e-06
8.39088e-06
8.51942e-06
8.98865e-06
9.39653e-06
9.37165e-06
8.84931e-06
8.75343e-06
8.84939e-06
9.62486e-06
1.11425e-05
1.1465e-05
1.10439e-05
1.04297e-05
1.00379e-05
9.6744e-06
9.54687e-06
9.58691e-06
9.69735e-06
9.63909e-06
9.5813e-06
1.00552e-05
1.10226e-05
1.13732e-05
1.11963e-05
1.08496e-05
1.08025e-05
1.08334e-05
1.08398e-05
1.04771e-05
9.97057e-06
9.90936e-06
1.04745e-05
1.111e-05
1.13886e-05
1.13907e-05
1.09524e-05
1.0445e-05
1.02699e-05
1.06502e-05
1.14225e-05
1.15157e-05
1.12896e-05
1.13986e-05
1.52303e-05
1.99515e-05
2.20075e-05
2.27276e-05
2.31633e-05
2.35153e-05
2.35947e-05
2.32958e-05
2.29393e-05
2.28896e-05
2.29422e-05
2.2931e-05
2.22272e-05
2.0486e-05
1.86842e-05
1.69376e-05
1.52826e-05
1.37258e-05
1.22655e-05
1.0899e-05
9.62401e-06
8.43893e-06
7.34247e-06
6.33236e-06
5.40889e-06
4.57534e-06
3.8344e-06
3.1865e-06
2.6293e-06
2.1578e-06
1.76496e-06
1.44234e-06
1.18083e-06
9.71175e-07
8.04504e-07
6.72635e-07
5.68329e-07
4.85436e-07
4.18927e-07
3.64851e-07
3.20199e-07
2.82746e-07
2.50873e-07
2.23411e-07
1.99511e-07
1.78548e-07
1.60053e-07
1.43663e-07
1.2909e-07
1.161e-07
1.04499e-07
9.41212e-08
8.48253e-08
7.64894e-08
6.90069e-08
6.22845e-08
5.62403e-08
5.0802e-08
4.59055e-08
4.14943e-08
3.7518e-08
3.39321e-08
3.06965e-08
2.7776e-08
2.51386e-08
2.27562e-08
2.06034e-08
1.86574e-08
1.6898e-08
1.53067e-08
1.38672e-08
1.25648e-08
1.13861e-08
1.03191e-08
9.35326e-09
8.47869e-09
7.68668e-09
6.96934e-09
6.31955e-09
5.73088e-09
5.19751e-09
4.71421e-09
4.27623e-09
3.87928e-09
3.5195e-09
3.19336e-09
2.89772e-09
2.62969e-09
2.38668e-09
2.16635e-09
1.96655e-09
1.78538e-09
1.62109e-09
1.47209e-09
1.33695e-09
1.2144e-09
1.10324e-09
1.00241e-09
9.10962e-10
8.28015e-10
7.52779e-10
6.84539e-10
6.22652e-10
5.66526e-10
5.1563e-10
4.69476e-10
4.27631e-10
3.89699e-10
3.55327e-10
3.24179e-10
2.95971e-10
2.70449e-10
2.47342e-10
2.26468e-10
2.07592e-10
1.90605e-10
1.75192e-10
1.61537e-10
1.48947e-10
1.3815e-10
1.27857e-10
1.19808e-10
1.10897e-10
1.05888e-10
9.78544e-11
9.52379e-11
8.88256e-11
8.7875e-11
8.32549e-11
8.53447e-11
8.14419e-11
9.18126e-11
8.6095e-11
1.20198e-10
1.14028e-10
2.20953e-10
2.38126e-10
5.30877e-10
6.97122e-10
1.42476e-09
2.27407e-09
4.2346e-09
7.14407e-09
1.25109e-08
2.07746e-08
3.36075e-08
5.25837e-08
7.91251e-08
1.15063e-07
1.65574e-07
2.1792e-07
3.0208e-07
3.5999e-07
4.61385e-07
5.11258e-07
6.04712e-07
6.32933e-07
6.94919e-07
7.05836e-07
7.41361e-07
7.48536e-07
7.717e-07
7.86697e-07
8.04529e-07
8.31839e-07
8.50472e-07
8.85913e-07
9.13279e-07
9.58593e-07
9.77845e-07
1.03025e-06
1.05093e-06
1.10959e-06
1.12905e-06
1.18953e-06
1.21971e-06
1.28802e-06
1.31503e-06
1.38783e-06
1.42215e-06
1.5114e-06
1.52961e-06
1.60178e-06
1.66023e-06
1.7894e-06
1.81038e-06
1.8813e-06
1.95596e-06
2.03785e-06
2.04966e-06
2.14143e-06
2.20096e-06
2.34184e-06
2.33929e-06
2.40509e-06
2.43701e-06
2.49545e-06
2.50407e-06
2.57356e-06
2.58539e-06
2.65998e-06
2.66223e-06
2.68916e-06
2.69692e-06
2.77613e-06
2.77756e-06
2.82565e-06
2.82643e-06
2.86121e-06
2.86554e-06
2.92165e-06
2.92261e-06
2.95719e-06
2.96423e-06
3.01044e-06
3.01598e-06
3.05395e-06
3.0995e-06
3.13123e-06
3.18862e-06
3.23347e-06
3.34149e-06
3.37803e-06
3.52896e-06
3.5741e-06
3.76408e-06
3.81122e-06
4.08156e-06
4.14095e-06
4.47608e-06
4.5394e-06
4.93055e-06
5.00756e-06
5.44585e-06
5.54067e-06
6.05089e-06
6.18184e-06
6.71573e-06
6.84684e-06
7.29575e-06
7.37172e-06
7.63311e-06
7.64481e-06
7.71391e-06
7.58495e-06
7.52001e-06
7.14139e-06
7.10066e-06
6.97875e-06
7.03411e-06
7.24178e-06
7.41308e-06
8.14321e-06
8.33007e-06
9.45251e-06
9.62806e-06
1.09144e-05
1.07382e-05
1.14011e-05
1.05892e-05
1.08994e-05
1.07759e-05
1.0995e-05
1.26585e-05
1.29157e-05
1.74822e-05
1.68452e-05
2.22778e-05
2.08031e-05
2.41884e-05
2.45781e-05
2.6181e-05
3.15844e-05
3.2758e-05
4.22158e-05
6.40288e-05
6.34998e-05
6.24163e-05
6.15335e-05
6.07165e-05
5.99699e-05
5.93054e-05
5.88361e-05
5.83618e-05
5.80808e-05
5.7856e-05
5.77507e-05
5.77701e-05
5.78495e-05
5.79867e-05
5.83042e-05
5.8556e-05
5.91389e-05
5.95291e-05
6.0318e-05
6.09022e-05
6.17248e-05
6.26419e-05
6.33823e-05
6.43816e-05
6.5077e-05
6.60496e-05
6.68669e-05
6.78532e-05
6.84849e-05
6.91686e-05
6.93861e-05
6.92759e-05
6.8918e-05
6.81124e-05
6.6998e-05
6.5593e-05
6.38666e-05
6.19379e-05
5.964e-05
5.70908e-05
5.43848e-05
5.14581e-05
4.84604e-05
4.53837e-05
4.22383e-05
3.91768e-05
3.61199e-05
3.31488e-05
3.03164e-05
2.7561e-05
2.49751e-05
2.25443e-05