/*--------------------------------*- C++ -*----------------------------------*\
| =========                 |                                                 |
| \\      /  F ield         | OpenFOAM: The Open Source CFD Toolbox           |
|  \\    /   O peration     | Version:  2.4.0                                 |
|   \\  /    A nd           | Web:      www.OpenFOAM.org                      |
|    \\/     M anipulation  |                                                 |
\*---------------------------------------------------------------------------*/
FoamFile
{
    version     2.0;
    format      ascii;
    class       volSymmTensorField;
    location    "0.035";
    object      UPrime2Mean;
}
// * * * * * * * * * * * * * * * * * * * * * * * * * * * * * * * * * * * * * //

dimensions      [0 2 -2 0 0 0 0];

internalField   nonuniform List<symmTensor> 
17600
(
(0.0789201 0.00395295 0 0.000422672 0 0)
(0.00713308 -0.00163092 0 0.00568721 0 0)
(0.134851 -0.0317792 0 0.00924823 0 0)
(0.402091 -0.0517113 0 0.0073455 0 0)
(0.74993 -0.0532535 0 0.0040317 0 0)
(1.16293 -0.0420619 0 0.00164145 0 0)
(1.60107 -0.0249177 0 0.000475635 0 0)
(2.00634 -0.0075604 0 8.47721e-05 0 0)
(2.34955 0.00645017 0 5.24564e-05 0 0)
(2.60098 0.0152155 0 0.000129813 0 0)
(2.79496 0.0184946 0 0.000187619 0 0)
(2.91481 0.018301 0 0.000193615 0 0)
(3.01791 0.0158809 0 0.000155666 0 0)
(3.06834 0.0130903 0 0.000120421 0 0)
(3.13285 0.0102487 0 7.95309e-05 0 0)
(3.15114 0.00783735 0 6.16591e-05 0 0)
(3.20243 0.0053367 0 3.99766e-05 0 0)
(3.20652 0.00388077 0 2.2956e-05 0 0)
(3.25486 0.00221702 0 1.69461e-05 0 0)
(3.25261 0.00111573 0 1.16328e-05 0 0)
(3.30128 0.000526639 0 1.13797e-05 0 0)
(3.29751 -0.000115489 0 1.349e-05 0 0)
(3.34524 -0.000340058 0 1.60113e-05 0 0)
(3.34341 -0.000664991 0 1.46338e-05 0 0)
(3.38445 -0.000532945 0 1.81012e-05 0 0)
(3.38993 -0.00103768 0 1.99011e-05 0 0)
(3.41638 -0.00115311 0 2.98204e-05 0 0)
(3.44236 -0.00110352 0 3.25825e-05 0 0)
(3.44532 -0.00285804 0 6.89572e-05 0 0)
(3.50954 -0.00122037 0 6.61316e-05 0 0)
(3.49374 -0.00659625 0 0.000170114 0 0)
(3.58922 -0.000273072 0 0.000184047 0 0)
(3.63284 -0.0180588 0 0.000538466 0 0)
(3.65145 0.00998456 0 0.000943602 0 0)
(4.05804 -0.0717257 0 0.00349099 0 0)
(3.68378 0.0717922 0 0.00864111 0 0)
(5.15228 -0.301384 0 0.0290566 0 0)
(4.04941 0.30036 0 0.0612791 0 0)
(7.85806 -1.19305 0 0.216683 0 0)
(7.27891 0.435884 0 0.0719393 0 0)
(0.08 0.00663195 0 0.000875819 0 0)
(0.0143919 0.010193 0 0.00746594 0 0)
(0.0011715 0.00354917 0 0.018213 0 0)
(0.00245417 -0.00424687 0 0.0264513 0 0)
(0.00951109 -0.0123523 0 0.0290519 0 0)
(0.0194862 -0.0209724 0 0.0270032 0 0)
(0.0480567 -0.0329482 0 0.0233116 0 0)
(0.0963766 -0.0415577 0 0.0186634 0 0)
(0.180959 -0.0477078 0 0.0141442 0 0)
(0.271792 -0.0457964 0 0.00971016 0 0)
(0.396125 -0.0431567 0 0.00652936 0 0)
(0.498423 -0.0356004 0 0.00396149 0 0)
(0.6411 -0.0318085 0 0.00257255 0 0)
(0.734052 -0.025078 0 0.00157476 0 0)
(0.882055 -0.0224695 0 0.00102334 0 0)
(0.954422 -0.0171428 0 0.000696355 0 0)
(1.09856 -0.0163949 0 0.000528448 0 0)
(1.14968 -0.0122098 0 0.000474942 0 0)
(1.27896 -0.0123167 0 0.000327249 0 0)
(1.3264 -0.0105599 0 0.000360132 0 0)
(1.42226 -0.0107845 0 0.000258345 0 0)
(1.48785 -0.00978012 0 0.000332353 0 0)
(1.53812 -0.0100372 0 0.000239563 0 0)
(1.64006 -0.0106666 0 0.000410163 0 0)
(1.62814 -0.00708384 0 0.000283833 0 0)
(1.7866 -0.0141061 0 0.000592903 0 0)
(1.69762 -0.00204825 0 0.000419453 0 0)
(1.92327 -0.0226864 0 0.00103596 0 0)
(1.76397 0.00649309 0 0.000945637 0 0)
(2.04718 -0.0421356 0 0.00225664 0 0)
(1.86123 0.0210393 0 0.00237863 0 0)
(2.15947 -0.0765968 0 0.00541417 0 0)
(2.03333 0.040213 0 0.0058882 0 0)
(2.28929 -0.130684 0 0.0129808 0 0)
(2.34462 0.0519636 0 0.0128737 0 0)
(2.56061 -0.22252 0 0.031862 0 0)
(2.92073 0.0161022 0 0.0220384 0 0)
(3.28866 -0.441958 0 0.0941239 0 0)
(4.04303 -0.289106 0 0.0352799 0 0)
(4.66149 -1.26366 0 0.622046 0 0)
(0.0794645 0.00476439 0 0.000451529 0 0)
(0.0148088 0.00823643 0 0.00488604 0 0)
(0.00288293 0.00534811 0 0.0134793 0 0)
(0.00550561 0.008852 0 0.0221181 0 0)
(0.0170353 0.0154097 0 0.0263007 0 0)
(0.0346063 0.025294 0 0.0261831 0 0)
(0.0422714 0.0267822 0 0.0238156 0 0)
(0.0479959 0.0272427 0 0.0209028 0 0)
(0.0406868 0.0200632 0 0.0176207 0 0)
(0.0391657 0.0158896 0 0.014308 0 0)
(0.0292438 0.00817074 0 0.0112859 0 0)
(0.0266561 0.00582419 0 0.00855894 0 0)
(0.0217924 0.000171849 0 0.00678641 0 0)
(0.0203684 -0.000707908 0 0.00518136 0 0)
(0.0249447 -0.00481249 0 0.00460007 0 0)
(0.0266384 -0.00527563 0 0.00356075 0 0)
(0.0398575 -0.0085721 0 0.00376882 0 0)
(0.0458123 -0.00776804 0 0.00231932 0 0)
(0.0631828 -0.0101311 0 0.00281602 0 0)
(0.0782042 -0.00940963 0 0.00213598 0 0)
(0.091222 -0.0113997 0 0.00222351 0 0)
(0.120137 -0.0101818 0 0.00173148 0 0)
(0.124872 -0.0128384 0 0.00205075 0 0)
(0.169173 -0.0104126 0 0.00151507 0 0)
(0.161659 -0.013496 0 0.0018265 0 0)
(0.224756 -0.0101373 0 0.00153604 0 0)
(0.201066 -0.0142764 0 0.00170299 0 0)
(0.282454 -0.00955332 0 0.00161877 0 0)
(0.244569 -0.0160242 0 0.00183736 0 0)
(0.341508 -0.0102718 0 0.00187353 0 0)
(0.29676 -0.0194805 0 0.0023646 0 0)
(0.407249 -0.013446 0 0.00243704 0 0)
(0.363449 -0.0265015 0 0.00386361 0 0)
(0.490206 -0.0233404 0 0.00398662 0 0)
(0.463012 -0.0425331 0 0.00874767 0 0)
(0.620581 -0.0517677 0 0.00872554 0 0)
(0.640634 -0.0926391 0 0.0296394 0 0)
(0.879512 -0.163748 0 0.0409352 0 0)
(0.981113 -0.306784 0 0.175855 0 0)
(1.2362 -0.622591 0 0.522197 0 0)
(0.0792932 0.00370375 0 0.000304641 0 0)
(0.0150515 0.0062037 0 0.00287207 0 0)
(0.00256183 0.00325391 0 0.00840431 0 0)
(0.00411777 0.00570375 0 0.0137257 0 0)
(0.0141979 0.0113639 0 0.0175727 0 0)
(0.0361503 0.0215151 0 0.0169602 0 0)
(0.0559543 0.0270733 0 0.0165307 0 0)
(0.0824268 0.0313178 0 0.0136688 0 0)
(0.0950651 0.0313603 0 0.0129623 0 0)
(0.117295 0.0296812 0 0.0101957 0 0)
(0.122325 0.0281176 0 0.0102238 0 0)
(0.139916 0.0246883 0 0.00714565 0 0)
(0.138237 0.0237612 0 0.00747241 0 0)
(0.150872 0.0204497 0 0.00525082 0 0)
(0.145162 0.0205797 0 0.00547197 0 0)
(0.15371 0.016024 0 0.00420455 0 0)
(0.146955 0.0177116 0 0.00448768 0 0)
(0.153465 0.0124892 0 0.00394836 0 0)
(0.146578 0.014857 0 0.00319222 0 0)
(0.151409 0.0101562 0 0.00392233 0 0)
(0.144721 0.0127584 0 0.00273048 0 0)
(0.147274 0.00833368 0 0.00346933 0 0)
(0.140591 0.0108597 0 0.00262262 0 0)
(0.141483 0.00673012 0 0.00349773 0 0)
(0.13431 0.00891016 0 0.0023075 0 0)
(0.134837 0.00562396 0 0.00366851 0 0)
(0.127981 0.00698685 0 0.0022755 0 0)
(0.127014 0.004885 0 0.00392131 0 0)
(0.119703 0.00560196 0 0.00253743 0 0)
(0.11783 0.00554551 0 0.00452456 0 0)
(0.10926 0.00512911 0 0.00329984 0 0)
(0.105455 0.00740193 0 0.00563808 0 0)
(0.094281 0.00640408 0 0.00487467 0 0)
(0.0868317 0.0112802 0 0.00859963 0 0)
(0.0710013 0.0107688 0 0.00924568 0 0)
(0.0595588 0.01584 0 0.0194171 0 0)
(0.0417364 0.0157854 0 0.0294855 0 0)
(0.0348384 0.0120885 0 0.0683834 0 0)
(0.0306249 0.00694742 0 0.154522 0 0)
(0.0382997 -0.00122508 0 0.333501 0 0)
(0.0796327 0.00287524 0 0.000338473 0 0)
(0.0140005 0.00435291 0 0.00186685 0 0)
(0.00250774 0.00219587 0 0.0053263 0 0)
(0.00257683 0.00289259 0 0.00826653 0 0)
(0.0101623 0.00739097 0 0.0113702 0 0)
(0.0262714 0.0142661 0 0.0108785 0 0)
(0.0446467 0.0195962 0 0.0109681 0 0)
(0.066682 0.0227708 0 0.00888416 0 0)
(0.0847381 0.0242922 0 0.00838291 0 0)
(0.105447 0.0233974 0 0.0067307 0 0)
(0.120661 0.0235057 0 0.00665607 0 0)
(0.13972 0.0213875 0 0.00517134 0 0)
(0.150406 0.0210386 0 0.00511157 0 0)
(0.167368 0.0196393 0 0.00364736 0 0)
(0.17501 0.0190483 0 0.00393733 0 0)
(0.18976 0.0175512 0 0.00299042 0 0)
(0.195697 0.0179135 0 0.00362809 0 0)
(0.211538 0.0156465 0 0.00245143 0 0)
(0.214846 0.0162852 0 0.00280409 0 0)
(0.232628 0.0147 0 0.00262093 0 0)
(0.234127 0.0154035 0 0.00229589 0 0)
(0.251623 0.0138474 0 0.00237469 0 0)
(0.250161 0.0151365 0 0.00234959 0 0)
(0.267803 0.0132947 0 0.00252061 0 0)
(0.262994 0.0141957 0 0.00208042 0 0)
(0.280801 0.0133078 0 0.00222993 0 0)
(0.274056 0.0132328 0 0.00218438 0 0)
(0.289839 0.0134687 0 0.00226115 0 0)
(0.279794 0.014359 0 0.00238753 0 0)
(0.293231 0.0158779 0 0.00258088 0 0)
(0.278364 0.0181158 0 0.00286674 0 0)
(0.286799 0.0215841 0 0.00336047 0 0)
(0.265973 0.0265485 0 0.00431119 0 0)
(0.266177 0.035279 0 0.00648538 0 0)
(0.235141 0.0452159 0 0.0100809 0 0)
(0.22303 0.0639778 0 0.0200796 0 0)
(0.179662 0.0812681 0 0.0385099 0 0)
(0.157384 0.115658 0 0.0900862 0 0)
(0.128069 0.142747 0 0.178207 0 0)
(0.179744 0.253684 0 0.401944 0 0)
(0.0799457 0.0021476 0 0.000194288 0 0)
(0.0134726 0.00357085 0 0.0012786 0 0)
(0.00270918 0.00149948 0 0.00296608 0 0)
(0.00205417 0.00173218 0 0.0053585 0 0)
(0.00781636 0.00482047 0 0.00661034 0 0)
(0.0202073 0.0101295 0 0.00783541 0 0)
(0.0354373 0.0136621 0 0.00662945 0 0)
(0.0533824 0.0172906 0 0.0068122 0 0)
(0.0699759 0.0170403 0 0.0048771 0 0)
(0.0879325 0.0187017 0 0.00509741 0 0)
(0.102868 0.0159865 0 0.00362997 0 0)
(0.119618 0.0182839 0 0.00433395 0 0)
(0.131098 0.0136991 0 0.00253379 0 0)
(0.146337 0.0177768 0 0.00413416 0 0)
(0.155613 0.0118829 0 0.00137673 0 0)
(0.16886 0.0172204 0 0.00352539 0 0)
(0.177229 0.00986116 0 0.00100996 0 0)
(0.191628 0.0173811 0 0.00359785 0 0)
(0.199024 0.00748957 0 0.00096365 0 0)
(0.21475 0.0182529 0 0.00320737 0 0)
(0.2214 0.00548841 0 0.00073305 0 0)
(0.23688 0.0190797 0 0.00317066 0 0)
(0.24187 0.00470104 0 0.000774143 0 0)
(0.256579 0.0199948 0 0.00338346 0 0)
(0.26009 0.00335443 0 0.000909689 0 0)
(0.274165 0.0213099 0 0.00299724 0 0)
(0.276982 0.00245987 0 0.00118023 0 0)
(0.289628 0.0228798 0 0.00318558 0 0)
(0.290334 0.00406318 0 0.00140062 0 0)
(0.300553 0.0267067 0 0.0038094 0 0)
(0.297298 0.00879074 0 0.001731 0 0)
(0.303083 0.0339236 0 0.0051199 0 0)
(0.295637 0.0197693 0 0.00284323 0 0)
(0.29521 0.0499686 0 0.0098702 0 0)
(0.280176 0.0446813 0 0.00835337 0 0)
(0.272972 0.0846814 0 0.0277994 0 0)
(0.255427 0.0986164 0 0.039515 0 0)
(0.252606 0.165363 0 0.113558 0 0)
(0.256623 0.221229 0 0.203893 0 0)
(0.268175 0.326994 0 0.434872 0 0)
(0.0802484 0.00180654 0 0.000199971 0 0)
(0.0129227 0.00230536 0 0.000692422 0 0)
(0.00294865 0.0011722 0 0.00186842 0 0)
(0.00182394 0.000779916 0 0.00268907 0 0)
(0.00647197 0.00326185 0 0.00431606 0 0)
(0.0161825 0.0064369 0 0.00407961 0 0)
(0.0295437 0.010022 0 0.00464396 0 0)
(0.0440492 0.0111865 0 0.00338642 0 0)
(0.0603304 0.0132531 0 0.00356891 0 0)
(0.0749481 0.0116155 0 0.00228429 0 0)
(0.0910699 0.0135133 0 0.00280468 0 0)
(0.103788 0.0104555 0 0.00171155 0 0)
(0.117384 0.0128653 0 0.00236794 0 0)
(0.128072 0.00937257 0 0.00109989 0 0)
(0.139968 0.0123004 0 0.00195554 0 0)
(0.149154 0.00800525 0 0.000865461 0 0)
(0.16075 0.0123662 0 0.00186182 0 0)
(0.170047 0.00674598 0 0.000787885 0 0)
(0.181541 0.01194 0 0.00156618 0 0)
(0.191525 0.00611082 0 0.000785669 0 0)
(0.202697 0.0117521 0 0.00133321 0 0)
(0.212968 0.00564502 0 0.000623272 0 0)
(0.222044 0.0122763 0 0.00131666 0 0)
(0.231659 0.00545674 0 0.000860443 0 0)
(0.239513 0.0124237 0 0.00131977 0 0)
(0.249114 0.00582856 0 0.000690941 0 0)
(0.25577 0.0129734 0 0.00116746 0 0)
(0.265531 0.0071581 0 0.00100738 0 0)
(0.269795 0.0153575 0 0.00134262 0 0)
(0.278406 0.0113142 0 0.00135466 0 0)
(0.278563 0.0205136 0 0.0019697 0 0)
(0.284853 0.0195149 0 0.00217504 0 0)
(0.2819 0.0316589 0 0.0039432 0 0)
(0.285736 0.0379528 0 0.00589544 0 0)
(0.277778 0.056829 0 0.0120984 0 0)
(0.281345 0.0772361 0 0.0217958 0 0)
(0.273974 0.111604 0 0.0467269 0 0)
(0.281832 0.155193 0 0.0876497 0 0)
(0.281641 0.212089 0 0.167462 0 0)
(0.286396 0.265564 0 0.258505 0 0)
(0.0803024 0.00107008 0 4.37919e-05 0 0)
(0.0128263 0.00165506 0 0.000296237 0 0)
(0.00305855 0.000610573 0 0.000756543 0 0)
(0.00182801 0.0004163 0 0.001388 0 0)
(0.00569368 0.00192979 0 0.0018787 0 0)
(0.0139308 0.00422995 0 0.00229863 0 0)
(0.0255306 0.00624024 0 0.00203718 0 0)
(0.0384818 0.00781952 0 0.00205545 0 0)
(0.0534026 0.00803928 0 0.00146161 0 0)
(0.0672378 0.0086403 0 0.00142622 0 0)
(0.0824025 0.00772022 0 0.0009953 0 0)
(0.0944799 0.00842848 0 0.00114942 0 0)
(0.107317 0.00682561 0 0.000781368 0 0)
(0.117621 0.00824937 0 0.00115058 0 0)
(0.128617 0.00624487 0 0.000559525 0 0)
(0.137511 0.00804823 0 0.00090366 0 0)
(0.148109 0.00541913 0 0.00042854 0 0)
(0.157353 0.00749892 0 0.000861046 0 0)
(0.168207 0.00474206 0 0.000624687 0 0)
(0.177838 0.00775105 0 0.000806186 0 0)
(0.188455 0.00432779 0 0.000374541 0 0)
(0.198427 0.00790736 0 0.000808597 0 0)
(0.207138 0.00418626 0 0.000379652 0 0)
(0.216118 0.00831439 0 0.000886973 0 0)
(0.224127 0.00430422 0 0.000613856 0 0)
(0.232833 0.00897752 0 0.000770426 0 0)
(0.240124 0.00517395 0 0.000522657 0 0)
(0.249303 0.0106456 0 0.00102903 0 0)
(0.255069 0.00769622 0 0.000703763 0 0)
(0.26305 0.014859 0 0.0013675 0 0)
(0.265781 0.0134441 0 0.00118221 0 0)
(0.272394 0.0229732 0 0.00245205 0 0)
(0.27433 0.0255975 0 0.00282185 0 0)
(0.280326 0.0411251 0 0.00647644 0 0)
(0.280713 0.0516315 0 0.0100135 0 0)
(0.29002 0.0796335 0 0.0222619 0 0)
(0.294567 0.106079 0 0.0388858 0 0)
(0.313492 0.157522 0 0.0806154 0 0)
(0.329455 0.212042 0 0.139375 0 0)
(0.343702 0.289111 0 0.248902 0 0)
(0.0802572 0.000789865 0 5.99376e-05 0 0)
(0.0127173 0.00088048 0 0.000159248 0 0)
(0.0030531 0.000453969 0 0.000379055 0 0)
(0.00183427 0.000175635 0 0.000469162 0 0)
(0.00521755 0.00109661 0 0.000824772 0 0)
(0.012543 0.0022642 0 0.000766483 0 0)
(0.0230395 0.00370517 0 0.000914945 0 0)
(0.0350505 0.00413191 0 0.000670941 0 0)
(0.0491062 0.00499428 0 0.000706414 0 0)
(0.0625351 0.00431318 0 0.000432253 0 0)
(0.0771206 0.00517787 0 0.000553161 0 0)
(0.0888366 0.00395584 0 0.000370514 0 0)
(0.10125 0.00497114 0 0.000484574 0 0)
(0.110993 0.00381697 0 0.000302255 0 0)
(0.121507 0.00465968 0 0.000414324 0 0)
(0.130299 0.00341524 0 0.000273694 0 0)
(0.140633 0.00447643 0 0.00035575 0 0)
(0.149592 0.00294125 0 0.000294112 0 0)
(0.160358 0.00426789 0 0.000363341 0 0)
(0.16929 0.00303799 0 0.000291198 0 0)
(0.179885 0.00415505 0 0.000295306 0 0)
(0.189431 0.00326341 0 0.000300098 0 0)
(0.198206 0.00419386 0 0.000239836 0 0)
(0.206661 0.00345563 0 0.000341426 0 0)
(0.214923 0.00450042 0 0.000373835 0 0)
(0.223418 0.00427322 0 0.000369768 0 0)
(0.231125 0.00578162 0 0.00034754 0 0)
(0.240229 0.00629784 0 0.000500413 0 0)
(0.246908 0.00849577 0 0.000583709 0 0)
(0.255292 0.0106007 0 0.000759909 0 0)
(0.259351 0.0145185 0 0.00112747 0 0)
(0.267469 0.0188775 0 0.00170233 0 0)
(0.2724 0.0266861 0 0.00294689 0 0)
(0.281825 0.036449 0 0.00506438 0 0)
(0.287978 0.0518328 0 0.0097501 0 0)
(0.30433 0.0731875 0 0.018006 0 0)
(0.319282 0.105027 0 0.0350306 0 0)
(0.348802 0.149359 0 0.0647831 0 0)
(0.374795 0.207788 0 0.1165 0 0)
(0.382178 0.267006 0 0.189686 0 0)
(0.0802525 0.000342481 0 5.45805e-05 0 0)
(0.0127184 0.000155371 0 0.000117669 0 0)
(0.00307631 0.000184907 0 0.000158681 0 0)
(0.00185404 3.4254e-07 0 0.000139928 0 0)
(0.00503844 0.000371616 0 0.000218152 0 0)
(0.0119609 0.000611628 0 0.000153598 0 0)
(0.0219283 0.00132562 0 0.000250289 0 0)
(0.0334779 0.00103304 0 0.000138869 0 0)
(0.0471235 0.00201966 0 0.000247264 0 0)
(0.060341 0.000793162 0 0.000146251 0 0)
(0.0746599 0.00245262 0 0.000253122 0 0)
(0.0861477 0.000317928 0 0.00015458 0 0)
(0.0984591 0.00262897 0 0.000262908 0 0)
(0.107934 6.22902e-05 0 0.000148322 0 0)
(0.11832 0.00267237 0 0.00028557 0 0)
(0.126914 -3.23886e-05 0 0.000152673 0 0)
(0.136966 0.00269941 0 0.000269706 0 0)
(0.145866 -0.000711317 0 0.000161886 0 0)
(0.156644 0.00291653 0 0.000300457 0 0)
(0.165354 -0.000797787 0 0.00019259 0 0)
(0.176086 0.00334201 0 0.000282844 0 0)
(0.185178 -0.000577309 0 0.000174892 0 0)
(0.194048 0.00341339 0 0.000255516 0 0)
(0.202383 -0.00066312 0 0.000182084 0 0)
(0.210921 0.00416258 0 0.00030348 0 0)
(0.219279 0.000253483 0 0.000210243 0 0)
(0.227541 0.00564841 0 0.000326678 0 0)
(0.236546 0.0025326 0 0.000239163 0 0)
(0.244175 0.00834998 0 0.000465167 0 0)
(0.253004 0.00687056 0 0.000394196 0 0)
(0.258514 0.0142543 0 0.000945021 0 0)
(0.267986 0.0153076 0 0.00105305 0 0)
(0.275665 0.0260747 0 0.00264688 0 0)
(0.288054 0.0321048 0 0.00373943 0 0)
(0.299537 0.0494001 0 0.00836827 0 0)
(0.322534 0.065892 0 0.0137827 0 0)
(0.346543 0.098042 0 0.0281039 0 0)
(0.386564 0.136142 0 0.0484967 0 0)
(0.422271 0.194117 0 0.0898595 0 0)
(0.43622 0.252573 0 0.148221 0 0)
(0.0802021 -8.28285e-05 0 2.76999e-05 0 0)
(0.0127618 -0.00043718 0 9.28258e-05 0 0)
(0.00305283 -2.16124e-05 0 9.83152e-05 0 0)
(0.00186935 -9.35623e-05 0 0.000144586 0 0)
(0.00502584 -0.000294923 0 0.000126523 0 0)
(0.0119606 -0.000841528 0 0.000203242 0 0)
(0.0218894 -0.00100352 0 0.000125162 0 0)
(0.033536 -0.00164726 0 0.000202991 0 0)
(0.047013 -0.00119138 0 0.000117571 0 0)
(0.0604557 -0.0020789 0 0.000181963 0 0)
(0.0745211 -0.000882543 0 0.000131021 0 0)
(0.0862452 -0.00230227 0 0.000196389 0 0)
(0.0983887 -0.000650331 0 0.000106886 0 0)
(0.107883 -0.00226982 0 0.000194693 0 0)
(0.118161 -0.000645566 0 0.000132652 0 0)
(0.126853 -0.00220047 0 0.000194869 0 0)
(0.136768 -0.000624863 0 0.000136022 0 0)
(0.145969 -0.00227314 0 0.000186137 0 0)
(0.15668 -0.000350851 0 0.00012156 0 0)
(0.165436 -0.00195678 0 0.000168005 0 0)
(0.1761 -0.000149838 0 0.000131861 0 0)
(0.18507 -0.00154104 0 0.000169833 0 0)
(0.194019 -0.000254866 0 0.000163063 0 0)
(0.202601 -0.00116244 0 0.00017196 0 0)
(0.211349 0.000218503 0 0.000153054 0 0)
(0.219887 0.000231459 0 0.000165265 0 0)
(0.228689 0.00155352 0 0.000174986 0 0)
(0.237704 0.00304544 0 0.000238841 0 0)
(0.246338 0.00405391 0 0.000216684 0 0)
(0.255705 0.00779591 0 0.000492418 0 0)
(0.262627 0.00960855 0 0.000527467 0 0)
(0.273425 0.0167699 0 0.0012816 0 0)
(0.283452 0.0208013 0 0.00176288 0 0)
(0.298367 0.033252 0 0.0039362 0 0)
(0.314041 0.0418018 0 0.00590609 0 0)
(0.342353 0.0637097 0 0.0121413 0 0)
(0.375056 0.0815099 0 0.0183695 0 0)
(0.42537 0.122705 0 0.0358596 0 0)
(0.476767 0.163881 0 0.0569874 0 0)
(0.48934 0.244046 0 0.122622 0 0)
(0.0801923 -0.00047169 0 6.64098e-05 0 0)
(0.0128132 -0.00118746 0 0.000268673 0 0)
(0.00301524 -0.000239897 0 0.000337422 0 0)
(0.00183896 -0.000270645 0 0.000759084 0 0)
(0.00521411 -0.000975139 0 0.000692098 0 0)
(0.0125675 -0.00250397 0 0.00117779 0 0)
(0.0230323 -0.00326995 0 0.000714513 0 0)
(0.0351631 -0.00490073 0 0.00112607 0 0)
(0.0490135 -0.00390197 0 0.000530909 0 0)
(0.0627612 -0.00600015 0 0.00101204 0 0)
(0.0769998 -0.00303942 0 0.000480459 0 0)
(0.0888747 -0.00668269 0 0.00106852 0 0)
(0.101381 -0.00196808 0 0.000443942 0 0)
(0.110827 -0.00729856 0 0.00117041 0 0)
(0.121609 -0.00111162 0 0.000305343 0 0)
(0.130148 -0.007788 0 0.0012732 0 0)
(0.140524 -9.70808e-05 0 0.000301695 0 0)
(0.1495 -0.00859475 0 0.00129622 0 0)
(0.16086 0.00148153 0 0.00037566 0 0)
(0.169201 -0.00969838 0 0.00132085 0 0)
(0.180749 0.00316536 0 0.000363815 0 0)
(0.189009 -0.0108805 0 0.00145631 0 0)
(0.199101 0.00454293 0 0.000398205 0 0)
(0.206975 -0.0119871 0 0.00145271 0 0)
(0.21717 0.0066873 0 0.000480704 0 0)
(0.22483 -0.0122806 0 0.00122507 0 0)
(0.235464 0.00978425 0 0.000701966 0 0)
(0.243377 -0.0114017 0 0.00101188 0 0)
(0.254307 0.0140353 0 0.00100286 0 0)
(0.262894 -0.0085438 0 0.000674259 0 0)
(0.272855 0.0208111 0 0.0018544 0 0)
(0.283307 -0.00139185 0 0.000386638 0 0)
(0.297183 0.0329905 0 0.0038552 0 0)
(0.312489 0.0122418 0 0.000984528 0 0)
(0.333194 0.0536658 0 0.00879172 0 0)
(0.36243 0.036624 0 0.00446176 0 0)
(0.40238 0.087328 0 0.019291 0 0)
(0.461111 0.0749614 0 0.0135362 0 0)
(0.542268 0.141009 0 0.0375082 0 0)
(0.594164 0.148513 0 0.0384519 0 0)
(0.0801111 -0.000991836 0 3.94615e-05 0 0)
(0.0129921 -0.00179727 0 0.000322513 0 0)
(0.00293595 -0.000548123 0 0.000708583 0 0)
(0.00184598 -0.000492578 0 0.0014963 0 0)
(0.00562948 -0.00188866 0 0.00180726 0 0)
(0.0139489 -0.00434332 0 0.00241648 0 0)
(0.0253543 -0.00613342 0 0.00194428 0 0)
(0.0387639 -0.00803466 0 0.00212823 0 0)
(0.0529124 -0.00779152 0 0.00135946 0 0)
(0.0679049 -0.00913431 0 0.00159736 0 0)
(0.0816793 -0.00715778 0 0.000952568 0 0)
(0.0950668 -0.00929797 0 0.00142728 0 0)
(0.106765 -0.00607758 0 0.000718843 0 0)
(0.117942 -0.00935154 0 0.00139575 0 0)
(0.127698 -0.00519587 0 0.000447005 0 0)
(0.138072 -0.00939656 0 0.00132357 0 0)
(0.147056 -0.00423391 0 0.000327098 0 0)
(0.158271 -0.00964091 0 0.00127243 0 0)
(0.167762 -0.00274066 0 0.000297032 0 0)
(0.178759 -0.0102595 0 0.00126282 0 0)
(0.188169 -0.00128319 0 0.00020642 0 0)
(0.199183 -0.0111011 0 0.00133156 0 0)
(0.207096 -8.36727e-05 0 0.000144009 0 0)
(0.218058 -0.0116816 0 0.00131682 0 0)
(0.225887 0.0019253 0 0.000170696 0 0)
(0.236882 -0.0116069 0 0.00108279 0 0)
(0.245147 0.00500113 0 0.000262292 0 0)
(0.256473 -0.010648 0 0.000908664 0 0)
(0.26555 0.00940924 0 0.000464303 0 0)
(0.277566 -0.00783402 0 0.000567001 0 0)
(0.286559 0.0162645 0 0.00114054 0 0)
(0.300744 -0.000970794 0 0.000332359 0 0)
(0.314344 0.0284067 0 0.00270527 0 0)
(0.333751 0.0115799 0 0.000821187 0 0)
(0.355309 0.0480343 0 0.00660896 0 0)
(0.388006 0.0324968 0 0.00344116 0 0)
(0.426979 0.0771471 0 0.0142015 0 0)
(0.483014 0.0605985 0 0.00904679 0 0)
(0.556674 0.118074 0 0.0257936 0 0)
(0.722533 0.115246 0 0.0208307 0 0)
(0.0800853 -0.0015229 0 5.36631e-05 0 0)
(0.0130766 -0.00250252 0 0.000531424 0 0)
(0.00282189 -0.000955611 0 0.00145831 0 0)
(0.00182639 -0.000865654 0 0.00282511 0 0)
(0.00641137 -0.00313322 0 0.00378899 0 0)
(0.0162081 -0.00663574 0 0.00434561 0 0)
(0.0293804 -0.00966339 0 0.00407107 0 0)
(0.0443427 -0.0117135 0 0.00362768 0 0)
(0.0597816 -0.0124701 0 0.00299343 0 0)
(0.0757038 -0.0127011 0 0.00255889 0 0)
(0.0902655 -0.0122231 0 0.00217405 0 0)
(0.104342 -0.011948 0 0.00199085 0 0)
(0.116918 -0.0113956 0 0.00174114 0 0)
(0.12849 -0.0109199 0 0.0015192 0 0)
(0.139153 -0.0108382 0 0.00138202 0 0)
(0.149798 -0.00994716 0 0.00109079 0 0)
(0.159471 -0.010328 0 0.00123375 0 0)
(0.171048 -0.00900116 0 0.000922563 0 0)
(0.181006 -0.0097617 0 0.00108238 0 0)
(0.192498 -0.008172 0 0.000776068 0 0)
(0.202478 -0.00972602 0 0.000984405 0 0)
(0.21396 -0.00754157 0 0.000499775 0 0)
(0.222581 -0.0099066 0 0.00095748 0 0)
(0.234035 -0.00640811 0 0.000395789 0 0)
(0.242347 -0.00956849 0 0.000908153 0 0)
(0.254154 -0.00447872 0 0.000245025 0 0)
(0.262724 -0.00839364 0 0.000705768 0 0)
(0.275284 -0.00177717 0 0.000223021 0 0)
(0.28464 -0.00603571 0 0.000407569 0 0)
(0.298354 0.0025215 0 0.000192851 0 0)
(0.308091 -0.00123163 0 0.000288501 0 0)
(0.324702 0.0105842 0 0.000556801 0 0)
(0.339065 0.0085473 0 0.000439047 0 0)
(0.361646 0.0239643 0 0.00178225 0 0)
(0.384023 0.024935 0 0.00196695 0 0)
(0.419744 0.0450799 0 0.00515728 0 0)
(0.46011 0.0501157 0 0.00610453 0 0)
(0.526148 0.0794475 0 0.0125888 0 0)
(0.621487 0.102713 0 0.0179063 0 0)
(0.849414 0.185173 0 0.0409437 0 0)
(0.0798965 -0.00213461 0 0.000102843 0 0)
(0.0134109 -0.00344095 0 0.000985344 0 0)
(0.00261165 -0.00146167 0 0.00276898 0 0)
(0.00196289 -0.00164293 0 0.00506934 0 0)
(0.00769466 -0.00482566 0 0.00664385 0 0)
(0.0199818 -0.009905 0 0.00732367 0 0)
(0.0354331 -0.0138564 0 0.00669468 0 0)
(0.0532171 -0.016823 0 0.00607317 0 0)
(0.0698597 -0.0174503 0 0.00498607 0 0)
(0.0880332 -0.0180186 0 0.00449574 0 0)
(0.102943 -0.0168778 0 0.00373749 0 0)
(0.119125 -0.0168796 0 0.00352706 0 0)
(0.131853 -0.0153675 0 0.00283634 0 0)
(0.14524 -0.0156155 0 0.0026919 0 0)
(0.155913 -0.0141231 0 0.00202061 0 0)
(0.168186 -0.0145952 0 0.00212213 0 0)
(0.1777 -0.0130181 0 0.00165785 0 0)
(0.190776 -0.013598 0 0.00187162 0 0)
(0.200504 -0.01197 0 0.00147215 0 0)
(0.213482 -0.012983 0 0.00166924 0 0)
(0.223376 -0.0113908 0 0.00116459 0 0)
(0.236147 -0.0128506 0 0.00141587 0 0)
(0.244832 -0.0110192 0 0.000908396 0 0)
(0.257299 -0.0122748 0 0.00120256 0 0)
(0.265787 -0.00993081 0 0.000849139 0 0)
(0.278326 -0.0109643 0 0.00106943 0 0)
(0.287344 -0.00814637 0 0.000702936 0 0)
(0.300431 -0.00897756 0 0.000774927 0 0)
(0.310599 -0.00530046 0 0.00048628 0 0)
(0.324691 -0.00550881 0 0.000397515 0 0)
(0.336016 -0.000470216 0 0.000318384 0 0)
(0.353209 0.00159566 0 0.000327365 0 0)
(0.369563 0.00887528 0 0.00044152 0 0)
(0.39294 0.0138409 0 0.000755908 0 0)
(0.417995 0.0251213 0 0.00177787 0 0)
(0.454933 0.0350017 0 0.00307974 0 0)
(0.500418 0.0528999 0 0.00597461 0 0)
(0.570988 0.072076 0 0.00966199 0 0)
(0.678406 0.104818 0 0.0167609 0 0)
(0.908405 0.148555 0 0.0251812 0 0)
(0.0795779 -0.00283479 0 0.000189447 0 0)
(0.0144198 -0.00458262 0 0.00170172 0 0)
(0.00250809 -0.00209883 0 0.00495391 0 0)
(0.0028744 -0.00318596 0 0.00839505 0 0)
(0.0100511 -0.00718971 0 0.0109558 0 0)
(0.0268882 -0.0148078 0 0.0111231 0 0)
(0.044093 -0.0192479 0 0.0105319 0 0)
(0.0680318 -0.023327 0 0.00893994 0 0)
(0.0830967 -0.023821 0 0.00810184 0 0)
(0.108113 -0.0240464 0 0.00672156 0 0)
(0.1183 -0.0230046 0 0.00638244 0 0)
(0.142609 -0.0218466 0 0.00512806 0 0)
(0.147919 -0.0208667 0 0.00490234 0 0)
(0.170365 -0.0197964 0 0.00368195 0 0)
(0.171481 -0.0190775 0 0.0036788 0 0)
(0.193543 -0.018001 0 0.00279215 0 0)
(0.191786 -0.0175984 0 0.00312131 0 0)
(0.215264 -0.016125 0 0.002442 0 0)
(0.211884 -0.0163752 0 0.00279061 0 0)
(0.236176 -0.0148047 0 0.00213151 0 0)
(0.231124 -0.0156477 0 0.00237291 0 0)
(0.25585 -0.0142005 0 0.00163259 0 0)
(0.248234 -0.015113 0 0.001955 0 0)
(0.272855 -0.0131514 0 0.00134084 0 0)
(0.264043 -0.0140552 0 0.00182513 0 0)
(0.288468 -0.0113829 0 0.00123642 0 0)
(0.279614 -0.0123561 0 0.00153069 0 0)
(0.303947 -0.00908406 0 0.000977743 0 0)
(0.296166 -0.00981027 0 0.00109271 0 0)
(0.320309 -0.0058767 0 0.000529378 0 0)
(0.314915 -0.00577764 0 0.000688141 0 0)
(0.340547 0.000249987 0 0.000331718 0 0)
(0.341353 0.00183364 0 0.000451485 0 0)
(0.371126 0.0107939 0 0.00054229 0 0)
(0.382814 0.016126 0 0.00103753 0 0)
(0.423314 0.0308825 0 0.00250281 0 0)
(0.457161 0.0428727 0 0.00440207 0 0)
(0.527208 0.0655832 0 0.00844257 0 0)
(0.622365 0.08394 0 0.0118718 0 0)
(0.84376 0.107408 0 0.0147151 0 0)
(0.0794461 -0.00370529 0 0.000284401 0 0)
(0.0152464 -0.00626896 0 0.00286848 0 0)
(0.00264345 -0.00325702 0 0.00834659 0 0)
(0.0044353 -0.00592824 0 0.0138876 0 0)
(0.0141862 -0.0111267 0 0.0173531 0 0)
(0.0371933 -0.0222677 0 0.017406 0 0)
(0.055299 -0.0264692 0 0.0161512 0 0)
(0.0848329 -0.0322692 0 0.0139336 0 0)
(0.0928307 -0.0304436 0 0.0126576 0 0)
(0.121856 -0.0309039 0 0.0105159 0 0)
(0.118221 -0.0268535 0 0.00975236 0 0)
(0.146186 -0.0261262 0 0.00753846 0 0)
(0.132423 -0.0222771 0 0.00713655 0 0)
(0.158627 -0.0221528 0 0.00513362 0 0)
(0.137258 -0.0186373 0 0.00540021 0 0)
(0.163432 -0.0184424 0 0.00382362 0 0)
(0.137274 -0.0154971 0 0.00457242 0 0)
(0.164766 -0.0148238 0 0.00308633 0 0)
(0.135631 -0.0129615 0 0.00403674 0 0)
(0.163742 -0.011992 0 0.00241478 0 0)
(0.132432 -0.0111274 0 0.00342898 0 0)
(0.160485 -0.00986425 0 0.00176216 0 0)
(0.127641 -0.00974584 0 0.00288727 0 0)
(0.155331 -0.00758831 0 0.0013725 0 0)
(0.122587 -0.00828165 0 0.00255699 0 0)
(0.149494 -0.00502614 0 0.00123752 0 0)
(0.118145 -0.0069053 0 0.00210391 0 0)
(0.144291 -0.00246323 0 0.000964582 0 0)
(0.115345 -0.00561991 0 0.00149384 0 0)
(0.140754 9.32889e-05 0 0.000633677 0 0)
(0.115365 -0.00405514 0 0.000941051 0 0)
(0.141002 0.00358058 0 0.000460683 0 0)
(0.120737 -0.00155774 0 0.000447817 0 0)
(0.148602 0.00899306 0 0.000751715 0 0)
(0.135909 0.00355564 0 0.000303056 0 0)
(0.17064 0.0195463 0 0.00257299 0 0)
(0.171306 0.0158501 0 0.00194378 0 0)
(0.223655 0.0433825 0 0.00924543 0 0)
(0.259294 0.0460338 0 0.00906878 0 0)
(0.395531 0.0889973 0 0.0207858 0 0)
(0.0795717 -0.00481792 0 0.000443871 0 0)
(0.0145547 -0.00819644 0 0.00482078 0 0)
(0.00289094 -0.00556636 0 0.0135568 0 0)
(0.00527096 -0.00872663 0 0.02203 0 0)
(0.0170204 -0.0156626 0 0.0263872 0 0)
(0.0343346 -0.0252808 0 0.0262244 0 0)
(0.0421703 -0.0268875 0 0.02393 0 0)
(0.0480028 -0.0273401 0 0.0208154 0 0)
(0.0403288 -0.0200241 0 0.0177613 0 0)
(0.0394449 -0.0160849 0 0.0141736 0 0)
(0.0285777 -0.00799844 0 0.0113746 0 0)
(0.0269666 -0.0060772 0 0.00841403 0 0)
(0.0211321 0.000208481 0 0.00683766 0 0)
(0.0200374 0.000143952 0 0.00506808 0 0)
(0.0253503 0.00562145 0 0.00453266 0 0)
(0.0240184 0.00437065 0 0.00346302 0 0)
(0.0436308 0.00918692 0 0.00334349 0 0)
(0.0391084 0.00682844 0 0.0024905 0 0)
(0.0732708 0.0113243 0 0.00258204 0 0)
(0.0632365 0.00808389 0 0.00179143 0 0)
(0.111062 0.0126743 0 0.00198102 0 0)
(0.0945023 0.0087497 0 0.00125729 0 0)
(0.155351 0.0134817 0 0.00152902 0 0)
(0.132167 0.00891044 0 0.000933798 0 0)
(0.203398 0.0134513 0 0.00121511 0 0)
(0.174193 0.00827185 0 0.000745038 0 0)
(0.251071 0.0124494 0 0.000898307 0 0)
(0.217788 0.0068375 0 0.000508156 0 0)
(0.295134 0.010577 0 0.000559858 0 0)
(0.259319 0.00493648 0 0.0002941 0 0)
(0.333819 0.00779435 0 0.000299345 0 0)
(0.294822 0.00155209 0 0.000164286 0 0)
(0.360627 0.00275449 0 0.000126211 0 0)
(0.317454 -0.00390592 0 0.000327697 0 0)
(0.366901 -0.0049731 0 0.000236052 0 0)
(0.317154 -0.0118529 0 0.00132708 0 0)
(0.33925 -0.0141694 0 0.00137107 0 0)
(0.282481 -0.0173696 0 0.00446636 0 0)
(0.27214 -0.0142093 0 0.00450727 0 0)
(0.227963 -0.00589021 0 0.0079421 0 0)
(0.0800104 -0.00661707 0 0.000870376 0 0)
(0.0143893 -0.0101862 0 0.00745593 0 0)
(0.00119549 -0.0036142 0 0.0182006 0 0)
(0.00246557 0.00429203 0 0.0264913 0 0)
(0.00935508 0.012221 0 0.029032 0 0)
(0.0196731 0.0211309 0 0.0271108 0 0)
(0.0477586 0.0329063 0 0.0233578 0 0)
(0.0967165 0.0416667 0 0.0186731 0 0)
(0.180774 0.047733 0 0.0141585 0 0)
(0.27216 0.0459182 0 0.00972795 0 0)
(0.396299 0.0430774 0 0.00648862 0 0)
(0.499536 0.0357649 0 0.00395404 0 0)
(0.641352 0.0318065 0 0.00255192 0 0)
(0.735679 0.0250101 0 0.00149365 0 0)
(0.883337 0.0227922 0 0.00106011 0 0)
(0.955431 0.0170561 0 0.00061748 0 0)
(1.10389 0.0166194 0 0.000526502 0 0)
(1.14632 0.0119907 0 0.000325396 0 0)
(1.2955 0.0133823 0 0.000329545 0 0)
(1.30895 0.00944715 0 0.000206199 0 0)
(1.45923 0.0123491 0 0.00024009 0 0)
(1.44937 0.00818476 0 0.000134285 0 0)
(1.6007 0.0120552 0 0.000175926 0 0)
(1.57307 0.00684747 0 9.02267e-05 0 0)
(1.72066 0.0111037 0 0.000130447 0 0)
(1.68062 0.00487721 0 7.68641e-05 0 0)