/*--------------------------------*- C++ -*----------------------------------*\
| =========                 |                                                 |
| \\      /  F ield         | OpenFOAM: The Open Source CFD Toolbox           |
|  \\    /   O peration     | Version:  2.4.0                                 |
|   \\  /    A nd           | Web:      www.OpenFOAM.org                      |
|    \\/     M anipulation  |                                                 |
\*---------------------------------------------------------------------------*/
FoamFile
{
    version     2.0;
    format      ascii;
    class       volVectorField;
    location    "0.127";
    object      U;
}
// * * * * * * * * * * * * * * * * * * * * * * * * * * * * * * * * * * * * * //

dimensions      [0 1 -1 0 0 0 0];

internalField   nonuniform List<vector> 
17600
(
(5.3304 0.30922 0)
(2.98479 0.0607848 0)
(2.19594 -0.0014845 0)
(1.84421 -0.00392523 0)
(1.71397 -0.00113509 0)
(1.59867 0.000149541 0)
(1.55335 -0.000530758 0)
(1.46996 3.61916e-05 0)
(1.44287 0.000674073 0)
(1.40128 -0.00135095 0)
(1.37882 0.000890971 0)
(1.36408 -0.000498116 0)
(1.32191 0.000758165 0)
(1.35232 -0.00178533 0)
(1.28657 0.00203428 0)
(1.3379 -0.00163627 0)
(1.30102 -0.000245669 0)
(1.33609 0.000531622 0)
(1.38915 0.00112547 0)
(1.41436 -0.00479743 0)
(8.60816 0.871455 0)
(6.94118 0.384467 0)
(5.81948 0.12205 0)
(5.04385 0.0495698 0)
(4.67174 0.0293695 0)
(4.34475 0.0207296 0)
(4.22294 0.0144061 0)
(3.98288 0.01359 0)
(3.91903 0.0104508 0)
(3.7988 0.00446601 0)
(3.71603 0.00773537 0)
(3.69052 0.00465012 0)
(3.56418 0.00475541 0)
(3.64596 -0.000895192 0)
(3.44645 0.00804304 0)
(3.61159 -0.00645113 0)
(3.46638 0.00233665 0)
(3.55214 -0.0115176 0)
(3.68641 -0.00275862 0)
(3.7066 0.0501048 0)
(9.87471 1.02093 0)
(9.32452 0.579045 0)
(8.4966 0.241866 0)
(7.61638 0.127607 0)
(7.12666 0.0843132 0)
(6.64221 0.0571998 0)
(6.47418 0.041461 0)
(6.11161 0.0375506 0)
(6.01711 0.0263073 0)
(5.84432 0.0179309 0)
(5.69198 0.018923 0)
(5.67692 0.0144731 0)
(5.46162 0.011348 0)
(5.60115 0.0039758 0)
(5.26905 0.0165109 0)
(5.54689 -0.0120933 0)
(5.27876 0.0099496 0)
(5.43276 -0.0266865 0)
(5.54438 -0.0163171 0)
(5.55332 0.0406515 0)
(10.1935 0.946408 0)
(10.5309 0.671321 0)
(10.2972 0.331002 0)
(9.59981 0.206256 0)
(9.17648 0.15207 0)
(8.61398 0.105507 0)
(8.45141 0.0780009 0)
(8.00973 0.0709776 0)
(7.88696 0.0468103 0)
(7.69731 0.0384537 0)
(7.47065 0.0337924 0)
(7.48615 0.0288402 0)
(7.1801 0.0201269 0)
(7.38277 0.0130281 0)
(6.92665 0.0267259 0)
(7.30938 -0.0168271 0)
(6.91291 0.0199577 0)
(7.1619 -0.0410029 0)
(7.16999 -0.0278479 0)
(7.16465 -0.0228069 0)
(10.1312 0.803792 0)
(10.8619 0.674055 0)
(11.1896 0.357315 0)
(10.8279 0.251094 0)
(10.663 0.209499 0)
(10.1457 0.154483 0)
(10.0576 0.116574 0)
(9.61647 0.110131 0)
(9.47404 0.0693885 0)
(9.31525 0.0635723 0)
(9.02375 0.0515434 0)
(9.08552 0.0459907 0)
(8.70637 0.0307078 0)
(8.96536 0.0251056 0)
(8.42137 0.0384967 0)
(8.87244 -0.0198802 0)
(8.38967 0.0311836 0)
(8.70361 -0.052538 0)
(8.60695 -0.0315351 0)
(8.66369 -0.117026 0)
(10.0777 0.688699 0)
(10.7687 0.642504 0)
(11.3944 0.333781 0)
(11.2675 0.245293 0)
(11.4405 0.231908 0)
(11.0848 0.186556 0)
(11.1433 0.144123 0)
(10.8169 0.147355 0)
(10.686 0.0898918 0)
(10.6086 0.0888551 0)
(10.292 0.0705948 0)
(10.4055 0.0636667 0)
(9.99919 0.0423757 0)
(10.2879 0.0379304 0)
(9.7324 0.0520436 0)
(10.1782 -0.0224604 0)
(9.70613 0.0432349 0)
(9.99342 -0.0599963 0)
(9.87526 -0.0369443 0)
(9.9661 -0.18174 0)
(10.1045 0.597838 0)
(10.6044 0.612551 0)
(11.3469 0.302906 0)
(11.2362 0.213143 0)
(11.6266 0.217152 0)
(11.4231 0.192224 0)
(11.6064 0.146998 0)
(11.4882 0.169633 0)
(11.4118 0.0997585 0)
(11.4558 0.106053 0)
(11.1872 0.0863254 0)
(11.3561 0.0775051 0)
(10.9979 0.0540127 0)
(11.2724 0.0478133 0)
(10.8112 0.0671935 0)
(11.1741 -0.0259554 0)
(10.8139 0.0540987 0)
(10.9902 -0.0607817 0)
(10.9677 -0.0508457 0)
(10.9742 -0.176373 0)
(10.1658 0.517202 0)
(10.4738 0.580998 0)
(11.2633 0.283631 0)
(11.1102 0.187174 0)
(11.5496 0.188063 0)
(11.4659 0.186508 0)
(11.6198 0.131905 0)
(11.6794 0.173353 0)
(11.6628 0.0954847 0)
(11.7932 0.108371 0)
(11.6342 0.0923138 0)
(11.8362 0.080066 0)
(11.6227 0.0616946 0)
(11.837 0.0499211 0)
(11.5636 0.0792053 0)
(11.82 -0.0301019 0)
(11.6149 0.05963 0)
(11.6873 -0.0556388 0)
(11.7647 -0.0818854 0)
(11.7414 -0.110294 0)
(10.2032 0.442167 0)
(10.412 0.543538 0)
(11.1745 0.269119 0)
(11.0392 0.169746 0)
(11.3812 0.151251 0)
(11.4567 0.18019 0)
(11.5243 0.114769 0)
(11.6452 0.167591 0)
(11.6911 0.0851619 0)
(11.809 0.101691 0)
(11.7477 0.0899842 0)
(11.898 0.0704465 0)
(11.8701 0.0625846 0)
(11.9826 0.0430905 0)
(11.9127 0.0816609 0)
(12.0928 -0.0378654 0)
(12.0077 0.0583859 0)
(12.0825 -0.054347 0)
(12.1526 -0.109074 0)
(12.1788 -0.12492 0)
(10.1516 0.374037 0)
(10.409 0.500286 0)
(11.0848 0.258534 0)
(11.0543 0.160607 0)
(11.2057 0.116047 0)
(11.4206 0.165055 0)
(11.4548 0.101596 0)
(11.55 0.153993 0)
(11.657 0.0747298 0)
(11.7636 0.0936427 0)
(11.7468 0.0896412 0)
(11.823 0.054927 0)
(11.9154 0.0618426 0)
(11.9308 0.0316007 0)
(11.99 0.077085 0)
(12.0962 -0.0485845 0)
(12.0575 0.0496981 0)
(12.2043 -0.0653003 0)
(12.2187 -0.1173 0)
(12.2669 -0.225632 0)
(10.0407 0.311765 0)
(10.398 0.452968 0)
(11.0161 0.245846 0)
(11.0763 0.16036 0)
(11.1411 0.0882966 0)
(11.3857 0.146122 0)
(11.3926 0.0892911 0)
(11.448 0.144238 0)
(11.5715 0.0581384 0)
(11.7122 0.0833297 0)
(11.7213 0.0905359 0)
(11.7928 0.039695 0)
(11.9066 0.060382 0)
(11.8888 0.0205731 0)
(11.9917 0.0714861 0)
(12.0097 -0.051671 0)
(12.0404 0.0338604 0)
(12.1813 -0.0789359 0)
(12.1794 -0.1383 0)
(12.178 -0.280896 0)
(9.94565 0.263877 0)
(10.4041 0.396112 0)
(10.9491 0.230483 0)
(11.0513 0.156504 0)
(11.1406 0.0659042 0)
(11.3373 0.127271 0)
(11.3348 0.0863943 0)
(11.3972 0.129846 0)
(11.5195 0.045286 0)
(11.6461 0.0645704 0)
(11.6856 0.0899089 0)
(11.7764 0.0235409 0)
(11.8447 0.0605077 0)
(11.8487 0.00964945 0)
(11.9262 0.0681305 0)
(11.9537 -0.0558971 0)
(12.0579 0.0106727 0)
(12.1384 -0.082872 0)
(12.1156 -0.155726 0)
(12.0947 -0.304917 0)
(9.92855 0.220176 0)
(10.4395 0.33646 0)
(10.834 0.215175 0)
(10.9843 0.151402 0)
(11.1303 0.0458878 0)
(11.2494 0.111631 0)
(11.314 0.0766962 0)
(11.4217 0.114972 0)
(11.4953 0.0323222 0)
(11.5763 0.0520902 0)
(11.638 0.0829565 0)
(11.7195 0.0156607 0)
(11.7375 0.0575251 0)
(11.7901 0.00670884 0)
(11.8512 0.0605206 0)
(11.9444 -0.065475 0)
(12.0458 -0.0127876 0)
(12.0814 -0.0845899 0)
(12.0729 -0.173961 0)
(12.016 -0.325875 0)
(9.98056 0.175314 0)
(10.3931 0.287752 0)
(10.6925 0.199918 0)
(10.9528 0.142312 0)
(11.1311 0.0321074 0)
(11.1748 0.0918551 0)
(11.3423 0.0624862 0)
(11.4217 0.0952647 0)
(11.4246 0.0363112 0)
(11.5068 0.0335329 0)
(11.5761 0.0850915 0)
(11.6311 0.00172131 0)
(11.6751 0.0622841 0)
(11.7519 -0.0116617 0)
(11.8244 0.0544703 0)
(11.9415 -0.076507 0)
(11.9781 -0.0300906 0)
(12.0035 -0.083473 0)
(12.0461 -0.180357 0)
(11.9544 -0.353437 0)
(10.016 0.136543 0)
(10.2692 0.249137 0)
(10.6296 0.172019 0)
(10.9831 0.126736 0)
(11.1234 0.0236655 0)
(11.1438 0.0725741 0)
(11.3532 0.0448141 0)
(11.3449 0.0899734 0)
(11.3518 0.0324523 0)
(11.4737 0.0234774 0)
(11.514 0.0733139 0)
(11.5933 0.00419706 0)
(11.6698 0.0381862 0)
(11.7403 -0.00765959 0)
(11.8136 0.0228747 0)
(11.8922 -0.0680676 0)
(11.9009 -0.0475869 0)
(11.9551 -0.0949163 0)
(11.9946 -0.185616 0)
(11.925 -0.384647 0)
(9.99919 0.10619 0)
(10.2124 0.208398 0)
(10.6636 0.130776 0)
(10.9657 0.112444 0)
(11.0735 0.0214348 0)
(11.1433 0.0487753 0)
(11.3114 0.0366279 0)
(11.2611 0.0784962 0)
(11.3598 0.0300742 0)
(11.4718 0.00366933 0)
(11.4842 0.0766027 0)
(11.6121 -0.0169168 0)
(11.6626 0.0423555 0)
(11.7178 -0.0282262 0)
(11.7673 0.0296057 0)
(11.8297 -0.0923636 0)
(11.8683 -0.046194 0)
(11.9237 -0.12442 0)
(11.9534 -0.174395 0)
(11.9098 -0.432875 0)
(9.9738 0.0804517 0)
(10.2607 0.157439 0)
(10.6585 0.0958427 0)
(10.8757 0.106178 0)
(11.0603 0.0146938 0)
(11.1597 0.0261958 0)
(11.244 0.0307265 0)
(11.2398 0.0621001 0)
(11.3978 0.0190622 0)
(11.4493 -0.00373476 0)
(11.4693 0.0625543 0)
(11.6162 -0.0158957 0)
(11.6195 0.0251022 0)
(11.6936 -0.0179042 0)
(11.712 0.00675 0)
(11.814 -0.0736278 0)
(11.8701 -0.0834969 0)
(11.8712 -0.102389 0)
(11.939 -0.210827 0)
(11.8999 -0.366506 0)
(9.99324 0.0501363 0)
(10.2849 0.111111 0)
(10.5561 0.0711531 0)
(10.8388 0.094246 0)
(11.1115 0.00229745 0)
(11.1459 0.0125307 0)
(11.1978 0.0239658 0)
(11.2612 0.041556 0)
(11.3873 0.0111542 0)
(11.3934 -0.00734074 0)
(11.4555 0.050625 0)
(11.5774 -0.0185826 0)
(11.6057 0.012901 0)
(11.6753 -0.0202705 0)
(11.6941 -0.00787296 0)
(11.8375 -0.0787327 0)
(11.8244 -0.0971111 0)
(11.8184 -0.0963978 0)
(11.958 -0.248589 0)
(11.888 -0.313504 0)
(10.0262 0.0217832 0)
(10.2306 0.0731186 0)
(10.4948 0.0446891 0)
(10.8868 0.0654506 0)
(11.1198 -0.00198954 0)
(11.1023 0.000630486 0)
(11.1894 0.0169053 0)
(11.2671 0.0165259 0)
(11.3452 0.0136741 0)
(11.369 -0.0187477 0)
(11.4566 0.044937 0)
(11.5539 -0.0313029 0)
(11.6324 0.0113367 0)
(11.6415 -0.0323675 0)
(11.7022 -0.0108654 0)
(11.8308 -0.105812 0)
(11.7581 -0.0809581 0)
(11.8236 -0.136213 0)
(11.9636 -0.237095 0)
(11.8089 -0.331967 0)
(10.0227 -0.00414479 0)
(10.1881 0.0370466 0)
(10.5368 0.00583587 0)
(10.92 0.0433194 0)
(11.0662 -0.00357557 0)
(11.082 -0.00854217 0)
(11.1977 0.000201068 0)
(11.262 0.00362476 0)
(11.327 0.00326484 0)
(11.3859 -0.0186486 0)
(11.4707 0.0187547 0)
(11.5562 -0.0202665 0)
(11.6254 -0.0152479 0)
(11.6057 -0.0113001 0)
(11.7268 -0.0494485 0)
(11.7956 -0.0823522 0)
(11.7401 -0.102628 0)
(11.8522 -0.150276 0)
(11.9338 -0.22668 0)
(11.725 -0.35427 0)
(10.0058 -0.0264104 0)
(10.2054 -0.00760547 0)
(10.5795 -0.0304301 0)
(10.8947 0.0251102 0)
(11.024 0.0007088 0)
(11.0983 -0.0284696 0)
(11.2201 -0.00908352 0)
(11.2738 -0.0182602 0)
(11.3225 0.0036196 0)
(11.3996 -0.0364348 0)
(11.4753 0.0180618 0)
(11.5367 -0.0368891 0)
(11.5956 -0.00741008 0)
(11.6172 -0.0380015 0)
(11.7543 -0.0430038 0)
(11.7641 -0.0985431 0)
(11.7666 -0.106464 0)
(11.8591 -0.163775 0)
(11.8672 -0.224226 0)
(11.71 -0.37771 0)
(10.0044 -0.0513418 0)
(10.2384 -0.052724 0)
(10.5808 -0.0621357 0)
(10.8518 0.0128153 0)
(11.021 -0.00496269 0)
(11.139 -0.0461659 0)
(11.2447 -0.0246618 0)
(11.2697 -0.0284238 0)
(11.3198 -0.00726209 0)
(11.4017 -0.0378835 0)
(11.467 -0.000708833 0)
(11.5187 -0.024043 0)
(11.6102 -0.0331731 0)
(11.6571 -0.0340341 0)
(11.7503 -0.0619425 0)
(11.7566 -0.0947247 0)
(11.7868 -0.121768 0)
(11.8386 -0.164061 0)
(11.8273 -0.236744 0)
(11.7634 -0.320783 0)
(10.0116 -0.0794835 0)
(10.2508 -0.0955186 0)
(10.5684 -0.08982 0)
(10.8441 -0.0016458 0)
(11.0539 -0.0151856 0)
(11.1831 -0.0660416 0)
(11.2386 -0.0327651 0)
(11.2523 -0.0412057 0)
(11.3246 -0.0140702 0)
(11.4149 -0.0466673 0)
(11.4685 -0.00889678 0)
(11.5384 -0.0298562 0)
(11.6476 -0.0449164 0)
(11.6677 -0.0395012 0)
(11.7297 -0.0702278 0)
(11.7658 -0.0948319 0)
(11.7847 -0.135778 0)
(11.8228 -0.164092 0)
(11.8464 -0.252835 0)
(11.8237 -0.284278 0)
(10.0172 -0.106822 0)
(10.2542 -0.138896 0)
(10.5729 -0.116672 0)
(10.8727 -0.0203769 0)
(11.1008 -0.0273656 0)
(11.193 -0.0825435 0)
(11.2175 -0.0358807 0)
(11.2561 -0.0571058 0)
(11.3485 -0.0225172 0)
(11.4437 -0.0557231 0)
(11.4891 -0.019772 0)
(11.5637 -0.038583 0)
(11.6582 -0.0516678 0)
(11.6635 -0.0493089 0)
(11.7229 -0.0684086 0)
(11.7833 -0.111387 0)
(11.7969 -0.132842 0)
(11.8382 -0.185008 0)
(11.8661 -0.247476 0)
(11.8249 -0.309535 0)
(10.0181 -0.138751 0)
(10.2652 -0.178755 0)
(10.6017 -0.148073 0)
(10.9149 -0.0375186 0)
(11.1184 -0.0401688 0)
(11.1842 -0.0915394 0)
(11.2217 -0.0465995 0)
(11.2896 -0.0707433 0)
(11.3906 -0.0372849 0)
(11.473 -0.0600549 0)
(11.508 -0.0323027 0)
(11.5683 -0.0378854 0)
(11.6645 -0.0634456 0)
(11.6784 -0.0517996 0)
(11.7397 -0.0758566 0)
(11.81 -0.120746 0)
(11.8297 -0.138016 0)
(11.8569 -0.196609 0)
(11.8645 -0.249089 0)
(11.7964 -0.322754 0)
(10.0163 -0.170915 0)
(10.287 -0.221977 0)
(10.6434 -0.177873 0)
(10.9461 -0.0538472 0)
(11.1235 -0.0489863 0)
(11.1998 -0.105758 0)
(11.259 -0.0566819 0)
(11.333 -0.0887182 0)
(11.42 -0.0468582 0)
(11.4921 -0.0658312 0)
(11.5175 -0.0396211 0)
(11.5818 -0.0435024 0)
(11.7022 -0.0728711 0)
(11.7109 -0.0584402 0)
(11.758 -0.0825911 0)
(11.847 -0.128916 0)
(11.8536 -0.145732 0)
(11.8536 -0.199437 0)
(11.8722 -0.26122 0)
(11.8412 -0.34103 0)
(10.0165 -0.207788 0)
(10.318 -0.264787 0)
(10.683 -0.20575 0)
(10.9789 -0.0684497 0)
(11.1476 -0.06167 0)
(11.2316 -0.119763 0)
(11.3015 -0.0682246 0)
(11.364 -0.102641 0)
(11.4392 -0.0549872 0)
(11.5166 -0.0713332 0)
(11.5446 -0.04851 0)
(11.6262 -0.0521287 0)
(11.7503 -0.0809813 0)
(11.7249 -0.0639523 0)
(11.7844 -0.0874772 0)
(11.8795 -0.138717 0)
(11.8598 -0.147869 0)
(11.8766 -0.205723 0)
(11.9238 -0.280786 0)
(11.8974 -0.353553 0)
(10.0277 -0.249099 0)
(10.3464 -0.308032 0)
(10.7256 -0.228533 0)
(11.0312 -0.0851693 0)
(11.1816 -0.0765279 0)
(11.2638 -0.134139 0)
(11.3418 -0.0792417 0)
(11.3952 -0.114112 0)
(11.4748 -0.0658284 0)
(11.5598 -0.0774374 0)
(11.5879 -0.0586359 0)
(11.6761 -0.0621033 0)
(11.7714 -0.0840854 0)
(11.7416 -0.0701741 0)
(11.8291 -0.0923418 0)
(11.9036 -0.149104 0)
(11.8904 -0.147945 0)
(11.9326 -0.220081 0)
(11.9627 -0.292242 0)
(11.8984 -0.361657 0)
(10.0554 -0.294631 0)
(10.3565 -0.352435 0)
(10.7917 -0.245564 0)
(11.089 -0.1057 0)
(11.2165 -0.0929715 0)
(11.2962 -0.149132 0)
(11.3972 -0.0919799 0)
(11.4326 -0.124461 0)
(11.5273 -0.0776677 0)
(11.6019 -0.0831716 0)
(11.6352 -0.0694898 0)
(11.7068 -0.0677438 0)
(11.7935 -0.0894282 0)
(11.7889 -0.0774442 0)
(11.8771 -0.099433 0)
(11.934 -0.15626 0)
(11.9449 -0.152296 0)
(11.9706 -0.230576 0)
(11.9801 -0.298638 0)
(11.9221 -0.376758 0)
(10.0841 -0.345908 0)
(10.3519 -0.396745 0)
(10.8972 -0.261453 0)
(11.1273 -0.127015 0)
(11.2639 -0.109497 0)
(11.3359 -0.165322 0)
(11.4707 -0.103521 0)
(11.4595 -0.134223 0)
(11.5943 -0.0876958 0)
(11.6306 -0.0903491 0)
(11.6916 -0.0771868 0)
(11.7287 -0.0753376 0)
(11.8561 -0.0944917 0)
(11.8327 -0.08631 0)
(11.9329 -0.103325 0)
(11.9662 -0.16482 0)
(12.0002 -0.153079 0)
(11.9872 -0.240531 0)
(12.0141 -0.300667 0)
(11.9631 -0.409616 0)
(10.0828 -0.401552 0)
(10.3673 -0.442483 0)
(11.0245 -0.279988 0)
(11.1497 -0.144782 0)
(11.3345 -0.131529 0)
(11.386 -0.179803 0)
(11.5396 -0.116054 0)
(11.4861 -0.140026 0)
(11.6732 -0.102024 0)
(11.6498 -0.0928324 0)
(11.7651 -0.0883953 0)
(11.7617 -0.0828944 0)
(11.9343 -0.10147 0)
(11.8573 -0.0926908 0)
(12.0035 -0.110456 0)
(11.9675 -0.169005 0)
(12.0378 -0.155651 0)
(11.9564 -0.244747 0)
(11.9917 -0.301881 0)
(11.8419 -0.43314 0)
(10.042 -0.45983 0)
(10.441 -0.49461 0)
(11.1455 -0.296729 0)
(11.1767 -0.163799 0)
(11.4215 -0.155231 0)
(11.4402 -0.194983 0)
(11.5865 -0.124436 0)
(11.544 -0.148198 0)
(11.7353 -0.114689 0)
(11.6828 -0.0976436 0)
(11.8313 -0.0990957 0)
(11.7871 -0.0917959 0)
(11.9566 -0.106347 0)
(11.8321 -0.0988225 0)
(11.9825 -0.11424 0)
(11.8482 -0.168941 0)
(11.9203 -0.153692 0)
(11.7313 -0.243058 0)
(11.7162 -0.287982 0)
(11.4061 -0.434959 0)
(9.99343 -0.526262 0)
(10.5671 -0.546438 0)
(11.2359 -0.311002 0)
(11.2235 -0.182827 0)
(11.5197 -0.181647 0)
(11.4771 -0.205167 0)
(11.6372 -0.136396 0)
(11.6004 -0.15559 0)
(11.7294 -0.124596 0)
(11.6606 -0.103307 0)
(11.7616 -0.105824 0)
(11.6551 -0.095415 0)
(11.7544 -0.107055 0)
(11.5746 -0.0974181 0)
(11.6597 -0.113334 0)
(11.434 -0.15616 0)
(11.4521 -0.149366 0)
(11.1735 -0.218843 0)
(11.0671 -0.275804 0)
(10.6616 -0.375502 0)
(9.96255 -0.602936 0)
(10.7147 -0.590689 0)
(11.3007 -0.324344 0)
(11.3093 -0.209876 0)
(11.585 -0.207177 0)
(11.4535 -0.211156 0)
(11.5859 -0.147884 0)
(11.4542 -0.155924 0)
(11.4622 -0.124728 0)
(11.3268 -0.102107 0)
(11.3175 -0.100187 0)
(11.1353 -0.0894912 0)
(11.148 -0.0964436 0)
(10.9152 -0.0883085 0)
(10.9339 -0.100325 0)
(10.6469 -0.137448 0)
(10.6191 -0.131324 0)
(10.2789 -0.191179 0)
(10.118 -0.242395 0)
(9.64378 -0.306649 0)
(9.97368 -0.691746 0)
(10.8639 -0.629057 0)
(11.3394 -0.347678 0)
(11.3175 -0.243467 0)
(11.411 -0.222274 0)
(11.1161 -0.203112 0)
(11.1026 -0.143315 0)
(10.8193 -0.138324 0)
(10.7042 -0.108831 0)
(10.4975 -0.0871956 0)
(10.4011 -0.0823526 0)
(10.1799 -0.0737368 0)
(10.1368 -0.0786242 0)
(9.8848 -0.072124 0)
(9.86076 -0.0820011 0)
(9.55326 -0.113183 0)
(9.49117 -0.108135 0)
(9.12742 -0.158723 0)
(8.92987 -0.195249 0)
(8.41239 -0.256225 0)
(10.0611 -0.80577 0)
(10.9335 -0.665691 0)
(11.1398 -0.365573 0)
(10.8635 -0.250962 0)
(10.6436 -0.201612 0)
(10.1699 -0.167292 0)
(10.0101 -0.115474 0)
(9.6385 -0.104709 0)
(9.46314 -0.0820079 0)
(9.23189 -0.0647137 0)
(9.09782 -0.0596675 0)
(8.88026 -0.0548874 0)
(8.80791 -0.0585048 0)
(8.56722 -0.0538978 0)
(8.51771 -0.0618632 0)
(8.21912 -0.0866768 0)
(8.13241 -0.0834665 0)
(7.77671 -0.12043 0)
(7.54936 -0.152783 0)
(7.0479 -0.18493 0)
(10.1505 -0.947884 0)
(10.5807 -0.666302 0)
(10.2583 -0.335528 0)
(9.62478 -0.207264 0)
(9.16399 -0.145888 0)
(8.63068 -0.114411 0)
(8.40695 -0.0774313 0)
(8.03724 -0.0678454 0)
(7.85888 -0.0540299 0)
(7.64011 -0.04181 0)
(7.50673 -0.037917 0)
(7.31755 -0.0364959 0)
(7.23459 -0.0389666 0)
(7.02627 -0.0360942 0)
(6.96474 -0.0417643 0)
(6.69623 -0.060563 0)
(6.59687 -0.0576716 0)
(6.27001 -0.0835864 0)
(6.03968 -0.106632 0)
(5.56202 -0.126358 0)
(9.85091 -1.02228 0)
(9.35449 -0.576118 0)
(8.47081 -0.243942 0)
(7.63111 -0.129019 0)
(7.11966 -0.0799228 0)
(6.65353 -0.0626236 0)
(6.43827 -0.0416044 0)
(6.13383 -0.0356582 0)
(5.98612 -0.029659 0)
(5.80508 -0.0219724 0)
(5.69874 -0.019797 0)
(5.55031 -0.0204125 0)
(5.47309 -0.0218825 0)
(5.30961 -0.020365 0)
(5.2484 -0.0236118 0)
(5.02687 -0.0364028 0)
(4.92701 -0.0335747 0)
(4.65173 -0.0493863 0)
(4.43873 -0.0631194 0)
(4.01866 -0.0775186 0)
(8.59547 -0.872055 0)
(6.95535 -0.382907 0)
(5.80809 -0.122791 0)
(5.04982 -0.0508174 0)
(4.66773 -0.0267227 0)
(4.35301 -0.0233645 0)
(4.19709 -0.0149107 0)
(3.99513 -0.0124923 0)
(3.89623 -0.0114209 0)
(3.77263 -0.0076275 0)
(3.70563 -0.00695351 0)
(3.60733 -0.00815106 0)
(3.54841 -0.00888069 0)
(3.43849 -0.00817207 0)
(3.38977 -0.00935499 0)
(3.23231 -0.0163828 0)
(3.14709 -0.014034 0)
(2.94934 -0.0211714 0)
(2.77819 -0.0272462 0)
(2.47029 -0.0360551 0)
(5.32687 -0.309518 0)
(2.98707 -0.060535 0)
(2.1958 0.00146801 0)
(1.84426 0.00335101 0)
(1.71189 0.00198404 0)
(1.6033 -0.000718479 0)
(1.54165 0.000310648 0)
(1.47153 0.000266043 0)
(1.43531 -0.000506361 0)
(1.38837 0.000254248 0)
(1.36677 6.62486e-05 0)
(1.33067 -0.000391827 0)
(1.30374 -0.000563101 0)
(1.26002 -0.000321557 0)
(1.23891 -0.000100504 0)
(1.17204 -0.00185544 0)
(1.12642 -0.000601218 0)
(1.04348 -0.00144553 0)
(0.960509 -0.00238526 0)
(0.830543 0.000131537 0)
(1.10704 0.480351 0)
(2.98009 -0.314098 0)
(3.16865 -0.532889 0)
(3.25518 -0.670006 0)
(3.18652 -0.476805 0)
(3.34113 -0.395207 0)
(3.24199 -0.264434 0)
(3.26552 0.776731 0)
(4.55762 1.20469 0)
(5.18213 0.944109 0)
(5.81498 0.704998 0)
(7.3207 0.261916 0)
(8.51137 0.13722 0)
(9.12811 0.41219 0)
(10.247 -0.0362278 0)
(10.8279 -0.808691 0)
(11.0003 -0.92773 0)
(11.4223 -1.21073 0)
(12.0546 -2.00999 0)
(12.1517 -2.48983 0)
(12.1075 -2.91264 0)
(12.0094 -3.29089 0)
(12.03 -3.75064 0)
(12.8126 -4.62314 0)
(13.5633 -5.36172 0)
(13.7546 -5.85059 0)
(13.5985 -6.11816 0)
(13.1123 -6.13136 0)
(12.6741 -5.98346 0)
(12.1954 -5.91005 0)
(11.842 -5.59084 0)
(11.4632 -5.26603 0)
(11.0891 -5.00656 0)
(10.7914 -4.56189 0)
(10.2695 -4.18684 0)
(9.9443 -3.65086 0)
(9.50716 -3.42798 0)
(9.03171 -2.98484 0)
(8.59555 -2.32245 0)
(8.33186 -2.32551 0)
(7.858 -2.442 0)
(7.50299 -1.90834 0)
(7.22023 -1.44427 0)
(7.11163 -2.13698 0)
(6.49471 -2.63606 0)
(5.91756 -2.40125 0)
(6.26605 -1.1692 0)
(5.53944 0.874693 0)
(5.48169 2.03876 0)
(6.03369 2.83603 0)
(5.87423 5.04759 0)
(5.97608 7.84379 0)
(6.2006 9.60062 0)
(6.22095 11.0905 0)
(6.31233 11.4089 0)
(6.60587 10.1567 0)
(6.48306 9.05991 0)
(6.39364 7.33154 0)
(6.3208 4.94933 0)
(5.97292 3.28031 0)
(5.72328 2.41206 0)
(5.83865 1.2608 0)
(5.61591 -0.902671 0)
(5.17901 -3.39042 0)
(5.03495 -4.59239 0)
(5.2034 -4.60231 0)
(5.14406 -4.73788 0)
(4.90761 -5.15365 0)
(4.8019 -4.90217 0)
(4.84223 -3.78619 0)
(4.99691 -2.599 0)
(5.06811 -1.91427 0)
(5.06655 -1.89445 0)
(4.99994 -2.58432 0)
(4.76885 -3.7914 0)
(4.29811 -5.49046 0)
(3.76523 -7.63269 0)
(2.87377 -10.3867 0)
(2.07742 -12.4033 0)
(2.59614 -12.185 0)
(2.98622 -11.0427 0)
(3.29962 -10.2102 0)
(3.52312 -9.66314 0)
(4.17114 -8.88511 0)
(4.62641 -7.98464 0)
(5.10543 -6.97805 0)
(5.17955 -6.19457 0)
(5.27561 -5.40905 0)
(5.72359 -4.12508 0)
(6.24733 -2.45953 0)
(6.54946 -0.790317 0)
(6.80353 0.78032 0)
(6.96996 2.24705 0)
(7.32636 3.40127 0)
(7.81712 4.3567 0)
(8.14522 5.50797 0)
(8.27524 6.7203 0)
(8.15725 7.10637 0)
(8.28061 6.61402 0)
(8.21148 5.95755 0)
(8.43313 6.03682 0)
(8.84345 7.04775 0)
(9.35722 7.94843 0)
(9.30292 8.55466 0)
(9.5673 8.50718 0)
(9.37185 8.23994 0)
(9.64123 7.6283 0)
(9.3671 6.73648 0)
(9.75617 5.78407 0)
(9.45514 5.05113 0)
(10.0166 4.35522 0)
(9.17752 4.12664 0)
(9.64426 3.36024 0)
(8.59305 3.18649 0)
(9.19831 2.72232 0)
(8.07942 2.75842 0)
(8.90955 2.34336 0)
(7.33727 2.46515 0)
(8.35761 1.52279 0)
(5.75923 1.52904 0)
(7.51135 0.922786 0)
(5.36769 1.96438 0)
(7.77328 1.54266 0)
(6.09618 2.72696 0)
(8.14494 2.31757 0)
(6.76485 3.50326 0)
(8.20384 2.44912 0)
(6.97453 3.49872 0)
(7.99752 2.7846 0)
(7.80189 3.58794 0)
(8.1912 2.65866 0)
(8.62434 2.89667 0)
(8.6722 1.82963 0)
(9.73207 1.90391 0)
(9.56692 1.04124 0)
(10.7937 0.790602 0)
(9.34172 -0.515467 0)
(11.1065 -0.768207 0)
(9.82686 -1.90092 0)
(11.1124 -2.22672 0)
(9.84928 -3.28936 0)
(10.7465 -3.47017 0)
(9.53564 -4.38551 0)
(9.91848 -3.67583 0)
(9.16345 -4.56271 0)
(9.29808 -3.94062 0)
(8.29775 -4.55763 0)
(8.81518 -4.43784 0)
(7.78436 -5.02844 0)
(7.71912 -4.04338 0)
(7.76212 -3.96532 0)
(7.7121 -4.05897 0)
(7.43757 -4.15745 0)
(7.38688 -3.53128 0)
(7.26458 -3.73676 0)
(7.31023 -3.83471 0)
(7.52307 -3.11768 0)
(7.35465 -2.12134 0)
(7.32938 -1.65738 0)
(7.48626 -1.544 0)
(7.77448 -1.40229 0)
(7.84174 -1.39238 0)
(7.95516 -1.62541 0)
(8.20734 -1.87629 0)
(8.46164 -1.9075 0)
(8.53179 -1.76108 0)
(8.66322 -1.53824 0)
(8.7076 -1.3498 0)
(9.08646 -1.13749 0)
(9.43513 -0.93467 0)
(10.1657 -0.775813 0)
(10.7165 -0.789838 0)
(11.4401 -0.748696 0)
(11.8517 -0.489896 0)
(12.2388 -0.0942771 0)
(12.2643 0.27995 0)
(12.1884 0.674144 0)
(11.9372 1.28046 0)
(11.5725 1.78571 0)
(11.0551 2.23291 0)
(10.4348 2.69465 0)
(9.83777 3.28701 0)
(9.29094 3.98885 0)
(8.69421 4.3724 0)
(8.10087 4.4527 0)
(7.57766 4.43635 0)
(7.03214 4.33886 0)
(6.60069 4.40197 0)
(6.10474 4.4942 0)
(6.10406 5.06066 0)
(4.78068 4.92727 0)
(4.13171 5.12569 0)
(4.07711 5.24825 0)
(3.32519 5.38327 0)
(2.56476 5.06478 0)
(2.76229 5.15066 0)
(1.78395 4.66225 0)
(2.2442 5.33823 0)
(3.55955 5.71244 0)
(1.88608 7.41984 0)
(3.52255 0.0941902 0)
(4.51026 -0.504723 0)
(4.96057 -0.595606 0)
(4.93811 -0.727036 0)
(5.00071 -0.530367 0)
(5.18301 -0.326312 0)
(4.98702 -0.335493 0)
(4.85317 0.42956 0)
(5.952 1.02523 0)
(6.97153 0.870133 0)
(7.3304 0.429361 0)
(7.89527 -0.059154 0)
(8.48644 -0.150549 0)
(8.92113 0.047378 0)
(10.099 -0.417987 0)
(10.4693 -1.01062 0)
(10.6889 -1.17871 0)
(11.255 -1.52713 0)
(11.8065 -2.19516 0)
(11.913 -2.60262 0)
(12.0278 -3.0011 0)
(12.303 -3.40463 0)
(12.8035 -3.95757 0)
(13.7177 -4.89234 0)
(14.1115 -5.52444 0)
(13.9003 -5.83253 0)
(13.4815 -5.9787 0)
(12.9776 -5.92507 0)
(12.6342 -5.81253 0)
(12.2972 -5.73495 0)
(11.9772 -5.44972 0)
(11.7053 -5.10344 0)
(11.2857 -4.82073 0)
(11.02 -4.39241 0)
(10.4916 -4.00588 0)
(10.081 -3.47019 0)
(9.69041 -3.22588 0)
(9.11614 -2.80847 0)
(8.7073 -2.16596 0)
(8.39655 -2.15722 0)
(7.88699 -2.28996 0)
(7.58485 -1.73363 0)
(7.20493 -1.35103 0)
(7.10774 -2.01132 0)
(6.45075 -2.43394 0)
(6.00286 -2.32265 0)
(6.42789 -1.12635 0)
(5.63617 0.95479 0)
(5.86186 2.01174 0)
(6.12282 2.69996 0)
(6.0079 5.09903 0)
(5.97768 7.80243 0)
(6.18957 9.47461 0)
(6.28879 11.056 0)
(6.39848 11.3407 0)
(6.75801 10.1064 0)
(6.56957 9.11145 0)
(6.50015 7.38195 0)
(6.4882 5.04252 0)
(6.14465 3.37126 0)
(5.8434 2.44885 0)
(5.98092 1.30745 0)
(5.81821 -0.764531 0)
(5.43082 -3.26924 0)
(5.2293 -4.59613 0)
(5.41672 -4.61181 0)
(5.45144 -4.65961 0)
(5.16668 -5.06872 0)
(5.03652 -4.91157 0)
(5.06731 -3.85026 0)
(5.26064 -2.64833 0)
(5.35975 -1.92844 0)
(5.36346 -1.86858 0)
(5.31958 -2.50921 0)
(5.07319 -3.64761 0)
(4.59106 -5.27302 0)
(3.99336 -7.34032 0)
(3.13286 -10.0275 0)
(2.06133 -12.3037 0)
(2.48399 -12.3329 0)
(2.84916 -11.183 0)
(3.13679 -10.3373 0)
(3.3008 -9.83591 0)
(3.90405 -9.11689 0)
(4.3134 -8.20074 0)
(4.81833 -7.10186 0)
(4.883 -6.2193 0)
(4.84648 -5.46638 0)
(5.10723 -4.29359 0)
(5.63171 -2.63305 0)
(6.02395 -0.905305 0)
(6.27397 0.681986 0)
(6.39533 2.1159 0)
(6.70924 3.21806 0)
(7.24172 4.22328 0)
(7.56628 5.41442 0)
(7.69036 6.65827 0)
(7.63018 7.05261 0)
(7.86019 6.58857 0)
(7.92841 5.94732 0)
(8.11766 5.93484 0)
(8.45494 6.87833 0)
(9.01784 7.81831 0)
(8.97421 8.5119 0)
(9.2609 8.47504 0)
(9.03558 8.23382 0)
(9.3661 7.62249 0)
(8.95425 6.73051 0)
(9.46621 5.74149 0)
(9.0108 5.04774 0)
(9.80945 4.3271 0)
(8.925 4.24704 0)
(9.66992 3.43636 0)
(8.42166 3.292 0)
(9.34513 2.79198 0)
(8.07784 2.84514 0)
(9.13954 2.45024 0)
(7.46268 2.6035 0)
(8.84927 1.77388 0)
(6.15379 1.78721 0)
(7.80922 0.961178 0)
(5.60935 1.98002 0)
(7.75146 1.40628 0)
(6.21615 2.60192 0)
(8.2755 2.21417 0)
(7.08986 3.45462 0)
(8.43262 2.47826 0)
(7.32039 3.4151 0)
(8.22772 2.73416 0)
(8.04829 3.47333 0)
(8.43859 2.52479 0)
(8.90375 2.74892 0)
(8.97675 1.64377 0)
(9.82455 1.6759 0)
(9.85585 0.809056 0)
(11.3154 0.840177 0)
(9.99663 -0.523555 0)
(11.4618 -0.893377 0)
(10.4561 -1.88562 0)
(11.6115 -2.16085 0)
(10.1116 -3.21129 0)
(11.3633 -3.35187 0)
(9.64915 -4.28496 0)
(10.5299 -3.58564 0)
(9.42693 -4.43994 0)
(9.67638 -3.74688 0)
(8.65206 -4.45551 0)
(9.24642 -4.26045 0)
(8.03468 -4.8738 0)
(8.03784 -3.97286 0)
(8.00917 -4.00724 0)
(8.00402 -3.92843 0)
(7.55026 -4.12915 0)
(7.51294 -3.43214 0)
(7.37655 -3.76228 0)
(7.41168 -3.84999 0)
(7.47615 -3.11854 0)
(7.25636 -2.04069 0)
(7.17776 -1.70502 0)
(7.45355 -1.66517 0)
(7.75605 -1.49059 0)
(7.82287 -1.42356 0)
(7.92931 -1.69019 0)
(8.26351 -1.9823 0)
(8.46883 -1.98531 0)
(8.53874 -1.80367 0)
(8.51912 -1.54712 0)
(8.64271 -1.4325 0)
(8.99075 -1.29956 0)
(9.56585 -1.21451 0)
(10.3743 -1.06577 0)
(11.0974 -1.05398 0)
(11.6842 -0.957943 0)
(12.1168 -0.668202 0)
(12.4619 -0.173946 0)
(12.5374 0.285545 0)
(12.3862 0.762526 0)
(12.1194 1.36951 0)
(11.7479 2.011 0)
(11.1356 2.4527 0)
(10.551 2.94266 0)
(9.94602 3.57709 0)
(9.21525 4.17826 0)
(8.83691 4.6437 0)
(7.99547 4.69643 0)
(7.70098 4.64038 0)
(7.00536 4.56816 0)
(6.58572 4.59762 0)
(5.92601 4.63403 0)
(5.8792 5.23971 0)
(5.28483 5.52017 0)
(4.18549 5.37011 0)
(3.4597 5.59856 0)
(3.52228 5.67593 0)
(1.33159 5.11638 0)
(2.23624 5.32353 0)
(1.37125 4.9762 0)
(1.30453 5.16448 0)
(2.8102 5.43551 0)
(2.97891 7.99458 0)
(5.9165 -0.0917117 0)
(6.23386 -0.605679 0)
(6.63584 -0.687187 0)
(6.8626 -0.712177 0)
(6.55206 -0.663966 0)
(6.78549 -0.368397 0)
(6.87114 -0.26593 0)
(6.57399 0.232975 0)
(7.36261 0.629856 0)
(8.45178 0.50027 0)
(8.95931 0.270222 0)
(9.18861 -0.107512 0)
(9.50067 -0.294547 0)
(9.73396 -0.249805 0)
(10.6851 -0.672846 0)
(10.8747 -1.1252 0)
(11.0936 -1.40426 0)
(11.6596 -1.82445 0)
(12.0073 -2.31187 0)
(12.2279 -2.6523 0)
(12.694 -3.09444 0)
(13.2835 -3.57582 0)
(13.7594 -4.14555 0)
(14.3361 -4.99998 0)
(14.2561 -5.49239 0)
(13.8003 -5.691 0)
(13.3682 -5.80195 0)
(12.9566 -5.70892 0)
(12.718 -5.68174 0)
(12.4727 -5.62232 0)
(12.1254 -5.35247 0)
(11.895 -4.99455 0)
(11.3924 -4.70935 0)
(11.1773 -4.28706 0)
(10.6622 -3.84086 0)
(10.2044 -3.30635 0)
(9.8811 -3.02942 0)
(9.25598 -2.61951 0)
(8.84103 -1.99473 0)
(8.51669 -1.96053 0)
(7.94837 -2.12834 0)
(7.62464 -1.55715 0)
(7.2297 -1.24893 0)
(7.14486 -1.8755 0)
(6.39965 -2.26454 0)
(6.12712 -2.26894 0)
(6.55011 -1.09628 0)
(5.73209 1.00635 0)
(6.18683 1.99737 0)
(6.20209 2.6199 0)
(6.11386 5.16624 0)
(6.00717 7.79693 0)
(6.15887 9.35431 0)
(6.31375 11.0061 0)
(6.45222 11.2415 0)
(6.86222 10.0736 0)
(6.62168 9.1625 0)
(6.61823 7.40714 0)
(6.65751 5.11873 0)
(6.3259 3.47062 0)
(5.96675 2.4891 0)
(6.09796 1.3386 0)
(6.0331 -0.657773 0)
(5.6862 -3.15736 0)
(5.44919 -4.62693 0)
(5.62362 -4.67758 0)
(5.75183 -4.62202 0)
(5.42995 -4.99687 0)
(5.26981 -4.91851 0)
(5.29453 -3.91425 0)
(5.51225 -2.70557 0)
(5.63532 -1.93693 0)
(5.65267 -1.85416 0)
(5.61154 -2.43619 0)
(5.36605 -3.49673 0)
(4.8751 -5.03877 0)
(4.21228 -7.04353 0)
(3.36838 -9.62784 0)
(2.11335 -12.1193 0)
(2.35825 -12.448 0)
(2.71426 -11.3023 0)
(2.97077 -10.4278 0)
(3.05673 -9.97769 0)
(3.58123 -9.32886 0)
(3.94141 -8.40946 0)
(4.48232 -7.21955 0)
(4.5753 -6.21337 0)
(4.46947 -5.46677 0)
(4.55241 -4.43472 0)
(5.03454 -2.82033 0)
(5.52846 -1.02532 0)
(5.81703 0.596255 0)
(5.92888 1.99213 0)
(6.20869 3.02331 0)
(6.7138 4.07689 0)
(6.97972 5.33171 0)
(7.07926 6.5895 0)
(7.10149 6.97333 0)
(7.42917 6.50936 0)
(7.62573 5.90053 0)
(7.81679 5.84521 0)
(8.05869 6.71981 0)
(8.66124 7.68287 0)
(8.61431 8.46061 0)
(8.94606 8.43449 0)
(8.66606 8.23496 0)
(9.11869 7.61939 0)
(8.58 6.74198 0)
(9.19251 5.68818 0)
(8.58897 5.03921 0)
(9.57591 4.26137 0)
(8.60119 4.31043 0)
(9.70895 3.49566 0)
(8.25463 3.38626 0)
(9.41022 2.83513 0)
(7.98938 2.88857 0)
(9.31634 2.53343 0)
(7.58323 2.69246 0)
(9.11446 1.95707 0)
(6.69019 2.03195 0)
(7.98971 1.09759 0)
(5.94942 1.99296 0)
(7.69966 1.35476 0)
(6.36249 2.4436 0)
(8.20269 2.06765 0)
(7.40127 3.34852 0)
(8.55576 2.47233 0)
(7.73925 3.34067 0)
(8.52364 2.68576 0)
(8.3782 3.36424 0)
(8.76457 2.39144 0)
(9.19454 2.60726 0)
(9.40125 1.51639 0)
(9.94559 1.49576 0)
(9.88085 0.501669 0)
(11.4625 0.727988 0)
(10.5488 -0.49921 0)
(11.6098 -1.00598 0)
(10.8989 -1.88289 0)
(11.8704 -2.10081 0)
(10.2838 -3.18626 0)
(11.7752 -3.23289 0)
(9.73832 -4.18592 0)
(11.0604 -3.49618 0)
(9.58968 -4.29363 0)
(10.0209 -3.58479 0)
(8.97876 -4.36943 0)
(9.58139 -4.07019 0)
(8.26978 -4.70217 0)
(8.46897 -3.90082 0)
(8.13404 -4.0199 0)
(8.26795 -3.78082 0)
(7.65457 -4.07283 0)
(7.70591 -3.35861 0)
(7.50848 -3.75571 0)
(7.44131 -3.82121 0)
(7.41932 -3.09365 0)
(7.14541 -1.92123 0)