/*--------------------------------*- C++ -*----------------------------------*\
| =========                 |                                                 |
| \\      /  F ield         | OpenFOAM: The Open Source CFD Toolbox           |
|  \\    /   O peration     | Version:  2.4.0                                 |
|   \\  /    A nd           | Web:      www.OpenFOAM.org                      |
|    \\/     M anipulation  |                                                 |
\*---------------------------------------------------------------------------*/
FoamFile
{
    version     2.0;
    format      ascii;
    class       volSymmTensorField;
    location    "0.127";
    object      UPrime2Mean;
}
// * * * * * * * * * * * * * * * * * * * * * * * * * * * * * * * * * * * * * //

dimensions      [0 2 -2 0 0 0 0];

internalField   nonuniform List<symmTensor> 
17600
(
(0.0309086 -0.00335043 0 0.000505522 0 0)
(0.318267 -0.00128954 0 2.92345e-05 0 0)
(0.413188 -8.6509e-06 0 2.0748e-06 0 0)
(0.458556 -0.000333212 0 1.28279e-06 0 0)
(0.489988 -0.000250397 0 6.37107e-07 0 0)
(0.513783 -0.000108598 0 3.98307e-07 0 0)
(0.529164 -2.29131e-05 0 2.91296e-07 0 0)
(0.543169 -4.25875e-06 0 2.27038e-07 0 0)
(0.550463 2.19869e-05 0 2.58778e-07 0 0)
(0.559893 -6.52111e-06 0 2.8697e-07 0 0)
(0.563328 4.84549e-06 0 3.38679e-07 0 0)
(0.572141 -4.69836e-05 0 4.61912e-07 0 0)
(0.57527 -3.08481e-05 0 5.7398e-07 0 0)
(0.585868 -0.000112304 0 8.32679e-07 0 0)
(0.591742 -0.000115592 0 1.07036e-06 0 0)
(0.610041 -0.000341716 0 2.73026e-06 0 0)
(0.627141 -0.000526915 0 2.74669e-06 0 0)
(0.700301 0.00037666 0 1.81893e-05 0 0)
(0.820659 -0.0232966 0 0.000973034 0 0)
(1.51357 0.118553 0 0.0147574 0 0)
(0.0149565 0.00670459 0 0.00527007 0 0)
(0.13005 -0.0124431 0 0.00125734 0 0)
(0.26231 -0.00700956 0 0.000190598 0 0)
(0.352691 -0.00496553 0 7.66864e-05 0 0)
(0.428413 -0.00404225 0 5.93715e-05 0 0)
(0.504355 -0.00336292 0 5.42398e-05 0 0)
(0.561654 -0.00262049 0 4.2183e-05 0 0)
(0.619584 -0.00205787 0 2.75374e-05 0 0)
(0.651343 -0.00150144 0 1.4665e-05 0 0)
(0.694812 -0.0013404 0 9.92434e-06 0 0)
(0.709298 -0.00111309 0 5.75773e-06 0 0)
(0.749765 -0.00125627 0 6.34856e-06 0 0)
(0.758845 -0.00125153 0 8.98543e-06 0 0)
(0.804085 -0.00140023 0 9.78286e-06 0 0)
(0.814656 -0.0020711 0 1.81643e-05 0 0)
(0.883497 -0.00184726 0 2.30572e-05 0 0)
(0.885453 -0.00586649 0 8.06497e-05 0 0)
(1.16037 -0.00819004 0 0.000158364 0 0)
(1.03337 -0.0260756 0 0.00134683 0 0)
(3.17235 -0.3527 0 0.0649306 0 0)
(0.0530014 0.020107 0 0.0083119 0 0)
(0.0215981 -0.00795391 0 0.00359161 0 0)
(0.0914526 -0.00886803 0 0.000934635 0 0)
(0.15938 -0.00847844 0 0.000460328 0 0)
(0.23073 -0.00828922 0 0.000347536 0 0)
(0.320748 -0.00794797 0 0.000310759 0 0)
(0.396548 -0.00686857 0 0.000254243 0 0)
(0.482436 -0.0057865 0 0.000173353 0 0)
(0.530876 -0.00450779 0 0.00010109 0 0)
(0.602822 -0.00403221 0 6.34352e-05 0 0)
(0.625154 -0.00336629 0 3.26407e-05 0 0)
(0.694921 -0.00376603 0 3.68815e-05 0 0)
(0.706052 -0.00349186 0 3.7351e-05 0 0)
(0.783557 -0.00434139 0 5.29409e-05 0 0)
(0.7938 -0.00505431 0 7.20394e-05 0 0)
(0.898948 -0.00602157 0 0.000102198 0 0)
(0.904873 -0.0134276 0 0.000323291 0 0)
(1.19003 -0.0164473 0 0.000741996 0 0)
(1.20426 -0.0679304 0 0.00660804 0 0)
(2.639 -0.448196 0 0.138409 0 0)
(0.0703809 0.0223235 0 0.00750537 0 0)
(0.00181808 0.00145029 0 0.00560844 0 0)
(0.0120876 -0.00328374 0 0.0020546 0 0)
(0.0296093 -0.00538213 0 0.001222 0 0)
(0.055748 -0.00720273 0 0.000984651 0 0)
(0.109221 -0.00888643 0 0.000886401 0 0)
(0.163321 -0.00885691 0 0.000760431 0 0)
(0.24 -0.00837653 0 0.000538774 0 0)
(0.284283 -0.0068828 0 0.000340168 0 0)
(0.360351 -0.00641333 0 0.000208706 0 0)
(0.381432 -0.00562246 0 0.000118763 0 0)
(0.461045 -0.00573962 0 0.000103718 0 0)
(0.469551 -0.0062539 0 0.000124148 0 0)
(0.55882 -0.00548533 0 0.000130712 0 0)
(0.567335 -0.00976827 0 0.000275201 0 0)
(0.671074 -0.00452034 0 0.000250185 0 0)
(0.708348 -0.0250037 0 0.00133952 0 0)
(0.841946 -0.00980797 0 0.00124722 0 0)
(1.14285 -0.123301 0 0.0219597 0 0)
(1.40963 -0.194474 0 0.0897432 0 0)
(0.0657719 0.0180287 0 0.0052526 0 0)
(0.00648653 0.00566421 0 0.00585201 0 0)
(0.00914783 0.00316227 0 0.00255866 0 0)
(0.00954823 0.00184407 0 0.00187604 0 0)
(0.00624719 0.000158585 0 0.00176741 0 0)
(0.0109219 -0.00321619 0 0.0016877 0 0)
(0.0240236 -0.00489182 0 0.00152328 0 0)
(0.0584578 -0.00657233 0 0.00114476 0 0)
(0.080226 -0.00583515 0 0.000756683 0 0)
(0.130202 -0.00641587 0 0.000495228 0 0)
(0.141872 -0.00540585 0 0.000263877 0 0)
(0.201503 -0.00671385 0 0.00029144 0 0)
(0.209152 -0.00580415 0 0.000214508 0 0)
(0.272385 -0.00833363 0 0.000374981 0 0)
(0.294693 -0.00646554 0 0.000358468 0 0)
(0.349057 -0.0137519 0 0.000768999 0 0)
(0.409977 -0.00815093 0 0.0010695 0 0)
(0.477329 -0.0424719 0 0.00688968 0 0)
(0.637033 -0.0436214 0 0.0106726 0 0)
(0.89688 -0.276816 0 0.239 0 0)
(0.0617498 0.0147154 0 0.00375442 0 0)
(0.00626616 0.00494049 0 0.00520697 0 0)
(0.0143966 0.0045913 0 0.00219244 0 0)
(0.0241473 0.00545753 0 0.0017947 0 0)
(0.0312461 0.00684715 0 0.00207809 0 0)
(0.0219456 0.00484684 0 0.00226385 0 0)
(0.0185542 0.00344299 0 0.00223123 0 0)
(0.0123901 -0.000127944 0 0.00178021 0 0)
(0.0139446 -0.000596331 0 0.00132425 0 0)
(0.0237546 -0.00259596 0 0.00086385 0 0)
(0.0243471 -0.00238199 0 0.00054815 0 0)
(0.0475752 -0.00359677 0 0.000489037 0 0)
(0.0473113 -0.00429298 0 0.000543372 0 0)
(0.0788299 -0.00441968 0 0.000551047 0 0)
(0.0864343 -0.00742768 0 0.00110686 0 0)
(0.119461 -0.00540375 0 0.000936322 0 0)
(0.139246 -0.01631 0 0.00394033 0 0)
(0.191524 -0.0116255 0 0.0034514 0 0)
(0.248377 -0.0650914 0 0.0359969 0 0)
(0.422444 -0.12901 0 0.123163 0 0)
(0.0624944 0.012739 0 0.00280345 0 0)
(0.00583247 0.00360523 0 0.0046319 0 0)
(0.0140302 0.00380071 0 0.00175433 0 0)
(0.0262856 0.00487552 0 0.00131609 0 0)
(0.0454009 0.00797388 0 0.00175924 0 0)
(0.0446342 0.00819678 0 0.00220346 0 0)
(0.0553986 0.00905612 0 0.00242005 0 0)
(0.0415714 0.00599459 0 0.00214996 0 0)
(0.0477917 0.00550464 0 0.00160474 0 0)
(0.0332686 0.00283737 0 0.00126842 0 0)
(0.0376274 0.00286702 0 0.000718131 0 0)
(0.0266494 0.00112972 0 0.000901867 0 0)
(0.0294915 0.000888989 0 0.000589323 0 0)
(0.0229476 -0.00043007 0 0.00110124 0 0)
(0.0275046 -0.00101461 0 0.00101639 0 0)
(0.0256178 -0.00255481 0 0.00214158 0 0)
(0.0291434 -0.0033429 0 0.00248921 0 0)
(0.0408052 -0.00909121 0 0.0115544 0 0)
(0.0598605 -0.0187622 0 0.0182004 0 0)
(0.146912 -0.061836 0 0.165196 0 0)
(0.0657994 0.0111866 0 0.00209257 0 0)
(0.00684742 0.00262808 0 0.00408477 0 0)
(0.0132402 0.0031271 0 0.00155841 0 0)
(0.0240982 0.00377006 0 0.000982627 0 0)
(0.0433524 0.00670564 0 0.0013475 0 0)
(0.0448842 0.00757144 0 0.00184882 0 0)
(0.0637721 0.00954344 0 0.00216235 0 0)
(0.0567215 0.00766814 0 0.00195235 0 0)
(0.0756797 0.00780861 0 0.00171898 0 0)
(0.0654746 0.00576639 0 0.00132363 0 0)
(0.0820058 0.00639447 0 0.000928341 0 0)
(0.0695969 0.00494591 0 0.000955659 0 0)
(0.0803799 0.00552987 0 0.00105137 0 0)
(0.0650131 0.00414257 0 0.00115084 0 0)
(0.071043 0.00473058 0 0.00189202 0 0)
(0.0539887 0.00275213 0 0.00199357 0 0)
(0.052423 0.0051068 0 0.00444128 0 0)
(0.0381362 0.00438116 0 0.00777591 0 0)
(0.037965 0.00457516 0 0.0300242 0 0)
(0.0732934 0.0132435 0 0.17919 0 0)
(0.0689534 0.00978073 0 0.00155376 0 0)
(0.00719123 0.00201028 0 0.00345258 0 0)
(0.0114378 0.00263312 0 0.00146124 0 0)
(0.0211795 0.00303347 0 0.000761497 0 0)
(0.0375717 0.00539375 0 0.00101973 0 0)
(0.03936 0.00643921 0 0.00150386 0 0)
(0.0554308 0.00819506 0 0.00184472 0 0)
(0.0528451 0.00701986 0 0.00188021 0 0)
(0.0717202 0.00708252 0 0.00135088 0 0)
(0.068853 0.0061777 0 0.00132292 0 0)
(0.0905622 0.00606509 0 0.000806839 0 0)
(0.0860042 0.00677492 0 0.00117265 0 0)
(0.107194 0.00567156 0 0.000920877 0 0)
(0.0985248 0.00817641 0 0.00151747 0 0)
(0.115935 0.00569969 0 0.0017676 0 0)
(0.101446 0.00983101 0 0.00278204 0 0)
(0.109728 0.00882636 0 0.00395402 0 0)
(0.0904948 0.0161723 0 0.0111816 0 0)
(0.0924558 0.0265049 0 0.031067 0 0)
(0.109292 0.052349 0 0.135251 0 0)
(0.068072 0.0083695 0 0.00116172 0 0)
(0.00490652 0.00173626 0 0.00287914 0 0)
(0.00809194 0.00216398 0 0.00140668 0 0)
(0.0176617 0.00251285 0 0.000606372 0 0)
(0.0312056 0.00425202 0 0.000796036 0 0)
(0.0350085 0.00561536 0 0.00125222 0 0)
(0.0456963 0.0067939 0 0.0015455 0 0)
(0.0477143 0.00634496 0 0.00149581 0 0)
(0.0598295 0.0057762 0 0.00130437 0 0)
(0.0645654 0.00526179 0 0.00122576 0 0)
(0.0776093 0.00528432 0 0.000844403 0 0)
(0.0847172 0.00573409 0 0.00102948 0 0)
(0.0979098 0.00533193 0 0.00108119 0 0)
(0.104556 0.00718759 0 0.00143944 0 0)
(0.114915 0.0062561 0 0.00195544 0 0)
(0.11974 0.00998219 0 0.00278039 0 0)
(0.123103 0.010246 0 0.00423769 0 0)
(0.123967 0.0237973 0 0.012679 0 0)
(0.12157 0.0311555 0 0.0291327 0 0)
(0.150888 0.0822217 0 0.152781 0 0)
(0.0647976 0.00692033 0 0.000855344 0 0)
(0.00307623 0.00146714 0 0.00237569 0 0)
(0.00631891 0.00159941 0 0.00134907 0 0)
(0.01548 0.00198235 0 0.000517475 0 0)
(0.0262123 0.00316497 0 0.000657689 0 0)
(0.0329622 0.00478776 0 0.00106976 0 0)
(0.0398111 0.00542771 0 0.00133701 0 0)
(0.0448712 0.00553191 0 0.00152518 0 0)
(0.0524261 0.00419516 0 0.00105181 0 0)
(0.06022 0.00468773 0 0.0011553 0 0)
(0.0685139 0.00357252 0 0.000758001 0 0)
(0.0800813 0.00513301 0 0.00108425 0 0)
(0.0881269 0.00363049 0 0.00102734 0 0)
(0.0988471 0.00668213 0 0.00141209 0 0)
(0.105684 0.00498679 0 0.00182715 0 0)
(0.115714 0.00911008 0 0.00254952 0 0)
(0.117499 0.0110767 0 0.00419459 0 0)
(0.123299 0.0214023 0 0.011087 0 0)
(0.12362 0.0365768 0 0.0322151 0 0)
(0.154986 0.0832054 0 0.129157 0 0)
(0.063765 0.00565193 0 0.000639269 0 0)
(0.00343398 0.000931107 0 0.00192887 0 0)
(0.00605675 0.000951696 0 0.00129592 0 0)
(0.0143633 0.00140671 0 0.000444852 0 0)
(0.0241987 0.00222147 0 0.0005722 0 0)
(0.031137 0.00372825 0 0.000931825 0 0)
(0.0362813 0.00432764 0 0.00116601 0 0)
(0.0413962 0.0045316 0 0.00124689 0 0)
(0.0471865 0.00335067 0 0.00100877 0 0)
(0.0549987 0.00353246 0 0.0011086 0 0)
(0.0632475 0.00281725 0 0.000727469 0 0)
(0.0737609 0.00391491 0 0.000945674 0 0)
(0.0810368 0.00299027 0 0.00102483 0 0)
(0.0906673 0.0055672 0 0.00133118 0 0)
(0.0984035 0.00418729 0 0.00162407 0 0)
(0.106605 0.00913509 0 0.0026865 0 0)
(0.10941 0.00997992 0 0.00375246 0 0)
(0.115188 0.0234255 0 0.0121941 0 0)
(0.119982 0.0371013 0 0.0309096 0 0)
(0.151917 0.0814495 0 0.120383 0 0)
(0.0640593 0.00462103 0 0.000485622 0 0)
(0.00356591 0.000419909 0 0.00156496 0 0)
(0.00509681 0.000442027 0 0.00124778 0 0)
(0.0124034 0.00106292 0 0.000420621 0 0)
(0.0221119 0.00164779 0 0.000500908 0 0)
(0.0280262 0.00291323 0 0.000799136 0 0)
(0.0323326 0.00351713 0 0.00102236 0 0)
(0.0366634 0.00384943 0 0.00116203 0 0)
(0.042749 0.00271472 0 0.000816097 0 0)
(0.0503593 0.00303039 0 0.000869544 0 0)
(0.0581841 0.00215071 0 0.000601005 0 0)
(0.0669407 0.0035118 0 0.000840135 0 0)
(0.0741813 0.00268428 0 0.00090324 0 0)
(0.0838026 0.0048554 0 0.00104305 0 0)
(0.0905909 0.00426372 0 0.00136294 0 0)
(0.0985356 0.00774096 0 0.00215233 0 0)
(0.101518 0.0108515 0 0.00357902 0 0)
(0.108635 0.0228255 0 0.0114158 0 0)
(0.115579 0.0373843 0 0.0301011 0 0)
(0.152229 0.0838276 0 0.11166 0 0)
(0.0637586 0.00378626 0 0.000357165 0 0)
(0.00259454 0.000268165 0 0.00121812 0 0)
(0.00401534 0.000212669 0 0.00105141 0 0)
(0.0107169 0.000936434 0 0.000345073 0 0)
(0.0198913 0.0014204 0 0.000380935 0 0)
(0.0256251 0.00253918 0 0.000611872 0 0)
(0.0293125 0.00306549 0 0.000787951 0 0)
(0.0336752 0.003413 0 0.000848803 0 0)
(0.03908 0.00252625 0 0.000577205 0 0)
(0.0464774 0.0026807 0 0.000671266 0 0)
(0.0530619 0.00196102 0 0.000469008 0 0)
(0.0618377 0.00318624 0 0.000641961 0 0)
(0.0686099 0.00255326 0 0.0007057 0 0)
(0.0781904 0.00466135 0 0.000869224 0 0)
(0.083534 0.00405031 0 0.00106777 0 0)
(0.0921986 0.00803612 0 0.00204935 0 0)
(0.0952183 0.0107785 0 0.00326725 0 0)
(0.104392 0.0225973 0 0.011071 0 0)
(0.113346 0.0379336 0 0.0295566 0 0)
(0.152656 0.0838611 0 0.102369 0 0)
(0.0632018 0.00309887 0 0.000247565 0 0)
(0.00185455 0.000405494 0 0.000886393 0 0)
(0.00368856 0.000323782 0 0.000776867 0 0)
(0.00979445 0.000938222 0 0.000275696 0 0)
(0.0179511 0.00127856 0 0.000286211 0 0)
(0.0239856 0.00231316 0 0.000433154 0 0)
(0.0271422 0.0027276 0 0.000580496 0 0)
(0.0314242 0.00298293 0 0.000665429 0 0)
(0.0357285 0.00213351 0 0.000435094 0 0)
(0.0430274 0.00228283 0 0.000478024 0 0)
(0.0490372 0.00166188 0 0.000358975 0 0)
(0.0583386 0.00275212 0 0.000495434 0 0)
(0.0641218 0.00222066 0 0.000559887 0 0)
(0.0737697 0.00385409 0 0.000656918 0 0)
(0.0780421 0.00361337 0 0.000885903 0 0)
(0.0878738 0.00735179 0 0.00175882 0 0)
(0.0907921 0.010142 0 0.00320943 0 0)
(0.102804 0.0219015 0 0.0108235 0 0)
(0.112752 0.0378154 0 0.0287346 0 0)
(0.155946 0.0817827 0 0.0940782 0 0)
(0.0631198 0.00244343 0 0.000169034 0 0)
(0.00149587 0.000384628 0 0.000619562 0 0)
(0.00347995 0.000304737 0 0.000543775 0 0)
(0.00906128 0.000735692 0 0.000235578 0 0)
(0.0167057 0.000906938 0 0.000244898 0 0)
(0.0223503 0.00179668 0 0.000336805 0 0)
(0.0253969 0.00211302 0 0.000448073 0 0)
(0.0292387 0.00226863 0 0.000499997 0 0)
(0.0334705 0.00151332 0 0.000348819 0 0)
(0.0401514 0.00161405 0 0.000407057 0 0)
(0.0464244 0.00114569 0 0.000326156 0 0)
(0.0549952 0.00205502 0 0.00043325 0 0)
(0.0610758 0.00156101 0 0.000509713 0 0)
(0.0698716 0.00291664 0 0.000641724 0 0)
(0.0748719 0.00293894 0 0.000813307 0 0)
(0.0841882 0.00616841 0 0.00181531 0 0)
(0.0888859 0.00944728 0 0.00313937 0 0)
(0.10135 0.0205652 0 0.0109766 0 0)
(0.114175 0.0376138 0 0.0273387 0 0)
(0.159467 0.0791521 0 0.08763 0 0)
(0.0632999 0.0018025 0 0.000132759 0 0)
(0.0011913 0.000129047 0 0.000462244 0 0)
(0.00310781 1.91896e-05 0 0.000432848 0 0)
(0.00830601 0.000366525 0 0.000252771 0 0)
(0.0159481 0.000452495 0 0.000264026 0 0)
(0.020953 0.00109461 0 0.000317361 0 0)
(0.0242259 0.00135889 0 0.000400918 0 0)
(0.0273469 0.00146765 0 0.000428837 0 0)
(0.0320894 0.000922936 0 0.000319471 0 0)
(0.0378698 0.00100678 0 0.000342719 0 0)
(0.0447238 0.000700186 0 0.000303719 0 0)
(0.0520367 0.00136226 0 0.000389969 0 0)
(0.0591544 0.000923095 0 0.000473801 0 0)
(0.0666317 0.00214775 0 0.000578057 0 0)
(0.0729787 0.00227417 0 0.00073809 0 0)
(0.081109 0.00548877 0 0.00163427 0 0)
(0.0880898 0.0085801 0 0.00316159 0 0)
(0.0997947 0.0201508 0 0.0101353 0 0)
(0.116472 0.0362031 0 0.0266337 0 0)
(0.160668 0.0787701 0 0.0782408 0 0)
(0.0634756 0.00122084 0 9.69909e-05 0 0)
(0.00136026 -1.75742e-05 0 0.000321628 0 0)
(0.00341627 -0.000154567 0 0.000308535 0 0)
(0.00827553 0.000184519 0 0.000210545 0 0)
(0.0157139 0.000233046 0 0.000221812 0 0)
(0.0205492 0.000670793 0 0.000250654 0 0)
(0.0237747 0.000826782 0 0.000305138 0 0)
(0.026735 0.000973206 0 0.000313336 0 0)
(0.0312069 0.000580579 0 0.00023118 0 0)
(0.0367882 0.000720247 0 0.000255148 0 0)
(0.0435116 0.000399715 0 0.000245506 0 0)
(0.0507074 0.000944741 0 0.00031699 0 0)
(0.0578456 0.000603145 0 0.000377969 0 0)
(0.0650958 0.00164422 0 0.000489308 0 0)
(0.0714612 0.00195283 0 0.000634409 0 0)
(0.0796574 0.00499022 0 0.00147224 0 0)
(0.087349 0.00833701 0 0.00306438 0 0)
(0.100019 0.0196002 0 0.00947146 0 0)
(0.11913 0.035437 0 0.0257821 0 0)
(0.164099 0.0774821 0 0.0706667 0 0)
(0.0633752 0.000745523 0 6.65726e-05 0 0)
(0.00144053 2.15589e-05 0 0.00018925 0 0)
(0.00361922 -4.13832e-05 0 0.000176951 0 0)
(0.00826932 0.000184407 0 0.00013508 0 0)
(0.0152156 0.000207461 0 0.000154096 0 0)
(0.0202549 0.000445596 0 0.000160766 0 0)
(0.023152 0.000583724 0 0.000190179 0 0)
(0.0263862 0.000640456 0 0.000179949 0 0)
(0.0302995 0.00041934 0 0.000146711 0 0)
(0.0361303 0.000414393 0 0.000162698 0 0)
(0.0422316 0.000262376 0 0.000180548 0 0)
(0.0499005 0.000561188 0 0.000224665 0 0)
(0.0563253 0.000482025 0 0.000272361 0 0)
(0.0641669 0.00115807 0 0.000385996 0 0)
(0.0699269 0.00177171 0 0.000511892 0 0)
(0.0789679 0.00438578 0 0.00137853 0 0)
(0.0864854 0.00834976 0 0.00275489 0 0)
(0.101441 0.0185079 0 0.00931622 0 0)
(0.12156 0.035525 0 0.0232849 0 0)
(0.169226 0.0732902 0 0.0655986 0 0)
(0.0633243 0.000250717 0 4.9398e-05 0 0)
(0.0012449 4.22396e-05 0 0.000123674 0 0)
(0.00333458 5.52497e-05 0 0.000105632 0 0)
(0.00794645 0.000119346 0 0.000100633 0 0)
(0.0148516 7.85037e-05 0 0.000128755 0 0)
(0.0198062 0.000210026 0 0.000125466 0 0)
(0.0225874 0.000216763 0 0.000138234 0 0)
(0.0256947 0.000320008 0 0.000130728 0 0)
(0.0297253 8.78349e-05 0 0.000125066 0 0)
(0.0355502 0.00016601 0 0.000143052 0 0)
(0.0416557 -9.28926e-05 0 0.000161126 0 0)
(0.049029 0.000369151 0 0.000179639 0 0)
(0.0554627 2.1115e-05 0 0.000229098 0 0)
(0.063258 0.000966579 0 0.000314996 0 0)
(0.0694971 0.00104173 0 0.000500334 0 0)
(0.0784942 0.00430369 0 0.00121799 0 0)
(0.0871375 0.00732566 0 0.00270073 0 0)
(0.103186 0.0182398 0 0.00871398 0 0)
(0.125446 0.0341527 0 0.0216108 0 0)
(0.175618 0.069124 0 0.0601645 0 0)
(0.0633778 -0.000241133 0 4.95337e-05 0 0)
(0.0010574 -6.21712e-05 0 0.000126616 0 0)
(0.00308063 -3.97673e-05 0 0.000111889 0 0)
(0.00768245 -9.14651e-05 0 0.000108398 0 0)
(0.0148007 -0.000112954 0 0.000128443 0 0)
(0.0195558 -0.000215991 0 0.000128479 0 0)
(0.0224386 -0.000234793 0 0.00013753 0 0)
(0.0251749 -0.000236767 0 0.000136746 0 0)
(0.0296005 -0.00025591 0 0.000137296 0 0)
(0.0352217 -0.000299145 0 0.000145003 0 0)
(0.0417558 -0.00032144 0 0.000151011 0 0)
(0.0486029 -0.000181849 0 0.000177506 0 0)
(0.0556261 -0.000176443 0 0.000181158 0 0)
(0.0629235 0.000194512 0 0.000328396 0 0)
(0.070092 0.000942141 0 0.000410718 0 0)
(0.0787 0.00329917 0 0.00117659 0 0)
(0.0892385 0.00722558 0 0.00256213 0 0)
(0.105503 0.0166337 0 0.00806035 0 0)
(0.130702 0.0338368 0 0.0206061 0 0)
(0.182578 0.0638343 0 0.0532175 0 0)
(0.0633442 -0.000751548 0 5.74804e-05 0 0)
(0.00108687 -0.000159257 0 0.000172786 0 0)
(0.00312761 -0.000142789 0 0.000155986 0 0)
(0.00776916 -0.000298934 0 0.000129393 0 0)
(0.0149085 -0.000319811 0 0.000142413 0 0)
(0.0197379 -0.00060274 0 0.000150347 0 0)
(0.0225899 -0.000748456 0 0.000175959 0 0)
(0.0253791 -0.000748784 0 0.000181698 0 0)
(0.0297788 -0.000683347 0 0.000182508 0 0)
(0.0355281 -0.000637343 0 0.000163529 0 0)
(0.0420859 -0.000692178 0 0.000168072 0 0)
(0.0491079 -0.00054475 0 0.000167166 0 0)
(0.0562166 -0.000696614 0 0.000197202 0 0)
(0.063684 -0.000188017 0 0.000289852 0 0)
(0.0710203 0.000228176 0 0.000453819 0 0)
(0.0801958 0.0029068 0 0.00106431 0 0)
(0.0916211 0.00610483 0 0.00246855 0 0)
(0.109095 0.0161645 0 0.00752702 0 0)
(0.136403 0.0312514 0 0.0184917 0 0)
(0.189237 0.064974 0 0.0478337 0 0)
(0.0632695 -0.00126549 0 7.28545e-05 0 0)
(0.00113869 -0.000207484 0 0.000254225 0 0)
(0.00324614 -0.000166964 0 0.000221892 0 0)
(0.00809549 -0.00045216 0 0.000143791 0 0)
(0.0152547 -0.000525349 0 0.000156367 0 0)
(0.0201558 -0.000970698 0 0.000184265 0 0)
(0.0230282 -0.00121623 0 0.000229605 0 0)
(0.0261239 -0.00124311 0 0.000245833 0 0)
(0.0304536 -0.00106333 0 0.000236095 0 0)
(0.0363877 -0.000961003 0 0.000194969 0 0)
(0.0428923 -0.00102969 0 0.000193476 0 0)
(0.0502486 -0.000944152 0 0.00018306 0 0)
(0.0572595 -0.00115971 0 0.000225871 0 0)
(0.0651215 -0.00063918 0 0.000278351 0 0)
(0.0726347 -0.000424234 0 0.000528018 0 0)
(0.0826378 0.00234944 0 0.000974387 0 0)
(0.0945578 0.00507012 0 0.00252075 0 0)
(0.11372 0.0153791 0 0.00688721 0 0)
(0.143192 0.0286567 0 0.0172179 0 0)
(0.198199 0.0649045 0 0.0435642 0 0)
(0.0632149 -0.00179926 0 9.71166e-05 0 0)
(0.00114202 -0.000245121 0 0.000376737 0 0)
(0.00328543 -0.00017188 0 0.000308278 0 0)
(0.00849595 -0.000571953 0 0.000152859 0 0)
(0.0158668 -0.000717383 0 0.000165379 0 0)
(0.0207806 -0.00137835 0 0.000229216 0 0)
(0.0239137 -0.0016327 0 0.000284999 0 0)
(0.027173 -0.00177433 0 0.000332715 0 0)
(0.0317226 -0.0013615 0 0.000272122 0 0)
(0.0376041 -0.00138221 0 0.00024254 0 0)
(0.0443916 -0.00124026 0 0.000190677 0 0)
(0.0518491 -0.0015204 0 0.00023197 0 0)
(0.0592038 -0.0013898 0 0.000202694 0 0)
(0.0671143 -0.00145153 0 0.000353172 0 0)
(0.0753067 -0.000630432 0 0.000484901 0 0)
(0.0856447 0.00113685 0 0.00104627 0 0)
(0.0986805 0.00486642 0 0.00232681 0 0)
(0.119059 0.013138 0 0.00633609 0 0)
(0.151024 0.0280005 0 0.0159274 0 0)
(0.206774 0.057807 0 0.03606 0 0)
(0.0630503 -0.00241047 0 0.000140652 0 0)
(0.00102309 -0.000291097 0 0.000548084 0 0)
(0.00313827 -0.00019321 0 0.000454337 0 0)
(0.00884402 -0.000666271 0 0.000164715 0 0)
(0.0165385 -0.000945584 0 0.000191154 0 0)
(0.021768 -0.00175285 0 0.000291476 0 0)
(0.0250561 -0.0021564 0 0.000393671 0 0)
(0.0285949 -0.00221856 0 0.000438124 0 0)
(0.0332169 -0.00181691 0 0.000370044 0 0)
(0.0393738 -0.00170313 0 0.000300708 0 0)
(0.0462876 -0.00169989 0 0.000251992 0 0)
(0.0541263 -0.00185781 0 0.000266702 0 0)
(0.0616507 -0.00198812 0 0.000262418 0 0)
(0.0699843 -0.00186696 0 0.000381235 0 0)
(0.078514 -0.00142956 0 0.000539753 0 0)
(0.089571 0.000580858 0 0.00107453 0 0)
(0.103492 0.00368208 0 0.00212191 0 0)
(0.125522 0.0118742 0 0.00613111 0 0)
(0.159746 0.0252701 0 0.0139299 0 0)
(0.217169 0.0523557 0 0.0331224 0 0)
(0.0629187 -0.00306319 0 0.000199772 0 0)
(0.00095765 -0.000406924 0 0.000776622 0 0)
(0.00306901 -0.000307621 0 0.000627585 0 0)
(0.00930198 -0.000829304 0 0.000183576 0 0)
(0.0173883 -0.00118692 0 0.00020851 0 0)
(0.0229665 -0.00225955 0 0.000370686 0 0)
(0.0265267 -0.00265602 0 0.000484878 0 0)
(0.0303135 -0.00283563 0 0.000573424 0 0)
(0.0351489 -0.00220025 0 0.000433183 0 0)
(0.0416464 -0.00225445 0 0.000383182 0 0)
(0.0487992 -0.00203125 0 0.000268382 0 0)
(0.0569406 -0.00248337 0 0.000317908 0 0)
(0.0647936 -0.00233315 0 0.000269205 0 0)
(0.0735237 -0.00268519 0 0.000433689 0 0)
(0.0826144 -0.00187347 0 0.00057964 0 0)
(0.0943841 -0.000528905 0 0.00107144 0 0)
(0.10945 0.00283417 0 0.00210078 0 0)
(0.133116 0.00983779 0 0.00563716 0 0)
(0.169961 0.0223717 0 0.0127068 0 0)
(0.229316 0.0471524 0 0.0305347 0 0)
(0.0628159 -0.00385526 0 0.000294101 0 0)
(0.000994437 -0.000568942 0 0.00105673 0 0)
(0.00320571 -0.000501336 0 0.000858678 0 0)
(0.0100889 -0.00103235 0 0.000220982 0 0)
(0.0185715 -0.00154871 0 0.000266136 0 0)
(0.0244419 -0.0027735 0 0.000486039 0 0)
(0.0283847 -0.00326702 0 0.000644872 0 0)
(0.0325176 -0.00343011 0 0.000744066 0 0)
(0.0377838 -0.00272834 0 0.000561111 0 0)
(0.0445876 -0.00275707 0 0.000494521 0 0)
(0.0521245 -0.00249957 0 0.000324735 0 0)
(0.0605494 -0.00305437 0 0.000404357 0 0)
(0.0689352 -0.00283188 0 0.000301004 0 0)
(0.0780264 -0.00345474 0 0.000537561 0 0)
(0.0880358 -0.0024812 0 0.000602415 0 0)
(0.100342 -0.00167038 0 0.00116388 0 0)
(0.116981 0.00178817 0 0.00203828 0 0)
(0.141939 0.00751499 0 0.00526778 0 0)
(0.181842 0.0191929 0 0.011775 0 0)
(0.242824 0.0413128 0 0.0277975 0 0)
(0.0628353 -0.0047058 0 0.000414615 0 0)
(0.00105807 -0.000762497 0 0.00139799 0 0)
(0.00346597 -0.000737776 0 0.0010458 0 0)
(0.0111638 -0.00128089 0 0.000265243 0 0)
(0.0201338 -0.00198566 0 0.000333145 0 0)
(0.0263862 -0.0033815 0 0.000620878 0 0)
(0.0307364 -0.00390422 0 0.00080647 0 0)
(0.035407 -0.00410099 0 0.00092145 0 0)
(0.0410851 -0.0033001 0 0.000684023 0 0)
(0.0484091 -0.00334998 0 0.000602622 0 0)
(0.0562165 -0.00300495 0 0.000373745 0 0)
(0.065295 -0.00372926 0 0.00048967 0 0)
(0.073973 -0.00337084 0 0.000338017 0 0)
(0.0839669 -0.00434849 0 0.000642186 0 0)
(0.0944912 -0.00314592 0 0.000647277 0 0)
(0.107932 -0.00297276 0 0.00126347 0 0)
(0.125589 0.000648187 0 0.00201745 0 0)
(0.152494 0.00492888 0 0.00496023 0 0)
(0.194752 0.0157534 0 0.0110292 0 0)
(0.258524 0.0345239 0 0.0252446 0 0)
(0.0634318 -0.00570817 0 0.000585622 0 0)
(0.00116148 -0.00098224 0 0.00182009 0 0)
(0.00394144 -0.00106966 0 0.00117459 0 0)
(0.0123514 -0.00158763 0 0.000344145 0 0)
(0.0223251 -0.00256297 0 0.000444509 0 0)
(0.0285175 -0.0040634 0 0.000803317 0 0)
(0.0340605 -0.0046745 0 0.00101874 0 0)
(0.0385876 -0.00479388 0 0.0011283 0 0)
(0.0454183 -0.00398707 0 0.000839397 0 0)
(0.0526337 -0.00400467 0 0.000744758 0 0)
(0.0615512 -0.00364742 0 0.000447624 0 0)
(0.0706376 -0.00446712 0 0.000599542 0 0)
(0.0804214 -0.00402318 0 0.000390046 0 0)
(0.0906913 -0.00533122 0 0.000780568 0 0)
(0.102435 -0.00389588 0 0.000695312 0 0)
(0.116608 -0.00442988 0 0.00142298 0 0)
(0.135736 -0.000534357 0 0.00195924 0 0)
(0.164362 0.00204458 0 0.00485752 0 0)
(0.20907 0.0121996 0 0.0101643 0 0)
(0.276102 0.0265467 0 0.0235714 0 0)
(0.0647851 -0.00691581 0 0.00082109 0 0)
(0.00149135 -0.00121478 0 0.0023021 0 0)
(0.00497145 -0.00153608 0 0.0012653 0 0)
(0.0136006 -0.00193486 0 0.000446721 0 0)
(0.0255995 -0.00333205 0 0.000595489 0 0)
(0.0304712 -0.00474678 0 0.0010089 0 0)
(0.0389835 -0.0056433 0 0.00126341 0 0)
(0.0415245 -0.00541287 0 0.00133323 0 0)
(0.0516868 -0.00490138 0 0.00103287 0 0)
(0.0565825 -0.00457372 0 0.000885544 0 0)
(0.0692397 -0.00452918 0 0.000551493 0 0)
(0.0757992 -0.0051332 0 0.000715869 0 0)
(0.0896573 -0.00492384 0 0.000470029 0 0)
(0.0972405 -0.00620495 0 0.000927812 0 0)
(0.113489 -0.00490053 0 0.000755437 0 0)
(0.125162 -0.00580048 0 0.0016239 0 0)
(0.14877 -0.00192678 0 0.00187711 0 0)
(0.175471 -0.000770325 0 0.00490909 0 0)
(0.223817 0.00880143 0 0.00907713 0 0)
(0.289443 0.0186552 0 0.0227152 0 0)
(0.0658551 -0.00828625 0 0.00113949 0 0)
(0.00215707 -0.00151916 0 0.00285752 0 0)
(0.00666466 -0.00213049 0 0.00136314 0 0)
(0.0151346 -0.00235788 0 0.000586765 0 0)
(0.0300751 -0.00432993 0 0.00079865 0 0)
(0.0325849 -0.00548446 0 0.00125216 0 0)
(0.0457841 -0.00685297 0 0.00154742 0 0)
(0.0445047 -0.00600821 0 0.00155129 0 0)
(0.0605788 -0.00612747 0 0.001261 0 0)
(0.06042 -0.0050985 0 0.00102612 0 0)
(0.0802194 -0.00570278 0 0.000683928 0 0)
(0.0805 -0.00574391 0 0.000823455 0 0)
(0.102503 -0.00614742 0 0.000583661 0 0)
(0.102188 -0.00689626 0 0.00106266 0 0)
(0.127018 -0.00615544 0 0.000854816 0 0)
(0.128891 -0.00674001 0 0.00177452 0 0)
(0.159778 -0.00328901 0 0.00188174 0 0)
(0.173986 -0.0023892 0 0.00473298 0 0)
(0.223907 0.00689305 0 0.00825978 0 0)
(0.273136 0.0152082 0 0.0208738 0 0)
(0.0651978 -0.00968994 0 0.00155268 0 0)
(0.00288315 -0.00200763 0 0.00348436 0 0)
(0.0084108 -0.00271661 0 0.00147224 0 0)
(0.0171845 -0.00295229 0 0.000769762 0 0)
(0.0348061 -0.00549299 0 0.00106216 0 0)
(0.035966 -0.00642037 0 0.00155009 0 0)
(0.0534029 -0.00822786 0 0.00187519 0 0)
(0.0489913 -0.00678157 0 0.00180886 0 0)
(0.0703186 -0.0074848 0 0.00151947 0 0)
(0.0647191 -0.00572837 0 0.00118145 0 0)
(0.0901254 -0.00687401 0 0.000828142 0 0)
(0.0820143 -0.00620654 0 0.000936987 0 0)
(0.108718 -0.00711334 0 0.000698906 0 0)
(0.0963994 -0.00691974 0 0.00118106 0 0)
(0.123179 -0.00651086 0 0.000916516 0 0)
(0.109517 -0.00615131 0 0.00185907 0 0)
(0.137793 -0.00273381 0 0.00178247 0 0)
(0.133064 -0.000953879 0 0.00440794 0 0)
(0.173365 0.00943705 0 0.00717612 0 0)
(0.204462 0.0192052 0 0.0181119 0 0)
(0.0632957 -0.011114 0 0.00208751 0 0)
(0.00350852 -0.0027086 0 0.00412267 0 0)
(0.00994896 -0.00321962 0 0.00158684 0 0)
(0.0200769 -0.00379722 0 0.00100861 0 0)
(0.0394731 -0.0067582 0 0.0013919 0 0)
(0.0411608 -0.00760243 0 0.00189814 0 0)
(0.0595991 -0.00947383 0 0.00222167 0 0)
(0.0526116 -0.00747702 0 0.00206541 0 0)
(0.0718307 -0.00813924 0 0.00174392 0 0)
(0.0599967 -0.00563987 0 0.00128248 0 0)
(0.0787807 -0.00673528 0 0.000931203 0 0)
(0.0622835 -0.00505924 0 0.000955292 0 0)
(0.0780822 -0.00597068 0 0.000761665 0 0)
(0.0582551 -0.00419351 0 0.00113451 0 0)
(0.0713293 -0.00418947 0 0.000899042 0 0)
(0.054266 -0.00187017 0 0.00165999 0 0)
(0.0679566 0.000372624 0 0.00159772 0 0)
(0.0651517 0.00490402 0 0.0035706 0 0)
(0.0943062 0.0139273 0 0.00602517 0 0)
(0.137499 0.0277252 0 0.0128114 0 0)
(0.0614774 -0.0127032 0 0.002801 0 0)
(0.00427766 -0.00365916 0 0.00466326 0 0)
(0.0117705 -0.00383449 0 0.00177937 0 0)
(0.0238305 -0.00493142 0 0.00134768 0 0)
(0.0422749 -0.0079372 0 0.00179685 0 0)
(0.0418833 -0.00820699 0 0.00224767 0 0)
(0.0512123 -0.008914 0 0.00245672 0 0)
(0.0380571 -0.0059156 0 0.0021758 0 0)
(0.0427179 -0.00560345 0 0.00174298 0 0)
(0.0287118 -0.00263329 0 0.00120394 0 0)
(0.0311305 -0.00312853 0 0.000842066 0 0)
(0.0215648 -0.000870887 0 0.000811353 0 0)
(0.0218046 -0.00140093 0 0.000639785 0 0)
(0.0197468 0.00122479 0 0.000920216 0 0)
(0.0202532 0.000617827 0 0.000696108 0 0)
(0.029074 0.00415665 0 0.00132037 0 0)
(0.034316 0.00427711 0 0.00119831 0 0)
(0.0613418 0.0110524 0 0.00273487 0 0)
(0.0910565 0.0166132 0 0.00453157 0 0)
(0.165818 0.032162 0 0.00830714 0 0)
(0.0614163 -0.014701 0 0.00375028 0 0)
(0.00574376 -0.00497285 0 0.00522044 0 0)
(0.0132839 -0.00456887 0 0.00220515 0 0)
(0.0230133 -0.0054886 0 0.00180856 0 0)
(0.0294322 -0.00679264 0 0.00209853 0 0)
(0.0201708 -0.00482332 0 0.0022865 0 0)
(0.0157098 -0.00328375 0 0.0022537 0 0)
(0.00943675 0.000192636 0 0.0018414 0 0)
(0.0102083 0.000726438 0 0.00135933 0 0)
(0.0193307 0.00280603 0 0.000873002 0 0)
(0.0197273 0.00232621 0 0.000580734 0 0)
(0.0434949 0.0041172 0 0.000537881 0 0)
(0.040608 0.00360478 0 0.000427164 0 0)
(0.0794035 0.00594307 0 0.000609336 0 0)
(0.0759976 0.00460932 0 0.0004567 0 0)
(0.126775 0.00827785 0 0.000897606 0 0)
(0.130802 0.00598354 0 0.00079991 0 0)
(0.192348 0.0142303 0 0.001903 0 0)
(0.230193 0.0141699 0 0.00292718 0 0)
(0.326571 0.0333796 0 0.00562261 0 0)
(0.0656728 -0.0180198 0 0.00524808 0 0)
(0.00636173 -0.00568705 0 0.00585949 0 0)
(0.00867416 -0.00313802 0 0.00256523 0 0)
(0.00896283 -0.00185858 0 0.00188339 0 0)
(0.00547149 -0.000105086 0 0.00177872 0 0)
(0.00972304 0.00325054 0 0.00169986 0 0)
(0.0228306 0.0050155 0 0.0015353 0 0)
(0.0562385 0.00667211 0 0.00116529 0 0)
(0.078836 0.00605757 0 0.000801078 0 0)
(0.127251 0.0064813 0 0.000490533 0 0)
(0.140336 0.00570083 0 0.000311205 0 0)
(0.201128 0.00665228 0 0.000289233 0 0)
(0.203998 0.00606169 0 0.000233026 0 0)
(0.280102 0.00762627 0 0.000338037 0 0)
(0.276946 0.00602233 0 0.00025533 0 0)
(0.36187 0.00881881 0 0.000519136 0 0)
(0.364635 0.00532753 0 0.000473733 0 0)
(0.444362 0.0130448 0 0.00113583 0 0)
(0.492274 0.00916863 0 0.00172858 0 0)
(0.567017 0.0279149 0 0.00368688 0 0)