/*--------------------------------*- C++ -*----------------------------------*\
| =========                 |                                                 |
| \\      /  F ield         | OpenFOAM: The Open Source CFD Toolbox           |
|  \\    /   O peration     | Version:  2.4.0                                 |
|   \\  /    A nd           | Web:      www.OpenFOAM.org                      |
|    \\/     M anipulation  |                                                 |
\*---------------------------------------------------------------------------*/
FoamFile
{
    version     2.0;
    format      ascii;
    class       volVectorField;
    location    "0.156";
    object      U;
}
// * * * * * * * * * * * * * * * * * * * * * * * * * * * * * * * * * * * * * //

dimensions      [0 1 -1 0 0 0 0];

internalField   nonuniform List<vector> 
17600
(
(5.32807 0.30943 0)
(2.98422 0.0606138 0)
(2.20013 -0.0015923 0)
(1.84342 -0.00346357 0)
(1.71225 -0.00145328 0)
(1.60622 -0.000247625 0)
(1.54355 0.000575881 0)
(1.4808 -0.00107498 0)
(1.43929 0.00082137 0)
(1.4023 -0.000122206 0)
(1.39195 -0.00149455 0)
(1.35309 0.00208689 0)
(1.35757 -0.00144827 0)
(1.33093 -0.000683713 0)
(1.35689 0.0008245 0)
(1.30546 0.000145505 0)
(1.40366 -0.00332234 0)
(1.3897 -0.000507384 0)
(1.48129 0.00343054 0)
(1.15311 -0.0640833 0)
(8.6003 0.872072 0)
(6.94427 0.383063 0)
(5.82477 0.122015 0)
(5.04237 0.0511991 0)
(4.67085 0.027761 0)
(4.36079 0.0204323 0)
(4.19505 0.0170673 0)
(4.02073 0.00994674 0)
(3.89572 0.0118635 0)
(3.80681 0.00623961 0)
(3.75161 0.00208006 0)
(3.64294 0.0100815 0)
(3.67741 -0.000990736 0)
(3.55129 0.000212129 0)
(3.63975 0.0046514 0)
(3.49398 -0.00367829 0)
(3.72458 -0.014261 0)
(3.59629 -0.00989908 0)
(3.89309 0.0189478 0)
(3.47071 -0.214815 0)
(9.86079 1.02243 0)
(9.33211 0.575968 0)
(8.50062 0.242263 0)
(7.61625 0.130459 0)
(7.12493 0.0808446 0)
(6.66793 0.0580689 0)
(6.42755 0.0448395 0)
(6.17535 0.0311564 0)
(5.9757 0.0305365 0)
(5.85257 0.0177293 0)
(5.75634 0.012227 0)
(5.57893 0.0206225 0)
(5.65727 0.003037 0)
(5.42038 0.00432976 0)
(5.57126 0.0100295 0)
(5.34429 -0.0075554 0)
(5.65849 -0.0246686 0)
(5.42123 -0.0211332 0)
(5.79465 0.0117682 0)
(5.85946 -0.225215 0)
(10.1708 0.948853 0)
(10.5424 0.665901 0)
(10.2992 0.332118 0)
(9.60448 0.210565 0)
(9.1689 0.145966 0)
(8.65492 0.108753 0)
(8.38264 0.0814236 0)
(8.09603 0.0611489 0)
(7.836 0.0559061 0)
(7.69459 0.0333894 0)
(7.57452 0.0290762 0)
(7.32491 0.0328743 0)
(7.45786 0.0108227 0)
(7.12195 0.0119029 0)
(7.30994 0.0164175 0)
(7.03563 -0.0107691 0)
(7.38656 -0.0332551 0)
(7.08722 -0.0265849 0)
(7.38341 -0.0310306 0)
(7.90115 -0.204522 0)
(10.0978 0.807644 0)
(10.8752 0.665331 0)
(11.1885 0.359436 0)
(10.8423 0.257182 0)
(10.6435 0.199874 0)
(10.2068 0.160956 0)
(9.96904 0.120244 0)
(9.71553 0.0954258 0)
(9.42648 0.0860374 0)
(9.28711 0.0504194 0)
(9.17715 0.0515453 0)
(8.86029 0.0466646 0)
(9.04518 0.0198505 0)
(8.65692 0.0241538 0)
(8.83866 0.0230794 0)
(8.55987 -0.0129388 0)
(8.90918 -0.0415804 0)
(8.59333 -0.0161939 0)
(8.81316 -0.0972463 0)
(9.3764 -0.190971 0)
(10.036 0.694871 0)
(10.7799 0.629414 0)
(11.3857 0.336731 0)
(11.3028 0.253961 0)
(11.4012 0.218094 0)
(11.1679 0.196489 0)
(11.0437 0.149248 0)
(10.9137 0.125356 0)
(10.6562 0.116979 0)
(10.5454 0.0651292 0)
(10.4919 0.0764621 0)
(10.1376 0.0624185 0)
(10.3534 0.0266407 0)
(9.98424 0.04044 0)
(10.1274 0.0307604 0)
(9.8757 -0.0153265 0)
(10.1917 -0.0490081 0)
(9.90557 -0.00354951 0)
(10.0836 -0.12977 0)
(10.5684 -0.247608 0)
(10.0601 0.606806 0)
(10.6154 0.594591 0)
(11.321 0.305893 0)
(11.3044 0.225094 0)
(11.5579 0.199338 0)
(11.5231 0.205018 0)
(11.5057 0.155767 0)
(11.5637 0.137593 0)
(11.412 0.139953 0)
(11.3563 0.0702539 0)
(11.4157 0.0970361 0)
(11.0873 0.0786626 0)
(11.3072 0.0284358 0)
(11.0278 0.0567626 0)
(11.1346 0.0405642 0)
(10.9337 -0.019441 0)
(11.1819 -0.0527816 0)
(10.9813 0.000291809 0)
(11.1375 -0.146566 0)
(11.4203 -0.271667 0)
(10.1171 0.529511 0)
(10.4937 0.559171 0)
(11.2235 0.28334 0)
(11.2119 0.201589 0)
(11.4638 0.168351 0)
(11.5562 0.1999 0)
(11.5231 0.146813 0)
(11.7174 0.129401 0)
(11.6864 0.150358 0)
(11.6629 0.0603919 0)
(11.8548 0.104195 0)
(11.6321 0.0910115 0)
(11.8234 0.0204598 0)
(11.6933 0.0684704 0)
(11.7912 0.0447246 0)
(11.6687 -0.0163824 0)
(11.8385 -0.0702401 0)
(11.7392 0.0186726 0)
(11.935 -0.200724 0)
(11.9189 -0.197963 0)
(10.1708 0.456468 0)
(10.4059 0.519651 0)
(11.1636 0.266289 0)
(11.1436 0.184947 0)
(11.3462 0.135056 0)
(11.535 0.192101 0)
(11.4186 0.136204 0)
(11.6569 0.110387 0)
(11.6798 0.153589 0)
(11.6702 0.0430045 0)
(11.8808 0.0957667 0)
(11.8229 0.0976668 0)
(11.9189 0.00416614 0)
(11.9634 0.0691457 0)
(12.0462 0.0431403 0)
(12.0329 -0.0220477 0)
(12.1138 -0.075834 0)
(12.1572 0.00617103 0)
(12.3481 -0.197704 0)
(12.1776 -0.197624 0)
(10.1887 0.392278 0)
(10.3309 0.472698 0)
(11.1029 0.249247 0)
(11.0958 0.17717 0)
(11.2961 0.0996528 0)
(11.4817 0.183838 0)
(11.3698 0.130198 0)
(11.6003 0.0886641 0)
(11.554 0.15414 0)
(11.6819 0.0275331 0)
(11.7465 0.0813658 0)
(11.8227 0.0982166 0)
(11.8342 -0.0121284 0)
(11.9863 0.0592759 0)
(12.0344 0.038405 0)
(12.1039 -0.0298015 0)
(12.1182 -0.0865749 0)
(12.2639 -0.013855 0)
(12.4092 -0.19074 0)
(12.2914 -0.25891 0)
(10.0727 0.333046 0)
(10.3975 0.426416 0)
(10.9196 0.232343 0)
(11.1068 0.165016 0)
(11.3203 0.0717709 0)
(11.3092 0.175487 0)
(11.4724 0.12075 0)
(11.4999 0.0803489 0)
(11.4415 0.148753 0)
(11.7394 0.0124214 0)
(11.6495 0.0759788 0)
(11.7216 0.097434 0)
(11.8153 -0.0307963 0)
(11.8729 0.0535881 0)
(11.9606 0.0266911 0)
(12.0774 -0.0329157 0)
(12.0707 -0.10024 0)
(12.1832 -0.0398538 0)
(12.3277 -0.210414 0)
(12.3045 -0.295925 0)
(9.96769 0.281026 0)
(10.5052 0.376566 0)
(10.7022 0.22373 0)
(11.1758 0.136342 0)
(11.2377 0.0630149 0)
(11.1842 0.157884 0)
(11.5876 0.105832 0)
(11.3349 0.084107 0)
(11.4437 0.133545 0)
(11.7281 -0.00557183 0)
(11.5679 0.0839313 0)
(11.706 0.0886987 0)
(11.7981 -0.0418895 0)
(11.7482 0.0478779 0)
(11.9181 0.0176901 0)
(12.0389 -0.0548135 0)
(12.0249 -0.0925913 0)
(12.1161 -0.0693898 0)
(12.2198 -0.235088 0)
(12.2264 -0.335384 0)
(10.0367 0.227046 0)
(10.4018 0.340466 0)
(10.6571 0.203444 0)
(11.1316 0.112504 0)
(11.0817 0.0626074 0)
(11.2561 0.121614 0)
(11.4976 0.0995714 0)
(11.2784 0.0868644 0)
(11.4769 0.107557 0)
(11.6194 -0.0105678 0)
(11.5378 0.0792821 0)
(11.7653 0.0774015 0)
(11.743 -0.0428254 0)
(11.6798 0.0393191 0)
(11.9083 0.000461835 0)
(11.9718 -0.0652194 0)
(11.9885 -0.0966232 0)
(12.0978 -0.0878704 0)
(12.1692 -0.259773 0)
(12.1329 -0.361938 0)
(10.0808 0.186339 0)
(10.2534 0.301741 0)
(10.7011 0.174135 0)
(10.9939 0.103105 0)
(11.0523 0.0465795 0)
(11.3183 0.0918404 0)
(11.3225 0.101569 0)
(11.3269 0.0723316 0)
(11.4561 0.0986369 0)
(11.5108 -0.0213693 0)
(11.5612 0.0672365 0)
(11.7703 0.0691483 0)
(11.672 -0.0367286 0)
(11.6749 0.0263768 0)
(11.872 -0.0106117 0)
(11.9127 -0.0777678 0)
(11.9639 -0.107413 0)
(12.06 -0.101908 0)
(12.141 -0.279228 0)
(12.0745 -0.379242 0)
(9.99318 0.149954 0)
(10.2679 0.25968 0)
(10.6949 0.141165 0)
(10.9111 0.0970902 0)
(11.1224 0.0257713 0)
(11.2117 0.0772132 0)
(11.2754 0.0955248 0)
(11.3653 0.0572664 0)
(11.3898 0.0920592 0)
(11.4694 -0.0297459 0)
(11.5737 0.0482829 0)
(11.6667 0.0712982 0)
(11.6842 -0.0376267 0)
(11.6787 0.0158504 0)
(11.821 -0.0225557 0)
(11.8874 -0.0890484 0)
(11.9177 -0.116002 0)
(12.005 -0.124969 0)
(12.0905 -0.281374 0)
(12.0325 -0.427838 0)
(9.9523 0.120614 0)
(10.3115 0.207143 0)
(10.6568 0.117958 0)
(10.8898 0.0798719 0)
(11.1396 0.0188998 0)
(11.0857 0.0601217 0)
(11.3334 0.0805199 0)
(11.3351 0.0444561 0)
(11.3095 0.0917391 0)
(11.4982 -0.047966 0)
(11.511 0.0434037 0)
(11.5932 0.0636202 0)
(11.7288 -0.0434965 0)
(11.6741 0.00794943 0)
(11.7658 -0.0269039 0)
(11.8489 -0.108405 0)
(11.883 -0.114417 0)
(11.971 -0.150827 0)
(12.0272 -0.283949 0)
(11.9997 -0.469206 0)
(10.0003 0.0901657 0)
(10.276 0.15895 0)
(10.6172 0.0920305 0)
(10.9067 0.0654304 0)
(11.0505 0.0146441 0)
(11.1096 0.0394673 0)
(11.3262 0.0610306 0)
(11.2393 0.0451567 0)
(11.3152 0.0770363 0)
(11.5286 -0.0584045 0)
(11.4174 0.0389006 0)
(11.6074 0.0500597 0)
(11.7172 -0.0496219 0)
(11.6372 0.00649231 0)
(11.7338 -0.033662 0)
(11.8269 -0.120278 0)
(11.8463 -0.130531 0)
(11.9323 -0.149706 0)
(11.9994 -0.314206 0)
(12.0244 -0.453237 0)
(10.013 0.0598463 0)
(10.2331 0.11733 0)
(10.6073 0.0576567 0)
(10.9029 0.0567178 0)
(10.9812 0.00833367 0)
(11.1971 0.0146728 0)
(11.2085 0.0571637 0)
(11.2029 0.0339326 0)
(11.4181 0.0559051 0)
(11.4655 -0.0578742 0)
(11.3801 0.030544 0)
(11.6231 0.0357586 0)
(11.6634 -0.0540197 0)
(11.6129 0.00648593 0)
(11.7412 -0.0516626 0)
(11.8206 -0.127506 0)
(11.7982 -0.140694 0)
(11.882 -0.160797 0)
(12.0085 -0.343767 0)
(11.9876 -0.416665 0)
(9.98189 0.0382276 0)
(10.2339 0.0656196 0)
(10.6321 0.0296887 0)
(10.815 0.0451915 0)
(11.0538 -0.00152008 0)
(11.1679 -0.00202745 0)
(11.1258 0.055167 0)
(11.2794 0.00529826 0)
(11.4381 0.0441651 0)
(11.3755 -0.0506839 0)
(11.4012 0.0159577 0)
(11.601 0.024155 0)
(11.6398 -0.0547451 0)
(11.629 -0.00345255 0)
(11.7369 -0.0570333 0)
(11.8013 -0.135482 0)
(11.7673 -0.147044 0)
(11.8864 -0.178332 0)
(11.9852 -0.354313 0)
(11.8937 -0.435325 0)
(9.97779 0.0112433 0)
(10.2669 0.0173786 0)
(10.5893 0.00480397 0)
(10.7881 0.0301268 0)
(11.1218 -0.0142705 0)
(11.0703 -0.00467641 0)
(11.1586 0.0353336 0)
(11.3379 -0.0150995 0)
(11.3474 0.0407141 0)
(11.3641 -0.0493703 0)
(11.4366 0.000684449 0)
(11.5784 0.0123562 0)
(11.637 -0.0546549 0)
(11.6406 -0.014762 0)
(11.7179 -0.0553027 0)
(11.7785 -0.150988 0)
(11.7861 -0.146889 0)
(11.8846 -0.204173 0)
(11.9255 -0.345543 0)
(11.8963 -0.51021 0)
(10.005 -0.01251 0)
(10.2636 -0.0305933 0)
(10.5213 -0.0154482 0)
(10.8729 0.00263751 0)
(11.0621 -0.0131142 0)
(11.0709 -0.0168468 0)
(11.2132 0.0123044 0)
(11.3081 -0.0274263 0)
(11.3048 0.0355926 0)
(11.3905 -0.0552242 0)
(11.4669 -0.0150768 0)
(11.5583 0.0064242 0)
(11.6318 -0.0649035 0)
(11.6348 -0.0186376 0)
(11.7054 -0.0663481 0)
(11.7967 -0.161772 0)
(11.8016 -0.152471 0)
(11.842 -0.223092 0)
(11.8957 -0.344776 0)
(11.9425 -0.574662 0)
(10.0162 -0.0411563 0)
(10.22 -0.0682161 0)
(10.5564 -0.0504955 0)
(10.8945 -0.015304 0)
(11.0311 -0.0139698 0)
(11.1224 -0.0351228 0)
(11.2202 -0.0028727 0)
(11.2688 -0.0357537 0)
(11.3224 0.0237306 0)
(11.4222 -0.0604746 0)
(11.4817 -0.0256817 0)
(11.524 0.000231502 0)
(11.6425 -0.0685844 0)
(11.6267 -0.027712 0)
(11.7205 -0.0770125 0)
(11.8197 -0.165277 0)
(11.7818 -0.16462 0)
(11.8086 -0.220034 0)
(11.9263 -0.379063 0)
(11.9647 -0.546853 0)
(9.99726 -0.0638696 0)
(10.2263 -0.116692 0)
(10.6157 -0.0804427 0)
(10.8619 -0.0309486 0)
(11.0666 -0.0206214 0)
(11.1426 -0.0485637 0)
(11.2029 -0.0177507 0)
(11.2677 -0.0443025 0)
(11.3492 0.00641729 0)
(11.4599 -0.0649236 0)
(11.452 -0.0311297 0)
(11.537 -0.00803187 0)
(11.6465 -0.0739279 0)
(11.6343 -0.0362469 0)
(11.7548 -0.0855691 0)
(11.8129 -0.170411 0)
(11.7583 -0.169882 0)
(11.8246 -0.227757 0)
(11.9563 -0.410943 0)
(11.9115 -0.504264 0)
(9.98519 -0.0893656 0)
(10.273 -0.166442 0)
(10.6156 -0.106186 0)
(10.8779 -0.0483615 0)
(11.074 -0.0267879 0)
(11.1648 -0.0642065 0)
(11.1947 -0.0280693 0)
(11.291 -0.0585888 0)
(11.3844 -0.0107603 0)
(11.458 -0.0636191 0)
(11.4544 -0.0396739 0)
(11.5668 -0.0200257 0)
(11.6388 -0.0764498 0)
(11.6776 -0.0518242 0)
(11.7673 -0.0898977 0)
(11.7939 -0.176561 0)
(11.7711 -0.171727 0)
(11.8604 -0.25244 0)
(11.9555 -0.415865 0)
(11.8083 -0.488451 0)
(9.99177 -0.121083 0)
(10.2933 -0.21086 0)
(10.6237 -0.134915 0)
(10.8975 -0.0597892 0)
(11.0962 -0.0404121 0)
(11.1875 -0.0735233 0)
(11.2078 -0.0443079 0)
(11.3296 -0.0707955 0)
(11.3924 -0.0241157 0)
(11.4574 -0.0665964 0)
(11.5002 -0.0460851 0)
(11.5665 -0.0321974 0)
(11.6643 -0.0778583 0)
(11.7146 -0.0692983 0)
(11.7593 -0.0863231 0)
(11.7993 -0.187023 0)
(11.8122 -0.174379 0)
(11.8746 -0.274574 0)
(11.9256 -0.408295 0)
(11.7802 -0.514933 0)
(9.9934 -0.151476 0)
(10.3062 -0.259104 0)
(10.6537 -0.15817 0)
(10.9273 -0.0788025 0)
(11.1364 -0.0510775 0)
(11.2038 -0.086141 0)
(11.2425 -0.0602669 0)
(11.3504 -0.0784687 0)
(11.3987 -0.0418486 0)
(11.4939 -0.0663751 0)
(11.5231 -0.0564238 0)
(11.5869 -0.039217 0)
(11.7072 -0.0886288 0)
(11.7318 -0.0738482 0)
(11.7612 -0.0945496 0)
(11.8305 -0.188638 0)
(11.8458 -0.186571 0)
(11.8787 -0.28371 0)
(11.9086 -0.412786 0)
(11.8535 -0.558507 0)
(9.98755 -0.188747 0)
(10.3333 -0.303107 0)
(10.6948 -0.185363 0)
(10.9795 -0.0936902 0)
(11.1614 -0.064191 0)
(11.2285 -0.0976999 0)
(11.2689 -0.0729859 0)
(11.3717 -0.0885567 0)
(11.4358 -0.055533 0)
(11.5206 -0.0730478 0)
(11.5565 -0.0597397 0)
(11.6333 -0.0564774 0)
(11.7363 -0.0875379 0)
(11.7529 -0.0857125 0)
(11.7789 -0.0965909 0)
(11.8645 -0.19698 0)
(11.8767 -0.190615 0)
(11.8895 -0.295682 0)
(11.9319 -0.423158 0)
(11.9382 -0.592446 0)
(9.98763 -0.227352 0)
(10.3651 -0.351433 0)
(10.7564 -0.206045 0)
(11.0196 -0.110198 0)
(11.193 -0.079312 0)
(11.2494 -0.107709 0)
(11.3045 -0.0897477 0)
(11.4126 -0.0963064 0)
(11.4734 -0.0708269 0)
(11.5549 -0.0780966 0)
(11.6144 -0.0680957 0)
(11.6653 -0.066562 0)
(11.7699 -0.0917719 0)
(11.7782 -0.0926596 0)
(11.8038 -0.101692 0)
(11.9112 -0.204617 0)
(11.9035 -0.19475 0)
(11.9194 -0.307264 0)
(11.978 -0.435173 0)
(11.9618 -0.615822 0)
(9.99815 -0.271438 0)
(10.4017 -0.401835 0)
(10.8251 -0.220257 0)
(11.0547 -0.128701 0)
(11.2383 -0.0954755 0)
(11.2633 -0.120048 0)
(11.3692 -0.106745 0)
(11.4373 -0.101425 0)
(11.532 -0.0888595 0)
(11.5955 -0.0830993 0)
(11.6708 -0.0752386 0)
(11.687 -0.0781641 0)
(11.8202 -0.0930079 0)
(11.7907 -0.100069 0)
(11.8653 -0.11004 0)
(11.9476 -0.20941 0)
(11.9388 -0.198787 0)
(11.96 -0.317078 0)
(11.9985 -0.446995 0)
(11.9491 -0.632966 0)
(10.0194 -0.323093 0)
(10.4378 -0.450393 0)
(10.9093 -0.232147 0)
(11.0823 -0.14689 0)
(11.2909 -0.113804 0)
(11.2731 -0.132489 0)
(11.4483 -0.123181 0)
(11.4548 -0.108129 0)
(11.6193 -0.104614 0)
(11.617 -0.0897356 0)
(11.736 -0.0799664 0)
(11.7007 -0.0898427 0)
(11.8875 -0.0931639 0)
(11.8049 -0.110456 0)
(11.9555 -0.116693 0)
(11.9538 -0.215001 0)
(12.004 -0.198747 0)
(11.9667 -0.327883 0)
(11.9999 -0.446499 0)
(11.9089 -0.646356 0)
(10.0383 -0.38072 0)
(10.49 -0.500665 0)
(10.9875 -0.241665 0)
(11.1018 -0.165562 0)
(11.345 -0.132468 0)
(11.2988 -0.145402 0)
(11.5435 -0.142612 0)
(11.48 -0.112665 0)
(11.7119 -0.120177 0)
(11.6326 -0.0952022 0)
(11.8033 -0.0850941 0)
(11.7284 -0.0995314 0)
(11.9627 -0.10036 0)
(11.8263 -0.113088 0)
(12.0347 -0.129776 0)
(11.9335 -0.212013 0)
(12.0408 -0.202671 0)
(11.8969 -0.326262 0)
(11.9349 -0.443292 0)
(11.6933 -0.651283 0)
(10.0481 -0.44783 0)
(10.5564 -0.546789 0)
(11.0293 -0.249238 0)
(11.1578 -0.185087 0)
(11.4019 -0.154917 0)
(11.3747 -0.160894 0)
(11.6208 -0.158813 0)
(11.5278 -0.11964 0)
(11.7838 -0.13328 0)
(11.6542 -0.100599 0)
(11.8592 -0.0919701 0)
(11.7614 -0.111274 0)
(11.9737 -0.103482 0)
(11.8044 -0.118412 0)
(11.9986 -0.135843 0)
(11.798 -0.205745 0)
(11.8889 -0.199602 0)
(11.6359 -0.319226 0)
(11.5893 -0.421164 0)
(11.1352 -0.633165 0)
(10.0524 -0.522005 0)
(10.6113 -0.585822 0)
(11.0865 -0.260814 0)
(11.267 -0.209694 0)
(11.4615 -0.180631 0)
(11.474 -0.175626 0)
(11.6582 -0.170305 0)
(11.5758 -0.129024 0)
(11.7823 -0.14108 0)
(11.6117 -0.105643 0)
(11.7949 -0.0993727 0)
(11.6286 -0.113856 0)
(11.7601 -0.10408 0)
(11.5466 -0.116301 0)
(11.6543 -0.133263 0)
(11.3611 -0.189337 0)
(11.3838 -0.190296 0)
(11.039 -0.292047 0)
(10.8545 -0.387545 0)
(10.2765 -0.563035 0)
(10.0445 -0.603835 0)
(10.6808 -0.615757 0)
(11.2053 -0.282373 0)
(11.3777 -0.236486 0)
(11.4986 -0.204919 0)
(11.5074 -0.188745 0)
(11.5631 -0.175003 0)
(11.443 -0.134431 0)
(11.5091 -0.138859 0)
(11.2672 -0.103249 0)
(11.3585 -0.0958884 0)
(11.1005 -0.105095 0)
(11.1464 -0.0942738 0)
(10.8839 -0.104975 0)
(10.9071 -0.118783 0)
(10.5552 -0.165033 0)
(10.5217 -0.168959 0)
(10.1077 -0.253832 0)
(9.83751 -0.33802 0)
(9.19491 -0.471458 0)
(10.048 -0.694367 0)
(10.7961 -0.643542 0)
(11.3152 -0.317766 0)
(11.3643 -0.263793 0)
(11.3267 -0.22032 0)
(11.1939 -0.187445 0)
(11.0509 -0.162355 0)
(10.8294 -0.123361 0)
(10.7375 -0.119824 0)
(10.4386 -0.0873597 0)
(10.4444 -0.0804296 0)
(10.1373 -0.0857783 0)
(10.1305 -0.0772556 0)
(9.8492 -0.0866337 0)
(9.81784 -0.0972491 0)
(9.4494 -0.135794 0)
(9.37428 -0.140458 0)
(8.92682 -0.209703 0)
(8.60948 -0.274858 0)
(7.91861 -0.385148 0)
(10.1168 -0.80874 0)
(10.8649 -0.673412 0)
(11.1517 -0.346086 0)
(10.8862 -0.264652 0)
(10.5766 -0.2011 0)
(10.2488 -0.156579 0)
(9.94853 -0.127759 0)
(9.66351 -0.0956409 0)
(9.47964 -0.0892561 0)
(9.18226 -0.0647117 0)
(9.13778 -0.0594286 0)
(8.83247 -0.0631849 0)
(8.80023 -0.058104 0)
(8.52808 -0.065618 0)
(8.46374 -0.0732616 0)
(8.11042 -0.104515 0)
(8.00407 -0.108756 0)
(7.55935 -0.160338 0)
(7.21174 -0.209975 0)
(6.53602 -0.29133 0)
(10.1859 -0.949884 0)
(10.5233 -0.670312 0)
(10.283 -0.323616 0)
(9.63278 -0.215477 0)
(9.11723 -0.146873 0)
(8.69514 -0.106927 0)
(8.34988 -0.0847712 0)
(8.06846 -0.0633276 0)
(7.86082 -0.0577563 0)
(7.60443 -0.0422224 0)
(7.53648 -0.0383452 0)
(7.27058 -0.041558 0)
(7.22743 -0.0393817 0)
(6.98449 -0.0444831 0)
(6.90622 -0.0493697 0)
(6.59062 -0.0734183 0)
(6.46541 -0.0757452 0)
(6.05381 -0.110857 0)
(5.70668 -0.144814 0)
(5.0752 -0.20261 0)
(9.86992 -1.02297 0)
(9.31303 -0.578174 0)
(8.49534 -0.237553 0)
(7.63299 -0.133028 0)
(7.09057 -0.0819518 0)
(6.69704 -0.0573122 0)
(6.39552 -0.0456313 0)
(6.16179 -0.0341609 0)
(5.97991 -0.0307316 0)
(5.78289 -0.0228697 0)
(5.71558 -0.0201046 0)
(5.51115 -0.0230834 0)
(5.46556 -0.022641 0)
(5.26848 -0.0252927 0)
(5.19351 -0.0278523 0)
(4.93265 -0.044399 0)
(4.8041 -0.0444708 0)
(4.45698 -0.0649234 0)
(4.13978 -0.08438 0)
(3.60749 -0.123375 0)
(8.60476 -0.872282 0)
(6.93076 -0.383969 0)
(5.82348 -0.120059 0)
(5.05204 -0.0520931 0)
(4.65086 -0.0287596 0)
(4.37691 -0.0200582 0)
(4.17197 -0.0167638 0)
(4.01364 -0.0124589 0)
(3.88816 -0.0110906 0)
(3.76142 -0.00854837 0)
(3.71201 -0.00695528 0)
(3.58048 -0.00925259 0)
(3.54013 -0.00945059 0)
(3.40482 -0.0102098 0)
(3.34696 -0.0110037 0)
(3.16007 -0.0200698 0)
(3.04938 -0.0188365 0)
(2.79976 -0.0271123 0)
(2.55343 -0.0352566 0)
(2.18105 -0.0563929 0)
(5.3291 -0.309389 0)
(2.97924 -0.060707 0)
(2.1993 0.00183211 0)
(1.84825 0.00343609 0)
(1.70505 0.00104269 0)
(1.60899 0.0004558 0)
(1.53563 -0.000214419 0)
(1.47702 8.99073e-05 0)
(1.43096 -3.14845e-05 0)
(1.38543 -0.000222294 0)
(1.36669 0.000303271 0)
(1.32 -0.000571832 0)
(1.29805 -0.000625956 0)
(1.24368 -0.000467751 0)
(1.21878 -0.000106464 0)
(1.13876 -0.00228489 0)
(1.07894 -0.00110882 0)
(0.974104 -0.00152983 0)
(0.862456 -0.00291558 0)
(0.71177 -0.00367076 0)
(2.71279 -0.27378 0)
(2.31129 -0.265747 0)
(3.30206 0.669358 0)
(5.81558 1.42839 0)
(7.38737 2.33973 0)
(9.11802 2.15245 0)
(9.94485 1.10541 0)
(10.5182 0.162159 0)
(10.8889 -0.873912 0)
(10.6516 -1.9473 0)
(10.3595 -2.60239 0)
(11.0303 -3.7688 0)
(11.7096 -5.18507 0)
(11.7508 -6.34458 0)
(11.4457 -7.02774 0)
(10.1572 -6.89404 0)
(9.29379 -6.35486 0)
(8.25176 -5.9425 0)
(7.56268 -5.23915 0)
(6.92578 -4.66378 0)
(5.96076 -4.06089 0)
(5.92278 -3.437 0)
(5.24103 -2.94576 0)
(4.08087 -2.19837 0)
(4.87864 -0.807397 0)
(4.1845 -0.181411 0)
(3.10971 0.138493 0)
(3.79754 2.17552 0)
(5.09725 4.58504 0)
(6.719 5.88704 0)
(7.52412 6.16224 0)
(9.38798 5.02204 0)
(9.92268 4.45945 0)
(10.4631 3.91293 0)
(10.2895 3.07715 0)
(9.8117 3.06885 0)
(10.4973 2.69465 0)
(10.4059 1.78249 0)
(10.3244 1.28245 0)
(10.772 0.294243 0)
(11.315 -1.151 0)
(11.2401 -2.23555 0)
(11.3278 -3.1498 0)
(11.5131 -4.0866 0)
(11.4309 -4.84196 0)
(11.5899 -5.74238 0)
(11.4727 -6.72186 0)
(10.9313 -7.08756 0)
(10.3352 -7.44544 0)
(9.98012 -8.23231 0)
(9.52272 -9.03299 0)
(8.83784 -9.14109 0)
(7.83153 -8.15563 0)
(6.49561 -7.25724 0)
(5.82471 -6.90357 0)
(5.32102 -6.95928 0)
(5.09745 -7.43416 0)
(5.07896 -7.92983 0)
(5.48415 -8.16625 0)
(5.71916 -8.49638 0)
(6.22679 -8.73965 0)
(6.89071 -8.30953 0)
(7.16267 -7.38754 0)
(7.543 -6.23683 0)
(7.68942 -5.04674 0)
(8.21051 -3.36524 0)
(8.36235 -1.90778 0)
(8.25411 -0.635369 0)
(8.9156 1.15145 0)
(8.71074 2.68048 0)
(8.43479 3.39063 0)
(8.06218 4.01404 0)
(8.05957 4.86636 0)
(8.43091 5.89776 0)
(8.83049 6.90837 0)
(9.01255 7.42872 0)
(8.78863 7.34896 0)
(8.63831 7.0224 0)
(8.49481 6.80138 0)
(8.18157 6.40064 0)
(8.00224 5.75165 0)
(7.92703 5.3715 0)
(7.76199 4.99623 0)
(7.76012 4.58974 0)
(7.71402 4.42033 0)
(7.61148 4.23933 0)
(7.32536 3.96473 0)
(7.41131 3.84572 0)
(7.14863 3.7389 0)
(7.31782 3.76298 0)
(7.17917 3.65125 0)
(7.39924 3.77989 0)
(7.39131 3.76334 0)
(7.69067 3.65652 0)
(7.26196 3.28661 0)
(7.44754 3.06615 0)
(7.17321 2.94562 0)
(7.67484 2.98639 0)
(7.79259 2.86456 0)
(8.34375 3.00662 0)
(8.47174 2.62961 0)
(9.26449 2.32029 0)
(9.63856 2.46612 0)
(9.92523 1.89527 0)
(10.2264 0.876508 0)
(10.5805 0.29805 0)
(10.4344 0.180835 0)
(10.6154 -0.629288 0)
(10.2489 -1.54739 0)
(9.68732 -2.1641 0)
(9.0064 -2.96983 0)
(9.05192 -3.54996 0)
(8.49701 -3.92632 0)
(8.79793 -4.36059 0)
(8.83301 -4.45316 0)
(8.83325 -4.63653 0)
(9.23543 -4.90531 0)
(9.14006 -4.91621 0)
(8.9245 -4.73715 0)
(8.81166 -4.78295 0)
(8.35174 -5.01899 0)
(8.4059 -5.21788 0)
(8.27041 -5.30967 0)
(7.97458 -5.88263 0)
(8.18555 -7.0638 0)
(8.59078 -8.00264 0)
(8.71782 -8.19905 0)
(8.57219 -7.83949 0)
(8.28487 -7.29774 0)
(8.05406 -6.81079 0)
(7.93435 -6.50668 0)
(7.98426 -6.19761 0)
(8.09947 -5.55581 0)
(8.1204 -4.51507 0)
(8.03838 -3.27408 0)
(7.96346 -1.88998 0)
(7.96409 -0.471847 0)
(7.85963 0.730171 0)
(7.62055 1.70884 0)
(7.22648 2.46766 0)
(6.94992 3.04564 0)
(6.87229 3.77293 0)
(6.79013 4.78638 0)
(6.81886 5.84861 0)
(6.8939 6.63418 0)
(6.96598 7.13722 0)
(6.98668 7.36742 0)
(6.87177 7.29793 0)
(6.8094 7.07116 0)
(6.64877 7.02414 0)
(6.44051 7.16582 0)
(6.31379 7.17652 0)
(6.1773 6.8141 0)
(5.98313 6.4967 0)
(5.8577 6.21645 0)
(5.69532 6.19169 0)
(5.83962 6.39485 0)
(5.86244 6.74297 0)
(6.24814 7.06382 0)
(6.57921 7.17124 0)
(6.87969 6.99541 0)
(7.24806 6.98267 0)
(7.84762 6.24169 0)
(7.5792 5.84685 0)
(8.53967 4.67155 0)
(8.16696 4.40456 0)
(8.97287 3.04394 0)
(8.12359 2.44326 0)
(9.03587 1.02829 0)
(8.18296 0.933173 0)
(8.97894 -0.290029 0)
(7.95875 -0.114387 0)
(8.65773 -0.930938 0)
(7.58719 -1.17485 0)
(7.84094 -1.36245 0)
(7.7685 -0.553914 0)
(8.07507 -0.527113 0)
(7.75626 -0.0266932 0)
(8.13782 -0.0174837 0)
(8.10643 0.389447 0)
(8.79134 -0.232105 0)
(8.19205 -0.625636 0)
(8.3883 -1.52619 0)
(8.06402 -1.74349 0)
(7.80277 -2.51311 0)
(7.26841 -3.06958 0)
(6.97868 -3.75017 0)
(7.02373 -3.52989 0)
(7.31664 -3.01797 0)
(7.26546 -2.31589 0)
(7.53795 -1.55964 0)
(7.55457 -0.663253 0)
(7.57335 0.232959 0)
(7.5644 1.19531 0)
(7.30447 2.07719 0)
(6.94692 2.90112 0)
(6.76091 4.09336 0)
(6.45593 5.6559 0)
(6.8369 6.90614 0)
(3.73651 10.8407 0)
(4.614 -0.123175 0)
(5.23269 -0.0526375 0)
(4.48441 0.199241 0)
(5.21603 0.683236 0)
(6.969 1.47901 0)
(8.72641 1.59584 0)
(9.89163 0.859987 0)
(10.6829 -0.10529 0)
(10.6156 -0.871204 0)
(10.6256 -1.74846 0)
(11.1551 -2.66719 0)
(12.0106 -4.01119 0)
(12.4343 -5.32492 0)
(12.1757 -6.23454 0)
(11.657 -6.69712 0)
(10.3176 -6.48752 0)
(9.45937 -5.99882 0)
(8.4972 -5.57376 0)
(7.71251 -4.96427 0)
(7.24234 -4.28806 0)
(6.19269 -3.84984 0)
(6.14049 -3.2768 0)
(5.56758 -2.53171 0)
(4.36112 -2.08116 0)
(4.90742 -0.878337 0)
(4.93013 0.168545 0)
(3.86077 0.280004 0)
(3.90792 1.706 0)
(5.49748 3.83746 0)
(7.41909 5.31008 0)
(8.20152 5.68395 0)
(9.99145 4.63467 0)
(10.5624 4.23496 0)
(11.2055 3.8686 0)
(11.2551 3.11962 0)
(10.855 3.07936 0)
(11.5303 2.66539 0)
(11.5278 1.78939 0)
(11.4242 1.23507 0)
(11.7347 0.208547 0)
(12.0736 -1.1809 0)
(11.8878 -2.25823 0)
(11.9019 -3.18998 0)
(11.9808 -4.07676 0)
(11.8044 -4.8023 0)
(11.8791 -5.73397 0)
(11.6169 -6.58796 0)
(10.9727 -6.81622 0)
(10.3321 -7.19979 0)
(9.92981 -8.07146 0)
(9.4046 -8.81304 0)
(8.59021 -8.75544 0)
(7.51075 -7.69674 0)
(6.20832 -6.86147 0)
(5.49148 -6.6403 0)
(5.08018 -6.82657 0)
(4.76407 -7.39128 0)
(4.80738 -8.00177 0)
(5.09278 -8.32823 0)
(5.37408 -8.69183 0)
(5.79392 -8.95316 0)
(6.42911 -8.45932 0)
(6.69255 -7.52492 0)
(7.05175 -6.35145 0)
(7.17544 -5.13974 0)
(7.69373 -3.46788 0)
(7.86484 -1.97199 0)
(7.75382 -0.690323 0)
(8.35035 1.06139 0)
(8.24903 2.69399 0)
(8.11105 3.51828 0)
(7.75659 4.09059 0)
(7.64138 4.79964 0)
(7.98479 5.75629 0)
(8.39982 6.76298 0)
(8.67033 7.37743 0)
(8.5655 7.40149 0)
(8.51087 7.08506 0)
(8.42644 6.87791 0)
(8.1355 6.48356 0)
(7.96961 5.81987 0)
(7.89437 5.42238 0)
(7.70684 5.02803 0)
(7.71708 4.63021 0)
(7.65842 4.43851 0)
(7.62653 4.29764 0)
(7.30685 4.02812 0)
(7.36788 3.88655 0)
(7.13369 3.72615 0)
(7.27881 3.80075 0)
(7.18272 3.6423 0)
(7.31324 3.71339 0)
(7.30645 3.6985 0)
(7.74926 3.64031 0)
(7.44504 3.34925 0)
(7.65847 3.08987 0)
(7.32193 2.89075 0)
(7.74492 2.86995 0)
(7.84212 2.70834 0)
(8.34498 2.8521 0)
(8.48108 2.42909 0)
(9.20038 2.08212 0)
(9.67802 2.28809 0)
(9.89463 1.80999 0)
(10.2138 0.750605 0)
(10.4463 0.270888 0)
(10.3047 0.185159 0)
(10.488 -0.577593 0)
(9.91363 -1.31272 0)
(9.23132 -1.93832 0)
(8.62957 -2.81916 0)
(8.65164 -3.44291 0)
(8.22248 -3.93412 0)
(8.5926 -4.41006 0)
(8.55255 -4.48635 0)
(8.66672 -4.74623 0)
(9.0785 -4.96353 0)
(8.76242 -4.84683 0)
(8.59495 -4.65126 0)
(8.44348 -4.68482 0)
(7.99239 -4.95064 0)
(8.10296 -5.17891 0)
(7.91444 -5.24397 0)
(7.7438 -5.92172 0)
(8.04274 -7.17259 0)
(8.34036 -8.07767 0)
(8.32 -8.16247 0)
(8.06338 -7.74351 0)
(7.75774 -7.19347 0)
(7.54703 -6.75366 0)
(7.40551 -6.50477 0)
(7.45861 -6.1952 0)
(7.52108 -5.52752 0)
(7.52398 -4.48905 0)
(7.3733 -3.21268 0)
(7.29351 -1.86203 0)
(7.31835 -0.45218 0)
(7.17949 0.827744 0)
(7.08518 1.85495 0)
(6.82322 2.5661 0)
(6.6292 3.05147 0)
(6.55916 3.70611 0)
(6.44346 4.65288 0)
(6.45692 5.68701 0)
(6.5436 6.48885 0)
(6.65525 7.02738 0)
(6.69958 7.33245 0)
(6.67079 7.32787 0)
(6.54652 7.09234 0)
(6.48369 7.09723 0)
(6.31127 7.24746 0)
(6.16013 7.20708 0)
(6.09733 6.86474 0)
(5.95391 6.55979 0)
(5.87957 6.2445 0)
(5.7404 6.21369 0)
(5.95386 6.33082 0)
(5.97765 6.64005 0)
(6.3641 6.92407 0)
(6.73533 7.03394 0)
(7.08875 6.80157 0)
(7.40909 6.84665 0)
(8.12954 6.08819 0)
(7.78726 5.79925 0)
(8.89993 4.44803 0)
(8.39958 4.42095 0)
(9.46471 2.94934 0)
(8.36929 2.51877 0)
(9.56953 0.923364 0)
(8.41005 1.03196 0)
(9.61374 -0.354145 0)
(8.2039 0.0202736 0)
(9.27654 -0.905092 0)
(8.08646 -0.992952 0)
(8.36396 -1.43778 0)
(8.23508 -0.542802 0)
(8.64896 -0.612351 0)
(8.29322 0.00488789 0)
(8.7839 -0.120986 0)
(8.62032 0.340097 0)
(9.43979 -0.328897 0)
(9.00638 -0.489019 0)
(9.35089 -1.52316 0)
(8.89388 -1.64711 0)
(9.00616 -2.4123 0)
(8.31057 -2.86423 0)
(8.0904 -3.74193 0)
(7.88361 -3.56087 0)
(8.13667 -3.065 0)
(8.04191 -2.30941 0)
(8.06658 -1.57672 0)
(8.09593 -0.649724 0)
(7.99754 0.241341 0)
(8.02438 1.27388 0)
(7.7871 2.15944 0)
(7.47639 3.10899 0)
(7.35358 4.11149 0)
(6.76962 5.85415 0)
(8.4837 6.66351 0)
(5.44403 11.7845 0)
(5.70013 -0.382212 0)
(6.79043 -0.264468 0)
(6.53852 0.270927 0)
(6.34484 0.454046 0)
(7.14461 0.703203 0)
(8.34253 0.855294 0)
(9.6534 0.390354 0)
(10.5837 -0.388857 0)
(10.6931 -0.939087 0)
(11.235 -1.81405 0)
(12.169 -2.96677 0)
(12.8325 -4.30146 0)
(12.9905 -5.42008 0)
(12.4578 -6.03109 0)
(11.763 -6.29072 0)
(10.371 -6.04302 0)
(9.50813 -5.64251 0)
(8.59017 -5.22575 0)
(7.78111 -4.68254 0)
(7.47052 -4.01866 0)
(6.51521 -3.58782 0)
(6.34991 -3.14566 0)
(5.83254 -2.19842 0)
(4.86919 -1.84385 0)
(4.85625 -1.0516 0)
(5.47541 0.333983 0)
(4.81376 0.534403 0)
(4.04013 1.45333 0)
(5.42237 3.06354 0)
(7.65858 4.68523 0)
(8.73668 5.12656 0)
(10.6079 4.21188 0)
(11.133 3.9794 0)
(11.8801 3.71271 0)
(12.1273 3.04511 0)
(11.7643 3.05246 0)
(12.5003 2.60132 0)
(12.6147 1.76304 0)
(12.5416 1.21298 0)
(12.7342 0.173334 0)
(12.8652 -1.15281 0)
(12.6096 -2.22171 0)
(12.5284 -3.17528 0)
(12.4329 -4.03976 0)
(12.1601 -4.74558 0)
(12.1388 -5.63956 0)
(11.6968 -6.36339 0)
(10.9428 -6.55184 0)
(10.2696 -7.01453 0)
(9.86245 -7.90399 0)
(9.27644 -8.50425 0)
(8.32964 -8.27632 0)
(7.20834 -7.19506 0)
(5.91443 -6.44279 0)
(5.17563 -6.38187 0)
(4.83775 -6.69077 0)
(4.43511 -7.33083 0)
(4.52918 -8.05982 0)
(4.68526 -8.466 0)
(5.0408 -8.87643 0)
(5.33031 -9.13148 0)
(5.96535 -8.60209 0)
(6.18537 -7.64307 0)
(6.52318 -6.46784 0)
(6.64009 -5.23057 0)
(7.13997 -3.59174 0)
(7.31613 -2.05241 0)
(7.25943 -0.731058 0)
(7.75521 0.982389 0)
(7.73953 2.66606 0)
(7.74626 3.59933 0)
(7.42592 4.18012 0)
(7.22188 4.78128 0)
(7.52143 5.6379 0)
(7.91344 6.61258 0)
(8.27156 7.29724 0)
(8.29599 7.39633 0)
(8.31793 7.11461 0)
(8.29639 6.9445 0)
(8.04733 6.5592 0)
(7.91322 5.89498 0)
(7.85196 5.47372 0)
(7.64938 5.04747 0)
(7.67103 4.66532 0)
(7.55908 4.44868 0)
(7.59804 4.36226 0)
(7.27621 4.09507 0)
(7.28955 3.93626 0)
(7.12095 3.70871 0)
(7.22897 3.79998 0)
(7.21395 3.63838 0)
(7.30172 3.66998 0)
(7.17944 3.61489 0)
(7.67549 3.54861 0)
(7.54722 3.35572 0)
(7.85568 3.13224 0)
(7.51099 2.8557 0)
(7.8604 2.7638 0)
(7.90407 2.59117 0)
(8.34535 2.71921 0)
(8.4481 2.23254 0)
(9.07507 1.83747 0)
(9.61874 2.09682 0)
(9.74693 1.72259 0)
(10.1108 0.630365 0)
(10.2373 0.269986 0)
(10.1577 0.172022 0)
(10.2402 -0.485119 0)
(9.47044 -1.02966 0)
(8.8473 -1.71822 0)
(8.4077 -2.69729 0)
(8.39891 -3.36001 0)
(8.15414 -3.96856 0)
(8.50741 -4.47014 0)
(8.40828 -4.52113 0)
(8.60774 -4.84897 0)
(8.9139 -4.96301 0)
(8.40827 -4.74643 0)
(8.29063 -4.56466 0)
(8.07788 -4.58663 0)
(7.68686 -4.9068 0)
(7.78597 -5.12255 0)
(7.55068 -5.21097 0)
(7.56189 -6.00767 0)
(7.89387 -7.28103 0)
(8.04322 -8.08959 0)
(7.86791 -8.08908 0)
(7.51481 -7.63044 0)
(7.21676 -7.09598 0)
(7.01888 -6.70111 0)
(6.84794 -6.48945 0)
(6.89819 -6.1983 0)
(6.90813 -5.48711 0)
(6.87149 -4.40376 0)
(6.68375 -3.17044 0)
(6.55967 -1.80757 0)
(6.56199 -0.410788 0)
(6.55625 0.805935 0)
(6.54612 1.86194 0)
(6.37018 2.65988 0)
(6.23961 3.1784 0)
(6.11052 3.86021 0)
(5.93709 4.80562 0)
(5.95563 5.79228 0)
(6.06061 6.5155 0)
(6.21636 7.03923 0)
(6.29068 7.34052 0)
(6.36906 7.35488 0)
(6.36917 7.13555 0)
(6.23784 7.14494 0)
(6.15298 7.30058 0)
(6.05083 7.26108 0)
(6.00113 6.9017 0)
(5.92267 6.58141 0)
(5.90082 6.26836 0)
(5.80968 6.23007 0)
(6.03127 6.24546 0)
(6.06731 6.55206 0)
(6.51013 6.78456 0)