/*--------------------------------*- C++ -*----------------------------------*\
| =========                 |                                                 |
| \\      /  F ield         | OpenFOAM: The Open Source CFD Toolbox           |
|  \\    /   O peration     | Version:  2.4.0                                 |
|   \\  /    A nd           | Web:      www.OpenFOAM.org                      |
|    \\/     M anipulation  |                                                 |
\*---------------------------------------------------------------------------*/
FoamFile
{
    version     2.0;
    format      ascii;
    class       volScalarField;
    location    "0.295897";
    object      nut;
}
// * * * * * * * * * * * * * * * * * * * * * * * * * * * * * * * * * * * * * //

dimensions      [0 2 -1 0 0 0 0];

internalField   nonuniform List<scalar> 
17600
(
0.000104556
0.00011844
0.000127831
0.000133519
0.000136455
0.000137509
0.000137378
0.000136572
0.000135443
0.000134219
0.000133033
0.000131957
0.000131019
0.000130219
0.000129544
0.000128972
0.000128479
0.000128043
0.000127614
0.000127329
0.000341422
0.000221442
0.000172432
0.000148344
0.000136286
0.000131055
0.000130084
0.000131981
0.0001359
0.000141256
0.00014759
0.000154512
0.000161687
0.000168834
0.000175734
0.000182231
0.000188236
0.000193671
0.000198696
0.00020068
0.000674749
0.000521434
0.000416405
0.000343305
0.000291276
0.000253587
0.000225855
0.000205282
0.000190089
0.000179112
0.000171557
0.000166855
0.000164568
0.000164334
0.000165837
0.000168781
0.000172905
0.000177879
0.000183691
0.000188158
0.000803773
0.000728326
0.00065082
0.000580653
0.00052047
0.000470046
0.000427966
0.000392628
0.00036265
0.000336955
0.000314744
0.000295453
0.000278701
0.00026424
0.000251911
0.0002416
0.000233229
0.000226606
0.000221787
0.000217217
0.000837699
0.000808998
0.000770655
0.000727805
0.000684452
0.000643125
0.00060499
0.000570337
0.000539012
0.000510668
0.000484905
0.000461341
0.000439643
0.000419543
0.000400841
0.000383392
0.000367115
0.000351849
0.000337677
0.000323232
0.000845943
0.000834617
0.00081765
0.000795881
0.000770833
0.000744134
0.000717079
0.000690533
0.000664999
0.00064072
0.000617764
0.000596095
0.000575619
0.000556215
0.00053776
0.000520128
0.000503216
0.000486843
0.000470967
0.00045464
0.000847925
0.000842161
0.000834038
0.000823216
0.000809837
0.000794397
0.000777517
0.000759785
0.000741687
0.00072359
0.000705746
0.00068831
0.000671369
0.000654956
0.000639068
0.000623677
0.000608741
0.000594152
0.000579861
0.000565359
0.000848403
0.00084431
0.000839419
0.000833356
0.000825916
0.000817085
0.000807003
0.000795891
0.000783999
0.000771572
0.000758822
0.000745923
0.000733008
0.000720175
0.00070749
0.000694989
0.000682691
0.000670564
0.000658595
0.000646563
0.000848518
0.000844912
0.000841123
0.000836935
0.000832158
0.000826666
0.00082041
0.000813407
0.000805724
0.00079746
0.000788724
0.000779626
0.000770267
0.000760737
0.000751108
0.000741437
0.000731768
0.00072211
0.000712478
0.00070281
0.000848546
0.000845077
0.00084165
0.000838155
0.00083448
0.000830518
0.000826189
0.000821443
0.000816262
0.000810656
0.000804654
0.000798299
0.000791642
0.000784735
0.000777628
0.000770366
0.000762991
0.000755522
0.000747986
0.000740393
0.000848553
0.000845122
0.000841809
0.00083856
0.000835315
0.000832008
0.000828577
0.000824968
0.000821141
0.000817071
0.000812747
0.000808171
0.000803354
0.000798316
0.000793079
0.000787668
0.000782106
0.000776412
0.000770606
0.00076473
0.000848554
0.000845134
0.000841855
0.00083869
0.000835607
0.000832567
0.000829531
0.000826458
0.000823313
0.000820065
0.000816692
0.000813178
0.000809515
0.0008057
0.000801736
0.00079763
0.000793392
0.000789029
0.000784552
0.00078001
0.000848554
0.000845136
0.000841868
0.000838731
0.000835706
0.00083277
0.0008299
0.000827068
0.000824248
0.000821415
0.000818548
0.000815627
0.000812638
0.000809569
0.000806414
0.000803168
0.00079983
0.000796399
0.000792879
0.000789315
0.000848554
0.000845136
0.00084187
0.000838742
0.000835737
0.000832842
0.000830038
0.000827309
0.000824637
0.000822004
0.000819393
0.000816786
0.00081417
0.000811531
0.000808859
0.000806146
0.000803384
0.000800569
0.000797699
0.000794815
0.000848553
0.000845135
0.00084187
0.000838744
0.000835746
0.000832865
0.000830088
0.000827402
0.000824795
0.000822254
0.000819766
0.000817318
0.000814898
0.000812495
0.000810099
0.000807699
0.000805288
0.000802859
0.000800407
0.000797971
0.000848553
0.000845135
0.000841869
0.000838744
0.000835748
0.000832872
0.000830104
0.000827436
0.000824856
0.000822356
0.000819926
0.000817555
0.000815235
0.000812956
0.000810709
0.000808486
0.000806279
0.000804081
0.000801886
0.000799733
0.000848553
0.000845134
0.000841868
0.000838743
0.000835748
0.000832873
0.000830109
0.000827447
0.000824879
0.000822396
0.000819992
0.000817658
0.000815386
0.00081317
0.000811001
0.000808873
0.00080678
0.000804714
0.000802672
0.000800688
0.000848553
0.000845134
0.000841868
0.000838742
0.000835747
0.000832873
0.00083011
0.00082745
0.000824886
0.000822411
0.000820018
0.0008177
0.000815452
0.000813266
0.000811137
0.000809059
0.000807026
0.000805033
0.000803075
0.000801189
0.000848553
0.000845133
0.000841867
0.000838742
0.000835746
0.000832872
0.000830109
0.000827451
0.000824889
0.000822416
0.000820028
0.000817717
0.000815479
0.000813307
0.000811197
0.000809143
0.00080714
0.000805184
0.000803271
0.000801437
0.000848553
0.000845133
0.000841867
0.000838741
0.000835746
0.000832871
0.000830109
0.000827451
0.000824889
0.000822418
0.000820031
0.000817723
0.000815488
0.000813322
0.000811219
0.000809175
0.000807185
0.000805245
0.00080335
0.000801538
0.000848553
0.000845133
0.000841867
0.000838741
0.000835746
0.000832871
0.000830109
0.000827451
0.000824889
0.000822418
0.000820031
0.000817723
0.000815488
0.000813322
0.000811219
0.000809175
0.000807185
0.000805245
0.000803351
0.000801539
0.000848553
0.000845133
0.000841867
0.000838742
0.000835746
0.000832872
0.000830109
0.000827451
0.000824889
0.000822416
0.000820028
0.000817717
0.000815479
0.000813307
0.000811197
0.000809143
0.000807141
0.000805185
0.000803272
0.000801438
0.000848553
0.000845134
0.000841868
0.000838742
0.000835747
0.000832873
0.00083011
0.00082745
0.000824886
0.000822411
0.000820018
0.0008177
0.000815452
0.000813266
0.000811137
0.000809059
0.000807027
0.000805035
0.000803078
0.000801192
0.000848553
0.000845134
0.000841868
0.000838743
0.000835748
0.000832873
0.000830109
0.000827447
0.000824879
0.000822396
0.000819992
0.000817658
0.000815386
0.00081317
0.000811002
0.000808874
0.000806782
0.000804718
0.000802677
0.000800694
0.000848553
0.000845135
0.000841869
0.000838744
0.000835748
0.000832872
0.000830104
0.000827436
0.000824856
0.000822356
0.000819926
0.000817555
0.000815235
0.000812956
0.00081071
0.000808487
0.000806282
0.000804086
0.000801895
0.000799745
0.000848553
0.000845135
0.00084187
0.000838744
0.000835746
0.000832865
0.000830088
0.000827402
0.000824795
0.000822254
0.000819766
0.000817318
0.000814899
0.000812496
0.0008101
0.000807701
0.000805293
0.000802868
0.000800423
0.000797994
0.000848554
0.000845136
0.00084187
0.000838742
0.000835737
0.000832842
0.000830038
0.000827309
0.000824638
0.000822004
0.000819393
0.000816786
0.00081417
0.000811532
0.000808861
0.00080615
0.000803392
0.000800584
0.000797725
0.000794856
0.000848554
0.000845136
0.000841868
0.000838731
0.000835706
0.00083277
0.0008299
0.000827068
0.000824248
0.000821415
0.000818548
0.000815628
0.000812639
0.000809571
0.000806417
0.000803174
0.000799842
0.000796423
0.000792922
0.000789388
0.000848554
0.000845134
0.000841855
0.00083869
0.000835607
0.000832567
0.000829531
0.000826458
0.000823313
0.000820065
0.000816693
0.000813179
0.000809516
0.000805702
0.000801741
0.000797641
0.000793412
0.000789067
0.000784622
0.000780133
0.000848553
0.000845122
0.000841809
0.00083856
0.000835315
0.000832008
0.000828577
0.000824968
0.000821141
0.000817071
0.000812747
0.000808172
0.000803356
0.00079832
0.000793087
0.000787684
0.000782136
0.000776472
0.000770715
0.000764934
0.000848546
0.000845077
0.00084165
0.000838155
0.00083448
0.000830518
0.000826189
0.000821443
0.000816262
0.000810656
0.000804655
0.000798301
0.000791645
0.000784741
0.00077764
0.00077039
0.000763035
0.000755613
0.000748152
0.000740725
0.000848518
0.000844912
0.000841123
0.000836935
0.000832158
0.000826666
0.00082041
0.000813407
0.000805724
0.00079746
0.000788725
0.000779628
0.000770272
0.000760746
0.000751126
0.000741472
0.000731833
0.000722243
0.000712725
0.00070334
0.000848403
0.00084431
0.000839419
0.000833356
0.000825916
0.000817085
0.000807004
0.000795891
0.000784
0.000771573
0.000758824
0.000745927
0.000733016
0.000720189
0.000707516
0.000695038
0.000682782
0.000670755
0.000658954
0.000647406
0.000847925
0.000842161
0.000834038
0.000823216
0.000809837
0.000794397
0.000777517
0.000759785
0.000741688
0.000723592
0.000705749
0.000688316
0.00067138
0.000654975
0.000639104
0.000623745
0.000608864
0.00059442
0.000580367
0.00056669
0.000845943
0.000834617
0.00081765
0.000795881
0.000770833
0.000744134
0.00071708
0.000690534
0.000665
0.000640722
0.000617769
0.000596103
0.000575633
0.000556241
0.000537806
0.000520216
0.000503374
0.0004872
0.000471632
0.000456642
0.000837699
0.000808998
0.000770655
0.000727805
0.000684452
0.000643125
0.00060499
0.000570338
0.000539014
0.000510671
0.00048491
0.00046135
0.00043966
0.000419574
0.000400895
0.000383491
0.000367286
0.000352248
0.000338376
0.000325679
0.000803773
0.000728326
0.00065082
0.000580653
0.00052047
0.000470046
0.000427966
0.000392629
0.000362652
0.000336958
0.000314749
0.000295462
0.000278716
0.000264265
0.000251953
0.000241674
0.000233344
0.000226877
0.000222179
0.000219103
0.000674749
0.000521434
0.000416405
0.000343305
0.000291277
0.000253588
0.000225855
0.000205283
0.00019009
0.000179113
0.000171559
0.000166859
0.000164574
0.000164344
0.000165851
0.000168806
0.000172938
0.000177994
0.000183748
0.000189954
0.000341422
0.000221442
0.000172432
0.000148344
0.000136286
0.000131055
0.000130085
0.000131981
0.0001359
0.000141256
0.00014759
0.000154511
0.000161685
0.000168831
0.000175729
0.000182224
0.000188223
0.000193688
0.000198626
0.000203047
0.000104556
0.00011844
0.000127831
0.000133519
0.000136455
0.000137509
0.000137378
0.000136572
0.000135444
0.000134219
0.000133034
0.000131958
0.00013102
0.000130222
0.000129549
0.000128981
0.000128494
0.000128069
0.000127687
0.000127333
0.000174102
0.000231281
0.00029609
0.000364136
0.000431367
0.000495407
0.000555578
0.000612348
0.000666676
0.000719485
0.000771434
0.000822895
0.000874056
0.000925017
0.000975863
0.00102669
0.00107759
0.0011287
0.0011801
0.00123189
0.00128412
0.00133687
0.00139019
0.00144413
0.00149876
0.00155415
0.00161036
0.00166744
0.00172545
0.00178443
0.00184443
0.00190548
0.00196762
0.00203085
0.00209521
0.0021607
0.00222731
0.00229504
0.00236387
0.00243376
0.00250469
0.0025766
0.00264945
0.00272317
0.00279769
0.00287295
0.00294886
0.00302536
0.00310234
0.00317974
0.00325746
0.00333541
0.00341351
0.00349168
0.00356982
0.00364787
0.00372573
0.00380334
0.00388062
0.0039575
0.00403392
0.00410982
0.00418514
0.00425983
0.00433385
0.00440715
0.00447969
0.00455144
0.00462237
0.00469245
0.00476167
0.00482999
0.00489741
0.00496392
0.0050295
0.00509415
0.00515786
0.00522063
0.00528247
0.00534337
0.00540335
0.00546239
0.00552052
0.00557774
0.00563405
0.00568947
0.00574401
0.00579768
0.00585049
0.00590245
0.00595357
0.00600388
0.00605336
0.00610205
0.00614996
0.00619708
0.00624344
0.00628905
0.00633392
0.00637807
0.00642149
0.00646421
0.00650623
0.00654756
0.00658823
0.00662823
0.00666757
0.00670628
0.00674435
0.00678179
0.00681863
0.00685486
0.0068905
0.00692556
0.00696005
0.00699398
0.00702735
0.00706019
0.00709249
0.00712428
0.00715556
0.00718634
0.00721664
0.00724647
0.00727584
0.00730477
0.00733326
0.00736134
0.00738901
0.0074163
0.00744321
0.00746977
0.007496
0.0075219
0.00754751
0.00757284
0.00759792
0.00762276
0.00764739
0.00767184
0.00769613
0.0077203
0.00774437
0.00776838
0.00779236
0.00781636
0.00784041
0.00786456
0.00788886
0.00791336
0.00793812
0.00796319
0.00798865
0.00801457
0.00804102
0.0080681
0.0080959
0.00812452
0.00815408
0.00818471
0.00821654
0.00824973
0.00828444
0.00832087
0.00835922
0.0083997
0.00844253
0.00848792
0.00853603
0.00858742
0.00864254
0.00870187
0.00876598
0.00883554
0.00891132
0.00899426
0.00908547
0.00918633
0.00929852
0.0094242
0.0095661
0.00972779
0.00991392
0.0101306
0.0103854
0.010688
0.0110488
0.0114779
0.0119811
0.0125547
0.0131791
0.0138121
0.0143838
0.0147928
0.0148998
0.0145144
0.0133679
0.0110811
0.00732258
0.00136484
0.000203877
0.000211584
0.000225562
0.000247604
0.000278354
0.000317129
0.000362419
0.000412332
0.000464942
0.000518615
0.000572204
0.000625083
0.000677077
0.000728307
0.000779029
0.000829499
0.000879904
0.00093035
0.00098088
0.00103152
0.00108228
0.00113321
0.00118437
0.00123583
0.00128767
0.00133997
0.00139279
0.00144618
0.00150021
0.00155491
0.00161033
0.00166653
0.00172354
0.0017814
0.00184015
0.00189983
0.00196043
0.00202199
0.0020845
0.00214796
0.00221235
0.00227766
0.00234386
0.00241092
0.0024788
0.00254744
0.00261681
0.00268683
0.00275744
0.00282859
0.0029002
0.0029722
0.00304452
0.00311708
0.00318982
0.00326266
0.00333552
0.00340835
0.00348108
0.00355363
0.00362595
0.00369799
0.00376967
0.00384096
0.00391181
0.00398217
0.004052
0.00412126
0.00418993
0.00425796
0.00432535
0.00439205
0.00445806
0.00452335
0.00458792
0.00465174
0.00471482
0.00477714
0.0048387
0.0048995
0.00495953
0.0050188
0.00507731
0.00513505
0.00519205
0.00524829
0.00530378
0.00535854
0.00541256
0.00546586
0.00551843
0.0055703
0.00562146
0.00567192
0.0057217
0.00577079
0.00581921
0.00586696
0.00591405
0.00596049
0.00600628
0.00605144
0.00609597
0.00613987
0.00618316
0.00622584
0.00626791
0.00630939
0.00635028
0.00639059
0.00643032
0.00646949
0.00650809
0.00654614
0.00658365
0.00662061
0.00665705
0.00669296
0.00672837
0.00676326
0.00679766
0.00683158
0.00686502
0.00689799
0.00693051
0.00696259
0.00699423
0.00702546
0.00705628
0.00708672
0.00711677
0.00714647
0.00717583
0.00720486
0.00723358
0.00726202
0.00729019
0.00731812
0.00734583
0.00737334
0.00740069
0.0074279
0.007455
0.00748204
0.00750903
0.00753602
0.00756306
0.00759019
0.00761746
0.00764491
0.00767262
0.00770063
0.00772902
0.00775786
0.00778724
0.00781723
0.00784795
0.00787948
0.00791196
0.0079455
0.00798025
0.00801636
0.00805401
0.00809339
0.00813469
0.00817812
0.00822391
0.00827225
0.0083233
0.0083777
0.00843586
0.00849827
0.0085655
0.00863822
0.00871719
0.00880336
0.00889782
0.00900194
0.00911739
0.00924629
0.00939134
0.00955607
0.00974508
0.0099644
0.0102218
0.010527
0.0108908
0.0113243
0.0118343
0.012419
0.0130601
0.0137166
0.0143189
0.0147655
0.0149168
0.0145835
0.0135023
0.0113435
0.00780591
0.00221064
0.000189567
0.000191166
0.000193414
0.000196997
0.000202744
0.000211524
0.000224374
0.000242275
0.000265916
0.000295579
0.000331006
0.000371586
0.000416405
0.00046438
0.000514422
0.000565576
0.000617113
0.000668575
0.000719752
0.000770628
0.000821298
0.000871897
0.000922551
0.000973347
0.00102434
0.00107555
0.00112699
0.00117868
0.00123066
0.00128297
0.00133568
0.00138883
0.00144248
0.0014967
0.00155152
0.00160698
0.00166312
0.00171997
0.00177754
0.00183586
0.00189494
0.00195478
0.00201539
0.00207676
0.00213887
0.00220171
0.00226523
0.00232942
0.00239424
0.00245963
0.00252555
0.00259196
0.0026588
0.002726
0.00279353
0.00286131
0.00292929
0.00299741
0.00306561
0.00313384
0.00320205
0.00327017
0.00333816
0.00340596
0.00347354
0.00354085
0.00360785
0.00367451
0.00374078
0.00380664
0.00387205
0.003937
0.00400146
0.00406541
0.00412883
0.00419171
0.00425402
0.00431577
0.00437694
0.00443753
0.00449752
0.00455692
0.00461572
0.00467391
0.00473151
0.0047885
0.00484488
0.00490067
0.00495585
0.00501043
0.00506442
0.00511782
0.00517062
0.00522283
0.00527446
0.0053255
0.00537597
0.00542586
0.00547517
0.00552392
0.0055721
0.00561971
0.00566676
0.00571325
0.00575919
0.00580458
0.00584942
0.00589371
0.00593746
0.00598067
0.00602335
0.0060655
0.00610712
0.00614821
0.00618879
0.00622886
0.00626842
0.00630748
0.00634604
0.00638412
0.00642171
0.00645883
0.00649548
0.00653167
0.00656741
0.00660272
0.00663759
0.00667205
0.0067061
0.00673976
0.00677304
0.00680595
0.00683852
0.00687076
0.00690268
0.0069343
0.00696565
0.00699675
0.00702761
0.00705827
0.00708876
0.00711909
0.0071493
0.00717943
0.00720951
0.00723958
0.00726968
0.00729986
0.00733016
0.00736065
0.00739137
0.00742239
0.00745378
0.00748561
0.00751797
0.00755094
0.00758462
0.00761912
0.00765456
0.00769107
0.00772878
0.00776786
0.00780847
0.00785082
0.00789509
0.0079415
0.00799025
0.0080415
0.00809552
0.00815292
0.0082141
0.00827956
0.00834987
0.00842568
0.00850778
0.00859708
0.00869467
0.00880191
0.00892045
0.00905237
0.00920032
0.00936777
0.00955924
0.00978071
0.0100399
0.0103466
0.0107122
0.0111481
0.0116627
0.0122555
0.0129102
0.0135871
0.0142175
0.0147003
0.0148968
0.0146216
0.0136231
0.0116171
0.0083408
0.00330834
0.000216133
0.00021517
0.000214329
0.000213621
0.000213051
0.000212671
0.000212633
0.000213235
0.00021494
0.000218371
0.000224184
0.000233225
0.000246302
0.000264074
0.000286961
0.000315063
0.000348213
0.00038598
0.000427714
0.000472636
0.000519927
0.000568816
0.00061866
0.000668977
0.000719463
0.000769967
0.000820455
0.000870966
0.000921569
0.000972339
0.00102333
0.0010746
0.00112616
0.00117803
0.00123025
0.00128282
0.0013358
0.00138921
0.00144308
0.00149747
0.00155239
0.00160788
0.00166395
0.00172063
0.00177791
0.00183579
0.00189428
0.00195337
0.00201303
0.00207326
0.00213403
0.00219531
0.00225706
0.00231926
0.00238186
0.00244482
0.00250811
0.00257167
0.00263547
0.00269945
0.00276357
0.00282779
0.00289207
0.00295635
0.00302061
0.0030848
0.00314888
0.00321282
0.00327659
0.00334015
0.00340348
0.00346654
0.00352932
0.00359179
0.00365393
0.00371572
0.00377714
0.00383819
0.00389884
0.00395909
0.00401892
0.00407833
0.0041373
0.00419584
0.00425393
0.00431157
0.00436876
0.00442548
0.00448175
0.00453755
0.00459288
0.00464773
0.00470212
0.00475603
0.00480947
0.00486242
0.0049149
0.0049669
0.00501841
0.00506944
0.00511998
0.00517004
0.00521961
0.00526869
0.00531729
0.00536539
0.005413
0.00546012
0.00550675
0.00555289
0.00559853
0.00564369
0.00568836
0.00573254
0.00577623
0.00581944
0.00586217
0.00590441
0.00594619
0.00598749
0.00602832
0.0060687
0.00610862
0.00614808
0.00618711
0.0062257
0.00626387
0.00630162
0.00633897
0.00637592
0.00641249
0.00644869
0.00648453
0.00652004
0.00655523
0.00659011
0.00662471
0.00665904
0.00669314
0.00672701
0.0067607
0.00679423
0.00682762
0.00686092
0.00689415
0.00692736
0.00696059
0.00699389
0.00702729
0.00706087
0.00709467
0.00712875
0.0071632
0.00719808
0.00723347
0.00726947
0.00730618
0.00734369
0.00738214
0.00742165
0.00746236
0.00750444
0.00754805
0.00759339
0.00764065
0.00769004
0.00774174
0.00779586
0.00785287
0.00791326
0.00797744
0.00804592
0.00811925
0.00819811
0.00828324
0.00837558
0.00847619
0.00858641
0.00870786
0.00884259
0.00899318
0.00916302
0.00935655
0.00957964
0.00983996
0.0101473
0.0105131
0.0109497
0.0114664
0.0120645
0.0127294
0.0134234
0.0140791
0.0145966
0.0148394
0.0146283
0.0137285
0.0118937
0.00892454
0.00454802
0.000319091
0.000315183
0.000311501
0.000308024
0.000304682
0.000301393
0.000298074
0.000294645
0.000291047
0.000287256
0.000283273
0.000279197
0.000275251
0.000271809
0.000269382
0.000268482
0.000269885
0.000274377
0.000282655
0.000295268
0.000312574
0.000334719
0.000361631
0.000393042
0.000428512
0.000467485
0.000509335
0.000553436
0.000599206
0.000646153
0.000693898
0.000742174
0.00079082
0.000839755
0.000888959
0.000938445
0.00098824
0.00103837
0.00108888
0.00113976
0.00119106
0.00124277
0.00129491
0.00134751
0.00140056
0.00145409
0.00150811
0.00156264
0.00161766
0.0016732
0.00172924
0.00178577
0.00184279
0.00190028
0.00195821
0.00201657
0.00207533
0.00213446
0.00219394
0.00225372
0.00231379
0.00237411
0.00243463
0.00249534
0.00255619
0.00261716
0.00267821
0.0027393
0.00280042
0.00286153
0.0029226
0.00298361
0.00304453
0.00310534
0.00316601
0.00322654
0.00328689
0.00334705
0.003407
0.00346673
0.00352623
0.00358548
0.00364446
0.00370318
0.00376161
0.00381975
0.00387759
0.00393512
0.00399233
0.00404921
0.00410576
0.00416197
0.00421783
0.00427334
0.00432848
0.00438326
0.00443767
0.00449169
0.00454533
0.00459858
0.00465143
0.00470387
0.00475591
0.00480754
0.00485874
0.00490953
0.00495988
0.00500981
0.0050593
0.00510835
0.00515695
0.00520511
0.00525283
0.00530009
0.00534691
0.00539327
0.00543917
0.00548463
0.00552963
0.00557419
0.00561829
0.00566195
0.00570517
0.00574795
0.00579029
0.00583221
0.00587371
0.0059148
0.00595549
0.00599578
0.00603568
0.00607522
0.0061144
0.00615323
0.00619174
0.00622993
0.00626783
0.00630546
0.00634284
0.00637999
0.00641694
0.00645371
0.00649034
0.00652687
0.00656331
0.00659972
0.00663613
0.0066726
0.00670916
0.00674588
0.00678282
0.00682002
0.00685757
0.00689555
0.00693403
0.0069731
0.00701286
0.00705343
0.00709492
0.00713747
0.00718121
0.00722631
0.00727294
0.00732129
0.00737155
0.00742392
0.00747856
0.00753556
0.00759553
0.00765888
0.00772603
0.00779748
0.00787379
0.00795562
0.00804372
0.00813898
0.0082425
0.00835555
0.00847975
0.00861707
0.00877005
0.00894198
0.00913718
0.00936138
0.00962212
0.00992907
0.010294
0.0107294
0.0112458
0.0118461
0.012518
0.0132255
0.0139035
0.014454
0.014744
0.0146023
0.0138139
0.0121655
0.00952745
0.00582353
0.000449741
0.000445018
0.000440461
0.000436075
0.000431837
0.000427711
0.000423654
0.000419614
0.000415537
0.000411361
0.000407013
0.000402414
0.000397488
0.000392164
0.000386394
0.000380134
0.000373409
0.000366224
0.000358787
0.000351453
0.000344716
0.000339184
0.000335532
0.000334443
0.000336542
0.000342346
0.000352229
0.000366401
0.000384908
0.000407645
0.000434372
0.000464746
0.00049835
0.000534731
0.000573432
0.000614028
0.000656142
0.000699462
0.000743747
0.000788821
0.000834565
0.000880906
0.000927804
0.000975237
0.0010232
0.00107169
0.0011207
0.00117024
0.0012203
0.00127089
0.00132199
0.0013736
0.00142572
0.00147835
0.00153147
0.00158507
0.00163915
0.00169368
0.00174866
0.00180406
0.00185986
0.00191605
0.00197259
0.00202947
0.00208665
0.00214412
0.00220185
0.00225981
0.00231798
0.00237632
0.00243483
0.00249347
0.00255221
0.00261104
0.00266994
0.00272888
0.00278784
0.0028468
0.00290575
0.00296466
0.00302353
0.00308233
0.00314104
0.00319966
0.00325816
0.00331654
0.00337478
0.00343286
0.00349078
0.00354852
0.00360607
0.00366342
0.00372055
0.00377746
0.00383413
0.00389055
0.00394671
0.00400261
0.00405822
0.00411354
0.00416856
0.00422327
0.00427766
0.00433171
0.00438543
0.0044388
0.00449181
0.00454445
0.00459672
0.00464861
0.00470012
0.00475122
0.00480193
0.00485223
0.00490212
0.0049516
0.00500066
0.0050493
0.00509751
0.0051453
0.00519266
0.0052396
0.00528611
0.0053322
0.00537787
0.00542313
0.00546797
0.00551241
0.00555645
0.0056001
0.00564337
0.00568626
0.0057288
0.00577099
0.00581284
0.00585438
0.00589562
0.00593658
0.00597728
0.00601774
0.00605799
0.00609805
0.00613796
0.00617775
0.00621744
0.00625709
0.00629673
0.00633641
0.00637618
0.00641608
0.00645618
0.00649655
0.00653724
0.00657835
0.00661994
0.00666212
0.00670498
0.00674863
0.00679319
0.0068388
0.00688559
0.00693373
0.00698339
0.00703475
0.00708802
0.00714335
0.00720089
0.00726078
0.00732368
0.00738997
0.00746006
0.00753444
0.00761367
0.00769839
0.00778936
0.00788746
0.00799375
0.00810949
0.00823625
0.00837596
0.00853108
0.0087048
0.0089013
0.00912613
0.00938665
0.00969238
0.0100551
0.0104876
0.0110014
0.011601
0.0122762
0.0129937
0.0136908
0.0142724
0.0146099
0.0145417
0.0138737
0.0124223
0.0101179
0.00703768
0.000560956
0.000556682
0.000552508
0.00054844
0.000544474
0.000540597
0.000536796
0.000533054
0.000529354
0.000525674
0.000521992
0.000518278
0.000514501
0.000510621
0.000506596
0.000502372
0.000497892
0.00049307
0.000487786
0.000481958
0.000475521
0.000468435
0.000460709
0.000452418
0.000443722
0.000434879
0.000426247
0.000418276
0.000411479
0.000406396
0.000403555
0.000403428
0.000406403
0.000412764
0.000422678
0.000436202
0.000453288
0.000473801
0.000497537
0.000524242
0.000553631
0.00058541
0.000619293
0.00065501
0.000692324
0.00073103
0.000770958
0.000811973
0.00085397
0.00089687
0.000940612
0.00098515
0.00103045
0.00107648
0.00112322
0.00117064
0.00121873
0.00126746
0.00131681
0.00136677
0.00141731
0.00146842
0.00152007
0.00157224
0.00162491
0.00167807
0.00173168
0.00178572
0.00184018
0.00189503
0.00195025
0.00200581
0.00206169
0.00211787
0.00217433
0.00223104
0.00228799
0.00234515
0.0024025
0.00246001
0.00251768
0.00257548
0.00263339
0.00269139
0.00274947
0.0028076
0.00286577
0.00292396
0.00298215
0.00304033
0.00309847
0.00315657
0.0032146
0.00327255
0.0033304
0.00338813
0.00344574
0.0035032
0.00356049
0.00361761
0.00367454
0.00373126
0.00378776
0.00384402
0.00390003
0.00395578
0.00401126
0.00406644
0.00412132
0.0041759
0.00423014
0.00428406
0.00433763
0.00439085
0.0044437
0.00449619
0.0045483
0.00460003
0.00465137
0.00470232
0.00475287
0.00480303
0.00485278
0.00490213
0.00495108
0.00499963
0.00504779
0.00509555
0.00514292
0.00518991
0.00523652
0.00528276
0.00532864
0.00537418
0.00541939
0.00546427
0.00550885
0.00555315
0.00559718
0.00564096
0.00568452
0.00572789
0.0057711
0.00581417
0.00585714
0.00590004
0.00594293
0.00598584
0.00602883
0.00607194
0.00611523
0.00615878
0.00620264
0.0062469
0.00629163
0.00633693
0.0063829
0.00642965
0.00647729
0.00652597
0.00657582
0.006627
0.00667969
0.00673407
0.00679032
0.00684859
0.00690897
0.00697176
0.00703757
0.00710676
0.00717974
0.00725699
0.00733907
0.00742661
0.00752036
0.00762119
0.00773012
0.0078484
0.00797755
0.00811944
0.00827646
0.00845168
0.00864911
0.00887413
0.00913383
0.00943754
0.00979685
0.0102249
0.0107339
0.0113298
0.0120048
0.0127286
0.0134414
0.0140517
0.0144365
0.0144443
0.0139015
0.012652
0.0106704
0.00812732
0.0006429
0.000639339
0.000635838
0.0006324
0.000629026
0.000625711
0.00062245
0.000619237
0.000616068
0.000612936
0.000609837
0.000606764
0.000603709
0.000600665
0.000597621
0.000594566
0.000591491
0.000588357
0.000585123
0.000581752
0.0005782
0.000574415
0.00057034
0.000565915
0.000561077
0.000555769
0.000549944
0.000543573
0.000536656
0.000529231
0.000521388
0.000513269
0.000505084
0.000497098
0.000489631
0.00048304
0.000477698
0.000473975
0.000472211
0.000472704
0.000475691
0.000481344
0.000489768
0.000501005
0.000515038
0.000531803
0.000551196
0.000573086
0.000597323
0.000623749
0.000652202
0.000682527
0.000714578
0.00074822
0.000783333
0.00081981
0.00085756
0.000896502
0.000936569
0.000977699
0.00101984
0.00106295
0.00110698
0.0011519
0.00119766
0.00124425
0.00129161
0.00133973
0.00138857
0.0014381
0.0014883
0.00153913
0.00159056
0.00164258
0.00169514
0.00174823
0.00180183
0.00185589
0.0019104
0.00196534
0.00202067
0.00207638
0.00213243
0.00218881
0.00224549
0.00230244
0.00235964
0.00241708
0.00247472
0.00253254
0.00259052
0.00264863
0.00270686
0.00276518
0.00282357
0.00288201
0.00294047
0.00299894
0.00305739
0.0031158
0.00317415
0.00323242
0.00329059
0.00334864
0.00340655
0.00346431
0.00352188
0.00357927
0.00363645
0.00369339
0.0037501
0.00380655
0.00386272
0.00391862
0.00397421
0.00402949
0.00408445
0.00413909
0.00419338
0.00424732
0.00430091
0.00435413
0.00440699
0.00445948
0.0045116
0.00456334
0.0046147
0.00466569
0.00471631
0.00476656
0.00481644
0.00486597
0.00491515
0.00496398
0.00501249
0.00506068
0.00510856
0.00515616
0.00520349
0.00525057
0.00529742
0.00534408
0.00539056
0.0054369
0.00548313
0.00552929
0.00557542
0.00562156
0.00566777
0.00571408
0.00576057
0.00580729
0.00585432
0.00590173
0.0059496
0.00599802
0.0060471
0.00609694
0.00614766
0.0061994
0.0062523
0.00630651
0.00636222
0.00641959
0.00647879
0.00653995
0.00660309
0.0066688
0.00673749
0.00680953
0.00688535
0.00696541
0.00705026
0.00714054
0.00723697
0.00734039
0.00745184
0.0075725
0.00770386
0.00784773
0.00800641
0.00818284
0.00838087
0.00860565
0.008864
0.00916494
0.00951984
0.00994191
0.0104439
0.0110333
0.0117047
0.0124309
0.0131559
0.0137922
0.0142232
0.0143076
0.0138913
0.0128429
0.0111649
0.00906687
0.000699864
0.000696999
0.000694166
0.000691369
0.000688607
0.000685881
0.000683188
0.000680526
0.000677895
0.000675291
0.000672715
0.000670165
0.000667641
0.000665143
0.000662669
0.000660221
0.000657803
0.000655395
0.000652992
0.000650586
0.000648169
0.000645728
0.000643248
0.000640711
0.000638093
0.000635369
0.000632507
0.000629474
0.000626233
0.000622743
0.000618968
0.000614869
0.000610418
0.000605593
0.000600387
0.000594813
0.000588908
0.000582735
0.00057639
0.000570003
0.000563735
0.000557775
0.000552337
0.000547649
0.000543947
0.000541461
0.000540409
0.000540986
0.000543363
0.000547676
0.000554031
0.000562501
0.000573128
0.000585925
0.000600885
0.000617977
0.000637155
0.000658363
0.000681533
0.000706594
0.00073347
0.000762087
0.000792369
0.000824244
0.000857641
0.000892495
0.000928742
0.000966324
0.00100518
0.00104527
0.00108653
0.00112892
0.00117238
0.00121689
0.0012624
0.00130885
0.00135622
0.00140447
0.00145356
0.00150344
0.00155409
0.00160546
0.00165752
0.00171024
0.00176359
0.00181751
0.001872
0.001927
0.00198249
0.00203843
0.0020948
0.00215156
0.00220868
0.00226612
0.00232387
0.00238187
0.00244012
0.00249857
0.0025572
0.00261597
0.00267487
0.00273385
0.0027929
0.00285199
0.00291108
0.00297017
0.00302921
0.00308819
0.00314708
0.00320586
0.0032645
0.003323
0.00338132
0.00343945
0.00349736
0.00355506
0.0036125
0.00366969
0.00372661
0.00378324
0.00383957
0.00389559
0.0039513
0.00400669
0.00406174
0.00411646
0.00417084
0.00422487
0.00427857
0.00433192
0.00438492
0.00443759
0.00448993
0.00454194
0.00459363
0.00464502
0.00469611
0.00474692
0.00479747
0.00484777
0.00489785
0.00494772
0.00499742
0.00504698
0.00509642
0.00514578
0.00519511
0.00524443
0.00529382
0.0053433
0.00539295
0.00544282
0.00549298
0.00554351
0.00559449
0.00564601
0.00569817
0.00575107
0.00580485
0.00585962
0.00591554
0.00597275
0.00603144
0.00609176
0.00615386
0.00621783
0.00628374
0.00635229
0.0064238
0.00649863
0.00657722
0.00666001
0.00674755
0.00684046
0.00693945
0.00704536
0.00715917
0.00728205
0.00741544