/*--------------------------------*- C++ -*----------------------------------*\
| =========                 |                                                 |
| \\      /  F ield         | OpenFOAM: The Open Source CFD Toolbox           |
|  \\    /   O peration     | Version:  2.4.0                                 |
|   \\  /    A nd           | Web:      www.OpenFOAM.org                      |
|    \\/     M anipulation  |                                                 |
\*---------------------------------------------------------------------------*/
FoamFile
{
    version     2.0;
    format      ascii;
    class       volVectorField;
    location    "0.065";
    object      UMean;
}
// * * * * * * * * * * * * * * * * * * * * * * * * * * * * * * * * * * * * * //

dimensions      [0 1 -1 0 0 0 0];

internalField   nonuniform List<vector> 
4400
(
(5.47519 0.309407 0)
(3.53071 0.0622527 0)
(2.81424 0.00167125 0)
(2.49386 -0.00244293 0)
(2.36434 -0.00151058 0)
(2.31978 -0.000801548 0)
(2.27876 -0.00019086 0)
(2.29579 -0.000613515 0)
(2.29959 -0.00176623 0)
(2.20038 -0.0449293 0)
(8.65544 0.827809 0)
(7.73079 0.332163 0)
(6.85528 0.109614 0)
(6.20548 0.047841 0)
(5.85229 0.0195988 0)
(5.70897 0.0105394 0)
(5.57169 0.0041014 0)
(5.61338 0.000246477 0)
(5.46771 0.00554837 0)
(5.80831 -0.187596 0)
(9.78155 0.897419 0)
(10.0897 0.453828 0)
(9.61073 0.197924 0)
(8.95318 0.113816 0)
(8.497 0.0578729 0)
(8.28327 0.0326862 0)
(8.08496 0.0129034 0)
(8.10243 0.0109168 0)
(7.9365 -0.0204418 0)
(8.22134 -0.188865 0)
(9.98069 0.768786 0)
(11.1341 0.468169 0)
(11.2565 0.24372 0)
(10.8736 0.173299 0)
(10.4903 0.102216 0)
(10.2629 0.0637047 0)
(10.078 0.0273139 0)
(10.0195 0.0224618 0)
(9.96312 -0.0283155 0)
(9.96146 -0.19167 0)
(9.91058 0.617165 0)
(11.3183 0.408792 0)
(11.8927 0.22479 0)
(11.8778 0.190058 0)
(11.7574 0.132526 0)
(11.5867 0.0866199 0)
(11.5384 0.0500133 0)
(11.3926 0.0237505 0)
(11.4595 -0.0127451 0)
(11.3339 -0.224968 0)
(9.88734 0.490925 0)
(11.239 0.338103 0)
(11.9488 0.171662 0)
(12.131 0.163242 0)
(12.2508 0.126297 0)
(12.247 0.0930345 0)
(12.3279 0.0521597 0)
(12.2802 0.0356543 0)
(12.348 -0.0315944 0)
(12.2922 -0.187715 0)
(9.88146 0.37849 0)
(11.1818 0.269982 0)
(11.8836 0.125909 0)
(12.1241 0.121991 0)
(12.2837 0.10213 0)
(12.4093 0.0726013 0)
(12.5445 0.0478265 0)
(12.6416 0.0208958 0)
(12.7191 -0.0348145 0)
(12.7676 -0.160662 0)
(9.87773 0.262854 0)
(11.1395 0.203403 0)
(11.8388 0.0808786 0)
(12.0887 0.0918125 0)
(12.2458 0.0672052 0)
(12.3903 0.0572191 0)
(12.5428 0.0215024 0)
(12.6712 0.0167158 0)
(12.7765 -0.0637954 0)
(12.8445 -0.163194 0)
(9.87064 0.15907 0)
(11.1165 0.121248 0)
(11.8069 0.0483872 0)
(12.0666 0.0527107 0)
(12.2202 0.042405 0)
(12.3706 0.0284506 0)
(12.5102 0.0123982 0)
(12.6466 -0.00897807 0)
(12.7496 -0.0708245 0)
(12.798 -0.197279 0)
(9.86982 0.0498964 0)
(11.1046 0.0448562 0)
(11.7896 0.0105142 0)
(12.0567 0.0223208 0)
(12.2115 0.00750112 0)
(12.3553 0.0111845 0)
(12.497 -0.00950035 0)
(12.6311 -0.0214777 0)
(12.7289 -0.0893084 0)
(12.7529 -0.213598 0)
(9.87259 -0.0535571 0)
(11.1021 -0.0374185 0)
(11.7892 -0.0202911 0)
(12.0575 -0.0154555 0)
(12.2109 -0.019726 0)
(12.3523 -0.0142 0)
(12.5003 -0.024968 0)
(12.6226 -0.0388079 0)
(12.7196 -0.10586 0)
(12.7276 -0.221931 0)
(9.87511 -0.161656 0)
(11.1136 -0.115152 0)
(11.8048 -0.0562809 0)
(12.0674 -0.0485165 0)
(12.22 -0.0511083 0)
(12.365 -0.0357309 0)
(12.5072 -0.0425447 0)
(12.6275 -0.0557936 0)
(12.7194 -0.119707 0)
(12.7178 -0.228482 0)
(9.88618 -0.268312 0)
(11.1306 -0.193999 0)
(11.8435 -0.0918432 0)
(12.0766 -0.0835246 0)
(12.2531 -0.0810394 0)
(12.377 -0.0572575 0)
(12.534 -0.0605414 0)
(12.6339 -0.070053 0)
(12.7262 -0.132793 0)
(12.6923 -0.233852 0)
(9.89564 -0.379978 0)
(11.1592 -0.26617 0)
(11.9016 -0.131651 0)
(12.0947 -0.118649 0)
(12.3039 -0.111081 0)
(12.3766 -0.0784327 0)
(12.5476 -0.0775974 0)
(12.5711 -0.0833582 0)
(12.6483 -0.141485 0)
(12.5085 -0.233747 0)
(9.89261 -0.494414 0)
(11.2245 -0.333103 0)
(11.9601 -0.178383 0)
(12.1115 -0.157076 0)
(12.2627 -0.138381 0)
(12.2213 -0.0934841 0)
(12.314 -0.0877277 0)
(12.2011 -0.0851311 0)
(12.2107 -0.138672 0)
(11.9233 -0.213422 0)
(9.91723 -0.618717 0)
(11.3049 -0.40582 0)
(11.9045 -0.229193 0)
(11.8575 -0.185776 0)
(11.7717 -0.142677 0)
(11.551 -0.088437 0)
(11.5189 -0.0781469 0)
(11.2875 -0.0716716 0)
(11.2489 -0.121146 0)
(10.8406 -0.173059 0)
(9.98271 -0.77019 0)
(11.1233 -0.466261 0)
(11.2677 -0.246903 0)
(10.8487 -0.169957 0)
(10.5176 -0.111298 0)
(10.1947 -0.0627205 0)
(10.0972 -0.0552153 0)
(9.82452 -0.050706 0)
(9.77579 -0.0948037 0)
(9.28052 -0.121154 0)
(9.78083 -0.897942 0)
(10.084 -0.45281 0)
(9.61736 -0.199616 0)
(8.9346 -0.112306 0)
(8.51803 -0.0630981 0)
(8.21445 -0.033499 0)
(8.10836 -0.0311033 0)
(7.86085 -0.0307454 0)
(7.80996 -0.0636021 0)
(7.2772 -0.0678127 0)
(8.65447 -0.828057 0)
(7.72815 -0.331781 0)
(6.85795 -0.110332 0)
(6.19444 -0.0473924 0)
(5.86229 -0.0219293 0)
(5.6573 -0.0114555 0)
(5.5771 -0.0122545 0)
(5.39987 -0.0144548 0)
(5.34049 -0.0309342 0)
(4.87364 -0.0283573 0)
(5.4746 -0.309451 0)
(3.52997 -0.0621859 0)
(2.81446 -0.00178173 0)
(2.48983 0.00249644 0)
(2.36508 0.00133628 0)
(2.29722 0.000415585 0)
(2.26513 -0.000433756 0)
(2.19229 -0.00143075 0)
(2.14028 -0.00320932 0)
(1.90713 0.0103815 0)
(3.62095 -0.5479 0)
(4.15506 -0.402086 0)
(4.89907 -0.434256 0)
(5.33048 -0.566115 0)
(5.91657 -0.803418 0)
(6.25375 -0.92999 0)
(6.62356 -1.07284 0)
(6.98592 -1.19636 0)
(7.34147 -1.36431 0)
(7.56533 -1.50353 0)
(7.7244 -1.54855 0)
(7.81823 -1.54925 0)
(7.96384 -1.59794 0)
(8.10578 -1.67047 0)
(8.24917 -1.75617 0)
(8.4755 -1.88683 0)
(8.75599 -2.07222 0)
(8.98964 -2.25405 0)
(9.15854 -2.42093 0)
(9.28078 -2.5721 0)
(9.27768 -2.6748 0)
(9.21465 -2.73303 0)
(9.07886 -2.74632 0)
(8.98207 -2.72631 0)
(8.88121 -2.67597 0)
(8.72097 -2.54937 0)
(8.45798 -2.33231 0)
(8.13159 -2.03246 0)
(7.76079 -1.66584 0)
(7.4307 -1.28743 0)
(7.19128 -0.971196 0)
(7.05114 -0.715308 0)
(6.95166 -0.472365 0)
(6.87416 -0.199082 0)
(6.79128 0.079548 0)
(6.71533 0.37185 0)
(6.6347 0.602044 0)
(6.55578 0.819007 0)
(6.50467 0.95975 0)
(6.42106 1.08495 0)
(6.36858 1.11114 0)
(6.27968 1.14288 0)
(6.25438 1.07218 0)
(6.1633 1.06245 0)
(6.15478 0.896028 0)
(6.0222 0.86558 0)
(6.05604 0.600862 0)
(5.82739 0.581757 0)
(5.94223 0.266268 0)
(5.68376 0.344138 0)
(5.80946 -0.0137947 0)
(5.56661 0.189377 0)
(5.72025 -0.183438 0)
(5.46249 0.137762 0)
(5.64983 -0.252244 0)
(5.39275 0.162004 0)
(5.60201 -0.270219 0)
(5.35226 0.206317 0)
(5.57744 -0.27657 0)
(5.33006 0.245857 0)
(5.5724 -0.284282 0)
(5.31955 0.281423 0)
(5.58088 -0.296024 0)
(5.31954 0.315219 0)
(5.59836 -0.306507 0)
(5.32813 0.344998 0)
(5.62409 -0.311255 0)
(5.34264 0.374862 0)
(5.65562 -0.314198 0)
(5.36545 0.406798 0)
(5.68909 -0.308289 0)
(5.39883 0.434485 0)
(5.72388 -0.287613 0)
(5.43973 0.465822 0)
(5.75587 -0.25577 0)
(5.49095 0.499748 0)
(5.77927 -0.200385 0)
(5.54288 0.53805 0)
(5.79033 -0.124291 0)
(5.58872 0.586222 0)
(5.77633 -0.0213176 0)
(5.60844 0.642136 0)
(5.73371 0.107222 0)
(5.58131 0.709229 0)
(5.64925 0.272959 0)
(5.49251 0.798478 0)
(5.53637 0.470177 0)
(5.35447 0.924204 0)
(5.4283 0.711542 0)
(5.23458 1.12077 0)
(5.38544 1.01923 0)
(5.25003 1.47882 0)
(5.44272 1.44393 0)
(5.35718 2.13324 0)
(5.49178 2.04305 0)
(5.15463 3.09186 0)
(5.91388 3.06723 0)
(5.03919 5.02333 0)
(5.9737 5.43824 0)
(3.46646 9.77778 0)
(5.9761 -0.590313 0)
(6.22814 -0.544363 0)
(6.57078 -0.609291 0)
(6.76946 -0.734437 0)
(7.12329 -0.954337 0)
(7.36805 -1.08665 0)
(7.63423 -1.21442 0)
(7.86686 -1.33552 0)
(8.10077 -1.47563 0)
(8.20311 -1.58415 0)
(8.27047 -1.62613 0)
(8.35549 -1.62293 0)
(8.54818 -1.66402 0)
(8.75754 -1.74154 0)
(8.95163 -1.83812 0)
(9.16965 -1.97529 0)
(9.38408 -2.15096 0)
(9.50953 -2.30882 0)
(9.5906 -2.459 0)
(9.59709 -2.58064 0)
(9.48063 -2.63779 0)
(9.35205 -2.6793 0)
(9.21151 -2.70268 0)
(9.09585 -2.68403 0)
(8.91556 -2.60416 0)
(8.65136 -2.43451 0)
(8.29529 -2.18685 0)
(7.90749 -1.8742 0)
(7.5086 -1.5167 0)
(7.17738 -1.17133 0)
(6.94698 -0.895921 0)
(6.80849 -0.668525 0)
(6.70474 -0.434378 0)
(6.6207 -0.163189 0)
(6.53181 0.117862 0)
(6.46072 0.406596 0)
(6.38224 0.630571 0)
(6.32392 0.845549 0)
(6.28725 0.978849 0)
(6.22568 1.10864 0)
(6.19263 1.12874 0)
(6.12684 1.1674 0)
(6.1214 1.0858 0)
(6.04468 1.087 0)
(6.07183 0.909703 0)
(5.9329 0.894597 0)
(6.02784 0.623688 0)
(5.78378 0.619572 0)
(5.9224 0.278595 0)
(5.67794 0.387717 0)
(5.81016 -0.00622672 0)
(5.55617 0.231353 0)
(5.72791 -0.186797 0)
(5.44831 0.181667 0)
(5.6549 -0.268401 0)
(5.37383 0.206235 0)
(5.60738 -0.297901 0)
(5.32533 0.251834 0)
(5.58846 -0.313931 0)
(5.29439 0.294959 0)
(5.58955 -0.330783 0)
(5.27631 0.335741 0)
(5.60187 -0.351808 0)
(5.26901 0.375783 0)
(5.62254 -0.371401 0)
(5.26689 0.412726 0)
(5.65459 -0.386135 0)
(5.26865 0.451258 0)
(5.69457 -0.400814 0)
(5.27907 0.492876 0)
(5.74264 -0.408806 0)
(5.2967 0.531771 0)
(5.80166 -0.404027 0)
(5.32542 0.574817 0)
(5.86673 -0.389757 0)
(5.36994 0.620768 0)
(5.93766 -0.351024 0)
(5.42731 0.669676 0)
(6.0068 -0.287512 0)
(5.50013 0.729894 0)
(6.05749 -0.189005 0)
(5.57527 0.799827 0)
(6.07021 -0.0540891 0)
(5.63601 0.886749 0)
(6.01228 0.120085 0)
(5.64739 0.998239 0)
(5.85637 0.321582 0)
(5.58141 1.14981 0)
(5.59617 0.539498 0)
(5.4495 1.36365 0)
(5.33661 0.785249 0)
(5.36589 1.71379 0)
(5.3624 1.16462 0)
(5.44369 2.35638 0)
(5.78866 1.93711 0)
(5.2927 3.43148 0)
(5.74594 2.8032 0)
(4.86162 5.14415 0)
(8.15117 4.63953 0)
(5.68142 10.2278 0)
(8.22435 -0.545551 0)
(8.23016 -0.597378 0)
(8.43599 -0.694776 0)
(8.55198 -0.813553 0)
(8.71966 -1.00556 0)
(8.83995 -1.14507 0)
(8.94523 -1.26554 0)
(9.02788 -1.38118 0)
(9.10296 -1.49926 0)
(9.10381 -1.58613 0)
(9.10366 -1.63686 0)
(9.14995 -1.67308 0)
(9.31067 -1.73586 0)
(9.50677 -1.82358 0)
(9.6644 -1.9176 0)
(9.80934 -2.03878 0)
(9.90373 -2.18677 0)
(9.90319 -2.31813 0)
(9.89035 -2.44982 0)
(9.77322 -2.54107 0)
(9.59713 -2.57985 0)
(9.45705 -2.62668 0)
(9.30916 -2.65152 0)
(9.12976 -2.60966 0)
(8.83948 -2.48738 0)
(8.47361 -2.28018 0)
(8.04725 -2.01539 0)
(7.62231 -1.70261 0)
(7.20907 -1.36569 0)
(6.87988 -1.05814 0)
(6.65471 -0.822303 0)
(6.5152 -0.618171 0)
(6.40838 -0.392107 0)
(6.32317 -0.125929 0)
(6.23955 0.152837 0)
(6.18084 0.435347 0)
(6.10735 0.655696 0)
(6.07012 0.868516 0)
(6.04441 0.994531 0)
(6.00568 1.1273 0)
(5.99063 1.13855 0)
(5.9507 1.1831 0)
(5.96533 1.0902 0)
(5.90762 1.10046 0)
(5.96022 0.915447 0)
(5.8339 0.910445 0)
(5.95499 0.635939 0)
(5.74358 0.650047 0)
(5.86587 0.285806 0)
(5.66216 0.420974 0)
(5.78639 0.00303965 0)
(5.54923 0.265632 0)
(5.71105 -0.185128 0)
(5.4476 0.216652 0)
(5.64025 -0.277043 0)
(5.37407 0.240329 0)
(5.59379 -0.317048 0)
(5.32837 0.285669 0)
(5.57217 -0.342554 0)
(5.30145 0.329825 0)
(5.5678 -0.368043 0)
(5.28579 0.373623 0)
(5.57351 -0.397854 0)
(5.28052 0.418279 0)
(5.58668 -0.425589 0)
(5.2785 0.459773 0)
(5.61307 -0.448226 0)
(5.27661 0.504697 0)
(5.64936 -0.473467 0)
(5.28303 0.554742 0)
(5.69497 -0.493189 0)
(5.29468 0.602201 0)
(5.7575 -0.503153 0)
(5.31603 0.656635 0)
(5.83538 -0.509003 0)
(5.35522 0.714428 0)
(5.93522 -0.493206 0)
(5.41381 0.775713 0)
(6.05818 -0.458485 0)
(5.50452 0.848321 0)
(6.1976 -0.384878 0)
(5.62676 0.930553 0)
(6.34449 -0.267087 0)
(5.77588 1.04132 0)
(6.46344 -0.0896697 0)
(5.91501 1.18133 0)
(6.50698 0.143733 0)
(5.96663 1.36185 0)
(6.40411 0.421306 0)
(5.82459 1.57723 0)
(6.12726 0.706297 0)
(5.47264 1.85684 0)
(5.92172 1.0168 0)
(5.24863 2.34946 0)
(6.49668 1.55524 0)
(5.62526 3.58356 0)
(7.748 2.66312 0)
(4.74262 5.59754 0)
(8.72745 3.96713 0)
(6.67614 10.2553 0)
(10.0724 -0.58372 0)
(9.95328 -0.679019 0)
(10.0275 -0.773614 0)
(10.1117 -0.870713 0)
(10.1759 -1.01778 0)
(10.2093 -1.15743 0)
(10.201 -1.27932 0)
(10.1707 -1.38978 0)
(10.1316 -1.48956 0)
(10.0781 -1.56764 0)
(10.0597 -1.62855 0)
(10.0752 -1.69211 0)
(10.1313 -1.77595 0)
(10.2085 -1.87406 0)
(10.2516 -1.9645 0)
(10.28 -2.0684 0)
(10.2557 -2.18275 0)
(10.1588 -2.28729 0)
(10.0526 -2.39698 0)
(9.85543 -2.47095 0)
(9.67946 -2.51695 0)
(9.53547 -2.56934 0)
(9.33512 -2.57088 0)
(9.05282 -2.48889 0)
(8.6473 -2.32526 0)
(8.20384 -2.09401 0)
(7.73211 -1.82585 0)
(7.28391 -1.52509 0)
(6.86106 -1.21528 0)
(6.53627 -0.946723 0)
(6.31415 -0.747223 0)
(6.17231 -0.563905 0)
(6.06159 -0.346167 0)
(5.97494 -0.0860576 0)
(5.90062 0.186719 0)
(5.86005 0.458123 0)
(5.80188 0.671664 0)
(5.79279 0.879339 0)
(5.78009 1.00027 0)
(5.7705 1.13694 0)
(5.77366 1.13848 0)
(5.76344 1.19196 0)
(5.79808 1.08698 0)
(5.75727 1.10829 0)
(5.84398 0.914205 0)
(5.71586 0.920233 0)
(5.87545 0.636428 0)
(5.67889 0.676488 0)
(5.81675 0.287994 0)
(5.61347 0.45075 0)
(5.7642 0.00540286 0)
(5.5136 0.301035 0)
(5.6974 -0.189843 0)
(5.41609 0.25501 0)
(5.63211 -0.291557 0)
(5.34317 0.279583 0)
(5.58813 -0.342864 0)
(5.29824 0.325681 0)
(5.56693 -0.378587 0)
(5.26965 0.372177 0)
(5.56488 -0.412625 0)
(5.24917 0.420926 0)
(5.57346 -0.45125 0)
(5.2382 0.472186 0)
(5.58878 -0.487719 0)
(5.22906 0.520667 0)
(5.61856 -0.51972 0)
(5.21729 0.574672 0)
(5.65666 -0.556584 0)
(5.21285 0.634471 0)
(5.70261 -0.588312 0)
(5.20787 0.692529 0)
(5.76951 -0.612228 0)
(5.20625 0.759934 0)
(5.8539 -0.634607 0)
(5.2154 0.832676 0)
(5.97088 -0.639354 0)
(5.23374 0.911776 0)
(6.12855 -0.631329 0)
(5.27969 1.00372 0)
(6.33876 -0.593328 0)
(5.36062 1.10258 0)
(6.61365 -0.516294 0)
(5.50291 1.22399 0)
(6.94621 -0.377982 0)
(5.71209 1.37099 0)
(7.29849 -0.15652 0)
(5.96229 1.57862 0)
(7.55322 0.166539 0)
(6.1359 1.87602 0)
(7.51305 0.555273 0)
(5.98879 2.26479 0)
(6.9522 0.890081 0)
(5.3257 2.8243 0)
(6.38974 1.00159 0)
(4.87306 3.68869 0)
(8.47236 1.9285 0)
(5.6332 5.53153 0)
(11.0705 2.79615 0)
(8.09113 9.63012 0)
(11.4439 -0.511916 0)
(11.3753 -0.60704 0)
(11.3262 -0.740948 0)
(11.3204 -0.866141 0)
(11.3053 -1.00132 0)
(11.2677 -1.13804 0)
(11.1963 -1.25866 0)
(11.097 -1.36031 0)
(11.0058 -1.45434 0)
(10.9278 -1.54057 0)
(10.8806 -1.61802 0)
(10.8414 -1.68848 0)
(10.7893 -1.7663 0)
(10.7432 -1.85877 0)
(10.6716 -1.94817 0)
(10.5856 -2.0452 0)
(10.4561 -2.14163 0)
(10.2927 -2.23563 0)
(10.1107 -2.33162 0)
(9.90203 -2.40537 0)
(9.74381 -2.45982 0)
(9.54735 -2.49165 0)
(9.24694 -2.44663 0)
(8.84705 -2.32105 0)
(8.35105 -2.12873 0)
(7.86156 -1.88997 0)
(7.36088 -1.62977 0)
(6.89835 -1.34523 0)
(6.47025 -1.06423 0)
(6.15255 -0.835292 0)
(5.93327 -0.668893 0)
(5.7908 -0.506933 0)
(5.68172 -0.302195 0)
(5.59889 -0.0514602 0)
(5.53412 0.216037 0)
(5.50783 0.478217 0)
(5.46683 0.685065 0)
(5.48516 0.883136 0)
(5.48564 0.998959 0)
(5.51076 1.13623 0)
(5.53325 1.1269 0)
(5.55664 1.18913 0)
(5.61358 1.07356 0)
(5.59207 1.1056 0)
(5.70808 0.907242 0)
(5.59791 0.922262 0)
(5.76098 0.629247 0)
(5.61748 0.695796 0)
(5.73716 0.288996 0)
(5.57957 0.475785 0)
(5.70668 0.00995754 0)
(5.49925 0.330335 0)
(5.6552 -0.185796 0)
(5.41298 0.285063 0)
(5.60103 -0.293116 0)
(5.34841 0.307216 0)
(5.5638 -0.353356 0)
(5.3055 0.351215 0)
(5.54796 -0.396885 0)
(5.27593 0.39816 0)
(5.54807 -0.438604 0)
(5.25701 0.450488 0)
(5.55326 -0.486867 0)
(5.24744 0.506715 0)
(5.56373 -0.531836 0)
(5.23783 0.558842 0)
(5.58729 -0.572331 0)
(5.22721 0.61965 0)
(5.61543 -0.622076 0)
(5.22359 0.6876 0)
(5.65176 -0.665449 0)
(5.21629 0.751813 0)
(5.70764 -0.703348 0)
(5.21258 0.829436 0)
(5.77537 -0.744145 0)
(5.21527 0.911202 0)
(5.8725 -0.767039 0)
(5.21973 1.00253 0)
(6.00516 -0.785614 0)
(5.24037 1.11056 0)
(6.19305 -0.780026 0)
(5.27821 1.23174 0)
(6.46651 -0.755856 0)
(5.36401 1.38032 0)
(6.86818 -0.693669 0)
(5.52831 1.5476 0)
(7.45533 -0.576041 0)
(5.83456 1.76175 0)
(8.26021 -0.342923 0)
(6.27966 2.04766 0)
(9.22598 0.0545005 0)
(6.68029 2.47422 0)
(10.0989 0.661396 0)
(6.4164 3.13251 0)
(10.3579 1.38071 0)
(4.80104 3.98433 0)
(9.95908 1.74452 0)
(4.50537 6.03344 0)
(10.3039 1.55097 0)
(8.89112 8.90977 0)
(12.3441 -0.50366 0)
(12.2948 -0.652491 0)
(12.2155 -0.783477 0)
(12.1603 -0.899797 0)
(12.0997 -1.00458 0)
(12.0055 -1.11062 0)
(11.8885 -1.21694 0)
(11.751 -1.31236 0)
(11.6327 -1.41209 0)
(11.517 -1.50298 0)
(11.4101 -1.587 0)
(11.2973 -1.6557 0)
(11.1675 -1.72033 0)
(11.0408 -1.80142 0)
(10.8935 -1.8892 0)
(10.7211 -1.98335 0)
(10.5264 -2.07732 0)
(10.3299 -2.16614 0)
(10.1296 -2.25532 0)
(9.94261 -2.33187 0)
(9.75088 -2.3777 0)
(9.44324 -2.3658 0)
(9.02743 -2.26987 0)
(8.52834 -2.11341 0)
(7.97858 -1.90982 0)
(7.46451 -1.6761 0)
(6.94289 -1.42771 0)
(6.47059 -1.1613 0)
(6.04373 -0.913812 0)
(5.73541 -0.724579 0)
(5.51942 -0.590109 0)
(5.37524 -0.446822 0)
(5.26904 -0.255552 0)
(5.19874 -0.0192041 0)
(5.15145 0.236254 0)
(5.14221 0.487981 0)
(5.12296 0.689157 0)
(5.1661 0.877057 0)
(5.1824 0.98859 0)
(5.24545 1.12451 0)
(5.2863 1.10425 0)
(5.34457 1.17595 0)
(5.42044 1.04828 0)
(5.4215 1.09289 0)
(5.56034 0.88641 0)
(5.47113 0.916354 0)
(5.64457 0.606016 0)
(5.52904 0.704819 0)
(5.66194 0.277215 0)
(5.51293 0.492354 0)
(5.66308 0.00581713 0)
(5.44563 0.35336 0)
(5.6317 -0.187409 0)
(5.36927 0.311304 0)
(5.59024 -0.300038 0)
(5.30858 0.334146 0)
(5.55952 -0.368047 0)
(5.26774 0.3795 0)
(5.54673 -0.418672 0)
(5.24065 0.429122 0)
(5.54622 -0.468317 0)
(5.2244 0.486576 0)
(5.54873 -0.525026 0)
(5.21368 0.548505 0)
(5.56034 -0.577402 0)
(5.19845 0.606713 0)
(5.58398 -0.627245 0)
(5.18227 0.675817 0)
(5.61204 -0.688825 0)
(5.16984 0.752872 0)
(5.65266 -0.743547 0)
(5.151 0.827314 0)
(5.71159 -0.796815 0)
(5.13504 0.917704 0)
(5.7829 -0.854194 0)
(5.12038 1.01071 0)
(5.88703 -0.895231 0)
(5.10366 1.11521 0)
(6.02149 -0.93509 0)
(5.0946 1.23645 0)
(6.20856 -0.9505 0)
(5.0814 1.37537 0)
(6.46775 -0.948563 0)
(5.07349 1.54953 0)
(6.84755 -0.907535 0)
(5.05774 1.7574 0)
(7.43291 -0.833297 0)
(5.06079 2.00912 0)
(8.37661 -0.695402 0)
(5.13338 2.29401 0)
(9.84433 -0.449303 0)
(5.4536 2.67213 0)
(11.8267 0.0129411 0)
(6.07826 3.2382 0)
(13.6765 0.662382 0)
(6.72471 4.26426 0)
(13.6934 1.08856 0)
(7.32966 6.17944 0)
(10.7691 1.29006 0)
(8.86769 8.15121 0)
(12.7477 -0.508981 0)
(12.7077 -0.662625 0)
(12.6529 -0.751834 0)
(12.5921 -0.839774 0)
(12.4917 -0.928183 0)
(12.3603 -1.02692 0)
(12.2181 -1.14001 0)
(12.0708 -1.24756 0)
(11.9284 -1.35585 0)
(11.7749 -1.4465 0)
(11.6203 -1.529 0)
(11.4558 -1.59632 0)
(11.2814 -1.65588 0)
(11.11 -1.73215 0)
(10.9241 -1.81951 0)
(10.719 -1.91009 0)
(10.5225 -2.00338 0)
(10.3314 -2.08679 0)
(10.1413 -2.17177 0)
(9.93014 -2.23976 0)
(9.6352 -2.25497 0)
(9.19788 -2.19075 0)
(8.68656 -2.05401 0)
(8.11826 -1.885 0)
(7.54183 -1.68441 0)
(7.01614 -1.46043 0)
(6.48284 -1.22472 0)
(6.011 -0.978811 0)
(5.59517 -0.765672 0)
(5.29985 -0.616109 0)
(5.09408 -0.5165 0)
(4.95415 -0.394532 0)
(4.8495 -0.217971 0)
(4.78878 0.00774267 0)
(4.75822 0.252295 0)
(4.76518 0.493024 0)
(4.76847 0.686952 0)
(4.83008 0.863313 0)
(4.8656 0.970764 0)
(4.97012 1.10095 0)
(5.03078 1.07332 0)
(5.12712 1.15375 0)
(5.22156 1.0174 0)
(5.24814 1.07593 0)
(5.40846 0.864098 0)
(5.34626 0.908291 0)
(5.51642 0.58533 0)
(5.45199 0.710783 0)
(5.56632 0.272526 0)
(5.46519 0.504876 0)
(5.59296 0.0131665 0)
(5.41912 0.36939 0)
(5.58015 -0.175068 0)
(5.35857 0.327138 0)
(5.54981 -0.290641 0)
(5.31201 0.349354 0)
(5.52252 -0.365013 0)
(5.28193 0.392223 0)
(5.51082 -0.421615 0)
(5.25849 0.441546 0)
(5.50956 -0.477626 0)
(5.24224 0.501858 0)
(5.51143 -0.540249 0)
(5.22928 0.566934 0)
(5.5211 -0.597994 0)
(5.21334 0.629646 0)
(5.53815 -0.655692 0)
(5.19858 0.705136 0)
(5.55883 -0.726695 0)
(5.18403 0.788166 0)
(5.58974 -0.79186 0)
(5.16551 0.869133 0)
(5.63286 -0.859894 0)
(5.14809 0.968427 0)
(5.68894 -0.933979 0)
(5.12898 1.06966 0)
(5.7706 -0.993973 0)
(5.10881 1.1854 0)
(5.87469 -1.0574 0)
(5.09242 1.31579 0)
(6.01951 -1.09559 0)
(5.07187 1.45867 0)
(6.20757 -1.12096 0)
(5.05452 1.62858 0)
(6.45561 -1.10329 0)
(5.01703 1.82625 0)
(6.77135 -1.04807 0)
(4.9445 2.08319 0)
(7.18773 -0.937357 0)
(4.79797 2.44265 0)
(7.77437 -0.781411 0)
(4.69127 2.96541 0)
(8.74419 -0.526936 0)
(5.09196 3.65881 0)
(10.2394 -0.141404 0)
(6.63007 4.72174 0)
(11.8488 0.342149 0)
(8.67917 6.33086 0)
(12.4906 1.67491 0)
(9.65258 7.25053 0)
(12.7696 -0.461905 0)
(12.7406 -0.623934 0)
(12.7074 -0.730612 0)
(12.639 -0.820139 0)
(12.5223 -0.907407 0)
(12.396 -1.00549 0)
(12.2577 -1.11499 0)
(12.1099 -1.2171 0)
(11.9507 -1.3128 0)
(11.7781 -1.39328 0)
(11.5986 -1.4654 0)
(11.4106 -1.53089 0)
(11.2209 -1.59069 0)
(11.0453 -1.66537 0)
(10.8617 -1.75006 0)
(10.6782 -1.83646 0)
(10.5013 -1.9272 0)
(10.3108 -2.01058 0)
(10.0809 -2.08057 0)
(9.77702 -2.11213 0)
(9.35143 -2.07551 0)
(8.80985 -1.96447 0)
(8.23675 -1.81023 0)
(7.62696 -1.64754 0)
(7.04687 -1.45602 0)
(6.51604 -1.24081 0)
(5.97727 -1.01913 0)
(5.51899 -0.799365 0)
(5.12186 -0.623204 0)
(4.84605 -0.511397 0)
(4.65172 -0.440472 0)
(4.52641 -0.342737 0)
(4.43718 -0.189641 0)
(4.39603 0.0188368 0)
(4.38698 0.251921 0)
(4.41351 0.483158 0)
(4.44045 0.670859 0)
(4.51424 0.837111 0)
(4.56865 0.937775 0)
(4.70605 1.05885 0)
(4.78289 1.02699 0)
(4.91308 1.11367 0)
(5.01906 0.96828 0)
(5.07462 1.04125 0)
(5.24333 0.820463 0)
(5.21967 0.885086 0)
(5.37704 0.542084 0)
(5.35717 0.701894 0)
(5.47129 0.247115 0)
(5.39253 0.505511 0)
(5.53102 0.0040849 0)
(5.36464 0.376494 0)
(5.54188 -0.175185 0)
(5.32189 0.337153 0)
(5.52553 -0.290054 0)
(5.2874 0.357671 0)
(5.50748 -0.36683 0)
(5.26028 0.399881 0)
(5.50264 -0.42504 0)
(5.23692 0.451411 0)
(5.50593 -0.484992 0)
(5.22228 0.517038 0)
(5.50835 -0.553743 0)
(5.21108 0.586897 0)
(5.51582 -0.617827 0)
(5.19382 0.655137 0)
(5.53084 -0.685141 0)
(5.17688 0.739069 0)
(5.54936 -0.766734 0)
(5.15868 0.83014 0)
(5.57963 -0.841859 0)
(5.13396 0.920409 0)
(5.62261 -0.922738 0)
(5.10986 1.03071 0)
(5.68028 -1.00995 0)
(5.08137 1.14191 0)
(5.76167 -1.08875 0)
(5.05267 1.27077 0)
(5.86659 -1.17606 0)
(5.02333 1.41245 0)
(6.0116 -1.24099 0)
(4.99216 1.57212 0)
(6.19635 -1.29963 0)
(4.96635 1.7531 0)
(6.44055 -1.31654 0)
(4.94541 1.95244 0)
(6.73495 -1.30313 0)
(4.9474 2.18323 0)
(7.06945 -1.23293 0)
(5.01125 2.49434 0)
(7.35686 -1.12804 0)
(5.19916 2.95973 0)
(7.48999 -1.01387 0)
(5.62925 3.75965 0)
(7.61846 -0.949431 0)
(6.53019 5.06321 0)
(8.93279 -0.445513 0)
(8.03381 6.33485 0)
(11.6885 1.64553 0)
(10.3609 6.62239 0)
(12.7067 -0.443635 0)
(12.6827 -0.574999 0)
(12.6658 -0.66936 0)
(12.6101 -0.748798 0)
(12.5097 -0.833491 0)
(12.3887 -0.927491 0)
(12.2384 -1.03104 0)
(12.0746 -1.12809 0)
(11.902 -1.2207 0)
(11.7241 -1.3042 0)
(11.5424 -1.37791 0)
(11.365 -1.44908 0)
(11.1913 -1.51492 0)
(11.0333 -1.58987 0)
(10.8612 -1.67224 0)
(10.6832 -1.75735 0)
(10.4829 -1.84419 0)
(10.2322 -1.91554 0)
(9.89773 -1.94889 0)
(9.46493 -1.92819 0)
(8.91919 -1.84661 0)
(8.31101 -1.71306 0)
(7.70101 -1.5625 0)
(7.0736 -1.41303 0)
(6.4994 -1.22618 0)
(5.95871 -1.01858 0)
(5.42605 -0.817479 0)
(4.9981 -0.627303 0)
(4.63046 -0.489227 0)
(4.37795 -0.415938 0)
(4.18916 -0.375727 0)
(4.07406 -0.296379 0)
(3.99859 -0.160958 0)
(3.97907 0.0289018 0)
(3.9964 0.247807 0)
(4.05103 0.468441 0)
(4.11204 0.6509 0)
(4.20736 0.808192 0)
(4.288 0.900768 0)
(4.45476 1.013 0)
(4.55107 0.984651 0)
(4.71554 1.0744 0)
(4.8335 0.925538 0)
(4.92279 1.01175 0)
(5.0982 0.783498 0)
(5.11341 0.865357 0)
(5.26463 0.512456 0)
(5.28536 0.693857 0)
(5.38102 0.235349 0)
(5.35461 0.502434 0)
(5.46442 0.0120496 0)
(5.34837 0.372247 0)
(5.48928 -0.154404 0)
(5.32228 0.329675 0)
(5.48118 -0.265872 0)
(5.29827 0.350056 0)
(5.46444 -0.344347 0)
(5.28203 0.39119 0)
(5.45423 -0.402371 0)
(5.26753 0.440828 0)
(5.45134 -0.464196 0)
(5.25693 0.507622 0)
(5.44809 -0.534946 0)
(5.24735 0.579396 0)
(5.45002 -0.600342 0)
(5.23095 0.650549 0)
(5.45892 -0.670965 0)
(5.21368 0.738125 0)
(5.471 -0.75828 0)
(5.19472 0.833778 0)
(5.49296 -0.843052 0)
(5.17079 0.930776 0)
(5.52414 -0.938124 0)
(5.1463 1.04944 0)
(5.5676 -1.0429 0)
(5.11721 1.17243 0)
(5.62883 -1.14191 0)
(5.08737 1.3145 0)
(5.70941 -1.25019 0)
(5.05595 1.47079 0)
(5.81842 -1.33984 0)
(5.02364 1.64335 0)
(5.95739 -1.43083 0)
(4.99475 1.84148 0)
(6.13605 -1.49306 0)
(4.97139 2.07248 0)
(6.34401 -1.53277 0)
(4.96801 2.35975 0)
(6.58383 -1.52601 0)
(5.03366 2.73494 0)
(6.84316 -1.50641 0)
(5.26983 3.23434 0)
(7.13725 -1.48796 0)
(5.84563 3.99501 0)
(7.49669 -1.39375 0)
(6.77276 5.03265 0)
(8.19109 -0.777707 0)
(7.78575 5.91947 0)
(9.84661 1.1738 0)
(10.4269 5.89507 0)
(12.6498 -0.408531 0)
(12.6249 -0.509362 0)
(12.6057 -0.599377 0)
(12.547 -0.690467 0)
(12.4427 -0.787043 0)
(12.3029 -0.882683 0)
(12.138 -0.981935 0)
(11.9757 -1.07708 0)
(11.8191 -1.16908 0)
(11.6644 -1.25325 0)
(11.5081 -1.32555 0)
(11.3536 -1.39575 0)
(11.1935 -1.45914 0)
(11.0246 -1.52564 0)
(10.8251 -1.59867 0)
(10.5955 -1.67192 0)
(10.3134 -1.73896 0)
(9.95627 -1.77686 0)
(9.49841 -1.76677 0)
(8.94018 -1.70419 0)
(8.31588 -1.59438 0)
(7.68494 -1.45234 0)
(7.07312 -1.3139 0)
(6.45644 -1.17264 0)
(5.89622 -0.986658 0)
(5.35911 -0.796164 0)
(4.85573 -0.625206 0)
(4.46796 -0.463824 0)
(4.13443 -0.363636 0)
(3.91486 -0.330309 0)
(3.74766 -0.322135 0)
(3.64611 -0.26574 0)
(3.57832 -0.151007 0)
(3.56975 0.0198805 0)
(3.60345 0.221907 0)
(3.67843 0.428756 0)
(3.76952 0.605643 0)
(3.88569 0.754548 0)
(3.99051 0.839519 0)
(4.17572 0.941752 0)
(4.28684 0.91923 0)
(4.48193 1.00674 0)
(4.60846 0.859547 0)
(4.73727 0.955222 0)
(4.91418 0.725429 0)
(4.97748 0.822566 0)
(5.11196 0.462867 0)
(5.19504 0.669752 0)
(5.25697 0.201981 0)
(5.2916 0.487158 0)
(5.37954 0.00205374 0)
(5.30621 0.361867 0)
(5.43127 -0.149123 0)
(5.30187 0.319713 0)
(5.43753 -0.253776 0)
(5.29205 0.339128 0)
(5.4286 -0.330422 0)
(5.28621 0.377288 0)
(5.42345 -0.386275 0)
(5.27702 0.425605 0)
(5.42622 -0.448304 0)
(5.26588 0.495593 0)
(5.42843 -0.520106 0)
(5.25577 0.569816 0)
(5.43155 -0.584445 0)
(5.24046 0.643229 0)
(5.43879 -0.65692 0)
(5.22413 0.73646 0)
(5.44884 -0.745192 0)
(5.20442 0.836927 0)
(5.46787 -0.829483 0)
(5.17998 0.940886 0)
(5.4954 -0.929766 0)
(5.15321 1.06685 0)
(5.53801 -1.04091 0)
(5.12102 1.19667 0)
(5.59637 -1.15615 0)
(5.0891 1.34943 0)
(5.67657 -1.29097 0)
(5.05608 1.51765 0)
(5.7845 -1.4205 0)
(5.02583 1.71351 0)
(5.92082 -1.55374 0)
(5.00725 1.9375 0)
(6.08837 -1.65803 0)
(5.01863 2.19333 0)
(6.27453 -1.74854 0)
(5.08668 2.49475 0)
(6.4645 -1.81026 0)
(5.26943 2.88624 0)
(6.62925 -1.86477 0)
(5.61308 3.40986 0)
(6.77685 -1.85794 0)
(6.18126 4.11223 0)
(7.02733 -1.60531 0)
(6.94253 4.927 0)
(7.5975 -0.731537 0)
(7.8751 5.41176 0)
(8.59076 0.964421 0)
(9.98764 5.06255 0)
(12.6161 -0.373023 0)
(12.5873 -0.453746 0)
(12.5732 -0.543961 0)
(12.5233 -0.640437 0)
(12.4253 -0.739835 0)
(12.2893 -0.833064 0)
(12.1402 -0.927605 0)
(11.9928 -1.01647 0)
(11.8436 -1.09965 0)
(11.6847 -1.17687 0)
(11.5174 -1.24227 0)
(11.3363 -1.30417 0)
(11.1413 -1.35957 0)
(10.918 -1.41547 0)
(10.6559 -1.47493 0)
(10.3398 -1.52779 0)
(9.9492 -1.56261 0)
(9.47356 -1.56652 0)
(8.89085 -1.52325 0)
(8.24775 -1.43899 0)
(7.59674 -1.3225 0)
(6.97 -1.19003 0)
(6.36865 -1.07409 0)
(5.77586 -0.94087 0)
(5.26231 -0.757576 0)
(4.76791 -0.58239 0)
(4.30847 -0.440281 0)
(3.96537 -0.314437 0)
(3.66806 -0.251296 0)
(3.49025 -0.239875 0)
(3.3481 -0.249908 0)
(3.26582 -0.214851 0)
(3.21403 -0.121046 0)
(3.2203 0.0282867 0)
(3.27284 0.211544 0)
(3.37172 0.402204 0)
(3.49471 0.568949 0)
(3.63679 0.705594 0)
(3.77049 0.787077 0)
(3.96834 0.87879 0)
(4.09186 0.860997 0)
(4.30953 0.942677 0)
(4.44456 0.80162 0)
(4.60608 0.899494 0)
(4.78059 0.676108 0)
(4.88854 0.776238 0)
(5.00526 0.423018 0)
(5.14287 0.64014 0)
(5.16801 0.17977 0)
(5.2637 0.462461 0)
(5.3113 0.00503905 0)
(5.30078 0.337819 0)
(5.37333 -0.12444 0)
(5.31842 0.292116 0)
(5.38065 -0.220235 0)
(5.32168 0.310289 0)
(5.37417 -0.294505 0)
(5.32586 0.34582 0)
(5.36476 -0.346437 0)
(5.32682 0.3892 0)
(5.35905 -0.404249 0)
(5.32074 0.456476 0)
(5.35305 -0.473483 0)
(5.31426 0.530077 0)
(5.34459 -0.536685 0)
(5.30387 0.603482 0)
(5.34067 -0.607925 0)
(5.28827 0.696133 0)
(5.34386 -0.69533 0)
(5.27008 0.798214 0)
(5.35334 -0.782767 0)
(5.24824 0.904891 0)
(5.37136 -0.883773 0)
(5.22261 1.03463 0)
(5.40018 -0.996551 0)
(5.19426 1.17477 0)
(5.43914 -1.11409 0)
(5.16509 1.33962 0)
(5.49728 -1.25095 0)
(5.13441 1.52657 0)
(5.57659 -1.39604 0)
(5.10772 1.73449 0)
(5.68476 -1.56376 0)
(5.0942 1.97573 0)
(5.82213 -1.72983 0)
(5.11227 2.26498 0)
(5.9896 -1.8963 0)
(5.18927 2.62255 0)
(6.18306 -2.02134 0)
(5.38544 3.0577 0)
(6.40887 -2.08871 0)
(5.76178 3.55235 0)
(6.68455 -2.03463 0)
(6.36237 4.13328 0)
(7.06021 -1.63248 0)
(7.12641 4.68528 0)
(7.66248 -0.685047 0)
(8.06839 4.73319 0)
(8.67413 1.01594 0)
(9.66702 4.13029 0)
(12.5969 -0.344009 0)
(12.5633 -0.403583 0)
(12.5433 -0.480311 0)
(12.4856 -0.57031 0)
(12.3788 -0.669828 0)
(12.2417 -0.767635 0)
(12.0887 -0.865951 0)
(11.9246 -0.953307 0)
(11.75 -1.03268 0)
(11.5603 -1.10443 0)
(11.3558 -1.16395 0)
(11.1313 -1.21448 0)
(10.8835 -1.25856 0)
(10.5949 -1.29891 0)
(10.2553 -1.3392 0)
(9.83956 -1.36271 0)
(9.34051 -1.36107 0)
(8.75229 -1.32826 0)
(8.09367 -1.26041 0)
(7.42409 -1.16901 0)
(6.7557 -1.05451 0)
(6.12189 -0.935868 0)
(5.51785 -0.839966 0)
(4.95823 -0.721599 0)
(4.52016 -0.552036 0)
(4.08651 -0.395202 0)
(3.68257 -0.288838 0)
(3.40078 -0.198697 0)
(3.15475 -0.173363 0)
(3.01439 -0.191334 0)
(2.8969 -0.220658 0)
(2.83311 -0.199084 0)
(2.794 -0.120753 0)
(2.81133 0.010329 0)
(2.87872 0.176747 0)
(2.99822 0.352504 0)
(3.15197 0.51058 0)
(3.32543 0.636718 0)
(3.49883 0.717542 0)
(3.71511 0.798474 0)
(3.8665 0.789116 0)
(4.11133 0.8609 0)
(4.26075 0.732501 0)
(4.46019 0.823037 0)
(4.63308 0.621599 0)
(4.79044 0.711034 0)
(4.89465 0.378846 0)
(5.09035 0.601676 0)
(5.06914 0.148933 0)
(5.24035 0.433035 0)
(5.23317 -0.00149581 0)
(5.29716 0.312532 0)
(5.30511 -0.11098 0)
(5.33321 0.266519 0)
(5.31726 -0.198359 0)
(5.34641 0.284529 0)
(5.31811 -0.269345 0)
(5.35906 0.317139 0)
(5.30684 -0.316534 0)
(5.36962 0.355212 0)
(5.29766 -0.368938 0)
(5.36555 0.419127 0)
(5.29569 -0.434544 0)
(5.35734 0.49065 0)
(5.29051 -0.492665 0)
(5.34909 0.559576 0)
(5.28776 -0.55833 0)
(5.33357 0.648976 0)
(5.29305 -0.64197 0)
(5.31462 0.749048 0)
(5.30143 -0.724656 0)
(5.29478 0.854819 0)
(5.31789 -0.824001 0)
(5.26993 0.987388 0)
(5.34504 -0.937971 0)
(5.24411 1.13053 0)
(5.38402 -1.06088 0)
(5.2162 1.3008 0)
(5.44158 -1.20772 0)
(5.18966 1.49425 0)
(5.51852 -1.35833 0)