/*--------------------------------*- C++ -*----------------------------------*\
| =========                 |                                                 |
| \\      /  F ield         | OpenFOAM: The Open Source CFD Toolbox           |
|  \\    /   O peration     | Version:  2.4.0                                 |
|   \\  /    A nd           | Web:      www.OpenFOAM.org                      |
|    \\/     M anipulation  |                                                 |
\*---------------------------------------------------------------------------*/
FoamFile
{
    version     2.0;
    format      ascii;
    class       volScalarField;
    location    "0.037";
    object      p;
}
// * * * * * * * * * * * * * * * * * * * * * * * * * * * * * * * * * * * * * //

dimensions      [0 2 -2 0 0 0 0];

internalField   nonuniform List<scalar> 
4400
(
106.111
85.8561
78.2951
75.0051
72.4701
70.3265
67.7269
65.4924
63.337
60.8201
104.173
85.9242
78.3326
75.0174
72.4723
70.3258
67.73
65.482
63.352
60.8264
102.954
86.2429
78.468
75.0569
72.4932
70.3344
67.7371
65.4675
63.3987
60.9042
102.216
86.6305
78.6486
75.1144
72.5399
70.3575
67.7592
65.4564
63.4651
61.0622
101.621
86.9867
78.8291
75.1721
72.6064
70.395
67.8016
65.4567
63.5529
61.2684
101.107
87.2861
78.9855
75.2144
72.6718
70.4322
67.8594
65.4659
63.6538
61.4982
100.68
87.5302
79.1159
75.2354
72.7249
70.4634
67.9197
65.4829
63.7151
61.7888
100.348
87.7177
79.2196
75.2496
72.761
70.4826
67.9708
65.5179
63.7218
61.9626
100.119
87.851
79.2899
75.2537
72.7876
70.4916
68.014
65.5447
63.7448
62.2501
100
87.9254
79.3231
75.2562
72.806
70.4877
68.0464
65.5767
63.7892
62.3607
99.9917
87.9403
79.3197
75.2567
72.8166
70.4755
68.0687
65.6117
63.821
62.4438
100.094
87.8941
79.2809
75.2536
72.821
70.454
68.0849
65.6488
63.8498
62.499
100.308
87.7873
79.2049
75.2495
72.8178
70.4221
68.0865
65.6859
63.8844
62.5364
100.63
87.6219
79.0933
75.2341
72.8055
70.3833
68.0771
65.72
63.9232
62.5399
101.052
87.3962
78.952
75.2065
72.7804
70.3363
68.0576
65.7501
63.9642
62.537
101.564
87.1088
78.7855
75.1598
72.7394
70.2866
68.0357
65.7748
64.003
62.5335
102.157
86.7579
78.6004
75.0982
72.6898
70.2436
68.0196
65.7955
64.0308
62.5483
102.889
86.3737
78.4193
75.0392
72.6513
70.2185
68.0137
65.8121
64.0481
62.5769
104.102
86.0558
78.2837
75.0009
72.632
70.2101
68.014
65.8218
64.0539
62.6215
106.036
85.9874
78.2454
74.9908
72.629
70.209
68.0155
65.8246
64.0539
62.7286
62.1434
62.4594
63.5357
64.1349
61.2952
58.6637
56.2076
49.0434
38.9964
31.935
27.4856
24.1903
21.2248
20.1867
23.4961
31.1861
39.4238
45.142
47.7696
47.9612
49.1708
53.2635
59.1314
65.1746
71.0248
76.8043
81.614
85.0667
87.5413
89.2112
90.2325
90.9266
91.4664
91.867
92.1206
92.2612
92.3337
92.3684
92.3816
92.3815
92.3726
92.3574
92.3378
92.315
92.29
92.2632
92.2354
92.2065
92.1771
92.1467
92.1164
92.0838
92.0531
92.0163
91.9863
91.9389
91.9127
91.839
91.8234
91.6866
91.6975
91.4314
91.5247
91.0806
91.4355
90.9569
91.7823
91.4977
92.4062
92.0803
92.4562
91.9303
92.076
91.486
91.9642
91.5045
92.2452
91.6665
92.2614
91.4967
92.1115
91.5588
92.301
91.6421
92.0579
91.5436
91.9325
91.3485
91.5742
90.8782
90.952
90.1311
90.0373
88.7694
88.6454
86.2077
86.0634
80.1468
79.0252
50.2603
61.9341
62.3846
63.4387
64.0506
60.5285
57.5695
56.5467
50.325
39.8789
32.2011
29.7707
27.3792
24.2636
22.9353
26.0275
33.1527
40.2889
45.1641
47.6897
47.7689
48.3125
51.5257
56.4462
61.7509
67.4777
73.8303
79.4903
83.6261
86.5823
88.5901
89.8076
90.5933
91.1888
91.6404
91.9421
92.123
92.227
92.2858
92.3175
92.3316
92.3335
92.3267
92.3136
92.2959
92.2748
92.2511
92.2256
92.1986
92.1705
92.141
92.1114
92.0793
92.0489
92.0118
91.9821
91.9337
91.9083
91.8316
91.8174
91.6724
91.6809
91.3911
91.4591
90.9633
91.2487
90.7435
91.5166
91.356
92.2294
92.0174
92.2767
91.6657
91.7958
91.1012
91.6727
91.1363
91.9906
91.2136
92.0228
90.9647
91.872
91.0693
92.2256
91.0727
91.9105
90.9649
91.9021
90.8287
91.458
90.2975
90.6663
89.4406
89.4383
87.6078
87.7789
84.3146
84.4314
75.9239
74.7446
42.9838
61.7479
62.221
63.2484
63.8142
59.9009
56.6645
56.8698
51.4418
40.6852
33.4816
32.0719
30.3791
27.3646
26.0759
29.0702
35.4763
41.4497
45.5041
47.7434
47.4888
47.0793
49.34
53.6832
58.3804
63.7639
70.4911
77.0371
82.0132
85.5585
87.9524
89.392
90.2818
90.9309
91.426
91.7698
91.9879
92.1222
92.2049
92.2549
92.2829
92.2955
92.297
92.2902
92.2773
92.26
92.2393
92.2161
92.1908
92.1641
92.1355
92.1067
92.0749
92.0449
92.0077
91.9784
91.9293
91.9047
91.8267
91.8138
91.6665
91.6719
91.3765
91.4107
90.9065
91.079
90.6177
91.2549
91.2709
92.0299
91.917
91.9617
91.2659
91.3266
90.6016
91.2906
90.7167
91.6491
90.6819
91.6316
90.3588
91.4669
90.465
91.918
90.2977
91.5551
90.0782
91.6561
89.9491
91.2464
89.3649
90.4069
88.6496
88.8797
86.4339
86.6855
82.1917
82.7099
72.314
69.6847
40.7997
61.5437
62.0211
63.0016
63.3756
59.4661
56.1368
56.996
52.3266
41.8832
35.3503
34.6272
33.259
30.6645
29.7729
32.5267
38.0256
42.8231
46.0169
47.7267
47.0524
45.6931
46.5361
50.1055
54.5097
59.7872
66.8877
74.3451
80.2597
84.4784
87.2959
88.9774
89.9837
90.688
91.2224
91.604
91.8572
92.021
92.1269
92.1947
92.2362
92.259
92.2682
92.2675
92.2594
92.2457
92.2279
92.2069
92.1833
92.1579
92.1302
92.1021
92.0707
92.0411
92.004
91.975
91.9257
91.9019
91.8242
91.8131
91.6691
91.6735
91.3898
91.3937
90.9187
90.9568
90.565
90.9761
91.1239
91.6874
91.5798
91.4175
90.5884
90.7132
90.0077
90.8834
90.3072
91.2764
90.2123
91.1346
89.8425
90.9984
89.8961
91.367
89.4933
90.9564
89.0675
91.1726
88.7387
90.8336
87.9888
90.1567
87.1858
88.3186
85.0764
85.2736
80.115
80.2641
69.2859
64.0373
41.2727
61.3365
61.7954
62.7674
62.898
59.2492
56.0119
56.882
53.088
43.7203
37.9223
37.4371
36.2368
34.2001
33.8527
36.3203
40.7781
44.4024
46.7713
47.788
46.4033
44.1566
43.4701
45.7932
49.8063
55.2486
63.0208
71.4928
78.3981
83.3396
86.6136
88.5545
89.6872
90.4506
91.0243
91.4428
91.73
91.9227
92.0517
92.1373
92.192
92.2247
92.2414
92.2463
92.2425
92.2323
92.2171
92.1982
92.1761
92.1519
92.1252
92.0977
92.0668
92.0376
92.0007
91.9719
91.9231
91.8998
91.8242
91.8143
91.6797
91.6838
91.4296
91.4072
90.9915
90.8905
90.5494
90.6562
90.8023
91.0996
90.9302
90.6648
89.8328
90.0865
89.4744
90.4888
89.9973
90.8697
89.8353
90.4843
89.3244
90.4631
89.3443
90.5536
88.6479
90.1122
88.1309
90.2446
87.4402
89.6691
86.2627
89.3242
85.0571
87.3709
82.8293
84.7069
78.3493
77.6221
67.052
57.0227
41.3147
61.2277
61.6345
62.4414
62.3425
59.2402
56.2911
56.6761
53.7886
46.1149
41.0157
40.4534
39.4992
37.8298
37.8654
40.165
43.661
46.1661
47.6721
47.9171
45.6964
42.4253
40.2766
41.2145
44.6332
50.2596
58.8577
68.5197
76.5113
82.1904
85.9043
88.1098
89.3871
90.2214
90.8384
91.2935
91.6127
91.832
91.9821
92.0836
92.1504
92.1921
92.2156
92.2259
92.2263
92.2194
92.2067
92.1898
92.1693
92.1463
92.1205
92.0937
92.0633
92.0343
91.9978
91.9692
91.9211
91.8981
91.8259
91.8172
91.6957
91.7013
91.4864
91.4474
91.1036
90.8759
90.56
90.2922
90.3507
90.3013
90.1171
89.8841
89.2412
89.6321
89.1875
90.0773
89.7582
90.3695
89.3551
89.8114
88.7844
89.8232
88.8039
89.6377
87.7455
89.2163
87.3728
89.149
86.2712
88.2785
84.7582
87.7268
82.6909
85.3702
79.5914
82.96
74.8039
74.3311
65.1221
52.2671
41.9612
61.3035
61.6066
61.9696
61.6953
59.3765
56.8327
56.5957
54.499
48.6797
44.2256
43.5344
42.8797
41.451
41.6403
43.7473
46.4728
48.09
48.8325
48.1417
45.0525
40.7852
37.2197
36.8381
39.5799
45.1143
54.6826
65.5331
74.6021
81.0282
85.2157
87.6931
89.0972
89.9955
90.6607
91.1556
91.5058
91.7495
91.9191
92.0356
92.1135
92.1634
92.1931
92.208
92.212
92.2078
92.1974
92.1822
92.1631
92.1411
92.1161
92.0899
92.06
92.0313
91.9953
91.9668
91.9199
91.8967
91.8289
91.8199
91.7144
91.7202
91.5517
91.502
91.239
90.9075
90.6089
89.9451
89.8617
89.4565
89.3015
89.2904
88.9179
89.4063
89.0452
89.686
89.3829
89.7237
88.8427
89.1634
88.2906
89.1964
88.1864
88.6424
86.9607
88.3474
86.7052
88.0717
85.4385
87.0385
83.8411
86.0631
81.1631
83.0883
76.8496
79.2377
69.7278
69.3058
60.628
49.8518
42.9699
62.2086
61.9483
61.6198
61.0746
59.5053
57.4045
56.7896
55.3333
50.8815
47.0423
46.4595
46.2408
45.0726
45.2374
47.0645
49.2391
50.2622
50.4378
48.8337
44.6855
39.5017
34.7441
33.1965
35.2586
40.6624
50.8585
62.7301
72.8238
79.9472
84.5277
87.2448
88.8059
89.7985
90.5208
91.0523
91.4255
91.6849
91.8669
91.9935
92.0796
92.1362
92.1712
92.1905
92.198
92.1967
92.1885
92.175
92.1573
92.1363
92.1121
92.0864
92.0571
92.0287
91.9932
91.9646
91.9192
91.8953
91.8322
91.8215
91.7317
91.7357
91.6119
91.5605
91.3768
90.9863
90.7025
89.69
89.4646
88.6586
88.6507
88.9215
88.8664
89.372
89.0122
89.2867
88.9289
89.0064
88.4171
88.6122
87.8805
88.4321
87.4725
87.705
86.2861
87.4226
85.8804
86.7965
84.3799
85.7282
82.7666
84.1483
79.9085
80.7252
74.9284
75.1277
66.651
64.4566
56.8688
48.9836
42.5648
62.5667
62.2427
61.3854
60.7185
59.7073
57.9304
57.1662
56.2381
52.8171
49.5059
49.1314
49.3903
48.5294
48.6222
50.3084
52.1276
52.6813
52.2602
49.8292
44.7412
38.723
33.1711
30.6247
31.9345
37.1554
47.7881
60.4428
71.2705
78.9135
83.8989
86.9087
88.6071
89.6425
90.4005
90.9661
91.3618
91.6363
91.8295
91.9642
92.0559
92.1167
92.155
92.1771
92.1869
92.1875
92.181
92.1689
92.1522
92.1321
92.1086
92.0834
92.0545
92.0263
91.9915
91.9627
91.919
91.8938
91.8356
91.8209
91.7456
91.7426
91.6615
91.6081
91.5097
91.0986
90.8535
89.5825
89.2501
88.0025
88.2556
88.7184
89.0512
89.4822
89.1204
88.9315
88.5155
88.3321
88.1036
88.1958
87.5211
87.6592
86.7712
86.8299
85.7302
86.4966
84.9362
85.3112
83.202
84.4035
81.4172
81.8298
78.0808
78.1965
73.024
70.8493
65.3921
61.4981
55.8211
48.64
41.6527
62.8891
62.5157
61.273
60.5243
59.9195
58.4072
57.6122
57.1397
54.6163
51.8685
51.609
52.1178
51.6327
51.8439
53.5354
55.1159
55.2479
54.2669
50.9848
45.0752
38.3462
32.3291
29.2005
29.7631
34.6196
45.5421
58.67
70.0066
78.1519
83.5112
86.6834
88.4217
89.5007
90.31
90.9056
91.314
91.5941
91.7922
91.9325
92.0298
92.0954
92.1378
92.1632
92.1758
92.1786
92.1738
92.1631
92.1475
92.1282
92.1054
92.0806
92.0523
92.0242
91.9902
91.961
91.9192
91.8923
91.8389
91.8186
91.7557
91.7414
91.6954
91.6395
91.6228
91.2273
91.0492
89.6529
89.2658
87.6166
88.1151
88.6178
89.3496
89.6703
89.413
88.7761
88.2607
87.9428
87.8848
87.9813
87.3016
87.0317
86.2405
86.0255
85.3161
85.555
84.0094
83.7862
82.1816
82.874
80.0095
79.3899
76.3767
75.6758
71.52
68.2763
65.088
60.4929
56.7809
48.5429
41.8492
63.116
62.7236
61.2197
60.4535
60.2143
58.8754
57.9918
57.9619
56.3439
54.1026
53.851
54.5422
54.4327
54.8226
56.538
58.013
57.8509
56.3467
52.3507
45.6344
38.3118
32.0281
28.6085
28.6643
33.2019
44.2158
57.5616
69.2065
77.6507
83.2044
86.5012
88.3444
89.4981
90.3153
90.8912
91.2888
91.5678
91.7679
91.9113
92.012
92.0808
92.1259
92.1533
92.1676
92.1719
92.1683
92.1585
92.1437
92.125
92.1027
92.0783
92.0504
92.0224
91.9892
91.9597
91.9198
91.891
91.8425
91.8157
91.7642
91.7346
91.7183
91.6477
91.7122
91.3447
91.2829
89.8954
89.5365
87.5996
88.2313
88.5791
89.6666
89.8814
89.8925
88.8895
88.4095
87.7417
87.8276
87.9837
87.3605
86.6207
85.9795
85.5472
85.1014
84.7958
83.3398
82.5033
81.349
81.2281
78.8139
77.3137
75.1703
73.6863
70.6733
67.2853
65.6245
60.6504
58.2995
49.1489
43.3713
63.2166
62.9038
61.3199
60.444
60.6137
59.4977
58.6565
58.8899
57.7747
56.019
55.921
56.8972
57.1527
57.6499
59.3341
60.6315
60.2339
58.2301
53.7052
46.4302
38.6223
32.2619
28.7074
28.4489
32.8632
43.9196
57.2122
68.7866
77.3298
83.0607
86.488
88.4071
89.58
90.3746
90.9275
91.3104
91.5777
91.7679
91.9046
92.002
92.0698
92.1153
92.1441
92.1599
92.1656
92.1632
92.1544
92.1404
92.1223
92.1005
92.0763
92.0489
92.021
91.9885
91.9586
91.9207
91.8901
91.8467
91.8139
91.7735
91.7284
91.7359
91.6434
91.7741
91.4315
91.528
90.2759
90.0477
88.0065
88.633
88.6049
89.9545
90.0434
90.4135
89.1909
88.9284
87.6951
87.9865
88.1252
87.7078
86.6073
86.1047
85.5576
85.2125
84.4399
83.2393
81.9169
81.0121
80.1491
78.4186
76.3047
74.7058
72.7543
71.0369
67.5039
66.9002
61.355
59.6888
50.4862
44.9651
63.2366
62.954
61.3745
60.9871
61.2064
60.2142
59.2454
59.5877
59.1351
58.0065
57.9973
58.8987
59.3989
60.1982
61.8874
62.8856
62.2192
59.8675
54.9252
47.3401
39.278
32.9949
29.498
29.0964
33.4429
44.3167
57.3453
68.7361
77.3718
83.1787
86.6077
88.5329
89.6853
90.437
90.9512
91.3103
91.5668
91.7538
91.8907
91.9897
92.0597
92.1074
92.1378
92.1548
92.1614
92.1598
92.1515
92.138
92.1202
92.0988
92.0748
92.0478
92.0198
91.9882
91.9579
91.9219
91.8899
91.8515
91.8141
91.7851
91.7267
91.7548
91.6337
91.8157
91.4735
91.7628
90.7011
90.7537
88.781
89.3321
88.7436
90.2012
90.1111
90.8153
89.5909
89.7131
87.9185
88.3932
88.3073
88.3678
87.0099
86.7925
85.7779
85.7424
84.5283
83.8664
82.014
81.3986
79.8566
78.8873
76.3138
75.3954
72.7435
72.4833
68.4998
68.647
62.4762
60.8093
52.1149
46.0565
63.1664
62.9497
61.4956
60.7247
61.5717
60.8755
59.9684
60.2844
60.1888
59.6061
59.8153
60.6359
61.1904
62.0854
63.698
64.559
63.7838
61.2384
56.0208
48.2734
40.2014
34.1741
30.9096
30.5007
34.756
45.2204
57.945
69.1752
77.7495
83.4205
86.7581
88.6515
89.7747
90.4958
90.9859
91.329
91.5751
91.7551
91.8878
91.9846
92.0537
92.1015
92.1325
92.1504
92.1579
92.1569
92.1492
92.1361
92.1187
92.0975
92.0737
92.0469
92.0191
91.988
91.9575
91.9233
91.8904
91.8567
91.8164
91.7984
91.731
91.7768
91.628
91.8434
91.4801
91.9478
91.0785
91.5184
89.7874
90.2893
89.0882
90.4598
90.1054
91.105
89.9294
90.6433
88.4704
88.897
88.4328
89.1503
87.6958
87.9126
86.1303
86.6857
84.9993
85.178
82.5597
82.6159
80.2248
80.3987
77.0264
77.3394
73.6667
74.508
69.827
70.2922
63.6104
61.6222
53.4484
46.7583
63.0519
62.8404
61.5642
61.3672
62.1531
61.443
60.4955
60.9872
61.2144
60.8518
61.1024
61.9858
62.619
63.3542
64.7441
65.5758
64.8163
62.1712
56.9277
49.2436
41.3372
35.6654
32.6911
32.5293
36.8449
46.748
58.95
69.9081
78.2055
83.6467
86.8929
88.7627
89.8676
90.563
91.0272
91.3504
91.5837
91.7566
91.886
91.9817
92.0509
92.0991
92.1305
92.1487
92.1564
92.1556
92.1481
92.1351
92.1178
92.0968
92.0731
92.0465
92.0186
91.988
91.9575
91.9247
91.8914
91.8614
91.8202
91.8111
91.7396
91.7997
91.6305
91.8674
91.4665
92.07
91.3265
92.2034
90.7947
91.3887
89.6515
90.7905
90.0687
91.3013
90.1078
91.4002
89.2613
89.6071
88.5821
89.8456
88.4267
89.3033
86.6924
87.7838
85.6925
86.8935
83.3563
84.4602
81.097
82.6027
78.1634
79.635
75.0903
76.6005
71.1396
71.5096
64.6725
62.1044
54.4545
47.416
62.8823
62.7483
61.7889
61.6461
62.4256
61.868
61.1118
61.4977
61.8269
61.836
62.132
62.8101
63.4139
64.0904
65.2631
65.9443
65.1976
62.6095
57.5951
50.1759
42.635
37.3289
34.628
34.79
39.2329
48.6255
60.1847
70.6699
78.5902
83.8211
86.9985
88.8515
89.9435
90.6198
91.0646
91.373
91.5962
91.7627
91.8881
91.9816
92.0498
92.0976
92.1291
92.1476
92.1555
92.1549
92.1476
92.1347
92.1175
92.0965
92.0728
92.0463
92.0185
91.9882
91.9578
91.9258
91.8928
91.8653
91.8245
91.8209
91.7487
91.8182
91.6398
91.89
91.4587
92.1347
91.4194
92.6464
91.5428
92.4105
90.4661
91.2371
90.0465
91.4047
90.1669
91.9141
89.9795
90.6754
88.9032
90.3545
88.9725
90.663
87.4842
88.8395
86.3191
88.645
84.385
86.407
82.1988
84.8864
79.4281
81.8098
76.4916
78.3525
72.319
72.1836
65.4733
62.2958
55.254
48.1452
62.8011
62.6912
61.9591
61.9752
62.6463
62.1475
61.5113
61.9122
62.2946
62.3921
62.6923
63.298
63.8258
64.318
65.3103
65.8925
65.0864
62.5838
57.937
51.0451
44.0131
38.9986
36.4863
36.9427
41.5233
50.5025
61.3856
71.323
78.8898
83.9394
87.0639
88.9089
89.9976
90.6636
91.0948
91.3914
91.6064
91.7681
91.891
91.9834
92.0511
92.0987
92.1301
92.1483
92.1561
92.1554
92.1479
92.1349
92.1176
92.0966
92.0728
92.0464
92.0185
91.9885
91.9582
91.9269
91.8942
91.8681
91.8277
91.8269
91.7542
91.828
91.6467
91.9074
91.4663
92.1691
91.4129
92.7967
91.7838
93.0739
91.2871
91.8819
90.2834
91.5248
90.173
92.1637
90.3808
91.6955
89.5821
90.8851
89.2078
91.5486
88.4187
90.0252
86.8067
90.0003
85.5665
88.2215
83.1811
86.792
80.7377
83.6126
77.7503
79.6022
73.1889
72.4398
66.1125
62.3901
55.8885
48.9307
62.809
62.7133
62.1385
62.169
62.7048
62.3053
61.8206
62.1409
62.5099
62.6927
62.9664
63.429
63.8873
64.3479
65.1198
65.475
64.6653
62.3094
58.0733
51.7776
45.2913
40.4987
38.0921
38.7749
43.4828
52.1079
62.3926
71.8181
79.1114
83.993
87.0812
88.9244
90.0171
90.6817
91.108
91.3994
91.6107
91.77
91.8916
91.9834
92.0509
92.0985
92.1299
92.1483
92.1561
92.1555
92.148
92.135
92.1177
92.0966
92.0728
92.0464
92.0186
91.9888
91.9584
91.9277
91.8952
91.8698
91.8301
91.8281
91.7581
91.8252
91.6546
91.9017
91.4895
92.1671
91.4224
92.7822
91.6292
93.2517
91.4676
92.3869
90.7188
91.7869
90.3054
92.2347
90.4866
92.4285
90.2499
91.5922
89.4907
91.9772
89.0625
91.3545
87.4769
90.8107
86.479
89.8952
84.1008
88.0525
81.9113
85.0302
78.5825
80.342
73.8371
72.4465
66.4345
62.4424
56.3656
49.6589
62.8475
62.7335
62.2564
62.311
62.6975
62.363
61.9901
62.2395
62.554
62.7614
63.0429
63.4486
63.8717
64.3322
64.9956
65.1639
64.1912
61.9174
58.0759
52.3267
46.3184
41.6797
39.3143
40.1274
44.8812
53.2338
63.0786
72.1221
79.2035
83.9623
87.0407
88.8869
89.9928
90.667
91.0986
91.3929
91.606
91.7664
91.8888
91.9813
92.0493
92.0974
92.1291
92.1477
92.1557
92.1551
92.1477
92.1348
92.1175
92.0965
92.0727
92.0464
92.0185
91.9889
91.9586
91.9282
91.896
91.8705
91.8323
91.8271
91.7635
91.8181
91.6671
91.889
91.518
92.1534
91.4508
92.6998
91.5915
93.1258
91.4014
92.6428
90.7782
92.0414
90.4117
92.3002
90.5135
92.7339
90.489
92.0576
89.7158
92.2006
89.2872
92.1282
87.9848
91.2682
86.9128
90.9688
84.8878
88.6801
82.629
86.05
79.1942
80.5957
74.3406
72.4025
66.9194
62.4714
56.6537
50.1996
62.9553
62.7586
62.3222
62.3641
62.641
62.3649
62.0622
62.2555
62.5462
62.7609
63.0294
63.4219
63.86
64.3413
64.9469
64.9981
63.9224
61.6785
58.0718
52.6153
46.893
42.3553
40.0107
40.8672
45.6135
53.8061
63.3951
72.2138
79.1534
83.896
86.9751
88.8227
89.9522
90.6444
91.0863
91.386
91.6017
91.7634
91.8864
91.9793
92.0477
92.096
92.128
92.1468
92.155
92.1546
92.1473
92.1345
92.1172
92.0963
92.0725
92.0463
92.0184
91.989
91.9587
91.9283
91.8966
91.8701
91.8345
91.8244
91.7694
91.8107
91.6792
91.8816
91.5372
92.1537
91.4628
92.6972
91.5584
93.1035
91.3871
92.6059
90.8371
92.106
90.419
92.4037
90.5042
92.7851
90.4828
92.2027
89.7422
92.3182
89.2788
92.298
88.0659
91.5194
86.966
91.2848
85.0947
88.9686
82.7924
86.4368
79.4217
80.658
74.5156
72.3527
66.9436
62.4272
56.7067
50.1845
56.9287
55.6722
52.9066
48.8387
44.4399
41.628
41.0184
41.7491
41.6365
40.2477
37.415
33.6093
30.9807
31.1118
33.594
37.5043
43.7523
50.534
56.6909
64.1736
71.1204
77.8495
84.2177
89.4207
93.2486
95.7386
97.1243
97.6442
97.5919
97.2064
96.6537
96.0592
95.4711
94.9276
94.4478
94.0378
93.6952
93.4135
93.1837
92.9972
92.8454
92.7213
92.6188
92.5331
92.4606
92.3983
92.3442
92.2964
92.2537
92.2154
92.1807
92.1492
92.1208
92.0955
92.0734
92.0547
92.0402
92.0303
92.026
92.028
92.0373
92.0544
92.0798
92.1133
92.1538
92.2008
92.2513
92.3052
92.3593
92.4138
92.4689
92.5243
92.5841
92.6484
92.7212
92.8055
92.901
93.0148
93.1445
93.2959
93.4715
93.6708
93.9001
94.1581
94.4435
94.7597
95.0933
95.4484
95.7953
96.1282
96.4259
96.6829
96.9006
97.0931
97.2899
97.579
98.0988
98.91
99.8434
100.466
56.7493
55.4794
52.6688
48.4475
43.9637
41.2447
40.9025
42.0676
42.1642
40.1197
36.6346
32.682
30.0821
30.3296
33.0778
37.1424
43.3906
50.2014
56.4264
63.8425
70.7646
77.5542
84.0332
89.3453
93.1978
95.759
97.1561
97.6743
97.6162
97.2247
96.6733
96.0624
95.4686
94.9226
94.4421
94.0319
93.6898
93.4088
93.1799
92.9941
92.8431
92.7195
92.6174
92.5321
92.4598
92.3977
92.3436
92.2959
92.2534
92.2151
92.1804
92.1489
92.1205
92.095
92.0728
92.0541
92.0395
92.0294
92.025
92.0268
92.0362
92.0533
92.0787
92.1126
92.1533
92.2009
92.2517
92.3058
92.3601
92.4143
92.4694
92.5239
92.5837
92.6467
92.7197
92.8029
92.8984
93.0111
93.1412
93.2906
93.4677
93.6641
93.8953
94.1504
94.4378
94.7519
95.0897
95.4413
95.7958
96.1291
96.438
96.6986
96.9204
97.1017
97.2797
97.5403
98.0336
98.8311
99.7757
100.411
56.5114
55.2122
52.3108
47.8232
43.1004
40.5618
40.5268
41.684
41.4826
38.8142
34.673
30.755
28.3744
28.7426
32.0119
36.5549
42.6941
49.5328
55.8764
63.0322
70.0473
76.8734
83.5482
89.0685
92.9907
95.675
97.1087
97.6371
97.5804
97.1899
96.6398
96.0373
95.4488
94.9075
94.431
94.024
93.6843
93.4049
93.1772
92.9922
92.8418
92.7186
92.6168
92.5316
92.4595
92.3974
92.3434
92.2957
92.2531
92.2147
92.1799
92.1483
92.1197
92.094
92.0716
92.0525
92.0375
92.027
92.0223
92.0237
92.0328
92.0498
92.0755
92.1099
92.1513
92.2
92.2514
92.3068
92.3608
92.4154
92.469
92.5231
92.5807
92.6436
92.7131
92.7974
92.8881
93.0026
93.127
93.2775
93.4486
93.6453
93.8693
94.1257
94.4028
94.7209
95.0463
95.4032
95.7484
96.0914
96.3992
96.6715
96.8928
97.078
97.2372
97.4884
97.9495
98.7611
99.724
100.38
56.3453
55.0601
52.0791
47.351
42.4826
39.867
39.8621
40.7999
39.8563
36.3618
31.6619
27.9991
26.0502
26.6256
30.3099
35.7385
41.9289
48.7059
55.1048
61.8538
68.9917
75.8622
82.7671
88.5181
92.7159
95.4973
96.9851
97.5347
97.4878
97.1057
96.5651
95.9744
95.3974
94.8682
94.402
94.0039
93.6711
93.3968
93.1726
92.9899
92.8408
92.7184
92.6169
92.532
92.4598
92.3977
92.3436
92.2957
92.2529
92.2143
92.1793
92.1475
92.1186
92.0925
92.0696
92.0499
92.0343
92.023
92.0176
92.0181
92.0269
92.0434
92.0695
92.1044
92.1471
92.1973
92.2503
92.3066
92.3613
92.4146
92.4681
92.5177
92.5761
92.6314
92.7038
92.7789
92.8724
92.9776
93.1029
93.2435
93.4148
93.5968
93.8234
94.0578
94.3397
94.6324
94.9617
95.2975
95.6459
95.9826
96.3009
96.5827
96.8239
97.0216
97.2098
97.4708
97.9583
98.7766
99.7803
100.462
56.3453
55.1055
52.1298
47.341
42.4004
39.7831
39.5254
39.526
37.5384
33.4038
28.1985
24.6435
23.2436
24.1642
28.3875
34.6593
41.1167
47.8193
54.1559
60.4994
67.6036
74.5555
81.741
87.8027
92.3116
95.2371
96.7932
97.3718
97.3414
96.9752
96.4521
95.8801
95.3212
94.8085
94.3572
93.9718
93.6492
93.3825
93.1638
92.9848
92.8381
92.7171
92.6165
92.5319
92.4599
92.3979
92.3436
92.2956
92.2527
92.2139
92.1786
92.1464
92.1171
92.0904
92.0669
92.0464
92.03
92.0176
92.0112
92.0106
92.0187
92.0347
92.0611
92.0968
92.141
92.1936
92.2478
92.307
92.3602
92.4154
92.4634
92.5143
92.5639
92.621
92.6835
92.7607
92.8437
92.9505
93.0632
93.2041
93.3593
93.5402
93.7458
93.9772
94.232
94.5209
94.8213
95.1499
95.4817
95.8104
96.1344
96.4248
96.6936
96.9358
97.1737
97.5264
98.0452
98.975
99.8962
100.675
56.544
55.4013
52.5639
47.9325
43.1936
40.5683
39.6077
38.2628
35.0902
30.3459
24.577
20.7609
20.0149
21.4532
26.3675
33.4604
40.3594
46.9924
53.1239
59.0655
65.9483
72.9873
80.4948
86.939
91.8032
94.9113
96.544
97.1541
97.1448
96.8017
96.304
95.7573
95.2217
94.7301
94.2975
93.9276
93.6173
93.3602
93.1486
92.9746
92.8314
92.7127
92.6136
92.53
92.4587
92.3969
92.3429
92.2949
92.2519
92.2129
92.1774
92.1448
92.1151
92.0879
92.0637
92.0422
92.0249
92.0111
92.0037
92.0015
92.0089
92.0239
92.051
92.0872
92.1339
92.1885
92.2459
92.3067
92.3614
92.4148
92.4623
92.5065
92.5567
92.6027
92.6682
92.7333
92.8171
92.9154
93.02
93.1585
93.2966
93.4733
93.6623
93.8771
94.1212
94.3804
94.6663
94.9714
95.2775
95.603
95.9021
96.2193
96.4964
96.8035
97.1295
97.5717
98.2577
99.1439
100.279
100.892
56.949
55.9347
53.3739
49.1714
44.9063
42.1704
40.1552
37.2293
32.7772
27.3229
21.01
16.6823
16.5181
18.5947
24.3715
32.3532
39.7663
46.4105
52.1747
57.6763
64.1758
71.2156
79.0599
85.9201
91.1903
94.5234
96.2432
96.8844
96.8985
96.5851
96.1209
95.6069
95.1009
94.6348
94.2239
93.8719
93.5759
93.3299
93.1268
92.9592
92.8204
92.705
92.6081
92.526
92.4557
92.3947
92.3411
92.2933
92.2504
92.2114
92.1757
92.1428
92.1127
92.0849
92.06
92.0375
92.0191
92.0037
91.995
91.9909
91.9976
92.0111
92.0391
92.0758
92.1254
92.1832
92.2434
92.3084
92.3618
92.418
92.4583
92.503
92.5436
92.5874
92.6474
92.7044
92.79
92.8717
92.983
93.0964
93.2402
93.3923
93.5751
93.7725
93.9951
94.237
94.4995
94.7739
95.0684
95.35
95.6658
95.943
96.2874
96.5997
97.0491
97.6007
98.3816
99.4896
100.446
101.495
57.5184
56.6615
54.512
50.9629
47.2334
44.2827
41.0975
36.4361
30.6312
24.5216
17.7706
12.7923
12.927
15.966
22.3789
31.4054
39.3974
46.0811
51.4819
56.4513
62.4706
69.4575
77.4322
84.7513
90.4549
94.0539
95.8824
96.5612
96.602
96.3242
95.902
95.4291
94.9591
94.5231
94.137
93.8051
93.5254
93.2922
93.0989
92.9387
92.8054
92.6939
92.6
92.52
92.4511
92.3911
92.3382
92.2909
92.2482
92.2093
92.1735
92.1404
92.1098
92.0814
92.0558
92.0321
92.0126
91.9953
91.9854
91.9788
91.9847
91.9961
92.0255
92.0619
92.116
92.1762
92.2418
92.3098
92.3645
92.4209
92.4563
92.4979
92.5307
92.5706
92.6227
92.6781
92.7515
92.8382
92.9253
93.0499
93.1619
93.3199
93.4782
93.6609
93.8687
94.0827
94.3238
94.5771
94.8349
95.1096
95.3882
95.6857
96.001
96.4157
96.8467
97.5882
98.4485
99.6648
100.955
101.187
58.1712
57.5145
55.8875
53.0728
49.833
46.5428
42.2619
35.9115
28.8801
22.1639
14.9046
9.16678
9.24136
13.1146
20.232
30.3832
39.0927
45.8964
50.9465
55.4596
60.933
67.7715
75.8068
83.5139
89.6113
93.4789
95.438
96.1707
96.2501
96.0176
95.647
95.2238
94.7965
94.3955
94.0375
93.7282
93.4665
93.2475
93.0652
92.9134
92.7865
92.6798
92.5893
92.5119
92.4449
92.3863
92.3343
92.2877
92.2454
92.2066
92.1708
92.1375
92.1066
92.0775
92.0511
92.0262
92.0055
91.986
91.9747
91.965
91.9703
91.9785
92.0098
92.0453
92.1051
92.168
92.2404
92.3126
92.3685
92.4263
92.4542
92.4937
92.5168
92.5505
92.6003
92.6419
92.7227
92.7854
92.8835
92.9807
93.0959
93.2353
93.3771
93.5512
93.7278
93.9309
94.1415
94.3696
94.601
94.8566
95.1056
95.3961
95.7277
96.1102
96.6811
97.3639
98.4215
99.5948
100.625
101.971
58.8349
58.3843
57.3167
55.3188
52.4582
48.7372
43.4798
35.838
27.6759
20.2537
12.2705
5.80182
5.70669
10.1744
18.0752
29.1878
38.6837
45.7189
50.5057
54.5478
59.4994
66.168
74.2635
82.3017
88.723
92.8035
94.8928
95.696
95.8312
95.6599
95.3534
94.9903
94.6135
94.2526
93.926
93.6416
93.3997
93.1964
93.0262
92.8837
92.764
92.6627
92.5763
92.502
92.4372
92.3802
92.3295
92.2836
92.2419
92.2034
92.1677
92.1342
92.103
92.0732
92.0461
92.0197
91.9979
91.9759
91.9631
91.9495
91.9542
91.958
91.9923
92.025
92.0933
92.1574
92.2407
92.3156
92.3757
92.4336
92.4531
92.4911
92.4991
92.5324
92.5705
92.61
92.6836
92.7401
92.8291
92.919
93.0199
93.1477
93.2778
93.428
93.5927
93.7663
93.9563
94.1562
94.3691
94.5739
94.841
95.0659
95.4176
95.799
96.347
97.1747
98.1035
99.5999
100.79
101.232
59.4645
59.2051
58.632
57.2909
54.8709
50.7925
44.6196
36.0943
26.8405
18.466
9.79406
2.91964
2.4392
7.81175
16.3104
28.0166
38.1375
45.4999
50.0668
53.5941
58.077
64.6227
72.8149
81.1415
87.836
92.0545
94.2438
95.1286
95.3363
95.2441
95.018
94.7272
94.4097
94.0947
93.8033
93.5462
93.3257
93.1393
92.9823
92.85
92.7381
92.6429
92.5611
92.4902
92.4281
92.3731
92.3237
92.2789
92.2378
92.1997
92.1642
92.1305
92.0991
92.0686
92.0408
92.0128
91.9898
91.9648
91.9506
91.9321
91.9366
91.9341
91.9725
92.0002
92.0804
92.1438
92.2432
92.319
92.3874
92.4428
92.4542
92.4895
92.4787
92.5149
92.5356
92.5791
92.6416
92.692
92.7765
92.8488
92.9449
93.0561
93.1708
93.308
93.4515
93.602
93.7601
93.9515
94.0954
94.3417
94.4908
94.7876
95.0244
95.4593
95.9871
96.739
97.8264
98.9588
100.344
101.382
60.0311
59.9404
59.7595
58.9578
56.9573
52.6343
45.6819
36.4884
26.2948
17.0135
7.92967
0.972555
0.596816
6.22532
15.1432
27.0474
37.6336
45.2818
49.6054
52.5618
56.6665
63.227
71.5496
80.0374
86.9273
91.2358
93.494
94.469
94.7641
94.7659
94.637
94.4324
94.1844
93.9221
93.6698
93.4425
93.2451
93.0767
92.9339
92.8127
92.7093
92.6207
92.544
92.4769
92.4178
92.3649
92.3171
92.2735
92.2332
92.1955
92.1603
92.1265
92.0949
92.0637
92.0352
92.0055
91.9814
91.9529
91.9375
91.9128
91.9174
91.9061
91.9506
91.9696
92.0664
92.1252
92.2491
92.3211
92.4065
92.452
92.4617
92.4847
92.4607
92.4893
92.5027
92.5406
92.6022
92.6411
92.7199
92.78
92.8616
92.9664
93.0585
93.1846
93.3091
93.4238
93.5852
93.7054
93.8649
94.0342
94.1933
94.4099
94.6829
95.0098
95.5532
96.264
97.2305
98.5987
99.6635
100.431
60.5113
60.5655
60.6793
60.2699
58.6137
54.2582
46.771
37.0944
26.2965
16.3389
7.11141
0.314599
-0.149311
5.43774
14.668
26.5794
37.4509
45.1882
49.1377
51.4687
55.2812
62.0106
70.4883
78.9529
85.9014
90.2938
92.6342
93.7186
94.1223
94.2282
94.2087
94.1044
93.9368
93.7347
93.5261
93.331
93.1585
93.0094
92.8815
92.772
92.6778
92.5963
92.525
92.4622
92.4062
92.3557
92.3098
92.2674
92.2281
92.191
92.156
92.1223
92.0904
92.0585
92.0295
91.9979
91.9727
91.9404
91.9238
91.8915
91.8968
91.8735
91.926
91.9314
92.0506
92.0995
92.2587
92.3207
92.434
92.4621
92.4746
92.4816
92.4387
92.4696
92.4569
92.5117
92.5498
92.5938
92.6638
92.6989
92.7906
92.8578
92.9502
93.0646
93.1467
93.2638
93.3856
93.4722
93.6164
93.7269
93.8654
94.0488
94.2459
94.5854
94.9866
95.6462
96.5444
97.5924
98.7349
99.5312
60.9184
61.0862
61.4209
61.2875
59.861
55.6222
47.9208
37.9703
26.8409
16.5162
7.42391
1.06637
0.296907
5.52996
14.869
26.5924
37.5002
45.1109
48.6116
50.4134
54.0296
60.9285
69.4906
77.7619
84.6177
89.1301
91.6283
92.8761
93.4198
93.6418
93.7371
93.7429
93.6665
93.5325
93.3727
93.2128
93.0665
92.9377
92.8257
92.7285
92.644
92.57
92.5046
92.4462
92.3936
92.3458
92.3018
92.2609
92.2225
92.1861
92.1515
92.1178
92.0858
92.0532
92.0236
91.9901
91.964
91.9272
91.9097
91.8682
91.8746
91.8355
91.8983
91.8835
92.0372
92.0633
92.2746
92.3144
92.4724
92.4686
92.4987
92.469
92.4261
92.4324
92.4212
92.4726
92.5003
92.5537
92.5917
92.6348
92.6968
92.7557
92.8466
92.9241
92.9971
93.0991
93.1662
93.2601
93.3355
93.4344
93.5173
93.651
93.8066
94.035
94.4401
94.9194
95.6477
96.5712
97.4167
98.1218
61.2473
61.4727
62.0029
62.055
60.777
56.7479
49.2297
39.1403
27.8112
17.364
8.74037
2.92685
1.80741
6.39481
15.4754
26.837
37.5108
44.8421
47.9904
49.5529
53.1785
60.1527
68.6261
76.5419
83.1159
87.7226
90.4464
91.9368
92.6647
93.0212
93.2324
93.351
93.3742
93.3161
93.21
93.0883
92.9699
92.8623
92.7668
92.6826
92.6082
92.542
92.4827
92.4291
92.3802
92.3351
92.2932
92.2538
92.2166
92.1809
92.1468
92.1131
92.0811
92.0477
92.0177
91.9822
91.9554
91.9135
91.8954
91.843
91.8509
91.7913
91.8666
91.8224
92.0142
92.0104
92.2891
92.2971
92.5207
92.4687
92.5339
92.445
92.422
92.3821
92.3918
92.4247
92.4605
92.5048
92.53
92.5603
92.6056
92.6556
92.7324
92.7886
92.8543
92.905
92.9808
93.0088
93.0769
93.1199
93.157
93.2329
93.3117
93.4815