/*--------------------------------*- C++ -*----------------------------------*\
| =========                 |                                                 |
| \\      /  F ield         | OpenFOAM: The Open Source CFD Toolbox           |
|  \\    /   O peration     | Version:  2.4.0                                 |
|   \\  /    A nd           | Web:      www.OpenFOAM.org                      |
|    \\/     M anipulation  |                                                 |
\*---------------------------------------------------------------------------*/
FoamFile
{
    version     2.0;
    format      ascii;
    class       surfaceScalarField;
    location    "0.037";
    object      phi;
}
// * * * * * * * * * * * * * * * * * * * * * * * * * * * * * * * * * * * * * //

dimensions      [0 3 -1 0 0 0 0];

internalField   nonuniform List<scalar> 
8640
(
1.1466e-05
1.3534e-05
7.17205e-06
4.29391e-06
5.91879e-06
1.25326e-06
5.36174e-06
5.57044e-07
5.08439e-06
2.77357e-07
4.98172e-06
1.02669e-07
4.78796e-06
1.93754e-07
4.80754e-06
-1.958e-08
4.39727e-06
4.10271e-07
-2.07599e-06
6.47326e-06
2.10472e-05
1.74868e-05
1.74466e-05
7.89451e-06
1.55234e-05
3.17646e-06
1.42297e-05
1.85079e-06
1.34956e-05
1.01139e-06
1.30766e-05
5.21692e-07
1.26144e-05
6.55964e-07
1.26235e-05
-2.86954e-08
1.21366e-05
8.97177e-07
-2.73833e-06
1.27989e-05
2.56936e-05
1.67932e-05
2.40898e-05
9.49836e-06
2.26335e-05
4.6327e-06
2.11966e-05
3.28772e-06
2.02505e-05
1.95747e-06
1.96114e-05
1.16083e-06
1.89904e-05
1.27693e-06
1.89232e-05
3.84977e-08
1.84687e-05
1.35164e-06
-2.86903e-06
1.85994e-05
2.74604e-05
1.43329e-05
2.76991e-05
9.2596e-06
2.74017e-05
4.93009e-06
2.64746e-05
4.21486e-06
2.56931e-05
2.739e-06
2.50378e-05
1.81609e-06
2.43932e-05
1.92157e-06
2.42546e-05
1.77037e-07
2.39193e-05
1.68698e-06
-2.49277e-06
2.3543e-05
2.76786e-05
1.16543e-05
2.88254e-05
8.11274e-06
2.9628e-05
4.12753e-06
2.96118e-05
4.23101e-06
2.94289e-05
2.92195e-06
2.90658e-05
2.17912e-06
2.86015e-05
2.38592e-06
2.84942e-05
2.84295e-07
2.83231e-05
1.85808e-06
-1.70625e-06
2.75366e-05
2.76254e-05
9.02895e-06
2.88659e-05
6.87217e-06
2.99739e-05
3.01952e-06
3.05831e-05
3.62189e-06
3.112e-05
2.385e-06
3.12942e-05
2.00498e-06
3.12424e-05
2.43773e-06
3.13329e-05
1.93783e-07
3.14797e-05
1.71127e-06
-4.08889e-07
3.01823e-05
2.75377e-05
6.49121e-06
2.88793e-05
5.53058e-06
2.989e-05
2.00886e-06
3.05767e-05
2.93522e-06
3.13572e-05
1.60445e-06
3.18765e-05
1.48568e-06
3.22338e-05
2.08043e-06
3.2547e-05
-1.194e-07
3.30342e-05
1.22403e-06
9.35209e-07
3.16902e-05
2.73767e-05
4.11449e-06
2.89354e-05
3.97189e-06
2.97785e-05
1.16572e-06
3.05612e-05
2.15253e-06
3.12747e-05
8.91022e-07
3.18477e-05
9.12644e-07
3.23403e-05
1.58783e-06
3.27197e-05
-4.98786e-07
3.32873e-05
6.56394e-07
5.55816e-08
3.41669e-05
2.72151e-05
1.89936e-06
2.88506e-05
2.33641e-06
2.97287e-05
2.87646e-07
3.05864e-05
1.29485e-06
3.11909e-05
2.86475e-07
3.17921e-05
3.11413e-07
3.23211e-05
1.05886e-06
3.26731e-05
-8.50721e-07
3.31876e-05
1.41806e-07
-1.27854e-06
3.45218e-05
2.71644e-05
-2.65039e-07
2.88501e-05
6.50695e-07
2.96873e-05
-5.4958e-07
3.05325e-05
4.49688e-07
3.1164e-05
-3.45073e-07
3.17804e-05
-3.04967e-07
3.23108e-05
5.28535e-07
3.26728e-05
-1.21276e-06
3.32876e-05
-4.73001e-07
-1.75244e-06
3.37615e-05
2.71731e-05
-2.43809e-06
2.88435e-05
-1.01975e-06
2.96706e-05
-1.37672e-06
3.05465e-05
-4.26199e-07
3.11622e-05
-9.60762e-07
3.17498e-05
-8.92578e-07
3.23204e-05
-4.20383e-08
3.27323e-05
-1.62468e-06
3.32181e-05
-9.58773e-07
-1.68933e-06
3.3155e-05
2.71915e-05
-4.6296e-06
2.88697e-05
-2.69796e-06
2.97134e-05
-2.22041e-06
3.05737e-05
-1.2865e-06
3.11793e-05
-1.56632e-06
3.17667e-05
-1.48003e-06
3.23787e-05
-6.54014e-07
3.27309e-05
-1.97689e-06
3.3235e-05
-1.46289e-06
-2.32699e-06
3.38727e-05
2.72332e-05
-6.86284e-06
2.8946e-05
-4.41072e-06
2.97914e-05
-3.06585e-06
3.06172e-05
-2.11226e-06
3.12364e-05
-2.18549e-06
3.18353e-05
-2.07899e-06
3.24476e-05
-1.26628e-06
3.27182e-05
-2.2475e-06
3.32248e-05
-1.96948e-06
-2.73131e-06
3.36291e-05
2.73105e-05
-9.17334e-06
2.89967e-05
-6.09689e-06
2.99008e-05
-3.96995e-06
3.06854e-05
-2.89693e-06
3.13327e-05
-2.83273e-06
3.18635e-05
-2.60978e-06
3.23528e-05
-1.75564e-06
3.24223e-05
-2.31698e-06
3.26979e-05
-2.24504e-06
-2.94131e-06
3.29079e-05
2.74627e-05
-1.16361e-05
2.90814e-05
-7.71554e-06
2.99766e-05
-4.86515e-06
3.07118e-05
-3.63216e-06
3.11123e-05
-3.23323e-06
3.1221e-05
-2.71849e-06
3.13156e-05
-1.85022e-06
3.1062e-05
-2.06338e-06
3.09891e-05
-2.1722e-06
-2.74704e-06
3.07949e-05
2.76521e-05
-1.42882e-05
2.90193e-05
-9.08268e-06
2.95508e-05
-5.39664e-06
2.97159e-05
-3.79728e-06
2.94187e-05
-2.93602e-06
2.89588e-05
-2.25864e-06
2.86218e-05
-1.51324e-06
2.81285e-05
-1.57e-06
2.77587e-05
-1.80242e-06
-2.13556e-06
2.71472e-05
2.74725e-05
-1.67607e-05
2.78137e-05
-9.42388e-06
2.73072e-05
-4.89011e-06
2.65554e-05
-3.04554e-06
2.56724e-05
-2.053e-06
2.49124e-05
-1.49861e-06
2.43849e-05
-9.85749e-07
2.38393e-05
-1.02444e-06
2.33233e-05
-1.28638e-06
-1.34684e-06
2.25346e-05
2.57152e-05
-1.74758e-05
2.41496e-05
-7.85831e-06
2.2554e-05
-3.29454e-06
2.12562e-05
-1.74768e-06
2.02318e-05
-1.0286e-06
1.94808e-05
-7.47658e-07
1.89735e-05
-4.78477e-07
1.84911e-05
-5.42035e-07
1.79352e-05
-7.3045e-07
-6.17646e-07
1.7206e-05
2.10585e-05
-1.35343e-05
1.74784e-05
-4.27827e-06
1.5472e-05
-1.28813e-06
1.42618e-05
-5.37477e-07
1.34926e-05
-2.5939e-07
1.29512e-05
-2.06282e-07
1.25976e-05
-1.24908e-07
1.22318e-05
-1.76187e-07
1.17512e-05
-2.49824e-07
-1.58484e-07
1.1292e-05
1.14657e-05
7.18745e-06
5.89932e-06
5.36184e-06
5.10245e-06
4.89617e-06
4.77126e-06
4.59507e-06
4.34525e-06
4.18677e-06
7.25121e-06
-1.03807e-06
2.60126e-07
7.61278e-06
-5.97908e-07
2.36332e-07
7.82229e-06
-1.03405e-06
8.24551e-07
7.83425e-06
1.46932e-06
-1.48129e-06
8.93457e-06
3.63002e-06
-4.73034e-06
1.20785e-05
1.36563e-06
-4.50959e-06
1.60685e-05
1.40227e-06
-5.39226e-06
1.82797e-05
7.24748e-06
-9.45871e-06
1.96455e-05
8.36252e-06
-9.72831e-06
2.22581e-05
6.32176e-07
-3.24476e-06
2.50572e-05
-7.38676e-06
4.58765e-06
2.57382e-05
-7.70747e-06
7.02655e-06
2.56468e-05
-6.69399e-06
6.78536e-06
2.69784e-05
-1.30214e-05
1.16898e-05
2.83293e-05
-2.23281e-05
2.09772e-05
2.92981e-05
-2.88139e-05
2.78451e-05
3.00035e-05
-2.9038e-05
2.83325e-05
3.10114e-05
-2.83852e-05
2.73774e-05
3.30302e-05
-2.90558e-05
2.70369e-05
3.4078e-05
-2.88394e-05
2.77916e-05
3.34739e-05
-2.92086e-05
2.98128e-05
3.27293e-05
-2.82144e-05
2.89589e-05
3.20423e-05
-2.44136e-05
2.51006e-05
3.07433e-05
-1.77266e-05
1.90255e-05
2.83191e-05
-1.00604e-05
1.24846e-05
2.52668e-05
-4.727e-06
7.77931e-06
2.26346e-05
-7.49653e-07
3.38185e-06
2.05327e-05
2.232e-06
-1.30014e-07
1.8688e-05
2.82521e-06
-9.8053e-07
1.72327e-05
2.19167e-06
-7.3641e-07
1.62668e-05
2.31704e-06
-1.35115e-06
1.56379e-05
3.17074e-06
-2.54181e-06
1.51538e-05
3.78448e-06
-3.30041e-06
1.47377e-05
3.76716e-06
-3.35101e-06
1.43878e-05
3.31919e-06
-2.9693e-06
1.4114e-05
2.73676e-06
-2.46301e-06
1.3915e-05
2.19363e-06
-1.99454e-06
1.37786e-05
1.7471e-06
-1.61072e-06
1.36891e-05
1.39699e-06
-1.30751e-06
1.36319e-05
1.12562e-06
-1.06848e-06
1.35962e-05
9.13829e-07
-8.78077e-07
1.3574e-05
7.46722e-07
-7.24514e-07
1.35603e-05
6.13119e-07
-5.99443e-07
1.3552e-05
5.05349e-07
-4.96994e-07
1.35469e-05
4.17796e-07
-4.12767e-07
1.3544e-05
3.46496e-07
-3.43587e-07
1.35424e-05
2.88169e-07
-2.86548e-07
1.35416e-05
2.40996e-07
-2.40232e-07
1.35414e-05
2.02009e-07
-2.01765e-07
1.35415e-05
1.72192e-07
-1.72305e-07
1.35419e-05
1.45134e-07
-1.45534e-07
1.35424e-05
1.30895e-07
-1.31433e-07
1.35435e-05
1.06063e-07
-1.07165e-07
1.35441e-05
1.15928e-07
-1.16513e-07
1.35473e-05
6.89236e-08
-7.20513e-08
1.35463e-05
1.42201e-07
-1.41255e-07
1.35569e-05
-2.78345e-09
-7.77166e-09
1.35478e-05
2.64603e-07
-2.55537e-07
1.35842e-05
-2.02125e-07
1.65713e-07
1.35453e-05
6.29842e-07
-5.90921e-07
1.36611e-05
-7.31232e-07
6.15413e-07
1.35329e-05
1.53907e-06
-1.41082e-06
1.38488e-05
-1.8797e-06
1.56371e-06
1.35019e-05
3.32927e-06
-2.98235e-06
1.41814e-05
-3.65278e-06
2.97335e-06
1.34848e-05
5.60094e-06
-4.9044e-06
1.45171e-05
-5.18164e-06
4.14939e-06
1.36777e-05
6.59485e-06
-5.75544e-06
1.47531e-05
-5.44311e-06
4.36771e-06
1.41581e-05
5.50191e-06
-4.90692e-06
1.5091e-05
-4.44984e-06
3.51691e-06
1.45582e-05
3.98276e-06
-3.44994e-06
1.54741e-05
-3.17035e-06
2.25439e-06
1.46882e-05
3.91552e-06
-3.12959e-06
1.57338e-05
-2.94447e-06
1.89885e-06
1.46079e-05
4.97948e-06
-3.85354e-06
1.58928e-05
-3.07628e-06
1.79141e-06
1.46204e-05
5.08001e-06
-3.80765e-06
1.57498e-05
-2.17285e-06
1.04341e-06
1.45803e-05
4.70899e-06
-3.53943e-06
1.54756e-05
-8.96904e-07
1.55101e-09
1.41114e-05
5.16967e-06
-3.80548e-06
1.49967e-05
-2.65376e-07
-6.19915e-07
1.36814e-05
5.41943e-06
-4.10405e-06
1.42833e-05
9.81638e-07
-1.5836e-06
1.3083e-05
5.43894e-06
-4.23858e-06
1.35831e-05
2.40218e-06
-2.90233e-06
1.2739e-05
5.92135e-06
-5.07722e-06
1.34522e-05
3.31087e-06
-4.02407e-06
1.29623e-05
7.05127e-06
-6.56141e-06
1.4042e-05
4.93762e-06
-6.01729e-06
1.36204e-05
9.07498e-06
-8.65343e-06
1.44872e-05
7.79901e-06
-8.66576e-06
1.25697e-05
1.40886e-05
-1.21711e-05
1.29948e-05
1.1803e-05
-1.22281e-05
1.27057e-05
1.91045e-05
-1.88153e-05
1.48242e-05
1.73998e-05
-1.95183e-05
1.16641e-05
3.17533e-05
-2.85932e-05
1.21869e-05
3.02132e-05
-3.0736e-05
5.83569e-05
-5.73266e-05
1.11566e-05
1.28824e-05
-1.1215e-06
1.29338e-05
-6.49387e-07
1.30901e-05
-1.19033e-06
1.32676e-05
1.29186e-06
1.38796e-05
3.018e-06
1.53975e-05
-1.52267e-07
1.72521e-05
-4.52333e-07
1.87901e-05
5.70952e-06
2.08104e-05
6.34222e-06
2.3192e-05
-1.74944e-06
2.47298e-05
-8.9246e-06
2.52155e-05
-8.19312e-06
2.66819e-05
-8.1604e-06
2.94131e-05
-1.57526e-05
3.10785e-05
-2.39935e-05
3.1922e-05
-2.96574e-05
3.31397e-05
-3.02557e-05
3.41572e-05
-2.94027e-05
3.47312e-05
-2.96298e-05
3.45787e-05
-2.86869e-05
3.3666e-05
-2.82959e-05
3.24595e-05
-2.70078e-05
3.14498e-05
-2.34039e-05
3.06209e-05
-1.68977e-05
2.89048e-05
-8.34428e-06
2.59908e-05
-1.81291e-06
2.30407e-05
2.20044e-06
2.06451e-05
4.62751e-06
1.86526e-05
4.81774e-06
1.70308e-05
3.81347e-06
1.58827e-05
3.46515e-06
1.5151e-05
3.90241e-06
1.46804e-05
4.25515e-06
1.43526e-05
4.09491e-06
1.41107e-05
3.56106e-06
1.39294e-05
2.91811e-06
1.37959e-05
2.32711e-06
1.37011e-05
1.84194e-06
1.36363e-05
1.4618e-06
1.35939e-05
1.16803e-06
1.35671e-05
9.40569e-07
1.3551e-05
7.62804e-07
1.35418e-05
6.22363e-07
1.35369e-05
5.10275e-07
1.35346e-05
4.20056e-07
1.35339e-05
3.47172e-07
1.35342e-05
2.87928e-07
1.3535e-05
2.40218e-07
1.3536e-05
2.0098e-07
1.35372e-05
1.70937e-07
1.35385e-05
1.43896e-07
1.354e-05
1.29371e-07
1.35415e-05
1.0462e-07
1.35434e-05
1.14029e-07
1.35457e-05
6.65245e-08
1.35477e-05
1.40242e-07
1.35545e-05
-9.60276e-09
1.35536e-05
2.65551e-07
1.35778e-05
-2.26363e-07
1.3563e-05
6.44668e-07
1.36444e-05
-8.12676e-07
1.35863e-05
1.59721e-06
1.38176e-05
-2.111e-06
1.36429e-05
3.50397e-06
1.41581e-05
-4.16792e-06
1.37514e-05
6.00764e-06
1.45747e-05
-6.00495e-06
1.403e-05
7.13949e-06
1.5007e-05
-6.42007e-06
1.44855e-05
6.0234e-06
1.56399e-05
-5.6042e-06
1.48062e-05
4.81638e-06
1.60685e-05
-4.43256e-06
1.50684e-05
4.91561e-06
1.61623e-05
-4.03835e-06
1.50399e-05
6.10182e-06
1.65163e-05
-4.55267e-06
1.51236e-05
6.4727e-06
1.66653e-05
-3.71455e-06
1.55657e-05
5.80859e-06
1.6783e-05
-2.11422e-06
1.54748e-05
6.47791e-06
1.69753e-05
-1.76586e-06
1.53541e-05
7.04063e-06
1.65351e-05
-1.99392e-07
1.47403e-05
7.23375e-06
1.55315e-05
1.61094e-06
1.34933e-05
7.95962e-06
1.39687e-05
2.83543e-06
1.21233e-05
8.89665e-06
1.31394e-05
3.92155e-06
1.22163e-05
9.99809e-06
1.39376e-05
6.07767e-06
1.39809e-05
1.40453e-05
1.52731e-05
1.05108e-05
1.2891e-05
2.14866e-05
1.49088e-05
1.5382e-05
1.50805e-05
3.15816e-05
1.93404e-05
2.59533e-05
5.93681e-05
1.83291e-05
1.85818e-05
-1.10383e-06
1.87401e-05
-8.07729e-07
1.87565e-05
-1.20675e-06
1.86531e-05
1.39527e-06
1.90641e-05
2.60708e-06
2.01832e-05
-1.27138e-06
2.09263e-05
-1.19546e-06
2.194e-05
4.69586e-06
2.41134e-05
4.16879e-06
2.60018e-05
-3.6379e-06
2.65911e-05
-9.51386e-06
2.75156e-05
-9.11761e-06
2.99146e-05
-1.05594e-05
3.24271e-05
-1.82651e-05
3.34329e-05
-2.49994e-05
3.34566e-05
-2.9681e-05
3.38814e-05
-3.06805e-05
3.45892e-05
-3.01105e-05
3.50439e-05
-3.00845e-05
3.49025e-05
-2.85455e-05
3.43479e-05
-2.77412e-05
3.33945e-05
-2.60545e-05
3.19134e-05
-2.19228e-05
3.04596e-05
-1.54439e-05
2.8812e-05
-6.69666e-06
2.62098e-05
7.89282e-07
2.32369e-05
5.17335e-06
2.06695e-05
7.19484e-06
1.85413e-05
6.94597e-06
1.67739e-05
5.58085e-06
1.54557e-05
4.78334e-06
1.4614e-05
4.74416e-06
1.41432e-05
4.7259e-06
1.39e-05
4.33813e-06
1.37734e-05
3.68771e-06
1.36979e-05
2.99354e-06
1.36446e-05
2.38048e-06
1.36033e-05
1.88315e-06
1.3572e-05
1.49315e-06
1.35496e-05
1.1904e-06
1.35351e-05
9.55135e-07
1.35267e-05
7.71205e-07
1.35226e-05
6.2642e-07
1.35214e-05
5.11424e-07
1.35221e-05
4.19406e-07
1.35238e-05
3.45514e-07
1.35259e-05
2.8579e-07
1.35283e-05
2.37852e-07
1.35306e-05
1.98668e-07
1.3533e-05
1.68532e-07
1.3535e-05
1.41839e-07
1.35376e-05
1.26824e-07
1.35392e-05
1.02955e-07
1.35427e-05
1.10625e-07
1.35438e-05
6.53398e-08
1.35495e-05
1.34568e-07
1.35508e-05
-1.08692e-08
1.35607e-05
2.55668e-07
1.35672e-05
-2.32857e-07
1.35829e-05
6.28919e-07
1.36178e-05
-8.47562e-07
1.36378e-05
1.57718e-06
1.3773e-05
-2.24619e-06
1.37601e-05
3.51684e-06
1.41387e-05
-4.54645e-06
1.39272e-05
6.21908e-06
1.46265e-05
-6.70421e-06
1.40889e-05
7.67711e-06
1.50516e-05
-7.38278e-06
1.41479e-05
6.92706e-06
1.55264e-05
-6.98269e-06
1.40838e-05
6.259e-06
1.55049e-05
-5.85369e-06
1.41927e-05
6.2278e-06
1.52105e-05
-5.05616e-06
1.40586e-05
7.25371e-06
1.54401e-05
-5.93413e-06
1.41529e-05
7.7599e-06
1.56049e-05
-5.16655e-06
1.47603e-05
6.6532e-06
1.6245e-05
-3.59895e-06
1.51269e-05
7.59602e-06
1.70624e-05
-3.70137e-06
1.58689e-05
8.23412e-06
1.77916e-05
-2.12209e-06
1.63114e-05
8.71396e-06
1.81914e-05
-2.69065e-07
1.62673e-05
9.88375e-06
1.74723e-05
1.63037e-06
1.52067e-05
1.11623e-05
1.56235e-05
3.50466e-06
1.3068e-05
1.25536e-05
1.37836e-05
5.36208e-06
1.32707e-05
1.45582e-05
1.63777e-05
7.40382e-06
1.58874e-05
2.19768e-05
1.69797e-05
1.42897e-05
1.46284e-05
3.39329e-05
2.07889e-05
1.97928e-05
5.78428e-05
2.23142e-05
2.32956e-05
-8.56445e-07
2.35922e-05
-1.10433e-06
2.41233e-05
-1.73784e-06
2.42316e-05
1.28704e-06
2.42262e-05
2.61244e-06
2.50197e-05
-2.0649e-06
2.57005e-05
-1.87628e-06
2.65277e-05
3.86871e-06
2.83027e-05
2.3938e-06
2.96301e-05
-4.96532e-06
2.95794e-05
-9.4632e-06
3.06162e-05
-1.01544e-05
3.32336e-05
-1.31768e-05
3.48251e-05
-1.98566e-05
3.49539e-05
-2.51282e-05
3.45454e-05
-2.92725e-05
3.42113e-05
-3.03464e-05
3.40727e-05
-2.99719e-05
3.43864e-05
-3.03982e-05
3.50596e-05
-2.92188e-05
3.52441e-05
-2.79257e-05
3.44318e-05
-2.52421e-05
3.27784e-05
-2.02694e-05
3.07378e-05
-1.34033e-05
2.86236e-05
-4.58249e-06
2.60184e-05
3.39452e-06
2.31243e-05
8.06739e-06
2.05209e-05
9.79828e-06
1.8327e-05
9.13987e-06
1.64573e-05
7.45057e-06
1.50034e-05
6.23721e-06
1.40679e-05
5.67968e-06
1.35986e-05
5.19521e-06
1.34351e-05
4.50157e-06
1.34184e-05
3.70449e-06
1.34467e-05
2.96516e-06
1.34751e-05
2.35207e-06
1.34916e-05
1.86669e-06
1.3498e-05
1.48673e-06
1.34993e-05
1.18908e-06
1.34994e-05
9.55048e-07
1.35002e-05
7.70449e-07
1.35022e-05
6.24372e-07
1.35054e-05
5.08275e-07
1.35092e-05
4.15565e-07
1.35134e-05
3.41355e-07
1.35175e-05
2.81658e-07
1.35215e-05
2.33848e-07
1.35251e-05
1.95046e-07
1.35287e-05
1.64957e-07
1.35316e-05
1.3898e-07
1.35352e-05
1.23226e-07
1.3537e-05
1.01167e-07
1.3542e-05
1.05551e-07
1.35415e-05
6.58384e-08
1.35518e-05
1.24344e-07
1.35454e-05
-4.51204e-09
1.35698e-05
2.3132e-07
1.35498e-05
-2.12903e-07
1.36094e-05
5.69267e-07
1.3566e-05
-8.04154e-07
1.37011e-05
1.44215e-06
1.36517e-05
-2.19685e-06
1.38596e-05
3.30901e-06
1.39692e-05
-4.65605e-06
1.39312e-05
6.25699e-06
1.45647e-05
-7.33772e-06
1.37341e-05
8.5078e-06
1.50242e-05
-8.67287e-06
1.34511e-05
8.5001e-06
1.50227e-05
-8.55427e-06
1.33553e-05
7.92636e-06
1.44828e-05
-6.98118e-06
1.34185e-05
7.29207e-06
1.419e-05
-5.82765e-06
1.33605e-05
8.08327e-06
1.45687e-05
-7.1424e-06
1.35811e-05
8.74756e-06
1.48463e-05
-6.43174e-06
1.41492e-05
7.35027e-06
1.53116e-05
-4.76131e-06
1.41333e-05
8.7743e-06
1.62595e-05
-5.82754e-06
1.51341e-05
9.35952e-06
1.69842e-05
-3.97225e-06
1.57945e-05
9.90367e-06
1.84243e-05
-2.89882e-06
1.68797e-05
1.14283e-05
1.93304e-05
-8.20307e-07
1.73956e-05
1.30971e-05
1.92864e-05
1.61387e-06
1.63137e-05
1.55262e-05
1.70543e-05
4.62153e-06
1.36543e-05
1.79582e-05
1.50766e-05
5.98149e-06
1.57432e-05
2.13102e-05
1.97869e-05
1.02461e-05
1.95626e-05
3.41573e-05
2.48159e-05
1.45394e-05
5.66779e-05
2.59809e-05
2.72512e-05
-5.70996e-07
2.76355e-05
-1.4887e-06
2.81599e-05
-2.26224e-06
2.84171e-05
1.0299e-06
2.8636e-05
2.39354e-06
2.91038e-05
-2.53279e-06
2.9835e-05
-2.60741e-06
3.0969e-05
2.73465e-06
3.25259e-05
8.36887e-07
3.34482e-05
-5.88761e-06
3.28602e-05
-8.87512e-06
3.35429e-05
-1.08371e-05
3.55708e-05
-1.52047e-05
3.61702e-05
-2.0456e-05
3.57361e-05
-2.46941e-05
3.50227e-05
-2.8559e-05
3.4304e-05
-2.96278e-05
3.4065e-05
-2.97329e-05
3.43188e-05
-3.06521e-05
3.51153e-05
-3.00152e-05
3.57428e-05
-2.85533e-05
3.49627e-05
-2.44621e-05
3.30774e-05
-1.83841e-05
3.07964e-05
-1.11223e-05
2.82976e-05
-2.0837e-06
2.55048e-05
6.18731e-06
2.26621e-05
1.09101e-05
2.01484e-05
1.2312e-05
1.79596e-05
1.13287e-05
1.60271e-05
9.38305e-06
1.45051e-05
7.75917e-06
1.35487e-05
6.63606e-06
1.31232e-05
5.62078e-06
1.30449e-05
4.57983e-06
1.31201e-05
3.62929e-06
1.32274e-05
2.85783e-06
1.3317e-05
2.26251e-06
1.33794e-05
1.80426e-06
1.34194e-05
1.4467e-06
1.34445e-05
1.16402e-06
1.34608e-05
9.38782e-07
1.34723e-05
7.58958e-07
1.34814e-05
6.1527e-07
1.34893e-05
5.00339e-07
1.34965e-05
4.0835e-07
1.35032e-05
3.34667e-07
1.35093e-05
2.75563e-07
1.35149e-05
2.28239e-07
1.35198e-05
1.9015e-07
1.35245e-05
1.6024e-07
1.35282e-05
1.35347e-07
1.35328e-05
1.18587e-07
1.35346e-05
9.93118e-08
1.35414e-05
9.87886e-08
1.35391e-05
6.81328e-08
1.35539e-05
1.0961e-07
1.354e-05
9.34995e-09
1.35774e-05
1.93869e-07
1.3534e-05
-1.69442e-07
1.36277e-05
4.75531e-07
1.35234e-05
-6.99843e-07
1.37311e-05
1.23443e-06
1.3559e-05
-2.02472e-06
1.38752e-05
2.99278e-06
1.38417e-05
-4.62256e-06
1.38376e-05
6.26113e-06
1.45281e-05
-8.02827e-06
1.34485e-05
9.58747e-06
1.49689e-05
-1.01933e-05
1.32721e-05
1.01969e-05
1.46436e-05
-9.92574e-06
1.35578e-05
9.01208e-06
1.42857e-05
-7.70899e-06
1.37941e-05
7.78366e-06
1.44983e-05
-6.53189e-06
1.39738e-05
8.60782e-06
1.50912e-05
-8.25982e-06
1.41672e-05
9.67154e-06
1.56014e-05
-7.86597e-06
1.46653e-05
8.28644e-06
1.58545e-05
-5.95054e-06
1.46943e-05
9.93446e-06
1.67506e-05
-7.88386e-06
1.53476e-05
1.07625e-05
1.71209e-05
-5.74553e-06
1.60082e-05
1.10164e-05
1.8673e-05
-5.56361e-06
1.72523e-05
1.28491e-05
2.02486e-05
-3.81668e-06
1.91313e-05
1.42145e-05
2.23543e-05
-1.60917e-06
2.06054e-05
1.72752e-05
2.30059e-05
2.221e-06
1.99524e-05
2.10117e-05
1.98344e-05
6.09947e-06
1.61239e-05
2.50206e-05
1.82678e-05
8.1022e-06
1.76734e-05
3.47517e-05
2.36431e-05
8.56968e-06
5.11877e-05
2.91333e-05
2.98943e-05
-2.82942e-07
3.06071e-05
-2.20157e-06
3.13248e-05
-2.97986e-06
3.14774e-05
8.77272e-07
3.19114e-05
1.95952e-06
3.19858e-05
-2.60713e-06
3.23427e-05
-2.96431e-06
3.3796e-05
1.28132e-06
3.54526e-05
-8.19678e-07
3.59997e-05
-6.43475e-06
3.53449e-05
-8.22029e-06
3.57604e-05
-1.12526e-05
3.67194e-05
-1.61638e-05
3.63315e-05
-2.0068e-05
3.54962e-05
-2.38588e-05
3.4386e-05
-2.74488e-05
3.33301e-05
-2.85719e-05
3.32713e-05
-2.9674e-05
3.39331e-05
-3.13139e-05
3.44104e-05
-3.04925e-05
3.45206e-05
-2.86635e-05
3.37631e-05
-2.37046e-05
3.19625e-05
-1.65835e-05
2.98183e-05
-8.97811e-06
2.73715e-05
3.63135e-07
2.46465e-05
8.91229e-06
2.18528e-05
1.37038e-05
1.93626e-05
1.48021e-05
1.73048e-05
1.33865e-05
1.55442e-05
1.11437e-05
1.41035e-05
9.19988e-06
1.31865e-05
7.55299e-06
1.28253e-05
5.98207e-06
1.28268e-05
4.57831e-06
1.29671e-05
3.48892e-06
1.31154e-05
2.7096e-06
1.32287e-05
2.14922e-06
1.33065e-05
1.72646e-06
1.3359e-05
1.39414e-06
1.33955e-05
1.12752e-06
1.3422e-05
9.12325e-07
1.34421e-05
7.38823e-07
1.34582e-05
5.99227e-07
1.34714e-05
4.87068e-07
1.34827e-05
3.97107e-07
1.34924e-05
3.2496e-07
1.35008e-05
2.67164e-07
1.35082e-05
2.20846e-07
1.35144e-05
1.83876e-07
1.35203e-05
1.54335e-07
1.35248e-05
1.30944e-07
1.35305e-05
1.12868e-07
1.35322e-05
9.75422e-08
1.3541e-05
9.0019e-08
1.35361e-05
7.30735e-08
1.3557e-05
8.86544e-08
1.3532e-05
3.44054e-08
1.35889e-05
1.36949e-07
1.351e-05
-9.05604e-08
1.36534e-05
3.32174e-07
1.34621e-05
-5.08562e-07
1.37616e-05
9.34965e-07
1.34352e-05
-1.69837e-06
1.38663e-05
2.56171e-06
1.36568e-05
-4.41305e-06
1.37601e-05
6.15775e-06
1.43749e-05
-8.64305e-06
1.33237e-05
1.06387e-05
1.48165e-05
-1.16861e-05
1.32578e-05
1.17556e-05
1.43142e-05
-1.09822e-05
1.37227e-05
9.60364e-06
1.39659e-05
-7.9522e-06
1.37878e-05
7.96176e-06
1.44696e-05
-7.21371e-06
1.3573e-05
9.50436e-06
1.48734e-05
-9.56019e-06
1.36808e-05
1.08642e-05
1.47182e-05
-8.90334e-06
1.40038e-05
9.00077e-06
1.51054e-05
-7.05213e-06
1.39143e-05
1.11255e-05
1.5807e-05
-9.77648e-06
1.47549e-05
1.18145e-05
1.60645e-05
-7.05511e-06
1.5304e-05
1.17769e-05
1.76546e-05
-7.91418e-06
1.68345e-05
1.36691e-05
1.91318e-05
-6.11396e-06
1.87617e-05
1.45846e-05
2.22944e-05
-5.14181e-06
2.19952e-05
1.75743e-05
2.61886e-05
-1.97235e-06
2.50455e-05
2.21547e-05
2.95106e-05
1.63436e-06
2.53171e-05
2.92142e-05
2.76237e-05
5.79558e-06
2.25576e-05
3.98178e-05
2.22616e-05
8.86565e-06
4.49547e-05
2.84946e-05
3.16244e-05
-2.1719e-07
3.22982e-05
-2.8754e-06
3.29172e-05
-3.5988e-06
3.31824e-05
6.12037e-07
3.40479e-05
1.09406e-06
3.39085e-05
-2.46777e-06
3.35938e-05
-2.64963e-06
3.50267e-05
-1.51583e-07
3.6395e-05
-2.18793e-06
3.64254e-05
-6.46514e-06
3.62339e-05
-8.02883e-06
3.67141e-05
-1.17328e-05
3.66126e-05
-1.60624e-05
3.561e-05
-1.90654e-05
3.46493e-05
-2.28982e-05
3.34982e-05
-2.62977e-05
3.2781e-05
-2.78548e-05
3.27562e-05
-2.96492e-05
3.30518e-05
-3.16095e-05
3.29161e-05
-3.03568e-05
3.19678e-05
-2.77152e-05
3.07781e-05
-2.25149e-05
2.92233e-05
-1.50287e-05
2.74401e-05
-7.19485e-06
2.54487e-05
2.35453e-06
2.31793e-05
1.11817e-05
2.08138e-05
1.60693e-05
1.87844e-05
1.68315e-05
1.68847e-05
1.52863e-05
1.49905e-05
1.30379e-05
1.35284e-05
1.06621e-05
1.27865e-05
8.29482e-06
1.26356e-05
6.133e-06
1.27803e-05
4.43357e-06
1.29835e-05
3.28578e-06
1.31392e-05
2.55389e-06
1.32365e-05
2.05196e-06
1.32962e-05
1.66674e-06
1.33375e-05
1.35282e-06
1.337e-05
1.09496e-06
1.33973e-05
8.85061e-07
1.34205e-05
7.15643e-07
1.34401e-05
5.79621e-07
1.34567e-05
4.70494e-07
1.34707e-05
3.83066e-07
1.34827e-05
3.12957e-07
1.3493e-05
2.56912e-07
1.35019e-05
2.11928e-07
1.35094e-05
1.76377e-07
1.35164e-05
1.47364e-07
1.35215e-05
1.25791e-07
1.35282e-05
1.06214e-07
1.353e-05
9.57072e-08
1.35404e-05
7.9651e-08
1.35335e-05
7.99794e-08
1.35592e-05
6.28814e-08
1.35256e-05
6.80742e-08
1.3597e-05
6.55559e-08
1.3492e-05
1.44396e-08
1.36673e-05
1.56781e-07
1.34195e-05
-2.60741e-07
1.37585e-05
5.96037e-07
1.33528e-05
-1.2927e-06
1.37999e-05
2.11457e-06
1.3505e-05
-4.11812e-06
1.36647e-05
5.99801e-06
1.41446e-05
-9.12295e-06
1.33105e-05
1.14729e-05
1.45128e-05
-1.28885e-05
1.3325e-05
1.29435e-05
1.3881e-05
-1.15382e-05
1.36993e-05
9.7853e-06
1.36215e-05
-7.87432e-06
1.35347e-05
8.04847e-06
1.42091e-05
-7.88809e-06
1.30931e-05
1.06204e-05
1.44113e-05
-1.08784e-05
1.34857e-05
1.17897e-05
1.41935e-05
-9.61112e-06
1.35707e-05
9.62361e-06
1.46053e-05
-8.08677e-06
1.33591e-05
1.23718e-05
1.48914e-05
-1.13088e-05
1.38286e-05
1.28774e-05
1.4896e-05
-8.12255e-06
1.37862e-05
1.28867e-05
1.56643e-05
-9.79233e-06
1.4263e-05
1.50705e-05
1.56493e-05
-7.50031e-06
1.45718e-05
1.56621e-05
1.71788e-05
-7.74875e-06
1.62668e-05
1.84863e-05
1.94516e-05
-5.1571e-06
1.87996e-05
2.28067e-05
2.4687e-05
-4.25306e-06
2.39341e-05
2.99671e-05
2.91152e-05
6.14478e-07
2.89562e-05
3.99767e-05
2.67263e-05
1.10956e-05
4.20625e-05
2.96184e-05
3.4051e-05
-1.01243e-07
3.36037e-05
-2.42812e-06
3.29275e-05
-2.92264e-06
3.3138e-05
4.0163e-07
3.44528e-05
-2.20747e-07
3.45351e-05
-2.55009e-06
3.40818e-05
-2.19636e-06
3.50151e-05
-1.08488e-06
3.55825e-05
-2.75531e-06
3.54396e-05
-6.32229e-06
3.60935e-05
-8.68266e-06
3.64655e-05
-1.21048e-05
3.57106e-05
-1.53075e-05
3.49586e-05
-1.83134e-05
3.42338e-05
-2.21734e-05
3.32348e-05
-2.52986e-05
3.29782e-05
-2.75982e-05
3.27831e-05
-2.94542e-05
3.18756e-05
-3.07019e-05
3.0599e-05
-2.90802e-05
2.87903e-05
-2.59065e-05
2.70454e-05
-2.07701e-05
2.56376e-05
-1.36209e-05
2.42841e-05
-5.84128e-06
2.26879e-05
3.95072e-06
2.08583e-05
1.30113e-05
1.89895e-05
1.79381e-05
1.7176e-05
1.8645e-05
1.54455e-05
1.70168e-05
1.40965e-05
1.43868e-05
1.32096e-05
1.1549e-05
1.27463e-05
8.75812e-06
1.27e-05
6.17933e-06
1.29114e-05
4.22208e-06
1.31588e-05
3.03844e-06
1.3322e-05
2.3907e-06
1.33918e-05
1.98219e-06
1.34055e-05
1.65299e-06
1.34e-05
1.35831e-06
1.3396e-05
1.09904e-06
1.33998e-05
8.81184e-07
1.34108e-05
7.04646e-07
1.34259e-05
5.64518e-07
1.34423e-05
4.54163e-07
1.3458e-05
3.67344e-07
1.34722e-05
2.98738e-07
1.34846e-05
2.44555e-07
1.34953e-05
2.0123e-07
1.35042e-05
1.67442e-07
1.35123e-05
1.39255e-07
1.35183e-05
1.19749e-07
1.35258e-05
9.87965e-08
1.3528e-05
9.34288e-08
1.35392e-05
6.84882e-08
1.35318e-05
8.73393e-08
1.35596e-05
3.51547e-08
1.35224e-05
1.05194e-07
1.36001e-05
-1.20887e-08
1.34828e-05
1.31722e-07
1.36734e-05
-3.38134e-08
1.33942e-05
1.84818e-08
1.37563e-05
2.33884e-07
1.32855e-05
-8.21849e-07
1.37689e-05
1.63111e-06
1.33288e-05
-3.67797e-06
1.36459e-05
5.68093e-06
1.38078e-05
-9.28489e-06
1.33488e-05
1.19319e-05
1.42402e-05
-1.37799e-05
1.34515e-05
1.37322e-05
1.36123e-05
-1.1699e-05
1.39204e-05
9.47726e-06
1.34897e-05
-7.44363e-06
1.36667e-05
7.87146e-06
1.42841e-05
-8.50553e-06
1.32885e-05
1.1616e-05
1.44223e-05
-1.20121e-05
1.38642e-05
1.23477e-05
1.42592e-05
-1.00061e-05
1.37019e-05
1.01809e-05
1.49718e-05
-9.35673e-06
1.37133e-05
1.36303e-05
1.49001e-05
-1.24956e-05
1.42475e-05
1.353e-05
1.5387e-05
-9.26209e-06
1.40551e-05
1.42187e-05
1.61066e-05
-1.18439e-05
1.47395e-05
1.64376e-05
1.617e-05
-8.93081e-06
1.44424e-05
1.73897e-05
1.71505e-05
-1.04569e-05
1.50097e-05
2.06271e-05
1.72871e-05
-7.43447e-06
1.48432e-05
2.52506e-05
1.88464e-05
-8.25634e-06
1.91467e-05
2.96669e-05
2.32209e-05
-3.45975e-06
2.68725e-05
3.63251e-05
2.78865e-05
1.00817e-05
3.90788e-05
3.08703e-05
3.47859e-05
-3.65365e-07
3.37933e-05
-1.43552e-06
3.26391e-05
-1.76848e-06
3.3032e-05
8.70691e-09
3.3951e-05
-1.13969e-06
3.40473e-05
-2.64643e-06
3.38734e-05
-2.0224e-06
3.43436e-05
-1.55516e-06
3.48011e-05
-3.21282e-06
3.51182e-05
-6.63936e-06
3.56854e-05
-9.24985e-06
3.54983e-05
-1.19177e-05
3.49674e-05
-1.47766e-05
3.46785e-05
-1.80245e-05
3.38858e-05
-2.13807e-05
3.2935e-05
-2.43478e-05
3.24752e-05
-2.71384e-05
3.15112e-05
-2.84902e-05
2.95281e-05
-2.87188e-05
2.72065e-05
-2.67587e-05
2.48383e-05
-2.35383e-05
2.29243e-05
-1.8856e-05
2.16659e-05
-1.23625e-05
2.05623e-05
-4.73773e-06
1.92511e-05
5.26189e-06
1.80257e-05
1.42368e-05
1.68767e-05
1.90871e-05
1.5734e-05
1.97876e-05
1.47381e-05
1.80127e-05
1.37112e-05
1.54137e-05
1.27023e-05
1.25579e-05
1.22373e-05
9.22316e-06
1.23863e-05
6.03029e-06
1.27621e-05
3.84627e-06
1.30751e-05
2.7254e-06
1.32538e-05
2.21207e-06
1.3333e-05
1.90299e-06
1.33638e-05
1.62211e-06
1.33785e-05
1.3436e-06
1.33901e-05
1.08752e-06
1.34017e-05
8.69507e-07
1.34141e-05
6.92294e-07
1.34272e-05
5.51431e-07
1.34408e-05
4.40584e-07
1.34544e-05
3.53744e-07
1.34675e-05
2.85639e-07
1.34796e-05
2.32443e-07
1.34906e-05
1.9025e-07
1.35001e-05
1.57917e-07
1.35088e-05
1.30528e-07
1.35156e-05
1.12981e-07
1.35234e-05
9.09689e-08
1.35265e-05
9.03382e-08
1.35375e-05
5.75135e-08
1.35315e-05
9.33413e-08
1.35577e-05
8.96515e-09
1.35235e-05
1.39354e-07
1.35971e-05
-8.56594e-08
1.34857e-05
2.43104e-07
1.3669e-05
-2.17127e-07
1.3397e-05
2.90431e-07
1.37485e-05
-1.17533e-07
1.32731e-05
-3.46471e-07
1.37445e-05
1.15974e-06
1.32309e-05
-3.16443e-06
1.36226e-05
5.28927e-06
1.35132e-05
-9.17552e-06
1.33833e-05
1.20618e-05
1.39209e-05
-1.43175e-05
1.34821e-05
1.4171e-05
1.33958e-05
-1.16127e-05
1.38898e-05
8.98327e-06
1.31445e-05
-6.69833e-06
1.35428e-05
7.47311e-06
1.3972e-05
-8.93471e-06
1.30652e-05
1.25228e-05
1.39305e-05
-1.28774e-05
1.33807e-05
1.28975e-05
1.35573e-05
-1.01826e-05
1.30914e-05
1.06468e-05
1.40318e-05
-1.02971e-05
1.30009e-05
1.46612e-05
1.39162e-05
-1.34109e-05
1.33538e-05
1.40924e-05
1.42647e-05
-1.0173e-05
1.30229e-05
1.54606e-05
1.48123e-05
-1.36333e-05
1.37394e-05
1.75105e-05
1.49726e-05
-1.0164e-05
1.36612e-05
1.87011e-05
1.63449e-05
-1.31406e-05
1.50067e-05
2.19654e-05
1.71542e-05
-9.58203e-06
1.57048e-05
2.67e-05
1.85856e-05
-1.11371e-05
1.8562e-05
2.96904e-05
2.03504e-05
-5.24807e-06
2.3334e-05
3.33415e-05
2.5769e-05
7.64669e-06
3.42906e-05
3.05571e-05
3.37118e-05
-3.15688e-07
3.36832e-05
-1.40689e-06
3.40136e-05
-2.09893e-06
3.37066e-05
3.15795e-07
3.26905e-05
-1.23678e-07
3.26978e-05
-2.65367e-06
3.38863e-05
-3.2109e-06
3.53256e-05
-2.99445e-06
3.58288e-05
-3.71607e-06
3.50999e-05
-5.91045e-06
3.4326e-05
-8.47589e-06
3.40878e-05
-1.16795e-05
3.42283e-05
-1.49171e-05
3.38675e-05
-1.76637e-05
3.29599e-05
-2.04731e-05
3.21841e-05
-2.3572e-05
3.1024e-05
-2.59783e-05
2.87693e-05
-2.62355e-05
2.58904e-05
-2.58399e-05
2.32075e-05
-2.40758e-05
2.07388e-05
-2.10696e-05
1.87264e-05
-1.68436e-05
1.74199e-05
-1.1056e-05
1.65569e-05
-3.87472e-06
1.58965e-05
5.92225e-06
1.52928e-05
1.48405e-05
1.46659e-05
1.9714e-05
1.42263e-05
2.02272e-05
1.36905e-05
1.85485e-05
1.28021e-05
1.63021e-05
1.23239e-05
1.30361e-05
1.25728e-05
8.97432e-06
1.29249e-05
5.67813e-06
1.29692e-05
3.80204e-06
1.28217e-05
2.87284e-06
1.27066e-05
2.32721e-06
1.27104e-05
1.8992e-06
1.28072e-05
1.52524e-06
1.29427e-05
1.20814e-06
1.30764e-05
9.53826e-07
1.31891e-05
7.5675e-07
1.32765e-05
6.04922e-07
1.33412e-05
4.86738e-07
1.33883e-05
3.93516e-07
1.34226e-05
3.19445e-07
1.3448e-05
2.60209e-07
1.34673e-05
2.13137e-07
1.34825e-05
1.75099e-07
1.34945e-05
1.45866e-07
1.35047e-05
1.20325e-07
1.35127e-05
1.05011e-07
1.35209e-05
8.27621e-08
1.35252e-05
8.59951e-08
1.35352e-05
4.75452e-08
1.35322e-05
9.63601e-08
1.35537e-05
-1.25522e-08
1.35283e-05
1.6475e-07