/*--------------------------------*- C++ -*----------------------------------*\
| =========                 |                                                 |
| \\      /  F ield         | OpenFOAM: The Open Source CFD Toolbox           |
|  \\    /   O peration     | Version:  2.4.0                                 |
|   \\  /    A nd           | Web:      www.OpenFOAM.org                      |
|    \\/     M anipulation  |                                                 |
\*---------------------------------------------------------------------------*/
FoamFile
{
    version     2.0;
    format      ascii;
    class       volScalarField;
    location    "0.104";
    object      pPrime2Mean;
}
// * * * * * * * * * * * * * * * * * * * * * * * * * * * * * * * * * * * * * //

dimensions      [0 4 -4 0 0 0 0];

internalField   nonuniform List<scalar> 
4400
(
6.12468e+06
5.80963e+06
5.48137e+06
5.1617e+06
4.85157e+06
4.55095e+06
4.25962e+06
3.9769e+06
3.70049e+06
3.4197e+06
6.12482e+06
5.80962e+06
5.48137e+06
5.1617e+06
4.85157e+06
4.55095e+06
4.25964e+06
3.97696e+06
3.7007e+06
3.42074e+06
6.1249e+06
5.8096e+06
5.48136e+06
5.1617e+06
4.85157e+06
4.55096e+06
4.25967e+06
3.97708e+06
3.70109e+06
3.42307e+06
6.12495e+06
5.80957e+06
5.48135e+06
5.1617e+06
4.85158e+06
4.55098e+06
4.25972e+06
3.97724e+06
3.70167e+06
3.42612e+06
6.12499e+06
5.80955e+06
5.48134e+06
5.1617e+06
4.85158e+06
4.55099e+06
4.25978e+06
3.97745e+06
3.70241e+06
3.42955e+06
6.12502e+06
5.80953e+06
5.48133e+06
5.16169e+06
4.85158e+06
4.55101e+06
4.25986e+06
3.9777e+06
3.70326e+06
3.43314e+06
6.12505e+06
5.80951e+06
5.48132e+06
5.1617e+06
4.85159e+06
4.55104e+06
4.25994e+06
3.97798e+06
3.70421e+06
3.43675e+06
6.12508e+06
5.8095e+06
5.48132e+06
5.1617e+06
4.8516e+06
4.55107e+06
4.26003e+06
3.97828e+06
3.70521e+06
3.44027e+06
6.12509e+06
5.80949e+06
5.48131e+06
5.1617e+06
4.85161e+06
4.5511e+06
4.26013e+06
3.9786e+06
3.70624e+06
3.44364e+06
6.1251e+06
5.80949e+06
5.48131e+06
5.1617e+06
4.85162e+06
4.55113e+06
4.26024e+06
3.97893e+06
3.70727e+06
3.44681e+06
6.1251e+06
5.80949e+06
5.48131e+06
5.16171e+06
4.85163e+06
4.55116e+06
4.26034e+06
3.97925e+06
3.70827e+06
3.44974e+06
6.12509e+06
5.80949e+06
5.48132e+06
5.16171e+06
4.85164e+06
4.5512e+06
4.26044e+06
3.97956e+06
3.70922e+06
3.45242e+06
6.12508e+06
5.8095e+06
5.48132e+06
5.16171e+06
4.85165e+06
4.55123e+06
4.26054e+06
3.97986e+06
3.71011e+06
3.45482e+06
6.12506e+06
5.80952e+06
5.48133e+06
5.16172e+06
4.85166e+06
4.55126e+06
4.26063e+06
3.98014e+06
3.71092e+06
3.45694e+06
6.12503e+06
5.80953e+06
5.48134e+06
5.16172e+06
4.85167e+06
4.55129e+06
4.26072e+06
3.98038e+06
3.71164e+06
3.45876e+06
6.12499e+06
5.80955e+06
5.48135e+06
5.16173e+06
4.85168e+06
4.55132e+06
4.26079e+06
3.9806e+06
3.71225e+06
3.46029e+06
6.12495e+06
5.80958e+06
5.48136e+06
5.16173e+06
4.85169e+06
4.55134e+06
4.26085e+06
3.98077e+06
3.71275e+06
3.46151e+06
6.1249e+06
5.80961e+06
5.48138e+06
5.16174e+06
4.8517e+06
4.55135e+06
4.2609e+06
3.98091e+06
3.71313e+06
3.46243e+06
6.12482e+06
5.80963e+06
5.48139e+06
5.16174e+06
4.8517e+06
4.55136e+06
4.26093e+06
3.981e+06
3.71339e+06
3.46304e+06
6.12468e+06
5.80963e+06
5.48139e+06
5.16174e+06
4.85171e+06
4.55137e+06
4.26094e+06
3.98105e+06
3.71352e+06
3.46334e+06
3.1793e+06
3.1236e+06
3.07908e+06
3.03823e+06
2.99921e+06
2.96136e+06
2.92431e+06
2.88791e+06
2.85201e+06
2.81653e+06
2.78141e+06
2.74659e+06
2.71205e+06
2.67774e+06
2.64366e+06
2.6098e+06
2.57616e+06
2.54272e+06
2.50949e+06
2.47648e+06
2.44368e+06
2.4111e+06
2.37875e+06
2.34663e+06
2.31476e+06
2.28314e+06
2.25177e+06
2.22064e+06
2.18974e+06
2.15908e+06
2.12865e+06
2.09844e+06
2.06845e+06
2.03867e+06
2.00911e+06
1.97975e+06
1.95061e+06
1.92167e+06
1.89293e+06
1.86441e+06
1.83609e+06
1.80799e+06
1.78009e+06
1.75241e+06
1.72494e+06
1.69768e+06
1.67063e+06
1.6438e+06
1.61719e+06
1.59079e+06
1.56462e+06
1.53867e+06
1.51294e+06
1.48743e+06
1.46214e+06
1.43708e+06
1.41223e+06
1.38761e+06
1.36319e+06
1.33901e+06
1.31503e+06
1.29129e+06
1.26774e+06
1.24442e+06
1.22131e+06
1.19841e+06
1.17571e+06
1.15324e+06
1.13097e+06
1.10894e+06
1.08711e+06
1.06553e+06
1.04415e+06
1.023e+06
1.00205e+06
981343
960822
940539
920442
900581
880904
861466
842210
823192
804355
785754
767329
749131
731102
713283
695618
678135
660770
643537
626334
609155
591778
574119
555429
534423
3.20503e+06
3.14221e+06
3.09258e+06
3.04854e+06
3.00733e+06
2.96785e+06
2.92955e+06
2.89215e+06
2.85545e+06
2.81932e+06
2.78368e+06
2.74843e+06
2.71354e+06
2.67895e+06
2.64463e+06
2.61058e+06
2.57678e+06
2.54322e+06
2.5099e+06
2.4768e+06
2.44394e+06
2.41132e+06
2.37893e+06
2.34679e+06
2.3149e+06
2.28327e+06
2.25189e+06
2.22076e+06
2.18986e+06
2.1592e+06
2.12877e+06
2.09856e+06
2.06857e+06
2.03879e+06
2.00922e+06
1.97985e+06
1.9507e+06
1.92174e+06
1.89299e+06
1.86446e+06
1.83613e+06
1.80801e+06
1.78011e+06
1.75242e+06
1.72494e+06
1.69768e+06
1.67064e+06
1.64381e+06
1.6172e+06
1.59081e+06
1.56463e+06
1.53869e+06
1.51296e+06
1.48746e+06
1.46217e+06
1.43711e+06
1.41225e+06
1.38764e+06
1.36321e+06
1.33903e+06
1.31505e+06
1.2913e+06
1.26776e+06
1.24444e+06
1.22131e+06
1.19841e+06
1.17571e+06
1.15323e+06
1.13095e+06
1.10891e+06
1.08707e+06
1.06548e+06
1.04409e+06
1.02294e+06
1.00197e+06
981247
960706
940403
920276
900387
880668
861189
841872
822796
803872
785185
766638
748314
730114
712112
694206
676455
658742
641108
623380
605567
587318
568497
547981
523659
3.2246e+06
3.15856e+06
3.10527e+06
3.05847e+06
3.01522e+06
2.97419e+06
2.93469e+06
2.89633e+06
2.85885e+06
2.82208e+06
2.78592e+06
2.75025e+06
2.71501e+06
2.68013e+06
2.64559e+06
2.61135e+06
2.57739e+06
2.54371e+06
2.51029e+06
2.47712e+06
2.4442e+06
2.41153e+06
2.37912e+06
2.34696e+06
2.31505e+06
2.28341e+06
2.25203e+06
2.22089e+06
2.18999e+06
2.15933e+06
2.1289e+06
2.09868e+06
2.06869e+06
2.0389e+06
2.00933e+06
1.97995e+06
1.95078e+06
1.92181e+06
1.89305e+06
1.8645e+06
1.83615e+06
1.80803e+06
1.78011e+06
1.75242e+06
1.72493e+06
1.69767e+06
1.67063e+06
1.6438e+06
1.61719e+06
1.59081e+06
1.56464e+06
1.5387e+06
1.51297e+06
1.48747e+06
1.46218e+06
1.43712e+06
1.41227e+06
1.38765e+06
1.36323e+06
1.33905e+06
1.31506e+06
1.29132e+06
1.26777e+06
1.24445e+06
1.22132e+06
1.19841e+06
1.1757e+06
1.15321e+06
1.13093e+06
1.10888e+06
1.08703e+06
1.06543e+06
1.04403e+06
1.02287e+06
1.00189e+06
981151
960591
940267
920113
900195
880437
860916
841541
822407
803399
784627
765959
747514
729142
710965
692818
674809
656757
638739
620513
602108
583063
563240
541374
515530
3.24015e+06
3.17281e+06
3.11695e+06
3.06786e+06
3.02279e+06
2.98033e+06
2.93968e+06
2.90039e+06
2.86216e+06
2.82478e+06
2.78811e+06
2.75203e+06
2.71645e+06
2.68129e+06
2.64652e+06
2.61209e+06
2.57799e+06
2.54419e+06
2.51067e+06
2.47743e+06
2.44445e+06
2.41175e+06
2.37931e+06
2.34713e+06
2.31522e+06
2.28357e+06
2.25217e+06
2.22103e+06
2.19013e+06
2.15946e+06
2.12903e+06
2.09881e+06
2.06881e+06
2.03901e+06
2.00943e+06
1.98004e+06
1.95085e+06
1.92187e+06
1.89309e+06
1.86453e+06
1.83617e+06
1.80803e+06
1.78011e+06
1.7524e+06
1.72491e+06
1.69765e+06
1.6706e+06
1.64379e+06
1.61718e+06
1.5908e+06
1.56463e+06
1.5387e+06
1.51297e+06
1.48747e+06
1.46218e+06
1.43713e+06
1.41227e+06
1.38766e+06
1.36323e+06
1.33906e+06
1.31507e+06
1.29132e+06
1.26777e+06
1.24445e+06
1.22131e+06
1.1984e+06
1.17568e+06
1.15319e+06
1.1309e+06
1.10884e+06
1.08699e+06
1.06538e+06
1.04397e+06
1.0228e+06
1.00181e+06
981056
960479
940133
919954
900006
880211
860648
841220
822026
802938
784083
765298
746736
728196
709851
691465
673213
654826
636447
617752
598804
579071
558413
535642
509233
3.25284e+06
3.18519e+06
3.12759e+06
3.07664e+06
3.02999e+06
2.98621e+06
2.94449e+06
2.90433e+06
2.86537e+06
2.8274e+06
2.79023e+06
2.75375e+06
2.71784e+06
2.68241e+06
2.64742e+06
2.61282e+06
2.57857e+06
2.54465e+06
2.51105e+06
2.47773e+06
2.44471e+06
2.41197e+06
2.3795e+06
2.34731e+06
2.31538e+06
2.28373e+06
2.25233e+06
2.22118e+06
2.19027e+06
2.1596e+06
2.12915e+06
2.09893e+06
2.06892e+06
2.03912e+06
2.00952e+06
1.98011e+06
1.95092e+06
1.92191e+06
1.89312e+06
1.86454e+06
1.83617e+06
1.80803e+06
1.78009e+06
1.75238e+06
1.72488e+06
1.69762e+06
1.67057e+06
1.64376e+06
1.61715e+06
1.59078e+06
1.56461e+06
1.53868e+06
1.51295e+06
1.48746e+06
1.46217e+06
1.43712e+06
1.41226e+06
1.38766e+06
1.36322e+06
1.33906e+06
1.31506e+06
1.29132e+06
1.26777e+06
1.24445e+06
1.2213e+06
1.19839e+06
1.17567e+06
1.15317e+06
1.13087e+06
1.10881e+06
1.08695e+06
1.06533e+06
1.04392e+06
1.02273e+06
1.00173e+06
980962
960369
940002
919800
899821
879992
860387
840908
821653
802493
783552
764663
745981
727289
708778
690167
671683
652975
634263
615112
595678
575359
554028
530722
504196
3.26342e+06
3.19594e+06
3.13719e+06
3.08478e+06
3.03676e+06
2.9918e+06
2.94909e+06
2.9081e+06
2.86846e+06
2.82992e+06
2.79229e+06
2.75541e+06
2.71918e+06
2.6835e+06
2.6483e+06
2.61352e+06
2.57913e+06
2.5451e+06
2.51141e+06
2.47804e+06
2.44497e+06
2.41219e+06
2.3797e+06
2.34749e+06
2.31556e+06
2.28389e+06
2.25248e+06
2.22132e+06
2.1904e+06
2.15972e+06
2.12927e+06
2.09903e+06
2.06902e+06
2.0392e+06
2.00959e+06
1.98018e+06
1.95096e+06
1.92194e+06
1.89314e+06
1.86454e+06
1.83616e+06
1.808e+06
1.78005e+06
1.75235e+06
1.72484e+06
1.69758e+06
1.67053e+06
1.64373e+06
1.61712e+06
1.59075e+06
1.56458e+06
1.53866e+06
1.51292e+06
1.48744e+06
1.46215e+06
1.43711e+06
1.41224e+06
1.38765e+06
1.3632e+06
1.33905e+06
1.31505e+06
1.29132e+06
1.26775e+06
1.24444e+06
1.22129e+06
1.19838e+06
1.17564e+06
1.15315e+06
1.13084e+06
1.10877e+06
1.08691e+06
1.06528e+06
1.04386e+06
1.02266e+06
1.00166e+06
980870
960264
939874
919651
899642
879781
860132
840607
821290
802063
783035
764049
745245
726414
707735
688927
670216
651221
632200
612644
592788
571968
550102
526440
500026
3.27238e+06
3.2053e+06
3.14581e+06
3.09226e+06
3.04307e+06
2.99707e+06
2.95345e+06
2.9117e+06
2.87142e+06
2.83234e+06
2.79426e+06
2.75702e+06
2.72048e+06
2.68455e+06
2.64914e+06
2.6142e+06
2.57969e+06
2.54555e+06
2.51178e+06
2.47834e+06
2.44523e+06
2.41242e+06
2.37991e+06
2.34768e+06
2.31573e+06
2.28405e+06
2.25262e+06
2.22145e+06
2.19052e+06
2.15983e+06
2.12937e+06
2.09912e+06
2.06909e+06
2.03927e+06
2.00965e+06
1.98022e+06
1.95099e+06
1.92195e+06
1.89314e+06
1.86452e+06
1.83613e+06
1.80797e+06
1.78001e+06
1.7523e+06
1.72479e+06
1.69752e+06
1.67048e+06
1.64369e+06
1.61707e+06
1.59071e+06
1.56453e+06
1.53862e+06
1.51289e+06
1.48741e+06
1.46211e+06
1.43708e+06
1.41221e+06
1.38763e+06
1.36318e+06
1.33904e+06
1.31502e+06
1.2913e+06
1.26773e+06
1.24442e+06
1.22126e+06
1.19836e+06
1.17561e+06
1.15312e+06
1.1308e+06
1.10873e+06
1.08686e+06
1.06523e+06
1.0438e+06
1.0226e+06
1.00158e+06
980782
960162
939751
919508
899469
879578
859887
840319
820941
801651
782536
763459
744533
725575
706726
687742
668801
649562
630240
610359
590124
568903
546630
522699
496514
3.28005e+06
3.21345e+06
3.15352e+06
3.09909e+06
3.04892e+06
3.00199e+06
2.95756e+06
2.9151e+06
2.87423e+06
2.83465e+06
2.79615e+06
2.75855e+06
2.72173e+06
2.68556e+06
2.64996e+06
2.61486e+06
2.58022e+06
2.54599e+06
2.51214e+06
2.47865e+06
2.44549e+06
2.41265e+06
2.38011e+06
2.34786e+06
2.31589e+06
2.2842e+06
2.25276e+06
2.22157e+06
2.19063e+06
2.15993e+06
2.12945e+06
2.09919e+06
2.06915e+06
2.03932e+06
2.00968e+06
1.98024e+06
1.951e+06
1.92195e+06
1.89312e+06
1.86449e+06
1.8361e+06
1.80792e+06
1.77996e+06
1.75225e+06
1.72473e+06
1.69747e+06
1.67043e+06
1.64364e+06
1.61702e+06
1.59067e+06
1.56449e+06
1.53858e+06
1.51284e+06
1.48738e+06
1.46207e+06
1.43705e+06
1.41217e+06
1.3876e+06
1.36314e+06
1.33902e+06
1.31499e+06
1.29129e+06
1.2677e+06
1.2444e+06
1.22124e+06
1.19833e+06
1.17558e+06
1.15309e+06
1.13076e+06
1.10869e+06
1.08682e+06
1.06518e+06
1.04375e+06
1.02253e+06
1.00151e+06
980695
960064
939633
919371
899303
879385
859654
840044
820609
801259
782063
762900
743861
724781
705775
686626
667466
648010
628392
608242
587637
566108
543513
519430
493532
3.28668e+06
3.22057e+06
3.16037e+06
3.10526e+06
3.05428e+06
3.00655e+06
2.96139e+06
2.9183e+06
2.87687e+06
2.83683e+06
2.79794e+06
2.76001e+06
2.72291e+06
2.68652e+06
2.65074e+06
2.6155e+06
2.58074e+06
2.54641e+06
2.51249e+06
2.47894e+06
2.44574e+06
2.41287e+06
2.3803e+06
2.34803e+06
2.31605e+06
2.28433e+06
2.25287e+06
2.22167e+06
2.19072e+06
2.16e+06
2.12951e+06
2.09924e+06
2.06919e+06
2.03934e+06
2.00969e+06
1.98024e+06
1.95098e+06
1.92192e+06
1.89309e+06
1.86444e+06
1.83605e+06
1.80786e+06
1.7799e+06
1.75218e+06
1.72467e+06
1.6974e+06
1.67038e+06
1.64359e+06
1.61697e+06
1.59062e+06
1.56444e+06
1.53854e+06
1.5128e+06
1.48734e+06
1.46203e+06
1.43701e+06
1.41213e+06
1.38756e+06
1.36311e+06
1.339e+06
1.31496e+06
1.29127e+06
1.26767e+06
1.24438e+06
1.2212e+06
1.19831e+06
1.17554e+06
1.15306e+06
1.13072e+06
1.10865e+06
1.08677e+06
1.06513e+06
1.0437e+06
1.02247e+06
1.00144e+06
980611
959970
939518
919240
899145
879202
859431
839785
820295
800890
781617
762375
743230
724038
704886
685583
666220
646566
626673
606284
585334
563552
540702
516577
490958
3.29244e+06
3.22679e+06
3.16643e+06
3.11081e+06
3.05916e+06
3.01074e+06
2.96493e+06
2.92126e+06
2.87934e+06
2.83887e+06
2.79962e+06
2.76139e+06
2.72403e+06
2.68743e+06
2.65148e+06
2.6161e+06
2.58123e+06
2.54682e+06
2.51283e+06
2.47923e+06
2.44598e+06
2.41307e+06
2.38047e+06
2.34818e+06
2.31618e+06
2.28445e+06
2.25297e+06
2.22175e+06
2.19078e+06
2.16005e+06
2.12955e+06
2.09927e+06
2.0692e+06
2.03934e+06
2.00969e+06
1.98022e+06
1.95096e+06
1.92189e+06
1.89304e+06
1.86439e+06
1.83599e+06
1.80779e+06
1.77984e+06
1.75212e+06
1.72461e+06
1.69734e+06
1.67033e+06
1.64354e+06
1.61692e+06
1.59057e+06
1.5644e+06
1.5385e+06
1.51276e+06
1.48729e+06
1.46198e+06
1.43696e+06
1.41209e+06
1.38752e+06
1.36307e+06
1.33897e+06
1.31492e+06
1.29124e+06
1.26763e+06
1.24435e+06
1.22116e+06
1.19828e+06
1.1755e+06
1.15303e+06
1.13067e+06
1.10861e+06
1.08672e+06
1.06508e+06
1.04364e+06
1.02241e+06
1.00137e+06
980529
959877
939407
919115
898993
879028
859219
839541
819998
800545
781199
761887
742639
723349
704056
684617
665061
645227
625082
604464
583226
561228
538186
514086
488706
3.29746e+06
3.23222e+06
3.17178e+06
3.11575e+06
3.06355e+06
3.01454e+06
2.96817e+06
2.92398e+06
2.88161e+06
2.84075e+06
2.80117e+06
2.76266e+06
2.72508e+06
2.68828e+06
2.65217e+06
2.61666e+06
2.58169e+06
2.5472e+06
2.51315e+06
2.47949e+06
2.44621e+06
2.41326e+06
2.38063e+06
2.34832e+06
2.3163e+06
2.28454e+06
2.25305e+06
2.22181e+06
2.19083e+06
2.16008e+06
2.12956e+06
2.09927e+06
2.06919e+06
2.03932e+06
2.00966e+06
1.98018e+06
1.95091e+06
1.92184e+06
1.89298e+06
1.86433e+06
1.83593e+06
1.80772e+06
1.77977e+06
1.75205e+06
1.72456e+06
1.69729e+06
1.67029e+06
1.64349e+06
1.61687e+06
1.59052e+06
1.56435e+06
1.53845e+06
1.51272e+06
1.48724e+06
1.46194e+06
1.43691e+06
1.41204e+06
1.38747e+06
1.36303e+06
1.33892e+06
1.31488e+06
1.29121e+06
1.26758e+06
1.24432e+06
1.22112e+06
1.19825e+06
1.17545e+06
1.15299e+06
1.13062e+06
1.10857e+06
1.08668e+06
1.06503e+06
1.04359e+06
1.02234e+06
1.0013e+06
980448
959787
939299
918993
898846
878861
859017
839309
819717
800220
780805
761431
742087
722708
703282
683720
663987
643982
623614
602789
581309
559140
535967
511907
486734
3.30181e+06
3.23692e+06
3.17645e+06
3.12012e+06
3.06747e+06
3.01796e+06
2.97109e+06
2.92646e+06
2.88368e+06
2.84248e+06
2.80259e+06
2.76383e+06
2.72603e+06
2.68906e+06
2.65281e+06
2.61718e+06
2.58212e+06
2.54756e+06
2.51344e+06
2.47974e+06
2.44641e+06
2.41342e+06
2.38077e+06
2.34843e+06
2.31639e+06
2.28462e+06
2.25311e+06
2.22185e+06
2.19085e+06
2.16008e+06
2.12955e+06
2.09925e+06
2.06916e+06
2.03928e+06
2.00961e+06
1.98013e+06
1.95085e+06
1.92177e+06
1.89292e+06
1.86427e+06
1.83586e+06
1.80766e+06
1.77971e+06
1.75198e+06
1.7245e+06
1.69723e+06
1.67025e+06
1.64343e+06
1.61683e+06
1.59047e+06
1.56431e+06
1.5384e+06
1.51267e+06
1.48719e+06
1.4619e+06
1.43686e+06
1.412e+06
1.38741e+06
1.36298e+06
1.33886e+06
1.31483e+06
1.29116e+06
1.26754e+06
1.24427e+06
1.22108e+06
1.1982e+06
1.17541e+06
1.15295e+06
1.13058e+06
1.10853e+06
1.08663e+06
1.06498e+06
1.04354e+06
1.02228e+06
1.00124e+06
980368
959701
939194
918876
898704
878701
858825
839088
819451
799913
780436
761003
741571
722110
702563
682884
662990
642832
622264
601264
579585
557284
534031
510007
485027
3.30556e+06
3.24098e+06
3.1805e+06
3.12393e+06
3.07091e+06
3.02098e+06
2.9737e+06
2.92867e+06
2.88554e+06
2.84402e+06
2.80387e+06
2.76489e+06
2.7269e+06
2.68977e+06
2.65339e+06
2.61766e+06
2.58251e+06
2.54788e+06
2.51371e+06
2.47996e+06
2.44659e+06
2.41357e+06
2.38089e+06
2.34853e+06
2.31647e+06
2.28467e+06
2.25314e+06
2.22187e+06
2.19085e+06
2.16007e+06
2.12953e+06
2.09921e+06
2.06911e+06
2.03922e+06
2.00954e+06
1.98006e+06
1.95077e+06
1.9217e+06
1.89284e+06
1.8642e+06
1.83579e+06
1.80759e+06
1.77965e+06
1.75191e+06
1.72445e+06
1.69718e+06
1.67021e+06
1.64337e+06
1.61678e+06
1.59041e+06
1.56427e+06
1.53834e+06
1.51263e+06
1.48713e+06
1.46185e+06
1.4368e+06
1.41195e+06
1.38735e+06
1.36293e+06
1.33879e+06
1.31479e+06
1.29109e+06
1.26749e+06
1.24421e+06
1.22103e+06
1.19815e+06
1.17537e+06
1.15291e+06
1.13054e+06
1.10849e+06
1.08659e+06
1.06493e+06
1.04349e+06
1.02222e+06
1.00118e+06
980292
959619
939093
918766
898569
878551
858641
838882
819199
799627
780088
760604
741089
721554
701894
682115
662072
641784
621039
599897
578060
555657
532360
508371
483565
3.30876e+06
3.24444e+06
3.18396e+06
3.12721e+06
3.07389e+06
3.02362e+06
2.97598e+06
2.93061e+06
2.88718e+06
2.84539e+06
2.80501e+06
2.76583e+06
2.72767e+06
2.6904e+06
2.65391e+06
2.61809e+06
2.58286e+06
2.54816e+06
2.51394e+06
2.48015e+06
2.44675e+06
2.4137e+06
2.38098e+06
2.34861e+06
2.31653e+06
2.28471e+06
2.25316e+06
2.22188e+06
2.19084e+06
2.16004e+06
2.12948e+06
2.09915e+06
2.06904e+06
2.03915e+06
2.00946e+06
1.97997e+06
1.95069e+06
1.92162e+06
1.89276e+06
1.86412e+06
1.83572e+06
1.80752e+06
1.77958e+06
1.75185e+06
1.72439e+06
1.69712e+06
1.67016e+06
1.6433e+06
1.61673e+06
1.59035e+06
1.56423e+06
1.53828e+06
1.51259e+06
1.48707e+06
1.4618e+06
1.43674e+06
1.4119e+06
1.38728e+06
1.36288e+06
1.33871e+06
1.31474e+06
1.29101e+06
1.26744e+06
1.24414e+06
1.22099e+06
1.19809e+06
1.17533e+06
1.15285e+06
1.1305e+06
1.10844e+06
1.08655e+06
1.06488e+06
1.04344e+06
1.02217e+06
1.00112e+06
980221
959544
939001
918666
898444
878414
858470
838693
818965
799366
779765
760240
740643
721049
701280
681419
661241
640848
619954
598697
576740
554255
530938
506982
482320
3.31146e+06
3.24734e+06
3.18687e+06
3.12998e+06
3.07643e+06
3.02587e+06
2.97794e+06
2.93229e+06
2.8886e+06
2.84658e+06
2.806e+06
2.76664e+06
2.72834e+06
2.69096e+06
2.65436e+06
2.61846e+06
2.58316e+06
2.54841e+06
2.51414e+06
2.48032e+06
2.44688e+06
2.4138e+06
2.38107e+06
2.34867e+06
2.31657e+06
2.28473e+06
2.25317e+06
2.22186e+06
2.19081e+06
2.16e+06
2.12943e+06
2.09909e+06
2.06897e+06
2.03906e+06
2.00937e+06
1.97989e+06
1.95061e+06
1.92154e+06
1.89268e+06
1.86405e+06
1.83565e+06
1.80746e+06
1.77952e+06
1.75178e+06
1.72434e+06
1.69706e+06
1.67011e+06
1.64323e+06
1.61668e+06
1.59029e+06
1.56418e+06
1.53821e+06
1.51253e+06
1.48701e+06
1.46176e+06
1.43668e+06
1.41185e+06
1.38721e+06
1.36283e+06
1.33863e+06
1.31468e+06
1.29092e+06
1.26739e+06
1.24406e+06
1.22094e+06
1.19802e+06
1.17529e+06
1.15279e+06
1.13047e+06
1.10839e+06
1.08652e+06
1.06484e+06
1.0434e+06
1.02212e+06
1.00107e+06
980159
959477
938918
918576
898333
878292
858318
838525
818755
799133
779475
759917
740242
720601
700734
680807
660513
640033
619023
597670
575626
553073
529749
505821
481275
3.31366e+06
3.24972e+06
3.18926e+06
3.13226e+06
3.07853e+06
3.02774e+06
2.97958e+06
2.93369e+06
2.88979e+06
2.84758e+06
2.80683e+06
2.76734e+06
2.72892e+06
2.69143e+06
2.65475e+06
2.61878e+06
2.58342e+06
2.54862e+06
2.51432e+06
2.48045e+06
2.44699e+06
2.41389e+06
2.38113e+06
2.34871e+06
2.31659e+06
2.28474e+06
2.25316e+06
2.22184e+06
2.19077e+06
2.15995e+06
2.12937e+06
2.09902e+06
2.06889e+06
2.03898e+06
2.00928e+06
1.9798e+06
1.95052e+06
1.92146e+06
1.89261e+06
1.86398e+06
1.83558e+06
1.8074e+06
1.77946e+06
1.75173e+06
1.72429e+06
1.69701e+06
1.67006e+06
1.64317e+06
1.61663e+06
1.59024e+06
1.56414e+06
1.53816e+06
1.51249e+06
1.48695e+06
1.46172e+06
1.43662e+06
1.41181e+06
1.38715e+06
1.36279e+06
1.33856e+06
1.31464e+06
1.29085e+06
1.26735e+06
1.24399e+06
1.22089e+06
1.19796e+06
1.17526e+06
1.15274e+06
1.13045e+06
1.10835e+06
1.08649e+06
1.0648e+06
1.04337e+06
1.02208e+06
1.00102e+06
980106
959419
938848
918499
898238
878188
858188
838381
818576
798934
779226
759640
739899
720217
700268
680286
659901
639349
618252
596817
574711
552102
528777
504873
480417
3.3154e+06
3.25159e+06
3.19115e+06
3.13407e+06
3.0802e+06
3.02924e+06
2.98089e+06
2.93482e+06
2.89075e+06
2.84839e+06
2.80751e+06
2.7679e+06
2.72938e+06
2.69181e+06
2.65506e+06
2.61903e+06
2.58363e+06
2.54879e+06
2.51445e+06
2.48056e+06
2.44707e+06
2.41395e+06
2.38117e+06
2.34873e+06
2.3166e+06
2.28474e+06
2.25314e+06
2.22181e+06
2.19073e+06
2.1599e+06
2.12931e+06
2.09895e+06
2.06881e+06
2.0389e+06
2.0092e+06
1.97972e+06
1.95045e+06
1.92139e+06
1.89254e+06
1.86392e+06
1.83552e+06
1.80735e+06
1.77941e+06
1.75168e+06
1.72425e+06
1.69696e+06
1.67001e+06
1.64312e+06
1.6166e+06
1.59018e+06
1.56411e+06
1.53811e+06
1.51246e+06
1.48691e+06
1.46168e+06
1.43657e+06
1.41178e+06
1.38711e+06
1.36276e+06
1.33852e+06
1.3146e+06
1.2908e+06
1.26731e+06
1.24394e+06
1.22086e+06
1.19791e+06
1.17523e+06
1.15269e+06
1.13042e+06
1.10831e+06
1.08647e+06
1.06478e+06
1.04334e+06
1.02204e+06
1.00099e+06
980063
959372
938791
918436
898161
878102
858082
838264
818428
798771
779022
759413
739618
719904
699892
679864
659411
638800
617639
596139
573990
551333
528010
504127
479737
3.31669e+06
3.25297e+06
3.19255e+06
3.13543e+06
3.08145e+06
3.03036e+06
2.98187e+06
2.93567e+06
2.89147e+06
2.849e+06
2.80802e+06
2.76832e+06
2.72974e+06
2.6921e+06
2.6553e+06
2.61923e+06
2.5838e+06
2.54892e+06
2.51456e+06
2.48064e+06
2.44713e+06
2.41399e+06
2.3812e+06
2.34875e+06
2.31659e+06
2.28472e+06
2.25312e+06
2.22177e+06
2.19069e+06
2.15985e+06
2.12925e+06
2.09888e+06
2.06874e+06
2.03883e+06
2.00914e+06
1.97966e+06
1.95039e+06
1.92133e+06
1.89249e+06
1.86387e+06
1.83547e+06
1.8073e+06
1.77936e+06
1.75164e+06
1.72422e+06
1.69692e+06
1.66998e+06
1.64308e+06
1.61659e+06
1.59014e+06
1.56408e+06
1.53808e+06
1.51243e+06
1.48687e+06
1.46166e+06
1.43654e+06
1.41176e+06
1.38707e+06
1.36273e+06
1.33848e+06
1.31458e+06
1.29076e+06
1.26728e+06
1.2439e+06
1.22083e+06
1.19787e+06
1.17521e+06
1.15266e+06
1.13041e+06
1.10829e+06
1.08645e+06
1.06476e+06
1.04332e+06
1.02202e+06
1.00096e+06
980031
959337
938747
918388
898101
878037
858000
838174
818315
798646
778866
759239
739405
719666
699607
679545
659043
638388
617182
595632
573454
550761
527440
503574
479231
3.31754e+06
3.25389e+06
3.19348e+06
3.13632e+06
3.08228e+06
3.03111e+06
2.98253e+06
2.93624e+06
2.89196e+06
2.84941e+06
2.80836e+06
2.76861e+06
2.72997e+06
2.6923e+06
2.65547e+06
2.61936e+06
2.5839e+06
2.54901e+06
2.51462e+06
2.48069e+06
2.44717e+06
2.41402e+06
2.38122e+06
2.34875e+06
2.31659e+06
2.2847e+06
2.25309e+06
2.22174e+06
2.19065e+06
2.15981e+06
2.12921e+06
2.09884e+06
2.0687e+06
2.03878e+06
2.00909e+06
1.97961e+06
1.95035e+06
1.92129e+06
1.89245e+06
1.86383e+06
1.83544e+06
1.80728e+06
1.77934e+06
1.75162e+06
1.7242e+06
1.69689e+06
1.66996e+06
1.64306e+06
1.61657e+06
1.59012e+06
1.56407e+06
1.53806e+06
1.51241e+06
1.48685e+06
1.46164e+06
1.43652e+06
1.41174e+06
1.38705e+06
1.36272e+06
1.33847e+06
1.31456e+06
1.29075e+06
1.26727e+06
1.24388e+06
1.22082e+06
1.19785e+06
1.17519e+06
1.15264e+06
1.13039e+06
1.10828e+06
1.08644e+06
1.06475e+06
1.0433e+06
1.022e+06
1.00094e+06
980010
959315
938719
918358
898062
877995
857946
838115
818240
798563
778762
759123
739264
719507
699420
679332
658800
638113
616880
595293
573100
550381
527062
503209
478895
3.31796e+06
3.25434e+06
3.19395e+06
3.13677e+06
3.0827e+06
3.03149e+06
2.98286e+06
2.93653e+06
2.8922e+06
2.84962e+06
2.80854e+06
2.76876e+06
2.7301e+06
2.6924e+06
2.65555e+06
2.61943e+06
2.58396e+06
2.54905e+06
2.51465e+06
2.48071e+06
2.44718e+06
2.41403e+06
2.38122e+06
2.34875e+06
2.31658e+06
2.28469e+06
2.25308e+06
2.22173e+06
2.19064e+06
2.15979e+06
2.12919e+06
2.09882e+06
2.06868e+06
2.03876e+06
2.00907e+06
1.97959e+06
1.95033e+06
1.92128e+06
1.89244e+06
1.86382e+06
1.83543e+06
1.80726e+06
1.77932e+06
1.75161e+06
1.72419e+06
1.69688e+06
1.66995e+06
1.64305e+06
1.61656e+06
1.59011e+06
1.56405e+06
1.53805e+06
1.51241e+06
1.48684e+06
1.46163e+06
1.43651e+06
1.41173e+06
1.38705e+06
1.36271e+06
1.33846e+06
1.31455e+06
1.29074e+06
1.26726e+06
1.24387e+06
1.22081e+06
1.19785e+06
1.17519e+06
1.15264e+06
1.13039e+06
1.10827e+06
1.08644e+06
1.06474e+06
1.0433e+06
1.022e+06
1.00094e+06
980001
959305
938706
918345
898044
877976
857921
838088
818204
798525
778712
759069
739196
719431
699328
679229
658681
637978
616730
595126
572924
550194
526875
503029
478734
2.93552e+06
2.93117e+06
2.92263e+06
2.91024e+06
2.89433e+06
2.87537e+06
2.85379e+06
2.83001e+06
2.80443e+06
2.77737e+06
2.74912e+06
2.71991e+06
2.68996e+06
2.65943e+06
2.62848e+06
2.5972e+06
2.56569e+06
2.53405e+06
2.50233e+06
2.47056e+06
2.43878e+06
2.40702e+06
2.37532e+06
2.34372e+06
2.31224e+06
2.28092e+06
2.24977e+06
2.21883e+06
2.18808e+06
2.15751e+06
2.12713e+06
2.09694e+06
2.06698e+06
2.03723e+06
2.00769e+06
1.97838e+06
1.94927e+06
1.92038e+06
1.8917e+06
1.86323e+06
1.83497e+06
1.80693e+06
1.77909e+06
1.75147e+06
1.72406e+06
1.69685e+06
1.66984e+06
1.64305e+06
1.61647e+06
1.59012e+06
1.56398e+06
1.53807e+06
1.51238e+06
1.4869e+06
1.46165e+06
1.43662e+06
1.41181e+06
1.38721e+06
1.36283e+06
1.33867e+06
1.31473e+06
1.29101e+06
1.26751e+06
1.24423e+06
1.22117e+06
1.19833e+06
1.17572e+06
1.15333e+06
1.13116e+06
1.10923e+06
1.08752e+06
1.06605e+06
1.04481e+06
1.02381e+06
1.00305e+06
982549
962299
942313
922599
903169
884036
865217
846729
828597
810848
793516
776639
760264
744449
729260
714777
701096
688328
676604
666076
656903
649263
643330
639249
637152
2.9363e+06
2.93191e+06
2.92333e+06
2.91087e+06
2.89489e+06
2.87585e+06
2.85421e+06
2.83036e+06
2.80472e+06
2.77762e+06
2.74933e+06
2.72009e+06
2.69011e+06
2.65956e+06
2.62859e+06
2.5973e+06
2.56578e+06
2.53412e+06
2.50239e+06
2.47062e+06
2.43884e+06
2.40707e+06
2.37536e+06
2.34376e+06
2.31229e+06
2.28096e+06
2.24981e+06
2.21886e+06
2.18811e+06
2.15754e+06
2.12715e+06
2.09697e+06
2.06699e+06
2.03725e+06
2.00771e+06
1.97839e+06
1.94928e+06
1.92039e+06
1.89171e+06
1.86324e+06
1.83498e+06
1.80693e+06
1.7791e+06
1.75148e+06
1.72406e+06
1.69686e+06
1.66984e+06
1.64306e+06
1.61647e+06
1.59012e+06
1.56398e+06
1.53807e+06
1.51238e+06
1.4869e+06
1.46165e+06
1.43662e+06
1.41181e+06
1.38721e+06
1.36283e+06
1.33867e+06
1.31473e+06
1.29101e+06
1.26751e+06
1.24423e+06
1.22117e+06
1.19833e+06
1.17571e+06
1.15333e+06
1.13116e+06
1.10922e+06
1.08752e+06
1.06604e+06
1.0448e+06
1.0238e+06
1.00305e+06
982541
962290
942302
922586
903154
884018
865194
846702
828564
810809
793469
776582
760197
744369
729164
714663
700960
688166
676414
665854
656649
648978
643016
638913
636803
2.93785e+06
2.9334e+06
2.92472e+06
2.91213e+06
2.896e+06
2.87682e+06
2.85503e+06
2.83105e+06
2.80531e+06
2.77812e+06
2.74975e+06
2.72044e+06
2.69041e+06
2.65983e+06
2.62883e+06
2.59751e+06
2.56596e+06
2.53428e+06
2.50253e+06
2.47075e+06
2.43894e+06
2.40716e+06
2.37546e+06
2.34386e+06
2.31238e+06
2.28104e+06
2.24988e+06
2.21893e+06
2.18817e+06
2.1576e+06
2.1272e+06
2.09701e+06
2.06703e+06
2.03728e+06
2.00774e+06
1.97842e+06
1.94931e+06
1.92042e+06
1.89174e+06
1.86327e+06
1.835e+06
1.80695e+06
1.77912e+06
1.7515e+06
1.72408e+06
1.69687e+06
1.66986e+06
1.64307e+06
1.61648e+06
1.59012e+06
1.56399e+06
1.53807e+06
1.51238e+06
1.4869e+06
1.46165e+06
1.43662e+06
1.41181e+06
1.38721e+06
1.36283e+06
1.33868e+06
1.31473e+06
1.29101e+06
1.26751e+06
1.24422e+06
1.22116e+06
1.19833e+06
1.17571e+06
1.15332e+06
1.13116e+06
1.10922e+06
1.08751e+06
1.06604e+06
1.0448e+06
1.02379e+06
1.00304e+06
982526
962272
942280
922560
903122
883980
865149
846648
828500
810731
793375
776471
760063
744208
728973
714435
700688
687844
676034
665411
656140
648406
642386
638236
636100
2.94018e+06
2.93565e+06
2.92682e+06
2.91402e+06
2.89766e+06
2.87826e+06
2.85625e+06
2.83209e+06
2.80619e+06
2.77886e+06
2.75037e+06
2.72098e+06
2.69088e+06
2.66024e+06
2.62919e+06
2.59782e+06
2.56623e+06
2.53452e+06
2.50275e+06
2.47094e+06
2.4391e+06
2.4073e+06
2.37558e+06
2.34398e+06
2.3125e+06
2.28116e+06
2.24999e+06
2.21902e+06
2.18825e+06
2.15767e+06
2.12727e+06
2.09707e+06
2.06709e+06
2.03732e+06
2.00778e+06
1.97846e+06
1.94935e+06
1.92046e+06
1.89177e+06
1.86331e+06
1.83504e+06
1.80698e+06
1.77915e+06
1.75153e+06
1.72411e+06
1.6969e+06
1.66988e+06
1.64308e+06
1.61649e+06
1.59013e+06
1.56399e+06
1.53807e+06
1.51238e+06
1.48691e+06
1.46165e+06
1.43662e+06
1.41181e+06
1.38721e+06
1.36284e+06
1.33868e+06
1.31473e+06
1.29101e+06
1.26751e+06
1.24422e+06
1.22116e+06
1.19832e+06
1.17571e+06
1.15332e+06
1.13115e+06
1.10921e+06
1.0875e+06
1.06603e+06
1.04478e+06
1.02378e+06
1.00302e+06
982504
962245
942248
922522
903076
883924
865082
846567
828403
810615
793237
776304
759864
743970
728687
714094
700283
687363
675466
664746
655375
647544
641435
637213
635037
2.94332e+06
2.93867e+06
2.92962e+06
2.91653e+06
2.89987e+06
2.88016e+06
2.85788e+06
2.83347e+06
2.80735e+06
2.77984e+06
2.75121e+06
2.7217e+06
2.6915e+06
2.66078e+06
2.62965e+06
2.59822e+06
2.56658e+06
2.53483e+06
2.50302e+06
2.47117e+06
2.4393e+06
2.40748e+06
2.37574e+06
2.34413e+06
2.31265e+06
2.28129e+06
2.2501e+06
2.21912e+06
2.18834e+06
2.15775e+06
2.12734e+06
2.09714e+06
2.06715e+06
2.03738e+06
2.00783e+06
1.97851e+06
1.9494e+06
1.9205e+06
1.89182e+06
1.86335e+06
1.83508e+06
1.80702e+06
1.77918e+06
1.75156e+06
1.72414e+06
1.69693e+06
1.66991e+06
1.6431e+06
1.61651e+06
1.59015e+06
1.564e+06
1.53808e+06
1.51239e+06
1.48691e+06
1.46166e+06
1.43662e+06
1.41181e+06
1.38722e+06
1.36284e+06
1.33868e+06
1.31474e+06
1.29101e+06
1.26751e+06
1.24422e+06
1.22116e+06
1.19832e+06
1.17571e+06
1.15331e+06
1.13115e+06
1.10921e+06
1.08749e+06
1.06601e+06
1.04477e+06
1.02376e+06
1.00299e+06
982476
962211
942207
922471
903015
883851
864994
846461
828276
810463
793054
776085
759601
743655
728310
713644
699746
686726
674713
663863
654355
646390
640157
635836
633604
2.94729e+06
2.94247e+06
2.93313e+06
2.91967e+06
2.90261e+06