/*--------------------------------*- C++ -*----------------------------------*\
| =========                 |                                                 |
| \\      /  F ield         | OpenFOAM: The Open Source CFD Toolbox           |
|  \\    /   O peration     | Version:  2.4.0                                 |
|   \\  /    A nd           | Web:      www.OpenFOAM.org                      |
|    \\/     M anipulation  |                                                 |
\*---------------------------------------------------------------------------*/
FoamFile
{
    version     2.0;
    format      ascii;
    class       volScalarField;
    location    "0.052";
    object      p;
}
// * * * * * * * * * * * * * * * * * * * * * * * * * * * * * * * * * * * * * //

dimensions      [0 2 -2 0 0 0 0];

internalField   nonuniform List<scalar> 
17600
(
82.3324
66.6557
62.2494
61.1048
60.135
59.2072
58.3263
57.5216
56.804
56.0565
55.3089
54.6008
53.8582
53.1468
52.4284
51.6516
50.9115
49.9699
48.9405
47.3703
80.4241
66.7056
62.2902
61.1147
60.1381
59.2078
58.3268
57.5217
56.8042
56.057
55.3088
54.6009
53.8585
53.1469
52.4292
51.6517
50.9128
49.9705
48.9486
47.3183
79.0104
66.9617
62.4341
61.1529
60.152
59.2123
58.3291
57.5234
56.8057
56.0582
55.3091
54.6012
53.8589
53.1474
52.4309
51.6528
50.9174
49.9741
48.9731
47.3096
78.0342
67.3033
62.6542
61.2176
60.1816
59.2274
58.3377
57.5301
56.8103
56.0618
55.3111
54.6023
53.86
53.149
52.434
51.6563
50.9264
49.9863
49.0147
47.3603
77.212
67.6387
62.9183
61.2989
60.2246
59.2557
58.3566
57.5455
56.8207
56.0701
55.3169
54.6053
53.8626
53.1523
52.4392
51.6632
50.94
50.0086
49.0751
47.4998
76.4378
67.932
63.1956
61.3804
60.2678
59.2913
58.3847
57.5703
56.8377
56.0845
55.3278
54.6109
53.8679
53.1581
52.447
51.6749
50.958
50.0458
49.1401
47.7356
75.7087
68.1804
63.4717
61.4567
60.3014
59.3232
58.4161
57.6013
56.859
56.1039
55.3437
54.6189
53.8761
53.1667
52.4573
51.6925
50.9798
50.0999
49.2039
48.0327
75.0348
68.3868
63.7403
61.53
60.3248
59.3466
58.447
57.6343
56.8814
56.1255
55.3624
54.6277
53.8864
53.1771
52.4693
51.7155
51.0059
50.1667
49.2908
48.439
74.4219
68.5547
63.9934
61.6064
60.3401
59.3605
58.4748
57.6673
56.9037
56.1476
55.3813
54.6363
53.8975
53.1885
52.482
51.7421
51.0366
50.2422
49.4105
48.879
73.8722
68.6852
64.2275
61.6874
60.349
59.3667
58.4989
57.6985
56.9248
56.1696
55.399
54.6442
53.9088
53.1999
52.4951
51.7702
51.0718
50.3247
49.5599
49.3181
73.3842
68.7802
64.4417
61.7736
60.3528
59.3659
58.5191
57.7279
56.9455
56.1907
55.4146
54.6514
53.9199
53.2111
52.509
51.7992
51.1116
50.4137
49.727
49.7459
72.955
68.8439
64.6364
61.8643
60.3526
59.3593
58.5356
57.755
56.9656
56.2107
55.4285
54.6579
53.9305
53.2223
52.5237
51.8292
51.1557
50.5069
49.9021
50.1506
72.582
68.882
64.811
61.9584
60.3498
59.3482
58.5486
57.7799
56.985
56.2292
55.441
54.6637
53.9408
53.2335
52.54
51.8605
51.2045
50.6012
50.0839
50.5248
72.2623
68.9016
64.9649
62.0507
60.3461
59.3344
58.5587
57.8023
57.0032
56.2462
55.452
54.6685
53.951
53.2452
52.5578
51.8932
51.256
50.6967
50.269
50.8636
71.9928
68.9106
65.0968
62.1337
60.3436
59.32
58.5664
57.8217
57.02
56.2614
55.4616
54.6731
53.9612
53.2577
52.5768
51.9274
51.3095
50.7942
50.4508
51.1693
71.7713
68.9139
65.2056
62.2048
60.3427
59.3063
58.572
57.8382
57.0352
56.2745
55.4701
54.6774
53.9713
53.2707
52.5972
51.9625
51.3648
50.8923
50.6274
51.4489
71.5962
68.9141
65.2911
62.2631
60.3436
59.2944
58.5757
57.8516
57.0482
56.2855
55.4774
54.6818
53.9818
53.2843
52.6182
51.9986
51.4216
50.9896
50.7988
51.7067
71.4663
68.9128
65.3539
62.3081
60.3451
59.2846
58.5781
57.8617
57.0589
56.2942
55.4836
54.6864
53.9921
53.2986
52.6401
52.0356
51.4796
51.0852
50.9633
51.9459
71.3805
68.9111
65.3948
62.3389
60.3468
59.2781
58.5794
57.8684
57.067
56.3008
55.4889
54.6911
54.0025
53.3133
52.6628
52.0731
51.5384
51.1794
51.1178
52.1708
71.3381
68.9098
65.4148
62.355
60.3476
59.275
58.5799
57.8719
57.0724
56.3052
55.4931
54.6963
54.0127
53.3283
52.6861
52.1114
51.5976
51.2718
51.2615
52.3821
71.3385
68.9095
65.4144
62.3557
60.347
59.276
58.5801
57.8719
57.075
56.3073
55.4963
54.702
54.0228
53.3437
52.71
52.1503
51.6568
51.362
51.3967
52.5777
71.3819
68.9102
65.3937
62.3412
60.3453
59.2807
58.5796
57.8688
57.0745
56.3072
55.4986
54.7081
54.0327
53.3592
52.7341
52.19
51.7163
51.4484
51.5275
52.7546
71.4684
68.9113
65.3523
62.3118
60.3427
59.289
58.5787
57.8621
57.0712
56.3049
55.4997
54.7147
54.0423
53.375
52.7591
52.2296
51.7758
51.5322
51.6513
52.9115
71.5991
68.912
65.2891
62.2682
60.3404
59.3
58.5769
57.8521
57.0652
56.3005
55.4997
54.7217
54.0516
53.391
52.7846
52.2693
51.8352
51.615
51.7634
53.0497
71.7751
68.9111
65.2032
62.211
60.3393
59.3128
58.5743
57.8389
57.0562
56.294
55.4989
54.7287
54.0607
53.4071
52.8104
52.3094
51.8943
51.6959
51.8646
53.1732
71.9975
68.9071
65.094
62.1408
60.3401
59.3268
58.5701
57.8225
57.0448
56.2854
55.4969
54.7356
54.0695
53.4234
52.8366
52.3495
51.954
51.7745
51.9572
53.2779
72.2679
68.8976
64.9618
62.0585
60.343
59.3412
58.5641
57.8031
57.0314
56.2747
55.494
54.7421
54.0779
53.4398
52.8632
52.3896
52.0139
51.852
52.0414
53.3643
72.5884
68.8776
64.8075
61.9663
60.3474
59.3547
58.556
57.7808
57.0163
56.2623
55.4899
54.7477
54.0862
53.4561
52.89
52.4301
52.0737
51.9297
52.1197
53.4303
72.9622
68.8397
64.6321
61.8716
60.3514
59.3656
58.545
57.756
56.9998
56.2482
55.4847
54.752
54.0943
53.4722
52.9172
52.4704
52.1341
52.0071
52.1973
53.4677
73.3921
68.7764
64.4368
61.7799
60.3529
59.3719
58.5304
57.7293
56.982
56.2326
55.4785
54.7546
54.102
53.4877
52.9446
52.5097
52.196
52.0843
52.2789
53.4781
73.8807
68.6817
64.2218
61.693
60.3504
59.3726
58.5116
57.701
56.9637
56.2152
55.471
54.7559
54.1093
53.502
52.9721
52.5474
52.2589
52.1614
52.3672
53.4654
74.4309
68.5515
63.9873
61.6111
60.3427
59.3668
58.4884
57.6712
56.9447
56.1965
55.4616
54.7559
54.1158
53.5148
52.9989
52.583
52.3214
52.2372
52.4622
53.4324
75.0439
68.384
63.7341
61.5345
60.3285
59.3532
58.4613
57.64
56.9248
56.1772
55.4507
54.7548
54.1215
53.5262
53.0238
52.6153
52.3809
52.3077
52.5604
53.3859
75.7176
68.1781
63.4657
61.4607
60.3059
59.3305
58.4311
57.6085
56.9044
56.1581
55.4393
54.7529
54.1263
53.536
53.0455
52.6435
52.4335
52.3685
52.6537
53.3438
76.4464
67.9301
63.1901
61.3839
60.273
59.299
58.4002
57.579
56.8849
56.1408
55.4295
54.7511
54.1305
53.5443
53.0635
52.6673
52.476
52.4186
52.7279
53.328
77.2205
67.637
62.9133
61.3019
60.2304
59.2638
58.3726
57.5555
56.8692
56.1282
55.4232
54.7504
54.1346
53.5515
53.0775
52.6861
52.507
52.4577
52.7739
53.3238
78.0427
67.3017
62.6496
61.2201
60.1878
59.2358
58.3541
57.541
56.8596
56.1211
55.4205
54.751
54.1382
53.5569
53.0874
52.6994
52.5274
52.4845
52.7984
53.3368
79.0189
66.96
62.4298
61.1551
60.1585
59.2209
58.3457
57.5351
56.8553
56.1184
55.4202
54.7521
54.1406
53.5604
53.0933
52.7073
52.5388
52.4996
52.8123
53.3605
80.4327
66.7039
62.2861
61.1168
60.1448
59.2164
58.3433
57.5338
56.8539
56.1176
55.4204
54.7529
54.1417
53.5619
53.0956
52.7105
52.543
52.5054
52.8183
53.3903
82.3412
66.654
62.2452
61.107
60.1416
59.216
58.3426
57.5338
56.8537
56.1172
55.4207
54.7531
54.1418
53.562
53.0959
52.7109
52.5436
52.5057
52.8188
53.4286
46.5581
45.6687
43.8701
41.2285
37.9913
35.5264
35.6147
38.8325
45.167
53.6525
63.3442
72.6775
81.0051
86.4673
88.7399
88.8415
85.0691
76.2777
65.1822
57.2934
53.6462
50.691
46.6459
40.4145
34.7334
30.2129
25.0618
19.4253
14.9305
10.6554
6.85815
5.3118
5.56364
6.7325
8.98121
12.0387
15.849
19.9655
23.4383
27.2034
31.818
35.4567
37.801
40.0778
41.8522
42.9021
43.7493
43.8444
43.4359
42.9155
41.8987
40.6431
39.7203
38.9451
38.5707
39.2578
40.8313
43.0494
46.2001
50.2742
54.7338
59.0793
63.0703
66.5984
69.5553
71.9192
73.7974
75.3154
76.5495
77.5445
78.3379
78.9723
79.4886
79.9155
80.2692
80.5605
80.7995
80.9955
81.1543
81.2804
81.3815
81.465
81.5336
81.5862
81.6238
81.6499
81.6698
81.6853
81.6991
81.7087
81.7178
81.7211
81.7271
81.7251
81.7316
81.7267
81.7393
81.7365
81.7634
81.7706
81.8202
81.8455
81.9191
81.9608
82.0449
82.0841
82.1535
82.1646
82.1949
82.1701
82.1499
82.108
82.0501
82.0271
81.9803
81.9778
81.9653
81.9812
81.9906
82.0087
82.0077
82.0124
81.9946
81.9947
81.9807
81.9815
81.9847
81.9857
81.9889
81.9804
81.972
81.9589
81.952
81.9439
81.9437
81.9377
81.9314
81.926
81.9152
81.9148
81.9083
81.9057
81.8988
81.8922
81.8798
81.8725
81.8598
81.8474
81.8333
81.8196
81.8019
81.7892
81.7694
81.7525
81.7298
81.7073
81.6825
81.6563
81.6218
81.5927
81.5523
81.5138
81.466
81.4155
81.3609
81.2944
81.2236
81.1519
81.0544
80.9593
80.8546
80.7278
80.6051
80.4537
80.3018
80.1195
79.9378
79.7308
79.4944
79.2694
78.999
78.7205
78.4265
78.1151
77.7773
77.4209
77.055
76.6448
76.2217
75.7358
75.1844
74.5611
73.7823
72.8263
71.466
69.6336
66.7396
62.0501
56.155
29.6513
46.4022
45.5704
43.8251
41.4148
38.6308
36.6734
37.1302
40.4722
46.7556
55.0435
64.4447
73.4416
81.4208
86.9393
89.0765
89.0273
85.6106
77.0001
66.1477
58.1445
53.839
50.6954
46.8459
40.8885
35.2291
30.8681
26.0673
20.8544
16.7151
12.7701
9.33681
7.80806
8.01026
9.11365
11.0563
13.7092
17.1422
21.2186
24.9283
28.5187
32.8062
36.5092
38.8395
40.9064
42.5925
43.5727
44.3448
44.2035
43.4203
42.4596
40.8225
38.9197
37.3299
35.9082
35.0787
35.4707
36.8122
38.8723
42.0645
46.4325
51.3795
56.3257
60.9345
64.9755
68.314
70.9719
73.0734
74.7465
76.0887
77.167
78.0272
78.7134
79.2697
79.7291
80.1106
80.4254
80.6836
80.8952
81.067
81.2041
81.3142
81.4045
81.4786
81.5359
81.578
81.6079
81.631
81.6486
81.6643
81.6753
81.6866
81.6917
81.7004
81.6994
81.708
81.7021
81.7166
81.7105
81.7405
81.7434
81.7999
81.8219
81.9082
81.9492
82.0502
82.0886
82.1743
82.179
82.2209
82.1837
82.1673
82.1134
82.0482
82.0203
81.9715
81.9637
81.9569
81.9701
81.9918
82.0088
82.0144
82.014
81.9949
81.9874
81.9748
81.9757
81.983
81.9866
81.9922
81.9818
81.9696
81.9542
81.9441
81.9386
81.9383
81.9317
81.9281
81.9149
81.9089
81.9032
81.8999
81.898
81.8888
81.8813
81.869
81.8573
81.847
81.8316
81.815
81.7995
81.7823
81.7634
81.7473
81.7247
81.7005
81.674
81.6511
81.6165
81.5841
81.5477
81.5071
81.4614
81.4133
81.356
81.3003
81.2257
81.1523
81.0735
80.9693
80.8708
80.7551
80.6252
80.4917
80.3324
80.1678
79.9852
79.7801
79.5659
79.316
79.0751
78.7904
78.4886
78.1842
77.835
77.4843
77.0935
76.6854
76.2425
75.7448
75.2066
74.5737
73.8383
72.9369
71.8048
70.1832
68.0204
64.8474
58.6055
52.6048
22.7165
46.342
45.531
43.8888
41.7529
39.4697
38.0099
38.8208
42.2541
48.3387
56.3116
65.2177
73.7951
81.264
86.6471
88.6669
88.4201
85.4047
77.1739
66.999
59.056
54.0633
50.6944
46.9441
41.2447
35.6353
31.4233
26.9675
22.2411
18.3892
14.8605
11.7929
10.2645
10.3466
11.3084
12.993
15.4129
18.6161
22.6422
26.6068
30.0916
33.9247
37.5505
39.931
41.865
43.4219
44.3163
44.9874
44.6542
43.4818
42.0077
39.707
37.1306
34.9114
32.8756
31.5944
31.6837
32.7594
34.6446
37.8585
42.4547
47.8061
53.3374
58.6213
63.2496
67.0196
69.9964
72.3361
74.1753
75.6323
76.7961
77.723
78.4608
79.0571
79.5489
79.9573
80.2942
80.5702
80.7959
80.9796
81.1271
81.2457
81.3429
81.4225
81.4849
81.5318
81.5659
81.5925
81.6123
81.6298
81.6419
81.6554
81.662
81.6734
81.6733
81.6842
81.677
81.6932
81.6831
81.716
81.7131
81.7769
81.7939
81.8945
81.9334
82.0548
82.09
82.1962
82.1906
82.2479
82.1934
82.1858
82.1168
82.067
82.0097
81.9616
81.9434
81.9476
81.9548
81.9927
82.0075
82.022
82.0178
81.9945
81.9861
81.9683
81.9704
81.9798
81.9879
81.9935
81.9834
81.9666
81.9484
81.9364
81.931
81.934
81.9275
81.9222
81.9073
81.8988
81.8922
81.8938
81.8872
81.8824
81.8703
81.8556
81.8455
81.8329
81.8157
81.7977
81.7801
81.7593
81.7418
81.7229
81.6982
81.6708
81.6436
81.6163
81.5811
81.544
81.5049
81.4597
81.4145
81.358
81.3009
81.2368
81.1601
81.0799
80.9991
80.886
80.7825
80.6581
80.5204
80.3801
80.2125
80.0414
79.843
79.6328
79.3968
79.146
78.8815
78.5773
78.263
77.9292
77.5627
77.175
76.765
76.3096
75.8316
75.2932
74.6708
73.9579
73.1229
72.0566
70.7761
68.9346
66.2683
63.249
55.2291
49.2272
21.0557
46.3684
45.6047
44.0985
42.2471
40.4839
39.4879
40.5907
44.0796
49.8691
57.425
65.6996
73.7054
80.6343
85.7182
87.6571
87.3753
84.6522
77.0012
67.6513
59.9149
54.3547
50.7156
47.053
41.6598
36.1226
31.9763
27.881
23.6318
19.9883
16.8299
14.1146
12.5869
12.5103
13.3247
14.9165
17.2938
20.367
24.2838
28.3739
31.7801
35.1703
38.6123
41.0365
42.9252
44.3598
45.153
45.7377
45.1673
43.5716
41.5808
38.5863
35.336
32.5167
29.8682
28.1168
27.9035
28.7
30.4162
33.6942
38.4711
44.0939
50.1477
56.1557
61.4367
65.6719
68.9899
71.5879
73.6055
75.1819
76.4323
77.4265
78.2166
78.8534
79.377
79.8108
80.1681
80.4602
80.6987
80.8931
81.0502
81.177
81.2806
81.3658
81.4337
81.4861
81.5252
81.5558
81.5781
81.5974
81.6105
81.6257
81.6335
81.6474
81.6477
81.6607
81.6516
81.6693
81.6542
81.6898
81.6792
81.7504
81.7601
81.8771
81.9116
82.0564
82.0873
82.2163
82.1987
82.2713
82.1991
82.1978
82.116
82.0601
81.9974
81.9487
81.9183
81.938
81.9338
81.9944
82
82.0342
82.0176
81.9992
81.9726
81.9638
81.9577
81.9808
81.9858
82.0029
81.9836
81.9656
81.94
81.9275
81.9238
81.9285
81.9248
81.9167
81.8997
81.8865
81.8841
81.8829
81.8821
81.873
81.8605
81.8435
81.8327
81.8189
81.8025
81.7786
81.7605
81.7379
81.719
81.6991
81.6738
81.6401
81.6118
81.5839
81.5462
81.5037
81.4618
81.416
81.3649
81.3053
81.2444
81.1774
81.0913
81.0139
80.9238
80.8056
80.6909
80.5643
80.418
80.2709
80.0934
79.9129
79.7066
79.4802
79.2399
78.9666
78.6935
78.3621
78.0416
77.6803
77.2785
76.8781
76.4199
75.944
75.4112
74.8153
74.1479
73.3121
72.4163
71.2413
69.6691
67.8916
64.4048
61.8899
52.0825
45.9798
22.0428
46.5174
45.8227
44.4697
42.8673
41.5774
41.0389
42.3432
45.8721
51.3018
58.3253
65.9288
73.2721
79.6042
84.2854
86.1732
85.9999
83.4586
76.4661
67.9639
60.604
54.7378
50.8091
47.2794
42.2773
36.8436
32.6546
28.8555
24.9812
21.541
18.7189
16.2432
14.7068
14.5796
15.3721
16.9517
19.379
22.4126
26.1401
30.1483
33.4474
36.5048
39.7122
42.1638
44.0461
45.4109
46.1144
46.6156
45.7869
43.6742
41.1871
37.5413
33.5468
30.1176
26.8479
24.5694
24.0211
24.5297
26.1447
29.5924
34.5551
40.3427
46.8306
53.5581
59.5328
64.2762
67.9634
70.8324
73.0363
74.7396
76.0808
77.1421
77.9832
78.6592
79.2137
79.6721
80.0489
80.3561
80.6061
80.81
80.9754
81.1093
81.2186
81.3087
81.382
81.4407
81.4859
81.5214
81.5468
81.5683
81.5824
81.5993
81.6077
81.6235
81.6235
81.638
81.6263
81.6452
81.624
81.6616
81.6414
81.7196
81.719
81.8533
81.8807
82.0526
82.0762
82.232
82.1971
82.2882
82.1922
82.2008
82.104
82.0474
81.9778
81.9286
81.8865
81.9232
81.906
81.9906
81.9886
82.0407
82.0185
82.0014
81.9636
81.9594
81.9401
81.9825
81.9787
82.0138
81.9807
81.9675
81.9229
81.9236
81.9074
81.9346
81.9163
81.9195
81.8843
81.8799
81.8668
81.8814
81.8713
81.87
81.8478
81.8324
81.8173
81.81
81.7863
81.7619
81.7402
81.7165
81.6953
81.6797
81.6471
81.6101
81.5803
81.5536
81.51
81.4653
81.42
81.3699
81.3171
81.2551
81.189
81.1163
81.0269
80.9481
80.8515
80.7218
80.6081
80.4716
80.3171
80.1604
79.9798
79.7858
79.5701
79.3369
79.074
78.7889
78.5022
78.1572
77.8017
77.4262
77.007
76.5706
76.0918
75.562
75.017
74.3416
73.5941
72.7265
71.6384
70.4902
68.4642
67.026
62.426
60.7629
49.3845
42.6443
23.1676
46.9495
46.2662
44.9561
43.5677
42.6639
42.569
44.0511
47.5251
52.6005
59.0373
65.9306
72.5613
78.3021
82.5257
84.3555
84.2946
81.8983
75.5405
67.9321
61.1113
55.146
50.9001
47.5231
43.0075
37.7192
33.4413
29.8751
26.3254
23.1027
20.5083
18.2441
16.8023
16.7019
17.5808
19.2409
21.7265
24.6736
28.0804
31.8545
35.0442
37.9001
40.8615
43.3172
45.2417
46.546
47.207
47.5853
46.4868
43.889
40.8828
36.6379
31.8473
27.706
23.7962
20.9248
19.9908
20.1952
21.7513
25.5048
30.723
36.6195
43.4519
50.871
57.5683
62.8472
66.9208
70.0757
72.4758
74.3094
75.7412
76.8697
77.762
78.4773
79.0617
79.543
79.9376
80.2586
80.5193
80.7316
80.9041
81.0438
81.1575
81.2515
81.3296
81.3947
81.4468
81.4883
81.5177
81.5419
81.5577
81.5761
81.5851
81.6022
81.6013
81.6168
81.6016
81.6212
81.5925
81.6316
81.5991
81.6837
81.6692
81.8215
81.8391
82.0408
82.0566
82.2411
82.1896
82.2959
82.1798
82.1911
82.0855
82.0223
81.9465
81.8987
81.8451
81.9018
81.8675
81.9775
81.9598
82.0411
82.003
82.0045
81.9464
81.949
81.9179
81.9779
81.9661
82.0221
81.9705
81.9676
81.8987
81.9139
81.8868
81.9344
81.9042
81.9183
81.8623
81.8698
81.846
81.879
81.858
81.8691
81.8292
81.8237
81.7986
81.8034
81.7687
81.7483
81.716
81.6967
81.6726
81.6594
81.623
81.5804
81.5482
81.5229
81.4786
81.4254
81.3761
81.3254
81.2733
81.2016
81.1367
81.0577
80.9597
80.8831
80.7832
80.6444
80.5216
80.3782
80.2181
80.0569
79.863
79.6654
79.44
79.1881
78.9137
78.6213
78.3152
77.9374
77.5784
77.1685
76.7345
76.2513
75.7386
75.205
74.5825
73.8936
73.0119
72.1921
70.8191
69.8569
67.0637
66.3806
60.344
59.3181
47.1624
39.2129
23.4693
47.7044
46.9937
45.5563
44.3346
43.7329
44.0142
45.663
49.0137
53.752
59.5417
65.7636
71.6854
76.8287
80.6091
82.3428
82.3418
80.148
74.4673
67.7396
61.4826
55.5456
50.9817
47.7289
43.7093
38.6686
34.3412
30.9818
27.7443
24.757
22.3789
20.3577
19.0406
18.9814
20.042
21.7993
24.1892
26.9543
30.0431
33.5105
36.5844
39.3121
42.0563
44.472
46.5104
47.7756
48.3883
48.6746
47.2751
44.2626
40.7526
35.8708
30.2651
25.3324
20.7271
17.2407
15.863
15.7431
17.2561
21.3879
26.9466
32.97
40.1009
48.1616
55.564
61.3956
65.8814
69.3292
71.9234
73.8902
75.4177
76.6146
77.5559
78.307
78.9187
79.4212
79.8325
80.1668
80.4379
80.6579
80.8365
80.9811
81.0985
81.1955
81.2774
81.3483
81.4072
81.455
81.4891
81.5167
81.5347
81.5551
81.5648
81.583
81.5808
81.5969
81.5775
81.5976
81.56
81.5999
81.5527
81.642
81.6099
81.7798
81.7851
82.0196
82.0295
82.2452
82.1834
82.2995
82.1717
82.1718
82.06
81.9812
81.8954
81.8533
81.7927
81.8719
81.8299
81.9552
81.9221
82.0201
81.9645
81.9891
81.9104
81.9311
81.8868
81.9688
81.9453
82.0269
81.9475
81.9594
81.8626
81.8951
81.8541
81.9358
81.8799
81.9203
81.8266
81.8568
81.8129
81.8804
81.8342
81.8725
81.7982
81.8153
81.7696
81.8034
81.7399
81.7373
81.6809
81.6819
81.6386
81.6503
81.5885
81.5532
81.5101
81.5028
81.4391
81.3913
81.3303
81.2848
81.2247
81.1579
81.0816
80.9976
80.8927
80.8259
80.7162
80.5617
80.4345
80.2939
80.1172
79.9506
79.7501
79.5429
79.3082
79.0435
78.7544
78.4501
78.1251
77.7365
77.3451
76.922
76.4412
75.9631
75.3713
74.8577
74.1185
73.4762
72.3732
71.7314
69.7575
69.3583
65.4938
65.574
58.3405
57.4791
45.3387
35.6087
23.112
48.5698
47.8628
46.2713
45.1543
44.7785
45.3195
47.1301
50.3124
54.7018
59.9009
65.4761
70.7481
75.2861
78.6722
80.2828
80.2828
78.3681
73.4286
67.4619
61.7473
56.0248
51.2655
48.0165
44.4234
39.7564
35.4065
32.2322
29.314
26.5506
24.3945
22.6433
21.5189
21.5252
22.6562
24.4128
26.6484
29.1867
31.982
35.1192
38.0756
40.73
43.3108
45.664
47.7983
49.0946
49.6509
49.9043
48.2678
44.8145
40.7917
35.2281
28.7191
22.9747
17.6498
13.5458
11.7451
11.3081
12.7444
17.233
23.2069
29.4202
36.8374
45.4722
53.5478
59.9455
64.8533
68.5948
71.3875
73.4912
75.1132
76.3752
77.3631
78.1491
78.7871
79.3096
79.736
80.0819
80.362
80.589
80.7731
80.9225
81.0435
81.1433
81.2284
81.3039
81.3684
81.4216
81.4603
81.4912
81.5119
81.5343
81.5453
81.5644
81.5612
81.5778
81.5541
81.5744
81.5272
81.5669
81.5025
81.5945
81.541
81.727
81.719
81.9892
82.0011
82.2502
82.195
82.3099
82.1839
82.1464
82.0205
81.9104
81.8043
81.7774
81.7126
81.8226
81.7836
81.9292
81.8734
81.994
81.9009
81.9606
81.8579
81.9004
81.8493
81.9443
81.9149
82.0191
81.9091
81.9415
81.8083
81.8637
81.8093
81.9209
81.8464
81.9078
81.7704
81.8314
81.7621
81.8717
81.7985
81.8658
81.7453
81.8025
81.7268
81.8021
81.6954
81.7251
81.6241
81.6663
81.5939
81.6437
81.5329
81.5314
81.4539
81.4894
81.3888
81.3641
81.2655
81.2528
81.1691
81.119
81.0237
80.9493
80.8136
80.7776
80.646
80.4888
80.3474
80.2134
80.0186
79.8526
79.6274
79.4364
79.1766
78.8981
78.5798
78.3022
77.9201
77.5287
77.0886
76.6938
76.1319
75.6846
74.9602
74.5598
73.5339
73.1768
71.5382
71.4124
68.5343
68.7239
63.8754
64.5329
56.4412
54.8454
43.8606
32.2985
22.515
49.4323
48.7742
47.0867
46.0085
45.7847
46.4861
48.3951
51.4025
55.445
60.1308
65.1008
69.8252
73.8098
76.8374
78.3395
78.2755
76.6372
72.4331
67.119
61.9685
56.6247
51.8463
48.4829
45.2393
41.0062
36.7244
33.7082
31.0358
28.5051
26.5858
25.1264
24.2105
24.201
25.2784
26.9732
29.0214
31.3023
33.8266
36.6701
39.5087
42.1224
44.5801
46.9224
49.1346
50.4862
51.0612
51.2801
49.4969
45.5871
40.9511
34.6693
27.1931
20.5656
14.5623
9.88122
7.69954
7.00957
8.33182
13.0994
19.5214
25.993
33.7034
42.8557
51.5552
58.5107
63.8501
67.8888
70.8744
73.1101
74.8257
76.1534
77.1875
78.0064
78.6681
79.2081
79.6476
80.0033
80.2911
80.5244
80.7139
80.8684
80.9938
81.097
81.185
81.2639
81.3325
81.3898
81.4319
81.4656
81.4887
81.5131
81.5253
81.5455
81.5416
81.5587
81.5314
81.5514
81.495
81.5327
81.4507
81.5415
81.465
81.6631
81.6447
81.9511
81.981
82.2623
82.2346
82.3283
82.2048
82.0993
81.9421
81.7907
81.6543
81.657
81.5898
81.7438
81.7089
81.8881
81.804
81.969
81.844
81.9264
81.8071
81.8614
81.7961
81.9048
81.8599
81.9869
81.8607
81.9067
81.7451
81.8152
81.7425
81.8859
81.7889
81.8791
81.6986
81.7839
81.6934
81.8456
81.7424
81.8431
81.671
81.7664
81.6638
81.791
81.629
81.6961
81.5452
81.6427
81.528
81.6343
81.4493
81.499
81.3748
81.4771
81.3082
81.3387
81.1727
81.2173
81.0828
81.1005
80.9345
80.8969
80.7178
80.746
80.554
80.4207
80.2398
80.1579
79.8945
79.7654
79.4989
79.3432
79.0238
78.7839
78.3928
78.1622
77.6789
77.3605
76.7877
76.491
75.7221
75.4547
74.4003
74.3218
72.7985
72.8504
70.5784
70.8502
67.162
67.9417
62.2098
63.2079
55.0027
50.882
42.3438
30.4915
22.6679
50.2181
49.6504
47.9406
46.8613
46.7199
47.5072
49.4428
52.2932
55.9995
60.2574
64.682
68.9274
72.4624
75.1626
76.585
76.4505
75.0229
71.4559
66.7584
62.1706
57.2614
52.6595
49.1491
46.1744
42.3975
38.3497
35.4741
32.9073
30.6276
28.9095
27.6933
26.9662
26.8878
27.8234
29.3995
31.2439
33.2787
35.5636
38.158
40.8889
43.4864
45.8568
48.2182
50.5407
51.9716
52.6372
52.8425
50.9501
46.6264
41.2562
34.1368
25.7247
18.2221
11.5566
6.35962
3.83722
2.93322
4.14063
9.09969
15.9347
22.727
30.7555
40.3646
49.6207
57.1206
62.8942
67.2194
70.3898
72.7567
74.5644
75.9527
77.0279
77.8763
78.5597
79.116
79.567
79.9308
80.225
80.4639
80.659
80.8191
80.9497
81.0569
81.1477
81.2292
81.3004
81.3603
81.4048
81.4407
81.4655
81.4915
81.5044
81.5258
81.5215
81.5395
81.5095
81.529
81.4648
81.4988
81.4001
81.4851
81.386
81.5901
81.5657
81.9061
81.9668
82.2756
82.2796
82.3296
82.1858
81.9848
81.7658
81.5809
81.4197
81.4908
81.4445
81.6675
81.6267
81.8528
81.746
81.9342
81.8062
81.8715
81.7483
81.8119
81.7347
81.8623
81.7837
81.9228
81.7903
81.8442
81.6692
81.7538
81.6555
81.8173
81.6995
81.8151
81.6071
81.7207
81.5995
81.7893
81.6596
81.7874
81.572
81.7096
81.5758
81.7504
81.5395
81.6363
81.4332
81.5965
81.4425
81.5961
81.3291
81.4478
81.2662
81.4501
81.1961
81.2918
81.0335
81.1817
80.9636
81.0672
80.7959
80.8514
80.5764
80.7242
80.4128
80.3677
80.0803
80.106
79.7371
79.7007
79.2857
79.2798
78.8416
78.6628
78.1173
78.0748
77.4007
77.1755
76.3885
76.334
75.2502
75.2077
73.7446
73.9807
71.9566
72.3553
69.4755
70.0738
65.6801
66.9646
61.0402
60.4816
53.7412
47.1256
40.8226
30.097
23.6543
50.9143
50.4232
48.7521
47.6777
47.57
48.3945
50.295
53.0069
56.4072
60.295
64.2588
68.0682
71.248
73.6759
74.9811
74.8335
73.5727
70.5117
66.4302
62.3187
57.8386
53.5716
49.978
47.2024
43.874
40.1714
37.3609
34.8599
32.8016
31.2572
30.2528
29.6457
29.4696
30.231
31.6372
33.2945
35.1407
37.239
39.6225
42.2155
44.7674
47.1025
49.5248
51.9797
53.5648
54.3822
54.6266
52.61
47.8892
41.7347
33.6672
24.3221
16.0666
8.83332
3.14434
0.295132
-0.802595
0.285034
5.34827
12.5168
19.6597
28.0187
38.0257
47.7829
55.8099
62.0002
66.5964
69.9468
72.4397
74.3309
75.7732
76.8859
77.7618
78.4647
79.0342
79.4941
79.8645
80.1644
80.4086
80.6089
80.7745
80.9103
81.0215
81.1149
81.1981
81.2708
81.3323
81.3784
81.4161
81.4419
81.4694
81.4822
81.5051
81.5006
81.5199
81.4887
81.5073
81.438
81.4662
81.3545
81.428
81.3098
81.5094
81.483
81.8484
81.944
82.2711
82.2962
82.2808
82.0814
81.7752
81.4761
81.3053
81.1512
81.3245
81.3215
81.6187
81.5979
81.8542
81.7453
81.8759
81.7243
81.7503
81.6286
81.7333
81.6747
81.8069
81.713
81.8438
81.6698
81.7523
81.5608
81.6639
81.5524
81.7157
81.5656
81.7239
81.4935
81.6317
81.4891
81.6934
81.5288
81.6967
81.4525
81.6206
81.4658
81.6701
81.4037
81.5355
81.2947
81.5113
81.3259
81.5158
81.1576
81.3413
81.1249
81.3892
81.0287
81.1872
80.8464
81.1059
80.7917
81.0062
80.5745
80.7675
80.3853
80.6763
80.1867
80.2854
79.8417
80.0715
79.4956
79.6014
79.0384
79.2161
78.5503
78.5373
77.8312
77.9454
77.0194
76.9489
75.9328
76.0674
74.6652
74.7968
72.9599
73.4217
70.8388
71.6791
68.3404
69.0789
64.89
65.1079
60.2955
56.9418
51.9624
44.9009
40.2389
30.8473
24.9614
51.5523
51.1076
49.5031
48.4366
48.3314
49.17
50.9878
53.5791
56.7232
60.2593
63.8485
67.2674
70.1458
72.402
73.4937
73.3752
72.269
69.6043
66.0934
62.3628
58.3471
54.4529
50.895
48.2759
45.3119
41.9806
39.2132
36.8014
34.952
33.5529
32.6815
32.1448
31.9001
32.4618
33.6702
35.2124
36.9286
38.831
41.0128
43.4737
45.9811
48.3285
50.854
53.45
55.2417
56.2918
56.6468
54.5012
49.3449
42.3927
33.3632
23.0932
14.1123
6.4489
0.343128
-2.84768
-4.11896
-3.14391
1.92533
9.33296
16.8317
25.5243
35.8817
46.0803
54.5935
61.1748
66.027
69.5454
72.154
74.1219
75.6133
76.7594
77.659
78.3781
78.9584
79.4258
79.8022
80.1071
80.3557
80.5603
80.7307
80.8715
80.9869
81.0831
81.1677
81.2413
81.3039
81.3513
81.391
81.4176
81.4464
81.4592
81.4836
81.4795
81.5004
81.4695
81.4873
81.4157
81.4373
81.3169
81.374
81.2402
81.4226
81.3924
81.768
81.8912
82.226
82.2568
82.1589
81.8879
81.4866
81.1396
81.0265
80.9212
81.1985
81.2469
81.6008
81.614
81.8582
81.7372
81.7516
81.5235
81.531
81.4415
81.6237
81.607
81.7673
81.6509
81.7422
81.5229
81.5975
81.4111
81.5505
81.4191
81.5911
81.424
81.597
81.359
81.5196
81.3421
81.5518
81.3703
81.5676
81.3216
81.5167
81.3235
81.5201
81.2218
81.3891
81.1371
81.4016
81.1769
81.3476
80.9284
81.1935
80.9548
81.2658
80.8119
80.9948
80.6009
80.9786
80.5915
80.8216
80.2494
80.603
80.1562
80.5327
79.8428
80.0953
79.5138
79.9165
79.1066
79.4559
78.6625
79.0764
78.1298
78.3582
77.3594
77.8128
76.5232
76.6566
75.3199
75.677
73.9981
74.2524
72.1939
72.7218
70.1297
70.7486
67.7878
67.525
64.4607
62.425
58.8847
54.3604
50.3014
43.941
40.5669
32.3032
26.2781
52.1076
51.7088
50.1848
49.1479
49.0095
49.8472
51.5785
54.0406
56.9648
60.1754
63.4599
66.5228
69.1247
71.1601
72.0954
72.0361
71.063
68.7389
65.7164
62.3395
58.818
55.2332
51.8306
49.322
46.6183
43.6468
40.9683
38.7082
37.0457
35.7278
34.9203
34.4375
34.1446
34.5369
35.6057
37.0402
38.5922
40.3072
42.3466
44.7106
47.1504
49.5236
52.1881
54.9658
57.0333
58.3801
58.8681
56.5927
50.9739
43.1958
33.2343
22.12
12.4318
4.38284
-2.06039
-5.58608
-7.02393
-6.11764
-1.0912
6.4691
14.2969
23.3114
33.9683
44.5426
53.5002
60.4364
65.5156
69.19
71.9073
73.9421
75.4737
76.6487
77.5694
78.3015
78.8891
79.3614
79.7423
80.0515
80.3039
80.5124
80.6867
80.8317
80.9509
81.05
81.1365
81.2112
81.2754
81.3247
81.3669
81.3949
81.4252
81.438
81.4637
81.4601
81.4826
81.4526
81.4703
81.3986
81.4139
81.2891
81.3267
81.1801
81.3308
81.2895
81.6531
81.7885
82.1173
82.1383
81.9533
81.6151
81.1597
80.8211
80.7955
80.7646
81.1136
81.1963
81.5843
81.6067
81.829
81.6334
81.5407
81.242
81.2711
81.2585
81.5212
81.5492
81.7354
81.5832
81.5796
81.317
81.379
81.2389
81.4285
81.2914
81.462
81.2613
81.4157
81.1873
81.3635
81.1635
81.3805
81.1867
81.418
81.1816
81.3641
81.1262
81.3018
80.9961
81.2244
80.9858
81.2443
80.9497
81.0847
80.6587
81.0147
80.7726
81.0638
80.5078
80.7241
80.3431
80.8016
80.3377
80.5078
79.8538
80.3688
79.9358
80.2506
79.3743
79.7651
79.1022
79.5967
78.5661
79.0693
78.2424
78.7137
77.3827
77.9375
76.8673
77.3934
75.7035
76.1374
74.7086
75.0721
73.2253
73.5955
71.6466
71.9016
69.7542
69.4685
67.2065
65.6786
63.2379
60.3342
57.1692
52.7986
49.7818
44.0376
41.4187
33.8473
27.4256
52.5985
52.251
50.7917
49.7979
49.631
50.4391
52.0789
54.4073
57.1405
60.0661
63.0857
65.8271
68.1777
70.0094
70.8373
70.8351
69.9703
68.0029
65.3424
62.3078
59.2306
55.8951
52.7076
50.2771
47.8064
45.1687
42.651
40.5624
38.989
37.7452
36.9883
36.5101
36.2324
36.5442
37.4592
38.7262
40.1442
41.7225
43.6166
45.8757
48.2611
50.6979
53.537
56.5128
58.9119
60.633
61.2758
58.8225
52.7153
44.0837
33.2464
21.3944
11.1052
2.69715
-4.06097
-7.95778
-9.54907
-8.64536
-3.66257
3.98426
12.0963
21.3987
32.3075
43.2121
52.5609
59.7968
65.08
68.8975
71.7069
73.796
75.3628
76.563
77.4979
78.2357
78.826
79.3015
79.6869
80.0008
80.2576
80.4693
80.6462
80.7936
80.9155
81.0169
81.1049
81.181
81.2476
81.3002
81.3458
81.3761
81.4076
81.4213
81.4475
81.4449
81.468
81.4394
81.4572
81.3869
81.3977
81.2715
81.2893
81.1306
81.2368
81.171
81.4945
81.6171
81.9222
81.9201
81.6593
81.2891
80.8384
80.5778
80.6441
80.6842
81.0554
81.1397
81.5409
81.5513
81.7411
81.4634
81.2911
80.971
81.0472
81.1038
81.4224
81.4919
81.6531
81.4533
81.3669
81.0422
81.1586
81.0735
81.3047
81.1854
81.2986
81.0336
81.1752
80.9665
81.1868
80.9987
81.1919
80.9881
81.2167
80.9783
81.1528
80.8795
81.0481
80.7766
81.0509
80.7921
80.9997
80.625
80.7682
80.4043
80.8294
80.538
80.7324
80.1322
80.4335
80.1096
80.5551
79.9827
80.084
79.4921
80.1142
79.6687
79.8167
78.8886
79.3729
78.7459
79.1843
78.0777
78.6003
77.8694
78.1928
76.6573
77.3111
76.4403
76.729
74.8271
75.299
74.0779
74.2282
72.2771
72.5833
70.7501
70.6411
68.5791
67.8408
65.565
63.7063
61.327
58.6851
55.9639
52.201
50.3038
44.9367
42.4127
35.2078
28.4549
53.0383
52.751
51.3422
50.3867
50.1931
50.9488
52.5031
54.6907
57.2601
59.9542
62.7072
65.1861
67.3193
68.9645
69.7699
69.7768
69.0071
67.3614
64.9528
62.245
59.5156
56.4673
53.5276
51.1727
48.907
46.5546
44.244
42.2875
40.7851
39.6434
38.8941
38.4338
38.2284
38.4421
39.1784
40.3167
41.6305
43.0579
44.8096
46.9853
49.3257
51.8283
54.8634
58.0818
60.8529
63.0083
63.8307
61.1456
54.4919
45.0279
33.3624
20.8844
10.0958
1.37187
-5.65935
-9.96039
-11.7186
-10.7374
-5.78174
1.91332
10.2538
19.807
30.9348
42.1201
51.7892
59.2748
64.7286
68.6651
71.5527
73.6857
75.2778
76.4934
77.4366
78.1786
78.7713
79.2502
79.6399
79.9583
80.2186
80.4322
80.6097
80.7578
80.8815
80.9847
81.0739
81.1512
81.2203
81.2766
81.3259
81.3593
81.3922