/*--------------------------------*- C++ -*----------------------------------*\
| =========                 |                                                 |
| \\      /  F ield         | OpenFOAM: The Open Source CFD Toolbox           |
|  \\    /   O peration     | Version:  2.4.0                                 |
|   \\  /    A nd           | Web:      www.OpenFOAM.org                      |
|    \\/     M anipulation  |                                                 |
\*---------------------------------------------------------------------------*/
FoamFile
{
    version     2.0;
    format      ascii;
    class       surfaceScalarField;
    location    "0.0927433";
    object      phi;
}
// * * * * * * * * * * * * * * * * * * * * * * * * * * * * * * * * * * * * * //

dimensions      [0 3 -1 0 0 0 0];

internalField   nonuniform List<scalar> 
34880
(
1.21387e-05
3.6131e-07
1.17096e-05
4.29043e-07
1.13222e-05
3.8741e-07
1.09672e-05
3.55006e-07
1.06483e-05
3.18947e-07
1.03728e-05
2.75533e-07
1.014e-05
2.32719e-07
9.94561e-06
1.94419e-07
9.78392e-06
1.61691e-07
9.64936e-06
1.34558e-07
9.53667e-06
1.12696e-07
9.44113e-06
9.55397e-08
9.35869e-06
8.24413e-08
9.28592e-06
7.27661e-08
9.21991e-06
6.60063e-08
9.15797e-06
6.19458e-08
9.09707e-06
6.08963e-08
9.03076e-06
6.63135e-08
8.94926e-06
8.15021e-08
2.81083e-07
8.66817e-06
1.26408e-05
2.20497e-07
1.27045e-05
3.65393e-07
1.27221e-05
3.69788e-07
1.26941e-05
3.82993e-07
1.26301e-05
3.8297e-07
1.25383e-05
3.67357e-07
1.24265e-05
3.44424e-07
1.23018e-05
3.1912e-07
1.21699e-05
2.93652e-07
1.20353e-05
2.69172e-07
1.19016e-05
2.46403e-07
1.17714e-05
2.2569e-07
1.16467e-05
2.07164e-07
1.15286e-05
1.90894e-07
1.14176e-05
1.76959e-07
1.13136e-05
1.65949e-07
1.12167e-05
1.57769e-07
1.11219e-05
1.61152e-07
1.10416e-05
1.61757e-07
3.29656e-07
1.09931e-05
1.25406e-05
1.79936e-07
1.25884e-05
3.1758e-07
1.2628e-05
3.30173e-07
1.26609e-05
3.50076e-07
1.26833e-05
3.60585e-07
1.26942e-05
3.56481e-07
1.2694e-05
3.44604e-07
1.26833e-05
3.29838e-07
1.26627e-05
3.1421e-07
1.26332e-05
2.98723e-07
1.25955e-05
2.84055e-07
1.25506e-05
2.70557e-07
1.24995e-05
2.58355e-07
1.24428e-05
2.47523e-07
1.23816e-05
2.38174e-07
1.23165e-05
2.31092e-07
1.22478e-05
2.2641e-07
1.21751e-05
2.33835e-07
1.20942e-05
2.42727e-07
3.79719e-07
1.20441e-05
1.25233e-05
1.56593e-07
1.25543e-05
2.86581e-07
1.25822e-05
3.02337e-07
1.26113e-05
3.20917e-07
1.26384e-05
3.33547e-07
1.2662e-05
3.32882e-07
1.26818e-05
3.24775e-07
1.26976e-05
3.14079e-07
1.27091e-05
3.0264e-07
1.27166e-05
2.91302e-07
1.27199e-05
2.80689e-07
1.27193e-05
2.71159e-07
1.27148e-05
2.62869e-07
1.27064e-05
2.55942e-07
1.2694e-05
2.50564e-07
1.26774e-05
2.47655e-07
1.26562e-05
2.47661e-07
1.26299e-05
2.60136e-07
1.25944e-05
2.78239e-07
3.95935e-07
1.25782e-05
1.25187e-05
1.37919e-07
1.25435e-05
2.61747e-07
1.25662e-05
2.79641e-07
1.25911e-05
2.96049e-07
1.26159e-05
3.08712e-07
1.26396e-05
3.09195e-07
1.26617e-05
3.02645e-07
1.2682e-05
2.9384e-07
1.27001e-05
2.84458e-07
1.27162e-05
2.75212e-07
1.27302e-05
2.66672e-07
1.27422e-05
2.59189e-07
1.27522e-05
2.5293e-07
1.276e-05
2.48062e-07
1.27658e-05
2.44836e-07
1.27691e-05
2.44296e-07
1.27696e-05
2.47137e-07
1.27672e-05
2.62616e-07
1.27594e-05
2.85963e-07
3.88447e-07
1.27669e-05
1.25162e-05
1.21762e-07
1.25385e-05
2.39379e-07
1.25592e-05
2.58967e-07
1.25817e-05
2.73585e-07
1.26046e-05
2.85729e-07
1.26272e-05
2.86631e-07
1.2649e-05
2.80859e-07
1.26697e-05
2.73113e-07
1.26892e-05
2.64938e-07
1.27075e-05
2.56941e-07
1.27245e-05
2.49654e-07
1.27403e-05
2.43414e-07
1.27548e-05
2.38395e-07
1.27681e-05
2.34794e-07
1.278e-05
2.32919e-07
1.27904e-05
2.33911e-07
1.27989e-05
2.38652e-07
1.28055e-05
2.56024e-07
1.2809e-05
2.82435e-07
3.73071e-07
1.28244e-05
1.25142e-05
1.07521e-07
1.25354e-05
2.18265e-07
1.25552e-05
2.39136e-07
1.25764e-05
2.52369e-07
1.25983e-05
2.63871e-07
1.26199e-05
2.64986e-07
1.2641e-05
2.59728e-07
1.26615e-05
2.527e-07
1.2681e-05
2.45353e-07
1.26998e-05
2.38213e-07
1.27176e-05
2.31781e-07
1.27347e-05
2.2639e-07
1.27508e-05
2.22219e-07
1.27661e-05
2.19496e-07
1.27805e-05
2.18577e-07
1.27937e-05
2.20687e-07
1.28055e-05
2.26856e-07
1.2816e-05
2.45547e-07
1.28245e-05
2.73947e-07
3.55587e-07
1.28419e-05
1.25127e-05
9.48277e-08
1.25329e-05
1.98068e-07
1.25523e-05
2.19729e-07
1.25729e-05
2.3181e-07
1.25941e-05
2.42632e-07
1.26152e-05
2.43916e-07
1.26358e-05
2.39109e-07
1.26558e-05
2.32679e-07
1.26752e-05
2.25998e-07
1.26938e-05
2.19532e-07
1.27119e-05
2.13758e-07
1.27292e-05
2.09008e-07
1.2746e-05
2.05473e-07
1.27621e-05
2.03408e-07
1.27774e-05
2.03219e-07
1.27919e-05
2.06198e-07
1.28053e-05
2.13503e-07
1.28177e-05
2.33148e-07
1.28287e-05
2.62936e-07
3.37796e-07
1.28465e-05
1.25114e-05
8.34121e-08
1.25308e-05
1.78683e-07
1.25499e-05
2.00595e-07
1.25701e-05
2.11638e-07
1.2591e-05
2.21736e-07
1.26117e-05
2.23169e-07
1.2632e-05
2.18813e-07
1.26518e-05
2.1295e-07
1.26709e-05
2.0688e-07
1.26894e-05
2.01011e-07
1.27074e-05
1.95804e-07
1.27248e-05
1.91591e-07
1.27417e-05
1.88574e-07
1.2758e-05
1.87041e-07
1.27738e-05
1.87444e-07
1.27889e-05
1.91128e-07
1.2803e-05
1.99367e-07
1.28165e-05
2.19709e-07
1.28289e-05
2.50512e-07
3.20289e-07
1.28464e-05
1.25103e-05
7.30656e-08
1.2529e-05
1.60047e-07
1.25479e-05
1.81676e-07
1.25678e-05
1.91733e-07
1.25885e-05
2.01056e-07
1.26091e-05
2.02599e-07
1.26292e-05
1.98703e-07
1.26487e-05
1.93404e-07
1.26677e-05
1.87928e-07
1.2686e-05
1.82633e-07
1.27039e-05
1.77958e-07
1.27212e-05
1.74234e-07
1.27381e-05
1.71677e-07
1.27546e-05
1.70605e-07
1.27705e-05
1.71513e-07
1.27858e-05
1.7579e-07
1.28004e-05
1.84813e-07
1.28144e-05
2.05667e-07
1.28277e-05
2.37238e-07
3.03226e-07
1.28448e-05
1.25094e-05
6.36164e-08
1.25274e-05
1.42094e-07
1.25461e-05
1.62945e-07
1.25658e-05
1.72039e-07
1.25863e-05
1.80536e-07
1.26068e-05
1.82136e-07
1.26268e-05
1.78696e-07
1.26463e-05
1.73963e-07
1.26651e-05
1.69078e-07
1.26834e-05
1.64352e-07
1.27012e-05
1.60198e-07
1.27184e-05
1.56945e-07
1.27353e-05
1.54821e-07
1.27517e-05
1.5417e-07
1.27677e-05
1.55532e-07
1.27832e-05
1.60323e-07
1.2798e-05
1.70015e-07
1.28124e-05
1.91242e-07
1.28262e-05
2.23406e-07
2.86586e-07
1.28429e-05
1.25087e-05
5.4918e-08
1.2526e-05
1.24758e-07
1.25446e-05
1.44384e-07
1.25641e-05
1.52522e-07
1.25845e-05
1.60149e-07
1.26049e-05
1.61747e-07
1.26248e-05
1.58752e-07
1.26442e-05
1.5458e-07
1.2663e-05
1.50282e-07
1.26812e-05
1.46125e-07
1.26989e-05
1.42493e-07
1.27162e-05
1.39706e-07
1.2733e-05
1.38003e-07
1.27494e-05
1.37753e-07
1.27654e-05
1.39533e-07
1.2781e-05
1.44781e-07
1.27959e-05
1.55049e-07
1.28106e-05
1.76544e-07
1.28249e-05
2.09163e-07
2.70271e-07
1.28412e-05
1.25081e-05
4.68438e-08
1.25249e-05
1.07971e-07
1.25433e-05
1.25979e-07
1.25626e-05
1.33153e-07
1.25829e-05
1.39878e-07
1.26032e-05
1.41416e-07
1.26231e-05
1.3885e-07
1.26425e-05
1.35233e-07
1.26613e-05
1.31516e-07
1.26795e-05
1.27927e-07
1.26971e-05
1.24816e-07
1.27143e-05
1.22493e-07
1.27311e-05
1.21206e-07
1.27475e-05
1.21344e-07
1.27636e-05
1.23518e-07
1.27792e-05
1.29176e-07
1.27943e-05
1.39943e-07
1.28092e-05
1.61621e-07
1.28238e-05
1.94583e-07
2.54155e-07
1.28399e-05
1.25076e-05
3.92843e-08
1.25239e-05
9.16635e-08
1.25421e-05
1.07713e-07
1.25614e-05
1.13911e-07
1.25815e-05
1.19709e-07
1.26018e-05
1.21133e-07
1.26217e-05
1.18979e-07
1.2641e-05
1.15909e-07
1.26598e-05
1.12765e-07
1.2678e-05
1.09741e-07
1.26956e-05
1.07152e-07
1.27128e-05
1.05292e-07
1.27296e-05
1.04417e-07
1.2746e-05
1.04931e-07
1.27621e-05
1.07478e-07
1.27777e-05
1.13507e-07
1.2793e-05
1.24702e-07
1.28081e-05
1.46495e-07
1.2823e-05
1.79696e-07
2.38111e-07
1.2839e-05
1.25071e-05
3.21432e-08
1.2523e-05
7.57654e-08
1.25412e-05
8.95696e-08
1.25603e-05
9.47745e-08
1.25804e-05
9.96275e-08
1.26006e-05
1.00892e-07
1.26205e-05
9.91335e-08
1.26398e-05
9.66026e-08
1.26585e-05
9.40242e-08
1.26767e-05
9.15602e-08
1.26944e-05
8.94912e-08
1.27116e-05
8.80924e-08
1.27284e-05
8.76235e-08
1.27448e-05
8.85048e-08
1.27609e-05
9.14043e-08
1.27766e-05
9.77671e-08
1.2792e-05
1.09327e-07
1.28073e-05
1.31172e-07
1.28225e-05
1.64513e-07
2.22017e-07
1.28386e-05
1.25068e-05
2.53357e-08
1.25224e-05
6.02075e-08
1.25404e-05
7.15298e-08
1.25595e-05
7.57234e-08
1.25795e-05
7.96201e-08
1.25997e-05
8.0685e-08
1.26195e-05
7.93077e-08
1.26388e-05
7.73095e-08
1.26575e-05
7.52889e-08
1.26757e-05
7.33809e-08
1.26934e-05
7.1829e-08
1.27106e-05
7.08878e-08
1.27274e-05
7.08198e-08
1.27438e-05
7.20574e-08
1.27599e-05
7.52893e-08
1.27758e-05
8.19508e-08
1.27913e-05
9.38127e-08
1.28068e-05
1.15652e-07
1.28223e-05
1.49035e-07
2.05774e-07
1.28385e-05
1.25066e-05
1.87852e-08
1.25218e-05
4.49209e-08
1.25398e-05
5.35746e-08
1.25588e-05
5.67395e-08
1.25787e-05
5.9672e-08
1.25989e-05
6.05059e-08
1.26187e-05
5.94972e-08
1.2638e-05
5.80264e-08
1.26567e-05
5.65572e-08
1.26749e-05
5.5201e-08
1.26926e-05
5.41633e-08
1.27098e-05
5.36758e-08
1.27266e-05
5.40023e-08
1.27431e-05
5.55846e-08
1.27592e-05
5.91284e-08
1.27751e-05
6.60539e-08
1.27908e-05
7.81583e-08
1.28065e-05
9.99355e-08
1.28223e-05
1.33263e-07
1.89298e-07
1.28388e-05
1.25064e-05
1.24221e-08
1.25214e-05
2.98369e-08
1.25393e-05
3.56836e-08
1.25583e-05
3.78054e-08
1.25782e-05
3.97687e-08
1.25983e-05
4.03477e-08
1.26181e-05
3.9698e-08
1.26374e-05
3.87504e-08
1.26561e-05
3.78274e-08
1.26743e-05
3.70193e-08
1.2692e-05
3.64928e-08
1.27092e-05
3.64549e-08
1.2726e-05
3.71689e-08
1.27425e-05
3.90841e-08
1.27588e-05
4.29186e-08
1.27747e-05
5.00741e-08
1.27905e-05
6.23631e-08
1.28064e-05
8.40231e-08
1.28225e-05
1.17193e-07
1.72523e-07
1.28393e-05
1.25062e-05
6.18143e-09
1.25212e-05
1.48875e-08
1.2539e-05
1.7836e-08
1.25579e-05
1.89042e-08
1.25778e-05
1.98951e-08
1.2598e-05
2.02033e-08
1.26177e-05
1.99061e-08
1.2637e-05
1.94787e-08
1.26557e-05
1.90984e-08
1.26739e-05
1.88353e-08
1.26916e-05
1.88171e-08
1.27088e-05
1.92243e-08
1.27257e-05
2.03187e-08
1.27422e-05
2.25545e-08
1.27585e-05
2.66587e-08
1.27745e-05
3.40105e-08
1.27905e-05
4.64278e-08
1.28066e-05
6.79151e-08
1.2823e-05
1.00826e-07
1.554e-07
1.28401e-05
1.25062e-05
1.26542e-12
1.25211e-05
4.78223e-12
1.25389e-05
1.01579e-11
1.25578e-05
1.95738e-11
1.25776e-05
3.61956e-11
1.25978e-05
6.56153e-11
1.26176e-05
1.17438e-10
1.26368e-05
2.08681e-10
1.26556e-05
3.68597e-10
1.26737e-05
6.4831e-10
1.26914e-05
1.13563e-09
1.27087e-05
1.98367e-09
1.27255e-05
3.45116e-09
1.27421e-05
5.99519e-09
1.27584e-05
1.03479e-08
1.27746e-05
1.78629e-08
1.27906e-05
3.03541e-08
1.28069e-05
5.16128e-08
1.28236e-05
8.41625e-08
1.37892e-07
1.28411e-05
1.25062e-05
-6.1789e-09
1.25211e-05
-1.48779e-08
1.25389e-05
-1.78157e-08
1.25578e-05
-1.88652e-08
1.25776e-05
-1.98229e-08
1.25978e-05
-2.00724e-08
1.26176e-05
-1.96719e-08
1.26368e-05
-1.90625e-08
1.26556e-05
-1.83631e-08
1.26738e-05
-1.75421e-08
1.26914e-05
-1.65517e-08
1.27087e-05
-1.52672e-08
1.27256e-05
-1.3434e-08
1.27422e-05
-1.05942e-08
1.27585e-05
-6.01396e-09
1.27748e-05
1.63195e-09
1.2791e-05
1.41442e-08
1.28075e-05
3.51183e-08
1.28244e-05
6.72037e-08
1.19976e-07
1.28423e-05
1.25062e-05
-1.24196e-08
1.25212e-05
-2.98275e-08
1.2539e-05
-3.56635e-08
1.25579e-05
-3.77667e-08
1.25778e-05
-3.96971e-08
1.2598e-05
-4.02179e-08
1.26178e-05
-3.94657e-08
1.2637e-05
-3.83375e-08
1.26558e-05
-3.70981e-08
1.2674e-05
-3.57364e-08
1.26917e-05
-3.42453e-08
1.27089e-05
-3.25284e-08
1.27258e-05
-3.0337e-08
1.27424e-05
-2.72138e-08
1.27588e-05
-2.24269e-08
1.27752e-05
-1.46818e-08
1.27915e-05
-2.19945e-09
1.28082e-05
1.84339e-08
1.28254e-05
4.99528e-08
1.01636e-07
1.28438e-05
1.25064e-05
-1.87828e-08
1.25214e-05
-4.49116e-08
1.25393e-05
-5.35548e-08
1.25583e-05
-5.67014e-08
1.25782e-05
-5.96015e-08
1.25983e-05
-6.03779e-08
1.26181e-05
-5.92681e-08
1.26374e-05
-5.76191e-08
1.26562e-05
-5.58376e-08
1.26744e-05
-5.3935e-08
1.26921e-05
-5.19452e-08
1.27093e-05
-4.98003e-08
1.27263e-05
-4.72581e-08
1.27429e-05
-4.3864e-08
1.27594e-05
-3.8891e-08
1.27758e-05
-3.10775e-08
1.27922e-05
-1.86745e-08
1.28091e-05
1.5618e-09
1.28266e-05
3.24133e-08
8.28644e-08
1.28454e-05
1.25066e-05
-2.53333e-08
1.25218e-05
-6.01984e-08
1.25398e-05
-7.15105e-08
1.25588e-05
-7.5686e-08
1.25787e-05
-7.95509e-08
1.25989e-05
-8.05595e-08
1.26187e-05
-7.9083e-08
1.2638e-05
-7.691e-08
1.26568e-05
-7.4583e-08
1.2675e-05
-7.21387e-08
1.26927e-05
-6.96521e-08
1.271e-05
-6.70833e-08
1.27269e-05
-6.41978e-08
1.27436e-05
-6.05453e-08
1.27601e-05
-5.54065e-08
1.27766e-05
-4.7555e-08
1.27932e-05
-3.52789e-08
1.28102e-05
-1.54954e-08
1.28281e-05
1.45898e-08
6.36605e-08
1.28473e-05
1.25068e-05
-3.21409e-08
1.25224e-05
-7.57565e-08
1.25404e-05
-8.95508e-08
1.25595e-05
-9.47381e-08
1.25795e-05
-9.95602e-08
1.25997e-05
-1.0077e-07
1.26195e-05
-9.89145e-08
1.26388e-05
-9.62131e-08
1.26576e-05
-9.33357e-08
1.26758e-05
-9.03483e-08
1.26935e-05
-8.73667e-08
1.27108e-05
-8.43786e-08
1.27277e-05
-8.11575e-08
1.27445e-05
-7.72592e-08
1.2761e-05
-7.19749e-08
1.27776e-05
-6.41147e-08
1.27943e-05
-5.20112e-08
1.28116e-05
-3.27355e-08
1.28297e-05
-3.51265e-09
4.40283e-08
1.28493e-05
1.25071e-05
-3.9282e-08
1.2523e-05
-9.16549e-08
1.25412e-05
-1.07695e-07
1.25603e-05
-1.13876e-07
1.25804e-05
-1.19644e-07
1.26007e-05
-1.21015e-07
1.26205e-05
-1.18767e-07
1.26398e-05
-1.15532e-07
1.26586e-05
-1.12098e-07
1.26768e-05
-1.08566e-07
1.26945e-05
-1.05091e-07
1.27118e-05
-1.01688e-07
1.27288e-05
-9.814e-08
1.27456e-05
-9.40089e-08
1.27622e-05
-8.85987e-08
1.27788e-05
-8.07584e-08
1.27957e-05
-6.88711e-08
1.28131e-05
-5.01562e-08
1.28315e-05
-2.18873e-08
2.39773e-08
1.28515e-05
1.25076e-05
-4.68416e-08
1.25239e-05
-1.07963e-07
1.25421e-05
-1.25962e-07
1.25614e-05
-1.3312e-07
1.25815e-05
-1.39815e-07
1.26018e-05
-1.41302e-07
1.26217e-05
-1.38646e-07
1.26411e-05
-1.34869e-07
1.26598e-05
-1.30873e-07
1.26781e-05
-1.26794e-07
1.26958e-05
-1.2283e-07
1.27131e-05
-1.19018e-07
1.27301e-05
-1.15151e-07
1.27469e-05
-1.108e-07
1.27636e-05
-1.05283e-07
1.27803e-05
-9.74891e-08
1.27973e-05
-8.58579e-08
1.28149e-05
-6.77539e-08
1.28336e-05
-4.05243e-08
3.52426e-09
1.2854e-05
1.25081e-05
-5.49159e-08
1.25249e-05
-1.24751e-07
1.25433e-05
-1.44368e-07
1.25626e-05
-1.52489e-07
1.25829e-05
-1.60089e-07
1.26032e-05
-1.61638e-07
1.26232e-05
-1.58557e-07
1.26425e-05
-1.54233e-07
1.26613e-05
-1.49667e-07
1.26796e-05
-1.45042e-07
1.26973e-05
-1.40591e-07
1.27147e-05
-1.36376e-07
1.27317e-05
-1.32199e-07
1.27486e-05
-1.2764e-07
1.27653e-05
-1.22033e-07
1.27821e-05
-1.14309e-07
1.27993e-05
-1.02969e-07
1.2817e-05
-8.55202e-08
1.28359e-05
-5.94058e-08
-1.73027e-08
1.28567e-05
1.25087e-05
-6.36145e-08
1.2526e-05
-1.42087e-07
1.25446e-05
-1.62929e-07
1.25641e-05
-1.72009e-07
1.25845e-05
-1.8048e-07
1.26049e-05
-1.82033e-07
1.26249e-05
-1.78511e-07
1.26443e-05
-1.73634e-07
1.26631e-05
-1.68494e-07
1.26814e-05
-1.63323e-07
1.26992e-05
-1.58391e-07
1.27166e-05
-1.5378e-07
1.27337e-05
-1.49299e-07
1.27506e-05
-1.4454e-07
1.27674e-05
-1.38855e-07
1.27843e-05
-1.31217e-07
1.28015e-05
-1.20193e-07
1.28194e-05
-1.03434e-07
1.28385e-05
-7.8497e-08
-3.84542e-08
1.28597e-05
1.25094e-05
-7.30638e-08
1.25274e-05
-1.6004e-07
1.25461e-05
-1.81661e-07
1.25658e-05
-1.91705e-07
1.25864e-05
-2.01003e-07
1.26068e-05
-2.02503e-07
1.26268e-05
-1.98529e-07
1.26463e-05
-1.93095e-07
1.26652e-05
-1.87379e-07
1.26835e-05
-1.81664e-07
1.27014e-05
-1.76255e-07
1.27189e-05
-1.71248e-07
1.2736e-05
-1.66465e-07
1.2753e-05
-1.61505e-07
1.27699e-05
-1.55742e-07
1.27869e-05
-1.48193e-07
1.28042e-05
-1.37496e-07
1.28222e-05
-1.21445e-07
1.28414e-05
-9.77292e-08
-5.98423e-08
1.28628e-05
1.25103e-05
-8.34104e-08
1.2529e-05
-1.78677e-07
1.25479e-05
-2.00581e-07
1.25678e-05
-2.11611e-07
1.25885e-05
-2.21687e-07
1.26091e-05
-2.23079e-07
1.26292e-05
-2.18652e-07
1.26488e-05
-2.12662e-07
1.26677e-05
-2.06368e-07
1.26862e-05
-2.00107e-07
1.27042e-05
-1.94214e-07
1.27217e-05
-1.888e-07
1.27389e-05
-1.83698e-07
1.27559e-05
-1.78518e-07
1.27729e-05
-1.72656e-07
1.27898e-05
-1.65177e-07
1.28071e-05
-1.54795e-07
1.28251e-05
-1.39448e-07
1.28444e-05
-1.16969e-07
-8.131e-08
1.28659e-05
1.25114e-05
-9.48262e-08
1.25308e-05
-1.98062e-07
1.25499e-05
-2.19716e-07
1.25701e-05
-2.31786e-07
1.2591e-05
-2.42587e-07
1.26118e-05
-2.43834e-07
1.26321e-05
-2.38961e-07
1.26518e-05
-2.32414e-07
1.2671e-05
-2.25527e-07
1.26896e-05
-2.18697e-07
1.27076e-05
-2.12288e-07
1.27253e-05
-2.06426e-07
1.27425e-05
-2.00955e-07
1.27595e-05
-1.95502e-07
1.27763e-05
-1.89487e-07
1.27932e-05
-1.82025e-07
1.28103e-05
-1.71909e-07
1.28281e-05
-1.57229e-07
1.28471e-05
-1.35965e-07
-1.02575e-07
1.28684e-05
1.25127e-05
-1.0752e-07
1.25329e-05
-2.18259e-07
1.25523e-05
-2.39125e-07
1.25729e-05
-2.52347e-07
1.25941e-05
-2.63831e-07
1.26152e-05
-2.64912e-07
1.26358e-05
-2.59593e-07
1.26559e-05
-2.52459e-07
1.26753e-05
-2.44924e-07
1.2694e-05
-2.37452e-07
1.27122e-05
-2.30439e-07
1.27298e-05
-2.24029e-07
1.27469e-05
-2.18083e-07
1.27636e-05
-2.12246e-07
1.27801e-05
-2.05967e-07
1.27965e-05
-1.98415e-07
1.28131e-05
-1.88465e-07
1.28302e-05
-1.74363e-07
1.28485e-05
-1.54238e-07
-1.23119e-07
1.2869e-05
1.25142e-05
-1.21761e-07
1.25354e-05
-2.39374e-07
1.25552e-05
-2.58958e-07
1.25764e-05
-2.73566e-07
1.25983e-05
-2.85693e-07
1.26199e-05
-2.86565e-07
1.26411e-05
-2.8074e-07
1.26615e-05
-2.72898e-07
1.26811e-05
-2.64553e-07
1.26999e-05
-2.56258e-07
1.27179e-05
-2.48445e-07
1.27352e-05
-2.41284e-07
1.27518e-05
-2.34658e-07
1.27678e-05
-2.28233e-07
1.27833e-05
-2.2149e-07
1.27985e-05
-2.13653e-07
1.28137e-05
-2.03683e-07
1.28294e-05
-1.89988e-07
1.2846e-05
-1.70837e-07
-1.41929e-07
1.28648e-05
1.25162e-05
-1.37918e-07
1.25385e-05
-2.61743e-07
1.25592e-05
-2.79633e-07
1.25817e-05
-2.96033e-07
1.26047e-05
-3.08681e-07
1.26272e-05
-3.09138e-07
1.2649e-05
-3.0254e-07
1.26698e-05
-2.93651e-07
1.26893e-05
-2.8412e-07
1.27077e-05
-2.74608e-07
1.27249e-05
-2.65603e-07
1.27409e-05
-2.573e-07
1.27558e-05
-2.49609e-07
1.27698e-05
-2.42219e-07
1.2783e-05
-2.34641e-07
1.27955e-05
-2.26158e-07
1.28076e-05
-2.15813e-07
1.28198e-05
-2.02192e-07
1.28326e-05
-1.83672e-07
-1.56795e-07
1.28475e-05
1.25187e-05
-1.56592e-07
1.25435e-05
-2.86578e-07
1.25662e-05
-3.0233e-07
1.25911e-05
-3.20903e-07
1.26159e-05
-3.33521e-07
1.26396e-05
-3.32833e-07
1.26618e-05
-3.24686e-07
1.2682e-05
-3.13917e-07
1.27002e-05
-3.02348e-07
1.27164e-05
-2.9078e-07
1.27306e-05
-2.79761e-07
1.27428e-05
-2.69517e-07
1.27532e-05
-2.59975e-07
1.27618e-05
-2.50844e-07
1.27688e-05
-2.41661e-07
1.27744e-05
-2.31765e-07
1.27789e-05
-2.2028e-07
1.27827e-05
-2.05996e-07
1.27864e-05
-1.8737e-07
-1.62129e-07
1.27917e-05
1.25233e-05
-1.79935e-07
1.25543e-05
-3.17578e-07
1.25822e-05
-3.30167e-07
1.26113e-05
-3.50064e-07
1.26384e-05
-3.60563e-07
1.2662e-05
-3.5644e-07
1.26818e-05
-3.44529e-07
1.26976e-05
-3.29702e-07
1.27092e-05
-3.13964e-07
1.27167e-05
-2.98282e-07
1.27203e-05
-2.83272e-07
1.27199e-05
-2.69171e-07
1.27158e-05
-2.55916e-07
1.27082e-05
-2.43232e-07
1.26973e-05
-2.307e-07
1.26833e-05
-2.17749e-07
1.26666e-05
-2.03639e-07
1.26481e-05
-1.87452e-07
1.26285e-05
-1.67763e-07
-1.44032e-07
1.26104e-05
1.25406e-05
-2.20496e-07
1.25884e-05
-3.65391e-07
1.2628e-05
-3.69783e-07
1.26609e-05
-3.82983e-07
1.26833e-05
-3.82952e-07
1.26942e-05
-3.67324e-07
1.2694e-05
-3.44363e-07
1.26833e-05
-3.19009e-07
1.26628e-05
-2.93453e-07
1.26333e-05
-2.68819e-07
1.25959e-05
-2.4578e-07
1.25513e-05
-2.24598e-07
1.25006e-05
-2.0526e-07
1.2445e-05
-1.87572e-07
1.23855e-05
-1.71216e-07
1.23235e-05
-1.55742e-07
1.22604e-05
-1.40554e-07
1.21979e-05
-1.24923e-07
1.21377e-05
-1.07613e-07
-8.87994e-08
1.20825e-05
1.26408e-05
-3.61309e-07
1.27045e-05
-4.29041e-07
1.27221e-05
-3.87406e-07
1.26941e-05
-3.54998e-07
1.26301e-05
-3.18933e-07
1.25383e-05
-2.75506e-07
1.24266e-05
-2.32671e-07
1.23019e-05
-1.94333e-07
1.217e-05
-1.6154e-07
1.20355e-05
-1.34293e-07
1.19019e-05
-1.12233e-07
1.1772e-05
-9.47346e-08
1.16478e-05
-8.10442e-08
1.15306e-05
-7.03448e-08
1.14212e-05
-6.18073e-08
1.13201e-05
-5.46047e-08
1.12274e-05
-4.79232e-08
1.11434e-05
-4.09421e-08
1.10686e-05
-3.27983e-08
-2.3175e-08
1.1003e-05
1.21387e-05
1.17096e-05
1.13222e-05
1.09672e-05
1.06483e-05
1.03728e-05
1.01401e-05
9.9458e-06
9.78426e-06
9.64997e-06
9.53774e-06
9.443e-06
9.36196e-06
9.29161e-06
9.22981e-06
9.1752e-06
9.12728e-06
9.08634e-06
9.05354e-06
9.03036e-06
8.44345e-06
6.88731e-08
1.55849e-07
8.16344e-06
4.88667e-09
2.75125e-07
7.86141e-06
-1.12977e-07
4.15008e-07
7.6161e-06
-2.35739e-07
4.81046e-07
7.42713e-06
-3.33576e-07
5.22547e-07
7.28085e-06
-3.89042e-07
5.35327e-07
7.16474e-06
-3.97137e-07
5.13246e-07
7.07003e-06
-3.60906e-07
4.55609e-07
6.99339e-06
-2.90408e-07
3.67047e-07
6.93538e-06
-1.98738e-07
2.56749e-07
6.89776e-06
-9.91402e-08
1.36766e-07
6.88085e-06
-1.79987e-09
1.87052e-08
6.88282e-06
8.63351e-08
-8.83033e-08
6.89997e-06
1.6103e-07
-1.78182e-07
6.92799e-06
2.19886e-07
-2.47903e-07
6.96279e-06
2.6209e-07
-2.96892e-07
7.00091e-06
2.8813e-07
-3.26246e-07
7.03961e-06
2.99339e-07
-3.38047e-07
7.07695e-06
2.97489e-07
-3.34827e-07
7.11167e-06
2.84489e-07
-3.19208e-07
7.14313e-06
2.62201e-07
-2.93664e-07
7.17121e-06
2.32323e-07
-2.60401e-07
7.19617e-06
1.96342e-07
-2.21302e-07
7.21856e-06
1.55509e-07
-1.77895e-07
7.23909e-06
1.10824e-07
-1.31357e-07
7.25857e-06
6.30317e-08
-8.25125e-08
7.27781e-06
1.26155e-08
-3.18521e-08
7.29756e-06
-4.02089e-08
2.0458e-08
7.31849e-06
-9.5489e-08
7.45587e-08
7.34116e-06
-1.53514e-07
1.30845e-07
7.36604e-06
-2.14792e-07
1.89915e-07
7.39351e-06
-2.80013e-07
2.52534e-07
7.42393e-06
-3.50015e-07
3.19596e-07
7.45759e-06
-4.25745e-07
3.92089e-07
7.49475e-06
-5.08225e-07
4.71061e-07
7.53568e-06
-5.9853e-07
5.57603e-07
7.58063e-06
-6.97773e-07
6.52829e-07
7.62984e-06
-8.07089e-07
7.5787e-07
7.68361e-06
-9.27629e-07
8.73864e-07
7.74221e-06
-1.06055e-06
1.00195e-06
7.80596e-06
-1.20699e-06
1.14324e-06
7.87519e-06
-1.3681e-06
1.29887e-06
7.95027e-06
-1.54499e-06
1.46991e-06
8.03158e-06
-1.73876e-06
1.65745e-06
8.11954e-06
-1.95047e-06
1.8625e-06
8.21459e-06
-2.18113e-06
2.08609e-06
8.31718e-06
-2.43174e-06
2.32915e-06
8.42776e-06
-2.7032e-06
2.59262e-06
8.54682e-06
-2.99638e-06
2.87732e-06
8.6748e-06
-3.31203e-06
3.18405e-06
8.81215e-06
-3.65082e-06
3.51348e-06
8.95924e-06
-4.01329e-06
3.8662e-06
9.1164e-06
-4.39978e-06
4.24262e-06
9.28382e-06
-4.81044e-06
4.64301e-06
9.46154e-06
-5.24507e-06
5.06735e-06
9.64931e-06
-5.70306e-06
5.51529e-06
9.84649e-06
-6.18316e-06
5.98598e-06
1.00518e-05
-6.68321e-06
6.47789e-06
1.02631e-05
-7.19966e-06
6.98843e-06
1.04766e-05
-7.72694e-06
7.51344e-06
1.06867e-05
-8.25664e-06
8.04652e-06
1.08852e-05
-8.77671e-06
8.57815e-06
1.10616e-05
-9.2713e-06
9.09491e-06
1.12039e-05
-9.72179e-06
9.57948e-06
1.13015e-05
-1.01096e-05
1.00121e-05
1.13483e-05
-1.04205e-05
1.03737e-05
1.13456e-05
-1.06477e-05
1.06505e-05
1.13016e-05
-1.07931e-05
1.0837e-05
1.12301e-05
-1.08655e-05
1.0937e-05
1.11459e-05
-1.08763e-05
1.09605e-05
1.1062e-05
-1.08364e-05
1.09202e-05
1.09881e-05
-1.07534e-05
1.08274e-05
1.09296e-05
-1.06311e-05
1.06895e-05
1.0889e-05
-1.04691e-05
1.05097e-05
1.08666e-05
-1.0265e-05
1.02874e-05
1.08624e-05
-1.00164e-05
1.00206e-05
1.0877e-05
-9.72195e-06
9.70739e-06
1.09113e-05
-9.38096e-06
9.34666e-06
1.09653e-05
-8.99129e-06
8.93721e-06
1.10366e-05
-8.5476e-06
8.4763e-06
1.11192e-05
-8.04149e-06
7.95898e-06
1.1204e-05
-7.46407e-06
7.37919e-06
1.12812e-05
-6.80924e-06
6.73211e-06
1.1341e-05
-6.07636e-06
6.01657e-06
1.13754e-05
-5.27101e-06
5.23653e-06
1.13786e-05
-4.40449e-06
4.40135e-06
1.1346e-05
-3.4926e-06
3.52522e-06
1.12744e-05
-2.55451e-06
2.62612e-06
1.11617e-05
-1.61233e-06
1.72502e-06
1.10072e-05
-6.9029e-07
8.44775e-07
1.08121e-05
1.86919e-07
8.12459e-09
1.05805e-05
9.94702e-07
-7.63018e-07
1.03186e-05
1.71224e-06
-1.45041e-06
1.00352e-05
2.32506e-06
-2.04166e-06
9.73983e-06
2.82577e-06
-2.53039e-06
9.44184e-06
3.21406e-06
-2.91608e-06
9.14954e-06
3.49551e-06
-3.2032e-06
8.8695e-06
3.67986e-06
-3.39983e-06
8.60645e-06
3.77931e-06
-3.51627e-06
8.36335e-06
3.80693e-06
-3.56382e-06
8.14165e-06
3.77557e-06
-3.55387e-06
7.94168e-06
3.69722e-06
-3.49724e-06
7.76291e-06
3.58258e-06
-3.40382e-06
7.60431e-06
3.44097e-06
-3.28236e-06
7.46447e-06
3.28029e-06
-3.14046e-06
7.34185e-06
3.10716e-06
-2.98453e-06
7.23482e-06
2.92696e-06
-2.81993e-06
7.14178e-06
2.74405e-06
-2.65101e-06
7.06121e-06
2.56185e-06
-2.48128e-06
6.99165e-06
2.38303e-06
-2.31348e-06
6.93179e-06
2.20959e-06
-2.14973e-06
6.88042e-06
2.04296e-06
-1.99159e-06
6.83645e-06
1.88417e-06
-1.8402e-06
6.79889e-06
1.73387e-06
-1.69631e-06
6.76689e-06
1.59239e-06
-1.56039e-06
6.73968e-06
1.45989e-06
-1.43267e-06
6.71657e-06
1.33632e-06
-1.31321e-06
6.69697e-06
1.22149e-06
-1.20189e-06
6.68037e-06
1.11513e-06
-1.09853e-06
6.66632e-06
1.01691e-06
-1.00285e-06
6.65441e-06
9.26423e-07
-9.14517e-07
6.64431e-06
8.43257e-07
-8.3316e-07
6.63573e-06
7.66978e-07
-7.58395e-07
6.62841e-06
6.9715e-07
-6.89828e-07
6.62213e-06
6.33345e-07
-6.27066e-07
6.61671e-06
5.75145e-07
-5.69722e-07
6.61198e-06
5.22151e-07
-5.17423e-07
6.60781e-06
4.73984e-07
-4.69815e-07
6.60408e-06
4.30287e-07
-4.26562e-07
6.60071e-06
3.90728e-07
-3.8735e-07
6.59759e-06
3.55001e-07
-3.51887e-07
6.59467e-06
3.22825e-07
-3.19905e-07
6.59189e-06
2.93942e-07
-2.91161e-07
6.5892e-06
2.68122e-07
-2.65432e-07
6.58656e-06
2.45159e-07
-2.42521e-07
6.58395e-06
2.24871e-07
-2.22253e-07
6.58132e-06
2.07099e-07
-2.04478e-07
6.57868e-06
1.91708e-07
-1.89066e-07
6.576e-06
1.78589e-07
-1.75911e-07
6.57328e-06
1.67654e-07
-1.6493e-07
6.57051e-06
1.58839e-07
-1.56066e-07
6.56768e-06
1.52105e-07
-1.49281e-07
6.56481e-06
1.47437e-07
-1.44565e-07
6.56189e-06
1.44847e-07
-1.41931e-07
6.55894e-06
1.44369e-07
-1.4142e-07
6.55597e-06
1.46065e-07
-1.43094e-07
6.55299e-06
1.50025e-07
-1.47046e-07
6.55003e-06
1.5636e-07
-1.53392e-07
6.54709e-06
1.65211e-07
-1.62273e-07
6.5442e-06
1.76741e-07
-1.73854e-07
6.54139e-06
1.91136e-07
-1.88326e-07
6.53868e-06
2.08607e-07
-2.05898e-07
6.5361e-06
2.2938e-07
-2.268e-07
6.53368e-06
2.53702e-07
-2.5128e-07
6.53144e-06
2.81835e-07
-2.79599e-07
6.52943e-06
3.14052e-07
-3.12034e-07
6.52766e-06
3.50639e-07
-3.48871e-07
6.52617e-06
3.9189e-07
-3.90404e-07
6.525e-06
4.38107e-07
-4.36938e-07
6.52419e-06
4.89602e-07
-4.88783e-07
6.52375e-06
5.46692e-07
-5.46258e-07
6.52374e-06
6.09704e-07
-6.09692e-07
6.52419e-06
6.78977e-07
-6.79423e-07
6.52513e-06
7.54862e-07
-7.55807e-07
6.52661e-06
8.37731e-07
-8.39214e-07
6.52868e-06
9.27979e-07
-9.30043e-07
6.53137e-06
1.02603e-06
-1.02872e-06
6.53473e-06
1.13234e-06
-1.1357e-06
6.5388e-06
1.24742e-06
-1.2515e-06
6.54365e-06
1.37182e-06
-1.37666e-06
6.54931e-06
1.50616e-06
-1.51182e-06
6.55583e-06
1.65112e-06
-1.65764e-06
6.56326e-06
1.80747e-06
-1.8149e-06
6.57164e-06
1.97608e-06
-1.98446e-06
6.58101e-06
2.15791e-06
-2.16728e-06
6.5914e-06
2.35404e-06
-2.36442e-06
6.60281e-06
2.56571e-06
-2.57712e-06
6.61524e-06
2.7943e-06
-2.80673e-06
6.62866e-06
3.0414e-06
-3.05482e-06
6.64301e-06
3.3088e-06
-3.32316e-06
6.65819e-06
3.59859e-06
-3.61377e-06
6.67406e-06
3.91314e-06
-3.929e-06
6.69038e-06
4.25526e-06
-4.27158e-06
6.70687e-06
4.62821e-06
-4.6447e-06
6.72313e-06
5.0359e-06
-5.05216e-06
6.73862e-06
5.48302e-06
-5.49852e-06
6.75265e-06
5.97531e-06
-5.98933e-06
6.76427e-06
6.51987e-06
-6.53149e-06
6.77227e-06
7.12565e-06
-7.13364e-06
6.77499e-06
7.80417e-06
-7.80689e-06
6.77024e-06
8.57043e-06
-8.56568e-06
6.75497e-06
9.44466e-06
-9.42939e-06
6.725e-06
1.04536e-05
-1.04236e-05
6.67421e-06
1.1637e-05
-1.15862e-05
6.59382e-06
1.30437e-05
-1.29633e-05
6.46734e-06
1.47782e-05
-1.46517e-05
6.26716e-06
1.69099e-05
-1.67097e-05
5.90043e-06
1.99353e-05
-1.95686e-05
5.2315e-06
2.34035e-05
-2.27346e-05
3.06673e-05
-3.04782e-05
5.0424e-06
1.0957e-05
1.04893e-07
1.08761e-05
8.58488e-08
1.07321e-05
3.10428e-08
1.05375e-05
-4.12217e-08
1.02977e-05
-9.3699e-08
1.00267e-05
-1.18102e-07
9.74159e-06
-1.11991e-07
9.45972e-06
-7.90392e-08
9.19635e-06
-2.70388e-08
8.96221e-06
3.54006e-08
8.76215e-06
1.00916e-07
8.59575e-06
1.64601e-07
8.46025e-06
2.21843e-07
8.35207e-06
2.69207e-07
8.26728e-06
3.04676e-07
8.20175e-06
3.27617e-07
8.15145e-06
3.38437e-07
8.1127e-06
3.38087e-07
8.08243e-06
3.27755e-07
8.05821e-06
3.08713e-07
8.03821e-06
2.822e-07
8.02119e-06
2.49344e-07
8.0064e-06
2.1113e-07
7.99352e-06
1.68388e-07
7.98255e-06
1.21792e-07
7.97373e-06
7.18564e-08
7.96742e-06
1.89204e-08
7.96407e-06
-3.68595e-08
7.96409e-06
-9.55084e-08
7.96784e-06
-1.57256e-07
7.9756e-06
-2.22554e-07
7.98762e-06
-2.92038e-07
8.00411e-06
-3.66503e-07
8.02523e-06
-4.46866e-07
8.05114e-06
-5.34132e-07
8.08198e-06
-6.29369e-07
8.1179e-06
-7.33693e-07
8.15906e-06
-8.48254e-07
8.20566e-06
-9.74223e-07
8.25789e-06
-1.11278e-06
8.316e-06
-1.2651e-06
8.38026e-06
-1.43236e-06
8.45097e-06
-1.6157e-06
8.52846e-06
-1.81625e-06
8.61309e-06
-2.0351e-06
8.70525e-06
-2.27329e-06
8.80533e-06
-2.53182e-06
8.91373e-06
-2.81161e-06
9.03088e-06
-3.11352e-06
9.15714e-06
-3.4383e-06
9.29288e-06
-3.78656e-06
9.43837e-06
-4.15878e-06
9.59379e-06
-4.5552e-06
9.75916e-06
-4.9758e-06
9.93423e-06
-5.42014e-06
1.01184e-05
-5.88721e-06
1.03104e-05
-6.3752e-06
1.05082e-05
-6.88101e-06
1.07083e-05
-7.39977e-06
1.09053e-05
-7.92397e-06
1.10915e-05
-8.4428e-06
1.12566e-05
-8.94176e-06
1.13888e-05
-9.40358e-06
1.14776e-05
-9.81057e-06
1.15165e-05
-1.01485e-05
1.15058e-05
-1.04098e-05
1.14533e-05
-1.05953e-05
1.13722e-05
-1.0712e-05
1.1277e-05
-1.07703e-05
1.1181e-05
-1.07802e-05
1.1094e-05
-1.07493e-05
1.10221e-05
-1.06815e-05
1.09682e-05
-1.05772e-05
1.09331e-05
-1.04339e-05
1.09167e-05
-1.02486e-05
1.092e-05
-1.00197e-05
1.09449e-05
-9.74685e-06
1.09932e-05
-9.42923e-06
1.10642e-05
-9.0623e-06
1.11531e-05
-8.6365e-06
1.12509e-05
-8.13934e-06
1.13465e-05
-7.55961e-06
1.14287e-05
-6.89146e-06
1.14887e-05
-6.13631e-06
1.15201e-05
-5.30248e-06
1.15191e-05
-4.40349e-06
1.14829e-05
-3.45634e-06
1.14089e-05
-2.48051e-06
1.12947e-05
-1.49818e-06
1.11384e-05
-5.33999e-07
1.09396e-05
3.85747e-07
1.07008e-05
1.23347e-06
1.04281e-05
1.98499e-06
1.01302e-05
2.6229e-06
9.81783e-06
3.13818e-06
9.50158e-06
3.53031e-06
9.19114e-06
3.80595e-06
8.89422e-06
3.97679e-06
8.61629e-06
4.05724e-06
8.3607e-06
4.06251e-06
8.129e-06
4.00726e-06
7.92139e-06
3.90483e-06
7.73708e-06
3.76688e-06
7.57473e-06
3.60332e-06
7.43262e-06
3.42241e-06
7.30889e-06
3.23088e-06
7.20167e-06
3.03418e-06
7.10914e-06
2.83658e-06