/*--------------------------------*- C++ -*----------------------------------*\
| =========                 |                                                 |
| \\      /  F ield         | OpenFOAM: The Open Source CFD Toolbox           |
|  \\    /   O peration     | Version:  2.4.0                                 |
|   \\  /    A nd           | Web:      www.OpenFOAM.org                      |
|    \\/     M anipulation  |                                                 |
\*---------------------------------------------------------------------------*/
FoamFile
{
    version     2.0;
    format      ascii;
    class       volScalarField;
    location    "0.111";
    object      nuSgs;
}
// * * * * * * * * * * * * * * * * * * * * * * * * * * * * * * * * * * * * * //

dimensions      [0 2 -1 0 0 0 0];

internalField   nonuniform List<scalar> 
17600
(
0.00101313
0.000904348
0.000752851
0.000658118
0.00060948
0.000568113
0.000549784
0.000518241
0.000511526
0.000490193
0.000487497
0.000471507
0.000473769
0.000457091
0.000464174
0.000449123
0.000461621
0.000453714
0.000449026
0.000486291
0.000705836
0.000827543
0.000803628
0.000745727
0.000701273
0.000655002
0.000635845
0.000599327
0.000591093
0.00056743
0.000561307
0.000544999
0.000543652
0.000526544
0.000531948
0.000516603
0.000524693
0.000515338
0.000518774
0.000533947
0.000383026
0.000601692
0.000664894
0.000660573
0.000647013
0.000614371
0.000601731
0.000572065
0.000564368
0.00054474
0.000537747
0.000523262
0.000520704
0.000505678
0.000508355
0.000495769
0.000499967
0.000489353
0.000497153
0.000500886
0.000151847
0.000362767
0.000462791
0.000503886
0.000529554
0.000524211
0.000524339
0.000512546
0.000507565
0.000495897
0.000490208
0.00047939
0.000477586
0.000466296
0.000466579
0.000457719
0.000459464
0.000449255
0.000453623
0.00046067
5.37913e-05
0.000169458
0.000270626
0.000319641
0.000376681
0.000391707
0.000415807
0.000419294
0.000423355
0.000423186
0.000422595
0.000418054
0.000418205
0.000414061
0.000412582
0.000407634
0.000408063
0.000402207
0.00040011
0.00040583
1.74918e-05
6.90582e-05
0.00013095
0.000163962
0.00022154
0.000244528
0.000279248
0.000302228
0.000312203
0.000326252
0.000335304
0.000336552
0.000340857
0.000345717
0.000343941
0.000344968
0.000344549
0.000345442
0.000339971
0.000339363
5.63315e-06
2.64058e-05
5.34292e-05
7.12584e-05
0.000105813
0.000126391
0.000149741
0.000183678
0.00019453
0.00021249
0.000231436
0.000237509
0.000244368
0.000262093
0.000261991
0.000267101
0.000267437
0.000275639
0.000271573
0.000268313
2.43138e-06
1.00916e-05
1.9783e-05
2.70305e-05
4.07995e-05
5.51228e-05
6.58159e-05
9.00751e-05
0.000100471
0.000112888
0.00013321
0.000140749
0.000146422
0.000167837
0.000171303
0.000179746
0.000180148
0.000193932
0.0001923
0.000194071
1.80388e-06
4.21737e-06
8.0405e-06
1.00145e-05
1.38887e-05
2.0391e-05
2.46367e-05
3.61325e-05
4.30704e-05
4.88062e-05
6.26961e-05
6.85961e-05
7.21463e-05
8.78684e-05
9.19261e-05
0.000100103
0.000100422
0.000113486
0.000113428
0.000118987
1.59827e-06
2.28235e-06
5.45388e-06
5.66348e-06
6.49925e-06
8.35715e-06
9.28382e-06
1.3341e-05
1.64368e-05
1.84006e-05
2.50412e-05
2.80665e-05
2.95451e-05
3.79187e-05
4.06032e-05
4.51642e-05
4.55835e-05
5.39394e-05
5.42312e-05
5.71133e-05
1.61925e-06
2.06675e-06
4.63398e-06
4.51291e-06
5.11527e-06
5.47821e-06
5.37944e-06
6.38308e-06
7.06531e-06
7.49988e-06
1.02947e-05
1.12058e-05
1.13848e-05
1.48188e-05
1.57426e-05
1.70155e-05
1.72875e-05
2.14009e-05
2.18496e-05
2.24691e-05
1.7327e-06
1.89684e-06
2.75232e-06
2.78213e-06
3.76661e-06
3.90511e-06
3.90985e-06
4.28686e-06
4.19217e-06
4.25722e-06
5.25221e-06
5.39063e-06
5.41388e-06
6.55157e-06
6.59578e-06
6.7793e-06
7.02929e-06
8.5387e-06
8.90269e-06
9.33884e-06
1.64167e-06
2.25995e-06
2.31025e-06
2.74044e-06
3.19699e-06
3.29862e-06
3.87548e-06
3.94101e-06
3.80382e-06
4.31886e-06
4.32344e-06
4.3665e-06
4.77431e-06
4.87342e-06
4.74123e-06
4.84207e-06
4.93845e-06
5.21981e-06
5.3809e-06
5.97996e-06
1.54208e-06
1.89588e-06
2.00584e-06
2.78808e-06
2.89145e-06
3.0357e-06
3.72408e-06
3.73423e-06
3.82784e-06
3.93364e-06
3.9143e-06
4.03077e-06
4.33992e-06
4.36279e-06
4.4264e-06
4.47943e-06
4.40526e-06
4.40801e-06
4.57844e-06
4.9738e-06
1.56428e-06
1.77415e-06
2.18678e-06
2.55418e-06
2.71405e-06
3.10602e-06
3.16897e-06
3.24865e-06
3.67409e-06
3.60578e-06
3.6215e-06
3.84032e-06
3.82659e-06
3.86849e-06
4.08401e-06
4.06004e-06
3.95505e-06
3.97673e-06
4.10509e-06
4.2986e-06
1.51702e-06
1.70278e-06
2.12297e-06
2.18546e-06
2.26306e-06
2.53326e-06
2.56787e-06
2.78499e-06
2.89761e-06
2.90068e-06
3.04358e-06
3.15646e-06
3.16094e-06
3.30217e-06
3.42936e-06
3.38676e-06
3.36734e-06
3.51082e-06
3.51535e-06
3.5874e-06
1.54005e-06
1.85243e-06
2.12328e-06
2.14669e-06
2.37539e-06
2.39263e-06
2.41996e-06
2.85252e-06
2.83852e-06
2.84252e-06
2.97973e-06
2.95357e-06
2.93076e-06
3.1803e-06
3.20228e-06
3.18202e-06
3.23728e-06
3.29474e-06
3.25135e-06
3.30217e-06
1.52447e-06
1.8302e-06
1.97131e-06
2.08277e-06
2.12962e-06
2.2144e-06
2.34603e-06
2.4761e-06
2.5017e-06
2.54195e-06
2.61118e-06
2.61365e-06
2.63627e-06
2.79014e-06
2.79948e-06
2.82039e-06
2.86386e-06
2.87307e-06
2.87783e-06
2.96108e-06
1.50572e-06
1.70718e-06
1.87539e-06
2.07352e-06
2.16698e-06
2.18843e-06
2.26976e-06
2.38033e-06
2.50704e-06
2.55331e-06
2.57216e-06
2.56457e-06
2.58423e-06
2.60532e-06
2.66078e-06
2.74167e-06
2.7416e-06
2.75496e-06
2.75236e-06
2.80051e-06
1.50436e-06
1.76662e-06
1.84507e-06
1.97271e-06
2.10801e-06
2.19329e-06
2.20835e-06
2.33243e-06
2.39348e-06
2.39829e-06
2.43919e-06
2.4737e-06
2.46752e-06
2.50426e-06
2.53893e-06
2.54533e-06
2.54018e-06
2.55095e-06
2.53411e-06
2.56383e-06
1.50955e-06
1.69074e-06
1.82529e-06
2.16794e-06
2.24463e-06
2.23373e-06
2.27017e-06
2.25607e-06
2.26313e-06
2.30303e-06
2.42262e-06
2.43818e-06
2.4338e-06
2.44503e-06
2.44232e-06
2.42986e-06
2.43191e-06
2.45241e-06
2.46076e-06
2.51021e-06
1.51289e-06
1.64059e-06
1.90737e-06
2.33873e-06
2.29798e-06
2.22607e-06
2.18845e-06
2.16164e-06
2.17604e-06
2.34998e-06
2.414e-06
2.40338e-06
2.39652e-06
2.40008e-06
2.40214e-06
2.39325e-06
2.40799e-06
2.4208e-06
2.45218e-06
2.58217e-06
1.50946e-06
1.66514e-06
2.27045e-06
2.33139e-06
2.21153e-06
2.15848e-06
2.15105e-06
2.17543e-06
2.33231e-06
2.4794e-06
2.46751e-06
2.41884e-06
2.41801e-06
2.4191e-06
2.41053e-06
2.40964e-06
2.4195e-06
2.47049e-06
2.49232e-06
2.55411e-06
1.52108e-06
1.79679e-06
2.25671e-06
2.14355e-06
2.07337e-06
2.17871e-06
2.27655e-06
2.40552e-06
2.56169e-06
2.55651e-06
2.49425e-06
2.45143e-06
2.45408e-06
2.45075e-06
2.45428e-06
2.51191e-06
2.55519e-06
2.64041e-06
2.64871e-06
2.7198e-06
1.52076e-06
1.89661e-06
1.9949e-06
1.97193e-06
2.1695e-06
2.47531e-06
2.50035e-06
2.57254e-06
2.581e-06
2.53299e-06
2.48308e-06
2.46955e-06
2.48545e-06
2.5254e-06
2.61913e-06
2.72342e-06
2.74729e-06
2.75237e-06
2.76287e-06
2.8436e-06
1.52436e-06
1.78373e-06
1.89009e-06
2.19287e-06
2.61012e-06
2.61296e-06
2.53055e-06
2.55209e-06
2.53123e-06
2.52468e-06
2.52686e-06
2.55223e-06
2.66167e-06
2.77604e-06
2.84143e-06
2.91171e-06
2.90709e-06
2.91697e-06
2.97876e-06
3.30348e-06
1.53919e-06
1.7433e-06
2.18305e-06
2.59799e-06
2.60545e-06
2.49941e-06
2.46712e-06
2.55582e-06
2.63348e-06
2.72527e-06
2.76008e-06
2.79535e-06
2.92143e-06
2.97509e-06
3.06762e-06
3.17953e-06
3.21537e-06
3.36418e-06
3.82175e-06
5.10114e-06
1.55131e-06
1.81178e-06
2.42817e-06
2.5074e-06
2.48173e-06
2.47486e-06
2.60463e-06
2.91353e-06
2.99807e-06
2.99857e-06
3.0067e-06
3.05009e-06
3.24555e-06
3.35926e-06
3.69289e-06
4.0662e-06
4.40774e-06
5.36698e-06
7.31464e-06
1.13622e-05
1.56319e-06
1.85611e-06
2.45293e-06
2.47369e-06
2.72766e-06
2.91989e-06
3.30816e-06
3.35142e-06
3.38848e-06
3.46608e-06
3.6201e-06
4.10358e-06
4.94008e-06
5.39837e-06
6.59142e-06
8.10372e-06
9.505e-06
1.28661e-05
1.81891e-05
2.76446e-05
1.59066e-06
1.96272e-06
2.78567e-06
2.94188e-06
3.60614e-06
3.8025e-06
4.22393e-06
4.73742e-06
5.18781e-06
6.55752e-06
7.4668e-06
9.74552e-06
1.19963e-05
1.36618e-05
1.69904e-05
2.18113e-05
2.53049e-05
3.38634e-05
4.39364e-05
6.30381e-05
1.64429e-06
2.39074e-06
3.83486e-06
4.40031e-06
5.77251e-06
6.72792e-06
8.52695e-06
1.1968e-05
1.39403e-05
1.88388e-05
2.15091e-05
2.78966e-05
3.25273e-05
3.77769e-05
4.45176e-05
5.50218e-05
6.12629e-05
7.69858e-05
9.16417e-05
0.00012743
1.75537e-06
4.09866e-06
7.45627e-06
9.72689e-06
1.43191e-05
1.82257e-05
2.46803e-05
3.49796e-05
4.00133e-05
5.17356e-05
5.76464e-05
7.03707e-05
7.90599e-05
8.75019e-05
9.99969e-05
0.000114999
0.000123535
0.000144575
0.000162081
0.000208495
2.33184e-06
9.9388e-06
1.90002e-05
2.64626e-05
4.10833e-05
5.13219e-05
6.92355e-05
8.73595e-05
9.71598e-05
0.000117516
0.000127096
0.000144768
0.000157166
0.000166243
0.000182888
0.000197221
0.000206057
0.00022696
0.000242934
0.000279976
5.57199e-06
2.67625e-05
5.13392e-05
7.07911e-05
0.000105089
0.000123771
0.000156836
0.000177235
0.000194091
0.000216457
0.000228241
0.000242389
0.000254284
0.000260954
0.000274458
0.000282907
0.000289395
0.000304585
0.000315414
0.000339147
1.74402e-05
7.06188e-05
0.000126905
0.000166873
0.000219368
0.000245419
0.00028228
0.000298175
0.000314907
0.000327006
0.000334575
0.000340375
0.000346127
0.000347983
0.00035397
0.000356182
0.000359851
0.000367077
0.000372911
0.000384427
5.36988e-05
0.000173966
0.000266005
0.000325031
0.00037257
0.000394414
0.000415301
0.000418316
0.00042432
0.000423287
0.000423009
0.000420786
0.000419988
0.000416705
0.000417104
0.000414629
0.000415163
0.000414978
0.000416137
0.00041606
0.000151657
0.000364062
0.000460708
0.000506581
0.000527311
0.000526324
0.000523439
0.000512527
0.000507611
0.00049503
0.000490369
0.000480397
0.00047657
0.000468281
0.000465719
0.000458042
0.000455812
0.000449079
0.000444502
0.000435231
0.000382604
0.000602444
0.000664136
0.000661338
0.000645051
0.000618024
0.000597664
0.000574389
0.000564009
0.000543256
0.000536739
0.000522328
0.000516694
0.000505006
0.000499902
0.000487542
0.000482366
0.000467665
0.000456786
0.000438008
0.000705668
0.00082796
0.000803166
0.000746888
0.000698079
0.000659153
0.000630322
0.000602927
0.000589452
0.000565754
0.000558812
0.00054208
0.00053559
0.00052168
0.000514336
0.000497874
0.000489817
0.000467595
0.000449354
0.000418691
0.00101299
0.00090468
0.00075223
0.000659196
0.000606806
0.000571315
0.00054491
0.000520943
0.000508801
0.000488695
0.000482927
0.000467696
0.000461709
0.000448122
0.000440074
0.000421965
0.00041224
0.000386199
0.000362261
0.000324696
0.000209701
0.000176277
0.000166131
0.000141838
0.000122958
0.000110825
9.96649e-05
9.51158e-05
9.56514e-05
9.84528e-05
0.000104234
0.000114905
0.000115197
0.00010621
7.72441e-05
5.33942e-05
3.66127e-05
2.49299e-05
1.91402e-05
1.84017e-05
1.66639e-05
2.04118e-05
2.65446e-05
3.03583e-05
4.68741e-05
7.75625e-05
0.000115957
0.000120779
0.000115981
0.000103444
9.70967e-05
9.17085e-05
8.46963e-05
8.02819e-05
7.10119e-05
6.04097e-05
5.16257e-05
4.4867e-05
4.1296e-05
4.05566e-05
4.07937e-05
4.08595e-05
4.09319e-05
4.12155e-05
4.20231e-05
4.39776e-05
4.76892e-05
4.87996e-05
4.81927e-05
4.35572e-05
3.37278e-05
3.10871e-05
3.19188e-05
3.85254e-05
5.66368e-05
7.32179e-05
8.0569e-05
8.18883e-05
8.12193e-05
7.9677e-05
7.84996e-05
7.88754e-05
7.86618e-05
7.6968e-05
7.13959e-05
6.8009e-05
6.6586e-05
6.57757e-05
6.48291e-05
6.29944e-05
6.05904e-05
5.82261e-05
5.55537e-05
5.23225e-05
4.95493e-05
4.76199e-05
4.66581e-05
4.55785e-05
4.38757e-05
4.23809e-05
4.02505e-05
3.74337e-05
3.55697e-05
3.47954e-05
3.44114e-05
3.43025e-05
3.45586e-05
3.60604e-05
3.69894e-05
3.70621e-05
3.60436e-05
3.41969e-05
3.35523e-05
3.36433e-05
3.46055e-05
3.72002e-05
4.39515e-05
5.46613e-05
5.84852e-05
5.66261e-05
4.90599e-05
4.4072e-05
3.84147e-05
3.50459e-05
3.37116e-05
3.34744e-05
3.38302e-05
3.53931e-05
3.71024e-05
3.89541e-05
3.9458e-05
3.9266e-05
3.88841e-05
3.9059e-05
3.91414e-05
3.88834e-05
3.81809e-05
3.721e-05
3.4513e-05
3.06448e-05
2.88317e-05
2.87699e-05
2.94257e-05
2.92609e-05
2.80908e-05
2.74404e-05
2.75932e-05
2.85255e-05
2.92162e-05
2.91405e-05
2.87888e-05
2.87798e-05
2.92603e-05
3.20899e-05
3.97209e-05
4.43368e-05
4.62398e-05
4.71379e-05
5.04246e-05
5.8371e-05
6.22812e-05
6.22351e-05
5.64189e-05
4.55191e-05
3.75763e-05
3.18371e-05
2.91538e-05
2.90778e-05
2.99657e-05
3.36605e-05
3.92006e-05
4.28983e-05
4.44215e-05
4.55377e-05
4.71503e-05
4.91788e-05
5.20659e-05
5.39376e-05
5.40802e-05
5.20201e-05
4.50311e-05
3.93832e-05
3.47625e-05
3.13717e-05
2.95049e-05
2.89567e-05
2.89405e-05
2.92808e-05
3.04925e-05
3.16813e-05
3.47438e-05
4.0409e-05
4.27856e-05
4.35719e-05
4.37842e-05
4.43228e-05
4.50471e-05
4.60595e-05
4.58783e-05
4.49379e-05
3.90313e-05
3.20207e-05
2.58441e-05
2.15124e-05
1.76407e-05
1.541e-05
1.31663e-05
1.20432e-05
1.08092e-05
1.01708e-05
9.5341e-06
9.08717e-06
9.24358e-06
9.10576e-06
8.77929e-06
9.03578e-06
9.7872e-06
1.25995e-05
3.49202e-05
0.000123701
0.000260615
0.000222061
0.000181159
0.000159671
0.000150007
0.000139648
0.000127284
0.000117105
0.00011361
0.000114006
0.000119566
0.000121973
0.000117439
9.58399e-05
6.60076e-05
4.46938e-05
2.96737e-05
2.19185e-05
1.61549e-05
1.60796e-05
1.5611e-05
1.73378e-05
2.33273e-05
2.64964e-05
3.67019e-05
6.51013e-05
0.000108875
0.000124081
0.000124172
0.000119876
0.000112621
0.000102226
9.2579e-05
8.61284e-05
7.59726e-05
6.38513e-05
5.33992e-05
4.59371e-05
4.21497e-05
4.11395e-05
4.11069e-05
4.1221e-05
4.14232e-05
4.22169e-05
4.35805e-05
4.67833e-05
4.96299e-05
5.02467e-05
4.84782e-05
3.91569e-05
3.2094e-05
3.15659e-05
3.47165e-05
4.73416e-05
6.92968e-05
8.01149e-05
8.35564e-05
8.34319e-05
8.20644e-05
8.17643e-05
8.19315e-05
8.13194e-05
7.96357e-05
7.49929e-05
7.07018e-05
6.85357e-05
6.72055e-05
6.6173e-05
6.50182e-05
6.22804e-05
5.89862e-05
5.592e-05
5.28014e-05
4.968e-05
4.70089e-05
4.51591e-05
4.43294e-05
4.37303e-05
4.258e-05
4.12158e-05
3.92448e-05
3.66727e-05
3.49594e-05
3.42227e-05
3.3892e-05
3.38427e-05
3.41341e-05
3.57747e-05
3.6855e-05
3.70197e-05
3.6218e-05
3.42642e-05
3.3455e-05
3.33987e-05
3.38639e-05
3.55769e-05
4.0161e-05
5.12041e-05
5.68673e-05
5.64112e-05
5.13314e-05
4.52107e-05
3.99926e-05
3.62663e-05
3.51306e-05
3.50045e-05
3.51419e-05
3.58351e-05
3.72908e-05
3.90458e-05
3.94764e-05
3.92197e-05
3.87907e-05
3.89769e-05
3.91052e-05
3.88675e-05
3.81843e-05
3.71533e-05
3.43844e-05
3.03648e-05
2.81986e-05
2.80584e-05
2.91196e-05
2.92227e-05
2.8068e-05
2.70609e-05
2.70556e-05
2.79004e-05
2.91359e-05
2.91967e-05
2.89249e-05
2.88475e-05
2.91645e-05
3.21532e-05
3.94756e-05
4.41344e-05
4.61359e-05
4.72875e-05
5.13847e-05
5.97556e-05
6.43927e-05
6.43458e-05
5.77475e-05
4.59185e-05
3.74813e-05
3.16047e-05
2.86897e-05
2.83969e-05
2.8902e-05
3.11909e-05
3.71685e-05
4.16394e-05
4.35952e-05
4.47492e-05
4.63529e-05
4.84803e-05
5.11853e-05
5.32224e-05
5.35351e-05
5.22509e-05
4.66692e-05
4.04314e-05
3.58205e-05
3.25043e-05
3.00836e-05
2.95707e-05
2.95509e-05
3.00245e-05
3.11743e-05
3.24962e-05
3.59361e-05
4.12802e-05
4.35801e-05
4.37337e-05
4.40361e-05
4.42486e-05
4.50891e-05
4.57102e-05
4.57646e-05
4.51092e-05
4.0095e-05
3.28752e-05
2.6494e-05
2.18703e-05
1.83034e-05
1.54194e-05
1.36755e-05
1.18929e-05
1.11755e-05
1.01588e-05
9.85372e-06
9.37129e-06
9.11237e-06
9.196e-06
9.00412e-06
9.10364e-06
1.06445e-05
1.23281e-05
3.35973e-05
0.000102389
0.000251037
0.000231162
0.000211259
0.000190017
0.000173401
0.000159189
0.000146358
0.000136052
0.000130295
0.000129951
0.00012923
0.000125447
0.000111293
7.91134e-05
5.25678e-05
3.52822e-05
2.38903e-05
1.89601e-05
1.44405e-05
1.46099e-05
1.49547e-05
1.57763e-05
1.89024e-05
2.02539e-05
2.73941e-05
4.88572e-05
8.13117e-05
0.000117625
0.000125001
0.000124471
0.000121015
0.000111124
0.000101158
9.31177e-05
8.18875e-05
6.8361e-05
5.65562e-05
4.86823e-05
4.41434e-05
4.20667e-05
4.17888e-05
4.18808e-05
4.25841e-05
4.41782e-05
4.61474e-05
5.00559e-05
5.17087e-05
5.10992e-05
4.61383e-05
3.45907e-05
3.14329e-05
3.24166e-05
3.99165e-05
6.0913e-05
7.81491e-05
8.36698e-05
8.50346e-05
8.47027e-05
8.41765e-05
8.49335e-05
8.36409e-05
8.16321e-05
7.66451e-05
7.2525e-05
7.02044e-05
6.84294e-05
6.72498e-05
6.61449e-05
6.36713e-05
5.97629e-05
5.62075e-05
5.31172e-05
5.00367e-05
4.7372e-05
4.50889e-05
4.3407e-05
4.26026e-05
4.20495e-05
4.12317e-05
4.02436e-05
3.84795e-05
3.61456e-05
3.45615e-05
3.39166e-05
3.36381e-05
3.35977e-05
3.38635e-05
3.55357e-05
3.67626e-05
3.69803e-05
3.64246e-05
3.44215e-05
3.33209e-05
3.30845e-05
3.32714e-05
3.42933e-05
3.73497e-05
4.66861e-05
5.4893e-05
5.58484e-05
5.36882e-05
4.73136e-05
4.16895e-05
3.79936e-05
3.68153e-05
3.67838e-05
3.68583e-05
3.71431e-05
3.80772e-05
3.92659e-05
3.95283e-05
3.92273e-05
3.89054e-05
3.90602e-05
3.92902e-05
3.89143e-05
3.80472e-05
3.70616e-05
3.4206e-05
3.02539e-05
2.76726e-05
2.73865e-05
2.86547e-05
2.90951e-05
2.81262e-05
2.66352e-05
2.65523e-05
2.71845e-05
2.90253e-05
2.9242e-05
2.91272e-05
2.89892e-05
2.90818e-05
3.21286e-05
3.89135e-05
4.3927e-05
4.61287e-05
4.7667e-05
5.23214e-05
6.09273e-05
6.64842e-05
6.65008e-05
5.95345e-05
4.66744e-05
3.7529e-05
3.15668e-05
2.84467e-05
2.80735e-05
2.84264e-05
2.97805e-05
3.47024e-05
4.00559e-05
4.27864e-05
4.39472e-05
4.55173e-05
4.7664e-05
5.05035e-05
5.23407e-05
5.27548e-05
5.2047e-05
4.77589e-05
4.20544e-05
3.66418e-05
3.31892e-05
3.08849e-05
3.03256e-05
3.03299e-05
3.07356e-05
3.18037e-05
3.32831e-05
3.68781e-05
4.25411e-05
4.39036e-05
4.42041e-05
4.40703e-05
4.44351e-05
4.51485e-05
4.53169e-05
4.57869e-05
4.50464e-05
4.16079e-05
3.32258e-05
2.77048e-05
2.20982e-05
1.89637e-05
1.59014e-05
1.37742e-05
1.23735e-05
1.10492e-05
1.0466e-05
9.77811e-06
9.49568e-06
9.51263e-06
9.31905e-06
9.70454e-06
9.48725e-06
1.14558e-05
1.24938e-05
3.21093e-05
8.14687e-05
0.000235549
0.000214955
0.000207754
0.000197022
0.000184079
0.000174499
0.000161477
0.000150019
0.000141721
0.000136789
0.000131852
0.000121217
9.02772e-05
6.13804e-05
3.98923e-05
2.69435e-05
1.8424e-05
1.49595e-05
1.26476e-05
1.29297e-05
1.47796e-05
1.46881e-05
1.58624e-05
1.73305e-05
2.30728e-05
3.57354e-05
5.58665e-05
8.86712e-05
0.000116726
0.000121059
0.000119154
0.000112597
0.000104317
9.68692e-05
8.6724e-05
7.37844e-05
6.19403e-05
5.35703e-05
4.74549e-05
4.39003e-05
4.31189e-05
4.32633e-05
4.50426e-05
4.68284e-05
5.00381e-05
5.28956e-05
5.36135e-05
5.15788e-05
4.09071e-05
3.23677e-05
3.16799e-05
3.54016e-05
4.92331e-05
7.29335e-05
8.34605e-05
8.57977e-05
8.65381e-05
8.64613e-05
8.75401e-05
8.65749e-05
8.34319e-05
7.81549e-05
7.27901e-05
7.12694e-05
6.92176e-05
6.80217e-05
6.68875e-05
6.43672e-05
6.04664e-05
5.64663e-05
5.28803e-05
4.98037e-05
4.68443e-05
4.49034e-05
4.34413e-05
4.20846e-05
4.16038e-05
4.1091e-05
4.02455e-05
3.95157e-05
3.81638e-05
3.59582e-05
3.44251e-05
3.37967e-05
3.35469e-05
3.35181e-05
3.37456e-05
3.53159e-05
3.66715e-05
3.69612e-05
3.65042e-05
3.45223e-05
3.32147e-05
3.27895e-05
3.28111e-05
3.33127e-05
3.52293e-05
4.20752e-05
5.22443e-05
5.47862e-05
5.39596e-05
5.04132e-05
4.39564e-05
3.9608e-05
3.80346e-05
3.79762e-05
3.80378e-05
3.82949e-05
3.89626e-05
3.96475e-05
3.98469e-05
3.96969e-05
3.95821e-05
3.96772e-05
3.96899e-05
3.87693e-05
3.76454e-05
3.66668e-05
3.39164e-05
3.00661e-05
2.73762e-05
2.68685e-05
2.81105e-05
2.8918e-05
2.8135e-05
2.62976e-05
2.60252e-05
2.64954e-05
2.87372e-05
2.92841e-05
2.93642e-05
2.92146e-05
2.92663e-05
3.25051e-05
3.79366e-05
4.38699e-05
4.63281e-05
4.84624e-05
5.31702e-05
6.17113e-05
6.85968e-05
6.87908e-05
6.17395e-05
4.77368e-05
3.77836e-05
3.17095e-05
2.85065e-05
2.79967e-05
2.81349e-05
2.8924e-05
3.27009e-05
3.84294e-05
4.17336e-05
4.31138e-05
4.43775e-05
4.67722e-05
4.95126e-05
5.15969e-05
5.21311e-05
5.1649e-05
4.82141e-05
4.28645e-05
3.82333e-05
3.40356e-05
3.14453e-05
3.12579e-05
3.12365e-05
3.16084e-05
3.28646e-05
3.44052e-05
3.89115e-05
4.30042e-05
4.45833e-05
4.43934e-05
4.4079e-05
4.46479e-05
4.48682e-05
4.54613e-05
4.51486e-05
4.52164e-05
4.20398e-05
3.55269e-05
2.76953e-05
2.32781e-05
1.88392e-05
1.66231e-05
1.41962e-05
1.24875e-05
1.15541e-05
1.04459e-05
1.01696e-05
9.54385e-06
9.56165e-06
9.59845e-06
1.00172e-05
9.71178e-06
1.40113e-05
1.3309e-05
2.86913e-05
6.44184e-05
0.000213034
0.000198635
0.00019074
0.000183784
0.000173248
0.000167559
0.000159262
0.000148948
0.000141186
0.000134619
0.000124084
9.73097e-05
6.82217e-05
4.38909e-05
2.82476e-05
2.03329e-05
1.50662e-05
1.23154e-05
1.13793e-05
1.11027e-05
1.40127e-05
1.40115e-05
1.40284e-05
1.48859e-05
1.84622e-05
2.74126e-05
3.90862e-05
5.57229e-05
8.27101e-05
9.26975e-05
9.92345e-05
0.000102011
9.9952e-05
9.48151e-05
8.81684e-05
7.74351e-05
6.69039e-05
5.86466e-05
5.14542e-05
4.67266e-05
4.56091e-05
4.60365e-05
4.82637e-05
5.01734e-05
5.36957e-05
5.52974e-05
5.45184e-05
4.86699e-05
3.50766e-05
3.13957e-05
3.26013e-05
4.11942e-05
6.33939e-05
8.09412e-05
8.64917e-05
8.7161e-05
8.82939e-05
8.96591e-05
8.93096e-05
8.63644e-05
7.77817e-05
7.39326e-05
7.10441e-05
6.9943e-05
6.83591e-05
6.71043e-05
6.44917e-05
6.11558e-05
5.6691e-05
5.19279e-05
4.78163e-05
4.46672e-05
4.25847e-05
4.16106e-05
4.14193e-05
4.09873e-05
4.04466e-05
4.01682e-05
3.94842e-05
3.89722e-05
3.79615e-05
3.6007e-05
3.44589e-05
3.38084e-05
3.35466e-05
3.35192e-05
3.36921e-05
3.51059e-05
3.65829e-05
3.69132e-05
3.65651e-05
3.46104e-05
3.31168e-05
3.2464e-05
3.23305e-05
3.25323e-05
3.35707e-05
3.77694e-05
4.83698e-05
5.34341e-05
5.35986e-05
5.21993e-05
4.76778e-05
4.28885e-05
4.01233e-05
3.96026e-05
3.95018e-05
3.96963e-05
4.00517e-05
4.03623e-05
4.06877e-05
4.0825e-05
4.06829e-05
4.05305e-05
4.00671e-05
3.82345e-05
3.69286e-05
3.5973e-05
3.33624e-05
2.97425e-05
2.7132e-05
2.65041e-05
2.75758e-05
2.86581e-05
2.81302e-05
2.5992e-05
2.55256e-05
2.5825e-05
2.82135e-05
2.93151e-05
2.96778e-05
2.95326e-05
2.96282e-05
3.30989e-05
3.71312e-05
4.39107e-05
4.6818e-05
4.98723e-05
5.37539e-05
6.20088e-05
7.08134e-05
7.11963e-05
6.41988e-05
4.90117e-05
3.83621e-05
3.18443e-05
2.86384e-05
2.81178e-05
2.82185e-05
2.8494e-05
3.06957e-05
3.67966e-05
4.06708e-05
4.21278e-05
4.34002e-05
4.56376e-05
4.86247e-05
5.07579e-05
5.15433e-05
5.13516e-05
4.91928e-05
4.35835e-05
3.88107e-05
3.611e-05
3.28224e-05
3.24591e-05
3.24132e-05
3.28196e-05
3.38162e-05
3.57016e-05
4.03689e-05
4.38166e-05
4.48995e-05
4.44987e-05
4.42309e-05
4.44079e-05
4.52488e-05
4.4927e-05
4.5212e-05
4.48371e-05
4.35626e-05
3.60241e-05
2.96571e-05
2.31671e-05
2.01235e-05
1.65101e-05
1.52577e-05
1.29326e-05
1.17859e-05
1.08503e-05
1.02174e-05
1.00938e-05
9.86674e-06
9.65028e-06
1.1704e-05
1.07655e-05
1.74207e-05
1.49841e-05
2.65163e-05
5.16213e-05
0.000181711
0.000177564
0.000168955
0.000162665
0.000153952
0.000145187
0.000139102
0.000128587
0.000121114
0.000114064
9.4584e-05
6.83911e-05
4.56532e-05
2.96466e-05
2.04157e-05
1.5573e-05
1.19989e-05
1.02195e-05
1.01623e-05
1.01051e-05
1.26647e-05
1.32857e-05
1.28253e-05
1.33207e-05
1.53868e-05
2.34747e-05
2.97229e-05
3.6416e-05
5.04236e-05
5.38114e-05
5.55278e-05
6.87788e-05
7.99702e-05
8.34788e-05
8.31551e-05
7.97345e-05
7.16222e-05
6.34826e-05
5.5377e-05
5.01392e-05
4.92061e-05
5.01093e-05
5.18968e-05
5.46464e-05
5.71137e-05
5.75445e-05
5.48638e-05
4.19127e-05
3.21968e-05
3.13028e-05
3.5899e-05
5.11369e-05
7.46461e-05
8.61926e-05
8.81374e-05
8.87461e-05
9.13503e-05
9.16499e-05
8.94172e-05
8.00529e-05
7.3873e-05
7.22505e-05
6.92134e-05
6.88387e-05
6.71118e-05
6.48724e-05
6.12759e-05
5.6719e-05
5.07583e-05
4.55442e-05
4.25186e-05
4.07046e-05
3.92768e-05
3.89124e-05
3.90855e-05
3.94564e-05
3.9499e-05
3.91737e-05
3.867e-05
3.83802e-05
3.78075e-05
3.6307e-05
3.48886e-05
3.414e-05
3.37397e-05
3.36354e-05
3.37588e-05
3.4986e-05
3.65185e-05
3.69043e-05
3.66421e-05
3.47689e-05
3.30342e-05
3.21668e-05
3.18329e-05
3.18861e-05
3.23567e-05
3.47006e-05
4.35914e-05
5.13348e-05
5.28049e-05
5.22629e-05
5.01618e-05
4.61316e-05
4.31007e-05
4.20191e-05
4.14379e-05
4.13856e-05
4.13013e-05
4.12669e-05
4.15907e-05
4.19818e-05
4.17538e-05
4.11433e-05
3.99788e-05
3.73837e-05
3.60739e-05
3.5176e-05
3.27032e-05
2.92596e-05
2.68409e-05
2.61305e-05
2.69411e-05
2.82536e-05
2.79357e-05
2.58322e-05
2.51429e-05
2.52759e-05
2.75304e-05
2.93771e-05
3.00938e-05
2.99652e-05
3.01508e-05
3.33923e-05
3.66795e-05
4.44504e-05
4.75116e-05
5.18358e-05
5.44399e-05
6.19596e-05
7.3235e-05
7.36593e-05
6.67972e-05
5.05811e-05
3.88434e-05
3.20586e-05
2.87059e-05
2.8015e-05
2.81684e-05
2.8437e-05
2.96594e-05
3.49191e-05
3.94101e-05
4.12396e-05
4.24703e-05
4.4588e-05
4.72746e-05
4.97677e-05
5.07331e-05
5.07012e-05
4.9608e-05
4.56928e-05
3.97496e-05
3.69848e-05
3.45249e-05
3.37211e-05
3.37774e-05
3.4194e-05
3.5114e-05
3.82103e-05
4.20756e-05
4.48985e-05
4.51633e-05
4.47363e-05
4.40625e-05
4.46938e-05
4.51035e-05
4.50686e-05
4.50247e-05
4.48559e-05
4.41928e-05
3.8775e-05
3.11661e-05
2.48248e-05
2.00558e-05
1.76027e-05
1.50306e-05
1.43129e-05
1.2563e-05
1.11941e-05
1.0624e-05
1.022e-05
1.14033e-05
1.04881e-05
1.35478e-05
1.18391e-05
2.12621e-05
1.71452e-05
2.36981e-05
4.23362e-05
0.000143179
0.000142675
0.00013848
0.000132411
0.000126977
0.000116629
0.000111056
0.000102168
9.58892e-05
8.48273e-05
6.31115e-05
4.45956e-05
2.98584e-05
1.99654e-05
1.49564e-05
1.24218e-05
1.00062e-05
9.15101e-06
9.38902e-06
9.8806e-06
1.11389e-05
1.21076e-05
1.17203e-05
1.20956e-05
1.38313e-05
2.03233e-05
2.42555e-05
2.84535e-05
3.2812e-05
3.14892e-05
3.10405e-05
4.05137e-05
5.86079e-05
6.93061e-05
7.5254e-05
7.57391e-05
7.37793e-05
6.66979e-05
5.88199e-05
5.43977e-05
5.38596e-05
5.4699e-05
5.62775e-05
5.88241e-05
6.02252e-05
5.88263e-05
5.04814e-05
3.49688e-05
3.08784e-05
3.23103e-05
4.27272e-05
6.55905e-05
8.23265e-05
8.87434e-05
8.92216e-05
9.07266e-05
9.41688e-05
9.22501e-05
8.43183e-05
7.47212e-05
7.244e-05
7.02877e-05
6.87289e-05
6.81321e-05
6.46842e-05
6.12557e-05
5.55079e-05
5.01735e-05
4.56612e-05
4.25919e-05
4.07331e-05
3.96161e-05
3.85319e-05
3.78074e-05
3.77421e-05
3.82086e-05
3.86043e-05
3.84203e-05
3.78477e-05
3.7733e-05
3.75816e-05
3.66104e-05
3.53325e-05
3.46421e-05
3.41103e-05
3.38704e-05
3.3913e-05
3.49811e-05
3.65097e-05
3.69137e-05
3.66998e-05
3.49218e-05
3.29806e-05
3.19654e-05
3.13823e-05
3.12784e-05
3.14236e-05
3.25993e-05
3.76456e-05
4.8114e-05
5.1825e-05
5.19269e-05
5.11294e-05
4.87907e-05
4.60883e-05
4.46019e-05
4.37562e-05
4.33314e-05
4.25856e-05
4.23531e-05
4.27101e-05
4.30049e-05
4.23773e-05
4.13643e-05
3.92784e-05
3.64588e-05
3.53016e-05
3.43758e-05
3.18545e-05
2.86207e-05
2.64963e-05
2.58619e-05
2.64382e-05
2.78111e-05
2.76449e-05
2.56477e-05
2.46817e-05
2.47294e-05
2.66967e-05
2.93918e-05
3.0546e-05
3.04292e-05
3.06891e-05
3.33005e-05
3.66221e-05
4.5152e-05
4.81262e-05
5.38508e-05
5.50501e-05
6.1784e-05
7.55064e-05
7.58669e-05
6.94975e-05
5.25356e-05
3.97325e-05
3.22535e-05
2.8696e-05
2.81392e-05
2.8158e-05
2.82088e-05
2.89362e-05
3.34624e-05
3.80813e-05
4.02478e-05
4.1789e-05
4.38674e-05
4.64388e-05
4.87504e-05
4.9989e-05
5.01063e-05
4.94637e-05
4.6506e-05
4.25084e-05
3.84251e-05
3.54418e-05
3.53351e-05
3.53078e-05
3.57286e-05
3.66929e-05
4.10206e-05
4.35626e-05
4.53975e-05
4.5398e-05
4.46671e-05
4.43828e-05
4.46263e-05
4.51256e-05
4.54711e-05
4.45207e-05
4.55209e-05
4.48871e-05
4.28247e-05
3.36866e-05
2.74741e-05
2.16641e-05
1.80225e-05
1.57683e-05
1.39242e-05
1.41079e-05
1.24697e-05
1.28325e-05
1.15076e-05
1.30099e-05
1.14623e-05
1.77834e-05
1.46789e-05
3.16339e-05
2.21953e-05
2.35754e-05
3.51345e-05
0.000104121
0.000102907
9.77071e-05
8.84939e-05
8.50147e-05
7.71631e-05
7.28498e-05
6.8374e-05
6.04348e-05
4.91081e-05
3.6981e-05
2.7033e-05
1.86046e-05
1.33197e-05
1.09217e-05
9.49437e-06
8.30921e-06
8.05675e-06
8.65711e-06
1.00382e-05
1.09603e-05
1.1115e-05
1.07582e-05
1.09886e-05
1.25559e-05
1.63155e-05
2.20274e-05
2.47589e-05
2.48939e-05
2.15956e-05
2.04919e-05
3.09729e-05
5.55748e-05
6.56402e-05
7.07696e-05
7.27278e-05
7.25531e-05
6.89548e-05
6.24921e-05
5.89752e-05
5.86571e-05
5.92022e-05
6.08336e-05
6.27552e-05
6.202e-05
5.80587e-05
4.17543e-05
3.14587e-05
3.06426e-05
3.598e-05
5.45702e-05
7.58927e-05
8.73343e-05
8.99475e-05
9.03184e-05
9.40268e-05
9.50168e-05
8.91783e-05
7.91766e-05
7.27781e-05
7.1625e-05
6.90983e-05
6.8589e-05
6.59814e-05
5.93134e-05
5.47561e-05
5.03809e-05
4.73072e-05
4.38493e-05
4.16934e-05
4.03357e-05
3.93777e-05
3.84824e-05
3.75673e-05
3.71936e-05
3.72953e-05
3.77435e-05
3.76714e-05
3.71127e-05
3.7139e-05
3.71736e-05
3.67884e-05
3.5767e-05
3.5164e-05
3.44525e-05
3.40915e-05
3.40863e-05
3.5021e-05
3.65213e-05
3.69416e-05
3.67583e-05
3.51031e-05
3.29158e-05
3.17686e-05
3.09741e-05
3.06308e-05
3.06529e-05
3.1168e-05
3.38663e-05
4.27107e-05
4.98739e-05
5.12407e-05
5.09881e-05
5.00452e-05
4.82817e-05
4.66256e-05
4.58761e-05
4.50296e-05
4.38107e-05
4.35667e-05
4.39837e-05
4.40235e-05
4.27607e-05
4.08318e-05
3.79469e-05
3.53229e-05
3.4323e-05
3.33571e-05
3.0759e-05
2.78625e-05
2.61242e-05
2.56875e-05
2.61015e-05
2.73431e-05
2.72942e-05
2.53833e-05
2.42649e-05
2.42019e-05
2.56624e-05
2.92939e-05
3.09568e-05
3.08966e-05
3.12272e-05
3.27974e-05
3.64737e-05
4.58547e-05
4.87648e-05
5.46604e-05
5.53883e-05
6.17914e-05
7.66543e-05
7.73286e-05
7.25033e-05
5.5284e-05
4.09908e-05
3.27169e-05
2.85845e-05
2.77929e-05
2.80842e-05
2.81385e-05
2.84382e-05
3.18855e-05
3.69471e-05
3.92994e-05
4.10264e-05
4.31071e-05
4.57779e-05
4.8243e-05
4.96054e-05
4.98487e-05
4.95675e-05
4.78099e-05
4.35319e-05
4.18538e-05
3.78858e-05
3.70773e-05
3.71946e-05
3.73757e-05
3.90127e-05
4.26718e-05
4.43275e-05
4.55317e-05
4.53109e-05
4.46961e-05
4.42958e-05
4.40495e-05
4.55706e-05
4.45274e-05
4.48732e-05
4.35954e-05
4.62683e-05
4.56955e-05
4.369e-05
3.20908e-05
2.68627e-05
1.99729e-05
1.82389e-05
1.50145e-05
1.51202e-05
1.3787e-05
1.45207e-05
1.27376e-05
1.90368e-05
1.55226e-05
3.32387e-05
2.19219e-05
3.16022e-05
2.93105e-05
2.59546e-05
3.14668e-05
6.36738e-05
6.2121e-05
5.73895e-05
4.97693e-05
4.7406e-05
4.29167e-05
4.04608e-05
3.71089e-05
3.18962e-05
2.63219e-05
2.10086e-05
1.58184e-05
1.13622e-05
9.18551e-06
8.31692e-06
7.82388e-06
7.49034e-06
7.53086e-06
8.36397e-06
9.97824e-06
1.104e-05
1.10319e-05
1.04929e-05
1.04203e-05
1.12884e-05
1.41877e-05
1.85618e-05
2.01723e-05
1.97697e-05
1.67134e-05
1.49309e-05
2.57558e-05
5.29947e-05
6.52992e-05
7.09664e-05
7.24514e-05
7.26137e-05
7.12277e-05
6.67788e-05
6.38561e-05
6.36363e-05
6.41856e-05
6.5722e-05
6.55453e-05
6.28178e-05
5.06983e-05
3.40315e-05
2.98563e-05