/*--------------------------------*- C++ -*----------------------------------*\
| =========                 |                                                 |
| \\      /  F ield         | OpenFOAM: The Open Source CFD Toolbox           |
|  \\    /   O peration     | Version:  2.4.0                                 |
|   \\  /    A nd           | Web:      www.OpenFOAM.org                      |
|    \\/     M anipulation  |                                                 |
\*---------------------------------------------------------------------------*/
FoamFile
{
    version     2.0;
    format      ascii;
    class       volScalarField;
    location    "0.005";
    object      omega;
}
// * * * * * * * * * * * * * * * * * * * * * * * * * * * * * * * * * * * * * //

dimensions      [0 0 -1 0 0 0 0];

internalField   nonuniform List<scalar> 
17600
(
2323.53
4272.22
5441.76
6009.83
6224.98
6258.62
6208.86
6126.23
6034.74
5945.02
5861.25
5784.65
5715.12
5652.01
5594.43
5541.45
5491.39
5443.69
5384.49
5383.64
1029.97
1574.86
1998.09
2317.1
2533.84
2671.45
2754.99
2803.45
2829.76
2842.32
2846.43
2845.34
2841.09
2834.94
2827.72
2819.95
2812.33
2805.74
2809.02
2909.12
399.885
689.517
909.323
1086.82
1226.51
1333.89
1416.11
1479.45
1528.85
1568.01
1599.56
1625.37
1646.77
1664.68
1679.89
1693
1704.97
1717.22
1738.05
1820.31
169.497
323.966
452.726
561.566
652.765
728.323
791.022
843.479
887.938
926.213
959.703
989.442
1016.19
1040.48
1062.78
1083.48
1103.31
1123.52
1150.04
1211.81
85.3309
166.6
242.254
310.307
370.396
422.706
468.16
507.821
542.726
573.812
601.874
627.557
651.369
673.702
694.892
715.245
735.321
756.138
781.747
827.866
52.1437
96.3294
141.105
183.819
223.37
259.261
291.596
320.696
346.978
370.881
392.827
413.197
432.327
450.5
467.985
485.045
502.139
520.064
541.562
575.249
37.452
62.9578
90.2904
117.563
143.811
168.464
191.353
212.493
232.003
250.058
266.858
282.607
297.503
311.734
325.496
338.995
352.59
366.877
383.683
407.772
30.1713
45.8237
63.2541
81.2106
98.9989
116.162
132.491
147.9
162.389
176.007
188.834
200.97
212.521
223.601
234.34
244.885
255.498
266.606
279.403
296.541
26.2254
36.3246
47.9383
60.1933
72.5978
84.8162
96.6663
108.049
118.921
129.281
139.151
148.573
157.6
166.297
174.743
183.04
191.368
200.023
209.779
222.125
23.9445
30.7042
38.7365
47.3929
56.3092
65.2376
74.0322
82.6034
90.901
98.9026
106.606
114.022
121.177
128.102
134.847
141.477
148.115
154.963
162.521
171.636
22.5656
27.2062
32.9252
39.2236
45.8173
52.5157
59.2024
65.801
72.2637
78.5623
84.6835
90.6254
96.3956
102.01
107.497
112.897
118.294
123.826
129.817
136.755
21.706
24.9461
29.1072
33.8024
38.8024
43.9541
49.1616
54.3597
59.5048
64.5679
69.5315
74.3868
79.1324
83.7742
88.3271
92.817
97.3002
101.87
106.74
112.194
21.1585
23.4468
26.5231
30.0931
33.9688
38.0229
42.1734
46.3633
50.5525
54.7126
58.8244
62.8754
66.8597
70.7767
74.6334
78.4455
82.2504
86.112
90.1729
94.5956
20.8049
22.4344
24.7379
27.4985
30.563
33.8232
37.2068
40.6619
44.1511
47.6465
51.1281
54.5817
57.9982
61.3734
64.7091
68.014
71.3128
74.6492
78.1191
81.8136
20.5744
21.7442
23.4899
25.6595
28.1303
30.8091
33.6305
36.5462
39.5201
42.5248
45.5395
48.5487
51.5418
54.5121
57.4578
60.3829
63.3033
66.2485
69.2838
72.456
20.4239
21.2729
22.6154
24.3523
26.387
28.639
31.0481
33.5683
36.1639
38.8076
41.478
44.159
46.8385
49.5082
52.164
54.8064
57.4452
60.0999
62.8149
65.6092
20.3261
20.9543
22.0095
23.4335
25.1519
27.0947
29.2058
31.4401
33.7624
36.145
38.5662
41.009
43.4606
45.9114
48.3557
50.7916
53.2242
55.666
58.147
60.668
20.2643
20.7457
21.6039
22.8104
24.3084
26.0359
27.9396
29.9755
32.1082
34.3097
36.5577
38.8349
41.1277
43.4258
45.7222
48.0131
50.3004
52.591
54.9053
57.2315
20.2281
20.6198
21.3549
22.424
23.7822
25.3732
27.1459
29.0564
31.0695
33.1566
35.2953
37.4678
39.66
41.8611
44.0632
46.261
48.454
50.6449
52.847
55.0402
20.2113
20.5606
21.2365
22.2389
23.5293
25.0541
26.7632
28.6131
30.5682
32.5999
34.6857
36.8073
38.9505
41.104
43.2593
45.4099
47.5534
49.6892
51.826
53.9367
20.2113
20.5606
21.2365
22.2389
23.5293
25.0541
26.7632
28.613
30.5681
32.5998
34.6854
36.8067
38.9493
41.1016
43.2546
45.4009
47.5367
49.6586
51.7719
53.8444
20.2281
20.6198
21.3549
22.4239
23.7822
25.3732
27.1458
29.0563
31.0693
33.1562
35.2944
37.466
39.6564
41.8539
44.0493
46.2341
48.4032
50.5512
52.6814
54.7568
20.2643
20.7457
21.6039
22.8104
24.3084
26.0358
27.9395
29.9753
32.1078
34.3089
36.5562
38.8318
41.1215
43.4135
45.6985
47.9675
50.2136
52.4293
54.6174
56.7365
20.3261
20.9543
22.0095
23.4335
25.1519
27.0947
29.2057
31.4398
33.7619
36.1439
38.5639
41.0044
43.4514
45.8934
48.3209
50.7248
53.0977
55.4269
57.7178
59.9239
20.4239
21.2729
22.6154
24.3523
26.3869
28.6389
31.048
33.5679
36.1632
38.806
41.4748
44.1526
46.8258
49.4833
52.116
54.7143
57.2707
59.7697
62.2148
64.5564
20.5744
21.7442
23.4899
25.6595
28.1303
30.809
33.6303
36.5458
39.5191
42.5227
45.5352
48.5401
51.5248
54.4787
57.3933
60.2592
63.0688
65.8052
68.4688
71.0033
20.8049
22.4344
24.7379
27.4985
30.563
33.8231
37.2065
40.6613
44.1497
47.6437
51.1224
54.5702
57.9755
61.329
64.6234
67.8496
71.0007
74.0578
77.0258
79.8231
21.1585
23.4468
26.5231
30.0931
33.9687
38.0227
42.173
46.3625
50.5507
54.7089
58.8167
62.8601
66.8294
70.7176
74.5195
78.2271
81.835
85.3219
88.6987
91.8569
21.706
24.9461
29.1072
33.8024
38.8023
43.9539
49.161
54.3586
59.5023
64.5629
69.5212
74.3662
79.0919
83.6952
88.1749
92.5255
96.7445
100.808
104.734
108.389
22.5656
27.2062
32.9252
39.2235
45.8172
52.5154
59.2016
65.7994
72.2604
78.5554
84.6695
90.5975
96.3408
101.904
107.292
112.505
117.545
122.385
127.056
131.4
23.9445
30.7042
38.7365
47.3928
56.309
65.2371
74.0312
82.6012
90.8964
98.893
106.586
113.984
121.102
127.957
134.569
140.944
147.095
152.991
158.678
163.953
26.2254
36.3245
47.9383
60.1932
72.5975
84.8156
96.6648
108.045
118.915
129.268
139.124
148.52
157.497
166.097
174.362
182.312
189.972
197.306
204.382
210.926
30.1713
45.8237
63.2541
81.2105
98.9985
116.161
132.488
147.895
162.379
175.988
188.796
200.895
212.377
223.326
233.816
243.889
253.587
262.864
271.811
280.047
37.452
62.9577
90.2904
117.563
143.811
168.463
191.35
212.486
231.989
250.031
266.805
282.504
297.304
311.356
324.781
337.643
350.003
361.789
373.117
383.451
52.1437
96.3294
141.105
183.819
223.369
259.259
291.591
320.687
346.959
370.843
392.753
413.056
432.057
449.992
467.032
483.261
498.741
513.364
527.266
539.724
85.3309
166.599
242.254
310.307
370.395
422.703
468.153
507.807
542.699
573.76
601.775
627.37
651.018
673.05
693.686
713.015
731.109
747.822
763.348
776.789
169.497
323.966
452.725
561.565
652.763
728.319
791.013
843.461
887.903
926.148
959.58
989.215
1015.77
1039.72
1061.39
1080.96
1098.57
1114.13
1128.01
1139.23
399.885
689.517
909.323
1086.82
1226.51
1333.89
1416.1
1479.43
1528.82
1567.94
1599.44
1625.15
1646.35
1663.95
1678.58
1690.64
1700.55
1708.35
1714.67
1718.48
1029.97
1574.86
1998.09
2317.1
2533.84
2671.45
2754.99
2803.43
2829.74
2842.29
2846.37
2845.24
2840.92
2834.65
2827.21
2819.06
2810.62
2801.91
2793.65
2784.66
2323.53
4272.22
5441.76
6009.84
6224.99
6258.63
6208.88
6126.27
6034.81
5945.15
5861.51
5785.13
5716.02
5653.66
5597.47
5546.95
5501.67
5461.66
5426.78
5396.64
4780.34
4350.98
3913.18
3546.03
3247.97
3003.41
2799.17
2625.62
2476.01
2345.54
2230.69
2128.75
2037.65
1955.71
1881.6
1814.22
1752.66
1696.17
1644.12
1595.96
1551.23
1509.56
1470.61
1434.08
1399.73
1367.34
1336.71
1307.68
1280.09
1253.81
1228.72
1204.7
1181.66
1159.5
1138.14
1117.5
1097.52
1078.15
1059.32
1040.99
1023.14
1005.73
988.731
972.132
955.911
940.044
924.509
909.273
894.301
879.547
864.956
850.468
836.012
821.514
806.894
792.071
776.962
761.49
745.583
729.176
712.219
694.676
676.528
657.777
638.444
618.574
598.231
577.499
556.482
535.296
514.069
492.937
472.036
451.502
431.465
412.042
393.342
375.454
358.453
342.396
327.322
313.253
300.193
288.136
277.058
266.929
257.708
249.348
241.795
234.996
228.894
223.432
218.555
214.207
210.337
206.897
203.839
201.122
198.706
196.555
194.637
192.92
191.379
189.99
188.73
187.581
186.526
185.548
184.636
183.777
182.961
182.179
181.423
180.686
179.962
179.247
178.535
177.824
177.109
176.389
175.66
174.922
174.173
173.411
172.636
171.847
171.044
170.225
169.391
168.539
167.668
166.776
165.861
164.917
163.94
162.922
161.853
160.723
159.52
158.23
156.841
155.34
153.72
151.975
150.107
148.125
146.045
143.89
141.687
139.465
137.256
135.086
132.977
130.948
129.012
127.175
125.441
123.809
122.278
120.844
119.5
118.243
117.067
115.967
114.94
113.983
113.093
112.271
111.516
110.832
110.223
109.694
109.255
108.916
108.692
108.603
108.673
108.931
109.418
110.182
111.285
112.807
114.852
117.55
121.073
125.646
131.561
139.206
149.096
161.93
178.672
200.69
229.972
269.465
323.578
399.055
507.974
683.388
1085.68
2796.22
2966.86
3066.24
3107.52
3084.5
3000.65
2881.67
2749.25
2616.56
2490.1
2372.49
2264.33
2165.3
2074.71
1991.79
1915.74
1845.84
1781.44
1721.95
1666.86
1615.72
1568.13
1523.74
1482.26
1443.4
1406.93
1372.64
1340.33
1309.83
1280.98
1253.64
1227.67
1202.95
1179.36
1156.79
1135.15
1114.32
1094.24
1074.8
1055.95
1037.61
1019.73
1002.26
985.149
968.361
951.862
935.62
919.601
903.772
888.093
872.521
857.007
841.497
825.931
810.245
794.372
778.245
761.799
744.971
727.708
709.965
691.709
672.926
653.615
633.796
613.509
592.813
571.787
550.524
529.136
507.743
486.473
465.459
444.831
424.714
405.227
386.474
368.546
351.518
335.447
320.374
306.322
293.297
281.292
270.286
260.247
251.134
242.9
235.49
228.849
222.92
217.642
212.96
208.816
205.159
201.936
199.1
196.608
194.419
192.494
190.802
189.309
187.99
186.819
185.773
184.834
183.983
183.205
182.486
181.815
181.181
180.575
179.989
179.416
178.851
178.288
177.723
177.152
176.573
175.982
175.378
174.759
174.124
173.471
172.8
172.11
171.4
170.672
169.924
169.155
168.366
167.555
166.721
165.862
164.974
164.053
163.092
162.084
161.017
159.883
158.667
157.359
155.946
154.419
152.772
151.004
149.122
147.137
145.069
142.942
140.784
138.623
136.486
134.396
132.372
130.428
128.573
126.814
125.15
123.582
122.106
120.719
119.416
118.193
117.044
115.967
114.959
114.017
113.141
112.331
111.59
110.921
110.33
109.825
109.416
109.118
108.948
108.931
109.094
109.476
110.125
111.099
112.478
114.36
116.875
120.191
124.527
130.173
137.509
147.044
159.469
175.736
197.196
225.816
264.516
317.691
392.153
500.159
675.349
1056.05
2408.31
1853.78
1916.07
1986.46
2056.93
2123.17
2170.01
2187.78
2178.18
2147.55
2102.6
2048.97
1990.85
1931.12
1871.62
1813.49
1757.41
1703.75
1652.66
1604.2
1558.34
1515
1474.07
1435.43
1398.97
1364.55
1332.05
1301.35
1272.32
1244.84
1218.81
1194.1
1170.62
1148.24
1126.87
1106.4
1086.74
1067.78
1049.45
1031.64
1014.3
997.336
980.693
964.311
948.139
932.131
916.245
900.442
884.683
868.931
853.145
837.282
821.298
805.143
788.768
772.123
755.158
737.825
720.085
701.903
683.256
664.135
644.544
624.503
604.053
583.248
562.163
540.888
519.525
498.189
477.002
456.089
435.577
415.586
396.231
377.616
359.828
342.944
327.021
312.1
298.205
285.344
273.509
262.682
252.831
243.914
235.885
228.689
222.27
216.569
211.527
207.085
203.186
199.776
196.803
194.218
191.976
190.036
188.36
186.912
185.661
184.578
183.639
182.82
182.101
181.464
180.894
180.376
179.899
179.452
179.026
178.614
178.207
177.802
177.392
176.974
176.544
176.1
175.639
175.158
174.658
174.135
173.59
173.022
172.43
171.814
171.175
170.511
169.824
169.114
168.379
167.62
166.837
166.027
165.189
164.319
163.41
162.457
161.45
160.381
159.238
158.01
156.684
155.253
153.707
152.045
150.27
148.389
146.419
144.38
142.296
140.194
138.099
136.035
134.022
132.076
130.207
128.424
126.729
125.123
123.605
122.173
120.822
119.548
118.348
117.219
116.157
115.16
114.229
113.362
112.562
111.832
111.177
110.605
110.125
109.752
109.502
109.397
109.467
109.745
110.28
111.128
112.365
114.088
116.423
119.534
123.636
129.013
136.041
145.219
157.227
172.998
193.856
221.723
259.447
311.302
383.935
489.164
658.312
1002.56
2034.28
1232.13
1260.73
1294.35
1333.24
1378.88
1428.8
1481.11
1530.13
1568.55
1593.83
1605.94
1606.26
1596.84
1579.87
1557.37
1531.02
1502.18
1471.87
1440.88
1409.8
1379.03
1348.87
1319.55
1291.18
1263.87
1237.67
1212.58
1188.6
1165.71
1143.87
1123.03
1103.12
1084.08
1065.82
1048.28
1031.38
1015.02
999.129
983.625
968.428
953.467
938.672
923.981
909.337
894.688
879.989
865.198
850.277
835.189
819.899
804.371
788.572
772.467
756.022
739.204
721.984
704.336
686.242
667.691
648.684
629.233
609.364
589.119
568.556
547.745
526.773
505.74
484.755
463.933
443.394
423.26
403.647
384.666
366.417
348.988
332.453
316.87
302.28
288.707
276.162
264.638
254.117
244.568
235.952
228.222
221.324
215.202
209.797
205.05
200.901
197.295
194.176
191.49
189.191
187.231
185.568
184.164
182.984
181.995
181.168
180.478
179.901
179.417
179.007
178.656
178.35
178.075
177.823
177.583
177.349
177.112
176.869
176.614
176.344
176.055
175.744
175.41
175.051
174.666
174.254
173.814
173.345
172.848
172.323
171.769
171.187
170.578
169.941
169.278
168.588
167.872
167.13
166.362
165.565
164.737
163.873
162.967
162.013
161.002
159.924
158.769
157.526
156.185
154.739
153.181
151.514
149.741
147.874
145.93
143.929
141.896
139.854
137.827
135.835
133.895
132.02
130.219
128.497
126.858
125.3
123.824
122.425
121.102
119.85
118.668
117.551
116.499
115.511
114.586
113.726
112.933
112.214
111.574
111.024
110.575
110.245
110.054
110.03
110.206
110.628
111.351
112.449
114.015
116.173
119.082
122.952
128.063
134.782
143.6
155.18
170.436
190.65
217.677
254.252
304.442
374.534
475.481
634.685
938.504
1704.02
842.396
858.967
876.443
895.127
916.495
941.413
970.349
1002.86
1039.24
1076.55
1111.23
1141.26
1165.33
1182.9
1194.05
1199.31
1199.44
1195.28
1187.66
1177.35
1165.01
1151.2
1136.39
1120.95
1105.19
1089.33
1073.56
1058.02
1042.78
1027.93
1013.49
999.469
985.866
972.658
959.808
947.269
934.99
922.91
910.967
899.097
887.238
875.326
863.306
851.122
838.725
826.072
813.123
799.842
786.199
772.166
757.717
742.83
727.484
711.664
695.356
678.55
661.244
643.443
625.16
606.418
587.253
567.712
547.856
527.76
507.507
487.197
466.933
446.829
427.001
407.563
388.63
370.307
352.694
335.876
319.925
304.9
290.843
277.78
265.721
254.662
244.587
235.468
227.266
219.935
213.425
207.68
202.642
198.253
194.455
191.191
188.406
186.048
184.069
182.422
181.066
179.962
179.073
178.368
177.817
177.395
177.077
176.843
176.675
176.556
176.472
176.411
176.362
176.316
176.266
176.205
176.127
176.03
175.908
175.759
175.581
175.373
175.133
174.859
174.553
174.212
173.838
173.431
172.99
172.516
172.01
171.472
170.904
170.305
169.677
169.021
168.337
167.626
166.888
166.123
165.328
164.498
163.63
162.719
161.756
160.734
159.644
158.475
157.218
155.865
154.408
152.847
151.182
149.422
147.579
145.67
143.715
141.737
139.758
137.797
135.874
134.001
132.189
130.447
128.779
127.185
125.667
124.223
122.851
121.549
120.313
119.142
118.034
116.987
116.003
115.082
114.227
113.442
112.734
112.112
111.588
111.177
110.9
110.783
110.858
111.168
111.768
112.729
114.141
116.123
118.832
122.473
127.318
133.728
142.182
153.326
168.045
187.575
213.685
248.956
297.188
364.165
459.711
606.654
870.088
1431.04
585.844
596.962
607.987
618.799
629.941
641.99
655.488
670.886
688.643
709.253
732.791
757.76
783.053
807.54
830.223
850.347
867.434
881.282
891.909
899.499
904.34
906.773
907.154
905.828
903.115
899.298
894.623
889.297
883.488
877.333
870.933
864.365
857.677
850.899
844.039
837.093
830.04
822.851
815.488
807.909
800.066
791.914
783.405
774.493
765.138
755.301
744.95
734.056
722.595
710.547
697.9
684.643
670.77
656.282
641.184
625.488
609.213
592.385
575.04
557.224
538.993
520.414
501.564
482.531
463.414
444.315
425.346
406.618
388.245
370.337
352.997
336.322
320.396
305.292
291.067
277.765
265.413
254.024
243.598
234.12
225.564
217.895
211.072
205.044
199.759
195.161
191.195
187.803
184.931
182.525
180.535
178.912
177.611
176.59
175.811
175.238
174.84
174.586
174.451
174.411
174.445
174.534
174.662
174.814
174.978
175.144
175.302
175.445
175.566
175.66
175.724
175.754
175.747
175.702
175.617
175.493
175.328
175.122
174.876
174.59
174.265
173.901
173.499
173.06
172.586
172.076
171.533
170.958
170.351
169.714
169.049
168.356
167.638
166.893
166.118
165.311
164.47
163.59
162.664
161.688
160.651
159.546
158.363
157.093
155.731
154.27
152.711
151.058
149.319
147.507
145.64
143.735
141.814
139.897
138
136.139
134.327
132.572
130.881
129.256
127.701
126.215
124.796
123.443
122.155
120.929
119.764
118.659
117.614
116.631
115.712
114.861
114.084
113.39
112.79
112.299
111.935
111.725
111.7
111.9
112.378
113.203
114.463
116.272
118.784
122.197
126.778
132.877
140.963
151.662
165.826
184.635
209.758
243.599
289.639
353.074
442.462
576.055
801.288
1212.01
415.371
423.111
430.68
437.89
444.863
451.801
458.927
466.496
474.79
484.12
494.991
507.729
522.086
537.814
554.53
571.759
588.995
605.756
621.627
636.292
649.541
661.266
671.446
680.125
687.396
693.379
698.21
702.022
704.944
707.093
708.568
709.452
709.81
709.688
709.116
708.11
706.671
704.789
702.444
699.61
696.255
692.343
687.839
682.707
676.913
670.426
663.22
655.274
646.571
637.1
626.858
615.845
604.07
591.549
578.302
564.359
549.759
534.547
518.778
502.516
485.836
468.82
451.56
434.154
416.707
399.328
382.129
365.22
348.71
332.701
317.287
302.553
288.57
275.399
263.084
251.655
241.128
231.506
222.778
214.924
207.911
201.701
196.25
191.508
187.424
183.944
181.015
178.585
176.601
175.017
173.784
172.86
172.203
171.776
171.544
171.475
171.541
171.714
171.971
172.291
172.655
173.046
173.45
173.855
174.249
174.623
174.97
175.284
175.558
175.79
175.977
176.116
176.206
176.246
176.236
176.176
176.067
175.91
175.705
175.454
175.158
174.819
174.438
174.016
173.555
173.056
172.521
171.952
171.35
170.717
170.055
169.367
168.654
167.914
167.146
166.349
165.52
164.657
163.756
162.81
161.814
160.758
159.637
158.44
157.16
155.792
154.333
152.784
151.149
149.437
147.662
145.84
143.987
142.123
140.264
138.427
136.623
134.865
133.158
131.51
129.922
128.397
126.934
125.533
124.193
122.913
121.691
120.528
119.423
118.377
117.393
116.475
115.628
114.861
114.184
113.611
113.162
112.859
112.733
112.824
113.182
113.872
114.981
116.62
118.935
122.123
126.439
132.228
139.942
150.188
163.78
181.837
205.917
238.226
281.904
341.512
424.31
544.369
734.954
1038.11
301.957
307.396
312.722
317.798
322.619
327.236
331.717
336.15
340.65
345.348
350.424
356.255
362.954
370.617
379.285
388.936
399.481
410.773
422.622
434.809
447.113
459.322
471.253
482.755
493.716
504.062
513.748
522.757
531.091
538.763
545.792
552.201
558.009
563.229
567.871
571.933
575.408
578.281
580.53
582.129
583.045
583.245
582.695
581.361
579.21
576.214
572.349
567.597
561.944
555.384
547.921
539.562
530.325
520.235
509.327
497.643
485.235
472.164
458.499
444.317
429.706
414.76
399.577
384.265
368.932
353.687
338.642
323.902
309.57
295.738
282.492
269.905
258.038
246.938
236.638
227.16
218.509
210.681
203.66
197.419
191.926
187.142
183.022
179.52
176.587
174.173
172.23
170.71
169.568
168.758
168.241
167.975
167.926
168.059
168.342
168.749
169.251
169.826
170.452
171.111
171.785
172.459
173.122
173.761
174.367
174.932
175.451
175.918
176.328
176.681
176.972
177.202
177.37
177.477
177.522
177.508
177.436
177.307
177.123
176.887
176.6
176.265
175.884
175.458
174.99
174.482
173.936
173.353
172.737
172.09
171.414
170.715
169.99
169.238
168.461
167.657
166.825
165.964
165.07
164.139
163.167
162.146
161.069
159.929
158.719
157.431
156.062
154.609
153.074
151.462
149.782
148.047
146.271
144.47
142.66
140.856
139.072
137.319
135.607
133.941
132.328
130.769
129.266
127.82
126.431
125.097
123.82
122.598
121.432
120.322
119.273
118.287
117.369
116.528
115.773
115.119
114.582
114.186
113.96
113.942
114.18
114.738
115.697
117.167
119.288
122.251
126.304
131.781
139.12
148.904
161.911
179.191
202.184
232.889
274.094
329.723
405.773
512.73
672.942
899.982
226.029
229.911
233.726
237.39
240.875
244.183
247.33
250.339
253.248
256.104
258.97
261.993
265.306
269.002
273.168
277.879
283.195
289.151
295.756
302.993
310.816
319.16
327.939
337.058
346.418
355.92
365.472
374.986
384.39
393.616
402.607
411.314
419.691
427.696
435.288
442.427
449.07
455.174
460.694
465.583
469.793
473.278
475.99
477.885
478.924
479.069
478.291
476.565
473.876
470.216
465.586
459.995
453.464
446.022
437.708
428.572
418.672
408.077
396.863
385.116
372.929
360.401
347.636
334.74
321.823
308.992
296.352
284.004
272.042
260.549
249.602
239.263
229.582
220.597
212.333
204.803
198.008
191.938
186.573
181.888
177.85
174.422
171.561
169.227
167.374
165.959
164.939
164.271
163.914
163.829
163.981
164.333
164.853
165.512
166.281
167.134
168.049
169.003
169.977
170.955
171.921
172.861
173.765
174.622
175.424
176.165
176.84
177.444
177.974
178.43
178.81
179.113
179.341
179.496
179.578
179.59
179.534
179.413
179.229
178.986
178.687
178.334
177.93
177.479
176.982
176.442
175.862
175.245
174.594
173.911
173.204
172.472
171.715
170.934
170.128
169.298
168.445
167.567
166.661
165.727
164.759
163.752
162.702
161.6
160.441
159.217
157.923
156.555
155.111
153.593
152.007
150.361
148.666
146.936
145.183
143.424
141.669
139.933
138.223
136.55
134.917
133.331
131.793
130.306
128.87
127.485
126.153
124.873
123.645
122.473
121.357
120.301
119.312
118.396
117.562
116.825
116.201
115.712
115.385
115.258
115.376
115.802
116.614
117.915
119.844
122.583
126.374
131.538
138.499
147.816
160.225
176.708
198.584
227.643
266.32
317.926
387.294
481.963
616.244
789.454
174.519
177.362
180.163
182.875
185.471
187.943
190.289
192.513
194.626
196.642
198.583
200.496
202.467
204.543
206.776
209.218
211.927
214.953
218.347
222.149
226.391
231.094
236.267
241.905
247.994
254.505
261.401
268.638
276.165
283.924
291.855
299.897
307.983
316.047
324.023
331.842
339.433
346.727
353.653
360.139
366.117
371.517
376.273
380.324
383.612
386.086
387.7
388.419
388.215
387.07
384.977
381.938
377.969
373.094
367.35
360.785
353.456
345.433
336.791
327.617
318.002
308.044
297.845
287.508
277.137
266.834
256.695
246.814
237.275
228.152
219.512
211.408
203.881
196.961
190.668
185.009
179.982
175.574
171.768
168.538
165.854
163.683
161.988
160.732
159.878
159.385
159.217
159.337
159.709
160.298
161.074
162.003
163.059
164.212
165.439
166.715
168.02
169.333
170.638
171.918
173.16
174.351
175.482
176.543
177.528
178.43
179.246
179.973
180.609
181.152
181.604
181.965
182.236
182.42
182.52
182.538
182.479
182.345
182.14
181.869
181.534
181.141
180.691
180.189
179.639
179.044
178.406
177.73
177.02
176.28
175.519
174.732
173.92
173.086
172.23
171.353
170.456
169.539
168.6
167.64
166.654
165.64
164.593
163.507
162.377
161.196
159.957
158.656
157.289
155.855
154.355
152.795
151.182
149.526
147.838
146.13
144.415
142.704
141.008
139.334
137.691
136.084
134.518
132.994
131.515
130.082
128.696
127.359
126.071
124.834
123.651
122.526
121.464
120.471
119.558
118.737
118.024
117.44
117.012
116.776
116.775
117.069
117.733
118.868
120.606
123.122
126.65
131.501
138.082
146.926
158.73
174.403
195.144
222.538
258.682
306.316
369.232
452.645
565.193
699.978
138.95
141.099
143.221
145.288
147.281
149.189
151.009
152.739
154.38
155.935
157.412
158.825
160.224
161.63
163.066
164.561
166.147
167.857
169.727
171.793
174.091
176.653
179.51
182.689
186.211
190.092
194.34
198.958
203.938
209.268
214.925
220.879
227.094
233.523
240.115
246.811
253.546
260.252
266.854
273.275
279.437
285.261
290.669
295.585
299.937
303.658
306.69
308.981
310.487
311.178
311.032
310.039
308.202
305.536
302.067
297.834
292.886
287.285
281.099
274.407
267.293
259.848
252.164
244.337
236.462
228.629
220.927
213.437
206.235
199.385
192.942
186.953
181.452
176.463
172.001
168.07
164.668
161.783
159.398
157.492
156.039
155.01
154.374
154.1
154.155
154.506
155.121
155.967
157.014
158.231
159.589
161.061
162.621
164.243
165.904
167.583
169.261
170.918
172.538
174.108
175.613
177.044
178.39
179.644
180.799
181.851
182.797
183.633
184.36
184.978
185.487
185.889
186.187
186.385
186.484
186.491
186.408
186.241
185.994
185.671
185.278
184.82
184.3
183.724
183.095
182.417
181.696
180.935
180.14
179.32
178.477
177.609
176.718
175.805
174.874
173.924
172.958
171.977
170.98
169.967
168.938
167.89
166.82
165.724
164.597
163.432
162.224
160.968
159.657
158.289
156.863
155.38
153.843
152.26
150.638
148.987
147.317
145.64
143.965
142.3
140.655
139.035
137.445
135.89
134.372
132.894
131.457
130.064
128.717
127.416
126.166
124.97
123.833
122.763
121.769
120.862
120.059
119.379
118.849
118.502
118.382
118.544
119.061
120.03
121.577
123.872
127.138
131.675
137.873
146.241
157.433
172.29
191.89
217.624
251.271
295.053
351.868
425.145
519.694
626.611
113.921
115.601
117.262
118.888
120.466
121.986
123.446
124.841
126.171
127.436
128.637
129.779
130.891
131.981
133.062
134.145
135.249
136.389
137.588
138.867
140.249
141.759
143.422
145.261
147.302
149.566
152.072
154.84
157.881
161.206
164.82
168.72
172.899
177.343
182.029
186.927
191.999
197.201
202.478
207.772
213.018
218.147
223.086
227.764
232.106
236.045
239.512
242.449
244.803
246.53
247.596
247.979
247.667
246.662
244.977
242.636
239.676
236.144
232.097
227.6
222.724
217.548
212.15
206.615
201.022
195.452
189.98
184.676
179.604
174.819
170.368
166.288
162.609
159.351
156.525
154.135
152.179
150.648
149.528
148.8
148.445
148.438
148.753
149.365
150.245
151.366
152.699
154.216
155.89
157.695
159.602
161.588
163.627
165.698
167.777
169.844
171.882
173.871
175.798
177.648
179.408
181.07
182.622
184.06
185.377
186.569
187.633
188.569
189.376
190.055
190.608
191.038
191.348
191.542
191.625
191.601
191.476
191.256
190.946
190.551
190.077
189.53
188.915
188.238
187.504
186.718
185.885
185.011
184.105
183.178
182.225
181.247
180.247
179.228
178.192
177.141
176.077
175.003
173.918
172.825
171.723
170.611
169.488
168.35
167.195
166.016
164.809
163.567
162.286
160.961
159.587
158.163
156.691
155.172
153.612
152.017
150.396
148.757
147.109
145.46
143.819
142.192
140.586
139.005
137.452
135.933
134.448
133.001
131.594
130.23
128.912
127.644
126.432
125.283
124.205
123.211
122.316
121.539
120.905
120.447
120.205
120.235
120.605
121.408
122.765
124.838
127.843
132.066
137.88
145.769
156.346
170.384
188.85
212.947
244.165
284.268
335.405
399.676
479.407
565.715
96
97.3564
98.6996
100.02
101.307
102.556
103.762
104.922
106.036
107.101
108.119
109.091
110.033
110.949
111.846
112.729
113.607
114.488
115.384
116.308
117.272
118.291
119.383
120.562
121.846
123.252
124.797
126.497
128.368
130.423
132.673
135.128
137.794
140.67
143.755
147.04
150.51
154.144
157.914
161.787
165.721
169.669
173.581
177.399
181.066
184.521
187.708
190.568
193.05
195.107
196.7
197.8
198.384
198.444
197.978
196.999
195.529
193.6
191.252
188.536
185.507
182.227
178.762
175.177
171.539
167.914
164.365
160.949
157.717
154.716
151.985
149.555
147.449
145.686
144.274
143.218
142.517
142.163
142.146
142.453
143.067
143.967
145.134
146.545
148.175
150.002
152
154.143
156.408
158.768
161.2
163.68
166.183
168.689
171.175
173.622
176.013
178.329
180.556
182.681
184.691
186.577
188.331
189.946
191.417
192.741
193.916
194.942
195.819
196.548
197.133
197.578
197.886
198.062
198.112
198.042
197.857
197.565
197.171
196.683
196.106
195.448
194.714
193.912
193.046
192.124
191.152
190.137
189.096
188.03
186.936
185.818
184.678
183.52
182.348
181.163
179.97
178.77
177.565
176.358
175.149
173.939
172.728
171.514
170.294
169.065
167.823
166.562
165.277
163.961
162.611
161.222
159.793
158.322
156.812
155.265
153.688
152.086
150.467
148.837
147.205
145.577
143.958
142.355
140.773
139.215
137.684
136.185
134.72
133.292
131.906
130.565
129.276
128.045
126.882
125.798
124.808
123.931
123.192
122.62
122.256
122.152
122.374
123.01
124.177
126.029
128.773
132.681
138.11
145.519
155.48
168.703
186.047
208.547
237.43
274.065
319.985
376.331
443.884
514.63
82.9901
84.1198
85.2397
86.344
87.4257
88.4804
89.5048
90.497
91.4552
92.3787
93.2669
94.1202
94.9496
95.7566
96.5439
97.3145
98.0727
98.8233
99.5722
100.326
101.093
101.882
102.701
103.561
104.473
105.447
106.496
107.63
108.861
110.201
111.658
113.243
114.964
116.825
118.831
120.983
123.276
125.704
128.257
130.917
133.665
136.473
139.31
142.143
144.931
147.632
150.205
152.604
154.788
156.718
158.357
159.675
160.65
161.266
161.515
161.4
160.931
160.127
159.015
157.63
156.012
154.207
152.265
150.236
148.173
146.126
144.145
142.276
140.56
139.034
137.73
136.672
135.881
135.371
135.151
135.226
135.595
136.253
137.194
138.405
139.874
141.584
143.518
145.657
147.979
150.463
153.085
155.823
158.653
161.55
164.492
167.454
170.413
173.348
176.238
179.063
181.804
184.445
186.971
189.368
191.626
193.734
195.685
197.472
199.092
200.541
201.82
202.926
203.863
204.633
205.239
205.686
205.979
206.124
206.127
205.995
205.734
205.353
204.858
204.257
203.557
202.766
201.891
200.94
199.918
198.834
197.696
196.516
195.313
194.077
192.811
191.52
190.208
188.878
187.535
186.182
184.824
183.462
182.101
180.743
179.391
178.045
176.707
175.377
174.053
172.733
171.414
170.092
168.762
167.417
166.054
164.665
163.248
161.799
160.317
158.801
157.255
155.682
154.086
152.474
150.85
149.221
147.592
145.97
144.36
142.765
141.19
139.639
138.115
136.623
135.167
133.752
132.384
131.069
129.818
128.641
127.554
126.574
125.725
125.037
124.548
124.308
124.38
124.849
125.825
127.456
129.938
133.531
138.575
145.502
154.849
167.264
183.508
204.462
231.121
264.519
305.695
355.115
412.646
471.403
73.4694
74.4374
75.3981
76.3478
77.2816
78.1962
79.0893
79.959
80.8041
81.6238
82.4176
83.186
83.9356
84.6673
85.3823
86.0823
86.7695
87.4466
88.1167
88.7837
89.4519
90.1262
90.8122
91.5158
92.2434
93.0018
93.7983
94.64
95.5346
96.4895
97.5119
98.6087
99.7862
101.05
102.404
103.852
105.393
107.028
108.753
110.561
112.442
114.383
116.369
118.38
120.392
122.381
124.319
126.177
127.927
129.539
130.988
132.25
133.304
134.137
134.74
135.11
135.251
135.174
134.895
134.438
133.83
133.104
132.296
131.443
130.584
129.757
129.001
128.35
127.836
127.489
127.334
127.39
127.676
128.201
128.976
130.003
131.284
132.815
134.59
136.601
138.836
141.28
143.919
146.735
149.707
152.816
156.04
159.355
162.737
166.164
169.611
173.054
176.469
179.836
183.131
186.335