/*--------------------------------*- C++ -*----------------------------------*\
| =========                 |                                                 |
| \\      /  F ield         | OpenFOAM: The Open Source CFD Toolbox           |
|  \\    /   O peration     | Version:  2.4.0                                 |
|   \\  /    A nd           | Web:      www.OpenFOAM.org                      |
|    \\/     M anipulation  |                                                 |
\*---------------------------------------------------------------------------*/
FoamFile
{
    version     2.0;
    format      ascii;
    class       volScalarField;
    location    "0.116";
    object      k_0;
}
// * * * * * * * * * * * * * * * * * * * * * * * * * * * * * * * * * * * * * //

dimensions      [0 2 -2 0 0 0 0];

internalField   nonuniform List<scalar> 
4400
(
9.54175
8.47316
6.53211
5.28041
4.65182
4.19501
4.03827
3.7669
3.69067
3.38658
4.4202
6.74173
6.74512
6.28849
5.7284
5.18855
5.01278
4.63096
4.59567
4.40976
1.18949
3.13926
4.22295
4.52651
4.48825
4.24943
4.17139
3.89628
3.89361
3.81147
0.166976
0.936782
1.70812
2.30098
2.70495
2.76113
2.89089
2.83214
2.84574
2.87428
0.017643
0.158094
0.401022
0.730498
1.11364
1.30276
1.53306
1.66429
1.716
1.83841
0.00150761
0.0176125
0.0512596
0.125168
0.25931
0.386775
0.502871
0.684932
0.750881
0.896957
0.000140798
0.00158798
0.00426774
0.0116406
0.0280114
0.0626442
0.0894926
0.159827
0.194937
0.285555
4.1203e-05
0.000277257
0.000423327
0.00082413
0.00185207
0.0047058
0.00763658
0.0179228
0.0248386
0.0475939
3.39771e-05
0.000165116
0.000199917
0.000214298
0.000253507
0.000356626
0.000478905
0.00116641
0.00162941
0.00293617
3.35754e-05
0.000127359
0.000187663
0.000209467
0.000211509
0.00020718
0.000207759
0.000244463
0.000275727
0.000299155
3.3147e-05
0.000117514
0.000191317
0.000215262
0.000213367
0.000206856
0.000208112
0.000220578
0.000250047
0.000319177
3.37716e-05
0.000112452
0.000213235
0.000243565
0.000280595
0.000368722
0.000582607
0.00086785
0.00147249
0.00313688
3.99398e-05
0.000178716
0.000470444
0.000918689
0.00187031
0.00476899
0.00834647
0.0159334
0.0244839
0.0456901
0.000136211
0.00147256
0.0048406
0.0122701
0.0267492
0.0636548
0.0943865
0.154603
0.196623
0.309665
0.00145273
0.0166389
0.0585217
0.130737
0.238224
0.403964
0.528169
0.670551
0.758087
0.973212
0.0170279
0.148254
0.431543
0.734343
1.08697
1.34308
1.5332
1.65754
1.73849
1.92229
0.161592
0.93133
1.732
2.30054
2.68658
2.80277
2.87133
2.851
2.86009
2.91452
1.15686
3.16563
4.23352
4.52511
4.48336
4.27368
4.14498
3.92795
3.88394
3.80958
4.39393
6.77895
6.7439
6.28611
5.72482
5.1978
4.9741
4.65027
4.57203
4.34268
9.51905
8.50796
6.51006
5.28827
4.64987
4.19471
4.00652
3.73944
3.64695
3.30897
2.30096
1.33431
0.662939
0.394672
0.298758
0.302925
0.328279
0.392151
0.556575
0.714041
0.749847
0.714628
0.697524
0.562057
0.457774
0.667926
0.936349
0.763409
0.405041
0.191718
0.141952
0.143342
0.144345
0.160131
0.192148
0.211885
0.3041
0.335098
0.310313
0.196188
0.131646
0.115982
0.126078
0.16889
0.269255
0.295501
0.303615
0.284885
0.272815
0.256998
0.236925
0.212828
0.19197
0.152988
0.115013
0.0813364
0.0798166
0.0926561
0.16687
0.185083
0.171557
0.156569
0.132507
0.113317
0.105977
0.104258
0.104539
0.0976011
0.0931464
0.0947339
0.100684
0.119383
0.175908
0.204338
0.208319
0.218963
0.241803
0.241483
0.228094
0.273007
0.309363
0.295983
0.259772
0.218873
0.199578
0.182328
0.176357
0.178284
0.18579
0.207737
0.219067
0.217887
0.206952
0.166236
0.109455
0.0800595
0.0602908
0.0459402
0.0525554
0.0471327
0.1141
0.10916
0.153226
0.143837
0.15536
0.178926
0.340577
0.383066
0.514556
0.424422
3.29095
2.49416
1.80377
1.28788
0.930599
0.760569
0.78618
0.845035
0.888892
0.867975
0.782806
0.686279
0.622647
0.565682
0.390829
0.414629
0.697693
0.780455
0.515447
0.224678
0.16762
0.152067
0.150129
0.172624
0.189714
0.227504
0.324369
0.325219
0.269749
0.15283
0.124574
0.132142
0.173166
0.298678
0.409074
0.406607
0.408618
0.380725
0.376266
0.362852
0.33047
0.292074
0.258254
0.214733
0.159073
0.0989868
0.0870839
0.0929029
0.142079
0.178948
0.170273
0.157456
0.133029
0.114521
0.108054
0.108613
0.107217
0.102063
0.099695
0.102737
0.110178
0.13701
0.199108
0.223883
0.230636
0.246455
0.246977
0.221032
0.211581
0.267685
0.296979
0.274588
0.230787
0.191465
0.163862
0.1522
0.152385
0.155567
0.162941
0.184356
0.203676
0.211615
0.20456
0.171287
0.113403
0.078595
0.0662664
0.0478359
0.0756683
0.0653645
0.100036
0.101753
0.0851934
0.0737313
0.060462
0.0689204
0.0855163
0.193465
0.56996
0.580868
3.10394
2.48846
2.10192
1.80018
1.54043
1.30717
1.24022
1.08435
0.975225
0.899578
0.695011
0.595779
0.449597
0.456343
0.341571
0.310987
0.509407
0.740285
0.600172
0.287615
0.199026
0.163416
0.16219
0.180803
0.196703
0.27188
0.331249
0.311334
0.19865
0.133311
0.134722
0.173169
0.290259
0.491904
0.543867
0.520244
0.528307
0.501442
0.501641
0.457634
0.388967
0.338484
0.286823
0.25021
0.205752
0.128845
0.0983307
0.0967842
0.119116
0.173896
0.171675
0.15976
0.131262
0.117076
0.110232
0.11307
0.11046
0.108609
0.106074
0.109583
0.119219
0.162511
0.222442
0.246215
0.259293
0.265509
0.247178
0.1974
0.202642
0.270534
0.299416
0.267068
0.199005
0.16141
0.142689
0.133421
0.134683
0.139955
0.147546
0.166195
0.188804
0.203771
0.198635
0.171771
0.120011
0.0780011
0.0847222
0.0619848
0.0786506
0.0721572
0.0801333
0.0798945
0.0594444
0.0499056
0.0444967
0.0458039
0.0468696
0.0756731
0.180798
0.454831
2.53089
2.13688
1.87233
1.71379
1.54889
1.34549
1.20985
1.05322
0.819757
0.712647
0.489775
0.381004
0.261167
0.267838
0.253129
0.214151
0.329753
0.64794
0.629917
0.400689
0.242696
0.187131
0.187936
0.197383
0.223291
0.325629
0.33583
0.27592
0.149391
0.129498
0.160614
0.285911
0.525435
0.626128
0.616455
0.598009
0.642429
0.626824
0.579274
0.474188
0.398387
0.339106
0.286497
0.251472
0.225732
0.16251
0.111024
0.102945
0.111867
0.162256
0.169256
0.161514
0.131796
0.120241
0.116359
0.121619
0.119499
0.114112
0.111905
0.115857
0.131049
0.198518
0.248655
0.274718
0.281156
0.275247
0.226348
0.187736
0.214658
0.302039
0.336932
0.275401
0.188618
0.138163
0.12801
0.11942
0.121219
0.12623
0.133864
0.153997
0.172252
0.19533
0.191254
0.168564
0.13882
0.0832346
0.0926197
0.0715241
0.0744002
0.0741927
0.0688654
0.0650079
0.0488786
0.0429317
0.0427378
0.0428292
0.0432194
0.0500437
0.0715941
0.224584
1.69319
1.51762
1.37684
1.32674
1.27476
1.14438
0.938434
0.799241
0.532165
0.369231
0.196346
0.134218
0.0972499
0.0961593
0.123457
0.125739
0.172978
0.488792
0.59773
0.534958
0.329524
0.235378
0.228143
0.234537
0.302722
0.36018
0.334793
0.195319
0.132911
0.147005
0.258444
0.543969
0.652426
0.677002
0.638313
0.65358
0.709528
0.672991
0.578122
0.458717
0.389993
0.31581
0.27043
0.245033
0.227559
0.188697
0.123104
0.108523
0.112033
0.14772
0.163957
0.162228
0.13589
0.123038
0.122789
0.126534
0.123661
0.116356
0.116941
0.123947
0.152366
0.243983
0.279389
0.301739
0.297289
0.27582
0.199769
0.175315
0.233699
0.354661
0.368961
0.274908
0.179547
0.124809
0.117878
0.107726
0.110267
0.115079
0.122467
0.144001
0.164227
0.188381
0.183275
0.168426
0.148484
0.0983582
0.0934273
0.0750219
0.0721475
0.0716176
0.0617503
0.0563178
0.0463389
0.04546
0.0444819
0.045865
0.0445591
0.048583
0.0537435
0.144243
0.850239
0.768824
0.744602
0.75769
0.757336
0.727309
0.641593
0.481999
0.257999
0.138722
0.0670902
0.0427622
0.0357649
0.0341353
0.043108
0.0472353
0.0643484
0.269527
0.53029
0.539585
0.477494
0.345581
0.32064
0.337927
0.392608
0.380771
0.268305
0.137661
0.131044
0.208452
0.499231
0.679878
0.702717
0.691553
0.640653
0.718951
0.722059
0.673005
0.535316
0.387025
0.335021
0.273595
0.238169
0.225709
0.221633
0.202023
0.14844
0.11642
0.114201
0.132369
0.156908
0.161477
0.150486
0.130111
0.128924
0.126246
0.122647
0.120711
0.124446
0.13792
0.193213
0.284435
0.307909
0.316061
0.303232
0.273716
0.19135
0.196364
0.275497
0.435997
0.37572
0.223681
0.154211
0.112725
0.109135
0.100194
0.105344
0.106107
0.113551
0.135816
0.157881
0.185997
0.181691
0.179569
0.157783
0.101806
0.094373
0.0782118
0.0697399
0.0668591
0.059497
0.0548208
0.0468673
0.0463215
0.0459521
0.0468333
0.0466207
0.0496138
0.0496836
0.0923106
0.274571
0.245086
0.243109
0.269302
0.302705
0.295915
0.26362
0.179551
0.0865033
0.0406946
0.0189418
0.0124156
0.0122345
0.012093
0.0155251
0.0188657
0.0248049
0.0847318
0.368842
0.505408
0.496484
0.443209
0.424148
0.428559
0.42199
0.350007
0.157913
0.119393
0.157032
0.39662
0.692245
0.736757
0.714936
0.657263
0.633334
0.765313
0.693278
0.630149
0.441698
0.324798
0.27182
0.220076
0.211795
0.200248
0.208519
0.198738
0.169042
0.123675
0.115475
0.122924
0.143318
0.158893
0.156915
0.146165
0.137058
0.127206
0.125828
0.127665
0.136514
0.160481
0.248188
0.3191
0.3288
0.321557
0.293421
0.272571
0.201636
0.274083
0.322877
0.469593
0.29033
0.178955
0.142496
0.104503
0.0993587
0.0957481
0.105575
0.102993
0.110263
0.131866
0.148267
0.187424
0.183746
0.181832
0.160227
0.107921
0.0966076
0.0798533
0.0741722
0.0657052
0.0578107
0.0521807
0.048033
0.0454066
0.0448754
0.048347
0.0484122
0.0529591
0.0521411
0.0644109
0.045683
0.04074
0.0409945
0.051776
0.0726131
0.0730747
0.0655436
0.0415084
0.0188444
0.00886981
0.00556889
0.00510624
0.00516586
0.0055345
0.00735546
0.00976653
0.0118489
0.0284152
0.134577
0.388044
0.45418
0.447271
0.44045
0.428495
0.378985
0.188359
0.10713
0.119518
0.26993
0.677171
0.772545
0.749588
0.656832
0.585963
0.624123
0.783442
0.632245
0.549635
0.358757
0.293914
0.253486
0.203307
0.193423
0.177802
0.187947
0.186446
0.172776
0.130822
0.116694
0.119353
0.131857
0.152408
0.158049
0.15448
0.146136
0.135098
0.135676
0.141588
0.15537
0.194058
0.304968
0.342365
0.337055
0.310205
0.272033
0.221197
0.190435
0.2487
0.385686
0.444304
0.249066
0.175054
0.143766
0.101825
0.0952248
0.0898758
0.103496
0.101183
0.110449
0.132848
0.145327
0.198308
0.190921
0.173058
0.16106
0.116131
0.102185
0.0814226
0.0750115
0.0655475
0.0599868
0.0525407
0.0478717
0.0452465
0.0447688
0.0473624
0.0471332
0.0525012
0.0515981
0.0561543
0.0028089
0.00275874
0.00297546
0.00512474
0.00882932
0.00925607
0.00831298
0.00472669
0.0030944
0.00321425
0.00380894
0.00461624
0.00460474
0.00511014
0.00681099
0.00857267
0.009462
0.0128947
0.0425155
0.144373
0.318166
0.380219
0.375712
0.342189
0.202601
0.0993852
0.0939601
0.17449
0.59315
0.80835
0.793007
0.689332
0.517806
0.524745
0.646119
0.746223
0.592725
0.480799
0.323723
0.27638
0.267683
0.215467
0.187067
0.166093
0.170256
0.169121
0.167141
0.142484
0.119839
0.118523
0.126933
0.145601
0.159725
0.159784
0.155335
0.150416
0.151956
0.159786
0.176347
0.250051
0.344505
0.354963
0.33259
0.271019
0.241838
0.18596
0.190988
0.238449
0.407326
0.351623
0.241979
0.204442
0.158974
0.109034
0.0964937
0.0875156
0.0987543
0.100085
0.111163
0.136132
0.14656
0.224079
0.213146
0.173286
0.165358
0.123287
0.109967
0.0843818
0.0771409
0.0666918
0.0631272
0.053865
0.0505443
0.0477167
0.048661
0.0514553
0.0513205
0.0527189
0.0512225
0.0532712
0.00034229
0.000364048
0.00037654
0.00052653
0.000712446
0.000781692
0.000847576
0.00102672
0.001829
0.00515726
0.00895851
0.0123458
0.0121372
0.0132859
0.0152683
0.0143037
0.0124631
0.0125614
0.0174608
0.0416712
0.133141
0.204364
0.201313
0.161852
0.0848187
0.0742145
0.107784
0.365515
0.821329
0.846792
0.749534
0.499936
0.440734
0.499836
0.679576
0.665871
0.58151
0.46183
0.304977
0.244957
0.268487
0.220438
0.192159
0.16734
0.164598
0.162475
0.159447
0.145783
0.125231
0.118618
0.124718
0.139512
0.158486
0.167202
0.163585
0.163474
0.164466
0.172146
0.19789
0.311965
0.364981
0.360012
0.294009
0.222916
0.196291
0.167213
0.178259
0.259146
0.359562
0.33082
0.305855
0.245084
0.161444
0.108789
0.107643
0.0872437
0.0920313
0.0990264
0.109776
0.144128
0.153171
0.215004
0.243403
0.184965
0.172849
0.127368
0.115595
0.0898535
0.082247
0.0699383
0.0651667
0.0543148
0.0518236
0.050787
0.0533386
0.0585242
0.0597932
0.0582469
0.0543986
0.0548268
0.000501259
0.000913476
0.000888815
0.00079982
0.000786693
0.000841924
0.00142247
0.00321642
0.00855738
0.0226758
0.032123
0.0411571
0.0414663
0.0443215
0.0439579
0.0394609
0.030824
0.0190168
0.0165576
0.020041
0.0474319
0.0835575
0.0819681
0.0591176
0.053815
0.0723821
0.213429
0.725717
0.915833
0.849638
0.553699
0.406079
0.408211
0.513555
0.666306
0.57926
0.580679
0.465342
0.294014
0.212444
0.22068
0.18941
0.199096
0.174348
0.167607
0.158704
0.15909
0.150562
0.130565
0.119802
0.123416
0.133754
0.154365
0.169675
0.168284
0.169307
0.169996
0.180904
0.240113
0.362269
0.372505
0.345263
0.232154
0.174015
0.153766
0.150617
0.158427
0.275732
0.288975
0.366941
0.334722
0.241233
0.146124
0.103354
0.136325
0.0904212
0.0915076
0.0996298
0.110851
0.175572
0.173961
0.188929
0.249217
0.18929
0.177592
0.134485
0.122688
0.0947539
0.087631
0.0736912
0.0691488
0.0575664
0.0569649
0.0565798
0.0618735
0.065443
0.0671471
0.0647368
0.0616383
0.0604962
0.00652437
0.0108156
0.00985001
0.00877416
0.00870737
0.00908335
0.0134116
0.0233099
0.0460307
0.0824861
0.0994279
0.115588
0.119676
0.119217
0.114452
0.0970388
0.0741724
0.0448927
0.024805
0.0214625
0.0252833
0.0334817
0.0331341
0.0352399
0.052829
0.150589
0.566226
0.936317
0.93925
0.69487
0.40858
0.364213
0.396186
0.54745
0.608926
0.52654
0.590096
0.535236
0.30212
0.214088
0.201458
0.187785
0.236693
0.18088
0.17842
0.159179
0.164273
0.155398
0.138867
0.124353
0.124864
0.133449
0.1434
0.164952
0.166943
0.170217
0.173131
0.197885
0.309078
0.379868
0.367466
0.288335
0.178262
0.13988
0.130129
0.13509
0.151526
0.247951
0.26732
0.441523
0.329561
0.193208
0.145601
0.105731
0.172695
0.0909779
0.109286
0.105269
0.124452
0.216931
0.304751
0.201456
0.257307
0.195762
0.184572
0.141601
0.12807
0.0993353
0.0954079
0.0838096
0.0779491
0.063769
0.0619271
0.0617856
0.0712889
0.0742377
0.0812703
0.0781475
0.078951
0.0773733
0.0756099
0.0861396
0.0792662
0.0738528
0.0734969
0.0748067
0.0924193
0.123899
0.178318
0.234379
0.251192
0.275585
0.273269
0.264666
0.246993
0.205623
0.157682
0.102584
0.0575788
0.0342188
0.03059
0.0315526
0.0357084
0.0557324
0.134904
0.426002
0.881385
0.994076
0.869308
0.461484
0.340341
0.344339
0.402244
0.543088
0.523604
0.504809
0.621561
0.638772
0.369796
0.251543
0.208602
0.236025
0.232326
0.181247
0.214272
0.161841
0.182129
0.166803
0.157633
0.13864
0.130423
0.136103
0.142583
0.158136
0.164911
0.169233
0.178924
0.251739
0.352846
0.378094
0.320459
0.208358
0.134778
0.115336
0.112841
0.122428
0.141662
0.209566
0.261067
0.449011
0.309652
0.189191
0.178371
0.159804
0.178023
0.0961688
0.167802
0.128976
0.161456
0.213687
0.427102
0.245231
0.25637
0.20348
0.185436
0.143641
0.129759
0.107137
0.104723
0.0939241
0.0836384
0.0714914
0.0706095
0.0716006
0.0895143
0.103599
0.119798
0.119355
0.142771
0.147936
0.345848
0.354633
0.331596
0.310469
0.305087
0.306857
0.338685
0.391598
0.455605
0.498471
0.507053
0.507967
0.496627
0.46938
0.436053
0.360136
0.283464
0.212686
0.136721
0.0814046
0.0662309
0.0697787
0.0914851
0.163213
0.384635
0.815347
0.992745
0.957987
0.593428
0.337121
0.307148
0.331189
0.408875
0.499699
0.447023
0.511263
0.695332
0.747944
0.464844
0.290308
0.239603
0.240595
0.197462
0.190166
0.234102
0.168066
0.208287
0.185524
0.166097
0.164453
0.146819
0.14671
0.148424
0.15794
0.165148
0.172744
0.202031
0.319304
0.368004
0.347921
0.214821
0.127808
0.0967127
0.0975899
0.0995614
0.108751
0.128099
0.175598
0.260879
0.438883
0.3421
0.232876
0.213556
0.223631
0.172353
0.131281
0.254567
0.202895
0.346978
0.196443
0.384268
0.251041
0.244514
0.205471
0.189801
0.148672
0.140783
0.121935
0.122499
0.108844
0.102469
0.0924946
0.0965395
0.0983357
0.105093
0.117192
0.178956
0.264296
0.39964
0.417629
0.944552
0.916428
0.823515
0.757714
0.712179
0.706038
0.732295
0.77169
0.794456
0.794412
0.77575
0.757366
0.716775
0.676487
0.626623
0.5209
0.429431
0.358812
0.264225
0.187628
0.180434
0.199671
0.264764
0.440248
0.799037
0.973975
0.982068
0.756926
0.37016
0.276832
0.270664
0.316788
0.386166
0.429866
0.391204
0.498643
0.780488
0.948957
0.680572
0.327928
0.251194
0.237446
0.21714
0.211649
0.224411
0.187277
0.207535
0.21072
0.178933
0.193142
0.17966
0.169092
0.165894
0.168389
0.176033
0.194276
0.282234
0.353856
0.347223
0.239576
0.132224
0.0927536
0.0774568
0.079862
0.0879321
0.100704
0.116928
0.14897
0.237658
0.420543
0.44893
0.31869
0.237062
0.228017
0.209948
0.221915
0.28677
0.28455
0.458677
0.194033
0.265324
0.262276
0.24072
0.209925
0.203824
0.167227
0.176317
0.15848
0.16322
0.141886
0.137777
0.119923
0.120187
0.122412
0.146668
0.245105
0.353696
0.483266
0.511304
0.511265
1.775
1.61153
1.36419
1.25433
1.15284
1.11606
1.11437
1.09735
1.06462
1.00666
0.966602
0.947402
0.904944
0.846252
0.765442
0.655263
0.568863
0.492493
0.410736
0.383324
0.39488
0.442709
0.567712
0.834099
0.978991
0.988153
0.849595
0.41519
0.26881
0.247296
0.238994
0.278733
0.329422
0.34903
0.359199
0.444546
0.800772
1.18249
1.09159
0.479988
0.304009
0.265428
0.255572
0.253865
0.236537
0.240438
0.208389
0.271596
0.207286
0.211275
0.210911
0.197359
0.197116
0.199662
0.216043
0.281195
0.348904
0.344974
0.259827
0.151792
0.104599
0.0845926
0.0724852
0.0737749
0.0842234
0.0954905
0.105219
0.123442
0.183509
0.390109
0.499173
0.407919
0.256889
0.213579
0.231327
0.234422
0.223739
0.26659
0.291687
0.199154
0.201409
0.306106
0.227173
0.208263
0.189656
0.176703
0.182852
0.175112
0.16746
0.151932
0.150008
0.15297
0.162127
0.185743
0.224513
0.289014
0.362691
0.397529
0.458894
0.469264
2.56613
2.16202
1.83853
1.64453
1.48475
1.41661
1.33596
1.26526
1.21137
1.16061
1.14329
1.11167
1.04397
0.970678
0.885074
0.788766
0.722808
0.671239
0.637301
0.640054
0.669995
0.750069
0.92486
1.01199
0.998743
0.857491
0.444787
0.233378
0.224709
0.238546
0.230387
0.245561
0.293638
0.335568
0.368837
0.361273
0.630164
1.28182
1.59801
0.892585
0.458352
0.336881
0.306667
0.300926
0.295547
0.305693
0.229935
0.327588
0.272694
0.23637
0.27462
0.258138
0.264747
0.27998
0.3301
0.34894
0.34319
0.264722
0.178001
0.124344
0.101201
0.093008
0.0774169
0.076648
0.0792424
0.08768
0.0925262
0.101484
0.149746
0.341823
0.502869
0.512101
0.334738
0.253653
0.245227
0.217239
0.225128
0.246511
0.282628
0.247507
0.225242
0.30315
0.221503
0.203263
0.202299
0.222657
0.224238
0.221681
0.207837
0.209383
0.217298
0.233574
0.27142
0.303801
0.427824
0.485323
0.636781
0.815449
1.0462
1.05849
3.12718
2.4418
2.06979
1.80124
1.63572
1.535
1.43315
1.38463
1.32127
1.27081
1.24246
1.1743
1.11398
1.06928
0.99978
0.947283
0.925643
0.908438
0.905591
0.920268
0.976197
1.05218
1.06345
1.01192
0.776109
0.414604
0.201988
0.159092
0.206639
0.256034
0.244744
0.264332
0.319573
0.388841
0.394097
0.311902
0.375728
1.08346
1.83031
1.90461
1.00699
0.60786
0.431969
0.386182
0.397697
0.396585
0.291175
0.41179
0.480702
0.301104
0.389662
0.383003
0.372208
0.369682
0.360241
0.314164
0.248285
0.199386
0.163753
0.148318
0.147069
0.135711
0.0998784
0.0809812
0.0808701
0.0913583
0.0995741
0.117216
0.170792
0.332827
0.473373
0.549247
0.501596
0.370073
0.330441
0.292815
0.282838
0.282964
0.345293
0.380673
0.300779
0.291989
0.313149
0.283025
0.344906
0.362898
0.367795
0.361721
0.370789
0.393029
0.46183
0.600705
0.822886
1.07231
1.51533
1.71011
1.82903
1.80292
1.72009
1.44239
3.22014
2.43376
2.05283
1.80954
1.68872
1.59027
1.50051
1.42949
1.33483
1.26241
1.18057
1.10268
1.07213
1.03987
1.01954
1.02962
1.05586
1.0768
1.11622
1.1611
1.17941
1.15502
1.00527
0.690981
0.392806
0.193226
0.124881
0.131539
0.214804
0.295005
0.307719
0.326501
0.39186
0.449829
0.365593
0.336911
0.326214
0.505992
1.70425
2.51672
2.74991
2.07775
1.22201
0.774081
0.735483
0.474904
0.404649
0.416891
0.517074
0.4818
0.417115
0.436405
0.419602
0.448909
0.437696
0.455808
0.439586
0.436147
0.367889
0.334443
0.249717
0.236144
0.181177
0.171471
0.157373
0.214846
0.28209
0.467038
0.45881
0.439325
0.446328
0.527129
0.674586
0.548259
0.594492
0.412804
0.478598
0.381291
0.418424
0.480677
0.481697
0.416094
0.629476
0.621471
0.8563
0.952658
1.20024
1.45471
1.66715
2.10539
2.45521
3.10167
3.228
3.37097
3.20999
2.99829
2.45208
2.14928
1.89501
1.80189
2.21487
1.77661
1.59088
1.48291
1.3859
1.249
1.08387
0.906277
0.739916
0.607472
0.510689
0.458507
0.446439
0.461611
0.50591
0.579412
0.674019
0.790194
0.932644
1.0686
1.13668
1.09833
0.904067
0.662507
0.478775
0.383469
0.360464
0.35581
0.325163
0.300467
0.310261
0.295363
0.291311
0.330472
0.471081
0.602469
0.654583
0.636104
0.513353
1.07138
3.39726
5.00157
5.52674
4.81775
4.13302
2.36719
1.08754
0.687514
0.723414
0.405025
0.345721
0.617669
0.848362
1.38177
1.58143
1.81713
1.66031
1.51776
0.936029
0.755259
0.345181
0.368947
0.249971
0.433858
0.450491
0.862291
0.916326
1.16368
0.872764
0.893789
0.570649
0.531654
0.716246
0.756251
1.38856
0.70495
1.54172
0.440718
0.697077
0.567828
0.759263
0.894158
1.62745
2.37989
2.93755
4.01472
4.15043
5.00037
5.02405
5.67646
5.40204
5.53359
4.76534
4.6068
3.73037
3.72204
3.25718
3.36427
3.12154
3.3132
0.0330672
0.114894
0.135616
0.232931
0.343362
0.470384
0.547878
0.655714
0.963541
1.53178
1.99894
1.90666
1.23637
0.556895
0.29367
0.264164
0.318092
0.491299
0.889551
1.30217
1.41874
1.18077
0.673006
0.933374
2.16834
3.39338
4.48428
4.96875
5.1097
4.93299
4.31069
3.7763
2.57116
1.62747
0.957425
0.722102
0.321509
0.255053
0.250132
0.338855
0.57694
0.845235
1.19095
1.52267
1.89439
2.08784
2.18186
2.09815
1.9114
1.62916
1.27776
0.870512
0.603356
0.638482
0.849921
1.04369
1.15686
0.74486
0.537572
0.369712
0.246399
0.207806
0.224593
0.27766
0.367657
0.448182
0.52956
0.572113
0.586614
0.562971
0.522085
0.477523
0.451122
0.434573
0.429221
0.422807
0.41126
0.384663
0.341144
0.282564
0.217858
0.160406
0.11979
0.0979034
0.0912649
0.095167
0.107066
0.120284
0.132955
0.147589
0.160806
0.157165
0.117037
0.08596
0.0847264
0.176755
0.396684
0.455821
0.207366
0.139626
0.0641196
0.10187
0.0833854
0.089243
0.103729
0.141402
0.15666
0.204799
0.259311
0.310491
0.471649
0.947687
1.11746
1.06381
0.823986
0.484245
0.3266
0.303499
0.3216
0.362601
0.472017
1.11949
2.14434
2.42526
2.42978
2.38148
1.97009
1.43629
1.20281
0.809717
0.638211
0.59932
0.408369
0.35837
0.334341
0.332771
0.335333
0.317452
0.31819
0.299729
0.299309
0.303445
0.328331
0.371745
0.46482
0.647953
1.04437
1.36354
1.37303
1.0873
0.649685
0.547585
0.555411
0.628699
0.552862
0.459142
0.307544
0.261818
0.225214
0.226956
0.229556
0.206584
0.199945
0.197303
0.207069
0.22043
0.236512
0.250544
0.278995
0.310085
0.350497
0.387085
0.419921
0.431454
0.425018
0.382603
0.309033
0.239021
0.180194
0.13521
0.105639
0.0887479
0.0814604
0.0791277
0.0772696
0.0736708
0.0682492
0.0625856
0.0604896
0.0600705
0.0580559
0.052478
0.0495778
0.0542672
0.0738429
0.14567
0.191386
0.143726
0.106067
0.140094
0.099276
0.079284
0.059819
0.0650762
0.08329
0.116318
0.136517
0.228274
0.277331
0.270996
0.253881
0.294244
0.46535
0.689504
0.680499
0.544147
0.308416
0.214076
0.215467
0.297549
0.940509
1.99203
2.11904
1.74147
1.11326
0.685364
0.493095
0.388674
0.365262
0.355312
0.368359
0.358386
0.388876
0.387326
0.388448
0.419828
0.375051
0.383574
0.36883
0.331009
0.296996
0.254666
0.221274
0.181628
0.171489
0.184778
0.240843
0.350193
0.459034
0.53614
0.532237
0.532704
0.505837
0.444125
0.303514
0.26289
0.220432
0.241844
0.234066
0.249324
0.264723
0.224487
0.187785
0.148778
0.130184
0.123722
0.125244
0.129898
0.134217
0.141705
0.158442
0.18004
0.198328
0.215973
0.234985
0.24078
0.235121
0.199219
0.147768
0.118973
0.106749
0.103231
0.103117
0.103573
0.10093
0.0907558
0.0754183
0.0587608
0.042556
0.0357129
0.034256
0.0360677
0.0431784
0.049776
0.0638602
0.0874033
0.0907253
0.0750239
0.081297
0.133848
0.0929841
0.0628632
0.0531545
0.0625708
0.0862429
0.136231
0.185418
0.300332
0.41708
0.402926
0.344714
0.255268
0.258948
0.294464
0.364913
0.346923
0.221291
0.18142
0.251812
0.70785
1.62635
1.92703
1.40579
0.70647
0.446772
0.359494
0.336619
0.33288
0.341008
0.342383
0.371659
0.362768
0.39017
0.42662
0.405492
0.446985
0.407598
0.405485
0.383044
0.34319
0.307313
0.262217
0.238603
0.203928
0.1616
0.144292
0.147515
0.155117
0.181602
0.320917
0.490687
0.514914
0.398151
0.301552
0.198008
0.183184
0.164169
0.179139
0.201621
0.224201
0.260036
0.254236
0.246902
0.198866
0.144233
0.115086
0.106379
0.107132
0.114032
0.117468
0.118532
0.12227
0.131167
0.136918
0.143365
0.161164
0.183773
0.186454
0.167089
0.12528
0.109105
0.107733
0.112802
0.122692
0.129416
0.129177
0.121558
0.105312
0.0806819
0.0555337
0.0484061
0.0483157
0.0501438
0.0500996
0.052512
0.0617658
0.0602749
0.0520647
0.0697162
0.132546
0.0781706
0.0541559
0.0526642
0.067952
0.0931284
0.156576
0.249571
0.374602
0.487509
0.481835
0.42154
0.299948
0.239889
0.214988
0.216441
0.206068
0.155164
0.180552
0.447713
1.18211
1.63423
1.40435
0.648242
0.371407
0.30665
0.29581
0.28858
0.281706
0.29174
0.291671
0.321336
0.363893
0.383532
0.42619
0.419656
0.440736
0.425292
0.411028
0.37015
0.34337
0.294441
0.246998
0.210135
0.197193
0.169535
0.141317
0.133255
0.133413
0.146714
0.282635
0.457539
0.467276
0.310121
0.250877
0.171276
0.147576
0.145598
0.160914
0.178532
0.190822
0.234155
0.248234
0.254681
0.235712
0.206396
0.161019
0.127863
0.115013
0.113887
0.11911
0.137738
0.150211
0.149153
0.147364
0.148276
0.151402
0.159872
0.167965
0.165323
0.136939
0.109575
0.104512
0.107261
0.116743
0.125723
0.129579
0.131853
0.132247
0.128968
0.121604
0.106174
0.0864604
0.0800948
0.0702755
0.0525676
0.0497476
0.0476199
0.0390588
0.0572682
0.130942
0.0692933
0.0539606
0.0638397
0.082147
0.12647
0.226458
0.356361
0.456656
0.495184
0.496596
0.45945
0.337017
0.2452
0.18785
0.175015
0.1543
0.1391
0.227744
0.72625
1.28931
1.43497
0.732329
0.370332
0.267512
0.245708
0.242778
0.239254
0.238593
0.264447
0.283827
0.305639
0.382073
0.427168
0.441535
0.458381
0.444169
0.430972
0.402647
0.34182
0.302323
0.264932
0.237767
0.19547
0.180597
0.158167
0.139563
0.131318
0.131195
0.145972
0.28381
0.436613
0.41194
0.229604
0.191723
0.163846
0.141467
0.140774
0.158097
0.167972
0.180465
0.222145
0.243571
0.253637
0.239483
0.218147
0.203945
0.180459
0.151674
0.132069
0.127397
0.129966
0.142288
0.182297
0.197104
0.186111
0.167855
0.16164
0.162722
0.163433
0.152162
0.113088
0.0915793
0.0889273
0.0921272
0.101258
0.108774
0.115459
0.120863
0.123321
0.127224
0.128801
0.132133
0.129369
0.12054
0.0799873
0.0492877
0.043138
0.0329743
0.0533997
0.128276
0.0698725
0.0641237
0.0924375
0.124524
0.202781
0.304403
0.42043
0.451919
0.442437
0.482151
0.475573
0.358672
0.258595
0.183835
0.155657
0.128958
0.131552
0.312769
0.904276
1.24803
0.904443
0.410436
0.253913
0.218022
0.211156
0.2209
0.227435
0.244495
0.272246
0.321756
0.345855
0.443939
0.48198
0.500775
0.499365
0.470812
0.438774
0.382996
0.323258
0.254858
0.213868
0.18703
0.158929
0.154076
0.144039
0.134465
0.131982
0.135258
0.154954
0.284441
0.415383
0.380827
0.198781
0.149021
0.151966
0.138176
0.135747
0.137223
0.133472
0.163945
0.174017
0.231558
0.255288
0.246501
0.216214
0.205624
0.203807
0.192639
0.1762
0.159088
0.147025
0.146359
0.153243
0.179856
0.19786
0.18599
0.169074
0.166278
0.166937
0.161017
0.126039
0.0876077
0.0710322
0.0689387
0.0705258
0.0738772
0.0757907
0.0798835
0.0858884
0.0973845
0.109188
0.121994
0.127041
0.148661
0.139534
0.0737089
0.043978
0.0310363
0.0536232
0.125258
0.072668
0.0867563
0.125977
0.182051
0.257315
0.334873
0.400443
0.401748
0.421841
0.460785
0.475719
0.362964
0.261437
0.191658
0.142781
0.118621
0.137334
0.430308
0.948188
1.09097
0.534835
0.266618
0.198103
0.186823
0.200717
0.229437
0.253045
0.2786
0.290467
0.355559
0.37107
0.464408
0.489593
0.512329
0.504861
0.473747
0.426976
0.336667
0.268165
0.214402
0.182692
0.145956
0.122006
0.120514
0.121595
0.120789
0.126369
0.142886
0.174952
0.294029
0.375424
0.340975
0.200466
0.145826
0.144333
0.125162
0.124422
0.129572
0.119708
0.125703
0.12324
0.169668
0.241688
0.24399
0.222248
0.194693
0.196364
0.204076
0.196788
0.18408
0.187232
0.192702
0.184022
0.17471
0.178414
0.178619
0.165852
0.163954
0.166496
0.165824
0.14631
0.097803
0.0686586
0.057976
0.0542884
0.0528093
0.0509726
0.0492069
0.0487767
0.0507773
0.0559098
0.06937
0.0807314
0.113155
0.144483
0.143903
0.0534235
0.0413866
0.066225
0.124156
0.0805902
0.102211
0.138726
0.192456
0.253288
0.315055
0.360526
0.37079
0.416707
0.44375
0.470662
0.390038
0.227477
0.180391
0.133889
0.115065
0.153184
0.539105
0.934514
0.816827
0.354736
0.20815
0.17771
0.179186
0.199747
0.227823
0.243227
0.282232
0.270254
0.360099
0.377081
0.466984
0.481323
0.494733
0.482155
0.440758
0.363933
0.271271
0.193732
0.138499
0.117825
0.106647
0.0963095
0.0959783
0.0985318
0.102273
0.120738
0.154146
0.194869
0.308215
0.342369
0.281571
0.197387
0.162035
0.155175
0.118714
0.113701
0.111595
0.116701
0.114222
0.115939
0.132093
0.18191
0.21582
0.211227
0.180718
0.163914
0.178496
0.197746
0.195179
0.191433
0.199487
0.204915
0.19308
0.175816
0.175831
0.171132
0.166301
0.168914
0.168744
0.160176
0.115824
0.0742968
0.0540447
0.0469926
0.043378
0.0405259
0.0374177
0.03402
0.0324432
0.0314776
0.033078
0.0361802
0.0464107
0.0834438
0.136232
0.0953126
0.0676311
0.0784277
0.124178
0.0884007
0.106661
0.137013
0.187133
0.235407
0.284582
0.331652
0.357046
0.415327
0.443632
0.489294
0.504731
0.238078
0.171724
0.137457
0.120114
0.180454
0.624251
0.871519
0.557148
0.249693
0.177181
0.171746
0.183167
0.198209
0.216468
0.223082
0.264765
0.262714
0.362949
0.39516
0.454629
0.469609
0.452458
0.429749
0.364017
0.271172
0.191314
0.135201
0.101664
0.0812498
0.0684832
0.0671255
0.0687513
0.0758562
0.0841394
0.110516
0.166432
0.211113
0.309895
0.324606
0.23602
0.174423
0.162332
0.160081
0.117831
0.108793
0.109142
0.106131
0.112698
0.116047
0.11894
0.154547
0.192192
0.189835
0.163202
0.139129
0.137716
0.15604
0.184964
0.193282
0.190768
0.186564
0.167451
0.157722
0.161769
0.184124
0.183528
0.178972
0.17521
0.168845
0.141011
0.085974
0.0572473
0.0450978
0.0406829
0.0371532
0.0343138
0.0311993
0.0287841
0.0269227
0.025903
0.02494
0.0258936
0.034259
0.081433
0.0971668
0.0824912
0.0846763
0.128719
0.0916209
0.103054
0.129137
0.174588
0.222115
0.265499
0.319051
0.395558
0.473039
0.503195
0.531743
0.543386
0.336617
0.196751
0.15661
0.14135
0.222401
0.678488
0.726263
0.379829
0.191741
0.155232
0.168287
0.183362
0.192036
0.221155
0.219904
0.251518
0.271719
0.378094