/*--------------------------------*- C++ -*----------------------------------*\
| =========                 |                                                 |
| \\      /  F ield         | OpenFOAM: The Open Source CFD Toolbox           |
|  \\    /   O peration     | Version:  2.4.0                                 |
|   \\  /    A nd           | Web:      www.OpenFOAM.org                      |
|    \\/     M anipulation  |                                                 |
\*---------------------------------------------------------------------------*/
FoamFile
{
    version     2.0;
    format      ascii;
    class       volScalarField;
    location    "0.024";
    object      pPrime2Mean;
}
// * * * * * * * * * * * * * * * * * * * * * * * * * * * * * * * * * * * * * //

dimensions      [0 4 -4 0 0 0 0];

internalField   nonuniform List<scalar> 
4400
(
2.65166e+07
2.51533e+07
2.37319e+07
2.23476e+07
2.10047e+07
1.97031e+07
1.84418e+07
1.72179e+07
1.60213e+07
1.48065e+07
2.65172e+07
2.51533e+07
2.37319e+07
2.23476e+07
2.10047e+07
1.97032e+07
1.84419e+07
1.72181e+07
1.60222e+07
1.48106e+07
2.65175e+07
2.51532e+07
2.37318e+07
2.23476e+07
2.10047e+07
1.97032e+07
1.8442e+07
1.72186e+07
1.60238e+07
1.48205e+07
2.65177e+07
2.51531e+07
2.37318e+07
2.23476e+07
2.10047e+07
1.97033e+07
1.84423e+07
1.72193e+07
1.60263e+07
1.48335e+07
2.65179e+07
2.5153e+07
2.37317e+07
2.23475e+07
2.10047e+07
1.97033e+07
1.84425e+07
1.72202e+07
1.60295e+07
1.48482e+07
2.65181e+07
2.51529e+07
2.37317e+07
2.23475e+07
2.10048e+07
1.97034e+07
1.84429e+07
1.72213e+07
1.60332e+07
1.48637e+07
2.65182e+07
2.51529e+07
2.37317e+07
2.23475e+07
2.10048e+07
1.97035e+07
1.84432e+07
1.72225e+07
1.60372e+07
1.48792e+07
2.65183e+07
2.51528e+07
2.37317e+07
2.23475e+07
2.10048e+07
1.97037e+07
1.84436e+07
1.72238e+07
1.60415e+07
1.48944e+07
2.65183e+07
2.51528e+07
2.37317e+07
2.23476e+07
2.10049e+07
1.97038e+07
1.84441e+07
1.72252e+07
1.6046e+07
1.4909e+07
2.65184e+07
2.51528e+07
2.37317e+07
2.23476e+07
2.10049e+07
1.97039e+07
1.84445e+07
1.72266e+07
1.60504e+07
1.49226e+07
2.65184e+07
2.51528e+07
2.37317e+07
2.23476e+07
2.1005e+07
1.97041e+07
1.8445e+07
1.72279e+07
1.60547e+07
1.49353e+07
2.65183e+07
2.51528e+07
2.37317e+07
2.23476e+07
2.1005e+07
1.97042e+07
1.84454e+07
1.72293e+07
1.60588e+07
1.49469e+07
2.65183e+07
2.51528e+07
2.37317e+07
2.23476e+07
2.10051e+07
1.97044e+07
1.84458e+07
1.72306e+07
1.60626e+07
1.49572e+07
2.65182e+07
2.51529e+07
2.37317e+07
2.23476e+07
2.10051e+07
1.97045e+07
1.84462e+07
1.72318e+07
1.60661e+07
1.49664e+07
2.65181e+07
2.51529e+07
2.37318e+07
2.23477e+07
2.10052e+07
1.97046e+07
1.84466e+07
1.72328e+07
1.60692e+07
1.49742e+07
2.65179e+07
2.5153e+07
2.37318e+07
2.23477e+07
2.10052e+07
1.97047e+07
1.84469e+07
1.72338e+07
1.60719e+07
1.49808e+07
2.65177e+07
2.51531e+07
2.37318e+07
2.23477e+07
2.10052e+07
1.97048e+07
1.84472e+07
1.72345e+07
1.6074e+07
1.49861e+07
2.65175e+07
2.51532e+07
2.37319e+07
2.23477e+07
2.10053e+07
1.97049e+07
1.84473e+07
1.72351e+07
1.60757e+07
1.49901e+07
2.65172e+07
2.51533e+07
2.37319e+07
2.23477e+07
2.10053e+07
1.97049e+07
1.84475e+07
1.72355e+07
1.60768e+07
1.49927e+07
2.65166e+07
2.51533e+07
2.37319e+07
2.23477e+07
2.10053e+07
1.9705e+07
1.84475e+07
1.72357e+07
1.60773e+07
1.4994e+07
1.37669e+07
1.35255e+07
1.33326e+07
1.31557e+07
1.29864e+07
1.28219e+07
1.26609e+07
1.25022e+07
1.23452e+07
1.21898e+07
1.20359e+07
1.18836e+07
1.17328e+07
1.15834e+07
1.14355e+07
1.12888e+07
1.11432e+07
1.09988e+07
1.08553e+07
1.0713e+07
1.05716e+07
1.04312e+07
1.02917e+07
1.01533e+07
1.00158e+07
9.8792e+06
9.74359e+06
9.60893e+06
9.47521e+06
9.34244e+06
9.2106e+06
9.07971e+06
8.94976e+06
8.82075e+06
8.69267e+06
8.56554e+06
8.43934e+06
8.31408e+06
8.18976e+06
8.06637e+06
7.94392e+06
7.82241e+06
7.70184e+06
7.5822e+06
7.4635e+06
7.34574e+06
7.22891e+06
7.11302e+06
6.99807e+06
6.88405e+06
6.77097e+06
6.65883e+06
6.54762e+06
6.43735e+06
6.32802e+06
6.21962e+06
6.11216e+06
6.00563e+06
5.90004e+06
5.79539e+06
5.69167e+06
5.58889e+06
5.48704e+06
5.38613e+06
5.28616e+06
5.18712e+06
5.08902e+06
4.99185e+06
4.89562e+06
4.80032e+06
4.70595e+06
4.61252e+06
4.52002e+06
4.42846e+06
4.33783e+06
4.24813e+06
4.15934e+06
4.07151e+06
3.98456e+06
3.89858e+06
3.81346e+06
3.72932e+06
3.64602e+06
3.5637e+06
3.4822e+06
3.40167e+06
3.32192e+06
3.24313e+06
3.16506e+06
3.08791e+06
3.0114e+06
2.93569e+06
2.86047e+06
2.78585e+06
2.71134e+06
2.63699e+06
2.56176e+06
2.48544e+06
2.40459e+06
2.31402e+06
1.38778e+07
1.36058e+07
1.33908e+07
1.32e+07
1.30212e+07
1.28498e+07
1.26833e+07
1.25203e+07
1.23601e+07
1.2202e+07
1.2046e+07
1.18919e+07
1.17397e+07
1.15892e+07
1.14402e+07
1.12927e+07
1.11464e+07
1.10014e+07
1.08575e+07
1.07148e+07
1.05731e+07
1.04324e+07
1.02927e+07
1.01541e+07
1.00164e+07
9.87976e+06
9.74405e+06
9.60931e+06
9.47552e+06
9.34269e+06
9.21081e+06
9.07989e+06
8.9499e+06
8.82086e+06
8.69277e+06
8.56561e+06
8.4394e+06
8.31413e+06
8.1898e+06
8.06641e+06
7.94395e+06
7.82244e+06
7.70186e+06
7.58222e+06
7.46351e+06
7.34575e+06
7.22892e+06
7.11303e+06
6.99807e+06
6.88405e+06
6.77097e+06
6.65883e+06
6.54762e+06
6.43734e+06
6.32801e+06
6.21961e+06
6.11214e+06
6.00561e+06
5.90002e+06
5.79536e+06
5.69164e+06
5.58886e+06
5.487e+06
5.38608e+06
5.2861e+06
5.18705e+06
5.08893e+06
4.99175e+06
4.89549e+06
4.80017e+06
4.70578e+06
4.61231e+06
4.51977e+06
4.42816e+06
4.33747e+06
4.24771e+06
4.15884e+06
4.07091e+06
3.98384e+06
3.89773e+06
3.81243e+06
3.7281e+06
3.64454e+06
3.56196e+06
3.4801e+06
3.39918e+06
3.31892e+06
3.23958e+06
3.16079e+06
3.08283e+06
3.00529e+06
2.92842e+06
2.85169e+06
2.77534e+06
2.69855e+06
2.62147e+06
2.54244e+06
2.4611e+06
2.3723e+06
2.26736e+06
1.3962e+07
1.36763e+07
1.34455e+07
1.32426e+07
1.30551e+07
1.28769e+07
1.27052e+07
1.25382e+07
1.23747e+07
1.22141e+07
1.2056e+07
1.19002e+07
1.17466e+07
1.15949e+07
1.14449e+07
1.12966e+07
1.11496e+07
1.10041e+07
1.08597e+07
1.07165e+07
1.05745e+07
1.04336e+07
1.02937e+07
1.01549e+07
1.00171e+07
9.88032e+06
9.74451e+06
9.60969e+06
9.47583e+06
9.34295e+06
9.21102e+06
9.08006e+06
8.95004e+06
8.82098e+06
8.69286e+06
8.56569e+06
8.43947e+06
8.31418e+06
8.18984e+06
8.06644e+06
7.94398e+06
7.82246e+06
7.70188e+06
7.58223e+06
7.46353e+06
7.34576e+06
7.22893e+06
7.11303e+06
6.99808e+06
6.88405e+06
6.77097e+06
6.65882e+06
6.54761e+06
6.43734e+06
6.328e+06
6.2196e+06
6.11213e+06
6.0056e+06
5.9e+06
5.79534e+06
5.69161e+06
5.58882e+06
5.48696e+06
5.38604e+06
5.28604e+06
5.18698e+06
5.08885e+06
4.99165e+06
4.89537e+06
4.80003e+06
4.70561e+06
4.61211e+06
4.51953e+06
4.42787e+06
4.33712e+06
4.24729e+06
4.15834e+06
4.07032e+06
3.98313e+06
3.89689e+06
3.81142e+06
3.72691e+06
3.6431e+06
3.56025e+06
3.47803e+06
3.39674e+06
3.31597e+06
3.23608e+06
3.15657e+06
3.07784e+06
2.99928e+06
2.92129e+06
2.8431e+06
2.76509e+06
2.68613e+06
2.6065e+06
2.52401e+06
2.43836e+06
2.34367e+06
2.2321e+06
1.40288e+07
1.37375e+07
1.34957e+07
1.3283e+07
1.30876e+07
1.29032e+07
1.27266e+07
1.25556e+07
1.23889e+07
1.22258e+07
1.20657e+07
1.19083e+07
1.17533e+07
1.16004e+07
1.14496e+07
1.13004e+07
1.11528e+07
1.10066e+07
1.08618e+07
1.07183e+07
1.0576e+07
1.04348e+07
1.02947e+07
1.01557e+07
1.00178e+07
9.88086e+06
9.74496e+06
9.61005e+06
9.47614e+06
9.3432e+06
9.21123e+06
9.08023e+06
8.95018e+06
8.82109e+06
8.69296e+06
8.56577e+06
8.43953e+06
8.31424e+06
8.18988e+06
8.06648e+06
7.94401e+06
7.82248e+06
7.70189e+06
7.58225e+06
7.46354e+06
7.34577e+06
7.22893e+06
7.11304e+06
6.99808e+06
6.88406e+06
6.77097e+06
6.65882e+06
6.54761e+06
6.43733e+06
6.32799e+06
6.21959e+06
6.11212e+06
6.00558e+06
5.89998e+06
5.79532e+06
5.69159e+06
5.58879e+06
5.48692e+06
5.38599e+06
5.28598e+06
5.18691e+06
5.08876e+06
4.99155e+06
4.89525e+06
4.79988e+06
4.70543e+06
4.6119e+06
4.51928e+06
4.42758e+06
4.33677e+06
4.24688e+06
4.15785e+06
4.06974e+06
3.98244e+06
3.89606e+06
3.81042e+06
3.72572e+06
3.64168e+06
3.55857e+06
3.47601e+06
3.39435e+06
3.31309e+06
3.23268e+06
3.15246e+06
3.07299e+06
2.99341e+06
2.91436e+06
2.83474e+06
2.75517e+06
2.67418e+06
2.59221e+06
2.50671e+06
2.41748e+06
2.31884e+06
2.20479e+06
1.40834e+07
1.37907e+07
1.35414e+07
1.33207e+07
1.31184e+07
1.29284e+07
1.27472e+07
1.25725e+07
1.24028e+07
1.22373e+07
1.20752e+07
1.19162e+07
1.17598e+07
1.16059e+07
1.14541e+07
1.13041e+07
1.11559e+07
1.10092e+07
1.08639e+07
1.072e+07
1.05774e+07
1.0436e+07
1.02957e+07
1.01565e+07
1.00184e+07
9.8814e+06
9.7454e+06
9.61042e+06
9.47643e+06
9.34344e+06
9.21143e+06
9.08039e+06
8.95032e+06
8.82121e+06
8.69305e+06
8.56585e+06
8.43959e+06
8.31429e+06
8.18993e+06
8.06651e+06
7.94404e+06
7.8225e+06
7.70191e+06
7.58226e+06
7.46355e+06
7.34578e+06
7.22894e+06
7.11304e+06
6.99808e+06
6.88406e+06
6.77097e+06
6.65882e+06
6.54761e+06
6.43733e+06
6.32798e+06
6.21958e+06
6.11211e+06
6.00557e+06
5.89996e+06
5.79529e+06
5.69156e+06
5.58875e+06
5.48688e+06
5.38594e+06
5.28593e+06
5.18684e+06
5.08868e+06
4.99145e+06
4.89514e+06
4.79974e+06
4.70527e+06
4.6117e+06
4.51905e+06
4.42729e+06
4.33643e+06
4.24647e+06
4.15736e+06
4.06916e+06
3.98175e+06
3.89524e+06
3.80945e+06
3.72456e+06
3.64031e+06
3.55693e+06
3.47406e+06
3.39203e+06
3.31031e+06
3.22938e+06
3.1485e+06
3.06831e+06
2.98777e+06
2.9077e+06
2.82672e+06
2.74569e+06
2.66277e+06
2.57869e+06
2.49064e+06
2.39852e+06
2.29754e+06
2.18296e+06
1.4129e+07
1.38369e+07
1.35827e+07
1.33557e+07
1.31475e+07
1.29524e+07
1.27669e+07
1.25887e+07
1.24162e+07
1.22484e+07
1.20844e+07
1.19238e+07
1.17662e+07
1.16112e+07
1.14584e+07
1.13077e+07
1.11588e+07
1.10116e+07
1.0866e+07
1.07217e+07
1.05788e+07
1.04371e+07
1.02966e+07
1.01573e+07
1.00191e+07
9.88192e+06
9.74583e+06
9.61077e+06
9.47672e+06
9.34368e+06
9.21163e+06
9.08055e+06
8.95045e+06
8.82131e+06
8.69314e+06
8.56592e+06
8.43965e+06
8.31434e+06
8.18997e+06
8.06654e+06
7.94406e+06
7.82253e+06
7.70193e+06
7.58228e+06
7.46356e+06
7.34578e+06
7.22895e+06
7.11305e+06
6.99808e+06
6.88406e+06
6.77097e+06
6.65882e+06
6.5476e+06
6.43732e+06
6.32798e+06
6.21957e+06
6.11209e+06
6.00555e+06
5.89995e+06
5.79527e+06
5.69153e+06
5.58872e+06
5.48684e+06
5.38589e+06
5.28587e+06
5.18678e+06
5.0886e+06
4.99135e+06
4.89502e+06
4.79961e+06
4.70511e+06
4.61151e+06
4.51881e+06
4.42702e+06
4.3361e+06
4.24607e+06
4.15689e+06
4.0686e+06
3.98109e+06
3.89445e+06
3.80852e+06
3.72343e+06
3.63898e+06
3.55533e+06
3.47217e+06
3.38976e+06
3.30762e+06
3.22617e+06
3.14469e+06
3.06378e+06
2.98238e+06
2.90132e+06
2.8191e+06
2.73671e+06
2.65207e+06
2.56613e+06
2.47598e+06
2.38155e+06
2.27911e+06
2.16496e+06
1.41676e+07
1.38772e+07
1.36197e+07
1.33878e+07
1.31746e+07
1.2975e+07
1.27856e+07
1.26042e+07
1.24291e+07
1.22591e+07
1.20933e+07
1.19312e+07
1.17723e+07
1.16163e+07
1.14627e+07
1.13112e+07
1.11617e+07
1.1014e+07
1.08679e+07
1.07233e+07
1.05801e+07
1.04382e+07
1.02975e+07
1.0158e+07
1.00197e+07
9.88242e+06
9.74624e+06
9.61111e+06
9.477e+06
9.34391e+06
9.21182e+06
9.08071e+06
8.95058e+06
8.82142e+06
8.69322e+06
8.56599e+06
8.43971e+06
8.31438e+06
8.19001e+06
8.06657e+06
7.94409e+06
7.82255e+06
7.70195e+06
7.58229e+06
7.46357e+06
7.34579e+06
7.22895e+06
7.11305e+06
6.99809e+06
6.88406e+06
6.77097e+06
6.65882e+06
6.5476e+06
6.43732e+06
6.32797e+06
6.21956e+06
6.11208e+06
6.00554e+06
5.89993e+06
5.79525e+06
5.69151e+06
5.58869e+06
5.48681e+06
5.38585e+06
5.28582e+06
5.18671e+06
5.08853e+06
4.99126e+06
4.89491e+06
4.79948e+06
4.70495e+06
4.61132e+06
4.51859e+06
4.42675e+06
4.33578e+06
4.24569e+06
4.15644e+06
4.06805e+06
3.98045e+06
3.89368e+06
3.80762e+06
3.72235e+06
3.63771e+06
3.5538e+06
3.47036e+06
3.38758e+06
3.30505e+06
3.22308e+06
3.14104e+06
3.0594e+06
2.97723e+06
2.89518e+06
2.81189e+06
2.7282e+06
2.64215e+06
2.55455e+06
2.46275e+06
2.36653e+06
2.26305e+06
2.1498e+06
1.42007e+07
1.39124e+07
1.36529e+07
1.34171e+07
1.31996e+07
1.29961e+07
1.28032e+07
1.26189e+07
1.24413e+07
1.22692e+07
1.21018e+07
1.19383e+07
1.17782e+07
1.16211e+07
1.14667e+07
1.13145e+07
1.11645e+07
1.10163e+07
1.08698e+07
1.07248e+07
1.05814e+07
1.04392e+07
1.02984e+07
1.01587e+07
1.00203e+07
9.8829e+06
9.74663e+06
9.61143e+06
9.47727e+06
9.34413e+06
9.212e+06
9.08086e+06
8.9507e+06
8.82152e+06
8.69331e+06
8.56606e+06
8.43977e+06
8.31443e+06
8.19004e+06
8.06661e+06
7.94411e+06
7.82257e+06
7.70196e+06
7.5823e+06
7.46358e+06
7.3458e+06
7.22896e+06
7.11305e+06
6.99809e+06
6.88406e+06
6.77097e+06
6.65881e+06
6.54759e+06
6.43731e+06
6.32796e+06
6.21955e+06
6.11207e+06
6.00552e+06
5.89991e+06
5.79523e+06
5.69148e+06
5.58866e+06
5.48677e+06
5.38581e+06
5.28577e+06
5.18665e+06
5.08845e+06
4.99118e+06
4.89481e+06
4.79935e+06
4.7048e+06
4.61114e+06
4.51838e+06
4.42649e+06
4.33547e+06
4.24532e+06
4.156e+06
4.06753e+06
3.97983e+06
3.89294e+06
3.80676e+06
3.72132e+06
3.6365e+06
3.55235e+06
3.46864e+06
3.38552e+06
3.30261e+06
3.22015e+06
3.13759e+06
3.05527e+06
2.97238e+06
2.88939e+06
2.80515e+06
2.72021e+06
2.63297e+06
2.54383e+06
2.45072e+06
2.35306e+06
2.24896e+06
2.13683e+06
1.42294e+07
1.39431e+07
1.36824e+07
1.34436e+07
1.32226e+07
1.30157e+07
1.28197e+07
1.26326e+07
1.24528e+07
1.22788e+07
1.21098e+07
1.19449e+07
1.17838e+07
1.16258e+07
1.14705e+07
1.13177e+07
1.11671e+07
1.10184e+07
1.08716e+07
1.07263e+07
1.05826e+07
1.04402e+07
1.02992e+07
1.01594e+07
1.00208e+07
9.88335e+06
9.74701e+06
9.61174e+06
9.47752e+06
9.34434e+06
9.21217e+06
9.081e+06
8.95082e+06
8.82161e+06
8.69338e+06
8.56612e+06
8.43982e+06
8.31447e+06
8.19008e+06
8.06663e+06
7.94414e+06
7.82259e+06
7.70198e+06
7.58231e+06
7.46359e+06
7.34581e+06
7.22896e+06
7.11306e+06
6.99809e+06
6.88406e+06
6.77097e+06
6.65881e+06
6.54759e+06
6.43731e+06
6.32796e+06
6.21954e+06
6.11206e+06
6.00551e+06
5.8999e+06
5.79521e+06
5.69146e+06
5.58863e+06
5.48674e+06
5.38577e+06
5.28572e+06
5.18659e+06
5.08839e+06
4.99109e+06
4.89471e+06
4.79923e+06
4.70466e+06
4.61097e+06
4.51817e+06
4.42625e+06
4.33518e+06
4.24497e+06
4.15559e+06
4.06703e+06
3.97925e+06
3.89225e+06
3.80595e+06
3.72035e+06
3.63536e+06
3.55097e+06
3.46702e+06
3.38357e+06
3.30031e+06
3.2174e+06
3.13435e+06
3.05141e+06
2.96785e+06
2.88401e+06
2.7989e+06
2.71282e+06
2.62455e+06
2.53396e+06
2.43975e+06
2.3409e+06
2.23658e+06
2.12556e+06
1.42543e+07
1.397e+07
1.37085e+07
1.34675e+07
1.32436e+07
1.30337e+07
1.2835e+07
1.26455e+07
1.24635e+07
1.22878e+07
1.21173e+07
1.19512e+07
1.1789e+07
1.16301e+07
1.14741e+07
1.13207e+07
1.11696e+07
1.10205e+07
1.08732e+07
1.07277e+07
1.05837e+07
1.04411e+07
1.02999e+07
1.016e+07
1.00213e+07
9.88378e+06
9.74736e+06
9.61203e+06
9.47776e+06
9.34453e+06
9.21233e+06
9.08113e+06
8.95092e+06
8.8217e+06
8.69346e+06
8.56618e+06
8.43987e+06
8.31451e+06
8.19011e+06
8.06666e+06
7.94416e+06
7.8226e+06
7.70199e+06
7.58233e+06
7.4636e+06
7.34581e+06
7.22897e+06
7.11306e+06
6.99809e+06
6.88406e+06
6.77097e+06
6.65881e+06
6.54759e+06
6.4373e+06
6.32795e+06
6.21953e+06
6.11205e+06
6.0055e+06
5.89988e+06
5.79519e+06
5.69144e+06
5.58861e+06
5.48671e+06
5.38573e+06
5.28567e+06
5.18654e+06
5.08832e+06
4.99101e+06
4.89462e+06
4.79912e+06
4.70452e+06
4.61081e+06
4.51798e+06
4.42602e+06
4.33491e+06
4.24465e+06
4.1552e+06
4.06656e+06
3.9787e+06
3.89159e+06
3.80519e+06
3.71944e+06
3.63428e+06
3.54967e+06
3.46549e+06
3.38174e+06
3.29817e+06
3.21483e+06
3.13135e+06
3.04781e+06
2.96365e+06
2.87902e+06
2.79313e+06
2.70599e+06
2.61675e+06
2.52491e+06
2.42975e+06
2.32999e+06
2.22571e+06
2.11573e+06
1.42759e+07
1.39934e+07
1.37315e+07
1.34888e+07
1.32625e+07
1.305e+07
1.28489e+07
1.26573e+07
1.24734e+07
1.22961e+07
1.21242e+07
1.1957e+07
1.17939e+07
1.16342e+07
1.14775e+07
1.13235e+07
1.11719e+07
1.10224e+07
1.08748e+07
1.0729e+07
1.05847e+07
1.0442e+07
1.03007e+07
1.01606e+07
1.00218e+07
9.88417e+06
9.74768e+06
9.6123e+06
9.47798e+06
9.34471e+06
9.21248e+06
9.08125e+06
8.95103e+06
8.82179e+06
8.69353e+06
8.56624e+06
8.43991e+06
8.31455e+06
8.19014e+06
8.06669e+06
7.94418e+06
7.82262e+06
7.70201e+06
7.58234e+06
7.46361e+06
7.34582e+06
7.22897e+06
7.11306e+06
6.99809e+06
6.88406e+06
6.77097e+06
6.65881e+06
6.54758e+06
6.4373e+06
6.32794e+06
6.21953e+06
6.11204e+06
6.00549e+06
5.89987e+06
5.79518e+06
5.69142e+06
5.58858e+06
5.48668e+06
5.38569e+06
5.28563e+06
5.18649e+06
5.08826e+06
4.99094e+06
4.89453e+06
4.79902e+06
4.7044e+06
4.61067e+06
4.51781e+06
4.42581e+06
4.33466e+06
4.24434e+06
4.15483e+06
4.06612e+06
3.97818e+06
3.89097e+06
3.80447e+06
3.71857e+06
3.63326e+06
3.54844e+06
3.46406e+06
3.38002e+06
3.29617e+06
3.21243e+06
3.12855e+06
3.04447e+06
2.95978e+06
2.87439e+06
2.78779e+06
2.69968e+06
2.60956e+06
2.51664e+06
2.4207e+06
2.32032e+06
2.2162e+06
2.10719e+06
1.42947e+07
1.40137e+07
1.37517e+07
1.35076e+07
1.32794e+07
1.30648e+07
1.28616e+07
1.2668e+07
1.24824e+07
1.23036e+07
1.21306e+07
1.19624e+07
1.17983e+07
1.16379e+07
1.14806e+07
1.13261e+07
1.1174e+07
1.10241e+07
1.08762e+07
1.07301e+07
1.05857e+07
1.04428e+07
1.03013e+07
1.01612e+07
1.00222e+07
9.88454e+06
9.74798e+06
9.61254e+06
9.47818e+06
9.34488e+06
9.21261e+06
9.08136e+06
8.95112e+06
8.82186e+06
8.69359e+06
8.56629e+06
8.43996e+06
8.31458e+06
8.19017e+06
8.06671e+06
7.9442e+06
7.82264e+06
7.70202e+06
7.58235e+06
7.46362e+06
7.34583e+06
7.22898e+06
7.11307e+06
6.9981e+06
6.88406e+06
6.77097e+06
6.65881e+06
6.54758e+06
6.43729e+06
6.32794e+06
6.21952e+06
6.11203e+06
6.00548e+06
5.89985e+06
5.79516e+06
5.6914e+06
5.58856e+06
5.48665e+06
5.38566e+06
5.28559e+06
5.18644e+06
5.0882e+06
4.99088e+06
4.89445e+06
4.79892e+06
4.70429e+06
4.61053e+06
4.51764e+06
4.42561e+06
4.33443e+06
4.24406e+06
4.1545e+06
4.06572e+06
3.9777e+06
3.89039e+06
3.80379e+06
3.71776e+06
3.63231e+06
3.54729e+06
3.46272e+06
3.37841e+06
3.2943e+06
3.2102e+06
3.12595e+06
3.04136e+06
2.95618e+06
2.8701e+06
2.78286e+06
2.69387e+06
2.60299e+06
2.50915e+06
2.41263e+06
2.31188e+06
2.20795e+06
2.09983e+06
1.43108e+07
1.40311e+07
1.37691e+07
1.3524e+07
1.32942e+07
1.30778e+07
1.28728e+07
1.26776e+07
1.24905e+07
1.23105e+07
1.21363e+07
1.19672e+07
1.18024e+07
1.16413e+07
1.14834e+07
1.13284e+07
1.11759e+07
1.10257e+07
1.08775e+07
1.07312e+07
1.05866e+07
1.04435e+07
1.03019e+07
1.01616e+07
1.00226e+07
9.88487e+06
9.74825e+06
9.61276e+06
9.47837e+06
9.34503e+06
9.21274e+06
9.08147e+06
8.9512e+06
8.82193e+06
8.69365e+06
8.56634e+06
8.43999e+06
8.31462e+06
8.1902e+06
8.06673e+06
7.94422e+06
7.82265e+06
7.70203e+06
7.58236e+06
7.46362e+06
7.34583e+06
7.22898e+06
7.11307e+06
6.9981e+06
6.88406e+06
6.77097e+06
6.6588e+06
6.54758e+06
6.43729e+06
6.32793e+06
6.21951e+06
6.11202e+06
6.00547e+06
5.89984e+06
5.79515e+06
5.69138e+06
5.58854e+06
5.48662e+06
5.38563e+06
5.28556e+06
5.1864e+06
5.08815e+06
4.99081e+06
4.89438e+06
4.79884e+06
4.70418e+06
4.61041e+06
4.5175e+06
4.42544e+06
4.33422e+06
4.24381e+06
4.1542e+06
4.06535e+06
3.97727e+06
3.88986e+06
3.80316e+06
3.717e+06
3.63143e+06
3.54623e+06
3.46148e+06
3.37691e+06
3.29258e+06
3.20812e+06
3.12356e+06
3.03848e+06
2.95287e+06
2.86615e+06
2.77834e+06
2.68857e+06
2.59707e+06
2.50249e+06
2.40554e+06
2.30461e+06
2.20086e+06
2.09351e+06
1.43247e+07
1.40461e+07
1.37841e+07
1.35382e+07
1.33071e+07
1.30892e+07
1.28827e+07
1.2686e+07
1.24977e+07
1.23165e+07
1.21414e+07
1.19715e+07
1.1806e+07
1.16443e+07
1.14859e+07
1.13305e+07
1.11776e+07
1.10271e+07
1.08786e+07
1.07321e+07
1.05874e+07
1.04442e+07
1.03024e+07
1.01621e+07
1.0023e+07
9.88516e+06
9.7485e+06
9.61296e+06
9.47853e+06
9.34517e+06
9.21285e+06
9.08156e+06
8.95128e+06
8.82199e+06
8.6937e+06
8.56638e+06
8.44003e+06
8.31464e+06
8.19022e+06
8.06675e+06
7.94423e+06
7.82266e+06
7.70204e+06
7.58236e+06
7.46363e+06
7.34584e+06
7.22899e+06
7.11307e+06
6.9981e+06
6.88406e+06
6.77097e+06
6.6588e+06
6.54758e+06
6.43729e+06
6.32793e+06
6.21951e+06
6.11202e+06
6.00546e+06
5.89983e+06
5.79514e+06
5.69137e+06
5.58852e+06
5.4866e+06
5.3856e+06
5.28553e+06
5.18636e+06
5.08811e+06
4.99076e+06
4.89431e+06
4.79876e+06
4.70409e+06
4.6103e+06
4.51736e+06
4.42528e+06
4.33403e+06
4.24358e+06
4.15393e+06
4.06503e+06
3.97688e+06
3.88938e+06
3.80259e+06
3.71631e+06
3.63063e+06
3.54526e+06
3.46036e+06
3.37554e+06
3.29101e+06
3.20621e+06
3.12138e+06
3.03585e+06
2.94988e+06
2.86257e+06
2.77429e+06
2.68385e+06
2.59184e+06
2.49673e+06
2.39945e+06
2.29845e+06
2.19485e+06
2.08812e+06
1.43363e+07
1.40586e+07
1.37966e+07
1.35501e+07
1.3318e+07
1.30989e+07
1.28912e+07
1.26933e+07
1.25039e+07
1.23218e+07
1.21458e+07
1.19752e+07
1.18091e+07
1.16469e+07
1.14881e+07
1.13323e+07
1.11791e+07
1.10283e+07
1.08796e+07
1.0733e+07
1.0588e+07
1.04447e+07
1.03029e+07
1.01624e+07
1.00233e+07
9.88541e+06
9.7487e+06
9.61314e+06
9.47867e+06
9.34528e+06
9.21294e+06
9.08164e+06
8.95134e+06
8.82205e+06
8.69374e+06
8.56641e+06
8.44006e+06
8.31467e+06
8.19024e+06
8.06677e+06
7.94425e+06
7.82267e+06
7.70205e+06
7.58237e+06
7.46364e+06
7.34584e+06
7.22899e+06
7.11308e+06
6.9981e+06
6.88406e+06
6.77097e+06
6.6588e+06
6.54758e+06
6.43728e+06
6.32793e+06
6.2195e+06
6.11201e+06
6.00545e+06
5.89982e+06
5.79512e+06
5.69135e+06
5.58851e+06
5.48658e+06
5.38558e+06
5.2855e+06
5.18633e+06
5.08807e+06
4.99071e+06
4.89426e+06
4.79869e+06
4.70401e+06
4.6102e+06
4.51725e+06
4.42514e+06
4.33387e+06
4.24339e+06
4.1537e+06
4.06475e+06
3.97654e+06
3.88896e+06
3.80209e+06
3.71569e+06
3.62992e+06
3.54439e+06
3.45937e+06
3.37432e+06
3.28962e+06
3.2045e+06
3.11946e+06
3.0335e+06
2.94723e+06
2.85941e+06
2.77076e+06
2.67978e+06
2.58737e+06
2.49188e+06
2.39432e+06
2.2933e+06
2.18982e+06
2.08359e+06
1.43458e+07
1.40688e+07
1.38069e+07
1.356e+07
1.33271e+07
1.3107e+07
1.28983e+07
1.26994e+07
1.25091e+07
1.23262e+07
1.21496e+07
1.19783e+07
1.18117e+07
1.16491e+07
1.14899e+07
1.13338e+07
1.11803e+07
1.10293e+07
1.08805e+07
1.07336e+07
1.05886e+07
1.04452e+07
1.03033e+07
1.01628e+07
1.00236e+07
9.88563e+06
9.74888e+06
9.61328e+06
9.47879e+06
9.34538e+06
9.21303e+06
9.0817e+06
8.9514e+06
8.82209e+06
8.69378e+06
8.56644e+06
8.44008e+06
8.31469e+06
8.19026e+06
8.06678e+06
7.94426e+06
7.82268e+06
7.70206e+06
7.58238e+06
7.46364e+06
7.34584e+06
7.22899e+06
7.11308e+06
6.9981e+06
6.88406e+06
6.77096e+06
6.6588e+06
6.54757e+06
6.43728e+06
6.32792e+06
6.2195e+06
6.11201e+06
6.00545e+06
5.89982e+06
5.79512e+06
5.69134e+06
5.58849e+06
5.48657e+06
5.38556e+06
5.28548e+06
5.1863e+06
5.08804e+06
4.99068e+06
4.89421e+06
4.79864e+06
4.70394e+06
4.61012e+06
4.51716e+06
4.42503e+06
4.33373e+06
4.24322e+06
4.15351e+06
4.06451e+06
3.97626e+06
3.88861e+06
3.80167e+06
3.71517e+06
3.62932e+06
3.54365e+06
3.45853e+06
3.37327e+06
3.28843e+06
3.20303e+06
3.11781e+06
3.03149e+06
2.94497e+06
2.85673e+06
2.76778e+06
2.6764e+06
2.58365e+06
2.4879e+06
2.3901e+06
2.2891e+06
2.1857e+06
2.07987e+06
1.43533e+07
1.40769e+07
1.38151e+07
1.35678e+07
1.33343e+07
1.31135e+07
1.2904e+07
1.27043e+07
1.25133e+07
1.23297e+07
1.21526e+07
1.19808e+07
1.18138e+07
1.16508e+07
1.14914e+07
1.1335e+07
1.11813e+07
1.10301e+07
1.08811e+07
1.07342e+07
1.0589e+07
1.04456e+07
1.03036e+07
1.0163e+07
1.00238e+07
9.8858e+06
9.74902e+06
9.6134e+06
9.47889e+06
9.34546e+06
9.21309e+06
9.08176e+06
8.95144e+06
8.82213e+06
8.69381e+06
8.56647e+06
8.4401e+06
8.31471e+06
8.19027e+06
8.06679e+06
7.94427e+06
7.82269e+06
7.70206e+06
7.58238e+06
7.46364e+06
7.34585e+06
7.22899e+06
7.11308e+06
6.9981e+06
6.88407e+06
6.77096e+06
6.6588e+06
6.54757e+06
6.43728e+06
6.32792e+06
6.2195e+06
6.112e+06
6.00544e+06
5.89981e+06
5.79511e+06
5.69133e+06
5.58848e+06
5.48655e+06
5.38555e+06
5.28546e+06
5.18628e+06
5.08801e+06
4.99064e+06
4.89417e+06
4.79859e+06
4.70389e+06
4.61006e+06
4.51708e+06
4.42494e+06
4.33362e+06
4.24309e+06
4.15335e+06
4.06432e+06
3.97604e+06
3.88833e+06
3.80134e+06
3.71475e+06
3.62883e+06
3.54305e+06
3.45785e+06
3.37243e+06
3.28746e+06
3.20184e+06
3.11646e+06
3.02986e+06
2.94314e+06
2.85459e+06
2.76538e+06
2.67372e+06
2.5807e+06
2.48476e+06
2.38676e+06
2.28578e+06
2.18245e+06
2.07691e+06
1.43589e+07
1.40829e+07
1.38211e+07
1.35736e+07
1.33397e+07
1.31183e+07
1.29082e+07
1.2708e+07
1.25165e+07
1.23324e+07
1.21548e+07
1.19827e+07
1.18154e+07
1.16521e+07
1.14924e+07
1.13359e+07
1.1182e+07
1.10307e+07
1.08817e+07
1.07346e+07
1.05894e+07
1.04458e+07
1.03038e+07
1.01632e+07
1.00239e+07
9.88593e+06
9.74913e+06
9.61349e+06
9.47896e+06
9.34552e+06
9.21314e+06
9.0818e+06
8.95147e+06
8.82215e+06
8.69383e+06
8.56649e+06
8.44012e+06
8.31472e+06
8.19028e+06
8.0668e+06
7.94427e+06
7.8227e+06
7.70207e+06
7.58238e+06
7.46365e+06
7.34585e+06
7.22899e+06
7.11308e+06
6.9981e+06
6.88407e+06
6.77096e+06
6.6588e+06
6.54757e+06
6.43728e+06
6.32792e+06
6.21949e+06
6.112e+06
6.00544e+06
5.89981e+06
5.7951e+06
5.69133e+06
5.58847e+06
5.48655e+06
5.38554e+06
5.28544e+06
5.18626e+06
5.08799e+06
4.99062e+06
4.89415e+06
4.79856e+06
4.70385e+06
4.61001e+06
4.51702e+06
4.42487e+06
4.33354e+06
4.24299e+06
4.15323e+06
4.06418e+06
3.97587e+06
3.88812e+06
3.8011e+06
3.71444e+06
3.62846e+06
3.5426e+06
3.45732e+06
3.37179e+06
3.28673e+06
3.20094e+06
3.11543e+06
3.02864e+06
2.94176e+06
2.85298e+06
2.76359e+06
2.67172e+06
2.57849e+06
2.48242e+06
2.38426e+06
2.28331e+06
2.18005e+06
2.07471e+06
1.43625e+07
1.40868e+07
1.38251e+07
1.35775e+07
1.33433e+07
1.31216e+07
1.29111e+07
1.27105e+07
1.25186e+07
1.23342e+07
1.21563e+07
1.1984e+07
1.18164e+07
1.1653e+07
1.14931e+07
1.13364e+07
1.11825e+07
1.10311e+07
1.0882e+07
1.07349e+07
1.05896e+07
1.0446e+07
1.0304e+07
1.01633e+07
1.0024e+07
9.88602e+06
9.7492e+06
9.61354e+06
9.47901e+06
9.34556e+06
9.21317e+06
9.08182e+06
8.9515e+06
8.82217e+06
8.69384e+06
8.5665e+06
8.44013e+06
8.31473e+06
8.19029e+06
8.0668e+06
7.94428e+06
7.8227e+06
7.70207e+06
7.58239e+06
7.46365e+06
7.34585e+06
7.229e+06
7.11308e+06
6.9981e+06
6.88407e+06
6.77096e+06
6.6588e+06
6.54757e+06
6.43728e+06
6.32792e+06
6.21949e+06
6.112e+06
6.00544e+06
5.8998e+06
5.7951e+06
5.69132e+06
5.58847e+06
5.48654e+06
5.38553e+06
5.28543e+06
5.18625e+06
5.08798e+06
4.9906e+06
4.89413e+06
4.79853e+06
4.70382e+06
4.60997e+06
4.51698e+06
4.42482e+06
4.33348e+06
4.24292e+06
4.15315e+06
4.06408e+06
3.97575e+06
3.88799e+06
3.80094e+06
3.71424e+06
3.62824e+06
3.5423e+06
3.45699e+06
3.37138e+06
3.28625e+06
3.20035e+06
3.11475e+06
3.02783e+06
2.94084e+06
2.85192e+06
2.76239e+06
2.6704e+06
2.57702e+06
2.48088e+06
2.38259e+06
2.28167e+06
2.17846e+06
2.07325e+06
1.43643e+07
1.40888e+07
1.38271e+07
1.35794e+07
1.33451e+07
1.31232e+07
1.29125e+07
1.27117e+07
1.25197e+07
1.23351e+07
1.2157e+07
1.19846e+07
1.18169e+07
1.16534e+07
1.14935e+07
1.13367e+07
1.11828e+07
1.10313e+07
1.08822e+07
1.0735e+07
1.05897e+07
1.04461e+07
1.0304e+07
1.01634e+07
1.00241e+07
9.88606e+06
9.74924e+06
9.61357e+06
9.47903e+06
9.34558e+06
9.21319e+06
9.08184e+06
8.95151e+06
8.82218e+06
8.69385e+06
8.5665e+06
8.44013e+06
8.31473e+06
8.19029e+06
8.06681e+06
7.94428e+06
7.8227e+06
7.70207e+06
7.58239e+06
7.46365e+06
7.34585e+06
7.229e+06
7.11308e+06
6.9981e+06
6.88407e+06
6.77096e+06
6.6588e+06
6.54757e+06
6.43728e+06
6.32792e+06
6.21949e+06
6.112e+06
6.00543e+06
5.8998e+06
5.7951e+06
5.69132e+06
5.58847e+06
5.48654e+06
5.38552e+06
5.28543e+06
5.18625e+06
5.08797e+06
4.9906e+06
4.89412e+06
4.79852e+06
4.70381e+06
4.60996e+06
4.51696e+06
4.4248e+06
4.33345e+06
4.24289e+06
4.15311e+06
4.06403e+06
3.97569e+06
3.88792e+06
3.80086e+06
3.71415e+06
3.62812e+06
3.54216e+06
3.45683e+06
3.37117e+06
3.28602e+06
3.20007e+06
3.11443e+06
3.02744e+06
2.94039e+06
2.8514e+06
2.7618e+06
2.66974e+06
2.57629e+06
2.48012e+06
2.38178e+06
2.28086e+06
2.17768e+06
2.07254e+06
1.27082e+07
1.26893e+07
1.26521e+07
1.25979e+07
1.25286e+07
1.24459e+07
1.23519e+07
1.22482e+07
1.21367e+07
1.20187e+07
1.18955e+07
1.17684e+07
1.16383e+07
1.15059e+07
1.13717e+07
1.12363e+07
1.11001e+07
1.09633e+07
1.08262e+07
1.0689e+07
1.05518e+07
1.04149e+07
1.02784e+07
1.01423e+07
1.00067e+07
9.87176e+06
9.73747e+06
9.60389e+06
9.47107e+06
9.33903e+06
9.2078e+06
9.07741e+06
8.94787e+06
8.81919e+06
8.69139e+06
8.56449e+06
8.43848e+06
8.31337e+06
8.18918e+06
8.0659e+06
7.94354e+06
7.8221e+06
7.70159e+06
7.582e+06
7.46334e+06
7.34562e+06
7.22882e+06
7.11296e+06
6.99803e+06
6.88404e+06
6.77098e+06
6.65886e+06
6.54768e+06
6.43743e+06
6.32812e+06
6.21976e+06
6.11233e+06
6.00584e+06
5.9003e+06
5.7957e+06
5.69205e+06
5.58935e+06
5.48759e+06
5.38679e+06
5.28695e+06
5.18807e+06
5.09015e+06
4.99321e+06
4.89724e+06
4.80226e+06
4.70827e+06
4.61529e+06
4.52333e+06
4.43241e+06
4.34255e+06
4.25377e+06
4.1661e+06
4.07957e+06
3.99422e+06
3.9101e+06
3.82727e+06
3.7458e+06
3.66576e+06
3.58727e+06
3.51042e+06
3.43538e+06
3.3623e+06
3.29138e+06
3.22288e+06
3.15708e+06
3.09432e+06
3.03503e+06
2.97968e+06
2.92883e+06
2.88314e+06
2.84333e+06
2.81015e+06
2.78438e+06
2.76674e+06
2.75776e+06
1.27115e+07
1.26925e+07
1.26551e+07
1.26006e+07
1.2531e+07
1.2448e+07
1.23536e+07
1.22497e+07
1.21379e+07
1.20197e+07
1.18964e+07
1.17691e+07
1.16388e+07
1.15063e+07
1.13721e+07
1.12367e+07
1.11004e+07
1.09635e+07
1.08263e+07
1.06891e+07
1.05519e+07
1.0415e+07
1.02785e+07
1.01423e+07
1.00068e+07
9.8718e+06
9.73751e+06
9.60392e+06
9.47109e+06
9.33905e+06
9.20782e+06
9.07742e+06
8.94788e+06
8.8192e+06
8.6914e+06
8.56449e+06
8.43848e+06
8.31337e+06
8.18918e+06
8.0659e+06
7.94354e+06
7.8221e+06
7.70159e+06
7.582e+06
7.46334e+06
7.34562e+06
7.22882e+06
7.11296e+06
6.99803e+06
6.88404e+06
6.77098e+06
6.65886e+06
6.54768e+06
6.43743e+06
6.32812e+06
6.21975e+06
6.11233e+06
6.00584e+06
5.9003e+06
5.7957e+06
5.69205e+06
5.58934e+06
5.48759e+06
5.38679e+06
5.28695e+06
5.18806e+06
5.09014e+06
4.9932e+06
4.89723e+06
4.80224e+06
4.70826e+06
4.61528e+06
4.52331e+06
4.43239e+06
4.34252e+06
4.25374e+06
4.16606e+06
4.07952e+06
3.99416e+06
3.91003e+06
3.82719e+06
3.7457e+06
3.66565e+06
3.58712e+06
3.51025e+06
3.43518e+06
3.36205e+06
3.29109e+06
3.22253e+06
3.15666e+06
3.09383e+06
3.03444e+06
2.97898e+06
2.92801e+06
2.88218e+06
2.84222e+06
2.8089e+06
2.783e+06
2.76525e+06
2.75622e+06
1.27182e+07
1.26989e+07
1.26611e+07
1.26061e+07
1.25358e+07
1.24521e+07
1.23572e+07
1.22527e+07
1.21404e+07
1.20218e+07
1.18981e+07
1.17705e+07
1.164e+07
1.15072e+07
1.13729e+07
1.12373e+07
1.11009e+07
1.09639e+07
1.08267e+07
1.06894e+07
1.05522e+07
1.04152e+07
1.02786e+07
1.01425e+07
1.00069e+07
9.87189e+06
9.73758e+06
9.60398e+06
9.47114e+06
9.33909e+06
9.20785e+06
9.07745e+06
8.9479e+06
8.81922e+06
8.69141e+06
8.5645e+06
8.43849e+06
8.31338e+06
8.18919e+06
8.06591e+06
7.94354e+06
7.8221e+06
7.70159e+06
7.582e+06
7.46335e+06
7.34562e+06
7.22882e+06
7.11296e+06
6.99803e+06
6.88404e+06