/*--------------------------------*- C++ -*----------------------------------*\
| =========                 |                                                 |
| \\      /  F ield         | OpenFOAM: The Open Source CFD Toolbox           |
|  \\    /   O peration     | Version:  2.4.0                                 |
|   \\  /    A nd           | Web:      www.OpenFOAM.org                      |
|    \\/     M anipulation  |                                                 |
\*---------------------------------------------------------------------------*/
FoamFile
{
    version     2.0;
    format      ascii;
    class       volScalarField;
    location    "0.145";
    object      nuSgs;
}
// * * * * * * * * * * * * * * * * * * * * * * * * * * * * * * * * * * * * * //

dimensions      [0 2 -1 0 0 0 0];

internalField   nonuniform List<scalar> 
17600
(
0.000292932
0.000698857
0.000907555
0.000960301
0.000947346
0.000906652
0.000849329
0.000795829
0.000751668
0.000714413
0.000686091
0.000661461
0.000643338
0.000625825
0.000613359
0.000599669
0.000590613
0.00057911
0.000572484
0.000562319
0.000557581
0.000548372
0.000544746
0.000536621
0.000533853
0.000526345
0.000524332
0.000517323
0.000515862
0.000509122
0.000508203
0.000501441
0.000500847
0.000493846
0.000492994
0.000485075
0.000482887
0.000472437
0.000467025
0.000448471
3.81592e-05
0.00017896
0.000339235
0.000472051
0.000544916
0.00058066
0.000594659
0.000594142
0.000591511
0.000585253
0.00058001
0.000572279
0.00056739
0.000559387
0.000554916
0.000547278
0.000543607
0.000536345
0.000533155
0.000526508
0.000523664
0.00051765
0.000515154
0.000509617
0.000507454
0.00050236
0.000500423
0.000495758
0.000494045
0.000489639
0.000488175
0.000484126
0.0004828
0.000479197
0.000477988
0.000474827
0.000473802
0.000471343
0.000469691
0.000467045
3.25263e-06
2.82758e-05
7.19394e-05
0.000126825
0.000192467
0.000239636
0.000275842
0.000297255
0.000312843
0.000321945
0.000329433
0.000333087
0.000338092
0.00034098
0.000344957
0.000347551
0.000350799
0.000353335
0.000355759
0.000358308
0.000360021
0.000362372
0.000363713
0.000365818
0.000366715
0.000368687
0.000369359
0.000370996
0.000371509
0.000372917
0.000373146
0.000374459
0.000374593
0.000375937
0.000376285
0.000378142
0.000379022
0.000382206
0.000384701
0.000388169
1.5135e-06
3.9951e-06
1.22558e-05
2.60433e-05
4.5298e-05
6.83388e-05
9.16527e-05
0.000110374
0.00012393
0.00013669
0.000144757
0.000152639
0.000158107
0.000164047
0.000167835
0.000172786
0.000175304
0.000179916
0.000182088
0.000186415
0.000188395
0.000192288
0.000194164
0.000197946
0.000199723
0.000203546
0.000205331
0.000209069
0.000210889
0.000214688
0.000216382
0.000220235
0.000222022
0.000225878
0.000228017
0.000232499
0.000234941
0.000240033
0.000242491
0.000248769
1.4957e-06
1.58414e-06
2.38291e-06
4.77774e-06
8.88763e-06
1.51579e-05
2.13497e-05
3.08706e-05
3.54272e-05
4.34151e-05
4.68339e-05
5.30773e-05
5.58371e-05
6.10361e-05
6.33366e-05
6.77496e-05
6.96621e-05
7.34579e-05
7.51286e-05
7.85058e-05
8.00035e-05
8.29971e-05
8.43654e-05
8.71468e-05
8.8354e-05
9.09284e-05
9.20666e-05
9.44363e-05
9.56366e-05
9.81577e-05
9.93181e-05
0.00010189
0.000103147
0.000105635
0.000107194
0.000110349
0.000112198
0.000115911
0.000117985
0.000122488
1.49174e-06
1.51487e-06
1.57722e-06
1.76562e-06
2.25018e-06
3.33057e-06
4.56942e-06
7.04688e-06
8.28138e-06
1.07961e-05
1.18515e-05
1.40861e-05
1.5043e-05
1.71801e-05
1.8071e-05
2.01283e-05
2.09232e-05
2.28343e-05
2.35484e-05
2.53629e-05
2.60598e-05
2.78141e-05
2.84701e-05
3.01679e-05
3.07142e-05
3.22514e-05
3.27358e-05
3.41729e-05
3.46995e-05
3.6302e-05
3.6778e-05
3.83823e-05
3.88698e-05
4.036e-05
4.09122e-05
4.2685e-05
4.35382e-05
4.62435e-05
4.80559e-05
5.24153e-05
1.48919e-06
1.51568e-06
1.54481e-06
1.64188e-06
1.71559e-06
1.89909e-06
2.02705e-06
2.38448e-06
2.56888e-06
3.01713e-06
3.20881e-06
3.67756e-06
3.87925e-06
4.38414e-06
4.59713e-06
5.13448e-06
5.33835e-06
5.8825e-06
6.08236e-06
6.63283e-06
6.83876e-06
7.39097e-06
7.6027e-06
8.19201e-06
8.38692e-06
8.94046e-06
9.10609e-06
9.59239e-06
9.78062e-06
1.03756e-05
1.05629e-05
1.11993e-05
1.14045e-05
1.20034e-05
1.22344e-05
1.2938e-05
1.32295e-05
1.41055e-05
1.47083e-05
1.64697e-05
1.4882e-06
1.50107e-06
1.52982e-06
1.59726e-06
1.65816e-06
1.78123e-06
1.84994e-06
1.94497e-06
1.98951e-06
2.08235e-06
2.11689e-06
2.16827e-06
2.19019e-06
2.23772e-06
2.26283e-06
2.32126e-06
2.35235e-06
2.4177e-06
2.44568e-06
2.49906e-06
2.54662e-06
2.59243e-06
2.65178e-06
2.73531e-06
2.80316e-06
2.86368e-06
2.89514e-06
2.92537e-06
3.01508e-06
3.10437e-06
3.16303e-06
3.27975e-06
3.335e-06
3.41247e-06
3.52497e-06
3.6033e-06
3.66728e-06
3.7969e-06
3.97879e-06
4.48276e-06
1.4868e-06
1.50782e-06
1.52589e-06
1.59868e-06
1.6452e-06
1.77813e-06
1.81882e-06
1.91652e-06
1.94558e-06
2.02226e-06
2.03503e-06
2.06608e-06
2.07336e-06
2.09842e-06
2.10117e-06
2.11559e-06
2.11912e-06
2.13465e-06
2.13651e-06
2.15054e-06
2.15583e-06
2.17143e-06
2.17356e-06
2.1852e-06
2.18784e-06
2.19816e-06
2.20108e-06
2.21387e-06
2.21752e-06
2.2285e-06
2.23213e-06
2.24836e-06
2.25174e-06
2.26611e-06
2.27086e-06
2.29149e-06
2.29769e-06
2.32391e-06
2.34551e-06
2.62605e-06
1.48648e-06
1.49657e-06
1.51714e-06
1.57045e-06
1.62036e-06
1.74379e-06
1.79813e-06
1.82605e-06
1.90028e-06
1.98391e-06
2.00445e-06
2.00386e-06
2.00068e-06
2.00194e-06
2.02415e-06
2.04548e-06
2.05504e-06
2.05462e-06
2.05158e-06
2.05075e-06
2.05678e-06
2.06357e-06
2.07354e-06
2.07629e-06
2.08111e-06
2.08073e-06
2.08266e-06
2.08356e-06
2.08755e-06
2.08824e-06
2.09252e-06
2.09524e-06
2.10217e-06
2.10507e-06
2.11404e-06
2.11814e-06
2.14073e-06
2.15411e-06
2.18184e-06
2.41317e-06
1.48647e-06
1.51397e-06
1.53157e-06
1.62505e-06
1.65808e-06
1.77516e-06
1.8116e-06
1.93892e-06
1.96757e-06
2.04109e-06
2.04257e-06
2.07132e-06
2.07547e-06
2.10601e-06
2.11211e-06
2.14154e-06
2.13948e-06
2.1525e-06
2.15377e-06
2.17531e-06
2.1764e-06
2.19209e-06
2.19359e-06
2.21249e-06
2.21485e-06
2.23115e-06
2.2299e-06
2.24251e-06
2.24298e-06
2.26197e-06
2.26573e-06
2.28534e-06
2.28571e-06
2.30697e-06
2.3084e-06
2.34078e-06
2.34617e-06
2.38676e-06
2.42631e-06
2.89254e-06
1.48735e-06
1.50217e-06
1.52595e-06
1.60823e-06
1.64576e-06
1.76478e-06
1.82108e-06
1.95973e-06
1.98024e-06
2.03309e-06
2.04386e-06
2.09383e-06
2.10324e-06
2.13886e-06
2.1443e-06
2.16892e-06
2.16814e-06
2.19121e-06
2.19767e-06
2.22245e-06
2.22227e-06
2.24039e-06
2.2453e-06
2.27659e-06
2.28208e-06
2.30747e-06
2.30776e-06
2.3303e-06
2.33584e-06
2.37276e-06
2.37777e-06
2.40751e-06
2.41083e-06
2.45859e-06
2.46414e-06
2.52292e-06
2.53909e-06
2.65673e-06
2.71505e-06
3.0951e-06
1.49892e-06
1.50603e-06
1.57731e-06
1.60269e-06
1.74695e-06
1.79126e-06
1.95224e-06
1.98624e-06
2.10245e-06
2.13118e-06
2.22503e-06
2.2489e-06
2.31572e-06
2.34016e-06
2.39407e-06
2.43513e-06
2.483e-06
2.5547e-06
2.58645e-06
2.65201e-06
2.68877e-06
2.78748e-06
2.83757e-06
2.95106e-06
2.98721e-06
3.07647e-06
3.11417e-06
3.23669e-06
3.29641e-06
3.45635e-06
3.5151e-06
3.67449e-06
3.74547e-06
3.95551e-06
4.05177e-06
4.35653e-06
4.5443e-06
5.05073e-06
5.31083e-06
5.97501e-06
1.49469e-06
1.50676e-06
1.56522e-06
1.61335e-06
1.75735e-06
1.85387e-06
2.10135e-06
2.27073e-06
2.67481e-06
2.88057e-06
3.32646e-06
3.55349e-06
4.02971e-06
4.25356e-06
4.7177e-06
4.9472e-06
5.4506e-06
5.69835e-06
6.22567e-06
6.48053e-06
7.02289e-06
7.27071e-06
7.80455e-06
8.05212e-06
8.58113e-06
8.84508e-06
9.4413e-06
9.71848e-06
1.03132e-05
1.06113e-05
1.11586e-05
1.14753e-05
1.22551e-05
1.27549e-05
1.3247e-05
1.41804e-05
1.47474e-05
1.59186e-05
1.65919e-05
1.79901e-05
1.50931e-06
1.53354e-06
1.60384e-06
1.7968e-06
2.30751e-06
3.23279e-06
5.1241e-06
6.4571e-06
8.9576e-06
1.01713e-05
1.25233e-05
1.3601e-05
1.57261e-05
1.66871e-05
1.86577e-05
1.95732e-05
2.14671e-05
2.23415e-05
2.41537e-05
2.49742e-05
2.66925e-05
2.74605e-05
2.90968e-05
2.98395e-05
3.1403e-05
3.21324e-05
3.37197e-05
3.44287e-05
3.59837e-05
3.67248e-05
3.83074e-05
3.9096e-05
4.08265e-05
4.16553e-05
4.32005e-05
4.46096e-05
4.58897e-05
4.77289e-05
4.86919e-05
5.0513e-05
1.50224e-06
1.59452e-06
2.40074e-06
4.79921e-06
9.18318e-06
1.46817e-05
2.36562e-05
2.87347e-05
3.77207e-05
4.15577e-05
4.87668e-05
5.17283e-05
5.756e-05
5.99182e-05
6.47727e-05
6.67434e-05
7.09293e-05
7.26353e-05
7.63692e-05
7.78543e-05
8.12314e-05
8.2537e-05
8.56217e-05
8.68256e-05
8.97471e-05
9.08991e-05
9.3827e-05
9.49272e-05
9.78501e-05
9.90029e-05
0.000102007
0.00010323
0.000106496
0.000107712
0.00011104
0.000112239
0.000115178
0.000116568
0.000117906
0.000120716
1.50858e-06
3.97156e-06
1.2273e-05
2.62734e-05
4.71051e-05
6.76976e-05
9.28576e-05
0.000108422
0.000125933
0.000134799
0.000146307
0.000151509
0.000159614
0.000162803
0.000169091
0.000171598
0.000176799
0.000178935
0.000183567
0.000185443
0.000189763
0.000191503
0.000195713
0.000197404
0.000201613
0.000203285
0.000207607
0.000209219
0.000213635
0.000215306
0.000219788
0.000221481
0.000226137
0.000227704
0.000232299
0.00023355
0.00023734
0.000237549
0.000238361
0.000241412
3.25518e-06
2.8244e-05
7.18362e-05
0.000128785
0.000190283
0.00024155
0.000274265
0.000298736
0.000311729
0.000323202
0.000328073
0.000334445
0.00033698
0.00034206
0.000344184
0.000348474
0.000350287
0.000353997
0.000355556
0.000358666
0.00036013
0.000362687
0.000364124
0.000366258
0.000367558
0.00036927
0.000370579
0.00037175
0.000373089
0.000374104
0.000375048
0.000376049
0.000376808
0.000377439
0.000377824
0.000377779
0.000377306
0.000376573
0.000374963
0.000377497
3.8207e-05
0.000179084
0.000338464
0.000472597
0.000543956
0.000581681
0.000594219
0.000594226
0.000590745
0.000586854
0.000578057
0.000574183
0.000565211
0.000561476
0.00055275
0.00054944
0.000541351
0.000538421
0.000530988
0.000528476
0.000521675
0.000519512
0.000513296
0.000511378
0.000505651
0.000503965
0.000498591
0.00049709
0.000492066
0.000490624
0.000485868
0.000484456
0.000479818
0.000478352
0.000473742
0.000472151
0.000467618
0.000466783
0.000464715
0.000464117
0.000292804
0.000699687
0.000906881
0.000960559
0.000947242
0.000907344
0.000848138
0.000797099
0.000749835
0.00071621
0.000683751
0.000663714
0.000640527
0.000628447
0.000610111
0.000602548
0.000587091
0.000581727
0.000568967
0.000564954
0.000553849
0.000550822
0.000540915
0.000538544
0.000529554
0.000527578
0.000519253
0.000517505
0.00050972
0.000507919
0.000500711
0.000498567
0.00049199
0.000489368
0.000484023
0.000480069
0.00047804
0.000472971
0.000473182
0.00046318
0.000207858
0.000178754
0.00015869
0.000144325
0.000132759
0.000122971
0.000113857
0.000104908
9.67596e-05
8.94628e-05
8.3072e-05
7.74005e-05
7.25897e-05
6.83379e-05
6.51257e-05
6.25984e-05
6.07866e-05
5.94668e-05
5.87424e-05
5.8702e-05
5.85212e-05
5.83735e-05
5.83946e-05
5.85107e-05
5.88557e-05
5.99413e-05
6.18706e-05
6.50371e-05
6.90298e-05
7.36307e-05
7.93658e-05
8.44806e-05
8.91898e-05
9.34225e-05
9.62421e-05
9.80573e-05
9.85192e-05
9.83787e-05
9.78474e-05
9.69871e-05
9.59613e-05
9.47278e-05
9.37443e-05
9.2548e-05
9.11515e-05
8.91124e-05
8.67628e-05
8.45829e-05
8.28651e-05
8.09736e-05
7.88561e-05
7.6315e-05
7.25547e-05
6.84341e-05
6.60437e-05
6.57021e-05
6.63435e-05
6.75634e-05
7.24217e-05
8.48514e-05
9.31185e-05
9.6521e-05
9.68563e-05
9.58443e-05
8.83478e-05
7.75403e-05
6.86596e-05
6.23695e-05
5.7716e-05
5.37819e-05
5.01547e-05
4.68017e-05
4.37831e-05
4.11004e-05
3.89152e-05
3.72584e-05
3.61266e-05
3.56205e-05
3.5574e-05
3.56365e-05
3.62358e-05
3.71335e-05
3.78859e-05
3.83386e-05
3.85107e-05
3.84871e-05
3.84935e-05
3.87284e-05
3.96828e-05
4.0889e-05
4.2238e-05
4.34598e-05
4.46437e-05
4.5488e-05
4.61437e-05
4.66222e-05
4.72286e-05
4.76691e-05
4.83929e-05
4.92778e-05
5.08537e-05
5.24043e-05
5.33939e-05
5.35938e-05
5.35213e-05
5.32894e-05
5.28569e-05
5.2028e-05
5.04014e-05
4.81508e-05
4.49994e-05
4.08176e-05
3.56005e-05
2.96933e-05
2.4637e-05
2.04417e-05
1.71082e-05
1.44447e-05
1.24231e-05
1.08834e-05
9.78869e-06
9.02864e-06
8.55394e-06
8.29107e-06
8.15951e-06
8.12745e-06
8.15322e-06
8.25252e-06
8.48579e-06
8.8064e-06
9.49816e-06
1.0002e-05
1.06448e-05
1.15365e-05
1.20703e-05
1.29778e-05
1.35018e-05
1.4241e-05
1.48386e-05
1.53699e-05
1.60242e-05
1.63861e-05
1.71892e-05
1.76918e-05
1.84706e-05
1.94627e-05
2.02691e-05
2.1825e-05
2.30557e-05
2.51261e-05
2.72391e-05
2.93243e-05
3.2986e-05
3.56191e-05
3.92469e-05
4.4698e-05
5.17598e-05
6.49567e-05
7.51831e-05
7.91115e-05
7.90581e-05
7.8242e-05
7.6197e-05
7.24825e-05
6.81071e-05
6.46358e-05
6.2381e-05
6.09814e-05
6.00345e-05
5.93656e-05
5.87419e-05
5.83114e-05
5.80763e-05
5.79954e-05
5.81746e-05
5.88728e-05
5.97528e-05
6.08146e-05
6.17856e-05
6.26449e-05
6.32896e-05
6.37359e-05
6.38064e-05
6.34926e-05
6.26945e-05
6.17263e-05
6.0775e-05
5.97107e-05
5.87624e-05
5.78455e-05
5.68679e-05
5.56979e-05
5.41702e-05
5.21121e-05
4.96571e-05
4.64766e-05
4.30141e-05
3.90442e-05
3.48951e-05
3.0624e-05
2.61248e-05
2.30807e-05
2.10414e-05
2.01176e-05
1.95921e-05
1.95176e-05
1.97436e-05
2.04093e-05
2.1982e-05
2.41539e-05
2.71506e-05
3.02381e-05
3.34652e-05
3.65965e-05
3.94397e-05
4.21788e-05
4.43512e-05
4.62306e-05
4.77857e-05
4.90562e-05
5.00581e-05
5.07177e-05
5.11269e-05
5.12778e-05
5.12111e-05
5.09876e-05
5.06694e-05
5.00131e-05
4.94595e-05
4.85211e-05
4.77528e-05
4.66045e-05
4.56596e-05
4.43468e-05
4.33594e-05
4.20036e-05
4.10048e-05
3.96376e-05
3.8644e-05
3.72713e-05
3.6387e-05
3.51193e-05
3.43503e-05
3.32441e-05
3.25727e-05
3.15931e-05
3.10384e-05
3.00515e-05
2.95658e-05
2.8611e-05
2.80402e-05
2.68864e-05
2.5999e-05
2.47387e-05
2.35946e-05
2.22194e-05
2.08478e-05
1.95728e-05
1.87103e-05
1.79313e-05
1.73706e-05
1.70353e-05
1.67928e-05
1.65607e-05
1.63534e-05
1.63664e-05
1.6399e-05
1.64577e-05
1.6486e-05
1.65788e-05
1.66982e-05
1.6718e-05
1.6674e-05
1.67284e-05
1.70762e-05
1.75821e-05
1.81809e-05
1.88661e-05
1.93342e-05
1.93914e-05
1.94426e-05
2.12986e-05
2.47168e-05
2.7138e-05
2.81167e-05
2.79495e-05
2.62372e-05
2.4589e-05
2.37865e-05
2.26059e-05
2.10186e-05
1.93838e-05
1.85891e-05
1.84984e-05
1.87761e-05
1.88734e-05
1.87797e-05
1.79989e-05
1.7198e-05
1.66753e-05
1.65512e-05
1.70035e-05
1.81169e-05
1.85646e-05
1.85368e-05
1.80187e-05
1.75853e-05
1.74526e-05
1.80974e-05
1.94758e-05
2.11617e-05
2.19081e-05
2.27792e-05
2.33685e-05
2.5051e-05
2.66242e-05
3.03839e-05
3.27414e-05
3.58088e-05
3.73351e-05
4.06194e-05
4.42536e-05
4.89701e-05
5.36877e-05
5.82542e-05
6.28336e-05
6.60817e-05
6.91205e-05
7.124e-05
7.32435e-05
7.38082e-05
7.4671e-05
7.52687e-05
7.59951e-05
7.58165e-05
7.58371e-05
7.534e-05
7.51129e-05
7.33983e-05
7.14787e-05
6.89772e-05
6.0322e-05
4.80259e-05
3.79694e-05
3.12924e-05
2.85124e-05
2.6429e-05
2.43044e-05
2.22736e-05
2.0896e-05
2.07347e-05
2.1043e-05
2.16595e-05
2.19111e-05
2.1999e-05
2.20551e-05
2.20783e-05
2.22466e-05
2.23812e-05
2.26028e-05
2.26923e-05
2.26395e-05
2.24906e-05
2.24162e-05
2.24001e-05
2.25102e-05
2.2425e-05
2.23314e-05
2.20527e-05
2.19565e-05
2.18978e-05
2.22369e-05
2.44739e-05
2.70549e-05
2.83655e-05
2.86987e-05
2.88872e-05
2.86395e-05
2.87416e-05
2.84019e-05
2.89068e-05
2.87093e-05
2.92329e-05
2.87915e-05
2.87924e-05
2.82736e-05
2.77268e-05
2.73324e-05
2.71412e-05
2.72161e-05
2.72461e-05
2.73477e-05
2.73787e-05
2.7554e-05
2.7712e-05
2.86374e-05
2.97919e-05
3.2084e-05
3.79202e-05
5.58056e-05
0.000243111
0.000228967
0.000216367
0.000206293
0.000197708
0.000190042
0.000182948
0.000176371
0.000169995
0.00016389
0.000158071
0.000152609
0.000147191
0.000142193
0.000137348
0.000132947
0.000128865
0.000124938
0.000121582
0.000118538
0.000115917
0.000113976
0.000112177
0.000111339
0.000110829
0.00011056
0.000110444
0.000110167
0.000109925
0.000109656
0.000108922
0.000108134
0.000107026
0.000105854
0.000104581
0.000103054
0.000101326
9.95521e-05
9.73738e-05
9.49751e-05
9.20949e-05
8.87836e-05
8.52557e-05
8.16425e-05
7.71197e-05
7.25918e-05
6.78431e-05
6.29189e-05
5.86475e-05
5.41e-05
4.99788e-05
4.69218e-05
4.44447e-05
4.3191e-05
4.3166e-05
4.35449e-05
4.45027e-05
4.6307e-05
4.93736e-05
5.25079e-05
5.62608e-05
6.46899e-05
7.60971e-05
8.30279e-05
8.56107e-05
8.61745e-05
8.59928e-05
8.5032e-05
8.28209e-05
7.91518e-05
7.38399e-05
6.72133e-05
6.04656e-05
5.48725e-05
5.05175e-05
4.69484e-05
4.42054e-05
4.22778e-05
4.08173e-05
3.98501e-05
3.9662e-05
3.97069e-05
3.99379e-05
4.01713e-05
4.03297e-05
4.06902e-05
4.12666e-05
4.21546e-05
4.31516e-05
4.42802e-05
4.5326e-05
4.6414e-05
4.74165e-05
4.81528e-05
4.8944e-05
5.02649e-05
5.17374e-05
5.31275e-05
5.45757e-05
5.54118e-05
5.54253e-05
5.52251e-05
5.47341e-05
5.41777e-05
5.31672e-05
5.14101e-05
4.93075e-05
4.58728e-05
4.16574e-05
3.63446e-05
3.03361e-05
2.52076e-05
2.08749e-05
1.74335e-05
1.46582e-05
1.2516e-05
1.09137e-05
9.71149e-06
8.91122e-06
8.38471e-06
8.14961e-06
8.01671e-06
8.02668e-06
8.08966e-06
8.26498e-06
8.70162e-06
9.21435e-06
1.01165e-05
1.08833e-05
1.20238e-05
1.30013e-05
1.40723e-05
1.50439e-05
1.61475e-05
1.69745e-05
1.79518e-05
1.87672e-05
1.9406e-05
2.03271e-05
2.09539e-05
2.15696e-05
2.241e-05
2.33509e-05
2.40911e-05
2.5126e-05
2.66951e-05
2.77384e-05
2.93841e-05
3.16315e-05
3.30656e-05
3.55705e-05
3.88248e-05
4.11708e-05
4.50487e-05
5.13728e-05
6.35237e-05
7.80786e-05
8.37131e-05
8.37495e-05
8.25958e-05
7.95929e-05
7.26472e-05
6.73697e-05
6.44143e-05
6.27902e-05
6.17219e-05
6.08105e-05
6.01227e-05
5.9568e-05
5.9098e-05
5.85462e-05
5.80545e-05
5.76635e-05
5.7433e-05
5.72483e-05
5.72618e-05
5.76109e-05
5.8536e-05
5.99848e-05
6.138e-05
6.26747e-05
6.37189e-05
6.44872e-05
6.48135e-05
6.47323e-05
6.36294e-05
6.21611e-05
6.06838e-05
5.93912e-05
5.8249e-05
5.72035e-05
5.62069e-05
5.5143e-05
5.38348e-05
5.21152e-05
4.99235e-05
4.72434e-05
4.39512e-05
4.05116e-05
3.64334e-05
3.26546e-05
2.8388e-05
2.45732e-05
2.21037e-05
2.05205e-05
1.98176e-05
1.94074e-05
1.93719e-05
1.9564e-05
2.01845e-05
2.12232e-05
2.33664e-05
2.50354e-05
2.79438e-05
2.9952e-05
3.24295e-05
3.4531e-05
3.63017e-05
3.80435e-05
3.92208e-05
4.04325e-05
4.11874e-05
4.19515e-05
4.22857e-05
4.26482e-05
4.26442e-05
4.25605e-05
4.22766e-05
4.19532e-05
4.13664e-05
4.07511e-05
4.0092e-05
3.93106e-05
3.85391e-05
3.7693e-05
3.69143e-05
3.58826e-05
3.52362e-05
3.41085e-05
3.33964e-05
3.23043e-05
3.1567e-05
3.03678e-05
2.9558e-05
2.839e-05
2.73953e-05
2.60163e-05
2.49286e-05
2.34593e-05
2.20916e-05
2.06749e-05
1.9586e-05
1.85833e-05
1.77301e-05
1.70241e-05
1.65249e-05
1.60764e-05
1.57738e-05
1.56163e-05
1.54409e-05
1.53516e-05
1.5331e-05
1.53126e-05
1.52409e-05
1.52531e-05
1.53918e-05
1.57042e-05
1.58924e-05
1.61088e-05
1.62822e-05
1.63939e-05
1.64606e-05
1.6429e-05
1.64384e-05
1.68943e-05
1.77493e-05
1.81639e-05
1.85266e-05
1.88142e-05
1.9051e-05
1.89838e-05
1.86618e-05
1.87789e-05
2.21234e-05
2.59328e-05
2.7453e-05
2.74501e-05
2.67748e-05
2.64873e-05
2.60242e-05
2.37361e-05
2.1227e-05
1.95135e-05
1.89396e-05
1.86547e-05
1.8555e-05
1.83024e-05
1.77013e-05
1.69605e-05
1.6746e-05
1.70214e-05
1.8142e-05
1.87633e-05
1.88166e-05
1.83696e-05
1.76878e-05
1.72572e-05
1.72133e-05
1.73735e-05
1.89663e-05
2.0153e-05
2.18781e-05
2.25153e-05
2.3336e-05
2.35022e-05
2.36241e-05
2.31572e-05
2.28036e-05
2.27475e-05
2.78201e-05
3.3171e-05
4.30794e-05
4.96124e-05
5.85058e-05
6.37877e-05
6.92413e-05
7.15924e-05
7.33454e-05
7.34644e-05
7.3757e-05
7.37144e-05
7.39098e-05
7.36453e-05
7.37624e-05
7.36823e-05
7.38786e-05
7.37868e-05
7.37732e-05
7.32871e-05
7.25966e-05
7.13952e-05
7.00667e-05
6.43936e-05
5.28274e-05
4.32397e-05
3.60981e-05
3.19072e-05
2.79012e-05
2.54209e-05
2.34462e-05
2.25484e-05
2.19638e-05
2.19441e-05
2.1967e-05
2.19581e-05
2.17656e-05
2.16621e-05
2.1486e-05
2.15666e-05
2.14917e-05
2.16492e-05
2.15774e-05
2.16244e-05
2.17126e-05
2.20404e-05
2.2123e-05
2.21348e-05
2.20675e-05
2.19375e-05
2.17853e-05
2.17905e-05
2.18712e-05
2.34487e-05
2.56718e-05
2.87002e-05
2.93627e-05
3.02294e-05
2.98119e-05
2.9985e-05
2.93534e-05
2.94744e-05
2.9061e-05
2.91534e-05
2.88783e-05
2.84062e-05
2.81137e-05
2.74774e-05
2.72513e-05
2.69723e-05
2.69898e-05
2.69061e-05
2.70586e-05
2.70199e-05
2.71678e-05
2.73936e-05
2.79803e-05
2.85057e-05
2.98384e-05
3.09257e-05
3.62246e-05
0.000206959
0.000200146
0.000192942
0.000186832
0.000181632
0.000177122
0.000173051
0.000169438
0.000165839
0.000162522
0.00015902
0.000155904
0.000152812
0.000149854
0.000147205
0.000144423
0.000142017
0.000139623
0.000137198
0.000135181
0.000132884
0.000130886
0.000128831
0.000126582
0.000124614
0.000122251
0.000120045
0.000117827
0.000115338
0.000113031
0.000110408
0.000107723
0.000104987
0.000101793
9.86003e-05
9.4689e-05
9.04514e-05
8.60041e-05
8.09442e-05
7.58456e-05
7.03959e-05
6.48027e-05
5.93738e-05
5.34649e-05
4.81453e-05
4.3621e-05
3.96723e-05
3.63353e-05
3.3589e-05
3.12908e-05
2.93924e-05
2.80828e-05
2.69806e-05
2.62783e-05
2.618e-05
2.63208e-05
2.67993e-05
2.78241e-05
2.98096e-05
3.13251e-05
3.42867e-05
3.87707e-05
4.1855e-05
4.71193e-05
5.56732e-05
6.37461e-05
7.10982e-05
7.62477e-05
7.88804e-05
8.00668e-05
8.02987e-05
8.01469e-05
7.96875e-05
7.835e-05
7.60633e-05
7.35423e-05
7.0516e-05
6.74597e-05
6.44888e-05
6.17721e-05
5.90215e-05
5.70045e-05
5.54217e-05
5.42805e-05
5.33868e-05
5.31265e-05
5.3172e-05
5.33908e-05
5.37852e-05
5.43122e-05
5.52383e-05
5.61417e-05
5.68378e-05
5.7945e-05
5.88979e-05
5.91083e-05
5.89809e-05
5.86964e-05
5.80017e-05
5.72994e-05
5.62385e-05
5.43892e-05
5.26091e-05
4.98593e-05
4.58186e-05
4.13371e-05
3.56576e-05
2.98043e-05
2.48737e-05
2.06886e-05
1.72943e-05
1.45873e-05
1.24134e-05
1.08147e-05
9.56066e-06
8.73698e-06
8.20629e-06
7.96425e-06
7.8268e-06
7.84914e-06
7.95775e-06
8.23763e-06
8.92199e-06
9.52645e-06
1.0718e-05
1.18073e-05
1.30629e-05
1.47697e-05
1.58283e-05
1.77741e-05
1.89778e-05
2.05857e-05
2.20201e-05
2.32566e-05
2.46195e-05
2.56284e-05
2.67492e-05
2.75408e-05
2.85667e-05
2.93085e-05
2.99071e-05
3.1045e-05
3.17371e-05
3.26346e-05
3.38844e-05
3.46553e-05
3.62592e-05
3.78364e-05
3.89615e-05
4.13716e-05
4.39346e-05
4.63929e-05
5.1593e-05
6.01765e-05
7.89239e-05
8.86541e-05
8.94107e-05
8.81605e-05
8.37656e-05
7.40053e-05
6.815e-05
6.56114e-05
6.41185e-05
6.32151e-05
6.26661e-05
6.22348e-05
6.19318e-05
6.16462e-05
6.12024e-05
6.05097e-05
5.9731e-05
5.88993e-05
5.81551e-05
5.75495e-05
5.71295e-05
5.6878e-05
5.6739e-05
5.67392e-05
5.7109e-05
5.85054e-05
6.02552e-05
6.20901e-05
6.36422e-05
6.48036e-05
6.54676e-05
6.55584e-05
6.46288e-05
6.2767e-05
6.07843e-05
5.92178e-05
5.7816e-05
5.6767e-05
5.55793e-05
5.46119e-05
5.33532e-05
5.18368e-05
4.99069e-05
4.74397e-05
4.46696e-05
4.14188e-05
3.79553e-05
3.44416e-05
3.07038e-05
2.70271e-05
2.35925e-05
2.15101e-05
2.01717e-05
1.96356e-05
1.92837e-05
1.92817e-05
1.93954e-05
1.98266e-05
2.07516e-05
2.17782e-05
2.36132e-05
2.48647e-05
2.70156e-05
2.81773e-05
3.00627e-05
3.10724e-05
3.24397e-05
3.32712e-05
3.40818e-05
3.46969e-05
3.50824e-05
3.54701e-05
3.55781e-05
3.5547e-05
3.53814e-05
3.51599e-05
3.46182e-05
3.42607e-05
3.34642e-05
3.29987e-05
3.19768e-05
3.14163e-05
3.02467e-05
2.95473e-05
2.832e-05
2.7469e-05
2.61736e-05
2.52158e-05
2.39e-05
2.27955e-05
2.1524e-05
2.04868e-05
1.93936e-05
1.85107e-05
1.76611e-05
1.69789e-05
1.62956e-05
1.58275e-05
1.54086e-05
1.50877e-05
1.4847e-05
1.47497e-05
1.46407e-05
1.46004e-05
1.46072e-05
1.46335e-05
1.46963e-05
1.48134e-05
1.49217e-05
1.49252e-05
1.49938e-05
1.51788e-05
1.55993e-05
1.57295e-05
1.6033e-05
1.61141e-05
1.62401e-05
1.63637e-05
1.66386e-05
1.70535e-05
1.7601e-05
1.81575e-05
1.85429e-05
1.86681e-05
1.87299e-05
1.88843e-05
1.89332e-05
1.86199e-05
1.8092e-05
1.81171e-05
2.06567e-05
2.38248e-05
2.55106e-05
2.63314e-05
2.67107e-05
2.66423e-05
2.49823e-05
2.23994e-05
2.0611e-05
1.95088e-05
1.91277e-05
1.90553e-05
1.89716e-05
1.8315e-05
1.7742e-05
1.75781e-05
1.79124e-05
1.83989e-05
1.844e-05
1.80172e-05
1.72129e-05
1.67947e-05
1.67145e-05
1.67351e-05
1.68289e-05
1.74433e-05
1.86123e-05
2.04202e-05
2.1938e-05
2.42686e-05
2.61913e-05
2.85724e-05
3.12117e-05
3.29828e-05
3.44116e-05
4.31334e-05
5.46382e-05
6.43638e-05
7.09696e-05
7.51379e-05
7.69306e-05
7.71159e-05
7.66191e-05
7.60793e-05
7.52914e-05
7.37895e-05
7.24941e-05
7.13338e-05
7.01488e-05
6.87404e-05
6.82364e-05
6.81798e-05
6.8476e-05
6.86364e-05
7.01146e-05
7.06538e-05
7.06609e-05
7.00901e-05
6.96147e-05
6.45913e-05
5.47992e-05
4.56777e-05
3.85422e-05
3.25699e-05
2.79607e-05
2.50282e-05
2.3371e-05
2.27919e-05
2.24486e-05
2.22591e-05
2.21191e-05
2.18125e-05
2.16682e-05
2.13072e-05
2.12916e-05
2.12072e-05
2.10158e-05
2.07018e-05
2.05184e-05
2.05596e-05
2.10126e-05
2.15947e-05
2.19877e-05
2.20189e-05
2.19944e-05
2.18637e-05
2.18593e-05
2.18981e-05
2.2947e-05
2.47207e-05
2.82343e-05
2.92587e-05
3.0765e-05
3.08398e-05
3.1016e-05
3.08638e-05
3.03009e-05
3.00386e-05
2.94823e-05
2.93415e-05
2.86712e-05
2.84332e-05
2.77093e-05
2.75109e-05
2.70763e-05
2.70592e-05
2.68554e-05
2.68808e-05
2.68086e-05
2.68648e-05
2.69651e-05
2.72261e-05
2.74437e-05
2.81269e-05
2.86037e-05
2.98327e-05
0.000135055
0.000133841
0.000131541
0.000129607
0.000127104
0.000124984
0.000123499
0.000121765
0.000121143
0.000119968
0.000119419
0.000118464
0.000117576
0.000116591
0.000115181
0.000114319
0.000112596
0.000111571
0.000109821
0.000108296
0.000106473
0.000104307
0.00010235
9.98198e-05
9.74371e-05
9.47322e-05
9.18013e-05
8.88695e-05
8.54981e-05
8.2117e-05
7.84206e-05
7.44294e-05
7.03757e-05
6.57731e-05
6.12815e-05
5.67242e-05
5.24804e-05
4.82635e-05
4.43826e-05
4.07171e-05
3.73033e-05
3.42586e-05
3.13614e-05
2.88511e-05
2.65009e-05
2.44622e-05
2.26767e-05
2.11418e-05
1.98428e-05
1.88242e-05
1.79222e-05
1.72333e-05
1.67237e-05
1.62556e-05
1.60091e-05
1.60064e-05
1.60983e-05
1.64093e-05
1.6797e-05
1.78462e-05
1.87259e-05
2.02286e-05
2.29106e-05
2.4771e-05
2.84317e-05
3.32811e-05
3.69102e-05
4.29614e-05
5.07832e-05
5.73105e-05
6.28777e-05
6.74252e-05
7.07288e-05
7.29808e-05
7.36904e-05
7.37046e-05
7.36509e-05
7.34894e-05
7.31323e-05
7.26002e-05
7.20511e-05
7.1481e-05
7.07722e-05
7.01552e-05
6.96761e-05
6.90477e-05
6.85897e-05
6.82577e-05
6.78019e-05
6.72398e-05
6.6723e-05
6.58813e-05
6.50185e-05
6.39896e-05
6.27315e-05
6.12529e-05
5.95253e-05
5.75694e-05
5.52703e-05
5.18685e-05
4.76633e-05
4.34093e-05
3.81287e-05
3.24183e-05
2.74419e-05
2.31435e-05
1.95009e-05
1.64308e-05
1.39797e-05
1.1982e-05
1.04516e-05
9.28514e-06
8.4815e-06
7.98163e-06
7.73918e-06
7.62247e-06
7.66191e-06
7.80318e-06
8.14538e-06
8.96559e-06
9.69245e-06
1.13468e-05
1.25735e-05
1.42667e-05
1.63637e-05
1.78801e-05
2.02707e-05
2.24399e-05
2.44743e-05
2.7002e-05
2.89164e-05
3.10529e-05
3.30126e-05
3.45576e-05
3.61025e-05
3.72707e-05
3.81962e-05
3.90862e-05
3.95956e-05
4.02214e-05
4.06955e-05
4.09965e-05
4.17064e-05
4.22524e-05
4.27177e-05
4.3837e-05
4.47674e-05
4.58982e-05
4.83585e-05
5.05505e-05
5.37737e-05
5.99024e-05
7.62303e-05
9.23969e-05
9.60184e-05
9.52025e-05
8.9417e-05
7.6104e-05
6.9608e-05
6.69104e-05
6.55586e-05
6.53482e-05
6.57074e-05
6.66383e-05
6.74394e-05
6.77798e-05
6.77671e-05
6.74659e-05
6.64778e-05
6.50883e-05
6.35629e-05
6.19906e-05
6.05187e-05
5.92645e-05
5.82767e-05
5.75732e-05
5.71938e-05
5.70108e-05
5.6977e-05
5.71596e-05
5.81453e-05
6.00593e-05
6.19954e-05
6.37335e-05
6.50326e-05
6.57025e-05
6.5769e-05
6.48383e-05
6.29942e-05
6.10674e-05
5.93423e-05
5.77666e-05
5.6566e-05
5.52702e-05
5.42541e-05
5.28427e-05
5.15183e-05
4.94889e-05
4.73236e-05
4.46579e-05
4.16911e-05
3.86614e-05
3.53205e-05
3.20778e-05
2.8753e-05
2.56654e-05
2.27949e-05
2.10781e-05
1.99982e-05
1.94634e-05
1.9283e-05
1.9152e-05
1.92258e-05
1.94225e-05
2.00212e-05
2.05449e-05
2.15723e-05
2.25394e-05
2.345e-05
2.46273e-05
2.5275e-05
2.63268e-05
2.67341e-05
2.75377e-05
2.77695e-05
2.8238e-05
2.83194e-05
2.83227e-05
2.81803e-05
2.79828e-05
2.74893e-05
2.71474e-05
2.64355e-05
2.58677e-05
2.50677e-05
2.42609e-05
2.34318e-05
2.24894e-05
2.16165e-05
2.06478e-05
1.98392e-05
1.88615e-05
1.81639e-05
1.73152e-05
1.67473e-05
1.60807e-05
1.56619e-05
1.5166e-05
1.49144e-05
1.45976e-05
1.4446e-05
1.42567e-05
1.42161e-05
1.41721e-05
1.41952e-05
1.42058e-05
1.42602e-05
1.42902e-05
1.43911e-05
1.44516e-05
1.46171e-05
1.47598e-05
1.48808e-05
1.49232e-05
1.50171e-05
1.53332e-05
1.56181e-05
1.58129e-05
1.63554e-05
1.67717e-05
1.70847e-05
1.75348e-05
1.79298e-05
1.79714e-05
1.79163e-05
1.78926e-05
1.80793e-05
1.8246e-05
1.85124e-05
1.88092e-05
1.89898e-05
1.89255e-05
1.87459e-05
1.86877e-05
1.98932e-05
2.18155e-05
2.33939e-05
2.46169e-05
2.54837e-05
2.56356e-05
2.49472e-05
2.28276e-05
2.11059e-05
2.00518e-05
1.96159e-05
1.9449e-05
1.93516e-05
1.86401e-05
1.81692e-05
1.78974e-05
1.78081e-05
1.77147e-05
1.72207e-05
1.68405e-05
1.66178e-05
1.6541e-05
1.65868e-05
1.66872e-05
1.70261e-05
1.73234e-05
1.81121e-05
1.99401e-05
2.2336e-05
2.64499e-05
3.53273e-05
4.1463e-05
5.31266e-05
6.38036e-05
7.32196e-05
7.88628e-05
8.23293e-05
8.29347e-05
8.29153e-05
8.20991e-05
8.11932e-05
7.90109e-05
7.7069e-05
7.38439e-05
7.15083e-05
6.8194e-05
6.59131e-05
6.35852e-05
6.21211e-05
6.04774e-05
6.01061e-05
6.00462e-05
6.0704e-05
6.14275e-05
6.242e-05
6.48174e-05
6.77334e-05
6.8849e-05
6.88692e-05
6.8359e-05
6.24058e-05
5.33365e-05
4.50323e-05
3.78364e-05
3.1712e-05
2.72827e-05
2.46125e-05
2.34219e-05
2.29702e-05
2.27513e-05
2.25217e-05
2.2038e-05
2.15097e-05
2.12342e-05
2.09537e-05
2.10384e-05
2.08582e-05
2.08581e-05
2.06173e-05
2.0625e-05
2.08829e-05
2.15505e-05
2.2059e-05
2.21387e-05
2.21543e-05
2.20711e-05
2.20474e-05
2.20764e-05
2.24757e-05
2.34563e-05
2.68696e-05
2.89347e-05
3.03186e-05
3.12615e-05
3.14386e-05
3.15758e-05
3.12102e-05
3.09874e-05
3.01244e-05
2.98568e-05
2.90784e-05
2.88344e-05
2.80684e-05
2.78294e-05
2.73029e-05
2.71906e-05
2.69032e-05
2.6855e-05
2.67971e-05
2.68021e-05
2.68617e-05
2.69453e-05
2.7093e-05
2.73753e-05
2.77697e-05
2.80606e-05
6.69888e-05
6.68383e-05
6.63149e-05
6.58596e-05
6.52073e-05
6.4566e-05
6.42662e-05
6.39061e-05
6.39253e-05
6.39539e-05
6.40638e-05
6.40921e-05
6.40006e-05
6.38496e-05
6.3254e-05
6.2841e-05
6.20181e-05
6.148e-05
6.04933e-05
5.96607e-05
5.86975e-05
5.75163e-05
5.63037e-05
5.47827e-05
5.31483e-05
5.13016e-05
4.93175e-05
4.72529e-05
4.50989e-05
4.29197e-05
4.07013e-05
3.84518e-05
3.61961e-05
3.38968e-05
3.16489e-05
2.93702e-05
2.72331e-05
2.51336e-05
2.32061e-05
2.1417e-05
1.97727e-05
1.83318e-05
1.69383e-05
1.57597e-05
1.46104e-05
1.3616e-05
1.27442e-05
1.19633e-05
1.13191e-05
1.07672e-05
1.02339e-05
9.85549e-06