/*--------------------------------*- C++ -*----------------------------------*\
| =========                 |                                                 |
| \\      /  F ield         | OpenFOAM: The Open Source CFD Toolbox           |
|  \\    /   O peration     | Version:  2.4.0                                 |
|   \\  /    A nd           | Web:      www.OpenFOAM.org                      |
|    \\/     M anipulation  |                                                 |
\*---------------------------------------------------------------------------*/
FoamFile
{
    version     2.0;
    format      ascii;
    class       volScalarField;
    location    "0.145";
    object      p;
}
// * * * * * * * * * * * * * * * * * * * * * * * * * * * * * * * * * * * * * //

dimensions      [0 2 -2 0 0 0 0];

internalField   nonuniform List<scalar> 
17600
(
47.0512
45.2818
42.6848
39.707
36.8138
34.2846
32.2265
30.6491
29.4936
28.6348
27.9788
27.4553
26.9989
26.577
26.1798
25.7877
25.4043
25.0241
24.6457
24.272
23.9004
23.5345
23.1765
22.8173
22.4724
22.1306
21.7931
21.4701
21.1565
20.8427
20.5524
20.272
20.002
19.7631
19.5519
19.3692
19.2425
19.1858
19.2124
19.3471
45.3115
44.0649
41.9601
39.338
36.6601
34.2626
32.2809
30.7402
29.5973
28.7319
28.0599
27.5193
27.0458
26.6094
26.2033
25.8034
25.4144
25.0298
24.6482
24.2725
23.8997
23.5327
23.1751
22.8136
22.4704
22.1272
21.7895
21.4661
21.154
20.8359
20.5483
20.2646
19.9935
19.75
19.5393
19.3426
19.2165
19.1349
19.1444
19.1243
43.9614
43.0002
41.3211
39.1195
36.7847
34.6055
32.7205
31.1756
29.9641
29.0115
28.2618
27.6589
27.1394
26.6748
26.2497
25.8381
25.4418
25.0531
24.666
24.2892
23.9121
23.5445
23.1847
22.8235
22.4762
22.1363
21.7928
21.4722
21.1539
20.8377
20.54
20.2598
19.9709
19.731
19.4943
19.2893
19.0995
19.0019
19.0033
19.4576
42.8859
42.1208
40.7764
38.9586
36.9285
34.9241
33.1106
31.5622
30.2894
29.264
28.4507
27.7938
27.2391
26.7525
26.3118
25.8904
25.4874
25.0925
24.7008
24.3194
23.9399
23.5665
23.2053
22.8404
22.4902
22.1463
21.8057
21.4771
21.159
20.8377
20.5354
20.2411
19.9469
19.6821
19.431
19.2058
19.005
18.8071
18.6203
19.3553
42.0728
41.4182
40.3213
38.7928
37.0133
35.1501
33.4139
31.8684
30.5624
29.4796
28.6187
27.9099
27.3316
26.8204
26.3715
25.9377
25.535
25.1319
24.7411
24.3506
23.9746
23.5888
23.2299
22.8597
22.5071
22.1552
21.8247
21.4777
21.165
20.8362
20.5307
20.2116
19.922
19.6075
19.3448
19.0813
18.9964
19.1131
19.6285
19.403
41.4103
40.8808
39.9516
38.6357
37.036
35.3063
33.6289
32.1087
30.7857
29.668
28.7554
28.0124
27.3997
26.8785
26.4133
25.98
25.5674
25.1689
24.7686
24.3833
23.9989
23.6141
23.2453
22.8825
22.5121
22.1698
21.8316
21.4863
21.16
20.8441
20.5095
20.1947
19.8828
19.558
19.2502
18.9605
18.7
18.5132
18.4789
20.0631
40.895
40.4791
39.6649
38.4955
37.0234
35.4103
33.7861
32.2954
30.9633
29.8244
28.8724
28.0977
27.4547
26.9224
26.4452
26.0109
25.5952
25.1975
24.7948
24.4082
24.0211
23.6335
23.2613
22.8986
22.522
22.1797
21.8417
21.4902
21.1614
20.8478
20.5012
20.18
19.8597
19.5108
19.1652
18.8388
18.4938
18.3418
18.6868
21.102
40.5483
40.1855
39.4537
38.3761
37.004
35.4684
33.9004
32.4295
31.0982
29.944
28.9692
28.1611
27.5001
26.9495
26.4707
26.0315
25.6172
25.2168
24.8157
24.4242
24.0407
23.6468
23.2752
22.9088
22.5314
22.184
21.8505
21.4921
21.1634
20.8487
20.497
20.1656
19.8412
19.471
19.1115
18.7565
18.4138
18.2527
18.7073
21.008
40.3024
39.9976
39.3126
38.293
36.978
35.504
33.9718
32.5213
31.1871
30.0253
29.0334
28.2092
27.5282
26.9719
26.4847
26.0481
25.6299
25.2329
24.8298
24.4376
24.0519
23.6574
23.281
22.9171
22.5358
22.1885
21.8548
21.4976
21.1641
20.8535
20.4977
20.163
19.8362
19.4584
19.0863
18.7301
18.3668
18.205
18.586
21.0052
40.2069
39.9063
39.2421
38.2436
36.962
35.5152
34.0085
32.5644
31.2322
30.0637
29.065
28.2301
27.5459
26.9796
26.4956
26.0563
25.6393
25.2398
24.8368
24.4412
24.0556
23.6592
23.2827
22.919
22.5391
22.1898
21.8575
21.4983
21.167
20.8559
20.5047
20.1681
19.847
19.4664
19.0962
18.7254
18.3626
18.1568
18.4851
20.6926
40.1974
39.9137
39.2376
38.2428
36.9546
35.5256
34.0088
32.5727
31.2284
30.0597
29.0595
28.2357
27.5465
26.9883
26.4975
26.0652
25.642
25.2464
24.8379
24.4435
24.0511
23.6596
23.277
22.9207
22.5383
22.195
21.8576
21.5076
21.1691
20.867
20.5129
20.1888
19.8747
19.5147
19.1492
18.7871
18.3934
18.1394
18.2858
20.5783
40.3513
39.9864
39.2751
38.2608
36.9677
35.5088
33.9809
32.5262
31.1796
30.0133
29.0235
28.2114
27.5331
26.9799
26.4915
26.0577
25.6337
25.2365
24.8287
24.4312
24.0405
23.6502
23.2683
22.9128
22.5348
22.1895
21.8541
21.5064
21.1673
20.8652
20.5195
20.1999
19.8929
19.5651
19.2329
18.924
18.572
18.2013
17.851
19.0801
40.6999
40.1558
39.3812
38.3122
37.0029
35.4637
33.9281
32.426
31.0911
29.9267
28.9657
28.1602
27.5193
26.9579
26.4907
26.0419
25.6287
25.2176
24.8231
24.4126
24.0372
23.6364
23.2688
22.8998
22.5403
22.18
21.8591
21.5007
21.1785
20.86
20.5386
20.2115
19.9328
19.6184
19.3431
19.0791
18.8888
18.7247
18.6612
17.492
41.003
40.4536
39.6015
38.4412
37.026
35.409
33.8137
32.2935
30.9593
29.8157
28.8759
28.0973
27.4755
26.9302
26.4656
26.0245
25.6074
25.2016
24.8042
24.4019
24.0234
23.6315
23.2597
22.8967
22.5354
22.1812
21.8542
21.5051
21.1799
20.8647
20.5476
20.2324
19.9611
19.6759
19.4397
19.2347
19.086
18.8518
18.4006
16.2801
41.4498
40.8778
39.9237
38.6117
37.0298
35.3106
33.6426
32.1132
30.7845
29.668
28.7563
28.0155
27.4107
26.8883
26.4276
25.9948
25.5763
25.1764
24.7771
24.3829
24.0023
23.619
23.2451
22.8872
22.5247
22.1773
21.8435
21.5045
21.1761
20.865
20.549
20.2468
19.9737
19.7118
19.4877
19.2953
19.1181
18.8536
18.2382
16.2254
42.0741
41.4296
40.3171
38.7863
36.9987
35.1488
33.4152
31.8741
30.5632
29.4846
28.6167
27.914
27.3357
26.8314
26.3803
25.9524
25.5412
25.1416
24.7475
24.3564
23.9795
23.5987
23.2309
22.8709
22.5161
22.1685
21.8363
21.4994
21.1784
20.8612
20.555
20.2543
19.9796
19.7127
19.4854
19.2681
19.0842
18.7938
18.2079
16.144
42.888
42.1353
40.7805
38.9571
36.9128
34.9136
33.1085
31.5666
30.2882
29.2693
28.454
27.7969
27.2438
26.7638
26.3204
25.9034
25.4969
25.1036
24.7106
24.328
23.9511
23.5777
23.2124
22.8561
22.5021
22.1617
21.8245
21.4949
21.1761
20.8589
20.5542
20.2595
19.9737
19.6986
19.4425
19.1818
18.9509
18.6927
18.3129
16.9682
43.9601
43.0143
41.3245
39.1208
36.773
34.5934
32.7151
31.1832
29.9603
29.0174
28.2683
27.6627
27.1421
26.6879
26.2575
25.8512
25.4517
25.0661
24.6748
24.3013
23.9252
23.5587
23.1944
22.8433
22.4881
22.1548
21.8132
21.4913
21.1702
20.8585
20.5482
20.2606
19.9597
19.6823
19.3971
19.1027
18.7393
18.2932
17.7271
17.5647
45.3118
44.0765
41.9628
39.3394
36.6547
34.2521
32.2746
30.7483
29.5921
28.7351
28.0681
27.5242
27.0481
26.6224
26.2107
25.8157
25.4244
25.0439
24.6576
24.2867
23.913
23.5487
23.186
22.8358
22.4827
22.149
21.8092
21.4875
21.1675
20.856
20.5465
20.2552
19.9521
19.6643
19.368
19.0643
18.747
18.423
18.0468
17.6983
47.0497
45.2923
42.6871
39.7083
36.8099
34.2756
32.2199
30.6558
29.4887
28.6382
27.9862
27.4607
27.0019
26.589
26.1875
25.7998
25.4145
25.038
24.6556
24.2863
23.9138
23.5506
23.1883
22.8381
22.4857
22.1513
21.812
21.4902
21.1694
20.858
20.5483
20.2541
19.952
19.6603
19.3665
19.061
18.7491
18.4072
18.0679
17.7286
19.6023
19.6376
19.523
19.2758
18.9257
18.5
17.9937
17.3768
16.6332
15.7918
14.8545
13.8139
12.6867
11.4604
10.1417
8.7689
7.33536
5.84338
4.34238
2.85637
1.40373
0.0261637
-1.23991
-2.35898
-3.34818
-4.18867
-4.71631
-4.96264
-5.02393
-4.95415
-4.72997
-4.33723
-3.83579
-3.18394
-2.37452
-1.39496
-0.187319
1.18893
2.75403
4.56883
6.5934
8.85397
11.3645
14.0088
16.7316
19.4894
22.2367
24.9993
27.7029
30.2661
32.6749
34.8691
36.8118
38.4697
39.8109
40.9015
41.7526
42.3145
42.5794
42.5139
42.1291
41.5285
40.6632
39.5352
38.2156
36.7476
35.1785
33.5637
31.9161
30.235
28.5287
26.8605
25.2391
23.5925
21.963
20.4104
18.875
17.3416
15.8263
14.2851
12.6984
11.0699
9.383
7.63452
5.8576
4.07047
2.27749
0.512991
-1.17518
-2.72272
-4.08965
-5.15388
-6.04696
-6.735
-7.17336
-7.39404
-7.41952
-7.24355
-6.93468
-6.50457
-5.93364
-5.26152
-4.48482
-3.63447
-2.68838
-1.67997
-0.640453
0.447277
1.55122
2.66134
3.71167
4.77793
5.82081
6.75166
7.66516
8.49317
9.22011
9.86096
10.4137
10.9391
11.4157
11.8648
12.2662
12.6446
13.056
13.4156
13.7623
14.1364
14.5169
14.9468
15.4207
15.9453
16.5385
17.2087
17.9378
18.7171
19.5868
20.5138
21.4965
22.5702
23.6871
24.8247
25.9645
27.071
28.1532
29.217
30.2321
31.1521
31.9717
32.6716
33.1535
33.4071
33.5152
33.4272
33.0589
32.4335
31.555
30.3898
28.932
27.2011
25.2213
22.9906
20.4886
17.7356
14.7525
11.5466
8.16058
4.64549
1.01531
-2.70373
-6.468
-10.2514
-14.0326
-17.7702
-21.4213
-24.9655
-28.3763
-31.6038
-34.6232
-37.432
-39.9259
-41.9652
-43.4369
-44.4482
-44.8322
-44.6867
-44.0658
-42.8732
-41.1509
-39.1411
-36.9671
-34.4601
-31.5713
-28.5627
-25.6489
-22.757
-19.8567
-17.0363
-14.387
-11.9627
-9.7542
-7.68758
-5.75668
-4.07089
-2.56438
-1.10064
0.241129
1.27222
2.12226
2.97498
3.66324
4.06428
4.30193
4.52975
4.69698
4.5728
4.29656
4.12739
3.87795
3.49921
3.11062
2.74792
2.46134
2.18793
1.91269
1.71473
1.59946
1.55919
1.56133
1.67965
1.89736
2.1374
2.45449
2.9206
3.46491
4.01758
4.63496
5.39078
6.20313
7.0522
7.99128
9.01286
10.121
11.2972
12.4889
13.7475
15.0529
16.3337
17.6565
19.027
20.3664
21.7227
23.1165
24.4642
25.7474
27.0201
28.3107
29.6144
30.8821
32.0862
33.2665
34.4304
35.5413
36.5909
37.5956
38.5394
39.4036
40.2098
40.9736
41.6819
42.3292
42.9315
43.4984
44.0417
44.5572
45.0385
45.4623
45.8503
46.2128
46.5362
46.8091
47.0534
47.2735
47.4702
47.5933
47.6579
47.7184
47.8341
47.9953
48.1473
48.2233
48.2277
48.2085
48.2061
48.2112
48.1986
48.1404
48.0513
47.9502
47.8624
47.7898
47.7209
47.6285
47.5009
47.3573
47.2128
47.0709
46.9393
46.8037
46.6644
46.4878
46.2748
45.9627
45.5296
44.9718
44.2923
43.4469
42.4697
41.3969
40.2621
39.0395
37.8569
36.9082
36.0814
35.4589
35.0564
34.8366
34.9084
35.2166
35.733
36.3224
37.0474
37.8664
38.664
39.3981
40.1225
40.7738
41.3161
41.7449
42.1075
42.4113
42.6809
42.9532
43.2211
43.5009
43.7141
43.8737
43.9502
44.004
44.0382
44.0365
44.0528
44.0086
43.9892
43.9118
43.8238
43.7586
43.6446
43.5735
43.4129
43.258
43.0474
42.8549
42.6287
42.4106
42.1344
41.8629
41.5311
41.2096
40.8482
40.4918
40.0956
39.6679
39.1982
38.6578
38.0778
37.4004
36.6879
35.833
34.9139
33.8156
32.5701
31.1937
29.564
27.8679
25.9148
23.9488
21.8678
19.8813
17.9783
16.2325
14.6732
13.2778
12.0796
11.1993
10.3407
9.75761
8.74285
7.51905
5.16713
19.3256
19.3163
19.1383
18.8547
18.4952
18.0857
17.6139
17.054
16.374
15.5678
14.6542
13.6402
12.5421
11.3625
10.1088
8.79833
7.45896
6.07496
4.67285
3.30539
1.96425
0.692397
-0.484372
-1.50802
-2.37778
-3.04611
-3.46086
-3.71477
-3.81165
-3.74571
-3.54904
-3.10799
-2.51441
-1.78465
-0.859295
0.190822
1.42587
2.8353
4.37364
6.15649
8.17772
10.3421
12.6588
15.0745
17.5665
20.1162
22.6082
25.0067
27.3124
29.4823
31.5029
33.3834
35.1108
36.6339
37.9335
39.0438
39.9053
40.5072
40.8567
40.9046
40.5263
39.904
39.0789
38.0872
36.9891
35.8075
34.5377
33.1881
31.721
30.1713
28.6046
27.022
25.4661
23.9347
22.419
20.951
19.4892
18.0126
16.5637
15.0974
13.5877
12.0641
10.5277
8.95213
7.33611
5.70302
4.09767
2.57243
1.1507
-0.146123
-1.35612
-2.42593
-3.24114
-3.86982
-4.29344
-4.52809
-4.61479
-4.52873
-4.30199
-3.92461
-3.42026
-2.80402
-2.05929
-1.24491
-0.318316
0.639078
1.61779
2.6446
3.65709
4.65043
5.55806
6.48333
7.33161
8.08668
8.85134
9.47674
10.0568
10.567
10.9586
11.3036
11.5709
11.8467
12.0706
12.2571
12.4603
12.6028
12.8001
13.0063
13.1829
13.4427
13.7617
14.1564
14.6423
15.2383
15.9477
16.7814
17.7772
18.843
19.9949
21.2623
22.5918
24.0126
25.46
26.8732
28.2345
29.51
30.7378
31.8757
32.8702
33.7203
34.3434
34.6971
34.8272
34.7588
34.4492
33.8203
32.895
31.7057
30.1982
28.3494
26.1846
23.6992
20.8839
17.7604
14.3585
10.7197
6.89597
2.9315
-1.15181
-5.30983
-9.48831
-13.6584
-17.7936
-21.8614
-25.8331
-29.6949
-33.445
-37.0754
-40.541
-43.7425
-46.5665
-48.9616
-50.9228
-52.1619
-52.8299
-52.8619
-52.2623
-51.0249
-49.2567
-47.1256
-44.6868
-41.8713
-38.7338
-35.4501
-32.1192
-28.747
-25.3628
-22.016
-18.7474
-15.6916
-12.8737
-10.2279
-7.74579
-5.5356
-3.51343
-1.60016
0.0505579
1.48007
2.85733
4.1046
5.10541
5.95032
6.72126
7.40368
7.83028
8.02268
8.2239
8.37253
8.33787
8.22211
8.11133
8.0041
7.85171
7.69959
7.56955
7.46981
7.41841
7.37373
7.40338
7.54142
7.71062
7.90669
8.2003
8.59621
9.05811
9.53336
10.0823
10.65
11.259
11.9674
12.7985
13.6655
14.5827
15.5583
16.6009
17.6918
18.7634
19.8096
20.9161
22.0222
23.1156
24.255
25.4375
26.583
27.7362
28.884
30.0022
31.1032
32.2337
33.3444
34.4147
35.3999
36.3265
37.2361
38.1557
39.0296
39.8405
40.5946
41.3081
41.9732
42.5946
43.1617
43.6603
44.1245
44.5719
45.0097
45.4204
45.8144
46.193
46.5323
46.8034
47.0217
47.2165
47.3983
47.5418
47.6288
47.699
47.8335
47.9989
48.1289
48.1808
48.1583
48.1186
48.1163
48.1365
48.1456
48.1219
48.0628
47.9846
47.9073
47.8404
47.7714
47.6729
47.5657
47.4287
47.2831
47.1201
46.9603
46.7854
46.6019
46.3724
46.0951
45.7476
45.301
44.7016
43.9635
43.0636
42.0476
40.8743
39.5978
38.3194
37.0945
35.7496
34.6231
33.6971
32.9931
32.5593
32.4065
32.5169
32.8979
33.4011
33.9373
34.7108
35.6508
36.6243
37.5355
38.4353
39.2129
39.9053
40.5519
41.1829
41.7203
42.1619
42.5216
42.8158
43.0868
43.3211
43.5276
43.656
43.782
43.8521
43.8749
43.8819
43.823
43.8275
43.7509
43.7234
43.6232
43.508
43.3867
43.2128
43.07
42.8618
42.6593
42.4011
42.1347
41.8235
41.5296
41.1708
40.8503
40.436
40.066
39.6075
39.1619
38.6436
38.0755
37.4472
36.6924
35.8556
34.83
33.7285
32.393
30.9775
29.2989
27.5509
25.5521
23.5817
21.4687
19.5149
17.5302
15.7284
14.0162
12.5129
11.0643
9.80778
8.59627
7.39297
6.1614
4.77268
3.30652
20.1329
19.736
18.591
17.6461
17.0427
16.7159
16.4549
16.1409
15.666
15.0193
14.2387
13.314
12.3192
11.2352
10.1035
8.91312
7.69083
6.46091
5.2092
4.02376
2.83642
1.75023
0.76595
-0.129493
-0.830076
-1.39825
-1.77208
-1.97699
-2.05187
-1.90719
-1.61398
-1.14098
-0.46904
0.317308
1.23195
2.29741
3.45084
4.76994
6.31514
8.04327
9.97193
11.9773
14.0595
16.2124
18.3741
20.5584
22.7335
24.8493
26.8526
28.7457
30.5152
32.1366
33.5727
34.8102
35.8418
36.705
37.3758
37.8112
38.1319
38.2463
38.174
37.7885
37.2607
36.6551
35.8343
34.8589
33.7453
32.4804
31.1467
29.769
28.3758
26.9777
25.5806
24.2155
22.8398
21.444
20.0663
18.6843
17.2895
15.8963
14.5112
13.1035
11.6634
10.2237
8.8182
7.47439
6.1542
4.81754
3.50277
2.24621
1.25016
0.406213
-0.308579
-0.903497
-1.30558
-1.53769
-1.63597
-1.57621
-1.35386
-0.942308
-0.412693
0.234323
0.962648
1.71549
2.58499
3.44964
4.33261
5.2115
6.03199
6.84746
7.58202
8.30528
8.90275
9.46343
10.0061
10.4268
10.8922
11.2039
11.4439
11.6924
11.7964
11.9167
11.9393
11.9119
11.8915
11.7799
11.7253
11.6297
11.5708
11.6298
11.707
11.9389
12.3011
12.8032
13.4828
14.3596
15.4824
16.7336
18.1724
19.7335
21.3077
23.0229
24.784
26.5088
28.1665
29.6786
31.0991
32.4262
33.61
34.5779
35.3602
36.0284
36.3482
36.3027
36.1243
35.6169
34.6616
33.4319
31.8833
29.8663
27.4213
24.6326
21.5186
18.0782
14.3358
10.3206
6.09743
1.72983
-2.76246
-7.33049
-11.8935
-16.4026
-20.8536
-25.2231
-29.461
-33.5646
-37.5694
-41.438
-45.11
-48.5451
-51.6765
-54.4049
-56.63
-58.2576
-59.2038
-59.4393
-58.9499
-57.8022
-56.0891
-53.8789
-51.21
-48.191
-44.9243
-41.4539
-37.7741
-34.0095
-30.2215
-26.4037
-22.62
-19.0349
-15.6711
-12.4134
-9.38145
-6.6683
-4.17097
-1.87573
0.178343
2.08204
3.81777
5.36105
6.74424
7.99022
9.13978
10.0481
10.7038
11.343
11.9172
12.2941
12.5141
12.685
12.8813
12.9663
12.9315
12.9187
12.906
12.8867
12.8648
12.8147
12.8782
12.9985
13.0858
13.2127
13.4364
13.718
14.0215
14.3573
14.7826
15.2529
15.7487
16.3461
17.0088
17.6981
18.4453
19.2477
20.0819
20.9563
21.8391
22.7387
23.6596
24.5992
25.5651
26.5633
27.5477
28.5166
29.5286
30.5732
31.5965
32.5709
33.5103
34.4355
35.3671
36.2892
37.177
38.027
38.8334
39.5769
40.2593
40.9182
41.5422
42.1175
42.6595
43.1999
43.7364
44.2633
44.7519
45.1917
45.5603
45.8779
46.1544
46.4158
46.654
46.8845
47.1156
47.3256
47.4939
47.6137
47.733
47.8803
48.0401
48.1388
48.1483
48.0907
48.0522
48.0583
48.1085
48.1402
48.1402
48.1096
48.0592
47.9904
47.9228
47.8419
47.749
47.625
47.4825
47.3134
47.1314
46.9278
46.718
46.4775
46.2098
45.8705
45.4686
44.953
44.2998
43.4829
42.5231
41.3439
40.0056
38.5534
36.9896
35.3065
33.7074
32.2479
30.9662
29.9345
29.281
28.911
28.8044
28.8742
29.1483
29.6668
30.4981
31.4916
32.4932
33.5171
34.7241
35.9689
37.1203
38.1845
39.1549
40.0341
40.7859
41.4528
42.0078
42.4838
42.8353
43.0948
43.2949
43.4204
43.5655
43.6359
43.7449
43.763
43.7773
43.751
43.6731
43.6247
43.4985
43.4262
43.2563
43.1093
42.8785
42.6573
42.3726
42.1179
41.8038
41.5289
41.174
40.8317
40.4354
40.0422
39.6246
39.1655
38.6814
38.1003
37.4738
36.6993
35.8502
34.8161
33.7058
32.3627
30.9379
29.2517
27.4728
25.5488
23.5179
21.5287
19.485
17.5339
15.6405
13.8349
12.1743
10.4925
9.01781
7.60825
6.20158
5.05451
3.75075
2.54653
22.1012
21.8974
19.8985
18.0508
16.7111
15.9355
15.456
15.0705
14.6813
14.2017
13.637
12.9018
12.1176
11.243
10.3075
9.32446
8.25621
7.21042
6.12515
5.12758
4.19639
3.26564
2.44394
1.70495
1.11252
0.688042
0.394661
0.275117
0.300414
0.498681
0.853317
1.3637
2.01453
2.7875
3.67516
4.69265
5.84418
7.13642
8.63206
10.2213
11.9159
13.696
15.5219
17.4131
19.2684
21.0977
22.8988
24.618
26.2222
27.7111
29.1362
30.4734
31.6506
32.7283
33.7069
34.5194
35.2133
35.8116
36.2103
36.33
36.248
36.0237
35.6119
35.0979
34.4162
33.5581
32.6232
31.6252
30.5663
29.4484
28.2797
27.081
25.826
24.5604
23.3016
22.0166
20.7331
19.4549
18.1743
16.893
15.6209
14.3148
13.0117
11.7567
10.4954
9.19722
7.95253
6.90063
5.92464
4.96755
4.07125
3.325
2.68096
2.16922
1.86697
1.76755
1.83957
2.03653
2.35208
2.80428
3.35634
3.98355
4.59287
5.20988
5.91504
6.58634
7.27705
7.90783
8.50362
9.09309
9.5898
10.0805
10.4428
10.8224
11.1399
11.3774
11.6891
11.8128
11.9706
12.0517
11.97
11.9553
11.7405
11.5151
11.2151
10.7663
10.4137
9.953
9.60469
9.36767
9.14716
9.21433
9.43394
9.87241
10.5351
11.4166
12.6528
14.0875
15.8215
17.7496
19.6633
21.6623
23.7243
25.802
27.7354
29.5765
31.3386
32.8393
34.362
35.6699
36.4496
37.365
38.1476
38.0946
37.7942
37.4754
36.5632
35.0575
33.2355
31.1042
28.5737
25.6383
22.313
18.6019
14.5366
10.1596
5.54011
0.747044
-4.15539
-9.10698
-14.042
-18.8904
-23.5918
-28.148
-32.5618
-36.7956
-40.8488
-44.7443
-48.485
-52.0339
-55.2984
-58.1797
-60.5853
-62.4111
-63.5847
-64.0373
-63.7729
-62.8123
-61.1886
-58.9805
-56.3032
-53.2751
-49.9043
-46.2091
-42.2996
-38.3063
-34.2076
-29.9714
-25.7919
-21.8093
-17.9614
-14.2006
-10.7291
-7.54
-4.58253
-1.86641
0.641988
2.88927
4.92762
6.79046
8.4803
10.0222
11.3357
12.4005
13.4159
14.3729
15.1128
15.6885
16.1597
16.5875
16.9503
17.1271
17.2405
17.3423
17.4079
17.4327
17.4028
17.4191
17.4897
17.5262
17.5769
17.6822
17.806
17.9957
18.1999
18.4557
18.7827
19.1538
19.5694
20.0905
20.63
21.1791
21.7571
22.4357
23.1761
23.9235
24.6416
25.4076
26.2066
27.0256
27.8615
28.7352
29.6016
30.4633
31.3395
32.2324
33.086
33.9042
34.7429
35.6151
36.4668
37.2512
37.9493
38.6046
39.2659
39.9455
40.5834
41.2111
41.8416
42.4785
43.0306
43.5217
43.9477
44.3474
44.7081
45.0772
45.4243
45.7756
46.1052
46.4309
46.6967
46.9199
47.1188
47.3173
47.4788
47.6097
47.7261
47.8622
47.9917
48.0786
48.0951
48.083
48.096
48.1396
48.2024
48.2434
48.2425
48.2151
48.1564
48.0834
48.0029
47.9148
47.8252
47.7014
47.5414
47.3554
47.1499
46.919
46.657
46.3543
46.0209
45.6281
45.1374
44.5154
43.7602
42.7776
41.577
40.1307
38.4819
36.6242
34.6953
32.6868
30.6749
28.7815
27.1545
25.7531
24.6653
23.9046
23.4671
23.3111
23.5115
24.0846
24.9285
25.9286
27.068
28.489
30.0734
31.6248
33.113
34.7118
36.3107
37.7869
39.0459
40.0665
40.9084
41.5436
42.0816
42.4507
42.7986
43.0595
43.3078
43.4974
43.5937
43.688
43.6746
43.7184
43.658
43.6553
43.5514
43.4686
43.3096
43.1335
42.912
42.6782
42.4218
42.1589
41.8721
41.544
41.2244
40.8374
40.5034
40.0849
39.7053
39.2352
38.7624
38.1919
37.5619
36.8166
35.9761
34.9892
33.8708
32.5901
31.1288
29.5235
27.7434
25.9035
23.9076
21.9381
19.8783
17.8751
15.8718
13.9979
12.2208
10.4711
8.93378
7.41783
5.97028
4.80262
3.52699
2.40708
16.9485
16.7705
17.5056
17.7053
17.3214
16.5807
15.7054
14.9229
14.2496
13.7234
13.2662
12.7415
12.1624
11.5295
10.8131
10.0514
9.22005
8.37955
7.52667
6.58915
5.76725
4.96876
4.29419
3.71939
3.24809
2.96707
2.75697
2.73025
2.8078
3.04122
3.41891
3.90139
4.52943
5.23595
6.0949
7.04421
8.15589
9.39304
10.6807
12.0974
13.5334
15.0403
16.5619
18.08
19.6359
21.089
22.5414
23.99
25.3608
26.7208
28.0338
29.2781
30.4067
31.3911
32.2824
33.0266
33.5571
33.9201
34.1885
34.3356
34.3814
34.2474
33.9262
33.4876
32.9902
32.3618
31.6411
30.8768
30.0407
29.1284
28.1433
27.1251
26.0573
24.9615
23.8839
22.8015
21.6878
20.5707
19.4591
18.3191
17.1784
16.0507
14.9324
13.7654
12.6614
11.6423
10.7486
9.81487
8.94948
8.13055
7.40505
6.86035
6.43412
6.13587
5.96019
5.9542
6.07894
6.27189
6.52262
6.86198
7.32016
7.80126
8.23288
8.6746
9.12645
9.55531
10.0109
10.4067
10.8124
11.1802
11.509
11.8621
12.0804
12.3275
12.4769
12.597
12.7308
12.6673
12.6669
12.4535
12.1966
11.9594
11.4172
10.9649
10.3014
9.54838
8.86035
7.92656
7.22739
6.55342
5.97531
5.7961
5.75349
6.1447
6.82077
7.75545
9.09058
10.6491
12.6622
14.968
17.4206
19.8079
22.1302
24.7367
26.961
29.0637
31.5218
33.2554
34.7533
36.6628
37.6672
38.0498
38.9708
39.622
39.2756
38.4471
37.4019
36.0435
34.3495
32.2723
29.7018
26.6085
23.0441
19.0675
14.7022
9.98823
5.00347
-0.178181
-5.47982
-10.8186
-16.1015
-21.259
-26.2131
-30.9351
-35.4223
-39.668
-43.6895
-47.504
-51.1138
-54.5204
-57.6821
-60.5237
-62.9463
-64.8296
-66.0792
-66.7199
-66.6223
-65.832
-64.3746
-62.3256
-59.7758
-56.766
-53.3468
-49.5872
-45.6013
-41.4152
-37.0635
-32.6073
-28.2171
-23.8965
-19.6051
-15.4943
-11.651
-8.05431
-4.65015
-1.49091
1.34333
3.88253
6.23092
8.36041
10.2753
11.9813
13.4415
14.7668
15.9992
17.0468
17.9344
18.6933
19.3273
19.8738
20.2989
20.5872
20.8225
21.0207
21.1341
21.1882
21.2208
21.2958
21.3418
21.3831
21.4351
21.5019
21.5949
21.7351
21.8846
22.0902
22.3656
22.683
23.047
23.4581
23.8999
24.3632
24.851
25.3853
25.9909
26.623
27.255
27.9032
28.5866
29.2892
30.0258
30.7705
31.4895
32.2001
32.9742
33.7731
34.5271
35.2213
35.9458
36.6745
37.3591
37.9987
38.6654
39.3419
40.005
40.6436
41.2306
41.7532
42.2154
42.6598
43.0744
43.4946
43.9099
44.335
44.7504
45.1474
45.4893
45.79
46.0883
46.3782
46.6245
46.8317
47.0517
47.2811
47.4753
47.628
47.7519
47.8928
48.0029
48.0774
48.1119
48.1454
48.196
48.2552
48.3142
48.3503
48.3605
48.3327
48.273
48.1971
48.1094
48.0218
47.9191
47.7961
47.6355
47.4433
47.2025
46.9341
46.6273
46.2842
45.8712
45.3946
44.7949
44.0169
42.9805
41.646
40.0213
38.1258
35.9426
33.5369
31.0564
28.5831
26.1288
23.8309
21.778
20.0401
18.649
17.6219
16.9247
16.6828
16.903
17.4605
18.3869
19.5785
20.9226
22.5496
24.4069
26.3886
28.4646
30.6392
32.7789
34.7423
36.5611
38.1049
39.4245
40.444
41.2631
41.8786
42.3274
42.7016
42.9369
43.2039
43.3517
43.5553
43.6418
43.7407
43.7399
43.7224
43.6574
43.5316
43.3906
43.1813
42.9874
42.746
42.5209
42.2337
41.9829
41.65
41.3628
40.9929
40.6567
40.2434
39.8482
39.3952
38.9233
38.3806
37.784
37.0758
36.2736
35.3203
34.216
32.9778
31.5319
29.9792
28.2506
26.4355
24.4606
22.4652
20.3977
18.4085
16.4124
14.5162
12.7402
10.9583
9.38212
7.88314
6.40893
5.17888
3.97957
2.92177
24.2525
23.8617
20.3559
17.117
14.9116
13.6521
13.1453
13.0747
13.1351
13.1708
13.0482
12.8092
12.4695
12.0408
11.4595
10.811
10.1187
9.39663
8.6722
7.87159
7.18338
6.53658
6.01491
5.57685
5.2346
5.04844
4.92994
4.95257
5.06326
5.32673
5.68712
6.15388
6.73171
7.39464
8.1948
9.06832
10.0792
11.1282
12.2055
13.4064
14.595
15.844
17.0955
18.3622
19.724
21.0349
22.3862
23.7007
24.9488
26.2004
27.3307
28.3632
29.281
30.0519
30.7644
31.3696
31.8622
32.2763
32.5863
32.8016
32.8327
32.7694
32.5914
32.2839
31.9309
31.4786
30.9159
30.2644
29.5718
28.8523
28.067
27.2343
26.3852
25.5152
24.6198
23.716
22.8215
21.9104
20.9417
20.008
19.1281
18.1883
17.2171
16.3402
15.5885
14.7492
13.7476
12.9313
12.2491
11.6092
11.0666
10.6714
10.3866
10.1891
10.0384
10.0171
10.069
10.1592
10.2649
10.4597
10.7453
11.0306
11.3296
11.6174
11.9079
12.2262
12.5453
12.8285
13.1232
13.3872
13.6732
13.9203
14.0643
14.2188
14.2443
14.2431
14.1273
13.8788
13.6563
13.1642
12.706
12.0837
11.231
10.4948
9.36925
8.28572
7.09221
5.61729
4.47688
3.1399
2.1005
1.45654
0.944018
1.23463
1.82166
2.94399
4.56696
6.24382
8.56844
11.1435
14.2656
17.4991
19.9078
22.8303
25.8408
27.8832
30.5489
33.2555
34.6835
36.1873
38.0498
38.9219
38.8747
38.8776
38.8661
38.5806
37.9047
36.7004
34.966
32.776
30.1545
27.0692
23.4844
19.4053
14.8582
9.90631
4.6212
-0.882996
-6.51837
-12.1809
-17.7651
-23.1877
-28.3659
-33.27
-37.849
-42.0969
-46.0389
-49.6962
-53.1016
-56.2638
-59.1731
-61.7923
-64.0455
-65.8443
-67.1129
-67.8343
-67.7648
-67.1059
-65.8415
-63.9784
-61.5665
-58.6435
-55.2965
-51.5787
-47.5711
-43.3141
-38.8597
-34.2933
-29.6855
-25.0808
-20.5244
-16.1421
-11.9302
-7.93106
-4.154
-0.7037
2.39236
5.26059
7.87005
10.2126
12.3211
14.1965
15.8341
17.3019
18.6297
19.7682
20.766
21.6167
22.3306
22.949
23.418
23.8144
24.169
24.4086
24.5541
24.6846
24.7635
24.8431
24.9155
24.936
24.9666
25.0232
25.0966
25.1849
25.3075
25.4761
25.7398
25.9936
26.2426
26.5479
26.9168
27.2569
27.6405
28.1189
28.6467
29.1316
29.642
30.2154
30.8122
31.4057
32.0284
32.6601
33.2901
33.9375
34.6172
35.2746
35.9
36.5075
37.1308
37.7243
38.3175
38.9059
39.5016
40.0373
40.5401
41.0045
41.4604
41.8973
42.3433
42.8134
43.3058
43.7596
44.1393
44.4648
44.7904
45.1159
45.4202
45.6919
45.9738
46.2572
46.5387
46.7957
47.0392
47.2471
47.4364
47.604
47.7702
47.9288
48.0617
48.1647
48.249
48.3161
48.3745
48.4027
48.4216
48.4235
48.4297
48.4137
48.3962
48.3548
48.2956
48.1991
48.0795
47.9192
47.7491
47.5434
47.3013
46.9732
46.6303
46.2621
45.8113
45.1906
44.3174
43.1519
41.6369
39.7515
37.4652
34.8696
32.0185
29.0459
26.0241
23.0455
20.2129
17.6999
15.433
13.5207
12.043
10.89
10.0552
9.91701
10.2493
10.898
11.8508
13.1775
14.7148
16.5696
18.8024
21.2159
23.659
26.1374
28.7822
31.4003
33.8348
35.9544
37.7658
39.2678
40.3375
41.2141
41.7872
42.3393
42.7075
43.0814
43.3489
43.5778
43.7407
43.8122
43.8609
43.8054
43.762
43.6308
43.5122
43.3259
43.1586
42.9134
42.7055
42.4154
42.177
41.8554
41.5664
41.2262
40.8655
40.4924
40.0842
39.6569
39.195
38.6771
38.0877
37.4268
36.6129
35.7161
34.6378
33.44
32.0847
30.5474
28.9314
27.1364
25.223
23.3026
21.2873
19.3263
17.3642
15.438
13.6663
11.9272
10.3301
8.87653
7.41553
6.14463
4.99392
3.92486
24.6975
23.852
19.6348
15.788
13.2857
12.0373
11.8153
12.1482
12.6238
13.0097
13.1701
13.1856
13.0291
12.7152
12.1948
11.5984
10.9524
10.3068
9.68072
9.03004
8.4795
7.97335
7.57493
7.24431
7.00589
6.87498
6.83278
6.87277
7.01838
7.27008
7.60539
8.0554
8.54741
9.18015
9.86934
10.6436
11.5022
12.3534
13.308
14.2813
15.2962
16.4075
17.5263
18.7282
19.9751
21.1724
22.3508
23.4315
24.4906
25.4804
26.3795
27.277
28.0731
28.7999
29.5012
30.1327
30.6634
31.0749
31.3714
31.5312
31.5672
31.5534
31.4572
31.2745
31.0099
30.6716
30.2411
29.7246
29.2074
28.6584
28.0536
27.4096
26.7451
26.0445
25.3252
24.6061
23.8858
23.1189
22.3572
21.6295
20.884
20.1332
19.3897
18.6823
17.9457
17.1467
16.4369
15.8613
15.3642
14.9057
14.4926
14.1645
13.9195
13.7101
13.5126
13.3919
13.3191
13.3227
13.3548
13.4661
13.6228
13.8278
14.0697
14.2994
14.5734
14.8492
15.1255
15.3842
15.6174
15.8224
16.0205
16.1458
16.2483
16.2973
16.2422
16.1365
15.8791
15.5671
15.1314
14.4807
13.8115
12.8543
11.7704
10.5548
8.93323
7.39721
5.48654
3.45763
1.6307
-0.556739
-2.13464
-3.50654
-4.60919
-4.56843
-4.33248
-2.96716
-0.858538
1.06939
3.96132
6.77456
10.0611
14.6094
17.8101
20.3294
23.7121
26.645
29.0013
31.5255
33.7135
35.209
36.3711
37.3193
38.0466
38.3321
38.1992
37.7005
36.936
35.8959
34.4657
32.525
30.0086
26.9191
23.2859
19.1298
14.4968
9.43415
4.01948
-1.64568
-7.47619
-13.3348
-19.1245
-24.7198
-30.0576
-35.0836
-39.729
-43.9865
-47.8454
-51.3404
-54.5083
-57.3727
-59.9518
-62.2338
-64.1853
-65.7359
-66.805
-67.2967
-67.449
-66.9561
-65.8536
-64.1564
-61.8997
-59.1353
-55.9167
-52.2991
-48.337
-44.0928
-39.6021
-34.9685
-30.2175
-25.4341
-20.6724
-16.0127
-11.5267
-7.22866
-3.18994
0.533016
3.93372
7.06162
9.89975
12.4592
14.7637
16.7786
18.5393
20.1186
21.5143
22.7224
23.7936
24.7117
25.4889
26.1327
26.6593
27.1471
27.5133
27.7541
27.9503
28.0496
28.1471
28.2706
28.295
28.2707
28.3337
28.3811
28.4188
28.4734
28.5576
28.6898
28.8506
28.992
29.1825
29.4272
29.6977
29.9912
30.3095
30.6703
31.0699
31.5096
31.9635
32.4231
32.8952
33.4174
33.9536
34.485
35.0001
35.543
36.0875
36.6279
37.1414
37.6418
38.1381
38.6559
39.185
39.6737
40.139
40.5861
41.0427
41.4762
41.928
42.3727
42.8116
43.1909
43.536
43.8476
44.1512
44.4521
44.769
45.0808
45.3752
45.6589
45.9344
46.2063
46.4587
46.7033
46.9312
47.156
47.3717
47.5851
47.796
47.9795
48.1297
48.2385
48.3304
48.4128
48.4839
48.5421
48.5819
48.6051
48.6137
48.6167
48.6304
48.6227
48.5911
48.5048
48.3971
48.2151
47.9786
47.6681
47.4246
47.1627
46.8358
46.3541
45.7091
44.7602
43.441
41.648
39.4069
36.7115
33.679
30.4061
26.9714
23.5208
20.2218
17.074
14.0762
11.4101
9.10312
7.16682
5.68683
4.61527
3.92083
3.78256
4.119
4.83522
6.02433
7.56563
9.27746
11.2922
13.7813
16.4712
19.1734
22.0087
25.1446
28.3099
31.1857
33.8109
36.0538
38.0411
39.5195
40.7309
41.5727
42.2242
42.7093
43.0771
43.4051
43.6282
43.8542
43.9416
44.0502
44.0283
44.0203
43.9145
43.8074
43.6237
43.429
43.1762
42.9363
42.6539
42.3928
42.1031
41.8084
41.4946
41.1504
40.7836
40.3883
39.9758
39.5023
39.0154
38.4224
37.7807
37.006
36.1558
35.1614
34.0295
32.7638
31.3251
29.7568
28.0451
26.2213
24.3648
22.4472
20.4917
18.5881
16.6979
14.9347
13.2404
11.6075
10.1449
8.71872
7.4195
6.2341
5.09443
24.8757
24.2086
20.0963
16.1891
13.4983
12.0384
11.6569
11.9274
12.4978
13.0497
13.3828
13.5213
13.4462
13.2364
12.8081
12.2889
11.7135
11.1302
10.6079
10.0682
9.63766
9.2557
8.91946
8.69501
8.50783
8.42177
8.42758
8.45727
8.64535
8.85532
9.18494
9.60044
10.0184
10.6107
11.1725
11.854
12.5593
13.2979
14.1457
14.9876
15.9755
16.9878
18.035
19.11