/*--------------------------------*- C++ -*----------------------------------*\
| =========                 |                                                 |
| \\      /  F ield         | OpenFOAM: The Open Source CFD Toolbox           |
|  \\    /   O peration     | Version:  2.4.0                                 |
|   \\  /    A nd           | Web:      www.OpenFOAM.org                      |
|    \\/     M anipulation  |                                                 |
\*---------------------------------------------------------------------------*/
FoamFile
{
    version     2.0;
    format      ascii;
    class       surfaceScalarField;
    location    "0.145";
    object      phi;
}
// * * * * * * * * * * * * * * * * * * * * * * * * * * * * * * * * * * * * * //

dimensions      [0 3 -1 0 0 0 0];

internalField   nonuniform List<scalar> 
34680
(
2.40728e-05
9.2723e-07
2.16927e-05
2.38006e-06
1.88223e-05
2.87036e-06
1.60439e-05
2.77841e-06
1.3622e-05
2.42193e-06
1.16572e-05
1.96481e-06
1.01531e-05
1.50408e-06
9.05347e-06
1.09965e-06
8.27819e-06
7.7528e-07
7.73575e-06
5.42438e-07
7.36346e-06
3.72297e-07
7.10317e-06
2.6029e-07
6.91257e-06
1.90602e-07
6.76651e-06
1.46057e-07
6.65e-06
1.16509e-07
6.54745e-06
1.02548e-07
6.46084e-06
8.66131e-08
6.37993e-06
8.09046e-08
6.30785e-06
7.20881e-08
6.23929e-06
6.85524e-08
6.1753e-06
6.39895e-08
6.1152e-06
6.01062e-08
6.05855e-06
5.66477e-08
6.00108e-06
5.74658e-08
5.9522e-06
4.888e-08
5.89824e-06
5.39679e-08
5.8501e-06
4.81383e-08
5.80253e-06
4.75671e-08
5.75664e-06
4.5891e-08
5.70501e-06
5.1632e-08
5.66221e-06
4.27927e-08
5.60597e-06
5.62489e-08
5.54949e-06
5.64709e-08
5.48151e-06
6.79837e-08
5.39811e-06
8.34047e-08
5.28691e-06
1.11199e-07
5.13887e-06
1.48036e-07
4.94172e-06
1.97152e-07
4.55513e-06
3.86589e-07
3.83848e-07
4.17128e-06
2.52148e-05
7.12399e-07
2.55487e-05
2.04616e-06
2.55711e-05
2.848e-06
2.52356e-05
3.11389e-06
2.46325e-05
3.02501e-06
2.38777e-05
2.7196e-06
2.3066e-05
2.31585e-06
2.22778e-05
1.88779e-06
2.15454e-05
1.50772e-06
2.08723e-05
1.21556e-06
2.02709e-05
9.73668e-07
1.97302e-05
8.01023e-07
1.9244e-05
6.76784e-07
1.88069e-05
5.83158e-07
1.84153e-05
5.08052e-07
1.80602e-05
4.57736e-07
1.77421e-05
4.04688e-07
1.74525e-05
3.70449e-07
1.71919e-05
3.3273e-07
1.69535e-05
3.06944e-07
1.67385e-05
2.78994e-07
1.65391e-05
2.5945e-07
1.63585e-05
2.37335e-07
1.61873e-05
2.28639e-07
1.60355e-05
2.00623e-07
1.58825e-05
2.06967e-07
1.57519e-05
1.78789e-07
1.56157e-05
1.8379e-07
1.54994e-05
1.62211e-07
1.53691e-05
1.81883e-07
1.52683e-05
1.43591e-07
1.5134e-05
1.90565e-07
1.5035e-05
1.55441e-07
1.48874e-05
2.15581e-07
1.4776e-05
1.94775e-07
1.45628e-05
3.24463e-07
1.43951e-05
3.15763e-07
1.40659e-05
5.26324e-07
1.39441e-05
5.08381e-07
7.71654e-07
1.35563e-05
2.51623e-05
5.50105e-07
2.56218e-05
1.58669e-06
2.61469e-05
2.32281e-06
2.65683e-05
2.69249e-06
2.68789e-05
2.71442e-06
2.7057e-05
2.54159e-06
2.71202e-05
2.25256e-06
2.70983e-05
1.90971e-06
2.70096e-05
1.59646e-06
2.68711e-05
1.35401e-06
2.67077e-05
1.13714e-06
2.65212e-05
9.87515e-07
2.63177e-05
8.80261e-07
2.61103e-05
7.90599e-07
2.58938e-05
7.24551e-07
2.5685e-05
6.66522e-07
2.54737e-05
6.15971e-07
2.52704e-05
5.73711e-07
2.50667e-05
5.36403e-07
2.48725e-05
5.01182e-07
2.46772e-05
4.74324e-07
2.45016e-05
4.34982e-07
2.4312e-05
4.26978e-07
2.41504e-05
3.90213e-07
2.39743e-05
3.76759e-07
2.38195e-05
3.6172e-07
2.36506e-05
3.47719e-07
2.35165e-05
3.17944e-07
2.3345e-05
3.33695e-07
2.32225e-05
3.04345e-07
2.30603e-05
3.05798e-07
2.29381e-05
3.12744e-07
2.27665e-05
3.27064e-07
2.26524e-05
3.29651e-07
2.24534e-05
3.93852e-07
2.23579e-05
4.19892e-07
2.21117e-05
5.61968e-07
2.199e-05
6.48091e-07
2.16755e-05
8.22849e-07
6.43986e-07
2.18032e-05
2.51309e-05
4.19232e-07
2.54973e-05
1.22024e-06
2.59718e-05
1.84832e-06
2.64324e-05
2.2319e-06
2.68859e-05
2.26088e-06
2.72539e-05
2.17359e-06
2.75653e-05
1.94119e-06
2.78026e-05
1.67243e-06
2.80041e-05
1.39492e-06
2.8153e-05
1.20512e-06
2.82801e-05
1.01003e-06
2.83539e-05
9.1371e-07
2.84188e-05
8.15361e-07
2.84533e-05
7.56143e-07
2.84807e-05
6.97149e-07
2.84926e-05
6.54656e-07
2.85022e-05
6.06368e-07
2.84924e-05
5.83517e-07
2.84882e-05
5.40547e-07
2.84668e-05
5.22578e-07
2.84524e-05
4.88775e-07
2.84246e-05
4.62752e-07
2.83995e-05
4.52061e-07
2.83597e-05
4.30042e-07
2.83313e-05
4.05167e-07
2.82833e-05
4.09733e-07
2.82486e-05
3.82418e-07
2.82026e-05
3.63865e-07
2.81566e-05
3.79752e-07
2.81015e-05
3.59422e-07
2.80527e-05
3.54632e-07
2.79907e-05
3.7472e-07
2.79227e-05
3.9503e-07
2.78656e-05
3.86806e-07
2.77407e-05
5.1875e-07
2.76609e-05
4.99651e-07
2.76366e-05
5.86292e-07
2.7846e-05
4.38695e-07
2.8185e-05
4.83808e-07
3.66431e-07
2.84626e-05
2.51272e-05
2.92028e-07
2.53381e-05
1.00937e-06
2.5817e-05
1.36944e-06
2.62204e-05
1.82847e-06
2.66894e-05
1.79191e-06
2.70146e-05
1.84839e-06
2.74082e-05
1.54755e-06
2.76081e-05
1.47256e-06
2.79045e-05
1.09847e-06
2.80466e-05
1.06299e-06
2.8279e-05
7.77641e-07
2.83727e-05
8.20084e-07
2.85764e-05
6.11642e-07
2.86234e-05
7.09153e-07
2.88073e-05
5.13222e-07
2.88149e-05
6.47001e-07
2.8984e-05
4.37302e-07
2.89765e-05
5.91027e-07
2.91464e-05
3.70677e-07
2.91293e-05
5.39652e-07
2.92893e-05
3.28744e-07
2.92591e-05
4.92999e-07
2.94169e-05
2.94246e-07
2.93708e-05
4.76107e-07
2.95305e-05
2.45523e-07
2.94776e-05
4.62616e-07
2.96424e-05
2.17655e-07
2.95726e-05
4.33658e-07
2.97387e-05
2.13634e-07
2.96458e-05
4.52341e-07
2.98243e-05
1.76117e-07
2.97167e-05
4.82298e-07
2.99058e-05
2.05948e-07
2.97998e-05
4.92782e-07
3.0042e-05
2.76582e-07
2.98854e-05
6.56186e-07
2.99775e-05
4.94199e-07
2.92414e-05
1.1748e-06
2.85271e-05
1.19809e-06
1.21463e-06
2.76789e-05
2.50929e-05
1.99085e-07
2.52977e-05
8.04566e-07
2.56679e-05
9.99289e-07
2.6062e-05
1.43437e-06
2.6484e-05
1.36993e-06
2.68527e-05
1.47968e-06
2.7181e-05
1.2192e-06
2.74445e-05
1.20905e-06
2.7673e-05
8.70049e-07
2.78642e-05
8.71755e-07
2.80405e-05
6.01343e-07
2.8194e-05
6.66622e-07
2.83341e-05
4.7148e-07
2.84673e-05
5.7596e-07
2.85752e-05
4.05324e-07
2.86947e-05
5.27485e-07
2.87936e-05
3.38412e-07
2.88988e-05
4.85874e-07
2.89806e-05
2.88819e-07
2.90781e-05
4.42167e-07
2.9153e-05
2.53835e-07
2.92522e-05
3.93783e-07
2.93203e-05
2.26176e-07
2.94144e-05
3.81992e-07
2.94641e-05
1.95869e-07
2.95559e-05
3.70761e-07
2.95971e-05
1.76545e-07
2.9697e-05
3.33664e-07
2.97386e-05
1.72125e-07
2.98403e-05
3.50634e-07
2.98805e-05
1.35872e-07
2.99936e-05
3.6925e-07
3.00333e-05
1.66253e-07
3.01348e-05
3.91244e-07
3.01586e-05
2.5277e-07
3.02786e-05
5.36192e-07
3.03864e-05
3.86442e-07
3.088e-05
6.81191e-07
3.1458e-05
6.20051e-07
7.95885e-07
3.18768e-05
2.50493e-05
1.49813e-07
2.52949e-05
5.58984e-07
2.55469e-05
7.47241e-07
2.59597e-05
1.02162e-06
2.631e-05
1.01957e-06
2.67086e-05
1.08106e-06
2.69838e-05
9.44018e-07
2.73124e-05
8.80509e-07
2.74924e-05
6.90037e-07
2.77356e-05
6.28508e-07
2.78571e-05
4.79853e-07
2.80582e-05
4.6556e-07
2.81485e-05
3.81114e-07
2.83276e-05
3.96932e-07
2.83978e-05
3.35137e-07
2.85712e-05
3.54065e-07
2.86072e-05
3.02424e-07
2.87732e-05
3.19806e-07
2.87986e-05
2.63463e-07
2.89609e-05
2.799e-07
2.89685e-05
2.46152e-07
2.91282e-05
2.34165e-07
2.91361e-05
2.18202e-07
2.92916e-05
2.26555e-07
2.92826e-05
2.04838e-07
2.94382e-05
2.15128e-07
2.94317e-05
1.83055e-07
2.95932e-05
1.72148e-07
2.95698e-05
1.95609e-07
2.97319e-05
1.88475e-07
2.97043e-05
1.63441e-07
2.98781e-05
1.95478e-07
2.98621e-05
1.82273e-07
3.00574e-05
1.95902e-07
3.00753e-05
2.34913e-07
3.03534e-05
2.58071e-07
3.04491e-05
2.9071e-07
3.07769e-05
3.53467e-07
3.08884e-05
5.08542e-07
3.52309e-07
3.1332e-05
2.50375e-05
1.12324e-07
2.52403e-05
3.56136e-07
2.55054e-05
4.82139e-07
2.58727e-05
6.54319e-07
2.62152e-05
6.77146e-07
2.6592e-05
7.04248e-07
2.68903e-05
6.45709e-07
2.71937e-05
5.7712e-07
2.74141e-05
4.69623e-07
2.76126e-05
4.30037e-07
2.77737e-05
3.18727e-07
2.79284e-05
3.10811e-07
2.80492e-05
2.60356e-07
2.81939e-05
2.52209e-07
2.83065e-05
2.22507e-07
2.84106e-05
2.49955e-07
2.85187e-05
1.94414e-07
2.86277e-05
2.10753e-07
2.8735e-05
1.56144e-07
2.88126e-05
2.02336e-07
2.89092e-05
1.49596e-07
2.89898e-05
1.53512e-07
2.90767e-05
1.31336e-07
2.91406e-05
1.62603e-07
2.92209e-05
1.24608e-07
2.92764e-05
1.59561e-07
2.93607e-05
9.87705e-08
2.94075e-05
1.2537e-07
2.95019e-05
1.0121e-07
2.95579e-05
1.32459e-07
2.9642e-05
7.93084e-08
2.97148e-05
1.22696e-07
2.98456e-05
5.14743e-08
2.99132e-05
1.28289e-07
3.00669e-05
8.12315e-08
3.02043e-05
1.20708e-07
3.03886e-05
1.06333e-07
3.0593e-05
1.49113e-07
3.09515e-05
1.50017e-07
1.35477e-07
3.11684e-05
2.50118e-05
1.00515e-07
2.52565e-05
1.11424e-07
2.54582e-05
2.80495e-07
2.58251e-05
2.87379e-07
2.61287e-05
3.73545e-07
2.65264e-05
3.0657e-07
2.68016e-05
3.70491e-07
2.71178e-05
2.60899e-07
2.7308e-05
2.79418e-07
2.75815e-05
1.56588e-07
2.76901e-05
2.10079e-07
2.78716e-05
1.29313e-07
2.79621e-05
1.69845e-07
2.81438e-05
7.05418e-08
2.82072e-05
1.59114e-07
2.83664e-05
9.07612e-08
2.84304e-05
1.30365e-07
2.85951e-05
4.60653e-08
2.86218e-05
1.29445e-07
2.87618e-05
6.23347e-08
2.88101e-05
1.01348e-07
2.89436e-05
1.99723e-08
2.89683e-05
1.06636e-07
2.90971e-05
3.38298e-08
2.9116e-05
1.0574e-07
2.92376e-05
3.78938e-08
2.92568e-05
7.95512e-08
2.93813e-05
9.2579e-10
2.9415e-05
6.74466e-08
2.9526e-05
2.15372e-08
2.95288e-05
7.65205e-08
2.96799e-05
-2.84111e-08
2.97201e-05
1.12473e-08
2.98677e-05
-1.93135e-08
2.99629e-05
-1.39557e-08
3.01602e-05
-7.6631e-08
3.03068e-05
-4.02271e-08
3.05975e-05
-1.41624e-07
3.084e-05
-9.24432e-08
3.9825e-08
3.09356e-05
2.50159e-05
8.46351e-08
2.52342e-05
-1.06933e-07
2.54584e-05
5.62957e-08
2.57989e-05
-5.30806e-08
2.61042e-05
6.82039e-08
2.6487e-05
-7.62436e-08
2.67811e-05
7.64519e-08
2.70753e-05
-3.33535e-08
2.73052e-05
4.95364e-08
2.75219e-05
-6.00722e-08
2.76745e-05
5.7483e-08
2.7823e-05
-1.91828e-08
2.79506e-05
4.22467e-08
2.80805e-05
-5.94209e-08
2.81908e-05
4.89002e-08
2.83059e-05
-2.4383e-08
2.84227e-05
1.351e-08
2.8526e-05
-5.72201e-08
2.8624e-05
3.14377e-08
2.87183e-05
-3.19008e-08
2.88176e-05
2.04458e-09
2.88876e-05
-5.00462e-08
2.89693e-05
2.48857e-08
2.90323e-05
-2.90977e-08
2.91142e-05
2.38261e-08
2.91746e-05
-2.2544e-08
2.92603e-05
-6.16416e-09
2.93162e-05
-5.49545e-08
2.94032e-05
-1.95255e-08
2.94445e-05
-1.97301e-08
2.95294e-05
-8.36641e-09
2.96069e-05
-1.06003e-07
2.97141e-05
-9.58905e-08
2.97971e-05
-1.02304e-07
2.99601e-05
-1.76955e-07
3.00864e-05
-2.02994e-07
3.03076e-05
-2.61398e-07
3.05531e-05
-3.87155e-07
3.08408e-05
-3.80154e-07
-9.08588e-08
3.09715e-05
2.50058e-05
7.88357e-08
2.52728e-05
-3.73927e-07
2.54237e-05
-9.45747e-08
2.58274e-05
-4.56837e-07
2.60648e-05
-1.69143e-07
2.65063e-05
-5.17818e-07
2.67174e-05
-1.34596e-07
2.71126e-05
-4.28514e-07
2.72517e-05
-8.95832e-08
2.75771e-05
-3.85527e-07
2.76318e-05
2.79313e-09
2.78938e-05
-2.81196e-07
2.79232e-05
1.29053e-08
2.81535e-05
-2.89777e-07
2.81589e-05
4.35288e-08
2.83978e-05
-2.63253e-07
2.83814e-05
2.99182e-08
2.85827e-05
-2.58546e-07
2.856e-05
5.41451e-08
2.8784e-05
-2.55966e-07
2.87417e-05
4.44264e-08
2.89413e-05
-2.49651e-07
2.88924e-05
7.37977e-08
2.91e-05
-2.36743e-07
2.90488e-05
7.50461e-08
2.92649e-05
-2.38668e-07
2.91983e-05
6.04705e-08
2.93982e-05
-2.54889e-07
2.93283e-05
5.04108e-08
2.95421e-05
-2.33595e-07
2.9476e-05
5.77435e-08
2.96868e-05
-3.16812e-07
2.95966e-05
-5.68133e-09
2.9836e-05
-3.41712e-07
2.97888e-05
-1.29752e-07
3.01063e-05
-5.2044e-07
3.02477e-05
-4.02844e-07
3.06432e-05
-7.82627e-07
3.07563e-05
-4.93303e-07
-5.85166e-07
3.12506e-05
2.50444e-05
3.44441e-08
2.52634e-05
-5.92925e-07
2.54657e-05
-2.96917e-07
2.58386e-05
-8.29667e-07
2.61403e-05
-4.70837e-07
2.65241e-05
-9.01665e-07
2.68069e-05
-4.17345e-07
2.71672e-05
-7.88817e-07
2.73197e-05
-2.42151e-07
2.75873e-05
-6.53121e-07
2.76792e-05
-8.90978e-08
2.79268e-05
-5.28783e-07
2.79662e-05
-2.65103e-08
2.81867e-05
-5.10255e-07
2.82074e-05
2.28037e-08
2.84346e-05
-4.90447e-07
2.84201e-05
4.44444e-08
2.86304e-05
-4.68829e-07
2.8626e-05
5.84717e-08
2.88289e-05
-4.58864e-07
2.87859e-05
8.74415e-08
2.89733e-05
-4.36991e-07
2.89398e-05
1.0729e-07
2.91437e-05
-4.40655e-07
2.91052e-05
1.13525e-07
2.9312e-05
-4.45427e-07
2.92439e-05
1.28488e-07
2.9435e-05
-4.45994e-07
2.93719e-05
1.13571e-07
2.95912e-05
-4.52887e-07
2.95277e-05
1.21251e-07
2.97296e-05
-5.18775e-07
2.96339e-05
9.00946e-08
2.98742e-05
-5.82062e-07
2.97638e-05
-1.93848e-08
3.00314e-05
-7.87948e-07
3.00162e-05
-3.87728e-07
3.06732e-05
-1.43957e-06
3.13054e-05
-1.12553e-06
-1.44644e-06
3.21667e-05
2.5135e-05
-1.00511e-07
2.51172e-05
-5.75143e-07
2.55654e-05
-7.45179e-07
2.57948e-05
-1.05899e-06
2.63121e-05
-9.88163e-07
2.65411e-05
-1.13064e-06
2.69908e-05
-8.67056e-07
2.71245e-05
-9.22593e-07
2.75225e-05
-6.40102e-07
2.75786e-05
-7.09227e-07
2.79179e-05
-4.28377e-07
2.79158e-05
-5.26728e-07
2.82082e-05
-3.1887e-07
2.81716e-05
-4.73661e-07
2.84542e-05
-2.59771e-07
2.8391e-05
-4.27276e-07
2.86613e-05
-2.25839e-07
2.85928e-05
-4.00364e-07
2.88477e-05
-1.96453e-07
2.87561e-05
-3.67263e-07
2.90136e-05
-1.70002e-07
2.89241e-05
-3.47471e-07
2.91894e-05
-1.58004e-07
2.90869e-05
-3.38169e-07
2.93424e-05
-1.41989e-07
2.92263e-05
-3.29373e-07
2.9486e-05
-1.31154e-07
2.9367e-05
-3.27056e-07
2.96305e-05
-1.49849e-07
2.95153e-05
-3.37769e-07
2.97843e-05
-1.47702e-07
2.96316e-05
-3.66058e-07
2.99051e-05
-1.83429e-07
2.9772e-05
-4.48964e-07
3.00404e-05
-2.87795e-07
2.98971e-05
-6.44664e-07
3.00628e-05
-5.53369e-07
2.9485e-05
-8.61818e-07
2.90621e-05
-7.02597e-07
-7.7549e-07
2.83911e-05
2.51205e-05
-2.21059e-07
2.52136e-05
-6.68228e-07
2.55972e-05
-1.12879e-06
2.59076e-05
-1.36933e-06
2.6388e-05
-1.46859e-06
2.66651e-05
-1.40772e-06
2.7076e-05
-1.27794e-06
2.72649e-05
-1.11153e-06
2.76058e-05
-9.81035e-07
2.76815e-05
-7.84849e-07
2.79431e-05
-6.90045e-07
2.80132e-05
-5.96803e-07
2.8259e-05
-5.64617e-07
2.828e-05
-4.94741e-07
2.85078e-05
-4.87573e-07
2.85043e-05
-4.23757e-07
2.87218e-05
-4.43349e-07
2.87009e-05
-3.79389e-07
2.89036e-05
-3.99246e-07
2.88799e-05
-3.43508e-07
2.90832e-05
-3.73363e-07
2.90469e-05
-3.11155e-07
2.92444e-05
-3.55458e-07
2.92001e-05
-2.93895e-07
2.93907e-05
-3.32608e-07
2.93433e-05
-2.81969e-07
2.95522e-05
-3.39999e-07
2.94993e-05
-2.74167e-07
2.96914e-05
-3.41998e-07
2.96327e-05
-2.79031e-07
2.98283e-05
-3.43259e-07
2.976e-05
-2.97764e-07
2.99718e-05
-3.95272e-07
2.98763e-05
-3.53433e-07
3.00539e-05
-4.65475e-07
2.98628e-05
-4.53503e-07
2.98424e-05
-5.32984e-07
2.95458e-05
-5.65263e-07
2.94484e-05
-6.0514e-07
-3.75069e-07
2.9048e-05
2.51085e-05
-3.29563e-07
2.53277e-05
-8.87404e-07
2.56752e-05
-1.47626e-06
2.60621e-05
-1.75628e-06
2.64887e-05
-1.89523e-06
2.6844e-05
-1.76294e-06
2.7198e-05
-1.632e-06
2.74549e-05
-1.36836e-06
2.7679e-05
-1.20521e-06
2.78544e-05
-9.60267e-07
2.80552e-05
-8.90819e-07
2.81912e-05
-7.32772e-07
2.83471e-05
-7.2056e-07
2.84496e-05
-5.97256e-07
2.85866e-05
-6.24493e-07
2.86859e-05
-5.23052e-07
2.8801e-05
-5.58446e-07
2.88917e-05
-4.70121e-07
2.89978e-05
-5.05342e-07
2.90761e-05
-4.21782e-07
2.91677e-05
-4.65015e-07
2.92396e-05
-3.83045e-07
2.93219e-05
-4.37801e-07
2.93935e-05
-3.65406e-07
2.94736e-05
-4.12746e-07
2.95454e-05
-3.53762e-07
2.96199e-05
-4.14515e-07
2.96851e-05
-3.39323e-07
2.97544e-05
-4.11312e-07
2.98303e-05
-3.54948e-07
2.98958e-05
-4.08819e-07
2.997e-05
-3.71903e-07
3.0016e-05
-4.41336e-07
3.00404e-05
-3.77818e-07
3.00173e-05
-4.42369e-07
2.99727e-05
-4.08902e-07
2.98873e-05
-4.47537e-07
2.97077e-05
-3.85673e-07
2.94754e-05
-3.72872e-07
-2.25124e-07
2.93255e-05
2.51133e-05
-4.42909e-07
2.53929e-05
-1.16691e-06
2.5806e-05
-1.88945e-06
2.62387e-05
-2.18891e-06
2.66637e-05
-2.32023e-06
2.70374e-05
-2.13669e-06
2.73808e-05
-1.97537e-06
2.76346e-05
-1.62214e-06
2.78789e-05
-1.44951e-06
2.80701e-05
-1.15148e-06
2.82516e-05
-1.07237e-06
2.83859e-05
-8.67028e-07
2.85316e-05
-8.66307e-07
2.86345e-05
-7.001e-07
2.87632e-05
-7.53162e-07
2.88389e-05
-5.98777e-07
2.89508e-05
-6.70358e-07
2.9007e-05
-5.26298e-07
2.91097e-05
-6.08034e-07
2.91508e-05
-4.62913e-07
2.92507e-05
-5.64943e-07
2.92823e-05
-4.14586e-07
2.9375e-05
-5.30585e-07
2.93955e-05
-3.85894e-07
2.94885e-05
-5.05712e-07
2.94975e-05
-3.62775e-07
2.95855e-05
-5.02547e-07
2.9583e-05
-3.36824e-07
2.96742e-05
-5.02433e-07
2.96574e-05
-3.38203e-07
2.97472e-05
-4.98594e-07
2.97142e-05
-3.38934e-07
2.97926e-05
-5.19751e-07
2.97272e-05
-3.12421e-07
2.97847e-05
-4.99872e-07
2.96335e-05
-2.57658e-07
2.95845e-05
-3.985e-07
2.93051e-05
-1.0628e-07
2.9173e-05
-2.40844e-07
6.64697e-08
2.88815e-05
2.51219e-05
-5.64819e-07
2.55131e-05
-1.55811e-06
2.59713e-05
-2.34761e-06
2.64468e-05
-2.6644e-06
2.68668e-05
-2.74029e-06
2.726e-05
-2.52992e-06
2.75519e-05
-2.26727e-06
2.78218e-05
-1.89196e-06
2.80008e-05
-1.62855e-06
2.81658e-05
-1.31647e-06
2.82638e-05
-1.17037e-06
2.83625e-05
-9.65747e-07
2.84053e-05
-9.09137e-07
2.84634e-05
-7.58156e-07
2.8471e-05
-7.60799e-07
2.85023e-05
-6.30045e-07
2.84891e-05
-6.57146e-07
2.85011e-05
-5.38331e-07
2.84754e-05
-5.82295e-07
2.84726e-05
-4.60137e-07
2.84359e-05
-5.28269e-07
2.84226e-05
-4.01276e-07
2.83804e-05
-4.88392e-07
2.83533e-05
-3.58804e-07
2.83067e-05
-4.59046e-07
2.82672e-05
-3.23257e-07
2.82115e-05
-4.4686e-07
2.81635e-05
-2.88876e-07
2.81025e-05
-4.41451e-07
2.80379e-05
-2.73567e-07
2.79759e-05
-4.36639e-07
2.78911e-05
-2.54129e-07
2.78195e-05
-4.48114e-07
2.77226e-05
-2.15513e-07
2.76516e-05
-4.28859e-07
2.75149e-05
-1.20978e-07
2.73908e-05
-2.74368e-07
2.70761e-05
2.08405e-07
2.67891e-05
4.61821e-08
4.30107e-07
2.64254e-05
2.51564e-05
-7.21227e-07
2.56307e-05
-2.0324e-06
2.61418e-05
-2.85876e-06
2.65754e-05
-3.09797e-06
2.68712e-05
-3.03604e-06
2.70616e-05
-2.72035e-06
2.7113e-05
-2.31871e-06
2.71031e-05
-1.882e-06
2.70008e-05
-1.52631e-06
2.68805e-05
-1.1961e-06
2.66974e-05
-9.87262e-07
2.65245e-05
-7.92876e-07
2.63047e-05
-6.89312e-07
2.61148e-05
-5.68299e-07
2.58824e-05
-5.28409e-07
2.56904e-05
-4.3806e-07
2.54596e-05
-4.2627e-07
2.52716e-05
-3.50335e-07
2.50485e-05
-3.59206e-07
2.48732e-05
-2.84864e-07
2.46565e-05
-3.11521e-07
2.44953e-05
-2.40145e-07
2.42842e-05
-2.773e-07
2.41327e-05
-2.07248e-07
2.39299e-05
-2.56261e-07
2.37868e-05
-1.80168e-07
2.35861e-05
-2.46139e-07
2.34565e-05
-1.59255e-07
2.3254e-05
-2.39017e-07
2.31301e-05
-1.49682e-07
2.29292e-05
-2.35712e-07
2.28107e-05
-1.35587e-07
2.25993e-05
-2.36789e-07
2.24938e-05
-1.09972e-07
2.22667e-05
-2.01768e-07
2.22084e-05
-6.26758e-08
2.20884e-05
-1.54375e-07
2.22939e-05
2.94741e-09
2.25078e-05
-1.67701e-07
-9.19511e-08
2.30298e-05
2.5211e-05
-9.32186e-07
2.55528e-05
-2.37428e-06
2.55684e-05
-2.87436e-06
2.52412e-05
-2.77078e-06
2.46314e-05
-2.42619e-06
2.38771e-05
-1.9661e-06
2.30646e-05
-1.50617e-06
2.22793e-05
-1.09665e-06
2.15366e-05
-7.83666e-07
2.08743e-05
-5.33753e-07
2.02642e-05
-3.77152e-07
1.97289e-05
-2.57588e-07
1.92351e-05
-1.95516e-07
1.88063e-05
-1.39512e-07
1.84031e-05
-1.25173e-07
1.80595e-05
-9.4519e-08
1.7728e-05
-9.47249e-08
1.74505e-05
-7.28948e-08
1.71744e-05
-8.30923e-08
1.69495e-05
-5.99355e-08
1.67144e-05
-7.64867e-08
1.65281e-05
-5.38417e-08
1.63229e-05
-7.20117e-08
1.61651e-05
-4.95198e-08
1.59798e-05
-7.09416e-08
1.58441e-05
-4.44303e-08
1.56701e-05
-7.21523e-08
1.5552e-05
-4.11477e-08
1.5384e-05
-7.09945e-08
1.52766e-05
-4.23109e-08
1.5111e-05
-7.0099e-08
1.50142e-05
-3.88077e-08
1.48465e-05
-6.91237e-08
1.47683e-05
-3.17824e-08
1.46165e-05
-4.99423e-08
1.45698e-05
-1.59232e-08
1.44287e-05
-1.33638e-08
1.44476e-05
-1.58973e-08
1.43802e-05
-1.00317e-07
-2.66492e-07
1.45547e-05
2.40678e-05
2.16935e-05
1.88192e-05
1.60484e-05
1.36222e-05
1.16561e-05
1.01499e-05
9.05329e-06
8.26963e-06
7.73587e-06
7.35872e-06
7.10113e-06
6.90562e-06
6.7661e-06
6.64093e-06
6.54641e-06
6.45169e-06
6.37879e-06
6.2957e-06
6.23576e-06
6.15928e-06
6.10544e-06
6.03342e-06
5.9839e-06
5.91296e-06
5.86853e-06
5.79638e-06
5.75523e-06
5.68424e-06
5.64193e-06
5.57183e-06
5.53302e-06
5.4639e-06
5.43211e-06
5.38217e-06
5.36625e-06
5.35289e-06
5.33699e-06
5.23667e-06
4.97018e-06
4.36544e-06
-1.48524e-08
-1.79301e-07
4.68123e-06
-1.13929e-08
-3.04403e-07
5.04401e-06
4.22975e-08
-4.0508e-07
5.40224e-06
1.14958e-07
-4.73188e-07
5.72055e-06
2.1408e-07
-5.32385e-07
6.02541e-06
3.25452e-07
-6.30309e-07
6.33382e-06
4.35606e-07
-7.44023e-07
6.66444e-06
5.36041e-07
-8.66658e-07
7.02311e-06
6.16331e-07
-9.75002e-07
7.43419e-06
6.88012e-07
-1.09909e-06
7.87985e-06
7.57572e-07
-1.20323e-06
8.34221e-06
8.23017e-07
-1.28537e-06
8.83644e-06
8.83946e-07
-1.37818e-06
9.34944e-06
9.26022e-07
-1.43902e-06
9.88177e-06
9.37926e-07
-1.47026e-06
1.04407e-05
9.46157e-07
-1.50508e-06
1.101e-05
9.37555e-07
-1.5069e-06
1.15767e-05
9.04306e-07
-1.47101e-06
1.21293e-05
8.42579e-07
-1.39509e-06
1.26577e-05
7.65235e-07
-1.29364e-06
1.31556e-05
6.58838e-07
-1.15673e-06
1.36003e-05
5.21954e-07
-9.6672e-07
1.39952e-05
3.59742e-07
-7.54662e-07
1.43587e-05
1.73671e-07
-5.37154e-07
1.46753e-05
-2.4375e-08
-2.9221e-07
1.4898e-05
-2.14322e-07
-8.41072e-09
1.51052e-05
-4.12431e-07
2.05234e-07
1.52692e-05
-6.14111e-07
4.50177e-07
1.54343e-05
-8.44214e-07
6.79111e-07
1.56106e-05
-1.05135e-06
8.74994e-07
1.58264e-05
-1.27587e-06
1.06013e-06
1.60904e-05
-1.50008e-06
1.23603e-06
1.63898e-05
-1.72617e-06
1.42675e-06
1.67326e-05
-1.97739e-06
1.63461e-06
1.70824e-05
-2.21082e-06
1.86099e-06
1.7436e-05
-2.47069e-06
2.11711e-06
1.77901e-05
-2.73138e-06
2.37733e-06
1.81375e-05
-2.97685e-06
2.62942e-06
1.8485e-05
-3.25053e-06
2.90308e-06
1.88111e-05
-3.51709e-06
3.19099e-06
1.90975e-05
-3.7716e-06
3.48518e-06
1.93139e-05
-3.98372e-06
3.76731e-06
1.94642e-05
-4.14596e-06
3.99569e-06
1.9556e-05
-4.24115e-06
4.14927e-06
1.96025e-05
-4.29383e-06
4.24738e-06
1.95963e-05
-4.28774e-06
4.2939e-06
1.95217e-05
-4.23089e-06
4.30554e-06
1.93705e-05
-4.12511e-06
4.27632e-06
1.9172e-05
-3.96918e-06
4.16765e-06
1.89431e-05
-3.7704e-06
3.99931e-06
1.8733e-05
-3.553e-06
3.76305e-06
1.85692e-05
-3.3174e-06
3.48124e-06
1.84621e-05
-3.04748e-06
3.15454e-06
1.84015e-05
-2.71685e-06
2.77749e-06
1.83761e-05
-2.36045e-06
2.38586e-06
1.83277e-05
-2.00186e-06
2.0502e-06
1.82141e-05
-1.59384e-06
1.70753e-06
1.80113e-05
-1.13038e-06
1.33312e-06
1.77079e-05
-6.13107e-07
9.16562e-07
1.72982e-05
-7.50312e-08
4.84661e-07
1.67921e-05
4.07479e-07
9.86482e-08
1.62055e-05
7.89986e-07
-2.03338e-07
1.56377e-05
1.0795e-06
-5.11716e-07
1.51905e-05
1.26368e-06
-8.1654e-07
1.49303e-05
1.38312e-06
-1.12291e-06
1.48633e-05
1.4828e-06
-1.4158e-06
1.49957e-05
1.57743e-06
-1.7098e-06
1.52846e-05
1.66972e-06
-1.95857e-06
1.56945e-05
1.78681e-06
-2.19672e-06
1.61719e-05
1.92083e-06
-2.39824e-06
1.66803e-05
2.04898e-06
-2.55742e-06
1.71628e-05
2.14942e-06
-2.63187e-06
1.76074e-05
2.2259e-06
-2.67057e-06
1.79901e-05
2.28677e-06
-2.66947e-06
1.83034e-05
2.31777e-06
-2.63107e-06
1.8529e-05
2.32771e-06
-2.55324e-06
1.87103e-05
2.31599e-06
-2.49731e-06
1.88495e-05
2.30571e-06
-2.44493e-06
1.89934e-05
2.28247e-06
-2.42642e-06
1.91498e-05
2.27075e-06
-2.42712e-06
1.93608e-05
2.23907e-06
-2.45008e-06
1.96198e-05
2.20989e-06
-2.46889e-06
1.9951e-05
2.14847e-06
-2.4797e-06
2.03306e-05
2.07773e-06
-2.45729e-06
2.07639e-05
1.96182e-06
-2.39513e-06
2.12223e-05
1.80643e-06
-2.26477e-06
2.17243e-05
1.57805e-06
-2.08014e-06
2.22353e-05
1.30347e-06
-1.81448e-06
2.27498e-05
9.64546e-07
-1.47905e-06
2.32128e-05
6.03412e-07
-1.0664e-06
2.3638e-05
1.85203e-07
-6.10365e-07
2.40451e-05
-2.85705e-07
-1.21432e-07
2.44354e-05
-7.81896e-07
3.91625e-07
2.47842e-05
-1.26735e-06
9.18552e-07
2.51169e-05
-1.75136e-06
1.41872e-06
2.54168e-05
-2.23595e-06
1.93601e-06
2.57173e-05
-2.70058e-06
2.40009e-06
2.60141e-05
-3.16372e-06
2.86686e-06
2.6329e-05
-3.61171e-06
3.2969e-06
2.66546e-05
-4.03759e-06
3.71194e-06
2.70145e-05
-4.48329e-06
4.12338e-06
2.73877e-05
-4.87759e-06
4.50437e-06
2.78064e-05
-5.31144e-06
4.89279e-06
2.82325e-05
-5.69145e-06
5.26533e-06
2.86944e-05
-6.08192e-06
5.62001e-06
2.91623e-05
-6.45844e-06
5.99052e-06
2.96393e-05
-6.79166e-06
6.31473e-06
3.01127e-05
-7.14312e-06
6.6697e-06
3.05552e-05
-7.41099e-06
6.96848e-06
3.09672e-05
-7.69289e-06
7.28089e-06
3.1309e-05
-7.89121e-06
7.54935e-06
3.1594e-05
-8.0648e-06
7.77986e-06
3.17825e-05
-8.19198e-06
8.00343e-06
3.18772e-05
-8.23726e-06
8.1426e-06
3.18785e-05
-8.27399e-06
8.2727e-06
3.1782e-05
-8.23315e-06
8.32964e-06
3.15987e-05
-8.1594e-06
8.34273e-06
3.13566e-05
-8.07282e-06
8.31489e-06
3.10389e-05
-7.91774e-06
8.23548e-06
3.07064e-05
-7.79532e-06
8.12775e-06
3.03527e-05
-7.62711e-06
7.98083e-06
3.00221e-05
-7.47475e-06
7.80533e-06
2.97176e-05
-7.33086e-06
7.6354e-06
2.9449e-05
-7.15494e-06
7.42354e-06
2.92501e-05
-7.03177e-06
7.23068e-06
2.90981e-05
-6.86551e-06
7.01749e-06
2.90158e-05
-6.72442e-06
6.80667e-06
2.89743e-05
-6.56816e-06
6.60972e-06
2.89728e-05
-6.3959e-06
6.39741e-06
2.89975e-05
-6.22597e-06
6.20121e-06
2.90398e-05
-6.03354e-06
5.9913e-06
2.90725e-05
-5.83417e-06
5.80142e-06
2.90992e-05
-5.62497e-06
5.59832e-06
2.90962e-05
-5.40249e-06
5.40549e-06
2.9076e-05
-5.1936e-06
5.21372e-06
2.90156e-05
-4.96788e-06
5.02835e-06
2.89278e-05
-4.76221e-06
4.85003e-06
2.87947e-05
-4.56313e-06
4.69618e-06
2.8622e-05
-4.37625e-06
4.54895e-06
2.8419e-05
-4.23541e-06
4.43846e-06
2.81814e-05
-4.10346e-06
4.34106e-06
2.79196e-05
-4.01731e-06
4.27909e-06
2.7627e-05
-3.95173e-06
4.2443e-06
2.73109e-05
-3.9238e-06
4.23993e-06
2.69663e-05
-3.92352e-06
4.26816e-06
2.6599e-05
-3.95337e-06
4.32059e-06
2.62061e-05
-4.00926e-06
4.40223e-06
2.58015e-05
-4.09992e-06
4.50453e-06
2.53769e-05
-4.20823e-06
4.63278e-06
2.49557e-05
-4.3515e-06
4.77266e-06
2.45226e-05
-4.49997e-06
4.93307e-06
2.41012e-05
-4.68018e-06
5.10158e-06
2.37022e-05
-4.8882e-06
5.28722e-06
2.33471e-05
-5.11458e-06
5.46969e-06
2.3036e-05
-5.35312e-06
5.66425e-06
2.27904e-05
-5.61285e-06
5.85842e-06
2.2585e-05
-5.85343e-06
6.05881e-06
2.23851e-05
-6.04117e-06
6.24108e-06
2.21496e-05
-6.17056e-06
6.4061e-06
2.1869e-05
-6.25203e-06
6.53264e-06
2.1571e-05
-6.31979e-06
6.61775e-06
2.13089e-05
-6.40676e-06
6.66884e-06
2.11462e-05
-6.5363e-06
6.69902e-06
2.11059e-05
-6.68373e-06
6.72407e-06
2.12065e-05
-6.84786e-06
6.7472e-06
2.14176e-05
-6.98909e-06
6.77798e-06
2.17245e-05
-7.08596e-06
6.77906e-06
2.20742e-05
-7.11969e-06
6.77002e-06
2.24608e-05
-7.09937e-06
6.71274e-06
2.285e-05
-7.01163e-06
6.62241e-06
2.32495e-05
-6.86946e-06
6.47003e-06
2.36458e-05
-6.67541e-06
6.27914e-06
2.40602e-05
-6.42778e-06
6.01333e-06
2.44845e-05
-6.1403e-06
5.71604e-06
2.4948e-05
-5.79735e-06
5.33386e-06
2.54636e-05
-5.41602e-06
4.9004e-06
2.6008e-05
-4.93641e-06
4.39195e-06
2.66171e-05
-4.40646e-06
3.79743e-06
2.7278e-05
-3.78088e-06
3.11999e-06
2.8001e-05
-3.07366e-06
2.35065e-06
2.87226e-05
-2.22528e-06
1.50368e-06
2.94369e-05
-1.29516e-06
5.80823e-07
3.01337e-05
-2.30321e-07
-4.66501e-07
3.07586e-05
9.03837e-07
-1.52871e-06
3.13048e-05
2.05544e-06
-2.60161e-06
3.17905e-05
3.17989e-06
-3.66563e-06
3.21913e-05
4.2916e-06
-4.69237e-06
3.25461e-05
5.32817e-06
-5.683e-06
3.28485e-05
6.33826e-06
-6.64065e-06
3.31195e-05
7.2815e-06
-7.55246e-06
3.33414e-05
8.18439e-06
-8.40632e-06
3.35183e-05
8.99811e-06
-9.17501e-06
3.36352e-05
9.76571e-06
-9.88267e-06
3.36717e-05
1.04522e-05
-1.04886e-05
3.36118e-05
1.10571e-05
-1.09973e-05
3.34325e-05
1.15486e-05
-1.13693e-05
3.31461e-05
1.19216e-05
-1.16352e-05
3.27426e-05
1.21807e-05
-1.17771e-05
3.22646e-05
1.2303e-05
-1.1825e-05
3.17168e-05
1.23336e-05
-1.17858e-05
3.11641e-05
1.225e-05
-1.16974e-05
3.06399e-05
1.21236e-05
-1.15994e-05
3.02154e-05
1.1919e-05
-1.14945e-05
2.99211e-05
1.17285e-05
-1.14343e-05
2.97779e-05
1.15357e-05
-1.13924e-05
2.9799e-05
1.13638e-05
-1.13849e-05
2.9951e-05
1.12276e-05
-1.13797e-05
3.02343e-05
1.10936e-05
-1.13769e-05
3.05747e-05
1.10031e-05
-1.13434e-05
3.09731e-05
1.08654e-05
-1.12638e-05
3.13637e-05
1.07517e-05
-1.11423e-05
3.17553e-05
1.05797e-05
-1.09712e-05
3.21059e-05
1.0387e-05
-1.07376e-05
3.24118e-05
1.01498e-05
-1.04557e-05
3.26674e-05
9.86514e-06
-1.01208e-05
3.28603e-05
9.55384e-06
-9.74668e-06
3.30299e-05
9.18242e-06
-9.35209e-06
3.31352e-05
8.78773e-06
-8.89298e-06
3.32168e-05
8.36202e-06
-8.44361e-06
3.32581e-05
7.91445e-06
-7.95573e-06
3.32826e-05
7.44468e-06
-7.46924e-06
3.32849e-05
6.96371e-06
-6.96604e-06
3.32778e-05
6.46171e-06
-6.45454e-06
3.3255e-05
5.98199e-06
-5.95919e-06
3.32316e-05
5.46724e-06
-5.44389e-06
3.32021e-05
4.97923e-06
-4.94972e-06
3.31694e-05
4.47645e-06
-4.4437e-06
3.314e-05
3.98099e-06
-3.95162e-06
3.30955e-05
3.50502e-06
-3.4605e-06
3.30697e-05
3.00903e-06
-2.98324e-06
3.30181e-05
2.54719e-06
-2.49563e-06
3.29759e-05
2.08036e-06
-2.0381e-06
3.29092e-05
1.63407e-06
-1.56737e-06
3.28423e-05
1.19412e-06
-1.12727e-06
3.27495e-05
7.81882e-07
-6.89093e-07
3.26769e-05
3.53497e-07
-2.80863e-07
3.25303e-05
1.6178e-08
1.30377e-07
3.23905e-05
-4.18275e-07
5.58143e-07
3.21858e-05
-7.5202e-07
9.56641e-07
3.19551e-05
-1.08971e-06
1.32047e-06
3.16598e-05
-1.38113e-06
1.67638e-06
3.13453e-05
-1.69313e-06
2.00766e-06
3.09562e-05
-1.92492e-06
2.31402e-06
3.05562e-05
-2.20141e-06
2.60135e-06
3.00814e-05
-2.39522e-06
2.87002e-06
2.95914e-05
-2.61851e-06
3.10855e-06
2.90348e-05
-2.77445e-06
3.33102e-06
2.84533e-05
-2.94963e-06
3.53119e-06
2.78138e-05
-3.06135e-06
3.70079e-06
2.71904e-05
-3.22253e-06
3.84601e-06
2.64958e-05
-3.28162e-06
3.97619e-06
2.58487e-05
-3.41174e-06
4.05879e-06
2.51594e-05
-3.45916e-06
4.14845e-06
2.45169e-05
-3.54191e-06
4.18445e-06
2.38522e-05
-3.55745e-06
4.22217e-06
2.32405e-05
-3.61852e-06
4.23024e-06
2.25959e-05
-3.60716e-06
4.25177e-06
2.20416e-05
-3.65736e-06
4.2116e-06
2.14673e-05
-3.62719e-06
4.20152e-06
2.09692e-05
-3.63958e-06
4.13767e-06
2.04495e-05
-3.59232e-06
4.11201e-06
1.99908e-05
-3.54144e-06
4.0002e-06
1.95074e-05
-3.4347e-06
3.91804e-06
1.91147e-05
-3.38947e-06
3.78213e-06
1.87598e-05
-3.33078e-06
3.68571e-06
1.84951e-05
-3.25194e-06
3.51665e-06
1.82423e-05
-3.16716e-06
3.41994e-06
1.80382e-05
-3.08281e-06
3.2869e-06
1.78456e-05
-3.00868e-06
3.20134e-06
1.76769e-05
-2.89798e-06
3.06665e-06
1.74932e-05
-2.78508e-06
2.9688e-06
1.72585e-05
-2.60809e-06
2.84282e-06
1.70112e-05
-2.53463e-06
2.78189e-06
1.6798e-05
-2.51232e-06
2.72557e-06
1.66162e-05
-2.498e-06
2.67971e-06
1.63611e-05
-2.34601e-06
2.6012e-06
1.60595e-05
-2.26524e-06
2.56684e-06
1.57929e-05
-2.24516e-06
2.51171e-06
1.56355e-05
-2.21197e-06