/*--------------------------------*- C++ -*----------------------------------*\
| =========                 |                                                 |
| \\      /  F ield         | OpenFOAM: The Open Source CFD Toolbox           |
|  \\    /   O peration     | Version:  2.4.0                                 |
|   \\  /    A nd           | Web:      www.OpenFOAM.org                      |
|    \\/     M anipulation  |                                                 |
\*---------------------------------------------------------------------------*/
FoamFile
{
    version     2.0;
    format      ascii;
    class       volScalarField;
    location    "0.145";
    object      pMean;
}
// * * * * * * * * * * * * * * * * * * * * * * * * * * * * * * * * * * * * * //

dimensions      [0 2 -2 0 0 0 0];

internalField   nonuniform List<scalar> 
17600
(
95.3632
93.3897
90.5862
87.4338
84.3975
81.7368
79.5539
77.8487
76.5456
75.5392
74.7291
74.037
73.4101
72.8167
72.2387
71.6681
71.1006
70.5356
69.9715
69.4101
68.8503
68.2947
67.7412
67.1934
66.6474
66.1077
65.5681
65.0354
64.4993
63.9697
63.4329
62.9003
62.3582
61.8128
61.2608
60.6876
60.1168
59.472
58.8443
57.9296
93.6309
92.1876
89.8777
87.0754
84.2483
81.7151
79.6083
77.9396
76.647
75.6335
74.808
74.0977
73.4546
72.8478
72.2605
71.6823
71.1097
70.5402
69.974
69.4099
68.8501
68.2923
67.7404
67.19
66.647
66.1038
65.569
65.0309
64.5017
63.9644
63.4368
62.8942
62.3626
61.8076
61.262
60.6855
60.1117
59.4981
58.8621
58.3453
92.2885
91.1371
89.2546
86.8683
84.3726
82.0504
80.0366
78.3624
77.0043
75.9071
75.003
74.2319
73.5447
72.9102
72.3041
71.7159
71.135
70.5613
69.9903
69.425
68.8614
68.3045
67.7491
67.2011
66.6544
66.1151
65.5758
65.043
64.5078
63.977
63.4405
62.9059
62.3618
61.8169
61.2536
60.6815
60.0871
59.5565
59.1658
59.4056
91.2216
90.2699
88.724
86.7154
84.5145
82.3622
80.4165
78.7336
77.3202
76.1527
75.1864
74.3643
73.644
72.9854
72.3657
71.7666
71.18
70.5995
70.0246
69.4532
68.8876
68.3255
67.7698
67.2178
66.6723
66.1302
65.5932
65.0581
64.5252
63.9918
63.4561
62.9172
62.3712
61.822
61.263
60.7016
60.1027
59.4803
58.9561
59.661
90.4127
89.5768
88.2789
86.5559
84.5984
82.5847
80.7101
79.0283
77.585
76.3617
75.348
74.4797
73.7353
73.0526
72.4256
71.8144
71.2272
70.6375
70.0638
69.4831
68.919
68.3478
67.7956
67.2354
66.6958
66.1461
65.6176
65.0746
64.5517
64.0079
63.4826
62.9282
62.3906
61.8168
61.272
60.7253
60.3734
60.2267
60.4619
60.1216
89.7616
89.0455
87.9138
86.4011
84.6212
82.7392
80.9202
79.261
77.7998
76.5425
75.4795
74.5806
73.8035
73.1109
72.4683
71.8572
71.2613
70.6748
70.0925
69.5151
68.9411
68.3737
67.8114
67.2575
66.7089
66.1684
65.631
65.0992
64.5665
64.0349
63.4968
62.9551
62.4023
61.8462
61.2853
60.7348
60.1983
59.7307
59.4829
61.0223
89.2626
88.6454
87.6273
86.2603
84.611
82.8412
81.0757
79.4414
77.9722
76.6915
75.5911
74.6627
73.8584
73.1547
72.5022
71.8897
71.2904
70.704
70.1186
69.5405
68.9623
68.3942
67.8286
67.2754
66.725
66.187
65.6494
65.1214
64.5891
64.0616
63.5238
62.9863
62.4325
61.8764
61.304
60.7505
60.2243
59.9466
60.2158
62.5129
88.9242
88.3537
87.4154
86.1407
84.5925
82.901
81.1889
79.5722
78.1028
76.8054
75.6823
74.7237
73.9021
73.1829
72.5285
71.9116
71.3141
70.7249
70.1404
69.5584
68.9809
68.4083
67.8441
67.2874
66.7403
66.2002
65.6677
65.1386
64.6129
64.0849
63.5547
63.0165
62.4709
61.9153
61.3583
60.8102
60.3311
60.0481
60.3747
62.5506
88.6826
88.1677
87.274
86.0586
84.5684
82.9386
81.2597
79.6626
78.1893
76.8833
75.7429
74.7691
73.9288
73.2051
72.5436
71.9292
71.3291
70.7418
70.1545
69.5733
68.9924
68.4208
67.8541
67.3
66.7519
66.2156
65.6834
65.1596
64.6356
64.115
63.5889
63.0612
62.5235
61.9818
61.4349
60.9066
60.4284
60.1657
60.5105
62.779
88.5873
88.0761
87.2031
86.0107
84.5544
82.9523
81.2964
79.7051
78.2329
76.9205
75.7734
74.7889
73.9452
73.2142
72.5545
71.9371
71.3392
70.7493
70.1627
69.5787
68.999
68.4259
67.8618
67.3072
66.7626
66.2268
65.699
65.1769
64.6597
64.1439
63.629
63.1119
62.592
62.0675
61.5423
61.0233
60.5587
60.2784
60.599
62.7588
88.5815
88.0812
87.1983
86.0091
84.5499
82.9606
81.2959
79.7111
78.2295
76.9179
75.7694
74.7933
73.9455
73.2221
72.5557
71.9445
71.3422
70.7562
70.1632
69.5826
68.9974
68.4306
67.8633
67.3168
66.7693
66.242
65.7111
65.1987
64.6802
64.1782
63.6674
63.1729
62.6681
62.1796
61.6785
61.1967
60.7238
60.4215
60.5296
62.6173
88.7215
88.1579
87.2454
86.0332
84.5633
82.9427
81.2668
79.6653
78.1837
76.8754
75.7378
74.7712
73.9329
73.2132
72.5492
71.9369
71.3347
70.7471
70.1552
69.5745
68.9919
68.4262
67.8623
67.3172
66.7731
66.2475
65.7201
65.2108
64.6979
64.2033
63.7039
63.2255
62.7438
62.2884
61.8364
61.4192
61.0077
60.6473
60.3398
61.5018
89.0351
88.3308
87.3627
86.0931
84.5947
82.8978
81.2098
79.5692
78.0989
76.7927
75.6838
74.7241
73.9192
73.1913
72.5468
71.9206
71.3298
70.7297
70.1514
69.56
68.9935
68.417
67.8694
67.3129
66.7859
66.2482
65.7402
65.2191
64.7286
64.2248
63.7541
63.2733
62.8332
62.3926
62.0094
61.6477
61.391
61.2101
61.1485
60.1745
89.3403
88.6267
87.582
86.2199
84.615
82.8412
81.0963
79.4407
77.9707
76.6854
75.5975
74.6643
73.8767
73.1641
72.5219
71.9021
71.3083
70.7145
70.1348
69.5516
68.9841
68.4155
67.8658
67.3167
66.7873
66.2577
65.748
65.2365
64.7461
64.2549
63.7886
63.3276
62.9033
62.5002
62.1603
61.8709
61.6657
61.4463
61.0562
59.2239
89.792
89.0437
87.8934
86.3823
84.6179
82.7437
80.9308
79.2654
77.8011
76.5429
75.4832
74.5855
73.815
73.1231
72.4843
71.8727
71.278
70.6913
70.1113
69.5364
68.9687
68.4081
67.8571
67.3154
66.7841
66.2626
65.751
65.2494
64.7585
64.2799
63.8164
63.3735
62.9585
62.5839
62.2623
62.0018
61.785
61.5397
60.9848
59.1157
90.4148
89.5858
88.2759
86.5499
84.5879
82.5867
80.7113
79.034
77.5879
76.3665
75.3489
74.4873
73.7421
73.0666
72.4385
71.8323
71.2432
70.6598
70.0854
69.5136
68.9518
68.3937
67.8484
67.3081
66.7824
66.2616
65.7567
65.2564
64.7744
64.2987
63.8472
63.4082
63.0062
62.6308
62.3139
62.037
61.8185
61.5509
61.0558
59.2216
91.2249
90.2806
88.7281
86.7131
84.5026
82.358
80.4148
78.7372
77.3239
76.1586
75.1895
74.3723
73.6523
72.9993
72.3801
71.7854
71.1998
70.6245
70.0525
69.4888
68.9292
68.3787
67.8346
67.3009
66.7756
66.2611
65.7569
65.2639
64.7837
64.3167
63.8682
63.4378
63.0356
62.6587
62.3198
62.0096
61.7471
61.4928
61.1716
60.012
92.2886
91.1474
89.2591
86.8687
84.3623
82.0458
80.0337
78.3661
77.0074
75.9144
75.0075
74.2411
73.5533
72.9246
72.3187
71.7364
71.1565
70.5899
70.0213
69.4656
68.908
68.365
67.8212
67.2943
66.7679
66.2605
65.7546
65.27
64.7884
64.3314
63.8803
63.4594
63.0486
62.6746
62.3099
61.9755
61.6004
61.1844
60.6979
60.5914
93.6316
92.1959
89.8818
87.0771
84.2421
81.7117
79.6055
77.9427
76.6492
75.6406
74.8132
74.1076
73.4636
72.8624
72.2752
71.7037
71.1317
70.5705
70.0066
69.4539
68.8992
68.3579
67.8163
67.2903
66.7658
66.2591
65.7554
65.2718
64.793
64.3372
63.8887
63.467
63.0559
62.6741
62.3023
61.9559
61.6148
61.3001
60.9866
60.7355
95.3628
93.3971
90.5898
87.4357
84.393
81.7338
79.5511
77.8515
76.5473
75.5462
74.7347
74.0469
73.4195
72.8312
72.2539
71.6894
71.1234
70.566
70.0053
69.4542
68.9009
68.3602
67.8192
67.2935
66.7693
66.2628
65.7594
65.276
64.7976
64.3416
63.8939
63.4708
63.0603
62.6749
62.3062
61.9574
61.6295
61.3089
61.0316
60.7819
57.5604
57.4795
57.5708
57.6801
57.7094
57.6191
57.4285
57.1652
56.8354
56.4388
55.9902
55.5141
55.0269
54.538
54.0527
53.5744
53.1061
52.6522
52.2193
51.8155
51.4487
51.1249
50.8482
50.6205
50.4424
50.3129
50.2293
50.1871
50.1814
50.2076
50.2605
50.3338
50.4211
50.5166
50.6147
50.7118
50.8043
50.89
50.967
51.0342
51.0901
51.133
51.1609
51.1718
51.1644
51.1376
51.0912
51.0253
50.941
50.84
50.7251
50.5996
50.4675
50.3331
50.2012
50.0761
49.9622
49.8634
49.7835
49.7253
49.6913
49.6829
49.7012
49.7465
49.819
49.9177
50.0417
50.1887
50.3565
50.5421
50.7424
50.9543
51.1745
51.3999
51.6282
51.8566
52.0831
52.306
52.5241
52.7363
52.9421
53.1411
53.3334
53.5189
53.6982
53.8718
54.0405
54.205
54.3664
54.5254
54.683
54.84
54.9972
55.1555
55.3159
55.4792
55.6461
55.817
55.9922
56.1722
56.357
56.5467
56.7408
56.9392
57.1412
57.3461
57.5532
57.7616
57.9706
58.1793
58.3869
58.593
58.7967
58.9977
59.1954
59.3891
59.5784
59.7629
59.9425
60.1167
60.2853
60.4482
60.6051
60.7558
60.9
61.0376
61.1688
61.2935
61.4116
61.523
61.6274
61.7246
61.8143
61.8962
61.9699
62.0356
62.0928
62.1416
62.182
62.2138
62.2371
62.2518
62.258
62.2559
62.2459
62.2282
62.2028
62.1702
62.1307
62.0848
62.0331
61.9766
61.916
61.8518
61.7847
61.7157
61.6456
61.5755
61.5063
61.4392
61.3749
61.3138
61.2564
61.2036
61.1562
61.1151
61.0812
61.0552
61.0376
61.0285
61.0286
61.0382
61.0578
61.0879
61.1288
61.1807
61.2439
61.3187
61.4055
61.5045
61.616
61.74
61.8761
62.0239
62.1831
62.3539
62.536
62.7294
62.9334
63.1475
63.3714
63.605
63.8472
64.0971
64.3542
64.6181
64.8881
65.1628
65.4414
65.723
66.0065
66.2912
66.5757
66.8593
67.1405
67.4188
67.6922
67.9608
68.223
68.4792
68.7273
68.9682
69.2005
69.4252
69.6407
69.8484
70.0475
70.2391
70.4217
70.597
70.764
70.9242
71.0765
71.2226
71.3612
71.4944
71.6208
71.7425
71.8581
71.9696
72.0753
72.1774
72.2744
72.3685
72.4579
72.5445
72.6267
72.7067
72.7828
72.8574
72.929
72.9997
73.0676
73.1343
73.1978
73.2601
73.3188
73.3765
73.4307
73.4839
73.5335
73.5823
73.6275
73.6718
73.7127
73.7536
73.791
73.8284
73.8619
73.8957
73.9257
73.9566
73.9836
74.0119
74.0362
74.0623
74.0842
74.1089
74.1295
74.1535
74.1736
74.1978
74.2179
74.2423
74.2623
74.2866
74.3059
74.3294
74.3474
74.3693
74.3853
74.405
74.4184
74.4354
74.4455
74.459
74.4655
74.4752
74.4772
74.4823
74.4798
74.4807
74.4745
74.4719
74.4622
74.456
74.4428
74.4333
74.417
74.4042
74.3844
74.3677
74.3441
74.3231
74.2952
74.2695
74.2375
74.2071
74.1707
74.1358
74.0957
74.0564
74.0121
73.9684
73.9208
73.874
73.8248
73.777
73.7289
73.6824
73.6374
73.5933
73.5516
73.5093
73.4699
73.4279
73.3892
73.3457
73.3054
73.2581
73.2147
73.1627
73.1151
73.0571
73.0046
72.9406
72.8836
72.8143
72.7535
72.6797
72.6157
72.5379
72.4707
72.3886
72.318
72.231
72.1568
72.0644
71.9864
71.8889
71.807
71.7046
71.6178
71.5108
71.4176
71.3058
71.205
71.0875
70.9784
70.855
70.7368
70.6073
70.4804
70.3447
70.2094
70.0662
69.9213
69.7704
69.6131
69.4539
69.2815
69.112
68.9222
68.7402
68.5316
68.333
68.1052
67.8875
67.6376
67.3919
67.1174
66.829
66.5287
66.184
65.8489
65.4298
65.0186
64.4909
63.9616
63.2606
62.4773
61.5261
60.2361
58.7847
56.6325
53.9781
49.8397
43.3395
34.2249
14.3695
58.4632
58.3136
57.9626
57.7214
57.6093
57.544
57.4518
57.2977
57.0664
56.7573
56.381
55.9578
55.5098
55.0554
54.6062
54.1665
53.7378
53.322
52.9245
52.5531
52.2152
51.9162
51.6598
51.4484
51.2821
51.1597
51.0782
51.034
51.0236
51.0424
51.0856
51.1471
51.2211
51.3026
51.3864
51.4682
51.5442
51.611
51.6666
51.7095
51.7388
51.7543
51.756
51.7436
51.7167
51.6747
51.6175
51.5452
51.459
51.3606
51.2525
51.1381
51.021
50.905
50.7936
50.6904
50.5983
50.5203
50.4589
50.4159
50.3939
50.3943
50.4179
50.4648
50.535
50.6276
50.7419
50.8764
51.0293
51.1986
51.3818
51.576
51.7785
51.9865
52.1977
52.41
52.6215
52.8309
53.037
53.2388
53.4355
53.6267
53.8123
53.9919
54.1657
54.3339
54.497
54.6559
54.8112
54.964
55.1148
55.2643
55.4132
55.5619
55.7112
55.8615
56.0132
56.1666
56.3219
56.4794
56.639
56.8007
56.9641
57.1291
57.2951
57.4616
57.6282
57.7945
57.96
58.1242
58.2868
58.4476
58.606
58.7621
58.9154
59.0657
59.2129
59.3564
59.4963
59.6322
59.7638
59.8911
60.0136
60.1312
60.2437
60.3507
60.4523
60.5478
60.6374
60.7205
60.7972
60.8671
60.9303
60.9865
61.0358
61.0778
61.1123
61.1389
61.1574
61.1677
61.1694
61.1624
61.1465
61.122
61.0894
61.0491
61.002
60.9482
60.8882
60.8228
60.7524
60.678
60.6007
60.5213
60.4404
60.3589
60.2776
60.1973
60.1185
60.0421
59.9684
59.8985
59.833
59.7729
59.7188
59.6718
59.6323
59.6014
59.579
59.5662
59.5632
59.5707
59.5889
59.6183
59.6587
59.7106
59.774
59.8496
59.9377
60.0389
60.1533
60.2815
60.4236
60.5802
60.7511
60.9368
61.1371
61.3522
61.5814
61.8249
62.0818
62.3517
62.633
62.9249
63.2263
63.5365
63.8539
64.1775
64.5053
64.8364
65.169
65.5026
65.8352
66.1663
66.4942
66.8184
67.1373
67.4506
67.7569
68.0554
68.3453
68.6261
68.8974
69.1582
69.409
69.6491
69.8792
70.0983
70.3072
70.5055
70.6941
70.8725
71.0418
71.2016
71.3532
71.4959
71.6312
71.7584
71.8793
71.9928
72.1008
72.2021
72.2988
72.3896
72.4764
72.5578
72.6362
72.7096
72.7807
72.8477
72.9128
72.974
73.0334
73.0893
73.1437
73.1945
73.2439
73.2899
73.3348
73.3765
73.4172
73.4551
73.4919
73.5258
73.5586
73.5887
73.6176
73.644
73.6695
73.6923
73.7145
73.7344
73.7542
73.7719
73.7899
73.8056
73.8221
73.8364
73.852
73.8655
73.8807
73.8939
73.9096
73.9231
73.9398
73.9538
73.971
73.9849
74.0023
74.0154
74.0322
74.0441
74.0597
74.0699
74.0839
74.0917
74.1034
74.1079
74.116
74.1159
74.12
74.1157
74.1165
74.1086
74.1064
74.0949
74.0897
74.0746
74.0667
74.0485
74.0383
74.0169
74.0042
73.9794
73.9637
73.9348
73.9154
73.882
73.8588
73.8213
73.7946
73.7534
73.7235
73.6791
73.6462
73.5987
73.5634
73.5141
73.4784
73.4296
73.3957
73.3494
73.318
73.2747
73.246
73.2053
73.1778
73.1373
73.1081
73.0652
73.032
72.9852
72.9467
72.8947
72.8487
72.7901
72.7357
72.6706
72.6081
72.5377
72.4676
72.3928
72.3154
72.2367
72.1523
72.0701
71.9783
71.892
71.7928
71.7026
71.596
71.5015
71.3881
71.2878
71.168
71.0606
70.9342
70.818
70.6847
70.5592
70.4176
70.2827
70.1316
69.9867
69.8249
69.6687
69.495
69.3249
69.1381
68.9488
68.7492
68.538
68.3258
68.0904
67.865
67.6014
67.3573
67.0583
66.7842
66.4426
66.1305
65.7316
65.3602
64.897
64.429
63.9004
63.2652
62.6348
61.7707
60.9069
59.7072
58.4361
56.6693
54.4759
51.7766
47.6002
42.8705
34.764
24.8958
11.6575
60.242
59.7824
58.3882
57.2903
56.7236
56.6168
56.7466
56.892
56.9296
56.8244
56.5897
56.2633
55.8871
55.4927
55.0983
54.7105
54.3309
53.9608
53.606
53.2742
52.9727
52.7062
52.4774
52.2876
52.1367
52.0234
51.9452
51.8986
51.8799
51.885
51.9093
51.9485
51.9976
52.0521
52.1083
52.1625
52.212
52.2544
52.2878
52.3108
52.3224
52.3219
52.3089
52.2835
52.246
52.1971
52.1377
52.0688
51.9918
51.9087
51.8209
51.7307
51.6402
51.5523
51.4697
51.3953
51.3314
51.2805
51.2442
51.2239
51.2203
51.2347
51.2678
51.3198
51.3905
51.4799
51.587
51.7111
51.8507
52.0044
52.17
52.3455
52.5286
52.7169
52.9083
53.1009
53.293
53.4833
53.6708
53.8545
54.0337
54.2079
54.3766
54.5397
54.6974
54.8498
54.9971
55.14
55.2791
55.4151
55.5487
55.6802
55.81
55.9387
56.0665
56.1938
56.3207
56.4473
56.5739
56.7002
56.8262
56.9518
57.0768
57.2013
57.3253
57.4486
57.5712
57.6931
57.8144
57.9351
58.0551
58.1743
58.2922
58.409
58.5241
58.6371
58.7478
58.8557
58.9609
59.0629
59.1613
59.2562
59.3467
59.4328
59.5138
59.5898
59.6607
59.7264
59.787
59.8426
59.8931
59.9385
59.9787
60.0135
60.0429
60.0661
60.0829
60.0919
60.093
60.0852
60.0686
60.0431
60.0085
59.9654
59.9141
59.8553
59.7898
59.7182
59.6411
59.5591
59.4736
59.3852
59.2946
59.2032
59.1118
59.0201
58.9293
58.8398
58.7521
58.6666
58.5848
58.5076
58.4362
58.3713
58.3136
58.2636
58.222
58.1895
58.1665
58.1537
58.1513
58.1596
58.1785
58.2082
58.2486
58.3
58.3627
58.4378
58.5256
58.627
58.7428
58.8738
59.0209
59.1848
59.366
59.5649
59.7816
60.016
60.268
60.5372
60.8236
61.126
61.4439
61.7758
62.1201
62.4751
62.839
63.21
63.5862
63.9657
64.3474
64.7293
65.1102
65.4882
65.8629
66.2322
66.596
66.9522
67.3012
67.6406
67.9709
68.29
68.5986
68.895
69.1802
69.4529
69.7134
69.9608
70.1961
70.4188
70.6295
70.8276
71.0147
71.1901
71.3551
71.5095
71.6545
71.7897
71.9165
72.0347
72.1454
72.2487
72.3456
72.4361
72.5208
72.6002
72.6747
72.7447
72.8109
72.8733
72.9321
72.9877
73.04
73.0893
73.1354
73.1786
73.2192
73.2575
73.2938
73.328
73.36
73.3899
73.4177
73.4434
73.4669
73.4878
73.5066
73.5229
73.5374
73.5496
73.5606
73.5693
73.5774
73.5836
73.59
73.5947
73.6002
73.6042
73.6091
73.6128
73.6175
73.6212
73.6261
73.6301
73.6354
73.6403
73.6467
73.6529
73.6603
73.6676
73.6756
73.6835
73.6915
73.6992
73.7063
73.713
73.7186
73.7235
73.7265
73.7288
73.7288
73.7284
73.7254
73.7222
73.7161
73.7098
73.7005
73.6915
73.6796
73.6683
73.6539
73.6406
73.6239
73.6086
73.5893
73.5719
73.5494
73.5291
73.5026
73.4793
73.449
73.4231
73.3897
73.3621
73.3262
73.2975
73.2596
73.2302
73.1909
73.1621
73.1229
73.0967
73.0601
73.0379
73.004
72.985
72.9524
72.9344
72.9008
72.8817
72.8449
72.822
72.7795
72.7499
72.6988
72.6606
72.6001
72.552
72.4812
72.4231
72.3427
72.2752
72.1862
72.1101
72.0138
71.9298
71.8272
71.7351
71.6275
71.5266
71.4145
71.3034
71.1869
71.0638
70.9433
70.808
70.6833
70.5358
70.4058
70.246
70.1097
69.9368
69.7926
69.6063
69.4506
69.2499
69.0791
68.8628
68.6751
68.4402
68.2348
67.9767
67.749
67.4649
67.2055
66.8961
66.5907
66.2579
65.8845
65.5295
65.0754
64.6782
64.1345
63.6516
62.9933
62.3935
61.5546
60.7566
59.7262
58.4917
57.2299
55.3181
53.5408
50.5038
47.6635
42.9876
37.8129
30.9643
22.9981
14.7426
62.5056
62.3046
60.2249
58.4149
57.2633
56.7223
56.5771
56.6025
56.6485
56.6409
56.5545
56.3914
56.1665
55.8981
55.6014
55.2881
54.9684
54.6509
54.3437
54.0542
53.7886
53.5526
53.35
53.1826
53.0498
52.9489
52.8763
52.8282
52.8016
52.7935
52.8009
52.8201
52.8472
52.8788
52.9118
52.9438
52.9723
52.9954
53.0114
53.019
53.0177
53.0073
52.9881
52.9603
52.9247
52.882
52.833
52.7787
52.7203
52.6591
52.5961
52.5326
52.4702
52.4107
52.356
52.3081
52.2688
52.2394
52.2212
52.2155
52.2236
52.2462
52.2837
52.3365
52.4042
52.4867
52.5833
52.6931
52.8148
52.9471
53.0885
53.2374
53.3924
53.5519
53.7142
53.8779
54.0415
54.2037
54.3634
54.5195
54.6715
54.8189
54.9616
55.0996
55.2329
55.3616
55.4861
55.6062
55.722
55.8336
55.9415
56.0461
56.1477
56.2467
56.3435
56.4383
56.5311
56.6223
56.7119
56.8
56.8867
56.9721
57.0562
57.14
57.2235
57.3072
57.3915
57.4761
57.5612
57.6464
57.7316
57.8165
57.9008
57.9845
58.0667
58.1475
58.2262
58.3023
58.3757
58.4454
58.5117
58.5742
58.6324
58.6868
58.737
58.7836
58.8265
58.8658
58.9022
58.9355
58.9658
58.9931
59.0161
59.035
59.048
59.0552
59.0556
59.0485
59.0336
59.0099
58.9775
58.9365
58.8867
58.8283
58.7613
58.6867
58.6049
58.5168
58.4235
58.3254
58.2244
58.1224
58.0185
57.9142
57.8117
57.7108
57.6117
57.516
57.4251
57.3387
57.2579
57.1828
57.1145
57.0529
56.9991
56.953
56.9159
56.8873
56.8681
56.8582
56.8576
56.8667
56.8853
56.9137
56.9522
57.0014
57.0616
57.1337
57.2185
57.3176
57.4324
57.5643
57.7145
57.8844
58.0746
58.2859
58.5186
58.7726
59.0476
59.343
59.6583
59.9926
60.3449
60.7135
61.0965
61.492
61.8982
62.3129
62.7339
63.1594
63.5877
64.0163
64.4438
64.8682
65.2884
65.7029
66.1104
66.5097
66.8996
67.2795
67.6478
68.0046
68.3479
68.679
68.9958
69.2996
69.5885
69.864
70.1244
70.3716
70.6036
70.8227
71.0275
71.2204
71.3995
71.5675
71.723
71.8688
72.003
72.1286
72.244
72.3523
72.4514
72.5446
72.6296
72.7096
72.7821
72.8508
72.913
72.9724
73.026
73.0775
73.1237
73.1682
73.2075
73.2451
73.2779
73.3098
73.3374
73.3643
73.3871
73.4091
73.4269
73.4438
73.4564
73.468
73.4748
73.4811
73.4831
73.4851
73.4827
73.4808
73.4749
73.4705
73.4623
73.4561
73.4462
73.4393
73.4287
73.4217
73.4106
73.4039
73.393
73.3874
73.3775
73.3734
73.3647
73.3626
73.3554
73.3553
73.3496
73.3512
73.3467
73.3495
73.3454
73.3484
73.3442
73.3472
73.3422
73.3441
73.3376
73.338
73.3298
73.3283
73.3181
73.3143
73.3017
73.2956
73.2809
73.2729
73.2565
73.2467
73.2288
73.217
73.197
73.183
73.1609
73.1442
73.1198
73.1004
73.074
73.0518
73.0233
72.9989
72.9696
72.9443
72.9161
72.8919
72.8664
72.8438
72.8215
72.8011
72.7829
72.7651
72.7513
72.735
72.7241
72.7075
72.6977
72.6785
72.6675
72.6423
72.6266
72.5916
72.5688
72.5219
72.4895
72.4284
72.3849
72.3095
72.2548
72.1652
72.0993
71.997
71.9216
71.8088
71.7254
71.6032
71.5124
71.3806
71.2823
71.1399
71.0338
70.8808
70.7667
70.6033
70.4797
70.3067
70.1713
69.9894
69.839
69.6483
69.4792
69.2805
69.0892
68.883
68.6647
68.4517
68.2022
67.9817
67.6975
67.4637
67.1414
66.883
66.5213
66.2253
65.8165
65.481
65.006
64.6177
64.0745
63.5904
62.9971
62.3329
61.705
60.7815
60.0555
58.8128
57.9056
56.1781
54.9544
52.64
50.6419
47.6116
44.3599
40.3589
35.5604
30.4636
24.558
18.635
58.0737
57.9563
58.5927
58.7565
58.45
57.9178
57.4002
57.0127
56.7747
56.6643
56.629
56.6057
56.5457
56.4257
56.242
56.0034
55.7262
55.43
55.1334
54.8519
54.5971
54.3755
54.1901
54.0403
53.9241
53.8369
53.7743
53.7319
53.7066
53.6958
53.6965
53.706
53.7213
53.7395
53.7582
53.775
53.7883
53.7969
53.8003
53.7983
53.791
53.7783
53.7604
53.7375
53.71
53.6784
53.6436
53.606
53.5663
53.5252
53.4833
53.4414
53.4006
53.3622
53.3276
53.2979
53.2748
53.2596
53.2535
53.2574
53.2719
53.2976
53.3348
53.3837
53.4441
53.5156
53.5977
53.6896
53.7903
53.8989
54.0142
54.1353
54.2608
54.3896
54.5204
54.6521
54.7834
54.9136
55.0417
55.1669
55.2888
55.4066
55.5201
55.6287
55.7326
55.8313
55.9249
56.0135
56.0974
56.1767
56.2517
56.3225
56.3892
56.4522
56.5117
56.5682
56.622
56.6738
56.7242
56.774
56.8237
56.8735
56.924
56.9753
57.0274
57.0802
57.1335
57.1872
57.2414
57.2958
57.3505
57.4051
57.4592
57.5125
57.5644
57.6148
57.6631
57.709
57.7525
57.793
57.831
57.8655
57.897
57.9256
57.9509
57.974
57.9946
58.013
58.0299
58.0441
58.0564
58.0657
58.0713
58.0731
58.0699
58.0619
58.0481
58.0283
58.0009
57.9646
57.9182
57.8615
57.7957
57.7213
57.6385
57.5496
57.454
57.3519
57.2468
57.1389
57.0284
56.9199
56.8134
56.7071
56.6027
56.5032
56.4084
56.319
56.2345
56.1553
56.0817
56.0141
55.953
55.8985
55.8509
55.8103
55.7771
55.7511
55.7328
55.7225
55.7206
55.7277
55.7439
55.7696
55.8053
55.8512
55.9082
55.9769
56.059
56.1556
56.269
56.4007
56.5528
56.727
56.9242
57.1458
57.3916
57.6623
57.957
58.2754
58.6162
58.9783
59.3603
59.7606
60.1778
60.6098
61.0546
61.51
61.9734
62.4427
62.9157
63.3896
63.8628
64.3329
64.7985
65.2578
65.7088
66.151
66.5821
67.0019
67.4084
67.8017
68.1802
68.5443
68.8926
69.2255
69.5426
69.8439
70.1295
70.3991
70.6533
70.8918
71.1156
71.3245
71.5198
71.7011
71.8701
72.0264
72.1713
72.3046
72.4282
72.5415
72.6465
72.7421
72.8308
72.9112
72.9856
73.0528
73.1151
73.1709
73.2227
73.2685
73.3111
73.3483
73.3828
73.412
73.4391
73.4616
73.4826
73.4992
73.5144
73.5249
73.534
73.5386
73.5419
73.5407
73.5381
73.5315
73.524
73.5126
73.5003
73.4847
73.4685
73.4494
73.4299
73.4078
73.3857
73.3619
73.3388
73.3147
73.2919
73.2684
73.2464
73.2237
73.2029
73.1811
73.1617
73.1415
73.1243
73.1061
73.0916
73.0755
73.0638
73.0497
73.0404
73.0279
73.0208
73.0096
73.0041
72.9934
72.9888
72.9779
72.9736
72.9617
72.9569
72.9434
72.9378
72.9225
72.9161
72.8989
72.8917
72.8724
72.864
72.8421
72.8321
72.8072
72.7958
72.7683
72.7557
72.7254
72.7114
72.6782
72.6632
72.6278
72.6129
72.5776
72.5662
72.5343
72.5293
72.5033
72.506
72.4858
72.4943
72.4782
72.4911
72.4777
72.4926
72.4793
72.4939
72.478
72.489
72.4671
72.4709
72.4397
72.4331
72.3909
72.371
72.3156
72.2802
72.2108
72.1579
72.0747
72.0042
71.9084
71.8214
71.7156
71.6136
71.5005
71.3838
71.2656
71.1338
71.0113
70.8636
70.7366
70.5724
70.44
70.2593
70.1199
69.9229
69.7739
69.5607
69.3991
69.1693
68.9929
68.7433
68.5518
68.2774
68.0702
67.7674
67.5383
67.2086
66.9446
66.5938
66.2715
65.9082
65.5028
65.1358
64.6233
64.2485
63.6076
63.1977
62.4145
61.9484
60.9658
60.4248
59.2062
58.4819
57.0334
55.9539
54.2402
52.6356
50.588
48.2447
45.6589
42.4971
39.2807
35.3967
31.4586
26.9987
22.2834
65.0505
64.7148
61.6025
58.8302
56.9321
55.906
55.597
55.7379
56.0741
56.4316
56.7194
56.9026
56.9737
56.9364
56.8033
56.5954
56.3382
56.0575
55.7757
55.5103
55.2726
55.0689
54.9014
54.7688
54.6685
54.5964
54.5482
54.5194
54.5055
54.5023
54.5058
54.5136
54.5232
54.5332
54.5423
54.5493
54.5537
54.5548
54.5528
54.5477
54.5397
54.5292
54.5162
54.5011
54.4839
54.4646
54.4435
54.4207
54.3967
54.3718
54.3464
54.3214
54.2973
54.2753
54.2563
54.241
54.2305
54.2257
54.2274
54.2362
54.2527
54.2774
54.3105
54.3523
54.4026
54.461
54.5273
54.601
54.6814
54.7676
54.8589
54.9543
55.053
55.1539
55.2561
55.3586
55.4603
55.5604
55.6581
55.7527
55.8434
55.9296
56.0111
56.0874
56.158
56.2227
56.2818
56.3355
56.3836
56.4265
56.4645
56.498
56.5275
56.5534
56.5765
56.5976
56.6172
56.6361
56.6549
56.6739
56.6932
56.713
56.7335
56.755
56.7776
56.8011
56.8254
56.8504
56.8759
56.9017
56.928
56.9542
56.9807
57.007
57.0328
57.0578
57.0814
57.1037
57.1238
57.1416
57.1573
57.1697
57.1795
57.1863
57.1898
57.1912
57.1897
57.1866
57.1821
57.1761
57.1698
57.1624
57.1544
57.1453
57.1334
57.1183
57.0973
57.0692
57.0326
56.9851
56.9261
56.8547
56.774
56.6869
56.5922
56.4927
56.3904
56.2827
56.1732
56.0652
55.9578
55.8518
55.7512
55.6571
55.568
55.4829
55.4015
55.3248
55.2525
55.186
55.1249
55.0689
55.0176
54.9716
54.9309
54.8961
54.8673
54.8448
54.8288
54.8196
54.8181
54.8244
54.8393
54.8629
54.8959
54.9385
54.9919
55.0569
55.1356
55.2297
55.3416
55.4731
55.6262
55.8023
56.0029
56.2286
56.481
56.7598
57.0656
57.3975
57.7552
58.1368
58.5414
58.9662
59.4109
59.8726
60.3503
60.8408
61.3421
61.8513
62.3659
62.8828
63.3999
63.9143
64.4241
64.9268
65.4211
65.9052
66.3778
66.8369
67.2822
67.7116
68.1258
68.5225
68.9029
69.2649
69.6101
69.9368
70.2469
70.5384
70.8136
71.0712
71.313
71.5379
71.7483
71.9431
72.1245
72.2914
72.4462
72.5878
72.7188
72.8382
72.9483
73.0478
73.1393
73.2216
73.2971
73.3643
73.4255
73.4794
73.5282
73.5706
73.6087
73.6406
73.6684
73.6908
73.7101
73.7248
73.7366
73.7441
73.7488
73.7494
73.7471
73.741
73.7322
73.7198
73.7052
73.6875
73.6681
73.6453
73.6211
73.5935
73.5647
73.5326
73.4998
73.4641
73.4283
73.3898
73.352
73.3119
73.2729
73.232
73.1932
73.153
73.1158
73.0772
73.0421
73.0056
72.9734
72.9398
72.9106
72.8802
72.8545
72.8279
72.8063
72.7839
72.766
72.7472
72.7322
72.7162
72.7037
72.6899
72.6789
72.6665
72.6562
72.6442
72.6337
72.6213
72.6098
72.5959
72.5826
72.5669
72.5514
72.5337
72.5162
72.4968
72.4774
72.4561
72.4345
72.4113
72.387
72.3618
72.336
72.3111
72.2864
72.2648
72.2443
72.2304
72.2186
72.2159
72.2144
72.2238
72.2311
72.2499
72.2617
72.285
72.2978
72.3216
72.3317
72.3528
72.3554
72.3697
72.3604
72.3652
72.3417
72.335
72.2954
72.2746
72.2162
72.1795
72.1018
72.0486
71.9509
71.8813
71.7648
71.6808
71.5475
71.4519
71.3042
71.1991
71.0372
70.9228
70.7469
70.6212
70.4321
70.292
70.0915
69.9349
69.7261
69.548
69.3332
69.1269
68.9088
68.6666
68.447
68.1612
67.9423
67.6064
67.3871
66.9955
66.7688
66.3183
66.0763
65.5597
65.302
64.6962
64.4155
63.706
63.3808
62.5676
62.158
61.2427
60.6877
59.6725
58.9148
57.7977
56.7666
55.5353
54.1562
52.7006
50.9316
49.1453
46.8643
44.6452
41.9448
39.2178
36.1041
32.7948
29.1817
25.3075
66.1195
65.4149
61.5764
58.1057
55.8261
54.7482
54.6694
55.1684
55.8532
56.4875
56.9752
57.2954
57.4491
57.4525
57.3361
57.138
56.8944
56.6352
56.3813
56.1463
55.9376
55.7586
55.6105
55.4926
55.4029
55.3378
55.2932
55.2649
55.2489
55.2418
55.2407
55.2434
55.248
55.2532
55.2579
55.2616
55.2637
55.2642
55.2628
55.2597
55.255
55.249
55.2416
55.2334
55.2241
55.2139
55.203
55.1914
55.1793
55.1666
55.1537
55.141
55.1289
55.118
55.1089
55.102
55.0982
55.0981
55.1026
55.1122
55.1274
55.1486
55.1758
55.2093
55.2488
55.2944
55.3458
55.4029
55.465
55.5316
55.6019
55.675
55.7503
55.8268
55.9035
55.9794
56.0537
56.1253
56.1938
56.2581
56.3178
56.3722
56.4209
56.4636
56.5002
56.5307
56.5553
56.574
56.5871
56.5946
56.5972
56.5956
56.5903
56.582
56.5717
56.5601
56.5478
56.5354
56.5233
56.5119
56.5012
56.4916
56.4831
56.4758
56.4697
56.465
56.4617
56.4601
56.4602
56.4623
56.4663
56.472
56.479
56.4869
56.4951
56.5029
56.5097
56.5152
56.5184
56.5193
56.5169
56.5104
56.5001
56.485
56.4662
56.4444
56.42
56.3957
56.3718
56.3498
56.3311
56.314
56.2998
56.2864
56.2709
56.2523
56.2253
56.1897
56.1452
56.0896
56.0252
55.9487
55.8603
55.7668
55.6677
55.5622
55.4552
55.3489
55.2453
55.1472
55.0566
54.9725
54.8942
54.821
54.7538
54.6915
54.6342
54.5807
54.5301
54.4824
54.4367
54.393
54.3522
54.3149
54.2821
54.2539
54.2301
54.2109
54.1962
54.1871
54.1847
54.1895
54.202
54.2233
54.2533
54.2929
54.3432
54.4061
54.4832
54.5767
54.6887
54.8209
54.9753
55.1531
55.3561
55.5849
55.8409
56.124
56.435
56.7733
57.139
57.5309
57.9483
58.3892
58.8528
59.3364
59.8388
60.3572
60.889
61.4316
61.9814
62.536
63.0921
63.6472
64.1981
64.7426
65.2784
65.8034
66.3156
66.8134
67.2954
67.7604
68.208
68.6371
69.0474
69.4385
69.8096
70.1615
70.4936
70.8069
71.101
71.3769
71.6343
71.8749
72.0981
72.3057
72.4974
72.6747
72.8372
72.9872
73.1238
73.2491
73.3628
73.4666
73.5599
73.6446
73.7198
73.7875
73.8464
73.899
73.9438
73.9831
74.0148
74.0416
74.0614
74.0772
74.0871
74.0939
74.0949
74.0933
74.0858
74.076
74.0606
74.0438
74.0219
73.9992
73.9718
73.9437
73.9112
73.8779
73.8404
73.802
73.7595
73.7162
73.6693
73.6214
73.5704
73.5185
73.4636
73.4084
73.3512
73.295
73.2376
73.1826
73.1266
73.0739
73.0202
72.9706
72.9197
72.8737
72.8264
72.7849
72.742
72.706
72.6683
72.6384
72.6061
72.5821
72.5546
72.5358
72.5123
72.4978
72.4774
72.4659
72.447
72.4372
72.4183
72.4087
72.3886
72.3778
72.3553
72.3425
72.3171
72.3019
72.2737
72.2566
72.226
72.2067
72.1733
72.1516
72.1161
72.0934
72.058
72.0377
72.0068
71.9934
71.9714
71.9691
71.959
71.97
71.9734
71.9976
72.0138
72.0487
72.075
72.1151
72.1459
72.1848
72.2141
72.2468
72.2696
72.2907
72.3022
72.3078
72.3051
72.2928
72.275
72.2421
72.2075
72.1519
72.1005
72.0202
71.9517
71.8463
71.7636
71.6338
71.5397
71.3873
71.2845
71.111
71.0009
70.8059
70.6887
70.4713
70.3472
70.1063
69.9756
69.7087
69.5725
69.2768
69.135
68.8068
68.659
68.294
68.1377
67.7308
67.5606
67.1084
66.9175
66.4188
66.1979
65.6552
65.3919
64.8079
64.4851
63.8573
63.4536
62.7823
62.2774
61.5655
60.9231
60.1674
59.3711
58.5434
57.589
56.644
55.5
54.408
53.0089
51.6892
50.0063
48.3612
46.373
44.3346
42.0294
39.5755
36.8998
34.0322
30.9649
27.7102
66.3146
65.7464
61.9787
58.4745
56.1268
54.962
54.825
55.3249
56.0603
56.7674
57.3276
57.7089
57.9105
57.9455
57.8467
57.6579
57.4216
57.1716
56.9304
56.7114
56.521
56.3612
56.2318
56.131
56.0553
56.0009
55.9632
55.9385
55.9232
55.9145
55.9104
55.9089
55.9091
55.91
55.9112
55.9125
55.9137
55.9152
55.9165
55.9177
55.9186
55.9186
55.9178
55.9159
55.9132
55.9099
55.9059
55.9015
55.8966
55.8911
55.8855
55.8797
55.8744
55.87
55.867
55.8659
55.8672
55.8715
55.8791
55.8905
55.9056
55.9248
55.9483
55.976
56.0079
56.0441
56.0843
56.1282
56.1755
56.2255
56.2776
56.331
56.385
56.4387
56.4913
56.542
56.5898
56.634
56.6737
56.7082
56.7371
56.7598
56.7759
56.7852
56.7876
56.7832
56.7719
56.7541
56.7304
56.7015
56.668
56.6307
56.5903