/*--------------------------------*- C++ -*----------------------------------*\
| =========                 |                                                 |
| \\      /  F ield         | OpenFOAM: The Open Source CFD Toolbox           |
|  \\    /   O peration     | Version:  2.4.0                                 |
|   \\  /    A nd           | Web:      www.OpenFOAM.org                      |
|    \\/     M anipulation  |                                                 |
\*---------------------------------------------------------------------------*/
FoamFile
{
    version     2.0;
    format      ascii;
    class       surfaceScalarField;
    location    "0.105";
    object      phi_0;
}
// * * * * * * * * * * * * * * * * * * * * * * * * * * * * * * * * * * * * * //

dimensions      [0 3 -1 0 0 0 0];

internalField   nonuniform List<scalar> 
34680
(
2.4072e-05
9.28043e-07
2.16924e-05
2.37954e-06
1.88212e-05
2.87117e-06
1.60438e-05
2.77742e-06
1.36224e-05
2.42144e-06
1.16555e-05
1.96684e-06
1.01547e-05
1.50089e-06
9.05415e-06
1.1005e-06
8.27695e-06
7.77199e-07
7.73609e-06
5.40856e-07
7.36608e-06
3.70012e-07
7.10075e-06
2.65333e-07
6.91422e-06
1.86531e-07
6.76941e-06
1.44813e-07
6.64829e-06
1.21113e-07
6.55107e-06
9.72241e-08
6.46262e-06
8.84482e-08
6.3834e-06
7.92229e-08
6.30983e-06
7.35679e-08
6.24808e-06
6.17511e-08
6.18174e-06
6.63367e-08
6.12253e-06
5.9207e-08
6.07439e-06
4.81459e-08
6.01745e-06
5.69425e-08
5.96753e-06
4.99185e-08
5.93146e-06
3.60715e-08
5.88047e-06
5.09866e-08
5.84296e-06
3.75139e-08
5.81367e-06
2.92887e-08
5.77542e-06
3.82514e-08
5.74703e-06
2.8389e-08
5.72429e-06
2.27356e-08
5.6979e-06
2.63931e-08
5.67223e-06
2.56669e-08
5.6463e-06
2.59279e-08
5.61834e-06
2.79654e-08
5.56239e-06
5.59525e-08
5.49212e-06
7.02686e-08
5.38086e-06
1.11252e-07
-9.7624e-08
5.47849e-06
2.52145e-05
7.13516e-07
2.55498e-05
2.04427e-06
2.55691e-05
2.85184e-06
2.5236e-05
3.11058e-06
2.46319e-05
3.0255e-06
2.38757e-05
2.72305e-06
2.30686e-05
2.30801e-06
2.22773e-05
1.89182e-06
2.15431e-05
1.51137e-06
2.08735e-05
1.21048e-06
2.02722e-05
9.71219e-07
1.97274e-05
8.10204e-07
1.9247e-05
6.66914e-07
1.88081e-05
5.83665e-07
1.84142e-05
5.15096e-07
1.80649e-05
4.46529e-07
1.77433e-05
4.09986e-07
1.74551e-05
3.67459e-07
1.71966e-05
3.32082e-07
1.69619e-05
2.96406e-07
1.67448e-05
2.83471e-07
1.65498e-05
2.54187e-07
1.63761e-05
2.21835e-07
1.62037e-05
2.29323e-07
1.60574e-05
1.96214e-07
1.59199e-05
1.73581e-07
1.57857e-05
1.85175e-07
1.56666e-05
1.56657e-07
1.55648e-05
1.31038e-07
1.54522e-05
1.50927e-07
1.53666e-05
1.13943e-07
1.52776e-05
1.11753e-07
1.52033e-05
1.00652e-07
1.51158e-05
1.13176e-07
1.50614e-05
8.03881e-08
1.49463e-05
1.43054e-07
1.49207e-05
8.14772e-08
1.48153e-05
1.75727e-07
1.49645e-05
-3.7975e-08
-9.67559e-09
1.48766e-05
2.51615e-05
5.51975e-07
2.56249e-05
1.58089e-06
2.61431e-05
2.33371e-06
2.65675e-05
2.68614e-06
2.68789e-05
2.71407e-06
2.70569e-05
2.54505e-06
2.71202e-05
2.24476e-06
2.70981e-05
1.91391e-06
2.70062e-05
1.60322e-06
2.68742e-05
1.3425e-06
2.67075e-05
1.1379e-06
2.6517e-05
1.00076e-06
2.63207e-05
8.63231e-07
2.6109e-05
7.9535e-07
2.58956e-05
7.285e-07
2.5687e-05
6.55156e-07
2.54772e-05
6.19726e-07
2.52693e-05
5.7533e-07
2.50688e-05
5.32645e-07
2.48833e-05
4.81866e-07
2.46781e-05
4.88696e-07
2.45127e-05
4.19622e-07
2.43288e-05
4.05679e-07
2.41615e-05
3.96664e-07
2.39916e-05
3.66091e-07
2.38568e-05
3.08422e-07
2.36733e-05
3.6862e-07
2.35639e-05
2.66026e-07
2.34016e-05
2.93366e-07
2.32963e-05
2.56246e-07
2.31428e-05
2.67412e-07
2.30683e-05
1.8626e-07
2.29155e-05
2.53439e-07
2.28487e-05
1.80024e-07
2.27322e-05
1.96821e-07
2.27043e-05
1.70984e-07
2.25471e-05
2.38734e-07
2.25699e-05
1.52909e-07
2.2535e-05
-3.0502e-09
-3.47731e-07
2.2873e-05
2.51236e-05
4.28377e-07
2.55025e-05
1.20203e-06
2.59689e-05
1.86723e-06
2.64341e-05
2.22101e-06
2.68771e-05
2.27106e-06
2.72539e-05
2.16829e-06
2.75621e-05
1.93649e-06
2.78079e-05
1.66818e-06
2.80048e-05
1.40631e-06
2.81496e-05
1.19766e-06
2.82801e-05
1.00743e-06
2.83467e-05
9.34155e-07
2.8426e-05
7.83885e-07
2.84471e-05
7.74287e-07
2.84889e-05
6.8667e-07
2.84891e-05
6.54985e-07
2.85049e-05
6.03892e-07
2.8494e-05
5.8629e-07
2.84879e-05
5.38682e-07
2.84739e-05
4.95927e-07
2.84544e-05
5.08129e-07
2.84278e-05
4.4628e-07
2.84129e-05
4.20573e-07
2.83681e-05
4.41444e-07
2.83464e-05
3.87809e-07
2.83096e-05
3.45215e-07
2.82651e-05
4.13087e-07
2.82334e-05
2.97727e-07
2.81927e-05
3.34072e-07
2.81532e-05
2.95772e-07
2.81115e-05
3.09127e-07
2.80819e-05
2.15848e-07
2.80391e-05
2.96236e-07
2.7996e-05
2.23165e-07
2.79212e-05
2.71533e-07
2.79362e-05
1.56019e-07
2.8011e-05
1.63964e-07
2.82814e-05
-1.17465e-07
2.87023e-05
-4.23955e-07
-8.62478e-07
2.9217e-05
2.51265e-05
3.0186e-07
2.53385e-05
9.89994e-07
2.58176e-05
1.38815e-06
2.62178e-05
1.8208e-06
2.66851e-05
1.8038e-06
2.70205e-05
1.83291e-06
2.74007e-05
1.55621e-06
2.7606e-05
1.46296e-06
2.78961e-05
1.11617e-06
2.80548e-05
1.03892e-06
2.82757e-05
7.8653e-07
2.83731e-05
8.36846e-07
2.85786e-05
5.78328e-07
2.86105e-05
7.4237e-07
2.88168e-05
4.8039e-07
2.88091e-05
6.62672e-07
2.89889e-05
4.2409e-07
2.89894e-05
5.8584e-07
2.9138e-05
3.90016e-07
2.91344e-05
4.99592e-07
2.92885e-05
3.54048e-07
2.92587e-05
4.76011e-07
2.94276e-05
2.51726e-07
2.93782e-05
4.90853e-07
2.95455e-05
2.20458e-07
2.94953e-05
3.95423e-07
2.96484e-05
2.59954e-07
2.95908e-05
3.55416e-07
2.9759e-05
1.65818e-07
2.96766e-05
3.78197e-07
2.98593e-05
1.26363e-07
2.97765e-05
2.98686e-07
2.99677e-05
1.05059e-07
2.99039e-05
2.86951e-07
3.01551e-05
2.03272e-08
2.9994e-05
3.17136e-07
3.00932e-05
6.47635e-08
2.94247e-05
5.51016e-07
2.87916e-05
2.0919e-07
2.56829e-07
2.76723e-05
2.50919e-05
2.0997e-07
2.52925e-05
7.89367e-07
2.56724e-05
1.00829e-06
2.60597e-05
1.43352e-06
2.64864e-05
1.37709e-06
2.6841e-05
1.47827e-06
2.71859e-05
1.21132e-06
2.74434e-05
1.20542e-06
2.76718e-05
8.87829e-07
2.78693e-05
8.41397e-07
2.80272e-05
6.28628e-07
2.82155e-05
6.4853e-07
2.8315e-05
4.78838e-07
2.84833e-05
5.74085e-07
2.85716e-05
3.92093e-07
2.86947e-05
5.39561e-07
2.87946e-05
3.24232e-07
2.88953e-05
4.85146e-07
2.89914e-05
2.93862e-07
2.90808e-05
4.10198e-07
2.91573e-05
2.77575e-07
2.92643e-05
3.69014e-07
2.93138e-05
2.02226e-07
2.94093e-05
3.95354e-07
2.94862e-05
1.43487e-07
2.95475e-05
3.34173e-07
2.96248e-05
1.82643e-07
2.97077e-05
2.7248e-07
2.97523e-05
1.21259e-07
2.98527e-05
2.77773e-07
2.99129e-05
6.62187e-08
3.00043e-05
2.07272e-07
3.00694e-05
3.99276e-08
3.01818e-05
1.7456e-07
3.02056e-05
-3.46446e-09
3.03926e-05
1.30143e-07
3.05204e-05
-6.30885e-08
3.09876e-05
8.38324e-08
3.14283e-05
-2.31501e-07
-3.73861e-07
3.2059e-05
2.50491e-05
1.60918e-07
2.52985e-05
5.39958e-07
2.5547e-05
7.59698e-07
2.59662e-05
1.01435e-06
2.63007e-05
1.04261e-06
2.67173e-05
1.06168e-06
2.6995e-05
9.33568e-07
2.73045e-05
8.95963e-07
2.74996e-05
6.92705e-07
2.77173e-05
6.23698e-07
2.78814e-05
4.64517e-07
2.80395e-05
4.90479e-07
2.81606e-05
3.57746e-07
2.83257e-05
4.08979e-07
2.83888e-05
3.28937e-07
2.85811e-05
3.47271e-07
2.85842e-05
3.21204e-07
2.87939e-05
2.75385e-07
2.87975e-05
2.90288e-07
2.89457e-05
2.6196e-07
2.89939e-05
2.29448e-07
2.91245e-05
2.3836e-07
2.91299e-05
1.96817e-07
2.93071e-05
2.18162e-07
2.928e-05
1.70592e-07
2.94438e-05
1.70343e-07
2.94537e-05
1.72778e-07
2.95763e-05
1.49888e-07
2.95915e-05
1.06036e-07
2.97474e-05
1.21892e-07
2.97254e-05
8.81683e-08
2.98872e-05
4.55693e-08
2.9905e-05
2.21078e-08
3.00768e-05
2.69467e-09
3.01269e-05
-5.35508e-08
3.0386e-05
-1.28913e-07
3.04525e-05
-1.29656e-07
3.07314e-05
-1.95065e-07
3.08146e-05
-3.14638e-07
-6.3846e-07
3.10792e-05
2.50461e-05
1.14801e-07
2.52327e-05
3.53341e-07
2.55153e-05
4.77099e-07
2.58651e-05
6.64585e-07
2.62167e-05
6.91019e-07
2.65918e-05
6.86583e-07
2.68963e-05
6.29012e-07
2.7197e-05
5.95358e-07
2.74056e-05
4.84053e-07
2.76201e-05
4.09165e-07
2.77632e-05
3.21417e-07
2.79372e-05
3.1651e-07
2.80565e-05
2.38473e-07
2.8177e-05
2.88441e-07
2.83279e-05
1.78047e-07
2.83847e-05
2.90512e-07
2.8545e-05
1.60918e-07
2.86226e-05
1.97735e-07
2.87283e-05
1.84549e-07
2.88323e-05
1.5797e-07
2.89067e-05
1.55098e-07
2.89911e-05
1.53906e-07
2.90823e-05
1.05672e-07
2.91267e-05
1.73773e-07
2.92278e-05
6.94583e-08
2.92886e-05
1.09496e-07
2.93481e-05
1.13292e-07
2.94401e-05
5.79568e-08
2.95054e-05
4.07062e-08
2.95615e-05
6.57905e-08
2.96693e-05
-1.95929e-08
2.97344e-05
-1.95376e-08
2.98358e-05
-7.93383e-08
2.99373e-05
-9.87527e-08
3.00903e-05
-2.06614e-07
3.01908e-05
-2.29402e-07
3.0371e-05
-3.09824e-07
3.05661e-05
-3.90233e-07
3.07498e-05
-4.98303e-07
-6.93441e-07
3.08048e-05
2.50147e-05
1.00111e-07
2.52611e-05
1.06922e-07
2.54602e-05
2.78037e-07
2.58247e-05
3.0008e-07
2.61242e-05
3.91464e-07
2.65247e-05
2.86142e-07
2.68099e-05
3.43779e-07
2.71192e-05
2.86017e-07
2.73149e-05
2.88364e-07
2.75695e-05
1.54565e-07
2.76904e-05
2.00561e-07
2.78877e-05
1.19159e-07
2.79477e-05
1.78551e-07
2.81657e-05
7.04391e-08
2.81826e-05
1.61131e-07
2.83905e-05
8.26202e-08
2.84223e-05
1.29048e-07
2.85832e-05
3.69106e-08
2.86465e-05
1.21241e-07
2.87525e-05
5.19443e-08
2.88167e-05
9.09054e-08
2.89448e-05
2.58417e-08
2.89574e-05
9.30407e-08
2.91019e-05
2.92421e-08
2.91216e-05
4.97508e-08
2.92316e-05
-4.44789e-10
2.92763e-05
6.86039e-08
2.93844e-05
-5.0136e-08
2.93932e-05
3.18434e-08
2.95338e-05
-7.48332e-08
2.95539e-05
-3.96925e-08
2.96738e-05
-1.39411e-07
2.9719e-05
-1.2456e-07
2.98832e-05
-2.62944e-07
2.99525e-05
-2.75933e-07
3.01175e-05
-3.94373e-07
3.02777e-05
-4.70042e-07
3.04978e-05
-6.10277e-07
3.06394e-05
-6.39892e-07
-7.19206e-07
3.06651e-05
2.50205e-05
7.95777e-08
2.52371e-05
-1.09692e-07
2.54638e-05
5.13492e-08
2.57963e-05
-3.23582e-08
2.61022e-05
8.55448e-08
2.64956e-05
-1.07305e-07
2.67788e-05
6.06636e-08
2.70848e-05
-2.00211e-08
2.73077e-05
6.54281e-08
2.7516e-05
-5.37538e-08
2.76811e-05
3.5555e-08
2.78159e-05
-1.57347e-08
2.79648e-05
2.96672e-08
2.80733e-05
-3.80596e-08
2.81952e-05
3.92734e-08
2.83108e-05
-3.29501e-08
2.84094e-05
3.04384e-08
2.85435e-05
-9.72228e-08
2.86203e-05
4.4416e-08
2.87277e-05
-5.54738e-08
2.88125e-05
6.10559e-09
2.88822e-05
-4.38186e-08
2.89722e-05
3.0471e-09
2.90319e-05
-3.04406e-08
2.91121e-05
-3.04502e-08
2.91813e-05
-6.9641e-08
2.926e-05
-1.00988e-08
2.93068e-05
-9.69837e-08
2.94063e-05
-6.76e-08
2.94449e-05
-1.13468e-07
2.95462e-05
-1.40988e-07
2.95977e-05
-1.90915e-07
2.96992e-05
-2.26065e-07
2.9787e-05
-3.50759e-07
2.99314e-05
-4.20334e-07
3.00478e-05
-5.10708e-07
3.02261e-05
-6.48412e-07
3.04363e-05
-8.20446e-07
3.0637e-05
-8.40555e-07
-7.94141e-07
3.07119e-05
2.50067e-05
7.28312e-08
2.52792e-05
-3.82159e-07
2.54221e-05
-9.15407e-08
2.58181e-05
-4.28349e-07
2.60696e-05
-1.6595e-07
2.65145e-05
-5.52174e-07
2.67113e-05
-1.3619e-07
2.7113e-05
-4.21696e-07
2.72488e-05
-7.04144e-08
2.75864e-05
-3.91286e-07
2.76245e-05
-2.59904e-09
2.79083e-05
-2.99535e-07
2.79153e-05
2.2693e-08
2.81584e-05
-2.81163e-07
2.81594e-05
3.83129e-08
2.83872e-05
-2.6078e-07
2.83921e-05
2.55601e-08
2.85821e-05
-2.87226e-07
2.8572e-05
5.44734e-08
2.87729e-05
-2.5634e-07
2.87261e-05
5.28807e-08
2.89517e-05
-2.69457e-07
2.88834e-05
7.14049e-08
2.91102e-05
-2.57286e-07
2.9052e-05
2.7751e-08
2.92482e-05
-2.65802e-07
2.91951e-05
4.29683e-08
2.94029e-05
-3.04727e-07
2.93167e-05
1.85668e-08
2.95414e-05
-3.38215e-07
2.94726e-05
-7.21252e-08
2.96611e-05
-3.79474e-07
2.95898e-05
-1.54766e-07
2.98174e-05
-5.7837e-07
2.97418e-05
-3.44738e-07
3.00358e-05
-8.04685e-07
3.01339e-05
-7.46469e-07
3.0494e-05
-1.18057e-06
3.06119e-05
-9.58406e-07
-1.10729e-06
3.0925e-05
2.50482e-05
2.46066e-08
2.52595e-05
-5.93432e-07
2.54568e-05
-2.8887e-07
2.58399e-05
-8.11404e-07
2.61633e-05
-4.89319e-07
2.65257e-05
-9.14606e-07
2.67932e-05
-4.03669e-07
2.71589e-05
-7.87448e-07
2.73435e-05
-2.55026e-07
2.75861e-05
-6.33862e-07
2.76823e-05
-9.87494e-08
2.79194e-05
-5.36687e-07
2.79621e-05
-1.99727e-08
2.8186e-05
-5.05048e-07
2.82042e-05
2.00431e-08
2.845e-05
-5.06597e-07
2.84192e-05
5.64117e-08
2.86372e-05
-5.0521e-07
2.86176e-05
7.40247e-08
2.88072e-05
-4.45909e-07
2.87963e-05
6.37648e-08
2.8976e-05
-4.4912e-07
2.89467e-05
1.00674e-07
2.91603e-05
-4.70835e-07
2.90855e-05
1.02461e-07
2.92931e-05
-4.73342e-07
2.92495e-05
8.65873e-08
2.94314e-05
-4.86626e-07
2.93743e-05
7.56475e-08
2.95934e-05
-5.57287e-07
2.94936e-05
2.76041e-08
2.9717e-05
-6.02879e-07
2.96279e-05
-6.56206e-08
2.98253e-05
-7.75778e-07
2.97094e-05
-2.28884e-07
2.99459e-05
-1.04118e-06
2.98865e-05
-6.86996e-07
3.05059e-05
-1.79998e-06
3.1089e-05
-1.54153e-06
-1.80007e-06
3.17818e-05
2.51406e-05
-1.1598e-07
2.51027e-05
-5.555e-07
2.55688e-05
-7.55064e-07
2.58035e-05
-1.04604e-06
2.63251e-05
-1.01091e-06
2.6516e-05
-1.10551e-06
2.69889e-05
-8.76591e-07
2.71312e-05
-9.29743e-07
2.75364e-05
-6.60249e-07
2.75694e-05
-6.66866e-07
2.79261e-05
-4.55411e-07
2.79142e-05
-5.24783e-07
2.8222e-05
-3.27778e-07
2.81625e-05
-4.45592e-07
2.84808e-05
-2.982e-07
2.83829e-05
-4.08707e-07
2.86741e-05
-2.34786e-07
2.85758e-05
-4.06916e-07
2.88457e-05
-1.95922e-07
2.876e-05
-3.60138e-07
2.90232e-05
-1.99499e-07
2.89182e-05
-3.44101e-07
2.91924e-05
-1.73495e-07
2.90765e-05
-3.54978e-07
2.9338e-05
-1.58978e-07
2.9223e-05
-3.5837e-07
2.94825e-05
-1.72895e-07
2.93656e-05
-3.69736e-07
2.96327e-05
-1.91517e-07
2.94876e-05
-4.12153e-07
2.97607e-05
-2.45457e-07
2.96187e-05
-4.60864e-07
2.98713e-05
-3.18286e-07
2.97192e-05
-6.23696e-07
2.99827e-05
-4.92294e-07
2.9799e-05
-8.57574e-07
2.99676e-05
-8.55569e-07
2.93382e-05
-1.17053e-06
2.88146e-05
-1.01794e-06
-1.18606e-06
2.82006e-05
2.51142e-05
-2.30187e-07
2.52249e-05
-6.66203e-07
2.55955e-05
-1.12561e-06
2.59127e-05
-1.36324e-06
2.63755e-05
-1.47377e-06
2.66657e-05
-1.39574e-06
2.70861e-05
-1.29699e-06
2.7268e-05
-1.11158e-06
2.75872e-05
-9.79499e-07
2.7685e-05
-7.64665e-07
2.79482e-05
-7.18573e-07
2.80108e-05
-5.87374e-07
2.82402e-05
-5.57173e-07
2.82884e-05
-4.93868e-07
2.84962e-05
-5.05937e-07
2.85021e-05
-4.14619e-07
2.87211e-05
-4.53751e-07
2.86978e-05
-3.83699e-07
2.89035e-05
-4.01595e-07
2.88789e-05
-3.35478e-07
2.90799e-05
-4.00505e-07
2.9038e-05
-3.02225e-07
2.92345e-05
-3.70052e-07
2.91994e-05
-3.19803e-07
2.93923e-05
-3.51875e-07
2.93366e-05
-3.0274e-07
2.95424e-05
-3.78619e-07
2.94838e-05
-3.11195e-07
2.96747e-05
-3.82449e-07
2.96123e-05
-3.49703e-07
2.98083e-05
-4.41464e-07
2.97284e-05
-3.80992e-07
2.9928e-05
-5.1786e-07
2.98261e-05
-5.21795e-07
2.99676e-05
-6.33767e-07
2.97693e-05
-6.59315e-07
2.97292e-05
-8.15423e-07
2.93628e-05
-8.04114e-07
2.92361e-05
-8.91303e-07
-7.7355e-07
2.88236e-05
2.51045e-05
-3.34666e-07
2.5334e-05
-8.95705e-07
2.56708e-05
-1.46244e-06
2.60608e-05
-1.75326e-06
2.64841e-05
-1.89707e-06
2.68519e-05
-1.76352e-06
2.71936e-05
-1.63866e-06
2.74555e-05
-1.37351e-06
2.76708e-05
-1.19473e-06
2.78684e-05
-9.62359e-07
2.8047e-05
-8.97143e-07
2.81843e-05
-7.24683e-07
2.83419e-05
-7.14791e-07
2.84619e-05
-6.13838e-07
2.85787e-05
-6.2276e-07
2.8688e-05
-5.23836e-07
2.88e-05
-5.65843e-07
2.88951e-05
-4.78796e-07
2.89851e-05
-4.91556e-07
2.90833e-05
-4.33706e-07
2.91595e-05
-4.7672e-07
2.92377e-05
-3.80372e-07
2.93193e-05
-4.51614e-07
2.93919e-05
-3.92486e-07
2.94628e-05
-4.22723e-07
2.95361e-05
-3.76105e-07
2.96063e-05
-4.48754e-07
2.96721e-05
-3.76996e-07
2.97383e-05
-4.48679e-07
2.98088e-05
-4.20229e-07
2.98622e-05
-4.94852e-07
2.99271e-05
-4.4589e-07
2.99686e-05
-5.59342e-07
2.99806e-05
-5.33768e-07
2.99286e-05
-5.81798e-07
2.98731e-05
-6.03756e-07
2.97333e-05
-6.7567e-07
2.95269e-05
-5.97757e-07
2.92928e-05
-6.57176e-07
-5.07986e-07
2.90273e-05
2.51123e-05
-4.46996e-07
2.53893e-05
-1.17263e-06
2.5804e-05
-1.87719e-06
2.62386e-05
-2.18786e-06
2.66665e-05
-2.32499e-06
2.70363e-05
-2.13326e-06
2.73798e-05
-1.98215e-06
2.76346e-05
-1.62838e-06
2.78786e-05
-1.43873e-06
2.8068e-05
-1.15177e-06
2.82477e-05
-1.07685e-06
2.83857e-05
-8.626e-07
2.85334e-05
-8.62549e-07
2.86363e-05
-7.16772e-07
2.87628e-05
-7.49168e-07
2.88353e-05
-5.96374e-07
2.89518e-05
-6.82376e-07
2.89983e-05
-5.25258e-07
2.9108e-05
-6.01287e-07
2.91497e-05
-4.7541e-07
2.92466e-05
-5.73648e-07
2.92782e-05
-4.11921e-07
2.93746e-05
-5.48052e-07
2.93859e-05
-4.03713e-07
2.94801e-05
-5.16952e-07
2.94825e-05
-3.78503e-07
2.95709e-05
-5.37116e-07
2.95634e-05
-3.69499e-07
2.96497e-05
-5.34994e-07
2.96232e-05
-3.9374e-07
2.97067e-05
-5.78355e-07
2.96605e-05
-3.99676e-07
2.97255e-05
-6.24417e-07
2.96391e-05
-4.47363e-07
2.96793e-05
-6.21947e-07
2.94899e-05
-4.14319e-07
2.94033e-05
-5.89129e-07
2.90999e-05
-2.94317e-07
2.8888e-05
-4.4532e-07
-1.72021e-07
2.85521e-05
2.51193e-05
-5.66246e-07
2.55105e-05
-1.56391e-06
2.59708e-05
-2.33746e-06
2.64484e-05
-2.66544e-06
2.68691e-05
-2.74568e-06
2.72601e-05
-2.52431e-06
2.75489e-05
-2.27091e-06
2.78186e-05
-1.89808e-06
2.79972e-05
-1.61732e-06
2.81648e-05
-1.31938e-06
2.82654e-05
-1.17745e-06
2.83628e-05
-9.59971e-07
2.84072e-05
-9.06977e-07
2.84623e-05
-7.71908e-07
2.84683e-05
-7.5515e-07
2.84998e-05
-6.27833e-07
2.84847e-05
-6.67322e-07
2.84963e-05
-5.36829e-07
2.84728e-05
-5.77749e-07
2.84694e-05
-4.72078e-07
2.84318e-05
-5.36025e-07
2.84184e-05
-3.98558e-07
2.8372e-05
-5.01652e-07
2.83415e-05
-3.73177e-07
2.82904e-05
-4.65892e-07
2.82503e-05
-3.38412e-07
2.81869e-05
-4.73673e-07
2.81337e-05
-3.16286e-07
2.8066e-05
-4.67349e-07
2.79922e-05
-3.19907e-07
2.79097e-05
-4.95861e-07
2.78174e-05
-3.0735e-07
2.77189e-05
-5.25891e-07
2.75907e-05
-3.19199e-07
2.7495e-05
-5.26233e-07
2.73169e-05
-2.36276e-07
2.71478e-05
-4.19986e-07
2.6814e-05
3.94354e-08
2.64618e-05
-9.30605e-08
2.55003e-07
2.60348e-05
2.51555e-05
-7.21768e-07
2.56281e-05
-2.03652e-06
2.61433e-05
-2.85266e-06
2.65768e-05
-3.09895e-06
2.68704e-05
-3.03926e-06
2.70606e-05
-2.71453e-06
2.71121e-05
-2.3224e-06
2.71001e-05
-1.88607e-06
2.70014e-05
-1.51855e-06
2.68812e-05
-1.19919e-06
2.6696e-05
-9.92327e-07
2.65248e-05
-7.88676e-07
2.63062e-05
-6.8843e-07
2.61101e-05
-5.75802e-07
2.58798e-05
-5.24883e-07
2.56885e-05
-4.36466e-07
2.54542e-05
-4.33024e-07
2.5268e-05
-3.50647e-07
2.50467e-05
-3.56488e-07
2.48669e-05
-2.92269e-07
2.46469e-05
-3.16001e-07
2.44877e-05
-2.39392e-07
2.42716e-05
-2.85514e-07
2.41149e-05
-2.16483e-07
2.39107e-05
-2.61728e-07
2.37639e-05
-1.91574e-07
2.35515e-05
-2.61325e-07
2.34151e-05
-1.79815e-07
2.32049e-05
-2.57163e-07
2.30635e-05
-1.78564e-07
2.28426e-05
-2.74956e-07
2.27097e-05
-1.74389e-07
2.24675e-05
-2.83706e-07
2.23277e-05
-1.79403e-07
2.20674e-05
-2.65908e-07
2.19638e-05
-1.32689e-07
2.17924e-05
-2.48645e-07
2.19303e-05
-9.8391e-08
2.20955e-05
-2.5825e-07
-1.79273e-07
2.25297e-05
2.52107e-05
-9.32495e-07
2.55499e-05
-2.37565e-06
2.55691e-05
-2.87193e-06
2.52416e-05
-2.77139e-06
2.46297e-05
-2.42738e-06
2.3879e-05
-1.96381e-06
2.3064e-05
-1.50746e-06
2.22764e-05
-1.09844e-06
2.15389e-05
-7.81056e-07
2.08739e-05
-5.34245e-07
2.02612e-05
-3.79547e-07
1.97289e-05
-2.56454e-07
1.92345e-05
-1.9402e-07
1.88018e-05
-1.43028e-07
1.84019e-05
-1.24975e-07
1.80576e-05
-9.22102e-08
1.77224e-05
-9.78535e-08
1.74462e-05
-7.44512e-08
1.71705e-05
-8.0753e-08
1.6941e-05
-6.28177e-08
1.67049e-05
-7.98164e-08
1.65184e-05
-5.29272e-08
1.6308e-05
-7.51493e-08
1.6146e-05
-5.44915e-08
1.5958e-05
-7.36539e-08
1.58154e-05
-4.90542e-08
1.5633e-05
-7.89225e-08
1.55049e-05
-5.16868e-08
1.53263e-05
-7.85467e-08
1.52026e-05
-5.48691e-08
1.50168e-05
-8.91496e-08
1.48983e-05
-5.59226e-08
1.47035e-05
-8.88482e-08
1.4588e-05
-6.39179e-08
1.43997e-05
-7.76076e-08
1.43162e-05
-4.9241e-08
1.4125e-05
-5.73678e-08
1.40817e-05
-5.51132e-08
1.39599e-05
-1.36513e-07
-3.03788e-07
1.40845e-05
2.40675e-05
2.16919e-05
1.88199e-05
1.60485e-05
1.36211e-05
1.16573e-05
1.01499e-05
9.05144e-06
8.27038e-06
7.73614e-06
7.35659e-06
7.10014e-06
6.90612e-06
6.76309e-06
6.63811e-06
6.5459e-06
6.44805e-06
6.3736e-06
6.29285e-06
6.23003e-06
6.15021e-06
6.09728e-06
6.02213e-06
5.96764e-06
5.89399e-06
5.84494e-06
5.76601e-06
5.71433e-06
5.63578e-06
5.58091e-06
5.49176e-06
5.43584e-06
5.34699e-06
5.28307e-06
5.20546e-06
5.15622e-06
5.09886e-06
5.04374e-06
4.90723e-06
4.60344e-06
5.95515e-06
-2.43329e-07
-2.33332e-07
6.42708e-06
-3.52413e-07
-1.1952e-07
6.88653e-06
-4.71307e-07
1.18607e-08
7.28406e-06
-5.19796e-07
1.22262e-07
7.50943e-06
-5.30574e-07
3.05204e-07
7.59322e-06
-5.41649e-07
4.57863e-07
7.52964e-06
-5.57536e-07
6.21113e-07
7.32869e-06
-5.75402e-07
7.7635e-07
7.08788e-06
-5.83112e-07
8.23922e-07
6.83865e-06
-5.38719e-07
7.87951e-07
6.62003e-06
-5.13773e-07
7.32392e-07
6.43053e-06
-4.73215e-07
6.62717e-07
6.268e-06
-3.97325e-07
5.5986e-07
6.15964e-06
-2.94668e-07
4.03025e-07
6.14232e-06
-1.87117e-07
2.04432e-07
6.23152e-06
-6.65031e-08
-2.26902e-08
6.47057e-06
6.12231e-08
-3.00273e-07
6.84119e-06
1.73288e-07
-5.43915e-07
7.33893e-06
2.84022e-07
-7.81753e-07
7.9315e-06
3.94337e-07
-9.86908e-07
8.60847e-06
4.75855e-07
-1.15283e-06
9.3144e-06
5.80945e-07
-1.28688e-06
1.00404e-05
6.79243e-07
-1.40528e-06
1.07678e-05
7.3468e-07
-1.46204e-06
1.14981e-05
7.76706e-07
-1.50706e-06
1.21955e-05
8.19185e-07
-1.51654e-06
1.28722e-05
8.18787e-07
-1.49551e-06
1.35187e-05
8.15343e-07
-1.46177e-06
1.41404e-05
8.27802e-07
-1.44959e-06
1.47147e-05
8.16114e-07
-1.39038e-06
1.52596e-05
7.79576e-07
-1.32447e-06
1.57772e-05
7.61208e-07
-1.2788e-06
1.627e-05
7.27883e-07
-1.22068e-06
1.67218e-05
6.75746e-07
-1.12753e-06
1.7179e-05
6.19982e-07
-1.07718e-06
1.76271e-05
5.95097e-07
-1.04325e-06
1.80869e-05
5.49259e-07
-1.00905e-06
1.85615e-05
5.07525e-07
-9.82085e-07
1.90423e-05
4.50834e-07
-9.31713e-07
1.94822e-05
3.75328e-07
-8.15143e-07
1.98734e-05
2.84519e-07
-6.75752e-07
2.01753e-05
1.91133e-07
-4.93038e-07
2.04037e-05
5.46029e-08
-2.83034e-07
2.05529e-05
-4.26785e-08
-1.06475e-07
2.06824e-05
-1.60037e-07
3.05365e-08
2.07987e-05
-2.88659e-07
1.72379e-07
2.09388e-05
-3.79862e-07
2.39763e-07
2.11098e-05
-4.96908e-07
3.25867e-07
2.13402e-05
-6.12507e-07
3.82128e-07
2.15962e-05
-7.29762e-07
4.7374e-07
2.19061e-05
-9.08488e-07
5.98592e-07
2.22382e-05
-1.11033e-06
7.78219e-07
2.25858e-05
-1.34711e-06
9.99526e-07
2.2924e-05
-1.63967e-06
1.3015e-06
2.32433e-05
-1.91219e-06
1.5929e-06
2.35474e-05
-2.24039e-06
1.93629e-06
2.38313e-05
-2.531e-06
2.247e-06
2.41162e-05
-2.81024e-06
2.52539e-06
2.44289e-05
-3.08855e-06
2.77586e-06
2.4791e-05
-3.34859e-06
2.98652e-06
2.52051e-05
-3.57724e-06
3.16306e-06
2.56887e-05
-3.84909e-06
3.36553e-06
2.62076e-05
-4.08378e-06
3.56487e-06
2.67635e-05
-4.32945e-06
3.77357e-06
2.73183e-05
-4.58697e-06
4.03221e-06
2.78567e-05
-4.8067e-06
4.26827e-06
2.83461e-05
-5.02367e-06
4.53424e-06
2.87777e-05
-5.21747e-06
4.7859e-06
2.91355e-05
-5.36252e-06
5.00474e-06
2.94429e-05
-5.51577e-06
5.20832e-06
2.96555e-05
-5.5962e-06
5.38366e-06
2.97988e-05
-5.64561e-06
5.50231e-06
2.985e-05
-5.6694e-06
5.61815e-06
2.98121e-05
-5.61212e-06
5.65005e-06
2.96941e-05
-5.51852e-06
5.63653e-06
2.95074e-05
-5.3794e-06
5.56603e-06
2.92598e-05
-5.1669e-06
5.41458e-06
2.90015e-05
-4.93249e-06
5.19077e-06
2.87021e-05
-4.6378e-06
4.9372e-06
2.84043e-05
-4.29306e-06
4.59086e-06
2.81203e-05
-3.96001e-06
4.24401e-06
2.78414e-05
-3.58929e-06
3.8682e-06
2.7611e-05
-3.24578e-06
3.47611e-06
2.74346e-05
-2.93963e-06
3.1161e-06
2.73244e-05
-2.64235e-06
2.75251e-06
2.72861e-05
-2.35068e-06
2.38904e-06
2.73294e-05
-2.10298e-06
2.05963e-06
2.7418e-05
-1.79951e-06
1.71093e-06
2.7574e-05
-1.54851e-06
1.39254e-06
2.77477e-05
-1.28976e-06
1.11604e-06
2.79522e-05
-1.0525e-06
8.47987e-07
2.817e-05
-8.62809e-07
6.45005e-07
2.84221e-05
-7.08731e-07
4.56631e-07
2.86971e-05
-5.91921e-07
3.16933e-07
2.901e-05
-5.21818e-07
2.08879e-07
2.93218e-05
-4.50402e-07
1.3863e-07
2.96624e-05
-4.26309e-07
8.56896e-08
2.99989e-05
-4.08353e-07
7.18293e-08
3.0347e-05
-4.26833e-07
7.87207e-08
3.06769e-05
-4.6116e-07
1.31274e-07
3.10134e-05
-5.3886e-07
2.02369e-07
3.13441e-05
-6.11083e-07
2.80448e-07
3.1682e-05
-7.48825e-07
4.10829e-07
3.20014e-05
-8.68865e-07
5.49525e-07
3.23268e-05
-1.03214e-06
7.06705e-07
3.26341e-05
-1.2031e-06
8.95841e-07
3.29573e-05
-1.37042e-06
1.04716e-06
3.32539e-05
-1.55173e-06
1.25518e-06
3.35553e-05
-1.72813e-06
1.42673e-06
3.38386e-05
-1.89175e-06
1.60841e-06
3.41267e-05
-2.07916e-06
1.79111e-06
3.43964e-05
-2.22576e-06
1.95605e-06
3.46799e-05
-2.39299e-06
2.10948e-06
3.49331e-05
-2.53155e-06
2.2783e-06
3.52037e-05
-2.65415e-06
2.38363e-06
3.54608e-05
-2.78779e-06
2.53063e-06
3.57141e-05
-2.8749e-06
2.62165e-06
3.59748e-05
-2.97093e-06
2.71021e-06
3.62212e-05
-3.0419e-06
2.79548e-06
3.64563e-05
-3.076e-06
2.84092e-06
3.66978e-05
-3.12009e-06
2.87854e-06
3.69001e-05
-3.12528e-06
2.923e-06
3.71013e-05
-3.10486e-06
2.90371e-06
3.72752e-05
-3.10197e-06
2.92805e-06
3.74147e-05
-3.02676e-06
2.88723e-06
3.75419e-05
-2.99219e-06
2.86502e-06
3.76073e-05
-2.8909e-06
2.82545e-06
3.76589e-05
-2.80823e-06
2.75668e-06
3.76612e-05
-2.70995e-06
2.70764e-06
3.76155e-05
-2.58365e-06
2.62932e-06
3.75349e-05
-2.45984e-06
2.54045e-06
3.74005e-05
-2.33999e-06
2.47442e-06
3.722e-05
-2.17893e-06
2.3594e-06
3.70182e-05
-2.06852e-06
2.27034e-06
3.67321e-05
-1.88807e-06
2.1742e-06
3.64547e-05
-1.75996e-06
2.03727e-06
3.61062e-05
-1.60128e-06
1.94986e-06
3.57285e-05
-1.43241e-06
1.81004e-06
3.53304e-05
-1.29453e-06
1.69266e-06
3.48784e-05
-1.1298e-06
1.5818e-06
3.4406e-05
-9.66686e-07
1.43913e-06
3.39237e-05
-8.54147e-07
1.33643e-06
3.33823e-05
-6.80673e-07
1.22208e-06
3.28618e-05
-5.90262e-07
1.11076e-06
3.2281e-05
-4.71735e-07
1.05254e-06
3.17252e-05
-3.82839e-07
9.3858e-07
3.1149e-05
-3.47107e-07
9.23295e-07
3.05392e-05
-2.58183e-07
8.68052e-07
2.99527e-05
-2.52431e-07
8.38865e-07
2.93558e-05
-2.71889e-07
8.68799e-07
2.87202e-05
-2.17602e-07
8.53251e-07
2.81372e-05
-2.87358e-07
8.70377e-07
2.74744e-05
-2.92781e-07
9.55588e-07
2.68078e-05
-2.82762e-07
9.49326e-07
2.61352e-05
-3.79936e-07
1.0525e-06
2.54078e-05
-3.81685e-07
1.10914e-06
2.4697e-05
-4.40094e-07
1.15086e-06
2.39791e-05
-5.88486e-07
1.30638e-06
2.31648e-05
-5.60589e-07
1.37489e-06
2.24146e-05
-6.1711e-07
1.36732e-06
2.16309e-05
-7.08825e-07
1.49248e-06
2.08007e-05
-5.98039e-07
1.42828e-06
2.00697e-05
-6.12346e-07
1.34337e-06
1.93766e-05
-6.87019e-07
1.38014e-06
1.86612e-05
-5.22086e-07
1.23741e-06
1.81366e-05
-4.66124e-07
9.90786e-07
1.77062e-05
-5.67048e-07
9.97408e-07
1.7244e-05
-4.35096e-07
8.97291e-07
1.69057e-05
-2.98593e-07
6.36936e-07
1.67428e-05
-4.43124e-07
6.06028e-07
1.6526e-05
-4.99216e-07
7.15963e-07
1.63185e-05
-3.51914e-07
5.59452e-07
1.62587e-05
-3.91313e-07
4.51118e-07
1.62255e-05
-6.32031e-07
6.65191e-07
1.60437e-05
-6.72249e-07
8.54114e-07
1.58893e-05
-5.86423e-07
7.40789e-07
1.58242e-05
-6.57038e-07
7.22171e-07
1.57036e-05
-8.67055e-07
9.87593e-07
1.54054e-05
-9.0606e-07
1.20429e-06
1.51019e-05
-7.25757e-07
1.02929e-06
1.48621e-05
-4.90144e-07
7.29947e-07
1.46676e-05
-3.85133e-07
5.79551e-07
1.44438e-05
-4.36053e-07
6.59907e-07
1.42298e-05
-4.29249e-07
6.43279e-07
1.40185e-05
-2.22099e-07
4.33387e-07
1.37907e-05
2.65652e-07
-3.78972e-08
1.35283e-05
7.88839e-07
-5.26392e-07
1.33397e-05
1.06933e-06
-8.80777e-07
1.31708e-05
9.98147e-07
-8.29247e-07
1.3136e-05
4.18945e-07
-3.84096e-07
1.31956e-05
-5.54815e-07
4.95168e-07
1.34147e-05
-2.08094e-06
1.86184e-06
1.37244e-05
-3.8568e-06
3.54713e-06
1.41768e-05
-5.88446e-06
5.43208e-06
1.4684e-05
-7.87461e-06
7.3674e-06
1.52742e-05
-9.75023e-06
9.15997e-06
1.59162e-05
-1.13355e-05
1.06935e-05
1.65602e-05
-1.24762e-05
1.18322e-05
1.72442e-05
-1.32583e-05
1.25743e-05
1.78595e-05
-1.36302e-05
1.30148e-05
1.85225e-05
-1.37911e-05
1.31281e-05
1.91382e-05
-1.374e-05
1.31243e-05
1.97901e-05
-1.35585e-05
1.29066e-05
2.04312e-05
-1.32793e-05
1.26381e-05
2.10565e-05
-1.28283e-05
1.22031e-05
2.17159e-05
-1.23712e-05
1.17118e-05
2.23336e-05
-1.17353e-05
1.11176e-05
2.30073e-05
-1.1116e-05
1.04424e-05
2.35998e-05
-1.03185e-05
9.72597e-06
2.42381e-05
-9.50062e-06
8.86232e-06
2.47804e-05
-8.54992e-06
8.00755e-06
2.53542e-05
-7.58311e-06
7.00936e-06
2.58189e-05
-6.51902e-06
6.05431e-06
2.62795e-05
-5.41168e-06
4.95106e-06
2.66579e-05
-4.28144e-06
3.90301e-06
2.70805e-05
-3.15412e-06
2.73155e-06
2.73788e-05
-1.94966e-06
1.65136e-06
2.76874e-05
-7.59904e-07
4.51295e-07
2.78812e-05
5.00162e-07
-6.93927e-07
2.80685e-05
1.70302e-06
-1.89032e-06
2.81441e-05
2.87124e-06
-2.94691e-06
2.82335e-05
3.97907e-06
-4.06841e-06
2.82054e-05
5.07661e-06
-5.04856e-06
2.82035e-05
6.04621e-06
-6.04426e-06
2.80775e-05
7.03183e-06
-6.9058e-06
2.79634e-05
7.87125e-06
-7.75715e-06
2.77324e-05
8.71362e-06
-8.48263e-06
2.75452e-05
9.36364e-06
-9.17641e-06
2.72809e-05
1.00546e-05
-9.79038e-06
2.70173e-05
1.05462e-05
-1.02825e-05
2.67235e-05
1.10464e-05
-1.07526e-05
2.64021e-05
1.14151e-05
-1.10937e-05
2.61149e-05
1.17365e-05
-1.14493e-05
2.57441e-05
1.19627e-05
-1.15919e-05
2.54198e-05
1.20824e-05
-1.17581e-05
2.49749e-05
1.21992e-05
-1.17544e-05
2.45651e-05
1.21345e-05
-1.17246e-05
2.40805e-05
1.20662e-05
-1.15816e-05
2.36585e-05
1.1829e-05
-1.1407e-05
2.32654e-05
1.1637e-05
-1.12438e-05
2.29554e-05
1.13575e-05
-1.10476e-05
2.2844e-05
1.11106e-05
-1.09992e-05
2.2829e-05
1.09296e-05
-1.09146e-05
2.30068e-05
1.07727e-05
-1.09504e-05
2.31669e-05
1.0762e-05
-1.09221e-05
2.3406e-05
1.06655e-05
-1.09046e-05
2.35771e-05
1.06344e-05
-1.08054e-05
2.37769e-05
1.04592e-05
-1.06591e-05
2.39872e-05
1.03335e-05
-1.05438e-05
2.41481e-05
1.01262e-05
-1.02871e-05
2.43371e-05
9.89242e-06
-1.00813e-05
2.43889e-05
9.65258e-06
-9.70447e-06
2.44755e-05
9.31109e-06
-9.39763e-06
2.43448e-05
9.02559e-06
-8.89492e-06
2.42485e-05
8.54099e-06
-8.44471e-06
2.39502e-05
8.184e-06
-7.88563e-06
2.36873e-05
7.61401e-06
-7.3511e-06
2.33015e-05
7.18205e-06
-6.79632e-06
2.29771e-05
6.5624e-06
-6.23799e-06
2.26534e-05
6.09866e-06
-5.77497e-06
2.2374e-05
5.50084e-06
-5.22139e-06
2.21794e-05
5.03139e-06
-4.83681e-06
2.1972e-05
4.50477e-06
-4.29737e-06
2.1886e-05
4.02515e-06
-3.93918e-06
2.17131e-05
3.54094e-06
-3.36799e-06
2.1686e-05
3.05526e-06
-3.02821e-06
2.14901e-05
2.62967e-06
-2.43373e-06
2.1443e-05
2.11349e-06
-2.06642e-06
2.12008e-05
1.70558e-06
-1.46335e-06
2.11197e-05
1.19136e-06
-1.11024e-06
2.0811e-05
8.27596e-07
-5.18909e-07
2.06546e-05
3.23365e-07
-1.66971e-07
2.02544e-05
2.65473e-08
3.7368e-07
2.00171e-05
-4.23137e-07
6.60435e-07
1.95513e-05
-6.69557e-07
1.13532e-06
1.92832e-05
-1.07119e-06
1.33931e-06
1.88242e-05
-1.25948e-06
1.71849e-06
1.85991e-05