/*--------------------------------*- C++ -*----------------------------------*\
| =========                 |                                                 |
| \\      /  F ield         | OpenFOAM: The Open Source CFD Toolbox           |
|  \\    /   O peration     | Version:  2.4.0                                 |
|   \\  /    A nd           | Web:      www.OpenFOAM.org                      |
|    \\/     M anipulation  |                                                 |
\*---------------------------------------------------------------------------*/
FoamFile
{
    version     2.0;
    format      ascii;
    class       volVectorField;
    location    "0.105";
    object      U;
}
// * * * * * * * * * * * * * * * * * * * * * * * * * * * * * * * * * * * * * //

dimensions      [0 1 -1 0 0 0 0];

internalField   nonuniform List<vector> 
17600
(
(9.95602 0.110905 0)
(9.19699 0.385117 0)
(8.06362 0.441278 0)
(6.9112 0.364972 0)
(5.87515 0.251539 0)
(5.00005 0.14483 0)
(4.3232 0.0620539 0)
(3.815 0.0100579 0)
(3.45121 -0.0189023 0)
(3.19186 -0.0315309 0)
(3.01651 -0.0351437 0)
(2.8876 -0.0321345 0)
(2.8036 -0.0280791 0)
(2.73205 -0.0225202 0)
(2.68519 -0.0176441 0)
(2.63619 -0.0142168 0)
(2.60441 -0.0109117 0)
(2.56581 -0.00795129 0)
(2.54084 -0.00626305 0)
(2.50836 -0.00462218 0)
(2.488 -0.00306049 0)
(2.45781 -0.00211706 0)
(2.44248 -0.00242352 0)
(2.41355 -0.000370117 0)
(2.40207 -0.000983229 0)
(2.37414 -0.00107404 0)
(2.36739 0.000198398 0)
(2.33925 -4.45326e-05 0)
(2.33717 -0.00121767 0)
(2.3106 0.000952132 0)
(2.31241 -0.00116393 0)
(2.28563 0.000577991 0)
(2.29346 -0.00165398 0)
(2.26383 0.00261334 0)
(2.27658 -0.00179998 0)
(2.23485 0.00336082 0)
(2.26608 0.00241116 0)
(2.16079 0.00100146 0)
(2.25074 0.0403781 0)
(2.01187 -0.0194636 0)
(10.0025 0.170539 0)
(10.1159 0.442386 0)
(10.1789 0.607445 0)
(10.1213 0.670527 0)
(9.95624 0.653125 0)
(9.69461 0.586603 0)
(9.39799 0.49313 0)
(9.07879 0.396108 0)
(8.78097 0.306866 0)
(8.48787 0.233931 0)
(8.24199 0.175974 0)
(7.99339 0.134672 0)
(7.80492 0.102355 0)
(7.59934 0.080835 0)
(7.45129 0.0655938 0)
(7.28406 0.0523526 0)
(7.16793 0.0449125 0)
(7.02661 0.037262 0)
(6.93826 0.03395 0)
(6.81965 0.0272957 0)
(6.74871 0.0272746 0)
(6.64612 0.0238887 0)
(6.59833 0.0200519 0)
(6.49616 0.0207492 0)
(6.47103 0.0195017 0)
(6.37566 0.0137836 0)
(6.35765 0.0182599 0)
(6.27165 0.0135264 0)
(6.2671 0.011809 0)
(6.17707 0.012475 0)
(6.19292 0.0117156 0)
(6.09505 0.00711205 0)
(6.13463 0.0118496 0)
(6.01624 0.00607159 0)
(6.09292 0.0135071 0)
(5.9338 0.00685403 0)
(6.05193 0.0216784 0)
(5.8472 0.0207231 0)
(5.99188 -0.0122407 0)
(5.77716 -0.0443529 0)
(10.0019 0.12823 0)
(10.0925 0.35756 0)
(10.2649 0.524983 0)
(10.4568 0.607456 0)
(10.6477 0.615553 0)
(10.766 0.571609 0)
(10.8518 0.497625 0)
(10.8557 0.419187 0)
(10.8585 0.343489 0)
(10.7857 0.284644 0)
(10.7535 0.236146 0)
(10.6401 0.206081 0)
(10.5975 0.175348 0)
(10.4725 0.158763 0)
(10.4233 0.144076 0)
(10.3007 0.127801 0)
(10.2497 0.11849 0)
(10.1345 0.110412 0)
(10.0794 0.0970002 0)
(9.97947 0.0932485 0)
(9.92267 0.0839844 0)
(9.82284 0.0802727 0)
(9.78715 0.0682904 0)
(9.67529 0.0726252 0)
(9.65116 0.0592412 0)
(9.55124 0.0583855 0)
(9.5218 0.054066 0)
(9.429 0.0525958 0)
(9.41535 0.0390864 0)
(9.31148 0.0497743 0)
(9.31955 0.0326398 0)
(9.20522 0.0397609 0)
(9.2389 0.026114 0)
(9.10463 0.0422657 0)
(9.16827 0.0146924 0)
(9.01623 0.0462293 0)
(9.09523 0.00753666 0)
(8.91584 0.0701344 0)
(8.98188 0.0136041 0)
(8.76155 0.0724266 0)
(10.0092 0.0940745 0)
(10.0636 0.283818 0)
(10.2214 0.415056 0)
(10.3768 0.495905 0)
(10.6031 0.50048 0)
(10.7669 0.475212 0)
(10.9658 0.419684 0)
(11.0659 0.361122 0)
(11.2068 0.306394 0)
(11.241 0.258171 0)
(11.3373 0.224968 0)
(11.3277 0.201276 0)
(11.3937 0.177944 0)
(11.3708 0.167091 0)
(11.4094 0.154998 0)
(11.3922 0.142594 0)
(11.4065 0.134948 0)
(11.3998 0.126105 0)
(11.3966 0.122648 0)
(11.3938 0.103081 0)
(11.3867 0.11611 0)
(11.3733 0.0923725 0)
(11.3743 0.0962584 0)
(11.3506 0.0890352 0)
(11.3468 0.0915423 0)
(11.3316 0.0653793 0)
(11.3141 0.0964531 0)
(11.3006 0.0555943 0)
(11.2889 0.0803635 0)
(11.2629 0.0527397 0)
(11.264 0.0778953 0)
(11.2251 0.033649 0)
(11.2383 0.0766872 0)
(11.191 0.0315382 0)
(11.2077 0.0697988 0)
(11.1551 0.0238668 0)
(11.1837 0.0664781 0)
(11.1302 -0.0408619 0)
(11.1532 -0.0496087 0)
(10.9935 -0.259128 0)
(9.99588 0.0889251 0)
(10.0717 0.204451 0)
(10.1653 0.339408 0)
(10.3349 0.378997 0)
(10.4919 0.41605 0)
(10.6895 0.375418 0)
(10.8466 0.353387 0)
(10.9977 0.296232 0)
(11.1234 0.255816 0)
(11.2085 0.215893 0)
(11.3184 0.18167 0)
(11.3397 0.171234 0)
(11.436 0.141653 0)
(11.4418 0.142852 0)
(11.5047 0.128041 0)
(11.5313 0.120414 0)
(11.5588 0.113877 0)
(11.6037 0.109783 0)
(11.6208 0.0996679 0)
(11.657 0.0957426 0)
(11.6867 0.0917188 0)
(11.7043 0.0876562 0)
(11.7425 0.0755556 0)
(11.7594 0.0848504 0)
(11.7834 0.0718666 0)
(11.8111 0.0673136 0)
(11.8304 0.0731549 0)
(11.8451 0.0639895 0)
(11.8743 0.055066 0)
(11.8872 0.0627658 0)
(11.9075 0.0520072 0)
(11.9272 0.0492172 0)
(11.9476 0.0429778 0)
(11.9649 0.0529854 0)
(11.9822 0.033201 0)
(11.9968 0.045849 0)
(11.9881 0.0288323 0)
(11.9672 0.0352608 0)
(11.9135 -0.0151223 0)
(11.9363 -0.0555931 0)
(9.99965 0.0315839 0)
(10.055 0.205012 0)
(10.1381 0.219196 0)
(10.286 0.341842 0)
(10.4154 0.28872 0)
(10.6202 0.34635 0)
(10.7334 0.252996 0)
(10.9418 0.280176 0)
(10.9874 0.185965 0)
(11.1684 0.203508 0)
(11.1897 0.127537 0)
(11.301 0.166674 0)
(11.3387 0.0847616 0)
(11.3793 0.157607 0)
(11.4522 0.0600153 0)
(11.4458 0.14832 0)
(11.5294 0.0515342 0)
(11.5304 0.127724 0)
(11.5804 0.0542202 0)
(11.6207 0.106532 0)
(11.641 0.0476935 0)
(11.6779 0.107677 0)
(11.7294 0.0201768 0)
(11.728 0.116334 0)
(11.7881 0.0148075 0)
(11.8097 0.0919804 0)
(11.8323 0.0289233 0)
(11.8736 0.0834789 0)
(11.8954 0.00584534 0)
(11.9237 0.0930313 0)
(11.9566 -0.00363806 0)
(11.9834 0.0731833 0)
(12.01 -0.00489248 0)
(12.0453 0.070502 0)
(12.0703 -0.0235775 0)
(12.099 0.0696906 0)
(12.124 -0.0210266 0)
(12.1515 0.101476 0)
(12.1242 0.0260951 0)
(11.9837 0.145901 0)
(9.99423 0.0497656 0)
(10.0439 0.120787 0)
(10.1268 0.190076 0)
(10.2297 0.224967 0)
(10.3971 0.249612 0)
(10.5114 0.235943 0)
(10.7232 0.222305 0)
(10.8062 0.197505 0)
(10.9796 0.167552 0)
(11.0446 0.138344 0)
(11.1516 0.121822 0)
(11.2354 0.0985785 0)
(11.246 0.101459 0)
(11.3704 0.0763379 0)
(11.3254 0.0934008 0)
(11.4444 0.0682788 0)
(11.4242 0.0804598 0)
(11.4864 0.0651782 0)
(11.5184 0.0657689 0)
(11.5536 0.0594139 0)
(11.5754 0.0626017 0)
(11.6355 0.0437599 0)
(11.6389 0.059955 0)
(11.6934 0.0425138 0)
(11.7165 0.0462608 0)
(11.7409 0.0389401 0)
(11.7909 0.0465807 0)
(11.8034 0.0266034 0)
(11.8325 0.0428171 0)
(11.8809 0.018196 0)
(11.8927 0.0333581 0)
(11.9189 0.00980123 0)
(11.9692 0.0227826 0)
(11.9823 -0.0048961 0)
(12.0146 0.0213512 0)
(12.0481 -0.0209909 0)
(12.0803 0.00568307 0)
(12.0629 -0.0439812 0)
(12.0234 -0.0592343 0)
(11.7816 -0.225527 0)
(9.99677 0.0208913 0)
(10.0418 0.0977222 0)
(10.1052 0.117437 0)
(10.2273 0.171368 0)
(10.3341 0.165447 0)
(10.5076 0.17834 0)
(10.6343 0.150385 0)
(10.7974 0.153349 0)
(10.9034 0.113221 0)
(10.9991 0.112694 0)
(11.1292 0.0702175 0)
(11.1375 0.0919981 0)
(11.2775 0.0466286 0)
(11.2449 0.0815781 0)
(11.3572 0.0404525 0)
(11.3538 0.0678603 0)
(11.3929 0.0486691 0)
(11.4645 0.0441174 0)
(11.441 0.0486535 0)
(11.5387 0.0447157 0)
(11.5278 0.0301068 0)
(11.5752 0.0504331 0)
(11.6152 0.0189774 0)
(11.6483 0.0454953 0)
(11.6476 0.0212459 0)
(11.7382 0.0289573 0)
(11.7128 0.0212674 0)
(11.7701 0.0329205 0)
(11.7962 -0.000606217 0)
(11.8309 0.027718 0)
(11.8333 0.00104064 0)
(11.9007 0.00700405 0)
(11.9036 -0.0163923 0)
(11.9392 0.00486222 0)
(11.967 -0.0376155 0)
(12.0142 -0.02803 0)
(12.0003 -0.0540134 0)
(12.0261 -0.0477247 0)
(11.9684 -0.0950216 0)
(11.7387 -0.102151 0)
(9.99648 0.0199757 0)
(10.0328 0.0485246 0)
(10.1007 0.0726261 0)
(10.2025 0.0978653 0)
(10.3217 0.104743 0)
(10.4673 0.09991 0)
(10.6111 0.0939693 0)
(10.7645 0.0894948 0)
(10.8513 0.0799007 0)
(11.0017 0.0559364 0)
(11.0423 0.0570102 0)
(11.1726 0.0400237 0)
(11.1785 0.0449184 0)
(11.2711 0.0374278 0)
(11.3043 0.0284103 0)
(11.3085 0.0472827 0)
(11.416 0.0194771 0)
(11.3654 0.0323705 0)
(11.4761 0.0271192 0)
(11.4666 0.0201396 0)
(11.5163 0.0313936 0)
(11.5385 0.0135196 0)
(11.5978 0.0224585 0)
(11.589 0.0239447 0)
(11.6616 0.00943966 0)
(11.6616 0.0122953 0)
(11.7153 0.0239916 0)
(11.7263 -0.00596863 0)
(11.7709 0.0135081 0)
(11.7837 -2.81529e-05 0)
(11.827 -0.00823844 0)
(11.8428 -0.0142736 0)
(11.8831 -0.016469 0)
(11.8993 -0.040082 0)
(11.9433 -0.0488179 0)
(11.961 -0.0614221 0)
(11.97 -0.079565 0)
(11.9903 -0.101169 0)
(11.9348 -0.102902 0)
(11.7087 -0.121119 0)
(9.99808 0.0256483 0)
(10.0322 -0.00688753 0)
(10.1001 0.0396544 0)
(10.1947 0.0164079 0)
(10.3172 0.0556477 0)
(10.4504 0.00945068 0)
(10.6149 0.0436512 0)
(10.7232 0.0187576 0)
(10.8681 0.0397338 0)
(10.9491 0.00723192 0)
(11.0726 0.0248539 0)
(11.1212 0.0042092 0)
(11.1879 0.029108 0)
(11.2647 -0.0105585 0)
(11.2562 0.0349046 0)
(11.3554 -0.0132845 0)
(11.3335 0.0320686 0)
(11.4192 -0.0192236 0)
(11.4165 0.0190955 0)
(11.4794 -0.000839966 0)
(11.4958 0.00691957 0)
(11.5311 -0.0048421 0)
(11.5717 0.0151673 0)
(11.602 -0.0116684 0)
(11.6195 0.0121215 0)
(11.6711 -0.015048 0)
(11.6972 0.00622507 0)
(11.7073 -0.0159708 0)
(11.759 -0.00033614 0)
(11.7767 -0.0306319 0)
(11.7996 -0.00662678 0)
(11.8321 -0.0438488 0)
(11.8711 -0.0311307 0)
(11.8723 -0.0674445 0)
(11.9285 -0.0637793 0)
(11.9359 -0.105389 0)
(11.9617 -0.109636 0)
(11.9521 -0.155917 0)
(11.9251 -0.134135 0)
(11.7146 -0.140012 0)
(9.99808 0.00169884 0)
(10.0333 -0.0321737 0)
(10.0906 -0.0182126 0)
(10.1968 -0.0275381 0)
(10.3138 -0.0198498 0)
(10.4669 -0.0479545 0)
(10.5917 -0.0248161 0)
(10.7348 -0.0263843 0)
(10.8508 -0.0126006 0)
(10.9727 -0.0276279 0)
(11.0633 -0.0130138 0)
(11.1121 -0.00984375 0)
(11.2144 -0.0158425 0)
(11.2218 -0.00458286 0)
(11.3022 -0.0189755 0)
(11.3054 0.00155629 0)
(11.3785 -0.0169267 0)
(11.3928 -0.0177055 0)
(11.4214 -0.00355897 0)
(11.4869 -0.0173876 0)
(11.4819 -0.00529768 0)
(11.5401 -0.0111827 0)
(11.57 -0.015275 0)
(11.5961 0.00201806 0)
(11.6255 -0.0236677 0)
(11.6768 -0.0120522 0)
(11.6733 -0.0109638 0)
(11.7326 -0.0187477 0)
(11.7363 -0.0273731 0)
(11.7822 -0.0118673 0)
(11.7926 -0.0475044 0)
(11.8384 -0.0298514 0)
(11.8432 -0.0541729 0)
(11.8895 -0.0648843 0)
(11.8982 -0.101742 0)
(11.9331 -0.0965307 0)
(11.9389 -0.163113 0)
(11.9638 -0.189297 0)
(11.9115 -0.218252 0)
(11.7456 -0.1094 0)
(9.99771 0.0252398 0)
(10.042 -0.129092 0)
(10.0959 -0.0237283 0)
(10.21 -0.150292 0)
(10.3407 -0.0438542 0)
(10.4799 -0.173105 0)
(10.6051 -0.0337445 0)
(10.7528 -0.144662 0)
(10.8776 -0.0150394 0)
(11.0039 -0.127538 0)
(11.0594 0.0103514 0)
(11.1614 -0.110152 0)
(11.1978 0.023457 0)
(11.2742 -0.11011 0)
(11.2837 0.031928 0)
(11.355 -0.108292 0)
(11.3889 0.0275623 0)
(11.3993 -0.101843 0)
(11.4649 0.0233426 0)
(11.4741 -0.089462 0)
(11.5257 0.0265159 0)
(11.5468 -0.100094 0)
(11.5907 0.0411286 0)
(11.6159 -0.106202 0)
(11.6564 0.0337292 0)
(11.6664 -0.0999831 0)
(11.7227 0.0272437 0)
(11.7234 -0.106695 0)
(11.7684 0.0323332 0)
(11.7932 -0.124039 0)
(11.8198 0.0143001 0)
(11.8314 -0.124117 0)
(11.8833 -0.00831992 0)
(11.8787 -0.165387 0)
(11.9141 -0.0354946 0)
(11.9204 -0.20989 0)
(11.9609 -0.12431 0)
(11.9466 -0.325558 0)
(11.9646 -0.245171 0)
(11.8414 -0.405901 0)
(9.99702 -0.00958012 0)
(10.0593 -0.118655 0)
(10.1204 -0.100923 0)
(10.2449 -0.187961 0)
(10.3701 -0.14128 0)
(10.5129 -0.204162 0)
(10.6455 -0.119559 0)
(10.8027 -0.179091 0)
(10.929 -0.0844871 0)
(11.027 -0.135076 0)
(11.1178 -0.0470683 0)
(11.182 -0.11094 0)
(11.257 -0.029459 0)
(11.2879 -0.0970566 0)
(11.3381 -0.0216462 0)
(11.3896 -0.0989936 0)
(11.4061 -0.00263987 0)
(11.462 -0.104487 0)
(11.4722 0.00631454 0)
(11.5318 -0.0925818 0)
(11.5486 0.00167004 0)
(11.5903 -0.0854824 0)
(11.6203 0.00285215 0)
(11.6614 -0.0878022 0)
(11.6698 0.0100043 0)
(11.7261 -0.0946182 0)
(11.7353 0.00999385 0)
(11.7659 -0.0943786 0)
(11.8039 0.00296549 0)
(11.8277 -0.105151 0)
(11.8393 -0.00201762 0)
(11.88 -0.122726 0)
(11.8975 -0.0137783 0)
(11.9114 -0.150122 0)
(11.9308 -0.0512308 0)
(11.9459 -0.197479 0)
(11.9581 -0.120742 0)
(11.94 -0.313419 0)
(11.9415 -0.245698 0)
(12.0012 -0.413992 0)
(9.99558 -0.0471516 0)
(10.0572 -0.0993053 0)
(10.1355 -0.192767 0)
(10.2573 -0.21509 0)
(10.3865 -0.258144 0)
(10.5427 -0.223257 0)
(10.6997 -0.236242 0)
(10.8476 -0.182728 0)
(10.957 -0.18139 0)
(11.0718 -0.123293 0)
(11.1513 -0.137282 0)
(11.2318 -0.094759 0)
(11.2785 -0.107048 0)
(11.3353 -0.0755144 0)
(11.3738 -0.101945 0)
(11.409 -0.0616091 0)
(11.4538 -0.0923336 0)
(11.4824 -0.0546247 0)
(11.5224 -0.0864669 0)
(11.5561 -0.0456314 0)
(11.5898 -0.08218 0)
(11.6234 -0.0473045 0)
(11.6555 -0.0734196 0)
(11.6855 -0.0489896 0)
(11.7167 -0.075604 0)
(11.7505 -0.0434936 0)
(11.7728 -0.0814914 0)
(11.8041 -0.0477732 0)
(11.8337 -0.0831286 0)
(11.8568 -0.0530488 0)
(11.8785 -0.100312 0)
(11.9044 -0.0572547 0)
(11.9244 -0.113007 0)
(11.9456 -0.0900237 0)
(11.9498 -0.13893 0)
(11.9645 -0.123265 0)
(11.9712 -0.20447 0)
(11.9666 -0.189722 0)
(11.9759 -0.236799 0)
(12.1424 -0.120101 0)
(9.97641 -0.0476305 0)
(10.0792 -0.16857 0)
(10.1306 -0.244094 0)
(10.2981 -0.314213 0)
(10.4157 -0.320866 0)
(10.6154 -0.323129 0)
(10.754 -0.282388 0)
(10.9155 -0.254516 0)
(11.016 -0.207181 0)
(11.1435 -0.185291 0)
(11.2139 -0.155646 0)
(11.2897 -0.140604 0)
(11.3348 -0.121102 0)
(11.3976 -0.119918 0)
(11.4218 -0.104263 0)
(11.4759 -0.105199 0)
(11.501 -0.0923257 0)
(11.5488 -0.0991565 0)
(11.5712 -0.0794062 0)
(11.6171 -0.0869748 0)
(11.6425 -0.0811187 0)
(11.6797 -0.0746459 0)
(11.7084 -0.0760502 0)
(11.7451 -0.0802107 0)
(11.7654 -0.0685923 0)
(11.8052 -0.0785809 0)
(11.8264 -0.07362 0)
(11.8536 -0.0784923 0)
(11.88 -0.0738725 0)
(11.9071 -0.0878589 0)
(11.9235 -0.082151 0)
(11.9467 -0.0940448 0)
(11.9687 -0.0986146 0)
(11.9787 -0.113984 0)
(11.9862 -0.112945 0)
(11.9958 -0.139321 0)
(11.9968 -0.140077 0)
(11.9913 -0.149021 0)
(12.0218 -0.146448 0)
(12.1808 -0.135337 0)
(9.936 -0.087284 0)
(10.1275 -0.201686 0)
(10.1102 -0.339894 0)
(10.3841 -0.379512 0)
(10.4476 -0.42275 0)
(10.7358 -0.373943 0)
(10.7979 -0.359017 0)
(11.0436 -0.287854 0)
(11.0716 -0.2646 0)
(11.2679 -0.204041 0)
(11.2538 -0.198459 0)
(11.403 -0.153135 0)
(11.3713 -0.159775 0)
(11.4968 -0.129542 0)
(11.4537 -0.141267 0)
(11.5689 -0.107986 0)
(11.5247 -0.129941 0)
(11.6288 -0.0968372 0)
(11.585 -0.113234 0)
(11.6878 -0.0895715 0)
(11.6437 -0.107677 0)
(11.7369 -0.0798771 0)
(11.7 -0.102109 0)
(11.7831 -0.0798377 0)
(11.7414 -0.0977757 0)
(11.8239 -0.074163 0)
(11.7828 -0.10251 0)
(11.8503 -0.0755109 0)
(11.8199 -0.100432 0)
(11.8755 -0.0827936 0)
(11.8408 -0.110618 0)
(11.8911 -0.0875706 0)
(11.8568 -0.118601 0)
(11.883 -0.107788 0)
(11.8566 -0.123977 0)
(11.862 -0.111436 0)
(11.829 -0.122507 0)
(11.832 -0.0960467 0)
(11.8328 -0.0972609 0)
(11.9683 -0.109073 0)
(9.93316 -0.100044 0)
(10.1421 -0.277775 0)
(10.1406 -0.421717 0)
(10.4592 -0.489107 0)
(10.5232 -0.510743 0)
(10.8527 -0.467776 0)
(10.8793 -0.426408 0)
(11.1562 -0.356099 0)
(11.1143 -0.310245 0)
(11.3363 -0.251088 0)
(11.2401 -0.234945 0)
(11.4257 -0.190391 0)
(11.2972 -0.189365 0)
(11.4648 -0.159486 0)
(11.3164 -0.164474 0)
(11.4775 -0.132801 0)
(11.3204 -0.148425 0)
(11.4764 -0.116626 0)
(11.3149 -0.131831 0)
(11.469 -0.102649 0)
(11.2993 -0.126546 0)
(11.4515 -0.0870907 0)
(11.2777 -0.119002 0)
(11.4225 -0.083947 0)
(11.2477 -0.111852 0)
(11.3863 -0.0757788 0)
(11.2113 -0.115345 0)
(11.3379 -0.0713695 0)
(11.1678 -0.114411 0)
(11.2813 -0.0723545 0)
(11.1107 -0.122844 0)
(11.2103 -0.0698182 0)
(11.0459 -0.131911 0)
(11.1179 -0.0759708 0)
(10.9664 -0.134575 0)
(11.0123 -0.064416 0)
(10.8764 -0.122859 0)
(10.9056 -0.00553716 0)
(10.8186 -0.042352 0)
(10.9277 0.0699224 0)
(9.97605 -0.129402 0)
(10.1197 -0.356956 0)
(10.2324 -0.525122 0)
(10.492 -0.604795 0)
(10.6103 -0.61865 0)
(10.8089 -0.569041 0)
(10.8042 -0.500983 0)
(10.9079 -0.417462 0)
(10.7991 -0.345409 0)
(10.8495 -0.281364 0)
(10.6831 -0.242598 0)
(10.713 -0.200233 0)
(10.5195 -0.180818 0)
(10.5486 -0.157236 0)
(10.3395 -0.146265 0)
(10.3797 -0.125121 0)
(10.1624 -0.125339 0)
(10.2118 -0.104618 0)
(9.99363 -0.105173 0)
(10.0529 -0.0901134 0)
(9.82924 -0.0937616 0)
(9.90048 -0.0750174 0)
(9.67671 -0.0856877 0)
(9.75131 -0.0673042 0)
(9.52936 -0.0782063 0)
(9.61033 -0.0597858 0)
(9.38728 -0.0770422 0)
(9.46605 -0.0545182 0)
(9.25291 -0.075363 0)
(9.32237 -0.053238 0)
(9.11259 -0.0791132 0)
(9.17626 -0.0510851 0)
(8.97441 -0.0833347 0)
(9.01529 -0.0508982 0)
(8.83651 -0.0832094 0)
(8.85662 -0.0352394 0)
(8.71393 -0.0691139 0)
(8.73364 0.00864589 0)
(8.65605 -0.0202162 0)
(8.61613 0.0517854 0)
(9.99728 -0.171972 0)
(10.1216 -0.441129 0)
(10.1694 -0.608017 0)
(10.1324 -0.668659 0)
(9.94415 -0.654795 0)
(9.71074 -0.585619 0)
(9.38 -0.495374 0)
(9.09866 -0.395512 0)
(8.75559 -0.308295 0)
(8.51543 -0.232247 0)
(8.20687 -0.178494 0)
(8.02819 -0.132161 0)
(7.76374 -0.104841 0)
(7.63574 -0.0797917 0)
(7.40574 -0.0671249 0)
(7.32461 -0.0511926 0)
(7.11449 -0.0471724 0)
(7.07054 -0.036429 0)
(6.88091 -0.0359728 0)
(6.86076 -0.027701 0)
(6.68456 -0.0315588 0)
(6.68749 -0.0225734 0)
(6.51841 -0.0280132 0)
(6.53449 -0.0211792 0)
(6.37536 -0.0269797 0)
(6.39809 -0.0188373 0)
(6.24483 -0.0277145 0)
(6.26958 -0.0195068 0)
(6.12605 -0.0280136 0)
(6.14178 -0.0203316 0)
(6.01023 -0.0314525 0)
(6.01278 -0.0219089 0)
(5.89605 -0.0315552 0)
(5.87518 -0.0245531 0)
(5.78904 -0.0268227 0)
(5.7401 -0.0188971 0)
(5.69971 -0.0153646 0)
(5.6158 -0.0311384 0)
(5.62695 -0.0455625 0)
(5.46559 -0.142707 0)
(9.95646 -0.111184 0)
(9.19557 -0.384836 0)
(8.06192 -0.441139 0)
(6.91315 -0.364532 0)
(5.87394 -0.252251 0)
(5.00304 -0.144676 0)
(4.31931 -0.0623979 0)
(3.81802 -0.00981462 0)
(3.44327 0.0188065 0)
(3.19796 0.0322829 0)
(3.00563 0.03428 0)
(2.89603 0.0328815 0)
(2.79029 0.0274535 0)
(2.74128 0.0227779 0)
(2.6694 0.0172193 0)
(2.64614 0.0147919 0)
(2.58643 0.00995406 0)
(2.57595 0.00858131 0)
(2.51998 0.00545776 0)
(2.51711 0.00464306 0)
(2.46205 0.00184368 0)
(2.46341 0.00294136 0)
(2.4088 2.26968e-05 0)
(2.41269 0.00110966 0)
(2.35719 -0.000878678 0)
(2.36257 0.000570077 0)
(2.30707 -0.0021308 0)
(2.31076 -5.94272e-05 0)
(2.25586 -0.00247206 0)
(2.25639 -0.000702365 0)
(2.20262 -0.00345016 0)
(2.196 -0.00066506 0)
(2.14804 -0.00324291 0)
(2.1313 -0.000199827 0)
(2.09571 -0.00184999 0)
(2.06802 0.00177228 0)
(2.06063 -0.00558963 0)
(2.00877 0.00357413 0)
(2.03186 -0.0212338 0)
(1.85018 0.012415 0)
(2.24354 -0.131342 0)
(2.42046 -0.151143 0)
(2.66726 -0.141502 0)
(2.84915 -0.125947 0)
(2.99136 -0.112918 0)
(3.04775 -0.126005 0)
(3.05292 -0.166535 0)
(3.00424 -0.223606 0)
(2.93397 -0.294556 0)
(2.81518 -0.363572 0)
(2.7242 -0.405185 0)
(2.63801 -0.412338 0)
(2.57045 -0.37689 0)
(2.5011 -0.317902 0)
(2.47127 -0.241569 0)
(2.48207 -0.147137 0)
(2.52579 -0.0440754 0)
(2.63547 0.0533501 0)
(2.80195 0.153537 0)
(3.02003 0.250982 0)
(3.26037 0.340166 0)
(3.54515 0.43375 0)
(3.83014 0.520038 0)
(4.12731 0.566194 0)
(4.40899 0.604873 0)
(4.71316 0.636399 0)
(4.98445 0.643242 0)
(5.24423 0.643407 0)
(5.49398 0.660065 0)
(5.7494 0.666512 0)
(5.96377 0.649673 0)
(6.19139 0.625425 0)
(6.3974 0.612073 0)
(6.58055 0.568249 0)
(6.7703 0.515118 0)
(6.94598 0.503183 0)
(7.10731 0.481282 0)
(7.30517 0.453079 0)
(7.50357 0.443205 0)
(7.68501 0.402014 0)
(7.86649 0.346257 0)
(8.01818 0.284016 0)
(8.1291 0.18729 0)
(8.22325 0.0970917 0)
(8.27818 0.0166829 0)
(8.31458 -0.0769672 0)
(8.3515 -0.140057 0)
(8.42103 -0.213806 0)
(8.47377 -0.275708 0)
(8.57339 -0.354698 0)
(8.66655 -0.44472 0)
(8.79665 -0.569189 0)
(8.92281 -0.710166 0)
(9.08294 -0.898866 0)
(9.1916 -1.06702 0)
(9.34937 -1.28569 0)
(9.45508 -1.48787 0)
(9.5729 -1.68197 0)
(9.69412 -1.87012 0)
(9.8333 -2.05152 0)
(9.95176 -2.1898 0)
(10.1488 -2.35811 0)
(10.3305 -2.50187 0)
(10.5554 -2.63957 0)
(10.7867 -2.80461 0)
(11.0187 -2.96395 0)
(11.2316 -3.13049 0)
(11.4262 -3.31043 0)
(11.581 -3.46053 0)
(11.7257 -3.61201 0)
(11.846 -3.73072 0)
(11.9056 -3.79064 0)
(11.9689 -3.84205 0)
(11.9768 -3.83469 0)
(11.9563 -3.79519 0)
(11.8754 -3.73394 0)
(11.7997 -3.63831 0)
(11.6745 -3.49416 0)
(11.561 -3.3365 0)
(11.4464 -3.10588 0)
(11.3303 -2.87794 0)
(11.2018 -2.62358 0)
(11.1017 -2.36567 0)
(11.0077 -2.12593 0)
(10.9453 -1.91168 0)
(10.897 -1.67712 0)
(10.8956 -1.49107 0)
(10.9157 -1.27402 0)
(10.9586 -1.07154 0)
(11.0163 -0.885473 0)
(11.1041 -0.704039 0)
(11.1907 -0.557162 0)
(11.2748 -0.445393 0)
(11.3655 -0.353213 0)
(11.5 -0.290812 0)
(11.6261 -0.237949 0)
(11.7477 -0.208336 0)
(11.8896 -0.197952 0)
(12.012 -0.199077 0)
(12.1586 -0.221577 0)
(12.2947 -0.274642 0)
(12.4227 -0.315168 0)
(12.556 -0.401525 0)
(12.6948 -0.481504 0)
(12.8099 -0.567267 0)
(12.9576 -0.686861 0)
(13.0649 -0.785004 0)
(13.184 -0.907396 0)
(13.3173 -1.02548 0)
(13.4203 -1.13449 0)
(13.554 -1.25475 0)
(13.661 -1.36267 0)
(13.7598 -1.46073 0)
(13.8846 -1.57302 0)
(13.9747 -1.64153 0)
(14.089 -1.73916 0)
(14.1951 -1.79818 0)
(14.2883 -1.85746 0)
(14.4025 -1.91497 0)
(14.493 -1.94667 0)
(14.5924 -1.96436 0)
(14.6891 -1.99649 0)
(14.7591 -1.97169 0)
(14.8507 -1.98467 0)
(14.9119 -1.94563 0)
(14.9769 -1.92725 0)
(15.0306 -1.88417 0)
(15.0442 -1.8347 0)
(15.0598 -1.78752 0)
(15.0752 -1.73017 0)
(15.0437 -1.65316 0)
(15.024 -1.60238 0)
(14.954 -1.50761 0)
(14.8897 -1.4418 0)
(14.7894 -1.35316 0)
(14.6843 -1.25848 0)
(14.5747 -1.18256 0)
(14.4242 -1.08088 0)
(14.2676 -0.989396 0)
(14.1154 -0.907058 0)
(13.9091 -0.797478 0)
(13.7466 -0.728461 0)
(13.5357 -0.637809 0)
(13.3111 -0.558032 0)
(13.1083 -0.509997 0)
(12.869 -0.43468 0)
(12.637 -0.422514 0)
(12.4224 -0.388584 0)
(12.1494 -0.368367 0)
(11.9302 -0.395938 0)
(11.68 -0.378415 0)
(11.4148 -0.397668 0)
(11.1945 -0.458479 0)
(10.9184 -0.442994 0)
(10.6487 -0.503475 0)
(10.3828 -0.529262 0)
(10.0778 -0.53558 0)
(9.79906 -0.622699 0)
(9.51708 -0.655773 0)
(9.17573 -0.632658 0)
(8.88156 -0.716083 0)
(8.55993 -0.665389 0)
(8.24459 -0.602262 0)
(7.94575 -0.643926 0)
(7.66827 -0.585422 0)
(7.37897 -0.425564 0)
(7.21238 -0.475581 0)
(7.02114 -0.440732 0)
(6.83267 -0.276526 0)
(6.72205 -0.279574 0)
(6.68765 -0.407556 0)
(6.5544 -0.287258 0)
(6.49933 -0.225375 0)
(6.50572 -0.391557 0)
(6.48772 -0.521927 0)
(6.37134 -0.42553 0)
(6.34828 -0.44159 0)
(6.33736 -0.594951 0)
(6.28343 -0.714964 0)
(6.12719 -0.603479 0)
(6.03022 -0.459874 0)
(5.93767 -0.340381 0)
(5.87711 -0.364926 0)
(5.76814 -0.344387 0)
(5.70403 -0.277044 0)
(5.60138 -0.00319665 0)
(5.53787 0.325008 0)
(5.42062 0.625811 0)
(5.37748 0.68256 0)
(5.30684 0.440976 0)
(5.33805 -0.13149 0)
(5.36097 -1.00301 0)
(5.49479 -2.12752 0)
(5.61245 -3.39209 0)
(5.83009 -4.75228 0)
(5.99776 -6.00737 0)
(6.26795 -7.16811 0)
(6.46258 -8.00172 0)
(6.76592 -8.62516 0)
(6.98158 -8.95846 0)
(7.24876 -9.10048 0)
(7.49391 -9.12165 0)
(7.72977 -8.98899 0)
(8.0121 -8.85085 0)
(8.22692 -8.53931 0)
(8.5187 -8.26126 0)
(8.74479 -7.83502 0)
(9.00554 -7.42112 0)
(9.28553 -6.91994 0)
(9.50043 -6.37192 0)
(9.7754 -5.78098 0)
(9.94911 -5.12217 0)
(10.2514 -4.4642 0)
(10.3535 -3.7084 0)
(10.6031 -2.99783 0)
(10.6698 -2.20239 0)
(10.9225 -1.46117 0)
(10.9721 -0.623358 0)
(11.172 0.109251 0)
(11.1433 0.919555 0)
(11.2896 1.63283 0)
(11.2414 2.40204 0)
(11.356 3.09073 0)
(11.2647 3.78515 0)
(11.2948 4.40877 0)
(11.2123 5.01383 0)
(11.187 5.56047 0)
(11.0824 6.02457 0)
(10.963 6.50296 0)
(10.9147 6.83741 0)
(10.7316 7.21103 0)
(10.6884 7.43465 0)
(10.4939 7.7148 0)
(10.4213 7.82564 0)
(10.2255 7.95421 0)
(10.1115 8.01283 0)
(9.95591 7.99562 0)
(9.72511 7.97203 0)
(9.60812 7.80293 0)
(9.34576 7.73686 0)
(9.27822 7.51565 0)
(9.13721 7.4564 0)
(9.12088 7.31339 0)
(9.14467 7.28551 0)
(9.16346 7.27623 0)
(9.34206 7.23595 0)
(9.31679 7.23669 0)
(9.50029 7.06722 0)
(9.46018 7.05229 0)
(9.64903 6.84468 0)
(9.65452 6.77088 0)
(9.73759 6.52687 0)
(9.76621 6.36074 0)
(9.73695 6.09494 0)
(9.77933 5.78007 0)
(9.60079 5.48846 0)
(9.61701 5.06111 0)
(9.35494 4.76183 0)
(9.35031 4.27211 0)
(9.08665 4.01331 0)
(9.07883 3.52788 0)
(8.88311 3.30978 0)
(8.87527 2.87335 0)
(8.75937 2.67671 0)
(8.74338 2.27038 0)
(8.68998 2.06271 0)
(8.63943 1.69108 0)
(8.62468 1.45504 0)
(8.52298 1.09327 0)
(8.51787 0.827352 0)
(8.37803 0.503489 0)
(8.37114 0.242789 0)
(8.17763 -0.0517293 0)
(8.14931 -0.314245 0)
(7.9075 -0.565492 0)
(7.86226 -0.771133 0)
(7.60678 -0.955548 0)
(7.57286 -1.12005 0)
(7.3333 -1.27123 0)
(7.33276 -1.38679 0)
(7.13679 -1.51947 0)
(7.1807 -1.63295 0)
(7.04901 -1.79253 0)
(7.13907 -1.8909 0)
(7.05409 -2.08974 0)
(7.13099 -2.24222 0)
(7.06608 -2.54139 0)
(7.13947 -2.65432 0)
(7.14762 -2.89553 0)
(7.18113 -2.93145 0)
(7.17108 -3.26432 0)
(7.08235 -3.31455 0)
(7.09645 -3.61151 0)
(6.93488 -3.46766 0)
(6.97168 -3.67298 0)
(6.70379 -3.44598 0)
(6.78512 -3.64241 0)
(6.4639 -3.3752 0)
(6.57435 -3.59175 0)
(6.16858 -3.33895 0)
(6.30436 -3.51541 0)
(5.89768 -3.16416 0)
(6.10022 -3.20391 0)
(5.71335 -2.793 0)
(5.94489 -2.77635 0)
(5.57015 -2.39529 0)
(5.80181 -2.39018 0)
(5.42308 -2.11015 0)
(5.62208 -2.1748 0)
(5.2359 -2.01543 0)
(5.40952 -2.11353 0)
(5.04842 -1.99928 0)
(5.22335 -2.03122 0)
(4.9246 -1.88375 0)
(5.10819 -1.81521 0)
(4.86011 -1.65195 0)
(5.02265 -1.54439 0)
(4.78805 -1.414 0)
(4.9106 -1.29519 0)
(4.68668 -1.17729 0)
(4.78889 -1.02636 0)
(4.57923 -0.897774 0)
(4.67229 -0.73536 0)
(4.46472 -0.610035 0)
(4.55258 -0.474427 0)
(4.33434 -0.355042 0)
(4.435 -0.264114 0)
(4.21391 -0.132903 0)
(4.35368 -0.0893971 0)
(4.13911 0.0724491 0)
(4.33839 0.0597846 0)
(4.12983 0.265064 0)
(4.39809 0.190383 0)
(4.18472 0.44814 0)
(4.5214 0.301893 0)
(4.28703 0.616889 0)
(4.68787 0.393899 0)
(4.41688 0.772294 0)
(4.87789 0.475134 0)
(4.56402 0.920333 0)
(5.08385 0.552494 0)
(4.73241 1.05875 0)
(5.30878 0.624775 0)
(4.93252 1.18009 0)
(5.55364 0.690181 0)
(5.16241 1.2827 0)
(5.79721 0.759061 0)
(5.38966 1.38347 0)
(5.98933 0.853555 0)
(5.56352 1.49215 0)
(6.08245 0.96468 0)
(5.6555 1.57523 0)
(6.067 1.05558 0)
(5.67888 1.60005 0)
(5.97844 1.11727 0)
(5.68404 1.56975 0)
(5.88331 1.16374 0)
(5.73059 1.50592 0)
(5.83283 1.22117 0)
(5.83895 1.44468 0)
(5.82745 1.32449 0)
(5.99085 1.41827 0)
(5.84981 1.49181 0)
(6.16936 1.43258 0)
(5.89831 1.71073 0)
(6.36642 1.47408 0)
(5.98002 1.94933 0)
(6.56626 1.52471 0)
(6.09202 2.17386 0)
(6.73597 1.57408 0)
(6.21619 2.3606 0)
(6.83393 1.62712 0)
(6.33259 2.49494 0)
(6.83317 1.69497 0)
(6.43048 2.56701 0)
(6.736 1.7948 0)
(6.51759 2.57618 0)
(6.57541 1.94967 0)
(6.6146 2.5366 0)
(6.4097 2.18158 0)
(6.73807 2.47231 0)
(6.28902 2.49442 0)
(6.87149 2.40761 0)
(6.23363 2.86982 0)
(6.95966 2.37753 0)
(6.24948 3.27117 0)
(6.93447 2.43716 0)
(6.33814 3.6593 0)
(6.73788 2.67884 0)
(6.48565 3.99116 0)
(6.37774 3.21282 0)
(6.66778 4.2295 0)
(5.94988 4.12194 0)
(6.76278 4.39314 0)
(5.65204 5.40115 0)
(6.47744 4.74141 0)
(5.89783 6.89559 0)
(5.49254 6.30894 0)
(7.00618 8.04211 0)
(5.40149 10.9809 0)
(5.84414 -0.270455 0)
(5.93769 -0.378154 0)
(6.0814 -0.440857 0)
(6.20587 -0.465144 0)
(6.28462 -0.465327 0)
(6.32029 -0.460473 0)
(6.32491 -0.449511 0)
(6.30811 -0.436278 0)
(6.30865 -0.423899 0)
(6.27274 -0.39063 0)
(6.27292 -0.342728 0)
(6.26683 -0.286064 0)
(6.2554 -0.221515 0)
(6.25687 -0.138771 0)
(6.24471 -0.0571103 0)
(6.21408 0.0282291 0)
(6.22842 0.099588 0)
(6.21174 0.159453 0)
(6.20666 0.218893 0)
(6.22258 0.278207 0)
(6.24958 0.309875 0)
(6.24334 0.353558 0)
(6.29951 0.390844 0)
(6.34947 0.415348 0)
(6.40518 0.420114 0)
(6.45146 0.433761 0)
(6.52864 0.418499 0)
(6.58743 0.395077 0)
(6.65843 0.384971 0)
(6.73611 0.363012 0)
(6.83921 0.323635 0)
(6.92296 0.311403 0)
(7.0479 0.277173 0)
(7.14738 0.253812 0)
(7.26492 0.22071 0)
(7.37761 0.190676 0)
(7.50652 0.163506 0)
(7.62306 0.147787 0)
(7.79413 0.108589 0)
(7.92713 0.0810179 0)
(8.08767 0.0252179 0)
(8.22949 -0.0204704 0)
(8.38515 -0.107344 0)
(8.49979 -0.163471 0)
(8.65719 -0.240119 0)
(8.77463 -0.327722 0)
(8.91562 -0.390547 0)
(9.05321 -0.466616 0)
(9.20799 -0.567395 0)
(9.3579 -0.643201 0)
(9.55598 -0.775236 0)
(9.73256 -0.898324 0)
(9.92562 -1.03451 0)
(10.134 -1.21313 0)
(10.3247 -1.38129 0)
(10.5167 -1.57854 0)
(10.7169 -1.77514 0)
(10.8917 -1.95697 0)
(11.0883 -2.15064 0)
(11.2994 -2.33874 0)
(11.4843 -2.4973 0)
(11.7018 -2.67582 0)
(11.909 -2.84108 0)
(12.123 -2.99799 0)
(12.3044 -3.16476 0)
(12.4667 -3.31657 0)
(12.6016 -3.46397 0)
(12.7103 -3.59698 0)
(12.7588 -3.67879 0)
(12.8006 -3.7649 0)
(12.7932 -3.78653 0)
(12.737 -3.78333 0)
(12.6441 -3.75464 0)
(12.5134 -3.69117 0)
(12.3459 -3.60867 0)
(12.1557 -3.52066 0)
(11.9709 -3.36852 0)
(11.7927 -3.22892 0)
(11.6194 -3.02315 0)
(11.4639 -2.79358 0)
(11.324 -2.5632 0)
(11.1764 -2.30824 0)
(11.0748 -2.06449 0)
(10.9739 -1.85574 0)
(10.8938 -1.6613 0)
(10.8382 -1.48339 0)
(10.8039 -1.34317 0)
(10.7764 -1.17346 0)
(10.7994 -1.03697 0)
(10.8026 -0.887436 0)
(10.854 -0.753434 0)
(10.9183 -0.645658 0)
(10.9795 -0.557167 0)
(11.0622 -0.481274 0)
(11.1815 -0.445797 0)
(11.2615 -0.408377 0)
(11.3795 -0.408128 0)
(11.4899 -0.394951 0)
(11.5851 -0.415684 0)
(11.7096 -0.430592 0)
(11.8278 -0.48035 0)
(11.9342 -0.52404 0)
(12.0571 -0.608804 0)
(12.1805 -0.682834 0)
(12.2897 -0.789001 0)
(12.4183 -0.891998 0)
(12.5255 -1.01312 0)
(12.6416 -1.12513 0)
(12.7691 -1.25247 0)
(12.8861 -1.35348 0)
(13.017 -1.48321 0)
(13.1274 -1.57603 0)
(13.2482 -1.69501 0)
(13.3721 -1.78153 0)
(13.4929 -1.87183 0)
(13.6191 -1.95551 0)
(13.7496 -2.02051 0)
(13.8629 -2.08396 0)
(14.006 -2.14059 0)
(14.1254 -2.15786 0)
(14.2612 -2.19477 0)
(14.3659 -2.192 0)
(14.4934 -2.17842 0)
(14.6017 -2.16808 0)
(14.6953 -2.10513 0)
(14.7894 -2.06874 0)
(14.8643 -1.98888 0)
(14.9084 -1.91085 0)
(14.9615 -1.8264 0)
(14.9816 -1.7199 0)
(14.9993 -1.61577 0)
(14.9882 -1.51498 0)
(14.9552 -1.37927 0)
(14.9084 -1.29358 0)
(14.8318 -1.14471 0)
(14.7533 -1.03883 0)
(14.6391 -0.91825 0)
(14.5034 -0.790314 0)
(14.3724 -0.686149 0)
(14.1934 -0.571913 0)
(14.0178 -0.448518 0)
(13.8532 -0.370911 0)
(13.6146 -0.239709 0)
(13.4183 -0.183101 0)
(13.1907 -0.0882785 0)
(12.9436 -0.0188516 0)
(12.706 0.0050213 0)
(12.4559 0.0574363 0)