/*--------------------------------*- C++ -*----------------------------------*\
| =========                 |                                                 |
| \\      /  F ield         | OpenFOAM: The Open Source CFD Toolbox           |
|  \\    /   O peration     | Version:  2.4.0                                 |
|   \\  /    A nd           | Web:      www.OpenFOAM.org                      |
|    \\/     M anipulation  |                                                 |
\*---------------------------------------------------------------------------*/
FoamFile
{
    version     2.0;
    format      ascii;
    class       volVectorField;
    location    "0.105";
    object      U_0;
}
// * * * * * * * * * * * * * * * * * * * * * * * * * * * * * * * * * * * * * //

dimensions      [0 1 -1 0 0 0 0];

internalField   nonuniform List<vector> 
17600
(
(9.95601 0.110898 0)
(9.19701 0.385118 0)
(8.06363 0.441286 0)
(6.91121 0.364965 0)
(5.87513 0.251542 0)
(5.00007 0.144825 0)
(4.32318 0.0620595 0)
(3.81501 0.0100559 0)
(3.45118 -0.018895 0)
(3.19192 -0.0315497 0)
(3.01645 -0.0351252 0)
(2.88763 -0.0321286 0)
(2.8036 -0.0281149 0)
(2.73203 -0.0224744 0)
(2.68521 -0.0176662 0)
(2.63615 -0.0142278 0)
(2.60447 -0.0108824 0)
(2.56572 -0.00795653 0)
(2.5409 -0.00629344 0)
(2.50832 -0.0045959 0)
(2.48797 -0.0030295 0)
(2.45779 -0.00219075 0)
(2.44248 -0.00238159 0)
(2.41346 -0.000312651 0)
(2.40207 -0.00110184 0)
(2.3741 -0.000998776 0)
(2.36736 0.000240459 0)
(2.33912 -0.000161944 0)
(2.3372 -0.00114362 0)
(2.31046 0.000977779 0)
(2.3123 -0.00123542 0)
(2.28562 0.000580708 0)
(2.29333 -0.00160845 0)
(2.2638 0.00254217 0)
(2.27643 -0.00184107 0)
(2.23518 0.00339903 0)
(2.26587 0.00227474 0)
(2.16116 0.00100174 0)
(2.25288 0.0398208 0)
(2.01152 -0.0208908 0)
(10.0024 0.170552 0)
(10.1159 0.442362 0)
(10.1789 0.60746 0)
(10.1214 0.67053 0)
(9.95617 0.653123 0)
(9.69465 0.586596 0)
(9.39795 0.493137 0)
(9.07882 0.396104 0)
(8.78084 0.306865 0)
(8.48812 0.233906 0)
(8.24173 0.176017 0)
(7.99355 0.13467 0)
(7.80497 0.10229 0)
(7.59911 0.0809412 0)
(7.45154 0.0655277 0)
(7.28389 0.0523529 0)
(7.16804 0.0449266 0)
(7.0264 0.0373105 0)
(6.9386 0.0338722 0)
(6.8193 0.0272736 0)
(6.74879 0.0274835 0)
(6.64628 0.0236329 0)
(6.59802 0.0201189 0)
(6.49615 0.0209897 0)
(6.47133 0.019145 0)
(6.37508 0.0139659 0)
(6.35795 0.018446 0)
(6.27152 0.0131878 0)
(6.26686 0.0120008 0)
(6.17709 0.012607 0)
(6.19263 0.0114861 0)
(6.09513 0.00720373 0)
(6.13402 0.0119592 0)
(6.01658 0.0059439 0)
(6.09216 0.0134675 0)
(5.93416 0.00678523 0)
(6.05143 0.0218327 0)
(5.84717 0.0198987 0)
(5.9927 -0.0124719 0)
(5.77741 -0.0461739 0)
(10.0018 0.128193 0)
(10.0926 0.357599 0)
(10.2648 0.524982 0)
(10.4568 0.607432 0)
(10.6476 0.615618 0)
(10.7661 0.571525 0)
(10.8516 0.497706 0)
(10.8559 0.419177 0)
(10.8582 0.343479 0)
(10.7861 0.28455 0)
(10.7531 0.236292 0)
(10.6402 0.206045 0)
(10.5977 0.175154 0)
(10.4721 0.159114 0)
(10.4237 0.143842 0)
(10.3002 0.127747 0)
(10.2503 0.11876 0)
(10.1337 0.110203 0)
(10.0802 0.0969843 0)
(9.97915 0.0933919 0)
(9.92235 0.0840013 0)
(9.82349 0.0800548 0)
(9.78668 0.0684559 0)
(9.67501 0.0728218 0)
(9.6519 0.0587519 0)
(9.55044 0.0587943 0)
(9.52198 0.054184 0)
(9.42919 0.0521575 0)
(9.41484 0.0394025 0)
(9.31174 0.049982 0)
(9.31903 0.0321964 0)
(9.20562 0.039973 0)
(9.23813 0.0263651 0)
(9.10495 0.0419413 0)
(9.16771 0.0147259 0)
(9.01641 0.0461744 0)
(9.09472 0.00766269 0)
(8.91596 0.0693936 0)
(8.9818 0.0127284 0)
(8.76145 0.0711921 0)
(10.0089 0.0941039 0)
(10.064 0.283746 0)
(10.2212 0.415178 0)
(10.377 0.495817 0)
(10.6027 0.500473 0)
(10.7673 0.475283 0)
(10.9654 0.419556 0)
(11.0662 0.361266 0)
(11.2065 0.306316 0)
(11.2413 0.258054 0)
(11.3372 0.225278 0)
(11.3275 0.200999 0)
(11.3943 0.177988 0)
(11.37 0.167249 0)
(11.4103 0.154877 0)
(11.3913 0.142528 0)
(11.4073 0.13498 0)
(11.3993 0.126456 0)
(11.3968 0.12198 0)
(11.394 0.103548 0)
(11.3861 0.116414 0)
(11.3738 0.0914393 0)
(11.374 0.0970345 0)
(11.3503 0.0892536 0)
(11.3474 0.0904391 0)
(11.331 0.0664386 0)
(11.3141 0.096401 0)
(11.301 0.0547617 0)
(11.2883 0.0811759 0)
(11.2635 0.0528572 0)
(11.2634 0.0772649 0)
(11.2254 0.0339581 0)
(11.2382 0.0772091 0)
(11.1909 0.0308398 0)
(11.2074 0.0699054 0)
(11.1553 0.0241162 0)
(11.1838 0.0661531 0)
(11.1299 -0.0413002 0)
(11.1525 -0.0500037 0)
(10.9926 -0.26273 0)
(9.99611 0.0887914 0)
(10.0713 0.204544 0)
(10.1655 0.339441 0)
(10.3349 0.379095 0)
(10.4915 0.415972 0)
(10.6903 0.375261 0)
(10.8456 0.353821 0)
(10.9988 0.295738 0)
(11.1218 0.256261 0)
(11.2104 0.21535 0)
(11.3169 0.182205 0)
(11.3402 0.170994 0)
(11.4366 0.141419 0)
(11.4403 0.143544 0)
(11.5066 0.127401 0)
(11.5295 0.120646 0)
(11.5599 0.11394 0)
(11.6038 0.109714 0)
(11.62 0.0995505 0)
(11.6581 0.095875 0)
(11.6858 0.0919402 0)
(11.7045 0.0871348 0)
(11.743 0.0758738 0)
(11.7586 0.0852886 0)
(11.784 0.0709807 0)
(11.8112 0.0680097 0)
(11.8295 0.0733643 0)
(11.8455 0.0631707 0)
(11.8745 0.0554888 0)
(11.8866 0.0631802 0)
(11.9079 0.0514897 0)
(11.9274 0.0490834 0)
(11.9476 0.0437232 0)
(11.9648 0.0527821 0)
(11.9824 0.0327813 0)
(11.9966 0.0458485 0)
(11.9879 0.0290038 0)
(11.967 0.0350587 0)
(11.9146 -0.0155117 0)
(11.9351 -0.0590189 0)
(9.99984 0.0317824 0)
(10.0543 0.204793 0)
(10.139 0.219243 0)
(10.2848 0.34196 0)
(10.4166 0.288342 0)
(10.6189 0.346857 0)
(10.7353 0.252549 0)
(10.9401 0.280801 0)
(10.9875 0.185201 0)
(11.1697 0.203678 0)
(11.1876 0.128151 0)
(11.3039 0.165578 0)
(11.3356 0.086043 0)
(11.3822 0.156587 0)
(11.4505 0.0604906 0)
(11.446 0.148659 0)
(11.5306 0.0502686 0)
(11.5282 0.129423 0)
(11.5827 0.0528473 0)
(11.6196 0.106927 0)
(11.6402 0.0487143 0)
(11.6802 0.105737 0)
(11.7276 0.0217219 0)
(11.7278 0.116501 0)
(11.7901 0.0129201 0)
(11.8076 0.0942802 0)
(11.8331 0.0283631 0)
(11.874 0.0821559 0)
(11.8944 0.00748191 0)
(11.9244 0.092758 0)
(11.9568 -0.00475727 0)
(11.9827 0.0741768 0)
(12.0106 -0.00465661 0)
(12.0457 0.0696837 0)
(12.0699 -0.0231915 0)
(12.0991 0.0699379 0)
(12.1249 -0.0213621 0)
(12.15 0.100385 0)
(12.1244 0.0265704 0)
(11.987 0.144213 0)
(9.99386 0.0497812 0)
(10.0448 0.120638 0)
(10.1257 0.190296 0)
(10.2308 0.224914 0)
(10.3954 0.249548 0)
(10.5131 0.235485 0)
(10.723 0.223209 0)
(10.8053 0.197316 0)
(10.9807 0.167167 0)
(11.0421 0.138517 0)
(11.1554 0.121564 0)
(11.2315 0.0991325 0)
(11.2492 0.100886 0)
(11.3689 0.0766869 0)
(11.3248 0.0936758 0)
(11.4466 0.0676834 0)
(11.4207 0.0811115 0)
(11.4893 0.0644455 0)
(11.5176 0.0661662 0)
(11.5525 0.0597502 0)
(11.5772 0.0617625 0)
(11.6347 0.0443613 0)
(11.6381 0.0603108 0)
(11.6952 0.0416187 0)
(11.7144 0.046769 0)
(11.7423 0.0393552 0)
(11.7912 0.0459445 0)
(11.8012 0.0271277 0)
(11.8346 0.042603 0)
(11.8811 0.0179905 0)
(11.8904 0.0338498 0)
(11.9207 0.00946145 0)
(11.9696 0.0223774 0)
(11.9806 -0.00388639 0)
(12.0155 0.0207807 0)
(12.0497 -0.0215571 0)
(12.0792 0.00643149 0)
(12.0617 -0.0444583 0)
(12.0224 -0.061321 0)
(11.7859 -0.226371 0)
(9.99692 0.0208636 0)
(10.0417 0.0977062 0)
(10.1058 0.117534 0)
(10.2262 0.171718 0)
(10.3342 0.164721 0)
(10.5081 0.178283 0)
(10.6344 0.151012 0)
(10.7982 0.153505 0)
(10.9004 0.113062 0)
(11.0024 0.111821 0)
(11.1266 0.0711133 0)
(11.1393 0.0915133 0)
(11.277 0.0468839 0)
(11.2436 0.0817696 0)
(11.3602 0.039807 0)
(11.3491 0.0694133 0)
(11.3975 0.0466438 0)
(11.4619 0.0450423 0)
(11.4415 0.0493084 0)
(11.5406 0.0432447 0)
(11.5245 0.0314969 0)
(11.5773 0.0497479 0)
(11.6158 0.018923 0)
(11.6452 0.0463267 0)
(11.6506 0.0199615 0)
(11.7383 0.0296348 0)
(11.7101 0.0223102 0)
(11.773 0.031324 0)
(11.796 -0.000269162 0)
(11.8289 0.0289661 0)
(11.8348 -9.80086e-05 0)
(11.9014 0.00655354 0)
(11.9013 -0.0150131 0)
(11.9402 0.00432887 0)
(11.9688 -0.0388451 0)
(12.0125 -0.0270521 0)
(11.9997 -0.0529009 0)
(12.0284 -0.0490059 0)
(11.9665 -0.0971138 0)
(11.7355 -0.105529 0)
(9.99635 0.0199416 0)
(10.0333 0.0482299 0)
(10.1008 0.0732832 0)
(10.2018 0.0980777 0)
(10.3214 0.103825 0)
(10.4676 0.0995167 0)
(10.6127 0.0948273 0)
(10.7624 0.0904177 0)
(10.8521 0.078774 0)
(11.001 0.0557579 0)
(11.0431 0.057168 0)
(11.1726 0.0400583 0)
(11.177 0.0454186 0)
(11.2747 0.0362777 0)
(11.2993 0.0301382 0)
(11.3125 0.0464995 0)
(11.4141 0.0184755 0)
(11.3647 0.0337293 0)
(11.4792 0.026085 0)
(11.4633 0.02107 0)
(11.5173 0.0309833 0)
(11.5396 0.0129312 0)
(11.596 0.0240229 0)
(11.5895 0.0227049 0)
(11.6624 0.00881087 0)
(11.6607 0.0142513 0)
(11.7164 0.0224657 0)
(11.7257 -0.00614189 0)
(11.7706 0.0150768 0)
(11.784 -0.00140762 0)
(11.8272 -0.0082034 0)
(11.8422 -0.0132759 0)
(11.8832 -0.017271 0)
(11.8999 -0.0406607 0)
(11.9436 -0.0478636 0)
(11.9587 -0.0613188 0)
(11.9715 -0.0805148 0)
(11.9922 -0.100157 0)
(11.9339 -0.10342 0)
(11.6985 -0.12836 0)
(9.99808 0.0254024 0)
(10.0327 -0.00702322 0)
(10.0998 0.0405245 0)
(10.1941 0.0168598 0)
(10.3167 0.0542745 0)
(10.4522 0.00871274 0)
(10.6142 0.0453065 0)
(10.7228 0.0192358 0)
(10.8677 0.0391518 0)
(10.9497 0.00627386 0)
(11.0733 0.0251768 0)
(11.1189 0.00509807 0)
(11.1912 0.0277624 0)
(11.2619 -0.00937971 0)
(11.2574 0.0347826 0)
(11.3553 -0.0133392 0)
(11.3327 0.0317106 0)
(11.4207 -0.0202222 0)
(11.415 0.0212331 0)
(11.4807 -0.00203568 0)
(11.4942 0.00663327 0)
(11.5319 -0.00377997 0)
(11.5723 0.0144564 0)
(11.6006 -0.0116173 0)
(11.6201 0.0120484 0)
(11.6729 -0.0152844 0)
(11.6951 0.00677328 0)
(11.7078 -0.0160109 0)
(11.7601 -0.000982056 0)
(11.7752 -0.0300323 0)
(11.7998 -0.00656245 0)
(11.8334 -0.0444221 0)
(11.8696 -0.0309528 0)
(11.873 -0.0674257 0)
(11.9293 -0.0635334 0)
(11.9343 -0.105536 0)
(11.9614 -0.110364 0)
(11.9534 -0.154833 0)
(11.9278 -0.133944 0)
(11.7099 -0.144458 0)
(9.99838 0.00142385 0)
(10.0329 -0.0322851 0)
(10.0904 -0.0169932 0)
(10.1969 -0.0272787 0)
(10.3147 -0.0218575 0)
(10.4666 -0.0481234 0)
(10.5906 -0.0231032 0)
(10.735 -0.0257169 0)
(10.8515 -0.0139066 0)
(10.974 -0.0284094 0)
(11.0606 -0.0118389 0)
(11.1138 -0.0104837 0)
(11.2139 -0.0155363 0)
(11.2213 -0.00472986 0)
(11.3024 -0.01834 0)
(11.3053 0.00168715 0)
(11.3802 -0.0189838 0)
(11.3898 -0.0159766 0)
(11.424 -0.00383837 0)
(11.4858 -0.0173775 0)
(11.4806 -0.00487763 0)
(11.5421 -0.0122548 0)
(11.5689 -0.0137446 0)
(11.5958 0.00116025 0)
(11.6272 -0.0249872 0)
(11.6752 -0.00986859 0)
(11.6737 -0.011478 0)
(11.7331 -0.0197024 0)
(11.7354 -0.0258312 0)
(11.7829 -0.0129208 0)
(11.7928 -0.0480396 0)
(11.8377 -0.0282279 0)
(11.8434 -0.0552818 0)
(11.8902 -0.0658549 0)
(11.8972 -0.0997426 0)
(11.9327 -0.096199 0)
(11.9395 -0.165869 0)
(11.9634 -0.188972 0)
(11.9127 -0.215732 0)
(11.7466 -0.109133 0)
(9.99802 0.0249527 0)
(10.0411 -0.128957 0)
(10.0958 -0.0229296 0)
(10.2119 -0.150602 0)
(10.341 -0.0450933 0)
(10.4777 -0.172678 0)
(10.6045 -0.0323655 0)
(10.7542 -0.145207 0)
(10.8796 -0.0158818 0)
(11.002 -0.127146 0)
(11.0591 0.0104352 0)
(11.1617 -0.11003 0)
(11.1979 0.0229705 0)
(11.2735 -0.109483 0)
(11.2837 0.0319367 0)
(11.358 -0.109088 0)
(11.3858 0.028203 0)
(11.4 -0.102647 0)
(11.4652 0.024513 0)
(11.4732 -0.0894388 0)
(11.5265 0.0252227 0)
(11.5463 -0.0986759 0)
(11.5914 0.0406036 0)
(11.6164 -0.107008 0)
(11.6549 0.0347834 0)
(11.6671 -0.100362 0)
(11.7231 0.0272153 0)
(11.7219 -0.105637 0)
(11.7701 0.0313123 0)
(11.7932 -0.124703 0)
(11.8184 0.0159971 0)
(11.8328 -0.124672 0)
(11.8834 -0.009653 0)
(11.8772 -0.164122 0)
(11.9142 -0.0344431 0)
(11.9216 -0.211321 0)
(11.9605 -0.125202 0)
(11.9449 -0.324374 0)
(11.9654 -0.244562 0)
(11.8423 -0.407579 0)
(9.99718 -0.0096102 0)
(10.0585 -0.118545 0)
(10.1208 -0.101051 0)
(10.2465 -0.188117 0)
(10.3693 -0.141213 0)
(10.5111 -0.203652 0)
(10.6461 -0.119894 0)
(10.8047 -0.179681 0)
(10.9281 -0.08386 0)
(11.0264 -0.134935 0)
(11.1176 -0.0471825 0)
(11.1829 -0.111309 0)
(11.2567 -0.028981 0)
(11.2869 -0.0972608 0)
(11.3404 -0.0223154 0)
(11.3884 -0.0977136 0)
(11.4063 -0.00373438 0)
(11.4614 -0.104203 0)
(11.4721 0.00705801 0)
(11.5327 -0.0935431 0)
(11.5477 0.00222285 0)
(11.5908 -0.0858755 0)
(11.6211 0.00284486 0)
(11.6601 -0.0872534 0)
(11.6701 0.00934881 0)
(11.7267 -0.0942948 0)
(11.7338 0.0105546 0)
(11.7674 -0.0949303 0)
(11.8045 0.0029196 0)
(11.8261 -0.104783 0)
(11.8399 -0.00238933 0)
(11.8809 -0.122273 0)
(11.8963 -0.0138022 0)
(11.9111 -0.150676 0)
(11.9311 -0.0504525 0)
(11.9467 -0.197366 0)
(11.9572 -0.121659 0)
(11.9398 -0.313906 0)
(11.9416 -0.244264 0)
(11.9984 -0.413203 0)
(9.99555 -0.0470618 0)
(10.0574 -0.0993418 0)
(10.1356 -0.193048 0)
(10.257 -0.215031 0)
(10.386 -0.25759 0)
(10.5433 -0.223389 0)
(10.7008 -0.236943 0)
(10.8466 -0.182556 0)
(10.9565 -0.180672 0)
(11.0721 -0.123414 0)
(11.1518 -0.137984 0)
(11.2316 -0.0942088 0)
(11.2783 -0.106966 0)
(11.3359 -0.076195 0)
(11.3729 -0.101527 0)
(11.4094 -0.0614252 0)
(11.454 -0.0924041 0)
(11.4821 -0.0547547 0)
(11.5228 -0.0862366 0)
(11.5561 -0.0455681 0)
(11.5899 -0.0828601 0)
(11.6232 -0.0465884 0)
(11.6554 -0.0736852 0)
(11.6856 -0.0492318 0)
(11.717 -0.0750437 0)
(11.7501 -0.0437041 0)
(11.7728 -0.0816852 0)
(11.8046 -0.0473934 0)
(11.8335 -0.0830085 0)
(11.8564 -0.0537833 0)
(11.8785 -0.0995882 0)
(11.9044 -0.0568481 0)
(11.9248 -0.114172 0)
(11.9449 -0.0894095 0)
(11.9494 -0.138121 0)
(11.9658 -0.124345 0)
(11.9709 -0.205025 0)
(11.9647 -0.188718 0)
(11.9768 -0.234981 0)
(12.1432 -0.122065 0)
(9.97649 -0.047722 0)
(10.0794 -0.168579 0)
(10.1304 -0.243833 0)
(10.2977 -0.314206 0)
(10.4158 -0.321181 0)
(10.6162 -0.323264 0)
(10.7538 -0.282143 0)
(10.9146 -0.254212 0)
(11.0162 -0.207124 0)
(11.1443 -0.18586 0)
(11.2134 -0.155544 0)
(11.2893 -0.140322 0)
(11.3355 -0.121302 0)
(11.3973 -0.11986 0)
(11.4216 -0.104229 0)
(11.4761 -0.105085 0)
(11.5012 -0.0927762 0)
(11.5485 -0.0988029 0)
(11.5711 -0.0789981 0)
(11.6176 -0.0878362 0)
(11.6421 -0.0804184 0)
(11.6796 -0.0746393 0)
(11.7088 -0.0767981 0)
(11.7446 -0.0796197 0)
(11.7655 -0.068576 0)
(11.8056 -0.0788301 0)
(11.826 -0.0733546 0)
(11.8536 -0.0782782 0)
(11.8803 -0.0741189 0)
(11.9067 -0.0877998 0)
(11.9231 -0.0818486 0)
(11.9472 -0.0943357 0)
(11.9688 -0.0986802 0)
(11.978 -0.113426 0)
(11.9866 -0.11328 0)
(11.9964 -0.139599 0)
(11.9959 -0.139294 0)
(11.9903 -0.149535 0)
(12.0226 -0.147209 0)
(12.1831 -0.132407 0)
(9.93607 -0.0873318 0)
(10.1273 -0.201634 0)
(10.1102 -0.339762 0)
(10.3846 -0.379731 0)
(10.4476 -0.422768 0)
(10.7355 -0.373801 0)
(10.7977 -0.3591 0)
(11.0437 -0.287747 0)
(11.072 -0.264616 0)
(11.2679 -0.204123 0)
(11.2534 -0.198418 0)
(11.4031 -0.152971 0)
(11.3715 -0.160032 0)
(11.4968 -0.129711 0)
(11.4538 -0.140858 0)
(11.569 -0.108203 0)
(11.5245 -0.13002 0)
(11.6284 -0.0963617 0)
(11.5853 -0.113472 0)
(11.6879 -0.0897477 0)
(11.6435 -0.107509 0)
(11.7373 -0.0798705 0)
(11.7001 -0.102355 0)
(11.7825 -0.0797224 0)
(11.7416 -0.0974129 0)
(11.824 -0.0744863 0)
(11.7823 -0.102472 0)
(11.8507 -0.0751568 0)
(11.8201 -0.100542 0)
(11.8752 -0.0831073 0)
(11.8411 -0.110229 0)
(11.8913 -0.0873351 0)
(11.8563 -0.119195 0)
(11.8834 -0.107362 0)
(11.8567 -0.123716 0)
(11.8614 -0.11181 0)
(11.8294 -0.122392 0)
(11.8319 -0.095929 0)
(11.832 -0.0970253 0)
(11.9687 -0.109185 0)
(9.93318 -0.100058 0)
(10.1421 -0.277781 0)
(10.1407 -0.421635 0)
(10.4593 -0.489268 0)
(10.5231 -0.510687 0)
(10.8526 -0.467641 0)
(10.8794 -0.426594 0)
(11.1561 -0.356004 0)
(11.1143 -0.310036 0)
(11.3363 -0.251363 0)
(11.2402 -0.234944 0)
(11.4258 -0.190197 0)
(11.2973 -0.189634 0)
(11.4646 -0.15948 0)
(11.3162 -0.164216 0)
(11.4775 -0.132868 0)
(11.3204 -0.148557 0)
(11.4765 -0.116398 0)
(11.3151 -0.13184 0)
(11.4689 -0.103056 0)
(11.2994 -0.126176 0)
(11.4514 -0.0870036 0)
(11.2776 -0.119428 0)
(11.4225 -0.0835787 0)
(11.2477 -0.111735 0)
(11.3864 -0.0760558 0)
(11.2112 -0.115247 0)
(11.3381 -0.0711554 0)
(11.168 -0.114521 0)
(11.2812 -0.0725088 0)
(11.1109 -0.122507 0)
(11.2106 -0.0697983 0)
(11.0457 -0.132207 0)
(11.1182 -0.0756246 0)
(10.9666 -0.134455 0)
(11.0123 -0.0647943 0)
(10.8767 -0.1225 0)
(10.9057 -0.00537147 0)
(10.8184 -0.0428602 0)
(10.9284 0.0705642 0)
(9.97613 -0.129438 0)
(10.1197 -0.356952 0)
(10.2324 -0.525001 0)
(10.4921 -0.604935 0)
(10.6101 -0.61865 0)
(10.8089 -0.568915 0)
(10.8043 -0.501124 0)
(10.9078 -0.417366 0)
(10.7992 -0.345325 0)
(10.8496 -0.2816 0)
(10.683 -0.24255 0)
(10.713 -0.200039 0)
(10.5195 -0.180999 0)
(10.5485 -0.157246 0)
(10.3396 -0.146034 0)
(10.3797 -0.125318 0)
(10.1623 -0.125398 0)
(10.2119 -0.104384 0)
(9.99378 -0.105315 0)
(10.0527 -0.0902039 0)
(9.82932 -0.0935494 0)
(9.90055 -0.0750859 0)
(9.67663 -0.0857989 0)
(9.75127 -0.0671578 0)
(9.5296 -0.0781645 0)
(9.61033 -0.0599015 0)
(9.38716 -0.0769746 0)
(9.4664 -0.0544134 0)
(9.25298 -0.0754045 0)
(9.32224 -0.0532878 0)
(9.11294 -0.0789901 0)
(9.17651 -0.0509965 0)
(8.97426 -0.0834903 0)
(9.0158 -0.0507731 0)
(8.83674 -0.0830543 0)
(8.85675 -0.0354081 0)
(8.71437 -0.0690688 0)
(8.73405 0.00881243 0)
(8.65634 -0.0202914 0)
(8.61654 0.0517938 0)
(9.99733 -0.171986 0)
(10.1215 -0.441104 0)
(10.1694 -0.608009 0)
(10.1325 -0.668708 0)
(9.94404 -0.654753 0)
(9.71083 -0.585604 0)
(9.37996 -0.495449 0)
(9.09861 -0.395463 0)
(8.75574 -0.308258 0)
(8.51531 -0.232319 0)
(8.20683 -0.178465 0)
(8.02832 -0.132118 0)
(7.76361 -0.104893 0)
(7.63572 -0.0797986 0)
(7.40593 -0.0670801 0)
(7.32447 -0.0512015 0)
(7.11448 -0.0472106 0)
(7.0707 -0.0363834 0)
(6.88085 -0.0359435 0)
(6.86068 -0.0277865 0)
(6.68475 -0.031514 0)
(6.68743 -0.0225094 0)
(6.51839 -0.0281032 0)
(6.53459 -0.0211548 0)
(6.37546 -0.0269017 0)
(6.39807 -0.0188718 0)
(6.24493 -0.0277498 0)
(6.26975 -0.0194363 0)
(6.1261 -0.0279659 0)
(6.14187 -0.0204239 0)
(6.0105 -0.0313937 0)
(6.01292 -0.0218001 0)
(5.89619 -0.0316779 0)
(5.87556 -0.0244962 0)
(5.78926 -0.0266967 0)
(5.74042 -0.0190236 0)
(5.70008 -0.0153353 0)
(5.61619 -0.0310452 0)
(5.62743 -0.0456605 0)
(5.46608 -0.142661 0)
(9.95645 -0.111179 0)
(9.19558 -0.384838 0)
(8.06195 -0.441139 0)
(6.91314 -0.364538 0)
(5.87392 -0.252255 0)
(5.00306 -0.144661 0)
(4.31929 -0.0624041 0)
(3.81802 -0.00981921 0)
(3.4433 0.0188244 0)
(3.19795 0.0322607 0)
(3.00561 0.0342707 0)
(2.89605 0.0329142 0)
(2.79029 0.0274412 0)
(2.74126 0.0227591 0)
(2.66941 0.0172546 0)
(2.64616 0.014777 0)
(2.58644 0.00992677 0)
(2.57594 0.00862637 0)
(2.52001 0.0054488 0)
(2.51712 0.00460579 0)
(2.46205 0.00188434 0)
(2.46344 0.0029443 0)
(2.40884 -1.42118e-05 0)
(2.41268 0.00113511 0)
(2.35724 -0.000862247 0)
(2.36264 0.000542431 0)
(2.30711 -0.00213071 0)
(2.31081 -3.3736e-05 0)
(2.25597 -0.00247959 0)
(2.25646 -0.000728469 0)
(2.2027 -0.00342771 0)
(2.19614 -0.000648819 0)
(2.14818 -0.00328572 0)
(2.1314 -0.000185461 0)
(2.09587 -0.00183557 0)
(2.06818 0.00171726 0)
(2.06074 -0.00559229 0)
(2.00891 0.00362149 0)
(2.03205 -0.0212634 0)
(1.85026 0.0124241 0)
(2.24606 -0.134502 0)
(2.42436 -0.154955 0)
(2.66923 -0.146109 0)
(2.8487 -0.130731 0)
(2.98843 -0.118101 0)
(3.04141 -0.131499 0)
(3.04397 -0.171975 0)
(2.99269 -0.229456 0)
(2.91924 -0.300872 0)
(2.79844 -0.369006 0)
(2.70621 -0.410844 0)
(2.61878 -0.417578 0)
(2.55181 -0.381538 0)
(2.48434 -0.32272 0)
(2.45895 -0.244213 0)
(2.47272 -0.147012 0)
(2.52074 -0.0432709 0)
(2.63546 0.0558817 0)
(2.80722 0.158168 0)
(3.02906 0.256379 0)
(3.27358 0.3487 0)
(3.56157 0.446776 0)
(3.84864 0.530037 0)
(4.14611 0.572946 0)
(4.43034 0.612733 0)
(4.73455 0.642476 0)
(5.00302 0.647115 0)
(5.2623 0.652449 0)
(5.51393 0.672745 0)
(5.76604 0.676398 0)
(5.97936 0.65781 0)
(6.20909 0.636803 0)
(6.41111 0.62126 0)
(6.59398 0.57365 0)
(6.78611 0.530255 0)
(6.96019 0.526776 0)
(7.12877 0.505231 0)
(7.33619 0.483417 0)
(7.53537 0.472007 0)
(7.71744 0.422192 0)
(7.89584 0.363272 0)
(8.03584 0.292663 0)
(8.13878 0.190657 0)
(8.22397 0.103904 0)
(8.2703 0.0206736 0)
(8.30577 -0.0707943 0)
(8.35003 -0.131784 0)
(8.42317 -0.207683 0)
(8.48445 -0.272638 0)
(8.59302 -0.361307 0)
(8.69162 -0.464013 0)
(8.82717 -0.602436 0)
(8.95653 -0.761701 0)
(9.1088 -0.959219 0)
(9.21429 -1.13657 0)
(9.36759 -1.36344 0)
(9.45975 -1.55776 0)
(9.57913 -1.74732 0)
(9.70137 -1.92915 0)
(9.83743 -2.09495 0)
(9.96827 -2.22929 0)
(10.1743 -2.39619 0)
(10.3598 -2.53013 0)
(10.5963 -2.6723 0)
(10.8307 -2.83883 0)
(11.0634 -2.99503 0)
(11.2756 -3.16646 0)
(11.462 -3.34053 0)
(11.6133 -3.48832 0)
(11.7547 -3.63779 0)
(11.8594 -3.74317 0)
(11.9119 -3.79932 0)
(11.9694 -3.84529 0)
(11.9643 -3.82462 0)
(11.9339 -3.78245 0)
(11.8494 -3.71252 0)
(11.7697 -3.60349 0)
(11.6389 -3.45109 0)
(11.5284 -3.27908 0)
(11.4112 -3.03829 0)
(11.2894 -2.81231 0)
(11.1623 -2.55582 0)
(11.0649 -2.3074 0)
(10.9764 -2.08066 0)
(10.9203 -1.86479 0)
(10.8837 -1.63503 0)
(10.8945 -1.44559 0)
(10.9216 -1.21729 0)
(10.9697 -1.01828 0)
(11.0337 -0.830397 0)
(11.1235 -0.654495 0)
(11.2076 -0.520395 0)
(11.2918 -0.41448 0)
(11.3933 -0.329109 0)
(11.5345 -0.270593 0)
(11.6579 -0.218732 0)
(11.7874 -0.194071 0)
(11.9294 -0.184242 0)
(12.0543 -0.187213 0)
(12.2058 -0.218783 0)
(12.3383 -0.270212 0)
(12.4692 -0.317358 0)
(12.6073 -0.41086 0)
(12.7423 -0.486202 0)
(12.864 -0.582061 0)
(13.0119 -0.700048 0)
(13.1142 -0.797415 0)
(13.2435 -0.925248 0)
(13.3695 -1.03681 0)
(13.4755 -1.14908 0)
(13.611 -1.26836 0)
(13.7086 -1.37142 0)
(13.8158 -1.47441 0)
(13.9352 -1.57948 0)
(14.0235 -1.64899 0)
(14.1438 -1.74753 0)
(14.2418 -1.798 0)
(14.3414 -1.86372 0)
(14.4534 -1.91513 0)
(14.5408 -1.94177 0)
(14.6451 -1.96585 0)
(14.7323 -1.98758 0)
(14.8036 -1.96587 0)
(14.8928 -1.97829 0)
(14.9466 -1.93494 0)
(15.0131 -1.92287 0)
(15.0525 -1.87325 0)
(15.0594 -1.8297 0)
(15.0773 -1.78423 0)
(15.0772 -1.72156 0)
(15.0415 -1.65382 0)
(15.0133 -1.59818 0)
(14.9345 -1.50425 0)
(14.8658 -1.4431 0)
(14.7548 -1.34568 0)
(14.6523 -1.25879 0)
(14.532 -1.17824 0)
(14.3731 -1.07193 0)
(14.2222 -0.987718 0)
(14.0552 -0.894849 0)
(13.8523 -0.791346 0)
(13.6917 -0.724563 0)
(13.4658 -0.627567 0)
(13.2509 -0.561982 0)
(13.0438 -0.508832 0)
(12.8005 -0.443178 0)
(12.581 -0.439856 0)
(12.3552 -0.398083 0)
(12.09 -0.396846 0)
(11.8798 -0.417248 0)
(11.618 -0.395155 0)
(11.3677 -0.435256 0)
(11.1429 -0.478128 0)
(10.8564 -0.46546 0)
(10.595 -0.537857 0)
(10.3181 -0.546562 0)
(10.0142 -0.575805 0)
(9.74131 -0.666441 0)
(9.44293 -0.669854 0)
(9.10314 -0.665461 0)
(8.81194 -0.73868 0)
(8.4801 -0.653207 0)
(8.17336 -0.619935 0)
(7.88003 -0.657883 0)
(7.59896 -0.554385 0)
(7.33076 -0.425852 0)
(7.18035 -0.498324 0)
(6.97874 -0.414785 0)
(6.80575 -0.26742 0)
(6.72167 -0.327395 0)
(6.67777 -0.420434 0)
(6.53946 -0.267334 0)
(6.50945 -0.268714 0)
(6.51745 -0.461894 0)
(6.47459 -0.534257 0)
(6.35663 -0.422529 0)
(6.34906 -0.489846 0)
(6.32682 -0.65368 0)
(6.24524 -0.717987 0)
(6.0797 -0.559878 0)
(5.98983 -0.420936 0)
(5.89851 -0.333935 0)
(5.83238 -0.373452 0)
(5.71926 -0.330635 0)
(5.64977 -0.215506 0)
(5.5383 0.100776 0)
(5.46278 0.424511 0)
(5.3387 0.66735 0)
(5.29399 0.622774 0)
(5.22677 0.269062 0)
(5.26566 -0.413748 0)
(5.29506 -1.37614 0)
(5.43762 -2.56537 0)
(5.55899 -3.85975 0)
(5.7863 -5.21433 0)
(5.96063 -6.42014 0)
(6.24316 -7.49585 0)
(6.4513 -8.22974 0)
(6.75999 -8.75408 0)
(6.98914 -9.0141 0)
(7.25452 -9.09218 0)
(7.51701 -9.08033 0)
(7.75458 -8.91474 0)
(8.04448 -8.75144 0)
(8.26817 -8.41967 0)
(8.55932 -8.12157 0)
(8.79428 -7.68223 0)
(9.05616 -7.25203 0)
(9.34591 -6.74114 0)
(9.55035 -6.17257 0)
(9.83346 -5.57754 0)
(10.0072 -4.9057 0)
(10.3055 -4.24119 0)
(10.3984 -3.47702 0)
(10.6508 -2.76825 0)
(10.7181 -1.96972 0)
(10.9709 -1.22524 0)
(11.0127 -0.392303 0)
(11.2031 0.333642 0)
(11.1686 1.13805 0)
(11.3132 1.84244 0)
(11.2634 2.60541 0)
(11.3695 3.28219 0)
(11.2706 3.96155 0)
(11.2976 4.57589 0)
(11.216 5.16074 0)
(11.1746 5.69019 0)
(11.0696 6.13933 0)
(10.9503 6.60399 0)
(10.9009 6.91633 0)
(10.7102 7.27686 0)
(10.6715 7.48797 0)
(10.4734 7.74647 0)
(10.3926 7.84169 0)
(10.2049 7.95599 0)
(10.0801 8.00491 0)
(9.92215 7.96623 0)
(9.6873 7.93403 0)
(9.57218 7.75303 0)
(9.31382 7.68252 0)
(9.25668 7.46285 0)
(9.1293 7.40568 0)
(9.11613 7.27255 0)
(9.15923 7.24953 0)
(9.1807 7.25091 0)
(9.36292 7.19865 0)
(9.32938 7.1923 0)
(9.51517 7.01909 0)
(9.48266 7.00497 0)
(9.66761 6.79288 0)
(9.67281 6.71293 0)
(9.74578 6.47005 0)
(9.77905 6.29589 0)
(9.73871 6.02495 0)
(9.77541 5.69946 0)
(9.58668 5.40685 0)
(9.59648 4.97032 0)
(9.32913 4.67109 0)
(9.32205 4.18226 0)
(9.06031 3.92633 0)
(9.05503 3.44491 0)
(8.86428 3.23423 0)
(8.85884 2.80126 0)
(8.7485 2.60428 0)
(8.73362 2.19947 0)
(8.68121 1.99374 0)
(8.63107 1.62027 0)
(8.61204 1.38142 0)
(8.50911 1.01729 0)
(8.50105 0.756904 0)
(8.35899 0.436062 0)
(8.34336 0.180121 0)
(8.14716 -0.117773 0)
(8.11019 -0.371581 0)
(7.86867 -0.616922 0)
(7.81947 -0.808391 0)
(7.56958 -0.99423 0)
(7.53448 -1.149 0)
(7.3053 -1.30004 0)
(7.30601 -1.40606 0)
(7.12336 -1.54912 0)
(7.17046 -1.65713 0)
(7.05425 -1.82313 0)
(7.13949 -1.91881 0)
(7.05892 -2.14508 0)
(7.12387 -2.304 0)
(7.07459 -2.60504 0)
(7.14633 -2.68599 0)
(7.16446 -2.93293 0)
(7.17031 -2.98019 0)
(7.15966 -3.33688 0)
(7.05453 -3.35962 0)
(7.08108 -3.63209 0)
(6.89619 -3.46289 0)
(6.93586 -3.67128 0)
(6.655 -3.43854 0)
(6.74831 -3.63701 0)
(6.41185 -3.37756 0)
(6.5204 -3.60093 0)
(6.10795 -3.34268 0)
(6.25512 -3.4882 0)
(5.85725 -3.11769 0)
(6.06415 -3.13323 0)
(5.68376 -2.72688 0)
(5.91125 -2.70183 0)
(5.54211 -2.34139 0)
(5.76211 -2.34143 0)
(5.38671 -2.09325 0)
(5.57234 -2.1635 0)
(5.19588 -2.02713 0)
(5.36072 -2.1121 0)
(5.01797 -2.00276 0)
(5.18803 -2.00625 0)
(4.90995 -1.8593 0)
(5.08476 -1.76861 0)
(4.85036 -1.6173 0)
(4.99752 -1.49868 0)
(4.77158 -1.38294 0)
(4.87998 -1.25056 0)
(4.66575 -1.14155 0)
(4.75718 -0.975514 0)
(4.55608 -0.856412 0)
(4.64029 -0.684125 0)
(4.43913 -0.570536 0)
(4.52075 -0.428627 0)
(4.30919 -0.319816 0)
(4.4081 -0.223335 0)
(4.19624 -0.0999197 0)
(4.33893 -0.052224 0)
(4.13348 0.102685 0)
(4.33705 0.0929637 0)
(4.13668 0.292529 0)
(4.40908 0.218923 0)
(4.20178 0.471403 0)
(4.54135 0.324532 0)
(4.31059 0.635121 0)
(4.71282 0.410956 0)
(4.44387 0.786459 0)
(4.90574 0.488109 0)
(4.59395 0.931195 0)
(5.11522 0.561747 0)
(4.76713 1.0657 0)
(5.34564 0.629826 0)
(4.97359 1.18265 0)
(5.5957 0.691832 0)
(5.20697 1.28352 0)
(5.83849 0.761836 0)
(5.4292 1.38779 0)
(6.02039 0.860429 0)
(5.58972 1.49885 0)
(6.09752 0.970501 0)
(5.66609 1.57728 0)
(6.06737 1.055 0)
(5.67848 1.59446 0)
(5.97249 1.10949 0)
(5.68256 1.55705 0)
(5.8813 1.15057 0)
(5.73454 1.49094 0)
(5.8369 1.20928 0)
(5.84614 1.43518 0)
(5.83285 1.32076 0)
(5.99745 1.41793 0)
(5.85425 1.49705 0)
(6.1756 1.43916 0)
(5.90345 1.72073 0)
(6.37431 1.48248 0)
(5.98744 1.95867 0)
(6.57559 1.53065 0)
(6.10038 2.17895 0)
(6.74383 1.57575 0)
(6.2223 2.36073 0)
(6.83716 1.62436 0)
(6.334 2.49015 0)
(6.83048 1.68833 0)
(6.42687 2.55841 0)
(6.72896 1.78594 0)
(6.51129 2.566 0)
(6.56805 1.94109 0)
(6.60937 2.52775 0)
(6.40583 2.17559 0)
(6.73622 2.46691 0)
(6.28935 2.49162 0)
(6.87249 2.40568 0)
(6.23603 2.86891 0)
(6.96133 2.37731 0)
(6.25114 3.27027 0)
(6.93477 2.43671 0)
(6.33751 3.65809 0)
(6.73626 2.67821 0)
(6.48306 3.99099 0)
(6.37511 3.21298 0)
(6.66465 4.23144 0)
(5.94744 4.12351 0)
(6.76043 4.39674 0)
(5.65028 5.40378 0)
(6.47669 4.74518 0)
(5.89688 6.89841 0)
(5.49299 6.31118 0)
(7.00577 8.04452 0)
(5.40135 10.9828 0)
(5.844 -0.27235 0)
(5.93787 -0.380158 0)
(6.08175 -0.444645 0)
(6.20545 -0.470249 0)
(6.28354 -0.471251 0)
(6.31812 -0.465204 0)
(6.32021 -0.451803 0)
(6.30485 -0.438493 0)
(6.30227 -0.424776 0)
(6.26532 -0.388741 0)
(6.2687 -0.340482 0)
(6.25907 -0.28447 0)
(6.24977 -0.217741 0)
(6.25201 -0.133162 0)
(6.23398 -0.0518318 0)
(6.20576 0.0324755 0)
(6.21917 0.100421 0)
(6.19549 0.15975 0)
(6.19165 0.221755 0)
(6.20911 0.278806 0)
(6.22982 0.310469 0)
(6.2262 0.358725 0)
(6.28811 0.395297 0)
(6.3342 0.416513 0)
(6.3876 0.42223 0)
(6.43457 0.435109 0)
(6.51118 0.414857 0)
(6.56789 0.395091 0)
(6.64235 0.387356 0)
(6.72451 0.362218 0)
(6.82792 0.327728 0)
(6.91598 0.318728 0)
(7.04424 0.284092 0)
(7.14243 0.262896 0)
(7.26379 0.23092 0)
(7.3814 0.204922 0)
(7.51286 0.182837 0)
(7.63904 0.167688 0)
(7.81535 0.128571 0)
(7.94898 0.0990526 0)
(8.11484 0.0422313 0)
(8.25858 -0.00909533 0)
(8.41015 -0.0977375 0)
(8.52803 -0.150726 0)
(8.68786 -0.235446 0)
(8.80328 -0.32014 0)
(8.95083 -0.382668 0)
(9.09139 -0.469826 0)
(9.24906 -0.570487 0)
(9.40832 -0.657035 0)
(9.60967 -0.801866 0)
(9.78349 -0.927256 0)
(9.98156 -1.07994 0)
(10.1859 -1.26534 0)
(10.3705 -1.43837 0)
(10.563 -1.64286 0)
(10.755 -1.83345 0)
(10.9277 -2.01487 0)
(11.1306 -2.20758 0)
(11.3365 -2.38582 0)
(11.5239 -2.54204 0)
(11.7471 -2.72144 0)
(11.9541 -2.87801 0)
(12.1676 -3.03558 0)
(12.3419 -3.19851 0)
(12.5016 -3.34546 0)
(12.6296 -3.49081 0)
(12.7233 -3.61156 0)
(12.7619 -3.69011 0)
(12.7946 -3.76952 0)
(12.7673 -3.77868 0)
(12.6992 -3.77488 0)
(12.5973 -3.73939 0)
(12.4571 -3.67126 0)
(12.2859 -3.5909 0)
(12.0967 -3.48983 0)
(11.9185 -3.33184 0)
(11.7423 -3.18097 0)
(11.5735 -2.95563 0)
(11.425 -2.72251 0)
(11.2829 -2.48852 0)
(11.1399 -2.23447 0)
(11.0434 -2.00815 0)
(10.9402 -1.81281 0)
(10.8657 -1.62628 0)
(10.8156 -1.45913 0)
(10.7835 -1.31394 0)
(10.7682 -1.13897 0)
(10.7959 -1.00224 0)
(10.8042 -0.846601 0)
(10.8692 -0.720484 0)
(10.9335 -0.61928 0)
(10.9982 -0.534243 0)
(11.0927 -0.468155 0)
(11.2086 -0.435021 0)
(11.2908 -0.39999 0)
(11.4185 -0.399677 0)
(11.5228 -0.385471 0)
(11.6245 -0.408399 0)
(11.7539 -0.426148 0)
(11.8681 -0.479005 0)
(11.9788 -0.528836 0)
(12.1068 -0.618271 0)
(12.228 -0.694821 0)
(12.3425 -0.806327 0)
(12.472 -0.909393 0)
(12.5776 -1.03111 0)
(12.6995 -1.14366 0)
(12.8249 -1.26635 0)
(12.9432 -1.36928 0)
(13.0725 -1.4954 0)
(13.1796 -1.58756 0)
(13.3035 -1.70741 0)
(13.4242 -1.78863 0)
(13.5449 -1.8832 0)
(13.6728 -1.96236 0)
(13.7977 -2.02574 0)
(13.9147 -2.09234 0)
(14.0563 -2.13833 0)
(14.1737 -2.15804 0)
(14.306 -2.1917 0)
(14.4083 -2.17953 0)
(14.5369 -2.17115 0)
(14.6341 -2.14914 0)
(14.7263 -2.08655 0)
(14.8169 -2.05064 0)
(14.8799 -1.96191 0)
(14.9225 -1.89169 0)
(14.9685 -1.80114 0)
(14.9814 -1.69569 0)
(14.9948 -1.59803 0)
(14.9729 -1.48899 0)
(14.9355 -1.36453 0)
(14.8796 -1.27494 0)
(14.7987 -1.12296 0)
(14.7143 -1.02876 0)
(14.5887 -0.897123 0)
(14.4559 -0.777374 0)
(14.3156 -0.674094 0)
(14.1289 -0.551762 0)
(13.9644 -0.440934 0)
(13.7829 -0.354817 0)
(13.5445 -0.230687 0)
(13.3561 -0.183495 0)
(13.1147 -0.0797544 0)
(12.8718 -0.0336799 0)