/*--------------------------------*- C++ -*----------------------------------*\
| =========                 |                                                 |
| \\      /  F ield         | OpenFOAM: The Open Source CFD Toolbox           |
|  \\    /   O peration     | Version:  2.4.0                                 |
|   \\  /    A nd           | Web:      www.OpenFOAM.org                      |
|    \\/     M anipulation  |                                                 |
\*---------------------------------------------------------------------------*/
FoamFile
{
    version     2.0;
    format      ascii;
    class       volScalarField;
    location    "0.295";
    object      nuSgs;
}
// * * * * * * * * * * * * * * * * * * * * * * * * * * * * * * * * * * * * * //

dimensions      [0 2 -1 0 0 0 0];

internalField   nonuniform List<scalar> 
17600
(
0.001013
0.000904553
0.000752794
0.000658746
0.00060771
0.000571498
0.000545111
0.00052429
0.000505974
0.000497903
0.000480488
0.000481905
0.000466503
0.000471123
0.000465488
0.000458571
0.000488829
0.000465014
0.000488669
0.000642003
0.000705616
0.000827788
0.000803623
0.000746536
0.000698918
0.00065942
0.000629526
0.00060694
0.000584614
0.000575037
0.00055355
0.000553313
0.000536427
0.00053807
0.000532385
0.000520554
0.000544637
0.000521109
0.000540241
0.000629127
0.000382417
0.000601975
0.000664719
0.000661402
0.000645165
0.000618758
0.000595742
0.000578869
0.00055821
0.000550571
0.000530693
0.000529073
0.000514721
0.000512887
0.000509095
0.000495467
0.000508152
0.000491913
0.000509493
0.000519626
0.000151534
0.000363005
0.000461437
0.000506813
0.000527016
0.000527052
0.000521985
0.000516325
0.00050258
0.000498828
0.000485024
0.000483158
0.000473656
0.000469562
0.00046672
0.000456569
0.000457205
0.000449093
0.000460503
0.000442393
5.36224e-05
0.000171492
0.000265974
0.000326803
0.00037005
0.000398183
0.000410968
0.000422409
0.000421293
0.000423875
0.000419532
0.000419137
0.000417259
0.000413056
0.000410715
0.000408463
0.000399223
0.000398666
0.000395982
0.000388077
1.74181e-05
6.96372e-05
0.000122874
0.000173724
0.000212592
0.000252426
0.000276446
0.000302601
0.000311611
0.000327166
0.000332402
0.000334813
0.00034249
0.000341901
0.000341774
0.000344009
0.00033456
0.00033919
0.000321029
0.000327492
5.59454e-06
2.64316e-05
4.71666e-05
7.69743e-05
9.79728e-05
0.000130379
0.000152626
0.000180203
0.000193909
0.000213244
0.000230118
0.000234319
0.000249698
0.00025356
0.000259109
0.00026482
0.000258256
0.00026633
0.000243603
0.000248951
2.35391e-06
9.74865e-06
1.71745e-05
2.9075e-05
3.87174e-05
5.3493e-05
6.97958e-05
8.68504e-05
9.86235e-05
0.000112697
0.000132748
0.000136757
0.000152663
0.00015793
0.000169873
0.000175065
0.00017254
0.000180858
0.000160169
0.000160623
1.748e-06
3.90175e-06
6.55556e-06
1.06939e-05
1.41597e-05
1.92577e-05
2.62804e-05
3.56232e-05
4.03368e-05
4.75639e-05
6.23637e-05
6.51982e-05
7.56928e-05
7.95561e-05
9.13317e-05
9.49659e-05
9.44474e-05
0.00010003
8.73713e-05
8.70124e-05
1.67164e-06
2.315e-06
3.18512e-06
4.23172e-06
6.00105e-06
7.50799e-06
9.32256e-06
1.34343e-05
1.48706e-05
1.7034e-05
2.39779e-05
2.52287e-05
3.01861e-05
3.21566e-05
3.90427e-05
4.1391e-05
4.12564e-05
4.40075e-05
3.84107e-05
3.75666e-05
1.61383e-06
2.27279e-06
2.35351e-06
2.73615e-06
3.47244e-06
3.89751e-06
4.756e-06
6.0808e-06
6.25133e-06
6.71383e-06
9.09016e-06
9.18766e-06
1.09398e-05
1.17615e-05
1.41015e-05
1.51191e-05
1.52616e-05
1.64781e-05
1.47177e-05
1.38163e-05
1.55271e-06
1.95737e-06
2.11032e-06
2.86195e-06
2.93146e-06
3.05823e-06
3.82573e-06
4.01437e-06
4.03107e-06
4.45418e-06
4.77418e-06
4.71268e-06
5.23356e-06
5.68443e-06
6.03277e-06
6.36555e-06
6.39629e-06
6.91002e-06
6.96588e-06
6.5405e-06
1.53583e-06
1.79171e-06
2.39806e-06
2.82158e-06
2.76896e-06
2.85232e-06
2.98217e-06
3.05348e-06
3.37949e-06
3.47573e-06
3.46395e-06
3.47359e-06
3.50404e-06
3.80009e-06
4.10976e-06
4.16484e-06
4.06242e-06
4.20095e-06
4.68916e-06
4.99088e-06
1.58396e-06
1.82179e-06
2.49831e-06
2.67342e-06
2.80175e-06
2.72459e-06
2.63856e-06
2.71194e-06
2.99587e-06
2.99144e-06
3.13804e-06
3.07571e-06
3.06782e-06
3.25917e-06
3.60951e-06
3.61077e-06
3.43894e-06
3.52691e-06
3.5597e-06
4.27422e-06
1.56047e-06
1.88462e-06
2.07283e-06
2.39362e-06
2.55172e-06
2.48195e-06
2.45878e-06
2.53486e-06
2.58677e-06
2.65875e-06
2.87154e-06
2.80701e-06
2.82582e-06
2.91925e-06
3.0724e-06
3.10656e-06
3.07735e-06
3.07506e-06
3.0206e-06
3.46462e-06
1.51898e-06
1.77908e-06
1.85279e-06
2.19966e-06
2.31446e-06
2.32138e-06
2.35521e-06
2.35562e-06
2.36169e-06
2.57567e-06
2.64768e-06
2.65354e-06
2.6559e-06
2.64345e-06
2.6521e-06
2.83971e-06
2.93358e-06
2.87412e-06
2.88089e-06
3.05259e-06
1.51426e-06
1.71494e-06
1.85296e-06
2.05094e-06
2.15072e-06
2.30727e-06
2.30919e-06
2.3042e-06
2.34914e-06
2.41606e-06
2.47259e-06
2.50746e-06
2.48376e-06
2.44887e-06
2.46916e-06
2.68929e-06
2.73953e-06
2.7112e-06
2.87923e-06
2.8701e-06
1.51298e-06
1.67532e-06
1.92491e-06
1.99167e-06
2.14345e-06
2.25903e-06
2.28202e-06
2.3158e-06
2.33572e-06
2.32765e-06
2.40208e-06
2.41882e-06
2.41785e-06
2.41217e-06
2.43762e-06
2.55904e-06
2.57125e-06
2.60278e-06
2.72291e-06
2.64439e-06
1.50678e-06
1.65363e-06
1.92621e-06
1.99504e-06
2.1556e-06
2.16972e-06
2.2249e-06
2.25928e-06
2.24215e-06
2.23422e-06
2.29231e-06
2.31641e-06
2.33274e-06
2.32842e-06
2.3335e-06
2.36341e-06
2.38497e-06
2.56607e-06
2.53131e-06
2.56332e-06
1.50374e-06
1.74128e-06
1.9612e-06
1.97865e-06
2.02712e-06
2.1234e-06
2.19685e-06
2.21605e-06
2.21034e-06
2.19857e-06
2.21523e-06
2.22545e-06
2.25036e-06
2.25987e-06
2.25203e-06
2.2574e-06
2.29636e-06
2.45361e-06
2.40068e-06
2.53947e-06
1.50332e-06
1.79428e-06
1.86606e-06
1.90363e-06
2.07483e-06
2.17938e-06
2.18861e-06
2.19348e-06
2.18006e-06
2.16002e-06
2.1735e-06
2.19487e-06
2.22003e-06
2.22157e-06
2.22299e-06
2.22768e-06
2.28123e-06
2.33784e-06
2.34323e-06
2.80081e-06
1.50977e-06
1.71441e-06
1.79491e-06
2.02369e-06
2.18554e-06
2.20154e-06
2.18652e-06
2.15137e-06
2.13796e-06
2.13167e-06
2.15823e-06
2.19103e-06
2.24676e-06
2.2642e-06
2.26958e-06
2.26768e-06
2.28723e-06
2.29405e-06
2.33644e-06
3.08177e-06
1.50843e-06
1.6592e-06
1.89329e-06
2.15655e-06
2.15302e-06
2.14627e-06
2.11039e-06
2.1149e-06
2.11481e-06
2.13436e-06
2.21384e-06
2.28444e-06
2.34849e-06
2.34072e-06
2.30819e-06
2.28443e-06
2.29162e-06
2.3346e-06
2.46685e-06
3.00095e-06
1.51435e-06
1.67351e-06
2.028e-06
2.0853e-06
2.09979e-06
2.09818e-06
2.11113e-06
2.13711e-06
2.22431e-06
2.28537e-06
2.37555e-06
2.4225e-06
2.40469e-06
2.34312e-06
2.3238e-06
2.33005e-06
2.36518e-06
2.47059e-06
2.77743e-06
2.88887e-06
1.51783e-06
1.75975e-06
1.91675e-06
2.12842e-06
2.19369e-06
2.22097e-06
2.21998e-06
2.27301e-06
2.41696e-06
2.43824e-06
2.48968e-06
2.47056e-06
2.40611e-06
2.4076e-06
2.42284e-06
2.53361e-06
2.67336e-06
2.77841e-06
2.85534e-06
3.22801e-06
1.52682e-06
1.71912e-06
2.02493e-06
2.3103e-06
2.31553e-06
2.31947e-06
2.32681e-06
2.4647e-06
2.51245e-06
2.52548e-06
2.5549e-06
2.53251e-06
2.56297e-06
2.68864e-06
2.75792e-06
2.89842e-06
2.90675e-06
2.95182e-06
3.15439e-06
4.28044e-06
1.54154e-06
1.77277e-06
2.22774e-06
2.34237e-06
2.3305e-06
2.36957e-06
2.54776e-06
2.63129e-06
2.63189e-06
2.64467e-06
2.67035e-06
2.74245e-06
3.05332e-06
3.10888e-06
3.14461e-06
3.16235e-06
3.20042e-06
3.48906e-06
4.64095e-06
8.14857e-06
1.54874e-06
1.90934e-06
2.22735e-06
2.32692e-06
2.42864e-06
2.68709e-06
2.78425e-06
2.80028e-06
2.82825e-06
2.88277e-06
3.04459e-06
3.37653e-06
3.5657e-06
3.59636e-06
3.70472e-06
3.9403e-06
4.54486e-06
6.32669e-06
1.00701e-05
1.86109e-05
1.57593e-06
1.84894e-06
2.41255e-06
2.53379e-06
2.83181e-06
2.91523e-06
3.0162e-06
3.11236e-06
3.35662e-06
3.64651e-06
4.26445e-06
4.65152e-06
5.01311e-06
5.57823e-06
6.43162e-06
8.00932e-06
1.06797e-05
1.59805e-05
2.43981e-05
4.38317e-05
1.58416e-06
1.93554e-06
2.81336e-06
3.04161e-06
3.25099e-06
3.59314e-06
3.99884e-06
4.95354e-06
5.8055e-06
7.21866e-06
8.3215e-06
1.00219e-05
1.15484e-05
1.44705e-05
1.72216e-05
2.22603e-05
2.84461e-05
4.02414e-05
5.48263e-05
9.03144e-05
1.633e-06
2.31943e-06
3.93084e-06
4.45083e-06
5.19139e-06
7.13242e-06
8.83405e-06
1.23877e-05
1.50906e-05
1.95037e-05
2.24876e-05
2.78407e-05
3.19023e-05
3.98491e-05
4.559e-05
5.66966e-05
6.6786e-05
8.75975e-05
0.000107265
0.000157954
1.75051e-06
3.99932e-06
7.71672e-06
9.83959e-06
1.28764e-05
2.01502e-05
2.52446e-05
3.4212e-05
4.20748e-05
5.21348e-05
5.89225e-05
7.0446e-05
7.80199e-05
9.21978e-05
0.000100869
0.000117691
0.000131174
0.000158492
0.000180487
0.000236418
2.34261e-06
9.823e-06
1.95532e-05
2.68867e-05
3.65309e-05
5.59966e-05
6.82352e-05
8.39587e-05
0.000103633
0.000116343
0.000130751
0.000143926
0.000156447
0.000172335
0.000182553
0.000201151
0.000214963
0.000241174
0.000259974
0.000302637
5.59451e-06
2.65142e-05
5.2423e-05
7.1892e-05
9.54997e-05
0.000132104
0.000154237
0.000175665
0.000201274
0.000214244
0.000231366
0.000241589
0.000254858
0.000264989
0.000275294
0.000286835
0.000298509
0.000315481
0.000328283
0.000355831
1.74669e-05
6.99495e-05
0.000128605
0.000166806
0.000213803
0.000252154
0.000278768
0.000299067
0.000318403
0.000325799
0.000336423
0.000339865
0.00034708
0.000349904
0.000355775
0.00035946
0.000366916
0.000374079
0.00038186
0.000394766
5.37351e-05
0.000172205
0.000267515
0.00032356
0.000371468
0.000397452
0.000413214
0.000419953
0.000425068
0.000423321
0.000423528
0.00042055
0.000420529
0.000418026
0.000418542
0.000417043
0.000418713
0.0004185
0.000420266
0.000418685
0.000151678
0.000363452
0.000461483
0.000505321
0.000527948
0.000526858
0.000523291
0.000513771
0.000507187
0.000495203
0.000490409
0.000479833
0.000476698
0.000468355
0.000465986
0.000458472
0.000455982
0.000447614
0.000441369
0.000428325
0.000382588
0.000602147
0.000664347
0.000660869
0.000646275
0.000616793
0.000598192
0.000575673
0.000561865
0.000544652
0.000536207
0.00052149
0.00051614
0.000503332
0.000498296
0.00048468
0.0004774
0.000459428
0.000445621
0.000419779
0.000705586
0.000827774
0.000803258
0.000746177
0.000700027
0.000656962
0.000631738
0.000603556
0.000586723
0.000567469
0.000557364
0.00054093
0.000533955
0.000517709
0.000510174
0.000490857
0.000478704
0.000450545
0.000426876
0.000386416
0.00101288
0.00090449
0.000752425
0.000658537
0.000608592
0.00056914
0.000546202
0.000521177
0.000506369
0.000489613
0.000480787
0.000466156
0.00045882
0.000442046
0.000432945
0.000411011
0.000395197
0.000360979
0.000330517
0.000281806
0.000243561
0.000202344
0.000166107
0.000138067
0.000133825
0.000147752
0.000162701
0.0001575
0.00013827
0.000105474
7.60924e-05
5.83594e-05
4.26332e-05
3.06317e-05
2.68642e-05
2.6578e-05
3.47453e-05
3.64595e-05
3.94721e-05
4.50485e-05
0.000102872
0.000128934
0.000121789
9.41456e-05
6.97394e-05
5.60005e-05
4.91541e-05
4.69535e-05
4.52895e-05
4.63982e-05
4.96985e-05
5.02244e-05
5.09465e-05
5.01652e-05
4.84882e-05
4.82394e-05
4.73601e-05
4.59948e-05
4.55353e-05
4.57658e-05
4.6606e-05
4.75233e-05
4.97658e-05
5.28242e-05
5.29318e-05
4.97373e-05
4.59117e-05
4.71762e-05
6.24419e-05
8.50669e-05
8.76177e-05
8.13302e-05
6.30442e-05
5.25618e-05
4.74902e-05
4.54277e-05
4.51256e-05
4.58463e-05
4.8591e-05
4.93689e-05
4.91536e-05
4.81218e-05
4.54468e-05
4.22506e-05
3.99143e-05
3.80182e-05
3.60532e-05
3.56314e-05
3.59059e-05
3.68581e-05
3.87119e-05
4.23893e-05
4.52581e-05
4.68397e-05
4.74335e-05
4.6855e-05
4.3616e-05
3.76123e-05
3.37185e-05
3.17074e-05
3.02067e-05
2.92759e-05
2.8386e-05
2.66532e-05
2.63544e-05
2.59422e-05
2.38675e-05
2.08391e-05
2.06836e-05
2.04274e-05
1.87882e-05
1.77882e-05
1.76825e-05
1.82359e-05
2.08631e-05
2.26436e-05
2.33362e-05
2.40403e-05
2.48613e-05
2.56332e-05
2.6295e-05
2.68737e-05
2.79509e-05
3.04115e-05
3.695e-05
4.31708e-05
4.58851e-05
4.62901e-05
4.62561e-05
4.59233e-05
4.51822e-05
4.2969e-05
4.17325e-05
4.08353e-05
3.87914e-05
3.63412e-05
3.50667e-05
3.502e-05
3.55327e-05
3.69126e-05
4.13535e-05
4.69498e-05
4.90296e-05
5.00554e-05
5.2428e-05
5.93763e-05
6.14426e-05
6.05029e-05
5.31122e-05
4.39514e-05
3.75532e-05
3.28201e-05
2.90749e-05
2.62813e-05
2.44709e-05
2.30032e-05
2.14823e-05
2.04783e-05
2.02224e-05
2.03367e-05
2.14602e-05
2.17695e-05
2.19187e-05
2.22033e-05
2.35153e-05
2.9386e-05
3.43478e-05
3.5385e-05
3.51488e-05
3.49956e-05
3.55232e-05
3.48103e-05
3.38185e-05
3.36998e-05
3.34344e-05
3.39082e-05
4.04162e-05
4.67796e-05
4.82321e-05
4.72768e-05
4.14396e-05
3.65429e-05
3.47748e-05
3.46366e-05
3.68426e-05
3.86116e-05
3.86941e-05
3.77302e-05
3.48866e-05
3.09083e-05
2.74798e-05
2.58758e-05
2.53794e-05
2.5418e-05
2.76632e-05
3.04576e-05
3.11421e-05
3.16612e-05
3.40262e-05
3.55033e-05
3.73666e-05
4.1144e-05
4.83281e-05
4.92068e-05
4.94345e-05
4.99285e-05
4.9381e-05
5.27444e-05
5.2386e-05
4.81457e-05
4.27149e-05
4.12751e-05
4.22228e-05
4.84364e-05
5.07422e-05
5.01472e-05
4.5367e-05
4.53812e-05
5.92771e-05
0.000171115
0.000299143
0.000224734
0.000183893
0.000168141
0.00016927
0.000177593
0.000171557
0.00015289
0.000119201
8.98607e-05
6.46193e-05
4.86357e-05
3.72928e-05
2.69806e-05
2.24062e-05
1.95934e-05
2.75406e-05
3.32255e-05
3.55765e-05
4.13e-05
6.63134e-05
0.000121908
0.000121337
0.000108787
8.1185e-05
6.37313e-05
5.37049e-05
4.92779e-05
4.73877e-05
4.93524e-05
5.09089e-05
5.03021e-05
4.99881e-05
4.85366e-05
4.76814e-05
4.76862e-05
4.69935e-05
4.6564e-05
4.67597e-05
4.75932e-05
4.88205e-05
4.95437e-05
5.17958e-05
5.36425e-05
5.31999e-05
4.80835e-05
4.53466e-05
4.8419e-05
6.99513e-05
8.76315e-05
8.76824e-05
7.59656e-05
6.04402e-05
5.19501e-05
4.87466e-05
4.80516e-05
4.78579e-05
4.84145e-05
4.95277e-05
4.96194e-05
4.92045e-05
4.7112e-05
4.36165e-05
4.03e-05
3.78926e-05
3.60236e-05
3.3961e-05
3.34994e-05
3.37639e-05
3.48087e-05
3.63937e-05
3.95509e-05
4.35245e-05
4.5743e-05
4.64049e-05
4.63517e-05
4.47596e-05
3.90567e-05
3.479e-05
3.22134e-05
3.02562e-05
2.92178e-05
2.8381e-05
2.69036e-05
2.67481e-05
2.65447e-05
2.48578e-05
2.21805e-05
2.19115e-05
2.11935e-05
1.9228e-05
1.80478e-05
1.78772e-05
1.8257e-05
2.07675e-05
2.26388e-05
2.3291e-05
2.36851e-05
2.44083e-05
2.54243e-05
2.62111e-05
2.66238e-05
2.71942e-05
2.86442e-05
3.2553e-05
3.99437e-05
4.40806e-05
4.51342e-05
4.52055e-05
4.51279e-05
4.48282e-05
4.36604e-05
4.2858e-05
4.20422e-05
3.9989e-05
3.76052e-05
3.65248e-05
3.6562e-05
3.72162e-05
3.8727e-05
4.33532e-05
4.81033e-05
4.98362e-05
5.09362e-05
5.44665e-05
6.16727e-05
6.31257e-05
6.09724e-05
5.10357e-05
4.22566e-05
3.61916e-05
3.17618e-05
2.82238e-05
2.5705e-05
2.40932e-05
2.26856e-05
2.11975e-05
2.0218e-05
1.9977e-05
2.02068e-05
2.20473e-05
2.23154e-05
2.22008e-05
2.22701e-05
2.30306e-05
2.77439e-05
3.3373e-05
3.47382e-05
3.47493e-05
3.46671e-05
3.5163e-05
3.44619e-05
3.34966e-05
3.35936e-05
3.3417e-05
3.37837e-05
3.99851e-05
4.60805e-05
4.75188e-05
4.68547e-05
4.15224e-05
3.65242e-05
3.45706e-05
3.44262e-05
3.60975e-05
3.76121e-05
3.77336e-05
3.70648e-05
3.48839e-05
3.12343e-05
2.7868e-05
2.60961e-05
2.57591e-05
2.63671e-05
2.92414e-05
3.12995e-05
3.16317e-05
3.19295e-05
3.46182e-05
3.61293e-05
3.86111e-05
4.11475e-05
4.84273e-05
5.10545e-05
5.20206e-05
5.25128e-05
5.13176e-05
5.37551e-05
5.39207e-05
5.00124e-05
4.34357e-05
4.11711e-05
4.15666e-05
4.79023e-05
5.07095e-05
5.0425e-05
4.71848e-05
4.55875e-05
6.08186e-05
0.000146362
0.000276065
0.000253514
0.000226838
0.00021297
0.000203798
0.00019169
0.000162029
0.000128738
9.72135e-05
6.74045e-05
4.56994e-05
3.22732e-05
2.59708e-05
2.12199e-05
1.95898e-05
1.61631e-05
2.06793e-05
2.70265e-05
2.82748e-05
3.35453e-05
4.42058e-05
0.000100528
0.000118214
0.000113146
9.57271e-05
7.7165e-05
6.35297e-05
5.50252e-05
5.12359e-05
5.20471e-05
5.21657e-05
5.07477e-05
4.98903e-05
4.82135e-05
4.81025e-05
4.82674e-05
4.80154e-05
4.81714e-05
4.86909e-05
5.01986e-05
5.10133e-05
5.15885e-05
5.36255e-05
5.44282e-05
5.28772e-05
4.6074e-05
4.4875e-05
5.08167e-05
7.71172e-05
8.91177e-05
8.68102e-05
7.13284e-05
5.91496e-05
5.18879e-05
5.02096e-05
4.85473e-05
4.8145e-05
4.86071e-05
4.94407e-05
4.93864e-05
4.84527e-05
4.52306e-05
4.15555e-05
3.82628e-05
3.58534e-05
3.40036e-05
3.20997e-05
3.17177e-05
3.19667e-05
3.28601e-05
3.42714e-05
3.67056e-05
4.16532e-05
4.44451e-05
4.54928e-05
4.56969e-05
4.49982e-05
4.07213e-05
3.56565e-05
3.25533e-05
3.03223e-05
2.91059e-05
2.82282e-05
2.71159e-05
2.71362e-05
2.70481e-05
2.55229e-05
2.3367e-05
2.31517e-05
2.20571e-05
1.97668e-05
1.83489e-05
1.80204e-05
1.83162e-05
2.0728e-05
2.26956e-05
2.3319e-05
2.35913e-05
2.40264e-05
2.50538e-05
2.61554e-05
2.66936e-05
2.69928e-05
2.7774e-05
2.97823e-05
3.65172e-05
4.23163e-05
4.41793e-05
4.45964e-05
4.45656e-05
4.43477e-05
4.37185e-05
4.31611e-05
4.26264e-05
4.10213e-05
3.8817e-05
3.80577e-05
3.81923e-05
3.90026e-05
4.05198e-05
4.52193e-05
4.91723e-05
5.05871e-05
5.18042e-05
5.68414e-05
6.39688e-05
6.47705e-05
6.10796e-05
4.87901e-05
4.04861e-05
3.46984e-05
3.04648e-05
2.71804e-05
2.52364e-05
2.38531e-05
2.24943e-05
2.09976e-05
2.00231e-05
1.98131e-05
2.03418e-05
2.30746e-05
2.34632e-05
2.30499e-05
2.25557e-05
2.2914e-05
2.62182e-05
3.21643e-05
3.40203e-05
3.42688e-05
3.44308e-05
3.50494e-05
3.43258e-05
3.33681e-05
3.35316e-05
3.3377e-05
3.36742e-05
3.95193e-05
4.55241e-05
4.69068e-05
4.64166e-05
4.15212e-05
3.65186e-05
3.43142e-05
3.41694e-05
3.54363e-05
3.68409e-05
3.69777e-05
3.64273e-05
3.47525e-05
3.12459e-05
2.80581e-05
2.65652e-05
2.66232e-05
2.86144e-05
3.0525e-05
3.18398e-05
3.20243e-05
3.22027e-05
3.53421e-05
3.68583e-05
4.02379e-05
4.16113e-05
4.81745e-05
5.1974e-05
5.53969e-05
5.57041e-05
5.44244e-05
5.4608e-05
5.5448e-05
5.2079e-05
4.48819e-05
4.16878e-05
4.14434e-05
4.62657e-05
5.15571e-05
5.14853e-05
4.89041e-05
4.59492e-05
6.08926e-05
0.000122403
0.000222334
0.00022273
0.000219394
0.000209306
0.000196045
0.000170303
0.000130673
9.60165e-05
6.31853e-05
4.25332e-05
3.13788e-05
2.27134e-05
1.89647e-05
1.65554e-05
1.7307e-05
1.53464e-05
1.5672e-05
2.41381e-05
2.49976e-05
2.6359e-05
3.17688e-05
6.88462e-05
0.000109977
0.000110112
0.000104496
8.73352e-05
7.25388e-05
6.22477e-05
5.59497e-05
5.50535e-05
5.42506e-05
5.19235e-05
5.03354e-05
4.99155e-05
5.05392e-05
5.11547e-05
5.11816e-05
5.14012e-05
5.20335e-05
5.3207e-05
5.34316e-05
5.38738e-05
5.52515e-05
5.48687e-05
5.09658e-05
4.4425e-05
4.45189e-05
5.51789e-05
8.35888e-05
8.98567e-05
8.46892e-05
6.81759e-05
5.83832e-05
5.23627e-05
5.02325e-05
4.80721e-05
4.77243e-05
4.82369e-05
4.84437e-05
4.81551e-05
4.67737e-05
4.31692e-05
3.97764e-05
3.64429e-05
3.39678e-05
3.21284e-05
3.04052e-05
3.00537e-05
3.02517e-05
3.10517e-05
3.24134e-05
3.43849e-05
3.91302e-05
4.31669e-05
4.4547e-05
4.49191e-05
4.47427e-05
4.18815e-05
3.6559e-05
3.31814e-05
3.04946e-05
2.89915e-05
2.79878e-05
2.72961e-05
2.73633e-05
2.73277e-05
2.61023e-05
2.45318e-05
2.4179e-05
2.25006e-05
2.01261e-05
1.86379e-05
1.81709e-05
1.84163e-05
2.0773e-05
2.28941e-05
2.34038e-05
2.36117e-05
2.38744e-05
2.44785e-05
2.5994e-05
2.68649e-05
2.70894e-05
2.75359e-05
2.8627e-05
3.3249e-05
4.04332e-05
4.33286e-05
4.42845e-05
4.43729e-05
4.41155e-05
4.37385e-05
4.33736e-05
4.29544e-05
4.17292e-05
4.00613e-05
3.96596e-05
3.98808e-05
4.07776e-05
4.22394e-05
4.66942e-05
4.99642e-05
5.12178e-05
5.2668e-05
5.95473e-05
6.62415e-05
6.63281e-05
5.96739e-05
4.63462e-05
3.83913e-05
3.31369e-05
2.93181e-05
2.65408e-05
2.50935e-05
2.37981e-05
2.2446e-05
2.09394e-05
1.99443e-05
1.98495e-05
2.10754e-05
2.36095e-05
2.41473e-05
2.39581e-05
2.31525e-05
2.31167e-05
2.5302e-05
3.08846e-05
3.30846e-05
3.36486e-05
3.41937e-05
3.48519e-05
3.42341e-05
3.33106e-05
3.34791e-05
3.33407e-05
3.36251e-05
3.88859e-05
4.49162e-05
4.63271e-05
4.59407e-05
4.16837e-05
3.6534e-05
3.4083e-05
3.38661e-05
3.46128e-05
3.61403e-05
3.62586e-05
3.57768e-05
3.42862e-05
3.08487e-05
2.81865e-05
2.75538e-05
2.79874e-05
3.07278e-05
3.16208e-05
3.23246e-05
3.22757e-05
3.24948e-05
3.58222e-05
3.78768e-05
4.0647e-05
4.18004e-05
4.72491e-05
5.13825e-05
5.63934e-05
5.80671e-05
5.91708e-05
5.6233e-05
5.70767e-05
5.43116e-05
4.80475e-05
4.35905e-05
4.2895e-05
4.56397e-05
5.21905e-05
5.21079e-05
5.26914e-05
4.75207e-05
5.9956e-05
0.00010228
0.000195132
0.00018581
0.000181894
0.000169006
0.000151332
0.000124892
9.0535e-05
6.2282e-05
4.06752e-05
2.73316e-05
2.11898e-05
1.50155e-05
1.36869e-05
1.37964e-05
1.58909e-05
1.52596e-05
1.48161e-05
2.22455e-05
2.5107e-05
2.57348e-05
2.84743e-05
4.43041e-05
9.31039e-05
0.000105122
0.000103675
9.58941e-05
8.03401e-05
6.78007e-05
5.98348e-05
5.82876e-05
5.73622e-05
5.48057e-05
5.32341e-05
5.31527e-05
5.43399e-05
5.53823e-05
5.54451e-05
5.55137e-05
5.5925e-05
5.6361e-05
5.60418e-05
5.61731e-05
5.60579e-05
5.50269e-05
4.80324e-05
4.28198e-05
4.44065e-05
6.26615e-05
8.7623e-05
9.0084e-05
8.07975e-05
6.65253e-05
5.79482e-05
5.21229e-05
4.93634e-05
4.67552e-05
4.65734e-05
4.69088e-05
4.68669e-05
4.63833e-05
4.49704e-05
4.16132e-05
3.82275e-05
3.48046e-05
3.27142e-05
3.11832e-05
2.97047e-05
2.92014e-05
2.92325e-05
2.96294e-05
3.08471e-05
3.2549e-05
3.65156e-05
4.15511e-05
4.38654e-05
4.45504e-05
4.45025e-05
4.28432e-05
3.729e-05
3.36824e-05
3.0708e-05
2.89985e-05
2.78792e-05
2.74485e-05
2.76002e-05
2.76293e-05
2.66391e-05
2.54148e-05
2.49974e-05
2.30397e-05
2.04845e-05
1.90277e-05
1.83872e-05
1.86005e-05
2.08385e-05
2.31637e-05
2.35598e-05
2.3657e-05
2.37755e-05
2.40707e-05
2.54208e-05
2.71707e-05
2.74844e-05
2.77151e-05
2.82727e-05
3.07349e-05
3.8026e-05
4.20444e-05
4.38674e-05
4.42279e-05
4.39943e-05
4.38205e-05
4.36773e-05
4.33228e-05
4.23744e-05
4.12962e-05
4.11595e-05
4.14472e-05
4.23751e-05
4.37356e-05
4.79854e-05
5.06997e-05
5.18241e-05
5.36295e-05
6.26037e-05
6.84122e-05
6.75955e-05
5.73422e-05
4.35044e-05
3.62247e-05
3.15733e-05
2.84609e-05
2.6253e-05
2.50892e-05
2.38249e-05
2.24993e-05
2.09619e-05
1.99659e-05
1.99718e-05
2.15688e-05
2.36346e-05
2.40228e-05
2.45677e-05
2.40536e-05
2.35966e-05
2.54381e-05
2.97574e-05
3.20051e-05
3.30737e-05
3.40497e-05
3.45994e-05
3.40551e-05
3.3242e-05
3.3387e-05
3.33059e-05
3.36314e-05
3.86915e-05
4.42853e-05
4.57411e-05
4.55089e-05
4.20463e-05
3.6612e-05
3.37969e-05
3.33845e-05
3.37236e-05
3.51868e-05
3.52992e-05
3.49813e-05
3.35648e-05
3.04581e-05
2.84842e-05
2.86624e-05
2.94224e-05
3.21646e-05
3.24011e-05
3.25801e-05
3.23114e-05
3.25367e-05
3.57523e-05
3.85508e-05
4.06055e-05
4.18131e-05
4.6695e-05
4.96454e-05
5.49698e-05
5.74768e-05
6.49812e-05
5.98537e-05
5.88392e-05
5.73972e-05
5.2364e-05
4.69281e-05
4.7073e-05
4.7488e-05
5.47603e-05
5.31891e-05
5.56003e-05
4.943e-05
5.9685e-05
8.80955e-05
0.000172933
0.000163812
0.000156143
0.000140354
0.000121516
9.27129e-05
6.18808e-05
4.0017e-05
2.4838e-05
1.66555e-05
1.36673e-05
1.07731e-05
1.02927e-05
1.10647e-05
1.46251e-05
1.60571e-05
1.51184e-05
2.01346e-05
2.75061e-05
2.88873e-05
2.989e-05
3.56639e-05
6.66453e-05
9.64151e-05
0.000101309
9.86091e-05
9.00237e-05
7.55702e-05
6.60225e-05
6.423e-05
6.33235e-05
5.9808e-05
5.7339e-05
5.7235e-05
5.87639e-05
6.05763e-05
6.08646e-05
5.99394e-05
5.98297e-05
5.91595e-05
5.7625e-05
5.70088e-05
5.63068e-05
5.36376e-05
4.37619e-05
4.1261e-05
4.54932e-05
7.09968e-05
9.01652e-05
8.99122e-05
7.75293e-05
6.57128e-05
5.73297e-05
5.08914e-05
4.71023e-05
4.51505e-05
4.52097e-05
4.56357e-05
4.54324e-05
4.49724e-05
4.39536e-05
4.01329e-05
3.66655e-05
3.33362e-05
3.16734e-05
3.058e-05
2.93815e-05
2.89818e-05
2.89388e-05
2.90127e-05
2.97493e-05
3.1231e-05
3.41809e-05
3.97995e-05
4.29282e-05
4.3996e-05
4.4132e-05
4.31938e-05
3.8497e-05
3.458e-05
3.10129e-05
2.90342e-05
2.78753e-05
2.75935e-05
2.77705e-05
2.77967e-05
2.71159e-05
2.62744e-05
2.58471e-05
2.36401e-05
2.09013e-05
1.94148e-05
1.8578e-05
1.87738e-05
2.09173e-05
2.31531e-05
2.36217e-05
2.36535e-05
2.36828e-05
2.37527e-05
2.44439e-05
2.76514e-05
2.87427e-05
2.85002e-05
2.85701e-05
2.96999e-05
3.48446e-05
3.97696e-05
4.2907e-05
4.38074e-05
4.37108e-05
4.36998e-05
4.36821e-05
4.35193e-05
4.30971e-05
4.24475e-05
4.24395e-05
4.27959e-05
4.36529e-05
4.48532e-05
4.87995e-05
5.11407e-05
5.22879e-05
5.47226e-05
6.59606e-05
7.04999e-05
6.81015e-05
5.41448e-05
4.03793e-05
3.4147e-05
3.06007e-05
2.81069e-05
2.61751e-05
2.53529e-05
2.41023e-05
2.28658e-05
2.12793e-05
2.01144e-05
2.0109e-05
2.15604e-05
2.30422e-05
2.34813e-05
2.45719e-05
2.4479e-05
2.40821e-05
2.58192e-05
2.91978e-05
3.12886e-05
3.27831e-05
3.40789e-05
3.45787e-05
3.39412e-05
3.32047e-05
3.32868e-05
3.32915e-05
3.37266e-05
3.87269e-05
4.36933e-05
4.52353e-05
4.51087e-05
4.22143e-05
3.66956e-05
3.37749e-05
3.285e-05
3.2901e-05
3.39762e-05
3.4289e-05
3.41612e-05
3.28777e-05
3.03274e-05
2.90627e-05
2.99466e-05
3.07644e-05
3.2999e-05
3.29271e-05
3.26975e-05
3.20296e-05
3.23917e-05
3.57229e-05
3.90456e-05
4.0566e-05
4.17928e-05
4.63432e-05
4.84688e-05
5.09837e-05
5.41189e-05
6.76055e-05
6.47566e-05
6.2464e-05
6.05174e-05
5.95052e-05
5.34396e-05
5.81302e-05
5.22467e-05
6.03177e-05
5.56849e-05
6.23697e-05
5.34771e-05
6.01039e-05
7.79353e-05
0.000133654
0.000131638
0.00012607
0.000113328
8.62454e-05
5.9414e-05
3.85616e-05
2.39697e-05
1.50109e-05
1.12386e-05
9.9964e-06
9.16103e-06
8.77952e-06
1.04784e-05
1.2055e-05
1.64102e-05
1.59251e-05
1.93896e-05
2.51187e-05
2.73848e-05
2.7542e-05
2.95968e-05
4.14792e-05
7.71418e-05
9.55125e-05
9.67885e-05
9.42797e-05
8.46269e-05
7.50406e-05
7.26904e-05
6.92694e-05
6.41136e-05
6.21213e-05
6.24011e-05
6.50422e-05
6.66596e-05
6.49945e-05
6.25504e-05
6.15243e-05
5.95656e-05
5.79049e-05
5.72311e-05
5.58851e-05
4.95172e-05
4.06584e-05
4.02568e-05
4.83897e-05
7.88574e-05
9.16459e-05
8.8973e-05
7.47513e-05
6.50178e-05
5.56715e-05
4.77842e-05
4.46927e-05
4.4262e-05
4.4936e-05
4.53688e-05
4.47484e-05
4.41797e-05
4.3028e-05
3.88203e-05
3.55566e-05
3.26081e-05
3.11911e-05
3.0289e-05
2.92312e-05
2.90595e-05
2.9039e-05
2.89455e-05
2.93306e-05
3.04706e-05
3.27746e-05
3.79167e-05
4.19814e-05
4.36076e-05
4.38346e-05
4.31941e-05
3.93139e-05
3.56365e-05
3.14876e-05
2.9159e-05
2.79518e-05
2.77229e-05
2.78856e-05
2.80845e-05
2.75873e-05
2.68063e-05
2.63281e-05
2.42289e-05
2.14383e-05
1.98366e-05
1.88392e-05
1.9113e-05
2.09462e-05
2.28399e-05
2.3459e-05
2.35172e-05
2.34489e-05
2.34145e-05
2.36667e-05
2.6848e-05
2.97203e-05
2.9762e-05
2.94577e-05
2.99779e-05
3.19971e-05
3.68465e-05
4.11315e-05
4.28489e-05
4.30416e-05
4.33883e-05
4.35571e-05
4.34964e-05
4.33014e-05
4.3066e-05
4.31296e-05
4.35158e-05
4.42218e-05
4.55196e-05
4.94807e-05
5.15125e-05
5.27358e-05
5.62689e-05
6.94262e-05
7.23907e-05
6.80749e-05
5.01496e-05
3.75026e-05
3.26499e-05
3.01322e-05
2.79647e-05
2.62448e-05
2.57728e-05
2.46777e-05
2.34256e-05
2.17846e-05
2.0343e-05
2.01632e-05
2.09747e-05
2.20047e-05
2.24423e-05
2.41007e-05
2.44017e-05
2.44756e-05
2.6882e-05
2.92896e-05
3.10635e-05
3.27595e-05
3.42225e-05
3.45907e-05
3.38853e-05
3.31796e-05
3.32228e-05
3.33442e-05
3.4035e-05
3.88943e-05
4.32927e-05
4.4989e-05
4.49178e-05
4.23359e-05
3.67916e-05
3.38928e-05
3.24658e-05
3.23721e-05
3.3128e-05
3.36887e-05
3.36319e-05
3.22177e-05
3.05778e-05
2.99389e-05
3.11255e-05
3.17423e-05
3.32565e-05
3.32044e-05
3.24578e-05
3.1594e-05
3.20734e-05
3.60148e-05
3.92794e-05
4.09335e-05
4.20755e-05
4.65394e-05
4.83738e-05
5.00605e-05
4.9954e-05
6.51949e-05
6.6937e-05
6.91186e-05
6.30757e-05
7.95886e-05
6.74341e-05
9.25995e-05
6.83684e-05
8.54681e-05
6.37088e-05
7.20134e-05
5.77408e-05
6.13888e-05
7.24286e-05
8.6887e-05
8.54673e-05
8.20991e-05
7.13941e-05
5.20034e-05
3.53853e-05
2.31004e-05
1.43202e-05
1.01602e-05
9.46588e-06
8.579e-06
8.32477e-06
8.03789e-06
1.0157e-05
1.03464e-05
1.32647e-05
1.58292e-05
1.72144e-05
2.12692e-05
2.12927e-05
2.05499e-05
2.19318e-05
2.82328e-05
5.16116e-05
8.41541e-05
9.34892e-05
9.33216e-05
8.94915e-05
8.28452e-05
8.02695e-05
7.4915e-05
6.93542e-05
6.8454e-05
6.99528e-05
7.15989e-05
7.05045e-05
6.57155e-05
6.28903e-05
6.16456e-05
5.93022e-05
5.78676e-05
5.69522e-05
5.43316e-05
4.38855e-05
3.76474e-05
3.93341e-05
5.39408e-05
8.55512e-05
9.24302e-05
8.69984e-05
7.33538e-05
6.42416e-05
5.2815e-05
4.43706e-05
4.41449e-05
4.42253e-05
4.50704e-05
4.50714e-05
4.4025e-05
4.33817e-05
4.18258e-05
3.70299e-05
3.43256e-05
3.19543e-05
3.08021e-05
3.0035e-05
2.90848e-05
2.90608e-05
2.9161e-05
2.90292e-05
2.93116e-05
3.01349e-05
3.19931e-05
3.64796e-05
4.11063e-05
4.31406e-05
4.34625e-05
4.30382e-05
3.98519e-05
3.68439e-05
3.22941e-05
2.94165e-05
2.80995e-05
2.79406e-05
2.81854e-05
2.84408e-05
2.78742e-05
2.71469e-05
2.67464e-05
2.50129e-05
2.21843e-05
2.04574e-05
1.93151e-05
1.95669e-05
2.09942e-05
2.19104e-05
2.26801e-05
2.29839e-05
2.28926e-05
2.28527e-05
2.29313e-05
2.52002e-05
2.93076e-05
2.98405e-05
2.98885e-05
3.03259e-05
3.14611e-05
3.37342e-05
3.92105e-05
4.15233e-05
4.20646e-05
4.2914e-05
4.33123e-05
4.33267e-05
4.32745e-05
4.32069e-05
4.33165e-05
4.36978e-05
4.43541e-05
4.58117e-05
4.98819e-05
5.16965e-05
5.30712e-05
5.84787e-05
7.27315e-05
7.40636e-05
6.62382e-05
4.65945e-05
3.49825e-05
3.15473e-05
2.99111e-05
2.79262e-05
2.66825e-05
2.62284e-05
2.52011e-05
2.39375e-05
2.22692e-05
2.05939e-05
2.01011e-05
2.04609e-05
2.15941e-05
2.19921e-05
2.31034e-05
2.40228e-05
2.60415e-05
2.82806e-05
2.9607e-05
3.10623e-05
3.30441e-05
3.46439e-05
3.46528e-05
3.3882e-05
3.31837e-05
3.32162e-05
3.3519e-05
3.44291e-05
3.9155e-05
4.30536e-05
4.47733e-05
4.46232e-05
4.22468e-05
3.67786e-05
3.41605e-05
3.24315e-05
3.21892e-05
3.28013e-05
3.3485e-05
3.33786e-05
3.17177e-05
3.11654e-05
3.07472e-05
3.1932e-05
3.23075e-05
3.33413e-05
3.33706e-05
3.22823e-05
3.12452e-05
3.18203e-05
3.62728e-05
3.93646e-05
4.17833e-05
4.33721e-05
4.82063e-05
4.91403e-05
5.06367e-05
4.96023e-05
5.75366e-05
6.37483e-05
7.56805e-05
6.7551e-05
8.21783e-05
7.6212e-05
0.000107384
9.22808e-05
0.000133812
8.83175e-05
9.58947e-05
6.79728e-05
6.3775e-05
6.87655e-05
4.72197e-05
4.61959e-05
4.33198e-05
3.71366e-05
2.79255e-05
2.03199e-05
1.36786e-05
9.34342e-06
8.4538e-06
8.62019e-06
8.00984e-06
7.67263e-06
7.6585e-06
9.37432e-06
9.4556e-06
9.30869e-06
1.38734e-05
1.52144e-05
1.7032e-05
1.64715e-05
1.56857e-05
1.66915e-05
2.06621e-05
3.30639e-05
6.91918e-05
8.86751e-05
9.16493e-05
9.0682e-05
8.79296e-05
8.60689e-05
8.0484e-05
7.59283e-05
7.57816e-05
7.59422e-05
7.52879e-05
7.12066e-05
6.51477e-05
6.23786e-05
6.05181e-05
5.82383e-05
5.71989e-05
5.55892e-05
4.96615e-05
3.71635e-05
3.50984e-05
4.00328e-05
6.32741e-05
8.93407e-05
9.27332e-05
8.45252e-05
7.28958e-05
6.27712e-05
4.89398e-05