/*--------------------------------*- C++ -*----------------------------------*\
| =========                 |                                                 |
| \\      /  F ield         | OpenFOAM: The Open Source CFD Toolbox           |
|  \\    /   O peration     | Version:  2.4.0                                 |
|   \\  /    A nd           | Web:      www.OpenFOAM.org                      |
|    \\/     M anipulation  |                                                 |
\*---------------------------------------------------------------------------*/
FoamFile
{
    version     2.0;
    format      ascii;
    class       volScalarField;
    location    "0.295";
    object      p;
}
// * * * * * * * * * * * * * * * * * * * * * * * * * * * * * * * * * * * * * //

dimensions      [0 2 -2 0 0 0 0];

internalField   nonuniform List<scalar> 
17600
(
100.994
85.3025
80.8912
79.7649
78.7753
77.8606
76.9583
76.1656
75.3788
74.7224
73.8262
73.1757
72.3798
71.5228
70.8997
69.6357
69.3355
67.5472
66.5197
65.2945
99.0861
85.3524
80.932
79.7748
78.7784
77.8611
76.959
76.1658
75.3789
74.7229
73.8262
73.1741
72.3817
71.5212
70.9017
69.6349
69.3343
67.5526
66.5032
65.085
97.6729
85.6085
81.0758
79.8135
78.7919
77.8657
76.9616
76.1675
75.38
74.7251
73.8257
73.1744
72.3841
71.5197
70.9064
69.6306
69.3368
67.5612
66.4484
64.6952
96.6972
85.9499
81.2958
79.8791
78.8211
77.8812
76.9707
76.1738
75.3853
74.7297
73.8274
73.1765
72.3886
71.5203
70.914
69.6361
69.3372
67.5918
66.3731
64.3806
95.8753
86.2849
81.56
79.9614
78.8636
77.9103
76.9901
76.1886
75.3983
74.7385
73.8343
73.1811
72.3976
71.5233
70.9252
69.6573
69.3299
67.6591
66.2872
64.3197
95.1015
86.5773
81.8377
80.0441
78.9063
77.9469
77.0186
76.2124
75.4203
74.7525
73.8479
73.1888
72.413
71.53
70.94
69.6992
69.3146
67.7624
66.2084
64.5869
94.373
86.8241
82.1138
80.1221
78.9392
77.9806
77.0503
76.2417
75.4487
74.7703
73.8683
73.1991
72.4347
71.542
70.9589
69.7606
69.297
67.8771
66.1926
64.6832
93.6999
87.0278
82.3823
80.1974
78.9609
78.0068
77.0808
76.2732
75.4799
74.7891
73.8926
73.2104
72.4607
71.559
70.981
69.8385
69.28
68.0009
66.2326
64.8722
93.0879
87.1927
82.6349
80.2753
78.9734
78.0246
77.1082
76.3045
75.5118
74.8072
73.9183
73.2216
72.4881
71.5799
71.0032
69.9278
69.2631
68.1493
66.2676
65.1022
92.5384
87.3204
82.8703
80.3572
78.9792
78.0346
77.1316
76.3345
75.5436
74.8233
73.9429
73.2331
72.5137
71.6062
71.0244
70.0185
69.2584
68.2894
66.3661
65.3791
92.0493
87.4133
83.087
80.4443
78.9804
78.0371
77.1512
76.3623
75.5752
74.8374
73.9663
73.2441
72.5368
71.6342
71.0437
70.1083
69.2705
68.4148
66.5355
65.5895
91.6195
87.4762
83.2831
80.5369
78.9783
78.0326
77.1677
76.3882
75.6056
74.8505
73.9902
73.2536
72.5575
71.6638
71.0644
70.1907
69.3033
68.5293
66.7314
65.8265
91.2464
87.5156
83.458
80.633
78.9741
78.024
77.1812
76.4118
75.6355
74.8614
74.0133
73.2658
72.5746
71.6968
71.0871
70.2695
69.3544
68.6311
66.9524
66.0921
90.9265
87.5369
83.6118
80.7263
78.9695
78.0121
77.1933
76.432
75.6639
74.8721
74.0341
73.2779
72.5916
71.7317
71.1074
70.3511
69.4167
68.7323
67.1919
66.3463
90.6564
87.5472
83.7441
80.8089
78.9665
77.999
77.2027
76.45
75.6902
74.8867
74.0545
73.2895
72.606
71.7694
71.1309
70.4255
69.4911
68.8363
67.4463
66.5991
90.4334
87.5525
83.8527
80.8803
78.9654
77.9861
77.2108
76.4642
75.7148
74.8938
74.0731
73.3032
72.6194
71.806
71.1594
70.4971
69.5751
68.9381
67.7213
66.8699
90.2581
87.5548
83.9378
80.9385
78.9669
77.9734
77.2178
76.4756
75.7352
74.9014
74.0906
73.3156
72.6341
71.8445
71.1891
70.5663
69.6671
69.0434
67.9783
67.1884
90.1271
87.5561
84
80.9837
78.969
77.9636
77.2232
76.4844
75.753
74.9073
74.1061
73.3301
72.6449
71.8873
71.221
70.6341
69.7617
69.1591
68.1935
67.4661
90.0401
87.5572
84.0408
81.0135
78.9726
77.9552
77.2285
76.4892
75.767
74.9132
74.1179
73.3469
72.6559
71.9277
71.2538
70.7053
69.8601
69.2802
68.3944
67.8033
89.997
87.559
84.0604
81.0254
78.9756
77.9504
77.2325
76.4933
75.7769
74.9169
74.1304
73.362
72.6719
71.9655
71.2938
70.7671
69.9647
69.4046
68.6203
68.1666
89.996
87.5622
84.0592
81.025
78.9778
77.9492
77.2355
76.493
75.7832
74.9207
74.1391
73.3788
72.6826
72.0017
71.3393
70.8264
70.0742
69.5218
68.8754
68.5529
90.0386
87.5659
84.0379
81.0088
78.9809
77.9507
77.2398
76.49
75.7845
74.9243
74.1452
73.3944
72.6966
72.04
71.3818
70.8911
70.1851
69.6473
69.1164
68.9654
90.1231
87.5708
83.9956
80.978
78.9804
77.9565
77.2404
76.4854
75.7791
74.9256
74.1544
73.4097
72.7112
72.0779
71.4271
70.9556
70.2912
69.7908
69.3189
69.269
90.2528
87.5744
83.9327
80.9309
78.9848
77.9632
77.2441
76.4778
75.7724
74.9283
74.1537
73.4282
72.7258
72.1115
71.4766
71.0204
70.3989
69.938
69.5062
69.6086
90.4265
87.5769
83.8467
80.8714
78.9875
77.9731
77.2435
76.4691
75.7604
74.9264
74.16
73.4425
72.7444
72.1441
71.5282
71.0819
70.5135
70.083
69.715
69.9616
90.6472
87.5755
83.7381
80.7984
78.9938
77.9825
77.2422
76.458
75.7451
74.9242
74.164
73.4571
72.7632
72.1746
71.5818
71.1438
70.6307
70.2243
69.9524
70.3147
90.9164
87.5677
83.6069
80.7127
79.0027
77.9919
77.239
76.4448
75.7263
74.9218
74.1654
73.4721
72.7817
72.2048
71.6348
71.2099
70.744
70.3746
70.1804
70.6514
91.2345
87.5506
83.4531
80.62
79.0122
78.0013
77.2315
76.4305
75.7043
74.9165
74.1681
73.4836
72.8017
72.2354
71.6856
71.2801
70.8548
70.5338
70.3786
70.8631
91.6076
87.513
83.2794
80.5221
79.0237
78.0065
77.222
76.4146
75.6807
74.9103
74.1689
73.4941
72.8226
72.2638
71.7373
71.3507
70.9664
70.698
70.5639
71.0839
92.0355
87.451
83.0855
80.4287
79.0307
78.0081
77.2073
76.3978
75.6567
74.9012
74.1697
73.5024
72.8438
72.2904
71.7908
71.4188
71.0821
70.8608
70.7769
71.306
92.523
87.3569
82.8723
80.3399
79.0334
78.0044
77.1877
76.3806
75.6308
74.891
74.1697
73.5076
72.8661
72.3157
71.8427
71.4858
71.2017
71.019
71.0211
71.5111
93.0723
87.2268
82.6399
80.2559
79.0317
77.9938
77.1635
76.3619
75.6043
74.8786
74.1681
73.5122
72.8863
72.3403
71.8918
71.5523
71.3164
71.1738
71.2748
71.6945
93.6843
87.0593
82.388
80.1775
79.0227
77.9761
77.1342
76.342
75.5785
74.8634
74.1666
73.515
72.9048
72.364
71.9365
71.6152
71.4208
71.3194
71.4964
71.8658
94.3579
86.8527
82.1203
80.1016
79.0051
77.9507
77.1008
76.3212
75.5535
74.8476
74.1642
73.5167
72.9212
72.3848
71.9752
71.67
71.5093
71.4439
71.6706
71.993
95.0867
86.6041
81.8448
80.0232
78.9762
77.9177
77.067
76.3001
75.5315
74.8328
74.1615
73.5184
72.9344
72.402
72.0066
71.7138
71.5785
71.5401
71.7998
72.1258
95.8608
86.3105
81.5685
79.9401
78.9362
77.8823
77.0372
76.2818
75.515
74.822
74.1601
73.5205
72.9447
72.4155
72.0298
71.7454
71.6273
71.6068
71.8879
72.2265
96.683
85.9748
81.3054
79.8576
78.8948
77.8545
77.0176
76.2699
75.5056
74.8162
74.1602
73.5229
72.9519
72.4246
72.0447
71.7651
71.6568
71.6472
71.9405
72.2972
97.6592
85.6329
81.086
79.7925
78.8655
77.8401
77.009
76.2642
75.502
74.8142
74.161
73.5248
72.9559
72.4297
72.0525
71.7747
71.6706
71.6665
71.9656
72.3444
99.0729
85.3765
80.9423
79.7546
78.8512
77.836
77.0072
76.2621
75.5011
74.8139
74.1614
73.5256
72.957
72.4312
72.0548
71.777
71.6735
71.6711
71.9714
72.3722
100.981
85.3266
80.9013
79.7452
78.8478
77.8352
77.0076
76.2614
75.5008
74.814
74.1614
73.5255
72.9568
72.4309
72.0547
71.7759
71.6719
71.6688
71.9674
72.3861
63.868
56.8218
45.1861
34.5966
25.5558
18.6988
18.6489
24.6512
30.9877
39.2006
51.7187
65.1318
76.0453
84.8348
91.7401
96.8331
101.087
105.527
106.8
107.996
110.618
107.959
97.4748
87.2555
79.9701
73.0121
66.3195
60.5425
55.1979
50.1075
46.385
43.7628
40.8507
38.7489
38.5736
38.5843
38.0195
38.5124
40.5858
43.2904
46.2655
49.3384
52.5178
56.1136
59.8379
63.0897
65.8617
67.9834
69.0658
69.0982
68.0832
66.2078
64.0732
61.3303
58.3604
55.2012
51.8768
48.4533
44.6002
40.1149
35.3791
30.2998
25.2384
20.6675
16.4124
13.5718
12.3803
11.7538
12.4833
15.0291
18.5757
23.0328
28.0889
33.5657
39.2257
44.9161
51.0958
57.1885
62.182
66.9097
71.3929
74.8035
77.6128
79.9841
81.9652
83.5831
84.7521
85.7831
86.8312
87.3325
87.5247
88.0478
88.3217
88.4038
88.6501
88.4818
88.0361
87.7242
87.1871
86.3909
85.284
83.8543
82.4376
80.2194
77.2769
74.4843
70.9721
66.7574
62.8659
59.2515
55.857
52.9586
50.7537
49.7123
49.8938
50.9979
52.8652
55.3962
58.6104
62.1157
65.2686
67.7082
69.7756
71.3739
71.7233
70.7713
68.9905
66.2377
62.7677
58.9808
54.5074
49.4415
44.1648
39.1102
34.4003
30.5263
27.4283
25.0978
25.0923
26.7983
28.7362
30.6648
33.2091
37.0451
42.2401
48.2188
54.1093
59.0352
63.3152
67.7129
71.901
74.9215
76.5641
78.3246
79.6834
80.7712
81.1447
81.3665
80.6683
79.8385
78.3254
76.0842
73.8172
70.717
67.0984
62.5709
56.9876
51.092
45.4516
40.7694
37.2681
33.6051
31.7414
30.9999
31.7452
32.8041
36.9934
41.481
46.4696
50.6846
56.3049
62.9818
69.0953
74.7714
79.415
83.2739
86.2385
87.6387
88.1487
88.0998
87.7664
87.5181
87.141
86.897
86.8997
86.315
83.8408
78.6755
70.2142
36.026
63.5634
57.9708
46.8909
36.8342
28.4396
21.9003
21.5522
28.1809
35.4173
43.2845
54.5063
66.9502
77.0929
85.1214
91.4331
96.4446
100.567
104.565
106.234
106.953
109.012
107.701
98.4648
88.8582
81.3661
74.1422
67.5385
61.9451
56.5188
51.5281
48.1549
45.7523
42.8368
40.8704
41.0098
41.3163
41.0266
41.6244
43.6145
46.2688
49.2267
52.2173
55.1718
58.4765
61.9711
65.084
67.7024
69.6194
70.5142
70.2973
69.054
67.0234
64.6754
61.7154
58.5852
55.273
51.7935
48.2282
44.1128
39.2569
34.1111
28.5732
23.012
18.0438
13.5618
10.6221
9.27782
8.62407
9.62421
12.4434
16.3545
21.1881
26.514
32.3238
38.249
44.1078
50.4321
56.5145
61.5523
66.6181
71.2964
74.7369
77.6724
80.2076
82.2086
83.8774
85.0787
86.0723
87.0836
87.5672
87.7292
88.2104
88.4802
88.5625
88.7913
88.6015
88.1533
87.8262
87.3149
86.5203
85.4271
84.2041
82.889
80.7263
78.1375
75.7358
72.3903
68.5466
65.2511
61.855
58.4769
55.9938
54.153
53.0915
53.2867
54.4629
56.2874
58.7386
61.8163
65.099
68.0323
70.2462
71.9242
73.1166
73.006
71.5594
69.2709
66.0859
62.2567
58.145
53.3794
47.9985
42.441
37.2261
32.4215
28.4798
25.32
23.1066
23.2746
25.1097
27.2018
29.2243
31.7084
35.5382
40.8672
47.1128
53.1736
58.2537
62.6993
67.2399
71.4967
74.4773
76.0892
77.8592
79.3478
80.3683
80.8184
81.0585
80.4423
79.7505
78.3753
76.2808
74.184
71.0254
67.5477
63.1983
57.8023
52.1401
46.6876
41.968
38.5128
34.9
33.1454
32.0725
32.9168
33.7254
37.6981
41.8672
46.6781
50.8409
56.3256
62.8532
69.139
74.5081
79.2437
83.3917
86.2983
87.6243
88.0306
87.7035
87.1057
86.62
86.0547
85.6393
85.7497
84.7387
81.8171
74.5267
65.3631
26.2739
63.1395
58.7058
47.8758
38.1251
31.2466
25.8012
25.3714
31.9021
39.7214
47.4184
57.1827
68.437
77.9123
85.3285
91.0991
95.8406
99.9337
103.398
105.134
105.55
107.142
106.619
98.9127
90.1882
82.6287
75.3552
68.9239
63.4393
57.8377
52.968
50.0482
47.9118
45.0476
43.1246
43.4484
44.0332
44.0305
44.7033
46.5809
49.1551
52.0781
54.9886
57.7424
60.786
64.0801
67.0802
69.5517
71.2822
72.0094
71.5693
70.0927
67.934
65.3231
62.1654
58.9099
55.4954
51.8551
48.08
43.6501
38.4393
32.8824
26.8991
20.827
15.4348
10.7614
7.70099
6.17835
5.53381
6.81567
9.90766
14.1661
19.3112
24.917
31.1338
37.3824
43.4494
49.8811
55.9225
61.0501
66.4072
71.2035
74.6936
77.7974
80.466
82.494
84.216
85.4409
86.3958
87.3817
87.8461
87.9745
88.4006
88.6532
88.739
88.9496
88.7422
88.3045
87.9627
87.4592
86.6635
85.6096
84.5804
83.3423
81.237
78.9593
76.8817
73.7091
70.248
67.5347
64.3325
61.0016
58.967
57.4408
56.3652
56.6144
57.8639
59.6308
62.0234
65.0065
68.0762
70.8059
72.8033
74.1587
74.9621
74.4224
72.5032
69.6967
66.0705
61.9322
57.496
52.4606
46.77
40.9475
35.5683
30.6929
26.688
23.5024
21.4385
21.7159
23.6721
25.9715
28.0934
30.5033
34.3057
39.7208
46.176
52.3535
57.5661
62.1858
66.8715
71.1532
74.067
75.6838
77.4525
79.1035
80.0168
80.6004
80.8059
80.3424
79.7252
78.4606
76.5118
74.4177
71.2915
67.9532
63.7963
58.7362
53.3023
48.0301
43.248
39.8252
36.2525
34.6249
33.1817
34.1405
34.682
38.3704
42.287
46.8232
50.9322
56.306
62.7071
69.2118
74.2159
78.9343
83.5044
86.3059
87.6459
87.9615
87.3785
86.4726
85.6437
85.0951
84.2834
84.7515
83.0647
80.3934
70.5652
60.9619
23.8799
62.5852
59.1599
49.16
39.6437
34.1767
30.3542
30.1216
35.9922
43.8153
51.3479
59.854
69.7013
78.5592
85.4825
90.8916
95.1569
99.1962
102.385
103.913
104.138
105.272
104.992
98.9106
91.1139
83.7664
76.7543
70.5389
65.1004
59.3602
54.6063
52.1207
50.2177
47.2535
45.5234
45.9481
46.7687
47.0684
47.7832
49.5081
51.9724
54.828
57.6375
60.239
63.0527
66.1372
69.0483
71.4137
72.9801
73.5289
72.8647
71.2203
68.9011
66.0097
62.7311
59.3834
55.8681
52.0554
47.9901
43.22
37.6754
31.7041
25.2919
18.7537
12.9314
8.06263
4.85526
3.14846
2.56947
4.12464
7.4459
12.0375
17.4542
23.3338
29.9995
36.6191
42.9296
49.4565
55.4427
60.6738
66.28
71.1644
74.6894
77.9716
80.7638
82.8306
84.5881
85.8327
86.7664
87.7157
88.149
88.2493
88.6175
88.8499
88.9389
89.1173
88.8971
88.486
88.1175
87.6034
86.826
85.8253
84.9537
83.7877
81.7487
79.7402
77.9107
74.9265
71.8615
69.6432
66.6281
63.4401
61.8092
60.5288
59.4801
59.8052
61.1196
62.8678
65.2207
68.109
70.991
73.5517
75.3613
76.4382
76.8916
75.9532
73.5874
70.2728
66.2084
61.7633
57.0382
51.7456
45.7769
39.696
34.1667
29.2101
25.1591
21.9683
20.0665
20.4365
22.5245
25.0634
27.2879
29.6579
33.4129
38.8277
45.4209
51.6622
56.9753
61.7806
66.6114
70.8573
73.7286
75.3379
77.1123
78.9018
79.7563
80.4173
80.6047
80.3186
79.7788
78.5117
76.7352
74.6458
71.7368
68.4484
64.5792
59.8105
54.5793
49.4438
44.5839
41.183
37.6005
36.1116
34.3174
35.3603
35.7049
39.0283
42.7951
46.9428
51.0126
56.1144
62.3864
69.0641
73.8501
78.5127
83.4614
86.2162
87.687
87.8761
87.0684
85.8735
84.5267
84.1233
82.8775
84.2316
81.1222
79.3773
66.8629
56.9765
25.2889
61.9179
59.2695
50.8245
41.8997
37.1568
34.9353
35.1629
40.1531
47.454
54.7242
62.345
70.8937
79.1061
85.5705
90.723
94.5986
98.4134
101.524
102.934
103.032
103.65
103.272
98.5264
91.6475
84.8991
78.3219
72.3658
66.9748
61.2664
56.6447
54.3917
52.672
49.9061
48.2079
48.5853
49.5598
50.1302
50.8682
52.41
54.721
57.4787
60.1771
62.6312
65.2691
68.1676
70.979
73.2399
74.6882
75.0681
74.1749
72.4101
69.8965
66.724
63.405
60.0085
56.3463
52.3475
47.946
42.8536
36.9955
30.5987
23.7474
16.8197
10.6178
5.55573
2.14837
0.28849
-0.157514
1.61359
5.09722
9.97706
15.6163
21.799
28.9375
35.9205
42.4992
49.1435
55.1046
60.4488
66.2543
71.1688
74.714
78.2123
81.0964
83.1864
84.9883
86.2578
87.1646
88.0555
88.467
88.5562
88.873
89.0684
89.154
89.287
89.0669
88.6916
88.2805
87.752
87.001
86.0609
85.3114
84.2133
82.2708
80.4766
78.8258
76.0605
73.3794
71.5416
68.7198
65.7601
64.4803
63.3707
62.3669
62.8179
64.2037
65.9345
68.2635
71.0786
73.8164
76.2482
77.8917
78.7373
78.8872
77.5853
74.7815
71.0026
66.511
61.757
56.7635
51.2392
45.0036
38.6899
33.0189
27.9843
23.8925
20.7175
18.9753
19.455
21.6989
24.4786
26.7993
29.1771
32.8423
38.1971
44.8615
51.1102
56.4941
61.5313
66.4472
70.6338
73.4606
75.0429
76.8672
78.7437
79.6348
80.3143
80.5403
80.397
79.9382
78.5846
77.0966
75.0693
72.4457
69.1332
65.6082
60.9251
55.933
50.8496
45.9271
42.5694
38.9101
37.5843
35.4783
36.536
36.8288
39.7012
43.4089
47.0957
51.1896
55.852
61.816
68.4596
73.2618
78.0129
83.0603
86.07
87.6136
87.658
86.6229
85.1236
83.2718
83.2594
81.0907
83.9211
78.7624
78.8513
63.7808
53.2298
27.1729
61.6992
59.1054
52.4137
44.4179
39.912
38.7777
39.631
43.8707
50.462
57.4363
64.4186
71.9604
79.5899
85.575
90.4922
94.1806
97.721
100.732
102.215
102.079
102.22
101.684
97.7797
91.8485
85.9277
79.8989
74.2634
69.0273
63.6529
59.1644
56.8817
55.3252
52.8494
51.1988
51.4045
52.3983
53.1746
53.9408
55.2779
57.3987
60.0187
62.5767
64.9002
67.4204
70.1642
72.8747
75.0364
76.3955
76.5927
75.5401
73.659
70.9038
67.486
64.1564
60.7443
56.8593
52.6858
47.9418
42.5643
36.4229
29.5866
22.3017
15.0432
8.53796
3.31485
-0.307696
-2.29777
-2.56594
-0.669835
2.88469
8.0059
13.8683
20.3951
27.977
35.2877
42.1638
48.9574
54.8977
60.3469
66.3248
71.2
74.7807
78.5228
81.4487
83.557
85.4194
86.6921
87.5804
88.4183
88.8075
88.8956
89.1513
89.2951
89.382
89.4684
89.2492
88.914
88.4616
87.9102
87.19
86.3188
85.639
84.6106
82.8
81.1676
79.6478
77.1285
74.8181
73.2222
70.5877
67.9633
66.9504
65.923
65.055
65.634
67.0504
68.794
71.1371
73.8993
76.5132
78.8483
80.3822
81.0337
80.9448
79.3026
76.0691
71.8595
66.9939
61.928
56.6782
50.9357
44.4369
37.9304
32.1237
27.0218
22.8979
19.7533
18.1845
18.8481
21.1921
24.1711
26.5748
29.0026
32.5607
37.852
44.4776
50.6865
56.1388
61.4359
66.3636
70.4993
73.2508
74.8416
76.7117
78.6818
79.6727
80.3516
80.6341
80.5665
80.1593
78.828
77.5784
75.6464
73.2734
69.9635
66.637
61.9875
57.2828
52.2169
47.2854
44.022
40.256
39.0645
36.6742
37.6262
38.0246
40.4281
44.1275
47.3663
51.4268
55.7831
61.1779
67.6107
72.3133
77.2595
82.1239
85.7731
87.2114
87.1736
85.7669
84.3572
81.7511
82.0792
79.2372
83.5366
76.0506
78.1219
60.9094
49.2863
27.9915
62.0646
59.2634
53.8795
46.9893
42.7026
41.9918
43.3889
47.1537
53.036
59.6498
66.1443
72.8476
79.9889
85.4971
90.1428
93.7663
97.027
99.959
101.176
100.971
100.861
100.21
96.7564
91.7609
86.7245
81.3317
76.03
71.1363
66.3597
62.0104
59.5402
58.0873
55.9863
54.4427
54.3935
55.2572
56.1316
56.9247
58.0778
59.9725
62.4259
64.8359
67.0363
69.464
72.114
74.7181
76.807
78.0836
78.095
76.9336
74.9433
71.9211
68.3052
64.9686
61.524
57.397
53.0617
47.9929
42.3573
35.9556
28.708
21.0097
13.4588
6.72973
1.38426
-2.43661
-4.5168
-4.60558
-2.68857
0.851297
6.17379
12.2653
19.1605
27.1221
34.7189
41.9354
48.8909
54.7975
60.393
66.4898
71.2511
74.9414
78.9011
81.8008
83.954
85.8858
87.1412
88.0245
88.798
89.1451
89.2433
89.4315
89.5298
89.6211
89.656
89.4279
89.1345
88.658
88.0901
87.4021
86.5877
85.9181
84.967
83.3245
81.8167
80.4016
78.156
76.1639
74.6887
72.2719
70.0279
69.1942
68.2134
67.4989
68.2347
69.6728
71.4348
73.8028
76.5097
79.0678
81.3417
82.8098
83.3064
83.0402
81.0902
77.4438
72.8226
67.6505
62.2707
56.7983
50.8106
44.0749
37.4072
31.4862
26.3328
22.179
19.0892
17.6977
18.4685
20.9787
24.0815
26.5564
29.0477
32.5048
37.759
44.2613
50.4101
55.9027
61.4624
66.3783
70.4384
73.0963
74.7253
76.6231
78.7355
79.7717
80.4816
80.788
80.7462
80.439
79.327
78.1115
76.3455
74.0831
70.8353
67.5658
63.0425
58.5883
53.6281
48.7326
45.5874
41.7086
40.5507
37.8991
38.6205
39.2555
41.1714
44.8295
47.7175
51.6071
55.8742
60.6777
66.8896
71.2072
75.9578
80.6471
84.8882
86.1881
86.27
84.4252
83.3269
79.7842
80.5575
77.1145
82.1664
72.9671
76.4086
58.0948
45.0253
27.6283
62.192
59.6434
55.3905
49.6249
45.7868
45.1076
46.6551
50.2085
55.384
61.5564
67.6108
73.6317
80.2106
85.3279
89.6254
93.1948
96.188
99.0892
100.095
99.7258
99.5976
98.82
95.6604
91.4894
87.2771
82.5322
77.5777
73.1888
69.1171
64.9312
62.2902
60.9224
59.2017
57.8048
57.4607
58.0459
58.9347
59.7507
60.7535
62.4355
64.7005
66.9437
69.0472
71.3958
73.9914
76.4926
78.5372
79.709
79.5812
78.3389
76.2214
72.9298
69.168
65.8321
62.2642
57.9851
53.4706
48.1012
42.2389
35.6092
27.9934
19.9265
12.0968
5.19474
-0.227233
-4.20623
-6.32969
-6.27826
-4.4361
-0.957253
4.55413
10.9149
18.1483
26.3664
34.2349
41.8147
48.908
54.8029
60.5877
66.7237
71.3401
75.1845
79.2907
82.165
84.3969
86.3691
87.5853
88.4803
89.1931
89.4869
89.5996
89.7164
89.7736
89.8627
89.8499
89.6067
89.3489
88.8855
88.3112
87.6335
86.8528
86.1393
85.2707
83.8308
82.4347
81.1204
79.1408
77.3939
75.9885
73.8042
71.9358
71.2215
70.2669
69.7397
70.6136
72.0669
73.8394
76.255
78.9311
81.4446
83.6988
85.1145
85.5483
85.1385
82.9522
78.885
73.9015
68.4402
62.7978
57.1083
50.8771
43.9321
37.1326
31.1015
25.9216
21.7469
18.7171
17.5026
18.3813
21.0113
24.1512
26.6913
29.2478
32.6552
37.9034
44.2227
50.2842
55.8238
61.6861
66.5154
70.3997
73.0145
74.6726
76.6627
78.8568
79.8715
80.7234
80.9716
80.9742
80.8573
79.9709
78.6438
77.0862
74.7501
71.7621
68.5069
64.1951
59.9388
55.1671
50.2318
47.2204
43.2653
42.0077
39.148
39.5218
40.4522
41.918
45.4552
48.0495
51.6434
55.7861
60.2204
66.2128
70.3699
74.4399
78.9462
83.1433
84.3675
84.91
82.5929
82.0327
77.587
78.192
74.3979
79.4573
69.4188
72.4522
54.5521
40.2922
26.8011
63.4761
60.8209
56.708
52.1201
48.8951
48.2651
49.6584
53.0696
57.6596
63.2749
68.9088
74.3418
80.3614
85.0834
88.985
92.477
95.2252
98.0167
98.9391
98.4675
98.3827
97.5276
94.6867
91.1752
87.6487
83.5036
78.9334
75.0877
71.6854
67.7883
65.1092
63.7168
62.3229
61.0718
60.4499
60.7139
61.5449
62.3542
63.2538
64.7724
66.8412
68.9077
70.9166
73.2079
75.763
78.2015
80.1975
81.2753
81.0503
79.7295
77.46
73.9113
70.048
66.7467
62.9578
58.6153
53.9184
48.2631
42.1936
35.3769
27.444
19.1083
10.9961
3.94114
-1.52837
-5.62661
-7.75888
-7.6297
-5.91392
-2.47356
3.22204
9.84009
17.3662
25.7719
33.889
41.8055
49.0155
54.9351
60.9368
67.0023
71.4447
75.5083
79.7092
82.5468
84.8425
86.8481
88.052
88.9729
89.612
89.8345
89.9566
90.0009
90.0199
90.1112
90.0709
89.7967
89.5616
89.1474
88.5611
87.8699
87.1101
86.3324
85.5307
84.3056
83.0241
81.7942
80.0566
78.517
77.1713
75.2018
73.68
73.0384
72.1158
71.7969
72.7599
74.2227
76.0484
78.4847
81.1357
83.6293
85.911
87.2949
87.7292
87.2278
84.8439
80.4012
75.0687
69.337
63.4904
57.598
51.1559
44.0422
37.1207
30.9783
25.7786
21.5978
18.6315
17.5649
18.5183
21.2286
24.3614
26.9598
29.6042
33.0159
38.2474
44.3782
50.312
55.9085
62.0659
66.6943
70.3666
73.0196
74.6827
76.8213
78.9827
80.0651
81.0576
81.2007
81.3558
81.3339
80.513
79.0891
77.7958
75.383
72.7639
69.5084
65.5431
61.3982
56.7831
51.6751
48.8676
44.9216
43.424
40.4127
40.3555
41.5984
42.6943
46.078
48.286
51.5523
55.4238
59.7849
65.3689
69.8594
73.5711
77.3771
81.0248
82.0013
83.0531
80.4832
79.7181
75.5324
75.8621
71.6552
73.0366
63.8494
65.4603
49.265
36.138
26.1688
64.4269
61.7455
57.9224
54.3215
51.5828
51.0972
52.3331
55.5691
59.7708
64.7388
69.9981
74.931
80.48
84.9348
88.3779
91.7282
94.2541
96.7694
97.7607
97.2692
97.1385
96.4296
93.9919
90.8779
87.8904
84.2706
80.0861
76.7423
73.9358
70.4502
67.7788
66.3051
65.1911
64.0641
63.2441
63.2245
63.9323
64.7277
65.5631
66.9759
68.8487
70.714
72.6472
74.9195
77.4231
79.8219
81.7578
82.7594
82.4736
81.0939
78.6316
74.8301
70.9204
67.6827
63.6505
59.2744
54.4202
48.5105
42.242
35.2316
27.0623
18.5644
10.2018
2.98848
-2.52384
-6.71711
-8.86208
-8.70976
-7.10924
-3.64352
2.2483
9.07655
16.8092
25.3233
33.6977
41.9322
49.203
55.1938
61.3955
67.2919
71.6277
75.9481
80.1139
82.9268
85.3028
87.353
88.5551
89.483
90.0391
90.1894
90.311
90.2929
90.2839
90.3859
90.3308
90.0132
89.778
89.4261
88.809
88.1058
87.375
86.5295
85.7662
84.7562
83.5771
82.4093
80.8958
79.5586
78.2715
76.4793
75.2645
74.6664
73.7829
73.6654
74.7073
76.1587
78.0354
80.5
83.1445
85.6549
87.9622
89.3611
89.8254
89.3232
86.7383
81.9861
76.3048
70.328
64.2947
58.244
51.6483
44.4154
37.3829
31.1253
25.9117
21.7163
18.801
17.8478
18.8434
21.6042
24.6883
27.3708
30.1449
33.5899
38.7943
44.7492
50.4799
56.2142
62.5647
66.8662
70.3816
73.0898
74.7787
77.0638
79.2012
80.4511
81.415
81.5225
81.8484
81.7282
80.9735
79.5873
78.5758
76.1325
73.8154
70.5815
67.1027
62.899
58.4126
53.1183
50.5302
46.6871
44.8349
41.6828
41.1538
42.7382
43.4733
46.7618
48.5656
51.4023
54.9731
59.3627
64.5684
69.3895
73.4594
76.1988
79.0187
79.7078
80.6928
78.1028
77.3856
73.5648
73.2978
69
65.6133
57.6093
53.6976
42.3245
33.7731
26.618
65.2645
62.7244
59.024
56.0327
53.7779
53.4489
54.5613
57.6289
61.5559
65.9168
70.8269
75.4039
80.4546
84.7675
87.8934
91.0297
93.361
95.5144
96.631
96.1682
95.9472
95.5345
93.4383
90.5391
87.9936
84.8176
81.0515
78.1522
75.7649
72.7132
70.1215
68.5957
67.6753
66.6737
65.7676
65.5614
66.1273
66.8902
67.6934
69.0104
70.709
72.3898
74.2467
76.5155
78.9817
81.3419
83.21
84.1688
83.8137
82.4007
79.7534
75.6726
71.7524
68.5851
64.3613
59.9623
54.9563
48.8419
42.4126
35.2127
26.8444
18.2324
9.7188
2.38359
-3.21561
-7.4963
-9.66234
-9.54716
-7.99945
-4.42082
1.62526
8.59371
16.4663
25.0895
33.7095
42.164
49.465
55.5847
61.9371
67.617
71.9164
76.4438
80.508
83.3511
85.7888
87.8761
89.084
90.0002
90.4725
90.568
90.667
90.6008
90.5776
90.7035
90.6288
90.2583
89.9971
89.6895
89.0427
88.3559
87.6644
86.7644
86.0097
85.1707
84.0856
82.9646
81.6642
80.5239
79.2851
77.6641
76.7009
76.1077
75.2981
75.3698
76.443
77.888
79.8314
82.3162
84.9424
87.5002
89.8556
91.3212
91.8511
91.3858
88.6231
83.5883
77.6013
71.3863
65.1835
59.0121
52.3153
45.0335
37.9013
31.5531
26.3227
22.129
19.2323
18.3341
19.3231
22.1093
25.1411
27.9619
30.8846
34.399
39.5577
45.3109
50.8408
56.833
63.1271
67.036
70.475
73.2304
74.9936
77.4105
79.5788
80.9601
81.8105
81.9651
82.3655
82.1853
81.5649
80.2588
79.3683
76.9528
74.9152
71.7408
68.7564
64.3899
60.0733
54.729
52.2429
48.5331
46.2255
42.9666
41.9611
43.9177
44.3623
47.4664
49.0061
51.1802
54.6012
58.9444
63.811
68.8679
73.0209
75.2639
77.3924
77.7621
78.145
75.8294
74.8211
71.0001
69.9314
64.5615
60.2422
53.582
43.1374
37.3464
33.2788
28.1015
65.9927
63.6825
60.0643
57.4444
55.5935
55.3873
56.4192
59.2996
63.044
66.9554
71.5049
75.7878
80.378
84.4327
87.3673
90.3781
92.5862
94.3891
95.5885
95.1864
94.8892
94.7151
92.8357
90.1655
87.9711
85.2093
81.8918
79.3013
77.1462
74.5381
72.1003
70.5806
69.7377
68.8851
68.0167
67.6745
68.1024
68.8147
69.62
70.8783
72.4149
73.9355
75.7224
78.0037
80.4327
82.7409
84.5405
85.4738
85.0663
83.5972
80.7903
76.4529
72.5216
69.3894
65.1059
60.6631
55.5241
49.2582
42.7284
35.364
26.794
18.114
9.54061
2.15988
-3.56283
-7.9511
-10.1558
-10.1053
-8.53699
-4.80666
1.30457
8.34514
16.3534
25.0993
33.9108
42.5147
49.8405
56.1068
62.5334
67.9715
72.312
76.9973
80.9337
83.8081
86.3054
88.4219
89.638
90.5064
90.9035
90.9729
91.0222
90.9327
90.9023
91.0461
90.9291
90.5201
90.2182
89.9153
89.2645
88.6239
87.9903
87.041
86.264
85.5478
84.5623
83.4715
82.3689
81.405
80.2229
78.7693
77.9873
77.4023
76.6886
76.9119
77.9915
79.4398
81.4467
83.9307
86.5433
89.168
91.5797
93.1369
93.7884
93.3865
90.489
85.1843
78.9358
72.5122
66.1558
59.8774
53.1188
45.8444
38.6398
32.2345
27.0076
22.8386
19.9604
19.0488
19.9876
22.7705
25.7464
28.751
31.8103
35.4338
40.5141
46.0285
51.4344
57.6666
63.5924
67.2187
70.6549
73.4913
75.3693
77.8711
80.0743
81.4471
82.1958
82.4215
82.9479
82.8363
82.2474
81.0133
80.0793
77.8459
75.9989
72.8803
70.3389
65.8898
61.8197
56.5432
53.9469
50.3588
47.6486
44.3309
42.8446
45.0847
45.4044
48.1553
49.6503
51.0193
54.2644
58.6593
63.0282
68.5253
71.9232
74.1541
76.0078
76.1174
75.8874
73.6271
71.9182
68.0662
66.3653
59.9698
55.2882
48.9874
39.5497
38.9692
34.7174
30.1949
66.6164
64.5583
61.1162
58.7448
57.1643
57.1261
58.1569
60.7645
64.265
67.8657
72.1155
76.0422
80.282
84.0697
86.7609
89.6326
91.7896
93.3817
94.6132
94.2988
93.9429
93.8729
92.2247
89.8253
87.8519
85.5449
82.7043
80.2952
78.2727
76.0189
73.7725
72.3362
71.4742
70.7746
70.0112
69.5583
69.9016
70.5794
71.3855
72.6151
74.0115
75.3915
77.1028
79.3616
81.766
83.9869
85.7362
86.6255
86.198
84.6492
81.6922
77.1852
73.2462
70.0541
65.8477
61.3404
56.1278
49.7737
43.1834
35.6927
26.9482
18.259
9.66665
2.28975
-3.54742
-8.03712
-10.2925
-10.3155
-8.6854
-4.81329
1.26166
8.32052
16.4781
25.3444
34.2987
42.9734
50.3205
56.7477
63.1603
68.3932
72.8296
77.5727
81.3747
84.2853
86.839
88.9694
90.2027
91.0132
91.3465
91.4014
91.3767
91.2835
91.2677
91.3897
91.2006
90.7888
90.443
90.1158
89.4922
88.9249
88.348
87.3347
86.5185
85.8939
85.0092
83.9515
83.0199
82.2112
81.0804
79.7877
79.1518
78.5665
77.9529
78.3076
79.3739
80.8213
82.8902
85.3715
87.9516
90.6396
93.126
94.8018
95.6333
95.3071
92.3254
86.762
80.2915
73.6893
67.2108
60.8159
54.0604
46.7797
39.5757
33.1246
27.9247
23.8188
20.9855
20.0358
20.8828
23.6244
26.5389
29.75
32.895
36.6513
41.6117
46.8869
52.3076
58.6355
63.9774
67.446
70.9075
73.879
75.9079
78.4714
80.6197
81.9177
82.6814
82.9689
83.5987
83.5228
82.9134
81.8404
80.8297
78.8312
76.9767
73.8744
71.7907
67.4143
63.6121
58.4276
55.5682
52.0765
48.9327
45.7349
43.881
46.2328
46.6131
48.8202
50.385
51.1346
54.0982
58.8099
62.8266
68.4853
70.9694
72.8518
74.2386
74.2252
73.9009
71.7384
69.2211
65.4311
62.4065
57.2427
51.9828
46.1518
40.32
43.3714
37.4349
32.4042
67.1561
65.353
62.1219
60.002
58.7047
58.7593
59.6561
61.9913
65.3226
68.6442
72.664
76.2691
80.1122
83.7128
86.2232
88.8983
90.9313
92.3888
93.6334
93.4649
93.0534
92.9938
91.6599
89.487
87.6704
85.8841
83.4865
81.1515
79.243
77.2685
75.2974
73.8574
73.0092
72.4853
71.8435
71.374
71.6752
72.2683
73.0508
74.2673
75.5345
76.7499
78.3771
80.5757
82.9352
85.0679
86.7708
87.603
87.1732
85.5319
82.432
77.8605
73.9062
70.6263
66.4991
61.9489
56.7899
50.3232
43.7493
36.2068
27.3382
18.6909
10.0415
2.70985
-3.16573
-7.73859
-10.0308
-10.1224
-8.41945
-4.50129
1.43044
8.54696
16.8737
25.8118
34.853
43.5603
50.934
57.4915
63.8195
68.8841
73.4236
78.1369
81.8442
84.7789
87.3885
89.5313
90.7745
91.515
91.7873
91.8356
91.7353
91.6312
91.6518
91.7103
91.4544
91.0621
90.6788
90.3076
89.7289
89.2449
88.6937
87.6169
86.7683
86.2248
85.429
84.4247
83.6379
82.9484
81.8432
80.7241
80.2071
79.6012
79.1068
79.5569
80.5985
82.0605
84.1562
86.6222
89.177
91.9182
94.5072
96.3049
97.3724
97.1501
94.1152
88.3263
81.6458
74.89
68.3023
61.8536
55.1051
47.8663
40.6654
34.2288
29.0208
25.0202
22.2773
21.3093
22.0589
24.7273
27.5415
30.9337
34.1071
37.9952
42.8368
47.9134
53.4033
59.6218
64.3349
67.7082
71.2581
74.3575
76.5884
79.1538
81.1328
82.4899
83.3781
83.6442
84.2229
84.2112
83.6642
82.7601
81.7046
79.8348
77.8878
74.8163
73.1272
68.9189
65.3893
60.268
57.0731
53.6724
50.1065
47.1012
45.1927
47.4219
47.9552
49.5285
51.1007
51.6172
54.3232
59.4109
63.5883
68.6694
70.6044
71.8394
71.9622
72.2178
71.9422
70.0149
67.1414
63.3278
58.9207
55.1442
50.1058
47.2617
44.1681
47.1869
39.8699
34.228
67.5851
66.0287
63.0985
61.2291
60.0846
60.1898
61.0015
63.0671
66.2809
69.3169
73.0305
76.4229
79.8828
83.3105
85.6891
88.2416
90.196
91.4672
92.6639
92.6614
92.203
92.1634
91.18
89.17
87.5307
86.1811
84.1054
81.8977
80.1191
78.4261
76.7879
75.3338
74.5025
74.1126
73.5717
73.1683
73.3906
73.8537
74.6266
75.8268
76.9449
77.9963
79.5278
81.6578
83.9229
85.9722
87.6198
88.382
87.9518
86.2295
83.0027
78.4148
74.4307
71.196
67.0266
62.4843
57.4918
50.8463
44.4278
36.8812
27.9936
19.4171
10.6395
3.39878
-2.41712
-7.04201
-9.34539
-9.52357
-7.75417
-3.88404
1.86759
9.07963
17.5397
26.4755
35.5829
44.2838
51.6486
58.311
64.5053
69.4391
74.0796
78.7014
82.3586
85.3
87.9567
90.0877
91.3299
92.0091