/*--------------------------------*- C++ -*----------------------------------*\
| =========                 |                                                 |
| \\      /  F ield         | OpenFOAM: The Open Source CFD Toolbox           |
|  \\    /   O peration     | Version:  2.4.0                                 |
|   \\  /    A nd           | Web:      www.OpenFOAM.org                      |
|    \\/     M anipulation  |                                                 |
\*---------------------------------------------------------------------------*/
FoamFile
{
    version     2.0;
    format      ascii;
    class       volScalarField;
    location    "0.125";
    object      p;
}
// * * * * * * * * * * * * * * * * * * * * * * * * * * * * * * * * * * * * * //

dimensions      [0 2 -2 0 0 0 0];

internalField   nonuniform List<scalar> 
17600
(
63.233
47.4374
43.1269
41.9828
40.9698
40.0651
39.2265
38.3216
37.6293
36.9694
36.0527
35.4336
34.6712
33.9452
33.026
32.5327
31.48
30.6343
29.6011
28.6546
61.3234
47.4868
43.1674
41.9936
40.9728
40.0648
39.2279
38.3215
37.6285
36.9711
36.0528
35.4319
34.6725
33.9457
33.0255
32.5312
31.4842
30.6239
29.6105
28.6002
59.9082
47.7424
43.3112
42.0328
40.9859
40.0692
39.2313
38.3225
37.6292
36.9741
36.0526
35.4312
34.6741
33.947
33.0249
32.5311
31.4918
30.6094
29.6478
28.6111
58.9305
48.0845
43.531
42.0979
41.015
40.0851
39.2399
38.3292
37.6335
36.9788
36.0542
35.4319
34.6775
33.9487
33.0292
32.5317
31.5085
30.5992
29.7094
28.7016
58.1071
48.4212
43.7941
42.179
41.0581
40.1153
39.2572
38.3461
37.6441
36.987
36.0607
35.4348
34.684
33.9513
33.041
32.5326
31.5379
30.5993
29.8156
28.8477
57.3324
48.7159
44.0697
42.2596
41.1024
40.1535
39.2819
38.3739
37.6616
36.9992
36.0743
35.4405
34.6942
33.9563
33.0619
32.5338
31.5813
30.6148
29.9736
29.0733
56.6031
48.9657
44.3435
42.3341
41.1381
40.1883
39.3086
38.4097
37.6836
37.0141
36.0952
35.4487
34.7079
33.9646
33.0925
32.536
31.6368
30.6531
30.1352
29.3828
55.929
49.173
44.61
42.4057
41.164
40.2138
39.3337
38.4493
37.7063
37.0295
36.121
35.4576
34.7235
33.9759
33.1304
32.5416
31.6978
30.7193
30.2567
29.791
55.3155
49.3418
44.8603
42.4812
41.1807
40.2298
39.3555
38.49
37.7284
37.0446
36.149
35.4653
34.7396
33.9893
33.1705
32.5523
31.76
30.8093
30.3407
30.167
54.7649
49.4734
45.0915
42.5621
41.1887
40.2381
39.3735
38.5294
37.7505
37.0589
36.1773
35.4707
34.7569
34.0029
33.21
32.5676
31.8233
30.9096
30.4512
30.5396
54.2751
49.5703
45.3051
42.649
41.189
40.2409
39.387
38.5667
37.7728
37.0722
36.2052
35.473
34.7758
34.0161
33.2477
32.5881
31.8867
31.0119
30.6027
30.8736
53.8419
49.6368
45.5005
42.7414
41.184
40.2392
39.396
38.6014
37.7955
37.0833
36.2327
35.474
34.7952
34.0296
33.2828
32.615
31.9501
31.1178
30.7696
31.1692
53.4639
49.6787
45.676
42.8357
41.1763
40.234
39.4015
38.6329
37.8179
37.0926
36.2593
35.4741
34.8141
34.0546
33.3149
32.6488
32.011
31.2306
30.9252
31.3945
53.1399
49.7045
45.8299
42.9272
41.1686
40.226
39.4051
38.6605
37.8399
37.1003
36.2853
35.4708
34.8338
34.0681
33.3489
32.6891
32.0713
31.3516
31.0744
31.5423
52.8675
49.7216
45.9611
43.0105
41.1634
40.2166
39.4077
38.6844
37.861
37.1067
36.3088
35.4712
34.8497
34.0905
33.3724
32.7385
32.1197
31.4715
31.2391
31.6662
52.6432
49.7333
46.0689
43.0821
41.1611
40.2062
39.4097
38.7047
37.8799
37.1121
36.3306
35.4716
34.8648
34.113
33.3984
32.7816
32.2003
31.5631
31.4323
31.8218
52.4652
49.7405
46.1532
43.1407
41.1616
40.195
39.4115
38.7203
37.8975
37.1161
36.3504
35.472
34.8806
34.1354
33.432
32.8224
32.2815
31.6586
31.5981
32.0318
52.3329
49.7452
46.2144
43.186
41.1643
40.1851
39.4127
38.7319
37.9116
37.1199
36.3661
35.4786
34.8896
34.1672
33.4443
32.8902
32.325
31.7873
31.6824
32.1744
52.2456
49.7492
46.2537
43.2172
41.1686
40.1769
39.4146
38.7392
37.923
37.1223
36.3815
35.4832
34.9024
34.1914
33.4742
32.9357
32.3964
31.8985
31.7769
32.3783
52.2022
49.7531
46.2717
43.2335
41.172
40.1715
39.417
38.7429
37.9303
37.1246
36.3926
35.4914
34.9113
34.2212
33.5006
32.9831
32.4726
31.9901
31.9209
32.5581
52.2016
49.757
46.2692
43.2347
41.1742
40.1686
39.4199
38.7431
37.9332
37.1261
36.401
35.5007
34.9176
34.2514
33.5248
33.0357
32.5439
32.0801
32.0846
32.7104
52.2442
49.761
46.2466
43.2137
41.1753
40.1685
39.4239
38.7394
37.9337
37.126
36.4089
35.5102
34.929
34.2769
33.5549
33.0822
32.6144
32.1745
32.2208
32.9094
52.3301
49.7653
46.2031
43.1852
41.1758
40.1717
39.4267
38.7327
37.9286
37.1269
36.4087
35.5243
34.9341
34.3073
33.5821
33.1326
32.6823
32.2702
32.3083
33.0184
52.4606
49.7687
46.1377
43.1421
41.177
40.1767
39.4304
38.7224
37.921
37.1258
36.411
35.5371
34.9423
34.3343
33.6124
33.1807
32.7523
32.361
32.3881
33.1833
52.6365
49.7701
46.0489
43.0854
41.1793
40.1831
39.4334
38.7092
37.9099
37.1237
36.411
35.55
34.9513
34.3587
33.6466
33.2249
32.8254
32.4467
32.4801
33.3559
52.8587
49.7685
45.9366
43.0161
41.1837
40.1904
39.4348
38.6932
37.895
37.1209
36.4086
35.5632
34.9602
34.3825
33.6819
33.2692
32.8981
32.5345
32.5772
33.5067
53.1294
49.7609
45.801
42.9347
41.1904
40.1973
39.4349
38.6742
37.8784
37.1171
36.4041
35.5758
34.9699
34.4052
33.7178
33.3147
32.9696
32.6275
32.6727
33.6313
53.45
49.7429
45.6432
42.8438
41.1987
40.2028
39.4332
38.6524
37.8597
37.1125
36.3978
35.5867
34.9806
34.4265
33.7549
33.3597
33.0418
32.7259
32.7662
33.7225
53.824
49.7066
45.4642
42.7516
41.2068
40.2047
39.429
38.6282
37.8386
37.1074
36.3899
35.5961
34.9919
34.4459
33.7933
33.4036
33.1157
32.828
32.8636
33.7836
54.2543
49.6442
45.2655
42.6621
41.2127
40.2018
39.4214
38.6017
37.8165
37.1016
36.3803
35.6042
35.0032
34.4638
33.8328
33.4462
33.1914
32.9319
32.9746
33.81
54.7435
49.5502
45.0469
42.5776
41.2142
40.1935
39.41
38.5729
37.7932
37.0954
36.3689
35.61
35.015
34.4797
33.8721
33.4873
33.2686
33.0363
33.1017
33.8086
55.2947
49.4204
44.8083
42.4985
41.2102
40.1781
39.3948
38.543
37.7679
37.0891
36.3562
35.6129
35.0274
34.4938
33.9102
33.5268
33.3454
33.1381
33.242
33.804
55.9088
49.2535
44.5503
42.4247
41.2006
40.1539
39.3752
38.5134
37.7405
37.0819
36.3433
35.6136
35.039
34.5067
33.9451
33.5644
33.415
33.2339
33.3696
33.8182
56.5831
49.0491
44.2767
42.3536
41.184
40.1213
39.3506
38.4851
37.7132
37.0731
36.3316
35.6131
35.0488
34.5182
33.9749
33.5987
33.4726
33.3186
33.4649
33.8043
57.312
48.8033
43.9968
42.2776
41.1575
40.0821
39.3226
38.4591
37.6887
37.0632
36.322
35.6126
35.0568
34.5277
33.9993
33.6271
33.5179
33.3842
33.5362
33.8403
58.0855
48.5129
43.7174
42.1948
41.1203
40.0422
39.2962
38.438
37.6704
37.0548
36.316
35.6134
35.0633
34.5351
34.0178
33.649
33.5498
33.4301
33.5852
33.8694
58.9066
48.1803
43.4525
42.1116
41.0809
40.0123
39.2777
38.4247
37.6604
37.0496
36.3133
35.6155
35.0682
34.5401
34.0302
33.6642
33.5689
33.4588
33.6136
33.8982
59.8813
47.8405
43.2324
42.0456
41.0524
39.9976
39.2689
38.4186
37.6572
37.0471
36.3125
35.6179
35.0714
34.5425
34.0371
33.6731
33.5776
33.4728
33.6275
33.9275
61.2938
47.5851
43.0888
42.0073
41.0381
39.9942
39.2663
38.4162
37.6573
37.0461
36.3118
35.6197
35.0728
34.5425
34.0395
33.6769
33.579
33.4761
33.6309
33.9563
63.2015
47.5352
43.0479
41.9983
41.0337
39.9943
39.2663
38.4148
37.6584
37.0458
36.3108
35.6206
35.073
34.5414
34.0394
33.6776
33.5777
33.4741
33.6289
33.985
27.0032
26.1838
28.6057
32.0077
34.9577
35.5284
34.1294
32.8456
30.3066
25.0409
18.6351
12.0732
5.17101
-1.24439
-6.67092
-11.4125
-15.5126
-18.7698
-19.5682
-18.5719
-17.5137
-16.7158
-14.2565
-9.75603
-5.05833
-0.22602
4.72932
10.093
15.4147
19.9668
24.4049
29.0828
33.3198
36.5959
39.4126
41.9528
43.7861
45.1576
46.1003
46.5157
46.5058
46.1943
46.0663
45.9529
45.2364
44.242
43.2548
41.5273
39.564
37.1286
34.5172
31.9294
29.0152
26.055
23.1952
21.3613
20.5657
20.1265
20.4986
21.8005
24.5941
29.1283
33.6079
37.1696
40.6704
44.1819
46.8154
48.0086
47.9584
47.1199
46.0491
44.9838
44.1808
42.9289
40.2275
35.2228
28.1757
20.2673
12.2821
4.24703
-3.32083
-10.6143
-17.8295
-24.5629
-30.2507
-34.8665
-38.0133
-38.4014
-37.0269
-34.9037
-31.2448
-25.7944
-18.847
-10.9848
-4.2174
-0.145346
2.761
7.20935
13.4386
20.4148
27.2553
33.3264
38.3184
41.8906
44.4312
46.202
47.3441
48.151
48.7515
49.3436
49.625
49.5335
49.5241
49.3567
49.271
49.2024
48.9299
48.4491
47.6976
46.1726
44.7256
42.4253
39.762
36.4757
33.4032
30.363
26.5109
22.7698
18.8831
14.6874
9.78761
5.2528
1.70198
-0.0942201
-0.700038
0.164891
2.83837
6.9952
11.2646
15.459
19.794
24.5017
29.5596
33.9923
37.55
40.846
43.2816
44.726
46.176
47.4331
48.3706
48.8348
49.1541
49.2258
49.3412
49.4134
49.3258
49.0815
48.8467
48.4658
47.8181
46.988
46.1104
45.1148
43.7867
42.0095
39.8291
37.4567
35.2293
33.374
32.0105
31.4074
31.6451
32.666
34.3809
36.4608
38.6363
40.8272
42.8827
44.5785
45.7419
46.3103
46.4269
45.9617
44.9828
43.5686
40.5033
37.8577
33.5198
27.1541
26.2197
19.7765
20.7101
17.9359
17.2702
15.5656
14.9858
13.8561
13.5648
8.90624
26.8256
26.335
28.553
31.7081
34.5577
35.2079
33.4476
32.1098
30.4056
25.5552
19.3925
13.3539
7.03038
0.840783
-4.45765
-8.93506
-12.6101
-15.8467
-17.0384
-16.214
-15.1485
-14.3773
-12.2409
-7.95607
-3.31009
1.28791
5.73026
10.4952
15.5318
20.0069
24.1886
28.5854
32.8066
36.1523
38.9574
41.5474
43.5097
44.9976
45.9861
46.4447
46.4014
46.0839
45.9107
45.5905
44.7847
43.8076
42.8607
41.4014
39.523
37.1275
34.6502
32.1418
29.3796
26.3757
23.7413
21.8224
20.9751
20.3689
20.7428
22.1416
24.9955
29.5681
34.0502
37.5174
40.9233
44.4773
47.0234
48.0918
47.7852
46.6505
45.28
43.9807
42.906
41.5861
38.9575
34.07
27.0016
19.1624
11.3101
3.40195
-4.10417
-11.3456
-18.532
-25.2329
-31.0385
-35.8153
-38.9994
-39.644
-38.4386
-36.4189
-32.6349
-26.9706
-19.7963
-11.7496
-4.78584
-0.630408
2.35335
6.92017
13.3619
20.5059
27.4393
33.6018
38.776
42.4252
45.0527
46.8683
48.0407
48.7843
49.3282
49.9167
50.213
50.0145
49.9709
49.79
49.5489
49.3884
49.0497
48.4297
47.6899
46.2712
44.8222
42.7512
40.0993
36.9861
33.9557
31.07
27.3198
23.7811
20.1052
16.1819
11.6502
7.37032
3.89187
2.0325
1.33181
1.97807
4.39338
8.32776
12.4568
16.3688
20.3821
24.7918
29.6384
34.1321
37.6308
40.7921
43.1023
44.5428
46.0079
47.3217
48.2956
48.67
48.9522
49.0225
49.2189
49.3708
49.3072
48.9947
48.7356
48.3335
47.6632
46.7766
45.8817
44.8195
43.3515
41.3051
38.8393
36.1265
33.5146
31.2747
29.6468
28.8145
28.9413
29.933
31.7926
34.0935
36.5558
39.064
41.4325
43.4169
44.7932
45.4862
45.6806
45.3007
44.3742
42.6369
39.412
37.136
31.5697
23.5164
25.3262
18.7844
18.8323
16.6753
15.7025
13.8644
13.3519
11.2432
11.5
6.69534
26.9427
26.5413
28.5597
31.3993
33.9655
34.6489
32.756
31.5089
30.3449
25.7976
19.7845
14.2642
8.52036
2.57239
-2.59355
-6.8148
-10.1202
-13.3218
-14.8533
-14.0343
-12.7831
-11.7977
-9.87639
-6.04802
-1.68805
2.66208
6.68953
10.8796
15.5365
19.984
23.9652
28.0409
32.2502
35.6585
38.4749
41.0917
43.18
44.8282
45.8792
46.3935
46.3636
45.922
45.6444
45.2127
44.2756
43.2735
42.3655
41.2138
39.4141
37.1517
34.8399
32.5071
29.7467
26.6827
24.2944
22.2642
21.3055
20.5308
20.9304
22.463
25.4
30.0044
34.5295
37.8944
41.2156
44.7575
47.2657
48.1725
47.6329
46.2166
44.5686
43.0605
41.7692
40.36
37.872
33.0771
26.0027
18.3002
10.6214
2.83332
-4.573
-11.7224
-18.8606
-25.5229
-31.45
-36.4127
-39.7085
-40.5502
-39.6533
-37.7168
-33.7668
-27.8439
-20.4657
-12.2991
-5.21055
-1.0178
2.05263
6.76767
13.4442
20.7261
27.7068
33.9563
39.2578
42.9454
45.6577
47.5018
48.7229
49.3833
49.9068
50.4655
50.7611
50.4981
50.4291
50.2193
49.8327
49.5881
49.1815
48.4483
47.6821
46.3397
44.9208
43.0686
40.4539
37.5369
34.5536
31.8038
28.1625
24.8053
21.3415
17.6778
13.5093
9.62134
6.30691
4.34519
3.57889
4.07514
6.21117
9.82434
13.7202
17.3967
21.0746
25.2121
29.7451
34.2511
37.7847
40.817
43.0539
44.3769
45.7974
47.2179
48.2501
48.5605
48.8041
48.8543
49.1015
49.3344
49.3086
48.957
48.6577
48.2214
47.5103
46.5847
45.6661
44.5289
42.9125
40.5858
37.7335
34.6004
31.6064
29.0248
27.1146
26.038
26.099
27.0364
29.0341
31.5904
34.3566
37.2003
39.9461
42.1908
43.8105
44.6689
44.8569
44.6752
43.4864
41.5246
38.7193
35.153
30.1558
22.104
23.7223
18.3246
16.9409
15.3146
13.9732
12.0523
11.3214
8.42017
8.95996
4.63286
27.2373
26.843
28.6176
31.0621
33.3006
34.0564
32.1567
30.8977
30.0107
25.789
19.9893
14.9057
9.73142
3.99418
-1.09801
-4.88134
-7.86834
-10.8409
-12.5047
-11.731
-10.26
-9.00611
-7.2458
-4.06577
-0.230757
3.89047
7.59878
11.2385
15.415
19.793
23.7285
27.4849
31.6187
35.1063
37.9701
40.6443
42.8047
44.6045
45.767
46.3229
46.358
45.7959
45.2603
44.7178
43.6716
42.6592
41.7468
40.7899
39.158
37.1475
35.0363
32.934
30.0594
27.0532
24.7731
22.6787
21.541
20.6018
21.0712
22.7763
25.8035
30.4651
35.031
38.3004
41.5456
45.018
47.5282
48.2647
47.5008
45.8366
43.9592
42.234
40.7616
39.2508
36.9036
32.2674
25.3333
17.7426
10.1854
2.54255
-4.72875
-11.7557
-18.8103
-25.4179
-31.4525
-36.6024
-40.0698
-41.1763
-40.611
-38.7252
-34.5645
-28.3709
-20.8335
-12.6136
-5.49771
-1.31887
1.85468
6.77291
13.6638
21.0769
28.0891
34.4175
39.7647
43.4904
46.2377
48.0977
49.3701
49.9501
50.4829
50.9822
51.2669
50.9948
50.8878
50.6145
50.125
49.7967
49.3046
48.5079
47.6778
46.406
45.0281
43.3631
40.8499
38.1116
35.2167
32.5443
29.0445
25.8861
22.6006
19.1754
15.3583
11.8951
8.80237
6.78268
5.99162
6.35683
8.16769
11.4186
15.0245
18.4561
21.8432
25.6792
29.9565
34.3795
37.9176
40.8955
43.1121
44.3242
45.5875
47.086
48.1792
48.4653
48.71
48.7255
49.0014
49.2798
49.3157
48.9687
48.6372
48.1344
47.3502
46.4088
45.4932
44.265
42.4133
39.7934
36.5614
32.9551
29.4711
26.5492
24.3862
23.1377
23.0864
24.0197
26.1748
28.9847
32.0666
35.2977
38.3829
40.9599
42.8118
43.7757
44.128
43.9424
42.3503
40.5114
37.874
31.9634
29.3678
21.7412
21.11
17.3144
15.361
13.8726
12.2172
10.2275
8.98367
6.41295
6.19819
2.65448
27.59
27.23
28.743
30.8004
32.6301
33.3727
31.6587
30.2895
29.4896
25.8185
20.3743
15.4888
10.9035
5.60503
0.560703
-2.85118
-5.43864
-8.05599
-9.74415
-9.16141
-7.57749
-6.19755
-4.64908
-2.0868
1.09802
4.90045
8.38456
11.538
15.2557
19.458
23.3815
26.9379
30.9914
34.5383
37.44
40.2066
42.4558
44.3472
45.6626
46.2396
46.3461
45.7181
44.8653
44.0929
42.9495
41.9699
41.0236
40.2592
38.8396
37.1316
35.2597
33.2934
30.3206
27.5075
25.1269
23.0616
21.6837
20.5947
21.1754
23.1018
26.2221
30.9611
35.5459
38.7235
41.8718
45.2961
47.769
48.3717
47.3941
45.5117
43.4496
41.5436
39.9027
38.3426
36.0687
31.6369
24.9694
17.483
10.0014
2.55372
-4.58323
-11.4909
-18.4163
-24.9319
-31.0331
-36.3231
-39.986
-41.4302
-41.2111
-39.3409
-34.9427
-28.4955
-20.8829
-12.694
-5.66134
-1.53798
1.7662
6.93334
14.0128
21.5733
28.6055
34.9887
40.307
44.0572
46.8071
48.6585
49.9758
50.4943
51.0499
51.486
51.7337
51.4998
51.3107
50.9711
50.4364
50.0086
49.4272
48.5997
47.7018
46.497
45.1534
43.6403
41.2575
38.6934
35.9064
33.2864
30.0101
27.0275
23.8804
20.6846
17.177
14.064
11.2683
9.23904
8.41604
8.72188
10.2137
13.0803
16.3396
19.472
22.6308
26.2199
30.2944
34.545
37.9896
40.9526
43.1644
44.399
45.5033
46.9922
48.0897
48.3803
48.6573
48.6615
48.9486
49.1981
49.2762
48.9902
48.7123
48.1251
47.2025
46.2082
45.3403
44.0533
41.9036
38.8609
35.2633
31.2528
27.2676
23.9313
21.505
20.0665
19.667
20.8944
23.2187
26.3223
29.7431
33.3455
36.8508
39.7013
41.8342
42.9223
43.305
43.328
41.4145
39.6373
36.2712
29.18
29.1412
21.011
18.3698
16.058
14.0377
12.3508
10.5096
8.56451
6.79303
4.40808
3.62664
1.89841
27.8856
27.6757
28.9518
30.5619
31.9259
32.6095
31.2337
29.7382
28.8354
25.8984
20.8628
16.0701
12.1165
7.41681
2.38748
-0.818119
-2.87841
-5.02463
-6.65002
-6.43444
-4.97338
-3.54943
-2.22473
-0.246777
2.32142
5.71771
9.02282
11.7881
15.0391
19.0677
22.9253
26.2971
30.2967
33.9455
36.8971
39.7459
42.1274
44.0753
45.5354
46.1691
46.3454
45.6512
44.5083
43.4373
42.1943
41.2207
40.2058
39.7956
38.5944
37.2022
35.5766
33.5902
30.5491
28.0112
25.4168
23.4171
21.7468
20.5292
21.2775
23.46
26.6768
31.4826
36.0967
39.1788
42.195
45.5733
47.9889
48.4688
47.3155
45.259
43.0493
41.0164
39.2445
37.6465
35.4177
31.2066
24.8029
17.4376
10.0666
2.8623
-4.15328
-10.946
-17.7013
-24.1061
-30.2044
-35.5535
-39.3936
-41.2047
-41.3392
-39.4313
-34.799
-28.1881
-20.6106
-12.5453
-5.71796
-1.6813
1.80454
7.24536
14.5129
22.1912
29.2328
35.6597
40.8756
44.6368
47.4101
49.2013
50.5603
51.0266
51.5947
51.967
52.1545
51.9882
51.6856
51.3199
50.7708
50.229
49.5718
48.712
47.7768
46.6254
45.2945
43.8783
41.6427
39.243
36.5906
34.045
31.0371
28.2029
25.2014
22.193
18.9422
16.1118
13.6152
11.6611
10.822
11.0793
12.2648
14.7464
17.6654
20.4623
23.4001
26.8621
30.7333
34.785
38.0743
40.9561
43.1358
44.4813
45.5856
46.9939
48.0253
48.3448
48.6438
48.6579
48.963
49.127
49.1666
48.9539
48.8279
48.2411
47.1387
46.0214
45.1595
43.8039
41.3813
37.8799
33.7934
29.4004
25.0746
21.3135
18.5906
16.9303
16.4948
17.7093
20.2233
23.6458
27.4176
31.3851
35.3386
38.5067
40.8385
42.1327
42.5297
42.6989
40.8523
38.9713
34.7226
28.2981
28.9835
20.0499
16.7066
15.1158
12.9457
11.0997
9.00731
6.82107
4.65215
2.56742
2.07306
2.07364
28.3067
28.2162
29.1782
30.2706
31.1949
31.766
30.7911
29.3213
28.2733
25.9226
21.4302
16.7877
13.2637
9.29615
4.45147
1.22225
-0.330733
-1.97043
-3.49983
-3.69656
-2.5491
-1.20143
0.011119
1.45208
3.44778
6.41208
9.532
12.0178
14.7733
18.5638
22.4033
25.5975
29.466
33.2175
36.2956
39.2711
41.7891
43.8377
45.3811
46.1213
46.3892
45.6297
44.189
42.8593
41.5255
40.4647
39.3807
39.3145
38.3996
37.3319
36.0241
33.8968
30.808
28.5426
25.7371
23.7402
21.7545
20.4423
21.4186
23.8773
27.1932
32.0215
36.6592
39.6447
42.536
45.8155
48.195
48.5615
47.2661
45.1003
42.7952
40.6702
38.8116
37.1568
34.9612
30.9919
24.7959
17.6102
10.3926
3.43537
-3.45216
-10.1033
-16.6804
-22.9944
-29.019
-34.3418
-38.3024
-40.4356
-40.8845
-38.8792
-34.0778
-27.4411
-20.0213
-12.2019
-5.69564
-1.73838
1.97461
7.70839
15.1637
22.9243
29.9786
36.4316
41.4822
45.2336
48.0386
49.7277
51.1465
51.553
52.1036
52.414
52.5418
52.4496
52.04
51.6833
51.1178
50.4602
49.7443
48.8455
47.9015
46.7749
45.4532
44.0732
42.0174
39.7711
37.3017
34.8346
32.1067
29.4155
26.5496
23.7001
20.6826
18.0652
15.8389
14.0096
13.1537
13.334
14.2764
16.4219
19.0079
21.4284
24.1724
27.5884
31.2731
35.0781
38.2415
40.9534
43.0451
44.511
45.6902
47.0602
47.987
48.3788
48.685
48.7074
49.0275
49.0893
49.0396
48.8451
48.9049
48.4129
47.2166
45.924
44.9931
43.4721
40.7284
36.8707
32.2907
27.3802
22.7413
18.7235
15.7211
13.8512
13.3411
14.539
17.2822
20.9954
25.1238
29.4871
33.8204
37.4149
39.7973
41.42
41.9085
41.7103
40.665
38.1916
34.2565
28.5355
27.4494
19.1602
16.136
14.4117
12.2853
10.3101
7.68748
4.95048
2.84843
1.83626
1.00452
1.5771
29.0431
28.8631
29.3705
29.9401
30.4574
30.9035
30.3139
29.0012
27.8088
25.876
22.0771
17.6495
14.3568
11.1279
6.70191
3.3561
2.08633
0.905971
-0.452561
-1.00407
-0.259001
0.868461
2.02156
3.11829
4.5478
7.0346
9.92704
12.1702
14.4867
17.8831
21.682
24.8312
28.5943
32.367
35.5736
38.7464
41.4151
43.6332
45.2384
46.0766
46.4664
45.7106
43.974
42.3613
40.9356
39.647
38.6483
38.8326
38.2923
37.4933
36.5497
34.2477
31.1892
29.0564
26.1171
24.0222
21.7506
20.3819
21.6275
24.3786
27.7879
32.609
37.2333
40.115
42.8784
46.0468
48.3699
48.6524
47.2509
45.0344
42.6876
40.5089
38.5819
36.8777
34.7175
31.0282
24.9686
18.0414
10.9733
4.22731
-2.50474
-8.99931
-15.4354
-21.6812
-27.5682
-32.8027
-36.771
-39.0935
-39.7593
-37.6143
-32.7657
-26.2959
-19.1723
-11.7123
-5.60864
-1.7021
2.28139
8.32779
15.9513
23.7708
30.8268
37.2728
42.142
45.8424
48.6843
50.2699
51.7346
52.0829
52.5829
52.8521
52.9224
52.8888
52.401
52.0455
51.459
50.6965
49.9389
49.0153
48.0607
46.9348
45.6496
44.2784
42.4204
40.3083
38.0532
35.6779
33.214
30.6387
27.9135
25.1947
22.3948
19.9669
17.949
16.2322
15.3705
15.4965
16.2333
18.0445
20.3514
22.4134
24.9659
28.3353
31.8554
35.3841
38.5025
40.9995
42.9536
44.5255
45.7433
47.1319
47.9776
48.4622
48.7613
48.8016
49.1229
49.1006
48.9637
48.7324
48.9344
48.5416
47.3683
45.941
44.9276
43.0932
39.9239
35.7244
30.7901
25.4084
20.2784
16.0458
12.8831
10.8653
10.2561
11.4978
14.4564
18.4163
22.9368
27.6649
32.3913
36.3774
38.848
40.8358
41.1901
40.9022
40.6013
36.7536
34.5238
28.2272
24.7895
18.7591
15.9348
14.0192
11.6383
9.7094
6.39984
3.35479
1.59376
0.925195
-0.335402
0.28498
30.1155
29.769
29.6173
29.6699
29.7943
30.1386
29.854
28.7535
27.5323
25.8527
22.6907
18.6008
15.4293
12.8076
8.97755
5.63097
4.32298
3.48381
2.45318
1.60696
1.81496
2.76275
3.85607
4.75776
5.63416
7.57474
10.1749
12.198
14.1416
17.1505
20.7761
23.87
27.6074
31.4304
34.75
38.1364
40.9868
43.3931
45.11
46.0136
46.5213
45.8443
43.8745
41.8955
40.2498
38.6699
37.9713
38.4106
38.3567
37.7431
37.1066
34.659
31.7554
29.5055
26.5357
24.2758
21.7917
20.4034
21.9263
24.9744
28.4745
33.2599
37.8204
40.6167
43.2065
46.265
48.5167
48.7348
47.2756
45.0518
42.703
40.4966
38.5274
36.7955
34.6742
31.3076
25.4403
18.7601
11.7968
5.18508
-1.37036
-7.74541
-14.0867
-20.2543
-25.9775
-31.0631
-34.913
-37.2321
-37.9141
-35.6759
-30.9565
-24.8565
-18.1389
-11.1433
-5.47837
-1.56417
2.72772
9.0984
16.8731
24.7264
31.7816
38.1444
42.8689
46.5006
49.381
50.8609
52.2938
52.6354
53.0547
53.311
53.3164
53.3164
52.7753
52.3885
51.7838
50.9365
50.1579
49.2388
48.253
47.1241
45.9124
44.5482
42.8354
40.8528
38.8228
36.5488
34.3125
31.8346
29.2488
26.6677
24.0602
21.7874
19.9247
18.3406
17.4924
17.5335
18.1112
19.614
21.6717
23.4397
25.768
29.0498
32.3914
35.6456
38.7648
41.0943
42.8876
44.5782
45.8345
47.2102
48.0533
48.5897
48.8434
48.8909
49.1994
49.1659
48.9894
48.6925
48.9467
48.6071
47.494
45.9804
44.9806
42.7515
39.0441
34.4161
29.2306
23.5346
17.9403
13.3542
10.0362
7.97856
7.31913
8.62801
11.7665
15.9791
20.9445
25.9673
31.0879
35.4867
38.142
40.2614
40.6214
40.6858
40.1877
35.2427
34.984
27.813
22.6434
18.7094
15.6992
13.7879
11.2407
9.2493
5.10648
2.17994
0.365105
-0.774173
-2.24473
-1.34899
31.0088
30.5542
29.858
29.5135
29.3134
29.5616
29.4623
28.5442
27.4075
25.9053
23.2821
19.6075
16.4904
14.293
11.2034
7.95104
6.39479
5.80714
5.08746
4.0757
3.80437
4.58041
5.58593
6.28628
6.6767
8.05881
10.2883
12.1453
13.7112
16.3334
19.7781
22.7721
26.4537
30.3624
33.8309
37.4256
40.5126
43.097
44.9725
45.9569
46.5423
45.9621
43.8241
41.4317
39.342
37.6232
37.4015
38.0811
38.5286
38.156
37.7287
35.1806
32.4712
29.9217
27.009
24.542
21.9249
20.5656
22.3455
25.6694
29.2569
33.9776
38.4149
41.1203
43.5536
46.4575
48.6376
48.8119
47.3431
45.1533
42.8362
40.6289
38.6388
36.8838
34.8015
31.7169
26.2722
19.7614
12.8644
6.31873
-0.0655687
-6.37125
-12.6832
-18.7552
-24.3506
-29.2438
-32.8767
-35.014
-35.2882
-33.2567
-28.8555
-23.2705
-17.0321
-10.5711
-5.29304
-1.29358
3.32232
10.0253
17.927
25.7887
32.8487
39.0189
43.6718
47.2299
50.1382
51.5461
52.856
53.2491
53.5368
53.786
53.7315
53.7352
53.1597
52.7185
52.0932
51.1912
50.4154
49.5242
48.498
47.367
46.2259
44.8677
43.2337
41.4006
39.5482
37.3874
35.3379
32.9794
30.5678
28.1163
25.6405
23.5229
21.8056
20.3257
19.502
19.4671
19.9079
21.1178
22.9288
24.4955
26.5827
29.6867
32.8363
35.8626
38.9442
41.1515
42.8375
44.6568
46.0059
47.3231
48.2207
48.7671
48.8989
48.9392
49.203
49.2256
49.0936
48.7804
49.0093
48.6246
47.5488
45.9878
45.0616
42.4618
38.2501
33.0332
27.6514
21.7186
15.788
10.9
7.33423
5.18571
4.56695
5.9846
9.28499
13.7735
19.0885
24.5386
29.9334
34.747
37.7214
39.6822
40.498
40.5444
39.5122
35.047
35.2967
27.5174
21.1748
18.6722
15.4478
13.8209
11.0433
8.62005
4.14501
0.903786
-1.31471
-3.12289
-4.95791
-3
31.752
31.1877
30.0794
29.4657
29.0072
29.1384
29.1453
28.3623
27.3669
26.0256
23.8389
20.6296
17.5826
15.6335
13.2589
10.2101
8.37661
7.87154
7.38
6.44072
5.89982
6.32895
7.16349
7.71316
7.71835
8.55316
10.2967
11.9649
13.2151
15.364
18.6029
21.5537
25.1318
29.1054
32.7912
36.6071
39.9848
42.7641
44.7978
45.9343
46.5776
46.0857
43.86
40.9998
38.3004
36.6903
37.063
37.9702
38.7773
38.8154
38.4581
35.8454
33.2649
30.4261
27.5476
24.8675
22.1915
20.9155
22.9232
26.4808
30.1249
34.7439
39.0556
41.6211
43.9144
46.6567
48.7391
48.885
47.4403
45.3312
43.0807
40.9017
38.8916
37.1108
35.1193
32.2497
27.3511
20.9841
14.1605
7.68912
1.45947
-4.82197
-11.1606
-17.1687
-22.7255
-27.444
-30.8239
-32.6844
-32.5238
-30.7049
-26.7136
-21.7022
-15.9541
-10.0102
-5.02373
-0.88013
4.09342
11.1187
19.0856
26.9435
34.01
39.9004
44.5421
48.0168
50.9564
52.3776
53.4806
53.9291
54.0289
54.2553
54.1719
54.143
53.5608
53.0539
52.3943
51.4759
50.7113
49.8629
48.8079
47.6562
46.544
45.2065
43.6264
41.9402
40.1959
38.1965
36.2999
34.0949
31.8906
29.5477
27.1565
25.2075
23.584
22.2021
21.4015
21.3066
21.6054
22.5437
24.1294
25.5524
27.4041
30.2574
33.1981
36.0366
39.0423
41.1143
42.7946
44.7653
46.204
47.4624
48.3766
48.9639
48.9277
48.9295
49.1497
49.2574
49.2013
48.9761
49.1933
48.6932
47.5059
45.9432
45.1381
42.1244
37.5549
31.7205
26.1009
19.9983
13.7738
8.64583
4.92253
2.66102
2.04025
3.58763
7.10417
11.8674
17.3677
23.4409
28.99
34.1778
37.4258
39.327
40.5681
40.1123
39.261
36.2465
34.9141
26.6493
21.0027
19.1756
15.3402
14.0543
10.6288
7.58537
3.44926
-1.18435
-4.25875
-5.56671
-7.91158
-4.67498
32.3096
31.707
30.3005
29.4819
28.871
28.8683
28.9082
28.2172
27.3654
26.1664
24.3394
21.6303
18.7432
16.9045
15.055
12.3563
10.2804
9.67992
9.48826
8.74864
7.96529
7.99858
8.62424
9.07756
8.73819
9.00251
10.2086
11.614
12.6035
14.27
17.1512
20.1081
23.6209
27.6089
31.548
35.6403
39.3651
42.4069
44.5893
45.9271
46.6503
46.2302
44.0712
40.7823
37.5511
36.0914
36.8971
38.009
39.1574
39.7582
39.3192
36.6713
34.1435
31.0901
28.1598
25.3017
22.6391
21.5009
23.6873
27.4184
31.0826
35.5387
39.7191
42.1581
44.2615
46.8557
48.8318
48.9636
47.5699
45.572
43.4113
41.2597
39.2526
37.4694
35.59
32.9649
28.5574
22.33
15.6369
9.30959
3.20143
-3.09949
-9.46109
-15.4578
-21.0811
-25.698
-28.8578
-30.4519
-30.1122
-28.3266
-24.754
-20.2634
-14.9506
-9.45795
-4.64871
-0.307151
5.03902
12.3564
20.3686
28.1738
35.2511
40.7915
45.4627
48.8301
51.7954
53.2818
54.1458
54.6372
54.5299
54.7185
54.6357
54.5414
53.9881
53.4044
52.69
51.7925
51.0353
50.2384
49.1581
47.9693
46.8514
45.5658
44.0317
42.4868
40.8127
39.0216
37.2362
35.1928
33.1668
30.9549
28.6583
26.8341
25.2769
24.0094
23.1904
23.0229
23.2326
23.8983
25.2583
26.5783
28.2132
30.7894
33.5187
36.1951
39.0752
41.0442
42.7599
44.9331
46.4365
47.6107
48.4532
49.0956
48.9511
48.9063
49.1225
49.3215
49.2744
49.1899
49.4592
48.9416
47.4999
45.8485
45.132
41.7699
36.8246
30.454
24.7003
18.339
11.9163
6.5513
2.70762
0.436888
-0.130382
1.54963
5.24929
10.2332
15.9941
22.5431
28.3674
33.8491
37.2333
39.2482
40.6027
39.7186
39.6342
37.5091
34.2634
26.3348
22.2428
19.5699
15.5968
14.5707
10.581
6.40221
2.28827
-4.094
-8.44176
-7.74954
-10.1144
-6.41984
32.7595
32.1714
30.5592
29.5676
28.8755
28.7159
28.7281
28.1195
27.3882
26.343
24.8334
22.5953
19.9014
18.0864
16.6249
14.3176
12.1592
11.4473
11.4419
10.9108
9.95813
9.66283
10.0394
10.3357
9.74632
9.42987
10.0626
11.1343
11.8309
13.0551
15.499
18.3388
21.8333
25.8668
30.0619
34.483
38.601
41.9813
44.3642
45.927
46.7659
46.4075
44.417
40.9578
37.4835
36.133
36.9676
38.189
39.7907
40.948
40.3218
37.6826
35.1255
31.9263
28.86
25.8825
23.3144
22.3517
24.6578
28.4835
32.1264
36.3837
40.3721
42.7149
44.6228
47.0374
48.9029
49.0371
47.7309
45.8568
43.7941
41.6768
39.6803
37.9372
36.1709
33.8079
29.8855
23.8102
17.3004
11.113
5.09239
-1.20925
-7.55727
-13.611
-19.3631
-23.9477
-26.9628
-28.3731
-28.0544
-26.2689
-23.0657
-18.9896
-14.0367
-8.87631
-4.13141
0.444676
6.17753
13.7378
21.7825
29.4379
36.5248
41.7069
46.4258
49.6379
52.5905
54.1276
54.8006
55.3207
55.0265
55.169
55.1045
54.9499
54.446
53.7733
52.9797
52.1357
51.382
50.6222
49.5078
48.3018
47.1668
45.9614
44.4701
43.0423
41.4128
39.8525
38.1201
36.2233
34.3875
32.3133
30.1231
28.4251
26.8992
25.7293
24.9048
24.6311
24.7685
25.1986
26.3156
27.5647
28.9896
31.3003
33.8112
36.3436
39.0736
41.0231
42.784
45.1113
46.6986
47.7656
48.4994
49.1001
48.9339
48.9476
49.1983
49.4987
49.348
49.3607
49.6744
49.3207
47.6954
45.8389
44.9443
41.4117
36.1003
29.1595
23.4939
16.8358
10.2652
4.69098
0.721127
-1.54936
-1.93353
-0.100928
3.72653
8.91991
15.0179
21.8397
28.0928
33.6631
37.4055
39.1552
40.7033
39.4344
40.3296
38.3474
33.9961
27.3471
23.111
19.5226
16.3665
14.9028
10.7549
5.19445
-0.294877
-6.98999
-12.5125
-9.79702
-11.0006
-7.92035
33.0363
32.5792
30.8922
29.7787
29.0201
28.6589
28.5871
28.075
27.4642
26.5816
25.3257
23.4855
21.0274
19.2165
18.0305
16.129
14.052
13.2405
13.2188
12.8726
11.9434
11.3186
11.4123
11.5113
10.7407
9.88651
9.87902
10.5197
10.9242
11.6375
13.6872
16.3435
19.7349
23.8225
28.3199
33.1169
37.669
41.4485
44.1028
45.9241
46.9195
46.6424
44.8609
41.5268
38.1737
36.8807
37.5124
38.844
40.862
42.3265
41.5042
38.9311
36.2415
32.9233
29.6857
26.6537
24.2216
23.4689
25.8429
29.6726
33.2322
37.2685
41.0387
43.2471
44.9869
47.2159
48.9694
49.0993
47.8896
46.1603
44.2019
42.138
40.1619
38.4738
36.8639
34.7465
31.3671
25.514
19.2386
13.063
7.11078
0.894608
-5.42664
-11.5896
-17.4591
-22.0669
-25.033
-26.383
-26.1708
-24.4962
-21.6098
-17.8363
-13.1475
-8.20264
-3.44181
1.40968
7.52465
15.2731
23.317
30.7096
37.7961
42.6837
47.413
50.4357
53.3198
54.8764
55.4176
55.9319
55.5027
55.5994
55.5718
55.3935
54.9125
54.1495
53.2634
52.4941
51.7398
50.9899
49.8496
48.6658
47.5141
46.3849
44.9263
43.5665
41.9732
40.6198
38.927
37.18
35.5445
33.6149
31.5365
29.9454
28.4719
27.3765
26.5417
26.1594
26.2078
26.4728
27.3239
28.4765
29.7141
31.765
34.0905
36.468
39.0566
41.051
42.887
45.229
46.8927
47.8869
48.5458
48.9993
48.8435
49.0752
49.3838
49.7606
49.4614
49.4917
49.8052
49.6689
48.0756
46.1103
44.7382
40.9937
35.3574
27.9753
22.4151
15.5558
8.93011
3.08261
-0.895658
-3.18569
-3.38556
-1.39261
2.5902
7.98747
14.2728
21.5922
28.0236
33.5875
37.8638
39.0613
40.9464
39.3277
41.2301
38.9654
34.0612
28.4027
23.1244
19.6636
17.0358
14.5065
10.4921
3.41229
-4.01985
-9.15889
-14.9589
-11.7314
-11.6044
-9.03156
33.1718
32.8489
31.2507
30.0961
29.2486
28.7055
28.5338
28.0919
27.6065
26.8678
25.8087
24.3121
22.1377
20.3485
19.3167
17.8297
15.9474
14.9898
14.8834
14.6698
13.8561
12.9954
12.7574
12.644
11.6724
10.3172
9.69089
9.75858
9.85903
10.0525
11.6052
14.0651
17.3493
21.4539
26.2921
31.5281
36.5577
40.7814
43.7979
45.9114
47.0917
46.9311
45.3848
42.3902
39.3625
38.0564
38.4356
40.0029
42.3178
43.8943
42.9063