/*--------------------------------*- C++ -*----------------------------------*\
| =========                 |                                                 |
| \\      /  F ield         | OpenFOAM: The Open Source CFD Toolbox           |
|  \\    /   O peration     | Version:  2.4.0                                 |
|   \\  /    A nd           | Web:      www.OpenFOAM.org                      |
|    \\/     M anipulation  |                                                 |
\*---------------------------------------------------------------------------*/
FoamFile
{
    version     2.0;
    format      ascii;
    class       volVectorField;
    location    "0.14";
    object      U;
}
// * * * * * * * * * * * * * * * * * * * * * * * * * * * * * * * * * * * * * //

dimensions      [0 1 -1 0 0 0 0];

internalField   nonuniform List<vector> 
17600
(
(5.32676 0.309544 0)
(2.98592 0.0605386 0)
(2.19199 -0.00150461 0)
(1.8544 -0.00364476 0)
(1.69844 -0.001186 0)
(1.61887 -6.78988e-05 0)
(1.53022 -0.000375653 0)
(1.48501 0.000698934 0)
(1.43002 -0.000979008 0)
(1.40551 0.000661663 0)
(1.37954 -0.000776327 0)
(1.33671 0.00121339 0)
(1.35118 -0.0013797 0)
(1.28876 0.00103728 0)
(1.31265 0.000213925 0)
(1.2699 -0.00145328 0)
(1.2836 0.000458794 0)
(1.29712 -0.00166655 0)
(1.2278 0.000660709 0)
(1.59425 -0.0397607 0)
(8.59502 0.872175 0)
(6.95403 0.383322 0)
(5.79528 0.121772 0)
(5.07592 0.05065 0)
(4.62808 0.0284338 0)
(4.40348 0.0210552 0)
(4.1534 0.0151146 0)
(4.03552 0.0143915 0)
(3.88218 0.00705879 0)
(3.80237 0.00886975 0)
(3.73669 0.00559445 0)
(3.60742 0.00731505 0)
(3.66335 0.00195616 0)
(3.46032 0.00760861 0)
(3.56149 0.00273686 0)
(3.4188 0.00133053 0)
(3.43386 0.000250867 0)
(3.46486 0.00271758 0)
(3.26644 -0.0178113 0)
(3.98224 -0.043209 0)
(9.8499 1.02254 0)
(9.35718 0.577624 0)
(8.44331 0.240905 0)
(7.67811 0.129835 0)
(7.05066 0.0819899 0)
(6.7371 0.0586747 0)
(6.36428 0.0428217 0)
(6.1943 0.0371594 0)
(5.96956 0.023347 0)
(5.83054 0.0224279 0)
(5.75371 0.0185734 0)
(5.52551 0.0161892 0)
(5.64803 0.0100206 0)
(5.29717 0.018357 0)
(5.48509 0.00552178 0)
(5.25136 0.010242 0)
(5.26584 -0.00020855 0)
(5.29081 0.0121497 0)
(5.04657 -0.0366039 0)
(5.81983 -0.0489548 0)
(10.146 0.947946 0)
(10.5953 0.66977 0)
(10.2077 0.329634 0)
(9.7003 0.209914 0)
(9.05768 0.147518 0)
(8.75105 0.10854 0)
(8.30466 0.0811357 0)
(8.10804 0.0668799 0)
(7.84964 0.0473567 0)
(7.64515 0.039869 0)
(7.59673 0.038236 0)
(7.24976 0.0271922 0)
(7.46642 0.0222744 0)
(6.96975 0.0335036 0)
(7.23905 0.00820943 0)
(6.92974 0.0243396 0)
(6.95742 0.000948655 0)
(6.92728 0.0234341 0)
(6.73432 -0.05598 0)
(7.4299 -0.0565306 0)
(10.0474 0.805204 0)
(10.9703 0.672369 0)
(11.0542 0.355784 0)
(10.9761 0.255788 0)
(10.4953 0.203308 0)
(10.3215 0.15786 0)
(9.89232 0.123838 0)
(9.70359 0.0991288 0)
(9.47464 0.0767624 0)
(9.20016 0.0590676 0)
(9.23258 0.0625028 0)
(8.76082 0.0400916 0)
(9.08386 0.0362003 0)
(8.47375 0.0530764 0)
(8.80165 0.0102298 0)
(8.44003 0.0407931 0)
(8.50514 0.00622389 0)
(8.37273 0.0342721 0)
(8.28413 -0.0762056 0)
(8.90635 -0.0663627 0)
(9.93761 0.689183 0)
(10.946 0.641386 0)
(11.1961 0.332698 0)
(11.4801 0.250798 0)
(11.2228 0.225474 0)
(11.2789 0.187211 0)
(10.9904 0.159463 0)
(10.8599 0.125804 0)
(10.7475 0.106556 0)
(10.4178 0.0771741 0)
(10.5806 0.0877299 0)
(10.0141 0.0547739 0)
(10.4322 0.048754 0)
(9.77449 0.0762369 0)
(10.1274 0.0118089 0)
(9.74254 0.0562294 0)
(9.87159 0.0163041 0)
(9.60556 0.0448023 0)
(9.6755 -0.0954406 0)
(10.123 -0.0994118 0)
(9.87822 0.596931 0)
(10.8762 0.610495 0)
(11.0788 0.304017 0)
(11.5317 0.218638 0)
(11.3765 0.214835 0)
(11.5969 0.184493 0)
(11.5083 0.175457 0)
(11.45 0.134603 0)
(11.5389 0.126003 0)
(11.2016 0.0881009 0)
(11.5286 0.106714 0)
(10.9441 0.0692416 0)
(11.4276 0.0563493 0)
(10.8149 0.100549 0)
(11.1585 0.0140216 0)
(10.7839 0.0661216 0)
(10.9969 0.0322989 0)
(10.5971 0.0505491 0)
(10.8939 -0.110893 0)
(10.9642 -0.0921784 0)
(9.82781 0.514261 0)
(10.8184 0.573886 0)
(10.9636 0.289683 0)
(11.4658 0.188295 0)
(11.3654 0.200591 0)
(11.5573 0.162973 0)
(11.6283 0.177502 0)
(11.5553 0.125176 0)
(11.8212 0.129382 0)
(11.5144 0.0859542 0)
(11.9764 0.111175 0)
(11.4807 0.0782682 0)
(11.97 0.0537001 0)
(11.5169 0.118879 0)
(11.8245 0.0167471 0)
(11.5045 0.0691415 0)
(11.7791 0.0483095 0)
(11.3571 0.0532513 0)
(11.8338 -0.132574 0)
(11.3806 0.0213735 0)
(9.81295 0.443305 0)
(10.7224 0.524532 0)
(10.9077 0.280649 0)
(11.335 0.156568 0)
(11.375 0.189423 0)
(11.4632 0.140072 0)
(11.6358 0.175575 0)
(11.5094 0.113093 0)
(11.8017 0.122017 0)
(11.5671 0.0778319 0)
(12.0052 0.0993538 0)
(11.6972 0.0832788 0)
(12.067 0.0373537 0)
(11.844 0.129059 0)
(12.0955 0.0133174 0)
(11.8626 0.066169 0)
(12.1054 0.0573753 0)
(11.9218 0.0409867 0)
(12.2797 -0.120422 0)
(11.4633 0.0549412 0)
(9.86371 0.383516 0)
(10.5928 0.470461 0)
(10.887 0.274317 0)
(11.1966 0.125324 0)
(11.3258 0.173482 0)
(11.3904 0.115813 0)
(11.6033 0.172826 0)
(11.5126 0.103735 0)
(11.6884 0.11425 0)
(11.5959 0.0690504 0)
(11.8513 0.0820296 0)
(11.7887 0.0838145 0)
(11.961 0.0227454 0)
(11.9264 0.122244 0)
(12.1211 0.0167347 0)
(11.9567 0.0533225 0)
(12.0707 0.0585404 0)
(12.2999 0.0070373 0)
(12.0751 -0.0606181 0)
(11.515 -0.022316 0)
(9.94749 0.327688 0)
(10.4567 0.418308 0)
(10.8683 0.266337 0)
(11.115 0.102116 0)
(11.2208 0.156023 0)
(11.3262 0.090697 0)
(11.5206 0.161202 0)
(11.5281 0.102751 0)
(11.5904 0.10256 0)
(11.5977 0.0683616 0)
(11.7157 0.0609084 0)
(11.8086 0.083055 0)
(11.8699 0.00891476 0)
(11.8665 0.114765 0)
(12.1173 0.0122539 0)
(11.9232 0.0579084 0)
(12.0249 0.0305987 0)
(12.3862 0.0116403 0)
(11.6592 -0.0221925 0)
(11.9864 -0.147913 0)
(9.99874 0.282943 0)
(10.3519 0.365195 0)
(10.8541 0.253555 0)
(11.0603 0.0862993 0)
(11.1422 0.139156 0)
(11.266 0.0650767 0)
(11.4138 0.145904 0)
(11.5155 0.0950548 0)
(11.5349 0.0969984 0)
(11.5681 0.0649651 0)
(11.6516 0.0404116 0)
(11.7659 0.0813695 0)
(11.7786 0.00391967 0)
(11.7842 0.0963649 0)
(12.0988 0.017517 0)
(11.8122 0.0466903 0)
(12.1316 0.0159483 0)
(12.1454 0.0268012 0)
(11.6935 -0.0309429 0)
(12.5081 -0.308084 0)
(9.99602 0.238074 0)
(10.3228 0.315623 0)
(10.8258 0.233574 0)
(10.9954 0.0790255 0)
(11.1122 0.123537 0)
(11.2146 0.0447819 0)
(11.3304 0.125239 0)
(11.4885 0.0863201 0)
(11.5038 0.0869863 0)
(11.5273 0.0658349 0)
(11.5928 0.0224835 0)
(11.6962 0.0794983 0)
(11.7029 0.00132746 0)
(11.8078 0.0714022 0)
(11.9645 0.022185 0)
(11.8308 0.0285229 0)
(12.1372 0.00692981 0)
(11.8389 0.0355895 0)
(12.0747 -0.0853126 0)
(12.4157 -0.331266 0)
(9.99467 0.2043 0)
(10.3295 0.257412 0)
(10.7403 0.218293 0)
(10.9411 0.0686925 0)
(11.1153 0.111704 0)
(11.1814 0.0255321 0)
(11.2863 0.106461 0)
(11.4462 0.0714952 0)
(11.4626 0.0821619 0)
(11.471 0.0652661 0)
(11.549 0.00928699 0)
(11.6376 0.0764242 0)
(11.7001 -0.0113956 0)
(11.8223 0.0557486 0)
(11.8041 0.0300644 0)
(11.9526 0.000697188 0)
(11.8994 0.0268212 0)
(11.8382 0.00957396 0)
(12.2575 -0.137744 0)
(12.0303 -0.249624 0)
(10.0157 0.162717 0)
(10.2886 0.218187 0)
(10.6414 0.190235 0)
(10.9395 0.0602592 0)
(11.1235 0.0958634 0)
(11.1676 0.0153108 0)
(11.2422 0.0825785 0)
(11.3804 0.0654063 0)
(11.4261 0.0701938 0)
(11.4262 0.0709852 0)
(11.5538 -0.012591 0)
(11.5942 0.0742387 0)
(11.7134 -0.0248983 0)
(11.7263 0.0526157 0)
(11.7695 0.0215529 0)
(11.9543 -0.00230041 0)
(11.6948 0.0247366 0)
(12.021 -0.0212217 0)
(12.1601 -0.145047 0)
(11.7706 -0.212382 0)
(10.0134 0.133864 0)
(10.2303 0.173555 0)
(10.6247 0.159646 0)
(10.949 0.0408627 0)
(11.1001 0.0888746 0)
(11.1526 0.00422331 0)
(11.1966 0.0677519 0)
(11.3361 0.04994 0)
(11.4039 0.0633716 0)
(11.41 0.0640397 0)
(11.5682 -0.0215685 0)
(11.5431 0.0606688 0)
(11.693 -0.0197125 0)
(11.6354 0.0322809 0)
(11.8338 0.0211421 0)
(11.8009 -0.0129952 0)
(11.7399 0.027016 0)
(12.0862 -0.0770865 0)
(11.9755 -0.104871 0)
(11.606 -0.211127 0)
(9.97919 0.107396 0)
(10.2433 0.127137 0)
(10.6441 0.121638 0)
(10.8969 0.0330537 0)
(11.064 0.0787466 0)
(11.153 -0.00298518 0)
(11.18 0.0459436 0)
(11.3261 0.0389356 0)
(11.3595 0.0490056 0)
(11.4112 0.0628094 0)
(11.5557 -0.0374252 0)
(11.5022 0.0625691 0)
(11.6511 -0.0300334 0)
(11.6621 0.0180912 0)
(11.8159 0.0186609 0)
(11.6812 -0.00896921 0)
(11.9126 -0.0125819 0)
(11.9811 -0.0565911 0)
(11.7818 -0.108328 0)
(11.6305 -0.138594 0)
(9.97 0.0793286 0)
(10.2866 0.0780934 0)
(10.5905 0.0930534 0)
(10.8404 0.0261023 0)
(11.0669 0.0641159 0)
(11.1716 -0.0121485 0)
(11.1731 0.025442 0)
(11.2819 0.0329451 0)
(11.3099 0.0350225 0)
(11.4334 0.05625 0)
(11.5237 -0.0448426 0)
(11.4883 0.0579392 0)
(11.6311 -0.0383494 0)
(11.7121 0.00332635 0)
(11.6776 0.0276267 0)
(11.7398 -0.0271841 0)
(11.9473 -0.0358694 0)
(11.8246 -0.0364013 0)
(11.7676 -0.116244 0)
(11.7866 -0.100604 0)
(9.99527 0.0546608 0)
(10.274 0.0316396 0)
(10.5239 0.0702395 0)
(10.8538 0.00628717 0)
(11.0766 0.0500426 0)
(11.1721 -0.0194552 0)
(11.144 0.0148273 0)
(11.2291 0.0225511 0)
(11.3051 0.0202261 0)
(11.464 0.0436375 0)
(11.4842 -0.0429637 0)
(11.4835 0.042698 0)
(11.6548 -0.0397994 0)
(11.6713 -0.0104731 0)
(11.5813 0.0364414 0)
(11.8815 -0.0637218 0)
(11.8191 -0.022477 0)
(11.7395 -0.0521829 0)
(11.892 -0.112193 0)
(11.8236 -0.156745 0)
(10.0117 0.0233477 0)
(10.2356 -0.00328491 0)
(10.5297 0.0335345 0)
(10.876 -0.00743576 0)
(11.0604 0.0346769 0)
(11.1474 -0.0188858 0)
(11.1257 -0.00329852 0)
(11.2268 0.0162195 0)
(11.3439 -0.0078392 0)
(11.4555 0.0467205 0)
(11.4427 -0.0529225 0)
(11.5017 0.03724 0)
(11.6764 -0.051604 0)
(11.572 -0.00391472 0)
(11.6639 0.011761 0)
(11.8908 -0.0609131 0)
(11.703 -0.0340681 0)
(11.806 -0.0417967 0)
(11.919 -0.143831 0)
(11.7569 -0.20883 0)
(10.0116 0.00344874 0)
(10.2261 -0.0504417 0)
(10.5586 0.0024912 0)
(10.8664 -0.0250368 0)
(11.0457 0.0269642 0)
(11.1287 -0.0265849 0)
(11.1466 -0.0179111 0)
(11.2518 -0.00324466 0)
(11.3676 -0.0176196 0)
(11.4037 0.036616 0)
(11.4295 -0.0466771 0)
(11.5571 0.00982666 0)
(11.6448 -0.0357506 0)
(11.5556 -0.0252518 0)
(11.771 0.0059174 0)
(11.7875 -0.0751877 0)
(11.7194 -0.0228871 0)
(11.8574 -0.0862506 0)
(11.8619 -0.116776 0)
(11.8276 -0.27149 0)
(10.0053 -0.0268462 0)
(10.2428 -0.0884764 0)
(10.5723 -0.0332589 0)
(10.8551 -0.034061 0)
(11.0396 0.0147234 0)
(11.1352 -0.0316254 0)
(11.1912 -0.0392703 0)
(11.2537 -0.0123269 0)
(11.3575 -0.0314103 0)
(11.364 0.0385985 0)
(11.4675 -0.0635281 0)
(11.5951 -0.00110948 0)
(11.5967 -0.034143 0)
(11.6318 -0.0380476 0)
(11.753 -0.00641454 0)
(11.7307 -0.0639316 0)
(11.7773 -0.0529076 0)
(11.8569 -0.074191 0)
(11.8599 -0.151166 0)
(11.7844 -0.188672 0)
(10.0003 -0.0509296 0)
(10.2628 -0.134405 0)
(10.5798 -0.0635228 0)
(10.857 -0.0441235 0)
(11.0428 -5.03689e-05 0)
(11.1663 -0.0417359 0)
(11.2152 -0.0555071 0)
(11.2401 -0.0228557 0)
(11.3453 -0.0384316 0)
(11.3754 0.0266253 0)
(11.5241 -0.0730315 0)
(11.5798 -0.0105756 0)
(11.5983 -0.0329928 0)
(11.6738 -0.0507155 0)
(11.6849 -0.00995414 0)
(11.7668 -0.0638368 0)
(11.8056 -0.0740579 0)
(11.8459 -0.068614 0)
(11.8727 -0.170238 0)
(11.7665 -0.116552 0)
(9.99918 -0.0819088 0)
(10.2804 -0.175931 0)
(10.5887 -0.0935607 0)
(10.8738 -0.0539535 0)
(11.0633 -0.0159638 0)
(11.1966 -0.0547461 0)
(11.2129 -0.0661583 0)
(11.2477 -0.0338835 0)
(11.3502 -0.0469428 0)
(11.4191 0.0091325 0)
(11.5504 -0.0736422 0)
(11.5624 -0.024047 0)
(11.6241 -0.0262408 0)
(11.664 -0.0669314 0)
(11.689 -0.00860157 0)
(11.8133 -0.0858633 0)
(11.8206 -0.0701468 0)
(11.8392 -0.0976641 0)
(11.874 -0.139552 0)
(11.8172 -0.193585 0)
(10.0008 -0.113534 0)
(10.294 -0.21676 0)
(10.6128 -0.126285 0)
(10.9029 -0.061845 0)
(11.0895 -0.0363047 0)
(11.2053 -0.0621737 0)
(11.226 -0.0796038 0)
(11.2734 -0.0447815 0)
(11.3703 -0.0581054 0)
(11.4622 -0.00540876 0)
(11.5493 -0.0781531 0)
(11.5747 -0.0302493 0)
(11.648 -0.0321542 0)
(11.6686 -0.0692955 0)
(11.7443 -0.0260549 0)
(11.8375 -0.0845928 0)
(11.8158 -0.0844571 0)
(11.8476 -0.097527 0)
(11.9106 -0.160948 0)
(11.7933 -0.197652 0)
(10.0023 -0.147487 0)
(10.3088 -0.259533 0)
(10.6493 -0.156462 0)
(10.9416 -0.0724295 0)
(11.1101 -0.0520446 0)
(11.2154 -0.0728722 0)
(11.2649 -0.0918406 0)
(11.2935 -0.0578375 0)
(11.4014 -0.0664016 0)
(11.4934 -0.0230935 0)
(11.5535 -0.074686 0)
(11.611 -0.0463248 0)
(11.6702 -0.0298063 0)
(11.7082 -0.0824665 0)
(11.7829 -0.0343823 0)
(11.8368 -0.0876411 0)
(11.8299 -0.091606 0)
(11.8884 -0.111116 0)
(11.9301 -0.166966 0)
(11.8014 -0.188152 0)
(10.0047 -0.185777 0)
(10.3262 -0.30019 0)
(10.6991 -0.188744 0)
(10.9852 -0.0811652 0)
(11.13 -0.0683193 0)
(11.2443 -0.0856614 0)
(11.297 -0.1016 0)
(11.3097 -0.0696908 0)
(11.4521 -0.076968 0)
(11.52 -0.0354912 0)
(11.5761 -0.0783126 0)
(11.6575 -0.0569656 0)
(11.7005 -0.0330123 0)
(11.7462 -0.0900507 0)
(11.8005 -0.0427084 0)
(11.8567 -0.0897064 0)
(11.8726 -0.102755 0)
(11.9232 -0.121233 0)
(11.9517 -0.176111 0)
(11.8687 -0.198188 0)
(10.0086 -0.226433 0)
(10.3517 -0.344423 0)
(10.764 -0.216209 0)
(11.0248 -0.0905838 0)
(11.1585 -0.085945 0)
(11.2759 -0.0992583 0)
(11.3172 -0.108707 0)
(11.3561 -0.0866334 0)
(11.5124 -0.0848009 0)
(11.5508 -0.050404 0)
(11.6184 -0.0799655 0)
(11.7015 -0.0697439 0)
(11.7319 -0.0344331 0)
(11.7746 -0.0966717 0)
(11.8308 -0.0514688 0)
(11.8999 -0.0947493 0)
(11.9108 -0.110148 0)
(11.9553 -0.13376 0)
(11.9935 -0.188173 0)
(11.8992 -0.19133 0)
(10.0245 -0.272561 0)
(10.3801 -0.390058 0)
(10.839 -0.236687 0)
(11.0516 -0.102321 0)
(11.1987 -0.106241 0)
(11.2979 -0.110977 0)
(11.3632 -0.120733 0)
(11.4254 -0.102418 0)
(11.5678 -0.0939109 0)
(11.5907 -0.0616603 0)
(11.6639 -0.0843756 0)
(11.7349 -0.0794892 0)
(11.7657 -0.0370226 0)
(11.8037 -0.103475 0)
(11.8767 -0.059336 0)
(11.9376 -0.102781 0)
(11.9525 -0.113194 0)
(11.9986 -0.150556 0)
(12.0295 -0.189619 0)
(11.9545 -0.21016 0)
(10.0496 -0.324331 0)
(10.4026 -0.437271 0)
(10.9262 -0.250595 0)
(11.06 -0.116771 0)
(11.2595 -0.126739 0)
(11.3284 -0.126357 0)
(11.4481 -0.132339 0)
(11.478 -0.118339 0)
(11.6352 -0.0998245 0)
(11.6196 -0.0730929 0)
(11.7102 -0.0883615 0)
(11.7637 -0.0869593 0)
(11.8103 -0.0421086 0)
(11.8346 -0.107963 0)
(11.9364 -0.0712484 0)
(11.9747 -0.105441 0)
(12.0069 -0.12108 0)
(12.0429 -0.160117 0)
(12.0761 -0.199183 0)
(11.9948 -0.237522 0)
(10.0551 -0.383104 0)
(10.4393 -0.483351 0)
(11.0124 -0.26311 0)
(11.0707 -0.132098 0)
(11.3565 -0.153072 0)
(11.3762 -0.141355 0)
(11.5355 -0.144252 0)
(11.5187 -0.131495 0)
(11.7112 -0.106047 0)
(11.6233 -0.0800307 0)
(11.7834 -0.0972079 0)
(11.7822 -0.0919309 0)
(11.8779 -0.0496321 0)
(11.867 -0.113455 0)
(12.0091 -0.0823603 0)
(11.9913 -0.11061 0)
(12.0573 -0.124266 0)
(12.0395 -0.174521 0)
(12.0658 -0.197305 0)
(11.9267 -0.265477 0)
(10.0302 -0.445871 0)
(10.5113 -0.531075 0)
(11.0821 -0.27401 0)
(11.132 -0.154074 0)
(11.4644 -0.180731 0)
(11.4251 -0.155551 0)
(11.6052 -0.153646 0)
(11.5732 -0.144806 0)
(11.7561 -0.110105 0)
(11.6476 -0.0884095 0)
(11.8541 -0.106624 0)
(11.7795 -0.0971617 0)
(11.9267 -0.0585714 0)
(11.8508 -0.118297 0)
(11.9945 -0.0902335 0)
(11.8935 -0.114064 0)
(11.9656 -0.12255 0)
(11.8357 -0.181586 0)
(11.8416 -0.177884 0)
(11.594 -0.298272 0)
(9.99698 -0.516561 0)
(10.6127 -0.575171 0)
(11.1505 -0.286294 0)
(11.2443 -0.181267 0)
(11.5424 -0.20557 0)
(11.4689 -0.167729 0)
(11.665 -0.163532 0)
(11.6021 -0.153961 0)
(11.7394 -0.11525 0)
(11.6327 -0.0966206 0)
(11.7858 -0.112669 0)
(11.6317 -0.0976873 0)
(11.7659 -0.0667033 0)
(11.597 -0.113168 0)
(11.6786 -0.0938683 0)
(11.5047 -0.103984 0)
(11.5251 -0.122866 0)
(11.3079 -0.158413 0)
(11.2526 -0.18356 0)
(10.9436 -0.230317 0)
(9.97625 -0.596824 0)
(10.7332 -0.610201 0)
(11.2331 -0.303745 0)
(11.3689 -0.213147 0)
(11.5618 -0.225621 0)
(11.4678 -0.179968 0)
(11.6003 -0.169804 0)
(11.4353 -0.154895 0)
(11.4766 -0.114751 0)
(11.3096 -0.0972956 0)
(11.3413 -0.105784 0)
(11.1106 -0.0903439 0)
(11.1887 -0.0633126 0)
(10.9373 -0.100373 0)
(10.9617 -0.0835064 0)
(10.7382 -0.0925265 0)
(10.7164 -0.105824 0)
(10.4412 -0.140529 0)
(10.356 -0.157014 0)
(9.99877 -0.183348 0)
(9.99125 -0.687602 0)
(10.8645 -0.64174 0)
(11.3019 -0.333629 0)
(11.3759 -0.247482 0)
(11.3588 -0.23522 0)
(11.1506 -0.179547 0)
(11.102 -0.159502 0)
(10.7974 -0.137902 0)
(10.7236 -0.100326 0)
(10.4879 -0.0831937 0)
(10.4234 -0.0867647 0)
(10.1603 -0.0742759 0)
(10.1909 -0.0520941 0)
(9.90681 -0.0803615 0)
(9.89803 -0.0688379 0)
(9.6568 -0.0755811 0)
(9.60731 -0.0855724 0)
(9.31234 -0.117192 0)
(9.20441 -0.122048 0)
(8.82393 -0.16513 0)
(10.0777 -0.803091 0)
(10.9263 -0.673561 0)
(11.1236 -0.356899 0)
(10.9069 -0.253553 0)
(10.5865 -0.210579 0)
(10.2135 -0.150616 0)
(10.0004 -0.126418 0)
(9.61988 -0.104985 0)
(9.48336 -0.0754054 0)
(9.22827 -0.0611347 0)
(9.1186 -0.063086 0)
(8.86641 -0.0557034 0)
(8.86604 -0.0378175 0)
(8.59003 -0.0591402 0)
(8.56304 -0.0526179 0)
(8.32792 -0.0565749 0)
(8.26159 -0.0654473 0)
(7.97587 -0.0871636 0)
(7.847 -0.100202 0)
(7.48991 -0.100486 0)
(10.1638 -0.946113 0)
(10.5725 -0.671058 0)
(10.2518 -0.330576 0)
(9.65555 -0.208369 0)
(9.11334 -0.152283 0)
(8.6728 -0.103296 0)
(8.39352 -0.0839033 0)
(8.02473 -0.0689072 0)
(7.87571 -0.0492876 0)
(7.64134 -0.0386905 0)
(7.52627 -0.0404908 0)
(7.30856 -0.0377189 0)
(7.29011 -0.0235828 0)
(7.05166 -0.0392338 0)
(7.01454 -0.0362574 0)
(6.80302 -0.0383289 0)
(6.73202 -0.0444174 0)
(6.47187 -0.0608004 0)
(6.34164 -0.0694768 0)
(6.00083 -0.0665441 0)
(9.86017 -1.02122 0)
(9.34788 -0.578817 0)
(8.46831 -0.241514 0)
(7.65128 -0.1289 0)
(7.08125 -0.0844643 0)
(6.68668 -0.0558358 0)
(6.42667 -0.0446814 0)
(6.12718 -0.0372495 0)
(5.99711 -0.0265706 0)
(5.81025 -0.019539 0)
(5.71687 -0.0215728 0)
(5.54472 -0.0218707 0)
(5.52059 -0.0114851 0)
(5.33824 -0.0221535 0)
(5.29615 -0.0213451 0)
(5.12327 -0.0219081 0)
(5.05768 -0.025557 0)
(4.83944 -0.0363299 0)
(4.71928 -0.0415591 0)
(4.41036 -0.0394152 0)
(8.60115 -0.871565 0)
(6.95179 -0.38417 0)
(5.80592 -0.121933 0)
(5.06222 -0.0501036 0)
(4.64348 -0.0295518 0)
(4.37316 -0.0199803 0)
(4.19114 -0.0158002 0)
(3.9925 -0.0139697 0)
(3.9009 -0.00978759 0)
(3.77993 -0.00611474 0)
(3.72089 -0.00796241 0)
(3.60355 -0.00942981 0)
(3.58296 -0.00315649 0)
(3.46718 -0.00909198 0)
(3.42704 -0.0093166 0)
(3.30655 -0.00903236 0)
(3.25474 -0.0106001 0)
(3.09727 -0.0162572 0)
(2.99684 -0.0183965 0)
(2.75947 -0.0177588 0)
(5.32895 -0.309338 0)
(2.98662 -0.0607774 0)
(2.19325 0.00153873 0)
(1.85007 0.0038503 0)
(1.70337 0.000984976 0)
(1.60829 0.000112114 0)
(1.54222 0.000353409 0)
(1.47135 -0.000369023 0)
(1.43457 -0.000122026 0)
(1.3936 0.000641604 0)
(1.376 -0.000156524 0)
(1.32805 -0.0010786 0)
(1.31789 0.000870699 0)
(1.27892 -0.000705037 0)
(1.25506 -0.000838573 0)
(1.20416 -0.000551474 0)
(1.17862 -0.000599045 0)
(1.10986 -0.00169103 0)
(1.05339 -0.00182606 0)
(0.945809 0.00386425 0)
(1.61066 0.0825403 0)
(2.58077 -0.220201 0)
(2.50288 -0.656152 0)
(2.85674 -1.05368 0)
(2.1238 -1.36463 0)
(2.29623 -1.42921 0)
(1.43424 -1.07073 0)
(0.411339 -0.884916 0)
(2.05528 -0.550141 0)
(1.34009 0.993279 0)
(2.29877 2.33512 0)
(3.48221 2.46949 0)
(3.63993 2.68124 0)
(5.23285 2.4271 0)
(6.07355 2.17117 0)
(6.22098 1.95712 0)
(7.04621 1.62474 0)
(7.44847 1.60439 0)
(8.78461 1.02329 0)
(9.3818 0.548341 0)
(9.96809 -0.262344 0)
(10.4672 -1.27264 0)
(10.6357 -1.89998 0)
(10.9331 -2.62127 0)
(10.9138 -2.98499 0)
(10.8913 -3.28647 0)
(11.6957 -4.04709 0)
(12.5792 -4.78029 0)
(13.3045 -5.71313 0)
(13.5433 -6.53631 0)
(13.1155 -6.8133 0)
(12.5239 -6.9575 0)
(11.9229 -7.0209 0)
(11.1952 -6.7807 0)
(10.6262 -6.73439 0)
(10.4424 -6.88158 0)
(10.0213 -6.75288 0)
(9.57472 -6.57726 0)
(9.3908 -6.74425 0)
(9.4442 -7.09441 0)
(9.39968 -7.26481 0)
(9.29903 -7.22106 0)
(9.04352 -7.13016 0)
(8.96152 -7.12831 0)
(9.20022 -7.58453 0)
(9.5437 -7.7045 0)
(9.96942 -7.28143 0)
(10.5137 -6.69281 0)
(10.984 -5.39979 0)
(11.1354 -4.02936 0)
(11.2173 -2.76968 0)
(11.5746 -1.08642 0)
(11.7378 0.515026 0)
(11.5402 1.78721 0)
(11.3239 3.20275 0)
(11.0421 4.31658 0)
(10.556 5.01172 0)
(9.99723 5.69059 0)
(9.22536 5.71737 0)
(8.47465 4.99576 0)
(7.96477 4.73947 0)
(7.50822 5.05799 0)
(7.14221 4.84109 0)
(6.89344 3.94484 0)
(6.64975 3.40298 0)
(6.5328 3.79918 0)
(6.41788 4.39719 0)
(6.21963 4.39588 0)
(5.98056 3.77934 0)
(5.92006 3.07606 0)
(5.88794 2.58969 0)
(5.95263 2.74796 0)
(6.24073 3.6272 0)
(6.29442 4.16517 0)
(6.09013 4.10508 0)
(5.72312 3.96008 0)
(5.54392 4.00092 0)
(5.54414 4.303 0)
(5.5435 5.0582 0)
(5.38837 5.8978 0)
(5.54646 6.3424 0)
(5.90976 6.11354 0)
(5.84615 5.83987 0)
(5.22545 5.91807 0)
(5.21901 5.00498 0)
(5.63889 2.93786 0)
(5.79618 0.912193 0)
(5.69361 -0.744666 0)
(5.46445 -2.22088 0)
(5.17695 -3.57878 0)
(5.04425 -4.51526 0)
(5.11118 -5.29748 0)
(5.13172 -6.75947 0)
(4.74638 -8.86847 0)
(4.70859 -9.80447 0)
(4.76149 -8.95858 0)
(5.34504 -7.2919 0)
(5.27527 -6.33533 0)
(5.60046 -6.49164 0)
(5.49542 -7.43751 0)
(5.79641 -8.04923 0)
(6.36249 -8.52152 0)
(6.6925 -9.06141 0)
(6.60126 -8.70969 0)
(6.71584 -8.27009 0)
(6.96158 -8.13002 0)
(7.40018 -8.12767 0)
(7.72659 -7.57474 0)
(7.86439 -6.32362 0)
(7.70693 -4.7572 0)
(7.23998 -3.32645 0)
(7.00663 -1.81932 0)
(6.90319 -0.222439 0)
(6.8459 1.23274 0)
(6.94445 2.80816 0)
(7.03312 4.55543 0)
(6.94949 5.76989 0)
(6.81894 6.30302 0)
(6.86544 6.87294 0)
(7.16675 8.35452 0)
(7.38831 10.3162 0)
(7.47222 11.6086 0)
(7.26344 11.4228 0)
(6.94005 9.67584 0)
(6.61513 7.49296 0)
(5.97607 5.78365 0)
(5.85527 4.91971 0)
(5.00281 5.43588 0)
(5.10544 5.22927 0)
(3.87926 5.92278 0)
(5.43801 5.20098 0)
(2.29963 5.156 0)
(4.67229 4.37544 0)
(3.09923 4.38907 0)
(4.13294 3.26766 0)
(3.41775 3.51851 0)
(3.32764 2.47543 0)
(2.79362 2.79057 0)
(2.74054 1.2085 0)
(2.8797 1.81226 0)
(3.15141 0.511007 0)
(3.99381 1.08307 0)
(4.25589 0.175844 0)
(5.13523 0.817778 0)
(5.41344 -0.00169148 0)
(6.17638 0.316323 0)
(6.64921 0.0905459 0)
(7.66951 0.724992 0)
(7.80639 0.0142626 0)
(8.87561 0.156876 0)
(8.92981 -0.406414 0)
(9.77847 -0.536165 0)
(9.83073 -1.19067 0)
(10.2163 -1.50578 0)
(10.1892 -2.17215 0)
(10.4464 -2.40001 0)
(10.1191 -2.65331 0)
(10.3688 -3.28041 0)
(10.4098 -3.58279 0)
(10.137 -3.4903 0)
(10.0181 -3.51439 0)
(9.85646 -3.91835 0)
(9.97422 -4.17499 0)
(10.0106 -4.24263 0)
(9.80741 -4.18915 0)
(9.45529 -3.89769 0)
(9.54583 -3.48945 0)
(9.63607 -3.18891 0)
(9.85038 -3.05495 0)
(10.0365 -2.85267 0)
(10.4416 -2.38714 0)
(10.8083 -2.0529 0)
(10.912 -1.78454 0)
(10.9922 -1.15475 0)
(10.9013 -0.315405 0)
(10.6016 0.295446 0)
(9.93323 0.551078 0)
(9.4198 0.738895 0)
(8.83012 0.970466 0)
(8.65202 1.19483 0)
(8.32721 1.55929 0)
(8.22329 1.74902 0)
(8.0998 1.82212 0)
(7.99598 1.90694 0)
(7.79844 1.8839 0)
(7.41197 2.02439 0)
(7.50108 2.21625 0)
(7.36937 2.50765 0)
(7.59141 3.01636 0)
(7.79707 3.50608 0)
(7.89741 3.93314 0)
(7.96617 4.25558 0)
(7.84662 4.54409 0)
(7.88602 4.87133 0)
(7.53672 5.16258 0)
(7.33898 5.53232 0)
(7.11484 6.22751 0)
(6.78241 7.19576 0)
(6.94897 7.92764 0)
(3.67234 11.0481 0)
(3.42787 -0.0571781 0)
(4.20002 -0.248553 0)
(4.0582 -0.634899 0)
(4.38342 -1.01911 0)
(4.01898 -1.15136 0)
(3.84389 -1.35432 0)
(3.52403 -0.893866 0)
(2.56224 -0.636787 0)
(3.39289 -0.612253 0)
(2.02763 0.871273 0)
(3.09721 1.98004 0)
(5.02197 2.00371 0)
(4.94697 2.26386 0)
(6.25251 2.10385 0)
(6.82902 1.97589 0)
(7.52813 1.68948 0)
(8.06562 1.47891 0)
(8.46098 1.39555 0)
(9.56079 0.782287 0)
(9.87719 0.439775 0)
(10.4947 -0.384102 0)
(10.979 -1.40393 0)
(10.849 -1.92455 0)
(11.1958 -2.63031 0)
(11.3417 -3.00974 0)
(11.6762 -3.48307 0)
(12.7499 -4.39159 0)
(13.4213 -5.09274 0)
(13.7995 -5.89887 0)
(13.7241 -6.47846 0)
(13.1013 -6.57956 0)
(12.4982 -6.70166 0)
(11.8837 -6.74693 0)
(11.1861 -6.51717 0)
(10.7282 -6.58766 0)
(10.5597 -6.76204 0)
(9.98567 -6.56533 0)
(9.47631 -6.42414 0)
(9.40356 -6.73348 0)
(9.44546 -7.09573 0)
(9.32051 -7.21308 0)
(9.08186 -7.12643 0)
(8.78488 -7.08059 0)
(8.65552 -7.19524 0)
(8.81407 -7.68859 0)
(9.13693 -7.91044 0)
(9.5376 -7.48834 0)
(10.0995 -6.816 0)
(10.4713 -5.55228 0)
(10.601 -4.09197 0)
(10.7054 -2.79033 0)
(10.9761 -1.19001 0)
(11.2039 0.468492 0)
(11.1289 1.86963 0)
(10.9655 3.31289 0)
(10.7187 4.43477 0)
(10.2928 5.21135 0)
(9.77217 5.96972 0)
(9.02508 6.02699 0)
(8.3084 5.2893 0)
(7.81357 4.96931 0)
(7.36232 5.21995 0)
(7.01333 4.9619 0)
(6.80244 4.05012 0)
(6.60605 3.48579 0)
(6.48939 3.85659 0)
(6.36081 4.45708 0)
(6.15578 4.47967 0)
(5.93219 3.84951 0)
(5.88307 3.09471 0)
(5.90983 2.5717 0)
(5.96042 2.66822 0)
(6.26499 3.54254 0)
(6.39336 4.18574 0)
(6.22655 4.21559 0)
(5.81733 4.0687 0)
(5.67982 4.03553 0)
(5.65725 4.31143 0)
(5.59229 5.07739 0)
(5.67218 5.84797 0)
(5.90067 6.24771 0)
(6.09642 6.08454 0)
(5.92946 5.97679 0)
(5.29054 6.06977 0)
(5.42034 4.92524 0)
(5.80449 2.83444 0)
(5.84607 0.909653 0)
(5.73344 -0.688169 0)
(5.56934 -2.12835 0)
(5.3268 -3.49314 0)
(5.18521 -4.5031 0)
(5.24486 -5.34319 0)
(5.31181 -6.73335 0)
(5.00206 -8.81088 0)
(4.87329 -9.86556 0)
(4.95972 -9.07276 0)
(5.4738 -7.40861 0)
(5.35424 -6.35189 0)
(5.69467 -6.50912 0)
(5.44531 -7.48789 0)
(5.70181 -8.19541 0)
(6.23757 -8.73038 0)
(6.43014 -9.06929 0)
(6.26537 -8.66496 0)
(6.50213 -8.40208 0)
(6.76761 -8.2855 0)
(7.10502 -8.24901 0)
(7.34352 -7.60496 0)
(7.42241 -6.24869 0)
(7.17532 -4.61538 0)
(6.66908 -3.17247 0)
(6.42783 -1.72887 0)
(6.28888 -0.19397 0)
(6.2493 1.26165 0)
(6.40524 2.8183 0)
(6.51549 4.52521 0)
(6.51325 5.76949 0)
(6.43735 6.28083 0)
(6.54081 6.80084 0)
(6.83106 8.2463 0)
(7.04217 10.2208 0)
(7.1472 11.5697 0)
(7.01103 11.4798 0)
(6.76978 9.81343 0)
(6.53363 7.66486 0)
(5.94569 6.02666 0)
(5.86018 5.00219 0)
(4.95872 5.73678 0)
(5.48336 5.35382 0)
(3.4795 5.93645 0)
(5.8092 5.4592 0)
(2.72878 5.32081 0)
(4.4187 4.31816 0)
(3.38468 4.41557 0)
(3.867 3.20996 0)
(3.31868 3.70096 0)
(2.80283 2.56814 0)
(2.80336 2.93765 0)
(2.31266 1.15652 0)
(3.06815 1.7349 0)
(2.78432 0.223223 0)
(4.11772 0.88319 0)
(4.16526 -0.186846 0)
(5.50505 0.651655 0)
(5.26012 -0.268557 0)
(6.55395 0.0584984 0)
(6.57579 -0.246264 0)
(7.78203 0.527654 0)
(7.71481 -0.272118 0)
(9.00485 -0.0131073 0)
(8.81297 -0.678187 0)
(9.788 -0.623325 0)
(9.75922 -1.33643 0)
(10.2233 -1.56622 0)
(10.2058 -2.26182 0)
(10.3876 -2.35707 0)
(10.2866 -2.71472 0)
(10.6493 -3.31875 0)
(10.5504 -3.56764 0)
(10.2941 -3.40358 0)
(10.2309 -3.46226 0)
(10.1523 -3.94582 0)
(10.3357 -4.19684 0)
(10.2529 -4.15946 0)
(9.93717 -4.03916 0)
(9.58373 -3.8489 0)
(9.73252 -3.55249 0)
(9.92151 -3.23899 0)
(10.0595 -3.14916 0)
(10.2882 -3.0046 0)
(10.7854 -2.56061 0)
(11.1459 -2.15179 0)
(11.1298 -1.82564 0)
(11.278 -1.16742 0)
(11.1647 -0.233953 0)
(10.9383 0.493624 0)
(10.2123 0.818952 0)
(9.55063 0.970395 0)
(9.11847 1.13255 0)
(8.65319 1.34905 0)
(8.28422 1.62832 0)
(8.32439 1.80323 0)
(8.10789 1.87171 0)
(7.97507 1.93928 0)
(7.94254 2.02051 0)
(7.5555 2.07385 0)
(7.6192 2.22076 0)
(7.47257 2.50905 0)
(7.51475 2.94121 0)
(7.88713 3.41789 0)
(7.98912 3.90759 0)
(8.13744 4.22851 0)
(8.02667 4.58063 0)
(8.13805 4.91228 0)
(7.93462 5.27349 0)
(7.69252 5.65446 0)
(7.56598 6.26272 0)
(7.1885 7.41668 0)
(8.44625 7.88164 0)
(5.28325 12.0273 0)
(5.22588 -0.209974 0)
(5.76339 -0.329907 0)
(5.73098 -0.578329 0)
(5.81784 -1.01112 0)
(5.60215 -1.11565 0)
(5.37722 -1.20235 0)
(5.32818 -0.863543 0)
(4.29018 -0.442169 0)
(5.37053 -0.370653 0)
(3.36279 0.775201 0)
(3.9473 1.4691 0)
(5.86723 1.5205 0)
(5.77501 1.92301 0)
(6.87681 1.81408 0)
(7.25356 1.63184 0)
(8.12047 1.26698 0)
(8.35728 1.21363 0)
(8.87136 1.06768 0)
(9.78981 0.478577 0)
(10.0255 0.217131 0)
(10.7391 -0.659985 0)
(11.0619 -1.50821 0)
(11.0624 -1.97677 0)
(11.7953 -2.80634 0)
(12.1063 -3.21154 0)
(12.7485 -3.80047 0)
(13.7352 -4.71496 0)
(14.0216 -5.27702 0)
(14.0914 -5.92364 0)
(13.7434 -6.28289 0)
(13.0044 -6.26321 0)
(12.4471 -6.4471 0)
(11.8418 -6.51053 0)
(11.1908 -6.30468 0)
(10.8109 -6.43483 0)
(10.5375 -6.5918 0)
(9.85622 -6.34987 0)
(9.40085 -6.317 0)
(9.43302 -6.74238 0)
(9.41667 -7.08592 0)
(9.16354 -7.1197 0)
(8.81267 -6.98637 0)
(8.49249 -6.98893 0)
(8.34937 -7.2181 0)
(8.44137 -7.76474 0)
(8.73496 -8.05618 0)
(9.10677 -7.66261 0)
(9.66663 -6.9092 0)
(9.9139 -5.65283 0)
(10.0205 -4.13463 0)
(10.1979 -2.80456 0)
(10.3919 -1.27736 0)
(10.6239 0.404235 0)
(10.6455 1.91026 0)
(10.5423 3.39616 0)
(10.3385 4.54126 0)
(9.97344 5.37731 0)
(9.51098 6.1845 0)
(8.83141 6.26575 0)
(8.16203 5.53031 0)
(7.67528 5.16805 0)
(7.22904 5.36849 0)
(6.87813 5.06581 0)
(6.68421 4.13255 0)
(6.53145 3.55874 0)
(6.43099 3.91331 0)
(6.3055 4.51569 0)
(6.09558 4.56231 0)
(5.88735 3.9196 0)
(5.8448 3.10371 0)
(5.91966 2.54634 0)
(5.97439 2.58766 0)
(6.2809 3.44556 0)
(6.48437 4.18531 0)
(6.36157 4.32563 0)
(5.94323 4.17782 0)
(5.80837 4.07656 0)
(5.70686 4.34502 0)
(5.68428 5.05848 0)
(5.98449 5.7647 0)
(6.13079 6.18424 0)
(6.21704 6.10019 0)
(5.99464 6.1461 0)
(5.35656 6.17822 0)
(5.63013 4.82746 0)
(5.90034 2.75668 0)
(5.84891 0.932363 0)
(5.7597 -0.642054 0)
(5.67758 -2.05524 0)
(5.49799 -3.42456 0)
(5.35068 -4.47594 0)
(5.42923 -5.32456 0)
(5.53422 -6.65225 0)
(5.28732 -8.70276 0)
(5.07536 -9.89338 0)
(5.18144 -9.17638 0)
(5.58465 -7.49915 0)
(5.46177 -6.3735 0)
(5.75071 -6.51451 0)
(5.41082 -7.51358 0)
(5.63857 -8.35311 0)
(6.08792 -8.90772 0)
(6.15975 -9.03956 0)
(6.03905 -8.6533 0)
(6.41911 -8.57251 0)
(6.61044 -8.42133 0)
(6.75636 -8.32821 0)
(6.89402 -7.61073 0)
(6.92987 -6.16283 0)
(6.63152 -4.46834 0)
(6.13331 -3.01029 0)
(5.89251 -1.63616 0)
(5.72844 -0.196578 0)
(5.72091 1.2023 0)
(5.91015 2.77549 0)
(6.0201 4.48549 0)
(6.03718 5.76806 0)
(6.00751 6.29345 0)
(6.13795 6.82103 0)
(6.45741 8.22342 0)
(6.69299 10.153 0)
(6.81606 11.5131 0)
(6.75489 11.4855 0)
(6.57931 9.92193 0)
(6.43612 7.78886 0)
(5.90373 6.24332 0)
(5.92357 5.11911 0)
(4.85994 5.91272 0)
(5.90524 5.54649 0)
(3.38286 5.92593 0)
(5.84007 5.55161 0)
(3.52715 5.58101 0)
(4.45624 4.35641 0)
(3.48137 4.42112 0)
(3.69881 3.30849 0)
(3.06602 3.92467 0)
(2.27861 2.64934 0)
(2.86944 3.06708 0)
(2.14038 1.0665 0)
(3.50047 1.65102 0)
(2.64201 -0.010818 0)
(4.63813 0.629476 0)
(4.20286 -0.545489 0)
(6.03711 0.480243 0)
(5.36106 -0.546235 0)
(7.18439 -0.182057 0)
(6.46913 -0.492078 0)
(7.9915 0.321143 0)
(7.63408 -0.547836 0)
(9.23495 -0.201436 0)
(8.67873 -0.915367 0)
(9.87892 -0.732969 0)
(9.69552 -1.51092 0)
(10.3127 -1.64813 0)
(10.2292 -2.3452 0)
(10.484 -2.32629 0)
(10.6149 -2.82437 0)
(10.8857 -3.31525 0)