/*--------------------------------*- C++ -*----------------------------------*\
| =========                 |                                                 |
| \\      /  F ield         | OpenFOAM: The Open Source CFD Toolbox           |
|  \\    /   O peration     | Version:  2.4.0                                 |
|   \\  /    A nd           | Web:      www.OpenFOAM.org                      |
|    \\/     M anipulation  |                                                 |
\*---------------------------------------------------------------------------*/
FoamFile
{
    version     2.0;
    format      ascii;
    class       surfaceScalarField;
    location    "0.134";
    object      phi;
}
// * * * * * * * * * * * * * * * * * * * * * * * * * * * * * * * * * * * * * //

dimensions      [0 3 -1 0 0 0 0];

internalField   nonuniform List<scalar> 
8640
(
1.1465e-05
1.3535e-05
7.17448e-06
4.29053e-06
5.91819e-06
1.25629e-06
5.37949e-06
5.38703e-07
5.08219e-06
2.97297e-07
4.97265e-06
1.0954e-07
4.8026e-06
1.70051e-07
4.90379e-06
-1.01183e-07
4.36686e-06
5.36924e-07
-2.81564e-06
7.18251e-06
2.10463e-05
1.74887e-05
1.74508e-05
7.88599e-06
1.55163e-05
3.1908e-06
1.42709e-05
1.78406e-06
1.34612e-05
1.10702e-06
1.30838e-05
4.87019e-07
1.26373e-05
6.16544e-07
1.27581e-05
-2.22029e-07
1.20937e-05
1.20136e-06
-4.18453e-06
1.34626e-05
2.56928e-05
1.67959e-05
2.41012e-05
9.47759e-06
2.26132e-05
4.6788e-06
2.12599e-05
3.13739e-06
2.01898e-05
2.17712e-06
1.96311e-05
1.04568e-06
1.90169e-05
1.23073e-06
1.9029e-05
-2.34089e-07
1.86321e-05
1.59823e-06
-4.61645e-06
1.9064e-05
2.74528e-05
1.43431e-05
2.77303e-05
9.20005e-06
2.73665e-05
5.04264e-06
2.65602e-05
3.9437e-06
2.56199e-05
3.11735e-06
2.50452e-05
1.6204e-06
2.44459e-05
1.83008e-06
2.42745e-05
-6.27402e-08
2.42411e-05
1.63169e-06
-4.67251e-06
2.42971e-05
2.76505e-05
1.16926e-05
2.88926e-05
7.9579e-06
2.95926e-05
4.34265e-06
2.97214e-05
3.81489e-06
2.93732e-05
3.46561e-06
2.9037e-05
1.95659e-06
2.8691e-05
2.17608e-06
2.84347e-05
1.93578e-07
2.8663e-05
1.40339e-06
-4.59561e-06
2.85861e-05
2.75124e-05
9.18029e-06
2.89266e-05
6.54365e-06
2.99635e-05
3.30576e-06
3.07163e-05
3.06211e-06
3.11258e-05
3.05613e-06
3.12246e-05
1.85776e-06
3.13489e-05
2.05174e-06
3.12445e-05
2.9799e-07
3.17317e-05
9.16171e-07
-4.12185e-06
3.1258e-05
2.74192e-05
6.76108e-06
2.89125e-05
5.05031e-06
2.98634e-05
2.35489e-06
3.06755e-05
2.25005e-06
3.14463e-05
2.28532e-06
3.18064e-05
1.49768e-06
3.2303e-05
1.55506e-06
3.24932e-05
1.07872e-07
3.32306e-05
1.78731e-07
-3.27599e-06
3.23847e-05
2.73509e-05
4.41015e-06
2.90198e-05
3.38143e-06
2.97605e-05
1.61422e-06
3.0545e-05
1.46553e-06
3.13449e-05
1.48542e-06
3.18371e-05
1.00548e-06
3.23726e-05
1.01955e-06
3.27347e-05
-2.54217e-07
3.35024e-05
-5.88948e-07
-3.65063e-06
3.3877e-05
2.72612e-05
2.14898e-06
2.89399e-05
1.70266e-06
2.96757e-05
8.78419e-07
3.04803e-05
6.60962e-07
3.12575e-05
7.08266e-07
3.18273e-05
4.35649e-07
3.23362e-05
5.10632e-07
3.27422e-05
-6.60181e-07
3.32876e-05
-1.13438e-06
-3.57871e-06
3.32157e-05
2.72191e-05
-7.01111e-08
2.89168e-05
4.92675e-09
2.96598e-05
1.35401e-07
3.04675e-05
-1.46675e-07
3.11683e-05
7.47914e-09
3.17293e-05
-1.25372e-07
3.23368e-05
-9.68336e-08
3.27978e-05
-1.12118e-06
3.31081e-05
-1.44473e-06
-3.72782e-06
3.32572e-05
2.72289e-05
-2.29905e-06
2.89128e-05
-1.67898e-06
2.9656e-05
-6.077e-07
3.04574e-05
-9.48148e-07
3.11376e-05
-6.72669e-07
3.17213e-05
-7.0913e-07
3.23747e-05
-7.50161e-07
3.27941e-05
-1.54062e-06
3.30204e-05
-1.67105e-06
-4.26454e-06
3.35571e-05
2.72536e-05
-4.55265e-06
2.89219e-05
-3.34727e-06
2.96895e-05
-1.37533e-06
3.04815e-05
-1.74014e-06
3.11826e-05
-1.37372e-06
3.17959e-05
-1.32251e-06
3.24181e-05
-1.37229e-06
3.27114e-05
-1.83391e-06
3.3079e-05
-2.03868e-06
-4.74251e-06
3.3557e-05
2.73097e-05
-6.86232e-06
2.89426e-05
-4.9802e-06
2.97592e-05
-2.19192e-06
3.05571e-05
-2.53803e-06
3.12862e-05
-2.10286e-06
3.19006e-05
-1.93687e-06
3.24014e-05
-1.87314e-06
3.26419e-05
-2.07439e-06
3.3127e-05
-2.52377e-06
-5.04059e-06
3.34251e-05
2.73723e-05
-9.23458e-06
2.88539e-05
-6.46179e-06
2.98896e-05
-3.22764e-06
3.06991e-05
-3.34759e-06
3.14069e-05
-2.81063e-06
3.18832e-05
-2.4132e-06
3.22251e-05
-2.21501e-06
3.2381e-05
-2.23027e-06
3.26585e-05
-2.80128e-06
-5.01629e-06
3.26342e-05
2.74749e-05
-1.17094e-05
2.89227e-05
-7.9096e-06
3.00236e-05
-4.32857e-06
3.07102e-05
-4.03422e-06
3.11234e-05
-3.22384e-06
3.123e-05
-2.51976e-06
3.1208e-05
-2.19305e-06
3.10401e-05
-2.0623e-06
3.08671e-05
-2.62837e-06
-4.59327e-06
3.04441e-05
2.76393e-05
-1.43488e-05
2.89054e-05
-9.17568e-06
2.96246e-05
-5.04778e-06
2.96787e-05
-4.08825e-06
2.9395e-05
-2.94019e-06
2.89759e-05
-2.1007e-06
2.85478e-05
-1.76488e-06
2.80901e-05
-1.6046e-06
2.75989e-05
-2.13722e-06
-3.37941e-06
2.63851e-05
2.74492e-05
-1.6798e-05
2.77405e-05
-9.46695e-06
2.73787e-05
-4.68599e-06
2.65154e-05
-3.22497e-06
2.5645e-05
-2.0697e-06
2.49329e-05
-1.38862e-06
2.43285e-05
-1.1605e-06
2.37848e-05
-1.06094e-06
2.31795e-05
-1.53191e-06
-2.34465e-06
2.21448e-05
2.56926e-05
-1.74906e-05
2.41073e-05
-7.88163e-06
2.26143e-05
-3.19301e-06
2.1223e-05
-1.83365e-06
2.02053e-05
-1.05207e-06
1.94991e-05
-6.82335e-07
1.89238e-05
-5.85289e-07
1.84282e-05
-5.65294e-07
1.77732e-05
-8.76925e-07
-1.30621e-06
1.67348e-05
2.10454e-05
-1.3536e-05
1.74533e-05
-4.28955e-06
1.55153e-05
-1.25497e-06
1.42416e-05
-5.59965e-07
1.34671e-05
-2.77625e-07
1.2965e-05
-1.80181e-07
1.25488e-05
-1.69117e-07
1.21686e-05
-1.8512e-07
1.159e-05
-2.98298e-07
-5.00463e-07
1.07843e-05
1.1464e-05
7.17446e-06
5.91948e-06
5.35952e-06
5.08189e-06
4.90171e-06
4.73259e-06
4.54747e-06
4.24918e-06
3.74871e-06
8.72582e-06
-1.81142e-06
2.68097e-07
9.02456e-06
-2.00259e-06
1.70384e-06
9.04787e-06
-4.39259e-06
4.36929e-06
8.70434e-06
-5.00639e-06
5.34991e-06
7.56157e-06
-5.16598e-06
6.30875e-06
6.92547e-06
-4.10582e-06
4.74192e-06
7.26802e-06
-1.71719e-06
1.37464e-06
8.03791e-06
1.58048e-06
-2.35037e-06
9.56319e-06
6.68704e-06
-8.21232e-06
1.21031e-05
1.27016e-05
-1.52415e-05
1.52698e-05
1.3115e-05
-1.62817e-05
1.80422e-05
9.46634e-06
-1.22387e-05
2.06216e-05
5.66336e-06
-8.24274e-06
2.38951e-05
-1.65375e-06
-1.61973e-06
2.54328e-05
-6.71108e-06
5.17336e-06
2.53734e-05
-1.13794e-05
1.14388e-05
2.6458e-05
-1.7486e-05
1.64014e-05
2.81904e-05
-1.9101e-05
1.73687e-05
2.9836e-05
-2.47747e-05
2.31291e-05
3.16235e-05
-2.90974e-05
2.73099e-05
3.22367e-05
-2.94138e-05
2.88007e-05
3.13914e-05
-3.06234e-05
3.14686e-05
2.9547e-05
-2.81848e-05
3.00292e-05
2.71724e-05
-2.51432e-05
2.75178e-05
2.43242e-05
-1.97942e-05
2.26425e-05
2.15097e-05
-1.33753e-05
1.61898e-05
1.90523e-05
-6.60268e-06
9.06012e-06
1.57261e-05
-1.56873e-06
4.89486e-06
1.31126e-05
1.77353e-06
8.40027e-07
1.23994e-05
2.36631e-05
-2.295e-05
1.47001e-05
4.79597e-05
-5.02604e-05
1.77795e-05
4.89244e-05
-5.20039e-05
1.84662e-05
3.63631e-05
-3.70497e-05
1.97308e-05
2.02273e-05
-2.14919e-05
2.11277e-05
3.48791e-06
-4.88479e-06
2.19173e-05
-3.70649e-06
2.91685e-06
2.29694e-05
-1.39988e-05
1.29467e-05
2.33511e-05
-2.55561e-05
2.51745e-05
2.27688e-05
-2.77629e-05
2.83451e-05
2.16656e-05
-2.85682e-05
2.96714e-05
1.98782e-05
-3.49344e-05
3.67218e-05
1.80625e-05
-3.35617e-05
3.53773e-05
1.62945e-05
-2.35498e-05
2.53178e-05
1.43526e-05
-2.43499e-05
2.62919e-05
1.31816e-05
-3.9477e-05
4.0648e-05
1.35318e-05
-4.80986e-05
4.77484e-05
1.40773e-05
-4.897e-05
4.84245e-05
1.48349e-05
-4.31471e-05
4.23895e-05
1.59815e-05
-3.67077e-05
3.5561e-05
1.58e-05
-2.61275e-05
2.63091e-05
1.54511e-05
-1.6139e-05
1.64879e-05
1.55492e-05
-3.41981e-07
2.4389e-07
1.66923e-05
1.1377e-05
-1.25201e-05
1.74297e-05
1.73506e-05
-1.80879e-05
1.85448e-05
2.43842e-05
-2.54993e-05
1.93603e-05
3.84391e-05
-3.92546e-05
2.00134e-05
4.73535e-05
-4.80066e-05
2.03757e-05
5.11331e-05
-5.14954e-05
1.96933e-05
4.84897e-05
-4.78073e-05
1.88515e-05
4.05316e-05
-3.96897e-05
1.83145e-05
3.07257e-05
-3.01888e-05
1.62916e-05
2.33418e-05
-2.13188e-05
1.65412e-05
9.6652e-06
-9.91485e-06
1.8429e-05
1.61095e-05
-1.79973e-05
2.12635e-05
1.92473e-05
-2.20819e-05
2.31873e-05
2.65023e-05
-2.8426e-05
2.43478e-05
2.29623e-05
-2.41228e-05
2.51926e-05
2.07422e-05
-2.1587e-05
2.51718e-05
1.16998e-05
-1.1679e-05
2.45215e-05
7.01584e-06
-6.36556e-06
2.39313e-05
-6.30641e-06
6.89664e-06
2.30379e-05
-1.22006e-05
1.3094e-05
2.1336e-05
-2.12661e-05
2.2968e-05
1.9126e-05
-2.45896e-05
2.67996e-05
1.82592e-05
-2.86783e-05
2.9545e-05
1.67706e-05
-2.87274e-05
3.0216e-05
1.59843e-05
-3.09575e-05
3.17439e-05
1.71599e-05
-1.46616e-05
1.3486e-05
1.47774e-05
-1.09723e-05
1.33548e-05
1.32398e-05
-1.67013e-05
1.82389e-05
1.44653e-05
-2.90638e-05
2.78383e-05
1.41641e-05
-3.03439e-05
3.0645e-05
1.61472e-05
-2.95497e-05
2.75667e-05
1.69623e-05
-1.47909e-05
1.39757e-05
1.78022e-05
-3.63643e-06
2.79654e-06
1.86683e-05
5.09707e-06
-5.96319e-06
1.83701e-05
1.13339e-05
-1.10357e-05
1.94447e-05
1.56046e-05
-1.66792e-05
2.11972e-05
2.17238e-05
-2.34762e-05
2.24507e-05
2.83154e-05
-2.95689e-05
2.1878e-05
3.28802e-05
-3.23075e-05
2.04896e-05
3.36262e-05
-3.22377e-05
1.93118e-05
3.16502e-05
-3.04725e-05
1.71522e-05
2.94419e-05
-2.72823e-05
1.62485e-05
2.41022e-05
-2.31984e-05
1.37237e-05
2.56248e-05
-2.31e-05
1.35448e-05
1.83423e-05
-1.81633e-05
1.14516e-05
2.60407e-05
-2.39475e-05
1.21134e-05
1.95198e-05
-2.01817e-05
4.10473e-05
-3.96371e-05
1.07032e-05
1.43624e-05
-2.7113e-06
1.4479e-05
-2.11915e-06
1.41649e-05
-4.07844e-06
1.41114e-05
-4.95293e-06
1.33663e-05
-4.42091e-06
1.23165e-05
-3.05597e-06
1.16358e-05
-1.03653e-06
1.1565e-05
1.6513e-06
1.291e-05
5.34202e-06
1.59582e-05
9.65343e-06
1.92423e-05
9.83082e-06
2.15399e-05
7.16871e-06
2.33767e-05
3.82659e-06
2.54241e-05
-3.70112e-06
2.67653e-05
-8.05229e-06
2.74078e-05
-1.2022e-05
2.89784e-05
-1.90566e-05
3.12059e-05
-2.13285e-05
3.26793e-05
-2.62481e-05
3.34386e-05
-2.98568e-05
3.33791e-05
-2.93543e-05
3.22016e-05
-2.94459e-05
3.02883e-05
-2.62716e-05
2.79582e-05
-2.28131e-05
2.5231e-05
-1.7067e-05
2.23834e-05
-1.05278e-05
1.99427e-05
-4.16197e-06
1.68145e-05
1.55947e-06
1.3912e-05
4.67604e-06
1.31453e-05
2.44298e-05
1.61077e-05
4.49973e-05
1.93128e-05
4.57193e-05
2.05853e-05
3.50906e-05
2.21942e-05
1.86184e-05
2.32281e-05
2.45392e-06
2.38214e-05
-4.29975e-06
2.47322e-05
-1.49096e-05
2.46295e-05
-2.54534e-05
2.34065e-05
-2.65399e-05
2.2023e-05
-2.71847e-05
2.00725e-05
-3.29839e-05
1.80895e-05
-3.15787e-05
1.62014e-05
-2.16616e-05
1.40764e-05
-2.22249e-05
1.26136e-05
-3.80143e-05
1.23698e-05
-4.78548e-05
1.20637e-05
-4.86639e-05
1.24475e-05
-4.35309e-05
1.38239e-05
-3.8084e-05
1.38547e-05
-2.61584e-05
1.36838e-05
-1.59681e-05
1.39771e-05
-6.35347e-07
1.54202e-05
9.93389e-06
1.61415e-05
1.66293e-05
1.69652e-05
2.35605e-05
1.76637e-05
3.77405e-05
1.82974e-05
4.67199e-05
1.9216e-05
5.02144e-05
1.93596e-05
4.83461e-05
1.85948e-05
4.12964e-05
1.85343e-05
3.07863e-05
1.71274e-05
2.47486e-05
1.68163e-05
9.97635e-06
1.86868e-05
1.4239e-05
2.17154e-05
1.62187e-05
2.37247e-05
2.44929e-05
2.50981e-05
2.1589e-05
2.64972e-05
1.9343e-05
2.65786e-05
1.16184e-05
2.60221e-05
7.57235e-06
2.52847e-05
-5.56902e-06
2.44519e-05
-1.13678e-05
2.26237e-05
-1.94378e-05
2.00616e-05
-2.20275e-05
1.93471e-05
-2.79638e-05
1.71941e-05
-2.65744e-05
1.51039e-05
-2.88673e-05
1.63354e-05
-1.58931e-05
1.43986e-05
-9.03548e-06
1.3634e-05
-1.59367e-05
1.48713e-05
-3.03011e-05
1.38621e-05
-2.93347e-05
1.5318e-05
-3.10056e-05
1.63488e-05
-1.58217e-05
1.64678e-05
-3.75543e-06
1.8016e-05
3.54886e-06
1.82741e-05
1.10758e-05
1.87643e-05
1.51145e-05
2.03238e-05
2.01643e-05
2.20692e-05
2.65699e-05
2.26349e-05
3.23145e-05
2.13069e-05
3.49541e-05
2.01841e-05
3.27731e-05
1.78355e-05
3.17905e-05
1.72629e-05
2.46748e-05
1.47735e-05
2.81142e-05
1.45852e-05
1.85306e-05
1.30645e-05
2.75613e-05
1.61315e-05
1.64528e-05
4.11296e-05
1.60493e-05
1.92972e-05
-2.94443e-06
1.94001e-05
-2.22203e-06
1.91046e-05
-3.78302e-06
1.90268e-05
-4.87511e-06
1.86087e-05
-4.00278e-06
1.7848e-05
-2.29526e-06
1.71242e-05
-3.12794e-07
1.66713e-05
2.10419e-06
1.69267e-05
5.08667e-06
1.90605e-05
7.51958e-06
2.20518e-05
6.83954e-06
2.43349e-05
4.8856e-06
2.61431e-05
2.01842e-06
2.77741e-05
-5.33213e-06
2.92896e-05
-9.56776e-06
3.07895e-05
-1.35219e-05
3.23684e-05
-2.06355e-05
3.41254e-05
-2.30855e-05
3.51604e-05
-2.72831e-05
3.49288e-05
-2.96251e-05
3.41937e-05
-2.86193e-05
3.28866e-05
-2.81388e-05
3.10645e-05
-2.44495e-05
2.88857e-05
-2.06342e-05
2.63153e-05
-1.44967e-05
2.342e-05
-7.63244e-06
2.07682e-05
-1.51018e-06
1.78816e-05
4.44602e-06
1.50221e-05
7.5356e-06
1.43383e-05
2.51136e-05
1.73584e-05
4.19773e-05
2.08481e-05
4.22295e-05
2.28511e-05
3.30875e-05
2.45414e-05
1.69281e-05
2.52201e-05
1.77525e-06
2.56526e-05
-4.73227e-06
2.61983e-05
-1.54553e-05
2.54926e-05
-2.47477e-05
2.37811e-05
-2.48283e-05
2.23106e-05
-2.57142e-05
2.03112e-05
-3.09844e-05
1.80714e-05
-2.9339e-05
1.58761e-05
-1.94663e-05
1.36873e-05
-2.00361e-05
1.23014e-05
-3.66284e-05
1.1681e-05
-4.72344e-05
1.05877e-05
-4.75706e-05
1.02354e-05
-4.31786e-05
1.13687e-05
-3.92173e-05
1.17844e-05
-2.6574e-05
1.19816e-05
-1.61653e-05
1.25276e-05
-1.18138e-06
1.40661e-05
8.39542e-06
1.47483e-05
1.59471e-05
1.52722e-05
2.30366e-05
1.61736e-05
3.68391e-05
1.67405e-05
4.6153e-05
1.78076e-05
4.91473e-05
1.8924e-05
4.72297e-05
1.82566e-05
4.19638e-05
1.83251e-05
3.07178e-05
1.77016e-05
2.53721e-05
1.72079e-05
1.047e-05
1.90039e-05
1.24431e-05
2.18211e-05
1.34015e-05
2.41664e-05
2.21476e-05
2.55828e-05
2.01726e-05
2.71377e-05
1.77882e-05
2.74429e-05
1.13132e-05
2.7213e-05
7.8022e-06
2.61588e-05
-4.51484e-06
2.51687e-05
-1.03777e-05
2.31966e-05
-1.74658e-05
2.09456e-05
-1.97765e-05
2.02044e-05
-2.72226e-05
1.76722e-05
-2.40421e-05
1.50754e-05
-2.62705e-05
1.50418e-05
-1.58595e-05
1.38034e-05
-7.79713e-06
1.36773e-05
-1.58105e-05
1.39261e-05
-3.055e-05
1.30382e-05
-2.84468e-05
1.4432e-05
-3.23994e-05
1.56658e-05
-1.70555e-05
1.51056e-05
-3.19526e-06
1.62912e-05
2.36328e-06
1.80616e-05
9.30541e-06
1.84551e-05
1.4721e-05
1.97113e-05
1.89081e-05
2.11915e-05
2.50897e-05
2.28834e-05
3.06226e-05
2.21297e-05
3.57078e-05
2.16951e-05
3.32078e-05
1.92483e-05
3.42373e-05
1.87666e-05
2.51565e-05
1.68532e-05
3.00277e-05
1.67603e-05
1.86234e-05
1.52022e-05
2.91194e-05
1.94154e-05
1.22396e-05
4.00417e-05
2.05033e-05
2.38927e-05
-2.54e-06
2.37013e-05
-2.03064e-06
2.35034e-05
-3.58514e-06
2.33401e-05
-4.71186e-06
2.32146e-05
-3.87726e-06
2.29005e-05
-1.98111e-06
2.22761e-05
3.11562e-07
2.20302e-05
2.35006e-06
2.20732e-05
5.04374e-06
2.32533e-05
6.33948e-06
2.54242e-05
4.66856e-06
2.73467e-05
2.96309e-06
2.91755e-05
1.89685e-07
3.08989e-05
-7.05561e-06
3.26208e-05
-1.12896e-05
3.40762e-05
-1.49772e-05
3.50201e-05
-2.15794e-05
3.59638e-05
-2.40292e-05
3.64354e-05
-2.77547e-05
3.55623e-05
-2.8752e-05
3.44151e-05
-2.74721e-05
3.32595e-05
-2.69832e-05
3.16531e-05
-2.28431e-05
2.96564e-05
-1.86375e-05
2.73568e-05
-1.21971e-05
2.44963e-05
-4.77194e-06
2.15744e-05
1.41173e-06
1.90631e-05
6.95729e-06
1.64436e-05
1.01551e-05
1.5757e-05
2.58002e-05
1.86211e-05
3.91132e-05
2.23121e-05
3.85385e-05
2.47465e-05
3.06531e-05
2.63242e-05
1.53504e-05
2.66974e-05
1.4021e-06
2.70929e-05
-5.12777e-06
2.72594e-05
-1.56218e-05
2.59521e-05
-2.34404e-05
2.38785e-05
-2.27547e-05
2.23597e-05
-2.41955e-05
2.0422e-05
-2.90466e-05
1.80651e-05
-2.69821e-05
1.55912e-05
-1.69924e-05
1.33494e-05
-1.77943e-05
1.20864e-05
-3.53654e-05
1.13276e-05
-4.64757e-05
9.61864e-06
-4.58616e-05
8.52497e-06
-4.20849e-05
9.14945e-06
-3.98418e-05
9.80777e-06
-2.72323e-05
1.02415e-05
-1.6599e-05
1.09838e-05
-1.92369e-06
1.25189e-05
6.8603e-06
1.32045e-05
1.52615e-05
1.34551e-05
2.2786e-05
1.44719e-05
3.58223e-05
1.50508e-05
4.55741e-05
1.61479e-05
4.80503e-05
1.81529e-05
4.52247e-05
1.77433e-05
4.23734e-05
1.80185e-05
3.04427e-05
1.81183e-05
2.52723e-05
1.76026e-05
1.09857e-05
1.93646e-05
1.06811e-05
2.16664e-05
1.10997e-05
2.42027e-05
1.96113e-05
2.55588e-05
1.88165e-05
2.69424e-05
1.64046e-05
2.75763e-05
1.06794e-05
2.78381e-05
7.54031e-06
2.67151e-05
-3.39182e-06
2.58073e-05
-9.46987e-06
2.37405e-05
-1.5399e-05
2.17977e-05
-1.78337e-05
2.06603e-05
-2.60852e-05
1.81479e-05
-2.15298e-05
1.5515e-05
-2.36376e-05
1.39773e-05
-1.43218e-05
1.40243e-05
-7.84414e-06
1.31099e-05
-1.48961e-05
1.149e-05
-2.89301e-05
1.19325e-05
-2.88892e-05
1.35216e-05
-3.39885e-05
1.4596e-05
-1.81299e-05
1.43907e-05
-2.98998e-06
1.44551e-05
2.29891e-06
1.69198e-05
6.84067e-06
1.79984e-05
1.36423e-05
1.91907e-05
1.77159e-05
2.04089e-05
2.38715e-05
2.25984e-05
2.84332e-05
2.23927e-05
3.59135e-05
2.29606e-05
3.26399e-05
2.08956e-05
3.63023e-05
2.03554e-05
2.56967e-05
1.8924e-05
3.1459e-05
1.95225e-05
1.8025e-05
1.70927e-05
3.15492e-05
2.00232e-05
9.30915e-06
3.66359e-05
2.3429e-05
2.79009e-05
-1.85483e-06
2.73974e-05
-1.52709e-06
2.72665e-05
-3.45425e-06
2.70307e-05
-4.47614e-06
2.6881e-05
-3.72749e-06
2.69609e-05
-2.06105e-06
2.66527e-05
6.19752e-07
2.66657e-05
2.33712e-06
2.69684e-05
4.74103e-06
2.77487e-05
5.55921e-06
2.92423e-05
3.17496e-06
3.09055e-05
1.29982e-06
3.2499e-05
-1.40374e-06
3.37363e-05
-8.29292e-06
3.51936e-05
-1.27469e-05
3.62835e-05
-1.60672e-05
3.63884e-05
-2.16843e-05
3.66159e-05
-2.42567e-05
3.64469e-05
-2.75857e-05
3.52322e-05
-2.75374e-05
3.40757e-05
-2.63155e-05
3.31582e-05
-2.60657e-05
3.19465e-05
-2.16313e-05
3.01683e-05
-1.68594e-05
2.80958e-05
-1.01246e-05
2.55385e-05
-2.21471e-06
2.24121e-05
4.53815e-06
2.0032e-05
9.3374e-06
1.76425e-05
1.25447e-05
1.69851e-05
2.64576e-05
1.97755e-05
3.63228e-05
2.34422e-05
3.48718e-05
2.59909e-05
2.81044e-05
2.74706e-05
1.38707e-05
2.77788e-05
1.09394e-06
2.81462e-05
-5.49525e-06
2.78421e-05
-1.53178e-05
2.60208e-05
-2.16191e-05
2.38483e-05
-2.05821e-05
2.24254e-05
-2.27726e-05
2.05091e-05
-2.71303e-05
1.79187e-05
-2.43917e-05
1.51647e-05
-1.42384e-05
1.29239e-05
-1.55535e-05
1.16414e-05
-3.40829e-05
1.08213e-05
-4.56557e-05
8.83833e-06
-4.38786e-05
7.34446e-06
-4.0591e-05
7.23984e-06
-3.97372e-05
7.84675e-06
-2.78392e-05
8.48296e-06
-1.72352e-05
9.43734e-06
-2.87807e-06
1.07997e-05
5.49797e-06
1.15426e-05
1.45186e-05
1.13775e-05
2.29511e-05
1.26664e-05
3.45333e-05
1.351e-05
4.47305e-05
1.43647e-05
4.71956e-05
1.71418e-05
4.24477e-05
1.74085e-05
4.21066e-05
1.79059e-05
2.99453e-05
1.85508e-05
2.46273e-05
1.81243e-05
1.14122e-05
1.98635e-05
8.94194e-06
2.18305e-05
9.13272e-06
2.4211e-05
1.72308e-05
2.54149e-05
1.76125e-05
2.65194e-05
1.53e-05
2.74527e-05
9.74612e-06
2.80088e-05
6.98421e-06
2.69016e-05
-2.28456e-06
2.60017e-05
-8.56999e-06
2.40135e-05
-1.34108e-05
2.23858e-05
-1.62061e-05
2.05447e-05
-2.42441e-05
1.87117e-05
-1.96968e-05
1.62697e-05
-2.11956e-05
1.35486e-05
-1.16007e-05
1.45096e-05
-8.80508e-06
1.22284e-05
-1.26149e-05
9.80491e-06
-2.65066e-05
1.13358e-05
-3.04201e-05
1.19126e-05
-3.45653e-05
1.32524e-05
-1.94697e-05
1.44509e-05
-4.18844e-06
1.30023e-05
3.74751e-06
1.49701e-05
4.87285e-06
1.74405e-05
1.11719e-05
1.86485e-05
1.65078e-05
1.95907e-05
2.29293e-05
2.21408e-05
2.58831e-05
2.23363e-05
3.57179e-05
2.37231e-05
3.12531e-05
2.26194e-05
3.74059e-05
2.23866e-05
2.59296e-05
2.0703e-05
3.31425e-05
2.25192e-05
1.62088e-05
2.02217e-05
3.38467e-05
2.04314e-05
9.09943e-06
3.2421e-05
2.46464e-05
3.07348e-05
-1.33163e-06
3.01209e-05
-9.13204e-07
2.99656e-05
-3.29899e-06
2.97611e-05
-4.27157e-06
2.95998e-05
-3.56628e-06
2.99177e-05
-2.37889e-06
2.99408e-05
5.9663e-07
3.00523e-05
2.22565e-06
3.07126e-05
4.08071e-06
3.15288e-05
4.74301e-06
3.24984e-05
2.20536e-06
3.39621e-05
-1.6386e-07
3.5395e-05
-2.83668e-06
3.58819e-05
-8.7798e-06
3.65622e-05
-1.34272e-05
3.73154e-05
-1.68204e-05
3.68694e-05
-2.12384e-05
3.64623e-05
-2.38496e-05
3.5948e-05
-2.70713e-05
3.49417e-05
-2.65311e-05
3.43448e-05
-2.57186e-05
3.37589e-05
-2.54798e-05
3.26646e-05
-2.05371e-05
3.1017e-05
-1.52117e-05
2.88219e-05
-7.92954e-06
2.6334e-05
2.7325e-07
2.32582e-05
7.61388e-06
2.07784e-05
1.18172e-05
1.84947e-05
1.48284e-05
1.81642e-05
2.67881e-05
2.08716e-05
3.36154e-05
2.42024e-05
3.15411e-05
2.6768e-05
2.55388e-05
2.82415e-05
1.23972e-05
2.85425e-05
7.92972e-07
2.8712e-05
-5.66476e-06
2.79425e-05
-1.45482e-05
2.57891e-05
-1.94658e-05
2.36951e-05
-1.84881e-05
2.23923e-05
-2.14698e-05
2.05966e-05
-2.53346e-05
1.78445e-05
-2.16395e-05
1.48307e-05
-1.12246e-05
1.25621e-05
-1.32849e-05
1.08379e-05
-3.23587e-05
9.7137e-06
-4.45315e-05
7.86778e-06
-4.20327e-05
6.28726e-06
-3.90105e-05
5.37677e-06
-3.88267e-05
5.65334e-06
-2.81158e-05
6.46344e-06
-1.80453e-05
7.53597e-06
-3.9506e-06
8.63674e-06
4.39719e-06
9.58828e-06
1.3567e-05
9.12275e-06
2.34166e-05
1.08269e-05
3.28291e-05
1.20323e-05
4.35251e-05
1.25296e-05
4.66983e-05
1.58123e-05
3.9165e-05
1.72464e-05
4.06725e-05
1.78293e-05
2.93625e-05
1.88499e-05
2.36066e-05
1.87596e-05
1.15025e-05
2.01592e-05
7.54234e-06
2.18555e-05
7.43647e-06
2.38821e-05
1.52042e-05
2.51858e-05
1.63088e-05
2.62784e-05
1.42074e-05
2.7103e-05
8.92149e-06
2.76449e-05
6.44237e-06
2.68113e-05
-1.45097e-06
2.61402e-05
-7.89887e-06
2.41479e-05
-1.14185e-05
2.28383e-05
-1.48964e-05
2.05578e-05
-2.19636e-05
1.90306e-05
-1.81696e-05
1.66635e-05
-1.88285e-05
1.36266e-05
-8.56382e-06
1.41653e-05
-9.3437e-06
1.14862e-05
-9.93584e-06
9.6126e-06
-2.4633e-05
1.07158e-05
-3.15233e-05
9.47967e-06
-3.33292e-05
1.15821e-05
-2.15722e-05
1.45524e-05
-7.15868e-06
1.24409e-05
5.85895e-06
1.36804e-05
3.63337e-06
1.62938e-05
8.55855e-06
1.8181e-05
1.46207e-05
1.86288e-05
2.24814e-05
2.13523e-05
2.31596e-05
2.20038e-05
3.50664e-05
2.41415e-05
2.91154e-05
2.38447e-05
3.77027e-05
2.46624e-05
2.51118e-05
2.23178e-05
3.54871e-05
2.4259e-05
1.42676e-05
2.33676e-05
3.47381e-05
2.16658e-05
1.08013e-05
2.8804e-05
2.52827e-05
3.22722e-05
-1.21908e-06
3.18946e-05
-5.35616e-07
3.14985e-05
-2.90288e-06
3.11407e-05
-3.9138e-06
3.09795e-05
-3.40501e-06
3.14731e-05
-2.87255e-06
3.2006e-05
6.3758e-08
3.22383e-05
1.99331e-06
3.29858e-05
3.33323e-06
3.39649e-05
3.76396e-06
3.45087e-05
1.66153e-06
3.54855e-05
-1.14064e-06
3.67673e-05
-4.11853e-06
3.68578e-05
-8.87032e-06
3.66948e-05
-1.32642e-05
3.68985e-05
-1.7024e-05
3.64494e-05
-2.07892e-05
3.58584e-05
-2.32586e-05
3.5243e-05
-2.64559e-05
3.46643e-05
-2.59524e-05
3.43039e-05
-2.53582e-05
3.36847e-05
-2.48606e-05
3.24352e-05
-1.92875e-05
3.08644e-05
-1.36409e-05
2.90813e-05
-6.14643e-06
2.69337e-05
2.42081e-06
2.40463e-05
1.05013e-05
2.12925e-05
1.4571e-05
1.91236e-05
1.69973e-05
1.92509e-05
2.66607e-05
2.17377e-05
3.11286e-05
2.48165e-05
2.84623e-05
2.74193e-05
2.2936e-05
2.86654e-05
1.1151e-05
2.88209e-05
6.37489e-07
2.87536e-05
-5.59749e-06
2.76098e-05
-1.34044e-05
2.52899e-05
-1.71459e-05
2.35889e-05
-1.67871e-05
2.24401e-05
-2.0321e-05
2.05349e-05
-2.34294e-05
1.76185e-05
-1.87231e-05
1.44446e-05
-8.0507e-06
1.20603e-05
-1.09006e-05
9.53064e-06
-2.98291e-05
7.74824e-06
-4.27491e-05
6.44193e-06
-4.07264e-05
4.89019e-06
-3.74588e-05
3.12658e-06
-3.70631e-05
3.04577e-06
-2.8035e-05
4.04021e-06
-1.90398e-05
5.49622e-06
-5.4066e-06
6.24294e-06
3.65048e-06
7.42866e-06
1.23813e-05
6.70483e-06
2.41405e-05
8.47892e-06
3.10551e-05
1.04899e-05
4.15142e-05
1.09835e-05
4.62046e-05
1.40018e-05
3.61467e-05
1.67813e-05
3.7893e-05
1.75775e-05
2.85663e-05
1.86276e-05
2.25565e-05
1.91308e-05
1.09993e-05
2.01198e-05
6.55336e-06
2.13715e-05
6.1848e-06
2.3153e-05
1.34227e-05
2.48438e-05
1.4618e-05
2.60638e-05
1.29874e-05
2.67909e-05
8.19437e-06
2.7197e-05
6.03625e-06
2.6499e-05
-7.52968e-07
2.58159e-05
-7.21575e-06
2.42556e-05
-9.85815e-06
2.29941e-05
-1.36349e-05
2.0698e-05
-1.96676e-05
1.92459e-05
-1.67175e-05
1.63644e-05
-1.5947e-05
1.39755e-05
-6.17487e-06
1.32686e-05
-8.63682e-06
1.15115e-05
-8.17877e-06
1.00277e-05
-2.31492e-05
9.14128e-06
-3.06369e-05
7.50778e-06
-3.16957e-05
1.04093e-05
-2.44737e-05
1.50742e-05
-1.18236e-05
1.30847e-05
7.84842e-06
1.33236e-05
3.39443e-06
1.50519e-05
6.83031e-06
1.79196e-05
1.17529e-05
1.77773e-05
2.26238e-05
2.03969e-05
2.054e-05
2.12688e-05
3.41944e-05
2.40433e-05
2.63409e-05
2.39883e-05
3.77578e-05
2.6331e-05
2.27691e-05
2.39229e-05
3.78952e-05
2.42665e-05
1.3924e-05
2.52543e-05
3.37503e-05
2.33927e-05
1.26629e-05
2.59747e-05
2.6222e-05
3.34864e-05
-8.28461e-07
3.31036e-05
-1.52836e-07
3.26217e-05
-2.42093e-06
3.19877e-05
-3.27982e-06
3.16009e-05
-3.01826e-06
3.17038e-05
-2.97546e-06
3.24409e-05
-6.73317e-07
3.30091e-05
1.42515e-06
3.38406e-05
2.50176e-06
3.49698e-05
2.6347e-06
3.54012e-05
1.23014e-06
3.58719e-05
-1.61134e-06
3.66078e-05
-4.85443e-06
3.64382e-05
-8.70068e-06
3.61722e-05
-1.29983e-05
3.62057e-05
-1.70575e-05
3.58714e-05
-2.04549e-05
3.54474e-05
-2.28346e-05
3.48415e-05
-2.585e-05
3.46815e-05
-2.57924e-05
3.43084e-05
-2.49852e-05
3.30555e-05
-2.36077e-05
3.15295e-05
-1.77615e-05
2.9851e-05
-1.19624e-05
2.8118e-05
-4.41349e-06
2.63432e-05
4.19571e-06
2.40736e-05
1.27708e-05
2.16658e-05
1.69788e-05
1.97168e-05
1.89464e-05
2.00476e-05
2.63299e-05
2.24488e-05
2.87274e-05
2.53184e-05
2.55927e-05
2.76442e-05
2.06103e-05
2.86424e-05
1.01529e-05
2.86277e-05
6.52162e-07
2.82968e-05
-5.26658e-06
2.70169e-05
-1.21246e-05
2.48374e-05
-1.49664e-05
2.34361e-05
-1.53858e-05
2.24427e-05
-1.93276e-05
2.05236e-05
-2.15103e-05
1.73237e-05
-1.55232e-05
1.39164e-05
-4.64335e-06
1.13651e-05
-8.34933e-06
8.03835e-06
-2.65023e-05
5.3325e-06
-4.00432e-05
4.38264e-06
-3.97765e-05
2.93192e-06
-3.6008e-05
5.54072e-07
-3.46853e-05
1.27626e-07
-2.76086e-05
1.24452e-06
-2.01567e-05
2.86576e-06
-7.02785e-06
3.37645e-06
3.13979e-06
4.64762e-06
1.11101e-05
4.0568e-06
2.47313e-05
5.8093e-06
2.93026e-05
9.20908e-06
3.81144e-05
9.7451e-06
4.56686e-05
1.19989e-05
3.3893e-05
1.5409e-05
3.44828e-05
1.68569e-05
2.71184e-05
1.81298e-05
2.12837e-05
1.91433e-05
9.9857e-06
2.00239e-05
5.67277e-06
2.12048e-05
5.00393e-06
2.29393e-05
1.16882e-05
2.47667e-05
1.27906e-05
2.57099e-05
1.20442e-05
2.61793e-05
7.72504e-06
2.67355e-05
5.47997e-06
2.6316e-05
-3.33422e-07
2.52125e-05
-6.11227e-06
2.41372e-05
-8.78286e-06
2.2824e-05
-1.23217e-05
2.06495e-05
-1.74931e-05
1.93396e-05
-1.54075e-05
1.63373e-05
-1.29448e-05
1.5123e-05
-4.96055e-06
1.29878e-05
-6.50159e-06
1.23188e-05
-7.50973e-06
1.07423e-05
-2.15728e-05
7.6308e-06
-2.75253e-05
6.69886e-06
-3.07638e-05
9.63443e-06
-2.74093e-05
1.49691e-05
-1.71582e-05
1.37706e-05
9.0469e-06
1.3745e-05
3.42007e-06
1.40692e-05
6.50608e-06
1.72196e-05
8.6026e-06
1.72386e-05
2.26047e-05
1.92344e-05
1.85443e-05
2.01571e-05
3.32717e-05
2.37368e-05
2.27612e-05
2.36158e-05
3.78788e-05
2.7132e-05
1.92529e-05
2.58526e-05
3.91746e-05
2.47808e-05
1.49958e-05
2.65143e-05
3.20168e-05
2.50475e-05
1.41297e-05
2.36849e-05
2.73373e-05
3.31689e-05
-7.81678e-07
3.34285e-05
-4.12475e-07
3.31772e-05
-2.16956e-06
3.2759e-05
-2.86168e-06
3.22354e-05
-2.49467e-06
3.17352e-05
-2.47521e-06
3.20865e-05
-1.02457e-06
3.26901e-05
8.2152e-07
3.35593e-05
1.6325e-06
3.46797e-05
1.51437e-06
3.52533e-05
6.56486e-07
3.57052e-05
-2.06326e-06
3.61797e-05
-5.32887e-06
3.59472e-05
-8.46816e-06
3.58511e-05
-1.29022e-05
3.60866e-05
-1.7293e-05
3.57284e-05
-2.00967e-05
3.51796e-05
-2.22858e-05
3.44757e-05
-2.51461e-05
3.40158e-05
-2.53325e-05
3.32281e-05
-2.41976e-05
3.13797e-05
-2.17592e-05
2.95524e-05
-1.59342e-05
2.80745e-05
-1.04846e-05
2.6633e-05
-2.97196e-06
2.5045e-05
5.7837e-06
2.34006e-05
1.44152e-05
2.16129e-05
1.87665e-05
1.98394e-05
2.07199e-05
2.03585e-05
2.58107e-05
2.26604e-05
2.64256e-05
2.50582e-05
2.31949e-05
2.70277e-05
1.86407e-05
2.80164e-05
9.1642e-06
2.80832e-05
5.85345e-07
2.76395e-05
-4.82288e-06
2.62062e-05
-1.06913e-05
2.44369e-05
-1.31972e-05
2.34912e-05
-1.444e-05
2.24231e-05
-1.82595e-05
2.02826e-05
-1.93697e-05
1.69564e-05
-1.21971e-05
1.35441e-05
-1.23101e-06
1.0717e-05
-5.52228e-06
6.58894e-06
-2.23743e-05
2.92163e-06
-3.63759e-05
1.83505e-06
-3.869e-05
7.36451e-07
-3.49094e-05
-1.42826e-06
-3.25205e-05
-2.1771e-06
-2.68597e-05
-1.82336e-06
-2.05104e-05
-7.32686e-07
-8.11852e-06
-4.15212e-07
2.82231e-06
1.32735e-06
9.36758e-06
1.98911e-06
2.40695e-05
3.13701e-06
2.81547e-05
7.58976e-06
3.36616e-05
8.63881e-06
4.46195e-05
1.07367e-05
3.17951e-05
1.38357e-05
3.13837e-05
1.61239e-05
2.48303e-05
1.77305e-05
1.96771e-05
1.90127e-05
8.70346e-06
1.99022e-05
4.78326e-06
2.09581e-05
3.94802e-06
2.24307e-05
1.02157e-05
2.39646e-05
1.12567e-05
2.48615e-05
1.11473e-05
2.5353e-05
7.23351e-06
2.61411e-05
4.69187e-06
2.61752e-05
-3.67508e-07
2.4746e-05
-4.68312e-06
2.40272e-05
-8.064e-06
2.2962e-05
-1.12565e-05
2.08699e-05
-1.5401e-05
1.92961e-05
-1.38337e-05
1.6214e-05
-9.86276e-06
1.59835e-05
-4.73002e-06
1.35421e-05
-4.06022e-06
1.27872e-05
-6.7548e-06
1.0774e-05
-1.95596e-05
6.62264e-06
-2.3374e-05
5.95574e-06
-3.00969e-05
8.3058e-06
-2.97593e-05
1.31755e-05
-2.20279e-05
1.37822e-05
8.44025e-06
1.41223e-05
3.07992e-06
1.31817e-05
7.44672e-06
1.57092e-05
6.07504e-06
1.6425e-05
2.1889e-05
1.80341e-05
1.69351e-05
1.88702e-05
3.24356e-05
2.33863e-05
1.82451e-05
2.25515e-05
3.87136e-05
2.63678e-05
1.54365e-05
2.69538e-05
3.85886e-05
2.55825e-05
1.63671e-05
2.72623e-05
3.0337e-05
2.62894e-05
1.51025e-05
2.15943e-05
2.83801e-05
3.34908e-05
-1.01524e-06
3.35923e-05
-5.13973e-07
3.31597e-05
-1.73697e-06
3.28235e-05
-2.5255e-06
3.23732e-05
-2.0444e-06
3.18846e-05
-1.98658e-06
3.19871e-05
-1.12704e-06
3.24837e-05
3.24932e-07
3.323e-05
8.8617e-07
3.40828e-05
6.61589e-07
3.47002e-05
3.90288e-08
3.50777e-05
-2.44069e-06
3.5473e-05
-5.72417e-06
3.57778e-05
-8.77299e-06
3.58225e-05
-1.2947e-05
3.56401e-05
-1.71105e-05
3.51372e-05
-1.95938e-05
3.44082e-05
-2.15569e-05
3.3392e-05
-2.41299e-05
3.2301e-05
-2.42416e-05
3.06035e-05
-2.25e-05
2.83787e-05
-1.95344e-05
2.67034e-05
-1.42589e-05
2.53756e-05
-9.15681e-06
2.40801e-05
-1.67638e-06
2.2766e-05
7.09778e-06
2.18998e-05
1.52813e-05
2.07617e-05
1.99046e-05
1.93158e-05
2.21659e-05
2.00159e-05
2.51106e-05
2.19301e-05
2.45114e-05
2.40554e-05
2.10696e-05
2.60927e-05
1.66034e-05
2.71616e-05
8.09531e-06
2.72603e-05
4.86692e-07
2.6749e-05
-4.31164e-06
2.54351e-05
-9.37732e-06
2.41196e-05
-1.18817e-05
2.34421e-05
-1.37626e-05
2.22185e-05
-1.70359e-05
1.98126e-05
-1.69638e-05
1.64211e-05
-8.80557e-06
1.31397e-05
2.05035e-06
1.00856e-05
-2.46819e-06
5.44748e-06
-1.77361e-05
1.06088e-06
-3.19893e-05
-3.70348e-07
-3.72587e-05
-1.00858e-06
-3.42712e-05
-2.68631e-06
-3.08428e-05
-3.80989e-06
-2.57361e-05
-4.46127e-06
-1.9859e-05
-3.75571e-06