/*--------------------------------*- C++ -*----------------------------------*\
| =========                 |                                                 |
| \\      /  F ield         | OpenFOAM: The Open Source CFD Toolbox           |
|  \\    /   O peration     | Version:  2.4.0                                 |
|   \\  /    A nd           | Web:      www.OpenFOAM.org                      |
|    \\/     M anipulation  |                                                 |
\*---------------------------------------------------------------------------*/
FoamFile
{
    version     2.0;
    format      ascii;
    class       volScalarField;
    location    "0.24";
    object      pPrime2Mean;
}
// * * * * * * * * * * * * * * * * * * * * * * * * * * * * * * * * * * * * * //

dimensions      [0 4 -4 0 0 0 0];

internalField   nonuniform List<scalar> 
17600
(
2.69278e+06
2.62488e+06
2.55187e+06
2.47952e+06
2.40819e+06
2.33791e+06
2.26867e+06
2.20046e+06
2.13329e+06
2.06715e+06
2.00204e+06
1.93795e+06
1.87486e+06
1.81273e+06
1.75151e+06
1.69107e+06
1.63118e+06
1.57136e+06
1.51054e+06
1.4451e+06
2.69284e+06
2.62488e+06
2.55187e+06
2.47952e+06
2.40819e+06
2.33791e+06
2.26867e+06
2.20046e+06
2.13329e+06
2.06715e+06
2.00204e+06
1.93795e+06
1.87486e+06
1.81273e+06
1.75151e+06
1.69107e+06
1.63119e+06
1.57139e+06
1.51063e+06
1.44528e+06
2.69288e+06
2.62487e+06
2.55186e+06
2.47951e+06
2.40819e+06
2.33791e+06
2.26867e+06
2.20046e+06
2.13329e+06
2.06715e+06
2.00204e+06
1.93795e+06
1.87486e+06
1.81274e+06
1.75152e+06
1.69109e+06
1.63122e+06
1.57146e+06
1.51079e+06
1.44595e+06
2.69291e+06
2.62486e+06
2.55186e+06
2.47951e+06
2.40819e+06
2.33791e+06
2.26867e+06
2.20046e+06
2.13329e+06
2.06715e+06
2.00204e+06
1.93795e+06
1.87486e+06
1.81274e+06
1.75153e+06
1.69111e+06
1.63127e+06
1.57157e+06
1.51103e+06
1.44689e+06
2.69293e+06
2.62485e+06
2.55185e+06
2.47951e+06
2.40819e+06
2.33791e+06
2.26866e+06
2.20046e+06
2.13329e+06
2.06715e+06
2.00204e+06
1.93795e+06
1.87487e+06
1.81275e+06
1.75155e+06
1.69115e+06
1.63134e+06
1.5717e+06
1.51134e+06
1.44801e+06
2.69296e+06
2.62484e+06
2.55184e+06
2.47951e+06
2.40819e+06
2.33791e+06
2.26866e+06
2.20046e+06
2.13329e+06
2.06715e+06
2.00204e+06
1.93796e+06
1.87487e+06
1.81276e+06
1.75157e+06
1.69119e+06
1.63141e+06
1.57186e+06
1.51172e+06
1.44924e+06
2.69298e+06
2.62483e+06
2.55183e+06
2.4795e+06
2.40819e+06
2.33791e+06
2.26866e+06
2.20046e+06
2.13329e+06
2.06715e+06
2.00205e+06
1.93796e+06
1.87488e+06
1.81278e+06
1.75159e+06
1.69123e+06
1.6315e+06
1.57205e+06
1.51216e+06
1.45052e+06
2.693e+06
2.62482e+06
2.55182e+06
2.4795e+06
2.40819e+06
2.33791e+06
2.26866e+06
2.20046e+06
2.13329e+06
2.06715e+06
2.00205e+06
1.93796e+06
1.87489e+06
1.81279e+06
1.75162e+06
1.69129e+06
1.63161e+06
1.57226e+06
1.51264e+06
1.45183e+06
2.69302e+06
2.62482e+06
2.55182e+06
2.4795e+06
2.40818e+06
2.33791e+06
2.26866e+06
2.20046e+06
2.13329e+06
2.06715e+06
2.00205e+06
1.93797e+06
1.8749e+06
1.81281e+06
1.75165e+06
1.69135e+06
1.63172e+06
1.5725e+06
1.51316e+06
1.45314e+06
2.69303e+06
2.62481e+06
2.55181e+06
2.4795e+06
2.40818e+06
2.3379e+06
2.26866e+06
2.20046e+06
2.13329e+06
2.06715e+06
2.00205e+06
1.93797e+06
1.87491e+06
1.81283e+06
1.75169e+06
1.69141e+06
1.63185e+06
1.57275e+06
1.51371e+06
1.45444e+06
2.69305e+06
2.62481e+06
2.5518e+06
2.4795e+06
2.40818e+06
2.33791e+06
2.26866e+06
2.20046e+06
2.13329e+06
2.06716e+06
2.00206e+06
1.93798e+06
1.87492e+06
1.81285e+06
1.75173e+06
1.69148e+06
1.63199e+06
1.57302e+06
1.51428e+06
1.45572e+06
2.69306e+06
2.62481e+06
2.5518e+06
2.47949e+06
2.40818e+06
2.33791e+06
2.26866e+06
2.20045e+06
2.13329e+06
2.06716e+06
2.00206e+06
1.93799e+06
1.87493e+06
1.81287e+06
1.75177e+06
1.69156e+06
1.63213e+06
1.57331e+06
1.51487e+06
1.45697e+06
2.69307e+06
2.62481e+06
2.55179e+06
2.47949e+06
2.40819e+06
2.33791e+06
2.26866e+06
2.20045e+06
2.13329e+06
2.06716e+06
2.00206e+06
1.93799e+06
1.87494e+06
1.81289e+06
1.75181e+06
1.69164e+06
1.63228e+06
1.5736e+06
1.51546e+06
1.45818e+06
2.69308e+06
2.62481e+06
2.55179e+06
2.47949e+06
2.40819e+06
2.33791e+06
2.26866e+06
2.20045e+06
2.13329e+06
2.06716e+06
2.00207e+06
1.938e+06
1.87496e+06
1.81292e+06
1.75185e+06
1.69172e+06
1.63244e+06
1.57391e+06
1.51606e+06
1.45935e+06
2.69309e+06
2.62481e+06
2.55178e+06
2.47948e+06
2.40819e+06
2.33791e+06
2.26866e+06
2.20045e+06
2.13329e+06
2.06716e+06
2.00207e+06
1.93801e+06
1.87497e+06
1.81294e+06
1.7519e+06
1.69181e+06
1.6326e+06
1.57422e+06
1.51666e+06
1.46047e+06
2.6931e+06
2.62481e+06
2.55178e+06
2.47948e+06
2.40819e+06
2.33791e+06
2.26866e+06
2.20046e+06
2.13329e+06
2.06716e+06
2.00207e+06
1.93802e+06
1.87498e+06
1.81297e+06
1.75195e+06
1.6919e+06
1.63277e+06
1.57453e+06
1.51725e+06
1.46155e+06
2.6931e+06
2.62481e+06
2.55178e+06
2.47948e+06
2.40819e+06
2.33791e+06
2.26866e+06
2.20046e+06
2.13329e+06
2.06717e+06
2.00208e+06
1.93802e+06
1.875e+06
1.81299e+06
1.752e+06
1.69199e+06
1.63294e+06
1.57485e+06
1.51784e+06
1.46259e+06
2.6931e+06
2.62481e+06
2.55177e+06
2.47948e+06
2.40819e+06
2.33791e+06
2.26866e+06
2.20046e+06
2.13329e+06
2.06717e+06
2.00208e+06
1.93803e+06
1.87501e+06
1.81302e+06
1.75205e+06
1.69208e+06
1.63311e+06
1.57516e+06
1.51841e+06
1.46358e+06
2.69311e+06
2.62481e+06
2.55177e+06
2.47948e+06
2.40819e+06
2.33791e+06
2.26866e+06
2.20046e+06
2.13329e+06
2.06717e+06
2.00209e+06
1.93804e+06
1.87503e+06
1.81305e+06
1.7521e+06
1.69217e+06
1.63328e+06
1.57547e+06
1.51897e+06
1.46452e+06
2.69311e+06
2.62481e+06
2.55177e+06
2.47948e+06
2.40819e+06
2.33791e+06
2.26866e+06
2.20046e+06
2.13329e+06
2.06717e+06
2.00209e+06
1.93805e+06
1.87504e+06
1.81308e+06
1.75215e+06
1.69227e+06
1.63345e+06
1.57578e+06
1.51952e+06
1.46541e+06
2.69311e+06
2.62481e+06
2.55177e+06
2.47948e+06
2.40819e+06
2.33791e+06
2.26866e+06
2.20046e+06
2.1333e+06
2.06718e+06
2.0021e+06
1.93806e+06
1.87506e+06
1.81311e+06
1.7522e+06
1.69236e+06
1.63362e+06
1.57608e+06
1.52004e+06
1.46626e+06
2.69311e+06
2.62481e+06
2.55177e+06
2.47948e+06
2.40819e+06
2.33791e+06
2.26866e+06
2.20046e+06
2.1333e+06
2.06718e+06
2.0021e+06
1.93806e+06
1.87507e+06
1.81313e+06
1.75225e+06
1.69245e+06
1.63379e+06
1.57638e+06
1.52055e+06
1.46706e+06
2.6931e+06
2.62481e+06
2.55177e+06
2.47948e+06
2.40819e+06
2.33791e+06
2.26866e+06
2.20046e+06
2.1333e+06
2.06718e+06
2.0021e+06
1.93807e+06
1.87509e+06
1.81316e+06
1.7523e+06
1.69254e+06
1.63395e+06
1.57666e+06
1.52103e+06
1.46781e+06
2.6931e+06
2.62481e+06
2.55178e+06
2.47948e+06
2.40819e+06
2.33791e+06
2.26866e+06
2.20046e+06
2.1333e+06
2.06718e+06
2.00211e+06
1.93808e+06
1.8751e+06
1.81319e+06
1.75235e+06
1.69263e+06
1.63411e+06
1.57694e+06
1.5215e+06
1.46852e+06
2.6931e+06
2.62481e+06
2.55178e+06
2.47948e+06
2.40819e+06
2.33791e+06
2.26866e+06
2.20046e+06
2.1333e+06
2.06719e+06
2.00211e+06
1.93809e+06
1.87512e+06
1.81321e+06
1.7524e+06
1.69272e+06
1.63426e+06
1.57721e+06
1.52194e+06
1.46919e+06
2.69309e+06
2.62481e+06
2.55178e+06
2.47949e+06
2.40819e+06
2.33791e+06
2.26867e+06
2.20046e+06
2.1333e+06
2.06719e+06
2.00212e+06
1.9381e+06
1.87513e+06
1.81324e+06
1.75244e+06
1.6928e+06
1.6344e+06
1.57746e+06
1.52235e+06
1.46981e+06
2.69308e+06
2.62481e+06
2.55179e+06
2.47949e+06
2.40819e+06
2.33791e+06
2.26867e+06
2.20046e+06
2.13331e+06
2.06719e+06
2.00212e+06
1.9381e+06
1.87515e+06
1.81326e+06
1.75249e+06
1.69288e+06
1.63454e+06
1.5777e+06
1.52274e+06
1.47038e+06
2.69307e+06
2.62481e+06
2.55179e+06
2.47949e+06
2.40819e+06
2.33791e+06
2.26867e+06
2.20047e+06
2.13331e+06
2.06719e+06
2.00213e+06
1.93811e+06
1.87516e+06
1.81329e+06
1.75253e+06
1.69295e+06
1.63468e+06
1.57792e+06
1.52311e+06
1.47091e+06
2.69306e+06
2.62481e+06
2.5518e+06
2.47949e+06
2.40819e+06
2.33791e+06
2.26867e+06
2.20047e+06
2.13331e+06
2.0672e+06
2.00213e+06
1.93812e+06
1.87517e+06
1.81331e+06
1.75257e+06
1.69303e+06
1.6348e+06
1.57813e+06
1.52345e+06
1.4714e+06
2.69305e+06
2.62481e+06
2.5518e+06
2.4795e+06
2.40819e+06
2.33791e+06
2.26867e+06
2.20047e+06
2.13331e+06
2.0672e+06
2.00213e+06
1.93812e+06
1.87518e+06
1.81333e+06
1.75261e+06
1.69309e+06
1.63492e+06
1.57833e+06
1.52376e+06
1.47185e+06
2.69303e+06
2.62481e+06
2.55181e+06
2.4795e+06
2.40819e+06
2.33791e+06
2.26867e+06
2.20047e+06
2.13331e+06
2.0672e+06
2.00214e+06
1.93813e+06
1.87519e+06
1.81335e+06
1.75264e+06
1.69315e+06
1.63502e+06
1.57851e+06
1.52404e+06
1.47226e+06
2.69302e+06
2.62482e+06
2.55182e+06
2.4795e+06
2.40819e+06
2.33791e+06
2.26867e+06
2.20047e+06
2.13331e+06
2.0672e+06
2.00214e+06
1.93814e+06
1.8752e+06
1.81337e+06
1.75267e+06
1.69321e+06
1.63512e+06
1.57867e+06
1.52429e+06
1.47262e+06
2.693e+06
2.62482e+06
2.55182e+06
2.4795e+06
2.40819e+06
2.33791e+06
2.26867e+06
2.20047e+06
2.13332e+06
2.0672e+06
2.00214e+06
1.93814e+06
1.87521e+06
1.81338e+06
1.7527e+06
1.69326e+06
1.63521e+06
1.57882e+06
1.52452e+06
1.47295e+06
2.69298e+06
2.62483e+06
2.55183e+06
2.47951e+06
2.40819e+06
2.33791e+06
2.26867e+06
2.20047e+06
2.13332e+06
2.06721e+06
2.00215e+06
1.93815e+06
1.87522e+06
1.8134e+06
1.75273e+06
1.6933e+06
1.63529e+06
1.57895e+06
1.52472e+06
1.47323e+06
2.69296e+06
2.62484e+06
2.55184e+06
2.47951e+06
2.40819e+06
2.33791e+06
2.26867e+06
2.20047e+06
2.13332e+06
2.06721e+06
2.00215e+06
1.93815e+06
1.87523e+06
1.81341e+06
1.75275e+06
1.69334e+06
1.63535e+06
1.57906e+06
1.52489e+06
1.47347e+06
2.69293e+06
2.62485e+06
2.55185e+06
2.47951e+06
2.40819e+06
2.33791e+06
2.26867e+06
2.20048e+06
2.13332e+06
2.06721e+06
2.00215e+06
1.93815e+06
1.87523e+06
1.81342e+06
1.75277e+06
1.69338e+06
1.63541e+06
1.57915e+06
1.52504e+06
1.47367e+06
2.69291e+06
2.62486e+06
2.55186e+06
2.47951e+06
2.40819e+06
2.33791e+06
2.26867e+06
2.20048e+06
2.13332e+06
2.06721e+06
2.00215e+06
1.93816e+06
1.87524e+06
1.81343e+06
1.75278e+06
1.6934e+06
1.63545e+06
1.57922e+06
1.52515e+06
1.47383e+06
2.69288e+06
2.62487e+06
2.55186e+06
2.47952e+06
2.40819e+06
2.33791e+06
2.26867e+06
2.20048e+06
2.13332e+06
2.06721e+06
2.00215e+06
1.93816e+06
1.87524e+06
1.81343e+06
1.75279e+06
1.69342e+06
1.63549e+06
1.57928e+06
1.52524e+06
1.47395e+06
2.69284e+06
2.62488e+06
2.55187e+06
2.47952e+06
2.40819e+06
2.33791e+06
2.26868e+06
2.20048e+06
2.13332e+06
2.06721e+06
2.00215e+06
1.93816e+06
1.87524e+06
1.81344e+06
1.7528e+06
1.69344e+06
1.63551e+06
1.57932e+06
1.52529e+06
1.47403e+06
2.69278e+06
2.62488e+06
2.55187e+06
2.47952e+06
2.40819e+06
2.33791e+06
2.26868e+06
2.20048e+06
2.13332e+06
2.06721e+06
2.00215e+06
1.93816e+06
1.87524e+06
1.81344e+06
1.75281e+06
1.69344e+06
1.63552e+06
1.57934e+06
1.52532e+06
1.47407e+06
1.38312e+06
1.36828e+06
1.3568e+06
1.34674e+06
1.33732e+06
1.32833e+06
1.31964e+06
1.31119e+06
1.30292e+06
1.29479e+06
1.28676e+06
1.27882e+06
1.27095e+06
1.26313e+06
1.25535e+06
1.24761e+06
1.23989e+06
1.23221e+06
1.22455e+06
1.21692e+06
1.20931e+06
1.20172e+06
1.19415e+06
1.1866e+06
1.17905e+06
1.17152e+06
1.16401e+06
1.15652e+06
1.14905e+06
1.14162e+06
1.13421e+06
1.12683e+06
1.11949e+06
1.11217e+06
1.10489e+06
1.09764e+06
1.09043e+06
1.08324e+06
1.07609e+06
1.06897e+06
1.06188e+06
1.05482e+06
1.04779e+06
1.04078e+06
1.03381e+06
1.02686e+06
1.01994e+06
1.01305e+06
1.00618e+06
999350
992542
985759
979002
972270
965564
958882
952223
945587
938975
932385
925817
919272
912749
906248
899767
893307
886867
880447
874048
867672
861318
854988
848683
842405
836154
829930
823729
817551
811395
805260
799144
793046
786967
780908
774868
768849
762848
756867
750904
744960
739037
733134
727254
721398
715566
709758
703975
698217
692484
686777
681096
675441
669811
664205
658623
653065
647530
642020
636532
631067
625626
620207
614812
609442
604096
598777
593485
588220
582980
577766
572578
567414
562276
557162
552070
547000
541953
536929
531928
526948
521991
517054
512140
507248
502377
497528
492701
487898
483117
478360
473626
468917
464232
459572
454937
450327
445742
441183
436648
432139
427655
423196
418761
414350
409963
405599
401258
396940
392643
388370
384119
379891
375685
371502
367340
363199
359078
354978
350897
346837
342797
338780
334781
330808
326853
322926
319014
315135
311264
307433
303600
299815
296018
292273
288513
284798
281072
277377
273671
269985
266281
262579
258844
255084
251262
247369
243356
239179
234664
229703
1.39015e+06
1.37399e+06
1.36129e+06
1.35041e+06
1.34043e+06
1.33101e+06
1.32198e+06
1.31325e+06
1.30473e+06
1.29639e+06
1.28819e+06
1.2801e+06
1.27208e+06
1.26414e+06
1.25625e+06
1.24841e+06
1.24061e+06
1.23285e+06
1.22512e+06
1.21742e+06
1.20976e+06
1.20212e+06
1.1945e+06
1.18691e+06
1.17933e+06
1.17178e+06
1.16424e+06
1.15673e+06
1.14925e+06
1.14179e+06
1.13436e+06
1.12697e+06
1.11961e+06
1.11228e+06
1.10499e+06
1.09773e+06
1.09051e+06
1.08331e+06
1.07615e+06
1.06903e+06
1.06193e+06
1.05487e+06
1.04783e+06
1.04083e+06
1.03385e+06
1.0269e+06
1.01998e+06
1.01309e+06
1.00623e+06
999391
992582
985799
979041
972308
965601
958919
952260
945624
939012
932422
925856
919311
912789
906288
899807
893347
886906
880487
874088
867711
861357
855027
848723
842445
836194
829970
823768
817589
811431
805294
799176
793075
786993
780931
774889
768868
762867
756884
750921
744977
739054
733152
727272
721416
715584
709776
703994
698235
692502
686794
681113
675457
669827
664220
658638
653080
647545
642034
636547
631082
625640
620222
614827
609456
604110
598790
593497
588231
582991
577776
572587
567422
562283
557168
552075
547005
541957
536933
531931
526950
521992
517055
512141
507248
502376
497527
492699
487895
483114
478356
473622
468912
464226
459565
454929
450319
445734
441174
436639
432129
427644
423184
418748
414335
409945
405579
401235
396914
392614
388337
384083
379850
375639
371450
367282
363134
359007
354899
350810
346742
342692
338664
334652
330667
326696
322755
318824
314928
311033
307180
303320
299507
295680
291898
288104
284344
280574
276826
273064
269312
265536
261750
257921
254050
250096
246041
241821
237350
232421
226591
1.39571e+06
1.379e+06
1.36552e+06
1.35395e+06
1.34347e+06
1.33364e+06
1.32429e+06
1.31528e+06
1.30653e+06
1.29799e+06
1.28961e+06
1.28136e+06
1.27321e+06
1.26515e+06
1.25715e+06
1.24921e+06
1.24133e+06
1.23348e+06
1.22568e+06
1.21792e+06
1.2102e+06
1.20251e+06
1.19485e+06
1.18722e+06
1.17961e+06
1.17203e+06
1.16447e+06
1.15693e+06
1.14943e+06
1.14196e+06
1.13452e+06
1.12711e+06
1.11974e+06
1.1124e+06
1.10509e+06
1.09782e+06
1.09059e+06
1.08339e+06
1.07622e+06
1.06909e+06
1.06199e+06
1.05492e+06
1.04788e+06
1.04088e+06
1.0339e+06
1.02695e+06
1.02003e+06
1.01314e+06
1.00627e+06
999435
992625
985840
979081
972347
965639
958956
952296
945661
939048
932460
925893
919349
912826
906325
899844
893383
886942
880522
874122
867745
861391
855061
848756
842478
836228
830002
823800
817620
811461
805321
799200
793096
787012
780947
774903
768880
762877
756894
750930
744987
739065
733163
727284
721428
715597
709790
704008
698249
692516
686808
681125
675469
669838
664231
658648
653090
647556
642045
636557
631093
625651
620233
614838
609467
604121
598800
593507
588240
582999
577783
572593
567428
562288
557172
552079
547008
541960
536934
531931
526950
521991
517054
512139
507245
502373
497523
492695
487890
483108
478350
473615
468904
464218
459556
454919
450308
445722
441162
436627
432116
427631
423170
418732
414318
409926
405557
401210
396886
392582
388302
384044
379807
375590
371397
367222
363068
358933
354818
350721
346644
342584
338546
334522
330525
326539
322583
318634
314719
310802
306926
303041
299198
295344
291526
287697
283894
280080
276280
272464
268646
264801
260933
257014
253036
248959
244752
240350
235629
230393
224114
1.40026e+06
1.38344e+06
1.36945e+06
1.35734e+06
1.34641e+06
1.33621e+06
1.32655e+06
1.31728e+06
1.3083e+06
1.29957e+06
1.29101e+06
1.28261e+06
1.27433e+06
1.26614e+06
1.25804e+06
1.25e+06
1.24203e+06
1.23411e+06
1.22624e+06
1.21842e+06
1.21064e+06
1.2029e+06
1.1952e+06
1.18753e+06
1.17989e+06
1.17227e+06
1.16469e+06
1.15714e+06
1.14962e+06
1.14213e+06
1.13467e+06
1.12725e+06
1.11986e+06
1.11251e+06
1.10519e+06
1.09791e+06
1.09067e+06
1.08346e+06
1.07629e+06
1.06915e+06
1.06205e+06
1.05498e+06
1.04794e+06
1.04093e+06
1.03395e+06
1.027e+06
1.02008e+06
1.01319e+06
1.00632e+06
999482
992669
985883
979122
972387
965677
958992
952332
945696
939084
932496
925929
919384
912862
906359
899877
893414
886972
880551
874151
867773
861419
855088
848783
842505
836254
830028
823824
817642
811482
805340
799216
793110
787023
780955
774909
768884
762880
756896
750933
744991
739069
733169
727291
721436
715605
709799
704017
698258
692525
686816
681133
675476
669845
664237
658654
653096
647562
642052
636564
631100
625659
620240
614845
609474
604128
598808
593513
588246
583005
577788
572598
567432
562291
557174
552080
547008
541960
536933
531930
526947
521988
517050
512134
507239
502367
497516
492688
487882
483100
478340
473605
468893
464206
459544
454906
450295
445709
441148
436612
432101
427615
423153
418715
414299
409905
405533
401183
396855
392549
388266
384003
379762
375540
371341
367160
363000
358858
354735
350630
346545
342475
338427
334391
330381
326380
322409
318442
314508
310572
306672
302764
298891
295010
291155
287293
283447
279590
275739
271870
267989
264078
260130
256126
252046
247856
243509
238949
234026
228571
222146
1.40414e+06
1.38738e+06
1.37309e+06
1.36056e+06
1.34924e+06
1.33871e+06
1.32876e+06
1.31923e+06
1.31004e+06
1.30111e+06
1.29239e+06
1.28384e+06
1.27542e+06
1.26712e+06
1.25891e+06
1.25078e+06
1.24272e+06
1.23473e+06
1.22679e+06
1.21891e+06
1.21108e+06
1.20329e+06
1.19554e+06
1.18783e+06
1.18016e+06
1.17252e+06
1.16491e+06
1.15734e+06
1.1498e+06
1.1423e+06
1.13483e+06
1.12739e+06
1.11999e+06
1.11263e+06
1.1053e+06
1.09801e+06
1.09076e+06
1.08354e+06
1.07637e+06
1.06922e+06
1.06212e+06
1.05504e+06
1.048e+06
1.04099e+06
1.03401e+06
1.02706e+06
1.02014e+06
1.01324e+06
1.00637e+06
999531
992715
985926
979163
972426
965715
959029
952368
945731
939119
932530
925963
919418
912894
906390
899906
893442
886999
880576
874175
867796
861440
855108
848802
842524
836272
830045
823840
817657
811495
805351
799224
793116
787026
780956
774907
768881
762875
756891
750928
744987
739067
733169
727292
721439
715609
709803
704021
698262
692528
686819
681135
675478
669845
664238
658655
653098
647564
642054
636567
631102
625661
620243
614849
609478
604132
598811
593517
588249
583007
577790
572599
567433
562291
557174
552079
547006
541957
536929
531925
526941
521982
517042
512126
507230
502358
497506
492678
487871
483088
478328
473592
468880
464192
459529
454891
450279
445692
441131
436594
432083
427596
423134
418694
414277
409881
405507
401154
396823
392514
388228
383960
379714
375488
371284
367097
362931
358781
354651
350538
346445
342364
338306
334259
330236
326222
322235
318251
314298
310342
306418
302487
298585
294677
290787
286892
283003
279105
275203
271284
267342
263368
259344
255259
251083
246790
242317
237622
232545
226951
220524
1.40751e+06
1.39091e+06
1.37644e+06
1.3636e+06
1.35195e+06
1.34112e+06
1.3309e+06
1.32114e+06
1.31174e+06
1.30263e+06
1.29374e+06
1.28505e+06
1.2765e+06
1.26808e+06
1.25977e+06
1.25154e+06
1.24341e+06
1.23534e+06
1.22734e+06
1.21939e+06
1.21151e+06
1.20367e+06
1.19588e+06
1.18814e+06
1.18043e+06
1.17276e+06
1.16513e+06
1.15754e+06
1.14998e+06
1.14246e+06
1.13498e+06
1.12753e+06
1.12012e+06
1.11274e+06
1.10541e+06
1.09811e+06
1.09085e+06
1.08363e+06
1.07645e+06
1.0693e+06
1.06219e+06
1.05511e+06
1.04806e+06
1.04105e+06
1.03407e+06
1.02712e+06
1.02019e+06
1.0133e+06
1.00643e+06
999581
992762
985969
979204
972464
965751
959064
952402
945764
939151
932562
925995
919449
912923
906418
899931
893465
887020
880595
874192
867811
861454
855121
848815
842536
836283
830055
823849
817665
811500
805354
799224
793113
787020
780948
774898
768870
762864
756879
750917
744977
739059
733162
727287
721435
715607
709803
704020
698260
692525
686816
681132
675473
669841
664233
658651
653094
647562
642052
636565
631101
625660
620241
614847
609476
604131
598810
593516
588247
583005
577788
572596
567430
562288
557169
552074
547000
541951
536922
531917
526932
521971
517031
512114
507218
502345
497494
492665
487857
483074
478313
473577
468864
464175
459512
454873
450260
445673
441111
436574
432062
427575
423111
418671
414252
409855
405479
401123
396789
392477
388187
383915
379665
375435
371226
367033
362861
358704
354566
350444
346343
342253
338185
334126
330091
326063
322060
318059
314087
310112
306165
302212
298281
294346
290422
286494
282564
278626
274675
270707
266706
262671
258574
254416
250148
245763
241178
236369
231182
225511
219147
1.41047e+06
1.39408e+06
1.37953e+06
1.36646e+06
1.35454e+06
1.34345e+06
1.33298e+06
1.323e+06
1.3134e+06
1.30411e+06
1.29507e+06
1.28623e+06
1.27756e+06
1.26903e+06
1.26061e+06
1.2523e+06
1.24408e+06
1.23594e+06
1.22787e+06
1.21987e+06
1.21193e+06
1.20405e+06
1.19622e+06
1.18844e+06
1.1807e+06
1.17301e+06
1.16535e+06
1.15774e+06
1.15017e+06
1.14263e+06
1.13513e+06
1.12767e+06
1.12025e+06
1.11286e+06
1.10552e+06
1.09821e+06
1.09095e+06
1.08372e+06
1.07653e+06
1.06938e+06
1.06227e+06
1.05519e+06
1.04814e+06
1.04112e+06
1.03414e+06
1.02718e+06
1.02026e+06
1.01335e+06
1.00648e+06
999631
992808
986013
979244
972502
965787
959098
952434
945795
939181
932591
926023
919476
912949
906441
899952
893483
887036
880608
874203
867820
861461
855127
848820
842540
836286
830057
823850
817664
811498
805349
799216
793102
787007
780932
774881
768852
762845
756861
750899
744960
739044
733149
727276
721426
715600
709796
704013
698252
692517
686807
681122
675463
669831
664223
658642
653086
647554
642045
636558
631094
625653
620235
614840
609470
604124
598804
593510
588241
582999
577781
572590
567422
562280
557161
552065
546991
541940
536911
531905
526919
521958
517017
512099
507203
502330
497478
492649
487841
483057
478296
473559
468845
464156
459492
454853
450239
445652
441089
436551
432038
427550
423086
418644
414224
409825
405447
401089
396752
392437
388144
383867
379614
375380
371166
366968
362790
358625
354481
350350
346240
342141
338062
333993
329945
325903
321886
317869
313877
309884
305912
301938
297979
294018
290060
286099
282131
278154
274155
270139
266080
261989
257823
253596
249242
244775
240094
235191
229927
224226
217950
1.41312e+06
1.39695e+06
1.38237e+06
1.36914e+06
1.357e+06
1.34568e+06
1.335e+06
1.32481e+06
1.31503e+06
1.30557e+06
1.29637e+06
1.28739e+06
1.2786e+06
1.26996e+06
1.26144e+06
1.25304e+06
1.24474e+06
1.23653e+06
1.2284e+06
1.22034e+06
1.21235e+06
1.20443e+06
1.19656e+06
1.18874e+06
1.18097e+06
1.17325e+06
1.16557e+06
1.15794e+06
1.15035e+06
1.1428e+06
1.13528e+06
1.12781e+06
1.12038e+06
1.11299e+06
1.10563e+06
1.09832e+06
1.09105e+06
1.08382e+06
1.07662e+06
1.06947e+06
1.06235e+06
1.05527e+06
1.04822e+06
1.0412e+06
1.03421e+06
1.02725e+06
1.02032e+06
1.01341e+06
1.00653e+06
999682
992855
986055
979283
972538
965821
959129
952463
945823
939207
932616
926046
919498
912969
906459
899967
893496
887046
880616
874207
867822
861461
855126
848818
842538
836283
830052
823844
817657
811489
805336
799201
793084
786986
780909
774857
768827
762820
756836
750875
744937
739022
733129
727258
721411
715586
709783
704000
698238
692503
686792
681107
675448
669815
664208
658628
653073
647542
642033
636547
631083
625642
620223
614829
609459
604113
598793
593499
588230
582988
577770
572578
567411
562268
557148
552051
546977
541926
536895
531889
526902
521940
516998
512081
507185
502312
497460
492631
487822
483038
478276
473539
468824
464135
459469
454830
450216
445628
441064
436526
432012
427523
423057
418614
414193
409793
405412
401052
396712
392396
388098
383817
379561
375323
371105
366902
362717
358545
354394
350256
346138
342029
337940
333860
329799
325744
321711
317679
313668
309657
305662
301667
297680
293692
289702
285710
281702
277688
273643
269582
265467
261323
257091
252800
248369
243827
239066
234084
228772
223072
216889
1.41551e+06
1.39957e+06
1.385e+06
1.37166e+06
1.35934e+06
1.34782e+06
1.33694e+06
1.32656e+06
1.3166e+06
1.30698e+06
1.29764e+06
1.28853e+06
1.27962e+06
1.27087e+06
1.26226e+06
1.25378e+06
1.2454e+06
1.23712e+06
1.22893e+06
1.22081e+06
1.21277e+06
1.2048e+06
1.19689e+06
1.18904e+06
1.18124e+06
1.17349e+06
1.16579e+06
1.15814e+06
1.15053e+06
1.14296e+06
1.13544e+06
1.12796e+06
1.12051e+06
1.11311e+06
1.10575e+06
1.09843e+06
1.09115e+06
1.08392e+06
1.07672e+06
1.06956e+06
1.06244e+06
1.05535e+06
1.0483e+06
1.04128e+06
1.03428e+06
1.02732e+06
1.02038e+06
1.01347e+06
1.00659e+06
999732
992900
986097
979321
972572
965852
959157
952489
945846
939229
932636
926065
919515
912984
906471
899977
893504
887051
880617
874206
867818
861455
855119
848810
842529
836273
830041
823832
817643
811472
805317
799179
793059
786957
780879
774825
768795
762789
756806
750846
744909
738994
733103
727234
721389
715565
709763
703980
698218
692482
686772
681087
675428
669796
664189
658610
653055
647525
642017
636531
631067
625626
620207
614813
609442
604097
598776
593483
588214
582972
577754
572562
567394
562250
557130
552034
546958
541907
536876
531868
526882
521919
516977
512060
507163
502291
497438
492610
487801
483017
478254
473516
468801
464111
459445
454806
450191
445602
441037
436498
431983
427493
423025
418582
414158
409757
405374
401012
396670
392351
388048
383764
379505
375265
371042
366833
362642
358463
354306
350161
346034
341917
337817
333727
329653
325585
321537
317490
313460
309432
305414
301398
297384
293371
289349
285326
281280
277231
273140
269036
264868
260673
256379
252029
247529
242920
238094
233049
227708
222026
215930
1.4177e+06
1.40196e+06
1.38744e+06
1.37402e+06
1.36155e+06
1.34987e+06
1.33881e+06
1.32826e+06
1.31814e+06
1.30837e+06
1.29889e+06
1.28965e+06
1.28062e+06
1.27177e+06
1.26307e+06
1.2545e+06
1.24605e+06
1.2377e+06
1.22945e+06
1.22128e+06
1.21319e+06
1.20518e+06
1.19723e+06
1.18934e+06
1.18151e+06
1.17374e+06
1.16601e+06
1.15834e+06
1.15071e+06
1.14313e+06
1.13559e+06
1.1281e+06
1.12065e+06
1.11324e+06
1.10587e+06
1.09855e+06
1.09127e+06
1.08402e+06
1.07682e+06
1.06966e+06
1.06254e+06
1.05545e+06
1.04839e+06
1.04136e+06
1.03436e+06
1.02739e+06
1.02045e+06
1.01353e+06
1.00664e+06
999781
992944
986137
979356
972604
965880
959182
952510
945865
939246
932651
926078
919526
912993
906477
899981
893505
887049
880612
874198
867808
861443
855105
848795
842513
836256
830023
823814
817623
811450
805292
799151
793027
786923
780842
774787
768757
762752
756769
750810
744874
738961
733071
727204
721360
715539
709737
703953
698192
692457
686747
681063
675405
669772
664166
658587
653033
647504
641996
636510
631046
625605
620185
614791
609421
604076
598755
593461
588193
582951
577732
572540
567372
562228
557108
552011
546936
541884
536852
531844
526857
521894
516952
512035
507139
502267
497415
492587
487778
482993
478230
473492
468776
464086
459419
454779
450164
445574
441008
436469
431952
427461
422992
418546
414121
409718
405333
400969
396625
392302
387996
383708
379447
375205
370976
366763
362565
358380
354216
350065
345930
341805
337694
333594
329508
325427
321363
317302
313254
309209
305168
301133
297091
293055
289000
284949
280865
276781
272647
268502
264284
260041
255691
251284
246726
242054
237176
232088
226727
221069
215054
1.41971e+06
1.40416e+06
1.38969e+06
1.37622e+06
1.36365e+06
1.35181e+06
1.3406e+06
1.3299e+06
1.31962e+06
1.30971e+06
1.3001e+06
1.29075e+06
1.28161e+06
1.27266e+06
1.26387e+06
1.25522e+06
1.24669e+06
1.23828e+06
1.22997e+06
1.22174e+06
1.21361e+06
1.20555e+06
1.19756e+06
1.18964e+06
1.18178e+06
1.17398e+06
1.16623e+06
1.15854e+06
1.1509e+06
1.1433e+06
1.13575e+06
1.12825e+06
1.12079e+06
1.11337e+06
1.106e+06
1.09867e+06
1.09138e+06
1.08414e+06
1.07693e+06
1.06976e+06
1.06263e+06
1.05554e+06
1.04848e+06
1.04144e+06
1.03444e+06
1.02746e+06
1.02051e+06
1.01359e+06
1.0067e+06
999828
992986
986174
979389
972633
965904
959202
952527
945879
939257
932660
926085
919531
912995
906477
899979
893500
887042
880601
874184
867791
861424
855085
848775
842492
836234
830001
823790
817598
811423
805262
799117
792990
786883
780800
774744
768714
762710
756728
750771
744835
738923
733034
727168
721326
715505
709704
703921
698161
692427
686718
681036
675377
669745
664139
658560
653007
647478
641970
636485
631020
625579
620159
614765
609394
604049
598729
593436
588167
582925
577707
572514
567345
562202
557081
551985
546909
541857
536825
531817
526829
521866
516925
512008
507112
502241
497389
492561
487752
482968
478203
473465
468748
464058
459391
454750
450134
445544
440978
436437
431919
427427
422956
418509
414081
409676
405289
400923
396576
392251
387940
383650
379386
375142
370908
366690
362486
358295
354125
349969
345825
341692
337571
333461
329362
325270
321191
317116
313048
308988
304925
300871
296802
292742
288656
284577
280458
276340
272166
267980
263718
259426
255029
250566
245960
241231
236312
231192
225820
220187
214244
1.42158e+06
1.4062e+06
1.39179e+06
1.37829e+06
1.36562e+06
1.35367e+06
1.34232e+06
1.33147e+06
1.32106e+06
1.31102e+06
1.30128e+06
1.29181e+06
1.28257e+06
1.27353e+06
1.26465e+06
1.25592e+06
1.24733e+06
1.23885e+06
1.23048e+06
1.2222e+06
1.21402e+06
1.20592e+06
1.19789e+06
1.18994e+06
1.18205e+06
1.17422e+06
1.16646e+06
1.15874e+06
1.15108e+06
1.14347e+06
1.13591e+06
1.1284e+06
1.12093e+06
1.11351e+06
1.10613e+06
1.0988e+06
1.0915e+06
1.08425e+06
1.07704e+06
1.06987e+06
1.06274e+06
1.05564e+06
1.04857e+06
1.04153e+06
1.03452e+06
1.02753e+06
1.02058e+06
1.01365e+06
1.00675e+06
999872
993026
986208
979419
972658
965924
959218
952539
945888
939263
932664
926086
919530
912991
906470
899970
893489
887027
880584
874164
867768
861399
855059
848748
842464
836206
829973
823761
817568
811390
805227
799079
792949
786839
780755
774697
768667
762663
756683
750727
744793
738881
732993
727127
721287
715467
709667
703884
698125
692393
686686
681005
675347
669715
664109
658530
652977
647448
641940
636455
630990
625549
620129
614735
609364
604019
598699
593406
588137
582895
577676
572484
567315
562172
557051
551954
546878
541826
536794
531786
526799
521836
516895
511979
507083
502212
497360
492533
487725
482940
478175
473436
468719
464028
459360
454720
450103
445513
440945
436403
431884
427390
422918
418469
414039
409632
405242
400875
396525
392196
387882
383590
379325
375077
370838
366615
362405
358209
354033
349870
345718
341578
337447
333327
329216
325113
321018
316930
312844
308768
304684
300611
296518
292434
288320
284212
280062
275908
271699
267472