/*--------------------------------*- C++ -*----------------------------------*\
| =========                 |                                                 |
| \\      /  F ield         | OpenFOAM: The Open Source CFD Toolbox           |
|  \\    /   O peration     | Version:  2.4.0                                 |
|   \\  /    A nd           | Web:      www.OpenFOAM.org                      |
|    \\/     M anipulation  |                                                 |
\*---------------------------------------------------------------------------*/
FoamFile
{
    version     2.0;
    format      ascii;
    class       volScalarField;
    location    "0.262";
    object      p;
}
// * * * * * * * * * * * * * * * * * * * * * * * * * * * * * * * * * * * * * //

dimensions      [0 2 -2 0 0 0 0];

internalField   nonuniform List<scalar> 
17600
(
61.5422
45.8809
41.4632
40.3271
39.3558
38.3872
37.5675
36.7381
35.9618
35.2978
34.4885
33.7748
33.0902
32.3125
31.6162
30.9533
30.1435
29.4415
28.6502
27.4033
59.6338
45.9309
41.5039
40.3367
39.3593
38.3875
37.5678
36.7391
35.9612
35.2981
34.4893
33.7733
33.0912
32.3127
31.6153
30.9541
30.1441
29.4382
28.6532
27.42
58.2201
46.187
41.6477
40.3747
39.3735
38.3916
37.5704
36.7415
35.9616
35.2995
34.4904
33.7721
33.0926
32.313
31.615
30.9556
30.1454
29.436
28.6764
27.4677
57.2439
46.5286
41.8681
40.4393
39.4029
38.4064
37.5798
36.7486
35.9656
35.3036
34.4927
33.7721
33.0949
32.3141
31.6165
30.9581
30.1501
29.4364
28.7178
27.5535
56.4216
46.8639
42.1329
40.5203
39.4451
38.435
37.5997
36.7639
35.9761
35.3128
34.4981
33.7746
33.0993
32.3168
31.6215
30.9623
30.1597
29.4402
28.7847
27.6868
55.647
47.1573
42.4113
40.6016
39.4869
38.4713
37.6287
36.788
35.9943
35.3283
34.5081
33.7805
33.107
32.3223
31.6308
30.9697
30.174
29.4534
28.8399
27.8593
54.9175
47.4057
42.6882
40.6779
39.5193
38.5047
37.661
36.8179
36.0176
35.3488
34.5227
33.7895
33.118
32.3311
31.6445
30.9813
30.1928
29.4772
28.8921
28.0123
54.2445
47.6119
42.9556
40.7515
39.5418
38.5299
37.6921
36.8503
36.0426
35.3709
34.5406
33.7993
33.1316
32.3424
31.6624
30.9964
30.2185
29.4989
28.9842
28.3209
53.6335
47.7792
43.2065
40.8277
39.5564
38.5464
37.7194
36.8833
36.0673
35.3932
34.5591
33.8088
33.1456
32.3558
31.6802
31.0172
30.2409
29.5417
28.9967
28.4883
53.0862
47.9086
43.4395
40.9087
39.5644
38.5551
37.7424
36.915
36.0911
35.415
34.5776
33.8164
33.1604
32.369
31.698
31.0393
30.2677
29.5836
29.0474
28.7866
52.6003
48.003
43.6538
40.9956
39.5677
38.5567
37.7607
36.9452
36.1139
35.4357
34.595
33.8226
33.1752
32.3816
31.7159
31.0623
30.2991
29.6262
29.1465
29.0368
52.1733
48.0658
43.8488
41.0878
39.5674
38.5525
37.7742
36.9737
36.1364
35.4545
34.6113
33.828
33.1893
32.3946
31.7332
31.0875
30.3298
29.6804
29.242
29.2366
51.8024
48.1014
44.0239
41.1828
39.5642
38.5432
37.7841
37.0007
36.158
35.4712
34.6272
33.8322
33.2029
32.4079
31.7506
31.1145
30.3652
29.7415
29.3256
29.4101
51.4847
48.1174
44.1777
41.2766
39.5601
38.5314
37.7908
37.0254
36.1785
35.4859
34.6418
33.8357
33.2159
32.4222
31.7682
31.1443
30.4029
29.8069
29.4107
29.5523
51.2178
48.1222
44.3097
41.3612
39.5571
38.5195
37.7941
37.0471
36.1985
35.4981
34.6555
33.8394
33.2277
32.4382
31.7845
31.1764
30.4434
29.8753
29.5065
29.6598
50.9988
48.1221
44.4178
41.4339
39.5561
38.5079
37.7956
37.066
36.2171
35.5073
34.6687
33.8425
33.2387
32.4546
31.8047
31.206
30.4906
29.9381
29.6246
29.7383
50.8261
48.1192
44.502
41.4934
39.5563
38.4981
37.7957
37.0815
36.2341
35.5137
34.6809
33.8459
33.2485
32.4724
31.8242
31.2357
30.5399
29.9999
29.7398
29.8757
50.6984
48.1151
44.5632
41.5395
39.5575
38.4906
37.7883
37.0937
36.2484
35.518
34.6918
33.8518
33.2557
32.4942
31.8395
31.2719
30.5829
30.0703
29.7853
29.9482
50.6146
48.1113
44.6024
41.5711
39.5591
38.486
37.7863
37.1023
36.2606
35.5196
34.7017
33.8587
33.2616
32.5159
31.8574
31.3051
30.6303
30.1377
29.838
30.0796
50.5739
48.1086
44.6204
41.5877
39.5605
38.4848
37.784
37.1071
36.27
35.5188
34.7107
33.8666
33.2651
32.5392
31.8772
31.3358
30.6826
30.2022
29.924
30.1803
50.5757
48.1074
44.6182
41.5889
39.5612
38.4872
37.7816
37.1082
36.2767
35.5148
34.7192
33.8754
33.2694
32.5577
31.8996
31.3638
30.7386
30.2646
30.046
30.2606
50.6201
48.1082
44.5955
41.5743
39.5612
38.4931
37.7788
37.1059
36.2802
35.5092
34.7261
33.8859
33.2718
32.58
31.9236
31.3912
30.7947
30.329
30.1582
30.3923
50.7075
48.1099
44.5519
41.5447
39.5608
38.502
37.7755
37.1006
36.2801
35.5017
34.7312
33.898
33.2718
32.6063
31.9462
31.423
30.8451
30.4041
30.2014
30.4696
50.8385
48.1116
44.4867
41.5006
39.5614
38.5129
37.772
37.0917
36.2772
35.4924
34.7353
33.9106
33.2713
32.631
31.9714
31.4531
30.8973
30.4784
30.2477
30.5976
51.0148
48.112
44.3989
41.4429
39.5636
38.5249
37.7679
37.0797
36.2712
35.4809
34.7395
33.9232
33.2706
32.6541
31.9992
31.4803
30.9533
30.5508
30.3311
30.698
51.2372
48.1098
44.2883
41.3715
39.5682
38.5377
37.7624
37.0652
36.2624
35.4672
34.7436
33.9352
33.2708
32.6741
32.0301
31.5052
31.0134
30.6194
30.4524
30.7907
51.5071
48.1029
44.1545
41.2881
39.5755
38.5505
37.7547
37.0485
36.2504
35.4525
34.7454
33.9475
33.2701
32.6944
32.0617
31.5315
31.0714
30.6936
30.5613
30.9211
51.8266
48.0864
43.9991
41.1945
39.5842
38.5627
37.7444
37.0295
36.2359
35.437
34.745
33.9601
33.2677
32.7164
32.0925
31.5616
31.1235
30.7804
30.6071
30.9792
52.1987
48.0525
43.8231
41.097
39.5937
38.5715
37.7317
37.0085
36.2196
35.4201
34.7441
33.9709
33.2661
32.7357
32.1257
31.5901
31.1791
30.8664
30.6555
31.0855
52.6269
47.9928
43.6272
41.0019
39.6007
38.5758
37.7159
36.9855
36.2014
35.4018
34.7427
33.9797
33.2651
32.7526
32.1608
31.6165
31.2383
30.9525
30.7377
31.1634
53.114
47.9013
43.4114
40.9113
39.6036
38.5746
37.6959
36.962
36.1812
35.3821
34.7405
33.9869
33.2638
32.7678
32.197
31.6413
31.2992
31.0405
30.8512
31.2062
53.663
47.774
43.1757
40.826
39.6016
38.5661
37.6712
36.9385
36.1591
35.3606
34.7371
33.9927
33.2615
32.7814
32.233
31.6646
31.3601
31.1273
30.9875
31.2244
54.2747
47.6091
42.9215
40.7457
39.5934
38.5499
37.6412
36.9142
36.1368
35.3376
34.7321
33.9977
33.259
32.7932
32.2658
31.6879
31.4145
31.2114
31.1066
31.2585
54.9471
47.406
42.6521
40.668
39.5766
38.5257
37.6074
36.8895
36.115
35.3149
34.726
34.0013
33.2575
32.8027
32.2934
31.7104
31.4596
31.2856
31.1917
31.2629
55.6744
47.1606
42.3765
40.587
39.5479
38.4938
37.5731
36.8651
36.0948
35.2954
34.7194
34.0034
33.2581
32.8098
32.3149
31.7302
31.4956
31.341
31.2544
31.306
56.4473
46.8697
42.1002
40.5008
39.5079
38.4593
37.5434
36.8442
36.0789
35.2822
34.7144
34.0051
33.2609
32.815
32.3298
31.7464
31.5215
31.3779
31.297
31.3348
57.2681
46.5358
41.8375
40.4162
39.4663
38.4319
37.5244
36.8305
36.0691
35.2759
34.7114
34.0062
33.2651
32.8183
32.3383
31.7584
31.5377
31.3995
31.3204
31.3597
58.2427
46.195
41.6185
40.3498
39.4369
38.4173
37.5167
36.8239
36.0645
35.275
34.71
34.0065
33.2693
32.8201
32.3414
31.766
31.5462
31.4087
31.3311
31.3827
59.655
45.9391
41.4749
40.3116
39.4226
38.4127
37.5157
36.8216
36.0622
35.2761
34.7095
34.0056
33.2722
32.8206
32.3408
31.7694
31.5494
31.4098
31.3333
31.4057
61.5626
45.8891
41.4337
40.3024
39.4192
38.4115
37.5163
36.8212
36.0609
35.2772
34.7096
34.004
33.2734
32.821
32.3387
31.7699
31.5502
31.4075
31.3314
31.4331
29.0195
29.6094
30.9845
31.4969
28.857
24.8903
20.5131
14.6668
7.18815
-0.107117
-6.55215
-13.1122
-18.5915
-21.837
-24.0422
-25.9007
-26.3088
-24.5488
-21.5397
-18.3763
-14.9136
-10.6389
-5.59778
-0.390724
4.49944
9.09995
14.4443
20.2611
24.7853
29.0883
33.8356
37.5268
40.7355
43.6352
46.1398
47.915
49.4341
50.812
52.3138
53.0095
53.4517
54.3483
54.7505
55.2801
55.5836
55.569
54.8161
51.8766
46.9192
39.6327
29.0604
17.8547
10.1853
4.88953
-1.44745
-8.50798
-14.7646
-19.6522
-22.4352
-22.6152
-20.2399
-15.4042
-8.53427
-0.13212
9.19671
18.1724
25.8884
32.929
38.7288
41.5435
41.5647
40.7323
40.1473
39.3381
37.6437
34.9889
31.1125
25.9484
19.4997
11.824
4.03883
-2.23319
-7.19057
-12.6122
-18.4482
-23.0444
-25.5708
-26.5008
-25.7573
-23.2176
-20.1278
-16.1377
-8.72823
0.597829
8.01752
14.0188
20.1328
25.8218
30.294
33.122
35.0964
36.6374
38.1923
40.1759
42.2765
44.8774
47.6981
50.0288
51.1925
51.6405
51.507
50.4884
49.1853
46.9713
44.0845
40.8097
36.0397
30.7745
26.3743
22.8468
19.2595
16.7967
15.4865
14.4802
14.0956
14.4572
14.9488
15.4412
16.2838
17.8158
20.2842
23.3627
26.669
29.9006
33.4178
36.7202
38.6197
40.1816
41.5888
42.4617
42.7534
43.143
44.2532
44.945
44.9052
44.9835
45.2185
44.9709
44.1349
42.9897
41.6538
39.7608
37.2505
34.5126
31.8079
29.0331
26.4485
24.1145
22.5111
21.918
21.5693
21.7974
23.0616
24.9417
27.1882
29.9527
33.1244
36.3831
39.2759
41.689
43.2022
43.5954
43.113
41.8265
39.632
35.9603
31.8854
27.505
21.2604
15.9903
9.56789
1.71692
-1.74457
-9.92414
-10.2408
-15.9045
-19.5169
-21.0213
-22.0221
-19.8423
-17.3457
-12.7519
-8.31892
-3.07749
2.92194
9.7365
16.4656
23.8667
31.5324
33.849
28.9353
29.4972
30.7413
31.5777
28.88
24.4132
20.4732
15.6507
8.53018
1.48943
-4.36213
-10.5118
-16.0063
-19.4192
-21.7953
-23.5786
-24.079
-22.7283
-19.6011
-16.1787
-12.9321
-9.12466
-4.39802
0.552685
5.16203
9.41308
14.2509
19.842
24.367
28.3506
32.9295
36.8332
39.948
42.8321
45.3333
47.0829
48.6919
50.1042
51.5041
52.3169
52.6268
53.4526
53.8406
54.4133
54.8752
54.9203
54.1639
51.4735
46.7497
39.721
29.3698
18.2113
10.5528
5.44883
-0.593192
-7.38934
-13.4187
-18.2099
-21.0257
-21.3587
-19.2202
-14.6355
-8.05539
0.0103068
9.17299
18.2638
26.0713
33.1178
38.993
42.0715
42.2698
41.4843
40.8531
39.9035
37.9749
35.1924
31.1608
25.8192
19.2415
11.5078
3.62549
-2.8162
-7.95946
-13.7643
-19.9878
-24.7178
-27.265
-28.1775
-27.4624
-24.8817
-21.6938
-17.5841
-9.92258
-0.308489
7.38686
13.6046
19.8581
25.7199
30.4041
33.434
35.4631
36.9606
38.4384
40.2592
42.25
44.81
47.7856
50.1333
51.3101
51.66
51.3811
50.4123
49.1398
47.0113
44.3659
41.4535
37.1421
32.1844
27.9074
24.4734
21.0162
18.5282
17.2221
16.3501
15.929
16.2041
16.7249
17.1695
17.8775
19.2819
21.727
24.8326
28.1519
31.2092
34.3232
37.4693
39.418
40.7005
41.9389
42.7856
43.0684
43.3469
44.3526
45.0971
45.044
45.0588
45.2118
44.8441
43.8224
42.5631
41.0944
38.9917
36.2447
33.2893
30.3959
27.3847
24.6383
22.1569
20.5146
19.7667
19.353
19.5779
20.9962
22.9633
25.4478
28.1846
31.4572
34.7681
37.8459
40.4637
42.0339
42.5916
42.2761
40.9498
38.8931
35.4051
31.0403
26.8655
21.0153
15.0712
10.0074
0.565894
-2.01687
-9.31941
-10.7686
-14.9198
-18.9641
-20.0413
-20.9773
-18.9268
-16.4206
-12.6693
-7.88424
-2.96842
2.83925
9.77104
14.9643
23.3351
27.4114
30.9694
28.8827
29.4231
30.3944
31.2705
28.5935
23.6453
20.1296
16.4283
9.60504
2.70118
-2.57626
-8.35363
-13.775
-17.2291
-19.7094
-21.2357
-21.4467
-20.3811
-17.4428
-13.8328
-10.7708
-7.51636
-3.30763
1.32337
5.71737
9.68704
13.9466
19.2373
23.822
27.5652
31.8909
35.9396
39.1014
41.9666
44.5299
46.2415
47.9371
49.383
50.666
51.614
51.7908
52.5401
52.9238
53.524
54.1606
54.2211
53.4052
50.9283
46.4316
39.682
29.6801
18.6885
11.0735
6.15027
0.357897
-6.12949
-11.9372
-16.6181
-19.3901
-19.8058
-17.8665
-13.5246
-7.22518
0.474742
9.40722
18.5349
26.4455
33.4485
39.3688
42.6602
43.0618
42.3688
41.7355
40.6833
38.5526
35.6014
31.4525
25.9693
19.2365
11.4498
3.44699
-3.18104
-8.54643
-14.7084
-21.2783
-26.1023
-28.6183
-29.5512
-28.8988
-26.3007
-23.0133
-18.7322
-10.8196
-0.994169
6.90349
13.3218
19.7123
25.6997
30.5445
33.758
35.8481
37.3084
38.7128
40.369
42.2314
44.7705
47.8846
50.2201
51.4603
51.7129
51.34
50.4158
49.1439
47.1561
44.6726
42.042
38.2411
33.6317
29.4918
26.2317
22.8691
20.2997
18.9927
18.2324
17.7548
17.8879
18.4086
18.8231
19.4471
20.7567
23.1826
26.2973
29.6285
32.5438
35.327
38.2451
40.1629
41.2577
42.3688
43.1255
43.4548
43.7019
44.5646
45.3161
45.2433
45.2145
45.2999
44.8159
43.5767
42.155
40.5529
38.1902
35.1712
32.0429
28.9341
25.6936
22.7733
20.2788
18.6333
17.8856
17.1406
17.36
18.8852
21.092
23.6202
26.4364
29.7688
33.2841
36.4676
39.2666
40.9288
41.6301
41.5174
40.2189
38.1988
35.0153
30.2077
26.2986
20.8208
14.2917
10.7139
0.146151
-1.01488
-7.5344
-10.9017
-14.149
-18.1108
-19.0445
-19.7322
-18.1653
-15.4627
-12.4613
-7.55874
-2.12176
2.6928
10.1805
14.7788
22.4026
25.4207
30.296
28.8003
29.3547
29.9616
30.6563
28.2737
23.1816
19.7821
16.9106
10.4102
3.53575
-1.22171
-6.52691
-11.7702
-15.1125
-17.4581
-18.7082
-18.5319
-17.5876
-15.183
-11.6655
-8.67273
-5.93514
-2.34236
1.9061
6.0721
9.8711
13.631
18.4777
23.1231
26.6885
30.8194
34.9115
38.1453
41.0062
43.6318
45.398
47.186
48.6514
49.8338
50.9004
50.96
51.6264
52.0198
52.5343
53.4092
53.4558
52.5388
50.2213
45.9295
39.4824
29.9575
19.2576
11.8004
6.97841
1.41274
-4.76145
-10.3755
-14.9199
-17.5859
-18.0124
-16.2122
-12.0892
-6.07349
1.25468
9.89526
18.9994
26.9902
33.9226
39.8461
43.2968
43.9089
43.357
42.7583
41.6285
39.3449
36.2262
31.9906
26.3882
19.5044
11.6513
3.50522
-3.32135
-8.91242
-15.3878
-22.2256
-27.1253
-29.6254
-30.6445
-30.0803
-27.4999
-24.1155
-19.5752
-11.3887
-1.46932
6.57415
13.2078
19.6998
25.7628
30.7534
34.1155
36.2593
37.667
39.0083
40.5112
42.2266
44.7935
47.9797
50.3255
51.6306
51.825
51.388
50.4539
49.2325
47.3734
44.9913
42.6118
39.3119
34.9986
31.1305
27.9978
24.6809
22.1094
20.8375
20.1258
19.5652
19.52
19.9688
20.3755
21.0138
22.2882
24.6515
27.7266
31.068
33.8883
36.3919
39.0576
40.9
41.828
42.8214
43.5171
43.8937
44.1087
44.8568
45.5764
45.4822
45.3772
45.3672
44.8026
43.3888
41.8076
40.0595
37.4041
34.0123
30.7048
27.423
23.9575
20.9347
18.4299
16.8924
15.7134
15.0234
15.1477
16.7228
19.2144
21.8459
24.7533
28.1742
31.814
35.134
38.0777
39.904
40.6892
40.8808
39.6756
37.4478
34.7511
29.6483
25.8268
20.8051
14.0229
10.5737
0.927899
-0.204941
-6.15956
-10.7779
-13.5313
-17.126
-18.1436
-18.497
-17.371
-14.6592
-11.35
-7.25649
-0.808548
3.19931
10.4556
15.2881
21.5135
24.5846
29.3499
28.6722
29.2231
29.5881
29.9076
27.7961
22.9795
19.5492
17.1311
11.1525
4.33823
0.0400944
-4.61277
-9.70288
-12.9549
-14.9504
-15.9453
-15.5372
-14.6043
-12.7871
-9.71042
-6.71251
-4.36462
-1.4458
2.38294
6.30482
9.98811
13.2907
17.6604
22.3341
25.8447
29.7322
33.8437
37.1207
40.0359
42.6756
44.5238
46.4171
47.9032
49.0362
50.1594
50.1716
50.752
51.1333
51.4817
52.6123
52.6266
51.5624
49.3318
45.2197
39.0991
30.0913
19.899
12.6993
7.92038
2.55452
-3.3126
-8.75305
-13.1574
-15.659
-16.0116
-14.2817
-10.3513
-4.62353
2.3261
10.6285
19.6563
27.6837
34.5361
40.4022
43.9608
44.7853
44.4074
43.8948
42.7275
40.3244
37.0884
32.763
27.055
20.0447
12.1036
3.82501
-3.22376
-9.03907
-15.7499
-22.7868
-27.7393
-30.2625
-31.4393
-31.0095
-28.4999
-24.9937
-20.0989
-11.6501
-1.72335
6.43751
13.2635
19.806
25.9358
31.0224
34.5113
36.6981
38.0443
39.3344
40.6995
42.2723
44.864
48.0645
50.4611
51.8373
52.0114
51.4717
50.5409
49.3992
47.6333
45.3516
43.222
40.3058
36.3049
32.7494
29.6782
26.4924
23.9888
22.7467
22.0262
21.325
21.0768
21.4436
21.873
22.5642
23.8529
26.1497
29.1509
32.4431
35.2081
37.491
39.9048
41.6019
42.4548
43.2632
43.9207
44.3831
44.5747
45.1816
45.8281
45.7318
45.521
45.3666
44.7077
43.1878
41.4999
39.5946
36.6454
32.8574
29.2927
25.8997
22.272
19.2115
16.7642
15.2622
13.9943
12.8706
12.8677
14.7127
17.2599
20.119
23.0183
26.6656
30.4316
33.819
36.9842
38.9957
39.882
40.3472
39.2779
36.8751
34.4509
29.6897
24.926
21.6893
13.4337
10.2745
2.8074
-0.391418
-5.59065
-10.3889
-12.7352
-16.0111
-17.2639
-17.403
-16.1516
-13.9441
-9.99184
-6.45532
0.00618149
4.51324
10.6854
15.4043
20.8849
24.0514
27.623
28.6751
29.1244
29.2454
29.0455
27.16
22.8672
19.4098
17.2151
11.9522
5.36922
1.35234
-2.57955
-7.38779
-10.5818
-12.1926
-12.9475
-12.5106
-11.5724
-10.2341
-7.80036
-4.94782
-2.80259
-0.522254
2.78212
6.41984
10.012
13.0018
16.8375
21.4268
24.9708
28.6711
32.7383
36.0453
39.0375
41.6997
43.6509
45.6366
47.1483
48.2764
49.3762
49.4346
49.9271
50.2419
50.3963
51.78
51.7677
50.4774
48.2578
44.305
38.4629
30.0321
20.5928
13.7457
8.95004
3.78782
-1.75606
-7.07351
-11.3499
-13.6155
-13.7986
-12.0802
-8.32311
-2.88634
3.66741
11.6072
20.4945
28.5155
35.2598
41.0217
44.6358
45.6669
45.4946
45.1295
43.9572
41.4595
38.1015
33.6957
27.8973
20.8228
12.8146
4.40081
-2.89918
-8.93553
-15.8046
-22.9441
-27.9602
-30.5241
-31.8577
-31.6874
-29.2888
-25.6316
-20.3113
-11.6031
-1.75708
6.47966
13.4858
20.0323
26.2105
31.3688
34.9705
37.1686
38.4492
39.6857
40.9251
42.3851
44.9834
48.1522
50.6162
52.0773
52.2274
51.5942
50.6981
49.6165
47.9436
45.7732
43.8413
41.1994
37.5773
34.3056
31.3687
28.3485
25.9032
24.6573
23.8986
23.0365
22.599
22.8552
23.3007
24.1168
25.4886
27.6797
30.543
33.758
36.4898
38.5953
40.7988
42.3018
43.0838
43.6816
44.3389
44.847
45.084
45.5368
46.0515
45.9219
45.6188
45.3273
44.5564
42.9761
41.2169
39.111
35.8626
31.74
27.9321
24.3724
20.7356
17.6806
15.2815
13.8737
12.2958
10.7771
10.7006
12.5713
15.3801
18.4134
21.3946
25.1758
29.2243
32.5844
35.9502
38.2923
39.1477
39.8865
39.0603
36.6144
34.0487
29.8875
24.1217
22.1299
12.7665
11.5886
5.38626
-0.447889
-4.86294
-9.39388
-11.6144
-14.746
-16.1569
-16.3509
-14.7044
-13.0864
-9.19896
-5.31644
0.44954
5.5948
11.0337
15.561
20.568
23.3547
25.8503
28.8332
29.1143
28.9622
28.3197
26.4361
22.7346
19.3899
17.3114
12.8409
6.70406
2.74826
-0.501846
-4.80272
-7.95434
-9.36516
-9.95423
-9.53566
-8.66441
-7.77602
-5.99559
-3.4247
-1.36215
0.431217
3.12666
6.41539
9.8797
12.6612
15.9374
20.3536
23.9396
27.5337
31.5407
34.9137
37.9879
40.6649
42.7637
44.8506
46.4051
47.5475
48.5632
48.7427
49.1461
49.3049
49.3258
50.9057
50.9077
49.3006
47.0057
43.1703
37.5357
29.8005
21.3227
14.8697
10.0282
5.12533
-0.0762852
-5.29374
-9.44789
-11.4041
-11.3525
-9.61524
-6.01465
-0.875034
5.26896
12.8249
21.5097
29.4679
36.0724
41.6824
45.3056
46.5249
46.5906
46.4102
45.2916
42.6968
39.1841
34.7202
28.872
21.8217
13.8008
5.22176
-2.35335
-8.61205
-15.5654
-22.7291
-27.8128
-30.4514
-31.9685
-32.0863
-29.8448
-25.9961
-20.184
-11.2802
-1.58438
6.73208
13.8615
20.3882
26.5992
31.808
35.4731
37.6635
38.8899
40.0649
41.1859
42.5781
45.1728
48.2661
50.8055
52.3117
52.4681
51.8007
50.9199
49.8857
48.296
46.2313
44.4233
42.0018
38.8154
35.8658
33.0665
30.174
27.7995
26.5538
25.7207
24.6993
24.0925
24.2396
24.7024
25.634
27.1226
29.2498
31.9355
35.0152
37.7083
39.7042
41.6934
43.0194
43.7281
44.1016
44.7504
45.2789
45.5934
45.9006
46.2739
46.049
45.6669
45.2661
44.3685
42.7696
40.9439
38.597
35.0006
30.6124
26.6508
22.9431
19.2761
16.3918
13.9981
12.7132
10.6404
8.71511
8.5718
10.4342
13.5668
16.6224
19.8899
23.7716
28.0223
31.5769
34.8678
37.7032
38.6262
39.3902
39.0399
36.43
33.8484
30.3114
24.1029
21.7031
13.7694
13.503
6.63231
0.0377193
-3.72692
-7.92265
-10.4726
-13.3782
-14.6914
-14.8642
-13.5099
-12.0804
-8.67574
-4.27951
1.02562
6.19429
11.1206
15.8168
20.2673
22.7912
24.5356
28.9019
28.998
28.6394
27.601
25.6981
22.5834
19.5001
17.4955
13.7813
8.2108
4.28045
1.55612
-2.07932
-5.1405
-6.57688
-7.15929
-6.7599
-5.97156
-5.49115
-4.33975
-2.04627
-0.0593973
1.35266
3.45851
6.23857
9.5222
12.1635
14.9466
19.092
22.7342
26.2358
30.1425
33.6299
36.8335
39.5688
41.8409
44.0351
45.671
46.819
47.7647
48.0968
48.4453
48.3716
48.2853
49.8993
50.0109
48.0206
45.5687
41.7815
36.3251
29.4234
22.0116
15.9595
11.1489
6.59385
1.7827
-3.3459
-7.34306
-8.94623
-8.66127
-6.89086
-3.44452
1.38577
7.11648
14.2806
22.6954
30.5256
36.9531
42.3617
45.9428
47.3368
47.6645
47.7004
46.7011
44.0196
40.3369
35.8301
29.9846
23.0021
15.0303
6.29358
-1.55004
-8.05796
-15.0348
-22.1814
-27.3297
-30.0569
-31.7784
-32.1765
-30.0928
-26.0203
-19.7202
-10.6951
-1.18244
7.18393
14.3757
20.8778
27.0994
32.342
36.0362
38.1899
39.3674
40.4755
41.4855
42.851
45.4291
48.4476
51.0701
52.5701
52.7665
52.072
51.2036
50.2076
48.6767
46.736
44.9874
42.762
40.0249
37.3411
34.6706
31.984
29.6811
28.3774
27.441
26.3228
25.5814
25.5939
26.064
27.1326
28.7508
30.8035
33.3013
36.2497
38.8538
40.7762
42.6268
43.7743
44.3265
44.5592
45.1303
45.6888
46.0833
46.2824
46.5147
46.207
45.7246
45.2093
44.1803
42.5638
40.6717
38.0832
34.1223
29.4766
25.4729
21.6207
17.9901
15.25
13.0152
11.7876
9.06488
6.71568
6.29045
8.42489
11.7059
14.9676
18.4156
22.516
26.9095
30.6886
34.0335
37.123
38.4675
38.7793
39.124
36.5019
33.743
31.2953
23.9101
21.9066
16.2285
13.6093
6.61346
1.04189
-2.25897
-6.42566
-9.31173
-11.912
-13.1363
-13.6598
-12.6681
-11.1506
-7.937
-3.38763
1.62019
6.57965
10.9811
15.5504
19.6037
22.3084
23.6039
29.4581
29.3729
28.3654
26.8576
25.0114
22.4101
19.6472
17.7432
14.6895
9.75514
5.94541
3.57944
0.612799
-2.27221
-3.85243
-4.46712
-4.17784
-3.52494
-3.21662
-2.61049
-0.749587
1.1452
2.26149
3.82053
6.03341
9.06819
11.5818
13.8967
17.6853
21.3799
24.8378
28.6183
32.1946
35.5306
38.3864
40.8725
43.1944
44.9692
46.0821
46.9723
47.4786
47.817
47.587
47.3465
48.7137
48.936
46.5963
43.9013
40.1096
34.8932
28.9088
22.6053
17.017
12.3207
8.25354
3.87598
-1.12604
-4.91136
-6.18557
-5.69202
-3.88826
-0.618695
3.87165
9.18493
15.9598
24.0469
31.6698
37.87
43.0362
46.527
48.0858
48.6897
48.9829
48.138
45.4135
41.5688
37.0313
31.2157
24.2759
16.3872
7.61872
-0.47379
-7.23483
-14.2064
-21.3104
-26.5394
-29.3581
-31.2516
-31.8988
-29.954
-25.6372
-18.9032
-9.87192
-0.550727
7.83936
15.0147
21.4761
27.738
32.966
36.6487
38.7309
39.8761
40.9048
41.8201
43.199
45.7426
48.7233
51.4154
52.9204
53.1149
52.3833
51.5455
50.5594
49.1015
47.3005
45.5681
43.5204
41.1221
38.659
36.2454
33.7895
31.4844
30.0704
29.0466
27.8718
27.0383
26.9557
27.4287
28.5803
30.3063
32.3384
34.6526
37.4303
39.9572
41.8173
43.5364
44.5905
44.901
45.0164
45.4524
46.0729
46.5129
46.67
46.7466
46.3823
45.805
45.1644
44.0366
42.3385
40.3806
37.6023
33.3216
28.4796
24.428
20.4678
16.9273
14.3227
12.2701
11.3218
7.51327
4.79602
4.32137
6.48301
9.82727
13.4173
17.0407
21.3768
25.9095
29.8645
33.4049
36.6321
38.3562
38.4985
39.1475
37.1865
33.3785
32.0055
23.6254
23.5044
18.8737
12.719
7.24135
2.39126
-0.634554
-5.04957
-8.10132
-10.5697
-11.8496
-12.6563
-11.7755
-10.1634
-7.10684
-2.52096
2.18345
6.81474
10.8903
15.1776
18.7802
21.5681
22.717
29.8463
29.6132
28.1217
26.2856
24.5222
22.2962
19.8316
18.0407
15.5053
11.2658
7.65776
5.5091
3.07953
0.464352
-1.23941
-1.95246
-1.77298
-1.22711
-1.03684
-0.823743
0.50234
2.23112
3.16155
4.21732
5.8282
8.49105
10.9514
12.8264
16.1889
19.8783
23.3111
27.0012
30.6651
34.136
37.1534
39.8437
42.3166
44.3021
45.3729
46.2195
46.8755
47.2054
46.9404
46.524
47.448
47.5395
44.9177
41.97
38.1821
33.2795
28.2397
23.084
17.9852
13.5656
10.1353
6.25584
1.45548
-2.07699
-3.05571
-2.43886
-0.620015
2.4521
6.56916
11.4714
17.8443
25.5621
32.8857
38.7956
43.6717
47.0439
48.7545
49.6501
50.2179
49.5588
46.8295
42.8711
38.2953
32.5251
25.6192
17.8079
9.15339
0.88309
-6.12637
-13.0567
-20.1267
-25.4281
-28.3483
-30.3544
-31.1732
-29.3262
-24.7837
-17.7565
-8.81175
0.338695
8.66126
15.7492
22.204
28.4911
33.6782
37.306
39.2923
40.4204
41.3473
42.2281
43.6298
46.1053
49.0812
51.8132
53.3743
53.5012
52.7447
51.9114
50.9388
49.5723
47.8983
46.1943
44.2642
42.0988
39.8907
37.7792
35.4618
33.1286
31.6067
30.51
29.3403
28.4705
28.3157
28.7927
30.0228
31.797
33.7698
35.9698
38.5773
40.9677
42.8366
44.4605
45.4018
45.4827
45.4747
45.7414
46.4143
46.8654
46.9974
46.9414
46.4889
45.8395
45.103
43.8957
42.0949
40.0234
37.094
32.5814
27.6459
23.5387
19.482
16.1129
13.5668
11.8911
11.1907
6.07229
3.2039
2.57098
4.51371
8.22399
11.8785
15.8538
20.3186
24.8967
29.3182
32.8417
36.2406
38.3903
38.7014
39.0392
38.2005
33.4137
32.4003
25.3462
25.7684
19.9228
12.5218
8.72698
4.10953
0.914944
-3.72588
-6.90669
-9.57914
-10.9008
-11.6326
-10.7705
-9.02708
-6.16557
-1.68983
2.78493
7.00445
10.8049
14.8446
18.1931
20.8807
21.9596
30.0636
29.7362
28.014
25.978
24.2319
22.2923
20.0551
18.3719
16.2708
12.7158
9.3494
7.26581
5.22835
2.9574
1.2062
0.34455
0.418864
0.911832
0.985894
0.896483
1.72418
3.17393
3.95745
4.56002
5.56083
7.72767
10.1205
11.6604
14.5494
18.1746
21.5707
25.207
28.9931
32.6172
35.863
38.7861
41.4436
43.581
44.6999
45.5552
46.2943
46.6167
46.3483
45.702
46.063
45.7277
42.8804
39.7543
36.0395
31.5133
27.4075
23.3828
18.8277
14.9244
12.2792
8.95109
4.42648
1.21202
0.476846
1.12392
2.89995
5.74058
9.45571
13.9578
19.9272
27.2181
34.156
39.7122
44.251
47.4806
49.3243
50.5283
51.3789
50.9356
48.2494
44.2167
39.6109
33.8994
27.0522
19.3255
10.8019
2.48791
-4.73039
-11.5963
-18.6331
-23.9872
-27.0102
-29.0447
-29.9159
-28.1322
-23.4532
-16.286
-7.50207
1.44578
9.62146
16.5957
23.0535
29.3279
34.4892
37.9804
39.8761
40.9875
41.8078
42.7105
44.1023
46.5249
49.5068
52.2256
53.83
53.9101
53.1329
52.2956
51.3803
50.0611
48.502
46.8594
44.9983
43.0061
40.99
39.1403
36.9148
34.5982
33.0025
31.8351
30.7199
29.8644
29.6998
30.182
31.4191
33.2154
35.1418
37.2
39.6777
41.9469
43.7733
45.3724
46.2021
46.0865
45.9239
46.0552
46.7085
47.1498
47.222
47.0682
46.5331
45.8109
45.0112
43.7189
41.8567
39.6305
36.4856
31.7909
26.792
22.7577
18.6181
15.5273
12.9449
11.7938
11.3603
4.76695
2.19737
1.025
2.85913
6.72596
10.4648
14.7646
19.5127
24.0153
28.7146
32.7351
35.7549
38.726
39.0827
39.2158
39.3123
34.3149
33.3537
28.3535
26.264
19.1801
13.6165
10.58
6.12008
2.37307
-2.32357
-5.68428
-8.55645
-9.75017
-10.2768
-9.61182
-7.82332
-5.09686
-0.815195
3.50827
7.17241
10.6437
14.433
17.661
20.3239
21.4316
30.1796
29.8233
28.0405
25.8562
24.0805
22.3662
20.3469
18.711
16.9825
14.0581
10.9619
8.8681
7.16168
5.24428
3.48681
2.50652
2.44421
2.85276
2.91245
2.59464
2.94147
4.0217
4.65826
4.90325
5.29749
6.88066
9.06344
10.3487
12.7258
16.2082
19.5722
23.18
27.1206
30.9736
34.5106
37.6987
40.5687
42.8421
44.0589
44.9646
45.7911
46.1106
45.7568
44.8487
44.5302
43.5198
40.4626
37.2711
33.7008
29.592
26.4351
23.4978
19.5719
16.4349
14.6986
11.929
7.78177
4.95605
4.41931
5.09922
6.64948
9.20518
12.4988
16.6083
22.1883
28.987
35.4533
40.5983
44.7621
47.8247
49.7923
51.3037
52.4498
52.2524
49.6678
45.581
40.9812
35.346
28.5787
20.9531
12.5278
4.25629
-3.05401
-9.85409
-16.8128
-22.2002
-25.3635
-27.3173
-28.1258
-26.3723
-21.6552
-14.5107
-5.96549
2.74376
10.7039
17.542
24.0277
30.2554
35.3425
38.6556
40.4838
41.5536
42.3141
43.2465
44.6273
47.041
49.9738
52.6381
54.2139
54.3172
53.5234
52.7442
51.8827
50.5579
49.0817
47.5131
45.7347
43.8275
41.9295
40.3051
38.1881
35.9199
34.2621
33.0726
32.0412
31.2353
31.0783
31.5749
32.8009
34.5363
36.4273
38.3836
40.6884
42.8771
44.6708
46.242
46.9583
46.6963
46.3623
46.4213
46.9812
47.3733
47.3863
47.1418
46.5554
45.7761
44.9015
43.5597
41.6501
39.2883
35.9038
30.9278
25.9328
21.9548
17.9423
15.0798
12.4755
11.7389
11.4447
3.85438
1.77592
-0.154183
1.55177
5.3319
9.43325
13.7449
18.8252
23.2
28.002
32.9539
35.5044
38.795
40.0038
39.5591
40.4202
35.3108
34.8421
30.9782
25.298
19.5086
15.6853
12.5654
7.85757
3.81867
-0.819075
-4.24512
-7.08509
-8.23899
-8.73562
-8.37113
-6.62296
-3.84967
0.121019
4.11352
7.37508
10.5412
14.0292
17.1189
19.6858
20.9032
30.313
29.886
28.0702
25.8321
24.0226
22.5138
20.7101
19.0905
17.6285
15.2819
12.4896
10.4172
8.98686
7.37013
5.65966
4.599
4.38809
4.68623
4.73586
4.2883
4.1901
4.85877
5.28571
5.20437
5.04633
5.99275
7.87049
8.9356
10.794
14.0215
17.3181
20.9373
25.0096
29.1365
33.0518
36.575
39.6726
42.1118
43.4723
44.4161
45.3707
45.727
45.2572
44.0836
42.9593
41.0661
37.7143
34.5618
31.1968
27.5338
25.3193
23.3521
20.1915
18.0788
17.3176
15.1457
11.4801
9.12822
8.71643
9.33716
10.577
12.8129
15.683
19.4051
24.5949
30.8551
36.7601
41.4455
45.2022
48.0719
50.1603
51.9667
53.4037
53.4819
51.0602
46.9695
42.3677
36.8542
30.2007
22.6998
14.3641
6.14483
-1.15668
-7.85147
-14.7097
-20.0876
-23.3984
-25.2389
-25.856
-24.1127
-19.4676
-12.4863
-4.22324
4.17077
11.8774
18.6061
25.1242
31.2574
36.2046
39.3185
41.1005
42.1208
42.8787
43.8334
45.2234
47.6299
50.5285
53.1158
54.57
54.7131
53.9502
53.2585
52.4206
51.0776
49.6241
48.161
46.5003
44.6061
42.8075
41.3122
39.3104
37.1184
35.4231
34.2324
33.2934
32.5557
32.4697
32.9704
34.1182
35.782
37.6154
39.4786
41.6374
43.7461
45.5076
47.0504
47.6672
47.2836
46.79
46.8192
47.2677
47.5549
47.5089
47.1916
46.5712
45.7648
44.8325
43.4627
41.4945
39.0604
35.5032
30.2506
25.2771
21.2742
17.4009
14.8307
12.1455
11.7148
10.9384
3.39521
2.11398
-1.29104
0.335585
4.38286
8.52098
12.9503
18.2656
22.7651
27.6015
33.0465
35.927
38.6813
41.301
39.4905
41.4528
36.5341
37.2834
33.153
25.3246
22.018
17.8296
14.2551
9.18444
5.36597
0.748175
-2.62258
-5.3319
-6.72792
-7.33062
-6.99152
-5.31258
-2.59292
1.11711
4.70663
7.562
10.4724
13.7002
16.7192
19.1681
20.372
30.3998
29.9274
28.1388
25.9397
24.0812
22.6684
21.0959
19.51
18.2337
16.4036
13.9485
11.9514
10.6761
9.33286
7.74174
6.62537
6.26664
6.47289
6.46129
5.94362
5.47464
5.68363
5.83659
5.4158
4.75976
5.02651
6.45533
7.32927
8.70356
11.6454
14.8431
18.4367
22.6793
27.1333
31.4916
35.3849
38.746
41.4084
42.9341
43.9407
45.0263
45.464
44.9364
43.5539
41.4071
38.445
34.7408
31.6883
28.56
25.3728
24.0369
22.9438
20.7476
19.8713
20.1103
18.5211
15.4719
13.6511
13.2453
13.6138
14.6383
16.52
18.9801
22.3464
27.1274
32.818
38.091
42.261
45.5827
48.2351
50.4329
52.5213
54.2275
54.5894
52.4113
48.3687
43.7392
38.4122
31.9382
24.5776
16.3388
8.16807
0.884184
-5.67259
-12.3939
-17.7446
-21.137
-22.8994
-23.3242
-21.5117
-17.0137
-10.2788
-2.35364
5.68971
13.1435
19.78
26.3257
32.324
37.0525
39.9624
41.7105
42.6889
43.4858
44.4843
45.8753
48.2896
51.2437
53.6488
54.98
55.1462
54.4239
53.8056
53.0078
51.6462
50.2001
48.8636
47.3045
45.3972
43.6486
42.1864
40.3139
38.2497
36.5386
35.3672
34.4974
33.8328
33.8326
34.3608
35.382
36.9174
38.7094
40.4797
42.4979
44.5442
46.2911
47.7854
48.3132
47.8433
47.2342
47.2089
47.5696
47.7182
47.5559
47.1827
46.5742
45.7651
44.8181
43.4104
41.3858
38.8801
35.2268
29.9194
24.9423
20.9262
17.0734
14.7366
11.9891
11.9261
9.9964
3.32913
2.62515
-2.7637
-0.370396
3.8113
7.74798
12.4176
17.7455
22.5706
27.1791
33.2642
36.6471
38.8816
42.1768
39.8103
42.8169
38.9468
39.5907
33.6342
26.7054
24.8197
19.7339
15.7724
10.6575
6.88857
2.23582
-0.987694
-3.66238
-5.3054
-5.92974
-5.44844
-3.86213
-1.29108
2.13511
5.28674
7.75273
10.4107
13.3856
16.3312
18.7369
19.9544
30.4673
29.9739
28.2868
26.19
24.2644
22.8774
21.5214
19.9754
18.837
17.4075
15.322
13.4503
12.2381
11.1634
9.74244
8.55979
8.05512
8.20377
8.13089
7.51936
6.76574
6.53266