/*--------------------------------*- C++ -*----------------------------------*\
| =========                 |                                                 |
| \\      /  F ield         | OpenFOAM: The Open Source CFD Toolbox           |
|  \\    /   O peration     | Version:  2.4.0                                 |
|   \\  /    A nd           | Web:      www.OpenFOAM.org                      |
|    \\/     M anipulation  |                                                 |
\*---------------------------------------------------------------------------*/
FoamFile
{
    version     2.0;
    format      ascii;
    class       volVectorField;
    location    "0.136242";
    object      UMean;
}
// * * * * * * * * * * * * * * * * * * * * * * * * * * * * * * * * * * * * * //

dimensions      [0 1 -1 0 0 0 0];

internalField   nonuniform List<vector> 
17600
(
(9.83608 -0.186686 0)
(9.53424 -0.132251 0)
(9.23016 -0.0662608 0)
(8.93588 -0.0261838 0)
(8.67395 -0.00542809 0)
(8.45107 0.00385692 0)
(8.26392 0.00704775 0)
(8.10805 0.00725946 0)
(7.97947 0.00619937 0)
(7.87376 0.00478247 0)
(7.78629 0.00345341 0)
(7.71298 0.00240264 0)
(7.6504 0.00168373 0)
(7.59567 0.00128427 0)
(7.5461 0.00116855 0)
(7.49948 0.0013742 0)
(7.45133 0.00174398 0)
(7.40051 0.00403635 0)
(7.32254 0.00151669 0)
(7.23894 0.0426064 0)
(10.0467 0.103825 0)
(10.1447 0.133195 0)
(10.1813 0.101892 0)
(10.1677 0.0744849 0)
(10.1252 0.0565285 0)
(10.0625 0.0444788 0)
(9.98286 0.035982 0)
(9.89124 0.0297678 0)
(9.79334 0.0250878 0)
(9.69346 0.0214678 0)
(9.59442 0.0185963 0)
(9.49827 0.0162871 0)
(9.40648 0.0144245 0)
(9.32001 0.0129397 0)
(9.23916 0.0118085 0)
(9.16426 0.0111113 0)
(9.09351 0.010977 0)
(9.031 0.0123268 0)
(8.95924 0.0159449 0)
(8.9476 0.0265727 0)
(10.0008 0.01672 0)
(10.0475 0.00877106 0)
(10.0899 0.0108069 0)
(10.1155 0.0201614 0)
(10.1333 0.027266 0)
(10.1452 0.0303829 0)
(10.1487 0.030834 0)
(10.1431 0.0299819 0)
(10.1298 0.0285884 0)
(10.1101 0.0269742 0)
(10.0845 0.0252917 0)
(10.0537 0.0236518 0)
(10.0185 0.0221289 0)
(9.97958 0.0207776 0)
(9.93745 0.019643 0)
(9.89283 0.0189189 0)
(9.84492 0.0185678 0)
(9.7965 0.0205463 0)
(9.73746 0.0214756 0)
(9.69367 0.0381134 0)
(9.99586 0.0146601 0)
(10.0268 0.0283358 0)
(10.0574 0.0331644 0)
(10.0776 0.0348899 0)
(10.0965 0.0349745 0)
(10.1159 0.033909 0)
(10.1326 0.0322768 0)
(10.1452 0.0305688 0)
(10.1545 0.0289817 0)
(10.1607 0.027517 0)
(10.1639 0.0261686 0)
(10.1642 0.0249618 0)
(10.1616 0.0239181 0)
(10.1563 0.0230607 0)
(10.1482 0.0224191 0)
(10.1374 0.0222021 0)
(10.1229 0.0224081 0)
(10.1065 0.0249901 0)
(10.0815 0.0271715 0)
(10.0619 0.044192 0)
(9.99495 0.0137159 0)
(10.021 0.02751 0)
(10.0467 0.029514 0)
(10.0632 0.0300897 0)
(10.0799 0.0307232 0)
(10.0988 0.0305319 0)
(10.1167 0.0295993 0)
(10.1322 0.0284074 0)
(10.146 0.0272183 0)
(10.1582 0.0260844 0)
(10.1688 0.0250289 0)
(10.1777 0.0240915 0)
(10.185 0.023303 0)
(10.1908 0.0226989 0)
(10.195 0.0223193 0)
(10.1976 0.0224007 0)
(10.1978 0.0229519 0)
(10.1973 0.02592 0)
(10.1916 0.0289826 0)
(10.1926 0.0451689 0)
(9.99449 0.012715 0)
(10.0183 0.0253005 0)
(10.0418 0.0267825 0)
(10.0567 0.0274984 0)
(10.0719 0.0284197 0)
(10.0897 0.0284082 0)
(10.1072 0.027607 0)
(10.123 0.0265536 0)
(10.1376 0.0255117 0)
(10.1513 0.0245283 0)
(10.164 0.0236228 0)
(10.1756 0.0228316 0)
(10.1861 0.022186 0)
(10.1956 0.0217264 0)
(10.204 0.0214973 0)
(10.2114 0.0217486 0)
(10.2171 0.0224939 0)
(10.2225 0.0256145 0)
(10.2246 0.0290979 0)
(10.233 0.0440404 0)
(9.9941 0.0112994 0)
(10.0164 0.0228012 0)
(10.0388 0.0245197 0)
(10.053 0.0253789 0)
(10.0675 0.0263223 0)
(10.0845 0.0263343 0)
(10.1014 0.0256021 0)
(10.1169 0.0246497 0)
(10.1315 0.023717 0)
(10.1455 0.0228434 0)
(10.1588 0.0220471 0)
(10.1713 0.0213636 0)
(10.183 0.0208248 0)
(10.1939 0.0204748 0)
(10.2041 0.0203618 0)
(10.2134 0.0207425 0)
(10.2215 0.0216405 0)
(10.2293 0.024831 0)
(10.2351 0.0285798 0)
(10.246 0.0423901 0)
(9.99379 0.00995667 0)
(10.0149 0.0206608 0)
(10.0365 0.0226175 0)
(10.0504 0.0234429 0)
(10.0646 0.0243018 0)
(10.0811 0.0243143 0)
(10.0976 0.0236414 0)
(10.1128 0.0227709 0)
(10.1273 0.0219229 0)
(10.1412 0.0211334 0)
(10.1546 0.0204209 0)
(10.1673 0.0198206 0)
(10.1795 0.0193647 0)
(10.191 0.0191005 0)
(10.2018 0.0190803 0)
(10.2121 0.0195631 0)
(10.2213 0.0205881 0)
(10.2304 0.0238036 0)
(10.2381 0.0277555 0)
(10.2502 0.0405645 0)
(9.99353 0.00876608 0)
(10.0136 0.0186924 0)
(10.0346 0.0207469 0)
(10.0484 0.0214986 0)
(10.0623 0.0222881 0)
(10.0786 0.0223207 0)
(10.0949 0.0217119 0)
(10.1099 0.0209179 0)
(10.1242 0.0201455 0)
(10.138 0.0194289 0)
(10.1514 0.0187876 0)
(10.1641 0.0182568 0)
(10.1764 0.0178693 0)
(10.1881 0.0176758 0)
(10.1993 0.0177324 0)
(10.2099 0.0182976 0)
(10.2198 0.0194282 0)
(10.2295 0.0226389 0)
(10.2385 0.0267371 0)
(10.2513 0.0386407 0)
(9.99332 0.00770094 0)
(10.0125 0.0168076 0)
(10.0329 0.0188733 0)
(10.0466 0.019564 0)
(10.0605 0.0202966 0)
(10.0767 0.0203508 0)
(10.0927 0.0198046 0)
(10.1076 0.0190846 0)
(10.1218 0.0183844 0)
(10.1356 0.0177361 0)
(10.1488 0.0171602 0)
(10.1616 0.0166919 0)
(10.1738 0.0163648 0)
(10.1856 0.0162325 0)
(10.197 0.0163555 0)
(10.2078 0.0169888 0)
(10.218 0.0182072 0)
(10.2282 0.0213922 0)
(10.2379 0.0255818 0)
(10.2513 0.0366512 0)
(9.99314 0.0067325 0)
(10.0115 0.0149889 0)
(10.0315 0.0170118 0)
(10.0451 0.01765 0)
(10.0589 0.0183241 0)
(10.075 0.0183938 0)
(10.091 0.0179083 0)
(10.1058 0.0172617 0)
(10.1199 0.0166331 0)
(10.1336 0.0160521 0)
(10.1469 0.0155394 0)
(10.1596 0.0151304 0)
(10.1718 0.0148597 0)
(10.1836 0.0147831 0)
(10.195 0.0149654 0)
(10.206 0.0156565 0)
(10.2163 0.0169479 0)
(10.2268 0.0200924 0)
(10.2371 0.0243239 0)
(10.2509 0.0346143 0)
(9.993 0.00584292 0)
(10.0107 0.0132344 0)
(10.0302 0.0151689 0)
(10.0438 0.0157542 0)
(10.0575 0.0163647 0)
(10.0735 0.0164439 0)
(10.0895 0.0160177 0)
(10.1043 0.015444 0)
(10.1184 0.0148868 0)
(10.1321 0.0143727 0)
(10.1453 0.0139228 0)
(10.158 0.0135719 0)
(10.1702 0.0133554 0)
(10.182 0.0133314 0)
(10.1934 0.0135682 0)
(10.2044 0.0143093 0)
(10.215 0.0156611 0)
(10.2256 0.0187545 0)
(10.2364 0.0229847 0)
(10.2506 0.0325402 0)
(9.99288 0.00501924 0)
(10.01 0.0115391 0)
(10.0292 0.0133433 0)
(10.0426 0.0138722 0)
(10.0564 0.0144155 0)
(10.0723 0.0144991 0)
(10.0882 0.0141303 0)
(10.103 0.0136289 0)
(10.1171 0.0131425 0)
(10.1307 0.0126953 0)
(10.1439 0.0123079 0)
(10.1566 0.0120147 0)
(10.1688 0.0118515 0)
(10.1807 0.0118778 0)
(10.1921 0.0121656 0)
(10.2032 0.0129506 0)
(10.2139 0.0143516 0)
(10.2247 0.017386 0)
(10.2358 0.0215783 0)
(10.2504 0.0304355 0)
(9.99278 0.00425039 0)
(10.0095 0.0098962 0)
(10.0283 0.0115327 0)
(10.0416 0.0120014 0)
(10.0553 0.0124753 0)
(10.0712 0.0125586 0)
(10.0871 0.0122452 0)
(10.1019 0.011815 0)
(10.116 0.0113987 0)
(10.1296 0.0110182 0)
(10.1428 0.0106933 0)
(10.1555 0.0104573 0)
(10.1678 0.0103465 0)
(10.1796 0.0104217 0)
(10.1911 0.0107574 0)
(10.2022 0.0115813 0)
(10.213 0.0130218 0)
(10.224 0.015991 0)
(10.2354 0.0201144 0)
(10.2503 0.0283058 0)
(9.9927 0.00352655 0)
(10.009 0.00829836 0)
(10.0275 0.00973533 0)
(10.0408 0.01014 0)
(10.0545 0.0105431 0)
(10.0703 0.0106218 0)
(10.0861 0.0103617 0)
(10.1009 0.0100017 0)
(10.115 0.00965491 0)
(10.1287 0.00934059 0)
(10.1419 0.00907788 0)
(10.1546 0.00889883 0)
(10.1669 0.00883982 0)
(10.1787 0.00896228 0)
(10.1902 0.00934319 0)
(10.2014 0.0102014 0)
(10.2124 0.0116725 0)
(10.2235 0.0145716 0)
(10.2352 0.0186007 0)
(10.2503 0.0261569 0)
(9.99264 0.002839 0)
(10.0086 0.00673843 0)
(10.0269 0.0079494 0)
(10.0401 0.00828654 0)
(10.0538 0.00861785 0)
(10.0696 0.00868818 0)
(10.0854 0.00847958 0)
(10.1002 0.0081889 0)
(10.1143 0.00791076 0)
(10.128 0.00766221 0)
(10.1412 0.00746137 0)
(10.1539 0.00733878 0)
(10.1661 0.00733071 0)
(10.178 0.00749904 0)
(10.1896 0.00792253 0)
(10.2009 0.00881096 0)
(10.2119 0.0103044 0)
(10.2232 0.0131295 0)
(10.2351 0.0170439 0)
(10.2504 0.0239947 0)
(9.99259 0.00217996 0)
(10.0083 0.00520936 0)
(10.0264 0.00617306 0)
(10.0396 0.0064394 0)
(10.0532 0.00669822 0)
(10.069 0.00675714 0)
(10.0848 0.00659842 0)
(10.0996 0.0063763 0)
(10.1137 0.00616621 0)
(10.1274 0.00598297 0)
(10.1406 0.00584362 0)
(10.1533 0.00577697 0)
(10.1656 0.00581898 0)
(10.1775 0.00603171 0)
(10.1891 0.00649517 0)
(10.2004 0.00740994 0)
(10.2116 0.00891834 0)
(10.223 0.0116662 0)
(10.2351 0.0154499 0)
(10.2506 0.0218253 0)
(9.99255 0.00154236 0)
(10.0081 0.00370422 0)
(10.026 0.00440431 0)
(10.0392 0.0045971 0)
(10.0528 0.00478299 0)
(10.0686 0.00482811 0)
(10.0843 0.004718 0)
(10.0991 0.00456385 0)
(10.1132 0.00442125 0)
(10.1269 0.00430292 0)
(10.1401 0.00422465 0)
(10.1529 0.00421337 0)
(10.1652 0.00430458 0)
(10.1771 0.0045602 0)
(10.1888 0.00506109 0)
(10.2002 0.00599856 0)
(10.2114 0.00751514 0)
(10.223 0.0101831 0)
(10.2353 0.0138243 0)
(10.2509 0.019655 0)
(9.99253 0.000919698 0)
(10.008 0.00221611 0)
(10.0258 0.00264106 0)
(10.0389 0.00275821 0)
(10.0526 0.00287091 0)
(10.0683 0.00290052 0)
(10.0841 0.00283808 0)
(10.0988 0.00275145 0)
(10.113 0.00267592 0)
(10.1266 0.00262211 0)
(10.1399 0.00260455 0)
(10.1526 0.00264807 0)
(10.1649 0.00278754 0)
(10.1769 0.00308457 0)
(10.1886 0.00362038 0)
(10.2 0.00457711 0)
(10.2114 0.00609575 0)
(10.2231 0.00868194 0)
(10.2356 0.0121723 0)
(10.2512 0.0174897 0)
(9.99252 0.00030584 0)
(10.0079 0.000738196 0)
(10.0257 0.000881161 0)
(10.0388 0.000921357 0)
(10.0524 0.000960695 0)
(10.0681 0.000973767 0)
(10.0839 0.000958428 0)
(10.0987 0.000939006 0)
(10.1128 0.000930242 0)
(10.1265 0.000940658 0)
(10.1397 0.000983412 0)
(10.1525 0.00108116 0)
(10.1648 0.00126797 0)
(10.1768 0.00160493 0)
(10.1885 0.00217324 0)
(10.2001 0.00314601 0)
(10.2115 0.00466121 0)
(10.2234 0.00716426 0)
(10.2359 0.0104987 0)
(10.2516 0.0153351 0)
(9.99252 -0.000305112 0)
(10.0079 -0.000736321 0)
(10.0257 -0.000877611 0)
(10.0388 -0.000914834 0)
(10.0524 -0.000948915 0)
(10.0681 -0.000952749 0)
(10.0839 -0.000921212 0)
(10.0987 -0.000873561 0)
(10.1128 -0.000815751 0)
(10.1265 -0.000741351 0)
(10.1397 -0.000638626 0)
(10.1525 -0.000487223 0)
(10.1649 -0.000253988 0)
(10.1769 0.000121445 0)
(10.1886 0.000719899 0)
(10.2002 0.0017057 0)
(10.2118 0.0032126 0)
(10.2237 0.00563174 0)
(10.2364 0.00880807 0)
(10.2521 0.0131962 0)
(9.99253 -0.000918972 0)
(10.008 -0.00221425 0)
(10.0258 -0.00263753 0)
(10.0389 -0.00275173 0)
(10.0526 -0.00285919 0)
(10.0683 -0.00287962 0)
(10.0841 -0.00280107 0)
(10.0988 -0.00268634 0)
(10.113 -0.00256201 0)
(10.1267 -0.0024238 0)
(10.1399 -0.00226144 0)
(10.1527 -0.00205693 0)
(10.165 -0.0017782 0)
(10.1771 -0.00136572 0)
(10.1889 -0.000739364 0)
(10.2005 0.00025665 0)
(10.2121 0.00175095 0)
(10.2242 0.004086 0)
(10.237 0.00710432 0)
(10.2526 0.0110774 0)
(9.99256 -0.00154164 0)
(10.0081 -0.00370239 0)
(10.026 -0.00440082 0)
(10.0392 -0.00459069 0)
(10.0528 -0.0047714 0)
(10.0686 -0.00480743 0)
(10.0844 -0.00468138 0)
(10.0991 -0.00449942 0)
(10.1133 -0.00430851 0)
(10.127 -0.00410659 0)
(10.1402 -0.00388489 0)
(10.153 -0.00362784 0)
(10.1654 -0.0033045 0)
(10.1774 -0.00285638 0)
(10.1892 -0.00220428 0)
(10.2009 -0.00120066 0)
(10.2126 0.000277295 0)
(10.2248 0.00252857 0)
(10.2377 0.00539102 0)
(10.2532 0.00898268 0)
(9.99259 -0.00217924 0)
(10.0083 -0.00520757 0)
(10.0264 -0.00616963 0)
(10.0396 -0.0064331 0)
(10.0532 -0.00668682 0)
(10.069 -0.0067368 0)
(10.0848 -0.00656239 0)
(10.0996 -0.00631289 0)
(10.1137 -0.0060552 0)
(10.1274 -0.0057896 0)
(10.1407 -0.00550886 0)
(10.1534 -0.00519979 0)
(10.1658 -0.00483277 0)
(10.1779 -0.00435036 0)
(10.1898 -0.00367459 0)
(10.2015 -0.0026658 0)
(10.2133 -0.00120743 0)
(10.2255 0.000960888 0)
(10.2385 0.00367126 0)
(10.254 0.006915 0)
(9.99264 -0.0028383 0)
(10.0086 -0.00673668 0)
(10.0269 -0.00794606 0)
(10.0401 -0.00828039 0)
(10.0538 -0.00860671 0)
(10.0696 -0.00866829 0)
(10.0854 -0.00844433 0)
(10.1002 -0.00812683 0)
(10.1143 -0.00780206 0)
(10.128 -0.00747277 0)
(10.1413 -0.00713324 0)
(10.1541 -0.00677271 0)
(10.1664 -0.00636288 0)
(10.1785 -0.00584756 0)
(10.1904 -0.00515009 0)
(10.2022 -0.00413838 0)
(10.2141 -0.00270236 0)
(10.2264 -0.000615771 0)
(10.2394 0.00194771 0)
(10.2548 0.00487681 0)
(9.9927 -0.00352587 0)
(10.009 -0.00829667 0)
(10.0275 -0.00973208 0)
(10.0408 -0.010134 0)
(10.0545 -0.0105323 0)
(10.0703 -0.0106025 0)
(10.0862 -0.0103275 0)
(10.101 -0.00994135 0)
(10.1151 -0.00954908 0)
(10.1288 -0.00915602 0)
(10.142 -0.00875798 0)
(10.1548 -0.00834654 0)
(10.1672 -0.00789484 0)
(10.1794 -0.00734792 0)
(10.1913 -0.00663066 0)
(10.2031 -0.00561812 0)
(10.215 -0.00420676 0)
(10.2274 -0.00220025 0)
(10.2405 0.000222683 0)
(10.2557 0.00286998 0)
(9.99278 -0.00424973 0)
(10.0095 -0.00989457 0)
(10.0283 -0.0115296 0)
(10.0416 -0.0119956 0)
(10.0553 -0.0124648 0)
(10.0712 -0.0125399 0)
(10.0871 -0.0122121 0)
(10.1019 -0.0117566 0)
(10.116 -0.0112963 0)
(10.1297 -0.0108394 0)
(10.143 -0.0103832 0)
(10.1558 -0.00992141 0)
(10.1682 -0.00942878 0)
(10.1803 -0.0088516 0)
(10.1923 -0.00811632 0)
(10.2042 -0.00710482 0)
(10.2162 -0.00571999 0)
(10.2286 -0.00379145 0)
(10.2417 -0.00150175 0)
(10.2568 0.000895949 0)
(9.99288 -0.00501861 0)
(10.01 -0.0115376 0)
(10.0292 -0.0133403 0)
(10.0426 -0.0138667 0)
(10.0564 -0.0144055 0)
(10.0723 -0.0144812 0)
(10.0882 -0.0140985 0)
(10.103 -0.0135728 0)
(10.1171 -0.013044 0)
(10.1308 -0.0125233 0)
(10.1441 -0.0120092 0)
(10.1569 -0.0114977 0)
(10.1694 -0.0109651 0)
(10.1815 -0.0103589 0)
(10.1935 -0.00960726 0)
(10.2054 -0.00859835 0)
(10.2175 -0.00724131 0)
(10.23 -0.00538816 0)
(10.2431 -0.00322343 0)
(10.258 -0.00104392 0)
(9.993 -0.00584232 0)
(10.0107 -0.0132329 0)
(10.0302 -0.0151661 0)
(10.0438 -0.0157489 0)
(10.0575 -0.0163552 0)
(10.0735 -0.0164269 0)
(10.0895 -0.0159874 0)
(10.1043 -0.0153905 0)
(10.1185 -0.0147927 0)
(10.1322 -0.0142082 0)
(10.1455 -0.0136368 0)
(10.1583 -0.0130764 0)
(10.1707 -0.0125046 0)
(10.1829 -0.0118705 0)
(10.195 -0.0111036 0)
(10.207 -0.0100983 0)
(10.219 -0.00876959 0)
(10.2315 -0.00698854 0)
(10.2447 -0.00493953 0)
(10.2594 -0.00294771 0)
(9.99314 -0.00673194 0)
(10.0115 -0.0149875 0)
(10.0315 -0.0170092 0)
(10.0451 -0.0176451 0)
(10.0589 -0.0183151 0)
(10.075 -0.0183777 0)
(10.091 -0.0178797 0)
(10.1059 -0.017211 0)
(10.12 -0.016544 0)
(10.1338 -0.015896 0)
(10.1471 -0.0152676 0)
(10.1599 -0.0146586 0)
(10.1724 -0.0140483 0)
(10.1847 -0.0133866 0)
(10.1967 -0.0126051 0)
(10.2087 -0.0116034 0)
(10.2209 -0.0103024 0)
(10.2334 -0.00858914 0)
(10.2464 -0.00664545 0)
(10.2609 -0.00481188 0)
(9.99332 -0.00770042 0)
(10.0125 -0.0168063 0)
(10.0329 -0.0188708 0)
(10.0466 -0.0195594 0)
(10.0605 -0.0202883 0)
(10.0767 -0.0203358 0)
(10.0928 -0.0197778 0)
(10.1077 -0.019037 0)
(10.1219 -0.0183006 0)
(10.1357 -0.0175892 0)
(10.1491 -0.0169039 0)
(10.162 -0.0162461 0)
(10.1745 -0.0155965 0)
(10.1868 -0.0149066 0)
(10.1988 -0.0141093 0)
(10.2108 -0.01311 0)
(10.2229 -0.0118342 0)
(10.2353 -0.0101832 0)
(10.2483 -0.00833297 0)
(10.2624 -0.00662946 0)
(9.99353 -0.0087656 0)
(10.0136 -0.0186912 0)
(10.0346 -0.0207446 0)
(10.0484 -0.0214944 0)
(10.0623 -0.0222804 0)
(10.0787 -0.0223068 0)
(10.0949 -0.0216871 0)
(10.1099 -0.0208738 0)
(10.1243 -0.0200675 0)
(10.1382 -0.0192918 0)
(10.1516 -0.0185479 0)
(10.1646 -0.017839 0)
(10.1771 -0.0171474 0)
(10.1893 -0.0164261 0)
(10.2013 -0.0156097 0)
(10.2132 -0.0146088 0)
(10.2251 -0.0133537 0)
(10.2373 -0.0117575 0)
(10.2499 -0.00998697 0)
(10.2636 -0.00838687 0)
(9.99379 -0.00995623 0)
(10.0149 -0.0206597 0)
(10.0365 -0.0226155 0)
(10.0505 -0.0234391 0)
(10.0646 -0.0242948 0)
(10.0811 -0.0243016 0)
(10.0976 -0.0236186 0)
(10.1129 -0.0227303 0)
(10.1274 -0.0218511 0)
(10.1414 -0.0210068 0)
(10.1549 -0.020199 0)
(10.1678 -0.0194327 0)
(10.1802 -0.0186923 0)
(10.1923 -0.0179323 0)
(10.204 -0.0170896 0)
(10.2155 -0.0160796 0)
(10.227 -0.014837 0)
(10.2387 -0.0132856 0)
(10.2507 -0.0115787 0)
(10.2636 -0.0100571 0)
(9.9941 -0.011299 0)
(10.0164 -0.0228002 0)
(10.0388 -0.0245179 0)
(10.053 -0.0253754 0)
(10.0675 -0.026316 0)
(10.0845 -0.0263229 0)
(10.1014 -0.0255816 0)
(10.117 -0.0246129 0)
(10.1316 -0.0236517 0)
(10.1457 -0.0227279 0)
(10.1591 -0.0218438 0)
(10.1718 -0.0210071 0)
(10.1838 -0.0202045 0)
(10.1953 -0.0193927 0)
(10.2063 -0.0185106 0)
(10.217 -0.0174787 0)
(10.2276 -0.0162355 0)
(10.2382 -0.014715 0)
(10.249 -0.0130522 0)
(10.2604 -0.0115854 0)
(9.99449 -0.0127146 0)
(10.0183 -0.0252997 0)
(10.0418 -0.0267809 0)
(10.0567 -0.0274954 0)
(10.0719 -0.0284142 0)
(10.0898 -0.0283981 0)
(10.1072 -0.0275888 0)
(10.123 -0.0265208 0)
(10.1377 -0.0254531 0)
(10.1515 -0.0244243 0)
(10.1643 -0.0234389 0)
(10.1761 -0.0225076 0)
(10.1869 -0.0216197 0)
(10.197 -0.0207337 0)
(10.2064 -0.0197907 0)
(10.2152 -0.0187164 0)
(10.2237 -0.017452 0)
(10.2319 -0.0159428 0)
(10.2402 -0.0142998 0)
(10.2489 -0.0128666 0)
(9.99495 -0.0137156 0)
(10.021 -0.0275093 0)
(10.0467 -0.0295127 0)
(10.0632 -0.0300872 0)
(10.0799 -0.0307185 0)
(10.0988 -0.0305231 0)
(10.1167 -0.0295833 0)
(10.1323 -0.0283785 0)
(10.1461 -0.0271665 0)
(10.1584 -0.0259918 0)
(10.1691 -0.0248645 0)
(10.1782 -0.0238003 0)
(10.1859 -0.0227914 0)
(10.1923 -0.0217977 0)
(10.1975 -0.0207615 0)
(10.2017 -0.0196135 0)
(10.205 -0.0182969 0)
(10.2078 -0.0167699 0)
(10.2103 -0.0151168 0)
(10.213 -0.0137076 0)
(9.99586 -0.0146599 0)
(10.0268 -0.0283352 0)
(10.0574 -0.0331634 0)
(10.0776 -0.0348879 0)
(10.0965 -0.0349705 0)
(10.1159 -0.0339017 0)
(10.1326 -0.0322632 0)
(10.1453 -0.030544 0)
(10.1546 -0.0289367 0)
(10.1609 -0.0274363 0)
(10.1642 -0.0260245 0)
(10.1647 -0.0247057 0)
(10.1625 -0.0234667 0)
(10.1579 -0.0222641 0)
(10.151 -0.021039 0)
(10.1422 -0.0197273 0)
(10.1318 -0.0182782 0)
(10.1204 -0.0166692 0)
(10.1084 -0.0149571 0)
(10.0968 -0.0135552 0)
(10.0008 -0.0167198 0)
(10.0475 -0.00877051 0)
(10.0899 -0.010806 0)
(10.1155 -0.0201596 0)
(10.1333 -0.0272626 0)
(10.1453 -0.0303766 0)
(10.1487 -0.0308224 0)
(10.1431 -0.0299609 0)
(10.1299 -0.0285508 0)
(10.1102 -0.0269069 0)
(10.0848 -0.0251728 0)
(10.0543 -0.0234424 0)
(10.0196 -0.0217626 0)
(9.98162 -0.0201355 0)
(9.94123 -0.0185378 0)
(9.89947 -0.0169368 0)
(9.85742 -0.0153144 0)
(9.81649 -0.0136791 0)
(9.77794 -0.0120717 0)
(9.74395 -0.0108582 0)
(10.0467 -0.103825 0)
(10.1447 -0.133194 0)
(10.1813 -0.101891 0)
(10.1677 -0.0744834 0)
(10.1252 -0.056526 0)
(10.0625 -0.0444741 0)
(9.98289 -0.0359731 0)
(9.8913 -0.0297508 0)
(9.79344 -0.0250581 0)
(9.69366 -0.0214158 0)
(9.59481 -0.0185039 0)
(9.49899 -0.016123 0)
(9.40778 -0.014136 0)
(9.3223 -0.0124344 0)
(9.24325 -0.0109319 0)
(9.17108 -0.00955865 0)
(9.10608 -0.00830296 0)
(9.04933 -0.00724503 0)
(9.00168 -0.00645584 0)
(8.96472 -0.00599593 0)
(9.83608 0.186686 0)
(9.53424 0.132251 0)
(9.23017 0.066261 0)
(8.93589 0.0261845 0)
(8.67398 0.0054293 0)
(8.45112 -0.00385469 0)
(8.26402 -0.00704333 0)
(8.10823 -0.00725035 0)
(7.97981 -0.00618366 0)
(7.87435 -0.00475573 0)
(7.78732 -0.00340509 0)
(7.71479 -0.00231448 0)
(7.65359 -0.00152544 0)
(7.60126 -0.0010028 0)
(7.55597 -0.000678917 0)
(7.51648 -0.000475192 0)
(7.48206 -0.000354016 0)
(7.45126 -0.000383701 0)
(7.42201 -0.000611219 0)
(7.39233 -0.000962633 0)
(6.94737 -0.174446 0)
(6.5826 -0.206182 0)
(6.23038 -0.195816 0)
(5.97337 -0.181981 0)
(5.82254 -0.164133 0)
(5.76635 -0.139038 0)
(5.78274 -0.109535 0)
(5.84782 -0.0809024 0)
(5.94254 -0.058689 0)
(6.0535 -0.047564 0)
(6.171 -0.0505714 0)
(6.2876 -0.0689965 0)
(6.39775 -0.102584 0)
(6.49754 -0.149873 0)
(6.58465 -0.208587 0)
(6.65801 -0.27604 0)
(6.71765 -0.349464 0)
(6.7644 -0.426267 0)
(6.79963 -0.504187 0)
(6.82503 -0.581378 0)
(6.84237 -0.656429 0)
(6.85336 -0.72834 0)
(6.8595 -0.796462 0)
(6.86205 -0.860428 0)
(6.86195 -0.920079 0)
(6.85989 -0.975403 0)
(6.85629 -1.02649 0)
(6.85141 -1.07351 0)
(6.84537 -1.11665 0)
(6.83824 -1.15615 0)
(6.83004 -1.19226 0)
(6.82078 -1.22522 0)
(6.8105 -1.25526 0)
(6.79925 -1.28261 0)
(6.78707 -1.30744 0)
(6.77408 -1.32992 0)
(6.76036 -1.35018 0)
(6.74604 -1.36833 0)
(6.73126 -1.38445 0)
(6.71615 -1.39859 0)
(6.70085 -1.41082 0)
(6.68551 -1.42115 0)
(6.67026 -1.42963 0)
(6.65523 -1.43627 0)
(6.64055 -1.44111 0)
(6.62632 -1.44419 0)
(6.61264 -1.44554 0)
(6.59959 -1.44523 0)
(6.58724 -1.44331 0)
(6.57564 -1.43984 0)
(6.56483 -1.43491 0)
(6.55483 -1.4286 0)
(6.54565 -1.42099 0)
(6.5373 -1.41217 0)
(6.52976 -1.40222 0)
(6.52302 -1.39122 0)
(6.51704 -1.37926 0)
(6.51179 -1.3664 0)
(6.50724 -1.35273 0)
(6.50334 -1.33829 0)
(6.50006 -1.32316 0)
(6.49736 -1.30737 0)
(6.49519 -1.29099 0)
(6.4935 -1.27404 0)
(6.49227 -1.25656 0)
(6.49144 -1.23858 0)
(6.49097 -1.22012 0)
(6.49082 -1.20119 0)
(6.49095 -1.18182 0)
(6.49131 -1.16201 0)
(6.49186 -1.14175 0)
(6.49254 -1.12106 0)
(6.49331 -1.09993 0)
(6.49412 -1.07836 0)
(6.49492 -1.05633 0)
(6.49567 -1.03386 0)
(6.49634 -1.01092 0)
(6.4969 -0.987529 0)
(6.49734 -0.96369 0)
(6.49768 -0.939414 0)
(6.49791 -0.914715 0)
(6.49804 -0.889603 0)
(6.49803 -0.86408 0)
(6.4978 -0.838136 0)
(6.49718 -0.811745 0)
(6.49596 -0.784871 0)
(6.49389 -0.757471 0)
(6.49066 -0.729504 0)
(6.48599 -0.700938 0)
(6.47961 -0.67176 0)
(6.47132 -0.641976 0)
(6.46099 -0.611615 0)
(6.44854 -0.580728 0)
(6.43399 -0.54938 0)
(6.41741 -0.517651 0)
(6.39893 -0.485628 0)
(6.37871 -0.453401 0)
(6.35696 -0.421059 0)
(6.33388 -0.388691 0)
(6.30969 -0.356379 0)
(6.2846 -0.324198 0)
(6.25881 -0.292218 0)
(6.23249 -0.260499 0)
(6.20581 -0.229095 0)
(6.1789 -0.198052 0)
(6.15186 -0.167409 0)
(6.12475 -0.137194 0)
(6.0976 -0.107417 0)
(6.07039 -0.0780745 0)
(6.04306 -0.0491608 0)
(6.01559 -0.0206914 0)
(5.98801 0.00727132 0)
(5.96046 0.03461 0)
(5.93317 0.0611654 0)
(5.90639 0.0867658 0)
(5.88037 0.111257 0)
(5.8553 0.134523 0)
(5.83129 0.156492 0)
(5.80838 0.177128 0)
(5.78651 0.196422 0)
(5.76563 0.214378 0)
(5.74561 0.231006 0)
(5.72635 0.246312 0)
(5.70773 0.260301 0)
(5.68962 0.272972 0)
(5.67193 0.284323 0)
(5.65454 0.294346 0)
(5.63737 0.303037 0)
(5.62035 0.31039 0)
(5.60339 0.316402 0)
(5.58643 0.321073 0)
(5.56942 0.324404 0)
(5.55232 0.326402 0)
(5.53508 0.327074 0)
(5.51767 0.326436 0)
(5.50006 0.324504 0)
(5.48224 0.321308 0)
(5.46421 0.316888 0)
(5.44602 0.311307 0)
(5.42774 0.304657 0)
(5.4095 0.297069 0)
(5.39143 0.288704 0)
(5.37372 0.279756 0)
(5.35654 0.270434 0)
(5.34004 0.260955 0)
(5.32434 0.251532 0)
(5.30952 0.242371 0)
(5.29566 0.233661 0)
(5.28276 0.225578 0)
(5.27083 0.21828 0)
(5.25985 0.211915 0)
(5.2498 0.206617 0)
(5.24062 0.202508 0)
(5.23228 0.199706 0)
(5.22473 0.19832 0)
(5.21792 0.198455 0)
(5.21181 0.200217 0)
(5.20634 0.203707 0)
(5.20149 0.20903 0)
(5.19722 0.216292 0)
(5.1935 0.225605 0)
(5.19031 0.237085 0)
(5.18761 0.250854 0)
(5.1854 0.267042 0)
(5.18367 0.285791 0)
(5.18241 0.307253 0)
(5.18162 0.331591 0)
(5.18131 0.358985 0)
(5.18148 0.389632 0)
(5.18213 0.423747 0)
(5.18329 0.461567 0)
(5.18497 0.503356 0)
(5.18719 0.549403 0)
(5.18995 0.60003 0)
(5.19328 0.655596 0)
(5.19717 0.716501 0)
(5.20164 0.783192 0)
(5.20667 0.856174 0)
(5.21224 0.936015 0)
(5.2183 1.02336 0)
(5.2248 1.11895 0)
(5.23164 1.22363 0)
(5.23869 1.33839 0)
(5.24576 1.46438 0)
(5.25261 1.60297 0)
(5.25892 1.75581 0)
(5.26427 1.92489 0)
(5.26812 2.11267 0)
(5.26975 2.32225 0)
(5.26822 2.55757 0)
(5.26233 2.82376 0)
(5.25024 3.12773 0)
(5.23015 3.47862 0)
(5.19711 3.89016 0)
(5.15145 4.37933 0)
(5.06891 4.98195 0)
(4.98984 5.72217 0)
(4.71056 6.75098 0)
(4.785 7.90212 0)
(3.36298 10.5694 0)
(8.86149 -0.00780285 0)
(8.73782 0.012753 0)
(8.55138 0.019132 0)
(8.30845 0.00102646 0)
(8.02931 -0.0242852 0)
(7.75538 -0.0452209 0)
(7.52607 -0.0577236 0)
(7.36034 -0.0623111 0)
(7.25778 -0.063318 0)
(7.20758 -0.0667875 0)
(7.19582 -0.0778924 0)
(7.20918 -0.0997456 0)
(7.23667 -0.133457 0)
(7.27001 -0.178629 0)
(7.30342 -0.233852 0)
(7.33323 -0.297133 0)
(7.35738 -0.366227 0)
(7.37503 -0.438902 0)
(7.38615 -0.513118 0)
(7.39121 -0.587142 0)
(7.39101 -0.659591 0)
(7.3864 -0.729431 0)
(7.37823 -0.795943 0)
(7.36721 -0.858666 0)
(7.3539 -0.917347 0)
(7.33872 -0.971891 0)
(7.32195 -1.02232 0)
(7.3038 -1.06876 0)
(7.28442 -1.11138 0)
(7.26393 -1.15039 0)
(7.24246 -1.18605 0)
(7.22012 -1.21859 0)
(7.19704 -1.24826 0)
(7.17334 -1.27527 0)
(7.14913 -1.29981 0)
(7.12456 -1.32205 0)
(7.09974 -1.34213 0)
(7.07479 -1.36015 0)
(7.04984 -1.3762 0)
(7.025 -1.39032 0)
(7.00038 -1.40258 0)
(6.97609 -1.413 0)
(6.95223 -1.42161 0)
(6.92887 -1.42843 0)
(6.90612 -1.43348 0)
(6.88405 -1.43681 0)
(6.86272 -1.43845 0)
(6.84218 -1.43844 0)
(6.8225 -1.43685 0)
(6.8037 -1.43373 0)
(6.78581 -1.42916 0)
(6.76884 -1.42321 0)
(6.7528 -1.41596 0)
(6.73769 -1.4075 0)
(6.72349 -1.3979 0)
(6.71019 -1.38725 0)
(6.69776 -1.37561 0)
(6.68617 -1.36308 0)
(6.67538 -1.3497 0)
(6.66537 -1.33556 0)
(6.6561 -1.32069 0)
(6.64752 -1.30517 0)
(6.63961 -1.28902 0)
(6.63231 -1.27229 0)
(6.6256 -1.25501 0)
(6.61943 -1.23722 0)
(6.61376 -1.21893 0)
(6.60853 -1.20015 0)
(6.60372 -1.18091 0)
(6.59927 -1.16121 0)
(6.59513 -1.14105 0)
(6.59125 -1.12043 0)
(6.58759 -1.09935 0)
(6.58409 -1.07781 0)
(6.58072 -1.0558 0)
(6.57743 -1.03332 0)
(6.57421 -1.01038 0)
(6.57106 -0.986972 0)
(6.56799 -0.963124 0)
(6.565 -0.938844 0)
(6.56208 -0.914139 0)
(6.55918 -0.889005 0)
(6.55618 -0.86342 0)
(6.55286 -0.837342 0)
(6.54896 -0.810718 0)
(6.54415 -0.783487 0)
(6.53807 -0.755595 0)
(6.53039 -0.727002 0)
(6.52082 -0.697693 0)
(6.50916 -0.66768 0)
(6.49528 -0.637003 0)
(6.47916 -0.605726 0)
(6.46085 -0.573933 0)
(6.44046 -0.54172 0)
(6.4182 -0.509189 0)
(6.39426 -0.476445 0)
(6.36889 -0.443587 0)
(6.34233 -0.410713 0)
(6.31483 -0.377909 0)
(6.28662 -0.345255 0)
(6.2579 -0.312819 0)
(6.22886 -0.280662 0)
(6.19966 -0.248833 0)
(6.17043 -0.217373 0)
(6.14125 -0.186318 0)
(6.11221 -0.15569 0)
(6.08331 -0.125498 0)
(6.05454 -0.0957349 0)
(6.02584 -0.066385 0)
(5.99715 -0.0374476 0)
(5.96849 -0.00896578 0)
(5.93998 0.0189575 0)
(5.91183 0.0461664 0)
(5.88432 0.0724813 0)
(5.85771 0.0977336 0)
(5.83224 0.121793 0)
(5.80801 0.144576 0)
(5.78509 0.166046 0)
(5.76344 0.186196 0)
(5.74298 0.205037 0)
(5.7236 0.222585 0)
(5.70517 0.238855 0)
(5.68756 0.253857 0)
(5.67064 0.267593 0)
(5.6543 0.280059 0)
(5.63841 0.291249 0)
(5.62288 0.301153 0)
(5.60761 0.309762 0)
(5.59252 0.317065 0)
(5.57753 0.323057 0)
(5.56257 0.327733 0)
(5.54758 0.331093 0)
(5.5325 0.33314 0)
(5.51728 0.333879 0)
(5.50188 0.333321 0)
(5.48626 0.331482 0)
(5.4704 0.328382 0)
(5.45429 0.324055 0)
(5.43793 0.318549 0)
(5.42138 0.31194 0)
(5.40471 0.30434 0)
(5.38807 0.295898 0)
(5.37162 0.2868 0)
(5.35553 0.277258 0)
(5.33997 0.267497 0)
(5.32509 0.257743 0)
(5.31101 0.248216 0)
(5.29779 0.239119 0)
(5.28549 0.230639 0)
(5.27412 0.222946 0)
(5.26368 0.216194 0)
(5.25415 0.210521 0)
(5.2455 0.206054 0)
(5.23768 0.202912 0)
(5.23066 0.201205 0)
(5.22439 0.201037 0)
(5.21883 0.202513 0)
(5.21395 0.205734 0)
(5.20971 0.210802 0)
(5.20608 0.217823 0)
(5.20303 0.226904 0)
(5.20055 0.23816 0)
(5.19862 0.251712 0)
(5.19723 0.267687 0)
(5.19638 0.286225 0)
(5.19607 0.307475 0)
(5.19631 0.331599 0)
(5.19711 0.358776 0)
(5.19848 0.3892 0)
(5.20044 0.423084 0)
(5.20303 0.460667 0)
(5.20626 0.502208 0)
(5.21017 0.547998 0)
(5.21478 0.59836 0)
(5.22012 0.653653 0)
(5.22623 0.714278 0)
(5.23312 0.780687 0)
(5.2408 0.853387 0)
(5.2493 0.932953 0)
(5.25859 1.02004 0)
(5.26866 1.11539 0)
(5.27947 1.21987 0)
(5.29093 1.33448 0)
(5.30296 1.46039 0)
(5.3154 1.599 0)
(5.32807 1.75198 0)
(5.34071 1.92136 0)
(5.353 2.10966 0)
(5.36453 2.32002 0)
(5.37475 2.55649 0)
(5.38309 2.82429 0)
(5.38851 3.1305 0)
(5.39062 3.4845 0)
(5.38615 3.90036 0)
(5.38012 4.39576 0)
(5.3507 5.00708 0)
(5.36539 5.7635 0)
(5.21411 6.8103 0)
(5.61166 8.02037 0)
(4.88351 10.6332 0)
(9.64731 0.0222384 0)
(9.59982 0.0299467 0)
(9.54244 0.04344 0)
(9.46744 0.0524605 0)
(9.35132 0.0555531 0)
(9.18812 0.0518042 0)
(8.99378 0.0401667 0)
(8.79365 0.0223239 0)
(8.6108 0.000986036 0)
(8.45918 -0.0229577 0)
(8.34245 -0.050857 0)
(8.25706 -0.0848835 0)
(8.19642 -0.126646 0)
(8.15354 -0.176631 0)
(8.12235 -0.234257 0)
(8.09799 -0.298224 0)
(8.07688 -0.366852 0)
(8.05655 -0.438365 0)
(8.03546 -0.511086 0)
(8.0128 -0.583543 0)
(7.98826 -0.654521 0)
(7.96185 -0.723071 0)
(7.93372 -0.788489 0)
(7.90405 -0.850296 0)
(7.873 -0.908203 0)
(7.84072 -0.962082 0)
(7.80735 -1.01193 0)
(7.77303 -1.05786 0)
(7.7379 -1.10003 0)
(7.7021 -1.13866 0)
(7.66579 -1.174 0)
(7.62913 -1.20629 0)
(7.59226 -1.23577 0)
(7.55531 -1.26264 0)
(7.51843 -1.28711 0)
(7.48173 -1.30933 0)
(7.44532 -1.32944 0)
(7.40928 -1.34754 0)
(7.37372 -1.3637 0)
(7.33871 -1.37798 0)
(7.30431 -1.39043 0)
(7.2706 -1.40108 0)
(7.23763 -1.40995 0)
(7.20546 -1.41706 0)
(7.17415 -1.42243 0)
(7.14374 -1.4261 0)
(7.11426 -1.4281 0)
(7.08577 -1.42847 0)
(7.05829 -1.42727 0)
(7.03184 -1.42455 0)
(7.00644 -1.42039 0)
(6.9821 -1.41485 0)
(6.95881 -1.40801 0)
(6.93658 -1.39996 0)
(6.91538 -1.39076 0)
(6.89521 -1.3805 0)
(6.87604 -1.36924 0)
(6.85784 -1.35708 0)
(6.84059 -1.34406 0)
(6.82425 -1.33025 0)
(6.8088 -1.31572 0)
(6.79419 -1.3005 0)
(6.78038 -1.28465 0)
(6.76735 -1.2682 0)
(6.75506 -1.25119 0)
(6.74344 -1.23364 0)
(6.73248 -1.21557 0)
(6.72211 -1.19701 0)
(6.71229 -1.17796 0)
(6.70298 -1.15842 0)
(6.69411 -1.13841 0)
(6.68565 -1.11792 0)
(6.67753 -1.09695 0)
(6.66972 -1.07549 0)
(6.66218 -1.05356 0)
(6.6549 -1.03114 0)
(6.64787 -1.00826 0)
(6.64112 -0.984928 0)
(6.63465 -0.961156 0)
(6.62844 -0.936947 0)
(6.6224 -0.912288 0)
(6.61636 -0.887141 0)
(6.61008 -0.86145 0)
(6.60319 -0.835139 0)
(6.59531 -0.80813 0)
(6.58602 -0.780354 0)
(6.57496 -0.751765 0)
(6.56181 -0.722348 0)
(6.54638 -0.692124 0)
(6.52858 -0.661147 0)
(6.50842 -0.6295 0)
(6.48602 -0.597285 0)
(6.46156 -0.564618 0)
(6.43528 -0.531618 0)
(6.40743 -0.498401 0)
(6.37829 -0.46508 0)
(6.34815 -0.431757 0)
(6.31726 -0.398524 0)
(6.28586 -0.365463 0)
(6.25418 -0.332642 0)
(6.22238 -0.300117 0)
(6.19064 -0.267937 0)
(6.15905 -0.236136 0)
(6.12771 -0.204744 0)
(6.09668 -0.173781 0)
(6.06598 -0.143254 0)
(6.03558 -0.113153 0)
(6.00542 -0.0834562 0)
(5.97544 -0.0541498 0)
(5.94562 -0.0252566 0)
(5.91606 0.0031388 0)
(5.88696 0.0308895 0)
(5.85859 0.0578115 0)
(5.83126 0.0837224 0)
(5.8052 0.108475 0)
(5.78058 0.131973 0)
(5.75746 0.154172 0)
(5.73582 0.175068 0)
(5.71558 0.194678 0)
(5.69661 0.213026 0)
(5.67878 0.230137 0)
(5.66196 0.246026 0)