/*--------------------------------*- C++ -*----------------------------------*\
| =========                 |                                                 |
| \\      /  F ield         | OpenFOAM: The Open Source CFD Toolbox           |
|  \\    /   O peration     | Version:  2.4.0                                 |
|   \\  /    A nd           | Web:      www.OpenFOAM.org                      |
|    \\/     M anipulation  |                                                 |
\*---------------------------------------------------------------------------*/
FoamFile
{
    version     2.0;
    format      ascii;
    class       volVectorField;
    location    "0.015";
    object      UMean;
}
// * * * * * * * * * * * * * * * * * * * * * * * * * * * * * * * * * * * * * //

dimensions      [0 1 -1 0 0 0 0];

internalField   nonuniform List<vector> 
17600
(
(9.84463 0.110742 0)
(9.16338 0.343309 0)
(8.2362 0.369505 0)
(7.32011 0.291141 0)
(6.51581 0.192757 0)
(5.85923 0.10747 0)
(5.37418 0.0437381 0)
(5.03809 0.00375651 0)
(4.82225 -0.01734 0)
(4.69478 -0.0241796 0)
(4.6274 -0.0231733 0)
(4.59629 -0.0179103 0)
(4.58475 -0.0125635 0)
(4.58468 -0.00744931 0)
(4.5843 -0.00386896 0)
(4.59084 -0.00157231 0)
(4.58502 0.000294832 0)
(4.59734 -0.000613898 0)
(4.58613 0.000470507 0)
(4.60812 4.22793e-05 0)
(4.58806 -0.000130865 0)
(4.617 0.000561448 0)
(4.58744 -0.00153709 0)
(4.62856 0.000162086 0)
(4.58766 -0.00202995 0)
(4.64481 5.27321e-05 0)
(4.5902 -0.00347907 0)
(4.66559 0.000674739 0)
(4.60444 -0.00614489 0)
(4.68787 0.000809168 0)
(4.65048 -0.0092261 0)
(4.7014 0.00171358 0)
(4.76014 -0.0196375 0)
(4.69988 0.0132538 0)
(4.97352 -0.0556131 0)
(4.69969 0.0576653 0)
(5.34227 -0.149177 0)
(4.78296 0.166829 0)
(6.01295 -0.393443 0)
(5.27002 0.10433 0)
(9.91522 0.166353 0)
(10.0507 0.403564 0)
(10.1546 0.519255 0)
(10.1513 0.537563 0)
(10.0432 0.497159 0)
(9.85822 0.425433 0)
(9.64449 0.339581 0)
(9.43316 0.252735 0)
(9.24496 0.175527 0)
(9.08721 0.111708 0)
(8.9661 0.0662821 0)
(8.87361 0.0349634 0)
(8.80583 0.0178882 0)
(8.76377 0.00483475 0)
(8.72321 0.00324853 0)
(8.71946 -0.00229133 0)
(8.67681 0.00138757 0)
(8.71212 -0.00580266 0)
(8.65714 -0.000865039 0)
(8.72535 -0.00643085 0)
(8.65596 0.00180416 0)
(8.73643 -0.00691636 0)
(8.65964 0.00528288 0)
(8.74967 -0.0132524 0)
(8.66132 0.0108164 0)
(8.76809 -0.021058 0)
(8.66834 0.015511 0)
(8.78119 -0.0329835 0)
(8.70069 0.0234771 0)
(8.78823 -0.0560612 0)
(8.76684 0.0367215 0)
(8.80097 -0.0874308 0)
(8.87974 0.0455243 0)
(8.83705 -0.126827 0)
(9.05869 0.0461817 0)
(8.95066 -0.188805 0)
(9.33192 0.0105079 0)
(9.23705 -0.300923 0)
(9.74592 -0.210548 0)
(9.66957 -0.769389 0)
(9.911 0.120614 0)
(10.0287 0.321787 0)
(10.2233 0.44446 0)
(10.4271 0.483269 0)
(10.5877 0.460663 0)
(10.6832 0.404868 0)
(10.7241 0.333131 0)
(10.7217 0.261935 0)
(10.6974 0.19507 0)
(10.6564 0.141456 0)
(10.6187 0.0942368 0)
(10.5792 0.0675398 0)
(10.5453 0.0404399 0)
(10.5229 0.0325171 0)
(10.4905 0.0163907 0)
(10.493 0.0191182 0)
(10.4494 0.00670393 0)
(10.4796 0.00503447 0)
(10.4306 -0.0040973 0)
(10.4756 -0.00113677 0)
(10.4328 -0.00636714 0)
(10.4718 0.000682682 0)
(10.438 -0.0109221 0)
(10.4801 0.000716637 0)
(10.4383 -0.0133343 0)
(10.4948 0.00100315 0)
(10.4461 -0.0193091 0)
(10.5026 0.00150023 0)
(10.4702 -0.0301919 0)
(10.5169 -0.00365702 0)
(10.5047 -0.0441359 0)
(10.5527 -0.0140185 0)
(10.5652 -0.0745331 0)
(10.6167 -0.0310673 0)
(10.673 -0.123533 0)
(10.7444 -0.0852214 0)
(10.8553 -0.227591 0)
(10.971 -0.263548 0)
(11.1132 -0.545478 0)
(11.1027 -0.897965 0)
(9.91124 0.0929115 0)
(10.0069 0.249892 0)
(10.169 0.354195 0)
(10.3585 0.391742 0)
(10.5362 0.377905 0)
(10.6804 0.333887 0)
(10.7862 0.281037 0)
(10.8572 0.225279 0)
(10.9001 0.179979 0)
(10.9212 0.13262 0)
(10.9326 0.10106 0)
(10.933 0.0662629 0)
(10.9336 0.0529929 0)
(10.9273 0.0278552 0)
(10.9249 0.0315223 0)
(10.9187 0.0107176 0)
(10.9092 0.0251306 0)
(10.9083 -0.00917041 0)
(10.8992 0.0163303 0)
(10.9025 -0.0206398 0)
(10.8973 0.0170495 0)
(10.8907 -0.0221829 0)
(10.8957 0.015345 0)
(10.8865 -0.0282495 0)
(10.8901 0.0193589 0)
(10.8914 -0.0375552 0)
(10.888 0.0199927 0)
(10.8939 -0.0467924 0)
(10.9018 0.0125334 0)
(10.9029 -0.0637222 0)
(10.9225 0.00347094 0)
(10.9356 -0.0918838 0)
(10.9619 -0.022735 0)
(10.9887 -0.133321 0)
(11.0433 -0.074472 0)
(11.0851 -0.223717 0)
(11.1655 -0.203488 0)
(11.2242 -0.450675 0)
(11.285 -0.597707 0)
(11.188 -1.0846 0)
(9.91124 0.070944 0)
(9.99237 0.192082 0)
(10.1306 0.276903 0)
(10.2945 0.313962 0)
(10.4582 0.307593 0)
(10.5965 0.276709 0)
(10.7098 0.232708 0)
(10.7888 0.192254 0)
(10.8494 0.15 0)
(10.8805 0.1195 0)
(10.9117 0.0828253 0)
(10.9199 0.0665888 0)
(10.9383 0.0384721 0)
(10.9356 0.0338602 0)
(10.95 0.0182162 0)
(10.9391 0.0217704 0)
(10.9457 0.0129396 0)
(10.9326 0.00608202 0)
(10.9423 0.00231708 0)
(10.9309 -0.000832563 0)
(10.9393 -0.000536956 0)
(10.9215 0.000210217 0)
(10.9332 -0.00456478 0)
(10.9164 -0.00448712 0)
(10.9271 -0.00233976 0)
(10.9189 -0.0120708 0)
(10.9223 -0.00478326 0)
(10.922 -0.0187969 0)
(10.932 -0.0190577 0)
(10.9294 -0.0307589 0)
(10.9493 -0.0393887 0)
(10.9586 -0.0563173 0)
(10.9789 -0.0770665 0)
(11.0054 -0.102216 0)
(11.0433 -0.146028 0)
(11.0778 -0.208075 0)
(11.1212 -0.296536 0)
(11.1451 -0.44689 0)
(11.1172 -0.64519 0)
(11.016 -0.957475 0)
(9.91108 0.0534142 0)
(9.98268 0.145573 0)
(10.1042 0.213259 0)
(10.2505 0.246584 0)
(10.3993 0.248517 0)
(10.5318 0.225062 0)
(10.6411 0.194604 0)
(10.7249 0.156884 0)
(10.7854 0.129818 0)
(10.8249 0.0948982 0)
(10.8571 0.0786841 0)
(10.8743 0.0495443 0)
(10.8938 0.0445963 0)
(10.8996 0.0198659 0)
(10.9164 0.0275604 0)
(10.9112 0.0114275 0)
(10.9154 0.0213932 0)
(10.909 0.000654796 0)
(10.9165 0.00802957 0)
(10.9148 -0.00275266 0)
(10.9176 0.00329776 0)
(10.9081 -0.000415866 0)
(10.9145 -0.00208163 0)
(10.9074 -0.00413199 0)
(10.9122 -0.00308016 0)
(10.9136 -0.00999752 0)
(10.912 -0.0105878 0)
(10.917 -0.0152014 0)
(10.9248 -0.029918 0)
(10.924 -0.0259727 0)
(10.9402 -0.0572772 0)
(10.95 -0.0508109 0)
(10.9643 -0.104276 0)
(10.9873 -0.100279 0)
(11.0134 -0.190006 0)
(11.0379 -0.210397 0)
(11.0614 -0.361035 0)
(11.0706 -0.42916 0)
(11.035 -0.667093 0)
(10.8774 -0.792931 0)
(9.91107 0.0388965 0)
(9.97591 0.107231 0)
(10.0868 0.158323 0)
(10.2198 0.186665 0)
(10.3581 0.190629 0)
(10.483 0.176363 0)
(10.5911 0.150815 0)
(10.6747 0.125623 0)
(10.7388 0.0986924 0)
(10.7805 0.0790649 0)
(10.8164 0.0574413 0)
(10.8377 0.0464303 0)
(10.8579 0.0303863 0)
(10.8709 0.0226344 0)
(10.8876 0.0168827 0)
(10.8883 0.0139282 0)
(10.8905 0.0145989 0)
(10.8859 0.00308928 0)
(10.8985 0.00535522 0)
(10.8953 -0.00185973 0)
(10.9046 0.00361751 0)
(10.8918 -0.0025513 0)
(10.9025 0.00166868 0)
(10.8951 -0.00989906 0)
(10.9045 0.00296481 0)
(10.9014 -0.0181833 0)
(10.9084 -0.00368498 0)
(10.9051 -0.0265968 0)
(10.9214 -0.0199312 0)
(10.9123 -0.0453257 0)
(10.935 -0.0406347 0)
(10.9335 -0.0836643 0)
(10.9541 -0.0822131 0)
(10.9609 -0.148814 0)
(10.9886 -0.168129 0)
(10.9907 -0.273368 0)
(11.0122 -0.332443 0)
(10.9887 -0.497711 0)
(10.9362 -0.629821 0)
(10.7133 -0.899336 0)
(9.91101 0.0265982 0)
(9.97159 0.073533 0)
(10.075 0.109724 0)
(10.1996 0.130191 0)
(10.3291 0.135348 0)
(10.4491 0.124705 0)
(10.5544 0.108898 0)
(10.6399 0.0881594 0)
(10.7044 0.073066 0)
(10.7496 0.0534123 0)
(10.7875 0.0450049 0)
(10.8113 0.0304075 0)
(10.8337 0.0263131 0)
(10.8483 0.0139557 0)
(10.8695 0.0136291 0)
(10.8707 0.0105267 0)
(10.8736 0.00903034 0)
(10.8703 0.00593101 0)
(10.8835 -0.00060315 0)
(10.8852 0.00300515 0)
(10.892 -0.00214275 0)
(10.8829 0.00092548 0)
(10.8916 -0.00334146 0)
(10.8888 -0.00582828 0)
(10.896 -0.00492698 0)
(10.8968 -0.011436 0)
(10.902 -0.0147034 0)
(10.9003 -0.01781 0)
(10.9145 -0.0326069 0)
(10.9076 -0.0357249 0)
(10.9232 -0.0563219 0)
(10.9246 -0.0733822 0)
(10.935 -0.103065 0)
(10.9401 -0.139548 0)
(10.9552 -0.195861 0)
(10.9511 -0.264047 0)
(10.9531 -0.362303 0)
(10.917 -0.485253 0)
(10.8368 -0.642608 0)
(10.6133 -0.83798 0)
(9.91099 0.0154809 0)
(9.96892 0.0430742 0)
(10.0679 0.0644142 0)
(10.1869 0.0770837 0)
(10.311 0.080299 0)
(10.427 0.0750567 0)
(10.5313 0.0646705 0)
(10.6169 0.0536347 0)
(10.6824 0.0425119 0)
(10.7297 0.0334466 0)
(10.7689 0.0258295 0)
(10.7954 0.0203525 0)
(10.8167 0.0151096 0)
(10.8354 0.00913104 0)
(10.8563 0.00821683 0)
(10.8607 0.0052798 0)
(10.8625 0.00698732 0)
(10.8596 0.00125201 0)
(10.8752 0.001511 0)
(10.8769 -0.0012257 0)
(10.8849 -0.000261241 0)
(10.8773 -0.00307377 0)
(10.8837 -0.00130064 0)
(10.8846 -0.00928778 0)
(10.8903 -0.00362576 0)
(10.8912 -0.0151634 0)
(10.8975 -0.0139269 0)
(10.8944 -0.0235389 0)
(10.9075 -0.0304686 0)
(10.9009 -0.0452033 0)
(10.9127 -0.0543453 0)
(10.9119 -0.084838 0)
(10.9182 -0.104472 0)
(10.9167 -0.150711 0)
(10.9239 -0.200238 0)
(10.9096 -0.274781 0)
(10.8992 -0.365164 0)
(10.8498 -0.485027 0)
(10.757 -0.621792 0)
(10.5369 -0.771141 0)
(9.91097 0.00509777 0)
(9.9677 0.0141465 0)
(10.0644 0.0213125 0)
(10.1809 0.0253105 0)
(10.3022 0.026847 0)
(10.4164 0.0247627 0)
(10.5195 0.0219644 0)
(10.6057 0.0171099 0)
(10.6716 0.0147455 0)
(10.72 0.010342 0)
(10.7601 0.00946575 0)
(10.7869 0.00616126 0)
(10.8091 0.00516809 0)
(10.8279 0.00304153 0)
(10.8506 0.00140128 0)
(10.8553 0.00270061 0)
(10.8569 -0.000310528 0)
(10.855 0.00145435 0)
(10.8698 -0.00257952 0)
(10.874 -0.00124544 0)
(10.8805 -0.0023504 0)
(10.8742 -0.00492181 0)
(10.88 -0.00330303 0)
(10.8817 -0.00939077 0)
(10.8872 -0.00769898 0)
(10.8879 -0.0138873 0)
(10.8942 -0.0173267 0)
(10.8902 -0.0234825 0)
(10.9016 -0.0309072 0)
(10.8951 -0.0463689 0)
(10.9022 -0.0535717 0)
(10.8997 -0.0857537 0)
(10.9013 -0.103288 0)
(10.8926 -0.152114 0)
(10.8926 -0.197082 0)
(10.8691 -0.274549 0)
(10.8472 -0.356844 0)
(10.789 -0.474563 0)
(10.6922 -0.589424 0)
(10.4774 -0.705999 0)
(9.91097 -0.00508733 0)
(9.96769 -0.0142274 0)
(10.0644 -0.0212428 0)
(10.1809 -0.0254988 0)
(10.3022 -0.0266685 0)
(10.4164 -0.0251728 0)
(10.5195 -0.0216154 0)
(10.6057 -0.0178575 0)
(10.6715 -0.0142106 0)
(10.7201 -0.0114822 0)
(10.7598 -0.00899228 0)
(10.7871 -0.00748821 0)
(10.8087 -0.00532198 0)
(10.8282 -0.00412527 0)
(10.8504 -0.00303429 0)
(10.8552 -0.00344197 0)
(10.8569 -0.00333142 0)
(10.8545 -0.00249376 0)
(10.8696 -0.00288881 0)
(10.8739 -0.00295485 0)
(10.8793 -0.00381761 0)
(10.8745 -0.00610315 0)
(10.8784 -0.00468729 0)
(10.8807 -0.01047 0)
(10.886 -0.00931613 0)
(10.8854 -0.0153941 0)
(10.8914 -0.019146 0)
(10.8873 -0.0255703 0)
(10.8952 -0.0320469 0)
(10.8897 -0.0491067 0)
(10.8925 -0.0546696 0)
(10.8873 -0.0869974 0)
(10.8845 -0.104444 0)
(10.8701 -0.150524 0)
(10.8624 -0.193508 0)
(10.8299 -0.267733 0)
(10.7986 -0.344991 0)
(10.7335 -0.455747 0)
(10.6401 -0.564903 0)
(10.4372 -0.65191 0)
(9.91097 -0.0154841 0)
(9.96896 -0.0431236 0)
(10.0678 -0.0643972 0)
(10.187 -0.0771777 0)
(10.3109 -0.0802741 0)
(10.4271 -0.0752147 0)
(10.5311 -0.0646818 0)
(10.6171 -0.0538499 0)
(10.6821 -0.0426577 0)
(10.7298 -0.0337262 0)
(10.7686 -0.026212 0)
(10.7953 -0.0208752 0)
(10.8166 -0.0157622 0)
(10.8351 -0.0102216 0)
(10.8561 -0.00909388 0)
(10.8605 -0.00739484 0)
(10.8617 -0.00834715 0)
(10.8597 -0.00471711 0)
(10.8732 -0.00409494 0)
(10.8774 -0.00446083 0)
(10.8818 -0.00462992 0)
(10.8771 -0.00734053 0)
(10.88 -0.00626093 0)
(10.8819 -0.0101794 0)
(10.8862 -0.0113326 0)
(10.8847 -0.0157903 0)
(10.8898 -0.0192494 0)
(10.8849 -0.0268608 0)
(10.89 -0.030691 0)
(10.8845 -0.0492379 0)
(10.8831 -0.0521619 0)
(10.8754 -0.0871417 0)
(10.8692 -0.0960518 0)
(10.8486 -0.151341 0)
(10.8337 -0.173842 0)
(10.7937 -0.265489 0)
(10.7527 -0.305773 0)
(10.6793 -0.448288 0)
(10.5927 -0.511501 0)
(10.4243 -0.666747 0)
(9.911 -0.0265752 0)
(9.97161 -0.0736464 0)
(10.075 -0.10959 0)
(10.1996 -0.130488 0)
(10.3291 -0.134973 0)
(10.4491 -0.125423 0)
(10.5543 -0.108046 0)
(10.6401 -0.0895949 0)
(10.704 -0.0715463 0)
(10.75 -0.0557617 0)
(10.7867 -0.0429878 0)
(10.8121 -0.0333742 0)
(10.8324 -0.0246841 0)
(10.8492 -0.0167549 0)
(10.868 -0.013726 0)
(10.8711 -0.0121717 0)
(10.8722 -0.0118177 0)
(10.8699 -0.00686424 0)
(10.8815 -0.00541225 0)
(10.8848 -0.00502802 0)
(10.8875 -0.00631983 0)
(10.883 -0.00800066 0)
(10.8845 -0.0075734 0)
(10.8851 -0.010381 0)
(10.8883 -0.0128574 0)
(10.886 -0.0157083 0)
(10.8886 -0.0204495 0)
(10.8843 -0.0265701 0)
(10.8851 -0.0311534 0)
(10.8804 -0.0466094 0)
(10.8738 -0.053583 0)
(10.8662 -0.079053 0)
(10.8521 -0.0960782 0)
(10.8318 -0.137266 0)
(10.8049 -0.166329 0)
(10.7644 -0.237921 0)
(10.7067 -0.283368 0)
(10.631 -0.396515 0)
(10.5287 -0.457419 0)
(10.4297 -0.585635 0)
(9.91103 -0.0389196 0)
(9.976 -0.107232 0)
(10.0866 -0.15838 0)
(10.2201 -0.186611 0)
(10.3577 -0.190833 0)
(10.4835 -0.176135 0)
(10.5904 -0.151391 0)
(10.6755 -0.124985 0)
(10.7377 -0.0999595 0)
(10.7814 -0.0778579 0)
(10.8152 -0.0595516 0)
(10.8383 -0.0449491 0)
(10.8568 -0.0328276 0)
(10.871 -0.0222403 0)
(10.8866 -0.0184016 0)
(10.888 -0.0161218 0)
(10.8888 -0.0146041 0)
(10.8857 -0.00828384 0)
(10.8947 -0.00572593 0)
(10.8961 -0.00516911 0)
(10.8973 -0.00692986 0)
(10.8923 -0.00758947 0)
(10.8921 -0.00816936 0)
(10.8911 -0.00991804 0)
(10.8927 -0.0128039 0)
(10.8886 -0.0157682 0)
(10.8895 -0.0199258 0)
(10.884 -0.0252166 0)
(10.8822 -0.0307755 0)
(10.8755 -0.0423611 0)
(10.8676 -0.052739 0)
(10.8552 -0.0700883 0)
(10.8401 -0.0938463 0)
(10.814 -0.118265 0)
(10.7832 -0.159377 0)
(10.7354 -0.199072 0)
(10.6731 -0.262406 0)
(10.5921 -0.3168 0)
(10.4988 -0.393699 0)
(10.4295 -0.416439 0)
(9.91108 -0.0533853 0)
(9.98269 -0.1457 0)
(10.1042 -0.213078 0)
(10.2505 -0.24695 0)
(10.3993 -0.247979 0)
(10.5318 -0.22604 0)
(10.6409 -0.19328 0)
(10.725 -0.159014 0)
(10.7849 -0.1272 0)
(10.8254 -0.0987463 0)
(10.8557 -0.0745536 0)
(10.8756 -0.0552242 0)
(10.8912 -0.0393744 0)
(10.9016 -0.0268921 0)
(10.9132 -0.0220796 0)
(10.9125 -0.0193285 0)
(10.9126 -0.0166903 0)
(10.9082 -0.00905122 0)
(10.9139 -0.00604883 0)
(10.9127 -0.00470758 0)
(10.912 -0.00724047 0)
(10.9059 -0.00647987 0)
(10.9037 -0.00846599 0)
(10.9004 -0.00803099 0)
(10.8995 -0.0133092 0)
(10.8938 -0.0136988 0)
(10.892 -0.0200207 0)
(10.8851 -0.0220495 0)
(10.8804 -0.0306413 0)
(10.8723 -0.0365379 0)
(10.8614 -0.0507218 0)
(10.8469 -0.0619756 0)
(10.8284 -0.0849764 0)
(10.7996 -0.1058 0)
(10.7644 -0.138009 0)
(10.7131 -0.172351 0)
(10.6475 -0.214515 0)
(10.5654 -0.257403 0)
(10.4788 -0.302934 0)
(10.4134 -0.335478 0)
(9.91117 -0.0709815 0)
(9.99254 -0.19204 0)
(10.1303 -0.277004 0)
(10.2949 -0.313794 0)
(10.4575 -0.307937 0)
(10.5974 -0.276204 0)
(10.7083 -0.233652 0)
(10.7905 -0.190964 0)
(10.8468 -0.152137 0)
(10.8831 -0.116941 0)
(10.9081 -0.08673 0)
(10.9231 -0.0627317 0)
(10.9339 -0.0438284 0)
(10.9389 -0.0296707 0)
(10.9452 -0.0234206 0)
(10.9419 -0.0198862 0)
(10.9405 -0.0161413 0)
(10.9341 -0.00774953 0)
(10.9359 -0.00441965 0)
(10.9318 -0.00262113 0)
(10.9292 -0.00570508 0)
(10.9217 -0.00417867 0)
(10.9175 -0.00651813 0)
(10.9114 -0.00583228 0)
(10.9079 -0.0107562 0)
(10.8998 -0.0118637 0)
(10.8954 -0.0166329 0)
(10.8863 -0.0201504 0)
(10.8791 -0.0257572 0)
(10.8687 -0.033417 0)
(10.8555 -0.0433161 0)
(10.8389 -0.0555591 0)
(10.8169 -0.0722069 0)
(10.787 -0.0929118 0)
(10.7477 -0.114124 0)
(10.6957 -0.144362 0)
(10.6277 -0.164932 0)
(10.5456 -0.196629 0)
(10.4567 -0.217064 0)
(10.3941 -0.270572 0)
(9.91125 -0.0929063 0)
(10.0069 -0.249963 0)
(10.169 -0.354084 0)
(10.3584 -0.391955 0)
(10.5362 -0.377565 0)
(10.6803 -0.334485 0)
(10.7861 -0.280179 0)
(10.8571 -0.226631 0)
(10.8997 -0.178322 0)
(10.9213 -0.135166 0)
(10.9315 -0.0984736 0)
(10.9334 -0.070305 0)
(10.9319 -0.049126 0)
(10.9272 -0.033906 0)
(10.9238 -0.0255751 0)
(10.9162 -0.020691 0)
(10.9098 -0.01541 0)
(10.9027 -0.00683375 0)
(10.8992 -0.00257773 0)
(10.8962 -0.000409935 0)
(10.8904 -0.00328371 0)
(10.8871 -0.00131133 0)
(10.8795 -0.00415218 0)
(10.8777 -0.00211611 0)
(10.8693 -0.00849531 0)
(10.8666 -0.00683227 0)
(10.8549 -0.0153823 0)
(10.8522 -0.012599 0)
(10.835 -0.0256722 0)
(10.8321 -0.0218347 0)
(10.8064 -0.0431816 0)
(10.7982 -0.0374259 0)
(10.7613 -0.0701346 0)
(10.7404 -0.0631367 0)
(10.6856 -0.106724 0)
(10.644 -0.0956905 0)
(10.5629 -0.143962 0)
(10.4904 -0.109871 0)
(10.3815 -0.144443 0)
(10.3136 -0.0868337 0)
(9.91098 -0.120631 0)
(10.0288 -0.321774 0)
(10.2232 -0.444511 0)
(10.4272 -0.483203 0)
(10.5873 -0.460805 0)
(10.6836 -0.40464 0)
(10.7232 -0.333456 0)
(10.7224 -0.261378 0)
(10.6959 -0.196015 0)
(10.6572 -0.140357 0)
(10.617 -0.0963594 0)
(10.579 -0.0653819 0)
(10.5455 -0.044083 0)
(10.5183 -0.0293769 0)
(10.4963 -0.0209778 0)
(10.4793 -0.0160126 0)
(10.4631 -0.011059 0)
(10.456 -0.00390599 0)
(10.4473 -0.000254518 0)
(10.4497 0.00149266 0)
(10.4412 -0.00100388 0)
(10.4471 0.000478753 0)
(10.4368 -0.00210768 0)
(10.4449 -0.00023678 0)
(10.4321 -0.00605133 0)
(10.439 -0.00391278 0)
(10.4211 -0.0118872 0)
(10.4263 -0.00819522 0)
(10.4011 -0.0201853 0)
(10.4031 -0.0148933 0)
(10.3685 -0.033821 0)
(10.3608 -0.025893 0)
(10.3162 -0.0540445 0)
(10.2883 -0.0430238 0)
(10.2316 -0.08002 0)
(10.1745 -0.0624792 0)
(10.106 -0.103831 0)
(10.0192 -0.0654862 0)
(9.94067 -0.0962923 0)
(9.78069 -0.0307466 0)
(9.91523 -0.166353 0)
(10.0507 -0.403572 0)
(10.1545 -0.519253 0)
(10.1513 -0.537594 0)
(10.0431 -0.497126 0)
(9.85826 -0.425453 0)
(9.64415 -0.339398 0)
(9.43333 -0.252857 0)
(9.24425 -0.175348 0)
(9.08738 -0.112157 0)
(8.96515 -0.0659604 0)
(8.87293 -0.0358321 0)
(8.80594 -0.0172879 0)
(8.75962 -0.00642335 0)
(8.72773 -0.00177465 0)
(8.70626 -0.000335938 0)
(8.69037 0.000449778 0)
(8.68468 0.00247752 0)
(8.6802 0.00259604 0)
(8.68483 0.00194592 0)
(8.68062 -0.000493098 0)
(8.68711 -0.000674105 0)
(8.67871 -0.00189156 0)
(8.68616 -0.0015763 0)
(8.67304 -0.00399343 0)
(8.67895 -0.0035953 0)
(8.6599 -0.0072216 0)
(8.6628 -0.0060415 0)
(8.63699 -0.0120124 0)
(8.63385 -0.0102972 0)
(8.60002 -0.0198622 0)
(8.58234 -0.0172498 0)
(8.54235 -0.0312021 0)
(8.49503 -0.0272649 0)
(8.45593 -0.0440557 0)
(8.36179 -0.0381523 0)
(8.33693 -0.0529978 0)
(8.17779 -0.0532309 0)
(8.17206 -0.0719453 0)
(7.89937 -0.109014 0)
(9.84468 -0.110745 0)
(9.16337 -0.343309 0)
(8.23616 -0.369508 0)
(7.3201 -0.291152 0)
(6.51562 -0.192765 0)
(5.85931 -0.107322 0)
(5.3745 -0.043674 0)
(5.03855 -0.00367356 0)
(4.82252 0.0171874 0)
(4.69499 0.0242115 0)
(4.62725 0.022932 0)
(4.59583 0.0180022 0)
(4.58451 0.0123487 0)
(4.58278 0.00750769 0)
(4.58436 0.00370454 0)
(4.58598 0.00114721 0)
(4.58621 -0.000208816 0)
(4.58759 -0.000326656 0)
(4.58888 -0.000540662 0)
(4.59163 -0.000363052 0)
(4.59072 -0.000738918 0)
(4.59137 -0.00019738 0)
(4.58779 -0.000470801 0)
(4.58837 -3.37025e-05 0)
(4.5823 -0.000825482 0)
(4.58151 -0.000637318 0)
(4.57102 -0.00161619 0)
(4.56792 -0.00133617 0)
(4.55157 -0.00275534 0)
(4.54442 -0.00241825 0)
(4.51957 -0.00439161 0)
(4.50456 -0.00395458 0)
(4.46959 -0.00636888 0)
(4.44021 -0.00525886 0)
(4.39942 -0.00822505 0)
(4.3435 -0.00432481 0)
(4.31499 -0.0126943 0)
(4.19627 -0.00265492 0)
(4.21529 -0.0382558 0)
(3.89639 0.0110132 0)
(6.53651 -1.36064 0)
(7.07216 -1.76852 0)
(7.37945 -2.09435 0)
(7.58025 -2.29549 0)
(7.72044 -2.41944 0)
(7.81184 -2.48561 0)
(7.86206 -2.50779 0)
(7.8587 -2.49147 0)
(7.80859 -2.43363 0)
(7.77562 -2.36894 0)
(7.85269 -2.38955 0)
(8.04218 -2.51462 0)
(8.28114 -2.68415 0)
(8.51986 -2.86002 0)
(8.7275 -3.03021 0)
(8.88396 -3.19359 0)
(8.97581 -3.35161 0)
(8.99701 -3.50034 0)
(8.95164 -3.6314 0)
(8.84845 -3.73588 0)
(8.69582 -3.80626 0)
(8.49879 -3.83981 0)
(8.26292 -3.83789 0)
(8.00113 -3.80468 0)
(7.73122 -3.74966 0)
(7.47085 -3.68665 0)
(7.23505 -3.62539 0)
(7.0334 -3.56741 0)
(6.86737 -3.50851 0)
(6.72987 -3.44326 0)
(6.61638 -3.36779 0)
(6.52528 -3.28146 0)
(6.44921 -3.18521 0)
(6.3837 -3.0812 0)
(6.32552 -2.97268 0)
(6.27038 -2.86479 0)
(6.21944 -2.76344 0)
(6.17075 -2.67227 0)
(6.11996 -2.58888 0)
(6.06333 -2.50433 0)
(5.99495 -2.40935 0)
(5.91479 -2.30245 0)
(5.82742 -2.18742 0)
(5.7313 -2.0643 0)
(5.62904 -1.9328 0)
(5.5325 -1.80025 0)
(5.4465 -1.67836 0)
(5.3684 -1.57571 0)
(5.29839 -1.49158 0)
(5.23773 -1.41524 0)
(5.18704 -1.33558 0)
(5.14806 -1.25277 0)
(5.12179 -1.17806 0)
(5.10611 -1.12211 0)
(5.09755 -1.08541 0)
(5.0937 -1.05914 0)
(5.09374 -1.03242 0)
(5.09751 -0.9984 0)
(5.10424 -0.956099 0)
(5.11229 -0.908712 0)
(5.11996 -0.860621 0)
(5.12617 -0.815137 0)
(5.13065 -0.773756 0)
(5.13358 -0.736532 0)
(5.13524 -0.702728 0)
(5.13589 -0.671377 0)
(5.13568 -0.641637 0)
(5.13475 -0.612944 0)
(5.1332 -0.585026 0)
(5.13112 -0.557822 0)
(5.12863 -0.531391 0)
(5.12584 -0.505831 0)
(5.12287 -0.48123 0)
(5.11981 -0.45765 0)
(5.11673 -0.43512 0)
(5.11369 -0.413642 0)
(5.11074 -0.393199 0)
(5.10789 -0.37376 0)
(5.10518 -0.355289 0)
(5.10259 -0.337745 0)
(5.10015 -0.321084 0)
(5.09785 -0.305264 0)
(5.09569 -0.290242 0)
(5.09366 -0.275979 0)
(5.09177 -0.262434 0)
(5.08999 -0.249571 0)
(5.08834 -0.237353 0)
(5.0868 -0.225747 0)
(5.08536 -0.214722 0)
(5.08402 -0.204245 0)
(5.08277 -0.19429 0)
(5.08161 -0.184828 0)
(5.08053 -0.175835 0)
(5.07953 -0.167285 0)
(5.0786 -0.159157 0)
(5.07774 -0.151428 0)
(5.07694 -0.144079 0)
(5.07619 -0.13709 0)
(5.0755 -0.130443 0)
(5.07485 -0.124121 0)
(5.07425 -0.118107 0)
(5.0737 -0.112387 0)
(5.07318 -0.106945 0)
(5.0727 -0.101768 0)
(5.07225 -0.096843 0)
(5.07183 -0.0921568 0)
(5.07144 -0.0876981 0)
(5.07108 -0.0834557 0)
(5.07075 -0.079419 0)
(5.07043 -0.0755778 0)
(5.07014 -0.0719227 0)
(5.06987 -0.0684445 0)
(5.06961 -0.0651347 0)
(5.06937 -0.061985 0)
(5.06915 -0.0589876 0)
(5.06895 -0.0561352 0)
(5.06875 -0.0534207 0)
(5.06857 -0.0508373 0)
(5.0684 -0.0483788 0)
(5.06824 -0.0460391 0)
(5.06809 -0.0438124 0)
(5.06796 -0.0416933 0)
(5.06783 -0.0396765 0)
(5.0677 -0.0377571 0)
(5.06759 -0.0359305 0)
(5.06748 -0.0341919 0)
(5.06738 -0.0325374 0)
(5.06729 -0.0309628 0)
(5.0672 -0.0294643 0)
(5.06712 -0.0280381 0)
(5.06704 -0.0266809 0)
(5.06696 -0.0253892 0)
(5.06689 -0.0241599 0)
(5.06683 -0.0229899 0)
(5.06677 -0.0218762 0)
(5.06671 -0.020816 0)
(5.06666 -0.0198068 0)
(5.06661 -0.0188462 0)
(5.06656 -0.0179318 0)
(5.06651 -0.0170614 0)
(5.06647 -0.0162331 0)
(5.06643 -0.0154446 0)
(5.06639 -0.0146943 0)
(5.06635 -0.0139801 0)
(5.06632 -0.0133005 0)
(5.06629 -0.0126533 0)
(5.06626 -0.0120375 0)
(5.06623 -0.011451 0)
(5.0662 -0.010893 0)
(5.06618 -0.0103615 0)
(5.06615 -0.00985586 0)
(5.06613 -0.00937399 0)
(5.06611 -0.00891579 0)
(5.06609 -0.00847887 0)
(5.06607 -0.00806353 0)
(5.06605 -0.00766727 0)
(5.06603 -0.00729067 0)
(5.06602 -0.00693123 0)
(5.066 -0.00658969 0)
(5.06599 -0.00626353 0)
(5.06597 -0.00595364 0)
(5.06596 -0.00565757 0)
(5.06595 -0.00537628 0)
(5.06593 -0.00510743 0)
(5.06592 -0.00485193 0)
(5.06591 -0.00460767 0)
(5.0659 -0.00437544 0)
(5.06589 -0.00415337 0)
(5.06589 -0.0039421 0)
(5.06588 -0.00374013 0)
(5.06587 -0.00354783 0)
(5.06586 -0.00336401 0)
(5.06585 -0.00318889 0)
(5.06585 -0.00302147 0)
(5.06584 -0.00286172 0)
(5.06583 -0.00270891 0)
(5.06583 -0.00256281 0)
(5.06582 -0.0024227 0)
(5.06582 -0.00228856 0)
(5.06581 -0.00215979 0)
(5.06581 -0.00203649 0)
(5.06581 -0.00191803 0)
(5.0658 -0.00180466 0)
(5.0658 -0.00169559 0)
(5.06579 -0.00159115 0)
(5.06579 -0.00149043 0)
(5.06578 -0.00139388 0)
(5.06578 -0.00130047 0)
(5.06578 -0.0012108 0)
(5.06577 -0.00112382 0)
(5.06577 -0.00104017 0)
(5.06577 -0.000958811 0)
(5.06577 -0.000880297 0)
(5.06577 -0.000803759 0)
(5.06577 -0.000729568 0)
(5.06577 -0.000656868 0)
(5.06576 -0.000586076 0)
(5.06576 -0.000516616 0)
(5.06576 -0.000448706 0)
(5.06576 -0.000382045 0)
(5.06576 -0.000316504 0)
(5.06576 -0.000251857 0)
(5.06576 -0.000187855 0)
(5.06576 -0.000124605 0)
(5.06576 -6.15824e-05 0)
(5.06576 1.03091e-06 0)
(5.06576 6.37565e-05 0)
(5.06576 0.000126171 0)
(5.06576 0.000189017 0)
(5.06576 0.000251941 0)
(5.06576 0.000315554 0)
(5.06576 0.000379476 0)
(5.06576 0.000444372 0)
(5.06576 0.000510119 0)
(5.06576 0.000577035 0)
(5.06576 0.000645112 0)
(5.06576 0.00071453 0)
(5.06576 0.000785692 0)
(5.06576 0.000858346 0)
(5.06576 0.000933031 0)
(5.06577 0.00100939 0)
(5.06577 0.00108835 0)
(5.06577 0.00116925 0)
(5.06577 0.00125297 0)
(5.06578 0.00133891 0)
(5.06578 0.00142822 0)
(5.06578 0.00152023 0)
(5.06579 0.00161586 0)
(5.06579 0.00171462 0)
(5.06579 0.00181762 0)
(5.06579 0.00192435 0)
(5.0658 0.00203564 0)
(5.0658 0.00215112 0)
(5.06581 0.00227177 0)
(5.06581 0.00239722 0)
(5.06582 0.00252812 0)
(5.06582 0.00266433 0)
(5.06583 0.00280662 0)
(5.06583 0.00295498 0)
(5.06584 0.00310984 0)
(5.06584 0.00327151 0)
(5.06585 0.00344055 0)
(5.06586 0.00361736 0)
(5.06586 0.00380215 0)
(5.06587 0.0039956 0)
(5.06588 0.00419802 0)
(5.06589 0.00441009 0)
(5.0659 0.00463184 0)
(5.0659 0.00486417 0)
(5.06591 0.0051073 0)
(5.06592 0.00536214 0)
(5.06593 0.00562866 0)
(5.06594 0.00590805 0)
(5.06595 0.00620045 0)
(5.06597 0.00650711 0)
(5.06598 0.0068279 0)
(5.06599 0.00716435 0)
(5.06601 0.00751653 0)
(5.06602 0.007886 0)
(5.06604 0.0082726 0)
(5.06605 0.00867814 0)
(5.06607 0.00910279 0)
(5.06609 0.00954823 0)
(5.0661 0.0100146 0)
(5.06612 0.0105037 0)
(5.06614 0.0110162 0)
(5.06616 0.0115535 0)
(5.06619 0.0121165 0)
(5.06621 0.0127066 0)
(5.06623 0.0133254 0)
(5.06626 0.0139738 0)
(5.06629 0.0146538 0)
(5.06631 0.0153661 0)
(5.06634 0.0161135 0)
(5.06637 0.0168963 0)
(5.06641 0.0177177 0)
(5.06644 0.0185777 0)
(5.06648 0.0194807 0)
(5.06651 0.0204258 0)
(5.06655 0.0214184 0)
(5.0666 0.0224569 0)
(5.06664 0.0235481 0)
(5.06668 0.0246895 0)
(5.06673 0.0258889 0)
(5.06678 0.0271434 0)
(5.06683 0.0284619 0)
(5.06689 0.0298409 0)
(5.06695 0.0312901 0)
(5.06701 0.0328059 0)
(5.06707 0.034399 0)
(5.06714 0.0360654 0)
(5.06721 0.0378166 0)
(5.06728 0.0396485 0)
(5.06736 0.0415735 0)
(5.06744 0.0435876 0)
(5.06753 0.0457037 0)
(5.06762 0.0479181 0)
(5.06771 0.0502444 0)
(5.06781 0.0526792 0)
(5.06792 0.0552366 0)
(5.06803 0.0579135 0)
(5.06814 0.0607251 0)
(5.06826 0.0636687 0)
(5.06839 0.0667597 0)
(5.06852 0.0699962 0)
(5.06866 0.0733945 0)
(5.06881 0.0769535 0)
(5.06896 0.0806897 0)
(5.06913 0.0846033 0)
(5.0693 0.0887112 0)
(5.06948 0.0930154 0)
(5.06967 0.0975322 0)
(5.06987 0.102266 0)
(5.07007 0.107233 0)
(5.07029 0.11244 0)
(5.07052 0.117903 0)
(5.07076 0.123631 0)
(5.07102 0.12964 0)
(5.07128 0.135942 0)
(5.07156 0.142552 0)
(5.07186 0.149486 0)
(5.07216 0.156757 0)
(5.07248 0.164388 0)
(5.07282 0.17239 0)
(5.07317 0.180789 0)
(5.07353 0.189594 0)
(5.07391 0.198842 0)
(5.07431 0.208531 0)
(5.07472 0.218717 0)
(5.07513 0.229371 0)
(5.07558 0.240607 0)
(5.076 0.252297 0)
(5.0765 0.264729 0)
(5.07686 0.277483 0)
(5.07755 0.291338 0)
(5.0776 0.30509 0)
(5.07888 0.320734 0)
(5.07788 0.335263 0)
(5.08103 0.353238 0)
(5.07694 0.368205 0)
(5.08515 0.389056 0)
(5.07314 0.404421 0)
(5.09343 0.427949 0)
(5.06384 0.445167 0)
(5.10886 0.468782 0)
(5.04613 0.492848 0)
(5.13371 0.509434 0)
(5.01928 0.550599 0)
(5.16663 0.547831 0)
(4.988 0.620235 0)
(5.20074 0.584299 0)
(4.96207 0.699737 0)
(5.22685 0.623561 0)
(4.94835 0.784257 0)
(5.24211 0.672114 0)
(4.94268 0.87203 0)
(5.25373 0.730523 0)
(4.9358 0.96852 0)
(5.26747 0.792876 0)
(4.9279 1.08015 0)
(5.27723 0.858763 0)
(4.92776 1.20207 0)
(5.27564 0.940202 0)
(4.93753 1.32435 0)
(5.26518 1.04476 0)
(4.95232 1.45297 0)
(5.24946 1.16114 0)
(4.97474 1.60138 0)
(5.22588 1.28614 0)
(5.01047 1.76038 0)
(5.19573 1.43892 0)
(5.05953 1.91214 0)
(5.16111 1.62985 0)
(5.12502 2.05785 0)
(5.12035 1.8587 0)
(5.20879 2.19281 0)
(5.07613 2.14194 0)
(5.29844 2.31163 0)
(5.03757 2.48259 0)
(5.37128 2.431 0)
(5.01496 2.88158 0)
(5.40214 2.57571 0)
(5.02663 3.31941 0)
(5.37074 2.80647 0)
(5.09658 3.75912 0)
(5.2684 3.19468 0)
(5.24396 4.13894 0)
(5.12025 3.8249 0)
(5.42847 4.40368 0)
(5.01131 4.71821 0)
(5.52592 4.61696 0)
(5.07374 5.762 0)
(5.40157 5.07419 0)
(5.44845 6.67384 0)
(5.04524 6.33667 0)
(5.89794 7.20178 0)
(5.13135 8.63124 0)
(5.66576 8.10083 0)
(6.90731 11.0514 0)
(5.38512 12.9779 0)
(9.91437 -1.52728 0)
(9.99971 -1.92765 0)
(10.1063 -2.20429 0)
(10.0659 -2.32678 0)
(9.89387 -2.30682 0)
(9.68793 -2.20154 0)
(9.55619 -2.11585 0)
(9.52706 -2.11086 0)
(9.58681 -2.18608 0)
(9.69431 -2.31684 0)
(9.80808 -2.47658 0)
(9.90567 -2.64289 0)
(9.96874 -2.80097 0)
(9.98242 -2.94685 0)
(9.94008 -3.07966 0)
(9.84163 -3.19562 0)
(9.69033 -3.29204 0)
(9.49339 -3.36458 0)
(9.26467 -3.40865 0)
(9.01371 -3.42407 0)
(8.74533 -3.41788 0)
(8.47135 -3.40133 0)
(8.21358 -3.38586 0)
(7.98906 -3.38133 0)
(7.79937 -3.38655 0)
(7.64077 -3.39142 0)
(7.50946 -3.38909 0)
(7.3955 -3.37401 0)
(7.29133 -3.34192 0)
(7.19538 -3.29385 0)
(7.10137 -3.23145 0)
(7.00422 -3.15597 0)
(6.90318 -3.0699 0)
(6.79804 -2.97623 0)
(6.69214 -2.87823 0)
(6.58816 -2.77881 0)
(6.48477 -2.68002 0)
(6.37804 -2.58034 0)
(6.26436 -2.47239 0)
(6.14321 -2.35081 0)
(6.01518 -2.21886 0)
(5.88406 -2.0842 0)
(5.75738 -1.95208 0)
(5.63754 -1.82343 0)
(5.52672 -1.70172 0)
(5.4365 -1.59661 0)
(5.37408 -1.51388 0)
(5.33208 -1.44901 0)
(5.3007 -1.39337 0)
(5.27706 -1.34034 0)
(5.26291 -1.2861 0)
(5.25983 -1.22992 0)
(5.26664 -1.1754 0)
(5.27875 -1.12842 0)
(5.29014 -1.09163 0)
(5.29669 -1.06187 0)
(5.29759 -1.03251 0)
(5.29417 -0.997556 0)
(5.2878 -0.954691 0)
(5.27893 -0.906144 0)
(5.26749 -0.856778 0)
(5.25391 -0.81084 0)
(5.2395 -0.770018 0)
(5.22581 -0.733773 0)
(5.21393 -0.7007 0)
(5.20421 -0.669522 0)
(5.19636 -0.639412 0)
(5.18987 -0.609985 0)
(5.18419 -0.581173 0)
(5.17891 -0.553089 0)
(5.17378 -0.525912 0)
(5.16867 -0.499799 0)
(5.16356 -0.474853 0)
(5.15849 -0.451117 0)
(5.15349 -0.428582 0)
(5.14861 -0.407216 0)
(5.14389 -0.386964 0)
(5.13937 -0.367769 0)
(5.13505 -0.349571 0)
(5.13095 -0.332316 0)
(5.12706 -0.315949 0)
(5.1234 -0.300422 0)
(5.11994 -0.285685 0)
(5.11668 -0.271698 0)
(5.11362 -0.258418 0)
(5.11075 -0.245807 0)
(5.10805 -0.233829 0)
(5.10552 -0.22245 0)
(5.10315 -0.211638 0)
(5.10092 -0.201363 0)
(5.09884 -0.191595 0)
(5.09689 -0.18231 0)
(5.09505 -0.173482 0)
(5.09334 -0.165086 0)
(5.09173 -0.157102 0)
(5.09022 -0.149508 0)
(5.08881 -0.142284 0)
(5.08748 -0.135412 0)
(5.08624 -0.128875 0)
(5.08507 -0.122654 0)
(5.08398 -0.116735 0)
(5.08295 -0.111103 0)
(5.08198 -0.105744 0)
(5.08107 -0.100643 0)
(5.08022 -0.095789 0)
(5.07941 -0.0911692 0)
(5.07866 -0.0867723 0)
(5.07795 -0.0825876 0)
(5.07728 -0.0786046 0)
(5.07665 -0.0748137 0)