/*--------------------------------*- C++ -*----------------------------------*\
| =========                 |                                                 |
| \\      /  F ield         | OpenFOAM: The Open Source CFD Toolbox           |
|  \\    /   O peration     | Version:  2.4.0                                 |
|   \\  /    A nd           | Web:      www.OpenFOAM.org                      |
|    \\/     M anipulation  |                                                 |
\*---------------------------------------------------------------------------*/
FoamFile
{
    version     2.0;
    format      ascii;
    class       volScalarField;
    location    "0.138";
    object      k_0;
}
// * * * * * * * * * * * * * * * * * * * * * * * * * * * * * * * * * * * * * //

dimensions      [0 2 -2 0 0 0 0];

internalField   nonuniform List<scalar> 
4400
(
9.53323
8.49041
6.51268
5.29624
4.64877
4.21144
4.07255
3.76353
4.06354
3.34823
4.41081
6.75784
6.73988
6.28629
5.72654
5.19293
5.01686
4.63159
4.74578
4.52177
1.17897
3.14849
4.23374
4.5117
4.48118
4.25936
4.14954
3.92718
3.83781
3.86171
0.165295
0.928633
1.73994
2.27545
2.69683
2.78485
2.84789
2.84609
2.75957
2.80271
0.0174655
0.148987
0.443292
0.706474
1.09751
1.32917
1.50511
1.64221
1.68257
1.68174
0.00149282
0.0168579
0.061587
0.121492
0.256363
0.374895
0.54326
0.610859
0.757065
0.74951
0.000137827
0.0014961
0.00482352
0.0116161
0.0308105
0.0514282
0.10884
0.131079
0.193818
0.206622
3.99571e-05
0.000226234
0.000459325
0.000868113
0.00204551
0.00362815
0.010388
0.0131139
0.0191042
0.02701
3.38809e-05
0.000119375
0.000204289
0.000233828
0.000292936
0.000348603
0.000672345
0.000789866
0.000938862
0.00133704
3.34338e-05
0.000122405
0.00016684
0.000195593
0.000208398
0.000209744
0.000220952
0.000239988
0.000252966
0.000286841
3.34265e-05
0.00013299
0.000158845
0.000185034
0.000197622
0.000203238
0.000213451
0.000255071
0.000331709
0.000659371
3.41906e-05
0.000134139
0.000167595
0.000212462
0.000264899
0.000361557
0.000527941
0.00118608
0.00238796
0.00698124
4.0318e-05
0.000245911
0.000412681
0.00083848
0.00184177
0.00436695
0.0079543
0.0191413
0.0313392
0.0730186
0.000137902
0.00150278
0.00433206
0.0118663
0.0276789
0.0610975
0.0923226
0.169561
0.221763
0.382271
0.0014806
0.0169686
0.0519235
0.129248
0.254447
0.389949
0.521946
0.710304
0.808707
1.07723
0.0173507
0.151015
0.41129
0.741867
1.10026
1.32859
1.54203
1.70437
1.79714
2.01712
0.164476
0.937261
1.71451
2.3076
2.69045
2.79229
2.89189
2.88175
2.90263
2.96017
1.17474
3.15174
4.22423
4.52807
4.48236
4.26885
4.16124
3.92623
3.88609
3.76931
4.41027
6.7559
6.74107
6.2888
5.71478
5.19426
4.97588
4.58799
4.49006
4.15295
9.53373
8.48473
6.51913
5.28446
4.63614
4.1798
3.98445
3.62608
3.47518
2.98292
1.91284
1.68257
1.50041
1.44021
1.30121
1.14729
1.15815
1.14101
1.11358
0.947394
0.524582
0.267026
0.254294
0.265629
0.273828
0.330335
0.375876
0.379973
0.394681
0.401549
0.379803
0.290303
0.12839
0.0696304
0.054265
0.0552589
0.0575824
0.0637134
0.0841194
0.0902761
0.097458
0.179623
0.619029
0.731977
0.542043
0.287031
0.195269
0.165839
0.169761
0.188337
0.198167
0.190546
0.135902
0.101947
0.0998479
0.118394
0.309301
0.366017
0.256505
0.16902
0.136559
0.116519
0.0964104
0.0824296
0.0751552
0.0741488
0.0758739
0.0801617
0.0905776
0.117968
0.220798
0.317235
0.335184
0.291157
0.208415
0.202977
0.226527
0.233581
0.223173
0.19116
0.168684
0.13187
0.109405
0.105038
0.10522
0.116741
0.122876
0.118248
0.127465
0.139827
0.145616
0.153186
0.198985
0.22319
0.24766
0.269665
0.242275
0.182689
0.159351
0.152136
0.131745
0.108532
0.0999105
0.099283
0.0990087
0.0979558
0.0863832
0.074122
0.101432
0.342023
3.31906
2.54926
1.97385
1.62605
1.45263
1.19469
1.09585
1.09248
1.14805
1.13418
0.880204
0.445271
0.419142
0.391284
0.402111
0.443397
0.431787
0.422731
0.432237
0.414008
0.338949
0.154124
0.0751622
0.0539319
0.0518671
0.0602075
0.0664685
0.0783297
0.0917151
0.0932243
0.0985886
0.173544
0.547583
0.649679
0.538053
0.319947
0.218098
0.179277
0.183485
0.205134
0.212555
0.196143
0.124939
0.0974652
0.098528
0.12789
0.344017
0.379872
0.248816
0.167337
0.137946
0.11676
0.0965173
0.0819599
0.0744737
0.0736071
0.076045
0.081636
0.0909071
0.113379
0.201244
0.291367
0.320711
0.28882
0.200072
0.18895
0.213453
0.239021
0.232229
0.215095
0.18788
0.153406
0.124496
0.118839
0.118652
0.127595
0.128714
0.121925
0.128579
0.142489
0.14603
0.155129
0.197899
0.234505
0.232984
0.27408
0.269879
0.19043
0.147737
0.142086
0.133304
0.110058
0.0976769
0.0962449
0.0975455
0.0969343
0.0906963
0.073302
0.0980901
0.256377
3.19942
2.56243
2.05809
1.61901
1.45636
1.24042
1.04409
0.933518
0.946472
1.1073
1.12957
0.884358
0.682639
0.545596
0.529185
0.493467
0.479852
0.484113
0.462031
0.388342
0.190141
0.0843096
0.0543914
0.0508407
0.0561855
0.087652
0.101195
0.115663
0.111587
0.101278
0.103655
0.162536
0.518346
0.613911
0.533928
0.343045
0.235746
0.195504
0.201009
0.224103
0.227865
0.193081
0.11236
0.0949459
0.0982603
0.142033
0.378701
0.392079
0.24794
0.175254
0.153282
0.123467
0.0984418
0.0824202
0.0744426
0.0735934
0.0768508
0.0829544
0.0913617
0.111152
0.184488
0.270527
0.299486
0.280859
0.198523
0.179205
0.19142
0.237742
0.232532
0.218431
0.198121
0.171922
0.141572
0.138031
0.132076
0.134189
0.131187
0.123801
0.127921
0.141659
0.144158
0.154523
0.197484
0.233775
0.228237
0.271616
0.280718
0.210786
0.143589
0.131668
0.129458
0.112574
0.0981585
0.0938727
0.0962632
0.096187
0.0934422
0.0751161
0.0919144
0.179755
2.42084
1.9932
1.65417
1.28787
1.1289
1.03223
0.904962
0.799115
0.75498
0.79534
1.01521
1.0211
0.945754
0.773245
0.656818
0.59149
0.567491
0.529212
0.442776
0.229812
0.0956215
0.0546978
0.0495822
0.0567254
0.0852016
0.1548
0.174274
0.17382
0.159029
0.117486
0.11618
0.1591
0.484086
0.597937
0.541235
0.37221
0.255297
0.216243
0.225047
0.24595
0.24038
0.177875
0.103639
0.0930621
0.0999451
0.161552
0.400731
0.400803
0.263932
0.206387
0.188788
0.13358
0.101671
0.0845715
0.0757852
0.0744801
0.0768117
0.0840108
0.092303
0.11049
0.175089
0.248014
0.274159
0.263509
0.200962
0.172645
0.175044
0.220008
0.219837
0.211285
0.196945
0.175316
0.155331
0.15133
0.138514
0.13598
0.12765
0.124277
0.123689
0.136926
0.139344
0.14977
0.197801
0.214379
0.231191
0.273705
0.282139
0.222807
0.148225
0.124743
0.124288
0.117178
0.1001
0.092748
0.0932482
0.0943508
0.0990026
0.0799807
0.0877697
0.133592
1.50008
1.26655
1.02954
0.785737
0.634937
0.614999
0.61192
0.563793
0.525492
0.529821
0.637529
0.902097
0.901046
0.843789
0.755533
0.655364
0.594948
0.500507
0.267625
0.106727
0.0542496
0.0468788
0.0550501
0.0903587
0.19059
0.267731
0.264266
0.249596
0.220604
0.147968
0.140795
0.171812
0.42871
0.568182
0.535771
0.400068
0.275635
0.243471
0.256651
0.269745
0.249328
0.155811
0.0968109
0.0924768
0.103548
0.18455
0.413048
0.417959
0.317935
0.258252
0.21487
0.134788
0.10379
0.087982
0.0770307
0.075588
0.0769979
0.0849127
0.0926822
0.109954
0.176994
0.23065
0.254556
0.251818
0.206908
0.162337
0.155036
0.176142
0.186984
0.186845
0.182588
0.169864
0.16004
0.153164
0.138692
0.134614
0.121837
0.118418
0.11352
0.127743
0.133855
0.149841
0.182452
0.195822
0.246957
0.311833
0.308055
0.229541
0.15718
0.123784
0.122266
0.118845
0.105137
0.0932315
0.0931133
0.0937951
0.106671
0.0903189
0.0890323
0.106945
0.678281
0.577276
0.431136
0.299814
0.2257
0.221601
0.24152
0.271317
0.279863
0.279627
0.304018
0.485708
0.667319
0.686021
0.660406
0.58631
0.470115
0.24657
0.105236
0.0509412
0.0423817
0.0499509
0.0929975
0.205886
0.380523
0.417428
0.39977
0.348472
0.27356
0.17364
0.159966
0.184562
0.399002
0.535483
0.522021
0.422609
0.300651
0.278932
0.292936
0.292876
0.237999
0.133975
0.0929536
0.0936815
0.112122
0.211323
0.41641
0.45328
0.39861
0.288548
0.217775
0.13172
0.105846
0.0935149
0.0776945
0.0766329
0.0766796
0.0845775
0.0928817
0.109468
0.185533
0.222643
0.234651
0.240913
0.208908
0.155285
0.133328
0.139606
0.158188
0.163429
0.161749
0.15492
0.150235
0.140522
0.134915
0.125144
0.112582
0.11195
0.10981
0.124709
0.129315
0.154477
0.16066
0.186136
0.250164
0.337124
0.382249
0.266929
0.175943
0.126793
0.123437
0.119898
0.115572
0.0962481
0.095471
0.0949561
0.105719
0.100344
0.0978504
0.105709
0.189825
0.159372
0.113324
0.0779812
0.0585669
0.0588309
0.0677793
0.0838859
0.102686
0.105289
0.112161
0.159066
0.272022
0.330156
0.324127
0.278384
0.169609
0.0834843
0.0428833
0.0348962
0.0418117
0.0851301
0.222529
0.45881
0.586971
0.589163
0.55207
0.465107
0.336466
0.2034
0.181299
0.197535
0.378499
0.504011
0.501502
0.428401
0.330263
0.3224
0.331835
0.311392
0.207956
0.116456
0.091453
0.0977046
0.125667
0.236977
0.415909
0.505441
0.459367
0.292769
0.207883
0.134728
0.111202
0.104777
0.0810755
0.0790982
0.0767429
0.0837873
0.0939727
0.108608
0.199846
0.224203
0.22444
0.227955
0.208047
0.155912
0.122021
0.120967
0.127515
0.133595
0.135567
0.134006
0.132544
0.125672
0.12288
0.116289
0.110101
0.110363
0.109472
0.122224
0.126192
0.139975
0.147997
0.182002
0.25032
0.338116
0.398701
0.319629
0.203053
0.133179
0.128807
0.121823
0.122875
0.103822
0.102525
0.0984938
0.105511
0.10592
0.111054
0.112185
0.0253225
0.0217079
0.0153037
0.0112551
0.00945872
0.00987021
0.0123736
0.0156955
0.0239932
0.0252745
0.0266158
0.0366553
0.0688523
0.0962053
0.094744
0.0794027
0.0492408
0.0278936
0.0258251
0.0321738
0.0723149
0.211594
0.529874
0.700852
0.719937
0.67897
0.604387
0.533368
0.386818
0.22767
0.197276
0.203447
0.351021
0.474609
0.483417
0.43486
0.381096
0.377839
0.371168
0.30073
0.172588
0.104634
0.0948068
0.11089
0.147728
0.251331
0.419812
0.56163
0.478804
0.283048
0.202039
0.159736
0.12541
0.119848
0.0874168
0.0858738
0.0775202
0.0823792
0.0967635
0.109207
0.205534
0.231199
0.225656
0.222643
0.206699
0.159448
0.122471
0.107269
0.106086
0.108888
0.11201
0.113996
0.118603
0.115589
0.116982
0.113658
0.110262
0.109864
0.112136
0.117904
0.121889
0.131367
0.137968
0.157121
0.269722
0.343356
0.372068
0.335054
0.238538
0.144765
0.144526
0.128812
0.140176
0.124177
0.118942
0.102981
0.105492
0.106854
0.110715
0.119686
0.0012999
0.00122279
0.00123048
0.00130376
0.00135595
0.00140317
0.00156676
0.00168517
0.00256092
0.00294737
0.00315576
0.00485506
0.00961401
0.0165893
0.0172171
0.0154698
0.0137535
0.0154661
0.0226672
0.0570132
0.187431
0.554312
0.783753
0.809703
0.769627
0.679719
0.603996
0.538981
0.408154
0.25373
0.204163
0.199944
0.310214
0.449557
0.469521
0.454017
0.434164
0.420541
0.386474
0.25312
0.138981
0.0989684
0.101636
0.13989
0.175187
0.257039
0.422069
0.603908
0.485459
0.262522
0.206783
0.206292
0.156442
0.124447
0.0869381
0.0924329
0.079844
0.0827497
0.10589
0.111564
0.194842
0.256014
0.243906
0.225565
0.206009
0.170091
0.132531
0.103841
0.0947134
0.096113
0.0954241
0.0965769
0.10808
0.109157
0.114007
0.110942
0.110377
0.107824
0.112908
0.115749
0.115647
0.121694
0.125572
0.147665
0.339594
0.371381
0.363303
0.331516
0.274981
0.160579
0.162113
0.149669
0.163578
0.137443
0.133134
0.111741
0.107335
0.107925
0.110942
0.123985
0.000337268
0.000428939
0.00069643
0.000999159
0.00111238
0.00109152
0.000972167
0.00081803
0.000762593
0.000723085
0.00075072
0.00103629
0.00157541
0.00204204
0.0032828
0.0051964
0.00871439
0.0177159
0.0486092
0.15487
0.502899
0.850632
0.893264
0.850299
0.744803
0.638341
0.580575
0.518075
0.404282
0.273317
0.207542
0.191656
0.260367
0.409302
0.455466
0.466073
0.460373
0.436955
0.350881
0.194053
0.118471
0.102181
0.122247
0.177278
0.201372
0.256985
0.415935
0.614917
0.485088
0.258058
0.235613
0.256952
0.199411
0.120383
0.0909036
0.0987452
0.0824206
0.0841043
0.136223
0.117893
0.163413
0.258977
0.25469
0.238331
0.206965
0.186786
0.147632
0.10962
0.0905221
0.0890596
0.0874052
0.0889345
0.0959729
0.0990205
0.108336
0.107749
0.107378
0.106009
0.112677
0.115496
0.110889
0.110652
0.113707
0.146323
0.394381
0.383777
0.368738
0.334316
0.295894
0.187113
0.154307
0.151647
0.186676
0.147844
0.148133
0.125774
0.113098
0.110662
0.112111
0.125341
0.00112852
0.00152867
0.0026747
0.0049939
0.00605704
0.0060093
0.00516223
0.00433455
0.00352098
0.00321653
0.00355147
0.00370109
0.00384662
0.00448111
0.00642525
0.0112016
0.0225022
0.0528931
0.141046
0.417631
0.87808
0.976354
0.927067
0.795017
0.642976
0.56843
0.543658
0.499138
0.406577
0.293137
0.213992
0.182746
0.213883
0.354987
0.443191
0.468311
0.461594
0.419962
0.266508
0.149399
0.110142
0.11285
0.16977
0.214489
0.223889
0.253958
0.388584
0.609418
0.481388
0.261023
0.275017
0.302213
0.245272
0.129823
0.0983292
0.116695
0.0940673
0.0930437
0.234301
0.133057
0.162318
0.233619
0.24269
0.237951
0.213367
0.200573
0.1641
0.120386
0.0907396
0.0858302
0.0841508
0.0870437
0.0892881
0.0971357
0.102946
0.103409
0.101965
0.102882
0.113046
0.116095
0.106597
0.101113
0.107727
0.162315
0.41484
0.384145
0.382274
0.372849
0.324333
0.21525
0.16719
0.14568
0.3888
0.19704
0.187107
0.140181
0.130579
0.116706
0.116414
0.124513
0.0110086
0.0135325
0.0217192
0.0314923
0.0336272
0.0329545
0.0296197
0.0264858
0.0246445
0.0239212
0.0239166
0.0233886
0.0234417
0.0257254
0.0325879
0.0465699
0.0781728
0.157291
0.365753
0.864938
1.03642
1.00608
0.832754
0.64822
0.552032
0.504277
0.5058
0.488843
0.404671
0.305931
0.216056
0.16892
0.179848
0.283782
0.423785
0.456138
0.439458
0.325324
0.187434
0.126591
0.116732
0.14219
0.237838
0.244455
0.233617
0.24546
0.341782
0.584864
0.479466
0.282563
0.32253
0.352688
0.295972
0.178773
0.135172
0.180509
0.127225
0.128382
0.303754
0.162811
0.191353
0.227453
0.221746
0.234566
0.220654
0.209422
0.166985
0.119192
0.0870181
0.0815744
0.0813258
0.0867346
0.089603
0.102569
0.103398
0.101969
0.100861
0.104943
0.119908
0.12186
0.105727
0.099817
0.105116
0.180228
0.413194
0.413801
0.397372
0.431452
0.414119
0.244056
0.226601
0.154382
0.525971
0.301805
0.286428
0.17575
0.172956
0.139293
0.129121
0.127346
0.0899925
0.0984717
0.124114
0.142086
0.14235
0.136249
0.127736
0.119035
0.115361
0.112145
0.109246
0.103611
0.0997555
0.104211
0.117994
0.148561
0.220347
0.389234
0.827386
1.06542
1.06712
0.92555
0.661827
0.570985
0.517159
0.454528
0.433578
0.439525
0.391213
0.309879
0.207815
0.154046
0.155547
0.219134
0.369341
0.38163
0.33681
0.212324
0.143062
0.125402
0.136463
0.221878
0.289712
0.263806
0.227678
0.231362
0.293942
0.543518
0.493974
0.321881
0.384321
0.383626
0.316539
0.265062
0.251601
0.346428
0.21003
0.177542
0.341637
0.257163
0.255794
0.257422
0.226516
0.237183
0.233547
0.215545
0.154976
0.104131
0.0807793
0.075942
0.0759612
0.0805592
0.0930315
0.108696
0.106402
0.104861
0.107049
0.125991
0.139823
0.137935
0.107222
0.0959097
0.0985692
0.189287
0.343079
0.500197
0.400655
0.436692
0.640556
0.301446
0.293148
0.174247
0.264147
0.294161
0.311676
0.221032
0.228612
0.193818
0.171385
0.140265
0.399162
0.402391
0.419733
0.42692
0.415818
0.384492
0.368282
0.342891
0.330311
0.319283
0.30762
0.281329
0.264406
0.268497
0.289996
0.351357
0.490894
0.82331
1.06025
1.10904
1.00394
0.706534
0.58886
0.535818
0.498274
0.448256
0.396676
0.384387
0.366213
0.305145
0.195268
0.148147
0.141955
0.173089
0.258421
0.259189
0.219053
0.155178
0.136884
0.143919
0.197359
0.318958
0.319305
0.255047
0.209114
0.209595
0.248507
0.487817
0.5226
0.3907
0.444254
0.395009
0.338813
0.338295
0.347278
0.453193
0.413235
0.172075
0.338072
0.353844
0.266549
0.294621
0.256434
0.251604
0.239584
0.199372
0.133193
0.092324
0.0804705
0.074919
0.0756754
0.0818431
0.101705
0.106216
0.10627
0.111252
0.133684
0.172975
0.176518
0.159352
0.101757
0.0844521
0.0866021
0.181832
0.275337
0.535487
0.357095
0.410624
0.957874
0.416062
0.405507
0.213455
0.193706
0.276609
0.27948
0.247065
0.252814
0.240626
0.230569
0.180369
1.03453
0.971554
0.938605
0.909684
0.821601
0.753313
0.71355
0.658946
0.631363
0.609716
0.563859
0.505933
0.486972
0.494718
0.535219
0.650474
0.876536
1.04647
1.12159
1.04815
0.730957
0.601427
0.553299
0.508909
0.483846
0.463463
0.412113
0.385778
0.36598
0.288922
0.193615
0.148078
0.140256
0.151447
0.189331
0.188434
0.167794
0.151806
0.156728
0.198348
0.33098
0.367729
0.327165
0.207077
0.180287
0.184102
0.20728
0.406326
0.555473
0.481498
0.492883
0.404962
0.370501
0.380829
0.343359
0.466858
0.496828
0.168092
0.279196
0.399639
0.257881
0.292861
0.27312
0.255308
0.232802
0.162877
0.113743
0.0904697
0.083497
0.0777473
0.0816014
0.0930361
0.101725
0.103365
0.112412
0.14896
0.227806
0.250644
0.233774
0.162116
0.0951975
0.073557
0.0795885
0.138717
0.244371
0.536638
0.358506
0.441078
0.742185
0.41512
0.418926
0.240668
0.193563
0.273009
0.230625
0.245722
0.245308
0.263777
0.267723
0.244226
1.84731
1.64206
1.50878
1.37314
1.20633
1.11238
1.03292
0.950429
0.90404
0.842929
0.766342
0.724905
0.723102
0.744039
0.825761
0.974142
1.06716
1.11466
1.05394
0.741336
0.564522
0.560662
0.534929
0.488221
0.455406
0.440284
0.403309
0.389683
0.358705
0.280236
0.196992
0.156251
0.145563
0.154184
0.171727
0.174959
0.172383
0.180984
0.221943
0.362469
0.419036
0.39415
0.252534
0.156417
0.147077
0.153544
0.166619
0.294409
0.557038
0.57054
0.553666
0.419326
0.407825
0.455516
0.312406
0.380735
0.410142
0.182075
0.237255
0.402767
0.259112
0.285645
0.273113
0.252701
0.198035
0.12965
0.0975148
0.0818795
0.0766469
0.0770473
0.0872804
0.0928103
0.0994187
0.118941
0.186831
0.335184
0.391654
0.365584
0.264177
0.143944
0.0858378
0.0672535
0.0759925
0.11647
0.230894
0.521635
0.388136
0.368316
0.419441
0.321712
0.303014
0.234471
0.243045
0.272275
0.211183
0.233549
0.223707
0.257901
0.263919
0.260373
2.59386
2.1923
1.90474
1.6483
1.44954
1.32977
1.22002
1.13164
1.07765
1.00652
0.952473
0.943252
0.954171
1.00381
1.08779
1.11949
1.11457
1.03241
0.703641
0.468269
0.494232
0.551798
0.536966
0.488429
0.444892
0.419218
0.395302
0.387321
0.356453
0.28671
0.218833
0.193458
0.182025
0.184185
0.189272
0.197697
0.219984
0.270464
0.417298
0.511181
0.477509
0.339012
0.193673
0.137786
0.133708
0.140549
0.1452
0.20531
0.503071
0.632385
0.627594
0.45219
0.449002
0.556945
0.327678
0.451915
0.340988
0.25235
0.227007
0.374663
0.26809
0.279266
0.261402
0.213139
0.140662
0.0993081
0.0837443
0.0764601
0.0764254
0.0808011
0.0899526
0.108533
0.161569
0.282056
0.567647
0.616865
0.568788
0.388458
0.225995
0.132332
0.087436
0.0736384
0.0793874
0.113059
0.253238
0.517163
0.337268
0.371271
0.376845
0.233111
0.215014
0.247052
0.323129
0.293239
0.20647
0.206802
0.203762
0.235123
0.23533
0.238966
3.05267
2.40846
2.00816
1.70122
1.52304
1.4104
1.31578
1.26377
1.2164
1.16488
1.14794
1.14972
1.17017
1.18578
1.17609
1.11841
0.933495
0.574136
0.355245
0.344457
0.471683
0.630346
0.66121
0.610588
0.504303
0.435158
0.407272
0.400678
0.386556
0.331672
0.308226
0.295264
0.271669
0.272124
0.27893
0.30239
0.383347
0.571228
0.668314
0.635661
0.444157
0.280079
0.199341
0.172854
0.156529
0.160972
0.173317
0.219013
0.472886
0.673189
0.714635
0.502341
0.441074
0.600836
0.314934
0.416959
0.373181
0.412633
0.213797
0.283098
0.239545
0.240855
0.201762
0.164176
0.140346
0.143382
0.163902
0.174037
0.182497
0.20153
0.25021
0.360254
0.665996
0.887932
0.884937
0.785903
0.508962
0.332532
0.271597
0.231984
0.180175
0.153923
0.1522
0.188189
0.333828
0.49461
0.302527
0.347356
0.437585
0.269794
0.321891
0.398166
0.450747
0.350639
0.242182
0.218295
0.222918
0.240595
0.240429
0.246178
2.98977
2.25968
1.85048
1.62408
1.52205
1.43969
1.38276
1.35354
1.32065
1.30216
1.29505
1.28115
1.24676
1.16133
0.983737
0.703689
0.419387
0.243672
0.213298
0.28526
0.502013
0.801096
1.09802
1.21934
1.09196
0.818697
0.575646
0.474002
0.475211
0.463023
0.461656
0.436661
0.432574
0.476629
0.544394
0.714436
1.00134
1.05088
0.982205
0.682771
0.51342
0.47779
0.423121
0.412801
0.38024
0.40474
0.552568
0.62533
0.64423
0.737053
0.754929
0.740622
0.718609
0.827287
0.554477
0.318529
0.500401
0.37545
0.218732
0.242293
0.224724
0.25612
0.262975
0.337889
0.463828
0.667269
0.740062
0.813511
0.846866
0.958088
1.13009
1.26764
1.26034
1.1918
0.922177
0.712693
0.580915
0.574659
0.582425
0.605885
0.55646
0.523771
0.471123
0.498113
0.450248
0.484666
0.454941
0.393246
0.621814
0.421223
0.741658
1.03755
0.622845
0.534848
0.403648
0.399147
0.445643
0.580368
0.721003
0.804228
1.83624
1.43382
1.23748
1.13655
1.07152
1.00843
0.95699
0.921105
0.897391
0.887577
0.875813
0.839672
0.757077
0.623641
0.464736
0.324749
0.242466
0.222552
0.233587
0.272528
0.364904
0.633632
1.2455
2.13728
2.89182
3.21165
2.8366
1.9033
1.21905
0.680474
0.496468
0.453769
0.610541
0.978242
1.43065
1.76913
1.83729
1.64397
1.22708
0.996754
0.91077
0.848682
0.728057
0.695648
0.802189
1.13922
1.59324
1.70716
1.64761
1.3009
0.721126
0.753529
1.01785
1.44806
2.13769
0.463675
1.17645
0.504794
0.301893
0.306712
0.359787
0.690554
1.00953
1.67907
1.94437
2.15248
2.04688
2.02365
1.88924
1.87047
1.71368
1.54908
1.13144
0.927433
0.688378
0.692497
0.653124
0.731338
0.702747
0.833862
0.857596
1.12654
1.15387
1.21833
0.80932
0.724765
0.488858
0.643649
0.853587
0.507575
1.38999
0.661237
0.22439
0.388863
0.760848
1.48503
2.03413
3.48574
3.68548
4.58687
0.0500968
0.136292
0.321646
0.800742
1.28238
1.24904
1.012
0.515861
0.164995
0.190019
0.251174
0.294928
0.357625
0.51248
1.22826
2.61968
3.94448
4.76463
5.13598
5.29377
5.01671
4.10772
2.90224
1.87269
1.32203
1.00488
1.0378
1.69023
2.00735
1.31841
0.776021
0.941104
1.38328
2.03808
2.01536
1.52948
2.24872
2.67458
2.44232
1.78305
0.697509
0.564685
0.367981
0.435178
0.739734
1.21601
1.59243
1.99239
2.6378
3.44815
3.97479
4.18364
4.14893
3.40511
1.91794
0.905495
0.4239
0.282126
0.258083
0.289783
0.3519
0.486019
0.688524
0.975255
1.14851
1.14079
0.832344
0.765512
1.3573
2.14925
2.66338
2.80941
1.96003
1.76709
0.721532
0.485016
0.519754
0.829841
1.62984
2.14415
2.14992
1.91291
1.54603
1.23795
0.958016
0.728703
0.57808
0.498259
0.474532
0.485632
0.514398
0.526965
0.47249
0.385852
0.266154
0.183088
0.126252
0.125792
0.0778979
0.066278
0.135065
0.130376
0.134029
0.147767
0.237584
0.379537
0.587984
0.551465
0.440101
0.268726
0.269548
0.405058
0.811286
1.51387
2.20258
2.43483
2.24789
1.70587
1.32061
1.1086
0.758247
0.557832
0.499457
0.479934
0.569016
0.788866
1.13878
1.19135
1.22824
1.27919
1.12251
0.836101
0.678906
0.718647
1.35746
2.15146
1.77494
0.911959
0.540911
0.434571
0.291896
0.266283
0.279754
0.237326
0.261537
0.349631
0.443972
0.505428
0.612362
0.868346
1.22385
1.56077
2.26342
2.91384
2.96595
2.36636
1.02261
0.492888
0.315064
0.232226
0.179707
0.163309
0.171463
0.197722
0.253755
0.424534
0.866903
1.12622
1.28329
1.12876
0.970974
0.711755
0.366189
0.431955
0.393453
0.369292
0.384746
0.386234
0.436138
0.604311
0.988223
1.28459
1.3467
1.34041
1.27063
1.02025
0.688016
0.415332
0.241018
0.14692
0.102217
0.0882643
0.0801667
0.0730455
0.0624919
0.0729302
0.130284
0.10472
0.0652046
0.0707815
0.157732
0.120262
0.112305
0.111608
0.0960073
0.105389
0.158055
0.328536
0.404682
0.337538
0.242517
0.402197
0.938149
1.4216
1.56835
0.950877
0.555763
0.37112
0.296666
0.266373
0.247508
0.243298
0.255814
0.262659
0.27222
0.28233
0.437707
0.938443
0.870961
0.888304
0.862329
0.608254
0.496242
0.72166
1.6983
1.95989
0.741562
0.307271
0.220095
0.223738
0.215327
0.228265
0.257005
0.184551
0.162968
0.167614
0.201394
0.240854
0.27342
0.292599
0.298169
0.318893
0.412985
0.75102
1.88749
2.22879
1.99193
1.03159
0.463223
0.204693
0.106457
0.0790714
0.0795898
0.0957451
0.183681
0.543219
0.917978
0.971003
0.658033
0.401525
0.289849
0.227213
0.174965
0.207691
0.195799
0.248371
0.274893
0.264607
0.253657
0.254647
0.284964
0.36578
0.444457
0.603255
0.793116
0.825481
0.772358
0.565872
0.306788
0.145464
0.069047
0.0420592
0.0362328
0.0362997
0.0407277
0.0733434
0.128222
0.0691221
0.0576334
0.0663873
0.162856
0.117554
0.110863
0.115371
0.107688
0.0783216
0.0790918
0.128485
0.29588
0.332531
0.269939
0.457962
0.838485
0.983889
0.651015
0.336465
0.241033
0.216311
0.213604
0.222298
0.223964
0.229826
0.243303
0.246799
0.243983
0.220887
0.249657
0.38165
0.672125
0.632117
0.561852
0.392852
0.439802
1.00857
1.79117
1.29886
0.311692
0.168317
0.141966
0.11692
0.117138
0.194433
0.267274
0.211508
0.158466
0.144989
0.160961
0.232191
0.28871
0.299454
0.285605
0.247558
0.241825
0.273337
0.484798
1.40654
1.79142
1.58959
0.835166
0.321251
0.125021
0.0784234
0.0781379
0.108149
0.25536
0.638504
0.857075
0.568343
0.312758
0.198203
0.14638
0.122755
0.109448
0.1246
0.114681
0.191932
0.225429
0.216937
0.210773
0.198892
0.187636
0.18793
0.192857
0.210579
0.25682
0.389973
0.532088
0.521012
0.435633
0.246806
0.115268
0.0552499
0.0343018
0.030601
0.0378038
0.0796516
0.109196
0.0490612
0.0435892
0.0596849
0.163067
0.117032
0.12494
0.144123
0.131944
0.0946974
0.0637509
0.073736
0.160301
0.311981
0.295161
0.46639
0.614076
0.589255
0.307872
0.213871
0.199183
0.209653
0.214455
0.227604
0.223999
0.231767
0.240712
0.243572
0.24126
0.221559
0.218425
0.270019
0.536395
0.546307
0.425659
0.320641
0.440349
1.24496
1.68457
0.638132
0.150861
0.110283
0.100851
0.0956256
0.0968403
0.138534
0.211661
0.221524
0.179363
0.152314
0.156272
0.194735
0.297913
0.33468
0.334563
0.308822
0.295108
0.28937
0.310938
0.503811
1.29366
1.47329
1.2525
0.578406
0.212084
0.108302
0.0999061
0.138911
0.335898
0.654152
0.644401
0.318327
0.182579
0.134039
0.10822
0.0819776
0.076793
0.088436
0.0838148
0.147774
0.202988
0.187863
0.188312
0.180724
0.171818
0.166033
0.154996
0.147271
0.14911
0.168997
0.231132
0.36593
0.374385
0.328956
0.19201
0.0838885
0.0409516
0.0315039
0.0380433
0.0798256
0.0854805
0.0371181
0.0337024
0.0561671
0.162622
0.121667
0.149148
0.169787
0.16387
0.134094
0.0713418
0.059013
0.0989956
0.260517
0.304886
0.450839
0.479097
0.345079
0.214397
0.190233
0.204742
0.220154
0.227091
0.247618
0.238899
0.241646
0.244326
0.247586
0.252884
0.230334
0.21452
0.234237
0.419962
0.505853
0.379289
0.295183
0.459133
1.3595
1.30553
0.380853
0.138835
0.0996598
0.0854116
0.093183
0.0925491
0.112785
0.140093
0.180587
0.180368
0.173304
0.167774
0.174276
0.209594
0.318012
0.338048
0.320872
0.29948
0.301598
0.301938
0.337553
0.616498
1.23856
1.23018
0.906951
0.374641
0.163989
0.128471
0.170014
0.384707
0.63095
0.443058
0.201446
0.127742
0.105016
0.0942584
0.0673762
0.0628939
0.0741864
0.0719039
0.128149
0.192666
0.179643
0.176026
0.169007
0.173802
0.173962
0.169345
0.153929
0.131688
0.128362
0.137621
0.183791
0.278651
0.290896
0.25637
0.136841
0.0572856
0.0347567
0.0395837
0.0733989
0.0669102
0.0277299
0.0294419
0.0555917
0.160504
0.131372
0.161784
0.175786
0.188165
0.166273
0.0953889
0.0591968
0.0729651
0.204444
0.296985
0.442107
0.4095
0.243149
0.189985
0.189667
0.214541
0.224388
0.238026
0.245003
0.240169
0.236609
0.242127
0.249979
0.258802
0.244941
0.219591
0.220066
0.312124
0.45348
0.368175
0.302765
0.486815
1.3808
0.98108
0.278688
0.150728
0.107888
0.081985
0.094571
0.0908857
0.102836
0.114027
0.143389
0.162439
0.178959
0.181194
0.17633
0.185624
0.251321
0.30137
0.302242
0.279313
0.277348
0.282988
0.294994
0.37706
0.788816
1.10385
1.01334
0.578644
0.242905
0.160137
0.198579
0.407791
0.552441
0.318778
0.139523
0.094795
0.0848473
0.0777084
0.0623797
0.0539794
0.0669803
0.0652967
0.108994
0.185472
0.183984
0.168638
0.164615
0.174754
0.209136
0.217413
0.20726
0.165195
0.125241
0.116951
0.125166
0.172592
0.237891
0.241423
0.2004
0.0919459
0.0431419
0.0425162
0.0638858
0.0516785
0.0239098
0.027687
0.055902
0.152889
0.147232
0.165952
0.175874
0.20604
0.190979
0.14293
0.06534
0.0652242
0.159081
0.271512
0.420519
0.369745
0.207268
0.180537
0.194398
0.203759
0.190819
0.208644
0.197235
0.200726
0.205891
0.234427
0.250551
0.264842
0.257462
0.232298
0.215766
0.258344
0.375386
0.339446
0.308178
0.511943
1.35662
0.775628
0.227219
0.140585
0.101382
0.0871075
0.096339
0.0913687
0.0997762
0.105573
0.138477
0.153755
0.16218
0.190357
0.194161
0.195115
0.237415
0.279824
0.276625
0.254325
0.245151
0.250676
0.260894
0.294541
0.46823
0.901184
0.942636
0.740342
0.339531
0.19575
0.224592
0.410837
0.477648
0.258246
0.119324
0.0803486
0.0671317
0.0639074
0.0616904
0.0491914
0.0609776
0.0612984
0.0979845
0.172097
0.210391
0.170577
0.164983
0.17503
0.224439
0.275623
0.286572
0.260597
0.170179
0.12055
0.110906
0.122218
0.175122
0.218058
0.209422
0.147084
0.0661526
0.0461955
0.0603573
0.0456977
0.0241537
0.0307329
0.059465
0.15025
0.158132
0.165746
0.168011
0.206853
0.20207
0.174358
0.082328
0.064667
0.122407
0.244444
0.3901
0.319257
0.190636
0.177937
0.188574
0.180181
0.160464
0.185102
0.18337
0.184044
0.196247
0.234619
0.254125
0.283071
0.275454
0.250975
0.215597
0.239593
0.342153
0.335043
0.312637
0.542847
1.25182
0.662091
0.194383
0.13691
0.100651
0.1156
0.103906
0.097109
0.100293
0.104359
0.138526
0.148879
0.142896
0.171417
0.221691
0.232823
0.248818
0.27317
0.267047
0.23924
0.221233
0.222233
0.229538
0.249045
0.327977
0.655859
0.850639
0.783415
0.449978
0.235066
0.245709
0.395866
0.407196
0.229222
0.117312
0.0863859
0.0621719
0.0546112
0.0608911
0.0475371
0.0574499
0.0591399
0.0945939
0.131895
0.218277
0.209971
0.173568
0.174596
0.203079
0.267891
0.301381
0.30671
0.266872
0.156821
0.11444
0.10992
0.128534
0.188961
0.201378
0.175598
0.11295
0.0581527
0.0590734
0.0459753
0.0269791
0.0351876
0.0655566
0.148824
0.162441
0.163494
0.161604
0.188359
0.205437
0.192953
0.118925
0.0670576
0.0983142
0.215155
0.379507
0.29155
0.178559
0.170355
0.170215
0.154271
0.168815
0.192502
0.195806
0.192867
0.208012
0.256163
0.273838
0.291282
0.292923
0.27112
0.217466
0.226636
0.317185
0.347728
0.331752
0.593928
1.11095
0.598141
0.176348
0.133186
0.106988
0.126363
0.106758
0.0987016
0.100694
0.104566
0.138254
0.13919
0.134255
0.160159
0.236607
0.254358
0.253621
0.265697
0.260553
0.227947
0.198666
0.195745
0.200469
0.21437
0.257533
0.466722
0.738736
0.743711
0.542159
0.27555
0.262303
0.372894
0.346234
0.190814
0.110421
0.0900954
0.0662786
0.0499518
0.0562318
0.0476407
0.0565661
0.0584289
0.0943494
0.109281
0.21337
0.251856
0.217064
0.188533
0.192015
0.208729
0.246974
0.291021
0.293652
0.232187
0.135932
0.110026
0.112904
0.151152
0.188739
0.182888
0.153667
0.0906931
0.0641861
0.0457555
0.0318106
0.0385992
0.0726072
0.139039
0.166031
0.165768
0.163232
0.181274
0.202867
0.203079
0.156754
0.0734666
0.0885448
0.183015
0.369935
0.294491
0.173993
0.160861
0.161959
0.150762
0.197228
0.207965
0.216082
0.224145
0.237018
0.273675
0.296512
0.307048
0.308748
0.277229
0.212198
0.207766
0.262515
0.344326
0.363059
0.657728
0.982429
0.546405
0.177191
0.114504