/*--------------------------------*- C++ -*----------------------------------*\
| =========                 |                                                 |
| \\      /  F ield         | OpenFOAM: The Open Source CFD Toolbox           |
|  \\    /   O peration     | Version:  2.4.0                                 |
|   \\  /    A nd           | Web:      www.OpenFOAM.org                      |
|    \\/     M anipulation  |                                                 |
\*---------------------------------------------------------------------------*/
FoamFile
{
    version     2.0;
    format      ascii;
    class       surfaceScalarField;
    location    "0.096";
    object      phi;
}
// * * * * * * * * * * * * * * * * * * * * * * * * * * * * * * * * * * * * * //

dimensions      [0 3 -1 0 0 0 0];

internalField   nonuniform List<scalar> 
8640
(
1.14659e-05
1.35341e-05
7.17538e-06
4.29055e-06
5.91909e-06
1.25629e-06
5.37183e-06
5.47262e-07
5.09507e-06
2.76759e-07
4.90889e-06
1.86178e-07
4.84994e-06
5.895e-08
4.63272e-06
2.17218e-07
4.62637e-06
6.35477e-09
2.79616e-07
4.34675e-06
2.1057e-05
1.7477e-05
1.74472e-05
7.90044e-06
1.55172e-05
3.18629e-06
1.42624e-05
1.80201e-06
1.34795e-05
1.05968e-06
1.30006e-05
6.65089e-07
1.27355e-05
3.2404e-07
1.22771e-05
6.75615e-07
1.22791e-05
4.3738e-09
1.03881e-06
1.15199e-05
2.57182e-05
1.67588e-05
2.40954e-05
9.52326e-06
2.26186e-05
4.6631e-06
2.12479e-05
3.17268e-06
2.02041e-05
2.10352e-06
1.95588e-05
1.31033e-06
1.91082e-05
7.74658e-07
1.85985e-05
1.18535e-06
1.83602e-05
2.42677e-07
1.41598e-06
1.7983e-05
2.74878e-05
1.4271e-05
2.77315e-05
9.2795e-06
2.73826e-05
5.01202e-06
2.65534e-05
4.00185e-06
2.56134e-05
3.04353e-06
2.50184e-05
1.90534e-06
2.44617e-05
1.33133e-06
2.40174e-05
1.6297e-06
2.36511e-05
6.09017e-07
1.88446e-06
2.31826e-05
2.76923e-05
1.15787e-05
2.89131e-05
8.05872e-06
2.96182e-05
4.30688e-06
2.97461e-05
3.87402e-06
2.93242e-05
3.4654e-06
2.90771e-05
2.15245e-06
2.86298e-05
1.77861e-06
2.82953e-05
1.96424e-06
2.80991e-05
8.05174e-07
2.20963e-06
2.7774e-05
2.75244e-05
9.05436e-06
2.89659e-05
6.61716e-06
3.00055e-05
3.26733e-06
3.08147e-05
3.06482e-06
3.10184e-05
3.26166e-06
3.13063e-05
1.86451e-06
3.12849e-05
1.80005e-06
3.11514e-05
2.09779e-06
3.124e-05
7.16503e-07
3.1959e-06
3.02537e-05
2.73718e-05
6.68255e-06
2.88871e-05
5.10191e-06
2.98738e-05
2.28065e-06
3.08318e-05
2.10675e-06
3.13244e-05
2.76904e-06
3.18604e-05
1.32856e-06
3.23089e-05
1.35152e-06
3.24811e-05
1.92563e-06
3.27794e-05
4.18186e-07
4.1242e-06
3.18511e-05
2.72415e-05
4.44104e-06
2.8926e-05
3.4174e-06
2.98458e-05
1.36085e-06
3.07017e-05
1.25089e-06
3.11854e-05
2.28534e-06
3.17236e-05
7.90364e-07
3.24122e-05
6.62871e-07
3.2905e-05
1.43286e-06
3.31749e-05
1.48258e-07
3.1912e-06
3.41079e-05
2.72176e-05
2.22339e-06
2.89707e-05
1.66434e-06
2.97555e-05
5.76054e-07
3.04547e-05
5.51735e-07
3.11307e-05
1.60929e-06
3.17912e-05
1.29828e-07
3.23835e-05
7.05809e-08
3.28364e-05
9.79984e-07
3.30137e-05
-2.90178e-08
1.95856e-06
3.42463e-05
2.72382e-05
-1.48598e-08
2.89585e-05
-5.59367e-08
2.95983e-05
-6.37538e-08
3.03877e-05
-2.37616e-07
3.12778e-05
7.19207e-07
3.1841e-05
-4.33416e-07
3.2206e-05
-2.94454e-07
3.26389e-05
5.47141e-07
3.30663e-05
-4.56437e-07
5.86542e-07
3.44383e-05
2.72517e-05
-2.26658e-06
2.89758e-05
-1.78002e-06
2.96102e-05
-6.98172e-07
3.03733e-05
-1.00066e-06
3.12462e-05
-1.53713e-07
3.17987e-05
-9.85884e-07
3.21737e-05
-6.69509e-07
3.27021e-05
1.87275e-08
3.33075e-05
-1.06181e-06
-4.48382e-07
3.43424e-05
2.73014e-05
-4.56798e-06
2.89902e-05
-3.46882e-06
2.96021e-05
-1.31005e-06
3.03715e-05
-1.7701e-06
3.12865e-05
-1.06871e-06
3.18521e-05
-1.55142e-06
3.22543e-05
-1.07175e-06
3.28089e-05
-5.35935e-07
3.33706e-05
-1.62351e-06
-1.03209e-06
3.39544e-05
2.73432e-05
-6.91116e-06
2.89279e-05
-5.05353e-06
2.96899e-05
-2.07204e-06
3.05252e-05
-2.60545e-06
3.13883e-05
-1.93177e-06
3.18516e-05
-2.0147e-06
3.22916e-05
-1.51179e-06
3.28476e-05
-1.09187e-06
3.32486e-05
-2.02454e-06
-1.531e-06
3.37475e-05
2.73775e-05
-9.28861e-06
2.88196e-05
-6.49565e-06
2.98736e-05
-3.12606e-06
3.06795e-05
-3.41135e-06
3.14429e-05
-2.69517e-06
3.18131e-05
-2.38494e-06
3.22142e-05
-1.91292e-06
3.2578e-05
-1.45563e-06
3.27479e-05
-2.19445e-06
-2.02651e-06
3.32434e-05
2.74725e-05
-1.17612e-05
2.88901e-05
-7.91317e-06
3.00151e-05
-4.25111e-06
3.06853e-05
-4.08157e-06
3.11387e-05
-3.14852e-06
3.12077e-05
-2.45401e-06
3.12478e-05
-1.95299e-06
3.12242e-05
-1.432e-06
3.10756e-05
-2.04589e-06
-2.15265e-06
3.12018e-05
2.76268e-05
-1.4388e-05
2.88799e-05
-9.16622e-06
2.96259e-05
-4.9971e-06
2.96643e-05
-4.11997e-06
2.94062e-05
-2.89039e-06
2.89807e-05
-2.02851e-06
2.86108e-05
-1.58314e-06
2.82865e-05
-1.10766e-06
2.78838e-05
-1.64319e-06
-1.34092e-06
2.7072e-05
2.74349e-05
-1.68229e-05
2.77258e-05
-9.45715e-06
2.73839e-05
-4.65525e-06
2.65075e-05
-3.24349e-06
2.56561e-05
-2.03899e-06
2.49526e-05
-1.32504e-06
2.44064e-05
-1.03695e-06
2.39923e-05
-6.93609e-07
2.3501e-05
-1.15181e-06
-7.17588e-07
2.28776e-05
2.56794e-05
-1.75023e-05
2.40992e-05
-7.87692e-06
2.26207e-05
-3.1768e-06
2.12191e-05
-1.84188e-06
2.02163e-05
-1.03613e-06
1.95286e-05
-6.37363e-07
1.90072e-05
-5.15542e-07
1.86434e-05
-3.29841e-07
1.8131e-05
-6.39407e-07
-2.38153e-07
1.76516e-05
2.10369e-05
-1.35391e-05
1.74486e-05
-4.28868e-06
1.5521e-05
-1.2492e-06
1.42407e-05
-5.61568e-07
1.34771e-05
-2.72558e-07
1.29995e-05
-1.59782e-07
1.26273e-05
-1.43343e-07
1.23805e-05
-8.29675e-08
1.19508e-05
-2.09744e-07
6.28695e-09
1.17064e-05
1.14609e-05
7.1722e-06
5.923e-06
5.36143e-06
5.08887e-06
4.92909e-06
4.78575e-06
4.70278e-06
4.49303e-06
4.49932e-06
5.4198e-06
8.97143e-07
-1.97019e-06
6.80561e-06
2.24627e-06
-3.63208e-06
7.78655e-06
2.63747e-06
-3.61841e-06
9.15775e-06
1.79808e-06
-3.16928e-06
1.02021e-05
2.42319e-06
-3.46752e-06
1.01971e-05
-1.1504e-06
1.15534e-06
1.06394e-05
-2.42656e-06
1.98433e-06
1.06585e-05
-3.1293e-06
3.11017e-06
1.09204e-05
-4.16814e-06
3.90619e-06
1.11698e-05
-2.80205e-06
2.55269e-06
1.20956e-05
-5.39874e-07
-3.8592e-07
1.47061e-05
4.53971e-06
-7.15017e-06
1.7397e-05
2.26404e-06
-4.95496e-06
1.95667e-05
3.11772e-06
-5.28744e-06
2.1768e-05
5.20543e-06
-7.40674e-06
2.26404e-05
3.40902e-07
-1.21332e-06
2.29441e-05
-2.3222e-06
2.01858e-06
2.45426e-05
-5.45285e-06
3.85433e-06
2.50885e-05
-9.73291e-06
9.18698e-06
2.51601e-05
-1.10697e-05
1.09981e-05
2.59665e-05
-1.38557e-05
1.30492e-05
2.64877e-05
-1.72331e-05
1.6712e-05
2.77804e-05
-2.11805e-05
1.98877e-05
2.96584e-05
-2.63837e-05
2.45057e-05
3.00117e-05
-3.05477e-05
3.01944e-05
2.89571e-05
-3.0862e-05
3.19166e-05
2.81902e-05
-2.83874e-05
2.91543e-05
2.86917e-05
-2.96255e-05
2.91239e-05
3.00232e-05
-2.96893e-05
2.83578e-05
3.07885e-05
-2.30233e-05
2.2258e-05
3.18183e-05
-1.98296e-05
1.87998e-05
3.21548e-05
-1.1249e-05
1.09124e-05
3.23175e-05
-2.32492e-07
6.97685e-08
3.35494e-05
7.51842e-06
-8.75032e-06
3.38644e-05
1.59372e-05
-1.62522e-05
3.41176e-05
2.42803e-05
-2.45334e-05
3.4455e-05
2.67421e-05
-2.70796e-05
3.43229e-05
2.87941e-05
-2.8662e-05
3.37378e-05
2.74401e-05
-2.6855e-05
3.27778e-05
2.21756e-05
-2.12156e-05
3.14874e-05
1.2656e-05
-1.13656e-05
3.02176e-05
5.15011e-06
-3.88036e-06
2.93244e-05
-3.34642e-06
4.23964e-06
2.80614e-05
-1.08639e-05
1.21269e-05
2.64536e-05
-1.46964e-05
1.63042e-05
2.49887e-05
-1.97763e-05
2.12412e-05
2.30058e-05
-1.99584e-05
2.19413e-05
2.13584e-05
-1.74016e-05
1.9049e-05
1.99359e-05
-1.51056e-05
1.65282e-05
1.8288e-05
-1.29528e-05
1.46008e-05
1.62189e-05
-1.11894e-05
1.32584e-05
1.62797e-05
-3.44653e-06
3.38573e-06
1.58621e-05
7.66308e-07
-3.48715e-07
1.69658e-05
1.13335e-06
-2.23701e-06
1.65175e-05
-1.56744e-05
1.61228e-05
1.71256e-05
-3.33414e-05
3.27333e-05
1.73546e-05
-5.18049e-05
5.15759e-05
1.70083e-05
-3.36253e-05
3.39716e-05
1.90694e-05
-3.51643e-05
3.31031e-05
1.96545e-05
-2.28908e-05
2.23057e-05
2.08909e-05
-8.24485e-06
7.00845e-06
2.11262e-05
7.93526e-06
-8.17059e-06
2.13738e-05
1.76872e-05
-1.79348e-05
2.16045e-05
3.10026e-05
-3.12334e-05
2.16722e-05
4.18457e-05
-4.19135e-05
2.03122e-05
4.8947e-05
-4.75871e-05
1.86544e-05
4.35397e-05
-4.18818e-05
1.64446e-05
4.00272e-05
-3.78175e-05
1.55113e-05
2.88631e-05
-2.79297e-05
1.42784e-05
3.17028e-05
-3.047e-05
1.49897e-05
2.0704e-05
-2.14153e-05
1.45887e-05
2.64425e-05
-2.60415e-05
1.54343e-05
1.06672e-05
-1.15128e-05
1.51828e-05
1.6935e-05
-1.66836e-05
1.55249e-05
6.82426e-09
-3.48975e-07
1.52313e-05
6.70117e-06
-6.40752e-06
1.61098e-05
-9.90341e-06
9.02488e-06
1.5804e-05
-5.7907e-07
8.84886e-07
1.65225e-05
-1.38604e-05
1.31419e-05
1.5839e-05
-3.17025e-06
3.85374e-06
1.62218e-05
-1.45582e-05
1.41754e-05
1.46912e-05
-5.72937e-06
7.26002e-06
1.54256e-05
-1.83002e-05
1.75658e-05
1.42209e-05
-9.25965e-06
1.04644e-05
1.53509e-05
-1.63553e-05
1.52252e-05
1.44952e-05
-7.44954e-06
8.30528e-06
1.59045e-05
-1.04252e-05
9.01588e-06
1.51079e-05
-2.02185e-06
2.81844e-06
1.59814e-05
-2.52918e-06
1.65567e-06
1.4967e-05
3.38332e-06
-2.36895e-06
1.58703e-05
2.71686e-06
-3.62015e-06
1.50418e-05
7.6863e-06
-6.85775e-06
1.61992e-05
6.98836e-06
-8.14576e-06
1.52078e-05
1.24547e-05
-1.14634e-05
1.59155e-05
1.11202e-05
-1.18278e-05
1.47203e-05
1.83481e-05
-1.7153e-05
1.68772e-05
1.55312e-05
-1.76881e-05
1.52181e-05
2.89524e-05
-2.72933e-05
1.50952e-05
2.85619e-05
-2.8439e-05
5.3216e-05
-5.09554e-05
1.28346e-05
1.12762e-05
1.14082e-06
1.17837e-05
1.73873e-06
1.24899e-05
1.93128e-06
1.35157e-05
7.72342e-07
1.51879e-05
7.50944e-07
1.5188e-05
-1.15052e-06
1.58622e-05
-3.10076e-06
1.6358e-05
-3.62507e-06
1.60823e-05
-3.89246e-06
1.6793e-05
-3.51267e-06
1.73893e-05
-1.13618e-06
1.86545e-05
3.27445e-06
1.96914e-05
1.22719e-06
2.10385e-05
1.77057e-06
2.34874e-05
2.75658e-06
2.4501e-05
-6.72702e-07
2.50511e-05
-2.87235e-06
2.62703e-05
-6.67206e-06
2.6373e-05
-9.83556e-06
2.70076e-05
-1.17044e-05
2.83656e-05
-1.52137e-05
2.93104e-05
-1.81779e-05
3.07834e-05
-2.26535e-05
3.16921e-05
-2.72924e-05
3.06447e-05
-2.95004e-05
2.92506e-05
-2.94679e-05
2.9184e-05
-2.83208e-05
2.97862e-05
-3.02277e-05
3.07822e-05
-3.06853e-05
3.12838e-05
-2.35249e-05
3.17682e-05
-2.0314e-05
3.1997e-05
-1.14777e-05
3.22128e-05
-4.48366e-07
3.35612e-05
6.17007e-06
3.41211e-05
1.53772e-05
3.47004e-05
2.3701e-05
3.51003e-05
2.63422e-05
3.50154e-05
2.8879e-05
3.46769e-05
2.77786e-05
3.39276e-05
2.29249e-05
3.28081e-05
1.37755e-05
3.14386e-05
6.51969e-06
3.03486e-05
-2.25643e-06
2.88483e-05
-9.36368e-06
2.71397e-05
-1.29878e-05
2.54982e-05
-1.81348e-05
2.35738e-05
-1.8034e-05
2.18356e-05
-1.56634e-05
2.03527e-05
-1.36228e-05
1.88006e-05
-1.14007e-05
1.64438e-05
-8.83259e-06
1.58528e-05
-2.8555e-06
1.51423e-05
1.47685e-06
1.61052e-05
1.70388e-07
1.61398e-05
-1.5709e-05
1.59324e-05
-3.3134e-05
1.46044e-05
-5.04769e-05
1.51066e-05
-3.41275e-05
1.75111e-05
-3.75688e-05
1.76201e-05
-2.29998e-05
1.91364e-05
-9.76118e-06
1.95654e-05
7.5063e-06
2.00417e-05
1.72109e-05
2.04704e-05
3.05739e-05
2.089e-05
4.14261e-05
1.9846e-05
4.9991e-05
1.86449e-05
4.47408e-05
1.66697e-05
4.20024e-05
1.60206e-05
2.95122e-05
1.48882e-05
3.28352e-05
1.57425e-05
1.98497e-05
1.54345e-05
2.67506e-05
1.64003e-05
9.70131e-06
1.62957e-05
1.70397e-05
1.65693e-05
-2.66726e-07
1.59973e-05
7.27319e-06
1.65121e-05
-1.04182e-05
1.64327e-05
-4.99663e-07
1.7209e-05
-1.46367e-05
1.66951e-05
-2.65639e-06
1.71677e-05
-1.50307e-05
1.57844e-05
-4.34616e-06
1.64104e-05
-1.89261e-05
1.52029e-05
-8.05218e-06
1.63951e-05
-1.75475e-05
1.51508e-05
-6.20525e-06
1.6858e-05
-1.21323e-05
1.57191e-05
-8.83019e-07
1.6972e-05
-3.78202e-06
1.55402e-05
4.81511e-06
1.64895e-05
1.76757e-06
1.50621e-05
9.11366e-06
1.64083e-05
5.64215e-06
1.56357e-05
1.32274e-05
1.71083e-05
9.64755e-06
1.47011e-05
2.07553e-05
1.54659e-05
1.47664e-05
1.54325e-05
2.89858e-05
2.05737e-05
2.34207e-05
5.3733e-05
2.00567e-05
1.79989e-05
1.12495e-06
1.82618e-05
1.47582e-06
1.87038e-05
1.48931e-06
1.91808e-05
2.95277e-07
2.05227e-05
-5.90963e-07
2.07934e-05
-1.42121e-06
2.1173e-05
-3.48031e-06
2.16674e-05
-4.11953e-06
2.13766e-05
-3.60167e-06
2.18529e-05
-3.98889e-06
2.24823e-05
-1.7656e-06
2.37841e-05
1.97262e-06
2.42959e-05
7.15384e-07
2.46034e-05
1.46313e-06
2.6362e-05
9.97968e-07
2.72385e-05
-1.54927e-06
2.81354e-05
-3.76924e-06
2.93841e-05
-7.92077e-06
2.94403e-05
-9.89168e-06
3.02529e-05
-1.2517e-05
3.14137e-05
-1.63745e-05
3.19547e-05
-1.87188e-05
3.26662e-05
-2.3365e-05
3.21701e-05
-2.67963e-05
3.02622e-05
-2.75926e-05
2.93191e-05
-2.85248e-05
2.98238e-05
-2.88254e-05
3.01203e-05
-3.05242e-05
3.03733e-05
-3.09383e-05
3.06553e-05
-2.38069e-05
3.07699e-05
-2.04286e-05
3.1107e-05
-1.18149e-05
3.1696e-05
-1.03735e-06
3.28694e-05
4.99663e-06
3.37071e-05
1.45396e-05
3.47451e-05
2.2663e-05
3.51675e-05
2.59199e-05
3.5147e-05
2.88995e-05
3.49486e-05
2.7977e-05
3.43538e-05
2.35197e-05
3.34435e-05
1.46858e-05
3.19989e-05
7.96433e-06
3.08193e-05
-1.07686e-06
2.92202e-05
-7.76461e-06
2.7554e-05
-1.13216e-05
2.58167e-05
-1.63975e-05
2.38755e-05
-1.60928e-05
2.20352e-05
-1.38231e-05
2.05395e-05
-1.21271e-05
1.90423e-05
-9.90355e-06
1.647e-05
-6.26024e-06
1.51741e-05
-1.55964e-06
1.41648e-05
2.48612e-06
1.54226e-05
-1.08739e-06
1.53263e-05
-1.56127e-05
1.34748e-05
-3.12825e-05
1.13472e-05
-4.83494e-05
1.34086e-05
-3.61888e-05
1.59374e-05
-4.00975e-05
1.5476e-05
-2.25384e-05
1.73666e-05
-1.16517e-05
1.78765e-05
6.99633e-06
1.85374e-05
1.655e-05
1.90928e-05
3.00186e-05
1.97806e-05
4.07383e-05
1.91141e-05
5.06575e-05
1.83435e-05
4.55114e-05
1.66884e-05
4.36575e-05
1.6482e-05
2.97186e-05
1.54197e-05
3.38974e-05
1.64163e-05
1.88531e-05
1.61831e-05
2.69838e-05
1.7167e-05
8.71742e-06
1.71767e-05
1.70299e-05
1.74579e-05
-5.47858e-07
1.68204e-05
7.9107e-06
1.71333e-05
-1.07312e-05
1.71662e-05
-5.32538e-07
1.78452e-05
-1.53158e-05
1.73898e-05
-2.20094e-06
1.77646e-05
-1.54055e-05
1.67369e-05
-3.3185e-06
1.70704e-05
-1.92596e-05
1.60317e-05
-7.01344e-06
1.72257e-05
-1.87415e-05
1.5862e-05
-4.84155e-06
1.75336e-05
-1.38039e-05
1.61393e-05
5.11231e-07
1.80542e-05
-5.69692e-06
1.63326e-05
6.53675e-06
1.78304e-05
2.69802e-07
1.59074e-05
1.10367e-05
1.73031e-05
4.24638e-06
1.5955e-05
1.45755e-05
1.82569e-05
7.34558e-06
1.80515e-05
2.09607e-05
1.96222e-05
1.31958e-05
1.73395e-05
3.12685e-05
2.23846e-05
1.83756e-05
5.28834e-05
2.32343e-05
2.34431e-05
8.64407e-07
2.37834e-05
1.13557e-06
2.42177e-05
1.055e-06
2.46996e-05
-1.8664e-07
2.55317e-05
-1.42306e-06
2.57817e-05
-1.67121e-06
2.60851e-05
-3.78374e-06
2.63033e-05
-4.33774e-06
2.60886e-05
-3.38698e-06
2.64891e-05
-4.38939e-06
2.67921e-05
-2.06857e-06
2.79808e-05
7.83929e-07
2.86273e-05
6.89237e-08
2.8859e-05
1.23136e-06
2.99859e-05
-1.28919e-07
3.0438e-05
-2.00138e-06
3.13791e-05
-4.71037e-06
3.21701e-05
-8.71169e-06
3.22471e-05
-9.96874e-06
3.30272e-05
-1.32971e-05
3.34155e-05
-1.67627e-05
3.3423e-05
-1.87264e-05
3.33041e-05
-2.32461e-05
3.19554e-05
-2.54476e-05
3.01491e-05
-2.57863e-05
2.96821e-05
-2.80578e-05
2.99821e-05
-2.91254e-05
2.95982e-05
-3.01402e-05
2.90634e-05
-3.04035e-05
2.92364e-05
-2.39799e-05
2.92506e-05
-2.04428e-05
2.97848e-05
-1.2349e-05
3.07702e-05
-2.02281e-06
3.15271e-05
4.23975e-06
3.24945e-05
1.35722e-05
3.40551e-05
2.11023e-05
3.47107e-05
2.52643e-05
3.48334e-05
2.87768e-05
3.46849e-05
2.81255e-05
3.42617e-05
2.39428e-05
3.34824e-05
1.54651e-05
3.21068e-05
9.34001e-06
3.09295e-05
1.00379e-07
2.92874e-05
-6.12247e-06
2.77105e-05
-9.74463e-06
2.59497e-05
-1.46367e-05
2.41248e-05
-1.42679e-05
2.22201e-05
-1.19184e-05
2.06955e-05
-1.06025e-05
1.90306e-05
-8.23863e-06
1.6444e-05
-3.67364e-06
1.44238e-05
4.60532e-07
1.30291e-05
3.8808e-06
1.44956e-05
-2.55392e-06
1.40732e-05
-1.51902e-05
1.11261e-05
-2.83354e-05
9.5281e-06
-4.67513e-05
1.31453e-05
-3.9806e-05
1.49784e-05
-4.19306e-05
1.35935e-05
-2.11536e-05
1.57402e-05
-1.37985e-05
1.58776e-05
6.85901e-06
1.70185e-05
1.54091e-05
1.78323e-05
2.92048e-05
1.87368e-05
3.98339e-05
1.84461e-05
5.09482e-05
1.80524e-05
4.59051e-05
1.65956e-05
4.51144e-05
1.6745e-05
2.95691e-05
1.58009e-05
3.48416e-05
1.67721e-05
1.78819e-05
1.67604e-05
2.69955e-05
1.7736e-05
7.74184e-06
1.78289e-05
1.6937e-05
1.80827e-05
-8.01637e-07
1.75408e-05
8.45256e-06
1.77567e-05
-1.0947e-05
1.78274e-05
-6.03216e-07
1.84818e-05
-1.59702e-05
1.81112e-05
-1.83038e-06
1.84408e-05
-1.57351e-05
1.77313e-05
-2.609e-06
1.78059e-05
-1.93342e-05
1.69836e-05
-6.19112e-06
1.78693e-05
-1.96272e-05
1.64942e-05
-3.46643e-06
1.81961e-05
-1.55058e-05
1.67619e-05
1.94545e-06
1.89938e-05
-7.92887e-06
1.72914e-05
8.23919e-06
1.97949e-05
-2.23375e-06
1.7502e-05
1.33296e-05
1.8741e-05
3.00731e-06
1.62238e-05
1.70927e-05
1.66848e-05
6.88459e-06
1.64046e-05
2.12409e-05
1.99192e-05
9.68116e-06
2.00605e-05
3.11273e-05
2.60016e-05
1.24344e-05
5.10571e-05
2.78279e-05
2.76993e-05
9.39068e-07
2.80647e-05
7.70118e-07
2.85223e-05
5.97402e-07
2.89977e-05
-6.61952e-07
2.95422e-05
-1.96765e-06
2.97161e-05
-1.84502e-06
2.98681e-05
-3.93575e-06
2.9755e-05
-4.22471e-06
2.96804e-05
-3.31237e-06
2.99306e-05
-4.63954e-06
3.00826e-05
-2.22053e-06
3.11517e-05
-2.85237e-07
3.16401e-05
-4.19439e-07
3.21726e-05
6.9888e-07
3.29664e-05
-9.22732e-07
3.31445e-05
-2.17946e-06
3.39352e-05
-5.5011e-06
3.40759e-05
-8.85238e-06
3.40133e-05
-9.90613e-06
3.44492e-05
-1.37331e-05
3.41588e-05
-1.64722e-05
3.38125e-05
-1.83801e-05
3.30236e-05
-2.24572e-05
3.10992e-05
-2.35232e-05
2.96865e-05
-2.43736e-05
2.95009e-05
-2.78722e-05
2.93211e-05
-2.89456e-05
2.83874e-05
-2.92065e-05
2.74493e-05
-2.94653e-05
2.77111e-05
-2.42417e-05
2.77753e-05
-2.0507e-05
2.83436e-05
-1.29174e-05
2.94496e-05
-3.1288e-06
2.96855e-05
4.00391e-06
3.05898e-05
1.26679e-05
3.2537e-05
1.91551e-05
3.35713e-05
2.42299e-05
3.40423e-05
2.83059e-05
3.40216e-05
2.81462e-05
3.37329e-05
2.42316e-05
3.29626e-05
1.62353e-05
3.17855e-05
1.05172e-05
3.07141e-05
1.17177e-06
2.90746e-05
-4.48297e-06
2.76656e-05
-8.33564e-06
2.59105e-05
-1.28816e-05
2.41512e-05
-1.25086e-05
2.22488e-05
-1.0016e-05
2.0753e-05
-9.10665e-06
1.88641e-05
-6.34972e-06
1.65582e-05
-1.36779e-06
1.41076e-05
2.91119e-06
1.2347e-05
5.64142e-06
1.31318e-05
-3.33871e-06
1.28209e-05
-1.48794e-05
1.08588e-05
-2.63733e-05
1.01994e-05
-4.6092e-05
1.4334e-05
-4.39406e-05
1.4325e-05
-4.19217e-05
1.18136e-05
-1.86421e-05
1.38909e-05
-1.58758e-05
1.377e-05
6.97989e-06
1.55297e-05
1.36494e-05
1.62457e-05
2.84887e-05
1.73359e-05
3.87437e-05
1.74406e-05
5.08435e-05
1.75828e-05
4.57628e-05
1.6381e-05
4.63163e-05
1.68941e-05
2.9056e-05
1.62061e-05
3.55296e-05
1.70561e-05
1.70318e-05
1.72313e-05
2.68204e-05
1.82269e-05
6.74629e-06
1.84404e-05
1.67235e-05
1.86806e-05
-1.04185e-06
1.82961e-05
8.83705e-06
1.84647e-05
-1.11157e-05
1.8539e-05
-6.77523e-07
1.9091e-05
-1.65222e-05
1.88396e-05
-1.57904e-06
1.90612e-05
-1.59567e-05
1.85667e-05
-2.11443e-06
1.84191e-05
-1.91866e-05
1.77328e-05
-5.50488e-06
1.82826e-05
-2.0177e-05
1.69467e-05
-2.13055e-06
1.80702e-05
-1.66293e-05
1.72723e-05
2.74335e-06
1.95735e-05
-1.02301e-05
1.88037e-05
9.00898e-06
2.20951e-05
-5.52521e-06
2.15091e-05
1.39157e-05
2.43999e-05
1.16449e-07
2.24192e-05
1.90734e-05
2.36536e-05
5.65024e-06
1.97054e-05
2.51891e-05
2.1575e-05
7.81153e-06
1.84437e-05
3.42587e-05
2.25531e-05
8.325e-06
4.46462e-05
2.8964e-05
3.04713e-05
7.21517e-07
3.12341e-05
7.33347e-09
3.1793e-05
3.85155e-08
3.22213e-05
-1.09027e-06
3.24364e-05
-2.18273e-06
3.25177e-05
-1.92634e-06
3.2535e-05
-3.95304e-06
3.21841e-05
-3.87387e-06
3.22535e-05
-3.38177e-06
3.22128e-05
-4.59886e-06
3.23257e-05
-2.33335e-06
3.31587e-05
-1.11824e-06
3.33981e-05
-6.58837e-07
3.41206e-05
-2.36154e-08
3.45639e-05
-1.36611e-06
3.4757e-05
-2.37249e-06
3.52574e-05
-6.00151e-06
3.49074e-05
-8.5024e-06
3.48849e-05
-9.88364e-06
3.48805e-05
-1.37287e-05
3.40166e-05
-1.56084e-05
3.33278e-05
-1.76913e-05
3.20477e-05
-2.11771e-05
3.02695e-05
-2.17449e-05
2.95423e-05
-2.36465e-05
2.923e-05
-2.75599e-05
2.81404e-05
-2.78561e-05
2.66042e-05
-2.76703e-05
2.54982e-05
-2.83593e-05
2.58301e-05
-2.45736e-05
2.60118e-05
-2.06887e-05
2.65025e-05
-1.34081e-05
2.74178e-05
-4.04408e-06
2.73213e-05
4.10039e-06
2.82288e-05
1.17604e-05
3.02081e-05
1.71759e-05
3.15998e-05
2.28383e-05
3.25943e-05
2.73113e-05
3.27333e-05
2.80071e-05
3.26884e-05
2.42765e-05
3.19946e-05
1.69292e-05
3.10447e-05
1.1467e-05
3.00474e-05
2.16909e-06
2.84178e-05
-2.85335e-06
2.71886e-05
-7.10645e-06
2.56756e-05
-1.13687e-05
2.40605e-05
-1.08934e-05
2.22594e-05
-8.21495e-06
2.08317e-05
-7.67899e-06
1.86629e-05
-4.18091e-06
1.66545e-05
6.40644e-07
1.41853e-05
5.38033e-06
1.24766e-05
7.35011e-06
1.19427e-05
-2.80476e-06
1.20537e-05
-1.49904e-05
1.24464e-05
-2.67661e-05
1.16797e-05
-4.53252e-05
1.4639e-05
-4.69e-05
1.26461e-05
-3.99287e-05
9.99585e-06
-1.59919e-05
1.19706e-05
-1.78506e-05
1.16001e-05
7.35045e-06
1.42558e-05
1.09937e-05
1.47024e-05
2.80421e-05
1.61844e-05
3.72617e-05
1.65971e-05
5.04308e-05
1.72701e-05
4.50898e-05
1.62111e-05
4.73753e-05
1.70149e-05
2.82522e-05
1.66442e-05
3.59004e-05
1.74536e-05
1.62224e-05
1.77612e-05
2.65127e-05
1.86111e-05
5.89641e-06
1.89752e-05
1.63594e-05
1.91854e-05
-1.25202e-06
1.91011e-05
8.92132e-06
1.92956e-05
-1.13102e-05
1.94275e-05
-8.09387e-07
1.97525e-05
-1.68472e-05
1.95619e-05
-1.38839e-06
1.97607e-05
-1.61555e-05
1.94444e-05
-1.79815e-06
1.92949e-05
-1.90372e-05
1.85359e-05
-4.74582e-06
1.8382e-05
-2.00231e-05
1.71231e-05
-8.71661e-07
1.72159e-05
-1.67221e-05
1.62655e-05
3.69375e-06
1.73967e-05
-1.13613e-05
1.65046e-05
9.90114e-06
1.8926e-05
-7.94665e-06
1.90921e-05
1.37496e-05
2.3221e-05
-4.01248e-06
2.26531e-05
1.96413e-05
2.74203e-05
8.83058e-07
2.47812e-05
2.78282e-05
2.859e-05
4.00273e-06
2.55873e-05
3.72614e-05
2.40997e-05
9.81263e-06
4.00107e-05
2.87351e-05
3.23396e-05
2.33023e-07
3.32176e-05
-8.70669e-07
3.38032e-05
-5.47078e-07
3.41087e-05
-1.39578e-06
3.40006e-05
-2.07464e-06
3.40541e-05
-1.97979e-06
3.38341e-05
-3.73309e-06
3.34604e-05
-3.50015e-06
3.35939e-05
-3.51523e-06
3.32287e-05
-4.23368e-06
3.33984e-05
-2.50305e-06
3.39408e-05
-1.66061e-06
3.41054e-05
-8.23509e-07
3.48331e-05
-7.51292e-07
3.49531e-05
-1.48613e-06
3.51799e-05
-2.59929e-06
3.52818e-05
-6.10336e-06
3.47367e-05
-7.9573e-06
3.48348e-05
-9.98174e-06
3.4386e-05
-1.32798e-05
3.33232e-05
-1.45456e-05
3.26373e-05
-1.70055e-05
3.12609e-05
-1.98007e-05
2.99338e-05
-2.04179e-05
2.95268e-05
-2.32394e-05
2.83871e-05
-2.64202e-05
2.61104e-05
-2.55794e-05
2.41437e-05
-2.57036e-05
2.31697e-05
-2.73853e-05
2.36207e-05
-2.50246e-05
2.38368e-05
-2.09048e-05
2.41268e-05
-1.36981e-05
2.47377e-05
-4.65498e-06
2.46667e-05
4.1714e-06
2.55765e-05
1.08506e-05
2.72729e-05
1.54795e-05
2.90507e-05
2.10604e-05
3.05854e-05
2.57767e-05
3.10608e-05
2.75317e-05
3.13486e-05
2.39886e-05
3.06261e-05
1.76517e-05
2.99105e-05
1.21826e-05
2.89587e-05
3.12085e-06
2.74788e-05
-1.37345e-06
2.64068e-05
-6.03446e-06
2.51617e-05
-1.01236e-05
2.37368e-05
-9.46841e-06
2.20082e-05
-6.48642e-06
2.05458e-05
-6.21661e-06
1.82187e-05
-1.85379e-06
1.64756e-05
2.3838e-06
1.43571e-05
7.49886e-06
1.31719e-05
8.53525e-06
1.15377e-05
-1.17059e-06
1.1613e-05
-1.50657e-05
1.34515e-05
-2.86045e-05
1.09592e-05
-4.28329e-05
1.11301e-05
-4.70709e-05
8.98425e-06
-3.77828e-05
8.05338e-06
-1.5061e-05
1.02439e-05
-2.00411e-05
9.87536e-06
7.71902e-06
1.30431e-05
7.82597e-06
1.27861e-05
2.82991e-05
1.47418e-05
3.5306e-05
1.53801e-05
4.97925e-05
1.6734e-05
4.37359e-05
1.60266e-05
4.80826e-05
1.69493e-05
2.73295e-05
1.68989e-05
3.59508e-05
1.7692e-05
1.54292e-05
1.82777e-05
2.5927e-05
1.90387e-05
5.1354e-06
1.95948e-05
1.58034e-05
1.98651e-05
-1.52238e-06
2.00371e-05
8.74935e-06
2.01645e-05
-1.14375e-05
2.03718e-05
-1.01672e-06
2.06262e-05
-1.71016e-05
2.05618e-05
-1.32397e-06
2.07743e-05
-1.63679e-05
2.06034e-05
-1.62734e-06
2.05318e-05
-1.89655e-05
1.96908e-05
-3.90482e-06
1.94984e-05
-1.98307e-05
1.81494e-05
4.77329e-07
1.78588e-05
-1.64315e-05
1.63571e-05
5.19542e-06
1.7119e-05
-1.21231e-05
1.51382e-05
1.18819e-05
1.63648e-05
-9.17327e-06
1.5011e-05
1.51034e-05
1.80994e-05
-7.10083e-06
1.69787e-05
2.07619e-05
2.12729e-05
-3.41113e-06
2.11708e-05
2.79303e-05
2.58466e-05
-6.73042e-07
2.7979e-05
3.5129e-05
2.72643e-05
1.05273e-05
3.72268e-05
3.00482e-05
3.4225e-05
1.1595e-07
3.40764e-05
-7.22096e-07
3.4457e-05
-9.27695e-07
3.46019e-05
-1.54069e-06
3.42856e-05
-1.75831e-06
3.4343e-05
-2.03721e-06
3.39228e-05
-3.31283e-06
3.37436e-05
-3.32096e-06
3.38774e-05
-3.64907e-06
3.33352e-05
-3.6915e-06
3.3434e-05
-2.60177e-06
3.3701e-05
-1.92763e-06
3.40619e-05
-1.18444e-06
3.46576e-05
-1.34701e-06
3.46229e-05
-1.45142e-06
3.49067e-05
-2.88303e-06
3.47465e-05
-5.94316e-06
3.43815e-05
-7.59233e-06
3.44694e-05
-1.00696e-05
3.36146e-05
-1.2425e-05
3.26186e-05
-1.35496e-05
3.20282e-05
-1.64151e-05
3.07466e-05
-1.85191e-05
2.97872e-05
-1.94584e-05
2.9009e-05
-2.24612e-05
2.65199e-05
-2.39312e-05
2.32446e-05
-2.23041e-05
2.12798e-05
-2.37387e-05
2.06324e-05
-2.67379e-05
2.10855e-05
-2.54777e-05
2.1189e-05
-2.10083e-05
2.12383e-05
-1.37474e-05
2.16417e-05
-5.05842e-06
2.19163e-05
3.8968e-06
2.28987e-05
9.86821e-06
2.42407e-05
1.41375e-05
2.61582e-05
1.91429e-05
2.78599e-05
2.4075e-05
2.87091e-05
2.66825e-05
2.93413e-05
2.33564e-05
2.87682e-05
1.82249e-05
2.84663e-05
1.24846e-05
2.74984e-05
4.08868e-06
2.627e-05
-1.45063e-07
2.54476e-05
-5.21206e-06
2.43855e-05
-9.06144e-06
2.31319e-05
-8.21484e-06
2.16515e-05
-5.00602e-06
2.01821e-05
-4.74727e-06
1.78934e-05
4.34993e-07
1.6154e-05
4.12318e-06
1.42884e-05
9.36441e-06
1.37144e-05
9.10923e-06
1.19985e-05
5.4538e-07
1.11821e-05
-1.42493e-05
1.19139e-05
-2.93363e-05
7.20485e-06
-3.81239e-05
4.51046e-06
-4.43765e-05
4.41339e-06
-3.76858e-05
6.47077e-06
-1.71184e-05
8.4889e-06
-2.20593e-05
8.08583e-06
8.12208e-06
1.1533e-05
4.37876e-06
1.10166e-05
2.88155e-05
1.38399e-05
3.24827e-05
1.42491e-05
4.93834e-05
1.613e-05
4.1855e-05
1.58937e-05
4.83189e-05
1.69359e-05
2.62873e-05
1.71639e-05
3.57228e-05
1.7866e-05
1.47272e-05
1.87389e-05
2.50541e-05
1.94398e-05
4.4345e-06
2.01947e-05
1.50485e-05
2.05026e-05
-1.83035e-06
2.10373e-05
8.21467e-06
2.113e-05
-1.15302e-05
2.1436e-05
-1.32275e-06
2.12773e-05
-1.69429e-05
2.13006e-05
-1.34725e-06
2.13608e-05
-1.64281e-05
2.14356e-05
-1.70222e-06
2.13205e-05
-1.88503e-05
2.05212e-05
-3.10552e-06
1.99353e-05
-1.92449e-05
1.84839e-05
1.92879e-06
1.81072e-05
-1.60548e-05
1.64149e-05
6.88773e-06
1.73159e-05
-1.30242e-05
1.56808e-05
1.35171e-05
1.69746e-05
-1.04671e-05
1.5192e-05
1.6886e-05
1.79532e-05
-9.86198e-06
1.63069e-05
2.24083e-05
1.89547e-05
-6.05895e-06
1.86627e-05
2.82223e-05
2.13684e-05
-3.37878e-06
2.5107e-05
3.13904e-05
2.69619e-05
8.67245e-06
3.33931e-05
3.07955e-05
3.44855e-05
-1.23228e-07
3.43405e-05
-5.77049e-07
3.45043e-05
-1.09153e-06
3.4432e-05
-1.4684e-06
3.41754e-05
-1.50174e-06
3.4222e-05
-2.08377e-06
3.38068e-05
-2.89765e-06
3.38131e-05
-3.3272e-06
3.37015e-05
-3.53753e-06
3.32034e-05
-3.19334e-06
3.34254e-05
-2.82383e-06
3.36179e-05
-2.12011e-06
3.39371e-05
-1.50369e-06
3.42225e-05
-1.6324e-06
3.43185e-05
-1.54736e-06
3.46791e-05
-3.24368e-06
3.44883e-05
-5.75239e-06
3.42954e-05
-7.39934e-06
3.39959e-05
-9.77014e-06
3.29845e-05
-1.14136e-05
3.23877e-05
-1.29528e-05
3.17508e-05
-1.57783e-05
3.0376e-05
-1.71442e-05
2.9284e-05
-1.83664e-05
2.7594e-05
-2.07711e-05
2.3994e-05
-2.03312e-05
2.03367e-05
-1.86469e-05
1.85774e-05
-2.19794e-05
1.81345e-05
-2.62951e-05
1.83514e-05
-2.56946e-05
1.82508e-05
-2.09076e-05
1.81481e-05
-1.36447e-05
1.84443e-05
-5.35458e-06
1.90539e-05
3.28713e-06
2.00152e-05
8.90692e-06
2.11252e-05
1.30275e-05
2.29435e-05
1.73246e-05
2.46781e-05
2.23403e-05
2.60042e-05
2.53564e-05
2.68337e-05
2.25269e-05
2.65287e-05
1.85299e-05
2.66147e-05
1.23986e-05
2.57341e-05
4.96923e-06
2.49131e-05
6.7597e-07
2.44314e-05
-4.73038e-06
2.35269e-05
-8.15688e-06
2.23126e-05
-7.00058e-06
2.09921e-05
-3.68555e-06
1.93971e-05
-3.15228e-06
1.74214e-05
2.4107e-06
1.57009e-05
5.84373e-06
1.39368e-05
1.11285e-05
1.36317e-05
9.4143e-06
1.25739e-05
1.60318e-06
1.0946e-05
-1.26214e-05
8.59659e-06
-2.69869e-05
3.57064e-06
-3.30979e-05
1.96368e-08
-4.08255e-05
1.917e-06
-3.95831e-05
6.00194e-06
-2.12034e-05
6.66007e-06
-2.27174e-05
6.63244e-06
8.14971e-06
1.00228e-05
9.88423e-07
8.9811e-06
2.98572e-05
1.25951e-05
2.88688e-05
1.26501e-05
4.93283e-05
1.52769e-05
3.92282e-05
1.56007e-05
4.79951e-05
1.67975e-05
2.50905e-05
1.74388e-05
3.50814e-05
1.80969e-05
1.40691e-05
1.92183e-05
2.39326e-05
1.98924e-05
3.76041e-06
2.08968e-05
1.40441e-05
2.11861e-05
-2.11963e-06
2.2054e-05
7.34673e-06
2.22084e-05
-1.16845e-05
2.26363e-05
-1.75066e-06
2.22466e-05
-1.65533e-05
2.23952e-05
-1.49581e-06
2.24634e-05
-1.64963e-05
2.28041e-05
-2.04289e-06
2.25004e-05
-1.85466e-05
2.1654e-05
-2.25915e-06
2.07176e-05
-1.83084e-05
1.9106e-05
3.54039e-06
1.85153e-05
-1.54642e-05
1.65861e-05
8.81688e-06
1.71646e-05
-1.36026e-05
1.56984e-05
1.49833e-05
1.66502e-05
-1.14189e-05
1.52085e-05
1.83277e-05
1.72845e-05
-1.1938e-05
1.6876e-05
2.28168e-05
1.84584e-05
-7.64133e-06
1.89157e-05
2.7765e-05
1.89895e-05
-3.45264e-06
2.22522e-05
2.81277e-05
2.42736e-05
6.6511e-06
2.8103e-05
2.95637e-05
3.45985e-05
-2.83369e-07
3.44786e-05
-4.57207e-07
3.43804e-05
-9.93297e-07
3.40525e-05
-1.14052e-06
3.39983e-05
-1.44757e-06
3.40635e-05
-2.14895e-06
3.37883e-05
-2.62239e-06
3.37273e-05
-3.26624e-06
3.34109e-05
-3.22116e-06
3.33997e-05
-3.18214e-06
3.37972e-05
-3.22127e-06
3.37083e-05
-2.03123e-06
3.37792e-05
-1.57462e-06
3.40322e-05
-1.88539e-06
3.43814e-05
-1.89653e-06
3.45453e-05
-3.40762e-06
3.41794e-05
-5.3865e-06
3.39139e-05
-7.13385e-06
3.33074e-05
-9.1636e-06
3.25207e-05
-1.0627e-05
3.21847e-05
-1.26167e-05
3.12132e-05
-1.48067e-05
2.96737e-05
-1.56047e-05
2.8276e-05
-1.69688e-05
2.5578e-05
-1.80731e-05
2.10061e-05
-1.57593e-05
1.7065e-05
-1.47058e-05
1.53997e-05
-2.03141e-05
1.50536e-05
-2.59489e-05
1.50339e-05
-2.5675e-05
1.48657e-05
-2.07394e-05
1.48047e-05
-1.35837e-05
1.49609e-05
-5.5108e-06
1.5611e-05
2.63706e-06
1.67136e-05
7.80432e-06
1.80911e-05
1.16501e-05
1.96714e-05
1.57443e-05
2.12689e-05
2.07429e-05
2.2922e-05
2.37033e-05
2.38392e-05
2.16097e-05
2.39658e-05
1.84033e-05
2.42782e-05
1.20861e-05
2.35392e-05
5.70827e-06
2.32969e-05
9.18269e-07
2.31868e-05
-4.62024e-06
2.24186e-05
-7.38873e-06
2.12032e-05
-5.78519e-06
2.0073e-05
-2.55529e-06
1.84878e-05
-1.56713e-06
1.68047e-05
4.09385e-06