/*--------------------------------*- C++ -*----------------------------------*\
| =========                 |                                                 |
| \\      /  F ield         | OpenFOAM: The Open Source CFD Toolbox           |
|  \\    /   O peration     | Version:  2.4.0                                 |
|   \\  /    A nd           | Web:      www.OpenFOAM.org                      |
|    \\/     M anipulation  |                                                 |
\*---------------------------------------------------------------------------*/
FoamFile
{
    version     2.0;
    format      ascii;
    class       volScalarField;
    location    "0.008";
    object      k;
}
// * * * * * * * * * * * * * * * * * * * * * * * * * * * * * * * * * * * * * //

dimensions      [0 2 -2 0 0 0 0];

internalField   nonuniform List<scalar> 
17600
(
2.35914
3.54071
4.16052
4.44525
4.55072
4.5671
4.54286
4.50246
4.45752
4.41323
4.37168
4.33351
4.29871
4.26701
4.23799
4.21121
4.18584
4.16164
4.13155
4.13161
3.53171
2.92567
2.60642
2.45185
2.36457
2.3085
2.27054
2.24467
2.2274
2.21631
2.20963
2.20602
2.20448
2.2043
2.20503
2.20635
2.20834
2.21136
2.22531
2.29324
1.60736
1.7581
1.71197
1.64468
1.58314
1.53218
1.49268
1.464
1.44485
1.43375
1.42916
1.42966
1.434
1.44116
1.45033
1.46094
1.47287
1.48663
1.51028
1.56734
0.857462
1.07259
1.14136
1.15344
1.1425
1.12288
1.10174
1.08267
1.0674
1.05664
1.05047
1.04862
1.05065
1.05601
1.0642
1.07477
1.08761
1.10324
1.12718
1.17231
0.583699
0.731929
0.810654
0.848828
0.863971
0.866117
0.861516
0.853999
0.845952
0.838851
0.833579
0.830617
0.830171
0.832271
0.836854
0.843832
0.853315
0.865884
0.885399
0.918967
0.4765
0.567574
0.628714
0.666912
0.68915
0.70057
0.705035
0.705263
0.703176
0.700134
0.697095
0.694726
0.693478
0.693651
0.695443
0.699016
0.70465
0.712974
0.726725
0.749752
0.429302
0.485678
0.528982
0.559947
0.580998
0.594441
0.602358
0.606401
0.607854
0.607713
0.606742
0.605529
0.604523
0.60407
0.604445
0.605897
0.608761
0.613621
0.622409
0.637128
0.406053
0.442238
0.472603
0.496233
0.513813
0.526306
0.53478
0.54018
0.543305
0.544816
0.545257
0.54507
0.54462
0.544205
0.544084
0.544501
0.545767
0.548367
0.553655
0.562614
0.393531
0.417588
0.439213
0.457077
0.471195
0.481918
0.489788
0.495337
0.49905
0.501352
0.502612
0.503143
0.503216
0.503063
0.502895
0.502918
0.503391
0.504694
0.507778
0.513083
0.386336
0.402751
0.418462
0.432081
0.443344
0.452313
0.459253
0.464461
0.468232
0.470837
0.472519
0.473499
0.473967
0.474099
0.474056
0.474001
0.474141
0.474762
0.476546
0.479658
0.382012
0.393396
0.405006
0.415524
0.424564
0.432038
0.438055
0.442779
0.446384
0.449043
0.450919
0.452161
0.452905
0.453279
0.453404
0.453405
0.453445
0.453738
0.454786
0.456624
0.379331
0.387292
0.395975
0.404203
0.411534
0.417796
0.423009
0.427248
0.430616
0.433219
0.435165
0.436554
0.437484
0.438045
0.43833
0.438434
0.438483
0.438639
0.439284
0.440394
0.377633
0.38321
0.389758
0.396265
0.402279
0.407578
0.412122
0.415931
0.419057
0.421563
0.423516
0.424986
0.42604
0.426743
0.427165
0.427377
0.42748
0.427596
0.428026
0.428727
0.376541
0.380437
0.385403
0.390599
0.395593
0.40013
0.404132
0.407579
0.410486
0.412887
0.414822
0.416334
0.417471
0.41828
0.418812
0.419123
0.419294
0.419415
0.419737
0.420208
0.375832
0.378536
0.382322
0.386517
0.390718
0.394656
0.398225
0.401376
0.404099
0.406403
0.408308
0.409841
0.411035
0.411922
0.412542
0.412936
0.413173
0.41332
0.413589
0.413931
0.37537
0.377233
0.380143
0.383576
0.387165
0.390639
0.393868
0.396784
0.399357
0.401578
0.403453
0.404996
0.406228
0.407173
0.407861
0.408323
0.408616
0.408793
0.409037
0.409303
0.375072
0.376349
0.378622
0.381487
0.384615
0.387735
0.390707
0.393443
0.395899
0.398053
0.399902
0.401449
0.402708
0.403694
0.404432
0.404946
0.405284
0.405488
0.405717
0.405935
0.374883
0.375768
0.377598
0.380058
0.382855
0.385721
0.388506
0.391111
0.393482
0.395587
0.397415
0.398963
0.40024
0.401255
0.402028
0.402579
0.402949
0.403171
0.403388
0.403569
0.374773
0.375417
0.376966
0.379166
0.38175
0.384451
0.387114
0.389634
0.391949
0.394022
0.395835
0.397384
0.398671
0.399704
0.400499
0.401072
0.401462
0.401692
0.401892
0.402036
0.374722
0.375252
0.376665
0.378738
0.381216
0.383836
0.386439
0.388918
0.391204
0.393261
0.395068
0.396616
0.397908
0.398949
0.399754
0.400336
0.400731
0.400958
0.401133
0.401237
0.374722
0.375252
0.376665
0.378738
0.381216
0.383836
0.386439
0.388918
0.391204
0.393261
0.395067
0.396616
0.397907
0.398947
0.39975
0.400328
0.400713
0.400924
0.401063
0.401119
0.374773
0.375417
0.376966
0.379166
0.38175
0.384451
0.387114
0.389634
0.391949
0.394021
0.395835
0.397383
0.398668
0.399698
0.400486
0.401046
0.401407
0.401588
0.401679
0.401678
0.374883
0.375768
0.377598
0.380058
0.382855
0.385721
0.388506
0.391111
0.393482
0.395587
0.397414
0.398961
0.400235
0.401245
0.402006
0.402534
0.402856
0.402991
0.403021
0.402953
0.375072
0.376349
0.378622
0.381487
0.384615
0.387735
0.390707
0.393443
0.395898
0.398053
0.3999
0.401446
0.4027
0.403679
0.404399
0.404879
0.405147
0.405221
0.405177
0.405031
0.37537
0.377233
0.380143
0.383576
0.387165
0.390639
0.393868
0.396784
0.399357
0.401577
0.403451
0.404991
0.406218
0.407151
0.407814
0.408229
0.408427
0.408427
0.408295
0.408062
0.375832
0.378536
0.382322
0.386517
0.390718
0.394656
0.398225
0.401376
0.404099
0.406401
0.408304
0.409834
0.41102
0.411891
0.412478
0.41281
0.412919
0.412832
0.412605
0.412279
0.376541
0.380437
0.385403
0.390599
0.395593
0.40013
0.404132
0.407578
0.410486
0.412885
0.414817
0.416324
0.41745
0.418237
0.418726
0.418955
0.418959
0.418773
0.418449
0.418033
0.377633
0.38321
0.389758
0.396265
0.402279
0.407578
0.412121
0.41593
0.419055
0.421559
0.42351
0.424972
0.426011
0.426686
0.427051
0.427155
0.427043
0.426755
0.426344
0.425859
0.379331
0.387292
0.395975
0.404203
0.411534
0.417796
0.423008
0.427247
0.430614
0.433215
0.435155
0.436534
0.437445
0.437968
0.43818
0.438143
0.437913
0.43754
0.437075
0.436581
0.382012
0.393396
0.405006
0.415524
0.424564
0.432037
0.438055
0.442777
0.446381
0.449037
0.450906
0.452134
0.452853
0.453176
0.453206
0.453024
0.452701
0.452298
0.451866
0.451477
0.386336
0.402751
0.418462
0.432081
0.443344
0.452312
0.459252
0.464459
0.468227
0.470827
0.472501
0.473462
0.473897
0.473964
0.473797
0.473504
0.473171
0.472867
0.472646
0.472576
0.393531
0.417588
0.439213
0.457077
0.471194
0.481917
0.489786
0.495334
0.499044
0.50134
0.502587
0.503095
0.503123
0.502886
0.502557
0.50227
0.502126
0.502196
0.502528
0.503163
0.406053
0.442238
0.472603
0.496233
0.513813
0.526305
0.534778
0.540176
0.543296
0.544799
0.545223
0.545007
0.544499
0.543975
0.543646
0.543661
0.544123
0.545082
0.546566
0.548547
0.429302
0.485678
0.528981
0.559947
0.580997
0.594439
0.602355
0.606395
0.607843
0.60769
0.606699
0.605447
0.604367
0.603774
0.603883
0.604821
0.606651
0.609359
0.612914
0.617157
0.4765
0.567574
0.628714
0.666911
0.689149
0.700568
0.705031
0.705255
0.703161
0.700105
0.69704
0.694622
0.693283
0.69328
0.69474
0.697673
0.70202
0.707621
0.714333
0.721795
0.583699
0.731929
0.810654
0.848828
0.863969
0.866114
0.861511
0.85399
0.845933
0.838816
0.833513
0.830491
0.829933
0.831823
0.836012
0.842242
0.850219
0.85956
0.869979
0.880896
0.857462
1.07259
1.14136
1.15344
1.1425
1.12288
1.10173
1.08266
1.06738
1.0566
1.05039
1.04848
1.05038
1.05551
1.06327
1.07305
1.0843
1.09647
1.10921
1.12184
1.60736
1.7581
1.71197
1.64468
1.58314
1.53217
1.49267
1.46398
1.44483
1.43371
1.42908
1.42951
1.43374
1.44068
1.44947
1.45937
1.46987
1.48047
1.49102
1.50088
3.53171
2.92567
2.60642
2.45185
2.36457
2.3085
2.27054
2.24466
2.22738
2.21629
2.20959
2.20594
2.20434
2.20406
2.20461
2.2056
2.20686
2.20813
2.20962
2.21064
2.35914
3.54071
4.16052
4.44525
4.55072
4.5671
4.54287
4.50248
4.45756
4.4133
4.37181
4.33375
4.29916
4.26783
4.2395
4.21394
4.19096
4.17056
4.15272
4.13716
4.70948
5.73707
6.29015
6.52917
6.58097
6.53473
6.44434
6.33713
6.22653
6.11908
6.01775
5.92373
5.83734
5.75849
5.68681
5.62187
5.56313
5.51006
5.46214
5.41884
5.37968
5.34419
5.31194
5.2825
5.25551
5.23061
5.20749
5.18584
5.16539
5.14589
5.12712
5.10887
5.09093
5.07315
5.05536
5.03741
5.01917
5.00053
4.98137
4.9616
4.94113
4.91988
4.8978
4.87483
4.85092
4.82606
4.80022
4.77339
4.7456
4.71685
4.6872
4.65668
4.62536
4.59333
4.56067
4.52749
4.49391
4.46006
4.42607
4.39211
4.35832
4.32486
4.29192
4.25965
4.22824
4.19785
4.16865
4.14082
4.11451
4.08987
4.06705
4.04618
4.02739
4.01077
3.99642
3.98443
3.97484
3.96771
3.96306
3.96089
3.96121
3.96397
3.96912
3.97661
3.98634
3.9982
4.01206
4.02779
4.0452
4.06413
4.08437
4.10568
4.12785
4.15061
4.1737
4.19685
4.21976
4.24215
4.26372
4.28419
4.30328
4.32071
4.33624
4.34962
4.36063
4.3691
4.37485
4.37774
4.37768
4.37457
4.36837
4.35906
4.34664
4.33112
4.31257
4.29105
4.26664
4.23944
4.20958
4.17718
4.14237
4.10529
4.0661
4.02494
3.98197
3.93735
3.89124
3.84377
3.79512
3.74542
3.69482
3.64346
3.59149
3.53902
3.48618
3.4331
3.37989
3.32667
3.27352
3.22056
3.16787
3.11555
3.06367
3.01231
2.96155
2.91145
2.86209
2.8135
2.76577
2.71893
2.67304
2.62815
2.58429
2.54152
2.49988
2.4594
2.42013
2.38211
2.34537
2.30996
2.27591
2.24328
2.21212
2.18247
2.15439
2.12794
2.10319
2.08016
2.05883
2.03932
2.02174
2.00623
1.99297
1.98215
1.974
1.96882
1.96694
1.96879
1.97488
1.98587
2.00258
2.02605
2.05766
2.09919
2.15307
2.22259
2.31233
2.42879
2.58123
2.78296
3.05291
3.41723
3.91011
4.57213
5.44408
6.55477
7.90636
9.46198
11.1182
7.53198
2.53237
3.0383
3.6167
4.17253
4.61374
4.92335
5.12162
5.23769
5.29731
5.31969
5.3181
5.30136
5.27529
5.24376
5.20934
5.17372
5.13806
5.10307
5.06921
5.03675
5.00582
4.97645
4.94862
4.92224
4.89722
4.87342
4.85072
4.82896
4.80801
4.78772
4.76795
4.74857
4.72944
4.71044
4.69145
4.67235
4.65306
4.63346
4.61347
4.59301
4.57201
4.5504
4.52812
4.50513
4.4814
4.4569
4.43161
4.40554
4.37868
4.35107
4.32275
4.29374
4.26413
4.23398
4.20338
4.17243
4.14123
4.10992
4.07861
4.04745
4.01658
3.98615
3.95632
3.92725
3.8991
3.87202
3.84618
3.82172
3.79879
3.77753
3.75807
3.74054
3.72503
3.71167
3.70051
3.69165
3.68512
3.68097
3.67922
3.67989
3.68294
3.68836
3.6961
3.70609
3.71825
3.73247
3.74864
3.76661
3.78623
3.80733
3.82971
3.85316
3.87747
3.9024
3.92768
3.95307
3.97829
4.00306
4.0271
4.05014
4.0719
4.09211
4.11052
4.12691
4.14104
4.15273
4.1618
4.16811
4.17155
4.17202
4.16946
4.16384
4.15515
4.1434
4.12864
4.11091
4.0903
4.0669
4.04082
4.01217
3.98109
3.94771
3.91218
3.87465
3.83525
3.79416
3.75152
3.70747
3.66218
3.61578
3.56843
3.52025
3.47139
3.42198
3.37213
3.32198
3.27163
3.2212
3.17078
3.12048
3.07039
3.02059
2.97117
2.92221
2.87379
2.82596
2.7788
2.73236
2.6867
2.64189
2.59796
2.55497
2.51296
2.47198
2.43207
2.39328
2.35563
2.31918
2.28397
2.25004
2.21742
2.18618
2.15635
2.12799
2.10116
2.07592
2.05233
2.03042
2.01017
1.9917
1.97513
1.9606
1.94828
1.93837
1.9311
1.92675
1.92567
1.92828
1.9351
1.94677
1.96412
1.98821
2.02038
2.06247
2.1169
2.18701
2.27749
2.39498
2.54908
2.75368
3.02867
3.40178
3.90937
4.59463
5.50068
6.65833
8.06867
9.70695
11.2992
8.56499
1.62029
1.75353
1.95924
2.23361
2.56989
2.9268
3.26032
3.54828
3.78356
3.96818
4.10887
4.21362
4.28997
4.34432
4.38179
4.40642
4.4213
4.4288
4.43073
4.42849
4.42313
4.41543
4.40602
4.39533
4.3837
4.37137
4.35853
4.34529
4.33172
4.31787
4.30376
4.28938
4.27473
4.25976
4.24446
4.22878
4.21267
4.19609
4.179
4.16136
4.14312
4.12424
4.10471
4.08448
4.06355
4.0419
4.01954
3.99646
3.97269
3.94825
3.92318
3.89754
3.87139
3.84479
3.81784
3.79062
3.76324
3.73581
3.70846
3.68132
3.65452
3.62819
3.6025
3.57757
3.55357
3.53062
3.50889
3.48851
3.4696
3.45231
3.43675
3.42303
3.41126
3.40152
3.3939
3.38845
3.38522
3.38426
3.38559
3.38921
3.3951
3.40325
3.4136
3.4261
3.44068
3.45722
3.47564
3.49578
3.51752
3.54069
3.56511
3.59058
3.61691
3.64386
3.67121
3.6987
3.72608
3.75309
3.77947
3.80494
3.82924
3.85212
3.87333
3.89263
3.90981
3.92467
3.93704
3.94676
3.95371
3.9578
3.95894
3.9571
3.95224
3.94439
3.93355
3.91979
3.90316
3.88375
3.86165
3.83698
3.80986
3.78042
3.7488
3.71513
3.67956
3.64225
3.60333
3.56296
3.52129
3.47845
3.43458
3.38984
3.34434
3.29821
3.25159
3.20459
3.15732
3.1099
3.06242
3.01498
2.96768
2.9206
2.87383
2.82745
2.78152
2.73613
2.69133
2.64718
2.60376
2.5611
2.51926
2.4783
2.43826
2.39918
2.36112
2.3241
2.28818
2.2534
2.2198
2.18742
2.15632
2.12652
2.0981
2.07109
2.04557
2.02158
1.9992
1.97843
1.9593
1.94191
1.92638
1.91285
1.90148
1.89249
1.88609
1.88258
1.88228
1.88563
1.89313
1.90544
1.92337
1.94797
1.9806
2.02307
2.07783
2.14824
2.23903
2.35697
2.51189
2.71811
2.99632
3.37547
3.89359
4.59563
5.52555
6.71307
8.15222
9.80304
11.2753
9.40965
1.19116
1.22721
1.28441
1.37022
1.49276
1.65251
1.84952
2.07154
2.29935
2.51964
2.72291
2.90379
3.06047
3.19352
3.30489
3.39714
3.47294
3.5348
3.58498
3.6254
3.65771
3.68329
3.70327
3.71859
3.73002
3.73819
3.7436
3.74668
3.74775
3.7471
3.74492
3.7414
3.73667
3.73082
3.72394
3.7161
3.70732
3.69764
3.68709
3.67567
3.66341
3.6503
3.63635
3.62157
3.60598
3.58958
3.5724
3.55446
3.5358
3.51645
3.49646
3.4759
3.45483
3.43332
3.41146
3.38934
3.36707
3.34475
3.3225
3.30044
3.2787
3.25742
3.23672
3.21675
3.19763
3.1795
3.16251
3.14676
3.1324
3.11954
3.10829
3.09875
3.09103
3.08519
3.08132
3.07947
3.07971
3.08205
3.08652
3.09314
3.10189
3.11275
3.12569
3.14064
3.15755
3.17633
3.19687
3.21906
3.24277
3.26785
3.29414
3.32146
3.34962
3.37841
3.40761
3.43701
3.46635
3.49539
3.52389
3.55159
3.57823
3.60358
3.62739
3.64944
3.6695
3.68738
3.70291
3.71593
3.7263
3.73393
3.73872
3.74062
3.73959
3.73564
3.72877
3.71902
3.70644
3.6911
3.67309
3.65252
3.62949
3.60413
3.57657
3.54693
3.51536
3.482
3.44699
3.41048
3.3726
3.33351
3.29333
3.2522
3.21025
3.16761
3.1244
3.08073
3.03673
2.99249
2.94812
2.90372
2.85938
2.81518
2.77122
2.72757
2.6843
2.64148
2.59919
2.55747
2.5164
2.47603
2.43641
2.3976
2.35963
2.32257
2.28645
2.25132
2.21722
2.18419
2.15229
2.12155
2.09202
2.06375
2.0368
2.01121
1.98704
1.96436
1.94323
1.92366
1.90568
1.8894
1.87493
1.86242
1.85203
1.84395
1.83843
1.83574
1.83622
1.84028
1.84843
1.86132
1.87975
1.90477
1.93772
1.98042
2.03528
2.10568
2.19635
2.31412
2.46895
2.67548
2.95493
3.33713
3.86125
4.57314
5.51634
6.71724
8.16045
9.78049
11.1665
10.0225
0.929952
0.944263
0.96271
0.988451
1.02588
1.07864
1.1502
1.24239
1.3578
1.4915
1.63708
1.78819
1.93878
2.08389
2.21997
2.34489
2.45767
2.55822
2.64702
2.72488
2.79278
2.85175
2.90279
2.94682
2.98469
3.01717
3.0449
3.06848
3.0884
3.10508
3.1189
3.13016
3.13914
3.14604
3.15106
3.15435
3.15604
3.15625
3.15506
3.15256
3.14881
3.14387
3.13778
3.13061
3.12239
3.11317
3.103
3.09192
3.07999
3.06727
3.05381
3.03969
3.02499
3.00977
2.99414
2.97818
2.962
2.94571
2.92942
2.91325
2.89731
2.88174
2.86665
2.85219
2.83846
2.82561
2.81376
2.80301
2.7935
2.78534
2.77861
2.77344
2.76989
2.76806
2.76801
2.7698
2.77349
2.7791
2.78667
2.7962
2.8077
2.82114
2.8365
2.85374
2.8728
2.8936
2.91605
2.94006
2.9655
2.99225
3.02016
3.04906
3.07878
3.10914
3.13993
3.17094
3.20197
3.23276
3.26311
3.29275
3.32147
3.34902
3.37517
3.39971
3.42241
3.4431
3.46158
3.4777
3.49133
3.50234
3.51065
3.51619
3.51891
3.51879
3.51585
3.51009
3.50156
3.49032
3.47644
3.46002
3.44115
3.41995
3.39654
3.37104
3.34359
3.31431
3.28334
3.25083
3.2169
3.1817
3.14535
3.108
3.06975
3.03075
2.9911
2.95093
2.91034
2.86944
2.82834
2.78712
2.74588
2.70471
2.6637
2.62291
2.58242
2.54232
2.50265
2.46349
2.4249
2.38693
2.34964
2.31307
2.27729
2.24233
2.20825
2.17509
2.14289
2.11171
2.08158
2.05255
2.02467
1.99799
1.97256
1.94844
1.92568
1.90436
1.88453
1.86618
1.84939
1.83423
1.82085
1.80937
1.79997
1.79283
1.78818
1.7863
1.78753
1.79228
1.80104
1.81445
1.83332
1.85866
1.89181
1.93456
1.9893
2.05938
2.14951
2.26651
2.42038
2.62588
2.90457
3.28677
3.81226
4.52704
5.47326
6.6727
8.10049
9.66557
10.9924
10.4275
0.756951
0.764757
0.77296
0.782445
0.794787
0.811587
0.834592
0.865598
0.906621
0.960042
1.02639
1.10466
1.19316
1.28942
1.39057
1.49369
1.59612
1.69567
1.7907
1.88008
1.96319
2.03973
2.1097
2.17332
2.23087
2.28276
2.3294
2.37119
2.40857
2.4419
2.47155
2.49784
2.52106
2.54148
2.55933
2.57481
2.58811
2.59938
2.60876
2.61638
2.62235
2.62675
2.62969
2.63125
2.63149
2.63049
2.62833
2.62507
2.62078
2.61555
2.60943
2.60252
2.59489
2.58664
2.57786
2.56864
2.55909
2.54931
2.53942
2.52952
2.51974
2.51018
2.50099
2.49226
2.48412
2.4767
2.4701
2.46444
2.45982
2.45636
2.45416
2.45329
2.45386
2.45593
2.45957
2.46485
2.47182
2.48051
2.49096
2.50318
2.51717
2.53293
2.55045
2.56967
2.59058
2.61309
2.63713
2.66263
2.68947
2.71754
2.74672
2.77685
2.80779
2.83936
2.87138
2.90366
2.93601
2.96821
3.00004
3.03129
3.06173
3.09114
3.11931
3.14601
3.17105
3.19424
3.21539
3.23436
3.25099
3.26516
3.27678
3.28577
3.29208
3.29567
3.29653
3.29467
3.29012
3.28292
3.27314
3.26086
3.24617
3.22915
3.20993
3.18862
3.16534
3.14022
3.11338
3.08495
3.05507
3.02387
2.99146
2.95799
2.92357
2.88832
2.85236
2.8158
2.77875
2.74131
2.70359
2.66567
2.62766
2.58963
2.55168
2.51387
2.47629
2.439
2.40207
2.36556
2.32954
2.29407
2.2592
2.22498
2.19146
2.1587
2.12674
2.09562
2.0654
2.03613
2.00784
1.98058
1.95441
1.92937
1.90552
1.88292
1.86162
1.84169
1.82318
1.80611
1.79052
1.77652
1.76424
1.75381
1.7454
1.73919
1.73541
1.73434
1.7363
1.74169
1.75102
1.76491
1.78413
1.8097
1.84293
1.88557
1.93998
2.00945
2.09863
2.21427
2.36631
2.5695
2.84545
3.22465
3.74695
4.45786
5.39755
6.58265
7.98009
9.47856
10.7567
10.6277
0.641696
0.646342
0.650792
0.65524
0.660198
0.66622
0.673932
0.684073
0.697518
0.715321
0.739001
0.769342
0.806892
0.851798
0.903762
0.962056
1.02559
1.09305
1.16301
1.23406
1.30494
1.37455
1.44203
1.50674
1.56821
1.62619
1.68053
1.73119
1.77822
1.82173
1.86186
1.89875
1.93259
1.96354
1.99178
2.01745
2.04073
2.06175
2.08065
2.09754
2.11255
2.12578
2.13732
2.14728
2.15574
2.16278
2.16849
2.17295
2.17623
2.17843
2.17961
2.17987
2.17929
2.17797
2.176
2.17347
2.17048
2.16714
2.16356
2.15984
2.15609
2.15243
2.14897
2.14581
2.14308
2.14088
2.13932
2.1385
2.13854
2.13952
2.14155
2.14471
2.14908
2.15473
2.16174
2.17017
2.18007
2.19147
2.20443
2.21895
2.23505
2.25273
2.27199
2.2928
2.31513
2.33893
2.36415
2.39071
2.41852
2.44749
2.4775
2.50844
2.54015
2.57251
2.60533
2.63845
2.6717
2.70487
2.73777
2.7702
2.80196
2.83282
2.8626
2.89108
2.91807
2.94339
2.96686
2.98833
3.00764
3.02467
3.03933
3.05151
3.06116
3.06824
3.07272
3.07459
3.07387
3.0706
3.06482
3.05659
3.046
3.03313
3.01807
3.00094
2.98183
2.96088
2.93819
2.91389
2.8881
2.86095
2.83255
2.80303
2.7725
2.74108
2.70889
2.67602
2.6426
2.60871
2.57446
2.53994
2.50524
2.47045
2.43564
2.4009
2.36631
2.33192
2.29781
2.26404
2.23068
2.19779
2.16541
2.13361
2.10243
2.07193
2.04216
2.01316
1.98498
1.95767
1.93127
1.90584
1.88143
1.85808
1.83585
1.8148
1.795
1.77649
1.75935
1.74356
1.7292
1.71638
1.70521
1.69584
1.68842
1.68314
1.68022
1.67993
1.6826
1.68862
1.69847
1.71277
1.73228
1.75799
1.79118
1.83355
1.88743
1.95601
2.04386
2.15758
2.30698
2.50663
2.77795
3.15125
3.66599
4.3667
5.29118
6.45112
7.80699
9.2347
10.4651
10.6398
0.565381
0.568112
0.57063
0.572964
0.575282
0.577772
0.580641
0.584146
0.588605
0.594403
0.602104
0.612418
0.62587
0.642967
0.664122
0.689605
0.71951
0.753732
0.79197
0.833751
0.878471
0.925442
0.973948
1.02328
1.0728
1.12192
1.17015
1.2171
1.26247
1.30602
1.3476
1.38711
1.4245
1.45974
1.49286
1.52389
1.55287
1.57985
1.60492
1.62812
1.64954
1.66924
1.6873
1.70378
1.71876
1.73232
1.74451
1.75541
1.76511
1.77366
1.78115
1.78766
1.79327
1.79807
1.80213
1.80556
1.80843
1.81086
1.81294
1.81476
1.81643
1.81805
1.81973
1.82156
1.82365
1.82611
1.82903
1.83251
1.83664
1.84152
1.84724
1.85388
1.86152
1.87022
1.88007
1.89111
1.90341
1.91701
1.93194
1.94825
1.96594
1.98502
2.00551
2.02739
2.05064
2.07522
2.10109
2.1282
2.15647
2.18583
2.21618
2.24741
2.27941
2.31204
2.34517
2.37864
2.41229
2.44595
2.47944
2.51258
2.54516
2.57702
2.60794
2.63774
2.66624
2.69326
2.71862
2.74218
2.76378
2.7833
2.80063
2.81568
2.82836
2.83863
2.84646
2.85181
2.85471
2.85516
2.85319
2.84887
2.84225
2.8334
2.82241
2.80937
2.79438
2.77755
2.75898
2.73878
2.71708
2.69398
2.66959
2.64404
2.61743
2.58988
2.56149
2.53237
2.50261
2.47233
2.44161
2.41054
2.37921
2.34771
2.31611
2.28451
2.25295
2.22153
2.19031
2.15934
2.1287
2.09844
2.06862
2.03929
2.01051
1.98233
1.95479
1.92796
1.90187
1.87657
1.85212
1.82856
1.80594
1.78432
1.76375
1.74428
1.72599
1.70894
1.69318
1.67869
1.66558
1.65394
1.6439
1.63558
1.62915
1.6248
1.62273
1.62321
1.62656
1.63317
1.6435
1.65815
1.67788
1.70363
1.73667
1.77863
1.83177
1.89921
1.98536
2.09666
2.24266
2.43761
2.70255
3.06723
3.57036
4.25507
5.15672
6.28261
7.58869
8.94523
10.126
10.4984
0.514705
0.516266
0.517663
0.518896
0.520024
0.521116
0.522245
0.523498
0.524985
0.526843
0.529256
0.53255
0.536994
0.542878
0.550503
0.56016
0.572113
0.586576
0.603695
0.623535
0.64607
0.671183
0.698672
0.728265
0.759637
0.792428
0.826267
0.860786
0.895637
0.930499
0.965087
0.999157
1.0325
1.06495
1.09637
1.12665
1.15572
1.18353
1.21003
1.23521
1.25905
1.28158
1.30279
1.32272
1.34139
1.35882
1.37508
1.39019
1.4042
1.41717
1.42915
1.44021
1.4504
1.4598
1.46848
1.47651
1.48396
1.49093
1.4975
1.50375
1.50976
1.51563
1.52146
1.52732
1.53331
1.53953
1.54606
1.55299
1.5604
1.56838
1.57702
1.58638
1.59655
1.60759
1.61957
1.63254
1.64657
1.6617
1.67797
1.69542
1.71408
1.73395
1.75506
1.77741
1.80098
1.82575
1.85171
1.87879
1.90696
1.93614
1.96626
1.99724
2.02896
2.06133
2.09422
2.1275
2.16102
2.19463
2.22817
2.26148
2.29438
2.32669
2.35825
2.38886
2.41837
2.44659
2.47337
2.49854
2.52198
2.54355
2.56313
2.58062
2.59596
2.60906
2.61989
2.62841
2.63462
2.63852
2.64012
2.63947
2.63661
2.6316
2.62451
2.61542
2.60442
2.59159
2.57704
2.56087
2.54318
2.52407
2.50366
2.48204
2.45933
2.43563
2.41104
2.38566
2.35958
2.33291
2.30573
2.27813
2.2502
2.22202
2.19367
2.16522
2.13675
2.10833
2.08002
2.0519
2.02401
1.99643
1.9692
1.94239
1.91605
1.89022
1.86496
1.84032
1.81636
1.79311
1.77063
1.74897
1.72817
1.7083
1.68941
1.67156
1.65481
1.63922
1.62486
1.61168
1.59982
1.58937
1.58045
1.57319
1.56775
1.5643
1.56307
1.5643
1.5683
1.57545
1.58622
1.60118
1.62105
1.64676
1.67952
1.72093
1.77316
1.83921
1.92333
2.03174
2.17366
2.36288
2.61982
2.97343
3.46128
4.12486
4.99711
6.08182
7.33225
8.61865
9.74778
10.2408
0.480593
0.481466
0.482214
0.482838
0.483358
0.483805
0.484209
0.4846
0.48502
0.485517
0.486157
0.487069
0.488374
0.490204
0.492705
0.496037
0.500368
0.505864
0.512686
0.520975
0.530848
0.542388
0.555641
0.570606
0.587243
0.605466
0.625155
0.646156
0.668294
0.691377
0.715205
0.739579
0.764305
0.789199
0.814091
0.838827
0.863271
0.887303
0.91082
0.933736
0.955981
0.977497
0.998241
1.01818
1.03729
1.05556
1.073
1.08959
1.10536
1.12032
1.13451
1.14794
1.16067
1.17273
1.18417
1.19505
1.20541
1.21533
1.22486
1.23408
1.24305
1.25184
1.26053
1.2692
1.27792
1.28676
1.29581
1.30514
1.31482
1.32493
1.33554
1.34673
1.35855
1.37108
1.38437
1.39848
1.41347
1.42939
1.44627
1.46416
1.48309
1.50308
1.52416
1.54633
1.56959
1.59393
1.61935
1.6458
1.67326
1.70167
1.73098
1.76111
1.79199
1.82352
1.8556
1.88811
1.92093
1.95392
1.98695
2.01987
2.05252
2.08475
2.11638
2.14726
2.17722
2.20611
2.23377
2.26005
2.28481
2.30793
2.32928
2.34876
2.36629
2.3818
2.39522
2.40652
2.41568
2.42267
2.42752
2.43024
2.43086
2.42943
2.42601
2.42065
2.41343
2.40444
2.39375
2.38145
2.36765
2.35243
2.33589
2.31812
2.29923
2.27931
2.25846
2.23677
2.21434
2.19125
2.16759
2.14344
2.1189
2.09403
2.06892
2.04364
2.01826
1.99285
1.96747
1.9422
1.91709
1.8922
1.86758
1.84331
1.81942
1.79596
1.77301
1.75059
1.72877
1.70758
1.6871
1.66735
1.6484
1.6303
1.6131
1.59687
1.58167
1.56755
1.55459
1.54273
1.53212
1.52286
1.51506
1.50885
1.50438
1.50182
1.5014
1.50335
1.50797
1.51563
1.52678
1.54198
1.56192
1.58751
1.61989
1.66062
1.71177
1.7762
1.85801
1.96311
2.10033
2.28291
2.53044
2.87081
3.34017
3.97818
4.81553
5.85344
7.04418
8.26189
9.33833
9.89942
0.457162
0.457645
0.458029
0.458319
0.458522
0.458652
0.458725
0.458755
0.458757
0.458752
0.458764
0.458848
0.459057
0.459448
0.460085
0.461046
0.462415
0.464283
0.466746
0.469904
0.47385
0.478676
0.48446
0.491268
0.499149
0.508134
0.518229
0.529421
0.541677
0.554941
0.569141
0.584191
0.599993
0.616439
0.633419
0.650821
0.668533
0.686447
0.70446
0.722476
0.740407
0.758173
0.775704
0.792938
0.809822
0.826312
0.842373
0.857978
0.873108
0.887753
0.901908
0.915578
0.928772
0.941506
0.953803
0.96569
0.977201
0.988373
0.999249
1.00987
1.0203
1.03057
1.04075
1.05089
1.06106
1.07131
1.0817
1.0923
1.10316
1.11436
1.12595
1.13799
1.15054
1.16366
1.17741
1.19183
1.20698
1.22291
1.23966
1.25727
1.27577
1.2952
1.31558
1.33692
1.35923
1.38252
1.40679
1.43201
1.45816
1.48521
1.51312
1.54183
1.57128
1.60139
1.63208
1.66325
1.6948
1.72661
1.75856
1.79052
1.82235
1.8539
1.88504
1.91561
1.94547
1.97446
2.00244
2.02926
2.0548
2.07892
2.10151
2.12247
2.1417
2.15912
2.17467
2.1883
2.19997
2.20966
2.21736
2.22308
2.22684
2.22866
2.2286
2.22669
2.223
2.21759
2.21054
2.20192
2.19181
2.1803
2.16747
2.15342
2.13822
2.12197
2.10476
2.08667
2.0678
2.04821
2.02801
2.00726
1.98605
1.96446
1.94255
1.92041
1.89809
1.87567
1.85321
1.83078
1.80843
1.78623
1.76423
1.74248
1.72105
1.69997
1.67932
1.65913
1.63945
1.62034
1.60185
1.58403
1.56692
1.55059
1.53509
1.52048
1.50683
1.49418
1.48261
1.47206
1.4627
1.45462
1.44792
1.44274
1.43923
1.43754
1.4379
1.44054
1.44574
1.45387
1.46536
1.48073
1.50068
1.52604
1.55795
1.59787
1.64778
1.71041
1.78963
1.89106
2.02308
2.19822
2.43514
2.76043
3.20858
3.81731
4.61529
5.60211
6.73049
7.88098
8.90457
9.49952
0.440708
0.440976
0.441164
0.441278
0.44132
0.441297
0.441219
0.441093
0.440928
0.440732
0.440517
0.440309
0.440132
0.44001
0.439973
0.440057
0.440302
0.440754
0.441464
0.442488
0.443883
0.445708
0.44802
0.450877
0.454331
0.458426
0.463202
0.468687
0.474901
0.481851
0.489535
0.497937
0.507034
0.516789
0.52716
0.538095
0.549538
0.561427
0.573699
0.586288
0.599128
0.612157
0.625311
0.638534
0.65177
0.664971
0.678091
0.691091
0.70394
0.716608
0.729075
0.741325
0.75335
0.765144
0.77671
0.788056
0.799192
0.810137
0.820912
0.831542
0.842059
0.852494
0.862884
0.87327
0.883691
0.894193
0.904821
0.915622
0.926645
0.937938
0.94955
0.961533
0.973935
0.986806
1.00019
1.01415
1.02871
1.04393
1.05984
1.07649
1.09391
1.11214
1.1312
1.1511
1.17188
1.19354
1.21609
1.23952
1.26381
1.28895
1.31492
1.34166
1.36914
1.39729
1.42604
1.45533
1.48505
1.51512
1.54543
1.57587
1.60631
1.63663
1.66671
1.6964
1.72557
1.75409
1.78181
1.80861
1.83435
1.85891
1.88219
1.90406
1.92445
1.94326
1.96042
1.97587
1.98957
2.00149
2.0116
2.0199
2.02639
2.03108
2.03401
2.03521
2.03472
2.0326
2.0289
2.02369
2.01703
2.009
1.99968
1.98913
1.97745
1.96471
1.95098
1.93636
1.92091
1.90472
1.88787
1.87043
1.85247
1.83407
1.8153
1.79623
1.77692
1.75744
1.73786
1.71822
1.69861
1.67906
1.65965
1.64041
1.62141
1.6027
1.58433
1.56636
1.54882
1.53177
1.51527
1.49936
1.48409
1.46952
1.45571
1.44271
1.43059
1.41941
1.4092
1.39995
1.39182
1.3849
1.37929
1.37512
1.37253
1.37169
1.3728
1.37608
1.38183
1.39037
1.40213
1.41763
1.4375
1.46257
1.4939
1.53289
1.58142
1.64206
1.71847
1.81593
1.9423
2.10937
2.33471
2.64342
3.06816
3.64461
4.39971
5.33227
6.39667
7.48133
8.45258
9.05978
0.428918
0.42907
0.429155
0.429183
0.429149
0.429058
0.428917
0.428731
0.428505
0.428244
0.427953
0.427649
0.427343
0.427046
0.426772
0.426538
0.426363
0.426272
0.42629
0.426447
0.426776
0.427309
0.428084
0.429136
0.430503
0.43222
0.43432
0.436835
0.439791
0.443211
0.447113
0.45151
0.456406
0.461801
0.467691
0.474062
0.480897
0.488174
0.495865
0.50394
0.512365
0.521105
0.530121
0.539377
0.548834
0.558455
0.568206
0.578051
0.587962
0.597908
0.607868
0.617818
0.627743
0.637629
0.647467
0.657253
0.666986
0.676669
0.686309
0.695917
0.705507
0.715099
0.724712
0.73437
0.744101
0.753934
0.7639
0.774032
0.784366
0.794938
0.805786
0.81695
0.828468
0.840382
0.852732
0.865558
0.8789
0.892799
0.907292
0.922416
0.938207
0.954697
0.971915
0.989888
1.00864
1.02818
1.04852
1.06968
1.09164
1.1144
1.13795
1.16225
1.18727
1.21298
1.23932
1.26622
1.29363
1.32145
1.34961
1.378
1.40653
1.43509
1.46355
1.49181
1.51974
1.54722
1.57411
1.60031
1.62568
1.65012
1.6735
1.69573
1.71671
1.73635
1.75457
1.77132
1.78653
1.80017
1.81219
1.82259
1.83136
1.83848
1.84399
1.8479
1.85023
1.85103
1.85035
1.84822
1.84472
1.83989
1.8338
1.82653
1.81812
1.80867
1.79823
1.78689
1.7747
1.76175
1.7481
1.73383
1.719
1.70368
1.68795
1.67185
1.65547
1.63885
1.62207
1.60518
1.58824
1.5713
1.55442
1.53765
1.52105
1.50467
1.48855
1.47276
1.45733
1.44232
1.42778
1.41376
1.4003
1.38748
1.37533
1.36392
1.35331
1.34356
1.33467
1.32671
1.31979
1.314
1.30945
1.30625
1.30456
1.30452
1.30634
1.31023
1.31646
1.32537
1.33735
1.35289
1.37261
1.3973
1.42796
1.46591
1.51292
1.57142
1.64482
1.73806
1.85843
2.01694
2.22995
2.52093
2.92056
3.46246
4.17207
5.04817
6.04778
7.06793
7.98771
8.59375
0.420332
0.420424
0.420459
0.420447
0.420383
0.420269
0.420109
0.419908
0.41967
0.419397
0.419093
0.41877
0.418433
0.418087
0.41774
0.417402
0.417081
0.416791
0.416544
0.416359
0.416251
0.41624
0.416348
0.416596
0.417007
0.417606
0.418415
0.419458
0.420756
0.422331
0.4242
0.426381
0.428887
0.431729
0.434915
0.438447
0.442328
0.446555
0.451121
0.456018
0.461233
0.466752
0.47256
0.478636
0.484962
0.491517
0.498279
0.505229
0.512344
0.519605
0.526994
0.534493
0.542086
0.549761
0.557507
0.565316
0.573181
0.581099
0.589071
0.597098
0.605186
0.613343
0.621579
0.629908
0.638345
0.646908
0.655617
0.664495
0.673566
0.682856
0.692393
0.702205
0.712324
0.722781
0.733609
0.744842
0.756513
0.768657
0.781308
0.7945
0.808265
0.822636
0.837641
0.85331
0.869666
0.88673
0.904521
0.923049
0.942323
0.962344
0.983105
1.00459
1.02679
1.04967
1.07319
1.09731
1.12197
1.14712
1.17268
1.19857
1.22472
1.25102
1.27738
1.3037
1.32987
1.35577
1.3813
1.40635
1.4308
1.45454
1.47746
1.49948
1.52048
1.54039
1.55912
1.5766
1.59278
1.6076
1.62102
1.63301
1.64355
1.65264
1.66026
1.66643
1.67116
1.67449
1.67643
1.67702
1.67632
1.67436
1.6712
1.66689
1.6615
1.65507
1.64768
1.63939
1.63025
1.62034
1.60971
1.59844
1.58658
1.5742
1.56136
1.54812
1.53454
1.52069
1.50661
1.49237
1.47801
1.4636
1.44919
1.43483
1.42056
1.40645
1.39254
1.37888