/*--------------------------------*- C++ -*----------------------------------*\
| =========                 |                                                 |
| \\      /  F ield         | OpenFOAM: The Open Source CFD Toolbox           |
|  \\    /   O peration     | Version:  2.4.0                                 |
|   \\  /    A nd           | Web:      www.OpenFOAM.org                      |
|    \\/     M anipulation  |                                                 |
\*---------------------------------------------------------------------------*/
FoamFile
{
    version     2.0;
    format      ascii;
    class       volScalarField;
    location    "0.008";
    object      epsilon;
}
// * * * * * * * * * * * * * * * * * * * * * * * * * * * * * * * * * * * * * //

dimensions      [0 2 -3 0 0 0 0];

internalField   nonuniform List<scalar> 
17600
(
289.884
448.319
585.789
685.682
746.549
774.854
779.45
768.532
748.498
723.88
697.678
671.781
647.314
624.899
604.834
587.205
571.963
558.965
547.829
540.226
38.1425
61.6304
80.4448
95.0115
105.269
111.979
116.232
119.034
121.169
123.186
125.443
128.144
131.387
135.18
139.469
144.15
149.087
154.131
159.34
165.435
13.4547
19.1235
23.7379
27.3407
29.9623
31.7475
32.9158
33.697
34.2949
34.8749
35.563
36.4511
37.6032
39.0609
40.8473
42.969
45.4194
48.1834
51.3097
55.1415
8.97988
10.7717
12.4021
13.746
14.7677
15.4846
15.947
16.2179
16.3615
16.4364
16.4936
16.5749
16.7145
16.9399
17.2729
17.7311
18.3291
19.0808
20.0225
21.2462
7.81791
8.38162
8.99671
9.55481
10.007
10.3385
10.5551
10.6735
10.7147
10.7008
10.653
10.5901
10.5287
10.4828
10.4642
10.4829
10.5478
10.6674
10.8569
11.1367
7.45707
7.54132
7.7118
7.90259
8.07318
8.20271
8.28377
8.31722
8.30851
8.26543
8.19667
8.11084
8.01605
7.9196
7.82792
7.74661
7.68062
7.63462
7.61509
7.62725
7.33725
7.2203
7.1747
7.16909
7.1773
7.18148
7.17145
7.14267
7.09432
7.02793
6.94638
6.85321
6.75219
6.64699
6.5411
6.43766
6.33957
6.24951
6.17072
6.10516
7.29643
7.09458
6.94231
6.82804
6.73795
6.65995
6.58523
6.5082
6.42579
6.33679
6.24128
6.14016
6.0348
5.92682
5.81791
5.70973
5.60391
5.50198
5.40571
5.31619
7.28236
7.04529
6.84154
6.66815
6.5191
6.38746
6.2671
6.15322
6.04244
5.93261
5.82256
5.71186
5.60057
5.48909
5.37803
5.26812
5.16014
5.05489
4.95331
4.85613
7.27747
7.02608
6.79829
6.59391
6.41072
6.24527
6.09381
5.95291
5.81973
5.69208
5.56842
5.44773
5.32942
5.21323
5.09911
4.9872
4.87773
4.77101
4.66748
4.56766
7.27575
7.01863
6.77999
6.56
6.3579
6.17208
6.00042
5.8407
5.69082
5.54895
5.41363
5.28369
5.15828
5.03682
4.91892
4.80434
4.69299
4.58485
4.48004
4.37893
7.27512
7.01574
6.77233
6.54477
6.33266
6.13513
5.95099
5.77883
5.61719
5.4647
5.3201
5.18232
5.0505
4.92392
4.80203
4.68443
4.57082
4.46098
4.35483
4.25264
7.27488
7.0146
6.76914
6.53803
6.32081
6.11685
5.92536
5.74539
5.57592
5.41593
5.26442
5.12049
4.98333
4.85224
4.72664
4.60604
4.49005
4.37834
4.27072
4.16739
7.27478
7.01414
6.7678
6.53506
6.31533
6.10798
5.91234
5.7277
5.55327
5.38827
5.2319
5.08342
4.94212
4.80737
4.67859
4.5553
4.43707
4.32352
4.21439
4.10987
7.27473
7.01394
6.76723
6.53376
6.31282
6.10373
5.90585
5.71852
5.54109
5.3729
5.21329
5.06163
4.91731
4.77976
4.64846
4.52294
4.40277
4.28756
4.17703
4.07137
7.27471
7.01385
6.76697
6.53317
6.31166
6.10172
5.90266
5.71385
5.53468
5.36454
5.20287
5.04909
4.90268
4.76312
4.62994
4.50268
4.38095
4.26436
4.15262
4.04593
7.27469
7.01379
6.76685
6.5329
6.31113
6.10076
5.90111
5.7115
5.53136
5.36009
5.19716
5.04205
4.89426
4.75333
4.61881
4.49029
4.36738
4.24973
4.13702
4.02949
7.27467
7.01376
6.76678
6.53277
6.31087
6.10031
5.90036
5.71035
5.52967
5.35777
5.19412
5.0382
4.88956
4.74775
4.61235
4.48297
4.35925
4.24082
4.12741
4.01925
7.27467
7.01374
6.76675
6.5327
6.31076
6.1001
5.90001
5.7098
5.52886
5.35663
5.19258
5.03622
4.8871
4.74477
4.60885
4.47895
4.35471
4.2358
4.12192
4.01334
7.27466
7.01373
6.76673
6.53268
6.31071
6.10002
5.89987
5.70958
5.52854
5.35617
5.19195
5.03539
4.88605
4.74349
4.60732
4.47717
4.35269
4.23354
4.11944
4.01064
7.27466
7.01373
6.76673
6.53268
6.31071
6.10002
5.89987
5.70958
5.52854
5.35617
5.19195
5.03539
4.88605
4.74349
4.60732
4.47717
4.35269
4.23354
4.11943
4.01063
7.27467
7.01374
6.76675
6.5327
6.31076
6.1001
5.90001
5.7098
5.52886
5.35663
5.19258
5.03622
4.8871
4.74477
4.60885
4.47895
4.35471
4.23579
4.1219
4.0133
7.27467
7.01376
6.76678
6.53277
6.31087
6.10031
5.90036
5.71035
5.52967
5.35777
5.19412
5.0382
4.88956
4.74775
4.61235
4.48297
4.35924
4.24081
4.12737
4.01918
7.27469
7.01379
6.76685
6.5329
6.31113
6.10076
5.90111
5.7115
5.53136
5.36009
5.19716
5.04205
4.89426
4.75333
4.61881
4.49029
4.36738
4.24971
4.13697
4.0294
7.27471
7.01385
6.76697
6.53317
6.31166
6.10172
5.90266
5.71385
5.53468
5.36454
5.20287
5.04909
4.90268
4.76312
4.62994
4.50268
4.38094
4.26434
4.15256
4.04581
7.27473
7.01394
6.76723
6.53376
6.31282
6.10373
5.90585
5.71852
5.54109
5.3729
5.21329
5.06163
4.91731
4.77976
4.64846
4.52294
4.40276
4.28753
4.17695
4.0712
7.27478
7.01414
6.7678
6.53506
6.31533
6.10798
5.91234
5.7277
5.55327
5.38827
5.2319
5.08342
4.94212
4.80736
4.67859
4.5553
4.43705
4.32348
4.21428
4.10966
7.27488
7.0146
6.76914
6.53803
6.32081
6.11685
5.92536
5.74539
5.57592
5.41593
5.26442
5.12049
4.98333
4.85224
4.72664
4.60603
4.49003
4.37828
4.27056
4.16708
7.27512
7.01574
6.77233
6.54477
6.33266
6.13513
5.95099
5.77883
5.61719
5.4647
5.3201
5.18232
5.0505
4.92391
4.80203
4.68442
4.57078
4.46089
4.3546
4.25218
7.27575
7.01863
6.77999
6.56
6.3579
6.17208
6.00042
5.8407
5.69082
5.54895
5.41363
5.28368
5.15828
5.03682
4.9189
4.80431
4.69293
4.58471
4.47968
4.37817
7.27747
7.02608
6.79829
6.59391
6.41072
6.24527
6.09381
5.95291
5.81973
5.69208
5.56842
5.44773
5.32942
5.21322
5.09909
4.98716
4.87764
4.77079
4.66688
4.56632
7.28236
7.04529
6.84154
6.66815
6.5191
6.38746
6.2671
6.15322
6.04244
5.93261
5.82256
5.71185
5.60056
5.48907
5.37801
5.26807
5.16
5.05451
4.95223
4.8536
7.29643
7.09458
6.94231
6.82804
6.73795
6.65995
6.58523
6.5082
6.42579
6.33679
6.24128
6.14015
6.03479
5.9268
5.81786
5.70964
5.60367
5.50132
5.40367
5.31098
7.33725
7.2203
7.1747
7.16909
7.1773
7.18148
7.17146
7.14267
7.09432
7.02793
6.94638
6.8532
6.75217
6.64696
6.54103
6.4375
6.33915
6.24826
6.16648
6.09328
7.45707
7.54132
7.7118
7.90259
8.07318
8.20271
8.28377
8.31722
8.30851
8.26543
8.19666
8.11083
8.01602
7.91954
7.82779
7.74631
7.6798
7.63201
7.60531
7.59638
7.81791
8.38162
8.99671
9.55481
10.007
10.3385
10.5551
10.6735
10.7147
10.7008
10.6529
10.5901
10.5286
10.4826
10.4639
10.4823
10.546
10.6613
10.8314
11.0438
8.97988
10.7717
12.4021
13.746
14.7677
15.4846
15.947
16.2179
16.3615
16.4364
16.4935
16.5748
16.7144
16.9396
17.2723
17.7297
18.3248
19.0654
19.951
20.9396
13.4547
19.1235
23.7379
27.3407
29.9623
31.7475
32.9158
33.697
34.2949
34.8748
35.5629
36.451
37.6029
39.0603
40.846
42.966
45.4104
48.1511
51.1363
54.2526
38.1426
61.6304
80.4448
95.0115
105.269
111.979
116.232
119.034
121.169
123.186
125.442
128.144
131.386
135.179
139.468
144.147
149.078
154.099
159.036
163.762
289.884
448.319
585.789
685.683
746.549
774.854
779.45
768.532
748.499
723.88
697.679
671.783
647.317
624.903
604.841
587.22
571.994
559.032
548.184
538.949
679.252
789.337
860.9
904.046
923.529
923.73
910
887.283
859.536
829.727
799.852
771.073
743.946
718.644
695.148
673.354
653.114
634.278
616.712
600.297
584.934
570.539
557.035
544.352
532.423
521.187
510.592
500.59
491.14
482.2
473.735
465.709
458.09
450.847
443.951
437.376
431.095
425.086
419.325
413.792
408.469
403.336
398.379
393.581
388.929
384.408
380.008
375.716
371.521
367.414
363.386
359.428
355.532
351.692
347.899
344.15
340.437
336.756
333.102
329.471
325.859
322.262
318.678
315.104
311.535
307.971
304.408
300.845
297.278
293.707
290.129
286.543
282.947
279.339
275.719
272.084
268.434
264.768
261.086
257.387
253.67
249.936
246.184
242.416
238.632
234.832
231.019
227.194
223.358
219.514
215.663
211.809
207.954
204.101
200.254
196.414
192.587
188.776
184.984
181.215
177.474
173.763
170.088
166.452
162.859
159.313
155.818
152.378
148.997
145.678
142.425
139.242
136.131
133.097
130.143
127.272
124.486
121.788
119.182
116.67
114.254
111.937
109.72
107.606
105.597
103.693
101.897
100.211
98.634
97.1692
95.8173
94.5798
93.4581
92.4535
91.5674
90.8009
90.1542
89.6273
89.2185
88.9251
88.7427
88.6654
88.6857
88.7947
88.9823
89.2376
89.5496
89.907
90.2987
90.7146
91.145
91.5818
92.0175
92.4464
92.8637
93.2659
93.651
94.0176
94.3655
94.6969
95.0133
95.3165
95.6092
95.8946
96.1768
96.4603
96.7504
97.0532
97.3751
97.7237
98.1071
98.5347
99.0169
99.5657
100.195
100.92
101.761
102.74
103.883
105.225
106.809
108.686
110.928
113.627
116.907
120.94
125.966
132.319
140.478
151.119
165.21
184.136
209.909
245.559
295.938
369.76
485.592
695.207
1196.11
2693.83
174.302
190.886
214.794
245.516
281.594
321.093
361.698
401.032
436.947
467.804
492.641
511.193
523.78
531.128
534.169
533.865
531.088
526.553
520.808
514.251
507.165
499.747
492.143
484.46
476.782
469.17
461.675
454.331
447.166
440.196
433.43
426.872
420.523
414.379
408.437
402.689
397.128
391.746
386.535
381.484
376.584
371.828
367.205
362.708
358.328
354.057
349.888
345.814
341.826
337.921
334.089
330.328
326.629
322.99
319.404
315.867
312.375
308.924
305.509
302.129
298.778
295.453
292.152
288.872
285.608
282.36
279.123
275.895
272.673
269.455
266.238
263.019
259.797
256.569
253.333
250.087
246.829
243.558
240.271
236.968
233.649
230.311
226.955
223.58
220.188
216.777
213.349
209.906
206.448
202.977
199.495
196.004
192.507
189.007
185.506
182.007
178.515
175.033
171.563
168.111
164.68
161.273
157.895
154.55
151.243
147.976
144.754
141.58
138.46
135.396
132.393
129.453
126.581
123.781
121.055
118.407
115.84
113.357
110.961
108.656
106.443
104.326
102.306
100.386
98.5685
96.8546
95.2461
93.7445
92.351
91.0666
89.8922
88.8285
87.8762
87.0359
86.3082
85.6934
85.1918
84.8029
84.5255
84.3575
84.2954
84.3345
84.4683
84.6892
84.9881
85.3551
85.7797
86.2508
86.7579
87.2905
87.8389
88.3945
88.9497
89.4979
90.0341
90.5544
91.0561
91.5378
91.9986
92.4411
92.8663
93.2761
93.6727
94.0595
94.4403
94.8199
95.2035
95.5972
96.0078
96.4429
96.911
97.4215
97.9853
98.6147
99.3237
100.129
101.049
102.108
103.333
104.758
106.427
108.393
110.728
113.525
116.911
121.06
126.215
132.72
141.065
151.95
166.381
185.808
212.352
249.215
301.525
378.481
499.133
714.627
1172.74
2254.38
56.4049
58.1796
60.7505
64.4659
69.9304
77.4971
87.4649
100.028
115.264
133.06
153.088
174.816
197.543
220.476
242.807
263.808
282.895
299.679
313.965
325.745
335.15
342.405
347.782
351.562
354.012
355.362
355.811
355.52
354.624
353.232
351.436
349.312
346.925
344.33
341.572
338.69
335.714
332.67
329.578
326.454
323.313
320.164
317.016
313.876
310.751
307.643
304.557
301.495
298.459
295.449
292.467
289.512
286.585
283.686
280.813
277.967
275.146
272.348
269.574
266.821
264.088
261.373
258.674
255.99
253.319
250.657
248.004
245.356
242.712
240.068
237.423
234.773
232.117
229.452
226.775
224.084
221.377
218.652
215.908
213.142
210.354
207.541
204.704
201.842
198.955
196.043
193.106
190.145
187.162
184.157
181.133
178.092
175.036
171.967
168.889
165.805
162.718
159.631
156.549
153.474
150.412
147.366
144.34
141.338
138.364
135.423
132.519
129.655
126.836
124.065
121.347
118.686
116.085
113.548
111.078
108.68
106.356
104.11
101.946
99.8653
97.8725
95.9702
94.161
92.4478
90.8328
89.3184
87.9067
86.5992
85.3975
84.3027
83.3156
82.4366
81.666
81.0037
80.4494
80.0029
79.6635
79.4303
79.302
79.2764
79.3507
79.5208
79.7814
80.1258
80.5462
81.0335
81.578
82.1694
82.7973
83.4516
84.1224
84.801
85.4793
86.1506
86.8094
87.4512
88.0731
88.6731
89.2503
89.8072
90.3447
90.8642
91.3679
91.8591
92.3415
92.8199
93.2995
93.7865
94.2879
94.8112
95.3653
95.9599
96.606
97.316
98.1046
98.9883
99.9868
101.124
102.427
103.931
105.68
107.728
110.147
113.032
116.508
120.753
126.011
132.63
141.108
152.158
166.81
186.555
213.575
251.161
304.537
382.92
504.529
714.555
1113.83
1880.72
21.599
21.9697
22.3827
22.8745
23.5131
24.374
25.5582
27.1969
29.4113
32.3365
36.1238
40.9264
46.8854
54.1127
62.6716
72.5591
83.6939
95.9123
108.974
122.578
136.387
150.06
163.275
175.759
187.303
197.77
207.091
215.259
222.312
228.319
233.371
237.562
240.987
243.734
245.885
247.511
248.677
249.438
249.846
249.943
249.771
249.364
248.752
247.964
247.022
245.949
244.761
243.476
242.106
240.665
239.163
237.608
236.01
234.374
232.708
231.015
229.301
227.568
225.821
224.061
222.289
220.509
218.719
216.921
215.115
213.299
211.474
209.639
207.792
205.931
204.056
202.163
200.252
198.32
196.364
194.384
192.377
190.34
188.273
186.174
184.041
181.873
179.67
177.43
175.154
172.841
170.492
168.108
165.689
163.237
160.755
158.243
155.704
153.141
150.557
147.955
145.339
142.711
140.076
137.438
134.801
132.168
129.544
126.934
124.341
121.771
119.226
116.712
114.232
111.791
109.393
107.042
104.742
102.497
100.311
98.1868
96.1291
94.1412
92.2267
90.3891
88.6318
86.9582
85.3715
83.8748
82.4712
81.1635
79.9543
78.8459
77.8404
76.9393
76.1439
75.4548
74.8722
74.3958
74.0249
73.7584
73.5948
73.5326
73.5695
73.7033
73.9308
74.2482
74.6507
75.1326
75.6869
76.3054
76.9794
77.6992
78.455
79.2369
80.0353
80.8413
81.6469
82.4449
83.2294
83.9959
84.7407
85.4617
86.1578
86.8316
87.4838
88.1153
88.7284
89.3261
89.9121
90.491
91.0682
91.6499
92.243
92.8555
93.4962
94.175
94.9031
95.6932
96.5601
97.5208
98.5951
99.8068
101.184
102.763
104.585
106.708
109.201
112.159
115.711
120.03
125.363
132.056
140.609
151.741
166.489
186.357
213.546
251.346
304.908
383.064
502.304
699.552
1041.16
1575.39
11.2182
11.2989
11.3803
11.4653
11.5618
11.6792
11.8298
12.0297
12.3004
12.6694
13.1648
13.8216
14.6819
15.795
17.218
19.0149
21.2553
24.0113
27.3526
31.3401
36.0184
41.4088
47.5021
54.2553
61.5907
69.3986
77.5445
85.8778
94.2429
102.49
110.485
118.114
125.292
131.959
138.081
143.646
148.661
153.143
157.12
160.625
163.693
166.358
168.656
170.618
172.276
173.659
174.792
175.702
176.409
176.936
177.3
177.519
177.607
177.58
177.448
177.224
176.916
176.534
176.085
175.576
175.012
174.398
173.738
173.035
172.293
171.512
170.695
169.842
168.953
168.029
167.069
166.073
165.04
163.967
162.855
161.701
160.505
159.264
157.977
156.643
155.261
153.829
152.347
150.815
149.233
147.599
145.915
144.182
142.4
140.572
138.698
136.781
134.823
132.827
130.797
128.734
126.643
124.528
122.392
120.239
118.074
115.901
113.724
111.547
109.375
107.214
105.066
102.936
100.829
98.7497
96.7017
94.6895
92.7172
90.789
88.9089
87.081
85.3091
83.5971
81.9489
80.3683
78.859
77.4247
76.0691
74.7959
73.6086
72.5106
71.5054
70.5959
69.7851
69.0754
68.4688
67.9667
67.5698
67.2782
67.0912
67.0075
67.0249
67.1412
67.3532
67.6578
68.0513
68.5294
69.0873
69.7196
70.4198
71.1805
71.9937
72.8504
73.7414
74.6572
75.5886
76.5268
77.4636
78.3919
79.3054
80.1992
81.0696
81.914
82.7312
83.5242
84.2931
85.0387
85.7631
86.4689
87.16
87.8409
88.5169
89.1943
89.8801
90.5822
91.3097
92.0725
92.8821
93.7513
94.6951
95.7307
96.878
98.1611
99.6085
101.255
103.145
105.333
107.89
110.91
114.519
118.891
124.269
130.997
139.57
150.7
165.419
185.219
212.272
249.795
302.715
379.175
493.45
673.847
962.142
1337.57
7.63065
7.63384
7.63671
7.63946
7.64316
7.64926
7.65951
7.67628
7.7027
7.74349
7.804
7.89021
8.00942
8.17042
8.38378
8.66206
9.02011
9.47539
10.0482
10.7619
11.6429
12.7206
14.0268
15.5945
17.4565
19.6433
22.1799
25.0833
28.3596
32.002
35.9896
40.2869
44.8459
49.6081
54.5078
59.4763
64.4455
69.3517
74.1383
78.7577
83.1723
87.3546
91.2867
94.9591
98.3693
101.52
104.42
107.078
109.506
111.718
113.728
115.55
117.197
118.682
120.018
121.216
122.288
123.243
124.091
124.84
125.498
126.072
126.567
126.989
127.341
127.629
127.853
128.018
128.125
128.174
128.168
128.105
127.987
127.813
127.581
127.292
126.944
126.537
126.068
125.538
124.946
124.289
123.569
122.784
121.934
121.019
120.04
118.997
117.892
116.725
115.499
114.215
112.877
111.486
110.046
108.559
107.03
105.463
103.86
102.227
100.567
98.8848
97.1853
95.4726
93.7515
92.0266
90.3024
88.5835
86.8745
85.18
83.5044
81.8521
80.2275
78.6349
77.0785
75.5625
74.091
72.668
71.2977
69.9841
68.7311
67.5428
66.4232
65.3763
64.4063
63.5172
62.7129
61.9975
61.3746
60.8477
60.4201
60.0941
59.8718
59.7542
59.7413
59.8321
60.0249
60.3166
60.7038
61.1821
61.7469
62.3932
63.1153
63.9076
64.7634
65.6756
66.6366
67.6381
68.6712
69.7271
70.7968
71.8717
72.9436
74.0055
75.0509
76.0747
77.0728
78.0425
78.9829
79.8969
80.7843
81.6456
82.4827
83.2981
84.0956
84.8795
85.6553
86.429
87.2078
87.9998
88.8138
89.6602
90.5504
91.4974
92.5163
93.6243
94.8416
96.1922
97.7048
99.4143
101.364
103.609
106.219
109.287
112.937
117.34
122.734
129.458
137.995
149.044
163.615
183.165
209.797
246.587
298.129
371.686
479.137
640.959
881.408
1150.9
6.08533
6.06572
6.04605
6.02633
6.00676
5.98764
5.9693
5.95218
5.93686
5.92422
5.91553
5.91198
5.91511
5.92674
5.94908
5.98477
6.03693
6.1092
6.20583
6.33176
6.49266
6.69508
6.94649
7.25543
7.63153
8.08558
8.62952
9.27629
10.0396
10.9338
11.9728
13.1701
14.5374
16.0836
17.8145
19.7311
21.8297
24.101
26.5308
29.1001
31.7857
34.562
37.4015
40.2766
43.1603
46.0277
48.8564
51.6272
54.3242
56.935
59.4505
61.8643
64.1728
66.3745
68.4698
70.4601
72.3481
74.1371
75.8309
77.4334
78.9487
80.3805
81.7326
83.0085
84.2112
85.3434
86.4074
87.405
88.3378
89.2067
90.0123
90.755
91.4346
92.0508
92.6029
93.09
93.511
93.865
94.1505
94.3665
94.5117
94.5851
94.5857
94.5128
94.3659
94.1447
93.8493
93.4801
93.0377
92.5232
91.9379
91.2837
90.5627
89.7771
88.9299
88.0241
87.0629
86.05
84.9892
83.8845
82.7401
81.5603
80.3495
79.1124
77.8534
76.5773
75.2887
73.9922
72.6924
71.3941
70.1016
68.8196
67.5525
66.3046
65.0804
63.8839
62.7196
61.5916
60.504
59.461
58.4669
57.5257
56.6418
55.8195
55.0631
54.3773
53.7665
53.2354
52.7887
52.4307
52.166
51.9983
51.9312
51.9673
52.108
52.3538
52.7037
53.1553
53.7051
54.3481
55.0789
55.8913
56.7785
57.7337
58.7498
59.8191
60.9338
62.0858
63.2666
64.4674
65.6797
66.895
68.1054
69.3036
70.4833
71.6391
72.7667
73.8631
74.9281
75.9646
76.9717
77.9499
78.9008
79.8268
80.7314
81.619
82.4949
83.3653
84.2373
85.1188
86.019
86.9481
87.9177
88.9409
90.0327
91.2104
92.4944
93.9084
95.4812
97.2473
99.2497
101.542
104.195
107.297
110.972
115.385
120.768
127.449
135.898
146.792
161.104
180.236
206.19
241.849
291.396
361.125
460.571
603.693
802.555
1000.86
5.28902
5.26229
5.2356
5.20895
5.18242
5.15609
5.13006
5.10442
5.0793
5.05492
5.03163
5.00971
4.98952
4.97151
4.95623
4.94434
4.93663
4.93404
4.93765
4.94874
4.96875
4.99932
5.04232
5.09984
5.17424
5.26814
5.38448
5.5265
5.69783
5.90241
6.14461
6.42913
6.76103
7.14565
7.58854
8.09533
8.67159
9.32262
10.0532
10.8674
11.7683
12.7577
13.836
15.0021
16.2532
17.5849
18.9914
20.4656
21.9993
23.5837
25.2096
26.8676
28.5487
30.244
31.9456
33.6461
35.3389
37.0183
38.6796
40.3185
41.9318
43.5165
45.0703
46.5914
48.078
49.5286
50.942
52.3167
53.6513
54.9446
56.1948
57.4003
58.5593
59.6698
60.7297
61.7368
62.6887
63.5833
64.418
65.1906
65.8988
66.5404
67.1134
67.6161
68.0468
68.4044
68.6878
68.8964
69.03
69.0886
69.0728
68.9835
68.8219
68.5897
68.2889
67.9219
67.4915
67.0006
66.4525
65.8508
65.1993
64.5018
63.7626
62.9859
62.176
61.3374
60.4744
59.5917
58.6938
57.785
56.87
55.9531
55.0387
54.1313
53.235
52.3541
51.4928
50.6554
49.846
49.0688
48.3279
47.6276
46.9722
46.3663
45.8142
45.3209
44.8911
44.5299
44.2427
44.0348
43.9117
43.8785
43.9404
44.1018
44.3663
44.7364
45.213
45.7953
46.4808
47.2651
48.1425
49.1058
50.1472
51.2584
52.4309
53.6559
54.9248
56.2289
57.5593
58.9074
60.2646
61.6225
62.9732
64.3094
65.6248
66.9137
68.1716
69.395
70.5859
71.7455
72.8731
73.9687
75.0339
76.0708
77.0828
78.0743
79.0504
80.0173
80.982
81.9525
82.938
83.9487
84.9962
86.0935
87.2558
88.5004
89.8473
91.3205
92.9481
94.7646
96.8122
99.1439
101.828
104.952
108.634
113.037
118.382
124.985
133.298
143.968
157.922
176.488
201.543
235.739
282.807
348.06
438.898
564.189
727.931
877.549
4.82658
4.79759
4.76868
4.73988
4.71121
4.6827
4.6544
4.62634
4.59854
4.57111
4.54413
4.5177
4.49189
4.46683
4.44267
4.41958
4.39779
4.37757
4.35924
4.34318
4.32981
4.31964
4.31323
4.31122
4.31432
4.32331
4.33907
4.36254
4.39475
4.43682
4.48998
4.55552
4.63486
4.72952
4.84111
4.97136
5.1221
5.29525
5.49282
5.7169
5.9696
6.25309
6.56949
6.92089
7.30926
7.73645
8.20409
8.71357
9.26602
9.86221
10.5026
11.1872
11.9157
12.6875
13.5014
14.3562
15.2501
16.1812
17.1474
18.1463
19.1754
20.2322
21.3139
22.4177
23.5407
24.6801
25.8327
26.9955
28.1653
29.3387
30.5124
31.6828
32.8463
33.9991
35.1375
36.2573
37.3546
38.4253
39.4654
40.4707
41.4373
42.3612
43.2387
44.0663
44.8406
45.5587
46.2177
46.8154
47.3498
47.8193
48.2229
48.5598
48.8298
49.0331
49.1704
49.2427
49.2515
49.1986
49.0864
48.9172
48.6941
48.4199
48.0982
47.7323
47.3261
46.8833
46.408
45.904
45.3756
44.8268
44.2617
43.6845
43.0993
42.5102
41.9212
41.3364
40.7598
40.1955
39.6473
39.1194
38.6157
38.1405
37.6978
37.292
36.9276
36.6094
36.3423
36.1315
35.9825
35.9014
35.8941
35.9671
36.1267
36.3793
36.7305
37.1853
37.7473
38.4185
39.1987
40.0853
41.0736
42.1567
43.3261
44.5722
45.8848
47.2536
48.6682
50.1186
51.5951
53.0882
54.5889
56.0885
57.5789
59.0527
60.5033
61.9249
63.3127
64.6624
65.9791
67.2619
68.5096
69.7225
70.9016
72.0492
73.1683
74.2632
75.339
76.4016
77.4583
78.5168
79.5863
80.677
81.8004
82.9697
84.1997
85.5078
86.9139
88.4415
90.1187
91.9791
94.0643
96.4262
99.1305
102.263
105.938
110.31
115.592
122.086
130.219
140.604
154.114
171.989
195.964
228.436
272.673
333.057
415.141
524.023
658.734
774.298
4.53727
4.50755
4.47796
4.44852
4.41924
4.39013
4.36122
4.33251
4.30402
4.27581
4.2479
4.22032
4.19308
4.16623
4.13979
4.11383
4.08841
4.0636
4.03951
4.01625
3.99396
3.9728
3.95296
3.93466
3.91814
3.90367
3.89156
3.88213
3.87575
3.8728
3.87371
3.87892
3.8889
3.90415
3.92521
3.95263
3.98699
4.0289
4.07898
4.13791
4.20638
4.2851
4.37482
4.47633
4.59043
4.71795
4.85976
5.01677
5.18988
5.38004
5.58822
5.8154
6.06258
6.33077
6.62096
6.93418
7.27141
7.63362
8.02175
8.43669
8.87927
9.35023
9.85022
10.3797
10.9392
11.5287
12.1483
12.7977
13.4764
14.1836
14.9182
15.6786
16.463
17.2693
18.0949
18.9368
19.7919
20.6564
21.5265
22.3982
23.2669
24.1284
24.978
25.8111
26.6233
27.4101
28.1672
28.8906
29.5767
30.2219
30.8234
31.3784
31.8849
32.341
32.7455
33.0977
33.3972
33.6442
33.8391
33.9829
34.077
34.1231
34.1231
34.0794
33.9945
33.8712
33.7125
33.5214
33.3013
33.0555
32.7874
32.5006
32.1984
31.8846
31.5627
31.2361
30.9087
30.5838
30.2652
29.9565
29.6614
29.3837
29.1272
28.8959
28.694
28.526
28.3965
28.3107
28.2739
28.2921
28.3716
28.5193
28.7424
29.0486
29.4453
29.94
30.5392
31.2481
32.0699
33.0056
34.053
35.2072
36.4604
37.8029
39.2232
40.7091
42.2482
43.8284
45.4382
47.0665
48.7031
50.3386
51.9642
53.5718
55.1545
56.7058
58.2209
59.6955
61.136
62.5402
63.9068
65.2356
66.5275
67.7844
69.0095
70.2066
71.3808
72.538
73.6851
74.83
75.9818
77.1505
78.3476
79.5861
80.8809
82.249
83.7101
85.2875
87.0086
88.9066
91.0218
93.4048
96.1194
99.2481
102.9
107.223
112.42
118.775
126.69
136.739
149.733
166.816
189.569
220.128
261.307
316.646
390.166
484.311
595.348
686.483
4.34815
4.31812
4.28828
4.25862
4.22917
4.19991
4.17086
4.14203
4.11342
4.08507
4.05698
4.02917
4.00162
3.97436
3.94739
3.92073
3.89439
3.8684
3.84278
3.81757
3.79281
3.76856
3.74487
3.72184
3.69953
3.67804
3.6575
3.63802
3.61975
3.60282
3.58741
3.5737
3.56186
3.55209
3.54461
3.53963
3.53738
3.53809
3.54201
3.54937
3.56044
3.57547
3.59474
3.61853
3.64711
3.68078
3.71986
3.76466
3.81552
3.8728
3.93688
4.00816
4.08707
4.17408
4.26968
4.37442
4.48888
4.61367
4.74947
4.89701
5.05706
5.23043
5.418
5.62068
5.83941
6.07517
6.32894
6.60171
6.89442
7.20799
7.54323
7.90087
8.28146
8.68537
9.11278
9.56355
10.0373
10.5332
11.0503
11.5869
12.1414
12.7114
13.2943
13.8873
14.487
15.0901
15.6928
16.2914
16.8822
17.4612
18.0248
18.5694
19.0918
19.5887
20.0576
20.496
20.9019
21.2737
21.6102
21.9105
22.1743
22.4016
22.5927
22.7483
22.8694
22.9575
23.0141
23.0409
23.0402
23.014
22.9648
22.8951
22.8074
22.7045
22.5892
22.4644
22.3328
22.1974
22.0613
21.9274
21.7989
21.6791
21.5712
21.4786
21.4051
21.3545
21.3309
21.339
21.3837
21.4703
21.6051
21.7947
22.0465
22.3685
22.7695
23.2585
23.8445
24.5359
25.3399
26.2616
27.3035
28.4644
29.7397
31.1209
32.5972
34.1552
35.7807
37.4592
39.1766
40.9194
42.6755
44.4335
46.1833
47.9158
49.623
51.2977
52.9342
54.5297
56.0902
57.6125
59.0948
60.5368
61.9389
63.3029
64.6316
65.9288
67.1993
68.4489
69.6844
70.9136
72.1452
73.3894
74.6575
75.9623
77.3184
78.7427
80.2546
81.8767
83.6362
85.5651
87.7029
90.0984
92.8129
95.9258
99.5411
103.798
108.889
115.079
122.744
132.413
144.835
161.051
182.481
211.006
249.011
299.302
364.681
445.813
537.674
610.841
4.22155
4.19129
4.16125
4.13146
4.10189
4.07256
4.04347
4.0146
3.98599
3.95764
3.92956
3.90173
3.87416
3.84686
3.81981
3.79303
3.76652
3.74027
3.7143
3.68862
3.66323
3.63816
3.61341
3.58902
3.56502
3.54144
3.51832
3.4957
3.47365
3.45222
3.43147
3.41148
3.39232
3.37409
3.35687
3.34075
3.32584
3.31223
3.30004
3.28937
3.28034
3.27305
3.26764
3.26421
3.2629
3.26381
3.26707
3.27282
3.2812
3.29232
3.30635
3.32344
3.34375
3.36745
3.39474
3.42581
3.4609
3.50025
3.54413
3.59284
3.64669
3.70606
3.77132
3.84292
3.92132
4.00702
4.10059
4.2026
4.31369
4.43451
4.56577
4.70817
4.86243
5.02929
5.20945
5.40358
5.61228
5.8361
6.07544
6.33057
6.60159
6.88842
7.19072
7.50792
7.83919
8.18341
8.53919
8.90487
9.27854
9.65809
10.0412
10.4254
10.8081
11.1869
11.559
11.922
12.2736
12.6115
12.9337
13.2384
13.5241
13.7897
14.0341
14.2568
14.4573
14.6358
14.7923
14.9274
15.0418
15.1365
15.2126
15.2715
15.3147
15.3437
15.3605
15.3668
15.3647
15.3563
15.3436
15.3291
15.315
15.3038
15.2981
15.3006
15.3143
15.3422
15.3877
15.4547
15.5471
15.6698
15.8279
16.0275
16.2752
16.5789
16.9472
17.3897
17.9167
18.539
19.2671
20.1106
21.077
22.1708
23.3925
24.7382
26.1996
27.7648
29.4189
31.1455
32.928
34.7499
36.596
38.4524
40.3067
42.1477
43.9656
45.7519
47.4988
49.2084
50.8823
52.5167
54.1096
55.6599
57.1679
58.6351
60.0638
61.4578
62.8214
64.1604
65.4813
66.7918
68.1004
69.417
70.7528
72.1203
73.534
75.0104
76.5684
78.2302
80.0222
81.9756
84.1285
86.5279
89.2328
92.3185
95.8837
100.06
105.026
111.03
118.416
127.673
139.48
154.776
174.822
201.252
236.062
281.437
339.24
409.018
485.368
545.018
4.13596
4.10544
4.07519
4.04521
4.0155
3.98606
3.95688
3.92797
3.89933
3.87097
3.84288
3.81505
3.7875
3.7602
3.73317
3.7064
3.67988
3.65362
3.62762
3.60186
3.57637
3.55112
3.52614
3.50143
3.47699
3.45284
3.42899
3.40546
3.38225
3.35941
3.33695
3.31491
3.29331
3.27219
3.25159
3.23156
3.21213
3.19336
3.1753
3.158
3.14151
3.12589
3.1112
3.09749
3.08482
3.07325
3.06285
3.05366
3.04577
3.03922
3.03408
3.03042
3.02832
3.02783
3.02905
3.03206
3.03694
3.04379
3.05272
3.06385
3.0773
3.09321
3.11174
3.13307
3.15737
3.18486
3.21577
3.25034
3.28886
3.33162
3.37893
3.43115
3.48865
3.55181
3.62104
3.69676
3.77941
3.86942
3.96723
4.07323
4.18783
4.31136
4.44412
4.58631
4.73806
4.89939
5.07018
5.25021
5.43907
5.63623
5.84096
6.0524
6.26954
6.49123
6.71618
6.94304
7.17036
7.39668
7.62052
7.84043
8.05501
8.26298
8.46314
8.65445
8.83603
9.00716
9.1673
9.31609
9.45339
9.5792
9.69374
9.79736
9.8906
9.97415
10.0488
10.1156
10.1756
10.2299
10.28
10.3271
10.373
10.4191
10.4673
10.5195
10.5777
10.6443
10.7217
10.8128
10.9206
11.0489
11.2017
11.3839
11.6009
11.8596
12.1673
12.5332
12.9674
13.4813
14.0872
14.7978
15.6254
16.5802
17.6696
18.8966
20.2588
21.7488
23.354
25.0584
26.8437
28.6909
30.5815
32.498
34.4246
36.3473
38.2534
40.1321
41.974
43.7854
45.5617
47.2987
48.9936
50.6448
52.2521
53.8164
55.3399
56.8256
58.2779
59.702
61.1043
62.4921
63.8739
65.2591
66.6587
68.0851
69.5522
71.0761
72.6754
74.3716
76.1903
78.1616
80.3223
82.7174
85.4032
88.4511
91.9541
96.0354
100.861
106.659
113.747
122.567
133.731
148.076
166.71
191.037
222.708
263.394
314.263
374.213
437.995
487.263
4.07809
4.04728
4.01677
3.98657
3.95668
3.92708
3.89777
3.86875
3.84003
3.8116
3.78346
3.7556
3.72802
3.70072
3.67368
3.64692
3.62041
3.59417
3.56818
3.54244
3.51695
3.49171
3.46672
3.44197
3.41747
3.39321
3.36921
3.34546
3.32197
3.29874
3.2758
3.25314
3.23078
3.20874
3.18704
3.16568
3.1447
3.12411
3.10394
3.08421
3.06495
3.04619
3.02795
3.01027
2.99318
2.9767
2.96087
2.94571
2.93127
2.91757
2.90464
2.89252
2.88124
2.87084
2.86135
2.85281
2.84525
2.83873
2.83329
2.82897
2.82583
2.82393
2.82332
2.82409
2.82631
2.83006
2.83544
2.84255
2.8515
2.86242
2.87545
2.89073
2.90842
2.92871
2.95176
2.97779
3.00699
3.0396
3.07582
3.11591
3.16008
3.20858
3.26163
3.31944
3.38221
3.4501
3.52326
3.60177
3.68569
3.775
3.86962
3.96941
4.07414
4.1835
4.29713
4.41455
4.53523
4.65858
4.78394
4.91061
5.03786
5.16497
5.29117
5.41577
5.53807
5.65745
5.77334
5.88526
5.99279
6.09565
6.19363
6.28663
6.37467
6.45787
6.53645
6.61074
6.68119
6.74834
6.81281
6.87535
6.9368
6.9981
7.0603
7.12458
7.19225
7.26478
7.34383
7.43129
7.5293
7.64038
7.76745
7.91399
8.08414
8.28285
8.51613
8.79122
9.11678
9.50312
9.96222
10.5076
11.1539
11.9159
12.8073
13.8388
15.0167
16.3415
17.8072
19.4018
21.1086
22.9077
24.7782
26.6992
28.6508
30.615
32.5752
34.5168
36.4332
38.3261
40.1878
42.0129
43.7972
45.5383
47.2351
48.888
50.4984
52.069
53.6037
55.1072
56.5855
58.0457
59.4958
60.945
62.4039
63.8844
65.4002
66.9668
68.6022
70.3273
72.1666
74.1494
76.3107
78.6935
81.3512
84.3515
87.7813
91.7553
96.4269
102.005
108.778
117.144
127.649
141.032
158.258
180.518
209.162
245.453
290.055
341.542
395.097
436.247
4.03924
4.00813
3.97736
3.94692
3.91682
3.88702
3.85755
3.8284
3.79955
3.77102
3.74279
3.71485
3.68721
3.65985
3.63278
3.60599
3.57947
3.55322
3.52723
3.50151
3.47604
3.45082
3.42585
3.40113
3.37665
3.35241
3.32841
3.30465
3.28113
3.25786
3.23482
3.21204
3.1895
3.16722
3.14521
3.12347
3.102
3.08083
3.05996
3.0394
3.01917
2.99928
2.97975
2.96058
2.9418
2.92342
2.90545
2.88792
2.87084
2.85422
2.83809
2.82245
2.80733
2.79274
2.77871
2.76524
2.75236
2.74009
2.72844
2.71745
2.70712
2.69749
2.68858
2.68043
2.67306
2.66652
2.66083
2.65605
2.65222
2.6494
2.64765
2.64702
2.64759
2.64943
2.65263
2.65728
2.66346
2.67129
2.68087
2.69231
2.70573
2.72125
2.73898
2.75906
2.7816
2.80672
2.83452
2.8651
2.89855