/*--------------------------------*- C++ -*----------------------------------*\
| =========                 |                                                 |
| \\      /  F ield         | OpenFOAM: The Open Source CFD Toolbox           |
|  \\    /   O peration     | Version:  2.4.0                                 |
|   \\  /    A nd           | Web:      www.OpenFOAM.org                      |
|    \\/     M anipulation  |                                                 |
\*---------------------------------------------------------------------------*/
FoamFile
{
    version     2.0;
    format      ascii;
    class       surfaceScalarField;
    location    "0.17";
    object      phi;
}
// * * * * * * * * * * * * * * * * * * * * * * * * * * * * * * * * * * * * * //

dimensions      [0 3 -1 0 0 0 0];

internalField   nonuniform List<scalar> 
34680
(
2.40733e-05
9.26718e-07
2.16931e-05
2.38021e-06
1.88214e-05
2.87169e-06
1.60451e-05
2.77633e-06
1.362e-05
2.42504e-06
1.16593e-05
1.96073e-06
1.01515e-05
1.50779e-06
9.05649e-06
1.09501e-06
8.27694e-06
7.79548e-07
7.73464e-06
5.423e-07
7.37016e-06
3.64486e-07
7.09498e-06
2.75176e-07
6.92189e-06
1.73089e-07
6.76536e-06
1.56531e-07
6.64668e-06
1.18675e-07
6.56254e-06
8.41434e-08
6.45146e-06
1.11081e-07
6.39149e-06
5.99739e-08
6.31839e-06
7.3099e-08
6.23654e-06
8.1843e-08
6.1961e-06
4.04465e-08
6.12966e-06
6.64427e-08
6.06634e-06
6.33111e-08
6.03623e-06
3.011e-08
5.98001e-06
5.62265e-08
5.92632e-06
5.36911e-08
5.91481e-06
1.15116e-08
5.85991e-06
5.48989e-08
5.8312e-06
2.87105e-08
5.8221e-06
9.09261e-09
5.78779e-06
3.43089e-08
5.77104e-06
1.6754e-08
5.77066e-06
3.81468e-10
5.74944e-06
2.12195e-08
5.74111e-06
8.3313e-09
5.7194e-06
2.17044e-08
5.69077e-06
2.86301e-08
5.61517e-06
7.55995e-08
5.4274e-06
1.87771e-07
1.83056e-07
5.24435e-06
2.52159e-05
7.10866e-07
2.55492e-05
2.0469e-06
2.55704e-05
2.8504e-06
2.5236e-05
3.11077e-06
2.46302e-05
3.03082e-06
2.38801e-05
2.71083e-06
2.30639e-05
2.32401e-06
2.22817e-05
1.87719e-06
2.15412e-05
1.52008e-06
2.08737e-05
1.20977e-06
2.02751e-05
9.63076e-07
1.97232e-05
8.27064e-07
1.92544e-05
6.41902e-07
1.88024e-05
6.08583e-07
1.84174e-05
5.03656e-07
1.80712e-05
4.30339e-07
1.77348e-05
4.47448e-07
1.7465e-05
3.2977e-07
1.72006e-05
3.37504e-07
1.69545e-05
3.27953e-07
1.67583e-05
2.3666e-07
1.65555e-05
2.69229e-07
1.63686e-05
2.50214e-07
1.62258e-05
1.72896e-07
1.60644e-05
2.17596e-07
1.59191e-05
1.99043e-07
1.58203e-05
1.10263e-07
1.56823e-05
1.9292e-07
1.55872e-05
1.23849e-07
1.55013e-05
9.50077e-08
1.54147e-05
1.2086e-07
1.53289e-05
1.02552e-07
1.52934e-05
3.58651e-08
1.52007e-05
1.13994e-07
1.51867e-05
2.23146e-08
1.50676e-05
1.40751e-07
1.50771e-05
1.92016e-08
1.49388e-05
2.13877e-07
1.50295e-05
9.70909e-08
2.96416e-07
1.49161e-05
2.51646e-05
5.46295e-07
2.56212e-05
1.59023e-06
2.6146e-05
2.32562e-06
2.65662e-05
2.69058e-06
2.68808e-05
2.71624e-06
2.70602e-05
2.53142e-06
2.71158e-05
2.26847e-06
2.71056e-05
1.88732e-06
2.69988e-05
1.62691e-06
2.68819e-05
1.32669e-06
2.67041e-05
1.14083e-06
2.65146e-05
1.01657e-06
2.63327e-05
8.23858e-07
2.60955e-05
8.45718e-07
2.59079e-05
6.91253e-07
2.56894e-05
6.48849e-07
2.5465e-05
6.71827e-07
2.52887e-05
5.06095e-07
2.50632e-05
5.63032e-07
2.48809e-05
5.10247e-07
2.46912e-05
4.26343e-07
2.45161e-05
4.44305e-07
2.43189e-05
4.47402e-07
2.41872e-05
3.04607e-07
2.39925e-05
4.12313e-07
2.38533e-05
3.38273e-07
2.37125e-05
2.51059e-07
2.3564e-05
3.41444e-07
2.34294e-05
2.58454e-07
2.33321e-05
1.92221e-07
2.31844e-05
2.68606e-07
2.31123e-05
1.74646e-07
2.29889e-05
1.59254e-07
2.29333e-05
1.69586e-07
2.28287e-05
1.26921e-07
2.28175e-05
1.51997e-07
2.26743e-05
1.62364e-07
2.27166e-05
1.71564e-07
2.27073e-05
1.06388e-07
-9.94242e-08
2.31032e-05
2.51315e-05
4.14778e-07
2.54967e-05
1.22501e-06
2.59736e-05
1.84876e-06
2.64295e-05
2.2347e-06
2.6883e-05
2.26276e-06
2.72547e-05
2.1597e-06
2.75568e-05
1.96636e-06
2.78246e-05
1.61949e-06
2.79878e-05
1.4637e-06
2.81617e-05
1.15278e-06
2.82778e-05
1.02473e-06
2.83378e-05
9.56595e-07
2.84421e-05
7.19526e-07
2.84377e-05
8.50174e-07
2.84879e-05
6.41063e-07
2.85026e-05
6.34094e-07
2.84925e-05
6.8199e-07
2.85058e-05
4.92785e-07
2.84881e-05
5.80694e-07
2.84733e-05
5.25045e-07
2.84564e-05
4.43255e-07
2.84387e-05
4.6199e-07
2.84045e-05
4.81601e-07
2.83807e-05
3.28428e-07
2.83522e-05
4.40844e-07
2.83027e-05
3.8773e-07
2.82943e-05
2.59451e-07
2.82363e-05
3.99456e-07
2.82122e-05
2.82556e-07
2.81774e-05
2.27029e-07
2.81437e-05
3.02289e-07
2.81103e-05
2.08114e-07
2.80866e-05
1.82886e-07
2.80622e-05
1.9405e-07
2.79801e-05
2.08986e-07
2.80353e-05
9.67499e-08
2.80973e-05
1.00402e-07
2.84387e-05
-1.69882e-07
2.89213e-05
-3.76148e-07
-7.00944e-07
2.95228e-05
2.51299e-05
2.84896e-07
2.53324e-05
1.02245e-06
2.58209e-05
1.36033e-06
2.62128e-05
1.84276e-06
2.66905e-05
1.78504e-06
2.70224e-05
1.82783e-06
2.73951e-05
1.59362e-06
2.76164e-05
1.39829e-06
2.79001e-05
1.17999e-06
2.80394e-05
1.01339e-06
2.83024e-05
7.61764e-07
2.83535e-05
9.05525e-07
2.85784e-05
4.94565e-07
2.86345e-05
7.94111e-07
2.87981e-05
4.77487e-07
2.88184e-05
6.13795e-07
2.90079e-05
4.92456e-07
2.89656e-05
5.35125e-07
2.91483e-05
3.98004e-07
2.91518e-05
5.21545e-07
2.9274e-05
3.20976e-07
2.92657e-05
4.70291e-07
2.94433e-05
3.04063e-07
2.93633e-05
4.08386e-07
2.95577e-05
2.46452e-07
2.95025e-05
4.42982e-07
2.96443e-05
1.17588e-07
2.96127e-05
4.31096e-07
2.9762e-05
1.33274e-07
2.9688e-05
3.01025e-07
2.98915e-05
9.8785e-08
2.97954e-05
3.04225e-07
2.99838e-05
-5.59237e-09
2.99493e-05
2.28604e-07
3.01959e-05
-3.76525e-08
3.00318e-05
2.6092e-07
3.01992e-05
-6.70855e-08
2.95333e-05
4.96044e-07
2.89158e-05
2.41349e-07
2.63039e-07
2.79518e-05
2.50966e-05
1.88284e-07
2.52932e-05
8.25868e-07
2.56741e-05
9.79442e-07
2.60638e-05
1.45301e-06
2.64842e-05
1.36467e-06
2.68493e-05
1.46274e-06
2.71659e-05
1.27697e-06
2.74602e-05
1.10403e-06
2.76756e-05
9.64577e-07
2.78542e-05
8.34784e-07
2.80517e-05
5.64315e-07
2.82005e-05
7.56694e-07
2.8318e-05
3.77069e-07
2.84939e-05
6.18176e-07
2.85705e-05
4.00907e-07
2.8673e-05
5.11349e-07
2.88323e-05
3.33086e-07
2.8885e-05
4.82497e-07
2.89649e-05
3.18016e-07
2.91294e-05
3.57109e-07
2.91373e-05
3.13073e-07
2.92498e-05
3.57737e-07
2.9363e-05
1.90908e-07
2.93813e-05
3.90056e-07
2.94863e-05
1.41458e-07
2.95845e-05
3.44797e-07
2.95919e-05
1.1023e-07
2.9746e-05
2.76954e-07
2.97592e-05
1.20091e-07
2.98536e-05
2.06571e-07
2.99346e-05
1.77809e-08
3.00476e-05
1.91232e-07
3.00617e-05
-1.96926e-08
3.02351e-05
5.52543e-08
3.02509e-05
-5.34331e-08
3.04311e-05
8.06881e-08
3.06015e-05
-2.37487e-07
3.11092e-05
-1.16161e-08
3.16421e-05
-2.91587e-07
-4.83187e-07
3.23883e-05
2.50564e-05
1.3187e-07
2.52884e-05
5.9392e-07
2.55538e-05
7.13993e-07
2.59444e-05
1.06241e-06
2.63133e-05
9.95804e-07
2.6699e-05
1.07706e-06
2.69938e-05
9.82164e-07
2.73123e-05
7.85501e-07
2.74822e-05
7.9463e-07
2.77526e-05
5.64412e-07
2.7845e-05
4.7193e-07
2.80767e-05
5.24947e-07
2.81313e-05
3.22488e-07
2.83321e-05
4.17451e-07
2.84034e-05
3.29566e-07
2.85458e-05
3.68915e-07
2.8643e-05
2.35895e-07
2.87563e-05
3.69234e-07
2.87959e-05
2.78415e-07
2.89889e-05
1.64138e-07
2.89459e-05
3.56049e-07
2.91417e-05
1.61918e-07
2.91606e-05
1.71981e-07
2.92597e-05
2.90951e-07
2.93223e-05
7.88821e-08
2.94473e-05
2.19764e-07
2.9423e-05
1.34517e-07
2.96297e-05
7.03432e-08
2.95865e-05
1.63292e-07
2.97365e-05
5.65659e-08
2.97691e-05
-1.48594e-08
2.98987e-05
6.16391e-08
2.99037e-05
-2.46713e-08
3.01112e-05
-1.52242e-07
3.01605e-05
-1.02812e-07
3.04092e-05
-1.67998e-07
3.05052e-05
-3.33412e-07
3.08876e-05
-3.94084e-07
3.10281e-05
-4.32094e-07
-7.5048e-07
3.12954e-05
2.50393e-05
9.25439e-08
2.52202e-05
4.13006e-07
2.55026e-05
4.31597e-07
2.5848e-05
7.17069e-07
2.62393e-05
6.04451e-07
2.65675e-05
7.48931e-07
2.69169e-05
6.32743e-07
2.71796e-05
5.22765e-07
2.74199e-05
5.54362e-07
2.76307e-05
3.53635e-07
2.77479e-05
3.54722e-07
2.79428e-05
3.30046e-07
2.80496e-05
2.15685e-07
2.81844e-05
2.82575e-07
2.83069e-05
2.07148e-07
2.84137e-05
2.62059e-07
2.85277e-05
1.21944e-07
2.86057e-05
2.91171e-07
2.87588e-05
1.2534e-07
2.87938e-05
1.2916e-07
2.89139e-05
2.35959e-07
2.90156e-05
6.01659e-08
2.90657e-05
1.21953e-07
2.91376e-05
2.19017e-07
2.92308e-05
-1.4309e-08
2.92827e-05
1.67832e-07
2.93669e-05
5.03238e-08
2.94282e-05
9.02045e-09
2.95162e-05
7.53135e-08
2.95725e-05
3.24617e-10
2.96695e-05
-1.11933e-07
2.9729e-05
2.13611e-09
2.98747e-05
-1.70309e-07
2.99473e-05
-2.24856e-07
3.01106e-05
-2.66128e-07
3.02441e-05
-3.01523e-07
3.04386e-05
-5.27843e-07
3.06812e-05
-6.36709e-07
3.09252e-05
-6.76131e-07
-7.69294e-07
3.0944e-05
2.49979e-05
9.46823e-08
2.52512e-05
1.59618e-07
2.54378e-05
2.45075e-07
2.58356e-05
3.19193e-07
2.61514e-05
2.88703e-07
2.64993e-05
4.01017e-07
2.68316e-05
3.00489e-07
2.7108e-05
2.46362e-07
2.73145e-05
3.47853e-07
2.75894e-05
7.86646e-08
2.76684e-05
2.75814e-07
2.78802e-05
1.18239e-07
2.79835e-05
1.12346e-07
2.81237e-05
1.42344e-07
2.81845e-05
1.46345e-07
2.8411e-05
3.55727e-08
2.83949e-05
1.38071e-07
2.85996e-05
8.64589e-08
2.8656e-05
6.89865e-08
2.87121e-05
7.29866e-08
2.88423e-05
1.05757e-07
2.89511e-05
-4.85663e-08
2.89495e-05
1.23516e-07
2.91126e-05
5.58762e-08
2.90972e-05
1.16115e-09
2.92737e-05
-8.69409e-09
2.92536e-05
7.04429e-08
2.9374e-05
-1.11436e-07
2.94379e-05
1.14663e-08
2.953e-05
-9.18053e-08
2.95333e-05
-1.15249e-07
2.97068e-05
-1.7137e-07
2.97385e-05
-2.01957e-07
2.98826e-05
-3.68983e-07
2.99683e-05
-3.5177e-07
3.01919e-05
-5.25195e-07
3.03405e-05
-6.76465e-07
3.05287e-05
-8.24849e-07
3.07977e-05
-9.4518e-07
-1.01947e-06
3.10479e-05
2.50113e-05
8.34144e-08
2.52511e-05
-8.02062e-08
2.54415e-05
5.46444e-08
2.5845e-05
-8.42362e-08
2.60984e-05
3.5214e-08
2.6477e-05
2.24946e-08
2.68052e-05
-2.77549e-08
2.70585e-05
-6.92635e-09
2.73118e-05
9.45146e-08
2.7523e-05
-1.32551e-07
2.76535e-05
1.45361e-07
2.78221e-05
-5.03975e-08
2.79927e-05
-5.81969e-08
2.80302e-05
1.04866e-07
2.81936e-05
-1.7075e-08
2.83554e-05
-1.2625e-07
2.83514e-05
1.42115e-07
2.85771e-05
-1.39276e-07
2.86305e-05
1.55395e-08
2.86593e-05
4.41761e-08
2.88734e-05
-1.08292e-07
2.88654e-05
-4.05596e-08
2.89629e-05
2.60407e-08
2.90575e-05
-3.87823e-08
2.90929e-05
-3.42082e-08
2.92005e-05
-1.16332e-07
2.9248e-05
2.29486e-08
2.92981e-05
-1.61514e-07
2.94379e-05
-1.2829e-07
2.94331e-05
-8.70027e-08
2.95242e-05
-2.06383e-07
2.96314e-05
-2.78576e-07
2.97078e-05
-2.78331e-07
2.97909e-05
-4.52111e-07
2.99483e-05
-5.09183e-07
3.01011e-05
-6.77953e-07
3.02786e-05
-8.53982e-07
3.04721e-05
-1.0184e-06
3.07243e-05
-1.1973e-06
-1.21567e-06
3.09205e-05
2.5016e-05
6.74419e-08
2.52946e-05
-3.58841e-07
2.54342e-05
-8.49712e-08
2.58526e-05
-5.0266e-07
2.60253e-05
-1.37438e-07
2.65249e-05
-4.77152e-07
2.67252e-05
-2.27982e-07
2.70886e-05
-3.70369e-07
2.72505e-05
-6.73806e-08
2.75785e-05
-4.60569e-07
2.76139e-05
1.09959e-07
2.79152e-05
-3.51692e-07
2.79411e-05
-8.40853e-08
2.80992e-05
-5.32547e-08
2.82157e-05
-1.33579e-07
2.83833e-05
-2.938e-07
2.83285e-05
1.96902e-07
2.86544e-05
-4.65223e-07
2.85368e-05
1.33159e-07
2.87614e-05
-1.80381e-07
2.87869e-05
-1.33797e-07
2.88909e-05
-1.4458e-07
2.89017e-05
1.52052e-08
2.91267e-05
-2.63688e-07
2.90281e-05
6.42991e-08
2.92696e-05
-3.57822e-07
2.92012e-05
9.13413e-08
2.93751e-05
-3.35327e-07
2.93529e-05
-1.06141e-07
2.95282e-05
-2.62341e-07
2.94538e-05
-1.31907e-07
2.97085e-05
-5.33266e-07
2.95835e-05
-1.53417e-07
2.98054e-05
-6.73984e-07
2.97969e-05
-5.00635e-07
3.00639e-05
-9.45031e-07
3.01363e-05
-9.26309e-07
3.05809e-05
-1.46299e-06
3.07132e-05
-1.32964e-06
-1.46907e-06
3.09666e-05
2.50426e-05
2.48832e-08
2.52734e-05
-5.89663e-07
2.54796e-05
-2.91221e-07
2.58161e-05
-8.3911e-07
2.61203e-05
-4.41652e-07
2.65518e-05
-9.08608e-07
2.67817e-05
-4.57974e-07
2.71455e-05
-7.3416e-07
2.73405e-05
-2.62359e-07
2.7593e-05
-7.13053e-07
2.76697e-05
3.32173e-08
2.79739e-05
-6.55903e-07
2.79202e-05
-3.03515e-08
2.82083e-05
-3.41317e-07
2.82536e-05
-1.78889e-07
2.83697e-05
-4.09924e-07
2.8446e-05
1.20638e-07
2.86562e-05
-6.7543e-07
2.8575e-05
2.14377e-07
2.88646e-05
-4.70051e-07
2.87778e-05
-4.6944e-08
2.8948e-05
-3.14829e-07
2.89682e-05
-4.96151e-09
2.91526e-05
-4.48129e-07
2.90789e-05
1.38069e-07
2.93094e-05
-5.88404e-07
2.92388e-05
1.62022e-07
2.94281e-05
-5.24679e-07
2.93858e-05
-6.38367e-08
2.95764e-05
-4.52961e-07
2.95025e-05
-5.79422e-08
2.97281e-05
-7.58927e-07
2.96229e-05
-4.81914e-08
2.98082e-05
-8.59293e-07
2.97489e-05
-4.41313e-07
2.99653e-05
-1.16149e-06
2.9894e-05
-8.54911e-07
3.05561e-05
-2.12509e-06
3.11634e-05
-1.93696e-06
-2.19756e-06
3.18919e-05
2.51226e-05
-9.77336e-08
2.51283e-05
-5.95375e-07
2.5561e-05
-7.23892e-07
2.57774e-05
-1.05553e-06
2.6319e-05
-9.8322e-07
2.65492e-05
-1.13884e-06
2.69676e-05
-8.76401e-07
2.71412e-05
-9.07688e-07
2.75512e-05
-6.72377e-07
2.75448e-05
-7.06637e-07
2.79425e-05
-3.64468e-07
2.7932e-05
-6.45398e-07
2.81295e-05
-2.27931e-07
2.82559e-05
-4.67695e-07
2.84056e-05
-3.28616e-07
2.83679e-05
-3.72182e-07
2.87162e-05
-2.27692e-07
2.85422e-05
-5.01389e-07
2.88215e-05
-6.49259e-08
2.8818e-05
-4.66542e-07
2.89568e-05
-1.85774e-07
2.89472e-05
-3.05271e-07
2.91865e-05
-2.44234e-07
2.9059e-05
-3.20594e-07
2.93421e-05
-1.45083e-07
2.92146e-05
-4.60881e-07
2.94718e-05
-9.51548e-08
2.93812e-05
-4.34103e-07
2.95911e-05
-2.73717e-07
2.94934e-05
-3.55275e-07
2.97672e-05
-3.31682e-07
2.95856e-05
-5.77328e-07
2.98806e-05
-3.43198e-07
2.97171e-05
-6.95785e-07
2.99789e-05
-7.03177e-07
2.9809e-05
-9.91611e-07
2.99872e-05
-1.03308e-06
2.93242e-05
-1.4621e-06
2.88214e-05
-1.43417e-06
-1.65939e-06
2.82833e-05
2.51283e-05
-2.26039e-07
2.52129e-05
-6.79949e-07
2.5585e-05
-1.09603e-06
2.5916e-05
-1.38648e-06
2.63888e-05
-1.45606e-06
2.66662e-05
-1.41624e-06
2.70743e-05
-1.28445e-06
2.72755e-05
-1.10895e-06
2.75994e-05
-9.96302e-07
2.76612e-05
-7.68367e-07
2.79953e-05
-6.98629e-07
2.79717e-05
-6.2173e-07
2.82484e-05
-5.0465e-07
2.83146e-05
-5.33898e-07
2.84674e-05
-4.81426e-07
2.85195e-05
-4.24314e-07
2.87452e-05
-4.53321e-07
2.865e-05
-4.06195e-07
2.89325e-05
-3.47464e-07
2.88868e-05
-4.20823e-07
2.90472e-05
-3.4618e-07
2.9065e-05
-3.23093e-07
2.92209e-05
-4.00087e-07
2.91876e-05
-2.87309e-07
2.94142e-05
-3.71667e-07
2.93094e-05
-3.56088e-07
2.95448e-05
-3.30618e-07
2.94918e-05
-3.81068e-07
2.96327e-05
-4.14647e-07
2.96307e-05
-3.53254e-07
2.98109e-05
-5.11883e-07
2.96969e-05
-4.6327e-07
2.9925e-05
-5.7139e-07
2.98337e-05
-6.0441e-07
2.99412e-05
-8.10693e-07
2.97654e-05
-8.15774e-07
2.9724e-05
-9.91711e-07
2.9355e-05
-1.09312e-06
2.92242e-05
-1.30338e-06
-1.29927e-06
2.88641e-05
2.51167e-05
-3.42715e-07
2.5312e-05
-8.75276e-07
2.5678e-05
-1.46205e-06
2.60681e-05
-1.77658e-06
2.64838e-05
-1.87175e-06
2.68441e-05
-1.77656e-06
2.71979e-05
-1.63821e-06
2.74524e-05
-1.36346e-06
2.76764e-05
-1.22032e-06
2.78607e-05
-9.52658e-07
2.80531e-05
-8.91012e-07
2.81667e-05
-7.35287e-07
2.83677e-05
-7.05692e-07
2.8444e-05
-6.10167e-07
2.85925e-05
-6.29995e-07
2.8681e-05
-5.12829e-07
2.88056e-05
-5.77865e-07
2.8874e-05
-4.74621e-07
2.90154e-05
-4.88805e-07
2.90596e-05
-4.65099e-07
2.9163e-05
-4.49578e-07
2.92333e-05
-3.9336e-07
2.93232e-05
-4.89974e-07
2.93718e-05
-3.35902e-07
2.94819e-05
-4.81822e-07
2.9511e-05
-3.85124e-07
2.96054e-05
-4.25052e-07
2.96731e-05
-4.48773e-07
2.97212e-05
-4.6277e-07
2.98035e-05
-4.35523e-07
2.98609e-05
-5.69283e-07
2.98969e-05
-4.99299e-07
2.99447e-05
-6.19127e-07
2.99778e-05
-6.37522e-07
2.98955e-05
-7.28433e-07
2.98384e-05
-7.58656e-07
2.97081e-05
-8.61418e-07
2.95046e-05
-8.89563e-07
2.9253e-05
-1.0518e-06
-9.74657e-07
2.89284e-05
2.51088e-05
-4.51477e-07
2.53915e-05
-1.15799e-06
2.58114e-05
-1.88199e-06
2.62333e-05
-2.19849e-06
2.66638e-05
-2.30226e-06
2.70413e-05
-2.154e-06
2.73825e-05
-1.97948e-06
2.7634e-05
-1.61491e-06
2.78786e-05
-1.46494e-06
2.80645e-05
-1.13859e-06
2.82485e-05
-1.07493e-06
2.83879e-05
-8.74756e-07
2.85323e-05
-8.50058e-07
2.8634e-05
-7.11835e-07
2.87646e-05
-7.60656e-07
2.88318e-05
-5.79989e-07
2.89564e-05
-7.02521e-07
2.89961e-05
-5.14274e-07
2.9112e-05
-6.04688e-07
2.91464e-05
-4.99517e-07
2.92402e-05
-5.43393e-07
2.928e-05
-4.33171e-07
2.9366e-05
-5.75907e-07
2.9376e-05
-3.45931e-07
2.94847e-05
-5.90499e-07
2.9471e-05
-3.71429e-07
2.95648e-05
-5.18854e-07
2.95622e-05
-4.46175e-07
2.96275e-05
-5.28062e-07
2.96121e-05
-4.2017e-07
2.96885e-05
-6.45687e-07
2.96286e-05
-4.39378e-07
2.96978e-05
-6.88294e-07
2.96121e-05
-5.51875e-07
2.96207e-05
-7.3699e-07
2.94275e-05
-5.65506e-07
2.93396e-05
-7.73496e-07
2.89984e-05
-5.48349e-07
2.87286e-05
-7.82062e-07
-6.22098e-07
2.83761e-05
2.51198e-05
-5.71282e-07
2.55139e-05
-1.55212e-06
2.59736e-05
-2.34161e-06
2.64466e-05
-2.67153e-06
2.68752e-05
-2.73081e-06
2.726e-05
-2.53886e-06
2.75503e-05
-2.26973e-06
2.78216e-05
-1.88629e-06
2.79952e-05
-1.63845e-06
2.81643e-05
-1.30778e-06
2.82652e-05
-1.17583e-06
2.83573e-05
-9.66833e-07
2.84081e-05
-9.00796e-07
2.84626e-05
-7.66417e-07
2.84686e-05
-7.66634e-07
2.85045e-05
-6.15913e-07
2.84836e-05
-6.81602e-07
2.84971e-05
-5.27743e-07
2.84753e-05
-5.82944e-07
2.84587e-05
-4.82856e-07
2.84345e-05
-5.1921e-07
2.84129e-05
-4.11575e-07
2.83611e-05
-5.24051e-07
2.83485e-05
-3.33399e-07
2.82785e-05
-5.20497e-07
2.824e-05
-3.32945e-07
2.81854e-05
-4.64196e-07
2.81103e-05
-3.71131e-07
2.80489e-05
-4.66651e-07
2.79688e-05
-3.40029e-07
2.78755e-05
-5.52428e-07
2.77739e-05
-3.37737e-07
2.76671e-05
-5.81507e-07
2.75227e-05
-4.07522e-07
2.73969e-05
-6.1119e-07
2.71976e-05
-3.66121e-07
2.7012e-05
-5.87941e-07
2.66382e-05
-1.74541e-07
2.62056e-05
-3.49487e-07
-8.5943e-08
2.56695e-05
2.51538e-05
-7.25107e-07
2.56311e-05
-2.02943e-06
2.61439e-05
-2.85433e-06
2.65764e-05
-3.1041e-06
2.68758e-05
-3.03018e-06
2.70595e-05
-2.72251e-06
2.71132e-05
-2.32352e-06
2.71035e-05
-1.87652e-06
2.69965e-05
-1.53152e-06
2.6882e-05
-1.19321e-06
2.66939e-05
-9.87776e-07
2.65238e-05
-7.9671e-07
2.63067e-05
-6.83683e-07
2.61123e-05
-5.72e-07
2.58804e-05
-5.34822e-07
2.56912e-05
-4.26685e-07
2.5451e-05
-4.41383e-07
2.52715e-05
-3.48236e-07
2.50426e-05
-3.54032e-07
2.4863e-05
-3.0325e-07
2.4651e-05
-3.07258e-07
2.44812e-05
-2.41797e-07
2.4264e-05
-3.06782e-07
2.41209e-05
-1.90329e-07
2.38922e-05
-2.91819e-07
2.37559e-05
-1.96627e-07
2.35428e-05
-2.51043e-07
2.33865e-05
-2.14852e-07
2.31821e-05
-2.62248e-07
2.30298e-05
-1.8777e-07
2.27938e-05
-3.16391e-07
2.26502e-05
-1.94185e-07
2.23896e-05
-3.20863e-07
2.22238e-05
-2.41761e-07
2.19332e-05
-3.20568e-07
2.17871e-05
-2.19976e-07
2.15456e-05
-3.46509e-07
2.16174e-05
-2.46269e-07
2.17099e-05
-4.4205e-07
-4.23403e-07
2.20474e-05
2.52085e-05
-9.33611e-07
2.55525e-05
-2.37342e-06
2.55704e-05
-2.87218e-06
2.52402e-05
-2.77394e-06
2.4634e-05
-2.42396e-06
2.38774e-05
-1.96592e-06
2.30631e-05
-1.50926e-06
2.22799e-05
-1.09326e-06
2.15347e-05
-7.864e-07
2.08741e-05
-5.32528e-07
2.02633e-05
-3.77043e-07
1.97267e-05
-2.60111e-07
1.92353e-05
-1.92212e-07
1.88046e-05
-1.41346e-07
1.83987e-05
-1.28903e-07
1.80602e-05
-8.81729e-08
1.77209e-05
-1.02115e-07
1.74456e-05
-7.2951e-08
1.71705e-05
-7.89198e-08
1.69375e-05
-7.02606e-08
1.6704e-05
-7.37015e-08
1.65166e-05
-5.44327e-08
1.62965e-05
-8.67194e-08
1.61475e-05
-4.12453e-08
1.59423e-05
-8.6672e-08
1.58003e-05
-5.46514e-08
1.56204e-05
-7.10842e-08
1.54748e-05
-6.92295e-08
1.52939e-05
-8.13843e-08
1.51643e-05
-5.81506e-08
1.49569e-05
-1.0904e-07
1.48272e-05
-6.4492e-08
1.46124e-05
-1.06046e-07
1.44617e-05
-9.11008e-08
1.42425e-05
-1.01346e-07
1.41128e-05
-9.0258e-08
1.38743e-05
-1.07957e-07
1.3747e-05
-1.19051e-07
1.35167e-05
-2.11762e-07
-4.01367e-07
1.34947e-05
2.40664e-05
2.1693e-05
1.88208e-05
1.60468e-05
1.36229e-05
1.1657e-05
1.01477e-05
9.05443e-06
8.26803e-06
7.7355e-06
7.35846e-06
7.09835e-06
6.90614e-06
6.76479e-06
6.63589e-06
6.54772e-06
6.4456e-06
6.37265e-06
6.29373e-06
6.22347e-06
6.14977e-06
6.09534e-06
6.00862e-06
5.96737e-06
5.8807e-06
5.82605e-06
5.75496e-06
5.68573e-06
5.60435e-06
5.5462e-06
5.43716e-06
5.37267e-06
5.26662e-06
5.17552e-06
5.07417e-06
4.98392e-06
4.87596e-06
4.75691e-06
4.54515e-06
4.14378e-06
5.43865e-06
-9.09064e-08
-1.03392e-07
6.12708e-06
-4.94672e-08
-6.38971e-07
6.96778e-06
3.11332e-08
-8.71829e-07
7.78424e-06
1.27085e-07
-9.4355e-07
8.51102e-06
1.49228e-07
-8.76001e-07
9.126e-06
1.59343e-07
-7.74328e-07
9.62763e-06
1.4623e-07
-6.47856e-07
1.00224e-05
1.0583e-07
-5.00646e-07
1.03416e-05
4.43539e-08
-3.63506e-07
1.06369e-05
-3.6292e-08
-2.59033e-07
1.09334e-05
-1.15365e-07
-1.8107e-07
1.12463e-05
-1.94846e-07
-1.18123e-07
1.15874e-05
-2.73617e-07
-6.74845e-08
1.19729e-05
-3.55316e-07
-3.01317e-08
1.24128e-05
-4.40799e-07
9.16868e-10
1.29184e-05
-5.32597e-07
2.69278e-08
1.34664e-05
-6.53838e-07
1.05866e-07
1.40428e-05
-8.05055e-07
2.28654e-07
1.4629e-05
-9.9921e-07
4.12993e-07
1.52132e-05
-1.22546e-06
6.41232e-07
1.5774e-05
-1.48813e-06
9.27354e-07
1.6295e-05
-1.78271e-06
1.26174e-06
1.67601e-05
-2.09107e-06
1.62598e-06
1.71871e-05
-2.42021e-06
1.99319e-06
1.75896e-05
-2.75344e-06
2.3509e-06
1.7964e-05
-3.07752e-06
2.70317e-06
1.83024e-05
-3.38102e-06
3.04262e-06
1.85881e-05
-3.65354e-06
3.36785e-06
1.87987e-05
-3.88826e-06
3.6776e-06
1.89164e-05
-4.03846e-06
3.92079e-06
1.89203e-05
-4.12998e-06
4.12605e-06
1.8763e-05
-4.13928e-06
4.29657e-06
1.84173e-05
-4.01865e-06
4.36439e-06
1.79273e-05
-3.83236e-06
4.32234e-06
1.73892e-05
-3.61265e-06
4.1508e-06
1.69361e-05
-3.38675e-06
3.83984e-06
1.67007e-05
-3.17882e-06
3.41425e-06
1.67398e-05
-2.97967e-06
2.94057e-06
1.69837e-05
-2.77962e-06
2.5357e-06
1.72663e-05
-2.57703e-06
2.29438e-06
1.73243e-05
-2.29615e-06
2.23819e-06
1.69701e-05
-1.82646e-06
2.18065e-06
1.62595e-05
-1.25402e-06
1.96466e-06
1.53861e-05
-8.2378e-07
1.69711e-06
1.45046e-05
-5.69813e-07
1.45132e-06
1.36722e-05
-3.27355e-07
1.1598e-06
1.30421e-05
-2.69481e-08
6.56981e-07
1.27925e-05
2.91655e-07
-4.19843e-08
1.29678e-05
6.19168e-07
-7.94469e-07
1.34341e-05
1.07926e-06
-1.54557e-06
1.40341e-05
1.61179e-06
-2.21177e-06
1.4638e-05
2.17583e-06
-2.77972e-06
1.51639e-05
2.71384e-06
-3.23977e-06
1.55661e-05
3.18899e-06
-3.59123e-06
1.58187e-05
3.61498e-06
-3.86751e-06
1.5904e-05
3.97744e-06
-4.0628e-06
1.58439e-05
4.25759e-06
-4.1975e-06
1.56992e-05
4.46675e-06
-4.32202e-06
1.5528e-05
4.61777e-06
-4.44654e-06
1.53948e-05
4.70759e-06
-4.57445e-06
1.53674e-05
4.7518e-06
-4.72433e-06
1.54675e-05
4.7658e-06
-4.86589e-06
1.57021e-05
4.75553e-06
-4.99022e-06
1.60601e-05
4.70929e-06
-5.06722e-06
1.64922e-05
4.64546e-06
-5.0776e-06
1.69901e-05
4.54647e-06
-5.04436e-06
1.75318e-05
4.42065e-06
-4.96231e-06
1.80775e-05
4.27006e-06
-4.81575e-06
1.86282e-05
4.07013e-06
-4.62082e-06
1.91574e-05
3.8649e-06
-4.39416e-06
1.9673e-05
3.60611e-06
-4.12172e-06
2.01839e-05
3.3383e-06
-3.84917e-06
2.06627e-05
3.06068e-06
-3.53951e-06
2.11402e-05
2.7577e-06
-3.23514e-06
2.16275e-05
2.46763e-06
-2.95493e-06
2.21065e-05
2.17589e-06
-2.65495e-06
2.26289e-05
1.87249e-06
-2.39487e-06
2.31771e-05
1.58667e-06
-2.13485e-06
2.37386e-05
1.29693e-06
-1.85845e-06
2.4344e-05
9.91088e-07
-1.59645e-06
2.49704e-05
6.93058e-07
-1.31946e-06
2.56346e-05
3.26471e-07
-9.90722e-07
2.63218e-05
-4.93013e-08
-6.37921e-07
2.70035e-05
-4.34171e-07
-2.47447e-07
2.76764e-05
-8.74491e-07
2.01584e-07
2.83559e-05
-1.35176e-06
6.72232e-07
2.90046e-05
-1.84997e-06
1.20121e-06
2.96236e-05
-2.38994e-06
1.77103e-06
3.02122e-05
-2.92032e-06
2.33166e-06
3.0731e-05
-3.44759e-06
2.92881e-06
3.11893e-05
-3.93295e-06
3.47464e-06
3.15673e-05
-4.34996e-06
3.97195e-06
3.18583e-05
-4.70557e-06
4.41459e-06
3.20653e-05
-4.95928e-06
4.75231e-06
3.21909e-05
-5.15007e-06
5.02444e-06
3.22533e-05
-5.2801e-06
5.21774e-06
3.2276e-05
-5.35714e-06
5.33445e-06
3.227e-05
-5.44107e-06
5.44706e-06
3.22566e-05
-5.51488e-06
5.52825e-06
3.22728e-05
-5.62525e-06
5.60908e-06
3.22967e-05
-5.77591e-06
5.75194e-06
3.23563e-05
-5.94808e-06
5.88855e-06
3.24606e-05
-6.21038e-06
6.10603e-06
3.257e-05
-6.46496e-06
6.35555e-06
3.26766e-05
-6.72843e-06
6.62187e-06
3.27604e-05
-7.02097e-06
6.93717e-06
3.28112e-05
-7.26654e-06
7.21572e-06
3.27884e-05
-7.4699e-06
7.49267e-06
3.26623e-05
-7.57779e-06
7.70396e-06
3.23858e-05
-7.58417e-06
7.8606e-06
3.19838e-05
-7.50013e-06
7.90213e-06
3.14504e-05
-7.28672e-06
7.82012e-06
3.08062e-05
-6.98951e-06
7.63372e-06
3.0079e-05
-6.5875e-06
7.31473e-06
2.9262e-05
-6.09406e-06
6.91103e-06
2.8386e-05
-5.54896e-06
6.42503e-06
2.74489e-05
-4.94941e-06
5.88645e-06
2.65207e-05
-4.39969e-06
5.32786e-06
2.56308e-05
-3.85072e-06
4.74065e-06
2.47728e-05
-3.37692e-06
4.23497e-06
2.40326e-05
-2.94245e-06
3.68258e-06
2.33251e-05
-2.55855e-06
3.2661e-06
2.27613e-05
-2.28497e-06
2.84872e-06
2.22742e-05
-1.96698e-06
2.45406e-06
2.18738e-05
-1.82417e-06
2.22466e-06
2.15856e-05
-1.60351e-06
1.89168e-06
2.13192e-05
-1.48388e-06
1.75029e-06
2.11549e-05
-1.38124e-06
1.54556e-06
2.09777e-05
-1.24519e-06
1.42238e-06
2.08552e-05
-1.1961e-06
1.31855e-06
2.0734e-05
-1.10639e-06
1.22758e-06
2.06172e-05
-1.06038e-06
1.17717e-06
2.05251e-05
-1.01735e-06
1.10949e-06
2.0413e-05
-9.66216e-07
1.0783e-06
2.03254e-05
-9.44773e-07
1.03233e-06
2.02453e-05
-9.22039e-07
1.0022e-06
2.01587e-05
-8.88876e-07
9.75483e-07
2.013e-05
-9.31969e-07
9.60617e-07
2.00818e-05
-8.85691e-07
9.33956e-07
2.00805e-05
-9.69039e-07
9.70304e-07
2.00907e-05
-9.43936e-07
9.33734e-07
2.00998e-05
-1.03632e-06
1.02725e-06
2.01579e-05
-1.05416e-06
9.96e-07
2.01867e-05
-1.13483e-06
1.10607e-06
2.02499e-05
-1.20558e-06
1.14237e-06
2.0294e-05
-1.2391e-06
1.19496e-06
2.03565e-05
-1.36481e-06
1.30232e-06
2.04218e-05
-1.36989e-06
1.30459e-06
2.04676e-05
-1.51417e-06
1.46844e-06
2.05112e-05
-1.51831e-06
1.47465e-06
2.05496e-05
-1.67762e-06
1.6393e-06
2.05638e-05
-1.73981e-06
1.72561e-06
2.05861e-05
-1.85614e-06
1.83378e-06
2.05924e-05
-2.01507e-06
2.00875e-06
2.05837e-05
-2.07206e-06
2.08084e-06
2.05615e-05
-2.2554e-06
2.27755e-06
2.05094e-05
-2.34182e-06
2.39394e-06
2.04873e-05
-2.4952e-06
2.5173e-06
2.04626e-05
-2.67134e-06
2.69603e-06
2.04211e-05
-2.74552e-06
2.78704e-06
2.03648e-05
-2.93685e-06
2.99311e-06
2.03522e-05
-3.1143e-06
3.12693e-06
2.02628e-05
-3.16686e-06
3.25624e-06
2.02262e-05
-3.41917e-06
3.45576e-06
2.02023e-05
-3.54088e-06
3.56481e-06
2.01627e-05
-3.71482e-06
3.7544e-06
2.02359e-05
-3.90615e-06
3.833e-06
2.03158e-05
-4.09953e-06
4.01962e-06
2.05271e-05
-4.32378e-06
4.11251e-06
2.07261e-05
-4.4592e-06
4.26012e-06
2.09277e-05
-4.65494e-06
4.45337e-06
2.11327e-05
-4.71403e-06
4.50899e-06
2.13063e-05
-4.87492e-06
4.70133e-06
2.14444e-05
-4.86254e-06
4.72443e-06
2.14976e-05
-4.89269e-06
4.83952e-06
2.16342e-05
-4.84127e-06
4.70469e-06
2.17532e-05
-4.82962e-06
4.71066e-06
2.18731e-05
-4.76975e-06
4.64977e-06
2.18625e-05
-4.55726e-06
4.5679e-06
2.18092e-05
-4.45506e-06
4.5084e-06
2.17202e-05
-4.17891e-06
4.26791e-06
2.14992e-05
-4.12065e-06
4.34164e-06
2.10674e-05
-3.62388e-06
4.05561e-06
2.05405e-05
-3.39196e-06
3.91893e-06
2.01631e-05
-3.25843e-06
3.63579e-06
1.95023e-05
-2.96306e-06
3.62385e-06
1.87428e-05
-2.81373e-06
3.57326e-06
1.78942e-05
-2.27463e-06
3.12326e-06
1.73114e-05
-2.6282e-06
3.21093e-06
1.70054e-05
-2.71851e-06
3.02455e-06
1.57753e-05
-1.96865e-06
3.19874e-06
1.47929e-05
-2.08729e-06
3.06972e-06
1.48569e-05
-2.73433e-06
2.67031e-06
1.41763e-05
-2.63775e-06
3.31831e-06
1.20139e-05
-1.2874e-06
3.44983e-06
9.31101e-06
2.54279e-07
2.44863e-06
7.93549e-06
2.40726e-07
1.13479e-06
8.33501e-06
-8.25913e-07
4.26396e-07
9.33858e-06
-2.12517e-06
1.1216e-06
1.01883e-05
-3.40613e-06
2.55644e-06
1.07791e-05
-4.61807e-06
4.02727e-06
1.12826e-05
-5.96505e-06
5.46147e-06
1.19774e-05
-7.53456e-06
6.83981e-06
1.29593e-05
-9.16303e-06
8.18111e-06
1.41537e-05
-1.06245e-05
9.43006e-06
1.54181e-05
-1.17302e-05
1.04659e-05
1.66081e-05
-1.24031e-05
1.12131e-05
1.7681e-05
-1.26715e-05
1.15985e-05
1.85775e-05
-1.25533e-05
1.16569e-05
1.93296e-05
-1.22306e-05
1.14784e-05
1.99614e-05
-1.16964e-05
1.10646e-05
2.04966e-05
-1.1026e-05
1.04908e-05
2.09124e-05
-1.02453e-05
9.82962e-06
2.12665e-05
-9.40259e-06
9.0485e-06
2.1588e-05
-8.59637e-06
8.27485e-06
2.18735e-05
-7.75038e-06
7.46484e-06
2.21515e-05
-6.89549e-06
6.61749e-06
2.24296e-05
-6.06391e-06
5.78581e-06
2.27231e-05
-5.22089e-06
4.92738e-06
2.30501e-05
-4.3253e-06
3.99833e-06
2.33936e-05
-3.46741e-06
3.12395e-06
2.37285e-05
-2.52799e-06
2.19307e-06
2.40847e-05
-1.54395e-06
1.18771e-06
2.44483e-05
-6.07831e-07
2.44302e-07
2.47082e-05
4.23453e-07
-6.83363e-07
2.49068e-05
1.43567e-06
-1.63436e-06
2.50746e-05
2.34457e-06
-2.51235e-06
2.52031e-05
3.25888e-06
-3.38732e-06
2.52658e-05
4.12203e-06
-4.18476e-06
2.51983e-05
4.93889e-06
-4.87136e-06
2.50261e-05
5.66551e-06
-5.49331e-06
2.47846e-05
6.28178e-06
-6.04034e-06
2.44097e-05
6.83368e-06
-6.45874e-06
2.395e-05
7.32132e-06
-6.86161e-06
2.34326e-05
7.68273e-06
-7.1654e-06
2.2874e-05
7.95345e-06
-7.39476e-06
2.2328e-05
8.1742e-06
-7.62822e-06
2.19161e-05
8.27272e-06
-7.86087e-06
2.16071e-05
8.32616e-06
-8.01715e-06
2.14286e-05
8.37615e-06
-8.19759e-06
2.14037e-05
8.44238e-06
-8.41755e-06
2.14987e-05
8.38869e-06
-8.48368e-06
2.16764e-05
8.43235e-06
-8.61005e-06
2.18831e-05
8.6536e-06
-8.86032e-06
2.2087e-05
8.7649e-06
-8.96876e-06
2.2226e-05
8.87208e-06
-9.01112e-06
2.22982e-05
9.152e-06
-9.22415e-06
2.22735e-05
9.37705e-06
-9.35239e-06
2.21955e-05
9.46886e-06
-9.39087e-06
2.20594e-05
9.71226e-06
-9.57615e-06
2.18567e-05
9.83164e-06
-9.62891e-06
2.17167e-05
9.72287e-06
-9.58283e-06
2.16624e-05
9.78279e-06
-9.72857e-06
2.16429e-05
9.87631e-06
-9.85676e-06
2.1631e-05
9.71207e-06
-9.70024e-06
2.16927e-05
9.55229e-06
-9.61394e-06
2.17162e-05
9.7133e-06
-9.73685e-06
2.1616e-05
9.73111e-06
-9.6309e-06
2.15421e-05
9.4582e-06
-9.38433e-06
2.15532e-05
9.33118e-06
-9.34222e-06
2.15133e-05
9.46743e-06
-9.42757e-06
2.1289e-05
9.44056e-06
-9.21627e-06
2.10976e-05
9.09242e-06
-8.90096e-06
2.10586e-05
8.85206e-06
-8.81308e-06
2.10537e-05
8.86251e-06
-8.85763e-06
2.08763e-05
8.85823e-06
-8.68083e-06
2.06263e-05
8.5469e-06
-8.29691e-06
2.04794e-05
8.16583e-06
-8.01896e-06
2.04585e-05
7.96929e-06
-7.94833e-06
2.03621e-05
8.029e-06
-7.93267e-06
2.00614e-05
8.05364e-06
-7.75292e-06
1.96666e-05
7.93885e-06
-7.54402e-06
1.93997e-05
7.71419e-06
-7.44727e-06
1.94158e-05
7.63434e-06
-7.65045e-06
1.97134e-05
7.75701e-06
-8.05459e-06
2.01997e-05
8.11068e-06
-8.59703e-06
2.07236e-05
8.55348e-06
-9.07736e-06
2.11856e-05