/*--------------------------------*- C++ -*----------------------------------*\
| =========                 |                                                 |
| \\      /  F ield         | OpenFOAM: The Open Source CFD Toolbox           |
|  \\    /   O peration     | Version:  2.4.0                                 |
|   \\  /    A nd           | Web:      www.OpenFOAM.org                      |
|    \\/     M anipulation  |                                                 |
\*---------------------------------------------------------------------------*/
FoamFile
{
    version     2.0;
    format      ascii;
    class       volVectorField;
    location    "0.17";
    object      UMean;
}
// * * * * * * * * * * * * * * * * * * * * * * * * * * * * * * * * * * * * * //

dimensions      [0 1 -1 0 0 0 0];

internalField   nonuniform List<vector> 
17600
(
(9.94617 0.110804 0)
(9.19411 0.381512 0)
(8.07877 0.434883 0)
(6.94735 0.358412 0)
(5.93181 0.246355 0)
(5.07651 0.141495 0)
(4.41601 0.060546 0)
(3.92366 0.00948082 0)
(3.57181 -0.0186083 0)
(3.32497 -0.0309177 0)
(3.15663 -0.0337304 0)
(3.03862 -0.0312168 0)
(2.95759 -0.0265356 0)
(2.89531 -0.0213397 0)
(2.84969 -0.016889 0)
(2.80917 -0.0129741 0)
(2.77773 -0.0100366 0)
(2.74648 -0.00728745 0)
(2.722 -0.00553377 0)
(2.6953 -0.00366294 0)
(2.67514 -0.00290613 0)
(2.65074 -0.00159547 0)
(2.6342 -0.00155394 0)
(2.61092 -0.000395045 0)
(2.59796 -0.00095916 0)
(2.57528 0.000305863 0)
(2.56653 -0.000884214 0)
(2.54382 0.000748969 0)
(2.54068 -0.00110897 0)
(2.51617 0.00116159 0)
(2.52157 -0.00145674 0)
(2.49051 0.00191062 0)
(2.5098 -0.00212206 0)
(2.46255 0.00411539 0)
(2.50402 -0.00407433 0)
(2.42449 0.0105234 0)
(2.49934 -0.00822125 0)
(2.35697 0.0198609 0)
(2.49097 -0.00393408 0)
(2.18021 0.00292097 0)
(9.99484 0.170296 0)
(10.1101 0.438776 0)
(10.1767 0.599951 0)
(10.1243 0.658416 0)
(9.96336 0.639432 0)
(9.71046 0.572056 0)
(9.4189 0.479949 0)
(9.11199 0.383141 0)
(8.82063 0.295841 0)
(8.54389 0.223218 0)
(8.3012 0.167361 0)
(8.07617 0.125448 0)
(7.88564 0.0958945 0)
(7.70564 0.0741148 0)
(7.55766 0.0592725 0)
(7.41188 0.0475353 0)
(7.29756 0.0399775 0)
(7.17716 0.0330407 0)
(7.09022 0.0296163 0)
(6.98748 0.0249276 0)
(6.92335 0.0238002 0)
(6.83144 0.0199514 0)
(6.78736 0.0203197 0)
(6.70042 0.0162717 0)
(6.67515 0.0180525 0)
(6.5882 0.0129642 0)
(6.58232 0.0163271 0)
(6.4906 0.00952214 0)
(6.50662 0.0151062 0)
(6.40503 0.00572044 0)
(6.44631 0.0148435 0)
(6.3295 0.00208528 0)
(6.39877 0.0161903 0)
(6.2614 -0.000524105 0)
(6.35884 0.0199334 0)
(6.196 0.000130335 0)
(6.31193 0.0299766 0)
(6.12168 0.00964548 0)
(6.24361 0.0207444 0)
(6.01124 -0.0580859 0)
(9.99481 0.127149 0)
(10.0863 0.355118 0)
(10.261 0.517095 0)
(10.4545 0.596961 0)
(10.6416 0.601265 0)
(10.7604 0.55654 0)
(10.8387 0.483669 0)
(10.8475 0.404413 0)
(10.8398 0.330892 0)
(10.7818 0.272028 0)
(10.7322 0.225534 0)
(10.6449 0.192234 0)
(10.5822 0.166042 0)
(10.484 0.147571 0)
(10.4217 0.131076 0)
(10.3202 0.119483 0)
(10.2644 0.107045 0)
(10.1626 0.0990168 0)
(10.1161 0.088729 0)
(10.0141 0.0835411 0)
(9.9785 0.0743028 0)
(9.87523 0.0717684 0)
(9.85173 0.0626062 0)
(9.74566 0.0625662 0)
(9.73524 0.0525963 0)
(9.62522 0.0551945 0)
(9.62893 0.0431364 0)
(9.514 0.0492239 0)
(9.53324 0.0336469 0)
(9.4128 0.0445869 0)
(9.44818 0.024204 0)
(9.32231 0.04227 0)
(9.37257 0.0154656 0)
(9.24147 0.0441582 0)
(9.30382 0.00824482 0)
(9.16859 0.0503038 0)
(9.23435 0.000873678 0)
(9.08419 0.0634092 0)
(9.12122 0.00252801 0)
(8.90205 0.0586277 0)
(10.0003 0.0948972 0)
(10.0614 0.280099 0)
(10.2136 0.410925 0)
(10.3789 0.484929 0)
(10.5931 0.491013 0)
(10.7659 0.461248 0)
(10.9429 0.408163 0)
(11.0571 0.348713 0)
(11.1702 0.294654 0)
(11.2255 0.247966 0)
(11.2888 0.215599 0)
(11.3056 0.187 0)
(11.3416 0.171604 0)
(11.3384 0.152217 0)
(11.3617 0.145395 0)
(11.3487 0.128969 0)
(11.3659 0.126741 0)
(11.3475 0.110409 0)
(11.3614 0.112055 0)
(11.3391 0.0949546 0)
(11.3505 0.10053 0)
(11.3247 0.0822795 0)
(11.3342 0.0918181 0)
(11.305 0.0713731 0)
(11.3131 0.0851739 0)
(11.2809 0.0613003 0)
(11.288 0.0794473 0)
(11.2537 0.0512716 0)
(11.2607 0.0741245 0)
(11.2248 0.040694 0)
(11.2328 0.0697997 0)
(11.1962 0.0301562 0)
(11.2056 0.0678754 0)
(11.168 0.0218457 0)
(11.1783 0.0709929 0)
(11.1381 0.0150775 0)
(11.1514 0.0680537 0)
(11.1097 -0.0387061 0)
(11.1169 -0.0399267 0)
(10.962 -0.259664 0)
(9.99515 0.0842194 0)
(10.0554 0.207784 0)
(10.1722 0.330212 0)
(10.3202 0.376968 0)
(10.4985 0.401978 0)
(10.6739 0.3707 0)
(10.8386 0.340325 0)
(10.979 0.286657 0)
(11.097 0.248095 0)
(11.1912 0.204144 0)
(11.2651 0.179858 0)
(11.3244 0.154365 0)
(11.3709 0.142313 0)
(11.4121 0.128029 0)
(11.4456 0.120554 0)
(11.4792 0.111299 0)
(11.5072 0.104898 0)
(11.5377 0.0979143 0)
(11.5626 0.0918114 0)
(11.5917 0.0866922 0)
(11.6134 0.0808607 0)
(11.6411 0.0778936 0)
(11.6602 0.0722423 0)
(11.6859 0.0710342 0)
(11.7022 0.0651909 0)
(11.7265 0.0651615 0)
(11.7397 0.0583928 0)
(11.7634 0.0594007 0)
(11.7741 0.0511513 0)
(11.7975 0.0531384 0)
(11.8067 0.0438413 0)
(11.8306 0.0471257 0)
(11.8389 0.0375217 0)
(11.864 0.043118 0)
(11.8708 0.0336554 0)
(11.892 0.0409299 0)
(11.8813 0.0284281 0)
(11.8694 0.0267406 0)
(11.8089 -0.0153795 0)
(11.8169 -0.0650325 0)
(9.98877 0.0375611 0)
(10.0498 0.193224 0)
(10.1378 0.224499 0)
(10.2766 0.326957 0)
(10.4257 0.289843 0)
(10.5975 0.332782 0)
(10.7465 0.248561 0)
(10.8927 0.269788 0)
(11.0047 0.176145 0)
(11.1097 0.201364 0)
(11.1828 0.117748 0)
(11.2525 0.158994 0)
(11.2985 0.0855145 0)
(11.348 0.138327 0)
(11.3816 0.0676764 0)
(11.4222 0.125823 0)
(11.4517 0.0545192 0)
(11.4888 0.115626 0)
(11.5168 0.0427756 0)
(11.5524 0.106907 0)
(11.5791 0.0324971 0)
(11.6129 0.100209 0)
(11.6389 0.0240158 0)
(11.6701 0.0954338 0)
(11.6952 0.0166631 0)
(11.7245 0.0915299 0)
(11.7481 0.00923782 0)
(11.7762 0.0875533 0)
(11.7991 0.000907924 0)
(11.8264 0.0828649 0)
(11.8496 -0.00836067 0)
(11.877 0.0778284 0)
(11.9009 -0.0182173 0)
(11.9294 0.0730585 0)
(11.9532 -0.0280795 0)
(11.9808 0.0702424 0)
(12.0013 -0.032282 0)
(12.021 0.0965594 0)
(12.0131 0.011562 0)
(11.8685 0.1326 0)
(9.98885 0.0468469 0)
(10.0395 0.120889 0)
(10.1168 0.18658 0)
(10.2399 0.22154 0)
(10.3772 0.243946 0)
(10.5357 0.23162 0)
(10.6809 0.219933 0)
(10.8219 0.184073 0)
(10.936 0.166421 0)
(11.0408 0.129248 0)
(11.1188 0.120535 0)
(11.189 0.0926185 0)
(11.2392 0.0960407 0)
(11.2875 0.0749445 0)
(11.3239 0.0843819 0)
(11.3625 0.0640619 0)
(11.3943 0.0758501 0)
(11.4295 0.0545527 0)
(11.4597 0.0679959 0)
(11.4938 0.0457736 0)
(11.5228 0.0613974 0)
(11.5554 0.0383311 0)
(11.5836 0.0562143 0)
(11.6137 0.0323167 0)
(11.6409 0.0518249 0)
(11.6691 0.0266759 0)
(11.6949 0.0473727 0)
(11.7218 0.0202538 0)
(11.7471 0.0419208 0)
(11.7732 0.0123424 0)
(11.799 0.0348964 0)
(11.8252 0.00278997 0)
(11.8523 0.0261777 0)
(11.8795 -0.00839947 0)
(11.9081 0.0165209 0)
(11.9344 -0.0201594 0)
(11.959 0.00601917 0)
(11.9618 -0.0413828 0)
(11.9206 -0.0433518 0)
(11.7096 -0.186846 0)
(9.9917 0.0225941 0)
(10.0319 0.0937697 0)
(10.107 0.118408 0)
(10.2151 0.165578 0)
(10.3479 0.16101 0)
(10.4928 0.177771 0)
(10.6377 0.146115 0)
(10.7716 0.146087 0)
(10.89 0.107038 0)
(10.9914 0.107401 0)
(11.0754 0.0726872 0)
(11.1443 0.0803583 0)
(11.1996 0.053624 0)
(11.2456 0.0681578 0)
(11.2853 0.0447345 0)
(11.3211 0.0612201 0)
(11.3555 0.0377846 0)
(11.388 0.0548244 0)
(11.4209 0.0311123 0)
(11.4523 0.048796 0)
(11.484 0.0254386 0)
(11.5144 0.0436401 0)
(11.5446 0.0207964 0)
(11.5731 0.0394983 0)
(11.6017 0.0164406 0)
(11.6284 0.0353681 0)
(11.6555 0.011572 0)
(11.6808 0.0300869 0)
(11.7071 0.00539415 0)
(11.732 0.0227679 0)
(11.7583 -0.00321795 0)
(11.7837 0.0126693 0)
(11.811 -0.0152804 0)
(11.8374 -0.00160159 0)
(11.8654 -0.0320877 0)
(11.8908 -0.0224785 0)
(11.9117 -0.0575157 0)
(11.9141 -0.0560545 0)
(11.8667 -0.0948269 0)
(11.6644 -0.107603 0)
(9.99138 0.0193791 0)
(10.0267 0.0480434 0)
(10.0965 0.0751335 0)
(10.1996 0.0908621 0)
(10.3257 0.102656 0)
(10.4654 0.100276 0)
(10.606 0.0954026 0)
(10.7387 0.0814899 0)
(10.8563 0.0722314 0)
(10.9594 0.0579516 0)
(11.0438 0.051918 0)
(11.1151 0.0414202 0)
(11.1708 0.0404101 0)
(11.2185 0.0336856 0)
(11.2573 0.0350279 0)
(11.2947 0.0290698 0)
(11.3271 0.0307153 0)
(11.3617 0.0246786 0)
(11.3927 0.0265297 0)
(11.4258 0.0208077 0)
(11.4562 0.0231616 0)
(11.4881 0.0175723 0)
(11.5168 0.0203873 0)
(11.547 0.0145326 0)
(11.5737 0.0171373 0)
(11.6023 0.01094 0)
(11.6272 0.0128946 0)
(11.6542 0.00584891 0)
(11.6784 0.00688349 0)
(11.7047 -0.0017438 0)
(11.7286 -0.00255103 0)
(11.7554 -0.0136739 0)
(11.7799 -0.0179818 0)
(11.8075 -0.0331811 0)
(11.8324 -0.0427056 0)
(11.8584 -0.0631894 0)
(11.8768 -0.0782295 0)
(11.8796 -0.10134 0)
(11.8286 -0.117727 0)
(11.6216 -0.138843 0)
(9.9935 0.0214904 0)
(10.0244 -0.00134799 0)
(10.096 0.0385373 0)
(10.1929 0.0141262 0)
(10.3193 0.0485463 0)
(10.4525 0.0189282 0)
(10.5946 0.0446711 0)
(10.7224 0.0130464 0)
(10.8442 0.0358093 0)
(10.9431 0.00601571 0)
(11.0328 0.0296939 0)
(11.1002 0.0013175 0)
(11.1611 0.0253346 0)
(11.2044 -0.00154471 0)
(11.2479 0.0222256 0)
(11.2808 -0.00367141 0)
(11.3175 0.0196586 0)
(11.348 -0.00605425 0)
(11.3831 0.0171925 0)
(11.4122 -0.00749848 0)
(11.447 0.0156131 0)
(11.4743 -0.00822074 0)
(11.5075 0.0142146 0)
(11.5332 -0.00967117 0)
(11.5641 0.0116439 0)
(11.5881 -0.012392 0)
(11.6172 0.00754934 0)
(11.6396 -0.0169335 0)
(11.6678 0.00141484 0)
(11.6891 -0.0241289 0)
(11.7168 -0.00873891 0)
(11.7382 -0.0369236 0)
(11.7658 -0.026874 0)
(11.7875 -0.0607562 0)
(11.8153 -0.0592399 0)
(11.8359 -0.101081 0)
(11.8576 -0.106963 0)
(11.8574 -0.150473 0)
(11.8129 -0.15039 0)
(11.6105 -0.156972 0)
(9.98996 0.00130482 0)
(10.0268 -0.0282823 0)
(10.0922 -0.0162818 0)
(10.1963 -0.0361699 0)
(10.3156 -0.0224939 0)
(10.4552 -0.0375647 0)
(10.5907 -0.0231364 0)
(10.7255 -0.031642 0)
(10.8408 -0.017658 0)
(10.947 -0.0222435 0)
(11.0298 -0.0104302 0)
(11.1032 -0.0155234 0)
(11.1579 -0.0081517 0)
(11.2068 -0.0129493 0)
(11.245 -0.0090918 0)
(11.283 -0.0117639 0)
(11.3145 -0.00978824 0)
(11.3504 -0.0109943 0)
(11.3802 -0.0100395 0)
(11.415 -0.00951513 0)
(11.4444 -0.010095 0)
(11.4769 -0.0077815 0)
(11.5049 -0.0106982 0)
(11.5354 -0.00744014 0)
(11.5612 -0.0128713 0)
(11.5898 -0.00878929 0)
(11.614 -0.0168022 0)
(11.6407 -0.0119814 0)
(11.6639 -0.023009 0)
(11.6892 -0.0178182 0)
(11.7116 -0.0336298 0)
(11.7361 -0.0296724 0)
(11.7577 -0.053255 0)
(11.7812 -0.0543769 0)
(11.8025 -0.0912035 0)
(11.8248 -0.1026 0)
(11.8428 -0.15903 0)
(11.8489 -0.175682 0)
(11.8169 -0.223282 0)
(11.6256 -0.132555 0)
(9.98807 0.0163151 0)
(10.0351 -0.10853 0)
(10.1003 -0.0341331 0)
(10.2097 -0.140706 0)
(10.3275 -0.0533081 0)
(10.4727 -0.150295 0)
(10.607 -0.0452641 0)
(10.7456 -0.134698 0)
(10.8593 -0.0216881 0)
(10.9668 -0.110679 0)
(11.0473 -0.000152403 0)
(11.1212 -0.0952352 0)
(11.1738 0.0114866 0)
(11.2235 -0.0905531 0)
(11.2608 0.0158533 0)
(11.299 -0.0890232 0)
(11.3312 0.0192594 0)
(11.3661 -0.0873126 0)
(11.3972 0.0235231 0)
(11.4308 -0.0856385 0)
(11.4612 0.0269271 0)
(11.4921 -0.0849593 0)
(11.5218 0.0287673 0)
(11.5497 -0.086151 0)
(11.578 0.0291676 0)
(11.6034 -0.0892905 0)
(11.6306 0.0279185 0)
(11.6536 -0.0945412 0)
(11.6801 0.0241727 0)
(11.7008 -0.102811 0)
(11.7266 0.0159557 0)
(11.7451 -0.117484 0)
(11.7698 -0.00111763 0)
(11.7853 -0.145287 0)
(11.8081 -0.0374684 0)
(11.8194 -0.200718 0)
(11.8386 -0.114944 0)
(11.8442 -0.312041 0)
(11.8528 -0.250916 0)
(11.7317 -0.409615 0)
(9.98689 -0.0114377 0)
(10.0507 -0.112925 0)
(10.1193 -0.103692 0)
(10.2363 -0.181079 0)
(10.3547 -0.141797 0)
(10.509 -0.195418 0)
(10.6426 -0.1246 0)
(10.7869 -0.166679 0)
(10.8976 -0.0834102 0)
(11.0068 -0.12885 0)
(11.0826 -0.0481962 0)
(11.1579 -0.10403 0)
(11.2048 -0.0278347 0)
(11.2582 -0.0941948 0)
(11.2903 -0.0181078 0)
(11.333 -0.089289 0)
(11.361 -0.0108549 0)
(11.3997 -0.0846476 0)
(11.4269 -0.0035936 0)
(11.4641 -0.0810746 0)
(11.4901 0.0019536 0)
(11.5251 -0.0793047 0)
(11.5501 0.00532643 0)
(11.5819 -0.0794043 0)
(11.6059 0.00713282 0)
(11.6351 -0.0814631 0)
(11.6577 0.00740714 0)
(11.6846 -0.0858131 0)
(11.7061 0.00515815 0)
(11.7307 -0.0933085 0)
(11.7511 -0.00131821 0)
(11.7725 -0.107013 0)
(11.7911 -0.0157532 0)
(11.8081 -0.13355 0)
(11.8224 -0.0481829 0)
(11.8317 -0.187956 0)
(11.8353 -0.11989 0)
(11.8279 -0.299752 0)
(11.8139 -0.246152 0)
(11.8751 -0.423312 0)
(9.98823 -0.044204 0)
(10.0501 -0.106532 0)
(10.1289 -0.186948 0)
(10.2519 -0.215459 0)
(10.3841 -0.248486 0)
(10.5425 -0.226735 0)
(10.6857 -0.223907 0)
(10.8279 -0.179171 0)
(10.9427 -0.16983 0)
(11.0464 -0.126925 0)
(11.1244 -0.125132 0)
(11.1936 -0.0917346 0)
(11.2432 -0.100364 0)
(11.2916 -0.0738711 0)
(11.3271 -0.0882146 0)
(11.3664 -0.0632782 0)
(11.3973 -0.0797585 0)
(11.4334 -0.0544279 0)
(11.4629 -0.0728284 0)
(11.4975 -0.0475974 0)
(11.5254 -0.0683443 0)
(11.5585 -0.0432448 0)
(11.5846 -0.06646 0)
(11.6154 -0.0408789 0)
(11.6399 -0.0665347 0)
(11.6683 -0.0402723 0)
(11.691 -0.0684708 0)
(11.7176 -0.041792 0)
(11.7384 -0.0730078 0)
(11.7631 -0.04632 0)
(11.7817 -0.0817144 0)
(11.8032 -0.0561495 0)
(11.8184 -0.0977674 0)
(11.8347 -0.0766233 0)
(11.8426 -0.128831 0)
(11.849 -0.118316 0)
(11.8452 -0.185918 0)
(11.8453 -0.182426 0)
(11.8576 -0.234489 0)
(11.9983 -0.146601 0)
(9.974 -0.0501163 0)
(10.0671 -0.164446 0)
(10.1298 -0.242839 0)
(10.2919 -0.307535 0)
(10.4187 -0.315144 0)
(10.6068 -0.311186 0)
(10.7406 -0.273861 0)
(10.8994 -0.244851 0)
(11.0011 -0.20227 0)
(11.1151 -0.177485 0)
(11.1799 -0.145763 0)
(11.2563 -0.13397 0)
(11.2956 -0.114718 0)
(11.3504 -0.110873 0)
(11.3786 -0.0977585 0)
(11.4239 -0.0968096 0)
(11.4489 -0.0856177 0)
(11.49 -0.0858792 0)
(11.5143 -0.0759858 0)
(11.5526 -0.0776015 0)
(11.5764 -0.0691155 0)
(11.6119 -0.0721863 0)
(11.6349 -0.0649805 0)
(11.6671 -0.06922 0)
(11.6891 -0.0630498 0)
(11.7181 -0.0683442 0)
(11.7389 -0.0631447 0)
(11.765 -0.0697512 0)
(11.7843 -0.065792 0)
(11.8071 -0.0743322 0)
(11.8246 -0.0723543 0)
(11.8429 -0.0837576 0)
(11.8566 -0.0848713 0)
(11.8678 -0.100336 0)
(11.8736 -0.105376 0)
(11.874 -0.124621 0)
(11.871 -0.13078 0)
(11.8685 -0.146843 0)
(11.8935 -0.1439 0)
(12.0294 -0.141467 0)
(9.93876 -0.0840701 0)
(10.1104 -0.202301 0)
(10.1187 -0.333144 0)
(10.3719 -0.376056 0)
(10.4507 -0.408894 0)
(10.7195 -0.367343 0)
(10.7946 -0.346205 0)
(11.0198 -0.280221 0)
(11.0564 -0.254469 0)
(11.229 -0.19766 0)
(11.2273 -0.187677 0)
(11.3596 -0.147347 0)
(11.3346 -0.15118 0)
(11.4446 -0.119918 0)
(11.4107 -0.130257 0)
(11.5095 -0.102448 0)
(11.4738 -0.115553 0)
(11.5658 -0.0892674 0)
(11.5306 -0.104223 0)
(11.6168 -0.0793124 0)
(11.5826 -0.0959562 0)
(11.6626 -0.0725263 0)
(11.6294 -0.090704 0)
(11.7025 -0.0684803 0)
(11.6705 -0.0879311 0)
(11.7361 -0.0667242 0)
(11.7054 -0.0871453 0)
(11.763 -0.0674736 0)
(11.734 -0.0887167 0)
(11.7824 -0.0713957 0)
(11.755 -0.0938132 0)
(11.7921 -0.0795417 0)
(11.7652 -0.103055 0)
(11.7878 -0.0917271 0)
(11.7591 -0.113142 0)
(11.7638 -0.100074 0)
(11.7335 -0.110979 0)
(11.7284 -0.0914496 0)
(11.7306 -0.0978425 0)
(11.8546 -0.119053 0)
(9.93483 -0.100096 0)
(10.127 -0.274563 0)
(10.147 -0.416363 0)
(10.4471 -0.480805 0)
(10.5266 -0.497394 0)
(10.8358 -0.456871 0)
(10.8741 -0.413355 0)
(11.1277 -0.343321 0)
(11.0995 -0.29978 0)
(11.2974 -0.242317 0)
(11.2165 -0.221491 0)
(11.3792 -0.181652 0)
(11.2669 -0.178153 0)
(11.4132 -0.146737 0)
(11.2846 -0.152392 0)
(11.4245 -0.123276 0)
(11.2868 -0.134451 0)
(11.4238 -0.105208 0)
(11.2803 -0.120968 0)
(11.4148 -0.0909032 0)
(11.267 -0.111311 0)
(11.3981 -0.0799867 0)
(11.2472 -0.105158 0)
(11.3736 -0.0717633 0)
(11.2208 -0.101851 0)
(11.341 -0.065531 0)
(11.1878 -0.100902 0)
(11.2998 -0.0612834 0)
(11.1481 -0.102592 0)
(11.2491 -0.0595345 0)
(11.1003 -0.107811 0)
(11.1865 -0.0605905 0)
(11.0419 -0.116388 0)
(11.1085 -0.0625182 0)
(10.9706 -0.123401 0)
(11.0143 -0.05508 0)
(10.8908 -0.111267 0)
(10.9159 -0.0075045 0)
(10.8356 -0.0452227 0)
(10.936 0.0634686 0)
(9.97112 -0.128653 0)
(10.1104 -0.353187 0)
(10.2331 -0.518209 0)
(10.4852 -0.594748 0)
(10.6084 -0.603229 0)
(10.7987 -0.555135 0)
(10.7975 -0.486104 0)
(10.8917 -0.402501 0)
(10.7914 -0.333563 0)
(10.8319 -0.269442 0)
(10.6776 -0.228783 0)
(10.7007 -0.189571 0)
(10.521 -0.170043 0)
(10.545 -0.14445 0)
(10.3537 -0.135686 0)
(10.3864 -0.115693 0)
(10.1895 -0.112697 0)
(10.2333 -0.0948075 0)
(10.034 -0.0960514 0)
(10.0883 -0.0791215 0)
(9.88801 -0.084132 0)
(9.95084 -0.0673481 0)
(9.75068 -0.0759282 0)
(9.81947 -0.0584359 0)
(9.62061 -0.0705791 0)
(9.69242 -0.0516396 0)
(9.49644 -0.0675667 0)
(9.56755 -0.0467697 0)
(9.37658 -0.0670968 0)
(9.44211 -0.0440574 0)
(9.25842 -0.0696925 0)
(9.31248 -0.043252 0)
(9.13863 -0.0744565 0)
(9.17551 -0.0415338 0)
(9.01699 -0.0765052 0)
(9.03549 -0.0302704 0)
(8.91078 -0.0641896 0)
(8.92399 0.00677627 0)
(8.85988 -0.0252872 0)
(8.81019 0.0458096 0)
(9.99003 -0.171435 0)
(10.1149 -0.437643 0)
(10.1693 -0.600496 0)
(10.1332 -0.657107 0)
(9.9535 -0.640478 0)
(9.72404 -0.571833 0)
(9.40319 -0.481372 0)
(9.12935 -0.382495 0)
(8.7992 -0.297152 0)
(8.56535 -0.222061 0)
(8.27491 -0.168649 0)
(8.10183 -0.12435 0)
(7.85408 -0.0974953 0)
(7.73504 -0.0729734 0)
(7.52044 -0.0610303 0)
(7.44493 -0.0462806 0)
(7.25442 -0.0420451 0)
(7.21356 -0.0319206 0)
(7.04047 -0.0322613 0)
(7.0259 -0.024286 0)
(6.86522 -0.0273885 0)
(6.86971 -0.0201143 0)
(6.71806 -0.0251106 0)
(6.7352 -0.0177457 0)
(6.59081 -0.0242718 0)
(6.61473 -0.016457 0)
(6.47756 -0.0243594 0)
(6.50197 -0.0161321 0)
(6.37374 -0.0253799 0)
(6.3911 -0.0169875 0)
(6.27513 -0.0273217 0)
(6.27657 -0.0189457 0)
(6.17842 -0.028833 0)
(6.15531 -0.0203061 0)
(6.08562 -0.0255172 0)
(6.0334 -0.0177598 0)
(6.00761 -0.0148757 0)
(5.91747 -0.030579 0)
(5.9386 -0.0460363 0)
(5.76306 -0.142483 0)
(9.94656 -0.11112 0)
(9.19291 -0.381202 0)
(8.07745 -0.43482 0)
(6.94885 -0.35808 0)
(5.93081 -0.246869 0)
(5.07877 -0.141341 0)
(4.41276 -0.0608325 0)
(3.92634 -0.00919775 0)
(3.56542 0.0184895 0)
(3.32988 0.0313266 0)
(3.14836 0.033392 0)
(3.04507 0.0315868 0)
(2.9473 0.0260133 0)
(2.90254 0.0217955 0)
(2.83733 0.0162652 0)
(2.81698 0.0134944 0)
(2.76311 0.00932428 0)
(2.75485 0.00783454 0)
(2.70445 0.00449706 0)
(2.70287 0.00425475 0)
(2.65324 0.00158793 0)
(2.65571 0.00221174 0)
(2.6058 -0.000117839 0)
(2.6107 0.00107422 0)
(2.56035 -0.00116133 0)
(2.5663 0.000409969 0)
(2.51585 -0.00188407 0)
(2.52111 -7.09682e-05 0)
(2.47124 -0.0025056 0)
(2.47319 -0.00050117 0)
(2.4252 -0.00307796 0)
(2.42037 -0.000774855 0)
(2.37743 -0.00314586 0)
(2.36238 -7.62699e-05 0)
(2.33221 -0.00237231 0)
(2.30347 0.00164091 0)
(2.30111 -0.00546412 0)
(2.2439 0.00335901 0)
(2.27121 -0.0234562 0)
(2.07377 0.0113444 0)
(2.46596 -0.250188 0)
(2.60362 -0.280212 0)
(2.74647 -0.284827 0)
(2.87526 -0.261745 0)
(2.99442 -0.227764 0)
(3.1064 -0.194612 0)
(3.21323 -0.167284 0)
(3.31573 -0.143797 0)
(3.41546 -0.122222 0)
(3.51948 -0.104831 0)
(3.63822 -0.0974021 0)
(3.76987 -0.100607 0)
(3.90872 -0.108451 0)
(4.04874 -0.118397 0)
(4.18808 -0.130419 0)
(4.32504 -0.145768 0)
(4.45945 -0.164507 0)
(4.58952 -0.187369 0)
(4.716 -0.213574 0)
(4.83724 -0.242464 0)
(4.95381 -0.272927 0)
(5.06327 -0.304061 0)
(5.16693 -0.335384 0)
(5.26346 -0.36652 0)
(5.35602 -0.39791 0)
(5.4445 -0.429983 0)
(5.53213 -0.463195 0)
(5.61865 -0.497368 0)
(5.70595 -0.531593 0)
(5.79221 -0.565106 0)
(5.87894 -0.597566 0)
(5.96439 -0.628427 0)
(6.05088 -0.657202 0)
(6.137 -0.683768 0)
(6.22607 -0.707814 0)
(6.31724 -0.729224 0)
(6.4125 -0.747257 0)
(6.51131 -0.762516 0)
(6.61424 -0.774723 0)
(6.71994 -0.784829 0)
(6.82788 -0.792622 0)
(6.93726 -0.799272 0)
(7.04698 -0.805114 0)
(7.15751 -0.811963 0)
(7.26658 -0.818924 0)
(7.37587 -0.827683 0)
(7.48164 -0.836537 0)
(7.58739 -0.848702 0)
(7.68769 -0.862665 0)
(7.78724 -0.88192 0)
(7.88018 -0.904131 0)
(7.97235 -0.932368 0)
(8.05722 -0.963161 0)
(8.14236 -0.999785 0)
(8.22017 -1.03786 0)
(8.29962 -1.08115 0)
(8.3723 -1.12452 0)
(8.4478 -1.17206 0)
(8.51677 -1.21797 0)
(8.58937 -1.26686 0)
(8.65554 -1.31263 0)
(8.72567 -1.36039 0)
(8.78964 -1.40404 0)
(8.85782 -1.44909 0)
(8.91992 -1.48949 0)
(8.98636 -1.53078 0)
(9.047 -1.56732 0)
(9.11204 -1.60447 0)
(9.17174 -1.63703 0)
(9.2358 -1.67 0)
(9.29521 -1.69898 0)
(9.35849 -1.72802 0)
(9.4177 -1.75386 0)
(9.48038 -1.77957 0)
(9.53909 -1.80262 0)
(9.60075 -1.82548 0)
(9.65818 -1.84615 0)
(9.71783 -1.8665 0)
(9.77264 -1.88513 0)
(9.82899 -1.9034 0)
(9.8795 -1.92015 0)
(9.93104 -1.93674 0)
(9.97565 -1.95172 0)
(10.0209 -1.96671 0)
(10.0584 -1.97988 0)
(10.0964 -1.99327 0)
(10.1259 -2.00446 0)
(10.1562 -2.01616 0)
(10.1776 -2.02525 0)
(10.2001 -2.03523 0)
(10.2139 -2.04232 0)
(10.2292 -2.0507 0)
(10.2363 -2.05614 0)
(10.2454 -2.06325 0)
(10.2472 -2.06754 0)
(10.2513 -2.07372 0)
(10.2493 -2.07739 0)
(10.2496 -2.08292 0)
(10.2452 -2.08637 0)
(10.2424 -2.09126 0)
(10.236 -2.09474 0)
(10.2301 -2.0987 0)
(10.2217 -2.10211 0)
(10.2119 -2.10459 0)
(10.2005 -2.10751 0)
(10.1857 -2.10786 0)
(10.1703 -2.10967 0)
(10.1496 -2.10718 0)
(10.1294 -2.10723 0)
(10.1025 -2.10154 0)
(10.0773 -2.09932 0)
(10.0449 -2.09053 0)
(10.0148 -2.08574 0)
(9.97872 -2.07442 0)
(9.94441 -2.06698 0)
(9.90663 -2.05413 0)
(9.8693 -2.04411 0)
(9.83222 -2.03093 0)
(9.7932 -2.01852 0)
(9.75891 -2.00597 0)
(9.71953 -1.99139 0)
(9.68897 -1.9801 0)
(9.65075 -1.96371 0)
(9.6237 -1.95374 0)
(9.58781 -1.93618 0)
(9.56313 -1.92695 0)
(9.53013 -1.9088 0)
(9.50618 -1.89944 0)
(9.47585 -1.88106 0)
(9.45154 -1.87062 0)
(9.42285 -1.85227 0)
(9.39817 -1.83996 0)
(9.36966 -1.82167 0)
(9.34536 -1.80715 0)
(9.31577 -1.78828 0)
(9.29254 -1.77143 0)
(9.26088 -1.75092 0)
(9.23837 -1.73149 0)
(9.20423 -1.7083 0)
(9.18091 -1.68605 0)
(9.14452 -1.65973 0)
(9.11865 -1.63471 0)
(9.08075 -1.60562 0)
(9.05134 -1.578 0)
(9.01275 -1.54677 0)
(8.97959 -1.51637 0)
(8.94143 -1.48349 0)
(8.90487 -1.44998 0)
(8.86817 -1.41575 0)
(8.8289 -1.37896 0)
(8.79426 -1.34344 0)
(8.75251 -1.30337 0)
(8.71989 -1.2664 0)
(8.67602 -1.22351 0)
(8.6452 -1.18531 0)
(8.59997 -1.14033 0)
(8.57052 -1.10111 0)
(8.52474 -1.05436 0)
(8.49611 -1.01441 0)
(8.45083 -0.966055 0)
(8.42209 -0.925932 0)
(8.37826 -0.876694 0)
(8.34954 -0.837351 0)
(8.30876 -0.788519 0)
(8.28023 -0.750568 0)
(8.24319 -0.70284 0)
(8.21593 -0.666341 0)
(8.18295 -0.61999 0)
(8.15691 -0.583832 0)
(8.12743 -0.538152 0)
(8.10221 -0.500991 0)
(8.07479 -0.45458 0)
(8.04923 -0.41523 0)
(8.02307 -0.3675 0)
(7.99972 -0.327496 0)
(7.97705 -0.280768 0)
(7.95984 -0.242784 0)
(7.9414 -0.198445 0)
(7.93104 -0.163403 0)
(7.9159 -0.120444 0)
(7.91047 -0.0844378 0)
(7.89613 -0.038717 0)
(7.89175 0.000156099 0)
(7.87671 0.0483753 0)
(7.8713 0.0894748 0)
(7.8546 0.139934 0)
(7.84539 0.183191 0)
(7.82492 0.235734 0)
(7.8111 0.280159 0)
(7.78461 0.334723 0)
(7.76618 0.381417 0)
(7.73128 0.440277 0)
(7.70977 0.489413 0)
(7.68389 0.541983 0)
(7.68926 0.570269 0)
(7.69915 0.594773 0)
(7.73324 0.59967 0)
(7.75725 0.616169 0)
(7.79284 0.625336 0)
(7.8118 0.653863 0)
(7.83693 0.675506 0)
(7.84837 0.714804 0)
(7.86481 0.744305 0)
(7.87262 0.789816 0)
(7.88227 0.825641 0)
(7.88686 0.876108 0)
(7.88959 0.917564 0)
(7.89094 0.97093 0)
(7.88652 1.01614 0)
(7.88542 1.0693 0)
(7.87402 1.11551 0)
(7.87108 1.16541 0)
(7.85307 1.20998 0)
(7.84814 1.25366 0)
(7.82355 1.2943 0)
(7.81625 1.32962 0)
(7.78472 1.36453 0)
(7.77383 1.39008 0)
(7.73583 1.41797 0)
(7.72055 1.43317 0)
(7.6766 1.45333 0)
(7.65723 1.45846 0)
(7.60865 1.47111 0)
(7.58623 1.46677 0)
(7.53438 1.47276 0)
(7.51074 1.45953 0)
(7.45599 1.45919 0)
(7.43204 1.43702 0)
(7.37446 1.43073 0)
(7.35145 1.40012 0)
(7.29177 1.38934 0)
(7.27212 1.3524 0)
(7.21264 1.33991 0)
(7.1989 1.29979 0)
(7.14113 1.28827 0)
(7.13316 1.24637 0)
(7.07506 1.2343 0)
(7.06802 1.18676 0)
(7.00565 1.16884 0)
(6.99599 1.1141 0)
(6.93245 1.09289 0)
(6.9237 1.03815 0)
(6.86605 1.01898 0)
(6.85923 0.966573 0)
(6.80899 0.946928 0)
(6.80202 0.895097 0)
(6.75963 0.875321 0)
(6.75342 0.82574 0)
(6.71752 0.807557 0)
(6.71397 0.760866 0)
(6.68118 0.74392 0)
(6.68204 0.699566 0)
(6.64957 0.683758 0)
(6.65577 0.641831 0)
(6.62185 0.625725 0)
(6.6319 0.58594 0)
(6.59567 0.568944 0)
(6.6077 0.53001 0)
(6.56834 0.511942 0)
(6.58279 0.473673 0)
(6.53869 0.455816 0)
(6.55715 0.41694 0)
(6.50757 0.401182 0)
(6.53245 0.362455 0)
(6.47784 0.351036 0)
(6.50943 0.311221 0)
(6.45105 0.304732 0)
(6.4884 0.263437 0)
(6.4266 0.261863 0)
(6.46723 0.216807 0)
(6.40093 0.218615 0)
(6.44384 0.169183 0)
(6.37378 0.175945 0)
(6.41993 0.123611 0)
(6.34685 0.136564 0)
(6.39634 0.0809448 0)
(6.31978 0.0994125 0)
(6.37189 0.038996 0)
(6.29118 0.0621411 0)
(6.34556 -0.00353441 0)
(6.26097 0.0250303 0)
(6.31876 -0.0445701 0)
(6.23149 -0.00866402 0)
(6.29421 -0.0808529 0)
(6.20486 -0.0367781 0)
(6.27299 -0.111788 0)
(6.18103 -0.060346 0)
(6.25425 -0.139173 0)
(6.1588 -0.0813985 0)
(6.23708 -0.164528 0)
(6.13774 -0.100465 0)
(6.22154 -0.187862 0)
(6.11811 -0.116595 0)
(6.20798 -0.208319 0)
(6.10012 -0.128768 0)
(6.19607 -0.225309 0)
(6.0832 -0.136713 0)
(6.18514 -0.238605 0)
(6.06622 -0.140621 0)
(6.17426 -0.248084 0)
(6.04832 -0.140586 0)
(6.16238 -0.253966 0)
(6.02871 -0.137242 0)
(6.14796 -0.257106 0)
(6.00679 -0.131626 0)
(6.12945 -0.258546 0)
(5.98164 -0.125089 0)
(6.10567 -0.259069 0)
(5.95294 -0.118454 0)
(6.07705 -0.258838 0)
(5.92211 -0.11082 0)
(6.04723 -0.254763 0)
(5.89466 -0.095651 0)
(6.02448 -0.238817 0)
(5.87805 -0.0644091 0)
(6.01316 -0.206137 0)
(5.87146 -0.0186014 0)
(6.00583 -0.16325 0)
(5.86629 0.0317181 0)
(5.99267 -0.116829 0)
(5.85645 0.0828242 0)
(5.97144 -0.0670488 0)
(5.84153 0.135811 0)
(5.94553 -0.0131273 0)
(5.82353 0.191314 0)
(5.91896 0.0446461 0)
(5.80482 0.248453 0)
(5.89453 0.10424 0)
(5.78722 0.305684 0)
(5.87395 0.164466 0)
(5.77256 0.363495 0)
(5.85778 0.225961 0)
(5.76203 0.422796 0)
(5.84557 0.289191 0)
(5.75554 0.482682 0)
(5.83579 0.353724 0)
(5.75192 0.541394 0)
(5.82638 0.41855 0)
(5.74949 0.596969 0)
(5.81507 0.483178 0)
(5.74721 0.64827 0)
(5.79985 0.548032 0)
(5.74534 0.695419 0)
(5.77951 0.614793 0)
(5.74484 0.739423 0)
(5.75451 0.684449 0)
(5.74665 0.780971 0)
(5.72725 0.757272 0)
(5.75138 0.821145 0)
(5.701 0.832799 0)
(5.75887 0.860953 0)
(5.6799 0.910093 0)
(5.768 0.902127 0)
(5.66771 0.988176 0)
(5.77753 0.946838 0)
(5.66647 1.06672 0)
(5.78754 0.997184 0)
(5.67523 1.14615 0)
(5.79887 1.05395 0)
(5.69098 1.22746 0)
(5.81186 1.11744 0)
(5.71072 1.31153 0)
(5.82659 1.18794 0)
(5.73128 1.39929 0)
(5.84293 1.26541 0)
(5.75038 1.49067 0)
(5.85962 1.35046 0)
(5.76883 1.58554 0)
(5.8741 1.44657 0)
(5.78968 1.68329 0)
(5.88447 1.55983 0)
(5.81442 1.78429 0)
(5.89109 1.69718 0)
(5.84231 1.8894 0)
(5.89552 1.86456 0)
(5.87251 2.00006 0)
(5.90026 2.06415 0)
(5.90191 2.11888 0)
(5.90984 2.2925 0)
(5.92366 2.25245 0)
(5.93133 2.53872 0)
(5.92927 2.41373 0)
(5.96923 2.78722 0)
(5.90783 2.62881 0)
(6.01961 3.02045 0)
(5.85113 2.93789 0)
(6.06781 3.22732 0)
(5.77123 3.38062 0)
(6.0739 3.41851 0)
(5.70806 3.9568 0)
(5.97771 3.66387 0)
(5.72148 4.58402 0)
(5.71561 4.13988 0)
(5.83154 5.11071 0)
(5.32929 5.14162 0)
(5.81744 5.50035 0)
(5.29443 6.80854 0)
(5.25938 6.4716 0)
(6.36455 8.54111 0)
(4.93865 10.6471 0)
(6.05912 -0.291997 0)
(6.12138 -0.401396 0)
(6.21801 -0.442342 0)
(6.29682 -0.416567 0)
(6.34485 -0.347701 0)
(6.37077 -0.26566 0)
(6.3922 -0.196802 0)
(6.42071 -0.152588 0)
(6.45994 -0.131539 0)
(6.50898 -0.127812 0)
(6.56428 -0.134977 0)
(6.62225 -0.148088 0)
(6.67975 -0.164095 0)
(6.73481 -0.181973 0)
(6.78671 -0.201547 0)
(6.83577 -0.222945 0)
(6.88278 -0.246041 0)
(6.92916 -0.27068 0)
(6.97566 -0.296413 0)
(7.02361 -0.323286 0)
(7.07241 -0.351365 0)
(7.12348 -0.381383 0)
(7.17671 -0.41382 0)
(7.23443 -0.449375 0)
(7.29486 -0.487132 0)
(7.35914 -0.526415 0)
(7.4242 -0.565474 0)
(7.49133 -0.604001 0)
(7.55755 -0.640762 0)
(7.6244 -0.675944 0)
(7.68931 -0.708592 0)
(7.75398 -0.739073 0)
(7.81638 -0.766792 0)
(7.87789 -0.792409 0)
(7.93708 -0.815622 0)
(7.99505 -0.837079 0)
(8.0515 -0.856746 0)
(8.10675 -0.874882 0)
(8.16244 -0.89183 0)
(8.21738 -0.906901 0)
(8.27507 -0.921302 0)
(8.33236 -0.933801 0)
(8.3938 -0.946675 0)
(8.45434 -0.957999 0)
(8.51987 -0.970681 0)
(8.58429 -0.982627 0)
(8.65485 -0.997758 0)
(8.72427 -1.01278 0)
(8.80127 -1.03182 0)
(8.87658 -1.05055 0)
(8.95902 -1.07397 0)
(9.03797 -1.09743 0)
(9.12245 -1.12634 0)
(9.20141 -1.15547 0)
(9.28424 -1.19008 0)
(9.36013 -1.2245 0)
(9.4386 -1.26365 0)
(9.50934 -1.30188 0)
(9.582 -1.34365 0)
(9.64673 -1.38367 0)
(9.71299 -1.42594 0)
(9.7717 -1.46576 0)
(9.83182 -1.5067 0)
(9.88524 -1.54485 0)
(9.94003 -1.58311 0)
(9.98898 -1.61863 0)
(10.0393 -1.65348 0)
(10.0844 -1.68573 0)
(10.1307 -1.7169 0)
(10.1723 -1.74555 0)
(10.2149 -1.77295 0)
(10.2528 -1.79806 0)
(10.2916 -1.82174 0)
(10.3256 -1.84335 0)
(10.3603 -1.86362 0)
(10.3897 -1.88184 0)
(10.4197 -1.89911 0)
(10.4439 -1.91439 0)
(10.4685 -1.92915 0)
(10.4869 -1.94197 0)
(10.5055 -1.95474 0)
(10.5177 -1.9655 0)
(10.5302 -1.97659 0)
(10.5362 -1.98551 0)
(10.5426 -1.99508 0)
(10.5429 -2.00236 0)
(10.5436 -2.01048 0)
(10.5391 -2.01635 0)
(10.5352 -2.02317 0)
(10.527 -2.02789 0)
(10.5195 -2.03359 0)
(10.509 -2.03755 0)
(10.499 -2.04242 0)
(10.4872 -2.04612 0)
(10.4754 -2.05046 0)
(10.463 -2.05425 0)
(10.4497 -2.05819 0)
(10.4363 -2.06217 0)
(10.4209 -2.06551 0)
(10.4055 -2.06939 0)
(10.3869 -2.07167 0)
(10.368 -2.07487 0)
(10.3449 -2.07551 0)
(10.3214 -2.07717 0)
(10.2932 -2.07555 0)
(10.2646 -2.07497 0)
(10.2316 -2.07069 0)
(10.1981 -2.06729 0)
(10.1614 -2.06041 0)
(10.1239 -2.05398 0)
(10.0855 -2.04507 0)
(10.0456 -2.03583 0)
(10.0073 -2.0258 0)
(9.96661 -2.01433 0)
(9.93021 -2.00416 0)
(9.8902 -1.99112 0)
(9.85672 -1.98161 0)
(9.81844 -1.96769 0)
(9.78781 -1.95914 0)
(9.75206 -1.94482 0)
(9.72315 -1.93704 0)
(9.69027 -1.92272 0)
(9.66153 -1.91508 0)
(9.63117 -1.90107 0)
(9.60118 -1.89262 0)
(9.57253 -1.87907 0)
(9.54047 -1.86885 0)
(9.51228 -1.85583 0)
(9.47875 -1.84314 0)
(9.44954 -1.83037 0)
(9.41596 -1.81488 0)
(9.38441 -1.80144 0)
(9.35179 -1.78309 0)
(9.31719 -1.76763 0)
(9.28523 -1.74637 0)
(9.24751 -1.72793 0)
(9.21438 -1.70377 0)
(9.17459 -1.68226 0)
(9.13782 -1.65531 0)
(9.09714 -1.63141 0)
(9.05576 -1.60199 0)
(9.01486 -1.57641 0)
(8.96955 -1.54457 0)
(8.92891 -1.51736 0)
(8.8808 -1.48254 0)