/*--------------------------------*- C++ -*----------------------------------*\
| =========                 |                                                 |
| \\      /  F ield         | OpenFOAM: The Open Source CFD Toolbox           |
|  \\    /   O peration     | Version:  2.4.0                                 |
|   \\  /    A nd           | Web:      www.OpenFOAM.org                      |
|    \\/     M anipulation  |                                                 |
\*---------------------------------------------------------------------------*/
FoamFile
{
    version     2.0;
    format      ascii;
    class       volVectorField;
    location    "0.013";
    object      UMean;
}
// * * * * * * * * * * * * * * * * * * * * * * * * * * * * * * * * * * * * * //

dimensions      [0 1 -1 0 0 0 0];

internalField   nonuniform List<vector> 
17600
(
(5.52777 0.287123 0)
(3.62264 0.0618438 0)
(2.97203 0.000542407 0)
(2.70263 -0.0033957 0)
(2.62137 -0.0016296 0)
(2.59463 -0.000445371 0)
(2.59623 -0.000310303 0)
(2.61125 -0.000315686 0)
(2.62275 -7.5824e-05 0)
(2.62207 0.000140189 0)
(2.61768 0.000183628 0)
(2.61937 -0.000378709 0)
(2.62043 9.05168e-06 0)
(2.63391 -0.000809685 0)
(2.63591 -0.000278613 0)
(2.67248 -0.00162603 0)
(2.68151 -0.00118235 0)
(2.8215 -0.000946441 0)
(2.97941 -0.0301491 0)
(3.33099 0.0924217 0)
(8.52921 0.787991 0)
(7.47435 0.332234 0)
(6.64473 0.0967569 0)
(6.08704 0.0337928 0)
(5.82861 0.0124505 0)
(5.71878 0.0034359 0)
(5.70154 -0.00215415 0)
(5.72567 -0.0033732 0)
(5.74834 -0.00115039 0)
(5.7471 0.000931147 0)
(5.73896 0.00050795 0)
(5.74332 -0.000396023 0)
(5.73876 -0.00143628 0)
(5.77358 -0.000770453 0)
(5.75857 -0.00502216 0)
(5.85121 -0.000486285 0)
(5.81715 -0.0179704 0)
(6.16016 -0.0156806 0)
(6.01843 -0.0591399 0)
(7.66932 -0.424305 0)
(9.58774 0.905848 0)
(9.57675 0.480239 0)
(9.04188 0.180758 0)
(8.45552 0.0849512 0)
(8.09489 0.0414098 0)
(7.91241 0.0148613 0)
(7.86414 -0.00209541 0)
(7.88121 -0.00679773 0)
(7.90655 -0.00263027 0)
(7.90513 0.00175608 0)
(7.89482 0.00144075 0)
(7.90185 -0.00172829 0)
(7.88846 -0.00246876 0)
(7.93932 -0.00488737 0)
(7.90928 -0.00828067 0)
(8.01919 -0.0102614 0)
(8.00667 -0.0321591 0)
(8.2856 -0.0327441 0)
(8.36391 -0.147778 0)
(9.44177 -0.588244 0)
(9.82412 0.831569 0)
(10.5315 0.538385 0)
(10.4387 0.23471 0)
(10.0269 0.133061 0)
(9.67625 0.0782548 0)
(9.45707 0.0340522 0)
(9.37654 0.00152155 0)
(9.37599 -0.00933641 0)
(9.39603 -0.00434194 0)
(9.39336 0.00320659 0)
(9.38084 0.000795151 0)
(9.38959 0.000883513 0)
(9.36819 -0.00690764 0)
(9.42508 -0.000260255 0)
(9.39385 -0.0196607 0)
(9.47616 -0.000596892 0)
(9.55596 -0.0679322 0)
(9.58857 -0.0193903 0)
(10.1227 -0.302022 0)
(10.1869 -0.439307 0)
(9.77254 0.71247 0)
(10.7817 0.534564 0)
(11.0293 0.245596 0)
(10.8615 0.156392 0)
(10.626 0.108526 0)
(10.4313 0.055861 0)
(10.3361 0.00945343 0)
(10.3155 -0.00991736 0)
(10.3253 -0.00453684 0)
(10.3182 0.00338216 0)
(10.3067 0.00373891 0)
(10.3075 -0.00284726 0)
(10.2957 -0.00225803 0)
(10.325 -0.0129039 0)
(10.3348 -0.00343928 0)
(10.3489 -0.0404376 0)
(10.4858 -0.014022 0)
(10.4818 -0.147448 0)
(10.852 -0.155742 0)
(11.066 -0.816131 0)
(9.71253 0.615385 0)
(10.7415 0.511389 0)
(11.1346 0.230882 0)
(11.1332 0.152474 0)
(11.0349 0.120816 0)
(10.9177 0.0723726 0)
(10.8412 0.0179493 0)
(10.8123 -0.00682934 0)
(10.8086 -0.00540253 0)
(10.8013 0.00763402 0)
(10.7824 0.000529113 0)
(10.7842 0.00435517 0)
(10.7654 -0.0128425 0)
(10.7951 5.37386e-05 0)
(10.7912 -0.0324532 0)
(10.8293 -0.00353073 0)
(10.896 -0.106903 0)
(10.9737 -0.0340959 0)
(11.1705 -0.396489 0)
(11.3577 -0.605796 0)
(9.69337 0.536437 0)
(10.6498 0.486383 0)
(11.0797 0.213969 0)
(11.1362 0.137217 0)
(11.1085 0.117957 0)
(11.06 0.0782825 0)
(11.0242 0.0246791 0)
(10.9949 -0.00549988 0)
(10.9968 -0.00056723 0)
(10.9699 0.00489544 0)
(10.9756 0.0090772 0)
(10.9354 -0.00532725 0)
(10.9644 0.00456671 0)
(10.9286 -0.022405 0)
(10.9885 0.00672984 0)
(10.9604 -0.0635161 0)
(11.0733 -0.025004 0)
(11.0919 -0.181166 0)
(11.303 -0.29436 0)
(11.3456 -0.746163 0)
(9.69216 0.466325 0)
(10.5689 0.457971 0)
(11.0073 0.201151 0)
(11.0851 0.123112 0)
(11.0732 0.109317 0)
(11.0509 0.0787178 0)
(11.0446 0.0256141 0)
(11.0169 -1.94125e-06 0)
(11.0335 -0.00303977 0)
(10.9893 0.0136273 0)
(11.018 0.00239034 0)
(10.9581 0.00657446 0)
(10.9932 -0.0105031 0)
(10.9716 -0.00562909 0)
(10.9871 -0.0248026 0)
(11.0205 -0.026095 0)
(11.0551 -0.088494 0)
(11.1375 -0.14147 0)
(11.2426 -0.350012 0)
(11.3098 -0.835101 0)
(9.69411 0.403406 0)
(10.5022 0.424959 0)
(10.9411 0.190555 0)
(11.0379 0.109834 0)
(11.0293 0.101014 0)
(11.016 0.0741714 0)
(11.0129 0.0295414 0)
(11.0037 -0.00245945 0)
(11.0077 0.0065147 0)
(10.9938 0.00486042 0)
(10.9933 0.0150433 0)
(10.9695 -0.0043235 0)
(10.982 0.00408916 0)
(10.9718 -0.0201758 0)
(10.9898 -0.00678152 0)
(11.0178 -0.0570454 0)
(11.0454 -0.0692798 0)
(11.1224 -0.164173 0)
(11.2007 -0.403583 0)
(11.2491 -0.756448 0)
(9.69587 0.347021 0)
(10.4453 0.389689 0)
(10.8822 0.179926 0)
(10.9955 0.0980617 0)
(10.9944 0.0908895 0)
(10.9798 0.0722738 0)
(10.9848 0.026778 0)
(10.974 0.00469613 0)
(10.9969 1.74451e-05 0)
(10.9709 0.0157959 0)
(10.9923 0.00595291 0)
(10.9553 0.00331807 0)
(10.9812 8.20601e-05 0)
(10.9668 -0.018709 0)
(10.9913 -0.00978276 0)
(11.0017 -0.0582838 0)
(11.0521 -0.0742035 0)
(11.0901 -0.216857 0)
(11.1719 -0.370591 0)
(11.1589 -0.845569 0)
(9.69723 0.296644 0)
(10.3961 0.353199 0)
(10.829 0.169042 0)
(10.958 0.0861157 0)
(10.9635 0.0826182 0)
(10.9505 0.0658781 0)
(10.9554 0.0299274 0)
(10.9544 0.000749068 0)
(10.9784 0.00887757 0)
(10.9613 0.00644681 0)
(10.9821 0.014968 0)
(10.9478 -0.00209005 0)
(10.9803 0.00133277 0)
(10.9615 -0.0179573 0)
(10.9881 -0.0133906 0)
(11.0014 -0.0566774 0)
(11.0359 -0.0923794 0)
(11.0746 -0.190998 0)
(11.132 -0.417319 0)
(11.0806 -0.832462 0)
(9.69831 0.251612 0)
(10.3538 0.316245 0)
(10.7816 0.156682 0)
(10.9241 0.0754871 0)
(10.937 0.0726431 0)
(10.924 0.061969 0)
(10.9311 0.026386 0)
(10.9351 0.00569395 0)
(10.9641 0.00366794 0)
(10.9524 0.0126864 0)
(10.9712 0.00991704 0)
(10.9466 -0.00126062 0)
(10.9724 0.00602493 0)
(10.9611 -0.0266074 0)
(10.9843 -0.00741409 0)
(10.9962 -0.073597 0)
(11.0266 -0.0868895 0)
(11.0564 -0.228216 0)
(11.0904 -0.420309 0)
(11.015 -0.818625 0)
(9.69913 0.211348 0)
(10.3178 0.278898 0)
(10.7396 0.142936 0)
(10.8941 0.0649564 0)
(10.9138 0.0639939 0)
(10.9014 0.0548939 0)
(10.9092 0.0268616 0)
(10.9189 0.00281759 0)
(10.9517 0.00847978 0)
(10.9436 0.00698528 0)
(10.9644 0.0132858 0)
(10.9413 -0.0025257 0)
(10.9692 0.00129657 0)
(10.9591 -0.020561 0)
(10.9812 -0.0140396 0)
(10.9885 -0.0673335 0)
(11.02 -0.0992334 0)
(11.0316 -0.230779 0)
(11.054 -0.423371 0)
(10.952 -0.819826 0)
(9.69974 0.17517 0)
(10.2875 0.241484 0)
(10.7031 0.127311 0)
(10.8678 0.0555121 0)
(10.894 0.0546714 0)
(10.8818 0.0491059 0)
(10.8905 0.023373 0)
(10.9048 0.00499928 0)
(10.9406 0.0056209 0)
(10.9372 0.00848727 0)
(10.9566 0.0111608 0)
(10.9389 -0.00456841 0)
(10.9647 0.00660286 0)
(10.9575 -0.0286559 0)
(10.9767 -0.0125082 0)
(10.9854 -0.0746281 0)
(11.0059 -0.105899 0)
(11.0138 -0.237016 0)
(11.0172 -0.428424 0)
(10.8976 -0.809367 0)
(9.70016 0.142481 0)
(10.2625 0.204049 0)
(10.672 0.110232 0)
(10.8453 0.0463744 0)
(10.8774 0.0460904 0)
(10.8656 0.0417163 0)
(10.8744 0.0215854 0)
(10.893 0.00317123 0)
(10.9315 0.00705674 0)
(10.9313 0.00555958 0)
(10.9508 0.0108652 0)
(10.9362 -0.00441482 0)
(10.9611 0.00245728 0)
(10.9558 -0.025394 0)
(10.9732 -0.0152231 0)
(10.9787 -0.0774509 0)
(10.996 -0.109891 0)
(10.9945 -0.240884 0)
(10.9821 -0.431332 0)
(10.8391 -0.792119 0)
(9.70044 0.11269 0)
(10.2425 0.166718 0)
(10.6463 0.0918395 0)
(10.8266 0.0377155 0)
(10.8638 0.0373635 0)
(10.8522 0.0346686 0)
(10.8613 0.0179853 0)
(10.8833 0.0033812 0)
(10.9237 0.00571927 0)
(10.9269 0.00426239 0)
(10.9453 0.0100563 0)
(10.9343 -0.00716521 0)
(10.9576 0.00408941 0)
(10.9545 -0.0279267 0)
(10.9691 -0.0181465 0)
(10.9731 -0.0769645 0)
(10.9853 -0.114709 0)
(10.9743 -0.246269 0)
(10.947 -0.430379 0)
(10.7849 -0.768876 0)
(9.70061 0.0852465 0)
(10.2269 0.129492 0)
(10.6258 0.0724644 0)
(10.8117 0.029174 0)
(10.853 0.028962 0)
(10.8417 0.0269931 0)
(10.8507 0.0147387 0)
(10.8756 0.00209213 0)
(10.9176 0.00520637 0)
(10.9234 0.0024371 0)
(10.9411 0.00811594 0)
(10.9328 -0.00704344 0)
(10.9544 0.0023416 0)
(10.9531 -0.0281481 0)
(10.9651 -0.0199567 0)
(10.9675 -0.0788338 0)
(10.9737 -0.119509 0)
(10.9553 -0.246983 0)
(10.9142 -0.424647 0)
(10.7463 -0.749057 0)
(9.70071 0.0596077 0)
(10.2154 0.0923872 0)
(10.6105 0.0523083 0)
(10.8005 0.0207627 0)
(10.845 0.0206213 0)
(10.8339 0.0192879 0)
(10.8429 0.0108538 0)
(10.87 0.00125273 0)
(10.9129 0.00430214 0)
(10.9209 0.000375251 0)
(10.9376 0.00682948 0)
(10.9317 -0.00876435 0)
(10.9518 0.00121314 0)
(10.9516 -0.0280656 0)
(10.9614 -0.0229598 0)
(10.9614 -0.0789157 0)
(10.9628 -0.122625 0)
(10.9368 -0.245987 0)
(10.8844 -0.419539 0)
(10.6991 -0.723343 0)
(9.70076 0.0352499 0)
(10.2079 0.055378 0)
(10.6004 0.0316122 0)
(10.7931 0.0123811 0)
(10.8397 0.0124088 0)
(10.8288 0.011389 0)
(10.8376 0.00686921 0)
(10.8663 8.24346e-05 0)
(10.9096 0.00317989 0)
(10.9194 -0.00153282 0)
(10.9351 0.0048701 0)
(10.931 -0.00963586 0)
(10.9495 -4.08044e-05 0)
(10.9503 -0.0281573 0)
(10.9577 -0.025312 0)
(10.9555 -0.0789598 0)
(10.952 -0.124428 0)
(10.9189 -0.244527 0)
(10.8538 -0.410587 0)
(10.6563 -0.695009 0)
(9.70078 0.0116555 0)
(10.2042 0.018435 0)
(10.5953 0.010592 0)
(10.7894 0.00402046 0)
(10.8371 0.00424958 0)
(10.8263 0.00343231 0)
(10.8349 0.00272391 0)
(10.8646 -0.00110859 0)
(10.9078 0.00203311 0)
(10.9188 -0.00352866 0)
(10.9334 0.00289992 0)
(10.9308 -0.0105384 0)
(10.9477 -0.00159319 0)
(10.9489 -0.0278645 0)
(10.9541 -0.0278221 0)
(10.9497 -0.0781754 0)
(10.9413 -0.125814 0)
(10.9014 -0.241296 0)
(10.8261 -0.400431 0)
(10.6238 -0.670194 0)
(9.70078 -0.0116839 0)
(10.2043 -0.0184867 0)
(10.5953 -0.0105364 0)
(10.7894 -0.00433791 0)
(10.837 -0.00388996 0)
(10.8264 -0.00454743 0)
(10.8348 -0.00147368 0)
(10.8648 -0.00230458 0)
(10.9074 0.000815524 0)
(10.9192 -0.00547027 0)
(10.9326 0.000832235 0)
(10.9309 -0.0113629 0)
(10.9462 -0.00316429 0)
(10.9476 -0.0274842 0)
(10.9506 -0.0299755 0)
(10.9439 -0.0771302 0)
(10.9309 -0.126376 0)
(10.8849 -0.236474 0)
(10.8002 -0.389056 0)
(10.587 -0.636794 0)
(9.70076 -0.0352782 0)
(10.208 -0.0554288 0)
(10.6003 -0.0315572 0)
(10.7931 -0.0126964 0)
(10.8396 -0.0120541 0)
(10.829 -0.0124942 0)
(10.8371 -0.00563783 0)
(10.867 -0.00345887 0)
(10.9083 -0.00040654 0)
(10.9205 -0.00734666 0)
(10.9326 -0.00126837 0)
(10.9315 -0.012078 0)
(10.9452 -0.00476866 0)
(10.9463 -0.026899 0)
(10.9473 -0.0319446 0)
(10.9382 -0.0757446 0)
(10.9208 -0.125752 0)
(10.8691 -0.230866 0)
(10.7753 -0.375254 0)
(10.5555 -0.608321 0)
(9.70071 -0.0596364 0)
(10.2154 -0.0924359 0)
(10.6104 -0.0522579 0)
(10.8006 -0.0210671 0)
(10.8448 -0.0202855 0)
(10.8343 -0.0203525 0)
(10.842 -0.00968886 0)
(10.8711 -0.00451555 0)
(10.9107 -0.00159263 0)
(10.9228 -0.00911968 0)
(10.9335 -0.00334403 0)
(10.9326 -0.0126901 0)
(10.9445 -0.00631418 0)
(10.9452 -0.0261901 0)
(10.9442 -0.0336686 0)
(10.9328 -0.0738207 0)
(10.911 -0.124605 0)
(10.854 -0.223996 0)
(10.7524 -0.360631 0)
(10.5278 -0.575025 0)
(9.7006 -0.0852752 0)
(10.2269 -0.129539 0)
(10.6257 -0.0724153 0)
(10.8118 -0.0294768 0)
(10.8526 -0.0286224 0)
(10.8422 -0.0280652 0)
(10.8495 -0.0135417 0)
(10.8772 -0.00542172 0)
(10.9145 -0.00270087 0)
(10.9261 -0.0107539 0)
(10.9353 -0.00534411 0)
(10.9341 -0.013177 0)
(10.9443 -0.00777409 0)
(10.9442 -0.0253615 0)
(10.9412 -0.0350588 0)
(10.9275 -0.0715845 0)
(10.9016 -0.122711 0)
(10.8399 -0.215869 0)
(10.7309 -0.344521 0)
(10.5002 -0.542978 0)
(9.70043 -0.112719 0)
(10.2425 -0.16676 0)
(10.6461 -0.0918053 0)
(10.8268 -0.0379809 0)
(10.8633 -0.0371009 0)
(10.8529 -0.0355695 0)
(10.8597 -0.0171155 0)
(10.8853 -0.00612774 0)
(10.9198 -0.00368611 0)
(10.9303 -0.0122126 0)
(10.9379 -0.00721297 0)
(10.9361 -0.0135321 0)
(10.9444 -0.00909703 0)
(10.9433 -0.0244112 0)
(10.9385 -0.0361479 0)
(10.9224 -0.0689621 0)
(10.8926 -0.120092 0)
(10.8266 -0.206925 0)
(10.711 -0.327862 0)
(10.4771 -0.508847 0)
(9.70015 -0.142509 0)
(10.2626 -0.204092 0)
(10.6719 -0.110187 0)
(10.8455 -0.0466704 0)
(10.8768 -0.0457456 0)
(10.8664 -0.0427962 0)
(10.8725 -0.0203287 0)
(10.8954 -0.0065828 0)
(10.9266 -0.00449597 0)
(10.9357 -0.0134539 0)
(10.9415 -0.00889435 0)
(10.9385 -0.0137406 0)
(10.945 -0.0102363 0)
(10.9425 -0.0233532 0)
(10.936 -0.0369048 0)
(10.9177 -0.0659495 0)
(10.8841 -0.116957 0)
(10.8143 -0.197 0)
(10.6928 -0.309875 0)
(10.4551 -0.474318 0)
(9.69973 -0.175201 0)
(10.2875 -0.241509 0)
(10.7029 -0.127309 0)
(10.8681 -0.0556964 0)
(10.8933 -0.0545699 0)
(10.883 -0.0496661 0)
(10.8881 -0.0231041 0)
(10.9077 -0.00673735 0)
(10.935 -0.00508584 0)
(10.9422 -0.0144381 0)
(10.9459 -0.0103355 0)
(10.9416 -0.0137858 0)
(10.946 -0.0111529 0)
(10.9419 -0.022194 0)
(10.9337 -0.0373094 0)
(10.9132 -0.0625914 0)
(10.876 -0.113297 0)
(10.8028 -0.186145 0)
(10.6759 -0.291618 0)
(10.4359 -0.439451 0)
(9.69913 -0.211375 0)
(10.3178 -0.278937 0)
(10.7394 -0.142885 0)
(10.8944 -0.0652684 0)
(10.913 -0.0635886 0)
(10.9026 -0.0560862 0)
(10.9066 -0.0253678 0)
(10.9222 -0.0065304 0)
(10.945 -0.00539422 0)
(10.9499 -0.0151137 0)
(10.9514 -0.0114787 0)
(10.9451 -0.0136452 0)
(10.9474 -0.011806 0)
(10.9415 -0.0209399 0)
(10.9316 -0.0373546 0)
(10.9089 -0.0588908 0)
(10.8685 -0.109189 0)
(10.7923 -0.174501 0)
(10.6607 -0.272607 0)
(10.419 -0.403351 0)
(9.6983 -0.251647 0)
(10.3539 -0.316247 0)
(10.7814 -0.156731 0)
(10.9245 -0.0755397 0)
(10.936 -0.0728061 0)
(10.9255 -0.0619857 0)
(10.928 -0.0270448 0)
(10.939 -0.00593457 0)
(10.9568 -0.00537417 0)
(10.9588 -0.0154363 0)
(10.9578 -0.0122718 0)
(10.9493 -0.0132983 0)
(10.9492 -0.0121542 0)
(10.9413 -0.019594 0)
(10.9299 -0.037024 0)
(10.905 -0.0548749 0)
(10.8615 -0.104672 0)
(10.7826 -0.162072 0)
(10.647 -0.253447 0)
(10.4042 -0.36759 0)
(9.69722 -0.296667 0)
(10.3962 -0.35324 0)
(10.8288 -0.168972 0)
(10.9583 -0.0864574 0)
(10.9626 -0.0821071 0)
(10.9518 -0.0672585 0)
(10.9525 -0.0280802 0)
(10.9582 -0.00492114 0)
(10.9704 -0.00497167 0)
(10.9691 -0.0153499 0)
(10.9653 -0.0126617 0)
(10.9541 -0.0127201 0)
(10.9515 -0.0121644 0)
(10.9414 -0.0181668 0)
(10.9284 -0.0362845 0)
(10.9013 -0.0506082 0)
(10.8551 -0.0997626 0)
(10.7739 -0.14897 0)
(10.6348 -0.234262 0)
(10.392 -0.330319 0)
(9.69586 -0.347062 0)
(10.4454 -0.389662 0)
(10.8819 -0.180033 0)
(10.9961 -0.0979639 0)
(10.9931 -0.0913349 0)
(10.9819 -0.0717337 0)
(10.9803 -0.0283618 0)
(10.9801 -0.0034208 0)
(10.9861 -0.00412326 0)
(10.981 -0.0147962 0)
(10.974 -0.0125795 0)
(10.9597 -0.0118753 0)
(10.9543 -0.0117786 0)
(10.9417 -0.016689 0)
(10.9272 -0.0350868 0)
(10.898 -0.0461457 0)
(10.8494 -0.0944975 0)
(10.7661 -0.135205 0)
(10.624 -0.215318 0)
(10.3821 -0.293026 0)
(9.69411 -0.403427 0)
(10.5022 -0.424997 0)
(10.9409 -0.190494 0)
(11.0381 -0.110133 0)
(11.0288 -0.100554 0)
(11.0166 -0.0754395 0)
(11.0114 -0.0278937 0)
(11.0046 -0.00136435 0)
(11.004 -0.0027385 0)
(10.9946 -0.013722 0)
(10.9839 -0.011994 0)
(10.966 -0.0107296 0)
(10.9575 -0.0109837 0)
(10.9422 -0.0151198 0)
(10.9263 -0.0334998 0)
(10.8948 -0.0414383 0)
(10.8442 -0.0889824 0)
(10.7588 -0.120714 0)
(10.6147 -0.197401 0)
(10.3743 -0.2547 0)
(9.69214 -0.466364 0)
(10.569 -0.457943 0)
(11.0069 -0.20125 0)
(11.0857 -0.123018 0)
(11.0718 -0.10969 0)
(11.0534 -0.0783292 0)
(11.0391 -0.0269158 0)
(11.0247 0.00106866 0)
(11.0187 -0.00079925 0)
(11.005 -0.0119967 0)
(10.9907 -0.0108085 0)
(10.9697 -0.00925909 0)
(10.9581 -0.00971333 0)
(10.9409 -0.0135107 0)
(10.9231 -0.0313129 0)
(10.8894 -0.0367983 0)
(10.8375 -0.0827722 0)
(10.7479 -0.105844 0)
(10.6035 -0.180116 0)
(10.362 -0.215519 0)
(9.69338 -0.536462 0)
(10.6499 -0.486397 0)
(11.0795 -0.213984 0)
(11.1364 -0.137307 0)
(11.1078 -0.117891 0)
(11.0607 -0.0786966 0)
(11.0216 -0.0244736 0)
(10.9976 0.00380725 0)
(10.9897 0.00142262 0)
(10.9747 -0.00968288 0)
(10.9584 -0.00902108 0)
(10.9386 -0.00748332 0)
(10.9245 -0.00808043 0)
(10.9102 -0.0118507 0)
(10.8881 -0.0284569 0)
(10.8529 -0.0321011 0)
(10.8007 -0.0756933 0)
(10.6988 -0.0901425 0)
(10.558 -0.16272 0)
(10.2999 -0.176177 0)
(9.71257 -0.615419 0)
(10.7415 -0.511379 0)
(11.1345 -0.230938 0)
(11.1332 -0.152447 0)
(11.0346 -0.120946 0)
(10.9175 -0.0723289 0)
(10.8406 -0.0186087 0)
(10.811 0.0069669 0)
(10.8076 0.00331451 0)
(10.7954 -0.00736751 0)
(10.7793 -0.00718917 0)
(10.7648 -0.00577435 0)
(10.7484 -0.00651171 0)
(10.7406 -0.0102824 0)
(10.7111 -0.0247409 0)
(10.6748 -0.027477 0)
(10.6208 -0.0667006 0)
(10.4949 -0.0737628 0)
(10.3647 -0.143387 0)
(10.0605 -0.13709 0)
(9.77259 -0.712498 0)
(10.7817 -0.534568 0)
(11.0291 -0.245624 0)
(10.8616 -0.15641 0)
(10.6255 -0.108532 0)
(10.4314 -0.0560309 0)
(10.3347 -0.00960967 0)
(10.3151 0.00929298 0)
(10.3221 0.00409671 0)
(10.3142 -0.00551406 0)
(10.2992 -0.0056353 0)
(10.2882 -0.00432494 0)
(10.2709 -0.00515777 0)
(10.2665 -0.00863503 0)
(10.2296 -0.0201372 0)
(10.1916 -0.0227779 0)
(10.1318 -0.0548948 0)
(9.97929 -0.0573032 0)
(9.86559 -0.119996 0)
(9.49354 -0.0983774 0)
(9.82418 -0.831599 0)
(10.5315 -0.538376 0)
(10.4386 -0.234744 0)
(10.0269 -0.133054 0)
(9.67573 -0.0782722 0)
(9.45712 -0.0341355 0)
(9.37507 -0.00176598 0)
(9.37542 0.00909404 0)
(9.39267 0.00352589 0)
(9.38804 -0.00404912 0)
(9.3738 -0.00416307 0)
(9.36413 -0.00297127 0)
(9.34783 -0.00385204 0)
(9.3434 -0.00660822 0)
(9.30244 -0.0149688 0)
(9.26293 -0.0175023 0)
(9.19549 -0.040808 0)
(9.02751 -0.0407225 0)
(8.9337 -0.093032 0)
(8.49088 -0.0579658 0)
(9.58777 -0.905868 0)
(9.57664 -0.48023 0)
(9.04176 -0.180789 0)
(8.45541 -0.0849352 0)
(8.09451 -0.0414026 0)
(7.91239 -0.0149297 0)
(7.86282 0.00192906 0)
(7.88045 0.00657132 0)
(7.90315 0.00220474 0)
(7.8998 -0.00269654 0)
(7.88633 -0.00267101 0)
(7.87746 -0.00173008 0)
(7.86364 -0.00255078 0)
(7.85758 -0.00429035 0)
(7.81765 -0.00965201 0)
(7.77894 -0.0116384 0)
(7.70724 -0.025615 0)
(7.54738 -0.025493 0)
(7.46971 -0.0620927 0)
(6.98463 -0.0219026 0)
(8.52922 -0.788001 0)
(7.47422 -0.332228 0)
(6.64468 -0.0967808 0)
(6.08681 -0.0337704 0)
(5.82848 -0.0124379 0)
(5.71875 -0.00347858 0)
(5.70053 0.00205505 0)
(5.72478 0.00326669 0)
(5.74546 0.000927983 0)
(5.74233 -0.00138943 0)
(5.73076 -0.0013066 0)
(5.72341 -0.000739379 0)
(5.71325 -0.00130996 0)
(5.70624 -0.00205493 0)
(5.67369 -0.00476518 0)
(5.64012 -0.00579035 0)
(5.57558 -0.0118331 0)
(5.45142 -0.012604 0)
(5.38096 -0.0300026 0)
(4.94215 -0.00126164 0)
(5.52776 -0.287124 0)
(3.62258 -0.0618402 0)
(2.97204 -0.000551404 0)
(2.70231 0.00341285 0)
(2.62167 0.00163874 0)
(2.5947 0.000431772 0)
(2.59576 0.000289651 0)
(2.6106 0.000302736 0)
(2.62118 5.82331e-05 0)
(2.61922 -0.00022243 0)
(2.61266 -0.000164559 0)
(2.60865 -2.15283e-05 0)
(2.60378 -0.000187686 0)
(2.5988 -0.000137893 0)
(2.58216 -0.000634828 0)
(2.56255 -0.00051776 0)
(2.52657 -0.00119444 0)
(2.46665 -0.00142941 0)
(2.41293 -0.00302279 0)
(2.18897 0.0187852 0)
(5.29075 -1.94728 0)
(6.682 -1.75299 0)
(7.61497 -1.89876 0)
(8.35074 -2.32448 0)
(8.75442 -2.80871 0)
(8.83464 -3.24899 0)
(8.8981 -3.73051 0)
(8.78767 -4.13044 0)
(8.50629 -4.35262 0)
(7.97743 -4.38549 0)
(7.50704 -4.35004 0)
(7.21483 -4.27889 0)
(6.89064 -4.08005 0)
(6.53602 -3.76975 0)
(6.24 -3.4326 0)
(6.01404 -3.11341 0)
(5.83715 -2.82124 0)
(5.70667 -2.55462 0)
(5.60198 -2.30766 0)
(5.51155 -2.08541 0)
(5.44126 -1.88824 0)
(5.38684 -1.70931 0)
(5.34118 -1.54687 0)
(5.30297 -1.40044 0)
(5.27179 -1.26762 0)
(5.24613 -1.14676 0)
(5.22467 -1.03724 0)
(5.20653 -0.938346 0)
(5.19118 -0.849092 0)
(5.17823 -0.768502 0)
(5.16732 -0.695684 0)
(5.15814 -0.629854 0)
(5.15041 -0.570312 0)
(5.14388 -0.516442 0)
(5.13835 -0.467691 0)
(5.13368 -0.423567 0)
(5.12971 -0.383623 0)
(5.12634 -0.34746 0)
(5.12347 -0.314715 0)
(5.12102 -0.285063 0)
(5.11893 -0.25821 0)
(5.11714 -0.23389 0)
(5.11561 -0.211862 0)
(5.1143 -0.191911 0)
(5.11317 -0.173839 0)
(5.1122 -0.157469 0)
(5.11137 -0.142641 0)
(5.11065 -0.129209 0)
(5.11003 -0.117041 0)
(5.10949 -0.106019 0)
(5.10903 -0.0960343 0)
(5.10863 -0.0869897 0)
(5.10828 -0.0787964 0)
(5.10797 -0.0713745 0)
(5.10771 -0.0646508 0)
(5.10748 -0.0585603 0)
(5.10728 -0.0530431 0)
(5.1071 -0.0480452 0)
(5.10694 -0.0435175 0)
(5.10681 -0.0394161 0)
(5.10669 -0.0357008 0)
(5.10659 -0.0323351 0)
(5.10649 -0.0292858 0)
(5.10641 -0.0265236 0)
(5.10634 -0.0240213 0)
(5.10627 -0.0217544 0)
(5.10622 -0.0197004 0)
(5.10617 -0.0178398 0)
(5.10612 -0.0161541 0)
(5.10608 -0.0146268 0)
(5.10605 -0.0132428 0)
(5.10601 -0.0119888 0)
(5.10599 -0.0108525 0)
(5.10596 -0.00982269 0)
(5.10594 -0.00888904 0)
(5.10592 -0.00804272 0)
(5.1059 -0.00727545 0)
(5.10589 -0.00657951 0)
(5.10587 -0.005948 0)
(5.10586 -0.005375 0)
(5.10585 -0.00485493 0)
(5.10584 -0.00438248 0)
(5.10583 -0.00395294 0)
(5.10582 -0.00356229 0)
(5.10581 -0.00320677 0)
(5.10581 -0.00288269 0)
(5.1058 -0.00258685 0)
(5.10579 -0.00231661 0)
(5.10579 -0.00206937 0)
(5.10578 -0.00184258 0)
(5.10578 -0.0016339 0)
(5.10578 -0.00144156 0)
(5.10577 -0.00126367 0)
(5.10577 -0.00109834 0)
(5.10577 -0.000943828 0)
(5.10577 -0.000798894 0)
(5.10577 -0.000662137 0)
(5.10577 -0.00053206 0)
(5.10576 -0.00040731 0)
(5.10576 -0.000286964 0)
(5.10576 -0.000169872 0)
(5.10576 -5.48013e-05 0)
(5.10576 5.94615e-05 0)
(5.10576 0.000173773 0)
(5.10576 0.000289199 0)
(5.10576 0.000406951 0)
(5.10576 0.000528224 0)
(5.10577 0.000653918 0)
(5.10577 0.000785199 0)
(5.10577 0.000923426 0)
(5.10577 0.00106997 0)
(5.10577 0.00122594 0)
(5.10577 0.00139277 0)
(5.10578 0.00157215 0)
(5.10578 0.00176585 0)
(5.10578 0.00197541 0)
(5.10579 0.00220274 0)
(5.10579 0.00245007 0)
(5.1058 0.00271974 0)
(5.1058 0.00301391 0)
(5.10581 0.00333528 0)
(5.10581 0.00368686 0)
(5.10582 0.004072 0)
(5.10583 0.00449395 0)
(5.10584 0.00495656 0)
(5.10585 0.0054642 0)
(5.10586 0.0060216 0)
(5.10587 0.0066336 0)
(5.10589 0.00730575 0)
(5.1059 0.00804434 0)
(5.10592 0.00885616 0)
(5.10594 0.00974836 0)
(5.10596 0.010729 0)
(5.10598 0.0118072 0)
(5.106 0.0129928 0)
(5.10603 0.0142965 0)
(5.10606 0.0157299 0)
(5.10609 0.0173064 0)
(5.10613 0.0190403 0)
(5.10617 0.0209472 0)
(5.10621 0.0230445 0)
(5.10626 0.0253513 0)
(5.10631 0.0278888 0)
(5.10637 0.03068 0)
(5.10644 0.0337501 0)
(5.10651 0.0371275 0)
(5.10659 0.0408428 0)
(5.10668 0.0449301 0)
(5.10678 0.0494265 0)
(5.1069 0.0543737 0)
(5.10702 0.0598167 0)
(5.10716 0.0658058 0)
(5.10731 0.0723958 0)
(5.10748 0.0796481 0)
(5.10767 0.0876298 0)
(5.10789 0.0964152 0)
(5.10813 0.106086 0)
(5.10839 0.116735 0)
(5.10869 0.12846 0)
(5.10901 0.141377 0)
(5.10938 0.155604 0)
(5.10978 0.171291 0)
(5.11022 0.188574 0)
(5.11068 0.207657 0)
(5.11119 0.228676 0)
(5.11169 0.25195 0)
(5.11221 0.277544 0)
(5.11263 0.306003 0)
(5.11299 0.337188 0)
(5.11309 0.371989 0)
(5.11292 0.409952 0)
(5.11219 0.452208 0)
(5.11124 0.498186 0)
(5.10843 0.548808 0)
(5.10824 0.603608 0)
(5.09969 0.664265 0)
(5.10671 0.727193 0)
(5.08428 0.802575 0)
(5.10977 0.87196 0)
(5.06475 0.967556 0)
(5.11631 1.04876 0)
(5.04294 1.15976 0)
(5.13453 1.27412 0)
(5.00187 1.38517 0)
(5.17766 1.55554 0)
(4.95737 1.67047 0)
(5.19227 1.88393 0)
(4.97889 2.05924 0)
(5.12079 2.2696 0)
(5.0713 2.55251 0)
(5.01705 2.78899 0)
(5.12474 3.15018 0)
(4.99445 3.52322 0)
(5.03646 3.91888 0)
(5.01729 4.51062 0)
(5.0174 5.07513 0)
(4.95045 5.86907 0)
(4.8694 7.0258 0)
(5.5023 8.07817 0)
(3.17534 11.7065 0)
(7.5092 -2.1031 0)
(7.95201 -2.08829 0)
(8.40135 -2.28651 0)
(8.84533 -2.59304 0)
(9.05367 -2.93219 0)
(9.16723 -3.31808 0)
(9.18566 -3.7219 0)
(8.99382 -4.02568 0)
(8.57934 -4.17348 0)
(8.05307 -4.20666 0)
(7.74619 -4.22567 0)
(7.46478 -4.15178 0)
(7.05899 -3.92435 0)
(6.66728 -3.61989 0)
(6.37314 -3.31696 0)
(6.14826 -3.0265 0)
(5.9614 -2.75093 0)
(5.81654 -2.49922 0)
(5.70163 -2.26447 0)
(5.60195 -2.04911 0)
(5.52122 -1.85828 0)
(5.4582 -1.68576 0)
(5.40597 -1.52776 0)
(5.36177 -1.38447 0)
(5.32481 -1.25438 0)
(5.29385 -1.13577 0)
(5.26775 -1.02796 0)
(5.24554 -0.930433 0)
(5.22651 -0.842349 0)
(5.21017 -0.762773 0)
(5.19619 -0.690826 0)
(5.18423 -0.625731 0)
(5.17399 -0.566807 0)
(5.16521 -0.513455 0)
(5.15766 -0.46514 0)
(5.15115 -0.421383 0)
(5.14553 -0.381749 0)
(5.14066 -0.345849 0)
(5.13644 -0.313327 0)
(5.13277 -0.283865 0)
(5.12957 -0.257174 0)
(5.12678 -0.232993 0)
(5.12434 -0.211084 0)
(5.12221 -0.191235 0)
(5.12033 -0.173251 0)
(5.11869 -0.156957 0)
(5.11725 -0.142194 0)
(5.11597 -0.128818 0)
(5.11485 -0.1167 0)
(5.11386 -0.10572 0)
(5.11299 -0.0957719 0)
(5.11221 -0.0867591 0)
(5.11153 -0.0785937 0)
(5.11092 -0.0711954 0)
(5.11037 -0.0644924 0)
(5.10989 -0.0584199 0)
(5.10946 -0.0529186 0)
(5.10908 -0.0479342 0)
(5.10874 -0.0434183 0)
(5.10844 -0.0393275 0)
(5.10817 -0.0356217 0)
(5.10792 -0.0322642 0)
(5.1077 -0.0292222 0)
(5.10751 -0.0264667 0)
(5.10733 -0.0239707 0)
(5.10717 -0.0217091 0)
(5.10703 -0.0196599 0)
(5.10691 -0.0178038 0)
(5.10679 -0.0161224 0)
(5.10669 -0.0145985 0)
(5.1066 -0.0132174 0)
(5.10651 -0.0119662 0)
(5.10644 -0.0108325 0)
(5.10637 -0.00980461 0)
(5.10631 -0.00887265 0)
(5.10626 -0.00802811 0)
(5.10621 -0.00726254 0)
(5.10616 -0.00656784 0)
(5.10612 -0.00593735 0)
(5.10609 -0.00536551 0)
(5.10605 -0.00484658 0)
(5.10602 -0.00437487 0)
(5.106 -0.00394589 0)
(5.10598 -0.00355604 0)
(5.10595 -0.00320138 0)
(5.10593 -0.00287786 0)
(5.10592 -0.0025825 0)
(5.1059 -0.00231298 0)
(5.10589 -0.00206652 0)
(5.10587 -0.00184007 0)
(5.10586 -0.00163157 0)
(5.10585 -0.00143956 0)
(5.10585 -0.00126207 0)
(5.10584 -0.00109676 0)
(5.10583 -0.000942231 0)
(5.10583 -0.000797515 0)
(5.10582 -0.000661087 0)
(5.10582 -0.000531037 0)
(5.10582 -0.000406276 0)
(5.10581 -0.000286176 0)
(5.10581 -0.00016949 0)
(5.10581 -5.44759e-05 0)
(5.10581 5.97973e-05 0)
(5.10581 0.000173849 0)
(5.10581 0.000288874 0)
(5.10581 0.000406549 0)
(5.10582 0.000527815 0)
(5.10582 0.000653234 0)
(5.10582 0.000784105 0)
(5.10583 0.000922235 0)
(5.10583 0.00106874 0)
(5.10584 0.00122441 0)
(5.10585 0.00139081 0)
(5.10585 0.00157006 0)
(5.10586 0.00176366 0)
(5.10588 0.00197283 0)
(5.10589 0.00219957 0)
(5.1059 0.00244656 0)
(5.10592 0.00271583 0)
(5.10593 0.00300934 0)
(5.10595 0.00332985 0)
(5.10597 0.00368095 0)
(5.10599 0.00406563 0)
(5.10601 0.00448691 0)
(5.10604 0.00494866 0)
(5.10607 0.00545571 0)
(5.1061 0.00601244 0)
(5.10614 0.00662347 0)
(5.10618 0.00729439 0)
(5.10622 0.00803195 0)
(5.10627 0.00884261 0)
(5.10633 0.00973331 0)
(5.10638 0.0107122 0)
(5.10645 0.0117887 0)
(5.10652 0.0129725 0)
(5.1066 0.014274 0)
(5.10668 0.0157049 0)
(5.10678 0.0172789 0)
(5.10688 0.01901 0)
(5.107 0.0209137 0)
(5.10713 0.0230072 0)
(5.10727 0.0253103 0)
(5.10742 0.0278437 0)
(5.10759 0.03063 0)
(5.10778 0.0336947 0)
(5.10799 0.0370664 0)
(5.10822 0.0407754 0)
(5.10847 0.0448555 0)
(5.10875 0.0493438 0)
(5.10906 0.0542823 0)
(5.1094 0.0597156 0)
(5.10978 0.0656939 0)
(5.11019 0.0722715 0)
(5.11066 0.0795106 0)
(5.11117 0.0874773 0)
(5.11173 0.0962463 0)
(5.11236 0.105899 0)
(5.11305 0.116527 0)
(5.11382 0.12823 0)
(5.11467 0.141122 0)
(5.11561 0.155322 0)
(5.11664 0.170982 0)
(5.11779 0.188231 0)
(5.11903 0.207292 0)
(5.12042 0.228269 0)
(5.12187 0.251547 0)
(5.12348 0.277083 0)
(5.12507 0.305626 0)
(5.12676 0.336726 0)
(5.1283 0.371791 0)
(5.1296 0.409654 0)
(5.13086 0.452371 0)
(5.1308 0.498477 0)
(5.13192 0.549046 0)
(5.12942 0.605631 0)
(5.13067 0.662645 0)
(5.12769 0.733579 0)
(5.1246 0.795021 0)
(5.134 0.885619 0)
(5.1094 0.952543 0)
(5.1522 1.0657 0)
(5.09857 1.14748 0)
(5.15324 1.2775 0)
(5.13243 1.39704 0)
(5.10505 1.52443 0)
(5.21504 1.71337 0)
(5.04882 1.84112 0)
(5.2723 2.07795 0)
(5.08488 2.27855 0)
(5.22983 2.51461 0)
(5.21501 2.83706 0)
(5.17359 3.10611 0)
(5.31622 3.51758 0)
(5.27264 3.94488 0)
(5.28469 4.45192 0)
(5.39103 5.10608 0)
(5.40499 5.81076 0)
(5.17885 7.14889 0)
(6.871 7.71741 0)
(4.60219 12.4336 0)
(9.27063 -1.6855 0)
(9.0333 -2.05514 0)
(9.33942 -2.32066 0)
(9.5424 -2.57943 0)
(9.57171 -2.90049 0)
(9.57649 -3.27019 0)
(9.39459 -3.61637 0)
(9.0554 -3.86472 0)
(8.59279 -3.99631 0)
(8.26891 -4.08197 0)
(8.06699 -4.11479 0)
(7.66586 -3.99324 0)
(7.1686 -3.74813 0)
(6.78234 -3.47346 0)
(6.50929 -3.20883 0)
(6.28133 -2.94354 0)
(6.08141 -2.68011 0)
(5.92205 -2.43884 0)
(5.79701 -2.21717 0)
(5.6905 -2.01082 0)
(5.60133 -1.8258 0)
(5.52912 -1.65908 0)
(5.46922 -1.50581 0)
(5.41904 -1.36591 0)
(5.37684 -1.23873 0)
(5.34088 -1.12266 0)
(5.31011 -1.01688 0)
(5.28381 -0.920945 0)
(5.26119 -0.834177 0)
(5.24162 -0.75573 0)
(5.22467 -0.684766 0)
(5.21001 -0.620519 0)
(5.19732 -0.562319 0)
(5.18633 -0.509582 0)
(5.17678 -0.461789 0)
(5.16847 -0.418476 0)
(5.16121 -0.379223 0)
(5.15487 -0.343647 0)
(5.14931 -0.311405 0)
(5.14443 -0.282185 0)
(5.14013 -0.255702 0)
(5.13635 -0.231701 0)
(5.13301 -0.209949 0)
(5.13007 -0.190235 0)
(5.12746 -0.17237 0)
(5.12514 -0.156179 0)
(5.12309 -0.141506 0)
(5.12127 -0.12821 0)
(5.11965 -0.11616 0)
(5.11821 -0.105241 0)
(5.11693 -0.0953464 0)
(5.11578 -0.0863805 0)
(5.11476 -0.0782564 0)
(5.11385 -0.0708946 0)
(5.11303 -0.064224 0)
(5.1123 -0.0581801 0)
(5.11164 -0.0527041 0)
(5.11106 -0.0477423 0)
(5.11053 -0.0432466 0)
(5.11006 -0.0391737 0)
(5.10963 -0.0354839 0)
(5.10925 -0.0321407 0)
(5.10891 -0.0291116 0)
(5.1086 -0.0263676 0)
(5.10832 -0.0238817 0)
(5.10807 -0.0216293 0)
(5.10785 -0.0195883 0)
(5.10764 -0.0177395 0)
(5.10746 -0.0160644 0)
(5.10729 -0.0145463 0)
(5.10714 -0.0131704 0)
(5.10701 -0.0119237 0)
(5.10689 -0.0107941 0)
(5.10678 -0.00976985 0)
(5.10668 -0.00884128 0)
(5.10659 -0.0079997 0)
(5.10651 -0.00723675 0)
(5.10644 -0.00654447 0)
(5.10637 -0.00591625 0)
(5.10631 -0.00534642 0)
(5.10626 -0.00482926 0)
(5.10621 -0.00435922 0)
(5.10617 -0.00393185 0)
(5.10613 -0.00354341 0)
(5.1061 -0.00318998 0)
(5.10606 -0.00286764 0)
(5.10604 -0.00257341 0)
(5.10601 -0.00230486 0)
(5.10599 -0.00205919 0)
(5.10596 -0.00183349 0)
(5.10595 -0.00162572 0)
(5.10593 -0.00143434 0)
(5.10592 -0.00125734 0)
(5.1059 -0.00109261 0)
(5.10589 -0.000938655 0)
(5.10589 -0.000794459 0)
(5.10588 -0.000658447 0)
(5.10587 -0.000528867 0)
(5.10587 -0.000404618 0)
(5.10586 -0.000284969 0)
(5.10586 -0.000168636 0)