/*--------------------------------*- C++ -*----------------------------------*\
| =========                 |                                                 |
| \\      /  F ield         | OpenFOAM: The Open Source CFD Toolbox           |
|  \\    /   O peration     | Version:  2.4.0                                 |
|   \\  /    A nd           | Web:      www.OpenFOAM.org                      |
|    \\/     M anipulation  |                                                 |
\*---------------------------------------------------------------------------*/
FoamFile
{
    version     2.0;
    format      ascii;
    class       volVectorField;
    location    "0.001";
    object      U;
}
// * * * * * * * * * * * * * * * * * * * * * * * * * * * * * * * * * * * * * //

dimensions      [0 1 -1 0 0 0 0];

internalField   nonuniform List<vector> 
4400
(
(9.94494 -1.16162 0)
(9.9413 -0.343912 0)
(9.74854 -0.12445 0)
(9.54901 -0.0463985 0)
(9.37204 -0.0145565 0)
(9.216 -0.000682816 0)
(9.07684 0.00583891 0)
(8.95334 0.00917661 0)
(8.79469 0.0169188 0)
(8.69863 0.00317341 0)
(10.012 0.219469 0)
(9.99337 0.119673 0)
(9.94621 0.069538 0)
(9.87825 0.0487059 0)
(9.80569 0.0370585 0)
(9.72961 0.0294729 0)
(9.65009 0.0249462 0)
(9.5703 0.0233004 0)
(9.45202 0.0321498 0)
(9.35263 0.150052 0)
(9.98996 0.0396565 0)
(9.9951 0.0337256 0)
(10.0067 0.0313834 0)
(10.0012 0.0325278 0)
(9.9897 0.032054 0)
(9.97111 0.0304743 0)
(9.94401 0.0296789 0)
(9.9113 0.0313383 0)
(9.84189 0.0468211 0)
(9.79129 0.148102 0)
(9.98975 0.00458304 0)
(10.001 0.0227317 0)
(10.0306 0.0281922 0)
(10.0504 0.0310719 0)
(10.0679 0.0316378 0)
(10.0804 0.03091 0)
(10.0854 0.031138 0)
(10.0855 0.0345286 0)
(10.0548 0.053797 0)
(10.0553 0.143015 0)
(9.99229 -0.00176547 0)
(10.0061 0.0191651 0)
(10.0415 0.0250645 0)
(10.0719 0.0277413 0)
(10.103 0.0286043 0)
(10.1313 0.0284142 0)
(10.1538 0.0294206 0)
(10.1736 0.0341503 0)
(10.1689 0.0554242 0)
(10.206 0.135747 0)
(9.99404 0.000749855 0)
(10.0091 0.0167182 0)
(10.0468 0.0213035 0)
(10.0822 0.0234659 0)
(10.12 0.0243634 0)
(10.1564 0.0245135 0)
(10.1884 0.0260417 0)
(10.2195 0.0317077 0)
(10.2313 0.0535558 0)
(10.2915 0.126579 0)
(9.99502 0.00144319 0)
(10.0109 0.013181 0)
(10.0496 0.0168003 0)
(10.0876 0.0185703 0)
(10.1289 0.019436 0)
(10.1695 0.0198371 0)
(10.2067 0.0217159 0)
(10.2445 0.0280249 0)
(10.267 0.049474 0)
(10.341 0.116048 0)
(9.99564 0.0011792 0)
(10.0121 0.00940914 0)
(10.0512 0.0120861 0)
(10.0906 0.0134224 0)
(10.1337 0.0141695 0)
(10.1767 0.0147424 0)
(10.2169 0.0168386 0)
(10.2587 0.0235668 0)
(10.2882 0.0439881 0)
(10.3702 0.104867 0)
(9.99603 0.000714233 0)
(10.0128 0.00563921 0)
(10.0521 0.0072919 0)
(10.0922 0.00814467 0)
(10.1363 0.00871629 0)
(10.1806 0.00940746 0)
(10.2225 0.0116265 0)
(10.2668 0.0186048 0)
(10.301 0.0376127 0)
(10.3875 0.0934277 0)
(9.99622 0.0002396 0)
(10.0132 0.00188523 0)
(10.0525 0.0024577 0)
(10.0929 0.00280022 0)
(10.1374 0.0031655 0)
(10.1823 0.00394058 0)
(10.2252 0.0062163 0)
(10.2709 0.013312 0)
(10.3083 0.030685 0)
(10.3971 0.0819355 0)
(9.99622 -0.000235979 0)
(10.0132 -0.00186709 0)
(10.0525 -0.00239132 0)
(10.0929 -0.00256781 0)
(10.1375 -0.00242143 0)
(10.1825 -0.00158296 0)
(10.2256 0.000705384 0)
(10.2719 0.00781115 0)
(10.3114 0.0234412 0)
(10.4009 0.0705151 0)
(9.99603 -0.000710748 0)
(10.0128 -0.00562154 0)
(10.0521 -0.007227 0)
(10.0922 -0.00791703 0)
(10.1364 -0.0079865 0)
(10.181 -0.00709404 0)
(10.2237 -0.00482141 0)
(10.27 0.00220414 0)
(10.3104 0.0160666 0)
(10.3995 0.0592594 0)
(9.99564 -0.00117599 0)
(10.0121 -0.00939241 0)
(10.0512 -0.0120242 0)
(10.0907 -0.0132043 0)
(10.1339 -0.0134685 0)
(10.1774 -0.0125181 0)
(10.219 -0.0102704 0)
(10.2642 -0.00340718 0)
(10.3046 0.00872905 0)
(10.3918 0.0482493 0)
(9.99502 -0.00144041 0)
(10.0109 -0.0131657 0)
(10.0496 -0.016743 0)
(10.0877 -0.0183668 0)
(10.1292 -0.0187789 0)
(10.1705 -0.0177496 0)
(10.2098 -0.0155167 0)
(10.2525 -0.00888537 0)
(10.2913 0.00161782 0)
(10.3751 0.0375804 0)
(9.99405 -0.000747683 0)
(10.0091 -0.0167049 0)
(10.0468 -0.0212524 0)
(10.0824 -0.0232822 0)
(10.1205 -0.0237666 0)
(10.1576 -0.022614 0)
(10.1924 -0.0203596 0)
(10.2303 -0.0140218 0)
(10.2649 -0.00501603 0)
(10.3427 0.0273855 0)
(9.9923 0.00176689 0)
(10.0061 -0.0191543 0)
(10.0415 -0.0250212 0)
(10.0721 -0.0275829 0)
(10.1035 -0.028085 0)
(10.1329 -0.026758 0)
(10.159 -0.0244252 0)
(10.1876 -0.0184339 0)
(10.2136 -0.0107594 0)
(10.2812 0.0179109 0)
(9.98975 -0.00458235 0)
(10.001 -0.0227236 0)
(10.0307 -0.0281581 0)
(10.0505 -0.0309438 0)
(10.0685 -0.0312139 0)
(10.0823 -0.0295562 0)
(10.0917 -0.0270205 0)
(10.103 -0.0214025 0)
(10.1124 -0.0149117 0)
(10.1631 0.00960662 0)
(9.98996 -0.0396566 0)
(9.99511 -0.0337204 0)
(10.0067 -0.0313598 0)
(10.0014 -0.0324349 0)
(9.99041 -0.0317435 0)
(9.97334 -0.0294819 0)
(9.95131 -0.0266406 0)
(9.93203 -0.0215075 0)
(9.91312 -0.0162262 0)
(9.93735 0.00327225 0)
(10.012 -0.21947 0)
(9.99339 -0.119671 0)
(9.94628 -0.0695264 0)
(9.87848 -0.0486547 0)
(9.80647 -0.0368829 0)
(9.73204 -0.028909 0)
(9.65805 -0.0232058 0)
(9.59299 -0.0175713 0)
(9.53499 -0.0131208 0)
(9.52524 -9.51286e-05 0)
(9.94494 1.16162 0)
(9.94131 0.343912 0)
(9.74861 0.124454 0)
(9.54924 0.0464213 0)
(9.37282 0.0146399 0)
(9.21838 0.000952723 0)
(9.08461 -0.00498533 0)
(8.97531 -0.00649077 0)
(8.88505 -0.00670763 0)
(8.84872 -0.000759865 0)
(7.43447 -0.300433 0)
(6.66656 -0.125085 0)
(6.41649 -0.0694356 0)
(6.30819 -0.0420338 0)
(6.29535 -0.0288874 0)
(6.35101 -0.029498 0)
(6.44676 -0.0462696 0)
(6.56655 -0.0844239 0)
(6.70325 -0.14878 0)
(6.84905 -0.242387 0)
(6.99686 -0.365802 0)
(7.13984 -0.516987 0)
(7.27118 -0.691429 0)
(7.38397 -0.881974 0)
(7.47173 -1.07925 0)
(7.52916 -1.27264 0)
(7.55273 -1.45152 0)
(7.54118 -1.60646 0)
(7.49561 -1.73028 0)
(7.41925 -1.81856 0)
(7.31693 -1.8698 0)
(7.19443 -1.88513 0)
(7.05783 -1.86775 0)
(6.913 -1.82223 0)
(6.76504 -1.75387 0)
(6.61813 -1.66806 0)
(6.47554 -1.56992 0)
(6.33939 -1.46397 0)
(6.21098 -1.35402 0)
(6.09093 -1.24312 0)
(5.9794 -1.13365 0)
(5.87625 -1.02743 0)
(5.78124 -0.925777 0)
(5.6941 -0.829719 0)
(5.61462 -0.740039 0)
(5.54263 -0.65736 0)
(5.47796 -0.582165 0)
(5.42046 -0.51477 0)
(5.36987 -0.455281 0)
(5.3259 -0.403532 0)
(5.28813 -0.359084 0)
(5.25613 -0.321257 0)
(5.22939 -0.289221 0)
(5.20742 -0.26209 0)
(5.18968 -0.239019 0)
(5.17567 -0.219251 0)
(5.1649 -0.202157 0)
(5.15691 -0.187225 0)
(5.15127 -0.174053 0)
(5.14762 -0.162325 0)
(5.14561 -0.151797 0)
(5.14495 -0.142273 0)
(5.14539 -0.133601 0)
(5.14672 -0.125651 0)
(5.14877 -0.118321 0)
(5.15137 -0.111519 0)
(5.15441 -0.105168 0)
(5.15779 -0.0991973 0)
(5.16142 -0.0935427 0)
(5.16525 -0.0881418 0)
(5.1692 -0.0829362 0)
(5.17324 -0.0778644 0)
(5.17733 -0.0728656 0)
(5.18144 -0.0678733 0)
(5.18556 -0.0628175 0)
(5.18965 -0.0576191 0)
(5.19371 -0.0521914 0)
(5.19773 -0.0464345 0)
(5.20169 -0.0402352 0)
(5.20559 -0.0334608 0)
(5.20943 -0.0259585 0)
(5.21321 -0.0175477 0)
(5.21693 -0.00801723 0)
(5.2206 0.00288487 0)
(5.22424 0.015458 0)
(5.22786 0.0300602 0)
(5.2315 0.0471172 0)
(5.2352 0.0671387 0)
(5.23902 0.0907348 0)
(5.24304 0.118639 0)
(5.24737 0.151735 0)
(5.25216 0.191092 0)
(5.2576 0.23801 0)
(5.26394 0.29408 0)
(5.27149 0.361266 0)
(5.28067 0.442019 0)
(5.29196 0.539442 0)
(5.3059 0.657543 0)
(5.323 0.801582 0)
(5.34345 0.978527 0)
(5.36658 1.1974 0)
(5.38987 1.46904 0)
(5.40777 1.80476 0)
(5.41188 2.21435 0)
(5.39133 2.70614 0)
(5.33835 3.29268 0)
(5.24359 3.99971 0)
(5.12052 4.86456 0)
(5.03131 5.89145 0)
(4.91327 7.85012 0)
(9.14181 0.117987 0)
(8.82952 0.178819 0)
(8.54215 0.126063 0)
(8.26154 0.0673821 0)
(8.0401 0.0246375 0)
(7.89711 -0.0142936 0)
(7.82885 -0.0580926 0)
(7.82028 -0.1144 0)
(7.85408 -0.190241 0)
(7.91559 -0.289983 0)
(7.99183 -0.415042 0)
(8.07126 -0.563895 0)
(8.14346 -0.73232 0)
(8.19909 -0.913535 0)
(8.23029 -1.09878 0)
(8.23129 -1.27827 0)
(8.19879 -1.44242 0)
(8.13221 -1.58287 0)
(8.03351 -1.69339 0)
(7.90677 -1.77032 0)
(7.75754 -1.81265 0)
(7.59216 -1.82169 0)
(7.41701 -1.80057 0)
(7.23803 -1.75363 0)
(7.06023 -1.68581 0)
(6.88753 -1.602 0)
(6.72277 -1.50689 0)
(6.56768 -1.40462 0)
(6.42311 -1.29864 0)
(6.28926 -1.19178 0)
(6.16587 -1.08626 0)
(6.05243 -0.98381 0)
(5.94831 -0.885742 0)
(5.85289 -0.793087 0)
(5.7656 -0.706661 0)
(5.68598 -0.627119 0)
(5.61364 -0.554963 0)
(5.54828 -0.49051 0)
(5.48959 -0.43385 0)
(5.43734 -0.384796 0)
(5.39123 -0.342885 0)
(5.35098 -0.30742 0)
(5.31627 -0.277554 0)
(5.28671 -0.252397 0)
(5.26188 -0.231095 0)
(5.24135 -0.212895 0)
(5.22464 -0.19717 0)
(5.21129 -0.18342 0)
(5.20084 -0.171255 0)
(5.19288 -0.160376 0)
(5.18703 -0.150556 0)
(5.18294 -0.141618 0)
(5.18032 -0.133425 0)
(5.17891 -0.125866 0)
(5.17849 -0.118851 0)
(5.17889 -0.112301 0)
(5.17994 -0.106151 0)
(5.18152 -0.100338 0)
(5.18353 -0.0948051 0)
(5.18588 -0.0894984 0)
(5.18849 -0.0843635 0)
(5.19132 -0.079344 0)
(5.19432 -0.0743818 0)
(5.19744 -0.0694145 0)
(5.20067 -0.0643739 0)
(5.20397 -0.0591835 0)
(5.20734 -0.0537576 0)
(5.21075 -0.047999 0)
(5.21421 -0.0417951 0)
(5.2177 -0.0350155 0)
(5.22124 -0.0275084 0)
(5.22483 -0.0190957 0)
(5.22848 -0.00956779 0)
(5.23222 0.00132358 0)
(5.23607 0.0138748 0)
(5.24007 0.0284392 0)
(5.24429 0.0454373 0)
(5.24879 0.0653716 0)
(5.25367 0.0888428 0)
(5.25905 0.116572 0)
(5.26509 0.149426 0)
(5.27201 0.188456 0)
(5.28009 0.234933 0)
(5.28967 0.290418 0)
(5.30122 0.356832 0)
(5.31532 0.436579 0)
(5.33272 0.532715 0)
(5.35433 0.64921 0)
(5.38119 0.791352 0)
(5.41432 0.966287 0)
(5.45419 1.18353 0)
(5.49982 1.45489 0)
(5.54757 1.79287 0)
(5.59134 2.20814 0)
(5.62388 2.70875 0)
(5.64421 3.30509 0)
(5.65701 4.01813 0)
(5.71053 4.86868 0)
(5.89049 5.83388 0)
(6.34946 7.03309 0)
(9.76932 0.182194 0)
(9.71848 0.231966 0)
(9.6405 0.206576 0)
(9.51208 0.158649 0)
(9.36017 0.107855 0)
(9.21798 0.0505196 0)
(9.09706 -0.0166665 0)
(9.01331 -0.0955161 0)
(8.96604 -0.189086 0)
(8.94806 -0.300635 0)
(8.94882 -0.431644 0)
(8.95675 -0.581073 0)
(8.96063 -0.745306 0)
(8.95036 -0.918335 0)
(8.91778 -1.09237 0)
(8.8572 -1.25878 0)
(8.76579 -1.40917 0)
(8.64361 -1.53634 0)
(8.49327 -1.63505 0)
(8.31939 -1.70233 0)
(8.12791 -1.7376 0)
(7.92528 -1.74227 0)
(7.71783 -1.71936 0)
(7.5112 -1.67287 0)
(7.30996 -1.60729 0)
(7.11752 -1.52703 0)
(6.93615 -1.43632 0)
(6.76709 -1.33887 0)
(6.61076 -1.23783 0)
(6.46698 -1.1358 0)
(6.33516 -1.03487 0)
(6.21449 -0.936695 0)
(6.10405 -0.84257 0)
(6.00293 -0.753547 0)
(5.91029 -0.670479 0)
(5.82539 -0.594071 0)
(5.7476 -0.524867 0)
(5.67644 -0.463222 0)
(5.6115 -0.40925 0)
(5.55253 -0.362781 0)
(5.49932 -0.323353 0)
(5.45171 -0.290263 0)
(5.40955 -0.262653 0)
(5.37265 -0.239612 0)
(5.34074 -0.220268 0)
(5.3135 -0.20385 0)
(5.29054 -0.189722 0)
(5.27143 -0.177381 0)
(5.25574 -0.166442 0)
(5.24302 -0.156617 0)
(5.23288 -0.147691 0)
(5.22493 -0.139508 0)
(5.21884 -0.131946 0)
(5.2143 -0.124911 0)
(5.21108 -0.118328 0)
(5.20894 -0.112135 0)
(5.2077 -0.106277 0)
(5.20721 -0.100703 0)
(5.20735 -0.0953655 0)
(5.20799 -0.090218 0)
(5.20906 -0.0852127 0)
(5.21049 -0.0802991 0)
(5.21221 -0.0754235 0)
(5.21419 -0.0705277 0)
(5.21638 -0.0655465 0)
(5.21875 -0.0604066 0)
(5.2213 -0.0550248 0)
(5.224 -0.0493062 0)
(5.22685 -0.0431408 0)
(5.22985 -0.0364003 0)
(5.233 -0.0289354 0)
(5.23632 -0.0205711 0)
(5.23984 -0.0111006 0)
(5.24357 -0.000280606 0)
(5.24758 0.0121806 0)
(5.25193 0.0266304 0)
(5.25668 0.043482 0)
(5.26194 0.0632282 0)
(5.26784 0.0864576 0)
(5.27455 0.113875 0)
(5.28228 0.146328 0)
(5.2913 0.184839 0)
(5.30196 0.230649 0)
(5.31472 0.285272 0)
(5.33016 0.350573 0)
(5.34904 0.428887 0)
(5.37233 0.523182 0)
(5.40128 0.637336 0)
(5.43745 0.776568 0)
(5.48263 0.948069 0)
(5.53848 1.16169 0)
(5.60568 1.42999 0)
(5.68261 1.76658 0)
(5.76558 2.18265 0)
(5.85062 2.68513 0)
(5.94246 3.28029 0)
(6.05549 3.98002 0)
(6.25717 4.78454 0)
(6.61287 5.6341 0)
(7.44574 6.27472 0)
(10.0787 0.18256 0)
(10.1055 0.224371 0)
(10.1254 0.219215 0)
(10.1151 0.188295 0)
(10.0761 0.146263 0)
(10.0219 0.0919513 0)
(9.96179 0.0227745 0)
(9.89767 -0.0628968 0)
(9.83901 -0.165096 0)
(9.78806 -0.284104 0)
(9.74247 -0.419491 0)
(9.69651 -0.569322 0)
(9.64278 -0.729852 0)
(9.57374 -0.895542 0)
(9.48304 -1.05949 0)
(9.36644 -1.21421 0)
(9.22227 -1.35249 0)
(9.05151 -1.46828 0)
(8.85741 -1.55723 0)
(8.645 -1.61705 0)
(8.42028 -1.64746 0)
(8.18952 -1.64993 0)
(7.9586 -1.62725 0)
(7.73258 -1.58302 0)
(7.51537 -1.52123 0)
(7.30975 -1.44583 0)
(7.11745 -1.36057 0)
(6.93928 -1.26881 0)
(6.7753 -1.17342 0)
(6.62509 -1.07681 0)
(6.48785 -0.980937 0)
(6.36259 -0.887405 0)
(6.24821 -0.797498 0)
(6.14361 -0.712276 0)
(6.04774 -0.632632 0)
(5.95964 -0.559318 0)
(5.87846 -0.492936 0)
(5.80351 -0.4339 0)
(5.73424 -0.382379 0)
(5.67029 -0.338255 0)
(5.61146 -0.301105 0)
(5.55769 -0.270248 0)
(5.50896 -0.244824 0)
(5.46526 -0.223909 0)
(5.42652 -0.2066 0)
(5.39259 -0.192096 0)
(5.36321 -0.179733 0)
(5.33806 -0.16899 0)
(5.31674 -0.159474 0)
(5.29885 -0.150895 0)
(5.28397 -0.14305 0)
(5.27172 -0.135793 0)
(5.26172 -0.129019 0)
(5.25365 -0.12265 0)
(5.24722 -0.116627 0)
(5.24218 -0.110904 0)
(5.23832 -0.10544 0)
(5.23545 -0.100195 0)
(5.23341 -0.0951334 0)
(5.23209 -0.0902179 0)
(5.23137 -0.0854084 0)
(5.23117 -0.080661 0)
(5.23141 -0.0759278 0)
(5.23204 -0.0711555 0)
(5.23302 -0.0662833 0)
(5.23431 -0.0612412 0)
(5.23589 -0.0559499 0)
(5.23774 -0.0503175 0)
(5.23985 -0.0442371 0)
(5.24223 -0.0375837 0)
(5.24489 -0.0302114 0)
(5.24785 -0.0219489 0)
(5.25114 -0.012594 0)
(5.2548 -0.00190881 0)
(5.2589 0.0103919 0)
(5.26351 0.0246477 0)
(5.26874 0.0412627 0)
(5.27472 0.0607181 0)
(5.2816 0.0835872 0)
(5.28959 0.110556 0)
(5.29896 0.142448 0)
(5.31003 0.180253 0)
(5.32323 0.225172 0)
(5.33911 0.278665 0)
(5.35835 0.34253 0)
(5.38187 0.419006 0)
(5.41085 0.510944 0)
(5.44682 0.622071 0)
(5.49181 0.757445 0)
(5.54834 0.924154 0)
(5.61924 1.13218 0)
(5.70689 1.39467 0)
(5.81184 1.72615 0)
(5.93274 2.1382 0)
(6.06838 2.63605 0)
(6.22752 3.22081 0)
(6.43 3.89361 0)
(6.75157 4.6364 0)
(7.23752 5.3594 0)
(8.26609 5.68927 0)
(10.2462 0.170441 0)
(10.294 0.204091 0)
(10.3431 0.205522 0)
(10.3798 0.183215 0)
(10.4 0.147891 0)
(10.4074 0.0992758 0)
(10.4044 0.0351283 0)
(10.3888 -0.0462882 0)
(10.3607 -0.145634 0)
(10.3208 -0.26239 0)
(10.2686 -0.394974 0)
(10.202 -0.540465 0)
(10.1178 -0.694574 0)
(10.0124 -0.851763 0)
(9.88275 -1.00562 0)
(9.72716 -1.14948 0)
(9.54597 -1.2771 0)
(9.34151 -1.38335 0)
(9.11788 -1.46465 0)
(8.88041 -1.51917 0)
(8.63501 -1.54684 0)
(8.38755 -1.54903 0)
(8.14327 -1.52822 0)
(7.90657 -1.48759 0)
(7.68075 -1.43065 0)
(7.46808 -1.36091 0)
(7.26989 -1.28173 0)
(7.08675 -1.19615 0)
(6.91854 -1.10681 0)
(6.76474 -1.01594 0)
(6.62448 -0.925423 0)
(6.4967 -0.836776 0)
(6.38024 -0.751269 0)
(6.2739 -0.669972 0)
(6.17651 -0.593799 0)
(6.08693 -0.523545 0)
(6.00414 -0.459864 0)
(5.92724 -0.403235 0)
(5.8555 -0.353905 0)
(5.7884 -0.311836 0)
(5.72568 -0.276677 0)
(5.66725 -0.2478 0)
(5.61318 -0.224375 0)
(5.56362 -0.205472 0)
(5.51868 -0.190166 0)
(5.4784 -0.177616 0)
(5.44271 -0.167114 0)
(5.41141 -0.158107 0)
(5.38424 -0.150175 0)
(5.36085 -0.143019 0)
(5.34086 -0.136431 0)
(5.32389 -0.130272 0)
(5.30957 -0.124448 0)
(5.29755 -0.118895 0)
(5.28752 -0.11357 0)
(5.27919 -0.108441 0)
(5.27234 -0.103483 0)
(5.26674 -0.0986688 0)
(5.26222 -0.093975 0)
(5.25863 -0.0893743 0)
(5.25584 -0.084836 0)
(5.25375 -0.0803238 0)
(5.25227 -0.0757968 0)
(5.25134 -0.0712074 0)
(5.2509 -0.0665 0)
(5.25091 -0.0616096 0)
(5.25134 -0.0564607 0)
(5.25217 -0.0509658 0)
(5.2534 -0.045022 0)
(5.25502 -0.0385082 0)
(5.25706 -0.0312831 0)
(5.25953 -0.0231802 0)
(5.26248 -0.0140026 0)
(5.26596 -0.003519 0)
(5.27005 0.0085473 0)
(5.27484 0.0225265 0)
(5.28047 0.0388119 0)
(5.28708 0.0578708 0)
(5.29487 0.0802592 0)
(5.30409 0.106641 0)
(5.31503 0.13781 0)
(5.32811 0.174723 0)
(5.34379 0.218532 0)
(5.36272 0.270637 0)
(5.38568 0.332753 0)
(5.41372 0.407013 0)
(5.44819 0.496118 0)
(5.49089 0.603597 0)
(5.54422 0.734257 0)
(5.61135 0.894936 0)
(5.69622 1.09553 0)
(5.80292 1.34953 0)
(5.93424 1.67229 0)
(6.09114 2.0757 0)
(6.27448 2.56316 0)
(6.49534 3.13026 0)
(6.77545 3.76734 0)
(7.19092 4.44157 0)
(7.77198 5.03921 0)
(8.8715 5.1681 0)
(10.3396 0.155952 0)
(10.3921 0.181933 0)
(10.4464 0.184301 0)
(10.4964 0.166162 0)
(10.5373 0.134716 0)
(10.5694 0.0901569 0)
(10.5922 0.0308266 0)
(10.6031 -0.0446933 0)
(10.5986 -0.137259 0)
(10.5762 -0.246541 0)
(10.5333 -0.370887 0)
(10.4673 -0.507254 0)
(10.3761 -0.651305 0)
(10.2579 -0.79767 0)
(10.112 -0.940358 0)
(9.93881 -1.07332 0)
(9.74055 -1.19102 0)
(9.52075 -1.28898 0)
(9.28422 -1.36412 0)
(9.03646 -1.41489 0)
(8.78322 -1.44122 0)
(8.5299 -1.44429 0)
(8.28129 -1.42626 0)
(8.04127 -1.38987 0)
(7.81278 -1.33822 0)
(7.59784 -1.27443 0)
(7.39762 -1.20154 0)
(7.2126 -1.12231 0)
(7.04268 -1.03917 0)
(6.88734 -0.954201 0)
(6.74576 -0.869174 0)
(6.61692 -0.785556 0)
(6.49968 -0.704583 0)
(6.39284 -0.627313 0)
(6.29516 -0.554672 0)
(6.20542 -0.487474 0)
(6.12247 -0.426415 0)
(6.04521 -0.372033 0)
(5.97273 -0.324655 0)
(5.90431 -0.284336 0)
(5.83951 -0.25083 0)
(5.77816 -0.223595 0)
(5.72032 -0.201864 0)
(5.6662 -0.184733 0)
(5.61607 -0.171265 0)
(5.57015 -0.160585 0)
(5.52857 -0.151939 0)
(5.49133 -0.144722 0)
(5.45829 -0.138477 0)
(5.42924 -0.132875 0)
(5.40387 -0.127694 0)
(5.38185 -0.122788 0)
(5.36282 -0.118069 0)
(5.34645 -0.113481 0)
(5.33241 -0.108995 0)
(5.32041 -0.104591 0)
(5.31018 -0.100259 0)
(5.30148 -0.0959858 0)
(5.29413 -0.0917599 0)
(5.28794 -0.0875655 0)
(5.28278 -0.0833818 0)
(5.27852 -0.0791817 0)
(5.27505 -0.0749318 0)
(5.2723 -0.0705916 0)
(5.27021 -0.0661116 0)
(5.26872 -0.0614321 0)
(5.2678 -0.0564833 0)
(5.26742 -0.0511823 0)
(5.26758 -0.0454312 0)
(5.26827 -0.0391141 0)
(5.26952 -0.0320949 0)
(5.27136 -0.024213 0)
(5.27383 -0.0152784 0)
(5.277 -0.00506702 0)
(5.28096 0.00668758 0)
(5.28582 0.0203042 0)
(5.29174 0.0361639 0)
(5.29889 0.0547178 0)
(5.3075 0.0765019 0)
(5.31785 0.102155 0)
(5.33031 0.13244 0)
(5.3453 0.168272 0)
(5.3634 0.210753 0)
(5.3853 0.261214 0)
(5.41189 0.321282 0)
(5.44433 0.392966 0)
(5.48412 0.478797 0)
(5.53326 0.582066 0)
(5.59447 0.707255 0)
(5.67145 0.860804 0)
(5.76909 1.05228 0)
(5.89317 1.29527 0)
(6.04878 1.60581 0)
(6.23916 1.99628 0)
(6.46668 2.46836 0)
(6.74305 3.01238 0)
(7.08921 3.60879 0)
(7.57578 4.21326 0)
(8.22005 4.69603 0)
(9.31453 4.68704 0)
(10.3927 0.140411 0)
(10.4451 0.160059 0)
(10.4975 0.161801 0)
(10.549 0.146145 0)
(10.5948 0.117497 0)
(10.6333 0.07621 0)
(10.6634 0.0211321 0)
(10.6822 -0.0488157 0)
(10.6861 -0.134313 0)
(10.6714 -0.235063 0)
(10.6346 -0.34953 0)
(10.5725 -0.474892 0)
(10.4827 -0.60715 0)
(10.3639 -0.741385 0)
(10.216 -0.872168 0)
(10.0405 -0.994061 0)
(9.84005 -1.10213 0)
(9.61889 -1.19238 0)
(9.38199 -1.26204 0)
(9.1348 -1.30968 0)
(8.8828 -1.33516 0)
(8.63111 -1.33942 0)
(8.38417 -1.32429 0)
(8.14566 -1.29216 0)
(7.91835 -1.24575 0)
(7.70419 -1.18784 0)
(7.50436 -1.12115 0)
(7.3194 -1.04821 0)
(7.1493 -0.971232 0)
(6.99366 -0.892174 0)
(6.85177 -0.812689 0)
(6.72272 -0.734179 0)
(6.60546 -0.657837 0)
(6.49885 -0.584697 0)
(6.40167 -0.515673 0)
(6.31267 -0.451582 0)
(6.23062 -0.393138 0)
(6.15428 -0.34092 0)
(6.08256 -0.295324 0)
(6.01453 -0.256504 0)
(5.94951 -0.224325 0)
(5.88715 -0.198365 0)
(5.82739 -0.177954 0)
(5.77041 -0.162248 0)
(5.71653 -0.150334 0)
(5.66612 -0.141317 0)
(5.6195 -0.134401 0)
(5.57686 -0.128928 0)
(5.53826 -0.124388 0)
(5.50364 -0.120408 0)
(5.47282 -0.116736 0)
(5.44555 -0.113209 0)
(5.42155 -0.109731 0)
(5.4005 -0.106248 0)
(5.3821 -0.102737 0)
(5.36604 -0.0991907 0)
(5.35205 -0.0956089 0)
(5.3399 -0.0919926 0)
(5.32935 -0.088342 0)
(5.32023 -0.084653 0)
(5.31236 -0.0809156 0)
(5.30561 -0.0771121 0)
(5.29987 -0.0732179 0)
(5.29503 -0.0692002 0)
(5.29102 -0.0650165 0)
(5.28778 -0.0606138 0)
(5.28528 -0.0559282 0)
(5.28347 -0.0508829 0)
(5.28235 -0.0453857 0)
(5.28192 -0.0393268 0)
(5.28221 -0.0325767 0)
(5.28323 -0.0249816 0)
(5.28506 -0.0163593 0)
(5.28777 -0.00649446 0)
(5.29145 0.00486754 0)
(5.29624 0.0180325 0)
(5.30231 0.0333671 0)
(5.30987 0.0513044 0)
(5.31919 0.0723577 0)
(5.33057 0.097138 0)
(5.34442 0.126374 0)
(5.36124 0.160937 0)
(5.38166 0.201871 0)
(5.40643 0.250437 0)
(5.43655 0.308163 0)
(5.47327 0.376927 0)
(5.51821 0.459075 0)
(5.57353 0.557633 0)
(5.64218 0.676695 0)
(5.72826 0.822177 0)
(5.83744 1.00308 0)
(5.977 1.23276 0)
(6.15441 1.5278 0)
(6.37527 1.90128 0)
(6.64304 2.35374 0)
(6.96872 2.87085 0)
(7.37033 3.42461 0)
(7.90937 3.96231 0)
(8.59079 4.34725 0)
(9.64054 4.24933 0)
(10.4234 0.12478 0)
(10.474 0.139434 0)
(10.5229 0.140154 0)
(10.5722 0.126145 0)
(10.6174 0.0998665 0)
(10.656 0.061639 0)
(10.6863 0.0106603 0)
(10.7055 -0.0538943 0)
(10.7103 -0.132495 0)
(10.6969 -0.224791 0)
(10.6617 -0.32935 0)
(10.6015 -0.44361 0)
(10.514 -0.563977 0)
(10.3978 -0.686063 0)
(10.2531 -0.805037 0)
(10.0813 -0.91607 0)
(9.88544 -1.01477 0)
(9.66947 -1.09757 0)
(9.43819 -1.16194 0)
(9.19679 -1.20652 0)
(8.95045 -1.23107 0)
(8.704 -1.23635 0)
(8.46168 -1.22388 0)
(8.22702 -1.19571 0)
(8.00275 -1.15423 0)
(7.79083 -1.10191 0)
(7.59253 -1.04118 0)
(7.40849 -0.974327 0)
(7.23886 -0.90339 0)
(7.0834 -0.83017 0)
(6.94155 -0.756217 0)
(6.81257 -0.682859 0)
(6.69553 -0.611234 0)
(6.5894 -0.542339 0)
(6.49305 -0.477058 0)
(6.40526 -0.41619 0)
(6.32476 -0.360442 0)
(6.25026 -0.31041 0)
(6.18051 -0.266537 0)
(6.11435 -0.229058 0)
(6.05089 -0.197953 0)
(5.9895 -0.172929 0)
(5.92989 -0.153444 0)
(5.87209 -0.138755 0)
(5.81637 -0.128007 0)
(5.76315 -0.120324 0)
(5.71285 -0.114884 0)
(5.66587 -0.110984 0)
(5.62245 -0.108057 0)
(5.58274 -0.105677 0)
(5.54671 -0.103546 0)
(5.51426 -0.10147 0)
(5.4852 -0.0993314 0)
(5.4593 -0.0970679 0)
(5.43628 -0.094655 0)
(5.41587 -0.0920899 0)
(5.39781 -0.0893805 0)
(5.38185 -0.0865382 0)
(5.36778 -0.0835741 0)
(5.35538 -0.0804951 0)
(5.34448 -0.0773014 0)
(5.33493 -0.0739856 0)
(5.3266 -0.0705322 0)
(5.31938 -0.0669168 0)
(5.31319 -0.0631047 0)
(5.30794 -0.0590503 0)
(5.3036 -0.0546968 0)
(5.30013 -0.0499741 0)
(5.2975 -0.0447968 0)
(5.29574 -0.0390624 0)
(5.29484 -0.0326487 0)
(5.29487 -0.0254099 0)
(5.29586 -0.017173 0)
(5.29792 -0.00773276 0)
(5.30115 0.0031524 0)
(5.30571 0.0157734 0)
(5.31178 0.0304807 0)
(5.3196 0.0476869 0)
(5.32947 0.0678801 0)
(5.34174 0.0916408 0)
(5.35686 0.11966 0)
(5.37538 0.152761 0)
(5.39798 0.19193 0)
(5.42551 0.238348 0)
(5.45904 0.293444 0)
(5.4999 0.358957 0)
(5.54981 0.43704 0)
(5.61108 0.530435 0)
(5.68677 0.642815 0)
(5.78126 0.77947 0)
(5.90074 0.948609 0)
(6.05377 1.163 0)
(6.25012 1.43949 0)
(6.498 1.79224 0)
(6.80185 2.22142 0)
(7.17092 2.70906 0)
(7.61887 3.22033 0)
(8.19616 3.69699 0)
(8.89592 4.00309 0)
(9.88508 3.85291 0)
(10.4409 0.109474 0)
(10.4892 0.120179 0)
(10.5345 0.11986 0)
(10.5808 0.10705 0)
(10.6237 0.0829316 0)
(10.6603 0.0477 0)
(10.6886 0.000773548 0)
(10.7059 -0.0584712 0)
(10.7091 -0.130333 0)
(10.6946 -0.214414 0)
(10.659 -0.309375 0)
(10.5994 -0.412919 0)
(10.5136 -0.521839 0)
(10.4003 -0.632256 0)
(10.2597 -0.7399 0)
(10.0932 -0.840512 0)
(9.90363 -0.930194 0)
(9.6946 -1.00575 0)
(9.4706 -1.06489 0)
(9.23644 -1.10632 0)
(8.99698 -1.12975 0)
(8.75675 -1.13573 0)
(8.5198 -1.12553 0)
(8.28956 -1.10093 0)
(8.06872 -1.06399 0)
(7.85929 -1.01689 0)
(7.66261 -0.961806 0)
(7.47949 -0.90079 0)
(7.31022 -0.83571 0)
(7.15476 -0.76822 0)
(7.01274 -0.699765 0)
(6.88358 -0.631591 0)
(6.76653 -0.564776 0)
(6.66069 -0.500265 0)
(6.56506 -0.438901 0)
(6.4785 -0.381441 0)
(6.39978 -0.328566 0)
(6.32759 -0.280863 0)
(6.26059 -0.23879 0)
(6.19748 -0.202636 0)
(6.13712 -0.172476 0)
(6.07858 -0.148146 0)
(6.02129 -0.129241 0)
(5.96499 -0.115154 0)
(5.90977 -0.105129 0)
(5.85594 -0.0983493 0)
(5.80397 -0.0940073 0)
(5.75433 -0.0913749 0)
(5.70746 -0.0898386 0)
(5.66368 -0.0889178 0)
(5.62318 -0.08826 0)
(5.58602 -0.0876251 0)
(5.55217 -0.0868617 0)
(5.5215 -0.0858859 0)
(5.49383 -0.0846606 0)
(5.46894 -0.0831789 0)
(5.44662 -0.0814502 0)
(5.42663 -0.0794917 0)
(5.40876 -0.0773222 0)
(5.39281 -0.0749575 0)
(5.3786 -0.0724074 0)
(5.36596 -0.0696739 0)
(5.35476 -0.0667508 0)
(5.34488 -0.0636222 0)
(5.33622 -0.0602618 0)
(5.3287 -0.0566323 0)
(5.32227 -0.0526844 0)
(5.31688 -0.0483557 0)
(5.31253 -0.0435687 0)
(5.30919 -0.038229 0)
(5.3069 -0.0322227 0)
(5.3057 -0.0254135 0)
(5.30566 -0.0176385 0)
(5.30687 -0.00870394 0)
(5.30947 0.00161721 0)
(5.3136 0.0135996 0)
(5.31949 0.0275749 0)
(5.3274 0.043933 0)
(5.33765 0.0631344 0)
(5.35064 0.0857261 0)
(5.36686 0.112358 0)
(5.38693 0.143804 0)
(5.41157 0.180986 0)
(5.44171 0.225005 0)
(5.47849 0.277184 0)
(5.52334 0.339122 0)
(5.57806 0.412775 0)
(5.64502 0.500601 0)
(5.72742 0.605831 0)
(5.8297 0.733073 0)
(5.95834 0.889555 0)
(6.12277 1.08705 0)
(6.33492 1.34232 0)
(6.6059 1.67082 0)
(6.94142 2.07346 0)
(7.34844 2.52992 0)
(7.83528 3.00023 0)
(8.44066 3.42306 0)
(9.14686 3.66826 0)
(10.0738 3.49194 0)
(10.4498 0.0946554 0)
(10.4958 0.102197 0)
(10.5378 0.100953 0)
(10.5809 0.0891052 0)
(10.6211 0.0670188 0)
(10.6552 0.0347511 0)
(10.6809 -0.00815051 0)
(10.6958 -0.0621582 0)
(10.6967 -0.12744 0)
(10.6804 -0.203563 0)
(10.6439 -0.289298 0)
(10.5843 -0.382586 0)
(10.4996 -0.480591 0)
(10.3888 -0.579899 0)
(10.2521 -0.676756 0)
(10.0907 -0.767415 0)
(9.90706 -0.84843 0)
(9.70468 -0.916955 0)
(9.48762 -0.97091 0)
(9.26031 -1.00909 0)
(9.02727 -1.03114 0)
(8.79277 -1.03749 0)
(8.56066 -1.02918 0)
(8.33425 -1.00772 0)
(8.11622 -0.974896 0)
(7.90861 -0.932633 0)
(7.71287 -0.882858 0)
(7.52996 -0.827414 0)
(7.36035 -0.767996 0)
(7.20417 -0.706124 0)
(7.06126 -0.643131 0)
(6.93124 -0.580181 0)
(6.81352 -0.518284 0)
(6.70739 -0.458326 0)
(6.61196 -0.401094 0)
(6.52623 -0.347295 0)
(6.44905 -0.297562 0)
(6.37916 -0.252447 0)
(6.3152 -0.212396 0)
(6.25579 -0.17772 0)
(6.19961 -0.148554 0)
(6.14549 -0.124836 0)
(6.09252 -0.106296 0)
(6.04009 -0.0924716 0)
(5.98798 -0.0827416 0)
(5.93625 -0.0763913 0)
(5.88522 -0.0726735 0)
(5.83536 -0.0708765 0)
(5.78717 -0.070367 0)
(5.74112 -0.0706228 0)
(5.69759 -0.0712383 0)
(5.65684 -0.0719214 0)
(5.61902 -0.0724744 0)
(5.58416 -0.0727787 0)
(5.5522 -0.072772 0)
(5.52304 -0.0724322 0)
(5.49652 -0.0717607 0)
(5.47248 -0.0707736 0)
(5.45073 -0.069492 0)
(5.43108 -0.067937 0)
(5.41337 -0.0661249 0)
(5.39745 -0.0640661 0)
(5.38317 -0.0617622 0)
(5.3704 -0.0592061 0)
(5.35905 -0.0563796 0)
(5.34904 -0.0532539 0)
(5.34029 -0.0497879 0)
(5.33276 -0.0459276 0)
(5.32644 -0.0416041 0)
(5.32132 -0.036732 0)
(5.31742 -0.031207 0)
(5.31479 -0.0249032 0)
(5.3135 -0.0176692 0)
(5.31366 -0.009324 0)
(5.31542 0.000343853 0)
(5.31893 0.011591 0)
(5.32444 0.0247281 0)
(5.33224 0.0401195 0)
(5.34269 0.0581956 0)
(5.35621 0.0794672 0)
(5.37336 0.104541 0)
(5.39479 0.134135 0)
(5.4213 0.169107 0)
(5.45388 0.210474 0)
(5.49374 0.25945 0)
(5.54239 0.317493 0)
(5.60173 0.386366 0)
(5.67418 0.468244 0)
(5.76295 0.565928 0)
(5.87251 0.683325 0)
(6.00934 0.826563 0)
(6.18325 1.00604 0)
(6.40787 1.23787 0)
(6.69754 1.53886 0)
(7.06001 1.91189 0)
(7.49998 2.33591 0)
(8.01984 2.76746 0)
(8.64663 3.14401 0)
(9.35318 3.344 0)
(10.2238 3.16011 0)
(10.4524 0.0803861 0)
(10.4962 0.0853623 0)
(10.5352 0.083352 0)
(10.5753 0.07235 0)
(10.6126 0.0522094 0)
(10.644 0.0228773 0)
(10.6671 -0.0160317 0)
(10.6793 -0.0648723 0)
(10.6779 -0.123727 0)
(10.6597 -0.192142 0)
(10.6218 -0.269005 0)
(10.5619 -0.352476 0)
(10.4779 -0.440073 0)
(10.3691 -0.52879 0)
(10.2354 -0.615358 0)
(10.0782 -0.696481 0)
(9.89956 -0.769138 0)
(9.70271 -0.830793 0)
(9.49135 -0.879583 0)
(9.2696 -0.914384 0)
(9.04165 -0.934822 0)
(8.81151 -0.9412 0)
(8.58287 -0.934379 0)
(8.35894 -0.915637 0)
(8.14238 -0.88652 0)
(7.93528 -0.848711 0)
(7.73922 -0.803916 0)
(7.55528 -0.753786 0)
(7.38414 -0.699849 0)
(7.22612 -0.643493 0)
(7.08125 -0.585943 0)
(6.94935 -0.528276 0)
(6.83001 -0.471426 0)
(6.72267 -0.416216 0)
(6.62661 -0.363368 0)
(6.54095 -0.313531 0)
(6.46465 -0.267276 0)
(6.39655 -0.225108 0)
(6.33534 -0.187432 0)
(6.27963 -0.15455 0)
(6.22803 -0.12662 0)
(6.1792 -0.103648 0)
(6.13196 -0.0854648 0)
(6.08538 -0.0717424 0)
(6.03885 -0.0620006 0)
(5.99206 -0.0556602 0)
(5.94504 -0.052076 0)
(5.89805 -0.0506048 0)
(5.8515 -0.0506361 0)
(5.80591 -0.0516409 0)
(5.76174 -0.0531773 0)
(5.71943 -0.0549088 0)
(5.6793 -0.056587 0)
(5.64158 -0.0580509 0)
(5.60637 -0.0591993 0)
(5.57371 -0.0599842 0)
(5.54357 -0.0603867 0)
(5.51587 -0.0604133 0)
(5.49049 -0.0600781 0)
(5.4673 -0.0594025 0)
(5.44617 -0.0584042 0)
(5.42696 -0.0570992 0)
(5.40955 -0.0554943 0)
(5.39381 -0.0535901 0)
(5.37966 -0.0513752 0)
(5.36701 -0.0488298 0)
(5.3558 -0.0459204 0)
(5.34598 -0.0426024 0)
(5.33753 -0.0388153 0)
(5.33044 -0.0344843 0)
(5.32475 -0.0295149 0)
(5.32051 -0.0237932 0)
(5.31779 -0.0171799 0)
(5.31671 -0.009509 0)
(5.31744 -0.000584493 0)
(5.32014 0.00983048 0)
(5.32509 0.0220227 0)
(5.33259 0.036328 0)
(5.34303 0.0531447 0)
(5.3569 0.0729439 0)
(5.37478 0.0962856 0)
(5.39739 0.123832 0)
(5.42557 0.15637 0)
(5.46041 0.19483 0)
(5.50317 0.240318 0)
(5.55545 0.29415 0)
(5.6192 0.357899 0)
(5.69691 0.433472 0)
(5.7918 0.523261 0)
(5.90823 0.630504 0)
(6.05248 0.760191 0)
(6.23424 0.921053 0)
(6.4681 1.12785 0)
(6.7716 1.39841 0)
(7.15579 1.73875 0)
(7.62388 2.1291 0)
(8.17227 2.52418 0)
(8.81664 2.86159 0)
(9.52185 3.02945 0)
(10.3461 2.85143 0)
(10.4493 0.0667031 0)
(10.491 0.0695775 0)
(10.5273 0.0669695 0)
(10.5643 0.0567736 0)
(10.5988 0.0385311 0)
(10.6274 0.0121079 0)
(10.6477 -0.0228358 0)
(10.6572 -0.0665803 0)
(10.6532 -0.119141 0)
(10.6329 -0.180073 0)
(10.5935 -0.248372 0)
(10.5327 -0.322416 0)
(10.4489 -0.400032 0)
(10.3411 -0.478608 0)
(10.2095 -0.555295 0)
(10.0551 -0.627225 0)
(9.88006 -0.691753 0)
(9.68708 -0.746646 0)
(9.47965 -0.790242 0)
(9.26157 -0.821511 0)
(9.03676 -0.840075 0)
(8.80903 -0.846144 0)
(8.58192 -0.840424 0)
(8.35855 -0.823995 0)
(8.1416 -0.798193 0)
(7.93325 -0.764484 0)
(7.73518 -0.724372 0)
(7.54864 -0.679327 0)
(7.37451 -0.630723 0)
(7.21329 -0.579815 0)
(7.06521 -0.527719 0)
(6.93025 -0.475419 0)
(6.80819 -0.423771 0)
(6.69862 -0.373526 0)
(6.60093 -0.325337 0)
(6.51438 -0.279788 0)
(6.43805 -0.237385 0)
(6.37087 -0.198571 0)
(6.31161 -0.163704 0)
(6.25896 -0.133053 0)
(6.21153 -0.106768 0)
(6.16792 -0.0848847 0)
(6.12682 -0.067296 0)