/*--------------------------------*- C++ -*----------------------------------*\
| =========                 |                                                 |
| \\      /  F ield         | OpenFOAM: The Open Source CFD Toolbox           |
|  \\    /   O peration     | Version:  2.4.0                                 |
|   \\  /    A nd           | Web:      www.OpenFOAM.org                      |
|    \\/     M anipulation  |                                                 |
\*---------------------------------------------------------------------------*/
FoamFile
{
    version     2.0;
    format      ascii;
    class       volScalarField;
    location    "0.047";
    object      epsilon;
}
// * * * * * * * * * * * * * * * * * * * * * * * * * * * * * * * * * * * * * //

dimensions      [0 2 -3 0 0 0 0];

internalField   nonuniform List<scalar> 
17600
(
290.779
447.673
583.297
681.437
740.841
768.08
772.005
760.738
740.586
715.998
689.914
664.176
639.879
617.628
597.71
580.206
565.064
552.148
541.09
533.656
39.5489
60.6407
78.3965
92.3358
102.281
108.918
113.256
116.234
118.59
120.844
123.336
126.262
129.711
133.687
138.132
142.935
147.955
153.042
158.243
164.247
18.0559
21.7883
25.1119
27.7892
29.7361
31.0342
31.8556
32.3923
32.819
33.2793
33.8838
34.7142
35.8287
37.266
39.0487
41.1838
43.665
46.477
49.6601
53.557
14.7345
15.1157
15.6206
16.0697
16.3751
16.5162
16.5138
16.4078
16.2435
16.0646
15.9097
15.8113
15.7963
15.8866
16.1006
16.4533
16.9579
17.6277
18.4955
19.6537
14.0476
13.5192
13.1673
12.9029
12.6639
12.4158
12.1455
11.8534
11.5469
11.2367
10.9344
10.6512
10.3969
10.1804
10.0089
9.88926
9.82727
9.82933
9.90723
10.0793
13.8917
13.0886
12.4266
11.871
11.3882
10.9523
10.546
10.1595
9.7883
9.43134
9.08962
8.76518
8.46051
8.17811
7.92041
7.68957
7.48763
7.31675
7.18049
7.08206
13.8556
12.9703
12.1959
11.5177
10.9188
10.383
9.89683
9.44995
9.03502
8.64707
8.28297
7.94085
7.61967
7.31896
7.03855
6.77846
6.53883
6.31996
6.12261
5.94709
13.8471
12.9381
12.1251
11.3979
10.7463
10.1596
9.62814
9.14338
8.6983
8.28727
7.90588
7.55078
7.2194
6.9098
6.62049
6.35033
6.09843
5.86413
5.64705
5.4468
13.845
12.9294
12.1037
11.3584
10.6846
10.074
9.51901
9.01257
8.54859
8.12177
7.72764
7.36246
7.02315
6.70716
6.41237
6.13705
5.87976
5.6393
5.41474
5.20546
13.8445
12.9269
12.0973
11.3456
10.6631
10.0423
9.47608
8.95842
8.4838
8.04736
7.64487
7.27263
6.92748
6.60668
6.30789
6.02912
5.76866
5.52503
5.29701
5.0839
13.8443
12.9262
12.0953
11.3414
10.6557
10.0307
9.45967
8.93672
8.45667
8.01498
7.60758
7.23094
6.88193
6.55782
6.25623
5.97505
5.71247
5.4669
5.23698
5.02196
13.8443
12.9259
12.0946
11.3399
10.6531
10.0265
9.45346
8.92818
8.44561
8.00129
7.5913
7.21219
6.86091
6.53475
6.23135
5.94859
5.68464
5.43784
5.20678
4.99071
13.8442
12.9257
12.0942
11.3393
10.6521
10.0249
9.45103
8.92479
8.4411
7.99558
7.58433
7.20396
6.85146
6.52416
6.21971
5.93602
5.67122
5.42368
5.19196
4.97528
13.8442
12.9256
12.094
11.3389
10.6515
10.0241
9.44996
8.92334
8.43919
7.99314
7.58133
7.20036
6.84726
6.51939
6.21439
5.93019
5.66493
5.41698
5.18489
4.96789
13.8441
12.9255
12.0938
11.3387
10.6512
10.0237
9.44941
8.92262
8.43829
7.99202
7.57996
7.19873
6.84537
6.51722
6.21195
5.92751
5.66203
5.41387
5.18159
4.96443
13.8441
12.9254
12.0937
11.3385
10.651
10.0234
9.44905
8.9222
8.43779
7.99142
7.57926
7.19793
6.84445
6.51618
6.2108
5.92625
5.66067
5.41242
5.18007
4.96284
13.8441
12.9254
12.0936
11.3384
10.6508
10.0232
9.44881
8.92192
8.43747
7.99106
7.57886
7.19748
6.84395
6.51564
6.21022
5.92562
5.66
5.41173
5.17934
4.96209
13.8441
12.9253
12.0935
11.3383
10.6507
10.023
9.44864
8.92172
8.43725
7.99083
7.57861
7.19721
6.84366
6.51533
6.20989
5.92528
5.65966
5.41137
5.17898
4.96171
13.8441
12.9253
12.0935
11.3382
10.6506
10.0229
9.44852
8.9216
8.43712
7.99068
7.57845
7.19705
6.84349
6.51515
6.20971
5.9251
5.65947
5.41118
5.17879
4.96152
13.8441
12.9253
12.0934
11.3382
10.6506
10.0229
9.44847
8.92154
8.43705
7.99061
7.57838
7.19697
6.84341
6.51507
6.20963
5.92501
5.65938
5.41109
5.1787
4.96142
13.8441
12.9253
12.0934
11.3382
10.6506
10.0229
9.44847
8.92154
8.43705
7.99061
7.57838
7.19697
6.84341
6.51507
6.20963
5.92501
5.65938
5.41109
5.17868
4.96139
13.8441
12.9253
12.0935
11.3382
10.6506
10.0229
9.44852
8.9216
8.43712
7.99068
7.57845
7.19705
6.84349
6.51515
6.20971
5.92509
5.65946
5.41117
5.17875
4.96144
13.8441
12.9253
12.0935
11.3383
10.6507
10.023
9.44864
8.92172
8.43725
7.99083
7.57861
7.19721
6.84366
6.51533
6.20989
5.92528
5.65964
5.41135
5.17892
4.96159
13.8441
12.9254
12.0936
11.3384
10.6508
10.0232
9.44881
8.92192
8.43747
7.99106
7.57886
7.19748
6.84395
6.51564
6.21021
5.92561
5.65999
5.41169
5.17926
4.96192
13.8441
12.9254
12.0937
11.3385
10.651
10.0234
9.44905
8.9222
8.43778
7.99142
7.57926
7.19793
6.84444
6.51618
6.2108
5.92624
5.66065
5.41238
5.17997
4.96263
13.8441
12.9255
12.0938
11.3387
10.6512
10.0237
9.44941
8.92262
8.43829
7.99202
7.57996
7.19873
6.84536
6.51721
6.21195
5.9275
5.66201
5.41382
5.18148
4.96419
13.8442
12.9256
12.094
11.3389
10.6515
10.0241
9.44996
8.92334
8.43919
7.99314
7.58133
7.20036
6.84726
6.51938
6.21438
5.93017
5.66491
5.41693
5.18477
4.96763
13.8442
12.9257
12.0942
11.3393
10.6521
10.0249
9.45103
8.92479
8.4411
7.99558
7.58433
7.20396
6.85146
6.52416
6.21971
5.93601
5.6712
5.42364
5.19184
4.97502
13.8443
12.9259
12.0946
11.3399
10.6531
10.0265
9.45346
8.92818
8.44561
8.00129
7.5913
7.21219
6.8609
6.53475
6.23134
5.94859
5.68462
5.4378
5.20667
4.99044
13.8443
12.9262
12.0953
11.3414
10.6557
10.0307
9.45967
8.93672
8.45667
8.01498
7.60758
7.23094
6.88193
6.55782
6.25623
5.97505
5.71247
5.46688
5.23688
5.0217
13.8445
12.9269
12.0973
11.3456
10.6631
10.0423
9.47608
8.95842
8.4838
8.04736
7.64487
7.27263
6.92748
6.60668
6.3079
6.02913
5.76867
5.52502
5.2969
5.08357
13.845
12.9294
12.1037
11.3584
10.6846
10.074
9.51901
9.01257
8.54859
8.12177
7.72764
7.36247
7.02316
6.70716
6.41238
6.13708
5.8798
5.63932
5.41454
5.20481
13.8471
12.9381
12.1251
11.3979
10.7463
10.1596
9.62814
9.14338
8.6983
8.28727
7.90589
7.55079
7.21941
6.90982
6.62052
6.35039
6.09852
5.86415
5.64657
5.44502
13.8556
12.9703
12.1959
11.5177
10.9188
10.383
9.89683
9.44995
9.03502
8.64707
8.28298
7.94086
7.61969
7.319
7.03862
6.77858
6.53899
6.31993
6.12121
5.94152
13.8917
13.0886
12.4266
11.871
11.3882
10.9523
10.546
10.1595
9.7883
9.43135
9.08963
8.76521
8.46055
8.1782
7.92056
7.68982
7.48793
7.31647
7.17613
7.06321
14.0476
13.5192
13.1673
12.9029
12.6639
12.4158
12.1455
11.8534
11.5469
11.2367
10.9345
10.6512
10.397
10.1805
10.0093
9.88983
9.82786
9.82812
9.89284
10.0099
14.7345
15.1157
15.6206
16.0697
16.3751
16.5162
16.5138
16.4078
16.2435
16.0646
15.9098
15.8114
15.7965
15.8871
16.1014
16.4547
16.9591
17.6234
18.4481
19.3927
18.0559
21.7883
25.1119
27.7892
29.7361
31.0342
31.8556
32.3923
32.8191
33.2793
33.8839
34.7145
35.8293
37.2671
39.0505
41.1867
43.6672
46.4659
49.5305
52.7494
39.5489
60.6407
78.3965
92.3358
102.281
108.918
113.256
116.234
118.59
120.844
123.336
126.263
129.712
133.688
138.133
142.936
147.954
153.024
157.967
162.667
290.779
447.673
583.297
681.437
740.841
768.08
772.005
760.737
740.585
715.997
689.912
664.173
639.875
617.62
597.695
580.182
565.029
552.096
541.233
531.91
667.764
776.906
850.142
895.784
917.452
919.105
906.305
884.123
856.757
827.351
797.983
769.829
743.431
718.967
696.405
675.607
656.408
638.648
622.191
606.923
592.738
579.536
567.221
555.704
544.905
534.749
525.168
516.099
507.484
499.268
491.401
483.838
476.534
469.454
462.564
455.834
449.24
442.758
436.37
430.062
423.819
417.635
411.504
405.425
399.4
393.435
387.541
381.731
376.02
370.429
364.979
359.694
354.6
349.722
345.089
340.724
336.653
332.899
329.479
326.408
323.696
321.348
319.36
317.724
316.427
315.446
314.756
314.329
314.13
314.128
314.287
314.575
314.959
315.41
315.899
316.4
316.889
317.342
317.738
318.058
318.282
318.394
318.378
318.222
317.914
317.447
316.814
316.011
315.035
313.884
312.559
311.059
309.387
307.549
305.546
303.385
301.069
298.601
295.988
293.234
290.342
287.319
284.168
280.894
277.503
273.999
270.387
266.671
262.857
258.948
254.948
250.861
246.693
242.452
238.144
233.776
229.356
224.889
220.384
215.846
211.283
206.701
202.107
197.506
192.905
188.311
183.728
179.164
174.622
170.11
165.631
161.191
156.795
152.447
148.151
143.912
139.734
135.619
131.572
127.596
123.693
119.866
116.118
112.451
108.866
105.366
101.951
98.624
95.3851
92.2355
89.1759
86.2069
83.3289
80.5421
77.8468
75.243
72.7305
70.3093
67.979
65.7393
63.5899
61.5304
59.5603
57.6793
55.887
54.1831
52.5672
51.0394
49.5995
48.2476
46.9843
45.81
44.7257
43.7327
42.8321
42.0203
41.2937
40.6558
40.1119
39.6686
39.3348
39.1217
39.0442
39.122
39.3818
39.8601
40.6089
41.7038
43.2607
45.465
48.6337
53.3436
60.7065
72.9401
94.4891
133.997
208.419
353.467
698.316
1366.9
172.84
189.662
214.14
245.765
283.094
324.023
366.041
406.556
443.268
474.476
499.252
517.436
529.493
536.293
538.879
538.282
535.397
530.933
525.416
519.218
512.595
505.724
498.728
491.695
484.688
477.752
470.916
464.198
457.6
451.122
444.753
438.481
432.294
426.176
420.115
414.101
408.123
402.172
396.244
390.332
384.437
378.559
372.701
366.872
361.082
355.343
349.672
344.089
338.615
333.275
328.094
323.101
318.324
313.794
309.539
305.59
301.973
298.713
295.833
293.35
291.277
289.619
288.375
287.539
287.092
287.011
287.266
287.818
288.628
289.649
290.838
292.15
293.542
294.976
296.416
297.83
299.191
300.472
301.654
302.715
303.638
304.409
305.013
305.44
305.681
305.728
305.578
305.227
304.674
303.92
302.965
301.813
300.469
298.937
297.224
295.333
293.272
291.045
288.658
286.117
283.427
280.594
277.625
274.524
271.297
267.949
264.487
260.915
257.239
253.463
249.592
245.63
241.583
237.459
233.264
229.007
224.693
220.331
215.928
211.489
207.023
202.536
198.034
193.523
189.011
184.503
180.005
175.523
171.063
166.63
162.229
157.865
153.543
149.268
145.044
140.875
136.765
132.717
128.736
124.823
120.982
117.217
113.528
109.918
106.39
102.945
99.584
96.3091
93.1212
90.0212
87.0099
84.0879
81.2556
78.5133
75.8612
73.2993
70.8276
68.4458
66.1538
63.9512
61.8377
59.8129
57.8764
56.0278
54.2666
52.5926
51.0055
49.5051
48.0913
46.7644
45.5245
44.3723
43.3087
42.3348
41.4516
40.6548
39.9415
39.3157
38.7822
38.3476
38.0205
37.8119
37.7365
37.8134
38.0688
38.5385
39.2734
40.3476
41.8739
44.0332
47.1343
51.7403
58.9444
70.9548
92.2625
131.78
206.937
354.959
674.239
1180.33
54.7949
56.5521
59.1141
62.9106
68.5248
76.3468
86.6776
99.7615
115.678
134.288
155.213
177.847
201.408
225.028
247.846
269.111
288.253
304.918
318.972
330.467
339.592
346.617
351.843
355.56
358.029
359.468
360.053
359.923
359.187
357.933
356.228
354.132
351.691
348.945
345.929
342.67
339.193
335.52
331.67
327.661
323.514
319.247
314.88
310.437
305.941
301.416
296.891
292.394
287.956
283.608
279.384
275.318
271.445
267.799
264.415
261.328
258.57
256.171
254.158
252.556
251.382
250.649
250.363
250.52
251.108
252.107
253.484
255.201
257.209
259.457
261.889
264.449
267.081
269.735
272.365
274.929
277.394
279.729
281.911
283.918
285.733
287.343
288.736
289.903
290.836
291.533
291.99
292.207
292.184
291.925
291.432
290.714
289.777
288.629
287.275
285.723
283.98
282.053
279.948
277.674
275.236
272.643
269.9
267.015
263.993
260.842
257.568
254.176
250.673
247.065
243.356
239.55
235.654
231.677
227.624
223.505
219.326
215.094
210.818
206.503
202.157
197.787
193.4
189.002
184.599
180.198
175.805
171.425
167.064
162.728
158.423
154.152
149.921
145.735
141.597
137.512
133.485
129.518
125.614
121.778
118.012
114.319
110.701
107.16
103.699
100.319
97.0214
93.8081
90.68
87.6381
84.6832
81.8159
79.0367
76.3459
73.7437
71.2302
68.8053
66.4689
64.2207
62.0605
59.988
58.0027
56.1042
54.2922
52.5662
50.926
49.3712
47.9017
46.5173
45.2182
44.0047
42.8772
41.8366
40.8839
40.0202
39.2403
38.5423
37.9301
37.4084
36.9835
36.6637
36.4598
36.3859
36.4606
36.7094
37.167
37.8826
38.9279
40.4116
42.5077
45.512
49.9639
56.9145
68.5043
89.128
127.602
200.85
343.875
622.556
1009.15
19.9795
20.321
20.7006
21.1534
21.7447
22.5484
23.6954
25.2901
27.4617
30.3613
34.1531
39.0039
45.0666
52.4605
61.2492
71.4219
82.8809
95.4392
108.829
122.724
136.763
150.59
163.876
176.353
187.821
198.157
207.307
215.276
222.11
227.882
232.677
236.584
239.687
242.06
243.773
244.886
245.452
245.522
245.142
244.354
243.201
241.724
239.961
237.953
235.739
233.357
230.849
228.253
225.61
222.962
220.349
217.813
215.396
213.139
211.082
209.266
207.73
206.51
205.642
205.156
205.081
205.438
206.245
207.507
209.224
211.384
213.962
216.924
220.224
223.806
227.606
231.559
235.597
239.655
243.672
247.594
251.375
254.977
258.369
261.526
264.43
267.066
269.423
271.494
273.275
274.765
275.962
276.87
277.491
277.832
277.897
277.703
277.26
276.574
275.655
274.512
273.153
271.587
269.823
267.87
265.736
263.43
260.96
258.333
255.559
252.643
249.594
246.418
243.123
239.714
236.198
232.579
228.864
225.061
221.178
217.223
213.203
209.127
205.001
200.833
196.63
192.4
188.148
183.883
179.609
175.335
171.064
166.805
162.562
158.341
154.148
149.986
145.862
141.78
137.744
133.759
129.828
125.956
122.144
118.398
114.719
111.111
107.575
104.115
100.732
97.4278
94.2042
91.0625
88.004
85.0297
82.1403
79.3366
76.619
73.988
71.4436
68.986
66.6153
64.3312
62.1336
60.0223
57.9969
56.057
54.2022
52.4323
50.7467
49.1451
47.6273
46.1931
44.8423
43.575
42.3915
41.2922
40.2779
39.3495
38.508
37.7476
37.0673
36.4706
35.9623
35.5484
35.2367
35.0377
34.9649
35.0364
35.2763
35.7183
36.4094
37.4181
38.8479
40.8636
43.744
47.9963
54.6078
65.599
85.1395
121.63
190.825
323.513
562.56
856.369
10.1276
10.1755
10.2238
10.2745
10.3339
10.4098
10.5132
10.6626
10.8764
11.1764
11.5903
12.1521
12.9039
13.8955
15.1858
16.8418
18.9369
21.5475
24.7478
28.6024
33.1587
38.438
44.4295
51.0859
58.3229
66.0227
74.0413
82.2185
90.3896
98.3968
106.099
113.378
120.144
126.335
131.915
136.871
141.207
144.941
148.101
150.718
152.831
154.477
155.697
156.534
157.028
157.223
157.163
156.892
156.455
155.897
155.264
154.602
153.957
153.373
152.896
152.57
152.439
152.547
152.934
153.641
154.706
156.161
158.036
160.353
163.127
166.36
170.046
174.161
178.67
183.523
188.657
194.001
199.475
205.001
210.502
215.907
221.151
226.183
230.959
235.445
239.616
243.455
246.949
250.089
252.875
255.304
257.38
259.107
260.492
261.542
262.269
262.698
262.839
262.703
262.299
261.64
260.735
259.597
258.237
256.664
254.889
252.922
250.774
248.453
245.969
243.33
240.546
237.624
234.572
231.397
228.107
224.707
221.203
217.604
213.918
210.155
206.321
202.424
198.474
194.476
190.439
186.371
182.277
178.165
174.041
169.912
165.785
161.664
157.557
153.469
149.404
145.369
141.368
137.406
133.488
129.617
125.797
122.033
118.327
114.684
111.105
107.594
104.153
100.785
97.4915
94.2742
91.135
88.0753
85.0963
82.1991
79.3845
76.6532
74.0058
71.4426
68.964
66.57
64.2607
62.036
59.8957
57.8397
55.8675
53.9789
52.1735
50.451
48.8108
47.2528
45.7766
44.3821
43.069
41.8374
40.6876
39.6199
38.6351
37.7341
36.9175
36.1792
35.5189
34.94
34.4468
34.0452
33.7427
33.5492
33.4776
33.5451
33.7749
34.1986
34.8611
35.8269
37.1935
39.1146
41.8491
45.8646
52.0686
62.3188
80.4577
114.226
177.823
297.085
500.055
726.127
7.05268
7.02401
6.99572
6.96776
6.9408
6.91573
6.89366
6.87683
6.86844
6.87137
6.88928
6.92686
6.98999
7.08597
7.2238
7.41445
7.67122
8.01009
8.44997
9.01302
9.7247
10.6137
11.7113
13.0505
14.6642
16.5826
18.8308
21.4251
24.3704
27.6576
31.2624
35.1452
39.2529
43.5213
47.8794
52.2532
56.5705
60.7648
64.778
68.5629
72.084
75.3178
78.2521
80.8849
83.2235
85.2824
87.0826
88.6499
90.0143
91.2088
92.2689
93.2322
94.1376
95.0255
95.9373
96.9152
98.0021
99.2417
100.678
102.355
104.318
106.608
109.268
112.335
115.84
119.808
124.253
129.175
134.557
140.366
146.551
153.045
159.765
166.623
173.525
180.38
187.103
193.618
199.864
205.789
211.354
216.533
221.305
225.659
229.59
233.097
236.183
238.854
241.12
242.989
244.485
245.639
246.461
246.964
247.16
247.064
246.689
246.049
245.157
244.026
242.668
241.095
239.32
237.354
235.206
232.888
230.41
227.781
225.009
222.105
219.075
215.926
212.665
209.301
205.842
202.297
198.676
194.986
191.236
187.433
183.585
179.701
175.786
171.849
167.896
163.933
159.968
156.006
152.053
148.114
144.197
140.305
136.443
132.617
128.831
125.089
121.395
117.754
114.167
110.64
107.174
103.773
100.439
97.1748
93.9819
90.8626
87.8184
84.8508
81.9612
79.1506
76.4199
73.77
71.2012
68.7142
66.3092
63.9863
61.7458
59.5874
57.5111
55.5167
53.604
51.7725
50.022
48.3522
46.7625
45.2529
43.8228
42.4722
41.2009
40.0089
38.8964
37.8637
36.9115
36.0407
35.2518
34.5381
33.9002
33.341
32.8648
32.4772
32.1851
31.998
31.928
31.9914
32.21
32.6137
33.2445
34.1627
35.4587
37.2743
39.846
43.5972
49.3441
58.7526
75.2664
105.806
162.828
267.304
437.807
615.025
5.89496
5.84415
5.79418
5.74497
5.6966
5.64918
5.60282
5.55786
5.51495
5.47451
5.43709
5.40338
5.37433
5.3511
5.33516
5.3283
5.33274
5.35113
5.38667
5.44313
5.52498
5.63745
5.78665
5.97962
6.22444
6.53023
6.90712
7.36613
7.91894
8.5775
9.35348
10.2575
11.2985
12.4823
13.8112
15.283
16.8903
18.6209
20.4578
22.3798
24.363
26.382
28.4115
30.4275
32.4087
34.3379
36.2022
37.994
39.7109
41.3556
42.936
44.4646
45.958
47.4372
48.9263
50.4532
52.0487
53.7468
55.5845
57.6017
59.841
62.3476
65.1685
68.3519
71.9447
75.9912
80.5291
85.5863
91.1765
97.2949
103.916
110.99
118.447
126.198
134.139
142.162
150.156
158.019
165.659
173
179.979
186.548
192.673
198.331
203.509
208.2
212.404
216.126
219.375
222.16
224.534
226.513
228.11
229.341
230.221
230.769
230.998
230.927
230.57
229.943
229.062
227.94
226.591
225.028
223.264
221.312
219.182
216.886
214.434
211.836
209.102
206.238
203.252
200.153
196.95
193.654
190.273
186.815
183.291
179.707
176.073
172.396
168.683
164.942
161.18
157.404
153.62
149.835
146.055
142.285
138.531
134.799
131.093
127.419
123.781
120.183
116.63
113.125
109.671
106.273
102.933
99.6546
96.4394
93.2904
90.2096
87.1991
84.2604
81.3952
78.6048
75.8903
73.2526
70.6927
68.2111
65.8084
63.4848
61.2406
59.076
56.9908
54.9852
53.0588
51.2114
49.4429
47.7528
46.1408
44.6067
43.1501
41.7706
40.4682
39.2426
38.0939
37.0222
36.0278
35.1112
34.2734
33.5149
32.8283
32.2149
31.6776
31.2203
30.8482
30.5679
30.3881
30.3204
30.3799
30.5871
30.9697
31.5668
32.434
33.6544
35.3568
37.7542
41.2234
46.4832
54.9919
69.7552
96.7881
146.762
236.331
377.952
519.146
5.38725
5.32925
5.27226
5.21623
5.16115
5.10702
5.05386
5.00172
4.95077
4.90104
4.85261
4.80557
4.76009
4.71634
4.6746
4.63517
4.59848
4.56504
4.53547
4.5105
4.49102
4.47808
4.47287
4.47678
4.4914
4.51853
4.5602
4.61867
4.69645
4.7963
4.92119
5.07431
5.259
5.47869
5.73678
6.03656
6.38099
6.77258
7.21322
7.70401
8.2451
8.83569
9.47394
10.1571
10.8818
11.6439
12.4395
13.2647
14.1163
14.9924
15.8923
16.8175
17.7715
18.7604
19.7931
20.8817
22.0416
23.2918
24.6557
26.161
27.8404
29.7321
31.8795
34.3321
37.1442
40.3736
44.0799
48.3199
53.1434
58.5865
64.6658
71.372
78.6669
86.4823
94.7231
103.273
112.005
120.786
129.491
138.007
146.234
154.093
161.523
168.476
174.921
180.838
186.215
191.051
195.349
199.147
202.485
205.373
207.829
209.869
211.512
212.777
213.682
214.247
214.49
214.43
214.082
213.466
212.595
211.486
210.153
208.611
206.872
204.95
202.856
200.601
198.197
195.652
192.974
190.171
187.255
184.235
181.121
177.923
174.65
171.311
167.914
164.467
160.978
157.455
153.905
150.335
146.753
143.164
139.574
135.99
132.418
128.862
125.329
121.822
118.347
114.909
111.51
108.155
104.848
101.593
98.3913
95.247
92.1626
89.1406
86.183
83.2919
80.4692
77.7164
75.0348
72.4257
69.8902
67.429
65.0429
62.7325
60.498
58.3399
56.2583
54.2532
52.3246
50.4724
48.6964
46.9964
45.3721
43.8232
42.3494
40.9504
39.626
38.3758
37.1998
36.098
35.0705
34.1175
33.2396
32.4375
31.7117
31.0547
30.4681
29.9547
29.5181
29.163
28.8959
28.7246
28.66
28.7162
28.912
29.2731
29.8353
30.6497
31.7914
33.3762
35.593
38.7716
43.533
51.1241
64.1026
87.5599
130.436
205.785
322.087
435.902
5.14317
5.08257
5.02304
4.96454
4.90707
4.8506
4.79509
4.74061
4.68717
4.63474
4.58333
4.53293
4.48355
4.43521
4.38795
4.3418
4.29684
4.25316
4.21088
4.17015
4.13115
4.09411
4.0593
4.02702
3.99764
3.97157
3.94928
3.9313
3.91819
3.9106
3.90921
3.91475
3.92801
3.94981
3.98099
4.02242
4.07498
4.13953
4.2169
4.30791
4.41328
4.53368
4.6697
4.82185
4.99055
5.17618
5.37911
5.59978
5.83872
6.09671
6.37488
6.67485
6.99891
7.35023
7.73305
8.15302
8.61751
9.136
9.72068
10.387
11.1546
12.048
13.0982
14.3435
15.8311
17.6178
19.7706
22.3658
25.4855
29.2129
33.6234
38.7745
44.6954
51.3782
58.7742
66.7945
75.3169
84.1963
93.2772
102.406
111.439
120.251
128.736
136.809
144.405
151.476
157.989
163.925
169.303
174.164
178.516
182.371
185.746
188.657
191.124
193.168
194.81
196.071
196.972
197.532
197.773
197.713
197.369
196.761
195.904
194.815
193.508
191.998
190.299
188.423
186.383
184.19
181.851
179.375
176.775
174.06
171.241
168.329
165.332
162.261
159.124
155.93
152.688
149.404
146.087
142.743
139.381
136.007
132.626
129.246
125.872
122.509
119.164
115.84
112.544
109.278
106.048
102.858
99.7109
96.6105
93.5599
90.5623
87.6203
84.7364
81.9129
79.152
76.4553
73.8247
71.2615
68.767
66.3423
63.9884
61.7059
59.4956
57.3578
55.293
53.3013
51.3829
49.5378
47.7659
46.0671
44.4411
42.8879
41.407
39.9983
38.6614
37.3961
36.2022
35.0796
34.0281
33.048
32.1395
31.303
30.5393
29.8486
29.2233
28.6656
28.178
27.7638
27.4274
27.1747
27.0132
26.9526
27.0061
27.191
27.5307
28.0579
28.8187
29.8805
31.3461
33.3808
36.2688
40.5363
47.2268
58.4635
78.4482
114.512
176.804
271.237
363.572
5.02044
4.95877
4.8982
4.83872
4.78029
4.7229
4.66651
4.61115
4.55679
4.50342
4.45101
4.39955
4.34901
4.29938
4.25066
4.20283
4.1559
4.10986
4.06472
4.02051
3.97726
3.935
3.89378
3.85368
3.81477
3.77714
3.74091
3.7062
3.67317
3.64197
3.61279
3.58581
3.56125
3.53933
3.52028
3.50434
3.49176
3.48278
3.47764
3.47659
3.47985
3.48766
3.50024
3.51779
3.54054
3.56871
3.60252
3.64226
3.68824
3.74085
3.80061
3.86818
3.94442
4.03044
4.12774
4.23824
4.36445
4.50967
4.67819
4.87566
5.10952
5.38957
5.72891
6.14499
6.66119
7.30883
8.12966
9.17864
10.5267
12.2623
14.4904
17.3273
20.8887
25.2731
30.5428
36.7082
43.7213
51.4788
59.8348
68.6172
77.6447
86.7414
95.746
104.518
112.937
120.914
128.372
135.308
141.726
147.613
152.968
157.795
162.106
165.914
169.239
172.101
174.52
176.519
178.121
179.347
180.219
180.758
180.984
180.917
180.576
179.978
179.14
178.078
176.808
175.344
173.7
171.889
169.92
167.8
165.543
163.16
160.662
158.061
155.365
152.586
149.732
146.813
143.838
140.813
137.749
134.651
131.528
128.386
125.232
122.072
118.913
115.759
112.617
109.492
106.388
103.31
100.263
97.2498
94.2752
91.3425
88.4549
85.6155
82.8271
80.0924
77.4135
74.7928
72.2322
69.7332
67.2976
64.9265
62.6212
60.3828
58.2119
56.1093
54.0755
52.1109
50.2159
48.3906
46.6351
44.9493
43.3333
41.7868
40.3096
38.9016
37.5625
36.292
35.09
33.9562
32.8904
31.8927
30.9632
30.102
29.3096
28.5866
27.9332
27.3418
26.8149
26.3547
25.9645
25.6483
25.4113
25.2606
25.205
25.2567
25.4313
25.7501
26.2427
26.9502
27.9325
29.2798
31.1349
33.739
37.5307
43.3647
52.9624
69.7072
99.4817
150.134
225.933
300.921
4.95793
4.89574
4.83469
4.77475
4.7159
4.6581
4.60134
4.54561
4.49088
4.43713
4.38434
4.33248
4.28154
4.23149
4.18232
4.134
4.08651
4.03986
3.99401
3.94897
3.90472
3.86126
3.81858
3.77671
3.73563
3.69538
3.65596
3.6174
3.57973
3.543
3.50725
3.47252
3.43887
3.40637
3.37508
3.34507
3.31642
3.2892
3.2635
3.23938
3.21693
3.19622
3.17733
3.16034
3.14532
3.13234
3.12149
3.11286
3.10655
3.10269
3.10142
3.10294
3.10749
3.11539
3.12705
3.14299
3.16392
3.19073
3.22461
3.26714
3.32038
3.38713
3.47116
3.57762
3.71368
3.88935
4.11884
4.42246
4.82932
5.38112
6.13679
7.17759
8.61078
10.5688
13.2
16.6482
21.0242
26.3776
32.6812
39.8336
47.6763
56.0167
64.6488
73.371
81.9906
90.3745
98.4546
106.147
113.393
120.15
126.395
132.116
137.311
141.987
146.156
149.833
153.038
155.791
158.114
160.03
161.56
162.727
163.553
164.058
164.263
164.187
163.849
163.265
162.454
161.43
160.209
158.807
157.234
155.497
153.609
151.582
149.43
147.162
144.79
142.324
139.775
137.151
134.462
131.717
128.923
126.09
123.223
120.331
117.42
114.497
111.567
108.638
105.714
102.801
99.9036
97.0268
94.1749
91.352
88.5622
85.809
83.0958
80.4258
77.8018
75.2266
72.7025
70.2318
67.8165
65.4583
63.159
60.9198
58.7421
56.6269
54.5751
52.5875
50.6647
48.8071
47.0152
45.2891
43.6291
42.0351
40.5071
39.0451
37.6489
36.3184
35.0532
33.8533
32.7183
31.6482
30.6427
29.7019
28.8259
28.0147
27.2688
26.5887
25.9743
25.4188
24.9245
24.4936
24.1288
23.834
23.6139
23.475
23.4254
23.476
23.6411
23.9399
24.3986
25.0538
25.9583
27.1902
28.8715
31.2041
34.5475
39.5884
47.6909
61.5144
85.6769
126.21
186.326
246.999
4.92635
4.86389
4.80258
4.74241
4.68334
4.62534
4.5684
4.51249
4.4576
4.40368
4.35073
4.29872
4.24762
4.19741
4.14808
4.0996
4.05196
4.00513
3.95909
3.91384
3.86935
3.82562
3.78262
3.74036
3.69881
3.65798
3.61785
3.57843
3.53972
3.50172
3.46443
3.42787
3.39204
3.35696
3.32265
3.28912
3.25639
3.22448
3.19343
3.16324
3.13395
3.10558
3.07815
3.05169
3.02622
3.00177
2.97835
2.956
2.93475
2.91462
2.89565
2.87791
2.86144
2.84634
2.8327
2.82067
2.81044
2.80224
2.79638
2.7933
2.79353
2.79783
2.80719
2.82297
2.84705
2.88208
2.93182
3.00173
3.09987
3.23828
3.43523
3.7185
4.13034
4.73391
5.62048
6.91448
8.77099
11.3594
14.8315
19.2823
24.7208
31.0622
38.1338
45.7238
53.6633
61.765
69.8532
77.783
85.4404
92.7393
99.6177
106.034
111.963
117.393
122.322
126.755
130.704
134.184
137.215
139.815
142.006
143.809
145.246
146.338
147.107
147.572
147.753
147.668
147.337
146.775
145.999
145.025
143.87
142.537
141.039
139.39
137.603
135.689
133.66
131.528
129.301
126.992
124.608
122.159
119.653
117.1
114.506
111.879
109.226
106.554
103.87
101.179
98.4864
95.7988
93.1208
90.4573
87.8129
85.1919
82.5982
80.0355
77.5075
75.0172
72.5677
70.1617
67.8017
65.4901
63.229
61.0201
58.8653
56.7659
54.7234
52.7389
50.8133
48.9475
47.1422
45.3979
43.715
42.094
40.5349
39.0379
37.6031
36.2304
34.9197
33.6708
32.4837
31.3581
30.2939
29.2908
28.3488
27.4678
26.6479
25.8893
25.1922
24.557
23.9829
23.4652
23.0052
22.6049
22.2668
21.9946
21.7924
21.6662
21.6234
21.6738
21.8301
22.1096
22.5356
23.1403
23.9695
25.0904
26.6059
28.6832
31.6123
35.9351
42.7092
53.9757
73.2791
105.214
152.295
201.007
4.91075
4.84813
4.78668
4.72637
4.66719
4.60909
4.55206
4.49606
4.44108
4.38709
4.33407
4.28199
4.23082
4.18056
4.13117
4.08264
4.03495
3.98807
3.94199
3.89669
3.85216
3.80838
3.76532
3.72299
3.68136
3.64043
3.60018
3.5606
3.52169
3.48344
3.44584
3.40889
3.37259
3.33693
3.30191
3.26755
3.23383
3.20076
3.16835
3.13659
3.1055
3.07507
3.04532
3.01624
2.98783
2.9601
2.93306
2.90669
2.88101
2.85601
2.8317
2.80808
2.78516
2.76295
2.74147
2.72075
2.70083
2.68176
2.66362
2.64653
2.63062
2.61609
2.60321
2.59235
2.58399
2.57884
2.57787
2.58248
2.59474
2.6177
2.65601
2.71689
2.81169
2.95851
3.18626
3.54073
4.09265
4.94591
6.24127
8.14754
10.8334
14.4165
18.9402
24.377
30.5893
37.3926
44.5862
51.9771
59.3944
66.6956
73.7672
80.5228
86.8999
92.856
98.3648
103.413
107.997
112.121
115.795
119.032
121.85
124.265
126.299
127.971
129.3
130.308
131.014
131.437
131.595
131.506
131.187
130.656
129.932
129.017
127.925
126.67
125.264
123.72
122.05
120.266
118.378
116.397
114.334
112.196
109.993
107.734
105.427
103.079
100.698
98.2902
95.863
93.4222
90.9738
88.5234
86.0763
83.6374
81.2114
78.8026
76.4153
74.0532
71.7199
69.4188
67.1528
64.9249
62.7377
60.5935
58.4945
56.4427
54.4399
52.4877
50.5873
48.7402
46.9473
45.2096
43.5278
41.9025
40.3343
38.8236
37.3706
35.9755
34.6384
33.3593
32.1383
30.9751
29.8698
28.8221
27.8318
26.8989
26.0232
25.2047
24.4434
23.7395
23.0931
22.5048
21.973
21.4942
21.0697
20.7012
20.3909
20.1421
19.9587
19.8459
19.8105
19.8612
20.0095
20.2707
20.6652
21.2212
21.9783
22.9936
24.3531
26.1935
28.7459
32.4304
38.0505
47.1366
62.3462
87.1351
123.521
162.206
4.90325
4.84055
4.77902
4.71864
4.6594
4.60125
4.54417
4.48813
4.43311
4.37909
4.32603
4.27392
4.22274
4.17245
4.12305
4.0745
4.0268
3.97991
3.93383
3.88853
3.844
3.80022
3.75717
3.71485
3.67322
3.6323
3.59205
3.55247
3.51355
3.47527
3.43764
3.40064
3.36426
3.32851
3.29336
3.25883
3.2249
3.19158
3.15885
3.12672
3.09518
3.06422
3.03385
3.00406
2.97484
2.94619
2.91809
2.89055
2.86354
2.83707
2.81111
2.78566
2.76071
2.73625
2.71226
2.68874
2.66569
2.64312
2.62102
2.59943
2.57836
2.55787
2.53802
2.5189
2.50066
2.48347
2.4676
2.45342
2.44145
2.43248
2.42768
2.42884
2.43877
2.46196
2.5057
2.58201
2.71082
2.92496
3.27744
3.85011
4.76038
6.16134
8.23097
11.1065
14.8553
19.4551
24.8011
30.7346
37.0743
43.6411
50.2735
56.8351
63.216
69.3316
75.1199
80.5379
85.558
90.1649
94.3532
98.1247
101.487
104.451
107.031
109.243
111.104
112.634
113.849
114.769
115.41
115.792
115.931
115.844
115.551
115.062
114.384
113.53
112.515
111.351
110.05
108.626
107.088
105.447
103.715
101.9
100.011
98.0576
96.0481
93.9902
91.8914
89.759
87.5995
85.4196
83.2251
81.0219
78.8153
76.6105
74.4121
72.2248
70.0527
67.8997
65.7696
63.6658
61.5913
59.5493
57.5422
55.5727
53.643
51.7552
49.911
48.1122
46.3603
44.6565
43.0021
41.398
39.845
38.344
36.8954
35.4997
34.1573
32.8684
31.6332
30.4517
29.3241
28.2501
27.2299
26.2631
25.3498
24.4898
23.683
22.9293
22.2287
21.5814
20.9876
20.4475
19.9596
19.5211
19.1331
18.7972
18.5154
18.2907
18.1265
18.0276
18
18.0516
18.1924
18.436
18.8003
19.3098
19.9981
20.9137
22.1278
23.7509
25.9648
29.0907
33.727
40.9954
52.8409
71.8194
99.5586
129.875
4.89975
4.837
4.77543
4.71502
4.65574
4.59757
4.54047
4.48441
4.42938
4.37534
4.32228
4.27016
4.21897
4.16868
4.11927
4.07073
4.02303
3.97615
3.93008
3.88479
3.84027
3.7965
3.75347
3.71116
3.66956
3.62865
3.58842
3.54886
3.50996
3.47171
3.43409
3.39711
3.36074
3.32499
3.28984
3.25529
3.22133
3.18796
3.15518
3.12296
3.09132
3.06023
3.0297
2.99972
2.97027
2.94135
2.91295
2.88505
2.85763
2.83069
2.80421
2.77817
2.75256
2.72735
2.70252
2.67807
2.65398
2.63022
2.6068
2.58369
2.56091
2.53845
2.51631
2.49453
2.47313
2.45216
2.43169
2.41182
2.39269
2.37452
2.3576
2.34239
2.32959
2.32028
2.31624
2.32036
2.33749
2.37588
2.44955
2.58225
2.81373
3.21363
3.88446
4.9566
6.57558
8.87128
11.9218
15.7298
20.2227
25.2732
30.7264