/*--------------------------------*- C++ -*----------------------------------*\
| =========                 |                                                 |
| \\      /  F ield         | OpenFOAM: The Open Source CFD Toolbox           |
|  \\    /   O peration     | Version:  2.4.0                                 |
|   \\  /    A nd           | Web:      www.OpenFOAM.org                      |
|    \\/     M anipulation  |                                                 |
\*---------------------------------------------------------------------------*/
FoamFile
{
    version     2.0;
    format      ascii;
    class       volScalarField;
    location    "0.194";
    object      k;
}
// * * * * * * * * * * * * * * * * * * * * * * * * * * * * * * * * * * * * * //

dimensions      [0 2 -2 0 0 0 0];

internalField   nonuniform List<scalar> 
4400
(
9.53402
8.49049
6.5092
5.30301
4.63573
4.22334
4.04233
3.75836
3.86914
3.49135
4.41062
6.76145
6.73272
6.30196
5.70604
5.21439
5.00806
4.6152
4.71371
4.53995
1.17508
3.16049
4.21086
4.53228
4.47994
4.264
4.161
3.87899
3.90399
3.884
0.164637
0.946854
1.70526
2.30272
2.68871
2.78465
2.86941
2.81639
2.81195
2.85888
0.0173771
0.159655
0.410809
0.729091
1.09965
1.32735
1.51879
1.63851
1.68236
1.76448
0.00147838
0.0178987
0.0539002
0.118742
0.263199
0.38388
0.521244
0.654163
0.716713
0.816383
0.000138644
0.00160955
0.00451309
0.011097
0.0323901
0.0538089
0.103463
0.137926
0.165176
0.242481
4.14866e-05
0.000278459
0.000443942
0.000813329
0.00213944
0.00395328
0.00992833
0.0125254
0.0164024
0.0358521
3.37097e-05
0.000149162
0.000195487
0.000212675
0.0002768
0.000373598
0.000698474
0.00072765
0.000852739
0.00216168
3.27769e-05
0.000150784
0.000179177
0.000173893
0.000176305
0.00020265
0.000244115
0.000246946
0.000249709
0.000263514
3.29565e-05
0.000135651
0.000167102
0.000182874
0.000200828
0.000218117
0.000223082
0.000235494
0.000269138
0.000377679
3.35755e-05
0.00012822
0.000203583
0.000225699
0.0002564
0.000354401
0.000508662
0.00100674
0.00193259
0.00454104
3.99082e-05
0.000237993
0.000429446
0.000838782
0.00172786
0.0046658
0.00817894
0.0177954
0.0282485
0.0613524
0.000137825
0.00148695
0.00450633
0.011721
0.0260297
0.0634098
0.0940179
0.163239
0.21114
0.353844
0.0014777
0.0167717
0.0540786
0.129013
0.237117
0.405299
0.523737
0.694637
0.789493
1.02192
0.0172873
0.149048
0.422423
0.732556
1.08859
1.3431
1.53605
1.68963
1.77442
1.95284
0.163763
0.933351
1.72289
2.29808
2.68832
2.80113
2.88312
2.87187
2.8806
2.91152
1.16987
3.15423
4.22782
4.52243
4.48409
4.27148
4.15546
3.92819
3.87248
3.75998
4.40446
6.76136
6.74126
6.28341
5.72782
5.18889
4.97573
4.6133
4.51373
4.2178
9.52718
8.4901
6.51668
5.28274
4.65001
4.17997
3.99581
3.67743
3.56024
3.13722
2.1666
1.49808
1.14714
1.20609
1.19103
1.24475
1.17281
1.13296
0.954288
0.720946
0.537789
0.384972
0.298401
0.271996
0.274298
0.31469
0.451725
0.530467
0.540231
0.531598
0.491943
0.419738
0.344114
0.188343
0.0953903
0.0539607
0.0354238
0.0319988
0.0339015
0.0403327
0.0650064
0.194341
0.395485
0.42652
0.394555
0.301861
0.21622
0.201721
0.217444
0.22145
0.207338
0.13288
0.094959
0.101069
0.137106
0.238249
0.584577
0.677524
0.615517
0.269087
0.129155
0.116786
0.124933
0.15882
0.183743
0.171569
0.132377
0.12805
0.138221
0.142885
0.162273
0.261056
0.369864
0.389064
0.368803
0.320588
0.238009
0.176898
0.149938
0.139876
0.13156
0.167339
0.189499
0.19014
0.171971
0.154787
0.143724
0.135491
0.121973
0.115624
0.0986999
0.0870643
0.0671556
0.0587286
0.0499683
0.0471618
0.0526567
0.086923
0.0879238
0.0880887
0.118145
0.15451
0.161068
0.168213
0.180832
0.1894
0.200395
0.218132
0.322999
0.935732
3.30653
2.44142
1.85491
1.62546
1.37944
1.38602
1.28143
1.27243
1.25205
1.10534
1.02601
0.908283
0.702157
0.626284
0.627681
0.646825
0.644932
0.616413
0.566169
0.508574
0.369276
0.23423
0.13347
0.0674976
0.0384728
0.0267227
0.0226505
0.0232128
0.0257441
0.0310357
0.0438543
0.0883916
0.252831
0.355656
0.361394
0.325877
0.259778
0.242277
0.239801
0.22857
0.184174
0.106739
0.0795482
0.086885
0.130549
0.226587
0.495192
0.684956
0.671298
0.30902
0.134483
0.116756
0.130754
0.153039
0.174749
0.168701
0.134567
0.125339
0.135489
0.140531
0.150195
0.212535
0.325911
0.361424
0.351593
0.31683
0.279762
0.206507
0.16133
0.147185
0.123383
0.137954
0.16578
0.181057
0.173235
0.158594
0.150804
0.138014
0.123903
0.115823
0.0922078
0.0756918
0.0579234
0.0516092
0.0454267
0.044217
0.0520626
0.0938185
0.0961313
0.0974315
0.129511
0.162286
0.170153
0.17294
0.182392
0.187229
0.200868
0.210732
0.316348
0.750752
3.20381
2.50782
1.99453
1.71937
1.38898
1.34432
1.24826
1.17215
1.18407
1.13951
1.08905
1.05997
0.97719
0.883835
0.807293
0.748402
0.669827
0.570139
0.473499
0.339286
0.174018
0.0911155
0.0507356
0.029065
0.0219706
0.0199911
0.0201255
0.0218767
0.0252442
0.0312562
0.0376799
0.0538288
0.115936
0.258542
0.310633
0.305382
0.272379
0.258527
0.24747
0.21493
0.145801
0.0872685
0.0680124
0.0763189
0.126737
0.218657
0.404678
0.695103
0.707967
0.341481
0.141451
0.119368
0.135774
0.152842
0.16568
0.163181
0.13651
0.123028
0.130643
0.13838
0.142891
0.178573
0.284099
0.333564
0.330825
0.307038
0.27533
0.239989
0.178351
0.157512
0.121834
0.118832
0.123802
0.152429
0.156639
0.151719
0.144795
0.132451
0.1198
0.107617
0.0774152
0.0617663
0.0489243
0.0449889
0.0414332
0.0411925
0.0549119
0.100252
0.104356
0.109601
0.15158
0.176103
0.181128
0.180436
0.18121
0.18224
0.205938
0.210427
0.299761
0.582865
2.5184
2.16938
1.76875
1.5546
1.25508
1.10577
1.03098
0.923248
0.914638
0.910706
0.899123
0.898071
0.879878
0.817875
0.737642
0.659458
0.532284
0.419621
0.281581
0.151238
0.0738078
0.0380837
0.0240378
0.0194132
0.0190318
0.0195904
0.0225221
0.0313235
0.0374821
0.0433367
0.0438049
0.046896
0.0650816
0.133775
0.229085
0.26319
0.259806
0.251266
0.23319
0.174164
0.110488
0.0687427
0.058809
0.0683697
0.119586
0.21528
0.333764
0.674756
0.722838
0.390678
0.153496
0.122657
0.136196
0.154948
0.160728
0.157503
0.135688
0.12168
0.127093
0.137708
0.139118
0.15901
0.243964
0.303512
0.307021
0.292826
0.26166
0.240162
0.199072
0.169341
0.125727
0.107659
0.10502
0.116553
0.126244
0.126236
0.122823
0.113891
0.102313
0.0873432
0.0648091
0.0513077
0.0430026
0.0397218
0.0383918
0.0393937
0.0641593
0.107694
0.113193
0.124893
0.181899
0.193524
0.195807
0.181048
0.180538
0.17848
0.201015
0.208284
0.277235
0.461387
1.61433
1.51094
1.29749
1.14467
0.980418
0.779857
0.712901
0.627249
0.591531
0.593149
0.587449
0.588997
0.587452
0.561625
0.503879
0.439701
0.341743
0.22308
0.117487
0.0581829
0.0299944
0.0198363
0.0178505
0.018407
0.0212272
0.0272633
0.0421915
0.0661385
0.072403
0.0708095
0.0625518
0.0520618
0.0542921
0.0730505
0.13378
0.194027
0.215775
0.21129
0.182365
0.119775
0.0776987
0.0565092
0.0542513
0.0647174
0.111859
0.210665
0.302612
0.615697
0.738097
0.461456
0.17024
0.124935
0.135211
0.157878
0.16059
0.156856
0.135727
0.120524
0.122394
0.135289
0.137775
0.148943
0.214191
0.277326
0.284036
0.275225
0.247499
0.227235
0.201982
0.174641
0.13035
0.101362
0.0913964
0.0943052
0.100304
0.100394
0.0962957
0.0902368
0.0834595
0.0685946
0.0560342
0.0470735
0.0413435
0.0381255
0.037594
0.0397727
0.0778869
0.115937
0.124813
0.148475
0.216896
0.218901
0.209648
0.173475
0.178712
0.175808
0.201769
0.20613
0.258302
0.379946
0.769124
0.758919
0.716324
0.639869
0.562703
0.394394
0.329277
0.269194
0.250289
0.2623
0.266779
0.27554
0.281947
0.270706
0.23927
0.20269
0.132178
0.0730482
0.0367441
0.0205528
0.0155605
0.0160793
0.0184914
0.0250867
0.0398187
0.0594082
0.107574
0.137372
0.134956
0.124429
0.100411
0.0668238
0.0566693
0.059446
0.0784296
0.131282
0.147447
0.142902
0.118074
0.0834363
0.0603891
0.0514003
0.0522175
0.0636757
0.108313
0.205536
0.283557
0.549458
0.780623
0.544531
0.186082
0.128771
0.135839
0.158522
0.162934
0.159458
0.137668
0.120326
0.120233
0.130859
0.134637
0.141646
0.189975
0.251482
0.264573
0.2588
0.240708
0.209522
0.189253
0.171468
0.134483
0.101485
0.0824774
0.0794805
0.0813438
0.0810062
0.0770192
0.0740948
0.0693989
0.0570447
0.050254
0.0456281
0.0410335
0.0379239
0.0377899
0.0431078
0.0944465
0.1267
0.144406
0.190754
0.250537
0.246824
0.213876
0.162839
0.163948
0.168013
0.211752
0.208432
0.247386
0.324714
0.241008
0.257379
0.252051
0.223275
0.189604
0.120487
0.0923204
0.0726045
0.0658178
0.0706377
0.0741876
0.0789902
0.0868333
0.0840864
0.0743202
0.0578184
0.0353632
0.0194521
0.0119791
0.0119804
0.0134237
0.0204992
0.034637
0.0573329
0.0916307
0.149267
0.23918
0.249371
0.237271
0.208365
0.158521
0.0963725
0.0648297
0.0595922
0.0637997
0.086949
0.0937234
0.0908239
0.0810213
0.0657033
0.0534974
0.0500907
0.0530254
0.0665343
0.110744
0.202004
0.267818
0.480893
0.841026
0.635185
0.202955
0.13435
0.138755
0.158692
0.164899
0.164442
0.144289
0.121844
0.120307
0.124284
0.134093
0.137642
0.16981
0.235529
0.249542
0.242289
0.224741
0.197695
0.175675
0.162891
0.135489
0.104151
0.0800589
0.0711234
0.0719118
0.0708365
0.0655283
0.0634487
0.0585105
0.0500199
0.047121
0.045466
0.0414957
0.0395111
0.0401814
0.0516384
0.115631
0.141263
0.173576
0.23522
0.27093
0.260958
0.203345
0.152101
0.144613
0.153424
0.229546
0.214355
0.239767
0.297371
0.0410904
0.0486761
0.04738
0.040166
0.0327626
0.020458
0.0145274
0.0114852
0.0104699
0.0111312
0.0119769
0.0129287
0.0155514
0.0154981
0.0141434
0.010748
0.0069027
0.00694673
0.00808932
0.0119249
0.0223415
0.0510012
0.0863705
0.12693
0.214509
0.339315
0.417662
0.415021
0.385497
0.318964
0.224622
0.14605
0.0872439
0.0645078
0.0620969
0.0641486
0.0666886
0.0677347
0.0662747
0.0600484
0.0527615
0.0533609
0.0614094
0.0790356
0.122118
0.199656
0.252541
0.405892
0.872262
0.731554
0.235018
0.142791
0.14116
0.158839
0.172583
0.176489
0.157617
0.126011
0.122252
0.12301
0.133526
0.137207
0.158868
0.215364
0.240861
0.237448
0.221054
0.193981
0.173924
0.159245
0.134139
0.105262
0.0800669
0.0679108
0.0670332
0.0653059
0.0597349
0.0569644
0.0507763
0.0475614
0.0463336
0.0467081
0.0442568
0.0433964
0.0458022
0.0704897
0.143873
0.164091
0.205933
0.263383
0.280082
0.260181
0.171239
0.136866
0.124618
0.142023
0.337121
0.239344
0.246124
0.280768
0.0026591
0.00332344
0.00321919
0.00277118
0.00225928
0.00170198
0.00149153
0.00135529
0.00129142
0.00130118
0.00130749
0.00134146
0.00152493
0.00178383
0.00200437
0.00242465
0.00351488
0.00637012
0.0135945
0.0322125
0.0673735
0.125635
0.178231
0.271946
0.465844
0.582697
0.612716
0.588942
0.538927
0.459551
0.315943
0.193416
0.115451
0.0767402
0.0638195
0.0616224
0.0627766
0.0646197
0.0632191
0.0595757
0.0595194
0.0651768
0.0866777
0.10117
0.135832
0.198503
0.237729
0.345467
0.85916
0.825711
0.297323
0.157903
0.142773
0.159695
0.178619
0.18983
0.17591
0.136748
0.12875
0.123369
0.134386
0.138248
0.155879
0.203882
0.239888
0.24088
0.224891
0.195749
0.177163
0.160197
0.133966
0.10664
0.0816972
0.0687239
0.0643247
0.061749
0.0561929
0.0511782
0.0483726
0.0488301
0.0511332
0.0521517
0.0502375
0.0506736
0.0576145
0.109649
0.177178
0.193193
0.232994
0.286034
0.282895
0.229889
0.152263
0.121439
0.106379
0.121839
0.864825
0.355841
0.292635
0.287356
0.000289012
0.00029651
0.000322262
0.000374559
0.000428982
0.000555654
0.00109269
0.00126723
0.00135487
0.00134919
0.00120302
0.00120248
0.00131237
0.0016404
0.00253485
0.00490683
0.0107954
0.0225098
0.0465859
0.105599
0.169687
0.239675
0.345107
0.573051
0.710953
0.729363
0.704722
0.643728
0.602584
0.542622
0.404637
0.268237
0.167946
0.102154
0.0735566
0.0684368
0.0680009
0.0679823
0.0685974
0.0708225
0.0766257
0.0964536
0.117893
0.124595
0.145237
0.199087
0.223584
0.299325
0.813856
0.928105
0.397917
0.177503
0.147407
0.161166
0.1791
0.190593
0.182893
0.143993
0.139996
0.127093
0.140519
0.141472
0.157554
0.202379
0.242205
0.253184
0.242357
0.211501
0.18836
0.164524
0.135588
0.109552
0.0851233
0.0699958
0.0633383
0.0578074
0.0526337
0.0512522
0.0523698
0.0570768
0.0600444
0.0588902
0.057669
0.0617778
0.0826363
0.171896
0.217898
0.227802
0.262472
0.302187
0.284137
0.227888
0.160336
0.110193
0.106903
0.124779
0.918697
0.55356
0.530974
0.319567
0.00060292
0.000631732
0.000708881
0.0011432
0.00175823
0.0030297
0.00680922
0.00783131
0.00828066
0.00833224
0.00786819
0.00797028
0.00879536
0.0107107
0.0150504
0.0252176
0.0461656
0.0764793
0.145163
0.246081
0.317964
0.421554
0.671268
0.806703
0.811056
0.780735
0.710996
0.643333
0.607722
0.556184
0.458967
0.353977
0.251475
0.152994
0.11179
0.100754
0.0850962
0.0833179
0.0885963
0.0988241
0.110544
0.142649
0.153608
0.150357
0.157544
0.199437
0.209896
0.257801
0.730264
1.05363
0.542264
0.205937
0.157086
0.163399
0.177771
0.181674
0.191631
0.158125
0.152741
0.131724
0.157656
0.149723
0.162559
0.203304
0.258049
0.264753
0.263423
0.242809
0.202988
0.173155
0.14204
0.114523
0.088519
0.0696656
0.0581589
0.0527634
0.052161
0.0525434
0.0577631
0.0645562
0.0657333
0.0636818
0.0665021
0.0849165
0.149557
0.255768
0.260585
0.261584
0.281807
0.314816
0.310527
0.25293
0.184475
0.10938
0.104946
0.129473
0.20964
0.52285
0.822471
0.424384
0.00817819
0.0084069
0.00893383
0.0119838
0.0159275
0.024564
0.0385572
0.0415722
0.0422908
0.0427112
0.0415894
0.0420149
0.0452348
0.0527746
0.0656536
0.0967431
0.138262
0.216243
0.349231
0.43303
0.518951
0.73842
0.873605
0.872917
0.832405
0.725039
0.626706
0.569362
0.539762
0.519716
0.483935
0.41326
0.289162
0.21505
0.179544
0.134472
0.112741
0.114642
0.13266
0.145119
0.167742
0.198281
0.196071
0.175128
0.174794
0.197292
0.194678
0.221835
0.61352
1.16029
0.736486
0.259399
0.174408
0.166731
0.185916
0.195964
0.225137
0.160771
0.178165
0.143848
0.17999
0.161078
0.170265
0.222021
0.263741
0.26409
0.26497
0.252176
0.213798
0.183865
0.148552
0.118391
0.0904842
0.0686905
0.0554934
0.0521757
0.0524139
0.054197
0.0644118
0.0695763
0.0692202
0.0706182
0.0890577
0.155093
0.277373
0.331068
0.298477
0.285851
0.281554
0.359839
0.37392
0.259349
0.189136
0.11004
0.10969
0.141339
0.180014
0.455632
0.755262
0.582792
0.0765507
0.0771535
0.0789103
0.0885415
0.104424
0.130066
0.153493
0.15572
0.153982
0.153215
0.148529
0.149303
0.157198
0.174552
0.199735
0.25688
0.358505
0.477745
0.568349
0.641121
0.795455
0.913931
0.92254
0.867334
0.707412
0.59675
0.546809
0.522097
0.500457
0.49461
0.48754
0.448717
0.359938
0.300899
0.219228
0.166212
0.162661
0.177948
0.190961
0.204285
0.239665
0.252255
0.225544
0.183321
0.181433
0.193299
0.179214
0.190922
0.48075
1.17605
0.983481
0.360336
0.200963
0.177455
0.195112
0.208075
0.220698
0.16944
0.22787
0.153246
0.239722
0.185103
0.180091
0.234304
0.254426
0.252011
0.247118
0.238546
0.21613
0.184255
0.149403
0.11754
0.0915596
0.0694292
0.056908
0.0541335
0.0536138
0.0561817
0.0670775
0.0706039
0.0738948
0.0901948
0.165838
0.321603
0.408894
0.401201
0.311325
0.280542
0.271412
0.410338
0.398889
0.233611
0.17925
0.104572
0.132388
0.14095
0.205821
0.417866
0.406953
0.659953
0.354603
0.348204
0.3464
0.356039
0.376794
0.397645
0.407179
0.402454
0.386153
0.372918
0.35422
0.353814
0.365256
0.392477
0.435369
0.543892
0.652844
0.70778
0.771231
0.861413
0.93097
0.94859
0.88421
0.679163
0.577309
0.547596
0.527238
0.510956
0.50082
0.499745
0.497022
0.470897
0.408733
0.327612
0.252027
0.243402
0.24923
0.2483
0.253506
0.2858
0.300422
0.287927
0.220763
0.179818
0.180991
0.187422
0.166742
0.170005
0.369144
1.13029
1.27931
0.539689
0.244136
0.192347
0.197644
0.2104
0.215361
0.193193
0.23007
0.175727
0.343982
0.241051
0.200902
0.234905
0.248177
0.242262
0.224339
0.212986
0.202214
0.175337
0.14565
0.112732
0.0939804
0.0762514
0.0676819
0.058625
0.0561997
0.0585119
0.0658217
0.0728024
0.0926292
0.163214
0.380429
0.478661
0.48118
0.427501
0.289817
0.255308
0.261104
0.423212
0.388323
0.235744
0.147692
0.102294
0.19784
0.145672
0.28104
0.409459
0.389713
0.672213
0.976421
0.91409
0.851518
0.840249
0.821827
0.79925
0.779456
0.723368
0.672378
0.636086
0.608983
0.610087
0.627656
0.666231
0.740292
0.814098
0.844963
0.883821
0.915838
0.94742
0.948327
0.879934
0.644039
0.534409
0.525348
0.52733
0.521041
0.499707
0.489063
0.494154
0.498157
0.492212
0.452228
0.375384
0.35487
0.327973
0.299794
0.300328
0.332739
0.343079
0.332361
0.256533
0.180929
0.169395
0.176459
0.175347
0.16121
0.163424
0.293699
0.99068
1.4781
0.851667
0.340449
0.218749
0.202125
0.221989
0.237652
0.241754
0.23824
0.210617
0.357774
0.308419
0.250424
0.250628
0.260766
0.249459
0.227648
0.201281
0.183847
0.149516
0.123508
0.102556
0.0972225
0.0950932
0.08275
0.063846
0.0609727
0.0630076
0.071595
0.0978306
0.176977
0.435972
0.546056
0.541586
0.502099
0.343882
0.24034
0.219052
0.249854
0.395993
0.393708
0.333314
0.123054
0.128042
0.282162
0.159846
0.325817
0.425511
0.455072
0.608719
1.79068
1.59903
1.44578
1.34877
1.24306
1.15894
1.07452
0.97036
0.91649
0.875847
0.85283
0.856947
0.880314
0.907817
0.945528
0.967014
0.967393
0.962888
0.958077
0.935745
0.841162
0.577374
0.46401
0.470605
0.486986
0.496014
0.499628
0.492927
0.49132
0.495337
0.50308
0.504478
0.477755
0.440091
0.399179
0.364908
0.367001
0.394533
0.392561
0.346113
0.242468
0.15531
0.140786
0.14845
0.158861
0.166871
0.197221
0.200995
0.275591
0.777041
1.50038
1.33466
0.564296
0.281443
0.222769
0.228748
0.257378
0.270726
0.25394
0.222409
0.377555
0.490714
0.384121
0.346521
0.350528
0.29038
0.241688
0.181978
0.14398
0.120796
0.111242
0.110946
0.116003
0.115303
0.0931849
0.0777105
0.0782736
0.0862262
0.117687
0.212913
0.496472
0.64557
0.608516
0.532973
0.344555
0.22837
0.184177
0.184067
0.22587
0.353071
0.504424
0.487987
0.152223
0.301798
0.292777
0.174043
0.389748
0.486466
0.486079
0.504773
2.56546
2.18782
1.8899
1.66313
1.48381
1.35126
1.23304
1.14096
1.09991
1.06012
1.0392
1.0435
1.05087
1.04827
1.03832
1.02535
0.998723
0.960946
0.886976
0.720365
0.47525
0.374019
0.385007
0.430284
0.4567
0.466156
0.468928
0.477661
0.483734
0.487723
0.503042
0.514124
0.506162
0.476889
0.45133
0.442678
0.436236
0.402993
0.29333
0.19319
0.131923
0.106961
0.111882
0.143378
0.161783
0.197021
0.373788
0.356437
0.354089
0.556235
1.38377
1.71842
1.05838
0.493821
0.291286
0.246989
0.272867
0.31266
0.313955
0.245093
0.36238
0.585685
0.469413
0.451229
0.396093
0.293835
0.207513
0.147737
0.122319
0.119471
0.128186
0.156559
0.165678
0.153313
0.131795
0.130724
0.141823
0.189373
0.323763
0.655989
0.738808
0.706308
0.461593
0.281468
0.175631
0.151807
0.146114
0.149573
0.175401
0.297296
0.551147
0.57676
0.317751
0.433262
0.434247
0.20317
0.454212
0.65624
0.621429
0.513177
3.07794
2.44277
2.0241
1.74401
1.55433
1.4214
1.325
1.26428
1.22327
1.18284
1.15659
1.14368
1.11647
1.08166
1.04107
0.972082
0.879438
0.737085
0.538348
0.354003
0.267346
0.278865
0.352053
0.424001
0.456156
0.465987
0.458638
0.454893
0.458503
0.471581
0.493793
0.504814
0.502762
0.480275
0.455418
0.426365
0.348245
0.226107
0.142359
0.111149
0.104544
0.10975
0.119692
0.169004
0.228436
0.402401
0.861747
0.820179
0.568498
0.580529
1.05146
1.79427
1.75548
1.17765
0.609375
0.376368
0.284808
0.328907
0.364917
0.307965
0.308403
0.525237
0.473717
0.449774
0.324899
0.239231
0.170521
0.156142
0.156177
0.189252
0.284482
0.350622
0.364477
0.365403
0.374173
0.396094
0.473026
0.722272
0.915203
0.911687
0.809296
0.465662
0.258333
0.159127
0.129384
0.127556
0.137141
0.144838
0.160246
0.244989
0.551231
0.660634
0.562199
0.913758
0.843512
0.302724
0.716835
1.00324
0.941166
0.61716
3.09408
2.33582
1.92562
1.69783
1.55484
1.4564
1.38682
1.3338
1.28232
1.22729
1.17337
1.11028
1.02988
0.935615
0.819048
0.675931
0.507363
0.335467
0.212765
0.163709
0.173845
0.243434
0.367616
0.528115
0.666873
0.725777
0.67848
0.567953
0.458926
0.408231
0.415308
0.428167
0.436208
0.419327
0.360931
0.301244
0.247236
0.222846
0.220716
0.234806
0.294079
0.322871
0.31782
0.381352
0.667399
1.35403
1.47282
1.38885
1.03577
0.925351
0.986882
1.55306
1.96162
2.01201
1.90459
1.35846
0.716919
0.543357
0.627667
0.337998
0.28475
0.394938
0.389756
0.402396
0.317508
0.34374
0.379173
0.540743
0.665988
0.958041
1.071
1.16851
1.15541
1.16126
1.20842
1.26055
1.27532
1.27843
1.16975
0.813574
0.479035
0.282876
0.234775
0.198747
0.193148
0.188216
0.213476
0.268874
0.31322
0.436641
0.595954
0.773282
0.891202
1.48372
1.94417
1.01447
1.21752
0.975068
0.915362
0.737484
2.03842
1.63898
1.45712
1.34416
1.25073
1.16563
1.08334
1.0066
0.930646
0.849944
0.76474
0.670376
0.561752
0.445033
0.329279
0.230196
0.160428
0.122087
0.111961
0.120062
0.146737
0.193806
0.285258
0.489965
0.86587
1.36732
1.77558
1.95744
1.81851
1.37477
0.912039
0.564
0.359317
0.265425
0.241954
0.29964
0.423642
0.542054
0.648176
0.72569
0.830699
0.895374
0.975295
1.38475
2.04405
1.89296
1.25761
1.22848
1.58613
2.33572
2.54224
2.00864
1.26182
1.80336
3.09377
3.87334
3.76762
3.10876
2.66415
0.836713
0.787841
0.336116
0.355586
0.640033
0.961493
1.83064
2.22243
2.82903
2.9159
2.97226
2.75261
2.56128
2.21651
2.04793
1.83129
1.70533
1.39438
1.08563
0.72356
0.539619
0.404949
0.33723
0.309059
0.336146
0.37479
0.505329
0.800015
1.27115
1.48231
2.09674
1.33191
1.27679
0.960988
1.80279
4.29226
2.68401
2.08067
0.698786
1.80347
1.87883
0.0257706
0.0245175
0.0695731
0.26767
0.246248
0.120709
0.109766
0.127401
0.184566
0.404209
0.446064
0.370834
0.197657
0.393241
0.719217
0.938728
1.49763
2.08933
2.3644
2.27053
1.95182
1.16775
0.691098
0.538593
0.415276
0.403074
0.32419
0.347427
0.476226
0.750608
1.17456
1.42089
1.16322
1.33788
3.30226
4.22927
4.46665
3.98173
2.31359
1.33823
0.776278
0.526262
0.475092
0.659431
1.11142
1.81171
2.76039
4.00708
5.43099
6.54927
6.74993
6.103
3.94905
1.98662
0.903428
0.445567
0.267245
0.169798
0.123275
0.111331
0.111311
0.100115
0.088835
0.0969524
0.134827
0.212857
0.374866
0.392405
0.296065
0.20816
0.214306
0.226414
0.390048
0.843645
1.27416
1.8973
2.42823
2.65262
2.08236
1.57291
1.43817
0.783121
0.546763
0.362453
0.265742
0.227433
0.231508
0.272658
0.334569
0.377894
0.363341
0.271714
0.201006
0.179563
0.179573
0.179283
0.170563
0.135505
0.0815245
0.0259361
0.0370216
0.0372952
0.101661
0.0988047
0.133275
0.117932
0.0852499
0.0719131
0.0750314
0.0815451
0.122779
0.200282
0.247861
0.523552
0.685616
0.83884
0.956732
0.916842
0.759416
0.579483
0.54872
0.595754
0.608672
0.69337
0.711841
0.44068
0.357141
0.369583
0.358358
0.337286
0.365916
0.555688
1.75164
2.65907
2.6681
1.57603
1.05477
0.619885
0.347246
0.310798
0.338756
0.346961
0.321816
0.326446
0.364936
0.436611
0.562372
0.79003
1.0904
1.5289
2.57333
4.00445
4.17103
3.87493
2.41071
0.901233
0.296081
0.12691
0.0881903
0.0847868
0.0736389
0.0605439
0.0691976
0.0823001
0.097369
0.119879
0.136898
0.205294
0.204743
0.191952
0.270653
0.532242
0.723943
0.809893
0.8436
0.920087
0.749636
0.666486
0.256416
0.239838
0.211148
0.17993
0.180015
0.172772
0.177298
0.177239
0.188018
0.207518
0.243327
0.320455
0.499679
0.644269
0.644457
0.497537
0.340552
0.231949
0.194669
0.17191
0.114339
0.0441415
0.0425897
0.051421
0.0851447
0.0735147
0.0807947
0.0995861
0.0834572
0.0715232
0.0727354
0.0747056
0.0834096
0.120945
0.257921
0.489219
0.500883
0.601535
0.616611
0.457212
0.39159
0.365335
0.370664
0.461248
0.556781
0.715849
0.841268
0.783399
0.43487
0.295661
0.219611
0.207574
0.285312
0.928424
2.15044
2.2015
0.935392
0.433983
0.280982
0.212816
0.175841
0.170573
0.219946
0.236359
0.214343
0.185862
0.185754
0.204979
0.258499
0.279368
0.288342
0.306235
0.396923
0.729053
1.81529
2.99735
2.92011
2.17194
0.799508
0.248444
0.109547
0.0769496
0.0590163
0.0541731
0.0641506
0.0752134
0.0826995
0.102622
0.122525
0.116812
0.129837
0.19524
0.344855
0.518858
0.544616
0.401823
0.333495
0.324908
0.238267
0.230969
0.172983
0.168421
0.187048
0.16077
0.182353
0.169753
0.170867
0.160294
0.148208
0.134132
0.134775
0.144999
0.186647
0.321372
0.533237
0.542475
0.455701
0.237091
0.128893
0.105787
0.0965115
0.053239
0.0461708
0.0786731
0.0816608
0.0680506
0.0680917
0.0916286
0.0796289
0.0818969
0.094384
0.101322
0.0995175
0.123301
0.273453
0.482923
0.469309
0.490421
0.411088
0.308766
0.28434
0.276348
0.282885
0.330929
0.371803
0.468123
0.671977
0.859879
0.766817
0.395097
0.227789
0.223016
0.441253
1.33693
2.01495
1.11313
0.393325
0.230765
0.189523
0.147448
0.136203
0.136628
0.166009
0.194724
0.183049
0.144618
0.14321
0.181725
0.270361
0.286902
0.279697
0.258419
0.231703
0.249203
0.421456
1.03874
2.2693
2.24921
1.68536
0.589039
0.188458
0.0890363
0.0612593
0.0597644
0.0696976
0.073064
0.075616
0.0798763
0.107445
0.102396
0.115417
0.198612
0.338893
0.403077
0.276715
0.20974
0.182323
0.173787
0.151419
0.171408
0.178494
0.169326
0.189367
0.170668
0.181989
0.172133
0.173249
0.166416
0.151577
0.124052
0.109587
0.110839
0.11353
0.134858
0.215274
0.416071
0.419345
0.32714
0.157774
0.097103
0.0828765
0.0516124
0.0505418
0.0926735
0.0843974
0.0636631
0.0630432
0.091752
0.0816078
0.0972395
0.129136
0.143444
0.142701
0.152362
0.308519
0.481001
0.423449
0.332752
0.267747
0.244938
0.255467
0.272259
0.282817
0.315014
0.308105
0.334306
0.40516
0.613419
0.792956
0.499035
0.277825
0.286073
0.634606
1.40282
1.58908
0.56674
0.237468
0.179643
0.161571
0.12707
0.121255
0.128731
0.137022
0.150226
0.16418
0.133715
0.132623
0.209306
0.375398
0.413532
0.397859
0.360911
0.284342
0.221298
0.227173
0.352664
0.91994
1.86532
1.79671
1.17228
0.378637
0.13136
0.0722878
0.0733964
0.081615
0.0779697
0.0757497
0.076955
0.0897057
0.0944479
0.11033
0.196393
0.296353
0.283276
0.168336
0.144997
0.142489
0.142674
0.151826
0.165506
0.168925
0.171517
0.188938
0.1699
0.167031
0.146801
0.14744
0.150343
0.142077
0.123412
0.0967473
0.0910077
0.102222
0.102566
0.120011
0.185873
0.323999
0.323141
0.242041
0.11996
0.0739262
0.051462
0.0575897
0.0981047
0.0847273
0.0606327
0.0607709
0.0939949
0.0874099
0.130715
0.172439
0.192929
0.187044
0.190939
0.323797
0.462857
0.343797
0.260477
0.244039
0.266563
0.291353
0.302854
0.290425
0.32129
0.310114
0.29176
0.300572
0.404278
0.522129
0.57392
0.311025
0.335692
0.763135
1.36709
1.06416
0.332395
0.171715
0.144453
0.127863
0.118679
0.115483
0.127972
0.126629
0.132424
0.152887
0.131576
0.131807
0.255787
0.45433
0.49457
0.486853
0.448309
0.406876
0.301522
0.222328
0.227116
0.365373
1.02393
1.58031
1.42561
0.730681
0.231665
0.100331
0.0900651
0.0974328
0.0917185
0.0837327
0.08044
0.0881094
0.0926412
0.107973
0.190196
0.238288
0.217356
0.132385
0.122616
0.145096
0.145293
0.164117
0.16476
0.154146
0.156199
0.164331
0.15343
0.13909
0.105196
0.0934633
0.102897
0.112245
0.114289
0.099266
0.0784163
0.0807003
0.0971053
0.0999082
0.116557
0.187852
0.288329
0.282655
0.177645
0.0718854
0.0431808
0.0650524
0.0997997
0.0843528
0.0581976
0.0586654
0.101901
0.102701
0.180132
0.208795
0.232403
0.219251
0.214453
0.319732
0.417584
0.288435
0.237909
0.238127
0.266266
0.289544
0.293855
0.269772
0.266489
0.301637
0.278607
0.253747
0.312443
0.45477
0.581988
0.386433
0.40746
0.819152
1.24538
0.691568
0.240293
0.153491
0.120783
0.105966
0.110855
0.115255
0.136875
0.124748
0.129826
0.147452
0.132995
0.1388
0.259741
0.460109
0.496935
0.490535
0.450887
0.422995
0.386725
0.277201
0.215258
0.234469
0.434872
1.15132
1.32443
1.0576
0.420508
0.166648
0.118525
0.120295
0.113288
0.0967442
0.0873942
0.0932119
0.0934171
0.105424
0.182866
0.218946
0.163077
0.113639
0.107466
0.143599
0.147848
0.179368
0.134459
0.122965
0.114981
0.108531
0.111255
0.104889
0.0732807
0.0621069
0.0700888
0.0840714
0.0878807
0.0956867
0.0840672
0.0739808
0.0856466
0.09235
0.10049
0.125761
0.216205
0.27106
0.237748
0.0973625
0.0508182
0.0735162
0.102403
0.0852378
0.0567736
0.0593499
0.123514
0.131204
0.208555
0.227478
0.241238
0.223919
0.219725
0.303871
0.37066
0.25422
0.215868
0.217182
0.246314
0.264356
0.254251
0.258406
0.206687
0.251475
0.247195
0.234794
0.264522
0.414573
0.50443
0.525675
0.490043
0.847463
1.05278
0.482876
0.21021
0.162497
0.122641
0.0984454
0.107003
0.11788
0.140633
0.128055
0.13209
0.146131
0.14175
0.147655
0.259771
0.439684
0.460871
0.442569
0.401539
0.385214
0.379666
0.340556
0.234558
0.208891
0.260901
0.658758
1.14538
1.10017
0.688925
0.291828
0.167574
0.146106
0.134601
0.11901
0.0993249
0.0965904
0.101103
0.107435
0.161624
0.21454
0.149654
0.112907
0.100546
0.126565
0.135602
0.157093
0.133957
0.110983
0.100615
0.0883128
0.0950348
0.0938273
0.0648754
0.0552335
0.0655491
0.0787405
0.0797208
0.0796425
0.0877381
0.0751024
0.074366
0.0913226
0.098913
0.109514
0.156608
0.246952
0.239673
0.13499
0.0580886
0.0814006
0.107712
0.0878376
0.0570414
0.0649347
0.131483
0.149853
0.216484
0.234324
0.240166
0.22217
0.218958
0.284474
0.330691
0.228171
0.196422
0.211697
0.258887
0.279189
0.228384
0.24824
0.178208
0.218543
0.231449
0.229076
0.250254
0.327815
0.478101
0.657222
0.585414
0.875784
0.860991
0.389664
0.198486
0.164945
0.12309
0.0986068
0.104822
0.126242
0.140839
0.133714
0.135038
0.150317
0.154646
0.158345
0.290008
0.440063
0.435991
0.339871
0.293599
0.295622
0.318785
0.323511
0.278021
0.205062
0.209351
0.349548
0.878125
1.04753
0.883519
0.430956
0.235546
0.177014
0.151209
0.13418
0.118528
0.107708
0.11021
0.111879
0.139048
0.18727
0.144593
0.115491
0.104018
0.118924
0.114076
0.12914
0.12491
0.109761
0.105172
0.0850655
0.0925557
0.0921594
0.0650946
0.0546311
0.0680346
0.0801871
0.079509
0.0729851
0.0789955
0.0750568
0.0713558
0.0858915
0.100391
0.106212
0.126721
0.212308
0.250814
0.149098
0.0644233
0.0895833
0.114537
0.0920677
0.0637763
0.0700389
0.132957
0.156829
0.214021
0.223017
0.224899
0.218155
0.214216
0.263432
0.294379
0.207601
0.184647
0.215929
0.259912
0.266376
0.188388
0.184673
0.154356
0.145279
0.196739
0.225966
0.248662
0.306684
0.451214
0.669614
0.712849
0.8826
0.754411
0.354684
0.189236
0.150274
0.120072
0.103729
0.11184
0.134721
0.142313
0.140966
0.136831
0.156017
0.166385
0.172677
0.357835
0.472889
0.439681
0.286057
0.216026
0.208966
0.235461
0.276247
0.272491
0.21776
0.194103
0.238353
0.57778
0.918601
0.880097
0.605725
0.321208
0.210691
0.167777
0.144565
0.128167
0.124273
0.113477
0.117616
0.139103
0.145027
0.120252
0.100559
0.103145
0.125938
0.105591
0.117201
0.132808
0.0999547
0.112474
0.0886583
0.0934068
0.0924295
0.0721142
0.0573293
0.0681703
0.0855232
0.0853609
0.0773227
0.0657634
0.0692313
0.0672583
0.0791437
0.108907
0.11256
0.120902
0.187845
0.248633
0.183378
0.0755183
0.0971705
0.122752
0.100005
0.0697657
0.0760328
0.132073
0.157913
0.207325
0.208532
0.20323
0.207765
0.213054
0.235733
0.253176
0.193117
0.184291
0.225619
0.242899
0.244942
0.181126
0.153416