/*--------------------------------*- C++ -*----------------------------------*\
| =========                 |                                                 |
| \\      /  F ield         | OpenFOAM: The Open Source CFD Toolbox           |
|  \\    /   O peration     | Version:  2.4.0                                 |
|   \\  /    A nd           | Web:      www.OpenFOAM.org                      |
|    \\/     M anipulation  |                                                 |
\*---------------------------------------------------------------------------*/
FoamFile
{
    version     2.0;
    format      ascii;
    class       surfaceScalarField;
    location    "0.194";
    object      phi_0;
}
// * * * * * * * * * * * * * * * * * * * * * * * * * * * * * * * * * * * * * //

dimensions      [0 3 -1 0 0 0 0];

internalField   nonuniform List<scalar> 
8640
(
1.14659e-05
1.35341e-05
7.17406e-06
4.29182e-06
5.91865e-06
1.25541e-06
5.37415e-06
5.44507e-07
5.09147e-06
2.82676e-07
4.95767e-06
1.33795e-07
4.81705e-06
1.40622e-07
4.82925e-06
-1.21973e-08
4.49961e-06
3.2964e-07
-1.84124e-06
6.34085e-06
2.105e-05
1.74841e-05
1.74487e-05
7.89318e-06
1.55175e-05
3.18654e-06
1.42633e-05
1.79874e-06
1.34805e-05
1.06554e-06
1.30627e-05
5.51593e-07
1.26645e-05
5.38781e-07
1.26255e-05
2.68039e-08
1.22414e-05
7.13749e-07
-2.39941e-06
1.27996e-05
2.57008e-05
1.67833e-05
2.40968e-05
9.49714e-06
2.26178e-05
4.66558e-06
2.12477e-05
3.16879e-06
2.02129e-05
2.10041e-06
1.96162e-05
1.14826e-06
1.9025e-05
1.12998e-06
1.89086e-05
1.43261e-07
1.86952e-05
9.27072e-07
-2.21816e-06
1.8514e-05
2.74655e-05
1.43178e-05
2.77235e-05
9.2391e-06
2.7377e-05
5.01207e-06
2.65435e-05
4.00233e-06
2.56398e-05
3.00412e-06
2.50535e-05
1.73454e-06
2.44098e-05
1.77369e-06
2.41829e-05
3.70157e-07
2.42019e-05
9.08018e-07
-2.09852e-06
2.40823e-05
2.76728e-05
1.1645e-05
2.88857e-05
8.02616e-06
2.96088e-05
4.28897e-06
2.97062e-05
3.90495e-06
2.93806e-05
3.3297e-06
2.90759e-05
2.03928e-06
2.86146e-05
2.23501e-06
2.83602e-05
6.24508e-07
2.85443e-05
7.23944e-07
-2.44397e-06
2.88897e-05
2.75358e-05
9.1093e-06
2.89199e-05
6.642e-06
2.99907e-05
3.21819e-06
3.07227e-05
3.17293e-06
3.1122e-05
2.93037e-06
3.128e-05
1.88134e-06
3.12529e-05
2.26208e-06
3.11924e-05
6.85014e-07
3.15434e-05
3.72947e-07
-2.20783e-06
3.13073e-05
2.74354e-05
6.67391e-06
2.88914e-05
5.18594e-06
2.98385e-05
2.27115e-06
3.06876e-05
2.32385e-06
3.14715e-05
2.14647e-06
3.18509e-05
1.50191e-06
3.22437e-05
1.86931e-06
3.2505e-05
4.23686e-07
3.30172e-05
-1.39306e-07
-1.1514e-06
3.19608e-05
2.73732e-05
4.30068e-06
2.90002e-05
3.55896e-06
2.96775e-05
1.59392e-06
3.056e-05
1.44131e-06
3.13636e-05
1.34286e-06
3.18463e-05
1.01917e-06
3.24372e-05
1.27845e-06
3.28128e-05
4.80936e-08
3.33125e-05
-6.38992e-07
-1.19972e-06
3.33608e-05
2.7258e-05
2.04263e-06
2.89185e-05
1.8985e-06
2.96919e-05
8.20539e-07
3.0513e-05
6.20206e-07
3.11953e-05
6.60502e-07
3.18124e-05
4.02162e-07
3.23627e-05
7.28108e-07
3.27648e-05
-3.54012e-07
3.32012e-05
-1.07541e-06
-1.30619e-06
3.33077e-05
2.71835e-05
-1.40896e-07
2.894e-05
1.42034e-07
2.97284e-05
3.21352e-08
3.04522e-05
-1.03567e-07
3.11171e-05
-4.45799e-09
3.17315e-05
-2.12165e-07
3.23154e-05
1.44159e-07
3.27909e-05
-8.29494e-07
3.31783e-05
-1.46283e-06
-1.72935e-06
3.36015e-05
2.72057e-05
-2.34664e-06
2.89386e-05
-1.5908e-06
2.96738e-05
-7.03119e-07
3.0439e-05
-8.6869e-07
3.11405e-05
-7.05971e-07
3.17742e-05
-8.45934e-07
3.23397e-05
-4.21333e-07
3.27322e-05
-1.22196e-06
3.31328e-05
-1.86342e-06
-2.30156e-06
3.3705e-05
2.72398e-05
-4.58643e-06
2.89119e-05
-3.26294e-06
2.97002e-05
-1.49143e-06
3.05118e-05
-1.68024e-06
3.12088e-05
-1.40298e-06
3.1782e-05
-1.41912e-06
3.23172e-05
-9.56556e-07
3.2739e-05
-1.64378e-06
3.31824e-05
-2.30678e-06
-2.83882e-06
3.37196e-05
2.72946e-05
-6.88104e-06
2.89541e-05
-4.92241e-06
2.97846e-05
-2.32196e-06
3.05582e-05
-2.45386e-06
3.12525e-05
-2.09729e-06
3.18211e-05
-1.98768e-06
3.23971e-05
-1.5325e-06
3.27851e-05
-2.03181e-06
3.31521e-05
-2.67376e-06
-3.31757e-06
3.36308e-05
2.73708e-05
-9.25188e-06
2.88752e-05
-6.42676e-06
2.98677e-05
-3.31446e-06
3.06612e-05
-3.24737e-06
3.1379e-05
-2.81511e-06
3.18532e-05
-2.4619e-06
3.22956e-05
-1.97481e-06
3.24867e-05
-2.22293e-06
3.26407e-05
-2.82779e-06
-3.49701e-06
3.28201e-05
2.74712e-05
-1.17231e-05
2.89242e-05
-7.87977e-06
2.99917e-05
-4.38197e-06
3.0703e-05
-3.95869e-06
3.11253e-05
-3.23743e-06
3.12234e-05
-2.55999e-06
3.12688e-05
-2.02016e-06
3.10948e-05
-2.04894e-06
3.0872e-05
-2.605e-06
-3.22826e-06
3.06033e-05
2.76331e-05
-1.43562e-05
2.89082e-05
-9.15487e-06
2.96088e-05
-5.0825e-06
2.96886e-05
-4.03853e-06
2.94018e-05
-2.95064e-06
2.89722e-05
-2.13039e-06
2.85905e-05
-1.63846e-06
2.81261e-05
-1.58453e-06
2.76092e-05
-2.0881e-06
-2.08628e-06
2.64672e-05
2.74462e-05
-1.68024e-05
2.77455e-05
-9.45414e-06
2.73696e-05
-4.70667e-06
2.65266e-05
-3.19547e-06
2.565e-05
-2.07411e-06
2.49287e-05
-1.40907e-06
2.4361e-05
-1.07075e-06
2.38145e-05
-1.038e-06
2.31883e-05
-1.46189e-06
-1.35186e-06
2.24538e-05
2.56906e-05
-1.7493e-05
2.41111e-05
-7.87463e-06
2.26084e-05
-3.20393e-06
2.1232e-05
-1.81906e-06
2.02091e-05
-1.05127e-06
1.94954e-05
-6.95342e-07
1.89518e-05
-5.27162e-07
1.84583e-05
-5.44518e-07
1.78142e-05
-8.17775e-07
-6.49979e-07
1.71124e-05
2.1044e-05
-1.3537e-05
1.74562e-05
-4.28686e-06
1.55112e-05
-1.25893e-06
1.42476e-05
-5.5543e-07
1.34711e-05
-2.74853e-07
1.29624e-05
-1.86587e-07
1.25774e-05
-1.4214e-07
1.22049e-05
-1.72019e-07
1.16644e-05
-2.7734e-07
-1.7325e-07
1.11877e-05
1.1463e-05
7.17615e-06
5.91722e-06
5.36179e-06
5.08694e-06
4.90035e-06
4.75821e-06
4.58619e-06
4.30885e-06
4.1356e-06
7.3494e-06
-3.26304e-07
-6.82243e-07
7.89288e-06
2.31523e-07
-7.75013e-07
8.61556e-06
3.44878e-07
-1.06756e-06
8.63876e-06
-1.36125e-06
1.33806e-06
9.01318e-06
-1.78117e-06
1.40675e-06
9.46344e-06
-1.56839e-06
1.11813e-06
9.54237e-06
-3.06048e-06
2.98155e-06
9.6982e-06
-1.83195e-06
1.67611e-06
1.04898e-05
-1.05566e-06
2.64107e-07
1.12293e-05
4.91569e-07
-1.23115e-06
1.21959e-05
2.55582e-06
-3.52235e-06
1.41378e-05
2.93459e-06
-4.87657e-06
1.62774e-05
3.8402e-06
-5.97978e-06
1.80317e-05
3.47492e-06
-5.22916e-06
1.93614e-05
1.28348e-06
-2.61322e-06
2.08171e-05
-1.79706e-06
3.41322e-07
2.23409e-05
-5.58835e-06
4.0646e-06
2.36806e-05
-9.9761e-06
8.63645e-06
2.51552e-05
-1.33087e-05
1.18341e-05
2.67944e-05
-1.61159e-05
1.44767e-05
2.86584e-05
-1.99711e-05
1.81071e-05
3.00001e-05
-2.01135e-05
1.87718e-05
3.10821e-05
-1.95746e-05
1.84926e-05
3.25227e-05
-2.22046e-05
2.07641e-05
3.25939e-05
-2.2619e-05
2.25477e-05
3.13759e-05
-2.06402e-05
2.18582e-05
3.01829e-05
-1.75987e-05
1.87917e-05
2.86708e-05
-1.2975e-05
1.44871e-05
2.74509e-05
-7.39821e-06
8.61814e-06
2.65518e-05
-1.19998e-06
2.0991e-06
2.5604e-05
6.40425e-06
-5.45651e-06
2.58718e-05
1.4924e-05
-1.51918e-05
2.71601e-05
2.05927e-05
-2.18809e-05
2.7961e-05
2.14123e-05
-2.22133e-05
2.78101e-05
1.83394e-05
-1.81884e-05
2.73938e-05
1.31102e-05
-1.2694e-05
2.7118e-05
8.96656e-06
-8.69072e-06
2.68439e-05
2.72554e-06
-2.45143e-06
2.61996e-05
-9.6899e-06
1.03342e-05
2.49113e-05
-1.82506e-05
1.95389e-05
2.26425e-05
-1.79815e-05
2.02503e-05
2.03094e-05
-1.91873e-05
2.15204e-05
1.87126e-05
-2.05886e-05
2.21854e-05
1.75462e-05
-1.23301e-05
1.34965e-05
1.63734e-05
-1.88413e-06
3.0569e-06
1.48335e-05
-2.52779e-06
4.06773e-06
1.24068e-05
-1.63107e-05
1.87374e-05
9.7579e-06
-3.82608e-05
4.09097e-05
8.81432e-06
-5.60162e-05
5.69598e-05
9.86062e-06
-5.55637e-05
5.45174e-05
1.07527e-05
-5.10937e-05
5.02016e-05
1.27212e-05
-4.27545e-05
4.0786e-05
1.41902e-05
-2.95389e-05
2.80698e-05
1.51031e-05
-1.55535e-05
1.46405e-05
1.71591e-05
3.07119e-06
-5.12717e-06
1.87405e-05
1.95655e-05
-2.11469e-05
1.94796e-05
2.41335e-05
-2.48725e-05
2.11677e-05
2.49715e-05
-2.66597e-05
2.45062e-05
3.31841e-05
-3.65226e-05
2.70872e-05
4.67336e-05
-4.93146e-05
2.77649e-05
5.45102e-05
-5.51879e-05
2.66443e-05
5.48453e-05
-5.37247e-05
2.43186e-05
4.80932e-05
-4.57675e-05
2.13879e-05
3.90173e-05
-3.60866e-05
1.91062e-05
2.81814e-05
-2.58998e-05
1.62909e-05
2.24749e-05
-1.96596e-05
1.44247e-05
1.06982e-05
-8.83196e-06
1.37604e-05
8.52784e-06
-7.86352e-06
1.38715e-05
-3.60681e-06
3.49568e-06
1.42219e-05
3.43937e-06
-3.78973e-06
1.40723e-05
-6.31192e-06
6.46148e-06
1.57345e-05
3.45927e-06
-5.12149e-06
1.74259e-05
1.29049e-06
-2.98183e-06
2.06155e-05
8.52289e-06
-1.17125e-05
2.08337e-05
8.07742e-06
-8.29562e-06
2.24134e-05
5.26929e-06
-6.84904e-06
2.44579e-05
5.85702e-06
-7.90149e-06
2.47734e-05
-4.13895e-07
9.83634e-08
2.45483e-05
-7.73925e-06
7.9644e-06
2.31773e-05
-1.3046e-05
1.4417e-05
2.1568e-05
-2.11701e-05
2.27793e-05
2.11512e-05
-1.59222e-05
1.6339e-05
2.02465e-05
-1.78914e-05
1.87961e-05
1.9971e-05
-1.6023e-05
1.62984e-05
2.01784e-05
-1.19344e-05
1.1727e-05
2.01985e-05
-1.45381e-05
1.4518e-05
2.00199e-05
-2.58647e-05
2.60432e-05
1.84294e-05
-1.71715e-05
1.87621e-05
1.81084e-05
-7.22293e-06
7.54393e-06
1.75612e-05
-4.13064e-06
4.67786e-06
1.95227e-05
-9.25458e-06
7.29304e-06
2.12448e-05
-4.36383e-06
2.64179e-06
2.16685e-05
-3.38284e-06
2.95913e-06
2.16156e-05
-3.88843e-07
4.41694e-07
2.18801e-05
9.61599e-06
-9.88051e-06
2.0679e-05
2.04578e-05
-1.92567e-05
2.09878e-05
2.87731e-05
-2.90819e-05
1.88249e-05
4.59821e-05
-4.38193e-05
1.76201e-05
5.6517e-05
-5.53122e-05
8.41299e-05
-8.17941e-05
1.52843e-05
1.35999e-05
-1.1266e-06
1.38186e-05
1.27324e-08
1.40592e-05
1.04311e-07
1.41649e-05
-1.4669e-06
1.44688e-05
-2.08509e-06
1.49748e-05
-2.07439e-06
1.51492e-05
-3.23491e-06
1.52432e-05
-1.92597e-06
1.54578e-05
-1.27024e-06
1.61033e-05
-1.53972e-07
1.67512e-05
1.90793e-06
1.75228e-05
2.16302e-06
1.90876e-05
2.27543e-06
2.11391e-05
1.4234e-06
2.26978e-05
-2.75215e-07
2.42443e-05
-3.34357e-06
2.6133e-05
-7.47704e-06
2.75809e-05
-1.1424e-05
2.90359e-05
-1.47637e-05
3.03367e-05
-1.74167e-05
3.14991e-05
-2.11335e-05
3.25243e-05
-2.11387e-05
3.30661e-05
-2.01163e-05
3.37425e-05
-2.2881e-05
3.33201e-05
-2.21966e-05
3.1916e-05
-1.92361e-05
3.08196e-05
-1.65023e-05
2.96947e-05
-1.18501e-05
2.85958e-05
-6.29933e-06
2.77406e-05
-3.44757e-07
2.69168e-05
7.22804e-06
2.68482e-05
1.49925e-05
2.78049e-05
1.9636e-05
2.85462e-05
2.0671e-05
2.85396e-05
1.8346e-05
2.83479e-05
1.33019e-05
2.81341e-05
9.18038e-06
2.79537e-05
2.90596e-06
2.72325e-05
-8.96877e-06
2.56518e-05
-1.66699e-05
2.32512e-05
-1.55809e-05
2.09198e-05
-1.68559e-05
1.93583e-05
-1.90271e-05
1.82088e-05
-1.11806e-05
1.69416e-05
-6.1695e-07
1.53611e-05
-9.47302e-07
1.29943e-05
-1.39438e-05
1.03034e-05
-3.557e-05
8.22886e-06
-5.39417e-05
8.79993e-06
-5.61347e-05
9.60383e-06
-5.18975e-05
1.10774e-05
-4.4228e-05
1.27635e-05
-3.1225e-05
1.39728e-05
-1.67628e-05
1.58833e-05
1.16072e-06
1.75845e-05
1.78643e-05
1.84696e-05
2.32484e-05
1.98357e-05
2.36054e-05
2.30651e-05
2.99547e-05
2.60488e-05
4.375e-05
2.71745e-05
5.33846e-05
2.6628e-05
5.53917e-05
2.50436e-05
4.96777e-05
2.24166e-05
4.16443e-05
2.06292e-05
2.99688e-05
1.88094e-05
2.42947e-05
1.63054e-05
1.32021e-05
1.54931e-05
9.34022e-06
1.55015e-05
-3.61525e-06
1.61441e-05
2.79672e-06
1.57161e-05
-5.88387e-06
1.76034e-05
1.57195e-06
1.8641e-05
2.52914e-07
2.17813e-05
5.38262e-06
2.25121e-05
7.34661e-06
2.34273e-05
4.35407e-06
2.5549e-05
3.73528e-06
2.57972e-05
-6.62038e-07
2.53394e-05
-7.28145e-06
2.39836e-05
-1.16902e-05
2.21534e-05
-1.93399e-05
2.18871e-05
-1.56559e-05
2.09854e-05
-1.69897e-05
2.04959e-05
-1.55335e-05
2.07788e-05
-1.22172e-05
2.11809e-05
-1.49402e-05
2.0671e-05
-2.53548e-05
1.83667e-05
-1.48673e-05
1.83813e-05
-7.23755e-06
1.80272e-05
-3.77655e-06
1.98976e-05
-1.11249e-05
2.12785e-05
-5.74474e-06
2.20964e-05
-4.20075e-06
2.16984e-05
9.13426e-09
2.25111e-05
8.8033e-06
2.08318e-05
2.21371e-05
2.21807e-05
2.74242e-05
2.08078e-05
4.7355e-05
2.32225e-05
5.41022e-05
8.61097e-05
2.12427e-05
1.90075e-05
-1.62015e-06
1.92852e-05
-2.64976e-07
1.9357e-05
3.25377e-08
1.93635e-05
-1.47342e-06
1.98324e-05
-2.554e-06
2.04065e-05
-2.64846e-06
2.04103e-05
-3.23872e-06
2.08744e-05
-2.39003e-06
2.08931e-05
-1.28894e-06
2.10987e-05
-3.59602e-07
2.20556e-05
9.51079e-07
2.26325e-05
1.58608e-06
2.34303e-05
1.47763e-06
2.51652e-05
-3.11527e-07
2.67816e-05
-1.89162e-06
2.81423e-05
-4.70424e-06
2.98012e-05
-9.13591e-06
3.09982e-05
-1.2621e-05
3.21217e-05
-1.58873e-05
3.29905e-05
-1.82855e-05
3.32828e-05
-2.14257e-05
3.39304e-05
-2.17864e-05
3.40666e-05
-2.02525e-05
3.38844e-05
-2.26988e-05
3.30754e-05
-2.13877e-05
3.17349e-05
-1.78956e-05
3.10345e-05
-1.58019e-05
3.03063e-05
-1.11219e-05
2.93987e-05
-5.39166e-06
2.86145e-05
4.3938e-07
2.77981e-05
8.0445e-06
2.75486e-05
1.5242e-05
2.82844e-05
1.89002e-05
2.88613e-05
2.00941e-05
2.90054e-05
1.82019e-05
2.9013e-05
1.32943e-05
2.87946e-05
9.39879e-06
2.8652e-05
3.04854e-06
2.78424e-05
-8.15911e-06
2.60187e-05
-1.48462e-05
2.36267e-05
-1.31889e-05
2.14639e-05
-1.46931e-05
1.99426e-05
-1.75058e-05
1.87391e-05
-9.97706e-06
1.73853e-05
7.36837e-07
1.5918e-05
5.2004e-07
1.37904e-05
-1.18163e-05
1.06549e-05
-3.24345e-05
7.7207e-06
-5.10074e-05
7.69592e-06
-5.611e-05
8.25751e-06
-5.24591e-05
9.55618e-06
-4.55267e-05
1.1256e-05
-3.29248e-05
1.26435e-05
-1.81503e-05
1.44601e-05
-6.55934e-07
1.62889e-05
1.60355e-05
1.76168e-05
2.19205e-05
1.88195e-05
2.24027e-05
2.14995e-05
2.72747e-05
2.46086e-05
4.06408e-05
2.62442e-05
5.1749e-05
2.62498e-05
5.53861e-05
2.54472e-05
5.04802e-05
2.33309e-05
4.37607e-05
2.15652e-05
3.17345e-05
2.07327e-05
2.51272e-05
1.88351e-05
1.50997e-05
1.74662e-05
1.07091e-05
1.68437e-05
-2.99271e-06
1.80814e-05
1.55898e-06
1.73104e-05
-5.11282e-06
1.91476e-05
-2.65249e-07
1.99821e-05
-5.81643e-07
2.2713e-05
2.65178e-06
2.39045e-05
6.15511e-06
2.443e-05
3.8285e-06
2.62251e-05
1.94026e-06
2.63479e-05
-7.84868e-07
2.58051e-05
-6.73862e-06
2.44672e-05
-1.03524e-05
2.272e-05
-1.75927e-05
2.26289e-05
-1.55648e-05
2.17931e-05
-1.61538e-05
2.12477e-05
-1.49881e-05
2.15673e-05
-1.25369e-05
2.19785e-05
-1.53514e-05
2.08454e-05
-2.42217e-05
1.82013e-05
-1.22232e-05
1.85908e-05
-7.62705e-06
1.83221e-05
-3.50783e-06
2.0185e-05
-1.29878e-05
2.09295e-05
-6.48927e-06
2.22883e-05
-5.55955e-06
2.1634e-05
6.63433e-07
2.32451e-05
7.19226e-06
2.11803e-05
2.42019e-05
2.34325e-05
2.51721e-05
2.26759e-05
4.81116e-05
2.73774e-05
4.94007e-05
8.74583e-05
2.60288e-05
2.40053e-05
-1.54314e-06
2.38452e-05
-1.0484e-07
2.40712e-05
-1.93513e-07
2.39815e-05
-1.38367e-06
2.4192e-05
-2.76457e-06
2.50384e-05
-3.4948e-06
2.49779e-05
-3.17828e-06
2.54514e-05
-2.86352e-06
2.58335e-05
-1.67102e-06
2.5767e-05
-2.93139e-07
2.66664e-05
5.16573e-08
2.74667e-05
7.85878e-07
2.80445e-05
8.99829e-07
2.92986e-05
-1.56571e-06
3.06878e-05
-3.28076e-06
3.17153e-05
-5.73176e-06
3.2859e-05
-1.02796e-05
3.36847e-05
-1.34467e-05
3.42672e-05
-1.64698e-05
3.46293e-05
-1.86476e-05
3.42672e-05
-2.10637e-05
3.44841e-05
-2.20032e-05
3.44283e-05
-2.01968e-05
3.36429e-05
-2.19133e-05
3.29224e-05
-2.06672e-05
3.22058e-05
-1.71789e-05
3.1912e-05
-1.55081e-05
3.12711e-05
-1.04809e-05
3.02177e-05
-4.33835e-06
2.91733e-05
1.48384e-06
2.80966e-05
9.12122e-06
2.78241e-05
1.55144e-05
2.84254e-05
1.8299e-05
2.88638e-05
1.96557e-05
2.91083e-05
1.79573e-05
2.91063e-05
1.32964e-05
2.90243e-05
9.48083e-06
2.90153e-05
3.05756e-06
2.80486e-05
-7.1925e-06
2.60332e-05
-1.28308e-05
2.38007e-05
-1.09564e-05
2.18764e-05
-1.27687e-05
2.04824e-05
-1.61119e-05
1.92689e-05
-8.76357e-06
1.78791e-05
2.12666e-06
1.64793e-05
1.91982e-06
1.44532e-05
-9.79014e-06
1.09182e-05
-2.88995e-05
7.6767e-06
-4.77659e-05
7.08194e-06
-5.55152e-05
7.15015e-06
-5.25274e-05
8.14176e-06
-4.65183e-05
9.64455e-06
-3.44276e-05
1.11735e-05
-1.96793e-05
1.30962e-05
-2.57863e-06
1.51011e-05
1.40306e-05
1.65638e-05
2.04578e-05
1.76859e-05
2.12806e-05
2.00887e-05
2.48718e-05
2.31736e-05
3.75559e-05
2.51714e-05
4.97513e-05
2.5569e-05
5.49885e-05
2.54824e-05
5.05669e-05
2.41262e-05
4.51169e-05
2.24247e-05
3.3436e-05
2.19874e-05
2.55645e-05
2.11809e-05
1.59062e-05
2.00506e-05
1.18394e-05
1.84312e-05
-1.37336e-06
1.98671e-05
1.23139e-07
1.90345e-05
-4.28029e-06
2.04049e-05
-1.63567e-06
2.13654e-05
-1.54208e-06
2.35388e-05
4.78337e-07
2.50332e-05
4.66072e-06
2.54598e-05
3.40191e-06
2.68406e-05
5.59475e-07
2.66899e-05
-6.34122e-07
2.59285e-05
-5.97728e-06
2.49183e-05
-9.34221e-06
2.34158e-05
-1.60901e-05
2.33453e-05
-1.54944e-05
2.26278e-05
-1.54363e-05
2.20612e-05
-1.44216e-05
2.23667e-05
-1.28424e-05
2.26572e-05
-1.56418e-05
2.0849e-05
-2.24136e-05
1.82562e-05
-9.63043e-06
1.85818e-05
-7.95262e-06
1.84706e-05
-3.39665e-06
2.03751e-05
-1.48922e-05
2.03182e-05
-6.43239e-06
2.26833e-05
-7.92468e-06
2.13962e-05
1.95056e-06
2.31552e-05
5.43326e-06
2.10474e-05
2.63096e-05
2.47508e-05
2.14686e-05
2.41667e-05
4.86957e-05
3.01977e-05
4.33697e-05
8.75402e-05
3.01158e-05
2.84172e-05
-1.07063e-06
2.78226e-05
4.89747e-07
2.80917e-05
-4.626e-07
2.80741e-05
-1.36603e-06
2.7953e-05
-2.64353e-06
2.86992e-05
-4.2409e-06
2.87268e-05
-3.20595e-06
2.90144e-05
-3.15114e-06
2.95537e-05
-2.21025e-06
2.95206e-05
-2.60116e-07
3.02116e-05
-6.39333e-07
3.1177e-05
-1.7949e-07
3.17239e-05
3.52912e-07
3.2557e-05
-2.39877e-06
3.37554e-05
-4.47917e-06
3.4413e-05
-6.38938e-06
3.48202e-05
-1.06867e-05
3.52956e-05
-1.39221e-05
3.55538e-05
-1.67281e-05
3.54519e-05
-1.85456e-05
3.46211e-05
-2.02328e-05
3.42912e-05
-2.16733e-05
3.41182e-05
-2.00238e-05
3.33412e-05
-2.11364e-05
3.29123e-05
-2.02383e-05
3.2842e-05
-1.71086e-05
3.27954e-05
-1.54615e-05
3.20783e-05
-9.76385e-06
3.1078e-05
-3.33802e-06
2.98796e-05
2.68216e-06
2.84124e-05
1.05885e-05
2.78193e-05
1.61074e-05
2.79773e-05
1.8141e-05
2.83777e-05
1.92553e-05
2.87983e-05
1.75367e-05
2.87544e-05
1.33403e-05
2.88498e-05
9.38536e-06
2.89428e-05
2.96462e-06
2.78867e-05
-6.13639e-06
2.57781e-05
-1.07223e-05
2.3867e-05
-9.04532e-06
2.23069e-05
-1.12086e-05
2.0979e-05
-1.47839e-05
1.96602e-05
-7.44476e-06
1.82116e-05
3.5752e-06
1.68283e-05
3.30315e-06
1.47904e-05
-7.75228e-06
1.11703e-05
-2.52794e-05
7.72006e-06
-4.43157e-05
6.51097e-06
-5.43061e-05
6.18656e-06
-5.22029e-05
6.69671e-06
-4.70284e-05
7.93394e-06
-3.56648e-05
9.50545e-06
-2.12508e-05
1.14262e-05
-4.49936e-06
1.36875e-05
1.17693e-05
1.55606e-05
1.85847e-05
1.68026e-05
2.00386e-05
1.87225e-05
2.29519e-05
2.14834e-05
3.4795e-05
2.39775e-05
4.72572e-05
2.46444e-05
5.43216e-05
2.50103e-05
5.02009e-05
2.45493e-05
4.55779e-05
2.33405e-05
3.46448e-05
2.28584e-05
2.60467e-05
2.26702e-05
1.60944e-05
2.25389e-05
1.19707e-05
2.05212e-05
6.44369e-07
2.14155e-05
-7.71152e-07
2.06571e-05
-3.52188e-06
2.14351e-05
-2.41368e-06
2.25613e-05
-2.66826e-06
2.42539e-05
-1.21433e-06
2.5907e-05
3.0077e-06
2.66214e-05
2.6875e-06
2.73591e-05
-1.78242e-07
2.69784e-05
-2.53425e-07
2.6221e-05
-5.21986e-06
2.55927e-05
-8.71391e-06
2.42921e-05
-1.47895e-05
2.40321e-05
-1.52344e-05
2.33542e-05
-1.47584e-05
2.28833e-05
-1.39507e-05
2.3082e-05
-1.30411e-05
2.30666e-05
-1.56264e-05
2.06238e-05
-1.99707e-05
1.83516e-05
-7.35824e-06
1.83179e-05
-7.91897e-06
1.83417e-05
-3.42048e-06
2.02812e-05
-1.68317e-05
2.0197e-05
-6.34819e-06
2.26876e-05
-1.04153e-05
2.07789e-05
3.85926e-06
2.30082e-05
3.20393e-06
2.05212e-05
2.87967e-05
2.55014e-05
1.64884e-05
2.48844e-05
4.93128e-05
3.18055e-05
3.64486e-05
8.60659e-05
3.32798e-05
3.12192e-05
-9.82579e-07
3.08864e-05
8.22534e-07
3.11537e-05
-7.2992e-07
3.13272e-05
-1.53949e-06
3.10571e-05
-2.37341e-06
3.14216e-05
-4.6054e-06
3.15219e-05
-3.30632e-06
3.15619e-05
-3.19106e-06
3.20095e-05
-2.6579e-06
3.21404e-05
-3.91036e-07
3.25027e-05
-1.00158e-06
3.34059e-05
-1.08273e-06
3.40877e-05
-3.28867e-07
3.45144e-05
-2.82552e-06
3.52977e-05
-5.26239e-06
3.57517e-05
-6.84337e-06
3.57619e-05
-1.0697e-05
3.58366e-05
-1.39969e-05
3.569e-05
-1.65815e-05
3.52033e-05
-1.80589e-05
3.42405e-05
-1.92701e-05
3.37544e-05
-2.11872e-05
3.37096e-05
-1.99789e-05
3.32913e-05
-2.07181e-05
3.3447e-05
-2.0394e-05
3.36321e-05
-1.72937e-05
3.32618e-05
-1.50913e-05
3.22989e-05
-8.80097e-06
3.1323e-05
-2.36207e-06
3.02749e-05
3.73027e-06
2.88182e-05
1.20452e-05
2.77853e-05
1.71403e-05
2.73863e-05
1.854e-05
2.77233e-05
1.89182e-05
2.80971e-05
1.71629e-05
2.8109e-05
1.33284e-05
2.84505e-05
9.04383e-06
2.84802e-05
2.9349e-06
2.73304e-05
-4.98655e-06
2.5372e-05
-8.76396e-06
2.38572e-05
-7.53051e-06
2.27228e-05
-1.00742e-05
2.14511e-05
-1.35121e-05
1.99867e-05
-5.98038e-06
1.84059e-05
5.15604e-06
1.6943e-05
4.76601e-06
1.49413e-05
-5.75052e-06
1.13843e-05
-2.17224e-05
7.46162e-06
-4.0393e-05
5.39104e-06
-5.22355e-05
4.83105e-06
-5.1643e-05
5.0211e-06
-4.72185e-05
6.07721e-06
-3.67209e-05
7.62216e-06
-2.27957e-05
9.53478e-06
-6.41198e-06
1.22962e-05
9.00793e-06
1.44453e-05
1.64356e-05
1.55728e-05
1.89111e-05
1.74594e-05
2.10654e-05
1.978e-05
3.24744e-05
2.24704e-05
4.45668e-05
2.35382e-05
5.32539e-05
2.41457e-05
4.95934e-05
2.44423e-05
4.52812e-05
2.41427e-05
3.49445e-05
2.37376e-05
2.64517e-05
2.34273e-05
1.64047e-05
2.41137e-05
1.12843e-05
2.2578e-05
2.1801e-06
2.27254e-05
-9.18572e-07
2.20055e-05
-2.80194e-06
2.22502e-05
-2.65845e-06
2.33189e-05
-3.73693e-06
2.46739e-05
-2.56937e-06
2.64244e-05
1.25725e-06
2.75926e-05
1.51933e-06
2.79262e-05
-5.11873e-07
2.74213e-05
2.5152e-07
2.65919e-05
-4.39047e-06
2.62935e-05
-8.41554e-06
2.53675e-05
-1.38635e-05
2.47212e-05
-1.45881e-05
2.3867e-05
-1.39042e-05
2.3415e-05
-1.34987e-05
2.35288e-05
-1.31549e-05
2.3193e-05
-1.52906e-05
2.03575e-05
-1.71352e-05
1.841e-05
-5.41071e-06
1.74842e-05
-6.9932e-06
1.78508e-05
-3.7871e-06
1.97779e-05
-1.87587e-05
1.97249e-05
-6.29522e-06
2.19221e-05
-1.26126e-05
2.01705e-05
5.61084e-06
2.28027e-05
5.7177e-07
2.01041e-05
3.14953e-05
2.658e-05
1.00125e-05
2.53016e-05
5.05912e-05
3.25625e-05
2.91877e-05
8.31011e-05
3.55273e-05
3.22098e-05
-1.2316e-06
3.25491e-05
4.83268e-07
3.28974e-05
-1.07828e-06
3.32579e-05
-1.89991e-06
3.30985e-05
-2.21409e-06
3.29771e-05
-4.48395e-06
3.30375e-05
-3.36677e-06
3.28518e-05
-3.00532e-06
3.29802e-05
-2.78627e-06
3.32623e-05
-6.73158e-07
3.34476e-05
-1.18689e-06
3.4125e-05
-1.76008e-06
3.48616e-05
-1.06549e-06
3.50768e-05
-3.04074e-06
3.54084e-05
-5.59396e-06
3.57957e-05
-7.23071e-06
3.57652e-05
-1.06665e-05
3.55956e-05
-1.38273e-05
3.516e-05
-1.61458e-05
3.46095e-05
-1.75084e-05
3.38693e-05
-1.85298e-05
3.34215e-05
-2.07394e-05
3.37189e-05
-2.02764e-05
3.35023e-05
-2.05014e-05
3.34911e-05
-2.03828e-05
3.35209e-05
-1.73235e-05
3.27673e-05
-1.43377e-05
3.17928e-05
-7.82651e-06
3.10555e-05
-1.62476e-06
3.02973e-05
4.48843e-06
2.90474e-05
1.32952e-05
2.77397e-05
1.8448e-05
2.69601e-05
1.93196e-05
2.70155e-05
1.88628e-05
2.71012e-05
1.70772e-05
2.72868e-05
1.31428e-05
2.78701e-05
8.46061e-06
2.78449e-05
2.96007e-06
2.66795e-05
-3.82114e-06
2.49975e-05
-7.08199e-06
2.3934e-05
-6.46703e-06
2.31059e-05
-9.24609e-06
2.1756e-05
-1.21623e-05
2.01281e-05
-4.35244e-06
1.85132e-05
6.77089e-06
1.70236e-05
6.25562e-06
1.5077e-05
-3.80391e-06
1.15178e-05
-1.81632e-05
7.14234e-06
-3.60176e-05
4.22571e-06
-4.93189e-05
3.24437e-06
-5.06616e-05
3.2259e-06
-4.72e-05
4.08351e-06
-3.75785e-05
5.52404e-06
-2.42363e-05
7.4461e-06
-8.33403e-06
1.05223e-05
5.93173e-06
1.29551e-05
1.40028e-05
1.43267e-05
1.75394e-05
1.60714e-05
1.93206e-05
1.77463e-05
3.07995e-05
2.08933e-05
4.14198e-05
2.25122e-05
5.1635e-05
2.30581e-05
4.90475e-05
2.38751e-05
4.44641e-05
2.46403e-05
3.41793e-05
2.47865e-05
2.63055e-05
2.40489e-05
1.71423e-05
2.4741e-05
1.05922e-05
2.41773e-05
2.74379e-06
2.39534e-05
-6.94672e-07
2.32039e-05
-2.05246e-06
2.2898e-05
-2.35261e-06
2.35699e-05
-4.40875e-06
2.46452e-05
-3.64471e-06
2.65439e-05
-6.41442e-07
2.8045e-05
1.8223e-08
2.80365e-05
-5.03341e-07
2.76186e-05
6.69355e-07
2.71724e-05
-3.94426e-06
2.71051e-05
-8.34823e-06
2.62265e-05
-1.29849e-05
2.51155e-05
-1.34771e-05
2.43164e-05
-1.3105e-05
2.38842e-05
-1.30665e-05
2.38308e-05
-1.31016e-05
2.30386e-05
-1.44984e-05
2.02503e-05
-1.43468e-05
1.82834e-05
-3.4438e-06
1.64634e-05
-5.17321e-06
1.74925e-05
-4.8162e-06
1.82057e-05
-1.94719e-05
1.84776e-05
-6.56722e-06
2.10641e-05
-1.5199e-05
1.96745e-05
7.00039e-06
2.2137e-05
-1.8907e-06
1.97528e-05
3.38794e-05
2.78791e-05
1.88626e-06
2.51529e-05
5.33175e-05
3.20343e-05
2.23062e-05
7.83924e-05
3.6743e-05
3.31474e-05
-1.01823e-06
3.33398e-05
2.90902e-07
3.34925e-05
-1.23094e-06
3.38595e-05
-2.26691e-06
3.38002e-05
-2.15484e-06
3.32975e-05
-3.98123e-06
3.32519e-05
-3.32123e-06
3.2912e-05
-2.66537e-06
3.276e-05
-2.63433e-06
3.31805e-05
-1.09366e-06
3.33147e-05
-1.32108e-06
3.37432e-05
-2.1885e-06
3.45021e-05
-1.82444e-06
3.46541e-05
-3.19276e-06
3.48153e-05
-5.75517e-06
3.53869e-05
-7.80224e-06
3.54348e-05
-1.07145e-05
3.5053e-05
-1.34455e-05
3.44781e-05
-1.5571e-05
3.40286e-05
-1.70588e-05
3.37088e-05
-1.82101e-05
3.33589e-05
-2.03895e-05
3.3516e-05
-2.04334e-05
3.3226e-05
-2.02114e-05
3.2648e-05
-1.98048e-05
3.20041e-05
-1.66795e-05
3.08873e-05
-1.32209e-05
3.01735e-05
-7.11271e-06
2.98562e-05
-1.30749e-06
2.93222e-05
5.02241e-06
2.84197e-05
1.41977e-05
2.74107e-05
1.9457e-05
2.65771e-05
2.01532e-05
2.61369e-05
1.9303e-05
2.61282e-05
1.70859e-05
2.6632e-05
1.26389e-05
2.71575e-05
7.93512e-06
2.70249e-05
3.09265e-06
2.60425e-05
-2.83873e-06
2.47202e-05
-5.75961e-06
2.39896e-05
-5.7365e-06
2.33324e-05
-8.58883e-06
2.18885e-05
-1.07184e-05
2.00892e-05
-2.55316e-06
1.84747e-05
8.38545e-06
1.70842e-05
7.64613e-06
1.52199e-05
-1.93962e-06
1.17211e-05
-1.46644e-05
7.05839e-06
-3.13548e-05
3.56582e-06
-4.58263e-05
2.13332e-06
-4.92291e-05
1.53735e-06
-4.6604e-05
2.02817e-06
-3.80694e-05
3.22918e-06
-2.54373e-05
5.18119e-06
-1.0286e-05
8.62081e-06
2.49211e-06
1.10815e-05
1.1542e-05
1.25766e-05
1.60444e-05
1.44056e-05
1.74916e-05
1.56339e-05
2.95712e-05
1.87371e-05
3.83166e-05
2.09184e-05
4.94537e-05
2.17036e-05
4.82624e-05
2.2718e-05
4.34498e-05
2.43566e-05
3.25407e-05
2.5683e-05
2.49791e-05
2.51868e-05
1.76385e-05
2.53831e-05
1.03959e-05
2.52277e-05
2.89918e-06
2.47279e-05
-1.94837e-07
2.40098e-05
-1.33435e-06
2.35898e-05
-1.93262e-06
2.3793e-05
-4.612e-06
2.45508e-05
-4.40246e-06
2.62536e-05
-2.34421e-06
2.78335e-05
-1.56168e-06
2.7925e-05
-5.94835e-07
2.78296e-05
7.64699e-07
2.75448e-05
-3.65944e-06
2.75187e-05
-8.32209e-06
2.6694e-05
-1.21603e-05
2.52599e-05
-1.2043e-05
2.4592e-05
-1.24371e-05
2.41562e-05
-1.26307e-05
2.39485e-05
-1.28939e-05
2.27927e-05
-1.33425e-05
1.99474e-05
-1.15016e-05
1.75761e-05
-1.07257e-06
1.54487e-05
-3.04578e-06
1.692e-05
-6.28744e-06
1.59335e-05
-1.84854e-05
1.73308e-05
-7.96458e-06
1.94892e-05
-1.73574e-05
1.86273e-05
7.86234e-06
2.06098e-05
-3.87322e-06
1.89114e-05
3.55778e-05
2.889e-05
-8.09231e-06
2.4434e-05
5.77735e-05
3.12707e-05
1.54695e-05
7.29101e-05
3.6753e-05
3.34475e-05
-1.15805e-06
3.39662e-05
-2.27824e-07
3.38066e-05
-1.07132e-06
3.38514e-05
-2.3117e-06
3.36843e-05
-1.98767e-06
3.30311e-05
-3.32808e-06
3.29824e-05
-3.2725e-06
3.26769e-05
-2.35993e-06
3.25681e-05
-2.52545e-06
3.31647e-05
-1.69031e-06
3.32599e-05
-1.41631e-06
3.33323e-05
-2.26086e-06
3.39912e-05
-2.48337e-06
3.42723e-05
-3.47384e-06
3.45017e-05
-5.98458e-06
3.52014e-05
-8.50197e-06
3.5102e-05
-1.06151e-05
3.43315e-05
-1.26749e-05
3.38531e-05
-1.50925e-05
3.3763e-05
-1.69687e-05
3.34458e-05
-1.78929e-05
3.26846e-05
-1.96283e-05
3.22376e-05
-1.99865e-05
3.14148e-05
-1.93886e-05
3.02886e-05
-1.86786e-05
2.93517e-05
-1.57427e-05
2.82013e-05
-1.20705e-05
2.77279e-05
-6.63934e-06
2.75846e-05
-1.16418e-06
2.70484e-05
5.55858e-06
2.67824e-05
1.44638e-05
2.6676e-05
1.95634e-05
2.60497e-05
2.07795e-05
2.55944e-05
1.97583e-05
2.59006e-05
1.67797e-05
2.63367e-05
1.22028e-05
2.63758e-05
7.89609e-06
2.61134e-05
3.35498e-06
2.53674e-05
-2.09268e-06
2.43715e-05
-4.76374e-06
2.38282e-05
-5.19319e-06
2.32016e-05
-7.96227e-06
2.16657e-05
-9.18249e-06
1.97353e-05
-6.22736e-07
1.82187e-05
9.90204e-06
1.7091e-05
8.77379e-06
1.54212e-05
-2.69733e-07
1.20737e-05
-1.1317e-05
7.15635e-06
-2.64375e-05
3.13887e-06
-4.18088e-05
1.23855e-06
-4.73288e-05
1.42424e-08
-4.53797e-05
-8.78553e-08
-3.79673e-05
1.07105e-06
-2.65962e-05
3.10461e-06
-1.23196e-05
6.39099e-06
-7.94269e-07
8.70544e-06
9.22759e-06
1.0739e-05
1.40108e-05
1.24933e-05
1.57373e-05
1.32712e-05
2.87934e-05
1.67919e-05
3.47958e-05
1.93273e-05
4.69183e-05
2.03043e-05
4.72853e-05
2.1559e-05
4.21951e-05
2.34164e-05
3.06832e-05
2.56206e-05
2.27749e-05
2.60417e-05
1.72174e-05
2.62448e-05
1.01928e-05
2.6152e-05
2.99198e-06
2.55152e-05
4.41908e-07
2.46392e-05
-4.58363e-07
2.42619e-05
-1.55533e-06
2.40768e-05
-4.42685e-06
2.46379e-05
-4.9636e-06
2.59483e-05
-3.65458e-06
2.71688e-05
-2.78215e-06
2.74203e-05
-8.46349e-07
2.77405e-05
4.44448e-07
2.7688e-05
-3.60694e-06
2.7359e-05
-7.99304e-06
2.62902e-05
-1.10915e-05
2.49109e-05
-1.06637e-05
2.45258e-05
-1.2052e-05
2.42773e-05
-1.23822e-05
2.39086e-05
-1.25252e-05
2.23038e-05
-1.17377e-05
1.92373e-05
-8.43507e-06
1.66695e-05
1.49527e-06
1.46127e-05
-9.88994e-07
1.58799e-05
-7.55463e-06
1.38718e-05
-1.64773e-05
1.64893e-05
-1.05821e-05
1.68268e-05
-1.76948e-05
1.65177e-05
8.17145e-06
1.81715e-05
-5.52704e-06
1.5977e-05
3.77723e-05
2.62353e-05
-1.83506e-05
2.3267e-05
6.07418e-05
3.05113e-05
8.22526e-06
6.74274e-05
3.5994e-05
3.36879e-05
-1.2445e-06
3.38612e-05
-4.01143e-07
3.35714e-05
-7.81443e-07
3.35209e-05
-2.2612e-06
3.34357e-05
-1.90256e-06
3.30679e-05
-2.96027e-06
3.31203e-05
-3.32487e-06
3.29663e-05
-2.20588e-06
3.2889e-05
-2.44823e-06
3.32626e-05
-2.06387e-06
3.32091e-05
-1.36287e-06
3.31148e-05
-2.16655e-06
3.37332e-05
-3.10173e-06
3.42798e-05
-4.02046e-06
3.44944e-05
-6.19912e-06
3.46436e-05
-8.65119e-06
3.42761e-05
-1.02476e-05
3.37751e-05
-1.21739e-05
3.349e-05
-1.48075e-05
3.31083e-05
-1.6587e-05
3.23122e-05
-1.70968e-05
3.09929e-05
-1.8309e-05
2.99177e-05
-1.89113e-05
2.86945e-05
-1.81654e-05
2.70549e-05
-1.7039e-05
2.57257e-05
-1.44134e-05
2.46633e-05
-1.10081e-05
2.43293e-05
-6.30534e-06
2.41761e-05
-1.01102e-06
2.4044e-05
5.69067e-06
2.48224e-05
1.36854e-05
2.54338e-05
1.89521e-05
2.51055e-05
2.11078e-05
2.51342e-05
1.97296e-05
2.55203e-05
1.63936e-05
2.54976e-05
1.22256e-05
2.53448e-05
8.04888e-06
2.52281e-05
3.47168e-06
2.46474e-05
-1.51197e-06
2.38421e-05
-3.95852e-06
2.34142e-05
-4.76522e-06
2.27714e-05
-7.31952e-06
2.11902e-05
-7.60128e-06
1.91195e-05
1.44801e-06
1.76487e-05
1.13728e-05
1.69258e-05
9.49662e-06
1.56316e-05
1.02451e-06
1.24492e-05
-8.13461e-06
7.36325e-06