/*--------------------------------*- C++ -*----------------------------------*\
| =========                 |                                                 |
| \\      /  F ield         | OpenFOAM: The Open Source CFD Toolbox           |
|  \\    /   O peration     | Version:  2.4.0                                 |
|   \\  /    A nd           | Web:      www.OpenFOAM.org                      |
|    \\/     M anipulation  |                                                 |
\*---------------------------------------------------------------------------*/
FoamFile
{
    version     2.0;
    format      ascii;
    class       volScalarField;
    location    "0.18";
    object      pMean;
}
// * * * * * * * * * * * * * * * * * * * * * * * * * * * * * * * * * * * * * //

dimensions      [0 2 -2 0 0 0 0];

internalField   nonuniform List<scalar> 
17600
(
103.896
87.8381
83.0974
81.6984
80.4825
79.2541
78.1024
77.0087
75.9622
74.9141
73.882
72.8382
71.8259
70.7953
69.7957
68.7432
67.6869
66.5042
65.1193
63.054
101.997
87.8874
83.138
81.7079
80.4857
79.2546
78.1027
77.009
75.9624
74.9142
73.8821
72.8384
71.8259
70.7957
69.7957
68.7444
67.6875
66.5072
65.1267
63.2622
100.591
88.1411
83.2804
81.7457
80.4995
79.259
78.1048
77.0106
75.9636
74.9149
73.8825
72.8384
71.8263
70.7958
69.7966
68.7444
67.6906
66.5075
65.1721
63.3815
99.6191
88.479
83.4977
81.8098
80.5286
79.2743
78.1134
77.0168
75.9679
74.9178
73.8839
72.8399
71.827
70.7987
69.7981
68.7512
67.6941
66.5252
65.2178
63.5369
98.8003
88.8101
83.7579
81.8904
80.5704
79.3032
78.1327
77.0312
75.9782
74.9251
73.8883
72.8425
71.8298
70.801
69.8031
68.7546
67.7077
66.5404
65.292
63.7213
98.0296
89.0989
84.0311
81.9711
80.6119
79.34
78.1615
77.0544
75.9954
74.9383
73.8961
72.8496
71.8338
70.8093
69.8087
68.7683
67.7203
66.5698
65.3817
63.9338
97.3045
89.3428
84.303
82.0466
80.6435
79.3742
78.1941
77.083
76.0179
74.956
73.9079
72.8585
71.8413
70.818
69.8189
68.7827
67.7382
66.6088
65.477
64.2016
96.6347
89.5449
84.5674
82.119
80.6646
79.4006
78.226
77.1137
76.0423
74.9757
73.9209
72.8698
71.8498
70.8301
69.8322
68.8017
67.7645
66.6521
65.5697
64.5294
96.0255
89.7089
84.8165
82.1938
80.6774
79.4187
78.2546
77.1443
76.067
74.9956
73.9339
72.8816
71.858
70.8438
69.8436
68.8267
67.7851
66.7118
65.6351
64.8606
95.479
89.836
85.0472
82.2731
80.6839
79.4289
78.2792
77.1736
76.0912
75.0144
73.9463
72.8921
71.8671
70.8566
69.8592
68.8499
67.816
66.7703
65.7326
65.2237
94.9936
89.9284
85.2586
82.3573
80.6852
79.4326
78.2997
77.2014
76.1146
75.0322
73.9575
72.9022
71.8749
70.8697
69.8731
68.8749
67.8506
66.8315
65.8622
65.5363
94.5666
89.9905
85.4507
82.446
80.6826
79.4307
78.3162
77.2272
76.1372
75.0487
73.9677
72.911
71.8837
70.8822
69.8897
68.9
67.8881
66.8998
65.999
65.8128
94.1952
90.0279
85.623
82.5372
80.6776
79.4243
78.3294
77.2511
76.1586
75.0639
73.9771
72.919
71.892
70.8946
69.907
68.9257
67.9312
66.9717
66.1394
66.0634
93.877
90.0477
85.7747
82.6261
80.6723
79.4149
78.3397
77.2724
76.1788
75.0776
73.9858
72.9261
71.901
70.9068
69.9253
68.953
67.9764
67.0479
66.279
66.2914
93.6087
90.0568
85.9049
82.706
80.6685
79.4043
78.3477
77.2912
76.1971
75.0899
73.9936
72.9327
71.9095
70.9197
69.9442
68.9824
68.0233
67.1268
66.4185
66.4985
93.388
90.0603
86.0124
82.7745
80.6666
79.3935
78.3538
77.3072
76.2132
75.1006
74.0007
72.939
71.9185
70.9322
69.9645
69.0114
68.0743
67.2041
66.5643
66.6873
93.2137
90.0604
86.0971
82.8304
80.6666
79.3834
78.3584
77.3202
76.2269
75.1093
74.0073
72.9446
71.9278
70.945
69.986
69.0419
68.1263
67.2817
66.7034
66.8892
93.0843
90.0592
86.1595
82.8736
80.6677
79.375
78.3614
77.3304
76.2376
75.117
74.0126
72.951
71.9359
70.9593
70.0056
69.0764
68.1758
67.3651
66.8126
67.0546
92.9988
90.0575
86.2005
82.9028
80.6695
79.3688
78.3637
77.3373
76.2457
75.1226
74.018
72.9567
71.9451
70.9731
70.0274
69.1098
68.2276
67.4465
66.9213
67.2351
92.9563
90.0563
86.2208
82.9178
80.6707
79.3657
78.3649
77.3414
76.2504
75.1268
74.0222
72.9628
71.9538
70.9874
70.0493
69.1442
68.2801
67.526
67.0397
67.3926
92.9565
90.0563
86.2209
82.9179
80.6709
79.366
78.3654
77.3423
76.2518
75.1292
74.0258
72.9687
71.963
71.0016
70.0724
69.1779
68.3348
67.6012
67.1715
67.531
92.9994
90.0572
86.201
82.903
80.6705
79.3693
78.3655
77.3397
76.2504
75.1295
74.0292
72.9742
71.9727
71.0152
70.0964
69.2117
68.3898
67.6753
67.296
67.6951
93.0851
90.0588
86.1602
82.874
80.6693
79.3761
78.3643
77.3346
76.2451
75.1291
74.0308
72.9811
71.9807
71.0314
70.1179
69.2496
68.4395
67.7557
67.3773
67.8098
93.2149
90.0599
86.0982
82.8311
80.6689
79.3848
78.3625
77.3261
76.2374
75.1261
74.0326
72.9867
71.9899
71.0463
70.1411
69.2863
68.4911
67.8322
67.457
67.9575
93.3895
90.0595
86.0137
82.7753
80.6696
79.3951
78.3591
77.3146
76.2268
75.1216
74.0337
72.9922
71.9992
71.0611
70.1651
69.3224
68.5447
67.9041
67.5478
68.0866
93.6104
90.056
85.9064
82.7072
80.672
79.4063
78.3541
77.3003
76.2136
75.1154
74.0339
72.9974
72.0082
71.076
70.1891
69.359
68.599
67.9757
67.6422
68.1944
93.8791
90.0468
85.7764
82.6275
80.6765
79.4174
78.3473
77.2831
76.1982
75.1074
74.0335
73.0018
72.0173
71.0907
70.2133
69.3961
68.6535
68.0495
67.7306
68.2939
94.1976
90.0272
85.6248
82.5388
80.6823
79.4273
78.338
77.2634
76.181
75.0979
74.0322
73.0057
72.0259
71.1058
70.2368
69.4345
68.7072
68.1276
67.8076
68.3732
94.5691
89.9899
85.4526
82.4476
80.6879
79.4343
78.3258
77.2412
76.1624
75.0868
74.0302
73.0082
72.0349
71.1197
70.2613
69.4718
68.7635
68.2059
67.8881
68.4368
94.9962
89.9277
85.2607
82.3591
80.6909
79.4371
78.3101
77.2171
76.1426
75.0743
74.0271
73.0096
72.0436
71.133
70.2859
69.5082
68.8217
68.2842
67.9787
68.4723
95.4816
89.835
85.0494
82.275
80.6899
79.4343
78.2903
77.1912
76.1217
75.0607
74.0226
73.01
72.0517
71.1456
70.3102
69.5436
68.8809
68.3631
68.0805
68.4828
96.0283
89.7078
84.8188
82.1958
80.6838
79.425
78.2665
77.1637
76.1
75.0458
74.017
73.0092
72.0591
71.1569
70.3342
69.5768
68.9407
68.4396
68.193
68.4758
96.6376
89.5439
84.5696
82.1213
80.6711
79.4079
78.2385
77.1351
76.0776
75.0299
74.0102
73.0076
72.0654
71.1672
70.3561
69.6076
68.9965
68.5115
68.2998
68.4734
97.3075
89.342
84.3051
82.0491
80.6502
79.3823
78.2074
77.1064
76.0554
75.014
74.0028
73.0057
72.0705
71.1764
70.3749
69.6351
69.0442
68.5757
68.3851
68.456
98.0327
89.0983
84.0333
81.9737
80.6189
79.3489
78.1756
77.0794
76.0351
74.9996
73.9962
73.004
72.0748
71.1843
70.3905
69.658
69.0827
68.6268
68.4507
68.4678
98.8033
88.8096
83.7603
81.8931
80.5777
79.3128
78.1475
77.0575
76.0194
74.9891
73.992
73.0036
72.0788
71.1909
70.4026
69.6756
69.1111
68.6644
68.4945
68.4768
99.6222
88.4788
83.5001
81.8127
80.536
79.2843
78.1288
77.044
76.0103
74.9835
73.9904
73.0044
72.0821
71.1959
70.411
69.6876
69.1293
68.6893
68.5187
68.4901
100.594
88.141
83.2829
81.7486
80.507
79.2694
78.1205
77.0382
76.0066
74.9816
73.9903
73.0055
72.0844
71.199
70.4157
69.6944
69.139
68.7027
68.5304
68.5073
102
87.8874
83.1405
81.7108
80.4932
79.2651
78.1185
77.0367
76.0056
74.9813
73.9904
73.0061
72.0853
71.2003
70.4174
69.6969
69.1423
68.7073
68.5336
68.5294
103.899
87.8382
83.0999
81.7013
80.49
79.2646
78.1183
77.0365
76.0054
74.9813
73.9905
73.0062
72.0853
71.2003
70.4175
69.6969
69.1424
68.7071
68.5324
68.5664
61.3933
60.9098
60.0601
59.0281
57.9259
56.7933
55.6173
54.3912
53.3236
52.3974
51.6243
51.0119
50.5204
50.0441
49.5009
48.8507
48.1163
47.5099
47.1304
47.0031
47.1032
47.41
47.9556
48.7009
49.5919
50.6155
51.7002
52.7907
53.846
54.8102
55.6515
56.3958
57.0728
57.6946
58.2685
58.8099
59.3447
59.8831
60.4226
60.9375
61.4022
61.8118
62.188
62.5621
62.9413
63.314
63.6825
64.0319
64.3118
64.5139
64.6629
64.7652
64.7962
64.7365
64.6097
64.4428
64.2466
64.0217
63.7826
63.5448
63.3117
63.0858
62.8524
62.6262
62.421
62.2355
62.0682
61.9214
61.7933
61.6796
61.583
61.5008
61.427
61.3529
61.2847
61.2549
61.2979
61.4218
61.6185
61.8889
62.2251
62.6046
63.0062
63.4061
63.7962
64.1703
64.5175
64.8391
65.1392
65.4271
65.7023
65.9591
66.1992
66.4119
66.6103
66.7886
66.9618
67.1334
67.3086
67.4901
67.6843
67.8847
68.0894
68.3022
68.5251
68.7536
68.9771
69.1769
69.3567
69.5142
69.6555
69.7682
69.865
69.9314
69.9851
70.0079
70.0192
70.0027
69.9818
69.9715
69.9662
69.9819
70.0066
70.0505
70.1241
70.2041
70.3215
70.4158
70.5389
70.6619
70.7844
70.9333
71.0623
71.2088
71.3422
71.4908
71.6343
71.7866
71.9359
72.0758
72.2109
72.3182
72.4243
72.4954
72.5691
72.6116
72.6614
72.6771
72.7037
72.7024
72.7077
72.6939
72.6803
72.6535
72.6238
72.5875
72.542
72.4877
72.4276
72.3576
72.2869
72.2011
72.1239
72.0372
71.974
71.914
71.8919
71.8802
71.9221
71.9811
72.0943
72.2097
72.3846
72.5295
72.7485
72.9
73.1543
73.2739
73.5539
73.6137
73.8768
73.868
74.0772
73.9948
74.1187
73.9578
73.9744
73.699
73.591
73.1774
72.8836
72.2711
71.6888
70.7352
69.5999
67.9147
65.5453
61.4484
56.4627
32.9397
61.7417
61.1598
60.4091
59.5032
58.5145
57.4927
56.444
55.3534
54.3922
53.5607
52.8445
52.2605
51.7636
51.2733
50.7366
50.1149
49.4059
48.7824
48.3873
48.2384
48.3165
48.6096
49.136
49.8567
50.7197
51.6972
52.7371
53.787
54.8104
55.757
56.5923
57.3179
57.9639
58.5479
59.0751
59.5566
60.0232
60.4887
60.953
61.3979
61.8009
62.1498
62.4577
62.7614
63.0763
63.3859
63.7035
64.0228
64.2833
64.4606
64.5782
64.6467
64.6431
64.5519
64.3923
64.1866
63.9455
63.6736
63.388
63.1055
62.8348
62.5745
62.3072
62.0558
61.8333
61.634
61.4554
61.3008
61.1691
61.0563
60.9649
60.8914
60.8276
60.765
60.7131
60.7104
60.7883
60.9523
61.1951
61.5188
61.9119
62.347
62.8021
63.2519
63.6838
64.0933
64.4727
64.8207
65.1417
65.4463
65.7351
66.0026
66.2503
66.4696
66.6734
66.8548
67.0321
67.2082
67.3868
67.574
67.776
67.9837
68.1979
68.4212
68.6563
68.8938
69.126
69.331
69.5157
69.6745
69.8151
69.922
70.0105
70.0628
70.0998
70.1044
70.0973
70.0657
70.0267
70.0015
69.9826
69.9875
70.0048
70.0395
70.1039
70.1753
70.2841
70.3791
70.4933
70.621
70.7374
70.8878
71.0211
71.1692
71.3093
71.4631
71.6144
71.7745
71.9308
72.0802
72.2212
72.3358
72.4457
72.52
72.595
72.6343
72.6812
72.6926
72.7179
72.7093
72.7121
72.6915
72.6759
72.6428
72.6098
72.5661
72.5152
72.4551
72.3884
72.3125
72.2328
72.1355
72.0432
71.9368
71.8535
71.7682
71.7211
71.6774
71.6898
71.7153
71.8058
71.8864
72.0494
72.1605
72.3766
72.4924
72.752
72.8391
73.1226
73.1622
73.4164
73.3978
73.5843
73.4876
73.5811
73.395
73.3761
73.0697
72.9146
72.4578
72.0994
71.4105
70.7214
69.6248
68.2889
66.236
63.6218
58.0695
52.6462
26.1066
62.1048
61.5018
60.761
59.9101
58.9995
58.0598
57.1153
56.1497
55.2833
54.5361
53.873
53.3221
52.8362
52.3528
51.8336
51.2578
50.6097
50.0131
49.6285
49.4656
49.5384
49.8244
50.3249
51.0117
51.8345
52.7607
53.7529
54.7655
55.7597
56.6906
57.5242
58.2383
58.8576
59.4073
59.8932
60.3207
60.7199
61.1127
61.5046
61.8782
62.2178
62.507
62.7506
62.9874
63.2406
63.4897
63.755
64.041
64.2801
64.4362
64.5285
64.5667
64.5317
64.4132
64.2262
63.9862
63.7044
63.3888
63.0595
62.7351
62.4297
62.1351
61.8369
61.5634
61.3256
61.1133
60.9248
60.7635
60.6291
60.5184
60.4337
60.3701
60.3184
60.2707
60.2394
60.2668
60.381
60.5851
60.8733
61.2481
61.6953
62.1827
62.6882
63.1861
63.6589
64.1029
64.5142
64.8885
65.2288
65.5476
65.8467
66.1212
66.3737
66.5976
66.8065
66.9897
67.1707
67.3507
67.5326
67.7259
67.9373
68.1539
68.3791
68.6117
68.8586
69.1032
69.3424
69.5509
69.7408
69.8998
70.0394
70.139
70.2188
70.2567
70.2768
70.2619
70.2333
70.1832
70.1248
70.0805
70.0459
70.0356
70.0438
70.0673
70.1212
70.1819
70.2787
70.3734
70.4787
70.6108
70.7235
70.8759
71.0145
71.1673
71.3131
71.475
71.6346
71.8021
71.9629
72.1195
72.2633
72.3845
72.4958
72.5752
72.6504
72.6883
72.7301
72.7378
72.7579
72.743
72.7406
72.7137
72.6951
72.6572
72.621
72.5705
72.5146
72.4501
72.3769
72.2953
72.2059
72.0967
71.9909
71.8656
71.7655
71.6545
71.584
71.5088
71.4936
71.4827
71.5539
71.5976
71.7494
71.8219
72.0339
72.1142
72.3719
72.4337
72.7072
72.7364
72.9668
72.9414
73.0963
72.9877
73.0432
72.8353
72.7707
72.4389
72.2189
71.7272
71.2889
70.5358
69.7213
68.4645
66.9704
64.4462
61.861
54.681
48.9811
24.279
62.4202
61.8573
61.1495
60.3041
59.4217
58.5441
57.6975
56.8569
56.0824
55.4148
54.8099
54.2849
53.8139
53.3516
52.8622
52.3423
51.7653
51.2258
50.8668
50.7074
50.782
51.0574
51.5195
52.16
52.9353
53.8106
54.7544
55.7286
56.6893
57.6003
58.4295
59.1393
59.7376
60.2582
60.7103
61.0922
61.4296
61.7513
62.0716
62.3759
62.6507
62.8817
63.0659
63.2423
63.438
63.6308
63.8435
64.0895
64.3019
64.4392
64.5131
64.5256
64.4636
64.3218
64.1109
63.84
63.5217
63.1674
62.7992
62.4369
62.0995
61.7716
61.4458
61.1548
60.9029
60.679
60.4813
60.3149
60.179
60.0722
59.9966
59.945
59.907
59.8773
59.8701
59.9302
60.0808
60.3248
60.6571
61.0806
61.5775
62.1135
62.6658
63.2093
63.7214
64.1981
64.6403
65.0396
65.3986
65.7299
66.0361
66.3148
66.57
66.796
67.0087
67.1929
67.3777
67.5613
67.7468
67.9457
68.1675
68.3932
68.6306
68.8714
69.1283
69.3778
69.6219
69.8327
70.0281
70.1872
70.3252
70.417
70.4878
70.511
70.5146
70.4789
70.4274
70.3553
70.2769
70.2091
70.1577
70.1283
70.1262
70.1358
70.179
70.227
70.3108
70.4022
70.5004
70.6333
70.7469
70.9004
71.0438
71.204
71.3553
71.5255
71.693
71.8674
72.0316
72.1933
72.3375
72.4639
72.5761
72.6619
72.7358
72.7726
72.8083
72.812
72.8247
72.8033
72.7953
72.7618
72.7416
72.6986
72.6598
72.6016
72.5429
72.472
72.3948
72.3053
72.2078
72.0864
71.9703
71.8265
71.7096
71.5727
71.4802
71.3748
71.3357
71.2876
71.3375
71.3428
71.4814
71.5193
71.7184
71.7702
72.0151
72.0572
72.3094
72.3294
72.529
72.4965
72.6127
72.4983
72.5069
72.2848
72.1667
71.8097
71.5141
70.9865
70.4559
69.6321
68.7123
67.2521
65.736
62.5407
60.255
51.574
45.5383
24.758
62.7165
62.2132
61.5522
60.705
59.8241
58.9975
58.2451
57.5289
56.8547
56.2617
55.7133
55.2122
54.7622
54.3291
53.8752
53.4119
52.916
52.4439
52.1179
51.9737
52.0494
52.3044
52.7173
53.3016
54.0248
54.8487
55.7422
56.672
57.5938
58.4775
59.2947
60.0036
60.5894
61.0864
61.5114
61.8575
62.1427
62.3984
62.6485
62.886
63.0977
63.2731
63.4031
63.5264
63.6695
63.8117
63.9715
64.1704
64.3501
64.4708
64.5315
64.5249
64.4413
64.2792
64.0463
63.7473
63.3961
63.0091
62.6079
62.2128
61.8462
61.4877
61.1393
60.8345
60.5694
60.3348
60.1289
59.9582
59.8234
59.7235
59.6591
59.6217
59.5995
59.5902
59.6104
59.7041
59.8911
60.1735
60.5485
61.0171
61.5597
62.1406
62.7362
63.3217
63.8702
64.3778
64.8486
65.2708
65.6476
65.9898
66.3017
66.5824
66.8386
67.0645
67.2794
67.4636
67.6526
67.8398
68.0291
68.2332
68.4648
68.6994
68.9489
69.1967
69.4606
69.7129
69.9605
70.1724
70.3736
70.5329
70.6698
70.7531
70.8151
70.8233
70.811
70.7535
70.679
70.5816
70.4828
70.3879
70.3181
70.2667
70.2533
70.2463
70.2792
70.3131
70.3848
70.4692
70.5636
70.6925
70.8109
70.9622
71.1109
71.2779
71.4356
71.6119
71.7869
71.968
72.136
72.2998
72.4445
72.5729
72.6854
72.7763
72.8499
72.8847
72.9142
72.9122
72.9177
72.8903
72.8775
72.8368
72.8165
72.7678
72.7269
72.6613
72.6003
72.5222
72.4421
72.3431
72.2382
72.1052
71.9792
71.8182
71.6839
71.5229
71.4094
71.274
71.2149
71.1287
71.1601
71.1254
71.246
71.252
71.4325
71.4571
71.6844
71.7087
71.9322
71.942
72.1057
72.0675
72.1402
72.0211
71.9796
71.7462
71.573
71.1853
70.8183
70.2443
69.6348
68.6929
67.7398
65.9307
64.6134
60.536
58.7304
48.9254
42.238
25.3662
63.0697
62.6035
61.9493
61.0885
60.2032
59.4233
58.7651
58.1734
57.6076
57.0866
56.596
56.1311
55.7069
55.3054
54.8922
54.4831
54.0678
53.6662
53.3755
53.2478
53.3192
53.5529
53.9193
54.4436
55.1078
55.8752
56.714
57.5945
58.474
59.3209
60.1149
60.8196
61.4019
61.8836
62.2835
62.5986
62.8422
63.0408
63.2252
63.4006
63.5544
63.6794
63.763
63.8395
63.9368
64.0327
64.1392
64.287
64.4307
64.5358
64.5872
64.567
64.4662
64.2868
64.0323
63.7074
63.3271
62.9138
62.4858
62.0629
61.6704
61.2861
60.9212
60.6059
60.3285
60.0828
59.8693
59.697
59.5664
59.476
59.4252
59.4041
59.4006
59.4142
59.4638
59.5912
59.8133
60.1315
60.5471
61.0576
61.642
62.2646
62.9003
63.5225
64.1033
64.6395
65.1357
65.5787
65.9722
66.3247
66.6412
66.9222
67.1787
67.4021
67.6179
67.8013
67.9944
68.1844
68.378
68.5862
68.8266
69.0693
69.3307
69.5844
69.8519
70.1034
70.3539
70.5664
70.7738
70.9337
71.0701
71.145
71.1979
71.1914
71.1638
71.0847
70.9878
70.8629
70.7434
70.6194
70.5295
70.4535
70.4275
70.4015
70.4244
70.443
70.5041
70.5789
70.6714
70.7926
70.9174
71.0639
71.2175
71.388
71.5553
71.7333
71.9155
72.1021
72.2746
72.4377
72.5842
72.7119
72.8245
72.9152
72.9885
73.0198
73.0464
73.0376
73.0385
73.0051
72.9898
72.9406
72.9211
72.8639
72.8235
72.7488
72.6884
72.601
72.52
72.4086
72.2992
72.1517
72.0189
71.8389
71.6897
71.5034
71.3737
71.2075
71.1324
71.0069
71.0208
70.9499
71.0489
71.0235
71.1809
71.179
71.3826
71.3902
71.5774
71.5754
71.7018
71.6523
71.6879
71.5546
71.4712
71.2162
70.9923
70.5565
70.1473
69.4797
68.8579
67.6855
66.8704
64.5002
63.5883
58.5188
57.0605
46.7497
39.0006
25.3684
63.481
63.0388
62.3289
61.4191
60.5298
59.805
59.249
58.7817
58.3301
57.8857
57.4552
57.0389
56.6465
56.277
55.9078
55.5499
55.2056
54.873
54.6174
54.5033
54.5692
54.7877
55.1202
55.5874
56.1879
56.893
57.6745
58.5014
59.3326
60.1355
60.8969
61.5862
62.1649
62.637
63.0147
63.2983
63.5084
63.6621
63.7905
63.9109
64.0146
64.0973
64.1438
64.179
64.2383
64.2921
64.3471
64.4426
64.5503
64.6395
64.683
64.652
64.5371
64.3413
64.0669
63.7197
63.3159
62.8815
62.4309
61.984
61.5708
61.1678
60.793
60.4697
60.1804
59.9237
59.7041
59.5337
59.4099
59.3314
59.2965
59.2945
59.3125
59.3511
59.4319
59.5923
59.8468
60.1986
60.6517
61.2011
61.8237
62.4846
63.1568
63.8102
64.4189
64.9803
65.498
65.9593
66.3685
66.73
67.0508
67.3319
67.5884
67.8075
68.0228
68.2047
68.4017
68.5927
68.7899
69.0011
69.2491
69.4987
69.771
70.0296
70.2987
70.5469
70.7988
71.0124
71.2252
71.386
71.5226
71.5898
71.6339
71.6128
71.5707
71.4709
71.3535
71.2007
71.0605
70.9071
70.7962
70.693
70.6522
70.605
70.6171
70.6189
70.6718
70.7344
70.8258
70.9349
71.0666
71.2046
71.3624
71.5319
71.7119
71.8867
72.0793
72.2645
72.4449
72.603
72.7543
72.8755
72.9928
73.0757
73.1519
73.1733
73.2031
73.1823
73.1871
73.1426
73.1334
73.0706
73.0568
72.9838
72.9516
72.8611
72.8092
72.7061
72.6306
72.4986
72.3919
72.2232
72.0892
71.8855
71.7276
71.514
71.3713
71.173
71.0875
70.9264
70.9229
70.8149
70.8903
70.8315
70.9676
70.9345
71.111
71.0985
71.2511
71.2301
71.3251
71.2518
71.2626
71.0982
70.9908
70.6849
70.4378
69.9068
69.5291
68.6497
68.149
66.5491
66.0516
62.9787
62.5506
56.6036
55.0972
44.9835
35.8463
24.9516
64.0948
63.5864
62.6626
61.639
60.7597
60.1204
59.6816
59.3385
59.0011
58.6436
58.2791
57.9155
57.5613
57.2265
56.9029
56.5918
56.3046
56.0357
55.8196
55.7194
55.781
55.9885
56.3014
56.7242
57.2644
57.9059
58.625
59.3911
60.168
60.9227
61.6433
62.3067
62.8723
63.3307
63.6878
63.9434
64.1252
64.2469
64.3308
64.4058
64.4704
64.5194
64.5359
64.5389
64.5669
64.585
64.593
64.6386
64.7115
64.7833
64.817
64.776
64.649
64.4388
64.1481
63.7834
63.3622
62.9103
62.4392
61.973
61.5454
61.1316
60.7538
60.4243
60.1234
59.8565
59.6333
59.4688
59.355
59.2909
59.2738
59.2927
59.3341
59.4
59.5129
59.7057
59.9908
60.3731
60.8602
61.4456
62.1023
62.7981
63.503
64.1825
64.8142
65.3968
65.9314
66.4085
66.8318
67.2013
67.5272
67.8082
68.0652
68.279
68.4923
68.6724
68.8721
69.0619
69.2609
69.4731
69.7269
69.9836
70.2642
70.5271
70.7969
71.0406
71.2931
71.5077
71.725
71.8859
72.023
72.0836
72.1199
72.0846
72.029
71.9095
71.7742
71.5938
71.4333
71.2519
71.1198
70.9872
70.9292
70.859
70.8589
70.8431
70.8898
70.9373
71.0277
71.1219
71.2577
71.3831
71.5451
71.7073
71.8994
72.0706
72.2753
72.4518
72.6422
72.7913
72.9505
73.0589
73.185
73.2532
73.3369
73.3423
73.3807
73.3414
73.3584
73.2974
73.303
73.2218
73.2204
73.1251
73.1095
72.9956
72.9616
72.8328
72.7734
72.6102
72.5162
72.3151
72.1892
71.9527
71.7976
71.5487
71.4059
71.168
71.0812
70.8747
70.8656
70.7149
70.776
70.6724
70.7987
70.7235
70.8771
70.8313
70.962
70.9031
70.985
70.8584
70.8721
70.6301
70.5485
70.115
69.9312
69.1935
68.9648
67.7275
67.4784
65.3277
65.221
61.4294
61.3705
54.8852
52.5324
43.4539
33.2728
24.6154
64.967
64.3264
62.981
61.7837
60.9244
60.3888
60.0709
59.8457
59.6179
59.3533
59.0581
58.7473
58.435
58.1365
57.8552
57.5869
57.3457
57.1307
56.9588
56.8788
56.9394
57.1381
57.44
57.8329
58.3243
58.9073
59.562
60.2625
60.9807
61.6846
62.3577
62.983
63.5232
63.9591
64.292
64.5227
64.6827
64.782
64.8361
64.8764
64.913
64.937
64.9293
64.9075
64.9106
64.9018
64.8697
64.8704
64.9119
64.965
64.9853
64.9337
64.798
64.5788
64.277
63.9005
63.4652
62.9969
62.5058
62.0267
61.592
61.175
60.7993
60.4661
60.1555
59.88
59.6568
59.502
59.4014
59.3537
59.3559
59.3969
59.4638
59.5587
59.7032
59.9272
60.2411
60.6515
61.1693
61.787
62.4741
63.2013
63.9349
64.6355
65.2851
65.8836
66.4311
66.9214
67.3562
67.7331
68.0652
68.3461
68.6042
68.8138
69.0239
69.2017
69.4028
69.589
69.7865
69.9968
70.2534
70.5154
70.8043
71.0707
71.3425
71.581
71.8335
72.0488
72.2698
72.4294
72.5669
72.6222
72.6518
72.6028
72.5346
72.3967
72.2454
72.039
71.8591
71.6513
71.4991
71.336
71.2585
71.1641
71.1509
71.1166
71.1564
71.1872
71.2752
71.3528
71.4902
71.6002
71.7662
71.9141
72.1171
72.2836
72.4986
72.6616
72.8636
72.9986
73.1679
73.2602
73.398
73.4467
73.5387
73.5238
73.5729
73.512
73.5453
73.4647
73.4926
73.3906
73.4093
73.2866
73.2942
73.1481
73.1413
72.9753
72.9439
72.7367
72.6682
72.4193
72.3175
72.0327
71.9004
71.601
71.4803
71.1843
71.1182
70.8482
70.8514
70.6364
70.7095
70.539
70.677
70.5351
70.6932
70.5754
70.72
70.5758
70.6878
70.45
70.5225
70.129
70.1431
69.4937
69.4476
68.414
68.3713
66.7088
66.7256
64.0338
64.2926
59.9641
59.7619
53.4494
49.3322
42.0057
31.839
24.8514
65.6717
64.9612
63.33
61.9863
61.112
60.6452
60.4289
60.3106
60.1852
60.01
59.7832
59.5242
59.254
58.9909
58.7464
58.518
58.3156
58.146
58.0192
57.9656
58.0308
58.2246
58.5197
58.8937
59.348
59.8794
60.4731
61.1096
61.7669
62.4167
63.0384
63.6148
64.1156
64.5223
64.8279
65.0348
65.1748
65.258
65.295
65.314
65.3337
65.3443
65.3193
65.2781
65.2595
65.2331
65.1695
65.131
65.1471
65.1811
65.1847
65.1231
64.9826
64.7601
64.4545
64.0708
63.6228
63.1366
62.6265
62.1423
61.7082
61.2942
60.9242
60.5898
60.2733
59.9929
59.7738
59.6326
59.5475
59.5183
59.5406
59.6047
59.6989
59.8233
59.9988
60.251
60.5916
61.0282
61.5744
62.2203
62.9342
63.6879
64.4454
65.1635
65.8268
66.4357
66.9913
67.4922
67.9365
68.319
68.6576
68.9395
69.1996
69.4061
69.6132
69.7885
69.9883
70.1689
70.3611
70.5648
70.8226
71.0869
71.3837
71.6537
71.9296
72.1639
72.4159
72.6315
72.8548
73.0128
73.1495
73.2003
73.2241
73.1619
73.0815
72.9256
72.7593
72.5292
72.3308
72.099
71.9277
71.7356
71.6373
71.5189
71.4921
71.4378
71.4697
71.4828
71.5659
71.6252
71.7611
71.8552
72.0241
72.1547
72.3664
72.525
72.7476
72.8938
73.1064
73.2239
73.4017
73.4764
73.6265
73.6558
73.7564
73.7189
73.7776
73.6942
73.743
73.6419
73.6934
73.5702
73.6147
73.464
73.498
73.3147
73.3389
73.1268
73.132
72.8696
72.8373
72.5263
72.4616
72.1133
72.0287
71.6562
71.5823
71.2079
71.1877
70.8339
70.8814
70.5696
70.6869
70.417
70.598
70.3548
70.5536
70.322
70.5161
70.2407
70.4186
70.0185
70.1824
69.5811
69.7227
68.8111
68.9289
67.5594
67.7154
65.6398
65.9036
62.8379
63.0754
58.7296
57.4281
52.0467
46.4768
40.841
31.527
25.6222
66.2327
65.5089
63.7156
62.2535
61.3369
60.9023
60.7632
60.7371
60.7024
60.6084
60.4485
60.2414
60.0122
59.7824
59.5691
59.3759
59.2084
59.0796
58.9965
58.9737
59.0475
59.2379
59.5274
59.8891
60.3159
60.8043
61.3441
61.9198
62.5155
63.1094
63.6778
64.1994
64.6513
65.0196
65.2957
65.4814
65.6028
65.6725
65.7013
65.7103
65.7246
65.7339
65.7028
65.6488
65.6124
65.5759
65.4866
65.4162
65.4129
65.4286
65.4128
65.3438
65.2026
64.9811
64.6775
64.2924
63.8317
63.3246
62.7984
62.3182
61.8919
61.4857
61.1239
60.7911
60.4722
60.1921
59.9832
59.8592
59.7915
59.7825
59.8259
59.9144
60.0371
60.1902
60.3945
60.6721
61.0369
61.4978
62.0691
62.7397
63.4764
64.251
65.0274
65.7592
66.4323
67.0464
67.6073
68.115
68.5658
68.9518
69.2971
69.5811
69.8448
70.0491
70.2537
70.4266
70.6222
70.7942
70.9787
71.1713
71.4273
71.6932
71.9969
72.2701
72.5505
72.7835
73.0349
73.2505
73.4747
73.6308
73.7661
73.8126
73.8304
73.7559
73.6635
73.4893
73.3079
73.0565
72.8411
72.5869
72.3985
72.1796
72.0616
71.9196
71.8789
71.8039
71.8267
71.8208
71.897
71.9361
72.067
72.1447
72.3153
72.4287
72.6444
72.7918
73.0193
73.1474
73.3663
73.467
73.6522
73.7092
73.867
73.8778
73.9858
73.9273
73.9935
73.8901
73.9501
73.8301
73.9004
73.7594
73.827
73.6545
73.7104
73.4952
73.5418
73.2855
73.3212
73.0058
73.007
72.631
72.6103
72.1897
72.1626
71.7073
71.6987
71.2315
71.2741
70.8117
70.927
70.4938
70.6863
70.2873
70.5423
70.1703
70.4393
70.0643
70.3346
69.8871
70.147
69.5488
69.8002
68.9673
69.2264
68.0493
68.3214
66.6656
66.9465
64.6742
64.8801
61.924
61.3794
57.6037
54.8309
50.4898
44.637
40.3348
32.1286
26.6513
66.6749
65.9771
64.1093
62.5682
61.6078
61.1769
61.0848
61.1277
61.1704
61.1515
61.0584
60.9042
60.7143
60.5156
60.3287
60.1649
60.0297
59.9356
59.8918
59.9017
59.9889
60.1757
60.4565
60.8076
61.2135
61.6679
62.1623
62.6852
63.2237
63.7608
64.2721
64.7355
65.1346
65.4581
65.6999
65.8641
65.969
66.0302
66.0572
66.0672
66.0851
66.1037
66.0795
66.0187
65.9705
65.9262
65.8172
65.7224
65.706
65.7035
65.6683
65.5937
65.4571
65.2419
64.9433
64.5589
64.0866
63.5581
63.0198
62.5528
62.1411
61.7458
61.3933
61.0657
60.7496
60.4751
60.2825
60.18
60.1316
60.1437
60.2097
60.3237
60.4743
60.6557
60.8856
61.1852
61.572
62.0544
62.647
63.3385
64.094
64.884
65.6734
66.4148
67.0939
67.7095
68.2736
68.7838
69.2391
69.6252
69.9765
70.2642
70.5316
70.7349
70.9383
71.1073
71.2968
71.4574
71.6327
71.812
72.0643
72.3291
72.6386
72.914
73.1993
73.4322
73.6843
73.8985
74.1238
74.2763
74.4107
74.4529
74.4641
74.3781
74.2732
74.0814
73.8841
73.6141
73.3824
73.1071
72.9036
72.6617
72.5248
72.3607
72.3065
72.2122
72.2235
72.1982
72.2644
72.2826
72.4045
72.4656
72.6364
72.7343
72.9489
73.0827
73.3102
73.4208
73.6392
73.724
73.9131
73.9563
74.1176
74.1123
74.2233
74.1474
74.2179
74.1001
74.1654
74.0302
74.1103
73.9565
74.04
73.8538
73.9245
73.6877
73.7431
73.4533
73.5029
73.1444
73.1646
72.7368
72.7432
72.2638
72.2786
71.7514
71.7934
71.2422
71.3413
70.7728
70.9523
70.3848
70.6633
70.1173
70.4672
69.9353
70.3094
69.7534
70.1397
69.48
69.8492
69.0365
69.3663
68.3608
68.676
67.3812
67.6435
65.9475
66.0313
63.9153
63.5396
60.9951
59.38
56.2412
52.7238
49.2355
43.751
40.4714
33.2217
27.7118
67.0342
66.3767
64.4966
62.9153
61.9164
61.4671
61.3926
61.4852
61.5958
61.6478
61.6202
61.5191
61.3684
61.199
61.0358
60.896
60.7888
60.7239
60.7109
60.7508
60.8551
61.0411
61.3112
61.6485
62.0361
62.4634
62.9199
63.3973
63.8843
64.3648
64.8169
65.2222
65.5681
65.8452
66.0511
66.1919
66.2799
66.3348
66.3671
66.3878
66.4194
66.4536
66.447
66.3864
66.3307
66.2807
66.1577
66.0467
66.0247
66.0039
65.9504
65.8724
65.7437
65.5399
65.2504
64.8661
64.382
63.8336
63.2901
62.8433
62.4532
62.0715
61.7289
61.4103
61.1029
60.8407
60.669
60.5907
60.564
60.5991
60.6897
60.8298
61.0067
61.2147
61.4669
61.7858
62.1921
62.6931
63.3024
64.0101
64.7796
65.5798
66.3757
67.1224
67.8035
68.4186
68.9851
69.4933
69.9516
70.3338
70.6885
70.9808
71.2513
71.455
71.6585
71.8211
72.0036
72.1512
72.3176
72.4816
72.7296
72.9905
73.3056
73.5804
73.8713
74.103
74.3569
74.5674
74.7953
74.9424
75.0785
75.1142
75.1189
75.0223
74.9046
74.6957
74.4825
74.196
73.9493
73.6529
73.4353
73.1742
73.0205
72.8353
72.7686
72.6571
72.6562
72.6116
72.6648
72.6615
72.7721
72.8158
72.9844
73.0679
73.2778
73.3951
73.6183
73.7131
73.9261
73.9965
74.1851
74.2154
74.3749
74.3562
74.4676
74.3789
74.4507
74.3233
74.3897
74.2427
74.3231
74.1592
74.2498
74.0559
74.1346
73.8843
73.9389
73.6251
73.6727
73.2858
73.3069
72.8473
72.8606
72.3445
72.3745
71.8021
71.8683
71.2617
71.369
70.7378
70.9304
70.2827
70.573
69.9477
70.3062
69.6882
70.0758
69.4203
69.8309
69.0522
69.4442
68.5128
68.8485
67.7613
68.0374
66.7143
66.8332
65.1912
64.9356
62.9908
62.0186
59.7124
57.5944
54.8578
51.3435
48.711
43.7118
41.0282
34.4096
28.6932
67.3294
66.7198
64.8697
63.2766
62.2481
61.7714
61.6985
61.8263
61.9926
62.1074
62.1398
62.0909
61.9803
61.8401
61.6997
61.5796
61.495
61.4542
61.4645
61.528
61.6496
61.8386
62.0991
62.4204
62.7884
63.1915
63.6162
64.0515
64.4889
64.9138
65.3079
65.6567
65.9512
66.1836
66.3556
66.473
66.5452
66.5951
66.6366
66.6734
66.7244
66.7795
66.7982
66.75
66.6915
66.6367
66.504
66.3883
66.365
66.3266
66.2565
66.1781
66.0585
65.8671
65.5916
65.2105
64.7149
64.1497
63.6077
63.1871
62.8227
62.4573
62.1282
61.8239
61.5312
61.2866
61.1389
61.0864
61.0851
61.1452
61.2619
61.4278
61.6296
61.8612
62.1329
62.469
62.892
63.4083
64.0291
64.7475
65.5262
66.3314
67.128
67.8746
68.5542
69.1672
69.7355
70.2383
70.6985
71.072
71.4274
71.7234
71.9943
72.1995
72.4051
72.5568
72.7345
72.8668
73.0251
73.1737
73.4179
73.6707
73.9935
74.2645
74.5622
74.7879
75.0458
75.2489
75.482
75.6209
75.7631
75.7887
75.7888
75.6812
75.5519
75.3266
75.0982
74.7963
74.5361
74.2185
73.9881
73.7097
73.5423
73.336
73.2585
73.1313
73.1181
73.0546
73.0944
73.0696
73.168
73.194
73.3573
73.4266
73.6307
73.7309
73.9457
74.0231
74.2277
74.2817
74.4677
74.4878
74.6411
74.6087
74.7177
74.6198
74.6914
74.5568
74.6223
74.4659
74.5415
74.3688
74.4591
74.2589
74.3393
74.0794
74.1282
73.7961
73.8332
73.4271
73.4374
72.9598
72.966
72.4276
72.455
71.8609
71.926
71.3048
71.3919
70.739
70.9
70.2323
70.4803
69.8389
70.1431
69.4999
69.8256
69.1426
69.4806
68.6628
68.9714
67.9961
68.2456
67.1138
67.2768
65.8779
65.8373
64.1116
63.6493
61.6388
60.4224
58.2153
56.1022
53.811
50.6512
48.7928
44.2407
41.687
35.4735
29.6094
67.5698
67.0122
65.2279
63.6477
62.6018
62.0944
62.011
62.1585
62.367
62.535
62.6225
62.6242
62.5544
62.4441
62.3257
62.2232
62.1556
62.1335
62.1623
62.2437
62.3791
62.5723
62.8251
63.1302
63.4777
63.8557
64.2497
64.6463
65.0352
65.4064
65.7447
66.0391
66.2833
66.4741
66.6153
66.7106
66.7711
66.8191
66.8708
66.9271
66.9975
67.0762
67.126
67.1033
67.0518
66.9916
66.8545
66.743
66.7215
66.6691
66.5826
66.5053
66.3951
66.2154
65.9554
65.5822
65.0812
64.5051
63.9715
63.583
63.2476
62.8997
62.589
62.3056
62.0327
61.8094
61.6871
61.6618
61.6896
61.7769
61.9206
62.1118
62.3367
62.5885
62.8777
63.2291
63.6658
64.1937
64.8201
65.5439
66.3265
67.1308
67.923
68.6651
69.3407
69.9486
70.5182
71.012
71.4755
71.8349
72.1894