/*--------------------------------*- C++ -*----------------------------------*\
| =========                 |                                                 |
| \\      /  F ield         | OpenFOAM: The Open Source CFD Toolbox           |
|  \\    /   O peration     | Version:  2.4.0                                 |
|   \\  /    A nd           | Web:      www.OpenFOAM.org                      |
|    \\/     M anipulation  |                                                 |
\*---------------------------------------------------------------------------*/
FoamFile
{
    version     2.0;
    format      ascii;
    class       volScalarField;
    location    "0.103";
    object      k;
}
// * * * * * * * * * * * * * * * * * * * * * * * * * * * * * * * * * * * * * //

dimensions      [0 2 -2 0 0 0 0];

internalField   nonuniform List<scalar> 
17600
(
9.29184
7.41398
5.12608
3.92857
3.34794
2.9444
2.70456
2.46278
2.34746
2.18325
2.14722
2.0029
2.03544
1.87809
1.95338
1.86567
1.90793
1.95141
2.1063
2.3771
4.50765
6.20921
5.84535
5.0438
4.42996
3.91711
3.61531
3.29517
3.14211
2.9148
2.85323
2.6623
2.67735
2.48943
2.55233
2.42699
2.4175
2.416
2.50624
2.65594
1.32273
3.28535
3.99987
3.9574
3.77822
3.44579
3.24325
2.99134
2.87503
2.67535
2.62244
2.45107
2.4567
2.3023
2.33001
2.23704
2.19891
2.14178
2.19097
2.1815
0.20759
1.1953
1.93133
2.31517
2.52364
2.50997
2.47978
2.38053
2.3327
2.20884
2.18371
2.06031
2.06966
1.96237
1.96337
1.91901
1.8735
1.79197
1.79592
1.75115
0.0259939
0.266416
0.650299
0.948994
1.25654
1.41742
1.55443
1.58409
1.63515
1.60878
1.62655
1.5724
1.59346
1.54675
1.52896
1.52591
1.4978
1.43321
1.40025
1.34756
0.00273948
0.0440591
0.151815
0.249514
0.425838
0.559972
0.714053
0.797205
0.919399
0.946248
1.02658
1.02715
1.06153
1.07816
1.06228
1.08967
1.08191
1.05338
1.00461
0.954963
0.000281888
0.00638758
0.0255652
0.0465341
0.0939097
0.145192
0.223702
0.269996
0.369347
0.40359
0.48548
0.514373
0.550894
0.624175
0.615791
0.652598
0.66556
0.659385
0.629726
0.578184
5.1161e-05
0.000891302
0.00358423
0.0067358
0.0132487
0.0253219
0.0474526
0.0611748
0.0971447
0.115514
0.154282
0.185399
0.200373
0.258167
0.261332
0.289845
0.318853
0.317602
0.2949
0.270041
2.85972e-05
0.000147498
0.000565965
0.000957123
0.00166868
0.00322773
0.00692448
0.0094554
0.0173134
0.0219772
0.0319318
0.0449667
0.0494299
0.0726245
0.0747061
0.0863797
0.107685
0.106263
0.0927291
0.0870794
2.42091e-05
4.73447e-05
0.000129704
0.000212157
0.00028131
0.000443378
0.000827427
0.00116026
0.00254371
0.00316398
0.00531467
0.00736451
0.00825698
0.0146293
0.0147876
0.0175321
0.0248733
0.0237408
0.019925
0.0192592
2.36485e-05
3.41177e-05
5.35876e-05
9.70369e-05
0.000108459
0.000126572
0.000149923
0.000198098
0.000384361
0.00046302
0.000851763
0.00100797
0.00115826
0.00217204
0.00202766
0.0027153
0.00395451
0.00355261
0.00326153
0.00341654
2.2855e-05
3.1635e-05
4.8077e-05
6.31543e-05
7.52365e-05
7.53087e-05
7.54582e-05
8.12982e-05
9.43594e-05
0.000193339
0.000240655
0.000277556
0.0003174
0.00040666
0.000393226
0.000535657
0.000649838
0.000636465
0.000670984
0.00082939
2.19695e-05
3.04504e-05
5.10114e-05
4.81349e-05
5.94966e-05
6.43464e-05
8.6221e-05
8.15983e-05
8.18034e-05
0.000119153
0.000132628
0.000193244
0.000207182
0.00021511
0.000281068
0.000279019
0.000280182
0.000345673
0.000341368
0.000367109
2.16473e-05
3.12882e-05
4.25351e-05
4.06002e-05
5.59293e-05
6.17605e-05
8.57436e-05
8.15571e-05
9.61328e-05
9.23622e-05
9.48472e-05
0.000156385
0.000161936
0.000173075
0.000204117
0.000200606
0.000208821
0.000247282
0.000221215
0.000212851
2.11971e-05
2.95902e-05
3.41893e-05
4.29646e-05
5.51071e-05
5.52877e-05
5.88378e-05
5.60283e-05
6.40003e-05
6.54914e-05
8.10117e-05
9.35046e-05
9.69426e-05
0.000130835
0.000121149
0.000124141
0.000173038
0.000164418
0.000141995
0.000150007
2.10129e-05
2.78587e-05
3.58277e-05
4.67855e-05
4.571e-05
4.6001e-05
4.67885e-05
5.49765e-05
5.48249e-05
5.52065e-05
6.5091e-05
6.59851e-05
6.87778e-05
8.97233e-05
8.9072e-05
9.59721e-05
0.000126167
0.000114188
0.000109309
0.000141755
2.09853e-05
2.76027e-05
3.65887e-05
3.7856e-05
3.80043e-05
4.32789e-05
4.57796e-05
5.36932e-05
5.35663e-05
5.87561e-05
5.75165e-05
5.91054e-05
7.9372e-05
8.20338e-05
8.26585e-05
0.000103636
0.000102849
9.61507e-05
9.80942e-05
0.000157525
2.06175e-05
2.51501e-05
3.4166e-05
3.5483e-05
3.88281e-05
4.13156e-05
4.37127e-05
4.44998e-05
4.38984e-05
4.76181e-05
4.95385e-05
5.39811e-05
6.07375e-05
6.47849e-05
7.22299e-05
7.60317e-05
7.60593e-05
7.66915e-05
9.10692e-05
9.31008e-05
2.05629e-05
2.49116e-05
3.52713e-05
3.60643e-05
3.72112e-05
3.80892e-05
4.1522e-05
4.37561e-05
4.76863e-05
4.68396e-05
4.82036e-05
5.49244e-05
5.61672e-05
6.12371e-05
7.2584e-05
7.07456e-05
7.13775e-05
7.50954e-05
7.57412e-05
7.01569e-05
2.06106e-05
2.51514e-05
3.20363e-05
3.56146e-05
3.74778e-05
3.88409e-05
4.06363e-05
4.08696e-05
4.24464e-05
4.56079e-05
4.54984e-05
4.73456e-05
5.17447e-05
5.80979e-05
5.8442e-05
5.80942e-05
5.88084e-05
6.38935e-05
6.09739e-05
6.05019e-05
2.07219e-05
2.45787e-05
3.22562e-05
3.94481e-05
3.93979e-05
3.9002e-05
3.9659e-05
4.05704e-05
4.24837e-05
4.79124e-05
4.97717e-05
5.02945e-05
5.0813e-05
5.16573e-05
5.16389e-05
5.36746e-05
5.62295e-05
5.82281e-05
5.68409e-05
5.8706e-05
2.06531e-05
2.42748e-05
3.62539e-05
4.05137e-05
3.89466e-05
3.85804e-05
3.94476e-05
4.06373e-05
4.65947e-05
4.64074e-05
4.6845e-05
4.87796e-05
4.92587e-05
4.959e-05
5.16781e-05
5.33971e-05
5.64804e-05
5.58315e-05
5.59021e-05
5.97821e-05
2.07356e-05
2.55015e-05
4.11591e-05
4.06806e-05
3.7727e-05
4.09651e-05
4.15359e-05
4.44018e-05
4.93231e-05
4.84442e-05
4.84209e-05
5.21659e-05
5.2011e-05
5.23091e-05
5.36569e-05
5.4986e-05
5.56772e-05
5.59475e-05
5.66482e-05
6.02961e-05
2.10625e-05
3.03782e-05
3.94917e-05
3.7114e-05
3.78835e-05
4.38981e-05
4.51984e-05
5.14192e-05
5.25613e-05
5.16125e-05
5.58024e-05
5.6159e-05
5.51547e-05
5.5974e-05
5.75693e-05
5.96356e-05
6.05009e-05
6.24462e-05
6.38757e-05
6.69287e-05
2.09516e-05
3.09095e-05
3.36606e-05
3.52858e-05
4.73652e-05
4.91757e-05
5.02292e-05
5.86415e-05
5.70465e-05
5.66681e-05
5.95739e-05
5.85223e-05
5.84552e-05
6.2115e-05
6.44813e-05
6.68038e-05
6.77788e-05
6.80881e-05
6.90678e-05
7.37714e-05
2.11137e-05
2.81808e-05
3.19135e-05
4.744e-05
5.25349e-05
5.19434e-05
5.77636e-05
6.13577e-05
5.98281e-05
6.15238e-05
6.25403e-05
6.25827e-05
6.48741e-05
7.14014e-05
7.30632e-05
7.49141e-05
7.53266e-05
7.65105e-05
8.04484e-05
9.29257e-05
2.16041e-05
2.73271e-05
4.17289e-05
5.49613e-05
5.22727e-05
5.33697e-05
6.4143e-05
6.5102e-05
6.55268e-05
6.7128e-05
6.81974e-05
7.02779e-05
7.46133e-05
8.1778e-05
8.50352e-05
9.06591e-05
9.40078e-05
0.000103205
0.000128883
0.000205183
2.18559e-05
2.9351e-05
5.06749e-05
5.1739e-05
5.11722e-05
6.33048e-05
7.3234e-05
7.57763e-05
7.87647e-05
7.97037e-05
8.29342e-05
8.73942e-05
9.22027e-05
0.00010854
0.000122986
0.000151308
0.000179237
0.00025913
0.000452874
0.0009814
2.2784e-05
3.08784e-05
5.05875e-05
5.30019e-05
6.92567e-05
8.66016e-05
9.58694e-05
0.000102028
0.000111253
0.000115768
0.000138246
0.000162117
0.000193628
0.000288009
0.000372247
0.000583069
0.000827539
0.00150732
0.00277488
0.00614389
2.33607e-05
3.31684e-05
5.76452e-05
8.09389e-05
0.000122432
0.000144482
0.000171754
0.000227612
0.000320052
0.000383814
0.000642317
0.000867271
0.0011201
0.00185277
0.00248921
0.00415635
0.00579523
0.0103279
0.016119
0.0332141
2.40396e-05
4.6447e-05
0.00010187
0.000230292
0.000313604
0.000517425
0.000756282
0.00134695
0.00220079
0.00284763
0.00508012
0.00695693
0.00866363
0.0136595
0.0174015
0.026573
0.0337584
0.052748
0.0711291
0.128194
2.78588e-05
0.000138633
0.000392567
0.00111933
0.00180663
0.00366858
0.00578879
0.0106669
0.0169348
0.0213437
0.0341642
0.0443852
0.0521895
0.0739994
0.087431
0.116928
0.136985
0.186419
0.226138
0.34295
5.09796e-05
0.000842288
0.00267078
0.00789349
0.0134788
0.0268519
0.0416161
0.0669765
0.0957834
0.114154
0.159284
0.187024
0.210263
0.266191
0.293302
0.345838
0.381455
0.460246
0.514584
0.646457
0.000287553
0.0061359
0.0203277
0.0537877
0.0873507
0.147669
0.218771
0.28448
0.35822
0.406259
0.489653
0.526053
0.57108
0.63608
0.666593
0.716042
0.757075
0.830014
0.878169
0.983384
0.00277186
0.0425712
0.140312
0.268186
0.41369
0.565515
0.709269
0.811329
0.907098
0.957013
1.02665
1.04293
1.07675
1.10468
1.12371
1.14231
1.1739
1.20955
1.24537
1.29911
0.0261614
0.258521
0.646968
0.961546
1.24696
1.42448
1.55027
1.596
1.62989
1.62148
1.62306
1.5981
1.59552
1.57605
1.57232
1.5564
1.56211
1.55977
1.56825
1.56576
0.208427
1.18667
1.935
2.31868
2.52243
2.51207
2.47875
2.39011
2.32591
2.22388
2.17622
2.08544
2.05903
1.98627
1.96618
1.91015
1.89268
1.84391
1.81786
1.76207
1.32566
3.27365
4.00565
3.95651
3.78224
3.44616
3.23624
3.00246
2.86013
2.69214
2.60117
2.47344
2.42565
2.30641
2.27259
2.17503
2.12855
2.01522
1.94623
1.82109
4.50626
6.19763
5.85247
5.03368
4.44502
3.91207
3.60893
3.30198
3.12277
2.9257
2.81433
2.6708
2.60959
2.4572
2.41028
2.27151
2.19308
2.01408
1.8933
1.67545
9.28664
7.40074
5.14153
3.9155
3.35917
2.93717
2.70096
2.46148
2.32738
2.18345
2.09943
1.98802
1.93817
1.80687
1.75421
1.61567
1.52433
1.33013
1.17922
0.942261
1.72186
1.05062
0.599664
0.521919
0.545796
0.657396
0.632619
0.572604
0.448233
0.313925
0.200585
0.156406
0.176098
0.226761
0.471356
0.505399
0.432284
0.417193
0.248304
0.191873
0.121375
0.0952504
0.0826345
0.0714325
0.0648945
0.0623777
0.0686692
0.0812886
0.0800398
0.0741159
0.0748587
0.0976973
0.146301
0.170335
0.172542
0.166307
0.134464
0.0800664
0.0414992
0.0189025
0.00836261
0.0044012
0.00300988
0.00261105
0.00244019
0.00243096
0.00259518
0.00294425
0.00385148
0.00735577
0.0320991
0.0773682
0.0941226
0.10081
0.100404
0.0871825
0.0577084
0.0500834
0.0519174
0.0590948
0.0602504
0.0553474
0.0453605
0.040176
0.0387019
0.0386058
0.040582
0.0458911
0.0487558
0.0518749
0.057312
0.0636833
0.0687171
0.0693902
0.066401
0.0530733
0.0389547
0.0259439
0.0195711
0.0167744
0.0143941
0.0125616
0.0114561
0.0112119
0.0112888
0.0120328
0.0159341
0.024563
0.030857
0.034914
0.0369789
0.0376822
0.0393874
0.0405219
0.0404197
0.0399452
0.0386414
0.0369694
0.0362742
0.0338517
0.0259656
0.0211102
0.0196677
0.0197027
0.0204475
0.0229939
0.0259603
0.0338396
0.0531054
0.0611081
0.0611735
0.0567179
0.0481224
0.0445729
0.044661
0.0512559
0.0605296
0.0612318
0.0578127
0.0450473
0.037974
0.03673
0.039148
0.0516291
0.0641467
0.0673357
0.0671426
0.057197
0.0399329
0.0298187
0.0260033
0.0253128
0.0256159
0.0257446
0.0249733
0.0251004
0.0262644
0.0337059
0.0417122
0.0448051
0.0457518
0.0464455
0.0486157
0.058853
0.0756342
0.0853013
0.0880569
0.0877988
0.0848061
0.0753787
0.0639965
0.0580489
0.0568129
0.0578571
0.0624122
0.0720946
0.0747137
0.0721495
0.0683786
0.068986
0.0768934
0.0799354
0.0779477
0.0635501
0.0416641
0.0282149
0.0181492
0.0129622
0.00857572
0.00691626
0.00502477
0.00448326
0.00345292
0.00313055
0.00252734
0.0022566
0.00204103
0.0018814
0.00188184
0.00183867
0.00188746
0.00181233
0.0017523
0.00155729
0.00137138
0.00121888
0.00110988
0.00107863
0.000950509
0.000888287
0.000693361
0.000604825
0.00064571
0.000575708
0.000576554
0.000695835
0.00114459
0.00302716
0.0330624
0.451754
2.09378
1.51186
1.23118
1.01155
0.851333
0.781625
0.647744
0.531282
0.378143
0.254033
0.153994
0.0974119
0.104795
0.144767
0.311955
0.500046
0.559448
0.565223
0.283527
0.200578
0.123906
0.107397
0.099206
0.080208
0.0689333
0.0683939
0.0825765
0.0844774
0.0759256
0.0723175
0.0786264
0.119124
0.156612
0.167842
0.166271
0.156311
0.110379
0.059974
0.0282004
0.012487
0.00591597
0.00349379
0.00264257
0.00240995
0.00229729
0.00229845
0.00254435
0.00306328
0.0043984
0.00946717
0.0425486
0.0833586
0.0988461
0.10332
0.0997487
0.0782746
0.0550376
0.0474552
0.0502191
0.0592964
0.0606587
0.0553337
0.0452612
0.0400325
0.0384931
0.038302
0.040022
0.0447781
0.0477645
0.0501591
0.0549946
0.0608218
0.0670078
0.0685571
0.0667079
0.0560812
0.0418838
0.0278438
0.0206381
0.0173077
0.0144076
0.0122896
0.0109691
0.0106138
0.010648
0.0111438
0.0136025
0.0216548
0.028406
0.0330514
0.0358
0.036665
0.0380452
0.0384781
0.0383722
0.0380725
0.036943
0.0356276
0.0348221
0.0319798
0.0254796
0.0209644
0.0192792
0.0191708
0.0198899
0.023178
0.0265595
0.0320292
0.0503665
0.0608431
0.0614451
0.0577705
0.0484149
0.0438131
0.0431873
0.0475227
0.0601841
0.0626267
0.0612924
0.0486907
0.039636
0.0376207
0.039399
0.050332
0.0646602
0.0690243
0.0691965
0.0581175
0.04005
0.0295627
0.0248695
0.0234024
0.0236245
0.0243563
0.0242831
0.0245104
0.0252731
0.0302536
0.0387943
0.0427138
0.0441149
0.0449729
0.046735
0.0543773
0.0689687
0.0795879
0.0862332
0.086727
0.0850928
0.0807338
0.0699358
0.0625303
0.062282
0.0631031
0.0688633
0.0752782
0.0763626
0.0720178
0.0678822
0.069444
0.0774953
0.0798864
0.0779677
0.0601007
0.0408506
0.0260305
0.0179476
0.0118178
0.00874682
0.00605103
0.00500201
0.00388752
0.00356406
0.00298876
0.00283455
0.00246069
0.00229027
0.00197727
0.00189247
0.00183505
0.00181442
0.00187663
0.0018224
0.00187271
0.00170158
0.00154752
0.00122972
0.00109647
0.00106192
0.00092738
0.000867246
0.000675582
0.000641137
0.000744316
0.000669807
0.000743461
0.00137872
0.00267931
0.0319099
0.314417
1.82514
1.42396
1.19046
1.06281
0.87377
0.769751
0.584475
0.446485
0.300596
0.185148
0.102147
0.0568394
0.0560369
0.0756502
0.145959
0.394151
0.528964
0.531787
0.359208
0.222568
0.135799
0.118031
0.111114
0.0960762
0.0910402
0.0973109
0.0980671
0.0844441
0.0741267
0.0740141
0.0957513
0.136544
0.16148
0.164269
0.160893
0.143805
0.0872889
0.0431506
0.0189172
0.00846152
0.00424031
0.00282887
0.0023036
0.00211243
0.00201595
0.00213227
0.00252906
0.00333711
0.00530397
0.0125369
0.0538023
0.090586
0.104357
0.105404
0.0961449
0.0746413
0.055024
0.0471021
0.0491995
0.0597966
0.0615757
0.0555917
0.0453761
0.0400468
0.0384793
0.0381127
0.0393442
0.043874
0.0466212
0.0486814
0.0527484
0.0589455
0.0661456
0.0681125
0.0668178
0.0586226
0.044517
0.0296368
0.0215506
0.0177706
0.0144053
0.012023
0.010571
0.0101161
0.0101129
0.0104401
0.0120543
0.0184087
0.0262285
0.0312242
0.0344404
0.0358613
0.0367077
0.0369167
0.0366772
0.0363346
0.0353458
0.033553
0.0324749
0.0299656
0.0256336
0.0215448
0.0193595
0.0190089
0.0196859
0.0239498
0.027705
0.0316476
0.0474355
0.0603571
0.0619169
0.0587704
0.0490855
0.0432181
0.0418228
0.0442597
0.0582438
0.0638566
0.064291
0.0530232
0.0416982
0.0385773
0.0394183
0.048812
0.0656575
0.0718138
0.0723335
0.0606724
0.0406571
0.0294051
0.0242662
0.0216937
0.0214973
0.022346
0.0230506
0.0237537
0.0245922
0.0274876
0.0359426
0.040775
0.0426
0.0435297
0.0449297
0.0497286
0.0644078
0.0750468
0.0811314
0.0851673
0.0847992
0.0825149
0.0769638
0.0686218
0.0679416
0.0690666
0.0741352
0.0781611
0.0776315
0.0709732
0.0674414
0.0697758
0.0776314
0.0808314
0.0761437
0.0580015
0.0371169
0.0253546
0.0162973
0.0118797
0.0080298
0.00636798
0.00451241
0.003936
0.00319577
0.00306252
0.00277922
0.00278499
0.00265203
0.00255567
0.00222244
0.00208485
0.00188566
0.00184657
0.0018377
0.00180441
0.00185523
0.00172123
0.00160369
0.00126634
0.00110391
0.00107237
0.000912041
0.000913969
0.000731534
0.000737032
0.000869576
0.000864225
0.00167269
0.00262041
0.0291196
0.199748
1.51635
1.3087
1.07507
0.955961
0.776256
0.643052
0.489549
0.360311
0.231357
0.122815
0.0588874
0.0330404
0.0325936
0.0374566
0.0719952
0.217839
0.432171
0.465954
0.436142
0.268883
0.155969
0.125614
0.115
0.111258
0.112986
0.114845
0.100239
0.0813892
0.0746219
0.0884867
0.11829
0.148651
0.162102
0.161856
0.156407
0.123246
0.0645926
0.0288509
0.0120268
0.0055945
0.00316135
0.00233256
0.00194326
0.00185207
0.00189372
0.00210553
0.00271044
0.00388368
0.00677332
0.0173142
0.0660047
0.0982355
0.108872
0.106458
0.0885104
0.0733962
0.056508
0.0472149
0.0482423
0.0602148
0.0631795
0.0566707
0.0459641
0.0405363
0.0384488
0.0379806
0.0386792
0.0427485
0.0456488
0.047406
0.0505196
0.0566034
0.0647289
0.0673338
0.0665943
0.0605303
0.0467099
0.0313369
0.022236
0.0180437
0.0143724
0.0117765
0.0102415
0.00972048
0.00969354
0.00991357
0.0109763
0.0154603
0.0234651
0.029184
0.033
0.0349877
0.0356173
0.0356039
0.0352208
0.0345092
0.0336095
0.0312993
0.0289735
0.0274627
0.0259631
0.0225921
0.0200268
0.0194949
0.0205747
0.0254403
0.0291468
0.0320511
0.0441762
0.0595723
0.0620574
0.0596735
0.0499281
0.0429691
0.0407454
0.0416571
0.0547169
0.0651467
0.0670647
0.0574315
0.0443252
0.039369
0.0394031
0.0472828
0.0661489
0.0749279
0.0756615
0.0636501
0.04148
0.0293249
0.0236983
0.0209816
0.0200068
0.0202827
0.0215532
0.0228106
0.023847
0.025845
0.0332014
0.0389325
0.0414477
0.0424393
0.0435094
0.0464379
0.0573566
0.0717407
0.0789153
0.0811791
0.0840796
0.0835944
0.0792119
0.0765521
0.0742145
0.075988
0.0781973
0.079823
0.0778057
0.0698035
0.0667568
0.069535
0.0792809
0.080335
0.0752141
0.0537398
0.0354269
0.0235416
0.0156879
0.0111106
0.00826115
0.00636572
0.00491915
0.00377454
0.00318086
0.00268654
0.00265793
0.00259544
0.00272028
0.00269061
0.00280932
0.00268201
0.00252984
0.00215167
0.00197817
0.00187245
0.00183011
0.00188565
0.00174682
0.0016613
0.00130719
0.0011533
0.00100952
0.000912155
0.000970835
0.000905134
0.0010231
0.00095124
0.00276542
0.00296195
0.0238706
0.127772
1.1533
1.05362
0.899008
0.806841
0.676931
0.540383
0.417512
0.265375
0.136554
0.0547269
0.0279925
0.0176996
0.0193643
0.0223034
0.0392152
0.0928918
0.224738
0.414331
0.444815
0.334883
0.188584
0.141928
0.123887
0.123338
0.125945
0.119073
0.0951955
0.0808083
0.0839083
0.121113
0.139032
0.156417
0.16253
0.161218
0.150445
0.0940731
0.0436297
0.018551
0.00805346
0.00413014
0.00258832
0.00191246
0.00169571
0.00171643
0.00184472
0.00221673
0.003168
0.00490001
0.00905443
0.0243136
0.0789719
0.106272
0.113087
0.104805
0.0827312
0.0737217
0.059668
0.0476225
0.0471695
0.0601508
0.065209
0.0586361
0.0463426
0.0408575
0.0381425
0.037569
0.038029
0.0413248
0.0444324
0.0465308
0.0491047
0.0542466
0.0633241
0.0666136
0.0662435
0.061582
0.0485264
0.0328467
0.0228365
0.0181528
0.0143329
0.0115946
0.0100173
0.00946037
0.00941585
0.00956896
0.0102595
0.0128315
0.020156
0.026722
0.0313441
0.0337841
0.0345486
0.0345589
0.0339577
0.0331926
0.0321834
0.029223
0.0263946
0.0256587
0.0254906
0.0232148
0.0211178
0.020908
0.0229192
0.0270875
0.030248
0.0325842
0.0417179
0.058282
0.0622369
0.0605159
0.050935
0.0430269
0.0397763
0.0399995
0.0506735
0.0661843
0.0696465
0.0619068
0.0471591
0.0400537
0.039528
0.0459786
0.0657781
0.0772876
0.0778823
0.0660978
0.0417558
0.0291595
0.0234597
0.0206156
0.0192538
0.0191891
0.0200655
0.0218975
0.0230404
0.0246173
0.0305694
0.0369781
0.040367
0.0417649
0.0427209
0.0447351
0.051311
0.064695
0.0760564
0.0799704
0.0811617
0.0832182
0.081986
0.0785402
0.0790558
0.0790686
0.0805391
0.0802833
0.0763853
0.0676407
0.0660354
0.0710003
0.0794215
0.08037
0.0740738
0.050099
0.0338465
0.021486
0.015137
0.0100061
0.00817577
0.00615025
0.0055741
0.004409
0.00399761
0.00319885
0.00279028
0.00261018
0.00250539
0.00262936
0.00266676
0.0030618
0.00302699
0.00316031
0.00281575
0.0024989
0.0020485
0.00193091
0.0019587
0.00182194
0.00178657
0.0014781
0.00120481
0.00108598
0.00103861
0.000937944
0.00149414
0.00125139
0.00603063
0.00407847
0.0182001
0.0808563
0.805161
0.729352
0.640675
0.571379
0.491109
0.378045
0.246482
0.118257
0.0542558
0.0234943
0.0149599
0.01093
0.0129376
0.0135377
0.0218395
0.0534896
0.098641
0.285848
0.430702
0.410675
0.265402
0.178912
0.148467
0.144107
0.142427
0.120829
0.0973302
0.0966475
0.133994
0.151834
0.155789
0.161276
0.16543
0.162162
0.130851
0.0642327
0.0273293
0.0110585
0.0049741
0.00277343
0.00181661
0.00155361
0.00154842
0.00165206
0.00188661
0.00250143
0.00401798
0.00655808
0.0124424
0.0350544
0.0909603
0.113912
0.116373
0.0969255
0.0807853
0.077361
0.0647165
0.0478956
0.045893
0.0587114
0.0674695
0.0614716
0.0469386
0.0408672
0.0376375
0.0368901
0.0372807
0.0400477
0.0429807
0.0454605
0.0479431
0.0527643
0.0625566
0.0660551
0.0658467
0.0621556
0.0500388
0.0345342
0.0235639
0.0182337
0.0143102
0.0115052
0.00991772
0.00935411
0.00929848
0.00942679
0.00990565
0.0114152
0.0166118
0.0237968
0.0292977
0.0325149
0.0335632
0.0337021
0.0332331
0.0323234
0.0313509
0.0281403
0.0253738
0.0249923
0.0250759
0.0232761
0.0226341
0.023612
0.0260597
0.0286847
0.0311703
0.0332363
0.0398923
0.0566776
0.0621612
0.061119
0.0523825
0.0433357
0.0393326
0.0391234
0.0461697
0.0662868
0.0715674
0.0664807
0.0501895
0.0410457
0.0400879
0.0450441
0.0644416
0.0781064
0.0791899
0.0686766
0.042274
0.0290845
0.0234193
0.0205025
0.0190037
0.0187032
0.0191212
0.0210656
0.0224651
0.0238592
0.0287223
0.0347253
0.038752
0.0404902
0.0414617
0.0431848
0.0487914
0.059557
0.0692003
0.077662
0.0806779
0.0811943
0.0819727
0.0804498
0.0804259
0.0811513
0.0807985
0.0805209
0.0734979
0.0666476
0.0658069
0.0724714
0.0790691
0.0808806
0.0703523
0.0484748
0.0304353
0.0206269
0.0133306
0.00957882
0.00640513
0.00547771
0.00451161
0.00436001
0.00396542
0.00390759
0.00358625
0.00343915
0.00295941
0.00276609
0.00265497
0.00268475
0.00289656
0.00297264
0.00343972
0.00329267
0.00314041
0.00246493
0.00216015
0.00205338
0.00200767
0.00192123
0.00157711
0.00118
0.00156999
0.00121175
0.00302811
0.00186651
0.00893035
0.00560271
0.0142174
0.0535862
0.4677
0.43293
0.380822
0.332569
0.283594
0.17914
0.101941
0.0476854
0.0218199
0.0108832
0.008789
0.0077097
0.00863079
0.0091042
0.0110686
0.0299372
0.0526151
0.12792
0.387204
0.409433
0.372901
0.267928
0.216167
0.189078
0.168105
0.139878
0.133247
0.157155
0.174131
0.166078
0.163737
0.171236
0.170105
0.158127
0.0920799
0.0393188
0.0157345
0.00667399
0.00336904
0.00197659
0.00150998
0.00143059
0.00148599
0.00166276
0.00206708
0.00311727
0.00568404
0.00936556
0.0174422
0.0487424
0.102759
0.121665
0.119209
0.0919604
0.0808791
0.0799897
0.0678295
0.0480085
0.0443401
0.0577897
0.0701744
0.0646399
0.0477866
0.040714
0.0370387
0.0360591
0.0364073
0.038809
0.0417691
0.0441638
0.0465724
0.0510309
0.0614572
0.0654305
0.0654357
0.062393
0.0509889
0.035971
0.0241583
0.0182459
0.0142911
0.0114672
0.00987565
0.00933441
0.00928806
0.00942545
0.0099026
0.0109619
0.0137548
0.0203446
0.0268276
0.0309117
0.0325755
0.0328453
0.032657
0.031962
0.0309912
0.0280392
0.0252853
0.024732
0.0243548
0.0233646
0.0243217
0.026383
0.0276276
0.0297875
0.0322298
0.034051
0.0383908
0.0549904
0.0617661
0.0614181
0.0537707
0.0437785
0.0389782
0.0383418
0.0432329
0.0650861
0.0728447
0.0707809
0.0538659
0.0424862
0.0411042
0.0442961
0.0625489
0.0780604
0.081293
0.0726256
0.0439683
0.0291025
0.0237087
0.0207919
0.0190807
0.0186208
0.0188272
0.0203567
0.0217422
0.023196
0.0277244
0.0336864
0.0375754
0.0396135
0.0404972
0.0417151
0.0455342
0.0566011
0.0653967
0.0720174
0.0794765
0.0811736
0.0810545
0.0824215
0.0810247
0.0824938
0.0812681
0.0805653
0.0705304
0.0658976
0.0656927
0.0735681
0.0800776
0.079718
0.0681515
0.0444406
0.0294294
0.0190687
0.0132621
0.00864971
0.00662828
0.00456643
0.00395489
0.00337726
0.00352259
0.00347426
0.00372253
0.00361528
0.00376709
0.00353161
0.00339475
0.00302562
0.00291471
0.00292452
0.00305625
0.00350716
0.00356929
0.0038054
0.00317257
0.00239944
0.00241972
0.0021755
0.00243633
0.0017896
0.00254588
0.00170427
0.00493614
0.00321029
0.0239388
0.0103286
0.0128659
0.0356723
0.211249
0.193285
0.170471
0.133502
0.104585
0.0651522
0.037477
0.0168159
0.00837424
0.00587997
0.00564208
0.00598205
0.0056523
0.00581404
0.00606929
0.014675
0.0247435
0.0510818
0.255038
0.377635
0.373771
0.341787
0.293792
0.260999
0.229379
0.205239
0.205764
0.209658
0.189057
0.176791
0.180696
0.179946
0.172848
0.124218
0.0546346
0.0213747
0.00873065
0.0040499
0.0022013
0.0015306
0.00136075
0.00137406
0.00147684
0.00178697
0.00251415
0.00444177
0.00882106
0.0140229
0.0247659
0.0653635
0.115457
0.129049
0.11973
0.0886111
0.0848898
0.0842163
0.0680215
0.0477279
0.0437132
0.0564801
0.072853
0.0675436
0.0485456
0.0401265
0.0367071
0.0354616
0.0356813
0.0374506
0.0407736
0.0435536
0.0457338
0.0496614
0.0608926
0.0652106
0.0651483
0.0623372
0.0510143
0.0367011
0.0245225
0.0180678
0.0142308
0.0114562
0.00987723
0.00933708
0.00927997
0.00941855
0.0100671
0.0109299
0.0126172
0.0168659
0.0237133
0.0288955
0.0315677
0.0321937
0.0321218
0.031751
0.0310314
0.0285831
0.0256949
0.0245054
0.024023
0.0237487
0.0258189
0.027722
0.0287156
0.0313372
0.0337271
0.0352254
0.0376093
0.0521829
0.0610543
0.0613341
0.0551533
0.0446077
0.0388507
0.0379171
0.0409665
0.0629153
0.0737128
0.0742731
0.0586247
0.0446777
0.0423314
0.0438208
0.0602367
0.0774652
0.0846008
0.0774441
0.0473629
0.0293963
0.0236935
0.0217647
0.019887
0.019038
0.0190451
0.0202185
0.0212966
0.0224471
0.026307
0.032877
0.037097
0.0391706
0.0399944
0.0407692
0.0431221
0.0508105
0.0618386
0.0696221
0.0754465
0.0807128
0.0807285
0.0816708
0.0817668
0.0814987
0.0808357
0.0766947
0.0666252
0.0643632
0.0658137
0.0757579
0.079641
0.079142
0.0641199
0.0428419
0.0286726
0.0190187
0.0132101
0.0092019
0.00694251
0.00512791
0.00399362
0.00328259
0.00282074
0.00274896
0.00279853
0.00314424
0.00329076
0.00391555
0.0039543
0.00430681
0.00394229
0.00357757
0.00325408
0.00330152
0.00359645
0.00386522
0.00478857
0.00387286
0.003933
0.00316402
0.00396046
0.00266758
0.00492466
0.00323769
0.0230301
0.00995064
0.02809
0.0226957
0.0169528
0.0271838
0.0699618
0.0618644
0.0535778
0.0401029
0.0326719
0.0206876
0.0112264
0.0053397
0.00364679
0.00391052
0.00401623
0.00429204
0.00364063
0.00406305
0.00402989
0.00678133
0.0109546
0.0200931
0.0774241
0.259403
0.34023
0.335808
0.318561
0.29218
0.270336
0.259847
0.255037
0.22954
0.203404
0.196612
0.191841
0.182484
0.150135
0.0684339
0.0272869
0.0111785
0.00516484
0.00261712
0.00165874
0.00135062
0.00130952
0.00135746
0.00158468
0.0022173
0.00357252
0.00711287
0.0142743
0.0213242
0.0348851
0.0843744
0.128343
0.13594
0.115122
0.0885266
0.0904616
0.0875196
0.0660184
0.0476441
0.0438379
0.0551857
0.0754488
0.070308
0.0491812
0.0392289
0.0363388
0.0352178
0.0352649
0.0364763
0.0396302
0.0427439
0.0448878
0.0487153
0.0604566
0.0650032
0.0649712
0.0622062
0.0508645
0.0370511
0.0248127
0.0177378
0.0140386
0.011545
0.00996117
0.00938359
0.00923455
0.00935251
0.0100371
0.0109047
0.0120313
0.0143338
0.0203562
0.0261468
0.0298862
0.031533
0.0316442
0.0314683
0.0312423
0.0303521
0.0270144
0.0248689
0.0245587
0.0249054
0.0273571
0.0285613
0.0299587
0.0340112
0.0357742
0.0360638
0.0370688
0.0487503
0.0600311
0.0608904
0.0562655
0.0454406
0.0390358
0.0375389
0.0397079
0.0601864
0.0745303
0.0770772
0.0637535
0.0478626
0.0432406
0.0437745
0.0580281
0.0759921
0.0897536
0.0829552
0.0516675
0.0303083
0.0233612
0.0222021
0.0210421
0.0200299
0.0196014
0.0200494
0.0210918
0.0221277
0.0254813
0.0318961
0.0364908
0.039171
0.0400232
0.0403419
0.0417184
0.0471495
0.0546469
0.0651272
0.0723132
0.0775194
0.0799669
0.0805434
0.0807429
0.0806068
0.0787587
0.0723297
0.0644283
0.0645603
0.0704069
0.0794207
0.0798288
0.0784506
0.0608094
0.0427545
0.0290497
0.020868
0.0145679
0.0110712
0.00861089
0.00668055
0.00514616
0.00410696
0.00367839
0.00316765
0.00304318
0.00296068
0.00299064
0.00313406
0.0036094
0.00382043
0.00511031
0.00477692
0.00552164
0.00441085
0.00456047
0.00436781
0.00544186
0.00502086
0.00597351
0.00437307
0.0093129
0.00618711
0.0366471
0.0146354
0.0365543
0.0191071
0.0245474
0.0242272
0.0231273
0.0276772
0.0164351
0.013951
0.0127695
0.0102039
0.00853889
0.00515538
0.00275078
0.00210288
0.00222843
0.00293227
0.00271085
0.00254351
0.00241302
0.00306128
0.00330961
0.00415559
0.00572612
0.0088972
0.0256871
0.0899698
0.226548
0.286229
0.295273
0.287037
0.268647
0.261696
0.255802
0.229501
0.211815
0.20381
0.188663
0.16252
0.0778143
0.0325453
0.0136614
0.00626097
0.00312852
0.0018346
0.00139736
0.00128821
0.0012974
0.00144911
0.00201212
0.00337975
0.00585283
0.0124996
0.022728
0.0316953
0.0487895
0.105759
0.140427
0.141798
0.110183
0.093264
0.0939208
0.088296
0.063737
0.047684
0.0447662
0.0529763
0.0779732
0.0729219
0.049529
0.0385061
0.0360806
0.0351979
0.0352535
0.0361072
0.0388278
0.0416849
0.0439615
0.0478602
0.0604527
0.0648894
0.0646141
0.0618624
0.0503756
0.0377252
0.0254165
0.0177299
0.0139451
0.0115164
0.0102891
0.00954063
0.00924827
0.00919961
0.0095879
0.0104694
0.0113685
0.0128887
0.0171517
0.0231448
0.0277706
0.0302633
0.0309559
0.0311238
0.0311316
0.030945
0.0289999
0.0267705
0.0266744
0.0272652
0.0289738
0.0298932
0.0330688
0.0377106
0.0372476
0.0362041
0.0364177
0.0454365
0.0581849
0.0601835
0.0570993
0.046454
0.0393793
0.0373908
0.0389477
0.0567349
0.0755177
0.0793845
0.0687082
0.0520354
0.0441898
0.0439523
0.0563057
0.0740773
0.0970314
0.0888171
0.0570692
0.0316736
0.0232929
0.0221037
0.0219376
0.0211139
0.0204412
0.0203246
0.0207533
0.02175
0.0251675
0.0315025
0.0362063
0.0392813
0.040187
0.0403685
0.041057
0.0441483
0.0513934
0.0601505
0.0673914
0.0746785
0.0763854
0.0796737
0.0784223
0.0788701
0.0756354
0.0693757
0.063437
0.0666017
0.0756399
0.0824224
0.0808518
0.0745091
0.0576875
0.0384369
0.0323901
0.0218521
0.0202235
0.0160088
0.0181431
0.0148375
0.0163532
0.0114148
0.0129678
0.00915568
0.0097644
0.00676387
0.00647164
0.00502353
0.00527847
0.00470611
0.00589515
0.00564816
0.00858917
0.00727672
0.00940442
0.00720743
0.012654
0.00875056
0.0413996
0.0201679
0.115294
0.0531287
0.092241
0.0515993
0.0550863
0.0391534
0.0360478
0.027492
0.0258512
0.028786
0.0031087
0.00275446
0.0027097
0.00242758
0.00187228
0.00113017
0.00111185
0.00136623
0.00182849
0.00178345
0.00144975
0.00146122
0.00154451
0.00201372
0.00203147
0.00270599
0.00393575
0.00467534
0.00912594
0.0275909
0.0958902
0.147847
0.192489
0.209119
0.209843
0.214271
0.210806
0.199827
0.188176
0.171906
0.148354
0.0793391
0.0349999
0.0153867
0.00721691
0.00369907
0.00213034
0.00148005
0.00130054
0.0012815
0.00138212
0.00182716
0.00322244
0.00606108
0.0103593
0.0222614
0.0351918
0.0455642
0.067274
0.126927
0.151551
0.146389
0.107182
0.0971234
0.0946081
0.0874797
0.0628754
0.0488976
0.0463793
0.0514185
0.0806013
0.0756209
0.0497976
0.038333
0.0360307
0.0355046
0.0354722
0.0361655
0.0386072
0.0411353
0.0432095
0.0474422
0.0606524
0.064973
0.0643687
0.0611101
0.0496517
0.0380139
0.0263684
0.0178916
0.0139134
0.011454
0.0103575
0.00984532
0.00934474
0.00915952
0.00929232
0.00982014
0.0106078
0.0116988
0.0140601