/*--------------------------------*- C++ -*----------------------------------*\
| =========                 |                                                 |
| \\      /  F ield         | OpenFOAM: The Open Source CFD Toolbox           |
|  \\    /   O peration     | Version:  2.4.0                                 |
|   \\  /    A nd           | Web:      www.OpenFOAM.org                      |
|    \\/     M anipulation  |                                                 |
\*---------------------------------------------------------------------------*/
FoamFile
{
    version     2.0;
    format      ascii;
    class       volScalarField;
    location    "0.103";
    object      pMean;
}
// * * * * * * * * * * * * * * * * * * * * * * * * * * * * * * * * * * * * * //

dimensions      [0 2 -2 0 0 0 0];

internalField   nonuniform List<scalar> 
17600
(
120.546
104.21
99.224
97.6295
96.2162
94.787
93.4197
92.1093
90.8359
89.5662
88.3105
87.0523
85.827
84.5901
83.395
82.1555
80.9183
79.5731
78.0061
75.4671
118.654
104.259
99.2643
97.6388
96.2194
94.7875
93.4199
92.1096
90.836
89.5662
88.3105
87.0524
85.8271
84.5907
83.395
82.1575
80.9192
79.5785
78.017
75.8607
117.253
104.511
99.4058
97.6762
96.2331
94.7919
93.4219
92.111
90.837
89.5667
88.3108
87.0521
85.8274
84.5902
83.3958
82.1563
80.9225
79.5777
78.0837
76.074
116.284
104.846
99.6212
97.7395
96.262
94.8071
93.4304
92.1168
90.8409
89.5691
88.3117
87.0534
85.8276
84.5932
83.396
82.1647
80.923
79.6016
78.1378
76.3112
115.468
105.174
99.8789
97.8188
96.3034
94.8359
93.4497
92.1305
90.8505
89.5754
88.3154
87.0546
85.8296
84.593
83.3999
82.1634
80.9363
79.6128
78.2256
76.5545
114.7
105.46
100.149
97.8982
96.3443
94.8726
93.4786
92.153
90.8667
89.5871
88.3217
87.0607
85.8316
84.6004
83.4017
82.1757
80.9428
79.6395
78.3173
76.8133
113.977
105.7
100.418
97.9723
96.3756
94.9068
93.5116
92.1807
90.8883
89.6028
88.3319
87.0671
85.8371
84.6053
83.4077
82.1846
80.952
79.676
78.3925
77.0999
113.31
105.9
100.68
98.0435
96.3966
94.9336
93.544
92.2108
90.9116
89.6204
88.343
87.0759
85.8429
84.6137
83.4163
82.1961
80.973
79.7079
78.482
77.4261
112.704
106.061
100.926
98.1167
96.4095
94.9522
93.5733
92.2406
90.9356
89.6383
88.3541
87.0851
85.848
84.6234
83.4208
82.2132
80.9838
79.7557
78.5539
77.7481
112.16
106.186
101.154
98.194
96.4163
94.9631
93.5986
92.2692
90.959
89.6548
88.3647
87.0926
85.8546
84.6315
83.4314
82.2271
81.0075
79.8026
78.6477
78.0835
111.677
106.277
101.362
98.2758
96.4181
94.9673
93.6199
92.2964
90.9813
89.6706
88.3739
87.1002
85.8589
84.6405
83.4382
82.2438
81.0326
79.8525
78.7661
78.372
111.253
106.337
101.552
98.3617
96.4162
94.9659
93.6374
92.3217
91.0029
89.6852
88.3822
87.1063
85.8647
84.6486
83.4487
82.2607
81.0596
79.9093
78.8867
78.6264
110.883
106.374
101.722
98.4499
96.4119
94.96
93.6516
92.3451
91.0231
89.6985
88.3894
87.1119
85.8694
84.6567
83.4594
82.2784
81.0928
79.9675
79.0096
78.8576
110.567
106.393
101.872
98.536
96.407
94.9511
93.6628
92.3659
91.0421
89.7106
88.3959
87.117
85.8748
84.6648
83.4711
82.2974
81.1273
80.028
79.1317
79.0687
110.3
106.402
102
98.6133
96.4033
94.941
93.6716
92.3845
91.059
89.7212
88.4016
87.1211
85.8801
84.6732
83.484
82.3179
81.1634
80.0898
79.2505
79.2633
110.081
106.404
102.107
98.6796
96.4013
94.931
93.6783
92.4002
91.0738
89.7303
88.4066
87.1254
85.8855
84.6816
83.4976
82.3391
81.2013
80.1531
79.3647
79.4439
109.907
106.404
102.19
98.7339
96.4009
94.9217
93.6831
92.4131
91.0862
89.7379
88.4111
87.1291
85.8911
84.6906
83.5118
82.3618
81.24
80.2167
79.4737
79.6118
109.779
106.402
102.252
98.7755
96.4017
94.914
93.6863
92.423
91.0957
89.744
88.4148
87.1328
85.8967
84.6997
83.5267
82.3854
81.2799
80.2802
79.5777
79.7674
109.694
106.4
102.293
98.8038
96.4029
94.9085
93.6883
92.4299
91.1027
89.7485
88.4183
87.1362
85.9029
84.7087
83.5426
82.4092
81.3205
80.3432
79.6769
79.9107
109.652
106.399
102.313
98.8182
96.4037
94.9056
93.6893
92.4336
91.1066
89.7515
88.421
87.14
85.9085
84.7187
83.5577
82.435
81.3598
80.4071
79.7708
80.0387
109.652
106.398
102.313
98.8183
96.4037
94.906
93.6892
92.4343
91.1074
89.753
88.4231
87.1437
85.9146
84.7286
83.5741
82.46
81.4011
80.4666
79.8699
80.1439
109.695
106.399
102.293
98.804
96.4032
94.9092
93.6885
92.4315
91.1054
89.7526
88.425
87.1467
85.9211
84.7376
83.5915
82.4847
81.4432
80.5233
79.9655
80.26
109.78
106.401
102.252
98.776
96.4023
94.9153
93.6866
92.426
91.1002
89.7511
88.4258
87.1511
85.9265
84.7489
83.6069
82.5128
81.4806
80.5855
80.0293
80.359
109.91
106.402
102.191
98.7345
96.4019
94.9232
93.6837
92.4171
91.0924
89.7475
88.4265
87.1543
85.9329
84.7589
83.6239
82.5395
81.5199
80.6432
80.0936
80.4716
110.083
106.402
102.107
98.6805
96.4026
94.9327
93.6793
92.4052
91.0819
89.7426
88.4265
87.1577
85.939
84.7691
83.6411
82.566
81.5602
80.6972
80.1619
80.5579
110.303
106.399
102.001
98.6144
96.4051
94.9429
93.6732
92.3903
91.0688
89.7362
88.4257
87.161
85.9446
84.7799
83.6578
82.5938
81.5995
80.7521
80.2244
80.6286
110.571
106.39
101.872
98.5372
96.4094
94.9529
93.6652
92.3725
91.0537
89.7281
88.4244
87.1636
85.9505
84.7903
83.675
82.6214
81.6393
80.8072
80.2814
80.6852
110.888
106.37
101.722
98.4514
96.4149
94.9619
93.6548
92.3522
91.0366
89.7186
88.4223
87.1657
85.9563
84.8005
83.6925
82.649
81.6799
80.8626
80.3344
80.7262
111.257
106.334
101.552
98.3628
96.4201
94.9679
93.6415
92.3296
91.0181
89.7077
88.4194
87.1668
85.9622
84.8101
83.7101
82.6762
81.7216
80.9185
80.387
80.7486
111.682
106.273
101.362
98.2767
96.4226
94.9696
93.6248
92.3048
90.9984
89.6956
88.4155
87.167
85.9678
84.8191
83.7279
82.7029
81.7642
80.9751
80.4428
80.7487
112.166
106.182
101.153
98.1948
96.4212
94.9658
93.6042
92.2784
90.9776
89.6823
88.4103
87.1663
85.9731
84.8272
83.7455
82.7284
81.8079
81.032
80.5063
80.7241
112.71
106.057
100.925
98.1175
96.4147
94.9555
93.5797
92.2505
90.9559
89.668
88.404
87.1646
85.9777
84.8341
83.7629
82.7521
81.8525
81.087
80.5801
80.6765
113.316
105.896
100.679
98.0444
96.402
94.9374
93.5512
92.2215
90.9334
89.6527
88.3966
87.1621
85.9815
84.8403
83.7788
82.7739
81.8949
81.139
80.656
80.6259
113.983
105.697
100.417
97.9734
96.381
94.9111
93.5196
92.1925
90.9111
89.6374
88.3888
87.1594
85.9844
84.8458
83.7924
82.7936
81.9318
81.1862
80.7218
80.5773
114.705
105.456
100.149
97.8992
96.3499
94.8772
93.4874
92.1654
90.8909
89.6236
88.3821
87.1571
85.9869
84.8508
83.8038
82.8105
81.9621
81.2253
80.7744
80.5517
115.473
105.171
99.8787
97.8197
96.309
94.8408
93.4591
92.1436
90.8755
89.6137
88.3777
87.1561
85.9896
84.8553
83.813
82.8242
81.9848
81.2556
80.8086
80.5335
116.29
104.843
99.6211
97.7403
96.2677
94.8121
93.4403
92.1303
90.8666
89.6084
88.3761
87.1565
85.9921
84.8591
83.8195
82.834
81.9998
81.2767
80.8262
80.5285
117.258
104.508
99.4058
97.677
96.2388
94.7971
93.4321
92.1248
90.8631
89.6067
88.3759
87.1574
85.9939
84.8617
83.8234
82.8398
82.0081
81.289
80.8345
80.5345
118.659
104.256
99.2644
97.6395
96.2252
94.7928
93.4302
92.1234
90.8622
89.6064
88.3761
87.1581
85.9946
84.8628
83.825
82.8422
82.0112
81.2938
80.8367
80.5526
120.551
104.207
99.224
97.6302
96.2219
94.7924
93.43
92.1232
90.8621
89.6064
88.3762
87.1582
85.9946
84.863
83.8252
82.8424
82.0116
81.2942
80.836
80.5972
73.4123
73.2673
72.731
72.0538
71.3812
70.7185
70.0245
69.2752
68.6583
68.1668
67.7905
67.4573
67.1302
66.6301
65.8929
64.9002
63.6892
62.4912
61.4024
60.5841
60.1137
59.9013
59.9545
60.2779
60.8611
61.7041
62.7636
63.9681
65.2558
66.5903
67.9266
69.2091
70.4292
71.5943
72.6729
73.6318
74.5065
75.326
76.0939
76.7881
77.378
77.8451
78.1919
78.4473
78.6411
78.8151
79.0214
79.2441
79.3981
79.4823
79.5481
79.6021
79.6161
79.5663
79.4988
79.4567
79.4506
79.4866
79.5715
79.7166
79.9178
80.169
80.4645
80.8046
81.1889
81.6103
82.0499
82.4844
82.9017
83.2889
83.629
83.9159
84.1466
84.3155
84.4318
84.5099
84.553
84.5707
84.5625
84.5322
84.4915
84.4476
84.4081
84.3689
84.3447
84.3363
84.3392
84.3577
84.3898
84.435
84.4917
84.5523
84.632
84.7338
84.8603
85.0033
85.1673
85.3474
85.5386
85.7265
85.9114
86.0906
86.2642
86.4234
86.5714
86.7095
86.8388
86.9538
87.0591
87.1553
87.2497
87.3423
87.436
87.5305
87.6246
87.72
87.8158
87.9125
88.0055
88.0982
88.1875
88.2764
88.3654
88.4532
88.5493
88.6531
88.7786
88.9246
89.0987
89.302
89.5278
89.7675
90.0172
90.2681
90.5048
90.7205
90.9105
91.0657
91.1783
91.2526
91.2957
91.3127
91.3068
91.287
91.2583
91.2285
91.2018
91.1861
91.1841
91.2023
91.2378
91.2898
91.3515
91.4193
91.4819
91.5328
91.5657
91.5796
91.5711
91.5392
91.4839
91.4082
91.3177
91.2149
91.1045
90.9849
90.8599
90.7256
90.586
90.4366
90.2805
90.114
89.9393
89.753
89.5564
89.3474
89.125
88.8899
88.6381
88.372
88.0869
87.7846
87.4611
87.115
86.7444
86.3421
85.9065
85.4282
84.8982
84.2998
83.6152
82.8187
81.855
80.6692
79.0902
77.0696
74.0161
69.177
63.1747
36.4933
74.0533
73.6206
73.1239
72.5363
71.9323
71.3347
70.731
70.0811
69.5232
69.0926
68.7503
68.4307
68.0864
67.5933
66.8891
65.9408
64.7839
63.6096
62.5168
61.6715
61.1822
60.9619
61.0105
61.3253
61.8896
62.696
63.7063
64.8559
66.0889
67.3735
68.6747
69.9364
71.1353
72.2748
73.3263
74.2482
75.0798
75.8547
76.5686
77.2083
77.7536
78.178
78.4807
78.6891
78.8292
78.9349
79.0784
79.2634
79.398
79.4586
79.4907
79.5105
79.4917
79.4147
79.318
79.2385
79.1883
79.1799
79.2208
79.3219
79.4846
79.7048
79.9712
80.2881
80.6589
81.0771
81.5201
81.9648
82.3997
82.8094
83.1744
83.4878
83.7455
83.9423
84.0845
84.1871
84.2527
84.2947
84.3147
84.3139
84.3057
84.296
84.2927
84.2924
84.3049
84.3314
84.3659
84.4096
84.4619
84.5247
84.5926
84.66
84.7421
84.8407
84.9589
85.0879
85.2358
85.3978
85.5696
85.7381
85.9076
86.0719
86.2315
86.3763
86.5139
86.643
86.7652
86.8717
86.972
87.0633
87.155
87.2426
87.3322
87.4202
87.5106
87.6012
87.6949
87.7893
87.8829
87.9756
88.0671
88.158
88.2513
88.3441
88.4474
88.5577
88.6928
88.8488
89.0373
89.2547
89.4987
89.759
90.0339
90.3099
90.5726
90.8105
91.0221
91.1945
91.3234
91.4091
91.4618
91.4849
91.4851
91.4671
91.4404
91.409
91.3799
91.3565
91.346
91.3498
91.3701
91.4025
91.4458
91.4918
91.5359
91.5674
91.5853
91.5841
91.5642
91.5212
91.4573
91.3743
91.277
91.169
91.0522
90.9281
90.7961
90.6573
90.51
90.3553
90.191
90.0178
89.8336
89.6391
89.4317
89.212
88.9772
88.7279
88.4621
88.1777
87.8753
87.551
87.2054
86.8327
86.4323
85.9978
85.5228
84.9996
84.4143
83.7519
82.9847
82.089
80.9877
79.652
77.8223
75.4262
72.1461
65.7131
59.5205
29.4117
74.6722
74.1347
73.5553
72.9735
72.4089
71.8573
71.3154
70.7527
70.2481
69.8538
69.5346
69.2316
68.8744
68.3813
67.704
66.8094
65.7346
64.6202
63.5601
62.718
62.2256
62.0087
62.058
62.3696
62.9181
63.69
64.6527
65.7515
66.9315
68.165
69.4248
70.6564
71.828
72.9374
73.9588
74.848
75.6408
76.3792
77.0502
77.6356
78.1294
78.5088
78.7697
78.9356
79.0283
79.0719
79.1511
79.2959
79.4124
79.4558
79.4618
79.452
79.4049
79.3059
79.1851
79.0716
78.9793
78.9265
78.9228
78.9787
79.1031
79.2909
79.5296
79.824
80.1817
80.5945
81.0395
81.4935
81.9457
82.3778
82.7671
83.1058
83.3896
83.614
83.7836
83.9122
84.001
84.0666
84.1153
84.1452
84.17
84.195
84.2278
84.267
84.3179
84.3797
84.4455
84.5143
84.5854
84.6625
84.7389
84.8113
84.895
84.9887
85.0977
85.2124
85.3444
85.4874
85.6393
85.7879
85.9417
86.0895
86.2348
86.3643
86.4922
86.6115
86.7266
86.8243
86.9203
87.0061
87.0952
87.1772
87.2632
87.3438
87.4303
87.5146
87.6055
87.6947
87.7883
87.8787
87.9719
88.0629
88.1596
88.2553
88.3649
88.4795
88.6227
88.7857
88.9867
89.2154
89.4758
89.7537
90.0523
90.3515
90.6391
90.8987
91.1315
91.3215
91.4659
91.5627
91.6241
91.6526
91.6571
91.6414
91.6152
91.5823
91.5499
91.5206
91.5004
91.4924
91.4967
91.5121
91.536
91.5633
91.5874
91.6023
91.6037
91.5898
91.5569
91.5041
91.4312
91.3409
91.2373
91.1234
91.0013
90.8713
90.7343
90.5887
90.4363
90.2736
90.1035
89.9214
89.7301
89.5252
89.3086
89.0769
88.8303
88.5671
88.2856
87.9852
87.6623
87.3189
86.9478
86.5499
86.1192
85.6511
85.1384
84.5691
83.9276
83.2023
82.3531
81.3704
80.1215
78.606
76.6027
73.6801
70.5572
62.2752
56.0461
27.7584
75.1645
74.6418
74.0439
73.4066
72.8275
72.3109
71.8325
71.3569
70.9111
70.5456
70.2374
69.9344
69.561
69.0634
68.4127
67.5828
66.5905
65.5583
64.563
63.761
63.2804
63.0708
63.1149
63.4208
63.9555
64.6951
65.6114
66.6593
67.7844
68.9611
70.1691
71.3608
72.4982
73.5725
74.5639
75.4288
76.1898
76.8936
77.5266
78.0639
78.504
78.8371
79.0586
79.1875
79.2394
79.23
79.248
79.347
79.4428
79.4727
79.4611
79.4282
79.3585
79.242
79.1008
78.9543
78.8216
78.7269
78.6797
78.6918
78.779
78.9346
79.146
79.4195
79.7626
80.1676
80.612
81.0752
81.5448
81.9991
82.4126
82.776
83.0852
83.3365
83.5339
83.689
83.802
83.8907
83.9674
84.0283
84.0863
84.1461
84.2143
84.2929
84.3831
84.4793
84.5759
84.6692
84.7581
84.8468
84.9291
85.0052
85.0894
85.1762
85.2754
85.3757
85.4924
85.6156
85.7482
85.8762
86.0138
86.1435
86.2739
86.3875
86.5059
86.6145
86.7226
86.8115
86.9042
86.9837
87.0708
87.1462
87.2295
87.3022
87.3855
87.4617
87.5499
87.6311
87.7239
87.8092
87.9034
87.9918
88.0915
88.1873
88.3031
88.4192
88.5706
88.737
88.9498
89.1859
89.4619
89.7539
90.0747
90.3931
90.7051
90.9837
91.2386
91.4448
91.6062
91.7124
91.7829
91.815
91.824
91.8085
91.7835
91.7477
91.7122
91.6762
91.6483
91.6271
91.6184
91.6159
91.6233
91.6309
91.6382
91.635
91.6225
91.5943
91.5504
91.4869
91.4058
91.3078
91.1985
91.0782
90.9512
90.8153
90.6729
90.5216
90.3626
90.1942
90.0159
89.8274
89.6262
89.414
89.1853
88.9443
88.6835
88.4079
88.11
87.7928
87.4513
87.0849
86.6918
86.2651
85.8059
85.3033
84.7495
84.1388
83.4336
82.651
81.7163
80.6315
79.2892
77.5142
75.5569
71.8074
69.2151
59.104
52.7313
28.727
75.5745
75.1061
74.5176
73.8275
73.2096
72.7195
72.3066
71.9192
71.5414
71.2067
70.8996
70.583
70.2018
69.709
69.0882
68.3261
67.4234
66.4838
65.5728
64.8291
64.3749
64.1736
64.2018
64.4903
65.0073
65.7105
66.5775
67.5718
68.6401
69.7556
70.9038
72.0462
73.1423
74.1771
75.1393
75.9879
76.7262
77.393
77.9862
78.4815
78.8743
79.1637
79.3479
79.4432
79.4623
79.4109
79.3728
79.4223
79.4913
79.5102
79.4886
79.4419
79.3574
79.2262
79.0652
78.8864
78.7149
78.5811
78.4938
78.466
78.519
78.6428
78.8271
79.0797
79.4063
79.801
80.2431
80.7142
81.2015
81.6779
82.1152
82.5037
82.8379
83.1152
83.3401
83.5215
83.6593
83.7707
83.8742
83.9654
84.056
84.1503
84.2532
84.3698
84.4979
84.6277
84.7543
84.8711
84.9768
85.0752
85.1615
85.2397
85.3231
85.4008
85.4892
85.5753
85.6776
85.7813
85.8951
86.0025
86.1231
86.2332
86.348
86.4456
86.5547
86.6515
86.7527
86.8329
86.9232
86.9959
87.0814
87.1491
87.2305
87.2949
87.3764
87.443
87.5291
87.5998
87.6914
87.7682
87.8631
87.9452
88.0482
88.1405
88.2628
88.3774
88.5379
88.7037
88.9294
89.1684
89.4606
89.7607
90.1039
90.4345
90.7716
91.0638
91.3434
91.5612
91.7432
91.855
91.9379
91.9692
91.9861
91.9665
91.9454
91.9028
91.8677
91.8212
91.7892
91.753
91.734
91.7133
91.7066
91.6943
91.6869
91.6655
91.6408
91.5977
91.5439
91.4692
91.3805
91.2753
91.1597
91.0343
90.9012
90.7606
90.6119
90.4557
90.2897
90.1156
89.9295
89.7341
89.5242
89.3028
89.0646
88.8114
88.5397
88.2484
87.9364
87.6004
87.2406
86.8532
86.4342
85.9848
85.4895
84.9591
84.3596
83.7052
82.9479
82.0961
81.1111
79.8452
78.5256
76.2907
74.6933
69.7962
68.0055
56.407
49.3845
29.8042
76.0179
75.5775
74.9363
74.1981
73.5496
73.0823
72.7361
72.4386
72.1373
71.837
71.5327
71.2079
70.8306
70.354
69.7694
69.0732
68.2662
67.4218
66.602
65.9185
65.4975
65.313
65.3288
65.5881
66.071
66.7285
67.5409
68.4793
69.4919
70.5462
71.6308
72.7171
73.767
74.7597
75.6871
76.5181
77.2373
77.8675
78.4201
78.8794
79.2345
79.4874
79.6383
79.7032
79.6982
79.6164
79.5279
79.5268
79.5662
79.5748
79.5499
79.4977
79.4037
79.2603
79.0774
78.8669
78.6587
78.491
78.3686
78.3058
78.3274
78.4206
78.5777
78.8092
79.1178
79.4984
79.9367
80.4156
80.9199
81.4171
81.8783
82.2927
82.6518
82.9551
83.2059
83.4129
83.5757
83.7092
83.8379
83.9582
84.0801
84.2078
84.3444
84.4967
84.66
84.8216
84.9766
85.1159
85.238
85.3447
85.4335
85.5123
85.5936
85.6601
85.7372
85.8083
85.8975
85.9817
86.0778
86.1645
86.2687
86.3583
86.4577
86.5388
86.6383
86.7221
86.8167
86.8881
86.9765
87.0423
87.1265
87.1858
87.2656
87.3215
87.4017
87.4584
87.5429
87.6017
87.6917
87.7569
87.852
87.9245
88.0303
88.116
88.2447
88.3554
88.5256
88.6879
88.9263
89.1647
89.4734
89.7764
90.1406
90.4769
90.8382
91.1385
91.4442
91.6694
91.8747
91.9882
92.0873
92.1135
92.1419
92.1144
92.1009
92.0469
92.0159
91.9555
91.9226
91.8692
91.8442
91.8024
91.7866
91.752
91.7341
91.6927
91.6589
91.5992
91.5384
91.4499
91.3572
91.2413
91.1236
90.989
90.8541
90.7049
90.5537
90.3889
90.2197
90.0367
89.846
89.641
89.4248
89.1925
88.9456
88.6802
88.3962
88.0912
87.7626
87.4103
87.0294
86.6204
86.1776
85.7005
85.1782
84.6065
83.9785
83.249
82.4832
81.4948
80.5579
78.9626
77.9211
74.9085
73.9735
67.7357
66.5643
54.2047
45.8731
30.0536
76.5749
76.1022
75.3107
74.4963
73.8286
73.3882
73.115
72.9092
72.6894
72.4329
72.1459
71.8276
71.461
71.008
70.4669
69.834
69.1191
68.3694
67.637
67.015
66.6297
66.4696
66.4852
66.7106
67.148
67.7519
68.505
69.3844
70.3401
71.3335
72.3521
73.3756
74.3747
75.324
76.2108
77.0114
77.7074
78.3051
78.8217
79.2517
79.5779
79.8021
79.9269
79.9658
79.9468
79.8453
79.7143
79.6659
79.676
79.6733
79.6485
79.5959
79.4945
79.3368
79.1318
78.8935
78.6545
78.4573
78.3045
78.2119
78.2048
78.2685
78.3999
78.6104
78.8994
79.2646
79.6969
80.1834
80.7026
81.2188
81.7031
82.1447
82.53
82.8588
83.1344
83.3659
83.5529
83.708
83.8605
84.0084
84.1595
84.3188
84.4877
84.6724
84.8672
85.0581
85.2393
85.3991
85.5375
85.6509
85.7418
85.8196
85.8975
85.9511
86.0168
86.0721
86.1485
86.213
86.2928
86.3595
86.4477
86.5173
86.602
86.6667
86.7562
86.8261
86.914
86.9767
87.0634
87.1219
87.205
87.2556
87.334
87.381
87.4602
87.5066
87.5901
87.6366
87.7246
87.7762
87.8708
87.9308
88.0387
88.115
88.2494
88.354
88.5344
88.6904
88.942
89.1749
89.5006
89.8009
90.185
90.5193
90.9047
91.2061
91.54
91.7662
91.999
92.1075
92.2291
92.2435
92.2905
92.247
92.2494
92.1752
92.1568
92.0731
92.0501
91.9684
91.9503
91.877
91.8647
91.7979
91.7821
91.7105
91.6797
91.5932
91.5362
91.4248
91.3371
91.2027
91.0907
90.9402
90.81
90.6466
90.4985
90.3206
90.1524
89.9568
89.7652
89.5471
89.3283
89.0815
88.8301
88.5473
88.2576
87.9306
87.5951
87.2138
86.8251
86.3778
85.9307
85.4018
84.8828
84.2332
83.6229
82.7496
82.0777
80.7823
80.0865
77.881
77.3815
73.3644
73.1775
65.7606
64.6774
52.3913
42.1941
29.6923
77.2107
76.6848
75.6625
74.7145
74.0283
73.6348
73.4423
73.3258
73.1873
72.9878
72.7367
72.4369
72.0882
71.6641
71.171
70.6008
69.9665
69.3097
68.6639
68.1046
67.7534
67.6179
67.6419
67.8411
68.2333
68.7827
69.4717
70.2839
71.1774
72.1099
73.063
74.0214
74.963
75.8635
76.7033
77.465
78.1309
78.7001
79.1849
79.5911
79.8978
80.1011
80.2055
80.2276
80.204
80.0938
79.9284
79.8403
79.8227
79.8065
79.7812
79.7294
79.6206
79.4482
79.2231
78.9625
78.7003
78.4784
78.2994
78.1821
78.1484
78.1848
78.2934
78.4834
78.7529
79.1016
79.5272
80.0201
80.5518
81.0846
81.5913
82.0603
82.4723
82.8262
83.1261
83.3815
83.5922
83.7684
83.9431
84.1169
84.2945
84.4831
84.6822
84.8955
85.1173
85.3344
85.5388
85.7168
85.8699
85.9894
86.0824
86.1575
86.2305
86.2709
86.3245
86.364
86.4271
86.472
86.5358
86.5839
86.6567
86.7077
86.7782
86.8274
86.9067
86.9624
87.0438
87.0979
87.1828
87.234
87.3157
87.3574
87.4346
87.4724
87.5506
87.5866
87.6691
87.7027
87.7884
87.8256
87.9194
87.9653
88.0744
88.139
88.278
88.3741
88.5641
88.7119
88.9758
89.1995
89.5406
89.8333
90.235
90.5614
90.9688
91.2655
91.627
91.8485
92.1105
92.2092
92.3565
92.3547
92.4258
92.3602
92.3851
92.2831
92.2863
92.1691
92.1673
92.0469
92.0477
91.9323
91.9371
91.8261
91.8277
91.7122
91.7004
91.5722
91.5362
91.3863
91.3216
91.1521
91.0638
90.8805
90.7727
90.578
90.4505
90.2422
90.0929
89.8671
89.6928
89.4437
89.2409
88.9607
88.7246
88.4041
88.1298
87.7574
87.4392
87.0006
86.6343
86.1097
85.7023
85.057
84.6164
83.7785
83.3152
82.1331
81.7518
79.9138
79.6739
76.6625
76.777
71.7563
72.1417
63.9638
61.863
50.7819
39.0653
29.3628
77.9662
77.3525
76.0028
74.8865
74.1804
73.8395
73.7251
73.6902
73.6321
73.5007
73.2982
73.0263
72.7023
72.3116
71.8635
71.3557
70.7934
70.2238
69.6667
69.1729
68.8529
68.7366
68.7721
68.9541
69.308
69.8085
70.4325
71.1708
71.9968
72.8687
73.7595
74.6539
75.5321
76.3738
77.1606
77.8757
78.5059
79.0481
79.5068
79.891
80.1861
80.377
80.4661
80.478
80.4562
80.3484
80.16
80.0426
80.0009
79.9691
79.9407
79.888
79.7743
79.592
79.352
79.0743
78.7936
78.5506
78.3504
78.2128
78.1548
78.1662
78.2551
78.4284
78.6795
79.011
79.4302
79.9277
80.4689
81.0152
81.5429
82.0391
82.4779
82.8565
83.1802
83.4588
83.6933
83.8907
84.0861
84.2836
84.4849
84.6997
84.9261
85.1642
85.4079
85.6469
85.8718
86.0648
86.2306
86.3551
86.451
86.5204
86.5876
86.6153
86.6565
86.6811
86.7296
86.7556
86.803
86.8335
86.8907
86.9239
86.9826
87.017
87.087
87.1283
87.2042
87.2497
87.3333
87.3771
87.457
87.4898
87.566
87.5939
87.6709
87.6965
87.777
87.7982
87.8812
87.9036
87.9958
88.0271
88.1366
88.1882
88.3309
88.4171
88.6137
88.7519
89.0257
89.2376
89.5909
89.8721
90.288
90.6029
91.0287
91.3164
91.703
91.9157
92.2048
92.2907
92.4642
92.4436
92.5407
92.4507
92.5006
92.367
92.3959
92.2406
92.265
92.1007
92.1284
91.9626
91.9965
91.83
91.8638
91.6901
91.7147
91.5271
91.5328
91.3231
91.3063
91.0773
91.0404
90.7972
90.7416
90.4861
90.4109
90.1406
90.0436
89.754
89.632
89.3159
89.1668
88.814
88.6339
88.2314
88.0186
87.5494
87.303
86.743
86.4694
85.7829
85.5094
84.6346
84.3883
83.2201
83.0274
81.386
81.3619
78.8847
79.0832
75.3165
75.9693
70.2174
70.5101
62.5099
57.9421
49.1689
37.4088
29.7949
78.5936
77.9314
76.3612
75.105
74.3511
74.0303
73.9746
74.0142
74.0354
73.9739
73.8241
73.5878
73.2931
72.9372
72.5291
72.081
71.5853
71.0909
70.6218
70.1974
69.9098
69.8104
69.8582
70.031
70.3532
70.8112
71.3758
72.0409
72.7958
73.6038
74.433
75.2651
76.0782
76.8564
77.5845
78.2469
78.8346
79.3458
79.7832
80.1476
80.4346
80.6214
80.7007
80.7074
80.6891
80.5948
80.3969
80.2613
80.2021
80.1556
80.121
80.0679
79.9528
79.7662
79.5185
79.2284
78.9299
78.6702
78.4552
78.3009
78.2206
78.2101
78.2826
78.4428
78.6783
78.9944
79.4071
79.9074
80.4535
81.0105
81.5574
82.0796
82.5445
82.9475
83.2947
83.5961
83.8542
84.0729
84.2883
84.5071
84.7292
84.9666
85.217
85.4758
85.7366
85.9933
86.2347
86.4393
86.6152
86.7425
86.8408
86.9032
86.9633
86.9791
87.0086
87.0188
87.0514
87.0592
87.0899
87.1017
87.1443
87.1593
87.2084
87.2295
87.2925
87.3207
87.392
87.4293
87.5118
87.5486
87.6265
87.6506
87.7251
87.7432
87.8182
87.8331
87.9099
87.9189
87.9986
88.007
88.0965
88.1136
88.2227
88.2609
88.4055
88.481
88.6807
88.8078
89.0877
89.2855
89.6475
89.9145
90.3404
90.6412
91.0819
91.3583
91.7651
91.9669
92.2788
92.3505
92.5477
92.5083
92.6297
92.5156
92.5902
92.4244
92.4786
92.2843
92.3356
92.1252
92.182
91.9628
92.0299
91.803
91.8766
91.6356
91.7084
91.4468
91.5102
91.2214
91.2725
90.9611
91.0011
90.6702
90.6993
90.3492
90.3651
89.9933
89.9926
89.5947
89.5738
89.1421
89.0982
88.62
88.5499
88.0091
87.9136
87.2874
87.17
86.4251
86.302
85.3841
85.2962
84.1223
84.1101
82.5537
82.6515
80.5184
80.8168
77.7645
78.3396
74.0625
74.7471
68.9946
67.7447
61.058
54.3913
47.8292
37.1792
30.9189
79.1008
78.4442
76.7435
75.3659
74.543
74.2168
74.2042
74.3096
74.4021
74.4045
74.3083
74.114
73.8515
73.5314
73.1592
72.7631
72.3299
71.9007
71.5101
71.1572
70.9069
70.8242
70.8853
71.0555
71.3518
71.7727
72.2884
72.888
73.5716
74.3124
75.0785
75.8475
76.596
77.3092
77.9754
78.5827
79.1243
79.6003
80.0148
80.3606
80.6393
80.8272
80.904
80.9087
80.8965
80.8246
80.632
80.4893
80.4185
80.3607
80.3198
80.2678
80.1562
79.9683
79.7175
79.4213
79.106
78.834
78.6106
78.4433
78.3438
78.3161
78.3765
78.5257
78.7465
79.0503
79.458
79.9586
80.5063
81.0714
81.6349
82.1805
82.6698
83.0962
83.4668
83.7905
84.0717
84.3123
84.5469
84.7845
85.0245
85.2809
85.5514
85.8264
86.1005
86.3703
86.6243
86.836
87.0195
87.1466
87.2457
87.2995
87.3517
87.3569
87.3745
87.3709
87.3873
87.3764
87.392
87.3845
87.4133
87.4111
87.4501
87.4605
87.5172
87.5364
87.6035
87.6339
87.7146
87.7457
87.8214
87.8378
87.9095
87.9181
87.9902
87.9938
88.0651
88.0623
88.1378
88.1328
88.2183
88.2211
88.3289
88.3544
88.4989
88.562
88.7617
88.8757
89.1577
89.3389
89.7051
89.956
90.388
90.6736
91.1251
91.3895
91.8111
92.0001
92.3289
92.3861
92.602
92.5457
92.6875
92.552
92.6472
92.4535
92.528
92.2992
92.3714
92.1203
92.1994
91.9332
92.0259
91.7453
91.8504
91.5484
91.6609
91.3308
91.4455
91.0801
91.1973
90.7993
90.9221
90.49
90.6175
90.1515
90.2812
89.7793
89.9069
89.3653
89.4855
88.8968
89.0046
88.3553
88.4443
87.7174
87.7854
86.9562
87.0045
86.0306
86.0754
84.8969
84.975
83.4916
83.6713
81.7448
82.091
79.5611
80.0631
76.7644
77.2805
73.2328
72.7611
67.9261
64.4771
59.2495
52.2608
47.39
38.1125
32.3226
79.5107
78.8852
77.1168
75.6517
74.7676
74.421
74.4302
74.5811
74.7308
74.7931
74.7518
74.6049
74.3763
74.0909
73.7525
73.3991
73.0247
72.653
72.3275
72.0426
71.8334
71.7668
71.8405
72.0139
72.2911
72.68
73.156
73.7031
74.3212
74.9956
75.6974
76.4004
77.0835
77.732
78.3354
78.8866
79.3817
79.8226
80.2085
80.5335
80.8021
80.9937
81.0738
81.0768
81.0745
81.0315
80.8633
80.7228
80.647
80.5816
80.5366
80.4883
80.3862
80.2009
79.947
79.6447
79.318
79.0397
78.8143
78.6373
78.5233
78.4832
78.5347
78.6747
78.8826
79.1759
79.5809
80.0802
80.6267
81.1972
81.7748
82.3403
82.8509
83.2997
83.6933
84.0392
84.3423
84.6046
84.8576
85.1117
85.3668
85.6383
85.9249
86.2118
86.4959
86.7748
87.0372
87.2516
87.4398
87.5619
87.6593
87.7039
87.7455
87.741
87.7477
87.7289
87.7312
87.7022
87.7048
87.68
87.6955
87.6773
87.705
87.7057
87.7565
87.7687
87.8335
87.8589
87.9383
87.9642
88.0376
88.0481
88.1162
88.1164
88.1845
88.177
88.2406
88.2262
88.2955
88.2781
88.3587
88.3478
88.4516
88.4647
88.6075
88.657
88.853
88.9526
89.2304
89.3946
89.759
89.9938
90.4274
90.6989
91.1552
91.4083
91.8377
92.0142
92.352
92.396
92.6232
92.5535
92.7086
92.5572
92.6659
92.4513
92.5375
92.2831
92.3649
92.0841
92.1729
91.8721
91.9765
91.6562
91.7765
91.4296
91.5627
91.1823
91.3263
90.9042
91.061
90.5974
90.7715
90.261
90.4542
89.8938
90.1078
89.4901
89.7264
89.0414
89.2987
88.5359
88.8133
87.9538
88.2464
87.2752
87.5694
86.4679
86.7539
85.4904
85.7574
84.2948
84.5404
82.8251
83.1058
81.0493
81.3773
78.8707
79.062
76.1232
75.6923
72.4066
70.2176
66.3904
61.9283
57.7603
51.3736
47.8298
39.6599
33.7063
79.8452
79.2601
77.4739
75.9557
75.0179
74.6357
74.6455
74.8291
75.0292
75.1494
75.1612
75.0614
74.8677
74.6159
74.3117
73.9944
73.6722
73.3527
73.0793
72.8542
72.6879
72.6383
72.7207
72.8984
73.1645
73.5277
73.9708
74.4749
75.0382
75.6511
76.2878
76.9238
77.5419
78.1268
78.6687
79.1647
79.6133
80.0164
80.3704
80.6715
80.9262
81.119
81.2085
81.2119
81.2194
81.2109
81.0846
80.9567
80.8871
80.8186
80.7739
80.7337
80.6445
80.466
80.2102
79.8969
79.5625
79.2843
79.0622
78.8789
78.7589
78.7121
78.7556
78.8867
79.0831
79.3693
79.7714
80.2683
80.8125
81.3865
81.9757
82.5572
83.0858
83.5547
83.9711
84.3385
84.6623
84.9455
85.2154
85.4835
85.7512
86.034
86.3317
86.6274
86.9188
87.2025
87.47
87.6822
87.8728
87.9838
88.0752
88.1097
88.1378
88.1234
88.1204
88.0853
88.0764
88.0313
88.0254
87.9844
87.9878
87.954
87.9714
87.9612
88.007
88.013
88.0772
88.0993
88.1785
88.1997
88.2718
88.2768
88.3414
88.3347
88.3983
88.3798
88.4354
88.4087
88.4705
88.4408
88.5162
88.4913
88.589
88.5886
88.7267
88.7619
88.9521
89.0349
89.3034
89.4501
89.8078
90.026
90.4572
90.7162
91.1727
91.4143
91.8446
92.0083
92.3475
92.3791
92.6103
92.5297
92.6915
92.5283
92.6437
92.4146
92.504
92.2321
92.3137
92.012
92.0999
91.7746
91.8781
91.5307
91.6512
91.2749
91.4105
90.9993
91.1496
90.6952
90.8622
90.3638
90.5517
90.0015
90.2129
89.6047
89.8424
89.1648
89.4317
88.6707
88.9685
88.1111
88.4383
87.469
87.8242
86.7302
87.1063
85.8599
86.2429
84.8274
85.1876
83.5879
83.8923
82.0975
82.3365
80.3312
80.4133
78.1331
77.7458
75.2242
73.8077
70.965
68.0526
64.7391
60.3959
57.3109
51.5667
48.8154
41.2851
34.9324
80.1276
79.5848
77.8056
76.2539
75.2733
74.8571
74.863
75.0716
75.3128
75.4826
75.5415
75.4867
75.3299
75.1106
74.8413
74.5559
74.2774
74.005
73.7747
73.5985
73.4754
73.4454
73.534
73.7147
73.9726
74.3149
74.7294
75.1971
75.7134
76.2702
76.8443
77.4157
77.9704
78.4933
78.9767
79.4201
79.8223
80.1837
80.5039
80.7795
81.0161
81.203
81.3055
81.3175
81.3345
81.3608
81.2849
81.1861
81.1341
81.0706
81.0308
81.0046
80.9308
80.759
80.5042
80.18
79.8387
79.5662
79.3499
79.1655
79.0471
78.9994
79.038
79.1605
79.3454
79.6261
80.0253
80.5186
81.0602
81.6361
82.2343
82.8281
83.3715
83.8587
84.2968
84.6849
85.0277
85.33
85.6147
85.8947
86.1727
86.4632
86.7669
87.0673
87.3643
87.6484
87.9192
88.1232
88.3147
88.4069
88.4885
88.5107
88.5218
88.4961
88.4857
88.4319
88.4169
88.3573
88.3464
88.2895
88.2859
88.2365
88.2473
88.2247
88.2675
88.2653
88.3311
88.3496
88.4303
88.4472
88.5199
88.519
88.5817
88.5695
88.629
88.5992
88.6479
88.6075
88.6615
88.6189
88.6884
88.6491
88.7401
88.7234
88.8544
88.8733
89.0553
89.1198
89.3762
89.5052
89.8523
90.0536
90.4785
90.7247
91.178
91.408
91.8333
91.9833
92.3171
92.3362
92.5649
92.4747
92.6371
92.4655
92.5812
92.3435
92.4289
92.1456
92.2199
91.9036
91.9822
91.6404
91.7332
91.3685
91.4778
91.0839
91.2079
90.7803
90.92
90.4517
90.6074
90.0978
90.2722
89.7144
89.9084
89.2953
89.5099
88.8307
89.0667
88.3078
88.5664
87.713
87.9934
87.0279
87.3299
86.2345
86.5455
85.2935
85.5961
84.1755
84.4352
82.8397
83.0203
81.2322
81.2984
79.283
79.0951
76.8045
76.0709
73.5276
71.7716
69.0503
66.3141
63.5184
59.78
57.7272
52.5018
49.8963
42.7119
36.0442
80.3735
79.8675
78.107
76.5415
75.5375
75.096
75.0919
75.3122
75.5822
75.7928
75.8959
75.8858
75.7686
75.5816
75.3457
75.0896
74.8461
74.6155
74.4233
74.288
74.2044
74.1958
74.2895
74.4712
74.7223
75.0447
75.4318
75.8676
76.3415
76.8464
77.363
77.8734
78.3658
78.829
79.2577
79.651
80.0073
80.3264
80.6115
80.8599
81.0748
81.2512
81.3657
81.3953
81.4239
81.4806
81.4598
81.4034
81.3801
81.3343
81.3021
81.2954
81.2399
81.0736
80.8193
80.4874
80.145
79.8842
79.6759
79.4989
79.3894
79.3427
79.3772
79.4932
79.6671
79.9422
80.3375
80.826
81.3654
81.9422
82.5468
83.1496
83.7049
84.208
84.6667
85.0738
85.4346
85.7537
86.0499
86.3397
86.6262
86.9208
87.2257
87.5265
87.8272
88.1065
88.3808
88.5698
88.7626
88.8266
88.8956
88.9007
88.8932