/*--------------------------------*- C++ -*----------------------------------*\
| =========                 |                                                 |
| \\      /  F ield         | OpenFOAM: The Open Source CFD Toolbox           |
|  \\    /   O peration     | Version:  2.4.0                                 |
|   \\  /    A nd           | Web:      www.OpenFOAM.org                      |
|    \\/     M anipulation  |                                                 |
\*---------------------------------------------------------------------------*/
FoamFile
{
    version     2.0;
    format      ascii;
    class       surfaceScalarField;
    location    "0.036";
    object      phi;
}
// * * * * * * * * * * * * * * * * * * * * * * * * * * * * * * * * * * * * * //

dimensions      [0 3 -1 0 0 0 0];

internalField   nonuniform List<scalar> 
34880
(
1.2158e-05
3.4201e-07
1.18568e-05
3.01198e-07
1.157e-05
2.86784e-07
1.12862e-05
2.83843e-07
1.10137e-05
2.72446e-07
1.07572e-05
2.56551e-07
1.05181e-05
2.39107e-07
1.02968e-05
2.21325e-07
1.0093e-05
2.03784e-07
9.9062e-06
1.8681e-07
9.73564e-06
1.70569e-07
9.58044e-06
1.55151e-07
9.43993e-06
1.40572e-07
9.31305e-06
1.26887e-07
9.19896e-06
1.14113e-07
9.09669e-06
1.02305e-07
9.00507e-06
9.16063e-08
8.92257e-06
8.25209e-08
8.84466e-06
7.79097e-08
1.93712e-07
8.65099e-06
1.24955e-05
3.46542e-07
1.24494e-05
3.47226e-07
1.23924e-05
3.43787e-07
1.23213e-05
3.55051e-07
1.22379e-05
3.55756e-07
1.21454e-05
3.49059e-07
1.20461e-05
3.3849e-07
1.19419e-05
3.25531e-07
1.18347e-05
3.10987e-07
1.1726e-05
2.95441e-07
1.16173e-05
2.79303e-07
1.15096e-05
2.62865e-07
1.14039e-05
2.46319e-07
1.13009e-05
2.29861e-07
1.12014e-05
2.13654e-07
1.11058e-05
1.979e-07
1.10144e-05
1.82981e-07
1.09269e-05
1.69997e-07
1.0838e-05
1.66857e-07
2.41076e-07
1.07907e-05
1.25262e-05
3.20313e-07
1.25337e-05
3.39748e-07
1.25359e-05
3.4156e-07
1.25342e-05
3.56802e-07
1.25274e-05
3.62597e-07
1.25156e-05
3.60804e-07
1.24991e-05
3.55022e-07
1.24779e-05
3.46745e-07
1.24521e-05
3.36742e-07
1.2422e-05
3.25588e-07
1.23876e-05
3.13701e-07
1.2349e-05
3.0138e-07
1.23066e-05
2.88799e-07
1.22603e-05
2.7614e-07
1.22105e-05
2.63515e-07
1.21573e-05
2.51076e-07
1.21011e-05
2.3923e-07
1.20418e-05
2.29276e-07
1.1979e-05
2.29664e-07
2.70447e-07
1.19497e-05
1.25308e-05
2.89484e-07
1.25492e-05
3.21394e-07
1.25641e-05
3.26701e-07
1.2578e-05
3.42845e-07
1.25901e-05
3.50509e-07
1.26002e-05
3.50728e-07
1.26082e-05
3.47055e-07
1.26139e-05
3.40996e-07
1.26174e-05
3.33283e-07
1.26185e-05
3.24474e-07
1.26172e-05
3.1498e-07
1.26135e-05
3.05104e-07
1.26073e-05
2.95031e-07
1.25985e-05
2.84952e-07
1.2587e-05
2.74993e-07
1.25728e-05
2.65328e-07
1.25556e-05
2.56397e-07
1.25354e-05
2.49503e-07
1.25131e-05
2.51902e-07
2.73509e-07
1.25101e-05
1.253e-05
2.59474e-07
1.25513e-05
3.00139e-07
1.25701e-05
3.07893e-07
1.25889e-05
3.23994e-07
1.26071e-05
3.32399e-07
1.26242e-05
3.33611e-07
1.26402e-05
3.31076e-07
1.26549e-05
3.26268e-07
1.26683e-05
3.19886e-07
1.26803e-05
3.12461e-07
1.26909e-05
3.04389e-07
1.27e-05
2.95967e-07
1.27077e-05
2.87367e-07
1.27139e-05
2.78794e-07
1.27185e-05
2.70375e-07
1.27216e-05
2.62291e-07
1.27229e-05
2.5501e-07
1.27228e-05
2.49667e-07
1.27227e-05
2.51971e-07
2.62489e-07
1.27338e-05
1.25277e-05
2.3173e-07
1.25498e-05
2.78065e-07
1.25702e-05
2.87542e-07
1.2591e-05
3.03176e-07
1.26116e-05
3.11815e-07
1.26316e-05
3.13585e-07
1.26509e-05
3.11772e-07
1.26694e-05
3.07807e-07
1.26869e-05
3.02346e-07
1.27035e-05
2.95897e-07
1.27191e-05
2.88835e-07
1.27336e-05
2.8144e-07
1.27471e-05
2.73883e-07
1.27595e-05
2.66356e-07
1.27709e-05
2.58985e-07
1.27813e-05
2.51956e-07
1.27906e-05
2.45703e-07
1.27991e-05
2.41173e-07
1.28085e-05
2.4258e-07
2.4612e-07
1.28248e-05
1.25253e-05
2.06453e-07
1.25474e-05
2.55936e-07
1.25683e-05
2.66609e-07
1.259e-05
2.81517e-07
1.26117e-05
2.90088e-07
1.26332e-05
2.92166e-07
1.26541e-05
2.90853e-07
1.26744e-05
2.87513e-07
1.2694e-05
2.82764e-07
1.27128e-05
2.77083e-07
1.27308e-05
2.70822e-07
1.2748e-05
2.64251e-07
1.27644e-05
2.57525e-07
1.27799e-05
2.50829e-07
1.27946e-05
2.44287e-07
1.28085e-05
2.38071e-07
1.28216e-05
2.32586e-07
1.28343e-05
2.28555e-07
1.2848e-05
2.28868e-07
2.27766e-07
1.28663e-05
1.2523e-05
1.8344e-07
1.25449e-05
2.34085e-07
1.2566e-05
2.45527e-07
1.25879e-05
2.5954e-07
1.26102e-05
2.67838e-07
1.26323e-05
2.70059e-07
1.26541e-05
2.69095e-07
1.26753e-05
2.66244e-07
1.2696e-05
2.62077e-07
1.27161e-05
2.57041e-07
1.27354e-05
2.51463e-07
1.27541e-05
2.45593e-07
1.27721e-05
2.39581e-07
1.27893e-05
2.33597e-07
1.28058e-05
2.27757e-07
1.28217e-05
2.22226e-07
1.28369e-05
2.1735e-07
1.28518e-05
2.13666e-07
1.28677e-05
2.12941e-07
2.08646e-07
1.28869e-05
1.2521e-05
1.62406e-07
1.25425e-05
2.12644e-07
1.25635e-05
2.24485e-07
1.25856e-05
2.37497e-07
1.2608e-05
2.45376e-07
1.26305e-05
2.47623e-07
1.26527e-05
2.46907e-07
1.26745e-05
2.44448e-07
1.26958e-05
2.40775e-07
1.27165e-05
2.36298e-07
1.27367e-05
2.31322e-07
1.27562e-05
2.26077e-07
1.27751e-05
2.20701e-07
1.27933e-05
2.15354e-07
1.28109e-05
2.10143e-07
1.2828e-05
2.05216e-07
1.28444e-05
2.00872e-07
1.28607e-05
1.9746e-07
1.28778e-05
1.95806e-07
1.89295e-07
1.28972e-05
1.25193e-05
1.43075e-07
1.25403e-05
1.91651e-07
1.25613e-05
2.03553e-07
1.25833e-05
2.155e-07
1.26058e-05
2.22861e-07
1.26284e-05
2.25053e-07
1.26508e-05
2.24511e-07
1.26728e-05
2.22378e-07
1.26945e-05
2.19136e-07
1.27156e-05
2.1516e-07
1.27362e-05
2.10729e-07
1.27562e-05
2.06053e-07
1.27757e-05
2.01261e-07
1.27946e-05
1.96495e-07
1.28129e-05
1.91857e-07
1.28306e-05
1.87481e-07
1.28479e-05
1.83599e-07
1.28649e-05
1.80416e-07
1.28827e-05
1.77995e-07
1.69956e-07
1.29021e-05
1.25179e-05
1.25196e-07
1.25384e-05
1.71101e-07
1.25592e-05
1.82753e-07
1.25812e-05
1.93595e-07
1.26036e-05
2.00365e-07
1.26263e-05
2.02444e-07
1.26487e-05
2.02031e-07
1.2671e-05
2.00177e-07
1.26928e-05
1.97321e-07
1.27141e-05
1.93802e-07
1.2735e-05
1.89874e-07
1.27553e-05
1.85728e-07
1.27751e-05
1.81481e-07
1.27943e-05
1.7726e-07
1.2813e-05
1.73159e-07
1.28313e-05
1.69293e-07
1.2849e-05
1.65847e-07
1.28666e-05
1.62877e-07
1.28847e-05
1.59829e-07
1.50775e-07
1.29039e-05
1.25167e-05
1.08548e-07
1.25368e-05
1.5097e-07
1.25575e-05
1.62084e-07
1.25793e-05
1.71792e-07
1.26017e-05
1.77919e-07
1.26243e-05
1.79847e-07
1.26468e-05
1.79527e-07
1.26691e-05
1.77922e-07
1.2691e-05
1.75422e-07
1.27125e-05
1.72333e-07
1.27335e-05
1.68881e-07
1.27539e-05
1.65236e-07
1.27739e-05
1.61504e-07
1.27934e-05
1.57798e-07
1.28124e-05
1.54203e-07
1.28309e-05
1.50819e-07
1.28489e-05
1.47771e-07
1.28668e-05
1.45012e-07
1.28851e-05
1.41498e-07
1.31821e-07
1.29041e-05
1.25156e-05
9.29341e-08
1.25354e-05
1.31223e-07
1.25559e-05
1.4154e-07
1.25776e-05
1.50089e-07
1.26e-05
1.55529e-07
1.26226e-05
1.57274e-07
1.26451e-05
1.5703e-07
1.26674e-05
1.55653e-07
1.26893e-05
1.5349e-07
1.27108e-05
1.5081e-07
1.27319e-05
1.47812e-07
1.27525e-05
1.44649e-07
1.27726e-05
1.41413e-07
1.27922e-05
1.38205e-07
1.28113e-05
1.35098e-07
1.283e-05
1.32176e-07
1.28482e-05
1.2952e-07
1.28663e-05
1.26982e-07
1.28846e-05
1.2313e-07
1.13143e-07
1.29033e-05
1.25148e-05
7.81823e-08
1.25342e-05
1.11821e-07
1.25546e-05
1.21107e-07
1.25762e-05
1.28477e-07
1.25985e-05
1.33199e-07
1.26211e-05
1.34737e-07
1.26436e-05
1.3455e-07
1.26658e-05
1.33388e-07
1.26878e-05
1.3155e-07
1.27093e-05
1.29267e-07
1.27304e-05
1.26713e-07
1.2751e-05
1.24018e-07
1.27712e-05
1.21264e-07
1.27909e-05
1.18537e-07
1.28101e-05
1.15901e-07
1.28289e-05
1.13427e-07
1.28472e-05
1.11144e-07
1.28654e-05
1.08841e-07
1.28837e-05
1.04799e-07
9.47602e-08
1.29021e-05
1.2514e-05
6.41367e-08
1.25332e-05
9.27185e-08
1.25535e-05
1.00771e-07
1.2575e-05
1.06945e-07
1.25973e-05
1.10918e-07
1.26198e-05
1.1223e-07
1.26423e-05
1.12091e-07
1.26645e-05
1.11134e-07
1.26865e-05
1.09611e-07
1.2708e-05
1.07718e-07
1.27292e-05
1.05598e-07
1.27498e-05
1.03364e-07
1.277e-05
1.01085e-07
1.27897e-05
9.88311e-08
1.2809e-05
9.66596e-08
1.28278e-05
9.46243e-08
1.28462e-05
9.27214e-08
1.28644e-05
9.06798e-08
1.28826e-05
8.65548e-08
7.66838e-08
1.29007e-05
1.25135e-05
5.06592e-08
1.25323e-05
7.38693e-08
1.25526e-05
8.0518e-08
1.25741e-05
8.5478e-08
1.25963e-05
8.8684e-08
1.26188e-05
8.97533e-08
1.26412e-05
8.96514e-08
1.26635e-05
8.88932e-08
1.26854e-05
8.76819e-08
1.27069e-05
8.61734e-08
1.27281e-05
8.44838e-08
1.27487e-05
8.27052e-08
1.27689e-05
8.08927e-08
1.27887e-05
7.91053e-08
1.28079e-05
7.73892e-08
1.28268e-05
7.57866e-08
1.28452e-05
7.42574e-08
1.28634e-05
7.25001e-08
1.28816e-05
6.84218e-08
5.89148e-08
1.28994e-05
1.2513e-05
3.76211e-08
1.25317e-05
5.52237e-08
1.25519e-05
6.03317e-08
1.25733e-05
6.40651e-08
1.25955e-05
6.64831e-08
1.2618e-05
6.72971e-08
1.26404e-05
6.72281e-08
1.26626e-05
6.66643e-08
1.26845e-05
6.57587e-08
1.27061e-05
6.46311e-08
1.27272e-05
6.33677e-08
1.27478e-05
6.20411e-08
1.27681e-05
6.06951e-08
1.27878e-05
5.93711e-08
1.28071e-05
5.81098e-08
1.2826e-05
5.6939e-08
1.28444e-05
5.57956e-08
1.28626e-05
5.43557e-08
1.28806e-05
5.04144e-08
4.14491e-08
1.28981e-05
1.25127e-05
2.49062e-08
1.25312e-05
3.67324e-08
1.25514e-05
4.01958e-08
1.25727e-05
4.26914e-08
1.25949e-05
4.43125e-08
1.26173e-05
4.48611e-08
1.26398e-05
4.48182e-08
1.2662e-05
4.44446e-08
1.26839e-05
4.38444e-08
1.27054e-05
4.30958e-08
1.27266e-05
4.22583e-08
1.27472e-05
4.1382e-08
1.27674e-05
4.04964e-08
1.27872e-05
3.96331e-08
1.28065e-05
3.88217e-08
1.28253e-05
3.808e-08
1.28438e-05
3.73237e-08
1.28619e-05
3.62275e-08
1.28798e-05
3.25365e-08
2.42828e-08
1.2897e-05
1.25125e-05
1.24019e-08
1.25309e-05
1.83437e-08
1.2551e-05
2.00942e-08
1.25724e-05
2.13457e-08
1.25945e-05
2.21566e-08
1.26169e-05
2.24342e-08
1.26393e-05
2.2416e-08
1.26616e-05
2.22315e-08
1.26835e-05
2.19326e-08
1.2705e-05
2.15614e-08
1.27261e-05
2.11476e-08
1.27468e-05
2.07189e-08
1.2767e-05
2.02983e-08
1.27867e-05
1.9894e-08
1.2806e-05
1.95343e-08
1.28249e-05
1.92255e-08
1.28434e-05
1.88684e-08
1.28615e-05
1.81523e-08
1.28792e-05
1.47869e-08
7.4075e-09
1.28961e-05
1.25124e-05
3.17612e-12
1.25307e-05
6.56857e-12
1.25508e-05
9.93448e-12
1.25722e-05
1.19171e-11
1.25943e-05
1.361e-11
1.26167e-05
1.56434e-11
1.26391e-05
1.91407e-11
1.26614e-05
2.12235e-11
1.26833e-05
2.57035e-11
1.27048e-05
3.14076e-11
1.27259e-05
4.19036e-11
1.27465e-05
6.22298e-11
1.27668e-05
9.93658e-11
1.27865e-05
1.53917e-10
1.28058e-05
2.43402e-10
1.28247e-05
3.6522e-10
1.28431e-05
4.14266e-10
1.28612e-05
1.02916e-10
1.28788e-05
-2.83844e-09
-9.1785e-09
1.28954e-05
1.25124e-05
-1.23965e-08
1.25307e-05
-1.83309e-08
1.25508e-05
-2.00744e-08
1.25722e-05
-2.13202e-08
1.25943e-05
-2.21335e-08
1.26167e-05
-2.24054e-08
1.26391e-05
-2.23789e-08
1.26614e-05
-2.21886e-08
1.26833e-05
-2.1884e-08
1.27048e-05
-2.15015e-08
1.27259e-05
-2.10676e-08
1.27465e-05
-2.06009e-08
1.27668e-05
-2.00987e-08
1.27865e-05
-1.95865e-08
1.28058e-05
-1.90453e-08
1.28247e-05
-1.84863e-08
1.28431e-05
-1.80211e-08
1.28611e-05
-1.7891e-08
1.28786e-05
-2.0347e-08
-2.54808e-08
1.2895e-05
1.25125e-05
-2.48999e-08
1.25309e-05
-3.67194e-08
1.2551e-05
-4.0176e-08
1.25724e-05
-4.26678e-08
1.25945e-05
-4.42854e-08
1.26169e-05
-4.483e-08
1.26393e-05
-4.47801e-08
1.26616e-05
-4.44025e-08
1.26835e-05
-4.37933e-08
1.2705e-05
-4.30335e-08
1.27261e-05
-4.21751e-08
1.27468e-05
-4.12586e-08
1.2767e-05
-4.02994e-08
1.27867e-05
-3.93277e-08
1.2806e-05
-3.83356e-08
1.28249e-05
-3.73424e-08
1.28433e-05
-3.64506e-08
1.28613e-05
-3.58582e-08
1.28787e-05
-3.77437e-08
-4.14951e-08
1.28947e-05
1.25127e-05
-3.76157e-08
1.25312e-05
-5.52111e-08
1.25514e-05
-6.03123e-08
1.25727e-05
-6.40398e-08
1.25949e-05
-6.64602e-08
1.26173e-05
-6.72686e-08
1.26398e-05
-6.71913e-08
1.2662e-05
-6.6622e-08
1.26839e-05
-6.57106e-08
1.27054e-05
-6.45722e-08
1.27266e-05
-6.32882e-08
1.27472e-05
-6.19258e-08
1.27674e-05
-6.04983e-08
1.27872e-05
-5.90689e-08
1.28065e-05
-5.76229e-08
1.28253e-05
-5.61859e-08
1.28437e-05
-5.48616e-08
1.28617e-05
-5.37711e-08
1.2879e-05
-5.50348e-08
-5.72194e-08
1.28947e-05
1.2513e-05
-5.06528e-08
1.25317e-05
-7.38565e-08
1.25519e-05
-8.04987e-08
1.25733e-05
-8.54547e-08
1.25955e-05
-8.86574e-08
1.2618e-05
-8.97228e-08
1.26404e-05
-8.96138e-08
1.26626e-05
-8.88521e-08
1.26845e-05
-8.76316e-08
1.27061e-05
-8.61128e-08
1.27272e-05
-8.44017e-08
1.27478e-05
-8.2586e-08
1.27681e-05
-8.06999e-08
1.27878e-05
-7.88076e-08
1.28071e-05
-7.69065e-08
1.2826e-05
-7.50291e-08
1.28444e-05
-7.32578e-08
1.28622e-05
-7.16537e-08
1.28794e-05
-7.22206e-08
-7.264e-08
1.28949e-05
1.25135e-05
-6.41313e-08
1.25323e-05
-9.27062e-08
1.25526e-05
-1.00753e-07
1.25741e-05
-1.0692e-07
1.25963e-05
-1.10896e-07
1.26188e-05
-1.12202e-07
1.26412e-05
-1.12055e-07
1.26635e-05
-1.11093e-07
1.26854e-05
-1.09564e-07
1.2707e-05
-1.07661e-07
1.27281e-05
-1.0552e-07
1.27487e-05
-1.03254e-07
1.27689e-05
-1.00894e-07
1.27887e-05
-9.85394e-08
1.2808e-05
-9.61783e-08
1.28268e-05
-9.38474e-08
1.28452e-05
-9.1626e-08
1.2863e-05
-8.94744e-08
1.28801e-05
-8.92998e-08
-8.77392e-08
1.28952e-05
1.2514e-05
-7.81761e-08
1.25332e-05
-1.11809e-07
1.25535e-05
-1.21088e-07
1.2575e-05
-1.28455e-07
1.25973e-05
-1.33173e-07
1.26198e-05
-1.34708e-07
1.26423e-05
-1.34513e-07
1.26645e-05
-1.33348e-07
1.26865e-05
-1.31501e-07
1.2708e-05
-1.29209e-07
1.27292e-05
-1.26633e-07
1.27498e-05
-1.23906e-07
1.277e-05
-1.21079e-07
1.27897e-05
-1.18252e-07
1.2809e-05
-1.15426e-07
1.28278e-05
-1.12644e-07
1.28461e-05
-1.09953e-07
1.28639e-05
-1.07243e-07
1.28808e-05
-1.06259e-07
-1.02486e-07
1.28956e-05
1.25148e-05
-9.29287e-08
1.25342e-05
-1.31211e-07
1.25546e-05
-1.41522e-07
1.25762e-05
-1.50065e-07
1.25985e-05
-1.55507e-07
1.26211e-05
-1.57247e-07
1.26436e-05
-1.56994e-07
1.26658e-05
-1.55613e-07
1.26878e-05
-1.53444e-07
1.27093e-05
-1.50756e-07
1.27304e-05
-1.47735e-07
1.27511e-05
-1.44547e-07
1.27712e-05
-1.41231e-07
1.27909e-05
-1.37929e-07
1.28101e-05
-1.34627e-07
1.28289e-05
-1.31374e-07
1.28471e-05
-1.28211e-07
1.28648e-05
-1.24912e-07
1.28816e-05
-1.23076e-07
-1.16835e-07
1.2896e-05
1.25156e-05
-1.08542e-07
1.25354e-05
-1.50958e-07
1.25559e-05
-1.62067e-07
1.25776e-05
-1.7177e-07
1.26e-05
-1.77894e-07
1.26226e-05
-1.79818e-07
1.26451e-05
-1.79492e-07
1.26674e-05
-1.77884e-07
1.26893e-05
-1.75375e-07
1.27108e-05
-1.72279e-07
1.27319e-05
-1.68804e-07
1.27525e-05
-1.65131e-07
1.27726e-05
-1.6133e-07
1.27922e-05
-1.57532e-07
1.28113e-05
-1.53742e-07
1.283e-05
-1.50014e-07
1.28481e-05
-1.46353e-07
1.28657e-05
-1.42457e-07
1.28823e-05
-1.39705e-07
-1.30722e-07
1.28962e-05
1.25167e-05
-1.2519e-07
1.25368e-05
-1.7109e-07
1.25575e-05
-1.82736e-07
1.25793e-05
-1.93572e-07
1.26017e-05
-2.00344e-07
1.26243e-05
-2.02418e-07
1.26468e-05
-2.01997e-07
1.26691e-05
-2.0014e-07
1.2691e-05
-1.97276e-07
1.27125e-05
-1.93752e-07
1.27335e-05
-1.89801e-07
1.27539e-05
-1.85636e-07
1.2774e-05
-1.81311e-07
1.27934e-05
-1.77006e-07
1.28124e-05
-1.72709e-07
1.28309e-05
-1.68477e-07
1.28488e-05
-1.64311e-07
1.28662e-05
-1.59788e-07
1.28826e-05
-1.56076e-07
-1.4405e-07
1.28959e-05
1.25179e-05
-1.43069e-07
1.25384e-05
-1.9164e-07
1.25592e-05
-2.03536e-07
1.25812e-05
-2.1548e-07
1.26036e-05
-2.22838e-07
1.26263e-05
-2.25026e-07
1.26487e-05
-2.24478e-07
1.2671e-05
-2.22343e-07
1.26928e-05
-2.19091e-07
1.27141e-05
-2.1511e-07
1.2735e-05
-2.10657e-07
1.27553e-05
-2.05959e-07
1.27751e-05
-2.01102e-07
1.27944e-05
-1.96254e-07
1.28131e-05
-1.91422e-07
1.28313e-05
-1.86671e-07
1.28489e-05
-1.81962e-07
1.2866e-05
-1.76808e-07
1.2882e-05
-1.72074e-07
-1.56689e-07
1.28946e-05
1.25193e-05
-1.62401e-07
1.25403e-05
-2.12633e-07
1.25613e-05
-2.2447e-07
1.25833e-05
-2.37475e-07
1.26058e-05
-2.45357e-07
1.26284e-05
-2.47598e-07
1.26508e-05
-2.46875e-07
1.26728e-05
-2.44414e-07
1.26945e-05
-2.40734e-07
1.27156e-05
-2.36252e-07
1.27362e-05
-2.31254e-07
1.27562e-05
-2.25995e-07
1.27757e-05
-2.20549e-07
1.27946e-05
-2.15128e-07
1.28129e-05
-2.09726e-07
1.28307e-05
-2.0441e-07
1.28478e-05
-1.99142e-07
1.28644e-05
-1.93323e-07
1.28798e-05
-1.8752e-07
-1.68442e-07
1.28916e-05
1.2521e-05
-1.83434e-07
1.25425e-05
-2.34075e-07
1.25635e-05
-2.45512e-07
1.25856e-05
-2.59522e-07
1.2608e-05
-2.67816e-07
1.26305e-05
-2.70035e-07
1.26527e-05
-2.69064e-07
1.26745e-05
-2.66212e-07
1.26958e-05
-2.62036e-07
1.27165e-05
-2.56995e-07
1.27367e-05
-2.51397e-07
1.27562e-05
-2.4551e-07
1.27751e-05
-2.39442e-07
1.27933e-05
-2.33387e-07
1.2811e-05
-2.27363e-07
1.2828e-05
-2.21445e-07
1.28445e-05
-2.15557e-07
1.28602e-05
-2.09063e-07
1.28748e-05
-2.02126e-07
-1.79026e-07
1.28854e-05
1.2523e-05
-2.06448e-07
1.25449e-05
-2.55926e-07
1.2566e-05
-2.66595e-07
1.25879e-05
-2.81496e-07
1.26102e-05
-2.90072e-07
1.26323e-05
-2.92144e-07
1.26541e-05
-2.90824e-07
1.26753e-05
-2.87481e-07
1.2696e-05
-2.82728e-07
1.27161e-05
-2.77042e-07
1.27354e-05
-2.70763e-07
1.27541e-05
-2.64183e-07
1.27721e-05
-2.57392e-07
1.27893e-05
-2.50638e-07
1.28059e-05
-2.43919e-07
1.28218e-05
-2.37312e-07
1.2837e-05
-2.30759e-07
1.28515e-05
-2.23532e-07
1.28647e-05
-2.15412e-07
-1.87982e-07
1.28737e-05
1.25253e-05
-2.31724e-07
1.25474e-05
-2.78056e-07
1.25683e-05
-2.87529e-07
1.259e-05
-3.03159e-07
1.26117e-05
-3.11796e-07
1.26332e-05
-3.13563e-07
1.26541e-05
-3.11745e-07
1.26744e-05
-3.07779e-07
1.2694e-05
-3.02311e-07
1.27128e-05
-2.95859e-07
1.27308e-05
-2.88778e-07
1.2748e-05
-2.81374e-07
1.27644e-05
-2.73766e-07
1.27799e-05
-2.66184e-07
1.27947e-05
-2.58649e-07
1.28086e-05
-2.51247e-07
1.28217e-05
-2.43889e-07
1.28341e-05
-2.35865e-07
1.28452e-05
-2.2648e-07
-1.94523e-07
1.28517e-05
1.25277e-05
-2.5947e-07
1.25498e-05
-3.0013e-07
1.25702e-05
-3.07881e-07
1.2591e-05
-3.23974e-07
1.26116e-05
-3.32386e-07
1.26316e-05
-3.3359e-07
1.26509e-05
-3.31051e-07
1.26694e-05
-3.2624e-07
1.26869e-05
-3.19856e-07
1.27035e-05
-3.12428e-07
1.27191e-05
-3.0434e-07
1.27336e-05
-2.95918e-07
1.27471e-05
-2.87254e-07
1.27596e-05
-2.78642e-07
1.2771e-05
-2.70072e-07
1.27814e-05
-2.61633e-07
1.27908e-05
-2.53268e-07
1.27992e-05
-2.44226e-07
1.28061e-05
-2.33466e-07
-1.97058e-07
1.28087e-05
1.253e-05
-2.8948e-07
1.25513e-05
-3.21387e-07
1.25701e-05
-3.26691e-07
1.25889e-05
-3.4283e-07
1.2607e-05
-3.50495e-07
1.26242e-05
-3.50709e-07
1.26402e-05
-3.47032e-07
1.26549e-05
-3.40973e-07
1.26683e-05
-3.33254e-07
1.26803e-05
-3.24444e-07
1.26909e-05
-3.14935e-07
1.27e-05
-3.05059e-07
1.27077e-05
-2.94937e-07
1.27139e-05
-2.84825e-07
1.27186e-05
-2.74735e-07
1.27217e-05
-2.64758e-07
1.27233e-05
-2.54812e-07
1.27233e-05
-2.44248e-07
1.27216e-05
-2.31782e-07
-1.91908e-07
1.27165e-05
1.25308e-05
-3.2031e-07
1.25492e-05
-3.39741e-07
1.25641e-05
-3.41551e-07
1.2578e-05
-3.56783e-07
1.25901e-05
-3.62591e-07
1.26002e-05
-3.60788e-07
1.26082e-05
-3.55004e-07
1.26139e-05
-3.46721e-07
1.26174e-05
-3.36723e-07
1.26185e-05
-3.25565e-07
1.26172e-05
-3.13668e-07
1.26135e-05
-3.01357e-07
1.26073e-05
-2.88712e-07
1.25985e-05
-2.76037e-07
1.25871e-05
-2.63307e-07
1.2573e-05
-2.50608e-07
1.25561e-05
-2.37933e-07
1.25366e-05
-2.24704e-07
1.25147e-05
-2.09941e-07
-1.70327e-07
1.24932e-05
1.25262e-05
-3.46539e-07
1.25337e-05
-3.47219e-07
1.25359e-05
-3.4378e-07
1.25342e-05
-3.55031e-07
1.25274e-05
-3.55757e-07
1.25156e-05
-3.49046e-07
1.24991e-05
-3.38478e-07
1.24779e-05
-3.2551e-07
1.24521e-05
-3.10977e-07
1.2422e-05
-2.95427e-07
1.23876e-05
-2.79283e-07
1.23491e-05
-2.62861e-07
1.23066e-05
-2.46245e-07
1.22604e-05
-2.29788e-07
1.22106e-05
-2.13512e-07
1.21576e-05
-1.97577e-07
1.21018e-05
-1.82123e-07
1.20439e-05
-1.66808e-07
1.19852e-05
-1.51255e-07
-1.2107e-07
1.1936e-05
1.24955e-05
-3.42008e-07
1.24494e-05
-3.01192e-07
1.23924e-05
-2.86778e-07
1.23213e-05
-2.83823e-07
1.22379e-05
-2.72454e-07
1.21454e-05
-2.56543e-07
1.20461e-05
-2.39102e-07
1.19419e-05
-2.21307e-07
1.18347e-05
-2.03785e-07
1.1726e-05
-1.86806e-07
1.16173e-05
-1.70564e-07
1.15096e-05
-1.55169e-07
1.14039e-05
-1.40515e-07
1.1301e-05
-1.26844e-07
1.12015e-05
-1.14038e-07
1.11061e-05
-1.02137e-07
1.10152e-05
-9.12276e-08
1.09294e-05
-8.10052e-08
1.08494e-05
-7.1299e-08
-5.76902e-08
1.07861e-05
1.2158e-05
1.18568e-05
1.157e-05
1.12862e-05
1.10137e-05
1.07572e-05
1.05181e-05
1.02968e-05
1.0093e-05
9.9062e-06
9.73564e-06
9.58047e-06
9.43996e-06
9.31311e-06
9.19908e-06
9.09694e-06
9.00571e-06
8.92471e-06
8.85341e-06
8.79572e-06
8.42794e-06
1.3255e-09
2.21719e-07
8.19692e-06
-3.10551e-08
2.62075e-07
7.97072e-06
-7.95172e-08
3.05719e-07
7.79566e-06
-1.21464e-07
2.96524e-07
7.67225e-06
-1.54088e-07
2.77509e-07
7.59271e-06
-1.8076e-07
2.60303e-07
7.54683e-06
-2.0156e-07
2.47442e-07
7.52464e-06
-2.17181e-07
2.39385e-07
7.51819e-06
-2.28844e-07
2.35291e-07
7.52187e-06
-2.37986e-07
2.34318e-07
7.53193e-06
-2.45907e-07
2.35851e-07
7.54604e-06
-2.53668e-07
2.3956e-07
7.56275e-06
-2.62047e-07
2.45342e-07
7.58112e-06
-2.71498e-07
2.5313e-07
7.60048e-06
-2.82311e-07
2.62953e-07
7.62031e-06
-2.94715e-07
2.74888e-07
7.64021e-06
-3.08792e-07
2.88888e-07
7.65987e-06
-3.24567e-07
3.04907e-07
7.67901e-06
-3.42026e-07
3.22891e-07
7.69735e-06
-3.61182e-07
3.4284e-07
7.71465e-06
-3.82008e-07
3.64713e-07
7.73068e-06
-4.04399e-07
3.88364e-07
7.74524e-06
-4.28234e-07
4.13671e-07
7.75813e-06
-4.53345e-07
4.40457e-07
7.76915e-06
-4.79504e-07
4.68482e-07
7.77812e-06
-5.06457e-07
4.97483e-07
7.78487e-06
-5.33894e-07
5.27134e-07
7.78927e-06
-5.61481e-07
5.57082e-07
7.79118e-06
-5.88856e-07
5.86941e-07
7.79052e-06
-6.15639e-07
6.163e-07
7.78722e-06
-6.41443e-07
6.44745e-07
7.78125e-06
-6.65883e-07
6.71852e-07
7.77262e-06
-6.88578e-07
6.97205e-07
7.76139e-06
-7.0916e-07
7.2039e-07
7.74765e-06
-7.27284e-07
7.41019e-07
7.73155e-06
-7.42631e-07
7.58723e-07
7.71329e-06
-7.54911e-07
7.73168e-07
7.69311e-06
-7.63872e-07
7.8405e-07
7.67129e-06
-7.69299e-07
7.91112e-07
7.64816e-06
-7.71017e-07
7.94138e-07
7.62408e-06
-7.68893e-07
7.92963e-07
7.59944e-06
-7.62836e-07
7.87467e-07
7.57464e-06
-7.52799e-07
7.77591e-07
7.55009e-06
-7.38777e-07
7.63326e-07
7.52617e-06
-7.20815e-07
7.44723e-07
7.50328e-06
-6.99003e-07
7.21892e-07
7.48175e-06
-6.7348e-07
6.95005e-07
7.46189e-06
-6.4444e-07
6.64297e-07
7.44395e-06
-6.12137e-07
6.30069e-07
7.42815e-06
-5.7689e-07
5.9269e-07
7.41464e-06
-5.39078e-07
5.5259e-07
7.40352e-06
-4.9914e-07
5.10252e-07
7.39488e-06
-4.57551e-07
4.66197e-07
7.38873e-06
-4.14811e-07
4.20961e-07
7.38506e-06
-3.71423e-07
3.75088e-07
7.38384e-06
-3.27891e-07
3.29112e-07
7.38499e-06
-2.84708e-07
2.83556e-07
7.38841e-06
-2.42352e-07
2.38924e-07
7.394e-06
-2.01282e-07
1.95694e-07
7.40161e-06
-1.61932e-07
1.54319e-07
7.41109e-06
-1.24718e-07
1.15232e-07
7.42229e-06
-9.00493e-08
7.88513e-08
7.43503e-06
-5.83198e-08
4.55785e-08
7.44914e-06
-2.99079e-08
1.57953e-08
7.46456e-06
-5.15244e-09
-1.02732e-08
7.48122e-06
1.5751e-08
-3.24158e-08
7.49893e-06
3.25654e-08
-5.02745e-08
7.5175e-06
4.49173e-08
-6.34939e-08
7.53679e-06
5.24449e-08
-7.17327e-08
7.55665e-06
5.47928e-08
-7.46605e-08
7.57698e-06
5.16336e-08
-7.19704e-08
7.59769e-06
4.26748e-08
-6.33845e-08
7.61869e-06
2.76264e-08
-4.86316e-08
7.63991e-06
6.24514e-09
-2.74638e-08
7.66112e-06
-2.14222e-08
2.0985e-10
7.68212e-06
-5.51951e-08
3.41857e-08
7.70289e-06
-9.49909e-08
7.42227e-08
7.7234e-06
-1.40729e-07
1.20212e-07
7.74367e-06
-1.92329e-07
1.72056e-07
7.76371e-06
-2.49707e-07
2.29664e-07
7.78354e-06
-3.1277e-07
2.92939e-07
7.80318e-06
-3.81412e-07
3.61773e-07
7.82264e-06
-4.55506e-07
4.36041e-07
7.84195e-06
-5.34903e-07
5.15594e-07
7.86112e-06
-6.19428e-07
6.00258e-07
7.88016e-06
-7.08881e-07
6.89833e-07
7.89911e-06
-8.03034e-07
7.8409e-07
7.91796e-06
-9.01636e-07
8.82778e-07
7.93675e-06
-1.00441e-06
9.85615e-07
7.9555e-06
-1.11105e-06
1.0923e-06
7.97422e-06
-1.22124e-06
1.20251e-06
7.99294e-06
-1.33463e-06
1.3159e-06
8.01169e-06
-1.45086e-06
1.43212e-06
8.03047e-06
-1.56956e-06
1.55077e-06
8.04932e-06
-1.69033e-06
1.67148e-06
8.06825e-06
-1.81277e-06
1.79383e-06
8.08729e-06
-1.93646e-06
1.91742e-06
8.10645e-06
-2.06097e-06
2.04181e-06
8.12575e-06
-2.18587e-06
2.16658e-06
8.14519e-06
-2.31072e-06
2.29128e-06
8.16479e-06
-2.43507e-06
2.41547e-06
8.18455e-06
-2.55846e-06
2.5387e-06
8.20447e-06
-2.68044e-06
2.66052e-06
8.22455e-06
-2.80054e-06
2.78047e-06
8.24477e-06
-2.91832e-06
2.8981e-06
8.26513e-06
-3.03332e-06
3.01297e-06
8.2856e-06
-3.14508e-06
3.12462e-06
8.30615e-06
-3.25315e-06
3.2326e-06
8.32676e-06
-3.3571e-06
3.3365e-06
8.34738e-06
-3.45648e-06
3.43587e-06
8.36797e-06
-3.55088e-06
3.5303e-06
8.38848e-06
-3.63989e-06
3.61939e-06
8.40884e-06
-3.72312e-06
3.70276e-06
8.42901e-06
-3.80019e-06
3.78003e-06
8.44891e-06
-3.87074e-06
3.85085e-06
8.46847e-06
-3.93446e-06
3.91491e-06
8.48762e-06
-3.99104e-06
3.9719e-06
8.50627e-06
-4.04021e-06
4.02156e-06
8.52436e-06
-4.08173e-06
4.06365e-06
8.5418e-06
-4.11542e-06
4.09798e-06
8.55852e-06
-4.1411e-06
4.12439e-06
8.57445e-06
-4.15867e-06
4.14275e-06
8.58951e-06
-4.16804e-06
4.15299e-06
8.60365e-06
-4.1692e-06
4.15506e-06
8.61681e-06
-4.16215e-06
4.149e-06
8.62896e-06
-4.14697e-06
4.13483e-06
8.64005e-06
-4.12375e-06
4.11267e-06
8.65007e-06
-4.09265e-06
4.08264e-06
8.659e-06
-4.05386e-06
4.04493e-06
8.66686e-06
-4.0076e-06
3.99976e-06
8.67365e-06
-3.95414e-06
3.94735e-06
8.6794e-06
-3.89375e-06
3.888e-06
8.68416e-06
-3.82674e-06
3.82199e-06
8.68796e-06
-3.75344e-06
3.74964e-06
8.69088e-06
-3.67419e-06
3.67128e-06
8.69295e-06
-3.58931e-06
3.58724e-06
8.69426e-06
-3.49916e-06
3.49786e-06
8.69487e-06
-3.40406e-06
3.40346e-06
8.69484e-06
-3.30434e-06
3.30437e-06
8.69425e-06
-3.20031e-06
3.20091e-06
8.69314e-06
-3.09227e-06
3.09337e-06
8.69159e-06
-2.98048e-06
2.98204e-06
8.68962e-06
-2.86521e-06
2.86717e-06
8.6873e-06
-2.74668e-06
2.74901e-06
8.68465e-06
-2.62511e-06
2.62777e-06
8.68169e-06
-2.50068e-06
2.50364e-06
8.67845e-06
-2.37356e-06
2.37681e-06
8.67493e-06
-2.24389e-06
2.24741e-06
8.67114e-06
-2.11178e-06
2.11557e-06
8.66707e-06
-1.97734e-06
1.98141e-06
8.66272e-06
-1.84064e-06
1.845e-06
8.65806e-06
-1.70174e-06
1.7064e-06
8.65307e-06
-1.56067e-06
1.56566e-06
8.64774e-06
-1.41745e-06
1.42279e-06
8.64202e-06
-1.27209e-06
1.2778e-06
8.6359e-06
-1.12455e-06
1.13068e-06
8.62931e-06
-9.74802e-07
9.81385e-07
8.62224e-06
-8.22795e-07
8.29869e-07
8.61464e-06
-6.68455e-07
6.76066e-07
8.60645e-06
-5.11699e-07
5.1989e-07
8.59763e-06
-3.52423e-07
3.61243e-07
8.58814e-06
-1.90507e-07
2.00005e-07
8.57787e-06
-2.56807e-08
3.59544e-08
8.56673e-06
1.42817e-07
-1.31676e-07
8.55466e-06
3.15356e-07
-3.03275e-07
8.54156e-06
4.9226e-07
-4.79159e-07
8.52737e-06
6.73852e-07
-6.59648e-07
8.51198e-06
8.60474e-07
-8.45081e-07
8.49532e-06
1.05248e-06
-1.03581e-06
8.4773e-06
1.25026e-06
-1.23223e-06
8.45781e-06
1.45422e-06
-1.43473e-06
8.43675e-06
1.66482e-06
-1.64376e-06
8.41402e-06
1.88255e-06
-1.85981e-06
8.38949e-06
2.10795e-06
-2.08342e-06
8.36304e-06
2.34165e-06
-2.3152e-06
8.3345e-06
2.58435e-06
-2.55581e-06
8.30372e-06
2.83683e-06
-2.80604e-06
8.2705e-06
3.1e-06
-3.06677e-06
8.2346e-06
3.37492e-06
-3.33902e-06
8.19578e-06
3.66282e-06
-3.624e-06
8.15373e-06
3.96515e-06
-3.9231e-06
8.10811e-06
4.28364e-06
-4.23802e-06
8.05854e-06
4.62038e-06
-4.57081e-06
8.00459e-06
4.97794e-06
-4.92398e-06
7.94576e-06
5.35948e-06
-5.30066e-06
7.88154e-06
5.769e-06
-5.70479e-06
7.81133e-06
6.21162e-06
-6.14141e-06
7.73446e-06
6.69396e-06
-6.61709e-06
7.65014e-06
7.22475e-06
-7.14043e-06
7.5574e-06
7.81568e-06
-7.72294e-06
7.45497e-06
8.48272e-06
-8.38029e-06
7.34105e-06
9.24815e-06
-9.13423e-06
7.21289e-06
1.01437e-05
-1.00155e-05
7.06607e-06
1.12147e-05
-1.10679e-05
6.89285e-06
1.25245e-05
-1.23513e-05
6.68149e-06
1.41573e-05
-1.3946e-05
6.40751e-06
1.6208e-05
-1.5934e-05
6.06321e-06
1.88061e-05
-1.84618e-05
5.61038e-06
2.20642e-05
-2.16114e-05
2.7679e-05
-2.93405e-05
7.27193e-06
1.07459e-05
4.60387e-08
1.06806e-05
3.4327e-08
1.05824e-05
1.86041e-08
1.04616e-05
-6.08668e-10
1.0326e-05
-1.84544e-08
1.01821e-05
-3.68534e-08
1.0037e-05
-5.65275e-08
9.89709e-06
-7.72424e-08
9.76691e-06
-9.86637e-08
9.64936e-06
-1.20433e-07
9.54557e-06
-1.42117e-07
9.45531e-06
-1.63399e-07
9.37742e-06
-1.84156e-07
9.31033e-06
-2.0441e-07
9.25237e-06
-2.24355e-07
9.20197e-06
-2.44312e-07
9.15777e-06
-2.64593e-07
9.11866e-06
-2.85453e-07
9.08371e-06
-3.07078e-07
9.05214e-06
-3.29606e-07
9.02323e-06
-3.53099e-07
8.99636e-06
-3.77532e-07
8.97096e-06
-4.02834e-07
8.94649e-06
-4.28882e-07
8.92249e-06
-4.55501e-07
8.89851e-06
-4.82479e-07
8.87417e-06
-5.09555e-07
8.84912e-06
-5.36439e-07
8.82308e-06
-5.62813e-07
8.79578e-06
-5.88341e-07
8.76701e-06
-6.12681e-07
8.73662e-06
-6.35492e-07
8.70448e-06
-6.56441e-07
8.67053e-06
-6.75212e-07
8.63476e-06
-6.91513e-07
8.59721e-06
-7.05081e-07
8.55797e-06
-7.15683e-07
8.51722e-06
-7.23126e-07
8.47517e-06
-7.27251e-07
8.43208e-06
-7.27935e-07
8.38828e-06
-7.25095e-07
8.34412e-06
-7.1868e-07
8.29999e-06
-7.08676e-07
8.25631e-06
-6.95101e-07
8.21349e-06
-6.78007e-07
8.17196e-06
-6.57479e-07
8.13212e-06
-6.33637e-07
8.09432e-06
-6.06642e-07
8.05889e-06
-5.76706e-07
8.02609e-06
-5.44097e-07
7.99616e-06
-5.09144e-07
7.96925e-06
-4.72231e-07
7.94548e-06
-4.33785e-07
7.92493e-06
-3.94254e-07
7.9076e-06
-3.54097e-07
7.89348e-06
-3.1377e-07
7.8825e-06
-2.73727e-07
7.87456e-06
-2.34413e-07
7.86954e-06
-1.96259e-07
7.86728e-06
-1.59672e-07
7.86761e-06
-1.25048e-07
7.87034e-06
-9.2782e-08
7.87528e-06
-6.32584e-08
7.88222e-06
-3.68467e-08
7.89098e-06
-1.39118e-08
7.90144e-06
5.29106e-09
7.91344e-06
2.0562e-08
7.92677e-06
3.15797e-08
7.94126e-06
3.79554e-08
7.95674e-06
3.93106e-08
7.97308e-06
3.52944e-08
7.99015e-06
2.55984e-08
8.00786e-06
9.91713e-09
8.02597e-06
-1.18695e-08
8.04424e-06
-3.96919e-08
8.06255e-06
-7.35063e-08
8.08083e-06
-1.13271e-07
8.09903e-06
-1.58934e-07
8.11714e-06
-2.10433e-07
8.13512e-06
-2.67694e-07
8.15298e-06
-3.30632e-07
8.17071e-06
-3.99142e-07
8.1883e-06
-4.731e-07
8.20576e-06
-5.52358e-07
8.22307e-06
-6.36744e-07
8.24025e-06
-7.26057e-07
8.25729e-06
-8.20073e-07
8.27419e-06
-9.18542e-07
8.29097e-06
-1.02119e-06
8.30763e-06
-1.12771e-06
8.32418e-06
-1.23779e-06
8.34064e-06
-1.35108e-06
8.35701e-06
-1.46723e-06
8.37331e-06
-1.58586e-06
8.38956e-06
-1.70657e-06
8.40577e-06
-1.82897e-06
8.42194e-06
-1.95263e-06
8.43811e-06
-2.07713e-06
8.45426e-06
-2.20203e-06
8.47042e-06
-2.32688e-06
8.48659e-06
-2.45123e-06
8.50277e-06
-2.57463e-06
8.51895e-06
-2.69662e-06
8.53514e-06
-2.81673e-06
8.55132e-06
-2.9345e-06
8.56747e-06
-3.04947e-06
8.58358e-06
-3.16119e-06
8.59962e-06