/*--------------------------------*- C++ -*----------------------------------*\
| =========                 |                                                 |
| \\      /  F ield         | OpenFOAM: The Open Source CFD Toolbox           |
|  \\    /   O peration     | Version:  2.4.0                                 |
|   \\  /    A nd           | Web:      www.OpenFOAM.org                      |
|    \\/     M anipulation  |                                                 |
\*---------------------------------------------------------------------------*/
FoamFile
{
    version     2.0;
    format      ascii;
    class       volScalarField;
    location    "0.0638491";
    object      epsilon;
}
// * * * * * * * * * * * * * * * * * * * * * * * * * * * * * * * * * * * * * //

dimensions      [0 2 -3 0 0 0 0];

internalField   nonuniform List<scalar> 
17600
(
265.083
385.349
484.513
552.119
589.321
603.056
601.294
590.738
576.171
560.627
545.809
532.518
520.973
511.036
502.332
494.29
486.121
476.425
463.213
441.112
36.7913
56.617
73.1705
86.8223
97.806
106.586
113.916
120.477
126.731
132.914
139.09
145.204
151.148
156.817
162.162
167.258
172.398
178.403
187.114
205.57
17.541
21.143
24.3367
26.9185
28.8554
30.2234
31.2058
32.0161
32.8435
33.8317
35.0783
36.64
38.5426
40.7917
43.3878
46.3485
49.7523
53.8575
59.3696
69.3731
14.6098
14.931
15.3998
15.8263
16.1237
16.2623
16.2586
16.1548
16.0018
15.8486
15.7389
15.7088
15.7885
16.0043
16.3834
16.9626
17.8078
19.0701
21.1108
25.4168
14.0149
13.4583
13.0864
12.8092
12.5641
12.3131
12.0399
11.7435
11.4316
11.1161
10.81
10.5258
10.2754
10.07
9.92207
9.84764
9.87495
10.0663
10.5743
12.0118
13.8829
13.0682
12.3955
11.8313
11.3431
10.9039
10.4952
10.1063
9.73211
9.37165
9.02607
8.69786
8.39017
8.1066
7.85152
7.63108
7.45621
7.35115
7.37696
7.77193
13.8529
12.9632
12.1837
11.5005
10.8975
10.3588
9.8704
9.42166
9.00493
8.6151
8.24897
7.90471
7.58153
7.27935
6.99887
6.74184
6.51234
6.32034
6.19215
6.22694
13.8461
12.9351
12.1197
11.3899
10.7357
10.1468
9.61352
9.1272
8.68076
8.26846
7.88585
7.52954
7.19704
6.88655
6.59695
6.32792
6.08046
5.85861
5.67465
5.57427
13.8445
12.9277
12.1007
11.3539
10.6786
10.0665
9.51011
9.00242
8.53731
8.10948
7.71442
7.3484
7.00833
6.69171
6.39662
6.12169
5.86645
5.63223
5.42508
5.26834
13.8441
12.9257
12.0952
11.3425
10.659
10.0371
9.46985
8.9512
8.47565
8.03834
7.63504
7.26207
6.91626
6.5949
6.29572
6.01692
5.75731
5.5169
5.29879
5.1162
13.844
12.9251
12.0935
11.3388
10.6524
10.0265
9.45464
8.93087
8.45002
8.00755
7.59942
7.22209
6.87244
6.54775
6.24566
5.96417
5.70178
5.45786
5.23405
5.03867
13.844
12.9249
12.0929
11.3376
10.6501
10.0227
9.44896
8.92296
8.43966
7.99463
7.58395
7.20417
6.85224
6.52547
6.22149
5.93825
5.67411
5.42813
5.20122
4.99919
13.844
12.9248
12.0927
11.3371
10.6492
10.0213
9.44677
8.91986
8.43549
7.98929
7.57737
7.19634
6.84319
6.51525
6.21018
5.92591
5.66075
5.41362
5.18505
4.97949
13.8439
12.9247
12.0925
11.3368
10.6487
10.0206
9.44584
8.91855
8.43375
7.98704
7.57456
7.19295
6.8392
6.51068
6.20504
5.92023
5.65454
5.40684
5.17745
4.97003
13.8439
12.9247
12.0924
11.3366
10.6485
10.0203
9.44536
8.91793
8.43294
7.98602
7.57331
7.19144
6.83743
6.50864
6.20274
5.91769
5.65178
5.40385
5.17413
4.96576
13.8439
12.9246
12.0923
11.3365
10.6483
10.02
9.44506
8.91756
8.4325
7.98549
7.57269
7.19071
6.83659
6.5077
6.2017
5.91658
5.65062
5.40266
5.17287
4.96404
13.8439
12.9246
12.0922
11.3364
10.6481
10.0199
9.44485
8.91732
8.43223
7.98518
7.57234
7.19033
6.83617
6.50724
6.20123
5.9161
5.65018
5.4023
5.17257
4.96352
13.8439
12.9246
12.0922
11.3363
10.648
10.0197
9.44471
8.91716
8.43205
7.98498
7.57213
7.1901
6.83594
6.50701
6.20102
5.91593
5.65008
5.40231
5.1727
4.96356
13.8439
12.9246
12.0921
11.3362
10.648
10.0197
9.44462
8.91705
8.43193
7.98486
7.572
7.18998
6.83582
6.50691
6.20094
5.9159
5.65014
5.4025
5.17303
4.96386
13.8439
12.9246
12.0921
11.3362
10.6479
10.0196
9.44457
8.917
8.43188
7.98481
7.57195
7.18993
6.83578
6.50688
6.20095
5.91597
5.6503
5.40279
5.17346
4.96429
13.8439
12.9246
12.0921
11.3362
10.6479
10.0196
9.44457
8.91701
8.43188
7.98482
7.57196
7.18995
6.83581
6.50694
6.20104
5.91612
5.65054
5.40315
5.17396
4.96479
13.8439
12.9246
12.0921
11.3362
10.648
10.0197
9.44462
8.91706
8.43195
7.98488
7.57204
7.19003
6.83591
6.50706
6.2012
5.91634
5.65084
5.40358
5.17452
4.96536
13.8439
12.9246
12.0922
11.3363
10.648
10.0197
9.44472
8.91717
8.43207
7.98502
7.57218
7.1902
6.8361
6.50728
6.20145
5.91665
5.65124
5.4041
5.17516
4.966
13.8439
12.9246
12.0922
11.3364
10.6481
10.0199
9.44486
8.91734
8.43226
7.98523
7.57242
7.19046
6.83639
6.50761
6.20183
5.9171
5.65178
5.40476
5.17594
4.96678
13.8439
12.9246
12.0923
11.3365
10.6483
10.02
9.44507
8.91758
8.43254
7.98555
7.57279
7.19088
6.83687
6.50816
6.20246
5.91782
5.65262
5.40573
5.17702
4.96787
13.8439
12.9247
12.0924
11.3366
10.6485
10.0203
9.44537
8.91795
8.43298
7.98609
7.57343
7.19164
6.83775
6.50917
6.20362
5.91913
5.65409
5.40737
5.1788
4.96965
13.8439
12.9247
12.0925
11.3368
10.6487
10.0206
9.44585
8.91858
8.4338
7.98712
7.5747
7.19317
6.83956
6.51127
6.206
5.92178
5.657
5.41051
5.18211
4.97295
13.844
12.9248
12.0927
11.3371
10.6492
10.0213
9.44679
8.91989
8.43555
7.98937
7.57751
7.19657
6.84356
6.51585
6.21112
5.92738
5.66303
5.41688
5.18868
4.97947
13.844
12.9249
12.0929
11.3376
10.6501
10.0227
9.44898
8.92299
8.43971
7.99471
7.58408
7.20438
6.85256
6.52596
6.22223
5.93933
5.67563
5.42995
5.20197
4.9926
13.844
12.9251
12.0935
11.3388
10.6524
10.0265
9.45466
8.9309
8.45007
8.00762
7.59952
7.22223
6.87263
6.54798
6.24589
5.96431
5.70152
5.4564
5.22855
5.01874
13.8441
12.9257
12.0952
11.3425
10.659
10.0371
9.46986
8.95122
8.47567
8.03836
7.63505
7.26205
6.91613
6.59455
6.29491
6.01513
5.75343
5.50882
5.28085
5.07009
13.8445
12.9277
12.1007
11.3539
10.6786
10.0665
9.51011
9.00242
8.53729
8.10941
7.71425
7.34804
7.00759
6.69026
6.39378
6.1162
5.85569
5.61129
5.38273
5.17032
13.8461
12.9351
12.1197
11.3899
10.7357
10.1468
9.61349
9.12714
8.68062
8.26819
7.88532
7.52854
7.19514
6.88297
6.59025
6.31529
6.05642
5.81209
5.58285
5.36864
13.8529
12.9632
12.1837
11.5004
10.8975
10.3588
9.87032
9.42148
9.0046
8.61446
8.24775
7.90245
7.57734
7.27156
6.98431
6.71448
6.46034
6.21883
5.99233
5.78006
13.8829
13.0682
12.3955
11.8313
11.3431
10.9038
10.495
10.1059
9.73134
9.37021
9.0234
8.69292
8.38097
8.0894
7.81913
7.56961
7.33827
7.11841
6.91379
6.72471
14.0149
13.4583
13.0864
12.8091
12.564
12.3129
12.0394
11.7425
11.4298
11.1128
10.8037
10.5141
10.2533
10.0281
9.84186
9.69345
9.57621
9.47477
9.38511
9.31944
14.6098
14.931
15.3998
15.8261
16.1233
16.2617
16.2573
16.1523
15.997
15.8396
15.7217
15.676
15.7257
15.8841
16.1532
16.5221
16.9651
17.4326
17.8895
18.3639
17.541
21.143
24.3365
26.918
28.8544
30.2213
31.2016
32.0079
32.8277
33.8016
35.0211
36.5325
38.342
40.4209
42.709
45.1157
47.5291
49.7942
51.8352
53.4803
36.7912
56.6167
73.1698
86.8206
97.8023
106.579
113.901
120.447
126.673
132.806
138.889
144.837
150.488
155.642
160.091
163.631
166.094
167.57
168.167
167.632
265.083
385.349
484.514
552.122
589.331
603.076
601.333
590.81
576.302
560.86
546.218
533.228
522.202
513.159
505.997
500.633
497.083
495.281
495.044
497.147
674.207
903.819
1113.44
1248.23
1258.03
1152.42
992.511
833.706
700.672
596.745
517.412
457.09
411.188
376.321
350.026
330.474
316.26
306.269
299.592
295.482
293.312
292.553
292.759
293.551
294.609
295.694
296.63
297.18
297.144
296.343
294.604
291.748
287.569
281.816
274.168
264.216
251.457
235.321
215.298
191.248
163.878
135.077
107.501
83.4396
63.9257
48.8125
37.4016
28.9337
22.7573
18.3348
15.2225
13.0611
11.5713
10.546
9.8379
9.34569
9.00146
8.75999
8.59094
8.47336
8.39206
8.33539
8.29391
8.25968
8.22596
8.18711
8.13856
8.0769
7.99983
7.90617
7.79576
7.66935
7.5284
7.37488
7.21108
7.03935
6.86153
6.68044
6.49839
6.3171
6.13797
5.96216
5.79052
5.62368
5.46207
5.30591
5.15531
5.01023
4.87057
4.73613
4.60669
4.48197
4.36169
4.24554
4.13323
4.02446
3.91895
3.81644
3.71668
3.61945
3.52458
3.43188
3.34122
3.2525
3.16563
3.08054
2.99719
2.91557
2.83567
2.75747
2.68097
2.60623
2.53326
2.4621
2.39281
2.32541
2.25997
2.19654
2.13516
2.07589
2.01877
1.96385
1.91117
1.86078
1.81269
1.76695
1.72357
1.68254
1.64388
1.60757
1.57357
1.54185
1.51236
1.48505
1.45984
1.43665
1.4154
1.39599
1.37834
1.36234
1.34788
1.33487
1.32321
1.31279
1.30352
1.2953
1.28804
1.28166
1.27607
1.27121
1.26701
1.2634
1.26032
1.25774
1.2556
1.25388
1.25254
1.25156
1.25092
1.25063
1.25068
1.25108
1.25184
1.253
1.2546
1.2567
1.25934
1.26263
1.26667
1.27159
1.27753
1.2847
1.29331
1.30366
1.31607
1.33097
1.34885
1.37036
1.39627
1.42758
1.46553
1.51176
1.56841
1.63835
1.72552
1.83544
1.97609
2.15934
2.40355
2.73826
3.21345
3.91784
5.0207
6.857
10.1794
16.5841
31.0524
61.9559
175.099
217.883
235.864
291.926
386.248
530.948
711.518
872.228
948.175
923.643
835.646
729.526
631.567
550.463
486.355
436.673
398.548
369.524
347.646
331.38
319.512
311.074
305.279
301.481
299.144
297.821
297.133
296.805
296.549
296.075
295.12
293.436
290.773
286.867
281.413
274.059
264.382
251.89
236.055
216.423
192.873
166.031
137.584
110.008
85.5996
65.5643
49.9317
38.0897
29.292
22.8734
18.2789
15.0496
12.8126
11.2767
10.2246
9.5013
9.00057
8.65146
8.40747
8.23808
8.12285
8.04732
8.00054
7.97358
7.95868
7.94893
7.93818
7.92106
7.8931
7.85085
7.79193
7.71505
7.61997
7.50737
7.3787
7.23596
7.08152
6.91774
6.74655
6.57142
6.39445
6.21751
6.04212
5.86956
5.70077
5.53649
5.37718
5.22317
5.07458
4.93143
4.79365
4.66107
4.53348
4.41062
4.29223
4.178
4.06765
3.96087
3.8574
3.75695
3.65929
3.5642
3.47147
3.38093
3.29244
3.20587
3.12114
3.03817
2.95692
2.87736
2.79947
2.72325
2.6487
2.57583
2.50469
2.4353
2.36772
2.30198
2.23813
2.17623
2.11633
2.05847
2.00271
1.94908
1.89763
1.8484
1.80142
1.75672
1.71431
1.6742
1.63639
1.60087
1.56759
1.53655
1.50767
1.48091
1.4562
1.43347
1.41263
1.39359
1.37626
1.36054
1.34634
1.33355
1.32208
1.31183
1.3027
1.2946
1.28745
1.28116
1.27566
1.27086
1.26671
1.26314
1.26011
1.25756
1.25545
1.25374
1.25242
1.25145
1.25083
1.25054
1.25059
1.25099
1.25176
1.25292
1.25451
1.2566
1.25923
1.26251
1.26652
1.27141
1.27732
1.28445
1.29302
1.3033
1.31565
1.33046
1.34825
1.36965
1.39543
1.42659
1.4644
1.51047
1.56698
1.63683
1.72399
1.83408
1.97523
2.15958
2.40603
2.74513
3.22895
3.95081
5.09059
7.01009
10.5332
17.4684
33.4109
69.0002
192.247
221.684
76.4898
89.1009
112.853
158.443
239.502
362.445
510.805
642.602
716.247
722.053
680.775
619.556
556.725
500.748
454.107
416.579
387.001
364.026
346.408
333.07
323.111
315.78
310.451
306.597
303.761
301.584
299.65
297.607
295.12
291.86
287.491
281.652
273.946
263.93
251.121
235.036
215.295
191.85
165.332
137.311
110.073
85.7987
65.7214
49.9686
38.0034
29.1082
22.6203
17.9801
14.7234
12.4728
10.9324
9.88114
9.16067
8.66251
8.31466
8.07052
7.90026
7.7845
7.7101
7.66734
7.64828
7.64586
7.65348
7.66489
7.6743
7.67648
7.66697
7.64222
7.59975
7.53813
7.45702
7.35701
7.23953
7.1066
6.96059
6.80349
6.63867
6.46891
6.29649
6.1234
5.9513
5.78157
5.61527
5.45319
5.29591
5.14376
4.99694
4.85551
4.71942
4.58852
4.46262
4.34149
4.22484
4.11241
4.0039
3.89901
3.79746
3.69899
3.60334
3.51028
3.41961
3.33115
3.24474
3.16026
3.0776
2.99669
2.91746
2.83989
2.76396
2.68966
2.61698
2.54594
2.47657
2.40891
2.34298
2.27885
2.21655
2.15615
2.09769
2.04121
1.98677
1.9344
1.88415
1.83607
1.79017
1.74649
1.70504
1.66583
1.62886
1.59411
1.56156
1.53118
1.50291
1.47671
1.4525
1.43022
1.40979
1.39112
1.37412
1.35869
1.34474
1.33218
1.32091
1.31083
1.30185
1.29388
1.28684
1.28064
1.27522
1.27049
1.2664
1.26288
1.25989
1.25737
1.25528
1.2536
1.2523
1.25134
1.25073
1.25045
1.25051
1.25091
1.25168
1.25283
1.25442
1.2565
1.25912
1.26238
1.26638
1.27124
1.27712
1.28421
1.29273
1.30296
1.31524
1.32997
1.34766
1.36895
1.3946
1.42561
1.46325
1.50916
1.56549
1.63518
1.72223
1.83232
1.97367
2.15864
2.40647
2.74846
3.23818
3.97234
5.13864
7.12018
10.7906
18.1453
34.9906
74.3747
195.225
224.14
27.8301
31.5232
37.8778
50.0735
74.2765
119.398
193.048
293.935
405.883
501.887
559.875
575.705
560.317
528.498
491.523
455.804
424.203
397.57
375.778
358.293
344.457
333.612
325.15
318.522
313.204
308.675
304.447
300.112
295.266
289.503
282.403
273.526
262.412
248.593
231.641
211.275
187.565
161.214
133.73
107.205
83.6006
64.0378
48.6485
36.9433
28.2424
21.9026
17.3748
14.2027
12.0154
10.5224
9.50608
8.81073
8.32946
7.99165
7.75209
7.5825
7.46525
7.38895
7.34558
7.32866
7.33225
7.3505
7.37752
7.40745
7.43468
7.45402
7.46097
7.4519
7.42418
7.37626
7.30768
7.21896
7.11149
6.98728
6.84866
6.69773
6.53841
6.3733
6.20477
6.03496
5.86565
5.6983
5.53409
5.37387
5.21828
5.06773
4.92244
4.78251
4.6479
4.5185
4.39413
4.27457
4.15954
4.04878
3.94199
3.83887
3.73915
3.64255
3.54882
3.45771
3.36902
3.28255
3.19815
3.11567
3.03501
2.95608
2.87882
2.80318
2.72914
2.65668
2.58583
2.51656
2.44891
2.38292
2.31861
2.25604
2.19526
2.13631
2.07925
2.02412
1.97096
1.91983
1.87076
1.82379
1.77895
1.73627
1.69577
1.65744
1.6213
1.58732
1.55549
1.52576
1.4981
1.47245
1.44875
1.42693
1.4069
1.3886
1.37193
1.35679
1.34311
1.33077
1.3197
1.30979
1.30097
1.29313
1.2862
1.2801
1.27476
1.2701
1.26607
1.26261
1.25965
1.25717
1.25512
1.25346
1.25217
1.25123
1.25063
1.25036
1.25043
1.25083
1.2516
1.25275
1.25434
1.2564
1.25902
1.26226
1.26624
1.27108
1.27693
1.28398
1.29245
1.30262
1.31483
1.32948
1.34708
1.36825
1.39377
1.42464
1.4621
1.50781
1.56394
1.63341
1.72025
1.83016
1.97143
2.15653
2.40489
2.74823
3.241
3.98199
5.16344
7.18271
10.9376
18.5599
35.7184
77.1943
191.665
224.947
12.8193
14.0286
15.9866
19.5031
26.4165
40.2658
66.2617
109.602
172.259
249.781
330.449
399.128
444.708
464.97
465.002
452.397
433.728
413.402
393.904
376.409
361.303
348.549
337.892
328.966
321.25
314.053
306.978
299.611
291.518
282.251
271.352
258.365
242.862
224.499
203.126
178.97
152.838
126.198
100.91
78.6205
60.2184
45.755
34.7586
26.5936
20.6546
16.4214
13.4614
11.4243
10.0363
9.09293
8.44744
7.9992
7.68183
7.45321
7.28758
7.16962
7.09012
7.04309
7.02387
7.02801
7.05078
7.08701
7.13116
7.17755
7.22062
7.2552
7.27672
7.28146
7.26671
7.2308
7.17317
7.09429
6.99548
6.87875
6.74592
6.60068
6.44609
6.28488
6.11959
5.95244
5.78536
5.61992
5.45736
5.29862
5.1444
4.99514
4.85111
4.71244
4.57911
4.45102
4.32802
4.20987
4.09633
3.9871
3.88191
3.78046
3.68247
3.58764
3.49573
3.40648
3.31968
3.23512
3.15265
3.0721
2.99337
2.91635
2.84098
2.76721
2.695
2.62434
2.55523
2.48768
2.42171
2.35733
2.2946
2.23356
2.17425
2.11672
2.06102
2.0072
1.9553
1.90537
1.85745
1.81158
1.76778
1.72608
1.68651
1.64906
1.61373
1.58051
1.54938
1.52031
1.49325
1.46815
1.44495
1.42358
1.40397
1.38604
1.3697
1.35486
1.34143
1.32933
1.31846
1.30873
1.30006
1.29236
1.28555
1.27955
1.27429
1.26971
1.26574
1.26232
1.25941
1.25697
1.25494
1.25331
1.25204
1.25112
1.25053
1.25027
1.25034
1.25075
1.25152
1.25267
1.25425
1.25631
1.25891
1.26214
1.2661
1.27092
1.27674
1.28375
1.29218
1.3023
1.31444
1.32901
1.34651
1.36756
1.39295
1.42365
1.46093
1.50643
1.56231
1.6315
1.71803
1.82761
1.96852
2.15325
2.40129
2.74447
3.23743
3.97968
5.16455
7.19556
10.9695
18.6845
35.6838
77.239
184.612
224.842
8.0223
8.41505
9.0543
10.1626
12.2532
16.4442
24.7924
40.2438
65.8526
103.457
152.389
208.719
265.575
315.15
351.744
373.659
382.724
382.453
376.392
367.316
357.078
346.767
336.925
327.705
318.679
309.317
299.448
288.789
276.987
263.661
248.433
230.975
211.083
188.784
164.488
139.104
114.013
90.7679
70.6086
54.1117
41.1973
31.3991
24.1379
18.8675
15.1182
12.5005
10.7006
9.47495
8.64148
8.06991
7.67056
7.38423
7.17359
7.01631
6.89984
6.8174
6.76528
6.74087
6.74151
6.76388
6.80381
6.85638
6.91614
6.97742
7.03465
7.08262
7.11677
7.13334
7.12957
7.10375
7.05525
6.98449
6.89279
6.78201
6.65423
6.51342
6.36249
6.20426
6.04138
5.8762
5.71074
5.54665
5.38526
5.22759
5.07436
4.92608
4.78303
4.64536
4.51309
4.38613
4.26431
4.14742
4.0352
3.92739
3.82368
3.72378
3.62739
3.53424
3.44405
3.35657
3.27157
3.18885
3.10822
3.02953
2.95265
2.87748
2.80394
2.73197
2.66154
2.59261
2.5252
2.45931
2.39495
2.33215
2.27096
2.2114
2.15352
2.09737
2.04301
1.99046
1.93979
1.89104
1.84424
1.79944
1.75666
1.71593
1.67727
1.64068
1.60615
1.57369
1.54326
1.51483
1.48837
1.46382
1.44112
1.4202
1.401
1.38344
1.36743
1.35289
1.33973
1.32786
1.31719
1.30764
1.29913
1.29156
1.28487
1.27897
1.2738
1.2693
1.26539
1.26203
1.25916
1.25676
1.25476
1.25316
1.25191
1.25101
1.25043
1.25018
1.25026
1.25067
1.25144
1.25259
1.25417
1.25622
1.25881
1.26203
1.26597
1.27076
1.27655
1.28353
1.29191
1.30198
1.31405
1.32854
1.34595
1.36689
1.39214
1.42267
1.45976
1.50502
1.56062
1.62948
1.7156
1.82467
1.96494
2.14884
2.39574
2.73728
3.22767
3.9657
5.14252
7.15924
10.8905
18.5196
35.0031
74.8384
174.35
223.636
6.2894
6.40791
6.61784
6.98824
7.66969
8.99761
11.6607
16.8489
26.1903
41.3616
63.5211
92.8274
128.172
167.115
206.152
241.494
270.183
290.853
303.738
310.095
311.528
309.516
305.193
299.284
291.561
281.96
270.688
257.763
243.094
226.551
208.04
187.596
165.482
142.291
118.972
96.717
76.6774
59.6373
45.8493
35.1136
26.9892
20.9785
16.6213
13.5234
11.3598
9.87027
8.85369
8.16016
7.68197
7.34453
7.09833
6.91223
6.768
6.65608
6.57224
6.51508
6.48415
6.47876
6.49726
6.53675
6.59313
6.66138
6.73589
6.81089
6.88074
6.94025
6.98492
7.01105
7.01593
6.99789
6.95632
6.89163
6.8051
6.69817
6.5744
6.43681
6.28839
6.13212
5.97074
5.80671
5.64214
5.47879
5.31804
5.16096
5.00832
4.86065
4.71827
4.58135
4.44989
4.32383
4.20301
4.08721
3.97617
3.86963
3.76727
3.6688
3.57392
3.48233
3.39377
3.30796
3.22468
3.1437
3.06483
2.98792
2.91283
2.83943
2.76765
2.69743
2.62871
2.56147
2.49571
2.43143
2.36864
2.30737
2.24766
2.18954
2.13305
2.07825
2.02518
1.97389
1.92442
1.87682
1.83112
1.78737
1.7456
1.70582
1.66805
1.63231
1.59858
1.56686
1.53712
1.50933
1.48346
1.45945
1.43725
1.41679
1.398
1.38081
1.36513
1.35089
1.33799
1.32636
1.3159
1.30653
1.29818
1.29075
1.28418
1.27839
1.2733
1.26887
1.26503
1.26173
1.25891
1.25654
1.25458
1.253
1.25178
1.25089
1.25033
1.25009
1.25017
1.25059
1.25136
1.25251
1.25408
1.25613
1.25871
1.26192
1.26584
1.27061
1.27637
1.28331
1.29165
1.30166
1.31367
1.32808
1.34539
1.36622
1.39132
1.42169
1.45857
1.50358
1.55887
1.62733
1.71295
1.82136
1.96074
2.14336
2.38834
2.72683
3.21203
3.9407
5.09876
7.07665
10.7102
18.0904
33.7779
70.6175
160.999
219.653
5.56819
5.58794
5.64664
5.76842
6.00175
6.4505
7.33426
9.07103
12.3329
17.9926
26.9264
39.7553
56.6548
77.2863
100.813
125.945
151.058
174.435
194.609
210.64
222.195
229.426
232.763
232.68
229.056
222.102
212.255
199.862
185.208
168.587
150.375
131.105
111.501
92.4407
74.8193
59.3525
46.4226
36.0517
28.0001
21.9059
17.3902
14.1085
11.7668
10.1234
8.98539
8.2037
7.66649
7.29251
7.02466
6.82457
6.66795
6.54093
6.43692
6.35404
6.29305
6.25566
6.24321
6.25588
6.2923
6.34941
6.42276
6.50693
6.59595
6.6838
6.76479
6.83381
6.88652
6.91946
6.93013
6.91701
6.87962
6.81843
6.73466
6.63015
6.50841
6.37232
6.22496
6.06937
5.90838
5.74454
5.58005
5.41672
5.25599
5.09897
4.94645
4.79901
4.65696
4.52047
4.38957
4.26419
4.14416
4.02927
3.91925
3.81382
3.71267
3.61551
3.52201
3.43189
3.34484
3.26061
3.17895
3.09963
3.02245
2.94724
2.87385
2.80216
2.73208
2.66353
2.59647
2.53086
2.4667
2.40398
2.34272
2.28293
2.22466
2.16795
2.11282
2.05933
2.00753
1.95746
1.90916
1.86269
1.81808
1.77536
1.73457
1.69573
1.65885
1.62394
1.591
1.56001
1.53096
1.50381
1.47853
1.45506
1.43336
1.41335
1.39497
1.37815
1.3628
1.34886
1.33623
1.32483
1.31458
1.3054
1.2972
1.28992
1.28347
1.27778
1.27279
1.26844
1.26466
1.26141
1.25865
1.25632
1.25439
1.25284
1.25164
1.25077
1.25023
1.25
1.25009
1.25051
1.25128
1.25243
1.254
1.25604
1.25862
1.26181
1.26571
1.27046
1.27619
1.2831
1.2914
1.30135
1.3133
1.32763
1.34484
1.36555
1.39051
1.42071
1.45737
1.5021
1.55705
1.62507
1.7101
1.8177
1.95594
2.13686
2.37921
2.71336
3.19097
3.90558
5.03535
6.95267
10.4422
17.4397
32.1071
65.2512
145.301
211.143
5.23431
5.21457
5.21433
5.24306
5.31814
5.47407
5.78233
6.38369
7.52384
9.56785
12.9631
18.1411
25.396
34.7975
46.1709
59.1282
73.117
87.4625
101.411
114.196
125.118
133.621
139.319
141.99
141.639
138.367
132.296
123.733
113.123
101.018
88.0632
74.9567
62.3845
50.9267
40.9715
32.6791
26.0095
20.7939
16.8076
13.8211
11.6246
10.0374
8.9088
8.11726
7.5669
7.18412
6.91389
6.71639
6.56414
6.43954
6.33273
6.2397
6.16054
6.09783
6.05514
6.03585
6.04211
6.07424
6.13055
6.20738
6.29951
6.40077
6.50461
6.60467
6.69519
6.77128
6.82895
6.86521
6.87798
6.86612
6.82938
6.76841
6.68436
6.58008
6.45818
6.32164
6.17359
6.01714
5.85522
5.69044
5.52505
5.3609
5.19947
5.0419
4.88899
4.74132
4.59921
4.46283
4.3322
4.20725
4.08779
3.9736
3.86442
3.75995
3.65988
3.56389
3.47165
3.38287
3.29724
3.21449
3.13435
3.0566
2.98102
2.90743
2.83567
2.76561
2.69716
2.63023
2.56477
2.50074
2.43812
2.37692
2.31714
2.2588
2.20194
2.14658
2.09278
2.04058
1.99001
1.94114
1.894
1.84863
1.80509
1.76339
1.72357
1.68565
1.64965
1.61557
1.5834
1.55315
1.52478
1.49826
1.47357
1.45064
1.42943
1.40987
1.3919
1.37545
1.36044
1.3468
1.33444
1.32328
1.31324
1.30424
1.29621
1.28907
1.28274
1.27716
1.27226
1.26799
1.26428
1.26109
1.25837
1.25609
1.2542
1.25267
1.2515
1.25065
1.25012
1.2499
1.25
1.25043
1.2512
1.25235
1.25392
1.25595
1.25852
1.2617
1.26559
1.27031
1.27602
1.28289
1.29115
1.30105
1.31293
1.32719
1.3443
1.36489
1.38971
1.41972
1.45615
1.5006
1.55517
1.62269
1.70705
1.81372
1.95058
2.12943
2.36849
2.69714
3.16505
3.86149
4.95487
6.79355
10.1022
16.6199
30.0974
59.3127
128.391
197.521
5.06956
5.03232
5.0066
4.99663
5.0094
5.05739
5.16492
5.37994
5.78937
6.53141
7.79453
9.79376
12.7234
16.7007
21.7238
27.6606
34.2658
41.2137
48.1299
54.6161
60.2698
64.7021
67.5577
68.5432
68.0079
66.2592
63.2228
58.9816
53.7626
47.8997
41.7776
35.7707
30.1868
25.2321
21.0042
17.5101
14.6975
12.4837
10.7768
9.48645
8.5298
7.83381
7.33599
6.98425
6.73622
6.55838
6.42522
6.31835
6.22568
6.14059
6.061
5.98835
5.92649
5.88054
5.85564
5.85596
5.88378
5.93907
6.01928
6.11965
6.23376
6.35429
6.47383
6.58554
6.68366
6.76366
6.82224
6.85719
6.8672
6.85176
6.8111
6.74618
6.65886
6.55143
6.42646
6.28693
6.136
5.97684
5.81239
5.6453
5.47784
5.31189
5.14894
4.9901
4.83621
4.6878
4.5452
4.40855
4.27787
4.15306
4.03393
3.92024
3.81171
3.70803
3.60887
3.5139
3.4228
3.33524
3.25092
3.16953
3.09083
3.01455
2.94048
2.86842
2.79822
2.72973
2.66284
2.59746
2.53354
2.47103
2.40991
2.35018
2.29184
2.23491
2.17941
2.12539
2.07289
2.02194
1.97259
1.9249
1.87889
1.83462
1.79212
1.75143
1.71257
1.67557
1.64043
1.60717
1.57578
1.54625
1.51856
1.49267
1.46856
1.44617
1.42546
1.40635
1.3888
1.37272
1.35805
1.3447
1.33261
1.32169
1.31187
1.30306
1.29519
1.28819
1.28199
1.27652
1.27172
1.26753
1.26389
1.26076
1.25809
1.25584
1.25399
1.2525
1.25134
1.25052
1.25
1.2498
1.2499
1.25034
1.25112
1.25227
1.25383
1.25586
1.25842
1.26158
1.26546
1.27016
1.27584
1.28268
1.29089
1.30075
1.31257
1.32674
1.34376
1.36423
1.3889
1.41873
1.45492
1.49906
1.55323
1.62022
1.70383
1.80943
1.94472
2.12116
2.35633
2.67847
3.13486
3.80973
4.86018
6.60637
9.70692
15.6854
27.8614
53.2217
111.429
179.491
4.98584
4.94012
4.90231
4.87455
4.86009
4.8639
4.89471
4.96915
5.11801
5.39232
5.86577
6.62964
7.77845
9.3876
11.4885
14.0502
16.9731
20.0969
23.2176
26.1079
28.5372
30.288
31.1723
31.0562
30.2845
29.1427
27.6407
25.8209
23.76
21.5599
19.332
17.1789
15.1814
13.3922
11.8376
10.5229
9.4388
8.56666
7.88227
7.35864
6.96816
6.68401
6.48129
6.33769
6.23405
6.15468
6.08762
6.02468
5.96144
5.89695
5.83334
5.77514
5.72846
5.69993
5.69561
5.71992
5.77486
5.85948
5.96993
6.09976
6.24076
6.38392
6.5206
6.64332
6.74639
6.82598
6.8799
6.90724
6.90791
6.88244
6.83183
6.7581
6.66291
6.54819
6.41651
6.27084
6.11434
5.95015
5.78122
5.61018
5.43928
5.27037
5.10491
4.944
4.78842
4.63869
4.49511
4.35778
4.22669
4.10171
3.98264
3.86921
3.76112
3.65803
3.55962
3.46553
3.37542
3.28896
3.20582
3.1257
3.04831
2.97341
2.90076
2.83016
2.76143
2.69443
2.62903
2.56515
2.50272
2.44168
2.38201
2.3237
2.26676
2.21119
2.15704
2.10432
2.05309
2.00337
1.95522
1.90868
1.8638
1.82061
1.77914
1.73945
1.70154
1.66545
1.63117
1.59873
1.56811
1.53931
1.51229
1.48704
1.46351
1.44166
1.42144
1.40279
1.38565
1.36994
1.35561
1.34257
1.33075
1.32007
1.31046
1.30184
1.29414
1.28729
1.28121
1.27586
1.27115
1.26704
1.26347
1.2604
1.25779
1.25559
1.25377
1.25231
1.25118
1.25037
1.24987
1.24968
1.2498
1.25024
1.25102
1.25217
1.25374
1.25576
1.25831
1.26146
1.26532
1.27
1.27566
1.28247
1.29064
1.30044
1.3122
1.3263
1.34322
1.36357
1.38809
1.41773
1.45368
1.4975
1.55124
1.61765
1.70045
1.80487
1.93841
2.11212
2.34292
2.65769
3.10107
3.75166
4.75427
6.39838
9.27336
14.6863
25.5113
47.2585
95.3366
158.616
4.94313
4.893
4.84896
4.81225
4.78462
4.76835
4.76676
4.78571
4.83606
4.9364
5.11493
5.40843
5.85767
6.49909
7.35449
8.42093
9.664
11.0166
12.384
13.6537
14.7086
15.4417
15.7698
15.6528
15.276
14.754
14.1095
13.3703
12.5676
11.7343
10.9019
10.0987
9.34782
8.66642
8.06571
7.55126
7.12362
6.7791
6.51071
6.30902
6.16305
6.06105
5.99126
5.94257
5.90517
5.87105
5.83444
5.79212
5.74362
5.69114
5.63932
5.59472
5.56502
5.55793
5.58006
5.63579
5.72642
5.84967
5.99967
6.16756
6.3425
6.51307
6.66886
6.80156
6.90571
6.97867
7.02006
7.03098
7.0133
6.96907
6.90076
6.81186
6.70272
6.57536
6.43233
6.27656
6.11113
5.9391
5.76332
5.58635
5.41035
5.23711
5.068
4.90407
4.74602
4.5943
4.44917
4.31069
4.17878
4.05329
3.93398
3.82055
3.71266
3.60998
3.51213
3.41875
3.32949
3.24398
3.16189
3.08292
3.00675
2.93313
2.8618
2.79257
2.72524
2.65965
2.59568
2.53323
2.47222
2.41259
2.35433
2.2974
2.24182
2.18759
2.13475
2.08331
2.03332
1.98482
1.93785
1.89245
1.84867
1.80655
1.76612
1.72741
1.69045
1.65526
1.62185
1.59022
1.56037
1.53229
1.50595
1.48133
1.45839
1.43708
1.41736
1.39916
1.38243
1.36711
1.35311
1.34038
1.32883
1.3184
1.30901
1.30058
1.29305
1.28635
1.2804
1.27516
1.27055
1.26653
1.26303
1.26002
1.25746
1.2553
1.25352
1.25209
1.25099
1.2502
1.24972
1.24955
1.24967
1.25012
1.25091
1.25206
1.25362
1.25564
1.25818
1.26133
1.26517
1.26984
1.27547
1.28224
1.29038
1.30013
1.31183
1.32585
1.34268
1.36291
1.38728
1.41672
1.45241
1.4959
1.5492
1.61498
1.69691
1.80006
1.93169
2.10243
2.32843
2.63513
3.06434
3.68866
4.64007
6.17657
8.81744
13.6651
23.1492
41.6019
80.6981
136.741
4.92169
4.86912
4.82162
4.78001
4.74538
4.71894
4.70207
4.69689
4.70712
4.73932
4.80393
4.9154
5.09061
5.34578
5.69203
6.13092
6.65081
7.22541
7.81492
8.37009
8.83858
9.17264
9.33715
9.31791
9.20002
9.01684
8.77807
8.49587
8.18378
7.8557
7.52504
7.20394
6.9028
6.62987
6.391
6.18963
6.02681
5.90141
5.81034
5.74892
5.7113
5.69088
5.68087
5.67474
5.6668
5.65266
5.6297
5.59738
5.55758
5.51456
5.47485
5.44665
5.439
5.46058
5.51843
5.61667
5.75553
5.93076
6.13365
6.35181
6.57057
6.77508
6.95237
7.0931
7.19236
7.24946
7.2669
7.24895
7.20035
7.12558
7.03086
6.91731
6.78604
6.63905
6.47876
6.3079
6.12938
5.94603
5.76053
5.57526
5.39221
5.21302
5.03894
4.87087
4.70943
4.55497
4.40766
4.26748
4.13431
4.00792
3.88803
3.7743
3.66638
3.56387
3.46639
3.37354
3.28496
3.20026
3.1191
3.04114
2.96608
2.89363
2.82353
2.75557
2.68955
2.62531
2.56269
2.50161
2.44197
2.38371
2.3268
2.27122
2.21696
2.16404
2.11247
2.06229
2.01352
1.96622
1.92042
1.87615
1.83347
1.79241
1.753
1.71528
1.67927
1.64498
1.61243
1.58162
1.55254
1.52518
1.49952
1.47553
1.45318
1.43241
1.41319
1.39546
1.37915
1.3642
1.35055
1.33813
1.32686
1.31668
1.3075
1.29927
1.29191
1.28536
1.27955
1.27442
1.26991
1.26597
1.26255
1.25961
1.2571
1.25499
1.25325
1.25185
1.25077
1.25001
1.24955
1.24938
1.24952
1.24998
1.25077
1.25193
1.25349
1.2555
1.25804
1.26117
1.265
1.26965
1.27525
1.282
1.2901
1.2998
1.31144
1.32539
1.34212
1.36223
1.38645
1.41569
1.45113
1.49428
1.54711
1.61224
1.69324
1.79504
1.92462
2.09218
2.31304
2.61114
3.02533
3.62207
4.52038
5.94729
8.35346
12.6557
20.8599
36.3647
67.7872
115.5
4.91125
4.85727
4.80772
4.7632
4.72448
4.6923
4.66733
4.65034
4.64251
4.646
4.66441
4.70307
4.76867
4.86808
5.00656
5.1857
5.40164
5.6442
5.89712
6.1397
6.34956
6.50609
6.59402
6.60731
6.58347
6.52983
6.45014
6.34948
6.23379
6.10947
5.98293
5.86022
5.74667
5.64664
5.56333
5.49862
5.45303
5.42576
5.41476
5.41691
5.42828
5.44442
5.46075
5.47296
5.47745
5.47182
5.45526
5.42904
5.39676
5.36446
5.34043
5.33456
5.35738
5.41863
5.52577
5.68251
5.88754
6.13381
6.4085
6.69408
6.97036
7.21744
7.41883
7.56385
7.64871
7.67599
7.65271
7.58797
7.49086
7.36988
7.2354
7.08544
6.92178
6.74638
6.56141
6.3693
6.17256
5.97368
5.77501
5.57859
5.38618
5.19915
5.01853
4.84506
4.67917
4.5211
4.37088
4.2284
4.09345
3.96573
3.8449
3.73056
3.62231
3.51973
3.4224
3.3299
3.24182
3.15777
3.07739
3.00032
2.92624
2.85485
2.78589
2.71911
2.65432
2.59133
2.53001
2.47022
2.41189
2.35495
2.29935
2.24507
2.1921
2.14045
2.09014
2.04119
1.99364
1.94752
1.90287
1.85973
1.81814
1.77814
1.73975
1.70301
1.66795
1.63456
1.60287
1.57288
1.54457
1.51795
1.49297
1.46962
1.44786
1.42764
1.40893
1.39166
1.37577
1.36121
1.34791
1.3358
1.32481
1.31488
1.30593
1.2979
1.29071
1.28432
1.27864
1.27362
1.26922
1.26537
1.26202
1.25914
1.25669
1.25463
1.25292
1.25156
1.25051
1.24977
1.24933
1.24918
1.24933
1.24979
1.25059
1.25175
1.25331
1.25532
1.25785
1.26098
1.26479
1.26942
1.27501
1.28172
1.28978
1.29944
1.31102
1.3249
1.34154
1.36153
1.38559
1.41464
1.44981
1.49261
1.54496
1.60942
1.68945
1.78982
1.91725
2.08145
2.29693
2.58604
2.98466
3.55313
4.39774
5.71603
7.89351
11.6837
18.7065
31.6155
56.6527
96.0309
4.90643
4.85157
4.80071
4.75433
4.71299
4.67723
4.6474
4.62379
4.60671
4.59672
4.59485
4.60284
4.62303
4.65809
4.71026
4.78049
4.86759
4.96769
5.07426
5.17873
5.27158
5.34391
5.38891
5.40394
5.40544
5.39423
5.37187
5.3406
5.30319
5.26273
5.22239
5.18526
5.15409
5.13112
5.11794
5.11534
5.12325
5.14074
5.16603
5.19662
5.22945
5.26111
5.2882
5.3076
5.31696
5.31515
5.30274
5.28248
5.25966
5.24222
5.24046
5.26633
5.33214
5.449
5.62492
5.86302
6.15985
6.50431
6.87761
7.25469
7.60729
7.90826
8.13611
8.27853
8.33389
8.30999
8.22099
8.08342
7.91297
7.72794
7.53392
7.33102
7.12115
6.90592
6.6869
6.46586
6.24464
6.02515
5.80917
5.59826
5.39376
5.19667
5.00772
4.82737
4.65585
4.49317
4.33922
4.19376
4.05645
3.92692
3.80472
3.68942