/*--------------------------------*- C++ -*----------------------------------*\
| =========                 |                                                 |
| \\      /  F ield         | OpenFOAM: The Open Source CFD Toolbox           |
|  \\    /   O peration     | Version:  2.4.0                                 |
|   \\  /    A nd           | Web:      www.OpenFOAM.org                      |
|    \\/     M anipulation  |                                                 |
\*---------------------------------------------------------------------------*/
FoamFile
{
    version     2.0;
    format      ascii;
    class       volScalarField;
    location    "0.0638491";
    object      nut;
}
// * * * * * * * * * * * * * * * * * * * * * * * * * * * * * * * * * * * * * //

dimensions      [0 2 -1 0 0 0 0];

internalField   nonuniform List<scalar> 
17600
(
0.000104555
0.000118441
0.000127836
0.000133525
0.000136459
0.000137511
0.000137377
0.000136568
0.000135436
0.000134208
0.000133015
0.000131927
0.000130969
0.000130133
0.000129395
0.000128709
0.000128013
0.000127189
0.000126064
0.000124189
0.000341493
0.000221237
0.000172212
0.000148152
0.000136121
0.000130916
0.000129968
0.000131883
0.000135819
0.000141193
0.000147547
0.000154495
0.000161708
0.000168913
0.000175905
0.000182554
0.000188793
0.000194676
0.000200201
0.000205291
0.000675001
0.000521588
0.000416455
0.000343294
0.000291229
0.000253524
0.000225783
0.000205203
0.00019
0.000179007
0.000171425
0.000166681
0.000164327
0.000163989
0.000165324
0.000168002
0.000171668
0.000175891
0.00018021
0.000182493
0.000803835
0.000728449
0.000650953
0.000580773
0.000520564
0.000470112
0.000428007
0.000392642
0.00036263
0.000336885
0.000314596
0.000295177
0.000278214
0.000263405
0.000250504
0.000239258
0.00022932
0.000220106
0.000210771
0.000197978
0.000837713
0.00080904
0.000770718
0.00072788
0.00068453
0.000643198
0.000605053
0.000570384
0.00053903
0.000510638
0.000484793
0.000461085
0.000439134
0.000418588
0.000399093
0.000380234
0.000361388
0.000341423
0.000318217
0.000284851
0.000845946
0.00083463
0.000817672
0.000795912
0.000770871
0.000744175
0.00071712
0.000690566
0.000665016
0.000640703
0.000617684
0.000595898
0.00057521
0.000555421
0.000536261
0.000517336
0.00049798
0.00047691
0.000451447
0.000412814
0.000847926
0.000842165
0.000834045
0.000823227
0.000809851
0.000794414
0.000777535
0.000759801
0.000741693
0.000723574
0.000705685
0.000688165
0.000671065
0.000654359
0.000637928
0.000621528
0.000604672
0.000586358
0.000564408
0.000531704
0.000848403
0.000844311
0.000839421
0.00083336
0.000825921
0.000817091
0.00080701
0.000795896
0.000783999
0.000771557
0.000758777
0.000745819
0.000732792
0.000719747
0.000706663
0.000693418
0.000679702
0.000664826
0.00064728
0.000622278
0.000848519
0.000844912
0.000841124
0.000836936
0.00083216
0.000826668
0.000820411
0.000813407
0.000805721
0.000797447
0.000788692
0.000779554
0.000770118
0.00076044
0.000750529
0.000740327
0.000729641
0.000718019
0.000704467
0.000685983
0.000848546
0.000845078
0.00084165
0.000838156
0.00083448
0.000830518
0.000826189
0.000821442
0.000816259
0.000810647
0.000804632
0.000798252
0.000791543
0.000784536
0.000777236
0.000769607
0.000761524
0.000752691
0.000742475
0.000729055
0.000848553
0.000845122
0.000841809
0.00083856
0.000835315
0.000832008
0.000828577
0.000824967
0.000821138
0.000817064
0.000812733
0.00080814
0.000803291
0.000798188
0.000792823
0.000787164
0.000781127
0.000774517
0.000766944
0.000757348
0.000848554
0.000845134
0.000841855
0.00083869
0.000835607
0.000832567
0.000829531
0.000826457
0.000823311
0.000820061
0.000816683
0.000813159
0.000809475
0.000805618
0.000801572
0.000797307
0.00079276
0.000787807
0.000782225
0.000775439
0.000848554
0.000845136
0.000841868
0.000838731
0.000835706
0.00083277
0.0008299
0.000827067
0.000824246
0.000821412
0.000818542
0.000815615
0.000812613
0.000809519
0.000806312
0.000802965
0.000799435
0.000795646
0.000791487
0.000786698
0.000848554
0.000845136
0.00084187
0.000838742
0.000835737
0.000832842
0.000830038
0.000827309
0.000824637
0.000822003
0.000819389
0.000816778
0.000814154
0.000811499
0.000808796
0.000806022
0.000803148
0.000800132
0.000796941
0.000793517
0.000848553
0.000845135
0.00084187
0.000838744
0.000835746
0.000832865
0.000830088
0.000827402
0.000824794
0.000822253
0.000819763
0.000817313
0.000814888
0.000812475
0.00081006
0.000807625
0.000805153
0.000802628
0.000800066
0.000797538
0.000848553
0.000845135
0.000841869
0.000838744
0.000835748
0.000832872
0.000830104
0.000827436
0.000824856
0.000822355
0.000819924
0.000817552
0.000815228
0.000812943
0.000810685
0.000808444
0.000806208
0.000803981
0.000801813
0.000799848
0.000848553
0.000845134
0.000841868
0.000838743
0.000835748
0.000832873
0.000830109
0.000827447
0.000824879
0.000822396
0.000819991
0.000817655
0.000815382
0.000813162
0.000810987
0.000808851
0.000806751
0.000804699
0.000802766
0.000801142
0.000848553
0.000845134
0.000841868
0.000838742
0.000835747
0.000832872
0.00083011
0.00082745
0.000824886
0.000822411
0.000820017
0.000817699
0.000815449
0.000813261
0.00081113
0.00080905
0.000807024
0.000805071
0.000803276
0.000801848
0.000848553
0.000845133
0.000841867
0.000838742
0.000835746
0.000832872
0.000830109
0.000827451
0.000824888
0.000822416
0.000820027
0.000817716
0.000815477
0.000813305
0.000811195
0.000809144
0.000807158
0.00080526
0.000803542
0.00080222
0.000848553
0.000845133
0.000841867
0.000838741
0.000835746
0.000832871
0.000830109
0.000827451
0.000824889
0.000822418
0.000820031
0.000817723
0.000815488
0.000813322
0.000811222
0.000809184
0.000807217
0.000805348
0.000803669
0.0008024
0.000848553
0.000845133
0.000841867
0.000838741
0.000835746
0.000832871
0.000830109
0.000827451
0.000824889
0.000822418
0.000820031
0.000817724
0.000815489
0.000813325
0.000811226
0.000809192
0.000807231
0.000805372
0.000803708
0.000802457
0.000848553
0.000845133
0.000841867
0.000838742
0.000835746
0.000832872
0.000830109
0.000827451
0.000824889
0.000822417
0.000820029
0.000817718
0.000815481
0.000813312
0.000811207
0.000809167
0.0008072
0.000805336
0.000803668
0.000802408
0.000848553
0.000845134
0.000841868
0.000838742
0.000835747
0.000832873
0.00083011
0.00082745
0.000824887
0.000822412
0.000820019
0.000817702
0.000815455
0.000813273
0.000811152
0.000809092
0.000807103
0.000805213
0.000803518
0.000802226
0.000848553
0.000845134
0.000841869
0.000838743
0.000835748
0.000832873
0.000830109
0.000827447
0.000824879
0.000822397
0.000819993
0.00081766
0.000815391
0.00081318
0.000811023
0.00080892
0.000806879
0.000804934
0.00080318
0.000801823
0.000848553
0.000845135
0.000841869
0.000838744
0.000835748
0.000832872
0.000830105
0.000827436
0.000824857
0.000822357
0.000819928
0.000817559
0.000815243
0.000812971
0.000810741
0.000808551
0.000806412
0.00080436
0.000802495
0.000801025
0.000848553
0.000845135
0.00084187
0.000838744
0.000835747
0.000832865
0.000830088
0.000827402
0.000824796
0.000822255
0.000819769
0.000817324
0.00081491
0.000812518
0.000810146
0.000807793
0.000805476
0.000803233
0.000801175
0.000799518
0.000848554
0.000845136
0.00084187
0.000838742
0.000835737
0.000832842
0.000830038
0.00082731
0.000824639
0.000822006
0.000819397
0.000816794
0.000814187
0.000811566
0.00080893
0.000806288
0.000803659
0.000801095
0.000798719
0.000796767
0.000848554
0.000845136
0.000841868
0.000838731
0.000835706
0.000832771
0.0008299
0.000827068
0.000824249
0.000821418
0.000818554
0.00081564
0.000812665
0.000809624
0.000806523
0.000803388
0.000800244
0.000797164
0.000794292
0.000791896
0.000848554
0.000845134
0.000841855
0.00083869
0.000835607
0.000832568
0.000829532
0.000826459
0.000823315
0.00082007
0.000816703
0.0008132
0.000809558
0.000805786
0.000801907
0.000797967
0.000794021
0.000790159
0.000786558
0.000783529
0.000848553
0.000845122
0.000841809
0.00083856
0.000835315
0.000832009
0.000828579
0.00082497
0.000821145
0.00081708
0.000812765
0.000808207
0.000803425
0.000798454
0.000793345
0.000788174
0.000783053
0.00077808
0.000773474
0.0007696
0.000848546
0.000845078
0.00084165
0.000838156
0.00083448
0.000830519
0.000826191
0.000821447
0.000816271
0.000810672
0.000804685
0.000798359
0.000791756
0.000784951
0.000778033
0.00077112
0.000764391
0.00075795
0.000752058
0.000747136
0.000848519
0.000844912
0.000841124
0.000836937
0.00083216
0.000826669
0.000820416
0.000813417
0.000805742
0.00079749
0.000788778
0.000779724
0.000770447
0.000761066
0.00075171
0.000742531
0.00073376
0.000725559
0.000718167
0.00071206
0.000848403
0.000844311
0.000839421
0.00083336
0.000825922
0.000817095
0.000807018
0.000795913
0.000784033
0.000771626
0.000758912
0.000746078
0.000733281
0.00072066
0.000708354
0.000696529
0.000685414
0.000675332
0.000666376
0.000659062
0.000847926
0.000842165
0.000834046
0.000823228
0.000809854
0.00079442
0.000777549
0.000759829
0.000741749
0.000723682
0.000705888
0.000688543
0.000671764
0.000655639
0.000640262
0.00062577
0.000612383
0.000600566
0.000590212
0.000581821
0.000845946
0.00083463
0.000817673
0.000795914
0.000770876
0.000744186
0.000717142
0.00069061
0.000665099
0.000640858
0.000617969
0.000596418
0.000576151
0.000557119
0.000539315
0.00052282
0.000507835
0.000494885
0.000483841
0.000474886
0.000837713
0.000809041
0.000770719
0.000727884
0.000684538
0.000643215
0.000605086
0.000570445
0.000539142
0.000510839
0.000485154
0.000461727
0.000440271
0.000420594
0.000402617
0.000386396
0.000372123
0.000360193
0.000350728
0.00034322
0.000803835
0.00072845
0.000650955
0.000580779
0.000520575
0.000470134
0.000428046
0.000392711
0.00036275
0.000337091
0.000314948
0.000295775
0.000279221
0.000265085
0.000253276
0.000243782
0.000236633
0.00023189
0.000229369
0.000228222
0.000675001
0.00052159
0.000416458
0.0003433
0.000291239
0.00025354
0.000225809
0.000205244
0.000190065
0.00017911
0.000171587
0.000166933
0.000164717
0.000164589
0.00016625
0.000169435
0.000173899
0.000179337
0.000185158
0.000190575
0.000341493
0.000221238
0.000172213
0.000148153
0.000136122
0.000130917
0.000129967
0.00013188
0.000135811
0.000141175
0.00014751
0.000154423
0.000161575
0.000168674
0.00017549
0.000181846
0.000187582
0.000192458
0.000196174
0.000198575
0.000104555
0.000118441
0.000127836
0.000133525
0.00013646
0.000137512
0.00013738
0.000136574
0.000135446
0.000134225
0.000133046
0.000131982
0.000131065
0.000130301
0.000129688
0.000129221
0.000128903
0.000128736
0.000128698
0.000128851
0.000181402
0.000283562
0.00042025
0.000576008
0.000745948
0.000931744
0.00114085
0.0013751
0.0016283
0.00189156
0.00215791
0.00242392
0.00268889
0.00295326
0.00321712
0.00347946
0.00373803
0.0039896
0.00423037
0.0044564
0.00466384
0.00484918
0.0050092
0.00514089
0.00524079
0.00530256
0.00532691
0.00531299
0.00526038
0.00516913
0.0050398
0.00487353
0.00467204
0.00443766
0.00417325
0.0038821
0.00356785
0.00323432
0.00288572
0.00252751
0.00216817
0.00182104
0.00150342
0.00123147
0.0010145
0.000853774
0.000745327
0.000683174
0.000660894
0.000671696
0.00070789
0.000760818
0.000821727
0.000883179
0.000940049
0.00098966
0.00103127
0.00106535
0.00109296
0.00111539
0.00113384
0.00114938
0.00116287
0.00117495
0.00118606
0.0011965
0.00120639
0.00121579
0.00122466
0.00123293
0.00124053
0.00124739
0.00125345
0.00125871
0.00126317
0.00126684
0.00126972
0.00127191
0.00127354
0.0012747
0.00127547
0.00127592
0.0012761
0.00127606
0.00127583
0.0012754
0.0012748
0.001274
0.00127299
0.00127173
0.00127019
0.00126833
0.0012661
0.00126345
0.00126034
0.00125673
0.00125256
0.00124781
0.00124243
0.0012364
0.00122971
0.00122233
0.00121427
0.00120553
0.00119613
0.00118608
0.00117541
0.00116417
0.0011524
0.00114014
0.00112745
0.00111439
0.00110103
0.00108743
0.00107365
0.00105978
0.00104587
0.001032
0.00101824
0.00100464
0.000991283
0.000978217
0.0009655
0.000953184
0.000941313
0.000929927
0.000919059
0.000908734
0.000898971
0.000889782
0.000881173
0.000873143
0.000865685
0.000858789
0.000852437
0.000846611
0.000841287
0.000836441
0.000832045
0.000828073
0.000824495
0.000821283
0.000818411
0.00081585
0.000813574
0.00081156
0.000809782
0.00080822
0.000806853
0.000805663
0.000804632
0.000803746
0.00080299
0.000802354
0.000801826
0.000801399
0.000801066
0.000800822
0.000800663
0.000800588
0.000800597
0.000800694
0.000800883
0.00080117
0.000801567
0.000802087
0.000802745
0.000803562
0.000804564
0.000805782
0.000807252
0.000809018
0.000811135
0.000813664
0.000816682
0.000820278
0.000824561
0.000829659
0.000835729
0.000842958
0.000851576
0.000861863
0.000874167
0.000888924
0.000906683
0.000928151
0.000954241
0.000986148
0.00102545
0.00107421
0.00113509
0.00121123
0.00130571
0.00141908
0.00154613
0.00166428
0.00175103
0.00172798
0.00165478
0.000443538
0.000210998
0.00023098
0.000276312
0.000358736
0.000484733
0.000647695
0.000832385
0.00102841
0.00123451
0.00145209
0.00168026
0.00191631
0.00215752
0.00240191
0.00264793
0.0028939
0.00313759
0.00337605
0.00360579
0.00382299
0.00402383
0.0042046
0.00436188
0.00449237
0.00459229
0.00465464
0.00468127
0.00467125
0.00462419
0.00454022
0.00442006
0.004265
0.00407689
0.00385807
0.00361132
0.00333974
0.0030467
0.00273602
0.00241267
0.00208429
0.00176281
0.00146416
0.00120423
0.000993579
0.000835324
0.000727082
0.000663956
0.000640294
0.00064993
0.00068566
0.00073902
0.000801085
0.000863986
0.000922136
0.000972536
0.00101429
0.00104788
0.00107444
0.00109538
0.00111206
0.0011257
0.00113731
0.00114767
0.00115735
0.00116673
0.00117602
0.00118529
0.00119448
0.0012035
0.00121221
0.00122045
0.0012281
0.00123503
0.00124119
0.00124654
0.00125104
0.00125464
0.00125753
0.00125981
0.00126154
0.00126282
0.00126371
0.00126427
0.00126456
0.00126459
0.00126439
0.00126398
0.00126334
0.00126245
0.0012613
0.00125986
0.00125808
0.00125594
0.00125337
0.00125035
0.00124684
0.00124278
0.00123814
0.00123291
0.00122703
0.00122051
0.00121333
0.00120548
0.00119697
0.00118781
0.00117803
0.00116765
0.0011567
0.00114524
0.00113331
0.00112096
0.00110825
0.00109525
0.001082
0.00106859
0.00105508
0.00104153
0.00102801
0.00101459
0.00100133
0.000988297
0.000975542
0.000963122
0.000951085
0.000939476
0.000928332
0.000917687
0.000907565
0.000897985
0.00088896
0.000880497
0.000872594
0.000865247
0.000858446
0.000852175
0.000846416
0.000841148
0.000836347
0.000831988
0.000828044
0.000824489
0.000821294
0.000818433
0.00081588
0.00081361
0.000811597
0.000809821
0.000808258
0.000806889
0.000805696
0.000804662
0.000803773
0.000803014
0.000802374
0.000801843
0.000801413
0.000801076
0.000800829
0.000800667
0.000800589
0.000800596
0.00080069
0.000800876
0.000801161
0.000801554
0.00080207
0.000802724
0.000803537
0.000804533
0.000805744
0.000807206
0.000808963
0.000811068
0.000813584
0.000816586
0.000820164
0.000824426
0.000829501
0.000835546
0.00084275
0.000851343
0.00086161
0.000873904
0.000888669
0.000906469
0.000928031
0.000954305
0.000986542
0.00102642
0.00107616
0.00113871
0.0012177
0.00131703
0.00143852
0.00157836
0.0017154
0.00182408
0.00182677
0.0017511
0.000622928
0.000182903
0.000184723
0.000192707
0.000216777
0.000272142
0.000372575
0.000520582
0.000703262
0.000900763
0.00110011
0.00129912
0.00150056
0.00170677
0.0019183
0.00213433
0.00235317
0.00257251
0.00278947
0.00300066
0.00320238
0.00339075
0.00356196
0.00371235
0.00383833
0.00393565
0.00399742
0.00402607
0.00402051
0.00398025
0.00390543
0.00379674
0.00365546
0.00348331
0.00328248
0.00305549
0.00280521
0.00253508
0.00224971
0.00195621
0.0016655
0.00139218
0.00115132
0.000953812
0.00080399
0.000700857
0.000640654
0.000618603
0.000629237
0.000665884
0.000720368
0.00078375
0.00084793
0.00090704
0.000957877
0.000999459
0.00103225
0.00105747
0.0010766
0.00109111
0.00110236
0.00111148
0.00111942
0.00112689
0.00113439
0.00114225
0.00115059
0.00115941
0.00116861
0.001178
0.00118736
0.00119647
0.00120511
0.00121314
0.00122041
0.00122683
0.00123226
0.00123679
0.00124056
0.00124362
0.00124607
0.00124798
0.00124943
0.00125048
0.00125118
0.00125157
0.00125168
0.00125153
0.00125111
0.00125042
0.00124945
0.00124816
0.00124653
0.00124452
0.00124209
0.00123921
0.00123583
0.00123193
0.00122746
0.0012224
0.00121672
0.00121041
0.00120345
0.00119585
0.0011876
0.00117872
0.00116923
0.00115916
0.00114855
0.00113743
0.00112585
0.00111386
0.00110152
0.00108889
0.00107603
0.001063
0.00104986
0.00103669
0.00102355
0.0010105
0.000997594
0.000984904
0.00097248
0.000960375
0.000948637
0.000937308
0.000926426
0.000916022
0.000906122
0.000896745
0.000887902
0.000879601
0.000871843
0.000864624
0.000857933
0.000851758
0.000846081
0.000840883
0.000836141
0.00083183
0.000827926
0.000824403
0.000821233
0.000818393
0.000815856
0.000813597
0.000811593
0.000809822
0.000808264
0.000806897
0.000805706
0.000804672
0.000803782
0.000803022
0.000802381
0.000801849
0.000801417
0.000801079
0.00080083
0.000800666
0.000800586
0.000800591
0.000800683
0.000800866
0.000801149
0.000801539
0.000802052
0.000802702
0.00080351
0.000804501
0.000805705
0.000807159
0.000808907
0.000811
0.000813503
0.000816489
0.000820048
0.000824289
0.000829341
0.000835359
0.000842534
0.000851098
0.000861337
0.000873609
0.000888363
0.000906173
0.000927783
0.000954168
0.000986624
0.00102689
0.00107734
0.00114111
0.00122223
0.00132526
0.00145312
0.00160294
0.00175551
0.00187875
0.00190764
0.00181751
0.000826545
0.000193232
0.000187455
0.000180952
0.000176616
0.000183591
0.000216676
0.000289735
0.000409435
0.000570658
0.000757292
0.00095137
0.00114252
0.00132916
0.00151387
0.00169929
0.00188653
0.00207512
0.00226331
0.00244847
0.00262732
0.00279626
0.00295151
0.00308934
0.00320596
0.00329638
0.00335537
0.00338475
0.00338308
0.00334969
0.00328452
0.00318809
0.00306141
0.00290596
0.00272361
0.00251672
0.00228835
0.00204287
0.00178706
0.00153111
0.00128839
0.0010728
0.000894787
0.000759251
0.000666241
0.000613081
0.000595909
0.000609979
0.00064915
0.000705567
0.000770422
0.000835613
0.000895234
0.000946048
0.000987071
0.00101878
0.00104243
0.00105953
0.00107163
0.00108014
0.00108632
0.00109124
0.00109576
0.00110055
0.00110606
0.00111255
0.00112012
0.00112869
0.00113809
0.00114806
0.00115829
0.00116848
0.00117836
0.00118769
0.00119628
0.00120395
0.0012105
0.00121615
0.00122095
0.00122496
0.00122827
0.00123094
0.00123307
0.00123471
0.00123593
0.00123677
0.00123728
0.00123746
0.00123735
0.00123692
0.00123618
0.00123511
0.00123367
0.00123185
0.00122961
0.00122692
0.00122373
0.00122003
0.00121577
0.00121092
0.00120548
0.00119941
0.00119272
0.00118539
0.00117744
0.00116887
0.00115971
0.00114998
0.00113972
0.00112896
0.00111776
0.00110616
0.00109421
0.00108198
0.00106952
0.00105689
0.00104415
0.00103138
0.00101863
0.00100596
0.000993439
0.000981113
0.00096904
0.000957269
0.000945849
0.00093482
0.000924218
0.000914075
0.000904415
0.000895257
0.000886614
0.000878494
0.000870897
0.000863821
0.000857256
0.000851192
0.000845611
0.000840495
0.000835824
0.000831573
0.000827719
0.000824238
0.000821103
0.000818291
0.000815777
0.000813536
0.000811548
0.000809788
0.000808238
0.000806879
0.000805692
0.000804662
0.000803775
0.000803016
0.000802376
0.000801844
0.000801412
0.000801074
0.000800824
0.000800659
0.000800578
0.000800582
0.000800672
0.000800854
0.000801134
0.000801522
0.000802031
0.000802678
0.000803482
0.000804467
0.000805665
0.000807112
0.00080885
0.000810932
0.000813421
0.000816392
0.000819933
0.000824152
0.000829178
0.000835169
0.000842312
0.000850843
0.000861047
0.000873286
0.000888011
0.000905805
0.00092742
0.000953849
0.000986418
0.00102692
0.00107779
0.00114235
0.00122491
0.0013305
0.00146292
0.00161982
0.00178409
0.00191621
0.00196599
0.00187427
0.00103843
0.000272383
0.000257649
0.000239624
0.000217654
0.000194709
0.000181616
0.000193078
0.000239949
0.000327835
0.000456084
0.000615966
0.000793017
0.000973571
0.00114992
0.00132039
0.00148632
0.0016493
0.00180989
0.00196733
0.00211981
0.00226469
0.00239885
0.00251889
0.00262113
0.00269947
0.00275318
0.00278078
0.00278088
0.0027526
0.00269559
0.00261003
0.00249659
0.00235646
0.00219145
0.00200428
0.00179914
0.00158261
0.0013643
0.00115636
0.000971178
0.000818226
0.000702331
0.000624221
0.000582163
0.00057317
0.000593172
0.000636484
0.000695567
0.000761884
0.00082761
0.000887088
0.00093727
0.00097727
0.00100761
0.00102951
0.00104449
0.00105406
0.00105967
0.00106263
0.00106409
0.00106506
0.00106636
0.00106863
0.00107229
0.00107757
0.00108451
0.00109301
0.00110279
0.00111354
0.00112486
0.00113637
0.00114772
0.00115859
0.00116871
0.00117769
0.00118565
0.00119262
0.00119864
0.00120377
0.00120809
0.00121167
0.0012146
0.00121695
0.00121879
0.00122018
0.00122117
0.00122178
0.00122203
0.00122194
0.0012215
0.00122071
0.00121953
0.00121796
0.00121595
0.00121349
0.00121055
0.00120708
0.00120307
0.00119849
0.00119332
0.00118753
0.00118114
0.00117412
0.0011665
0.00115827
0.00114946
0.0011401
0.00113021
0.00111985
0.00110904
0.00109785
0.00108632
0.00107451
0.00106247
0.00105026
0.00103795
0.0010256
0.00101327
0.001001
0.000988874
0.000976931
0.000965227
0.000953811
0.000942727
0.000932016
0.000921713
0.000911849
0.000902447
0.000893527
0.000885101
0.000877178
0.000869759
0.000862841
0.000856418
0.000850479
0.000845007
0.000839987
0.000835398
0.000831218
0.000827425
0.000823995
0.000820904
0.000818128
0.000815644
0.000813428
0.00081146
0.000809718
0.000808181
0.000806832
0.000805654
0.000804631
0.000803749
0.000802995
0.000802357
0.000801828
0.000801397
0.00080106
0.00080081
0.000800646
0.000800565
0.000800567
0.000800657
0.000800837
0.000801116
0.000801502
0.000802009
0.000802652
0.000803452
0.000804433
0.000805624
0.000807063
0.000808792
0.000810864
0.00081334
0.000816294
0.000819817
0.000824014
0.000829015
0.000834976
0.000842086
0.00085058
0.000860744
0.000872939
0.00088762
0.000905373
0.000926954
0.000953366
0.00098595
0.00102652
0.00107758
0.00114253
0.00122585
0.00133289
0.0014681
0.00162933
0.00180134
0.00193924
0.00200175
0.00192505
0.00124754
0.000397532
0.000379013
0.000355601
0.000325039
0.000285436
0.000240596
0.000204766
0.000194064
0.000216417
0.000274135
0.000367025
0.000491255
0.00063844
0.000797555
0.000958678
0.00111565
0.0012661
0.00140981
0.00154701
0.00167739
0.00179985
0.00191252
0.00201297
0.0020982
0.00216302
0.0022076
0.00222995
0.00222848
0.00220205
0.00215
0.00207224
0.00196927
0.00184239
0.00169403
0.00152827
0.0013515
0.00117267
0.00100259
0.000851828
0.000728415
0.000636662
0.000577634
0.000550346
0.000552557
0.000580719
0.000629469
0.000691573
0.000758955
0.000824396
0.00088282
0.000931588
0.000970016
0.000998661
0.0010187
0.00103155
0.00103865
0.00104138
0.00104103
0.00103881
0.00103581
0.00103301
0.00103121
0.00103106
0.00103297
0.00103716
0.00104363
0.0010522
0.00106255
0.00107428
0.00108692
0.00109998
0.00111304
0.00112569
0.00113752
0.00114808
0.00115763
0.00116612
0.00117355
0.00117998
0.00118547
0.0011901
0.00119397
0.00119716
0.00119974
0.00120178
0.00120334
0.00120446
0.00120516
0.00120548
0.00120541
0.00120495
0.00120409
0.00120282
0.00120111
0.00119893
0.00119627
0.00119309
0.00118937
0.00118509
0.00118023
0.00117477
0.0011687
0.00116203
0.00115477
0.00114691
0.00113848
0.00112951
0.00112004
0.00111009
0.0010997
0.00108894
0.00107785
0.00106648
0.00105488
0.00104313
0.00103126
0.00101935
0.00100745
0.000995612
0.000983898
0.000972358
0.000961044
0.000950001
0.000939273
0.000928899
0.000918914
0.000909347
0.000900221
0.000891556
0.000883365
0.000875655
0.00086843
0.000861687
0.00085542
0.000849619
0.00084427
0.000839358
0.000834863
0.000830765
0.000827042
0.000823673
0.000820634
0.000817902
0.000815456
0.000813272
0.00081133
0.000809609
0.000808091
0.000806757
0.000805591
0.000804578
0.000803703
0.000802956
0.000802324
0.000801798
0.000801371
0.000801035
0.000800788
0.000800624
0.000800544
0.000800547
0.000800636
0.000800816
0.000801093
0.000801478
0.000801983
0.000802623
0.000803419
0.000804395
0.000805581
0.000807013
0.000808734
0.000810795
0.000813257
0.000816197
0.000819701
0.000823876
0.000828851
0.000834782
0.000841857
0.00085031
0.000860428
0.000872571
0.000887194
0.000904882
0.000926394
0.000952733
0.000985241
0.00102575
0.00107676
0.00114171
0.00122518
0.00133265
0.00146899
0.00163212
0.00180807
0.00195019
0.00201821
0.00196505
0.00144299
0.00051863
0.000502778
0.000482545
0.000455563
0.000418073
0.000366454
0.000304117
0.000247387
0.000214812
0.000213904
0.000244342
0.000304348
0.000391547
0.000501714
0.000628316
0.000763545
0.00090015
0.00103283
0.00115844
0.00127536
0.00138253
0.00147886
0.00156289
0.00163261
0.00168456
0.0017188
0.00173372
0.0017279
0.00170026
0.00165017
0.0015777
0.00148382
0.00137081
0.00124265
0.0011054
0.000967139
0.000836956
0.000723348
0.000632634
0.000568337
0.000531609
0.00052198
0.000537704
0.000575505
0.000630185
0.000694886
0.000762298
0.00082619
0.00088238
0.000928813
0.000965062
0.000991704
0.00100981
0.00102062
0.00102543
0.00102546
0.00102194
0.00101602
0.00100886
0.00100154
0.000995046
0.000990227
0.00098773
0.000987983
0.000991181
0.000997295
0.0010061
0.0010172
0.00103012
0.0010443
0.00105916
0.00107418
0.00108882
0.00110236
0.00111487
0.00112627
0.00113651
0.00114557
0.00115348
0.00116032
0.00116617
0.00117112
0.00117527
0.00117871
0.00118151
0.00118374
0.00118546
0.0011867
0.0011875
0.00118787
0.00118781
0.00118733
0.00118642
0.00118505
0.00118321
0.00118088
0.00117804
0.00117465
0.00117071
0.0011662
0.0011611
0.0011554
0.00114911
0.00114223
0.00113478
0.00112676
0.00111822
0.00110917
0.00109966
0.00108973
0.00107942
0.00106879
0.00105789
0.00104676
0.00103547
0.00102407
0.00101262
0.00100117
0.000989784
0.000978506
0.00096739
0.000956485
0.000945835
0.000935483
0.000925466
0.000915818
0.000906566
0.000897736
0.000889344
0.000881404
0.000873925
0.000866909
0.000860356
0.000854259
0.000848611
0.000843399
0.000838606
0.000834217
0.000830212
0.00082657
0.000823271
0.000820292
0.000817612
0.00081521
0.000813064
0.000811154
0.00080946
0.000807964
0.00080665
0.0008055
0.000804499
0.000803636
0.000802897
0.000802272
0.000801753
0.00080133
0.000800999
0.000800754
0.000800593
0.000800514
0.000800518
0.000800608
0.000800788
0.000801065
0.000801448
0.000801951
0.000802589
0.000803382
0.000804354
0.000805535
0.00080696
0.000808672
0.000810723
0.000813174
0.000816098
0.000819583
0.000823737
0.000828686
0.000834585
0.000841624
0.000850034
0.0008601
0.000872183
0.000886736
0.000904339
0.000925749
0.000951962
0.000984315
0.00102462
0.00107537
0.00113999
0.00122305
0.00133002
0.00146599
0.00162894
0.00180551
0.00195063
0.00201994
0.00199017
0.00161281
0.000612464
0.000600816
0.000586229
0.000567117
0.000540674
0.000502278
0.000447003
0.000376465
0.000305512
0.000253759
0.000230889
0.000236551
0.000267526
0.00032089
0.000393771
0.000482533
0.00058249
0.000688269
0.000794566
0.000896827
0.000991528
0.00107606
0.00114838
0.0012066
0.0012486
0.00127412
0.00128219
0.00127198
0.001243
0.00119537
0.00113014
0.00104961
0.000957646
0.000859727
0.000762582
0.000673286
0.000598108
0.000541639
0.000506562
0.000493934
0.000503496
0.000533633
0.000581057
0.00064072
0.000706425
0.000772052
0.000832718
0.000885329
0.000928472
0.000961958
0.000986328
0.00100248
0.00101143
0.00101422
0.0010119
0.0010055
0.000996101
0.000984827
0.000972823
0.000961224
0.000951075
0.000943272
0.000938494
0.000937176
0.000939498
0.000945394
0.000954585
0.00096662
0.000980925
0.000996857
0.00101375
0.00103096
0.00104776
0.00106335
0.00107799
0.00109146
0.00110366
0.00111455
0.00112416
0.00113253
0.00113977
0.00114596
0.00115122
0.00115564
0.00115931
0.00116232
0.00116473
0.0011666
0.00116796
0.00116884
0.00116926
0.00116922
0.00116872
0.00116776
0.00116631
0.00116436
0.00116189
0.00115889
0.00115533
0.00115121
0.0011465
0.00114121
0.00113533
0.00112888
0.00112185
0.00111428
0.00110619
0.0010976
0.00108856
0.0010791
0.00106928
0.00105913
0.00104871
0.00103807
0.00102727
0.00101636
0.0010054
0.000994426
0.000983506
0.000972686
0.000962015
0.000951541
0.000941305
0.000931349
0.000921709
0.000912417
0.000903501
0.000894984
0.000886883
0.000879213
0.000871981
0.000865191
0.000858843
0.000852933
0.000847452
0.000842388
0.000837729
0.000833457
0.000829555
0.000826004
0.000822784
0.000819874
0.000817254
0.000814903
0.000812801
0.000810929
0.000809267
0.000807799
0.000806507
0.000805376
0.000804393
0.000803543
0.000802815
0.0008022
0.000801688
0.000801272
0.000800946
0.000800705
0.000800548
0.000800471
0.000800478
0.000800569
0.000800749
0.000801026
0.00080141
0.000801911
0.000802547
0.000803338
0.000804306
0.000805482
0.000806902
0.000808606
0.000810647
0.000813086
0.000815995
0.000819463
0.000823595
0.000828518
0.000834386
0.000841387
0.000849751
0.000859763
0.000871778
0.000886248
0.000903748
0.000925026
0.000951068
0.000983191
0.00102318
0.00107349
0.00113746
0.00121961
0.00132529
0.00145957
0.00162062
0.00179515
0.00194188
0.0020112
0.00199986
0.00174742
0.00067893
0.000670789
0.000660885
0.000648345
0.000631637
0.000607951
0.000572652
0.000520526
0.000451227
0.000375385
0.000310463
0.000268478
0.000251685
0.000257235
0.000281521
0.00032143
0.000374105
0.000436512
0.000505233
0.000576527
0.000646564
0.000711691
0.000768622
0.000814503
0.000847634
0.000867091
0.000871827
0.000861559
0.00083677
0.000798832
0.000750158
0.000694273
0.000635671
0.000579395
0.0005304
0.000492921
0.000470077
0.000463783
0.000474801
0.000502691
0.000545626
0.000600263
0.000662038
0.000725924
0.000787376
0.000843003
0.00089077
0.00092981
0.000960076
0.000982001
0.000996249
0.00100357
0.00100472
0.00100048
0.000991664
0.00097919
0.000964079
0.00094748
0.000930622
0.000914735
0.000900954
0.000890233
0.000883276
0.000880514
0.000882098
0.000887921
0.000897653
0.000910778
0.000926647
0.000944531
0.000963665
0.000983248
0.00100208
0.00102016
0.00103722
0.00105302
0.00106743
0.00108038
0.00109188
0.00110198
0.00111078
0.00111838
0.00112489
0.00113043
0.0011351
0.001139
0.0011422
0.00114479
0.00114679
0.00114827
0.00114923
0.0011497
0.00114968
0.00114918
0.00114817
0.00114666
0.00114462
0.00114204
0.00113891
0.00113522
0.00113094
0.00112609
0.00112067
0.00111467
0.00110811
0.00110101
0.00109339
0.00108529
0.00107674
0.00106779
0.00105847
0.00104883
0.00103893
0.00102881
0.00101852
0.00100812
0.000997659
0.000987189
0.00097676
0.00096642
0.000956217
0.000946195
0.000936395