/*--------------------------------*- C++ -*----------------------------------*\
| =========                 |                                                 |
| \\      /  F ield         | OpenFOAM: The Open Source CFD Toolbox           |
|  \\    /   O peration     | Version:  2.4.0                                 |
|   \\  /    A nd           | Web:      www.OpenFOAM.org                      |
|    \\/     M anipulation  |                                                 |
\*---------------------------------------------------------------------------*/
FoamFile
{
    version     2.0;
    format      ascii;
    class       surfaceScalarField;
    location    "0.108";
    object      phi;
}
// * * * * * * * * * * * * * * * * * * * * * * * * * * * * * * * * * * * * * //

dimensions      [0 3 -1 0 0 0 0];

internalField   nonuniform List<scalar> 
34880
(
5.48768e-06
7.01232e-06
3.12546e-06
2.36222e-06
2.47352e-06
6.51941e-07
2.21784e-06
2.5568e-07
2.07567e-06
1.42177e-07
1.96836e-06
1.07306e-07
1.89075e-06
7.76108e-08
1.81491e-06
7.58447e-08
1.78301e-06
3.18983e-08
1.73645e-06
4.65566e-08
1.70301e-06
3.34445e-08
1.70164e-06
1.36259e-09
1.66278e-06
3.88683e-08
1.63838e-06
2.43915e-08
1.68133e-06
-4.29425e-08
1.6316e-06
4.97221e-08
1.67495e-06
-4.33478e-08
1.64878e-06
2.61718e-08
1.84876e-06
-1.99975e-07
6.56687e-08
1.78309e-06
1.011e-05
9.40234e-06
7.83196e-06
4.64024e-06
6.71193e-06
1.77197e-06
6.06303e-06
9.04582e-07
5.64573e-06
5.59477e-07
5.35299e-06
4.00037e-07
5.12472e-06
3.05885e-07
4.94226e-06
2.58305e-07
4.8189e-06
1.55255e-07
4.69906e-06
1.66404e-07
4.6191e-06
1.13399e-07
4.56377e-06
5.66958e-08
4.4865e-06
1.16137e-07
4.44223e-06
6.86572e-08
4.46268e-06
-6.33932e-08
4.38925e-06
1.23155e-07
4.47388e-06
-1.27976e-07
4.40579e-06
9.42589e-08
4.83956e-06
-6.33743e-07
6.40548e-07
4.26468e-06
1.24235e-05
9.4788e-06
1.10068e-05
6.05702e-06
9.98296e-06
2.79576e-06
9.20282e-06
1.68472e-06
8.61759e-06
1.1447e-06
8.1978e-06
8.19833e-07
7.85453e-06
6.49154e-07
7.59834e-06
5.14493e-07
7.39418e-06
3.59412e-07
7.21807e-06
3.42514e-07
7.10039e-06
2.31082e-07
6.9892e-06
1.67887e-07
6.88757e-06
2.17768e-07
6.82394e-06
1.32281e-07
6.80361e-06
-4.30599e-08
6.7234e-06
2.03362e-07
6.81583e-06
-2.20408e-07
6.73675e-06
1.7334e-07
7.1547e-06
-1.0517e-06
7.34383e-07
7.06087e-06
1.3409e-05
8.56981e-06
1.28917e-05
6.5743e-06
1.23291e-05
3.35839e-06
1.17186e-05
2.29522e-06
1.11295e-05
1.73378e-06
1.06719e-05
1.27741e-06
1.02653e-05
1.05578e-06
9.96777e-06
8.12031e-07
9.71252e-06
6.14657e-07
9.48667e-06
5.68371e-07
9.35158e-06
3.66173e-07
9.1904e-06
3.29063e-07
9.06534e-06
3.42831e-07
8.99359e-06
2.0403e-07
8.93179e-06
1.87396e-08
8.83875e-06
2.96398e-07
8.91873e-06
-3.00389e-07
8.87374e-06
2.18337e-07
9.15637e-06
-1.33433e-06
8.03826e-07
9.08693e-06
1.35856e-05
7.48421e-06
1.36621e-05
6.4978e-06
1.36263e-05
3.39417e-06
1.34064e-05
2.51519e-06
1.30095e-05
2.13061e-06
1.26456e-05
1.64136e-06
1.22591e-05
1.44229e-06
1.19715e-05
1.09963e-06
1.17186e-05
8.67525e-07
1.14582e-05
8.288e-07
1.13336e-05
4.90715e-07
1.11435e-05
5.19217e-07
1.09953e-05
4.90961e-07
1.09316e-05
2.67793e-07
1.08437e-05
1.0666e-07
1.07265e-05
4.13532e-07
1.07885e-05
-3.62399e-07
1.07779e-05
2.29019e-07
1.09786e-05
-1.53504e-06
1.0429e-06
1.07395e-05
1.34747e-05
6.50954e-06
1.37533e-05
6.21919e-06
1.39991e-05
3.14834e-06
1.41537e-05
2.36057e-06
1.40667e-05
2.21763e-06
1.3928e-05
1.78008e-06
1.36776e-05
1.69271e-06
1.34717e-05
1.30551e-06
1.33018e-05
1.03746e-06
1.30412e-05
1.08931e-06
1.29613e-05
5.70646e-07
1.2782e-05
6.98515e-07
1.26176e-05
6.55381e-07
1.25763e-05
3.09042e-07
1.24969e-05
1.86138e-07
1.23471e-05
5.63304e-07
1.24016e-05
-4.16933e-07
1.24088e-05
2.21858e-07
1.25268e-05
-1.65303e-06
9.87442e-07
1.25822e-05
1.33519e-05
5.65767e-06
1.36882e-05
5.88286e-06
1.39283e-05
2.90821e-06
1.42355e-05
2.05342e-06
1.43632e-05
2.08994e-06
1.44395e-05
1.7037e-06
1.43909e-05
1.74138e-06
1.4315e-05
1.38137e-06
1.43173e-05
1.03517e-06
1.41118e-05
1.29488e-06
1.41161e-05
5.66324e-07
1.40098e-05
8.04826e-07
1.38531e-05
8.1205e-07
1.38456e-05
3.16559e-07
1.38198e-05
2.11872e-07
1.36493e-05
7.33829e-07
1.37018e-05
-4.69392e-07
1.37453e-05
1.78306e-07
1.37442e-05
-1.65187e-06
1.44589e-06
1.32857e-05
1.32562e-05
4.90145e-06
1.36953e-05
5.44373e-06
1.37979e-05
2.80561e-06
1.4112e-05
1.73935e-06
1.42993e-05
1.90266e-06
1.44555e-05
1.54746e-06
1.45472e-05
1.64976e-06
1.45364e-05
1.39217e-06
1.47163e-05
8.55241e-07
1.45923e-05
1.41889e-06
1.46847e-05
4.73919e-07
1.4712e-05
7.77521e-07
1.46053e-05
9.18778e-07
1.46445e-05
2.7729e-07
1.47104e-05
1.45954e-07
1.45697e-05
8.74582e-07
1.46115e-05
-5.11239e-07
1.47016e-05
8.82672e-08
1.46593e-05
-1.60961e-06
2.0379e-06
1.40673e-05
1.31691e-05
4.23238e-06
1.36564e-05
4.95639e-06
1.37242e-05
2.73779e-06
1.3998e-05
1.46557e-06
1.419e-05
1.71064e-06
1.43392e-05
1.39832e-06
1.44968e-05
1.49216e-06
1.44775e-05
1.41148e-06
1.47361e-05
5.96584e-07
1.46591e-05
1.49594e-06
1.47751e-05
3.579e-07
1.49119e-05
6.407e-07
1.48615e-05
9.69208e-07
1.49455e-05
1.93215e-07
1.5098e-05
-6.47791e-09
1.50443e-05
9.2821e-07
1.50821e-05
-5.48961e-07
1.52011e-05
-3.07133e-08
1.52473e-05
-1.65587e-06
8.71421e-07
1.64138e-05
1.30955e-05
3.63688e-06
1.35756e-05
4.47633e-06
1.36994e-05
2.61392e-06
1.39205e-05
1.24455e-06
1.41201e-05
1.51102e-06
1.4258e-05
1.26043e-06
1.43871e-05
1.36305e-06
1.44183e-05
1.38026e-06
1.46613e-05
3.53572e-07
1.46001e-05
1.55719e-06
1.47205e-05
2.37478e-07
1.48619e-05
4.99268e-07
1.48308e-05
1.00028e-06
1.49462e-05
7.78554e-08
1.51189e-05
-1.79135e-07
1.51506e-05
8.96472e-07
1.51964e-05
-5.9473e-07
1.53437e-05
-1.78074e-07
1.54687e-05
-1.78086e-06
-4.98657e-07
1.68388e-05
1.30373e-05
3.09957e-06
1.34741e-05
4.03949e-06
1.36915e-05
2.39653e-06
1.38262e-05
1.10987e-06
1.4063e-05
1.27426e-06
1.42324e-05
1.09097e-06
1.42518e-05
1.34368e-06
1.43976e-05
1.2345e-06
1.45657e-05
1.85478e-07
1.45471e-05
1.57575e-06
1.47048e-05
7.98217e-08
1.47572e-05
4.46781e-07
1.47472e-05
1.01031e-06
1.4903e-05
-7.79707e-08
1.49979e-05
-2.73955e-07
1.50924e-05
8.01913e-07
1.51637e-05
-6.66017e-07
1.53594e-05
-3.73747e-07
1.54974e-05
-1.91885e-06
-1.42541e-06
1.64241e-05
1.2975e-05
2.62457e-06
1.34022e-05
3.61231e-06
1.36493e-05
2.14936e-06
1.3717e-05
1.04222e-06
1.40297e-05
9.61544e-07
1.41784e-05
9.42298e-07
1.41704e-05
1.35164e-06
1.43733e-05
1.03166e-06
1.44483e-05
1.10455e-07
1.45211e-05
1.50289e-06
1.46862e-05
-8.52089e-08
1.46676e-05
4.65335e-07
1.47072e-05
9.70718e-07
1.48671e-05
-2.37833e-07
1.48476e-05
-2.54479e-07
1.50068e-05
6.42691e-07
1.5119e-05
-7.78202e-07
1.535e-05
-6.04727e-07
1.54024e-05
-1.97131e-06
-1.82381e-06
1.58008e-05
1.29149e-05
2.20963e-06
1.3355e-05
3.17228e-06
1.35929e-05
1.91143e-06
1.36753e-05
9.59841e-07
1.40052e-05
6.31639e-07
1.40638e-05
8.83713e-07
1.41715e-05
1.24395e-06
1.43277e-05
8.75409e-07
1.43276e-05
1.10542e-07
1.45358e-05
1.2947e-06
1.45996e-05
-1.48996e-07
1.46064e-05
4.58557e-07
1.47226e-05
8.54475e-07
1.47872e-05
-3.02416e-07
1.47382e-05
-2.05476e-07
1.49768e-05
4.04132e-07
1.50861e-05
-8.87532e-07
1.52397e-05
-7.58362e-07
1.52614e-05
-1.99297e-06
-2.31113e-06
1.57487e-05
1.28683e-05
1.84136e-06
1.33177e-05
2.72287e-06
1.35842e-05
1.64495e-06
1.37018e-05
8.42148e-07
1.39197e-05
4.1381e-07
1.39729e-05
8.30451e-07
1.41876e-05
1.02929e-06
1.4247e-05
8.15965e-07
1.42843e-05
7.33337e-08
1.45418e-05
1.03715e-06
1.44695e-05
-7.66589e-08
1.45921e-05
3.35889e-07
1.47214e-05
7.25205e-07
1.46926e-05
-2.73599e-07
1.47239e-05
-2.36746e-07
1.49741e-05
1.53871e-07
1.50263e-05
-9.39738e-07
1.51408e-05
-8.72812e-07
1.52309e-05
-2.08312e-06
-2.94997e-06
1.58698e-05
1.28461e-05
1.49527e-06
1.3301e-05
2.26799e-06
1.35799e-05
1.36602e-06
1.37083e-05
7.13731e-07
1.38061e-05
3.16003e-07
1.39647e-05
6.71923e-07
1.41585e-05
8.35477e-07
1.41769e-05
7.97525e-07
1.43137e-05
-6.34883e-08
1.44748e-05
8.76052e-07
1.43987e-05
-5.54104e-10
1.4608e-05
1.26586e-07
1.46652e-05
6.68076e-07
1.46594e-05
-2.678e-07
1.47612e-05
-3.38545e-07
1.49391e-05
-2.40838e-08
1.49577e-05
-9.58283e-07
1.51339e-05
-1.04906e-06
1.52646e-05
-2.21378e-06
-3.37146e-06
1.56861e-05
1.28368e-05
1.15842e-06
1.32811e-05
1.82371e-06
1.35579e-05
1.08929e-06
1.3672e-05
5.99612e-07
1.37655e-05
2.22456e-07
1.39763e-05
4.61161e-07
1.40827e-05
7.29034e-07
1.41687e-05
7.11601e-07
1.43161e-05
-2.10943e-07
1.43817e-05
8.10424e-07
1.44098e-05
-2.86078e-08
1.45992e-05
-6.28041e-08
1.45896e-05
6.77699e-07
1.46704e-05
-3.48628e-07
1.47729e-05
-4.41026e-07
1.48687e-05
-1.19964e-07
1.4921e-05
-1.0105e-06
1.51506e-05
-1.27874e-06
1.52392e-05
-2.30234e-06
-3.5496e-06
1.54173e-05
1.2808e-05
8.50438e-07
1.32405e-05
1.39123e-06
1.35341e-05
7.95676e-07
1.36501e-05
4.83622e-07
1.37846e-05
8.79008e-08
1.39201e-05
3.2563e-07
1.40201e-05
6.29036e-07
1.42065e-05
5.25225e-07
1.42529e-05
-2.57296e-07
1.43488e-05
7.14448e-07
1.4434e-05
-1.13777e-07
1.45276e-05
-1.5642e-07
1.45408e-05
6.64496e-07
1.46819e-05
-4.89661e-07
1.47382e-05
-4.97384e-07
1.48016e-05
-1.83292e-07
1.4923e-05
-1.13191e-06
1.51184e-05
-1.47415e-06
1.51642e-05
-2.34816e-06
-3.6664e-06
1.5281e-05
1.27744e-05
5.76088e-07
1.32198e-05
9.45788e-07
1.35226e-05
4.92916e-07
1.36524e-05
3.53774e-07
1.37715e-05
-3.1187e-08
1.38389e-05
2.58176e-07
1.40327e-05
4.35326e-07
1.42195e-05
3.38412e-07
1.41788e-05
-2.16671e-07
1.43672e-05
5.26045e-07
1.44134e-05
-1.59975e-07
1.444e-05
-1.82975e-07
1.45483e-05
5.56221e-07
1.46775e-05
-6.18898e-07
1.46809e-05
-5.0082e-07
1.47791e-05
-2.81438e-07
1.49088e-05
-1.26158e-06
1.50487e-05
-1.61408e-06
1.51523e-05
-2.45176e-06
-3.90414e-06
1.539e-05
1.27656e-05
3.1045e-07
1.32177e-05
4.93698e-07
1.35006e-05
2.10013e-07
1.3661e-05
1.93456e-07
1.37287e-05
-9.89342e-08
1.38292e-05
1.57626e-07
1.4075e-05
1.89594e-07
1.41647e-05
2.48722e-07
1.41646e-05
-2.16632e-07
1.43793e-05
3.11351e-07
1.4374e-05
-1.54633e-07
1.4418e-05
-2.27005e-07
1.45786e-05
3.95623e-07
1.4639e-05
-6.79316e-07
1.46517e-05
-5.13513e-07
1.47829e-05
-4.1262e-07
1.48741e-05
-1.35278e-06
1.50149e-05
-1.75489e-06
1.5175e-05
-2.61184e-06
-4.12494e-06
1.53958e-05
1.27633e-05
4.71773e-08
1.31972e-05
5.98086e-08
1.34909e-05
-8.37658e-08
1.36769e-05
7.53603e-09
1.37062e-05
-1.28303e-07
1.38675e-05
-3.6236e-09
1.40627e-05
-5.59372e-09
1.41076e-05
2.03807e-07
1.42014e-05
-3.10433e-07
1.43808e-05
1.3191e-07
1.43459e-05
-1.19756e-07
1.44463e-05
-3.27313e-07
1.45735e-05
2.68338e-07
1.46032e-05
-7.09001e-07
1.46536e-05
-5.6388e-07
1.47872e-05
-5.46197e-07
1.48663e-05
-1.43192e-06
1.50068e-05
-1.89543e-06
1.5143e-05
-2.74795e-06
-4.41501e-06
1.5433e-05
1.27479e-05
-2.00678e-07
1.3183e-05
-3.75344e-07
1.35219e-05
-4.22689e-07
1.36756e-05
-1.46083e-07
1.37093e-05
-1.62048e-07
1.3888e-05
-1.82314e-07
1.40136e-05
-1.31233e-07
1.41102e-05
1.07243e-07
1.42404e-05
-4.40634e-07
1.43644e-05
7.89058e-09
1.43388e-05
-9.41354e-08
1.44547e-05
-4.43175e-07
1.45697e-05
1.53275e-07
1.45865e-05
-7.25812e-07
1.46773e-05
-6.54668e-07
1.47868e-05
-6.55661e-07
1.48781e-05
-1.52322e-06
1.49655e-05
-1.98286e-06
1.508e-05
-2.86246e-06
-4.86116e-06
1.55262e-05
1.27388e-05
-4.39525e-07
1.32137e-05
-8.50196e-07
1.35549e-05
-7.63932e-07
1.36466e-05
-2.37772e-07
1.37278e-05
-2.43218e-07
1.38874e-05
-3.41883e-07
1.39886e-05
-2.32511e-07
1.41443e-05
-4.84244e-08
1.42582e-05
-5.54478e-07
1.43302e-05
-6.41782e-08
1.43568e-05
-1.20755e-07
1.44635e-05
-5.49859e-07
1.45785e-05
3.83313e-08
1.4587e-05
-7.34324e-07
1.46949e-05
-7.62603e-07
1.47765e-05
-7.37224e-07
1.48713e-05
-1.61803e-06
1.49395e-05
-2.05109e-06
1.49936e-05
-2.91649e-06
-3.82806e-06
1.39604e-05
1.27581e-05
-6.97652e-07
1.32645e-05
-1.35657e-06
1.35442e-05
-1.04365e-06
1.36274e-05
-3.20972e-07
1.37547e-05
-3.70525e-07
1.38842e-05
-4.7138e-07
1.40009e-05
-3.49223e-07
1.41829e-05
-2.30367e-07
1.4252e-05
-6.23575e-07
1.43262e-05
-1.38358e-07
1.43832e-05
-1.77749e-07
1.44902e-05
-6.56884e-07
1.45635e-05
-3.49626e-08
1.46147e-05
-7.85528e-07
1.46898e-05
-8.37748e-07
1.47938e-05
-8.41227e-07
1.48579e-05
-1.68207e-06
1.49579e-05
-2.15109e-06
1.51032e-05
-3.06182e-06
-4.22263e-06
1.54978e-05
1.27967e-05
-9.94323e-07
1.32884e-05
-1.8483e-06
1.35115e-05
-1.26678e-06
1.36427e-05
-4.52193e-07
1.37872e-05
-5.14965e-07
1.38871e-05
-5.71295e-07
1.40413e-05
-5.0347e-07
1.42111e-05
-4.00071e-07
1.4252e-05
-6.64534e-07
1.43468e-05
-2.33096e-07
1.44202e-05
-2.51225e-07
1.44891e-05
-7.25759e-07
1.45724e-05
-1.18281e-07
1.46341e-05
-8.47257e-07
1.47081e-05
-9.11721e-07
1.48094e-05
-9.4254e-07
1.48596e-05
-1.73222e-06
1.49866e-05
-2.27811e-06
1.51156e-05
-3.19084e-06
-4.46617e-06
1.53592e-05
1.28305e-05
-1.3248e-06
1.32761e-05
-2.29396e-06
1.35173e-05
-1.50789e-06
1.36931e-05
-6.28025e-07
1.38076e-05
-6.29501e-07
1.39093e-05
-6.72995e-07
1.40903e-05
-6.84478e-07
1.42238e-05
-5.33583e-07
1.42658e-05
-7.06527e-07
1.43771e-05
-3.44368e-07
1.44415e-05
-3.15619e-07
1.45012e-05
-7.85418e-07
1.46002e-05
-2.17338e-07
1.46651e-05
-9.12107e-07
1.47352e-05
-9.81824e-07
1.482e-05
-1.02741e-06
1.48746e-05
-1.78675e-06
1.50139e-05
-2.41742e-06
1.51115e-05
-3.28851e-06
-4.59368e-06
1.5239e-05
1.28463e-05
-1.67107e-06
1.32897e-05
-2.73739e-06
1.35772e-05
-1.79538e-06
1.37287e-05
-7.79509e-07
1.38195e-05
-7.20304e-07
1.39527e-05
-8.06178e-07
1.41266e-05
-8.58467e-07
1.4238e-05
-6.44928e-07
1.42937e-05
-7.62252e-07
1.44072e-05
-4.57861e-07
1.44675e-05
-3.75891e-07
1.45418e-05
-8.59753e-07
1.46303e-05
-3.05856e-07
1.47048e-05
-9.86561e-07
1.47557e-05
-1.03275e-06
1.48367e-05
-1.10839e-06
1.49027e-05
-1.85272e-06
1.50471e-05
-2.56189e-06
1.51024e-05
-3.34381e-06
-4.673e-06
1.51818e-05
1.28717e-05
-2.04274e-06
1.33553e-05
-3.221e-06
1.36219e-05
-2.06198e-06
1.37303e-05
-8.87938e-07
1.38511e-05
-8.41057e-07
1.40059e-05
-9.60989e-07
1.41625e-05
-1.01508e-06
1.4264e-05
-7.46436e-07
1.43323e-05
-8.30611e-07
1.44447e-05
-5.70223e-07
1.45143e-05
-4.45459e-07
1.45851e-05
-9.30569e-07
1.46684e-05
-3.89209e-07
1.47426e-05
-1.06073e-06
1.47848e-05
-1.07494e-06
1.48678e-05
-1.19134e-06
1.49428e-05
-1.92778e-06
1.50661e-05
-2.68519e-06
1.5104e-05
-3.38171e-06
-4.83345e-06
1.52645e-05
1.29261e-05
-2.46879e-06
1.34197e-05
-3.71462e-06
1.35916e-05
-2.23393e-06
1.37459e-05
-1.04219e-06
1.39125e-05
-1.00765e-06
1.40647e-05
-1.11318e-06
1.4207e-05
-1.15742e-06
1.42995e-05
-8.38904e-07
1.43789e-05
-9.10052e-07
1.44923e-05
-6.83559e-07
1.45667e-05
-5.19925e-07
1.46296e-05
-9.9342e-07
1.47136e-05
-4.73185e-07
1.479e-05
-1.13713e-06
1.48248e-05
-1.10973e-06
1.49091e-05
-1.27568e-06
1.49765e-05
-1.99515e-06
1.50786e-05
-2.78737e-06
1.51438e-05
-3.44684e-06
-5.09555e-06
1.54059e-05
1.29879e-05
-2.95671e-06
1.34609e-05
-4.18759e-06
1.35916e-05
-2.36469e-06
1.37983e-05
-1.24882e-06
1.39837e-05
-1.19308e-06
1.41225e-05
-1.25199e-06
1.42552e-05
-1.29008e-06
1.43381e-05
-9.21836e-07
1.44288e-05
-1.00073e-06
1.45425e-05
-7.97316e-07
1.46238e-05
-6.01215e-07
1.46784e-05
-1.04795e-06
1.47763e-05
-5.71124e-07
1.4839e-05
-1.19987e-06
1.4869e-05
-1.13969e-06
1.49553e-05
-1.362e-06
1.50035e-05
-2.04329e-06
1.51022e-05
-2.88609e-06
1.51998e-05
-3.54448e-06
-5.33986e-06
1.54441e-05
1.30477e-05
-3.50444e-06
1.35148e-05
-4.65465e-06
1.36432e-05
-2.49306e-06
1.38615e-05
-1.46719e-06
1.40474e-05
-1.37897e-06
1.41766e-05
-1.38114e-06
1.43038e-05
-1.41733e-06
1.43828e-05
-1.00077e-06
1.44874e-05
-1.1054e-06
1.46007e-05
-9.10604e-07
1.46885e-05
-6.89033e-07
1.4739e-05
-1.09845e-06
1.48433e-05
-6.75389e-07
1.48819e-05
-1.23851e-06
1.49239e-05
-1.18169e-06
1.49985e-05
-1.43656e-06
1.50374e-05
-2.0822e-06
1.51194e-05
-2.96809e-06
1.5189e-05
-3.6141e-06
-5.51802e-06
1.53672e-05
1.31171e-05
-4.12151e-06
1.35848e-05
-5.12235e-06
1.37015e-05
-2.60978e-06
1.39207e-05
-1.68642e-06
1.4104e-05
-1.56222e-06
1.42401e-05
-1.51726e-06
1.43629e-05
-1.54019e-06
1.4449e-05
-1.08681e-06
1.45653e-05
-1.2217e-06
1.46698e-05
-1.0151e-06
1.47576e-05
-7.76907e-07
1.47997e-05
-1.14047e-06
1.49017e-05
-7.77445e-07
1.49233e-05
-1.26013e-06
1.49698e-05
-1.22819e-06
1.50159e-05
-1.48263e-06
1.50302e-05
-2.09648e-06
1.50232e-05
-2.96106e-06
1.49856e-05
-3.57655e-06
-5.60455e-06
1.50721e-05
1.31972e-05
-4.81873e-06
1.36498e-05
-5.57497e-06
1.37592e-05
-2.71918e-06
1.39818e-05
-1.90898e-06
1.41782e-05
-1.75864e-06
1.43335e-05
-1.67251e-06
1.44423e-05
-1.64906e-06
1.45418e-05
-1.18625e-06
1.46466e-05
-1.3265e-06
1.47261e-05
-1.0946e-06
1.48009e-05
-8.51716e-07
1.48201e-05
-1.15973e-06
1.48968e-05
-8.54118e-07
1.48775e-05
-1.24085e-06
1.48837e-05
-1.23435e-06
1.48619e-05
-1.46084e-06
1.47859e-05
-2.02043e-06
1.4627e-05
-2.80217e-06
1.44299e-05
-3.37945e-06
-5.50793e-06
1.43333e-05
1.32848e-05
-5.6035e-06
1.36957e-05
-5.98591e-06
1.38283e-05
-2.85177e-06
1.40737e-05
-2.15441e-06
1.42943e-05
-1.97915e-06
1.444e-05
-1.81823e-06
1.45088e-05
-1.71788e-06
1.45942e-05
-1.27167e-06
1.46309e-05
-1.36316e-06
1.46461e-05
-1.1098e-06
1.46641e-05
-8.69769e-07
1.46091e-05
-1.10471e-06
1.46035e-05
-8.48473e-07
1.45044e-05
-1.14182e-06
1.44208e-05
-1.15066e-06
1.43003e-05
-1.34038e-06
1.41087e-05
-1.82885e-06
1.3812e-05
-2.50545e-06
1.34438e-05
-3.01125e-06
-4.40408e-06
1.23399e-05
1.33777e-05
-6.48118e-06
1.36844e-05
-6.29263e-06
1.39372e-05
-3.10461e-06
1.41971e-05
-2.41426e-06
1.43681e-05
-2.15021e-06
1.44173e-05
-1.86745e-06
1.4372e-05
-1.67254e-06
1.43494e-05
-1.24911e-06
1.4245e-05
-1.25876e-06
1.41437e-05
-1.00842e-06
1.40577e-05
-7.83818e-07
1.39046e-05
-9.51612e-07
1.38049e-05
-7.48781e-07
1.36331e-05
-9.70031e-07
1.34697e-05
-9.87248e-07
1.3276e-05
-1.14664e-06
1.30025e-05
-1.55532e-06
1.262e-05
-2.12296e-06
1.21726e-05
-2.56391e-06
-3.94065e-06
1.17092e-05
1.34909e-05
-7.47211e-06
1.37412e-05
-6.54289e-06
1.40011e-05
-3.36448e-06
1.41284e-05
-2.54161e-06
1.40744e-05
-2.09619e-06
1.39053e-05
-1.69834e-06
1.36703e-05
-1.4376e-06
1.34846e-05
-1.06333e-06
1.32445e-05
-1.01868e-06
1.30473e-05
-8.11279e-07
1.28846e-05
-6.21083e-07
1.26758e-05
-7.42769e-07
1.2523e-05
-5.9604e-07
1.23149e-05
-7.61888e-07
1.21107e-05
-7.83024e-07
1.18775e-05
-9.13524e-07
1.1561e-05
-1.23878e-06
1.11345e-05
-1.69645e-06
1.06157e-05
-2.04515e-06
-3.0092e-06
9.68427e-06
1.35939e-05
-8.566e-06
1.36502e-05
-6.59925e-06
1.36268e-05
-3.34099e-06
1.33911e-05
-2.3059e-06
1.30155e-05
-1.72064e-06
1.26261e-05
-1.30894e-06
1.22539e-05
-1.06541e-06
1.19699e-05
-7.79344e-07
1.16729e-05
-7.21599e-07
1.14426e-05
-5.80983e-07
1.12535e-05
-4.31995e-07
1.1034e-05
-5.233e-07
1.08651e-05
-4.27171e-07
1.06497e-05
-5.46491e-07
1.04341e-05
-5.67423e-07
1.01872e-05
-6.6659e-07
9.85764e-06
-9.09223e-07
9.41385e-06
-1.25266e-06
8.87653e-06
-1.50782e-06
-2.19456e-06
8.06188e-06
1.3412e-05
-9.47804e-06
1.28822e-05
-6.06944e-06
1.23285e-05
-2.78722e-06
1.171e-05
-1.68746e-06
1.11325e-05
-1.14307e-06
1.06563e-05
-8.32793e-07
1.02582e-05
-6.67267e-07
9.96079e-06
-4.81978e-07
9.67448e-06
-4.35284e-07
9.45514e-06
-3.61644e-07
9.27681e-06
-2.53662e-07
9.07682e-06
-3.23311e-07
8.91628e-06
-2.66637e-07
8.71503e-06
-3.4524e-07
8.51005e-06
-3.62444e-07
8.27207e-06
-4.28608e-07
7.95348e-06
-5.90636e-07
7.52538e-06
-8.24559e-07
6.99917e-06
-9.81614e-07
-1.47942e-06
6.28404e-06
1.24241e-05
-9.40212e-06
1.10002e-05
-4.64555e-06
9.98191e-06
-1.76894e-06
9.19862e-06
-9.0416e-07
8.61777e-06
-5.6223e-07
8.1866e-06
-4.01621e-07
7.84458e-06
-3.25249e-07
7.59274e-06
-2.30137e-07
7.36037e-06
-2.02914e-07
7.17903e-06
-1.80299e-07
7.03759e-06
-1.12221e-07
6.87536e-06
-1.61084e-07
6.74048e-06
-1.31757e-07
6.57078e-06
-1.75542e-07
6.39473e-06
-1.86399e-07
6.18657e-06
-2.2044e-07
5.90493e-06
-3.08998e-07
5.52276e-06
-4.42386e-07
5.05136e-06
-5.10214e-07
-8.35536e-07
4.40747e-06
1.011e-05
-7.01216e-06
7.8281e-06
-2.3636e-06
6.71075e-06
-6.51599e-07
6.0613e-06
-2.54712e-07
5.64396e-06
-1.44888e-07
5.34706e-06
-1.04713e-07
5.11133e-06
-8.95186e-08
4.94172e-06
-6.0534e-08
4.7896e-06
-5.07895e-08
4.66313e-06
-5.38283e-08
4.57558e-06
-2.4676e-08
4.46187e-06
-4.73682e-08
4.36771e-06
-3.76064e-08
4.24499e-06
-5.28164e-08
4.116e-06
-5.74116e-08
3.96128e-06
-6.57181e-08
3.74821e-06
-9.5935e-08
3.45022e-06
-1.44393e-07
3.09586e-06
-1.55851e-07
-3.10196e-07
2.57052e-06
5.48784e-06
3.12423e-06
2.47264e-06
2.21792e-06
2.07304e-06
1.96832e-06
1.8788e-06
1.81827e-06
1.76748e-06
1.71365e-06
1.68898e-06
1.64161e-06
1.604e-06
1.55118e-06
1.49377e-06
1.42805e-06
1.33212e-06
1.18773e-06
1.03188e-06
7.21681e-07
3.1071e-06
7.61631e-07
-2.08564e-06
5.73862e-06
4.83167e-06
-7.4632e-06
7.8503e-06
6.71089e-06
-8.82256e-06
9.15427e-06
5.02725e-06
-6.33122e-06
1.0144e-05
1.94855e-06
-2.93825e-06
1.07115e-05
-7.18633e-07
1.51068e-07
1.06059e-05
-3.20366e-06
3.30933e-06
1.12926e-05
-6.63689e-06
5.95017e-06
1.2451e-05
-9.26245e-06
8.1041e-06
1.29351e-05
-1.35544e-05
1.30703e-05
1.31233e-05
-1.68983e-05
1.67101e-05
1.27719e-05
-1.78744e-05
1.82259e-05
1.19084e-05
-1.84087e-05
1.92722e-05
1.08675e-05
-1.81147e-05
1.91556e-05
1.00018e-05
-1.62182e-05
1.7084e-05
8.7956e-06
-1.45653e-05
1.57714e-05
8.35548e-06
-1.21495e-05
1.25896e-05
8.00568e-06
-8.42484e-06
8.77465e-06
7.03429e-06
-9.81914e-06
1.07905e-05
7.21085e-06
-6.07393e-06
5.89737e-06
7.7598e-06
9.93666e-07
-1.54262e-06
7.44617e-06
1.34706e-06
-1.03344e-06
7.10609e-06
-1.36182e-06
1.70191e-06
8.77045e-06
1.2757e-07
-1.79194e-06
1.08947e-05
5.93318e-06
-8.05746e-06
1.19814e-05
1.26047e-05
-1.36914e-05
1.20997e-05
1.53509e-05
-1.54691e-05
1.19709e-05
1.58396e-05
-1.57108e-05
1.18954e-05
1.51566e-05
-1.5081e-05
1.1701e-05
1.3205e-05
-1.30106e-05
1.19025e-05
1.1438e-05
-1.16395e-05
1.23754e-05
9.13861e-06
-9.61155e-06
1.2725e-05
7.78197e-06
-8.13149e-06
1.31436e-05
5.27085e-06
-5.68947e-06
1.3502e-05
-1.09563e-07
-2.48892e-07
1.31373e-05
-4.5725e-06
4.93727e-06
1.23624e-05
-5.56297e-06
6.33781e-06
1.24353e-05
-5.64973e-06
5.5769e-06
1.3354e-05
-6.92967e-06
6.01096e-06
1.40689e-05
-9.59284e-06
8.87788e-06
1.44246e-05
-1.23582e-05
1.20025e-05
1.50273e-05
-1.48316e-05
1.4229e-05
1.58241e-05
-1.80175e-05
1.72207e-05
1.63545e-05
-2.04774e-05
1.9947e-05
1.64984e-05
-2.1828e-05
2.16842e-05
1.63089e-05
-2.28294e-05
2.30189e-05
1.58506e-05
-2.29046e-05
2.33629e-05
1.53633e-05
-2.25205e-05
2.30077e-05
1.50312e-05
-2.20946e-05
2.24268e-05
1.48353e-05
-2.16422e-05
2.18381e-05
1.47114e-05
-2.09028e-05
2.10267e-05
1.46457e-05
-1.9923e-05
1.99887e-05
1.45453e-05
-1.88598e-05
1.89602e-05
1.42454e-05
-1.74309e-05
1.77308e-05
1.37856e-05
-1.52622e-05
1.57219e-05
1.33614e-05
-1.36675e-05
1.40917e-05
1.29944e-05
-1.27989e-05
1.31659e-05
1.25662e-05
-1.21642e-05
1.25925e-05
1.19747e-05
-1.11837e-05
1.17751e-05
1.13527e-05
-1.00381e-05
1.06601e-05
1.10587e-05
-9.42679e-06
9.72082e-06
1.13965e-05
-1.00634e-05
9.72552e-06
1.22431e-05
-1.13041e-05
1.04576e-05
1.31868e-05
-1.27226e-05
1.17788e-05
1.37067e-05
-1.32789e-05
1.27591e-05
1.3774e-05
-1.23836e-05
1.23163e-05
1.36963e-05
-1.08995e-05
1.09771e-05
1.35825e-05
-9.35931e-06
9.47315e-06
1.35142e-05
-7.41753e-06
7.4858e-06
1.35853e-05
-5.26706e-06
5.19599e-06
1.37229e-05
-3.72306e-06
3.5854e-06
1.38441e-05
-2.04749e-06
1.92637e-06
1.39077e-05
1.97377e-07
-2.61049e-07
1.37837e-05
2.4502e-06
-2.3262e-06
1.34483e-05
4.72187e-06
-4.38639e-06
1.30454e-05
7.48286e-06
-7.07997e-06
1.26404e-05
1.03567e-05
-9.95171e-06
1.2227e-05
1.2838e-05
-1.24247e-05
1.17866e-05
1.53815e-05
-1.4941e-05
1.1326e-05
1.80672e-05
-1.76067e-05
1.08774e-05
2.06109e-05
-2.01624e-05
1.04865e-05
2.30303e-05
-2.26394e-05
1.01403e-05
2.41893e-05
-2.38431e-05
9.81712e-06
2.35716e-05
-2.32484e-05
9.61686e-06
2.26768e-05
-2.24765e-05
9.49968e-06
2.2065e-05
-2.19478e-05
9.40304e-06
2.12055e-05
-2.11088e-05
9.31542e-06
2.0036e-05
-1.99483e-05
9.21081e-06
1.89432e-05
-1.88386e-05
9.15466e-06
1.7911e-05
-1.78548e-05
9.12635e-06
1.70832e-05
-1.70549e-05
9.10453e-06
1.6601e-05
-1.65792e-05
9.11502e-06
1.61708e-05
-1.61813e-05
9.25995e-06
1.59592e-05
-1.61041e-05
9.63176e-06
1.63335e-05
-1.67053e-05
1.02139e-05
1.71998e-05
-1.7782e-05
1.08028e-05
1.79465e-05
-1.85354e-05
1.12664e-05
1.78219e-05
-1.82855e-05
1.15932e-05
1.68023e-05
-1.71291e-05
1.17744e-05
1.53034e-05
-1.54845e-05
1.19308e-05
1.32084e-05
-1.33649e-05
1.20917e-05
1.11036e-05
-1.12645e-05
1.22858e-05
8.3669e-06
-8.56096e-06
1.24872e-05
5.63503e-06
-5.83642e-06
1.24925e-05
3.13298e-06
-3.13829e-06
1.23162e-05
4.50125e-07
-2.73857e-07
1.21321e-05
-2.43906e-06
2.6232e-06
1.19647e-05
-4.37007e-06
4.53747e-06
1.1895e-05
-5.09982e-06
5.16952e-06
1.15784e-05
-5.39261e-06
5.70912e-06
1.10584e-05
-6.61303e-06
7.13308e-06
1.04696e-05
-7.1288e-06
7.7176e-06
1.00754e-05
-6.65563e-06
7.04982e-06
9.75761e-06
-5.77361e-06
6.0914e-06
9.44702e-06
-6.44229e-06
6.75289e-06
9.10905e-06
-8.06962e-06
8.40759e-06
8.90791e-06
-9.75722e-06
9.95835e-06
8.95428e-06
-1.00972e-05
1.00509e-05
8.9203e-06
-9.09094e-06
9.12491e-06
8.6571e-06
-7.89072e-06
8.15392e-06
8.23628e-06
-7.8849e-06
8.30572e-06
7.99225e-06
-8.00804e-06
8.25207e-06
7.70893e-06
-8.45931e-06
8.74263e-06
7.71361e-06
-7.89493e-06
7.89025e-06
7.42038e-06
-8.56384e-06
8.85707e-06
7.37705e-06
-8.41735e-06
8.46068e-06
7.16021e-06
-1.04069e-05
1.06237e-05
7.02938e-06
-1.0555e-05
1.06858e-05
6.68472e-06
-1.54981e-05
1.58428e-05
6.54605e-06
-1.57408e-05
1.58794e-05
7.16445e-06
-1.83877e-05
1.77693e-05
7.23384e-06
-1.92374e-05
1.9168e-05
7.35055e-06
-2.06709e-05
2.05542e-05
7.742e-06
-2.10882e-05
2.06967e-05
8.21603e-06
-2.19254e-05
2.14514e-05
8.58202e-06
-2.27328e-05
2.23668e-05
9.15704e-06
-2.21815e-05
2.16065e-05
9.90501e-06
-1.88425e-05
1.80946e-05
1.04319e-05
-1.50922e-05
1.45653e-05
1.07733e-05
-1.13729e-05
1.10315e-05
1.12081e-05
-6.0471e-06
5.61233e-06
1.16076e-05
-6.61486e-07
2.61985e-07
1.18944e-05
3.34545e-06
-3.63219e-06
1.22037e-05
7.91578e-06
-8.22508e-06
1.24188e-05
1.33377e-05
-1.35529e-05
1.24001e-05
1.78364e-05
-1.78177e-05
1.22577e-05
2.07357e-05
-2.05932e-05
1.21854e-05
2.32516e-05
-2.31793e-05
1.20578e-05
2.59253e-05
-2.57978e-05
1.17445e-05
2.74491e-05
-2.71357e-05
1.14123e-05
2.71116e-05
-2.67794e-05
1.10776e-05
2.5898e-05
-2.55633e-05
1.08718e-05
2.5297e-05
-2.50912e-05
1.11043e-05
2.55228e-05
-2.57553e-05
1.15422e-05
2.56745e-05
-2.61124e-05
1.17116e-05
2.47872e-05
-2.49566e-05
1.18076e-05
2.27519e-05
-2.28479e-05
1.20146e-05
2.01621e-05
-2.0369e-05
1.21318e-05
1.66129e-05
-1.67301e-05
1.2027e-05
1.21651e-05
-1.20603e-05
1.19673e-05
6.88742e-06
-6.82781e-06
1.1665e-05
2.82026e-06
-2.51794e-06
1.13796e-05
-1.59509e-06
1.88049e-06
1.09602e-05
-5.64414e-06
6.06352e-06
1.05785e-05
-9.31362e-06
9.6954e-06
1.01977e-05
-1.11176e-05
1.14984e-05
9.88889e-06
-1.24653e-05
1.27741e-05
9.57948e-06
-1.37217e-05
1.40311e-05
9.2672e-06
-1.4737e-05
1.50493e-05
8.96828e-06
-1.46086e-05
1.49075e-05
8.73091e-06
-1.30746e-05
1.3312e-05
8.42873e-06
-1.07833e-05
1.10855e-05
8.11161e-06
-8.25279e-06
8.56992e-06
7.89507e-06
-6.14677e-06
6.36331e-06
7.65239e-06
-4.2435e-06
4.48618e-06
7.60703e-06
-2.96281e-06
3.00817e-06
7.43827e-06
-1.65363e-06
1.82239e-06
7.46352e-06
-8.52399e-07
8.27143e-07
7.36042e-06
9.13305e-08
1.17735e-08
7.37924e-06
7.59273e-07
-7.78094e-07
7.3317e-06
1.48942e-06
-1.44189e-06
7.36082e-06
2.11482e-06
-2.14393e-06
7.38509e-06
2.7188e-06
-2.74307e-06
7.36823e-06
3.33368e-06
-3.31683e-06
7.45029e-06
3.83628e-06
-3.91834e-06
7.38859e-06
4.45718e-06
-4.39548e-06
7.50047e-06
4.88243e-06
-4.99431e-06
7.43148e-06
5.57545e-06
-5.50645e-06
7.48402e-06
6.05186e-06
-6.1044e-06
7.47393e-06
6.73448e-06
-6.72438e-06
7.40022e-06
7.36619e-06
-7.29248e-06
7.52492e-06
8.12454e-06
-8.24924e-06
7.3201e-06
9.13012e-06
-8.9253e-06
7.28956e-06
9.92998e-06
-9.89944e-06
7.19016e-06
1.13351e-05
-1.12357e-05
6.93024e-06
1.27061e-05
-1.24462e-05
7.16879e-06
1.42287e-05
-1.44672e-05
6.43248e-06
1.80213e-05
-1.7285e-05
6.3411e-06
2.00607e-05
-1.99693e-05
3.01693e-05
-2.96788e-05
5.85065e-06
4.16712e-06
8.59194e-07
5.56541e-06
3.43338e-06
7.78173e-06
4.49457e-06
9.30109e-06
3.50789e-06
1.00744e-05
1.17524e-06
1.10374e-05
-1.68163e-06
1.17084e-05
-3.87464e-06
1.2596e-05
-7.52455e-06
1.37491e-05
-1.04155e-05
1.40537e-05
-1.3859e-05
1.38446e-05
-1.66893e-05
1.319e-05
-1.72197e-05
1.21806e-05
-1.73993e-05
1.09365e-05
-1.68705e-05
1.01081e-05
-1.53899e-05
8.99459e-06
-1.34518e-05
8.47692e-06
-1.16318e-05
8.42117e-06
-8.3691e-06
7.37742e-06
-8.77538e-06
7.40538e-06
-6.10189e-06
8.34518e-06
5.3874e-08
8.24809e-06
1.44415e-06
7.7622e-06
-8.75934e-07
8.97326e-06
-1.0835e-06
1.09136e-05
3.99287e-06
1.21316e-05
1.13866e-05
1.24885e-05
1.4994e-05
1.24828e-05
1.58453e-05
1.2382e-05
1.52573e-05
1.21969e-05
1.33901e-05
1.24083e-05
1.12266e-05
1.28487e-05
8.69823e-06
1.31603e-05
7.47035e-06
1.36946e-05
4.73654e-06
1.40659e-05
-4.80808e-07
1.3588e-05
-4.09463e-06
1.30296e-05
-5.00453e-06
1.33382e-05
-5.9584e-06
1.40482e-05
-7.63967e-06
1.45023e-05
-1.00469e-05
1.49477e-05
-1.28036e-05
1.5687e-05
-1.5571e-05
1.63639e-05
-1.86943e-05
1.66532e-05
-2.07667e-05
1.66267e-05
-2.18016e-05
1.63382e-05
-2.25409e-05
1.58495e-05
-2.24159e-05
1.54033e-05
-2.20743e-05
1.51818e-05
-2.18731e-05
1.50897e-05
-2.15502e-05
1.49905e-05
-2.08036e-05
1.48864e-05
-1.98188e-05
1.46967e-05
-1.86701e-05
1.4295e-05
-1.70292e-05
1.37388e-05
-1.4706e-05
1.32181e-05
-1.31468e-05
1.27692e-05
-1.235e-05
1.22106e-05
-1.16057e-05
1.14993e-05
-1.04724e-05
1.09336e-05
-9.47227e-06
1.08864e-05
-9.37966e-06
1.14442e-05
-1.06212e-05
1.2268e-05
-1.21279e-05
1.29432e-05
-1.33978e-05
1.31496e-05
-1.34852e-05
1.30519e-05
-1.2286e-05
1.29682e-05
-1.08158e-05
1.29166e-05
-9.30767e-06
1.29392e-05
-7.44012e-06
1.3071e-05
-5.39888e-06
1.32259e-05
-3.87793e-06
1.33441e-05
-2.1657e-06
1.33803e-05
1.61164e-07
1.32283e-05
2.60219e-06
1.28861e-05
5.06407e-06
1.24697e-05
7.89924e-06
1.2063e-05
1.07634e-05
1.1678e-05
1.32231e-05
1.12594e-05
1.58001e-05
1.08023e-05
1.85242e-05
1.03689e-05
2.10444e-05
1.00066e-05
2.33926e-05
9.70322e-06
2.44927e-05
9.43247e-06
2.38423e-05
9.28699e-06
2.28223e-05
9.20609e-06
2.21459e-05
9.15818e-06
2.12534e-05
9.13876e-06
2.00554e-05
9.108e-06
1.8974e-05
9.09571e-06
1.79232e-05
9.11262e-06
1.70663e-05
9.17492e-06
1.65387e-05
9.21968e-06
1.6126e-05
9.39089e-06
1.5788e-05
9.77435e-06
1.595e-05
1.03689e-05
1.66052e-05
1.10651e-05
1.72503e-05
1.1624e-05
1.7263e-05
1.20707e-05
1.63556e-05
1.24108e-05
1.49633e-05
1.26428e-05
1.29764e-05
1.28565e-05
1.08899e-05
1.30594e-05
8.16409e-06
1.32548e-05
5.43964e-06