/*--------------------------------*- C++ -*----------------------------------*\
| =========                 |                                                 |
| \\      /  F ield         | OpenFOAM: The Open Source CFD Toolbox           |
|  \\    /   O peration     | Version:  2.4.0                                 |
|   \\  /    A nd           | Web:      www.OpenFOAM.org                      |
|    \\/     M anipulation  |                                                 |
\*---------------------------------------------------------------------------*/
FoamFile
{
    version     2.0;
    format      ascii;
    class       volScalarField;
    location    "0.038";
    object      pMean;
}
// * * * * * * * * * * * * * * * * * * * * * * * * * * * * * * * * * * * * * //

dimensions      [0 2 -2 0 0 0 0];

internalField   nonuniform List<scalar> 
17600
(
182.467
164.999
159.046
156.662
154.472
152.231
150.004
147.809
145.624
143.442
141.272
139.115
136.988
134.867
132.761
130.615
128.428
126.069
123.215
117.99
180.604
165.046
159.085
156.671
154.475
152.231
150.004
147.809
145.624
143.442
141.272
139.115
136.988
134.869
132.761
130.619
128.429
126.083
123.239
119.13
179.224
165.291
159.223
156.707
154.488
152.236
150.006
147.81
145.624
143.442
141.272
139.114
136.988
134.867
132.762
130.614
128.436
126.078
123.396
119.738
178.268
165.616
159.43
156.767
154.516
152.251
150.014
147.815
145.627
143.442
141.271
139.116
136.988
134.874
132.761
130.633
128.431
126.132
123.497
120.33
177.461
165.931
159.677
156.842
154.556
152.28
150.033
147.827
145.634
143.446
141.273
139.114
136.99
134.869
132.767
130.621
128.457
126.144
123.663
120.848
176.703
166.205
159.935
156.916
154.596
152.318
150.062
147.848
145.647
143.453
141.274
139.119
136.989
134.88
132.765
130.641
128.459
126.186
123.814
121.3
175.991
166.434
160.19
156.985
154.627
152.353
150.097
147.874
145.665
143.464
141.28
139.12
136.994
134.881
132.771
130.647
128.464
126.242
123.907
121.753
175.336
166.623
160.438
157.051
154.648
152.382
150.131
147.904
145.685
143.476
141.284
139.124
136.997
134.887
132.782
130.653
128.498
126.272
124.056
122.155
174.741
166.775
160.671
157.118
154.661
152.404
150.163
147.933
145.706
143.488
141.289
139.129
136.999
134.895
132.781
130.67
128.502
126.333
124.184
122.522
174.207
166.892
160.886
157.188
154.668
152.419
150.192
147.961
145.727
143.499
141.294
139.13
137.005
134.898
132.797
130.677
128.534
126.387
124.317
122.87
173.732
166.977
161.084
157.261
154.671
152.427
150.216
147.988
145.746
143.509
141.298
139.133
137.005
134.905
132.8
130.693
128.562
126.444
124.465
123.172
173.315
167.035
161.263
157.338
154.67
152.43
150.237
148.013
145.764
143.518
141.301
139.134
137.011
134.911
132.813
130.707
128.589
126.51
124.604
123.439
172.952
167.07
161.424
157.415
154.667
152.429
150.255
148.036
145.781
143.526
141.303
139.136
137.013
134.916
132.823
130.724
128.626
126.576
124.74
123.687
172.64
167.089
161.565
157.49
154.663
152.425
150.27
148.057
145.797
143.533
141.306
139.138
137.017
134.922
132.833
130.742
128.661
126.643
124.872
123.914
172.378
167.098
161.686
157.558
154.659
152.419
150.282
148.075
145.811
143.539
141.308
139.139
137.02
134.928
132.845
130.763
128.697
126.711
125
124.121
172.163
167.101
161.787
157.617
154.657
152.412
150.292
148.091
145.823
143.544
141.309
139.141
137.024
134.934
132.857
130.783
128.736
126.78
125.121
124.31
171.993
167.1
161.867
157.665
154.656
152.406
150.3
148.103
145.832
143.548
141.311
139.142
137.027
134.941
132.869
130.805
128.775
126.847
125.236
124.486
171.867
167.098
161.926
157.701
154.655
152.401
150.305
148.113
145.84
143.552
141.312
139.144
137.031
134.948
132.882
130.827
128.814
126.914
125.345
124.647
171.783
167.095
161.965
157.726
154.656
152.397
150.309
148.119
145.845
143.554
141.313
139.147
137.034
134.955
132.895
130.85
128.853
126.979
125.448
124.794
171.742
167.094
161.985
157.739
154.656
152.395
150.311
148.122
145.848
143.556
141.314
139.149
137.038
134.962
132.909
130.873
128.892
127.042
125.545
124.929
171.742
167.093
161.985
157.739
154.656
152.394
150.311
148.122
145.849
143.557
141.315
139.151
137.041
134.97
132.922
130.896
128.93
127.103
125.635
125.052
171.784
167.094
161.966
157.726
154.656
152.396
150.31
148.119
145.847
143.556
141.316
139.153
137.045
134.977
132.935
130.919
128.968
127.162
125.719
125.164
171.867
167.096
161.927
157.701
154.656
152.4
150.307
148.112
145.843
143.555
141.316
139.155
137.049
134.984
132.949
130.942
129.005
127.219
125.797
125.263
171.994
167.098
161.868
157.664
154.657
152.405
150.301
148.103
145.836
143.553
141.317
139.157
137.052
134.991
132.962
130.965
129.041
127.273
125.869
125.352
172.165
167.098
161.788
157.616
154.658
152.41
150.294
148.09
145.827
143.55
141.318
139.159
137.056
134.998
132.974
130.988
129.076
127.325
125.935
125.429
172.38
167.095
161.688
157.558
154.661
152.417
150.285
148.075
145.816
143.546
141.319
139.161
137.06
135.005
132.987
131.01
129.111
127.375
125.995
125.495
172.643
167.086
161.567
157.49
154.665
152.423
150.273
148.057
145.804
143.541
141.319
139.163
137.064
135.012
132.999
131.032
129.144
127.423
126.049
125.549
172.954
167.066
161.426
157.414
154.669
152.427
150.258
148.037
145.789
143.535
141.319
139.164
137.068
135.018
133.011
131.052
129.178
127.469
126.097
125.589
173.318
167.03
161.265
157.337
154.672
152.429
150.24
148.014
145.773
143.529
141.319
139.166
137.072
135.023
133.022
131.072
129.21
127.514
126.141
125.614
173.736
166.973
161.086
157.26
154.673
152.426
150.219
147.99
145.755
143.521
141.318
139.167
137.076
135.028
133.033
131.091
129.243
127.558
126.181
125.62
174.21
166.887
160.888
157.187
154.67
152.419
150.194
147.964
145.736
143.512
141.317
139.168
137.079
135.033
133.044
131.109
129.275
127.6
126.221
125.603
174.744
166.77
160.672
157.116
154.663
152.405
150.165
147.936
145.715
143.502
141.315
139.169
137.082
135.037
133.053
131.125
129.307
127.64
126.266
125.562
175.34
166.618
160.439
157.049
154.649
152.384
150.133
147.908
145.695
143.491
141.311
139.169
137.084
135.04
133.062
131.14
129.338
127.678
126.314
125.505
175.996
166.429
160.192
156.983
154.628
152.356
150.099
147.879
145.674
143.48
141.308
139.169
137.086
135.043
133.069
131.154
129.366
127.713
126.36
125.445
176.707
166.2
159.936
156.914
154.597
152.321
150.064
147.853
145.657
143.471
141.305
139.169
137.088
135.047
133.076
131.167
129.39
127.745
126.401
125.391
177.465
165.927
159.678
156.84
154.557
152.284
150.035
147.833
145.644
143.464
141.304
139.17
137.089
135.05
133.082
131.179
129.409
127.772
126.432
125.349
178.272
165.612
159.432
156.766
154.517
152.255
150.016
147.821
145.637
143.462
141.304
139.172
137.091
135.053
133.087
131.188
129.422
127.792
126.449
125.319
179.228
165.287
159.224
156.706
154.488
152.24
150.008
147.817
145.635
143.461
141.305
139.173
137.093
135.056
133.09
131.194
129.43
127.805
126.456
125.304
180.608
165.043
159.087
156.67
154.475
152.235
150.006
147.816
145.635
143.462
141.305
139.174
137.094
135.057
133.091
131.196
129.434
127.812
126.457
125.312
182.471
164.996
159.047
156.661
154.472
152.235
150.006
147.816
145.635
143.462
141.305
139.174
137.094
135.057
133.092
131.197
129.434
127.813
126.456
125.37
113.52
114.326
114.152
113.351
112.668
112.13
111.643
111.028
110.326
109.475
108.478
107.43
106.383
105.376
104.468
103.768
103.332
103.212
103.466
104.112
105.132
106.501
108.186
110.118
112.206
114.363
116.519
118.629
120.651
122.544
124.288
125.886
127.347
128.676
129.878
130.965
131.944
132.821
133.598
134.279
134.863
135.344
135.726
136.014
136.219
136.352
136.423
136.444
136.421
136.363
136.275
136.164
136.034
135.889
135.732
135.564
135.388
135.205
135.016
134.822
134.623
134.422
134.217
134.011
133.802
133.592
133.38
133.167
132.954
132.739
132.524
132.308
132.091
131.874
131.657
131.44
131.222
131.004
130.786
130.568
130.35
130.131
129.913
129.694
129.476
129.257
129.038
128.819
128.601
128.382
128.163
127.944
127.725
127.506
127.287
127.069
126.85
126.631
126.412
126.193
125.974
125.755
125.536
125.317
125.098
124.879
124.66
124.441
124.222
124.003
123.784
123.565
123.346
123.127
122.908
122.689
122.47
122.251
122.032
121.812
121.594
121.375
121.156
120.938
120.721
120.503
120.288
120.072
119.86
119.647
119.438
119.227
119.022
118.812
118.606
118.396
118.189
117.979
117.769
117.559
117.349
117.139
116.929
116.721
116.511
116.302
116.093
115.884
115.675
115.466
115.258
115.048
114.839
114.63
114.42
114.211
114
113.79
113.578
113.367
113.154
112.941
112.726
112.511
112.294
112.076
111.856
111.634
111.41
111.182
110.951
110.715
110.475
110.228
109.976
109.713
109.445
109.161
108.871
108.561
108.239
107.895
107.529
107.136
106.709
106.249
105.731
105.161
104.509
103.755
102.878
101.821
100.528
98.9141
96.7771
94.0731
90.0797
84.1327
76.6793
47.1672
115.369
115.186
115.012
114.394
113.732
113.149
112.604
111.93
111.179
110.33
109.338
108.297
107.266
106.301
105.449
104.792
104.383
104.275
104.52
105.141
106.117
107.417
109.005
110.827
112.807
114.862
116.929
118.962
120.916
122.75
124.439
125.989
127.406
128.697
129.864
130.918
131.87
132.724
133.484
134.151
134.727
135.205
135.588
135.882
136.093
136.234
136.315
136.345
136.332
136.282
136.202
136.098
135.975
135.836
135.684
135.521
135.35
135.17
134.984
134.793
134.598
134.399
134.197
133.992
133.785
133.576
133.366
133.155
132.942
132.729
132.514
132.299
132.084
131.868
131.651
131.434
131.217
131
130.782
130.564
130.346
130.128
129.91
129.692
129.473
129.255
129.036
128.818
128.599
128.38
128.162
127.943
127.724
127.505
127.287
127.068
126.849
126.63
126.411
126.192
125.973
125.754
125.535
125.316
125.097
124.878
124.659
124.44
124.221
124.002
123.783
123.564
123.345
123.126
122.906
122.687
122.468
122.248
122.029
121.81
121.591
121.371
121.153
120.933
120.716
120.497
120.282
120.066
119.854
119.64
119.433
119.221
119.017
118.806
118.602
118.39
118.185
117.973
117.764
117.552
117.342
117.132
116.921
116.712
116.501
116.292
116.081
115.872
115.662
115.451
115.242
115.031
114.821
114.609
114.399
114.186
113.975
113.761
113.548
113.332
113.117
112.9
112.683
112.462
112.242
112.018
111.794
111.566
111.336
111.1
110.862
110.618
110.369
110.112
109.848
109.575
109.289
108.995
108.682
108.358
108.008
107.643
107.248
106.824
106.364
105.858
105.303
104.672
103.962
103.14
102.166
101.015
99.5751
97.8106
95.4467
92.4041
88.1778
80.6946
73.2664
40.1925
117.053
116.416
115.912
115.297
114.647
114.018
113.412
112.701
111.912
111.057
110.099
109.088
108.089
107.161
106.359
105.745
105.372
105.285
105.536
106.14
107.08
108.318
109.82
111.544
113.426
115.391
117.373
119.326
121.208
122.974
124.602
126.095
127.462
128.708
129.838
130.859
131.782
132.617
133.362
134.019
134.588
135.064
135.45
135.749
135.969
136.119
136.21
136.249
136.244
136.203
136.131
136.034
135.917
135.784
135.638
135.479
135.312
135.136
134.953
134.765
134.573
134.376
134.176
133.973
133.768
133.561
133.353
133.143
132.931
132.719
132.505
132.291
132.076
131.861
131.645
131.429
131.212
130.995
130.778
130.561
130.343
130.125
129.907
129.689
129.471
129.253
129.034
128.816
128.598
128.379
128.16
127.942
127.723
127.504
127.286
127.067
126.848
126.629
126.41
126.191
125.972
125.753
125.534
125.315
125.096
124.877
124.658
124.439
124.22
124.001
123.782
123.563
123.343
123.124
122.905
122.685
122.466
122.246
122.027
121.807
121.588
121.368
121.149
120.929
120.711
120.492
120.277
120.059
119.848
119.633
119.427
119.214
119.012
118.799
118.598
118.384
118.181
117.965
117.759
117.543
117.336
117.121
116.914
116.701
116.492
116.28
116.07
115.859
115.648
115.437
115.226
115.014
114.802
114.59
114.376
114.163
113.948
113.733
113.516
113.299
113.08
112.86
112.638
112.416
112.189
111.962
111.731
111.499
111.261
111.021
110.773
110.522
110.263
109.997
109.721
109.435
109.137
108.825
108.498
108.15
107.784
107.388
106.969
106.51
106.015
105.472
104.864
104.191
103.408
102.52
101.467
100.209
98.6362
96.7122
94.1273
90.6483
86.613
77.2266
70.0591
38.8493
118.304
117.562
116.868
116.111
115.415
114.772
114.159
113.456
112.661
111.818
110.909
109.935
108.956
108.056
107.292
106.719
106.377
106.309
106.561
107.148
108.049
109.227
110.65
112.285
114.078
115.956
117.852
119.718
121.517
123.207
124.766
126.196
127.508
128.706
129.797
130.786
131.684
132.501
133.234
133.881
134.445
134.922
135.311
135.617
135.846
136.006
136.106
136.155
136.159
136.125
136.061
135.971
135.861
135.734
135.592
135.439
135.275
135.102
134.923
134.738
134.548
134.354
134.156
133.955
133.752
133.546
133.339
133.13
132.92
132.709
132.496
132.283
132.069
131.854
131.639
131.423
131.207
130.991
130.774
130.557
130.34
130.122
129.905
129.687
129.469
129.251
129.033
128.814
128.596
128.378
128.159
127.941
127.722
127.503
127.285
127.066
126.847
126.628
126.409
126.19
125.972
125.753
125.534
125.315
125.096
124.877
124.657
124.438
124.219
124
123.781
123.561
123.342
123.123
122.903
122.683
122.464
122.244
122.024
121.804
121.585
121.364
121.145
120.924
120.707
120.486
120.271
120.052
119.842
119.625
119.421
119.206
119.007
118.791
118.594
118.377
118.177
117.957
117.754
117.534
117.33
117.111
116.907
116.689
116.484
116.267
116.061
115.844
115.636
115.42
115.211
114.996
114.785
114.568
114.356
114.138
113.923
113.704
113.486
113.265
113.044
112.82
112.595
112.367
112.138
111.905
111.67
111.43
111.188
110.939
110.686
110.426
110.158
109.881
109.595
109.296
108.985
108.657
108.312
107.946
107.555
107.139
106.685
106.202
105.665
105.083
104.432
103.701
102.866
101.899
100.753
99.4082
97.7058
95.5859
93.0204
88.7445
85.3285
74.0526
67.0263
40.3282
119.219
118.509
117.704
116.823
116.08
115.451
114.856
114.193
113.431
112.618
111.748
110.806
109.853
108.989
108.27
107.734
107.423
107.376
107.626
108.188
109.042
110.159
111.51
113.063
114.768
116.554
118.354
120.125
121.832
123.438
124.922
126.287
127.54
128.69
129.742
130.701
131.577
132.377
133.098
133.738
134.298
134.776
135.17
135.485
135.724
135.893
136.003
136.062
136.075
136.049
135.993
135.91
135.806
135.685
135.548
135.398
135.238
135.069
134.893
134.711
134.523
134.332
134.136
133.937
133.736
133.532
133.326
133.118
132.909
132.699
132.488
132.275
132.062
131.848
131.633
131.418
131.202
130.986
130.77
130.553
130.336
130.119
129.902
129.684
129.467
129.249
129.031
128.813
128.594
128.376
128.158
127.939
127.721
127.502
127.284
127.065
126.846
126.627
126.409
126.19
125.971
125.752
125.533
125.314
125.095
124.876
124.656
124.437
124.218
123.999
123.779
123.56
123.341
123.121
122.901
122.682
122.462
122.242
122.022
121.802
121.582
121.361
121.141
120.92
120.702
120.48
120.265
120.044
119.835
119.616
119.414
119.196
119.001
118.782
118.589
118.367
118.173
117.947
117.749
117.522
117.324
117.097
116.9
116.674
116.476
116.251
116.051
115.827
115.624
115.401
115.197
114.975
114.768
114.545
114.335
114.112
113.899
113.673
113.457
113.229
113.008
112.778
112.552
112.319
112.086
111.848
111.609
111.363
111.114
110.86
110.598
110.331
110.053
109.768
109.469
109.16
108.833
108.492
108.127
107.743
107.329
106.887
106.408
105.888
105.32
104.692
103.995
103.217
102.313
101.303
100.064
98.5703
96.8677
94.3259
92.1074
86.7064
84.2225
71.3234
63.9023
42.0077
120.086
119.359
118.348
117.391
116.64
116.042
115.48
114.875
114.171
113.393
112.554
111.657
110.758
109.948
109.277
108.779
108.5
108.473
108.72
109.25
110.055
111.114
112.4
113.873
115.481
117.164
118.863
120.532
122.14
123.658
125.065
126.363
127.558
128.66
129.675
130.607
131.461
132.244
132.954
133.588
134.146
134.627
135.028
135.352
135.601
135.781
135.901
135.97
135.992
135.975
135.926
135.85
135.753
135.636
135.504
135.359
135.202
135.037
134.864
134.684
134.499
134.31
134.116
133.919
133.719
133.517
133.313
133.107
132.899
132.689
132.479
132.267
132.055
131.841
131.627
131.413
131.198
130.982
130.766
130.55
130.333
130.116
129.899
129.682
129.464
129.247
129.029
128.811
128.593
128.375
128.157
127.938
127.72
127.501
127.283
127.064
126.845
126.627
126.408
126.189
125.97
125.751
125.532
125.313
125.094
124.875
124.656
124.436
124.217
123.998
123.778
123.559
123.339
123.12
122.9
122.68
122.46
122.24
122.02
121.799
121.579
121.357
121.138
120.915
120.697
120.473
120.259
120.035
119.827
119.606
119.407
119.186
118.994
118.771
118.583
118.356
118.167
117.935
117.742
117.508
117.316
117.081
116.891
116.657
116.468
116.233
116.042
115.806
115.614
115.379
115.185
114.951
114.754
114.518
114.317
114.082
113.876
113.64
113.429
113.192
112.975
112.735
112.512
112.269
112.037
111.789
111.549
111.294
111.044
110.779
110.514
110.234
109.952
109.653
109.347
109.022
108.685
108.324
107.946
107.538
107.106
106.636
106.13
105.579
104.971
104.31
103.559
102.721
101.785
100.638
99.4248
97.6539
96.1666
92.9276
91.3714
84.5275
82.9763
69.1265
60.4664
42.6735
120.962
120.13
118.885
117.849
117.094
116.527
116.021
115.487
114.854
114.12
113.328
112.498
111.669
110.92
110.302
109.845
109.595
109.58
109.819
110.319
111.08
112.085
113.303
114.69
116.194
117.769
119.361
120.925
122.432
123.859
125.19
126.422
127.562
128.619
129.599
130.504
131.336
132.102
132.803
133.432
133.99
134.475
134.883
135.217
135.477
135.668
135.799
135.878
135.911
135.903
135.861
135.792
135.7
135.589
135.461
135.32
135.167
135.005
134.835
134.658
134.476
134.288
134.097
133.902
133.703
133.503
133.3
133.095
132.888
132.68
132.47
132.259
132.048
131.835
131.622
131.408
131.193
130.978
130.762
130.546
130.33
130.114
129.897
129.68
129.462
129.245
129.027
128.809
128.591
128.373
128.155
127.937
127.719
127.5
127.282
127.063
126.844
126.626
126.407
126.188
125.969
125.75
125.531
125.312
125.093
124.874
124.655
124.435
124.216
123.997
123.777
123.558
123.338
123.118
122.898
122.678
122.458
122.238
122.018
121.796
121.576
121.354
121.134
120.91
120.692
120.466
120.252
120.026
119.819
119.594
119.398
119.173
118.986
118.757
118.575
118.341
118.158
117.919
117.732
117.489
117.305
117.059
116.88
116.633
116.457
116.208
116.03
115.779
115.601
115.349
115.172
114.919
114.739
114.484
114.3
114.044
113.856
113.599
113.405
113.145
112.945
112.683
112.475
112.21
111.992
111.724
111.495
111.219
110.977
110.692
110.433
110.134
109.854
109.535
109.228
108.881
108.54
108.154
107.768
107.331
106.886
106.379
105.859
105.255
104.638
103.893
103.157
102.179
101.314
99.9199
98.8485
96.5733
95.5913
91.2727
90.6631
82.4442
81.1788
67.3123
56.7486
42.5018
121.709
120.868
119.421
118.236
117.441
116.916
116.486
116.025
115.463
114.796
114.074
113.322
112.568
111.882
111.32
110.909
110.68
110.673
110.904
111.381
112.1
113.047
114.193
115.489
116.887
118.35
119.833
121.293
122.7
124.039
125.297
126.468
127.555
128.568
129.513
130.39
131.201
131.952
132.643
133.269
133.828
134.318
134.735
135.079
135.352
135.556
135.698
135.788
135.83
135.83
135.796
135.734
135.648
135.542
135.419
135.282
135.133
134.974
134.807
134.633
134.453
134.268
134.078
133.885
133.688
133.489
133.287
133.083
132.878
132.671
132.462
132.252
132.041
131.829
131.616
131.402
131.188
130.974
130.759
130.543
130.327
130.111
129.894
129.677
129.46
129.243
129.025
128.808
128.59
128.372
128.154
127.936
127.718
127.499
127.281
127.062
126.844
126.625
126.406
126.187
125.968
125.749
125.53
125.311
125.092
124.873
124.654
124.434
124.215
123.996
123.776
123.556
123.337
123.117
122.897
122.677
122.456
122.236
122.015
121.794
121.573
121.35
121.13
120.905
120.686
120.459
120.245
120.016
119.81
119.581
119.388
119.158
118.976
118.74
118.564
118.322
118.145
117.898
117.717
117.465
117.287
117.031
116.861
116.602
116.438
116.174
116.011
115.742
115.581
115.31
115.152
114.877
114.719
114.438
114.279
113.995
113.833
113.546
113.379
113.088
112.915
112.62
112.441
112.141
111.951
111.646
111.445
111.133
110.917
110.594
110.359
110.022
109.764
109.406
109.118
108.729
108.406
107.972
107.604
107.108
106.686
106.1
105.612
104.898
104.33
103.427
102.778
101.558
100.893
99.0405
98.4275
95.2925
95.0471
89.5593
89.6302
80.5191
78.6205
65.7113
53.1887
42.1933
122.378
121.545
119.907
118.577
117.737
117.242
116.875
116.484
116.002
115.426
114.788
114.113
113.432
112.809
112.302
111.933
111.729
111.729
111.957
112.413
113.09
113.975
115.043
116.247
117.541
118.895
120.272
121.631
122.945
124.201
125.389
126.501
127.537
128.507
129.417
130.266
131.056
131.791
132.473
133.097
133.658
134.154
134.582
134.939
135.225
135.442
135.598
135.698
135.751
135.76
135.733
135.678
135.598
135.497
135.378
135.245
135.1
134.944
134.78
134.609
134.431
134.248
134.06
133.868
133.673
133.475
133.275
133.072
132.868
132.661
132.454
132.244
132.034
131.823
131.61
131.397
131.184
130.97
130.755
130.54
130.324
130.108
129.892
129.675
129.458
129.241
129.024
128.806
128.589
128.371
128.153
127.935
127.717
127.498
127.28
127.061
126.843
126.624
126.405
126.187
125.968
125.749
125.53
125.311
125.091
124.872
124.653
124.434
124.214
123.995
123.775
123.555
123.335
123.115
122.895
122.675
122.455
122.234
122.013
121.791
121.57
121.347
121.126
120.9
120.681
120.452
120.237
120.005
119.8
119.567
119.376
119.142
118.964
118.724
118.551
118.304
118.129
117.874
117.697
117.436
117.264
116.997
116.835
116.563
116.41
116.13
115.981
115.694
115.549
115.257
115.119
114.821
114.686
114.378
114.245
113.929
113.799
113.475
113.345
113.011
112.878
112.537
112.402
112.05
111.908
111.547
111.396
111.024
110.86
110.474
110.291
109.886
109.683
109.25
109.018
108.547
108.283
107.756
107.454
106.845
106.502
105.773
105.387
104.483
104.055
102.876
102.465
100.798
100.525
97.9596
97.8831
93.9038
94.1976
87.873
88.1751
78.8644
74.725
64.1012
51.141
42.597
122.923
122.085
120.355
118.938
118.034
117.524
117.199
116.884
116.497
116.017
115.461
114.859
114.247
113.684
113.226
112.9
112.723
112.733
112.957
113.392
114.025
114.847
115.836
116.951
118.149
119.401
120.675
121.94
123.169
124.347
125.468
126.522
127.509
128.435
129.309
130.131
130.899
131.618
132.292
132.915
133.479
133.984
134.423
134.795
135.096
135.328
135.496
135.61
135.673
135.691
135.673
135.625
135.55
135.454
135.34
135.21
135.068
134.916
134.754
134.585
134.41
134.229
134.043
133.852
133.659
133.462
133.263
133.061
132.858
132.653
132.446
132.237
132.027
131.817
131.605
131.393
131.179
130.966
130.751
130.536
130.321
130.105
129.889
129.673
129.456
129.239
129.022
128.805
128.587
128.369
128.152
127.934
127.715
127.497
127.279
127.06
126.842
126.623
126.405
126.186
125.967
125.748
125.529
125.31
125.091
124.871
124.652
124.433
124.213
123.994
123.774
123.554
123.334
123.114
122.894
122.673
122.453
122.232
122.011
121.789
121.568
121.344
121.123
120.896
120.676
120.444
120.229
119.993
119.789
119.552
119.363
119.125
118.951
118.708
118.537
118.286
118.109
117.848
117.671
117.402
117.233
116.958
116.801
116.517
116.371
116.077
115.939
115.634
115.504
115.191
115.071
114.747
114.636
114.297
114.191
113.84
113.743
113.377
113.286
112.903
112.817
112.419
112.339
111.922
111.842
111.409
111.329
110.874
110.791
110.311
110.218
109.709
109.602
109.054
108.924
108.322
108.17
107.492
107.314
106.526
106.326
105.373
105.158
103.968
103.765
102.204
102.103
99.9132
100.024
96.8485
97.1026
92.4884
93.0446
86.3374
85.6713
77.4527
70.4351
62.4887
50.6163
43.8362
123.375
122.574
120.797
119.293
118.31
117.775
117.488
117.254
116.957
116.562
116.081
115.55
115.006
114.5
114.088
113.798
113.649
113.671
113.889
114.301
114.892
115.653
116.569
117.601
118.709
119.865
121.047
122.225
123.375
124.48
125.534
126.532
127.469
128.352
129.19
129.983
130.729
131.433
132.099
132.722
133.291
133.805
134.259
134.646
134.964
135.212
135.396
135.523
135.597
135.626
135.616
135.574
135.506
135.414
135.304
135.178
135.039
134.889
134.73
134.563
134.39
134.21
134.026
133.837
133.645
133.449
133.251
133.051
132.848
132.644
132.438
132.23
132.021
131.811
131.6
131.388
131.175
130.962
130.748
130.533
130.318
130.103
129.887
129.671
129.454
129.237
129.02
128.803
128.586
128.368
128.15
127.933
127.714
127.496
127.278
127.06
126.841
126.622
126.404
126.185
125.966
125.747
125.528
125.309
125.09
124.871
124.651
124.432
124.212
123.993
123.773
123.553
123.333
123.113
122.892
122.672
122.451
122.23
122.009
121.786
121.565
121.341
121.119
120.891
120.671
120.437
120.221
119.982
119.777
119.536
119.35
119.11
118.937
118.694
118.52
118.265
118.081
117.814
117.633
117.36
117.191
116.911
116.756
116.464
116.322
116.018
115.885
115.568
115.446
115.116
115.008
114.664
114.567
114.204
114.118
113.736
113.664
113.26
113.201
112.771
112.726
112.272
112.243
111.757
111.742
111.224
111.224
110.668
110.679
110.081
110.097
109.455
109.475
108.774
108.789
108.016
108.022
107.153
107.142
106.136
106.109
104.897
104.868
103.357
103.368
101.432
101.541
98.9258
99.2503
95.5881
96.0892
91.2825
91.2993
85.2568
82.0615
75.6187
67.6763
61.7324
51.4208
45.4773
123.752
122.993
121.189
119.628
118.599
118.045
117.78
117.6
117.373
117.055
116.652
116.192
115.712
115.258
114.885
114.628
114.504
114.537
114.75
115.14
115.691
116.397
117.244
118.2
119.226
120.296
121.392
122.491
123.565
124.598
125.587
126.529
127.419
128.258
129.058
129.821
130.545
131.233
131.893
132.516
133.092
133.618
134.088
134.494
134.831
135.097
135.297
135.438
135.525
135.563
135.562
135.527
135.463
135.376
135.269
135.147
135.011
134.864
134.707
134.542
134.37
134.192
134.01
133.822
133.632
133.437
133.24
133.041
132.839
132.636
132.43
132.223
132.015
131.805
131.595
131.383
131.171
130.958
130.744
130.53
130.315
130.1
129.884
129.668
129.452
129.236
129.019
128.802
128.584
128.367
128.149
127.931
127.713
127.495
127.277
127.059
126.84
126.622
126.403
126.184
125.965
125.746
125.527
125.308
125.089
124.87
124.65
124.431
124.211
123.992
123.772
123.552
123.332
123.111
122.891
122.67
122.449
122.228
122.007
121.784
121.563
121.338
121.116
120.887
120.666
120.431
120.213
119.972
119.765
119.522
119.335
119.095
118.921
118.676
118.495
118.234
118.041
117.767
117.582
117.304
117.135
116.85
116.697
116.4
116.257
115.946
115.812
115.489
115.367
115.03
114.923
114.568
114.475
114.098
114.017
113.618
113.554
113.128
113.081
112.623
112.597
112.105
112.101
111.566
111.586
111.004
111.055
110.417
110.495
109.79
109.901
109.121
109.265
108.393
108.564
107.583
107.783
106.666
106.876
105.588
105.801
104.276
104.472
102.635
102.825
100.6
100.799
97.9852
98.2546
94.6328
94.6396
90.4069
88.5582
83.7578
78.8537
73.628
66.3254
62.0482
53.0965
47.1342
124.072
123.349
121.555
119.973
118.905
118.315
118.049
117.91
117.752
117.514
117.187
116.792
116.367
115.96
115.624
115.396
115.294
115.336
115.542
115.912
116.428
117.084
117.868
118.754
119.706
120.698
121.715
122.736
123.737
124.701
125.627
126.515
127.356
128.151
128.911
129.644
130.346
131.019
131.672
132.297
132.881
133.421
133.91
134.337
134.696
134.982
135.2
135.357
135.456
135.504
135.51
135.481
135.423
135.34
135.237
135.117
134.984
134.84
134.685
134.522
134.352
134.176
133.994
133.808
133.619
133.426
133.23
133.031
132.831
132.628
132.423
132.217
132.009
131.8
131.59
131.379
131.167
130.954
130.741
130.527
130.312
130.098
129.882
129.666
129.45
129.234
129.017
128.8
128.583
128.366
128.148
127.93
127.712
127.494
127.276
127.058
126.84
126.621
126.402
126.184
125.965
125.746
125.527
125.308
125.088
124.869
124.65
124.43
124.21
123.991
123.771
123.551
123.33
123.11
122.89
122.669
122.448
122.226
122.005
121.782
121.56
121.335
121.113
120.884
120.662
120.426
120.206
119.962
119.753
119.508
119.319
119.079
118.901
118.653
118.461
118.193
117.99
117.71
117.52
117.238
117.068
116.782
116.626
116.326
116.176
115.859
115.718
115.389
115.263
114.922
114.81
114.45
114.351
113.967
113.882
113.474
113.404
112.967
112.918
112.446
112.418
111.909
111.903
111.345
111.367
110.759
110.816
110.14
110.228
109.47
109.602
108.753
108.929
107.956
108.181
107.073
107.353
106.07
106.393
104.901
105.251
103.508
103.826
101.806
102.027
99.7175
99.8148
97.1196
96.9309
93.7693
92.6446
89.0163
85.864
81.6779
76.6731
72.6115
66.2199
63.1875
55.0225
48.6017
124.352
123.665
121.895
120.297
119.193
118.576
118.314
118.214
118.117
117.947
117.684
117.347
116.974
116.612
116.311
116.109
116.025
116.073
116.272
116.623
117.109
117.721
118.449
119.269
120.153
121.073
122.015
122.961
123.891
124.791
125.657
126.489
127.279
128.03
128.751
129.452
130.131
130.789
131.435
132.063
132.657
133.213
133.723
134.174
134.557
134.867
135.104
135.277
135.389
135.447
135.46
135.438
135.385
135.306
135.206
135.09
134.959
134.817
134.664
134.503
134.334
134.159
133.98
133.795
133.606
133.414
133.219
133.022
132.822
132.62
132.416
132.21
132.003
131.795
131.585
131.374
131.163
130.951
130.738
130.524
130.31
130.095
129.88
129.664
129.448
129.232
129.016
128.799
128.582
128.365
128.147
127.929
127.712
127.494
127.275
127.057
126.839
126.62
126.402
126.183
125.964
125.745
125.526
125.307
125.088
124.868
124.649
124.429
124.21
123.99
123.77
123.55
123.329
123.109
122.888
122.667
122.446
122.224
122.003
121.78
121.558
121.332
121.11
120.881
120.658
120.421
120.2
119.955
119.742
119.495
119.302
119.059
118.874
118.622
118.417
118.143
117.929
117.647
117.451
117.169
116.994
116.708
116.545
116.242
116.079
115.757
115.605
115.275
115.141
114.798
114.676
114.312
114.201
113.813
113.716
113.303
113.221
112.779
112.716
112.239
112.196
111.679
111.655
111.092
111.097
110.483
110.516
109.836
109.892
109.134
109.23
108.382
108.508
107.537
107.705
106.599
106.808
105.517
105.755
104.251
104.49
102.741
102.918
100.911
100.952
98.6621
98.4966
95.848
95.2082
92.1236
90.3358
86.7967
83.5008
79.817
75.5423
72.6908
67.1177
64.614
56.8042
49.897
124.6
123.947
122.202
120.602
119.488
118.858
118.595
118.515
118.46
118.344
118.142
117.864
117.544
117.226
116.955
116.774
116.702
116.756
116.949
117.283
117.741
118.313
118.989
119.75
120.57
121.422
122.292
123.167
124.031
124.868
125.674
126.449
127.19
127.895
128.577
129.245
129.898
130.54
131.18
131.811
132.417
132.992
133.527
134.005
134.415
134.749
135.008
135.198
135.323
135.392
135.413
135.397
135.349
135.274
135.177
135.064
134.936
134.795
134.644
134.484
134.317
134.144
133.965
133.782
133.595
133.404
133.209
133.013
132.814
132.612
132.409
132.204
131.997
131.789
131.58
131.37
131.159
130.947
130.734
130.521
130.307
130.093
129.878
129.662
129.447
129.231
129.014
128.798
128.581
128.363
128.146