/*--------------------------------*- C++ -*----------------------------------*\
| =========                 |                                                 |
| \\      /  F ield         | OpenFOAM: The Open Source CFD Toolbox           |
|  \\    /   O peration     | Version:  2.4.0                                 |
|   \\  /    A nd           | Web:      www.OpenFOAM.org                      |
|    \\/     M anipulation  |                                                 |
\*---------------------------------------------------------------------------*/
FoamFile
{
    version     2.0;
    format      ascii;
    class       surfaceScalarField;
    location    "0.175";
    object      phi;
}
// * * * * * * * * * * * * * * * * * * * * * * * * * * * * * * * * * * * * * //

dimensions      [0 3 -1 0 0 0 0];

internalField   nonuniform List<scalar> 
34880
(
5.4868e-06
7.0132e-06
3.12553e-06
2.36127e-06
2.47562e-06
6.49905e-07
2.21481e-06
2.6081e-07
2.07137e-06
1.43441e-07
1.97855e-06
9.28193e-08
1.87846e-06
1.00087e-07
1.81865e-06
5.98144e-08
1.78503e-06
3.36192e-08
1.73358e-06
5.14519e-08
1.69755e-06
3.60285e-08
1.69918e-06
-1.63278e-09
1.65035e-06
4.88369e-08
1.62975e-06
2.06012e-08
1.64051e-06
-1.07663e-08
1.5978e-06
4.27124e-08
1.61306e-06
-1.52635e-08
1.57441e-06
3.86542e-08
1.65193e-06
-7.75211e-08
4.66263e-07
1.18567e-06
1.01078e-05
9.40539e-06
7.83346e-06
4.63563e-06
6.71425e-06
1.76912e-06
6.05567e-06
9.19383e-07
5.64614e-06
5.52977e-07
5.3581e-06
3.8086e-07
5.1128e-06
3.45381e-07
4.94562e-06
2.26996e-07
4.82368e-06
1.55558e-07
4.69165e-06
1.83484e-07
4.61228e-06
1.15402e-07
4.56218e-06
4.84667e-08
4.46347e-06
1.47547e-07
4.42567e-06
5.83974e-08
4.39524e-06
1.96664e-08
4.33779e-06
1.00164e-07
4.34837e-06
-2.58395e-08
4.26069e-06
1.26329e-07
4.43907e-06
-2.55895e-07
1.01446e-06
3.89087e-06
1.24198e-05
9.48556e-06
1.10098e-05
6.04561e-06
9.98586e-06
2.7931e-06
9.19114e-06
1.7141e-06
8.6243e-06
1.11981e-06
8.19448e-06
8.10686e-07
7.84872e-06
6.91134e-07
7.59662e-06
4.79102e-07
7.40286e-06
3.49321e-07
7.20726e-06
3.79077e-07
7.09254e-06
2.30129e-07
6.991e-06
1.50008e-07
6.85896e-06
2.79585e-07
6.806e-06
1.1136e-07
6.72996e-06
9.56979e-08
6.67023e-06
1.59903e-07
6.66142e-06
-1.70356e-08
6.56666e-06
2.21093e-07
6.70155e-06
-3.9079e-07
1.11462e-06
6.60139e-06
1.34035e-05
8.58204e-06
1.28956e-05
6.55355e-06
1.23355e-05
3.35318e-06
1.16996e-05
2.34995e-06
1.11447e-05
1.67474e-06
1.06601e-05
1.29528e-06
1.0263e-05
1.08823e-06
9.96318e-06
7.7895e-07
9.72098e-06
5.9152e-07
9.47927e-06
6.20782e-07
9.33832e-06
3.71085e-07
9.19854e-06
2.89785e-07
9.03435e-06
4.43779e-07
8.97579e-06
1.69919e-07
8.85769e-06
2.13798e-07
8.79389e-06
2.23703e-07
8.76185e-06
1.50067e-08
8.69044e-06
2.92496e-07
8.71189e-06
-4.12235e-07
9.28713e-07
8.8978e-06
1.35785e-05
7.50356e-06
1.36656e-05
6.46639e-06
1.36418e-05
3.37702e-06
1.33774e-05
2.61434e-06
1.30341e-05
2.01808e-06
1.26261e-05
1.70323e-06
1.2258e-05
1.45631e-06
1.1969e-05
1.06798e-06
1.17188e-05
8.41706e-07
1.14621e-05
8.77465e-07
1.13116e-05
5.21606e-07
1.11567e-05
4.44741e-07
1.09667e-05
6.33762e-07
1.09131e-05
2.23474e-07
1.07672e-05
3.59781e-07
1.06956e-05
2.95255e-07
1.06472e-05
6.34178e-08
1.06032e-05
3.36489e-07
1.05177e-05
-3.2679e-07
9.58554e-07
1.04879e-05
1.34657e-05
6.53791e-06
1.37529e-05
6.17911e-06
1.4032e-05
3.09799e-06
1.41136e-05
2.53271e-06
1.40997e-05
2.03202e-06
1.39043e-05
1.89855e-06
1.36717e-05
1.68892e-06
1.34803e-05
1.25945e-06
1.32837e-05
1.03822e-06
1.30625e-05
1.09869e-06
1.29311e-05
6.53005e-07
1.27959e-05
5.80009e-07
1.25976e-05
8.31986e-07
1.25601e-05
2.60989e-07
1.24131e-05
5.06778e-07
1.23304e-05
3.78006e-07
1.22848e-05
1.08958e-07
1.22509e-05
3.70446e-07
1.21426e-05
-2.18507e-07
5.55262e-07
1.25459e-05
1.33431e-05
5.69485e-06
1.36737e-05
5.84841e-06
1.39935e-05
2.77827e-06
1.41905e-05
2.33563e-06
1.43945e-05
1.82811e-06
1.442e-05
1.87302e-06
1.4368e-05
1.74091e-06
1.43411e-05
1.28637e-06
1.42696e-05
1.10974e-06
1.41548e-05
1.21341e-06
1.40847e-05
7.23139e-07
1.40181e-05
6.4659e-07
1.38469e-05
1.00322e-06
1.38388e-05
2.69064e-07
1.3728e-05
6.1761e-07
1.36394e-05
4.66546e-07
1.36274e-05
1.20986e-07
1.35703e-05
4.27614e-07
1.3468e-05
-1.16295e-07
8.92115e-07
1.31312e-05
1.32567e-05
4.93817e-06
1.36469e-05
5.45822e-06
1.38947e-05
2.53041e-06
1.40933e-05
2.13704e-06
1.43147e-05
1.60677e-06
1.44464e-05
1.74132e-06
1.44976e-05
1.68971e-06
1.45766e-05
1.20732e-06
1.46276e-05
1.05872e-06
1.46533e-05
1.18774e-06
1.46672e-05
7.09294e-07
1.47099e-05
6.03846e-07
1.46139e-05
1.09922e-06
1.46546e-05
2.28385e-07
1.46167e-05
6.55491e-07
1.4555e-05
5.28269e-07
1.45861e-05
8.98827e-08
1.45313e-05
4.82413e-07
1.45205e-05
-1.05536e-07
1.4245e-06
1.39881e-05
1.31974e-05
4.24078e-06
1.3562e-05
5.09365e-06
1.37891e-05
2.3033e-06
1.40431e-05
1.88297e-06
1.4216e-05
1.43393e-06
1.43542e-05
1.60313e-06
1.44304e-05
1.61343e-06
1.45137e-05
1.12403e-06
1.46011e-05
9.71369e-07
1.47146e-05
1.07425e-06
1.47851e-05
6.38788e-07
1.49051e-05
4.8378e-07
1.48907e-05
1.11368e-06
1.49708e-05
1.48232e-07
1.50194e-05
6.06905e-07
1.50122e-05
5.35519e-07
1.50743e-05
2.77734e-08
1.5114e-05
4.42738e-07
1.52777e-05
-2.69241e-07
8.01584e-07
1.59006e-05
1.31447e-05
3.59608e-06
1.35137e-05
4.72461e-06
1.36667e-05
2.1503e-06
1.39758e-05
1.57394e-06
1.4165e-05
1.24468e-06
1.4283e-05
1.48513e-06
1.43626e-05
1.53389e-06
1.44407e-05
1.04589e-06
1.45024e-05
9.09629e-07
1.46292e-05
9.47481e-07
1.47307e-05
5.37328e-07
1.48633e-05
3.51115e-07
1.48853e-05
1.09172e-06
1.49678e-05
6.5686e-08
1.5078e-05
4.96759e-07
1.51026e-05
5.10928e-07
1.51873e-05
-5.69445e-08
1.53405e-05
2.89505e-07
1.55012e-05
-4.29952e-07
4.2983e-07
1.5873e-05
1.30909e-05
3.00522e-06
1.34842e-05
4.33128e-06
1.35656e-05
2.06886e-06
1.38672e-05
1.27242e-06
1.40833e-05
1.02856e-06
1.42265e-05
1.34193e-06
1.43425e-05
1.41785e-06
1.44298e-05
9.58551e-07
1.44339e-05
9.05583e-07
1.45309e-05
8.5044e-07
1.46365e-05
4.31802e-07
1.47613e-05
2.26239e-07
1.48047e-05
1.04838e-06
1.49023e-05
-3.19199e-08
1.50457e-05
3.53305e-07
1.50889e-05
4.67721e-07
1.5188e-05
-1.55962e-07
1.53472e-05
1.30282e-07
1.54261e-05
-5.08832e-07
4.45653e-08
1.58113e-05
1.30164e-05
2.48884e-06
1.34167e-05
3.93095e-06
1.35334e-05
1.95217e-06
1.37973e-05
1.00848e-06
1.39765e-05
8.49345e-07
1.41621e-05
1.15634e-06
1.43215e-05
1.25847e-06
1.44132e-05
8.66908e-07
1.43764e-05
9.42382e-07
1.44645e-05
7.6232e-07
1.45705e-05
3.25734e-07
1.46824e-05
1.14363e-07
1.47567e-05
9.74146e-07
1.48572e-05
-1.32495e-07
1.49776e-05
2.32968e-07
1.50322e-05
4.13054e-07
1.51444e-05
-2.68168e-07
1.52627e-05
1.19717e-08
1.53527e-05
-5.98791e-07
-4.96117e-07
1.58934e-05
1.2919e-05
2.0698e-06
1.33667e-05
3.48325e-06
1.35848e-05
1.73408e-06
1.37706e-05
8.22703e-07
1.38962e-05
7.23781e-07
1.40723e-05
9.80242e-07
1.42321e-05
1.09864e-06
1.43599e-05
7.39078e-07
1.43451e-05
9.57231e-07
1.4454e-05
6.53369e-07
1.45623e-05
2.1753e-07
1.46438e-05
3.2792e-08
1.47282e-05
8.8973e-07
1.477e-05
-1.74213e-07
1.48474e-05
1.55572e-07
1.49331e-05
3.27278e-07
1.50651e-05
-4.00136e-07
1.51972e-05
-1.20173e-07
1.53805e-05
-7.82048e-07
-8.75876e-07
1.57603e-05
1.28628e-05
1.70702e-06
1.33711e-05
2.9749e-06
1.36286e-05
1.47657e-06
1.37261e-05
7.25281e-07
1.38349e-05
6.14944e-07
1.39835e-05
8.31635e-07
1.41337e-05
9.48438e-07
1.43084e-05
5.64404e-07
1.43451e-05
9.20482e-07
1.44529e-05
5.45551e-07
1.45367e-05
1.33801e-07
1.45898e-05
-2.03211e-08
1.46729e-05
8.06585e-07
1.46761e-05
-1.77382e-07
1.4753e-05
7.87163e-08
1.48891e-05
1.91109e-07
1.50122e-05
-5.23231e-07
1.51773e-05
-2.85213e-07
1.53478e-05
-9.5257e-07
-9.93755e-07
1.54657e-05
1.28484e-05
1.35862e-06
1.33505e-05
2.47284e-06
1.3582e-05
1.245e-06
1.36795e-05
6.27842e-07
1.37942e-05
5.00189e-07
1.39426e-05
6.83293e-07
1.40907e-05
8.00276e-07
1.42807e-05
3.74408e-07
1.43349e-05
8.66335e-07
1.44114e-05
4.68999e-07
1.44805e-05
6.47038e-08
1.45244e-05
-6.41661e-08
1.46272e-05
7.03718e-07
1.46549e-05
-2.05061e-07
1.47384e-05
-4.79075e-09
1.48703e-05
5.92236e-08
1.49678e-05
-6.20691e-07
1.51294e-05
-4.46898e-07
1.5206e-05
-1.02913e-06
-1.24668e-06
1.54589e-05
1.28159e-05
1.04272e-06
1.32783e-05
2.01043e-06
1.35509e-05
9.72372e-07
1.3686e-05
4.92762e-07
1.37741e-05
4.12079e-07
1.39163e-05
5.41139e-07
1.40718e-05
6.44738e-07
1.42452e-05
2.01028e-07
1.42873e-05
8.2428e-07
1.43637e-05
3.92557e-07
1.44625e-05
-3.41406e-08
1.44903e-05
-9.18832e-08
1.46253e-05
5.68651e-07
1.46594e-05
-2.39135e-07
1.47375e-05
-8.28592e-08
1.48076e-05
-1.09041e-08
1.49147e-05
-7.27767e-07
1.50427e-05
-5.74953e-07
1.51159e-05
-1.10227e-06
-1.8533e-06
1.57225e-05
1.27654e-05
7.77289e-07
1.32466e-05
1.52921e-06
1.35702e-05
6.48805e-07
1.36871e-05
3.75829e-07
1.37352e-05
3.64044e-07
1.38882e-05
3.88128e-07
1.40504e-05
4.82508e-07
1.4189e-05
6.24589e-08
1.42529e-05
7.60377e-07
1.4357e-05
2.88407e-07
1.44598e-05
-1.36937e-07
1.44674e-05
-9.94783e-08
1.46188e-05
4.17291e-07
1.46287e-05
-2.49018e-07
1.47138e-05
-1.68005e-07
1.47666e-05
-6.3651e-08
1.48711e-05
-8.3229e-07
1.49864e-05
-6.90272e-07
1.5015e-05
-1.13081e-06
-9.72854e-07
1.41345e-05
1.27526e-05
5.24643e-07
1.32683e-05
1.01355e-06
1.35518e-05
3.65284e-07
1.36313e-05
2.96339e-07
1.3705e-05
2.90381e-07
1.38954e-05
1.97758e-07
1.40338e-05
3.44084e-07
1.41486e-05
-5.23326e-08
1.4259e-05
6.49908e-07
1.43599e-05
1.87526e-07
1.44148e-05
-1.91817e-07
1.44272e-05
-1.11863e-07
1.45809e-05
2.63538e-07
1.46129e-05
-2.80999e-07
1.46923e-05
-2.47362e-07
1.47775e-05
-1.48922e-07
1.48292e-05
-8.83987e-07
1.49797e-05
-8.40737e-07
1.51416e-05
-1.29266e-06
-1.33914e-06
1.55078e-05
1.27638e-05
2.60806e-07
1.32555e-05
5.21894e-07
1.34853e-05
1.3543e-07
1.36068e-05
1.7488e-07
1.37378e-05
1.59361e-07
1.39106e-05
2.49794e-08
1.40059e-05
2.48823e-07
1.41238e-05
-1.70302e-07
1.42615e-05
5.12278e-07
1.43373e-05
1.1172e-07
1.43839e-05
-2.38468e-07
1.44109e-05
-1.38794e-07
1.45682e-05
1.06145e-07
1.46298e-05
-3.42578e-07
1.46819e-05
-2.99438e-07
1.47598e-05
-2.26846e-07
1.48018e-05
-9.25941e-07
1.49922e-05
-1.03114e-06
1.50554e-05
-1.35588e-06
-1.62149e-06
1.53378e-05
1.27593e-05
1.49212e-09
1.32099e-05
7.13438e-08
1.34637e-05
-1.18396e-07
1.36565e-05
-1.79575e-08
1.37672e-05
4.87207e-08
1.38786e-05
-8.64611e-08
1.39727e-05
1.54748e-07
1.41146e-05
-3.12269e-07
1.42562e-05
3.70745e-07
1.43258e-05
4.21053e-08
1.43931e-05
-3.05812e-07
1.44262e-05
-1.71893e-07
1.45678e-05
-3.53665e-08
1.46295e-05
-4.04283e-07
1.46527e-05
-3.22692e-07
1.47388e-05
-3.12908e-07
1.48212e-05
-1.00841e-06
1.49625e-05
-1.17242e-06
1.50004e-05
-1.39378e-06
-2.12177e-06
1.55007e-05
1.27461e-05
-2.44602e-07
1.31956e-05
-3.78186e-07
1.34956e-05
-4.18392e-07
1.3686e-05
-2.08293e-07
1.37425e-05
-7.85684e-09
1.3849e-05
-1.92904e-07
1.39822e-05
2.15049e-08
1.41288e-05
-4.58829e-07
1.42651e-05
2.34406e-07
1.43243e-05
-1.70476e-08
1.44012e-05
-3.82774e-07
1.44251e-05
-1.95732e-07
1.45551e-05
-1.65427e-07
1.46047e-05
-4.53816e-07
1.46429e-05
-3.60935e-07
1.4755e-05
-4.25014e-07
1.48596e-05
-1.113e-06
1.49022e-05
-1.21499e-06
1.50402e-05
-1.53179e-06
-2.7842e-06
1.57026e-05
1.27446e-05
-4.89194e-07
1.32173e-05
-8.50892e-07
1.35234e-05
-7.24501e-07
1.36661e-05
-3.50975e-07
1.3724e-05
-6.57874e-08
1.38692e-05
-3.38061e-07
1.40112e-05
-1.2054e-07
1.41329e-05
-5.80488e-07
1.42637e-05
1.03609e-07
1.43203e-05
-7.36705e-08
1.44076e-05
-4.70094e-07
1.44355e-05
-2.23592e-07
1.45504e-05
-2.80315e-07
1.46033e-05
-5.06796e-07
1.467e-05
-4.27577e-07
1.47841e-05
-5.39078e-07
1.48591e-05
-1.18801e-06
1.48859e-05
-1.2418e-06
1.49365e-05
-1.58239e-06
-1.76205e-06
1.39143e-05
1.27622e-05
-7.51397e-07
1.32482e-05
-1.33691e-06
1.3525e-05
-1.00129e-06
1.36432e-05
-4.69166e-07
1.37437e-05
-1.66332e-07
1.39014e-05
-4.9574e-07
1.40211e-05
-2.40215e-07
1.41318e-05
-6.91203e-07
1.42606e-05
-2.5217e-08
1.43354e-05
-1.48379e-07
1.44226e-05
-5.57313e-07
1.44676e-05
-2.68632e-07
1.45498e-05
-3.62467e-07
1.46276e-05
-5.8464e-07
1.46901e-05
-4.9009e-07
1.48005e-05
-6.49453e-07
1.48275e-05
-1.21504e-06
1.49238e-05
-1.33808e-06
1.50598e-05
-1.71839e-06
-2.07495e-06
1.53727e-05
1.27881e-05
-1.0395e-06
1.32614e-05
-1.81025e-06
1.35249e-05
-1.26469e-06
1.36518e-05
-5.96091e-07
1.37787e-05
-2.93237e-07
1.39211e-05
-6.38134e-07
1.40372e-05
-3.5638e-07
1.4146e-05
-7.99985e-07
1.42725e-05
-1.51675e-07
1.4355e-05
-2.3088e-07
1.44475e-05
-6.49877e-07
1.44911e-05
-3.12159e-07
1.45531e-05
-4.24465e-07
1.4646e-05
-6.77561e-07
1.47034e-05
-5.475e-07
1.48097e-05
-7.5571e-07
1.48202e-05
-1.22554e-06
1.49711e-05
-1.48906e-06
1.50803e-05
-1.82754e-06
-2.37766e-06
1.5383e-05
1.28081e-05
-1.34758e-06
1.32766e-05
-2.27881e-06
1.35533e-05
-1.54136e-06
1.36788e-05
-7.21562e-07
1.38065e-05
-4.20967e-07
1.39413e-05
-7.72995e-07
1.40635e-05
-4.78546e-07
1.41684e-05
-9.04821e-07
1.42895e-05
-2.72866e-07
1.4385e-05
-3.26385e-07
1.44718e-05
-7.36614e-07
1.45256e-05
-3.65996e-07
1.45615e-05
-4.6039e-07
1.46777e-05
-7.93667e-07
1.47296e-05
-5.9946e-07
1.48178e-05
-8.43852e-07
1.48554e-05
-1.26315e-06
1.50058e-05
-1.63954e-06
1.50902e-05
-1.91189e-06
-2.73041e-06
1.54429e-05
1.28327e-05
-1.68026e-06
1.33162e-05
-2.76229e-06
1.35891e-05
-1.81427e-06
1.36949e-05
-8.27436e-07
1.38334e-05
-5.59437e-07
1.39719e-05
-9.11474e-07
1.40987e-05
-6.05373e-07
1.41987e-05
-1.00482e-06
1.43236e-05
-3.977e-07
1.44198e-05
-4.2265e-07
1.45031e-05
-8.19882e-07
1.45509e-05
-4.13775e-07
1.45951e-05
-5.04604e-07
1.47103e-05
-9.08901e-07
1.47712e-05
-6.60324e-07
1.48226e-05
-8.95242e-07
1.49267e-05
-1.36726e-06
1.49884e-05
-1.70121e-06
1.5088e-05
-2.01156e-06
-3.24009e-06
1.55977e-05
1.28692e-05
-2.04946e-06
1.3364e-05
-3.25712e-06
1.3616e-05
-2.06622e-06
1.37183e-05
-9.29788e-07
1.38762e-05
-7.17318e-07
1.40128e-05
-1.04805e-06
1.41401e-05
-7.32638e-07
1.42399e-05
-1.1047e-06
1.43662e-05
-5.23961e-07
1.44538e-05
-5.1021e-07
1.45359e-05
-9.02044e-07
1.45867e-05
-4.64506e-07
1.46438e-05
-5.61728e-07
1.47493e-05
-1.01438e-06
1.48048e-05
-7.15884e-07
1.48508e-05
-9.41197e-07
1.49684e-05
-1.4849e-06
1.4984e-05
-1.71682e-06
1.50597e-05
-2.08725e-06
-2.28757e-06
1.41072e-05
1.29161e-05
-2.46555e-06
1.34232e-05
-3.76419e-06
1.36195e-05
-2.26257e-06
1.37491e-05
-1.05937e-06
1.39216e-05
-8.89844e-07
1.4059e-05
-1.18544e-06
1.41859e-05
-8.59508e-07
1.42892e-05
-1.20807e-06
1.4415e-05
-6.49712e-07
1.44974e-05
-5.92616e-07
1.45762e-05
-9.80833e-07
1.4647e-05
-5.35353e-07
1.46872e-05
-6.01877e-07
1.48e-05
-1.1272e-06
1.48218e-05
-7.37713e-07
1.49176e-05
-1.03699e-06
1.49592e-05
-1.52643e-06
1.50611e-05
-1.81879e-06
1.52165e-05
-2.24261e-06
-2.77163e-06
1.57005e-05
1.29808e-05
-2.94631e-06
1.34923e-05
-4.27574e-06
1.36219e-05
-2.39212e-06
1.37723e-05
-1.20977e-06
1.39769e-05
-1.09448e-06
1.41101e-05
-1.31867e-06
1.42428e-05
-9.92195e-07
1.43457e-05
-1.31096e-06
1.44703e-05
-7.74314e-07
1.45412e-05
-6.63567e-07
1.46353e-05
-1.07494e-06
1.46941e-05
-5.94118e-07
1.47441e-05
-6.5186e-07
1.48327e-05
-1.21584e-06
1.48804e-05
-7.8541e-07
1.49535e-05
-1.1101e-06
1.49836e-05
-1.55644e-06
1.51525e-05
-1.98773e-06
1.52572e-05
-2.34734e-06
-3.11673e-06
1.56023e-05
1.30555e-05
-3.50178e-06
1.35534e-05
-4.77367e-06
1.36344e-05
-2.47313e-06
1.38111e-05
-1.38649e-06
1.40483e-05
-1.33164e-06
1.41666e-05
-1.43701e-06
1.4309e-05
-1.13457e-06
1.4408e-05
-1.40999e-06
1.45185e-05
-8.84803e-07
1.45953e-05
-7.40354e-07
1.4697e-05
-1.1766e-06
1.4743e-05
-6.40169e-07
1.48057e-05
-7.14514e-07
1.48809e-05
-1.29108e-06
1.49441e-05
-8.48607e-07
1.49891e-05
-1.15511e-06
1.50557e-05
-1.62298e-06
1.51957e-05
-2.12778e-06
1.52559e-05
-2.40755e-06
-3.41805e-06
1.55572e-05
1.31347e-05
-4.13649e-06
1.36054e-05
-5.24434e-06
1.36559e-05
-2.52369e-06
1.38783e-05
-1.60885e-06
1.4127e-05
-1.58037e-06
1.42297e-05
-1.53973e-06
1.43887e-05
-1.29351e-06
1.44756e-05
-1.49687e-06
1.4571e-05
-9.80213e-07
1.46713e-05
-8.40632e-07
1.4755e-05
-1.26031e-06
1.48003e-05
-6.85513e-07
1.48732e-05
-7.87376e-07
1.49339e-05
-1.35181e-06
1.49896e-05
-9.04266e-07
1.50284e-05
-1.19396e-06
1.50765e-05
-1.6711e-06
1.51225e-05
-2.17376e-06
1.51197e-05
-2.40468e-06
-3.61336e-06
1.5315e-05
1.3219e-05
-4.85547e-06
1.36383e-05
-5.66369e-06
1.37008e-05
-2.58617e-06
1.39736e-05
-1.88162e-06
1.42089e-05
-1.81569e-06
1.43149e-05
-1.64578e-06
1.44845e-05
-1.46302e-06
1.45453e-05
-1.55768e-06
1.4637e-05
-1.072e-06
1.47465e-05
-9.50052e-07
1.47815e-05
-1.29539e-06
1.48278e-05
-7.31792e-07
1.48898e-05
-8.49364e-07
1.48898e-05
-1.35182e-06
1.4914e-05
-9.2845e-07
1.48996e-05
-1.17952e-06
1.48573e-05
-1.62887e-06
1.4764e-05
-2.08039e-06
1.46413e-05
-2.28199e-06
-3.67318e-06
1.47011e-05
1.32959e-05
-5.65141e-06
1.36577e-05
-6.02546e-06
1.37911e-05
-2.71954e-06
1.40896e-05
-2.1801e-06
1.43067e-05
-2.03285e-06
1.44239e-05
-1.76294e-06
1.4556e-05
-1.59514e-06
1.45708e-05
-1.57241e-06
1.46311e-05
-1.13236e-06
1.46822e-05
-1.00116e-06
1.46266e-05
-1.23973e-06
1.46331e-05
-7.38376e-07
1.4616e-05
-8.32221e-07
1.45111e-05
-1.2469e-06
1.4463e-05
-8.80337e-07
1.43587e-05
-1.07528e-06
1.4207e-05
-1.47714e-06
1.39901e-05
-1.86352e-06
1.37255e-05
-2.01731e-06
-2.74299e-06
1.27953e-05
1.33731e-05
-6.52454e-06
1.36458e-05
-6.29809e-06
1.39288e-05
-3.00262e-06
1.42113e-05
-2.46257e-06
1.4366e-05
-2.1875e-06
1.44149e-05
-1.81192e-06
1.44124e-05
-1.59261e-06
1.43146e-05
-1.47458e-06
1.42599e-05
-1.07767e-06
1.41795e-05
-9.20788e-07
1.40138e-05
-1.07402e-06
1.39402e-05
-6.64744e-07
1.38263e-05
-7.18328e-07
1.36368e-05
-1.05741e-06
1.35216e-05
-7.65101e-07
1.33524e-05
-9.06072e-07
1.31235e-05
-1.24829e-06
1.28353e-05
-1.57529e-06
1.25243e-05
-1.7063e-06
-2.51067e-06
1.22919e-05
1.34793e-05
-7.50385e-06
1.37169e-05
-6.53571e-06
1.40096e-05
-3.29526e-06
1.41344e-05
-2.58745e-06
1.4068e-05
-2.12107e-06
1.3911e-05
-1.65487e-06
1.36987e-05
-1.38036e-06
1.34505e-05
-1.22631e-06
1.3265e-05
-8.9224e-07
1.30761e-05
-7.31913e-07
1.28444e-05
-8.42299e-07
1.27146e-05
-5.34865e-07
1.25472e-05
-5.50948e-07
1.23209e-05
-8.31161e-07
1.21688e-05
-6.13032e-07
1.19671e-05
-7.04311e-07
1.17012e-05
-9.82389e-07
1.13785e-05
-1.25258e-06
1.10148e-05
-1.34261e-06
-1.81448e-06
1.03186e-05
1.35829e-05
-8.58671e-06
1.36374e-05
-6.59029e-06
1.36399e-05
-3.2977e-06
1.33922e-05
-2.33975e-06
1.30085e-05
-1.73742e-06
1.2634e-05
-1.28037e-06
1.22736e-05
-1.01997e-06
1.19413e-05
-8.93966e-07
1.1693e-05
-6.44009e-07
1.1465e-05
-5.03867e-07
1.12209e-05
-5.98212e-07
1.10707e-05
-3.84693e-07
1.08907e-05
-3.70875e-07
1.0661e-05
-6.01491e-07
1.04958e-05
-4.47805e-07
1.02862e-05
-4.94749e-07
1.00133e-05
-7.09515e-07
9.67807e-06
-9.17316e-07
9.30965e-06
-9.7418e-07
-1.25711e-06
8.75228e-06
1.34032e-05
-9.48991e-06
1.28762e-05
-6.06326e-06
1.23406e-05
-2.76209e-06
1.17087e-05
-1.70789e-06
1.11262e-05
-1.15498e-06
1.06633e-05
-8.17462e-07
1.02731e-05
-6.29694e-07
9.93858e-06
-5.59479e-07
9.69011e-06
-3.95537e-07
9.47559e-06
-2.89344e-07
9.25205e-06
-3.74676e-07
9.10733e-06
-2.39971e-07
8.94458e-06
-2.08126e-07
8.73205e-06
-3.88963e-07
8.57188e-06
-2.87631e-07
8.37719e-06
-3.00059e-07
8.1192e-06
-4.51521e-07
7.79961e-06
-5.9773e-07
7.4465e-06
-6.21067e-07
-7.87372e-07
6.97676e-06
1.24175e-05
-9.40741e-06
1.09976e-05
-4.64332e-06
9.99154e-06
-1.75607e-06
9.19706e-06
-9.13418e-07
8.61248e-06
-5.70396e-07
8.19086e-06
-3.95841e-07
7.85804e-06
-2.96875e-07
7.57567e-06
-2.77109e-07
7.36901e-06
-1.88878e-07
7.20183e-06
-1.22162e-07
7.01841e-06
-1.91252e-07
6.89779e-06
-1.19355e-07
6.7731e-06
-8.34331e-08
6.59121e-06
-2.07077e-07
6.45238e-06
-1.48797e-07
6.29259e-06
-1.40266e-07
6.07083e-06
-2.29761e-07
5.79036e-06
-3.17258e-07
5.482e-06
-3.1271e-07
-3.9698e-07
5.09161e-06
1.01061e-05
-7.01346e-06
7.82641e-06
-2.36367e-06
6.71751e-06
-6.47168e-07
6.06079e-06
-2.5669e-07
5.63929e-06
-1.48903e-07
5.34797e-06
-1.04517e-07
5.12555e-06
-7.44518e-08
4.92821e-06
-7.97772e-08
4.79053e-06
-5.11929e-08
4.69019e-06
-2.18203e-08
4.55869e-06
-5.97591e-08
4.47565e-06
-3.63092e-08
4.403e-06
-1.07845e-08
4.26396e-06
-6.80324e-08
4.16274e-06
-4.75774e-08
4.05584e-06
-3.33698e-08
3.89354e-06
-6.74581e-08
3.67882e-06
-1.02541e-07
3.45572e-06
-8.96118e-08
-1.20001e-07
3.17875e-06
5.48654e-06
3.12287e-06
2.4757e-06
2.21901e-06
2.0701e-06
1.96559e-06
1.89114e-06
1.81136e-06
1.76017e-06
1.73835e-06
1.67859e-06
1.64228e-06
1.63149e-06
1.56346e-06
1.51588e-06
1.48251e-06
1.41506e-06
1.31251e-06
1.2229e-06
1.1029e-06
1.61095e-06
6.39808e-07
-1.06509e-06
2.13778e-06
4.15477e-07
-9.42304e-07
2.44112e-06
2.99885e-07
-6.03228e-07
2.4716e-06
3.37394e-07
-3.6787e-07
2.70962e-06
8.4886e-07
-1.08688e-06
3.32117e-06
1.44613e-06
-2.05768e-06
4.11677e-06
1.81074e-06
-2.60635e-06
5.40104e-06
2.14444e-06
-3.42871e-06
6.26755e-06
2.69759e-06
-3.5641e-06
6.95425e-06
2.9977e-06
-3.6844e-06
7.67733e-06
1.39505e-06
-2.11812e-06
8.45508e-06
-4.52184e-07
-3.25565e-07
9.57474e-06
-8.71905e-07
-2.47758e-07
1.06474e-05
-1.05493e-06
-1.7759e-08
1.14102e-05
-2.06926e-06
1.30648e-06
1.20811e-05
-2.59533e-06
1.92448e-06
1.25684e-05
-3.86927e-06
3.38197e-06
1.29789e-05
-5.2974e-06
4.88686e-06
1.35456e-05
-6.28727e-06
5.72055e-06
1.43866e-05
-8.76814e-06
7.92718e-06
1.54624e-05
-1.0659e-05
9.58319e-06
1.62455e-05
-1.26723e-05
1.18892e-05
1.66747e-05
-1.50371e-05
1.46079e-05
1.68613e-05
-1.62901e-05
1.61035e-05
1.66967e-05
-1.77851e-05
1.79497e-05
1.63005e-05
-1.8092e-05
1.84882e-05
1.58406e-05
-1.82246e-05
1.86844e-05
1.54805e-05
-1.84073e-05
1.87674e-05
1.52288e-05
-1.78868e-05
1.81385e-05
1.50404e-05
-1.77895e-05
1.79779e-05
1.5059e-05
-1.74537e-05
1.74352e-05
1.5099e-05
-1.6925e-05
1.6885e-05
1.50667e-05
-1.58618e-05
1.5894e-05
1.51441e-05
-1.55198e-05
1.54424e-05
1.52363e-05
-1.43057e-05
1.42135e-05
1.51475e-05
-1.2476e-05
1.25648e-05
1.50151e-05
-1.16643e-05
1.17967e-05
1.48049e-05
-9.18208e-06
9.39223e-06
1.45333e-05
-7.40452e-06
7.67619e-06
1.42235e-05
-6.03548e-06
6.3452e-06
1.36245e-05
-3.14802e-06
3.74708e-06
1.29692e-05
-2.22845e-06
2.88372e-06
1.23499e-05
-1.48168e-06
2.10099e-06
1.16789e-05
9.10394e-07
-2.39423e-07
1.11363e-05
8.28446e-07
-2.85795e-07
1.08155e-05
1.10989e-06
-7.89118e-07
1.02117e-05
3.23149e-06
-2.6277e-06
9.55348e-06
3.57718e-06
-2.91894e-06
9.29121e-06
2.90829e-06
-2.64602e-06
9.12949e-06
3.01851e-06
-2.85679e-06
8.76163e-06
3.81018e-06
-3.44233e-06
8.43672e-06
4.23112e-06
-3.90621e-06
8.26218e-06
5.42269e-06
-5.24815e-06
7.9643e-06
6.99041e-06
-6.69253e-06
7.24542e-06
5.94898e-06
-5.23009e-06
6.62275e-06
2.92748e-06
-2.30482e-06
7.03161e-06
3.19305e-06
-3.60191e-06
8.14618e-06
8.98949e-06
-1.01041e-05
9.1165e-06
1.63377e-05
-1.7308e-05
9.54277e-06
2.13534e-05
-2.17796e-05
9.41079e-06
2.31798e-05
-2.30478e-05
8.97384e-06
2.30367e-05
-2.25997e-05
8.49768e-06
2.26683e-05
-2.21921e-05
8.10657e-06
2.29454e-05
-2.25543e-05
7.81881e-06
2.36731e-05
-2.33853e-05
7.63996e-06
2.38253e-05
-2.36465e-05
7.60109e-06
2.21998e-05
-2.21609e-05
7.61395e-06
1.84576e-05
-1.84705e-05
7.59125e-06
1.36565e-05
-1.36338e-05
7.5029e-06
8.81769e-06
-8.72933e-06
7.35214e-06
3.58473e-06
-3.43398e-06
7.37141e-06
-2.50873e-06
2.48946e-06
7.69357e-06
-7.95559e-06
7.63342e-06
8.01315e-06
-1.13789e-05
1.10593e-05
8.03318e-06
-1.36173e-05
1.35973e-05
7.91352e-06
-1.70269e-05
1.71466e-05
8.0023e-06
-2.08235e-05
2.07347e-05
8.20048e-06
-2.37294e-05
2.35313e-05
8.28765e-06
-2.76154e-05
2.75283e-05
8.40373e-06
-3.05336e-05
3.04175e-05
8.5667e-06
-2.91673e-05
2.90043e-05
8.55804e-06
-2.44068e-05
2.44154e-05
8.45237e-06
-2.08137e-05
2.09194e-05
8.39201e-06
-1.9804e-05
1.98644e-05
8.19413e-06
-1.99886e-05
2.01865e-05
8.06223e-06
-2.13295e-05
2.14614e-05
8.01906e-06
-2.212e-05
2.21632e-05
7.87784e-06
-2.35911e-05
2.37323e-05
7.80961e-06
-2.59177e-05
2.59859e-05
8.05021e-06
-2.57451e-05
2.55045e-05
8.14584e-06
-2.37299e-05
2.36342e-05
7.96876e-06
-2.38718e-05
2.40489e-05
8.09199e-06
-2.41772e-05
2.4054e-05
8.21533e-06
-2.06135e-05
2.04902e-05
8.36925e-06
-1.57375e-05
1.55836e-05
8.88778e-06
-1.1038e-05
1.05195e-05
9.10963e-06
-8.22031e-06
7.99846e-06
8.99375e-06
-4.31059e-06
4.42647e-06
9.00227e-06
3.90941e-06
-3.91793e-06
9.06254e-06
9.93429e-06
-9.99456e-06
9.02873e-06
1.20082e-05
-1.19744e-05
8.95689e-06
1.56683e-05
-1.55964e-05
8.96204e-06
2.13966e-05
-2.14017e-05
8.87219e-06
2.40519e-05
-2.3962e-05
8.87806e-06
2.38554e-05
-2.38613e-05
9.08046e-06
2.59464e-05
-2.61488e-05
9.26447e-06
2.94566e-05
-2.96406e-05
9.29569e-06
3.15828e-05
-3.1614e-05
9.07676e-06
3.21776e-05
-3.19587e-05
8.55256e-06
3.02822e-05
-2.9758e-05
7.76547e-06
2.70768e-05
-2.62897e-05
6.91426e-06
2.40076e-05
-2.31564e-05
6.04924e-06
2.06882e-05
-1.98232e-05
5.50195e-06
1.85228e-05
-1.79755e-05
5.38176e-06
1.80227e-05
-1.79025e-05
5.49778e-06
1.77451e-05
-1.78612e-05
5.70819e-06
1.71916e-05
-1.7402e-05
5.90386e-06
1.58248e-05
-1.60205e-05
5.97966e-06
1.43293e-05
-1.44051e-05
6.03895e-06
1.23299e-05
-1.23892e-05
6.20943e-06
9.91404e-06
-1.00845e-05
6.47237e-06
7.87859e-06
-8.14152e-06
6.81885e-06
5.71355e-06
-6.06003e-06
7.14886e-06
3.62592e-06
-3.95593e-06
7.71826e-06
1.34369e-06
-1.91309e-06
8.21158e-06
-2.33943e-06
1.84611e-06
8.54789e-06
-4.37702e-06
4.04071e-06
8.85041e-06
-4.08445e-06
3.78193e-06
8.95429e-06
-5.04371e-06
4.93982e-06
8.90754e-06
-6.45666e-06
6.50341e-06
8.83724e-06
-7.26226e-06
7.33257e-06
8.74779e-06
-8.69836e-06
8.7878e-06
8.62088e-06
-9.6643e-06
9.79121e-06
8.30883e-06
-9.13567e-06
9.44772e-06
8.14302e-06
-8.12912e-06
8.29493e-06
8.26001e-06
-7.57285e-06
7.45586e-06
8.55676e-06
-8.29922e-06
8.00247e-06
8.75087e-06
-9.03307e-06
8.83896e-06
8.67994e-06
-8.55978e-06
8.63071e-06
8.58115e-06
-8.43641e-06
8.5352e-06
8.46848e-06
-9.05131e-06
9.16398e-06
8.35136e-06
-9.8709e-06
9.98803e-06
8.03155e-06
-9.35057e-06
9.67038e-06
7.52343e-06
-9.04473e-06
9.55284e-06
6.97127e-06
-9.27279e-06
9.82495e-06
6.56473e-06
-9.8647e-06
1.02712e-05
6.28038e-06
-9.53271e-06
9.81706e-06
6.22503e-06
-7.17519e-06
7.23054e-06
6.34861e-06
-5.41915e-06
5.29557e-06
6.36345e-06
-4.28285e-06
4.26801e-06
6.39196e-06
-5.11045e-06
5.08194e-06
6.64402e-06
-8.37208e-06
8.12002e-06
7.22495e-06
-1.21116e-05
1.15307e-05
7.75234e-06
-1.36696e-05
1.31422e-05
8.06888e-06
-1.57254e-05
1.54089e-05
8.373e-06
-1.76321e-05
1.7328e-05
8.55429e-06
-1.78827e-05
1.77014e-05
8.59352e-06
-1.91445e-05
1.91053e-05
8.71569e-06
-2.0815e-05
2.06929e-05
8.67259e-06
-2.12648e-05
2.13079e-05
8.75434e-06
-2.17192e-05
2.16374e-05
8.89648e-06
-2.07426e-05
2.06004e-05
9.02784e-06
-1.96371e-05
1.95057e-05
9.26179e-06
-1.80259e-05
1.77919e-05
9.37372e-06
-1.47933e-05
1.46814e-05
9.44833e-06
-1.132e-05
1.12454e-05
9.62769e-06
-7.06436e-06
6.88501e-06
9.79699e-06
-1.2246e-06
1.05529e-06
9.65559e-06
4.25858e-06
-4.11718e-06
9.54666e-06
7.72458e-06
-7.61564e-06
9.5699e-06
1.04563e-05
-1.04795e-05
9.58718e-06
1.37728e-05
-1.37901e-05
9.80116e-06
1.7077e-05
-1.7291e-05
1.0019e-05
1.93145e-05
-1.95323e-05
1.03097e-05
2.06501e-05
-2.09407e-05
1.06961e-05
2.29778e-05
-2.33643e-05
1.10799e-05
2.66741e-05
-2.70578e-05
1.1278e-05
2.96508e-05
-2.98489e-05
1.1289e-05
3.02808e-05
-3.02919e-05
1.11774e-05
2.92097e-05
-2.9098e-05
1.09587e-05
2.73572e-05
-2.71385e-05
1.08011e-05
2.50797e-05
-2.49221e-05
1.05006e-05
2.18386e-05
-2.1538e-05
9.70618e-06
1.77311e-05
-1.69367e-05
8.6443e-06
1.30409e-05
-1.1979e-05
8.25975e-06
8.81321e-06
-8.42866e-06
8.10415e-06
7.01612e-06
-6.86052e-06
7.95737e-06
6.47725e-06
-6.33047e-06
7.84881e-06
7.60393e-06
-7.49538e-06
7.90662e-06
8.31961e-06
-8.37742e-06
7.98273e-06
8.72038e-06
-8.79649e-06
7.807e-06
8.70934e-06
-8.53361e-06
7.46694e-06
8.78061e-06
-8.44056e-06
7.41164e-06
9.77192e-06
-9.71662e-06
7.3168e-06
1.10785e-05
-1.09836e-05
7.23556e-06
1.21618e-05
-1.20806e-05
7.15495e-06
1.54175e-05
-1.53369e-05
6.16466e-06
1.95314e-05
-1.85411e-05
5.16046e-06
1.76765e-05
-1.66723e-05
2.25932e-05
-2.22825e-05
4.84971e-06
4.04551e-06
4.85169e-07
4.3725e-06
8.84816e-08
4.59898e-06
7.34102e-08
4.7346e-06
2.01774e-07
5.11705e-06
4.66405e-07
5.45056e-06
1.11263e-06
5.82783e-06
1.43347e-06
6.69511e-06
1.27716e-06
7.57637e-06
1.81633e-06
8.51101e-06
2.06306e-06
9.10017e-06
8.05881e-07
9.39483e-06
-7.46843e-07
1.01702e-05
-1.64727e-06
1.1e-05
-1.88471e-06
1.16594e-05
-2.72873e-06
1.25363e-05
-3.4722e-06
1.31889e-05
-4.5219e-06
1.39058e-05
-6.0143e-06
1.48699e-05
-7.25132e-06
1.57108e-05
-9.60908e-06
1.65347e-05
-1.14829e-05
1.69875e-05
-1.31252e-05
1.71159e-05
-1.51655e-05
1.70883e-05
-1.62625e-05
1.66969e-05
-1.73936e-05
1.61594e-05
-1.75545e-05
1.57192e-05
-1.77843e-05
1.54128e-05
-1.81009e-05
1.52467e-05
-1.77206e-05
1.51235e-05
-1.76663e-05
1.51818e-05
-1.7512e-05
1.52908e-05
-1.7034e-05
1.53253e-05
-1.58963e-05
1.54196e-05
-1.56141e-05
1.5479e-05
-1.43651e-05
1.53898e-05
-1.23868e-05
1.52687e-05
-1.15432e-05
1.5039e-05
-8.95242e-06
1.47333e-05
-7.09885e-06
1.44614e-05
-5.76359e-06
1.3947e-05
-2.63353e-06
1.32765e-05
-1.55805e-06
1.26027e-05
-8.0781e-07
1.18492e-05
1.66391e-06
1.11986e-05
1.47896e-06
1.08771e-05
1.43146e-06
1.03085e-05
3.80006e-06
9.65749e-06
4.2282e-06
9.3397e-06
3.22607e-06
9.2033e-06
3.1549e-06
8.87486e-06
4.13863e-06
8.56568e-06
4.5403e-06
8.44768e-06
5.54069e-06
8.22622e-06
7.21187e-06
7.51202e-06
6.66318e-06
6.72909e-06
3.71042e-06
6.96477e-06
2.95737e-06
8.10898e-06
7.84528e-06
9.24694e-06
1.51997e-05
9.87585e-06
2.07245e-05
9.91589e-06
2.31397e-05
9.55923e-06
2.33933e-05
9.10041e-06
2.31271e-05
8.71797e-06
2.33278e-05
8.47777e-06
2.39133e-05
8.3756e-06
2.39275e-05
8.39108e-06
2.21843e-05
8.43973e-06
1.84089e-05
8.46283e-06
1.36335e-05
8.44134e-06
8.83917e-06
8.30488e-06
3.72119e-06
8.23474e-06
-2.43859e-06
8.42592e-06
-8.14677e-06
8.65937e-06
-1.16123e-05
8.62918e-06
-1.35871e-05
8.45798e-06
-1.68557e-05
8.50061e-06
-2.08661e-05
8.68388e-06
-2.39127e-05
8.75456e-06
-2.76861e-05
8.80476e-06
-3.05838e-05
8.83966e-06
-2.92022e-05
8.70504e-06
-2.42721e-05
8.49989e-06
-2.06086e-05
8.34168e-06
-1.96458e-05
8.09883e-06
-1.97458e-05
7.90773e-06
-2.11384e-05
7.80992e-06
-2.20222e-05
7.6427e-06
-2.34239e-05
7.52876e-06
-2.58038e-05
7.69181e-06
-2.59082e-05
7.78055e-06
-2.38186e-05
7.56434e-06
-2.36556e-05
7.58279e-06
-2.41957e-05
7.731e-06
-2.07617e-05
8.00421e-06
-1.60108e-05
8.57999e-06
-1.16138e-05
8.7997e-06
-8.44001e-06
8.59236e-06
-4.10325e-06
8.5142e-06
3.98757e-06
8.57588e-06
9.87261e-06
8.60172e-06
1.19823e-05
8.55535e-06
1.57147e-05
8.57484e-06
2.13771e-05
8.518e-06
2.41087e-05