/*--------------------------------*- C++ -*----------------------------------*\
| =========                 |                                                 |
| \\      /  F ield         | OpenFOAM: The Open Source CFD Toolbox           |
|  \\    /   O peration     | Version:  2.4.0                                 |
|   \\  /    A nd           | Web:      www.OpenFOAM.org                      |
|    \\/     M anipulation  |                                                 |
\*---------------------------------------------------------------------------*/
FoamFile
{
    version     2.0;
    format      ascii;
    class       volVectorField;
    location    "0.237";
    object      UMean;
}
// * * * * * * * * * * * * * * * * * * * * * * * * * * * * * * * * * * * * * //

dimensions      [0 1 -1 0 0 0 0];

internalField   nonuniform List<vector> 
17600
(
(5.33904 0.308208 0)
(3.01961 0.060709 0)
(2.23932 -0.00148457 0)
(1.89467 -0.00352844 0)
(1.757 -0.00131729 0)
(1.6639 -0.000164333 0)
(1.5984 -3.76796e-06 0)
(1.53865 -2.39891e-05 0)
(1.50386 -0.000150501 0)
(1.46666 -3.70635e-05 0)
(1.45 -9.19017e-05 0)
(1.42141 8.27828e-05 0)
(1.41261 -7.93551e-05 0)
(1.38821 4.64639e-05 0)
(1.388 -0.000235957 0)
(1.37207 -0.000158648 0)
(1.38535 -0.000567856 0)
(1.38971 -0.000510977 0)
(1.44711 -0.000819424 0)
(1.38405 -0.0338683 0)
(8.59578 0.867391 0)
(6.97579 0.380661 0)
(5.85912 0.12031 0)
(5.11158 0.0500736 0)
(4.71874 0.0273499 0)
(4.44847 0.0196569 0)
(4.26849 0.015237 0)
(4.10324 0.0116483 0)
(4.0058 0.00859859 0)
(3.89711 0.00681457 0)
(3.84915 0.00537014 0)
(3.76562 0.00499062 0)
(3.74224 0.00384574 0)
(3.67028 0.00358525 0)
(3.66812 0.00166634 0)
(3.61354 0.00120471 0)
(3.64024 -0.0021268 0)
(3.62366 -0.00576515 0)
(3.71749 -0.0040622 0)
(3.75634 -0.088577 0)
(9.84397 1.01587 0)
(9.35277 0.571928 0)
(8.51015 0.237907 0)
(7.68356 0.127848 0)
(7.15169 0.0794324 0)
(6.75659 0.0554787 0)
(6.49531 0.0420801 0)
(6.24832 0.032245 0)
(6.10388 0.024633 0)
(5.93418 0.0193762 0)
(5.86202 0.0156101 0)
(5.72969 0.0136624 0)
(5.69643 0.0111912 0)
(5.58151 0.00975256 0)
(5.57912 0.00612052 0)
(5.48578 0.00388214 0)
(5.52424 -0.00199272 0)
(5.46949 -0.00989522 0)
(5.59803 -0.0179093 0)
(5.62255 -0.113274 0)
(10.1456 0.941732 0)
(10.5587 0.6613 0)
(10.2751 0.325067 0)
(9.65983 0.206259 0)
(9.15909 0.143503 0)
(8.72334 0.103313 0)
(8.43075 0.0785905 0)
(8.13082 0.0604057 0)
(7.96106 0.0469404 0)
(7.74401 0.0370052 0)
(7.65754 0.0300894 0)
(7.48429 0.0260566 0)
(7.446 0.021499 0)
(7.29449 0.0190599 0)
(7.29296 0.0124755 0)
(7.16529 0.00961969 0)
(7.21187 -0.00159476 0)
(7.11891 -0.010593 0)
(7.26629 -0.036078 0)
(7.24534 -0.124846 0)
(10.0648 0.80105 0)
(10.9019 0.66222 0)
(11.1334 0.350693 0)
(10.8866 0.251298 0)
(10.5969 0.197449 0)
(10.2405 0.151521 0)
(9.99603 0.118502 0)
(9.69276 0.0923336 0)
(9.53329 0.0730499 0)
(9.29365 0.0578567 0)
(9.21024 0.0476871 0)
(9.01115 0.0406264 0)
(8.97604 0.0344801 0)
(8.79956 0.0294457 0)
(8.80166 0.0219953 0)
(8.65098 0.0145541 0)
(8.69672 0.0046844 0)
(8.5914 -0.0160883 0)
(8.70555 -0.0375177 0)
(8.70347 -0.162794 0)
(9.98494 0.687651 0)
(10.8349 0.629412 0)
(11.3077 0.328128 0)
(11.3464 0.247135 0)
(11.3345 0.217744 0)
(11.1607 0.182091 0)
(11.0615 0.149914 0)
(10.8302 0.120835 0)
(10.7346 0.0980856 0)
(10.5141 0.0792199 0)
(10.4598 0.0656569 0)
(10.2621 0.0567241 0)
(10.2413 0.0473347 0)
(10.062 0.0423766 0)
(10.0691 0.0295415 0)
(9.91676 0.025126 0)
(9.95548 0.00312193 0)
(9.85351 -0.00591251 0)
(9.9352 -0.0579158 0)
(9.934 -0.164493 0)
(9.97519 0.598659 0)
(10.706 0.596716 0)
(11.2295 0.299098 0)
(11.353 0.217078 0)
(11.5005 0.204442 0)
(11.473 0.184569 0)
(11.5435 0.160259 0)
(11.4353 0.134044 0)
(11.4581 0.112886 0)
(11.3104 0.0937978 0)
(11.3246 0.0799531 0)
(11.166 0.0696496 0)
(11.1841 0.0600768 0)
(11.0259 0.0524121 0)
(11.0555 0.0405327 0)
(10.913 0.0298117 0)
(10.9636 0.0117796 0)
(10.8606 -0.0105462 0)
(10.9398 -0.0556041 0)
(10.9126 -0.166897 0)
(9.99198 0.519883 0)
(10.6024 0.56084 0)
(11.1316 0.281405 0)
(11.2607 0.190117 0)
(11.4499 0.182112 0)
(11.4589 0.172471 0)
(11.61 0.15431 0)
(11.5811 0.131369 0)
(11.7002 0.112227 0)
(11.6398 0.0961122 0)
(11.7352 0.083083 0)
(11.6522 0.0753608 0)
(11.7281 0.0645753 0)
(11.6283 0.0598924 0)
(11.6945 0.0436476 0)
(11.5927 0.038196 0)
(11.6639 0.00858955 0)
(11.5819 -0.00120589 0)
(11.6677 -0.0733539 0)
(11.6147 -0.124209 0)
(10.0092 0.449336 0)
(10.5238 0.517251 0)
(11.0467 0.268079 0)
(11.1867 0.167396 0)
(11.3785 0.160166 0)
(11.3927 0.158145 0)
(11.5462 0.143423 0)
(11.5458 0.122844 0)
(11.6819 0.10341 0)
(11.6741 0.0896811 0)
(11.7961 0.0769855 0)
(11.7812 0.0719094 0)
(11.8868 0.0611806 0)
(11.8605 0.0586241 0)
(11.9521 0.0415617 0)
(11.9201 0.0381648 0)
(12.0043 0.00467335 0)
(11.9805 -0.00168469 0)
(12.061 -0.0866412 0)
(12.0254 -0.119878 0)
(10.0098 0.386602 0)
(10.4717 0.469876 0)
(10.9603 0.2564 0)
(11.14 0.145896 0)
(11.3079 0.139693 0)
(11.3502 0.143413 0)
(11.469 0.132423 0)
(11.5021 0.113387 0)
(11.6057 0.0937948 0)
(11.6393 0.0808157 0)
(11.7325 0.0688197 0)
(11.7675 0.0642253 0)
(11.8492 0.0547649 0)
(11.8818 0.0513825 0)
(11.9544 0.0366505 0)
(11.9873 0.0295401 0)
(12.0541 0.00179691 0)
(12.093 -0.0202275 0)
(12.1492 -0.0854818 0)
(12.1449 -0.184915 0)
(9.99579 0.328685 0)
(10.434 0.423694 0)
(10.8782 0.243867 0)
(11.1017 0.127166 0)
(11.2448 0.119021 0)
(11.3166 0.130311 0)
(11.4039 0.120022 0)
(11.4627 0.10566 0)
(11.5406 0.0832396 0)
(11.598 0.0739389 0)
(11.6696 0.0592122 0)
(11.7258 0.0587055 0)
(11.7893 0.0459026 0)
(11.8419 0.046196 0)
(11.9007 0.0274321 0)
(11.9513 0.024177 0)
(12.0113 -0.00940785 0)
(12.0613 -0.0296803 0)
(12.1114 -0.104301 0)
(12.0984 -0.220495 0)
(9.98599 0.278415 0)
(10.3943 0.37599 0)
(10.8115 0.231925 0)
(11.0561 0.108078 0)
(11.1969 0.100982 0)
(11.2769 0.115026 0)
(11.3554 0.10931 0)
(11.4179 0.0952001 0)
(11.4922 0.0752107 0)
(11.5515 0.0645416 0)
(11.6233 0.0529212 0)
(11.6777 0.0503012 0)
(11.7438 0.0411273 0)
(11.7927 0.037138 0)
(11.8538 0.0233048 0)
(11.9004 0.0124107 0)
(11.9638 -0.0141832 0)
(12.0052 -0.0477874 0)
(12.0563 -0.117016 0)
(12.0235 -0.24605 0)
(9.98511 0.233206 0)
(10.3549 0.329435 0)
(10.7569 0.215115 0)
(11.0091 0.092345 0)
(11.1584 0.0830393 0)
(11.2378 0.100823 0)
(11.3145 0.0966994 0)
(11.3756 0.0853853 0)
(11.4496 0.0655593 0)
(11.5094 0.0564873 0)
(11.5816 0.0450956 0)
(11.6353 0.0434722 0)
(11.7027 0.0342651 0)
(11.7494 0.030404 0)
(11.8109 0.0164063 0)
(11.857 0.00413998 0)
(11.9176 -0.0228452 0)
(11.9578 -0.0616641 0)
(12.0023 -0.131445 0)
(11.9599 -0.263227 0)
(9.98451 0.193721 0)
(10.324 0.28316 0)
(10.7079 0.193224 0)
(10.9693 0.0784351 0)
(11.1227 0.0691254 0)
(11.2064 0.0856104 0)
(11.2763 0.0856808 0)
(11.3412 0.0736782 0)
(11.4092 0.0578875 0)
(11.476 0.046817 0)
(11.5413 0.0394762 0)
(11.6028 0.03481 0)
(11.6622 0.029557 0)
(11.7164 0.0216311 0)
(11.7703 0.0111996 0)
(11.8233 -0.00592375 0)
(11.874 -0.0307268 0)
(11.921 -0.0745503 0)
(11.9511 -0.145196 0)
(11.9109 -0.275776 0)
(9.98252 0.156468 0)
(10.2997 0.240009 0)
(10.6664 0.164736 0)
(10.9358 0.0681505 0)
(11.0934 0.0552579 0)
(11.1808 0.0727129 0)
(11.2458 0.072291 0)
(11.312 0.0638487 0)
(11.3777 0.0478058 0)
(11.4468 0.0398908 0)
(11.5108 0.0312818 0)
(11.5751 0.0290031 0)
(11.6311 0.0217459 0)
(11.6884 0.0159173 0)
(11.7397 0.00274593 0)
(11.793 -0.0129174 0)
(11.8413 -0.0407005 0)
(11.8872 -0.0854898 0)
(11.9102 -0.156887 0)
(11.8676 -0.291291 0)
(9.98388 0.124024 0)
(10.2768 0.195237 0)
(10.6359 0.136157 0)
(10.9051 0.0560889 0)
(11.0733 0.0442595 0)
(11.1572 0.0574725 0)
(11.2253 0.0608009 0)
(11.2853 0.0508376 0)
(11.3567 0.0403053 0)
(11.4198 0.0298876 0)
(11.4914 0.0264285 0)
(11.5483 0.0195189 0)
(11.6113 0.0180015 0)
(11.6616 0.0053107 0)
(11.7187 -0.00047315 0)
(11.7641 -0.0261848 0)
(11.8183 -0.0440172 0)
(11.8539 -0.103348 0)
(11.8784 -0.157469 0)
(11.8261 -0.314444 0)
(9.9861 0.094 0)
(10.2583 0.151116 0)
(10.6118 0.106352 0)
(10.8807 0.0446833 0)
(11.057 0.0330022 0)
(11.1389 0.0439132 0)
(11.208 0.0473756 0)
(11.2651 0.0395122 0)
(11.3383 0.0305689 0)
(11.3995 0.0226186 0)
(11.4737 0.0186686 0)
(11.5276 0.0138533 0)
(11.5934 0.0099055 0)
(11.6405 0.000556283 0)
(11.6988 -0.0102897 0)
(11.7417 -0.0299654 0)
(11.796 -0.0582664 0)
(11.8267 -0.105344 0)
(11.8488 -0.17527 0)
(11.788 -0.286316 0)
(9.98495 0.0653913 0)
(10.2475 0.107778 0)
(10.5909 0.0760745 0)
(10.8648 0.0330248 0)
(11.0413 0.0224675 0)
(11.1276 0.0310786 0)
(11.1914 0.033643 0)
(11.2519 0.0283012 0)
(11.32 0.0210099 0)
(11.3865 0.0154499 0)
(11.4552 0.0113346 0)
(11.5148 0.00769238 0)
(11.5748 0.00237817 0)
(11.6269 -0.00543859 0)
(11.6792 -0.0187343 0)
(11.7266 -0.0359282 0)
(11.7734 -0.0694161 0)
(11.8074 -0.109919 0)
(11.8227 -0.190265 0)
(11.7629 -0.260472 0)
(9.98332 0.0398834 0)
(10.2411 0.0628811 0)
(10.5767 0.0473688 0)
(10.8546 0.0185147 0)
(11.0306 0.0146945 0)
(11.1203 0.0163751 0)
(11.1805 0.0218568 0)
(11.2429 0.0146104 0)
(11.3082 0.0136893 0)
(11.3775 0.0057414 0)
(11.4433 0.00680029 0)
(11.5064 -0.00165548 0)
(11.5624 -0.00153343 0)
(11.6176 -0.0157552 0)
(11.666 -0.0220961 0)
(11.7156 -0.0484063 0)
(11.7573 -0.0721078 0)
(11.7933 -0.125033 0)
(11.8021 -0.189784 0)
(11.7412 -0.284696 0)
(9.98424 0.0130479 0)
(10.2362 0.0207725 0)
(10.5714 0.0159223 0)
(10.8481 0.00615032 0)
(11.0272 0.00449371 0)
(11.1154 0.00537551 0)
(11.1774 0.00623938 0)
(11.237 0.0049183 0)
(11.3052 0.00185132 0)
(11.3715 0.00100472 0)
(11.4406 -0.00309528 0)
(11.5002 -0.00487302 0)
(11.5593 -0.0119441 0)
(11.6108 -0.018497 0)
(11.662 -0.0333643 0)
(11.7069 -0.0513184 0)
(11.7509 -0.0841807 0)
(11.7817 -0.129648 0)
(11.79 -0.19773 0)
(11.7244 -0.308003 0)
(9.98538 -0.0111236 0)
(10.2352 -0.0240319 0)
(10.5724 -0.012878 0)
(10.8474 -0.00973142 0)
(11.0282 -0.00205189 0)
(11.1147 -0.0095155 0)
(11.1785 -0.00514549 0)
(11.2366 -0.00965962 0)
(11.3065 -0.00466787 0)
(11.371 -0.00971214 0)
(11.4418 -0.00648781 0)
(11.4992 -0.0155744 0)
(11.5603 -0.0143129 0)
(11.6093 -0.030606 0)
(11.6618 -0.0345561 0)
(11.7037 -0.0657288 0)
(11.7487 -0.0842197 0)
(11.7747 -0.146794 0)
(11.7819 -0.192254 0)
(11.7135 -0.334406 0)
(9.98543 -0.0376042 0)
(10.2391 -0.0665337 0)
(10.5788 -0.0438809 0)
(10.8531 -0.0226212 0)
(11.0327 -0.0115842 0)
(11.1188 -0.0211464 0)
(11.1832 -0.019951 0)
(11.2413 -0.0201653 0)
(11.3112 -0.0154666 0)
(11.3758 -0.0153484 0)
(11.4459 -0.015393 0)
(11.5035 -0.0195111 0)
(11.564 -0.0242186 0)
(11.6129 -0.0332653 0)
(11.6643 -0.0464525 0)
(11.7058 -0.0666585 0)
(11.7489 -0.0993988 0)
(11.7732 -0.143947 0)
(11.7769 -0.210427 0)
(11.7048 -0.295112 0)
(9.98427 -0.0638915 0)
(10.2481 -0.110475 0)
(10.5907 -0.073567 0)
(10.8653 -0.0360222 0)
(11.0409 -0.0205426 0)
(11.1278 -0.0346175 0)
(11.1916 -0.0331071 0)
(11.2512 -0.0323914 0)
(11.32 -0.024457 0)
(11.3855 -0.0231884 0)
(11.454 -0.0219908 0)
(11.5128 -0.0261432 0)
(11.5716 -0.0310891 0)
(11.6211 -0.039281 0)
(11.6709 -0.0545614 0)
(11.7125 -0.0715662 0)
(11.7528 -0.110306 0)
(11.7768 -0.144912 0)
(11.7791 -0.225216 0)
(11.7078 -0.257612 0)
(9.98331 -0.0915686 0)
(10.2613 -0.154893 0)
(10.6091 -0.102774 0)
(10.8832 -0.0489377 0)
(11.0538 -0.0298422 0)
(11.1411 -0.04911 0)
(11.2047 -0.0450423 0)
(11.2662 -0.0457625 0)
(11.3341 -0.0317329 0)
(11.4 -0.0331453 0)
(11.4672 -0.026101 0)
(11.5267 -0.0361443 0)
(11.584 -0.0338068 0)
(11.6341 -0.0505753 0)
(11.6826 -0.0557303 0)
(11.7236 -0.085136 0)
(11.7622 -0.10948 0)
(11.7852 -0.161655 0)
(11.7871 -0.218357 0)
(11.7117 -0.282881 0)
(9.98282 -0.122761 0)
(10.2785 -0.197648 0)
(10.6346 -0.133873 0)
(10.9067 -0.0587814 0)
(11.0717 -0.0425873 0)
(11.1585 -0.060971 0)
(11.2231 -0.0600093 0)
(11.2862 -0.0554227 0)
(11.3536 -0.0429173 0)
(11.4195 -0.0386905 0)
(11.4858 -0.0353615 0)
(11.5452 -0.0401765 0)
(11.6019 -0.0431521 0)
(11.652 -0.0539397 0)
(11.6994 -0.0655533 0)
(11.7397 -0.0884095 0)
(11.777 -0.119184 0)
(11.7987 -0.166771 0)
(11.7997 -0.223599 0)
(11.7219 -0.304664 0)
(9.98231 -0.154445 0)
(10.3003 -0.243223 0)
(10.667 -0.161688 0)
(10.9361 -0.0715863 0)
(11.0942 -0.0527097 0)
(11.1807 -0.0770413 0)
(11.2468 -0.0705754 0)
(11.3113 -0.0694546 0)
(11.3782 -0.0491234 0)
(11.4442 -0.0498757 0)
(11.5095 -0.0387693 0)
(11.5689 -0.0508285 0)
(11.625 -0.0453684 0)
(11.675 -0.0649329 0)
(11.7213 -0.0671324 0)
(11.7612 -0.100118 0)
(11.7968 -0.120437 0)
(11.8179 -0.179697 0)
(11.8165 -0.223653 0)
(11.7403 -0.321633 0)
(9.98263 -0.192295 0)
(10.3271 -0.285752 0)
(10.7069 -0.190864 0)
(10.9716 -0.0812559 0)
(11.1218 -0.0673313 0)
(11.2081 -0.0893627 0)
(11.276 -0.0847318 0)
(11.3418 -0.0787485 0)
(11.4087 -0.0596845 0)
(11.4744 -0.0562234 0)
(11.5388 -0.0474581 0)
(11.598 -0.0556402 0)
(11.6537 -0.0536905 0)
(11.7032 -0.0687318 0)
(11.7492 -0.0761801 0)
(11.7878 -0.102803 0)
(11.8226 -0.131274 0)
(11.8422 -0.18067 0)
(11.8399 -0.238862 0)
(11.7639 -0.302163 0)
(9.98746 -0.231951 0)
(10.3572 -0.33166 0)
(10.756 -0.213354 0)
(11.0121 -0.0946694 0)
(11.1563 -0.0816103 0)
(11.2406 -0.104197 0)
(11.3118 -0.0963438 0)
(11.3781 -0.0900049 0)
(11.4453 -0.0678758 0)
(11.5105 -0.0653363 0)
(11.5738 -0.0536301 0)
(11.6333 -0.0634782 0)
(11.6879 -0.0587674 0)
(11.7377 -0.0760521 0)
(11.7823 -0.0811945 0)
(11.8208 -0.109438 0)
(11.8533 -0.137303 0)
(11.8725 -0.186246 0)
(11.8702 -0.249936 0)
(11.7968 -0.289017 0)
(10.0026 -0.277439 0)
(10.3851 -0.37807 0)
(10.8195 -0.229986 0)
(11.0499 -0.110537 0)
(11.2025 -0.0988238 0)
(11.2717 -0.118787 0)
(11.3582 -0.108204 0)
(11.4141 -0.100525 0)
(11.4914 -0.0763089 0)
(11.5469 -0.0746449 0)
(11.6178 -0.0597009 0)
(11.6697 -0.0720138 0)
(11.7302 -0.0625989 0)
(11.7742 -0.0852792 0)
(11.8227 -0.0829003 0)
(11.8565 -0.120265 0)
(11.8904 -0.136229 0)
(11.9068 -0.200882 0)
(11.9049 -0.247168 0)
(11.8319 -0.314346 0)
(10.024 -0.32896 0)
(10.41 -0.424164 0)
(10.8994 -0.243388 0)
(11.0802 -0.127869 0)
(11.2635 -0.1188 0)
(11.2964 -0.131742 0)
(11.42 -0.121487 0)
(11.4438 -0.108293 0)
(11.5528 -0.0871676 0)
(11.5781 -0.0810149 0)
(11.6773 -0.0691839 0)
(11.7017 -0.0765991 0)
(11.7881 -0.0708625 0)
(11.8072 -0.0891645 0)
(11.8778 -0.0901675 0)
(11.889 -0.124012 0)
(11.9391 -0.141558 0)
(11.9349 -0.206605 0)
(11.9386 -0.250896 0)
(11.8477 -0.338906 0)
(10.0343 -0.386057 0)
(10.4453 -0.471148 0)
(10.986 -0.255099 0)
(11.1132 -0.147602 0)
(11.3328 -0.138657 0)
(11.3233 -0.145729 0)
(11.4936 -0.133005 0)
(11.4745 -0.117052 0)
(11.6285 -0.0967054 0)
(11.6092 -0.0889899 0)
(11.7525 -0.077366 0)
(11.7314 -0.0830758 0)
(11.8599 -0.0775982 0)
(11.8318 -0.0948586 0)
(11.9396 -0.0953195 0)
(11.8996 -0.128899 0)
(11.976 -0.143654 0)
(11.9112 -0.211239 0)
(11.9165 -0.249916 0)
(11.7527 -0.358289 0)
(10.0233 -0.44949 0)
(10.5061 -0.517482 0)
(11.0664 -0.267783 0)
(11.167 -0.168044 0)
(11.3985 -0.160185 0)
(11.3719 -0.159207 0)
(11.5669 -0.144939 0)
(11.5232 -0.125378 0)
(11.7018 -0.107228 0)
(11.6476 -0.0965607 0)
(11.8129 -0.0863633 0)
(11.7458 -0.0887568 0)
(11.8907 -0.0844714 0)
(11.8035 -0.0987585 0)
(11.9184 -0.0989237 0)
(11.8036 -0.130539 0)
(11.8732 -0.140958 0)
(11.7117 -0.210644 0)
(11.6862 -0.23627 0)
(11.4021 -0.365374 0)
(10.0008 -0.519335 0)
(10.5911 -0.561429 0)
(11.146 -0.281099 0)
(11.2467 -0.190781 0)
(11.4646 -0.182163 0)
(11.4437 -0.173333 0)
(11.6251 -0.155823 0)
(11.5634 -0.13367 0)
(11.7139 -0.116094 0)
(11.6163 -0.102262 0)
(11.743 -0.0923719 0)
(11.6145 -0.0903911 0)
(11.7156 -0.0873743 0)
(11.556 -0.0957507 0)
(11.6255 -0.0984399 0)
(11.4324 -0.121121 0)
(11.4535 -0.136215 0)
(11.2076 -0.190216 0)
(11.1208 -0.226102 0)
(10.7546 -0.319757 0)
(9.9801 -0.598393 0)
(10.6995 -0.597078 0)
(11.2392 -0.299031 0)
(11.3437 -0.217595 0)
(11.5106 -0.204599 0)
(11.4618 -0.185307 0)
(11.5538 -0.16162 0)
(11.4205 -0.136285 0)
(11.4658 -0.116211 0)
(11.287 -0.0996261 0)
(11.3228 -0.0879813 0)
(11.1222 -0.0836927 0)
(11.1546 -0.0796543 0)
(10.9339 -0.0857053 0)
(10.9538 -0.0872598 0)
(10.7054 -0.106762 0)
(10.6886 -0.119403 0)
(10.3836 -0.166646 0)
(10.2619 -0.197959 0)
(9.83503 -0.268594 0)
(9.98799 -0.687302 0)
(10.8314 -0.629652 0)
(11.3138 -0.328222 0)
(11.3402 -0.247614 0)
(11.341 -0.217995 0)
(11.152 -0.182673 0)
(11.0678 -0.151173 0)
(10.8168 -0.122711 0)
(10.7372 -0.101103 0)
(10.4897 -0.0840484 0)
(10.45 -0.0728643 0)
(10.2128 -0.0683078 0)
(10.1983 -0.0649583 0)
(9.95483 -0.0696661 0)
(9.94246 -0.071432 0)
(9.67423 -0.0875183 0)
(9.63124 -0.0985168 0)
(9.30092 -0.13812 0)
(9.15502 -0.161114 0)
(8.69353 -0.223757 0)
(10.0668 -0.800763 0)
(10.8998 -0.662481 0)
(11.1376 -0.350856 0)
(10.8819 -0.25168 0)
(10.6011 -0.19765 0)
(10.2331 -0.151982 0)
(9.99922 -0.119498 0)
(9.68076 -0.0939175 0)
(9.53118 -0.0754176 0)
(9.26986 -0.0618972 0)
(9.19344 -0.0532771 0)
(8.96048 -0.0502858 0)
(8.92146 -0.0480631 0)
(8.68635 -0.0521439 0)
(8.65408 -0.053965 0)
(8.39289 -0.06655 0)
(8.33131 -0.0762225 0)
(8.00377 -0.104987 0)
(7.83886 -0.127711 0)
(7.38624 -0.15836 0)
(10.1469 -0.941516 0)
(10.5576 -0.661504 0)
(10.2778 -0.325208 0)
(9.65627 -0.206515 0)
(9.16133 -0.143642 0)
(8.71749 -0.103659 0)
(8.4319 -0.0793385 0)
(8.12007 -0.0615944 0)
(7.95586 -0.0486726 0)
(7.72146 -0.0399634 0)
(7.6366 -0.0342651 0)
(7.43407 -0.0329884 0)
(7.38576 -0.0316809 0)
(7.17995 -0.035179 0)
(7.13684 -0.0365682 0)
(6.90291 -0.0460156 0)
(6.83091 -0.052933 0)
(6.52683 -0.0734166 0)
(6.36132 -0.0897455 0)
(5.92324 -0.107254 0)
(9.8448 -1.01573 0)
(9.35239 -0.572085 0)
(8.51171 -0.238002 0)
(7.68089 -0.128012 0)
(7.15268 -0.0794927 0)
(6.75213 -0.0557186 0)
(6.49507 -0.0425681 0)
(6.23889 -0.0330017 0)
(6.0976 -0.0257075 0)
(5.91347 -0.0212792 0)
(5.84024 -0.0181627 0)
(5.68298 -0.0181617 0)
(5.63675 -0.017466 0)
(5.47396 -0.0201508 0)
(5.42828 -0.0209022 0)
(5.23757 -0.0271852 0)
(5.16352 -0.031179 0)
(4.9051 -0.0440199 0)
(4.75121 -0.0537958 0)
(4.35642 -0.0646361 0)
(8.5963 -0.867331 0)
(6.97577 -0.380757 0)
(5.85974 -0.120346 0)
(5.1098 -0.0501519 0)
(4.719 -0.0273716 0)
(4.44519 -0.0197848 0)
(4.26755 -0.015465 0)
(4.09587 -0.0120155 0)
(3.99991 -0.00909642 0)
(3.88047 -0.00773198 0)
(3.83029 -0.00656386 0)
(3.72771 -0.0070985 0)
(3.69181 -0.00678409 0)
(3.58236 -0.00838754 0)
(3.54273 -0.00858193 0)
(3.4097 -0.011833 0)
(3.34499 -0.0133643 0)
(3.15685 -0.0196331 0)
(3.02891 -0.0235721 0)
(2.72945 -0.0299077 0)
(5.33923 -0.308189 0)
(3.0197 -0.0607346 0)
(2.23933 0.00149059 0)
(1.89388 0.00351594 0)
(1.75685 0.00132656 0)
(1.66247 0.000140171 0)
(1.5975 -1.9478e-05 0)
(1.53507 -2.87119e-05 0)
(1.50033 0.00011035 0)
(1.45831 -8.01167e-05 0)
(1.43964 -2.32145e-06 0)
(1.40205 -0.00032967 0)
(1.3857 -0.000180468 0)
(1.34298 -0.000588384 0)
(1.32218 -0.00039589 0)
(1.26702 -0.00102841 0)
(1.23199 -0.00088037 0)
(1.14917 -0.00191413 0)
(1.08049 -0.00214158 0)
(0.948058 0.00174368 0)
(2.1127 -0.164623 0)
(2.60794 -0.0861909 0)
(3.235 -0.127107 0)
(3.66662 -0.161147 0)
(4.15318 -0.225797 0)
(4.57937 -0.286572 0)
(5.04682 -0.33966 0)
(5.53575 -0.407361 0)
(5.99799 -0.464978 0)
(6.43551 -0.535636 0)
(6.83674 -0.606474 0)
(7.17626 -0.689994 0)
(7.47975 -0.767098 0)
(7.74007 -0.845545 0)
(7.98321 -0.941263 0)
(8.1607 -1.04238 0)
(8.33756 -1.19583 0)
(8.49035 -1.35453 0)
(8.639 -1.5081 0)
(8.80911 -1.67142 0)
(8.95135 -1.83387 0)
(9.08554 -1.9865 0)
(9.24175 -2.1398 0)
(9.36768 -2.27834 0)
(9.49626 -2.41666 0)
(9.5769 -2.5551 0)
(9.62084 -2.65975 0)
(9.64082 -2.73506 0)
(9.62237 -2.78316 0)
(9.60382 -2.82424 0)
(9.56929 -2.84742 0)
(9.53718 -2.85138 0)
(9.49717 -2.84053 0)
(9.45101 -2.82792 0)
(9.39296 -2.81494 0)
(9.31671 -2.80438 0)
(9.23916 -2.79217 0)
(9.18632 -2.77278 0)
(9.17146 -2.74783 0)
(9.17239 -2.71248 0)
(9.16219 -2.67335 0)
(9.14191 -2.62865 0)
(9.10595 -2.58055 0)
(9.06246 -2.53484 0)
(9.01094 -2.46955 0)
(8.95962 -2.38523 0)
(8.89086 -2.28593 0)
(8.81797 -2.17772 0)
(8.69504 -2.04072 0)
(8.55158 -1.89697 0)
(8.43984 -1.7701 0)
(8.31507 -1.63844 0)
(8.2056 -1.51116 0)
(8.11181 -1.38735 0)
(8.01752 -1.26214 0)
(7.93738 -1.15162 0)
(7.8771 -1.05815 0)
(7.80299 -0.959625 0)
(7.73572 -0.864345 0)
(7.64545 -0.775993 0)
(7.55731 -0.6692 0)
(7.44602 -0.561805 0)
(7.34004 -0.46121 0)
(7.24318 -0.36476 0)
(7.14425 -0.272305 0)
(7.05085 -0.187462 0)
(6.95841 -0.110752 0)
(6.87978 -0.0454003 0)
(6.80275 0.00907478 0)
(6.73447 0.0633178 0)
(6.68778 0.116505 0)
(6.64826 0.164022 0)
(6.62536 0.198398 0)
(6.59303 0.22158 0)
(6.57121 0.242932 0)
(6.56365 0.284125 0)
(6.56224 0.325266 0)
(6.56337 0.359928 0)
(6.55973 0.399477 0)
(6.57923 0.437514 0)
(6.58493 0.467156 0)
(6.60175 0.487267 0)
(6.62607 0.501831 0)
(6.63935 0.502833 0)
(6.66149 0.493218 0)
(6.67464 0.484096 0)
(6.66719 0.483698 0)
(6.67057 0.484711 0)
(6.65707 0.472981 0)
(6.67178 0.470043 0)
(6.64527 0.454524 0)
(6.67634 0.442104 0)
(6.67865 0.416091 0)
(6.69368 0.409775 0)
(6.71413 0.3842 0)
(6.74135 0.371097 0)
(6.79006 0.359317 0)
(6.81322 0.368061 0)
(6.88943 0.362454 0)
(6.90053 0.375709 0)
(6.96433 0.378359 0)
(6.96064 0.408993 0)
(7.02165 0.40535 0)
(7.02385 0.437888 0)
(7.07614 0.422807 0)
(7.04169 0.450644 0)
(7.08583 0.420619 0)
(7.02488 0.447088 0)
(7.08428 0.423556 0)
(6.98871 0.452379 0)
(7.04569 0.408132 0)
(6.94265 0.415014 0)
(7.00368 0.367631 0)
(6.88915 0.387133 0)
(6.96768 0.339531 0)
(6.83724 0.375847 0)
(6.94839 0.346478 0)
(6.78731 0.386377 0)
(6.9105 0.342666 0)
(6.75644 0.382803 0)
(6.86394 0.334929 0)
(6.74287 0.384348 0)
(6.8128 0.325892 0)
(6.71708 0.385405 0)
(6.76946 0.306456 0)
(6.67619 0.368702 0)
(6.71742 0.257879 0)
(6.60267 0.320393 0)
(6.63431 0.194534 0)
(6.52564 0.260608 0)
(6.53936 0.136927 0)
(6.48534 0.214787 0)
(6.4533 0.087008 0)
(6.45971 0.166069 0)
(6.38702 0.0464824 0)
(6.45225 0.119714 0)
(6.33146 -0.00939774 0)
(6.45611 0.0597605 0)
(6.28133 -0.055365 0)
(6.45647 0.0181546 0)
(6.28189 -0.0840354 0)
(6.43586 0.0123578 0)
(6.31751 -0.0941636 0)
(6.43762 0.00421678 0)
(6.34615 -0.0927429 0)
(6.47199 -0.0154286 0)
(6.38419 -0.095668 0)
(6.50145 -0.0304293 0)
(6.44572 -0.0911675 0)
(6.54338 -0.0265379 0)
(6.50317 -0.0776561 0)
(6.61095 -0.00973275 0)
(6.55728 -0.055046 0)
(6.6934 0.0179215 0)
(6.58597 -0.0196644 0)
(6.75475 0.0496338 0)
(6.63815 0.000571909 0)
(6.79322 0.094238 0)
(6.65912 0.0503985 0)
(6.82212 0.145769 0)
(6.69158 0.101737 0)
(6.82965 0.203937 0)
(6.72463 0.175526 0)
(6.79362 0.279773 0)
(6.7372 0.266102 0)
(6.74888 0.366174 0)
(6.74563 0.349995 0)
(6.70015 0.443445 0)
(6.73492 0.433533 0)
(6.66722 0.536124 0)
(6.72865 0.537913 0)
(6.65704 0.662626 0)
(6.72918 0.660346 0)
(6.67487 0.805256 0)
(6.73791 0.803874 0)
(6.68558 0.968068 0)
(6.74889 0.965269 0)
(6.68258 1.15157 0)
(6.77021 1.14241 0)
(6.65379 1.36151 0)
(6.81917 1.3455 0)
(6.58779 1.59254 0)
(6.8715 1.55941 0)
(6.49382 1.84107 0)
(6.86295 1.7751 0)
(6.42386 2.10836 0)
(6.7677 2.0202 0)
(6.33417 2.3837 0)
(6.63406 2.3103 0)
(6.24513 2.71343 0)
(6.50736 2.68873 0)
(6.14922 3.13235 0)
(6.33202 3.19544 0)
(5.94822 3.68321 0)
(6.11986 3.86145 0)
(5.77309 4.44863 0)
(5.78823 4.81311 0)
(5.23796 5.86657 0)
(5.72675 6.56642 0)
(3.23261 9.65251 0)
(4.07224 -0.205359 0)
(4.22425 -0.216148 0)
(4.5908 -0.295114 0)
(4.90867 -0.339284 0)
(5.27186 -0.400669 0)
(5.62326 -0.456098 0)
(5.94305 -0.511169 0)
(6.28131 -0.576572 0)
(6.59723 -0.637573 0)
(6.93257 -0.701479 0)
(7.25419 -0.765676 0)
(7.55703 -0.832466 0)
(7.82441 -0.897225 0)
(8.07878 -0.96063 0)
(8.3264 -1.04094 0)
(8.54054 -1.12871 0)
(8.73583 -1.26092 0)
(8.89799 -1.41207 0)
(9.04904 -1.56285 0)
(9.20182 -1.7272 0)
(9.33968 -1.88701 0)
(9.47387 -2.03791 0)
(9.61495 -2.18996 0)
(9.7371 -2.32779 0)
(9.83051 -2.45293 0)
(9.88856 -2.5753 0)
(9.89064 -2.67059 0)
(9.89849 -2.73923 0)
(9.88689 -2.78187 0)
(9.86139 -2.81143 0)
(9.81029 -2.82935 0)
(9.76355 -2.83381 0)
(9.71331 -2.82214 0)
(9.65847 -2.80521 0)
(9.59264 -2.78198 0)
(9.51469 -2.76701 0)
(9.44372 -2.76381 0)
(9.38808 -2.75864 0)
(9.3609 -2.74165 0)
(9.34558 -2.70696 0)
(9.31452 -2.66542 0)
(9.26954 -2.61466 0)
(9.21516 -2.55942 0)
(9.15509 -2.51099 0)
(9.08942 -2.44504 0)
(9.01562 -2.35834 0)
(8.93068 -2.25099 0)
(8.83325 -2.13013 0)
(8.68435 -1.98238 0)
(8.53688 -1.84203 0)
(8.42072 -1.71809 0)
(8.28733 -1.59091 0)
(8.17394 -1.4699 0)
(8.06926 -1.34665 0)
(7.9675 -1.22374 0)
(7.88521 -1.11988 0)
(7.82062 -1.02904 0)
(7.73831 -0.927946 0)
(7.66372 -0.829795 0)
(7.56559 -0.736313 0)
(7.47335 -0.624719 0)
(7.35878 -0.518288 0)
(7.25856 -0.418375 0)
(7.16642 -0.323234 0)
(7.07275 -0.231921 0)
(6.98301 -0.148821 0)
(6.89091 -0.0734662 0)
(6.8113 -0.0109618 0)
(6.73271 0.0407678 0)
(6.66069 0.0901189 0)
(6.61109 0.135745 0)
(6.57235 0.178062 0)
(6.55269 0.210143 0)
(6.52248 0.23391 0)
(6.4994 0.252357 0)
(6.48682 0.289865 0)
(6.48271 0.330427 0)
(6.4837 0.362413 0)
(6.47622 0.398855 0)
(6.49191 0.434689 0)
(6.49584 0.464036 0)
(6.50523 0.482121 0)
(6.52793 0.493242 0)
(6.54153 0.495813 0)
(6.55847 0.488323 0)
(6.57036 0.483934 0)
(6.55789 0.487988 0)
(6.56075 0.487716 0)
(6.54853 0.473904 0)
(6.56515 0.473711 0)
(6.54528 0.451617 0)
(6.57826 0.435364 0)
(6.58423 0.408214 0)
(6.60729 0.403131 0)
(6.63014 0.371413 0)
(6.65704 0.356802 0)
(6.70636 0.343258 0)
(6.73207 0.350622 0)
(6.80781 0.34058 0)
(6.82535 0.360847 0)
(6.8866 0.364989 0)
(6.88863 0.397993 0)
(6.95491 0.389838 0)
(6.9572 0.426964 0)
(7.02141 0.419082 0)
(6.98744 0.453183 0)
(7.04654 0.423612 0)
(6.97383 0.45372 0)
(7.03905 0.43129 0)
(6.93445 0.464102 0)
(6.99992 0.415396 0)
(6.88952 0.429711 0)
(6.95907 0.377567 0)
(6.82998 0.39769 0)
(6.92786 0.347756 0)
(6.77569 0.384068 0)
(6.90699 0.355416 0)
(6.72407 0.395881 0)
(6.86232 0.351548 0)
(6.69162 0.391973 0)
(6.81167 0.340694 0)
(6.67653 0.391133 0)
(6.76392 0.335449 0)
(6.64496 0.392028 0)
(6.7311 0.317761 0)
(6.60824 0.375598 0)
(6.68822 0.272875 0)
(6.53918 0.335049 0)
(6.61195 0.214121 0)
(6.45832 0.274701 0)
(6.52602 0.150984 0)
(6.4166 0.223378 0)
(6.45641 0.101744 0)
(6.3926 0.16989 0)
(6.41024 0.0572425 0)
(6.38651 0.124114 0)
(6.37195 -0.000888462 0)
(6.39304 0.0661264 0)
(6.31799 -0.0504156 0)
(6.40383 0.0179969 0)
(6.29311 -0.0794122 0)
(6.39123 0.00446786 0)
(6.323 -0.0965623 0)
(6.38537 -0.0011743 0)
(6.36732 -0.10231 0)
(6.42037 -0.0173651 0)
(6.40931 -0.10495 0)
(6.4621 -0.0401924 0)
(6.46662 -0.101834 0)
(6.49779 -0.0367682 0)
(6.52382 -0.0910292 0)
(6.55963 -0.0194318 0)
(6.57844 -0.0708734 0)
(6.64488 0.0118179 0)
(6.60385 -0.0343214 0)
(6.74357 0.0377272 0)
(6.63887 -0.00861453 0)
(6.79158 0.094833 0)
(6.65603 0.0381231 0)
(6.84494 0.147066 0)
(6.68467 0.0853769 0)
(6.87382 0.211751 0)
(6.70388 0.165031 0)
(6.85018 0.29648 0)
(6.72603 0.253732 0)
(6.82308 0.38349 0)
(6.73917 0.339589 0)
(6.78146 0.464505 0)
(6.73304 0.424338 0)
(6.74874 0.556792 0)
(6.73447 0.523167 0)
(6.74227 0.671132 0)
(6.7633 0.642004 0)
(6.75426 0.808393 0)
(6.79559 0.793034 0)
(6.74495 0.972115 0)
(6.8437 0.954482 0)
(6.72544 1.15598 0)
(6.91203 1.1342 0)
(6.68432 1.37245 0)
(6.9971 1.33127 0)
(6.63606 1.61277 0)
(7.05164 1.54348 0)
(6.59389 1.88366 0)
(7.01718 1.76532 0)
(6.54703 2.15501 0)
(6.93406 2.0194 0)
(6.45477 2.42577 0)
(6.83534 2.31186 0)
(6.37465 2.75253 0)
(6.73467 2.68988 0)
(6.30034 3.17089 0)
(6.64915 3.18323 0)
(6.22758 3.73242 0)
(6.42821 3.88628 0)
(6.02307 4.57726 0)
(6.20852 4.86787 0)
(5.55323 6.10587 0)
(6.9382 6.41792 0)
(4.6084 10.3868 0)
(5.90778 -0.25253 0)
(5.97814 -0.289286 0)
(6.18408 -0.384295 0)
(6.39196 -0.45417 0)
(6.62824 -0.522965 0)
(6.86287 -0.579744 0)
(7.0732 -0.630643 0)
(7.27977 -0.690697 0)
(7.46796 -0.754993 0)
(7.68936 -0.8211 0)
(7.90273 -0.883703 0)
(8.12747 -0.945012 0)
(8.3347 -1.00095 0)
(8.52783 -1.06015 0)
(8.74617 -1.13728 0)
(8.95142 -1.22028 0)
(9.14991 -1.34018 0)
(9.33238 -1.47752 0)
(9.4877 -1.62242 0)
(9.62369 -1.78084 0)
(9.75548 -1.9389 0)
(9.87223 -2.08488 0)
(9.97806 -2.23424 0)
(10.078 -2.36705 0)
(10.124 -2.48207 0)
(10.1686 -2.58616 0)
(10.1465 -2.67143 0)
(10.1373 -2.73788 0)
(10.1162 -2.77693 0)
(10.0793 -2.79303 0)
(10.0161 -2.80625 0)
(9.95865 -2.81308 0)
(9.89569 -2.80007 0)
(9.82966 -2.78038 0)
(9.76291 -2.74973 0)
(9.6949 -2.73404 0)
(9.64207 -2.73751 0)
(9.5866 -2.74093 0)
(9.5408 -2.72736 0)
(9.49903 -2.69141 0)
(9.44783 -2.64684 0)
(9.3775 -2.59093 0)
(9.3034 -2.53115 0)
(9.22874 -2.47976 0)
(9.1486 -2.41291 0)
(9.05087 -2.32018 0)
(8.94295 -2.20354 0)
(8.8173 -2.07224 0)
(8.65349 -1.92049 0)
(8.50881 -1.78617 0)
(8.38415 -1.66324 0)
(8.24407 -1.53995 0)
(8.1287 -1.42427 0)
(8.01234 -1.30271 0)
(7.90508 -1.18519 0)
(7.81912 -1.08778 0)
(7.74626 -0.998653 0)
(7.65397 -0.893938 0)
(7.56879 -0.791509 0)
(7.46411 -0.692907 0)
(7.37017 -0.579561 0)
(7.25652 -0.476539 0)
(7.16526 -0.377855 0)
(7.07752 -0.283798 0)
(6.98716 -0.19334 0)
(6.90034 -0.1111 0)
(6.80871 -0.0366269 0)
(6.72737 0.024016 0)
(6.65056 0.0723371 0)
(6.57891 0.117246 0)
(6.52799 0.155738 0)
(6.48906 0.192433 0)
(6.46971 0.221184 0)
(6.44312 0.245732 0)
(6.41973 0.263855 0)
(6.40292 0.297244 0)
(6.39412 0.335282 0)
(6.39465 0.366377 0)
(6.38321 0.400697 0)
(6.39597 0.433827 0)
(6.39975 0.462107 0)
(6.40045 0.478159 0)
(6.41903 0.485694 0)
(6.43371 0.488944 0)
(6.44483 0.484269 0)
(6.4542 0.484279 0)
(6.43954 0.49193 0)
(6.44253 0.491052 0)
(6.43189 0.475037 0)
(6.44798 0.475378 0)
(6.4368 0.446266 0)
(6.4722 0.427825 0)
(6.47933 0.399391 0)
(6.51056 0.394603 0)
(6.54025 0.357671 0)
(6.56107 0.342716 0)
(6.61634 0.326795 0)
(6.63585 0.332545 0)
(6.71651 0.318453 0)
(6.72956 0.345496 0)
(6.7988 0.350326 0)
(6.79524 0.386354 0)
(6.87356 0.376599 0)
(6.86586 0.41564 0)
(6.94802 0.41082 0)
(6.90878 0.451176 0)
(6.98786 0.422391 0)
(6.90909 0.461127 0)
(6.98068 0.437379 0)
(6.87506 0.476871 0)
(6.94232 0.420643 0)
(6.8295 0.4442 0)
(6.90228 0.385479 0)
(6.76585 0.408376 0)
(6.86686 0.353756 0)
(6.71393 0.394574 0)
(6.84018 0.362744 0)
(6.66972 0.408463 0)
(6.78618 0.359045 0)
(6.64407 0.405187 0)
(6.73156 0.34556 0)
(6.62835 0.400631 0)
(6.68572 0.341304 0)
(6.60254 0.401156 0)
(6.65432 0.323961 0)
(6.57431 0.387271 0)
(6.60946 0.282013 0)
(6.51692 0.353118 0)
(6.53345 0.227928 0)
(6.44484 0.294149 0)
(6.44533 0.159321 0)
(6.41334 0.238716 0)
(6.37516 0.105893 0)
(6.40619 0.181857 0)
(6.32894 0.055026 0)
(6.41624 0.134687 0)
(6.29179 -0.00487511 0)
(6.43494 0.0823357 0)
(6.23437 -0.0567688 0)
(6.45726 0.0329032 0)
(6.18602 -0.0838798 0)