/*--------------------------------*- C++ -*----------------------------------*\
| =========                 |                                                 |
| \\      /  F ield         | OpenFOAM: The Open Source CFD Toolbox           |
|  \\    /   O peration     | Version:  2.4.0                                 |
|   \\  /    A nd           | Web:      www.OpenFOAM.org                      |
|    \\/     M anipulation  |                                                 |
\*---------------------------------------------------------------------------*/
FoamFile
{
    version     2.0;
    format      ascii;
    class       volScalarField;
    location    "0.137";
    object      k_0;
}
// * * * * * * * * * * * * * * * * * * * * * * * * * * * * * * * * * * * * * //

dimensions      [0 2 -2 0 0 0 0];

internalField   nonuniform List<scalar> 
4400
(
9.53429
8.48858
6.51397
5.29483
4.65071
4.2064
4.07158
3.75676
4.06558
3.23258
4.41182
6.75635
6.73977
6.28481
5.73108
5.18546
5.01763
4.62785
4.73443
4.48709
1.17975
3.14827
4.23256
4.51035
4.48461
4.25396
4.15189
3.92696
3.83256
3.84671
0.165424
0.930158
1.73859
2.27123
2.70489
2.77883
2.85184
2.84857
2.75915
2.78158
0.0174797
0.149256
0.443101
0.700127
1.10471
1.32809
1.50589
1.64507
1.68536
1.67117
0.0014928
0.016869
0.0611232
0.120175
0.256448
0.380876
0.538895
0.608906
0.762452
0.748523
0.000137874
0.00149794
0.00478254
0.0114518
0.0299417
0.0524672
0.109721
0.130321
0.193098
0.205059
4.01204e-05
0.000234634
0.000463963
0.000856795
0.00194559
0.00372986
0.0104936
0.0128908
0.0183704
0.0269319
3.39525e-05
0.000123512
0.000210155
0.000235551
0.000286313
0.00035115
0.00067298
0.000753199
0.000883594
0.0013076
3.34457e-05
0.000121199
0.000172933
0.000197796
0.000204816
0.000206981
0.000225871
0.000238285
0.000250883
0.000285196
3.3448e-05
0.000129054
0.000160698
0.000187425
0.000196023
0.00020384
0.000220085
0.000269942
0.000320254
0.000628622
3.4167e-05
0.000128442
0.0001711
0.000219697
0.00026744
0.000359849
0.000544087
0.00120785
0.00224678
0.00631675
4.02662e-05
0.000243081
0.000412983
0.000853798
0.00183847
0.00432946
0.00806158
0.0190888
0.0301607
0.069743
0.000137885
0.00149804
0.00433777
0.0122598
0.0274937
0.0605574
0.0929332
0.168627
0.217065
0.3774
0.00147965
0.0169038
0.0519853
0.132262
0.249584
0.389384
0.528227
0.704162
0.798769
1.06574
0.0173337
0.150227
0.412268
0.744569
1.09566
1.32979
1.54489
1.69729
1.7879
2.00168
0.164287
0.936666
1.71558
2.30854
2.68702
2.79484
2.89007
2.87817
2.89737
2.94647
1.17355
3.15218
4.2252
4.52749
4.48143
4.27126
4.15878
3.92732
3.88619
3.76884
4.40919
6.75661
6.74173
6.28747
5.71548
5.19784
4.971
4.59694
4.50219
4.16743
9.53275
8.48513
6.51977
5.2836
4.63722
4.18382
3.98151
3.63336
3.49467
2.99878
1.97211
1.76337
1.53345
1.44414
1.25015
1.20485
1.21047
1.11438
0.95721
0.786156
0.444163
0.354705
0.392332
0.385526
0.415092
0.436604
0.402112
0.382228
0.4038
0.39693
0.355971
0.228931
0.101127
0.0569361
0.0474896
0.0482574
0.0542225
0.0727154
0.0847379
0.0972264
0.173324
0.595476
0.709607
0.587631
0.356909
0.238661
0.184039
0.179398
0.189026
0.196448
0.193864
0.155087
0.104297
0.0994977
0.107305
0.234526
0.417629
0.384197
0.249928
0.167935
0.12799
0.101927
0.086191
0.0791463
0.07756
0.0789808
0.0878168
0.0988928
0.118993
0.180787
0.28008
0.306498
0.294004
0.217474
0.186494
0.212065
0.239215
0.234742
0.215044
0.166035
0.133498
0.103732
0.0988314
0.0995007
0.105222
0.122432
0.118085
0.120795
0.142141
0.148502
0.158645
0.205123
0.242402
0.242997
0.256472
0.240832
0.181741
0.161444
0.154722
0.141942
0.112845
0.100074
0.098834
0.100944
0.101062
0.0932981
0.0723494
0.0635355
0.0887663
0.319288
3.32048
2.53933
1.93284
1.65922
1.37496
1.17184
1.18839
1.19568
1.18999
0.99594
0.687783
0.612479
0.568856
0.519367
0.517367
0.455655
0.411816
0.429038
0.423968
0.3848
0.256344
0.108815
0.0569881
0.0437434
0.0447841
0.0485299
0.0554428
0.0792801
0.0874714
0.0981007
0.15728
0.560247
0.697277
0.604487
0.380113
0.253308
0.197383
0.195644
0.208503
0.212823
0.200514
0.142265
0.0961281
0.0941932
0.105946
0.272535
0.444388
0.36067
0.209325
0.151322
0.125238
0.103986
0.087526
0.0790712
0.0775829
0.0790021
0.0880961
0.0989013
0.116287
0.171315
0.25571
0.285054
0.280291
0.221916
0.174225
0.195443
0.228263
0.230602
0.218381
0.186132
0.153167
0.121734
0.112064
0.112999
0.115247
0.12841
0.121242
0.120883
0.141831
0.151583
0.164707
0.198688
0.250424
0.242123
0.273227
0.257386
0.187513
0.149343
0.141255
0.137498
0.117361
0.10057
0.0967582
0.0987327
0.100908
0.0973432
0.0829607
0.0644849
0.0865144
0.237641
3.19681
2.59063
2.01588
1.67546
1.45541
1.14352
1.03474
1.0282
1.13671
1.19285
1.01562
0.809239
0.686675
0.602518
0.526436
0.48624
0.489868
0.474609
0.424563
0.281127
0.118318
0.0573745
0.0425322
0.0416798
0.0498157
0.0632904
0.0722534
0.0937789
0.0942726
0.101328
0.151635
0.501502
0.672003
0.602131
0.396835
0.266987
0.215339
0.215901
0.230225
0.230714
0.201346
0.122093
0.0892146
0.0913681
0.108916
0.319097
0.467036
0.32213
0.174182
0.141549
0.121732
0.104677
0.0896608
0.0799994
0.0780395
0.0794587
0.0882141
0.0981715
0.113634
0.162736
0.237246
0.264421
0.262871
0.221391
0.164971
0.17917
0.214892
0.223646
0.213072
0.198554
0.173519
0.143072
0.128755
0.129548
0.126827
0.131558
0.12258
0.122388
0.143852
0.152778
0.166138
0.189069
0.262009
0.250218
0.278847
0.302289
0.215994
0.145729
0.130318
0.1304
0.12461
0.103465
0.0961525
0.0962417
0.0997145
0.0993612
0.0937722
0.0692911
0.0849296
0.166412
2.40319
2.00636
1.66273
1.38449
1.26921
1.02227
0.864046
0.820605
0.841671
1.02689
1.06768
1.01121
0.85901
0.697361
0.612125
0.57795
0.548985
0.48359
0.316369
0.131464
0.0593445
0.0407506
0.0405825
0.0478318
0.0812469
0.112408
0.123947
0.125778
0.111701
0.111604
0.153276
0.439593
0.612182
0.583705
0.418062
0.282489
0.239087
0.243574
0.25753
0.243101
0.182402
0.105368
0.0846082
0.09048
0.115304
0.366495
0.484218
0.307114
0.165734
0.141026
0.122082
0.108944
0.0922138
0.0825627
0.0795326
0.0801779
0.0872834
0.0982762
0.110893
0.152786
0.236283
0.251574
0.250071
0.21897
0.161708
0.164733
0.187469
0.205051
0.199063
0.193002
0.181502
0.155818
0.147526
0.14112
0.130753
0.131171
0.122137
0.122816
0.147501
0.15303
0.160775
0.186461
0.265134
0.24938
0.253996
0.316291
0.25313
0.156656
0.130237
0.124576
0.123911
0.108167
0.0969874
0.095462
0.0982754
0.0992222
0.109863
0.0817014
0.0872339
0.123085
1.47202
1.22988
1.03973
0.881345
0.836285
0.763993
0.610218
0.554788
0.557757
0.628066
0.893894
0.932224
0.876507
0.791122
0.695874
0.613065
0.53586
0.349459
0.145129
0.0611543
0.0385109
0.0383329
0.0483431
0.0831168
0.162321
0.199921
0.195979
0.185813
0.143191
0.128936
0.159873
0.405183
0.57436
0.555957
0.42604
0.301716
0.274319
0.283053
0.283302
0.24268
0.156349
0.0923321
0.081939
0.0918982
0.127643
0.405494
0.494067
0.3038
0.165973
0.15075
0.132182
0.117053
0.0959054
0.0859361
0.0801326
0.0804233
0.0849857
0.0976941
0.109663
0.143957
0.237666
0.243856
0.237552
0.216601
0.157095
0.147694
0.151287
0.178507
0.182492
0.181296
0.176243
0.159752
0.154161
0.142453
0.133606
0.129208
0.118535
0.120048
0.14015
0.152918
0.160713
0.194701
0.249731
0.235491
0.243358
0.298328
0.262451
0.165426
0.135263
0.122299
0.124084
0.115675
0.100474
0.0957293
0.0997006
0.100482
0.120855
0.101743
0.098552
0.114031
0.658331
0.529101
0.421727
0.35835
0.355939
0.366608
0.344966
0.281936
0.27327
0.291393
0.425527
0.662084
0.684536
0.669461
0.6119
0.506912
0.306596
0.137643
0.059114
0.0347182
0.0348277
0.0470152
0.0920461
0.204775
0.307227
0.308545
0.285454
0.251979
0.175497
0.14287
0.164348
0.37778
0.554559
0.540646
0.43012
0.337992
0.322511
0.324415
0.301915
0.218222
0.132484
0.0839435
0.0812928
0.0971113
0.144803
0.432748
0.497083
0.313519
0.182398
0.177966
0.15816
0.120365
0.0999752
0.0896494
0.0803461
0.0804266
0.0824997
0.0948211
0.110594
0.136848
0.235557
0.238128
0.228508
0.213293
0.158562
0.131712
0.129013
0.150085
0.161148
0.160999
0.159557
0.150636
0.147697
0.137238
0.133025
0.121048
0.115787
0.116844
0.122234
0.148916
0.158501
0.201022
0.210055
0.230683
0.259796
0.311607
0.286021
0.176166
0.147956
0.12408
0.126341
0.11916
0.108133
0.097795
0.10794
0.107535
0.122035
0.118591
0.124353
0.122134
0.18252
0.142461
0.111149
0.0986382
0.0999514
0.113555
0.115404
0.105603
0.0964793
0.098467
0.128099
0.256585
0.319887
0.324623
0.297313
0.211463
0.109664
0.0508734
0.0293295
0.0297259
0.043387
0.0965186
0.232291
0.414109
0.476599
0.465534
0.412227
0.324134
0.211493
0.162276
0.173477
0.336148
0.525597
0.525878
0.445097
0.390865
0.378314
0.360678
0.292953
0.187954
0.110267
0.0800738
0.0834859
0.109732
0.169482
0.447379
0.498484
0.366228
0.227834
0.220038
0.187554
0.120939
0.105106
0.0981852
0.0816104
0.0814707
0.0822065
0.0921185
0.115125
0.136179
0.225469
0.240234
0.228627
0.211449
0.161558
0.125358
0.114028
0.119624
0.133844
0.135762
0.1395
0.135978
0.134381
0.126542
0.12362
0.112671
0.111258
0.113977
0.118215
0.137967
0.140833
0.183763
0.193422
0.243014
0.294625
0.401116
0.362904
0.200348
0.162922
0.129705
0.133732
0.125384
0.119579
0.104066
0.112941
0.111208
0.1194
0.12399
0.13397
0.137972
0.0245554
0.0194873
0.016338
0.0158383
0.016772
0.0219768
0.0232885
0.0236277
0.0213154
0.0202822
0.0259029
0.0577006
0.094019
0.0983205
0.0902521
0.0646122
0.0353511
0.0222996
0.0234121
0.0371338
0.0941123
0.250859
0.512443
0.646155
0.658511
0.618724
0.534467
0.401745
0.245975
0.175873
0.176394
0.286276
0.48216
0.502788
0.474781
0.446731
0.424684
0.376327
0.261579
0.153223
0.0933219
0.0788407
0.0925242
0.130743
0.19372
0.450599
0.509174
0.454343
0.291329
0.259014
0.19676
0.12161
0.109216
0.110726
0.0866083
0.0856646
0.0830678
0.0904938
0.128291
0.138814
0.188063
0.241993
0.232877
0.211859
0.167668
0.127763
0.104797
0.103737
0.111475
0.115443
0.122524
0.124049
0.124445
0.119554
0.118864
0.11082
0.110493
0.118105
0.119231
0.127478
0.126793
0.16554
0.179358
0.239764
0.311444
0.433396
0.416105
0.24184
0.184122
0.138195
0.143129
0.136581
0.138389
0.122067
0.119548
0.114221
0.11603
0.124337
0.131682
0.147813
0.00140615
0.00144303
0.00145068
0.00150248
0.00166976
0.00201381
0.00202369
0.00209161
0.00227048
0.00220633
0.00298565
0.00680987
0.0174364
0.0196653
0.0186399
0.0150403
0.0144632
0.0170442
0.0315165
0.0866369
0.246588
0.591897
0.761967
0.77774
0.734049
0.654958
0.569714
0.446664
0.290636
0.193874
0.175567
0.228813
0.425497
0.479551
0.477553
0.467283
0.43846
0.350152
0.213746
0.120261
0.0851842
0.0828122
0.11606
0.159003
0.215865
0.436286
0.534793
0.538997
0.35768
0.266734
0.197088
0.134673
0.120122
0.129685
0.0896154
0.0915729
0.0857358
0.0911111
0.164361
0.14808
0.173305
0.234414
0.230081
0.211791
0.180292
0.136123
0.103359
0.0943745
0.0959873
0.100528
0.10447
0.116533
0.119187
0.116886
0.117151
0.110797
0.111048
0.118196
0.121823
0.122544
0.123009
0.145785
0.160472
0.225683
0.330811
0.422866
0.418958
0.294457
0.212966
0.149732
0.148518
0.146907
0.149324
0.12771
0.128961
0.118766
0.116652
0.124665
0.129853
0.146894
0.000379859
0.0005435
0.000605462
0.000600061
0.000590264
0.000566389
0.000533037
0.000551932
0.000712263
0.000811238
0.000984793
0.00134167
0.00221778
0.00347462
0.00469926
0.00664065
0.0114224
0.0283519
0.0821899
0.233722
0.62142
0.847382
0.868816
0.827409
0.729177
0.64633
0.573608
0.457161
0.321777
0.21461
0.172443
0.192362
0.337926
0.44788
0.472538
0.463929
0.418183
0.27369
0.156257
0.0998851
0.0844728
0.094585
0.155008
0.189447
0.23209
0.411384
0.555596
0.605249
0.391195
0.263559
0.202085
0.173143
0.148699
0.131675
0.0918216
0.0976101
0.0918517
0.0931025
0.238855
0.170223
0.17927
0.211668
0.216102
0.212155
0.189995
0.146869
0.105884
0.0886185
0.0877317
0.0921004
0.0945326
0.105384
0.108887
0.11399
0.115914
0.111275
0.111767
0.116428
0.122413
0.118512
0.117124
0.120722
0.143169
0.229055
0.4028
0.414713
0.411953
0.328992
0.252235
0.169875
0.144654
0.14568
0.175071
0.137826
0.146507
0.126974
0.120139
0.124596
0.125128
0.138129
0.001092
0.00190129
0.00301788
0.0031239
0.00295214
0.00260926
0.00250327
0.0027647
0.00359317
0.00408172
0.0041878
0.00375514
0.00376493
0.00444424
0.00679644
0.0130304
0.0317887
0.0863443
0.226674
0.598256
0.91443
0.954147
0.906049
0.793444
0.674013
0.615049
0.570841
0.471343
0.346042
0.231825
0.166529
0.167127
0.241835
0.4008
0.441446
0.422971
0.323191
0.190858
0.11998
0.0919489
0.0917518
0.128648
0.205522
0.217972
0.239613
0.373613
0.554875
0.654069
0.399501
0.258999
0.224174
0.226527
0.192982
0.138944
0.0957681
0.114802
0.116337
0.101939
0.259372
0.234427
0.228979
0.216151
0.212242
0.218229
0.200989
0.160766
0.111432
0.0885814
0.0832362
0.0881842
0.0897815
0.0984242
0.101835
0.111567
0.111553
0.10792
0.108661
0.117059
0.121744
0.113483
0.104078
0.106981
0.136378
0.251858
0.469479
0.418229
0.424097
0.367123
0.286686
0.200352
0.154807
0.139395
0.29799
0.169841
0.171769
0.142711
0.138631
0.129493
0.124043
0.126027
0.0113188
0.017736
0.0223411
0.0223656
0.0205364
0.0196928
0.0195772
0.0217977
0.0251159
0.0253972
0.0251963
0.0224465
0.0216236
0.0239998
0.0318152
0.0540056
0.110547
0.245412
0.5755
0.94052
1.02796
0.981918
0.82913
0.679217
0.590941
0.574681
0.554796
0.470606
0.349361
0.242743
0.156181
0.147158
0.17986
0.303133
0.334995
0.308262
0.212843
0.138022
0.103649
0.098197
0.112427
0.200142
0.247401
0.23426
0.239511
0.322012
0.532009
0.682705
0.402632
0.26042
0.25445
0.281567
0.273145
0.183868
0.115706
0.180078
0.192622
0.118177
0.253809
0.305676
0.273289
0.255651
0.221653
0.22791
0.20837
0.159257
0.109829
0.0866693
0.0796597
0.0852419
0.088359
0.0985065
0.103564
0.111031
0.106564
0.105352
0.107678
0.121808
0.125738
0.113598
0.0956631
0.10214
0.134259
0.307368
0.482506
0.384989
0.451809
0.434231
0.362287
0.210897
0.193425
0.143618
0.40646
0.242058
0.228061
0.164612
0.172078
0.148492
0.131626
0.126224
0.0927365
0.109159
0.117817
0.116415
0.107631
0.106341
0.106758
0.112544
0.114632
0.11288
0.108803
0.0944463
0.0924824
0.098564
0.120425
0.181352
0.311162
0.59371
0.945031
1.07435
1.04718
0.879065
0.663021
0.594966
0.524448
0.476543
0.475572
0.443991
0.351729
0.246564
0.15385
0.13369
0.145372
0.210507
0.225151
0.205512
0.144687
0.113634
0.107873
0.115821
0.171654
0.27914
0.27561
0.23224
0.228992
0.275962
0.474182
0.697997
0.413339
0.269354
0.281442
0.327422
0.342614
0.24033
0.187379
0.363967
0.375356
0.124807
0.244178
0.32611
0.268124
0.27169
0.242247
0.23361
0.206879
0.144413
0.098894
0.0799053
0.0765718
0.0786541
0.0856615
0.102881
0.111201
0.112818
0.106903
0.108168
0.122583
0.140769
0.139263
0.116942
0.0885691
0.0968196
0.131885
0.333172
0.466719
0.385737
0.48494
0.472616
0.568811
0.268301
0.25459
0.157247
0.26439
0.245848
0.24989
0.197138
0.207169
0.190275
0.15951
0.133821
0.39541
0.399996
0.40115
0.390376
0.354225
0.349357
0.345304
0.337237
0.331529
0.319112
0.286567
0.255846
0.254563
0.269022
0.319923
0.449035
0.672331
0.949205
1.09315
1.09178
0.940488
0.680953
0.587652
0.545514
0.502159
0.444274
0.419113
0.403837
0.361936
0.245984
0.155716
0.130497
0.132058
0.155085
0.160085
0.150044
0.12487
0.121204
0.127664
0.162106
0.284124
0.323867
0.2863
0.215581
0.209802
0.235892
0.388951
0.700404
0.458872
0.295196
0.332244
0.350558
0.363985
0.308948
0.267446
0.476988
0.552852
0.140567
0.235266
0.32062
0.242781
0.26289
0.248988
0.231259
0.187243
0.120076
0.0891486
0.0768155
0.0765551
0.0779461
0.0906731
0.106711
0.113235
0.110844
0.112776
0.128739
0.165688
0.176078
0.16239
0.11172
0.0793331
0.0833985
0.119564
0.331194
0.417871
0.464287
0.466391
0.444716
1.05037
0.405975
0.393104
0.189376
0.192844
0.243464
0.24069
0.216665
0.225417
0.220253
0.203974
0.155426
1.02277
0.967758
0.931298
0.845198
0.756508
0.733183
0.698531
0.665203
0.642505
0.585865
0.5117
0.488175
0.493028
0.525446
0.63065
0.798704
0.979429
1.09553
1.11401
0.992646
0.679961
0.593423
0.552849
0.520007
0.494363
0.469517
0.431412
0.411199
0.361901
0.247754
0.163413
0.134639
0.132649
0.141082
0.143231
0.141165
0.13824
0.146177
0.178764
0.284377
0.364201
0.347732
0.244777
0.184937
0.184117
0.19924
0.298867
0.671656
0.547086
0.348352
0.391597
0.364085
0.372483
0.360823
0.31326
0.415546
0.502939
0.186393
0.224997
0.323428
0.245832
0.259736
0.248828
0.216863
0.151047
0.101892
0.0884518
0.0806182
0.0798329
0.082422
0.102117
0.106311
0.107963
0.111493
0.136547
0.210616
0.244506
0.235181
0.176293
0.101322
0.0726645
0.0727871
0.113163
0.270642
0.390903
0.557944
0.32564
0.509902
0.954759
0.366521
0.479696
0.220616
0.191914
0.241308
0.212146
0.215607
0.224034
0.245643
0.238269
0.197576
1.83341
1.64555
1.49416
1.31115
1.17741
1.11098
1.02486
0.951761
0.88958
0.801836
0.747167
0.743237
0.758632
0.81523
0.947956
1.04317
1.10738
1.11537
1.00288
0.653832
0.563769
0.554401
0.520077
0.485636
0.470906
0.457699
0.423978
0.412238
0.352596
0.262916
0.182858
0.154857
0.146283
0.15051
0.156951
0.170203
0.182427
0.212919
0.308927
0.409034
0.402115
0.303634
0.17631
0.150125
0.153199
0.162592
0.217031
0.590645
0.657749
0.448756
0.465658
0.375973
0.367869
0.428239
0.296375
0.313378
0.374024
0.312381
0.212749
0.332734
0.269907
0.262792
0.237813
0.175826
0.117632
0.090878
0.0813467
0.0776676
0.0807767
0.0918962
0.0993485
0.101764
0.113139
0.155268
0.293252
0.378957
0.367985
0.287012
0.161439
0.0903213
0.067084
0.0676368
0.115032
0.215471
0.373763
0.573311
0.31362
0.372411
0.426983
0.312357
0.348381
0.21738
0.227281
0.241465
0.19497
0.204016
0.211955
0.243321
0.238904
0.216052
2.58882
2.20932
1.89631
1.62107
1.45081
1.33336
1.2158
1.13379
1.06683
0.99493
0.974084
0.980851
1.00994
1.08544
1.13146
1.13659
1.10936
0.964472
0.584497
0.47238
0.520118
0.541009
0.511512
0.472289
0.447774
0.432745
0.418061
0.408744
0.370679
0.296633
0.24244
0.236595
0.223245
0.213108
0.218655
0.22974
0.260777
0.374533
0.482167
0.478337
0.385196
0.224693
0.145448
0.138317
0.142748
0.146078
0.169575
0.454469
0.697629
0.590994
0.561014
0.41838
0.414595
0.560866
0.281993
0.340959
0.297023
0.433079
0.212142
0.308392
0.261899
0.242765
0.179293
0.125232
0.0921477
0.0785767
0.0739793
0.0744084
0.0836188
0.0915084
0.103763
0.13712
0.224299
0.474612
0.617001
0.583526
0.44155
0.250296
0.148409
0.0930196
0.0743883
0.0755986
0.107601
0.197603
0.38399
0.561397
0.305739
0.352263
0.389114
0.255442
0.228861
0.250919
0.31295
0.269027
0.195882
0.198792
0.205978
0.224286
0.221869
0.213168
3.06611
2.43144
1.99673
1.702
1.54611
1.42421
1.33222
1.27702
1.21848
1.18208
1.18121
1.19438
1.21198
1.2104
1.17973
1.07921
0.812779
0.478649
0.343207
0.388411
0.513914
0.581652
0.585642
0.518306
0.461758
0.434341
0.425117
0.424802
0.428689
0.366862
0.359372
0.329857
0.306718
0.309528
0.319018
0.358755
0.534005
0.633355
0.631941
0.504469
0.287845
0.211153
0.169482
0.165421
0.166332
0.172912
0.194729
0.402156
0.699682
0.709764
0.693495
0.482415
0.389935
0.619634
0.309057
0.295493
0.27755
0.413371
0.214322
0.230259
0.192814
0.178079
0.140743
0.126489
0.126524
0.137258
0.142227
0.146411
0.162808
0.207243
0.297943
0.525597
0.854489
0.905725
0.847484
0.597696
0.363805
0.267738
0.243614
0.207052
0.164414
0.155407
0.167662
0.254054
0.418634
0.532633
0.278901
0.366374
0.426322
0.272298
0.287948
0.433396
0.409179
0.334853
0.250706
0.232465
0.239144
0.234287
0.237296
0.241831
3.01384
2.27496
1.86543
1.66846
1.56331
1.47091
1.42143
1.38945
1.35985
1.34898
1.33803
1.31121
1.24891
1.11865
0.898223
0.599358
0.343175
0.225186
0.233105
0.357418
0.587902
0.864308
1.01613
1.01366
0.8279
0.610289
0.492657
0.468577
0.496255
0.504142
0.485199
0.453387
0.467073
0.533956
0.655331
0.901075
1.00278
0.959586
0.763897
0.489832
0.445422
0.43961
0.402417
0.408512
0.415714
0.488762
0.617527
0.674897
0.721255
0.775943
0.810065
0.799844
0.635371
0.674865
0.705498
0.299902
0.268827
0.270464
0.211779
0.22924
0.207457
0.236479
0.274065
0.415038
0.527299
0.636876
0.667642
0.736202
0.824592
1.06569
1.23816
1.30572
1.25949
1.06654
0.777649
0.623436
0.565639
0.594893
0.615001
0.614574
0.539948
0.500443
0.469232
0.488677
0.45117
0.523631
0.480039
0.343376
0.645882
0.397283
0.557142
0.957897
0.469164
0.557628
0.451507
0.458564
0.504201
0.606619
0.672016
0.80608
1.84668
1.45878
1.29002
1.21258
1.14945
1.08697
1.04118
1.00836
0.986076
0.969093
0.933208
0.858003
0.731172
0.560837
0.389252
0.262232
0.20222
0.195414
0.216314
0.285295
0.470887
0.90825
1.61712
2.36919
2.75824
2.77105
2.17233
1.31447
0.869482
0.547395
0.448527
0.543291
0.810688
1.26856
1.60997
1.6829
1.57864
1.25011
0.957832
0.881615
0.872553
0.808756
0.728204
0.784719
0.99649
1.43561
1.76095
1.72002
1.42383
0.932905
0.749679
1.07995
1.27219
1.29133
2.38066
0.383407
0.502558
0.366074
0.272168
0.375311
0.475465
0.898085
1.20193
1.68477
1.74456
1.84708
1.78689
1.8694
1.81454
1.83825
1.64471
1.43222
1.00431
0.859271
0.70014
0.75621
0.740768
0.822156
0.799729
0.949709
0.998094
1.26938
1.23895
1.13593
0.648851
0.575081
0.608726
0.567059
0.944948
0.440089
1.0374
0.518604
0.242745
0.436718
0.943937
1.81338
2.26122
3.36646
3.5967
5.00131
0.0479915
0.142529
0.346712
0.856099
1.24112
1.20853
1.01486
0.548072
0.181748
0.219996
0.305583
0.340928
0.436967
0.742945
1.68417
3.08913
4.29727
4.86184
4.97968
4.64779
4.14747
3.21595
2.21557
1.41134
1.07962
0.986036
1.45995
2.29037
1.97103
0.97206
0.803674
1.15413
1.65047
1.97826
1.58852
2.06393
3.07122
3.0848
2.29956
1.71854
0.61153
0.492631
0.428084
0.578401
1.04027
1.61295
2.08158
2.66513
3.44087
4.0904
4.42813
4.53986
4.11712
2.56703
1.23746
0.552504
0.30633
0.256279
0.26397
0.316654
0.395154
0.558849
0.781832
1.02756
1.09453
0.947118
0.717143
1.04059
1.79112
2.35015
2.57172
2.59879
1.51126
1.264
0.663166
0.49361
0.639308
1.18026
2.11658
2.46635
2.37372
1.99186
1.56281
1.19765
0.88997
0.673035
0.545415
0.483676
0.468716
0.478044
0.484368
0.461363
0.363206
0.282182
0.185851
0.125792
0.1097
0.138283
0.083809
0.0707716
0.135426
0.132367
0.134542
0.144001
0.220721
0.335516
0.54043
0.539749
0.444458
0.294975
0.300997
0.454315
0.880279
1.52248
2.05729
2.29747
1.97152
1.48084
1.0215
0.807287
0.631874
0.520966
0.494944
0.528843
0.686427
0.967064
1.21075
1.21652
1.40353
1.33182
0.991903
0.734355
0.699333
0.959995
2.1884
2.37575
1.56935
0.722443
0.385544
0.396458
0.34644
0.278118
0.271322
0.265696
0.313731
0.430974
0.516457
0.614659
0.829584
1.14863
1.45031
2.04237
3.0012
3.24273
2.90273
1.51131
0.652305
0.396884
0.282596
0.217699
0.17767
0.172545
0.185014
0.220083
0.31152
0.650164
1.05597
1.18946
1.19446
0.853152
0.698781
0.63241
0.32567
0.39518
0.432962
0.400927
0.401967
0.420509
0.501727
0.757339
1.18252
1.40352
1.40726
1.35879
1.17578
0.843135
0.534884
0.310101
0.180459
0.113551
0.0849297
0.07692
0.070618
0.061183
0.0548307
0.0762345
0.134937
0.0996585
0.0675496
0.0752396
0.157881
0.118837
0.112012
0.107145
0.0834955
0.0888095
0.135671
0.298941
0.404744
0.354481
0.260903
0.396186
0.896381
1.25154
1.28831
0.710762
0.472271
0.321207
0.265039
0.253435
0.250127
0.248964
0.258194
0.270192
0.293222
0.370229
0.806355
0.943867
0.859503
0.934055
0.808646
0.506788
0.589597
1.44257
2.25886
1.65195
0.473824
0.227082
0.189
0.251567
0.274793
0.242728
0.214025
0.169883
0.170634
0.202769
0.240368
0.258845
0.270098
0.276421
0.293941
0.358378
0.611504
1.62331
2.40785
2.2804
1.44191
0.644874
0.302079
0.14346
0.0883401
0.0790447
0.0864186
0.130062
0.331977
0.783247
1.00451
0.790153
0.450051
0.28844
0.235132
0.224249
0.177195
0.229534
0.253707
0.280244
0.28502
0.275033
0.264659
0.272407
0.328117
0.402582
0.520917
0.728916
0.830466
0.799293
0.665563
0.401312
0.205782
0.0976751
0.0511546
0.0377997
0.0355646
0.0358709
0.0434223
0.0860173
0.126333
0.0646272
0.059357
0.0707893
0.164163
0.114258
0.107833
0.109274
0.0995063
0.066439
0.066453
0.113806
0.28433
0.350596
0.277027
0.423971
0.712991
0.786294
0.495237
0.283795
0.226294
0.212149
0.211949
0.222961
0.225155
0.22586
0.23869
0.24441
0.244721
0.235913
0.349069
0.65668
0.626267
0.600768
0.481526
0.398731
0.687708
1.74141
1.92979
0.647365
0.179248
0.137062
0.140505
0.142863
0.136365
0.196395
0.219368
0.167793
0.147807
0.156773
0.222624
0.273428
0.275031
0.262059
0.242207
0.240738
0.257051
0.414626
1.15385
1.91485
1.80337
1.13556
0.470166
0.177023
0.0862522
0.074422
0.0866349
0.164341
0.442479
0.790577
0.754146
0.371944
0.215627
0.16323
0.143749
0.130107
0.116801
0.148583
0.145175
0.222297
0.231176
0.226428
0.212362
0.201361
0.195176
0.197559
0.208031
0.240619
0.309849
0.490311
0.518392
0.471697
0.318655
0.16314
0.0758277
0.0423217
0.0309843
0.0302385
0.042645
0.089624
0.0976385
0.0460104
0.0443975
0.0640391
0.165042
0.113848
0.118012
0.13114
0.119123
0.0827936
0.0561053
0.0653712
0.151737
0.326133
0.293805
0.432031
0.526042
0.447956
0.25698
0.203755
0.197811
0.206435
0.208608
0.223231
0.222455
0.225158
0.236941
0.242661
0.238566
0.221224
0.269117
0.448154
0.548573
0.490695
0.334691
0.334213
0.816132
1.78584
1.20233
0.329586
0.139363
0.104518
0.0984525
0.0998741
0.0989432
0.136815
0.218212
0.191697
0.152473
0.150737
0.195218
0.303894
0.338397
0.332217
0.309923
0.301288
0.299636
0.307152
0.440563
1.09412
1.56968
1.4187
0.796534
0.296988
0.121752
0.0919686
0.106488
0.212543
0.503485
0.736791
0.462148
0.208763
0.139061
0.120437
0.113111
0.0903497
0.0797813
0.0986507
0.0980906
0.162437
0.198346
0.195258
0.18728
0.176348
0.167381
0.162901
0.152218
0.151256
0.160757
0.197248
0.300846
0.362486
0.339586
0.252439
0.124391
0.056817
0.0338306
0.0303903
0.0429458
0.0864388
0.0745042
0.0343512
0.0344111
0.0597529
0.164594
0.119168
0.142947
0.166959
0.155938
0.119743
0.0635812
0.0544063
0.0939624
0.264074
0.295102
0.425645
0.439218
0.277367
0.200623
0.189394
0.207678
0.218067
0.217049
0.235197
0.230963
0.236449
0.243659
0.247462
0.242662
0.221318
0.239059
0.358449
0.519654
0.447588
0.295171
0.320156
0.909111
1.73
0.758277
0.240817
0.171057
0.118546
0.0855152
0.0932047
0.0939846
0.119433
0.188545
0.194971
0.167581
0.16072
0.172947
0.248669
0.346504
0.347945
0.323785
0.310784
0.314812
0.312557
0.328945
0.491982
1.12418
1.28512
1.0781
0.496125
0.19631
0.120338
0.130455
0.25378
0.519132
0.594287
0.303017
0.144268
0.104796
0.09577
0.0919942
0.0789691
0.0645981
0.0793403
0.0799286
0.138691
0.188347
0.179568
0.175662
0.167242
0.165651
0.158205
0.151442
0.134781
0.128204
0.132424
0.155072
0.230292
0.277794
0.264254
0.196996
0.0886549
0.0433415
0.0322283
0.0439732
0.0727208
0.0558794
0.0248985
0.030199
0.0589713
0.163767
0.128418
0.161247
0.178063
0.18194
0.159708
0.088837
0.0556787
0.0691912
0.206468
0.284661
0.413397
0.39317
0.220291
0.183954
0.194704
0.219464
0.225094
0.229353
0.239194
0.233207
0.236782
0.244852
0.250395
0.253037
0.228296
0.226641
0.288532
0.481088
0.442441
0.298496
0.336893
0.981402
1.50362
0.523717
0.197069
0.145485
0.114919
0.0836475
0.0932992
0.0929173
0.110202
0.154076
0.171989
0.169072
0.171803
0.173651
0.193075
0.290303
0.329758
0.318882
0.289599
0.288712
0.299528
0.303775
0.34545
0.64138
1.07223
1.04774
0.71666
0.299281
0.155253
0.154219
0.285023
0.506819
0.472991
0.225061
0.116406
0.0833996
0.0757327
0.0741817
0.0716537
0.0550328
0.0702417
0.0715691
0.12383
0.187381
0.174592
0.172209
0.164547
0.174327
0.180614
0.173653
0.151366
0.124855
0.115286
0.118399
0.139175
0.205079
0.232217
0.219597
0.148618
0.0677382
0.0389047
0.0436668
0.0645879
0.0439477
0.0228531
0.0284363
0.0592494
0.156287
0.142557
0.167837
0.179879
0.204512
0.189085
0.142234
0.0643195
0.0650513
0.157357
0.265201
0.390563
0.335183
0.194373
0.180548
0.205719
0.214973
0.192813
0.210838
0.204095
0.203186
0.212504
0.237898
0.253238
0.255048
0.236716
0.22178
0.248911
0.39506
0.396924
0.304803
0.357401
1.03811
1.26422
0.38731
0.165461
0.133526
0.0953513
0.0941232
0.0975289
0.0925383
0.104332
0.124274
0.14242
0.158482
0.176307
0.181444
0.191115
0.240008
0.295051
0.292228
0.263383
0.25281
0.262755
0.272663
0.292856
0.39424
0.793036
0.95379
0.826027
0.415003
0.198951
0.177169
0.304635
0.460291
0.373448
0.180173
0.109136
0.083645
0.0638055
0.0605649
0.0668485
0.0504951
0.062833
0.0671114
0.105081
0.1981
0.180891
0.169672
0.170328
0.187414
0.233353
0.238684
0.211449
0.152215
0.11693
0.107885
0.111909
0.139161
0.196567
0.206197
0.18283
0.113329
0.0624338
0.0466456
0.0603085
0.0422009
0.0241157
0.0322204
0.0626657
0.151138
0.158029
0.169039
0.175488
0.209372
0.202385
0.176381
0.0869151
0.0660565
0.119923
0.243773
0.381168
0.300529
0.18366
0.179136
0.198822
0.194384
0.164625
0.185129
0.183329
0.181057
0.197801
0.235195
0.256676
0.267395
0.245554
0.221094
0.229066
0.338346
0.368715
0.312376
0.368105
1.07811
1.07247
0.297185
0.143499
0.12939
0.10771
0.122687
0.10771
0.0979138
0.102326
0.115832
0.135894
0.14633
0.162939
0.196106
0.204773
0.235537
0.277477
0.273049
0.24734
0.225972
0.227514
0.237479
0.254013
0.302396
0.545943
0.810183
0.788971
0.531828
0.251252
0.198721
0.311487
0.420818
0.291754
0.138738
0.0933157
0.0854372
0.0659004
0.0522468
0.0630714
0.0490422
0.058187
0.0648098
0.0980949
0.199824
0.208537
0.171267
0.176804
0.194486
0.248234
0.296374
0.295478
0.235769
0.145356
0.11039
0.105191
0.112256
0.154821
0.189892
0.186087
0.146252
0.109675
0.0603493
0.0601467
0.0430525
0.0286026
0.0367438
0.069271
0.148739
0.164261
0.167109
0.163095
0.19266
0.205662
0.195793
0.134472
0.0708406
0.101155
0.221045
0.373839
0.293463
0.178967
0.172483
0.179743
0.16199
0.172027
0.192638
0.189153
0.182763
0.201543
0.250506
0.268188
0.282769
0.259678
0.223921
0.222503
0.310804
0.378131
0.337131
0.390897
1.09729
0.929072
0.240847
0.138005
0.104062
0.116095
0.128753
0.110348
0.100888
0.102368
0.112764
0.13514
0.139198
0.152419
0.215593
0.23774
0.250555
0.270019
0.264261
0.235678
0.201263
0.198463
0.203388
0.217405
0.251295
0.378005
0.679351
0.729198
0.604368
0.302259
0.217365
0.308877
0.399015
0.256893
0.111994
0.0739946
0.0715909
0.0676679
0.0491999
0.0562201
0.0488228
0.0565909
0.0636378
0.0965141
0.183433
0.236871
0.198874
0.18325
0.19197
0.222421
0.27923
0.308718
0.301369
0.219272
0.131102
0.106326
0.105711
0.119646
0.169457
0.180595
0.162003
0.140385
0.100826
0.0672371
0.0446176
0.0334316
0.040744
0.0773401
0.138187
0.167587
0.167326
0.160696
0.175952
0.200363
0.203033
0.164793
0.0837442
0.0991446
0.202206
0.354423
0.27376
0.169128
0.167051
0.178423
0.156883
0.205224
0.211504
0.20904
0.207193
0.23013
0.277426
0.286226
0.295207
0.279366
0.226324
0.216679
0.279153
0.396021
0.378069
0.447115
1.09956
0.832559
0.226657