/*--------------------------------*- C++ -*----------------------------------*\
| =========                 |                                                 |
| \\      /  F ield         | OpenFOAM: The Open Source CFD Toolbox           |
|  \\    /   O peration     | Version:  2.4.0                                 |
|   \\  /    A nd           | Web:      www.OpenFOAM.org                      |
|    \\/     M anipulation  |                                                 |
\*---------------------------------------------------------------------------*/
FoamFile
{
    version     2.0;
    format      ascii;
    class       volVectorField;
    location    "0.356159";
    object      UMean;
}
// * * * * * * * * * * * * * * * * * * * * * * * * * * * * * * * * * * * * * //

dimensions      [0 1 -1 0 0 0 0];

internalField   nonuniform List<vector> 
17600
(
(9.84 -0.189902 0)
(9.53115 -0.13672 0)
(9.21984 -0.069273 0)
(8.92012 -0.0277767 0)
(8.651 -0.00610391 0)
(8.41905 0.00372129 0)
(8.22265 0.00723709 0)
(8.05821 0.00762446 0)
(7.92174 0.00661275 0)
(7.80882 0.00516304 0)
(7.71497 0.00376332 0)
(7.63615 0.00262767 0)
(7.5689 0.00181936 0)
(7.51039 0.00132473 0)
(7.45814 0.00109835 0)
(7.41023 0.00111896 0)
(7.36382 0.00127827 0)
(7.31833 0.00246672 0)
(7.25865 0.000840688 0)
(7.20824 0.0271197 0)
(10.0533 0.103388 0)
(10.1481 0.133879 0)
(10.1832 0.103774 0)
(10.1722 0.0767747 0)
(10.1316 0.0586798 0)
(10.0682 0.0463899 0)
(9.98676 0.0377551 0)
(9.89254 0.0314524 0)
(9.79103 0.0266634 0)
(9.68649 0.0229234 0)
(9.58198 0.0199381 0)
(9.4798 0.0175164 0)
(9.38162 0.0155306 0)
(9.28859 0.013897 0)
(9.20126 0.0125662 0)
(9.12005 0.011552 0)
(9.04385 0.0108795 0)
(8.97563 0.0111318 0)
(8.90165 0.0122355 0)
(8.87912 0.0229609 0)
(10.0064 0.0183278 0)
(10.0492 0.00998672 0)
(10.0893 0.0113977 0)
(10.1172 0.0208122 0)
(10.1372 0.0280346 0)
(10.1501 0.0312865 0)
(10.1542 0.0319569 0)
(10.1493 0.0313088 0)
(10.1363 0.0300393 0)
(10.1163 0.0284949 0)
(10.0898 0.026856 0)
(10.0576 0.0252322 0)
(10.0203 0.0236882 0)
(9.97885 0.0222642 0)
(9.93378 0.0209834 0)
(9.88594 0.0199472 0)
(9.83527 0.0190902 0)
(9.78393 0.0196318 0)
(9.72606 0.0192994 0)
(9.67983 0.032021 0)
(10.0012 0.0150197 0)
(10.0278 0.0279636 0)
(10.0561 0.0330258 0)
(10.0781 0.0354441 0)
(10.0988 0.0358602 0)
(10.1188 0.0349267 0)
(10.1362 0.0334589 0)
(10.1498 0.0319134 0)
(10.1601 0.0304342 0)
(10.1672 0.0290443 0)
(10.1711 0.02776 0)
(10.1719 0.0266007 0)
(10.1697 0.025573 0)
(10.1646 0.0246777 0)
(10.1566 0.0239141 0)
(10.1457 0.0233777 0)
(10.1315 0.0230268 0)
(10.1151 0.0240363 0)
(10.0926 0.0246762 0)
(10.0743 0.0362187 0)
(10.0002 0.0138457 0)
(10.022 0.0274523 0)
(10.0452 0.0297294 0)
(10.0634 0.0307675 0)
(10.0816 0.0315769 0)
(10.1009 0.0314467 0)
(10.1193 0.030649 0)
(10.1358 0.0296117 0)
(10.1505 0.0285328 0)
(10.1637 0.027478 0)
(10.1752 0.0264917 0)
(10.185 0.0256078 0)
(10.1933 0.0248414 0)
(10.2001 0.024203 0)
(10.2052 0.0237005 0)
(10.2089 0.0234453 0)
(10.2105 0.0234112 0)
(10.2111 0.02474 0)
(10.2081 0.0260485 0)
(10.21 0.0362545 0)
(9.99978 0.0128261 0)
(10.0192 0.0253594 0)
(10.0403 0.0270082 0)
(10.0567 0.0280838 0)
(10.0734 0.0291745 0)
(10.0916 0.029233 0)
(10.1094 0.0285609 0)
(10.126 0.0276534 0)
(10.1415 0.0267159 0)
(10.1561 0.0258071 0)
(10.1697 0.0249661 0)
(10.1822 0.0242236 0)
(10.1938 0.0235944 0)
(10.2044 0.0230919 0)
(10.2141 0.0227271 0)
(10.2228 0.0226193 0)
(10.2302 0.0227506 0)
(10.2371 0.0242095 0)
(10.2418 0.0258191 0)
(10.2512 0.0347634 0)
(9.99939 0.0114089 0)
(10.0173 0.0228786 0)
(10.0372 0.0247112 0)
(10.053 0.0258912 0)
(10.0689 0.0270079 0)
(10.0861 0.0270904 0)
(10.1033 0.0264744 0)
(10.1196 0.0256549 0)
(10.135 0.0248181 0)
(10.1499 0.0240122 0)
(10.164 0.023273 0)
(10.1774 0.02263 0)
(10.1902 0.022098 0)
(10.2023 0.0216925 0)
(10.2136 0.0214265 0)
(10.2244 0.0214236 0)
(10.2342 0.0216741 0)
(10.2438 0.0231957 0)
(10.2518 0.0249733 0)
(10.264 0.0328682 0)
(9.99906 0.0100522 0)
(10.0157 0.0207311 0)
(10.0349 0.0227848 0)
(10.0504 0.0239025 0)
(10.0659 0.024929 0)
(10.0826 0.0250078 0)
(10.0994 0.0244382 0)
(10.1153 0.0236881 0)
(10.1305 0.0229273 0)
(10.1453 0.022198 0)
(10.1595 0.0215343 0)
(10.1731 0.020965 0)
(10.1863 0.0205047 0)
(10.1989 0.0201706 0)
(10.211 0.0199782 0)
(10.2226 0.0200529 0)
(10.2335 0.0203945 0)
(10.2443 0.0219411 0)
(10.2541 0.0238246 0)
(10.2676 0.0308367 0)
(9.9988 0.00884566 0)
(10.0144 0.0187582 0)
(10.033 0.0209003 0)
(10.0483 0.0219126 0)
(10.0636 0.022859 0)
(10.0801 0.0229535 0)
(10.0966 0.0224369 0)
(10.1122 0.0217517 0)
(10.1273 0.021058 0)
(10.1419 0.020394 0)
(10.156 0.019793 0)
(10.1697 0.0192833 0)
(10.1829 0.0188799 0)
(10.1957 0.0186017 0)
(10.2081 0.0184668 0)
(10.2201 0.0186009 0)
(10.2315 0.0190133 0)
(10.243 0.0205603 0)
(10.2538 0.0225042 0)
(10.2677 0.0287604 0)
(9.99858 0.00776694 0)
(10.0133 0.0168707 0)
(10.0313 0.0190144 0)
(10.0466 0.0199342 0)
(10.0617 0.0208122 0)
(10.078 0.0209245 0)
(10.0944 0.0204604 0)
(10.1099 0.0198379 0)
(10.1248 0.0192082 0)
(10.1393 0.0186053 0)
(10.1534 0.0180614 0)
(10.167 0.0176045 0)
(10.1802 0.0172499 0)
(10.193 0.0170187 0)
(10.2055 0.0169314 0)
(10.2176 0.0171128 0)
(10.2293 0.0175811 0)
(10.2411 0.0191118 0)
(10.2525 0.0210806 0)
(10.2668 0.0266805 0)
(9.9984 0.00678733 0)
(10.0123 0.0150486 0)
(10.0299 0.0171399 0)
(10.045 0.0179783 0)
(10.0601 0.0187857 0)
(10.0763 0.0189096 0)
(10.0925 0.0184968 0)
(10.108 0.0179369 0)
(10.1229 0.0173705 0)
(10.1373 0.0168277 0)
(10.1513 0.0163391 0)
(10.1648 0.0159322 0)
(10.178 0.0156228 0)
(10.1908 0.0154338 0)
(10.2033 0.0153883 0)
(10.2155 0.0156089 0)
(10.2274 0.0161222 0)
(10.2393 0.0176256 0)
(10.2511 0.0195916 0)
(10.2655 0.0246148 0)
(9.99825 0.00588835 0)
(10.0115 0.0132895 0)
(10.0286 0.0152838 0)
(10.0437 0.0160426 0)
(10.0587 0.0167738 0)
(10.0748 0.0169027 0)
(10.091 0.0165401 0)
(10.1064 0.0160426 0)
(10.1213 0.0155395 0)
(10.1356 0.0150568 0)
(10.1496 0.0146231 0)
(10.1631 0.0142653 0)
(10.1762 0.0139997 0)
(10.189 0.0138505 0)
(10.2015 0.0138434 0)
(10.2138 0.0140978 0)
(10.2257 0.0146477 0)
(10.2377 0.0161168 0)
(10.2497 0.0180588 0)
(10.2642 0.0225696 0)
(9.99813 0.00505663 0)
(10.0108 0.0115889 0)
(10.0276 0.0134449 0)
(10.0425 0.0141226 0)
(10.0575 0.0147732 0)
(10.0736 0.0149017 0)
(10.0897 0.0145877 0)
(10.1051 0.0141521 0)
(10.1199 0.0137118 0)
(10.1342 0.0132891 0)
(10.1482 0.0129106 0)
(10.1617 0.0126018 0)
(10.1748 0.0123794 0)
(10.1876 0.0122688 0)
(10.2001 0.0122979 0)
(10.2123 0.0125825 0)
(10.2243 0.0131625 0)
(10.2364 0.0145929 0)
(10.2486 0.0164945 0)
(10.2631 0.0205465 0)
(9.99803 0.00428082 0)
(10.0102 0.00994018 0)
(10.0266 0.0116209 0)
(10.0415 0.0122153 0)
(10.0565 0.0127828 0)
(10.0725 0.0129055 0)
(10.0885 0.0126385 0)
(10.1039 0.0122639 0)
(10.1187 0.0118857 0)
(10.1331 0.0115229 0)
(10.147 0.0111996 0)
(10.1605 0.0109398 0)
(10.1736 0.0107605 0)
(10.1864 0.0106878 0)
(10.1989 0.0107516 0)
(10.2112 0.0110636 0)
(10.2232 0.0116684 0)
(10.2353 0.0130574 0)
(10.2477 0.0149063 0)
(10.2622 0.0185449 0)
(9.99795 0.00355091 0)
(10.0098 0.00833609 0)
(10.0259 0.00981009 0)
(10.0407 0.0103187 0)
(10.0556 0.0108013 0)
(10.0716 0.0109136 0)
(10.0876 0.0106917 0)
(10.103 0.0103772 0)
(10.1178 0.0100604 0)
(10.1321 0.00975717 0)
(10.146 0.009489 0)
(10.1595 0.00927823 0)
(10.1726 0.00914174 0)
(10.1854 0.00910642 0)
(10.1979 0.00920376 0)
(10.2102 0.00954079 0)
(10.2223 0.010166 0)
(10.2345 0.0115123 0)
(10.247 0.0132992 0)
(10.2615 0.0165636 0)
(9.99789 0.00285799 0)
(10.0094 0.0067696 0)
(10.0252 0.00801058 0)
(10.04 0.00843104 0)
(10.0549 0.00882736 0)
(10.0708 0.00892522 0)
(10.0868 0.00874674 0)
(10.1022 0.00849161 0)
(10.117 0.00823546 0)
(10.1313 0.00799147 0)
(10.1452 0.00777832 0)
(10.1587 0.0076164 0)
(10.1718 0.00752248 0)
(10.1846 0.00752397 0)
(10.1972 0.00765366 0)
(10.2095 0.00801385 0)
(10.2216 0.00865545 0)
(10.2339 0.00995834 0)
(10.2465 0.0116767 0)
(10.2609 0.0146017 0)
(9.99784 0.00219412 0)
(10.0091 0.00523374 0)
(10.0248 0.00622055 0)
(10.0395 0.00655052 0)
(10.0543 0.00685975 0)
(10.0702 0.0069398 0)
(10.0862 0.00680331 0)
(10.1016 0.00660691 0)
(10.1164 0.00641079 0)
(10.1307 0.00622564 0)
(10.1446 0.0060673 0)
(10.1581 0.00595403 0)
(10.1712 0.00590235 0)
(10.184 0.00594002 0)
(10.1966 0.00610092 0)
(10.2089 0.00648247 0)
(10.2211 0.007137 0)
(10.2334 0.00839637 0)
(10.2461 0.0100418 0)
(10.2605 0.0126584 0)
(9.9978 0.00155211 0)
(10.0089 0.00372162 0)
(10.0244 0.00443802 0)
(10.0391 0.00467548 0)
(10.0539 0.00489704 0)
(10.0698 0.00495666 0)
(10.0857 0.00486103 0)
(10.1011 0.00472287 0)
(10.1159 0.00458624 0)
(10.1302 0.00445959 0)
(10.1442 0.00435585 0)
(10.1577 0.00429098 0)
(10.1708 0.00428117 0)
(10.1836 0.00435439 0)
(10.1962 0.00454534 0)
(10.2085 0.00494659 0)
(10.2208 0.00561095 0)
(10.2332 0.00682709 0)
(10.2459 0.00839699 0)
(10.2603 0.0107336 0)
(9.99778 0.000925333 0)
(10.0087 0.00222639 0)
(10.0242 0.00266092 0)
(10.0388 0.00280431 0)
(10.0536 0.00293784 0)
(10.0695 0.00297517 0)
(10.0854 0.00291954 0)
(10.1008 0.00283925 0)
(10.1156 0.00276173 0)
(10.1299 0.0026933 0)
(10.1439 0.00264397 0)
(10.1574 0.00262724 0)
(10.1705 0.00265889 0)
(10.1833 0.002767 0)
(10.1959 0.00298686 0)
(10.2083 0.00340627 0)
(10.2206 0.00407773 0)
(10.233 0.00525123 0)
(10.2458 0.00674455 0)
(10.2602 0.00882716 0)
(9.99777 0.000307554 0)
(10.0087 0.000741275 0)
(10.024 0.000887113 0)
(10.0387 0.000935451 0)
(10.0535 0.000980743 0)
(10.0693 0.000994646 0)
(10.0853 0.000978503 0)
(10.1007 0.000955862 0)
(10.1154 0.000937184 0)
(10.1298 0.000926782 0)
(10.1437 0.000931669 0)
(10.1572 0.000962818 0)
(10.1703 0.00103551 0)
(10.1832 0.00117784 0)
(10.1958 0.0014255 0)
(10.2082 0.00186163 0)
(10.2205 0.00253781 0)
(10.233 0.00366953 0)
(10.2459 0.00508651 0)
(10.2602 0.00693942 0)
(9.99777 -0.000307249 0)
(10.0087 -0.000740476 0)
(10.024 -0.000885586 0)
(10.0387 -0.00093264 0)
(10.0535 -0.000975661 0)
(10.0693 -0.000985569 0)
(10.0853 -0.000962407 0)
(10.1007 -0.0009275 0)
(10.1154 -0.000887455 0)
(10.1298 -0.000839965 0)
(10.1437 -0.000781024 0)
(10.1572 -0.000702255 0)
(10.1704 -0.000588942 0)
(10.1832 -0.000413054 0)
(10.1958 -0.000138675 0)
(10.2083 0.000312856 0)
(10.2206 0.000991688 0)
(10.2332 0.00208272 0)
(10.2461 0.0034247 0)
(10.2603 0.00507062 0)
(9.99778 -0.000925029 0)
(10.0087 -0.0022256 0)
(10.0242 -0.0026594 0)
(10.0388 -0.00280152 0)
(10.0536 -0.00293279 0)
(10.0695 -0.00296614 0)
(10.0854 -0.00290353 0)
(10.1008 -0.00281104 0)
(10.1156 -0.00271225 0)
(10.13 -0.00260692 0)
(10.1439 -0.00249407 0)
(10.1574 -0.00236794 0)
(10.1705 -0.00221442 0)
(10.1834 -0.00200563 0)
(10.196 -0.00170557 0)
(10.2085 -0.00123986 0)
(10.2209 -0.000560154 0)
(10.2335 0.000491471 0)
(10.2464 0.00176067 0)
(10.2606 0.00322103 0)
(9.9978 -0.00155181 0)
(10.0089 -0.00372083 0)
(10.0244 -0.00443652 0)
(10.0391 -0.00467272 0)
(10.0539 -0.00489204 0)
(10.0698 -0.00494773 0)
(10.0857 -0.00484519 0)
(10.1011 -0.00469495 0)
(10.1159 -0.00453727 0)
(10.1303 -0.00437409 0)
(10.1442 -0.00420744 0)
(10.1577 -0.00403418 0)
(10.1709 -0.00384088 0)
(10.1837 -0.00359985 0)
(10.1964 -0.00327511 0)
(10.2089 -0.00279636 0)
(10.2213 -0.00211727 0)
(10.2339 -0.0011036 0)
(10.2469 9.57498e-05 0)
(10.2609 0.00139078 0)
(9.99784 -0.00219382 0)
(10.0091 -0.00523297 0)
(10.0248 -0.00621908 0)
(10.0395 -0.00654781 0)
(10.0543 -0.00685483 0)
(10.0702 -0.00693101 0)
(10.0862 -0.00678773 0)
(10.1016 -0.00657944 0)
(10.1164 -0.00636259 0)
(10.1307 -0.00614144 0)
(10.1447 -0.00592111 0)
(10.1582 -0.00570097 0)
(10.1713 -0.00546831 0)
(10.1842 -0.0051957 0)
(10.1969 -0.00484725 0)
(10.2094 -0.00435649 0)
(10.2219 -0.00367929 0)
(10.2345 -0.002702 0)
(10.2475 -0.001569 0)
(10.2615 -0.000420095 0)
(9.99789 -0.0028577 0)
(10.0094 -0.00676885 0)
(10.0253 -0.00800914 0)
(10.04 -0.00842838 0)
(10.0549 -0.00882256 0)
(10.0708 -0.00891663 0)
(10.0868 -0.0087315 0)
(10.1022 -0.00846472 0)
(10.117 -0.00818828 0)
(10.1314 -0.00790902 0)
(10.1453 -0.00763508 0)
(10.1588 -0.00736831 0)
(10.172 -0.00709674 0)
(10.1849 -0.0067932 0)
(10.1975 -0.006422 0)
(10.2101 -0.00592021 0)
(10.2226 -0.00524593 0)
(10.2353 -0.00430335 0)
(10.2482 -0.00323274 0)
(10.2622 -0.00221176 0)
(9.99795 -0.00355063 0)
(10.0098 -0.00833537 0)
(10.0259 -0.00980869 0)
(10.0407 -0.0103161 0)
(10.0556 -0.0107966 0)
(10.0716 -0.0109052 0)
(10.0876 -0.0106769 0)
(10.103 -0.010351 0)
(10.1178 -0.0100144 0)
(10.1322 -0.00967687 0)
(10.1461 -0.00934942 0)
(10.1596 -0.00903631 0)
(10.1728 -0.0087263 0)
(10.1857 -0.00839253 0)
(10.1984 -0.00799951 0)
(10.211 -0.00748759 0)
(10.2235 -0.00681708 0)
(10.2362 -0.00590739 0)
(10.2492 -0.00489487 0)
(10.263 -0.0039845 0)
(9.99803 -0.00428055 0)
(10.0102 -0.00993948 0)
(10.0266 -0.0116196 0)
(10.0415 -0.0122128 0)
(10.0565 -0.0127783 0)
(10.0725 -0.0128974 0)
(10.0886 -0.0126242 0)
(10.104 -0.0122386 0)
(10.1188 -0.0118413 0)
(10.1331 -0.0114452 0)
(10.1471 -0.0110643 0)
(10.1606 -0.0107052 0)
(10.1738 -0.0103573 0)
(10.1867 -0.00999403 0)
(10.1994 -0.00958009 0)
(10.212 -0.00905885 0)
(10.2246 -0.00839269 0)
(10.2373 -0.00751397 0)
(10.2503 -0.00655486 0)
(10.2641 -0.00573858 0)
(9.99813 -0.00505636 0)
(10.0108 -0.0115883 0)
(10.0276 -0.0134436 0)
(10.0425 -0.0141202 0)
(10.0575 -0.0147689 0)
(10.0736 -0.0148939 0)
(10.0897 -0.014574 0)
(10.1051 -0.0141278 0)
(10.1199 -0.0136691 0)
(10.1343 -0.0132143 0)
(10.1482 -0.0127804 0)
(10.1618 -0.0123757 0)
(10.175 -0.0119904 0)
(10.1879 -0.0115983 0)
(10.2007 -0.0111643 0)
(10.2133 -0.0106343 0)
(10.2259 -0.00997276 0)
(10.2387 -0.00912276 0)
(10.2517 -0.00821196 0)
(10.2653 -0.00747395 0)
(9.99825 -0.0058881 0)
(10.0115 -0.0132889 0)
(10.0286 -0.0152826 0)
(10.0437 -0.0160403 0)
(10.0587 -0.0167697 0)
(10.0748 -0.0168954 0)
(10.091 -0.016527 0)
(10.1065 -0.0160195 0)
(10.1213 -0.0154988 0)
(10.1357 -0.0149853 0)
(10.1497 -0.0144986 0)
(10.1632 -0.0140488 0)
(10.1765 -0.0136267 0)
(10.1894 -0.0132064 0)
(10.2022 -0.0127527 0)
(10.2149 -0.0122142 0)
(10.2275 -0.0115568 0)
(10.2403 -0.0107328 0)
(10.2533 -0.00986459 0)
(10.2668 -0.00918953 0)
(9.9984 -0.00678709 0)
(10.0123 -0.015048 0)
(10.0299 -0.0171388 0)
(10.045 -0.0179762 0)
(10.0601 -0.0187818 0)
(10.0763 -0.0189027 0)
(10.0926 -0.0184844 0)
(10.108 -0.017915 0)
(10.1229 -0.0173319 0)
(10.1373 -0.01676 0)
(10.1514 -0.0162209 0)
(10.165 -0.0157263 0)
(10.1782 -0.0152676 0)
(10.1913 -0.0148189 0)
(10.2041 -0.0143454 0)
(10.2168 -0.0137977 0)
(10.2294 -0.0131432 0)
(10.2422 -0.0123416 0)
(10.2551 -0.0115091 0)
(10.2685 -0.010882 0)
(9.99858 -0.00776672 0)
(10.0133 -0.0168701 0)
(10.0313 -0.0190133 0)
(10.0466 -0.0199322 0)
(10.0617 -0.0208086 0)
(10.078 -0.020918 0)
(10.0944 -0.0204488 0)
(10.1099 -0.0198174 0)
(10.1249 -0.0191719 0)
(10.1394 -0.0185416 0)
(10.1535 -0.01795 0)
(10.1671 -0.0174102 0)
(10.1805 -0.0169141 0)
(10.1935 -0.0164359 0)
(10.2063 -0.0159409 0)
(10.219 -0.0153817 0)
(10.2316 -0.0147272 0)
(10.2443 -0.0139428 0)
(10.2571 -0.013138 0)
(10.2702 -0.0125437 0)
(9.9988 -0.00884546 0)
(10.0144 -0.0187577 0)
(10.033 -0.0208993 0)
(10.0483 -0.0219108 0)
(10.0636 -0.0228557 0)
(10.0801 -0.0229475 0)
(10.0966 -0.0224262 0)
(10.1123 -0.0217326 0)
(10.1273 -0.0210243 0)
(10.1419 -0.0203346 0)
(10.1561 -0.019689 0)
(10.1699 -0.0191016 0)
(10.1832 -0.018565 0)
(10.1962 -0.0180536 0)
(10.209 -0.0175329 0)
(10.2216 -0.0169576 0)
(10.234 -0.0162975 0)
(10.2464 -0.015523 0)
(10.2589 -0.0147355 0)
(10.2716 -0.0141588 0)
(9.99906 -0.010052 0)
(10.0157 -0.0207306 0)
(10.0349 -0.0227839 0)
(10.0504 -0.0239008 0)
(10.0659 -0.024926 0)
(10.0826 -0.0250024 0)
(10.0994 -0.0244284 0)
(10.1153 -0.0236706 0)
(10.1306 -0.0228964 0)
(10.1453 -0.0221433 0)
(10.1596 -0.0214382 0)
(10.1733 -0.0207966 0)
(10.1866 -0.020212 0)
(10.1995 -0.0196596 0)
(10.212 -0.019105 0)
(10.2242 -0.0185048 0)
(10.2362 -0.0178298 0)
(10.248 -0.0170548 0)
(10.2599 -0.0162709 0)
(10.2718 -0.0156953 0)
(9.99939 -0.0114087 0)
(10.0173 -0.0228782 0)
(10.0372 -0.0247104 0)
(10.053 -0.0258897 0)
(10.0689 -0.0270052 0)
(10.0862 -0.0270855 0)
(10.1033 -0.0264656 0)
(10.1196 -0.0256391 0)
(10.1351 -0.02479 0)
(10.1499 -0.0239624 0)
(10.1641 -0.0231852 0)
(10.1776 -0.0224756 0)
(10.1905 -0.0218289 0)
(10.2029 -0.0212207 0)
(10.2147 -0.0206175 0)
(10.226 -0.0199777 0)
(10.237 -0.0192729 0)
(10.2477 -0.0184819 0)
(10.2583 -0.0176835 0)
(10.2686 -0.0170901 0)
(9.99978 -0.012826 0)
(10.0192 -0.025359 0)
(10.0403 -0.0270075 0)
(10.0567 -0.0280825 0)
(10.0734 -0.0291721 0)
(10.0916 -0.0292287 0)
(10.1094 -0.0285531 0)
(10.126 -0.0276394 0)
(10.1415 -0.0266907 0)
(10.1561 -0.0257624 0)
(10.1698 -0.0248869 0)
(10.1824 -0.0240837 0)
(10.1942 -0.0233496 0)
(10.2051 -0.0226609 0)
(10.2152 -0.0219848 0)
(10.2245 -0.0212818 0)
(10.2332 -0.0205234 0)
(10.2414 -0.0196929 0)
(10.2491 -0.0188544 0)
(10.2564 -0.0182232 0)
(10.0002 -0.0138456 0)
(10.022 -0.0274521 0)
(10.0452 -0.0297288 0)
(10.0634 -0.0307664 0)
(10.0816 -0.0315748 0)
(10.1009 -0.031443 0)
(10.1193 -0.0306421 0)
(10.1358 -0.0295994 0)
(10.1506 -0.0285106 0)
(10.1637 -0.0274383 0)
(10.1753 -0.0264212 0)
(10.1853 -0.0254827 0)
(10.1937 -0.0246213 0)
(10.2007 -0.0238139 0)
(10.2063 -0.023027 0)
(10.2107 -0.0222226 0)
(10.2138 -0.0213716 0)
(10.2159 -0.0204617 0)
(10.2169 -0.0195378 0)
(10.217 -0.0188454 0)
(10.0012 -0.0150196 0)
(10.0278 -0.0279634 0)
(10.0561 -0.0330254 0)
(10.0781 -0.0354432 0)
(10.0988 -0.0358585 0)
(10.1189 -0.0349236 0)
(10.1362 -0.0334531 0)
(10.1499 -0.0319028 0)
(10.1601 -0.030415 0)
(10.1672 -0.0290099 0)
(10.1712 -0.0276985 0)
(10.1721 -0.0264913 0)
(10.1701 -0.0253799 0)
(10.1653 -0.0243357 0)
(10.1578 -0.0233213 0)
(10.1479 -0.0222978 0)
(10.1356 -0.0212356 0)
(10.1213 -0.0201312 0)
(10.1052 -0.0190049 0)
(10.0875 -0.0181569 0)
(10.0064 -0.0183278 0)
(10.0492 -0.00998649 0)
(10.0893 -0.0113973 0)
(10.1172 -0.0208114 0)
(10.1372 -0.0280331 0)
(10.1501 -0.0312839 0)
(10.1542 -0.031952 0)
(10.1493 -0.0312999 0)
(10.1364 -0.0300234 0)
(10.1164 -0.0284663 0)
(10.0899 -0.0268055 0)
(10.0578 -0.0251431 0)
(10.0208 -0.0235322 0)
(9.97974 -0.0219896 0)
(9.93543 -0.020511 0)
(9.88881 -0.019083 0)
(9.84083 -0.0176952 0)
(9.79251 -0.0163606 0)
(9.74481 -0.0150834 0)
(9.69885 -0.0141458 0)
(10.0533 -0.103388 0)
(10.1481 -0.133879 0)
(10.1832 -0.103773 0)
(10.1722 -0.076774 0)
(10.1316 -0.0586787 0)
(10.0682 -0.0463879 0)
(9.98677 -0.0377513 0)
(9.89257 -0.0314452 0)
(9.79107 -0.0266509 0)
(9.68657 -0.0229015 0)
(9.58215 -0.0198991 0)
(9.48011 -0.0174469 0)
(9.38218 -0.0154085 0)
(9.28957 -0.0136825 0)
(9.20303 -0.0121932 0)
(9.12296 -0.0108835 0)
(9.04948 -0.00972669 0)
(8.98289 -0.00874591 0)
(8.9232 -0.0079554 0)
(8.87101 -0.00746109 0)
(9.84 0.189902 0)
(9.53115 0.13672 0)
(9.21984 0.069273 0)
(8.92013 0.0277769 0)
(8.65101 0.00610443 0)
(8.41907 -0.00372034 0)
(8.22269 -0.00723523 0)
(8.05828 -0.00762067 0)
(7.92188 -0.00660617 0)
(7.80907 -0.00515177 0)
(7.71541 -0.00374297 0)
(7.63691 -0.00259061 0)
(7.57026 -0.00175283 0)
(7.51275 -0.00120644 0)
(7.46232 -0.000891753 0)
(7.41744 -0.000737171 0)
(7.37704 -0.000689131 0)
(7.34003 -0.000744972 0)
(7.30513 -0.000896174 0)
(7.2713 -0.00118036 0)
(6.96524 -0.127669 0)
(6.71758 -0.154809 0)
(6.46878 -0.149333 0)
(6.26449 -0.139684 0)
(6.12107 -0.129218 0)
(6.03891 -0.117015 0)
(6.0067 -0.103897 0)
(6.00969 -0.0914632 0)
(6.03528 -0.0815209 0)
(6.07428 -0.0757684 0)
(6.12021 -0.0754272 0)
(6.16855 -0.0811408 0)
(6.21623 -0.0929642 0)
(6.26126 -0.110418 0)
(6.30244 -0.132656 0)
(6.3391 -0.158633 0)
(6.37103 -0.187266 0)
(6.39837 -0.217537 0)
(6.42148 -0.248555 0)
(6.44091 -0.279598 0)
(6.45725 -0.310117 0)
(6.47109 -0.339726 0)
(6.48297 -0.368175 0)
(6.49333 -0.395321 0)
(6.50251 -0.421103 0)
(6.51074 -0.445515 0)
(6.51817 -0.46859 0)
(6.52488 -0.490387 0)
(6.53092 -0.51098 0)
(6.5363 -0.530454 0)
(6.54103 -0.548898 0)
(6.54511 -0.566399 0)
(6.54854 -0.583038 0)
(6.55135 -0.598889 0)
(6.55356 -0.614014 0)
(6.55518 -0.628464 0)
(6.55627 -0.642276 0)
(6.55687 -0.655481 0)
(6.55702 -0.668094 0)
(6.55677 -0.680126 0)
(6.55618 -0.69158 0)
(6.5553 -0.702454 0)
(6.55418 -0.712743 0)
(6.55286 -0.722441 0)
(6.5514 -0.731545 0)
(6.54983 -0.740051 0)
(6.54818 -0.74796 0)
(6.5465 -0.755276 0)
(6.5448 -0.762004 0)
(6.54311 -0.768155 0)
(6.54143 -0.773742 0)
(6.53979 -0.778781 0)
(6.53818 -0.783287 0)
(6.53662 -0.787278 0)
(6.53509 -0.790771 0)
(6.53359 -0.793786 0)
(6.53213 -0.796336 0)
(6.53068 -0.79844 0)
(6.52924 -0.80011 0)
(6.5278 -0.80136 0)
(6.52635 -0.8022 0)
(6.52488 -0.802642 0)
(6.52338 -0.802693 0)
(6.52185 -0.80236 0)
(6.52028 -0.801651 0)
(6.51865 -0.800569 0)
(6.51697 -0.799119 0)
(6.51523 -0.797303 0)
(6.51342 -0.795123 0)
(6.51154 -0.792582 0)
(6.50958 -0.789681 0)
(6.50754 -0.78642 0)
(6.50541 -0.7828 0)
(6.50318 -0.778823 0)
(6.50086 -0.774489 0)
(6.49843 -0.769802 0)
(6.49591 -0.764765 0)
(6.49329 -0.759384 0)
(6.49059 -0.753669 0)
(6.48782 -0.747632 0)
(6.48501 -0.741283 0)
(6.48215 -0.734635 0)
(6.47926 -0.727697 0)
(6.47631 -0.72047 0)
(6.47326 -0.712955 0)
(6.47003 -0.705144 0)
(6.46654 -0.697027 0)
(6.46268 -0.688598 0)
(6.45834 -0.679849 0)
(6.45345 -0.670782 0)
(6.44792 -0.661406 0)
(6.4417 -0.651735 0)
(6.43478 -0.641793 0)
(6.42715 -0.631609 0)
(6.41885 -0.621214 0)
(6.40991 -0.610643 0)
(6.40041 -0.59993 0)
(6.39039 -0.589109 0)
(6.37993 -0.578209 0)
(6.36911 -0.567259 0)
(6.35798 -0.556283 0)
(6.34662 -0.545303 0)
(6.33507 -0.534336 0)
(6.3234 -0.523399 0)
(6.31164 -0.512503 0)
(6.29985 -0.50166 0)
(6.28806 -0.490877 0)
(6.27629 -0.480161 0)
(6.26458 -0.469517 0)
(6.25295 -0.458949 0)
(6.24143 -0.448461 0)
(6.23001 -0.438054 0)
(6.21873 -0.427729 0)
(6.20759 -0.417488 0)
(6.1966 -0.407331 0)
(6.18576 -0.397258 0)
(6.17507 -0.387268 0)
(6.16455 -0.377362 0)
(6.15417 -0.367537 0)
(6.14395 -0.357795 0)
(6.13387 -0.348133 0)
(6.12392 -0.33855 0)
(6.1141 -0.329047 0)
(6.10439 -0.31962 0)
(6.09479 -0.310268 0)
(6.08527 -0.300989 0)
(6.07583 -0.29178 0)
(6.06645 -0.282636 0)
(6.05713 -0.273553 0)
(6.04785 -0.264524 0)
(6.03861 -0.255542 0)
(6.02941 -0.246598 0)
(6.02022 -0.237682 0)
(6.01106 -0.228783 0)
(6.00192 -0.219889 0)
(5.99279 -0.210984 0)
(5.98368 -0.202054 0)
(5.97459 -0.193083 0)
(5.96551 -0.184051 0)
(5.95644 -0.174939 0)
(5.94739 -0.165726 0)
(5.93835 -0.156389 0)
(5.92932 -0.146902 0)
(5.92031 -0.137239 0)
(5.91131 -0.127371 0)
(5.90232 -0.117266 0)
(5.89334 -0.106891 0)
(5.88438 -0.0962083 0)
(5.87542 -0.0851797 0)
(5.86646 -0.0737623 0)
(5.85752 -0.06191 0)
(5.84857 -0.0495732 0)
(5.83962 -0.0366983 0)
(5.83067 -0.0232272 0)
(5.82171 -0.00909735 0)
(5.81274 0.00575918 0)
(5.80375 0.0214157 0)
(5.79474 0.0379516 0)
(5.7857 0.0554528 0)
(5.77664 0.0740123 0)
(5.76753 0.0937308 0)
(5.75838 0.114717 0)
(5.74919 0.13709 0)
(5.73993 0.160977 0)
(5.73061 0.186517 0)
(5.72121 0.213861 0)
(5.71174 0.243173 0)
(5.70217 0.274629 0)
(5.69249 0.308424 0)
(5.6827 0.344768 0)
(5.67278 0.383893 0)
(5.6627 0.42605 0)
(5.65246 0.471517 0)
(5.64202 0.520597 0)
(5.63136 0.573626 0)
(5.62044 0.63098 0)
(5.60923 0.693076 0)
(5.59768 0.760386 0)
(5.58574 0.833446 0)
(5.57337 0.912873 0)
(5.5605 0.999383 0)
(5.54708 1.09382 0)
(5.53306 1.19719 0)
(5.51836 1.31072 0)
(5.50292 1.43588 0)
(5.48664 1.57452 0)
(5.4694 1.7289 0)
(5.45098 1.90184 0)
(5.43104 2.09681 0)
(5.40902 2.31809 0)
(5.38403 2.57083 0)
(5.35457 2.86138 0)
(5.31878 3.1974 0)
(5.27245 3.58896 0)
(5.21412 4.04824 0)
(5.12589 4.59678 0)
(5.03344 5.25452 0)
(4.78884 6.10637 0)
(4.86255 7.13487 0)
(3.71868 9.75136 0)
(8.82237 0.014651 0)
(8.75066 0.0287809 0)
(8.64034 0.0286405 0)
(8.49315 0.0119839 0)
(8.32048 -0.00856548 0)
(8.1417 -0.026355 0)
(7.97547 -0.0395349 0)
(7.8329 -0.048289 0)
(7.71746 -0.0543772 0)
(7.62781 -0.0603265 0)
(7.56023 -0.0683002 0)
(7.51016 -0.0796633 0)
(7.47309 -0.0950104 0)
(7.44509 -0.114328 0)
(7.42296 -0.137209 0)
(7.40433 -0.163001 0)
(7.38758 -0.19097 0)
(7.37175 -0.220373 0)
(7.35631 -0.25051 0)
(7.34105 -0.280768 0)
(7.32594 -0.310647 0)
(7.31102 -0.339769 0)
(7.29636 -0.367862 0)
(7.28198 -0.394753 0)
(7.26793 -0.420347 0)
(7.25417 -0.444608 0)
(7.2407 -0.46755 0)
(7.22746 -0.489219 0)
(7.21441 -0.509683 0)
(7.20152 -0.529024 0)
(7.18875 -0.547333 0)
(7.17607 -0.564699 0)
(7.16348 -0.581206 0)
(7.15096 -0.59693 0)
(7.1385 -0.611936 0)
(7.12613 -0.626277 0)
(7.11383 -0.639994 0)
(7.10163 -0.653116 0)
(7.08953 -0.665662 0)
(7.07756 -0.677641 0)
(7.06573 -0.689056 0)
(7.05404 -0.699905 0)
(7.04252 -0.710183 0)
(7.03119 -0.719883 0)
(7.02005 -0.729 0)
(7.00911 -0.73753 0)
(6.99839 -0.745471 0)
(6.98789 -0.752825 0)
(6.97763 -0.759598 0)
(6.96759 -0.765798 0)
(6.95779 -0.771437 0)
(6.94821 -0.776527 0)
(6.93886 -0.781084 0)
(6.92972 -0.785125 0)
(6.92079 -0.788665 0)
(6.91205 -0.791722 0)
(6.90349 -0.794312 0)
(6.89509 -0.796449 0)
(6.88685 -0.798148 0)
(6.87875 -0.799423 0)
(6.87077 -0.800283 0)
(6.86291 -0.800741 0)
(6.85514 -0.800803 0)
(6.84747 -0.800479 0)
(6.83988 -0.799774 0)
(6.83236 -0.798693 0)
(6.82489 -0.797241 0)
(6.81748 -0.79542 0)
(6.81011 -0.793232 0)
(6.80278 -0.790681 0)
(6.79547 -0.787766 0)
(6.78817 -0.784488 0)
(6.78089 -0.78085 0)
(6.7736 -0.776851 0)
(6.76631 -0.772494 0)
(6.75902 -0.767784 0)
(6.75174 -0.762726 0)
(6.74446 -0.75733 0)
(6.73722 -0.751607 0)
(6.73002 -0.745568 0)
(6.72288 -0.739223 0)
(6.71579 -0.732578 0)
(6.70871 -0.725631 0)
(6.70157 -0.718375 0)
(6.69428 -0.710797 0)
(6.68672 -0.702879 0)
(6.67878 -0.694609 0)
(6.67032 -0.685978 0)
(6.66126 -0.676986 0)
(6.6515 -0.667643 0)
(6.64101 -0.65797 0)
(6.62978 -0.647994 0)
(6.61784 -0.637752 0)
(6.60521 -0.627281 0)
(6.59198 -0.616622 0)
(6.5782 -0.605815 0)
(6.56398 -0.594897 0)
(6.54937 -0.583902 0)
(6.53448 -0.572861 0)
(6.51936 -0.561799 0)
(6.5041 -0.55074 0)
(6.48874 -0.539703 0)
(6.47335 -0.528701 0)
(6.45797 -0.517749 0)
(6.44265 -0.506856 0)
(6.42742 -0.496031 0)
(6.41231 -0.485279 0)
(6.39735 -0.474605 0)
(6.38255 -0.464014 0)
(6.36795 -0.453506 0)
(6.35356 -0.443085 0)
(6.33938 -0.43275 0)
(6.32543 -0.422503 0)
(6.31171 -0.412342 0)
(6.29824 -0.402267 0)
(6.285 -0.392277 0)
(6.27201 -0.382371 0)
(6.25927 -0.372547 0)
(6.24676 -0.362804 0)
(6.23448 -0.35314 0)
(6.22243 -0.343553 0)
(6.2106 -0.334042 0)
(6.19897 -0.324605 0)
(6.18753 -0.315239 0)
(6.17627 -0.305943 0)
(6.16518 -0.296714 0)
(6.15423 -0.287549 0)
(6.14341 -0.278444 0)
(6.13272 -0.269394 0)
(6.12213 -0.260395 0)
(6.11164 -0.251439 0)
(6.10123 -0.242517 0)
(6.0909 -0.233622 0)
(6.08064 -0.224741 0)
(6.07045 -0.215863 0)
(6.06031 -0.206974 0)
(6.05024 -0.198059 0)
(6.04022 -0.189102 0)
(6.03025 -0.180084 0)
(6.02033 -0.170986 0)
(6.01046 -0.161786 0)
(6.00065 -0.152462 0)
(5.99088 -0.142989 0)
(5.98117 -0.133339 0)
(5.97151 -0.123484 0)
(5.96189 -0.113392 0)
(5.95233 -0.103029 0)
(5.94281 -0.0923592 0)
(5.93335 -0.0813423 0)
(5.92393 -0.069936 0)
(5.91456 -0.0580942 0)
(5.90523 -0.0457671 0)
(5.89596 -0.032901 0)
(5.88672 -0.0194378 0)
(5.87753 -0.00531459 0)
(5.86838 0.00953645 0)
(5.85927 0.0251888 0)
(5.8502 0.041722 0)
(5.84116 0.059222 0)
(5.83216 0.0777819 0)
(5.82318 0.0975024 0)
(5.81424 0.118493 0)
(5.80532 0.140872 0)
(5.79643 0.164767 0)
(5.78756 0.190317 0)
(5.77871 0.217674 0)
(5.76988 0.247 0)
(5.76106 0.278474 0)
(5.75225 0.31229 0)
(5.74344 0.34866 0)
(5.73464 0.387815 0)
(5.72583 0.430009 0)
(5.717 0.475518 0)
(5.70815 0.524648 0)
(5.69926 0.577738 0)
(5.69031 0.635164 0)
(5.68128 0.697346 0)
(5.67214 0.764757 0)
(5.66287 0.837935 0)
(5.65345 0.917498 0)
(5.64383 1.00416 0)
(5.63399 1.09877 0)
(5.62392 1.20233 0)
(5.61361 1.31605 0)
(5.60307 1.44143 0)
(5.59231 1.5803 0)
(5.58137 1.73494 0)
(5.57026 1.90821 0)
(5.55895 2.10362 0)
(5.54731 2.32552 0)
(5.53512 2.57923 0)
(5.52174 2.87126 0)
(5.50675 3.20956 0)
(5.48789 3.6045 0)
(5.46761 4.06886 0)
(5.43281 4.62415 0)
(5.4262 5.29394 0)
(5.31994 6.15056 0)
(5.62791 7.22049 0)
(5.25571 9.62556 0)
(9.64636 0.0254712 0)
(9.62036 0.0245953 0)
(9.58776 0.0231464 0)
(9.54521 0.0214793 0)
(9.48334 0.0200755 0)
(9.39895 0.0174522 0)
(9.29716 0.0121747 0)
(9.18698 0.00440067 0)
(9.07695 -0.00508862 0)
(8.97266 -0.0160929 0)
(8.87629 -0.029234 0)
(8.78776 -0.0453043 0)
(8.70619 -0.0647731 0)
(8.63073 -0.0876918 0)
(8.56072 -0.113731 0)
(8.49565 -0.142265 0)
(8.43507 -0.172557 0)
(8.37851 -0.203875 0)
(8.3255 -0.235548 0)
(8.2756 -0.267012 0)
(8.22841 -0.297828 0)
(8.1836 -0.327676 0)
(8.14092 -0.356343 0)
(8.10014 -0.3837 0)
(8.0611 -0.409685 0)
(8.02363 -0.434287 0)
(7.98761 -0.457534 0)
(7.95291 -0.479479 0)
(7.91942 -0.500197 0)
(7.88705 -0.519774 0)
(7.8557 -0.538303 0)
(7.82532 -0.555874 0)
(7.79583 -0.572574 0)
(7.76719 -0.588483 0)
(7.73937 -0.603667 0)
(7.71231 -0.618181 0)
(7.68599 -0.632067 0)
(7.66038 -0.645355 0)
(7.63545 -0.658064 0)
(7.61116 -0.670203 0)
(7.5875 -0.681777 0)
(7.56444 -0.692783 0)
(7.54196 -0.703217 0)
(7.52004 -0.713072 0)
(7.49867 -0.722343 0)
(7.47782 -0.731025 0)
(7.45749 -0.739118 0)
(7.43766 -0.746622 0)
(7.41832 -0.753542 0)
(7.39945 -0.759887 0)
(7.38103 -0.765666 0)
(7.36306 -0.770892 0)
(7.34551 -0.77558 0)
(7.32836 -0.779745 0)
(7.31161 -0.783404 0)
(7.29522 -0.786574 0)
(7.27918 -0.789269 0)
(7.26347 -0.791505 0)
(7.24807 -0.793297 0)
(7.23297 -0.794657 0)
(7.21814 -0.795597 0)
(7.20358 -0.796128 0)
(7.18926 -0.796259 0)
(7.17517 -0.795998 0)
(7.16129 -0.795351 0)
(7.14762 -0.794323 0)
(7.13413 -0.792919 0)
(7.12082 -0.791142 0)
(7.10767 -0.788994 0)
(7.09466 -0.786477 0)
(7.0818 -0.783593 0)
(7.06906 -0.780343 0)
(7.05643 -0.776727 0)
(7.04391 -0.772749 0)
(7.0315 -0.768413 0)
(7.0192 -0.763725 0)
(7.00702 -0.758695 0)
(6.99498 -0.753333 0)
(6.9831 -0.74765 0)
(6.97136 -0.741656 0)
(6.95977 -0.73535 0)
(6.94825 -0.728727 0)
(6.93673 -0.721772 0)
(6.92508 -0.714463 0)
(6.91315 -0.706776 0)
(6.90081 -0.698694 0)
(6.8879 -0.690204 0)
(6.87434 -0.681307 0)
(6.86003 -0.672017 0)
(6.84495 -0.662358 0)
(6.82911 -0.652367 0)
(6.81255 -0.642086 0)
(6.79533 -0.63156 0)
(6.77754 -0.620837 0)
(6.75927 -0.609962 0)
(6.74062 -0.598975 0)
(6.72167 -0.587915 0)
(6.70253 -0.576814 0)
(6.68326 -0.565699 0)
(6.66393 -0.554594 0)
(6.64462 -0.543518 0)
(6.62538 -0.532486 0)
(6.60625 -0.521511 0)
(6.58727 -0.510602 0)
(6.56849 -0.499767 0)
(6.54992 -0.489012 0)
(6.5316 -0.478342 0)
(6.51354 -0.467759 0)