/*--------------------------------*- C++ -*----------------------------------*\
| =========                 |                                                 |
| \\      /  F ield         | OpenFOAM: The Open Source CFD Toolbox           |
|  \\    /   O peration     | Version:  2.4.0                                 |
|   \\  /    A nd           | Web:      www.OpenFOAM.org                      |
|    \\/     M anipulation  |                                                 |
\*---------------------------------------------------------------------------*/
FoamFile
{
    version     2.0;
    format      ascii;
    class       surfaceScalarField;
    location    "0.19";
    object      phi_0;
}
// * * * * * * * * * * * * * * * * * * * * * * * * * * * * * * * * * * * * * //

dimensions      [0 3 -1 0 0 0 0];

internalField   nonuniform List<scalar> 
34880
(
5.48753e-06
7.01247e-06
3.12485e-06
2.36268e-06
2.47459e-06
6.50261e-07
2.2137e-06
2.60885e-07
2.08016e-06
1.33538e-07
1.96879e-06
1.11371e-07
1.87977e-06
8.90235e-08
1.82845e-06
5.13143e-08
1.7765e-06
5.19509e-08
1.74045e-06
3.6054e-08
1.71123e-06
2.92174e-08
1.70643e-06
4.7997e-09
1.6712e-06
3.52291e-08
1.68144e-06
-1.02358e-08
1.70617e-06
-2.47344e-08
1.73589e-06
-2.97147e-08
1.81382e-06
-7.79329e-08
2.04559e-06
-2.3177e-07
2.25592e-06
-2.10326e-07
-1.51213e-06
3.76805e-06
1.01107e-05
9.40173e-06
7.82999e-06
4.64344e-06
6.71e-06
1.77025e-06
6.05904e-06
9.11839e-07
5.65299e-06
5.39595e-07
5.34757e-06
4.16786e-07
5.11575e-06
3.20846e-07
4.95561e-06
2.11451e-07
4.80999e-06
1.97574e-07
4.70475e-06
1.41295e-07
4.62656e-06
1.07401e-07
4.56755e-06
6.38115e-08
4.49601e-06
1.06774e-07
4.49156e-06
-5.7896e-09
4.48576e-06
-1.89301e-08
4.54075e-06
-8.47049e-08
4.6337e-06
-1.70882e-07
5.03828e-06
-6.36353e-07
5.37538e-06
-5.4742e-07
-3.06492e-06
6.92816e-06
1.24263e-05
9.47542e-06
1.10048e-05
6.06493e-06
9.97696e-06
2.7981e-06
9.19976e-06
1.68904e-06
8.62563e-06
1.11372e-06
8.18712e-06
8.55297e-07
7.85087e-06
6.57101e-07
7.60577e-06
4.56548e-07
7.38721e-06
4.16132e-07
7.22229e-06
3.06218e-07
7.10514e-06
2.24542e-07
6.9918e-06
1.77158e-07
6.89328e-06
2.05287e-07
6.86877e-06
1.8726e-08
6.81812e-06
3.17207e-08
6.87951e-06
-1.46092e-07
6.96451e-06
-2.55882e-07
7.37678e-06
-1.04863e-06
7.79618e-06
-9.66822e-07
-4.51111e-06
9.24238e-06
1.34133e-05
8.56213e-06
1.28937e-05
6.58447e-06
1.23195e-05
3.37237e-06
1.17145e-05
2.29402e-06
1.11395e-05
1.68876e-06
1.06545e-05
1.34026e-06
1.02677e-05
1.04394e-06
9.96987e-06
7.54332e-07
9.70607e-06
6.79934e-07
9.49261e-06
5.19678e-07
9.35088e-06
3.66273e-07
9.19324e-06
3.34794e-07
9.06787e-06
3.30662e-07
9.03379e-06
5.28071e-08
8.93564e-06
1.29864e-07
8.98384e-06
-1.94292e-07
9.07974e-06
-3.51781e-07
9.40709e-06
-1.37597e-06
9.94383e-06
-1.50356e-06
-5.61675e-06
1.10495e-05
1.35895e-05
7.47261e-06
1.36721e-05
6.50191e-06
1.36142e-05
3.43026e-06
1.33987e-05
2.50956e-06
1.30233e-05
2.06414e-06
1.26195e-05
1.74401e-06
1.2268e-05
1.39548e-06
1.19713e-05
1.05105e-06
1.17099e-05
9.41281e-07
1.14702e-05
7.59363e-07
1.13269e-05
5.09628e-07
1.11461e-05
5.15578e-07
1.0997e-05
4.79792e-07
1.09688e-05
8.0968e-08
1.08349e-05
2.63724e-07
1.08576e-05
-2.16947e-07
1.09803e-05
-4.74508e-07
1.11948e-05
-1.59043e-06
1.18195e-05
-2.12822e-06
-6.65082e-06
1.28535e-05
1.34758e-05
6.49676e-06
1.3778e-05
6.19979e-06
1.39881e-05
3.22012e-06
1.41381e-05
2.35953e-06
1.40856e-05
2.11665e-06
1.38914e-05
1.93824e-06
1.36906e-05
1.59628e-06
1.34739e-05
1.26775e-06
1.32874e-05
1.12779e-06
1.30637e-05
9.83024e-07
1.29505e-05
6.22808e-07
1.27824e-05
6.83717e-07
1.26205e-05
6.4165e-07
1.26152e-05
8.63372e-08
1.24689e-05
4.10033e-07
1.24696e-05
-2.17685e-07
1.26201e-05
-6.24955e-07
1.2733e-05
-1.70337e-06
1.33503e-05
-2.74552e-06
-7.83284e-06
1.45323e-05
1.3341e-05
5.65575e-06
1.37413e-05
5.79951e-06
1.39348e-05
3.02656e-06
1.42067e-05
2.08765e-06
1.4385e-05
1.93833e-06
1.4397e-05
1.92628e-06
1.4401e-05
1.59225e-06
1.43236e-05
1.3452e-06
1.42951e-05
1.15624e-06
1.41489e-05
1.12926e-06
1.41076e-05
6.64101e-07
1.40056e-05
7.85716e-07
1.38601e-05
7.87125e-07
1.38939e-05
5.25848e-08
1.37631e-05
5.40842e-07
1.37708e-05
-2.2545e-07
1.39309e-05
-7.85058e-07
1.39783e-05
-1.75069e-06
1.45578e-05
-3.32506e-06
-8.09515e-06
1.48201e-05
1.32133e-05
4.94244e-06
1.37349e-05
5.27789e-06
1.3845e-05
2.91646e-06
1.40882e-05
1.84451e-06
1.43229e-05
1.70361e-06
1.44193e-05
1.82987e-06
1.45461e-05
1.46551e-06
1.45561e-05
1.33512e-06
1.46919e-05
1.02051e-06
1.46515e-05
1.1696e-06
1.46969e-05
6.18714e-07
1.47048e-05
7.778e-07
1.46197e-05
8.72259e-07
1.47059e-05
-3.36232e-08
1.46249e-05
6.21858e-07
1.46826e-05
-2.83156e-07
1.48359e-05
-9.38379e-07
1.48786e-05
-1.79339e-06
1.53633e-05
-3.80977e-06
-7.67931e-06
1.49475e-05
1.31096e-05
4.33281e-06
1.36383e-05
4.74919e-06
1.37746e-05
2.78015e-06
1.39995e-05
1.61964e-06
1.42173e-05
1.48578e-06
1.43199e-05
1.72729e-06
1.44751e-05
1.31028e-06
1.4491e-05
1.3193e-06
1.47052e-05
8.06232e-07
1.47536e-05
1.12125e-06
1.4829e-05
5.43268e-07
1.49179e-05
6.88915e-07
1.49097e-05
8.80504e-07
1.50065e-05
-1.30449e-07
1.50005e-05
6.27898e-07
1.51318e-05
-4.14508e-07
1.52618e-05
-1.06835e-06
1.5355e-05
-1.88659e-06
1.57768e-05
-4.2316e-06
-8.57949e-06
1.6677e-05
1.30566e-05
3.77622e-06
1.35314e-05
4.27434e-06
1.36865e-05
2.62508e-06
1.39253e-05
1.38085e-06
1.41381e-05
1.27301e-06
1.425e-05
1.6153e-06
1.43935e-05
1.16683e-06
1.43905e-05
1.32228e-06
1.4572e-05
6.24772e-07
1.47175e-05
9.75762e-07
1.47691e-05
4.91656e-07
1.48981e-05
5.59875e-07
1.49705e-05
8.08129e-07
1.4975e-05
-1.34972e-07
1.50555e-05
5.47404e-07
1.52166e-05
-5.75587e-07
1.52702e-05
-1.12199e-06
1.54639e-05
-2.08028e-06
1.58032e-05
-4.57091e-06
-9.093e-06
1.63167e-05
1.30222e-05
3.25403e-06
1.34586e-05
3.83791e-06
1.36238e-05
2.45988e-06
1.38544e-05
1.15022e-06
1.40517e-05
1.07577e-06
1.41994e-05
1.46761e-06
1.43429e-05
1.02327e-06
1.4332e-05
1.33319e-06
1.44493e-05
5.07499e-07
1.4647e-05
7.78075e-07
1.46464e-05
4.92221e-07
1.48388e-05
3.67474e-07
1.4924e-05
7.22906e-07
1.48768e-05
-8.76918e-08
1.50834e-05
3.40752e-07
1.51496e-05
-6.41816e-07
1.5127e-05
-1.09937e-06
1.54391e-05
-2.39236e-06
1.56796e-05
-4.81138e-06
-9.18045e-06
1.5767e-05
1.2981e-05
2.77307e-06
1.34185e-05
3.40035e-06
1.35983e-05
2.28014e-06
1.37825e-05
9.65947e-07
1.39606e-05
8.97749e-07
1.41548e-05
1.27339e-06
1.42973e-05
8.80741e-07
1.42927e-05
1.33775e-06
1.44199e-05
3.80331e-07
1.45408e-05
6.57149e-07
1.45566e-05
4.76486e-07
1.47754e-05
1.48668e-07
1.47741e-05
7.24152e-07
1.48774e-05
-1.90999e-07
1.50982e-05
1.19982e-07
1.50399e-05
-5.83506e-07
1.50744e-05
-1.13387e-06
1.53907e-05
-2.70867e-06
1.54778e-05
-4.89844e-06
-9.13089e-06
1.54282e-05
1.29383e-05
2.33474e-06
1.33905e-05
2.94814e-06
1.35877e-05
2.08303e-06
1.37161e-05
8.37446e-07
1.39065e-05
7.07389e-07
1.41183e-05
1.06158e-06
1.42316e-05
7.67451e-07
1.42588e-05
1.31058e-06
1.43865e-05
2.52648e-07
1.44587e-05
5.84882e-07
1.45414e-05
3.93836e-07
1.46786e-05
1.14761e-08
1.46709e-05
7.31846e-07
1.48814e-05
-4.01492e-07
1.4981e-05
2.03599e-08
1.49716e-05
-5.74081e-07
1.51036e-05
-1.2659e-06
1.5277e-05
-2.88206e-06
1.52855e-05
-4.90698e-06
-9.14597e-06
1.53006e-05
1.28997e-05
1.93504e-06
1.33503e-05
2.49751e-06
1.36007e-05
1.83267e-06
1.3679e-05
7.59119e-07
1.3877e-05
5.09445e-07
1.40599e-05
8.7867e-07
1.41514e-05
6.75955e-07
1.42418e-05
1.22009e-06
1.43174e-05
1.77049e-07
1.44402e-05
4.62134e-07
1.45405e-05
2.93493e-07
1.45747e-05
-2.26865e-08
1.46388e-05
6.6778e-07
1.47928e-05
-5.55533e-07
1.48444e-05
-3.12074e-08
1.49442e-05
-6.73905e-07
1.51034e-05
-1.42508e-06
1.51606e-05
-2.93925e-06
1.51678e-05
-4.91417e-06
-9.25829e-06
1.52801e-05
1.28577e-05
1.57735e-06
1.33018e-05
2.05342e-06
1.35946e-05
1.53981e-06
1.36663e-05
6.87495e-07
1.38362e-05
3.39485e-07
1.39821e-05
7.32793e-07
1.41003e-05
5.57739e-07
1.42364e-05
1.08404e-06
1.4269e-05
1.44393e-07
1.44435e-05
2.87672e-07
1.44891e-05
2.47901e-07
1.45074e-05
-4.09912e-08
1.46291e-05
5.46005e-07
1.46873e-05
-6.13685e-07
1.47829e-05
-1.26779e-07
1.49415e-05
-8.32561e-07
1.50404e-05
-1.52397e-06
1.50662e-05
-2.96502e-06
1.51146e-05
-4.96258e-06
-9.41749e-06
1.52738e-05
1.28201e-05
1.2573e-06
1.32769e-05
1.59654e-06
1.35809e-05
1.23584e-06
1.36479e-05
6.20469e-07
1.37995e-05
1.87924e-07
1.39345e-05
5.97827e-07
1.40857e-05
4.06463e-07
1.41949e-05
9.74912e-07
1.42539e-05
8.53174e-08
1.44307e-05
1.10903e-07
1.44203e-05
2.58291e-07
1.45057e-05
-1.26329e-07
1.46158e-05
4.35913e-07
1.46155e-05
-6.13404e-07
1.47871e-05
-2.98436e-07
1.48974e-05
-9.42838e-07
1.49558e-05
-1.58231e-06
1.50247e-05
-3.03399e-06
1.50717e-05
-5.00953e-06
-9.47382e-06
1.5128e-05
1.28035e-05
9.53767e-07
1.32573e-05
1.14276e-06
1.35406e-05
9.52525e-07
1.3642e-05
5.19087e-07
1.37892e-05
4.07001e-08
1.39078e-05
4.79276e-07
1.40472e-05
2.67068e-07
1.41492e-05
8.72907e-07
1.42638e-05
-2.93462e-08
1.43921e-05
-1.73546e-08
1.44052e-05
2.45171e-07
1.45122e-05
-2.33275e-07
1.45606e-05
3.87424e-07
1.45964e-05
-6.49128e-07
1.47902e-05
-4.92296e-07
1.47998e-05
-9.52407e-07
1.4924e-05
-1.70653e-06
1.50075e-05
-3.11747e-06
1.49015e-05
-4.90353e-06
-7.96981e-06
1.33975e-05
1.27941e-05
6.59695e-07
1.32203e-05
7.16551e-07
1.35136e-05
6.59241e-07
1.36649e-05
3.67783e-07
1.37712e-05
-6.56683e-08
1.38625e-05
3.87981e-07
1.39934e-05
1.36225e-07
1.41712e-05
6.95061e-07
1.42638e-05
-1.21928e-07
1.43438e-05
-9.73208e-08
1.44004e-05
1.88549e-07
1.44727e-05
-3.05581e-07
1.45123e-05
3.4784e-07
1.46249e-05
-7.61765e-07
1.47298e-05
-5.97133e-07
1.47634e-05
-9.86077e-07
1.49097e-05
-1.8528e-06
1.49464e-05
-3.1542e-06
1.48823e-05
-4.83935e-06
-8.01785e-06
1.49303e-05
1.27798e-05
3.79916e-07
1.31988e-05
2.9751e-07
1.35217e-05
3.36345e-07
1.36701e-05
2.19414e-07
1.37324e-05
-1.27976e-07
1.38269e-05
2.93513e-07
1.39936e-05
-3.05583e-08
1.42054e-05
4.83331e-07
1.42288e-05
-1.45388e-07
1.4309e-05
-1.77515e-07
1.4382e-05
1.15621e-07
1.44253e-05
-3.48943e-07
1.45529e-05
2.20212e-07
1.4609e-05
-8.17863e-07
1.46662e-05
-6.54245e-07
1.47545e-05
-1.07445e-06
1.48684e-05
-1.96672e-06
1.48928e-05
-3.17851e-06
1.48703e-05
-4.81686e-06
-7.87938e-06
1.47318e-05
1.27711e-05
1.08862e-07
1.3201e-05
-1.32415e-07
1.35237e-05
1.36673e-08
1.36465e-05
9.6618e-08
1.37175e-05
-1.99027e-07
1.38375e-05
1.7348e-07
1.40156e-05
-2.08641e-07
1.41888e-05
3.10109e-07
1.41926e-05
-1.4913e-07
1.4314e-05
-2.989e-07
1.43628e-05
6.67679e-08
1.44516e-05
-4.37768e-07
1.45794e-05
9.24605e-08
1.456e-05
-7.98505e-07
1.46452e-05
-7.39447e-07
1.47634e-05
-1.19265e-06
1.48214e-05
-2.02471e-06
1.48734e-05
-3.23051e-06
1.48373e-05
-4.78076e-06
-7.60827e-06
1.45662e-05
1.27691e-05
-1.60189e-07
1.32022e-05
-5.65546e-07
1.35125e-05
-2.96664e-07
1.36406e-05
-3.14483e-08
1.37337e-05
-2.92138e-07
1.38601e-05
4.70239e-08
1.40033e-05
-3.51844e-07
1.41596e-05
1.53883e-07
1.42058e-05
-1.95343e-07
1.43181e-05
-4.11247e-07
1.43749e-05
9.99434e-09
1.44837e-05
-5.46545e-07
1.45429e-05
3.3259e-08
1.45352e-05
-7.90847e-07
1.46895e-05
-8.93739e-07
1.4741e-05
-1.24414e-06
1.4805e-05
-2.08872e-06
1.48419e-05
-3.26739e-06
1.47654e-05
-4.70429e-06
-7.58576e-06
1.47429e-05
1.27707e-05
-4.30927e-07
1.32054e-05
-1.00025e-06
1.35174e-05
-6.08575e-07
1.36566e-05
-1.70735e-07
1.37452e-05
-3.80659e-07
1.38613e-05
-6.90894e-08
1.39837e-05
-4.74223e-07
1.4171e-05
-3.3434e-08
1.42339e-05
-2.58313e-07
1.4311e-05
-4.88349e-07
1.44058e-05
-8.47215e-08
1.44577e-05
-5.9852e-07
1.4525e-05
-3.40342e-08
1.45608e-05
-8.26611e-07
1.47116e-05
-1.04451e-06
1.47065e-05
-1.23907e-06
1.4796e-05
-2.17827e-06
1.48099e-05
-3.28125e-06
1.46575e-05
-4.55188e-06
-6.25219e-06
1.33239e-05
1.2782e-05
-7.12962e-07
1.32236e-05
-1.44185e-06
1.3535e-05
-9.19929e-07
1.36633e-05
-2.99097e-07
1.37461e-05
-4.63389e-07
1.38618e-05
-1.8478e-07
1.3995e-05
-6.07407e-07
1.42075e-05
-2.45971e-07
1.42321e-05
-2.82899e-07
1.43295e-05
-5.85755e-07
1.44125e-05
-1.677e-07
1.44428e-05
-6.28853e-07
1.45429e-05
-1.34127e-07
1.46157e-05
-8.99392e-07
1.4677e-05
-1.10588e-06
1.47155e-05
-1.27753e-06
1.47851e-05
-2.2479e-06
1.48186e-05
-3.31474e-06
1.47513e-05
-4.48459e-06
-6.23983e-06
1.4739e-05
1.28044e-05
-1.01736e-06
1.32486e-05
-1.88601e-06
1.35474e-05
-1.21876e-06
1.36631e-05
-4.14773e-07
1.37589e-05
-5.59275e-07
1.38865e-05
-3.12317e-07
1.4027e-05
-7.47953e-07
1.42168e-05
-4.35771e-07
1.42399e-05
-3.0603e-07
1.43559e-05
-7.01722e-07
1.44285e-05
-2.40241e-07
1.44557e-05
-6.56083e-07
1.45846e-05
-2.63037e-07
1.46332e-05
-9.4801e-07
1.46689e-05
-1.14155e-06
1.47248e-05
-1.33342e-06
1.47818e-05
-2.30496e-06
1.4831e-05
-3.36385e-06
1.4743e-05
-4.39659e-06
-6.1646e-06
1.46677e-05
1.2831e-05
-1.34834e-06
1.32742e-05
-2.32927e-06
1.35622e-05
-1.50667e-06
1.36798e-05
-5.32469e-07
1.37824e-05
-6.61848e-07
1.39236e-05
-4.53522e-07
1.40498e-05
-8.7413e-07
1.42217e-05
-6.0767e-07
1.42712e-05
-3.55547e-07
1.43896e-05
-8.20112e-07
1.44484e-05
-2.99024e-07
1.44904e-05
-6.98128e-07
1.461e-05
-3.8256e-07
1.46446e-05
-9.82633e-07
1.46747e-05
-1.17163e-06
1.47485e-05
-1.40725e-06
1.47946e-05
-2.35104e-06
1.4823e-05
-3.39229e-06
1.47672e-05
-4.34079e-06
-6.16775e-06
1.47704e-05
1.28583e-05
-1.70668e-06
1.33097e-05
-2.78067e-06
1.3591e-05
-1.78793e-06
1.37019e-05
-6.43317e-07
1.38137e-05
-7.73733e-07
1.39615e-05
-6.01261e-07
1.40733e-05
-9.85941e-07
1.42508e-05
-7.85199e-07
1.43194e-05
-4.24103e-07
1.44102e-05
-9.10952e-07
1.44852e-05
-3.74028e-07
1.45235e-05
-7.36402e-07
1.46301e-05
-4.89183e-07
1.46578e-05
-1.01036e-06
1.47126e-05
-1.22643e-06
1.47691e-05
-1.46369e-06
1.48262e-05
-2.40816e-06
1.48225e-05
-3.38863e-06
1.47898e-05
-4.30806e-06
-6.24517e-06
1.48672e-05
1.28933e-05
-2.09999e-06
1.33589e-05
-3.24625e-06
1.36199e-05
-2.04891e-06
1.37246e-05
-7.48023e-07
1.38525e-05
-9.01618e-07
1.40019e-05
-7.50676e-07
1.41147e-05
-1.09882e-06
1.42946e-05
-9.65079e-07
1.43627e-05
-4.92222e-07
1.44351e-05
-9.83289e-07
1.4537e-05
-4.75946e-07
1.4555e-05
-7.54412e-07
1.46566e-05
-5.90786e-07
1.46883e-05
-1.04201e-06
1.47604e-05
-1.29855e-06
1.4795e-05
-1.49832e-06
1.48639e-05
-2.47708e-06
1.48459e-05
-3.37056e-06
1.4689e-05
-4.15115e-06
-4.92133e-06
1.33651e-05
1.29419e-05
-2.54191e-06
1.34176e-05
-3.72192e-06
1.3613e-05
-2.24432e-06
1.37507e-05
-8.85766e-07
1.38966e-05
-1.04749e-06
1.40492e-05
-9.03303e-07
1.41743e-05
-1.22388e-06
1.43489e-05
-1.13965e-06
1.44031e-05
-5.46404e-07
1.44824e-05
-1.06261e-06
1.45806e-05
-5.74222e-07
1.45943e-05
-7.68055e-07
1.46791e-05
-6.75544e-07
1.47614e-05
-1.12432e-06
1.47858e-05
-1.32295e-06
1.48639e-05
-1.57644e-06
1.48826e-05
-2.49579e-06
1.48909e-05
-3.37891e-06
1.48146e-05
-4.07477e-06
-5.07566e-06
1.49689e-05
1.30049e-05
-3.04684e-06
1.34769e-05
-4.19393e-06
1.35994e-05
-2.36674e-06
1.3775e-05
-1.06144e-06
1.39508e-05
-1.22323e-06
1.4116e-05
-1.06858e-06
1.42543e-05
-1.36213e-06
1.4395e-05
-1.28034e-06
1.44565e-05
-6.07891e-07
1.45205e-05
-1.12662e-06
1.46239e-05
-6.77633e-07
1.46314e-05
-7.75582e-07
1.47413e-05
-7.85475e-07
1.48227e-05
-1.20565e-06
1.48425e-05
-1.34278e-06
1.49195e-05
-1.65347e-06
1.49005e-05
-2.47674e-06
1.49308e-05
-3.40926e-06
1.48517e-05
-3.99566e-06
-5.14816e-06
1.49242e-05
1.30739e-05
-3.62072e-06
1.35239e-05
-4.64397e-06
1.36014e-05
-2.44427e-06
1.38156e-05
-1.27558e-06
1.40322e-05
-1.43989e-06
1.42017e-05
-1.23806e-06
1.43316e-05
-1.49198e-06
1.44364e-05
-1.38519e-06
1.45058e-05
-6.77323e-07
1.45568e-05
-1.17762e-06
1.46769e-05
-7.9766e-07
1.4695e-05
-7.93745e-07
1.48184e-05
-9.08842e-07
1.48862e-05
-1.27348e-06
1.49117e-05
-1.3682e-06
1.4959e-05
-1.70086e-06
1.49358e-05
-2.45353e-06
1.49397e-05
-3.41313e-06
1.48465e-05
-3.90247e-06
-5.13572e-06
1.48341e-05
1.3138e-05
-4.25872e-06
1.35531e-05
-5.05905e-06
1.36229e-05
-2.5141e-06
1.39017e-05
-1.55439e-06
1.41321e-05
-1.6703e-06
1.42858e-05
-1.39175e-06
1.44047e-05
-1.61089e-06
1.44808e-05
-1.46125e-06
1.45586e-05
-7.55165e-07
1.46216e-05
-1.24056e-06
1.47482e-05
-9.24315e-07
1.47802e-05
-8.25736e-07
1.48917e-05
-1.02029e-06
1.4946e-05
-1.32781e-06
1.49513e-05
-1.3735e-06
1.49674e-05
-1.71692e-06
1.49188e-05
-2.40496e-06
1.48406e-05
-3.33495e-06
1.46918e-05
-3.75363e-06
-5.06201e-06
1.46181e-05
1.31922e-05
-4.9509e-06
1.3582e-05
-5.4489e-06
1.37013e-05
-2.63338e-06
1.40238e-05
-1.87692e-06
1.42248e-05
-1.87124e-06
1.43738e-05
-1.54079e-06
1.44818e-05
-1.71886e-06
1.45316e-05
-1.51108e-06
1.46366e-05
-8.60094e-07
1.46988e-05
-1.30284e-06
1.4796e-05
-1.02152e-06
1.48263e-05
-8.55964e-07
1.48913e-05
-1.0853e-06
1.48888e-05
-1.32532e-06
1.48537e-05
-1.33838e-06
1.47998e-05
-1.66301e-06
1.46755e-05
-2.28072e-06
1.44568e-05
-3.11626e-06
1.41952e-05
-3.49201e-06
-4.93279e-06
1.4066e-05
1.32492e-05
-5.70008e-06
1.36378e-05
-5.8375e-06
1.38307e-05
-2.82631e-06
1.41407e-05
-2.18688e-06
1.43173e-05
-2.04783e-06
1.44682e-05
-1.69176e-06
1.45363e-05
-1.78696e-06
1.45544e-05
-1.52912e-06
1.46467e-05
-9.52392e-07
1.46375e-05
-1.29362e-06
1.46488e-05
-1.03288e-06
1.46298e-05
-8.37004e-07
1.45914e-05
-1.04681e-06
1.44954e-05
-1.22933e-06
1.43867e-05
-1.22973e-06
1.42359e-05
-1.51224e-06
1.40093e-05
-2.05406e-06
1.36622e-05
-2.76915e-06
1.32417e-05
-3.07155e-06
-3.84865e-06
1.21576e-05
1.33347e-05
-6.53477e-06
1.3668e-05
-6.17085e-06
1.3969e-05
-3.1273e-06
1.42387e-05
-2.45653e-06
1.43692e-05
-2.17838e-06
1.44409e-05
-1.76346e-06
1.43879e-05
-1.73394e-06
1.4303e-05
-1.44425e-06
1.42798e-05
-9.2916e-07
1.41383e-05
-1.15218e-06
1.40332e-05
-9.27729e-07
1.39321e-05
-7.35921e-07
1.37886e-05
-9.03344e-07
1.36135e-05
-1.05423e-06
1.34382e-05
-1.05442e-06
1.32162e-05
-1.29016e-06
1.29116e-05
-1.74955e-06
1.2492e-05
-2.34951e-06
1.20395e-05
-2.61904e-06
-3.48424e-06
1.16751e-05
1.34611e-05
-7.49588e-06
1.37545e-05
-6.46427e-06
1.40245e-05
-3.39726e-06
1.41425e-05
-2.57458e-06
1.40708e-05
-2.10662e-06
1.39254e-05
-1.6181e-06
1.36764e-05
-1.48492e-06
1.34427e-05
-1.21053e-06
1.32831e-05
-7.69598e-07
1.30416e-05
-9.1068e-07
1.28592e-05
-7.45295e-07
1.27035e-05
-5.80214e-07
1.25058e-05
-7.05639e-07
1.22919e-05
-8.40388e-07
1.20816e-05
-8.44116e-07
1.18217e-05
-1.03026e-06
1.14774e-05
-1.40524e-06
1.10212e-05
-1.89332e-06
1.0506e-05
-2.10382e-06
-2.64363e-06
9.66542e-06
1.35783e-05
-8.57413e-06
1.3669e-05
-6.55506e-06
1.36392e-05
-3.36738e-06
1.33923e-05
-2.32775e-06
1.30115e-05
-1.72576e-06
1.26435e-05
-1.25016e-06
1.22543e-05
-1.09572e-06
1.19346e-05
-8.90769e-07
1.1709e-05
-5.44053e-07
1.1437e-05
-6.38639e-07
1.12305e-05
-5.38767e-07
1.10581e-05
-4.07829e-07
1.08485e-05
-4.96039e-07
1.06263e-05
-6.18256e-07
1.04052e-05
-6.23028e-07
1.01331e-05
-7.58152e-07
9.77649e-06
-1.04859e-06
9.3059e-06
-1.42274e-06
8.78521e-06
-1.58312e-06
-1.95739e-06
8.09896e-06
1.3406e-05
-9.48009e-06
1.28983e-05
-6.04743e-06
1.23339e-05
-2.80298e-06
1.17065e-05
-1.70029e-06
1.11287e-05
-1.148e-06
1.06713e-05
-7.92787e-07
1.0257e-05
-6.8136e-07
9.93105e-06
-5.64852e-07
9.70516e-06
-3.18161e-07
9.4523e-06
-3.85779e-07
9.25587e-06
-3.42337e-07
9.09457e-06
-2.46533e-07
8.90174e-06
-3.03204e-07
8.6908e-06
-4.07321e-07
8.47745e-06
-4.09672e-07
8.21555e-06
-4.9625e-07
7.86749e-06
-7.00531e-07
7.41076e-06
-9.66007e-07
6.89812e-06
-1.07048e-06
-1.36425e-06
6.30499e-06
1.24226e-05
-9.40273e-06
1.10115e-05
-4.63628e-06
9.98391e-06
-1.7754e-06
9.19422e-06
-9.10607e-07
8.61378e-06
-5.67561e-07
8.19897e-06
-3.77979e-07
7.84498e-06
-3.27361e-07
7.5662e-06
-2.86074e-07
7.38424e-06
-1.36201e-07
7.18142e-06
-1.82958e-07
7.01622e-06
-1.77137e-07
6.88588e-06
-1.162e-07
6.72896e-06
-1.4628e-07
6.54319e-06
-2.21551e-07
6.35427e-06
-2.20754e-07
6.12255e-06
-2.6453e-07
5.80623e-06
-3.84211e-07
5.38713e-06
-5.46906e-07
4.91171e-06
-5.95062e-07
-8.30405e-07
4.37786e-06
1.01097e-05
-7.0124e-06
7.83466e-06
-2.36127e-06
6.71194e-06
-6.52674e-07
6.05796e-06
-2.56631e-07
5.63917e-06
-1.48766e-07
5.35663e-06
-9.54396e-08
5.11545e-06
-8.61847e-08
4.91651e-06
-8.71358e-08
4.80658e-06
-2.62674e-08
4.67122e-06
-4.76019e-08
4.55148e-06
-5.73952e-08
4.46587e-06
-3.05973e-08
4.35866e-06
-3.90666e-08
4.2128e-06
-7.56931e-08
4.06696e-06
-7.49105e-08
3.88816e-06
-8.57321e-08
3.63484e-06
-1.30884e-07
3.28652e-06
-1.98584e-07
2.89973e-06
-2.08271e-07
-3.64743e-07
2.43407e-06
5.4876e-06
3.12633e-06
2.47365e-06
2.21702e-06
2.06826e-06
1.97282e-06
1.88663e-06
1.7995e-06
1.77323e-06
1.72563e-06
1.66823e-06
1.63763e-06
1.59857e-06
1.52288e-06
1.44796e-06
1.36223e-06
1.23135e-06
1.03276e-06
8.24493e-07
4.59749e-07
5.64997e-06
-9.26934e-07
-9.54982e-07
7.29088e-06
-4.07491e-06
2.434e-06
8.43136e-06
-7.53164e-06
6.39117e-06
8.73304e-06
-1.01727e-05
9.87104e-06
8.54957e-06
-1.21677e-05
1.23512e-05
8.08194e-06
-1.30855e-05
1.35531e-05
7.36024e-06
-1.29004e-05
1.36221e-05
6.47556e-06
-1.1864e-05
1.27487e-05
5.57948e-06
-1.07842e-05
1.16803e-05
4.59769e-06
-8.68125e-06
9.66305e-06
3.23864e-06
-7.16013e-06
8.51918e-06
2.93134e-06
-6.33222e-06
6.63951e-06
3.443e-06
-1.59236e-07
-3.52421e-07
4.95756e-06
5.37899e-06
-6.89354e-06
6.45066e-06
1.19384e-05
-1.34315e-05
7.39799e-06
2.14902e-05
-2.24375e-05
7.72146e-06
2.10775e-05
-2.1401e-05
7.90373e-06
1.99526e-05
-2.01349e-05
8.54005e-06
1.91259e-05
-1.97622e-05
9.39183e-06
1.51877e-05
-1.60395e-05
1.00408e-05
1.27117e-05
-1.33606e-05
1.11329e-05
1.08101e-05
-1.19023e-05
1.2299e-05
6.36823e-06
-7.53428e-06
1.22888e-05
3.57904e-06
-3.56884e-06
1.20383e-05
1.64152e-06
-1.39104e-06
1.24002e-05
-2.83198e-06
2.47004e-06
1.29479e-05
-7.21898e-06
6.67133e-06
1.3836e-05
-1.11216e-05
1.02335e-05
1.49564e-05
-1.58869e-05
1.47665e-05
1.59087e-05
-2.02999e-05
1.93477e-05
1.64239e-05
-2.34167e-05
2.29015e-05
1.63345e-05
-2.51074e-05
2.51967e-05
1.59379e-05
-2.53428e-05
2.57394e-05
1.5569e-05
-2.51237e-05
2.54925e-05
1.51352e-05
-2.47081e-05
2.5142e-05
1.4679e-05
-2.38529e-05
2.43091e-05
1.44109e-05
-2.33744e-05
2.36425e-05
1.41678e-05
-2.32481e-05
2.34911e-05
1.38496e-05
-2.24915e-05
2.28097e-05
1.36741e-05
-2.15765e-05
2.1752e-05
1.36328e-05
-2.14475e-05
2.14888e-05
1.34479e-05
-2.11588e-05
2.13437e-05
1.33485e-05
-2.01899e-05
2.02893e-05
1.36188e-05
-1.95423e-05
1.9272e-05
1.38511e-05
-1.99712e-05
1.97389e-05
1.36632e-05
-1.97748e-05
1.99627e-05
1.31163e-05
-1.7682e-05
1.82289e-05
1.25946e-05
-1.56122e-05
1.6134e-05
1.23794e-05
-1.48086e-05
1.50238e-05
1.24218e-05
-1.39381e-05
1.38957e-05
1.26888e-05
-1.23407e-05
1.20737e-05
1.32341e-05
-1.14233e-05
1.0878e-05
1.37697e-05
-1.17261e-05
1.11905e-05
1.41289e-05
-1.14434e-05
1.10842e-05
1.44132e-05
-1.00987e-05
9.81428e-06
1.44865e-05
-8.89249e-06
8.81921e-06
1.43389e-05
-6.79512e-06
6.94273e-06
1.42097e-05
-3.38043e-06
3.50968e-06
1.39372e-05
-9.80917e-08
3.70527e-07
1.36071e-05
2.98459e-06
-2.6545e-06
1.33896e-05
7.06293e-06
-6.84541e-06
1.30215e-05
1.12587e-05
-1.08906e-05
1.2441e-05
1.4036e-05
-1.34556e-05
1.18362e-05
1.61895e-05
-1.55847e-05
1.13131e-05
1.73642e-05
-1.68411e-05
1.08263e-05
1.75129e-05
-1.70261e-05
1.02127e-05
1.83878e-05
-1.77742e-05
9.76679e-06
1.83746e-05
-1.79286e-05
9.48702e-06
1.57169e-05
-1.54371e-05
8.86561e-06
1.45672e-05
-1.39458e-05
8.4279e-06
1.51066e-05
-1.46689e-05
8.44485e-06
1.30203e-05
-1.30372e-05
8.37006e-06
1.06751e-05
-1.06003e-05
8.10577e-06
1.09476e-05
-1.06833e-05
7.96948e-06
1.17078e-05
-1.15716e-05
7.99455e-06
1.08075e-05
-1.08326e-05
8.05183e-06
1.02648e-05
-1.03221e-05
8.14699e-06
9.91534e-06
-1.00105e-05
8.35827e-06
8.01892e-06
-8.2302e-06
8.64276e-06
7.09452e-06
-7.37902e-06
8.79354e-06
8.48376e-06
-8.63455e-06
8.87616e-06
1.05486e-05
-1.06312e-05
9.23171e-06
1.11383e-05
-1.14939e-05
9.97638e-06
1.11417e-05
-1.18864e-05
1.09222e-05
1.21587e-05
-1.31045e-05
1.17084e-05
1.46294e-05
-1.54157e-05
1.22754e-05
1.66799e-05
-1.72468e-05
1.27967e-05
1.72163e-05
-1.77377e-05
1.33584e-05
1.69662e-05
-1.75279e-05
1.39564e-05
1.60156e-05
-1.66136e-05
1.44183e-05
1.4542e-05
-1.50039e-05
1.45603e-05
1.35036e-05
-1.36456e-05
1.42917e-05
1.23196e-05
-1.2051e-05
1.37804e-05
8.93517e-06
-8.42391e-06
1.3393e-05
5.31475e-06
-4.92738e-06
1.31721e-05
3.96976e-06
-3.74885e-06
1.30224e-05
2.54617e-06
-2.39644e-06
1.28594e-05
-1.01842e-06
1.18144e-06
1.25606e-05
-4.68784e-06
4.98661e-06
1.22903e-05
-7.80597e-06
8.07624e-06
1.2091e-05
-1.18682e-05
1.20675e-05
1.18506e-05
-1.65046e-05
1.6745e-05
1.15495e-05
-1.97975e-05
2.00985e-05
1.12391e-05
-2.22489e-05
2.25594e-05
1.11069e-05
-2.58325e-05
2.59647e-05
1.09975e-05
-2.76052e-05
2.77146e-05
1.07437e-05
-2.73105e-05
2.75643e-05
1.05004e-05
-2.66636e-05
2.69069e-05
1.04326e-05
-2.64173e-05
2.64852e-05
1.05881e-05
-2.67038e-05
2.65482e-05
1.09431e-05
-2.76396e-05
2.72846e-05
1.12848e-05
-2.87053e-05
2.83636e-05
1.14592e-05
-2.87275e-05
2.85531e-05
1.13689e-05
-2.64028e-05
2.64931e-05
1.10737e-05
-2.29707e-05
2.32659e-05
1.08974e-05
-2.02197e-05
2.0396e-05
1.08677e-05
-1.78471e-05
1.78768e-05
1.09201e-05
-1.53685e-05
1.53161e-05
1.09338e-05
-1.20159e-05
1.20022e-05
1.078e-05
-8.34537e-06
8.49916e-06
1.07013e-05
-4.80575e-06
4.88452e-06
1.07494e-05
-3.23593e-07
2.75454e-07
1.05725e-05
3.55284e-06
-3.37591e-06
1.00777e-05
5.8308e-06
-5.33603e-06
9.6077e-06
8.63331e-06
-8.16329e-06
9.40589e-06
1.31975e-05
-1.29956e-05
9.26901e-06
1.80195e-05
-1.78826e-05
8.9378e-06
2.33974e-05
-2.30662e-05
8.66348e-06
2.53376e-05
-2.50633e-05
8.42769e-06
2.3379e-05
-2.31432e-05
8.12125e-06
2.31412e-05
-2.28347e-05
7.87273e-06
2.53268e-05
-2.50783e-05
7.65634e-06
2.52103e-05
-2.49939e-05
7.36825e-06
2.18208e-05
-2.15327e-05
7.20775e-06
1.99275e-05
-1.9767e-05
7.17087e-06
2.15505e-05
-2.15136e-05
7.00417e-06
2.29204e-05
-2.27537e-05
6.77863e-06
2.27077e-05
-2.24822e-05
6.64185e-06
2.17089e-05
-2.15721e-05
6.60613e-06
2.11775e-05
-2.11418e-05
6.52334e-06
2.06478e-05
-2.0565e-05
6.44638e-06
1.96002e-05
-1.95232e-05
6.32849e-06
1.81227e-05
-1.80049e-05
6.14268e-06
1.73679e-05
-1.71821e-05
6.10339e-06
1.63247e-05
-1.62854e-05
6.11501e-06
1.46859e-05
-1.46975e-05
5.95786e-06
1.23611e-05
-1.22039e-05
5.92928e-06
9.32642e-06
-9.29784e-06
6.17293e-06
6.4695e-06
-6.71315e-06
6.35693e-06
3.05303e-06
-3.23703e-06
6.62785e-06
-1.18114e-06
9.10213e-07
6.7854e-06
-7.26101e-06
7.10346e-06
6.99172e-06
-1.15964e-05
1.13901e-05
7.15533e-06
-1.26649e-05
1.25013e-05
7.50143e-06
-1.16258e-05
1.12797e-05
8.28336e-06
-1.18971e-05
1.11152e-05
8.84998e-06
-1.35849e-05
1.30182e-05
9.56072e-06
-1.44331e-05
1.37223e-05
9.94362e-06
-1.68923e-05
1.65094e-05
1.00232e-05
-1.74021e-05
1.73225e-05
1.01511e-05
-1.87415e-05
1.86136e-05
1.03064e-05
-1.75901e-05
1.74348e-05
1.01539e-05
-1.74051e-05
1.75575e-05
1.01362e-05
-1.34421e-05
1.34598e-05
9.93366e-06
-1.30151e-05
1.32177e-05
9.45197e-06
-9.72476e-06
1.02065e-05
9.09929e-06
-7.91799e-06
8.27066e-06
8.75565e-06
-4.9944e-06
5.33805e-06
8.9009e-06
-4.71583e-06
4.57058e-06
8.48807e-06
-2.82613e-06
3.23896e-06
8.26592e-06
-2.73537e-06
2.95752e-06
8.28328e-06
-2.62393e-06
2.60658e-06
8.29205e-06
-1.01292e-06
1.00416e-06
8.18241e-06
-1.17464e-07
2.27103e-07
8.26765e-06
-7.85675e-07
7.00431e-07
8.65593e-06
-1.12306e-06
7.3478e-07
9.10448e-06
-1.40166e-06
9.53118e-07
9.54902e-06
-1.49622e-06
1.05169e-06
1.00436e-05
-2.01838e-06
1.52384e-06
1.05906e-05
-3.09885e-06
2.55179e-06
1.11203e-05
-3.30926e-06
2.77962e-06
1.14093e-05
-2.49211e-06
2.20307e-06
1.15562e-05
-1.06358e-06
9.16671e-07
1.19455e-05
-7.59341e-07
3.70021e-07
1.24111e-05
-6.25333e-07
1.59804e-07
1.2478e-05
7.77606e-07
-8.44597e-07
1.26362e-05
1.46402e-06
-1.62213e-06
1.28994e-05
3.24026e-06
-3.50351e-06
1.25608e-05
5.6863e-06
-5.34773e-06
1.21458e-05
5.97488e-06
-5.55981e-06
1.2279e-05
8.15846e-06
-8.29167e-06
1.23226e-05
1.2465e-05
-1.25086e-05
1.20982e-05
1.60223e-05
-1.57979e-05
1.1717e-05
1.96614e-05
-1.92802e-05
1.11622e-05
2.29171e-05
-2.23623e-05
1.06507e-05
2.60912e-05
-2.55797e-05
9.81172e-06
3.09611e-05
-3.01221e-05
8.41653e-06
3.468e-05
-3.32848e-05
7.49938e-06
3.89726e-05
-3.80555e-05
5.16508e-05
-5.11896e-05
7.03818e-06
8.64154e-06
-2.64031e-06
9.5767e-06
-5.01008e-06
1.01479e-05
-8.10284e-06
1.03037e-05
-1.03285e-05
9.96795e-06
-1.1832e-05
9.39239e-06
-1.251e-05
8.60791e-06
-1.21159e-05
7.71374e-06
-1.09698e-05
6.72419e-06
-9.79467e-06
5.95717e-06
-7.91423e-06
4.66116e-06
-5.86412e-06
3.5922e-06
-5.26326e-06
3.39419e-06
3.87818e-08
4.97939e-06
3.79378e-06
6.77557e-06
1.01422e-05
8.01665e-06
2.02491e-05
8.37867e-06
2.07155e-05
8.60855e-06
1.97228e-05
9.223e-06
1.85114e-05
9.94149e-06
1.44693e-05
1.07916e-05
1.18615e-05
1.21698e-05
9.4319e-06
1.27521e-05
5.78598e-06
1.23616e-05
3.96949e-06
1.25067e-05
1.49645e-06
1.31338e-05
-3.4591e-06
1.38713e-05
-7.95648e-06
1.49096e-05
-1.21599e-05
1.5944e-05
-1.69213e-05
1.66626e-05
-2.10185e-05
1.68895e-05
-2.36436e-05
1.65766e-05
-2.47944e-05
1.60683e-05
-2.48346e-05
1.56494e-05
-2.47047e-05
1.52092e-05
-2.42679e-05
1.47893e-05
-2.34331e-05
1.45434e-05
-2.31285e-05
1.42619e-05
-2.29666e-05
1.39309e-05
-2.21605e-05
1.37887e-05
-2.14343e-05
1.37573e-05
-2.1416e-05
1.35718e-05
-2.09733e-05
1.35143e-05
-2.01324e-05
1.37851e-05
-1.98131e-05
1.3831e-05
-2.00171e-05
1.3355e-05
-1.92988e-05
1.26525e-05
-1.69795e-05
1.21715e-05
-1.51313e-05
1.20892e-05
-1.47263e-05
1.2261e-05
-1.41099e-05
1.25964e-05
-1.26761e-05
1.31398e-05
-1.19667e-05
1.36517e-05
-1.22379e-05
1.39324e-05
-1.17241e-05
1.41072e-05
-1.02734e-05
1.41176e-05
-8.90288e-06
1.3938e-05
-6.61548e-06
1.37201e-05
-3.16258e-06
1.33973e-05
2.24756e-07
1.30716e-05
3.31027e-06
1.28449e-05
7.28963e-06
1.25116e-05
1.1592e-05
1.19882e-05
1.45594e-05
1.13937e-05
1.6784e-05
1.08991e-05
1.78588e-05
1.04416e-05
1.79704e-05
9.85785e-06
1.89715e-05
9.48473e-06
1.87477e-05
9.21414e-06
1.59875e-05
8.59529e-06
1.5186e-05
8.26415e-06
1.54377e-05
8.29446e-06
1.299e-05
8.18101e-06
1.07886e-05
7.96184e-06
1.11668e-05
7.85671e-06
1.1813e-05
7.8508e-06
1.08134e-05
7.95474e-06
1.01609e-05
8.15135e-06
9.71874e-06
8.40497e-06
7.76529e-06
8.69244e-06
6.80706e-06
8.85893e-06
8.31727e-06
8.93986e-06
1.04677e-05
9.25973e-06
1.08185e-05
9.9641e-06
1.04373e-05
1.08874e-05
1.12355e-05
1.16921e-05
1.38247e-05
1.22609e-05
1.61111e-05
1.27517e-05
1.67255e-05
1.33202e-05
1.63977e-05
1.40027e-05
1.53331e-05
1.45858e-05
1.3959e-05
1.4857e-05
1.32324e-05
1.47074e-05
1.24692e-05
1.42463e-05
9.39627e-06
1.38114e-05
5.74963e-06
1.35417e-05
4.23945e-06
1.33665e-05
2.72139e-06
1.31639e-05
-8.15819e-07
1.28479e-05
-4.37182e-06
1.25912e-05
-7.5493e-06
1.24178e-05
-1.16948e-05
1.21453e-05