/*--------------------------------*- C++ -*----------------------------------*\
| =========                 |                                                 |
| \\      /  F ield         | OpenFOAM: The Open Source CFD Toolbox           |
|  \\    /   O peration     | Version:  2.4.0                                 |
|   \\  /    A nd           | Web:      www.OpenFOAM.org                      |
|    \\/     M anipulation  |                                                 |
\*---------------------------------------------------------------------------*/
FoamFile
{
    version     2.0;
    format      ascii;
    class       volScalarField;
    location    "0.188";
    object      nuSgs;
}
// * * * * * * * * * * * * * * * * * * * * * * * * * * * * * * * * * * * * * //

dimensions      [0 2 -1 0 0 0 0];

internalField   nonuniform List<scalar> 
4400
(
0.00205262
0.00193589
0.00169796
0.00152871
0.00143204
0.0013669
0.00133342
0.00129952
0.00129219
0.00124167
0.00139644
0.00172713
0.00172612
0.0016676
0.00158819
0.00152005
0.00148293
0.00143894
0.00142897
0.0014053
0.000722329
0.00117892
0.00136638
0.00141474
0.00140603
0.00137488
0.00135346
0.00131615
0.00130634
0.00128994
0.000270426
0.000642597
0.000870154
0.00101117
0.00108637
0.00111098
0.00112572
0.00111912
0.0011129
0.00110976
8.78662e-05
0.000257781
0.000425022
0.000576176
0.000690969
0.000762995
0.000824332
0.000849048
0.000865838
0.00088001
2.56799e-05
8.64772e-05
0.000150906
0.000243482
0.000330078
0.000404514
0.000488277
0.000529558
0.000577747
0.000596096
7.82054e-06
2.5834e-05
4.34073e-05
7.3748e-05
0.000112408
0.000147923
0.000207584
0.000258388
0.00028597
0.000314769
4.19175e-06
1.06865e-05
1.3601e-05
1.98108e-05
2.87485e-05
3.89625e-05
5.88963e-05
8.81294e-05
9.47484e-05
0.00011615
3.86747e-06
7.76638e-06
9.45173e-06
1.06179e-05
1.1325e-05
1.21841e-05
1.53369e-05
2.03901e-05
2.14028e-05
2.65886e-05
3.87139e-06
7.02204e-06
8.57702e-06
9.73966e-06
9.97635e-06
9.8689e-06
9.83521e-06
9.86131e-06
9.96772e-06
1.03967e-05
3.83325e-06
7.50401e-06
8.91965e-06
9.223e-06
9.32266e-06
9.62558e-06
1.01024e-05
1.0591e-05
1.15474e-05
1.53153e-05
3.87004e-06
7.53334e-06
8.72725e-06
9.34901e-06
1.09231e-05
1.365e-05
1.58231e-05
2.07824e-05
2.96352e-05
5.37168e-05
4.21136e-06
9.81272e-06
1.34425e-05
1.91038e-05
2.88664e-05
4.56652e-05
5.89771e-05
8.62816e-05
0.000112697
0.000174736
7.76963e-06
2.56558e-05
4.53139e-05
7.15045e-05
0.000110365
0.000167704
0.000201306
0.000266032
0.000307218
0.000398827
2.54332e-05
8.61872e-05
0.000158508
0.000232214
0.000336969
0.000421534
0.000474545
0.000553765
0.000593574
0.000672533
8.708e-05
0.000256964
0.000432542
0.000568601
0.000699071
0.000768233
0.000820884
0.000864438
0.000887799
0.000926695
0.000268212
0.000643292
0.000872096
0.00100878
0.00109144
0.00111073
0.00112783
0.00112665
0.00112859
0.00113221
0.000717265
0.00118203
0.00136624
0.00141474
0.00140747
0.0013727
0.00135481
0.00131761
0.00130738
0.00128811
0.00139441
0.00172961
0.00172549
0.00166756
0.00158853
0.00151432
0.00148305
0.00142758
0.00141079
0.00136383
0.00205143
0.00193792
0.00169567
0.00152928
0.00143107
0.00135932
0.00132875
0.00127446
0.00125129
0.00117175
0.00055417
0.000462641
0.000410684
0.000403821
0.000394241
0.000409752
0.000374809
0.000364331
0.000341053
0.000284959
0.000270151
0.000232235
0.000198513
0.000202744
0.000217844
0.000243482
0.000270201
0.000277208
0.000276362
0.000269905
0.000252736
0.00021636
0.000147825
0.000108452
9.79925e-05
9.56561e-05
0.000110595
0.000174916
0.00025603
0.000262758
0.000253721
0.000235695
0.000222826
0.000202861
0.000188995
0.000165978
0.000126332
0.000108706
0.000123205
0.000188096
0.00022089
0.000264494
0.000303496
0.000270368
0.000205721
0.000165608
0.000151891
0.000146917
0.00015024
0.000150403
0.000141158
0.000133233
0.000135219
0.000149627
0.000155353
0.000152714
0.000150972
0.000155759
0.000177409
0.00018509
0.000183699
0.000179728
0.000168455
0.000143031
0.00011701
0.000114775
0.000113072
0.000125785
0.000138856
0.000146788
0.000144337
0.00014023
0.000132421
0.000122624
0.000118458
0.000116866
0.000115581
0.000109353
9.54559e-05
9.18165e-05
9.11035e-05
9.05057e-05
9.37677e-05
9.71536e-05
9.59699e-05
0.00012034
0.000177727
0.000187527
0.000186822
0.000182403
0.000169886
0.000157063
0.000153987
0.000151956
0.000148945
0.000150986
0.000163317
0.000165171
0.000165426
0.000287511
0.000679116
0.000585685
0.000508838
0.000478636
0.00042875
0.00043236
0.000411231
0.000404543
0.000396681
0.000372474
0.000363359
0.000348201
0.0003183
0.000307083
0.000301119
0.000299297
0.000293733
0.000283666
0.000273844
0.000248448
0.000200512
0.000145328
9.84168e-05
7.87239e-05
7.57152e-05
7.48285e-05
8.18819e-05
0.000111602
0.000181084
0.000227371
0.00023445
0.000228584
0.000216758
0.000194742
0.0001728
0.000139616
0.000105722
9.85996e-05
0.000123808
0.000195978
0.000227123
0.000271531
0.000319099
0.000292156
0.000208142
0.000166938
0.000150259
0.000144172
0.00014904
0.000153532
0.000151781
0.000139891
0.000137973
0.000147071
0.000155157
0.000154079
0.000150596
0.000152547
0.000165471
0.000174671
0.00017419
0.000171134
0.000162531
0.000140914
0.00011484
0.000108557
0.000104897
0.000112529
0.000122465
0.000137032
0.000137245
0.00013633
0.00013304
0.000125663
0.000120702
0.000117409
0.000115581
0.000106608
9.40045e-05
9.1112e-05
9.30693e-05
9.3307e-05
0.000100612
0.000104786
0.000104133
0.00014039
0.000189715
0.000192956
0.000190601
0.000180711
0.000166587
0.000156007
0.000152133
0.000150913
0.000147604
0.000148136
0.00016104
0.000163041
0.000166739
0.000252957
0.000648048
0.000588828
0.000525593
0.00049404
0.000441902
0.000431968
0.000407369
0.000389759
0.000383161
0.000374713
0.000364596
0.000360501
0.000352133
0.0003324
0.000316053
0.000307223
0.000289499
0.00026589
0.000240393
0.000183596
0.000130637
9.31848e-05
6.85933e-05
6.26723e-05
6.33813e-05
6.46717e-05
6.88205e-05
8.09765e-05
0.000109516
0.000159169
0.000186683
0.000187744
0.000182212
0.000165245
0.00013715
0.000109711
9.09856e-05
9.1305e-05
0.000130015
0.000201278
0.000232165
0.000278394
0.000334281
0.000314154
0.000216068
0.000166929
0.00014884
0.00014201
0.000142988
0.000149811
0.000153201
0.000147752
0.000141962
0.00014604
0.000154911
0.000155095
0.000151044
0.000151097
0.000158333
0.000167099
0.000166664
0.0001625
0.000155406
0.00013973
0.000113723
0.000104213
9.82641e-05
0.000102889
0.000109757
0.000125653
0.000128783
0.000128615
0.000128963
0.000125903
0.000121395
0.000115811
0.000112943
0.000102664
9.2698e-05
9.01937e-05
9.34008e-05
9.49599e-05
0.000106027
0.000111002
0.00011328
0.000160214
0.00019943
0.000199132
0.00019284
0.00017771
0.000163448
0.00015499
0.000150089
0.000149956
0.000147488
0.000145704
0.000156559
0.000160896
0.000170732
0.000223161
0.000570201
0.000530272
0.000486646
0.000459542
0.00042669
0.000400355
0.000385156
0.000356802
0.000341095
0.000335793
0.000321332
0.000315187
0.000310946
0.000297738
0.000286438
0.000270479
0.000239896
0.000208697
0.000157716
0.000113667
8.10751e-05
6.16639e-05
5.47355e-05
5.58871e-05
5.80368e-05
6.17839e-05
6.56795e-05
6.98514e-05
7.85886e-05
9.82556e-05
0.00012911
0.000136759
0.000134878
0.00012346
0.000106797
9.09828e-05
8.1603e-05
8.73475e-05
0.000139145
0.000207068
0.000235188
0.000284561
0.000340966
0.000338468
0.000238097
0.00016604
0.00014448
0.00014189
0.000140953
0.000143649
0.000149845
0.000150203
0.000146948
0.000147621
0.000154482
0.000155506
0.000151897
0.000150962
0.000155348
0.000160263
0.000159808
0.000155595
0.000149587
0.000137355
0.000112754
0.000101008
9.26996e-05
9.50354e-05
0.000100488
0.000112399
0.000120531
0.000120776
0.00012227
0.000120931
0.000115418
0.000109507
0.000107047
9.85427e-05
9.09691e-05
8.96465e-05
9.34996e-05
9.64306e-05
0.000107997
0.000115654
0.000123464
0.000176281
0.000205009
0.000202481
0.00019229
0.000176945
0.000160906
0.00015017
0.00014707
0.000149054
0.000147173
0.000143651
0.000150241
0.00015641
0.000169269
0.000201077
0.00045767
0.000432073
0.000400944
0.000383137
0.00036925
0.000342687
0.000332979
0.000311087
0.000289282
0.000281915
0.000260905
0.000248595
0.000243211
0.000228759
0.000210348
0.000194788
0.000161752
0.000124786
9.1681e-05
6.72185e-05
5.2618e-05
4.97642e-05
5.11949e-05
5.48512e-05
6.114e-05
6.54264e-05
6.81124e-05
6.90143e-05
6.88166e-05
7.23617e-05
8.25288e-05
9.87462e-05
9.96399e-05
9.35418e-05
8.74948e-05
7.90337e-05
7.61538e-05
8.70257e-05
0.000150482
0.000209777
0.000235866
0.000285679
0.000343956
0.000368078
0.000274497
0.000169625
0.000142644
0.000140785
0.000140433
0.000143978
0.000146761
0.000151806
0.000150605
0.000150222
0.000154716
0.000156394
0.000153162
0.000151191
0.000155192
0.000157127
0.00015652
0.000151013
0.000144805
0.000135349
0.000113575
9.94199e-05
8.87077e-05
8.89372e-05
9.22289e-05
0.000101444
0.000110684
0.000110846
0.000111098
0.000110395
0.000105622
0.000101564
9.953e-05
9.35414e-05
8.92637e-05
8.93667e-05
9.64795e-05
0.000101114
0.000109896
0.000120001
0.000133494
0.000192057
0.000210018
0.000204532
0.000191972
0.000175874
0.000156049
0.000143572
0.000142587
0.000146209
0.000146232
0.000142364
0.000146578
0.000152759
0.000164624
0.00018856
0.000312065
0.00030001
0.000280796
0.000274109
0.000270211
0.000256531
0.000250719
0.00023458
0.00021003
0.000201281
0.000176405
0.000159697
0.000152547
0.000137611
0.000122022
0.000106489
8.73238e-05
6.6527e-05
5.10491e-05
4.32701e-05
4.39827e-05
4.83005e-05
5.66645e-05
6.52916e-05
8.0593e-05
8.38551e-05
8.2458e-05
7.69903e-05
6.97111e-05
6.8105e-05
6.95575e-05
7.76661e-05
7.80087e-05
7.63893e-05
7.62799e-05
7.36229e-05
7.38044e-05
9.17081e-05
0.000164597
0.0002116
0.000234341
0.000281421
0.000344301
0.000386896
0.000317141
0.000186833
0.000145462
0.000133215
0.000136991
0.000147334
0.000148075
0.000154788
0.000154287
0.000153133
0.000155361
0.000158165
0.000155937
0.000152105
0.000155686
0.000157048
0.000156036
0.000149517
0.000143278
0.000133577
0.000114048
9.91372e-05
8.61133e-05
8.5045e-05
8.61344e-05
9.28993e-05
9.97984e-05
9.98893e-05
9.8772e-05
9.87595e-05
9.62736e-05
9.44255e-05
9.311e-05
8.96282e-05
8.80347e-05
8.94006e-05
0.000102158
0.00010863
0.00011634
0.000126846
0.00014333
0.000200623
0.000215365
0.000205821
0.000192238
0.000171285
0.000150533
0.000140601
0.000139822
0.000140795
0.00014521
0.0001419
0.000146295
0.000150486
0.000160603
0.000181351
0.000167322
0.0001621
0.000155463
0.000155869
0.000156029
0.000152944
0.00015037
0.000136908
0.000118332
0.000108889
9.13242e-05
8.05726e-05
7.43516e-05
6.89455e-05
6.01072e-05
5.15843e-05
4.34037e-05
3.5322e-05
3.54405e-05
3.79633e-05
4.68576e-05
6.71162e-05
7.95993e-05
0.000100553
0.000113439
0.000112495
0.000108063
9.63742e-05
7.91605e-05
7.0346e-05
6.9901e-05
7.02606e-05
6.96927e-05
7.1347e-05
7.29927e-05
7.17664e-05
7.44202e-05
0.000102504
0.000177572
0.000211301
0.000230114
0.000271888
0.000339631
0.00038998
0.00036751
0.000217131
0.000149767
0.000129097
0.000131877
0.000147092
0.000150354
0.000159054
0.000156682
0.000155604
0.000156764
0.000160582
0.000159685
0.00015375
0.00015727
0.000157949
0.000156691
0.000149051
0.000143494
0.000132631
0.000111191
9.89984e-05
8.52146e-05
8.29839e-05
8.3242e-05
8.62554e-05
8.96194e-05
8.9419e-05
8.77695e-05
8.78549e-05
8.78958e-05
8.8283e-05
8.80929e-05
8.6431e-05
8.63284e-05
9.05141e-05
0.000109384
0.000116
0.00012719
0.000135227
0.000150435
0.000205136
0.000222553
0.000206817
0.000191102
0.000166952
0.000140973
0.000132282
0.000131454
0.00013454
0.000142177
0.000141242
0.0001462
0.000149361
0.000156021
0.000175243
6.34779e-05
6.31877e-05
6.3231e-05
6.51182e-05
6.6277e-05
6.5994e-05
6.5027e-05
5.80242e-05
4.97653e-05
4.34016e-05
3.77736e-05
3.28889e-05
3.04024e-05
2.92665e-05
2.67085e-05
2.46555e-05
2.53077e-05
2.76762e-05
3.41353e-05
4.79775e-05
7.69298e-05
0.000103234
0.000119673
0.000148023
0.00015461
0.000151409
0.000141265
0.000123238
9.94605e-05
8.20237e-05
7.49695e-05
7.12929e-05
7.1202e-05
7.42637e-05
7.42157e-05
7.40315e-05
8.0943e-05
0.000123789
0.000188618
0.000209621
0.000223037
0.000258878
0.000325877
0.00038923
0.000416081
0.000256494
0.000153266
0.000128985
0.00013016
0.000141541
0.000152649
0.000161223
0.000159513
0.000157868
0.000159556
0.00016192
0.00016443
0.000157171
0.000160801
0.00016046
0.000159494
0.000149179
0.000141918
0.000131641
0.000107284
9.80533e-05
8.56432e-05
8.25125e-05
8.1401e-05
8.12309e-05
8.14512e-05
8.12397e-05
8.02952e-05
7.96784e-05
8.03541e-05
8.28784e-05
8.31133e-05
8.25652e-05
8.47294e-05
9.4638e-05
0.000118473
0.000125229
0.000135911
0.00013977
0.000153627
0.000217633
0.000233046
0.000206862
0.000186342
0.000158934
0.000129053
0.000122021
0.00012239
0.000129303
0.000135623
0.000139363
0.000145948
0.00014742
0.000152518
0.000166616
1.60121e-05
1.63326e-05
1.69357e-05
1.79771e-05
1.83153e-05
1.82606e-05
1.76446e-05
1.67262e-05
1.61263e-05
1.64286e-05
1.65831e-05
1.65319e-05
1.67252e-05
1.72041e-05
1.85148e-05
2.12564e-05
2.64039e-05
3.79824e-05
5.75598e-05
8.4843e-05
0.000126821
0.000150176
0.000179246
0.000202671
0.00020335
0.000197102
0.000177886
0.000150811
0.000124549
0.000104143
8.89145e-05
8.12412e-05
8.22287e-05
8.36211e-05
8.20393e-05
8.31961e-05
9.62386e-05
0.0001509
0.000194783
0.000206486
0.000214267
0.0002421
0.000301435
0.000381239
0.000441298
0.000309671
0.000162715
0.000131721
0.000129487
0.000135488
0.000153527
0.000159493
0.000163247
0.000160668
0.000162168
0.000162484
0.000167131
0.000162886
0.000165041
0.000165291
0.000162836
0.000148648
0.000139381
0.000131958
0.000108081
9.64749e-05
8.97968e-05
8.60718e-05
8.10127e-05
8.01434e-05
7.97507e-05
7.92692e-05
7.72037e-05
7.53544e-05
7.5836e-05
7.66773e-05
7.77909e-05
7.96288e-05
8.60589e-05
0.00010568
0.000128713
0.000136067
0.000145317
0.000146126
0.00015774
0.000240754
0.000236763
0.000195642
0.000171911
0.000144308
0.000115734
0.000113401
0.000114703
0.000120328
0.000132868
0.000136327
0.00014667
0.000145048
0.00014925
0.000159373
5.96371e-06
6.21087e-06
6.47613e-06
6.6959e-06
6.98991e-06
7.54765e-06
9.23133e-06
1.05696e-05
1.23222e-05
1.61129e-05
1.97102e-05
2.24558e-05
2.55948e-05
2.81956e-05
3.2944e-05
4.02985e-05
5.18994e-05
7.4368e-05
0.000104729
0.000143891
0.000180273
0.000213907
0.0002457
0.00026044
0.000258084
0.000244316
0.000215791
0.00018316
0.000150876
0.000129614
0.000114798
0.0001094
0.000105698
9.80744e-05
9.48572e-05
9.82978e-05
0.000120706
0.000175286
0.000197178
0.000201191
0.000204523
0.000222947
0.000266201
0.000355209
0.000446037
0.00037621
0.000186897
0.000138863
0.000129505
0.000133668
0.000151165
0.000156594
0.000164674
0.000167172
0.000164343
0.000161351
0.00016916
0.000167866
0.000171083
0.000168556
0.000164244
0.000150418
0.000137234
0.000132892
0.000110262
9.51205e-05
9.24154e-05
8.99216e-05
8.1724e-05
8.05153e-05
8.06116e-05
8.02782e-05
7.86171e-05
7.48046e-05
7.46363e-05
7.44185e-05
7.55623e-05
7.8763e-05
8.97864e-05
0.000119439
0.000144721
0.000152048
0.000151307
0.00014944
0.000161802
0.000254656
0.000235163
0.000182173
0.00015726
0.00012409
0.000105488
0.000105645
0.000107257
0.000117363
0.00013321
0.000135539
0.000152341
0.000145657
0.000146285
0.000153943
9.18282e-06
9.39609e-06
1.01489e-05
1.09487e-05
1.21504e-05
1.47235e-05
1.81204e-05
2.25474e-05
3.02947e-05
4.11057e-05
4.6621e-05
5.01624e-05
5.54691e-05
5.98136e-05
6.70337e-05
7.78786e-05
9.59664e-05
0.000129091
0.000169852
0.000208114
0.000248556
0.000287243
0.000307066
0.00030636
0.000297037
0.000276027
0.000254883
0.000222419
0.000184694
0.000163207
0.000148139
0.000132891
0.000118271
0.000110094
0.000109989
0.000119372
0.000159324
0.000190662
0.000196459
0.000193616
0.000193695
0.000203243
0.000227167
0.000303668
0.000444189
0.000441743
0.000228555
0.000148863
0.000132006
0.000132799
0.000146868
0.000155823
0.000162889
0.000169348
0.000169302
0.000161296
0.000171357
0.000169589
0.000176689
0.00017339
0.000165389
0.000152399
0.00013472
0.000131029
0.000110792
9.26036e-05
9.17844e-05
8.92851e-05
8.1816e-05
8.17503e-05
8.3148e-05
8.27734e-05
8.08696e-05
7.65184e-05
7.52551e-05
7.48005e-05
7.58529e-05
8.04164e-05
9.87241e-05
0.000139003
0.000163024
0.000168147
0.000162717
0.00015861
0.000171999
0.000256877
0.00023076
0.000178956
0.000154538
0.000118685
0.000105049
0.000102364
0.000102576
0.000114594
0.000134106
0.00013524
0.000178972
0.000151381
0.000146451
0.000152818
3.14733e-05
3.15237e-05
3.30994e-05
3.53313e-05
3.8142e-05
4.37192e-05
5.43706e-05
6.51305e-05
7.75101e-05
8.90031e-05
9.45774e-05
9.82028e-05
0.000104578
0.000109606
0.000117828
0.000133261
0.000161802
0.000203117
0.000238299
0.000283775
0.00032038
0.000333574
0.000331838
0.000322501
0.000303633
0.000291501
0.000279567
0.00024674
0.000211227
0.000191988
0.000167725
0.000145433
0.000133043
0.000130845
0.000134572
0.000159329
0.00019204
0.000197792
0.000194785
0.000183262
0.000181786
0.000185088
0.000192149
0.000238373
0.000420119
0.000492838
0.000288015
0.00016376
0.000136357
0.000132886
0.000141877
0.000154374
0.000159664
0.000168971
0.00017333
0.000163199
0.000174378
0.000172839
0.000182623
0.000178624
0.000163264
0.000150376
0.000129114
0.000122699
0.000108957
9.28923e-05
9.1534e-05
8.73479e-05
8.12035e-05
8.15208e-05
8.55252e-05
8.50456e-05
8.17646e-05
7.99782e-05
7.77341e-05
7.79617e-05
7.98139e-05
8.79828e-05
0.000119054
0.000167657
0.000185126
0.000185553
0.000172986
0.000165814
0.000179907
0.000245769
0.000234257
0.000185347
0.000155535
0.000124239
0.000112434
0.000101585
0.00010307
0.000112337
0.000136039
0.000134167
0.000202343
0.000167879
0.000151669
0.000154073
9.76268e-05
9.6986e-05
9.84735e-05
0.000101673
0.000105391
0.000114315
0.000128589
0.000139901
0.000152411
0.00016104
0.000163401
0.000165398
0.000169254
0.000174151
0.000184555
0.000206917
0.000246146
0.000271261
0.000314341
0.00034045
0.000349136
0.000346694
0.000338139
0.000318677
0.00030493
0.000296559
0.000278601
0.000251336
0.000236668
0.000211575
0.000179924
0.000163204
0.000158815
0.000159879
0.000171178
0.000202923
0.000207532
0.000202876
0.000185574
0.00017101
0.000169169
0.00016888
0.00016906
0.000193012
0.000364387
0.000509078
0.000366738
0.000191278
0.00014245
0.000134163
0.000137187
0.000150935
0.00015849
0.000166423
0.000174374
0.000170299
0.000184895
0.000182755
0.000185591
0.00018029
0.000154556
0.000142585
0.000123827
0.000115044
0.000107065
9.73618e-05
9.39617e-05
8.59799e-05
8.07607e-05
8.1419e-05
8.68801e-05
8.68006e-05
8.44846e-05
8.41783e-05
8.151e-05
8.21571e-05
8.61965e-05
0.000104135
0.000158374
0.000202814
0.000212018
0.000206078
0.000178
0.000166122
0.00018112
0.000241362
0.000258121
0.000200647
0.000156529
0.000133723
0.000116867
9.94579e-05
0.000104976
0.000113512
0.000152366
0.000134932
0.000183695
0.000176917
0.000169868
0.000158816
0.000216394
0.000211186
0.000210868
0.000210679
0.000211602
0.000217488
0.000227754
0.000233722
0.000238328
0.000239101
0.000237076
0.000236926
0.000238923
0.000244938
0.000259181
0.000288049
0.000308178
0.000335066
0.000353722
0.000358689
0.000356087
0.000346615
0.000324431
0.000309491
0.000298055
0.000284484
0.0002705
0.000261989
0.00024911
0.00021981
0.000201978
0.000193337
0.000190469
0.000193756
0.000216547
0.000224612
0.000217423
0.000194436
0.000167875
0.000157363
0.000156262
0.000155719
0.000157683
0.000173178
0.000290514
0.000509773
0.000459282
0.000239907
0.00015763
0.000137536
0.000135465
0.00014239
0.000158493
0.000165608
0.000174358
0.000175006
0.000190081
0.000189493
0.000185505
0.000176617
0.000148125
0.000138726
0.000121937
0.000113619
0.000104201
0.000102375
9.89214e-05
8.97674e-05
8.32438e-05
8.45139e-05
8.92433e-05
8.91034e-05
8.88381e-05
8.74459e-05
8.5886e-05
8.80476e-05
0.000100597
0.000142744
0.000216718
0.000244875
0.000239094
0.000215559
0.000174962
0.00016316
0.000176047
0.000240415
0.000281256
0.000201232
0.0001481
0.000129377
0.00011865
9.97067e-05
0.000105798
0.000117424
0.000194441
0.000139518
0.000149492
0.000184393
0.000186952
0.000171285
0.000358024
0.000342447
0.000335768
0.00032668
0.000320508
0.000320787
0.000320187
0.000316795
0.000313174
0.000304771
0.000297934
0.000297846
0.0003006
0.000309712
0.000324151
0.000338424
0.000351502
0.000361077
0.000364756
0.000360765
0.000345266
0.000318599
0.000302567
0.000293272
0.000284758
0.000276719
0.000272632
0.000267283
0.000251873
0.000239366
0.000228234
0.000217636
0.00021741
0.000232736
0.000243264
0.000233901
0.000199725
0.000168931
0.000150784
0.000147415
0.000147399
0.000150717
0.000155478
0.000167379
0.000233153
0.000483681
0.000537528
0.000323638
0.000191573
0.000146624
0.000136932
0.00013858
0.000151968
0.000164258
0.000172549
0.000174741
0.000188577
0.000190703
0.000176769
0.000159927
0.000138402
0.000132287
0.000117908
0.000113769
0.000107698
0.000109502
0.000109466
0.000101212
9.16301e-05
9.20734e-05
9.47912e-05
9.50449e-05
9.61951e-05
9.41132e-05
9.49187e-05
0.000103795
0.000140994
0.00022345
0.000278521
0.000271811
0.0002494
0.000205135
0.000168098
0.000157486
0.000166626
0.000243606
0.000286279
0.000194018
0.000143975
0.000132073
0.000140357
0.000102483
0.000107148
0.000125497
0.000213114
0.00014501
0.000145523
0.00019697
0.00020386
0.000199312
0.00048477
0.000456463
0.000437887
0.000418145
0.000401989
0.000393571
0.000379797
0.000366508
0.000358783
0.000349297
0.000344242
0.000344802
0.000348219
0.000353966
0.000359873
0.000364333
0.000366764
0.000366315
0.00035861
0.000332117
0.000300632
0.000286516
0.000284025
0.00028304
0.000279036
0.000274987
0.000272311
0.000265987
0.000258799
0.000251774
0.000244015
0.000243937
0.000256071
0.000259832
0.000246822
0.000200281
0.000158546
0.000141292
0.000137176
0.000138322
0.000143515
0.000150338
0.000157865
0.000171169
0.000212155
0.000423137
0.00056196
0.000451307
0.000259846
0.000175117
0.000146087
0.000140896
0.000145232
0.000156375
0.000162506
0.00016623
0.000173975
0.000178954
0.000151536
0.000141301
0.000124233
0.000122644
0.000116639
0.000117273
0.000119669
0.000126123
0.000124823
0.000110143
0.000103941
0.000104801
0.000108891
0.000111353
0.000111733
0.000110661
0.000117274
0.000150682
0.000242865
0.000308641
0.000307117
0.000276863
0.00024113
0.000187106
0.000159801
0.000152953
0.000161999
0.0002408
0.000286651
0.000227909
0.000167996
0.00015726
0.000156231
0.000118213
0.000118476
0.000149514
0.000197999
0.000150783
0.000153521
0.000197545
0.000205595
0.000210116
0.000581644
0.000538008
0.000500987
0.000467416
0.000443775
0.000425161
0.000407665
0.000395881
0.000387641
0.000379718
0.000376028
0.000375826
0.000375158
0.000373834
0.000372908
0.000370636
0.000363675
0.000344464
0.000304294
0.000269643
0.000260299
0.000262841
0.000269473
0.000272934
0.000273329
0.000273374
0.000273337
0.000273094
0.000274734
0.00027117
0.000268895
0.000269168
0.000266224
0.000246822
0.000192551
0.000143873
0.000124324
0.000121906
0.000124464
0.000133111
0.000147931
0.000152479
0.00017501
0.000213122
0.000220862
0.000337715
0.000560345
0.000575528
0.000383944
0.000251596
0.000179114
0.000155209
0.000150374
0.000155514
0.000159313
0.000160213
0.000160274
0.000151325
0.000144699
0.000135036
0.000122817
0.000123175
0.000124613
0.000136627
0.000143476
0.00014309
0.00013325
0.000118032
0.000115725
0.000118196
0.000124877
0.000126324
0.000128012
0.000139007
0.000178599
0.000277463
0.000345076
0.000341142
0.000302958
0.000229818
0.000194784
0.000162235
0.000148477
0.000146839
0.000157933
0.000214636
0.000290745
0.000292553
0.000209194
0.000187598
0.000172274
0.000153016
0.000148344
0.000152862
0.000191964
0.000176036
0.000183923
0.000197575
0.00020785
0.000208439
0.000638617
0.000570557
0.000518081
0.000480179
0.000455728
0.000436394
0.000422589
0.000412736
0.000404169
0.000396913
0.00039223
0.000388559
0.000383081
0.000376532
0.000364403
0.000343094
0.000307949
0.000265324
0.000232099
0.000218876
0.000225534
0.000235018
0.000242976
0.000250552
0.00025879
0.00026561
0.000268869
0.000271174
0.00027102
0.000268061
0.000261
0.00024578
0.000218527
0.000175445
0.000139523
0.00012194
0.000118812
0.000120868
0.000127151
0.0001412
0.000155307
0.000181893
0.000268759
0.000345061
0.000305243
0.000307016
0.000485245
0.000610476
0.000572585
0.000424122
0.000280578
0.000211075
0.000180853
0.000174908
0.000174996
0.000170551
0.00016646
0.000155401
0.000160351
0.000142873
0.000139787
0.000146814
0.000150861
0.000153921
0.000152848
0.000148362
0.000140042
0.000138718
0.000139451
0.000153427
0.000161791
0.000176516
0.000202593
0.000258493
0.000363121
0.000389501
0.000378139
0.000317999
0.00024772
0.000190972
0.000157245
0.000156608
0.000152085
0.000150733
0.000159333
0.000196089
0.000285473
0.000322253
0.000257275
0.000208982
0.000192492
0.000175531
0.000174376
0.000154926
0.000224894
0.000266868
0.000253353
0.000218646
0.000224877
0.000218565
0.000640723
0.000557496
0.000505505
0.000475734
0.000456033
0.000440251
0.000428691
0.000418572
0.000408927
0.000399526
0.000389039
0.000375602
0.000357022
0.00033174
0.000297851
0.000255901
0.000211221
0.000177645
0.000172641
0.000189783
0.000209761
0.000226043
0.000232809
0.000230626
0.000224142
0.000220091
0.000224334
0.000227084
0.000222608
0.000220222
0.000203183
0.000183817
0.00017518
0.000170542
0.000166831
0.000167561
0.000169314
0.000176216
0.000199299
0.000238053
0.000290609
0.000420825
0.000536534
0.00051898
0.000447747
0.000361723
0.000376351
0.000551571
0.000635602
0.000604226
0.000540548
0.000425793
0.000317617
0.000256407
0.000229534
0.000206422
0.000196801
0.000176329
0.000175175
0.000184555
0.000172576
0.000175112
0.000173139
0.000181727
0.000187118
0.000215038
0.000225747
0.00024539
0.000259092
0.000309346
0.000333022
0.000392152
0.000428491
0.000462371
0.00045361
0.000418815
0.000312198
0.000258939
0.000216235
0.000182247
0.000173345
0.00019149
0.000205964
0.000204294
0.000206962
0.000220532
0.000278458
0.000324681
0.000332637
0.000308458
0.000288449
0.000229867
0.00023851
0.000215124
0.000282291
0.000365686
0.000308231
0.000290358
0.000309442
0.000348694
0.000516816
0.000464439
0.000438405
0.000422177
0.000406945
0.000390072
0.000371846
0.000353237
0.000334532
0.000314642
0.000292816
0.000267057
0.000235279
0.000197766
0.000158236
0.000125678
0.000110696
0.000116844
0.000142068
0.000182559
0.000234314
0.000291469
0.00033991
0.000363497
0.000366436
0.000338957
0.000292769
0.000241138
0.000201287
0.000178566
0.000169057
0.000178531
0.000211456
0.000260699
0.000294918
0.0003228
0.00035586
0.000407727
0.000506536
0.000619958
0.000723687
0.000752094
0.000705122
0.000537897
0.00046751
0.00048182
0.000495758
0.000441151
0.000391627
0.00057838
0.000732298
0.000782861
0.000767847
0.000694687
0.000614828
0.000475839
0.000388991
0.000254561
0.000236612
0.000172853
0.000167061
0.000217555
0.000259324
0.000331543
0.000364318
0.0004095
0.000416536
0.000455633
0.000481715
0.000538373
0.00053804
0.00055609
0.000525491
0.00050033
0.000384913
0.000341696
0.000247342
0.000226723
0.000191945
0.000207606
0.000223594
0.000271794
0.000303627
0.000326367
0.000367263
0.000400645
0.000351399
0.000303659
0.00033739
0.000400258
0.000464808
0.000432918
0.000512128
0.000260523
0.000332051
0.000377614
0.000474067
0.000550895
0.000720831
0.000988376
6.46712e-05
6.90796e-05
9.57331e-05
0.000179696
0.000153882
0.000105101
0.000112835
0.000123086
0.000120379
0.000131645
0.000132307
0.000156391
0.000135416
0.000168486
0.000280765
0.000453585
0.000493225
0.000349851
0.000294801
0.000240727
0.000195289
0.000200418
0.000244271
0.000356838
0.00039251
0.000329645
0.000299197
0.000332877
0.000365092
0.000347373
0.000332529
0.000571568
0.000764636
0.000822027
0.000808175
0.000727389
0.000580459
0.00042223
0.000322687
0.000286981
0.000325216
0.000419848
0.000572215
0.000736431
0.000877762
0.000953447
0.00095565
0.000914855
0.000802054
0.00065416
0.000490554
0.000327443
0.000189189
0.000112239
0.000104921
0.000118283
0.000127173
0.000124391
0.000123447
0.000126861
0.000126621
0.000124793
0.000140621
0.000185072
0.000250113
0.000301507
0.000310567
0.000268637
0.000182634
0.000191176
0.000260647
0.00034801
0.000436848
0.000483624
0.000450438
0.000439493
0.000372608
0.000328867
0.000296988
0.000238381
0.000211472
0.000195361
0.000193691
0.000211528
0.00024599
0.000297534
0.000359871
0.000409638
0.00041945
0.000388024
0.000327472
0.000279502
0.000253812
0.000247165
0.00025065
0.000254136
0.000235611
0.000170353
0.000113147
5.88297e-05
8.10298e-05
8.28151e-05
0.000108335
0.00011789
0.000147988
0.000137231
0.000120447
0.000108894
0.000108661
0.000118262
0.000128076
0.000135922
0.000149574
0.000169797
0.000240909
0.000296073
0.000233547
0.00022369
0.000241283
0.000257744
0.000250183
0.000224732
0.000228439
0.000223241
0.000250533
0.000283426
0.000277894
0.000250802
0.000267625
0.000399247
0.000548219
0.000582659
0.000563461
0.000444613
0.000360317
0.000307989
0.00028541
0.000281148
0.000291848
0.000304155
0.000299455
0.000297367
0.000306531
0.000332759
0.000380224
0.000463335
0.000565333
0.000658293
0.000678831
0.000654287
0.000583493
0.000470354
0.000342698
0.000226507
0.000158688
0.000138102
0.000124666
0.000109826
9.83612e-05
9.52934e-05
9.52005e-05
9.95055e-05
0.000108319
0.000119248
0.000133769
0.000144569
0.000175783
0.000189949
0.000186908
0.000222188
0.000266446
0.00029543
0.000295679
0.000270244
0.00019507
0.000210262
0.000155893
0.000154657
0.000152384
0.000151733
0.000158827
0.000162148
0.00016995
0.000179764
0.000190497
0.000203865
0.000224749
0.000265019
0.000340854
0.000366998
0.000357003
0.000308648
0.000260597
0.00022539
0.000198231
0.000188524
0.000181643
0.000151028
9.91929e-05
6.29342e-05
8.63136e-05
9.18632e-05
0.000107149
0.00010203
0.000133193
0.000143677
0.000103994
9.57972e-05
0.000112603
0.000132307
0.000154489
0.000186663
0.000189452
0.000193747
0.000208281
0.000242644
0.000224701
0.00025287
0.00025988
0.000284754
0.000287856
0.000253498
0.000245687
0.00021528
0.000184811
0.000198094
0.000190498
0.000198285
0.000312871
0.000465919
0.000517522
0.000449234
0.000321336
0.000258239
0.000238394
0.000234467
0.000232429
0.000219691
0.000222318
0.000232589
0.000232078
0.000230722
0.000226678
0.000225019
0.000227338
0.000236587
0.000264609
0.000329409
0.000399656
0.00049929
0.00050881
0.000482357
0.00041439
0.000327967
0.000244582
0.000185055
0.000149255
0.000126803