/*--------------------------------*- C++ -*----------------------------------*\
| =========                 |                                                 |
| \\      /  F ield         | OpenFOAM: The Open Source CFD Toolbox           |
|  \\    /   O peration     | Version:  2.4.0                                 |
|   \\  /    A nd           | Web:      www.OpenFOAM.org                      |
|    \\/     M anipulation  |                                                 |
\*---------------------------------------------------------------------------*/
FoamFile
{
    version     2.0;
    format      ascii;
    class       volScalarField;
    location    "0.144";
    object      k_0;
}
// * * * * * * * * * * * * * * * * * * * * * * * * * * * * * * * * * * * * * //

dimensions      [0 2 -2 0 0 0 0];

internalField   nonuniform List<scalar> 
17600
(
9.28181
7.41834
5.10864
3.94533
3.32893
2.96001
2.68681
2.46919
2.35067
2.16595
2.16429
1.99073
2.02603
1.89123
1.92263
1.8642
1.84985
2.01176
2.01545
2.24848
4.49794
6.22057
5.82862
5.05666
4.40378
3.93596
3.60012
3.29328
3.15544
2.88313
2.87117
2.6556
2.66911
2.52264
2.50692
2.43685
2.36942
2.44937
2.35516
2.3555
1.30811
3.30587
3.9801
3.95784
3.76551
3.45828
3.24125
2.97678
2.8899
2.6469
2.63079
2.45841
2.44633
2.34198
2.30665
2.23829
2.17181
2.17475
2.13572
1.96455
0.205017
1.21173
1.90521
2.32483
2.51589
2.5047
2.48467
2.36544
2.34268
2.19248
2.18293
2.07884
2.05795
1.99016
1.96586
1.90393
1.86782
1.83419
1.7971
1.6744
0.0256977
0.289435
0.62817
0.955243
1.25851
1.40147
1.57282
1.57728
1.63945
1.59746
1.61593
1.58802
1.58024
1.55103
1.55088
1.51425
1.49643
1.47219
1.41345
1.34644
0.0027266
0.0494916
0.145765
0.249232
0.442529
0.541231
0.734873
0.790721
0.922679
0.948682
0.998789
1.03962
1.05796
1.0619
1.0954
1.0846
1.08444
1.07402
1.02843
0.973648
0.000274978
0.00728754
0.0253688
0.0461538
0.102006
0.141318
0.232649
0.273963
0.3632
0.419317
0.451978
0.527353
0.563152
0.584503
0.640378
0.655919
0.674096
0.668121
0.650853
0.603771
4.65207e-05
0.00104318
0.0038304
0.00692195
0.0161631
0.0254613
0.0493121
0.064068
0.0924862
0.128846
0.143702
0.185152
0.205266
0.23923
0.261162
0.307784
0.317278
0.316207
0.325159
0.294081
2.81874e-05
0.000196011
0.00065882
0.00102898
0.00217215
0.00352866
0.00753971
0.0106238
0.0152418
0.0263075
0.0308183
0.0437688
0.0501521
0.0661135
0.0728296
0.0999681
0.102529
0.105713
0.116402
0.100634
2.6418e-05
6.93784e-05
0.000207118
0.000255526
0.00041381
0.000558507
0.00118324
0.00158107
0.00222574
0.0039165
0.00462289
0.00686138
0.00824424
0.0113167
0.0136248
0.0225373
0.0227523
0.0257781
0.028593
0.0233819
2.42528e-05
4.25325e-05
0.000128815
0.000149789
0.000196001
0.000200839
0.000287815
0.000349805
0.000490235
0.000696314
0.000718959
0.000951165
0.00107234
0.0012921
0.00172071
0.00295776
0.00335036
0.00442134
0.00451248
0.00387689
2.4478e-05
3.52259e-05
9.21028e-05
0.000102993
0.000112227
0.000105221
0.000108845
0.000128791
0.000212102
0.000239159
0.000226136
0.000233997
0.000221081
0.000302665
0.000320055
0.000474724
0.00071993
0.000711457
0.000751065
0.00103508
2.30333e-05
3.17467e-05
5.3998e-05
5.67085e-05
7.15558e-05
7.44795e-05
7.48223e-05
7.82024e-05
0.000103369
0.000112217
0.000133934
0.000127799
0.000140621
0.000178738
0.000177971
0.000291396
0.000275186
0.00027423
0.000436428
0.000583422
2.15272e-05
2.95198e-05
3.45197e-05
4.47827e-05
6.4984e-05
7.09e-05
6.60358e-05
6.2208e-05
6.23886e-05
7.07179e-05
0.000104096
0.000107756
0.000156183
0.000146896
0.000147816
0.000167868
0.000160954
0.000173058
0.000312035
0.000305929
2.1013e-05
2.66286e-05
3.31527e-05
5.00283e-05
5.90587e-05
6.12363e-05
5.51282e-05
5.11293e-05
5.12163e-05
7.04566e-05
8.49342e-05
9.93655e-05
0.000100616
9.40758e-05
0.000110213
0.000107573
0.000109605
0.000191148
0.000186423
0.000173381
2.09783e-05
2.5953e-05
3.98035e-05
4.32828e-05
4.35855e-05
4.61933e-05
4.68723e-05
4.87741e-05
5.02348e-05
6.09711e-05
6.39513e-05
7.60248e-05
7.55822e-05
8.34728e-05
8.83886e-05
8.85121e-05
0.000100436
0.000140992
0.000123617
0.000146399
2.10491e-05
2.53567e-05
3.69035e-05
3.64693e-05
3.85684e-05
4.55989e-05
5.24892e-05
5.14749e-05
5.03936e-05
5.02752e-05
5.64285e-05
5.93624e-05
6.05048e-05
7.69461e-05
7.59908e-05
7.75116e-05
0.000109252
0.000101977
0.000104523
0.000161354
2.06285e-05
2.42748e-05
3.39797e-05
3.59094e-05
4.07808e-05
4.62595e-05
4.93157e-05
4.85696e-05
4.65327e-05
4.66983e-05
5.54573e-05
6.02981e-05
7.25819e-05
7.14734e-05
7.43203e-05
8.77276e-05
9.45675e-05
9.39092e-05
0.000111293
0.000140793
2.05874e-05
2.46188e-05
3.53619e-05
3.62606e-05
3.75098e-05
4.13314e-05
4.43013e-05
4.42733e-05
4.36527e-05
4.50368e-05
4.67628e-05
4.94549e-05
5.96626e-05
6.42621e-05
6.57051e-05
8.27707e-05
7.8876e-05
8.11749e-05
9.13258e-05
9.65747e-05
2.05984e-05
2.55101e-05
3.29333e-05
3.36204e-05
3.59562e-05
4.04839e-05
4.28657e-05
4.27704e-05
4.26318e-05
4.26121e-05
4.75642e-05
5.64858e-05
5.79761e-05
6.12881e-05
6.83247e-05
6.59907e-05
6.59588e-05
7.08779e-05
7.35386e-05
7.56656e-05
2.06195e-05
2.46844e-05
3.13533e-05
3.36566e-05
3.86525e-05
4.02787e-05
4.0561e-05
4.01185e-05
4.01059e-05
4.66561e-05
4.84057e-05
5.18376e-05
5.71783e-05
5.75735e-05
5.83058e-05
6.03147e-05
6.33514e-05
6.28293e-05
6.53264e-05
6.69514e-05
2.06679e-05
2.43279e-05
3.27341e-05
3.69968e-05
3.87533e-05
3.82083e-05
3.82956e-05
3.85131e-05
4.09991e-05
4.90442e-05
4.90534e-05
4.90759e-05
5.09427e-05
5.14748e-05
5.44641e-05
5.48436e-05
5.46644e-05
5.48746e-05
5.4857e-05
6.04578e-05
2.07399e-05
2.479e-05
3.4932e-05
3.87478e-05
3.77882e-05
3.70926e-05
3.84168e-05
4.23434e-05
4.67341e-05
4.61492e-05
4.46826e-05
4.69281e-05
4.78276e-05
5.04238e-05
5.24001e-05
5.20534e-05
5.09884e-05
5.09711e-05
5.14992e-05
5.60245e-05
2.08984e-05
2.52754e-05
3.69874e-05
3.87878e-05
3.77068e-05
3.87989e-05
4.41712e-05
4.78841e-05
4.8193e-05
4.58084e-05
4.50954e-05
4.77705e-05
5.14038e-05
5.35758e-05
5.32004e-05
5.15113e-05
5.1554e-05
5.49954e-05
5.78147e-05
6.58873e-05
2.10397e-05
2.6115e-05
3.8397e-05
3.83809e-05
3.92474e-05
4.62185e-05
4.97447e-05
5.23671e-05
5.06375e-05
4.94278e-05
5.04057e-05
5.44968e-05
5.86169e-05
5.88906e-05
5.85719e-05
5.86324e-05
6.2969e-05
6.53538e-05
6.63907e-05
6.92473e-05
2.12636e-05
2.87917e-05
3.67747e-05
3.81344e-05
4.71449e-05
5.27141e-05
5.5936e-05
5.82704e-05
5.55005e-05
5.58916e-05
5.68577e-05
6.14803e-05
6.77949e-05
6.91106e-05
7.02621e-05
7.42568e-05
7.53468e-05
7.44397e-05
7.52869e-05
8.25783e-05
2.15691e-05
2.97598e-05
3.49911e-05
4.55859e-05
5.67701e-05
5.89945e-05
6.38363e-05
6.37757e-05
5.95679e-05
6.0647e-05
6.42831e-05
7.74705e-05
8.6861e-05
8.97658e-05
9.2381e-05
9.20663e-05
8.9996e-05
9.28255e-05
0.000104476
0.000150569
2.24515e-05
2.87045e-05
4.06463e-05
5.81826e-05
6.50914e-05
6.73505e-05
6.96509e-05
6.74207e-05
6.67299e-05
7.41404e-05
9.3585e-05
0.000117729
0.000126016
0.000127313
0.000128669
0.00013165
0.000146749
0.0001991
0.000316584
0.000652847
2.3231e-05
3.00962e-05
5.5021e-05
6.93057e-05
7.86965e-05
7.89174e-05
8.24732e-05
8.5259e-05
9.5869e-05
0.000152087
0.000180283
0.000234828
0.00025219
0.000279936
0.000332434
0.000439946
0.000659844
0.00124234
0.00206801
0.00429652
2.38447e-05
3.33729e-05
7.92633e-05
9.67445e-05
0.000111435
0.000119224
0.000172259
0.000217652
0.000297606
0.000568069
0.000675355
0.00100303
0.00121646
0.0016733
0.00224209
0.00350732
0.00504657
0.00901225
0.01306
0.0252556
2.45907e-05
4.91276e-05
0.000161031
0.000212637
0.000280705
0.000408939
0.000923658
0.00135614
0.00192148
0.00380142
0.00468502
0.00731717
0.00905092
0.0127888
0.0162811
0.0240779
0.0310036
0.048041
0.0616527
0.105568
2.87309e-05
0.000149251
0.000620722
0.000985009
0.00167492
0.00302942
0.00732335
0.0106144
0.0145821
0.0265074
0.031843
0.0451918
0.0537449
0.0706689
0.0832837
0.110196
0.129999
0.175347
0.205937
0.298845
5.07273e-05
0.000880018
0.00384936
0.00693514
0.0132092
0.0237968
0.0503289
0.0649775
0.0868647
0.133714
0.149898
0.186636
0.217829
0.253158
0.283653
0.335708
0.370809
0.442871
0.485201
0.591798
0.000279752
0.00628362
0.026702
0.04734
0.0893871
0.145857
0.232188
0.274608
0.353733
0.435456
0.465545
0.527087
0.580059
0.614842
0.658003
0.706074
0.746327
0.808729
0.845862
0.928599
0.00271949
0.0432752
0.155345
0.251724
0.418568
0.565696
0.719742
0.799912
0.91216
0.973508
1.00229
1.04571
1.07928
1.08998
1.11642
1.13305
1.16376
1.18989
1.21757
1.25246
0.0258259
0.261309
0.659905
0.947745
1.25165
1.42522
1.5558
1.58813
1.63571
1.6216
1.61575
1.59819
1.59195
1.56781
1.56577
1.54975
1.55416
1.5465
1.54754
1.53868
0.206354
1.19436
1.93837
2.3127
2.5239
2.51317
2.48017
2.3857
2.33213
2.21257
2.17492
2.08717
2.05411
1.98755
1.96469
1.90618
1.89076
1.84276
1.81375
1.7667
1.31623
3.2915
4.00298
3.95703
3.77899
3.44739
3.23542
3.00086
2.86483
2.67324
2.61419
2.47026
2.41934
2.32002
2.27707
2.17769
2.13891
2.03748
1.97457
1.87044
4.50226
6.21912
5.84589
5.04058
4.43153
3.91505
3.60551
3.3021
3.12699
2.90435
2.83877
2.66504
2.60424
2.48103
2.42112
2.28586
2.21961
2.06228
1.96369
1.77965
9.28782
7.42456
5.12081
3.92635
3.348
2.942
2.69627
2.46084
2.33515
2.16723
2.11959
1.98832
1.93565
1.82547
1.76841
1.63802
1.55405
1.38102
1.25608
1.04534
1.56783
1.27704
1.08569
1.00791
0.807207
0.724364
0.586283
0.576454
0.563219
0.598985
0.774216
0.726039
0.359649
0.343694
0.334359
0.231351
0.138766
0.122728
0.127774
0.139473
0.188004
0.215182
0.205637
0.168868
0.162837
0.170024
0.169345
0.167129
0.172827
0.190147
0.18681
0.161484
0.0896822
0.0380464
0.0166445
0.00782829
0.00431864
0.00315916
0.00217877
0.00173638
0.00170379
0.00181162
0.0021001
0.00317936
0.00685998
0.0218785
0.0565364
0.0809103
0.0946576
0.0979117
0.0949315
0.0847912
0.076294
0.0693353
0.0657435
0.0628174
0.0602187
0.0583389
0.0550314
0.0532172
0.0529761
0.0538603
0.0628955
0.0735645
0.0769142
0.0734929
0.0514861
0.0317063
0.023855
0.019549
0.0158602
0.014268
0.0142399
0.0166331
0.0175068
0.0180758
0.0205573
0.0252683
0.0287482
0.0307413
0.0313732
0.0324533
0.0333631
0.0357206
0.0614745
0.0713328
0.0671899
0.0674567
0.0757573
0.0787554
0.0755258
0.0702193
0.0684955
0.0673212
0.0629182
0.0477925
0.0367774
0.0325786
0.0320786
0.0331413
0.0348615
0.0450244
0.113017
0.148109
0.152571
0.152359
0.141454
0.0944314
0.0673473
0.0565877
0.0551198
0.0569425
0.057985
0.048888
0.0307685
0.0213743
0.0173352
0.0161651
0.0163089
0.0177735
0.0191752
0.0216045
0.0285387
0.0337226
0.0354559
0.0378224
0.0409965
0.0568579
0.133797
0.170248
0.162965
0.110968
0.0646458
0.0406408
0.0243701
0.0170716
0.0129688
0.0117053
0.0118495
0.0123295
0.014914
0.0170532
0.0184344
0.0197028
0.0224303
0.0243028
0.0267784
0.0292094
0.0370776
0.0430347
0.0571716
0.0618978
0.0677765
0.0661776
0.0665833
0.066493
0.0667426
0.0635007
0.0581719
0.0520783
0.045673
0.038697
0.0338722
0.032261
0.0316009
0.0298952
0.0260737
0.0235847
0.0220708
0.0215148
0.0218579
0.0218783
0.0216635
0.0218435
0.0224278
0.0221241
0.0212466
0.0211877
0.0215041
0.0235308
0.0251573
0.0265708
0.0300676
0.039979
0.0456169
0.0459491
0.0409234
0.0288939
0.024693
0.0236914
0.0226892
0.0207578
0.0200993
0.0203701
0.0219082
0.0236109
0.0279485
0.0435007
0.106555
0.525931
1.99281
1.5934
1.2096
1.05338
0.817077
0.706699
0.569764
0.50481
0.525884
0.530631
0.675951
0.787444
0.470989
0.348741
0.357366
0.258818
0.154826
0.128833
0.134656
0.162567
0.208723
0.220161
0.20255
0.190617
0.194629
0.192556
0.18119
0.181575
0.195508
0.195099
0.178053
0.114812
0.0472126
0.0198082
0.00929426
0.00506851
0.00325073
0.00257271
0.00187363
0.00164187
0.00168461
0.00187819
0.00243587
0.0042984
0.0103446
0.03626
0.0716248
0.0936595
0.102867
0.103038
0.094566
0.0819472
0.0760791
0.0716819
0.0690002
0.0673691
0.063024
0.0589647
0.0548277
0.0526284
0.0520981
0.0525127
0.0597385
0.0720629
0.0764619
0.0743731
0.0547322
0.0339227
0.0252656
0.0205247
0.016148
0.0141175
0.0140286
0.0158922
0.0172106
0.0177649
0.0203782
0.0246852
0.0282696
0.0303769
0.0315409
0.0324336
0.033445
0.035616
0.0605761
0.0714778
0.0673333
0.0664588
0.0718857
0.0755991
0.0745506
0.070534
0.0690875
0.0680193
0.0647848
0.0503891
0.0382133
0.0330174
0.0321848
0.0330454
0.0351067
0.0441855
0.112254
0.153231
0.159539
0.159278
0.14483
0.0939456
0.0680597
0.0581284
0.0563222
0.0579457
0.0593582
0.0508048
0.0314523
0.0215489
0.0174166
0.016211
0.0162614
0.0175829
0.0191167
0.021209
0.0272139
0.0322046
0.0342046
0.0371323
0.040647
0.0567439
0.135334
0.172189
0.165201
0.11362
0.0655324
0.040836
0.0247244
0.0170759
0.013063
0.0118749
0.0118526
0.0125523
0.0159937
0.0180939
0.0201235
0.0212019
0.0243907
0.0257187
0.0278783
0.0306496
0.039893
0.0452026
0.0640955
0.0688316
0.0797048
0.0777073
0.0789896
0.0781568
0.0728359
0.0648251
0.0576237
0.04729
0.0394931
0.0348398
0.0318547
0.0306443
0.0285391
0.0234536
0.0196436
0.0185539
0.0183934
0.018834
0.0200853
0.020962
0.0212849
0.021479
0.0220932
0.022312
0.022613
0.0231148
0.0240485
0.0251857
0.0261446
0.0270886
0.029001
0.0371808
0.0459158
0.048098
0.0459707
0.0337272
0.0259407
0.0239858
0.0227651
0.0209427
0.0200104
0.0200621
0.0210278
0.0227943
0.0263085
0.0363131
0.0990918
0.400202
1.5992
1.35266
1.06958
0.916199
0.760365
0.592461
0.506296
0.396651
0.421315
0.444725
0.53706
0.751994
0.723431
0.451023
0.52835
0.422684
0.206837
0.142057
0.141281
0.179424
0.219648
0.231521
0.228968
0.22361
0.217762
0.197687
0.194772
0.206497
0.205973
0.193532
0.141392
0.0589418
0.0245904
0.0111422
0.0060805
0.00388325
0.00277791
0.00206897
0.00164802
0.00159454
0.00170915
0.00205401
0.00306326
0.00619669
0.0162291
0.0541418
0.0880356
0.105654
0.110203
0.10587
0.0902329
0.0793763
0.0751995
0.0724603
0.0709574
0.0694252
0.0640737
0.0586579
0.0544223
0.0522054
0.051445
0.0515702
0.0565773
0.0693927
0.0754783
0.0745154
0.057396
0.0361245
0.0265925
0.0213789
0.0163274
0.0139213
0.013764
0.0152377
0.0171367
0.0175116
0.0198272
0.0240169
0.0279868
0.0301934
0.0315655
0.0324633
0.0337613
0.0356491
0.059266
0.0719159
0.0677458
0.0659213
0.0687745
0.0724255
0.0723391
0.0702316
0.0689844
0.0682926
0.0657246
0.0522968
0.0395503
0.0334992
0.032375
0.033053
0.0353979
0.0437579
0.112619
0.159667
0.167033
0.166503
0.148531
0.0941647
0.0703877
0.0611721
0.0583587
0.0589365
0.0602178
0.0526209
0.0319998
0.0215657
0.0174195
0.0162433
0.0162418
0.0172707
0.0188195
0.0207272
0.0260801
0.030672
0.0328795
0.0364266
0.0407038
0.0575378
0.136087
0.173026
0.166206
0.11671
0.0677055
0.0410537
0.0256569
0.0171333
0.0131826
0.012132
0.012122
0.0133419
0.0167726
0.0185514
0.021382
0.0222155
0.0265943
0.0276003
0.0309205
0.0342627
0.0534941
0.0608738
0.0884149
0.0892698
0.09147
0.0871765
0.0856277
0.0822848
0.0726117
0.0624646
0.0491287
0.0391074
0.0353631
0.0324403
0.0290134
0.0265021
0.0216865
0.01726
0.0151244
0.0146692
0.0149779
0.0163126
0.018186
0.0197016
0.0203388
0.0205252
0.0209319
0.022078
0.0232302
0.0256781
0.0289295
0.0304356
0.0308659
0.0307069
0.0311184
0.0345217
0.0448544
0.0493897
0.048956
0.0396395
0.0280801
0.024347
0.022725
0.0211982
0.0200375
0.0200176
0.0205095
0.0218539
0.0261142
0.0327031
0.0822266
0.280431
1.37916
1.14833
0.940552
0.759536
0.644838
0.492099
0.395819
0.298645
0.298664
0.324914
0.398703
0.584112
0.774693
0.702935
0.657873
0.487234
0.267513
0.165982
0.147545
0.177601
0.235935
0.255185
0.255267
0.237708
0.214527
0.213579
0.224662
0.222542
0.208994
0.163425
0.0696561
0.0294751
0.0131698
0.00693196
0.00447199
0.00311468
0.00215508
0.00174441
0.0015434
0.00157521
0.0018197
0.00245839
0.00423592
0.00945087
0.0265355
0.0758794
0.104777
0.116669
0.117107
0.106287
0.0858826
0.0772191
0.0740714
0.0722483
0.0711001
0.069783
0.0637992
0.0569121
0.0531439
0.0514249
0.0506024
0.0505884
0.0544561
0.0679793
0.0749155
0.0745953
0.0594522
0.0379904
0.0278041
0.0220238
0.0164292
0.0137166
0.0134371
0.0147477
0.0171023
0.0172877
0.0186685
0.022776
0.0276651
0.0296505
0.0313893
0.0324974
0.0338504
0.0351829
0.0565571
0.0719431
0.0685499
0.0658517
0.0668565
0.0695759
0.0696303
0.0689415
0.068513
0.0681369
0.0662158
0.05413
0.0411135
0.0342344
0.0326642
0.0332434
0.0356737
0.0438283
0.11381
0.166961
0.175104
0.174362
0.15262
0.0950911
0.0744913
0.0654283
0.0605646
0.0602963
0.0615488
0.0546635
0.0326884
0.0215418
0.0173231
0.0162465
0.0162788
0.0172442
0.0186634
0.0203685
0.0252011
0.0293375
0.0315279
0.0356619
0.0407518
0.0590648
0.136471
0.177149
0.170552
0.120977
0.0695875
0.0414021
0.0260611
0.0172527
0.0135446
0.0126955
0.01277
0.0139689
0.0169589
0.0186776
0.0218074
0.0231377
0.0306332
0.0309186
0.0438587
0.0441827
0.0948835
0.101409
0.106135
0.104155
0.0955263
0.0894993
0.086472
0.0797749
0.0665413
0.0524066
0.0417844
0.0364667
0.0339825
0.0291822
0.0245504
0.0217581
0.0181681
0.0156003
0.0141068
0.0136456
0.0137074
0.0145188
0.0160804
0.0178233
0.0185654
0.0191208
0.0203941
0.0228818
0.0252496
0.0307238
0.0364641
0.03941
0.0396394
0.0392712
0.03713
0.0373613
0.0431109
0.0496724
0.0502277
0.045003
0.0311797
0.0249157
0.0226732
0.0212142
0.0200514
0.0199643
0.0205377
0.0211224
0.0266509
0.0301621
0.0658823
0.195813
1.14403
0.950116
0.78716
0.632685
0.533305
0.422982
0.320798
0.220133
0.205907
0.21774
0.269286
0.389648
0.667888
0.73976
0.669081
0.479954
0.289753
0.18242
0.152415
0.183131
0.253885
0.271616
0.2591
0.241522
0.24316
0.250561
0.244788
0.227356
0.178851
0.079948
0.0342858
0.0153039
0.00772719
0.00492333
0.00365088
0.00243123
0.00171582
0.00153847
0.00149568
0.00160126
0.00208507
0.00326288
0.00631866
0.0146131
0.044867
0.0973234
0.120223
0.125939
0.121805
0.10141
0.0847058
0.0771066
0.0742174
0.0723108
0.0710944
0.0695418
0.0621177
0.0541216
0.0510412
0.0503834
0.049818
0.0497487
0.0527337
0.0659179
0.0742963
0.0745592
0.061094
0.039786
0.0290107
0.0225715
0.0165167
0.0135676
0.0131266
0.0143992
0.0168893
0.0169617
0.017696
0.020954
0.0267319
0.0286204
0.0311302
0.0324241
0.033547
0.0343007
0.0530322
0.0715695
0.0696961
0.066069
0.0663567
0.0674961
0.0672829
0.0669357
0.0674194
0.0676948
0.0663912
0.0556046
0.0423113
0.0348562
0.033029
0.0335906
0.0360508
0.0441929
0.11612
0.174869
0.183463
0.182731
0.157167
0.0969798
0.0798595
0.070294
0.0625038
0.0614793
0.0624008
0.0565271
0.0337797
0.0215876
0.0172874
0.0162487
0.0163361
0.0173631
0.0186167
0.0201055
0.0244161
0.0281101
0.03016
0.0346333
0.0405264
0.0604768
0.13953
0.183966
0.177814
0.123966
0.071533
0.0423113
0.0264326
0.0176909
0.0141031
0.0133326
0.0133823
0.014105
0.0167492
0.0188184
0.0221076
0.0248362
0.0415905
0.0388843
0.0802963
0.09126
0.115263
0.113143
0.0967659
0.0961218
0.0847425
0.0828912
0.077846
0.067366
0.0567094
0.0474261
0.0399156
0.0362937
0.0310993
0.0255001
0.0224879
0.0201966
0.0168509
0.0148892
0.013804
0.0135674
0.0135367
0.013708
0.0148595
0.0165593
0.0175144
0.0186303
0.0208503
0.0265225
0.0332025
0.0409216
0.0468752
0.0482684
0.0480161
0.0472129
0.0449675
0.0420391
0.0434646
0.0492952
0.0507769
0.0482107
0.0348969
0.0260198
0.0224
0.0210687
0.0200919
0.0198421
0.0209209
0.0210921
0.0282978
0.0302406
0.0520816
0.13607
0.819572
0.654225
0.536898
0.414227
0.354833
0.266938
0.202814
0.134023
0.116754
0.124632
0.155359
0.23652
0.449111
0.66339
0.645991
0.498729
0.304127
0.189991
0.165504
0.223859
0.284196
0.286198
0.278649
0.28037
0.278473
0.267504
0.24313
0.188165
0.0877655
0.0387071
0.0171485
0.00853336
0.00518578
0.00397335
0.00282786
0.00178363
0.00148054
0.00144684
0.00147806
0.00174233
0.00266075
0.00475874
0.00982796
0.0230346
0.0697714
0.119582
0.134703
0.135278
0.124516
0.0996121
0.0850755
0.0789955
0.0763859
0.0734671
0.0712202
0.0682303
0.0587016
0.0510792
0.0489861
0.0491053
0.0490106
0.0489482
0.0513899
0.0644408
0.0738618
0.0744606
0.0621357
0.0408285
0.0300547
0.0230832
0.0166714
0.0134372
0.0128519
0.0141526
0.0166568
0.0167709
0.0170251
0.019201
0.025563
0.0278921
0.0306874
0.0320529
0.0331148
0.0337881
0.0502227
0.0707841
0.0705014
0.066887
0.0660943
0.0658259
0.0646655
0.0644251
0.0658957
0.067076
0.0661918
0.0565339
0.0432413
0.0355673
0.0335816
0.0340839
0.0365091
0.0452244
0.120028
0.183222
0.192189
0.191727
0.161116
0.100684
0.0859238
0.0730504
0.0634802
0.0617949
0.0624209
0.0579012
0.0353509
0.0218579
0.0173213
0.0163526
0.0166262
0.0177026
0.0187039
0.0199339
0.0238987
0.0271489
0.0290488
0.0336065
0.0400891
0.0621323
0.143444
0.186718
0.179074
0.125053
0.0766955
0.0438441
0.0269144
0.0181319
0.0144255
0.0136589
0.01359
0.0141444
0.016338
0.0189867
0.0250041
0.0292054
0.0698937
0.0605895
0.0983772
0.115153
0.104091
0.0964688
0.0761476
0.0745607
0.0668253
0.066993
0.0619195
0.0557916
0.0513997
0.0449079
0.0395223
0.0353117
0.0288631
0.0245576
0.0221722
0.0195239
0.0160643
0.0145351
0.0137487
0.0138155
0.0137598
0.0138964
0.0148348
0.0163784
0.0174304
0.0193923
0.0236266
0.036211
0.0458017
0.052885
0.0553413
0.0551298
0.053652
0.0521628
0.049617
0.0457757
0.0452816
0.0484468
0.0512614
0.0502626
0.038879
0.0275188
0.0226084
0.0204911
0.0198282
0.019411
0.0216257
0.0214697
0.0333015
0.0311953
0.0441852
0.096122
0.4886
0.351255
0.279101
0.192412
0.164906
0.122077
0.0885062
0.0607598
0.0532409
0.0580807
0.0742
0.125026
0.223852
0.443356
0.595005
0.56942
0.3672
0.234838
0.242892
0.315957
0.330585
0.329923
0.32091
0.306385
0.290166
0.256926
0.191039
0.0918747
0.0417557
0.018883
0.00917958
0.00546759
0.0040193
0.00319347
0.00205987
0.0014662
0.00137524
0.00139975
0.00152125
0.00212478
0.0038647
0.00743303
0.0155024
0.0367114
0.100099
0.140514
0.14742
0.14475
0.120939
0.0994353
0.0890952
0.0844123
0.0814851
0.0748216
0.0707689
0.0647398
0.0548802
0.0483621
0.0471366
0.0478218
0.0481006
0.0481289
0.0505735
0.0638204
0.0737115
0.0743888
0.06231
0.0416775
0.0313254
0.0236358
0.0168051
0.0133433
0.0126107
0.0139521
0.0164138
0.0165735
0.0164719
0.0179
0.0245018
0.0273551
0.0303829
0.0318835
0.033051
0.0337719
0.0486183
0.0698795
0.0703907
0.0678323
0.0654103
0.0635662
0.0617069
0.0613262
0.0637255
0.0662111
0.0657531
0.0570934
0.0440412
0.0361681
0.0341041
0.0345584
0.0370133
0.0461604
0.125038
0.191899
0.201359
0.201314
0.165726
0.106614
0.0908611
0.0731863
0.0634826
0.0617332
0.0619183
0.0586127
0.0373165
0.0225098
0.0174604
0.0164573
0.0168602
0.0180078
0.0188255
0.0199154
0.0235726
0.0263311
0.028272
0.0329911
0.039959
0.0641952
0.145743
0.18602
0.176242
0.128309
0.0806766
0.0473482
0.0278716
0.0186057
0.0146983
0.0137562
0.0136817
0.0142297
0.0160909
0.0193962
0.0347601
0.0448003
0.0823681
0.0889851
0.102725
0.106062
0.0790351
0.0743331
0.0671549
0.0647841
0.0594923
0.0588275
0.0519224
0.0488292
0.047068
0.0428417
0.0392066
0.0336616
0.027906
0.0244046
0.0221196
0.018741
0.0151227
0.0143044
0.0138574
0.0144044
0.0143451
0.0145356
0.0152288
0.0164027
0.0190974
0.0224037
0.0306695
0.0465773
0.0577729
0.0627756
0.0629001
0.0619805
0.0572106
0.0549877
0.0527027
0.048684
0.0470198
0.0483481
0.0511377
0.0510422
0.04283
0.0292212
0.0230387
0.0202104
0.0198735
0.0194858
0.0241452
0.0228992
0.0360291
0.0325348
0.0395501
0.0721221
0.212781
0.131202
0.0993087
0.0689303
0.060076
0.0495469
0.0381018
0.0280979
0.0245371
0.0270144
0.0335141
0.0525458
0.108832
0.195369
0.414643
0.568115
0.543869
0.450974
0.432872
0.425024
0.396188
0.381029
0.347304
0.310548
0.268957
0.184154
0.092804
0.0426317
0.0199608
0.00978919
0.00567973
0.00413601
0.00334607
0.0024337
0.00164201
0.00130629
0.00131062
0.00138313
0.00170015
0.00299921
0.006242
0.0118786
0.0240993
0.0606163
0.130877
0.158679
0.160246
0.149032
0.118761
0.1039
0.0969791
0.0928162
0.0856358
0.0751897
0.06753
0.0607249
0.0518333
0.0463254
0.0456269
0.0466312
0.0471487
0.0472483
0.0496321
0.0628001
0.0733198
0.0740976
0.0620172
0.0424708
0.0323764
0.0239033
0.016807
0.013214
0.0124272
0.0137431
0.0161162
0.0163835
0.016062
0.0173417
0.0238962
0.0267994
0.0301201
0.0320004
0.0333136
0.0340276
0.0472187
0.0677437
0.0697031
0.0680041
0.0641928
0.0611224
0.0585516
0.0580277
0.0612897
0.065101
0.0649723
0.0572971
0.0444278
0.0367347
0.0347979
0.0352493
0.0378736
0.048115
0.132268
0.201185
0.210801
0.211211
0.170248
0.114261
0.0913639
0.0719093
0.0632048
0.0612519
0.0609492
0.0589898
0.03999
0.023531
0.0177992
0.0167207
0.0173069
0.0183832
0.0189548
0.0199633
0.0236387
0.025775
0.0276811
0.0327158
0.0399461
0.0671111
0.146764
0.185019
0.174722
0.13081
0.0830731
0.051877
0.0313043
0.0199276
0.0152175
0.0142498
0.0140798
0.0144882
0.0162234
0.0198906
0.048251
0.0625672
0.0749619
0.0953592
0.0970244
0.0832434
0.0701378
0.0695941
0.0639619
0.0595469
0.056034
0.0500537
0.0425238
0.0420835
0.0416295
0.0409347
0.0374217
0.0320711
0.0273373
0.0245893
0.0209034
0.0171226
0.0141282
0.0140901
0.013887
0.014879
0.0150031
0.0153909
0.0163201
0.0183787
0.0240326
0.0290995
0.0413251
0.0566188
0.0688026
0.0719354
0.0718652
0.0696529
0.0629491
0.0575415
0.0557984
0.0514511
0.0485489
0.0488213
0.0514429
0.0512963
0.0453614
0.0318002
0.023741
0.0202438
0.0205725
0.0200637
0.0268775
0.0247858
0.0445648
0.0356439
0.0379555
0.0573377
0.0667101
0.0405622
0.0306148
0.0224829
0.0209606
0.0195689
0.0152169
0.0118018
0.0105835
0.0127171
0.0160719
0.02448
0.0467397
0.0850008
0.163504
0.446494
0.561894
0.551736
0.534739
0.48262
0.446354
0.399932
0.332692
0.26596
0.17364
0.0910068
0.0422204
0.0197683
0.010236
0.0058551
0.0042029
0.00353075
0.0026813
0.00197058
0.00137325
0.0012187
0.00127718
0.00148273
0.00223283
0.00502164
0.0104883
0.0189301
0.0370275
0.0939253
0.158977
0.174821
0.173099
0.148893
0.118424
0.111672
0.105597
0.0972815
0.0861525
0.0702805
0.0628429
0.0573642
0.0494591
0.0448353
0.044438
0.0455544
0.0461959
0.0466236
0.0491973
0.0627979
0.0733123
0.0737944
0.0616831
0.0429858
0.0329787
0.023936
0.016661
0.0130371
0.0122539
0.0134116
0.0158876
0.0164042
0.0160318
0.017411
0.0233694
0.0259049
0.0297641
0.0322785
0.033522
0.0339713
0.0435104
0.0633145
0.0669248
0.066506
0.063275
0.0591145
0.0560302
0.0552177
0.0584838
0.0636124
0.0638545
0.0569985
0.0448534
0.0374237
0.0355918
0.0360533
0.0388034
0.0503568
0.141173
0.210549
0.220291
0.221039
0.175341
0.119
0.0884502
0.0684777
0.0629661
0.0604916
0.059739
0.0592906
0.0434795
0.0252114
0.0182943
0.0170664
0.017745
0.0187237
0.0191198
0.0202079
0.0238645
0.0257358
0.0275085
0.0326945
0.0399065
0.0699455
0.147212
0.185744
0.176407
0.1329
0.0864708
0.0555531
0.0348297
0.0233082
0.0166851
0.0151367
0.0145801
0.0155144
0.0164153
0.0310758
0.0537994
0.0633742
0.0676149
0.089693
0.0853819
0.0753929
0.0720354
0.0690145
0.0602108
0.053581
0.0502452
0.0436876
0.040131
0.0403811
0.040003
0.039461
0.0359638
0.0306563
0.0269971
0.0238564
0.0185501
0.0155422
0.0135388
0.0136607
0.0136597
0.0148421
0.0152153
0.0161975
0.018987
0.0225242
0.0326071
0.0397198
0.0533154
0.0673864
0.0807868
0.0836067
0.0822505
0.0791987
0.0673118
0.0611981
0.0568109
0.0536018
0.0503964
0.0496484
0.0512113
0.0520319
0.0474529
0.0335173
0.0250389
0.0207862
0.0219245
0.0209631
0.0340449
0.028883
0.048468
0.0439262
0.039761
0.0491665
0.0146419
0.0100766
0.00819967
0.00700487
0.00714788
0.00691849
0.00523743
0.00436996
0.00439902
0.00662473
0.00845124
0.0118755
0.0204204
0.0332338
0.0625863
0.178725
0.476123
0.537144
0.530225
0.489565
0.427531
0.336502
0.244249
0.155672
0.0840608
0.0402542
0.0184908
0.00996391
0.00617899
0.00422794
0.00356384
0.00293391
0.00221895
0.00151369
0.00117435
0.0011786
0.00132499
0.00186311
0.00348327
0.0090409
0.0172037
0.0295427
0.0565628
0.133264
0.183998
0.189675
0.181372
0.144856
0.121702
0.116418
0.107371
0.0973077
0.0802342
0.0642072
0.0583532
0.054271
0.0475548
0.0437404
0.0436154
0.0448448
0.0451714
0.0456291
0.0489066
0.063064
0.073409
0.0735933
0.0609647
0.0432573
0.0332631
0.0239335
0.0164904
0.012862
0.0120912
0.0130229
0.0158087
0.0164755
0.0161076
0.0173234
0.0222307
0.0251968
0.0295537
0.0322911
0.0333888
0.0333667
0.0388826
0.0567988
0.062897
0.0633495
0.0618354
0.0571961
0.0537981
0.0527962
0.0557673
0.0616728
0.0621749
0.0563945
0.0449774
0.0380176
0.0365245
0.0370633
0.0400252
0.0534803
0.151671
0.220425
0.229588
0.230204
0.18109
0.119274
0.0802787
0.0672725
0.0630742
0.0601256
0.0594974
0.0601651
0.0476025
0.0277013
0.019175
0.0175841
0.01818
0.0189947
0.0193728
0.021151
0.0243516
0.0258357
0.0275292
0.0327911
0.0401495
0.0712343
0.147109
0.191585
0.182445
0.139083
0.0904061
0.0586725
0.0382049
0.026511
0.0186997
0.0156792
0.0151014
0.0161097
0.0164744
0.0452984
0.054743
0.0611098
0.0697907
0.0818509
0.0787936
0.0707935
0.0686147
0.0588602
0.051933
0.0478072
0.0462078
0.0411663
0.0395562
0.0399034
0.0395558
0.0388294
0.0349888
0.0300831
0.0262202
0.0211183
0.0168105
0.0144927
0.0133014
0.0132373
0.0135047
0.0146295
0.0153946
0.016979
0.0229974
0.0282717
0.0430487
0.0506601
0.0657844
0.0786939
0.0934706
0.0961179
0.0943194
0.0877378
0.0733641
0.0631712
0.0587756
0.0537222
0.0510669
0.0512335
0.0510737
0.0517577
0.0499873
0.0365815
0.0292474
0.021953
0.0270266
0.024678
0.0532511
0.0384468
0.0470111
0.0479943
0.0446936
0.0491972
0.00306614
0.00277661
0.00261712
0.00255973
0.00245957
0.00209628
0.00159608
0.00167557
0.00194818
0.00308685
0.00352723
0.00407687
0.00597698
0.00909211
0.0170334
0.0487859
0.182387
0.359766
0.376767
0.352471
0.274691
0.197345
0.12971
0.0732007
0.0358019
0.0163779
0.00882942
0.00624003
0.00454802
0.00352799
0.00308909
0.00257452
0.00171251
0.00119931
0.00109598
0.00117517
0.0016145
0.0028846
0.00615757
0.0162448
0.0278963
0.0449058
0.087761
0.17235
0.205379
0.205591
0.185402
0.141092
0.121332
0.116425
0.1067
0.0910898
0.0713473
0.0572023
0.0536332
0.0515402
0.0460475
0.0430854
0.0429683
0.0439744
0.0444823
0.045151
0.0489404
0.0636808
0.0736707
0.0734425
0.0598899
0.0436115
0.0338804
0.0240599
0.0164071
0.0127267
0.0119621
0.0127475
0.0157872
0.0166026
0.0163214
0.0170374
0.0209378
0.025088
0.0294058
0.0319221
0.0328701
0.0328102
0.036067
0.0503573
0.0589112
0.0608221
0.0602036
0.0560534
0.0520411
0.0508217
0.0531711
0.0593149
0.060049
0.0554125
0.0451481
0.0389702
0.0376753
0.0382772
0.0414342
0.0575075
0.164594
0.230729
0.23861
0.238295
0.186412
0.116416
0.0709077
0.067264
0.0635447
0.0610141
0.0603767
0.061783
0.0519206
0.0310383
0.020529
0.0182609
0.018574
0.0191989
0.0198586
0.0222706
0.0251357
0.0261168
0.0276386
0.0330785
0.04066
0.0714555
0.147531
0.198438
0.191049
0.146331
0.0949122
0.0615604
0.0409042
0.028488
0.0198559
0.0166295
0.0159918
0.0162323
0.0218215
0.0460151