/*--------------------------------*- C++ -*----------------------------------*\
| =========                 |                                                 |
| \\      /  F ield         | OpenFOAM: The Open Source CFD Toolbox           |
|  \\    /   O peration     | Version:  2.4.0                                 |
|   \\  /    A nd           | Web:      www.OpenFOAM.org                      |
|    \\/     M anipulation  |                                                 |
\*---------------------------------------------------------------------------*/
FoamFile
{
    version     2.0;
    format      ascii;
    class       volScalarField;
    location    "0.144";
    object      p;
}
// * * * * * * * * * * * * * * * * * * * * * * * * * * * * * * * * * * * * * //

dimensions      [0 2 -2 0 0 0 0];

internalField   nonuniform List<scalar> 
17600
(
90.7409
75.0914
70.6734
69.4996
68.5952
67.5751
66.7401
65.9498
65.2033
64.4028
63.6947
62.9287
62.1173
61.2988
60.5555
59.4564
58.1299
56.771
55.1625
49.1424
88.8335
75.1414
70.7142
69.509
68.5984
67.5762
66.7396
65.9508
65.2035
64.4029
63.6946
62.9296
62.118
61.2982
60.5573
59.4604
58.1285
56.7745
55.1762
49.0403
87.4212
75.3971
70.8582
69.5469
68.6128
67.5807
66.7415
65.9533
65.2051
64.4034
63.6952
62.9315
62.1196
61.2991
60.5625
59.4691
58.1315
56.7972
55.2206
49.1467
86.4466
75.7373
71.0787
69.612
68.6422
67.5954
66.7505
65.9607
65.2099
64.4073
63.6967
62.9355
62.1225
61.3036
60.5719
59.4853
58.1465
56.8487
55.3022
49.4871
85.6254
76.0708
71.3436
69.6948
68.6835
67.6233
66.7714
65.9761
65.2205
64.4178
63.7
62.9435
62.1275
61.3134
60.5862
59.5103
58.1792
56.9294
55.4372
50.0626
84.8515
76.3627
71.6224
69.7787
68.7232
67.6589
66.8027
65.9998
65.2381
64.4365
63.7056
62.9568
62.1357
61.3295
60.6056
59.5448
58.2351
57.0359
55.6404
50.9038
84.1225
76.6098
71.9008
69.858
68.7524
67.6917
66.8384
66.0281
65.2609
64.4621
63.7127
62.9755
62.1478
61.3522
60.6309
59.5891
58.316
57.167
55.9089
51.9731
83.4494
76.8145
72.1713
69.9344
68.7712
67.7165
66.8741
66.0576
65.2863
64.4912
63.7196
62.9972
62.163
61.3801
60.6593
59.6446
58.4174
57.3223
56.1956
53.1081
82.8386
76.9801
72.4246
70.0133
68.7824
67.7328
66.9066
66.0871
65.312
64.5216
63.7256
63.0197
62.1804
61.4107
60.687
59.7119
58.5334
57.4957
56.4924
54.221
82.2918
77.1068
72.658
70.0959
68.7883
67.7415
66.9337
66.1161
65.337
64.5507
63.7312
63.0411
62.2
61.4393
60.72
59.7855
58.6585
57.6821
56.834
55.363
81.8076
77.1969
72.8717
70.1827
68.7895
67.7438
66.9555
66.1442
65.36
64.5795
63.7359
63.0609
62.221
61.4644
60.759
59.8602
58.7909
57.8774
57.2373
56.4523
81.3827
77.2552
73.0665
70.2735
68.7866
67.7404
66.9722
66.1718
65.3803
64.6069
63.7414
63.0781
62.2431
61.4874
60.8011
59.9331
58.9275
58.088
57.6424
57.4187
81.0134
77.2875
73.2424
70.3668
68.7802
67.7325
66.9848
66.1983
65.3987
64.6319
63.7477
63.0937
62.2678
61.5087
60.8501
60.003
59.0644
58.3193
58.027
58.2219
80.6976
77.3009
73.3984
70.4584
68.773
67.7217
66.9941
66.2228
65.4156
64.6544
63.7543
63.1069
62.2969
61.5293
60.898
60.0767
59.2004
58.5563
58.4139
58.8883
80.4319
77.3039
73.5336
70.5414
68.7665
67.7117
66.9998
66.246
65.4301
64.6737
63.7625
63.117
62.3256
61.5513
60.945
60.1555
59.339
58.786
58.8075
59.4839
80.2138
77.3016
73.6456
70.6133
68.7618
67.7027
67.0027
66.2672
65.4431
64.6895
63.7722
63.1253
62.3546
61.5719
60.9992
60.2322
59.4795
59.0116
59.1892
60.0937
80.0422
77.2965
73.7344
70.6719
68.7593
67.6952
67.0029
66.2862
65.4549
64.701
63.7851
63.1314
62.3861
61.5836
61.0525
60.3149
59.6156
59.2367
59.5328
60.6936
79.915
77.2908
73.7998
70.718
68.7554
67.691
67.0003
66.3029
65.4641
64.7098
63.7965
63.1376
62.4092
61.622
61.0945
60.4042
59.745
59.4646
59.8259
61.1392
79.8322
77.2854
73.843
70.7499
68.753
67.6895
66.9968
66.316
65.4731
64.7141
63.8109
63.1391
62.4463
61.6381
61.1432
60.4954
59.8721
59.685
60.1015
61.5527
79.7924
77.2813
73.8636
70.7675
68.7498
67.6928
66.9896
66.3259
65.4816
64.7147
63.8248
63.1435
62.4708
61.6685
61.1883
60.5856
60.005
59.8858
60.3933
61.9615
79.7949
77.2791
73.8624
70.7703
68.746
67.7007
66.9823
66.3314
65.4885
64.7141
63.8404
63.1482
62.4956
61.699
61.2315
60.6749
60.1385
60.0736
60.6994
62.3563
79.8403
77.2786
73.84
70.7579
68.7417
67.7112
66.9752
66.3314
65.4936
64.7079
63.8565
63.1527
62.5256
61.7293
61.277
60.7636
60.2668
60.261
60.9679
62.7408
79.9279
77.2797
73.7953
70.7321
68.7372
67.7259
66.967
66.328
65.4966
64.6992
63.869
63.1597
62.542
61.7686
61.3155
60.8558
60.3906
60.4458
61.1821
63.0149
80.0595
77.2813
73.7281
70.6918
68.7342
67.7415
66.9592
66.3193
65.4986
64.6875
63.8831
63.1667
62.5615
61.8061
61.356
60.9446
60.5139
60.6188
61.3828
63.2982
80.2356
77.2823
73.6371
70.6385
68.7328
67.7585
66.9517
66.3061
65.4986
64.6739
63.8951
63.1758
62.5778
61.8437
61.399
61.0265
60.6421
60.7767
61.5836
63.5908
80.4577
77.2812
73.5224
70.5722
68.7341
67.7755
66.9443
66.288
65.4962
64.6591
63.9041
63.1869
62.5897
61.8846
61.44
61.1083
60.768
60.929
61.7857
63.8582
80.7275
77.2751
73.384
70.4936
68.7382
67.7914
66.9368
66.2651
65.492
64.6431
63.9117
63.199
62.5996
61.9252
61.4822
61.1883
60.8898
61.0826
61.9735
64.0694
81.0468
77.2598
73.2235
70.4041
68.745
67.8053
66.9282
66.239
65.4853
64.6262
63.9168
63.2126
62.607
61.9649
61.5268
61.2632
61.0127
61.2346
62.1382
64.2432
81.4186
77.2281
73.0425
70.3103
68.7526
67.8151
66.9185
66.2095
65.4766
64.6089
63.9195
63.2267
62.6131
62.0029
61.5722
61.3356
61.1344
61.3823
62.2972
64.3829
81.8461
77.1713
72.8418
70.2195
68.7582
67.8198
66.907
66.177
65.4658
64.5918
63.9189
63.241
62.618
62.0386
61.6191
61.4045
61.2536
61.5288
62.4596
64.4712
82.3321
77.0833
72.6221
70.1329
68.7602
67.8176
66.8926
66.1434
65.452
64.5747
63.9157
63.2553
62.6216
62.0714
61.6677
61.4679
61.3729
61.6689
62.6329
64.5273
82.8796
76.96
72.3834
70.0508
68.7578
67.8075
66.8741
66.1094
65.4356
64.557
63.9103
63.2688
62.625
62.0999
61.7168
61.5266
61.4894
61.8012
62.8164
64.5691
83.4903
76.7988
72.1263
69.9727
68.7494
67.7891
66.8507
66.0754
65.4171
64.5393
63.9025
63.2812
62.6285
62.1244
61.7629
61.5813
61.5939
61.9263
62.9781
64.6265
84.1618
76.5984
71.8542
69.8961
68.7326
67.7626
66.8231
66.0425
65.3973
64.5223
63.8938
63.2913
62.6323
62.1455
61.8027
61.6307
61.6821
62.0381
63.102
64.6444
84.8887
76.355
71.576
69.8159
68.7045
67.7285
66.7939
66.0124
65.3777
64.5077
63.8863
63.2982
62.6371
62.1628
61.8359
61.6715
61.7535
62.128
63.2
64.7047
85.6612
76.0657
71.2979
69.7304
68.6653
67.6919
66.7678
65.9882
65.3613
64.4982
63.8818
63.3029
62.643
62.1767
61.8615
61.7033
61.8068
62.1961
63.2718
64.754
86.4816
75.7332
71.0339
69.6459
68.6247
67.663
66.7506
65.9734
65.3506
64.4941
63.8805
63.306
62.6487
62.1871
61.8793
61.7257
61.8424
62.2442
63.3184
64.8006
87.4554
75.3934
70.8142
69.5793
68.5965
67.6475
66.7431
65.9675
65.3449
64.4938
63.8815
63.3074
62.6531
62.194
61.8899
61.7391
61.8628
62.2735
63.3464
64.8466
88.867
75.138
70.6705
69.5406
68.5831
67.6427
66.7413
65.9666
65.342
64.4944
63.8831
63.3072
62.6554
62.1975
61.8944
61.7447
61.871
62.2867
63.3591
64.889
90.7743
75.088
70.6295
69.5312
68.5799
67.6419
66.7409
65.9673
65.3408
64.4943
63.8847
63.3061
62.6558
62.1987
61.8951
61.7455
61.8721
62.2891
63.361
64.9272
44.9048
42.0795
40.3701
40.8597
44.0666
50.6091
59.6111
69.9577
79.9517
88.0553
94.0552
97.7935
99.1119
97.3782
94.0875
86.4676
70.4388
50.0631
37.4571
30.7477
23.7242
16.8214
12.204
9.71041
6.95808
4.95478
4.3756
4.50679
6.27411
9.62479
13.3858
17.9653
23.7409
29.5902
34.4577
39.1574
44.2455
48.95
52.8336
56.0392
58.9777
61.5003
62.9367
63.3156
63.4901
62.7222
60.3836
58.3996
56.0809
52.4518
48.9786
45.5748
41.2822
37.1263
34.0965
31.4569
29.1726
28.2695
28.5688
29.4269
31.8757
36.6136
42.5388
49.4208
57.2985
64.1725
69.0593
73.0446
76.393
78.8085
80.3373
81.4053
82.4277
83.4175
84.205
84.3821
84.1781
83.8239
83.2791
82.2338
81.4802
80.6357
78.5945
77.1351
75.9531
72.8025
68.724
65.078
60.8504
55.5743
49.9568
45.2644
42.2685
40.9419
40.4857
40.0812
40.3278
41.6816
43.6179
46.5521
51.2429
58.2912
65.9811
70.947
72.7569
72.9835
72.4702
70.7401
67.865
64.5833
60.2837
54.6598
48.4092
40.9184
32.8295
25.8237
20.7315
17.2431
15.0518
14.0713
14.6038
17.7135
23.9396
31.8816
39.2272
45.5077
52.2831
59.973
67.1804
72.5972
75.8186
77.7997
78.883
79.3615
79.4731
79.2165
78.7373
77.8288
76.6773
75.7149
74.2465
72.9063
71.2636
69.7133
68.2185
66.8553
65.8033
65.1961
64.8884
64.7322
64.745
64.3388
63.6052
62.6032
61.3206
59.9174
59.0133
58.7148
58.6575
58.9075
60.1506
61.5334
63.2059
64.9153
66.6501
68.3313
70.0678
71.5522
73.1257
74.2858
75.2099
76.3843
77.3972
78.0503
78.6114
79.228
79.488
79.6645
79.7252
79.6735
79.8099
80.1961
80.6718
81.3304
82.0015
82.452
82.8441
83.0827
83.0553
82.864
82.5063
81.8724
81.0072
79.8629
78.2062
75.9887
72.5225
67.2722
60.1855
33.0198
44.6364
42.8497
41.7437
42.7453
46.2139
52.6678
61.5079
71.4962
81.3466
89.4426
95.34
99.557
101.023
99.2738
96.2086
89.2507
73.7316
52.0918
37.9338
30.8568
24.4643
17.6123
13.3576
11.3682
8.95294
7.16711
6.87459
7.15718
8.8077
12.146
16.1041
20.5598
25.9326
31.5499
36.2449
40.5807
45.3445
49.8517
53.6728
56.8211
59.4695
61.8674
63.2815
63.4179
63.4424
62.4905
59.8716
57.5429
54.8659
50.8419
46.8871
43.1284
38.513
34.029
30.7723
27.9731
25.5574
24.602
25.0159
26.113
28.8549
33.8515
40.0531
47.4045
55.8036
63.0439
68.2206
72.4632
75.9971
78.5312
80.1234
81.2047
82.2476
83.3055
84.1568
84.3737
84.2263
83.8746
83.3283
82.3661
81.6427
80.7338
78.7258
77.3387
76.1452
73.1727
69.3895
65.8916
61.7585
56.5801
51.1087
46.4807
43.4119
41.9736
41.2562
40.537
40.5784
41.8817
43.8446
46.767
51.3596
58.2704
65.8155
70.8982
72.7255
72.999
72.3458
70.6156
67.5236
64.0712
59.7135
53.9978
47.715
40.2694
32.2006
25.1425
19.986
16.4491
14.0956
12.8568
13.1402
16.1994
22.4828
30.5253
37.8785
44.2833
51.2247
59.057
66.3902
71.9328
75.2756
77.3055
78.5171
78.9763
79.2764
79.0579
78.3476
77.5584
76.4238
75.4034
73.9156
72.4626
70.8566
69.1089
67.6684
66.1778
65.2077
64.5829
64.4181
64.2936
64.4492
64.2814
63.7501
62.9682
61.9993
60.7244
59.8337
59.6057
59.6273
59.8123
60.9311
62.2073
63.7893
65.306
66.922
68.4253
70.0022
71.4179
72.8415
73.8755
74.7277
75.8108
76.6035
77.0962
77.5329
78.0193
78.1126
78.1175
78.0044
77.8378
77.9577
78.2828
78.7927
79.6154
80.4206
81.0274
81.5463
81.8257
81.8046
81.6392
81.2739
80.5741
79.5835
78.3255
76.4579
73.9262
69.9913
63.191
55.3105
24.5537
45.0978
44.1767
43.5679
44.8988
48.6253
54.7547
63.3449
72.717
82.2996
90.202
95.8974
100.566
102.344
100.699
97.9257
92.2499
77.0381
54.4242
38.7136
31.1617
25.1363
18.4542
14.4729
13.0786
11.0915
9.5696
9.52553
9.98001
11.5487
14.8729
19.0131
23.2956
28.1411
33.4071
37.9202
41.9842
46.463
50.755
54.4944
57.6544
60.118
62.36
63.7827
63.7014
63.5369
62.3748
59.5217
56.858
53.7226
49.3365
44.8713
40.6626
35.7438
30.9686
27.474
24.5277
21.9889
20.9869
21.5006
22.8798
25.9509
31.2193
37.7264
45.5459
54.405
61.9742
67.4479
71.9327
75.6381
78.2802
79.933
81.0337
82.1002
83.2553
84.1307
84.3925
84.3067
83.9852
83.4383
82.539
81.8411
80.8899
78.9266
77.5967
76.3984
73.6296
70.1299
66.7989
62.7743
57.7201
52.4188
47.851
44.763
43.1535
42.2037
41.1699
40.9874
42.2482
44.2337
47.1376
51.6786
58.4775
65.8735
71.1043
72.8928
73.1859
72.4354
70.6577
67.4087
63.7011
59.2112
53.4327
47.1619
39.7803
31.7899
24.6626
19.397
15.778
13.2705
11.7648
11.8827
14.9517
21.3334
29.383
36.7421
43.2209
50.3177
58.285
65.6257
71.3248
74.8279
76.879
78.1677
78.7806
79.136
78.797
78.1383
77.3898
76.2911
75.0789
73.6463
72.0374
70.5182
68.5611
67.111
65.4515
64.5142
63.9291
63.7657
63.7941
63.9787
64.1092
63.7465
63.1866
62.5496
61.4214
60.5911
60.4185
60.5519
60.7227
61.6715
62.8198
64.3
65.649
67.1342
68.4884
69.9299
71.2614
72.5696
73.5024
74.3303
75.2769
75.8596
76.1791
76.4865
76.805
76.7374
76.5489
76.2414
75.9606
75.9954
76.262
76.8282
77.7798
78.7365
79.5269
80.1736
80.527
80.5722
80.3919
80.0084
79.2605
78.1924
76.8324
74.7476
71.8369
67.7886
59.1764
50.7931
22.0883
45.7428
45.7114
45.7187
47.1191
51.0445
56.7412
65.035
73.668
82.7953
90.3974
95.7458
100.676
102.734
100.936
98.2355
93.7257
79.4102
57.0204
40.2931
32.039
26.2793
19.9398
16.1378
15.0631
13.5339
12.18
12.2681
13.0025
14.6007
17.812
21.974
26.0344
30.3241
35.173
39.4927
43.3612
47.612
51.6859
55.3087
58.5099
60.8673
62.956
64.4152
64.1763
63.7961
62.37
59.2859
56.2992
52.6229
47.8688
42.9825
38.2472
33.0037
27.9616
24.2473
21.1678
18.5309
17.476
18.1037
19.7684
23.1874
28.737
35.5577
43.8465
53.1528
61.0224
66.7635
71.459
75.3252
78.072
79.7799
80.9017
81.9989
83.2357
84.1221
84.4319
84.3983
84.1338
83.5784
82.74
82.0766
81.0845
79.1733
77.8906
76.7362
74.1893
70.9458
67.7874
63.8704
58.991
53.8489
49.4
46.2406
44.4996
43.3122
41.931
41.5401
42.7857
44.8036
47.6898
52.1965
58.8959
66.1524
71.5493
73.327
73.5359
72.6858
70.8459
67.5848
63.5354
58.8554
52.9704
46.7298
39.4549
31.5582
24.3795
18.9805
15.2157
12.5478
10.8361
10.885
14.0105
20.4784
28.4866
35.8656
42.3121
49.5724
57.6934
65.0871
70.8028
74.5315
76.5792
77.9375
78.6897
78.9477
78.5947
78.1487
77.2844
76.2386
74.8137
73.4434
71.633
70.1672
68.0374
66.4825
64.6753
63.697
63.2233
62.8542
63.1807
63.3928
63.8309
63.6533
63.3265
62.9625
62.0249
61.2924
61.1521
61.3786
61.5883
62.3587
63.378
64.7315
65.9404
67.3096
68.5268
69.903
71.1297
72.3328
73.1418
73.961
74.731
75.1333
75.2749
75.4909
75.6335
75.3893
74.9403
74.4258
74.0161
73.9532
74.1655
74.8263
75.8744
76.946
77.9305
78.7664
79.2222
79.2937
79.1601
78.7552
77.957
76.7645
75.3545
73.1997
69.6865
65.8911
55.672
46.8335
22.5371
46.6002
47.2693
48.0393
49.3749
53.3696
58.591
66.427
74.4665
82.862
90.1187
94.9891
99.9853
102.089
99.894
97.0141
93.2725
80.7126
60.0405
42.8445
33.7731
28.2625
22.2752
18.3731
17.3701
16.1766
14.9335
15.1832
16.3025
17.9594
20.8898
24.8511
28.6628
32.4637
36.8851
40.9938
44.706
48.7616
52.6326
56.1421
59.3917
61.7196
63.6737
65.1657
64.8383
64.2259
62.4969
59.1432
55.8251
51.5649
46.4174
41.172
35.9436
30.3164
25.0154
21.1111
17.9343
15.2237
14.1243
14.8507
16.8105
20.5927
26.4604
33.6132
42.341
52.0533
60.1769
66.1661
71.0743
75.0904
77.9176
79.665
80.8099
81.938
83.2235
84.1283
84.491
84.4961
84.2991
83.7509
82.9718
82.3257
81.2875
79.4456
78.2228
77.1635
74.843
71.8501
68.8381
65.0681
60.3633
55.4296
51.0531
47.8657
45.9918
44.5367
42.8356
42.2486
43.4908
45.5573
48.4338
52.9283
59.5454
66.6745
72.201
74.005
74.0823
73.071
71.1559
67.9688
63.6235
58.6535
52.6606
46.4115
39.2954
31.5261
24.2844
18.7334
14.8136
11.9668
10.0507
10.1725
13.4027
19.9338
27.8869
35.1869
41.5928
48.9994
57.2682
64.7617
70.5161
74.3856
76.4168
77.7927
78.635
78.8198
78.604
78.2087
77.1872
76.186
74.5327
73.2219
71.2617
69.7354
67.5327
65.7469
63.8891
62.723
62.4046
61.7159
62.4119
62.7881
63.4799
63.5122
63.4186
63.2422
62.5242
61.9161
61.814
62.1074
62.3583
62.9758
63.9089
65.137
66.2189
67.4823
68.5675
69.9151
71.0494
72.1458
72.8224
73.6098
74.1579
74.4267
74.3834
74.4914
74.4624
74.0671
73.3257
72.5353
71.9644
71.7849
72.0102
72.7642
73.8718
75.0913
76.2685
77.2991
77.9054
78.0303
77.9231
77.4521
76.7156
75.434
73.8307
71.8519
67.5188
64.2444
52.7765
43.4126
23.4672
47.7012
48.7314
50.3499
51.5972
55.4422
60.3138
67.5055
75.0517
82.6003
89.4696
93.7912
98.4778
100.736
98.2829
95.4224
92.2546
81.8871
63.3995
46.1472
36.2991
30.8679
25.269
21.116
19.8602
18.9782
18.0086
18.3898
19.7715
21.4609
24.0144
27.607
31.1379
34.5445
38.5718
42.4351
45.9911
49.8825
53.5684
56.9924
60.3111
62.6781
64.5302
66.0187
65.6585
64.8217
62.7867
59.1432
55.4321
50.589
45.0369
39.4431
33.7787
27.7522
22.1654
18.0809
14.8605
12.1008
10.9693
11.7851
14.0483
18.211
24.3984
31.8969
41.073
51.1382
59.4603
65.6779
70.7824
74.9199
77.8149
79.5881
80.7502
81.9035
83.2151
84.1533
84.5764
84.6098
84.4837
83.9758
83.2337
82.5866
81.5121
79.7555
78.6106
77.6667
75.5741
72.816
69.9521
66.338
61.8583
57.1031
52.8235
49.615
47.5753
45.9
43.8795
43.0867
44.3538
46.5056
49.3802
53.8797
60.4647
67.4862
73.0379
74.8803
74.8399
73.6518
71.5555
68.4339
63.9213
58.589
52.5002
46.2588
39.302
31.7032
24.4066
18.6816
14.5932
11.5936
9.65075
9.79971
13.1489
19.7271
27.6099
34.6955
41.0994
48.5989
57.0552
64.4333
70.3956
74.225
76.2916
77.7821
78.6179
78.8399
78.7566
78.2573
77.1052
76.0844
74.3151
72.972
71.0069
69.2525
67.1038
64.9173
63.0126
61.3244
61.256
60.6318
61.5696
62.2385
63.1028
63.3718
63.4612
63.4286
62.968
62.4981
62.4114
62.7615
63.0547
63.5652
64.4562
65.5503
66.5037
67.6575
68.6318
69.9557
71.0299
72.0029
72.5287
73.2403
73.5604
73.719
73.5446
73.5222
73.2996
72.7154
71.6834
70.5384
69.7394
69.4485
69.721
70.6128
71.8174
73.1437
74.5309
75.8413
76.5535
76.7306
76.7616
76.2189
75.4145
74.179
72.2315
70.72
65.3153
62.6928
50.5959
40.4877
23.9158
49.1047
50.201
52.3911
53.6242
57.2065
61.8278
68.312
75.372
82.1009
88.5272
92.4497
96.7875
99.0508
96.6797
94.0961
91.481
83.1461
66.5301
49.5551
39.0162
33.6497
28.5955
24.2475
22.6305
22.1062
21.467
21.8132
23.2838
24.9823
27.1383
30.2633
33.4632
36.5349
40.2047
43.7901
47.2006
50.9881
54.5151
57.8448
61.2376
63.71
65.5245
66.9939
66.6344
65.581
63.2399
59.3122
55.1317
49.7447
43.784
37.8319
31.7453
25.3698
19.4717
15.2101
11.9699
9.20604
8.04385
8.94447
11.5038
16.0672
22.5888
30.4224
40.0232
50.3968
58.8837
65.2964
70.5832
74.8219
77.7723
79.5456
80.7164
81.8995
83.226
84.2048
84.6868
84.7536
84.7023
84.2658
83.5346
82.8802
81.793
80.1354
79.0733
78.2323
76.3481
73.8089
71.1027
67.6897
63.4436
58.8616
54.6936
51.448
49.2869
47.354
45.0362
44.0812
45.387
47.6366
50.5371
55.0457
61.6606
68.6141
74.0647
75.9458
75.8033
74.4617
72.119
68.9437
64.373
58.6596
52.4447
46.2693
39.507
32.0712
24.7652
18.8915
14.6106
11.4748
9.53755
9.80465
13.3058
19.9081
27.6052
34.4185
40.8446
48.3555
57.0609
64.2372
70.1068
74.0302
76.2322
77.8641
78.6745
78.9713
78.9357
78.3046
77.0624
75.9706
74.2508
72.7161
70.8352
68.7733
66.7108
63.7482
61.7721
59.8092
59.9194
59.7261
60.7191
61.6938
62.6796
63.1883
63.4116
63.5316
63.3553
63.0181
62.9646
63.3734
63.6984
64.1313
65.0105
65.9708
66.8084
67.8346
68.694
69.9763
70.9965
71.9064
72.2756
72.8919
72.9473
73.0031
72.705
72.5835
72.1812
71.3336
69.9313
68.3921
67.3203
66.901
67.3066
68.3703
69.7097
71.2044
72.776
74.3203
75.2489
75.4617
75.5808
74.9878
74.1467
73.15
70.5068
69.7962
63.2238
60.8852
48.9109
37.9357
24.0852
51.0353
51.9446
54.1555
55.4076
58.6481
63.0857
68.9311
75.4655
81.5123
87.4386
91.1318
94.9888
97.2482
95.252
92.9696
90.6934
83.7511
68.8624
52.5569
41.6537
36.4867
32.1021
27.8467
25.9025
25.5382
25.1608
25.4128
26.8022
28.4084
30.1645
32.7943
35.6575
38.4253
41.7651
45.0939
48.3648
52.0661
55.4769
58.7382
62.195
64.8225
66.6643
68.1066
67.7804
66.5319
63.8807
59.6077
54.883
49.0005
42.7149
36.3478
29.8618
23.1827
16.9896
12.5465
9.29866
6.56289
5.39234
6.3652
9.23359
14.2038
21.066
29.2481
39.2398
49.8737
58.4744
65.0436
70.5032
74.8119
77.7843
79.5403
80.7198
81.9287
83.2597
84.2822
84.8172
84.9374
84.9564
84.6087
83.8826
83.2203
82.1457
80.5972
79.5983
78.8235
77.1253
74.8003
72.2893
69.1011
65.0837
60.6895
56.62
53.4009
51.0784
48.8927
46.3504
45.237
46.5894
48.9519
51.9066
56.4319
63.1026
70.0348
75.3127
77.2202
76.978
75.4662
72.9577
69.5985
65.0057
58.899
52.5376
46.4303
39.8873
32.638
25.3794
19.3746
14.9135
11.6911
9.79144
10.2334
13.9077
20.4716
27.8075
34.3865
40.8052
48.2962
57.198
64.48
69.809
74.0239
76.2499
77.9702
78.8601
79.1984
79.0894
78.3557
77.0699
75.9019
74.2848
72.5348
70.7713
68.2585
65.9179
62.0997
60.4597
58.8126
58.7036
58.8738
59.8255
61.075
62.2173
62.9743
63.3045
63.5602
63.6735
63.4691
63.4763
63.9194
64.2862
64.6697
65.542
66.3497
67.1201
68.0235
68.8076
69.9928
70.9188
71.7718
72.0482
72.5655
72.3469
72.3414
71.8827
71.6681
71.0838
70.0071
68.0725
66.0645
64.675
64.1549
64.7626
66.1147
67.5891
69.1665
71.0659
72.8138
73.8815
74.243
74.4152
73.9333
72.7458
72.3164
68.6938
68.69
61.3344
58.8453
47.6327
35.7391
24.1258
53.3318
54.0858
55.7806
56.9652
59.8693
64.0985
69.3732
75.3604
80.8794
86.3506
89.8817
93.3244
95.4432
93.8475
91.8045
89.5208
83.386
70.4781
55.4178
44.5521
39.4848
35.9558
31.9264
29.6467
29.1979
28.9753
29.0861
30.2113
31.6148
33.0572
35.2324
37.7356
40.2353
43.2778
46.3565
49.4874
53.1032
56.4242
59.6544
63.1775
66.0058
67.9547
69.3781
69.0847
67.6425
64.6753
59.9954
54.6572
48.3652
41.8341
35.048
28.163
21.2086
14.7755
10.1451
6.88671
4.19489
3.04462
4.09192
7.28033
12.6388
19.8128
28.3573
38.734
49.572
58.2377
64.9314
70.5308
74.8843
77.8453
79.5752
80.7647
81.9889
83.3212
84.3861
84.9641
85.1525
85.2278
84.9703
84.2588
83.5841
82.5511
81.1129
80.1546
79.4081
77.875
75.7905
73.4945
70.5298
66.7623
62.5436
58.6226
55.4193
52.954
50.5499
47.7966
46.5781
47.9906
50.469
53.475
58.0349
64.7448
71.6923
76.7682
78.7151
78.3654
76.626
74.0298
70.4904
65.8325
59.4464
52.8739
46.7497
40.4214
33.3821
26.2548
20.1725
15.514
12.2646
10.5175
11.1479
14.932
21.3106
28.2501
34.5952
40.9197
48.4643
57.3978
64.9832
69.9776
74.28
76.3044
78.227
79.0677
79.5462
79.246
78.4637
77.2093
75.9806
74.4538
72.5595
70.7646
67.4589
64.5495
60.659
59.4589
58.1505
57.5976
58.0038
58.9705
60.4237
61.793
62.8042
63.2371
63.5776
63.9443
63.8941
63.9679
64.4067
64.8274
65.1839
66.0475
66.6885
67.4486
68.2516
69.0052
70.0493
70.8747
71.5896
71.8419
72.232
71.769
71.7074
71.1059
70.7999
70.0142
68.7247
66.2081
63.5965
61.6748
61.2043
62.1508
63.7008
65.3777
67.2109
69.3985
71.2302
72.5896
73.1113
73.112
73.1027
71.2341
71.559
66.9465
67.3228
59.6778
56.1316
46.5979
34.4356
24.6183
55.3793
56.0353
57.2169
58.3055
60.9213
64.906
69.6703
75.128
80.2001
85.267
88.6176
91.6692
93.628
92.3569
90.4712
88.0936
82.5759
71.8066
58.4692
47.9201
42.707
39.7583
36.2883
33.7476
33.0074
32.7359
32.6303
33.4235
34.6128
35.8138
37.5864
39.7025
41.9362
44.7313
47.5769
50.5358
54.0616
57.3384
60.5624
64.1719
67.2341
69.3455
70.77
70.5087
68.8895
65.611
60.4665
54.5221
47.9386
41.1589
33.9667
26.6683
19.4737
12.8373
8.0535
4.77983
2.14328
1.0072
2.1797
5.68925
11.4285
18.8884
27.7733
38.5
49.4652
58.1513
64.9487
70.6648
75.0436
77.9632
79.6577
80.8549
82.0888
83.4145
84.5043
85.1173
85.3724
85.4899
85.3084
84.6302
83.9488
82.9726
81.6442
80.7259
79.9824
78.5957
76.7688
74.6794
71.9558
68.4343
64.4229
60.6478
57.4975
54.9248
52.2937
49.4403
48.1633
49.6026
52.1953
55.2466
59.8526
66.5768
73.5179
78.3903
80.3698
79.9505
77.9409
75.1961
71.5302
66.8234
60.3428
53.5504
47.1991
41.0604
34.2892
27.3294
21.2613
16.4801
13.2375
11.6601
12.5279
16.3549
22.407
28.9391
34.9632
41.2101
48.8837
57.7493
65.4936
70.5846
74.6876
76.5497
78.613
79.27
80.0115
79.4713
78.6688
77.5556
76.2189
74.7178
72.635
70.4631
66.5133
63.3026
59.9303
58.5233
57.3609
56.5335
57.0896
58.1815
59.7942
61.3957
62.6558
63.2168
63.6143
64.1873
64.3148
64.4448
64.8503
65.343
65.7095
66.5193
66.9833
67.7879
68.5419
69.2686
70.1508
70.8812
71.396
71.6696
71.9055
71.2321
71.1065
70.3472
70.0274
68.9881
67.5056
64.2716
61.0532
58.4512
58.0647
59.4134
61.277
63.1165
65.2151
67.7894
69.7224
71.2886
72.133
71.6804
72.4516
69.6696
70.6916
65.1562
65.5464
58.518
52.9316
45.588
34.1497
25.7866
57.1901
57.6854
58.501
59.4507
61.7812
65.5446
69.8866
74.8524
79.5179
84.1545
87.3012
89.7728
91.6717
90.715
88.9491
86.5759
81.6636
72.8452
61.5925
51.7937
46.3338
43.6154
40.6243
37.9015
36.7408
36.2755
35.9918
36.491
37.4352
38.4105
39.8518
41.6016
43.5506
46.0938
48.7249
51.5258
54.9521
58.2215
61.4702
65.1736
68.4879
70.8106
72.2656
72.0213
70.2406
66.6472
61.0156
54.5391
47.7687
40.7339
33.0757
25.3841
17.9745
11.1872
6.28295
3.00904
0.44318
-0.690475
0.684339
4.4994
10.5659
18.313
27.5536
38.5712
49.5704
58.224
65.1045
70.9122
75.2976
78.1478
79.7891
80.9867
82.2247
83.5351
84.6286
85.2729
85.5797
85.7297
85.6056
84.9774
84.2921
83.3785
82.1842
81.3171
80.5732
79.3179
77.7306
75.8421
73.3555
70.0973
66.2932
62.686
59.6384
56.9637
54.1796
51.2722
49.9971
51.4487
54.1314
57.23
61.8584
68.5974
75.4575
80.1363
82.1005
81.6503
79.4382
76.3948
72.5828
67.8799
61.3878
54.5298
47.7691
41.716
35.3135
28.5989
22.5768
17.7886
14.6298
13.2675
14.3107
18.0606
23.7372
29.8023
35.477
41.7255
49.51
58.3891
66.1763
71.3602
75.1925
77.1671
78.9821
79.704
80.4909
79.8112
78.9826
77.9942
76.4427
74.8947
72.4819
69.7912
65.9548
62.6481
59.5769
57.5722
56.448
55.5806
56.2739
57.5026
59.2366
61.0065
62.5131
63.2424
63.6959
64.4067
64.7097
64.9124
65.2849
65.8199
66.2135
66.9604
67.274
68.1211
68.8585
69.542
70.2846
70.9651
71.233
71.559
71.5899
70.747
70.5439
69.586
69.3709
68.098
66.4667
62.3472
58.6224
55.2907
54.9989
56.6477
58.6887
60.9288
63.36
66.1011
68.3708
69.8844
71.3449
70.1936
71.7411
67.9811
69.6711
63.95
62.6949
57.2659
50.5367
44.964
34.9315
27.5309
58.7283
59.1342
59.7034
60.5044
62.516
66.0311
70.0264
74.5834
78.8821
83.0069
85.9246
87.9042
89.6833
89.0393
87.3914
85.2038
80.831
73.6505
64.6144
55.8761
50.1572
47.2771
44.5208
41.7313
40.2367
39.6246
39.225
39.4279
40.0877
40.8755
42.0546
43.4542
45.0751
47.3368
49.771
52.4603
55.8006
59.0411
62.3386
66.1674
69.7653
72.3414
73.8464
73.5927
71.6696
67.6795
61.5613
54.6709
47.8125
40.4997
32.352
24.318
16.708
9.83283
4.85346
1.58688
-0.869096
-1.87615
-0.349594
3.76806
10.0977
18.0724
27.6657
38.9287
49.8897
58.4744
65.4026
71.2694
75.6449
78.3855
79.967
81.1711
82.4041
83.6832
84.7551
85.4287
85.7675
85.9497
85.8735
85.2927
84.605
83.7781
82.7439
81.9311
81.2047
80.0752
78.7001
76.9833
74.7305
71.7258
68.132
64.7353
61.8034
59.0992
56.2004
53.3199
52.1288
53.5513
56.2521
59.4058
64.041
70.7785
77.5067
81.9532
83.8691
83.3824
81.081
77.6588
73.6375
68.9106
62.4008
55.6274
48.4183
42.3766
36.3778
30.0039
24.1484
19.424
16.386
15.2552
16.4154
19.9887
25.2336
30.8006
36.1559
42.4654
50.3124
59.1698
67.0996
72.1947
75.7827
78.0341
79.4012
80.4267
80.8588
80.3118
79.4019
78.3944
76.6375
74.9673
72.2354
69.331
65.9648
62.3093
59.182
56.77
55.5362
54.7708
55.569
56.9932
58.8146
60.6909
62.4229
63.3248
63.8394
64.6062
65.075
65.3679
65.73
66.2595
66.6784
67.3769
67.6031
68.4472
69.1978
69.8385
70.4363
71.1074
71.1311
71.5384
71.327
70.3915
69.9699
68.8977
68.7068
67.4691
65.5875
60.6087
56.6073
52.1792
52.0244
53.9544
56.2731
58.8624
61.5264
64.5298
67.2493
68.4354
70.6013
68.5847
70.9475
66.6424
67.964
63.3629
60.0273
55.8425
49.1603
44.9462
36.3998
29.4821
60.0001
60.4003
60.8257
61.5129
63.2137
66.4541
70.1096
74.2427
78.2129
81.9375
84.7176
86.4891
87.9909
87.6139
86.1927
84.3039
80.3883
74.4541
67.1946
59.3794
53.5177
50.4148
47.8679
45.2202
43.5802
42.8441
42.3199
42.2256
42.5821
43.2016
44.1572
45.2243
46.514
48.4898
50.7338
53.3018
56.5644
59.7855
63.1324
67.1011
71.002
73.88
75.4721
75.2051
73.1148
68.6359
61.9883
54.8674
47.9901
40.3783
31.7828
23.4651
15.7069
8.77695
3.7795
0.532207
-1.7838
-2.59983
-0.885287
3.48518
10.0412
18.2221
28.1358
39.5469
50.395
58.8899
65.8327
71.7319
76.0604
78.6681
80.1953
81.3938
82.6037
83.8393
84.8822
85.585
85.9424
86.1636
86.1244
85.5676
84.9071
84.2072
83.3259
82.5562
81.8781
80.8821
79.6783
78.0978
76.06
73.2933
69.936
66.7665
64.0129
61.3061
58.3631
55.6228
54.5475
55.8936
58.5597
61.7516
66.3845
73.0814
79.6514
83.8224
85.6691
85.1524
82.7592
79.0493
74.7889
70.0349
63.4662
56.7093
49.1002
42.9975
37.4845
31.4761
25.9077
21.3581
18.4969
17.5257
18.7246
22.0862
26.8484
31.9496
36.9549
43.4743
51.4105
59.9648
67.987
72.9416
76.4882
78.8198
79.9747
81.1922
81.1915
80.9883
79.9453
78.7869
76.8997
75.0648
72.3099
69.4878
66.159
61.9407
58.6323
56.1146
54.7259
54.1238
54.9958
56.628
58.5162
60.4727
62.393
63.4466
64.045
64.805
65.418
65.816
66.191
66.6639
67.103
67.7768
67.9795
68.7644
69.5056
70.1339
70.6063
71.2663
71.0977
71.5575
71.1365
70.1612
69.4675
68.2832
68.0999
67.009
64.8497
59.1689
54.9672
49.3631
49.497
51.3083
53.8976
56.9558
60.1131
62.9501
66.2725
66.9096
69.8528
66.9169
69.8517
66.273
65.5674
62.306
58.3127
54.9927
49.0294
45.7525
38.235
31.3894
60.9448
61.4436
61.8233
62.4815
63.9291
66.8438
70.1801
73.9213
77.5994
80.9926
83.6782
85.4278
86.7235
86.5581
85.3468
83.6915
80.1832
75.0248
68.8797
61.9891
56.4574
53.3048
50.8835
48.4146
46.7539
45.9127
45.2325
44.895
44.9781
45.3853
46.1377
46.9252
47.899
49.5736
51.6046
54.0416
57.2108
60.43
63.827
67.9409
72.1518
75.3412
77.0444
76.8083
74.5069
69.4798
62.3313
55.1523
48.273
40.347
31.3725
22.8622
15.0027
8.04234
3.06275
-0.138972
-2.27997
-2.86095
-0.912153
3.65005
10.3561
18.7521
28.9652
40.4093
51.0709
59.439
66.3679
72.2903
76.5255
78.9982
80.4584
81.6398
82.8262
84.0096
85.0212
85.7387
86.1125
86.3714
86.3438
85.793
85.2146
84.6781
83.9238
83.1918
82.5824
81.7119
80.6361
79.1722
77.3245
74.7933
71.6815
68.7954
66.2457
63.5891
60.7042
58.1287
57.2364
58.482
61.0387
64.2481
68.8673
75.4654
81.8396
85.7148
87.4833
86.9818
84.3922
80.5763
76.1857
71.3906
64.8793
57.8468
49.8318
43.5674
38.5705
32.9769
27.7777
23.4817
20.8205
19.9863
21.1526
24.2427
28.5014
33.1787
37.8835
44.6582
52.8097
60.9863
68.8327
73.663
77.2853
79.4463
80.7061
81.8849
81.7093
81.8298
80.5712
79.068
77.2291
75.4122
72.8468
69.8867
66.1226
61.4833
58.0272
55.5943
54.1402
53.6542
54.5766
56.3625
58.3296
60.3531
62.4103
63.5947
64.2987
65.047
65.7593
66.2566
66.6532
67.0516
67.5042
68.1762
68.3705
69.0711
69.7748
70.3944
70.7975
71.3955
71.1167
71.6157
70.9576
70.0208
68.9916
67.7379
67.5013
66.6468
64.2796
58.1779
53.8894
46.5042
47.4396
48.6605
51.8797
54.9218
58.7499
61.5466
65.3135
64.8019
69.3482
66.2841
68.1637
65.8443
63.5026
60.9039
57.3447
55.0462
50.1104
47.2216
40.1994
33.261
61.65
62.2586
62.6694
63.3431
64.6242
67.2458
70.2905
73.6518
77.0788
80.1876
82.7313
84.4263
85.638
85.6227
84.5677
83.0352
79.8918
75.3333
70.0207
64.161
59.1953
55.9812
53.6045
51.3801
49.7665
48.7605
47.9349
47.4614
47.3162
47.4504
47.9897
48.5588
49.223
50.5773
52.3979
54.6967
57.7228
60.9174
64.3856
68.6359
73.1373
76.6694
78.5289
78.3337
75.7964
70.2138
62.7007
55.5771
48.6718
40.395
31.1585
22.5515
14.6216
7.65717
2.71332
-0.426915
-2.35674
-2.65465
-0.463406
4.27449
11.0647
19.6499
30.1189
41.504
51.9071
60.0971
67.0081
72.9426
77.0336
79.3637
80.7588
81.9253
83.0716
84.1908
85.1662
85.8758
86.2679
86.5467
86.4912
85.9576
85.5323
85.1925
84.5365
83.8345
83.2898
82.5298
81.5515
80.2031
78.5342
76.2182
73.3886
70.8179
68.5033