/*--------------------------------*- C++ -*----------------------------------*\
| =========                 |                                                 |
| \\      /  F ield         | OpenFOAM: The Open Source CFD Toolbox           |
|  \\    /   O peration     | Version:  2.4.0                                 |
|   \\  /    A nd           | Web:      www.OpenFOAM.org                      |
|    \\/     M anipulation  |                                                 |
\*---------------------------------------------------------------------------*/
FoamFile
{
    version     2.0;
    format      ascii;
    class       volScalarField;
    location    "0.008";
    object      epsilon;
}
// * * * * * * * * * * * * * * * * * * * * * * * * * * * * * * * * * * * * * //

dimensions      [0 2 -3 0 0 0 0];

internalField   nonuniform List<scalar> 
17600
(
290.779
447.673
583.297
681.436
740.84
768.08
772.005
760.736
740.584
715.996
689.911
664.172
639.874
617.62
597.696
580.184
565.028
552.086
540.986
533.369
39.5489
60.6407
78.3965
92.3358
102.281
108.918
113.256
116.234
118.59
120.844
123.336
126.262
129.711
133.688
138.133
142.937
147.959
153.048
158.252
164.282
18.0559
21.7883
25.1119
27.7892
29.7361
31.0342
31.8556
32.3923
32.819
33.2793
33.8838
34.7144
35.8291
37.2668
39.0501
41.1867
43.6704
46.4875
49.6805
53.6023
14.7345
15.1157
15.6206
16.0697
16.3751
16.5162
16.5138
16.4078
16.2435
16.0646
15.9097
15.8114
15.7964
15.887
16.1013
16.4547
16.9606
17.6331
18.5067
19.6782
14.0476
13.5192
13.1673
12.9029
12.6639
12.4158
12.1455
11.8534
11.5469
11.2367
10.9344
10.6512
10.397
10.1805
10.0092
9.88981
9.82837
9.83156
9.91188
10.0895
13.8917
13.0886
12.4266
11.871
11.3882
10.9523
10.546
10.1595
9.78829
9.43134
9.08963
8.7652
8.46053
8.17817
7.92053
7.68981
7.48811
7.31771
7.18247
7.08627
13.8556
12.9703
12.1959
11.5177
10.9188
10.383
9.89683
9.44995
9.03502
8.64707
8.28297
7.94085
7.61968
7.31899
7.0386
6.77857
6.53906
6.32041
6.12352
5.94897
13.8471
12.9381
12.1251
11.3979
10.7463
10.1596
9.62813
9.14338
8.6983
8.28727
7.90588
7.55078
7.21941
6.90981
6.62051
6.35038
6.09854
5.86435
5.64749
5.4477
13.845
12.9294
12.1037
11.3584
10.6846
10.074
9.519
9.01257
8.54858
8.12176
7.72764
7.36246
7.02315
6.70716
6.41238
6.13707
5.87981
5.63941
5.41495
5.2059
13.8445
12.9269
12.0973
11.3456
10.6631
10.0423
9.47608
8.95842
8.4838
8.04736
7.64487
7.27263
6.92748
6.60668
6.30789
6.02913
5.76868
5.52507
5.29711
5.0841
13.8443
12.9262
12.0953
11.3414
10.6557
10.0307
9.45967
8.93671
8.45667
8.01497
7.60758
7.23094
6.88193
6.55782
6.25622
5.97505
5.71247
5.46691
5.23702
5.02204
13.8443
12.9259
12.0946
11.3399
10.6531
10.0265
9.45346
8.92818
8.44561
8.00128
7.5913
7.21219
6.8609
6.53475
6.23134
5.94859
5.68463
5.43783
5.20678
4.99072
13.8442
12.9257
12.0942
11.3393
10.6521
10.0249
9.45103
8.92479
8.4411
7.99557
7.58433
7.20396
6.85145
6.52416
6.2197
5.93601
5.67121
5.42367
5.19194
4.97526
13.8442
12.9256
12.094
11.3389
10.6515
10.0241
9.44996
8.92333
8.43919
7.99314
7.58132
7.20036
6.84726
6.51938
6.21438
5.93018
5.66492
5.41696
5.18486
4.96785
13.8441
12.9255
12.0938
11.3387
10.6512
10.0237
9.4494
8.92262
8.43829
7.99201
7.57996
7.19873
6.84536
6.51721
6.21195
5.9275
5.66201
5.41385
5.18157
4.9644
13.8441
12.9254
12.0937
11.3385
10.651
10.0234
9.44905
8.9222
8.43778
7.99142
7.57926
7.19793
6.84444
6.51617
6.2108
5.92624
5.66066
5.41241
5.18004
4.96281
13.8441
12.9254
12.0936
11.3384
10.6508
10.0232
9.44881
8.92192
8.43746
7.99106
7.57886
7.19748
6.84395
6.51563
6.21021
5.92561
5.65999
5.41171
5.17932
4.96206
13.8441
12.9253
12.0935
11.3383
10.6507
10.023
9.44863
8.92172
8.43725
7.99083
7.57861
7.19721
6.84366
6.51533
6.20989
5.92527
5.65965
5.41136
5.17896
4.9617
13.8441
12.9253
12.0935
11.3382
10.6506
10.0229
9.44852
8.9216
8.43712
7.99068
7.57845
7.19704
6.84349
6.51515
6.20971
5.92509
5.65946
5.41117
5.17878
4.96151
13.8441
12.9253
12.0934
11.3382
10.6506
10.0229
9.44847
8.92154
8.43705
7.99061
7.57838
7.19697
6.84341
6.51507
6.20962
5.92501
5.65938
5.41109
5.17869
4.96142
13.8441
12.9253
12.0934
11.3382
10.6506
10.0229
9.44847
8.92154
8.43705
7.99061
7.57838
7.19697
6.84341
6.51507
6.20962
5.92501
5.65938
5.41109
5.17869
4.9614
13.8441
12.9253
12.0935
11.3382
10.6506
10.0229
9.44852
8.9216
8.43712
7.99068
7.57845
7.19704
6.84349
6.51515
6.20971
5.92509
5.65946
5.41117
5.17876
4.96146
13.8441
12.9253
12.0935
11.3383
10.6507
10.023
9.44863
8.92172
8.43725
7.99083
7.57861
7.19721
6.84366
6.51533
6.20989
5.92528
5.65965
5.41135
5.17893
4.96161
13.8441
12.9254
12.0936
11.3384
10.6508
10.0232
9.44881
8.92192
8.43746
7.99106
7.57886
7.19748
6.84395
6.51563
6.21021
5.92561
5.65999
5.4117
5.17928
4.96195
13.8441
12.9254
12.0937
11.3385
10.651
10.0234
9.44905
8.9222
8.43778
7.99142
7.57926
7.19793
6.84444
6.51618
6.2108
5.92624
5.66066
5.41239
5.17999
4.96266
13.8441
12.9255
12.0938
11.3387
10.6512
10.0237
9.4494
8.92262
8.43829
7.99201
7.57996
7.19873
6.84536
6.51721
6.21195
5.9275
5.66201
5.41384
5.1815
4.96423
13.8442
12.9256
12.094
11.3389
10.6515
10.0241
9.44996
8.92334
8.43919
7.99314
7.58132
7.20036
6.84726
6.51938
6.21438
5.93018
5.66492
5.41694
5.18479
4.96766
13.8442
12.9257
12.0942
11.3393
10.6521
10.0249
9.45103
8.92479
8.4411
7.99557
7.58433
7.20396
6.85146
6.52416
6.21971
5.93601
5.67121
5.42365
5.19185
4.97504
13.8443
12.9259
12.0946
11.3399
10.6531
10.0265
9.45346
8.92818
8.44561
8.00128
7.5913
7.21219
6.8609
6.53475
6.23134
5.94859
5.68462
5.4378
5.20667
4.99044
13.8443
12.9262
12.0953
11.3414
10.6557
10.0307
9.45967
8.93671
8.45667
8.01497
7.60758
7.23094
6.88193
6.55782
6.25622
5.97504
5.71246
5.46686
5.23685
5.02165
13.8445
12.9269
12.0973
11.3456
10.6631
10.0423
9.47608
8.95842
8.4838
8.04736
7.64487
7.27263
6.92747
6.60667
6.30789
6.02912
5.76865
5.52498
5.29682
5.08342
13.845
12.9294
12.1037
11.3584
10.6846
10.074
9.519
9.01257
8.54858
8.12177
7.72764
7.36246
7.02315
6.70715
6.41237
6.13705
5.87975
5.63922
5.41437
5.2045
13.8471
12.9381
12.1251
11.3979
10.7463
10.1596
9.62813
9.14338
8.6983
8.28727
7.90588
7.55078
7.2194
6.9098
6.62049
6.35033
6.09841
5.86396
5.64622
5.44441
13.8556
12.9703
12.1959
11.5177
10.9188
10.383
9.89683
9.44995
9.03502
8.64707
8.28297
7.94085
7.61967
7.31897
7.03856
6.77847
6.53878
6.31955
6.12052
5.94028
13.8917
13.0886
12.4266
11.871
11.3882
10.9523
10.546
10.1595
9.78829
9.43134
9.08962
8.76519
8.46051
8.17813
7.92044
7.68959
7.4875
7.31566
7.17465
7.06055
14.0476
13.5192
13.1673
12.9029
12.6639
12.4158
12.1455
11.8534
11.5469
11.2367
10.9344
10.6512
10.397
10.1804
10.009
9.8893
9.82687
9.82625
9.88941
10.0037
14.7345
15.1157
15.6206
16.0697
16.3751
16.5162
16.5138
16.4078
16.2435
16.0646
15.9097
15.8113
15.7963
15.8867
16.1008
16.4534
16.9567
17.6189
18.4399
19.378
18.0559
21.7883
25.1119
27.7892
29.7361
31.0342
31.8556
32.3923
32.819
33.2793
33.8837
34.7142
35.8288
37.2663
39.049
41.1839
43.6623
46.4571
49.5155
52.723
39.5489
60.6407
78.3965
92.3358
102.281
108.918
113.256
116.234
118.59
120.844
123.336
126.262
129.711
133.687
138.132
142.934
147.951
153.018
157.96
162.657
290.779
447.673
583.297
681.436
740.84
768.08
772.005
760.737
740.584
715.996
689.912
664.173
639.876
617.624
597.703
580.197
565.057
552.147
541.32
532.07
670.509
778.883
849.144
891.366
910.306
910.326
896.71
874.326
847.053
817.799
788.509
760.312
733.745
708.971
685.968
664.632
644.823
626.394
609.213
593.165
578.149
564.082
550.889
538.498
526.845
515.871
505.524
495.758
486.532
477.808
469.548
461.72
454.291
447.233
440.515
434.112
427.999
422.152
416.55
411.172
405.999
401.013
396.199
391.539
387.021
382.632
378.358
374.189
370.113
366.121
362.204
358.353
354.56
350.82
347.125
343.469
339.849
336.258
332.695
329.154
325.633
322.13
318.641
315.167
311.704
308.251
304.808
301.373
297.945
294.524
291.108
287.697
284.29
280.887
277.486
274.086
270.688
267.289
263.89
260.489
257.086
253.679
250.268
246.853
243.432
240.005
236.573
233.134
229.688
226.236
222.778
219.314
215.845
212.372
208.895
205.416
201.936
198.457
194.981
191.508
188.042
184.584
181.137
177.704
174.285
170.885
167.506
164.15
160.821
157.52
154.252
151.018
147.821
144.665
141.552
138.485
135.467
132.5
129.587
126.731
123.935
121.2
118.53
115.927
113.393
110.932
108.544
106.233
104
101.848
99.7785
97.7939
95.8959
94.0864
92.3672
90.7402
89.2073
87.7706
86.4326
85.1957
84.0629
83.0376
82.1235
81.3244
80.6439
80.0852
79.6506
79.3411
79.1558
79.0921
79.1451
79.3079
79.572
79.9272
80.3626
80.8666
81.4277
82.0347
82.6772
83.3462
84.0338
84.7336
85.4408
86.1523
86.8676
87.5865
88.3096
89.0391
89.7789
90.5343
91.3124
92.1219
92.9733
93.8793
94.8547
95.9173
97.088
98.3922
99.8608
101.532
103.453
105.685
108.308
111.426
115.181
119.767
125.449
132.599
141.733
153.573
169.129
189.82
217.684
255.76
308.923
386.006
506.065
722.811
1242.41
2820.22
173.051
189.442
213.087
243.503
279.242
318.394
358.66
397.676
433.3
463.898
488.512
506.881
519.334
526.603
529.623
529.354
526.661
522.25
516.657
510.269
503.358
496.116
488.684
481.169
473.652
466.199
458.857
451.663
444.644
437.816
431.189
424.765
418.547
412.53
406.712
401.085
395.642
390.375
385.276
380.334
375.542
370.89
366.368
361.968
357.682
353.502
349.419
345.428
341.52
337.689
333.929
330.235
326.601
323.022
319.493
316.012
312.573
309.174
305.811
302.482
299.185
295.917
292.676
289.46
286.268
283.098
279.948
276.818
273.706
270.61
267.529
264.462
261.407
258.362
255.327
252.299
249.278
246.26
243.246
240.232
237.218
234.202
231.182
228.158
225.127
222.089
219.043
215.988
212.923
209.848
206.763
203.667
200.561
197.446
194.322
191.189
188.05
184.905
181.757
178.606
175.454
172.305
169.159
166.02
162.889
159.771
156.666
153.578
150.51
147.464
144.444
141.453
138.493
135.567
132.678
129.83
127.025
124.266
121.556
118.898
116.294
113.748
111.262
108.838
106.48
104.19
101.971
99.8245
97.7539
95.7613
93.8489
92.0191
90.274
88.6157
87.0461
85.5672
84.1807
82.8884
81.6923
80.5942
79.5962
78.7007
77.9105
77.2283
76.6573
76.2004
75.8601
75.638
75.5345
75.5484
75.6764
75.9134
76.2523
76.6844
77.1996
77.7873
78.436
79.1349
79.8733
80.6416
81.4316
82.2364
83.0506
83.8701
84.6949
85.5237
86.3569
87.1961
88.045
88.9085
89.7937
90.709
91.6651
92.6746
93.7527
94.9171
96.1895
97.5954
99.1662
100.941
102.967
105.307
108.042
111.277
115.157
119.878
125.712
133.039
142.392
154.519
170.474
191.75
220.501
259.953
315.279
395.832
521.213
744.597
1220.93
2363.86
54.8831
56.6555
59.2015
62.8606
68.2464
75.7206
85.6035
98.0991
113.303
131.119
151.23
173.105
196.035
219.206
241.787
263.023
282.311
299.246
313.632
325.465
334.888
342.14
347.507
351.281
353.731
355.094
355.565
355.304
354.443
353.09
351.334
349.251
346.907
344.356
341.644
338.809
335.881
332.886
329.843
326.769
323.676
320.575
317.474
314.379
311.296
308.23
305.182
302.155
299.151
296.171
293.215
290.284
287.378
284.496
281.639
278.806
275.997
273.211
270.449
267.709
264.991
262.294
259.619
256.964
254.328
251.711
249.113
246.532
243.966
241.416
238.879
236.355
233.842
231.337
228.841
226.349
223.862
221.376
218.89
216.402
213.909
211.41
208.904
206.387
203.859
201.318
198.762
196.19
193.603
190.997
188.374
185.733
183.073
180.396
177.701
174.99
172.262
169.521
166.766
164.001
161.226
158.444
155.656
152.867
150.077
147.29
144.508
141.735
138.973
136.226
133.495
130.786
128.1
125.44
122.811
120.214
117.654
115.133
112.654
110.22
107.834
105.5
103.22
100.997
98.8335
96.7333
94.6989
92.7329
90.8383
89.0176
87.2736
85.6089
84.026
82.5274
81.1153
79.7921
78.5597
77.4199
76.3746
75.4254
74.5738
73.8213
73.1698
72.621
72.1771
71.8401
71.6121
71.4949
71.4893
71.5951
71.8105
72.1319
72.5538
73.0692
73.6692
74.344
75.0831
75.8757
76.7113
77.5802
78.4737
79.3843
80.3062
81.2349
82.17
83.1099
84.0542
85.0043
85.9633
86.936
87.9289
88.9506
90.0116
91.1246
92.3048
93.5702
94.9425
96.4476
98.1174
99.9909
102.117
104.558
107.395
110.736
114.725
119.561
125.518
132.983
142.497
154.828
171.058
192.728
222.065
262.395
319.008
401.302
528.074
746.46
1162.92
1975.86
20.0156
20.3695
20.761
21.2228
21.8183
22.6192
23.7167
25.2474
27.3358
30.1191
33.756
38.4111
44.2406
51.3733
59.8904
69.8046
81.0454
93.4529
106.782
120.719
134.906
148.977
162.586
175.437
187.306
198.045
207.584
215.92
223.098
229.199
234.319
238.563
242.031
244.816
247
248.657
249.85
250.636
251.066
251.184
251.03
250.638
250.04
249.262
248.33
247.263
246.08
244.796
243.425
241.98
240.47
238.905
237.293
235.642
233.958
232.246
230.512
228.759
226.991
225.213
223.426
221.633
219.836
218.037
216.238
214.439
212.641
210.844
209.05
207.257
205.466
203.675
201.884
200.091
198.296
196.496
194.691
192.878
191.055
189.221
187.373
185.51
183.629
181.728
179.807
177.862
175.893
173.898
171.877
169.827
167.749
165.642
163.506
161.341
159.147
156.926
154.678
152.404
150.106
147.786
145.445
143.086
140.711
138.323
135.924
133.517
131.105
128.691
126.278
123.87
121.469
119.079
116.704
114.346
112.009
109.696
107.41
105.155
102.935
100.751
98.6083
96.5091
94.4569
92.4547
90.5056
88.6129
86.7795
85.0086
83.3033
81.6666
80.1015
78.6111
77.1984
75.8662
74.6175
73.4549
72.381
71.398
70.5081
69.7131
69.0144
68.4132
67.9108
67.508
67.2058
67.0053
66.9075
66.9135
67.0241
67.2393
67.558
67.978
68.4952
69.1039
69.7968
70.5653
71.3996
72.2897
73.2254
74.1969
75.1953
76.2129
77.2434
78.2818
79.3278
80.3791
81.435
82.4962
83.5655
84.6472
85.7478
86.8755
88.0407
89.256
90.5367
91.901
93.3705
94.9716
96.7361
98.7032
100.922
103.456
106.385
109.818
113.899
118.826
124.877
132.437
142.053
154.499
170.872
192.735
222.339
263.027
320.028
402.372
527.121
732.937
1090.52
1658.74
10.1412
10.1933
10.2464
10.3024
10.3678
10.4505
10.5602
10.7108
10.919
11.2123
11.616
12.1632
12.8948
13.86
15.1173
16.7343
18.7866
21.3545
24.5185
28.3522
32.9139
38.2378
44.3259
51.1427
58.613
66.6246
75.0342
83.6783
92.3853
100.988
109.336
117.302
124.79
131.735
138.1
143.874
149.064
153.695
157.797
161.407
164.563
167.303
169.662
171.676
173.376
174.791
175.95
176.876
177.593
178.123
178.484
178.694
178.769
178.723
178.57
178.32
177.986
177.575
177.096
176.558
175.966
175.327
174.647
173.93
173.18
172.4
171.594
170.764
169.912
169.039
168.146
167.235
166.305
165.355
164.387
163.399
162.389
161.357
160.302
159.221
158.113
156.976
155.809
154.609
153.376
152.107
150.8
149.456
148.072
146.647
145.181
143.673
142.124
140.532
138.9
137.227
135.514
133.763
131.975
130.151
128.295
126.408
124.492
122.551
120.586
118.602
116.601
114.586
112.561
110.529
108.493
106.457
104.425
102.4
100.385
98.3849
96.402
94.4404
92.5033
90.5944
88.7169
86.8744
85.0703
83.3077
81.5902
79.9211
78.3037
76.7413
75.2373
73.795
72.4179
71.1094
69.8728
68.7117
67.6293
66.6291
65.7142
64.8877
64.1524
63.5107
62.9645
62.5155
62.1647
61.9126
61.7595
61.7054
61.7502
61.8939
62.1363
62.4769
62.9148
63.4481
64.0738
64.7874
65.5829
66.4529
67.3888
68.3813
69.4207
70.4976
71.603
72.729
73.869
75.0177
76.175
77.3382
78.5057
79.6782
80.8576
82.0481
83.2558
84.4887
85.757
87.0732
88.4526
89.9132
91.4769
93.17
95.0244
97.0795
99.3844
102.002
105.012
108.523
112.678
117.674
123.786
131.399
141.056
153.53
169.915
191.768
221.323
261.859
318.393
399.272
519.303
708.26
1011.17
1411.78
7.05803
7.03083
7.00426
6.97833
6.95377
6.93155
6.91286
6.89931
6.893
6.89708
6.9161
6.95466
7.01854
7.11498
7.25296
7.44353
7.70018
8.03931
8.48063
9.0475
9.76731
10.6714
11.7948
13.1755
14.8525
16.8639
19.2432
22.0167
25.199
28.7906
32.7757
37.1217
41.7797
46.6874
51.7729
56.9588
62.1674
67.3251
72.366
77.2343
81.8862
86.2895
90.4236
94.2777
97.849
101.141
104.163
106.926
109.444
111.732
113.803
115.675
117.361
118.875
120.231
121.442
122.52
123.476
124.32
125.063
125.714
126.279
126.768
127.186
127.54
127.834
128.074
128.264
128.407
128.505
128.562
128.579
128.557
128.498
128.402
128.268
128.097
127.888
127.641
127.353
127.025
126.654
126.239
125.779
125.272
124.716
124.111
123.454
122.745
121.982
121.166
120.295
119.37
118.389
117.355
116.266
115.125
113.933
112.69
111.4
110.063
108.682
107.259
105.798
104.302
102.772
101.213
99.6282
98.0205
96.3938
94.7516
93.0977
91.4356
89.7692
88.1023
86.4384
84.7814
83.1349
81.5027
79.8884
78.2956
76.7278
75.1888
73.682
72.211
70.7792
69.3903
68.0477
66.755
65.5159
64.3339
63.2129
62.1566
61.1689
60.2536
59.4149
58.6565
57.9823
57.3961
56.9013
56.5008
56.197
55.9918
55.886
55.8799
55.9731
56.1645
56.4529
56.8368
57.3146
57.8845
58.5444
59.2914
60.1217
61.0301
62.0105
63.0552
64.156
65.3037
66.4894
67.7043
68.9405
70.1911
71.4509
72.72
73.9952
75.2746
76.558
77.8473
79.1461
80.4601
81.7971
83.1671
84.5825
86.0582
87.6124
89.2669
91.0478
92.987
95.1237
97.5069
100.199
103.279
106.854
111.065
116.107
122.25
129.873
139.512
151.927
168.196
189.846
219.052
258.959
314.257
392.41
505.766
675.969
929.596
1218.02
5.8973
5.84707
5.79779
5.74941
5.70202
5.65578
5.61085
5.56746
5.52589
5.48653
5.45031
5.41793
5.39033
5.36868
5.35446
5.3495
5.35606
5.37687
5.41526
5.47524
5.56158
5.68
5.83727
6.04136
6.30163
6.62887
7.03549
7.5354
8.14399
8.87782
9.75413
10.7901
12.0021
13.4041
15.0068
16.8164
18.8332
21.0516
23.4592
26.0375
28.7624
31.6059
34.537
37.5235
40.5337
43.5377
46.5081
49.4216
52.2585
55.0035
57.6451
60.1756
62.5905
64.888
67.0684
69.1336
71.0872
72.9331
74.6763
76.3218
77.8748
79.3407
80.7247
82.0315
83.266
84.4324
85.5349
86.5769
87.5617
88.4921
89.3704
90.1986
90.9782
91.7102
92.3955
93.0341
93.6263
94.1714
94.669
95.1181
95.5176
95.866
96.1621
96.4042
96.5908
96.7202
96.791
96.8016
96.7508
96.6374
96.4604
96.2191
95.913
95.542
95.106
94.6055
94.0412
93.4142
92.7256
91.9772
91.1707
90.3085
89.3928
88.4264
87.4121
86.353
85.2523
84.1134
82.9398
81.7351
80.5031
79.2475
77.9722
76.6809
75.3776
74.0661
72.7503
71.4341
70.1212
68.8155
67.5207
66.2406
64.9789
63.7392
62.5253
61.3407
60.1892
59.0744
58.0001
56.9699
55.9877
55.0575
54.1833
53.3693
52.6198
51.9392
51.3321
50.8031
50.3569
49.998
49.7307
49.5586
49.4849
49.5119
49.6406
49.871
50.2021
50.6319
51.1578
51.7766
52.4853
53.2806
54.1587
55.1156
56.1467
57.2461
58.4072
59.6224
60.8835
62.1819
63.5092
64.8575
66.22
67.5917
68.9731
70.3606
71.7517
73.1459
74.5444
75.9507
77.37
78.8097
80.2797
81.792
83.3616
85.0063
86.7477
88.6119
90.6306
92.8425
95.2961
98.0527
101.191
104.816
109.065
114.13
120.274
127.866
137.43
149.705
165.738
187.005
215.587
254.442
307.853
382.295
487.703
638.903
849.497
1062.31
5.38834
5.33061
5.27392
5.21826
5.16362
5.11003
5.05751
5.00607
4.95577
4.90663
4.85888
4.81261
4.76799
4.72522
4.68456
4.64634
4.611
4.57906
4.55117
4.52812
4.51087
4.50053
4.49846
4.50622
4.52565
4.55888
4.60839
4.67702
4.76804
4.88516
5.03262
5.21514
5.43803
5.70707
6.02857
6.40919
6.85585
7.37552
7.975
8.66058
9.43773
10.3107
11.2823
12.3536
13.5235
14.789
16.1451
17.5849
19.0998
20.6801
22.3153
23.9944
25.7064
27.4405
29.1868
30.9362
32.6804
34.4126
36.1268
37.8183
39.4832
41.1186
42.7226
44.2936
45.8307
47.3334
48.8015
50.2349
51.6336
52.9977
54.3271
55.6218
56.8813
58.1054
59.2934
60.4443
61.5572
62.6306
63.6632
64.6532
65.5987
66.4977
67.3482
68.1477
68.8942
69.5854
70.2189
70.7927
71.3048
71.7532
72.1363
72.4528
72.7013
72.881
72.9913
73.032
73.0032
72.9052
72.7388
72.505
72.2054
71.8415
71.4155
70.9295
70.3862
69.7883
69.1389
68.441
67.6982
66.9137
66.0913
65.2347
64.3476
63.4338
62.4973
61.5418
60.5714
59.5898
58.6009
57.6087
56.6168
55.6292
54.6495
53.6816
52.7291
51.7957
50.8852
50.0013
49.1476
48.3281
47.5467
46.8072
46.114
45.4712
44.8835
44.3555
43.8922
43.4989
43.1809
42.9438
42.793
42.7339
42.7713
42.9092
43.1506
43.4971
43.9488
44.504
45.1599
45.9123
46.7566
47.6876
48.7004
49.7896
50.9497
52.175
53.4588
54.7942
56.1734
57.5883
59.0308
60.4932
61.9688
63.4531
64.9473
66.4471
67.9497
69.454
70.9611
72.4737
73.9969
75.5378
77.1057
78.7126
80.3731
82.1049
83.9293
85.872
87.9644
90.2449
92.7609
95.5729
98.7581
102.418
106.688
111.754
117.869
125.393
134.828
146.888
162.576
183.298
211.015
248.459
299.459
369.488
466.262
599.245
773.347
934.324
5.1437
5.08322
5.02383
4.96551
4.90824
4.85202
4.79683
4.74267
4.68952
4.63739
4.58633
4.53633
4.48741
4.43958
4.3929
4.3474
4.30317
4.2603
4.21892
4.17919
4.14131
4.10554
4.07215
4.04152
4.01405
3.99024
3.97066
3.95595
3.94687
3.94425
3.94907
3.96238
3.98539
4.01944
4.06602
4.12674
4.2034
4.29795
4.41251
4.54933
4.71084
4.89957
5.11813
5.36921
5.6555
5.97961
6.34406
6.75118
7.20301
7.70131
8.24742
8.84225
9.48622
10.1793
10.9209
11.7101
12.5453
13.4247
14.3462
15.3074
16.3056
17.3381
18.4021
19.4947
20.6132
21.7546
22.9163
24.0955
25.2897
26.4962
27.7125
28.936
30.1641
31.3942
32.6236
33.8495
35.069
36.279
37.4765
38.6582
39.8208
40.9606
42.0742
43.158
44.2083
45.2214
46.1938
47.122
48.0024
48.832
49.6076
50.3265
50.9862
51.5844
52.1192
52.5892
52.9933
53.3305
53.6006
53.8036
53.9398
54.01
54.0153
53.9573
53.8376
53.6583
53.4219
53.1309
52.7881
52.3966
51.9596
51.4804
50.9625
50.4094
49.8247
49.2122
48.5755
47.9184
47.2447
46.5581
45.8622
45.1609
44.4578
43.7566
43.061
42.3746
41.701
41.044
40.4071
39.7941
39.2089
38.6554
38.1377
37.66
37.2269
36.8431
36.5138
36.2443
36.0407
35.909
35.8557
35.8875
36.0109
36.2321
36.5564
36.988
37.5292
38.1805
38.9401
39.804
40.7669
41.8222
42.9626
44.1811
45.4705
46.8236
48.2333
49.6923
51.1928
52.727
54.287
55.8649
57.4538
59.0515
60.6587
62.2706
63.8841
65.4977
67.1121
68.7297
70.3551
71.995
73.6586
75.3574
77.1057
78.9209
80.8239
82.8402
85.0005
87.3425
89.9129
92.7707
95.9911
99.6728
103.947
108.991
115.052
122.471
131.729
143.506
158.752
178.79
205.44
241.185
289.384
354.552
442.474
558.616
702.447
827.1
5.02068
4.95907
4.89857
4.83916
4.78084
4.72356
4.66733
4.6121
4.55787
4.50465
4.45241
4.40114
4.35084
4.30147
4.25305
4.20555
4.15899
4.11337
4.0687
4.025
3.98231
3.94067
3.90015
3.86081
3.82276
3.78609
3.75096
3.71752
3.68596
3.65649
3.62935
3.60483
3.58323
3.56491
3.55024
3.53964
3.53359
3.53258
3.53716
3.54792
3.56548
3.59054
3.62381
3.66608
3.71817
3.78095
3.85536
3.94236
4.04301
4.15836
4.28955
4.43774
4.60415
4.79001
4.9966
5.22521
5.47715
5.75372
6.05624
6.38598
6.74421
7.13213
7.5509
8.0016
8.4852
9.00256
9.5544
10.1413
10.7636
11.4214
12.1148
12.8432
13.6062
14.4027
15.2315
16.0908
16.9789
17.8932
18.8312
19.7897
20.7653
21.7545
22.7532
23.7571
24.7619
25.763
26.7556
27.7351
28.6967
29.6356
30.5472
31.4273
32.2714
33.0757
33.8366
34.5507
35.2151
35.8272
36.3851
36.887
37.3316
37.7183
38.0466
38.3165
38.5286
38.6836
38.7828
38.8277
38.82
38.762
38.6559
38.5044
38.3102
38.0761
37.8054
37.5011
37.1664
36.8048
36.4196
36.0142
35.5919
35.1564
34.7109
34.259
33.804
33.3494
32.8986
32.4552
32.0225
31.6041
31.2036
30.8247
30.4712
30.1473
29.8572
29.6054
29.397
29.2373
29.1322
29.088
29.1118
29.2109
29.3933
29.6669
30.0395
30.5182
31.1087
31.8148
32.6374
33.575
34.623
35.7745
37.021
38.353
39.7609
41.2355
42.7677
44.3489
45.9705
47.6242
49.3018
50.9952
52.6962
54.4078
56.1275
57.8506
59.5738
61.2954
63.0154
64.736
66.4614
68.198
69.9545
71.742
73.5746
75.4692
77.4463
79.5309
81.753
84.1496
86.7663
89.6603
92.9047
96.5947
100.856
105.86
111.84
119.122
128.161
139.596
154.319
173.558
198.98
232.808
277.941
338.022
417.227
518.177
637.247
735.812
4.95802
4.89586
4.83484
4.77493
4.71612
4.65838
4.60168
4.54601
4.49133
4.43765
4.38494
4.33317
4.28234
4.23242
4.18339
4.13523
4.08793
4.04148
3.99587
3.95107
3.9071
3.86394
3.8216
3.78008
3.7394
3.69958
3.66063
3.62259
3.5855
3.54941
3.51439
3.48049
3.44781
3.41643
3.38646
3.35802
3.33123
3.30624
3.28321
3.2623
3.2437
3.2276
3.21421
3.20376
3.19648
3.19263
3.19247
3.19629
3.2044
3.21712
3.23479
3.25778
3.2865
3.32138
3.36287
3.4115
3.4678
3.53238
3.6059
3.68906
3.78264
3.88751
4.00458
4.13486
4.27944
4.43947
4.61621
4.81099
5.02519
5.26026
5.51771
5.79902
6.10572
6.43926
6.80101
7.19224
7.61402
8.06721
8.55239
9.0698
9.61929
10.2003
10.8118
11.4523
12.1197
12.8117
13.5251
14.2565
15.0023
15.7581
16.5197
17.2824
18.0415
18.7923
19.5301
20.2504
20.9488
21.6212
22.2638
22.8731
23.4462
23.9803
24.4734
24.9235
25.3295
25.6903
26.0056
26.2753
26.4998
26.6796
26.816
26.9101
26.9636
26.9784
26.9566
26.9003
26.812
26.6944
26.55
26.3816
26.192
25.9842
25.7611
25.5256
25.2807
25.0296
24.7751
24.5204
24.2686
24.0229
23.7864
23.5625
23.3547
23.1666
23.002
22.8652
22.7606
22.6931
22.6683
22.6923
22.7718
22.9146
23.129
23.4241
23.8095
24.2948
24.8893
25.6006
26.4344
27.3932
28.4758
29.6772
30.9894
32.4016
33.9021
35.4785
37.1191
38.8125
40.5484
42.3169
44.1084
45.9142
47.7252
49.5485
51.3788
53.2111
55.0419
56.869
58.6922
60.5133
62.3359
64.1661
66.0122
67.8849
69.7978
71.7674
73.8138
75.9612
78.239
80.6832
83.338
86.2589
89.5163
93.2016
97.4354
102.38
108.256
115.372
124.154
135.199
149.332
167.682
191.756
223.519
265.434
320.382
391.249
478.733
577.693
657.059
4.92637
4.86391
4.80261
4.74245
4.6834
4.62542
4.5685
4.51261
4.45774
4.40385
4.35093
4.29895
4.2479
4.19775
4.14848
4.10008
4.05252
4.00578
3.95986
3.91472
3.87036
3.82677
3.78392
3.74181
3.70044
3.65978
3.61985
3.58063
3.54213
3.50435
3.4673
3.43099
3.39543
3.36065
3.32667
3.29352
3.26122
3.22982
3.19936
3.16989
3.14146
3.11412
3.08794
3.06299
3.03934
3.01706
2.99624
2.97696
2.95933
2.94343
2.92937
2.91727
2.90725
2.89943
2.89397
2.89101
2.89073
2.89331
2.89895
2.90789
2.92037
2.93669
2.95714
2.9821
3.01195
3.04715
3.08818
3.1356
3.19003
3.25215
3.32274
3.40262
3.49272
3.59403
3.70763
3.83468
3.9764
4.13405
4.30895
4.50241
4.71575
4.95019
5.20688
5.48682
5.7908
6.11936
6.47272
6.85075
7.25294
7.67832
8.12549
8.59259
9.07734
9.57704
10.0887
10.6088
11.134
11.6604
12.1843
12.7019
13.2094
13.7034
14.1805
14.6376
15.0721
15.4814
15.8636
16.217
16.5403
16.8326
17.0934
17.3225
17.52
17.6864
17.8225
17.9293
18.008
18.0601
18.0872
18.0911
18.0739
18.0374
17.984
17.9157
17.8351
17.7444
17.646
17.5426
17.4365
17.3305
17.2271
17.1293
17.0399
16.9619
16.8987
16.8537
16.8308
16.8342
16.8687
16.9397
17.0533
17.2166
17.4378
17.7258
18.0911
18.5447
19.0985
19.764
20.5516
21.4696
22.5223
23.71
25.0277
26.4662
28.0129
29.6533
31.3722
33.1549
34.9876
36.8575
38.7527
40.6621
42.5782
44.5079
46.4444
48.3819
50.3164
52.2454
54.1681
56.0859
58.002
59.9219
61.8537
63.8074
65.7962
67.8361
69.9465
72.1511
74.4782
76.9628
79.6477
82.5862
85.8461
89.5145
93.7062
98.5742
104.327
111.252
119.746
130.36
143.852
161.247
183.893
213.506
252.15
302.058
365.121
440.811
523.469
588.387
4.91073
4.8481
4.78665
4.72635
4.66717
4.60907
4.55204
4.49605
4.44107
4.38709
4.33407
4.282
4.23085
4.18061
4.13125
4.08274
4.03508
3.98825
3.94221
3.89696
3.85248
3.80875
3.76576
3.72349
3.68192
3.64105
3.60086
3.56134
3.52247
3.48426
3.44669
3.40976
3.37347
3.3378
3.30277
3.26837
3.2346
3.20147
3.16899
3.13716
3.106
3.07552
3.04574
3.01666
2.98831
2.96072
2.93389
2.90787
2.88266
2.85831
2.83485
2.8123
2.79071
2.77011
2.75054
2.73206
2.71471
2.69855
2.68363
2.67004
2.65784
2.64712
2.63798
2.63052
2.62487
2.62117
2.61957
2.62025
2.62341
2.62928
2.63811
2.6502
2.66588
2.68551
2.70951
2.73833
2.77248
2.81255
2.85913
2.91292
2.97466
3.04512
3.12514
3.21561
3.31741
3.43146
3.55864
3.69982
3.85576
4.02713
4.21447
4.41811
4.63818
4.87453
5.12676
5.39413
5.67562
5.96988
6.27527
6.58989
6.91159
7.23805
7.56683
7.89539
8.22121
8.5418
8.85477
9.15787
9.44906
9.72651
9.98863
10.2341
10.4619
10.6712
10.8616
11.0328
11.1848
11.318
11.4327
11.5297
11.6099
11.6743
11.7241
11.7607
11.7854
11.7999
11.8058
11.8048
11.7987
11.7895
11.7792
11.7698
11.7636
11.7628
11.7702
11.7883
11.8202
11.8693
11.9393
12.0347
12.1605
12.3227
12.5281
12.785
13.1032
13.4937
13.9693
14.5438
15.2314
16.0459
16.9986
18.0971
19.3435
20.7337
22.2581
23.902
25.6483
27.4786
29.3749
31.32
33.2979
35.2929
37.3036
39.3303
41.3647
43.4003
45.4321
47.4569
49.4736
51.4828
53.4873
55.4921
57.5045
59.5343
61.5939
63.6987
65.8675
68.1231
70.493
73.0108
75.7177
78.6649
81.917
85.5571
89.6933
94.4697
100.081
106.794
114.974
125.127
137.942
154.339
175.514
202.946
238.345
283.412
339.292
404.733
474.156
527.979
4.90322
4.8405
4.77897
4.71859
4.65934
4.60119
4.5441
4.48806
4.43304
4.37901
4.32595
4.27384
4.22266
4.17237
4.12298
4.07444
4.02675
3.97988
3.93381
3.88853
3.84401
3.80025
3.75721
3.7149
3.67329
3.63236
3.59211
3.55252
3.51357
3.47526
3.43757
3.4005
3.36402
3.32814
3.29285
3.25813
3.22398
3.1904
3.15739
3.12493
3.09303
3.06168
3.03088
3.00064
2.97095
2.94182
2.91324
2.88523
2.85778
2.83089
2.80459
2.77886
2.75372
2.72918
2.70525
2.68193
2.65924
2.6372
2.61581
2.5951
2.57508
2.55578
2.53723
2.51946
2.50249
2.48637
2.47115
2.45688
2.44362
2.43144
2.42041
2.41064
2.40221
2.39526
2.38991
2.38632
2.38466
2.38513
2.38794
2.39335
2.40162
2.41306
2.428
2.44683
2.46992
2.49773
2.53072
2.56936
2.61418
2.66569
2.72442
2.79089
2.86557
2.94892
3.04132
3.14307
3.25435
3.37524
3.50565
3.64536
3.79394
3.95081
4.11522
4.28624
4.4628
4.64368
4.82758
5.01313
5.1989
5.38347
5.56545
5.74352
5.91643
6.08306
6.24244
6.39372
6.53623
6.66949
6.79315
6.90706
7.01123
7.10582
7.19117
7.26772
7.33608
7.39697
7.45123
7.49979
7.54371
7.58413
7.62231
7.65959
7.69744
7.73745
7.78135
7.83107
7.88873
7.95674
8.03784
8.13524
8.25268
8.39464
8.56649
8.7748
9.02754
9.3344
9.70706
10.1593
10.7068
11.3668
12.1565
13.0913
14.1829
15.4366
16.8503
18.4143
20.1128
21.9258
23.8313
25.8069
27.8308
29.8831
31.9679
34.0742
36.192
38.3132
40.4317
42.5432
44.6455
46.7385
48.8244
50.9074
52.9942
55.0939
57.2182
59.3819
61.6029
63.903
66.3088
68.8523
71.5732
74.5203
77.755
81.3558
85.4245
90.0957
95.5501
102.033
109.881
119.552
131.666
147.044
166.734
192.001
224.247
264.741
314.091
370.676
429.306
474.458
4.89971
4.83695
4.77538
4.71496
4.65568
4.5975
4.54039
4.48433
4.42929
4.37524
4.32217
4.27005
4.21885
4.16856
4.11916
4.07061
4.02291
3.97604
3.92997
3.88468
3.84016
3.7964
3.75336
3.71105
3.66943
3.6285
3.58825
3.54865
3.50969
3.47137
3.43366
3.39656
3.36005
3.32413
3.28878
3.254
3.21977
3.18609
3.15294
3.12033
3.08823
3.05666
3.02559
2.99503
2.96497
2.9354
2.90632
2.87773
2.84962
2.82198
2.79482
2.76813
2.74191
2.71615
2.69085
2.66602
2.64164
2.61773
2.59427
2.57127
2.54874
2.52666
2.50506
2.48392
2.46326
2.44309
2.42341
2.40424
2.38559
2.36748
2.34993
2.33297
2.31662
2.30092
2.28592
2.27165
2.25817
2.24554
2.23384
2.22314
2.21354
2.20513
2.19804
2.1924
2.18834
2.18604
2.18567
2.18742
2.19151
2.19815
2.2076
2.22011
2.23593