/*--------------------------------*- C++ -*----------------------------------*\
| =========                 |                                                 |
| \\      /  F ield         | OpenFOAM: The Open Source CFD Toolbox           |
|  \\    /   O peration     | Version:  2.4.0                                 |
|   \\  /    A nd           | Web:      www.OpenFOAM.org                      |
|    \\/     M anipulation  |                                                 |
\*---------------------------------------------------------------------------*/
FoamFile
{
    version     2.0;
    format      ascii;
    class       volVectorField;
    location    "0.086";
    object      U_0;
}
// * * * * * * * * * * * * * * * * * * * * * * * * * * * * * * * * * * * * * //

dimensions      [0 1 -1 0 0 0 0];

internalField   nonuniform List<vector> 
17600
(
(5.32778 0.309447 0)
(2.98559 0.0605878 0)
(2.19676 -0.00151918 0)
(1.84666 -0.00353327 0)
(1.70704 -0.00142397 0)
(1.61127 -0.000118925 0)
(1.53466 0.000387049 0)
(1.48585 -0.000801869 0)
(1.4272 0.000664943 0)
(1.40802 -0.000289346 0)
(1.36403 -0.000394125 0)
(1.3611 0.000558732 0)
(1.31633 -0.000272562 0)
(1.31328 0.000589507 0)
(1.29351 -0.00122109 0)
(1.26414 0.00184839 0)
(1.26465 -0.00121762 0)
(1.25605 -0.000922221 0)
(1.22182 0.00267658 0)
(1.30952 -0.027697 0)
(8.59916 0.87199 0)
(6.94916 0.38326 0)
(5.81288 0.122145 0)
(5.05393 0.0509577 0)
(4.65434 0.0277469 0)
(4.37758 0.0211363 0)
(4.17074 0.0165131 0)
(4.03759 0.0109624 0)
(3.86555 0.0115406 0)
(3.8252 0.00700202 0)
(3.68455 0.00505125 0)
(3.68261 0.00734904 0)
(3.55773 0.00446189 0)
(3.55391 0.00513876 0)
(3.49296 0.00212737 0)
(3.41095 0.00857501 0)
(3.43176 -0.00201602 0)
(3.3715 0.00429306 0)
(3.2918 -0.000682188 0)
(3.46704 -0.0356732 0)
(9.85816 1.02215 0)
(9.34305 0.576847 0)
(8.47768 0.242148 0)
(7.6393 0.130194 0)
(7.09506 0.0807695 0)
(6.69629 0.059348 0)
(6.3901 0.0438886 0)
(6.20312 0.0330672 0)
(5.93085 0.0297962 0)
(5.88706 0.0205497 0)
(5.65425 0.0159358 0)
(5.66014 0.0182136 0)
(5.46913 0.0135675 0)
(5.45906 0.0120053 0)
(5.3754 0.0100786 0)
(5.23539 0.0175736 0)
(5.29409 -0.0016817 0)
(5.15938 0.0145763 0)
(5.10444 0.000145419 0)
(5.15557 -0.0681087 0)
(10.1638 0.947919 0)
(10.5646 0.667855 0)
(10.2621 0.331673 0)
(9.64259 0.21039 0)
(9.12127 0.145658 0)
(8.69849 0.110615 0)
(8.33104 0.080239 0)
(8.13501 0.0639937 0)
(7.77661 0.0542609 0)
(7.7501 0.039472 0)
(7.43731 0.0320386 0)
(7.45229 0.0323486 0)
(7.2159 0.0271055 0)
(7.18819 0.020449 0)
(7.10593 0.0226761 0)
(6.89801 0.027978 0)
(7.01254 0.00115276 0)
(6.78428 0.0265482 0)
(6.80236 0.008705 0)
(6.68788 -0.110599 0)
(10.0823 0.805763 0)
(10.9156 0.669024 0)
(11.1327 0.358518 0)
(10.8984 0.256933 0)
(10.5759 0.199701 0)
(10.2666 0.163032 0)
(9.90399 0.118963 0)
(9.76517 0.0993916 0)
(9.35305 0.0826672 0)
(9.36604 0.061122 0)
(9.00625 0.0522417 0)
(9.0287 0.0481598 0)
(8.77872 0.0441903 0)
(8.7228 0.0295117 0)
(8.66856 0.0387796 0)
(8.39297 0.0392304 0)
(8.5624 0.00613186 0)
(8.26384 0.0389923 0)
(8.32685 0.021575 0)
(8.1573 -0.157304 0)
(10.0014 0.690964 0)
(10.8526 0.635911 0)
(11.3056 0.335649 0)
(11.3804 0.253502 0)
(11.3133 0.218462 0)
(11.2406 0.198061 0)
(10.9689 0.148279 0)
(10.9699 0.130503 0)
(10.573 0.110882 0)
(10.6463 0.0816991 0)
(10.2951 0.0743635 0)
(10.3274 0.0637017 0)
(10.106 0.0632156 0)
(10.0169 0.0385107 0)
(10.0135 0.0560129 0)
(9.69456 0.0518629 0)
(9.89491 0.0105217 0)
(9.5746 0.052983 0)
(9.64178 0.0355804 0)
(9.54393 -0.182162 0)
(9.99054 0.600445 0)
(10.7345 0.603816 0)
(11.2134 0.304854 0)
(11.408 0.224431 0)
(11.4483 0.20088 0)
(11.6049 0.204924 0)
(11.4331 0.155733 0)
(11.6165 0.144128 0)
(11.3254 0.12964 0)
(11.4775 0.0936509 0)
(11.2102 0.0931167 0)
(11.2648 0.0754783 0)
(11.1239 0.0811302 0)
(11.0114 0.0462263 0)
(11.0737 0.0713529 0)
(10.7573 0.0653064 0)
(10.967 0.0141606 0)
(10.6622 0.0666088 0)
(10.7094 0.0447386 0)
(10.7584 -0.152405 0)
(9.99561 0.518997 0)
(10.6523 0.569825 0)
(11.1022 0.286038 0)
(11.3445 0.20006 0)
(11.3487 0.172937 0)
(11.6265 0.195576 0)
(11.4922 0.148622 0)
(11.7479 0.137912 0)
(11.6121 0.13419 0)
(11.7982 0.0907032 0)
(11.6702 0.101745 0)
(11.7513 0.0767058 0)
(11.7407 0.0924718 0)
(11.6335 0.0495861 0)
(11.7654 0.0797539 0)
(11.5136 0.0771901 0)
(11.722 0.0146684 0)
(11.4678 0.0828854 0)
(11.5046 0.0342858 0)
(11.654 -0.0562259 0)
(9.99711 0.445754 0)
(10.5853 0.526249 0)
(11.0319 0.271401 0)
(11.296 0.183594 0)
(11.2537 0.14581 0)
(11.5368 0.180579 0)
(11.478 0.141168 0)
(11.6351 0.123449 0)
(11.6552 0.129072 0)
(11.7964 0.0796909 0)
(11.7792 0.100352 0)
(11.8449 0.0685523 0)
(11.9474 0.0914139 0)
(11.8814 0.0495858 0)
(12.0298 0.074601 0)
(11.9094 0.0850774 0)
(12.0892 0.00736171 0)
(11.9326 0.0937498 0)
(11.9947 0.025295 0)
(12.1786 -0.0487501 0)
(10.0063 0.380946 0)
(10.4889 0.476759 0)
(10.9735 0.256876 0)
(11.2544 0.169668 0)
(11.214 0.126763 0)
(11.4268 0.15824 0)
(11.49 0.137272 0)
(11.5208 0.108235 0)
(11.6133 0.120239 0)
(11.7291 0.0655778 0)
(11.7577 0.0999027 0)
(11.7915 0.054419 0)
(11.9134 0.0862371 0)
(11.937 0.0439195 0)
(12.0061 0.0675778 0)
(12.0171 0.0788776 0)
(12.1317 0.00582274 0)
(12.0953 0.0769599 0)
(12.1759 0.025277 0)
(12.2546 -0.110673 0)
(9.99952 0.325581 0)
(10.3891 0.427026 0)
(10.9166 0.237253 0)
(11.1987 0.156687 0)
(11.2138 0.110644 0)
(11.3636 0.137241 0)
(11.4683 0.128584 0)
(11.4548 0.10091 0)
(11.5344 0.108516 0)
(11.6666 0.053151 0)
(11.7001 0.095329 0)
(11.7434 0.0492992 0)
(11.8491 0.0694545 0)
(11.9303 0.044427 0)
(11.9396 0.0546993 0)
(11.9978 0.0763037 0)
(12.0882 -0.00651437 0)
(12.0957 0.0636371 0)
(12.1498 0.0145803 0)
(12.1146 -0.110136 0)
(9.97873 0.279857 0)
(10.3622 0.374663 0)
(10.8541 0.216192 0)
(11.1128 0.140718 0)
(11.219 0.0953809 0)
(11.3109 0.117163 0)
(11.3964 0.123695 0)
(11.3949 0.092535 0)
(11.4983 0.0993137 0)
(11.6079 0.0379512 0)
(11.6323 0.0924963 0)
(11.7389 0.0378527 0)
(11.8141 0.0590342 0)
(11.8629 0.0410899 0)
(11.8882 0.0474851 0)
(11.9748 0.0670345 0)
(12.032 -0.0111278 0)
(12.0309 0.0438971 0)
(12.0743 0.0160596 0)
(12.0315 -0.118176 0)
(9.97546 0.237103 0)
(10.3814 0.32164 0)
(10.7671 0.199654 0)
(11.0169 0.12327 0)
(11.2005 0.0799699 0)
(11.2422 0.103045 0)
(11.3227 0.116561 0)
(11.3825 0.0786852 0)
(11.4945 0.0882435 0)
(11.5462 0.0288866 0)
(11.6026 0.082015 0)
(11.7241 0.0293696 0)
(11.7473 0.0510145 0)
(11.7867 0.0417132 0)
(11.8464 0.0331868 0)
(11.9415 0.059925 0)
(11.9678 -0.0135825 0)
(11.9694 0.0264633 0)
(12.0088 0.00706223 0)
(12.0541 -0.130663 0)
(9.99787 0.1952 0)
(10.3547 0.275333 0)
(10.6751 0.181279 0)
(10.9613 0.106631 0)
(11.1654 0.0663691 0)
(11.191 0.0901068 0)
(11.302 0.102991 0)
(11.3972 0.0617462 0)
(11.4472 0.0822225 0)
(11.4994 0.0206896 0)
(11.5863 0.0703744 0)
(11.657 0.0250267 0)
(11.6761 0.0455406 0)
(11.7542 0.0375667 0)
(11.8211 0.0194715 0)
(11.883 0.0519954 0)
(11.9336 -0.0152967 0)
(11.9289 0.0103854 0)
(11.9818 -0.009267 0)
(12.0897 -0.140596 0)
(10.0175 0.157231 0)
(10.2903 0.23437 0)
(10.6249 0.155196 0)
(10.9542 0.0888566 0)
(11.1256 0.0561566 0)
(11.165 0.0744105 0)
(11.3112 0.0869951 0)
(11.359 0.0501836 0)
(11.3688 0.0783373 0)
(11.4861 0.0094777 0)
(11.5501 0.0617154 0)
(11.5929 0.0241963 0)
(11.6553 0.0337446 0)
(11.7483 0.0303863 0)
(11.797 0.0106722 0)
(11.8387 0.0434121 0)
(11.904 -0.0180885 0)
(11.9068 -0.00635301 0)
(11.9966 -0.0318391 0)
(11.9996 -0.118085 0)
(10.007 0.125095 0)
(10.2566 0.192596 0)
(10.6351 0.122133 0)
(10.9288 0.0736198 0)
(11.078 0.0492004 0)
(11.1644 0.0553561 0)
(11.2824 0.0736466 0)
(11.2864 0.0438957 0)
(11.3494 0.066832 0)
(11.4856 -0.000786268 0)
(11.5065 0.0535585 0)
(11.5757 0.0214859 0)
(11.6629 0.0175742 0)
(11.7224 0.0285637 0)
(11.7592 0.000293618 0)
(11.8173 0.0336197 0)
(11.8706 -0.021451 0)
(11.8915 -0.0251567 0)
(11.9844 -0.0431797 0)
(11.8463 -0.0936781 0)
(9.98946 0.0964905 0)
(10.2712 0.144246 0)
(10.633 0.0918998 0)
(10.8579 0.0641648 0)
(11.0607 0.0390527 0)
(11.1686 0.0375989 0)
(11.2232 0.0651647 0)
(11.2701 0.0313288 0)
(11.3777 0.0514516 0)
(11.4569 -0.00690322 0)
(11.4785 0.0466539 0)
(11.5781 0.0129134 0)
(11.6407 0.0101268 0)
(11.6791 0.0222107 0)
(11.7321 -0.00348001 0)
(11.7985 0.0196861 0)
(11.8488 -0.0266645 0)
(11.8761 -0.0419346 0)
(11.9243 -0.0464552 0)
(11.7826 -0.0982357 0)
(10.002 0.0676336 0)
(10.2814 0.0971327 0)
(10.5665 0.0688468 0)
(10.8221 0.0510483 0)
(11.0819 0.0250945 0)
(11.1433 0.0254066 0)
(11.1957 0.0523713 0)
(11.3007 0.0154804 0)
(11.3594 0.0396217 0)
(11.4097 -0.00758334 0)
(11.4721 0.0327 0)
(11.5601 0.013055 0)
(11.606 -0.0042641 0)
(11.6587 0.0254044 0)
(11.7268 -0.0214143 0)
(11.786 0.0188396 0)
(11.8203 -0.0334626 0)
(11.8732 -0.0554901 0)
(11.8747 -0.0493604 0)
(11.805 -0.0992011 0)
(10.0224 0.0384879 0)
(10.2427 0.0569296 0)
(10.5266 0.0439352 0)
(10.8573 0.0283774 0)
(11.0797 0.016972 0)
(11.1104 0.0133606 0)
(11.2052 0.037047 0)
(11.2949 0.00147546 0)
(11.3086 0.0338479 0)
(11.3968 -0.0151466 0)
(11.4748 0.0238353 0)
(11.5406 0.00495772 0)
(11.6 -0.00611183 0)
(11.6567 0.00617989 0)
(11.7265 -0.0146617 0)
(11.7762 -0.00939493 0)
(11.7911 -0.0242695 0)
(11.8767 -0.074912 0)
(11.8527 -0.0644469 0)
(11.8315 -0.0955756 0)
(10.0128 0.0135573 0)
(10.2112 0.015949 0)
(10.568 0.0101153 0)
(10.8739 0.0095128 0)
(11.0399 0.0123654 0)
(11.107 0.00210743 0)
(11.2084 0.0184138 0)
(11.2651 -0.00490873 0)
(11.3023 0.0194268 0)
(11.4168 -0.018747 0)
(11.4744 0.00720775 0)
(11.5387 0.00847636 0)
(11.5996 -0.0262852 0)
(11.6522 0.0143291 0)
(11.7286 -0.0441532 0)
(11.7443 0.0080065 0)
(11.7847 -0.0632053 0)
(11.8972 -0.0638518 0)
(11.8286 -0.0790479 0)
(11.8007 -0.130948 0)
(9.99684 -0.00986846 0)
(10.236 -0.0315375 0)
(10.5955 -0.0210174 0)
(10.8366 -0.00375625 0)
(11.0208 0.00818263 0)
(11.126 -0.0149994 0)
(11.2018 0.00579272 0)
(11.2626 -0.0179206 0)
(11.327 0.00765784 0)
(11.4224 -0.0283852 0)
(11.4676 0.00220596 0)
(11.5352 -0.00127549 0)
(11.5905 -0.0239319 0)
(11.6541 -0.00865081 0)
(11.7303 -0.0255983 0)
(11.7101 -0.025162 0)
(11.8198 -0.0367754 0)
(11.9028 -0.109065 0)
(11.785 -0.0471158 0)
(11.7875 -0.182197 0)
(10.0041 -0.035956 0)
(10.2591 -0.0777106 0)
(10.5687 -0.0467335 0)
(10.8247 -0.0168391 0)
(11.0434 -0.00322139 0)
(11.1432 -0.0283235 0)
(11.201 -0.00968338 0)
(11.2719 -0.0284572 0)
(11.3367 -0.00666288 0)
(11.4112 -0.0297694 0)
(11.4612 -0.0097069 0)
(11.5403 -0.00158153 0)
(11.5878 -0.0388184 0)
(11.6837 -0.0103878 0)
(11.7137 -0.0390482 0)
(11.7037 -0.022008 0)
(11.8857 -0.075093 0)
(11.8493 -0.080215 0)
(11.7672 -0.0867299 0)
(11.8281 -0.117699 0)
(10.0102 -0.063659 0)
(10.2546 -0.120116 0)
(10.5639 -0.0738776 0)
(10.8596 -0.0342295 0)
(11.0712 -0.0142249 0)
(11.1428 -0.0404846 0)
(11.202 -0.0234536 0)
(11.2817 -0.0394881 0)
(11.3414 -0.0188517 0)
(11.4091 -0.033334 0)
(11.4826 -0.0205905 0)
(11.553 -0.00638843 0)
(11.6022 -0.0493018 0)
(11.7087 -0.0165247 0)
(11.6921 -0.0458555 0)
(11.7368 -0.031016 0)
(11.9076 -0.0956295 0)
(11.7992 -0.0600748 0)
(11.8135 -0.120458 0)
(11.8496 -0.0558184 0)
(10.0012 -0.091726 0)
(10.2671 -0.163832 0)
(10.5964 -0.103919 0)
(10.8902 -0.050122 0)
(11.0775 -0.0220908 0)
(11.1367 -0.0533038 0)
(11.2169 -0.0368937 0)
(11.3052 -0.0538698 0)
(11.3541 -0.0271657 0)
(11.4267 -0.0435561 0)
(11.5182 -0.02642 0)
(11.5523 -0.0180111 0)
(11.625 -0.0486346 0)
(11.7223 -0.0365671 0)
(11.6714 -0.0236308 0)
(11.8065 -0.0776961 0)
(11.8844 -0.0617505 0)
(11.7843 -0.100362 0)
(11.892 -0.0956611 0)
(11.8217 -0.118791 0)
(9.99585 -0.121843 0)
(10.2955 -0.209163 0)
(10.6256 -0.133236 0)
(10.904 -0.0612783 0)
(11.0814 -0.0328616 0)
(11.1566 -0.065066 0)
(11.2508 -0.0568725 0)
(11.3282 -0.0612146 0)
(11.3714 -0.0417077 0)
(11.4542 -0.047057 0)
(11.5359 -0.0396895 0)
(11.548 -0.0150679 0)
(11.6702 -0.0703026 0)
(11.7099 -0.0223145 0)
(11.7 -0.0591417 0)
(11.8666 -0.0585785 0)
(11.8388 -0.0991042 0)
(11.8444 -0.0784284 0)
(11.9185 -0.123965 0)
(11.8077 -0.157989 0)
(9.99469 -0.155539 0)
(10.3217 -0.254141 0)
(10.651 -0.159812 0)
(10.9247 -0.0741397 0)
(11.1092 -0.0438647 0)
(11.1974 -0.0826542 0)
(11.2735 -0.0693758 0)
(11.3448 -0.0735491 0)
(11.3993 -0.0498662 0)
(11.4817 -0.05845 0)
(11.5418 -0.040142 0)
(11.5835 -0.0324061 0)
(11.7113 -0.0657905 0)
(11.6985 -0.0434017 0)
(11.774 -0.0476963 0)
(11.8728 -0.0924866 0)
(11.835 -0.0777694 0)
(11.9079 -0.105244 0)
(11.909 -0.137204 0)
(11.8724 -0.157026 0)
(9.99402 -0.193376 0)
(10.3492 -0.297258 0)
(10.6849 -0.18668 0)
(10.9661 -0.0858781 0)
(11.1509 -0.0606746 0)
(11.2258 -0.0943255 0)
(11.2871 -0.0838176 0)
(11.3776 -0.0834239 0)
(11.4378 -0.061929 0)
(11.506 -0.0642545 0)
(11.5711 -0.0493939 0)
(11.6417 -0.0407629 0)
(11.7224 -0.0729549 0)
(11.7258 -0.0436095 0)
(11.8394 -0.067082 0)
(11.8521 -0.08635 0)
(11.8824 -0.0922402 0)
(11.9391 -0.116203 0)
(11.9383 -0.144127 0)
(11.9528 -0.167154 0)
(9.99925 -0.234223 0)
(10.3773 -0.342992 0)
(10.7354 -0.207764 0)
(11.0183 -0.101971 0)
(11.1851 -0.0757604 0)
(11.2482 -0.10666 0)
(11.3237 -0.0986029 0)
(11.4259 -0.0945385 0)
(11.4742 -0.0716197 0)
(11.5391 -0.0726246 0)
(11.6234 -0.0568511 0)
(11.6793 -0.0522312 0)
(11.7316 -0.0710048 0)
(11.7922 -0.059937 0)
(11.8652 -0.0667918 0)
(11.8651 -0.0953953 0)
(11.9434 -0.100363 0)
(11.9668 -0.12538 0)
(12.0059 -0.159193 0)
(11.9615 -0.177014 0)
(10.0151 -0.280205 0)
(10.4069 -0.389784 0)
(10.8024 -0.223097 0)
(11.058 -0.119616 0)
(11.2226 -0.0928064 0)
(11.2815 -0.120781 0)
(11.3802 -0.113761 0)
(11.4672 -0.105205 0)
(11.5122 -0.0797727 0)
(11.5829 -0.082868 0)
(11.6775 -0.0653684 0)
(11.701 -0.0590013 0)
(11.776 -0.076236 0)
(11.8527 -0.0714284 0)
(11.8813 -0.0672434 0)
(11.9191 -0.107029 0)
(11.9903 -0.103895 0)
(12.0133 -0.140918 0)
(12.0464 -0.167075 0)
(11.954 -0.190569 0)
(10.0457 -0.333245 0)
(10.43 -0.435502 0)
(10.8765 -0.235303 0)
(11.0875 -0.137693 0)
(11.2841 -0.114004 0)
(11.3086 -0.133497 0)
(11.4484 -0.129763 0)
(11.4967 -0.112225 0)
(11.5686 -0.0902569 0)
(11.6264 -0.0924532 0)
(11.7355 -0.0723489 0)
(11.7296 -0.0666354 0)
(11.846 -0.0834718 0)
(11.8855 -0.0779189 0)
(11.9285 -0.0720718 0)
(11.9714 -0.115391 0)
(12.0378 -0.109427 0)
(12.0532 -0.151837 0)
(12.067 -0.172726 0)
(12.001 -0.217268 0)
(10.0714 -0.392045 0)
(10.4478 -0.480843 0)
(10.9607 -0.246299 0)
(11.1259 -0.159279 0)
(11.3559 -0.134637 0)
(11.3296 -0.147176 0)
(11.5363 -0.144636 0)
(11.5199 -0.119038 0)
(11.6504 -0.101366 0)
(11.6647 -0.10172 0)
(11.8052 -0.0797718 0)
(11.7617 -0.0746335 0)
(11.9246 -0.0907881 0)
(11.9025 -0.0842427 0)
(11.999 -0.0783254 0)
(11.9886 -0.12226 0)
(12.0789 -0.114917 0)
(12.0395 -0.158992 0)
(12.0584 -0.17807 0)
(11.9619 -0.245358 0)
(10.067 -0.456763 0)
(10.4876 -0.524608 0)
(11.0523 -0.260796 0)
(11.1857 -0.181239 0)
(11.4173 -0.15594 0)
(11.3846 -0.16225 0)
(11.6227 -0.158972 0)
(11.5533 -0.125798 0)
(11.7396 -0.113184 0)
(11.6982 -0.110622 0)
(11.8597 -0.0870765 0)
(11.7833 -0.0828643 0)
(11.9577 -0.0978275 0)
(11.8654 -0.0897084 0)
(11.9911 -0.0830405 0)
(11.8889 -0.12677 0)
(11.9801 -0.113817 0)
(11.8438 -0.165147 0)
(11.85 -0.167197 0)
(11.6397 -0.273674 0)
(10.04 -0.526604 0)
(10.5628 -0.567082 0)
(11.1507 -0.277398 0)
(11.2658 -0.203903 0)
(11.4808 -0.178898 0)
(11.4724 -0.178388 0)
(11.673 -0.169796 0)
(11.5863 -0.133837 0)
(11.7633 -0.123686 0)
(11.6523 -0.115701 0)
(11.784 -0.0929711 0)
(11.6557 -0.0873661 0)
(11.7668 -0.099408 0)
(11.5993 -0.0883218 0)
(11.6942 -0.0846333 0)
(11.4934 -0.118466 0)
(11.5437 -0.111526 0)
(11.3223 -0.149972 0)
(11.2791 -0.164188 0)
(10.9898 -0.245852 0)
(10.0112 -0.605279 0)
(10.6741 -0.602566 0)
(11.2598 -0.298476 0)
(11.3554 -0.229426 0)
(11.53 -0.203495 0)
(11.4958 -0.191538 0)
(11.5839 -0.17429 0)
(11.4412 -0.137829 0)
(11.5061 -0.124276 0)
(11.2975 -0.11137 0)
(11.3438 -0.0893021 0)
(11.1418 -0.0819951 0)
(11.1666 -0.089429 0)
(10.9421 -0.079745 0)
(10.9887 -0.0755334 0)
(10.7229 -0.103634 0)
(10.7391 -0.0980643 0)
(10.4611 -0.13136 0)
(10.39 -0.144473 0)
(10.0384 -0.208602 0)
(10.0134 -0.693843 0)
(10.8147 -0.635774 0)
(11.3392 -0.330106 0)
(11.3428 -0.257965 0)
(11.3591 -0.219331 0)
(11.1742 -0.189082 0)
(11.0739 -0.162129 0)
(10.819 -0.12536 0)
(10.7454 -0.108111 0)
(10.461 -0.0935649 0)
(10.433 -0.0744807 0)
(10.1894 -0.0667289 0)
(10.1596 -0.0722693 0)
(9.91716 -0.0651662 0)
(9.92784 -0.0611215 0)
(9.64246 -0.0840251 0)
(9.6322 -0.0810898 0)
(9.33508 -0.107639 0)
(9.24077 -0.118341 0)
(8.86472 -0.16985 0)
(10.0898 -0.807564 0)
(10.8904 -0.66944 0)
(11.1572 -0.354341 0)
(10.8714 -0.260387 0)
(10.6032 -0.200126 0)
(10.228 -0.157307 0)
(9.97114 -0.128101 0)
(9.64955 -0.0966318 0)
(9.49533 -0.0804369 0)
(9.1982 -0.0690212 0)
(9.1323 -0.054802 0)
(8.88975 -0.0483082 0)
(8.83488 -0.0532333 0)
(8.6042 -0.0489308 0)
(8.59093 -0.0450388 0)
(8.31739 -0.0632829 0)
(8.28724 -0.0625629 0)
(7.99813 -0.0806143 0)
(7.88562 -0.0946243 0)
(7.52551 -0.109325 0)
(10.1688 -0.948952 0)
(10.5471 -0.668385 0)
(10.2792 -0.328665 0)
(9.62428 -0.212789 0)
(9.13638 -0.145952 0)
(8.67865 -0.107177 0)
(8.37029 -0.0854206 0)
(8.05386 -0.0637352 0)
(7.88012 -0.0515376 0)
(7.61604 -0.0448897 0)
(7.53786 -0.0354394 0)
(7.32645 -0.0306392 0)
(7.26596 -0.0351858 0)
(7.06474 -0.0330744 0)
(7.03834 -0.0292953 0)
(6.79883 -0.0433176 0)
(6.75589 -0.0432771 0)
(6.49217 -0.0555551 0)
(6.38027 -0.0651206 0)
(6.03375 -0.071694 0)
(9.86107 -1.02263 0)
(9.33094 -0.577307 0)
(8.48867 -0.24018 0)
(7.62848 -0.131713 0)
(7.10244 -0.0810284 0)
(6.687 -0.0574233 0)
(6.41171 -0.0463061 0)
(6.14896 -0.0342634 0)
(5.99887 -0.0268001 0)
(5.79265 -0.0243028 0)
(5.72177 -0.0188529 0)
(5.5595 -0.0158564 0)
(5.50613 -0.0196851 0)
(5.34573 -0.0189857 0)
(5.31615 -0.0156139 0)
(5.1264 -0.0254097 0)
(5.07675 -0.0254552 0)
(4.85711 -0.0324677 0)
(4.75623 -0.038278 0)
(4.44178 -0.0426044 0)
(8.60063 -0.872134 0)
(6.94148 -0.383577 0)
(5.81878 -0.121096 0)
(5.04927 -0.0517126 0)
(4.65728 -0.0280542 0)
(4.37249 -0.0201535 0)
(4.18292 -0.0172173 0)
(4.00434 -0.012475 0)
(3.9033 -0.00910613 0)
(3.77009 -0.00916086 0)
(3.719 -0.00683307 0)
(3.61611 -0.00539522 0)
(3.57766 -0.00797631 0)
(3.46778 -0.00797215 0)
(3.44297 -0.00550299 0)
(3.31552 -0.0110286 0)
(3.26779 -0.010953 0)
(3.11199 -0.0139302 0)
(3.03018 -0.0163218 0)
(2.7906 -0.0189243 0)
(5.32832 -0.309429 0)
(2.98255 -0.060684 0)
(2.19839 0.00174357 0)
(1.84633 0.00337394 0)
(1.70705 0.00129906 0)
(1.60912 0.000366286 0)
(1.53986 -0.00030931 0)
(1.47302 2.97242e-05 0)
(1.43787 0.00038624 0)
(1.39147 -0.000333337 0)
(1.37033 -4.00674e-05 0)
(1.33549 0.000276564 0)
(1.32031 -0.000540178 0)
(1.27508 -0.000656774 0)
(1.26314 0.000352602 0)
(1.21459 -0.00105754 0)
(1.18595 -0.000788663 0)
(1.11964 -0.00109093 0)
(1.0771 -0.00109077 0)
(0.973933 0.00416368 0)
(1.50915 -0.04161 0)
(1.90217 -0.2726 0)
(2.15651 -0.539663 0)
(1.83877 -0.575904 0)
(1.84491 -0.469026 0)
(1.19712 -0.282391 0)
(1.50723 0.224899 0)
(2.14871 1.11382 0)
(3.45329 1.80886 0)
(4.91437 1.97482 0)
(6.19595 1.94177 0)
(6.85289 1.82845 0)
(7.68927 1.82562 0)
(8.53812 1.23207 0)
(8.79451 0.340573 0)
(9.04079 0.0383978 0)
(9.44141 -0.48159 0)
(9.54204 -1.07417 0)
(9.64731 -1.31224 0)
(9.84523 -1.64692 0)
(10.3455 -1.99109 0)
(10.6319 -2.40431 0)
(11.035 -2.90365 0)
(11.1977 -3.34646 0)
(11.8468 -3.85389 0)
(12.6711 -4.58329 0)
(13.3596 -5.40343 0)
(13.7333 -6.0656 0)
(13.6368 -6.50642 0)
(13.396 -6.63829 0)
(12.8588 -6.6488 0)
(12.7767 -6.58372 0)
(12.4827 -6.43674 0)
(12.4254 -6.0723 0)
(12.1931 -5.88915 0)
(12.2457 -5.49591 0)
(12.0958 -5.17201 0)
(12.0457 -4.8542 0)
(11.8789 -4.36147 0)
(11.6513 -4.10571 0)
(11.4244 -3.48139 0)
(10.9756 -3.02609 0)
(10.7451 -2.71719 0)
(10.2059 -1.93196 0)
(9.88684 -1.58677 0)
(9.59578 -1.62192 0)
(8.92825 -1.12984 0)
(8.58322 -1.01602 0)
(8.69393 -1.68696 0)
(8.2861 -1.5125 0)
(7.59869 -1.00923 0)
(7.85853 -1.49664 0)
(8.54977 -2.55799 0)
(8.93129 -3.14848 0)
(8.75103 -3.03044 0)
(8.37189 -2.59741 0)
(8.58455 -2.18002 0)
(8.59888 -1.71551 0)
(8.90817 -0.766482 0)
(9.66922 0.71364 0)
(9.66898 2.80944 0)
(9.41362 4.70842 0)
(9.02254 6.16022 0)
(8.28131 7.70506 0)
(7.89641 8.69359 0)
(7.44326 9.90748 0)
(7.05204 10.9916 0)
(6.77365 10.7129 0)
(6.52946 9.59063 0)
(6.42002 8.3391 0)
(6.32493 7.18643 0)
(5.98735 6.04542 0)
(5.8803 4.40906 0)
(5.79798 2.40892 0)
(5.89779 0.333191 0)
(6.26485 -1.89851 0)
(6.34033 -4.13505 0)
(6.55866 -5.73627 0)
(6.70682 -6.63158 0)
(6.88612 -7.15197 0)
(7.0653 -7.54246 0)
(7.01309 -7.6172 0)
(6.86934 -6.90309 0)
(6.2517 -5.96097 0)
(6.05012 -4.94616 0)
(5.5781 -4.24047 0)
(5.50739 -3.78142 0)
(5.33524 -3.8171 0)
(5.19305 -4.16288 0)
(5.23235 -4.37708 0)
(4.88462 -4.95731 0)
(5.52778 -5.33656 0)
(5.12192 -5.56681 0)
(5.22765 -6.02613 0)
(5.22148 -6.38183 0)
(5.38013 -6.58282 0)
(5.64839 -6.27345 0)
(5.78032 -6.11761 0)
(5.75935 -6.44445 0)
(6.03618 -6.3732 0)
(6.337 -5.69105 0)
(6.37247 -4.96036 0)
(6.61568 -3.95384 0)
(6.89463 -2.65137 0)
(6.84608 -1.33823 0)
(6.93213 0.0879342 0)
(7.11589 1.53912 0)
(7.389 2.73572 0)
(7.52634 3.89011 0)
(7.63468 5.09401 0)
(7.62616 6.20833 0)
(7.70314 6.8745 0)
(7.67445 7.06438 0)
(7.69152 6.85466 0)
(7.58478 6.46803 0)
(7.49497 5.95704 0)
(7.31621 5.3814 0)
(7.2339 4.59668 0)
(7.27042 3.78911 0)
(7.40884 3.13461 0)
(7.44192 2.91316 0)
(7.27685 3.07908 0)
(7.13077 3.43222 0)
(6.86034 3.62886 0)
(6.8108 3.51509 0)
(6.76289 3.15653 0)
(6.57532 2.66391 0)
(6.66126 2.24017 0)
(6.28437 1.81049 0)
(6.50216 1.46465 0)
(6.11109 1.13151 0)
(6.34022 0.899826 0)
(5.96528 0.663239 0)
(6.16294 0.570518 0)
(5.78567 0.441233 0)
(5.97781 0.416962 0)
(5.61149 0.38528 0)
(5.7635 0.398181 0)
(5.46889 0.388718 0)
(5.57493 0.423788 0)
(5.37013 0.409579 0)
(5.463 0.414744 0)
(5.35798 0.406842 0)
(5.3913 0.383585 0)
(5.41566 0.365794 0)
(5.36564 0.330875 0)
(5.47146 0.33019 0)
(5.34089 0.273375 0)
(5.53822 0.291845 0)
(5.30607 0.241109 0)
(5.56821 0.273304 0)
(5.27338 0.215031 0)
(5.60274 0.267861 0)
(5.22364 0.213059 0)
(5.62263 0.274522 0)
(5.18889 0.218788 0)
(5.65302 0.284916 0)
(5.16048 0.241558 0)
(5.66258 0.311322 0)
(5.16019 0.271955 0)
(5.67934 0.328698 0)
(5.183 0.320123 0)
(5.65623 0.368006 0)
(5.23192 0.378443 0)
(5.64051 0.388397 0)
(5.32782 0.444688 0)
(5.55313 0.444602 0)
(5.44509 0.530262 0)
(5.48744 0.47583 0)
(5.60965 0.602564 0)
(5.36641 0.559291 0)
(5.74518 0.711329 0)
(5.31069 0.619301 0)
(5.88793 0.798831 0)
(5.28595 0.725193 0)
(5.94043 0.911857 0)
(5.33156 0.874053 0)
(5.96011 0.995756 0)
(5.47765 1.03385 0)
(5.89289 1.11827 0)
(5.67246 1.25661 0)
(5.79956 1.23388 0)
(5.90608 1.45926 0)
(5.66795 1.4477 0)
(6.06225 1.6892 0)
(5.65089 1.74258 0)
(6.06306 1.88824 0)
(5.83401 2.08937 0)
(5.85933 2.17731 0)
(6.04371 2.49253 0)
(5.70426 2.65962 0)
(6.05609 2.88613 0)
(5.74421 3.2818 0)
(5.68173 3.50138 0)
(5.94895 3.9593 0)
(5.72055 4.50413 0)
(5.61928 4.9381 0)
(5.64049 6.01815 0)
(6.11468 6.98994 0)
(3.35351 9.91179 0)
(3.54759 -0.0800346 0)
(3.6163 -0.247799 0)
(3.83439 -0.476552 0)
(3.56731 -0.517647 0)
(3.57225 -0.415215 0)
(3.1606 -0.139311 0)
(2.96398 0.198986 0)
(3.09652 0.747646 0)
(3.70423 1.13092 0)
(4.97825 1.34401 0)
(6.2777 1.50485 0)
(6.80602 1.433 0)
(7.56831 1.40802 0)
(8.58428 0.959738 0)
(8.83727 0.183273 0)
(9.11867 -0.15628 0)
(9.39863 -0.580847 0)
(9.40327 -1.14302 0)
(9.62305 -1.45312 0)
(9.94748 -1.87234 0)
(10.5296 -2.24045 0)
(10.8153 -2.57059 0)
(11.4004 -3.0316 0)
(12.0061 -3.55667 0)
(12.8122 -4.13959 0)
(13.4654 -4.84452 0)
(13.8667 -5.57369 0)
(13.9402 -6.0836 0)
(13.5624 -6.37595 0)
(13.2765 -6.4838 0)
(12.8233 -6.56004 0)
(12.7875 -6.50736 0)
(12.5261 -6.38545 0)
(12.4519 -6.03844 0)
(12.2695 -5.83998 0)
(12.357 -5.48034 0)
(12.3033 -5.14741 0)
(12.2317 -4.80512 0)
(12.1483 -4.28371 0)
(11.9233 -4.02736 0)
(11.7292 -3.3481 0)
(11.261 -2.8642 0)
(10.9872 -2.557 0)
(10.4484 -1.76913 0)
(10.0319 -1.40464 0)
(9.75859 -1.3943 0)
(8.96287 -0.910032 0)
(8.60796 -0.950322 0)
(8.66536 -1.59384 0)
(8.19733 -1.33581 0)
(7.49058 -0.953103 0)
(7.84049 -1.68147 0)
(8.46228 -2.72952 0)
(8.66718 -3.13753 0)
(8.3193 -2.90941 0)
(7.95912 -2.52557 0)
(8.16615 -2.22958 0)
(8.18395 -1.83056 0)
(8.65006 -0.933019 0)
(9.29752 0.592441 0)
(9.26492 2.85245 0)
(9.10622 4.8045 0)
(8.76051 6.37075 0)
(8.03876 7.9323 0)
(7.70477 8.85194 0)
(7.27072 10.0985 0)
(6.94052 11.124 0)
(6.66401 10.7966 0)
(6.48302 9.64816 0)
(6.39066 8.40403 0)
(6.32376 7.26522 0)
(6.0081 6.12719 0)
(5.97692 4.45909 0)
(5.93973 2.39286 0)
(6.12096 0.24772 0)
(6.4851 -1.98094 0)
(6.61335 -4.20643 0)
(6.84479 -5.83198 0)
(6.95957 -6.7104 0)
(7.13445 -7.2106 0)
(7.27093 -7.56744 0)
(7.14647 -7.56552 0)
(6.93775 -6.7537 0)
(6.24934 -5.74484 0)
(6.06366 -4.79481 0)
(5.54544 -4.12691 0)
(5.41705 -3.6885 0)
(5.23974 -3.77971 0)
(5.03514 -4.09728 0)
(5.05932 -4.32763 0)
(4.68674 -5.02759 0)
(5.33509 -5.34284 0)
(4.74998 -5.51657 0)
(4.9252 -6.04031 0)
(4.89577 -6.40819 0)
(5.0412 -6.65038 0)
(5.25372 -6.33589 0)
(5.36455 -6.16549 0)
(5.31673 -6.47521 0)
(5.46498 -6.44913 0)
(5.75053 -5.74925 0)
(5.75874 -5.00807 0)
(5.93675 -4.03161 0)
(6.18998 -2.69767 0)
(6.15093 -1.33383 0)
(6.21141 0.045596 0)
(6.38423 1.44117 0)
(6.68505 2.65604 0)
(6.84425 3.8365 0)
(6.9649 5.06929 0)
(6.95961 6.17816 0)
(7.0738 6.84155 0)
(7.10571 7.03653 0)
(7.1978 6.85145 0)
(7.14129 6.49421 0)
(7.07015 6.01015 0)
(6.91344 5.42567 0)
(6.93614 4.60135 0)
(6.99823 3.75447 0)
(7.12668 3.1042 0)
(7.10251 2.95274 0)
(6.95912 3.1431 0)
(6.70513 3.50619 0)
(6.63197 3.68401 0)
(6.44153 3.53043 0)
(6.54683 3.18793 0)
(6.38036 2.70085 0)
(6.38042 2.27271 0)
(6.28397 1.86207 0)
(6.20095 1.47026 0)
(6.23037 1.18957 0)
(6.01562 0.899995 0)
(6.1524 0.727571 0)
(5.83272 0.575178 0)
(6.00003 0.509337 0)
(5.65433 0.424479 0)
(5.82038 0.45584 0)
(5.45163 0.402563 0)
(5.67558 0.450154 0)
(5.30757 0.418062 0)
(5.55738 0.446949 0)
(5.27578 0.400714 0)
(5.50931 0.423765 0)
(5.28098 0.36838 0)
(5.50841 0.365498 0)
(5.34608 0.329272 0)
(5.48215 0.319088 0)
(5.41142 0.281831 0)
(5.47442 0.271271 0)
(5.46447 0.269797 0)
(5.41157 0.240866 0)
(5.52288 0.251953 0)
(5.35709 0.229615 0)
(5.54973 0.264607 0)
(5.28916 0.222578 0)
(5.59603 0.27321 0)
(5.24032 0.230629 0)
(5.62845 0.302705 0)
(5.19514 0.246977 0)
(5.67382 0.329386 0)
(5.1827 0.26991 0)
(5.70428 0.373797 0)
(5.1683 0.315109 0)
(5.73389 0.408969 0)
(5.20255 0.360287 0)
(5.7476 0.456691 0)
(5.23112 0.440282 0)
(5.74891 0.49511 0)
(5.31493 0.519038 0)
(5.71681 0.541999 0)
(5.43217 0.629687 0)
(5.66005 0.587535 0)
(5.57948 0.738496 0)
(5.54729 0.673457 0)
(5.79113 0.848861 0)
(5.45566 0.755734 0)
(5.9606 0.96764 0)
(5.37683 0.917624 0)
(6.06601 1.08257 0)
(5.43768 1.10087 0)
(6.0771 1.1656 0)
(5.61694 1.32906 0)
(5.92402 1.34003 0)
(5.84601 1.59543 0)
(5.8052 1.51033 0)
(6.09483 1.81274 0)
(5.78684 1.85877 0)
(6.12084 2.0421 0)
(5.95072 2.25428 0)
(5.96066 2.35922 0)
(6.1951 2.63252 0)
(5.94345 2.917 0)
(6.30503 3.09515 0)
(6.09687 3.5527 0)
(5.98214 3.97852 0)
(6.14605 4.42611 0)
(5.98758 5.05975 0)
(5.6199 6.32416 0)
(7.35905 6.72883 0)
(4.80162 10.7199 0)
(5.45604 -0.144119 0)
(5.4085 -0.215656 0)
(5.50285 -0.436945 0)
(5.30205 -0.477437 0)
(5.25927 -0.347361 0)
(5.0421 -0.0921391 0)
(4.86419 0.250455 0)
(4.87868 0.703116 0)
(5.06232 0.90857 0)
(5.44237 0.912497 0)
(6.41875 1.1368 0)
(7.01004 1.13588 0)
(7.4716 1.00317 0)
(8.52232 0.625625 0)
(8.79735 0.0711278 0)
(9.08759 -0.348647 0)
(9.54268 -0.764067 0)
(9.62405 -1.27059 0)
(10.1071 -1.68344 0)
(10.5612 -2.14233 0)
(11.1682 -2.45464 0)
(11.5734 -2.71637 0)
(12.4172 -3.21889 0)
(13.1033 -3.81766 0)
(13.6656 -4.40204 0)
(14.0264 -5.02194 0)
(14.1111 -5.62227 0)
(13.891 -6.00724 0)
(13.3625 -6.24041 0)
(13.1656 -6.39156 0)
(12.806 -6.51198 0)
(12.7617 -6.4207 0)
(12.5128 -6.29651 0)
(12.4506 -5.98857 0)
(12.353 -5.79305 0)
(12.4654 -5.4667 0)
(12.5181 -5.13661 0)
(12.4013 -4.76974 0)
(12.3874 -4.19717 0)
(12.1283 -3.93498 0)
(11.9851 -3.23904 0)
(11.4901 -2.6944 0)
(11.1715 -2.36795 0)
(10.6304 -1.57771 0)
(10.1671 -1.24562 0)
(9.89322 -1.16655 0)
(9.00961 -0.669517 0)
(8.59531 -0.839594 0)
(8.60046 -1.47927 0)
(8.04983 -1.15053 0)
(7.35979 -0.950322 0)
(7.78152 -1.84883 0)
(8.30203 -2.84113 0)
(8.33389 -3.07419 0)
(7.94002 -2.76544 0)
(7.71961 -2.44503 0)
(7.86392 -2.28367 0)
(7.84952 -1.95729 0)
(8.40495 -1.08882 0)
(8.83281 0.504725 0)
(8.77839 2.8919 0)
(8.7062 4.87525 0)
(8.419 6.56261 0)
(7.74694 8.12618 0)
(7.47211 9.0087 0)
(7.06889 10.2766 0)
(6.78787 11.229 0)
(6.52555 10.8732 0)
(6.43741 9.69467 0)
(6.33567 8.45174 0)
(6.29964 7.3374 0)
(6.03176 6.19469 0)
(6.06482 4.47877 0)
(6.10225 2.35035 0)
(6.34386 0.140417 0)
(6.72028 -2.07506 0)
(6.88448 -4.28929 0)
(7.13519 -5.92448 0)
(7.22805 -6.76922 0)
(7.36893 -7.24921 0)
(7.48605 -7.58371 0)
(7.30086 -7.47379 0)
(6.94522 -6.56496 0)
(6.28205 -5.5291 0)
(6.06042 -4.63061 0)
(5.48034 -3.99858 0)
(5.35124 -3.58662 0)
(5.09354 -3.71926 0)
(4.90687 -4.01655 0)
(4.87278 -4.27912 0)
(4.48127 -5.07811 0)
(5.10797 -5.31424 0)
(4.37829 -5.45766 0)
(4.63799 -6.06346 0)
(4.56678 -6.43166 0)
(4.70493 -6.70596 0)
(4.85773 -6.38824 0)
(4.95563 -6.21015 0)
(4.85236 -6.46267 0)
(4.8626 -6.485 0)
(5.14988 -5.797 0)
(5.15683 -5.0281 0)
(5.2394 -4.08607 0)
(5.48554 -2.74004 0)
(5.4831 -1.35094 0)
(5.54273 0.00503311 0)
(5.68596 1.33352 0)
(6.01483 2.56786 0)
(6.13213 3.78845 0)
(6.29229 5.03788 0)
(6.28165 6.12913 0)
(6.43409 6.78665 0)
(6.51965 6.98746 0)
(6.68721 6.83589 0)
(6.68663 6.51981 0)
(6.66129 6.05461 0)
(6.53534 5.43616 0)
(6.61856 4.572 0)
(6.75177 3.72103 0)
(6.87116 3.10333 0)
(6.79067 3.00443 0)
(6.62802 3.22961 0)
(6.37593 3.57407 0)
(6.25367 3.71327 0)
(6.25064 3.54708 0)
(6.19368 3.18879 0)
(6.24299 2.72667 0)
(6.16886 2.29795 0)
(6.1154 1.8752 0)
(6.16288 1.49943 0)
(6.0085 1.20272 0)
(6.10558 0.938042 0)
(5.88199 0.737782 0)
(5.99708 0.637355 0)
(5.69037 0.511037 0)
(5.86962 0.498657 0)
(5.46863 0.463312 0)
(5.72504 0.464558 0)
(5.31432 0.442713 0)
(5.60792 0.480442 0)
(5.22269 0.414473 0)
(5.59684 0.443921 0)
(5.19213 0.394855 0)
(5.60153 0.396388 0)
(5.25042 0.324978 0)
(5.62509 0.358379 0)
(5.2813 0.288326 0)
(5.64495 0.293226 0)
(5.33229 0.255284 0)
(5.6037 0.283226 0)
(5.34596 0.236405 0)
(5.56396 0.249653 0)
(5.36703 0.248092 0)
(5.4792 0.248699 0)
(5.40528 0.251381 0)
(5.41157 0.239939 0)
(5.46452 0.274745 0)