/*--------------------------------*- C++ -*----------------------------------*\
| =========                 |                                                 |
| \\      /  F ield         | OpenFOAM: The Open Source CFD Toolbox           |
|  \\    /   O peration     | Version:  2.4.0                                 |
|   \\  /    A nd           | Web:      www.OpenFOAM.org                      |
|    \\/     M anipulation  |                                                 |
\*---------------------------------------------------------------------------*/
FoamFile
{
    version     2.0;
    format      ascii;
    class       volSymmTensorField;
    location    "0.136";
    object      UPrime2Mean;
}
// * * * * * * * * * * * * * * * * * * * * * * * * * * * * * * * * * * * * * //

dimensions      [0 2 -2 0 0 0 0];

internalField   nonuniform List<symmTensor> 
4400
(
(0.0439866 -0.00437123 0 0.000751525 0 0)
(0.48105 -0.00116126 0 6.31953e-05 0 0)
(0.545157 -0.000771575 0 2.90884e-06 0 0)
(0.613063 -0.000498987 0 1.49376e-06 0 0)
(0.660289 -2.75286e-05 0 6.86633e-07 0 0)
(0.687058 3.96065e-05 0 1.06097e-06 0 0)
(0.703293 -3.8909e-05 0 1.1755e-06 0 0)
(0.744447 7.3721e-05 0 4.22079e-06 0 0)
(0.83381 -0.0132804 0 0.000287501 0 0)
(1.36102 0.0770157 0 0.00960053 0 0)
(0.0305623 0.0130289 0 0.00791457 0 0)
(0.19664 -0.015411 0 0.00136945 0 0)
(0.282848 -0.00914089 0 0.000300955 0 0)
(0.397171 -0.00761467 0 0.000182734 0 0)
(0.514092 -0.00519323 0 0.000119866 0 0)
(0.612077 -0.00320891 0 4.19053e-05 0 0)
(0.647156 -0.00332501 0 7.0527e-05 0 0)
(0.833711 -0.00470987 0 0.00011801 0 0)
(0.695958 -0.0140126 0 0.00097955 0 0)
(2.44323 -0.254504 0 0.0615027 0 0)
(0.101571 0.0325221 0 0.010993 0 0)
(0.0341504 -0.00881568 0 0.00337503 0 0)
(0.0629089 -0.0078566 0 0.00123825 0 0)
(0.118818 -0.0100254 0 0.000907782 0 0)
(0.206981 -0.00968907 0 0.000677806 0 0)
(0.319306 -0.00715699 0 0.000251675 0 0)
(0.346293 -0.00890446 0 0.00048793 0 0)
(0.581001 -0.00238058 0 0.000445413 0 0)
(0.421298 -0.0436276 0 0.00749862 0 0)
(1.68611 -0.249038 0 0.0993181 0 0)
(0.127881 0.0322543 0 0.00847758 0 0)
(0.00541761 0.000994747 0 0.00436028 0 0)
(0.0194668 0.00237374 0 0.0021609 0 0)
(0.0181893 -0.000830455 0 0.00206732 0 0)
(0.0251169 -0.00439866 0 0.00188479 0 0)
(0.0769911 -0.00579422 0 0.00062015 0 0)
(0.0707427 -0.00836223 0 0.00149572 0 0)
(0.219035 -0.00112782 0 0.000911606 0 0)
(0.158253 -0.0311431 0 0.0133734 0 0)
(0.52807 -0.099643 0 0.0989664 0 0)
(0.122237 0.0248236 0 0.00530403 0 0)
(0.00898245 0.00331027 0 0.00348034 0 0)
(0.0510512 0.00817204 0 0.00194649 0 0)
(0.0713818 0.0103438 0 0.00253807 0 0)
(0.065931 0.00821953 0 0.00282123 0 0)
(0.0468347 0.00224309 0 0.00141078 0 0)
(0.0440042 0.00122248 0 0.00181187 0 0)
(0.0447416 -0.00146672 0 0.00208684 0 0)
(0.0638096 -2.60931e-05 0 0.0110473 0 0)
(0.123327 0.00592027 0 0.140194 0 0)
(0.123315 0.0196061 0 0.00333993 0 0)
(0.0109024 0.00231883 0 0.00243839 0 0)
(0.0577269 0.00671483 0 0.00118296 0 0)
(0.105119 0.0115158 0 0.00201217 0 0)
(0.143411 0.0145795 0 0.00282281 0 0)
(0.136143 0.00911801 0 0.00138958 0 0)
(0.151301 0.0122829 0 0.00288507 0 0)
(0.135815 0.00596354 0 0.00199852 0 0)
(0.136411 0.0360818 0 0.0186896 0 0)
(0.179678 0.0809812 0 0.0917801 0 0)
(0.124399 0.0151434 0 0.00202727 0 0)
(0.00814321 0.00139933 0 0.00167845 0 0)
(0.0512944 0.00449171 0 0.000690906 0 0)
(0.101909 0.00842035 0 0.00115029 0 0)
(0.149862 0.0120861 0 0.00171783 0 0)
(0.169306 0.00950455 0 0.00158237 0 0)
(0.215907 0.0122315 0 0.00170957 0 0)
(0.225204 0.0162721 0 0.00394907 0 0)
(0.27348 0.0424248 0 0.0104244 0 0)
(0.320556 0.133732 0 0.108693 0 0)
(0.119695 0.0102571 0 0.00102665 0 0)
(0.00474747 0.000816347 0 0.00116067 0 0)
(0.046013 0.00252267 0 0.000494717 0 0)
(0.0986189 0.00591546 0 0.000931784 0 0)
(0.139714 0.00750254 0 0.00137704 0 0)
(0.172709 0.00617529 0 0.00106812 0 0)
(0.206837 0.0105899 0 0.00161189 0 0)
(0.254327 0.0124255 0 0.00265251 0 0)
(0.301793 0.0467157 0 0.0124308 0 0)
(0.427851 0.148001 0 0.0905836 0 0)
(0.117561 0.00620639 0 0.000425203 0 0)
(0.00452464 0.000282066 0 0.000507332 0 0)
(0.0431999 0.0012503 0 0.000313256 0 0)
(0.0962449 0.00301356 0 0.000511638 0 0)
(0.132203 0.00426545 0 0.000798562 0 0)
(0.166864 0.00386873 0 0.000990762 0 0)
(0.199138 0.00604142 0 0.00112127 0 0)
(0.252505 0.013052 0 0.00296192 0 0)
(0.305762 0.0422748 0 0.00894161 0 0)
(0.446308 0.132561 0 0.0644405 0 0)
(0.117767 0.00186353 0 0.000101499 0 0)
(0.00410312 5.69386e-06 0 0.000225718 0 0)
(0.0421854 0.000211026 0 0.000208104 0 0)
(0.0943952 0.00121276 0 0.000317753 0 0)
(0.130501 0.00111975 0 0.000502726 0 0)
(0.16406 0.000934153 0 0.000645663 0 0)
(0.198076 0.00384881 0 0.000603596 0 0)
(0.250901 0.0108305 0 0.00210361 0 0)
(0.312856 0.0362291 0 0.00722391 0 0)
(0.461055 0.125883 0 0.0571866 0 0)
(0.11767 -0.00210753 0 8.84328e-05 0 0)
(0.00394261 -0.000309213 0 0.000172095 0 0)
(0.0418961 -0.000732906 0 0.000163878 0 0)
(0.0941212 -0.00131277 0 0.000232959 0 0)
(0.129564 -0.0016502 0 0.000360176 0 0)
(0.163918 -0.0017151 0 0.000569322 0 0)
(0.197477 0.00098919 0 0.000444024 0 0)
(0.255018 0.0073395 0 0.00174562 0 0)
(0.321503 0.03273 0 0.005656 0 0)
(0.48648 0.110929 0 0.0406028 0 0)
(0.118179 -0.00644803 0 0.000415533 0 0)
(0.00402985 -0.00069772 0 0.000454205 0 0)
(0.0430567 -0.0019646 0 0.000240911 0 0)
(0.0951106 -0.00363719 0 0.000336866 0 0)
(0.132095 -0.00505245 0 0.000508994 0 0)
(0.166388 -0.00502779 0 0.000719442 0 0)
(0.202543 -0.00227557 0 0.000402864 0 0)
(0.261762 0.00447707 0 0.0014873 0 0)
(0.335714 0.0258362 0 0.00413394 0 0)
(0.510612 0.0935307 0 0.0296913 0 0)
(0.120305 -0.0106572 0 0.00102911 0 0)
(0.00408092 -0.00100679 0 0.00101538 0 0)
(0.0454668 -0.00318228 0 0.000428122 0 0)
(0.0957799 -0.0060566 0 0.00067499 0 0)
(0.13844 -0.00826919 0 0.000937929 0 0)
(0.169534 -0.0078624 0 0.00104083 0 0)
(0.212297 -0.0052363 0 0.000544241 0 0)
(0.267985 0.00062544 0 0.00137504 0 0)
(0.351823 0.0196134 0 0.00293371 0 0)
(0.525383 0.0745154 0 0.0208493 0 0)
(0.122294 -0.0152774 0 0.00202835 0 0)
(0.00478945 -0.0012733 0 0.00165419 0 0)
(0.049981 -0.00480204 0 0.000710075 0 0)
(0.0972056 -0.00845992 0 0.00111368 0 0)
(0.149091 -0.0120358 0 0.00153801 0 0)
(0.168541 -0.0105854 0 0.00149784 0 0)
(0.217471 -0.00856829 0 0.00084801 0 0)
(0.247879 -0.00222663 0 0.00128698 0 0)
(0.328149 0.0130986 0 0.00208394 0 0)
(0.450738 0.0535218 0 0.0131609 0 0)
(0.120293 -0.0196679 0 0.0033855 0 0)
(0.005754 -0.00198728 0 0.00237814 0 0)
(0.0542332 -0.0069009 0 0.00122479 0 0)
(0.0991133 -0.0113313 0 0.00185707 0 0)
(0.139241 -0.0144782 0 0.00232752 0 0)
(0.132007 -0.0105623 0 0.00196782 0 0)
(0.152621 -0.00802336 0 0.00103772 0 0)
(0.145441 -0.00183547 0 0.00123951 0 0)
(0.183752 0.00841516 0 0.00156179 0 0)
(0.247888 0.0324299 0 0.00779202 0 0)
(0.121715 -0.0249052 0 0.00533169 0 0)
(0.00640516 -0.00308274 0 0.0034509 0 0)
(0.0485225 -0.00827079 0 0.00200804 0 0)
(0.0664914 -0.0100982 0 0.00250452 0 0)
(0.06208 -0.00837386 0 0.00250049 0 0)
(0.0398614 -0.00272023 0 0.00174828 0 0)
(0.0396928 -0.00131372 0 0.000813041 0 0)
(0.0389879 0.001908 0 0.000850093 0 0)
(0.0501492 0.00364617 0 0.0010288 0 0)
(0.0923595 0.0154265 0 0.00462836 0 0)
(0.127792 -0.0323167 0 0.00850881 0 0)
(0.00472977 -0.000878643 0 0.00433772 0 0)
(0.0180712 -0.00243275 0 0.00221376 0 0)
(0.0154925 0.000972743 0 0.00201848 0 0)
(0.0228903 0.00444611 0 0.00160806 0 0)
(0.0598449 0.00604582 0 0.000960526 0 0)
(0.0866923 0.00388333 0 0.000383905 0 0)
(0.123882 0.00302928 0 0.000442138 0 0)
(0.126774 -0.00190171 0 0.000623302 0 0)
(0.132384 0.00367953 0 0.00270652 0 0)
(0.101468 -0.0325254 0 0.0110053 0 0)
(0.0342627 0.00883519 0 0.00336237 0 0)
(0.0619361 0.00789573 0 0.0012595 0 0)
(0.118972 0.0100109 0 0.000889024 0 0)
(0.20328 0.00964386 0 0.000608171 0 0)
(0.307024 0.00698664 0 0.000323962 0 0)
(0.355523 0.00368068 0 0.000115406 0 0)
(0.410943 0.00154158 0 0.000163522 0 0)
(0.396772 -0.0054012 0 0.000315394 0 0)
(0.353535 0.00279489 0 0.0012428 0 0)
(0.0305352 -0.0130202 0 0.00791871 0 0)
(0.196876 0.0153999 0 0.00136708 0 0)
(0.282436 0.00918968 0 0.000305528 0 0)
(0.398168 0.00755664 0 0.000178286 0 0)
(0.510912 0.00519854 0 0.000106296 0 0)
(0.606452 0.00285893 0 5.12349e-05 0 0)
(0.642447 0.001214 0 1.78002e-05 0 0)
(0.680336 -6.75526e-05 0 3.5015e-05 0 0)
(0.652438 -0.00424056 0 9.08078e-05 0 0)
(0.579198 0.00413535 0 0.000482052 0 0)
(0.0440181 0.00437393 0 0.000751727 0 0)
(0.481112 0.00115561 0 6.32507e-05 0 0)
(0.545141 0.000780679 0 2.97062e-06 0 0)
(0.613399 0.000486527 0 1.41486e-06 0 0)
(0.659089 2.70479e-05 0 5.155e-07 0 0)
(0.685486 -9.68525e-05 0 5.47671e-07 0 0)
(0.691955 -0.000136944 0 5.22795e-07 0 0)
(0.695921 -0.00025804 0 1.09283e-06 0 0)
(0.673175 -0.000928403 0 3.5524e-06 0 0)
(0.608062 0.00210203 0 0.000150953 0 0)
(4.33986 -2.75789 0 2.22616 0 0)
(3.8958 -2.02913 0 2.53901 0 0)
(3.6294 -1.58476 0 2.65279 0 0)
(3.82825 -1.41744 0 2.84263 0 0)
(3.99383 -1.19179 0 2.91159 0 0)
(4.09927 -1.12354 0 3.09204 0 0)
(4.42066 -1.11836 0 3.23122 0 0)
(5.04012 -1.11023 0 3.33863 0 0)
(5.00466 -1.33503 0 3.61592 0 0)
(5.95015 -1.81522 0 4.16413 0 0)
(5.55262 -1.88785 0 4.48476 0 0)
(6.08773 -2.0831 0 4.71579 0 0)
(6.21923 -2.09677 0 4.55337 0 0)
(6.19111 -2.32875 0 4.46934 0 0)
(5.98868 -3.01307 0 5.01528 0 0)
(6.05476 -3.75022 0 5.75621 0 0)
(6.01393 -4.04961 0 6.17275 0 0)
(6.56887 -4.60433 0 6.57284 0 0)
(7.04782 -4.92582 0 6.7404 0 0)
(7.28919 -5.26563 0 7.05615 0 0)
(7.74725 -5.43366 0 7.13337 0 0)
(7.36016 -5.1203 0 7.37462 0 0)
(7.79535 -5.20133 0 7.45701 0 0)
(7.78256 -4.95009 0 7.82584 0 0)
(8.48746 -5.23228 0 8.29553 0 0)
(8.74222 -5.04617 0 8.70569 0 0)
(8.88227 -4.7886 0 9.06335 0 0)
(9.40419 -4.59633 0 9.30452 0 0)
(9.06776 -3.88037 0 9.50413 0 0)
(9.80733 -3.77362 0 9.97358 0 0)
(9.06315 -2.84252 0 10.5074 0 0)
(9.80573 -2.90726 0 11.1279 0 0)
(9.03138 -1.86449 0 11.1266 0 0)
(9.53547 -1.70501 0 10.8443 0 0)
(8.41732 -0.405635 0 10.6665 0 0)
(8.29715 0.215965 0 10.6609 0 0)
(7.6221 1.36244 0 10.689 0 0)
(7.31462 2.42251 0 10.2329 0 0)
(7.10559 2.96929 0 10.8447 0 0)
(6.75544 3.68019 0 11.1498 0 0)
(6.29501 3.71945 0 11.9811 0 0)
(5.85566 4.11005 0 12.1992 0 0)
(5.54965 4.14761 0 12.2102 0 0)
(5.05844 4.10493 0 12.4078 0 0)
(4.70624 4.16482 0 12.5513 0 0)
(4.13979 3.25838 0 12.8461 0 0)
(4.02867 3.74232 0 12.3714 0 0)
(3.52604 2.26695 0 12.1586 0 0)
(3.41884 3.17116 0 11.6133 0 0)
(3.13882 1.27869 0 11.4752 0 0)
(2.56547 2.0445 0 10.9126 0 0)
(2.96568 0.468312 0 10.8394 0 0)
(2.24747 1.62377 0 10.9539 0 0)
(2.90835 0.0686783 0 10.831 0 0)
(2.21767 1.60953 0 11.5786 0 0)
(2.93382 0.155498 0 11.1976 0 0)
(2.16834 1.50614 0 12.159 0 0)
(3.00876 0.376254 0 11.3737 0 0)
(2.13881 1.08786 0 11.9634 0 0)
(3.06145 0.209867 0 10.8353 0 0)
(1.99033 0.457228 0 10.7304 0 0)
(3.28324 -0.42957 0 9.82805 0 0)
(1.9105 -0.047611 0 9.3783 0 0)
(3.60557 -1.13067 0 8.93131 0 0)
(1.88584 -0.130234 0 8.6833 0 0)
(3.84151 -1.49911 0 8.23049 0 0)
(1.86046 0.0885357 0 7.7132 0 0)
(3.60536 -1.6944 0 7.24923 0 0)
(1.84198 0.31919 0 6.74557 0 0)
(3.02177 -1.73371 0 6.44366 0 0)
(1.87216 0.513058 0 6.06445 0 0)
(2.53007 -1.44304 0 5.63216 0 0)
(2.26351 0.742263 0 5.31701 0 0)
(2.37283 -0.901186 0 4.57786 0 0)
(2.57998 1.08496 0 4.59507 0 0)
(2.02767 -0.290061 0 3.86278 0 0)
(1.97962 1.12041 0 4.38895 0 0)
(1.97692 0.213189 0 3.55352 0 0)
(1.84413 1.05219 0 3.9365 0 0)
(1.91461 0.628022 0 3.25377 0 0)
(1.7229 1.06122 0 3.60296 0 0)
(1.71544 0.731259 0 3.02134 0 0)
(1.47419 0.928853 0 3.14101 0 0)
(1.51564 0.690812 0 2.35572 0 0)
(1.29553 0.810246 0 2.39691 0 0)
(1.39686 0.743216 0 1.81275 0 0)
(1.23973 0.781284 0 2.0941 0 0)
(1.29471 0.801595 0 1.71585 0 0)
(1.45072 0.886451 0 2.11606 0 0)
(1.383 0.857161 0 1.67149 0 0)
(1.22226 0.500367 0 1.78393 0 0)
(0.857718 0.405151 0 1.17034 0 0)
(0.767084 -0.0964042 0 1.16162 0 0)
(0.533835 -0.0299555 0 0.6576 0 0)
(0.673408 -0.399533 0 0.718606 0 0)
(0.424855 -0.107777 0 0.517105 0 0)
(0.534944 -0.449022 0 0.744303 0 0)
(0.764363 0.230946 0 1.02614 0 0)
(0.566831 -0.314158 0 1.82877 0 0)
(0.297616 -0.0262197 0 2.79641 0 0)
(3.13277 -2.00133 0 1.91089 0 0)
(2.84496 -1.73044 0 2.19919 0 0)
(2.53766 -1.26092 0 2.18414 0 0)
(2.67764 -1.18163 0 2.26402 0 0)
(2.64619 -1.0921 0 2.31871 0 0)
(2.82171 -1.1483 0 2.45339 0 0)
(3.14336 -1.22431 0 2.56851 0 0)
(3.55287 -1.32407 0 2.68916 0 0)
(3.74935 -1.49042 0 2.90227 0 0)
(4.25859 -1.78379 0 3.29251 0 0)
(4.36707 -1.81397 0 3.53356 0 0)
(4.98694 -2.05894 0 3.76569 0 0)
(5.6307 -2.27693 0 3.85514 0 0)
(5.99213 -2.49955 0 3.90242 0 0)
(6.4412 -3.16492 0 4.37686 0 0)
(7.02342 -4.00173 0 5.10134 0 0)
(7.16535 -4.36882 0 5.65358 0 0)
(7.55843 -4.79181 0 6.14276 0 0)
(7.93546 -5.0541 0 6.36713 0 0)
(7.92451 -5.23239 0 6.7148 0 0)
(8.18935 -5.28176 0 6.77595 0 0)
(7.93236 -5.01765 0 7.03496 0 0)
(8.38368 -5.14207 0 7.27874 0 0)
(8.66296 -5.07962 0 7.68378 0 0)
(8.9834 -5.07118 0 8.11287 0 0)
(9.10632 -4.74183 0 8.41519 0 0)
(9.13493 -4.31526 0 8.74985 0 0)
(9.53586 -4.01324 0 8.97524 0 0)
(9.38227 -3.34226 0 9.12841 0 0)
(10.0776 -3.20987 0 9.5635 0 0)
(9.52854 -2.46203 0 10.2324 0 0)
(10.1507 -2.50986 0 10.9707 0 0)
(9.35221 -1.51881 0 10.9563 0 0)
(9.60627 -1.16306 0 10.5696 0 0)
(8.30432 0.16384 0 10.2722 0 0)
(8.3458 0.681071 0 10.176 0 0)
(7.51635 1.89885 0 10.0858 0 0)
(7.6079 2.72206 0 9.8236 0 0)
(7.21309 3.30311 0 10.6328 0 0)
(7.13414 3.99531 0 11.0679 0 0)
(6.45008 3.98139 0 11.9071 0 0)
(6.30064 4.48127 0 12.154 0 0)
(5.76465 4.43734 0 12.0675 0 0)
(5.48556 4.3815 0 12.422 0 0)
(5.07008 4.50679 0 12.4694 0 0)
(4.57836 3.47474 0 12.8417 0 0)
(4.50193 4.06061 0 12.2436 0 0)
(4.02254 2.50149 0 12.1631 0 0)
(3.75331 3.28679 0 11.6001 0 0)
(3.60264 1.41888 0 11.6091 0 0)
(2.87459 1.96391 0 10.8446 0 0)
(3.21934 0.462951 0 10.8303 0 0)
(2.59053 1.3902 0 10.8399 0 0)
(3.02941 -0.0732178 0 10.7954 0 0)
(2.43525 1.25103 0 11.4122 0 0)
(3.08146 -0.187519 0 11.1717 0 0)
(2.27601 1.25463 0 11.9758 0 0)
(3.25216 -0.015668 0 11.3427 0 0)
(2.16324 0.963262 0 11.8415 0 0)
(3.32615 0.0875988 0 10.8481 0 0)
(2.09737 0.428478 0 10.7777 0 0)
(3.46005 -0.434663 0 9.93861 0 0)
(2.02958 0.0757923 0 9.54492 0 0)
(3.69452 -1.22035 0 9.01999 0 0)
(1.96955 0.0377275 0 8.65607 0 0)
(3.78047 -1.54942 0 8.19706 0 0)
(1.90054 0.307597 0 7.76895 0 0)
(3.41925 -1.74032 0 7.37416 0 0)
(1.92338 0.510348 0 6.82455 0 0)
(2.83499 -1.76403 0 6.48171 0 0)
(2.01178 0.58327 0 6.04528 0 0)
(2.28627 -1.57365 0 5.62932 0 0)
(2.42241 0.701081 0 5.33323 0 0)
(1.87468 -1.10584 0 4.69356 0 0)
(2.25999 0.998849 0 4.78344 0 0)
(1.61798 -0.626611 0 4.16864 0 0)
(1.70016 1.08346 0 4.55262 0 0)
(1.57118 -0.0279651 0 3.73489 0 0)
(1.61869 1.05129 0 4.12551 0 0)
(1.58346 0.524692 0 3.38948 0 0)
(1.58065 1.05655 0 3.86316 0 0)
(1.53869 0.7255 0 3.20272 0 0)
(1.42865 0.9307 0 3.4124 0 0)
(1.36527 0.692735 0 2.48966 0 0)
(1.33243 0.706078 0 2.6497 0 0)
(1.21008 0.639203 0 1.82736 0 0)
(1.39274 0.679275 0 2.37793 0 0)
(1.13524 0.598859 0 1.62153 0 0)
(1.73823 0.608467 0 2.28227 0 0)
(1.28584 0.753662 0 1.59445 0 0)
(2.10213 0.490277 0 2.16903 0 0)
(1.03249 0.423012 0 1.20984 0 0)
(1.83159 -0.202907 0 1.4349 0 0)
(0.543916 -0.0383535 0 0.689632 0 0)
(1.46773 -0.721731 0 0.85801 0 0)
(0.506154 -0.188378 0 0.568237 0 0)
(1.5848 -0.949895 0 0.796111 0 0)
(0.354727 -0.150983 0 0.867325 0 0)
(0.463865 -0.269332 0 1.51746 0 0)
(0.416705 -0.00335411 0 2.94507 0 0)
(1.69906 -0.908661 0 1.00335 0 0)
(1.7532 -1.10928 0 1.51852 0 0)
(1.517 -0.795622 0 1.77805 0 0)
(1.81459 -0.676359 0 1.91741 0 0)
(2.00627 -0.605412 0 1.96148 0 0)
(2.31833 -0.69566 0 2.04152 0 0)
(2.67855 -0.839714 0 2.1423 0 0)
(2.97531 -0.991984 0 2.26448 0 0)
(3.24857 -1.12975 0 2.41099 0 0)
(3.66248 -1.31311 0 2.6672 0 0)
(4.15062 -1.47201 0 2.87358 0 0)
(4.94099 -1.83321 0 3.09492 0 0)
(5.78818 -2.26438 0 3.28967 0 0)
(6.34488 -2.55284 0 3.42954 0 0)
(7.00994 -3.15863 0 3.90357 0 0)
(8.03364 -4.00887 0 4.59301 0 0)
(8.24306 -4.40531 0 5.16111 0 0)
(8.39257 -4.72734 0 5.69575 0 0)
(8.63232 -4.91734 0 5.97859 0 0)
(8.54934 -5.00176 0 6.28916 0 0)
(8.75333 -5.04073 0 6.37064 0 0)
(8.76172 -4.99137 0 6.69538 0 0)
(9.08756 -5.12147 0 7.09317 0 0)
(9.2637 -5.03215 0 7.48461 0 0)
(9.21754 -4.73795 0 7.82345 0 0)
(9.26952 -4.30824 0 8.05475 0 0)
(9.32867 -3.83792 0 8.37797 0 0)
(9.57836 -3.41812 0 8.59557 0 0)
(9.54539 -2.81684 0 8.78207 0 0)
(10.1951 -2.70192 0 9.20653 0 0)
(9.8687 -2.1225 0 9.90079 0 0)
(10.346 -2.06054 0 10.6472 0 0)
(9.45435 -1.02555 0 10.5775 0 0)
(9.46044 -0.489033 0 10.1297 0 0)
(8.20985 0.742623 0 9.76091 0 0)
(8.2647 1.17525 0 9.60804 0 0)
(7.47535 2.35567 0 9.44759 0 0)
(7.79364 2.90762 0 9.41086 0 0)
(7.26136 3.5747 0 10.3442 0 0)
(7.44468 4.173 0 10.9293 0 0)
(6.60226 4.18935 0 11.7153 0 0)
(6.7624 4.75247 0 11.9584 0 0)
(6.03194 4.67031 0 11.8003 0 0)
(5.98127 4.57488 0 12.294 0 0)
(5.45264 4.73772 0 12.2432 0 0)
(5.23114 3.66351 0 12.6457 0 0)
(4.99669 4.30565 0 11.9711 0 0)
(4.80388 2.71176 0 12.0724 0 0)
(4.09906 3.33558 0 11.4173 0 0)
(4.308 1.54101 0 11.5975 0 0)
(3.28454 1.96867 0 10.6507 0 0)
(3.67074 0.361835 0 10.7052 0 0)
(2.91443 1.10618 0 10.4859 0 0)
(3.24306 -0.190332 0 10.6032 0 0)
(2.73467 0.863165 0 11.0285 0 0)
(3.1111 -0.351041 0 10.9009 0 0)
(2.53043 0.906735 0 11.6329 0 0)
(3.33788 -0.285765 0 11.1798 0 0)
(2.35714 0.819938 0 11.5621 0 0)
(3.48117 -0.10089 0 10.7786 0 0)
(2.28351 0.457124 0 10.6278 0 0)
(3.51574 -0.474036 0 9.83168 0 0)
(2.21415 0.206918 0 9.49918 0 0)
(3.59188 -1.23656 0 8.91667 0 0)
(2.08237 0.225478 0 8.60673 0 0)
(3.45997 -1.57558 0 8.16015 0 0)
(2.03788 0.506092 0 7.69763 0 0)
(3.11515 -1.69397 0 7.19466 0 0)
(2.10353 0.632657 0 6.6916 0 0)
(2.57408 -1.76265 0 6.38754 0 0)
(2.24961 0.610099 0 5.96748 0 0)
(1.95048 -1.63594 0 5.59381 0 0)
(2.55658 0.631451 0 5.32412 0 0)
(1.41127 -1.22793 0 4.79789 0 0)
(1.97309 0.858132 0 4.89931 0 0)
(1.285 -0.852565 0 4.38135 0 0)
(1.62249 1.0246 0 4.59955 0 0)
(1.12041 -0.221974 0 3.8697 0 0)
(1.60585 1.03615 0 4.23033 0 0)
(1.16181 0.388967 0 3.54927 0 0)
(1.56811 1.02139 0 4.03076 0 0)
(1.25688 0.71208 0 3.36358 0 0)
(1.47695 0.909125 0 3.63035 0 0)
(1.17255 0.708373 0 2.64977 0 0)
(1.32131 0.539428 0 2.87075 0 0)
(1.09859 0.568083 0 1.84215 0 0)
(1.34356 0.416126 0 2.57835 0 0)
(0.951163 0.481087 0 1.58231 0 0)
(1.51735 0.290373 0 2.43136 0 0)
(1.12793 0.520433 0 1.44199 0 0)
(1.9459 0.215156 0 2.30728 0 0)
(1.04738 0.529897 0 1.21875 0 0)
(2.08898 -0.240019 0 1.72133 0 0)
(0.765419 0.0914725 0 0.719005 0 0)
(1.62998 -0.71176 0 1.01345 0 0)
(0.508147 -0.167292 0 0.533611 0 0)
(1.21051 -0.739623 0 0.949898 0 0)
(0.643033 -0.451168 0 0.916431 0 0)
(0.838559 -0.385947 0 1.36175 0 0)
(0.357419 -0.293461 0 3.33527 0 0)
(0.705671 -0.303569 0 0.858532 0 0)
(1.22574 -0.402486 0 1.29648 0 0)
(1.24931 -0.307838 0 1.47351 0 0)
(1.46096 -0.206706 0 1.5855 0 0)
(1.74829 -0.110634 0 1.62658 0 0)
(2.11537 -0.150571 0 1.6905 0 0)
(2.52856 -0.256186 0 1.78926 0 0)
(2.88358 -0.374439 0 1.90462 0 0)
(3.34006 -0.511642 0 2.00699 0 0)
(3.9755 -0.718752 0 2.18973 0 0)
(4.7012 -1.01946 0 2.41543 0 0)
(5.49252 -1.43398 0 2.67037 0 0)
(6.2916 -1.94383 0 2.92296 0 0)
(7.02674 -2.33954 0 3.07637 0 0)
(7.62136 -2.85114 0 3.46559 0 0)
(8.62985 -3.65497 0 4.1056 0 0)
(9.03413 -4.1176 0 4.6314 0 0)
(9.13405 -4.43638 0 5.15166 0 0)
(9.24521 -4.58719 0 5.48828 0 0)
(9.16758 -4.64708 0 5.81671 0 0)
(9.34427 -4.79101 0 6.04697 0 0)
(9.44255 -4.89339 0 6.43881 0 0)
(9.56846 -4.96109 0 6.8406 0 0)
(9.51897 -4.72897 0 7.13803 0 0)
(9.33285 -4.28178 0 7.39169 0 0)
(9.36481 -3.81028 0 7.60703 0 0)
(9.42055 -3.31265 0 7.92199 0 0)
(9.52537 -2.8104 0 8.15686 0 0)
(9.59995 -2.31663 0 8.44028 0 0)
(10.2066 -2.25275 0 8.8963 0 0)
(10.0585 -1.7987 0 9.56687 0 0)
(10.2884 -1.54084 0 10.1927 0 0)
(9.32199 -0.454944 0 10.0369 0 0)
(9.16487 0.178013 0 9.57142 0 0)
(8.10808 1.23751 0 9.18567 0 0)
(8.10664 1.62336 0 8.95586 0 0)
(7.59081 2.67069 0 8.78309 0 0)
(7.92448 3.03067 0 8.98547 0 0)
(7.4096 3.77949 0 10.0411 0 0)
(7.63816 4.231 0 10.7206 0 0)
(6.81206 4.33362 0 11.3887 0 0)
(7.22085 4.93447 0 11.6318 0 0)
(6.38991 4.82263 0 11.4177 0 0)
(6.56258 4.71943 0 12.0307 0 0)
(5.89455 4.87459 0 11.8689 0 0)
(6.04087 3.80114 0 12.2918 0 0)
(5.51484 4.4765 0 11.5331 0 0)
(5.75345 2.91841 0 11.8902 0 0)
(4.55031 3.37366 0 11.1222 0 0)
(5.25715 1.60651 0 11.398 0 0)
(3.79083 2.05755 0 10.3346 0 0)
(4.45963 0.337221 0 10.5884 0 0)
(3.3041 0.978314 0 10.0734 0 0)
(3.71953 -0.363219 0 10.4253 0 0)
(3.12163 0.543571 0 10.5889 0 0)
(3.29866 -0.493226 0 10.6105 0 0)
(2.9287 0.488775 0 11.1955 0 0)
(3.39513 -0.385989 0 10.8487 0 0)
(2.69566 0.594643 0 11.1448 0 0)
(3.61333 -0.228277 0 10.5571 0 0)
(2.57681 0.534813 0 10.3694 0 0)
(3.59552 -0.574641 0 9.74944 0 0)
(2.3899 0.370403 0 9.41872 0 0)
(3.45825 -1.20028 0 8.84587 0 0)
(2.193 0.426247 0 8.48289 0 0)
(3.22083 -1.49707 0 7.94522 0 0)
(2.17833 0.66205 0 7.49914 0 0)
(2.91003 -1.61768 0 7.09476 0 0)
(2.29498 0.744126 0 6.61441 0 0)
(2.45003 -1.73326 0 6.31076 0 0)
(2.46738 0.646439 0 5.81918 0 0)
(1.79768 -1.66701 0 5.52012 0 0)
(2.50922 0.587974 0 5.21806 0 0)
(1.32741 -1.38118 0 4.88088 0 0)
(1.89931 0.770952 0 4.84021 0 0)
(1.07836 -1.01747 0 4.46008 0 0)
(1.77553 0.997153 0 4.52307 0 0)
(0.82939 -0.425928 0 3.97797 0 0)
(1.76718 1.00436 0 4.2186 0 0)
(0.883631 0.137381 0 3.70695 0 0)
(1.72999 0.957926 0 4.06728 0 0)
(1.01891 0.58907 0 3.4908 0 0)
(1.71201 0.882185 0 3.83545 0 0)
(1.03952 0.672204 0 2.79302 0 0)
(1.56268 0.436414 0 3.15759 0 0)
(0.939647 0.480894 0 1.86237 0 0)
(1.43215 0.179226 0 2.86918 0 0)
(0.889016 0.370879 0 1.50733 0 0)
(1.3677 -0.0109748 0 2.66697 0 0)
(0.902646 0.450656 0 1.33646 0 0)
(1.24092 -0.0633062 0 2.49876 0 0)
(1.05773 0.476148 0 1.13254 0 0)
(1.50516 -0.231477 0 1.92641 0 0)
(0.824037 0.169 0 0.744788 0 0)
(2.17759 -0.387128 0 1.20326 0 0)
(0.423935 -0.210698 0 0.504597 0 0)
(0.836002 -0.486782 0 0.91162 0 0)
(0.436354 -0.359007 0 0.746496 0 0)
(1.20198 0.198105 0 0.855286 0 0)
(0.51968 0.127274 0 3.1811 0 0)
(0.295141 0.0483005 0 0.461289 0 0)
(0.645159 0.027727 0 0.762827 0 0)
(1.05633 0.0723925 0 0.98483 0 0)
(1.40955 0.155837 0 1.16782 0 0)
(1.80823 0.252162 0 1.28635 0 0)
(2.25403 0.275181 0 1.37696 0 0)
(2.79496 0.241612 0 1.4468 0 0)
(3.37443 0.16256 0 1.52706 0 0)
(4.04014 -0.0115769 0 1.62234 0 0)
(4.74603 -0.27357 0 1.79247 0 0)
(5.45359 -0.607208 0 2.02962 0 0)
(6.1717 -0.992472 0 2.30296 0 0)
(6.89266 -1.46983 0 2.6011 0 0)
(7.70461 -1.94646 0 2.79975 0 0)
(8.26668 -2.40382 0 3.09347 0 0)
(8.99011 -3.09914 0 3.66056 0 0)
(9.47883 -3.62535 0 4.15031 0 0)
(9.64572 -3.99485 0 4.61485 0 0)
(9.6922 -4.1903 0 4.97854 0 0)
(9.64002 -4.3064 0 5.37215 0 0)
(9.78261 -4.55589 0 5.76655 0 0)
(9.80852 -4.64383 0 6.17059 0 0)
(9.71879 -4.55387 0 6.46641 0 0)
(9.5528 -4.20587 0 6.66959 0 0)
(9.35002 -3.71184 0 6.88452 0 0)
(9.35039 -3.2485 0 7.13481 0 0)
(9.36122 -2.73464 0 7.45103 0 0)
(9.45675 -2.27294 0 7.72884 0 0)
(9.68845 -1.91154 0 8.11078 0 0)
(10.2086 -1.84798 0 8.60487 0 0)
(10.0809 -1.41407 0 9.1797 0 0)
(10.0062 -0.933169 0 9.55539 0 0)
(9.03828 0.160984 0 9.32095 0 0)
(8.80568 0.795412 0 8.89888 0 0)
(7.98213 1.65198 0 8.53857 0 0)
(8.0024 1.98686 0 8.29589 0 0)
(7.89812 2.84435 0 8.17317 0 0)
(8.0849 3.09564 0 8.61723 0 0)
(7.6984 3.87946 0 9.73168 0 0)
(7.68792 4.16093 0 10.4385 0 0)
(7.1035 4.4214 0 10.9389 0 0)
(7.64506 4.94872 0 11.166 0 0)
(6.79467 4.88566 0 10.9093 0 0)
(7.1992 4.80362 0 11.6514 0 0)
(6.33773 4.8864 0 11.3798 0 0)
(6.99918 3.93145 0 11.8192 0 0)
(5.99953 4.47353 0 10.9646 0 0)
(6.76716 3.11292 0 11.6012 0 0)
(5.0527 3.3884 0 10.7212 0 0)
(6.24708 1.67039 0 11.0818 0 0)
(4.38124 2.05996 0 9.84913 0 0)
(5.41268 0.279453 0 10.2646 0 0)
(3.83917 0.904247 0 9.48621 0 0)
(4.44604 -0.547013 0 10.1061 0 0)
(3.54278 0.345266 0 9.8966 0 0)
(3.75479 -0.673906 0 10.2332 0 0)
(3.38608 0.178724 0 10.588 0 0)
(3.53624 -0.473261 0 10.4568 0 0)
(3.0298 0.316645 0 10.6121 0 0)
(3.62902 -0.292822 0 10.2221 0 0)
(2.7765 0.547936 0 9.98138 0 0)
(3.56484 -0.678132 0 9.54974 0 0)
(2.561 0.558904 0 9.10262 0 0)
(3.29579 -1.12737 0 8.60492 0 0)
(2.32676 0.622961 0 8.15651 0 0)
(3.02099 -1.36199 0 7.73961 0 0)
(2.34141 0.802156 0 7.24501 0 0)
(2.78294 -1.5199 0 6.88338 0 0)
(2.53687 0.827867 0 6.30073 0 0)
(2.37749 -1.66203 0 6.10714 0 0)
(2.69229 0.690587 0 5.57926 0 0)
(1.74 -1.66114 0 5.47143 0 0)
(2.50265 0.580487 0 5.03472 0 0)
(1.21255 -1.42695 0 4.93071 0 0)
(2.20066 0.773549 0 4.67924 0 0)
(0.792999 -1.02722 0 4.50592 0 0)
(2.14784 1.00058 0 4.39723 0 0)
(0.591799 -0.565684 0 4.08096 0 0)
(2.04503 0.983675 0 4.09542 0 0)
(0.622966 -0.101188 0 3.83178 0 0)
(2.06466 0.950285 0 3.93301 0 0)
(0.761724 0.406197 0 3.6295 0 0)
(2.05581 0.923759 0 3.83402 0 0)
(0.890976 0.633051 0 2.94457 0 0)
(1.8796 0.47679 0 3.36216 0 0)
(0.788792 0.411902 0 1.89031 0 0)
(1.73751 0.032221 0 3.10874 0 0)
(0.726506 0.413681 0 1.4913 0 0)
(1.3778 -0.401054 0 2.90019 0 0)
(0.799512 0.407988 0 1.26959 0 0)
(1.43532 -0.488207 0 2.65943 0 0)
(1.03368 0.477745 0 1.13802 0 0)
(1.62057 -0.328227 0 2.11899 0 0)
(0.732307 0.253842 0 0.801306 0 0)
(1.63625 0.000904339 0 1.4628 0 0)
(0.749714 -0.288241 0 0.5609 0 0)
(1.22475 -0.0045558 0 1.06119 0 0)
(1.37331 -0.890796 0 1.03938 0 0)
(0.594449 -0.0575282 0 0.523674 0 0)
(0.304942 0.392335 0 3.06653 0 0)
(0.349648 0.224762 0 0.362654 0 0)
(0.648756 0.371991 0 0.686508 0 0)
(1.20671 0.521121 0 0.884146 0 0)
(1.8215 0.590001 0 1.00583 0 0)
(2.36656 0.629334 0 1.08682 0 0)
(2.87745 0.649883 0 1.12821 0 0)
(3.47433 0.612844 0 1.14867 0 0)
(4.10255 0.503706 0 1.20658 0 0)
(4.728 0.292197 0 1.31731 0 0)
(5.36623 0.0222514 0 1.48119 0 0)
(6.04236 -0.288287 0 1.69846 0 0)
(6.75324 -0.63577 0 1.94814 0 0)
(7.44583 -1.0577 0 2.24594 0 0)
(8.17699 -1.54814 0 2.50991 0 0)
(8.71027 -1.995 0 2.7843 0 0)
(9.15801 -2.54294 0 3.29578 0 0)
(9.50581 -3.04178 0 3.7863 0 0)
(9.70844 -3.44823 0 4.22026 0 0)
(9.82928 -3.75678 0 4.58441 0 0)
(9.85721 -4.00456 0 5.00547 0 0)
(9.92341 -4.25106 0 5.43731 0 0)
(9.77128 -4.18131 0 5.78225 0 0)
(9.55754 -3.92558 0 5.98935 0 0)
(9.38588 -3.50173 0 6.15535 0 0)
(9.25397 -3.0068 0 6.3641 0 0)
(9.26208 -2.58531 0 6.64888 0 0)
(9.34956 -2.13252 0 6.97497 0 0)
(9.56075 -1.82166 0 7.30966 0 0)
(9.90937 -1.56623 0 7.76288 0 0)
(10.207 -1.40996 0 8.24692 0 0)
(9.96171 -0.909029 0 8.68585 0 0)
(9.57874 -0.241626 0 8.83744 0 0)
(8.72442 0.744074 0 8.59759 0 0)
(8.47459 1.32178 0 8.22606 0 0)
(7.94953 1.96861 0 7.87413 0 0)
(8.05156 2.21389 0 7.63011 0 0)
(8.37899 2.88357 0 7.60411 0 0)
(8.26452 3.09828 0 8.28577 0 0)
(8.00972 3.90441 0 9.44012 0 0)
(7.71594 4.04917 0 10.0756 0 0)
(7.44279 4.44089 0 10.3658 0 0)
(7.97194 4.83392 0 10.613 0 0)
(7.15554 4.82338 0 10.2999 0 0)
(7.8217 4.79309 0 11.1616 0 0)
(6.80625 4.8092 0 10.7705 0 0)
(7.97916 4.03915 0 11.218 0 0)
(6.57891 4.41608 0 10.2876 0 0)
(7.67722 3.23922 0 11.2426 0 0)
(5.77264 3.3348 0 10.1737 0 0)
(7.22095 1.75511 0 10.619 0 0)
(5.1207 2.06426 0 9.31889 0 0)
(6.40892 0.310683 0 9.94045 0 0)
(4.50777 0.828416 0 8.92389 0 0)
(5.38559 -0.673514 0 9.81483 0 0)
(4.11825 0.175703 0 9.20674 0 0)
(4.41409 -0.947874 0 9.84979 0 0)
(3.86136 -0.0260031 0 9.79436 0 0)
(3.8286 -0.654153 0 10.0565 0 0)
(3.35007 0.133313 0 9.90404 0 0)
(3.71616 -0.374185 0 9.83221 0 0)
(2.83061 0.528473 0 9.49749 0 0)
(3.56223 -0.661016 0 9.27045 0 0)
(2.57266 0.719034 0 8.70053 0 0)
(3.23198 -0.970689 0 8.44534 0 0)
(2.3782 0.804996 0 7.80365 0 0)
(2.99517 -1.16551 0 7.56495 0 0)
(2.4725 0.937551 0 6.86234 0 0)
(2.81903 -1.36289 0 6.71967 0 0)
(2.68165 0.900983 0 6.00989 0 0)
(2.42506 -1.59244 0 6.07157 0 0)
(2.87388 0.748083 0 5.29644 0 0)
(1.82932 -1.6658 0 5.45154 0 0)
(2.71345 0.64085 0 4.73241 0 0)
(1.17708 -1.42838 0 4.94955 0 0)
(2.61792 0.823188 0 4.41997 0 0)
(0.758679 -1.06651 0 4.54236 0 0)
(2.53595 0.99531 0 4.18457 0 0)
(0.57589 -0.703091 0 4.15362 0 0)
(2.45307 0.969388 0 3.90097 0 0)
(0.552575 -0.322043 0 3.94934 0 0)
(2.43604 0.907698 0 3.71621 0 0)
(0.694912 0.180242 0 3.77916 0 0)
(2.3392 0.905766 0 3.74159 0 0)
(0.89117 0.489839 0 3.09903 0 0)
(2.10966 0.548096 0 3.51578 0 0)
(0.81385 0.28727 0 1.95655 0 0)
(1.98762 0.0516769 0 3.19271 0 0)
(0.85661 0.360027 0 1.5192 0 0)
(1.47222 -0.348506 0 3.1115 0 0)
(0.909862 0.417969 0 1.23143 0 0)
(1.46735 -0.708712 0 2.82352 0 0)
(0.970391 0.457128 0 1.0592 0 0)
(2.76087 -0.529232 0 2.33952 0 0)
(0.778422 0.182541 0 0.794254 0 0)
(5.31615 0.138539 0 1.49996 0 0)
(0.747933 -0.0605355 0 0.645614 0 0)
(4.76578 0.498928 0 0.967908 0 0)
(0.600841 -0.0549445 0 1.25371 0 0)
(0.976858 0.0973847 0 0.503182 0 0)
(0.208607 0.157071 0 2.85588 0 0)
(0.56301 0.311585 0 0.304261 0 0)
(0.84739 0.420355 0 0.468225 0 0)
(1.30952 0.519979 0 0.604547 0 0)
(1.91769 0.599641 0 0.719193 0 0)
(2.52736 0.669414 0 0.78976 0 0)
(3.10273 0.71969 0 0.817679 0 0)
(3.69387 0.690413 0 0.843195 0 0)
(4.28979 0.575337 0 0.91977 0 0)
(4.89024 0.380575 0 1.04467 0 0)
(5.54976 0.138005 0 1.19651 0 0)
(6.24209 -0.142553 0 1.38825 0 0)
(6.95546 -0.472428 0 1.60829 0 0)
(7.59344 -0.85284 0 1.88715 0 0)
(8.19901 -1.29966 0 2.19027 0 0)
(8.65698 -1.72363 0 2.49774 0 0)
(8.97317 -2.15847 0 2.96298 0 0)
(9.21486 -2.58088 0 3.44586 0 0)
(9.43757 -3.00628 0 3.90228 0 0)
(9.62313 -3.38775 0 4.31219 0 0)
(9.67069 -3.66384 0 4.72959 0 0)
(9.58668 -3.75562 0 5.08791 0 0)
(9.36003 -3.52376 0 5.30962 0 0)
(9.17646 -3.17715 0 5.42903 0 0)
(9.11301 -2.73322 0 5.59004 0 0)
(9.13254 -2.28802 0 5.8206 0 0)
(9.25501 -1.93743 0 6.14691 0 0)
(9.49983 -1.59267 0 6.53652 0 0)
(9.82405 -1.42209 0 6.94951 0 0)
(10.0843 -1.18338 0 7.40985 0 0)
(10.1022 -0.881195 0 7.81818 0 0)
(9.66313 -0.258892 0 8.08196 0 0)
(9.15607 0.481183 0 8.05428 0 0)
(8.5268 1.28748 0 7.84746 0 0)
(8.33629 1.73753 0 7.55641 0 0)
(8.11935 2.17033 0 7.24394 0 0)
(8.34126 2.26016 0 7.02395 0 0)
(8.86855 2.80217 0 7.10684 0 0)
(8.5117 3.03198 0 8.00031 0 0)
(8.34914 3.87233 0 9.08272 0 0)
(7.87792 3.93094 0 9.58517 0 0)
(7.91595 4.40671 0 9.74458 0 0)
(8.16794 4.59269 0 10.0063 0 0)
(7.47657 4.64337 0 9.57291 0 0)
(8.4687 4.64915 0 10.5715 0 0)