/*--------------------------------*- C++ -*----------------------------------*\
| =========                 |                                                 |
| \\      /  F ield         | OpenFOAM: The Open Source CFD Toolbox           |
|  \\    /   O peration     | Version:  2.4.0                                 |
|   \\  /    A nd           | Web:      www.OpenFOAM.org                      |
|    \\/     M anipulation  |                                                 |
\*---------------------------------------------------------------------------*/
FoamFile
{
    version     2.0;
    format      ascii;
    class       volScalarField;
    location    "0.265";
    object      p;
}
// * * * * * * * * * * * * * * * * * * * * * * * * * * * * * * * * * * * * * //

dimensions      [0 2 -2 0 0 0 0];

internalField   nonuniform List<scalar> 
17600
(
47.2335
31.5669
27.1539
25.9999
25.0584
24.0936
23.1966
22.4709
21.6916
20.9277
20.2559
19.4839
18.7544
18.1175
17.3674
16.7353
16.0549
15.4454
14.8002
14.0536
45.3253
31.6168
27.1948
26.0095
25.0616
24.0946
23.1965
22.471
21.6927
20.9268
20.2563
19.4844
18.7532
18.1182
17.3673
16.7348
16.0548
15.4434
14.8041
14.032
43.9119
31.8729
27.3387
26.0475
25.0756
24.0993
23.1982
22.4731
21.6949
20.9264
20.2574
19.4849
18.7519
18.1196
17.3668
16.7346
16.0548
15.439
14.8205
14.0498
42.9361
32.2142
27.5589
26.1125
25.1049
24.1144
23.2067
22.4801
21.7001
20.9287
20.2602
19.4859
18.7515
18.1217
17.3672
16.7348
16.057
15.4318
14.8513
14.1187
42.114
32.5495
27.8233
26.1944
25.147
24.1426
23.2264
22.4956
21.711
20.9363
20.2666
19.4885
18.7535
18.125
17.3697
16.7359
16.0636
15.4226
14.8963
14.2296
41.3393
32.843
28.1015
26.2765
25.1885
24.1779
23.2563
22.5199
21.7285
20.9507
20.2777
19.4936
18.759
18.1303
17.3753
16.739
16.0745
15.4187
14.9314
14.3972
40.6097
33.0918
28.3795
26.3538
25.2197
24.2103
23.2901
22.5493
21.7509
20.9706
20.293
19.5015
18.7681
18.1379
17.3846
16.7446
16.0898
15.4205
14.9669
14.486
39.9359
33.2987
28.6491
26.4287
25.2403
24.2352
23.3228
22.5801
21.7756
20.9925
20.3104
19.5106
18.7796
18.147
17.3974
16.7529
16.1086
15.4263
15.0379
14.7401
39.3238
33.4664
28.9023
26.5067
25.2523
24.2521
23.3515
22.6106
21.8007
21.0145
20.3278
19.5203
18.7912
18.1574
17.4102
16.7649
16.1268
15.4438
15.0198
14.786
38.7758
33.5949
29.1359
26.5898
25.2584
24.2612
23.3754
22.6396
21.8258
21.0346
20.3448
19.5287
18.8031
18.1677
17.423
16.7787
16.146
15.4652
15.0415
15.0363
38.2898
33.6863
29.3499
26.677
25.2595
24.2639
23.3949
22.6666
21.8503
21.0532
20.3608
19.5356
18.8144
18.1781
17.4358
16.7922
16.1682
15.4943
15.0875
15.1305
37.8621
33.7465
29.544
26.7678
25.2563
24.2613
23.4106
22.6914
21.8743
21.0706
20.3752
19.5414
18.8253
18.1888
17.4477
16.8094
16.1909
15.5302
15.1394
15.2211
37.4907
33.7828
29.7179
26.8617
25.2504
24.2544
23.4226
22.7137
21.8979
21.0862
20.3881
19.5467
18.8355
18.1998
17.4596
16.8289
16.2168
15.5669
15.1974
15.3124
37.1727
33.8018
29.8709
26.9547
25.2434
24.245
23.4315
22.7337
21.9204
21.1
20.3995
19.5513
18.8452
18.2112
17.4721
16.8496
16.2455
15.6123
15.2481
15.3891
36.9046
33.8101
30.002
27.0383
25.2371
24.2351
23.4385
22.7506
21.9413
21.1126
20.4088
19.5565
18.8541
18.2237
17.4849
16.8756
16.2716
15.6625
15.3044
15.4555
36.6837
33.813
30.1105
27.1096
25.2329
24.2261
23.4438
22.7639
21.9609
21.1232
20.4165
19.5621
18.8626
18.2357
17.5004
16.8959
16.3088
15.7027
15.3989
15.4853
36.5093
33.8135
30.196
27.1683
25.2315
24.218
23.4478
22.7738
21.9783
21.1286
20.4227
19.568
18.8717
18.2412
17.5184
16.9162
16.3457
15.7451
15.4906
15.5957
36.3799
33.8129
30.2587
27.2138
25.2309
24.2124
23.4506
22.7802
21.993
21.1369
20.4256
19.5762
18.8766
18.2554
17.529
16.9475
16.3746
15.7954
15.5048
15.6582
36.2945
33.8119
30.2995
27.245
25.2309
24.209
23.4529
22.7825
22.0051
21.1435
20.4273
19.5846
18.8837
18.2672
17.5468
16.9732
16.4087
15.8432
15.531
15.7845
36.2521
33.8117
30.3193
27.2613
25.2305
24.2087
23.4551
22.781
22.0138
21.1487
20.4246
19.5948
18.8899
18.2797
17.5653
16.9975
16.4447
15.8899
15.5916
15.864
36.2526
33.8125
30.3183
27.2622
25.2297
24.2116
23.4574
22.7758
22.0195
21.1526
20.4224
19.6053
18.897
18.2901
17.5862
17.0207
16.484
15.9333
15.6902
15.9159
36.2957
33.8141
30.297
27.2476
25.2282
24.2175
23.4595
22.767
22.0216
21.1554
20.4184
19.6161
18.9046
18.2986
17.6102
17.0436
16.5233
15.9786
15.7808
16.0243
36.382
33.8162
30.2551
27.2182
25.2261
24.2266
23.4613
22.7549
22.0194
21.1574
20.4119
19.6318
18.9111
18.3094
17.6295
17.0731
16.554
16.0359
15.7974
16.0827
36.5122
33.8179
30.1917
27.1743
25.2246
24.2374
23.4631
22.7397
22.0141
21.1576
20.4043
19.6445
18.9195
18.3178
17.652
17.1016
16.5875
16.0904
15.8224
16.1977
36.6875
33.818
30.1057
27.1164
25.2246
24.2496
23.4642
22.7216
22.0055
21.1567
20.3951
19.6569
18.929
18.3238
17.6763
17.1304
16.6235
16.1414
15.8853
16.2749
36.9094
33.8145
29.9967
27.0452
25.2265
24.2627
23.464
22.7006
21.9944
21.154
20.3854
19.6673
18.9405
18.3273
17.7029
17.1582
16.6627
16.1896
15.985
16.3232
37.179
33.8055
29.8649
26.9614
25.2304
24.2763
23.4615
22.6774
21.9802
21.1501
20.3741
19.6771
18.9529
18.3296
17.7296
17.1887
16.7007
16.2412
16.076
16.4192
37.4988
33.7859
29.7111
26.8684
25.2359
24.289
23.4565
22.652
21.9629
21.1456
20.3606
19.6879
18.9647
18.3332
17.7524
17.2264
16.7314
16.3041
16.1
16.4482
37.8715
33.7483
29.5374
26.772
25.2416
24.2987
23.4489
22.6242
21.9442
21.1397
20.3465
19.6956
18.9785
18.3338
17.7777
17.2627
16.767
16.3656
16.1289
16.5332
38.3
33.6852
29.3443
26.6789
25.2447
24.3038
23.438
22.5948
21.9238
21.1321
20.332
19.7009
18.9932
18.3322
17.8042
17.2986
16.8064
16.4257
16.1928
16.5808
38.787
33.5912
29.1321
26.5909
25.243
24.3036
23.4222
22.5647
21.9025
21.1228
20.3164
19.7049
19.0082
18.3287
17.8302
17.3353
16.8472
16.4873
16.2878
16.5924
39.3355
33.4623
28.9006
26.5075
25.2359
24.2973
23.4014
22.5335
21.8807
21.112
20.2994
19.7071
19.0235
18.3236
17.8551
17.3712
16.8904
16.5476
16.4073
16.575
39.947
33.2959
28.6503
26.4288
25.2219
24.2835
23.3764
22.5009
21.8584
21.1004
20.2814
19.7076
19.0379
18.3192
17.8758
17.4058
16.9305
16.6062
16.5114
16.5811
40.6195
33.0907
28.3847
26.3529
25.1984
24.2611
23.3485
22.4684
21.8359
21.0879
20.2648
19.7062
19.05
18.3168
17.8923
17.4361
16.9648
16.6599
16.582
16.5601
41.3474
32.8425
28.1116
26.2749
25.1642
24.23
23.3195
22.4386
21.8143
21.0755
20.252
19.7039
19.059
18.3168
17.9052
17.4593
16.9934
16.7005
16.6331
16.5883
42.121
32.5488
27.8366
26.1924
25.1202
24.1948
23.2935
22.4154
21.7967
21.0658
20.2448
19.7021
19.0652
18.3194
17.9146
17.4752
17.0149
16.7284
16.6666
16.6039
42.9431
32.2125
27.5741
26.1106
25.0768
24.1665
23.2757
22.4017
21.7857
21.0597
20.2427
19.7012
19.0687
18.3232
17.9206
17.4843
17.0287
16.7461
16.6831
16.6205
43.9193
31.8698
27.3547
26.0456
25.0474
24.1513
23.2672
22.3969
21.7805
21.0565
20.244
19.701
19.0696
18.3271
17.9239
17.4877
17.0359
16.7552
16.6899
16.6387
45.3331
31.6132
27.2109
26.0071
25.0342
24.1466
23.2643
22.3966
21.7789
21.0543
20.246
19.7011
19.0683
18.3297
17.9252
17.4871
17.0381
16.7581
16.6908
16.6595
47.2413
31.5633
27.1699
25.997
25.0315
24.1462
23.263
22.3971
21.779
21.0527
20.247
19.7017
19.0663
18.3306
17.926
17.485
17.0378
16.758
16.6891
16.6888
15.4152
15.904
16.0947
16.4461
15.5301
12.9901
9.49737
4.09862
-2.21316
-8.16979
-14.2402
-20.1014
-25.7195
-30.6206
-33.9289
-35.6506
-36.528
-36.8269
-36.2673
-35.0358
-32.4859
-29.3337
-26.2287
-22.831
-19.2205
-14.6594
-10.2291
-6.47786
-2.4317
1.42083
5.99958
10.5616
14.3004
18.6667
22.4585
25.5187
28.3574
30.9535
32.9593
34.9465
36.5926
37.5652
38.6593
39.4271
39.975
40.2097
40.0088
39.87
40.2336
40.5128
40.1234
38.8388
35.2976
29.5594
22.3945
14.4364
6.09799
-2.33967
-10.7459
-18.9996
-26.6633
-33.2698
-38.1193
-40.5039
-40.6857
-38.7947
-34.7172
-29.6105
-24.4692
-18.2237
-10.0244
-1.07531
7.06733
14.0268
19.6405
23.1714
24.9271
25.9811
26.2355
25.0428
22.4166
18.8229
14.0317
7.15448
0.173619
-6.57043
-14.4227
-21.8008
-27.89
-32.6765
-36.8727
-40.2185
-39.5225
-35.6672
-31.8585
-27.7907
-21.727
-14.7471
-8.24148
-1.61133
5.47435
11.9006
16.8423
20.4433
23.4037
25.4828
27.2692
29.1742
30.4934
31.4323
32.6407
33.4428
33.9374
34.5219
34.7168
34.4033
33.2111
30.0042
25.6941
20.803
14.8681
9.52575
4.35364
-0.593355
-3.47692
-4.93677
-5.67624
-5.61604
-5.04377
-3.53257
-1.11899
2.05963
5.26646
7.61684
9.6781
12.5974
15.8036
19.3561
22.9659
25.6965
27.7722
29.5446
30.7562
31.3287
31.7369
32.2132
32.2225
32.0007
31.7146
31.6863
31.116
30.6758
29.9739
28.564
27.3021
24.754
22.4777
19.8152
17.2809
15.5065
14.2435
12.6839
10.9708
9.6993
8.95735
9.15986
10.7571
13.0135
15.2484
17.5963
20.0102
22.6412
25.3359
27.5245
28.8671
29.4753
29.3577
28.7129
27.3642
24.7811
21.6139
18.2191
15.4697
12.1209
8.23322
4.05399
-0.71354
-10.2773
-14.6457
-22.9243
-27.9998
-28.4591
-28.0881
-24.8235
-22.3707
-19.8454
-16.6027
-11.5128
-7.65315
1.70273
15.3194
15.8837
15.8409
16.0261
15.3277
12.7388
9.48335
4.66407
-1.3048
-7.1624
-13.0049
-18.4259
-23.609
-28.2815
-31.6608
-33.4023
-34.166
-34.504
-34.1412
-33.093
-30.7108
-27.6113
-24.5209
-21.1216
-17.916
-13.9616
-9.88737
-6.42834
-2.66119
0.816815
4.99523
9.61247
13.1441
17.2316
21.1234
24.2834
27.1338
29.8225
32.0456
34.011
35.7111
36.8038
37.8138
38.715
39.2951
39.5614
39.4343
39.2981
39.648
39.9609
39.621
38.6038
35.5151
30.0552
23.0154
15.0998
6.72182
-1.74174
-10.0802
-18.1287
-25.4748
-31.822
-36.503
-38.7157
-38.8841
-37.2387
-33.3976
-28.4589
-23.5056
-17.4458
-9.44113
-0.666861
7.37929
14.2775
19.7939
23.4072
25.3863
26.5505
26.813
25.5546
22.8464
19.0963
14.181
7.19139
-0.0319247
-6.98909
-15.0167
-22.5533
-28.726
-33.8545
-38.328
-41.6226
-40.8515
-36.9824
-33.0587
-28.8352
-22.616
-15.4489
-8.75446
-2.01695
5.22301
11.8348
17.0198
20.8069
23.7656
25.7831
27.5919
29.3969
30.5684
31.4952
32.6072
33.3584
33.6959
34.1845
34.2947
33.8419
32.8746
30.1906
26.4424
22.005
16.5446
11.6056
6.73353
1.96676
-0.912585
-2.36384
-3.23498
-3.49423
-3.15502
-1.6349
0.659247
3.52859
6.43692
8.64719
10.7053
13.6181
16.766
20.1773
23.6971
26.5088
28.4874
30.0287
31.2073
31.7814
32.1541
32.5514
32.5097
32.2751
31.9288
31.8168
31.0377
30.5856
29.6502
28.1763
26.6702
23.6828
21.4117
18.4803
15.7968
14.0098
12.8148
11.0685
9.00608
7.59223
6.69586
6.86954
8.68766
11.0318
13.5301
16.0957
18.7442
21.492
24.4254
26.7846
28.2615
29.0207
29.0778
28.4417
27.347
24.7079
21.6816
18.3745
15.1641
12.4651
7.87935
3.40651
-0.368992
-10.648
-13.6902
-22.0507
-28.0294
-28.3871
-27.8868
-24.8166
-22.3759
-20
-16.7138
-11.7008
-6.43259
2.60615
15.2056
15.8015
15.3521
15.47
15.0709
12.3687
9.085
4.87226
-0.676335
-6.45654
-12.0416
-17.0908
-21.9986
-26.3745
-29.6508
-31.4456
-32.062
-32.2972
-31.9306
-30.9221
-28.5911
-25.6126
-22.6932
-19.481
-16.6349
-13.3673
-9.67825
-6.51583
-3.00173
0.161709
3.91168
8.47822
11.9438
15.7562
19.6771
22.9611
25.848
28.6109
31.0594
33.0216
34.821
36.0368
37.0151
38.0013
38.6002
38.9094
38.8617
38.7307
39.0465
39.3947
39.1257
38.3238
35.6806
30.5391
23.6793
15.8582
7.51067
-0.930409
-9.17017
-16.9613
-23.928
-29.9732
-34.4479
-36.4504
-36.6142
-35.2265
-31.67
-26.968
-22.2373
-16.3552
-8.53182
0.0482435
7.95683
14.8015
20.2276
23.8631
25.9964
27.2579
27.5142
26.1928
23.3866
19.4967
14.463
7.41249
-0.00585529
-7.1613
-15.3483
-23.0501
-29.3227
-34.7976
-39.517
-42.6375
-41.8021
-38.0201
-34.0554
-29.7063
-23.3746
-16.0258
-9.11803
-2.28187
5.08829
11.8331
17.2578
21.2131
24.1576
26.1422
27.9288
29.6207
30.659
31.6444
32.6172
33.3158
33.5624
33.9947
33.9915
33.4305
32.5741
30.2933
27.0878
23.1023
18.1511
13.6852
9.11546
4.53072
1.67689
0.190066
-0.815383
-1.32298
-1.17754
0.339484
2.55182
5.04132
7.63595
9.69117
11.7922
14.673
17.7837
21.0405
24.4627
27.316
29.2313
30.5868
31.7013
32.2622
32.6066
32.9193
32.824
32.5475
32.1439
31.9355
30.9742
30.4589
29.2272
27.769
25.8919
22.5989
20.3151
17.1535
14.3782
12.6498
11.5566
9.52917
7.11475
5.51458
4.3824
4.52748
6.47424
9.06107
11.7458
14.5501
17.4137
20.3858
23.3911
26.0465
27.6146
28.6642
28.8287
28.3312
27.3167
24.9104
21.6994
18.8613
15.4556
12.8381
7.93993
3.48389
-0.533102
-9.98207
-12.5478
-20.8185
-26.9041
-27.7842
-27.5171
-24.7779
-22.5159
-20.0961
-16.8028
-11.6908
-5.62371
2.55428
15.0442
15.6131
15.0668
14.923
14.6735
11.9634
8.65647
4.83688
-0.277798
-5.77824
-11.1104
-15.9026
-20.6386
-24.5408
-27.5304
-29.4095
-29.9451
-29.9571
-29.417
-28.3728
-26.2226
-23.4711
-20.8948
-17.9872
-15.4426
-12.8082
-9.56127
-6.67219
-3.40875
-0.571968
2.73539
7.19456
10.6451
14.2474
18.1369
21.4668
24.42
27.3285
30.0331
32.0107
33.9087
35.2462
36.2081
37.2811
37.9002
38.2575
38.2877
38.1663
38.4426
38.8269
38.6391
37.9851
35.7561
30.9745
24.3351
16.6633
8.4277
0.0625041
-8.06709
-15.5519
-22.0735
-27.7627
-32.0012
-33.7782
-33.928
-32.8094
-29.5705
-25.1581
-20.6762
-14.9752
-7.31634
1.05086
8.79062
15.5526
20.8983
24.5213
26.7527
28.0904
28.3174
26.9545
24.0628
20.0344
14.889
7.76561
0.196632
-7.11286
-15.4284
-23.3214
-29.7156
-35.4842
-40.3981
-43.2948
-42.368
-38.7098
-34.7951
-30.4045
-23.9973
-16.4511
-9.33296
-2.40251
5.02351
11.9329
17.552
21.6488
24.6113
26.5096
28.3118
29.8043
30.7992
31.8448
32.649
33.2825
33.5525
33.9294
33.8231
33.1604
32.3192
30.3888
27.6791
24.0627
19.6902
15.7094
11.4422
7.10631
4.23698
2.69507
1.60598
0.906029
0.895325
2.37688
4.50427
6.59985
8.86694
10.7646
12.9176
15.7651
18.8505
21.9206
25.2508
28.1531
30.0207
31.2508
32.2438
32.7817
33.1037
33.2884
33.1324
32.7906
32.351
32.0684
30.957
30.3548
28.7312
27.2941
24.9987
21.541
19.2587
15.7189
13.0971
11.386
10.3964
8.18944
5.437
3.50931
2.11761
2.22052
4.23347
7.0272
9.8744
13.0537
16.0993
19.3025
22.4084
25.3698
27.1448
28.2764
28.66
28.2478
27.3252
25.2561
21.9592
19.2013
15.705
12.2222
9.15425
3.2781
-0.674778
-8.82307
-12.8907
-19.8385
-25.4212
-26.8092
-26.5798
-24.4726
-22.4358
-20.211
-17.0299
-11.827
-5.37657
2.07079
14.9003
15.3864
14.8473
14.4283
14.1088
11.5114
8.39591
4.77584
-0.0161001
-5.01531
-9.98364
-14.5531
-19.0283
-22.5319
-25.0898
-27.0013
-27.646
-27.389
-26.6326
-25.6286
-23.8226
-21.3795
-19.1705
-16.6026
-14.3045
-12.1557
-9.4591
-6.90497
-3.85242
-1.24835
1.50914
5.73804
9.18972
12.5962
16.4791
19.9329
22.9433
25.9357
28.8685
30.9624
32.9706
34.4211
35.4358
36.5661
37.2079
37.5987
37.7096
37.6076
37.8348
38.2549
38.1696
37.6079
35.7048
31.2975
24.9167
17.4524
9.4147
1.17035
-6.8083
-13.9243
-19.925
-25.2401
-29.2283
-30.7675
-30.9102
-30.0684
-27.1603
-23.0599
-18.8456
-13.316
-5.81955
2.31506
9.85891
16.5234
21.7888
25.367
27.6526
29.0378
29.2097
27.8194
24.8714
20.7207
15.4617
8.25519
0.524547
-6.88272
-15.2753
-23.3673
-29.9081
-35.9207
-40.9665
-43.5779
-42.5524
-39.0686
-35.2711
-30.923
-24.4635
-16.7177
-9.39381
-2.38381
5.04177
12.1475
17.8899
22.1382
25.0722
26.9256
28.7312
29.9383
31.0311
32.0534
32.6963
33.2922
33.6633
33.9852
33.7867
33.0511
32.2013
30.5424
28.1938
24.92
21.1679
17.6113
13.6754
9.6415
6.74127
5.15406
4.01637
3.16071
3.04207
4.44903
6.46233
8.17831
10.1222
11.8866
14.0443
16.8702
19.9179
22.864
26.0791
28.9542
30.8172
31.9771
32.8683
33.3684
33.6291
33.6702
33.4315
33.0027
32.5459
32.1805
30.9986
30.2888
28.2941
26.7778
24.0778
20.6136
18.2161
14.2759
11.8991
10.2639
9.3465
7.0059
3.96893
1.6687
-0.0805896
-0.119996
2.09605
4.95205
8.05471
11.5303
14.8112
18.1839
21.562
24.6212
26.7351
27.8164
28.6063
28.1593
27.4859
25.5579
22.4476
19.6474
15.7807
12.1096
10.2669
1.96957
0.0210272
-7.87526
-14.3905
-19.0487
-24.5077
-26.0655
-25.9209
-24.1206
-22.2541
-20.2496
-17.2203
-12.1048
-5.52656
1.56237
14.911
15.1122
14.464
13.9618
13.5041
10.9886
8.13463
4.84247
0.340041
-4.26068
-8.792
-12.9279
-17.143
-20.4567
-22.537
-24.2207
-25.0696
-24.8091
-23.8457
-22.8582
-21.3831
-19.3403
-17.5083
-15.3231
-13.231
-11.483
-9.35953
-7.26294
-4.50656
-2.02922
0.21025
4.0759
7.57599
10.8638
14.623
18.1805
21.3692
24.4867
27.5875
29.8559
31.9853
33.5566
34.6774
35.8545
36.5505
36.9323
37.1208
37.0422
37.2129
37.6811
37.7288
37.2089
35.5069
31.4431
25.355
18.1746
10.4294
2.37074
-5.40471
-12.1001
-17.5476
-22.4926
-26.1908
-27.492
-27.6528
-27.0827
-24.4965
-20.7122
-16.7691
-11.402
-4.0661
3.82625
11.1514
17.7088
22.8905
26.3907
28.6806
30.0812
30.1846
28.7444
25.77
21.5518
16.1752
8.92281
0.981688
-6.4842
-14.9156
-23.1814
-29.8895
-36.0651
-41.2111
-43.5457
-42.4108
-39.1105
-35.5093
-31.2781
-24.7306
-16.7816
-9.28507
-2.23781
5.19029
12.4172
18.3034
22.651
25.5286
27.4464
29.0811
30.1176
31.3392
32.2352
32.7436
33.361
33.8831
34.1736
33.9079
33.1575
32.2331
30.7412
28.6684
25.7415
22.5277
19.3063
15.7581
12.0609
9.16304
7.59098
6.42386
5.42761
5.23869
6.54049
8.37568
9.7405
11.378
13.0478
15.1518
17.9941
20.9765
23.8125
26.9432
29.7481
31.6237
32.6884
33.5164
33.996
34.1728
34.0768
33.7465
33.229
32.7449
32.2441
31.0469
30.255
27.9275
26.3405
23.1924
19.9418
17.2396
12.9801
10.9289
9.2175
8.51349
6.0565
2.72781
-0.0963638
-2.22026
-2.29414
-0.0529754
2.88015
6.31362
10.0269
13.589
17.1419
20.6613
23.8687
26.3272
27.5557
28.5243
28.228
27.6178
25.9046
23.0542
20.4718
16.8991
13.3501
10.5226
1.44981
1.52192
-7.54892
-15.501
-18.6274
-24.3138
-25.8105
-25.5868
-23.8258
-21.9568
-20.0673
-17.2109
-12.2712
-5.80611
0.977894
15.1252
15.1382
14.16
13.4929
12.9367
10.4755
7.81028
4.97266
0.905403
-3.46953
-7.51942
-11.1276
-15.0362
-18.2942
-19.969
-21.2678
-22.3115
-22.2404
-21.1578
-20.1346
-19.0214
-17.3724
-15.9045
-14.1308
-12.2576
-10.8467
-9.27954
-7.71813
-5.36731
-2.98842
-1.20569
2.1732
5.64212
8.89536
12.5886
16.2284
19.6433
22.9435
26.2212
28.7009
30.9333
32.6491
33.9343
35.1549
35.9294
36.2796
36.5299
36.4495
36.5465
37.1029
37.3264
36.8011
35.1709
31.3985
25.6365
18.8113
11.4197
3.58966
-3.93122
-10.1358
-15.014
-19.5834
-22.9489
-24.0213
-24.23
-23.9304
-21.6296
-18.1534
-14.4574
-9.25786
-2.0881
5.55802
12.6527
19.0727
24.1605
27.5605
29.8172
31.2073
31.2307
29.7187
26.7248
22.4907
17.0423
9.78077
1.63701
-5.91827
-14.3398
-22.7255
-29.6128
-35.9275
-41.1178
-43.2364
-42.0309
-38.9351
-35.5781
-31.4226
-24.7625
-16.6234
-9.03304
-1.96298
5.47814
12.7446
18.774
23.1434
26.0563
27.9882
29.3645
30.4359
31.6572
32.3966
32.7838
33.4882
34.206
34.4934
34.2098
33.4429
32.3992
31.0496
29.1797
26.5448
23.7417
20.7808
17.6548
14.3308
11.5303
9.98008
8.7726
7.71776
7.46723
8.59196
10.1934
11.2707
12.6167
14.2296
16.2551
19.0689
22.0099
24.7981
27.7998
30.5453
32.4064
33.3983
34.1576
34.5948
34.7023
34.4779
34.0583
33.4703
32.9444
32.283
31.0872
30.1154
27.6255
25.8733
22.4422
19.4328
16.3653
11.9334
10.2247
8.26869
7.83099
5.3118
1.73566
-1.7028
-4.25839
-4.41367
-2.18905
0.946197
4.55611
8.65846
12.3772
16.1602
19.8792
23.3512
26.0359
27.4051
28.2424
28.5299
27.6049
26.5842
23.8435
21.1209
18.757
13.534
10.9593
3.27034
2.49406
-7.25681
-15.0852
-17.9495
-23.44
-25.0695
-24.8959
-23.3257
-21.4539
-19.8353
-17.2385
-12.5022
-6.06742
0.490681
15.056
14.9327
13.9457
12.9622
12.3016
10.0411
7.47979
5.11452
1.64417
-2.56192
-6.25726
-9.30532
-12.7903
-16.0309
-17.48
-18.3487
-19.4874
-19.6559
-18.6415
-17.595
-16.8009
-15.4709
-14.2891
-12.9697
-11.3429
-10.2266
-9.16409
-8.14509
-6.29176
-4.05826
-2.69691
0.0695411
3.45691
6.71292
10.3318
14.0385
17.7186
21.2407
24.7433
27.4912
29.8375
31.7386
33.1743
34.4777
35.3283
35.6332
35.9194
35.8358
35.8297
36.5026
36.9551
36.3994
34.7213
31.1613
25.7349
19.3072
12.2939
4.76178
-2.40733
-8.04943
-12.3757
-16.5776
-19.5821
-20.4319
-20.7045
-20.6826
-18.6114
-15.4095
-11.9292
-6.89121
0.0905468
7.49057
14.3334
20.5944
25.5682
28.8506
31.043
32.401
32.3332
30.742
27.7138
23.4962
18.0359
10.8136
2.5323
-5.13756
-13.5141
-21.9766
-29.0558
-35.4731
-40.7052
-42.6948
-41.4812
-38.6169
-35.494
-31.3653
-24.5548
-16.2301
-8.65027
-1.52693
5.88401
13.1805
19.2462
23.6661
26.6311
28.4637
29.7062
30.8356
31.9548
32.5657
32.8166
33.6804
34.5998
34.9287
34.6494
33.8739
32.7528
31.4944
29.7506
27.3738
24.8368
22.0693
19.4029
16.469
13.7893
12.2622
11.0471
10.0007
9.68138
10.5846
11.8858
12.7387
13.8574
15.3851
17.3497
20.1315
22.9997
25.7728
28.6398
31.3482
33.1501
34.0958
34.7895
35.1837
35.2104
34.8362
34.3345
33.6988
33.1216
32.3251
31.1355
29.8542
27.3299
25.3717
21.7684
19.1144
15.5008
11.2232
9.7835
7.31873
7.24718
4.60073
0.87427
-3.16898
-6.23163
-6.59508
-4.21253
-0.987059
2.91671
7.42174
11.2458
15.1689
19.2777
22.7382
25.7522
27.2031
28.1486
28.8929
27.7027
27.2713
24.5035
21.5768
19.6813
12.2663
12.3188
5.59668
1.78741
-6.07351
-13.1692
-16.5203
-21.5876
-23.6875
-23.7988
-22.5634
-21.0994
-19.511
-17.1617
-12.6267
-6.32991
0.0704957
15.698
15.343
13.8267
12.3942
11.5695
9.67152
7.22415
5.22795
2.4123
-1.51516
-5.01246
-7.5829
-10.5488
-13.746
-15.1543
-15.6367
-16.6858
-17.114
-16.3353
-15.2623
-14.594
-13.5698
-12.637
-11.793
-10.4607
-9.58246
-9.01148
-8.59405
-7.32285
-5.27706
-4.18732
-2.08106
1.02926
4.26001
7.81422
11.5646
15.5684
19.3939
23.1504
26.1997
28.7072
30.825
32.3826
33.8231
34.7186
34.9959
35.2967
35.2642
35.1553
35.8858
36.5593
35.9807
34.1492
30.6853
25.6049
19.6132
13.0396
5.90349
-0.84256
-5.89429
-9.72897
-13.5587
-16.1554
-16.7971
-17.1346
-17.1252
-15.4682
-12.5018
-9.20236
-4.3125
2.45374
9.58613
16.1718
22.2568
27.0963
30.2423
32.3398
33.6393
33.4843
31.8021
28.7329
24.5232
19.1104
11.9816
3.65375
-4.15202
-12.4045
-20.9173
-28.2092
-34.6745
-39.9505
-41.9161
-40.7987
-38.2012
-35.2638
-31.0911
-24.0438
-15.6181
-8.10184
-0.925456
6.44142
13.7245
19.7588
24.2271
27.1799
28.9281
30.1339
31.2369
32.2559
32.7137
32.8571
33.9321
35.0474
35.4486
35.1827
34.4516
33.2887
32.0343
30.3895
28.2352
25.838
23.2823
21.0691
18.4326
15.8985
14.4222
13.2133
12.2395
11.8421
12.479
13.4502
14.099
15.0826
16.5528
18.4289
21.128
23.9702
26.7047
29.4838
32.1224
33.8828
34.8069
35.395
35.7516
35.6846
35.1581
34.5522
33.9104
33.2707
32.4116
31.191
29.5974
27.1231
24.8972
21.2503
18.9272
14.8038
10.6686
9.73476
6.39431
6.58806
3.71601
0.0212764
-4.67319
-8.11328
-8.61723
-6.2335
-2.86175
1.47785
6.18756
10.3115
14.2837
18.7875
22.2013
25.518
27.216
28.315
29.022
28.1905
27.4577
25.2622
22.5524
20.0845
12.8598
14.131
6.51021
0.491448
-4.34271
-11.5976
-15.4555
-20.0007
-22.4683
-22.7749
-21.7176
-20.4452
-19.0256
-16.9574
-12.7258
-6.61853
-0.287334
16.136
15.5746
13.7408
11.9566
10.9062
9.37341
7.12862
5.33826
3.18602
-0.354919
-3.74229
-5.99682
-8.45187
-11.4899
-12.9903
-13.2157
-14.037
-14.6738
-14.1864
-13.0932
-12.4399
-11.6823
-11.0137
-10.587
-9.62019
-9.0234
-8.8859
-9.07487
-8.48288
-6.72742
-5.91496
-4.44895
-1.66129
1.54468
5.06255
8.84494
13.1534
17.3348
21.409
24.8342
27.5873
29.8933
31.5814
33.196
34.1147
34.383
34.7289
34.8466
34.6513
35.3
36.0982
35.4828
33.4141
29.9618
25.2339
19.738
13.6629
6.94602
0.689559
-3.74898
-7.10888
-10.5358
-12.7008
-13.166
-13.5863
-13.772
-12.2472
-9.45323
-6.29233
-1.55322
4.97949
11.8029
18.1377
24.0262
28.7149
31.7074
33.6871
34.9141
34.6715
32.8799
29.7812
25.5597
20.2203
13.241
4.95129
-2.98419
-11.0381
-19.565
-27.0272
-33.5168
-38.8268
-40.8887
-39.966
-37.6575
-34.8651
-30.5253
-23.2096
-14.7901
-7.35923
-0.160105
7.17198
14.33
20.3566
24.8178
27.7068
29.3959
30.5911
31.6525
32.5559
32.8302
32.9545
34.2289
35.5351
36.026
35.8098
35.1577
33.9597
32.6545
31.0754
29.113
26.8263
24.5072
22.6261
20.1821
17.8314
16.4292
15.2756
14.396
13.891
14.2337
14.9012
15.3768
16.2652
17.6909
19.5089
22.0722
24.9005
27.578
30.3033
32.8384
34.5761
35.5109
36.0065
36.2942
36.1084
35.4452
34.7292
34.0921
33.3907
32.544
31.2015
29.3757
27.0242
24.5421
20.9268
18.7965
14.2153
10.2406
9.92194
5.73678
5.80427
2.5948
-1.06802
-6.39486
-9.8779
-10.6146
-8.32407
-4.54848
0.106006
5.16558
9.45689
13.4245
18.2728
22.0172
25.2584
27.4412
28.2904
29.18
28.8824
27.6502
26.6396
23.2815
21.3059
15.6342
15.0314
6.94442
0.444783
-3.10897
-11.1582
-14.981
-18.799
-21.2807
-21.7028
-20.8429
-19.7457
-18.4575
-16.6683
-12.7832
-6.83734
-0.581953
16.2593
15.7646
13.7172
11.7269
10.4733
9.22859
7.1737
5.44059
3.8338
0.786358
-2.42194
-4.50042
-6.53084
-9.30629
-10.9468
-11.0589
-11.6389
-12.3582
-12.1236
-11.0783
-10.4271
-9.86653
-9.41844
-9.40523
-8.79805
-8.54396
-8.77652
-9.48824
-9.75587
-8.41915
-7.85443
-7.09424
-4.74741
-1.57261
1.99332
5.83721
10.4293
15.0643
19.5348
23.3555
26.4361
28.9654
30.8447
32.6116
33.5629
33.8254
34.3056
34.6019
34.2704
34.7133
35.5411
34.864
32.508
29.0148
24.6225
19.6579
14.0644
7.826
2.20107
-1.57553
-4.48175
-7.538
-9.27606
-9.57259
-10.0652
-10.3872
-8.95354
-6.27514
-3.2128
1.36797
7.63784
14.128
20.1934
25.8672
30.3838
33.2107
35.0598
36.215
35.8771
33.9725
30.8449
26.6128
21.3416
14.5651
6.37061
-1.62857
-9.51107
-17.9374
-25.5173
-32.0036
-37.3215
-39.5613
-38.9485
-36.945
-34.2003
-29.5745
-22.0619
-13.7439
-6.42085
0.788154
8.02034
15.0544
21.0269
25.4512
28.2055
29.8613
31.0532
32.0514
32.8392
32.9419
33.1047
34.5369
36.0563
36.6838
36.5311
35.9726
34.7472
33.3562
31.8158
30.0316
27.8406
25.7064
24.0161
21.7454
19.6036
18.2779
17.1937
16.4142
15.8315
15.8757
16.2344
16.5561
17.4192
18.8204
20.5563
22.9757
25.7693
28.4067
31.0887
33.5001
35.2041
36.1466
36.6262
36.8078
36.499
35.692
34.9079
34.2495
33.5072
32.6873
31.1374
29.1896
26.9057
24.3674
20.7819
18.7482
13.7412
10.1799
10.1155
5.65832
5.06082
1.52073
-2.33939
-8.3028
-12.4617
-12.776
-10.2424
-6.10337
-1.09591
4.33923
8.64787
12.8376
17.8213
21.9862
24.9125
27.7346
28.3523
29.7875
29.3999
28.2884
27.6479
22.8304
23.2188
17.6912
14.6773
8.37574
1.57118
-2.39812
-10.5338
-14.1519
-17.3379
-19.7723
-20.4048
-19.8409
-18.9855
-17.8319
-16.2488
-12.7408
-7.00749
-0.785763
16.4435
15.9004
13.7277
11.6591
10.2583
9.17647
7.32174
5.65463
4.34235
1.85516
-1.0949
-3.09859
-4.76504
-7.24303
-8.98028
-9.11579
-9.45271
-10.1121
-10.11
-9.2103
-8.51202
-8.07913
-7.81722
-8.17315
-7.93844
-8.02673
-8.72742
-9.89426
-11.0167
-10.3288
-9.97051
-9.89475
-8.13293
-5.15059
-1.53216
2.511
7.42223
12.5534
17.5019
21.7995
25.265
28.059
30.1856
32.0717
33.0737
33.3519
33.9964
34.3761
33.8359
34.0219
34.8357
34.1076
31.4301
27.8553
23.7564
19.3024
14.2158
8.59106
3.70471
0.595876
-1.94157
-4.62505
-5.89719
-6.02915
-6.58812
-6.96768
-5.56883
-2.96317
0.0234631
4.43957
10.3988
16.5352
22.3068
27.7501
32.0663
34.7147
36.4269
37.5172
37.0926
35.0745
31.9177
27.6781
22.4869
15.9082
7.90424
-0.113525
-7.8809
-16.1141
-23.6818
-30.1501
-35.4427
-37.8963
-37.6522
-35.9393
-33.15
-28.2065
-20.5919
-12.4855
-5.24873
1.8839
8.99465
15.9025
21.7771
26.1333
28.727
30.3659
31.472
32.4294
33.1252
33.067
33.3023
34.8339
36.6352
37.3924
37.3327
36.8929
35.6388
34.1501
32.6547
30.9671
28.8502
26.8746
25.2883
23.1786
21.2096
19.9632
18.9819
18.2707
17.5971
17.3947
17.505
17.6772
18.5212
19.926
21.5649
23.8424
26.5958
29.1895
31.7841
34.0978
35.7611
36.6936
37.2144
37.2886
36.851
35.9344
35.1034
34.4063
33.6844
32.8036
31.1571
29.0365
26.8458
24.2592
20.9546
18.7496
13.7005
10.7498
10.0884
6.35243
4.46931
0.587474
-3.60015
-10.2234
-13.896
-14.6503
-12.1182
-7.63119
-1.9646
3.51989
8.08895
12.4199
17.463
22.0281
24.8787
28.073
28.9496
30.3489
30.0865
28.9457
27.9292
23.4262
25.1084
18.4315
14.2749
10.3274
2.6604
-1.76832
-9.07896
-12.7868
-15.7818
-18.2056
-19.0203
-18.7538
-18.1406
-17.2659
-15.7464
-12.5595
-7.0575
-0.936202
16.5869
16.0045
13.7918
11.6684
10.1606
9.16769
7.54039
5.92993
4.77062
2.81356
0.176789
-1.74066
-3.13298
-5.29799
-7.05501
-7.30205
-7.40227
-7.92413
-8.12011
-7.40885
-6.64325
-6.27377
-6.19951
-6.83205
-7.06131
-7.53214
-8.70408
-10.3678
-12.2641
-12.4786
-12.4257
-12.8418
-11.6303
-8.94263
-5.42355
-1.20626
4.09798
9.79591
15.3101
20.176
24.0675
27.1576
29.5787
31.6007
32.6574
32.9306
33.6283
34.0612
33.4456
33.3745
33.961
33.0931
30.119
26.4812
22.6327
18.6502
14.1385
9.21013
5.11613
2.67581
0.479197
-1.75887
-2.54761
-2.5478
-3.14791
-3.49774
-2.08427
0.471784
3.39685
7.64342
13.2467
18.9875
24.4527
29.6439
33.7246
36.184
37.7587
38.7847
38.3109
36.1766
32.9748
28.7728
23.6618
17.2889
9.53805
1.52568
-6.09796
-14.1682
-21.5799
-27.9705
-33.2068
-35.8561
-35.9797
-34.5173
-31.61
-26.3757
-18.8251
-10.9997
-3.84718
3.07716
10.1083
16.819
22.7009
26.8352
29.3253
30.8957
31.8412
32.8189
33.3587
33.2246
33.5163
35.1338
37.2705
38.108
38.2168
37.8775
36.5948
35.0301
33.5653
31.8863
29.8602
28.0191
26.456
24.4927
22.6831
21.5167
20.6121
19.9386
19.2012
18.788
18.6919
18.7598
19.6024
20.9924
22.5306
24.6812
27.3567
29.9409
32.3939
34.6008
36.2272
37.1717
37.7155
37.7394
37.1625
36.1871
35.2971
34.5973
33.9149
32.959
31.2852
29.0534
26.8433
24.2822
21.2682
18.8277
14.0964
12.3069
9.80994
7.2825
4.25076
-0.182602
-4.83647
-11.978
-14.9826
-16.473
-13.9208
-8.7484
-2.58243
2.86436
7.70599
11.9938
17.2681
22.1731
25.2279
28.217
29.89
30.4112
31.479
29.2876
28.8436
26.1993
26.0831
19.2946
14.6403
11.8049
3.30565
-1.02048
-7.42744
-11.4119
-14.2423
-16.6741
-17.6704
-17.5982
-17.2018
-16.5363
-15.0894
-12.2296
-7.00457
-0.988577
16.6992
16.0745
13.9197
11.8103
10.1979
9.20777
7.76575
6.21057
5.16258
3.65604
1.40222
-0.449822
-1.64621
-3.44952
-5.14575
-5.52876
-5.47875
-5.83593
-6.12945
-5.60077
-4.84041
-4.49331
-4.57346
-5.44137
-6.13235
-7.05532
-8.71667
-10.9369
-13.5677
-14.7238
-15.1941
-16.0134
-15.2608
-12.872
-9.4913
-5.15002
0.497097
6.75275
12.9543
18.5
22.8456
26.2571
29.0245
31.186
32.273
32.563
33.2821
33.8766
33.3558
32.8757
32.8779
31.6735
28.4535
24.836
21.2719
17.7172
13.824
9.65621
6.45147
4.69431
2.82133
1.0807
0.759085
0.866617
0.286187
0.0443823
1.51156
4.02827
6.88057
10.9442
16.1648
21.4622
26.5989
31.5169
35.3251
37.5808
39.0258
39.983
39.4942
37.2748
34.0079
29.8929
24.8574
18.7416
11.2384
3.3198
-4.15606
-12.0635
-19.296
-25.5091
-30.6226
-33.4128
-33.8512
-32.574
-29.516
-24.1125
-16.7921
-9.25774
-2.31217
4.37426
11.327
17.8594
23.7273
27.5659
30.0273
31.4337
32.237
33.1818
33.5402
33.4429
33.707
35.5063
37.934
38.8252
39.1372
38.8519
37.5492
35.9526
34.4934
32.7893
30.8491
29.0957
27.5682
25.7439
24.0549
22.9483
22.0797
21.3984
20.6182
20.0815
19.8529
19.8163
20.6438
22.0131
23.4314
25.5006
28.1013
30.6201
32.897
34.9997
36.5981
37.5864
38.1189
38.1231
37.4352
36.3984
35.4778
34.8045
34.1312
33.1496
31.4671
29.2117
26.9249
24.4363
21.5413
18.748
14.4497
14.5133
9.81507
7.71754
4.41841
-0.551003
-6.06217
-13.3182
-15.4109