/*--------------------------------*- C++ -*----------------------------------*\
| =========                 |                                                 |
| \\      /  F ield         | OpenFOAM: The Open Source CFD Toolbox           |
|  \\    /   O peration     | Version:  2.4.0                                 |
|   \\  /    A nd           | Web:      www.OpenFOAM.org                      |
|    \\/     M anipulation  |                                                 |
\*---------------------------------------------------------------------------*/
FoamFile
{
    version     2.0;
    format      ascii;
    class       volSymmTensorField;
    location    "0.265";
    object      UPrime2Mean;
}
// * * * * * * * * * * * * * * * * * * * * * * * * * * * * * * * * * * * * * //

dimensions      [0 2 -2 0 0 0 0];

internalField   nonuniform List<symmTensor> 
17600
(
(0.0149208 -0.00161769 0 0.000243606 0 0)
(0.153588 -0.000615489 0 1.40211e-05 0 0)
(0.199623 -4.07066e-07 0 1.01351e-06 0 0)
(0.221611 -0.000158626 0 6.43933e-07 0 0)
(0.237078 -0.000122167 0 3.5836e-07 0 0)
(0.248653 -5.21741e-05 0 2.73119e-07 0 0)
(0.256646 -1.3907e-05 0 2.55907e-07 0 0)
(0.263392 4.27384e-07 0 2.64199e-07 0 0)
(0.267614 6.60025e-06 0 3.26466e-07 0 0)
(0.271907 7.03359e-07 0 4.03666e-07 0 0)
(0.274221 -9.39293e-07 0 4.7722e-07 0 0)
(0.278011 -2.0127e-05 0 6.79038e-07 0 0)
(0.279996 -1.7883e-05 0 8.09068e-07 0 0)
(0.28466 -5.4981e-05 0 1.2253e-06 0 0)
(0.28755 -5.77276e-05 0 1.39522e-06 0 0)
(0.296363 -0.00017547 0 2.73193e-06 0 0)
(0.304958 -0.000279058 0 3.18378e-06 0 0)
(0.341735 0.00014702 0 1.11282e-05 0 0)
(0.414528 -0.0114305 0 0.000476979 0 0)
(0.782493 0.0580145 0 0.00782468 0 0)
(0.00718242 0.0032263 0 0.00254441 0 0)
(0.0630361 -0.0060317 0 0.000609289 0 0)
(0.127693 -0.00341605 0 9.31344e-05 0 0)
(0.171637 -0.00242178 0 3.76487e-05 0 0)
(0.209266 -0.00199309 0 2.95715e-05 0 0)
(0.246106 -0.00166847 0 2.73283e-05 0 0)
(0.275899 -0.0013313 0 2.18641e-05 0 0)
(0.303681 -0.00103884 0 1.46712e-05 0 0)
(0.322119 -0.000799895 0 9.00461e-06 0 0)
(0.341975 -0.000668292 0 6.70955e-06 0 0)
(0.352341 -0.00059463 0 5.10158e-06 0 0)
(0.369951 -0.000603099 0 6.63656e-06 0 0)
(0.377016 -0.000648728 0 8.17715e-06 0 0)
(0.397188 -0.000650279 0 1.31275e-05 0 0)
(0.403052 -0.00105018 0 1.73848e-05 0 0)
(0.436577 -0.000896433 0 3.82433e-05 0 0)
(0.439371 -0.00316932 0 7.33657e-05 0 0)
(0.575334 -0.00445717 0 0.000239079 0 0)
(0.572981 -0.0147292 0 0.00107094 0 0)
(1.66798 -0.166667 0 0.0368018 0 0)
(0.0255865 0.00971315 0 0.00401977 0 0)
(0.0105167 -0.00386488 0 0.00174591 0 0)
(0.045 -0.00434633 0 0.000457876 0 0)
(0.0780133 -0.00415006 0 0.000226213 0 0)
(0.11386 -0.00409692 0 0.000172191 0 0)
(0.15734 -0.00393795 0 0.000155317 0 0)
(0.196966 -0.00347157 0 0.00012888 0 0)
(0.237921 -0.0029193 0 8.9107e-05 0 0)
(0.26633 -0.00237394 0 5.54017e-05 0 0)
(0.299158 -0.00203267 0 3.57665e-05 0 0)
(0.315954 -0.00179301 0 2.22525e-05 0 0)
(0.346541 -0.00185462 0 2.67875e-05 0 0)
(0.356998 -0.00183308 0 2.79906e-05 0 0)
(0.391917 -0.00208933 0 5.12518e-05 0 0)
(0.398781 -0.00261851 0 6.03787e-05 0 0)
(0.450044 -0.00299 0 0.000159655 0 0)
(0.456669 -0.00733441 0 0.000278657 0 0)
(0.597089 -0.00908661 0 0.00104693 0 0)
(0.678122 -0.0397992 0 0.00464715 0 0)
(1.42654 -0.223284 0 0.076309 0 0)
(0.0340444 0.010792 0 0.00363358 0 0)
(0.00106127 0.000726074 0 0.00273341 0 0)
(0.00637912 -0.00163621 0 0.00100959 0 0)
(0.0148705 -0.00263866 0 0.000602129 0 0)
(0.0285369 -0.00358517 0 0.000487308 0 0)
(0.0541833 -0.00438402 0 0.000443027 0 0)
(0.0830881 -0.00447462 0 0.000383609 0 0)
(0.119338 -0.00419971 0 0.000275528 0 0)
(0.146021 -0.00361958 0 0.000181311 0 0)
(0.180642 -0.00323509 0 0.000112442 0 0)
(0.197856 -0.00300805 0 7.33162e-05 0 0)
(0.232951 -0.0028653 0 6.82747e-05 0 0)
(0.243428 -0.00332182 0 8.22009e-05 0 0)
(0.283856 -0.00271322 0 0.000123504 0 0)
(0.291033 -0.00513666 0 0.000189636 0 0)
(0.341196 -0.00248125 0 0.000410011 0 0)
(0.364503 -0.0136574 0 0.000924449 0 0)
(0.43122 -0.00738102 0 0.0021803 0 0)
(0.639118 -0.0720166 0 0.0136504 0 0)
(0.83552 -0.117072 0 0.0588486 0 0)
(0.0319084 0.00870201 0 0.00254135 0 0)
(0.00370697 0.0028056 0 0.00285662 0 0)
(0.00524652 0.00151739 0 0.00126173 0 0)
(0.00564577 0.000922429 0 0.000928579 0 0)
(0.00441104 1.04195e-05 0 0.000876809 0 0)
(0.00689683 -0.00153623 0 0.000846082 0 0)
(0.0146314 -0.00249997 0 0.000769398 0 0)
(0.0309761 -0.00322552 0 0.000587838 0 0)
(0.0450986 -0.00310233 0 0.000402789 0 0)
(0.0678738 -0.00321441 0 0.000265835 0 0)
(0.0791633 -0.00294566 0 0.000164322 0 0)
(0.105481 -0.0034297 0 0.000178938 0 0)
(0.114807 -0.00319581 0 0.00015252 0 0)
(0.143151 -0.00438379 0 0.000296148 0 0)
(0.157166 -0.00370912 0 0.000290065 0 0)
(0.183122 -0.00775968 0 0.000867245 0 0)
(0.217319 -0.00610435 0 0.0010964 0 0)
(0.255004 -0.0257089 0 0.00565383 0 0)
(0.378871 -0.0378935 0 0.010772 0 0)
(0.578552 -0.167528 0 0.137372 0 0)
(0.0303467 0.00709804 0 0.0018165 0 0)
(0.00443751 0.00249652 0 0.0025479 0 0)
(0.00874522 0.00222962 0 0.00108895 0 0)
(0.013962 0.00272447 0 0.000896945 0 0)
(0.0172981 0.00328754 0 0.00103838 0 0)
(0.0140577 0.00250867 0 0.00114311 0 0)
(0.0122291 0.00164998 0 0.00113563 0 0)
(0.0104904 0.000100436 0 0.000923276 0 0)
(0.0118765 -0.000440264 0 0.000712506 0 0)
(0.017146 -0.00125103 0 0.000472023 0 0)
(0.0195478 -0.00142951 0 0.000345864 0 0)
(0.0303914 -0.00199478 0 0.000315725 0 0)
(0.0326784 -0.00253728 0 0.000369843 0 0)
(0.0475593 -0.00286614 0 0.00047995 0 0)
(0.0521404 -0.00445571 0 0.000753705 0 0)
(0.0694292 -0.00467123 0 0.00127974 0 0)
(0.0808189 -0.0106733 0 0.00277736 0 0)
(0.116001 -0.0134102 0 0.00542319 0 0)
(0.174676 -0.0488682 0 0.0246412 0 0)
(0.337524 -0.108325 0 0.0932228 0 0)
(0.0317802 0.00616028 0 0.00135857 0 0)
(0.00613873 0.00194058 0 0.00228212 0 0)
(0.0103987 0.00188507 0 0.000892296 0 0)
(0.0168929 0.00248666 0 0.000678554 0 0)
(0.0256281 0.00386153 0 0.000898673 0 0)
(0.0271871 0.00422328 0 0.00113607 0 0)
(0.0312248 0.00446783 0 0.00125636 0 0)
(0.0272399 0.00324648 0 0.00113889 0 0)
(0.0284114 0.00268051 0 0.00089472 0 0)
(0.0240686 0.00151129 0 0.000714815 0 0)
(0.0245714 0.00125536 0 0.000493128 0 0)
(0.0213631 0.000238549 0 0.000586792 0 0)
(0.0212068 3.04392e-05 0 0.000477515 0 0)
(0.0202285 -0.0013126 0 0.000869679 0 0)
(0.0200886 -0.00142775 0 0.000863866 0 0)
(0.0232727 -0.00415475 0 0.00212003 0 0)
(0.0233565 -0.00468516 0 0.00258184 0 0)
(0.0436433 -0.0138909 0 0.0101025 0 0)
(0.0688773 -0.0263126 0 0.0188079 0 0)
(0.188352 -0.082581 0 0.120927 0 0)
(0.03562 0.00546537 0 0.00102557 0 0)
(0.00949328 0.0016082 0 0.0020467 0 0)
(0.0115515 0.00162084 0 0.000835638 0 0)
(0.0179969 0.00202812 0 0.00054369 0 0)
(0.0257234 0.00331809 0 0.000732889 0 0)
(0.0281085 0.00393158 0 0.000996304 0 0)
(0.0359084 0.00479798 0 0.00117877 0 0)
(0.0347643 0.00409963 0 0.0010861 0 0)
(0.0416826 0.00392654 0 0.00101452 0 0)
(0.0397647 0.00294536 0 0.000802327 0 0)
(0.0449024 0.00311315 0 0.000689238 0 0)
(0.0420703 0.00202846 0 0.000713899 0 0)
(0.0442065 0.0024292 0 0.000827659 0 0)
(0.040425 0.000686597 0 0.00107055 0 0)
(0.0399838 0.00145133 0 0.00146676 0 0)
(0.0371232 -0.00201926 0 0.00242347 0 0)
(0.0343157 -0.000687201 0 0.0039648 0 0)
(0.041321 -0.00783126 0 0.00934168 0 0)
(0.0504147 -0.0147895 0 0.0273062 0 0)
(0.123033 -0.0403162 0 0.135347 0 0)
(0.0388912 0.00483046 0 0.000785765 0 0)
(0.0103417 0.00141235 0 0.00179649 0 0)
(0.0101536 0.00147735 0 0.000845253 0 0)
(0.0166424 0.00175918 0 0.000483707 0 0)
(0.0218962 0.00274918 0 0.000619619 0 0)
(0.0239142 0.0032941 0 0.00087154 0 0)
(0.0306894 0.00424585 0 0.00108454 0 0)
(0.0303907 0.00373574 0 0.00110584 0 0)
(0.0385376 0.00364276 0 0.000902069 0 0)
(0.0384885 0.00309466 0 0.000876704 0 0)
(0.0475926 0.00302525 0 0.00072059 0 0)
(0.0474633 0.00298067 0 0.000939053 0 0)
(0.0560072 0.0026187 0 0.00088303 0 0)
(0.055089 0.00278349 0 0.00142509 0 0)
(0.0613686 0.00205153 0 0.00158736 0 0)
(0.05927 0.00164687 0 0.00307092 0 0)
(0.0623289 0.00112849 0 0.00420784 0 0)
(0.0633149 -0.00120884 0 0.0117312 0 0)
(0.0696743 -0.00202439 0 0.0302762 0 0)
(0.111784 -0.00891847 0 0.11615 0 0)
(0.0370186 0.00413969 0 0.000633073 0 0)
(0.00681642 0.00130195 0 0.00158362 0 0)
(0.00670496 0.00132898 0 0.000887515 0 0)
(0.0122439 0.00149025 0 0.000463085 0 0)
(0.0169871 0.00218409 0 0.000562213 0 0)
(0.0196769 0.0027875 0 0.000805011 0 0)
(0.0240523 0.0036186 0 0.00102324 0 0)
(0.0257748 0.00320889 0 0.000967143 0 0)
(0.0312887 0.00299825 0 0.000948874 0 0)
(0.0341862 0.00251384 0 0.000894558 0 0)
(0.0402492 0.00264071 0 0.000826206 0 0)
(0.0447308 0.00250787 0 0.000969728 0 0)
(0.0510326 0.00249279 0 0.00104771 0 0)
(0.0562811 0.00250294 0 0.00152 0 0)
(0.0604991 0.00247192 0 0.00178532 0 0)
(0.0666821 0.002085 0 0.00319456 0 0)
(0.0681954 0.00206413 0 0.00462981 0 0)
(0.0753427 0.00408827 0 0.0127292 0 0)
(0.0775089 0.00303566 0 0.031327 0 0)
(0.113209 0.0163645 0 0.119364 0 0)
(0.0326257 0.00335503 0 0.000518576 0 0)
(0.00336812 0.000990188 0 0.0013946 0 0)
(0.0045353 0.000996019 0 0.000889834 0 0)
(0.00911192 0.00106689 0 0.000457221 0 0)
(0.0140911 0.00149104 0 0.000541307 0 0)
(0.0175687 0.00228967 0 0.000794449 0 0)
(0.0210968 0.00285597 0 0.000982167 0 0)
(0.0240292 0.00257727 0 0.00102211 0 0)
(0.0277082 0.0021008 0 0.000882149 0 0)
(0.0318363 0.00213518 0 0.000918364 0 0)
(0.0362373 0.00171004 0 0.000828735 0 0)
(0.0424678 0.00223765 0 0.00105979 0 0)
(0.0471947 0.00150709 0 0.0010528 0 0)
(0.052769 0.00246563 0 0.00158459 0 0)
(0.0573898 0.00172976 0 0.00173405 0 0)
(0.0641244 0.00218348 0 0.00318229 0 0)
(0.0661582 0.00245363 0 0.0047159 0 0)
(0.0719502 0.00453885 0 0.0126064 0 0)
(0.0771189 0.00707825 0 0.0327785 0 0)
(0.106452 0.023799 0 0.109403 0 0)
(0.0312784 0.00271266 0 0.00043901 0 0)
(0.00302856 0.000479863 0 0.00120811 0 0)
(0.0045667 0.000522486 0 0.000882747 0 0)
(0.00878291 0.000702368 0 0.000431899 0 0)
(0.0135423 0.000969325 0 0.00054046 0 0)
(0.0167615 0.00172415 0 0.000787256 0 0)
(0.0198979 0.00224283 0 0.000934614 0 0)
(0.022531 0.00203567 0 0.00090247 0 0)
(0.0256387 0.00167343 0 0.00090792 0 0)
(0.0295612 0.0015089 0 0.000934419 0 0)
(0.0340244 0.00140037 0 0.000827354 0 0)
(0.0393787 0.00162945 0 0.000992706 0 0)
(0.0436246 0.00121795 0 0.0010182 0 0)
(0.048694 0.00199963 0 0.00151762 0 0)
(0.0541835 0.0013542 0 0.00154393 0 0)
(0.0588963 0.00259848 0 0.00316709 0 0)
(0.061559 0.00228167 0 0.00445531 0 0)
(0.0667867 0.00655472 0 0.0131684 0 0)
(0.0734327 0.00882622 0 0.0317636 0 0)
(0.100485 0.027138 0 0.107789 0 0)
(0.0315431 0.00221498 0 0.000360137 0 0)
(0.00324655 0.00013721 0 0.0010317 0 0)
(0.00397076 0.000152109 0 0.000868545 0 0)
(0.00722907 0.000539659 0 0.000439449 0 0)
(0.0121487 0.000797116 0 0.000510598 0 0)
(0.0152808 0.0014211 0 0.000733426 0 0)
(0.0177146 0.00184963 0 0.000857249 0 0)
(0.0198253 0.00186061 0 0.000863284 0 0)
(0.0229895 0.0014717 0 0.000815228 0 0)
(0.0267805 0.00136109 0 0.000831288 0 0)
(0.030634 0.00115212 0 0.000742506 0 0)
(0.0351875 0.00152064 0 0.000922265 0 0)
(0.0394087 0.00123303 0 0.00088678 0 0)
(0.0448511 0.00184637 0 0.0013302 0 0)
(0.0488322 0.00151605 0 0.00136569 0 0)
(0.0532021 0.0022671 0 0.00287925 0 0)
(0.0559169 0.00307983 0 0.00443767 0 0)
(0.0613113 0.00675191 0 0.0127825 0 0)
(0.0679344 0.0102673 0 0.0315602 0 0)
(0.0957718 0.0314202 0 0.104369 0 0)
(0.0312162 0.0018534 0 0.000293532 0 0)
(0.00233686 0.000133611 0 0.000847636 0 0)
(0.0028809 8.08634e-05 0 0.000793572 0 0)
(0.00589626 0.000480869 0 0.000427902 0 0)
(0.0106438 0.000788179 0 0.00047386 0 0)
(0.0138408 0.00130339 0 0.000659098 0 0)
(0.0158575 0.00166966 0 0.000771744 0 0)
(0.0179559 0.00167862 0 0.000742354 0 0)
(0.0206141 0.00151254 0 0.0007257 0 0)
(0.0243724 0.00128755 0 0.000741304 0 0)
(0.0276994 0.00115594 0 0.000656162 0 0)
(0.0323613 0.00136755 0 0.000804638 0 0)
(0.0359877 0.00124693 0 0.000743091 0 0)
(0.0411275 0.00180591 0 0.00121554 0 0)
(0.0441304 0.00141849 0 0.00119361 0 0)
(0.0492177 0.00249684 0 0.00279578 0 0)
(0.0516913 0.00301447 0 0.00440432 0 0)
(0.0577804 0.00668257 0 0.012777 0 0)
(0.0652032 0.0115014 0 0.0310328 0 0)
(0.0943693 0.0328281 0 0.0996878 0 0)
(0.0308207 0.00152399 0 0.000226016 0 0)
(0.00153962 0.000257334 0 0.00066235 0 0)
(0.0023998 0.000223997 0 0.000624312 0 0)
(0.00522097 0.000522475 0 0.000387954 0 0)
(0.0092534 0.000705194 0 0.000437695 0 0)
(0.0122475 0.00121019 0 0.000593872 0 0)
(0.0141313 0.00144915 0 0.00068266 0 0)
(0.0161488 0.00146222 0 0.00068977 0 0)
(0.0184895 0.00123401 0 0.000659459 0 0)
(0.0219695 0.00112336 0 0.000655658 0 0)
(0.0254654 0.000878623 0 0.00056349 0 0)
(0.0300749 0.00114062 0 0.000713422 0 0)
(0.0334401 0.00081951 0 0.000646349 0 0)
(0.0380656 0.00136951 0 0.00111454 0 0)
(0.0412123 0.000934042 0 0.00110385 0 0)
(0.0463731 0.00223128 0 0.00270369 0 0)
(0.0492668 0.0024297 0 0.00446142 0 0)
(0.0559495 0.00672254 0 0.0129062 0 0)
(0.0642283 0.0122155 0 0.0304291 0 0)
(0.0944025 0.0329249 0 0.0921916 0 0)
(0.0308342 0.00118924 0 0.000185893 0 0)
(0.00121681 0.000158748 0 0.000524425 0 0)
(0.0021092 0.000155977 0 0.000500753 0 0)
(0.00476358 0.000395859 0 0.000357921 0 0)
(0.00874767 0.000453634 0 0.000428995 0 0)
(0.0114059 0.000820384 0 0.000559768 0 0)
(0.0132956 0.00108678 0 0.000640666 0 0)
(0.0150093 0.00101901 0 0.000627081 0 0)
(0.0175078 0.000816316 0 0.000649597 0 0)
(0.0204653 0.000567528 0 0.000653148 0 0)
(0.0241446 0.000499178 0 0.000557437 0 0)
(0.0281934 0.000607261 0 0.000683909 0 0)
(0.0320542 0.000434039 0 0.000612173 0 0)
(0.0360869 0.000702372 0 0.00110446 0 0)
(0.0398355 0.000701855 0 0.00104662 0 0)
(0.0441803 0.00153085 0 0.00274473 0 0)
(0.0482222 0.00246259 0 0.00448851 0 0)
(0.054443 0.00633391 0 0.0129275 0 0)
(0.0640436 0.0134398 0 0.030059 0 0)
(0.0951762 0.0327508 0 0.0823886 0 0)
(0.0308793 0.000846913 0 0.000159959 0 0)
(0.00109496 -4.5631e-05 0 0.000438174 0 0)
(0.00203782 -0.000103004 0 0.000440078 0 0)
(0.00444236 9.59387e-05 0 0.000369863 0 0)
(0.00836246 0.000103472 0 0.000445253 0 0)
(0.0109065 0.00034024 0 0.000558254 0 0)
(0.0127708 0.000559609 0 0.000619352 0 0)
(0.0141922 0.000538787 0 0.000611409 0 0)
(0.0167025 0.000370193 0 0.000620386 0 0)
(0.01951 0.000191169 0 0.000612626 0 0)
(0.0231445 0.000181062 0 0.000497377 0 0)
(0.0269105 0.000329777 0 0.000604663 0 0)
(0.0309356 0.000125153 0 0.000526185 0 0)
(0.0346883 0.000466812 0 0.00098725 0 0)
(0.0384533 0.000366159 0 0.00099503 0 0)
(0.0425271 0.00140071 0 0.00257247 0 0)
(0.0470898 0.00218257 0 0.00448166 0 0)
(0.0534088 0.00669312 0 0.0127231 0 0)
(0.0641418 0.0134305 0 0.0286122 0 0)
(0.095011 0.0365382 0 0.0788278 0 0)
(0.0308416 0.000569974 0 0.000134546 0 0)
(0.00121608 -8.1581e-05 0 0.000351992 0 0)
(0.0023362 -0.000186186 0 0.000356396 0 0)
(0.00456438 -5.02017e-05 0 0.000342337 0 0)
(0.00818409 -2.79127e-05 0 0.000411875 0 0)
(0.0107354 0.000141851 0 0.000502766 0 0)
(0.01242 0.000256574 0 0.000555915 0 0)
(0.0139281 0.000241991 0 0.000554979 0 0)
(0.016074 0.000165984 0 0.00055104 0 0)
(0.0190368 0.000128685 0 0.000538504 0 0)
(0.022363 9.96674e-05 0 0.000414003 0 0)
(0.0262724 0.000237519 0 0.000528992 0 0)
(0.0298731 3.14163e-05 0 0.000443366 0 0)
(0.0337924 0.000325236 0 0.00088384 0 0)
(0.0370648 0.000154232 0 0.00102179 0 0)
(0.0416565 0.00127525 0 0.00231363 0 0)
(0.0460698 0.00204162 0 0.00483462 0 0)
(0.0533428 0.00685304 0 0.011744 0 0)
(0.0650066 0.013557 0 0.0293277 0 0)
(0.0973827 0.0379391 0 0.0726062 0 0)
(0.0307611 0.000356958 0 0.000108355 0 0)
(0.00114917 -3.97167e-05 0 0.000257043 0 0)
(0.00232639 -8.2928e-05 0 0.00024822 0 0)
(0.00458365 1.22997e-05 0 0.000253404 0 0)
(0.00801376 3.60741e-05 0 0.000325358 0 0)
(0.0105303 0.000115491 0 0.000386956 0 0)
(0.0121287 0.000243441 0 0.000424546 0 0)
(0.0138226 0.000148336 0 0.000422457 0 0)
(0.0158513 0.00018 0 0.000431265 0 0)
(0.0187569 4.7593e-05 0 0.000429213 0 0)
(0.0217704 8.46531e-05 0 0.000335621 0 0)
(0.0255996 3.81186e-05 0 0.000454555 0 0)
(0.028988 -4.65849e-05 0 0.000384347 0 0)
(0.0331281 -1.03141e-05 0 0.000807772 0 0)
(0.0363667 7.39291e-05 0 0.000975412 0 0)
(0.0412334 0.000945417 0 0.00223054 0 0)
(0.0456892 0.00218217 0 0.00477766 0 0)
(0.0538392 0.00651686 0 0.0114118 0 0)
(0.0662781 0.0142294 0 0.028656 0 0)
(0.0986876 0.0347787 0 0.0621954 0 0)
(0.0307369 0.000100306 0 9.61743e-05 0 0)
(0.000948044 -4.64431e-05 0 0.000219438 0 0)
(0.00203044 -3.26314e-05 0 0.000192532 0 0)
(0.00425167 2.95261e-05 0 0.000206776 0 0)
(0.00771692 -4.06923e-06 0 0.000276547 0 0)
(0.0101812 3.92977e-05 0 0.000325218 0 0)
(0.0117728 8.42699e-05 0 0.000343527 0 0)
(0.0133272 0.000102006 0 0.000344428 0 0)
(0.0155069 5.20765e-05 0 0.000353648 0 0)
(0.0183106 -3.19172e-05 0 0.000380817 0 0)
(0.0214168 -0.000172403 0 0.000302488 0 0)
(0.0249778 -5.63775e-05 0 0.000421652 0 0)
(0.028594 -0.000357268 0 0.000335777 0 0)
(0.0326075 -5.73482e-05 0 0.000794082 0 0)
(0.0361981 -0.00024889 0 0.000820104 0 0)
(0.040768 0.00100666 0 0.00243854 0 0)
(0.0457708 0.00190181 0 0.00400943 0 0)
(0.0540963 0.00667721 0 0.0126212 0 0)
(0.067914 0.0140343 0 0.0242544 0 0)
(0.100838 0.0326647 0 0.0632982 0 0)
(0.0306995 -0.000117863 0 8.69249e-05 0 0)
(0.000732552 -8.98369e-05 0 0.000203605 0 0)
(0.00177307 -7.85893e-05 0 0.000173599 0 0)
(0.00399358 -7.50873e-05 0 0.000189364 0 0)
(0.00754868 -8.11434e-05 0 0.000247486 0 0)
(0.0099608 -0.000188573 0 0.000285197 0 0)
(0.011519 -0.000132614 0 0.000296056 0 0)
(0.0128672 -0.000206432 0 0.00031212 0 0)
(0.0151024 -0.000109736 0 0.000311625 0 0)
(0.0178907 -0.000307728 0 0.000356571 0 0)
(0.0212421 -0.000271324 0 0.000275603 0 0)
(0.0247326 -0.000367965 0 0.000401985 0 0)
(0.0285403 -0.000382002 0 0.000319853 0 0)
(0.0323071 -0.000434606 0 0.000707244 0 0)
(0.0361453 -0.000172288 0 0.000935447 0 0)
(0.0406209 0.000441868 0 0.00211843 0 0)
(0.0462545 0.00214946 0 0.00452353 0 0)
(0.0548921 0.0058559 0 0.011276 0 0)
(0.0698932 0.0148498 0 0.0246525 0 0)
(0.103621 0.0294841 0 0.0575563 0 0)
(0.0306627 -0.000372251 0 8.54503e-05 0 0)
(0.000662057 -0.000132241 0 0.000216763 0 0)
(0.00168811 -0.000123304 0 0.000182385 0 0)
(0.00394979 -0.000175002 0 0.000185423 0 0)
(0.00753219 -0.000197885 0 0.000241303 0 0)
(0.00995632 -0.000371677 0 0.000267436 0 0)
(0.0114951 -0.000421906 0 0.000294515 0 0)
(0.0128323 -0.00047442 0 0.000317784 0 0)
(0.0150751 -0.000409526 0 0.000322951 0 0)
(0.017884 -0.000473688 0 0.000343043 0 0)
(0.0213662 -0.000512601 0 0.000278078 0 0)
(0.0249006 -0.0004828 0 0.00036564 0 0)
(0.0287595 -0.000685705 0 0.000322118 0 0)
(0.0324946 -0.000531958 0 0.000654083 0 0)
(0.0365334 -0.000664891 0 0.000946376 0 0)
(0.0412404 0.000414405 0 0.00207274 0 0)
(0.0474078 0.00141925 0 0.00439204 0 0)
(0.0566794 0.00615494 0 0.0109497 0 0)
(0.0724425 0.0134445 0 0.0233827 0 0)
(0.1065 0.0319513 0 0.055447 0 0)
(0.0306103 -0.000618521 0 8.80746e-05 0 0)
(0.00069145 -0.000166635 0 0.000249475 0 0)
(0.00172253 -0.000144876 0 0.000202766 0 0)
(0.00405375 -0.000258162 0 0.000181891 0 0)
(0.00763996 -0.000307561 0 0.000233134 0 0)
(0.0101614 -0.000591976 0 0.000264533 0 0)
(0.0117113 -0.000674144 0 0.000297183 0 0)
(0.013233 -0.000756958 0 0.000333641 0 0)
(0.0154008 -0.000629224 0 0.000323587 0 0)
(0.018346 -0.000689206 0 0.000347936 0 0)
(0.0217453 -0.000699521 0 0.000285278 0 0)
(0.025417 -0.000724128 0 0.000359224 0 0)
(0.0291432 -0.000911087 0 0.000336715 0 0)
(0.0331389 -0.000826416 0 0.000619913 0 0)
(0.0372455 -0.000967646 0 0.000982533 0 0)
(0.042366 0.000149255 0 0.00203411 0 0)
(0.0488366 0.00104004 0 0.00433808 0 0)
(0.0588004 0.00607163 0 0.0106266 0 0)
(0.0757792 0.0123674 0 0.0227431 0 0)
(0.11092 0.0334095 0 0.0527012 0 0)
(0.0305689 -0.000877586 0 9.58257e-05 0 0)
(0.000694438 -0.000188877 0 0.000304321 0 0)
(0.00174511 -0.000148038 0 0.000236685 0 0)
(0.00424453 -0.000324456 0 0.000179322 0 0)
(0.00789987 -0.000402932 0 0.000226603 0 0)
(0.0104926 -0.000806008 0 0.000271817 0 0)
(0.0121124 -0.000880319 0 0.000300254 0 0)
(0.0137755 -0.00103253 0 0.000361252 0 0)
(0.0159805 -0.000774167 0 0.000317101 0 0)
(0.0190024 -0.000910393 0 0.000356842 0 0)
(0.0223995 -0.000788473 0 0.000279989 0 0)
(0.0262151 -0.00104702 0 0.000385451 0 0)
(0.0299881 -0.000997151 0 0.00034653 0 0)
(0.0341706 -0.00128293 0 0.000648594 0 0)
(0.038408 -0.000946083 0 0.0010034 0 0)
(0.0438459 -0.00049636 0 0.00201829 0 0)
(0.0506608 0.0012516 0 0.00435722 0 0)
(0.0613419 0.00496143 0 0.00990836 0 0)
(0.0795604 0.0126698 0 0.0228528 0 0)
(0.114276 0.0285048 0 0.0435239 0 0)
(0.0304992 -0.00118143 0 0.000113746 0 0)
(0.000617661 -0.000213913 0 0.000381242 0 0)
(0.00164433 -0.000155473 0 0.000302346 0 0)
(0.00438567 -0.000364458 0 0.00017272 0 0)
(0.00823061 -0.000520604 0 0.000226726 0 0)
(0.0109225 -0.000972909 0 0.000287679 0 0)
(0.0126176 -0.0011425 0 0.000339541 0 0)
(0.0143705 -0.00122916 0 0.000393876 0 0)
(0.0166994 -0.00102962 0 0.000350135 0 0)
(0.0198032 -0.00104533 0 0.000363784 0 0)
(0.0233344 -0.00104531 0 0.000310802 0 0)
(0.0272814 -0.00119268 0 0.000392933 0 0)
(0.0312346 -0.00131952 0 0.000369387 0 0)
(0.0355278 -0.0014473 0 0.000699807 0 0)
(0.0399761 -0.00133191 0 0.000915174 0 0)
(0.045661 -0.000679682 0 0.00229732 0 0)
(0.0529685 0.000721052 0 0.00367234 0 0)
(0.0644233 0.00453615 0 0.0108108 0 0)
(0.0838005 0.0114416 0 0.0194016 0 0)
(0.11903 0.0246815 0 0.0450579 0 0)
(0.0304244 -0.00148504 0 0.000141207 0 0)
(0.000578607 -0.00026948 0 0.000497017 0 0)
(0.00159295 -0.0002085 0 0.000382398 0 0)
(0.0045788 -0.000443268 0 0.000185474 0 0)
(0.008605 -0.000618387 0 0.000230934 0 0)
(0.0114888 -0.00123584 0 0.000328693 0 0)
(0.0133021 -0.00135477 0 0.000376104 0 0)
(0.0152203 -0.0015618 0 0.000468023 0 0)
(0.0176437 -0.00118657 0 0.000370443 0 0)
(0.0209466 -0.00136533 0 0.000415464 0 0)
(0.0246038 -0.00116161 0 0.000320964 0 0)
(0.0287513 -0.0015729 0 0.000423841 0 0)
(0.0328117 -0.00139864 0 0.000389727 0 0)
(0.0373279 -0.00194956 0 0.000688397 0 0)
(0.0419562 -0.00140064 0 0.000993634 0 0)
(0.0480714 -0.00139349 0 0.00216845 0 0)
(0.0559424 0.000593999 0 0.00385948 0 0)
(0.0683165 0.0032724 0 0.010181 0 0)
(0.0886729 0.0107499 0 0.0186985 0 0)
(0.125106 0.0206191 0 0.0450981 0 0)
(0.0304118 -0.0018774 0 0.000183681 0 0)
(0.000614503 -0.000344372 0 0.000623917 0 0)
(0.00168902 -0.000303727 0 0.000498025 0 0)
(0.00495821 -0.00053615 0 0.000191786 0 0)
(0.00914899 -0.000800219 0 0.000247987 0 0)
(0.0122127 -0.00147391 0 0.000374141 0 0)
(0.0142619 -0.0016923 0 0.000453454 0 0)
(0.0163703 -0.00182394 0 0.0005346 0 0)
(0.0189572 -0.00148393 0 0.00043111 0 0)
(0.0224406 -0.00157133 0 0.000443879 0 0)
(0.0262868 -0.00147325 0 0.000365832 0 0)
(0.0306134 -0.00179033 0 0.000442822 0 0)
(0.0349355 -0.00176027 0 0.000437668 0 0)
(0.0396869 -0.00221898 0 0.000701143 0 0)
(0.0446399 -0.00190207 0 0.00104661 0 0)
(0.0511146 -0.00171791 0 0.00210194 0 0)
(0.0596817 -0.000237419 0 0.00390948 0 0)
(0.0728391 0.00265856 0 0.00942608 0 0)
(0.094422 0.00862972 0 0.0184774 0 0)
(0.13164 0.0201242 0 0.0415313 0 0)
(0.0305916 -0.00229143 0 0.000242953 0 0)
(0.000715725 -0.000446411 0 0.000799338 0 0)
(0.00192214 -0.00044042 0 0.000595454 0 0)
(0.00553479 -0.000663335 0 0.000219981 0 0)
(0.00995609 -0.00100228 0 0.000277655 0 0)
(0.0131571 -0.00179618 0 0.000450171 0 0)
(0.0155608 -0.00202537 0 0.000538535 0 0)
(0.0178577 -0.00218465 0 0.000632999 0 0)
(0.02071 -0.00176944 0 0.000494276 0 0)
(0.0243501 -0.00188875 0 0.000503722 0 0)
(0.0284331 -0.00174999 0 0.00040078 0 0)
(0.0330159 -0.00218816 0 0.000494278 0 0)
(0.0376262 -0.00207237 0 0.000475994 0 0)
(0.0427464 -0.00271492 0 0.000766173 0 0)
(0.04801 -0.00231249 0 0.00107047 0 0)
(0.0549372 -0.00232456 0 0.00216332 0 0)
(0.0639928 -0.000913858 0 0.00389067 0 0)
(0.0781262 0.00164318 0 0.00902111 0 0)
(0.101026 0.00664078 0 0.018505 0 0)
(0.139383 0.0186457 0 0.0387756 0 0)
(0.0312394 -0.00280454 0 0.000327566 0 0)
(0.000939721 -0.000574131 0 0.00101237 0 0)
(0.00239014 -0.000657538 0 0.000671144 0 0)
(0.00627153 -0.000828506 0 0.000264979 0 0)
(0.0112399 -0.00129215 0 0.000331836 0 0)
(0.0141671 -0.00214569 0 0.000552069 0 0)
(0.0174714 -0.00245595 0 0.00065708 0 0)
(0.0194238 -0.00257357 0 0.000764344 0 0)
(0.0231959 -0.00214274 0 0.000582521 0 0)
(0.0264066 -0.00222731 0 0.000593864 0 0)
(0.0313527 -0.00206502 0 0.000442859 0 0)
(0.0355639 -0.0026285 0 0.000584576 0 0)
(0.0411256 -0.00237735 0 0.000501074 0 0)
(0.0460243 -0.00327854 0 0.000881462 0 0)
(0.0523019 -0.00264201 0 0.00103612 0 0)
(0.0592074 -0.00314836 0 0.00229026 0 0)
(0.069177 -0.00131603 0 0.00369859 0 0)
(0.0840646 6.26831e-05 0 0.00877736 0 0)
(0.108255 0.00558115 0 0.0177949 0 0)
(0.147645 0.0133448 0 0.0353667 0 0)
(0.0321247 -0.00342953 0 0.000444915 0 0)
(0.00133027 -0.000732891 0 0.001253 0 0)
(0.00325299 -0.000972436 0 0.000733239 0 0)
(0.00713587 -0.00102655 0 0.000319164 0 0)
(0.0132422 -0.00171454 0 0.000406894 0 0)
(0.0151285 -0.00246277 0 0.000650003 0 0)
(0.0203375 -0.00303514 0 0.000798807 0 0)
(0.0208506 -0.00287994 0 0.000867127 0 0)
(0.0269066 -0.00272514 0 0.000710326 0 0)
(0.0283502 -0.00244608 0 0.00065331 0 0)
(0.035759 -0.00258865 0 0.000519645 0 0)
(0.0379567 -0.00286523 0 0.000631641 0 0)
(0.0463015 -0.00297579 0 0.000581567 0 0)
(0.0490533 -0.00351536 0 0.000951755 0 0)
(0.0584695 -0.00341253 0 0.00107882 0 0)
(0.0633116 -0.00348952 0 0.00239623 0 0)
(0.0761602 -0.00235256 0 0.00346389 0 0)
(0.0894796 -0.000407556 0 0.00889035 0 0)
(0.115654 0.00412925 0 0.0157343 0 0)
(0.154153 0.0126023 0 0.0365336 0 0)
(0.0324732 -0.00410834 0 0.000599863 0 0)
(0.00176961 -0.000958714 0 0.00153807 0 0)
(0.00430784 -0.00135878 0 0.000793467 0 0)
(0.00803577 -0.00131743 0 0.000406824 0 0)
(0.0156399 -0.00225905 0 0.000508764 0 0)
(0.0161996 -0.00286001 0 0.000777093 0 0)
(0.023822 -0.00368126 0 0.000943373 0 0)
(0.0223094 -0.0032512 0 0.000995151 0 0)
(0.0316002 -0.00341554 0 0.000836491 0 0)
(0.0302912 -0.00277728 0 0.000736483 0 0)
(0.0415281 -0.00319084 0 0.000580066 0 0)
(0.0402308 -0.00320358 0 0.000688013 0 0)
(0.0529821 -0.00362921 0 0.000634171 0 0)
(0.0512667 -0.00383098 0 0.00100981 0 0)
(0.06543 -0.00406808 0 0.00111199 0 0)
(0.0648515 -0.00376399 0 0.00237811 0 0)
(0.0815598 -0.00285256 0 0.00339288 0 0)
(0.0886898 0.000361383 0 0.00826377 0 0)
(0.115621 0.0057102 0 0.0142634 0 0)
(0.151209 0.0208879 0 0.0351818 0 0)
(0.0319981 -0.00478244 0 0.000791398 0 0)
(0.00225742 -0.00122807 0 0.00182298 0 0)
(0.00519055 -0.00167563 0 0.00084676 0 0)
(0.00902042 -0.00166809 0 0.000498618 0 0)
(0.0178498 -0.00287974 0 0.000638691 0 0)
(0.0179243 -0.00333857 0 0.000916804 0 0)
(0.0272249 -0.00434293 0 0.00110017 0 0)
(0.0245106 -0.00365395 0 0.00111526 0 0)
(0.036004 -0.00408578 0 0.000973521 0 0)
(0.0324089 -0.00312648 0 0.000815116 0 0)
(0.0459584 -0.00373954 0 0.000646419 0 0)
(0.0409877 -0.0034073 0 0.0007341 0 0)
(0.0553286 -0.00402297 0 0.00067519 0 0)
(0.048146 -0.00375568 0 0.00104395 0 0)
(0.0622716 -0.00391187 0 0.00109063 0 0)
(0.0547813 -0.00297908 0 0.00225391 0 0)
(0.069182 -0.00123413 0 0.00320272 0 0)
(0.0703363 0.00357578 0 0.00707016 0 0)
(0.0951496 0.0131441 0 0.0130784 0 0)
(0.140763 0.0351852 0 0.0286918 0 0)
(0.0310512 -0.00544339 0 0.0010365 0 0)
(0.00261784 -0.00151278 0 0.00210235 0 0)
(0.00578613 -0.00184291 0 0.000876648 0 0)
(0.0102201 -0.0020348 0 0.000600032 0 0)
(0.0199498 -0.00347035 0 0.000786659 0 0)
(0.0204534 -0.00387992 0 0.00106639 0 0)
(0.029955 -0.0048531 0 0.0012405 0 0)
(0.0263034 -0.00391425 0 0.00120491 0 0)
(0.0362224 -0.00427487 0 0.00105109 0 0)
(0.0299732 -0.00299984 0 0.000831358 0 0)
(0.039565 -0.00352934 0 0.000660013 0 0)
(0.031031 -0.00268348 0 0.000697683 0 0)
(0.0388418 -0.00316522 0 0.000652192 0 0)
(0.0288737 -0.00207642 0 0.000954985 0 0)
(0.0350438 -0.00205961 0 0.000978584 0 0)
(0.0280146 0.000176846 0 0.00196365 0 0)
(0.0358741 0.00237117 0 0.00269477 0 0)
(0.0450288 0.00971791 0 0.00587765 0 0)
(0.0747315 0.021408 0 0.0104595 0 0)
(0.151676 0.0492796 0 0.021832 0 0)
(0.0300701 -0.00617823 0 0.00136828 0 0)
(0.00281074 -0.00186931 0 0.00232427 0 0)
(0.00638623 -0.00201305 0 0.000935604 0 0)
(0.0118623 -0.00247034 0 0.000730761 0 0)
(0.0212193 -0.0039505 0 0.000949448 0 0)
(0.0207865 -0.00408081 0 0.00119707 0 0)
(0.0257202 -0.00446164 0 0.00131028 0 0)
(0.019106 -0.00300396 0 0.00120594 0 0)
(0.0214459 -0.00284546 0 0.00099792 0 0)
(0.0142788 -0.00132467 0 0.000738755 0 0)
(0.0154085 -0.00152622 0 0.000558946 0 0)
(0.0106977 -0.000332592 0 0.00056541 0 0)
(0.0107138 -0.000516837 0 0.000516995 0 0)
(0.0105171 0.00110394 0 0.000755435 0 0)
(0.0114548 0.00111176 0 0.000752017 0 0)
(0.0198124 0.00423933 0 0.00153275 0 0)
(0.0282621 0.00615463 0 0.00206033 0 0)
(0.0597997 0.0149691 0 0.0044449 0 0)
(0.106282 0.0266185 0 0.00784284 0 0)
(0.220114 0.0537771 0 0.0149302 0 0)
(0.0298994 -0.00712196 0 0.00181894 0 0)
(0.00325548 -0.00244399 0 0.00256756 0 0)
(0.00687272 -0.00227888 0 0.0011166 0 0)
(0.0114015 -0.00267117 0 0.000927553 0 0)
(0.0148234 -0.00332584 0 0.00106667 0 0)
(0.0101136 -0.0023459 0 0.0011791 0 0)
(0.00805449 -0.00160222 0 0.00117167 0 0)
(0.00493827 0.000151754 0 0.000992238 0 0)
(0.00528574 0.000460387 0 0.000757989 0 0)
(0.0100121 0.0015734 0 0.000521979 0 0)
(0.0104863 0.00138417 0 0.000376309 0 0)
(0.0230163 0.00240451 0 0.000370445 0 0)
(0.0225887 0.00226995 0 0.000342236 0 0)
(0.0437433 0.0038529 0 0.000505969 0 0)
(0.0454635 0.00362561 0 0.000506923 0 0)
(0.0770365 0.00696609 0 0.00106013 0 0)
(0.0916677 0.00788921 0 0.00141078 0 0)
(0.147019 0.0173208 0 0.00307924 0 0)
(0.213589 0.0256721 0 0.00520016 0 0)
(0.358297 0.0527957 0 0.00976752 0 0)
(0.0318682 -0.00872172 0 0.00254028 0 0)
(0.00335854 -0.00277255 0 0.00286631 0 0)
(0.00444404 -0.0015417 0 0.00127617 0 0)
(0.00452287 -0.000864383 0 0.00094566 0 0)
(0.00294493 -1.85155e-05 0 0.000890697 0 0)
(0.00512047 0.00167053 0 0.000864651 0 0)
(0.0116126 0.00255917 0 0.000789813 0 0)
(0.0285134 0.00346272 0 0.00062113 0 0)
(0.040071 0.00321651 0 0.000443076 0 0)
(0.0650299 0.003515 0 0.000292141 0 0)
(0.0725898 0.00315817 0 0.000203112 0 0)