/*--------------------------------*- C++ -*----------------------------------*\
| =========                 |                                                 |
| \\      /  F ield         | OpenFOAM: The Open Source CFD Toolbox           |
|  \\    /   O peration     | Version:  2.4.0                                 |
|   \\  /    A nd           | Web:      www.OpenFOAM.org                      |
|    \\/     M anipulation  |                                                 |
\*---------------------------------------------------------------------------*/
FoamFile
{
    version     2.0;
    format      ascii;
    class       volScalarField;
    location    "0.048";
    object      k;
}
// * * * * * * * * * * * * * * * * * * * * * * * * * * * * * * * * * * * * * //

dimensions      [0 2 -2 0 0 0 0];

internalField   nonuniform List<scalar> 
17600
(
0.590242
0.786977
0.938818
1.04137
1.10104
1.12787
1.13171
1.12067
1.10079
1.07629
1.04999
1.02371
0.99859
0.975303
0.95422
0.935498
0.91915
0.905088
0.89296
0.884751
0.380328
0.378528
0.375866
0.373344
0.371175
0.369843
0.369905
0.37184
0.376008
0.382642
0.391864
0.403677
0.417972
0.434522
0.45299
0.472934
0.493838
0.515155
0.536775
0.5562
0.363748
0.349867
0.334429
0.31855
0.303052
0.288614
0.275769
0.264896
0.256243
0.249954
0.246108
0.244733
0.245831
0.249378
0.255327
0.263598
0.274075
0.286607
0.301171
0.317767
0.361465
0.347537
0.333149
0.318509
0.303939
0.289764
0.276271
0.263688
0.25219
0.241899
0.232901
0.225253
0.218992
0.214146
0.210733
0.208773
0.208281
0.209282
0.211865
0.216131
0.361236
0.347799
0.334532
0.321372
0.308383
0.29568
0.283387
0.271619
0.26047
0.250016
0.240309
0.231387
0.223277
0.215995
0.20955
0.203951
0.199204
0.195323
0.192339
0.190248
0.361254
0.348125
0.335506
0.323265
0.31135
0.299766
0.288544
0.277726
0.267352
0.257461
0.248081
0.239234
0.230934
0.223192
0.216012
0.209394
0.203338
0.197846
0.192919
0.18854
0.361278
0.348296
0.336005
0.324272
0.313005
0.302153
0.291692
0.281615
0.271927
0.262636
0.253751
0.245278
0.237223
0.229588
0.222375
0.21558
0.209202
0.203237
0.197681
0.192526
0.361288
0.348366
0.336226
0.324751
0.313844
0.303433
0.293466
0.283908
0.274736
0.265937
0.257502
0.249425
0.241701
0.234327
0.227297
0.220607
0.214252
0.208226
0.202525
0.19715
0.361291
0.348391
0.336314
0.324959
0.314237
0.304073
0.294403
0.285179
0.276362
0.267923
0.259841
0.252098
0.244681
0.237578
0.230781
0.22428
0.218067
0.212136
0.206479
0.201104
0.361291
0.348398
0.336345
0.325042
0.314408
0.304371
0.294868
0.285842
0.277251
0.269054
0.261224
0.253733
0.246561
0.239692
0.23311
0.226802
0.220759
0.214969
0.209425
0.204137
0.36129
0.348399
0.336353
0.325071
0.314476
0.304501
0.295083
0.286169
0.27771
0.269665
0.262
0.254683
0.247691
0.241
0.234592
0.22845
0.222562
0.216914
0.211497
0.206318
0.361289
0.348397
0.336354
0.325079
0.3145
0.304552
0.295176
0.286319
0.277934
0.269977
0.262414
0.25521
0.248337
0.241772
0.235492
0.229479
0.223716
0.218188
0.212885
0.207812
0.361288
0.348395
0.336352
0.325079
0.314506
0.304569
0.295213
0.286384
0.278036
0.270128
0.262623
0.255487
0.24869
0.242208
0.236016
0.230093
0.224423
0.218988
0.213776
0.208791
0.361288
0.348393
0.336349
0.325076
0.314505
0.304573
0.295224
0.286408
0.278079
0.270196
0.262722
0.255625
0.248873
0.242442
0.236306
0.230445
0.224838
0.21947
0.214325
0.209407
0.361287
0.348392
0.336347
0.325073
0.314502
0.304571
0.295225
0.286415
0.278094
0.270223
0.262766
0.255689
0.248963
0.242562
0.23646
0.230637
0.225072
0.219748
0.214649
0.209779
0.361287
0.348391
0.336345
0.32507
0.314499
0.304568
0.295223
0.286415
0.278098
0.270233
0.262783
0.255717
0.249005
0.24262
0.236538
0.230737
0.225198
0.219902
0.214834
0.209996
0.361286
0.34839
0.336343
0.325068
0.314496
0.304565
0.29522
0.286412
0.278097
0.270234
0.262788
0.255727
0.249022
0.242646
0.236575
0.230787
0.225262
0.219983
0.214934
0.210117
0.361286
0.348389
0.336342
0.325066
0.314494
0.304563
0.295218
0.28641
0.278095
0.270233
0.262789
0.25573
0.249028
0.242656
0.236591
0.23081
0.225294
0.220025
0.214987
0.210181
0.361286
0.348389
0.336341
0.325065
0.314493
0.304561
0.295216
0.286408
0.278093
0.270231
0.262788
0.25573
0.24903
0.24266
0.236597
0.23082
0.225308
0.220044
0.215012
0.210213
0.361286
0.348388
0.336341
0.325065
0.314492
0.30456
0.295215
0.286407
0.278092
0.270231
0.262787
0.25573
0.24903
0.242661
0.2366
0.230824
0.225314
0.220052
0.215022
0.210225
0.361286
0.348388
0.336341
0.325065
0.314492
0.30456
0.295215
0.286407
0.278092
0.270231
0.262787
0.25573
0.24903
0.242661
0.2366
0.230824
0.225314
0.220051
0.215021
0.210224
0.361286
0.348389
0.336341
0.325065
0.314493
0.304561
0.295216
0.286408
0.278093
0.270231
0.262788
0.25573
0.24903
0.24266
0.236597
0.23082
0.225308
0.220044
0.215011
0.21021
0.361286
0.348389
0.336342
0.325066
0.314494
0.304563
0.295218
0.28641
0.278095
0.270233
0.262789
0.25573
0.249028
0.242656
0.236591
0.23081
0.225294
0.220024
0.214985
0.210177
0.361286
0.34839
0.336343
0.325068
0.314496
0.304565
0.29522
0.286412
0.278097
0.270234
0.262788
0.255727
0.249022
0.242646
0.236574
0.230787
0.225262
0.219982
0.214932
0.210111
0.361287
0.348391
0.336345
0.32507
0.314499
0.304568
0.295223
0.286415
0.278098
0.270233
0.262783
0.255717
0.249005
0.24262
0.236538
0.230737
0.225197
0.2199
0.214831
0.209989
0.361287
0.348392
0.336347
0.325073
0.314502
0.304571
0.295225
0.286415
0.278094
0.270223
0.262766
0.255689
0.248963
0.242562
0.23646
0.230636
0.225071
0.219746
0.214645
0.209771
0.361288
0.348393
0.336349
0.325076
0.314505
0.304573
0.295224
0.286408
0.278079
0.270196
0.262722
0.255625
0.248873
0.242442
0.236306
0.230444
0.224837
0.219468
0.21432
0.209397
0.361288
0.348395
0.336352
0.325079
0.314506
0.304569
0.295213
0.286384
0.278036
0.270128
0.262623
0.255486
0.24869
0.242208
0.236015
0.230093
0.224422
0.218986
0.213771
0.20878
0.361289
0.348397
0.336354
0.325079
0.3145
0.304552
0.295176
0.286319
0.277934
0.269977
0.262413
0.25521
0.248337
0.241772
0.235492
0.229479
0.223715
0.218186
0.212879
0.2078
0.36129
0.348399
0.336353
0.325071
0.314476
0.304501
0.295083
0.286169
0.27771
0.269665
0.262
0.254683
0.247691
0.240999
0.234591
0.22845
0.222561
0.216911
0.211491
0.206308
0.361291
0.348398
0.336345
0.325042
0.314408
0.304371
0.294868
0.285842
0.277251
0.269054
0.261224
0.253733
0.246561
0.239691
0.233109
0.226801
0.220757
0.214966
0.209419
0.204129
0.361291
0.348391
0.336314
0.324959
0.314237
0.304073
0.294403
0.285179
0.276362
0.267923
0.259841
0.252098
0.244681
0.237578
0.23078
0.224279
0.218066
0.212133
0.206473
0.201101
0.361288
0.348366
0.336226
0.324751
0.313844
0.303433
0.293466
0.283908
0.274736
0.265937
0.257502
0.249425
0.241701
0.234327
0.227296
0.220606
0.21425
0.208223
0.202518
0.197153
0.361278
0.348296
0.336005
0.324272
0.313005
0.302153
0.291692
0.281615
0.271927
0.262636
0.253751
0.245278
0.237223
0.229588
0.222374
0.215579
0.2092
0.203233
0.197669
0.19253
0.361254
0.348125
0.335506
0.323265
0.31135
0.299766
0.288544
0.277726
0.267352
0.257461
0.248081
0.239234
0.230934
0.223192
0.216011
0.209393
0.203337
0.19784
0.192893
0.188514
0.361236
0.3478
0.334532
0.321372
0.308383
0.29568
0.283387
0.271619
0.26047
0.250016
0.240309
0.231387
0.223277
0.215995
0.20955
0.203951
0.199203
0.195311
0.192268
0.190074
0.361465
0.347537
0.333149
0.318509
0.303939
0.289764
0.276271
0.263688
0.25219
0.241899
0.232901
0.225253
0.218992
0.214146
0.210734
0.208775
0.208281
0.20926
0.211682
0.215464
0.363748
0.349867
0.334429
0.31855
0.303052
0.288614
0.275769
0.264896
0.256243
0.249955
0.246108
0.244734
0.245832
0.24938
0.255329
0.263602
0.274076
0.286573
0.300819
0.316486
0.380328
0.378528
0.375866
0.373344
0.371175
0.369843
0.369905
0.37184
0.376008
0.382642
0.391864
0.403677
0.417972
0.434523
0.452991
0.472934
0.493833
0.515131
0.536242
0.556909
0.590242
0.786977
0.938818
1.04137
1.10104
1.12787
1.13171
1.12067
1.10079
1.07629
1.04999
1.02371
0.998585
0.975296
0.954206
0.935474
0.919115
0.905038
0.89313
0.882848
1.12273
1.375
1.61337
1.83
2.01492
2.16418
2.28105
2.37168
2.44293
2.50086
2.55012
2.59385
2.634
2.67184
2.70818
2.74351
2.7782
2.81251
2.84666
2.88087
2.91527
2.94995
2.98498
3.02037
3.05614
3.09226
3.1287
3.16538
3.2022
3.23903
3.27571
3.31208
3.34795
3.38312
3.41739
3.45058
3.4825
3.51297
3.54184
3.56895
3.59419
3.61746
3.6387
3.65789
3.67503
3.69019
3.70348
3.71504
3.72508
3.73387
3.7417
3.74894
3.75601
3.76334
3.77145
3.78087
3.79217
3.80594
3.82281
3.8434
3.86831
3.89813
3.93344
3.9747
4.02234
4.07665
4.1378
4.2058
4.28048
4.36149
4.44831
4.54021
4.63634
4.73568
4.83715
4.93959
5.04185
5.14279
5.24134
5.3365
5.42741
5.51328
5.59348
5.66749
5.7349
5.79544
5.84894
5.8953
5.93454
5.96674
5.99203
6.0106
6.02267
6.02847
6.02827
6.02238
6.01107
5.99463
5.9733
5.94736
5.91705
5.88262
5.84428
5.80227
5.75679
5.70804
5.65622
5.60151
5.54407
5.48408
5.4217
5.35706
5.29032
5.2216
5.15104
5.07875
5.0049
4.92968
4.85322
4.77569
4.69722
4.61796
4.53801
4.45753
4.37661
4.29538
4.21394
4.1324
4.05087
3.96945
3.88822
3.80728
3.72671
3.64661
3.56704
3.48809
3.40984
3.33234
3.25566
3.17988
3.10504
3.0312
2.95842
2.88674
2.81622
2.74689
2.67879
2.61197
2.54645
2.48228
2.41948
2.35808
2.29811
2.23958
2.18253
2.12698
2.07294
2.02043
1.96948
1.92009
1.87229
1.8261
1.78153
1.7386
1.69733
1.65773
1.61984
1.58368
1.54927
1.51665
1.48586
1.45693
1.42992
1.40489
1.38186
1.36078
1.34159
1.32441
1.30937
1.29663
1.2864
1.27894
1.27462
1.27385
1.27725
1.2856
1.30002
1.32211
1.35427
1.40025
1.46624
1.5629
1.70881
1.93525
2.2898
2.83144
3.61213
4.62594
5.81586
3.89714
0.579288
0.62292
0.688598
0.777708
0.888821
1.01809
1.15967
1.30669
1.45235
1.59095
1.71863
1.83351
1.93541
2.02539
2.10518
2.17664
2.24148
2.30107
2.35647
2.40848
2.45772
2.50467
2.54973
2.59324
2.63547
2.67665
2.71693
2.75642
2.79516
2.83317
2.87039
2.90677
2.94221
2.9766
3.00982
3.04174
3.07223
3.10116
3.12841
3.15387
3.17745
3.19909
3.21874
3.2364
3.25209
3.2659
3.27792
3.28834
3.29734
3.3052
3.31221
3.31874
3.32517
3.33198
3.33964
3.34868
3.35968
3.37322
3.38993
3.41045
3.4354
3.46541
3.50109
3.54298
3.59156
3.64722
3.71021
3.78065
3.85847
3.9434
4.03498
4.13254
4.23523
4.34203
4.45182
4.56336
4.67542
4.78676
4.89617
5.00256
5.10492
5.20237
5.29417
5.3797
5.45847
5.53014
5.59445
5.65129
5.70063
5.74251
5.77706
5.80445
5.82491
5.83868
5.84606
5.84737
5.84287
5.83285
5.81761
5.79741
5.77253
5.74321
5.70972
5.67228
5.63113
5.58648
5.53854
5.48752
5.43358
5.37692
5.3177
5.25609
5.19223
5.12627
5.05834
4.98857
4.91713
4.84421
4.76996
4.69454
4.61809
4.54077
4.46269
4.384
4.3048
4.22523
4.1454
4.0654
3.98536
3.90537
3.82553
3.74593
3.66666
3.58781
3.50945
3.43168
3.35455
3.27815
3.20254
3.12779
3.05395
2.98108
2.90923
2.83846
2.76882
2.70034
2.63307
2.56705
2.50231
2.43889
2.37681
2.31612
2.25683
2.19896
2.14256
2.08762
2.03418
1.98226
1.93186
1.88302
1.83575
1.79006
1.74598
1.70352
1.6627
1.62354
1.58607
1.5503
1.51627
1.48401
1.45355
1.42493
1.39821
1.37344
1.35065
1.32975
1.31072
1.29367
1.27874
1.26607
1.25588
1.24842
1.24404
1.24316
1.24638
1.25446
1.2685
1.29006
1.32148
1.36641
1.43089
1.52535
1.66816
1.89072
2.24177
2.78393
3.57341
4.62053
5.75961
4.43834
0.323254
0.330617
0.341029
0.356134
0.378019
0.408418
0.448854
0.500725
0.564884
0.641387
0.729358
0.826995
0.931747
1.04062
1.15056
1.2588
1.36313
1.46206
1.55481
1.64119
1.72148
1.79621
1.86601
1.93153
1.99332
2.05183
2.10744
2.16043
2.21103
2.2594
2.30569
2.34997
2.39231
2.43275
2.47127
2.50786
2.54249
2.5751
2.60565
2.6341
2.66041
2.68457
2.70657
2.72645
2.74428
2.76014
2.77416
2.78653
2.79745
2.8072
2.81606
2.8244
2.83262
2.84114
2.85045
2.86106
2.87355
2.88848
2.90649
2.9282
2.95428
2.98537
3.02213
3.06515
3.11501
3.17218
3.23705
3.30984
3.39061
3.47924
3.57536
3.6784
3.78756
3.90185
4.02011
4.14107
4.2634
4.38574
4.50678
4.62527
4.74007
4.85016
4.95469
5.05291
5.14425
5.22825
5.30461
5.37314
5.43376
5.48648
5.53141
5.5687
5.59859
5.62135
5.63731
5.64676
5.64999
5.6473
5.63899
5.62536
5.60668
5.58324
5.55531
5.52314
5.48698
5.44707
5.40363
5.35688
5.30701
5.25423
5.19872
5.14064
5.08017
5.01745
4.95263
4.88584
4.81725
4.74706
4.67543
4.60252
4.52849
4.45349
4.37765
4.3011
4.22398
4.1464
4.06849
3.99035
3.9121
3.83384
3.75567
3.67769
3.59998
3.52265
3.44576
3.3694
3.29364
3.21857
3.14424
3.07073
2.99809
2.92639
2.85567
2.78599
2.7174
2.64994
2.58366
2.5186
2.45479
2.39226
2.33106
2.2712
2.21272
2.15565
2.1
2.0458
1.99307
1.94183
1.8921
1.8439
1.79724
1.75215
1.70864
1.66673
1.62644
1.58779
1.5508
1.51549
1.4819
1.45005
1.41999
1.39174
1.36536
1.34089
1.31839
1.29771
1.27889
1.26202
1.24723
1.23466
1.22454
1.2171
1.21267
1.21168
1.21469
1.22245
1.23603
1.25693
1.28741
1.33097
1.39342
1.48477
1.6228
1.83826
2.17958
2.71036
3.48674
4.52157
5.5714
4.80379
0.217434
0.218908
0.220665
0.222895
0.225911
0.230084
0.236013
0.244256
0.255503
0.270571
0.290368
0.315845
0.347917
0.387357
0.43468
0.490036
0.553141
0.623259
0.699245
0.779651
0.862867
0.947276
1.0314
1.11402
1.19421
1.27135
1.34511
1.41538
1.48219
1.54566
1.60595
1.66319
1.71752
1.76902
1.81778
1.86383
1.90722
1.94797
1.98611
2.02165
2.05464
2.08512
2.11313
2.13875
2.16208
2.18324
2.20238
2.21969
2.23539
2.24976
2.26308
2.27571
2.28803
2.30046
2.31346
2.32753
2.34322
2.36109
2.38175
2.40584
2.434
2.46692
2.50528
2.54974
2.60096
2.65952
2.72592
2.80055
2.88365
2.97524
3.07514
3.18292
3.29788
3.4191
3.54546
3.67563
3.80823
3.94177
4.07481
4.20595
4.33388
4.45745
4.57562
4.68753
4.79248
4.88991
4.97942
5.06074
5.13373
5.19837
5.25472
5.30294
5.34323
5.37594
5.40142
5.41993
5.43177
5.43725
5.43668
5.43039
5.41866
5.40181
5.38013
5.35388
5.32334
5.28877
5.25041
5.20849
5.16323
5.11484
5.06353
5.00947
4.95284
4.89382
4.83254
4.76915
4.70383
4.63676
4.56814
4.49812
4.42687
4.35454
4.28128
4.20721
4.13248
4.05722
3.98154
3.90556
3.82939
3.75315
3.67693
3.60083
3.52496
3.44938
3.37421
3.29951
3.22536
3.15184
3.07902
3.00697
2.93575
2.86541
2.79602
2.72763
2.66029
2.59404
2.52892
2.46499
2.40227
2.34081
2.28063
2.22177
2.16425
2.10811
2.05336
2.00003
1.94814
1.89771
1.84877
1.80133
1.7554
1.71102
1.66819
1.62693
1.58727
1.54922
1.5128
1.47805
1.44499
1.41364
1.38404
1.35623
1.33026
1.30618
1.28401
1.26363
1.24507
1.22843
1.21382
1.20141
1.19138
1.18398
1.17952
1.17841
1.1812
1.18861
1.20165
1.22178
1.25112
1.29303
1.35296
1.44039
1.57213
1.7776
2.10357
2.6124
3.35806
4.34992
5.32846
4.97648
0.189657
0.189127
0.188662
0.18828
0.18802
0.18793
0.188077
0.188567
0.18952
0.191081
0.193435
0.196815
0.201505
0.207851
0.216261
0.227205
0.241203
0.258806
0.280563
0.30697
0.338419
0.375142
0.417166
0.464285
0.516063
0.571852
0.630848
0.692149
0.754827
0.81799
0.880837
0.94269
1.00301
1.06138
1.11751
1.17121
1.22236
1.27089
1.31677
1.35997
1.40052
1.43844
1.47378
1.50659
1.53698
1.56506
1.59097
1.61489
1.63705
1.65768
1.67707
1.69553
1.71343
1.73116
1.74913
1.76783
1.78776
1.80945
1.83347
1.86046
1.89104
1.92591
1.96575
2.01129
2.06325
2.12232
2.18915
2.2643
2.34819
2.44108
2.54301
2.65376
2.77283
2.89943
3.03251
3.17079
3.31281
3.45701
3.60179
3.74558
3.88691
4.02439
4.15685
4.28323
4.40267
4.51448
4.61815
4.7133
4.79973
4.87733
4.94615
5.00631
5.05797
5.10166
5.13762
5.16613
5.18749
5.20202
5.21005
5.21191
5.20792
5.19841
5.18368
5.16404
5.13978
5.11117
5.07849
5.04197
5.00187
4.95841
4.91181
4.86226
4.80996
4.75508
4.6978
4.63825
4.57662
4.51309
4.44787
4.38113
4.31303
4.24373
4.17339
4.10215
4.03015
3.95752
3.88438
3.81087
3.73708
3.66315
3.58916
3.51522
3.44144
3.3679
3.29469
3.22189
3.14959
3.07786
3.00678
2.93641
2.86681
2.79806
2.7302
2.66329
2.59739
2.53253
2.46877
2.40615
2.3447
2.28446
2.22547
2.16776
2.11136
2.05629
2.00258
1.95026
1.89935
1.84986
1.80183
1.75527
1.71019
1.66662
1.62458
1.58408
1.54515
1.5078
1.47206
1.43795
1.40549
1.37472
1.34568
1.31839
1.2929
1.26926
1.24751
1.22748
1.20924
1.19288
1.17851
1.16628
1.15639
1.14905
1.14458
1.14337
1.14593
1.15295
1.16541
1.18467
1.21274
1.25274
1.30978
1.39262
1.51687
1.70997
2.016
2.49431
3.19594
4.12524
5.04482
4.9909
0.187254
0.18602
0.18483
0.183686
0.182592
0.181553
0.180578
0.17968
0.178882
0.178206
0.177684
0.177355
0.177267
0.177483
0.17808
0.179151
0.180812
0.183199
0.18648
0.190849
0.196531
0.203783
0.212888
0.224147
0.237865
0.254335
0.273808
0.296474
0.322432
0.351672
0.384062
0.41935
0.457173
0.497079
0.538558
0.581067
0.624068
0.667055
0.709568
0.751214
0.791668
0.830679
0.868061
0.903695
0.937517
0.969517
0.999733
1.02825
1.05518
1.0807
1.10501
1.12836
1.15101
1.1733
1.19558
1.21824
1.24172
1.26651
1.2931
1.32208
1.35404
1.38964
1.42957
1.47457
1.52541
1.58287
1.64773
1.72073
1.80252
1.89362
1.99436
2.1048
2.22473
2.35361
2.49056
2.63438
2.78366
2.93675
3.09193
3.24745
3.4016
3.5528
3.69961
3.84078
3.97523
4.10211
4.22073
4.3306
4.43138
4.52291
4.60516
4.6782
4.74226
4.79791
4.84534
4.88481
4.91662
4.9411
4.95859
4.96944
4.97399
4.97258
4.96555
4.95322
4.93591
4.91392
4.88753
4.85702
4.82265
4.78467
4.7433
4.69877
4.65128
4.60104
4.54821
4.49295
4.43543
4.37587
4.31446
4.25138
4.18681
4.12092
4.05387
3.9858
3.91686
3.84719
3.77692
3.70618
3.63508
3.56374
3.49227
3.42077
3.34936
3.27811
3.20712
3.13648
3.06627
2.99657
2.92745
2.85899
2.79124
2.72428
2.65816
2.59294
2.52867
2.4654
2.40317
2.34203
2.28203
2.22319
2.16555
2.10915
2.05401
2.00017
1.94765
1.89648
1.84668
1.79827
1.75127
1.70571
1.6616
1.61897
1.57782
1.53819
1.50009
1.46354
1.42856
1.39518
1.36342
1.33331
1.30489
1.27819
1.25326
1.23014
1.20886
1.18925
1.17138
1.15536
1.14128
1.12929
1.11956
1.11233
1.10787
1.10657
1.1089
1.11553
1.12736
1.14568
1.17236
1.21029
1.26415
1.34191
1.45778
1.63678
1.91945
2.36092
3.00899
3.86402
4.72573
4.87471
0.190996
0.189516
0.18807
0.186661
0.185287
0.18395
0.18265
0.181389
0.18017
0.178997
0.177876
0.176813
0.175819
0.174906
0.174089
0.173387
0.172824
0.172428
0.172232
0.172277
0.172611
0.173289
0.174378
0.175955
0.178108
0.18094
0.184564
0.189107
0.194705
0.2015
0.209635
0.219246
0.230453
0.243352
0.257999
0.27441
0.292544
0.312312
0.333569
0.356126
0.379757
0.404215
0.429242
0.454585
0.480009
0.50531
0.530319
0.554911
0.579012
0.602592
0.625676
0.648335
0.670689
0.692908
0.715205
0.73784
0.761121
0.785403
0.811091
0.838645
0.868579
0.90147
0.937958
0.978752
1.02462
1.0764
1.13497
1.20121
1.27602
1.36018
1.45437
1.55904
1.67437
1.80017
1.93587
2.08053
2.23282
2.39113
2.55364
2.71841
2.8835
3.04705
3.20733
3.36281
3.51216
3.65425
3.78819
3.9133
4.02909
4.13528
4.23174
4.31848
4.39591
4.46448
4.52432
4.57569
4.61887
4.65419
4.68201
4.70268
4.71657
4.72404
4.72546
4.72116
4.71149
4.69677
4.67732
4.65342
4.62536
4.59341
4.55782
4.51883
4.47666
4.43152
4.38361
4.3331
4.28015
4.22497
4.16778
4.10877
4.04812
3.98601
3.9226
3.85806
3.79253
3.72616
3.65908
3.59142
3.52331
3.45487
3.38621
3.31744
3.24866
3.17997
3.11146
3.04323
2.97536
2.90793
2.84101
2.77468
2.709
2.64405
2.57988
2.51655
2.45411
2.39261
2.33211
2.27264
2.21425
2.15698
2.10086
2.04593
1.99222
1.93976
1.88857
1.83869
1.79014
1.74293
1.6971
1.65267
1.60964
1.56805
1.52792
1.48925
1.45209
1.41643
1.38231
1.34975
1.31878
1.28942
1.2617
1.23567
1.21136
1.18882
1.16807
1.14894
1.13151
1.11588
1.10214
1.09043
1.08092
1.07382
1.06941
1.06803
1.07015
1.07638
1.08757
1.10491
1.13013
1.16586
1.21634
1.28871
1.39564
1.55946
1.8166
2.21714
2.80545
3.58015
4.37966
4.65668
0.195545
0.193987
0.192457
0.190958
0.189488
0.188048
0.186636
0.185254
0.1839
0.182575
0.181281
0.180018
0.178788
0.177595
0.176441
0.175331
0.174271
0.173267
0.172328
0.171463
0.170684
0.170005
0.169441
0.169011
0.168735
0.168638
0.168747
0.169092
0.169708
0.170633
0.171909
0.173583
0.175703
0.178321
0.18149
0.185264
0.189692
0.19482
0.200687
0.207321
0.214738
0.22294
0.231914
0.241633
0.252055
0.263129
0.274797
0.286997
0.299674
0.312779
0.32628
0.340162
0.354437
0.369146
0.384364
0.400201
0.416809
0.434387
0.453183
0.4735
0.495707
0.520239
0.547616
0.578442
0.61342
0.653355
0.699153
0.751811
0.812392
0.881981
0.961622
1.05223
1.15449
1.26876
1.39498
1.53261
1.68064
1.8376
2.00168
2.17081
2.34281
2.5155
2.6868
2.85479
3.01778
3.17432
3.32319
3.46346
3.59441
3.71558
3.8267
3.92777
4.01942
4.10172
4.17482
4.23893
4.29432
4.34132
4.38029
4.41159
4.43561
4.45273
4.46333
4.46778
4.46643
4.45965
4.44776
4.43108
4.40992
4.38456
4.35529
4.32236
4.286
4.24646
4.20395
4.15864
4.1107
4.06034
4.00779
3.95325
3.89691
3.83896
3.77957
3.71891
3.65713
3.59439
3.53083
3.46658
3.40177
3.33652
3.27096
3.2052
3.13933
3.07347
3.00771
2.94215
2.87686
2.81194
2.74745
2.68349
2.6201
2.55738
2.49536
2.43412
2.37372
2.31419
2.2556
2.19798
2.14139
2.08586
2.03142
1.97813
1.926
1.87506
1.82536
1.77691
1.72974
1.68388
1.63934
1.59615
1.55433
1.51391
1.47489
1.4373
1.40117
1.36651
1.33334
1.30169
1.27159
1.24305
1.21612
1.19083
1.16722
1.14533
1.12516
1.10658
1.08965
1.07446
1.06111
1.04973
1.04048
1.03356
1.02922
1.0278
1.02972
1.03557
1.04611
1.06245
1.08617
1.11964
1.16663
1.23347
1.33122
1.47939
1.71001
2.06762
2.59297
3.28507
4.01712
4.3667
0.199493
0.197926
0.196385
0.194868
0.193376
0.191909
0.190467
0.189048
0.187654
0.186282
0.184934
0.183609
0.182308
0.181032
0.179781
0.178556
0.177358
0.176189
0.175052
0.173949
0.172884
0.171859
0.17088
0.169951
0.16908
0.168271
0.167534
0.166877
0.166309
0.16584
0.165483
0.16525
0.165154
0.165209
0.165431
0.165836
0.166439
0.167258
0.168308
0.169607
0.17117
0.173011
0.175144
0.177579
0.180327
0.183395
0.18679
0.190516
0.194579
0.198985
0.203743
0.208867
0.214376
0.220302
0.226685
0.233586
0.241082
0.249278
0.258307
0.268342
0.2796
0.292356
0.306955
0.323828
0.34351
0.366658
0.394076
0.426727
0.465743
0.512408
0.568123
0.634326
0.712378
0.803415
0.908195
1.02695
1.15932
1.3043
1.4603
1.62528
1.79689
1.9726
2.14993
2.32647
2.50007
2.66878
2.83095
2.98525
3.13064
3.26639
3.39202
3.50798
3.61427
3.71086
3.79782
3.87533
3.94363
4.00303
4.05388
4.09654
4.13141
4.15888
4.17936
4.19322
4.20087
4.20265
4.19894
4.19008
4.17639
4.15819
4.13577
4.10941
4.07937
4.04591
4.00924
3.9696
3.92711
3.88201
3.83451
3.78484
3.73321
3.6798
3.6248
3.56838
3.5107
3.45193
3.39221
3.33168
3.27048
3.20873
3.14656
3.08409
3.02142
2.95866
2.89591
2.83326
2.7708
2.70863
2.64682
2.58544
2.52458
2.46429
2.40465
2.34571
2.28753
2.23017
2.17367
2.11809
2.06347
2.00985
1.95727
1.90577
1.85538
1.80613
1.75805
1.71118
1.66553
1.62114
1.57802
1.53621
1.49572
1.45657
1.41878
1.38238
1.34738
1.31381
1.28169
1.25105
1.2219
1.19427
1.1682
1.14372
1.12088
1.0997
1.08018
1.0622
1.04582
1.03114
1.01823
1.00723
0.998281
0.991575
0.987349
0.985912
0.987664
0.993136
1.00305
1.01839
1.0406
1.07178
1.11528
1.17657
1.26519
1.39781
1.60199
1.9165
2.37831
2.98821
3.64877
4.03132
0.202548
0.201001
0.199477
0.197974
0.196493
0.195033
0.193595
0.192178
0.190781
0.189404
0.188048
0.186711
0.185394
0.184098
0.182821
0.181565
0.180329
0.179115
0.177921
0.17675
0.175603
0.174479
0.173381
0.17231
0.171269
0.170258
0.169281
0.168341
0.16744
0.166582
0.165771
0.16501
0.164305
0.163659
0.163078
0.162567
0.16213
0.161775
0.161505
0.161326
0.161244
0.161263
0.161389
0.161627
0.161981
0.162457
0.163057
0.163789
0.164655
0.165664
0.166821
0.168135
0.169618
0.171285
0.173155
0.175254
0.177613
0.180277
0.183302
0.186759
0.190744
0.195378
0.200823
0.207287
0.215046
0.224462
0.236012
0.250326
0.268224
0.290765
0.319279
0.355388
0.400961
0.458009
0.528479
0.613992
0.71556
0.833383
0.966765
1.11417
1.27338
1.44171
1.61626
1.79409
1.9724
2.14861
2.32042
2.48592
2.64363
2.79238
2.93217
3.06262
3.1834
3.29433
3.39537
3.48661
3.56825
3.64054
3.7038
3.7584
3.80472
3.84316
3.87412
3.89801
3.91523
3.92618
3.93123
3.93074
3.92507
3.91455
3.89949
3.8802
3.85696
3.83004
3.79968
3.76614
3.72954
3.69011
3.64808
3.60369
3.55714
3.50865
3.45839
3.40657
3.35334
3.29887
3.24331
3.18682
3.12954
3.07159
3.0131
2.9542
2.895
2.8356
2.77612
2.71664
2.65727
2.59809
2.53918
2.48062
2.42249
2.36486
2.3078
2.25136
2.19562
2.14061
2.0864
2.03304
1.98057
1.92903
1.87847
1.82893
1.78043
1.73301
1.68671
1.64156
1.59757
1.55479
1.51322
1.47291
1.43386
1.3961
1.35966
1.32455
1.29079
1.25841
1.22743
1.19787
1.16976
1.14313
1.118
1.09441
1.07239
1.05199
1.03318
1.01586
1.00009
0.985962
0.97355
0.962973
0.95437
0.947919
0.943842
0.942424
0.944035
0.949161
0.958458
0.972826
0.99354
1.02248
1.06253
1.11841
1.19815
1.31577
1.49445
1.76725
2.16712
2.69724
3.28432
3.67217
0.204761
0.203244
0.201747
0.200269
0.198811
0.197373
0.195954
0.194553
0.193171
0.191807
0.190461
0.189133
0.187823
0.186531
0.185256
0.183999
0.18276
0.181538
0.180334
0.179148
0.17798
0.17683
0.1757
0.174589
0.173498
0.172427
0.171378
0.170352
0.169349
0.168371
0.167419
0.166495
0.1656
0.164736
0.163905
0.163109
0.162349
0.161629
0.160948
0.160311
0.159719
0.159173
0.158676
0.15823
0.157836
0.157496
0.157212
0.156985
0.156818
0.156712
0.15667
0.156695
0.15679
0.156961
0.157214
0.157557
0.158001
0.158559
0.159251
0.1601
0.161138
0.162406
0.16396
0.165872
0.16824
0.171198
0.174928
0.179682
0.185809
0.193801
0.204346
0.218399
0.237271
0.262699
0.296871
0.34235
0.401817
0.477653
0.571446
0.683609
0.813259
0.958373
1.11611
1.28317
1.45608
1.63141
1.80606
1.97719
2.143
2.3025
2.45436
2.59768
2.73181
2.85632
2.971
3.07577
3.17072
3.25603
3.33195
3.39881
3.45696
3.50678
3.54869
3.58309
3.61039
3.63099
3.6453
3.65368
3.65652
3.65416
3.64694
3.63518
3.61918
3.59923
3.57561
3.54856
3.51828
3.48493
3.44876
3.41003
3.36894
3.32573
3.28058
3.23369
3.18524
3.1354
3.08433
3.03219
2.97912
2.92526
2.87074
2.81569
2.76023
2.70446
2.6485
2.59245
2.5364
2.48044
2.42467
2.36916
2.31398
2.25922
2.20495
2.15122
2.09809
2.04564
1.9939
1.94293
1.89279
1.84351
1.79513
1.7477
1.70125
1.65583
1.61145
1.56815
1.52597
1.48492
1.44503
1.40634
1.36885
1.3326
1.29761
1.26389
1.23148
1.20039
1.17064
1.14226
1.11528
1.08972
1.0656
1.04297
1.02186
1.0023
0.984245
0.967644
0.952546
0.939018
0.927147
0.917038
0.908823
0.902667
0.898775
0.89741
0.898911
0.903723
0.912438
0.925862
0.945128
0.971877
1.0086
1.05928
1.13061
1.23411
1.3889
1.62256
1.96386
2.41826
2.93205
3.30628
0.206285
0.204798
0.203329
0.201879
0.200447
0.199033
0.197637
0.196258
0.194896
0.193552
0.192224
0.190912
0.189617
0.188339
0.187077
0.18583
0.1846
0.183386
0.182187
0.181005
0.179838
0.178688
0.177553
0.176435
0.175333
0.174248
0.17318
0.17213
0.171097
0.170082
0.169086
0.168109
0.167153
0.166217
0.165303
0.164411
0.163542
0.162697
0.161877
0.161082
0.160315
0.159574
0.158862
0.158178
0.157524
0.1569
0.156306
0.155744
0.155213
0.154714
0.154248
0.153816
0.153418
0.153056
0.15273
0.152444
0.152201
0.152005
0.15186
0.151775
0.151759
0.151825
0.151991
0.152279
0.152721
0.15336
0.154253
0.155482
0.157161
0.159454
0.162598
0.166942
0.172998
0.181529
0.193648
0.210953
0.23563
0.270474
0.318686
0.38339
0.466923
0.570188
0.692378
0.831154
0.983065
1.14397
1.30998
1.47829
1.64598
1.81054
1.96994
2.12262
2.26743
2.40352
2.53035
2.6476
2.75515
2.85302
2.94135
3.02038
3.0904
3.15176
3.20484
3.25003
3.28773
3.31834
3.34228
3.35992
3.37166
3.37787
3.37888
3.37505
3.36669
3.35411
3.33759
3.31742
3.29382
3.26692
3.23699
3.20428
3.16901
3.13142
3.09171
3.05009
3.00674
2.96184
2.91556
2.86806
2.8195
2.77001
2.71974
2.6688
2.61734
2.56546
2.51327
2.46088
2.40839
2.3559
2.30348
2.25123
2.19923
2.14755
2.09626
2.04543
1.99513
1.94541
1.89633
1.84793
1.80029
1.75343
1.7074
1.66224
1.618
1.57471
1.53239
1.4911
1.45084
1.41166
1.37359
1.33663
1.30083
1.2662
1.23277
1.20055
1.16958
1.13987
1.11145
1.08434
1.05856
1.03415
1.01112
0.989522
0.969376
0.950718
0.933497
0.917669
0.903285
0.89041
0.879125
0.869527
0.86174
0.855916
0.852244
0.850966
0.852391
0.856922
0.865091
0.877616
0.895494
0.920147
0.953698
0.999476
1.06296
1.15348
1.28644
1.48435
1.77178
2.15587
2.59854
2.94669
0.20729
0.205828
0.204384
0.202958
0.20155
0.200159
0.198784
0.197427
0.196085
0.19476
0.193451
0.192158
0.19088
0.189618
0.188371
0.187139
0.185922
0.18472
0.183533
0.182361
0.181203
0.18006
0.178932
0.177818
0.176719
0.175635
0.174566
0.173512
0.172473
0.171449
0.170442
0.16945
0.168474
0.167515
0.166573
0.165648
0.164741
0.163851
0.162981
0.162129
0.161297
0.160484
0.159691
0.158919
0.158167
0.157435
0.156724
0.156033
0.155364
0.154714
0.154085
0.153477
0.152888
0.15232
0.151772
0.151245
0.150738
0.150253
0.14979
0.149353
0.148943
0.148564
0.148222
0.147923
0.147678
0.147499
0.147405
0.147422
0.147585
0.147945
0.148575
0.149585
0.151136
0.153473
0.156974
0.16222
0.170109
0.181995
0.199858
0.226404
0.264982
0.31914
0.391828
0.48447
0.596174
0.724744
0.86707
1.01909
1.17685
1.3368
1.4959
1.65169
1.80221
1.94599
2.08194
2.20933
2.3277
2.43679
2.53656
2.62708
2.70852
2.78114
2.84524
2.90119
2.94935
2.99011
3.02387
3.051
3.0719
3.08695
3.0965
3.1009
3.10049
3.09559
3.08649
3.0735
3.0569
3.03679
3.01341
2.98704
2.95791
2.92625
2.8923
2.85624
2.81829
2.77863
2.73742
2.69485
2.65106
2.60621
2.56044
2.51389
2.46667
2.41892
2.37075
2.32226
2.27355
2.22474
2.1759
2.12712
2.0785
2.0301
1.98199
1.93426
1.88696
1.84015
1.7939
1.74826
1.70327
1.659
1.61548
1.57275
1.53086
1.48985
1.44974
1.41058
1.37239
1.33521
1.29906
1.26397
1.22996
1.19706
1.1653
1.13469
1.10525
1.07702
1.05002
1.02426
0.999773
0.976585
0.954723
0.934219
0.915105
0.89741
0.881076
0.866075
0.852456
0.84028
0.829623
0.820577
0.813254
0.807796
0.804378
0.803219
0.804601
0.808886
0.816549
0.828226
0.844786
0.867453
0.898021
0.939237
0.995537
1.07432
1.18777
1.35383
1.59294
1.91316
2.28861
2.60309
0.207926
0.206484
0.20506
0.203653
0.202264
0.200891
0.199535
0.198195
0.196871
0.195563
0.194271
0.192994
0.191732
0.190485
0.189252
0.188035
0.186831
0.185642
0.184467
0.183307
0.18216
0.181027
0.179908
0.178802
0.17771
0.176632
0.175568
0.174518
0.173481
0.172459
0.17145
0.170456
0.169476
0.168511
0.16756
0.166625
0.165704
0.164799
0.16391
0.163037
0.162179
0.161338
0.160513
0.159705
0.158913
0.158137
0.157378
0.156635
0.155907
0.155195
0.154499
0.153817
0.153149
0.152495
0.151855
0.151227
0.150612
0.150009
0.149418
0.148838
0.148271
0.147717
0.147177
0.146654
0.146149
0.145667
0.145214
0.144798
0.14443
0.144125
0.143908
0.14381
0.143881
0.144196
0.144869
0.146078
0.148106
0.151404
0.156686
0.165079
0.178291
0.198773
0.229717
0.274686
0.336943
0.41859
0.51942
0.637284
0.768729
0.909775
1.0565
1.2054
1.35349