/*--------------------------------*- C++ -*----------------------------------*\
| =========                 |                                                 |
| \\      /  F ield         | OpenFOAM: The Open Source CFD Toolbox           |
|  \\    /   O peration     | Version:  2.4.0                                 |
|   \\  /    A nd           | Web:      www.OpenFOAM.org                      |
|    \\/     M anipulation  |                                                 |
\*---------------------------------------------------------------------------*/
FoamFile
{
    version     2.0;
    format      ascii;
    class       volScalarField;
    location    "0.178";
    object      k_0;
}
// * * * * * * * * * * * * * * * * * * * * * * * * * * * * * * * * * * * * * //

dimensions      [0 2 -2 0 0 0 0];

internalField   nonuniform List<scalar> 
4400
(
9.53096
8.49681
6.51913
5.28432
4.65681
4.19861
4.04197
3.80352
3.71298
3.69434
4.40469
6.76813
6.7464
6.28309
5.72941
5.19113
5.00321
4.66434
4.58597
4.54713
1.16529
3.15982
4.23272
4.5231
4.48334
4.25755
4.15728
3.91131
3.865
3.78934
0.162805
0.935844
1.72587
2.30334
2.68991
2.78033
2.87074
2.83
2.82137
2.79648
0.0171433
0.149641
0.421406
0.745527
1.0931
1.32805
1.51913
1.64899
1.71381
1.74288
0.00146099
0.016964
0.0534061
0.139068
0.242239
0.39946
0.50686
0.673444
0.74473
0.822242
0.000135549
0.0015199
0.00455868
0.0135292
0.0279193
0.0634113
0.0899915
0.157174
0.186198
0.249852
3.85799e-05
0.000197365
0.000399008
0.000995143
0.00209844
0.00521659
0.00796576
0.0176137
0.0222405
0.0398415
3.34149e-05
0.000119361
0.000161864
0.000270663
0.000337479
0.000494601
0.000600585
0.00116362
0.00140518
0.00231397
3.38964e-05
0.000130461
0.000142186
0.000183242
0.000219967
0.000234713
0.000237506
0.00025321
0.0002641
0.000278937
3.31441e-05
0.000137203
0.000191657
0.000200005
0.00019574
0.000193295
0.00020204
0.000231476
0.000277152
0.000423535
3.37569e-05
0.000167847
0.000198863
0.000199807
0.000229257
0.000318869
0.000502326
0.000820141
0.00163971
0.00459041
4.0724e-05
0.000274025
0.000423661
0.000772282
0.00185395
0.00459176
0.00780779
0.0147882
0.0256298
0.0597206
0.000137873
0.00159237
0.004424
0.010893
0.027944
0.0636094
0.0915079
0.15199
0.203148
0.350223
0.00148187
0.0176954
0.0536758
0.11756
0.259446
0.397353
0.510253
0.676506
0.781751
1.03007
0.0173933
0.157571
0.41218
0.721677
1.1073
1.32929
1.52157
1.67416
1.77728
1.96427
0.164901
0.945725
1.70421
2.29938
2.69388
2.79057
2.87352
2.86846
2.88591
2.91759
1.17715
3.15796
4.20888
4.53257
4.48047
4.26893
4.14913
3.93742
3.88375
3.77046
4.41266
6.75879
6.72986
6.30408
5.69971
5.20608
4.97589
4.63465
4.53135
4.24869
9.53647
8.48898
6.50542
5.30444
4.62559
4.19858
3.99907
3.70304
3.57679
3.18285
2.34119
1.48755
1.18468
1.072
1.03163
0.95725
0.775629
0.708054
0.60523
0.595791
0.60153
0.619418
0.694353
0.713666
0.667009
0.61217
0.459679
0.355012
0.281223
0.318107
0.634507
0.681134
0.628853
0.457173
0.28684
0.262696
0.254286
0.276509
0.327998
0.312918
0.204136
0.130556
0.146876
0.278693
0.416565
0.44115
0.453178
0.434651
0.419965
0.427982
0.406471
0.418408
0.404988
0.373074
0.33813
0.309315
0.289495
0.25544
0.204109
0.164809
0.123743
0.0933152
0.0727521
0.0575206
0.0492442
0.0423726
0.0354424
0.0328969
0.0338785
0.0442732
0.0910868
0.121148
0.126101
0.135436
0.13726
0.13825
0.141332
0.138114
0.129356
0.114911
0.100873
0.0827735
0.0759478
0.0769743
0.0823137
0.107976
0.159524
0.255383
0.345907
0.316227
0.253489
0.201407
0.194732
0.177465
0.106823
0.0720076
0.0686735
0.0840402
0.145944
0.198764
0.205411
0.195253
0.1531
0.110185
0.103531
0.11577
0.134303
0.113938
0.117031
0.311341
3.45166
2.50044
1.97602
1.60281
1.43806
1.38244
1.19078
1.129
1.01225
0.968884
0.946814
0.904811
0.839775
0.784113
0.654099
0.511786
0.322445
0.185041
0.147339
0.158812
0.338718
0.545001
0.586638
0.54026
0.407182
0.331357
0.320767
0.352573
0.35024
0.29519
0.139155
0.122413
0.183695
0.379688
0.460045
0.463493
0.459888
0.423662
0.419274
0.417875
0.398381
0.426225
0.404944
0.395486
0.365339
0.342116
0.326772
0.285163
0.222764
0.173324
0.128931
0.0965267
0.0774013
0.0606944
0.050959
0.0436104
0.0363211
0.0330296
0.0331886
0.0383632
0.0713504
0.107685
0.11484
0.120796
0.125957
0.137236
0.148379
0.146317
0.136964
0.120715
0.102075
0.084971
0.0804043
0.0823265
0.0873345
0.113466
0.155638
0.304474
0.350935
0.313542
0.244127
0.200515
0.197678
0.188665
0.125077
0.076114
0.0684322
0.0773293
0.132481
0.183509
0.190065
0.184989
0.153215
0.110555
0.10532
0.109238
0.125855
0.117939
0.115167
0.206485
3.13046
2.4745
2.10036
1.77339
1.51621
1.45275
1.30931
1.25266
1.14533
1.10429
1.0186
0.953876
0.837749
0.710032
0.544338
0.319465
0.160209
0.0864045
0.0632499
0.0654144
0.103492
0.26508
0.479029
0.489469
0.466144
0.413413
0.399844
0.389563
0.348592
0.190404
0.106864
0.120519
0.284423
0.454872
0.480086
0.470724
0.452832
0.384773
0.390126
0.361925
0.357973
0.391758
0.362614
0.379491
0.370823
0.353334
0.330714
0.286136
0.226049
0.179282
0.135876
0.10322
0.0832128
0.0644646
0.0542946
0.0469246
0.0386545
0.0339008
0.0334975
0.0357098
0.0550469
0.0939968
0.105947
0.109794
0.115001
0.132535
0.14548
0.143422
0.134881
0.121285
0.103695
0.08925
0.0861065
0.0873771
0.0907081
0.111041
0.16358
0.32898
0.345474
0.29457
0.23915
0.197202
0.203405
0.194884
0.138306
0.0795929
0.0674676
0.0734499
0.120449
0.173669
0.178249
0.177591
0.156802
0.112277
0.118372
0.111556
0.11895
0.117045
0.117689
0.15776
2.43861
2.04068
1.75642
1.58772
1.34887
1.24001
1.15822
1.09742
1.01827
0.968046
0.875713
0.784334
0.671394
0.523875
0.331573
0.175117
0.0818706
0.0435484
0.0300697
0.0298341
0.0380791
0.0794334
0.232303
0.379768
0.41586
0.408397
0.396136
0.3596
0.231301
0.101733
0.0910431
0.157836
0.404724
0.489176
0.486578
0.463146
0.410284
0.310076
0.310011
0.255602
0.294569
0.290664
0.284887
0.321464
0.332414
0.341204
0.326849
0.290063
0.238551
0.20018
0.156606
0.116411
0.0901341
0.0689231
0.0570407
0.049393
0.0419167
0.0361974
0.0346493
0.0359003
0.045962
0.0801011
0.096176
0.10008
0.104289
0.123304
0.125292
0.120211
0.114389
0.111627
0.102772
0.0912827
0.0892807
0.0891648
0.0919673
0.108226
0.181
0.339531
0.331619
0.283719
0.244794
0.199487
0.226096
0.214717
0.152649
0.0845211
0.067565
0.0715671
0.111368
0.170835
0.173093
0.173667
0.161271
0.123184
0.118677
0.117092
0.122659
0.118903
0.121422
0.136897
1.58745
1.40437
1.21965
1.15029
1.01335
0.875415
0.823599
0.761089
0.728042
0.686771
0.617928
0.531515
0.442517
0.307688
0.16983
0.0793791
0.0359996
0.0220259
0.0169301
0.015584
0.0167184
0.0269159
0.0604107
0.157935
0.269248
0.299891
0.284282
0.210833
0.103969
0.0658252
0.0848987
0.267199
0.487006
0.501949
0.477961
0.420539
0.324054
0.218911
0.210932
0.188567
0.236361
0.214799
0.250864
0.263356
0.294892
0.322499
0.31735
0.287379
0.24241
0.210982
0.171489
0.133001
0.102837
0.0761213
0.0617452
0.0541193
0.0496466
0.0429359
0.0381794
0.0376588
0.0422032
0.0648356
0.0853343
0.0904725
0.0970699
0.104354
0.0995711
0.0929623
0.0923546
0.094747
0.0940844
0.0899875
0.0890391
0.0889607
0.0929532
0.110787
0.223196
0.314237
0.323886
0.281876
0.26503
0.214027
0.271131
0.245104
0.161632
0.0891317
0.0682203
0.0699858
0.0994605
0.163993
0.167938
0.16644
0.158607
0.126125
0.120368
0.118424
0.127702
0.128707
0.122537
0.125194
0.774109
0.711046
0.62949
0.610131
0.568658
0.477976
0.423964
0.371468
0.354211
0.328913
0.297744
0.248289
0.173247
0.102524
0.0520597
0.0248574
0.0151135
0.0128966
0.0128686
0.0118772
0.011771
0.013444
0.0208567
0.0421787
0.105993
0.125671
0.113011
0.0807963
0.0520023
0.0544949
0.126147
0.411471
0.520841
0.504395
0.443237
0.361127
0.23016
0.181484
0.177718
0.172925
0.202324
0.199724
0.248077
0.23866
0.267753
0.295115
0.296165
0.270196
0.23583
0.208562
0.177801
0.146432
0.121281
0.0951437
0.0787848
0.0690616
0.065486
0.0608108
0.0499032
0.0430816
0.0439959
0.0554237
0.0749545
0.083254
0.0884169
0.0906904
0.0883606
0.0849436
0.0846373
0.0882284
0.0888979
0.0873843
0.087786
0.0892873
0.0958479
0.118118
0.240624
0.300068
0.341483
0.297441
0.291008
0.248274
0.328201
0.295954
0.197443
0.0996382
0.0704061
0.0708178
0.0987874
0.145756
0.152256
0.163638
0.156186
0.131104
0.125298
0.122394
0.133079
0.138664
0.1229
0.114805
0.241264
0.224549
0.198402
0.196345
0.186351
0.15625
0.129664
0.10996
0.10235
0.095242
0.0838818
0.0668817
0.0445467
0.0257312
0.0141174
0.00931732
0.00961044
0.0107785
0.0124988
0.0121088
0.0121213
0.0128369
0.0142764
0.0177884
0.0333169
0.039431
0.0388411
0.0373857
0.037443
0.0595051
0.253195
0.52234
0.532562
0.469261
0.404174
0.279065
0.193264
0.170903
0.17019
0.171568
0.197448
0.201176
0.250145
0.228634
0.24985
0.267907
0.269796
0.252054
0.232004
0.20952
0.184452
0.155639
0.131267
0.112365
0.0949366
0.0825531
0.0785927
0.0751981
0.065854
0.0522599
0.0483317
0.0529664
0.0672787
0.0766572
0.0809473
0.0877754
0.0882587
0.0854612
0.0843386
0.0874394
0.0884567
0.0877449
0.0884187
0.0922686
0.100506
0.128355
0.244051
0.305978
0.411178
0.337381
0.331393
0.310115
0.399496
0.353113
0.231904
0.11149
0.0759999
0.0728337
0.101862
0.141335
0.145823
0.15863
0.158759
0.144024
0.130977
0.130528
0.138116
0.140436
0.123341
0.106252
0.0392593
0.0370483
0.0329807
0.0325466
0.0312433
0.0268745
0.021894
0.0188261
0.0175994
0.01649
0.0146529
0.0119962
0.00836625
0.00619104
0.00622923
0.00712774
0.00926968
0.015198
0.0207263
0.0205937
0.0203273
0.0189832
0.0157397
0.0146979
0.0150521
0.0159921
0.0223204
0.0258102
0.0339652
0.105994
0.427048
0.567792
0.520782
0.406939
0.343395
0.217426
0.181351
0.170523
0.170986
0.178462
0.205221
0.221141
0.245939
0.222539
0.239128
0.23961
0.249525
0.247463
0.238634
0.224252
0.20074
0.166917
0.142972
0.122688
0.10393
0.0937145
0.0896421
0.0863603
0.0779051
0.0632313
0.0554079
0.0556903
0.0641646
0.0706806
0.0784961
0.0881375
0.0883818
0.084378
0.0838588
0.0882431
0.0899548
0.0902277
0.092251
0.0979437
0.105161
0.140039
0.225685
0.383166
0.447866
0.368489
0.369191
0.430411
0.557999
0.430375
0.259957
0.114369
0.0871751
0.0756966
0.103002
0.144666
0.145667
0.147774
0.151926
0.143665
0.135373
0.134001
0.137129
0.136399
0.121004
0.103488
0.0022815
0.00215684
0.00205558
0.00210503
0.00212232
0.00206039
0.00195264
0.00182826
0.00183681
0.00194044
0.00224568
0.00257704
0.00335192
0.0047466
0.00762633
0.0145211
0.0229286
0.0386231
0.0468092
0.0466356
0.0451454
0.0387786
0.0266949
0.0197357
0.0180554
0.0188013
0.0213631
0.0272983
0.056518
0.245376
0.570971
0.584394
0.454601
0.355863
0.276667
0.194149
0.181103
0.173931
0.176548
0.191506
0.220859
0.234089
0.24227
0.231569
0.251867
0.231573
0.23775
0.254347
0.2524
0.239768
0.226805
0.191198
0.17039
0.143638
0.123484
0.104832
0.0975105
0.0950306
0.0883538
0.0722107
0.0610481
0.0601025
0.0639518
0.068216
0.0794331
0.0866464
0.0845778
0.0800192
0.0798905
0.0852161
0.087913
0.0898642
0.0949144
0.0995906
0.107391
0.152157
0.218053
0.472088
0.460115
0.377935
0.404031
0.693476
0.633183
0.456069
0.27612
0.119297
0.111651
0.0843557
0.101448
0.153282
0.149538
0.145397
0.143014
0.135204
0.132904
0.133223
0.132972
0.131684
0.122
0.104352
0.00030166
0.000337216
0.000357895
0.000371561
0.0003898
0.000442053
0.000500529
0.000600061
0.000832609
0.0016465
0.00293673
0.00506248
0.0105913
0.0169884
0.0282585
0.0481248
0.0643151
0.0916664
0.0989519
0.0969845
0.0911905
0.0771643
0.055811
0.0415784
0.0342705
0.0347407
0.039105
0.0555946
0.129573
0.461983
0.633443
0.564713
0.356002
0.308232
0.2295
0.186856
0.183075
0.173739
0.181352
0.205542
0.231601
0.236787
0.241778
0.237025
0.257509
0.243756
0.272336
0.284233
0.26484
0.251944
0.244142
0.224935
0.210342
0.189688
0.154352
0.12116
0.114153
0.106204
0.0951942
0.0800154
0.0671989
0.0650662
0.0656902
0.0681528
0.0795052
0.084443
0.0826914
0.0797481
0.0795922
0.0829405
0.0840698
0.0876285
0.0939464
0.0992436
0.111055
0.154259
0.235097
0.492065
0.460254
0.387742
0.446853
0.81908
0.601956
0.414388
0.347844
0.119915
0.124337
0.0957557
0.104092
0.173298
0.169731
0.154535
0.149398
0.134256
0.131397
0.129757
0.128984
0.131572
0.128616
0.113151
0.000760694
0.00126492
0.00128983
0.00141538
0.0014449
0.00150465
0.00198194
0.00296261
0.004985
0.0116104
0.0179278
0.0270342
0.0467195
0.0609763
0.0901005
0.121787
0.155125
0.189013
0.189931
0.184268
0.171686
0.140097
0.11291
0.0859607
0.0701361
0.0713954
0.0812892
0.118544
0.296969
0.645483
0.6589
0.461886
0.29534
0.26444
0.203203
0.183279
0.177757
0.173689
0.193986
0.221228
0.235015
0.231545
0.223075
0.2201
0.244467
0.253338
0.305909
0.296455
0.274087
0.263573
0.244477
0.23529
0.231184
0.215662
0.174199
0.144588
0.133022
0.113916
0.107143
0.0935467
0.073827
0.0690705
0.0687957
0.06956
0.0788387
0.0859764
0.0859887
0.0849772
0.0838994
0.0841441
0.0847737
0.0879457
0.0916933
0.0994318
0.121072
0.156257
0.268559
0.478476
0.458042
0.386987
0.456836
0.732093
0.563483
0.322341
0.497999
0.115547
0.1264
0.11344
0.111837
0.168604
0.171555
0.160012
0.157862
0.138536
0.134334
0.131183
0.131446
0.13932
0.140028
0.125111
0.01034
0.0131612
0.0125577
0.0132202
0.0130309
0.0132583
0.0171972
0.0230092
0.0332775
0.0608892
0.0766397
0.106666
0.138733
0.165331
0.223153
0.265894
0.316431
0.342545
0.33841
0.323933
0.290967
0.239473
0.200046
0.150098
0.133177
0.137979
0.160146
0.239046
0.559201
0.716154
0.633056
0.325198
0.237902
0.217312
0.181499
0.178826
0.177942
0.189102
0.212037
0.231112
0.237791
0.231092
0.21604
0.210734
0.220281
0.233155
0.266087
0.267203
0.282108
0.261497
0.242196
0.229896
0.231664
0.218706
0.189017
0.160976
0.141651
0.129303
0.123109
0.102834
0.0848171
0.0761532
0.073413
0.073631
0.0797974
0.0920097
0.098591
0.0985652
0.0946984
0.0938647
0.094012
0.0923026
0.0941129
0.112621
0.156909
0.183753
0.297329
0.415362
0.469341
0.365034
0.385982
0.378275
0.482014
0.353374
0.522634
0.166453
0.234529
0.181754
0.132915
0.149771
0.163344
0.153751
0.15308
0.140819
0.134121
0.132446
0.13759
0.143827
0.143417
0.130362
0.0893061
0.0931064
0.088123
0.0893759
0.0878826
0.0888475
0.10404
0.120916
0.15331
0.204231
0.232067
0.281249
0.314935
0.37166
0.437666
0.48936
0.537327
0.539049
0.52655
0.497823
0.435894
0.380407
0.315163
0.249769
0.241213
0.252566
0.297776
0.482052
0.721754
0.729772
0.475194
0.217409
0.186058
0.186961
0.171084
0.180576
0.202211
0.22352
0.233797
0.25375
0.267779
0.270137
0.237041
0.218632
0.215087
0.223247
0.24673
0.257071
0.283553
0.264718
0.246821
0.226264
0.234208
0.220021
0.202059
0.168671
0.15066
0.146769
0.133658
0.108971
0.0936527
0.0838738
0.0820584
0.0823242
0.0871603
0.108319
0.117362
0.115263
0.10968
0.112884
0.112506
0.1059
0.111886
0.163585
0.197967
0.217489
0.298737
0.405508
0.48648
0.360626
0.310486
0.30347
0.393806
0.501026
0.522572
0.26715
0.450029
0.22138
0.192372
0.151156
0.172609
0.156258
0.155376
0.143541
0.134493
0.132401
0.141204
0.145269
0.144257
0.133416
0.375183
0.37348
0.349962
0.344204
0.330834
0.332023
0.356419
0.383078
0.421536
0.470453
0.501998
0.528888
0.571318
0.638282
0.687877
0.730228
0.746268
0.737562
0.710722
0.657469
0.587325
0.515823
0.426996
0.381385
0.385383
0.414522
0.510001
0.685168
0.755841
0.646008
0.282726
0.159652
0.15892
0.165754
0.166462
0.217066
0.26465
0.288221
0.295447
0.327074
0.374447
0.386465
0.331924
0.248755
0.222128
0.217502
0.233777
0.261335
0.285946
0.277814
0.259402
0.236727
0.241127
0.225786
0.228376
0.185546
0.170866
0.162458
0.141058
0.117765
0.104143
0.103007
0.104104
0.102098
0.110695
0.133263
0.133178
0.127098
0.130847
0.147834
0.142248
0.132865
0.154243
0.248712
0.253993
0.25099
0.281499
0.421893
0.463056
0.376787
0.310743
0.307888
0.439653
0.675488
0.614793
0.574245
0.760712
0.324673
0.274687
0.164512
0.219924
0.183386
0.183457
0.159257
0.142014
0.134999
0.141358
0.145521
0.146171
0.146784
0.992205
0.94403
0.835489
0.798285
0.737071
0.728
0.747379
0.756647
0.764201
0.773163
0.780106
0.793366
0.828536
0.871029
0.899436
0.909812
0.898087
0.862671
0.813947
0.74923
0.66997
0.592862
0.539901
0.532397
0.548527
0.615392
0.696632
0.735566
0.698321
0.423213
0.18645
0.135581
0.145755
0.154082
0.183204
0.30065
0.380331
0.42553
0.4365
0.472525
0.558302
0.587562
0.532415
0.343399
0.242317
0.210843
0.205471
0.210823
0.243162
0.254737
0.258269
0.260452
0.26022
0.231239
0.274927
0.192205
0.202433
0.18593
0.145387
0.119688
0.113283
0.115109
0.119803
0.127817
0.146298
0.149854
0.143674
0.144194
0.159978
0.16422
0.154426
0.159692
0.247223
0.360334
0.32983
0.278517
0.289308
0.423805
0.435614
0.473138
0.336208
0.362325
0.459772
0.432321
0.621427
0.916361
1.43978
0.329792
0.517622
0.230539
0.245088
0.21547
0.205357
0.177022
0.155933
0.142297
0.144539
0.152623
0.169028
0.179726
1.79776
1.59064
1.39943
1.29605
1.17974
1.14173
1.11405
1.0613
1.01194
0.987202
0.987905
0.9969
1.01973
1.02018
1.01217
0.992506
0.951264
0.894518
0.843789
0.785112
0.726673
0.687758
0.676593
0.685622
0.728095
0.744393
0.732211
0.682639
0.493385
0.241433
0.150383
0.128991
0.141728
0.157829
0.219696
0.346609
0.453572
0.548705
0.639846
0.686105
0.817782
0.924121
0.919222
0.68989
0.378013
0.250647
0.204145
0.195324
0.19928
0.213546
0.236125
0.250233
0.256476
0.248655
0.292327
0.212514
0.219213
0.199111
0.14802
0.121646
0.120138
0.125725
0.143406
0.159358
0.168195
0.162404
0.158161
0.168494
0.167703
0.164076
0.175467
0.231944
0.453368
0.467479
0.373957
0.276373
0.282928
0.370798
0.426104
0.521028
0.406467
0.471809
0.531987
0.319082
0.445341
0.514585
0.540711
0.389299
0.996551
0.286731
0.279169
0.249574
0.21384
0.187872
0.173828
0.16517
0.16828
0.171967
0.182245
0.186722
2.55898
2.15625
1.8806
1.65652
1.48809
1.39105
1.28993
1.21312
1.16462
1.14512
1.1292
1.11242
1.09914
1.06813
1.03807
0.997653
0.929764
0.878834
0.835707
0.795059
0.775638
0.767293
0.763387
0.76468
0.755993
0.705151
0.609091
0.450662
0.26274
0.185503
0.176515
0.153183
0.154386
0.171718
0.243976
0.330681
0.437198
0.55097
0.702521
0.801756
0.945848
1.19828
1.39429
1.39655
0.899237
0.526795
0.315158
0.237946
0.214889
0.213457
0.220569
0.218292
0.228003
0.25506
0.294404
0.247231
0.227184
0.206255
0.155754
0.13312
0.137003
0.15808
0.189101
0.194435
0.185796
0.179541
0.186929
0.185979
0.195602
0.242982
0.353841
0.562039
0.598964
0.496599
0.331257
0.250001
0.250843
0.32909
0.411438
0.516174
0.48684
0.578893
0.67172
0.289732
0.321493
0.390834
0.489069
0.528942
0.643134
0.385812
0.400201
0.36376
0.267525
0.219678
0.234534
0.245212
0.246016
0.224965
0.214264
0.212723
3.07471
2.43444
2.05896
1.76514
1.58884
1.47028
1.37045
1.30741
1.25609
1.21714
1.17472
1.13205
1.079
1.00584
0.930291
0.854747
0.797531
0.765548
0.745693
0.734479
0.729318
0.722384
0.706599
0.66927
0.565724
0.414405
0.305283
0.229139
0.195296
0.205049
0.246867
0.229389
0.189887
0.192836
0.250235
0.268133
0.273456
0.309079
0.487036
0.717033
0.910157
1.18084
1.55978
1.86955
2.00644
1.58215
0.905736
0.555569
0.323574
0.260004
0.244913
0.230705
0.20684
0.220755
0.270536
0.277092
0.233791
0.216304
0.184078
0.17589
0.187809
0.219528
0.232912
0.235603
0.250127
0.334754
0.379406
0.415575
0.530553
0.772445
0.791981
0.76284
0.585136
0.328671
0.300627
0.263791
0.260486
0.297934
0.426069
0.536104
0.521272
0.626399
0.805717
0.308648
0.306184
0.425131
0.507299
0.539125
0.416312
0.615512
0.530155
0.416892
0.345933
0.315388
0.344323
0.361242
0.372234
0.347904
0.349658
0.368723
3.11926
2.3719
1.96985
1.72954
1.60472
1.50184
1.40948
1.33284
1.24973
1.15691
1.05467
0.942479
0.826279
0.719539
0.631893
0.569671
0.534448
0.517543
0.511128
0.505764
0.491835
0.462863
0.408728
0.324799
0.238553
0.190839
0.181942
0.191255
0.213211
0.263369
0.314521
0.311842
0.24713
0.223816
0.234082
0.267828
0.25131
0.19983
0.198441
0.23984
0.342457
0.553592
1.09379
1.87221
2.52954
2.94447
3.11107
2.65451
1.6553
1.10786
0.802089
0.516807
0.313303
0.277709
0.297582
0.28914
0.263756
0.284232
0.275327
0.289147
0.329737
0.392072
0.483752
0.642102
1.01267
1.27499
1.28587
1.31355
1.27457
1.18875
0.954904
0.700176
0.458819
0.443675
0.444226
0.534648
0.502813
0.523162
0.58539
0.801051
0.605575
0.668336
1.19121
0.594421
0.406487
0.444101
0.642735
0.579634
0.371194
0.572939
0.49932
0.478321
0.49335
0.580224
0.734669
0.990293
1.08465
1.18905
1.41361
1.81762
2.06755
1.65321
1.47523
1.37353
1.28212
1.16665
1.0306
0.887269
0.742612
0.597953
0.459823
0.335979
0.237385
0.170146
0.138554
0.134068
0.146296
0.167214
0.180561
0.184125
0.174287
0.158327
0.144407
0.137609
0.149744
0.187849
0.26703
0.439895
0.75586
1.06214
1.13647
0.963955
0.708672
0.701643
0.92418
1.0078
0.815596
0.519957
0.402281
0.366733
0.343513
0.325929
0.296298
0.27729
0.534476
2.11359
3.99869
5.63813
6.26341
6.28101
5.683
4.63821
2.56659
1.72842
1.43272
0.65776
0.481364
0.307165
0.330676
0.505976
0.903917
1.5654
2.26233
2.80371
2.87335
2.74418
2.3472
1.94923
1.36849
1.00491
0.680708
0.677518
0.545759
0.74164
0.701238
1.30783
1.18291
1.88929
1.99107
1.7315
0.655251
0.542674
1.52256
1.72249
1.12208
0.56114
1.34227
0.680777
0.368807
0.480945
0.678957
0.739047
1.17359
2.41436
3.05793
4.02142
4.24127
5.23403
6.08061
7.5271
0.0524639
0.0786455
0.146282
0.413502
0.372586
0.166646
0.277051
0.389306
0.30761
0.210795
0.223441
0.22935
0.333315
0.638711
1.23556
2.02928
1.6394
0.450981
0.250052
0.305689
0.450292
0.7531
1.20036
1.3944
1.27779
0.745108
0.847757
2.4906
3.51875
3.86879
3.68741
2.97019
2.03263
1.40072
0.782581
0.552881
0.229248
0.20636
0.235102
0.308036
0.484988
0.764446
1.0609
1.27733
1.36076
1.32383
1.21527
1.05438
0.842502
0.606909
0.395343
0.248591
0.170815
0.142584
0.135979
0.12968
0.131196
0.124623
0.116001
0.127316
0.171298
0.267241
0.308794
0.302889
0.3224
0.343552
0.334062
0.345215
0.339789
0.321792
0.318772
0.324809
0.302767
0.287938
0.309088
0.362218
0.477829
0.635027
0.866326
1.12159
1.30159
1.33535
1.17767
0.946004
0.717229
0.626478
0.611727
0.681403
0.780407
0.863399
0.901004
0.893738
0.773657
0.488653
0.272596
0.152134
0.0799727
0.0445908
0.0251315
0.0150758
0.0872174
0.0947
0.106665
0.148778
0.342144
0.28055
0.154539
0.147277
0.110129
0.138418
0.198583
0.244753
0.333458
0.362313
0.384202
0.610675
1.24232
1.17976
0.839256
0.532773
0.423693
0.409693
0.431354
0.459555
0.724768
1.83753
2.2493
2.2091
1.45852
1.02141
0.671587
0.507051
0.463488
0.447684
0.450171
0.455402
0.450896
0.45869
0.455812
0.432316
0.403986
0.403927
0.418569
0.463228
0.559502
0.666958
0.742503
0.846033
0.872602
0.875599
0.844819
0.703745
0.512151
0.384389
0.297135
0.222034
0.162042
0.126385
0.102997
0.0955989
0.102158
0.135168
0.251123
0.370068
0.367012
0.324097
0.283857
0.262618
0.231077
0.22507
0.224095
0.241983
0.243027
0.249501
0.264367
0.279268
0.304383
0.332007
0.368719
0.456639
0.609202
0.75813
0.776833
0.721308
0.548704
0.398117
0.302486
0.27325
0.273035
0.276549
0.270142
0.251014
0.240576
0.218369
0.152056
0.0919824
0.049608
0.036832
0.0260044
0.0205066
0.099244
0.101733
0.100895
0.095891
0.229202
0.303274
0.126262
0.0888121
0.100131
0.164753
0.238483
0.276379
0.280626
0.408901
0.299695
0.357376
0.519577
0.806734
0.750945
0.565476
0.365294
0.31548
0.316888
0.502719
1.46873
2.01712
1.68122
0.844371
0.505135
0.447254
0.463326
0.495678
0.526268
0.539431
0.548577
0.582766
0.561038
0.60945
0.595617
0.582191
0.54882
0.482304
0.422962
0.379219
0.364164
0.368368
0.383097
0.410342
0.469666
0.53963
0.668525
0.671813
0.635342
0.508934
0.36292
0.257676
0.167359
0.110499
0.0838464
0.079933
0.0920057
0.160112
0.309145
0.367119
0.308296
0.272037
0.266749
0.273589
0.256866
0.267735
0.212941
0.193188
0.186821
0.178641
0.182642
0.176457
0.173091
0.170998
0.174253
0.184827
0.208416
0.275732
0.464234
0.542875
0.526896
0.418739
0.227428
0.133904
0.106745
0.104547
0.121054
0.155926
0.160934
0.135322
0.0862626
0.0555692
0.0399657
0.0346063
0.0287007
0.0225796
0.10649
0.106526
0.0949662
0.0913699
0.15106
0.2952
0.131815
0.0829732
0.113035
0.180807
0.247476
0.30176
0.29114
0.419917
0.259651
0.374028
0.38927
0.458546
0.482024
0.398983
0.291188
0.300684
0.43665
1.04721
1.71417
1.69221
0.772786
0.462468
0.42048
0.470295
0.483739
0.482369
0.493042
0.541765
0.513099
0.580516
0.581839
0.620792
0.622965
0.623076
0.619695
0.593022
0.533549
0.469769
0.404391
0.356008
0.330733
0.325538
0.330232
0.34139
0.366744
0.451327
0.536162
0.511295
0.416929
0.271501
0.171043
0.109439
0.075894
0.0713679
0.0897459
0.206502
0.320441
0.272673
0.186418
0.172037
0.179127
0.182373
0.177156
0.215439
0.208979
0.215195
0.199999
0.193155
0.211602
0.2157
0.209505
0.191697
0.190671
0.189663
0.182628
0.178323
0.198282
0.317901
0.423101
0.411018
0.305817
0.161341
0.104324
0.0937591
0.10435
0.140524
0.145835
0.121741
0.0817529
0.0610915
0.046435
0.0398265
0.0307048
0.026235
0.111553
0.109724
0.0844702
0.0805111
0.113867
0.270119
0.154683
0.088914
0.135237
0.189862
0.248612
0.286383
0.302897
0.316198
0.269142
0.322833
0.393053
0.371988
0.352382
0.288549
0.273149
0.363403
0.760217
1.33355
1.6012
0.923415
0.469569
0.393042
0.413836
0.421575
0.412324
0.375579
0.366126
0.439743
0.456639
0.516097
0.548799
0.573412
0.586756
0.59318
0.608796
0.610712
0.581137
0.533115
0.48005
0.40141
0.343132
0.302255
0.290871
0.294407
0.298783
0.310857
0.346981
0.417262
0.398471
0.318353
0.198915
0.124662
0.0842702
0.0756604
0.0995041
0.234235
0.295845
0.180515
0.129255
0.12281
0.122344
0.117845
0.122809
0.146017
0.153052
0.172108
0.186811
0.184726
0.212337
0.234093
0.262058
0.268367
0.270674
0.276979
0.275458
0.242344
0.205732
0.211344
0.271147
0.338256
0.326918
0.246123
0.144057
0.108686
0.109646
0.126682
0.127176
0.102712
0.0747857
0.0625189
0.0524801
0.0464592
0.0358696
0.0315669
0.117982
0.111357
0.079768
0.0704688
0.0908727
0.233193
0.172318
0.104734
0.15167
0.202047
0.249156
0.282623
0.299341
0.309027
0.309554
0.281936
0.38201
0.360759
0.327633
0.26615
0.285663
0.526695
1.00108
1.31021
1.19844
0.551337
0.379299
0.361424
0.36692
0.312696
0.29484
0.292152
0.328567
0.389931
0.446079
0.502578
0.550305
0.557119
0.554609
0.54697
0.542746
0.54821
0.552282
0.537887
0.509502
0.456482
0.385639
0.323575
0.272073
0.254368
0.257208
0.261975
0.271772
0.306531
0.336157
0.31927
0.249633
0.145773
0.0953329
0.0860252
0.113731
0.248299
0.244017
0.141972
0.115458
0.110884
0.109486
0.105636
0.114085
0.132377
0.138767
0.156563
0.181906
0.169617
0.18573
0.204776
0.258353
0.279223
0.285386
0.293514
0.304677
0.301245
0.275665
0.228214
0.229894
0.260914
0.283165
0.264524
0.185834
0.122699
0.11346
0.120062
0.11522
0.0826344
0.0587589
0.0536668
0.0503133
0.0468095
0.0390334
0.0387175
0.12446
0.113353
0.0780193
0.0654233
0.0772977
0.190223
0.175618
0.118681
0.164248
0.2071
0.250501
0.30568
0.332983
0.34103
0.35043
0.294602
0.340062
0.347636
0.318131
0.256984
0.327063
0.690616
1.03238
1.15898
0.712957
0.406352
0.345687
0.331774
0.299642
0.249698
0.237769
0.261763
0.321462
0.385675
0.458525
0.499776
0.530158
0.527448
0.514317
0.498848
0.494988
0.488708
0.488517
0.481788
0.46932
0.449223
0.399761
0.33703
0.285329
0.23239
0.217733
0.218931
0.223266
0.236799
0.279861
0.290008
0.270709
0.188161
0.108019
0.0932215
0.127643
0.254385
0.206082
0.120491
0.102974
0.0938002
0.0894991
0.0871824
0.103846
0.126082
0.135371
0.165648
0.179277
0.161602
0.156222
0.160344
0.203677
0.241085
0.255793
0.272361
0.292148
0.300508
0.301021
0.277037
0.239393
0.240607
0.248833
0.246174
0.213512
0.143759
0.11748
0.118417
0.114755
0.0813661
0.0554107
0.0495086
0.0468236
0.0451594
0.0399024
0.0426088
0.129569
0.114411
0.0780913
0.0640432
0.0673278
0.155945
0.17544
0.129067
0.172175
0.208988
0.272405
0.340766
0.366816
0.392041
0.409429
0.357447
0.313726
0.299767
0.276055
0.244732
0.386116
0.775771
0.979924
0.813584
0.466777
0.34251
0.319945
0.28834
0.227268
0.206417
0.218594
0.258193
0.339014
0.418427
0.461839
0.476467
0.464166
0.445411
0.403845
0.358528
0.357387
0.371974
0.389568
0.403583
0.408124
0.406204
0.389151
0.334965
0.284028
0.228087
0.186511
0.178633
0.179111
0.184178
0.210204
0.261019
0.261558
0.228538
0.132204
0.099156
0.132021
0.251087
0.193196
0.10974
0.101894
0.0896958
0.0796649
0.0749685
0.0850397
0.0957289
0.118247
0.164155
0.15425
0.147509
0.147172
0.145863
0.173917
0.224332
0.232108
0.241689
0.247671
0.252133
0.272359
0.280831
0.271166
0.248236
0.245738
0.241975
0.221535
0.171138
0.128746
0.118488
0.111594
0.082045
0.0584293
0.0499805
0.0469926
0.0437946
0.0415461
0.0453927
0.137039
0.121624
0.0836913
0.0667428
0.0630812
0.132545
0.17175
0.129346
0.171122
0.212606
0.290062
0.353411
0.388157
0.442756
0.463044
0.466871
0.357682
0.300198
0.269895
0.260804
0.46389
0.784668
0.801594
0.54275
0.366611
0.313852
0.305583
0.258326
0.190917
0.192966
0.215503
0.289553
0.380889
0.430452
0.437699
0.409155
0.348869
0.30535
0.244244
0.201784
0.198554
0.205944
0.234288
0.263636
0.290665
0.316106
0.326181
0.313483
0.272033
0.226403
0.178696
0.151228
0.143126
0.143792
0.154271
0.205225
0.24439
0.237654
0.17533
0.11117
0.134317
0.235364
0.194973
0.109013
0.0978714
0.0806253
0.0779012
0.0786298
0.0852
0.0889797
0.0851964
0.127605
0.080331
0.109054
0.142796
0.138133
0.16157
0.214072
0.230876
0.23254
0.234524
0.228034
0.225954
0.244653
0.262156
0.259863
0.252403
0.245972
0.224849
0.187743
0.149639
0.121403
0.0974463
0.0763763
0.0659731
0.0550347
0.0487568
0.0435797
0.0435637
0.0496273
0.14117
0.13043
0.0922667
0.0723698
0.0650749
0.113314
0.164133
0.127885
0.165579
0.211075
0.300851
0.376165
0.437777
0.492317
0.522207
0.536376
0.491709
0.397404
0.340716
0.32195
0.526901
0.747694
0.616414
0.399215
0.334231
0.308979
0.281939
0.206753
0.182683
0.189836
0.232229
0.340275
0.394175
0.417144
0.388176
0.295313
0.205855
0.173306
0.150459
0.140011
0.138734
0.139187
0.143672
0.156809
0.172297
0.2055
0.234252
0.245314
0.235833
0.207791
0.169454
0.136205
0.116632
0.112364
0.115884
0.141448
0.215435
0.229133
0.209491
0.135167
0.143383
0.219804
0.201823
0.112772
0.0895382
0.0716861
0.0765539
0.0845617
0.0820319
0.088451
0.0674108
0.0967248
0.0566389
0.078568
0.119431
0.126679
0.155977
0.197147
0.223782
0.225386
0.225099
0.216278
0.20451
0.206771
0.234483
0.254205
0.254492
0.254019
0.241856
0.203511
0.170734
0.129407
0.0889724
0.0683785
0.0663314
0.0631446
0.0526886
0.0451819
0.0469257
0.0568078
0.143988
0.13936
0.104882
0.0830342
0.0787538
0.0980583
0.150418
0.123452
0.157879
0.20404
0.296606
0.386
0.454696
0.519678
0.557142
0.575836
0.581683
0.537564
0.45935
0.385793
0.568752
0.624662
0.483984
0.34845