/*--------------------------------*- C++ -*----------------------------------*\
| =========                 |                                                 |
| \\      /  F ield         | OpenFOAM: The Open Source CFD Toolbox           |
|  \\    /   O peration     | Version:  2.4.0                                 |
|   \\  /    A nd           | Web:      www.OpenFOAM.org                      |
|    \\/     M anipulation  |                                                 |
\*---------------------------------------------------------------------------*/
FoamFile
{
    version     2.0;
    format      ascii;
    class       surfaceScalarField;
    location    "0.299";
    object      phi_0;
}
// * * * * * * * * * * * * * * * * * * * * * * * * * * * * * * * * * * * * * //

dimensions      [0 3 -1 0 0 0 0];

internalField   nonuniform List<scalar> 
34880
(
5.48705e-06
7.01295e-06
3.12767e-06
2.35938e-06
2.47068e-06
6.56993e-07
2.21985e-06
2.50823e-07
2.07512e-06
1.44733e-07
1.97162e-06
1.03503e-07
1.88089e-06
9.0729e-08
1.83353e-06
4.73586e-08
1.77028e-06
6.32532e-08
1.73989e-06
3.03927e-08
1.72325e-06
1.66377e-08
1.68131e-06
4.19393e-08
1.69291e-06
-1.15976e-08
1.63889e-06
5.40169e-08
1.69942e-06
-6.05298e-08
1.642e-06
5.74183e-08
1.71534e-06
-7.33419e-08
1.71949e-06
-4.14434e-09
1.80623e-06
-8.67468e-08
-2.73307e-10
1.80651e-06
1.01103e-05
9.40269e-06
7.83384e-06
4.6358e-06
6.70804e-06
1.78279e-06
6.0645e-06
8.94361e-07
5.64847e-06
5.60763e-07
5.35024e-06
4.01738e-07
5.12255e-06
3.18415e-07
4.95999e-06
2.09917e-07
4.80454e-06
2.18703e-07
4.71481e-06
1.20125e-07
4.63024e-06
1.01212e-07
4.56523e-06
1.06942e-07
4.51106e-06
4.25714e-08
4.46249e-06
1.02591e-07
4.50226e-06
-1.00304e-07
4.40316e-06
1.56525e-07
4.5985e-06
-2.68684e-07
4.51562e-06
7.87371e-08
4.73466e-06
-3.05787e-07
1.27324e-07
4.60706e-06
1.24255e-05
9.47724e-06
1.10073e-05
6.05399e-06
9.97961e-06
2.81045e-06
9.20258e-06
1.67139e-06
8.62416e-06
1.13918e-06
8.18706e-06
8.38835e-07
7.86337e-06
6.42109e-07
7.60748e-06
4.65809e-07
7.3838e-06
4.42375e-07
7.24366e-06
2.6027e-07
7.09333e-06
2.5154e-07
7.02162e-06
1.78653e-07
6.88879e-06
1.75405e-07
6.86526e-06
1.26121e-07
6.85671e-06
-9.17596e-08
6.73651e-06
2.76723e-07
6.99053e-06
-5.22705e-07
6.8726e-06
1.96671e-07
7.0658e-06
-4.98988e-07
-1.23e-07
7.31613e-06
1.34134e-05
8.56382e-06
1.28912e-05
6.57625e-06
1.23271e-05
3.37455e-06
1.17146e-05
2.28383e-06
1.11418e-05
1.71196e-06
1.06527e-05
1.32799e-06
1.02823e-05
1.01251e-06
9.9729e-06
7.752e-07
9.69723e-06
7.18051e-07
9.53017e-06
4.27328e-07
9.31959e-06
4.62116e-07
9.24981e-06
2.48433e-07
9.04931e-06
3.75909e-07
9.03952e-06
1.35906e-07
8.99527e-06
-4.75042e-08
8.85516e-06
4.16829e-07
9.11765e-06
-7.85193e-07
8.98631e-06
3.28014e-07
9.1937e-06
-7.06382e-07
-1.94594e-07
9.26529e-06
1.35942e-05
7.4696e-06
1.36602e-05
6.51026e-06
1.36265e-05
3.40822e-06
1.33963e-05
2.51409e-06
1.30288e-05
2.07941e-06
1.26181e-05
1.73871e-06
1.22805e-05
1.35011e-06
1.19828e-05
1.07288e-06
1.1686e-05
1.01487e-06
1.1526e-05
5.87342e-07
1.12773e-05
7.10792e-07
1.12166e-05
3.09172e-07
1.09777e-05
6.14789e-07
1.09658e-05
1.4778e-07
1.09103e-05
7.97107e-09
1.07468e-05
5.80367e-07
1.09941e-05
-1.03251e-06
1.08569e-05
4.65267e-07
1.10809e-05
-9.30391e-07
7.74911e-08
1.08088e-05
1.34905e-05
6.47905e-06
1.37498e-05
6.25102e-06
1.40029e-05
3.15509e-06
1.41345e-05
2.38251e-06
1.4091e-05
2.12289e-06
1.38954e-05
1.9343e-06
1.36928e-05
1.55271e-06
1.35037e-05
1.26198e-06
1.32428e-05
1.27575e-06
1.31336e-05
6.96543e-07
1.28916e-05
9.5279e-07
1.28471e-05
3.53735e-07
1.26183e-05
8.4354e-07
1.25884e-05
1.77663e-07
1.25607e-05
3.56813e-08
1.2369e-05
7.72119e-07
1.25787e-05
-1.24224e-06
1.24898e-05
5.54222e-07
1.26549e-05
-1.09551e-06
5.74103e-07
1.21583e-05
1.33811e-05
5.59798e-06
1.36854e-05
5.94669e-06
1.39376e-05
2.90287e-06
1.41995e-05
2.12061e-06
1.43851e-05
1.93733e-06
1.44143e-05
1.90513e-06
1.43805e-05
1.58649e-06
1.43829e-05
1.25951e-06
1.42292e-05
1.42947e-06
1.42197e-05
7.06069e-07
1.4055e-05
1.11748e-06
1.4046e-05
3.62712e-07
1.38865e-05
1.0031e-06
1.38303e-05
2.33805e-07
1.38735e-05
-7.49932e-09
1.36729e-05
9.72678e-07
1.3819e-05
-1.38826e-06
1.38113e-05
5.61896e-07
1.39248e-05
-1.20905e-06
2.80953e-07
1.4218e-05
1.32935e-05
4.80445e-06
1.36988e-05
5.54138e-06
1.38293e-05
2.77242e-06
1.40697e-05
1.88019e-06
1.43078e-05
1.69927e-06
1.44531e-05
1.75978e-06
1.44864e-05
1.5532e-06
1.46437e-05
1.1022e-06
1.46139e-05
1.45925e-06
1.46934e-05
6.266e-07
1.4659e-05
1.15191e-06
1.47126e-05
3.09073e-07
1.46722e-05
1.04347e-06
1.4599e-05
3.07022e-07
1.47416e-05
-1.50063e-07
1.45874e-05
1.12687e-06
1.46703e-05
-1.47116e-06
1.47594e-05
4.72817e-07
1.47012e-05
-1.15089e-06
4.38864e-07
1.45433e-05
1.32084e-05
4.0961e-06
1.36733e-05
5.07647e-06
1.37644e-05
2.68133e-06
1.39673e-05
1.67727e-06
1.41813e-05
1.48521e-06
1.43722e-05
1.56893e-06
1.43803e-05
1.54509e-06
1.4587e-05
8.95507e-07
1.46484e-05
1.39783e-06
1.47297e-05
5.45294e-07
1.47915e-05
1.09016e-06
1.48939e-05
2.06664e-07
1.49607e-05
9.76639e-07
1.4879e-05
3.88699e-07
1.5089e-05
-3.60012e-07
1.50482e-05
1.16763e-06
1.5076e-05
-1.49892e-06
1.52698e-05
2.78952e-07
1.51925e-05
-1.07354e-06
-1.07513e-06
1.67065e-05
1.30933e-05
3.50278e-06
1.36097e-05
4.56005e-06
1.37243e-05
2.5668e-06
1.38888e-05
1.51273e-06
1.41105e-05
1.26353e-06
1.43224e-05
1.35698e-06
1.42851e-05
1.58238e-06
1.44823e-05
6.98387e-07
1.45896e-05
1.29052e-06
1.46348e-05
5.00054e-07
1.47267e-05
9.98239e-07
1.48499e-05
8.34667e-08
1.49715e-05
8.55023e-07
1.48789e-05
4.81351e-07
1.50877e-05
-5.68832e-07
1.51414e-05
1.11391e-06
1.51403e-05
-1.49774e-06
1.54346e-05
-1.53565e-08
1.53732e-05
-1.01217e-06
-2.27811e-06
1.65762e-05
1.29933e-05
3.00943e-06
1.35778e-05
3.97561e-06
1.36709e-05
2.47371e-06
1.38349e-05
1.34869e-06
1.40982e-05
1.00022e-06
1.42522e-05
1.20305e-06
1.42289e-05
1.60565e-06
1.4424e-05
5.0331e-07
1.4494e-05
1.22052e-06
1.45586e-05
4.35454e-07
1.46697e-05
8.87138e-07
1.4757e-05
-3.90665e-09
1.49039e-05
7.08172e-07
1.48528e-05
5.32401e-07
1.49905e-05
-7.06521e-07
1.50938e-05
1.01064e-06
1.50944e-05
-1.49837e-06
1.54175e-05
-3.38404e-07
1.55479e-05
-1.14264e-06
-2.76874e-06
1.60386e-05
1.29666e-05
2.5428e-06
1.35281e-05
3.41415e-06
1.36105e-05
2.39135e-06
1.38118e-05
1.14733e-06
1.39979e-05
8.14167e-07
1.41297e-05
1.07126e-06
1.42227e-05
1.51261e-06
1.4367e-05
3.59061e-07
1.44189e-05
1.1686e-06
1.45379e-05
3.16425e-07
1.46229e-05
8.02182e-07
1.46481e-05
-2.91576e-08
1.48465e-05
5.09766e-07
1.48387e-05
5.40165e-07
1.48866e-05
-7.5434e-07
1.503e-05
8.67182e-07
1.50091e-05
-1.47741e-06
1.53563e-05
-6.85661e-07
1.56145e-05
-1.40079e-06
-2.81566e-06
1.56614e-05
1.29322e-05
2.11056e-06
1.34114e-05
2.93497e-06
1.35957e-05
2.20703e-06
1.37721e-05
9.70954e-07
1.38505e-05
7.35824e-07
1.40596e-05
8.62117e-07
1.42212e-05
1.35096e-06
1.43063e-05
2.73974e-07
1.44001e-05
1.07482e-06
1.45071e-05
2.09467e-07
1.45557e-05
7.5356e-07
1.45731e-05
-4.65663e-08
1.47946e-05
2.88286e-07
1.47991e-05
5.35704e-07
1.48236e-05
-7.78881e-07
1.49994e-05
6.9134e-07
1.49259e-05
-1.40391e-06
1.52779e-05
-1.0376e-06
1.55821e-05
-1.705e-06
-2.9473e-06
1.57137e-05
1.28678e-05
1.74277e-06
1.33172e-05
2.48553e-06
1.36117e-05
1.9125e-06
1.37339e-05
8.4877e-07
1.38104e-05
6.59404e-07
1.404e-05
6.3247e-07
1.41731e-05
1.21786e-06
1.42635e-05
1.83617e-07
1.43748e-05
9.63516e-07
1.44475e-05
1.36699e-07
1.4518e-05
6.83079e-07
1.45315e-05
-6.00891e-08
1.47176e-05
1.02242e-07
1.47588e-05
4.94527e-07
1.48102e-05
-8.30282e-07
1.49872e-05
5.14319e-07
1.48812e-05
-1.29796e-06
1.52191e-05
-1.37547e-06
1.54572e-05
-1.94311e-06
-3.29392e-06
1.58038e-05
1.28215e-05
1.42132e-06
1.329e-05
2.01703e-06
1.35989e-05
1.60358e-06
1.37201e-05
7.27529e-07
1.38211e-05
5.5844e-07
1.39827e-05
4.70846e-07
1.41001e-05
1.10047e-06
1.42308e-05
5.29523e-08
1.43318e-05
8.62436e-07
1.44049e-05
6.36665e-08
1.4497e-05
5.90922e-07
1.44966e-05
-5.96915e-08
1.46461e-05
-4.71775e-08
1.47377e-05
4.02845e-07
1.47905e-05
-8.83081e-07
1.49486e-05
3.56209e-07
1.48715e-05
-1.22085e-06
1.51765e-05
-1.68045e-06
1.53088e-05
-2.07541e-06
-3.71273e-06
1.57276e-05
1.28075e-05
1.1138e-06
1.32638e-05
1.56075e-06
1.35647e-05
1.30267e-06
1.37176e-05
5.74674e-07
1.37839e-05
4.9206e-07
1.39109e-05
3.43846e-07
1.40711e-05
9.40288e-07
1.41897e-05
-6.5632e-08
1.42907e-05
7.61479e-07
1.43839e-05
-2.95935e-08
1.44793e-05
4.95526e-07
1.44653e-05
-4.56659e-08
1.46035e-05
-1.85337e-07
1.47206e-05
2.85674e-07
1.47389e-05
-9.01386e-07
1.48942e-05
2.00922e-07
1.48995e-05
-1.22618e-06
1.50902e-05
-1.87107e-06
1.5185e-05
-2.17023e-06
-4.43044e-06
1.59027e-05
1.27946e-05
8.19156e-07
1.32116e-05
1.14377e-06
1.35347e-05
9.79564e-07
1.37037e-05
4.05743e-07
1.37288e-05
4.66948e-07
1.38955e-05
1.77159e-07
1.40737e-05
7.62007e-07
1.41363e-05
-1.2818e-07
1.42733e-05
6.24472e-07
1.43669e-05
-1.2322e-07
1.44662e-05
3.9629e-07
1.44349e-05
-1.43935e-08
1.45943e-05
-3.44732e-07
1.46786e-05
2.01347e-07
1.46787e-05
-9.01453e-07
1.4874e-05
5.61653e-09
1.49246e-05
-1.27677e-06
1.49862e-05
-1.93271e-06
1.51045e-05
-2.28848e-06
-3.71692e-06
1.43909e-05
1.27589e-05
5.60242e-07
1.3195e-05
7.07707e-07
1.35433e-05
6.31211e-07
1.36653e-05
2.83782e-07
1.3713e-05
4.19207e-07
1.39047e-05
-1.44919e-08
1.40486e-05
6.1813e-07
1.41151e-05
-1.94711e-07
1.427e-05
4.69526e-07
1.43476e-05
-2.00811e-07
1.44325e-05
3.11452e-07
1.44464e-05
-2.82782e-08
1.45642e-05
-4.62546e-07
1.46436e-05
1.21914e-07
1.46305e-05
-8.88404e-07
1.48951e-05
-2.5896e-07
1.48926e-05
-1.27424e-06
1.49361e-05
-1.97625e-06
1.52558e-05
-2.60812e-06
-4.43461e-06
1.59735e-05
1.27446e-05
3.15592e-07
1.32215e-05
2.30871e-07
1.35248e-05
3.27882e-07
1.36319e-05
1.76742e-07
1.3728e-05
3.23073e-07
1.38912e-05
-1.77678e-07
1.40268e-05
4.82509e-07
1.41186e-05
-2.8656e-07
1.42679e-05
3.20316e-07
1.43121e-05
-2.45071e-07
1.44169e-05
2.06692e-07
1.44572e-05
-6.86336e-08
1.45374e-05
-5.42703e-07
1.46088e-05
5.05258e-08
1.46247e-05
-9.04289e-07
1.4891e-05
-5.25256e-07
1.48365e-05
-1.21983e-06
1.49533e-05
-2.09299e-06
1.53511e-05
-3.00598e-06
-4.84081e-06
1.57573e-05
1.27679e-05
4.7643e-08
1.32128e-05
-2.14009e-07
1.3469e-05
7.16941e-08
1.36401e-05
5.6371e-09
1.37425e-05
2.20664e-07
1.38733e-05
-3.08489e-07
1.40257e-05
3.30148e-07
1.41214e-05
-3.82277e-07
1.42551e-05
1.86594e-07
1.429e-05
-2.79961e-07
1.44135e-05
8.32254e-08
1.44571e-05
-1.12246e-07
1.45117e-05
-5.97259e-07
1.45996e-05
-3.74102e-08
1.46429e-05
-9.47539e-07
1.48541e-05
-7.36508e-07
1.48169e-05
-1.18265e-06
1.49967e-05
-2.27272e-06
1.53546e-05
-3.36396e-06
-5.04074e-06
1.55546e-05
1.27707e-05
-2.23103e-07
1.31734e-05
-6.16651e-07
1.34647e-05
-2.19645e-07
1.36691e-05
-1.98703e-07
1.37519e-05
1.37783e-07
1.38595e-05
-4.15992e-07
1.40205e-05
1.69087e-07
1.41172e-05
-4.78979e-07
1.42469e-05
5.68678e-08
1.42903e-05
-3.23296e-07
1.44086e-05
-3.51285e-08
1.44555e-05
-1.59128e-07
1.45024e-05
-6.44194e-07
1.46185e-05
-1.53501e-07
1.46558e-05
-9.84819e-07
1.48029e-05
-8.8362e-07
1.48383e-05
-1.21798e-06
1.50236e-05
-2.45805e-06
1.52666e-05
-3.60695e-06
-5.2156e-06
1.54414e-05
1.27562e-05
-4.79313e-07
1.31809e-05
-1.04129e-06
1.35016e-05
-5.4035e-07
1.36783e-05
-3.75421e-07
1.37518e-05
6.42261e-08
1.38515e-05
-5.15642e-07
1.40275e-05
-6.89682e-09
1.41169e-05
-5.68413e-07
1.42586e-05
-8.48007e-08
1.42929e-05
-3.57584e-07
1.44166e-05
-1.58901e-07
1.44685e-05
-2.10972e-07
1.45139e-05
-6.89626e-07
1.4629e-05
-2.68584e-07
1.46572e-05
-1.013e-06
1.47582e-05
-9.84666e-07
1.48802e-05
-1.33992e-06
1.50389e-05
-2.61676e-06
1.50734e-05
-3.64146e-06
-3.90699e-06
1.37648e-05
1.27707e-05
-7.50024e-07
1.32186e-05
-1.4892e-06
1.35153e-05
-8.36994e-07
1.36673e-05
-5.27507e-07
1.37527e-05
-2.11548e-08
1.38669e-05
-6.29784e-07
1.40418e-05
-1.81815e-07
1.4138e-05
-6.64586e-07
1.4272e-05
-2.18797e-07
1.43107e-05
-3.96366e-07
1.44273e-05
-2.75487e-07
1.44943e-05
-2.77954e-07
1.45101e-05
-7.05457e-07
1.46539e-05
-4.1239e-07
1.46269e-05
-9.85992e-07
1.47839e-05
-1.14166e-06
1.49137e-05
-1.4697e-06
1.49994e-05
-2.70245e-06
1.50881e-05
-3.73016e-06
-4.32765e-06
1.55088e-05
1.27993e-05
-1.0493e-06
1.32397e-05
-1.92965e-06
1.35211e-05
-1.11833e-06
1.36583e-05
-6.64733e-07
1.37757e-05
-1.38605e-07
1.38915e-05
-7.45503e-07
1.40641e-05
-3.54449e-07
1.4156e-05
-7.56511e-07
1.4284e-05
-3.46776e-07
1.43314e-05
-4.43751e-07
1.44464e-05
-3.90504e-07
1.44919e-05
-3.23451e-07
1.45322e-05
-7.45717e-07
1.46678e-05
-5.48023e-07
1.46346e-05
-9.52779e-07
1.48284e-05
-1.33551e-06
1.49148e-05
-1.55603e-06
1.49703e-05
-2.75798e-06
1.50854e-05
-3.8453e-06
-4.81942e-06
1.55772e-05
1.28218e-05
-1.37112e-06
1.32666e-05
-2.37439e-06
1.35433e-05
-1.39507e-06
1.36743e-05
-7.9573e-07
1.3801e-05
-2.65281e-07
1.39148e-05
-8.5938e-07
1.40989e-05
-5.38488e-07
1.41761e-05
-8.33732e-07
1.42948e-05
-4.65428e-07
1.43661e-05
-5.15118e-07
1.44499e-05
-4.74311e-07
1.45173e-05
-3.90855e-07
1.45714e-05
-7.99753e-07
1.46795e-05
-6.5618e-07
1.46901e-05
-9.6332e-07
1.48501e-05
-1.49552e-06
1.4884e-05
-1.58999e-06
1.49814e-05
-2.85536e-06
1.51267e-05
-3.99057e-06
-5.36707e-06
1.56743e-05
1.2852e-05
-1.72312e-06
1.33089e-05
-2.83132e-06
1.35757e-05
-1.66181e-06
1.36907e-05
-9.10772e-07
1.38204e-05
-3.94962e-07
1.39536e-05
-9.92609e-07
1.41391e-05
-7.23941e-07
1.41964e-05
-8.91039e-07
1.43281e-05
-5.97183e-07
1.4394e-05
-5.80961e-07
1.44704e-05
-5.50715e-07
1.45718e-05
-4.92281e-07
1.46034e-05
-8.31315e-07
1.46982e-05
-7.51041e-07
1.47489e-05
-1.01395e-06
1.48362e-05
-1.58288e-06
1.49052e-05
-1.65893e-06
1.50208e-05
-2.97094e-06
1.51172e-05
-4.08702e-06
-6.00942e-06
1.57596e-05
1.28925e-05
-2.11561e-06
1.33526e-05
-3.29147e-06
1.35977e-05
-1.9069e-06
1.37044e-05
-1.01748e-06
1.3862e-05
-5.52499e-07
1.40065e-05
-1.13712e-06
1.41736e-05
-8.91026e-07
1.4231e-05
-9.48469e-07
1.43691e-05
-7.35275e-07
1.4423e-05
-6.3484e-07
1.45208e-05
-6.48511e-07
1.46131e-05
-5.84599e-07
1.46322e-05
-8.50472e-07
1.47306e-05
-8.4943e-07
1.47872e-05
-1.07051e-06
1.48475e-05
-1.64324e-06
1.49618e-05
-1.77315e-06
1.50555e-05
-3.06465e-06
1.50499e-05
-4.08147e-06
-5.05751e-06
1.4098e-05
1.29375e-05
-2.55309e-06
1.3399e-05
-3.75303e-06
1.3581e-05
-2.08882e-06
1.37405e-05
-1.17698e-06
1.39235e-05
-7.35506e-07
1.40566e-05
-1.27026e-06
1.42115e-05
-1.04593e-06
1.42831e-05
-1.02001e-06
1.44044e-05
-8.56574e-07
1.44762e-05
-7.06712e-07
1.45695e-05
-7.41767e-07
1.46528e-05
-6.67923e-07
1.46691e-05
-8.66738e-07
1.47887e-05
-9.69087e-07
1.48062e-05
-1.08799e-06
1.49105e-05
-1.7475e-06
1.50101e-05
-1.87274e-06
1.5086e-05
-3.14061e-06
1.51356e-05
-4.13105e-06
-5.56464e-06
1.56427e-05
1.29906e-05
-3.04369e-06
1.34507e-05
-4.2131e-06
1.35963e-05
-2.23451e-06
1.37872e-05
-1.36779e-06
1.39829e-05
-9.31235e-07
1.41076e-05
-1.395e-06
1.42658e-05
-1.20412e-06
1.43344e-05
-1.08858e-06
1.44516e-05
-9.73835e-07
1.45318e-05
-7.86834e-07
1.46186e-05
-8.28637e-07
1.469e-05
-7.39253e-07
1.47342e-05
-9.10957e-07
1.48307e-05
-1.0656e-06
1.48689e-05
-1.12617e-06
1.4972e-05
-1.8506e-06
1.5035e-05
-1.93579e-06
1.51161e-05
-3.22167e-06
1.51503e-05
-4.16529e-06
-5.96615e-06
1.55518e-05
1.30517e-05
-3.59543e-06
1.35078e-05
-4.66915e-06
1.3634e-05
-2.36072e-06
1.38338e-05
-1.56757e-06
1.40448e-05
-1.14225e-06
1.41737e-05
-1.52394e-06
1.43281e-05
-1.35849e-06
1.43926e-05
-1.15305e-06
1.45069e-05
-1.0882e-06
1.45856e-05
-8.65539e-07
1.46633e-05
-9.06274e-07
1.47435e-05
-8.19518e-07
1.48084e-05
-9.75803e-07
1.48802e-05
-1.13743e-06
1.49571e-05
-1.20303e-06
1.50176e-05
-1.91115e-06
1.50554e-05
-1.97357e-06
1.51025e-05
-3.26879e-06
1.51078e-05
-4.17058e-06
-6.22091e-06
1.53626e-05
1.31191e-05
-4.21454e-06
1.35647e-05
-5.11473e-06
1.36779e-05
-2.47389e-06
1.3891e-05
-1.78066e-06
1.4122e-05
-1.3733e-06
1.42553e-05
-1.65724e-06
1.43955e-05
-1.4987e-06
1.446e-05
-1.21757e-06
1.45659e-05
-1.19404e-06
1.46435e-05
-9.43185e-07
1.47246e-05
-9.87413e-07
1.48165e-05
-9.11345e-07
1.48818e-05
-1.04113e-06
1.4942e-05
-1.19762e-06
1.50101e-05
-1.2711e-06
1.50062e-05
-1.90732e-06
1.50178e-05
-1.98514e-06
1.49799e-05
-3.23083e-06
1.48882e-05
-4.07897e-06
-6.25667e-06
1.4924e-05
1.31913e-05
-4.90585e-06
1.36153e-05
-5.53872e-06
1.37369e-05
-2.59545e-06
1.39722e-05
-2.01595e-06
1.42212e-05
-1.62233e-06
1.43482e-05
-1.7842e-06
1.44694e-05
-1.61997e-06
1.45403e-05
-1.28843e-06
1.46293e-05
-1.28303e-06
1.47097e-05
-1.02358e-06
1.47804e-05
-1.05814e-06
1.48487e-05
-9.7966e-07
1.4882e-05
-1.07439e-06
1.48917e-05
-1.2073e-06
1.48992e-05
-1.27862e-06
1.48129e-05
-1.82101e-06
1.47502e-05
-1.92252e-06
1.45627e-05
-3.04332e-06
1.42934e-05
-3.80964e-06
-6.04885e-06
1.40856e-05
1.3266e-05
-5.67186e-06
1.36597e-05
-5.9324e-06
1.38291e-05
-2.76485e-06
1.40853e-05
-2.27212e-06
1.43363e-05
-1.87337e-06
1.44415e-05
-1.88937e-06
1.45258e-05
-1.70431e-06
1.45825e-05
-1.34513e-06
1.4616e-05
-1.31651e-06
1.46486e-05
-1.05621e-06
1.46452e-05
-1.05467e-06
1.46309e-05
-9.65355e-07
1.45794e-05
-1.02293e-06
1.44988e-05
-1.1267e-06
1.44091e-05
-1.18896e-06
1.42266e-05
-1.63847e-06
1.40566e-05
-1.75247e-06
1.37221e-05
-2.70887e-06
1.3279e-05
-3.36657e-06
-4.91718e-06
1.21474e-05
1.33532e-05
-6.52505e-06
1.36678e-05
-6.247e-06
1.39581e-05
-3.05521e-06
1.4203e-05
-2.51702e-06
1.43931e-05
-2.06344e-06
1.44129e-05
-1.90914e-06
1.43813e-05
-1.67274e-06
1.43349e-05
-1.29876e-06
1.42375e-05
-1.21909e-06
1.41512e-05
-9.69875e-07
1.4033e-05
-9.36497e-07
1.39156e-05
-8.47928e-07
1.3774e-05
-8.81334e-07
1.36122e-05
-9.64898e-07
1.34418e-05
-1.01855e-06
1.31894e-05
-1.38613e-06
1.29352e-05
-1.49827e-06
1.25094e-05
-2.28305e-06
1.1981e-05
-2.83818e-06
-4.32229e-06
1.13861e-05
1.34724e-05
-7.49747e-06
1.37392e-05
-6.51378e-06
1.40194e-05
-3.33536e-06
1.41216e-05
-2.61923e-06
1.40883e-05
-2.03021e-06
1.39011e-05
-1.72187e-06
1.36731e-05
-1.4448e-06
1.34702e-05
-1.09579e-06
1.32414e-05
-9.90319e-07
1.30532e-05
-7.81665e-07
1.28572e-05
-7.40518e-07
1.26785e-05
-6.69256e-07
1.24887e-05
-6.91535e-07
1.22855e-05
-7.61662e-07
1.20729e-05
-8.05971e-07
1.17851e-05
-1.09837e-06
1.14824e-05
-1.19553e-06
1.10111e-05
-1.8117e-06
1.0417e-05
-2.24413e-06
-3.31743e-06
9.41216e-06
1.35823e-05
-8.57972e-06
1.36523e-05
-6.58385e-06
1.36386e-05
-3.32168e-06
1.33802e-05
-2.3608e-06
1.30241e-05
-1.6741e-06
1.26235e-05
-1.32123e-06
1.2253e-05
-1.07436e-06
1.19568e-05
-7.99565e-07
1.16718e-05
-7.05322e-07
1.14453e-05
-5.55196e-07
1.12259e-05
-5.21084e-07
1.1031e-05
-4.74392e-07
1.08298e-05
-4.90351e-07
1.06168e-05
-5.48604e-07
1.03915e-05
-5.8066e-07
1.0095e-05
-8.01942e-07
9.77474e-06
-8.75225e-07
9.28815e-06
-1.32512e-06
8.68059e-06
-1.63657e-06
-2.4028e-06
7.76596e-06
1.34053e-05
-9.48502e-06
1.28846e-05
-6.06313e-06
1.23358e-05
-2.77292e-06
1.16991e-05
-1.72403e-06
1.11382e-05
-1.11323e-06
1.06551e-05
-8.38149e-07
1.02555e-05
-6.74783e-07
9.94966e-06
-4.93699e-07
9.67352e-06
-4.29184e-07
9.45616e-06
-3.37834e-07
9.25115e-06
-3.16073e-07
9.06981e-06
-2.93054e-07
8.88275e-06
-3.03283e-07
8.68249e-06
-3.48346e-07
8.46792e-06
-3.6609e-07
8.1862e-06
-5.20222e-07
7.87501e-06
-5.64033e-07
7.40908e-06
-8.59191e-07
6.82496e-06
-1.05245e-06
-1.5851e-06
6.00725e-06
1.24202e-05
-9.40518e-06
1.10013e-05
-4.64431e-06
9.98705e-06
-1.75863e-06
9.18896e-06
-9.25943e-07
8.62159e-06
-5.45853e-07
8.18635e-06
-4.02917e-07
7.84158e-06
-3.30006e-07
7.58389e-06
-2.36015e-07
7.35804e-06
-2.03328e-07
7.18068e-06
-1.6048e-07
7.01527e-06
-1.5066e-07
6.86648e-06
-1.44265e-07
6.71211e-06
-1.48907e-07
6.54217e-06
-1.78408e-07
6.35894e-06
-1.82868e-07
6.11316e-06
-2.74435e-07
5.83955e-06
-2.90425e-07
5.42996e-06
-4.49598e-07
4.9189e-06
-5.41397e-07
-8.66741e-07
4.20055e-06
1.01077e-05
-7.01292e-06
7.82766e-06
-2.36423e-06
6.71547e-06
-6.46444e-07
6.05309e-06
-2.63558e-07
5.64641e-06
-1.39177e-07
5.34758e-06
-1.04088e-07
5.10908e-06
-9.15066e-08
4.93541e-06
-6.23389e-08
4.78543e-06
-5.3347e-08
4.66749e-06
-4.25476e-08
4.5574e-06
-4.05677e-08
4.45436e-06
-4.12281e-08
4.3476e-06
-4.21455e-08
4.22371e-06
-5.4512e-08
4.09288e-06
-5.20418e-08
3.9063e-06
-8.7855e-08
3.70343e-06
-8.75545e-08
3.39345e-06
-1.39617e-07
3.01618e-06
-1.64126e-07
-3.02271e-07
2.45171e-06
5.48708e-06
3.12285e-06
2.47641e-06
2.21285e-06
2.07367e-06
1.96959e-06
1.87808e-06
1.81574e-06
1.76239e-06
1.71984e-06
1.67928e-06
1.63805e-06
1.5959e-06
1.54139e-06
1.48935e-06
1.40149e-06
1.31394e-06
1.17432e-06
1.0102e-06
7.07927e-07
2.30909e-06
9.81829e-07
-1.48441e-06
5.19105e-06
3.36896e-06
-6.25092e-06
7.90299e-06
2.97861e-06
-5.69054e-06
9.5861e-06
5.68439e-06
-7.3675e-06
1.12972e-05
5.71724e-06
-7.42831e-06
1.21409e-05
2.54196e-06
-3.38567e-06
1.24172e-05
1.88461e-07
-4.64818e-07
1.25842e-05
-2.43867e-06
2.27172e-06
1.26979e-05
-6.70422e-06
6.59053e-06
1.29965e-05
-1.1006e-05
1.07074e-05
1.36472e-05
-1.4163e-05
1.35124e-05
1.4257e-05
-1.72685e-05
1.66587e-05
1.3931e-05
-1.94189e-05
1.97449e-05
1.28252e-05
-2.09624e-05
2.20682e-05
1.1209e-05
-2.09404e-05
2.25566e-05
9.63283e-06
-1.99974e-05
2.15735e-05
8.2341e-06
-1.78437e-05
1.92425e-05
7.25791e-06
-1.79125e-05
1.88886e-05
6.68924e-06
-1.53733e-05
1.59419e-05
6.07756e-06
-1.35902e-05
1.42019e-05
5.41023e-06
-1.18917e-05
1.2559e-05
4.32072e-06
-9.55561e-06
1.06451e-05
3.45069e-06
-8.67934e-06
9.54938e-06
3.23045e-06
-3.52468e-06
3.74492e-06
3.0141e-06
5.08958e-06
-4.87323e-06
2.961e-06
1.38869e-05
-1.38338e-05
2.69134e-06
2.35409e-05
-2.32712e-05
3.16249e-06
2.98357e-05
-3.03069e-05
4.88933e-06
2.62968e-05
-2.80237e-05
6.28345e-06
2.12867e-05
-2.26808e-05
7.06591e-06
1.96513e-05
-2.04337e-05
7.81093e-06
1.50453e-05
-1.57903e-05
8.84249e-06
1.02707e-05
-1.13023e-05
1.01914e-05
5.71917e-06
-7.06808e-06
1.12137e-05
1.25055e-06
-2.27289e-06
1.20178e-05
-1.26493e-06
4.60895e-07
1.2282e-05
-2.79204e-06
2.52777e-06
1.21942e-05
-3.54922e-06
3.63711e-06
1.2196e-05
-5.12093e-06
5.11911e-06
1.20863e-05
-6.07537e-06
6.18508e-06
1.21492e-05
-6.39609e-06
6.33316e-06
1.28829e-05
-9.32342e-06
8.58975e-06
1.3634e-05
-1.35423e-05
1.27912e-05
1.37973e-05
-1.67952e-05
1.66318e-05
1.33326e-05
-1.86716e-05
1.91363e-05
1.26375e-05
-1.95799e-05
2.0275e-05
1.19513e-05
-2.06863e-05
2.13724e-05
1.11318e-05
-2.13121e-05
2.21316e-05
1.0419e-05
-2.01695e-05
2.08823e-05
1.01898e-05
-2.1167e-05
2.13963e-05
9.86e-06
-2.34392e-05
2.37689e-05
9.12969e-06
-2.30374e-05
2.37677e-05
8.26937e-06
-2.16857e-05
2.25461e-05
7.38702e-06
-1.99184e-05
2.08007e-05
6.67922e-06
-1.87541e-05
1.94619e-05
6.23576e-06
-1.88134e-05
1.92568e-05
6.01812e-06
-1.89385e-05
1.91562e-05
6.10866e-06
-2.00305e-05
1.994e-05
6.2908e-06
-2.1101e-05
2.09189e-05
6.5568e-06
-2.20465e-05
2.17805e-05
7.03805e-06
-2.25635e-05
2.20822e-05
7.47346e-06
-2.21367e-05
2.17013e-05
7.99263e-06
-2.17708e-05
2.12517e-05
8.59626e-06
-2.06765e-05
2.00729e-05
9.16735e-06
-1.86414e-05
1.80703e-05
9.63082e-06
-1.58613e-05
1.53978e-05
1.00015e-05
-1.27848e-05
1.24141e-05
1.04732e-05
-9.79543e-06
9.32375e-06
1.08008e-05
-6.08456e-06
5.75689e-06
1.10228e-05
-2.98826e-06
2.76631e-06
1.11874e-05
6.03182e-07
-7.67814e-07
1.11022e-05
4.12651e-06
-4.04132e-06
1.11123e-05
6.66311e-06
-6.67316e-06
1.10061e-05
9.7087e-06
-9.60251e-06
1.03181e-05
1.21216e-05
-1.14336e-05
9.43866e-06
1.18092e-05
-1.09297e-05
9.0576e-06
1.08742e-05
-1.04932e-05
9.35608e-06
1.24752e-05
-1.27737e-05
9.83758e-06
1.61802e-05
-1.66617e-05
1.01828e-05
1.88146e-05
-1.91598e-05
1.02845e-05
2.04703e-05
-2.0572e-05
1.01537e-05
2.15634e-05
-2.14325e-05
9.85648e-06
2.09623e-05
-2.06651e-05
9.54292e-06
1.95057e-05
-1.91921e-05
9.19816e-06
1.87155e-05
-1.83708e-05
8.84297e-06
1.78333e-05
-1.74781e-05
8.65141e-06
1.59079e-05
-1.57164e-05
8.44115e-06
1.43665e-05
-1.41562e-05
8.22679e-06
1.32298e-05
-1.30155e-05
8.1685e-06
1.20632e-05
-1.20049e-05
8.15952e-06
1.13442e-05
-1.13352e-05
8.13711e-06
1.01622e-05
-1.01398e-05
8.12686e-06
9.43226e-06
-9.42201e-06
8.24256e-06
9.24492e-06
-9.36063e-06
8.29197e-06
8.6695e-06
-8.71891e-06
8.24202e-06
8.27938e-06
-8.22942e-06
8.47329e-06
7.31403e-06
-7.54531e-06
8.74933e-06
7.21517e-06
-7.49121e-06
8.86644e-06
7.57182e-06
-7.68893e-06
8.83856e-06
7.38483e-06
-7.35695e-06
8.81537e-06
6.81315e-06
-6.78996e-06
8.87314e-06
6.64806e-06
-6.70582e-06
8.88528e-06
6.56131e-06
-6.57345e-06
9.00895e-06
6.36895e-06
-6.49262e-06
9.35477e-06
6.37102e-06
-6.71684e-06
9.7814e-06
6.56576e-06
-6.99239e-06
1.00794e-05
6.99989e-06
-7.29793e-06
1.03118e-05
7.42468e-06
-7.65707e-06
1.07562e-05
7.28836e-06
-7.73274e-06
1.15259e-05
7.14605e-06
-7.91576e-06
1.22098e-05
7.71984e-06
-8.40374e-06
1.27942e-05
7.56264e-06
-8.14702e-06
1.34049e-05
6.1099e-06
-6.7206e-06
1.39738e-05
5.064e-06
-5.6329e-06
1.44844e-05
3.15155e-06
-3.66211e-06
1.48521e-05
9.20278e-07
-1.28806e-06
1.51293e-05
-2.89086e-07
1.18968e-08
1.53606e-05
-2.47459e-06
2.24332e-06
1.54081e-05
-4.82453e-06
4.77704e-06
1.53564e-05
-6.59533e-06
6.64699e-06
1.52125e-05
-8.98116e-06
9.12512e-06
1.48462e-05
-1.09209e-05
1.12872e-05
1.42913e-05
-1.21085e-05
1.26633e-05
1.36568e-05
-1.32941e-05
1.39287e-05
1.29379e-05
-1.42378e-05
1.49567e-05
1.22145e-05
-1.49376e-05
1.56611e-05
1.15257e-05
-1.56441e-05
1.63329e-05
1.07984e-05
-1.6041e-05
1.67684e-05
1.02719e-05
-1.66072e-05
1.71336e-05
1.00773e-05
-1.86931e-05
1.88877e-05
1.00689e-05
-2.17271e-05
2.17355e-05
9.99578e-06
-2.38351e-05
2.39082e-05
9.73013e-06
-2.44554e-05
2.4721e-05
9.4744e-06
-2.38457e-05
2.41014e-05
9.29898e-06
-2.30086e-05
2.3184e-05
9.18208e-06
-2.2427e-05
2.25439e-05
9.04627e-06
-2.11341e-05
2.12699e-05
8.9277e-06
-1.89553e-05
1.90739e-05
8.931e-06
-1.70017e-05
1.69984e-05
9.00459e-06
-1.41624e-05
1.40888e-05
9.13663e-06
-1.16445e-05
1.15125e-05
9.29942e-06
-8.54614e-06
8.38334e-06
9.64003e-06
-5.48975e-06
5.14915e-06
9.89522e-06
-3.06226e-06
2.80706e-06
1.00861e-05
2.66853e-07
-4.57699e-07
1.03956e-05
3.72248e-06
-4.03198e-06
1.07205e-05
6.36416e-06
-6.68907e-06
1.09002e-05
9.35807e-06
-9.53779e-06
1.1036e-05
1.28934e-05
-1.30292e-05
1.11011e-05
1.49878e-05
-1.50528e-05
1.10321e-05
1.59926e-05
-1.59236e-05
1.09345e-05
1.8041e-05
-1.79434e-05
1.07092e-05
2.05503e-05
-2.0325e-05
1.03384e-05
2.05164e-05
-2.01456e-05
1.01058e-05
1.99031e-05
-1.96705e-05
1.00115e-05
2.14689e-05
-2.13746e-05
9.84136e-06
2.27222e-05
-2.25521e-05
9.40638e-06
2.18087e-05
-2.13738e-05
9.06871e-06
1.93038e-05
-1.89661e-05
8.81424e-06
1.77881e-05
-1.75336e-05
8.59609e-06
1.6498e-05
-1.62798e-05
8.51294e-06
1.48294e-05
-1.47462e-05
8.53348e-06
1.48723e-05
-1.48929e-05
8.6927e-06
1.53603e-05
-1.55195e-05
8.61305e-06
1.53973e-05
-1.53177e-05
8.55952e-06
1.66457e-05
-1.65922e-05
8.77023e-06
1.84072e-05
-1.86179e-05
9.04409e-06
1.8414e-05
-1.86878e-05
9.46911e-06
1.93178e-05
-1.97429e-05
9.73374e-06
2.17738e-05
-2.20384e-05
1.04673e-05
2.03581e-05
-2.10916e-05
1.05073e-05
2.27753e-05
-2.28153e-05
1.09404e-05
1.86449e-05
-1.9078e-05
1.07012e-05
1.99955e-05
-1.97564e-05
1.09422e-05
1.41146e-05
-1.43555e-05
1.06144e-05
1.60043e-05
-1.56766e-05
1.07585e-05
8.05015e-06
-8.19417e-06
1.03125e-05
1.04741e-05
-1.00281e-05
1.01855e-05
1.92833e-06
-1.80134e-06
9.63338e-06
5.02128e-06
-4.46916e-06
1.0063e-05
-4.46521e-06
4.03554e-06
9.54991e-06
4.92009e-07
2.11252e-08
9.63005e-06
-8.41972e-06
8.33958e-06
8.28638e-06
-3.64213e-06
4.9858e-06
9.08672e-06
-1.32794e-05
1.24791e-05
8.22814e-06
-6.489e-06
7.34758e-06
8.78059e-06
-1.06738e-05
1.01213e-05
7.58554e-06
-6.06283e-06
7.25788e-06
7.63935e-06
-1.04005e-05
1.03467e-05
6.42129e-06
-7.19095e-06
8.40901e-06
6.4639e-06
-1.0166e-05
1.01234e-05
5.72621e-06
-7.6748e-06
8.4125e-06
5.8773e-06
-8.71196e-06
8.56088e-06
5.87778e-06
-5.16579e-06
5.16531e-06
6.26653e-06
-2.60396e-06
2.21521e-06
5.72504e-06
1.33026e-06
-7.88763e-07
6.34691e-06
3.39856e-06
-4.02043e-06
5.79457e-06
1.14818e-05
-1.09294e-05
6.45648e-06
1.61817e-05
-1.68436e-05
3.02977e-05
-2.99069e-05
6.06565e-06
4.45054e-06
1.13835e-06
5.84557e-06
1.97392e-06
7.52189e-06
1.30229e-06
9.4227e-06
3.78358e-06
1.10697e-05
4.07021e-06
1.17841e-05
1.8276e-06
1.22918e-05
-3.19276e-07
1.27884e-05
-2.93524e-06
1.35658e-05
-7.48166e-06
1.43436e-05
-1.17838e-05
1.48263e-05
-1.46456e-05
1.48665e-05
-1.73087e-05
1.41446e-05
-1.86971e-05
1.27377e-05
-1.95555e-05
1.11988e-05
-1.94015e-05
9.6559e-06
-1.84545e-05
8.53084e-06
-1.67187e-05
7.46568e-06
-1.68473e-05
6.8024e-06
-1.471e-05
6.18926e-06
-1.29771e-05
5.58578e-06
-1.12882e-05
4.61683e-06
-8.58666e-06
3.73456e-06
-7.79708e-06
3.71224e-06
-3.50235e-06
3.82504e-06
4.97678e-06
3.58818e-06
1.41238e-05
3.30254e-06
2.38265e-05
3.92959e-06
2.92087e-05
5.62476e-06
2.46017e-05
6.95198e-06
1.99595e-05
7.87037e-06
1.87329e-05
8.85332e-06
1.40623e-05
9.8666e-06
9.25746e-06
1.09455e-05
4.64026e-06
1.17661e-05
4.2993e-07
1.23967e-05
-1.89551e-06
1.25908e-05
-2.98616e-06
1.2622e-05
-3.5804e-06
1.26035e-05
-5.10247e-06
1.24263e-05
-5.8981e-06
1.27089e-05
-6.67878e-06
1.36039e-05
-1.02184e-05
1.42256e-05
-1.4164e-05
1.41022e-05
-1.66717e-05
1.34208e-05
-1.79903e-05
1.26543e-05
-1.88133e-05
1.1953e-05
-1.99849e-05
1.11068e-05
-2.04659e-05
1.04151e-05
-1.94778e-05
1.01707e-05
-2.09226e-05
9.73063e-06
-2.29991e-05
8.91079e-06
-2.22176e-05
7.96965e-06
-2.07446e-05
7.03901e-06
-1.89877e-05
6.33149e-06
-1.80466e-05
5.88417e-06
-1.8366e-05
5.67036e-06
-1.87247e-05
5.74793e-06
-2.01081e-05
5.92119e-06
-2.12743e-05
6.20506e-06
-2.23304e-05
6.6197e-06
-2.29781e-05
7.00521e-06
-2.25222e-05
7.49796e-06
-2.22636e-05
8.10391e-06
-2.12825e-05
8.63395e-06
-1.91714e-05
9.05479e-06
-1.62821e-05
9.43679e-06
-1.31668e-05
9.8696e-06
-1.02282e-05
1.01487e-05
-6.3637e-06
1.03389e-05
-3.17842e-06
1.05738e-05
3.68288e-07
1.05757e-05
4.12462e-06
1.05487e-05
6.69008e-06
1.04882e-05
9.76922e-06
1.0003e-05
1.26068e-05
9.17229e-06
1.26399e-05
8.61187e-06
1.14346e-05
8.79718e-06
1.22899e-05
9.31375e-06
1.56636e-05
9.72414e-06
1.84042e-05
9.89299e-06
2.03014e-05
9.80114e-06
2.16553e-05
9.52909e-06
2.12344e-05
9.23161e-06
1.98032e-05
8.88711e-06
1.906e-05
8.54562e-06
1.81748e-05
8.3733e-06
1.60802e-05
8.18363e-06
1.45562e-05
7.96081e-06
1.34526e-05
7.88064e-06
1.21434e-05
7.90632e-06
1.13185e-05
7.89135e-06
1.01772e-05
7.87075e-06
9.45287e-06
8.00012e-06
9.11555e-06
8.07279e-06
8.59683e-06
8.058e-06
8.29417e-06
8.27492e-06
7.09711e-06
8.58371e-06
6.90637e-06
8.80104e-06
7.35448e-06
8.84839e-06
7.33748e-06
8.84037e-06
6.82118e-06
8.90039e-06
6.58804e-06
8.92382e-06
6.53787e-06
9.02508e-06
6.2677e-06