/*--------------------------------*- C++ -*----------------------------------*\
| =========                 |                                                 |
| \\      /  F ield         | OpenFOAM: The Open Source CFD Toolbox           |
|  \\    /   O peration     | Version:  2.4.0                                 |
|   \\  /    A nd           | Web:      www.OpenFOAM.org                      |
|    \\/     M anipulation  |                                                 |
\*---------------------------------------------------------------------------*/
FoamFile
{
    version     2.0;
    format      ascii;
    class       volScalarField;
    location    "0.045";
    object      pMean;
}
// * * * * * * * * * * * * * * * * * * * * * * * * * * * * * * * * * * * * * //

dimensions      [0 2 -2 0 0 0 0];

internalField   nonuniform List<scalar> 
4400
(
198.613
174.602
164.87
159.537
154.774
149.881
144.928
139.888
134.455
126.73
196.739
174.661
164.904
159.547
154.775
149.883
144.929
139.896
134.486
127.963
195.56
174.951
165.032
159.585
154.794
149.889
144.932
139.896
134.639
128.562
194.833
175.3
165.196
159.643
154.832
149.919
144.939
139.939
134.786
129.229
194.242
175.615
165.359
159.704
154.888
149.954
144.966
139.958
134.974
129.772
193.734
175.876
165.499
159.752
154.938
150.01
144.994
140.014
135.151
130.268
193.318
176.082
165.614
159.785
154.98
150.053
145.027
140.067
135.288
130.79
193
176.238
165.703
159.805
155.009
150.089
145.063
140.118
135.425
131.223
192.785
176.345
165.762
159.817
155.025
150.118
145.085
140.176
135.56
131.621
192.676
176.402
165.791
159.824
155.035
150.129
145.117
140.226
135.695
131.954
192.672
176.408
165.789
159.828
155.033
150.136
145.133
140.277
135.828
132.235
192.775
176.362
165.756
159.828
155.025
150.13
145.153
140.331
135.948
132.463
192.984
176.266
165.692
159.823
155.007
150.115
145.164
140.378
136.06
132.644
193.297
176.118
165.598
159.81
154.979
150.091
145.169
140.426
136.165
132.774
193.711
175.919
165.478
159.784
154.94
150.058
145.169
140.468
136.26
132.859
194.216
175.664
165.332
159.741
154.891
150.022
145.166
140.507
136.34
132.918
194.806
175.352
165.166
159.684
154.839
149.992
145.166
140.542
136.4
132.959
195.531
175.005
165
159.629
154.802
149.977
145.171
140.569
136.437
132.989
196.71
174.715
164.872
159.591
154.785
149.974
145.176
140.585
136.452
133.014
198.582
174.656
164.838
159.582
154.782
149.975
145.178
140.591
136.455
133.127
121.277
121.564
120.658
119.27
118.116
116.834
114.964
112.87
111.227
110.673
111.177
112.446
114.561
117.494
120.934
124.468
127.779
130.684
133.098
135
136.43
137.463
138.185
138.707
139.13
139.543
140.029
140.615
141.262
141.916
142.507
142.934
143.152
143.187
143.08
142.868
142.591
142.274
141.933
141.575
141.203
140.822
140.436
140.047
139.655
139.263
138.87
138.476
138.082
137.687
137.293
136.895
136.503
136.099
135.709
135.294
134.908
134.476
134.105
133.656
133.318
132.861
132.56
132.09
131.812
131.315
131.054
130.525
130.297
129.738
129.559
128.965
128.841
128.199
128.13
127.445
127.439
126.714
126.767
125.996
126.093
125.294
125.414
124.608
124.714
123.902
123.966
123.127
123.109
122.187
122.048
120.914
120.633
119.009
118.547
115.672
115.022
108.178
106.595
76.1159
122.759
122.185
121.631
120.574
119.334
118.022
116.336
114.486
112.983
112.389
112.775
113.925
115.87
118.571
121.75
125.045
128.136
130.824
133.018
134.699
135.926
136.792
137.378
137.795
138.154
138.551
139.078
139.755
140.525
141.332
142.082
142.644
142.961
143.061
142.995
142.809
142.548
142.243
141.909
141.557
141.189
140.812
140.428
140.04
139.65
139.259
138.867
138.473
138.08
137.685
137.292
136.894
136.501
136.097
135.706
135.29
134.903
134.469
134.092
133.642
133.294
132.84
132.526
132.062
131.766
131.27
130.989
130.454
130.212
129.639
129.455
128.836
128.719
128.033
127.99
127.234
127.282
126.455
126.601
125.683
125.925
124.929
125.269
124.188
124.571
123.433
123.802
122.606
122.886
121.578
121.696
120.108
120.031
117.774
117.64
113.63
113.426
103.976
102.291
68.747
124.563
123.427
122.508
121.594
120.426
119.161
117.648
115.982
114.605
114.034
114.392
115.497
117.32
119.807
122.723
125.751
128.581
131.006
132.943
134.384
135.4
136.085
136.513
136.811
137.099
137.483
138.059
138.838
139.75
140.722
141.639
142.345
142.769
142.938
142.914
142.754
142.508
142.213
141.887
141.539
141.176
140.802
140.42
140.034
139.646
139.255
138.864
138.471
138.078
137.683
137.29
136.892
136.5
136.096
135.705
135.289
134.899
134.466
134.082
133.634
133.272
132.824
132.49
132.034
131.711
131.219
130.91
130.376
130.109
129.535
129.331
128.705
128.569
127.865
127.81
127.018
127.07
126.175
126.353
125.32
125.647
124.472
124.974
123.629
124.28
122.777
123.536
121.872
122.603
120.778
121.321
119.18
119.413
116.418
116.567
111.425
111.78
100.386
97.2887
67.1644
126.06
124.839
123.611
122.603
121.526
120.355
119.021
117.554
116.333
115.835
116.183
117.228
118.915
121.178
123.81
126.534
129.059
131.189
132.851
134.049
134.853
135.34
135.595
135.768
135.993
136.375
137.012
137.912
138.977
140.112
141.192
142.043
142.577
142.819
142.838
142.702
142.471
142.185
141.865
141.522
141.163
140.792
140.412
140.028
139.641
139.251
138.861
138.468
138.076
137.681
137.289
136.891
136.499
136.095
135.704
135.29
134.898
134.467
134.075
133.633
133.252
132.81
132.449
131.997
131.641
131.152
130.811
130.282
129.988
129.422
129.189
128.57
128.396
127.698
127.599
126.808
126.815
125.903
126.042
124.96
125.276
123.998
124.542
122.999
123.796
121.962
123.048
120.866
122.177
119.6
120.91
117.897
118.832
114.985
115.239
109.221
109.46
97.2083
91.5254
67.8181
127.078
126.021
124.837
123.663
122.601
121.521
120.379
119.158
118.157
117.768
118.1
119.057
120.582
122.606
124.941
127.337
129.53
131.351
132.739
133.697
134.284
134.562
134.644
134.707
134.878
135.273
135.992
137.024
138.239
139.529
140.761
141.75
142.393
142.706
142.765
142.652
142.435
142.158
141.844
141.506
141.15
140.782
140.405
140.022
139.636
139.248
138.858
138.466
138.074
137.68
137.287
136.89
136.498
136.095
135.703
135.292
134.898
134.472
134.073
133.635
133.234
132.796
132.402
131.953
131.56
131.078
130.702
130.187
129.855
129.308
129.029
128.432
128.197
127.522
127.357
126.592
126.521
125.633
125.68
124.617
124.836
123.555
123.999
122.409
123.131
121.154
122.229
119.727
121.197
118.053
119.947
116.001
117.858
112.924
114.255
107.314
106.864
94.6687
84.6762
67.7042
127.916
126.987
125.868
124.639
123.596
122.67
121.753
120.811
120.039
119.741
120.043
120.893
122.245
124.021
126.051
128.106
129.964
131.483
132.606
133.333
133.701
133.771
133.7
133.676
133.806
134.229
135.049
136.211
137.567
138.998
140.369
141.483
142.222
142.6
142.697
142.606
142.401
142.132
141.824
141.49
141.137
140.772
140.397
140.016
139.632
139.244
138.855
138.464
138.072
137.678
137.286
136.889
136.497
136.095
135.704
135.295
134.9
134.48
134.074
133.642
133.22
132.784
132.355
131.908
131.481
131.009
130.599
130.101
129.726
129.201
128.863
128.293
127.984
127.341
127.093
126.367
126.198
125.351
125.279
124.269
124.351
123.133
123.4
121.883
122.4
120.484
121.324
118.824
120.072
116.739
118.464
113.931
116.083
110.085
112.224
104.114
103.092
92.0373
79.4709
67.7648
128.708
127.759
126.645
125.487
124.563
123.847
123.161
122.449
121.865
121.636
121.903
122.648
123.823
125.348
127.079
128.809
130.349
131.591
132.467
132.965
133.115
132.995
132.812
132.723
132.823
133.291
134.212
135.499
136.983
138.54
140.031
141.251
142.074
142.507
142.636
142.564
142.371
142.109
141.805
141.475
141.125
140.762
140.39
140.011
139.628
139.241
138.853
138.462
138.071
137.677
137.285
136.888
136.496
136.096
135.704
135.298
134.903
134.488
134.077
133.652
133.21
132.777
132.314
131.872
131.414
130.957
130.518
130.037
129.62
129.111
128.715
128.166
127.784
127.177
126.834
126.153
125.866
125.071
124.859
123.92
123.837
122.699
122.765
121.355
121.637
119.868
120.407
118.128
118.96
115.884
116.999
112.582
114.009
107.677
108.795
99.8213
97.7683
87.5398
76.4351
68.1225
129.58
128.588
127.357
126.289
125.514
124.962
124.452
123.935
123.51
123.353
123.598
124.251
125.259
126.55
128.007
129.444
130.706
131.69
132.324
132.596
132.547
132.287
132.038
131.899
131.974
132.495
133.513
134.908
136.508
138.177
139.765
141.066
141.952
142.428
142.584
142.527
142.343
142.087
141.788
141.46
141.114
140.753
140.382
140.005
139.623
139.238
138.85
138.46
138.069
137.676
137.284
136.888
136.495
136.096
135.704
135.301
134.905
134.497
134.082
133.664
133.207
132.778
132.284
131.852
131.364
130.931
130.462
130.007
129.544
129.058
128.595
128.076
127.617
127.048
126.611
125.97
125.56
124.819
124.458
123.588
123.323
122.264
122.112
120.795
120.833
119.164
119.415
117.25
117.719
114.803
115.343
111.272
111.594
105.732
104.984
96.6867
92.8284
84.3105
75.1967
68.0323
130.246
129.263
127.971
126.964
126.327
125.928
125.591
125.258
124.98
124.892
125.123
125.695
126.554
127.638
128.852
130.03
131.036
131.77
132.172
132.247
132.038
131.694
131.418
131.235
131.291
131.875
132.983
134.46
136.157
137.924
139.589
140.943
141.867
142.37
142.542
142.496
142.321
142.07
141.775
141.45
141.105
140.746
140.378
140.001
139.62
139.236
138.848
138.459
138.068
137.675
137.283
136.887
136.494
136.096
135.703
135.303
134.907
134.505
134.088
133.678
133.21
132.788
132.267
131.851
131.334
130.933
130.432
130.015
129.503
129.05
128.518
128.037
127.502
126.978
126.447
125.85
125.317
124.634
124.117
123.319
122.855
121.877
121.478
120.262
120.004
118.43
118.338
116.248
116.318
113.467
113.455
109.565
108.876
103.699
101.066
94.858
89.6866
83.6425
75.0245
68.1155
130.78
129.837
128.555
127.615
127.091
126.829
126.64
126.455
126.298
126.27
126.489
126.989
127.72
128.627
129.625
130.565
131.321
131.813
132.01
131.925
131.613
131.248
130.968
130.746
130.798
131.454
132.641
134.183
135.95
137.784
139.498
140.88
141.817
142.33
142.511
142.472
142.303
142.056
141.763
141.44
141.097
140.74
140.373
139.998
139.617
139.233
138.846
138.457
138.067
137.674
137.282
136.887
136.493
136.096
135.702
135.305
134.907
134.511
134.094
133.693
133.22
132.807
132.268
131.869
131.328
130.959
130.428
130.056
129.498
129.092
128.493
128.061
127.457
126.986
126.369
125.824
125.174
124.555
123.892
123.162
122.495
121.598
120.937
119.824
119.223
117.761
117.235
115.283
114.802
112.148
111.401
107.916
106.206
102.001
98.4276
94.0945
88.5361
84.8525
75.5395
68.9898
131.213
130.331
129.099
128.221
127.786
127.63
127.565
127.508
127.461
127.496
127.717
128.161
128.784
129.535
130.337
131.053
131.578
131.858
131.89
131.681
131.306
130.961
130.699
130.451
130.518
131.25
132.503
134.097
135.916
137.78
139.507
140.885
141.812
142.318
142.496
142.458
142.289
142.044
141.752
141.431
141.09
140.734
140.368
139.994
139.615
139.231
138.845
138.456
138.066
137.673
137.281
136.886
136.493
136.096
135.701
135.306
134.906
134.516
134.098
133.707
133.234
132.835
132.287
131.907
131.347
131.009
130.452
130.123
129.528
129.181
128.519
128.152
127.474
127.08
126.374
125.909
125.148
124.611
123.818
123.172
122.323
121.514
120.609
119.596
118.649
117.312
116.305
114.557
113.437
111.114
109.587
106.688
104.258
101.052
97.2239
94.5165
88.7684
86.6466
76.6603
70.3851
131.534
130.716
129.579
128.8
128.459
128.399
128.434
128.482
128.526
128.616
128.839
129.232
129.756
130.363
130.972
131.478
131.811
131.936
131.84
131.54
131.141
130.85
130.623
130.361
130.447
131.253
132.555
134.172
136.021
137.89
139.598
140.946
141.844
142.328
142.496
142.455
142.285
142.039
141.748
141.427
141.087
140.731
140.366
139.992
139.613
139.23
138.844
138.455
138.065
137.673
137.28
136.886
136.492
136.096
135.7
135.307
134.905
134.519
134.101
133.721
133.252
132.87
132.323
131.964
131.39
131.079
130.501
130.212
129.59
129.3
128.591
128.296
127.548
127.247
126.455
126.102
125.227
124.816
123.883
123.374
122.344
121.676
120.544
119.668
118.417
117.238
115.808
114.29
112.614
110.676
108.548
106.282
103.416
101.285
97.2337
95.9624
89.7609
88.2046
78.1126
71.5566
131.779
131.047
130.047
129.39
129.135
129.139
129.239
129.354
129.463
129.596
129.822
130.17
130.601
131.059
131.478
131.791
131.952
131.947
131.783
131.448
131.072
130.878
130.732
130.481
130.592
131.462
132.804
134.424
136.261
138.101
139.758
141.05
141.902
142.356
142.508
142.459
142.286
142.038
141.746
141.425
141.084
140.729
140.363
139.991
139.612
139.229
138.843
138.455
138.065
137.673
137.28
136.886
136.492
136.097
135.699
135.308
134.904
134.522
134.102
133.734
133.269
132.911
132.372
132.037
131.453
131.169
130.568
130.319
129.67
129.442
128.698
128.477
127.668
127.464
126.594
126.376
125.391
125.143
124.057
123.751
122.523
122.097
120.703
120.096
118.512
117.646
115.788
114.636
112.446
111.036
108.348
106.923
103.571
102.649
98.1077
97.8588
91.0877
89.2861
79.4735
72.3396
131.913
131.274
130.46
129.955
129.793
129.846
129.981
130.135
130.283
130.445
130.666
130.96
131.288
131.601
131.854
132.007
132.052
131.983
131.777
131.424
131.094
131.017
130.981
130.77
130.914
131.817
133.189
134.809
136.607
138.386
139.965
141.181
141.977
142.395
142.528
142.469
142.29
142.039
141.745
141.423
141.082
140.727
140.362
139.99
139.611
139.228
138.843
138.454
138.064
137.673
137.28
136.886
136.491
136.098
135.699
135.309
134.904
134.524
134.102
133.744
133.285
132.951
132.424
132.117
131.529
131.27
130.65
130.436
129.764
129.593
128.825
128.678
127.816
127.706
126.769
126.687
125.613
125.539
124.311
124.243
122.82
122.714
121.031
120.838
118.857
118.523
116.142
115.646
112.815
112.262
108.857
108.542
104.458
104.637
99.4359
99.5316
92.315
89.8564
80.5311
72.9391
131.968
131.449
130.86
130.513
130.418
130.479
130.621
130.791
130.957
131.125
131.321
131.544
131.763
131.952
132.087
132.146
132.132
132.035
131.819
131.476
131.21
131.245
131.312
131.185
131.388
132.288
133.653
135.255
136.998
138.698
140.187
141.321
142.057
142.438
142.549
142.479
142.295
142.042
141.746
141.424
141.082
140.727
140.362
139.989
139.611
139.228
138.843
138.454
138.064
137.673
137.28
136.886
136.492
136.098
135.7
135.31
134.904
134.526
134.102
133.752
133.295
132.984
132.47
132.194
131.605
131.371
130.733
130.551
129.856
129.737
128.948
128.879
127.975
127.953
126.955
127.004
125.855
125.958
124.601
124.772
123.173
123.411
121.459
121.741
119.365
119.694
116.757
117.124
113.568
114.068
109.85
110.592
105.744
106.572
100.792
100.682
93.2628
90.0356
81.3514
73.5673
131.99
131.589
131.217
130.995
130.933
130.984
131.11
131.273
131.436
131.594
131.76
131.932
132.081
132.189
132.246
132.25
132.21
132.108
131.91
131.603
131.417
131.544
131.687
131.657
131.931
132.824
134.153
135.715
137.388
139.001
140.396
141.449
142.129
142.475
142.566
142.487
142.299
142.044
141.748
141.424
141.082
140.727
140.362
139.989
139.611
139.228
138.843
138.454
138.064
137.673
137.28
136.887
136.492
136.099
135.701
135.311
134.905
134.528
134.102
133.756
133.298
133.004
132.499
132.251
131.67
131.457
130.809
130.65
129.938
129.855
129.051
129.052
128.118
128.18
127.125
127.287
126.076
126.343
124.881
125.27
123.524
124.083
121.912
122.643
119.937
120.907
117.501
118.713
114.523
115.995
111.048
112.586
107.063
108.12
101.928
101.314
93.9724
90.0007
82.0123
74.2621
132.013
131.7
131.487
131.352
131.3
131.332
131.437
131.584
131.738
131.886
132.033
132.17
132.27
132.331
132.35
132.334
132.29
132.195
132.029
131.792
131.697
131.877
132.064
132.129
132.473
133.349
134.629
136.136
137.736
139.262
140.571
141.553
142.184
142.501
142.577
142.492
142.302
142.046
141.749
141.425
141.083
140.727
140.362
139.989
139.611
139.229
138.843
138.455
138.065
137.673
137.28
136.887
136.492
136.099
135.701
135.312
134.905
134.529
134.103
133.758
133.298
133.011
132.504
132.278
131.703
131.514
130.865
130.724
130.004
129.943
129.128
129.178
128.23
128.361
127.271
127.519
126.257
126.66
125.128
125.699
123.835
124.661
122.329
123.439
120.483
121.981
118.24
120.124
115.485
117.665
112.199
114.212
108.2
109.221
102.787
101.574
94.5659
89.9352
82.5308
74.9902
132.083
131.838
131.684
131.571
131.519
131.535
131.621
131.754
131.899
132.04
132.172
132.285
132.359
132.399
132.408
132.394
132.372
132.308
132.176
132.008
131.993
132.195
132.4
132.547
132.947
133.802
135.027
136.473
138.005
139.458
140.696
141.622
142.216
142.512
142.58
142.492
142.301
142.045
141.748
141.424
141.082
140.727
140.362
139.989
139.611
139.229
138.843
138.455
138.065
137.673
137.28
136.887
136.492
136.099
135.701
135.312
134.906
134.528
134.104
133.756
133.3
133.007
132.501
132.278
131.697
131.532
130.872
130.757
130.024
129.988
129.157
129.242
128.278
128.472
127.357
127.675
126.376
126.877
125.304
126.019
124.081
125.095
122.669
124.058
120.96
122.813
118.891
121.214
116.324
118.918
113.141
115.395
109.043
109.941
103.385
101.654
95.0543
89.9316
82.9105
75.6823
132.161
131.947
131.79
131.675
131.616
131.619
131.69
131.812
131.952
132.092
132.221
132.329
132.398
132.436
132.453
132.453
132.446
132.401
132.302
132.197
132.233
132.432
132.64
132.849
133.293
134.128
135.307
136.703
138.18
139.577
140.766
141.654
142.224
142.51
142.574
142.485
142.296
142.041
141.745
141.422
141.081
140.726
140.361
139.989
139.611
139.229
138.843
138.455
138.065
137.673
137.28
136.887
136.492
136.099
135.701
135.311
134.907
134.527
134.106
133.754
133.303
133.002
132.503
132.267
131.699
131.523
130.873
130.759
130.027
129.998
129.161
129.258
128.281
128.513
127.368
127.743
126.398
126.977
125.345
126.178
124.162
125.323
122.81
124.397
121.206
123.284
119.27
121.842
116.856
119.643
113.757
116.084
109.611
110.326
103.878
101.628
95.5011
89.9532
83.1475
76.2102
132.333
132.036
131.832
131.704
131.638
131.635
131.7
131.815
131.95
132.088
132.214
132.32
132.396
132.445
132.474
132.489
132.496
132.465
132.387
132.311
132.362
132.55
132.762
133.005
133.47
134.294
135.445
136.81
138.255
139.622
140.787
141.657
142.216
142.499
142.564
142.477
142.289
142.037
141.743
141.42
141.079
140.725
140.36
139.988
139.611
139.228
138.843
138.455
138.065
137.673
137.28
136.887
136.492
136.099
135.702
135.31
134.908
134.526
134.108
133.753
133.305
133.001
132.505
132.266
131.699
131.522
130.874
130.758
130.03
129.998
129.165
129.258
128.285
128.514
127.373
127.753
126.404
126.995
125.351
126.214
124.169
125.39
122.819
124.506
121.225
123.453
119.315
122.073
116.952
119.917
113.907
116.345
109.784
110.456
104.021
101.547
95.5661
89.9051
83.191
76.2106
125.348
124.648
123.282
121.545
119.733
118.548
118.183
118.499
119.2
120.069
121.177
122.718
124.628
126.775
129.136
131.777
134.538
137.224
139.698
141.818
143.418
144.71
145.612
146.267
146.734
147.015
147.149
147.114
146.932
146.619
146.209
145.735
145.225
144.703
144.184
143.676
143.183
142.706
142.245
141.798
141.363
140.937
140.52
140.108
139.702
139.299
138.899
138.501
138.105
137.711
137.318
136.926
136.535
136.146
135.758
135.371
134.987
134.605
134.224
133.847
133.471
133.099
132.729
132.363
132
131.64
131.284
130.933
130.587
130.247
129.913
129.588
129.27
128.963
128.668
128.386
128.12
127.872
127.644
127.44
127.262
127.115
127.002
126.927
126.893
126.905
126.964
127.072
127.227
127.429
127.673
127.96
128.284
128.647
129.055
129.536
130.125
130.82
131.49
131.903
125.276
124.569
123.174
121.37
119.487
118.283
117.945
118.284
118.924
119.717
120.811
122.355
124.251
126.414
128.832
131.548
134.384
137.126
139.624
141.774
143.393
144.68
145.588
146.24
146.712
146.996
147.137
147.108
146.931
146.621
146.211
145.737
145.227
144.704
144.184
143.675
143.182
142.705
142.244
141.797
141.362
140.937
140.519
140.108
139.702
139.299
138.899
138.501
138.105
137.711
137.317
136.925
136.535
136.145
135.758
135.371
134.987
134.604
134.224
133.846
133.471
133.099
132.729
132.362
131.999
131.639
131.284
130.932
130.586
130.246
129.912
129.586
129.269
128.962
128.666
128.384
128.118
127.868
127.64
127.435
127.257
127.109
126.995
126.919
126.885
126.895
126.954
127.061
127.218
127.419
127.668
127.955
128.282
128.641
129.046
129.515
130.101
130.79
131.471
131.889
125.164
124.445
123.005
121.065
119.041
117.767
117.395
117.689
118.195
118.82
119.855
121.428
123.358
125.644
128.195
131.057
134.026
136.885
139.44
141.634
143.301
144.574
145.503
146.145
146.628
146.924
147.08
147.065
146.899
146.598
146.196
145.725
145.219
144.698
144.18
143.673
143.18
142.704
142.244
141.797
141.362
140.937
140.519
140.108
139.702
139.299
138.899
138.501
138.105
137.711
137.317
136.925
136.534
136.145
135.757
135.371
134.986
134.603
134.223
133.845
133.47
133.098
132.728
132.361
131.998
131.638
131.282
130.931
130.584
130.243
129.909
129.583
129.264
128.957
128.66
128.377
128.109
127.859
127.629
127.423
127.241
127.092
126.973
126.896
126.856
126.865
126.917
127.023
127.173
127.377
127.62
127.913
128.238
128.605
129.005
129.482
130.054
130.76
131.443
131.876
125.017
124.304
122.797
120.723
118.555
117.13
116.579
116.655
116.921
117.374
118.355
119.987
122.031
124.553
127.346
130.392
133.541
136.535
139.182
141.414
143.147
144.413
145.356
145.996
146.489
146.803
146.98
146.987
146.838
146.551
146.16
145.698
145.197
144.682
144.168
143.664
143.175
142.701
142.242
141.796
141.362
140.937
140.52
140.109
139.702
139.299
138.899
138.501
138.105
137.71
137.317
136.925
136.534
136.144
135.756
135.369
134.985
134.602
134.221
133.843
133.468
133.096
132.726
132.359
131.995
131.635
131.279
130.927
130.58
130.238
129.904
129.576
129.257
128.947
128.65
128.364
128.096
127.841
127.61
127.398
127.215
127.057
126.937
126.849
126.806
126.801
126.85
126.942
127.09
127.281
127.529
127.814
128.152
128.518
128.942
129.422
130.027
130.73
131.447
131.879
124.837
124.126
122.568
120.384
118.075
116.427
115.563
115.238
115.187
115.454
116.36
118.113
120.394
123.238
126.355
129.631
132.976
136.099
138.856
141.138
142.928
144.207
145.158
145.802
146.308
146.644
146.845
146.877
146.75
146.483
146.106
145.656
145.165
144.657
144.149
143.65
143.165
142.694
142.238
141.794
141.361
140.937
140.52
140.11
139.703
139.3
138.9
138.502
138.105
137.71
137.317
136.924
136.533
136.143
135.755
135.368
134.983
134.6
134.219
133.841
133.465
133.093
132.723
132.356
131.992
131.632
131.275
130.922
130.574
130.232
129.896
129.567
129.246
128.936
128.635
128.349
128.075
127.82
127.582
127.368
127.176
127.015
126.883
126.79
126.732
126.72
126.751
126.833
126.964
127.148
127.382
127.671
128.003
128.394
128.824
129.357
129.965
130.731
131.41
131.897
124.622
123.903
122.304
120.049
117.635
115.713
114.411
113.535
113.08
113.142
113.978
115.906
118.551
121.767
125.268
128.798
132.349
135.603
138.463
140.814
142.654
143.957
144.917
145.572
146.092
146.455
146.682
146.741
146.639
146.394
146.035
145.601
145.121
144.623
144.123
143.63
143.151
142.684
142.231
141.79
141.359
140.936
140.52
140.11
139.703
139.3
138.9
138.502
138.105
137.71
137.316
136.924
136.532
136.142
135.753
135.366
134.981
134.597
134.217
133.838
133.462
133.09
132.719
132.352
131.988
131.627
131.27
130.916
130.568
130.224
129.887
129.556
129.235
128.921
128.619
128.329
128.053
127.793
127.551
127.33
127.133
126.963
126.823
126.717
126.648
126.621
126.636
126.7
126.812
126.98
127.198
127.478
127.811
128.206
128.677
129.225
129.914
130.657
131.449
131.846
124.346
123.609
121.983
119.689
117.213
114.996
113.162
111.635
110.708
110.55
111.347
113.484
116.608
120.213
124.106
127.911
131.658
135.065
138.017
140.445
142.337
143.671
144.645
145.32
145.859
146.25
146.5
146.586
146.508
146.285
145.948
145.532
145.068
144.581
144.091
143.606
143.133
142.672
142.223
141.784
141.355
140.934
140.519
140.109
139.703
139.3
138.9
138.502
138.105
137.71
137.316
136.923
136.531
136.14
135.751
135.364
134.978
134.594
134.213
133.835
133.459
133.086
132.716
132.348
131.983
131.623
131.264
130.91
130.56
130.216
129.877
129.545
129.221
128.905
128.601
128.307
128.028
127.762
127.516
127.288
127.085
126.904
126.756
126.636
126.555
126.508
126.508
126.549
126.643
126.784
126.989
127.244
127.578
127.97
128.461
129.056
129.756
130.593
131.274
131.86
123.991
123.212
121.549
119.249
116.762
114.256
111.833
109.629
108.223
107.884
108.677
111.024
114.656
118.665
122.888
127.001
130.932
134.495
137.545
140.048
141.99
143.362
144.355
145.061
145.621
146.038
146.309
146.415
146.359
146.158
145.843
145.448
145.003
144.532
144.053
143.577
143.111
142.656
142.212
141.777
141.35
140.931
140.517
140.108
139.702
139.299
138.899
138.501
138.104
137.709
137.315
136.921
136.53
136.138
135.749
135.361
134.975
134.591
134.21
133.831
133.455
133.082
132.711
132.344
131.979
131.617
131.258
130.903
130.552
130.206
129.866
129.532
129.206
128.888
128.579
128.284
127.998
127.73
127.476
127.244
127.029
126.843
126.68
126.55
126.45
126.389
126.366
126.388
126.454
126.575
126.746
126.991
127.292
127.699
128.173
128.805
129.537
130.381
131.22
131.512
123.546
122.683
120.956
118.665
116.217
113.449
110.447
107.622
105.826
105.352
106.147
108.649
112.711
117.151
121.684
126.111
130.22
133.927
137.07
139.638
141.62
143.033
144.053
144.795
145.38
145.821
146.107
146.228
146.19
146.012
145.722
145.351
144.927
144.473
144.008
143.544
143.086
142.638
142.199
141.768
141.344
140.926
140.514
140.105
139.701
139.298
138.898
138.5
138.104
137.708
137.314
136.92
136.528
136.136
135.747
135.358
134.972
134.587
134.206
133.826
133.451
133.077
132.707
132.339
131.973
131.611
131.251
130.896
130.542
130.196
129.854
129.517
129.19
128.868
128.558
128.256
127.968
127.693
127.434
127.193
126.972
126.773
126.6
126.454
126.339
126.259
126.214
126.212
126.251
126.343
126.488
126.697
126.986
127.35
127.848
128.441
129.212
130.028
130.713
131.431
122.992
121.995
120.162
117.896
115.52
112.535
109.045
105.709
103.63
103.063
103.888
106.448
110.844
115.709
120.562
125.271
129.55
133.384
136.607
139.22
141.231
142.682
143.737
144.521
145.135
145.593
145.889
146.021
146
145.845
145.582
145.238
144.839
144.406
143.957
143.506
143.058
142.617
142.184
141.757
141.336
140.921
140.51
140.103
139.699
139.297
138.897
138.499
138.103
137.707
137.313
136.919
136.526
136.134
135.744
135.354
134.969
134.582
134.202
133.821
133.446
133.071
132.702
132.333
131.968
131.604
131.243
130.887
130.532
130.185
129.84
129.502
129.171
128.847
128.533
128.227
127.934
127.654
127.388
127.139
126.908
126.699
126.513
126.352
126.221
126.119
126.054
126.021
126.038
126.091
126.209
126.377
126.629
126.972
127.414
128.028
128.721
129.618
130.38
130.674
122.321
121.127
119.144
116.927
114.661
111.539
107.69
103.97
101.728
101.11
101.988
104.578
109.272
114.492
119.59
124.518
128.949
132.872
136.154
138.795
140.823
142.311
143.407
144.235
144.874
145.344
145.645
145.786
145.784
145.657
145.425
145.112
144.739
144.329
143.899
143.463
143.026
142.594
142.167
141.745
141.328
140.915
140.505
140.099
139.696
139.295
138.896
138.498
138.101
137.706
137.311
136.917
136.524
136.132
135.742
135.351
134.965
134.577
134.197
133.814
133.442
133.064
132.697
132.326
131.962
131.597
131.236
130.878
130.521
130.172
129.825
129.486
129.151
128.825
128.506
128.196
127.898
127.612
127.339
127.082
126.841
126.621
126.421
126.246
126.094
125.974
125.88
125.826
125.802
125.831
125.896
126.038
126.228
126.533
126.935
127.465
128.166
128.858
129.607
130.213
121.523
120.106
117.924
115.813
113.701
110.529
106.495
102.545
100.251
99.6817
100.61
103.233
108.117
113.581
118.832
123.886
128.427
132.399
135.711
138.362
140.402
141.927
143.069
143.933
144.588
145.06
145.364
145.518
145.539
145.443
145.248
144.97
144.629
144.245
143.836
143.415
142.991
142.568
142.148
141.732
141.318
140.908
140.5
140.096
139.693
139.293
138.894
138.496
138.1
137.704
137.31
136.915
136.522
136.129
135.739
135.346
134.961
134.571
134.193
133.807
133.437
133.057
132.693
132.318
131.957
131.587
131.229
130.866
130.511
130.158
129.81
129.468
129.13
128.8
128.478
128.163
127.86
127.567
127.287
127.021
126.771
126.538
126.325
126.132
125.963
125.818
125.701
125.614
125.561
125.543
125.575
125.65
125.809
126.027
126.376
126.835
127.422
128.176
128.711
129.04
120.627
118.982
116.604
114.677
112.802
109.648
105.622
101.636
99.3787
98.8991
99.8696
102.517
107.44
113.001
118.321
123.406
127.995
131.976
135.282
137.926
139.978
141.541
142.723
143.607
144.261
144.729
145.035
145.206
145.259
145.202
145.049
144.813
144.508
144.152
143.766
143.363
142.953
142.541
142.128
141.717
141.307
140.9
140.495
140.091
139.69
139.29
138.892
138.494
138.098
137.702
137.308
136.913
136.52
136.126
135.736
135.342
134.956
134.564
134.187
133.799
133.431
133.047
132.688
132.308
131.952
131.576
131.222
130.853
130.501
130.142
129.794
129.448
129.109
128.775
128.448
128.129
127.819
127.52
127.232
126.957
126.696
126.451
126.223
126.013
125.824
125.656
125.512
125.394
125.303
125.245
125.222
125.252
125.325
125.494
125.724
126.092
126.549
127.023
127.524
127.865
119.728
117.914
115.497
113.714
112.113
109.075
105.24
101.391
99.1898
98.8114
99.7986
102.447
107.268
112.774
118.066
123.092
127.661
131.608
134.876
137.497
139.556
141.15
142.356
143.239
143.878
144.336
144.648
144.842
144.933
144.924
144.823
144.637
144.374
144.052
143.691
143.307
142.912
142.511
142.107
141.702
141.296
140.892
140.488
140.087
139.686
139.287
138.89
138.492
138.097
137.701
137.306
136.911
136.518
136.123
135.732
135.336
134.952
134.557
134.181
133.789
133.426
133.036
132.683
132.296
131.948
131.563
131.216
130.837
130.492
130.122
129.781
129.424
129.089
128.745
128.418
128.092
127.777
127.47
127.175
126.89
126.618
126.36
126.116
125.891
125.679
125.489
125.315
125.165
125.033
124.93
124.854
124.813
124.823
124.876
125.029
125.226
125.537
125.877
126.028
126.094
119.079
117.124
114.842
113.132
111.771
109.003
105.431
101.849
99.697
99.3941
100.397
102.989
107.572
112.876
118.046
122.95
127.432
131.3
134.498
137.081
139.139
140.743
141.948
142.809
143.423
143.87
144.193
144.417
144.553
144.603
144.565
144.439
144.226
143.943
143.611
143.248
142.868
142.479
142.084
141.685
141.284
140.883
140.482
140.082
139.682
139.284
138.887
138.49
138.095
137.699
137.304
136.909
136.516
136.119
135.729
135.331
134.947
134.548
134.175
133.777
133.419
133.022
132.678
132.281
131.943
131.546
131.211
130.816
130.485
130.097
129.77
129.394
129.072
128.71
128.391
128.048
127.737
127.416
127.118
126.819
126.539
126.265
126.008
125.762
125.531
125.315
125.112
124.926
124.755
124.601
124.466
124.353