/*--------------------------------*- C++ -*----------------------------------*\
| =========                 |                                                 |
| \\      /  F ield         | OpenFOAM: The Open Source CFD Toolbox           |
|  \\    /   O peration     | Version:  2.4.0                                 |
|   \\  /    A nd           | Web:      www.OpenFOAM.org                      |
|    \\/     M anipulation  |                                                 |
\*---------------------------------------------------------------------------*/
FoamFile
{
    version     2.0;
    format      ascii;
    class       volSymmTensorField;
    location    "0.034";
    object      UPrime2Mean;
}
// * * * * * * * * * * * * * * * * * * * * * * * * * * * * * * * * * * * * * //

dimensions      [0 2 -2 0 0 0 0];

internalField   nonuniform List<symmTensor> 
17600
(
(0.11122 -0.0120414 0 0.00183532 0 0)
(1.14504 -0.00489471 0 0.00010905 0 0)
(1.4794 -0.00021744 0 7.18537e-06 0 0)
(1.63434 -0.0012498 0 4.71872e-06 0 0)
(1.74188 -0.000926308 0 2.25324e-06 0 0)
(1.81437 -0.000348618 0 1.27767e-06 0 0)
(1.8595 -6.7243e-05 0 8.28759e-07 0 0)
(1.8916 2.67181e-05 0 4.89428e-07 0 0)
(1.90886 2.25918e-05 0 4.82687e-07 0 0)
(1.92604 -9.45477e-06 0 4.01913e-07 0 0)
(1.9349 -7.36597e-05 0 2.43726e-07 0 0)
(1.95454 -0.000148152 0 4.43089e-07 0 0)
(1.965 -0.000174149 0 3.98026e-07 0 0)
(1.99249 -0.000300488 0 7.83406e-07 0 0)
(2.00962 -0.000450298 0 9.10293e-07 0 0)
(2.0644 -0.00100846 0 5.60857e-06 0 0)
(2.12149 -0.00203632 0 5.7102e-06 0 0)
(2.36074 0.00151177 0 6.06694e-05 0 0)
(2.74915 -0.0818751 0 0.00352505 0 0)
(5.1204 0.413825 0 0.0524185 0 0)
(0.0552691 0.0243798 0 0.0189308 0 0)
(0.455261 -0.0435364 0 0.00441241 0 0)
(0.907212 -0.0240323 0 0.000647835 0 0)
(1.20193 -0.0166049 0 0.000253077 0 0)
(1.45634 -0.0131942 0 0.000195563 0 0)
(1.68564 -0.0100209 0 0.000168565 0 0)
(1.85958 -0.00708101 0 0.000125004 0 0)
(1.99889 -0.00464732 0 7.11307e-05 0 0)
(2.07882 -0.00318595 0 3.49241e-05 0 0)
(2.15865 -0.00246416 0 1.78195e-05 0 0)
(2.19283 -0.00260913 0 9.43331e-06 0 0)
(2.27515 -0.00293861 0 9.11636e-06 0 0)
(2.3003 -0.00334497 0 1.66563e-05 0 0)
(2.40796 -0.00336529 0 1.30452e-05 0 0)
(2.42619 -0.00559179 0 2.92611e-05 0 0)
(2.61715 -0.00511332 0 2.54405e-05 0 0)
(2.60563 -0.0177856 0 0.000186034 0 0)
(3.4614 -0.0255959 0 0.000246393 0 0)
(3.01003 -0.0892965 0 0.00366013 0 0)
(9.84551 -1.19582 0 0.2067 0 0)
(0.189657 0.0716475 0 0.0296003 0 0)
(0.0738615 -0.0271161 0 0.0124005 0 0)
(0.309081 -0.029638 0 0.00311146 0 0)
(0.521151 -0.0276081 0 0.0014941 0 0)
(0.759864 -0.0268053 0 0.00112525 0 0)
(1.02994 -0.0239018 0 0.000956066 0 0)
(1.26644 -0.0190952 0 0.00074354 0 0)
(1.47894 -0.0137548 0 0.000449389 0 0)
(1.60829 -0.00982765 0 0.000238631 0 0)
(1.74426 -0.00752274 0 0.000114959 0 0)
(1.79688 -0.00742151 0 5.7978e-05 0 0)
(1.93664 -0.00794758 0 6.25429e-05 0 0)
(1.96185 -0.00870931 0 7.74001e-05 0 0)
(2.14404 -0.0092284 0 9.33291e-05 0 0)
(2.1442 -0.0129376 0 0.000124358 0 0)
(2.4332 -0.0136074 0 0.000119398 0 0)
(2.39577 -0.0391623 0 0.000696931 0 0)
(3.27778 -0.0471866 0 0.00129917 0 0)
(3.23317 -0.215309 0 0.020324 0 0)
(7.75102 -1.4669 0 0.456825 0 0)
(0.249342 0.0789669 0 0.026575 0 0)
(0.00622341 0.00528392 0 0.0191213 0 0)
(0.0416395 -0.0107367 0 0.00672547 0 0)
(0.0911639 -0.0166827 0 0.00391473 0 0)
(0.178412 -0.0231309 0 0.00316243 0 0)
(0.33441 -0.0268032 0 0.00272021 0 0)
(0.509044 -0.0253358 0 0.00221269 0 0)
(0.701783 -0.02062 0 0.00140115 0 0)
(0.82821 -0.0154959 0 0.000802043 0 0)
(0.976004 -0.0121886 0 0.000381344 0 0)
(1.02738 -0.0120173 0 0.000216027 0 0)
(1.18712 -0.0115959 0 0.000175069 0 0)
(1.20087 -0.0148852 0 0.000271617 0 0)
(1.40901 -0.0103911 0 0.000260591 0 0)
(1.39494 -0.0239098 0 0.000594703 0 0)
(1.67478 -0.00627508 0 0.000401897 0 0)
(1.70184 -0.067245 0 0.00345487 0 0)
(2.1238 -0.0221788 0 0.00155544 0 0)
(2.90377 -0.360757 0 0.0705104 0 0)
(3.71388 -0.585095 0 0.27999 0 0)
(0.233265 0.0639868 0 0.0186727 0 0)
(0.0217569 0.0196846 0 0.0198734 0 0)
(0.0298127 0.010191 0 0.00828276 0 0)
(0.0327265 0.00698805 0 0.005917 0 0)
(0.0193301 0.000410424 0 0.00563853 0 0)
(0.0287888 -0.00935802 0 0.00516832 0 0)
(0.072894 -0.0148399 0 0.00442701 0 0)
(0.159059 -0.0165558 0 0.0029855 0 0)
(0.227111 -0.0138117 0 0.00178316 0 0)
(0.324852 -0.0123276 0 0.000904487 0 0)
(0.356083 -0.011394 0 0.000471954 0 0)
(0.473073 -0.0132201 0 0.000508438 0 0)
(0.488353 -0.0130933 0 0.000426238 0 0)
(0.624652 -0.0165966 0 0.000721504 0 0)
(0.663968 -0.0135062 0 0.000629382 0 0)
(0.783459 -0.028785 0 0.00135496 0 0)
(0.915409 -0.0165515 0 0.00181735 0 0)
(1.07127 -0.105974 0 0.0187935 0 0)
(1.49954 -0.11711 0 0.0300841 0 0)
(2.14272 -0.786864 0 0.795192 0 0)
(0.21773 0.0522304 0 0.0133766 0 0)
(0.0193934 0.0175113 0 0.0177238 0 0)
(0.0435249 0.0147156 0 0.00709178 0 0)
(0.0811894 0.0185136 0 0.00561168 0 0)
(0.0944633 0.0214101 0 0.00660749 0 0)
(0.0690813 0.015463 0 0.00693199 0 0)
(0.0484737 0.00855362 0 0.00647217 0 0)
(0.033955 -9.47161e-05 0 0.00464073 0 0)
(0.0368451 -0.00232428 0 0.00313457 0 0)
(0.05552 -0.00462456 0 0.00158613 0 0)
(0.0565682 -0.00491111 0 0.000991167 0 0)
(0.0993858 -0.00620696 0 0.000834436 0 0)
(0.098995 -0.00926636 0 0.00112046 0 0)
(0.158756 -0.0072198 0 0.00109742 0 0)
(0.179815 -0.0151001 0 0.00237779 0 0)
(0.232096 -0.00676279 0 0.00174274 0 0)
(0.287094 -0.0331407 0 0.00969616 0 0)
(0.37194 -0.0182382 0 0.00558766 0 0)
(0.525489 -0.161769 0 0.112827 0 0)
(0.897848 -0.335108 0 0.380629 0 0)
(0.215916 0.0449771 0 0.00999468 0 0)
(0.0131877 0.0130061 0 0.0157041 0 0)
(0.0373209 0.0120643 0 0.00570914 0 0)
(0.0844214 0.0165999 0 0.00408919 0 0)
(0.132738 0.0250143 0 0.00564774 0 0)
(0.139302 0.0258403 0 0.00671862 0 0)
(0.14919 0.0247121 0 0.0070691 0 0)
(0.123295 0.0159752 0 0.00556046 0 0)
(0.122742 0.0118074 0 0.00374747 0 0)
(0.098023 0.00628648 0 0.0022809 0 0)
(0.0986826 0.00672784 0 0.00123702 0 0)
(0.0756761 0.00334706 0 0.00154632 0 0)
(0.0767941 0.00339172 0 0.00100322 0 0)
(0.0577296 0.000609969 0 0.0019987 0 0)
(0.0690437 0.000583283 0 0.00170877 0 0)
(0.0522234 -5.18273e-05 0 0.00393817 0 0)
(0.0621294 -0.00031042 0 0.00398072 0 0)
(0.0608303 -0.00459045 0 0.0299687 0 0)
(0.0970875 -0.0299038 0 0.0480733 0 0)
(0.226515 -0.119024 0 0.521908 0 0)
(0.220107 0.0390971 0 0.00742887 0 0)
(0.00935243 0.00956905 0 0.013795 0 0)
(0.0298758 0.00950262 0 0.00496968 0 0)
(0.0725199 0.0129296 0 0.00300395 0 0)
(0.121694 0.0208973 0 0.00430318 0 0)
(0.139639 0.0242324 0 0.00564734 0 0)
(0.169589 0.0259264 0 0.00622273 0 0)
(0.169596 0.0206965 0 0.00492225 0 0)
(0.192245 0.0165224 0 0.00395852 0 0)
(0.191733 0.0121967 0 0.0023234 0 0)
(0.204486 0.013829 0 0.00153957 0 0)
(0.200281 0.0110234 0 0.00149984 0 0)
(0.194483 0.0134308 0 0.00191235 0 0)
(0.180836 0.00967637 0 0.00195694 0 0)
(0.164986 0.0128001 0 0.00345381 0 0)
(0.142345 0.0091487 0 0.00308348 0 0)
(0.111377 0.0201739 0 0.00835402 0 0)
(0.075379 0.0261468 0 0.0145556 0 0)
(0.0406131 0.0332317 0 0.0854084 0 0)
(0.0581027 0.0762597 0 0.546354 0 0)
(0.222436 0.0337433 0 0.00547549 0 0)
(0.00748889 0.00742945 0 0.01152 0 0)
(0.0236923 0.00735333 0 0.00455989 0 0)
(0.062852 0.0102735 0 0.00216427 0 0)
(0.103303 0.0168353 0 0.00322316 0 0)
(0.124994 0.0205697 0 0.00439558 0 0)
(0.147534 0.0223082 0 0.00532018 0 0)
(0.160865 0.0183924 0 0.00457839 0 0)
(0.184055 0.0152633 0 0.00289576 0 0)
(0.202897 0.0126437 0 0.00204993 0 0)
(0.226686 0.0131286 0 0.00114778 0 0)
(0.241991 0.0146807 0 0.00175132 0 0)
(0.256451 0.0141615 0 0.00127412 0 0)
(0.257081 0.0187334 0 0.00232146 0 0)
(0.258302 0.0152144 0 0.00252317 0 0)
(0.238839 0.0251281 0 0.00419223 0 0)
(0.217974 0.0298017 0 0.00565754 0 0)
(0.171712 0.0528115 0 0.0243677 0 0)
(0.126797 0.0890506 0 0.0847302 0 0)
(0.118608 0.158076 0 0.386661 0 0)
(0.222792 0.028724 0 0.00399797 0 0)
(0.00546167 0.00569982 0 0.00947626 0 0)
(0.0190494 0.00573144 0 0.00419235 0 0)
(0.0550032 0.00816329 0 0.00160923 0 0)
(0.0911347 0.0134289 0 0.0023731 0 0)
(0.111177 0.0173243 0 0.00350301 0 0)
(0.129431 0.018979 0 0.00427716 0 0)
(0.142231 0.0160391 0 0.00327706 0 0)
(0.162939 0.0129228 0 0.00276199 0 0)
(0.18488 0.00996504 0 0.00184737 0 0)
(0.20526 0.0122095 0 0.00112322 0 0)
(0.230778 0.0118702 0 0.00125704 0 0)
(0.243362 0.0144944 0 0.00151186 0 0)
(0.260676 0.0160308 0 0.00196133 0 0)
(0.261325 0.0177477 0 0.00277727 0 0)
(0.265131 0.0245999 0 0.00400028 0 0)
(0.244195 0.0337881 0 0.00670076 0 0)
(0.225438 0.0693619 0 0.0284442 0 0)
(0.181375 0.0987513 0 0.0780399 0 0)
(0.201247 0.238238 0 0.457492 0 0)
(0.223312 0.0243013 0 0.00286267 0 0)
(0.00455969 0.00436551 0 0.00759434 0 0)
(0.0162114 0.00454606 0 0.00394502 0 0)
(0.0488915 0.00655773 0 0.00116245 0 0)
(0.0817096 0.010911 0 0.00172526 0 0)
(0.10016 0.0145683 0 0.00267528 0 0)
(0.115085 0.0163654 0 0.0035898 0 0)
(0.127471 0.0137297 0 0.00321141 0 0)
(0.145794 0.0104771 0 0.00192547 0 0)
(0.167216 0.00916631 0 0.00139483 0 0)
(0.185249 0.0093383 0 0.00077293 0 0)
(0.210412 0.0116032 0 0.0013045 0 0)
(0.221072 0.0114112 0 0.00107368 0 0)
(0.239828 0.0162195 0 0.00165492 0 0)
(0.240694 0.015692 0 0.00222053 0 0)
(0.249474 0.0243486 0 0.00341869 0 0)
(0.233118 0.0364087 0 0.00673436 0 0)
(0.223645 0.0648641 0 0.0243116 0 0)
(0.190604 0.113387 0 0.0878473 0 0)
(0.223569 0.249303 0 0.378896 0 0)
(0.223958 0.0203777 0 0.00204098 0 0)
(0.00388609 0.00316365 0 0.0059456 0 0)
(0.0140153 0.00334361 0 0.00361079 0 0)
(0.0437562 0.00510089 0 0.000803597 0 0)
(0.0742048 0.00868625 0 0.00123661 0 0)
(0.0911548 0.0120504 0 0.00203739 0 0)
(0.103699 0.0139902 0 0.0028552 0 0)
(0.115271 0.0115371 0 0.00215738 0 0)
(0.131568 0.0092602 0 0.00170154 0 0)
(0.1524 0.00702058 0 0.00136188 0 0)
(0.169305 0.00867569 0 0.000747411 0 0)
(0.192288 0.00929477 0 0.000939711 0 0)
(0.203155 0.0105285 0 0.00101795 0 0)
(0.220002 0.0141345 0 0.00152926 0 0)
(0.222182 0.0144669 0 0.00195313 0 0)
(0.230835 0.0256047 0 0.00416999 0 0)
(0.218997 0.0334704 0 0.00636832 0 0)
(0.215313 0.0713634 0 0.0291184 0 0)
(0.192947 0.115682 0 0.0841966 0 0)
(0.237567 0.253871 0 0.354849 0 0)
(0.2249 0.0169411 0 0.00142974 0 0)
(0.0034285 0.002265 0 0.00455654 0 0)
(0.0125858 0.00249567 0 0.00323919 0 0)
(0.0393031 0.00406094 0 0.000599598 0 0)
(0.0682735 0.00690601 0 0.00087554 0 0)
(0.0834026 0.00996077 0 0.00150709 0 0)
(0.0947404 0.0118666 0 0.00227112 0 0)
(0.104615 0.00974481 0 0.00198115 0 0)
(0.120603 0.00752501 0 0.00124439 0 0)
(0.139656 0.0061526 0 0.000931931 0 0)
(0.156856 0.00696626 0 0.000538838 0 0)
(0.17773 0.00849051 0 0.000883059 0 0)
(0.188985 0.00900121 0 0.000841876 0 0)
(0.204546 0.0125486 0 0.00113796 0 0)
(0.207182 0.01386 0 0.00168643 0 0)
(0.217184 0.0227742 0 0.00324525 0 0)
(0.208582 0.0348461 0 0.00673627 0 0)
(0.210753 0.0703704 0 0.0279564 0 0)
(0.197074 0.118102 0 0.0823599 0 0)
(0.256455 0.263933 0 0.330556 0 0)
(0.225543 0.0139185 0 0.00098062 0 0)
(0.00319025 0.00158496 0 0.00335348 0 0)
(0.0116042 0.0016591 0 0.00260712 0 0)
(0.0357889 0.0032014 0 0.000417384 0 0)
(0.0631796 0.00546853 0 0.000603568 0 0)
(0.0773633 0.00807284 0 0.00108309 0 0)
(0.0870594 0.00993127 0 0.0017112 0 0)
(0.0964234 0.0079894 0 0.0013036 0 0)
(0.111009 0.00640908 0 0.000929746 0 0)
(0.129815 0.00478294 0 0.000870347 0 0)
(0.146251 0.00601358 0 0.000483938 0 0)
(0.16609 0.00707479 0 0.0006461 0 0)
(0.17744 0.0076684 0 0.000681241 0 0)
(0.192174 0.0115764 0 0.00109448 0 0)
(0.195689 0.0123898 0 0.00139871 0 0)
(0.206146 0.0232776 0 0.00354058 0 0)
(0.201566 0.0339505 0 0.00651365 0 0)
(0.207978 0.0707388 0 0.0279108 0 0)
(0.204577 0.121606 0 0.0812098 0 0)
(0.270617 0.266245 0 0.301839 0 0)
(0.226024 0.0111723 0 0.000657518 0 0)
(0.00308488 0.00109153 0 0.0024168 0 0)
(0.0109947 0.00105611 0 0.0019754 0 0)
(0.0330075 0.00255792 0 0.00033531 0 0)
(0.059126 0.00426368 0 0.000435304 0 0)
(0.0724988 0.0064667 0 0.0007687 0 0)
(0.0811022 0.00815232 0 0.00127669 0 0)
(0.0896516 0.00647102 0 0.00106389 0 0)
(0.103578 0.00511888 0 0.000703663 0 0)
(0.121691 0.00390071 0 0.000596602 0 0)
(0.137862 0.00493594 0 0.000364546 0 0)
(0.156593 0.0060181 0 0.00056115 0 0)
(0.168302 0.00666459 0 0.000603412 0 0)
(0.182198 0.00999177 0 0.000852663 0 0)
(0.186658 0.0117338 0 0.00120772 0 0)
(0.197783 0.022101 0 0.00322411 0 0)
(0.196742 0.0336384 0 0.00656711 0 0)
(0.207831 0.0708621 0 0.0277016 0 0)
(0.213234 0.123669 0 0.0786426 0 0)
(0.289064 0.265371 0 0.273732 0 0)
(0.226393 0.00876613 0 0.000417456 0 0)
(0.00303419 0.000735473 0 0.00160956 0 0)
(0.0106344 0.000607441 0 0.00133452 0 0)
(0.0308447 0.00199299 0 0.000232227 0 0)
(0.0559125 0.00328978 0 0.000284498 0 0)
(0.0686785 0.00500141 0 0.000501909 0 0)
(0.0764325 0.00653623 0 0.00087437 0 0)
(0.0843567 0.00508001 0 0.000665983 0 0)
(0.0977081 0.00417972 0 0.000448942 0 0)
(0.115216 0.00298313 0 0.000478051 0 0)
(0.131354 0.0039922 0 0.000306628 0 0)
(0.149101 0.00501984 0 0.000408782 0 0)
(0.161178 0.0055605 0 0.000441877 0 0)
(0.17449 0.00897734 0 0.000715116 0 0)
(0.179997 0.0107925 0 0.000994137 0 0)
(0.191686 0.0213027 0 0.0029878 0 0)
(0.194247 0.0332869 0 0.00638925 0 0)
(0.209587 0.0707262 0 0.0268283 0 0)
(0.224063 0.124856 0 0.0746926 0 0)
(0.309714 0.264942 0 0.247726 0 0)
(0.226628 0.00658387 0 0.000258233 0 0)
(0.00303175 0.00046962 0 0.00100696 0 0)
(0.0104481 0.000315544 0 0.000863376 0 0)
(0.0292331 0.00149705 0 0.00017935 0 0)
(0.0534082 0.00241783 0 0.000203478 0 0)
(0.0658375 0.00368372 0 0.000324584 0 0)
(0.0728302 0.00501947 0 0.000581494 0 0)
(0.0803892 0.00377114 0 0.000457871 0 0)
(0.0932137 0.0031773 0 0.000325591 0 0)
(0.110415 0.00218198 0 0.000334271 0 0)
(0.126325 0.00314475 0 0.000233343 0 0)
(0.143486 0.00403073 0 0.000323329 0 0)
(0.155829 0.00464386 0 0.00039447 0 0)
(0.168792 0.00785154 0 0.000608635 0 0)
(0.175198 0.00990358 0 0.000827781 0 0)
(0.187689 0.0205434 0 0.00277594 0 0)
(0.1936 0.0328636 0 0.00620858 0 0)
(0.213101 0.0702659 0 0.0256797 0 0)
(0.236076 0.12529 0 0.0705972 0 0)
(0.328289 0.261703 0 0.224023 0 0)
(0.226807 0.00458873 0 0.000140849 0 0)
(0.00304224 0.000282547 0 0.000538228 0 0)
(0.010361 0.000131828 0 0.000469582 0 0)
(0.0280859 0.00103273 0 0.000118495 0 0)
(0.0515965 0.00167471 0 0.000131169 0 0)
(0.0637737 0.00248813 0 0.000186632 0 0)
(0.0702621 0.00358957 0 0.000338409 0 0)
(0.0775123 0.002591 0 0.000256792 0 0)
(0.0899929 0.00232059 0 0.000185157 0 0)
(0.106895 0.00147558 0 0.000224552 0 0)
(0.122771 0.00230332 0 0.00018276 0 0)
(0.139422 0.00317548 0 0.000233964 0 0)
(0.152047 0.00374579 0 0.000280399 0 0)
(0.164821 0.00678719 0 0.000470359 0 0)
(0.172184 0.00912636 0 0.000687767 0 0)
(0.185506 0.0196717 0 0.00250456 0 0)
(0.194562 0.0324064 0 0.00595812 0 0)
(0.21826 0.069311 0 0.0242145 0 0)
(0.249124 0.125115 0 0.0660887 0 0)
(0.3486 0.256312 0 0.199573 0 0)
(0.226911 0.00272898 0 7.47593e-05 0 0)
(0.00305321 0.000143201 0 0.000248013 0 0)
(0.0103248 3.58577e-05 0 0.000225316 0 0)
(0.0273503 0.000598578 0 8.81059e-05 0 0)
(0.0503917 0.00100107 0 0.000100875 0 0)
(0.0624617 0.0013597 0 0.000116258 0 0)
(0.0685798 0.00224684 0 0.000189925 0 0)
(0.075649 0.00142319 0 0.000151693 0 0)
(0.0878982 0.00148258 0 0.000132637 0 0)
(0.104632 0.000755234 0 0.000160937 0 0)
(0.120507 0.00152951 0 0.000148824 0 0)
(0.136822 0.00226906 0 0.000175464 0 0)
(0.149758 0.00287063 0 0.000227249 0 0)
(0.162446 0.00577318 0 0.000377777 0 0)
(0.170771 0.00827959 0 0.000567953 0 0)
(0.185002 0.018775 0 0.00223872 0 0)
(0.197139 0.0317529 0 0.00561512 0 0)
(0.224862 0.0682838 0 0.0226043 0 0)
(0.263306 0.124004 0 0.0609826 0 0)
(0.369484 0.250783 0 0.178064 0 0)
(0.226947 0.000940796 0 3.77627e-05 0 0)
(0.00305839 3.53337e-05 0 9.35162e-05 0 0)
(0.0103115 -1.28194e-05 0 8.48142e-05 0 0)
(0.0269958 0.000173857 0 6.47219e-05 0 0)
(0.0497786 0.000375223 0 7.8635e-05 0 0)
(0.0618471 0.000296737 0 8.34018e-05 0 0)
(0.0677361 0.000909529 0 0.000102317 0 0)
(0.0747521 0.000330821 0 9.70141e-05 0 0)
(0.0868667 0.000663582 0 0.000100587 0 0)
(0.103538 0.000131034 0 0.000113948 0 0)
(0.119463 0.000752632 0 0.000122208 0 0)
(0.135613 0.00144264 0 0.000133606 0 0)
(0.148847 0.00203257 0 0.000167578 0 0)
(0.161582 0.00475831 0 0.000289713 0 0)
(0.170905 0.00747733 0 0.000475279 0 0)
(0.186109 0.0178387 0 0.00196359 0 0)
(0.201209 0.0310707 0 0.00523289 0 0)
(0.232858 0.0669039 0 0.0208045 0 0)
(0.278536 0.122192 0 0.0557686 0 0)
(0.390979 0.243609 0 0.157672 0 0)
(0.226924 -0.000813494 0 3.79088e-05 0 0)
(0.00304994 -6.38756e-05 0 9.81405e-05 0 0)
(0.0103037 -4.06842e-05 0 7.92625e-05 0 0)
(0.0270006 -0.000244988 0 6.88697e-05 0 0)
(0.0497414 -0.000230938 0 8.50314e-05 0 0)
(0.0618949 -0.000769566 0 0.000100793 0 0)
(0.0677068 -0.000397855 0 9.7843e-05 0 0)
(0.0747655 -0.00078929 0 0.000115288 0 0)
(0.0868745 -0.000152705 0 0.000123508 0 0)
(0.103549 -0.000520701 0 0.000105551 0 0)
(0.119629 -2.70948e-05 0 0.000119362 0 0)
(0.135721 0.00059303 0 0.000116764 0 0)
(0.149305 0.00117947 0 0.000135428 0 0)
(0.162173 0.00373097 0 0.000228853 0 0)
(0.172537 0.00662964 0 0.000415087 0 0)
(0.188774 0.0167589 0 0.0017045 0 0)
(0.206751 0.030235 0 0.00481156 0 0)
(0.242272 0.0651256 0 0.0188789 0 0)
(0.295011 0.119651 0 0.0503121 0 0)
(0.413691 0.235398 0 0.138094 0 0)
(0.226841 -0.00260367 0 6.86638e-05 0 0)
(0.00302859 -0.000172518 0 0.000245715 0 0)
(0.0103014 -8.47049e-05 0 0.00019511 0 0)
(0.0273666 -0.000670834 0 9.30771e-05 0 0)
(0.050278 -0.000862873 0 0.000108933 0 0)
(0.062612 -0.0018368 0 0.000161447 0 0)
(0.0684821 -0.00173128 0 0.000166232 0 0)
(0.075708 -0.00189323 0 0.00019635 0 0)
(0.0878998 -0.000986325 0 0.000185607 0 0)
(0.104689 -0.001159 0 0.000126097 0 0)
(0.120988 -0.000805383 0 0.000128447 0 0)
(0.137166 -0.000252131 0 0.000116521 0 0)
(0.151113 0.000322664 0 0.000113025 0 0)
(0.164253 0.00267412 0 0.000182354 0 0)
(0.175655 0.00579698 0 0.000372345 0 0)
(0.193031 0.015608 0 0.00145212 0 0)
(0.213801 0.0292851 0 0.00436079 0 0)
(0.25317 0.0630396 0 0.0168678 0 0)
(0.312638 0.116433 0 0.0449002 0 0)
(0.436181 0.226376 0 0.12052 0 0)
(0.226693 -0.00446973 0 0.0001357 0 0)
(0.00299966 -0.000311219 0 0.000545001 0 0)
(0.0103206 -0.000173518 0 0.000432956 0 0)
(0.0281141 -0.00111039 0 0.000134152 0 0)
(0.051404 -0.00154105 0 0.000152994 0 0)
(0.064024 -0.0029593 0 0.000268379 0 0)
(0.0701 -0.00309441 0 0.000308763 0 0)
(0.0776042 -0.00303125 0 0.000339517 0 0)
(0.089993 -0.00186515 0 0.000292717 0 0)
(0.106985 -0.00180759 0 0.000177398 0 0)
(0.123582 -0.00162693 0 0.000157388 0 0)
(0.139974 -0.00111655 0 0.000139377 0 0)
(0.154343 -0.000581085 0 0.00010947 0 0)
(0.167846 0.00157801 0 0.000162585 0 0)
(0.180336 0.00491793 0 0.00035379 0 0)
(0.198921 0.0143593 0 0.00123101 0 0)
(0.222449 0.0281606 0 0.00388444 0 0)
(0.265577 0.0606204 0 0.0148443 0 0)
(0.33146 0.112494 0 0.0395376 0 0)
(0.459964 0.216323 0 0.103975 0 0)
(0.226477 -0.00647217 0 0.000245471 0 0)
(0.00297216 -0.000501708 0 0.0010008 0 0)
(0.0103906 -0.000342438 0 0.00079683 0 0)
(0.0292788 -0.00157713 0 0.000191962 0 0)
(0.0531504 -0.00229952 0 0.000222025 0 0)
(0.0661801 -0.0041604 0 0.00042767 0 0)
(0.0726168 -0.00452897 0 0.000530285 0 0)
(0.0805225 -0.00422542 0 0.000545223 0 0)
(0.0932242 -0.0028085 0 0.000445174 0 0)
(0.110508 -0.00249507 0 0.000257128 0 0)
(0.127491 -0.00250106 0 0.00020688 0 0)
(0.144238 -0.00200589 0 0.000183194 0 0)
(0.159058 -0.00154067 0 0.000124797 0 0)
(0.173064 0.000401563 0 0.000173678 0 0)
(0.186678 0.00399524 0 0.000356513 0 0)
(0.206562 0.0129508 0 0.0010387 0 0)
(0.232811 0.0268945 0 0.00340882 0 0)
(0.279627 0.0577701 0 0.0128226 0 0)
(0.351834 0.107908 0 0.0343089 0 0)
(0.485652 0.205568 0 0.088644 0 0)
(0.22618 -0.00865838 0 0.00040754 0 0)
(0.00296168 -0.000766515 0 0.00161711 0 0)
(0.0105599 -0.000622576 0 0.00128292 0 0)
(0.0309182 -0.00208332 0 0.000261281 0 0)
(0.0555655 -0.00316243 0 0.000318635 0 0)
(0.0691559 -0.00547592 0 0.000640692 0 0)
(0.0761269 -0.0060612 0 0.000827732 0 0)
(0.0845674 -0.00549585 0 0.000808428 0 0)
(0.0977025 -0.00383694 0 0.000639176 0 0)
(0.115379 -0.00322814 0 0.000358494 0 0)
(0.132833 -0.00344767 0 0.000273977 0 0)
(0.150082 -0.00293249 0 0.000241224 0 0)
(0.165395 -0.00258347 0 0.00015557 0 0)
(0.180067 -0.000830123 0 0.000209989 0 0)
(0.194819 0.00302481 0 0.000370953 0 0)
(0.21613 0.0113945 0 0.0008803 0 0)
(0.245048 0.0254562 0 0.00293919 0 0)
(0.295534 0.0545084 0 0.0108484 0 0)
(0.373992 0.102667 0 0.0293005 0 0)
(0.51268 0.194004 0 0.0746179 0 0)
(0.225786 -0.0110883 0 0.000639382 0 0)
(0.00299074 -0.00113134 0 0.00240123 0 0)
(0.0108948 -0.00104865 0 0.00188642 0 0)
(0.033106 -0.00265159 0 0.000346864 0 0)
(0.0587208 -0.00416412 0 0.00045244 0 0)
(0.0730512 -0.00693244 0 0.000916816 0 0)
(0.0807641 -0.00771676 0 0.00120426 0 0)
(0.0898776 -0.00686419 0 0.00112935 0 0)
(0.103591 -0.00498196 0 0.000883232 0 0)
(0.121748 -0.00402163 0 0.000484704 0 0)
(0.13978 -0.00450124 0 0.000364902 0 0)
(0.157682 -0.00391941 0 0.000315945 0 0)
(0.173545 -0.0037465 0 0.000206494 0 0)
(0.189063 -0.00216787 0 0.000278629 0 0)
(0.204977 0.00198326 0 0.000396607 0 0)
(0.227844 0.00966722 0 0.000765164 0 0)
(0.259407 0.0238475 0 0.00248845 0 0)
(0.313543 0.0507766 0 0.00895118 0 0)
(0.398144 0.0967355 0 0.0245584 0 0)
(0.541641 0.181615 0 0.0617975 0 0)
(0.225258 -0.0138237 0 0.000964623 0 0)
(0.00309266 -0.00162813 0 0.00335901 0 0)
(0.0114813 -0.00164827 0 0.0025629 0 0)
(0.0359356 -0.00331436 0 0.000456089 0 0)
(0.0627165 -0.0053496 0 0.000633375 0 0)
(0.0780142 -0.00855739 0 0.00126044 0 0)
(0.0867131 -0.00951241 0 0.00165622 0 0)
(0.0966537 -0.00835102 0 0.00150601 0 0)
(0.111105 -0.00626713 0 0.00117798 0 0)
(0.129837 -0.00489343 0 0.000626122 0 0)
(0.148556 -0.00566736 0 0.000474016 0 0)
(0.16729 -0.00496863 0 0.000402998 0 0)
(0.183757 -0.00506386 0 0.000282317 0 0)
(0.200359 -0.00360953 0 0.000381447 0 0)
(0.217431 0.000828693 0 0.000432245 0 0)
(0.242041 0.00775403 0 0.000693241 0 0)
(0.27616 0.022097 0 0.00206606 0 0)
(0.333994 0.0464885 0 0.00716409 0 0)
(0.4246 0.0901806 0 0.0201621 0 0)
(0.57314 0.168248 0 0.0500908 0 0)
(0.224552 -0.0168896 0 0.00141127 0 0)
(0.00331595 -0.00230808 0 0.00452373 0 0)
(0.0124216 -0.00242749 0 0.00317432 0 0)
(0.0395222 -0.00414678 0 0.000610805 0 0)
(0.0677111 -0.00680468 0 0.000885724 0 0)
(0.0842605 -0.0104098 0 0.00168783 0 0)
(0.0942426 -0.0114889 0 0.00218915 0 0)
(0.105158 -0.00999458 0 0.00194309 0 0)
(0.120523 -0.00771845 0 0.00151907 0 0)
(0.139907 -0.0058809 0 0.000777493 0 0)
(0.159451 -0.00695523 0 0.000602111 0 0)
(0.179208 -0.00611172 0 0.000503957 0 0)
(0.196361 -0.00654863 0 0.000382079 0 0)
(0.214331 -0.00518164 0 0.000516888 0 0)
(0.232539 -0.000457627 0 0.000477884 0 0)
(0.259133 0.00563763 0 0.000672966 0 0)
(0.295671 0.0201782 0 0.00168048 0 0)
(0.357307 0.0416211 0 0.00553747 0 0)
(0.453828 0.0829884 0 0.0161445 0 0)
(0.608268 0.153687 0 0.0394182 0 0)
(0.223635 -0.0203332 0 0.00201793 0 0)
(0.00372268 -0.00322677 0 0.0059262 0 0)
(0.0138363 -0.00336613 0 0.00360347 0 0)
(0.0439047 -0.00524149 0 0.00084391 0 0)
(0.0738218 -0.00861826 0 0.00124484 0 0)
(0.0919159 -0.0125564 0 0.00222426 0 0)
(0.103584 -0.0136904 0 0.00281303 0 0)
(0.115545 -0.0118265 0 0.00244514 0 0)
(0.132077 -0.00938253 0 0.00191523 0 0)
(0.152097 -0.00702499 0 0.000953366 0 0)
(0.172762 -0.00843017 0 0.000766973 0 0)
(0.193669 -0.00734171 0 0.000614221 0 0)
(0.211785 -0.00828498 0 0.000516524 0 0)
(0.231345 -0.00684127 0 0.000680287 0 0)
(0.250824 -0.0019884 0 0.000544931 0 0)
(0.279568 0.00335118 0 0.000711655 0 0)
(0.318498 0.0179931 0 0.00132524 0 0)
(0.384017 0.0363111 0 0.00413163 0 0)
(0.486576 0.0749179 0 0.0124853 0 0)
(0.647683 0.137758 0 0.0298521 0 0)
(0.222508 -0.0242524 0 0.00284885 0 0)
(0.00439386 -0.00442902 0 0.00756525 0 0)
(0.0158869 -0.00447613 0 0.00391888 0 0)
(0.0491163 -0.00663243 0 0.0011772 0 0)
(0.081346 -0.0108285 0 0.00173456 0 0)
(0.101134 -0.0150069 0 0.00287618 0 0)
(0.115263 -0.0161441 0 0.00351593 0 0)
(0.127957 -0.0138278 0 0.00299939 0 0)
(0.14643 -0.0112995 0 0.0023648 0 0)
(0.16651 -0.00832361 0 0.00115091 0 0)
(0.189504 -0.0101779 0 0.000969943 0 0)
(0.210904 -0.00864418 0 0.000723229 0 0)
(0.231419 -0.0103347 0 0.000694819 0 0)
(0.251647 -0.00852727 0 0.00085826 0 0)
(0.273685 -0.00387776 0 0.000639329 0 0)
(0.303307 0.00100256 0 0.000802832 0 0)
(0.345644 0.0154787 0 0.00100846 0 0)
(0.413335 0.0304999 0 0.00296808 0 0)
(0.522217 0.0662502 0 0.00930115 0 0)
(0.688165 0.118859 0 0.0211092 0 0)
(0.221077 -0.0286608 0 0.00396924 0 0)
(0.00553505 -0.00598238 0 0.00945436 0 0)
(0.0188471 -0.00583313 0 0.00423219 0 0)
(0.055325 -0.0083577 0 0.00162585 0 0)
(0.0909724 -0.013496 0 0.00237338 0 0)
(0.112141 -0.0178083 0 0.00366516 0 0)
(0.130267 -0.0189347 0 0.00429985 0 0)
(0.142542 -0.0160267 0 0.003638 0 0)
(0.165099 -0.0135649 0 0.00287339 0 0)
(0.183176 -0.0098392 0 0.00138703 0 0)
(0.211757 -0.0123108 0 0.00121579 0 0)
(0.229966 -0.0101501 0 0.000863966 0 0)
(0.257031 -0.0126833 0 0.000907729 0 0)
(0.271761 -0.0102333 0 0.00107296 0 0)
(0.3002 -0.00593073 0 0.000752 0 0)
(0.322265 -0.00142029 0 0.000943813 0 0)
(0.370536 0.012925 0 0.000756247 0 0)
(0.429305 0.0237531 0 0.00203405 0 0)
(0.542881 0.0573683 0 0.00676837 0 0)
(0.700078 0.0941217 0 0.0132165 0 0)
(0.218974 -0.0334827 0 0.00544326 0 0)
(0.00744816 -0.00798434 0 0.0115987 0 0)
(0.0231204 -0.00747136 0 0.00458396 0 0)
(0.0631116 -0.0105333 0 0.0022184 0 0)
(0.103451 -0.0167361 0 0.0031961 0 0)
(0.125837 -0.0210896 0 0.00463376 0 0)
(0.149125 -0.0221957 0 0.00520639 0 0)
(0.159843 -0.018574 0 0.00441041 0 0)
(0.187513 -0.0162016 0 0.00345636 0 0)
(0.19986 -0.0115191 0 0.00168043 0 0)
(0.234115 -0.0145787 0 0.00150456 0 0)
(0.240002 -0.0114882 0 0.001058 0 0)
(0.272772 -0.0146305 0 0.00113951 0 0)
(0.26679 -0.0107161 0 0.00127877 0 0)
(0.299317 -0.0072294 0 0.000860611 0 0)
(0.295489 -0.00247847 0 0.00104857 0 0)
(0.345256 0.010379 0 0.000576119 0 0)
(0.373182 0.0169724 0 0.00137192 0 0)
(0.480824 0.0468801 0 0.00488962 0 0)
(0.600794 0.0637386 0 0.00716109 0 0)
(0.216035 -0.0387396 0 0.00738285 0 0)
(0.0100781 -0.0105273 0 0.0138305 0 0)
(0.0288419 -0.00937442 0 0.0050144 0 0)
(0.0735938 -0.0134063 0 0.00302599 0 0)
(0.118711 -0.020647 0 0.0042642 0 0)
(0.142749 -0.0249089 0 0.00579177 0 0)
(0.166576 -0.0253825 0 0.00620727 0 0)
(0.171448 -0.020715 0 0.00523933 0 0)
(0.191722 -0.0174911 0 0.0039976 0 0)
(0.189418 -0.011812 0 0.00194643 0 0)
(0.210469 -0.014245 0 0.00170936 0 0)
(0.19365 -0.0100177 0 0.00117332 0 0)
(0.211658 -0.0125402 0 0.00127066 0 0)
(0.181254 -0.00669259 0 0.00128851 0 0)
(0.20173 -0.00530117 0 0.000851234 0 0)
(0.177481 0.00029125 0 0.000995697 0 0)
(0.213883 0.00732213 0 0.000415925 0 0)
(0.217892 0.012394 0 0.000983096 0 0)
(0.301711 0.0315003 0 0.00338667 0 0)
(0.380834 0.0353233 0 0.00367498 0 0)
(0.213746 -0.0446769 0 0.0099478 0 0)
(0.0139131 -0.0137348 0 0.0157782 0 0)
(0.0362461 -0.0118456 0 0.00572079 0 0)
(0.0862513 -0.0171377 0 0.00417188 0 0)
(0.129404 -0.024464 0 0.0055829 0 0)
(0.143073 -0.0266367 0 0.0069168 0 0)
(0.144737 -0.0237235 0 0.00692542 0 0)
(0.126797 -0.0165729 0 0.00563325 0 0)
(0.118536 -0.0115185 0 0.00402068 0 0)
(0.100609 -0.00626222 0 0.00191034 0 0)
(0.0959004 -0.00669407 0 0.00154627 0 0)
(0.0795091 -0.00281895 0 0.00103502 0 0)
(0.0765842 -0.00351294 0 0.00108806 0 0)
(0.069147 0.00145421 0 0.0010459 0 0)
(0.0716663 4.01032e-05 0 0.000660699 0 0)
(0.078122 0.00439328 0 0.000771614 0 0)
(0.087653 0.00327822 0 0.000316127 0 0)
(0.107378 0.00799976 0 0.000682222 0 0)
(0.14535 0.0122555 0 0.00242022 0 0)
(0.198043 0.0134524 0 0.00185418 0 0)
(0.216513 -0.0520491 0 0.0133479 0 0)
(0.0200337 -0.0179454 0 0.0177326 0 0)
(0.04263 -0.0145076 0 0.0071162 0 0)
(0.0825454 -0.0188896 0 0.00565944 0 0)
(0.0926643 -0.0210182 0 0.00654542 0 0)
(0.0707621 -0.0159394 0 0.00703963 0 0)
(0.0468251 -0.007898 0 0.00638089 0 0)
(0.0336168 -0.000365232 0 0.00479896 0 0)
(0.0370296 0.00291305 0 0.00312589 0 0)
(0.0506078 0.00427993 0 0.00140447 0 0)
(0.0588789 0.00471558 0 0.00104586 0 0)
(0.0939342 0.00615918 0 0.000688815 0 0)
(0.0927579 0.00662638 0 0.000726107 0 0)
(0.159698 0.00798686 0 0.00068012 0 0)
(0.140839 0.0044894 0 0.000417425 0 0)
(0.220608 0.00564122 0 0.000503056 0 0)
(0.18138 -0.00253111 0 0.000246337 0 0)
(0.241037 0.00272865 0 0.000451523 0 0)
(0.204505 -0.00816511 0 0.00182158 0 0)
(0.227874 0.00101188 0 0.00116364 0 0)
(0.232472 -0.0638132 0 0.0186337 0 0)
(0.0223223 -0.019978 0 0.0198781 0 0)
(0.0294831 -0.0100479 0 0.00829758 0 0)
(0.0328136 -0.00721206 0 0.0059597 0 0)
(0.0194755 -0.000220956 0 0.00559091 0 0)
(0.0276813 0.00917617 0 0.00524331 0 0)
(0.0751081 0.0150948 0 0.00435702 0 0)
(0.153715 0.0163946 0 0.00303423 0 0)
(0.233563 0.014344 0 0.00183445 0 0)
(0.311975 0.0113464 0 0.000784489 0 0)
(0.363816 0.0116362 0 0.000544815 0 0)
(0.45764 0.010922 0 0.000369258 0 0)
(0.473782 0.0116406 0 0.000394078 0 0)
(0.609713 0.00977061 0 0.000368638 0 0)
(0.569055 0.00570923 0 0.00021922 0 0)
(0.716299 0.00317756 0 0.000275604 0 0)
(0.611042 -0.00763451 0 0.00017298 0 0)
(0.703659 -0.0032371 0 0.000285081 0 0)
(0.57495 -0.0236887 0 0.00126984 0 0)
(0.54543 -0.00178285 0 0.00122744 0 0)
(0.248887 -0.078852 0 0.0265458 0 0)
(0.00633291 -0.00547997 0 0.0191267 0 0)
(0.041906 0.0108199 0 0.00673669 0 0)
(0.0900864 0.0166369 0 0.00393916 0 0)
(0.179876 0.0231367 0 0.00313778 0 0)
(0.331584 0.0268438 0 0.00275139 0 0)
(0.513718 0.0253181 0 0.00217645 0 0)
(0.693278 0.0206188 0 0.00142909 0 0)
(0.839185 0.0157183 0 0.000818973 0 0)
(0.957353 0.0114018 0 0.000334501 0 0)
(1.04044 0.0115925 0 0.000217665 0 0)
(1.15806 0.0103144 0 0.000159543 0 0)
(1.19204 0.0106761 0 0.00016897 0 0)
(1.34824 0.00775544 0 0.000161299 0 0)
(1.29877 0.00397523 0 9.09469e-05 0 0)
(1.46255 -0.000280197 0 0.000121677 0 0)
(1.30525 -0.00975725 0 0.000105193 0 0)
(1.39974 -0.00742104 0 0.000154662 0 0)
(1.19078 -0.0295416 0 0.000802948 0 0)
(1.0938 0.00565057 0 0.00137296 0 0)
(0.189504 -0.071597 0 0.0295837 0 0)
(0.0733997 0.0270215 0 0.0124032 0 0)
(0.309509 0.0296748 0 0.00311446 0 0)
(0.519914 0.027666 0 0.00150396 0 0)