/*--------------------------------*- C++ -*----------------------------------*\
| =========                 |                                                 |
| \\      /  F ield         | OpenFOAM: The Open Source CFD Toolbox           |
|  \\    /   O peration     | Version:  2.4.0                                 |
|   \\  /    A nd           | Web:      www.OpenFOAM.org                      |
|    \\/     M anipulation  |                                                 |
\*---------------------------------------------------------------------------*/
FoamFile
{
    version     2.0;
    format      ascii;
    class       volScalarField;
    location    "0.023";
    object      nut;
}
// * * * * * * * * * * * * * * * * * * * * * * * * * * * * * * * * * * * * * //

dimensions      [0 2 -1 0 0 0 0];

internalField   nonuniform List<scalar> 
17600
(
0.00010783
0.00012451
0.000135993
0.000143228
0.000147274
0.000149057
0.000149311
0.00014858
0.000147256
0.000145607
0.000143816
0.000142002
0.000140245
0.000138593
0.000137074
0.000135699
0.000134467
0.000133355
0.000132319
0.000131321
0.000329173
0.000212655
0.000162185
0.000135859
0.000121229
0.000113025
0.000108733
0.000107058
0.000107296
0.000109043
0.000112051
0.000116151
0.000121208
0.000127094
0.000133668
0.000140772
0.000148223
0.000155807
0.000163311
0.000168424
0.000659514
0.000505622
0.00040084
0.00032864
0.000277965
0.000241564
0.000214853
0.000194959
0.000180055
0.000168952
0.000160864
0.000155256
0.000151763
0.000150125
0.000150148
0.000151673
0.00015455
0.000158612
0.000163593
0.000168323
0.000798066
0.000719143
0.00063947
0.00056817
0.000507727
0.000457529
0.000415969
0.000381387
0.000352373
0.000327802
0.000306811
0.000288748
0.000273131
0.000259608
0.000247922
0.000237883
0.000229329
0.00022207
0.000215668
0.000208922
0.000836034
0.000805282
0.000764926
0.000720394
0.000675859
0.000633739
0.00059509
0.000560162
0.000528791
0.000500631
0.000475276
0.000452325
0.00043141
0.000412205
0.00039442
0.000377791
0.000362043
0.000346808
0.00033128
0.000313836
0.000845497
0.000833333
0.000815252
0.00079227
0.000766099
0.000738419
0.000710524
0.00068328
0.000657198
0.000632525
0.000609336
0.000587594
0.000567195
0.000547994
0.000529817
0.000512457
0.000495648
0.000478982
0.000461586
0.000441884
0.000847815
0.000841759
0.000833143
0.000821665
0.000807552
0.000791358
0.000773737
0.000755304
0.00073657
0.000717916
0.000699607
0.000681806
0.000664599
0.000648006
0.000631996
0.000616483
0.000601306
0.000586171
0.000570413
0.000552903
0.000848382
0.000844198
0.000839116
0.000832753
0.00082492
0.000815628
0.000805038
0.000793396
0.000780976
0.000768041
0.000754821
0.000741499
0.000728217
0.000715065
0.000702095
0.000689304
0.000676629
0.000663896
0.000650668
0.000636242
0.00084852
0.000844889
0.000841035
0.000836725
0.000831764
0.000826029
0.000819476
0.000812135
0.000804087
0.000795444
0.000786329
0.000776864
0.000767158
0.000757301
0.000747357
0.00073736
0.000727295
0.000717072
0.00070642
0.000694927
0.000848553
0.000845082
0.000841635
0.000838096
0.000834345
0.000830269
0.000825787
0.000820851
0.000815448
0.000809594
0.000803328
0.000796701
0.000789769
0.000782587
0.000775202
0.000767645
0.000759916
0.000751969
0.000743638
0.000734689
0.00084856
0.000845133
0.000841817
0.000838556
0.000835284
0.000831931
0.000828429
0.000824724
0.000820776
0.000816561
0.000812073
0.000807317
0.000802308
0.000797067
0.000791615
0.000785967
0.000780122
0.000774051
0.00076765
0.000760792
0.00084856
0.000845146
0.000841871
0.000838706
0.000835616
0.000832561
0.000829497
0.000826382
0.000823178
0.000819854
0.000816389
0.000812768
0.000808982
0.000805032
0.000800918
0.00079664
0.000792193
0.000787551
0.000782649
0.00077742
0.00084856
0.000845148
0.000841885
0.000838752
0.000835729
0.000832792
0.000829914
0.000827067
0.000824223
0.000821356
0.000818443
0.000815465
0.000812406
0.000809255
0.000806004
0.000802643
0.000799161
0.000795537
0.000791728
0.000787705
0.000848559
0.000845147
0.000841887
0.000838765
0.000835766
0.000832874
0.000830072
0.000827342
0.000824664
0.000822019
0.000819388
0.000816755
0.000814104
0.00081142
0.000808693
0.000805909
0.000803056
0.000800116
0.00079706
0.000793884
0.000848558
0.000845146
0.000841887
0.000838767
0.000835776
0.000832901
0.000830129
0.000827448
0.000824844
0.000822302
0.00081981
0.000817354
0.00081492
0.000812497
0.000810071
0.000807633
0.000805168
0.000802664
0.000800102
0.000797494
0.000848557
0.000845145
0.000841885
0.000838767
0.000835778
0.000832908
0.000830148
0.000827487
0.000824914
0.00082242
0.000819993
0.000817624
0.000815301
0.000813016
0.000810758
0.000808516
0.000806281
0.000804043
0.00080179
0.000799546
0.000848557
0.000845144
0.000841884
0.000838765
0.000835777
0.00083291
0.000830153
0.0008275
0.00082494
0.000822466
0.000820069
0.000817741
0.000815474
0.00081326
0.00081109
0.000808957
0.000806852
0.000804769
0.000802703
0.000800683
0.000848557
0.000845143
0.000841883
0.000838764
0.000835776
0.000832909
0.000830154
0.000827503
0.000824949
0.000822483
0.0008201
0.000817791
0.00081555
0.000813371
0.000811246
0.00080917
0.000807137
0.00080514
0.000803182
0.000801295
0.000848556
0.000845143
0.000841883
0.000838763
0.000835775
0.000832908
0.000830154
0.000827504
0.000824952
0.000822489
0.000820111
0.000817811
0.000815582
0.000813419
0.000811316
0.000809269
0.000807272
0.000805322
0.000803423
0.000801609
0.000848556
0.000845143
0.000841882
0.000838763
0.000835774
0.000832908
0.000830153
0.000827504
0.000824952
0.000822491
0.000820115
0.000817817
0.000815593
0.000813437
0.000811343
0.000809308
0.000807327
0.000805399
0.000803528
0.000801751
0.000848556
0.000845143
0.000841882
0.000838763
0.000835774
0.000832908
0.000830153
0.000827504
0.000824952
0.000822491
0.000820115
0.000817818
0.000815594
0.000813438
0.000811345
0.000809311
0.000807332
0.000805407
0.000803542
0.000801774
0.000848556
0.000845143
0.000841883
0.000838763
0.000835775
0.000832908
0.000830154
0.000827504
0.000824952
0.00082249
0.000820111
0.000817811
0.000815583
0.000813421
0.00081132
0.000809276
0.000807286
0.000805347
0.000803468
0.000801684
0.000848557
0.000845143
0.000841883
0.000838764
0.000835776
0.000832909
0.000830154
0.000827504
0.000824949
0.000822484
0.0008201
0.000817792
0.000815552
0.000813374
0.000811253
0.000809184
0.000807162
0.000805187
0.000803267
0.000801438
0.000848557
0.000845144
0.000841884
0.000838765
0.000835777
0.00083291
0.000830154
0.0008275
0.00082494
0.000822466
0.00082007
0.000817743
0.000815477
0.000813266
0.000811101
0.000808978
0.000806893
0.000804845
0.000802844
0.000800925
0.000848557
0.000845145
0.000841885
0.000838767
0.000835778
0.000832908
0.000830148
0.000827487
0.000824914
0.00082242
0.000819994
0.000817626
0.000815306
0.000813025
0.000810774
0.000808549
0.000806345
0.000804164
0.000802016
0.000799941
0.000848558
0.000845146
0.000841887
0.000838767
0.000835776
0.000832901
0.000830129
0.000827448
0.000824844
0.000822303
0.000819812
0.000817357
0.000814927
0.000812509
0.000810097
0.000807683
0.000805267
0.000802854
0.000800459
0.000798127
0.000848559
0.000845147
0.000841887
0.000838765
0.000835766
0.000832874
0.000830072
0.000827342
0.000824664
0.00082202
0.000819391
0.00081676
0.000814113
0.00081144
0.000808732
0.000805987
0.000803208
0.000800412
0.000797618
0.000794883
0.00084856
0.000845148
0.000841885
0.000838752
0.000835729
0.000832792
0.000829915
0.000827068
0.000824224
0.000821358
0.000818446
0.000815472
0.000812421
0.000809285
0.000806064
0.000802763
0.000799395
0.000795989
0.000792587
0.000789253
0.00084856
0.000845146
0.000841871
0.000838706
0.000835616
0.000832561
0.000829497
0.000826382
0.000823179
0.000819857
0.000816395
0.000812779
0.000809006
0.000805079
0.000801012
0.000796825
0.000792549
0.000788232
0.000783949
0.000779772
0.00084856
0.000845133
0.000841817
0.000838556
0.000835284
0.000831931
0.00082843
0.000824725
0.000820778
0.000816566
0.000812082
0.000807335
0.000802345
0.000797141
0.00079176
0.000786246
0.000780655
0.000775059
0.000769567
0.00076428
0.000848553
0.000845082
0.000841635
0.000838096
0.000834345
0.000830269
0.000825787
0.000820852
0.000815451
0.000809601
0.000803343
0.000796731
0.000789827
0.0007827
0.00077542
0.000768058
0.000760694
0.000753424
0.00074637
0.000739734
0.00084852
0.000844889
0.000841035
0.000836725
0.000831764
0.000826029
0.000819477
0.000812138
0.000804093
0.000795455
0.000786352
0.00077691
0.000767246
0.000757469
0.000747674
0.000737953
0.000728397
0.000719115
0.00071024
0.00070208
0.000848382
0.000844198
0.000839116
0.000832753
0.00082492
0.000815629
0.000805041
0.000793401
0.000780986
0.00076806
0.000754857
0.000741568
0.000728346
0.000715307
0.000702541
0.000690127
0.00067814
0.000666681
0.000655879
0.00064617
0.000847815
0.000841759
0.000833144
0.000821666
0.000807553
0.00079136
0.00077374
0.000755312
0.000736585
0.000717944
0.00069966
0.000681904
0.000664779
0.000648335
0.000632597
0.000617576
0.000603298
0.000589829
0.000577276
0.000566176
0.000845497
0.000833333
0.000815252
0.00079227
0.000766101
0.000738422
0.00071053
0.000683292
0.000657219
0.000632564
0.000609407
0.000587722
0.000567427
0.000548413
0.000530571
0.000513813
0.000498095
0.000483445
0.000469955
0.00045827
0.000836034
0.000805282
0.000764927
0.000720395
0.000675861
0.000633743
0.000595098
0.000560177
0.000528818
0.000500678
0.00047536
0.000452473
0.000431673
0.000412668
0.000395236
0.000379225
0.000364569
0.000351296
0.000339505
0.00032991
0.000798066
0.000719144
0.000639471
0.000568171
0.00050773
0.000457535
0.000415977
0.000381402
0.000352398
0.000327845
0.000306885
0.000288874
0.000273344
0.000259966
0.000248523
0.000238886
0.000230994
0.000224849
0.000220456
0.000218229
0.000659514
0.000505622
0.000400841
0.000328641
0.000277967
0.000241567
0.000214858
0.000194966
0.000180067
0.000168972
0.000160895
0.000155307
0.000151844
0.000150253
0.000150351
0.000151995
0.000155058
0.000159426
0.000164956
0.000171681
0.000329173
0.000212655
0.000162185
0.00013586
0.000121229
0.000113025
0.000108733
0.000107059
0.000107297
0.000109045
0.000112054
0.000116158
0.000121222
0.000127122
0.000133725
0.000140886
0.000148448
0.000156262
0.000164169
0.000172199
0.00010783
0.00012451
0.000135993
0.000143228
0.000147274
0.000149058
0.000149311
0.000148581
0.000147258
0.00014561
0.000143821
0.000142012
0.000140262
0.000138623
0.000137128
0.000135796
0.00013464
0.000133667
0.000132884
0.000132312
0.00017018
0.000223771
0.000288471
0.000359496
0.000431195
0.000499451
0.000562476
0.000620226
0.00067391
0.000725062
0.000775048
0.000824998
0.000875924
0.000928853
0.000984895
0.00104525
0.00111118
0.001184
0.00126498
0.00135534
0.00145615
0.00156822
0.00169208
0.00182783
0.00197516
0.00213333
0.00230115
0.00247712
0.00265941
0.00284607
0.003035
0.00322415
0.00341152
0.00359526
0.00377368
0.0039453
0.00410885
0.00426327
0.00440769
0.00454143
0.00466396
0.00477482
0.00487364
0.00495991
0.00503293
0.00509164
0.00513506
0.00516441
0.00517977
0.00518118
0.00516873
0.00514251
0.00510261
0.0050491
0.00498211
0.00490176
0.00480823
0.00470175
0.0045826
0.00445116
0.00430788
0.00415333
0.00398818
0.00381325
0.0036295
0.00343802
0.00324013
0.00303728
0.00283114
0.00262358
0.00241662
0.00221247
0.00201346
0.00182197
0.00164036
0.00147089
0.00131556
0.00117607
0.00105368
0.000949173
0.000862836
0.000794483
0.000743486
0.00070883
0.000689144
0.00068272
0.000687539
0.000701324
0.000721652
0.000746124
0.000772545
0.000799081
0.000824342
0.000847391
0.000867695
0.000885044
0.000899458
0.000911107
0.000920252
0.000927193
0.000932239
0.000935694
0.000937836
0.000938923
0.000939184
0.000938819
0.000938005
0.000936896
0.000935622
0.000934294
0.000933009
0.000931843
0.000930864
0.000930122
0.000929661
0.000929513
0.000929701
0.000930243
0.000931147
0.000932417
0.000934054
0.000936052
0.000938402
0.000941093
0.00094411
0.000947434
0.000951032
0.000954873
0.000959
0.000963396
0.000968046
0.000972934
0.000978046
0.000983366
0.000988883
0.000994589
0.00100048
0.00100655
0.0010128
0.00101925
0.00102592
0.00103283
0.00104004
0.00104759
0.00105558
0.00106411
0.0010733
0.00108332
0.00109437
0.00110668
0.00112052
0.00113619
0.00115403
0.00117437
0.00119755
0.00122385
0.00125351
0.00128663
0.0013232
0.00136304
0.00140581
0.00145098
0.00149793
0.00154592
0.00159416
0.00164189
0.00168843
0.00173315
0.00177559
0.00181541
0.00185238
0.00188644
0.0019176
0.00194599
0.00197181
0.00199532
0.00201685
0.00203676
0.00205546
0.0020734
0.00209108
0.00210905
0.00212797
0.00214856
0.00217174
0.00219858
0.00223049
0.00226924
0.0023172
0.00237752
0.00245435
0.00255302
0.00267965
0.00283924
0.00303127
0.00324044
0.00342726
0.00345674
0.00307017
0.00066034
0.000172904
0.000182562
0.000199868
0.000226831
0.000264422
0.000312163
0.000368209
0.000429615
0.00049321
0.000556427
0.000617774
0.000676854
0.000734088
0.00079034
0.000846645
0.000904075
0.000963709
0.00102666
0.00109409
0.00116719
0.00124716
0.00133515
0.00143214
0.00153896
0.00165609
0.00178371
0.00192157
0.00206902
0.00222503
0.00238822
0.00255695
0.00272942
0.0029037
0.00307789
0.00325012
0.00341865
0.00358191
0.00373849
0.00388718
0.00402695
0.00415695
0.00427645
0.0043848
0.00448124
0.00456474
0.00463364
0.00468856
0.00472955
0.00475652
0.00476944
0.0047683
0.00475313
0.00472396
0.00468086
0.0046239
0.0045532
0.00446894
0.00437135
0.00426073
0.00413745
0.00400202
0.00385502
0.00369719
0.0035294
0.00335269
0.00316827
0.00297755
0.00278214
0.00258387
0.00238476
0.00218704
0.00199308
0.00180537
0.0016264
0.0014586
0.00130417
0.00116503
0.00104266
0.000938059
0.000851704
0.000783556
0.000733101
0.00069939
0.000681072
0.000676403
0.000683266
0.000699231
0.000721692
0.000748065
0.00077601
0.000803606
0.000829437
0.000852592
0.000872597
0.00088931
0.000902821
0.000913367
0.000921258
0.000926838
0.00093045
0.00093242
0.000933051
0.000932613
0.000931349
0.000929471
0.000927165
0.000924593
0.000921892
0.000919182
0.000916563
0.000914119
0.00091192
0.000910022
0.000908472
0.000907304
0.000906544
0.00090621
0.000906313
0.000906858
0.000907845
0.000909268
0.000911118
0.000913382
0.000916044
0.000919086
0.000922484
0.00092618
0.000930186
0.000934519
0.000939158
0.000944085
0.00094928
0.000954723
0.000960395
0.00096628
0.000972363
0.000978633
0.000985081
0.000991705
0.000998509
0.0010055
0.0010127
0.00102015
0.00102788
0.00103596
0.00104447
0.00105351
0.00106323
0.00107379
0.00108538
0.00109825
0.00111266
0.00112891
0.00114733
0.00116826
0.00119199
0.00121882
0.00124893
0.00128243
0.00131927
0.00135926
0.00140205
0.00144712
0.00149385
0.00154153
0.00158942
0.00163681
0.00168305
0.00172757
0.00176993
0.00180983
0.00184709
0.00188163
0.00191349
0.00194282
0.00196981
0.00199475
0.00201796
0.00203983
0.00206081
0.00208137
0.00210208
0.00212358
0.00214662
0.00217212
0.00220119
0.00223526
0.00227616
0.00232634
0.00238907
0.00246876
0.00257108
0.00270269
0.00286921
0.00307006
0.00328913
0.00348261
0.00352675
0.00315089
0.000986905
0.000169749
0.000171282
0.000173548
0.000177675
0.000185306
0.000198438
0.000218986
0.000248307
0.000286865
0.000334106
0.000388575
0.000448261
0.000511055
0.000575189
0.000639526
0.000703631
0.000767678
0.000832278
0.000898306
0.00096677
0.00103874
0.00111532
0.00119756
0.00128649
0.00138298
0.00148773
0.00160118
0.00172344
0.00185429
0.00199314
0.00213906
0.00229081
0.00244694
0.00260581
0.00276571
0.00292492
0.00308174
0.00323461
0.00338208
0.00352284
0.00365576
0.00377982
0.00389409
0.00399756
0.00408867
0.00416634
0.00423093
0.00428205
0.00431943
0.0043429
0.00435234
0.00434766
0.00432884
0.00429587
0.0042488
0.00418772
0.00411278
0.00402419
0.00392227
0.00380741
0.00368013
0.00354107
0.00339101
0.0032309
0.00306189
0.0028853
0.00270269
0.00251584
0.00232675
0.00213767
0.001951
0.0017693
0.00159519
0.00143124
0.00127984
0.0011431
0.00102271
0.000919841
0.00083515
0.000768733
0.000720178
0.000688598
0.000672651
0.000670547
0.000680058
0.000698594
0.000723367
0.000751632
0.000780943
0.000809342
0.000835438
0.000858388
0.000877802
0.000893625
0.000906025
0.000915298
0.000921802
0.000925915
0.000928005
0.000928419
0.00092747
0.000925442
0.000922587
0.000919126
0.000915253
0.000911137
0.000906924
0.00090274
0.00089869
0.000894865
0.00089134
0.000888176
0.000885423
0.000883118
0.000881291
0.000879962
0.000879144
0.000878843
0.000879058
0.000879786
0.000881017
0.000882738
0.000884932
0.00088758
0.000890661
0.000894143
0.000897948
0.000902135
0.000906689
0.000911588
0.00091681
0.000922331
0.000928129
0.000934179
0.000940461
0.000946956
0.000953645
0.000960516
0.000967559
0.000974771
0.000982152
0.000989714
0.000997477
0.00100547
0.00101374
0.00102236
0.0010314
0.00104097
0.00105121
0.00106229
0.0010744
0.00108779
0.00110272
0.00111948
0.0011384
0.00115978
0.00118394
0.00121113
0.00124154
0.00127524
0.00131218
0.00135217
0.00139486
0.00143975
0.00148624
0.00153368
0.00158134
0.00162857
0.00167475
0.00171936
0.00176199
0.00180234
0.00184027
0.00187571
0.0019087
0.0019394
0.00196802
0.00199484
0.00202022
0.00204457
0.00206836
0.00209214
0.00211655
0.00214235
0.00217046
0.002202
0.00223842
0.00228158
0.00233397
0.00239896
0.00248108
0.00258625
0.00272147
0.00289261
0.00309874
0.00332259
0.0035164
0.00357023
0.00320545
0.00136233
0.000206812
0.000204279
0.000201247
0.000197735
0.000193966
0.000190612
0.000188896
0.000190476
0.000197156
0.000210551
0.000231853
0.000261707
0.000300151
0.000346621
0.000400044
0.000459035
0.000522156
0.000588181
0.000656284
0.000726121
0.000797803
0.000871807
0.00094885
0.00102978
0.00111546
0.00120673
0.0013043
0.00140869
0.00152021
0.00163889
0.00176444
0.0018963
0.00203359
0.00217518
0.00231977
0.00246589
0.00261203
0.00275665
0.00289825
0.00303543
0.00316685
0.00329131
0.00340764
0.00351461
0.0036103
0.00369436
0.0037662
0.0038253
0.00387123
0.00390364
0.00392229
0.00392697
0.00391756
0.00389397
0.00385619
0.00380426
0.0037383
0.00365852
0.00356522
0.00345882
0.00333986
0.00320903
0.0030672
0.00291541
0.00275492
0.00258722
0.00241404
0.00223735
0.00205937
0.00188255
0.0017095
0.00154291
0.00138547
0.00123972
0.00110793
0.000991933
0.000893083
0.000812158
0.000749377
0.000704413
0.000676427
0.000664073
0.000665496
0.000678339
0.000699845
0.000727059
0.00075712
0.000787538
0.000816388
0.00084237
0.000864755
0.000883266
0.000897947
0.00090904
0.000916895
0.000921908
0.00092448
0.000924994
0.000923806
0.000921238
0.000917581
0.000913091
0.000907998
0.000902502
0.000896779
0.000890983
0.000885246
0.000879682
0.000874387
0.000869442
0.000864913
0.000860854
0.000857308
0.000854306
0.000851871
0.000850018
0.000848755
0.000848083
0.000847998
0.000848492
0.000849552
0.000851161
0.000853299
0.000855946
0.000859074
0.000862645
0.000866581
0.000870951
0.000875733
0.000880903
0.000886434
0.000892298
0.000898468
0.000904918
0.000911622
0.000918555
0.000925696
0.000933026
0.00094053
0.000948197
0.000956022
0.000964007
0.000972161
0.000980505
0.00098907
0.000997904
0.00100707
0.00101666
0.00102677
0.00103754
0.00104915
0.00106179
0.00107569
0.00109112
0.00110836
0.00112774
0.00114955
0.00117408
0.00120158
0.00123221
0.00126606
0.00130306
0.00134301
0.00138559
0.00143032
0.00147663
0.0015239
0.00157146
0.00161868
0.00166498
0.00170988
0.001753
0.00179407
0.00183292
0.00186954
0.00190396
0.00193634
0.00196691
0.00199597
0.0020239
0.00205114
0.00207824
0.00210581
0.00213461
0.00216554
0.00219973
0.00223864
0.00228414
0.00233872
0.00240578
0.00248989
0.0025971
0.0027345
0.002908
0.00311599
0.00334007
0.00353024
0.00358991
0.0032566
0.00174688
0.000308186
0.000301821
0.000294585
0.000286339
0.000276889
0.000266131
0.000254205
0.000241653
0.000229533
0.000219359
0.000212844
0.000211593
0.0002169
0.000229686
0.000250526
0.000279671
0.000317044
0.000362238
0.000414556
0.000473111
0.000536977
0.000605339
0.00067763
0.000753589
0.000833263
0.000916946
0.00100508
0.00109816
0.00119662
0.00130076
0.0014107
0.00152632
0.00164724
0.00177284
0.00190226
0.00203446
0.00216822
0.00230224
0.00243515
0.00256559
0.0026922
0.00281369
0.00292877
0.0030361
0.00313394
0.00322155
0.00329809
0.00336286
0.00341525
0.00345477
0.00348101
0.00349366
0.00349245
0.00347724
0.00344792
0.0034045
0.00334705
0.00327576
0.00319094
0.00309302
0.00298258
0.0028604
0.00272742
0.00258482
0.00243401
0.00227665
0.00211468
0.00195031
0.00178596
0.00162429
0.00146804
0.00131997
0.00118274
0.00105869
0.000949807
0.000857531
0.000782748
0.000725757
0.000686293
0.000663537
0.000656111
0.00066206
0.000678876
0.000703633
0.000733251
0.000764824
0.000795915
0.000824727
0.000850123
0.000871533
0.000888814
0.000902109
0.000911726
0.000918055
0.000921513
0.00092251
0.000921432
0.000918635
0.000914442
0.000909145
0.000903003
0.000896251
0.000889095
0.000881719
0.000874284
0.000866931
0.000859782
0.000852941
0.000846494
0.000840515
0.000835061
0.00083018
0.000825907
0.000822267
0.000819277
0.000816947
0.000815279
0.000814271
0.000813914
0.000814196
0.000815102
0.000816612
0.000818704
0.000821353
0.00082453
0.00082818
0.00083225
0.000836804
0.000841817
0.000847259
0.0008531
0.00085931
0.000865858
0.000872716
0.000879852
0.000887238
0.00089485
0.000902662
0.000910655
0.000918812
0.000927122
0.000935577
0.000944181
0.000952942
0.000961882
0.000971031
0.000980438
0.000990168
0.00100031
0.00101096
0.00102228
0.00103441
0.00104757
0.00106197
0.00107789
0.0010956
0.0011154
0.00113759
0.00116245
0.00119021
0.00122103
0.00125498
0.001292
0.00133191
0.00137439
0.00141899
0.0014652
0.0015124
0.00155998
0.00160736
0.00165398
0.00169939
0.00174323
0.00178525
0.00182531
0.00186338
0.00189953
0.00193392
0.00196679
0.00199848
0.00202939
0.00206002
0.00209099
0.00212301
0.002157
0.00219407
0.00223564
0.00228358
0.00234037
0.00240937
0.00249514
0.00260367
0.00274199
0.00291578
0.00312268
0.00334332
0.00352754
0.00359025
0.00330474
0.00211115
0.000435376
0.000428162
0.000420035
0.000410844
0.000400368
0.000388345
0.000374514
0.000358677
0.000340811
0.000321241
0.000300778
0.000280732
0.000262749
0.000248525
0.00023953
0.000236875
0.000241322
0.00025337
0.000273333
0.000301373
0.000337492
0.000381516
0.000433098
0.000491754
0.000556937
0.000628122
0.000704881
0.000786927
0.000874116
0.000966404
0.00106378
0.00116619
0.00127346
0.00138525
0.00150105
0.00162014
0.00174162
0.00186447
0.00198753
0.0021096
0.00222941
0.00234569
0.00245714
0.00256243
0.00266022
0.00274908
0.00282809
0.00289639
0.00295327
0.00299807
0.00303027
0.00304942
0.00305518
0.00304727
0.00302555
0.00298996
0.00294053
0.00287745
0.00280103
0.00271173
0.00261022
0.00249735
0.00237418
0.00224206
0.00210257
0.0019576
0.00180931
0.00166013
0.00151269
0.00136976
0.00123414
0.00110852
0.0009953
0.000896508
0.000813639
0.000747625
0.000698803
0.000666925
0.000651147
0.000650007
0.000661405
0.00068266
0.000710706
0.000742414
0.000774958
0.000806084
0.000834229
0.000858488
0.000878485
0.000894216
0.00090591
0.000913924
0.000918665
0.000920549
0.00091998
0.000917333
0.000912955
0.000907161
0.00090024
0.000892452
0.000884034
0.0008752
0.000866142
0.000857029
0.000848013
0.000839224
0.000830775
0.000822762
0.000815263
0.000808342
0.000802052
0.000796429
0.000791503
0.000787293
0.000783808
0.000781054
0.000779026
0.000777719
0.00077712
0.000777213
0.00077798
0.000779399
0.000781447
0.000784095
0.000787312
0.000791017
0.000795218
0.000799948
0.000805178
0.000810877
0.000817016
0.00082356
0.000830477
0.000837734
0.000845298
0.000853137
0.000861222
0.000869524
0.000878019
0.000886683
0.000895502
0.00090446
0.000913553
0.000922781
0.000932155
0.000941694
0.000951432
0.000961417
0.000971713
0.000982408
0.000993612
0.00100546
0.00101812
0.00103178
0.00104668
0.00106306
0.0010812
0.0011014
0.00112393
0.00114908
0.00117706
0.00120803
0.00124205
0.00127908
0.00131895
0.00136136
0.0014059
0.00145208
0.00149933
0.00154709
0.00159479
0.00164193
0.00168807
0.00173287
0.00177612
0.00181767
0.0018575
0.00189571
0.00193246
0.00196802
0.00200276
0.00203714
0.00207172
0.00210722
0.00214451
0.00218467
0.00222911
0.00227965
0.00233873
0.00240963
0.0024968
0.00260608
0.00274425
0.00291659
0.00312
0.00333439
0.00351127
0.0035754
0.00334479
0.00243117
0.000547133
0.000540877
0.000533938
0.000526203
0.000517512
0.00050767
0.000496446
0.000483568
0.00046873
0.000451641
0.000432108
0.000410166
0.000386214
0.000361104
0.000336111
0.000312785
0.000292706
0.00027727
0.000267562
0.000264349
0.000268159
0.000279369
0.000298271
0.000325098
0.000360011
0.000403072
0.000454215
0.00051324
0.000579827
0.000653563
0.000733979
0.000820579
0.000912852
0.00101026
0.00111222
0.00121808
0.00132706
0.0014383
0.0015508
0.0016635
0.00177523
0.00188479
0.00199094
0.0020924
0.00218831
0.0022766
0.00235624
0.0024263
0.00248595
0.00253444
0.00257114
0.00259549
0.00260706
0.00260552
0.00259065
0.00256234
0.00252062
0.00246567
0.00239784
0.00231766
0.00222586
0.00212344
0.00201162
0.00189194
0.00176619
0.0016365
0.00150524
0.00137501
0.00124858
0.0011287
0.00101804
0.000918978
0.000833506
0.0007631
0.000708668
0.000670524
0.000648369
0.000641266
0.000647597
0.00066507
0.000690839
0.00072178
0.000754869
0.000787529
0.00081784
0.000844577
0.000867113
0.000885273
0.000899177
0.000909114
0.000915455
0.000918599
0.000918942
0.000916861
0.000912707
0.000906808
0.000899466
0.000890961
0.000881553
0.000871482
0.000860969
0.000850214
0.000839399
0.000828687
0.00081822
0.00080812
0.000798493
0.000789425
0.000780988
0.000773236
0.000766212
0.000759946
0.000754458
0.000749759
0.000745853
0.000742738
0.000740405
0.000738843
0.000738035
0.000737963
0.000738606
0.000739939
0.000741939
0.000744576
0.000747813
0.000751545
0.00075586
0.000760739
0.000766157
0.000772084
0.000778488
0.000785335
0.000792591
0.00080022
0.000808188
0.000816458
0.000824999
0.000833779
0.000842768
0.000851939
0.000861271
0.000870744
0.000880347
0.000890071
0.000899919
0.0009099
0.000920035
0.000930357
0.000940915
0.000951773
0.000963019
0.000974761
0.000987135
0.0010003
0.00101446
0.00102982
0.00104665
0.0010652
0.00108576
0.0011086
0.001134
0.00116216
0.00119325
0.00122734
0.00126438
0.00130423
0.00134662
0.00139116
0.00143742
0.00148485
0.00153294
0.00158115
0.00162902
0.00167612
0.00172216
0.0017669
0.00181024
0.00185216
0.00189278
0.00193228
0.00197097
0.00200926
0.00204767
0.00208687
0.00212769
0.00217119
0.00221872
0.00227206
0.00233355
0.00240637
0.00249479
0.0026044
0.0027416
0.00291114
0.00310924
0.00331546
0.00348413
0.00354902
0.00337277
0.00269314
0.000631535
0.000626537
0.000621091
0.000615124
0.000608542
0.000601231
0.000593056
0.000583855
0.000573426
0.00056152
0.000547849
0.000532108
0.000514026
0.000493445
0.000470418
0.000445298
0.000418792
0.000391945
0.000366039
0.000342437
0.000322426
0.000307096
0.0002973
0.000293676
0.000296712
0.000306815
0.000324353
0.000349675
0.000383092
0.000424835
0.000475004
0.000533526
0.00060012
0.00067429
0.000755347
0.000842439
0.000934591
0.00103075
0.0011298
0.00123061
0.00133197
0.00143268
0.00153148
0.00162714
0.00171901
0.00180494
0.00188352
0.00195373
0.00201464
0.00206542
0.00210536
0.00213383
0.00215032
0.00215444
0.00214593
0.00212468
0.00209072
0.00204426
0.00198571
0.00191571
0.00183512
0.00174509
0.00164705
0.00154275
0.00143422
0.00132377
0.00121393
0.00110735
0.00100672
0.000914568
0.000833168
0.000764381
0.00070957
0.000669536
0.00064448
0.000633963
0.000636851
0.000651298
0.000674811
0.000704471
0.000737286
0.000770562
0.000802175
0.000830673
0.000855225
0.000875491
0.000891467
0.000903353
0.000911455
0.000916128
0.000917732
0.000916617
0.00091312
0.000907556
0.000900225
0.000891411
0.000881384
0.0008704
0.000858704
0.000846525
0.000834074
0.000821548
0.000809122
0.000796954
0.000785179
0.000773913
0.000763252
0.000753273
0.000744038
0.000735591
0.000727964
0.000721178
0.000715242
0.00071016
0.000705925
0.00070253
0.00069996
0.000698197
0.000697222
0.000697013
0.000697547
0.000698798
0.000700741
0.000703347
0.000706574
0.000710325
0.000714701
0.000719681
0.000725237
0.000731339
0.000737956
0.000745052
0.000752594
0.000760543
0.000768864
0.00077752
0.000786475
0.000795694
0.000805145
0.000814797
0.000824623
0.0008346
0.000844708
0.000854935
0.000865273
0.000875723
0.000886296
0.000897012
0.000907904
0.000919021
0.000930428
0.00094221
0.000954477
0.00096736
0.000981021
0.000995649
0.00101146
0.0010287
0.00104762
0.00106851
0.00109163
0.00111725
0.00114558
0.00117677
0.00121091
0.00124797
0.00128784
0.00133026
0.0013749
0.00142134
0.00146911
0.00151769
0.00156662
0.00161543
0.00166375
0.00171128
0.00175782
0.00180327
0.00184765
0.00189107
0.00193376
0.00197608
0.00201847
0.00206157
0.00210616
0.00215324
0.0022041
0.00226045
0.00232453
0.00239937
0.00248901
0.0025987
0.00273436
0.00290013
0.00309171
0.00328864
0.00344864
0.00351408
0.00338679
0.00289403
0.000691212
0.000687335
0.000683169
0.000678671
0.000673788
0.000668456
0.000662604
0.000656147
0.000648984
0.000640987
0.000631994
0.000621805
0.000610185
0.000596873
0.000581609
0.000564172
0.000544442
0.000522456
0.000498465
0.000472972
0.000446724
0.000420669
0.000395874
0.000373426
0.000354338
0.0003395
0.000329648
0.000325392
0.00032725
0.000335688
0.00035115
0.000374059
0.000404793
0.000443629
0.000490683
0.000545836
0.000608692
0.000678549
0.000754428
0.000835118
0.000919248
0.00100536
0.00109196
0.00117761
0.00126122
0.00134178
0.0014167
0.00148484
0.00154513
0.00159662
0.0016385
0.00167005
0.00169072
0.00170006
0.00169781
0.00168385
0.00165826
0.00162133
0.00157355
0.00151571
0.00144885
0.0013743
0.00129371
0.00120901
0.00112238
0.00103621
0.000952996
0.000875198
0.000805134
0.000744837
0.000695935
0.000659571
0.00063633
0.000626179
0.00062841
0.000641604
0.000663674
0.000692054
0.000723999
0.000756945
0.000788788
0.000818018
0.000843706
0.0008654
0.000882988
0.000896571
0.000906373
0.00091267
0.000915761
0.000915943
0.000913504
0.000908725
0.000901878
0.000893228
0.000883037
0.000871565
0.000859064
0.000845784
0.000831963
0.00081783
0.000803596
0.000789455
0.000775581
0.000762127
0.000749219
0.000736967
0.000725454
0.000714748
0.000704895
0.000695929
0.000687868
0.00068072
0.000674484
0.000669151
0.000664707
0.000661135
0.000658414
0.000656521
0.000655431
0.000655121
0.000655564
0.000656736
0.00065861