/*--------------------------------*- C++ -*----------------------------------*\
| =========                 |                                                 |
| \\      /  F ield         | OpenFOAM: The Open Source CFD Toolbox           |
|  \\    /   O peration     | Version:  2.4.0                                 |
|   \\  /    A nd           | Web:      www.OpenFOAM.org                      |
|    \\/     M anipulation  |                                                 |
\*---------------------------------------------------------------------------*/
FoamFile
{
    version     2.0;
    format      ascii;
    class       surfaceScalarField;
    location    "0.106";
    object      phi;
}
// * * * * * * * * * * * * * * * * * * * * * * * * * * * * * * * * * * * * * //

dimensions      [0 3 -1 0 0 0 0];

internalField   nonuniform List<scalar> 
34880
(
5.48821e-06
7.01179e-06
3.1263e-06
2.36191e-06
2.47333e-06
6.52965e-07
2.21697e-06
2.56359e-07
2.0753e-06
1.41677e-07
1.97072e-06
1.04571e-07
1.88657e-06
8.41511e-08
1.81875e-06
6.78211e-08
1.7838e-06
3.4948e-08
1.72761e-06
5.61933e-08
1.72223e-06
5.3845e-09
1.68909e-06
3.31378e-08
1.65806e-06
3.10257e-08
1.67761e-06
-1.9549e-08
1.66633e-06
1.12852e-08
1.63627e-06
3.00606e-08
1.72672e-06
-9.04487e-08
1.77011e-06
-4.3393e-08
1.86172e-06
-9.161e-08
2.41518e-07
1.6202e-06
1.01112e-05
9.4006e-06
7.83377e-06
4.63933e-06
6.7113e-06
1.77543e-06
6.06125e-06
9.06414e-07
5.64672e-06
5.56205e-07
5.35352e-06
3.97765e-07
5.12122e-06
3.16451e-07
4.94692e-06
2.42126e-07
4.81562e-06
1.66246e-07
4.69532e-06
1.765e-07
4.63546e-06
6.5245e-08
4.54634e-06
1.22255e-07
4.49405e-06
8.33201e-08
4.47613e-06
-1.63467e-09
4.44071e-06
4.67094e-08
4.41832e-06
5.24502e-08
4.53959e-06
-2.11727e-07
4.5858e-06
-8.95972e-08
4.81875e-06
-3.24561e-07
9.90947e-07
4.06932e-06
1.24251e-05
9.47547e-06
1.10094e-05
6.05502e-06
9.98236e-06
2.80251e-06
9.20022e-06
1.68856e-06
8.62014e-06
1.13628e-06
8.1958e-06
8.22107e-07
7.85334e-06
6.58913e-07
7.6019e-06
4.93565e-07
7.38651e-06
3.81633e-07
7.22259e-06
3.40427e-07
7.10681e-06
1.8102e-07
6.97304e-06
2.56024e-07
6.90651e-06
1.49851e-07
6.84035e-06
6.45256e-08
6.78315e-06
1.03912e-07
6.76969e-06
6.59081e-08
6.86898e-06
-3.11021e-07
6.91041e-06
-1.31028e-07
7.15291e-06
-5.67061e-07
1.32767e-06
6.81619e-06
1.34105e-05
8.56501e-06
1.28953e-05
6.57016e-06
1.23295e-05
3.36831e-06
1.17146e-05
2.30353e-06
1.11342e-05
1.71666e-06
1.06672e-05
1.28909e-06
1.02652e-05
1.06092e-06
9.973e-06
7.85758e-07
9.69697e-06
6.57664e-07
9.50218e-06
5.3521e-07
9.35032e-06
3.32885e-07
9.16917e-06
4.37167e-07
9.10129e-06
2.17735e-07
8.99339e-06
1.72424e-07
8.90439e-06
1.92914e-07
8.89953e-06
7.0773e-08
8.9761e-06
-3.87597e-07
8.97682e-06
-1.3175e-07
9.17472e-06
-7.64964e-07
1.08763e-06
9.41477e-06
1.35864e-05
7.47859e-06
1.36663e-05
6.49031e-06
1.36294e-05
3.4052e-06
1.34004e-05
2.53256e-06
1.30168e-05
2.10017e-06
1.26387e-05
1.66725e-06
1.22577e-05
1.44194e-06
1.19842e-05
1.05923e-06
1.16905e-05
9.51351e-07
1.14841e-05
7.41638e-07
1.13325e-05
4.84476e-07
1.11071e-05
6.62542e-07
1.10518e-05
2.73075e-07
1.09238e-05
3.0043e-07
1.07974e-05
3.19285e-07
1.07966e-05
7.15337e-08
1.08716e-05
-4.62553e-07
1.08264e-05
-8.65979e-08
1.09065e-05
-8.45076e-07
4.23385e-07
1.15708e-05
1.34748e-05
6.50383e-06
1.37567e-05
6.20836e-06
1.40068e-05
3.15508e-06
1.41453e-05
2.39413e-06
1.40766e-05
2.16882e-06
1.39213e-05
1.82252e-06
1.36697e-05
1.69355e-06
1.34989e-05
1.23008e-06
1.32587e-05
1.19159e-06
1.30705e-05
9.29839e-07
1.29729e-05
5.81984e-07
1.27217e-05
9.13758e-07
1.26917e-05
3.03145e-07
1.25788e-05
4.1331e-07
1.24219e-05
4.76208e-07
1.24174e-05
7.59729e-08
1.25108e-05
-5.55903e-07
1.24352e-05
-1.10686e-08
1.24836e-05
-8.93414e-07
-5.23952e-07
1.34309e-05
1.33509e-05
5.6529e-06
1.36871e-05
5.87219e-06
1.39446e-05
2.89755e-06
1.42264e-05
2.11236e-06
1.43728e-05
2.02246e-06
1.444e-05
1.7553e-06
1.43687e-05
1.76487e-06
1.436e-05
1.23875e-06
1.4262e-05
1.28954e-06
1.41342e-05
1.05771e-06
1.4157e-05
5.59109e-07
1.39221e-05
1.14866e-06
1.39315e-05
2.93783e-07
1.38794e-05
4.65451e-07
1.37156e-05
6.39988e-07
1.37068e-05
8.47192e-08
1.38381e-05
-6.87204e-07
1.37244e-05
1.02659e-07
1.38119e-05
-9.80907e-07
-6.0075e-07
1.38887e-05
1.32597e-05
4.89316e-06
1.36805e-05
5.45141e-06
1.38156e-05
2.76244e-06
1.41066e-05
1.8214e-06
1.43037e-05
1.82537e-06
1.44698e-05
1.5892e-06
1.45038e-05
1.73083e-06
1.45965e-05
1.14602e-06
1.46575e-05
1.22858e-06
1.45931e-05
1.12207e-06
1.47715e-05
3.80721e-07
1.46084e-05
1.31179e-06
1.46694e-05
2.32748e-07
1.47225e-05
4.1239e-07
1.45916e-05
7.70845e-07
1.45988e-05
7.75679e-08
1.47682e-05
-8.56602e-07
1.46794e-05
1.91414e-07
1.47159e-05
-1.01742e-06
-4.19718e-07
1.45349e-05
1.31868e-05
4.20636e-06
1.36412e-05
4.99704e-06
1.37243e-05
2.67931e-06
1.39879e-05
1.55776e-06
1.41876e-05
1.62565e-06
1.43644e-05
1.41243e-06
1.44425e-05
1.65278e-06
1.45391e-05
1.04938e-06
1.46719e-05
1.09575e-06
1.46302e-05
1.16383e-06
1.48958e-05
1.15133e-07
1.48119e-05
1.39566e-06
1.49137e-05
1.3097e-07
1.50665e-05
2.59528e-07
1.49911e-05
8.46327e-07
1.50428e-05
2.57806e-08
1.52137e-05
-1.02741e-06
1.52629e-05
1.42178e-07
1.53033e-05
-1.05782e-06
-1.45126e-06
1.63348e-05
1.31075e-05
3.59885e-06
1.35978e-05
4.50674e-06
1.36958e-05
2.58136e-06
1.38913e-05
1.36219e-06
1.41137e-05
1.40326e-06
1.42443e-05
1.28188e-06
1.43733e-05
1.52376e-06
1.44794e-05
9.43308e-07
1.45601e-05
1.015e-06
1.45734e-05
1.1506e-06
1.48052e-05
-1.1672e-07
1.47617e-05
1.43915e-06
1.49046e-05
-1.19469e-08
1.50818e-05
8.23654e-08
1.5042e-05
8.86089e-07
1.51436e-05
-7.57769e-08
1.52766e-05
-1.16046e-06
1.54549e-05
-3.60344e-08
1.55485e-05
-1.15147e-06
-2.24452e-06
1.63418e-05
1.30235e-05
3.07538e-06
1.35348e-05
3.99541e-06
1.36741e-05
2.44201e-06
1.38128e-05
1.22353e-06
1.40889e-05
1.12711e-06
1.41215e-05
1.24933e-06
1.43069e-05
1.33833e-06
1.44612e-05
7.89078e-07
1.44518e-05
1.02435e-06
1.45693e-05
1.03309e-06
1.46753e-05
-2.22667e-07
1.46697e-05
1.4447e-06
1.48563e-05
-1.98485e-07
1.49636e-05
-2.49188e-08
1.49657e-05
8.83946e-07
1.51384e-05
-2.48526e-07
1.51911e-05
-1.21315e-06
1.54001e-05
-2.45046e-07
1.56268e-05
-1.37811e-06
-2.85616e-06
1.62384e-05
1.29446e-05
2.63077e-06
1.34548e-05
3.48526e-06
1.36218e-05
2.27492e-06
1.37821e-05
1.0633e-06
1.40513e-05
8.57921e-07
1.40209e-05
1.27968e-06
1.4268e-05
1.09127e-06
1.43959e-05
6.61185e-07
1.44074e-05
1.0128e-06
1.45832e-05
8.57338e-07
1.45654e-05
-2.04871e-07
1.46279e-05
1.38221e-06
1.47875e-05
-3.58116e-07
1.48174e-05
-5.48048e-08
1.4895e-05
8.06369e-07
1.51177e-05
-4.71248e-07
1.50864e-05
-1.1819e-06
1.52841e-05
-4.42764e-07
1.56305e-05
-1.72443e-06
-3.36969e-06
1.6144e-05
1.28858e-05
2.24498e-06
1.33838e-05
2.98727e-06
1.36042e-05
2.05446e-06
1.37796e-05
8.87993e-07
1.39558e-05
6.81661e-07
1.39834e-05
1.25206e-06
1.42434e-05
8.31266e-07
1.42755e-05
6.2914e-07
1.44182e-05
8.70102e-07
1.45562e-05
7.1934e-07
1.44755e-05
-1.24159e-07
1.46597e-05
1.19797e-06
1.46797e-05
-3.78118e-07
1.47154e-05
-9.04682e-08
1.48931e-05
6.28668e-07
1.50367e-05
-6.14902e-07
1.49805e-05
-1.1257e-06
1.52319e-05
-6.94091e-07
1.55714e-05
-2.06392e-06
-3.65019e-06
1.58518e-05
1.28614e-05
1.8836e-06
1.33461e-05
2.50258e-06
1.36179e-05
1.78264e-06
1.37417e-05
7.64182e-07
1.3861e-05
5.62345e-07
1.39988e-05
1.11429e-06
1.41731e-05
6.56919e-07
1.4205e-05
5.97224e-07
1.44225e-05
6.52646e-07
1.44598e-05
6.82069e-07
1.44457e-05
-1.10123e-07
1.46885e-05
9.55182e-07
1.45676e-05
-2.57224e-07
1.47043e-05
-2.27112e-07
1.4894e-05
4.38985e-07
1.49189e-05
-6.39867e-07
1.4934e-05
-1.14075e-06
1.52232e-05
-9.83337e-07
1.54812e-05
-2.32186e-06
-3.82545e-06
1.56564e-05
1.2858e-05
1.52562e-06
1.33054e-05
2.05519e-06
1.35866e-05
1.50142e-06
1.36909e-05
6.59844e-07
1.38248e-05
4.28455e-07
1.40033e-05
9.35815e-07
1.40777e-05
5.82496e-07
1.42108e-05
4.64152e-07
1.43705e-05
4.92923e-07
1.43715e-05
6.81071e-07
1.44789e-05
-2.17538e-07
1.46383e-05
7.95843e-07
1.45282e-05
-1.47114e-07
1.47341e-05
-4.33045e-07
1.48342e-05
3.38888e-07
1.48461e-05
-6.51787e-07
1.49536e-05
-1.24825e-06
1.52051e-05
-1.23489e-06
1.53783e-05
-2.495e-06
-4.06833e-06
1.56212e-05
1.28343e-05
1.19131e-06
1.32496e-05
1.63992e-06
1.356e-05
1.19099e-06
1.36772e-05
5.42673e-07
1.38118e-05
2.93862e-07
1.39509e-05
7.96714e-07
1.40349e-05
4.98446e-07
1.4223e-05
2.76084e-07
1.42859e-05
4.30008e-07
1.43657e-05
6.01252e-07
1.44862e-05
-3.38039e-07
1.45476e-05
7.34513e-07
1.45503e-05
-1.49845e-07
1.47278e-05
-6.10512e-07
1.47496e-05
3.17019e-07
1.48285e-05
-7.30678e-07
1.49684e-05
-1.38808e-06
1.51434e-05
-1.40992e-06
1.52865e-05
-2.63807e-06
-4.31555e-06
1.55337e-05
1.27934e-05
8.97885e-07
1.32257e-05
1.20761e-06
1.35503e-05
8.66393e-07
1.36691e-05
4.23939e-07
1.37722e-05
1.90758e-07
1.38918e-05
6.7704e-07
1.40634e-05
3.26909e-07
1.4186e-05
1.53452e-07
1.42321e-05
3.83904e-07
1.44011e-05
4.32306e-07
1.44098e-05
-3.46736e-07
1.45002e-05
6.44084e-07
1.45824e-05
-2.32058e-07
1.4668e-05
-6.96097e-07
1.46945e-05
2.90516e-07
1.48346e-05
-8.70752e-07
1.49351e-05
-1.48859e-06
1.50528e-05
-1.52771e-06
1.52281e-05
-2.81328e-06
-4.41165e-06
1.53242e-05
1.27748e-05
6.2311e-07
1.32197e-05
7.62712e-07
1.35242e-05
5.61835e-07
1.365e-05
2.98124e-07
1.37339e-05
1.06943e-07
1.38927e-05
5.18218e-07
1.40787e-05
1.40912e-07
1.41111e-05
1.21032e-07
1.42344e-05
2.60639e-07
1.43988e-05
2.67844e-07
1.43238e-05
-2.71723e-07
1.4521e-05
4.46902e-07
1.45854e-05
-2.9648e-07
1.4586e-05
-6.9665e-07
1.46855e-05
1.91007e-07
1.48281e-05
-1.01342e-06
1.48702e-05
-1.53067e-06
1.50046e-05
-1.6621e-06
1.51815e-05
-2.99021e-06
-4.53536e-06
1.53053e-05
1.27692e-05
3.53893e-07
1.31974e-05
3.34543e-07
1.35037e-05
2.5557e-07
1.36519e-05
1.4989e-07
1.37258e-05
3.30183e-08
1.3917e-05
3.27067e-07
1.40279e-05
2.99865e-08
1.40756e-05
7.33005e-08
1.42706e-05
6.56795e-08
1.43481e-05
1.90294e-07
1.43221e-05
-2.45716e-07
1.45395e-05
2.29528e-07
1.45485e-05
-3.05442e-07
1.45446e-05
-6.92778e-07
1.47066e-05
2.89965e-08
1.48017e-05
-1.1085e-06
1.48358e-05
-1.56481e-06
1.49935e-05
-1.81976e-06
1.51283e-05
-3.12503e-06
-4.78897e-06
1.53819e-05
1.27543e-05
9.95932e-08
1.31898e-05
-1.00908e-07
1.35165e-05
-7.11806e-08
1.36562e-05
1.02024e-08
1.37261e-05
-3.68968e-08
1.39116e-05
1.41577e-07
1.3974e-05
-3.24379e-08
1.41138e-05
-6.64372e-08
1.42844e-05
-1.04952e-07
1.43022e-05
1.72464e-07
1.43494e-05
-2.92894e-07
1.45313e-05
4.76373e-08
1.45056e-05
-2.79758e-07
1.45699e-05
-7.57032e-07
1.47147e-05
-1.15886e-07
1.47808e-05
-1.17451e-06
1.48348e-05
-1.61883e-06
1.49564e-05
-1.94142e-06
1.50827e-05
-3.25135e-06
-5.21993e-06
1.55137e-05
1.27481e-05
-1.48481e-07
1.32158e-05
-5.68639e-07
1.35227e-05
-3.78113e-07
1.36388e-05
-1.05876e-07
1.37344e-05
-1.3251e-07
1.38857e-05
-9.69079e-09
1.39757e-05
-1.22466e-07
1.41608e-05
-2.51516e-07
1.4253e-05
-1.97106e-07
1.4287e-05
1.38457e-07
1.43723e-05
-3.78218e-07
1.45152e-05
-9.52519e-08
1.45057e-05
-2.70292e-07
1.4586e-05
-8.37359e-07
1.47287e-05
-2.58583e-07
1.47536e-05
-1.19935e-06
1.48286e-05
-1.69387e-06
1.49289e-05
-2.04172e-06
1.50642e-05
-3.38665e-06
-5.6803e-06
1.55246e-05
1.27681e-05
-4.16589e-07
1.32421e-05
-1.0426e-06
1.34992e-05
-6.35232e-07
1.36312e-05
-2.3789e-07
1.37529e-05
-2.5422e-07
1.38649e-05
-1.21674e-07
1.40106e-05
-2.68149e-07
1.41687e-05
-4.09652e-07
1.42199e-05
-2.48243e-07
1.43053e-05
5.29672e-08
1.44068e-05
-4.79708e-07
1.44948e-05
-1.83247e-07
1.45261e-05
-3.01572e-07
1.45844e-05
-8.95602e-07
1.47285e-05
-4.02753e-07
1.4734e-05
-1.20486e-06
1.4829e-05
-1.78887e-06
1.49413e-05
-2.15399e-06
1.49627e-05
-3.40801e-06
-4.53489e-06
1.38173e-05
1.27973e-05
-7.13885e-07
1.32398e-05
-1.48512e-06
1.34799e-05
-8.75361e-07
1.36591e-05
-4.17082e-07
1.37603e-05
-3.55386e-07
1.38721e-05
-2.33486e-07
1.40463e-05
-4.42328e-07
1.41617e-05
-5.25065e-07
1.42169e-05
-3.03446e-07
1.43486e-05
-7.86846e-08
1.44101e-05
-5.41294e-07
1.44942e-05
-2.67305e-07
1.45324e-05
-3.39805e-07
1.46124e-05
-9.75525e-07
1.47056e-05
-4.95992e-07
1.47635e-05
-1.2628e-06
1.48335e-05
-1.85884e-06
1.49411e-05
-2.26156e-06
1.50081e-05
-3.47501e-06
-4.88801e-06
1.53612e-05
1.28145e-05
-1.02842e-06
1.32268e-05
-1.89741e-06
1.35015e-05
-1.15e-06
1.36984e-05
-6.14003e-07
1.37568e-05
-4.1377e-07
1.39066e-05
-3.83322e-07
1.40823e-05
-6.18007e-07
1.41519e-05
-5.94662e-07
1.42456e-05
-3.97178e-07
1.43762e-05
-2.09296e-07
1.44089e-05
-5.74003e-07
1.4502e-05
-3.60365e-07
1.45683e-05
-4.06124e-07
1.46285e-05
-1.03573e-06
1.47155e-05
-5.83012e-07
1.47801e-05
-1.32735e-06
1.48327e-05
-1.91149e-06
1.49419e-05
-2.37075e-06
1.50225e-05
-3.55558e-06
-5.18852e-06
1.5323e-05
1.28179e-05
-1.34628e-06
1.32456e-05
-2.32515e-06
1.35644e-05
-1.46877e-06
1.37085e-05
-7.58127e-07
1.37628e-05
-4.68112e-07
1.39596e-05
-5.80034e-07
1.40984e-05
-7.56849e-07
1.4157e-05
-6.53213e-07
1.42832e-05
-5.23466e-07
1.43906e-05
-3.16624e-07
1.44241e-05
-6.07499e-07
1.45369e-05
-4.7321e-07
1.46028e-05
-4.71975e-07
1.46436e-05
-1.07657e-06
1.47341e-05
-6.73502e-07
1.47956e-05
-1.38886e-06
1.48485e-05
-1.96444e-06
1.496e-05
-2.48226e-06
1.50381e-05
-3.63362e-06
-5.37264e-06
1.52222e-05
1.28362e-05
-1.6825e-06
1.33102e-05
-2.79917e-06
1.36069e-05
-1.76548e-06
1.36928e-05
-8.43972e-07
1.3801e-05
-5.76289e-07
1.40044e-05
-7.83439e-07
1.4109e-05
-8.61467e-07
1.41881e-05
-7.32356e-07
1.43172e-05
-6.52544e-07
1.44174e-05
-4.1682e-07
1.44601e-05
-6.50225e-07
1.45776e-05
-5.90679e-07
1.46255e-05
-5.19882e-07
1.46741e-05
-1.12519e-06
1.47508e-05
-7.502e-07
1.48266e-05
-1.46467e-06
1.48786e-05
-2.01635e-06
1.49787e-05
-2.58241e-06
1.50516e-05
-3.70649e-06
-5.46893e-06
1.51479e-05
1.28828e-05
-2.06532e-06
1.33721e-05
-3.28849e-06
1.36045e-05
-1.99787e-06
1.37046e-05
-9.44064e-07
1.38616e-05
-7.33221e-07
1.40368e-05
-9.58639e-07
1.41404e-05
-9.65086e-07
1.42319e-05
-8.2386e-07
1.43584e-05
-7.79071e-07
1.44572e-05
-5.15587e-07
1.45037e-05
-6.96787e-07
1.46123e-05
-6.99267e-07
1.46609e-05
-5.68503e-07
1.47106e-05
-1.17484e-06
1.4785e-05
-8.24567e-07
1.48629e-05
-1.54264e-06
1.49049e-05
-2.05836e-06
1.50023e-05
-2.67981e-06
1.50887e-05
-3.79287e-06
-5.53981e-06
1.51596e-05
1.29374e-05
-2.5027e-06
1.34067e-05
-3.75777e-06
1.35792e-05
-2.17042e-06
1.37566e-05
-1.12148e-06
1.39179e-05
-8.945e-07
1.40751e-05
-1.11583e-06
1.41892e-05
-1.07922e-06
1.42795e-05
-9.14084e-07
1.44063e-05
-9.05946e-07
1.45009e-05
-6.10149e-07
1.45506e-05
-7.46513e-07
1.46559e-05
-8.04582e-07
1.47098e-05
-6.22374e-07
1.47545e-05
-1.2195e-06
1.48228e-05
-8.92941e-07
1.49026e-05
-1.6224e-06
1.49344e-05
-2.09018e-06
1.50409e-05
-2.78624e-06
1.51246e-05
-3.87665e-06
-5.60832e-06
1.51931e-05
1.29881e-05
-2.99078e-06
1.34515e-05
-4.22117e-06
1.3605e-05
-2.32393e-06
1.38074e-05
-1.32388e-06
1.39679e-05
-1.05503e-06
1.41229e-05
-1.27085e-06
1.42423e-05
-1.19858e-06
1.43273e-05
-9.99106e-07
1.44597e-05
-1.03831e-06
1.45509e-05
-7.01365e-07
1.46079e-05
-8.03556e-07
1.47082e-05
-9.04852e-07
1.4765e-05
-6.79207e-07
1.47946e-05
-1.24908e-06
1.48725e-05
-9.70865e-07
1.49466e-05
-1.69648e-06
1.49699e-05
-2.11346e-06
1.50837e-05
-2.90002e-06
1.51387e-05
-3.93166e-06
-5.69688e-06
1.52273e-05
1.30501e-05
-3.54085e-06
1.35207e-05
-4.69177e-06
1.36527e-05
-2.45593e-06
1.38435e-05
-1.51466e-06
1.40217e-05
-1.2333e-06
1.41768e-05
-1.4259e-06
1.43013e-05
-1.32312e-06
1.43864e-05
-1.08422e-06
1.45231e-05
-1.17495e-06
1.46083e-05
-7.86608e-07
1.46714e-05
-8.6667e-07
1.47588e-05
-9.92173e-07
1.48195e-05
-7.39969e-07
1.48451e-05
-1.27464e-06
1.49364e-05
-1.06222e-06
1.49913e-05
-1.75131e-06
1.50137e-05
-2.13589e-06
1.50921e-05
-2.97841e-06
1.51087e-05
-3.94831e-06
-5.8147e-06
1.52265e-05
1.31253e-05
-4.16619e-06
1.35866e-05
-5.15303e-06
1.36899e-05
-2.55921e-06
1.38831e-05
-1.70793e-06
1.4089e-05
-1.4392e-06
1.4251e-05
-1.58783e-06
1.43742e-05
-1.44634e-06
1.4467e-05
-1.17704e-06
1.45915e-05
-1.29941e-06
1.46671e-05
-8.62244e-07
1.47356e-05
-9.35202e-07
1.48108e-05
-1.0673e-06
1.48805e-05
-8.09692e-07
1.49018e-05
-1.29596e-06
1.49891e-05
-1.14946e-06
1.50061e-05
-1.76838e-06
1.5001e-05
-2.13081e-06
1.49861e-05
-2.96348e-06
1.49221e-05
-3.88433e-06
-5.84132e-06
1.49488e-05
1.3204e-05
-4.87017e-06
1.36364e-05
-5.58542e-06
1.37314e-05
-2.65428e-06
1.39491e-05
-1.92561e-06
1.41904e-05
-1.68044e-06
1.43491e-05
-1.74659e-06
1.446e-05
-1.55725e-06
1.45608e-05
-1.27777e-06
1.46499e-05
-1.38852e-06
1.47207e-05
-9.33098e-07
1.47844e-05
-9.98835e-07
1.48301e-05
-1.11308e-06
1.48828e-05
-8.62363e-07
1.48664e-05
-1.27952e-06
1.49029e-05
-1.18599e-06
1.48383e-05
-1.70374e-06
1.47526e-05
-2.04513e-06
1.45967e-05
-2.80764e-06
1.43664e-05
-3.65403e-06
-5.6831e-06
1.42082e-05
1.32821e-05
-5.65226e-06
1.36707e-05
-5.97398e-06
1.38066e-05
-2.79022e-06
1.40639e-05
-2.18294e-06
1.432e-05
-1.93652e-06
1.44454e-05
-1.87195e-06
1.45273e-05
-1.63923e-06
1.46042e-05
-1.3546e-06
1.46198e-05
-1.4041e-06
1.46526e-05
-9.65897e-07
1.46527e-05
-9.98948e-07
1.46147e-05
-1.07514e-06
1.45967e-05
-8.44308e-07
1.4497e-05
-1.17985e-06
1.44321e-05
-1.12109e-06
1.42688e-05
-1.54047e-06
1.4078e-05
-1.85432e-06
1.37839e-05
-2.51353e-06
1.33711e-05
-3.24121e-06
-4.5627e-06
1.22507e-05
1.33659e-05
-6.51818e-06
1.36659e-05
-6.27399e-06
1.39335e-05
-3.05782e-06
1.41978e-05
-2.44719e-06
1.43871e-05
-2.12586e-06
1.44142e-05
-1.899e-06
1.43895e-05
-1.61455e-06
1.43505e-05
-1.31557e-06
1.42316e-05
-1.2852e-06
1.4159e-05
-8.93344e-07
1.40466e-05
-8.86491e-07
1.39065e-05
-9.35116e-07
1.38033e-05
-7.41031e-07
1.3626e-05
-1.00264e-06
1.34744e-05
-9.69494e-07
1.32438e-05
-1.30983e-06
1.29727e-05
-1.58325e-06
1.25913e-05
-2.13207e-06
1.21094e-05
-2.75932e-06
-4.10013e-06
1.16468e-05
1.34785e-05
-7.49672e-06
1.37313e-05
-6.52674e-06
1.40057e-05
-3.33221e-06
1.41282e-05
-2.56969e-06
1.40851e-05
-2.08274e-06
1.39007e-05
-1.71469e-06
1.36844e-05
-1.39819e-06
1.34804e-05
-1.1116e-06
1.32336e-05
-1.03835e-06
1.30646e-05
-7.24347e-07
1.28736e-05
-6.95541e-07
1.26758e-05
-7.37319e-07
1.25233e-05
-5.88488e-07
1.23078e-05
-7.87211e-07
1.21117e-05
-7.73321e-07
1.18461e-05
-1.04422e-06
1.15308e-05
-1.26798e-06
1.11048e-05
-1.70609e-06
1.05542e-05
-2.20874e-06
-3.15666e-06
9.61074e-06
1.35844e-05
-8.58112e-06
1.36458e-05
-6.58813e-06
1.36331e-05
-3.31952e-06
1.33901e-05
-2.32671e-06
1.3021e-05
-1.7136e-06
1.26229e-05
-1.31661e-06
1.22652e-05
-1.04044e-06
1.19638e-05
-8.10203e-07
1.16649e-05
-7.39457e-07
1.14582e-05
-5.17641e-07
1.12433e-05
-4.80683e-07
1.10334e-05
-5.2741e-07
1.08656e-05
-4.20688e-07
1.06426e-05
-5.6425e-07
1.04323e-05
-5.63012e-07
1.01562e-05
-7.68067e-07
9.82596e-06
-9.37766e-07
9.38142e-06
-1.26154e-06
8.81409e-06
-1.64141e-06
-2.33149e-06
7.98892e-06
1.34053e-05
-9.48646e-06
1.28805e-05
-6.06328e-06
1.23344e-05
-2.77339e-06
1.17089e-05
-1.70127e-06
1.1135e-05
-1.13967e-06
1.06547e-05
-8.36316e-07
1.02668e-05
-6.52541e-07
9.95485e-06
-4.98265e-07
9.66822e-06
-4.52821e-07
9.46799e-06
-3.17414e-07
9.26897e-06
-2.8166e-07
9.07519e-06
-3.33632e-07
8.91552e-06
-2.61014e-07
8.70789e-06
-3.56624e-07
8.50579e-06
-3.60908e-07
8.24032e-06
-5.02598e-07
7.91836e-06
-6.15807e-07
7.48806e-06
-8.31248e-07
6.93056e-06
-1.08391e-06
-1.60563e-06
6.2047e-06
1.24194e-05
-9.40588e-06
1.09995e-05
-4.64335e-06
9.98699e-06
-1.76089e-06
9.19764e-06
-9.11921e-07
8.61873e-06
-5.60761e-07
8.18581e-06
-4.03389e-07
7.85085e-06
-3.17582e-07
7.58855e-06
-2.35971e-07
7.35399e-06
-2.18257e-07
7.18933e-06
-1.52752e-07
7.03295e-06
-1.25278e-07
6.87166e-06
-1.72344e-07
6.73803e-06
-1.27382e-07
6.56351e-06
-1.82107e-07
6.38801e-06
-1.85411e-07
6.15282e-06
-2.67404e-07
5.86475e-06
-3.27738e-07
5.47922e-06
-4.45716e-07
4.97266e-06
-5.7735e-07
-9.41254e-07
4.30829e-06
1.01072e-05
-7.0131e-06
7.82737e-06
-2.36349e-06
6.7149e-06
-6.48416e-07
6.06047e-06
-2.57493e-07
5.64421e-06
-1.44507e-07
5.34627e-06
-1.05446e-07
5.11562e-06
-8.69284e-08
4.94029e-06
-6.06445e-08
4.78189e-06
-5.9851e-08
4.67142e-06
-4.22868e-08
4.57377e-06
-2.7627e-08
4.45594e-06
-5.4517e-08
4.36413e-06
-3.55713e-08
4.23738e-06
-5.53544e-08
4.10804e-06
-5.60751e-08
3.92673e-06
-8.60923e-08
3.70482e-06
-1.05827e-07
3.40351e-06
-1.44409e-07
3.01089e-06
-1.84726e-07
-3.76593e-07
2.44623e-06
5.4869e-06
3.1234e-06
2.47499e-06
2.21749e-06
2.07298e-06
1.96754e-06
1.88061e-06
1.81997e-06
1.76011e-06
1.71783e-06
1.6902e-06
1.63568e-06
1.60011e-06
1.54476e-06
1.48868e-06
1.40259e-06
1.29676e-06
1.15236e-06
9.67629e-07
5.91036e-07
2.97854e-06
2.96172e-06
-4.32006e-06
5.41615e-06
4.74119e-06
-7.1788e-06
7.02882e-06
3.38414e-06
-4.99681e-06
8.25786e-06
7.58523e-07
-1.98756e-06
8.92611e-06
-1.56003e-06
8.91777e-07
9.55572e-06
-5.40553e-06
4.77592e-06
1.05838e-05
-8.41008e-06
7.38197e-06
1.11837e-05
-1.02568e-05
9.65692e-06
1.17698e-05
-1.24648e-05
1.18787e-05
1.2114e-05
-1.30153e-05
1.2671e-05
1.18188e-05
-1.52729e-05
1.55681e-05
1.13668e-05
-1.66888e-05
1.71408e-05
1.04402e-05
-1.55301e-05
1.64567e-05
9.42589e-06
-1.57347e-05
1.67489e-05
8.59283e-06
-1.30222e-05
1.38553e-05
7.69191e-06
-1.06477e-05
1.15486e-05
7.52241e-06
-1.16043e-05
1.17738e-05
7.48464e-06
-5.32002e-06
5.35779e-06
6.93766e-06
3.3816e-07
2.08818e-07
6.88715e-06
-2.73768e-06
2.78819e-06
7.35899e-06
-4.90114e-06
4.4293e-06
8.1127e-06
5.05938e-06
-5.81309e-06
8.9168e-06
1.53175e-05
-1.61216e-05
9.7109e-06
1.97771e-05
-2.05712e-05
1.0344e-05
1.8143e-05
-1.87761e-05
1.04487e-05
1.62531e-05
-1.63578e-05
1.06197e-05
1.50732e-05
-1.52441e-05
1.11007e-05
1.15364e-05
-1.20174e-05
1.14391e-05
9.10247e-06
-9.44088e-06
1.15719e-05
7.25917e-06
-7.392e-06
1.14909e-05
3.29884e-06
-3.21785e-06
1.1223e-05
7.35018e-07
-4.67095e-07
1.11413e-05
1.0566e-06
-9.74915e-07
1.17522e-05
1.43531e-06
-2.04624e-06
1.30287e-05
-1.22003e-06
-5.64476e-08
1.41327e-05
-6.01138e-06
4.90744e-06
1.46384e-05
-9.15238e-06
8.64666e-06
1.4963e-05
-1.05615e-05
1.0237e-05
1.54736e-05
-1.17103e-05
1.11997e-05
1.62374e-05
-1.45646e-05
1.38007e-05
1.67389e-05
-1.85254e-05
1.80239e-05
1.67554e-05
-2.12023e-05
2.11859e-05
1.63989e-05
-2.25604e-05
2.29169e-05
1.57917e-05
-2.31851e-05
2.37923e-05
1.51009e-05
-2.25923e-05
2.32831e-05
1.45171e-05
-2.18159e-05
2.23997e-05
1.40468e-05
-2.11955e-05
2.16658e-05
1.35783e-05
-1.98143e-05
2.02828e-05
1.31766e-05
-1.82815e-05
1.86831e-05
1.28846e-05
-1.76648e-05
1.79568e-05
1.24939e-05
-1.65903e-05
1.69811e-05
1.21198e-05
-1.47059e-05
1.508e-05
1.18724e-05
-1.43192e-05
1.45667e-05
1.16187e-05
-1.42348e-05
1.44885e-05
1.11932e-05
-1.39575e-05
1.4383e-05
1.07117e-05
-1.32064e-05
1.36879e-05
1.03983e-05
-1.21636e-05
1.2477e-05
1.02597e-05
-1.21561e-05
1.22947e-05
1.05142e-05
-1.21972e-05
1.19427e-05
1.12247e-05
-1.37311e-05
1.30206e-05
1.19841e-05
-1.6439e-05
1.56796e-05
1.23921e-05
-1.81159e-05
1.77078e-05
1.24659e-05
-1.71533e-05
1.70795e-05
1.24701e-05
-1.49097e-05
1.49055e-05
1.25219e-05
-1.32543e-05
1.32025e-05
1.2566e-05
-1.21603e-05
1.21162e-05
1.2644e-05
-1.10232e-05
1.09453e-05
1.27213e-05
-9.71919e-06
9.64183e-06
1.26597e-05
-7.70497e-06
7.76659e-06
1.23868e-05
-4.31691e-06
4.58983e-06
1.20624e-05
-4.97078e-07
8.21489e-07
1.17892e-05
3.28789e-06
-3.01467e-06
1.15577e-05
7.42366e-06
-7.19219e-06
1.12791e-05
1.12949e-05
-1.10164e-05
1.09062e-05
1.51465e-05
-1.47735e-05
1.05225e-05
1.96114e-05
-1.92278e-05
1.01882e-05
2.30142e-05
-2.26798e-05
9.86571e-06
2.47862e-05
-2.44637e-05
9.55313e-06
2.54113e-05
-2.50988e-05
9.31623e-06
2.49847e-05
-2.47478e-05
9.09135e-06
2.36394e-05
-2.34145e-05
8.90028e-06
2.15575e-05
-2.13665e-05
8.86299e-06
2.02742e-05
-2.02369e-05
8.87109e-06
1.95648e-05
-1.95729e-05
8.85808e-06
1.83948e-05
-1.83818e-05
8.88993e-06
1.69765e-05
-1.70083e-05
8.95398e-06
1.6257e-05
-1.63211e-05
9.01309e-06
1.59824e-05
-1.60415e-05
9.04866e-06
1.55645e-05
-1.56001e-05
9.13429e-06
1.52226e-05
-1.53082e-05
9.29058e-06
1.53722e-05
-1.55285e-05
9.53391e-06
1.5533e-05
-1.57763e-05
9.90231e-06
1.58389e-05
-1.62073e-05
1.04848e-05
1.61567e-05
-1.67392e-05
1.11982e-05
1.64601e-05
-1.71736e-05
1.18755e-05
1.61675e-05
-1.68448e-05
1.24462e-05
1.52064e-05
-1.57771e-05
1.28632e-05
1.37125e-05
-1.41295e-05
1.31372e-05
1.18685e-05
-1.21425e-05
1.32363e-05
9.65053e-06
-9.74966e-06
1.31641e-05
7.16952e-06
-7.09732e-06
1.29365e-05
4.7094e-06
-4.4818e-06
1.27668e-05
2.10907e-06
-1.93932e-06
1.2532e-05
4.59141e-07
-2.2438e-07
1.20824e-05
-7.23516e-07
1.17316e-06
1.13898e-05
-2.0826e-06
2.7752e-06
1.06895e-05
-4.52801e-06
5.2283e-06
1.02591e-05
-5.83009e-06
6.26046e-06
9.93068e-06
-5.51017e-06
5.83861e-06
9.54866e-06
-4.9161e-06
5.29812e-06
9.16308e-06
-5.84796e-06
6.23355e-06
8.95444e-06
-8.02123e-06
8.22987e-06
9.05753e-06
-9.31805e-06
9.21496e-06
9.11596e-06
-9.17634e-06
9.11791e-06
8.93569e-06
-8.48993e-06
8.6702e-06
8.48216e-06
-8.35161e-06
8.80514e-06
7.9745e-06
-8.73856e-06
9.24622e-06
7.69025e-06
-9.09772e-06
9.38197e-06
7.53987e-06
-9.16399e-06
9.31438e-06
7.52605e-06
-8.78777e-06
8.80159e-06
7.29928e-06
-9.20527e-06
9.43203e-06
7.2213e-06
-9.48789e-06
9.56587e-06
6.77628e-06
-1.1445e-05
1.189e-05
6.65059e-06
-1.2686e-05
1.28117e-05
6.17273e-06
-1.59734e-05
1.64513e-05
6.24488e-06
-1.62019e-05
1.61298e-05
6.62116e-06
-1.96552e-05
1.92789e-05
6.53973e-06
-1.78057e-05
1.78871e-05
7.11431e-06
-1.97569e-05
1.91823e-05
7.72143e-06
-2.09949e-05
2.03878e-05
8.24539e-06
-2.20213e-05
2.14973e-05
8.59995e-06
-2.25449e-05
2.21904e-05
9.07612e-06
-2.25939e-05
2.21177e-05
9.6938e-06
-2.00854e-05
1.94678e-05
1.02823e-05
-1.62696e-05
1.56812e-05
1.06681e-05
-1.34563e-05
1.30705e-05
1.10364e-05
-1.00208e-05
9.65249e-06
1.14241e-05
-4.45879e-06
4.0711e-06
1.16501e-05
7.54148e-07
-9.80179e-07
1.18523e-05
4.58055e-06
-4.78277e-06
1.2179e-05
9.43747e-06
-9.76411e-06
1.24043e-05
1.50506e-05
-1.5276e-05
1.23906e-05
1.92217e-05
-1.92079e-05
1.2283e-05
2.17733e-05
-2.16657e-05
1.22587e-05
2.38467e-05
-2.38224e-05
1.22895e-05
2.60455e-05
-2.60763e-05
1.2134e-05
2.74775e-05
-2.7322e-05
1.17164e-05
2.70706e-05
-2.6653e-05
1.14963e-05
2.5558e-05
-2.53379e-05
1.16669e-05
2.45275e-05
-2.46981e-05
1.18933e-05
2.44458e-05
-2.46722e-05
1.21247e-05
2.42164e-05
-2.44478e-05
1.25421e-05
2.29462e-05
-2.33635e-05
1.2864e-05
2.09526e-05
-2.12745e-05
1.29247e-05
1.82503e-05
-1.8311e-05
1.29636e-05
1.42699e-05
-1.43088e-05
1.29673e-05
9.63662e-06
-9.64038e-06
1.27561e-05
5.5434e-06
-5.3322e-06
1.25258e-05
1.21809e-06
-9.87745e-07
1.21401e-05
-3.07838e-06
3.46406e-06
1.17476e-05
-7.10567e-06
7.49815e-06
1.12399e-05
-9.25883e-06
9.76652e-06
1.07502e-05
-1.0918e-05
1.14077e-05
1.02573e-05
-1.23434e-05
1.28363e-05
9.93343e-06
-1.40281e-05
1.4352e-05
9.47545e-06
-1.41418e-05
1.45998e-05
9.1188e-06
-1.31768e-05
1.35335e-05
8.61505e-06
-1.09136e-05
1.14173e-05
8.26215e-06
-8.69058e-06
9.04347e-06
7.96148e-06
-6.39312e-06
6.69379e-06
7.72135e-06
-4.66832e-06
4.90845e-06
7.5849e-06
-3.20695e-06
3.3434e-06
7.42064e-06
-2.16095e-06
2.32521e-06
7.4275e-06
-1.35793e-06
1.35107e-06
7.26973e-06
-5.52318e-07
7.10092e-07
7.33125e-06
9.68776e-10
-6.24924e-08
7.19062e-06
7.45472e-07
-6.04833e-07
7.28699e-06
1.11649e-06
-1.21287e-06
7.18182e-06
1.85047e-06
-1.7453e-06
7.29652e-06
2.10893e-06
-2.22362e-06
7.23101e-06
2.74517e-06
-2.67967e-06
7.29877e-06
3.03929e-06
-3.10704e-06
7.31108e-06
3.49927e-06
-3.51158e-06
7.3222e-06
3.92876e-06
-3.93987e-06
7.41773e-06
4.25881e-06
-4.35433e-06
7.36265e-06
4.85995e-06
-4.80487e-06
7.4715e-06
5.16838e-06
-5.27724e-06
7.42016e-06
5.75318e-06
-5.70184e-06
7.4909e-06
6.2498e-06
-6.32053e-06
7.47989e-06
6.87151e-06
-6.86051e-06
7.42002e-06
7.53165e-06
-7.47177e-06
7.49228e-06
8.21281e-06
-8.28507e-06
7.24663e-06
9.26352e-06
-9.01787e-06
7.24235e-06
1.00672e-05
-1.00629e-05
7.17123e-06
1.13832e-05
-1.1312e-05
6.93964e-06
1.27853e-05
-1.25537e-05
7.19443e-06
1.43219e-05
-1.45767e-05
6.42386e-06
1.80953e-05
-1.73247e-05
6.31503e-06
2.0112e-05
-2.00031e-05
3.03866e-05
-2.99015e-05
5.82999e-06
4.97008e-06
2.06096e-06
6.80477e-06
2.9065e-06
8.07048e-06
2.11843e-06
9.46753e-06
-6.38525e-07
1.06044e-05
-2.69688e-06
1.11669e-05
-5.96808e-06
1.21402e-05
-9.3834e-06
1.25882e-05
-1.07047e-05
1.27014e-05
-1.2578e-05
1.289e-05
-1.32039e-05
1.24718e-05
-1.48547e-05
1.18477e-05
-1.60647e-05
1.08475e-05
-1.45298e-05
9.72173e-06
-1.46089e-05
8.98233e-06
-1.22828e-05
8.14098e-06
-9.80633e-06
7.62145e-06
-1.10848e-05
7.8874e-06
-5.58597e-06
7.77462e-06
4.50943e-07
7.39318e-06
-2.35624e-06
7.13226e-06
-4.64022e-06
7.82993e-06
4.36172e-06
8.81664e-06
1.43308e-05
9.80354e-06
1.87902e-05
1.04295e-05
1.7517e-05
1.0545e-05
1.61377e-05
1.09445e-05
1.46737e-05
1.14175e-05
1.10634e-05
1.17421e-05
8.77785e-06
1.20331e-05
6.9682e-06
1.2014e-05
3.31786e-06
1.16246e-05
1.1245e-06
1.15482e-05
1.13293e-06
1.24263e-05
5.57206e-07
1.38228e-05
-2.61649e-06
1.47349e-05
-6.92351e-06
1.50219e-05
-9.43935e-06
1.53244e-05
-1.0864e-05
1.59745e-05
-1.23604e-05
1.67565e-05
-1.53466e-05
1.71259e-05
-1.88947e-05
1.70075e-05
-2.10839e-05
1.65589e-05
-2.21118e-05
1.59283e-05
-2.25546e-05
1.52734e-05
-2.19375e-05
1.47155e-05
-2.12579e-05
1.42306e-05
-2.07105e-05
1.37666e-05
-1.93504e-05
1.34309e-05
-1.79458e-05
1.31336e-05
-1.73674e-05
1.26729e-05
-1.61297e-05
1.22744e-05
-1.43074e-05
1.19838e-05
-1.40286e-05
1.16348e-05
-1.38859e-05
1.11123e-05
-1.34349e-05
1.05431e-05
-1.26372e-05
1.01478e-05
-1.17684e-05
1.00397e-05
-1.2048e-05
1.0419e-05
-1.25764e-05
1.12054e-05
-1.45175e-05
1.19375e-05
-1.71711e-05
1.2222e-05
-1.84004e-05
1.21533e-05
-1.70845e-05
1.2073e-05
-1.48295e-05
1.20911e-05
-1.32725e-05
1.21308e-05
-1.21999e-05
1.21658e-05
-1.10583e-05
1.22019e-05
-9.75528e-06
1.21131e-05
-7.61618e-06
1.18227e-05
-4.02648e-06
1.14949e-05
-1.6931e-07
1.12062e-05
3.5766e-06
1.09557e-05
7.67412e-06
1.06692e-05
1.15815e-05
1.02976e-05
1.55181e-05
9.9324e-06
1.99766e-05
9.62104e-06
2.33256e-05
9.33343e-06
2.50738e-05
9.07752e-06
2.56672e-05
8.90694e-06
2.51553e-05
8.75135e-06
2.37949e-05
8.60377e-06
2.17051e-05
8.60534e-06
2.02726e-05
8.66295e-06
1.95072e-05
8.68594e-06
1.83718e-05
8.74229e-06
1.69201e-05
8.8574e-06
1.61419e-05
8.96726e-06
1.58725e-05
9.03672e-06
1.5495e-05
9.15298e-06
1.51064e-05
9.32505e-06
1.52001e-05
9.60325e-06
1.52548e-05
9.96543e-06
1.54767e-05
1.05043e-05
1.56178e-05
1.12274e-05
1.5737e-05
1.19295e-05
1.54654e-05
1.25672e-05
1.45687e-05
1.30588e-05
1.32209e-05
1.33906e-05
1.15367e-05
1.35798e-05
9.46131e-06
1.35534e-05
7.19589e-06
1.33242e-05
4.93865e-06
1.31316e-05