/*--------------------------------*- C++ -*----------------------------------*\
| =========                 |                                                 |
| \\      /  F ield         | OpenFOAM: The Open Source CFD Toolbox           |
|  \\    /   O peration     | Version:  2.4.0                                 |
|   \\  /    A nd           | Web:      www.OpenFOAM.org                      |
|    \\/     M anipulation  |                                                 |
\*---------------------------------------------------------------------------*/
FoamFile
{
    version     2.0;
    format      ascii;
    class       surfaceScalarField;
    location    "0.043";
    object      phi;
}
// * * * * * * * * * * * * * * * * * * * * * * * * * * * * * * * * * * * * * //

dimensions      [0 3 -1 0 0 0 0];

internalField   nonuniform List<scalar> 
34880
(
5.48801e-06
7.01199e-06
3.12487e-06
2.36314e-06
2.47095e-06
6.53921e-07
2.21896e-06
2.51987e-07
2.07481e-06
1.44153e-07
1.96669e-06
1.08118e-07
1.88461e-06
8.20777e-08
1.81752e-06
6.70925e-08
1.77121e-06
4.63069e-08
1.73175e-06
3.94595e-08
1.69597e-06
3.57828e-08
1.66723e-06
2.87369e-08
1.64385e-06
2.33857e-08
1.60493e-06
3.89211e-08
1.5806e-06
2.43268e-08
1.54382e-06
3.67783e-08
1.52487e-06
1.89551e-08
1.48946e-06
3.54098e-08
1.45482e-06
3.4639e-08
-3.91162e-07
1.84598e-06
1.01117e-05
9.40028e-06
7.82867e-06
4.64618e-06
6.70674e-06
1.77585e-06
6.06433e-06
8.94399e-07
5.64463e-06
5.63856e-07
5.34698e-06
4.05762e-07
5.12027e-06
3.08792e-07
4.93802e-06
2.49339e-07
4.80373e-06
1.80599e-07
4.68871e-06
1.54477e-07
4.59212e-06
1.32379e-07
4.51436e-06
1.06495e-07
4.44035e-06
9.73905e-08
4.35329e-06
1.25985e-07
4.28285e-06
9.47653e-08
4.19863e-06
1.20996e-07
4.13308e-06
8.4505e-08
4.04244e-06
1.26057e-07
3.97015e-06
1.0693e-07
-5.28489e-07
4.10747e-06
1.24277e-05
9.4726e-06
1.10015e-05
6.07235e-06
9.97575e-06
2.80161e-06
9.20347e-06
1.66669e-06
8.61659e-06
1.15073e-06
8.1874e-06
8.34952e-07
7.85519e-06
6.41007e-07
7.58561e-06
5.1892e-07
7.38136e-06
3.84851e-07
7.20529e-06
3.30546e-07
7.05812e-06
2.79544e-07
6.94091e-06
2.23703e-07
6.82467e-06
2.13637e-07
6.70474e-06
2.45908e-07
6.59671e-06
2.02802e-07
6.48209e-06
2.3561e-07
6.37686e-06
1.89737e-07
6.25375e-06
2.49165e-07
6.13982e-06
2.20867e-07
-5.84475e-07
6.1958e-06
1.34166e-05
8.55604e-06
1.28869e-05
6.60197e-06
1.23203e-05
3.36822e-06
1.17169e-05
2.2701e-06
1.11295e-05
1.7381e-06
1.06559e-05
1.30857e-06
1.02714e-05
1.02552e-06
9.94893e-06
8.41398e-07
9.69936e-06
6.34426e-07
9.48094e-06
5.48969e-07
9.29468e-06
4.65802e-07
9.14925e-06
3.69136e-07
8.99991e-06
3.62976e-07
8.85779e-06
3.8802e-07
8.72118e-06
3.39413e-07
8.58672e-06
3.70074e-07
8.45295e-06
3.2351e-07
8.30517e-06
3.96937e-07
8.18091e-06
3.45131e-07
-5.13736e-07
8.11017e-06
1.35973e-05
7.45878e-06
1.36607e-05
6.53855e-06
1.36172e-05
3.41174e-06
1.34e-05
2.48722e-06
1.30116e-05
2.12658e-06
1.26226e-05
1.69756e-06
1.22707e-05
1.37741e-06
1.19529e-05
1.15915e-06
1.16978e-05
8.89525e-07
1.14688e-05
7.78032e-07
1.12639e-05
6.70723e-07
1.11085e-05
5.2446e-07
1.0941e-05
5.30521e-07
1.07902e-05
5.38838e-07
1.0638e-05
4.91627e-07
1.04927e-05
5.15287e-07
1.03483e-05
4.67961e-07
1.01771e-05
5.68168e-07
1.00614e-05
4.60782e-07
-2.19955e-07
9.76763e-06
1.34914e-05
6.46741e-06
1.37594e-05
6.27049e-06
1.39928e-05
3.17839e-06
1.41396e-05
2.34035e-06
1.40705e-05
2.1957e-06
1.38975e-05
1.8706e-06
1.36895e-05
1.5854e-06
1.34638e-05
1.38488e-06
1.32651e-05
1.08813e-06
1.30743e-05
9.68861e-07
1.28851e-05
8.5995e-07
1.27468e-05
6.62796e-07
1.25858e-05
6.9144e-07
1.24438e-05
6.80923e-07
1.22966e-05
6.38764e-07
1.21505e-05
6.61366e-07
1.20159e-05
6.026e-07
1.1839e-05
7.45086e-07
1.1717e-05
5.82803e-07
2.71485e-07
1.12255e-05
1.33673e-05
5.60011e-06
1.37103e-05
5.92745e-06
1.39403e-05
2.94841e-06
1.42129e-05
2.06778e-06
1.43679e-05
2.04073e-06
1.44074e-05
1.83109e-06
1.43897e-05
1.60312e-06
1.4329e-05
1.4455e-06
1.42571e-05
1.16004e-06
1.41685e-05
1.05755e-06
1.40487e-05
9.79717e-07
1.39655e-05
7.46026e-07
1.3849e-05
8.07892e-07
1.3742e-05
7.87933e-07
1.36296e-05
7.51115e-07
1.34991e-05
7.91872e-07
1.33934e-05
7.08291e-07
1.324e-05
8.98573e-07
1.31438e-05
6.78929e-07
3.14437e-07
1.31009e-05
1.32613e-05
4.83883e-06
1.37081e-05
5.48065e-06
1.38392e-05
2.81731e-06
1.40959e-05
1.8111e-06
1.43103e-05
1.82626e-06
1.44397e-05
1.70169e-06
1.45233e-05
1.51954e-06
1.45867e-05
1.38206e-06
1.46338e-05
1.11302e-06
1.46652e-05
1.0261e-06
1.46501e-05
9.94821e-07
1.46524e-05
7.43717e-07
1.46224e-05
8.37893e-07
1.45853e-05
8.25005e-07
1.45469e-05
7.89577e-07
1.44619e-05
8.76853e-07
1.44067e-05
7.63455e-07
1.43145e-05
9.90826e-07
1.42543e-05
7.39131e-07
2.82255e-07
1.42865e-05
1.31695e-05
4.16936e-06
1.36368e-05
5.01331e-06
1.3763e-05
2.69116e-06
1.39954e-05
1.57865e-06
1.42028e-05
1.61893e-06
1.43513e-05
1.55313e-06
1.44551e-05
1.41575e-06
1.45573e-05
1.27984e-06
1.46543e-05
1.01602e-06
1.47468e-05
9.33583e-07
1.47965e-05
9.45209e-07
1.48471e-05
6.93074e-07
1.48881e-05
7.9685e-07
1.49249e-05
7.8823e-07
1.49723e-05
7.42215e-07
1.49645e-05
8.84615e-07
1.49741e-05
7.53869e-07
1.49777e-05
9.8724e-07
1.49821e-05
7.34764e-07
1.2717e-07
1.51371e-05
1.30992e-05
3.57019e-06
1.35621e-05
4.55037e-06
1.36906e-05
2.56264e-06
1.39125e-05
1.35677e-06
1.41145e-05
1.41698e-06
1.42619e-05
1.40566e-06
1.43669e-05
1.3108e-06
1.44768e-05
1.16987e-06
1.45936e-05
8.99299e-07
1.47022e-05
8.24966e-07
1.47749e-05
8.72456e-07
1.4823e-05
6.45028e-07
1.48737e-05
7.46112e-07
1.49362e-05
7.25773e-07
1.50245e-05
6.53861e-07
1.50819e-05
8.27286e-07
1.51382e-05
6.97551e-07
1.52235e-05
9.01909e-07
1.5296e-05
6.62241e-07
-1.13211e-07
1.55364e-05
1.304e-05
3.03016e-06
1.34953e-05
4.09505e-06
1.36294e-05
2.4286e-06
1.38473e-05
1.13882e-06
1.40424e-05
1.22186e-06
1.4183e-05
1.26514e-06
1.42924e-05
1.20133e-06
1.44045e-05
1.05783e-06
1.45206e-05
7.83119e-07
1.46318e-05
7.13803e-07
1.47165e-05
7.87807e-07
1.47667e-05
5.94821e-07
1.48109e-05
7.01844e-07
1.48762e-05
6.60457e-07
1.49582e-05
5.7195e-07
1.5042e-05
7.43405e-07
1.5113e-05
6.26576e-07
1.52382e-05
7.76746e-07
1.5353e-05
5.47448e-07
-2.68432e-07
1.55082e-05
1.29812e-05
2.549e-06
1.34425e-05
3.63367e-06
1.35964e-05
2.27474e-06
1.37922e-05
9.42988e-07
1.39745e-05
1.03962e-06
1.41175e-05
1.12212e-06
1.42318e-05
1.08704e-06
1.43427e-05
9.46923e-07
1.44536e-05
6.72175e-07
1.45585e-05
6.0899e-07
1.46471e-05
6.99212e-07
1.47042e-05
5.37628e-07
1.47607e-05
6.45355e-07
1.48246e-05
5.96584e-07
1.4894e-05
5.02593e-07
1.49817e-05
6.55658e-07
1.50575e-05
5.5082e-07
1.51955e-05
6.38722e-07
1.52979e-05
4.45043e-07
-2.78965e-07
1.53084e-05
1.29299e-05
2.11912e-06
1.33909e-05
3.17266e-06
1.35923e-05
2.07328e-06
1.37524e-05
7.82947e-07
1.39154e-05
8.76568e-07
1.40565e-05
9.81045e-07
1.41808e-05
9.62708e-07
1.42975e-05
8.3026e-07
1.43967e-05
5.7302e-07
1.44901e-05
5.15567e-07
1.4584e-05
6.05272e-07
1.46481e-05
4.73539e-07
1.47108e-05
5.82703e-07
1.47779e-05
5.29459e-07
1.48449e-05
4.35603e-07
1.49299e-05
5.70591e-07
1.50075e-05
4.73255e-07
1.51372e-05
5.09063e-07
1.52206e-05
3.6163e-07
-3.45461e-07
1.52871e-05
1.28853e-05
1.73383e-06
1.33417e-05
2.71621e-06
1.36062e-05
1.80887e-06
1.37183e-05
6.70802e-07
1.38642e-05
7.30695e-07
1.40093e-05
8.35897e-07
1.41393e-05
8.32747e-07
1.42561e-05
7.13463e-07
1.43496e-05
4.79528e-07
1.4436e-05
4.29115e-07
1.45294e-05
5.11947e-07
1.45958e-05
4.07097e-07
1.46671e-05
5.11443e-07
1.47384e-05
4.58135e-07
1.48018e-05
3.72204e-07
1.48851e-05
4.87288e-07
1.49648e-05
3.93542e-07
1.50843e-05
3.8952e-07
1.51779e-05
2.68106e-07
-4.17817e-07
1.52502e-05
1.28482e-05
1.38561e-06
1.32999e-05
2.26448e-06
1.3585e-05
1.52376e-06
1.36907e-05
5.65202e-07
1.38242e-05
5.97098e-07
1.39698e-05
6.90314e-07
1.41019e-05
7.00662e-07
1.42229e-05
5.92501e-07
1.4313e-05
3.89428e-07
1.4393e-05
3.49118e-07
1.4487e-05
4.17953e-07
1.45533e-05
3.40716e-07
1.46294e-05
4.35433e-07
1.47013e-05
3.8615e-07
1.47643e-05
3.09297e-07
1.48497e-05
4.0181e-07
1.49304e-05
3.1285e-07
1.5041e-05
2.78929e-07
1.51244e-05
1.84757e-07
-4.03303e-07
1.51098e-05
1.28182e-05
1.06745e-06
1.32658e-05
1.81688e-06
1.35625e-05
1.22702e-06
1.36689e-05
4.58809e-07
1.37911e-05
4.74899e-07
1.3937e-05
5.44456e-07
1.40716e-05
5.65965e-07
1.41952e-05
4.68963e-07
1.42838e-05
3.00833e-07
1.43607e-05
2.72175e-07
1.44529e-05
3.25802e-07
1.45181e-05
2.75503e-07
1.4598e-05
3.55561e-07
1.46704e-05
3.13741e-07
1.47349e-05
2.44753e-07
1.48198e-05
3.16873e-07
1.49019e-05
2.30782e-07
1.50008e-05
1.80066e-07
1.50758e-05
1.09694e-07
-4.42439e-07
1.5115e-05
1.27944e-05
7.73058e-07
1.32374e-05
1.37387e-06
1.3542e-05
9.22453e-07
1.36544e-05
3.46359e-07
1.37662e-05
3.63141e-07
1.39101e-05
4.00586e-07
1.40465e-05
4.29528e-07
1.41743e-05
3.41183e-07
1.42605e-05
2.14597e-07
1.43355e-05
1.97139e-07
1.44267e-05
2.34625e-07
1.44912e-05
2.11066e-07
1.45726e-05
2.74146e-07
1.46456e-05
2.40728e-07
1.47105e-05
1.79881e-07
1.47965e-05
2.30784e-07
1.48776e-05
1.49711e-07
1.49706e-05
8.70879e-08
1.50592e-05
2.1058e-08
-4.59035e-07
1.50758e-05
1.27762e-05
4.96852e-07
1.32166e-05
9.3348e-07
1.35264e-05
6.12636e-07
1.36446e-05
2.28188e-07
1.37476e-05
2.6013e-07
1.38905e-05
2.5763e-07
1.4028e-05
2.92038e-07
1.41587e-05
2.10567e-07
1.4243e-05
1.30284e-07
1.43183e-05
1.21844e-07
1.44069e-05
1.46034e-07
1.44702e-05
1.47722e-07
1.45543e-05
1.90046e-07
1.46272e-05
1.67859e-07
1.46922e-05
1.14863e-07
1.4778e-05
1.45018e-07
1.48606e-05
6.70497e-08
1.49507e-05
-3.0088e-09
1.50247e-05
-5.29696e-08
-4.22854e-07
1.49886e-05
1.27644e-05
2.32435e-07
1.32025e-05
4.95383e-07
1.35151e-05
3.00013e-07
1.36395e-05
1.03834e-07
1.37363e-05
1.63362e-07
1.38771e-05
1.16789e-07
1.40153e-05
1.53878e-07
1.41494e-05
7.64161e-08
1.42311e-05
4.85718e-08
1.43069e-05
4.60318e-08
1.43932e-05
5.97229e-08
1.44575e-05
8.346e-08
1.4542e-05
1.05576e-07
1.4614e-05
9.58263e-08
1.46801e-05
4.87638e-08
1.47661e-05
5.9039e-08
1.48484e-05
-1.53052e-08
1.49325e-05
-8.70602e-08
1.49995e-05
-1.1995e-07
-4.35733e-07
1.50124e-05
1.27587e-05
-2.62473e-08
1.31956e-05
5.84499e-08
1.35098e-05
-1.42166e-08
1.36368e-05
-2.31635e-08
1.37302e-05
7.00155e-08
1.38704e-05
-2.33885e-08
1.40093e-05
1.49355e-08
1.41456e-05
-5.98953e-08
1.42245e-05
-3.0301e-08
1.43025e-05
-3.19494e-08
1.43862e-05
-2.39674e-08
1.44509e-05
1.8682e-08
1.45354e-05
2.10699e-08
1.46076e-05
2.36767e-08
1.46741e-05
-1.7694e-08
1.47594e-05
-2.63295e-08
1.484e-05
-9.5843e-08
1.49257e-05
-1.72817e-07
1.49978e-05
-1.92023e-07
-4.23203e-07
1.49853e-05
1.27593e-05
-2.85585e-07
1.31954e-05
-3.77633e-07
1.351e-05
-3.28749e-07
1.36356e-05
-1.48782e-07
1.37301e-05
-2.45127e-08
1.38703e-05
-1.63556e-07
1.40096e-05
-1.24359e-07
1.41476e-05
-1.97888e-07
1.42233e-05
-1.06079e-07
1.43043e-05
-1.12933e-07
1.43849e-05
-1.0457e-07
1.44515e-05
-4.78512e-08
1.4535e-05
-6.24495e-08
1.46074e-05
-4.87979e-08
1.46735e-05
-8.37002e-08
1.47581e-05
-1.11021e-07
1.48387e-05
-1.76429e-07
1.49286e-05
-2.62651e-07
1.49992e-05
-2.62702e-07
-3.83444e-07
1.49595e-05
1.2766e-05
-5.51557e-07
1.32023e-05
-8.13934e-07
1.35162e-05
-6.42693e-07
1.36355e-05
-2.68106e-07
1.37353e-05
-1.24259e-07
1.38769e-05
-3.05195e-07
1.40165e-05
-2.63916e-07
1.41548e-05
-3.36205e-07
1.42281e-05
-1.79347e-07
1.43122e-05
-1.97071e-07
1.439e-05
-1.82406e-07
1.44584e-05
-1.16222e-07
1.45405e-05
-1.44534e-07
1.46135e-05
-1.21763e-07
1.46785e-05
-1.48703e-07
1.47634e-05
-1.95942e-07
1.48447e-05
-2.57726e-07
1.49341e-05
-3.52053e-07
1.50051e-05
-3.33679e-07
-2.99692e-07
1.49213e-05
1.27789e-05
-8.30422e-07
1.32163e-05
-1.25134e-06
1.35277e-05
-9.54088e-07
1.36383e-05
-3.7878e-07
1.37466e-05
-2.32546e-07
1.38903e-05
-4.48847e-07
1.40298e-05
-4.03488e-07
1.41676e-05
-4.73922e-07
1.42388e-05
-2.50547e-07
1.43259e-05
-2.84207e-07
1.44014e-05
-2.57936e-07
1.4472e-05
-1.86837e-07
1.4552e-05
-2.24509e-07
1.46258e-05
-1.95557e-07
1.46893e-05
-2.1217e-07
1.47758e-05
-2.8242e-07
1.48551e-05
-3.37065e-07
1.49381e-05
-4.3509e-07
1.50141e-05
-4.09642e-07
-3.13711e-07
1.50281e-05
1.27978e-05
-1.12821e-06
1.32375e-05
-1.69103e-06
1.35442e-05
-1.26078e-06
1.36457e-05
-4.80295e-07
1.37641e-05
-3.50997e-07
1.39102e-05
-5.94897e-07
1.40501e-05
-5.43398e-07
1.41857e-05
-6.09503e-07
1.42556e-05
-3.20442e-07
1.43456e-05
-3.74189e-07
1.44196e-05
-3.31934e-07
1.44921e-05
-2.5937e-07
1.45696e-05
-3.02026e-07
1.46448e-05
-2.7076e-07
1.47061e-05
-2.73509e-07
1.47943e-05
-3.70597e-07
1.48686e-05
-4.11357e-07
1.49529e-05
-5.19393e-07
1.50558e-05
-5.12478e-07
-4.13314e-07
1.51554e-05
1.28227e-05
-1.45092e-06
1.32662e-05
-2.13449e-06
1.35647e-05
-1.55934e-06
1.36584e-05
-5.73995e-07
1.37887e-05
-4.81282e-07
1.3937e-05
-7.43147e-07
1.4077e-05
-6.83455e-07
1.4209e-05
-7.41509e-07
1.42791e-05
-3.90524e-07
1.4371e-05
-4.66066e-07
1.44447e-05
-4.05607e-07
1.45185e-05
-3.33219e-07
1.45934e-05
-3.76899e-07
1.46706e-05
-3.47993e-07
1.47291e-05
-3.32026e-07
1.48182e-05
-4.5968e-07
1.48888e-05
-4.81983e-07
1.4986e-05
-6.16572e-07
1.50747e-05
-6.01147e-07
-4.14213e-07
1.50756e-05
1.28536e-05
-1.80451e-06
1.3302e-05
-2.58285e-06
1.35878e-05
-1.84523e-06
1.36774e-05
-6.63579e-07
1.38211e-05
-6.24979e-07
1.39708e-05
-8.9281e-07
1.41107e-05
-8.23337e-07
1.42376e-05
-8.68408e-07
1.43097e-05
-4.62689e-07
1.44027e-05
-5.59052e-07
1.44773e-05
-4.80167e-07
1.45513e-05
-4.0729e-07
1.46234e-05
-4.48927e-07
1.4703e-05
-4.27649e-07
1.47583e-05
-3.87283e-07
1.48482e-05
-5.49585e-07
1.49167e-05
-5.5047e-07
1.50206e-05
-7.20451e-07
1.50945e-05
-6.75075e-07
-4.881e-07
1.51684e-05
1.28909e-05
-2.19537e-06
1.3344e-05
-3.03602e-06
1.3609e-05
-2.11023e-06
1.37033e-05
-7.5784e-07
1.3863e-05
-7.84668e-07
1.4013e-05
-1.04277e-06
1.41511e-05
-9.61443e-07
1.42712e-05
-9.885e-07
1.4348e-05
-5.39501e-07
1.44417e-05
-6.52831e-07
1.45184e-05
-5.56846e-07
1.459e-05
-4.78916e-07
1.46598e-05
-5.1869e-07
1.47413e-05
-5.09174e-07
1.47936e-05
-4.39511e-07
1.48849e-05
-6.40884e-07
1.49521e-05
-6.17671e-07
1.50614e-05
-8.29784e-07
1.51603e-05
-7.73969e-07
-5.92744e-07
1.52649e-05
1.29355e-05
-2.63091e-06
1.33903e-05
-3.49081e-06
1.3597e-05
-2.31687e-06
1.37378e-05
-8.9865e-07
1.39174e-05
-9.64286e-07
1.4066e-05
-1.19137e-06
1.41991e-05
-1.09455e-06
1.43097e-05
-1.09907e-06
1.43944e-05
-6.24279e-07
1.44893e-05
-7.47658e-07
1.45692e-05
-6.36771e-07
1.46337e-05
-5.43428e-07
1.47023e-05
-5.87257e-07
1.47828e-05
-5.89748e-07
1.48356e-05
-4.92263e-07
1.49308e-05
-7.36107e-07
1.49965e-05
-6.83334e-07
1.51105e-05
-9.43812e-07
1.52049e-05
-8.6834e-07
-6.92884e-07
1.5305e-05
1.29877e-05
-3.11856e-06
1.34381e-05
-3.94125e-06
1.35952e-05
-2.474e-06
1.37829e-05
-1.08632e-06
1.39848e-05
-1.16619e-06
1.41307e-05
-1.33721e-06
1.42545e-05
-1.21835e-06
1.43522e-05
-1.19685e-06
1.44474e-05
-7.19464e-07
1.45442e-05
-8.44421e-07
1.4627e-05
-7.19607e-07
1.468e-05
-5.96446e-07
1.47476e-05
-6.54865e-07
1.48247e-05
-6.66796e-07
1.48864e-05
-5.53991e-07
1.49865e-05
-8.36195e-07
1.50466e-05
-7.43452e-07
1.51646e-05
-1.0618e-06
1.5257e-05
-9.60762e-07
-8.74463e-07
1.54386e-05
1.30423e-05
-3.66091e-06
1.3487e-05
-4.38588e-06
1.36294e-05
-2.61641e-06
1.38433e-05
-1.30024e-06
1.40634e-05
-1.3863e-06
1.42043e-05
-1.47809e-06
1.43164e-05
-1.33045e-06
1.4401e-05
-1.28148e-06
1.45063e-05
-8.24769e-07
1.46033e-05
-9.41371e-07
1.46871e-05
-8.03477e-07
1.47294e-05
-6.38689e-07
1.47983e-05
-7.2382e-07
1.48724e-05
-7.40868e-07
1.49516e-05
-6.33218e-07
1.50485e-05
-9.33074e-07
1.51019e-05
-7.96801e-07
1.52189e-05
-1.17885e-06
1.53078e-05
-1.04968e-06
-1.03834e-06
1.54717e-05
1.30932e-05
-4.25414e-06
1.35463e-05
-4.83898e-06
1.36904e-05
-2.76048e-06
1.39218e-05
-1.53163e-06
1.41476e-05
-1.61212e-06
1.42799e-05
-1.61036e-06
1.43845e-05
-1.43509e-06
1.44624e-05
-1.35938e-06
1.45723e-05
-9.3465e-07
1.46622e-05
-1.03126e-06
1.47442e-05
-8.85491e-07
1.47868e-05
-6.81256e-07
1.48618e-05
-7.98871e-07
1.49324e-05
-8.11466e-07
1.50194e-05
-7.20238e-07
1.50858e-05
-9.99415e-07
1.51258e-05
-8.36814e-07
1.52036e-05
-1.25669e-06
1.52496e-05
-1.09563e-06
-1.22183e-06
1.54331e-05
1.31493e-05
-4.9034e-06
1.36282e-05
-5.31791e-06
1.37707e-05
-2.90303e-06
1.40125e-05
-1.77338e-06
1.4234e-05
-1.83359e-06
1.43587e-05
-1.73515e-06
1.44633e-05
-1.53963e-06
1.45371e-05
-1.4332e-06
1.46403e-05
-1.03786e-06
1.47108e-05
-1.10177e-06
1.47783e-05
-9.52959e-07
1.48231e-05
-7.2611e-07
1.48811e-05
-8.56851e-07
1.49199e-05
-8.50261e-07
1.49672e-05
-7.67549e-07
1.49625e-05
-9.94693e-07
1.4958e-05
-8.32267e-07
1.49443e-05
-1.243e-06
1.49205e-05
-1.07188e-06
-1.36134e-06
1.506e-05
1.32326e-05
-5.63604e-06
1.37143e-05
-5.7996e-06
1.38538e-05
-3.0425e-06
1.41157e-05
-2.0353e-06
1.43303e-05
-2.04815e-06
1.44423e-05
-1.84718e-06
1.45293e-05
-1.62661e-06
1.45677e-05
-1.47163e-06
1.46296e-05
-1.0997e-06
1.464e-05
-1.11224e-06
1.46431e-05
-9.56041e-07
1.46414e-05
-7.24403e-07
1.462e-05
-8.35454e-07
1.45804e-05
-8.10706e-07
1.45444e-05
-7.31528e-07
1.44545e-05
-9.04716e-07
1.43851e-05
-7.62872e-07
1.4272e-05
-1.12995e-06
1.41763e-05
-9.76146e-07
-1.37347e-06
1.41884e-05
1.33458e-05
-6.48188e-06
1.37293e-05
-6.18309e-06
1.39497e-05
-3.26283e-06
1.42288e-05
-2.31449e-06
1.43792e-05
-2.19849e-06
1.44096e-05
-1.87757e-06
1.43929e-05
-1.60996e-06
1.43146e-05
-1.39332e-06
1.42592e-05
-1.04427e-06
1.41522e-05
-1.00525e-06
1.40462e-05
-8.50064e-07
1.39616e-05
-6.39783e-07
1.38484e-05
-7.22221e-07
1.37355e-05
-6.97869e-07
1.36308e-05
-6.26817e-07
1.34853e-05
-7.59217e-07
1.33697e-05
-6.47244e-07
1.31927e-05
-9.52999e-07
1.30491e-05
-8.32493e-07
-1.2618e-06
1.29374e-05
1.34795e-05
-7.46139e-06
1.37828e-05
-6.48642e-06
1.39946e-05
-3.47461e-06
1.41508e-05
-2.47069e-06
1.40755e-05
-2.1232e-06
1.38979e-05
-1.69999e-06
1.36879e-05
-1.39988e-06
1.34539e-05
-1.15939e-06
1.32687e-05
-8.5898e-07
1.30642e-05
-8.00812e-07
1.28841e-05
-6.69931e-07
1.27466e-05
-5.02325e-07
1.25852e-05
-5.60796e-07
1.24364e-05
-5.49041e-07
1.22991e-05
-4.89583e-07
1.21304e-05
-5.90527e-07
1.19935e-05
-5.10261e-07
1.17857e-05
-7.45232e-07
1.16134e-05
-6.60209e-07
-7.56462e-07
1.11081e-05
1.35929e-05
-8.55425e-06
1.36793e-05
-6.57288e-06
1.3614e-05
-3.40931e-06
1.34066e-05
-2.26323e-06
1.30132e-05
-1.72987e-06
1.26229e-05
-1.30971e-06
1.22665e-05
-1.04342e-06
1.19464e-05
-8.39314e-07
1.1701e-05
-6.13567e-07
1.14629e-05
-5.62696e-07
1.12628e-05
-4.69844e-07
1.11108e-05
-3.50286e-07
1.09391e-05
-3.89107e-07
1.07834e-05
-3.93412e-07
1.06392e-05
-3.45329e-07
1.04695e-05
-4.2087e-07
1.03274e-05
-3.68136e-07
1.01156e-05
-5.33416e-07
9.9473e-06
-4.91926e-07
-4.19901e-07
9.61074e-06
1.3416e-05
-9.4702e-06
1.29006e-05
-6.05754e-06
1.23164e-05
-2.82511e-06
1.17192e-05
-1.66597e-06
1.11301e-05
-1.14078e-06
1.0657e-05
-8.36673e-07
1.02663e-05
-6.52681e-07
9.94468e-06
-5.177e-07
9.70202e-06
-3.70908e-07
9.47787e-06
-3.38543e-07
9.29345e-06
-2.85431e-07
9.15261e-06
-2.09448e-07
8.99636e-06
-2.32851e-07
8.85273e-06
-2.49786e-07
8.71892e-06
-2.11515e-07
8.56448e-06
-2.66435e-07
8.42935e-06
-2.33002e-07
8.23555e-06
-3.39617e-07
8.07375e-06
-3.3012e-07
-2.15393e-07
7.86924e-06
1.24289e-05
-9.39913e-06
1.10107e-05
-4.63934e-06
9.97232e-06
-1.7867e-06
9.20283e-06
-8.96481e-07
8.61741e-06
-5.5536e-07
8.18873e-06
-4.07988e-07
7.85028e-06
-3.14235e-07
7.58267e-06
-2.50086e-07
7.38373e-06
-1.71974e-07
7.20399e-06
-1.58794e-07
7.05644e-06
-1.37887e-07
6.94402e-06
-9.70227e-08
6.82021e-06
-1.0904e-07
6.70004e-06
-1.29623e-07
6.59025e-06
-1.01719e-07
6.46196e-06
-1.3815e-07
6.34591e-06
-1.16954e-07
6.1845e-06
-1.78202e-07
6.03389e-06
-1.79515e-07
-8.61286e-08
5.90463e-06
1.01128e-05
-7.01189e-06
7.83435e-06
-2.36094e-06
6.70447e-06
-6.56819e-07
6.06209e-06
-2.54099e-07
5.64624e-06
-1.39516e-07
5.34786e-06
-1.09599e-07
5.11715e-06
-8.35294e-08
4.93533e-06
-6.82656e-08
4.80608e-06
-4.27202e-08
4.6881e-06
-4.08236e-08
4.58936e-06
-3.9138e-08
4.51672e-06
-2.43855e-08
4.43566e-06
-2.79804e-08
4.34746e-06
-4.14234e-08
4.27333e-06
-2.75873e-08
4.17914e-06
-4.39673e-08
4.09627e-06
-3.40795e-08
3.97622e-06
-5.81545e-08
3.85565e-06
-5.89452e-08
-1.84907e-08
3.78801e-06
5.48811e-06
3.12718e-06
2.47036e-06
2.21626e-06
2.07674e-06
1.96714e-06
1.88361e-06
1.81535e-06
1.77263e-06
1.73181e-06
1.69267e-06
1.66828e-06
1.6403e-06
1.59888e-06
1.57129e-06
1.52732e-06
1.49324e-06
1.43509e-06
1.37614e-06
1.35765e-06
2.07981e-06
-4.70103e-07
2.36271e-07
2.22775e-06
-6.21826e-07
4.73887e-07
2.32439e-06
-8.51323e-07
7.54684e-07
2.36053e-06
-1.04583e-06
1.00969e-06
2.27828e-06
-1.16272e-06
1.24496e-06
2.11935e-06
-1.12545e-06
1.28439e-06
1.99523e-06
-1.12408e-06
1.24819e-06
2.00626e-06
-6.58284e-07
6.47256e-07
2.09535e-06
-6.92971e-07
6.03881e-07
2.52873e-06
-3.51677e-07
-8.16988e-08
3.17965e-06
1.01297e-06
-1.66388e-06
3.99137e-06
2.3209e-06
-3.13263e-06
4.96042e-06
2.16302e-06
-3.13207e-06
5.68302e-06
3.52935e-06
-4.25195e-06
6.25228e-06
5.4734e-06
-6.04266e-06
6.84493e-06
6.49776e-06
-7.09041e-06
7.44213e-06
6.95889e-06
-7.55609e-06
8.22801e-06
6.78005e-06
-7.56592e-06
9.26653e-06
6.54689e-06
-7.58542e-06
1.02595e-05
6.56318e-06
-7.55612e-06
1.12744e-05
5.78729e-06
-6.80225e-06
1.22991e-05
3.71745e-06
-4.74213e-06
1.31086e-05
1.68611e-06
-2.49562e-06
1.37358e-05
-1.24847e-07
-5.02357e-07
1.4169e-05
-2.80555e-06
2.37237e-06
1.41728e-05
-5.83056e-06
5.82681e-06
1.35506e-05
-7.60901e-06
8.23119e-06
1.27325e-05
-8.00922e-06
8.82733e-06
1.244e-05
-8.62715e-06
8.91965e-06
1.28488e-05
-1.03908e-05
9.98198e-06
1.36113e-05
-1.26144e-05
1.18519e-05
1.43532e-05
-1.44785e-05
1.37366e-05
1.49416e-05
-1.56072e-05
1.50188e-05
1.53578e-05
-1.60974e-05
1.56812e-05
1.55725e-05
-1.62799e-05
1.60652e-05
1.55736e-05
-1.61916e-05
1.61905e-05
1.53868e-05
-1.60028e-05
1.61896e-05
1.51366e-05
-1.56182e-05
1.58684e-05
1.48786e-05
-1.49748e-05
1.52328e-05
1.46539e-05
-1.45298e-05
1.47545e-05
1.45117e-05
-1.41216e-05
1.42638e-05
1.44151e-05
-1.34508e-05
1.35475e-05
1.42762e-05
-1.26858e-05
1.28246e-05
1.40154e-05
-1.19069e-05
1.21678e-05
1.36963e-05
-1.09057e-05
1.12248e-05
1.33293e-05
-9.73695e-06
1.0104e-05
1.28642e-05
-8.66146e-06
9.12653e-06
1.23703e-05
-7.55298e-06
8.0469e-06
1.19259e-05
-6.35629e-06
6.80069e-06
1.14847e-05
-5.20945e-06
5.65067e-06
1.09565e-05
-4.09669e-06
4.62486e-06
1.03648e-05
-3.14376e-06
3.7355e-06
9.85557e-06
-2.50195e-06
3.01114e-06
9.49613e-06
-1.86705e-06
2.22649e-06
9.15407e-06
-1.07137e-06
1.41343e-06
8.72819e-06
-5.68926e-07
9.94802e-07
8.32614e-06
-5.71224e-07
9.73281e-07
8.05951e-06
-5.87734e-07
8.54363e-07
7.85754e-06
-2.40303e-07
4.42271e-07
7.61638e-06
2.30147e-07
1.10171e-08
7.36128e-06
4.59615e-07
-2.04521e-07
7.17156e-06
4.02174e-07
-2.12454e-07
7.06274e-06
2.27666e-07
-1.18849e-07
6.98966e-06
8.88916e-08
-1.58096e-08
6.91904e-06
4.29274e-08
2.76941e-08
6.85394e-06
8.85751e-08
-2.34709e-08
6.80486e-06
1.93647e-07
-1.44567e-07
6.76478e-06
2.99838e-07
-2.59765e-07
6.71775e-06
3.58611e-07
-3.11577e-07
6.65617e-06
3.59416e-07
-2.97832e-07
6.58744e-06
3.23033e-07
-2.54303e-07
6.52704e-06
2.75942e-07
-2.15543e-07
6.48764e-06
2.32757e-07
-1.93359e-07
6.47408e-06
1.93279e-07
-1.79723e-07
6.48323e-06
1.54372e-07
-1.63517e-07
6.50749e-06
1.15788e-07
-1.40048e-07
6.53842e-06
8.08736e-08
-1.11806e-07
6.56898e-06
5.387e-08
-8.4431e-08
6.59452e-06
3.71875e-08
-6.27236e-08
6.61309e-06
2.9889e-08
-4.84667e-08
6.62475e-06
2.96942e-08
-4.13544e-08
6.63075e-06
3.37654e-08
-3.97586e-08
6.63269e-06
3.96521e-08
-4.15912e-08
6.63209e-06
4.56334e-08
-4.50379e-08
6.63011e-06
5.07401e-08
-4.87636e-08
6.62755e-06
5.45919e-08
-5.20237e-08
6.62488e-06
5.70895e-08
-5.4424e-08
6.62235e-06
5.84375e-08
-5.59038e-08
6.62009e-06
5.8802e-08
-5.65478e-08
6.61814e-06
5.85337e-08
-5.65805e-08
6.6165e-06
5.77998e-08
-5.61618e-08
6.61515e-06
5.68132e-08
-5.54572e-08
6.61404e-06
5.5712e-08
-5.46038e-08
6.61314e-06
5.46389e-08
-5.37422e-08
6.61243e-06
5.36056e-08
-5.28938e-08
6.61186e-06
5.27815e-08
-5.2208e-08
6.61142e-06
5.20474e-08
-5.16083e-08
6.61106e-06
5.1712e-08
-5.1359e-08
6.61082e-06
5.13419e-08
-5.10983e-08
6.6106e-06
5.17716e-08
-5.15503e-08
6.61051e-06
5.16661e-08
-5.15785e-08
6.61033e-06
5.33547e-08
-5.31785e-08
6.61043e-06
5.30553e-08
-5.31483e-08
6.61016e-06
5.708e-08
-5.68107e-08
6.61056e-06
5.53477e-08
-5.57529e-08
6.60991e-06
6.40811e-08
-6.34241e-08
6.61098e-06
5.7983e-08
-5.90584e-08
6.60927e-06
7.6388e-08
-7.46776e-08
6.61181e-06
5.98464e-08
-6.23847e-08
6.60763e-06
9.73605e-08
-9.31756e-08
6.61313e-06
5.93015e-08
-6.48086e-08
6.60376e-06
1.31475e-07
-1.22101e-07
6.61457e-06
5.49973e-08
-6.58047e-08
6.59568e-06
1.82123e-07
-1.6324e-07
6.61444e-06
4.74872e-08
-6.62409e-08
6.58111e-06
2.45797e-07
-2.12469e-07
6.60941e-06
3.99047e-08
-6.82028e-08
6.55932e-06
3.05826e-07
-2.55739e-07
6.59677e-06
3.38092e-08
-7.12608e-08
6.53326e-06
3.37621e-07
-2.74113e-07
6.57948e-06
2.1556e-08
-6.77704e-08
6.50923e-06
3.28377e-07
-2.58129e-07
6.56569e-06
-4.88699e-09
-5.1579e-08
6.4963e-06
2.77426e-07
-2.0803e-07
6.5578e-06
-1.74278e-08
-4.40746e-08
6.50686e-06
1.68558e-07
-1.17615e-07
6.54726e-06
5.10647e-08
-9.14635e-08
6.54285e-06
6.03989e-09
-1.6287e-09
6.53307e-06
1.93083e-07
-1.83308e-07
6.57243e-06
-9.77559e-08
5.83942e-08
6.5344e-06
2.4908e-07
-2.11046e-07
6.56045e-06
-2.04792e-08
-5.57009e-09
6.55828e-06
1.51298e-07
-1.49129e-07
6.52447e-06
1.34858e-07
-1.01046e-07
6.57817e-06
6.2932e-08
-1.16639e-07
6.51086e-06
1.735e-07
-1.06191e-07
6.57007e-06
9.496e-08
-1.54162e-07
6.53213e-06
1.26416e-07
-8.84786e-08
6.54108e-06
1.51406e-07
-1.6036e-07
6.55359e-06
1.3913e-07
-1.51637e-07
6.5301e-06
1.3695e-07
-1.13454e-07
6.54498e-06
2.01547e-07
-2.16434e-07
6.5456e-06
1.25185e-07
-1.25803e-07
6.52832e-06
2.14224e-07
-1.96948e-07
6.55367e-06
1.71964e-07
-1.97309e-07
6.53507e-06
2.03979e-07
-1.8538e-07
6.54038e-06
2.26267e-07
-2.31578e-07
6.55051e-06
2.24469e-07
-2.34602e-07
6.53047e-06
2.67332e-07
-2.47284e-07
6.55521e-06
2.56126e-07
-2.80866e-07
6.53267e-06
3.1551e-07
-2.92968e-07
6.55368e-06
3.01184e-07
-3.22198e-07
6.53596e-06
3.60307e-07
-3.42584e-07
6.55481e-06
3.693e-07
-3.88157e-07
6.53283e-06
4.1418e-07
-3.92194e-07
6.56246e-06
4.29867e-07
-4.59504e-07
6.5321e-06
4.92867e-07
-4.62501e-07
6.56254e-06
4.99257e-07
-5.29701e-07
6.53589e-06
5.74903e-07
-5.48247e-07
6.57215e-06
5.86295e-07
-6.22562e-07
6.5322e-06
6.74819e-07
-6.34869e-07
6.57992e-06
6.82207e-07
-7.29925e-07
6.54124e-06
7.9436e-07
-7.55683e-07
6.58907e-06
8.03538e-07
-8.51364e-07
6.54285e-06
9.2534e-07
-8.79121e-07
6.59873e-06
9.58757e-07
-1.01464e-06
6.55986e-06
1.06985e-06
-1.03097e-06
6.60473e-06
1.13982e-06
-1.18469e-06
6.57491e-06
1.26257e-06
-1.23275e-06
6.62122e-06
1.29523e-06
-1.34154e-06
6.57945e-06
1.54585e-06
-1.50408e-06
6.64849e-06
1.51863e-06
-1.58767e-06
6.6108e-06
1.70254e-06
-1.66485e-06
6.64686e-06
1.92594e-06
-1.962e-06
6.67183e-06
1.97092e-06
-1.99589e-06
6.64276e-06
2.15618e-06
-2.12711e-06
6.70685e-06
2.46537e-06
-2.52947e-06
6.70705e-06
2.49254e-06
-2.49273e-06
6.75373e-06
2.80916e-06
-2.85584e-06
6.68681e-06
3.11468e-06
-3.04775e-06
6.80419e-06
3.20055e-06
-3.31793e-06
6.71741e-06
3.74558e-06
-3.6588e-06
6.83287e-06
3.80841e-06
-3.92387e-06
6.72874e-06
4.32954e-06
-4.22541e-06
6.81037e-06
4.68253e-06
-4.76416e-06
6.81886e-06
5.07453e-06
-5.08303e-06
6.74077e-06
5.60044e-06
-5.52234e-06
6.83491e-06
6.04689e-06
-6.14103e-06
6.6297e-06
6.81502e-06
-6.6098e-06
6.74168e-06
7.28505e-06
-7.39703e-06
6.73384e-06
8.14242e-06
-8.13458e-06
6.56934e-06
9.04616e-06
-8.88166e-06
6.52006e-06
1.00304e-05
-9.98113e-06
6.38678e-06
1.12148e-05
-1.10816e-05
6.32238e-06
1.27245e-05
-1.26601e-05
6.37568e-06
1.42335e-05
-1.42868e-05
6.25519e-06
1.68758e-05
-1.67553e-05
5.38309e-06
2.01843e-05
-1.93122e-05
5.55636e-06
2.2629e-05
-2.28022e-05
3.37502e-05
-3.35086e-05
5.31471e-06
4.18311e-06
-5.45741e-07
4.23413e-06
-6.7284e-07
4.26908e-06
-8.86273e-07
4.26101e-06
-1.03776e-06
4.22851e-06
-1.13022e-06
4.08078e-06
-9.77732e-07
3.8943e-06
-9.37602e-07
3.78973e-06
-5.53714e-07
3.53145e-06
-4.34686e-07
3.37065e-06
-1.90878e-07
3.62058e-06
7.63038e-07
4.25743e-06
1.68405e-06
5.12577e-06
1.29468e-06
6.08516e-06
2.56996e-06
6.9673e-06
4.59126e-06
7.74845e-06
5.71661e-06
8.41597e-06
6.29136e-06
9.13175e-06
6.06426e-06
9.98028e-06
5.69837e-06
1.09127e-05
5.63076e-06
1.19234e-05
4.77663e-06
1.28339e-05
2.80688e-06
1.35748e-05
9.4525e-07
1.42752e-05
-8.25261e-07
1.47188e-05
-3.24915e-06
1.44879e-05
-5.59967e-06
1.36868e-05
-6.80786e-06
1.3133e-05
-7.45546e-06
1.33686e-05
-8.86275e-06
1.41027e-05
-1.11249e-05
1.48331e-05
-1.33447e-05
1.53427e-05
-1.49882e-05
1.56468e-05
-1.59112e-05
1.58008e-05
-1.62515e-05
1.57941e-05
-1.62731e-05
1.56218e-05
-1.60193e-05
1.53482e-05
-1.57291e-05
1.51071e-05
-1.53771e-05
1.49517e-05
-1.48194e-05
1.48438e-05
-1.44219e-05
1.47575e-05
-1.40353e-05
1.46614e-05
-1.33547e-05
1.45224e-05
-1.25468e-05
1.42729e-05
-1.16574e-05
1.39398e-05
-1.05726e-05
1.35782e-05
-9.37534e-06
1.31322e-05
-8.21545e-06
1.2583e-05
-7.00376e-06
1.20338e-05
-5.80713e-06
1.15632e-05
-4.73883e-06
1.10912e-05
-3.62472e-06
1.05227e-05
-2.57517e-06
9.94892e-06
-1.92821e-06
9.53154e-06
-1.44967e-06
9.22722e-06
-7.67055e-07
8.86722e-06
-2.0892e-07
8.44978e-06
-1.53784e-07
8.10673e-06
-2.44691e-07
7.8613e-06
5.13295e-09
7.62937e-06
4.62075e-07
7.38826e-06
7.00722e-07
7.1911e-06
5.99334e-07
7.06446e-06
3.54308e-07
6.97397e-06
1.79386e-07
6.87945e-06
1.37444e-07
6.78257e-06
1.85457e-07
6.71036e-06
2.65861e-07
6.67609e-06
3.341e-07
6.66806e-06
3.66642e-07
6.6631e-06
3.64381e-07
6.64505e-06
3.41081e-07
6.61224e-06
3.0875e-07
6.57471e-06
2.70292e-07
6.54441e-06
2.23575e-07
6.52927e-06
1.69509e-07
6.53042e-06
1.14645e-07
6.54419e-06
6.71029e-08
6.56456e-06
3.34957e-08
6.58596e-06
1.57888e-08
6.6043e-06
1.15512e-08
6.61768e-06
1.63085e-08
6.62591e-06
2.55373e-08
6.62981e-06
3.57516e-08
6.63061e-06
4.48329e-08
6.62949e-06
5.18673e-08
6.62737e-06
5.67087e-08
6.62487e-06
5.95912e-08
6.62239e-06
6.09194e-08
6.6201e-06
6.10899e-08
6.6181e-06
6.0527e-08
6.61643e-06
5.94784e-08
6.61504e-06
5.81978e-08
6.61392e-06
5.68355e-08
6.61302e-06
5.55328e-08
6.61232e-06
5.43085e-08
6.61177e-06
5.33286e-08
6.61137e-06
5.24548e-08
6.61105e-06
5.2027e-08
6.61085e-06
5.15393e-08
6.61068e-06
5.19423e-08
6.61066e-06
5.16914e-08
6.61054e-06
5.34713e-08
6.61072e-06
5.28765e-08
6.61051e-06
5.7289e-08
6.61105e-06
5.48042e-08
6.61043e-06
6.47077e-08
6.61177e-06
5.66378e-08
6.60997e-06