/*--------------------------------*- C++ -*----------------------------------*\
| =========                 |                                                 |
| \\      /  F ield         | OpenFOAM: The Open Source CFD Toolbox           |
|  \\    /   O peration     | Version:  2.4.0                                 |
|   \\  /    A nd           | Web:      www.OpenFOAM.org                      |
|    \\/     M anipulation  |                                                 |
\*---------------------------------------------------------------------------*/
FoamFile
{
    version     2.0;
    format      ascii;
    class       volVectorField;
    location    "0.274";
    object      U_0;
}
// * * * * * * * * * * * * * * * * * * * * * * * * * * * * * * * * * * * * * //

dimensions      [0 1 -1 0 0 0 0];

internalField   nonuniform List<vector> 
17600
(
(5.32779 0.309455 0)
(2.98501 0.0606355 0)
(2.19687 -0.00165188 0)
(1.84746 -0.00333837 0)
(1.70605 -0.00152542 0)
(1.61335 -0.000189453 0)
(1.53317 0.000562027 0)
(1.48423 -0.000818407 0)
(1.43028 0.000450069 0)
(1.40308 -1.0402e-05 0)
(1.36753 -0.00041093 0)
(1.35631 0.00030256 0)
(1.31386 0.000520106 0)
(1.31026 -0.000300637 0)
(1.27559 0.000292973 0)
(1.25482 0.00124466 0)
(1.22627 -0.000224948 0)
(1.18998 0.0019492 0)
(1.14242 0.00228028 0)
(1.11113 -0.00954251 0)
(8.59834 0.872015 0)
(6.94912 0.383401 0)
(5.81148 0.121615 0)
(5.05533 0.0515596 0)
(4.65316 0.0273097 0)
(4.38184 0.0210351 0)
(4.16733 0.0173126 0)
(4.03435 0.0103864 0)
(3.8757 0.0114179 0)
(3.80827 0.00757468 0)
(3.70084 0.00496957 0)
(3.66728 0.0069757 0)
(3.55771 0.00647976 0)
(3.55462 0.00353068 0)
(3.45495 0.0065505 0)
(3.41872 0.00777759 0)
(3.35799 0.00467106 0)
(3.27797 0.0122801 0)
(3.20872 0.0115451 0)
(3.09493 0.0346929 0)
(9.85611 1.02227 0)
(9.34496 0.577204 0)
(8.47391 0.241172 0)
(7.64107 0.13119 0)
(7.09432 0.0798802 0)
(6.70067 0.0592787 0)
(6.3877 0.0455333 0)
(6.19577 0.0314031 0)
(5.95097 0.0303809 0)
(5.85528 0.0211241 0)
(5.68544 0.0155749 0)
(5.6347 0.0183506 0)
(5.4697 0.0159092 0)
(5.46968 0.0104892 0)
(5.3171 0.0168321 0)
(5.27055 0.0162839 0)
(5.1943 0.0126468 0)
(5.06827 0.0249732 0)
(5.03894 0.0270892 0)
(4.74373 0.0494291 0)
(10.1585 0.947989 0)
(10.5702 0.668416 0)
(10.256 0.330392 0)
(9.64431 0.211691 0)
(9.1218 0.144314 0)
(8.6998 0.110429 0)
(8.33484 0.0831632 0)
(8.11759 0.0605953 0)
(7.81178 0.0561496 0)
(7.70099 0.0399319 0)
(7.4828 0.0308384 0)
(7.42112 0.0340864 0)
(7.21102 0.0285047 0)
(7.21482 0.0201653 0)
(7.02427 0.0308422 0)
(6.96253 0.0263029 0)
(6.89265 0.0243133 0)
(6.70433 0.0370863 0)
(6.74937 0.0493056 0)
(6.32434 0.0788284 0)
(10.0706 0.805816 0)
(10.926 0.66964 0)
(11.1243 0.35714 0)
(10.8989 0.258345 0)
(10.5798 0.198041 0)
(10.2598 0.16235 0)
(9.92142 0.123695 0)
(9.73091 0.0937233 0)
(9.40667 0.0860572 0)
(9.30269 0.0619335 0)
(9.05984 0.0492273 0)
(8.99983 0.0528535 0)
(8.76092 0.0433571 0)
(8.76844 0.0313328 0)
(8.56527 0.0480433 0)
(8.47578 0.0360162 0)
(8.43953 0.0397031 0)
(8.18881 0.0478236 0)
(8.2938 0.073426 0)
(7.77814 0.10422 0)
(9.9804 0.691184 0)
(10.869 0.636474 0)
(11.2956 0.334731 0)
(11.3771 0.254732 0)
(11.3241 0.216647 0)
(11.2185 0.196269 0)
(11.0066 0.15521 0)
(10.9162 0.12252 0)
(10.6411 0.115232 0)
(10.5777 0.0837627 0)
(10.3481 0.0682865 0)
(10.31 0.0727521 0)
(10.0701 0.0593761 0)
(10.0789 0.04231 0)
(9.90167 0.0672212 0)
(9.77341 0.0460977 0)
(9.78249 0.0527343 0)
(9.50823 0.065825 0)
(9.63953 0.0849526 0)
(9.0761 0.151543 0)
(9.95649 0.600781 0)
(10.7572 0.603045 0)
(11.2069 0.305744 0)
(11.3933 0.225316 0)
(11.4746 0.200015 0)
(11.5546 0.201383 0)
(11.4966 0.16475 0)
(11.5469 0.134668 0)
(11.3971 0.133578 0)
(11.4156 0.0982802 0)
(11.2524 0.0826164 0)
(11.2685 0.089803 0)
(11.0701 0.0745666 0)
(11.0798 0.0506449 0)
(10.9719 0.0863897 0)
(10.819 0.0555762 0)
(10.8539 0.0650139 0)
(10.6272 0.075585 0)
(10.7368 0.118726 0)
(10.2421 0.137225 0)
(9.94738 0.521143 0)
(10.6716 0.565297 0)
(11.1145 0.289885 0)
(11.3162 0.198978 0)
(11.4061 0.174182 0)
(11.5381 0.190071 0)
(11.5674 0.15855 0)
(11.6777 0.128822 0)
(11.6675 0.136523 0)
(11.7597 0.0982629 0)
(11.6936 0.086721 0)
(11.7861 0.0957688 0)
(11.6772 0.0855729 0)
(11.6915 0.0510248 0)
(11.6896 0.102133 0)
(11.5589 0.0621464 0)
(11.5874 0.0739278 0)
(11.4843 0.0814979 0)
(11.5421 0.138924 0)
(11.1481 0.16401 0)
(9.94584 0.449816 0)
(10.5803 0.517373 0)
(11.0472 0.277522 0)
(11.2565 0.180693 0)
(11.355 0.150847 0)
(11.4518 0.175802 0)
(11.5297 0.147276 0)
(11.5876 0.116724 0)
(11.6699 0.127728 0)
(11.7721 0.0909698 0)
(11.7842 0.0784049 0)
(11.9093 0.0940743 0)
(11.9017 0.0850887 0)
(11.8994 0.0487919 0)
(12.005 0.099654 0)
(11.9262 0.0769998 0)
(11.9359 0.0575701 0)
(12.0027 0.101113 0)
(11.9894 0.125611 0)
(11.782 0.195851 0)
(9.9512 0.390523 0)
(10.5054 0.462809 0)
(10.9521 0.265054 0)
(11.1956 0.15919 0)
(11.333 0.132831 0)
(11.4039 0.159679 0)
(11.513 0.141112 0)
(11.4946 0.104373 0)
(11.5917 0.118533 0)
(11.6759 0.0754911 0)
(11.7423 0.0737222 0)
(11.8665 0.0777234 0)
(11.921 0.0899756 0)
(11.8941 0.0348956 0)
(12.0458 0.0987894 0)
(11.9852 0.0740259 0)
(11.997 0.0564361 0)
(12.1913 0.0746351 0)
(12.0329 0.153301 0)
(12.1871 0.127344 0)
(9.95336 0.334209 0)
(10.4533 0.41418 0)
(10.8751 0.250931 0)
(11.1374 0.138255 0)
(11.2576 0.109551 0)
(11.354 0.14591 0)
(11.5024 0.133857 0)
(11.4667 0.100937 0)
(11.5211 0.108883 0)
(11.5927 0.0651419 0)
(11.6831 0.0566272 0)
(11.7933 0.0714741 0)
(11.8742 0.0811347 0)
(11.8593 0.0330282 0)
(11.994 0.0886757 0)
(11.947 0.080542 0)
(12.019 0.0305527 0)
(12.0883 0.0829301 0)
(12.0463 0.127233 0)
(12.2749 0.106357 0)
(9.9548 0.28705 0)
(10.4229 0.360926 0)
(10.8184 0.238642 0)
(11.0857 0.120651 0)
(11.1621 0.0928834 0)
(11.2825 0.121489 0)
(11.467 0.12349 0)
(11.4659 0.0973278 0)
(11.4945 0.105435 0)
(11.5534 0.0508091 0)
(11.6102 0.0505821 0)
(11.7135 0.0551242 0)
(11.826 0.080661 0)
(11.8422 0.0240152 0)
(11.9109 0.0815626 0)
(11.9542 0.0761569 0)
(12.0079 0.026751 0)
(11.9352 0.0675275 0)
(12.1774 0.0996453 0)
(11.9549 0.153968 0)
(9.97106 0.241303 0)
(10.3976 0.311206 0)
(10.7321 0.222742 0)
(11.0431 0.109912 0)
(11.1336 0.0761014 0)
(11.2286 0.0992046 0)
(11.3876 0.105567 0)
(11.4518 0.0914243 0)
(11.488 0.100581 0)
(11.5019 0.045496 0)
(11.5357 0.0394636 0)
(11.6707 0.0450714 0)
(11.7869 0.0656673 0)
(11.8545 0.0251376 0)
(11.8271 0.0704041 0)
(11.9248 0.070988 0)
(11.9658 0.0231964 0)
(11.9087 0.0512351 0)
(12.13 0.0972967 0)
(11.6609 0.143543 0)
(9.99688 0.200819 0)
(10.3397 0.265917 0)
(10.6658 0.201672 0)
(11.0267 0.0932668 0)
(11.1229 0.0659789 0)
(11.1807 0.0809359 0)
(11.3018 0.089381 0)
(11.4197 0.0782807 0)
(11.47 0.100539 0)
(11.4706 0.0408556 0)
(11.5084 0.0314015 0)
(11.6248 0.0266808 0)
(11.7522 0.0552259 0)
(11.8314 0.0228635 0)
(11.7628 0.0706425 0)
(11.8746 0.0538023 0)
(11.9211 0.0275687 0)
(11.9711 0.0258888 0)
(11.9283 0.111563 0)
(11.7333 0.0800119 0)
(10.0051 0.163407 0)
(10.2825 0.225463 0)
(10.6529 0.166157 0)
(11.0071 0.0827087 0)
(11.0805 0.0582827 0)
(11.148 0.0699639 0)
(11.2513 0.0666011 0)
(11.3801 0.0654661 0)
(11.4497 0.092805 0)
(11.4737 0.0406971 0)
(11.5121 0.0200828 0)
(11.5602 0.0196069 0)
(11.7107 0.0359253 0)
(11.7695 0.0309429 0)
(11.7386 0.056939 0)
(11.8693 0.0527787 0)
(11.8879 0.00328682 0)
(11.9761 0.0425722 0)
(11.7867 0.0873655 0)
(12.0211 0.028979 0)
(10.0041 0.132648 0)
(10.2689 0.179071 0)
(10.6355 0.132434 0)
(10.9419 0.0727704 0)
(11.0626 0.0542925 0)
(11.1536 0.0520994 0)
(11.2214 0.0505174 0)
(11.3361 0.0467998 0)
(11.4195 0.0875289 0)
(11.4661 0.0323452 0)
(11.5058 0.0222195 0)
(11.5294 0.00650268 0)
(11.675 0.0257576 0)
(11.7286 0.0246386 0)
(11.7347 0.0545386 0)
(11.8497 0.0316178 0)
(11.889 0.00904868 0)
(11.8552 0.0299615 0)
(11.8027 0.0790819 0)
(12.2735 -0.111208 0)
(10.0115 0.101826 0)
(10.263 0.135145 0)
(10.5976 0.101614 0)
(10.8897 0.0623759 0)
(11.0731 0.0421263 0)
(11.1515 0.0413944 0)
(11.1991 0.0347276 0)
(11.2922 0.0325218 0)
(11.3707 0.0757706 0)
(11.4681 0.028468 0)
(11.4945 0.0156753 0)
(11.528 0.00117504 0)
(11.6604 0.00918354 0)
(11.6761 0.0260912 0)
(11.7299 0.0399725 0)
(11.8221 0.0259085 0)
(11.8543 0.00650831 0)
(11.7704 0.0296676 0)
(11.9942 0.0354337 0)
(12.1799 -0.0221996 0)
(10.0194 0.0725826 0)
(10.2397 0.0931268 0)
(10.5803 0.0710066 0)
(10.8676 0.0481792 0)
(11.0588 0.0313279 0)
(11.1437 0.0319095 0)
(11.1932 0.0189682 0)
(11.2584 0.0207744 0)
(11.3399 0.06003 0)
(11.4809 0.0215151 0)
(11.4796 0.0117222 0)
(11.5284 -0.00491503 0)
(11.6399 -0.00508069 0)
(11.6125 0.0305291 0)
(11.7367 0.0202442 0)
(11.8124 0.0250929 0)
(11.7914 -0.00294824 0)
(11.8245 0.0266692 0)
(12.1065 -0.00547965 0)
(11.9033 0.0817559 0)
(10.02 0.0471589 0)
(10.2238 0.0483671 0)
(10.5819 0.0410178 0)
(10.8317 0.0331304 0)
(11.0559 0.0235668 0)
(11.1459 0.0166725 0)
(11.2007 0.00910161 0)
(11.2316 0.00525326 0)
(11.3323 0.0468186 0)
(11.4643 0.0102435 0)
(11.4555 0.0142369 0)
(11.5567 -0.0173055 0)
(11.5948 -0.00236949 0)
(11.5999 0.0145577 0)
(11.7595 0.0166126 0)
(11.7771 0.00667984 0)
(11.7651 0.00999888 0)
(11.9262 -0.0274539 0)
(11.9925 0.0139605 0)
(11.7347 0.0246827 0)
(10.0178 0.0202964 0)
(10.2259 0.00616656 0)
(10.5727 0.0109616 0)
(10.8049 0.0204951 0)
(11.0822 0.00775177 0)
(11.1375 0.00884775 0)
(11.2007 -0.00565036 0)
(11.2112 -0.001562 0)
(11.3396 0.0256657 0)
(11.4231 0.00899232 0)
(11.4621 0.00145114 0)
(11.587 -0.0162017 0)
(11.5492 -0.0151923 0)
(11.6271 0.015663 0)
(11.7627 -0.00712165 0)
(11.7184 0.0214751 0)
(11.8175 -0.0274585 0)
(11.9333 -0.0116573 0)
(11.8451 -0.0074608 0)
(11.7632 0.0474511 0)
(10.0199 -0.00396811 0)
(10.2217 -0.038683 0)
(10.5625 -0.0150742 0)
(10.8201 -0.00119868 0)
(11.1015 -3.35622e-05 0)
(11.107 -0.00335401 0)
(11.1976 -0.0135392 0)
(11.2184 -0.0192944 0)
(11.3537 0.0166505 0)
(11.3903 -0.00445894 0)
(11.5031 -0.00213491 0)
(11.5703 -0.0265667 0)
(11.5324 -0.00932708 0)
(11.6568 -0.00839317 0)
(11.7349 0.00272414 0)
(11.7182 -0.00698737 0)
(11.8657 -0.0146439 0)
(11.8607 -0.0424424 0)
(11.8404 0.010003 0)
(11.8259 -0.050204 0)
(10.013 -0.0304747 0)
(10.2223 -0.0794475 0)
(10.5821 -0.0477298 0)
(10.8419 -0.0177256 0)
(11.0874 -0.00973761 0)
(11.0947 -0.0090819 0)
(11.2127 -0.0325227 0)
(11.242 -0.0288411 0)
(11.3559 0.00236987 0)
(11.3786 -0.00983296 0)
(11.5357 -0.0154884 0)
(11.5336 -0.0200915 0)
(11.5601 -0.0258184 0)
(11.6789 -0.00924633 0)
(11.7143 -0.0147782 0)
(11.7627 -0.0055247 0)
(11.8391 -0.0375831 0)
(11.8273 -0.0281361 0)
(11.8986 -0.0152096 0)
(11.9233 -0.00949485 0)
(9.99747 -0.0551694 0)
(10.2484 -0.126397 0)
(10.6095 -0.0769509 0)
(10.8389 -0.0325975 0)
(11.0749 -0.0166928 0)
(11.1199 -0.0226891 0)
(11.2294 -0.0473266 0)
(11.2637 -0.0413606 0)
(11.3422 -0.00639771 0)
(11.3954 -0.0231008 0)
(11.5442 -0.0209697 0)
(11.5316 -0.0230693 0)
(11.6056 -0.0360664 0)
(11.6708 -0.015899 0)
(11.7268 -0.0224536 0)
(11.7724 -0.0136673 0)
(11.8152 -0.0459725 0)
(11.8725 -0.0342893 0)
(11.9271 -0.0314081 0)
(11.9652 0.0397011 0)
(9.99003 -0.083725 0)
(10.2838 -0.17234 0)
(10.6099 -0.103626 0)
(10.8419 -0.0448675 0)
(11.1006 -0.0287588 0)
(11.1462 -0.0369392 0)
(11.2344 -0.0607417 0)
(11.2847 -0.0523265 0)
(11.3409 -0.014424 0)
(11.4298 -0.0406684 0)
(11.5384 -0.0208848 0)
(11.5662 -0.034877 0)
(11.6246 -0.0359911 0)
(11.659 -0.0300883 0)
(11.754 -0.0204906 0)
(11.7709 -0.0329403 0)
(11.8401 -0.0390915 0)
(11.92 -0.0680286 0)
(11.9276 -0.0237254 0)
(11.9301 -0.0594271 0)
(9.99058 -0.115151 0)
(10.3056 -0.216327 0)
(10.6121 -0.130404 0)
(10.8823 -0.0583392 0)
(11.132 -0.0451967 0)
(11.1586 -0.0438371 0)
(11.2438 -0.079526 0)
(11.3053 -0.0574366 0)
(11.3654 -0.030989 0)
(11.4568 -0.0468714 0)
(11.5388 -0.0335336 0)
(11.6096 -0.0332273 0)
(11.6251 -0.0495889 0)
(11.6878 -0.0269589 0)
(11.7711 -0.0420106 0)
(11.7943 -0.0272098 0)
(11.8801 -0.0671908 0)
(11.9216 -0.0535823 0)
(11.9218 -0.0652852 0)
(11.9741 -0.073294 0)
(9.98911 -0.148293 0)
(10.3178 -0.26092 0)
(10.6514 -0.15666 0)
(10.9404 -0.0767582 0)
(11.1371 -0.0530193 0)
(11.1737 -0.0599043 0)
(11.27 -0.0886381 0)
(11.3255 -0.0751523 0)
(11.4022 -0.0335281 0)
(11.4782 -0.0675537 0)
(11.5672 -0.030122 0)
(11.6371 -0.0517254 0)
(11.6494 -0.0408796 0)
(11.7295 -0.0506541 0)
(11.7797 -0.0322694 0)
(11.8319 -0.0559985 0)
(11.896 -0.0523388 0)
(11.9279 -0.0889372 0)
(11.9676 -0.0514223 0)
(12.0095 -0.143315 0)
(9.98628 -0.185918 0)
(10.34 -0.304068 0)
(10.7149 -0.187969 0)
(10.9773 -0.0848514 0)
(11.1391 -0.069454 0)
(11.2109 -0.0678384 0)
(11.2982 -0.108925 0)
(11.3571 -0.0790635 0)
(11.4462 -0.0517393 0)
(11.5124 -0.0718699 0)
(11.6063 -0.0442072 0)
(11.6589 -0.0493914 0)
(11.691 -0.0556601 0)
(11.7471 -0.045838 0)
(11.8054 -0.0517971 0)
(11.8733 -0.0534457 0)
(11.9131 -0.0731192 0)
(11.9708 -0.0835663 0)
(12.0141 -0.0830135 0)
(12.0101 -0.0717859 0)
(9.99267 -0.22558 0)
(10.3747 -0.353111 0)
(10.7733 -0.208768 0)
(11.0019 -0.097635 0)
(11.1681 -0.0826521 0)
(11.2522 -0.0856076 0)
(11.3309 -0.11967 0)
(11.4085 -0.0928953 0)
(11.4946 -0.0602337 0)
(11.5543 -0.0855033 0)
(11.6352 -0.0481988 0)
(11.6889 -0.0575991 0)
(11.7194 -0.0589498 0)
(11.7727 -0.0524371 0)
(11.854 -0.0628636 0)
(11.9112 -0.0586395 0)
(11.9568 -0.0868178 0)
(12.0306 -0.0867216 0)
(12.046 -0.108029 0)
(12.0432 -0.00988656 0)
(10.0147 -0.272104 0)
(10.4052 -0.400801 0)
(10.8368 -0.224095 0)
(11.0255 -0.11137 0)
(11.2185 -0.102539 0)
(11.2858 -0.0999346 0)
(11.3813 -0.132785 0)
(11.463 -0.105909 0)
(11.5404 -0.0682674 0)
(11.5883 -0.0980115 0)
(11.6619 -0.0500312 0)
(11.7223 -0.0700213 0)
(11.7481 -0.0560198 0)
(11.8265 -0.0699851 0)
(11.9074 -0.0609645 0)
(11.9552 -0.0819315 0)
(12.0147 -0.0766023 0)
(12.0735 -0.121127 0)
(12.0838 -0.0898829 0)
(12.0852 -0.10968 0)
(10.039 -0.324671 0)
(10.4341 -0.449009 0)
(10.9119 -0.23445 0)
(11.037 -0.127311 0)
(11.2935 -0.125293 0)
(11.3125 -0.113323 0)
(11.4533 -0.149515 0)
(11.5031 -0.112913 0)
(11.5916 -0.0809591 0)
(11.6071 -0.102288 0)
(11.7155 -0.0614484 0)
(11.7515 -0.0711044 0)
(11.8111 -0.0694695 0)
(11.8849 -0.0720153 0)
(11.9673 -0.0766758 0)
(12.0068 -0.0828474 0)
(12.0643 -0.091048 0)
(12.1066 -0.121773 0)
(12.1237 -0.113438 0)
(12.1195 -0.143399 0)
(10.0478 -0.384365 0)
(10.4821 -0.495583 0)
(10.9669 -0.241845 0)
(11.0684 -0.147574 0)
(11.391 -0.150071 0)
(11.3375 -0.127951 0)
(11.5381 -0.16275 0)
(11.534 -0.121865 0)
(11.6534 -0.0870127 0)
(11.6329 -0.113451 0)
(11.7974 -0.0681417 0)
(11.7846 -0.0802227 0)
(11.9018 -0.0765665 0)
(11.9209 -0.0820359 0)
(12.0379 -0.082339 0)
(12.0191 -0.0919984 0)
(12.0972 -0.0935008 0)
(12.0938 -0.132114 0)
(12.1183 -0.124923 0)
(12.0719 -0.174551 0)
(10.0435 -0.450056 0)
(10.5387 -0.539695 0)
(11.0108 -0.250623 0)
(11.167 -0.174278 0)
(11.4666 -0.17411 0)
(11.377 -0.14034 0)
(11.624 -0.177417 0)
(11.5652 -0.127866 0)
(11.7209 -0.0965774 0)
(11.6803 -0.122413 0)
(11.8611 -0.0796138 0)
(11.8051 -0.0857066 0)
(11.9416 -0.0856822 0)
(11.8911 -0.0890709 0)
(12.0124 -0.0859664 0)
(11.9141 -0.0986005 0)
(11.9992 -0.0898887 0)
(11.9001 -0.144751 0)
(11.919 -0.110344 0)
(11.7671 -0.220254 0)
(10.0308 -0.522689 0)
(10.5998 -0.57849 0)
(11.092 -0.265212 0)
(11.2976 -0.203933 0)
(11.5007 -0.19367 0)
(11.4554 -0.156308 0)
(11.6848 -0.187343 0)
(11.5782 -0.134853 0)
(11.7505 -0.106636 0)
(11.6501 -0.128301 0)
(11.7801 -0.0875913 0)
(11.675 -0.0878563 0)
(11.7543 -0.0902056 0)
(11.6275 -0.0868686 0)
(11.6955 -0.0881385 0)
(11.5274 -0.0896895 0)
(11.5655 -0.0938682 0)
(11.3898 -0.12402 0)
(11.3574 -0.123861 0)
(11.1507 -0.163732 0)
(10.0115 -0.602814 0)
(10.691 -0.609689 0)
(11.2162 -0.288805 0)
(11.4054 -0.232697 0)
(11.5093 -0.213114 0)
(11.4987 -0.173165 0)
(11.5949 -0.189533 0)
(11.4169 -0.137411 0)
(11.516 -0.110324 0)
(11.296 -0.12262 0)
(11.3361 -0.0848141 0)
(11.1613 -0.0823509 0)
(11.1582 -0.0815219 0)
(10.9694 -0.078705 0)
(10.9825 -0.0773478 0)
(10.7647 -0.0796206 0)
(10.766 -0.0805868 0)
(10.5368 -0.10975 0)
(10.4821 -0.106436 0)
(10.2224 -0.127166 0)
(10.0172 -0.692416 0)
(10.8197 -0.640017 0)
(11.3165 -0.323839 0)
(11.3849 -0.261342 0)
(11.321 -0.225155 0)
(11.1979 -0.175878 0)
(11.0738 -0.17344 0)
(10.7933 -0.124664 0)
(10.7694 -0.0978526 0)
(10.4553 -0.101956 0)
(10.426 -0.0713936 0)
(10.2084 -0.0670577 0)
(10.1536 -0.0655001 0)
(9.94269 -0.0640207 0)
(9.92124 -0.0624573 0)
(9.68745 -0.0641292 0)
(9.66525 -0.0647104 0)
(9.41652 -0.0911749 0)
(9.34455 -0.0796957 0)
(9.06174 -0.121082 0)
(10.0943 -0.806643 0)
(10.8902 -0.67176 0)
(11.1469 -0.350652 0)
(10.9012 -0.262728 0)
(10.5647 -0.203878 0)
(10.2591 -0.148259 0)
(9.96367 -0.135535 0)
(9.62875 -0.0965909 0)
(9.52364 -0.0731152 0)
(9.18844 -0.0744761 0)
(9.12878 -0.0531754 0)
(8.90632 -0.0485517 0)
(8.83095 -0.0474718 0)
(8.62827 -0.0478018 0)
(8.58642 -0.0462665 0)
(8.36313 -0.0469721 0)
(8.32611 -0.0493164 0)
(8.08449 -0.0658385 0)
(7.99782 -0.0672924 0)
(7.7326 -0.063972 0)
(10.1726 -0.948354 0)
(10.5454 -0.669671 0)
(10.2758 -0.326716 0)
(9.64365 -0.21403 0)
(9.10421 -0.148533 0)
(8.70864 -0.101309 0)
(8.3592 -0.0896649 0)
(8.04012 -0.064567 0)
(7.90523 -0.0463833 0)
(7.60566 -0.0479331 0)
(7.53863 -0.0350776 0)
(7.33815 -0.0307122 0)
(7.26465 -0.0305083 0)
(7.08791 -0.0321187 0)
(7.03676 -0.0303643 0)
(6.84334 -0.0310176 0)
(6.80038 -0.0327954 0)
(6.58158 -0.0447232 0)
(6.4991 -0.0452345 0)
(6.24189 -0.0393421 0)
(9.8638 -1.02226 0)
(9.32942 -0.577998 0)
(8.48817 -0.239324 0)
(7.64017 -0.132007 0)
(7.0792 -0.0829828 0)
(6.71041 -0.0538671 0)
(6.40161 -0.0481949 0)
(6.1413 -0.0357447 0)
(6.01627 -0.0232617 0)
(5.7859 -0.0256638 0)
(5.72482 -0.0192924 0)
(5.56584 -0.0157367 0)
(5.5083 -0.016338 0)
(5.36754 -0.0182387 0)
(5.31809 -0.0165571 0)
(5.16751 -0.0171296 0)
(5.12596 -0.0181235 0)
(4.94647 -0.0256318 0)
(4.87675 -0.0259666 0)
(4.64117 -0.0196731 0)
(8.60233 -0.871967 0)
(6.9408 -0.383895 0)
(5.81875 -0.120842 0)
(5.05592 -0.0515054 0)
(4.64289 -0.0293759 0)
(4.38705 -0.0183351 0)
(4.17715 -0.0177276 0)
(4.00043 -0.0139338 0)
(3.91228 -0.00702308 0)
(3.76833 -0.00956881 0)
(3.72211 -0.00747282 0)
(3.61846 -0.00522458 0)
(3.58242 -0.00605961 0)
(3.48686 -0.00744796 0)
(3.44838 -0.00626265 0)
(3.34967 -0.0065867 0)
(3.31714 -0.00680933 0)
(3.19366 -0.0107143 0)
(3.14048 -0.0102448 0)
(2.96262 -0.00723027 0)
(5.32895 -0.309371 0)
(2.98264 -0.0607517 0)
(2.19787 0.00174539 0)
(1.84928 0.00360819 0)
(1.7019 0.000772366 0)
(1.61309 0.000848962 0)
(1.53974 -0.000257676 0)
(1.47144 -0.000647546 0)
(1.43916 0.00104869 0)
(1.39341 -0.000385536 0)
(1.37261 -0.000300556 0)
(1.3355 0.000299298 0)
(1.3243 -8.01446e-05 0)
(1.28751 -0.000453075 0)
(1.26984 -8.1748e-05 0)
(1.23374 -0.000126348 0)
(1.22068 0.000113736 0)
(1.17299 -0.000763969 0)
(1.14681 -0.000180702 0)
(1.07696 0.0065273 0)
(0.953063 0.24825 0)
(1.35707 0.129685 0)
(1.43369 0.298374 0)
(1.42483 0.375009 0)
(2.18738 0.339002 0)
(3.14054 0.891216 0)
(4.18829 1.39249 0)
(5.92595 1.44498 0)
(5.88345 1.81602 0)
(6.69852 1.4097 0)
(7.13614 1.16439 0)
(7.20156 1.4477 0)
(7.78278 1.23232 0)
(8.57128 0.957411 0)
(8.65666 0.832602 0)
(9.63581 0.550764 0)
(10.0617 0.0182453 0)
(11.1466 -0.982519 0)
(11.7764 -1.69185 0)
(11.9164 -2.49274 0)
(11.7562 -3.05677 0)
(10.9259 -3.31674 0)
(11.6226 -3.95305 0)
(12.1923 -4.82964 0)
(12.6536 -5.60021 0)
(13.0542 -6.43407 0)
(12.7451 -6.66356 0)
(12.0486 -6.63782 0)
(11.8198 -6.81141 0)
(11.4053 -6.70248 0)
(10.7229 -6.56122 0)
(11.035 -6.64503 0)
(10.892 -6.92248 0)
(10.8672 -6.66393 0)
(10.5956 -6.5659 0)
(10.7061 -6.70447 0)
(11.3218 -6.60642 0)
(11.7148 -6.89607 0)
(12.0846 -6.66303 0)
(12.2944 -6.14029 0)
(12.3075 -5.66982 0)
(12.5775 -4.86268 0)
(12.4963 -4.01597 0)
(12.5103 -3.12072 0)
(12.4657 -2.00931 0)
(12.2436 -1.00857 0)
(12.0832 0.0938711 0)
(11.9101 1.27544 0)
(11.3546 2.05632 0)
(10.5926 2.62342 0)
(9.70313 2.83133 0)
(8.88671 2.75127 0)
(8.11903 2.72667 0)
(7.64806 2.84868 0)
(7.00776 2.48916 0)
(6.66351 2.06376 0)
(6.48636 2.44652 0)
(6.11694 2.55034 0)
(5.73756 1.69534 0)
(5.33741 0.968264 0)
(5.24829 1.50436 0)
(5.23488 2.62037 0)
(5.21539 3.2551 0)
(5.19033 3.60844 0)
(5.42435 4.47069 0)
(5.66036 5.44998 0)
(5.76136 5.65243 0)
(5.84629 5.55533 0)
(5.73469 5.85597 0)
(6.20131 6.24035 0)
(6.70971 6.52988 0)
(6.59089 7.28108 0)
(6.61274 8.17745 0)
(6.98301 8.54652 0)
(6.98891 8.44675 0)
(7.10286 7.58863 0)
(7.39393 6.11647 0)
(7.48738 4.85014 0)
(7.46813 3.76253 0)
(7.45561 2.35837 0)
(7.4013 0.53478 0)
(7.38384 -1.29164 0)
(7.50857 -2.71998 0)
(7.54456 -4.09415 0)
(7.20939 -5.68814 0)
(6.84231 -6.94062 0)
(6.84289 -7.43895 0)
(6.93387 -7.8686 0)
(6.44414 -8.79865 0)
(6.26505 -9.1886 0)
(6.16341 -8.65126 0)
(6.08329 -7.80931 0)
(6.18395 -7.3616 0)
(6.04535 -7.97837 0)
(5.92365 -8.8793 0)
(6.03566 -9.24804 0)
(6.05924 -9.53324 0)
(5.99961 -9.7917 0)
(6.1284 -9.56123 0)
(6.23058 -8.94719 0)
(6.14126 -8.23546 0)
(5.95569 -7.49594 0)
(5.80881 -6.69728 0)
(5.77733 -5.79953 0)
(5.93025 -4.79394 0)
(6.08406 -3.51268 0)
(5.97698 -1.70774 0)
(5.79969 0.26983 0)
(5.93365 1.59978 0)
(6.32983 2.60546 0)
(6.68593 4.10582 0)
(6.89409 5.53318 0)
(7.07353 6.19642 0)
(7.3064 6.55804 0)
(7.64207 7.3381 0)
(7.93362 8.48696 0)
(8.25257 9.7538 0)
(8.27356 10.2089 0)
(7.99614 9.39869 0)
(7.94391 8.57312 0)
(7.57039 8.25684 0)
(7.28818 6.67841 0)
(6.43958 4.53402 0)
(5.66663 2.07251 0)
(5.49658 0.562911 0)
(5.81261 1.89454 0)
(5.96234 4.54412 0)
(6.5808 6.87491 0)
(6.47744 8.69793 0)
(6.8074 9.49396 0)
(6.95453 9.3259 0)
(6.74171 8.65973 0)
(6.93675 7.34286 0)
(6.78244 5.75307 0)
(6.88516 4.45572 0)
(7.13076 3.30865 0)
(7.09243 2.1382 0)
(7.04582 0.623703 0)
(6.97657 -1.09543 0)
(7.56445 -2.7136 0)
(7.58914 -3.98286 0)
(7.34793 -4.76255 0)
(7.11127 -5.0763 0)
(7.159 -5.4149 0)
(7.08142 -5.91169 0)
(7.16831 -5.94547 0)
(6.78693 -6.0927 0)
(7.27135 -5.5684 0)
(6.03653 -5.42219 0)
(7.467 -4.29415 0)
(5.87835 -4.33078 0)
(7.51172 -3.82636 0)
(6.16781 -3.90382 0)
(7.75809 -3.7541 0)
(6.02785 -4.55 0)
(7.89688 -4.51487 0)
(5.16111 -4.34299 0)
(7.61093 -3.61471 0)
(6.00789 -3.8097 0)
(6.44243 -3.00113 0)
(6.01815 -3.44149 0)
(6.97841 -3.77112 0)
(7.50217 -4.47119 0)
(7.17475 -4.6651 0)
(8.08867 -4.62548 0)
(7.77947 -5.09447 0)
(7.65692 -5.21006 0)
(7.69747 -4.21135 0)
(8.14959 -3.32908 0)
(8.55486 -2.7441 0)
(8.58988 -2.24156 0)
(8.80497 -1.49141 0)
(8.72912 -0.813804 0)
(8.24322 -0.360283 0)
(7.99271 0.182426 0)
(8.15946 1.24986 0)
(8.39546 2.67208 0)
(8.35817 3.46619 0)
(8.00798 3.94888 0)
(7.50455 4.01191 0)
(7.09743 3.7638 0)
(6.91413 4.21384 0)
(6.77868 4.58272 0)
(6.70647 4.58579 0)
(6.61523 4.61156 0)
(6.44945 4.44201 0)
(6.15389 4.91208 0)
(5.82525 5.09158 0)
(5.7598 4.03051 0)
(5.31888 3.61043 0)
(5.45654 4.53644 0)
(5.09753 5.86017 0)
(5.26814 6.51374 0)
(4.52818 7.92119 0)
(4.86535 8.57947 0)
(4.11656 8.72828 0)
(4.55917 8.33119 0)
(3.31463 8.82433 0)
(4.36723 9.1285 0)
(2.29389 11.614 0)
(2.85831 0.206017 0)
(2.93025 0.0944781 0)
(2.98315 0.213702 0)
(3.15626 0.370667 0)
(3.36677 0.245106 0)
(3.25089 0.475509 0)
(4.1902 0.816745 0)
(5.41727 1.01255 0)
(5.71719 1.47002 0)
(6.37293 1.0802 0)
(6.90443 0.857649 0)
(7.26617 1.19539 0)
(7.99889 0.949886 0)
(8.76531 0.803173 0)
(9.05631 0.659138 0)
(9.83044 0.382755 0)
(10.3563 -0.23359 0)
(11.5271 -1.30333 0)
(11.7256 -1.88426 0)
(11.7332 -2.51208 0)
(11.568 -2.88766 0)
(11.5669 -3.35922 0)
(12.5958 -4.16515 0)
(12.9418 -4.96049 0)
(13.2569 -5.7496 0)
(13.3427 -6.40443 0)
(12.666 -6.44755 0)
(12.0178 -6.43595 0)
(11.7915 -6.67499 0)
(11.3371 -6.485 0)
(10.8244 -6.50724 0)
(11.2036 -6.68642 0)
(10.8991 -6.86403 0)
(10.7571 -6.58383 0)
(10.5805 -6.51304 0)
(10.8292 -6.85673 0)
(11.4857 -6.81375 0)
(11.7515 -7.03315 0)
(12.0095 -6.7857 0)
(12.1892 -6.16874 0)
(12.1655 -5.72768 0)
(12.492 -4.89186 0)
(12.457 -3.98462 0)
(12.4147 -3.09349 0)
(12.3693 -1.92464 0)
(12.0727 -0.902202 0)
(11.8359 0.156352 0)
(11.7436 1.38163 0)
(11.3426 2.27086 0)
(10.6395 2.94878 0)
(9.69004 3.20464 0)
(8.82928 3.098 0)
(8.07114 3.00581 0)
(7.58704 3.05466 0)
(7.0221 2.68842 0)
(6.65464 2.17654 0)
(6.50208 2.53979 0)
(6.12605 2.71009 0)
(5.69539 1.85594 0)
(5.28932 1.08686 0)
(5.19215 1.54238 0)
(5.25112 2.61223 0)
(5.27392 3.24532 0)
(5.23328 3.56441 0)
(5.41071 4.37931 0)
(5.67569 5.37502 0)
(5.85943 5.63376 0)
(5.82051 5.56665 0)
(5.79408 5.7561 0)
(6.37625 6.03925 0)
(6.84052 6.47069 0)
(6.72273 7.29191 0)
(6.838 8.09628 0)
(7.19444 8.49245 0)
(7.24717 8.44098 0)
(7.46733 7.52011 0)
(7.78811 6.05347 0)
(7.92476 4.8426 0)
(8.00798 3.78636 0)
(8.13509 2.3937 0)
(8.12516 0.568195 0)
(8.02091 -1.3044 0)
(8.06708 -2.73544 0)
(8.12117 -4.0061 0)
(7.82587 -5.5471 0)
(7.4104 -6.86845 0)
(7.30072 -7.43065 0)
(7.3722 -7.76969 0)
(6.89932 -8.66618 0)
(6.60502 -9.14734 0)
(6.46273 -8.59591 0)
(6.27742 -7.7857 0)
(6.30815 -7.32387 0)
(6.12449 -7.88421 0)
(5.91283 -8.86962 0)
(5.99813 -9.25762 0)
(5.95149 -9.50402 0)
(5.82764 -9.79853 0)
(5.89058 -9.58445 0)
(5.91362 -8.91974 0)
(5.82008 -8.1991 0)
(5.65888 -7.42699 0)
(5.47232 -6.63998 0)
(5.3423 -5.78274 0)
(5.34938 -4.77586 0)
(5.35997 -3.45146 0)
(5.18726 -1.63364 0)
(5.07669 0.230814 0)
(5.34697 1.46738 0)
(5.79448 2.47206 0)
(6.15954 3.98903 0)
(6.38227 5.40748 0)
(6.61264 6.09699 0)
(6.88534 6.47102 0)
(7.24978 7.21046 0)
(7.60528 8.36254 0)
(7.92645 9.68835 0)
(8.01383 10.2059 0)
(7.80719 9.4425 0)
(7.83634 8.65641 0)
(7.54031 8.36472 0)
(7.30018 6.87659 0)
(6.53979 4.87544 0)
(5.73955 2.30074 0)
(5.64841 0.531099 0)
(5.79658 1.73607 0)
(6.08765 4.41643 0)
(6.72929 6.73391 0)
(6.61722 8.60451 0)
(7.07503 9.43148 0)
(7.13287 9.36949 0)
(7.11146 8.67918 0)
(7.18822 7.37496 0)
(7.10774 5.74863 0)
(7.17204 4.40625 0)
(7.52503 3.28101 0)
(7.52531 2.17672 0)
(7.64836 0.636114 0)
(7.51082 -1.1964 0)
(7.9723 -2.80666 0)
(7.84118 -3.94386 0)
(7.69601 -4.6854 0)
(7.31918 -5.00021 0)
(7.53116 -5.42412 0)
(7.31756 -5.91282 0)
(7.4586 -5.9471 0)
(7.13898 -6.02047 0)
(7.38107 -5.47213 0)
(6.52415 -5.40047 0)
(7.52164 -4.31324 0)
(6.23554 -4.27892 0)
(7.76901 -3.9678 0)
(6.30964 -3.87941 0)
(8.05183 -3.81441 0)
(6.28178 -4.49943 0)
(8.06978 -4.27944 0)
(5.23632 -4.35621 0)
(8.12905 -3.70798 0)
(5.65117 -3.63882 0)
(6.76012 -2.99195 0)
(5.90186 -3.62001 0)
(7.08852 -4.02711 0)
(7.60243 -4.5965 0)
(7.27206 -4.63692 0)
(7.8895 -4.76053 0)
(7.76118 -4.99967 0)
(7.4868 -5.08254 0)
(7.40964 -4.32188 0)
(7.79201 -3.51665 0)
(8.3405 -2.83333 0)
(8.49724 -2.29519 0)
(8.89041 -1.52131 0)
(8.71856 -0.731264 0)
(8.17697 -0.195116 0)
(7.72122 0.247944 0)
(7.85721 1.2355 0)
(7.97063 2.61098 0)
(8.25055 3.50792 0)
(7.89416 4.08725 0)
(7.5284 4.1853 0)
(7.07878 3.96387 0)
(6.84588 4.31445 0)
(6.71679 4.60922 0)
(6.6712 4.71184 0)
(6.53123 4.70148 0)
(6.31273 4.49379 0)
(6.1761 5.03883 0)
(5.96592 5.25231 0)
(5.92772 4.10868 0)
(5.25841 3.70099 0)
(5.60082 4.5817 0)
(5.15475 5.90833 0)
(5.39103 6.49744 0)
(4.7539 7.95775 0)
(5.15661 8.75201 0)
(4.46812 8.80407 0)
(4.98853 8.47911 0)
(3.68036 9.02825 0)
(5.21641 8.84914 0)
(3.41631 12.268 0)
(4.75106 0.195583 0)
(4.82809 0.219575 0)
(4.72218 0.163569 0)
(4.767 0.239795 0)
(5.20926 0.351621 0)
(4.74808 0.370198 0)
(4.84623 0.48204 0)
(5.58643 0.8104 0)
(6.03936 1.29221 0)
(6.52773 0.932124 0)
(6.89755 0.650914 0)
(7.05693 0.857522 0)
(7.82467 0.572462 0)
(8.2587 0.5125 0)
(8.86404 0.329106 0)
(9.58658 0.0158588 0)
(10.4321 -0.713414 0)
(11.3092 -1.59552 0)
(11.3126 -1.93876 0)
(11.7213 -2.49562 0)
(11.9697 -2.85748 0)
(12.5671 -3.5607 0)
(13.4045 -4.43685 0)
(13.5182 -5.09108 0)
(13.6692 -5.81613 0)
(13.4172 -6.23005 0)
(12.5353 -6.18672 0)
(12.0407 -6.2626 0)
(11.8357 -6.53401 0)
(11.3556 -6.33435 0)
(10.9955 -6.48687 0)
(11.2697 -6.70264 0)
(10.7872 -6.70717 0)
(10.6149 -6.51896 0)
(10.5825 -6.58654 0)
(10.9539 -7.05648 0)
(11.5552 -7.05448 0)
(11.6877 -7.1366 0)
(11.8275 -6.85439 0)
(12.0275 -6.21583 0)
(12.0251 -5.79155 0)
(12.3754 -4.94624 0)
(12.3882 -3.97199 0)
(12.3114 -3.08116 0)
(12.3228 -1.84179 0)
(11.9785 -0.768821 0)
(11.6078 0.237852 0)
(11.492 1.47285 0)
(11.1785 2.468 0)
(10.5865 3.27379 0)
(9.69275 3.58034 0)
(8.83047 3.42393 0)
(8.12468 3.26438 0)
(7.58744 3.24823 0)
(6.96749 2.87929 0)
(6.49568 2.29992 0)
(6.42542 2.63954 0)
(6.12525 2.87162 0)
(5.62132 2.01834 0)
(5.198 1.20476 0)
(5.11378 1.56879 0)
(5.23953 2.58438 0)
(5.3304 3.2361 0)
(5.29326 3.54094 0)
(5.38201 4.27984 0)
(5.70045 5.271 0)
(5.95531 5.62638 0)
(5.82393 5.5969 0)
(5.88696 5.61339 0)
(6.4707 5.83259 0)
(6.87893 6.40719 0)
(6.82071 7.27211 0)
(7.0393 8.00763 0)
(7.38047 8.43455 0)
(7.5113 8.39567 0)
(7.8237 7.41364 0)
(8.17387 5.96887 0)
(8.35689 4.79315 0)
(8.5405 3.75211 0)
(8.80615 2.38293 0)
(8.85888 0.609939 0)
(8.68151 -1.27515 0)
(8.61799 -2.74525 0)
(8.65559 -3.94594 0)
(8.39975 -5.41144 0)
(7.96125 -6.77646 0)
(7.76131 -7.40384 0)
(7.78845 -7.67025 0)
(7.34544 -8.50667 0)
(6.93546 -9.07594 0)
(6.75093 -8.51145 0)
(6.47482 -7.72095 0)
(6.41886 -7.26559 0)
(6.19508 -7.77551 0)
(5.89243 -8.84378 0)
(5.95294 -9.25443 0)
(5.83183 -9.46569 0)
(5.6517 -9.76472 0)
(5.63363 -9.57883 0)
(5.60895 -8.88365 0)
(5.50159 -8.14307 0)
(5.37584 -7.36033 0)
(5.17516 -6.55092 0)
(4.95791 -5.72276 0)
(4.80931 -4.70267 0)
(4.66705 -3.32531 0)
(4.45894 -1.57902 0)
(4.44134 0.137675 0)
(4.81365 1.30221 0)
(5.28903 2.34304 0)
(5.64696 3.86319 0)
(5.89087 5.27449 0)
(6.15084 5.96524 0)
(6.46707 6.36168 0)
(6.8556 7.07749 0)
(7.2681 8.22065 0)
(7.63119 9.59663 0)
(7.75804 10.1755 0)
(7.64744 9.45377 0)
(7.68577 8.72901 0)
(7.48958 8.44799 0)
(7.30745 7.06391 0)
(6.61228 5.20412 0)
(5.87707 2.52466 0)
(5.85193 0.519865 0)
(5.73917 1.59247 0)
(6.23688 4.25328 0)
(6.82965 6.61048 0)
(6.72892 8.50744 0)
(7.30852 9.36942 0)
(7.25239 9.38131 0)
(7.47019 8.69654 0)
(7.42236 7.43133 0)
(7.45062 5.74807 0)
(7.44101 4.33216 0)
(7.85961 3.18639 0)
(7.91215 2.18789 0)
(8.18798 0.635778 0)
(7.99844 -1.28748 0)
(8.33422 -2.82677 0)
(8.09614 -3.89541 0)
(8.00865 -4.62172 0)
(7.55223 -4.97262 0)
(7.8894 -5.40186 0)
(7.57917 -5.8816 0)
(7.77537 -5.93287 0)
(7.44746 -5.93693 0)
(7.48725 -5.44621 0)
(7.07893 -5.37884 0)
(7.40555 -4.30331 0)
(6.85222 -4.27725 0)
(7.75911 -4.02827 0)
(6.62227 -3.87543 0)
(8.22886 -3.89341 0)
(6.50054 -4.41235 0)
(8.17168 -4.16677 0)
(5.57532 -4.36647 0)
(8.39644 -3.62337 0)
(5.3745 -3.4277 0)
(7.48677 -3.1427 0)