/*--------------------------------*- C++ -*----------------------------------*\
| =========                 |                                                 |
| \\      /  F ield         | OpenFOAM: The Open Source CFD Toolbox           |
|  \\    /   O peration     | Version:  2.4.0                                 |
|   \\  /    A nd           | Web:      www.OpenFOAM.org                      |
|    \\/     M anipulation  |                                                 |
\*---------------------------------------------------------------------------*/
FoamFile
{
    version     2.0;
    format      ascii;
    class       volScalarField;
    location    "0.007";
    object      k;
}
// * * * * * * * * * * * * * * * * * * * * * * * * * * * * * * * * * * * * * //

dimensions      [0 2 -2 0 0 0 0];

internalField   nonuniform List<scalar> 
17600
(
0.590242
0.786977
0.938817
1.04137
1.10104
1.12787
1.13171
1.12067
1.10079
1.07629
1.04999
1.02371
0.998583
0.975294
0.954206
0.935476
0.919115
0.905028
0.892861
0.884483
0.380328
0.378528
0.375866
0.373344
0.371175
0.369843
0.369905
0.37184
0.376007
0.382642
0.391864
0.403677
0.417972
0.434523
0.45299
0.472934
0.493839
0.515155
0.536766
0.5563
0.363748
0.349867
0.334429
0.31855
0.303052
0.288614
0.275769
0.264896
0.256243
0.249954
0.246108
0.244734
0.245832
0.249379
0.255329
0.263603
0.274084
0.286626
0.301209
0.317882
0.361465
0.347537
0.333149
0.318509
0.303939
0.289764
0.276271
0.263688
0.25219
0.241899
0.232901
0.225253
0.218992
0.214146
0.210734
0.208775
0.208286
0.209294
0.211891
0.216204
0.361236
0.347799
0.334532
0.321372
0.308383
0.29568
0.283387
0.271619
0.26047
0.250015
0.240309
0.231387
0.223277
0.215995
0.20955
0.203951
0.199205
0.195326
0.192349
0.190278
0.361254
0.348125
0.335506
0.323265
0.31135
0.299766
0.288544
0.277726
0.267352
0.257461
0.248081
0.239233
0.230934
0.223192
0.216011
0.209393
0.203338
0.197846
0.19292
0.188547
0.361278
0.348296
0.336005
0.324272
0.313005
0.302153
0.291691
0.281615
0.271927
0.262636
0.253751
0.245278
0.237223
0.229588
0.222374
0.215579
0.209201
0.203235
0.197678
0.192525
0.361288
0.348366
0.336226
0.324751
0.313844
0.303433
0.293466
0.283908
0.274736
0.265937
0.257502
0.249425
0.241701
0.234327
0.227296
0.220606
0.214251
0.208224
0.202521
0.197145
0.361291
0.348391
0.336314
0.324959
0.314237
0.304073
0.294403
0.285179
0.276362
0.267923
0.259841
0.252098
0.244681
0.237578
0.230781
0.224279
0.218066
0.212134
0.206475
0.201098
0.361291
0.348398
0.336345
0.325042
0.314408
0.304371
0.294868
0.285842
0.277251
0.269054
0.261223
0.253733
0.246561
0.239691
0.233109
0.226802
0.220758
0.214967
0.209422
0.204131
0.36129
0.348399
0.336353
0.325071
0.314476
0.304501
0.295083
0.286169
0.27771
0.269665
0.262
0.254683
0.247691
0.240999
0.234591
0.22845
0.222561
0.216912
0.211494
0.206314
0.361289
0.348397
0.336354
0.325079
0.3145
0.304552
0.295176
0.286319
0.277934
0.269977
0.262413
0.25521
0.248337
0.241772
0.235492
0.229479
0.223715
0.218187
0.212883
0.207808
0.361288
0.348395
0.336352
0.325079
0.314506
0.304569
0.295213
0.286384
0.278036
0.270128
0.262623
0.255486
0.24869
0.242208
0.236015
0.230093
0.224422
0.218987
0.213774
0.208788
0.361288
0.348393
0.336349
0.325076
0.314505
0.304573
0.295224
0.286408
0.278079
0.270196
0.262722
0.255624
0.248873
0.242442
0.236306
0.230444
0.224838
0.219469
0.214323
0.209405
0.361287
0.348392
0.336347
0.325073
0.314502
0.304571
0.295225
0.286415
0.278094
0.270223
0.262766
0.255689
0.248963
0.242562
0.23646
0.230636
0.225071
0.219747
0.214648
0.209778
0.361287
0.348391
0.336345
0.32507
0.314499
0.304568
0.295223
0.286415
0.278098
0.270232
0.262783
0.255717
0.249005
0.24262
0.236538
0.230737
0.225197
0.219901
0.214833
0.209995
0.361286
0.34839
0.336343
0.325068
0.314496
0.304565
0.29522
0.286412
0.278097
0.270234
0.262788
0.255727
0.249022
0.242646
0.236574
0.230787
0.225262
0.219983
0.214934
0.210116
0.361286
0.348389
0.336342
0.325066
0.314494
0.304563
0.295218
0.28641
0.278095
0.270233
0.262789
0.25573
0.249028
0.242656
0.236591
0.23081
0.225294
0.220024
0.214986
0.21018
0.361286
0.348389
0.336341
0.325065
0.314493
0.304561
0.295216
0.286408
0.278093
0.270231
0.262788
0.25573
0.24903
0.24266
0.236597
0.23082
0.225308
0.220044
0.215011
0.210212
0.361286
0.348388
0.336341
0.325065
0.314492
0.30456
0.295215
0.286407
0.278092
0.270231
0.262787
0.25573
0.24903
0.242661
0.236599
0.230824
0.225314
0.220052
0.215022
0.210225
0.361286
0.348388
0.336341
0.325065
0.314492
0.30456
0.295215
0.286407
0.278092
0.270231
0.262787
0.25573
0.24903
0.242661
0.236599
0.230824
0.225314
0.220051
0.215021
0.210224
0.361286
0.348389
0.336341
0.325065
0.314493
0.304561
0.295216
0.286408
0.278093
0.270231
0.262788
0.25573
0.24903
0.24266
0.236597
0.23082
0.225308
0.220044
0.215011
0.210211
0.361286
0.348389
0.336342
0.325066
0.314494
0.304563
0.295218
0.28641
0.278095
0.270233
0.262789
0.25573
0.249028
0.242656
0.236591
0.23081
0.225294
0.220024
0.214985
0.210178
0.361286
0.34839
0.336343
0.325068
0.314496
0.304565
0.29522
0.286412
0.278097
0.270234
0.262788
0.255727
0.249022
0.242646
0.236574
0.230787
0.225262
0.219983
0.214932
0.210112
0.361287
0.348391
0.336345
0.32507
0.314499
0.304568
0.295223
0.286415
0.278098
0.270232
0.262783
0.255717
0.249005
0.24262
0.236538
0.230737
0.225197
0.219901
0.214831
0.20999
0.361287
0.348392
0.336347
0.325073
0.314502
0.304571
0.295225
0.286415
0.278094
0.270223
0.262766
0.255689
0.248963
0.242562
0.23646
0.230636
0.225071
0.219747
0.214646
0.209772
0.361288
0.348393
0.336349
0.325076
0.314505
0.304573
0.295224
0.286408
0.278079
0.270196
0.262722
0.255624
0.248873
0.242442
0.236306
0.230444
0.224838
0.219468
0.214321
0.209399
0.361288
0.348395
0.336352
0.325079
0.314506
0.304569
0.295213
0.286384
0.278036
0.270128
0.262623
0.255486
0.24869
0.242208
0.236015
0.230093
0.224422
0.218987
0.213772
0.208782
0.361289
0.348397
0.336354
0.325079
0.3145
0.304552
0.295176
0.286319
0.277934
0.269977
0.262413
0.25521
0.248337
0.241772
0.235492
0.229479
0.223715
0.218187
0.212881
0.207803
0.36129
0.348399
0.336353
0.325071
0.314476
0.304501
0.295083
0.286169
0.27771
0.269665
0.262
0.254683
0.247691
0.241
0.234591
0.22845
0.222561
0.216913
0.211493
0.206311
0.361291
0.348398
0.336345
0.325042
0.314408
0.304371
0.294868
0.285842
0.277251
0.269054
0.261223
0.253733
0.246561
0.239691
0.233109
0.226802
0.220758
0.214968
0.209422
0.204133
0.361291
0.348391
0.336314
0.324959
0.314237
0.304073
0.294403
0.285179
0.276362
0.267923
0.259841
0.252098
0.244681
0.237578
0.230781
0.224279
0.218067
0.212135
0.206475
0.201105
0.361288
0.348366
0.336226
0.324751
0.313844
0.303433
0.293466
0.283908
0.274736
0.265937
0.257502
0.249425
0.241701
0.234327
0.227297
0.220607
0.214251
0.208225
0.20252
0.197157
0.361278
0.348296
0.336005
0.324272
0.313005
0.302153
0.291691
0.281615
0.271927
0.262636
0.253751
0.245278
0.237223
0.229588
0.222374
0.21558
0.209201
0.203235
0.197671
0.192533
0.361254
0.348125
0.335506
0.323265
0.31135
0.299766
0.288544
0.277726
0.267352
0.257461
0.248081
0.239233
0.230934
0.223192
0.216011
0.209393
0.203337
0.19784
0.192892
0.188513
0.361236
0.347799
0.334532
0.321372
0.308383
0.29568
0.283387
0.271619
0.26047
0.250015
0.240308
0.231387
0.223277
0.215995
0.20955
0.20395
0.199202
0.195309
0.192263
0.190061
0.361465
0.347537
0.333149
0.318509
0.303939
0.289764
0.276271
0.263688
0.25219
0.241899
0.232901
0.225253
0.218992
0.214146
0.210734
0.208773
0.208277
0.209251
0.211665
0.215431
0.363748
0.349867
0.334429
0.31855
0.303052
0.288614
0.275769
0.264896
0.256243
0.249954
0.246108
0.244733
0.245831
0.249379
0.255328
0.263598
0.274068
0.286559
0.300794
0.31644
0.380328
0.378528
0.375866
0.373344
0.371175
0.369843
0.369905
0.37184
0.376007
0.382642
0.391864
0.403677
0.417972
0.434522
0.452989
0.472933
0.493833
0.515131
0.536247
0.556919
0.590242
0.786977
0.938817
1.04137
1.10104
1.12787
1.13171
1.12067
1.10079
1.07629
1.04999
1.02371
0.998585
0.975297
0.954211
0.935485
0.919138
0.905081
0.893205
0.88299
1.12442
1.37251
1.60314
1.81124
1.98875
2.13241
2.24521
2.33293
2.40185
2.45763
2.50461
2.54577
2.58301
2.61746
2.64987
2.68078
2.71052
2.73938
2.76755
2.79522
2.82253
2.84963
2.87662
2.9036
2.93063
2.95779
2.98513
3.01271
3.04056
3.06871
3.09717
3.12593
3.15498
3.18431
3.21389
3.24366
3.27359
3.30363
3.33371
3.36378
3.39378
3.42363
3.45327
3.48265
3.51169
3.54032
3.56849
3.59612
3.62316
3.64953
3.67517
3.7
3.72398
3.74701
3.76904
3.78999
3.80979
3.82837
3.84564
3.86154
3.87599
3.88891
3.90023
3.90986
3.91774
3.9238
3.92796
3.93017
3.93037
3.92849
3.92451
3.91837
3.91005
3.89954
3.88681
3.87187
3.85474
3.83544
3.81401
3.79049
3.76494
3.73745
3.70809
3.67696
3.64418
3.60986
3.57414
3.53715
3.49904
3.45998
3.42014
3.37968
3.33879
3.29767
3.25651
3.21551
3.17489
3.13487
3.09566
3.05751
3.02066
2.98535
2.95186
2.92044
2.89141
2.86504
2.84166
2.82161
2.80523
2.79288
2.78494
2.78177
2.78374
2.79121
2.80449
2.82382
2.84939
2.88126
2.91936
2.96349
3.01327
3.0682
3.12759
3.19067
3.25656
3.32433
3.39307
3.46185
3.52982
3.5962
3.66031
3.72157
3.77952
3.8338
3.88413
3.93036
3.97239
4.0102
4.04385
4.07342
4.09906
4.12093
4.1392
4.15409
4.16579
4.17451
4.1805
4.18396
4.18508
4.18406
4.1811
4.17638
4.17007
4.16234
4.15336
4.14326
4.1322
4.12031
4.10772
4.09457
4.08096
4.06703
4.05289
4.03866
4.02447
4.01043
3.99668
3.98335
3.97059
3.95855
3.94739
3.9373
3.92849
3.92118
3.91563
3.91213
3.91102
3.9127
3.91763
3.92638
3.93964
3.95826
3.98332
4.01622
4.05881
4.11356
4.18385
4.27434
4.39138
4.54359
4.74225
5.0014
5.33722
5.7662
6.30168
6.94824
7.69187
8.48535
9.14107
6.02497
0.579404
0.622119
0.685996
0.772386
0.879758
1.00457
1.14141
1.28386
1.4255
1.56086
1.68605
1.79902
1.89936
1.98787
2.06602
2.13554
2.19802
2.25482
2.30697
2.35526
2.40029
2.44256
2.48246
2.52039
2.55667
2.59158
2.62536
2.65822
2.69033
2.72183
2.75283
2.78342
2.81368
2.84366
2.8734
2.90294
2.93229
2.96145
2.99043
3.01919
3.04774
3.07603
3.10405
3.13176
3.15912
3.1861
3.21265
3.23874
3.26431
3.28932
3.31372
3.33745
3.36047
3.38272
3.40413
3.42464
3.4442
3.46272
3.48015
3.49641
3.51142
3.5251
3.5374
3.54821
3.55748
3.56512
3.57107
3.57524
3.57759
3.57804
3.57654
3.57305
3.56753
3.55994
3.55027
3.53851
3.52466
3.50873
3.49075
3.47076
3.4488
3.42495
3.39926
3.37184
3.34278
3.31219
3.28019
3.24691
3.21249
3.17709
3.14085
3.10396
3.06657
3.02888
2.99107
2.95333
2.91587
2.8789
2.84263
2.80728
2.77309
2.74029
2.70914
2.67991
2.65286
2.62829
2.60651
2.58785
2.57265
2.56127
2.55409
2.5515
2.5539
2.56167
2.57518
2.59475
2.62063
2.65298
2.69183
2.73707
2.78844
2.84548
2.90758
2.974
3.04388
3.11626
3.19017
3.26465
3.33876
3.41164
3.48253
3.55076
3.61578
3.67716
3.73456
3.78777
3.83663
3.88111
3.9212
3.95699
3.98859
4.01616
4.03987
4.05992
4.07652
4.08989
4.10029
4.10791
4.11296
4.11565
4.11619
4.11476
4.11155
4.10673
4.10049
4.09298
4.08436
4.07477
4.06435
4.05325
4.0416
4.02952
4.01714
4.0046
3.99201
3.97953
3.96727
3.95539
3.94404
3.93337
3.92356
3.91481
3.90732
3.90133
3.8971
3.89493
3.89518
3.89824
3.90461
3.91484
3.92964
3.94988
3.97666
4.01139
4.05594
4.11284
4.18552
4.27871
4.39896
4.55512
4.75893
5.02514
5.37098
5.81444
6.37079
7.04757
7.83304
8.68863
9.32055
7.07913
0.323446
0.330813
0.341131
0.355857
0.377103
0.406511
0.445645
0.495765
0.55774
0.631719
0.716977
0.811903
0.914128
1.0208
1.12894
1.23574
1.33892
1.43685
1.52859
1.61382
1.69268
1.76562
1.83325
1.89619
1.95501
2.01021
2.06223
2.11142
2.15809
2.20253
2.245
2.28572
2.3249
2.36272
2.39934
2.4349
2.4695
2.50323
2.53617
2.56838
2.59991
2.63079
2.66106
2.69074
2.71984
2.74837
2.77632
2.80369
2.83047
2.85665
2.8822
2.90709
2.93129
2.95477
2.97749
2.9994
3.02045
3.04058
3.05975
3.07788
3.09491
3.11076
3.12538
3.13868
3.15058
3.16102
3.16992
3.17721
3.18282
3.18668
3.18873
3.18892
3.18721
3.18355
3.17792
3.17029
3.16067
3.14904
3.13543
3.11987
3.10238
3.08304
3.06189
3.03901
3.0145
2.98845
2.96098
2.93219
2.90223
2.87123
2.83935
2.80673
2.77355
2.73997
2.70617
2.67233
2.63866
2.60534
2.57258
2.54059
2.50959
2.47981
2.45149
2.42487
2.40023
2.37784
2.35799
2.34101
2.32723
2.317
2.31072
2.30877
2.31157
2.31954
2.3331
2.35262
2.37844
2.41082
2.44991
2.4957
2.54805
2.60659
2.67083
2.74006
2.81344
2.89002
2.96881
3.04877
3.1289
3.20825
3.28595
3.36127
3.43354
3.50226
3.56702
3.62752
3.68357
3.73506
3.78197
3.82435
3.86229
3.89592
3.92543
3.95101
3.97287
3.99123
4.00636
4.01846
4.02776
4.03446
4.03878
4.04091
4.04105
4.03941
4.03615
4.03145
4.02548
4.01839
4.01035
4.00149
3.99196
3.9819
3.97145
3.96075
3.94992
3.93912
3.92849
3.91817
3.90834
3.89915
3.89079
3.88345
3.87736
3.87275
3.86991
3.86912
3.87076
3.87524
3.88303
3.89473
3.91105
3.93285
3.96125
3.99768
4.04402
4.1028
4.17749
4.27286
4.39553
4.5545
4.76177
5.03251
5.38459
5.83688
6.40551
7.0989
7.90376
8.77435
9.37242
7.91099
0.21754
0.219046
0.220832
0.223075
0.226085
0.230222
0.23597
0.243977
0.254909
0.269532
0.288731
0.313443
0.344584
0.382953
0.429113
0.483286
0.54527
0.614408
0.689617
0.769478
0.852369
0.936626
1.0207
1.10326
1.18331
1.26016
1.33343
1.40302
1.46898
1.53149
1.59079
1.64714
1.70077
1.75192
1.80079
1.84756
1.89242
1.93551
1.97698
2.01697
2.0556
2.09297
2.12919
2.16432
2.19845
2.23164
2.26393
2.29537
2.32598
2.35579
2.38482
2.41308
2.44056
2.46726
2.49316
2.51824
2.54248
2.56584
2.58827
2.60973
2.63017
2.64953
2.66775
2.68475
2.70048
2.71486
2.72782
2.73929
2.7492
2.75748
2.76408
2.76892
2.77196
2.77316
2.77247
2.76988
2.76535
2.7589
2.75052
2.74022
2.72805
2.71403
2.69822
2.6807
2.66152
2.64079
2.6186
2.59507
2.5703
2.54444
2.51762
2.48998
2.46169
2.43289
2.40376
2.37447
2.34521
2.31615
2.28749
2.25943
2.23217
2.20594
2.18094
2.15743
2.13565
2.11585
2.09833
2.08338
2.07133
2.06251
2.05732
2.05614
2.05941
2.06756
2.08105
2.10031
2.12577
2.15777
2.19659
2.24235
2.29504
2.35444
2.42014
2.49154
2.56784
2.64812
2.73136
2.81646
2.90237
2.98804
3.0725
3.15491
3.23452
3.31072
3.38301
3.45102
3.5145
3.57328
3.6273
3.67657
3.72114
3.76116
3.79677
3.82817
3.85558
3.87922
3.89937
3.91624
3.93005
3.94101
3.94935
3.95528
3.95902
3.96075
3.96068
3.95899
3.95587
3.95147
3.94597
3.93951
3.93227
3.92438
3.91599
3.90725
3.8983
3.8893
3.8804
3.87175
3.86353
3.8559
3.84906
3.84321
3.83857
3.8354
3.83397
3.83459
3.83763
3.84352
3.85273
3.86585
3.88362
3.90689
3.93679
3.97475
4.02265
4.08301
4.15928
4.25624
4.38049
4.54105
4.74998
5.02261
5.37705
5.83238
6.4048
7.10197
7.90755
8.76443
9.35436
8.46064
0.189698
0.18918
0.188729
0.188362
0.188119
0.188046
0.188207
0.188689
0.189611
0.191131
0.193427
0.196726
0.201307
0.207512
0.215745
0.226478
0.240238
0.257591
0.27911
0.305326
0.336672
0.373429
0.415666
0.463217
0.515665
0.57237
0.632514
0.695171
0.75938
0.824224
0.888885
0.952686
1.01511
1.0758
1.13454
1.19123
1.24583
1.2984
1.349
1.39773
1.44469
1.48997
1.53368
1.57591
1.61675
1.65628
1.69458
1.73173
1.76778
1.8028
1.83682
1.8699
1.90206
1.93331
1.96368
1.99317
2.02177
2.04947
2.07625
2.10208
2.12692
2.15073
2.17346
2.19506
2.21546
2.23461
2.25244
2.26887
2.28385
2.29731
2.30918
2.31941
2.32793
2.33469
2.33966
2.34281
2.34409
2.34351
2.34105
2.33672
2.33054
2.32255
2.31277
2.30127
2.28812
2.27338
2.25715
2.23953
2.22062
2.20055
2.17943
2.15741
2.13463
2.11123
2.08737
2.06322
2.03894
2.01471
1.9907
1.9671
1.9441
1.92191
1.90073
1.88077
1.86228
1.84549
1.83066
1.81809
1.80806
1.80092
1.79701
1.79674
1.80053
1.80883
1.82212
1.84088
1.86561
1.89675
1.93469
1.97971
2.03195
2.09134
2.15762
2.23032
2.30873
2.39197
2.47901
2.56874
2.66001
2.75169
2.84272
2.93213
3.01906
3.1028
3.18274
3.25845
3.32957
3.39588
3.45727
3.5137
3.56521
3.61189
3.6539
3.69143
3.72466
3.75388
3.77933
3.80124
3.81983
3.83532
3.84793
3.85791
3.86546
3.87079
3.87413
3.87565
3.87556
3.87403
3.87124
3.86736
3.86255
3.85698
3.85079
3.84415
3.8372
3.83012
3.82305
3.81617
3.80965
3.80366
3.79842
3.79411
3.79099
3.78929
3.78931
3.79136
3.79582
3.8031
3.8137
3.82821
3.84736
3.87201
3.90329
3.9426
3.99183
4.05345
4.13089
4.22885
4.35385
4.51481
4.72367
4.99563
5.34865
5.80156
6.36987
7.05956
7.8511
8.67753
9.2668
8.76899
0.187264
0.186034
0.184848
0.183708
0.18262
0.181588
0.180622
0.179731
0.178934
0.178255
0.177729
0.177393
0.177295
0.177499
0.178079
0.17913
0.180768
0.183134
0.186398
0.190761
0.196461
0.203769
0.212988
0.224446
0.238484
0.255431
0.275588
0.29919
0.326386
0.357214
0.391586
0.429284
0.469978
0.513241
0.558581
0.605477
0.653411
0.701899
0.750512
0.79889
0.846746
0.893865
0.940097
0.985346
1.02956
1.07271
1.1148
1.15585
1.19588
1.23492
1.27299
1.31013
1.34635
1.38168
1.41614
1.44973
1.48247
1.51433
1.54533
1.57543
1.60462
1.63286
1.66011
1.68632
1.71145
1.73544
1.75822
1.77974
1.79993
1.81872
1.83605
1.85186
1.86609
1.87867
1.88957
1.89874
1.90614
1.91176
1.91558
1.91759
1.9178
1.91622
1.9129
1.90786
1.90116
1.89287
1.88306
1.87182
1.85925
1.84544
1.83051
1.81459
1.7978
1.78028
1.76218
1.74364
1.72481
1.70587
1.68696
1.66827
1.64996
1.63223
1.61526
1.59926
1.58443
1.57099
1.55919
1.54929
1.54156
1.5363
1.53387
1.53463
1.53899
1.54739
1.56034
1.57834
1.60194
1.63167
1.66804
1.71146
1.76225
1.82055
1.88628
1.95912
2.03851
2.12366
2.21357
2.30711
2.40308
2.50026
2.59747
2.69363
2.78774
2.87896
2.9666
3.05009
3.129
3.20305
3.27204
3.33589
3.39459
3.44822
3.49692
3.54084
3.58018
3.61526
3.64631
3.67353
3.69716
3.71743
3.73458
3.74884
3.76043
3.7696
3.77654
3.78148
3.78462
3.78614
3.78624
3.7851
3.78289
3.77977
3.77593
3.77152
3.7667
3.76165
3.75653
3.75151
3.74678
3.74252
3.73893
3.73624
3.73468
3.7345
3.736
3.7395
3.74538
3.75404
3.76601
3.78187
3.80232
3.82826
3.86078
3.90128
3.9516
4.01419
4.09239
4.19079
4.31574
4.47597
4.68312
4.95202
5.30015
5.74562
6.30282
6.97563
7.74181
8.52824
9.11046
8.87534
0.190995
0.189514
0.188069
0.18666
0.185287
0.183952
0.182653
0.181393
0.180174
0.179
0.177877
0.176813
0.175816
0.174899
0.174078
0.173371
0.172803
0.172401
0.172202
0.172246
0.172584
0.173275
0.174392
0.176016
0.178248
0.181201
0.185005
0.189809
0.195776
0.203082
0.211911
0.222449
0.234874
0.249344
0.265986
0.284885
0.306078
0.32954
0.355191
0.382897
0.412472
0.443699
0.476334
0.510125
0.544819
0.58018
0.615991
0.652058
0.68822
0.724339
0.760304
0.796027
0.831435
0.866474
0.901097
0.935264
0.968939
1.00209
1.03468
1.06667
1.09802
1.12869
1.15863
1.18779
1.21611
1.24353
1.26999
1.29541
1.31974
1.34289
1.36479
1.38539
1.4046
1.42238
1.43864
1.45335
1.46646
1.47793
1.48773
1.49584
1.50226
1.50698
1.51002
1.51141
1.51118
1.50939
1.50608
1.50133
1.49522
1.48784
1.47929
1.46967
1.4591
1.4477
1.43559
1.42292
1.40981
1.39642
1.38289
1.36937
1.35604
1.34304
1.33055
1.31876
1.30784
1.298
1.28945
1.28243
1.27718
1.27398
1.27314
1.275
1.27994
1.2884
1.30084
1.31781
1.33986
1.36759
1.4016
1.44247
1.49068
1.54657
1.61031
1.6818
1.76066
1.84627
1.9377
2.03387
2.13353
2.23537
2.33811
2.44052
2.54147
2.63997
2.7352
2.82647
2.91325
2.99515
3.07191
3.14338
3.20951
3.27034
3.32597
3.37656
3.42229
3.4635
3.50041
3.53322
3.56216
3.58748
3.6094
3.62818
3.64406
3.65727
3.66804
3.6766
3.68316
3.68792
3.69108
3.69284
3.69338
3.69288
3.69152
3.68947
3.6869
3.684
3.68093
3.67787
3.67502
3.67257
3.67072
3.6697
3.66976
3.67114
3.67415
3.67912
3.68641
3.69646
3.70976
3.72691
3.74861
3.77574
3.80937
3.85088
3.90208
3.96533
4.04389
4.1422
4.26638
4.42483
4.62878
4.89246
5.23258
5.66624
6.20643
6.85481
7.58728
8.32847
8.89362
8.82474
0.195539
0.19398
0.19245
0.190949
0.189478
0.188037
0.186624
0.185239
0.183883
0.182557
0.18126
0.179994
0.178761
0.177564
0.176405
0.17529
0.174224
0.173214
0.172268
0.171396
0.170611
0.169927
0.169361
0.168934
0.168667
0.16859
0.168732
0.169129
0.169824
0.170863
0.1723
0.174196
0.176619
0.179645
0.183356
0.187839
0.193189
0.199499
0.206866
0.215379
0.225124
0.236173
0.248582
0.262391
0.277618
0.294259
0.312286
0.331651
0.352287
0.374111
0.397026
0.42093
0.445711
0.471258
0.497461
0.52421
0.551402
0.578936
0.606715
0.634647
0.662643
0.690615
0.718477
0.746142
0.773525
0.800539
0.827095
0.853103
0.878475
0.90312
0.926947
0.949869
0.971798
0.992652
1.01235
1.03082
1.048
1.06383
1.07825
1.09123
1.10273
1.11274
1.12125
1.12825
1.13377
1.13782
1.14046
1.14171
1.14164
1.14033
1.13784
1.13426
1.12969
1.12423
1.11798
1.11107
1.1036
1.09571
1.08753
1.07918
1.07082
1.06257
1.05459
1.04705
1.04009
1.0339
1.02866
1.02456
1.02184
1.02073
1.02149
1.02444
1.02991
1.0383
1.05006
1.06569
1.08575
1.11088
1.14175
1.17902
1.22337
1.27535
1.33539
1.40366
1.48006
1.56419
1.65531
1.7524
1.85425
1.95948
2.06669
2.17452
2.28168
2.38701
2.48953
2.58841
2.68298
2.77276
2.85737
2.9366
3.01033
3.07856
3.14135
3.19883
3.2512
3.29881
3.34184
3.3805
3.41501
3.44561
3.47255
3.49609
3.51648
3.53396
3.54877
3.56115
3.57132
3.57951
3.58591
3.59074
3.59419
3.59645
3.59771
3.59816
3.59797
3.59732
3.59641
3.59541
3.59453
3.59396
3.59392
3.59464
3.59636
3.59934
3.6039
3.61034
3.61906
3.63047
3.64508
3.66347
3.68635
3.71457
3.74918
3.79154
3.8434
3.90704
3.9856
4.08331
4.20605
4.3618
4.56121
4.81779
5.14726
5.56545
6.08382
6.70207
7.39501
8.08828
8.62798
8.66088
0.199486
0.197919
0.196375
0.194857
0.193364
0.191895
0.19045
0.189029
0.187631
0.186257
0.184906
0.183578
0.182273
0.180992
0.179736
0.178505
0.1773
0.176125
0.17498
0.173868
0.172793
0.171759
0.17077
0.169832
0.168952
0.168138
0.167397
0.16674
0.166178
0.165725
0.165395
0.165203
0.165169
0.165313
0.165658
0.166228
0.167052
0.168162
0.169589
0.171373
0.173552
0.176169
0.179269
0.182901
0.187113
0.191956
0.197478
0.20373
0.210758
0.218604
0.227307
0.236901
0.247409
0.25885
0.27123
0.28455
0.298797
0.31395
0.329977
0.346835
0.364473
0.38283
0.401836
0.421414
0.44148
0.461941
0.482702
0.503662
0.524714
0.545752
0.566665
0.587344
0.607679
0.627563
0.646889
0.665558
0.683473
0.700547
0.716698
0.731854
0.745951
0.758938
0.770773
0.781426
0.790879
0.799124
0.806167
0.812024
0.816723
0.820303
0.822811
0.824305
0.824853
0.824528
0.823412
0.821594
0.819168
0.816236
0.812901
0.809274
0.805469
0.801605
0.797808
0.794206
0.790936
0.788142
0.78598
0.784614
0.784228
0.785022
0.787223
0.791085
0.796904
0.805019
0.815826
0.829785
0.847428
0.869368
0.89629
0.928944
0.968112
1.01456
1.06896
1.13182
1.20338
1.28356
1.3719
1.46758
1.56946
1.67619
1.78628
1.89821
2.01052
2.12188
2.23109
2.33716
2.43926
2.53676
2.62917
2.71619
2.79761
2.87336
2.94346
3.00803
3.06726
3.1215
3.17088
3.21563
3.25594
3.29207
3.32428
3.3528
3.37792
3.39988
3.41894
3.43534
3.44932
3.4611
3.47092
3.47899
3.4855
3.49067
3.4947
3.49777
3.50007
3.5018
3.50315
3.50431
3.50549
3.50689
3.50872
3.51124
3.51467
3.5193
3.52541
3.53336
3.5435
3.55626
3.57215
3.59174
3.61572
3.64493
3.68041
3.72346
3.77576
3.83953
3.91774
4.01443
4.13512
4.28735
4.48111
4.72901
5.04564
5.44545
5.93836
6.5224
7.17212
7.81647
8.32527
8.41888
0.202542
0.200994
0.199468
0.197963
0.19648
0.195019
0.193578
0.192158
0.190759
0.18938
0.188021
0.186681
0.18536
0.184059
0.182778
0.181516
0.180274
0.179052
0.177851
0.176672
0.175514
0.174381
0.173272
0.17219
0.171136
0.170113
0.169124
0.168171
0.167258
0.16639
0.16557
0.164804
0.164098
0.163458
0.162891
0.162405
0.162008
0.161709
0.161519
0.161449
0.161511
0.161717
0.162083
0.162624
0.163357
0.164299
0.165472
0.166896
0.168595
0.170592
0.172915
0.175591
0.178648
0.182118
0.186032
0.19042
0.195314
0.200746
0.206743
0.213334
0.220541
0.228382
0.236873
0.246018
0.255817
0.266261
0.277329
0.288991
0.301209
0.313931
0.327096
0.340635
0.354468
0.36851
0.382669
0.39685
0.410956
0.424889
0.438552
0.451854
0.464707
0.47703
0.488749
0.499802
0.510135
0.519702
0.528472
0.536424
0.543545
0.549836
0.555309
0.559984
0.563891
0.567069
0.569566
0.571437
0.572745
0.573557
0.573947
0.573995
0.573786
0.573408
0.572957
0.57253
0.572234
0.572182
0.572491
0.573294
0.574732
0.576964
0.580168
0.584549
0.59034
0.597821
0.607317
0.619218
0.633988
0.652181
0.674446
0.701531
0.734277
0.773583
0.820351
0.875403
0.939375
1.0126
1.09504
1.1862
1.28518
1.39072
1.50132
1.61534
1.73116
1.84721
1.96208
2.07456
2.18362
2.28846
2.38843
2.48309
2.57215
2.65544
2.73294
2.80468
2.87096
2.932
2.98795
3.03899
3.08532
3.1272
3.16487
3.1986
3.22866
3.25531
3.27881
3.29942
3.31739
3.33296
3.34636
3.35782
3.36756
3.37578
3.38271
3.38853
3.39345
3.39767
3.40138
3.4048
3.40812
3.41156
3.41534
3.41971
3.42491
3.43121
3.43892
3.44838
3.45994
3.47405
3.49118
3.51192
3.53693
3.56705
3.60327
3.64685
3.69942
3.76307
3.84062
3.93588
4.05401
4.20204
4.38922
4.62719
4.9293
5.30856
5.7734
6.32062
6.92517
7.52075
7.99592
8.12456
0.204755
0.203237
0.201739
0.20026
0.198801
0.19736
0.195939
0.194537
0.193153
0.191786
0.190438
0.189107
0.187794
0.186498
0.185219
0.183957
0.182712
0.181484
0.180273
0.17908
0.177904
0.176745
0.175605
0.174483
0.17338
0.172297
0.171235
0.170194
0.169176
0.168182
0.167214
0.166273
0.165361
0.16448
0.163633
0.162823
0.162052
0.161323
0.16064
0.160007
0.159428
0.158906
0.158447
0.158057
0.157739
0.157501
0.157349
0.15729
0.157331
0.157481
0.157749
0.158144
0.158677
0.159359
0.160204
0.161225
0.162436
0.163853
0.165493
0.167373
0.169513
0.171932
0.174648
0.177683
0.181053
0.184779
0.188876
0.193357
0.198233
0.203511
0.209191
0.215268
0.221733
0.228565
0.235741
0.243225
0.250979
0.258954
0.267098
0.275354
0.283659
0.291951
0.300166
0.308242
0.316117
0.323736
0.331048
0.338008
0.344578
0.350729
0.356439
0.361694
0.366489
0.370827
0.374719
0.378185
0.381248
0.383943
0.386307
0.388385
0.390227
0.391888
0.393429
0.394915
0.396417
0.398011
0.399782
0.40182
0.404229
0.40712
0.410624
0.41489
0.42009
0.426433
0.434166
0.443592
0.455078
0.469079
0.48615
0.506964
0.532327
0.563169
0.600522
0.645456
0.698983
0.761922
0.834757
0.917519
1.00973
1.1104
1.21816
1.33134
1.44816
1.56684
1.68571
1.80329
1.91832
2.02973
2.13672
2.23865
2.3351
2.42579
2.51062
2.58955
2.66297
2.73094
2.79359
2.85108
2.90361
2.95142
2.99475
3.03387
3.06906
3.10058
3.12871
3.15372
3.17585
3.19537
3.21252
3.22753
3.24064
3.25206
3.26202
3.27072
3.27837
3.28519
3.29137
3.29714
3.30269
3.30825
3.31405
3.32032
3.32733
3.33535
3.34468
3.35566
3.36865
3.38408
3.40243
3.42427
3.45025
3.48118
3.51803
3.562
3.61465
3.67796
3.75459
3.84807
3.96321
4.10648
4.28636
4.51346
4.79985
5.15709
5.59225
6.10126
6.66006
7.20792
7.64868
7.79644
0.206281
0.204792
0.203323
0.201871
0.200438
0.199023
0.197625
0.196245
0.194881
0.193535
0.192205
0.190891
0.189594
0.188312
0.187046
0.185796
0.184561
0.183342
0.182139
0.18095
0.179777
0.178619
0.177477
0.176349
0.175238
0.174142
0.173062
0.171998
0.170951
0.169921
0.168908
0.167913
0.166937
0.16598
0.165044
0.164128
0.163235
0.162365
0.161519
0.1607
0.159907
0.159144
0.15841
0.157709
0.157043
0.156412
0.155821
0.15527
0.154763
0.154302
0.153891
0.153533
0.153231
0.152989
0.152813
0.152705
0.152673
0.15272
0.152854
0.15308
0.153407
0.153841
0.154392
0.155067
0.155876
0.156829
0.157935
0.159205
0.160648
0.162274
0.164092
0.16611
0.168333
0.170768
0.173415
0.176275
0.179344
0.182615
0.186078
0.189719
0.193519
0.197457
0.201509
0.205646
0.20984
0.214058
0.218271
0.222445
0.226552
0.230562
0.23445
0.238195
0.241777
0.245183
0.248404
0.251435
0.254277
0.256936
0.259422
0.26175
0.263941
0.266019
0.268014
0.269959
0.271893
0.273859
0.275907
0.278091
0.280475
0.283129
0.286137
0.289594
0.293615
0.298337
0.303929
0.310597
0.318602
0.328272
0.340025
0.354391
0.372039
0.393801
0.420682
0.453846
0.494557
0.544067
0.603452
0.673422
0.754162
0.845242
0.945641
1.05385
1.16804
1.28626
1.40658
1.5272
1.64654
1.76326
1.87629
1.98476
2.08807
2.18579
2.27768
2.36373
2.44422
2.51913
2.58854
2.65258
2.71142
2.76528
2.81442
2.8591
2.89958
2.93614
2.96906
2.99862
3.02508
3.04871
3.06975
3.08846
3.10508
3.11984
3.13295
3.14466
3.15516
3.16468
3.17344
3.18164
3.1895
3.19726
3.20513
3.21337
3.22224
3.23201
3.24299
3.2555
3.26992
3.28666
3.3062
3.32909
3.35598
3.38764
3.42501
3.46924
3.5218
3.58458
3.66003
3.75145
3.86325
4.00133
4.17339
4.38898
4.65889
4.99327
5.39797
5.86843
6.38198
6.88383
7.29068
7.44772
0.207287
0.205824
0.204379
0.202953
0.201543
0.200151
0.198775
0.197416
0.196074
0.194747
0.193437
0.192141
0.190862
0.189597
0.188347
0.187113
0.185893
0.184687
0.183496
0.182319
0.181156
0.180008
0.178873
0.177752
0.176645
0.175553
0.174474
0.173409
0.172358
0.171321
0.170298
0.16929
0.168296
0.167318
0.166354
0.165406
0.164473
0.163556
0.162656
0.161773
0.160908
0.16006
0.159231
0.158422
0.157632
0.156863
0.156115
0.15539
0.154688
0.154009
0.153357
0.15273
0.152131
0.151561
0.151022
0.150514
0.150041
0.149603
0.149204
0.148844
0.148528
0.148257
0.148035
0.147865
0.14775
0.147694
0.147702
0.147777
0.147923
0.148146
0.14845
0.148839
0.149317
0.149889
0.150558
0.151327
0.152199
0.153175
0.154255
0.155439
0.156725
0.158108
0.159584
0.161145
0.162785
0.164492
0.166257
0.168067
0.16991
0.171774
0.173645
0.175512
0.177362
0.179186
0.180974
0.182719
0.184416
0.186061
0.187655
0.189199
0.190699
0.192161
0.193596
0.195018
0.196443
0.197891
0.199386
0.200956
0.202633
0.204455
0.206469
0.208727
0.211295
0.214251
0.217695
0.221749
0.226571
0.232363
0.239392
0.248009
0.258678
0.272015
0.288824
0.310129
0.33719
0.371458
0.414466
0.46763
0.532002
0.608037
0.695456
0.79325
0.899816
1.01317
1.13117
1.2517
1.37282
1.49283
1.6103
1.72408
1.83329
1.9373
2.0357
2.12861
2.21596
2.29769
2.37378
2.44435
2.50953
2.56952
2.62456
2.67488
2.72078
2.76251
2.80036
2.83461
2.86554
2.89341
2.91849
2.94104
2.96129
2.97951
2.99591
3.01073
3.02419
3.03652
3.04794
3.05866
3.06892
3.07894
3.08896
3.09922
3.10999
3.12154
3.13419
3.14825
3.16409
3.18213
3.20284
3.22674
3.25447
3.28678
3.32457
3.36893
3.42126
3.48332
3.55739
3.64651
3.75469
3.88728
4.05118
4.2549
4.50797
4.81922
5.19342
5.6258
6.09542
6.55344
6.92762
7.08784
0.207923
0.206481
0.205056
0.203649
0.202258
0.200885
0.199528
0.198187
0.196863
0.195554
0.19426
0.192981
0.191718
0.190469
0.189235
0.188015
0.18681
0.185618
0.18444
0.183276
0.182125
0.180988
0.179864
0.178753
0.177655
0.176571
0.175499
0.17444
0.173394
0.17236
0.171339
0.170331
0.169336
0.168354
0.167385
0.166428
0.165485
0.164555
0.163638
0.162734
0.161844
0.160968
0.160106
0.159257
0.158424
0.157604
0.156799
0.15601
0.155235
0.154477
0.153734
0.153007
0.152297
0.151604
0.150929
0.150272
0.149633
0.149014
0.148415
0.147837
0.14728
0.146746
0.146236
0.14575
0.145291
0.144859
0.144456
0.144084
0.143745