/*--------------------------------*- C++ -*----------------------------------*\
| =========                 |                                                 |
| \\      /  F ield         | OpenFOAM: The Open Source CFD Toolbox           |
|  \\    /   O peration     | Version:  2.4.0                                 |
|   \\  /    A nd           | Web:      www.OpenFOAM.org                      |
|    \\/     M anipulation  |                                                 |
\*---------------------------------------------------------------------------*/
FoamFile
{
    version     2.0;
    format      ascii;
    class       volVectorField;
    location    "0.007";
    object      UMean;
}
// * * * * * * * * * * * * * * * * * * * * * * * * * * * * * * * * * * * * * //

dimensions      [0 1 -1 0 0 0 0];

internalField   nonuniform List<vector> 
17600
(
(9.80552 -0.277356 0)
(9.60921 -0.14792 0)
(9.37743 -0.0801773 0)
(9.14392 -0.0414524 0)
(8.92144 -0.0191296 0)
(8.71194 -0.00639349 0)
(8.51605 0.000675753 0)
(8.33448 0.00439687 0)
(8.16725 0.00614087 0)
(8.01392 0.00673088 0)
(7.87391 0.00667069 0)
(7.74649 0.00626857 0)
(7.63093 0.00570723 0)
(7.52629 0.00509922 0)
(7.43162 0.0045142 0)
(7.34578 0.00400957 0)
(7.26709 0.00365397 0)
(7.19339 0.00354229 0)
(7.11598 0.00421597 0)
(7.04806 -0.00380537 0)
(9.99201 0.122217 0)
(9.9773 0.107792 0)
(9.93814 0.0853611 0)
(9.88437 0.0689414 0)
(9.82245 0.0568746 0)
(9.75307 0.0479366 0)
(9.67726 0.0412628 0)
(9.59693 0.0361992 0)
(9.5137 0.0322317 0)
(9.42888 0.0290011 0)
(9.34356 0.0262814 0)
(9.25865 0.0239274 0)
(9.17493 0.0218385 0)
(9.09287 0.019962 0)
(9.0128 0.0182789 0)
(8.93472 0.0168259 0)
(8.85794 0.0157281 0)
(8.78103 0.0152839 0)
(8.6975 0.0164867 0)
(8.59723 0.0432453 0)
(10.0052 0.0370439 0)
(10.0197 0.025903 0)
(10.0249 0.0230185 0)
(10.0238 0.0256107 0)
(10.0205 0.028378 0)
(10.0139 0.0301772 0)
(10.0033 0.0310716 0)
(9.98874 0.0312881 0)
(9.97059 0.0309802 0)
(9.94891 0.0302769 0)
(9.92378 0.0293098 0)
(9.89529 0.0281791 0)
(9.86355 0.0269537 0)
(9.8285 0.025708 0)
(9.79007 0.0245197 0)
(9.74802 0.0235177 0)
(9.70166 0.0229595 0)
(9.64978 0.0233862 0)
(9.58682 0.0268512 0)
(9.51128 0.0467657 0)
(10.0072 0.0296756 0)
(10.0266 0.0315105 0)
(10.041 0.033005 0)
(10.0514 0.035392 0)
(10.0619 0.0365033 0)
(10.0714 0.0364386 0)
(10.079 0.0357595 0)
(10.0848 0.0348195 0)
(10.0887 0.0337424 0)
(10.0908 0.0325939 0)
(10.091 0.0314402 0)
(10.0892 0.0303168 0)
(10.0853 0.0292446 0)
(10.0792 0.0282677 0)
(10.0706 0.0274484 0)
(10.0591 0.0269266 0)
(10.0439 0.0270192 0)
(10.0237 0.0284381 0)
(9.99425 0.0335042 0)
(9.95979 0.0521038 0)
(10.0068 0.0265987 0)
(10.0267 0.0305723 0)
(10.0437 0.0312793 0)
(10.0576 0.0328366 0)
(10.0724 0.0336866 0)
(10.0869 0.0337141 0)
(10.1003 0.03331 0)
(10.1127 0.0327136 0)
(10.124 0.0319851 0)
(10.1341 0.0311681 0)
(10.1431 0.0303215 0)
(10.1509 0.0294803 0)
(10.1575 0.0286741 0)
(10.1627 0.0279625 0)
(10.1663 0.0274286 0)
(10.168 0.0272472 0)
(10.1672 0.0277958 0)
(10.1633 0.0299008 0)
(10.153 0.0359133 0)
(10.1438 0.0534701 0)
(10.0058 0.0243825 0)
(10.025 0.0287837 0)
(10.0429 0.0293304 0)
(10.0583 0.0308079 0)
(10.0747 0.0317408 0)
(10.0912 0.0318874 0)
(10.1069 0.0316027 0)
(10.1219 0.0311148 0)
(10.1362 0.0304869 0)
(10.1497 0.0297713 0)
(10.1623 0.029029 0)
(10.1741 0.0282979 0)
(10.1849 0.0276114 0)
(10.1948 0.0270362 0)
(10.2035 0.0266671 0)
(10.2108 0.0266998 0)
(10.2162 0.0275447 0)
(10.2194 0.0300804 0)
(10.2181 0.0365621 0)
(10.2208 0.0531511 0)
(10.0048 0.0218313 0)
(10.0229 0.0264788 0)
(10.0411 0.0271738 0)
(10.0572 0.0286472 0)
(10.0743 0.0296062 0)
(10.0916 0.0298019 0)
(10.1085 0.0295829 0)
(10.1247 0.0291681 0)
(10.1404 0.0286208 0)
(10.1555 0.0279941 0)
(10.1699 0.027346 0)
(10.1836 0.0267141 0)
(10.1965 0.0261345 0)
(10.2087 0.0256783 0)
(10.2199 0.0254502 0)
(10.2299 0.0256623 0)
(10.2384 0.0267455 0)
(10.2451 0.0295988 0)
(10.2483 0.0363385 0)
(10.2569 0.0520344 0)
(10.0039 0.0194462 0)
(10.0209 0.0242834 0)
(10.0391 0.0251186 0)
(10.0554 0.0265216 0)
(10.0728 0.0274453 0)
(10.0906 0.0276529 0)
(10.1079 0.0274752 0)
(10.1248 0.027115 0)
(10.1413 0.0266323 0)
(10.1572 0.0260789 0)
(10.1725 0.0255088 0)
(10.1873 0.0249598 0)
(10.2014 0.0244704 0)
(10.2148 0.0241152 0)
(10.2274 0.024008 0)
(10.239 0.0243736 0)
(10.2492 0.025656 0)
(10.258 0.0287562 0)
(10.2638 0.0356385 0)
(10.2757 0.0505184 0)
(10.0031 0.0172777 0)
(10.0191 0.0221569 0)
(10.0371 0.0230695 0)
(10.0535 0.024372 0)
(10.071 0.0252439 0)
(10.089 0.0254549 0)
(10.1066 0.0253103 0)
(10.1238 0.0249964 0)
(10.1407 0.0245699 0)
(10.1571 0.0240806 0)
(10.1729 0.0235794 0)
(10.1883 0.0231037 0)
(10.2031 0.0226944 0)
(10.2172 0.022429 0)
(10.2306 0.0224297 0)
(10.2431 0.0229313 0)
(10.2544 0.0243849 0)
(10.2646 0.0276822 0)
(10.2722 0.0346316 0)
(10.2862 0.0487576 0)
(10.0025 0.0152924 0)
(10.0175 0.020075 0)
(10.0353 0.0210246 0)
(10.0518 0.0222209 0)
(10.0693 0.0230344 0)
(10.0873 0.0232423 0)
(10.105 0.023123 0)
(10.1224 0.0228479 0)
(10.1394 0.0224703 0)
(10.1561 0.0220378 0)
(10.1723 0.0215984 0)
(10.188 0.021189 0)
(10.2032 0.0208523 0)
(10.2178 0.0206687 0)
(10.2317 0.0207671 0)
(10.2448 0.0213907 0)
(10.2568 0.0229933 0)
(10.2679 0.026449 0)
(10.2768 0.033411 0)
(10.2923 0.0468337 0)
(10.0019 0.0134581 0)
(10.0162 0.0180338 0)
(10.0338 0.0189897 0)
(10.0502 0.0200774 0)
(10.0677 0.0208268 0)
(10.0856 0.0210258 0)
(10.1034 0.0209257 0)
(10.1208 0.0206842 0)
(10.138 0.0203504 0)
(10.1548 0.0199696 0)
(10.1711 0.0195871 0)
(10.1871 0.0192389 0)
(10.2025 0.0189695 0)
(10.2174 0.0188611 0)
(10.2317 0.0190491 0)
(10.2452 0.0197828 0)
(10.2577 0.0215157 0)
(10.2695 0.0250984 0)
(10.2794 0.032032 0)
(10.296 0.0447938 0)
(10.0014 0.0117512 0)
(10.015 0.0160331 0)
(10.0324 0.0169673 0)
(10.0488 0.0179442 0)
(10.0662 0.0186246 0)
(10.0841 0.0188103 0)
(10.1019 0.0187254 0)
(10.1194 0.0185139 0)
(10.1366 0.0182205 0)
(10.1534 0.0178879 0)
(10.1699 0.0175588 0)
(10.1859 0.017268 0)
(10.2015 0.0170615 0)
(10.2166 0.0170232 0)
(10.2311 0.0172936 0)
(10.2449 0.0181266 0)
(10.2579 0.0199734 0)
(10.2702 0.0236566 0)
(10.2808 0.0305303 0)
(10.2983 0.0426678 0)
(10.001 0.0101517 0)
(10.014 0.0140698 0)
(10.0312 0.0149566 0)
(10.0476 0.0158206 0)
(10.065 0.0164286 0)
(10.0828 0.0165978 0)
(10.1005 0.0165253 0)
(10.118 0.0163418 0)
(10.1353 0.0160865 0)
(10.1521 0.0157994 0)
(10.1687 0.015521 0)
(10.1848 0.0152848 0)
(10.2004 0.0151378 0)
(10.2157 0.0151654 0)
(10.2303 0.015512 0)
(10.2443 0.0164342 0)
(10.2576 0.0183796 0)
(10.2704 0.0221407 0)
(10.2817 0.0289306 0)
(10.2998 0.0404777 0)
(10.0007 0.00864125 0)
(10.0132 0.0121395 0)
(10.0302 0.0129563 0)
(10.0466 0.0137062 0)
(10.0639 0.0142387 0)
(10.0817 0.0143889 0)
(10.0994 0.014327 0)
(10.1169 0.0141699 0)
(10.1341 0.0139514 0)
(10.151 0.013708 0)
(10.1675 0.0134785 0)
(10.1837 0.0132945 0)
(10.1994 0.0132044 0)
(10.2147 0.0132945 0)
(10.2295 0.013712 0)
(10.2437 0.014714 0)
(10.2572 0.0167434 0)
(10.2704 0.0205624 0)
(10.2822 0.0272501 0)
(10.3008 0.0382393 0)
(10.0004 0.00720393 0)
(10.0125 0.0102374 0)
(10.0294 0.0109648 0)
(10.0458 0.0115997 0)
(10.063 0.0120543 0)
(10.0808 0.0121833 0)
(10.0985 0.0121309 0)
(10.1159 0.0119994 0)
(10.1331 0.0118166 0)
(10.15 0.0116156 0)
(10.1666 0.0114336 0)
(10.1828 0.0113 0)
(10.1985 0.0112647 0)
(10.2139 0.0114145 0)
(10.2287 0.0118982 0)
(10.243 0.0129718 0)
(10.2568 0.0150713 0)
(10.2703 0.0189298 0)
(10.2826 0.0255017 0)
(10.3016 0.0359656 0)
(10.0002 0.00582527 0)
(10.012 0.00835846 0)
(10.0287 0.00898056 0)
(10.0451 0.00949999 0)
(10.0623 0.00987445 0)
(10.0801 0.00998075 0)
(10.0977 0.00993699 0)
(10.1152 0.0098304 0)
(10.1324 0.00968278 0)
(10.1493 0.00952343 0)
(10.1658 0.00938761 0)
(10.182 0.00930313 0)
(10.1978 0.00932092 0)
(10.2131 0.00952785 0)
(10.228 0.0100731 0)
(10.2425 0.0112113 0)
(10.2564 0.0133682 0)
(10.2702 0.0172492 0)
(10.283 0.0236944 0)
(10.3023 0.0336654 0)
(10 0.00449202 0)
(10.0116 0.00649763 0)
(10.0282 0.00700189 0)
(10.0446 0.00740573 0)
(10.0618 0.00769818 0)
(10.0795 0.0077807 0)
(10.0972 0.00774509 0)
(10.1146 0.00766287 0)
(10.1318 0.00755021 0)
(10.1486 0.00743191 0)
(10.1652 0.00734114 0)
(10.1814 0.00730471 0)
(10.1972 0.00737437 0)
(10.2126 0.00763589 0)
(10.2275 0.00823859 0)
(10.2421 0.00943464 0)
(10.2561 0.0116378 0)
(10.2703 0.0155258 0)
(10.2834 0.0218355 0)
(10.303 0.0313467 0)
(9.99994 0.00319201 0)
(10.0113 0.00464993 0)
(10.0279 0.00502751 0)
(10.0443 0.00531575 0)
(10.0615 0.00552448 0)
(10.0792 0.00558242 0)
(10.0968 0.00555481 0)
(10.1142 0.00549659 0)
(10.1314 0.00541891 0)
(10.1482 0.00534123 0)
(10.1648 0.0052946 0)
(10.1809 0.00530535 0)
(10.1968 0.00542554 0)
(10.2122 0.00573931 0)
(10.2272 0.00639565 0)
(10.2418 0.00764281 0)
(10.256 0.00988299 0)
(10.2704 0.013764 0)
(10.2839 0.0199303 0)
(10.3037 0.0290146 0)
(9.99987 0.00191384 0)
(10.0111 0.00281026 0)
(10.0277 0.00305579 0)
(10.0441 0.00322895 0)
(10.0613 0.00335293 0)
(10.0789 0.00338542 0)
(10.0965 0.00336567 0)
(10.1139 0.00333138 0)
(10.1311 0.00328853 0)
(10.148 0.00325118 0)
(10.1645 0.00324808 0)
(10.1807 0.00330519 0)
(10.1965 0.00347471 0)
(10.2119 0.00383849 0)
(10.227 0.00454488 0)
(10.2417 0.00583716 0)
(10.256 0.00810605 0)
(10.2706 0.0119667 0)
(10.2845 0.0179835 0)
(10.3045 0.0266748 0)
(9.99985 0.000647377 0)
(10.0111 0.000973772 0)
(10.0276 0.00108518 0)
(10.044 0.00114466 0)
(10.0612 0.0011832 0)
(10.0789 0.00118909 0)
(10.0964 0.0011776 0)
(10.1138 0.00116768 0)
(10.131 0.00115945 0)
(10.1479 0.00116203 0)
(10.1644 0.00120214 0)
(10.1806 0.00130501 0)
(10.1964 0.00152244 0)
(10.2119 0.0019339 0)
(10.2269 0.00268675 0)
(10.2417 0.00401855 0)
(10.2562 0.00630832 0)
(10.271 0.0101363 0)
(10.2852 0.0159996 0)
(10.3053 0.0243304 0)
(9.99985 -0.000615427 0)
(10.0111 -0.000863568 0)
(10.0276 -0.000887951 0)
(10.044 -0.000941034 0)
(10.0612 -0.000987834 0)
(10.0789 -0.0010097 0)
(10.0965 -0.0010128 0)
(10.1139 -0.00099688 0)
(10.1311 -0.000970054 0)
(10.1479 -0.000927826 0)
(10.1645 -0.000844708 0)
(10.1806 -0.000696341 0)
(10.1965 -0.00043177 0)
(10.2119 2.50546e-05 0)
(10.2271 0.000820678 0)
(10.2419 0.00218675 0)
(10.2565 0.00448924 0)
(10.2715 0.00827485 0)
(10.286 0.0139835 0)
(10.3062 0.0219854 0)
(9.99988 -0.00188007 0)
(10.0111 -0.00270176 0)
(10.0277 -0.00286387 0)
(10.0441 -0.00302858 0)
(10.0613 -0.00315956 0)
(10.0791 -0.00320918 0)
(10.0967 -0.00320453 0)
(10.1141 -0.0031622 0)
(10.1313 -0.00309858 0)
(10.1481 -0.00301604 0)
(10.1647 -0.00289027 0)
(10.1809 -0.00269719 0)
(10.1967 -0.00238655 0)
(10.2122 -0.00188652 0)
(10.2273 -0.00105204 0)
(10.2422 0.000342811 0)
(10.257 0.00265016 0)
(10.2721 0.0063858 0)
(10.2869 0.0119388 0)
(10.3072 0.019642 0)
(9.99994 -0.00315582 0)
(10.0113 -0.00454361 0)
(10.0279 -0.0048437 0)
(10.0443 -0.00512072 0)
(10.0616 -0.00533481 0)
(10.0793 -0.00541142 0)
(10.097 -0.00539947 0)
(10.1144 -0.00533133 0)
(10.1316 -0.00522985 0)
(10.1485 -0.00510513 0)
(10.165 -0.0049359 0)
(10.1812 -0.00469886 0)
(10.1971 -0.00434296 0)
(10.2126 -0.00380132 0)
(10.2278 -0.00293163 0)
(10.2427 -0.00151358 0)
(10.2576 0.000791344 0)
(10.2729 0.00447056 0)
(10.2879 0.0098674 0)
(10.3084 0.0173034 0)
(10.0001 -0.00445379 0)
(10.0116 -0.00639356 0)
(10.0282 -0.00682677 0)
(10.0446 -0.00721707 0)
(10.0619 -0.00751394 0)
(10.0798 -0.00761656 0)
(10.0974 -0.00759667 0)
(10.1149 -0.0075034 0)
(10.1321 -0.00736438 0)
(10.149 -0.00719613 0)
(10.1655 -0.006982 0)
(10.1817 -0.00670137 0)
(10.1976 -0.00630131 0)
(10.2131 -0.00571928 0)
(10.2283 -0.0048176 0)
(10.2434 -0.00338201 0)
(10.2583 -0.00108616 0)
(10.2738 0.0025306 0)
(10.2891 0.00777118 0)
(10.3096 0.0149721 0)
(10.0002 -0.00578561 0)
(10.012 -0.00825693 0)
(10.0287 -0.00881388 0)
(10.0451 -0.00931832 0)
(10.0625 -0.00969706 0)
(10.0803 -0.0098247 0)
(10.098 -0.00979615 0)
(10.1155 -0.00967776 0)
(10.1327 -0.00950168 0)
(10.1496 -0.00928974 0)
(10.1662 -0.00902964 0)
(10.1824 -0.00870489 0)
(10.1983 -0.00826167 0)
(10.2138 -0.00764039 0)
(10.2291 -0.00670936 0)
(10.2442 -0.00526142 0)
(10.2592 -0.00298147 0)
(10.2748 0.000567016 0)
(10.2903 0.00565183 0)
(10.3109 0.0126513 0)
(10.0004 -0.00716344 0)
(10.0125 -0.0101391 0)
(10.0294 -0.0108065 0)
(10.0458 -0.0114254 0)
(10.0632 -0.0118847 0)
(10.0811 -0.012036 0)
(10.0988 -0.0119979 0)
(10.1163 -0.0118543 0)
(10.1335 -0.0116411 0)
(10.1504 -0.0113857 0)
(10.167 -0.011079 0)
(10.1832 -0.0107092 0)
(10.1991 -0.0102237 0)
(10.2147 -0.00956462 0)
(10.2299 -0.00860617 0)
(10.2451 -0.0071503 0)
(10.2602 -0.00489314 0)
(10.276 -0.0014186 0)
(10.2917 0.00351078 0)
(10.3122 0.0103439 0)
(10.0007 -0.00860063 0)
(10.0132 -0.012045 0)
(10.0302 -0.0128061 0)
(10.0466 -0.0135396 0)
(10.0641 -0.0140775 0)
(10.082 -0.0142508 0)
(10.0997 -0.0142019 0)
(10.1173 -0.0140327 0)
(10.1345 -0.0137823 0)
(10.1514 -0.0134831 0)
(10.168 -0.0131296 0)
(10.1842 -0.0127141 0)
(10.2001 -0.0121862 0)
(10.2157 -0.0114909 0)
(10.2309 -0.0105063 0)
(10.2461 -0.00904654 0)
(10.2613 -0.0068192 0)
(10.2772 -0.00342425 0)
(10.2931 0.00134993 0)
(10.3137 0.00805119 0)
(10.001 -0.0101116 0)
(10.014 -0.0139798 0)
(10.0312 -0.0148143 0)
(10.0477 -0.015662 0)
(10.0651 -0.0162763 0)
(10.0831 -0.0164693 0)
(10.1009 -0.0164082 0)
(10.1184 -0.0162125 0)
(10.1357 -0.0159244 0)
(10.1526 -0.0155806 0)
(10.1692 -0.0151802 0)
(10.1853 -0.0147183 0)
(10.2012 -0.0141474 0)
(10.2167 -0.0134169 0)
(10.232 -0.0124076 0)
(10.2472 -0.0109471 0)
(10.2624 -0.0087557 0)
(10.2783 -0.00544658 0)
(10.2944 -0.000827555 0)
(10.315 0.00577311 0)
(10.0014 -0.0117126 0)
(10.015 -0.015948 0)
(10.0324 -0.0168325 0)
(10.0489 -0.0177937 0)
(10.0664 -0.0184817 0)
(10.0844 -0.0186915 0)
(10.1022 -0.0186161 0)
(10.1198 -0.0183926 0)
(10.137 -0.0180657 0)
(10.1539 -0.0176762 0)
(10.1704 -0.0172284 0)
(10.1865 -0.0167189 0)
(10.2023 -0.016104 0)
(10.2178 -0.0153388 0)
(10.233 -0.0143063 0)
(10.2481 -0.0128471 0)
(10.2633 -0.0106967 0)
(10.2793 -0.00748075 0)
(10.2955 -0.00301608 0)
(10.3161 0.00351275 0)
(10.0019 -0.0134214 0)
(10.0162 -0.017954 0)
(10.0338 -0.0188623 0)
(10.0503 -0.0199354 0)
(10.0678 -0.0206937 0)
(10.0859 -0.0209167 0)
(10.1037 -0.0208242 0)
(10.1213 -0.0205707 0)
(10.1385 -0.020203 0)
(10.1553 -0.0197659 0)
(10.1717 -0.0192691 0)
(10.1877 -0.0187107 0)
(10.2034 -0.0180506 0)
(10.2187 -0.0172501 0)
(10.2338 -0.0161956 0)
(10.2488 -0.014739 0)
(10.2639 -0.0126339 0)
(10.2798 -0.00951738 0)
(10.2961 -0.00520806 0)
(10.3165 0.00127839 0)
(10.0025 -0.0152581 0)
(10.0175 -0.0200004 0)
(10.0354 -0.0209046 0)
(10.0519 -0.0220878 0)
(10.0695 -0.0229111 0)
(10.0876 -0.0231425 0)
(10.1053 -0.023029 0)
(10.1228 -0.0227417 0)
(10.1399 -0.0223303 0)
(10.1566 -0.0218427 0)
(10.1728 -0.0212943 0)
(10.1887 -0.0206852 0)
(10.2041 -0.0199779 0)
(10.2192 -0.0191404 0)
(10.2341 -0.0180644 0)
(10.2488 -0.0166119 0)
(10.2637 -0.0145558 0)
(10.2794 -0.011543 0)
(10.2957 -0.00739171 0)
(10.3158 -0.000915914 0)
(10.0031 -0.0172462 0)
(10.0191 -0.0220878 0)
(10.0372 -0.0229573 0)
(10.0537 -0.0242479 0)
(10.0713 -0.0251309 0)
(10.0893 -0.0253643 0)
(10.107 -0.0252234 0)
(10.1242 -0.0248971 0)
(10.1411 -0.024437 0)
(10.1575 -0.0238947 0)
(10.1735 -0.0232908 0)
(10.189 -0.0226281 0)
(10.2041 -0.0218705 0)
(10.2188 -0.0209933 0)
(10.2332 -0.0198951 0)
(10.2475 -0.0184484 0)
(10.262 -0.0164431 0)
(10.2773 -0.0135385 0)
(10.2933 -0.00954771 0)
(10.313 -0.00305155 0)
(10.0039 -0.0194178 0)
(10.0209 -0.02422 0)
(10.0391 -0.0250146 0)
(10.0555 -0.0264069 0)
(10.073 -0.0273421 0)
(10.0909 -0.0275708 0)
(10.1083 -0.0273951 0)
(10.1253 -0.0270217 0)
(10.1417 -0.0265059 0)
(10.1577 -0.0259023 0)
(10.1731 -0.0252372 0)
(10.188 -0.0245159 0)
(10.2025 -0.0237033 0)
(10.2165 -0.0227823 0)
(10.2302 -0.0216594 0)
(10.2438 -0.0202183 0)
(10.2575 -0.0182645 0)
(10.272 -0.0154751 0)
(10.2875 -0.0116466 0)
(10.3063 -0.00510008 0)
(10.0048 -0.0218065 0)
(10.0229 -0.0264215 0)
(10.0412 -0.027078 0)
(10.0573 -0.0285413 0)
(10.0745 -0.0295126 0)
(10.092 -0.0297279 0)
(10.1088 -0.0295093 0)
(10.1251 -0.0290805 0)
(10.1408 -0.0285006 0)
(10.1559 -0.0278272 0)
(10.1704 -0.0270927 0)
(10.1843 -0.026305 0)
(10.1976 -0.0254308 0)
(10.2105 -0.0244595 0)
(10.2229 -0.0233064 0)
(10.2352 -0.0218683 0)
(10.2475 -0.0199653 0)
(10.2607 -0.0172984 0)
(10.275 -0.0136348 0)
(10.2924 -0.00701655 0)
(10.0058 -0.0243617 0)
(10.025 -0.0287329 0)
(10.043 -0.029243 0)
(10.0585 -0.0307098 0)
(10.0749 -0.0316553 0)
(10.0915 -0.0318203 0)
(10.1073 -0.0315354 0)
(10.1223 -0.0310332 0)
(10.1366 -0.0303731 0)
(10.1501 -0.0296147 0)
(10.1629 -0.028796 0)
(10.1748 -0.0279273 0)
(10.1861 -0.0269782 0)
(10.1967 -0.0259437 0)
(10.2068 -0.0247485 0)
(10.2166 -0.0233044 0)
(10.2264 -0.0214472 0)
(10.2368 -0.0189061 0)
(10.2486 -0.0154167 0)
(10.2633 -0.00873037 0)
(10.0068 -0.0265826 0)
(10.0267 -0.030529 0)
(10.0438 -0.0312008 0)
(10.0578 -0.0327443 0)
(10.0726 -0.0336069 0)
(10.0872 -0.0336517 0)
(10.1007 -0.0332484 0)
(10.1131 -0.0326392 0)
(10.1244 -0.0318794 0)
(10.1346 -0.0310238 0)
(10.1437 -0.0301116 0)
(10.1518 -0.0291534 0)
(10.1588 -0.0281198 0)
(10.1648 -0.0270114 0)
(10.17 -0.0257613 0)
(10.1745 -0.0242985 0)
(10.1788 -0.0224759 0)
(10.1834 -0.0200581 0)
(10.1893 -0.016757 0)
(10.198 -0.0100715 0)
(10.0072 -0.0296648 0)
(10.0266 -0.0314759 0)
(10.0411 -0.0329385 0)
(10.0516 -0.0353074 0)
(10.0622 -0.036426 0)
(10.0718 -0.0363771 0)
(10.0795 -0.0357024 0)
(10.0853 -0.0347536 0)
(10.0893 -0.0336491 0)
(10.0915 -0.0324662 0)
(10.0918 -0.0312597 0)
(10.0903 -0.0300422 0)
(10.087 -0.0287834 0)
(10.0819 -0.0274823 0)
(10.0752 -0.0260759 0)
(10.067 -0.0245039 0)
(10.0578 -0.0226411 0)
(10.0484 -0.0202876 0)
(10.0399 -0.0171602 0)
(10.034 -0.0107138 0)
(10.0052 -0.0370384 0)
(10.0197 -0.0258777 0)
(10.025 -0.0229698 0)
(10.024 -0.0255435 0)
(10.0209 -0.0283025 0)
(10.0145 -0.0301132 0)
(10.0039 -0.0310168 0)
(9.98953 -0.0312294 0)
(9.97151 -0.030905 0)
(9.94999 -0.0301739 0)
(9.92512 -0.029169 0)
(9.89708 -0.0279724 0)
(9.86606 -0.0266104 0)
(9.83228 -0.0251284 0)
(9.7961 -0.0235122 0)
(9.75808 -0.0217445 0)
(9.71902 -0.0197639 0)
(9.68027 -0.0174247 0)
(9.64368 -0.0145199 0)
(9.61172 -0.00895532 0)
(9.99193 -0.122213 0)
(9.97731 -0.107779 0)
(9.9382 -0.0853371 0)
(9.88455 -0.0689067 0)
(9.82285 -0.0568207 0)
(9.75369 -0.0478884 0)
(9.67808 -0.041224 0)
(9.59795 -0.0361579 0)
(9.51492 -0.0321855 0)
(9.43036 -0.0289378 0)
(9.3454 -0.026196 0)
(9.26105 -0.0238087 0)
(9.17819 -0.0216421 0)
(9.09758 -0.0196316 0)
(9.02001 -0.0177046 0)
(8.94633 -0.0158132 0)
(8.87744 -0.0139047 0)
(8.81473 -0.0118653 0)
(8.75995 -0.0095673 0)
(8.71533 -0.00575056 0)
(9.80552 0.277358 0)
(9.60922 0.147927 0)
(9.37747 0.0801885 0)
(9.14407 0.041468 0)
(8.92184 0.0191574 0)
(8.71262 0.0064186 0)
(8.51697 -0.000657232 0)
(8.33563 -0.00437762 0)
(8.16864 -0.00612203 0)
(8.01561 -0.00670596 0)
(7.87601 -0.0066376 0)
(7.74919 -0.00622668 0)
(7.63439 -0.00563981 0)
(7.53106 -0.00498549 0)
(7.43864 -0.00431532 0)
(7.35671 -0.00365573 0)
(7.28503 -0.00301402 0)
(7.22386 -0.00234544 0)
(7.17394 -0.00158147 0)
(7.13676 -0.000379848 0)
(6.77025 -0.117399 0)
(6.52941 -0.122958 0)
(6.32226 -0.116839 0)
(6.14475 -0.104556 0)
(6.013 -0.0926031 0)
(5.92738 -0.0832115 0)
(5.87887 -0.0758307 0)
(5.85778 -0.0705789 0)
(5.85603 -0.0675399 0)
(5.86726 -0.0667672 0)
(5.88696 -0.0683833 0)
(5.91203 -0.072466 0)
(5.94037 -0.0789998 0)
(5.97048 -0.0878787 0)
(6.00132 -0.0989241 0)
(6.03209 -0.111902 0)
(6.06224 -0.126539 0)
(6.09137 -0.142548 0)
(6.11922 -0.159646 0)
(6.14565 -0.177569 0)
(6.17058 -0.196083 0)
(6.194 -0.214975 0)
(6.21595 -0.234062 0)
(6.23649 -0.253189 0)
(6.25572 -0.272232 0)
(6.27373 -0.291093 0)
(6.2906 -0.309697 0)
(6.30644 -0.327991 0)
(6.32132 -0.345938 0)
(6.33533 -0.363516 0)
(6.34853 -0.380714 0)
(6.36097 -0.397529 0)
(6.3727 -0.413961 0)
(6.38375 -0.430016 0)
(6.39414 -0.445701 0)
(6.40389 -0.46102 0)
(6.41301 -0.475978 0)
(6.4215 -0.49058 0)
(6.42936 -0.504824 0)
(6.43659 -0.518711 0)
(6.44317 -0.532235 0)
(6.44911 -0.545391 0)
(6.45439 -0.55817 0)
(6.45901 -0.570562 0)
(6.46297 -0.582557 0)
(6.46626 -0.594141 0)
(6.46888 -0.605303 0)
(6.47083 -0.616027 0)
(6.47212 -0.626302 0)
(6.47276 -0.636113 0)
(6.47274 -0.645447 0)
(6.47209 -0.654294 0)
(6.47081 -0.662639 0)
(6.46892 -0.670475 0)
(6.46643 -0.67779 0)
(6.46337 -0.684578 0)
(6.45975 -0.69083 0)
(6.4556 -0.696542 0)
(6.45094 -0.70171 0)
(6.44578 -0.706331 0)
(6.44016 -0.710404 0)
(6.4341 -0.713929 0)
(6.42761 -0.716907 0)
(6.42074 -0.719343 0)
(6.41349 -0.721239 0)
(6.40591 -0.722602 0)
(6.398 -0.723438 0)
(6.38979 -0.723753 0)
(6.38131 -0.723558 0)
(6.37259 -0.722861 0)
(6.36363 -0.721672 0)
(6.35447 -0.720002 0)
(6.34513 -0.717863 0)
(6.33563 -0.715267 0)
(6.32598 -0.712227 0)
(6.31621 -0.708757 0)
(6.30634 -0.704869 0)
(6.29639 -0.700578 0)
(6.28636 -0.695899 0)
(6.27629 -0.690845 0)
(6.26618 -0.685431 0)
(6.25605 -0.679674 0)
(6.24592 -0.673588 0)
(6.23581 -0.667187 0)
(6.22571 -0.660487 0)
(6.21566 -0.653503 0)
(6.20565 -0.646251 0)
(6.19571 -0.638744 0)
(6.18584 -0.630997 0)
(6.17605 -0.623025 0)
(6.16636 -0.614843 0)
(6.15677 -0.606465 0)
(6.1473 -0.597905 0)
(6.13794 -0.589177 0)
(6.12872 -0.580296 0)
(6.11963 -0.571275 0)
(6.11069 -0.562127 0)
(6.10189 -0.552867 0)
(6.09326 -0.543506 0)
(6.08479 -0.534058 0)
(6.07649 -0.524534 0)
(6.06836 -0.514947 0)
(6.06041 -0.505307 0)
(6.05266 -0.495626 0)
(6.04509 -0.485915 0)
(6.03771 -0.476182 0)
(6.03054 -0.466438 0)
(6.02357 -0.456692 0)
(6.01681 -0.446953 0)
(6.01026 -0.437227 0)
(6.00392 -0.427524 0)
(5.9978 -0.417849 0)
(5.9919 -0.40821 0)
(5.9862 -0.398613 0)
(5.98073 -0.389065 0)
(5.97546 -0.379571 0)
(5.97041 -0.370136 0)
(5.96555 -0.360766 0)
(5.96089 -0.351467 0)
(5.95641 -0.342243 0)
(5.9521 -0.333099 0)
(5.94796 -0.324041 0)
(5.94395 -0.315073 0)
(5.94008 -0.306198 0)
(5.93632 -0.297421 0)
(5.93266 -0.288743 0)
(5.92908 -0.280165 0)
(5.92556 -0.271687 0)
(5.9221 -0.263307 0)
(5.91869 -0.255021 0)
(5.9153 -0.246824 0)
(5.91193 -0.238707 0)
(5.90856 -0.230662 0)
(5.9052 -0.222678 0)
(5.90184 -0.214742 0)
(5.89846 -0.206839 0)
(5.89506 -0.198952 0)
(5.89165 -0.191064 0)
(5.88821 -0.183153 0)
(5.88474 -0.175198 0)
(5.88123 -0.167177 0)
(5.87769 -0.159064 0)
(5.87411 -0.150834 0)
(5.87048 -0.142459 0)
(5.86681 -0.133908 0)
(5.86308 -0.125152 0)
(5.8593 -0.116156 0)
(5.85545 -0.106886 0)
(5.85154 -0.097304 0)
(5.84755 -0.087371 0)
(5.84348 -0.0770446 0)
(5.83933 -0.0662795 0)
(5.83509 -0.0550279 0)
(5.83074 -0.0432385 0)
(5.82629 -0.0308564 0)
(5.82171 -0.0178227 0)
(5.81702 -0.00407452 0)
(5.81218 0.0104562 0)
(5.80721 0.0258424 0)
(5.80207 0.042163 0)
(5.79677 0.059503 0)
(5.79129 0.0779543 0)
(5.78562 0.0976167 0)
(5.77974 0.118598 0)
(5.77365 0.141015 0)
(5.76732 0.164997 0)
(5.76075 0.19068 0)
(5.75391 0.218218 0)
(5.74678 0.247776 0)
(5.73936 0.279536 0)
(5.73161 0.313696 0)
(5.72352 0.350476 0)
(5.71505 0.390118 0)
(5.70617 0.432889 0)
(5.69685 0.479085 0)
(5.68704 0.529038 0)
(5.67668 0.583121 0)
(5.66572 0.641753 0)
(5.65406 0.705406 0)
(5.64162 0.774618 0)
(5.62828 0.850006 0)
(5.61391 0.932285 0)
(5.59832 1.0223 0)
(5.58133 1.12103 0)
(5.56268 1.22969 0)
(5.54206 1.34974 0)
(5.51912 1.48299 0)
(5.4934 1.63175 0)
(5.46432 1.79896 0)
(5.43117 1.98847 0)
(5.393 2.2054 0)
(5.34847 2.45658 0)
(5.2958 2.75116 0)
(5.23185 3.10139 0)
(5.15333 3.52317 0)
(5.04913 4.03804 0)
(4.92357 4.67222 0)
(4.70741 5.47587 0)
(4.63448 6.50602 0)
(3.99289 8.74305 0)
(8.53353 0.0395518 0)
(8.45553 0.0495857 0)
(8.3576 0.0417715 0)
(8.23387 0.0303231 0)
(8.09598 0.0181769 0)
(7.9542 0.00553195 0)
(7.81547 -0.00660631 0)
(7.68581 -0.0180246 0)
(7.56953 -0.028894 0)
(7.4687 -0.0394765 0)
(7.38372 -0.0501285 0)
(7.3137 -0.0611854 0)
(7.25693 -0.0729244 0)
(7.2114 -0.0855291 0)
(7.17503 -0.0991168 0)
(7.14597 -0.113733 0)
(7.12261 -0.129353 0)
(7.10366 -0.145893 0)
(7.08809 -0.163226 0)
(7.07511 -0.181201 0)
(7.06411 -0.199655 0)
(7.05462 -0.218423 0)
(7.04626 -0.23735 0)
(7.03878 -0.256301 0)
(7.03195 -0.27516 0)
(7.02562 -0.293837 0)
(7.01969 -0.312261 0)
(7.01406 -0.33038 0)
(7.00868 -0.348159 0)
(7.00349 -0.365577 0)
(6.99846 -0.38262 0)
(6.99354 -0.399283 0)
(6.9887 -0.415566 0)
(6.98391 -0.431472 0)
(6.97913 -0.447005 0)
(6.97432 -0.462169 0)
(6.96945 -0.476967 0)
(6.96448 -0.491401 0)
(6.95937 -0.505472 0)
(6.95409 -0.519176 0)
(6.94861 -0.532512 0)
(6.9429 -0.545471 0)
(6.93692 -0.558048 0)
(6.93064 -0.570232 0)
(6.92406 -0.582013 0)
(6.91714 -0.59338 0)
(6.90987 -0.604321 0)
(6.90223 -0.614824 0)
(6.89422 -0.624877 0)
(6.88582 -0.634466 0)
(6.87704 -0.643581 0)
(6.86787 -0.652211 0)
(6.85831 -0.660343 0)
(6.84838 -0.66797 0)
(6.83807 -0.675083 0)
(6.82739 -0.681674 0)
(6.81636 -0.687736 0)
(6.80499 -0.693266 0)
(6.79329 -0.69826 0)
(6.78128 -0.702715 0)
(6.76897 -0.706631 0)
(6.75639 -0.710008 0)
(6.74355 -0.712848 0)
(6.73048 -0.715153 0)
(6.71718 -0.716929 0)
(6.70369 -0.718181 0)
(6.69001 -0.718915 0)
(6.67617 -0.719138 0)
(6.66219 -0.718859 0)
(6.64809 -0.718086 0)
(6.63389 -0.716831 0)
(6.6196 -0.715103 0)
(6.60525 -0.712915 0)
(6.59084 -0.710277 0)
(6.57641 -0.707203 0)
(6.56196 -0.703707 0)
(6.54751 -0.6998 0)
(6.53308 -0.695498 0)
(6.51869 -0.690813 0)
(6.50434 -0.685761 0)
(6.49005 -0.680356 0)
(6.47584 -0.674613 0)
(6.46171 -0.668547 0)
(6.44768 -0.662172 0)
(6.43377 -0.655502 0)
(6.41997 -0.648554 0)
(6.40632 -0.641342 0)
(6.3928 -0.633879 0)
(6.37943 -0.626181 0)
(6.36623 -0.618262 0)
(6.35319 -0.610135 0)
(6.34033 -0.601816 0)
(6.32766 -0.593319 0)
(6.31517 -0.584657 0)
(6.30289 -0.575845 0)
(6.29081 -0.566897 0)
(6.27893 -0.557824 0)
(6.26728 -0.548641 0)
(6.25584 -0.539361 0)
(6.24463 -0.529995 0)
(6.23364 -0.520556 0)
(6.2229 -0.511056 0)
(6.21238 -0.501505 0)
(6.20212 -0.491915 0)
(6.19209 -0.482296 0)
(6.18232 -0.472657 0)
(6.1728 -0.463009 0)
(6.16353 -0.45336 0)
(6.15453 -0.443718 0)
(6.14578 -0.434092 0)
(6.1373 -0.424489 0)
(6.12909 -0.414915 0)
(6.12114 -0.405377 0)
(6.11346 -0.395881 0)
(6.10605 -0.386432 0)
(6.0989 -0.377037 0)
(6.09201 -0.367699 0)
(6.08538 -0.358423 0)
(6.079 -0.349215 0)
(6.07286 -0.340077 0)
(6.06695 -0.331015 0)
(6.06125 -0.322032 0)
(6.05576 -0.313133 0)
(6.05046 -0.30432 0)
(6.04532 -0.295598 0)
(6.04034 -0.286969 0)
(6.0355 -0.278432 0)
(6.03077 -0.269989 0)
(6.02615 -0.261638 0)
(6.02162 -0.253376 0)
(6.01716 -0.245197 0)
(6.01275 -0.237095 0)
(6.0084 -0.22906 0)
(6.00409 -0.221083 0)
(5.9998 -0.213151 0)
(5.99554 -0.205248 0)
(5.99129 -0.19736 0)
(5.98706 -0.189468 0)
(5.98283 -0.181551 0)
(5.9786 -0.173589 0)
(5.97436 -0.165559 0)
(5.97012 -0.157436 0)
(5.96586 -0.149194 0)
(5.96159 -0.140805 0)
(5.9573 -0.132239 0)
(5.95299 -0.123466 0)
(5.94864 -0.114451 0)
(5.94427 -0.10516 0)
(5.93985 -0.0955557 0)
(5.9354 -0.0855978 0)
(5.9309 -0.075244 0)
(5.92635 -0.0644491 0)
(5.92174 -0.0531649 0)
(5.91707 -0.0413402 0)
(5.91233 -0.0289197 0)
(5.90751 -0.0158445 0)
(5.90261 -0.00205129 0)
(5.89762 0.0125278 0)
(5.89254 0.0279662 0)
(5.88735 0.0443427 0)
(5.88204 0.0617427 0)
(5.87662 0.0802581 0)
(5.87107 0.0999889 0)
(5.86539 0.121043 0)
(5.85956 0.143539 0)
(5.85357 0.167602 0)
(5.84742 0.193374 0)
(5.84109 0.221006 0)
(5.83458 0.250664 0)
(5.82788 0.282531 0)
(5.82096 0.316805 0)
(5.81383 0.353708 0)
(5.80645 0.393483 0)
(5.79881 0.436398 0)
(5.79089 0.482753 0)
(5.78267 0.532882 0)
(5.77409 0.587162 0)
(5.76512 0.646015 0)
(5.75571 0.709921 0)
(5.74578 0.779423 0)
(5.73527 0.855146 0)
(5.72407 0.937816 0)
(5.71206 1.02828 0)
(5.6991 1.12755 0)
(5.68503 1.23684 0)
(5.66965 1.35764 0)
(5.65271 1.49178 0)
(5.63397 1.64159 0)
(5.6131 1.81006 0)
(5.58975 2.00109 0)
(5.56352 2.21987 0)
(5.53391 2.47334 0)
(5.5004 2.77087 0)
(5.46191 3.125 0)
(5.41865 3.55219 0)
(5.36562 4.07417 0)
(5.31918 4.71865 0)
(5.2373 5.52423 0)
(5.37273 6.54728 0)
(5.28407 8.17833 0)
(9.4772 0.0470263 0)
(9.44071 0.0476495 0)
(9.39942 0.0430021 0)
(9.34696 0.0403178 0)
(9.28366 0.0391682 0)
(9.21085 0.0369903 0)
(9.12878 0.0328969 0)
(9.03887 0.0265774 0)
(8.94331 0.0179445 0)
(8.84458 0.00715689 0)
(8.7452 -0.00553151 0)
(8.64749 -0.0198567 0)
(8.55338 -0.0355657 0)
(8.46432 -0.0524232 0)
(8.3813 -0.0702284 0)
(8.3048 -0.0888021 0)
(8.23489 -0.107976 0)
(8.1713 -0.12759 0)
(8.11355 -0.147497 0)
(8.06102 -0.167565 0)
(8.01308 -0.18768 0)
(7.9691 -0.207746 0)
(7.92851 -0.227681 0)
(7.89083 -0.247419 0)
(7.85568 -0.266904 0)
(7.82272 -0.286091 0)
(7.79169 -0.304945 0)
(7.76235 -0.323436 0)
(7.73453 -0.341543 0)
(7.70806 -0.359252 0)
(7.68279 -0.376554 0)
(7.6586 -0.393447 0)
(7.63537 -0.40993 0)
(7.61299 -0.426009 0)
(7.59137 -0.441686 0)
(7.57042 -0.456969 0)
(7.55005 -0.47186 0)
(7.53018 -0.486364 0)
(7.51074 -0.500482 0)
(7.49167 -0.514213 0)
(7.4729 -0.527554 0)
(7.45436 -0.540502 0)
(7.43601 -0.55305 0)
(7.41779 -0.56519 0)
(7.39966 -0.576915 0)
(7.38158 -0.588214 0)
(7.36352 -0.599076 0)
(7.34544 -0.609492 0)
(7.32731 -0.619451 0)
(7.30912 -0.628942 0)
(7.29084 -0.637954 0)
(7.27247 -0.646478 0)
(7.25398 -0.654504 0)
(7.23538 -0.662025 0)
(7.21666 -0.669032 0)
(7.19781 -0.67552 0)
(7.17884 -0.681483 0)
(7.15975 -0.686917 0)
(7.14055 -0.691819 0)
(7.12125 -0.696188 0)
(7.10185 -0.700023 0)
(7.08236 -0.703325 0)
(7.0628 -0.706097 0)
(7.04318 -0.708342 0)
(7.0235 -0.710063 0)
(7.00379 -0.711267 0)
(6.98406 -0.711961 0)
(6.96433 -0.712151 0)
(6.94459 -0.711846 0)
(6.92489 -0.711055 0)
(6.90521 -0.709787 0)
(6.88559 -0.708054 0)
(6.86603 -0.705867 0)
(6.84656 -0.703238 0)
(6.82717 -0.700179 0)
(6.80789 -0.696704 0)
(6.78873 -0.692824 0)
(6.7697 -0.688554 0)
(6.75081 -0.683908 0)
(6.73207 -0.6789 0)
(6.7135 -0.673544 0)
(6.69511 -0.667856 0)
(6.6769 -0.661848 0)
(6.65889 -0.655536 0)
(6.64109 -0.648935 0)
(6.6235 -0.642058 0)
(6.60613 -0.634921 0)
(6.58898 -0.627537 0)
(6.57208 -0.61992 0)
(6.55541 -0.612085 0)
(6.539 -0.604047 0)
(6.52284 -0.595818 0)
(6.50694 -0.587414 0)
(6.4913 -0.578849 0)
(6.47594 -0.570135 0)
(6.46084 -0.561286 0)
(6.44603 -0.552316 0)
(6.4315 -0.543238 0)
(6.41725 -0.534063 0)
(6.40329 -0.524806 0)
(6.38962 -0.515476 0)
(6.37624 -0.506087 0)
(6.36316 -0.496648 0)
(6.35038 -0.487171 0)
(6.3379 -0.477667 0)
(6.32572 -0.468144 0)
(6.31385 -0.458613 0)
(6.30228 -0.449082 0)
(6.29103 -0.439559 0)
(6.28008 -0.430053 0)
(6.26946 -0.42057 0)