/*--------------------------------*- C++ -*----------------------------------*\
| =========                 |                                                 |
| \\      /  F ield         | OpenFOAM: The Open Source CFD Toolbox           |
|  \\    /   O peration     | Version:  2.4.0                                 |
|   \\  /    A nd           | Web:      www.OpenFOAM.org                      |
|    \\/     M anipulation  |                                                 |
\*---------------------------------------------------------------------------*/
FoamFile
{
    version     2.0;
    format      ascii;
    class       volScalarField;
    location    "0.069";
    object      p;
}
// * * * * * * * * * * * * * * * * * * * * * * * * * * * * * * * * * * * * * //

dimensions      [0 2 -2 0 0 0 0];

internalField   nonuniform List<scalar> 
4400
(
105.654
85.4917
77.8847
74.5354
72.1153
69.7224
67.3822
65.1111
63.2829
60.7382
103.719
85.56
77.9222
74.5469
72.1178
69.7234
67.3813
65.1042
63.2869
60.6432
102.504
85.8784
78.058
74.5857
72.1384
69.7331
67.3832
65.0937
63.3033
60.5678
101.771
86.2646
78.2395
74.6438
72.1814
69.7614
67.3963
65.0859
63.322
60.5162
101.177
86.619
78.4234
74.7039
72.24
69.8096
67.4242
65.0889
63.3412
60.4752
100.664
86.9127
78.5864
74.7477
72.2941
69.8644
67.4623
65.1009
63.3564
60.5152
100.242
87.1459
78.7227
74.7732
72.335
69.9149
67.4985
65.1164
63.3532
60.6403
99.9181
87.3204
78.8314
74.7879
72.3576
69.9568
67.5262
65.1368
63.2794
60.7816
99.6998
87.4382
78.9051
74.794
72.3697
69.9915
67.5452
65.1517
63.2571
60.9898
99.5906
87.4965
78.9421
74.7989
72.3723
70.0144
67.5594
65.1692
63.2486
61.1118
99.5914
87.4945
78.9427
74.8031
72.3661
70.0292
67.5643
65.1874
63.2496
61.2053
99.7027
87.4311
78.9064
74.8068
72.3524
70.0305
67.5668
65.2051
63.2605
61.2749
99.9228
87.3086
78.8339
74.809
72.3288
70.0198
67.5647
65.221
63.2826
61.3129
100.248
87.1298
78.7268
74.805
72.2953
69.9963
67.5554
65.2344
63.3223
61.3143
100.672
86.8941
78.5928
74.788
72.2491
69.9583
67.5422
65.2474
63.3639
61.3083
101.184
86.5991
78.4316
74.7514
72.1921
69.913
67.5256
65.2582
63.3993
61.3212
101.778
86.2444
78.2476
74.6971
72.1329
69.8717
67.5122
65.27
63.4212
61.3459
102.514
85.8576
78.0657
74.642
72.0906
69.8471
67.5067
65.282
63.4288
61.3817
103.731
85.5394
77.9298
74.6038
72.0708
69.8385
67.5059
65.29
63.4268
61.4315
105.668
85.4714
77.8922
74.5919
72.068
69.8389
67.5056
65.2933
63.4221
61.529
61.7226
61.4187
58.3328
51.632
43.0796
36.3987
32.6774
31.1646
31.2916
33.2395
37.459
41.3182
44.2076
52.378
62.6265
70.1863
78.8031
84.7481
82.6155
76.8809
69.999
63.7502
59.8723
56.6247
54.2475
54.3056
54.905
56.3486
60.827
66.6384
72.7846
78.8804
82.8236
82.8347
78.9406
70.92
58.0652
45.6814
34.2582
24.9593
19.0716
15.7707
17.4189
24.1712
32.8828
41.0734
49.4188
57.927
65.7552
70.9869
74.1914
75.1257
74.9071
73.9787
73.4689
74.0609
76.238
79.3285
82.1383
84.4433
85.9483
86.8505
87.6606
87.918
88.45
88.3113
88.7007
88.4137
88.8925
88.5507
89.0399
88.5057
88.9983
88.4592
89.0901
88.4629
89.0717
88.3458
89.0285
88.3284
88.9998
88.1569
88.7395
88.0287
88.5149
87.739
88.0433
87.2331
87.3229
86.4462
86.2981
85.2164
84.8392
83.3597
82.9897
80.645
80.6032
75.9001
76.0097
51.6017
61.0439
61.084
58.4184
52.1829
44.1041
37.5798
33.8614
31.9995
32.1219
34.3434
38.269
42.551
45.7123
52.7349
62.0287
68.6138
75.9313
81.1975
79.5875
75.2693
69.776
64.4953
61.5276
59.2051
57.0314
57.1503
58.4828
60.2303
63.9651
69.1275
74.9882
80.8992
84.5073
84.212
79.8629
70.9742
57.118
44.027
32.0348
22.4916
16.4138
12.9215
14.7175
21.7498
31.1055
39.9057
48.5955
57.2218
65.3844
71.3968
75.1278
76.2947
76.3031
75.5692
75.1326
75.6585
77.669
80.4431
82.9273
84.9238
86.2618
87.0334
87.6989
87.9072
88.3503
88.1672
88.5251
88.1926
88.6891
88.3334
88.8275
88.203
88.7554
88.16
88.869
88.1058
88.8168
87.9501
88.8085
87.9013
88.7962
87.673
88.6044
87.5066
88.3862
87.1689
87.9321
86.6507
87.1233
85.7803
86.0503
84.4583
84.3268
82.2683
82.2165
78.8968
79.132
71.9031
71.2134
43.5678
60.3549
60.6023
58.3442
52.4022
44.8714
38.7494
35.3795
33.3476
33.3123
35.942
39.4887
43.775
47.3285
53.1271
61.1875
66.9664
73.1377
77.8118
76.801
73.6848
69.4851
65.1507
62.9632
61.4837
59.6976
59.8717
61.5461
63.5423
66.8224
71.4139
76.9543
82.6735
86.009
85.5437
80.8203
71.2355
56.8305
42.994
30.5211
20.8914
14.3479
10.2219
12.6693
19.9341
29.9003
39.2383
48.2379
56.964
65.3586
72.0993
76.2267
77.7955
78.0131
77.4549
77.1183
77.5718
79.2862
81.7199
83.7804
85.4033
86.5498
87.1654
87.7466
87.8766
88.2199
88.0143
88.3194
87.9891
88.4738
88.0974
88.5447
87.9046
88.458
87.8395
88.5668
87.7258
88.4509
87.4972
88.4774
87.3958
88.4134
87.0701
88.273
86.8261
88.0703
86.4125
87.6819
85.8155
86.8797
84.9149
85.7507
83.547
83.8124
81.0152
81.1869
76.8974
77.5111
68.7033
65.8978
41.5255
59.6682
60.0133
58.2359
52.6889
45.8811
40.2391
37.2279
35.2316
34.9514
37.8159
41.074
44.958
48.6797
53.4047
60.2456
65.4112
70.5603
74.6811
74.2433
72.1578
69.1521
65.7206
64.2395
63.5336
62.2361
62.4611
64.2254
66.3945
69.3681
73.4399
78.6882
84.1707
87.2241
86.6013
81.6317
71.6244
57.001
42.6936
29.8237
20.2036
12.9519
8.54161
11.4826
18.739
29.3286
39.125
48.3159
57.0974
65.7689
73.0829
77.6598
79.58
79.8612
79.5458
79.2753
79.7028
81.0302
83.063
84.7048
85.967
86.8557
87.314
87.7674
87.8014
88.0458
87.8003
88.1015
87.7918
88.2245
87.8319
88.2033
87.5757
88.1194
87.5239
88.1856
87.3079
88.0015
87.0485
88.0318
86.8511
87.8628
86.413
87.7515
86.0561
87.45
85.4625
87.2059
84.7197
86.3767
83.6516
85.4076
82.2883
83.2902
79.6668
80.2059
74.9499
75.1257
65.9052
59.911
41.3428
59.1607
59.5485
58.1669
53.1274
47.1265
41.9664
39.279
37.6484
37.1397
39.7974
42.7545
46.136
49.76
53.5367
59.2082
63.7889
68.1864
71.9844
71.9849
70.6719
68.7471
66.245
65.4348
65.3788
64.6272
64.9606
66.6696
68.8559
71.5784
75.1058
79.9785
85.2417
88.0435
87.2696
82.2036
72.038
57.413
42.9948
29.8562
20.2045
12.2494
7.81175
11.1872
18.1483
29.3984
39.4795
48.8359
57.5316
66.6154
74.4075
79.541
81.6808
82.0424
81.9856
81.6419
81.931
82.8693
84.3724
85.645
86.5501
87.2031
87.5189
87.8013
87.7415
87.8696
87.6145
87.9025
87.6267
87.9627
87.5362
87.8079
87.2582
87.779
87.202
87.7263
86.8674
87.5078
86.6039
87.4865
86.2821
87.1874
85.766
87.0577
85.2923
86.5525
84.4295
86.2573
83.4519
85.1831
82.0753
84.3729
80.2859
82.3036
77.7296
79.3789
73.1422
72.7479
63.894
53.3944
40.8901
58.8217
59.1776
58.0688
53.6094
48.5118
43.9885
41.4948
40.2481
39.617
41.8231
44.4396
47.2268
50.4572
53.4398
58.1866
62.2159
65.8972
69.5146
69.9047
69.1926
68.3117
66.8058
66.5718
67.0158
66.8158
67.331
68.8976
70.9495
73.4287
76.4024
80.7998
85.7855
88.3603
87.4777
82.4654
72.4651
58.092
43.7413
30.452
20.7928
12.3693
8.23756
11.803
18.1537
30.0748
40.3191
49.7992
58.0055
67.8262
76.0915
81.8486
84.2169
84.6663
84.7094
84.1865
84.2131
84.7331
85.6999
86.5811
87.1223
87.5438
87.6941
87.8132
87.6805
87.7036
87.4852
87.7115
87.4656
87.6667
87.2316
87.4059
86.9817
87.4284
86.8684
87.2004
86.4214
87.0117
86.1831
86.8522
85.68
86.489
85.1902
86.265
84.5544
85.6673
83.6633
85.189
82.4643
84.1007
80.9425
82.8659
78.1186
80.4303
75.1056
77.1843
69.5589
69.071
60.9043
49.786
41.7829
58.9222
59.02
57.9097
54.015
49.9272
46.16
43.7751
42.7934
42.2141
43.8334
45.9723
48.1644
50.9119
53.1825
57.0368
60.6242
63.6118
66.9776
67.811
67.7144
67.8429
67.3587
67.6288
68.4485
68.7867
69.4586
70.8458
72.6924
74.8528
77.2682
81.1896
85.7975
88.1151
87.1045
82.3043
72.9038
59.1753
44.8606
31.5206
22.1497
13.4783
9.93528
13.2245
18.8598
31.304
41.5668
51.2255
58.4311
69.3295
77.954
84.2441
86.7621
87.4872
87.5483
86.7228
86.4928
86.5441
86.9781
87.4792
87.6893
87.8617
87.8718
87.8046
87.6371
87.5716
87.3912
87.5198
87.307
87.3601
86.9603
87.0373
86.7422
87.0489
86.509
86.6521
86.0175
86.5081
85.7434
86.1571
85.0987
85.7803
84.6102
85.3977
83.8141
84.7879
82.9893
84.0703
81.6782
83.0939
80.1551
81.1645
76.6941
78.4227
72.9268
73.5786
65.4964
64.1106
56.7468
48.3611
42.3027
59.5575
59.2433
57.7473
54.377
51.1418
48.2417
46.0695
45.1395
44.6537
45.7587
47.3768
48.9436
51.1271
52.8768
55.8496
58.8554
61.162
64.2857
65.7186
66.2517
67.2623
67.8518
68.646
69.7241
70.4649
71.2874
72.5286
74.1269
75.9184
77.7463
81.1288
85.2759
87.2985
86.1317
81.7041
73.3159
60.5885
46.3382
33.1622
24.3111
15.6045
12.6901
15.2235
20.3467
32.8771
43.2152
52.9529
58.5789
71.213
79.8482
86.5152
89.1143
90.3069
90.2381
89.0726
88.6155
88.2304
88.0971
88.306
88.2474
88.2013
88.0995
87.8497
87.6454
87.5055
87.3562
87.3917
87.1993
87.0885
86.7808
86.7397
86.5442
86.669
86.194
86.1482
85.6819
86.0036
85.3179
85.4429
84.5567
85.0862
84.0405
84.4636
83.0453
83.8774
82.1993
82.8523
80.647
81.8637
79.0149
79.2707
75.3555
76.0235
71.0369
69.7945
63.4643
60.5463
54.5825
47.896
41.6571
60.0048
59.4725
57.8338
54.8572
52.2146
50.1071
48.2147
47.2917
46.8928
47.5101
48.6649
49.6886
51.2389
52.5071
54.5553
56.8845
58.6857
61.5078
63.544
64.8386
66.6579
68.2603
69.5686
70.8905
71.9656
72.9361
73.9977
75.364
76.7636
77.9116
80.6338
84.2613
85.9642
84.625
80.6957
73.6684
62.1097
48.3765
35.6242
27.0496
18.4871
16.0447
17.6006
22.6304
34.7218
45.2263
54.6352
58.5213
73.5447
81.481
88.5614
91.2342
92.9648
92.669
91.2305
90.5509
89.7391
89.1393
89.064
88.7931
88.5711
88.3501
87.9662
87.7087
87.5223
87.4201
87.3637
87.1747
86.9271
86.6952
86.5688
86.4379
86.3728
85.9641
85.7483
85.4557
85.5376
84.9431
84.7885
84.1379
84.3982
83.4719
83.5195
82.3435
82.8923
81.3173
81.523
79.5191
80.4108
77.6043
77.2343
73.9002
73.4756
69.3682
66.8021
62.8691
58.6858
54.5888
47.7263
41.0946
60.2683
59.683
58.1366
55.5002
53.2377
51.7597
50.202
49.2452
48.9194
49.1447
49.8846
50.4554
51.3059
52.079
53.2223
54.7837
56.2273
58.8254
61.3955
63.4791
66.0743
68.6138
70.5003
72.0405
73.3101
74.4583
75.4345
76.579
77.4357
77.7278
79.7728
82.8607
84.2591
82.7451
79.4049
73.9314
63.8634
51.1066
38.9173
30.1876
21.7665
19.6417
20.3374
25.3855
36.4756
47.6261
55.9211
58.4208
76.2316
82.544
90.5441
93.1408
95.4525
94.8104
93.1056
92.2909
91.0754
90.1099
89.7846
89.3011
88.958
88.6432
88.1574
87.8746
87.661
87.5728
87.4533
87.2641
86.9127
86.7518
86.5833
86.4563
86.2367
85.9084
85.58
85.3674
85.2433
84.7338
84.3319
83.8634
83.8102
83.0241
82.6641
81.7872
81.8595
80.4584
80.1766
78.5128
78.6964
76.2304
75.231
72.7971
71.3084
68.2374
65.4316
63.0384
58.3253
55.8468
47.8799
41.6623
60.5872
59.9379
58.4936
56.2587
54.2593
53.1914
52.0393
51.102
50.8181
50.7481
51.0817
51.2628
51.386
51.6097
51.9036
52.7174
53.9305
56.3286
59.2903
62.1691
65.5866
68.9067
71.3609
73.1613
74.6675
75.9384
76.8243
77.6813
77.8861
77.2474
78.7415
81.3049
82.4102
80.7349
78.0425
74.1888
65.9251
54.3872
42.8199
33.5686
25.3056
23.3046
23.3113
28.3536
38.3925
50.3235
56.6195
58.7875
78.9037
83.0079
92.4383
94.8392
97.6374
96.5822
94.7874
93.8476
92.2806
91.0018
90.4465
89.7952
89.3442
89.0002
88.4434
88.1755
87.8573
87.838
87.6006
87.5065
87.0448
86.9942
86.7017
86.6404
86.2841
86.0909
85.6405
85.4714
85.1789
84.7895
84.1981
83.8238
83.5127
82.8768
82.1484
81.4721
81.0715
79.8812
79.1
77.825
77.2085
75.2931
73.8593
72.0744
70.0312
67.9924
65.1446
63.9155
58.7277
57.1796
48.6611
43.0292
60.8748
60.2102
58.8524
57.0345
55.3237
54.5285
53.7471
52.8638
52.5984
52.3343
52.2411
52.0474
51.5196
51.1806
50.7315
50.8556
51.8886
54.034
57.3062
60.9783
65.1258
69.1306
72.2214
74.298
75.9509
77.2571
78.0408
78.5743
78.0945
76.6478
77.0598
79.8643
80.6883
78.7987
76.8063
74.5383
68.2307
58.0009
47.0081
37.1457
29.1668
27.0289
26.4415
31.5179
40.3251
53.126
57.0129
60.0111
80.8698
83.2907
94.1959
96.4457
99.5715
98.0709
96.3486
95.2026
93.3124
91.8798
91.0426
90.2582
89.7061
89.3955
88.7672
88.5792
88.0918
88.1575
87.7924
87.8594
87.2812
87.3622
86.8956
86.9885
86.4816
86.4927
85.8329
85.8176
85.3281
85.1677
84.3475
84.1223
83.5401
83.0986
82.0915
81.539
80.7581
79.7956
78.6437
77.636
76.4323
75.0576
73.3626
72.1424
69.7408
68.7733
65.6542
65.2541
59.5689
58.1883
49.9431
44.1536
61.0901
60.4821
59.2123
57.8354
56.4801
55.8099
55.2893
54.5087
54.2012
53.7923
53.3227
52.7808
51.746
50.8387
49.8017
49.4107
50.3029
52.3196
55.7252
60.0258
64.8124
69.4365
72.9767
75.2754
77.091
78.3654
79.0904
79.2755
78.1361
76.1705
76.476
78.9021
79.3791
77.2821
75.9057
75.0599
70.7098
61.8708
51.3486
41.1574
33.5805
30.9377
29.9079
34.8419
42.0726
56.0257
57.5234
62.8255
82.3386
83.8908
95.6669
98.0827
101.15
99.2365
97.6938
96.3407
94.2128
92.7115
91.6073
90.6707
90.0201
89.7684
89.1007
88.9987
88.3773
88.4944
88.0067
88.234
87.5753
87.806
87.1608
87.4349
86.7593
87.04
86.1532
86.3904
85.6015
85.8292
84.7058
84.7839
83.7739
83.7533
82.3874
82.1627
80.8704
80.403
78.7407
78.1895
76.394
75.7677
73.6031
73.1725
70.2394
70.3348
66.6168
66.64
60.586
58.8108
51.0998
44.8903
61.177
60.7216
59.6413
58.64
57.6099
56.9702
56.6245
55.9702
55.5742
55.0553
54.3037
53.4375
52.0246
50.6337
49.198
48.4965
49.2457
51.172
54.6818
59.4439
64.706
69.7237
73.5323
76.0976
78.0074
79.1574
79.8333
79.7637
78.1851
75.9682
76.3644
78.5335
78.663
76.5155
75.4916
75.7617
73.2475
65.9036
55.9355
45.7358
38.4594
34.9904
33.622
38.2299
43.9853
58.1758
58.4809
66.9461
82.6868
86.2411
96.9158
99.7854
102.466
100.272
98.8741
97.2467
94.9886
93.4279
92.1181
91.1042
90.2908
90.1115
89.4069
89.4296
88.6794
88.8444
88.1991
88.5826
87.8763
88.2652
87.4407
87.8789
87.0683
87.6092
86.5505
87.0573
85.9498
86.5631
85.1949
85.7047
84.1689
84.6995
82.9261
83.3011
81.2971
81.62
79.257
79.5019
76.963
77.3289
74.3362
74.877
71.2447
72.066
67.7321
67.6933
61.5538
59.1052
51.9794
45.4876
61.1992
60.9286
60.0556
59.3369
58.6157
57.9977
57.6807
57.1394
56.6923
56.0604
55.0967
53.988
52.3403
50.6122
48.9446
48.0607
48.6626
50.5614
54.1707
59.1983
64.7464
69.9435
73.9196
76.6662
78.5424
79.6309
80.2741
80.0305
78.2796
76.0842
76.7847
78.7594
78.5761
76.4153
75.592
76.6081
75.5935
69.8391
60.6404
50.6843
43.3894
38.9537
37.3805
41.5393
45.7667
59.5099
58.8392
72.0453
83.6137
91.0577
98.1703
101.6
103.246
101.228
99.726
97.8641
95.5758
94.0582
92.6022
91.603
90.5755
90.3951
89.6218
89.781
88.9884
89.158
88.3738
88.8581
88.1382
88.6933
87.7628
88.3043
87.3534
88.1573
86.9965
87.7297
86.3105
87.2831
85.7327
86.6801
84.6526
85.7304
83.5883
84.6597
81.9359
83.1527
80.0976
81.2223
77.8521
79.2553
75.4179
76.6546
72.4328
73.4976
68.7371
68.3229
62.2933
59.1345
52.5897
46.1055
61.1538
61.0543
60.4504
59.9128
59.3609
58.791
58.4754
57.9755
57.4646
56.7801
55.7237
54.441
52.6766
50.7686
48.9675
47.9785
48.4725
50.4128
54.0883
59.2286
64.8727
70.0879
74.1554
76.9337
78.571
79.7826
80.4348
80.1214
78.4983
77.0919
77.7017
79.4716
79.0075
76.8171
76.0799
77.4541
77.5189
73.3471
65.1708
55.6585
47.9984
42.7807
41.3708
45.0867
47.8339
61.0616
58.6439
76.4195
84.5473
96.0746
99.474
103.61
103.718
102.221
100.411
98.3866
96.0321
94.5421
92.9839
92.048
90.8594
90.6259
89.7581
89.9873
89.2331
89.4751
88.5785
89.0817
88.3415
89.0741
88.088
88.7248
87.5974
88.6105
87.4029
88.3693
86.6552
87.9001
86.24
87.5854
85.153
86.6921
84.2805
85.9789
82.6386
84.6469
81.0949
82.9984
78.8503
81.0812
76.5571
78.1969
73.581
74.5284
69.5279
68.5631
62.8341
59.0386
53.0291
46.7594
61.1782
61.1672
60.7364
60.3017
59.862
59.3242
58.9713
58.5033
57.9483
57.2197
56.1492
54.7982
52.9963
51.012
49.1703
48.1652
48.6023
50.5676
54.2808
59.4352
65.0275
70.173
74.2166
76.9243
78.5803
79.7578
80.3861
80.0802
78.7599
77.8675
78.8513
80.3914
79.6229
77.4116
76.6646
78.0742
78.7622
76.0474
69.1913
60.2331
52.0353
46.3508
45.3086
48.5794
49.8011
63.3287
60.4814
80.1352
85.4476
99.5539
99.7402
105.273
104.25
103.105
100.959
98.8312
96.3817
94.866
93.219
92.3639
91.0839
90.8173
89.8866
90.102
89.3567
89.7282
88.8107
89.3144
88.5079
89.3336
88.3325
89.1055
87.8657
88.9581
87.6648
88.875
87.0439
88.435
86.5963
88.3126
85.7037
87.5443
84.8381
87.0997
83.3927
85.9165
82.0009
84.5599
79.8241
82.5427
77.6056
79.3794
74.5142
75.2128
70.098
68.5045
63.1961
58.9475
53.3466
47.4098
61.2667
61.2618
60.912
60.5142
60.1136
59.6166
59.2255
58.7562
58.1862
57.4462
56.3889
55.0209
53.2463
51.2732
49.4548
48.484
48.9079
50.8922
54.6068
59.6995
65.1705
70.1988
74.1416
76.7959
78.498
79.6649
80.2554
79.9934
79.0394
78.7221
79.9317
81.1365
80.0494
77.7771
76.9985
78.335
79.2909
77.5646
72.1775
64.012
55.4372
49.4815
48.4557
50.9464
50.9359
65.645
63.4723
85.5438
86.9802
100.82
98.9492
106.291
104.813
103.62
101.332
99.1734
96.7094
95.1167
93.3836
92.5327
91.1947
90.9479
89.9851
90.1628
89.4081
89.8445
88.946
89.5186
88.656
89.4568
88.4615
89.3817
88.0964
89.1982
87.8386
89.2045
87.3769
88.8789
86.8816
88.8087
86.1959
88.2536
85.2942
87.9273
84.1207
86.882
82.7121
85.7797
80.699
83.5566
78.4414
80.2198
75.1651
75.6251
70.5321
68.3188
63.4031
58.919
53.5652
47.9906
61.3372
61.3189
60.9782
60.5857
60.1938
59.7166
59.2992
58.8265
58.2503
57.5066
56.4694
55.1076
53.3752
51.4517
49.7247
48.8338
49.2752
51.2871
54.9668
59.9556
65.3104
70.2092
74.0626
76.71
78.4574
79.6005
80.1395
79.9286
79.2712
79.353
80.6537
81.5558
80.2417
77.8648
76.5927
78.1764
79.2125
77.9843
73.5917
66.4342
58.0676
52.1042
50.6664
51.9907
51.4479
67.283
63.9582
90.8005
88.3087
101.147
98.8202
107.056
105.36
103.845
101.598
99.3882
96.9288
95.2634
93.4681
92.5765
91.2374
90.9895
90.0136
90.2109
89.4152
89.884
88.9887
89.6279
88.7133
89.5324
88.5065
89.5045
88.2012
89.3501
87.9202
89.3693
87.5376
89.1433
87.0438
89.0722
86.4561
88.6832
85.5954
88.3783
84.5755
87.4818
83.1819
86.4733
81.3388
84.1267
78.9933
80.7247
75.6066
75.7662
70.9346
68.1346
63.5613
58.9505
53.6936
48.4054
61.4843
61.3519
60.9892
60.5947
60.1936
59.724
59.2876
58.8029
58.2171
57.4563
56.4208
55.0747
53.3944
51.5298
49.8866
49.0639
49.5401
51.6142
55.2725
60.1613
65.4144
70.2284
74.0444
76.6788
78.4451
79.575
80.0862
79.8836
79.3437
79.4674
80.8519
81.639
80.2949
77.9317
76.9051
78.1771
78.9965
77.3148
73.4824
67.4399
59.4601
53.5643
51.7673
52.5767
52.2112
68.0716
64.8331
93.587
88.8727
101.46
98.5374
107.387
105.259
103.874
101.574
99.4029
96.9837
95.2849
93.5041
92.6022
91.2653
91.0177
90.037
90.2301
89.4147
89.9016
88.9933
89.6517
88.7189
89.5625
88.502
89.5325
88.2097
89.401
87.923
89.4158
87.5433
89.2304
87.0576
89.1627
86.4663
88.8374
85.6315
88.5362
84.624
87.7208
83.2651
86.706
81.4924
84.3509
79.1341
80.9015
75.7422
75.769
71.022
68.0325
63.5846
58.9376
53.7132
48.348
50.1336
49.271
47.7105
45.4229
43.6816
43.3144
44.4021
47.8128
49.5093
51.3944
55.1051
59.543
63.8945
66.8505
67.7812
66.9187
64.6216
62.099
60.4068
60.7969
62.9264
63.8334
62.7535
59.1005
53.2613
48.764
47.987
51.4227
57.9284
68.6654
84.7687
101.416
115.677
123.005
123.331
118.683
111.748
104.346
97.5662
91.9487
87.7712
85.0329
83.5401
82.9899
82.8217
82.4856
81.7468
80.8581
80.1374
79.6746
79.3006
78.8934
78.4808
78.1684
78.165
78.6067
79.5429
80.8823
82.3941
83.9195
85.3033
86.4342
87.3418
88.0156
88.503
88.8613
89.1056
89.2881
89.4222
89.5238
89.6152
89.6928
89.7718
89.8541
89.9396
90.0343
90.14
90.2536
90.3795
90.5161
90.6585
90.8071
90.9545
91.094
91.2159
91.3132
91.3872
91.441
91.4711
91.4734
91.4592
91.437
91.335
91.0031
90.5581
90.0862
89.3181
89.2367
90.3387
92.3825
50.2129
49.3073
47.6591
45.2996
43.398
42.8645
43.765
47.0562
48.8249
50.8638
54.5695
59.1597
63.4671
66.456
67.3819
66.5419
64.3113
61.8539
60.2258
60.5829
63.0417
64.4958
62.6674
57.6969
51.6141
47.321
46.8029
50.5085
56.8687
67.4298
83.3553
100.264
114.606
122.303
122.764
118.219
111.355
103.97
97.1405
91.5615
87.481
84.8638
83.4721
82.9858
82.869
82.5352
81.7469
80.8171
80.0969
79.6571
79.3066
78.8975
78.4681
78.1263
78.1029
78.523
79.4769
80.8425
82.3761
83.9195
85.3177
86.4545
87.361
88.0347
88.5152
88.8723
89.1119
89.2922
89.4256
89.5245
89.6161
89.6925
89.7705
89.8536
89.9377
90.0329
90.1384
90.2519
90.3777
90.5154
90.6574
90.8073
90.956
91.0961
91.221
91.3216
91.4001
91.4554
91.4807
91.473
91.4481
91.426
91.3382
91.0378
90.5804
89.9812
89.0616
88.9068
89.9828
92.0047
50.3877
49.4015
47.5948
45.0338
42.8484
41.9204
42.5875
45.6695
47.6869
50.7083
54.3299
58.7817
62.934
65.8304
66.6857
65.8021
63.5862
61.2321
59.8258
60.7084
62.9488
63.7435
60.9177
54.7434
48.5329
44.9388
44.8015
48.5694
55.3076
65.3005
80.757
98.0321
112.469
120.506
121.163
116.785
110.115
102.905
96.1714
90.6126
86.6321
84.2218
83.0399
82.7095
82.7066
82.4442
81.6627
80.714
80.0201
79.6348
79.3198
78.9027
78.439
78.0566
77.9946
78.4043
79.3735
80.7715
82.3481
83.9225
85.3414
86.485
87.3903
88.06
88.5326
88.885
89.1193
89.2953
89.4267
89.5219
89.6144
89.6872
89.7657
89.8469
89.9307
90.0232
90.1295
90.2399
90.3655
90.5018
90.6426
90.7924
90.9411
91.0826
91.2103
91.3154
91.3963
91.4536
91.4794
91.4747
91.4464
91.4283
91.3803
91.1651
90.6976
89.8757
88.6438
88.3173
89.3275
91.3225
50.6702
49.5811
47.5448
44.7068
42.3537
40.8341
41.3108
43.8277
46.6045
51.3975
54.6259
58.4171
62.4029
65.0527
65.9091
64.9841
62.6601
60.3287
59.1533
60.0021
62.1647
61.9592
57.6154
50.7775
44.8109
42.046
42.4103
46.5234
53.3643
62.6446
77.2922
94.9149
109.366
117.613
118.529
114.402
108.088
101.187
94.5756
89.0222
85.1184
82.9004
81.975
81.9418
82.217
82.1448
81.4524
80.5544
79.9426
79.6366
79.3546
78.9152
78.4014
77.9642
77.8514
78.2547
79.2416
80.6709
82.3058
83.9167
85.3604
86.5146
87.4169
88.0839
88.5458
88.8942
89.122
89.2935
89.4223
89.515
89.6031
89.677
89.7498
89.8331
89.9108
90.0031
90.1045
90.213
90.3329
90.4676
90.6025
90.7496
90.8954
91.0354
91.1664
91.2765
91.3682
91.4354
91.4722
91.4743
91.4534
91.4483
91.4654
91.3644
90.8415
89.7487
88.2338
87.6843
88.5899
90.5201
51.0786
49.8743
47.6173
44.5044
41.9803
39.9938
40.1257
41.934
45.3828
51.8333
54.5967
57.8178
61.6414
64.123
65.0863
64.216
61.8448
59.4662
58.3172
59.3549
60.8475
59.2212
53.6737
46.5425
40.9879
38.805
39.7429
44.2177
51.206
59.6956
73.2524
91.2888
105.454
113.654
114.926
111.164
105.31
98.7763
92.3236
86.822
82.9948
80.9471
80.2716
80.5906
81.2806
81.5628
81.0986
80.3589
79.8945
79.6844
79.4187
78.9354
78.3461
77.8277
77.6408
78.0198
79.0326
80.5078
82.2267
83.8862
85.364
86.5347
87.4336
88.0975
88.5525
88.8912
89.1182
89.2814
89.4106
89.4995
89.5859
89.6535
89.7276
89.8045
89.8826
89.9647
90.068
90.1629
90.2832
90.4055
90.5367
90.6742
90.8143
90.9493
91.0785
91.1916
91.2893
91.3684
91.4211
91.4488
91.4585
91.4819
91.5299
91.4926
90.9278
89.611
87.859
87.1114
87.9782
89.8282
51.6559
50.3645
47.9143
44.5975
41.8248
39.4812
39.1777
40.3765
43.9953
51.1808
53.8551
56.442
60.3474
62.8793
64.2479
63.6739
61.5242
59.3301
58.2746
59.126
59.4137
56.067
49.9238
42.7745
37.4046
35.4994
36.8287
41.7756
49.0989
56.7458
69.0137
87.2905
101.232
109.035
110.533
107.281
101.949
95.8143
89.5042
84.0607
80.2922
78.4024
77.9632
78.6439
79.8442
80.6419
80.5818
80.1282
79.865
79.7499
79.4712
78.9181
78.2274
77.6047
77.3233
77.6639
78.7193
80.2665
82.098
83.825
85.3538
86.5471
87.4468
88.108
88.5561
88.8849
89.111
89.2638
89.395
89.4781
89.5613
89.6293
89.6942
89.773
89.8411
89.9227
90.0121
90.1063
90.2095
90.3295
90.4424
90.5743
90.6985
90.8281
90.9458
91.0576
91.155
91.2418
91.3087
91.3623
91.4114
91.469
91.5549
91.5069
90.9121
89.4587
87.6061
86.6829
87.5397
89.4064
52.4319
51.1129
48.4973
44.9973
41.8515
39.1976
38.4389
39.1047
42.4992
49.1849
51.7452
53.9021
58.1549
61.1087
63.3699
63.6129
62.0726
60.3397
59.5212
59.7248
58.2937
53.1561
46.5873
39.8202
34.3669
32.4544
33.7464
39.1337
47.0634
54.0546
65.286
82.9511
96.8287
104.249
105.67
103.054
98.2509
92.4927
86.3031
80.8185
77.1433
75.323
75.0711
76.1126
77.8745
79.3483
79.8626
79.8122
79.7964
79.7776
79.4625
78.8254
78.0201
77.2804
76.8913
77.1937
78.3074
79.9544
81.9196
83.7414
85.3274
86.559
87.4537
88.1219
88.5604
88.8807
89.1031
89.2488
89.3771
89.4575
89.535
89.6132
89.6587
89.7386
89.7963
89.8737
89.9559
90.0383
90.1366
90.2369
90.3442
90.4527
90.5704
90.6767
90.7869
90.8829
90.9779
91.0562
91.1334
91.2011
91.2776
91.3674
91.456
91.4028
90.7645
89.3167
87.4625
86.482
87.3538
89.3309
53.41
52.1185
49.3598
45.5868
41.8807
38.9376
37.7434
37.8808
40.7585
46.1086
48.2236
50.2922
54.8997
58.8231
62.5033
64.0361
63.7688
62.8281
62.2829
61.3132
57.6541
50.9465
43.9159
37.6907
32.2757
30.2065
31.2243
36.5602
45.0825
51.8134
62.0722
78.8085
92.4672
99.5363
100.795
98.7352
94.5272
89.0128
82.9117
77.4472
73.7417
71.8504
71.6482
73.0216
75.4031
77.6523
78.8734
79.3424
79.624
79.7021
79.3501
78.6333
77.7182
76.8549
76.3487
76.6117
77.8086
79.5726
81.7054
83.6344
85.3003
86.5566
87.468
88.1324
88.5649
88.8802
89.0955
89.234
89.3617
89.4338
89.5128
89.5762
89.6343
89.6923
89.7585
89.8171
89.8993
89.9671
90.0585
90.1431
90.2375
90.3343
90.4284
90.5251
90.6079
90.6962
90.7669
90.8404
90.8995
90.9769
91.0492
91.1531
91.2253
91.1436
90.5248
89.1486
87.4391
86.5489
87.5288
89.6358
54.5488
53.323
50.4459
46.189
41.6963
38.3
36.7859
36.7489
39.1266
42.7527
43.6812
46.245
51.123
56.3327
61.6609
65.1276
66.5308
66.6778
66.324
63.8313
57.6335
49.449
42.211
36.4693
31.3082
28.9624
29.4765
34.5001
43.1773
50.1414
59.2186
74.9006
88.44
95.0616
96.3147
94.557
90.959
85.5696
79.4646
74.0007
70.2266
68.1403
67.8315
69.4797
72.4808
75.5308
77.5485
78.6274
79.2837
79.4929
79.121
78.3324
77.3248
76.3267
75.6962
75.84
77.2221
79.1299
81.458
83.5236
85.2603
86.5576
87.4869
88.1369
88.5784
88.8783
89.0873
89.2264
89.3405
89.4166
89.4867
89.5502
89.5948
89.6591
89.7065
89.7706
89.8315
89.9034
89.9701
90.0545
90.1257
90.2119
90.2884
90.3636
90.4351
90.4931
90.555
90.5935
90.649
90.6911
90.7616
90.8189
90.8755
90.7485
90.1845
88.9858
87.4964
86.8391
88.0275
90.3035
55.7373
54.605
51.5182
46.5812
41.0342
37.0062
35.3416
35.5599
37.6245
39.7982
39.8921
42.7973
47.8896
54.131
60.885
66.8568
70.1623
71.7605
71.1864
66.8414
58.2955
48.711
41.5463
36.2141
31.432
28.6438
28.3797
32.9839
41.5773
48.9627
57.232
71.425
84.7374
91.0637
92.335
90.7636
87.6128
82.2269
76.0191
70.5361
66.6444
64.3048
63.8096
65.64
69.1765
72.978
75.8339
77.6354
78.7498
79.1252
78.7549
77.9354
76.8504
75.7079
74.9477
75.0318
76.5658
78.6369
81.2042
83.3982
85.2303
86.5634
87.5013
88.1513
88.5898
88.8781
89.0847
89.2176
89.3229
89.3987
89.4599
89.5165
89.5591
89.6142
89.6632
89.7142
89.7714
89.8295
89.8901
89.9557
90.021
90.0836
90.1501
90.2018
90.2565
90.2936
90.3276
90.3526
90.3705
90.3926
90.4099
90.4407
90.4127
90.2804
89.7957
88.7987
87.7035
87.3063
88.7025
91.3098
56.9393
55.82
52.4735
46.649
39.7816
34.9731
33.3899
34.1185
35.9811
37.2867
37.2932
40.3876
45.5966
52.3255
60.4211
68.8422
74.2433
77.5155
76.4131
69.8693
59.5767
48.9772
41.9167
36.9456
32.5605
29.2795
28.0363
32.1573
40.5831
48.2228
56.2598
69.0113
81.5207
87.7022
88.8471
87.3741
84.4425
78.945
72.4927
66.9833
62.9621
60.3843
59.7092
61.6409
65.5931
70.0581
73.7361
76.3506
77.9924
78.5988
78.2756
77.4475
76.3054
74.9957
74.1275
74.1363
75.8588
78.1253
80.9395
83.2789
85.2144
86.5656
87.5284
88.1647
88.6053
88.8798
89.086
89.206
89.3085
89.3776
89.4378
89.4833
89.5321
89.566
89.6183
89.6576
89.707
89.76
89.8014
89.8639
89.907
89.9619
90.0045
90.0462
90.0688
90.0963
90.1
90.1032
90.0873
90.0678
90.0508
90.0076
89.9454
89.7575
89.3745
88.6531
87.9154
88.044
89.6844
92.5742
57.8995
56.8819
53.2434
46.3677
38.1408
32.7097
31.3161
32.4166
34.146
35.2
35.6526
38.5734
43.8448
50.9521
60.3582
70.5237
78.4132
82.8003
81.3229
72.6319
61.2303
49.9843
42.8527
38.344
34.4677
30.8023
28.5002
31.8477
40.1818
47.9466
55.734
67.5722
78.9942
84.9986
85.9018
84.3312
81.3108
75.6035
68.7825
63.1811
59.068
56.2999
55.5787
57.6338
61.872
66.853
71.3054
74.778
77.0422
77.9145
77.684
76.8752
75.7116
74.2262
73.2684
73.2143
75.1345
77.6308
80.6886
83.1746
85.2057
86.5751
87.5558
88.1855
88.6213
88.8871
89.0855
89.1967
89.293
89.3605
89.4103
89.4581
89.4905
89.5281
89.5695
89.6038
89.6428
89.6857
89.7187
89.764
89.8001
89.8329
89.8663
89.8792
89.8935
89.8899
89.8764
89.8399
89.7986
89.7368
89.6701
89.5815
89.4553
89.2762
88.9113
88.4986
88.2117
88.7389
90.8795
93.5949
58.5755
57.6613
53.7881
45.9098
36.5496
30.8311
29.5955
30.7712
32.3913
33.7073
34.6892
37.3674
42.554
50.1579
60.5042
71.8878
82.3008
87.4284
85.5212
75.1047
62.8631
51.3293
44.0127
39.8374
36.4793
32.5544
29.3391
32.0278
40.4528
48.2902
55.7074
66.9117
77.2265
82.8121
83.437
81.5967
78.1619
72.0592
64.8155
59.0055
54.8003
51.9492
51.3873
53.6755
58.1349
63.4765
68.6338
72.9315
75.8741
77.0883
76.9987
76.2567
75.0846
73.4419
72.4147
72.3393
74.443
77.1991
80.4694
83.0955
85.2172
86.579
87.5909
88.1981
88.6435
88.8958
89.0886
89.1868
89.282
89.3383
89.3884
89.4275
89.4593
89.4859
89.5246
89.5438
89.5841
89.6048
89.6378
89.6641
89.6917
89.7067
89.7212
89.7237
89.7088
89.6891
89.643
89.5819
89.5002
89.4046
89.2887
89.1469
88.9697
88.7366
88.4909
88.1854
88.2707
89.266
91.4255
94.7732
59.034
58.1729
54.137
45.4811
35.3055
29.5021
28.3734
29.3975
30.9112
32.5598
34.3952
37.0629
42.0763
50.0551
60.7695
73.0401
85.3413
90.9792
88.5085
77.3493
64.4331
52.8427
45.3025
41.2993
38.3194
34.3781
30.4714
32.7471
41.361
49.3363
56.4505
66.9759
76.2383
81.1238
81.3496
79.142
75.0184
68.2244
60.5969
54.4576
50.1127
47.2647
47.0533
49.759
54.4573
60.0511
65.7412
70.8863
74.5172
76.1455
76.2485
75.5891
74.4692
72.7034
71.6573
71.5996
73.8515
76.847
80.2777
83.0451
85.2283
86.5802
87.6235
88.1995
88.6671
88.8968
89.0995
89.1704
89.2779
89.3111
89.3725
89.3937
89.4255
89.4383
89.4763
89.4904
89.5147
89.5351
89.5481
89.5704
89.576
89.5863
89.5782
89.5635
89.5307
89.4823
89.4164
89.3161
89.2108
89.067
88.9068
88.6965
88.4681
88.2065
87.9626
87.9064
88.0953
89.376
92.2115
94.7448
59.4306
58.5455
54.4093
45.2964
34.6802
28.7835
27.6414
28.3851
29.8752
31.9012
34.538
37.3794
42.1468
50.3122
61.1173
73.8878
87.0116
93.5391
90.4953
78.9425
65.8753
54.5987
46.9637
42.8401
40.1038
36.4233
32.1733
34.122
42.8336
50.9464
57.8817
67.5992
75.8993
79.9933
79.6978
76.985
71.9621
64.1877
56.1745
49.6293
45.0772
42.2821
42.5457
45.8475
50.8594
56.6606
62.7941
68.6951
73.0445
75.0916
75.4949
74.9323
73.9211
72.0998
71.0439
71.0705
73.4155
76.6069
80.1318
83.0157
85.221
86.5656
87.6348
88.18
88.6823
88.8822
89.1074
89.1452
89.2737
89.2781
89.3645
89.3539
89.3914
89.3957
89.4283
89.4314
89.4537
89.4579
89.4623
89.4714
89.4691
89.4589
89.4383
89.4035
89.3513
89.2795
89.1834
89.0617
88.9082
88.7226
88.5023
88.2513