/*--------------------------------*- C++ -*----------------------------------*\
| =========                 |                                                 |
| \\      /  F ield         | OpenFOAM: The Open Source CFD Toolbox           |
|  \\    /   O peration     | Version:  2.4.0                                 |
|   \\  /    A nd           | Web:      www.OpenFOAM.org                      |
|    \\/     M anipulation  |                                                 |
\*---------------------------------------------------------------------------*/
FoamFile
{
    version     2.0;
    format      ascii;
    class       volScalarField;
    location    "0.163";
    object      k;
}
// * * * * * * * * * * * * * * * * * * * * * * * * * * * * * * * * * * * * * //

dimensions      [0 2 -2 0 0 0 0];

internalField   nonuniform List<scalar> 
4400
(
9.53432
8.48058
6.52851
5.28952
4.62857
4.25762
3.98511
3.83791
3.73947
3.58053
4.41241
6.75
6.74496
6.30169
5.68638
5.27147
4.93119
4.704
4.55954
4.5843
1.18022
3.14296
4.22425
4.5427
4.46288
4.30707
4.11661
3.92735
3.81801
3.79487
0.165369
0.931898
1.70309
2.3451
2.63829
2.82083
2.86637
2.82909
2.79691
2.75919
0.0174407
0.153308
0.388008
0.789303
1.05316
1.32726
1.55657
1.62419
1.70047
1.73041
0.00149339
0.0170128
0.0501204
0.149625
0.238586
0.367752
0.551823
0.64673
0.736737
0.825923
0.000138557
0.00149893
0.00414795
0.0151955
0.0295615
0.0498702
0.101931
0.15685
0.181795
0.233061
4.00233e-05
0.000245321
0.000375956
0.00110964
0.00207121
0.00359026
0.00962489
0.0188729
0.0210225
0.0283046
3.3665e-05
0.00014917
0.00016468
0.000221581
0.000261194
0.000330361
0.000748352
0.00113031
0.00118583
0.00164239
3.30884e-05
0.000131437
0.000176345
0.000197836
0.000205607
0.000208594
0.000232569
0.00024728
0.000256793
0.000293296
3.26022e-05
0.000146188
0.000186872
0.000186087
0.000192214
0.000227961
0.000232398
0.000241537
0.000278342
0.000400924
3.36873e-05
0.000141337
0.000193198
0.000213573
0.000293708
0.000476604
0.000569199
0.000903721
0.00188868
0.00471078
4.03273e-05
0.000237746
0.000496816
0.000870849
0.00195786
0.00533658
0.0080877
0.0157128
0.0276273
0.0604587
0.0001358
0.00154237
0.00503319
0.0116441
0.0277735
0.0670553
0.0919096
0.154177
0.20869
0.354349
0.00145297
0.0171243
0.0611078
0.121561
0.25385
0.410951
0.49949
0.681922
0.791396
1.02242
0.0170896
0.151465
0.43587
0.715481
1.10683
1.34155
1.51243
1.68093
1.78368
1.94759
0.162286
0.947445
1.72156
2.29244
2.69927
2.79076
2.8717
2.86886
2.88289
2.91552
1.16086
3.17713
4.21636
4.52922
4.48399
4.25855
4.15352
3.93352
3.87675
3.77552
4.39962
6.7843
6.72988
6.29805
5.709
5.18014
4.98927
4.62606
4.51585
4.2348
9.52516
8.51371
6.49003
5.30307
4.63496
4.17606
4.00727
3.69614
3.55183
3.11794
2.19883
1.43579
1.05935
0.96513
0.923658
1.04495
1.04448
1.04922
1.04876
1.01855
0.85519
0.801651
0.598806
0.570066
0.515104
0.481137
0.468928
0.467438
0.469282
0.490232
0.512944
0.51008
0.494115
0.457502
0.382126
0.207725
0.0963703
0.0569706
0.0495895
0.0500805
0.0511188
0.0581771
0.0667112
0.0669002
0.0676216
0.0740171
0.106763
0.193041
0.25616
0.274738
0.265109
0.224833
0.182382
0.169896
0.154932
0.145968
0.1461
0.139527
0.13488
0.137913
0.164894
0.178446
0.175673
0.191182
0.208056
0.189065
0.124727
0.0831202
0.0649189
0.0607239
0.0600544
0.0625237
0.0735976
0.120231
0.156095
0.18646
0.295724
0.321602
0.289437
0.204647
0.174669
0.137407
0.104436
0.0996122
0.108205
0.125476
0.138017
0.152146
0.166969
0.187693
0.253315
0.279725
0.260385
0.162149
0.124143
0.0785938
0.0666994
0.0626018
0.0591674
0.0592334
0.0757806
0.084634
0.140282
0.121019
0.150042
0.127338
0.215969
0.24751
0.505962
0.541665
3.57357
2.57397
1.9015
1.68926
1.305
1.22305
1.15046
1.06515
1.08977
1.0901
1.05021
1.05526
0.917729
0.83191
0.710409
0.626048
0.585064
0.558965
0.552211
0.557279
0.546479
0.521721
0.461062
0.364211
0.181719
0.0849942
0.049932
0.0428435
0.0462177
0.0505782
0.0580491
0.0771261
0.082997
0.0841418
0.0872467
0.0982934
0.150979
0.235189
0.281444
0.279506
0.255298
0.197403
0.157943
0.148682
0.138098
0.132651
0.134078
0.134125
0.133113
0.135533
0.157664
0.172009
0.1701
0.176946
0.201375
0.188782
0.137267
0.0970838
0.0737482
0.0662021
0.0643158
0.0669122
0.0804237
0.12862
0.160004
0.208796
0.343901
0.353729
0.295145
0.167236
0.119653
0.0981999
0.0844654
0.0851649
0.0944869
0.110897
0.124482
0.143728
0.161287
0.180006
0.238651
0.269298
0.262971
0.165369
0.126512
0.0802345
0.0679856
0.0605081
0.0627673
0.0621122
0.0782226
0.088011
0.135325
0.127367
0.15063
0.139117
0.169207
0.223978
0.504992
0.589801
3.27768
2.73255
2.06417
1.88145
1.53211
1.27252
1.13734
0.954298
0.915264
0.934448
0.9625
1.02215
1.01489
0.951353
0.892707
0.801392
0.744176
0.676954
0.632861
0.591516
0.519433
0.450676
0.306495
0.14706
0.0694619
0.0421196
0.0376146
0.0404601
0.0541007
0.0691902
0.0926966
0.110225
0.110267
0.110561
0.113119
0.130836
0.208255
0.275786
0.291545
0.27496
0.220195
0.172063
0.140643
0.135607
0.129293
0.123967
0.124432
0.125591
0.128476
0.133527
0.157908
0.166819
0.164892
0.16854
0.186079
0.183073
0.147356
0.11455
0.084107
0.0722816
0.0698242
0.0730593
0.0888099
0.142752
0.174591
0.239481
0.380428
0.382339
0.293375
0.1523
0.0896623
0.0685463
0.068584
0.0721132
0.0817832
0.101216
0.11439
0.137884
0.155131
0.173916
0.231539
0.260794
0.261568
0.175779
0.127937
0.0839843
0.0700715
0.0630637
0.0716152
0.072282
0.0811246
0.0888129
0.118057
0.12354
0.132046
0.134661
0.144624
0.179875
0.298516
0.520964
2.46701
2.21503
1.83809
1.65742
1.47504
1.22179
1.00684
0.806506
0.647346
0.633179
0.658139
0.738686
0.825572
0.829441
0.811999
0.773925
0.70068
0.613977
0.567644
0.474426
0.369944
0.22045
0.107176
0.0525055
0.0329465
0.0326178
0.0363684
0.0533985
0.0962358
0.127843
0.153323
0.15421
0.147504
0.141584
0.145808
0.185758
0.271043
0.293267
0.292311
0.243298
0.187952
0.15096
0.126659
0.122364
0.122126
0.120339
0.118185
0.118413
0.122157
0.130506
0.159797
0.166511
0.1632
0.164628
0.174397
0.173145
0.153667
0.13285
0.093748
0.0773965
0.0759889
0.0802799
0.096353
0.15729
0.193348
0.264778
0.420088
0.406918
0.273787
0.135834
0.0766093
0.0583043
0.055909
0.0585122
0.0699603
0.0905142
0.103975
0.135857
0.149526
0.172942
0.232797
0.257929
0.264337
0.190182
0.138623
0.0871554
0.080953
0.071986
0.0819214
0.0791924
0.0841119
0.0908933
0.115714
0.136133
0.140436
0.136038
0.140073
0.160155
0.198718
0.354146
1.57248
1.38279
1.27113
1.16913
1.12479
1.01501
0.81958
0.655302
0.422958
0.350271
0.353266
0.381046
0.49833
0.55146
0.556438
0.552158
0.507628
0.417951
0.365046
0.255265
0.142668
0.0716875
0.0372003
0.0257019
0.0266609
0.0336076
0.0567797
0.117646
0.191387
0.228313
0.227695
0.220351
0.195284
0.1793
0.192449
0.261497
0.296774
0.296466
0.275992
0.217054
0.17299
0.141839
0.11896
0.110293
0.112465
0.116014
0.115599
0.115178
0.118009
0.127267
0.160075
0.168208
0.163501
0.163255
0.166995
0.166776
0.157613
0.137918
0.098425
0.0832833
0.0835405
0.0897609
0.106541
0.172841
0.209766
0.289135
0.467256
0.415647
0.226886
0.113625
0.0681063
0.0533206
0.0493459
0.0515437
0.0625226
0.083697
0.0963289
0.130672
0.147295
0.173293
0.231328
0.25598
0.268142
0.195284
0.169162
0.0998116
0.0991574
0.0881175
0.0850508
0.0910159
0.0885277
0.0930973
0.118338
0.14697
0.14489
0.135161
0.139711
0.167307
0.192125
0.292363
0.740967
0.619259
0.595657
0.594821
0.623325
0.612553
0.53992
0.407522
0.215155
0.133803
0.124891
0.127427
0.172594
0.250096
0.275666
0.280847
0.266959
0.228071
0.159002
0.0900758
0.045668
0.02405
0.0194421
0.0213213
0.0320019
0.066539
0.141885
0.261906
0.335059
0.3395
0.328851
0.301269
0.236358
0.225596
0.257827
0.309002
0.306044
0.288892
0.239057
0.208136
0.169284
0.139594
0.116938
0.101961
0.104346
0.111256
0.112798
0.112173
0.115098
0.126171
0.158207
0.174061
0.16626
0.163346
0.16337
0.162465
0.155948
0.134238
0.101712
0.0918936
0.0934182
0.100836
0.119151
0.195359
0.228675
0.331621
0.51549
0.398033
0.167055
0.0899485
0.0609795
0.0484922
0.0458577
0.0486022
0.059642
0.0811093
0.0922678
0.123964
0.147436
0.17426
0.22298
0.257545
0.266651
0.20527
0.178055
0.111854
0.0983747
0.0887074
0.0814795
0.0853273
0.0844448
0.0934707
0.121239
0.136752
0.134381
0.136897
0.150485
0.176805
0.190117
0.275832
0.199749
0.168188
0.174019
0.193393
0.263469
0.267378
0.226335
0.149052
0.0721586
0.0387354
0.0322898
0.0317746
0.0390859
0.0793069
0.106345
0.111814
0.105723
0.0817044
0.0475722
0.0258046
0.0148418
0.0144498
0.0172047
0.0303387
0.0746713
0.183959
0.332209
0.459678
0.494576
0.485863
0.453653
0.375402
0.280512
0.272075
0.308364
0.3307
0.309853
0.251234
0.221904
0.207394
0.169326
0.139786
0.117426
0.0987214
0.0996407
0.106397
0.111958
0.110894
0.115035
0.126683
0.155799
0.181567
0.170656
0.163534
0.161701
0.160778
0.154865
0.129095
0.108382
0.103949
0.105954
0.11267
0.131971
0.21778
0.251012
0.417361
0.549377
0.342666
0.116875
0.072308
0.0516725
0.0456999
0.0433166
0.0451673
0.0568322
0.0740138
0.088101
0.124518
0.149624
0.180638
0.225153
0.257469
0.273054
0.230196
0.186266
0.121946
0.100937
0.0893387
0.0835987
0.081806
0.0861501
0.101731
0.124249
0.13813
0.137704
0.141575
0.162046
0.188921
0.224313
0.276677
0.0255705
0.0250868
0.0307995
0.0476729
0.0790715
0.0805344
0.0619316
0.0342586
0.016379
0.00902701
0.00743692
0.00759013
0.0102143
0.0283003
0.037094
0.0370702
0.0325124
0.0202095
0.0114355
0.00957955
0.0103424
0.015318
0.0330359
0.0816424
0.217027
0.426934
0.588996
0.657116
0.649902
0.611797
0.543399
0.416358
0.317632
0.314053
0.354061
0.355695
0.287634
0.219474
0.216373
0.215933
0.175265
0.140478
0.126269
0.101866
0.101151
0.103996
0.112279
0.110828
0.11615
0.129134
0.156661
0.183088
0.171613
0.163473
0.161761
0.161326
0.156886
0.1321
0.122071
0.117808
0.118904
0.123738
0.14649
0.235926
0.27098
0.469832
0.566891
0.328053
0.10141
0.0660357
0.0467657
0.0401129
0.039241
0.0431801
0.0516727
0.0729747
0.086973
0.127858
0.156096
0.197979
0.229158
0.24721
0.306485
0.264964
0.211858
0.132263
0.11293
0.0938118
0.0905381
0.0855784
0.0972273
0.10583
0.133739
0.14084
0.153178
0.15089
0.196434
0.232366
0.243257
0.266949
0.00227076
0.00251307
0.00372872
0.0072739
0.0131367
0.0129175
0.00820625
0.00441946
0.00385654
0.00368869
0.00328208
0.00321444
0.00337957
0.00596198
0.00718376
0.00723006
0.00645742
0.0059061
0.00639489
0.00870191
0.0167232
0.0406422
0.0988291
0.229198
0.516893
0.703601
0.759595
0.752329
0.709206
0.637766
0.54967
0.413619
0.334053
0.342871
0.392729
0.371082
0.262556
0.212044
0.216249
0.219
0.177176
0.140335
0.134357
0.110552
0.106561
0.105185
0.113563
0.111606
0.119216
0.135198
0.159641
0.180704
0.170331
0.16328
0.163316
0.162529
0.162153
0.15346
0.141018
0.131425
0.130992
0.134684
0.166146
0.250988
0.286653
0.484813
0.58949
0.325062
0.0976986
0.0630677
0.0464952
0.039569
0.0384945
0.0428121
0.0517407
0.0764274
0.0882151
0.13685
0.160295
0.212181
0.246485
0.245691
0.312006
0.270807
0.237922
0.152839
0.137449
0.107713
0.100861
0.0969752
0.110121
0.125791
0.148596
0.151991
0.184985
0.184577
0.214221
0.261992
0.251983
0.257085
0.000362206
0.000411201
0.000628452
0.000990322
0.00120814
0.00116155
0.00122677
0.00170788
0.00318675
0.00385029
0.00372079
0.00338125
0.00345225
0.00394937
0.00427771
0.00471657
0.00569223
0.00819376
0.0141833
0.0269578
0.0558082
0.124578
0.271712
0.590987
0.779238
0.828502
0.816976
0.780085
0.702251
0.619526
0.530865
0.400475
0.345366
0.37781
0.416322
0.371608
0.253397
0.212636
0.217832
0.21753
0.174786
0.145525
0.14209
0.125497
0.113365
0.1081
0.116469
0.113989
0.123896
0.149891
0.168407
0.17822
0.166889
0.162376
0.165959
0.163912
0.170752
0.170686
0.160511
0.144345
0.141267
0.145413
0.193397
0.264752
0.299628
0.483339
0.637478
0.348821
0.106265
0.062498
0.0518472
0.0526112
0.0482548
0.0464514
0.0550382
0.0781664
0.0920872
0.153329
0.172872
0.210314
0.311565
0.256803
0.289067
0.263763
0.237612
0.177652
0.158581
0.117637
0.113063
0.110038
0.124001
0.145172
0.16517
0.178026
0.227479
0.26512
0.267835
0.297307
0.287245
0.260157
0.000559511
0.000885912
0.000881549
0.000868963
0.00100726
0.00143125
0.00285324
0.0064101
0.0102078
0.014052
0.0144566
0.0142961
0.013948
0.013738
0.0142468
0.016504
0.0225899
0.0332142
0.0526876
0.0874664
0.162386
0.326686
0.668853
0.835172
0.880252
0.867317
0.825845
0.72808
0.635081
0.580981
0.503426
0.38458
0.361291
0.412361
0.422169
0.369415
0.264202
0.226936
0.220707
0.209104
0.173912
0.154762
0.146416
0.137189
0.119077
0.114138
0.124238
0.119338
0.130474
0.17866
0.182636
0.178751
0.163753
0.160122
0.169249
0.169113
0.184251
0.187634
0.175975
0.154576
0.150544
0.157863
0.226736
0.286886
0.310228
0.453734
0.715597
0.436276
0.143573
0.0669732
0.0618188
0.0764842
0.0685855
0.0637206
0.058512
0.0814704
0.0992905
0.214183
0.221231
0.207519
0.535683
0.305763
0.304426
0.26529
0.238996
0.187268
0.174753
0.134347
0.135367
0.133941
0.145447
0.171246
0.191803
0.24871
0.267173
0.322691
0.3064
0.302594
0.288347
0.256343
0.00664096
0.00973921
0.00979749
0.00970318
0.0110321
0.0147496
0.0208641
0.0350902
0.0485596
0.0559533
0.0563312
0.0548266
0.053185
0.0534642
0.0564292
0.0660446
0.0811393
0.104589
0.149278
0.231495
0.410408
0.724815
0.876277
0.91208
0.901793
0.854598
0.734427
0.610818
0.561113
0.529719
0.460167
0.364383
0.357921
0.415567
0.409619
0.389235
0.317814
0.25822
0.218367
0.190852
0.176371
0.164234
0.148691
0.139929
0.129477
0.126275
0.132304
0.130535
0.1366
0.201453
0.199989
0.177073
0.159581
0.157429
0.1756
0.184062
0.202528
0.201837
0.183859
0.163034
0.161552
0.178012
0.270222
0.306126
0.314864
0.413478
0.746091
0.549572
0.203743
0.0813233
0.0709068
0.0777138
0.0562869
0.0708201
0.0623974
0.0866586
0.115398
0.251739
0.310429
0.217746
0.487697
0.334861
0.345793
0.282409
0.25856
0.204143
0.195164
0.160027
0.164051
0.162988
0.170239
0.195573
0.214015
0.304919
0.305361
0.310403
0.317006
0.316862
0.305345
0.263987
0.0692865
0.0813116
0.0818033
0.0815498
0.0867731
0.0978072
0.115145
0.150897
0.171453
0.17549
0.174538
0.168887
0.163945
0.165036
0.171254
0.186234
0.209384
0.260433
0.34448
0.525324
0.774938
0.907913
0.936502
0.919768
0.857522
0.727625
0.599325
0.540618
0.508797
0.459325
0.378565
0.328287
0.343501
0.408633
0.400918
0.428907
0.380971
0.278303
0.210899
0.185285
0.17723
0.176591
0.161912
0.150418
0.147518
0.149263
0.147903
0.166083
0.15546
0.212625
0.208873
0.168527
0.154738
0.156758
0.179998
0.200279
0.212646
0.208067
0.185876
0.170816
0.1748
0.218843
0.324222
0.325354
0.313512
0.383597
0.737024
0.681976
0.272827
0.103283
0.0772685
0.073868
0.0601532
0.0737694
0.0714157
0.0989073
0.157409
0.242281
0.375959
0.230667
0.311072
0.318433
0.316431
0.283929
0.267334
0.223643
0.215735
0.180283
0.188243
0.187371
0.195822
0.214414
0.251499
0.286951
0.318781
0.318995
0.343993
0.347311
0.340348
0.297777
0.351292
0.349736
0.338243
0.325546
0.331102
0.344408
0.374414
0.413631
0.419437
0.413782
0.403423
0.379409
0.356089
0.35488
0.360501
0.377523
0.417478
0.506915
0.677152
0.838694
0.927837
0.950835
0.923585
0.835804
0.698283
0.600608
0.536381
0.497462
0.428938
0.360242
0.309383
0.296461
0.325274
0.388425
0.409989
0.468793
0.427045
0.297009
0.219362
0.192673
0.182268
0.18028
0.175455
0.173617
0.181057
0.180965
0.174495
0.222615
0.175807
0.210797
0.209457
0.163445
0.15313
0.161626
0.184777
0.208916
0.215418
0.208982
0.185056
0.182858
0.204282
0.310682
0.374915
0.343493
0.300138
0.352795
0.710717
0.857939
0.342062
0.127697
0.0956631
0.0838856
0.0772412
0.0883649
0.104822
0.150734
0.220538
0.207287
0.51436
0.25857
0.272908
0.314996
0.292995
0.281772
0.273562
0.237847
0.233069
0.206951
0.229269
0.232732
0.247927
0.263494
0.33385
0.353837
0.423747
0.443783
0.513423
0.494901
0.433856
0.343916
0.970861
0.920671
0.842004
0.76354
0.753958
0.755232
0.757416
0.759628
0.747688
0.700162
0.659538
0.608263
0.577989
0.57789
0.587419
0.615894
0.692127
0.809615
0.891166
0.946664
0.950712
0.908819
0.778962
0.658774
0.590352
0.536804
0.469477
0.392752
0.327946
0.290822
0.272999
0.275569
0.311367
0.351108
0.412066
0.548699
0.520174
0.387055
0.292022
0.238555
0.197693
0.181086
0.178774
0.184527
0.205024
0.208189
0.201373
0.232615
0.224612
0.221863
0.203532
0.161848
0.155166
0.180257
0.193145
0.217162
0.219156
0.209818
0.195791
0.210034
0.301471
0.439552
0.440738
0.343096
0.268556
0.305361
0.659857
1.04948
0.460258
0.167393
0.135926
0.142183
0.120974
0.114856
0.167399
0.230133
0.260108
0.20173
0.479195
0.251791
0.313319
0.37084
0.303808
0.292426
0.29597
0.264643
0.262851
0.272674
0.311271
0.297319
0.317942
0.348169
0.553457
0.620916
0.783996
0.778486
0.764978
0.622916
0.457227
0.350279
1.78056
1.60063
1.40621
1.25843
1.21176
1.16045
1.10184
1.0565
0.971825
0.899807
0.853072
0.805992
0.790723
0.79585
0.818039
0.866043
0.909038
0.943085
0.957975
0.937873
0.853064
0.691433
0.592053
0.543388
0.503219
0.463127
0.414973
0.344043
0.293262
0.27222
0.262693
0.266161
0.286506
0.311791
0.390593
0.611002
0.742411
0.619114
0.46405
0.35023
0.239549
0.189818
0.178387
0.185233
0.211426
0.232504
0.231934
0.227416
0.269241
0.227906
0.189058
0.168509
0.169432
0.20443
0.21892
0.237825
0.234364
0.218529
0.223804
0.301369
0.531589
0.586457
0.50667
0.301445
0.231261
0.256887
0.588153
1.12316
0.69076
0.2662
0.216292
0.240286
0.216093
0.197174
0.227514
0.246722
0.2754
0.208049
0.398902
0.260754
0.435643
0.408634
0.318909
0.366714
0.388279
0.401428
0.436641
0.422245
0.373029
0.366273
0.493759
0.664402
1.20744
1.28602
1.27019
1.11
0.894453
0.621662
0.4504
0.337939
2.56102
2.17251
1.84225
1.6413
1.50865
1.38027
1.28221
1.19819
1.10427
1.05099
1.01564
0.984564
0.98234
0.989274
0.991924
0.990622
0.984201
0.961108
0.89193
0.723206
0.585189
0.499371
0.443828
0.412128
0.404646
0.40714
0.391777
0.350956
0.308275
0.267291
0.24862
0.246723
0.26612
0.282178
0.345105
0.597529
0.865645
0.966366
0.785708
0.60185
0.395532
0.254632
0.200897
0.188502
0.203083
0.229558
0.244838
0.224823
0.265544
0.225831
0.194739
0.194267
0.228904
0.271972
0.285748
0.272477
0.249108
0.256272
0.333528
0.660107
0.815399
0.740234
0.44276
0.238406
0.188222
0.207792
0.463761
1.13202
1.10499
0.451915
0.34854
0.373063
0.310191
0.343173
0.3471
0.280032
0.332935
0.221504
0.560632
0.304173
0.483214
0.452273
0.495411
0.702221
0.63762
0.611039
0.484031
0.41615
0.477783
0.672658
1.29812
1.8837
1.92249
1.73518
1.46142
1.09529
0.742694
0.52724
0.408934
0.287795
3.08748
2.43115
2.02313
1.77755
1.59292
1.4561
1.36261
1.28348
1.22323
1.18845
1.15163
1.12075
1.10527
1.08033
1.03977
0.98992
0.889062
0.731047
0.56819
0.452835
0.378562
0.316889
0.306224
0.344204
0.36239
0.361067
0.332954
0.294393
0.260895
0.246781
0.24383
0.257376
0.284924
0.295708
0.298064
0.405403
0.818799
1.10875
1.21083
1.17127
0.935975
0.558812
0.34505
0.252745
0.229162
0.23397
0.248668
0.230438
0.262935
0.247701
0.23565
0.295091
0.331597
0.33717
0.32714
0.321668
0.352506
0.485293
0.994343
1.16022
1.05726
0.693511
0.343421
0.208056
0.17534
0.188104
0.347623
0.997353
1.39672
0.937721
0.624903
0.638681
0.543037
0.674742
0.504875
0.463154
0.46101
0.425255
0.584524
0.512171
0.641605
0.614809
0.618427
0.669105
0.616878
0.621304
0.65753
0.847199
1.43766
2.62084
2.77446
2.64575
2.20197
1.63667
1.24084
0.777833
0.548542
0.402808
0.374478
0.315171
3.12011
2.36408
1.96782
1.73927
1.58928
1.48905
1.41132
1.33987
1.28785
1.2432
1.1913
1.14063
1.07701
0.988415
0.868428
0.718344
0.554953
0.408793
0.296346
0.226489
0.211156
0.22444
0.261477
0.345398
0.432601
0.467145
0.414232
0.325843
0.27926
0.274497
0.29212
0.322058
0.341637
0.343899
0.355298
0.385779
0.496952
0.919994
1.32464
1.60483
1.81716
1.83645
1.35213
0.872918
0.598748
0.483845
0.335304
0.293912
0.328153
0.380156
0.373597
0.424474
0.465408
0.518776
0.631836
0.818385
1.34415
1.80951
1.78812
1.44878
0.987505
0.585732
0.407857
0.345184
0.347361
0.386593
0.468642
0.765022
1.3147
1.39713
0.947101
0.769415
0.655674
0.771875
0.56922
0.457307
0.633027
1.07018
0.967413
0.9559
1.17025
1.05563
1.0945
1.37043
1.62347
2.55323
3.09272
4.34693
4.52296
4.46679
3.3587
2.76835
1.71384
1.39146
1.06176
0.815288
0.789556
0.746978
0.769563
0.873615
2.04301
1.65026
1.46774
1.35891
1.26005
1.15569
1.05045
0.953079
0.875656
0.815145
0.761006
0.708564
0.649582
0.576415
0.48904
0.394793
0.302664
0.224499
0.170324
0.148297
0.156995
0.203407
0.299411
0.484729
0.785338
1.13612
1.32778
1.33735
1.06651
0.736374
0.511668
0.396917
0.424073
0.662053
1.07369
1.29414
1.26596
0.96739
0.648062
0.83427
1.79416
3.02524
3.81003
4.08426
3.80697
3.53007
2.1567
1.13419
0.964087
0.51549
0.465967
0.615383
1.03849
1.70008
2.46838
3.07
3.21335
2.8275
1.87451
1.12793
0.7965
0.71581
0.85034
1.06518
1.48705
1.82358
1.81765
1.46508
0.954031
0.998303
1.13855
1.30319
2.17457
0.635276
1.70679
0.54996
0.881084
2.13756
1.22633
2.34777
2.12101
3.01947
3.81062
6.28708
6.74201
8.42694
7.80825
7.97259
5.92573
4.9518
2.12825
2.3433
1.17773
1.60514
1.34626
1.92952
1.9815
2.45838
2.74928
3.83295
0.0674096
0.121422
0.249668
0.555744
0.857355
0.600396
0.113685
0.098313
0.112433
0.152848
0.280062
0.585834
1.32269
2.23593
1.84342
0.662766
0.210715
0.253414
0.318497
0.34435
0.359594
0.859916
2.91433
4.55287
5.4513
5.74395
5.51872
4.74351
3.53946
2.4774
1.29035
0.7547
0.496562
0.421603
0.21125
0.200088
0.316075
0.354646
0.560347
0.786476
1.0336
1.18873
1.18388
1.09826
0.928649
0.796713
0.703703
0.681359
0.671772
0.658863
0.556931
0.416152
0.277835
0.18274
0.124897
0.106273
0.116127
0.153014
0.179482
0.197063
0.222927
0.277857
0.385479
0.511525
0.594139
0.602538
0.593407
0.603181
0.681106
0.808748
0.994042
1.08188
1.09429
0.995568
0.886792
0.81291
0.777976
0.785314
0.845607
0.932375
1.06295
1.11541
1.01939
0.600027
0.399281
0.410107
0.56624
0.668076
0.761325
0.774408
0.72374
0.651005
0.506631
0.373136
0.282655
0.207882
0.116185
0.0648594
0.0384577
0.0226462
0.124664
0.122353
0.123292
0.132513
0.261306
0.509868
0.385558
0.110939
0.115569
0.170474
0.178818
0.211511
0.242561
0.501413
1.07163
0.884014
0.460919
0.316049
0.350478
0.890651
2.48669
2.86834
2.81031
2.53344
1.90461
1.4514
1.02341
0.788077
0.599883
0.514131
0.413797
0.359923
0.351735
0.39043
0.348169
0.354948
0.37455
0.356682
0.365365
0.388321
0.411468
0.452905
0.516968
0.600688
0.632336
0.633191
0.612572
0.594176
0.584623
0.572568
0.517983
0.34591
0.204265
0.134651
0.115205
0.113677
0.124281
0.140836
0.157112
0.19067
0.235378
0.285109
0.310782
0.330676
0.36523
0.375459
0.38101
0.38394
0.390816
0.413219
0.501892
0.741452
0.967286
1.00779
0.916465
0.67419
0.549024
0.517851
0.5341
0.529558
0.456171
0.422952
0.439421
0.442741
0.359607
0.344503
0.300542
0.269713
0.240151
0.191583
0.17567
0.150161
0.129264
0.105935
0.0793076
0.0646964
0.0581609
0.0545179
0.0485653
0.0345032
0.144689
0.13475
0.129517
0.123075
0.132119
0.279039
0.359988
0.200032
0.137747
0.147692
0.163753
0.210099
0.202603
0.213301
0.395529
0.572975
0.400348
0.41334
1.06639
2.17493
2.37387
1.93202
1.12197
0.731397
0.587325
0.527388
0.506286
0.49871
0.480781
0.422624
0.414229
0.340645
0.334282
0.353138
0.270499
0.319088
0.303557
0.316952
0.325017
0.3378
0.350368
0.3518
0.327625
0.316753
0.315294
0.308068
0.279561
0.222952
0.193473
0.199452
0.23856
0.236204
0.191769
0.127653
0.109534
0.110544
0.12155
0.142199
0.18106
0.230288
0.306643
0.384573
0.348652
0.246765
0.215641
0.201886
0.188338
0.184747
0.184896
0.193917
0.219636
0.262271
0.358735
0.576279
0.667195
0.626859
0.399438
0.234298
0.18267
0.170957
0.178957
0.258263
0.390526
0.400009
0.23119
0.184902
0.133823
0.110697
0.103473
0.0968618
0.114579
0.133917
0.144065
0.148007
0.134394
0.0930096
0.0684744
0.056111
0.0411745
0.0343716
0.156784
0.140206
0.130386
0.12284
0.108322
0.155597
0.28902
0.221555
0.146453
0.15524
0.190054
0.259512
0.251105
0.213386
0.240884
0.352529
0.350431
0.824072
1.73376
1.99913
1.49295
0.774514
0.536847
0.475776
0.465024
0.462567
0.457387
0.422955
0.4085
0.370876
0.321627
0.288783
0.259244
0.219016
0.200957
0.21994
0.222955
0.226993
0.222421
0.223652
0.245366
0.311845
0.33936
0.333974
0.306449
0.269591
0.20324
0.132765
0.0996925
0.0966348
0.118537
0.171523
0.172604
0.13445
0.111506
0.114359
0.133236
0.180357
0.245542
0.28552
0.359373
0.460913
0.51986
0.39124
0.210003
0.159321
0.136099
0.130017
0.133328
0.150672
0.175258
0.206796
0.229898
0.264675
0.392869
0.495107
0.45154
0.267489
0.15725
0.127814
0.140617
0.256931
0.364071
0.338107
0.144642
0.106912
0.0886526
0.0796666
0.0774966
0.0790706
0.0877027
0.0990812
0.106416
0.11839
0.142356
0.143095
0.111216
0.0847774
0.0433959
0.0337301
0.171587
0.140932
0.118234
0.104218
0.0962104
0.113184
0.214436
0.204444
0.163832
0.179708
0.237478
0.285357
0.277794
0.230132
0.234336
0.284188
0.412935
1.32918
1.65187
1.38255
0.716055
0.489022
0.433841
0.420241
0.40722
0.35703
0.331639
0.29521
0.287155
0.303706
0.260273
0.232767
0.218149
0.197107
0.188309
0.205228
0.215241
0.218542
0.205845
0.191153
0.186
0.190183
0.239056
0.302216
0.309215
0.29956
0.247234
0.166467
0.117535
0.0973581
0.0991089
0.132604
0.15874
0.144582
0.119521
0.126462
0.159451
0.207134
0.222126
0.228613
0.228762
0.283793
0.483834
0.504336
0.328712
0.179514
0.143036
0.130919
0.130573
0.135102
0.153763
0.191369
0.214043
0.225527
0.248835
0.361994
0.411941
0.36135
0.219286
0.154719
0.161903
0.276719
0.338647
0.275003
0.118994
0.0892996
0.0843421
0.0837307
0.0828969
0.0877289
0.0899641
0.0987193
0.102151
0.102443
0.100054
0.118823
0.120986
0.103394
0.056659
0.0350081
0.177257
0.140407
0.11307
0.0968599
0.0904168
0.0973449
0.170683
0.178245
0.176629
0.21011
0.274903
0.306639
0.307814
0.256145
0.249998
0.286365
0.686842
1.36971
1.36689
0.746197
0.483365
0.413041
0.392729
0.346676
0.313039
0.269365
0.265198
0.262962
0.265597
0.284077
0.256175
0.218392
0.194073
0.187784
0.190191
0.207917
0.221057
0.227031
0.218888
0.194695
0.182038
0.173107
0.17459
0.201298
0.271265
0.288922
0.284273
0.252503
0.173518
0.121514
0.107366
0.11431
0.145224
0.142776
0.128251
0.146317
0.175103
0.195666
0.14506
0.119419
0.107459
0.11381
0.207862
0.466785
0.43085
0.236671
0.142915
0.116717
0.118083
0.127995
0.140208
0.170287
0.205041
0.214505
0.223156
0.261018
0.359508
0.358849
0.284023
0.1917
0.195196
0.298719
0.305665
0.207049
0.110853
0.0889785
0.0870719
0.0892743
0.0853987
0.0868944
0.0892228
0.0985888
0.104548
0.0959509
0.0851184
0.0878965
0.0934775
0.104982
0.0746455
0.0377557
0.184976
0.14511
0.110864
0.0945149
0.0883869
0.0913738
0.143848
0.166899
0.199662
0.230273
0.290776
0.31499
0.33233
0.26469
0.254347
0.302837
1.00776
1.28182
0.851208
0.507638
0.410831
0.36977
0.314462
0.273564
0.254752
0.243028
0.255088
0.260893
0.281067
0.308561
0.29527
0.24524
0.212538
0.205703
0.209224
0.226308
0.223278
0.224447
0.219357
0.190019
0.180494
0.172227
0.164531
0.166608
0.185183
0.248912
0.274621
0.273043
0.244667
0.163677
0.122809
0.120921
0.142259
0.140519
0.142397
0.184501
0.18212
0.164601
0.107785
0.0848077
0.0878817
0.0848806
0.111037
0.261283
0.408317
0.315538
0.160739
0.110824
0.107731
0.121004
0.135607
0.14979
0.188298
0.208217
0.213921
0.22814
0.296806
0.337623
0.312764
0.227429
0.231873
0.312186
0.277943
0.158131
0.107939
0.0944701
0.0907925
0.0908201
0.0826248
0.0800194
0.0793263
0.0864915
0.0895679
0.0884862
0.0816364
0.0784311
0.0769712
0.09361
0.0879475
0.0388095
0.198369
0.154286
0.110349
0.0932157
0.0845442
0.0896985
0.123315
0.170004
0.211137
0.236279
0.298359
0.322163
0.348643
0.277352
0.254077
0.413998
1.02272
1.05453
0.569068
0.415381
0.361145
0.326901
0.244342
0.222103
0.215082
0.240058
0.266833
0.280514
0.329746
0.363431
0.340359
0.28256
0.252353
0.257802
0.255427
0.243891
0.212814
0.194043
0.180404
0.142641
0.13203
0.136732
0.148894
0.155173
0.162944
0.183655
0.242515
0.264404
0.25994
0.212039
0.154261
0.138063
0.141456
0.136838
0.149595
0.204743
0.180578
0.152098
0.0963403
0.0734758
0.0880566
0.0808529
0.0877706
0.14324
0.335394
0.345774
0.221476
0.140432
0.130061
0.130132
0.132207
0.140499
0.167816
0.199467
0.205663
0.21407
0.249379
0.310174
0.309685
0.258645
0.2632
0.323728
0.258493
0.137432
0.104363
0.100025
0.094013
0.0933581
0.0858606
0.0798122
0.0758394
0.0748198
0.0795554
0.0810176
0.0855419
0.0778738
0.0704784
0.0829422
0.0904955
0.0498947
0.212445
0.165357
0.113761
0.0915664
0.081818
0.0921508
0.120989
0.188979
0.205133
0.23553
0.301659
0.328404
0.356638
0.330542
0.285697
0.67705
0.972091
0.717709
0.443912
0.384288
0.33049
0.271397
0.22423
0.213618
0.204728
0.259835
0.315949
0.337745
0.377924
0.391375
0.348587
0.296834
0.274674
0.276583
0.269435
0.244796
0.178028
0.13357
0.0993984
0.0730813
0.0669037
0.0693063
0.0777373
0.110617
0.142703
0.158655
0.193963
0.24312
0.254875
0.235085
0.179706
0.151402
0.142727
0.138197
0.172162
0.219683
0.174274
0.141655
0.0692942
0.0639326
0.0842235
0.0775051
0.0791667
0.130254
0.225089
0.331659
0.296499
0.204808
0.170048
0.156147
0.151247
0.153836
0.165115
0.192913
0.203012
0.208323
0.222739
0.279311
0.30099
0.275371
0.284074
0.336712
0.251123
0.125697
0.0998266
0.100438
0.099036
0.105543
0.0998152
0.0900537
0.0819138
0.0728987
0.0756504
0.0832247
0.0874586
0.0933713
0.0723552
0.0748941
0.0879692
0.0627016
0.225893
0.185465
0.12513
0.0960484
0.0870803
0.100362
0.124608
0.187752
0.176878
0.220885
0.303109
0.332377
0.366469
0.425597
0.432798
0.719979
0.839908
0.5151
0.38703
0.340738
0.300117
0.22458
0.19847
0.217035
0.221929
0.30573
0.376157
0.417603
0.425416
0.402557
0.344817
0.306633
0.284367
0.277562
0.25989
0.210211
0.112423
0.068636
0.0529212
0.0450281
0.0444011
0.0464202
0.0506185
0.0602838
0.0971753
0.132001
0.161575
0.210681
0.243735
0.239297
0.2043
0.160828
0.144411
0.145744
0.213257
0.228279
0.161465
0.1177
0.0523226
0.0549185
0.0641978
0.0592624
0.0705624
0.12556
0.192412
0.256363
0.267759
0.23341
0.20687
0.195237
0.184116
0.184952
0.192458
0.199777
0.204179
0.205838
0.212594
0.252783
0.288474
0.281242
0.296982
0.341741
0.255407
0.121971
0.0982282
0.10277
0.0954102
0.106554
0.103903
0.104501
0.0972646
0.0790987
0.079269
0.0863753
0.0880162
0.101367
0.0836578
0.0753119
0.0868006
0.0683841
0.238778
0.209129
0.152064
0.111893
0.0995027
0.107633
0.128803
0.163023
0.155858
0.207816
0.307087
0.34339
0.368421
0.466624
0.53654
0.678412
0.611335
0.41257
0.380861
0.291506
0.261414
0.200658
0.194174
0.20953
0.252793
0.360579
0.414795
0.448308
0.440141
0.393222
0.322819
0.299138
0.284141
0.243982
0.194047