/*--------------------------------*- C++ -*----------------------------------*\
| =========                 |                                                 |
| \\      /  F ield         | OpenFOAM: The Open Source CFD Toolbox           |
|  \\    /   O peration     | Version:  2.4.0                                 |
|   \\  /    A nd           | Web:      www.OpenFOAM.org                      |
|    \\/     M anipulation  |                                                 |
\*---------------------------------------------------------------------------*/
FoamFile
{
    version     2.0;
    format      ascii;
    class       volScalarField;
    location    "0.163";
    object      nuSgs;
}
// * * * * * * * * * * * * * * * * * * * * * * * * * * * * * * * * * * * * * //

dimensions      [0 2 -1 0 0 0 0];

internalField   nonuniform List<scalar> 
4400
(
0.00205238
0.00193564
0.00169832
0.0015287
0.00143
0.0013715
0.00132688
0.00130215
0.00128534
0.00125773
0.00139621
0.00172689
0.00172625
0.00166856
0.00158501
0.00152608
0.00147601
0.00144161
0.0014193
0.00142315
0.000722096
0.00117837
0.00136612
0.00141667
0.00140417
0.00137944
0.0013486
0.00131723
0.00129877
0.00129483
0.000270296
0.000641648
0.000867425
0.00101787
0.00107963
0.00111635
0.00112533
0.00111799
0.00111161
0.00110409
8.77799e-05
0.000260253
0.000414031
0.00059052
0.000682119
0.000765756
0.000829273
0.000847092
0.000866756
0.000874353
2.56862e-05
8.66963e-05
0.000148806
0.000257107
0.000324665
0.000403079
0.000493756
0.000534533
0.000570518
0.000604063
7.82398e-06
2.57337e-05
4.28084e-05
8.19351e-05
0.000114281
0.000148434
0.00021221
0.000263242
0.000283403
0.000320884
4.20503e-06
1.04107e-05
1.28879e-05
2.21414e-05
3.025e-05
3.98268e-05
6.52095e-05
9.1313e-05
9.63729e-05
0.000111826
3.85658e-06
8.11809e-06
8.5297e-06
9.89417e-06
1.07422e-05
1.20811e-05
1.8183e-05
2.23466e-05
2.28889e-05
2.69371e-05
3.82341e-06
7.6203e-06
8.82662e-06
9.34901e-06
9.53085e-06
9.59983e-06
1.01365e-05
1.04522e-05
1.06513e-05
1.13832e-05
3.79521e-06
8.03652e-06
9.08625e-06
9.06715e-06
9.21522e-06
1.00356e-05
1.01328e-05
1.03301e-05
1.10893e-05
1.3309e-05
3.85786e-06
7.90206e-06
9.23876e-06
9.71373e-06
1.13912e-05
1.45108e-05
1.58579e-05
1.99816e-05
2.88863e-05
4.56204e-05
4.22097e-06
1.02487e-05
1.48153e-05
1.96148e-05
2.94106e-05
4.85562e-05
5.97758e-05
8.33181e-05
0.00011048
0.000163434
7.74573e-06
2.6104e-05
4.71557e-05
7.17242e-05
0.000110771
0.000172119
0.000201509
0.00026099
0.000303643
0.000395666
2.53362e-05
8.698e-05
0.000164309
0.000231745
0.000334889
0.000426096
0.00046976
0.000548884
0.000591303
0.000672091
8.68918e-05
0.000258684
0.000438825
0.000562227
0.000699283
0.000769868
0.000817429
0.000861762
0.000887711
0.000927602
0.000267765
0.000646978
0.000872116
0.00100638
0.00109203
0.00111039
0.00112637
0.00112582
0.00112857
0.00113493
0.000716148
0.00118476
0.00136484
0.00141457
0.00140749
0.00137165
0.00135463
0.00131827
0.00130872
0.00129152
0.00139418
0.00173127
0.00172432
0.00166808
0.00158816
0.00151281
0.00148467
0.00142961
0.00141248
0.00136782
0.00205139
0.00193942
0.00169331
0.00153065
0.00143099
0.0013583
0.00133057
0.00127787
0.00125268
0.00117367
0.000539846
0.000436233
0.000374708
0.000357657
0.000349888
0.000372153
0.000372069
0.000372912
0.000372831
0.000367421
0.00033667
0.000325961
0.000281719
0.000274876
0.000261289
0.000252527
0.000249302
0.000248906
0.000249397
0.000254903
0.00026074
0.000260011
0.00025591
0.000246246
0.000225049
0.000165927
0.000113017
8.68958e-05
8.10716e-05
8.14719e-05
8.23121e-05
8.78111e-05
9.40314e-05
9.41645e-05
9.46708e-05
9.90466e-05
0.000118955
0.000159955
0.000184259
0.000190824
0.00018745
0.000172625
0.000155477
0.00015006
0.000143299
0.000139092
0.000139155
0.000135989
0.000133705
0.0001352
0.000147834
0.000153789
0.00015259
0.000159183
0.000166059
0.000158299
0.000128574
0.000104961
9.27596e-05
8.97125e-05
8.92166e-05
9.10324e-05
9.87655e-05
0.000126235
0.000143836
0.000157205
0.000197978
0.000206459
0.000195862
0.000164693
0.000152153
0.000134951
0.000117652
0.000114903
0.000119756
0.00012896
0.000135251
0.000142005
0.000148762
0.000157724
0.000183233
0.000192548
0.000185773
0.000146599
0.000128273
0.000102063
9.40231e-05
9.10892e-05
8.85553e-05
8.86047e-05
0.00010022
0.000105912
0.000136356
0.000126649
0.00014102
0.000129913
0.000169188
0.000181121
0.00025896
0.000267941
0.000688216
0.000584084
0.000502021
0.000473175
0.00041589
0.00040262
0.000390489
0.000375732
0.00038005
0.000380107
0.000373088
0.000373984
0.000348763
0.000332056
0.000306851
0.000288056
0.000278468
0.000272186
0.000270537
0.000271775
0.000269129
0.000262962
0.000247203
0.00021971
0.000155194
0.000106137
8.1351e-05
7.53557e-05
7.82668e-05
8.18757e-05
8.77145e-05
0.000101105
0.000104883
0.000105604
0.000107535
0.000114139
0.000141459
0.000176556
0.000193139
0.000192473
0.000183949
0.000161752
0.000144685
0.000140379
0.000135291
0.000132595
0.000133307
0.00013333
0.000132826
0.000134028
0.000144557
0.00015099
0.00015015
0.000153142
0.000163371
0.000158181
0.000134883
0.000113435
9.88665e-05
9.36719e-05
9.23278e-05
9.41729e-05
0.000103244
0.000130565
0.000145626
0.000166355
0.000213496
0.000216525
0.000197784
0.000148881
0.000125932
0.000114085
0.000105807
0.000106244
0.000111908
0.000121236
0.000128448
0.000138021
0.000146209
0.00015446
0.000177851
0.000188925
0.000186693
0.000148047
0.000129491
0.000103123
9.49253e-05
8.9553e-05
9.12095e-05
9.07323e-05
0.000101822
0.000108005
0.000133925
0.000129928
0.000141296
0.000135789
0.000149755
0.000172296
0.000258712
0.000279593
0.000659108
0.000601807
0.000523054
0.000499367
0.000450628
0.000410681
0.000388257
0.000355644
0.000348295
0.000351926
0.000357169
0.00036807
0.000366761
0.000355095
0.000343976
0.000325909
0.000314059
0.000299539
0.000289619
0.000279999
0.000262385
0.000244403
0.000201551
0.000139611
9.59504e-05
7.47164e-05
7.06076e-05
7.32296e-05
8.46788e-05
9.57626e-05
0.000110842
0.000120869
0.000120892
0.000121052
0.000122445
0.000131685
0.000166139
0.000191187
0.000196574
0.000190901
0.000170835
0.000151014
0.000136532
0.000134065
0.000130906
0.000128182
0.000128422
0.000129019
0.000130492
0.000133032
0.000144669
0.000148695
0.000147834
0.00014946
0.000157044
0.000155771
0.000139752
0.000123217
0.000105582
9.78785e-05
9.62003e-05
9.84037e-05
0.000108494
0.000137551
0.000152119
0.00017816
0.000224548
0.000225111
0.00019719
0.000142077
0.000109013
9.53159e-05
9.53422e-05
9.77644e-05
0.000104113
0.000115824
0.000123131
0.000135185
0.000143391
0.000151825
0.00017518
0.000185918
0.000186194
0.000152636
0.000130218
0.000105505
9.63705e-05
9.14246e-05
9.74263e-05
9.78788e-05
0.000103693
0.000108495
0.000125089
0.000127961
0.000132293
0.000133596
0.00013845
0.000154404
0.00019891
0.000262771
0.000571819
0.000541831
0.00049358
0.000468694
0.000442157
0.000402413
0.000365303
0.000326947
0.000292915
0.000289692
0.000295347
0.000312899
0.000330789
0.000331563
0.000328059
0.000320275
0.000304743
0.000285266
0.000274291
0.00025076
0.000221432
0.000170934
0.000119185
8.34211e-05
6.60812e-05
6.57507e-05
6.94281e-05
8.41275e-05
0.000112938
0.00013017
0.000142553
0.000142965
0.000139822
0.000136988
0.000139016
0.000156909
0.000189536
0.000197154
0.000196832
0.000179574
0.000157833
0.000141451
0.000129566
0.00012735
0.000127226
0.000126292
0.000125157
0.000125278
0.000127242
0.000131519
0.000145532
0.000148558
0.000147073
0.000147715
0.000152035
0.000151488
0.000142713
0.000132695
0.000111469
0.000101282
0.000100357
0.000103152
0.000113007
0.000144386
0.000160082
0.000187333
0.000235963
0.000232235
0.000190493
0.000134177
0.000100766
8.7907e-05
8.60824e-05
8.80636e-05
9.6294e-05
0.00010953
0.000117392
0.000134188
0.000140777
0.000151399
0.000175656
0.000184894
0.000187177
0.000158766
0.000135548
0.000107478
0.000103583
9.76782e-05
0.000104201
0.000102451
0.000105585
0.000109759
0.000123842
0.000134324
0.000136431
0.000134278
0.000136254
0.000145695
0.00016229
0.000216653
0.000456526
0.000428106
0.000410457
0.000393645
0.000386109
0.000366783
0.000329586
0.00029471
0.000236767
0.000215464
0.000216384
0.000224731
0.000256999
0.000270352
0.00027157
0.000270524
0.000259386
0.000235362
0.000219962
0.000183937
0.000137511
9.74754e-05
7.02177e-05
5.83655e-05
5.94444e-05
6.6741e-05
8.67501e-05
0.000124871
0.000159268
0.000173956
0.00017372
0.000170896
0.000160882
0.000154157
0.00015971
0.000186169
0.000198329
0.000198226
0.000191259
0.000169612
0.00015142
0.00013711
0.000125566
0.000120906
0.000122091
0.000124002
0.00012378
0.000123555
0.000125064
0.000129877
0.000145658
0.000149313
0.000147209
0.000147098
0.000148773
0.000148676
0.000144534
0.000135202
0.000114216
0.000105064
0.000105226
0.000109073
0.000118832
0.000151355
0.000166741
0.00019576
0.000248858
0.000234712
0.000173411
0.000122718
9.50095e-05
8.40661e-05
8.08721e-05
8.26535e-05
9.10316e-05
0.000105324
0.000112993
0.000131603
0.000139723
0.000151553
0.0001751
0.000184194
0.000188519
0.000160882
0.000149736
0.000115018
0.00011464
0.00010807
0.000106173
0.000109833
0.000108321
0.000111082
0.000125238
0.000139569
0.000138578
0.000133844
0.000136078
0.000148912
0.000159575
0.00019685
0.000313381
0.00028649
0.000280978
0.00028078
0.000287429
0.000284935
0.000267509
0.000232407
0.000168869
0.00013317
0.000128659
0.000129958
0.000151247
0.000182065
0.000191146
0.000192934
0.000188103
0.000173863
0.000145169
0.000109264
7.77999e-05
5.64587e-05
5.07628e-05
5.31594e-05
6.5127e-05
9.39099e-05
0.000137133
0.000186314
0.000210734
0.000212126
0.000208772
0.000199825
0.000176994
0.000172918
0.000184858
0.000202374
0.000201403
0.000195678
0.000178002
0.000166091
0.00014979
0.000136022
0.000124495
0.000116249
0.000117601
0.000121433
0.000122271
0.000121932
0.000123511
0.000129316
0.000144806
0.000151888
0.000148446
0.000147139
0.00014715
0.000146742
0.000143769
0.000133386
0.000116107
0.000110361
0.000111273
0.000115606
0.000125667
0.000160913
0.000174094
0.00020965
0.000261387
0.000229685
0.0001488
0.000109187
8.99012e-05
8.01695e-05
7.79614e-05
8.02604e-05
8.89098e-05
0.000103683
0.000110586
0.00012818
0.00013979
0.000151975
0.000171912
0.000184756
0.000187994
0.000164944
0.000153621
0.000121759
0.000114187
0.000108431
0.00010392
0.000106345
0.000105794
0.000111304
0.000126764
0.00013463
0.000133457
0.000134701
0.000141228
0.000153081
0.000158739
0.000191203
0.00016271
0.000149304
0.00015187
0.000160101
0.000186869
0.000188251
0.000173201
0.000140554
9.77952e-05
7.16519e-05
6.54194e-05
6.48953e-05
7.19753e-05
0.000102525
0.000118722
0.000121737
0.000118375
0.000104063
7.94054e-05
5.84819e-05
4.43523e-05
4.37628e-05
4.77526e-05
6.34121e-05
9.94833e-05
0.000156147
0.000209836
0.000246831
0.000256029
0.000253764
0.000245209
0.00022306
0.000192819
0.000189897
0.000202165
0.000209358
0.000202652
0.000182479
0.000171497
0.000165795
0.000149808
0.000136115
0.000124754
0.000114388
0.000114919
0.000118751
0.000121815
0.000121235
0.000123477
0.000129578
0.000143699
0.000155128
0.000150395
0.000147223
0.000146396
0.000145978
0.000143268
0.000130806
0.000119854
0.000117377
0.000118504
0.000122202
0.000132255
0.000169896
0.000182398
0.000235196
0.000269841
0.000213113
0.000124461
9.78964e-05
8.27567e-05
7.78271e-05
7.57706e-05
7.73723e-05
8.67902e-05
9.90444e-05
0.00010806
0.000128466
0.000140823
0.000154731
0.000172748
0.000184729
0.000190238
0.000174672
0.000157123
0.000127133
0.000115664
0.000108816
0.000105262
0.000104128
0.000106857
0.000116118
0.000128328
0.000135306
0.000135097
0.000136983
0.000146552
0.000158239
0.000172425
0.000191496
5.82161e-05
5.76629e-05
6.38919e-05
7.94894e-05
0.000102373
0.000103315
9.06003e-05
6.73842e-05
4.65926e-05
3.45896e-05
3.13957e-05
3.17174e-05
3.67941e-05
6.12448e-05
7.01173e-05
7.00948e-05
6.56444e-05
5.17549e-05
3.89316e-05
3.56325e-05
3.7024e-05
4.50582e-05
6.61708e-05
0.000104023
0.000169602
0.000237878
0.000279402
0.000295117
0.000293493
0.000284759
0.000268369
0.000234913
0.00020518
0.000204021
0.000216627
0.000217126
0.000195251
0.000170555
0.000169346
0.000169174
0.000152413
0.000136451
0.000129366
0.000116195
0.000115787
0.000117403
0.00012199
0.000121199
0.000124075
0.000130826
0.000144096
0.000155777
0.000150816
0.000147196
0.000146423
0.000146226
0.0001442
0.00013232
0.000127198
0.000124957
0.000125537
0.000128063
0.000139341
0.000176832
0.000189514
0.000249543
0.000274109
0.000208519
0.000115935
9.35541e-05
7.87295e-05
7.29148e-05
7.2118e-05
7.56511e-05
8.27569e-05
9.83467e-05
0.000107366
0.000130178
0.000143837
0.000161988
0.000174277
0.000181012
0.000201548
0.000187399
0.00016757
0.000132402
0.000122343
0.000111507
0.000109544
0.000106501
0.000113519
0.000118435
0.000133138
0.000136627
0.000142486
0.000141418
0.000161355
0.000175493
0.000179559
0.0001881
1.73484e-05
1.82506e-05
2.22307e-05
3.10497e-05
4.17269e-05
4.13774e-05
3.29796e-05
2.42024e-05
2.26085e-05
2.21111e-05
2.08568e-05
2.06408e-05
2.11643e-05
2.81105e-05
3.08567e-05
3.0956e-05
2.92552e-05
2.79785e-05
2.91132e-05
3.3961e-05
4.70797e-05
7.33942e-05
0.00011445
0.000174292
0.000261742
0.000305377
0.000317296
0.000315775
0.000306591
0.00029074
0.000269914
0.000234139
0.000210417
0.000213176
0.00022815
0.000221773
0.000186545
0.000167643
0.000169298
0.000170371
0.000153241
0.000136382
0.000133445
0.000121048
0.000118843
0.000118073
0.000122685
0.000121623
0.000125702
0.000133862
0.000145461
0.00015476
0.000150252
0.000147109
0.000147125
0.000146771
0.000146601
0.000142617
0.000136713
0.000131981
0.000131763
0.000133608
0.000148395
0.000182389
0.000194918
0.00025349
0.000279519
0.000207566
0.000113794
9.14275e-05
7.85014e-05
7.24187e-05
7.14287e-05
7.5328e-05
8.28113e-05
0.000100646
0.00010813
0.000134678
0.000145758
0.000167697
0.000180746
0.000180455
0.000203355
0.000189454
0.000177579
0.000142328
0.000134972
0.000119483
0.000115621
0.000113371
0.000120812
0.000129122
0.000140338
0.000141932
0.000156582
0.000156409
0.000168502
0.000186345
0.000182751
0.000184591
6.92869e-06
7.38245e-06
9.12661e-06
1.14568e-05
1.26541e-05
1.24077e-05
1.27513e-05
1.50453e-05
2.05517e-05
2.25902e-05
2.22071e-05
2.11696e-05
2.13907e-05
2.2879e-05
2.38111e-05
2.50027e-05
2.74672e-05
3.29545e-05
4.33573e-05
5.97744e-05
8.60048e-05
0.000128497
0.00018977
0.000279874
0.000321372
0.000331375
0.000329062
0.000321547
0.000305084
0.000286552
0.000265256
0.000230389
0.00021395
0.000223774
0.000234903
0.00022193
0.000183263
0.000167877
0.000169916
0.000169798
0.000152204
0.000138881
0.000137232
0.00012897
0.000122578
0.000119698
0.000124245
0.000122915
0.000128145
0.000140949
0.000149401
0.000153692
0.000148726
0.000146701
0.000148311
0.000147394
0.000150437
0.000150408
0.000145856
0.000138317
0.000136834
0.000138827
0.000160103
0.000187324
0.000199281
0.000253104
0.000290674
0.000215018
0.000118678
9.10137e-05
8.28965e-05
8.35051e-05
7.99731e-05
7.84645e-05
8.54094e-05
0.000101785
0.000110477
0.000142556
0.000151369
0.000166958
0.000203211
0.00018449
0.000195737
0.000186974
0.000177463
0.000153447
0.000144977
0.000124866
0.000122415
0.000120766
0.0001282
0.000138712
0.000147958
0.000153609
0.000173638
0.000187454
0.000188411
0.000198507
0.000195119
0.000185691
8.61148e-06
1.0836e-05
1.08093e-05
1.07318e-05
1.15543e-05
1.37731e-05
1.94465e-05
2.91478e-05
3.67824e-05
4.31562e-05
4.3773e-05
4.35294e-05
4.29962e-05
4.26713e-05
4.34542e-05
4.67701e-05
5.4718e-05
6.63491e-05
8.35657e-05
0.00010767
0.000146706
0.000208084
0.000297741
0.000332707
0.000341568
0.000339049
0.000330844
0.000310644
0.000290127
0.000277495
0.00025831
0.00022577
0.000218827
0.000233783
0.000236546
0.000221274
0.000187129
0.00017343
0.000171034
0.000166477
0.000151823
0.000143221
0.000139306
0.000134844
0.000125628
0.000122995
0.000128322
0.000125766
0.000131503
0.000153882
0.000155584
0.000153921
0.000147322
0.00014568
0.000149774
0.000149714
0.000156271
0.000157699
0.000152721
0.000143135
0.000141255
0.000144649
0.000173354
0.000194997
0.000202775
0.00024523
0.00030797
0.000240466
0.000137946
9.42159e-05
9.05177e-05
0.000100684
9.53432e-05
9.18995e-05
8.80635e-05
0.000103914
0.000114717
0.000168487
0.000171237
0.000165845
0.000266457
0.00020131
0.00020087
0.000187514
0.000177979
0.000157545
0.00015219
0.00013344
0.000133946
0.000133238
0.000138844
0.000150655
0.000159442
0.00018156
0.000188178
0.000206808
0.00020152
0.000200264
0.000195493
0.000184325
2.9668e-05
3.59282e-05
3.60355e-05
3.58617e-05
3.82387e-05
4.42144e-05
5.25863e-05
6.81972e-05
8.02253e-05
8.61165e-05
8.64068e-05
8.5245e-05
8.39592e-05
8.41792e-05
8.6482e-05
9.35604e-05
0.000103702
0.000117738
0.00014066
0.000175164
0.000233228
0.000309947
0.000340796
0.000347688
0.000345722
0.000336554
0.000311995
0.000284531
0.000272708
0.00026497
0.000246963
0.000219762
0.000217805
0.00023469
0.000233004
0.000227133
0.000205239
0.000184999
0.000170124
0.000159046
0.000152893
0.000147539
0.000140383
0.000136184
0.000130999
0.00012937
0.000132422
0.000131534
0.000134555
0.000163403
0.000162808
0.000153197
0.000145433
0.000144449
0.000152558
0.000156191
0.000163838
0.000163559
0.000156105
0.000146998
0.000146329
0.000153603
0.000189249
0.00020143
0.000204284
0.000234099
0.000314463
0.000269889
0.000164329
0.00010382
9.69432e-05
0.00010149
8.63728e-05
9.68839e-05
9.09404e-05
0.000107172
0.000123672
0.000182662
0.00020284
0.000169883
0.000254243
0.000210671
0.000214083
0.00019347
0.00018512
0.00016449
0.000160832
0.000145637
0.000147456
0.000146977
0.000150211
0.000161001
0.000168421
0.000201032
0.000201178
0.000202832
0.000204978
0.000204932
0.000201173
0.000187053
9.58292e-05
0.000103813
0.000104126
0.000103964
0.000107242
0.000113857
0.000123537
0.000141421
0.000150746
0.00015251
0.000152096
0.000149614
0.000147409
0.000147898
0.000150659
0.00015711
0.000166589
0.00018579
0.000213676
0.000263868
0.000320485
0.000346893
0.000352312
0.00034915
0.000337129
0.000310547
0.000281841
0.000267682
0.000259684
0.000246737
0.000223998
0.000208593
0.000213372
0.000232723
0.000230516
0.000238427
0.000224709
0.000192058
0.00016719
0.000156709
0.000153265
0.000152988
0.000146492
0.000141196
0.000139828
0.000140653
0.000140011
0.000148366
0.000143543
0.000167873
0.000166385
0.000149454
0.00014321
0.000144141
0.000154457
0.000162926
0.000167881
0.000166064
0.000156958
0.000150466
0.000152211
0.00017031
0.000207298
0.000207659
0.000203845
0.000225482
0.000312546
0.000300648
0.000190159
0.000117001
0.000101199
9.89467e-05
8.929e-05
9.88807e-05
9.72904e-05
0.000114495
0.00014444
0.000179198
0.000223226
0.00017485
0.00020305
0.000205439
0.000204792
0.00019399
0.000188235
0.000172168
0.000169096
0.000154579
0.000157955
0.000157589
0.000161103
0.000168578
0.000182575
0.000195019
0.000205551
0.00020562
0.000213525
0.000214552
0.000212391
0.000198664
0.000215778
0.0002153
0.000211733
0.000207721
0.000209486
0.000213654
0.000222766
0.000234142
0.00023578
0.000234185
0.000231235
0.000224247
0.000217247
0.000216877
0.000218588
0.000223689
0.000235229
0.000259204
0.000299583
0.000333407
0.000350679
0.000354998
0.000349874
0.000332833
0.000304221
0.000282143
0.000266631
0.000256775
0.000238435
0.00021851
0.000202499
0.000198225
0.000207634
0.000226896
0.000233109
0.000249266
0.000237909
0.000198407
0.000170512
0.000159803
0.000155428
0.000154578
0.000152495
0.000151694
0.000154911
0.000154871
0.000152077
0.000171771
0.000152648
0.00016715
0.000166617
0.000147183
0.000142464
0.000146362
0.000156494
0.000166402
0.000168972
0.000166429
0.000156612
0.000155679
0.000164546
0.000202923
0.000222915
0.000213369
0.00019945
0.000216239
0.000306918
0.000337211
0.000212925
0.000130096
0.000112602
0.000105443
0.000101181
0.000108221
0.000117869
0.000141345
0.000170968
0.000165752
0.0002611
0.000185124
0.000190187
0.000204327
0.000197062
0.000193251
0.000190415
0.000177551
0.000175758
0.000165618
0.000174319
0.000175631
0.000181274
0.000186878
0.000210353
0.000216559
0.000236988
0.000242526
0.000260862
0.000256114
0.000239798
0.000213501
0.000358717
0.000349322
0.000334065
0.000318119
0.000316116
0.000316383
0.000316841
0.000317303
0.000314799
0.00030463
0.000295661
0.000283935
0.000276779
0.000276755
0.000279028
0.000285711
0.000302877
0.000327577
0.000343679
0.000354219
0.000354975
0.000347066
0.000321315
0.000295489
0.000279724
0.000266736
0.000249448
0.000228156
0.000208485
0.00019633
0.000190219
0.000191112
0.000203147
0.000215722
0.000233699
0.000269675
0.000262572
0.000226496
0.000196735
0.000177815
0.000161871
0.000154923
0.000153931
0.000156388
0.000164845
0.000166113
0.000163371
0.000175587
0.00017254
0.000171481
0.000164244
0.000146463
0.000143407
0.000154568
0.000159998
0.000169654
0.000170432
0.000166761
0.000161091
0.000166847
0.000199893
0.000241367
0.000241693
0.000213246
0.000188665
0.000201178
0.000295732
0.000372959
0.000246987
0.00014895
0.000134222
0.000137277
0.000126625
0.000123382
0.000148953
0.000174648
0.000185674
0.000163515
0.000252017
0.000182681
0.000203782
0.000221701
0.000200666
0.000196871
0.00019806
0.000187285
0.00018665
0.000190106
0.000203115
0.000198511
0.00020528
0.000214817
0.000270842
0.000286873
0.000322352
0.000321217
0.000318418
0.000287335
0.000246172
0.000215467
0.000485794
0.000460595
0.000431717
0.000408402
0.000400758
0.00039218
0.000382148
0.000374203
0.000358895
0.000345341
0.000336253
0.000326843
0.000323732
0.00032478
0.000329276
0.0003388
0.000347108
0.000353548
0.000356329
0.00035257
0.000336252
0.000302725
0.000280126
0.000268367
0.000258257
0.000247756
0.000234522
0.00021354
0.000197152
0.000189947
0.000186594
0.000187822
0.000194868
0.000203285
0.000227528
0.000284574
0.000313686
0.000286457
0.000248002
0.000215452
0.000178185
0.000158614
0.000153764
0.000156687
0.000167399
0.000175545
0.00017533
0.000173614
0.000188905
0.000173801
0.000158296
0.000149446
0.000149855
0.000164606
0.00017034
0.000177543
0.000176246
0.000170188
0.00017223
0.000199859
0.000265437
0.000278799
0.000259141
0.000199884
0.000175075
0.00018452
0.000279202
0.000385828
0.000302578
0.000187835
0.000169314
0.000178459
0.000169237
0.000161659
0.000173651
0.000180833
0.000191054
0.000166057
0.000229936
0.000185904
0.000240292
0.000232724
0.000205592
0.000220464
0.000226853
0.000230663
0.000240567
0.000236568
0.000222354
0.000220331
0.000255818
0.000296749
0.000400042
0.000412854
0.000410306
0.000383562
0.000344312
0.000287045
0.000244328
0.000211637
0.000582613
0.000536604
0.000494138
0.000466409
0.000447165
0.000427717
0.000412243
0.000398507
0.000382571
0.000373227
0.000366896
0.00036124
0.000360831
0.000362103
0.000362587
0.000362349
0.000361173
0.000356911
0.000343826
0.000309602
0.000278498
0.000257268
0.000242539
0.000233717
0.000231585
0.000232298
0.000227873
0.000215675
0.000202136
0.00018822
0.000181527
0.000180833
0.000187807
0.00019339
0.00021387
0.000281419
0.000338722
0.000357886
0.000322704
0.000282435
0.000228963
0.000183709
0.000163178
0.000158064
0.000164063
0.000174429
0.000180141
0.000172621
0.000187604
0.000173008
0.000160657
0.000160462
0.000174181
0.000189861
0.00019461
0.000190037
0.000181705
0.0001843
0.000210252
0.000295788
0.000328745
0.000313226
0.000242247
0.000177759
0.000157946
0.000165954
0.000247925
0.000387347
0.000382694
0.000244738
0.000214931
0.000222364
0.000202763
0.00021327
0.000214487
0.000192654
0.000210065
0.000171342
0.000272592
0.000200786
0.000253071
0.000244835
0.000256246
0.000305078
0.000290706
0.000284582
0.000253285
0.000234854
0.000251645
0.000298587
0.000414793
0.000499665
0.000504784
0.000479563
0.00044011
0.000381011
0.000313746
0.000264349
0.000232809
0.000195306
0.000639699
0.000567648
0.000517827
0.000485383
0.000459484
0.000439308
0.000424971
0.000412447
0.00040265
0.000396885
0.000390688
0.000385415
0.000382744
0.0003784
0.000371229
0.000362221
0.000343273
0.000311276
0.000274423
0.000244987
0.000223997
0.00020494
0.000201462
0.00021359
0.00021916
0.00021876
0.000210071
0.000197532
0.000185954
0.000180854
0.00017977
0.000184696
0.000194329
0.000197973
0.00019876
0.000231802
0.000329429
0.000383345
0.000400604
0.000394005
0.000352213
0.000272149
0.000213853
0.000183027
0.000174279
0.000176098
0.000181545
0.000174763
0.00018668
0.000181191
0.000176729
0.000197766
0.000209642
0.000211396
0.000208229
0.00020648
0.000216151
0.000253615
0.000363029
0.000392142
0.000374338
0.00030318
0.000213347
0.00016606
0.000152445
0.000157897
0.000214649
0.000363578
0.000430257
0.000352542
0.000287793
0.000290948
0.00026828
0.000299049
0.000258681
0.000247763
0.000247189
0.000237409
0.000278339
0.000260544
0.000291613
0.000285459
0.000286298
0.000297797
0.000285939
0.000286963
0.00029521
0.000335094
0.000436517
0.000589378
0.000606405
0.000592172
0.000540231
0.000465751
0.000405537
0.000321082
0.000269636
0.000231059
0.000222785
0.000204384
0.00064307
0.000559764
0.000510701
0.000480128
0.000458958
0.000444251
0.000432501
0.00042141
0.000413148
0.000405924
0.000397361
0.000388818
0.000377819
0.000361945
0.000339266
0.00030856
0.000271207
0.000232769
0.000198186
0.00017326
0.000167292
0.000172474
0.000186162
0.00021396
0.000239451
0.000248828
0.000234313
0.000207815
0.000192388
0.00019074
0.000196768
0.000206605
0.000212792
0.000213496
0.000217005
0.000226122
0.000256644
0.000349193
0.000419008
0.000461199
0.000490761
0.000493359
0.000423334
0.000340142
0.000281706
0.000253237
0.000210811
0.00019737
0.000208551
0.000224468
0.000222523
0.000237191
0.000248365
0.000262219
0.000289385
0.000329346
0.000422083
0.000489726
0.000486823
0.000438203
0.000361779
0.000278627
0.000232503
0.000213894
0.000214568
0.00022636
0.000249227
0.000318427
0.000417433
0.000430321
0.0003543
0.00031934
0.000294793
0.00031985
0.000274671
0.000246194
0.000289657
0.000376618
0.000358079
0.000355942
0.000393833
0.00037405
0.000380874
0.000426188
0.000463869
0.000581726
0.000640241
0.000759041
0.000774257
0.000769434
0.000667204
0.000605737
0.000476606
0.000429447
0.000375135
0.000328722
0.000323493
0.00031465
0.000319371
0.000340278
0.000520366
0.000467682
0.00044106
0.000424393
0.000408664
0.000391376
0.000373131
0.000355417
0.000340675
0.000328693
0.000317591
0.000306452
0.00029342
0.000276402
0.000254593
0.000228748
0.000200288
0.000172497
0.000150249
0.000140198
0.00014425
0.000164194
0.000199208
0.000253468
0.000322628
0.000388048
0.000419504
0.000421013
0.000375972
0.000312408
0.000260416
0.000229363
0.000237079
0.000296224
0.000377235
0.000414156
0.000409622
0.000358075
0.000293077
0.000332527
0.000487646
0.000633219
0.00071062
0.00073575
0.000710335
0.000684014
0.000534648
0.000387718
0.000357463
0.000261387
0.000248514
0.000285592
0.000371001
0.000474687
0.000571978
0.000637886
0.000652608
0.000612173
0.000498446
0.000386646
0.000324912
0.000308015
0.000335714
0.000375738
0.000443952
0.000491627
0.000490828
0.00044066
0.000355594
0.000363751
0.000388462
0.000415602
0.00053686
0.000290171
0.000475623
0.000269985
0.000341729
0.000532271
0.000403159
0.000557829
0.000530206
0.000632614
0.000710675
0.000912847
0.000945297
0.00105684
0.0010173
0.00102795
0.000886226
0.000810131
0.00053111
0.000557298
0.00039509
0.000461244
0.000422413
0.000505706
0.000512473
0.000570818
0.000603646
0.000712755
9.45223e-05
0.000126859
0.000181909
0.000271401
0.000337096
0.000282093
0.000122751
0.000114151
0.000122073
0.000142332
0.000192664
0.000278651
0.000418699
0.00054438
0.000494294
0.000296383
0.000167117
0.000183269
0.000205459
0.000213636
0.000218313
0.000337599
0.000621503
0.000776812
0.000850009
0.000872527
0.000855249
0.000792909
0.000684923
0.000573022
0.00041355
0.000316272
0.000256543
0.000236388
0.000167329
0.000162848
0.000204677
0.000216806
0.000272522
0.000322861
0.000370126
0.000396931
0.000396121
0.000381527
0.000350832
0.000324956
0.000305399
0.000300512
0.00029839
0.000295509
0.00027169
0.000234855
0.000191896
0.000155629
0.000128662
0.000118682
0.000124062
0.00014241
0.000154235
0.000161613
0.000171892
0.000191904
0.000226034
0.00026038
0.000280619
0.000282596
0.000280446
0.000282747
0.000300456
0.000327401
0.000362974
0.000378672
0.000380837
0.000363253
0.000342834
0.000328242
0.000321112
0.000322623
0.000334779
0.000351535
0.000375344
0.000384495
0.000367574
0.000282006
0.000230045
0.000233143
0.000273952
0.000297568
0.000317657
0.000320375
0.000309717
0.000293742
0.000259131
0.000222386
0.000193554
0.00016599
0.000124093
9.27171e-05
7.13945e-05
5.47862e-05
0.000128542
0.000127345
0.000127832
0.000132526
0.000186101
0.000259958
0.000226057
0.00012126
0.000123764
0.000150315
0.00015395
0.000167433
0.000179301
0.000257793
0.000376873
0.000342297
0.000247164
0.000204668
0.000215528
0.00034358
0.000574096
0.000616579
0.000610311
0.000579467
0.000502431
0.000438599
0.000368296
0.00032319
0.000281972
0.000261042
0.000234189
0.000218413
0.000215914
0.000227481
0.000214817
0.000216898
0.000222807
0.000217427
0.000220058
0.000226866
0.000233529
0.000245006
0.000261761
0.000282162
0.000289499
0.000289695
0.000284939
0.000280628
0.000278363
0.000275478
0.000262018
0.000214119
0.000164539
0.000133591
0.000123569
0.000122747
0.000128344
0.000136625
0.000144304
0.00015897
0.000176627
0.000194392
0.000202956
0.000209351
0.000220017
0.000223077
0.00022472
0.000225582
0.000227594
0.000234026
0.000257916
0.000313484
0.000358056
0.000365476
0.000348523
0.000298927
0.000269755
0.000261985
0.000266063
0.000264929
0.000245888
0.000236766
0.000241331
0.000242241
0.000218317
0.000213683
0.000199584
0.000189071
0.000178409
0.00015935
0.000152589
0.000141076
0.000130892
0.000118493
0.000102525
9.26006e-05
8.77989e-05
8.50047e-05
8.023e-05
6.76243e-05
0.000138481
0.000133641
0.00013102
0.00012772
0.000132329
0.000192312
0.000218433
0.000162826
0.000135118
0.000139911
0.000147322
0.000166873
0.000163869
0.000168139
0.000228962
0.000275576
0.000230352
0.00023406
0.000375951
0.000536904
0.000560921
0.000506034
0.000385624
0.000311351
0.000279005
0.000264386
0.000259043
0.000257097
0.000252434
0.000236674
0.000234312
0.000212483
0.000210489
0.000216344
0.000189346
0.00020565
0.000200583
0.00020496
0.000207552
0.000211594
0.000215494
0.000215934
0.000208383
0.000204896
0.000204424
0.000202068
0.000192492
0.000171901
0.000160134
0.000162589
0.000177817
0.000176936
0.000159427
0.000130074
0.000120489