/*--------------------------------*- C++ -*----------------------------------*\
| =========                 |                                                 |
| \\      /  F ield         | OpenFOAM: The Open Source CFD Toolbox           |
|  \\    /   O peration     | Version:  2.4.0                                 |
|   \\  /    A nd           | Web:      www.OpenFOAM.org                      |
|    \\/     M anipulation  |                                                 |
\*---------------------------------------------------------------------------*/
FoamFile
{
    version     2.0;
    format      ascii;
    class       volScalarField;
    location    "0.05";
    object      p;
}
// * * * * * * * * * * * * * * * * * * * * * * * * * * * * * * * * * * * * * //

dimensions      [0 2 -2 0 0 0 0];

internalField   nonuniform List<scalar> 
4400
(
103.725
83.6197
75.9211
72.6845
70.1342
67.7998
65.2835
62.9678
59.9981
57.2033
101.791
83.688
75.959
72.695
70.1381
67.8001
65.2859
62.9633
60.0218
57.1248
100.578
84.0053
76.0959
72.7334
70.1605
67.8095
65.296
62.9612
60.086
57.2003
99.8467
84.3884
76.2806
72.7903
70.2072
67.8365
65.3251
62.9676
60.1927
57.4516
99.254
84.74
76.4704
72.847
70.2718
67.8825
65.3768
62.9996
60.351
57.8235
98.7414
85.0314
76.6402
72.8862
70.3351
67.9348
65.4452
63.0524
60.5829
58.3077
98.3175
85.2626
76.7858
72.9036
70.3868
67.9809
65.516
63.124
60.7851
58.8568
97.9919
85.4352
76.9023
72.9095
70.4273
68.0189
65.5777
63.2097
60.9345
59.399
97.7728
85.5497
76.9842
72.9065
70.4558
68.0496
65.6332
63.2895
61.1009
59.9406
97.6645
85.6037
77.029
72.9012
70.4755
68.0715
65.6808
63.369
61.2834
60.3848
97.6662
85.5971
77.0373
72.896
70.4839
68.0869
65.7196
63.4498
61.4619
60.7443
97.7779
85.5301
77.0099
72.8889
70.4854
68.0938
65.7503
63.528
61.6378
61.0317
97.9985
85.4036
76.9455
72.8813
70.4749
68.0923
65.7749
63.6007
61.8055
61.246
98.3253
85.2196
76.8459
72.8694
70.4495
68.0812
65.7929
63.6665
61.9693
61.4046
98.7506
84.9779
76.7168
72.849
70.4109
68.0583
65.803
63.7232
62.1245
61.5259
99.2645
84.6779
76.5604
72.8122
70.3582
68.0252
65.8071
63.7707
62.2532
61.6172
99.8602
84.3199
76.3801
72.7588
70.3015
67.9934
65.81
63.8083
62.3478
61.6978
100.599
83.9311
76.2004
72.7045
70.2606
67.9749
65.8154
63.8356
62.4059
61.7647
101.818
83.6122
76.0654
72.6668
70.2414
67.9692
65.8204
63.8501
62.4313
61.8338
103.757
83.5442
76.0283
72.6547
70.2393
67.9697
65.8228
63.8538
62.4363
61.9292
57.3914
56.1402
54.5798
55.135
60.0695
67.8195
74.5093
79.1713
80.663
74.7716
61.3354
48.2427
39.7688
32.8244
26.4794
22.8245
24.4486
30.481
37.265
42.9953
47.6485
51.922
55.5747
57.0434
56.2188
53.5161
48.1669
41.9464
36.6917
31.8175
29.4995
31.4701
35.0052
40.2224
49.7883
61.3801
71.196
78.327
83.559
87.1127
89.1582
90.2136
90.8072
91.1648
91.4174
91.5285
91.6186
91.5594
91.5844
91.3962
91.4325
91.1319
91.2659
90.9626
91.3347
91.24
91.755
91.7418
91.9695
91.7235
91.6805
91.3074
91.3766
91.0739
91.4031
91.1488
91.5918
91.1695
91.5731
91.0335
91.494
91.0868
91.6721
91.1384
91.6606
90.9349
91.584
90.9919
91.7621
90.9675
91.5876
90.8968
91.5968
90.8835
91.3609
90.6957
91.0885
90.3898
90.4931
89.7647
89.6881
88.6976
88.4196
87.065
86.8737
84.6184
84.4682
79.0147
78.5813
51.1337
57.2219
56.568
55.3841
55.9133
60.8649
68.4334
74.4624
78.7827
80.2149
74.4572
61.6824
49.8592
42.2975
35.9722
29.8501
26.1793
27.5298
33.1199
39.6342
45.3024
49.8726
53.6752
56.7155
57.7549
56.1827
52.5214
46.3946
39.3102
33.1676
27.6067
24.954
27.0098
30.5724
35.8074
46.0531
58.8314
69.8075
77.676
83.2994
87.065
89.2296
90.3384
90.9448
91.2969
91.5412
91.6406
91.7207
91.6461
91.659
91.4535
91.4656
91.1506
91.2238
90.9313
91.2157
91.1962
91.6468
91.7129
91.8561
91.5792
91.4598
90.9852
91.0955
90.7388
91.1731
90.8946
91.4216
90.9663
91.4047
90.8177
91.2989
90.842
91.4697
90.8668
91.4348
90.583
91.3405
90.6395
91.5586
90.5165
91.38
90.4059
91.4691
90.3319
91.2202
90.0686
90.9808
89.7566
90.304
89.1414
89.466
87.9845
87.8988
86.0038
86.0074
82.7018
82.9086
74.8691
74.1086
43.5327
57.3631
57.1558
56.3428
56.8229
61.5635
68.579
73.829
77.7462
79.0728
73.576
61.7071
50.9609
44.141
38.8829
33.2501
29.9985
31.3469
36.4455
42.6169
48.0919
52.3233
55.6132
58.2034
58.8828
56.6561
52.1178
45.1458
37.0828
29.892
23.6196
20.7533
22.9367
26.6286
31.9249
42.696
56.4564
68.4696
77.0449
83.056
87.0252
89.2971
90.4523
91.071
91.4201
91.6575
91.7476
91.8187
91.7342
91.7356
91.5254
91.5119
91.2056
91.2056
90.9392
91.0968
91.1191
91.4618
91.539
91.5948
91.2447
91.1062
90.5742
90.7825
90.414
90.9694
90.7038
91.258
90.8174
91.1792
90.605
91.0592
90.5828
91.1891
90.5439
91.0919
90.1931
91.0198
90.2264
91.2133
90.0051
90.9953
89.8183
91.1477
89.6432
90.9053
89.2753
90.7127
88.8672
90.0278
88.2296
89.2009
87.0049
87.3587
84.7661
84.9987
80.6159
81.3391
71.5687
68.9951
41.713
57.7328
57.8383
57.3068
57.6947
62.1186
68.4413
72.8068
76.2421
77.4833
72.4775
61.858
52.2269
46.448
41.7244
36.7756
34.2682
35.6668
40.1477
45.6864
50.7427
54.7136
57.7031
59.9722
60.4584
57.7069
52.3189
44.5047
35.3483
27.0354
20.0168
16.9531
19.179
23.1331
28.6525
39.8766
54.35
67.2024
76.4575
82.8452
86.9801
89.3322
90.535
91.1785
91.5339
91.7684
91.8516
91.914
91.8235
91.8144
91.61
91.5729
91.2906
91.2146
90.974
90.9681
90.988
91.1622
91.2141
91.1824
90.8022
90.7008
90.2059
90.5206
90.2382
90.815
90.6422
91.0628
90.6437
90.8652
90.3143
90.7611
90.3257
90.8301
90.1447
90.6818
89.7749
90.6066
89.8083
90.7472
89.4033
90.4546
89.184
90.6137
88.8071
90.2605
88.3143
90.2438
87.7275
89.5456
86.9332
88.9634
85.627
86.865
83.348
83.8458
78.6781
78.9551
68.5875
63.1866
42.296
58.2507
58.6163
58.265
58.4993
62.5331
68.116
71.6419
74.5917
75.6822
71.3367
62.3994
54.1623
49.02
44.6602
40.6357
38.9012
40.1471
43.969
48.8827
53.4436
57.1321
60.0024
61.9921
62.1993
59.1166
52.9973
44.2874
34.053
24.6436
16.995
13.7636
16.0096
20.1779
26.0091
37.6055
52.5806
66.1176
75.9528
82.6562
86.941
89.3789
90.6334
91.2974
91.6535
91.88
91.9545
92.0061
91.9133
91.8929
91.7046
91.6448
91.399
91.2497
91.0335
90.8396
90.8217
90.7715
90.7829
90.6979
90.3663
90.355
89.9909
90.345
90.155
90.6585
90.5368
90.8031
90.3501
90.4797
89.9956
90.4612
90.038
90.4362
89.7277
90.1967
89.3967
90.2013
89.3825
90.1303
88.8043
89.8335
88.5674
89.9026
87.9888
89.343
87.2836
89.3023
86.3973
88.3405
85.2375
88.0277
83.6103
85.8951
81.2653
83.246
76.9086
76.5027
66.2347
56.2403
41.9879
58.7954
59.345
59.1549
59.285
62.8256
67.6422
70.4727
72.9578
73.9076
70.2898
63.224
56.5849
51.7741
47.7676
44.7409
43.7395
44.8066
47.8542
52.0886
56.2213
59.7289
62.5067
64.2443
64.0609
60.6218
53.9551
44.4045
33.1586
22.7563
14.6519
11.3415
13.5034
17.8033
24.0094
36.0192
51.3726
65.3281
75.5872
82.5708
86.9737
89.4518
90.7253
91.3992
91.7565
91.9772
92.0451
92.0866
91.996
91.9647
91.7993
91.7186
91.5182
91.3059
91.1157
90.7319
90.6587
90.3543
90.3208
90.2491
90.0124
90.1546
89.9053
90.2578
90.0812
90.463
90.3259
90.4764
90.0491
90.1246
89.7358
90.1447
89.7632
89.9903
89.3093
89.7125
89.0646
89.7419
88.9058
89.4148
88.2036
89.1635
87.9692
89.077
87.23
88.4007
86.4484
88.2409
85.3552
87.1014
83.8378
86.5211
81.3791
84.0009
78.3548
81.3046
73.3722
72.9666
63.8854
51.8318
42.4582
59.5003
60.0559
59.9018
59.9564
62.9789
67.0599
69.3904
71.461
72.3374
69.4704
64.0438
58.8173
54.4826
50.8478
48.7099
48.3408
49.2235
51.5222
55.0766
58.8784
62.3139
65.0383
66.5702
66.0652
62.2925
55.1005
44.8583
32.7657
21.519
13.076
9.7239
11.7263
16.1307
22.7715
35.1356
50.6865
64.8585
75.423
82.5744
87.011
89.4998
90.7972
91.4915
91.8558
92.0721
92.1348
92.1637
92.0773
92.0325
91.8937
91.7975
91.6438
91.3812
91.2215
90.6697
90.5477
89.9737
89.9275
89.8587
89.8034
90.0836
89.9593
90.2525
90.0526
90.227
90.0893
90.1033
89.8187
89.8332
89.5323
89.792
89.4379
89.5169
88.9378
89.2796
88.7553
89.2386
88.389
88.6595
87.6656
88.5258
87.3706
88.121
86.4961
87.5412
85.7109
87.0821
84.584
85.9614
82.9174
84.7796
79.9057
81.9098
75.9426
77.5334
68.5894
67.8519
59.4042
49.8109
43.2676
60.3692
60.8171
60.4995
60.4526
63.0613
66.5109
68.4652
70.2215
71.133
68.9172
64.7342
60.7066
57.0072
53.7933
52.2992
52.3302
53.0308
54.7747
57.835
61.387
64.7146
67.4561
68.8916
68.0716
63.971
56.3364
45.6011
32.9441
21.0391
12.3497
8.94153
10.6426
15.1238
22.2505
34.9553
50.5721
64.7589
75.4251
82.6322
87.0767
89.5744
90.8898
91.5935
91.9558
92.158
92.2104
92.2217
92.1406
92.0825
91.9724
91.8624
91.7604
91.469
91.3449
90.6668
90.5177
89.6701
89.6531
89.5329
89.7332
90.1073
90.134
90.3229
90.092
90.0027
89.8188
89.7388
89.6128
89.6231
89.3668
89.462
89.0959
89.0788
88.6755
88.9059
88.464
88.6882
87.9087
87.9679
87.2157
87.8536
86.7506
87.1013
85.7486
86.6972
84.9388
85.788
83.5718
84.7398
81.8006
82.7706
78.5424
79.5811
74.0068
73.4457
65.7536
63.3284
56.3258
49.1434
42.7758
61.0226
61.3668
61.0016
60.8931
63.1136
66.0774
67.7518
69.2856
70.26
68.5839
65.313
62.3119
59.3062
56.5893
55.5532
55.7224
56.284
57.7401
60.4718
63.692
66.8039
69.5264
70.9238
69.8781
65.461
57.57
46.5892
33.6464
21.3234
12.4623
8.93928
10.3595
14.8736
22.4683
35.4758
51.021
65.0132
75.626
82.8057
87.1948
89.6539
90.9593
91.6603
92.0201
92.2141
92.266
92.2678
92.199
92.1271
92.0472
91.9219
91.8713
91.5676
91.4885
90.7308
90.5737
89.4875
89.5171
89.3054
89.7654
90.1866
90.3747
90.4555
90.2347
89.8785
89.6291
89.4862
89.491
89.5616
89.3182
89.2427
88.8801
88.7015
88.5326
88.5938
88.2334
88.1577
87.5362
87.3946
86.8463
87.1466
86.1342
86.1167
85.0781
85.7677
84.0701
84.3759
82.3989
83.3872
80.4188
80.5304
76.9458
76.9388
72.182
69.7106
64.7221
60.7467
55.8104
48.8615
41.8957
61.4949
61.7956
61.4808
61.3488
63.1414
65.7202
67.2309
68.565
69.5606
68.3531
65.8619
63.6889
61.3751
59.213
58.4634
58.7349
59.2949
60.519
62.8018
65.6109
68.4522
71.0496
72.3976
71.2661
66.6728
58.7508
47.7838
34.8178
22.3235
13.4213
9.70627
10.8218
15.4248
23.4506
36.6377
51.9818
65.6344
76.0342
83.0451
87.2995
89.7048
91.012
91.7255
92.0948
92.285
92.3384
92.3273
92.2636
92.1733
92.1096
91.9716
91.9627
91.6626
91.6408
90.8513
90.7176
89.4626
89.5557
89.1977
89.8735
90.2782
90.6267
90.6025
90.515
89.891
89.6517
89.3553
89.4495
89.6187
89.4092
89.1451
88.7892
88.5024
88.4747
88.4847
88.1581
87.7889
87.301
87.0546
86.6469
86.5353
85.6708
85.2933
84.5662
84.776
83.2215
82.9835
81.3467
81.7274
79.0242
78.3185
75.5301
74.3814
70.7226
67.613
64.585
60.0607
56.9724
48.7667
42.1451
61.8923
62.1866
61.9059
61.7403
63.1586
65.4645
66.8562
67.9538
68.9953
68.2829
66.4528
64.891
63.2496
61.6372
61.0473
61.4398
62.078
63.0407
64.7683
67.0126
69.4917
71.9066
73.2251
72.0835
67.4793
59.7472
49.0725
36.4785
23.9892
15.1885
11.2858
12.1066
16.8174
25.1979
38.3837
53.3665
66.546
76.5689
83.316
87.4257
89.7911
91.0976
91.8069
92.1685
92.3413
92.3867
92.3617
92.2996
92.1981
92.1475
91.9987
92.034
91.7389
91.7959
91.0213
90.9524
89.6232
89.7822
89.2289
90.0392
90.3593
90.8433
90.739
90.8202
90.0484
89.8712
89.3051
89.5489
89.7155
89.6331
89.2437
88.9191
88.51
88.6086
88.5584
88.2956
87.6774
87.32
86.9999
86.7007
86.2249
85.4962
84.8305
84.2844
83.9732
82.6455
81.8292
80.599
80.0967
77.895
76.612
74.52
72.5898
69.9981
66.9469
65.3153
60.3424
58.4939
49.3619
43.5808
62.1627
62.4267
62.272
62.1934
63.2403
65.2427
66.6145
67.5215
68.4925
68.287
67.1032
66.0396
64.9431
63.8404
63.4606
63.8659
64.4127
65.1485
66.3207
67.8699
69.9294
72.1655
73.413
72.2313
67.7993
60.4744
50.3549
38.4097
26.3718
17.6936
13.6714
14.3002
19.0617
27.7409
40.6465
55.0353
67.6877
77.2034
83.6292
87.5775
89.8788
91.1595
91.8545
92.2116
92.3808
92.4279
92.4029
92.3457
92.2349
92.1946
92.0244
92.0915
91.7957
91.9354
91.2235
91.2603
89.9733
90.1884
89.4134
90.2672
90.4162
91.0109
90.8307
91.0908
90.2858
90.2715
89.3975
89.7705
89.8328
89.98
89.4802
89.3277
88.6835
88.9007
88.7282
88.6626
87.8269
87.6684
87.1745
87.0251
86.29
85.7542
84.8067
84.3718
83.639
82.5848
81.3384
80.3367
79.1327
77.4708
75.8145
74.3237
71.877
70.422
67.2698
66.6886
61.106
59.8024
50.6729
44.9707
62.3413
62.604
62.5997
62.6826
63.4211
65.0434
66.4047
67.1878
68.0451
68.3784
67.799
66.9999
66.3469
65.8844
65.7744
66.0419
66.3133
66.7252
67.3535
68.2432
69.9036
71.9363
73.033
71.7814
67.6893
60.9756
51.6169
40.5177
29.2277
20.8513
16.7419
17.1741
21.9969
30.8192
43.3304
56.9683
68.9734
77.8526
83.9303
87.7127
89.9494
91.2118
91.9055
92.2637
92.4332
92.4778
92.4494
92.3909
92.271
92.2325
92.0454
92.1277
91.8143
92.0471
91.4103
91.623
90.4606
90.7522
89.7599
90.567
90.4563
91.133
90.8754
91.3028
90.5386
90.7738
89.683
90.0224
89.9065
90.32
89.7929
89.9034
89.0092
89.3521
88.9476
89.2072
88.2086
88.3517
87.4566
87.6403
86.6134
86.5121
85.0815
84.9434
83.7644
83.2208
81.4303
80.8041
78.9688
78.0568
75.8494
75.1824
72.1966
71.939
68.1593
68.2978
62.1976
60.7482
52.116
45.871
62.4195
62.7256
62.9098
63.1356
63.5846
64.879
66.3432
67.046
67.6685
68.3292
68.3702
67.9628
67.6724
67.5635
67.582
67.7516
67.8375
67.8635
67.8808
68.2311
69.6121
71.369
72.1826
70.863
67.2005
61.2557
52.8388
42.6945
32.3373
24.4479
20.3595
20.7007
25.4902
34.2652
46.2395
59.0044
70.2577
78.452
84.2252
87.8576
90.0329
91.2736
91.9604
92.3129
92.479
92.5206
92.49
92.433
92.3102
92.2718
92.0732
92.1556
91.8264
92.1197
91.5474
91.9718
90.9968
91.4051
90.2604
90.945
90.5139
91.2247
90.8921
91.4426
90.7236
91.269
90.1112
90.3861
89.9862
90.613
90.126
90.5791
89.4743
89.8921
89.1681
89.793
88.6993
89.2131
87.8495
88.4368
87.0811
87.5981
85.6215
85.9778
84.1729
84.5134
81.9458
82.0468
79.4943
79.6091
76.4041
76.9116
73.2527
73.9645
69.3991
69.693
63.2666
61.2798
53.2225
46.5063
62.407
62.761
63.1449
63.5383
63.8305
64.8623
66.2612
66.8498
67.4202
68.4396
68.8795
68.6413
68.6375
68.9
69.0127
68.9569
68.7686
68.5159
68.1312
68.1249
69.2676
70.6959
71.052
69.6347
66.4198
61.3555
54.0153
44.8877
35.4537
28.1167
24.1934
24.6135
29.2392
37.7813
49.0897
60.9384
71.3296
79.1347
84.5252
88.003
90.1087
91.323
92.0028
92.3528
92.518
92.5593
92.5287
92.471
92.3499
92.3084
92.1056
92.1825
91.8347
92.1599
91.6097
92.2376
91.4432
92.0497
90.8844
91.3929
90.6098
91.3027
90.8802
91.5209
90.8056
91.6614
90.5814
90.9357
90.1789
90.8474
90.348
91.14
90.0215
90.4704
89.3708
90.3123
89.1887
90.0979
88.3418
89.2506
87.5821
88.7575
86.3281
87.2622
84.7681
86.1268
82.7939
83.8025
80.3898
81.8187
77.4442
78.8918
74.5916
75.8662
70.6401
70.6929
64.1818
61.4516
54.0068
47.1274
62.3931
62.8344
63.3697
63.8286
64.0436
64.8599
66.1822
66.7987
67.3028
68.4247
69.1941
69.2071
69.3564
69.7434
69.8649
69.6747
69.31
68.8538
68.2481
68.1052
69.0868
70.0872
69.8841
68.2767
65.5426
61.3786
55.1492
47.0211
38.4263
31.5756
27.8373
28.3009
32.7808
41.0083
51.6393
62.6431
72.2999
79.7078
84.7777
88.1124
90.1552
91.3521
92.0311
92.3829
92.5495
92.5907
92.5614
92.5015
92.3833
92.3368
92.1347
92.2033
91.8509
92.1807
91.6204
92.3604
91.6633
92.5019
91.4791
91.913
90.8863
91.4217
90.8679
91.5511
90.8188
91.8681
90.9209
91.563
90.5032
91.0812
90.4763
91.4663
90.4889
91.1766
89.6782
90.7306
89.5882
90.9439
88.893
90.0079
88.0294
89.8315
87.0846
88.5288
85.4198
87.683
83.7786
85.6885
81.4212
84.0127
78.7404
80.7388
75.8643
77.3678
71.633
71.2623
64.8845
61.358
54.5597
47.8096
62.4264
62.9226
63.5222
64.0048
64.2282
64.9305
66.1092
66.7218
67.2834
68.4526
69.3359
69.5153
69.7605
70.1826
70.2832
70.008
69.5486
68.9989
68.3813
68.2849
69.1297
69.6614
68.9366
67.1389
64.7518
61.3835
56.1981
48.9921
41.096
34.631
31.0376
31.4452
35.8489
43.7297
53.7499
64.0335
73.0838
80.1233
84.9431
88.1683
90.1651
91.358
92.043
92.4004
92.57
92.6126
92.5841
92.5235
92.4053
92.3553
92.1533
92.2151
91.8599
92.1901
91.6264
92.3866
91.638
92.6548
91.7169
92.3014
91.2933
91.6731
90.9728
91.5951
90.8547
91.9448
91.0348
92.0176
90.8909
91.4321
90.6478
91.6904
90.7155
91.773
90.1628
91.1865
89.8105
91.4978
89.4287
90.7525
88.4137
90.6265
87.7788
89.7139
86.071
88.9639
84.7672
87.4139
82.4149
85.7778
80.01
82.2931
76.9687
78.4588
72.3578
71.4041
65.4346
61.1988
54.9457
48.5412
62.523
63.0446
63.6207
64.0925
64.359
64.9961
66.0404
66.6906
67.3058
68.4293
69.348
69.643
69.9202
70.303
70.3819
70.0903
69.6164
69.0742
68.5569
68.5817
69.3201
69.4984
68.407
66.3958
64.1946
61.3966
57.0666
50.6708
43.3066
37.1061
33.6032
33.9518
38.2313
45.7984
55.326
65.0445
73.6185
80.354
85.0179
88.1734
90.1383
91.3392
92.0347
92.4014
92.5748
92.6217
92.5931
92.5339
92.4155
92.3604
92.165
92.2119
91.8819
92.179
91.6515
92.3461
91.6213
92.6067
91.6233
92.4592
91.3651
91.8748
91.0957
91.6751
90.9504
91.9752
91.0434
92.2142
91.058
91.8022
90.8911
91.8443
90.8233
92.0878
90.511
91.6683
90.0622
91.7392
89.7496
91.4819
88.8797
91.1019
88.2377
90.7849
86.8067
89.8447
85.5444
88.8681
83.3315
86.965
81.0666
83.5242
77.7266
79.0949
72.9462
71.3861
65.7937
61.0792
55.1968
49.2118
62.6352
63.138
63.6622
64.1156
64.4365
65.0525
65.9902
66.6666
67.3386
68.3844
69.267
69.6438
69.9398
70.2882
70.3616
70.0762
69.6173
69.1161
68.7457
68.8873
69.5402
69.5444
68.2997
66.2034
63.9967
61.3826
57.5822
51.8618
44.9094
38.8965
35.4389
35.7049
39.8448
47.1577
56.3271
65.6501
73.898
80.4114
85.0231
88.1379
90.074
91.2927
92.0025
92.3814
92.5621
92.6159
92.5911
92.5333
92.4204
92.3572
92.1782
92.2032
91.9071
92.1689
91.6804
92.3247
91.6202
92.545
91.6079
92.3982
91.3891
91.9714
91.1207
91.7863
91.0004
91.9989
91.0523
92.2395
91.09
92.016
90.9794
91.9546
90.8767
92.1926
90.6154
91.9517
90.2167
91.8869
89.8716
91.8821
89.1759
91.4192
88.4725
91.3793
87.3132
90.389
86.0035
89.7583
84.0497
87.589
81.7407
84.3481
78.2529
79.3013
73.4285
71.3145
66.1135
61.0261
55.3316
49.6933
62.7794
63.1966
63.67
64.1125
64.4701
65.0836
65.961
66.6545
67.3639
68.3643
69.2054
69.6192
69.9242
70.2217
70.2854
70.0365
69.6113
69.1441
68.8315
69.0366
69.6613
69.6334
68.3981
66.2414
63.8554
61.2177
57.7142
52.4716
45.7472
39.8642
36.4306
36.6211
40.6279
47.7949
56.7736
65.8908
73.9751
80.3735
84.9665
88.0974
89.9898
91.2423
91.9704
92.3624
92.551
92.6097
92.5887
92.5305
92.4235
92.3525
92.1876
92.1962
91.9236
92.1651
91.6985
92.3216
91.6223
92.539
91.5866
92.4215
91.3757
91.9954
91.1438
91.8015
91.0159
92.0177
91.0342
92.2455
91.0874
92.0334
90.9901
92.0101
90.8613
92.2155
90.6215
92.0112
90.2248
91.9686
89.8748
91.9659
89.194
91.5848
88.4872
91.5347
87.3708
90.6498
86.0677
90.0424
84.2291
87.847
81.8996
84.6615
78.4422
79.3312
73.5776
71.2482
66.1603
60.9862
55.3662
49.6614
64.2738
64.1207
63.7689
61.9411
58.1856
53.3182
49.5251
47.9514
47.5218
48.6893
51.2179
51.8254
51.0077
49.24
46.8509
43.8057
42.0693
42.4365
44.8175
49.1773
53.9933
58.4495
63.6917
68.8247
73.2221
77.494
80.8278
83.3299
85.0806
86.0191
86.3678
86.2359
85.8487
85.3792
85.0024
84.8451
84.9686
85.375
85.9614
86.6426
87.3348
87.98
88.5529
89.0481
89.4725
89.8329
90.1401
90.4046
90.6328
90.8286
90.9983
91.145
91.2734
91.3863
91.483
91.5686
91.6389
91.6999
91.7481
91.7875
91.8201
91.8442
91.8691
91.8878
91.9101
91.9329
91.9554
91.987
92.0159
92.0557
92.1005
92.1491
92.2147
92.2813
92.3662
92.4635
92.5708
92.7034
92.8454
93.013
93.1991
93.4036
93.6305
93.8695
94.1196
94.3703
94.6053
94.8141
94.9875
95.124
95.2205
95.2493
95.1499
94.9172
94.613
94.3581
94.4785
95.2678
96.6009
97.7509
64.1475
64.0017
63.6229
61.6495
57.6398
52.4824
48.528
47.2336
47.3655
48.7512
51.1144
51.7695
51.2113
49.3763
45.9355
42.559
41.0192
41.7756
44.4033
48.8844
53.8236
58.4013
63.6072
68.7457
73.1957
77.4713
80.8109
83.2936
85.0575
85.9888
86.3362
86.2055
85.8117
85.3371
84.9599
84.8116
84.953
85.3568
85.9577
86.6448
87.3397
87.9858
88.5589
89.0539
89.4772
89.8373
90.1467
90.4103
90.6376
90.8324
91.0015
91.1485
91.2759
91.3889
91.485
91.5712
91.6409
91.702
91.7498
91.7883
91.8213
91.844
91.8698
91.8872
91.9099
91.9325
91.9543
91.9867
92.0146
92.0545
92.0999
92.1466
92.2144
92.2785
92.3645
92.461
92.5675
92.7007
92.8417
93.0092
93.196
93.3995
93.6274
93.867
94.1177
94.3711
94.6081
94.8237
95.0049
95.1502
95.2537
95.2805
95.186
94.9447
94.601
94.2707
94.3396
95.0968
96.4315
97.5861
63.9052
63.7572
63.2903
60.9978
56.48
50.7867
46.7784
46.1108
47.4015
49.3396
51.4095
51.8294
50.7991
48.0133
43.6862
39.9381
38.9522
40.4606
43.6563
48.3286
53.4864
58.2591
63.406
68.6054
73.1377
77.3685
80.7732
83.2181
84.9702
85.8896
86.2224
86.0793
85.6697
85.1834
84.8031
84.6669
84.8359
85.2831
85.9263
86.6531
87.3697
88.0243
88.5972
89.0865
89.504
89.8587
90.163
90.4223
90.6466
90.8392
91.007
91.1531
91.28
91.3933
91.489
91.576
91.6449
91.7068
91.7532
91.7917
91.8232
91.8451
91.87
91.8864
91.9085
91.9311
91.9515
91.9852
92.0106
92.0518
92.0954
92.142
92.2088
92.2727
92.3559
92.4539
92.5555
92.69
92.826
92.9926
93.1766
93.3767
93.6042
93.839
94.0901
94.3416
94.5828
94.8014
94.993
95.143
95.2522
95.2965
95.2183
94.9843
94.5709
94.1471
94.0896
94.7963
96.1583
97.3376
63.556
63.4017
62.7909
60.1181
55.0403
48.8377
44.762
44.6961
47.5687
50.425
52.0062
51.8224
49.5887
45.069
40.2671
36.7307
36.4649
38.831
42.7103
47.708
53.0377
58.0088
63.1686
68.4216
73.0793
77.3048
80.7375
83.1375
84.8491
85.7412
86.0371
85.8673
85.4325
84.9272
84.5391
84.417
84.6278
85.1395
85.8497
86.6308
87.3839
88.0583
88.6397
89.1295
89.5445
89.8938
90.1923
90.4455
90.665
90.8528
91.0177
91.1611
91.287
91.3998
91.4954
91.583
91.6515
91.7133
91.7588
91.7952
91.8265
91.8445
91.871
91.883
91.9075
91.9263
91.9478
91.9796
92.0043
92.0439
92.087
92.1296
92.1999
92.2543
92.3444
92.4301
92.5353
92.662
92.7937
92.9575
93.1318
93.3291
93.5446
93.7763
94.0149
94.2685
94.5009
94.7293
94.926
95.0917
95.2182
95.2682
95.2013
94.9472
94.5019
93.9886
93.8816
94.5311
95.9242
97.1417
63.1495
62.9574
62.1993
59.1697
53.4654
46.7259
42.4556
43.0831
47.5311
51.007
52.3603
51.2671
47.3334
41.2945
36.2623
33.381
33.6507
37.0924
41.6
46.9991
52.5121
57.6238
62.8915
68.2536
73.0487
77.2678
80.6967
83.0656
84.6841
85.5338
85.7786
85.5678
85.0991
84.571
84.1743
84.0699
84.333
84.9255
85.7237
86.5799
87.3858
88.0909
88.6869
89.1835
89.5961
89.9398
90.2316
90.477
90.6902
90.8715
91.0324
91.172
91.2967
91.4085
91.5042
91.5927
91.6601
91.7237
91.7648
91.8038
91.8278
91.8482
91.8678
91.8808
91.9026
91.9199
91.9425
91.9709
91.9954
92.0346
92.0704
92.1194
92.1743
92.2393
92.3127
92.4042
92.4994
92.6204
92.7502
92.8991
93.0701
93.2482
93.4589
93.666
93.9037
94.1304
94.367
94.5823
94.7904
94.9608
95.0975
95.1628
95.0982
94.8536
94.3812
93.8632
93.723
94.4104
95.8609
97.1145
62.7212
62.4987
61.6158
58.2997
51.9737
44.6421
40.1776
41.5743
47.1425
50.8539
52.0216
49.9357
44.124
37.3202
31.8305
29.6924
30.5021
35.0242
40.3635
46.1454
51.8716
57.1388
62.5427
68.0371
73.0132
77.2377
80.6026
82.9158
84.4158
85.1995
85.3881
85.142
84.653
84.112
83.7129
83.6352
83.9649
84.6567
85.5626
86.5106
87.3808
88.1235
88.738
89.2405
89.6531
89.9918
90.2769
90.5141
90.7204
90.8941
91.0508
91.1853
91.3094
91.419
91.5162
91.6043
91.6724
91.7351
91.7745
91.8108
91.832
91.8492
91.8675
91.8767
91.8999
91.9117
91.9369
91.9604
91.9845
92.0226
92.0533
92.1023
92.153
92.2118
92.2874
92.3636
92.4635
92.5708
92.692
92.8367
92.9845
93.1595
93.3423
93.5422
93.7479
93.9679
94.1706
94.3897
94.5717
94.7524
94.884
94.9597
94.9133
94.6863
94.2723
93.8001
93.7469
94.4998
95.9856
97.3142
62.3025
62.0482
61.0876
57.6113
50.8114
42.9882
38.5984
40.5462
46.4358
50.0257
50.9242
47.7485
40.3379
33.3195
27.3625
25.4951
27.1192
32.5788
39.0039
45.2236
51.1052
56.4663
62.0465
67.7416
72.8885
77.1311
80.3883
82.5994
83.9651
84.6609
84.7913
84.5154
84.0356
83.5236
83.1525
83.1187
83.5316
84.3446
85.3804
86.4361
87.3787
88.1624
88.7972
89.3063
89.7184
90.0513
90.329
90.5567
90.7554
90.9202
91.0723
91.2008
91.3242
91.4315
91.5304
91.6188
91.6868
91.751
91.7848
91.8241
91.8344
91.8554
91.8634
91.8742
91.895
91.9022
91.9352
91.9439
91.9806
92.0013
92.0395
92.0826
92.1259
92.1906
92.2501
92.3305
92.4183
92.5157
92.6357
92.7602
92.9002
93.0599
93.2212
93.4051
93.5884
93.7776
93.9687
94.1462
94.3268
94.4669
94.6135
94.6645
94.6456
94.4809
94.162
93.8668
93.9441
94.8238
96.3414
97.7079
61.9053
61.6254
60.6119
57.133
50.145
42.0189
37.8447
40.1086
45.6749
48.9168
49.2922
45.0614
36.6272
29.2652
23.2572
21.1742
23.7077
29.9614
37.4816
44.212
50.2089
55.6376
61.4114
67.3619
72.668
76.8899
79.9747
82.0189
83.2412
83.8265
83.8951
83.621
83.194
82.7605
82.4694
82.5222
83.0428
83.9977
85.1863
86.3666
87.3889
88.2148
88.8688
89.3832
89.7934
90.1191
90.3883
90.6048
90.7951
90.9493
91.0968
91.2174
91.3416
91.4446
91.5478
91.6344
91.7053
91.7676
91.799
91.8352
91.8389
91.8587
91.8595
91.8728
91.8866
91.8973
91.9224
91.9362
91.9628
91.9907
92.0177
92.0656
92.1009
92.1619
92.2173
92.2883
92.3746
92.4586
92.5725
92.6809
92.8154
92.9478
93.107
93.2512
93.4292
93.5803
93.7514
93.9082
94.0439
94.1846
94.2708
94.3511
94.3199
94.2338
94.06
93.977
94.2971
95.3408
96.9472
98.2897
61.5306
61.2374
60.2264
56.8148
50.0102
41.8869
37.8869
40.1839
45.1209
47.8731
47.4334
42.1424
33.4201
25.2034
19.3648
16.8775
20.1235
27.3474
35.8713
43.0889
49.1494
54.6027
60.6133
66.9092
72.3695
76.4909
79.3115
81.0668
82.0976
82.587
82.5971
82.3391
82.0357
81.7774
81.6496
81.8382
82.5071
83.6268
84.9891
86.3105
87.4188
88.286
88.9561
89.473
89.8793
90.1957
90.455
90.6585
90.8394
90.9811
91.1239
91.2349
91.3608
91.4583
91.5677
91.6517
91.7272
91.7871
91.8159
91.8504
91.8439
91.865
91.8546
91.87
91.8796
91.8881
91.9194
91.9189
91.9604
91.9657
92.0072
92.0388
92.0743
92.1364
92.1761
92.2542
92.3195
92.4028
92.5038
92.6045
92.7147
92.8528
92.9642
93.1221
93.2431
93.3998
93.5189
93.666
93.764
93.8662
93.9507
93.9816
94.0038
93.9529
93.9345
94.074
94.6425
95.8605
97.5553
99.1778
61.1707
60.8753
59.8727
56.6479
50.3279
42.6191
38.8048
40.7759
45.0171
47.2431
45.7934
39.1863
30.5762
21.5435
15.5318
12.9183
16.8111
25.1139
34.3775
41.9452
47.9355
53.3843
59.5886
66.2655
71.8864
75.8297
78.2907
79.6758
80.4315
80.7612
80.7416
80.5702
80.4556
80.442
80.5895
81.0464
81.935
83.2521
84.8016
86.275
87.4731
88.3793
89.0616
89.5771
89.9765
90.2813
90.529
90.7174
90.8882
91.015
91.1533
91.252
91.3818
91.471
91.5909
91.6691
91.7543
91.8074
91.8382
91.8648
91.8521
91.8682
91.849
91.8679
91.8678
91.8841
91.9041
91.9122
91.9415
91.9516
91.9848
92.0137
92.0507
92.1007
92.1428
92.2101
92.2687
92.3428
92.435
92.5159
92.6325
92.7269
92.8504
92.9595
93.0841
93.1895
93.3115
93.3979
93.4906
93.551
93.6015
93.6371
93.6359
93.6725
93.7561
94.0864
94.8705
96.3082
98.2563
99.288
60.8039
60.5076
59.5101
56.577
51.0325
44.1329
40.6917
42.1576
45.7278
47.334
44.7763
36.6719
28.0854
18.7919
12.2857
9.81173
14.1238
23.3016
33.1038
40.8648
46.7219
52.1014
58.4199
65.3996
71.0947
74.7761
76.7797
77.6704
78.1505
78.339
78.238
78.1619
78.3358
78.6879
79.2492
80.1083
81.3277
82.8928
84.6437
86.2703
87.556
88.4963
89.1857
89.6955
90.0851
90.3756
90.6101
90.7813
90.9409
91.0505
91.1845
91.268
91.4039
91.4817
91.6168
91.6861
91.7866
91.8287
91.8659
91.8798
91.8638
91.8736
91.8443
91.865
91.8548
91.8794
91.8915
91.9019
91.929
91.93
91.9688
91.9837
92.0267
92.0677
92.1044
92.167
92.2124
92.2881
92.3585
92.438
92.5299
92.6165
92.7189
92.8075
92.9105
92.9938
93.0818
93.1501
93.1961
93.2494
93.2513
93.2701
93.2817
93.3157
93.5258
93.9655
94.933
96.3864
98.3655
100.327
60.4171
60.0956
59.0928
56.5445
52.0363
46.3822
43.5589
44.625
47.4776
48.3067
44.5026
35.0202
26.2791
17.1302
10.095
7.78128
12.1435
21.9173
31.9827
39.8442
45.4976
50.7642
57.1488
64.3102
69.9304
73.2152
74.7822
75.1134
75.1554
75.1898
75.0819
75.156
75.6216
76.4237
77.5496
78.9836
80.6723
82.5659
84.536
86.3074
87.6711
88.6369
89.3272
89.8273
90.2043
90.478
90.6977
90.8495
90.9972
91.0867
91.2169
91.2813
91.4263
91.4885
91.645
91.7009
91.8245
91.8494
91.9003
91.8923
91.8809
91.8705
91.8444
91.8538
91.8474
91.8711
91.8799
91.8962
91.9084
91.9187
91.9398
91.9612
91.9986
92.0302
92.0706
92.1167
92.1592
92.2272
92.2831
92.3608
92.4232
92.5083
92.5788
92.6632
92.7319
92.793
92.8599
92.8849
92.9214
92.9183
92.9203
92.8875
92.8886
92.9539
93.1865
93.7195
94.7486
96.4728
98.3871
99.6926
60.0026
59.6162
58.5944
56.4985
53.2214
49.2337
47.32
48.2962
50.5384
50.3312
44.897
34.454
25.3199
16.3829
8.99889
6.91602
11.1188
21.0844
31.2247
38.9544
44.2711
49.36
55.7408
62.9255
68.3537
71.1466
72.3189
72.2162
71.7868
71.5279
71.308
71.5384
72.3775
73.6957
75.4924
77.6451
79.94
82.2595
84.4892
86.3975
87.8211
88.8006
89.4846
89.9706
90.3328
90.5874
90.7911
90.9214
91.0565
91.1229
91.2495
91.2904
91.4474
91.4888
91.6736
91.7104
91.8662
91.8678
91.9401
91.9024
91.9006
91.8631
91.8457
91.8386
91.8421
91.8606
91.8716
91.8869
91.8942
91.8977
91.9188
91.9307
91.9714
91.9948
92.0326
92.0657
92.107
92.157
92.2152
92.2727
92.328
92.3866
92.4522
92.5072
92.5556
92.5981
92.6268
92.635
92.6259
92.6092
92.5461
92.5203
92.473
92.5348
92.778
93.316
94.3678
95.835
97.9497
99.696
59.5631
59.065
58.018
56.3892
54.4484
52.4434
51.7994
53.0057
54.7808
53.5675
46.0584
34.99
25.1635
16.5381
8.78158
6.9878
11.0716
20.9003
30.9245
38.3389
43.2796
48.2046
54.4191
61.3574
66.5199
68.78
69.478
69.0033
68.15
67.6062
67.2251
67.5267
68.6985
70.5504
73.0858
76.0847
79.118
81.9568
84.492
86.537
88.0021
88.9819
89.6532
90.1221
90.4679
90.7022
90.8893
90.9963
91.1182
91.1584
91.2814
91.2936
91.4652
91.479
91.6992
91.7121
91.9085
91.8825
91.982
91.9094
91.9221
91.8494
91.8486
91.8131
91.841
91.8393
91.871
91.8703
91.88
91.8803
91.8852
91.9099
91.9355
91.9627
91.9921
92.0159
92.0471
92.0927
92.1369
92.1915
92.2249
92.2727
92.3208
92.3518
92.3828
92.3971
92.4017
92.38
92.3376
92.2711
92.2043
92.1068
92.0739
92.0627
92.2764
92.7606
93.7339
95.2464
97.0248
98.5874
59.1103
58.4481
57.3511
56.1646
55.5818
55.6803
56.6715
58.5084
59.9102
57.6835
47.9511
36.2106
25.8333
17.523
9.62984
7.88037
11.8716
21.2694
30.9765
38.0287
42.7214
47.5903
53.4821
59.8171
64.5945
66.422
66.5287
65.6208
64.2126
63.2403
62.7957
63.2812
64.8103
67.1372
70.4339
74.358
78.1901
81.6047
84.5025
86.7089
88.2083
89.1768
89.8293
90.2786
90.6075
90.8209
90.9911
91.0734
91.1817
91.1924
91.3112
91.2886
91.4762
91.4545
91.7172
91.6992
91.9478
91.888
92.025
91.9101
91.9449
91.8276
91.8542
91.7771
91.8465
91.8072
91.8837
91.839
91.882
91.8381
91.8715
91.8674
91.9135
91.9243
91.9556
91.9593
91.9937
92.0154
92.0669
92.1077
92.1143
92.1672
92.178
92.2034
92.2069
92.1987
92.1802
92.1157
92.0489
91.9449
91.829
91.7059
91.5798
91.5603
91.6809
92.0839
92.8767
94.0839
95.7544