/*--------------------------------*- C++ -*----------------------------------*\
| =========                 |                                                 |
| \\      /  F ield         | OpenFOAM: The Open Source CFD Toolbox           |
|  \\    /   O peration     | Version:  2.4.0                                 |
|   \\  /    A nd           | Web:      www.OpenFOAM.org                      |
|    \\/     M anipulation  |                                                 |
\*---------------------------------------------------------------------------*/
FoamFile
{
    version     2.0;
    format      ascii;
    class       volScalarField;
    location    "0.02";
    object      p;
}
// * * * * * * * * * * * * * * * * * * * * * * * * * * * * * * * * * * * * * //

dimensions      [0 2 -2 0 0 0 0];

internalField   nonuniform List<scalar> 
17600
(
34.4606
33.6977
33.4188
33.2387
33.0479
32.8545
32.6656
32.4804
32.2985
32.1201
31.9462
31.777
31.6141
31.4582
31.3122
31.1809
31.0727
31.0063
31.0203
31.1838
33.9131
33.511
33.333
33.1935
33.0238
32.8416
32.6586
32.4767
32.2968
32.1195
31.9463
31.7776
31.615
31.4593
31.3135
31.1822
31.0738
31.0068
31.0194
31.1401
33.8762
33.5873
33.3869
33.2246
33.0428
32.8534
32.6661
32.4815
32.3001
32.122
31.9484
31.7795
31.6169
31.4611
31.3152
31.1837
31.0745
31.0058
31.013
31.1125
33.8532
33.5923
33.38
33.2135
33.0341
32.8475
32.6622
32.4793
32.2989
32.1216
31.9484
31.7798
31.6173
31.4614
31.3152
31.183
31.0726
31.0011
31.0002
31.0799
33.8208
33.5857
33.3762
33.21
33.0327
32.8474
32.6627
32.48
32.2998
32.1225
31.9492
31.7805
31.6179
31.4618
31.3151
31.1821
31.0701
30.9949
30.9844
31.0451
33.7877
33.579
33.3747
33.2079
33.0315
32.8469
32.6626
32.4801
32.3
32.1228
31.9496
31.7809
31.6181
31.4618
31.3146
31.1807
31.0666
30.9874
30.9666
31.0088
33.7583
33.5731
33.3736
33.206
33.0303
32.8465
32.6626
32.4803
32.3003
32.1232
31.9501
31.7813
31.6184
31.4617
31.3139
31.1789
31.0626
30.9789
30.9472
30.9712
33.7325
33.5669
33.3724
33.2041
33.0291
32.8461
32.6626
32.4806
32.3007
32.1237
31.9505
31.7817
31.6186
31.4615
31.3131
31.1768
31.0581
30.9694
30.9265
30.9328
33.7095
33.5606
33.371
33.2023
33.0281
32.8458
32.6627
32.4808
32.3012
32.1242
31.951
31.782
31.6187
31.4613
31.3121
31.1744
31.0531
30.9593
30.9049
30.894
33.6892
33.5543
33.3695
33.2007
33.0271
32.8456
32.6628
32.4811
32.3016
32.1246
31.9514
31.7823
31.6188
31.4609
31.311
31.1718
31.0477
30.9486
30.8826
30.8549
33.6713
33.5483
33.368
33.1993
33.0262
32.8453
32.6629
32.4814
32.3019
32.125
31.9518
31.7826
31.6188
31.4605
31.3097
31.1689
31.0419
30.9374
30.8599
30.8159
33.6556
33.5425
33.3666
33.198
33.0254
32.8451
32.663
32.4816
32.3023
32.1254
31.9521
31.7828
31.6188
31.4599
31.3082
31.1659
31.0358
30.9258
30.8368
30.7771
33.642
33.5373
33.3652
33.1968
33.0247
32.8449
32.663
32.4818
32.3026
32.1257
31.9524
31.7829
31.6186
31.4593
31.3066
31.1626
31.0295
30.9138
30.8136
30.7387
33.6303
33.5325
33.364
33.1957
33.024
32.8447
32.6631
32.482
32.3028
32.126
31.9526
31.783
31.6184
31.4585
31.3049
31.1592
31.0229
30.9016
30.7904
30.7009
33.6205
33.5283
33.3628
33.1948
33.0235
32.8445
32.6631
32.4822
32.303
32.1262
31.9527
31.7829
31.6181
31.4576
31.303
31.1556
31.0161
30.8892
30.7672
30.6638
33.6125
33.5247
33.3618
33.1941
33.023
32.8444
32.6631
32.4823
32.3031
32.1263
31.9528
31.7828
31.6177
31.4567
31.3011
31.1518
31.0091
30.8766
30.7442
30.6274
33.6061
33.5218
33.361
33.1935
33.0226
32.8442
32.6631
32.4823
32.3032
32.1264
31.9528
31.7827
31.6172
31.4556
31.299
31.1479
31.002
30.864
30.7216
30.5919
33.6014
33.5196
33.3604
33.193
33.0223
32.8441
32.6631
32.4824
32.3033
32.1264
31.9527
31.7824
31.6166
31.4545
31.2968
31.144
30.9948
30.8514
30.6993
30.5573
33.5983
33.5181
33.3599
33.1927
33.0221
32.8441
32.6631
32.4824
32.3033
32.1264
31.9526
31.7821
31.616
31.4533
31.2946
31.1399
30.9876
30.8388
30.6774
30.5237
33.5967
33.5174
33.3597
33.1926
33.022
32.844
32.6631
32.4824
32.3033
32.1263
31.9524
31.7818
31.6153
31.452
31.2923
31.1358
30.9804
30.8264
30.656
30.4912
33.5967
33.5174
33.3597
33.1926
33.022
32.844
32.6631
32.4823
32.3032
32.1262
31.9522
31.7813
31.6145
31.4506
31.2899
31.1317
30.9732
30.8141
30.6352
30.4597
33.5983
33.5181
33.3599
33.1927
33.0221
32.844
32.6631
32.4823
32.3031
32.126
31.9519
31.7809
31.6137
31.4492
31.2875
31.1275
30.966
30.802
30.615
30.4293
33.6014
33.5196
33.3604
33.193
33.0223
32.8441
32.663
32.4822
32.3029
32.1257
31.9515
31.7803
31.6128
31.4478
31.2851
31.1234
30.959
30.7902
30.5955
30.4001
33.6061
33.5218
33.361
33.1935
33.0225
32.8441
32.663
32.482
32.3027
32.1254
31.9511
31.7797
31.6119
31.4463
31.2826
31.1193
30.952
30.7787
30.5767
30.372
33.6125
33.5247
33.3618
33.194
33.0229
32.8442
32.6629
32.4819
32.3025
32.1251
31.9507
31.7791
31.6109
31.4448
31.2802
31.1152
30.9453
30.7675
30.5586
30.345
33.6205
33.5282
33.3628
33.1948
33.0234
32.8444
32.6628
32.4817
32.3022
32.1247
31.9501
31.7783
31.6099
31.4432
31.2777
31.1112
30.9386
30.7567
30.5413
30.3192
33.6303
33.5324
33.3639
33.1957
33.0239
32.8445
32.6627
32.4815
32.3018
32.1242
31.9496
31.7776
31.6088
31.4417
31.2752
31.1073
30.9322
30.7463
30.5248
30.2945
33.642
33.5372
33.3652
33.1967
33.0246
32.8447
32.6627
32.4812
32.3014
32.1238
31.9489
31.7768
31.6077
31.4401
31.2728
31.1034
30.926
30.7362
30.5092
30.2709
33.6556
33.5425
33.3665
33.1979
33.0253
32.8449
32.6626
32.4809
32.301
32.1232
31.9483
31.776
31.6066
31.4385
31.2705
31.0997
30.9201
30.7267
30.4945
30.2485
33.6712
33.5482
33.368
33.1992
33.0261
32.8451
32.6624
32.4806
32.3006
32.1227
31.9476
31.7751
31.6055
31.437
31.2681
31.0961
30.9144
30.7177
30.4807
30.2272
33.6892
33.5543
33.3694
33.2006
33.027
32.8453
32.6623
32.4803
32.3001
32.122
31.9468
31.7742
31.6043
31.4354
31.2659
31.0927
30.909
30.7092
30.4678
30.207
33.7095
33.5606
33.3709
33.2022
33.0279
32.8456
32.6622
32.48
32.2996
32.1214
31.946
31.7733
31.6032
31.4339
31.2637
31.0895
30.904
30.7013
30.456
30.1879
33.7324
33.5669
33.3723
33.204
33.0289
32.8458
32.6621
32.4796
32.2991
32.1208
31.9453
31.7724
31.6021
31.4325
31.2617
31.0865
30.8994
30.694
30.4452
30.1699
33.7583
33.573
33.3736
33.2058
33.0301
32.8462
32.662
32.4793
32.2986
32.1201
31.9445
31.7715
31.601
31.4311
31.2598
31.0837
30.8952
30.6875
30.4356
30.153
33.7876
33.5789
33.3746
33.2077
33.0312
32.8466
32.662
32.4791
32.2981
32.1196
31.9439
31.7708
31.6
31.4299
31.2581
31.0812
30.8915
30.6816
30.4271
30.1374
33.8208
33.5856
33.3761
33.2099
33.0325
32.847
32.6621
32.4789
32.2978
32.1191
31.9433
31.77
31.5991
31.4287
31.2566
31.079
30.8882
30.6765
30.4197
30.1229
33.8532
33.5922
33.3799
33.2133
33.0339
32.8471
32.6616
32.4782
32.297
32.1182
31.9423
31.769
31.598
31.4274
31.2549
31.0768
30.8851
30.6719
30.4132
30.1097
33.8761
33.5872
33.3868
33.2244
33.0426
32.8531
32.6654
32.4804
32.2981
32.1185
31.9421
31.7685
31.5972
31.4264
31.2536
31.075
30.8826
30.6682
30.4079
30.0986
33.9131
33.511
33.3329
33.1933
33.0236
32.8412
32.658
32.4756
32.2947
32.116
31.9399
31.7664
31.595
31.424
31.2509
31.0719
30.8789
30.6636
30.4025
30.0896
34.4605
33.6977
33.4187
33.2386
33.0477
32.8541
32.6649
32.4792
32.2964
32.1166
31.9398
31.7658
31.594
31.4227
31.2494
31.0701
30.8769
30.6613
30.3999
30.0858
31.6351
31.8456
31.7731
31.6758
31.5494
31.3563
31.0944
30.7716
30.3958
29.9744
29.5147
29.0239
28.5091
27.9763
27.4312
26.8782
26.3215
25.7641
25.209
24.6584
24.1144
23.5789
23.0534
22.5395
22.0384
21.5513
21.0793
20.6233
20.184
19.7622
19.3583
18.9728
18.6061
18.2585
17.9301
17.621
17.3313
17.0604
16.8077
16.5765
16.3714
16.1946
16.0459
15.9272
15.8405
15.7885
15.7739
15.8
15.8703
15.9889
16.1601
16.389
16.6806
17.0403
17.4736
17.986
18.5824
19.2675
20.0446
20.9161
21.8824
22.9421
24.0915
25.3241
26.631
28.0011
29.4205
30.8744
32.3464
33.8204
35.2806
36.7125
38.1032
39.442
40.7205
41.9323
43.0732
44.1407
45.1339
46.0531
46.9
47.6768
48.3864
49.0323
49.6182
50.1476
50.6247
51.0531
51.4368
51.7792
52.084
52.3545
52.5941
52.8056
52.9921
53.1562
53.3004
53.427
53.5384
53.6363
53.7228
53.7993
53.8675
53.9287
53.9841
54.0348
54.0818
54.1257
54.1675
54.2075
54.2465
54.2846
54.3224
54.36
54.3976
54.4353
54.4733
54.5115
54.5497
54.5878
54.6257
54.6632
54.7004
54.7369
54.7728
54.8077
54.8417
54.8745
54.906
54.9361
54.9646
54.9916
55.0168
55.0401
55.0617
55.0813
55.0991
55.115
55.1291
55.1413
55.1517
55.1605
55.1677
55.1733
55.1775
55.1803
55.1817
55.182
55.1811
55.179
55.1758
55.1715
55.166
55.1595
55.1517
55.1428
55.1325
55.1209
55.1077
55.093
55.0765
55.0581
55.0375
55.0145
54.9889
54.9602
54.9283
54.8926
54.8527
54.8081
54.7581
54.7021
54.6393
54.5687
54.4895
54.4004
54.3001
54.187
54.0596
53.9156
53.7528
53.5684
53.3591
53.121
52.8494
52.5383
52.1804
51.7663
51.2838
50.7166
50.0424
49.2299
48.2343
46.9856
45.3836
43.2164
40.2679
35.4194
28.8428
5.84781
31.5293
31.6633
31.6346
31.5836
31.4935
31.326
31.0801
30.7663
30.3949
29.9757
29.5181
29.0306
28.5206
27.9941
27.4562
26.9111
26.3624
25.813
25.2656
24.7223
24.185
23.6555
23.1351
22.6254
22.1275
21.6428
21.1722
20.7167
20.2774
19.8548
19.4497
19.0628
18.6943
18.3448
18.0144
17.7034
17.4119
17.1389
16.8841
16.6527
16.4487
16.2724
16.1248
16.0076
15.9232
15.8743
15.8635
15.8943
15.9703
16.0956
16.2747
16.5123
16.8138
17.1843
17.6293
18.1541
18.7634
19.4614
20.2512
21.1344
22.1111
23.1792
24.3341
25.5688
26.8739
28.2376
29.6462
31.0847
32.5372
33.9883
35.4228
36.8273
38.1899
39.5008
40.7523
41.9387
43.0561
44.1023
45.0764
45.9791
46.8117
47.5765
48.2763
48.9142
49.4939
50.0188
50.4926
50.919
51.3015
51.6437
51.949
52.2207
52.4618
52.6753
52.8641
53.0308
53.1779
53.3076
53.4221
53.5233
53.6131
53.6931
53.7649
53.8296
53.8886
53.9429
53.9934
54.0409
54.0862
54.1298
54.1723
54.214
54.2552
54.2962
54.3371
54.3781
54.4194
54.4607
54.5019
54.5429
54.5836
54.6239
54.6636
54.7026
54.7409
54.7781
54.8142
54.849
54.8825
54.9143
54.9446
54.973
54.9997
55.0244
55.0471
55.0678
55.0866
55.1033
55.118
55.1308
55.1417
55.1508
55.1581
55.1637
55.1678
55.1703
55.1714
55.171
55.1694
55.1664
55.1622
55.1567
55.1499
55.1418
55.1324
55.1216
55.1093
55.0954
55.0799
55.0625
55.0432
55.0216
54.9976
54.971
54.9413
54.9084
54.8718
54.831
54.7856
54.735
54.6785
54.6154
54.5449
54.4659
54.3775
54.2784
54.1671
54.0421
53.9013
53.7427
53.5637
53.3612
53.1317
52.8709
52.5734
52.2328
51.8409
51.3872
50.8579
50.2345
49.492
48.5944
47.4902
46.0985
44.3011
41.8503
38.4647
32.8525
24.8344
3.15938
31.456
31.5885
31.5699
31.5067
31.4046
31.2365
30.9988
30.6985
30.3427
29.9387
29.4944
29.0181
28.5173
27.9987
27.4681
26.9302
26.3889
25.847
25.3072
24.7715
24.2415
23.7189
23.2051
22.7011
22.2084
21.7279
21.2607
20.8079
20.3703
19.9488
19.5442
19.1572
18.7883
18.438
18.1068
17.7949
17.5023
17.2281
16.973
16.7426
16.5398
16.3648
16.2189
16.1042
16.0231
15.9781
15.9722
16.0088
16.0917
16.2249
16.4129
16.6607
16.9732
17.3558
17.8137
18.3519
18.975
19.6866
20.4893
21.3844
22.371
23.4464
24.6054
25.8403
27.1412
28.4961
29.8911
31.3114
32.7418
34.1676
35.5746
36.9503
38.2838
39.5661
40.7903
41.9509
43.0446
44.0692
45.0242
45.9101
46.7283
47.481
48.1707
48.8006
49.3739
49.8939
50.3641
50.7881
51.1692
51.5109
51.8163
52.0887
52.331
52.5463
52.7371
52.9061
53.0557
53.1881
53.3056
53.4099
53.5029
53.5862
53.6613
53.7294
53.7919
53.8497
53.9037
53.9548
54.0036
54.0508
54.0968
54.142
54.1867
54.2311
54.2755
54.3198
54.3644
54.4088
54.4531
54.4971
54.5407
54.5838
54.6262
54.6678
54.7085
54.7481
54.7864
54.8233
54.8587
54.8924
54.9244
54.9544
54.9825
55.0086
55.0325
55.0543
55.074
55.0916
55.1071
55.1204
55.1318
55.1412
55.1487
55.1543
55.1582
55.1605
55.1612
55.1603
55.1579
55.154
55.1488
55.1421
55.1339
55.1243
55.1132
55.1006
55.0862
55.0701
55.0522
55.0321
55.0099
54.9852
54.9578
54.9274
54.8938
54.8565
54.8152
54.7693
54.7183
54.6616
54.5986
54.5284
54.4501
54.3627
54.2651
54.1559
54.0335
53.8963
53.7422
53.5688
53.3734
53.1527
52.9028
52.619
52.2955
51.9251
51.499
51.0053
50.4291
49.7497
48.9393
47.9578
46.7479
45.2191
43.2388
40.5361
36.7884
30.7258
22.0268
4.1706
31.3591
31.4665
31.4394
31.3637
31.2543
31.0889
30.8608
30.5746
30.2363
29.8519
29.4279
28.971
28.4878
27.9846
27.4669
26.9398
26.4075
25.8736
25.3412
24.8124
24.2893
23.7735
23.2661
22.7684
22.2815
21.8064
21.344
20.8953
20.4611
20.0424
19.6399
19.2544
18.8865
18.537
18.2062
17.8946
17.6023
17.3283
17.0746
16.8463
16.6453
16.4725
16.3294
16.2182
16.1413
16.1014
16.1015
16.1451
16.236
16.3783
16.5766
16.8356
17.1605
17.5563
18.0281
18.5807
19.2181
19.9436
20.7593
21.6657
22.6613
23.7426
24.9038
26.1366
27.4306
28.7736
30.152
31.5514
32.9573
34.3558
35.7338
37.0797
38.3834
39.6368
40.8332
41.9679
43.0377
44.0407
44.9765
45.8457
46.6495
47.39
48.0697
48.6913
49.258
49.7729
50.2393
50.6606
51.04
51.3807
51.6859
51.9586
52.2019
52.4184
52.6109
52.7819
52.9338
53.0688
53.1889
53.2961
53.3921
53.4785
53.5568
53.6283
53.6941
53.7553
53.8128
53.8674
53.9198
53.9705
54.02
54.0688
54.117
54.1649
54.2127
54.2605
54.3083
54.356
54.4035
54.4505
54.497
54.543
54.5881
54.6324
54.6756
54.7176
54.7582
54.7973
54.8347
54.8703
54.9041
54.9357
54.9654
54.9928
55.018
55.0409
55.0616
55.0801
55.0962
55.1102
55.122
55.1317
55.1394
55.1451
55.149
55.151
55.1512
55.1497
55.1467
55.1419
55.1356
55.1278
55.1183
55.1072
55.0944
55.0798
55.0634
55.0451
55.0246
55.0019
54.9768
54.9489
54.9181
54.884
54.8463
54.8047
54.7586
54.7075
54.651
54.5883
54.5186
54.4413
54.3552
54.2593
54.1524
54.033
53.8995
53.7501
53.5825
53.3943
53.1824
52.9434
52.6729
52.366
52.0163
51.6162
51.1557
50.6223
49.9994
49.2646
48.3874
47.3245
46.0132
44.3561
42.2098
39.2935
35.2641
28.9807
19.9068
4.18238
31.2628
31.3428
31.3111
31.2299
31.1146
30.9481
30.7235
30.4445
30.1165
29.745
29.336
28.8955
28.4296
27.9436
27.4426
26.9309
26.4124
25.8906
25.3684
24.8486
24.3333
23.8244
23.3234
22.8318
22.3507
21.8811
21.4239
20.98
20.5502
20.1354
19.7363
19.3537
18.9883
18.6409
18.3119
18.002
17.7114
17.4399
17.1892
16.9637
16.7656
16.5962
16.4571
16.3506
16.2791
16.2455
16.2528
16.3047
16.4048
16.5575
16.7672
17.0388
17.3772
17.7872
18.2738
18.8412
19.4933
20.2327
21.0608
21.9775
22.9806
24.0658
25.2267
26.4544
27.7384
29.0666
30.4255
31.8015
33.1808
34.5505
35.8983
37.2137
38.4872
39.7112
40.8798
41.9885
43.0345
44.0161
44.9329
45.7855
46.5751
47.3035
47.973
48.5863
49.1463
49.6559
50.1182
50.5364
50.9137
51.2532
51.5578
51.8305
52.0743
52.2919
52.4857
52.6585
52.8123
52.9496
53.0721
53.182
53.2808
53.3702
53.4516
53.5262
53.5953
53.6599
53.7208
53.7789
53.8348
53.889
53.9421
53.9943
54.0461
54.0975
54.1488
54.2001
54.2513
54.3023
54.3529
54.4031
54.4527
54.5015
54.5495
54.5965
54.6423
54.6868
54.7298
54.7711
54.8106
54.8482
54.8837
54.9171
54.9483
54.9771
55.0036
55.0277
55.0494
55.0687
55.0856
55.1002
55.1125
55.1226
55.1304
55.1362
55.1399
55.1417
55.1415
55.1395
55.1357
55.1301
55.1228
55.1137
55.1029
55.0903
55.0758
55.0593
55.0409
55.0203
54.9974
54.972
54.9439
54.9128
54.8785
54.8407
54.799
54.753
54.7021
54.6459
54.5837
54.5149
54.4387
54.3541
54.2602
54.1558
54.0396
53.91
53.7654
53.6037
53.4227
53.2195
52.9911
52.7337
52.4427
52.1126
51.7368
51.3069
50.8123
50.2395
49.5704
48.7813
47.8394
46.6982
45.2914
43.5166
41.224
38.1334
33.8943
27.5235
18.3104
3.92448
31.1687
31.2214
31.1836
31.0971
30.9754
30.8065
30.5844
30.3116
29.9928
29.6329
29.237
28.8108
28.3596
27.8886
27.4024
26.9053
26.401
25.8927
25.3832
24.875
24.3702
23.8706
23.3779
22.8936
22.419
21.9554
21.5036
21.0648
20.6398
20.2295
19.8346
19.4559
19.0941
18.75
18.4242
18.1174
17.8301
17.5629
17.3169
17.0955
16.9016
16.7369
16.6031
16.5025
16.4378
16.4117
16.4275
16.4889
16.5996
16.7639
16.9863
17.2715
17.6243
18.0494
18.5512
19.1338
19.8004
20.5531
21.3926
22.318
23.3264
24.4129
25.5704
26.7899
28.0607
29.3709
30.7077
32.0581
33.4092
34.7489
36.0659
37.3502
38.5932
39.7879
40.9287
42.0117
43.0343
43.9949
44.8931
45.7294
46.505
47.2214
47.8808
48.4857
49.0388
49.5428
50.0008
50.4157
50.7906
51.1284
51.432
51.7045
51.9485
52.1666
52.3616
52.5357
52.6913
52.8305
52.9553
53.0676
53.169
53.2612
53.3455
53.4233
53.4956
53.5634
53.6277
53.6892
53.7486
53.8063
53.8629
53.9188
53.9741
54.0291
54.084
54.1388
54.1934
54.2477
54.3016
54.355
54.4077
54.4595
54.5104
54.5602
54.6087
54.6557
54.7011
54.7447
54.7864
54.826
54.8634
54.8985
54.9313
54.9616
54.9894
55.0146
55.0374
55.0576
55.0753
55.0905
55.1033
55.1137
55.1217
55.1275
55.1312
55.1327
55.1321
55.1296
55.1251
55.1186
55.1103
55.1
55.0878
55.0737
55.0575
55.0392
55.0186
54.9957
54.9703
54.9422
54.9112
54.877
54.8392
54.7977
54.7519
54.7014
54.6458
54.5844
54.5167
54.4418
54.3589
54.2671
54.1654
54.0524
53.9269
53.7871
53.6314
53.4574
53.2628
53.0448
52.7999
52.524
52.2125
51.8594
51.4576
50.9981
50.4697
49.858
49.1438
48.3018
47.2975
46.0822
44.5867
42.706
40.2878
37.0608
32.6776
26.3115
17.1922
4.01599
31.0782
31.1057
31.0609
30.9699
30.8429
30.6718
30.4517
30.1844
29.8736
29.5237
29.1394
28.7259
28.288
27.8306
27.3579
26.8741
26.3826
25.8866
25.3889
24.892
24.398
23.9087
23.4256
22.9504
22.4841
22.0281
21.5833
21.1509
20.7317
20.3267
19.9367
19.5627
19.2054
18.8656
18.544
18.2414
17.9588
17.6975
17.4579
17.2423
17.0542
16.8956
16.7685
16.6752
16.6185
16.6013
16.627
16.6991
16.8216
16.9988
17.2349
17.5346
17.9025
18.343
18.8603
19.4578
20.1382
20.9029
21.7521
22.6839
23.6948
24.7794
25.9302
27.1381
28.3926
29.6822
30.9947
32.3178
33.6395
34.9485
36.2341
37.4871
38.6997
39.8653
40.9789
42.0368
43.0365
43.9767
44.8568
45.6772
46.439
47.1436
47.793
48.3894
48.9354
49.4337
49.887
50.2983
50.6704
51.0062
51.3086
51.5804
51.8242
52.0427
52.2384
52.4136
52.5706
52.7116
52.8384
52.9529
53.0568
53.1516
53.2387
53.3194
53.3948
53.4659
53.5335
53.5983
53.6612
53.7224
53.7826
53.8421
53.901
53.9596
54.0181
54.0764
54.1346
54.1923
54.2495
54.3061
54.362
54.417
54.4709
54.5235
54.5748
54.6244
54.6723
54.7183
54.7622
54.8038
54.8432
54.8801
54.9144
54.9462
54.9754
55.0018
55.0256
55.0467
55.0652
55.0811
55.0943
55.1051
55.1133
55.1192
55.1228
55.124
55.1231
55.12
55.1148
55.1075
55.0981
55.0867
55.0731
55.0574
55.0395
55.0193
54.9967
54.9716
54.9437
54.9129
54.8789
54.8415
54.8003
54.755
54.7051
54.6503
54.5899
54.5233
54.4499
54.3689
54.2794
54.1805
54.0709
53.9494
53.8146
53.6646
53.4977
53.3115
53.1035
52.8705
52.6091
52.315
51.983
51.607
51.1794
50.6907
50.1291
49.4791
48.721
47.8281
46.7643
45.4796
43.903
41.9289
39.406
36.0775
31.609
25.3187
16.4585
4.40627
30.9915
30.9964
30.944
30.8488
30.7174
30.5445
30.3261
30.0634
29.7597
29.4189
29.0451
28.6431
28.2174
27.7725
27.3125
26.8412
26.362
25.8779
25.3916
24.9055
24.4217
23.9421
23.4684
23.0021
22.5444
22.0966
21.6598
21.235
20.823
20.4249
20.0415
19.6737
19.3223
18.9881
18.6721
18.3752
18.0984
17.8441
17.6126
17.4049
17.2243
17.0733
16.9542
16.8696
16.8222
16.8152
16.852
16.9361
17.0715
17.2624
17.5131
17.8279
18.2113
18.6673
19.1995
19.8111
20.5039
21.2787
22.1349
23.0702
24.0803
25.1595
26.3002
27.4935
28.7289
29.9957
31.2822
32.5769
33.8683
35.1461
36.4002
37.6223
38.805
39.9424
41.0296
42.0633
43.041
43.9614
44.824
45.629
46.3772
47.0701
47.7094
48.2973
48.8362
49.3285
49.7769
50.1842
50.5533
50.8868
51.1876
51.4583
51.7016
51.9201
52.1161
52.2922
52.4504
52.5928
52.7213
52.8379
52.9441
53.0413
53.1311
53.2147
53.2931
53.3672
53.4381
53.5063
53.5726
53.6374
53.7011
53.7642
53.8268
53.889
53.9512
54.0131
54.0748
54.136
54.1966
54.2566
54.3157
54.3738
54.4308
54.4864
54.5405
54.5929
54.6434
54.6917
54.7379
54.7817
54.823
54.8617
54.8978
54.9311
54.9616
54.9893
55.0142
55.0362
55.0555
55.072
55.0857
55.0968
55.1053
55.1113
55.1147
55.1158
55.1144
55.1108
55.1049
55.0967
55.0863
55.0737
55.0588
55.0416
55.022
54.9999
54.9752
54.9478
54.9174
54.8839
54.847
54.8064
54.7617
54.7127
54.6587
54.5995
54.5343
54.4626
54.3836
54.2965
54.2005
54.0943
53.9769
53.8469
53.7028
53.5427
53.3647
53.1663
52.9448
52.6971
52.4193
52.107
51.7547
51.3561
50.903
50.3856
49.7913
49.1043
48.3036
47.3619
46.2421
44.893
43.2433
41.1887
38.5814
35.1828
30.6796
24.5169
16.0096
4.96065
30.9088
30.8932
30.8333
30.7342
30.5991
30.4245
30.2077
29.9494
29.6522
29.3197
28.9556
28.5642
28.1498
27.7164
27.2682
26.8085
26.3408
25.868
25.3927
24.9172
24.4436
23.9737
23.5093
23.0518
22.6026
22.1629
21.734
21.3168
20.9124
20.5217
20.1457
19.7852
19.4411
19.1143
18.8056
18.5162
18.2473
18.0013
17.7796
17.5823
17.4113
17.2696
17.16
17.0854
17.0487
17.0531
17.102
17.1992
17.3484
17.5538
17.8195
18.1496
18.5483
19.0191
19.5653
20.1892
20.8921
21.6744
22.5345
23.4698
24.4757
25.5462
26.6738
27.8498
29.0641
30.3064
31.5658
32.8312
34.0922
35.339
36.5623
37.7544
38.9083
40.0185
41.0805
42.091
43.0477
43.9491
44.7947
45.5846
46.3197
47.001
47.6303
48.2095
48.741
49.2271
49.6704
50.0735
50.4391
50.77
51.0688
51.3381
51.5806
51.7987
51.9949
52.1714
52.3305
52.4741
52.6042
52.7226
52.8308
52.9304
53.0228
53.109
53.1903
53.2676
53.3416
53.4132
53.4829
53.5512
53.6185
53.6852
53.7515
53.8174
53.8832
53.9489
54.0141
54.0788
54.1429
54.2063
54.2688
54.3302
54.3903
54.449
54.506
54.5612
54.6143
54.6652
54.7137
54.7597
54.803
54.8436
54.8814
54.9162
54.9482
54.9771
55.0031
55.0261
55.0462
55.0633
55.0776
55.089
55.0977
55.1037
55.1071
55.1079
55.1062
55.102
55.0954
55.0864
55.075
55.0612
55.0449
55.0262
55.0049
54.981
54.9542
54.9245
54.8917
54.8554
54.8156
54.7718
54.7237
54.6709
54.6129
54.5493
54.4793
54.4025
54.3179
54.2248
54.1221
54.0088
53.8837
53.7452
53.5919
53.4217
53.2326
53.0221
52.7873
52.5249
52.2309
51.9005
51.5283
51.1073
50.6292
50.0836
49.4576
48.7346
47.8932
46.9051
45.7329
44.3249
42.6104
40.4877
37.815
34.374
29.8774
23.878
15.7716
5.61448
30.8299
30.7958
30.7287
30.6259
30.4875
30.3116
30.0962
29.8419
29.5509
29.2261
28.8711
28.4897
28.0858
27.6634
27.2261
26.7774
26.3205
25.8583
25.3933
24.9279
24.464
24.0037
23.5485
23.0999
22.6593
22.228
21.8071
21.3978
21.0011
20.618
20.2495
19.8967
19.5603
19.2414
18.941
18.6602
18.4004
18.164
17.9532
17.768
17.609
17.4791
17.3812
17.3186
17.2943
17.3116
17.374
17.4851
17.6488
17.8691
18.1497
18.4948
18.9078
19.3921
19.9502
20.5841
21.2944
22.0808
22.9417
23.8737
24.8723
25.9315
27.0437
28.2004
29.3923
30.6093
31.8411
33.0776
34.3087
35.5255
36.7193
37.8827
39.0093
40.0938
41.1319
42.1203
43.0568
43.9399
44.7691
45.5443
46.2663
46.9362
47.5555
48.126
48.65
49.1297
49.5675
49.9661
50.328
50.6558
50.9522
51.2198
51.4611
51.6786
51.8745
52.0513
52.211
52.3556
52.487
52.607
52.7171
52.8189
52.9137
53.0026
53.0867
53.1669
53.2441
53.3189
53.392
53.4638
53.5348
53.6051
53.6751
53.7448
53.8144
53.8837
53.9525
54.0209
54.0885
54.1554
54.2213
54.2861
54.3495
54.4113
54.4713
54.5293
54.5851
54.6386
54.6895
54.7377
54.7832
54.8257
54.8653
54.9017
54.9351
54.9653
54.9924
55.0164
55.0373
55.0551
55.0699
55.0817
55.0906
55.0966
55.0999
55.1005
55.0984
55.0937
55.0864
55.0765
55.0641
55.0491
55.0315
55.0113
54.9883
54.9625
54.9337
54.9017
54.8664
54.8275
54.7847
54.7377
54.6862
54.6297
54.5677
54.4997
54.425
54.343
54.2529
54.1538
54.0446
53.9242
53.7913
53.6445
53.482
53.3018
53.1017
52.8792
52.6313
52.3543
52.0443
51.6962
51.3042
50.8613
50.3587
49.7857
49.1289
48.3713
47.491
46.4593
45.2384
43.7772
42.0061
39.8273
37.1067
33.6471
29.1897
23.377
15.6918
6.33219
30.7546
30.704
30.63
30.5235
30.3823
30.2053
29.9913
29.7407
29.4553
29.1377
28.7912
28.4192
28.0254
27.6133
27.1865
26.7483
26.3017
25.8495
25.3944
24.9385
24.4839
24.0326
23.5862
23.1462
22.714
22.291
21.8782
21.4769
21.0882
20.7131
20.3526
20.0078
19.6796
19.3691
19.0774
18.8058
18.5558
18.3295
18.1295
17.9562
17.8096
17.6925
17.608
17.5591
17.5488
17.5806
17.6577
17.7839
17.9626
18.1979
18.4933
18.8524
19.2785
19.7744
20.3423
20.9836
21.6987
22.4867
23.3456
24.2721
25.2613
26.3073
27.4028
28.5396
29.7086
30.9005
32.1055
33.314
34.5167
35.7051
36.871
38.0075
39.1083
40.1685
41.1838
42.1512
43.0683
43.9338
44.7471
45.508
46.2172
46.8757
47.485
48.0467
48.563
49.0361
49.4682
49.8619
50.2198
50.5443
50.838
51.1035
51.3433
51.5597
51.7552
51.9319
52.0919
52.2372
52.3698
52.4912
52.6031
52.7069
52.8039
52.8953
52.9821
53.0653
53.1456
53.2237
53.3002
53.3755
53.45
53.524
53.5977
53.6713
53.7446
53.8176
53.8901
53.9621
54.0335
54.1039
54.1734
54.2415
54.3082
54.3732
54.4363
54.4973
54.5559
54.612
54.6654
54.716
54.7636
54.8081
54.8495
54.8876
54.9224
54.954
54.9822
55.0072
55.0289
55.0473
55.0626
55.0748
55.084
55.0901
55.0933
55.0936
55.0911
55.0859
55.0779
55.0672
55.0538
55.0376
55.0187
54.9969
54.9723
54.9446
54.9137
54.8795
54.8418
54.8002
54.7545
54.7044
54.6494
54.5892
54.5232
54.4508
54.3715
54.2844
54.1888
54.0837
53.968
53.8406
53.7001
53.545
53.3734
53.1833
52.9724
52.7381
52.4771
52.1858
51.86
51.4945
51.0832
50.6188
50.0923
49.4927
48.8062
48.0154
47.0983
46.0258
44.7604
43.2516
41.4318
39.2082
36.4555
32.9971
28.6042
22.9924
15.7301
7.08541
30.6829
30.6172
30.5368
30.427
30.2832
30.1051
29.8924
29.6452
29.365
29.0542
28.7157
28.3525
27.9681
27.5659
27.1491
26.7209
26.2843
25.8418
25.3962
24.9495
24.5039
24.0612
23.6232
23.1914
22.7673
22.3522
21.9473
21.5538
21.173
20.8057
20.4533
20.1166
19.7968
19.495
19.2124
18.9504
18.7104
18.4946
18.3054
18.1434
18.009
17.9049
17.8338
17.7989
17.8031
17.8496
17.9418
18.083
18.2768
18.5267
18.8361
19.2084
19.6464
20.1526
20.7287
21.3758
22.0939
22.8818
23.7374
24.657
25.6359
26.6682
27.7468
28.8639
30.0108
31.1787
32.3583
33.5405
34.7166
35.8783
37.0181
38.1293
39.2058
40.243
41.2367
42.184
43.0826
43.9311
44.7288
45.4757
46.1724
46.8196
47.4188
47.9717
48.4801
48.9463
49.3725
49.761
50.1145
50.4353
50.726
50.9891
51.227
51.4422
51.6368
51.8132
51.9733
52.1192
52.2526
52.3752
52.4887
52.5944
52.6936
52.7874
52.8769
52.9629
53.0462
53.1275
53.2074
53.2862
53.3643
53.442
53.5195
53.5968
53.674
53.7507
53.827
53.9028
53.9778
54.0519
54.1249
54.1966
54.2667
54.335
54.4013
54.4653
54.5268
54.5856
54.6416
54.6945
54.7443
54.7908
54.834
54.8738
54.9102
54.9431
54.9725
54.9984
55.021
55.0401
55.056
55.0685
55.0779
55.0841
55.0872
55.0873
55.0844
55.0786
55.0699
55.0584
55.044
55.0266
55.0064
54.9832
54.9568
54.9273
54.8944
54.858
54.8178
54.7735
54.725
54.6717
54.6134
54.5495
54.4795
54.4028
54.3189
54.2268
54.1257
54.0147
53.8926
53.7583
53.6102
53.4468
53.2663
53.0664
52.8449
52.5989
52.3251
52.0197
51.6784
51.2958
50.8656
50.3803
49.8306
49.2053
48.4903
47.6681
46.7162
45.606
44.3
42.7492
40.8885
38.6306
35.8596
32.419
28.109
22.7051
15.8551
7.85128
30.6146
30.5353
30.4488
30.3358
30.1897
30.0108
29.7992
29.5552
29.2798
28.9753
28.6441
28.2892
27.9138
27.5209
27.1136
26.695
26.2679
25.8349
25.3984
24.9606
24.5237
24.0895
23.6596
23.2358
22.8195
22.412
22.0147
21.6288
21.2555
20.8959
20.5512
20.2225
19.9109
19.6177
19.344
19.0914
18.8613
18.6558
18.4771
18.326
18.2036
18.1121
18.0543
18.0332
18.0515
18.1125
18.2192
18.3751
18.5833
18.8472
19.1699
19.5544
20.0032
20.5186
21.1018
21.7536
22.4736
23.2606
24.112
25.0244
25.9929
27.0118
28.0742
29.1727
30.2988
31.4442
32.6001
33.7579
34.9091
36.0459
37.1612
38.2485
39.3022
40.3175
41.2907
42.2187
43.0995
43.9316
44.7143
45.4475
46.1317
46.7677
47.3569
47.9008
48.4012
48.8603
49.2802
49.6634
50.0121
50.3289
50.6163
50.8767
51.1125
51.326
51.5196
51.6953
51.8553
52.0015
52.1356
52.2593
52.3742
52.4817
52.5829
52.679
52.7711
52.8599
52.9462
53.0307
53.1139
53.1961
53.2779
53.3593
53.4406
53.5217
53.6026
53.6832
53.7633
53.8428
53.9216
53.9995
54.0762
54.1514
54.225
54.2967
54.3662
54.4333
54.4977
54.5593
54.6179
54.6733
54.7253
54.7739
54.819
54.8606
54.8985
54.9327
54.9633
54.9903
55.0137
55.0335
55.0499
55.0628
55.0724
55.0787
55.0817
55.0815
55.0783
55.072
55.0626
55.0502
55.0348
55.0163
54.9947
54.97
54.942
54.9106
54.8757
54.8371
54.7945
54.7476
54.6962
54.6398
54.5781
54.5106
54.4367
54.3558
54.2672
54.1702
54.0637
53.9469
53.8185
53.6773
53.5218
53.3504
53.161
52.9515
52.7195
52.462
52.1756
51.8565
51.5
51.1007
50.6521
50.1465
49.5744
48.9244
48.1823
47.3302
46.3458
45.2008
43.8583
42.271
40.3767
38.0939
35.3167
31.9072
27.6935
22.4992
16.0434
8.61413
30.5495
30.4578
30.3658
30.2498
30.1015
29.9219
29.7115
29.4703
29.1994
28.9006
28.5763
28.2292
27.8621
27.478
27.0798
26.6704
26.2524
25.8284
25.4007
24.9716
24.5431
24.117
23.6952
23.2791
22.8704
22.4704
22.0805
21.7019
21.3359
20.9837
20.6465
20.3255
20.0219
19.737
19.472
19.2284
19.0079
18.8123
18.6437
18.5033
18.3923
18.3129
18.2679
18.2599
18.2918
18.3665
18.4872
18.6569
18.8787
19.1557
19.4907
19.8865
20.3453
20.8689
21.4583
22.1141
22.8355
23.6212
24.4685
25.3739
26.3325
27.3387
28.386
29.467
30.5738
31.6984
32.8322
33.9671
35.095
36.2086
37.3009
38.3658
39.3978
40.3924
41.346
42.2557
43.1193
43.9355
44.7036
45.4234
46.0953
46.7202
47.2993
47.834
48.3263
48.7781
49.1915
49.5689
49.9127
50.2252
50.509
50.7663
50.9996
51.2113
51.4035
51.5784
51.738
51.8843
52.0189
52.1436
52.2598
52.3689
52.472
52.5704
52.665
52.7565
52.8458
52.9334
53.0199
53.1056
53.1909
53.2761
53.3612
53.4461
53.5308
53.6151
53.6991
53.7824
53.8651
53.9467
54.0271
54.1061
54.1832
54.2584
54.3312
54.4014
54.4689
54.5333
54.5946
54.6524
54.7068
54.7575
54.8045
54.8478
54.8873
54.9229
54.9547
54.9827
55.007
55.0276
55.0445
55.0578
55.0675
55.0739
55.0768
55.0764
55.0728
55.0659
55.0558
55.0426
55.0262
55.0065
54.9837
54.9575
54.9278
54.8946
54.8577
54.8169
54.7719
54.7224
54.6682
54.6088
54.5438
54.4727
54.3949
54.3099
54.2168
54.1148
54.0031
53.8805
53.7459
53.598
53.4351
53.2557
53.0577
52.8388
52.5965
52.3277
52.0291
51.6965
51.3252
50.9096
50.4432
49.918
49.3244
48.6507
47.8827
47.0026
45.9881
44.8112
43.4363
41.8176
39.8965
37.5974
34.8242
31.4565
27.3479
22.3609
16.2769
9.36277
30.4875
30.3847
30.2875
30.1686
30.0185
29.8382
29.6287
29.3902
29.1234
28.83
28.5121
28.1722
27.813
27.4372
27.0476
26.6468
26.2375
25.8221
25.403
24.9822
24.5618
24.1437
23.7296
23.3211
22.9198
22.527
22.1443
21.7729
21.414
21.0691
20.7392
20.4257
20.1297
19.8528
19.5961
19.3613
19.1499
18.9639
18.8051
18.6748
18.5747
18.5069
18.474
18.4785
18.5232
18.611
18.7448
18.9275
19.1621
19.4513
19.7978
20.2041
20.672
21.2031
21.7982
22.4575
23.1801
23.9644
24.8077
25.7064
26.6557
27.6502
28.6833
29.7481
30.837
31.942
33.0553
34.1688
35.2751
36.3668
37.4375
38.4812
39.4928
40.4678
41.4027
42.2948
43.1419
43.9428
44.6966
45.4032
46.0631
46.6769
47.2458
47.7714
48.2553
48.6996
49.1063
49.4778
49.8163
50.1242
50.404
50.658