/*--------------------------------*- C++ -*----------------------------------*\
| =========                 |                                                 |
| \\      /  F ield         | OpenFOAM: The Open Source CFD Toolbox           |
|  \\    /   O peration     | Version:  2.4.0                                 |
|   \\  /    A nd           | Web:      www.OpenFOAM.org                      |
|    \\/     M anipulation  |                                                 |
\*---------------------------------------------------------------------------*/
FoamFile
{
    version     2.0;
    format      ascii;
    class       volVectorField;
    location    "0.053";
    object      U_0;
}
// * * * * * * * * * * * * * * * * * * * * * * * * * * * * * * * * * * * * * //

dimensions      [0 1 -1 0 0 0 0];

internalField   nonuniform List<vector> 
4400
(
(5.40287 0.316873 0)
(3.3201 0.0606699 0)
(2.57881 0.00153911 0)
(2.2421 -0.00230586 0)
(2.07692 -0.00115786 0)
(2.0133 -0.00138295 0)
(1.96177 -0.000107063 0)
(1.95252 -0.00199754 0)
(1.97731 0.00109735 0)
(1.81932 -0.059625 0)
(8.67789 0.857136 0)
(7.55843 0.344366 0)
(6.60832 0.116806 0)
(5.93603 0.053569 0)
(5.50405 0.0277138 0)
(5.30975 0.0117635 0)
(5.15254 0.011012 0)
(5.09182 -0.00515355 0)
(5.09878 0.00892857 0)
(4.96125 -0.0778984 0)
(9.87436 0.936703 0)
(10.0257 0.477236 0)
(9.45611 0.214535 0)
(8.79281 0.1268 0)
(8.2394 0.0770237 0)
(7.96491 0.0375171 0)
(7.73173 0.0315111 0)
(7.64473 -0.00131748 0)
(7.56472 0.0108479 0)
(7.47162 -0.107573 0)
(10.0866 0.805378 0)
(11.1702 0.497855 0)
(11.2251 0.268632 0)
(10.8811 0.192051 0)
(10.4042 0.134016 0)
(10.1422 0.072011 0)
(9.88801 0.057368 0)
(9.82894 0.0103686 0)
(9.61514 0.0181198 0)
(9.59997 -0.170928 0)
(9.9834 0.644355 0)
(11.4031 0.435666 0)
(11.931 0.251775 0)
(12.0338 0.210837 0)
(11.8275 0.170908 0)
(11.7054 0.101727 0)
(11.5326 0.0793174 0)
(11.5586 0.0293358 0)
(11.2378 0.0285544 0)
(11.3546 -0.265309 0)
(9.91756 0.513206 0)
(11.3181 0.35502 0)
(11.9994 0.194753 0)
(12.3478 0.17778 0)
(12.416 0.167555 0)
(12.4748 0.104296 0)
(12.5344 0.0833915 0)
(12.6698 0.0422547 0)
(12.3505 0.0358744 0)
(12.6835 -0.325482 0)
(9.93295 0.398596 0)
(11.1945 0.277843 0)
(11.943 0.145498 0)
(12.3323 0.129152 0)
(12.5096 0.139861 0)
(12.5793 0.0765236 0)
(12.9119 0.0563296 0)
(13.048 0.0498802 0)
(12.9085 0.00766434 0)
(13.471 -0.309781 0)
(9.97775 0.284583 0)
(11.1274 0.200994 0)
(11.8877 0.0893588 0)
(12.284 0.0894733 0)
(12.4459 0.116929 0)
(12.568 0.0458905 0)
(12.9582 0.0156828 0)
(12.9324 0.050381 0)
(13.1492 -0.0527149 0)
(13.6556 -0.308486 0)
(9.99886 0.177425 0)
(11.1254 0.111671 0)
(11.8538 0.0569778 0)
(12.2038 0.0463722 0)
(12.3854 0.0826398 0)
(12.6747 -7.09676e-05 0)
(12.8304 0.00869219 0)
(12.8328 0.0212137 0)
(13.318 -0.0982255 0)
(13.3168 -0.307466 0)
(9.9997 0.0627591 0)
(11.1238 0.0293686 0)
(11.8438 0.0152073 0)
(12.1545 0.0129394 0)
(12.4097 0.0368424 0)
(12.6715 -0.0200983 0)
(12.7152 -0.00999394 0)
(12.9441 -0.0189827 0)
(13.246 -0.124774 0)
(13.0546 -0.316566 0)
(9.98969 -0.0459969 0)
(11.1372 -0.060505 0)
(11.8488 -0.00859004 0)
(12.1394 -0.0306842 0)
(12.4327 -0.0107171 0)
(12.629 -0.0457349 0)
(12.7462 -0.0355533 0)
(12.9802 -0.0486668 0)
(13.1096 -0.136602 0)
(13.1589 -0.358516 0)
(9.995 -0.160256 0)
(11.1593 -0.145031 0)
(11.8515 -0.0455122 0)
(12.1718 -0.0692016 0)
(12.4515 -0.0502098 0)
(12.6199 -0.0679689 0)
(12.7805 -0.0626385 0)
(12.9329 -0.0734985 0)
(13.1025 -0.163016 0)
(13.2158 -0.367384 0)
(10.0357 -0.273611 0)
(11.1597 -0.229091 0)
(11.9014 -0.0779376 0)
(12.211 -0.111259 0)
(12.4936 -0.0959298 0)
(12.5936 -0.0898543 0)
(12.8011 -0.0846279 0)
(12.8922 -0.0951837 0)
(13.1527 -0.185936 0)
(13.1719 -0.371782 0)
(10.0782 -0.393133 0)
(11.1602 -0.302607 0)
(11.992 -0.125864 0)
(12.2351 -0.15131 0)
(12.5359 -0.130193 0)
(12.5554 -0.107732 0)
(12.8185 -0.109426 0)
(12.81 -0.121732 0)
(13.07 -0.206798 0)
(12.867 -0.375773 0)
(10.0833 -0.516338 0)
(11.2128 -0.368606 0)
(12.0618 -0.178809 0)
(12.2344 -0.191656 0)
(12.4652 -0.165095 0)
(12.3739 -0.126789 0)
(12.5423 -0.124013 0)
(12.3479 -0.129837 0)
(12.453 -0.202659 0)
(11.9615 -0.328121 0)
(10.1016 -0.648618 0)
(11.2843 -0.440696 0)
(11.9957 -0.239903 0)
(11.9388 -0.222575 0)
(11.884 -0.172301 0)
(11.5843 -0.120069 0)
(11.5644 -0.111213 0)
(11.2162 -0.111972 0)
(11.1823 -0.172233 0)
(10.5422 -0.261722 0)
(10.1537 -0.808684 0)
(11.0789 -0.500249 0)
(11.2853 -0.261994 0)
(10.8059 -0.200983 0)
(10.4514 -0.135587 0)
(10.027 -0.0868334 0)
(9.89982 -0.0792175 0)
(9.50498 -0.0808151 0)
(9.40755 -0.129553 0)
(8.71979 -0.186401 0)
(9.90726 -0.937781 0)
(9.96419 -0.478279 0)
(9.50387 -0.210991 0)
(8.73741 -0.13232 0)
(8.26899 -0.0782897 0)
(7.86609 -0.0478601 0)
(7.71577 -0.0450283 0)
(7.36224 -0.0491579 0)
(7.24107 -0.0828106 0)
(6.57933 -0.114928 0)
(8.69299 -0.857578 0)
(7.52455 -0.345111 0)
(6.63589 -0.115375 0)
(5.90144 -0.0563227 0)
(5.51596 -0.0283536 0)
(5.23618 -0.0171859 0)
(5.11749 -0.0179192 0)
(4.86425 -0.0222836 0)
(4.74128 -0.03908 0)
(4.20366 -0.0550289 0)
(5.40556 -0.316741 0)
(3.31055 -0.0607566 0)
(2.58518 -0.00130377 0)
(2.23013 0.00186367 0)
(2.07657 0.00126976 0)
(1.97784 0.000358667 0)
(1.92876 -0.000635036 0)
(1.82456 -0.00190854 0)
(1.74192 -0.00433946 0)
(1.48124 0.00185746 0)
(2.74491 0.0774112 0)
(3.45068 0.106519 0)
(4.47979 -0.304363 0)
(5.27369 -1.08899 0)
(5.45063 -1.73371 0)
(5.19319 -2.15973 0)
(4.69649 -2.06547 0)
(3.63452 -1.58524 0)
(2.92397 -1.24217 0)
(2.42096 0.204517 0)
(2.59153 3.08984 0)
(5.41394 3.74198 0)
(7.56529 2.73552 0)
(8.1841 2.07533 0)
(9.15422 0.483968 0)
(10.196 -1.45388 0)
(10.3786 -2.29717 0)
(10.997 -2.97139 0)
(11.2376 -3.72569 0)
(11.9212 -4.65251 0)
(12.8746 -5.81987 0)
(12.8171 -6.37445 0)
(11.9907 -6.38613 0)
(12.0681 -6.78478 0)
(12.2268 -7.33326 0)
(11.9504 -7.30954 0)
(11.2878 -6.56361 0)
(10.517 -5.74082 0)
(10.2593 -5.26409 0)
(10.5123 -4.32828 0)
(10.6263 -3.21531 0)
(10.9839 -2.01414 0)
(11.2628 -0.440165 0)
(10.7831 0.834909 0)
(10.5829 1.79897 0)
(11.0957 3.09947 0)
(11.2277 4.32588 0)
(10.5963 4.79651 0)
(9.82051 4.51887 0)
(9.21547 3.974 0)
(8.75091 3.34158 0)
(8.24456 2.69215 0)
(7.80611 1.96008 0)
(7.28418 1.46188 0)
(7.03288 0.95276 0)
(6.56994 0.905387 0)
(6.60677 0.473189 0)
(6.04676 0.787367 0)
(6.40028 0.0883645 0)
(5.58898 0.841072 0)
(6.35372 -0.309831 0)
(5.24344 0.96767 0)
(6.42251 -0.60436 0)
(5.05015 0.97388 0)
(6.53771 -0.678086 0)
(4.95839 0.783061 0)
(6.61685 -0.599031 0)
(5.02461 0.603531 0)
(6.4547 -0.549844 0)
(5.34056 0.597027 0)
(6.03106 -0.575906 0)
(5.661 0.679513 0)
(5.65874 -0.630685 0)
(5.77301 0.751369 0)
(5.46602 -0.676038 0)
(5.77983 0.730843 0)
(5.46123 -0.611035 0)
(5.70784 0.632463 0)
(5.61552 -0.492197 0)
(5.66142 0.635947 0)
(5.6828 -0.52391 0)
(5.72352 0.729506 0)
(5.74079 -0.52544 0)
(5.76507 0.671579 0)
(5.88288 -0.342215 0)
(5.78538 0.693713 0)
(6.03098 -0.375031 0)
(5.87535 0.790383 0)
(6.10696 -0.196129 0)
(6.00454 0.695889 0)
(6.27033 -0.0376735 0)
(6.04877 0.844496 0)
(6.27339 0.135428 0)
(6.17065 0.786844 0)
(6.29595 0.375116 0)
(6.00933 0.977722 0)
(6.08293 0.62861 0)
(5.80706 0.971557 0)
(5.83078 0.847304 0)
(5.47417 1.19102 0)
(5.38127 1.08529 0)
(5.35848 1.46383 0)
(5.37104 1.36208 0)
(5.7038 2.10625 0)
(6.12015 2.02568 0)
(5.40335 2.94115 0)
(6.29329 2.87577 0)
(5.44537 4.80304 0)
(6.18066 5.24923 0)
(3.42143 9.39577 0)
(5.62137 -0.110158 0)
(5.90403 -0.140005 0)
(6.65077 -0.558859 0)
(7.15371 -1.26255 0)
(7.36536 -1.65603 0)
(7.25134 -1.88152 0)
(6.47473 -1.8336 0)
(5.59254 -1.3245 0)
(5.49424 -0.793787 0)
(4.01426 0.29683 0)
(4.15091 2.20445 0)
(6.5744 2.68425 0)
(8.68137 2.18343 0)
(9.32318 1.68085 0)
(10.2958 0.0847212 0)
(10.8448 -1.71134 0)
(10.9341 -2.51742 0)
(11.6799 -3.16815 0)
(12.2709 -3.8991 0)
(12.9942 -4.98081 0)
(13.3561 -6.03739 0)
(12.9067 -6.22988 0)
(12.1304 -6.29558 0)
(12.4317 -6.86063 0)
(12.0761 -7.20943 0)
(11.0932 -6.94955 0)
(10.1865 -6.1521 0)
(9.52692 -5.53493 0)
(9.38124 -5.23735 0)
(9.72862 -4.39502 0)
(9.87602 -3.32328 0)
(10.202 -2.13648 0)
(10.5619 -0.434334 0)
(10.112 0.937224 0)
(9.7641 1.8118 0)
(10.1676 3.0279 0)
(10.3768 4.34975 0)
(9.90522 4.96144 0)
(9.25396 4.747 0)
(8.72391 4.18725 0)
(8.3046 3.52788 0)
(7.83405 2.88566 0)
(7.47905 2.15758 0)
(7.03469 1.6457 0)
(6.87882 1.09804 0)
(6.41765 1.0293 0)
(6.54878 0.562193 0)
(5.89739 0.878527 0)
(6.43882 0.137519 0)
(5.39165 0.915422 0)
(6.51921 -0.30885 0)
(4.97332 1.04571 0)
(6.66782 -0.659449 0)
(4.79123 1.08388 0)
(6.643 -0.789377 0)
(4.91591 0.93571 0)
(6.30384 -0.772866 0)
(5.29965 0.800725 0)
(5.72929 -0.758432 0)
(5.67669 0.797824 0)
(5.26808 -0.749893 0)
(5.78197 0.84104 0)
(5.13764 -0.760781 0)
(5.71582 0.881972 0)
(5.23423 -0.793409 0)
(5.63605 0.838155 0)
(5.47921 -0.707779 0)
(5.48104 0.749018 0)
(5.76003 -0.61616 0)
(5.37772 0.804535 0)
(5.80451 -0.687234 0)
(5.53126 0.875913 0)
(5.79377 -0.680675 0)
(5.5293 0.834592 0)
(5.9764 -0.53552 0)
(5.49529 0.879807 0)
(5.98424 -0.573765 0)
(5.65214 0.961159 0)
(6.07979 -0.431019 0)
(5.65455 0.89411 0)
(6.22323 -0.24634 0)
(5.82594 1.02168 0)
(6.24193 -0.140407 0)
(5.98847 0.994525 0)
(6.38103 0.167755 0)
(6.10343 1.17058 0)
(6.33187 0.334189 0)
(6.23827 1.24117 0)
(6.21474 0.622596 0)
(6.1371 1.51471 0)
(5.83812 0.835451 0)
(5.81802 1.77976 0)
(5.63713 1.11514 0)
(5.48232 2.28621 0)
(6.14053 1.8707 0)
(5.65421 3.44073 0)
(5.96898 2.63178 0)
(4.93921 4.88483 0)
(8.62078 4.32621 0)
(5.92173 9.81976 0)
(8.26579 -0.344503 0)
(8.37292 -0.322997 0)
(8.84953 -0.715966 0)
(9.13357 -1.38968 0)
(9.1329 -1.62606 0)
(9.03789 -1.71145 0)
(8.31446 -1.58956 0)
(7.55065 -1.14424 0)
(7.41469 -0.49575 0)
(6.43992 0.493478 0)
(6.46295 1.64927 0)
(7.89905 1.89669 0)
(9.63996 1.6599 0)
(10.3671 1.2623 0)
(11.4195 -0.268579 0)
(11.8377 -1.82766 0)
(12.047 -2.63205 0)
(12.7593 -3.38513 0)
(13.4144 -4.17596 0)
(13.9662 -5.14312 0)
(13.6445 -5.94124 0)
(12.8139 -5.99187 0)
(12.3708 -6.13762 0)
(12.3682 -6.73182 0)
(11.4421 -6.83929 0)
(9.98935 -6.43705 0)
(8.90705 -5.82831 0)
(8.55886 -5.45468 0)
(8.55236 -5.30707 0)
(8.91977 -4.51855 0)
(9.15113 -3.40384 0)
(9.346 -2.18399 0)
(9.63282 -0.437441 0)
(9.28668 1.01212 0)
(8.91352 1.86552 0)
(9.17502 3.00453 0)
(9.418 4.35878 0)
(9.10694 5.10738 0)
(8.60811 4.97113 0)
(8.17771 4.39506 0)
(7.80267 3.71553 0)
(7.37973 3.0611 0)
(7.09506 2.30421 0)
(6.70075 1.76356 0)
(6.61532 1.18477 0)
(6.16818 1.10105 0)
(6.40044 0.614563 0)
(5.69923 0.932308 0)
(6.4043 0.173164 0)
(5.2073 0.960562 0)
(6.57435 -0.303841 0)
(4.80996 1.0961 0)
(6.70704 -0.707679 0)
(4.75954 1.1661 0)
(6.47326 -0.897992 0)
(5.13871 1.0546 0)
(5.84469 -0.929445 0)
(5.67186 0.94396 0)
(5.25381 -0.909581 0)
(5.90714 0.927554 0)
(5.15778 -0.861436 0)
(5.76034 0.946881 0)
(5.47209 -0.850316 0)
(5.51153 0.974524 0)
(5.85053 -0.883606 0)
(5.4364 0.926593 0)
(6.02259 -0.804524 0)
(5.45834 0.828827 0)
(6.11715 -0.72779 0)
(5.40666 0.928208 0)
(6.13182 -0.883039 0)
(5.55249 1.05117 0)
(6.03672 -0.864994 0)
(5.61862 0.933478 0)
(6.18403 -0.695697 0)
(5.56783 1.034 0)
(6.26699 -0.832453 0)
(5.70682 1.12943 0)
(6.35657 -0.631803 0)
(5.77482 1.03884 0)
(6.51574 -0.541054 0)
(5.929 1.24249 0)
(6.55689 -0.387507 0)
(6.13114 1.18807 0)
(6.7119 -0.130826 0)
(6.27696 1.43125 0)
(6.7407 0.134174 0)
(6.3932 1.45402 0)
(6.82751 0.461351 0)
(6.29837 1.7677 0)
(6.66068 0.801028 0)
(5.96478 1.90096 0)
(6.52808 1.0614 0)
(5.64099 2.28278 0)
(6.65196 1.39157 0)
(5.832 3.47331 0)
(8.40442 2.62279 0)
(4.87114 5.44027 0)
(8.80961 3.72668 0)
(6.76989 9.93907 0)
(10.4646 -0.490075 0)
(10.4101 -0.411744 0)
(10.8 -0.728172 0)
(10.8777 -1.41835 0)
(10.6466 -1.57292 0)
(10.7662 -1.42461 0)
(9.90061 -1.32345 0)
(9.29085 -0.972746 0)
(8.92466 -0.249539 0)
(8.54128 0.552865 0)
(8.71105 1.31093 0)
(9.59655 1.45874 0)
(10.8649 1.39235 0)
(11.6911 0.957214 0)
(12.7971 -0.527034 0)
(13.1729 -1.90584 0)
(13.4343 -2.73329 0)
(13.9627 -3.51949 0)
(14.2482 -4.31329 0)
(14.2121 -5.16796 0)
(13.5335 -5.6557 0)
(12.5238 -5.66971 0)
(12.2504 -5.9736 0)
(11.9839 -6.40539 0)
(10.5365 -6.25306 0)
(8.94283 -5.78416 0)
(7.75861 -5.52526 0)
(7.53464 -5.48798 0)
(7.58854 -5.40365 0)
(7.89666 -4.64703 0)
(8.1803 -3.49592 0)
(8.34874 -2.20025 0)
(8.50248 -0.425825 0)
(8.22143 1.09419 0)
(7.98851 1.90837 0)
(8.24196 2.9289 0)
(8.42807 4.31236 0)
(8.18255 5.17192 0)
(7.8348 5.09797 0)
(7.50194 4.55061 0)
(7.19605 3.86402 0)
(6.85053 3.18554 0)
(6.66284 2.41715 0)
(6.33862 1.86644 0)
(6.37147 1.27689 0)
(5.92871 1.16801 0)
(6.2907 0.682084 0)
(5.48556 0.969196 0)
(6.39762 0.226159 0)
(4.97344 0.978039 0)
(6.65058 -0.289201 0)
(4.57725 1.14175 0)
(6.77669 -0.790341 0)
(4.64396 1.31933 0)
(6.39132 -1.10581 0)
(5.22803 1.30154 0)
(5.6155 -1.17617 0)
(5.80296 1.16079 0)
(5.17392 -1.05876 0)
(5.84181 1.03431 0)
(5.4183 -0.907087 0)
(5.47361 0.991564 0)
(5.86946 -0.88897 0)
(5.216 1.05523 0)
(5.96323 -1.01018 0)
(5.35213 1.06987 0)
(5.71751 -0.98584 0)
(5.46087 0.960463 0)
(5.72289 -0.886994 0)
(5.34688 1.07404 0)
(5.71118 -1.07611 0)
(5.52636 1.21633 0)
(5.60508 -1.04343 0)
(5.4569 1.08545 0)
(5.93321 -0.882202 0)
(5.33235 1.21741 0)
(6.02383 -1.0502 0)
(5.51593 1.31139 0)
(6.26517 -0.879888 0)
(5.42753 1.24718 0)
(6.5916 -0.818343 0)
(5.65932 1.45583 0)
(6.85567 -0.741335 0)
(5.82474 1.39103 0)
(7.36753 -0.460718 0)
(6.06442 1.65243 0)
(7.71113 -0.274627 0)
(6.46046 1.70481 0)
(8.0629 0.166644 0)
(6.5855 2.08105 0)
(8.10733 0.553994 0)
(6.55409 2.39463 0)
(7.52575 0.883004 0)
(5.83532 2.9271 0)
(6.84833 0.977575 0)
(4.84017 3.56516 0)
(8.77506 1.66984 0)
(5.99837 5.32705 0)
(11.5056 2.58936 0)
(8.31485 9.32397 0)
(12.1117 -0.603341 0)
(11.9671 -0.437013 0)
(12.2528 -0.717619 0)
(12.183 -1.37437 0)
(11.7582 -1.50089 0)
(11.8841 -1.24612 0)
(11.2131 -1.06589 0)
(10.7059 -0.808559 0)
(10.2722 -0.0807415 0)
(10.1735 0.519574 0)
(10.447 0.952976 0)
(11.0799 1.12916 0)
(12.0763 1.17354 0)
(12.95 0.606171 0)
(13.9619 -0.802994 0)
(14.1682 -2.00739 0)
(14.2796 -2.8362 0)
(14.5421 -3.56819 0)
(14.4265 -4.24682 0)
(13.9218 -4.94729 0)
(13.1106 -5.27103 0)
(12.3199 -5.37155 0)
(12.1114 -5.81022 0)
(11.5279 -6.04248 0)
(9.57057 -5.6636 0)
(7.87239 -5.23859 0)
(6.87268 -5.24326 0)
(6.66368 -5.49041 0)
(6.63093 -5.4554 0)
(6.84049 -4.7057 0)
(7.02719 -3.52746 0)
(7.13505 -2.15615 0)
(7.18937 -0.421572 0)
(7.00612 1.09101 0)
(6.90597 1.97971 0)
(7.13231 2.99499 0)
(7.30651 4.31962 0)
(7.17815 5.19183 0)
(6.94929 5.1871 0)
(6.72505 4.66445 0)
(6.53914 3.96851 0)
(6.2836 3.28971 0)
(6.20653 2.52185 0)
(5.97669 1.94751 0)
(6.11494 1.3485 0)
(5.6916 1.21042 0)
(6.13089 0.744642 0)
(5.27654 0.98883 0)
(6.29987 0.288197 0)
(4.78913 0.981271 0)
(6.59326 -0.259823 0)
(4.45997 1.17125 0)
(6.68908 -0.848232 0)
(4.6643 1.43341 0)
(6.18997 -1.24966 0)
(5.39424 1.45741 0)
(5.3588 -1.29598 0)
(5.93973 1.25259 0)
(5.04766 -1.08949 0)
(5.8302 1.04482 0)
(5.3892 -0.920445 0)
(5.43806 1.00784 0)
(5.67151 -0.978042 0)
(5.35978 1.14157 0)
(5.50222 -1.18579 0)
(5.55999 1.20055 0)
(5.33221 -1.12926 0)
(5.55292 1.04078 0)
(5.53308 -0.951294 0)
(5.36694 1.16025 0)
(5.63902 -1.20767 0)
(5.49684 1.36517 0)
(5.57286 -1.17913 0)
(5.45088 1.15845 0)
(5.90447 -0.976933 0)
(5.26758 1.36319 0)
(5.92514 -1.28377 0)
(5.48068 1.48655 0)
(6.02269 -1.04876 0)
(5.32573 1.3892 0)
(6.30198 -1.09851 0)
(5.49963 1.6919 0)
(6.47947 -1.03413 0)
(5.56255 1.56871 0)
(7.06205 -0.855269 0)
(5.80814 1.91442 0)
(7.66199 -0.793927 0)
(6.19361 1.87354 0)
(8.74078 -0.426104 0)
(6.72717 2.27381 0)
(9.89368 -0.0307328 0)
(7.19177 2.564 0)
(11.0059 0.646921 0)
(6.96345 3.18281 0)
(11.2797 1.49916 0)
(5.16197 3.96021 0)
(10.2082 1.66186 0)
(4.40886 5.90939 0)
(10.1244 1.32585 0)
(9.02428 8.58445 0)
(13.1439 -0.699673 0)
(12.8987 -0.486291 0)
(13.2164 -0.695623 0)
(12.9834 -1.26925 0)
(12.4529 -1.40416 0)
(12.4704 -1.10872 0)
(11.9633 -0.859292 0)
(11.569 -0.681239 0)
(11.1962 0.00915391 0)
(11.3634 0.463882 0)
(11.7135 0.663993 0)
(12.1615 0.854068 0)
(12.9926 0.903981 0)
(13.8388 0.268234 0)
(14.6171 -1.02272 0)
(14.5573 -2.08263 0)
(14.4696 -2.88472 0)
(14.4011 -3.51383 0)
(14.0251 -4.12059 0)
(13.4583 -4.75669 0)
(12.7274 -5.0275 0)
(12.1988 -5.26987 0)
(12.0141 -5.62873 0)
(11.0038 -5.42005 0)
(8.71282 -4.79841 0)
(6.77288 -4.64361 0)
(5.90591 -5.05494 0)
(5.73988 -5.48528 0)
(5.56791 -5.47502 0)
(5.71546 -4.71864 0)
(5.79176 -3.51773 0)
(5.82171 -2.08752 0)
(5.75091 -0.375603 0)
(5.67023 1.06043 0)
(5.77366 1.90992 0)
(6.03901 2.92859 0)
(6.17325 4.27663 0)
(6.07692 5.18984 0)
(5.97548 5.21621 0)
(5.90372 4.72578 0)
(5.83066 4.05835 0)
(5.69792 3.36026 0)
(5.76191 2.5523 0)
(5.61775 1.94301 0)
(5.83004 1.3584 0)
(5.38771 1.19819 0)
(5.92549 0.777693 0)
(4.99675 0.961269 0)
(6.19737 0.327346 0)
(4.55552 0.938073 0)
(6.55921 -0.251604 0)
(4.29118 1.16945 0)
(6.65155 -0.935593 0)
(4.58083 1.56204 0)
(6.10471 -1.43617 0)
(5.40106 1.66826 0)
(5.25962 -1.44472 0)
(5.95659 1.37441 0)
(5.03118 -1.1194 0)
(5.74904 1.05999 0)
(5.49015 -0.92745 0)
(5.30334 1.05254 0)
(5.79902 -1.07109 0)
(5.3013 1.27507 0)
(5.65854 -1.31475 0)
(5.4632 1.31815 0)
(5.68884 -1.19276 0)
(5.32893 1.12858 0)
(5.90976 -1.05343 0)
(5.28319 1.32241 0)
(5.79278 -1.42371 0)
(5.44226 1.53658 0)
(5.74117 -1.31899 0)
(5.28896 1.25677 0)
(6.0584 -1.16147 0)
(5.24355 1.56995 0)
(5.91164 -1.53575 0)
(5.41641 1.6091 0)
(6.18883 -1.22776 0)
(5.16358 1.57825 0)
(6.41027 -1.37893 0)
(5.36529 1.87486 0)
(6.67751 -1.26689 0)
(5.20031 1.80459 0)
(7.15647 -1.16345 0)
(5.32059 2.17712 0)
(7.79679 -1.07194 0)
(5.20821 2.18686 0)
(8.9073 -0.853335 0)
(5.34111 2.55986 0)
(10.5885 -0.566621 0)
(5.65353 2.77274 0)
(12.7957 -0.118395 0)
(6.55028 3.28805 0)
(14.6961 0.655185 0)
(7.42834 4.2679 0)
(14.5855 1.06078 0)
(7.86411 6.09741 0)
(10.8803 1.31042 0)
(8.71405 7.81309 0)
(13.4354 -0.700248 0)
(13.1345 -0.571374 0)
(13.5369 -0.719237 0)
(13.2564 -1.11772 0)
(12.7435 -1.24283 0)
(12.5559 -0.983284 0)
(12.1877 -0.71909 0)
(11.9422 -0.584852 0)
(11.673 -0.0067533 0)
(12.095 0.317733 0)
(12.3771 0.412005 0)
(12.8038 0.560819 0)
(13.5183 0.624457 0)
(14.3182 0.0510955 0)
(14.7533 -1.10522 0)
(14.5277 -2.03248 0)
(14.3114 -2.83567 0)
(13.8607 -3.46305 0)
(13.4953 -3.99622 0)
(13.1908 -4.49365 0)
(12.7597 -4.73116 0)
(12.2861 -5.0189 0)
(11.5879 -5.2301 0)
(9.83058 -4.7228 0)
(7.36025 -3.97419 0)
(5.67244 -4.07076 0)
(4.89715 -4.84409 0)
(4.64593 -5.41843 0)
(4.34368 -5.44115 0)
(4.44778 -4.69762 0)
(4.44462 -3.46408 0)
(4.43748 -2.01022 0)
(4.34712 -0.37413 0)
(4.34761 1.02321 0)
(4.54335 1.92707 0)
(4.79903 2.97331 0)
(4.93728 4.2759 0)
(4.94038 5.15078 0)
(4.98147 5.20695 0)
(5.04036 4.75155 0)
(5.11894 4.06617 0)
(5.12953 3.33204 0)
(5.32241 2.54275 0)
(5.2423 1.95153 0)
(5.57044 1.42287 0)
(5.14727 1.22997 0)
(5.79173 0.86761 0)
(4.82455 0.96144 0)
(6.09471 0.417877 0)
(4.43126 0.913554 0)
(6.4302 -0.190273 0)
(4.25819 1.1641 0)
(6.48279 -0.949165 0)
(4.62532 1.62299 0)
(5.94523 -1.50958 0)
(5.46543 1.7673 0)
(5.15739 -1.48402 0)
(6.00528 1.39223 0)
(5.00165 -1.07112 0)
(5.7247 1.01788 0)
(5.54201 -0.896883 0)
(5.23811 1.08761 0)
(5.79025 -1.17046 0)
(5.36664 1.40636 0)
(5.4477 -1.4617 0)
(5.58487 1.40697 0)
(5.35323 -1.27839 0)
(5.409 1.18975 0)
(5.4369 -1.17355 0)
(5.43163 1.41842 0)
(5.23556 -1.55061 0)
(5.52045 1.62101 0)
(5.35138 -1.39282 0)
(5.29055 1.32664 0)
(5.56245 -1.26441 0)
(5.29225 1.70906 0)
(5.47612 -1.7159 0)
(5.36933 1.74219 0)
(5.79348 -1.32238 0)
(5.10875 1.7043 0)
(5.89512 -1.61145 0)
(5.36573 2.03108 0)
(6.09811 -1.43956 0)
(5.04862 1.90637 0)
(6.46227 -1.41204 0)
(5.31917 2.26809 0)
(6.75506 -1.29853 0)
(4.97435 2.26851 0)
(7.26088 -1.1509 0)
(5.07082 2.68343 0)
(7.8733 -0.91288 0)
(4.67465 3.11754 0)
(8.76715 -0.781179 0)
(5.39321 3.78972 0)
(10.5077 -0.227632 0)
(7.09086 4.79861 0)
(12.4656 0.293484 0)
(9.2056 6.21607 0)
(13.4296 1.86873 0)
(9.61833 6.86366 0)
(13.1414 -0.616705 0)
(12.9907 -0.610125 0)
(13.3897 -0.722688 0)
(13.1458 -0.944683 0)
(12.7623 -1.03637 0)
(12.3601 -0.82165 0)
(12.1888 -0.606634 0)
(12.085 -0.514241 0)
(12.0141 -0.085416 0)
(12.4984 0.166961 0)
(12.6354 0.238789 0)
(13.0093 0.314472 0)
(13.5106 0.384417 0)
(14.2301 -0.133016 0)
(14.395 -1.10913 0)
(14.2641 -1.97324 0)
(13.9848 -2.76051 0)
(13.4832 -3.26767 0)
(13.3196 -3.78043 0)
(12.9899 -4.33338 0)
(12.507 -4.60183 0)
(11.9224 -4.75322 0)
(10.7401 -4.58029 0)
(8.46396 -3.7659 0)
(5.88593 -3.17551 0)
(4.52566 -3.66672 0)
(3.80975 -4.63956 0)
(3.42971 -5.29797 0)
(3.03051 -5.37289 0)
(3.09908 -4.66248 0)
(3.04518 -3.42419 0)
(3.0396 -1.92999 0)
(2.99514 -0.413705 0)
(3.10869 0.863229 0)
(3.35657 1.81826 0)
(3.57131 2.92962 0)
(3.67731 4.22655 0)
(3.74943 5.07502 0)
(3.95242 5.11806 0)
(4.19093 4.665 0)
(4.42509 4.00803 0)
(4.56706 3.29293 0)
(4.90026 2.51527 0)
(4.92326 1.89488 0)
(5.29381 1.39158 0)
(4.84435 1.15383 0)
(5.48037 0.866879 0)
(4.47895 0.868249 0)
(5.82992 0.433112 0)
(4.17164 0.808752 0)
(6.27488 -0.195987 0)
(4.11415 1.09572 0)
(6.39076 -1.00587 0)
(4.51823 1.65365 0)
(5.91854 -1.63939 0)
(5.35113 1.88315 0)
(5.18756 -1.58278 0)
(5.91147 1.41672 0)
(5.0235 -1.02461 0)
(5.65971 0.942177 0)
(5.51735 -0.849324 0)
(5.19837 1.12102 0)
(5.70659 -1.27756 0)
(5.39847 1.5388 0)
(5.33678 -1.56292 0)
(5.63568 1.44979 0)
(5.33877 -1.28745 0)
(5.39213 1.22653 0)
(5.55324 -1.26359 0)
(5.36429 1.55885 0)
(5.51426 -1.67192 0)
(5.41761 1.70604 0)
(5.68188 -1.46224 0)
(5.20681 1.42971 0)
(5.80467 -1.46835 0)
(5.2808 1.87109 0)
(5.77664 -1.87444 0)
(5.24009 1.82193 0)
(6.0258 -1.5004 0)
(5.13907 1.88491 0)
(6.01695 -1.90593 0)
(5.27886 2.15492 0)
(6.32049 -1.59128 0)
(4.98628 2.079 0)
(6.53473 -1.80051 0)
(5.26557 2.43324 0)
(6.82753 -1.51045 0)
(4.95919 2.42194 0)
(7.08192 -1.59172 0)
(5.31768 2.77762 0)
(7.44334 -1.19331 0)
(5.2839 3.19923 0)
(7.31175 -1.35871 0)
(5.96019 3.85633 0)
(7.74746 -1.07875 0)
(6.74711 5.16827 0)
(9.27113 -0.485329 0)
(8.09835 6.16261 0)
(12.6537 1.88003 0)
(10.5726 6.35602 0)
(12.8871 -0.561001 0)
(13.0634 -0.643738 0)
(13.1031 -0.699242 0)
(12.9413 -0.819042 0)
(12.7284 -0.841369 0)
(12.3835 -0.691742 0)
(12.4098 -0.624006 0)
(12.4092 -0.546402 0)
(12.5141 -0.227817 0)
(12.7403 0.0180465 0)
(12.6668 0.11659 0)
(12.7777 0.18994 0)
(13.1585 0.22692 0)
(13.8292 -0.251131 0)
(13.9619 -1.07457 0)
(14.0207 -1.96815 0)
(13.709 -2.6397 0)
(13.3585 -3.05294 0)
(13.2594 -3.61158 0)
(12.7442 -4.15028 0)
(11.9919 -4.34573 0)
(11.1061 -4.30173 0)
(9.49556 -3.82022 0)
(6.99271 -2.82215 0)
(4.70234 -2.42249 0)
(3.52591 -3.22705 0)
(2.75376 -4.36558 0)
(2.32514 -5.11234 0)
(1.78828 -5.27261 0)
(1.72683 -4.60059 0)
(1.60604 -3.39472 0)
(1.67322 -1.9179 0)
(1.67296 -0.443893 0)
(1.84097 0.788314 0)
(2.05103 1.80445 0)
(2.19327 2.9675 0)
(2.33638 4.19701 0)
(2.59066 4.93081 0)
(2.98579 4.95383 0)
(3.36324 4.55104 0)
(3.73814 3.91573 0)
(4.0527 3.16209 0)
(4.52272 2.39458 0)
(4.5662 1.80308 0)
(4.95376 1.41694 0)
(4.50382 1.1586 0)
(5.26066 0.969203 0)
(4.37253 0.842399 0)
(5.79056 0.516314 0)
(4.33428 0.747085 0)
(6.22914 -0.129372 0)
(4.38678 1.03161 0)
(6.24628 -0.95168 0)
(4.72114 1.62489 0)
(5.80218 -1.63261 0)
(5.38915 1.88971 0)
(5.18996 -1.55467 0)
(5.89537 1.36107 0)
(4.99861 -0.905712 0)
(5.71804 0.806159 0)
(5.4159 -0.735802 0)
(5.2653 1.07881 0)
(5.675 -1.30731 0)
(5.39995 1.65544 0)
(5.36091 -1.59796 0)
(5.66255 1.51114 0)
(5.28261 -1.22993 0)
(5.43068 1.25666 0)
(5.45219 -1.27897 0)
(5.39796 1.63071 0)
(5.29038 -1.74169 0)
(5.48039 1.75493 0)
(5.28666 -1.53298 0)
(5.28355 1.48963 0)
(5.38398 -1.55917 0)
(5.33868 1.9542 0)
(5.34407 -1.97636 0)
(5.25763 1.91246 0)
(5.55703 -1.62493 0)
(5.17178 1.99699 0)
(5.6081 -2.05749 0)
(5.23591 2.27588 0)
(5.89365 -1.76282 0)
(5.04459 2.19587 0)
(6.04011 -2.05063 0)
(5.21242 2.59094 0)
(6.34952 -1.77658 0)
(4.99571 2.63022 0)
(6.50768 -1.97364 0)
(5.39932 3.00534 0)
(6.9348 -1.59821 0)
(5.34593 3.47297 0)
(7.02487 -1.92557 0)
(6.01639 4.05886 0)
(7.73727 -1.42485 0)
(6.87489 5.08548 0)
(8.45821 -0.76889 0)
(7.63068 5.66762 0)
(10.1946 1.20042 0)
(10.7006 5.72898 0)
(13.1509 -0.593154 0)
(13.1608 -0.577086 0)
(12.7922 -0.50737 0)
(12.9058 -0.698241 0)
(12.9215 -0.740271 0)
(12.796 -0.663921 0)
(12.7723 -0.675258 0)
(12.6635 -0.597513 0)
(12.5766 -0.283713 0)
(12.316 0.0492514 0)
(12.2168 0.168097 0)
(12.6605 0.12074 0)
(13.1877 -0.0142061 0)
(13.585 -0.385212 0)
(13.7117 -1.11123 0)
(13.8158 -1.92528 0)
(13.5116 -2.46952 0)
(13.1897 -2.94286 0)
(12.9395 -3.47282 0)
(12.3252 -3.83396 0)
(11.3383 -3.96602 0)
(10.0618 -3.7378 0)
(8.10163 -2.90649 0)
(5.45599 -1.86627 0)
(3.47714 -1.80432 0)
(2.50255 -2.88162 0)
(1.80563 -4.1354 0)
(1.33334 -4.89005 0)
(0.647451 -5.10288 0)
(0.376663 -4.50631 0)
(0.174666 -3.34277 0)
(0.30433 -1.9497 0)
(0.358653 -0.535453 0)
(0.553016 0.681723 0)
(0.728474 1.75225 0)
(0.861016 2.92932 0)
(1.07953 4.08245 0)
(1.46506 4.73253 0)
(2.01472 4.7502 0)
(2.55514 4.35249 0)
(3.11765 3.7136 0)
(3.58906 2.97312 0)
(4.13282 2.29888 0)
(4.201 1.75101 0)
(4.63198 1.43084 0)
(4.30281 1.08359 0)
(5.05667 0.942635 0)
(4.35104 0.688537 0)
(5.55109 0.489358 0)
(4.34231 0.594534 0)
(5.9001 -0.112319 0)
(4.36549 0.932729 0)
(5.97113 -0.952494 0)
(4.6336 1.59704 0)
(5.73333 -1.68037 0)
(5.18689 1.9248 0)
(5.31518 -1.58999 0)
(5.6952 1.35161 0)
(5.06965 -0.83835 0)
(5.68012 0.681091 0)
(5.34485 -0.60959 0)
(5.29969 0.976734 0)
(5.60288 -1.28592 0)
(5.38045 1.69742 0)
(5.23895 -1.61182 0)
(5.73469 1.51337 0)
(5.04084 -1.17487 0)
(5.53834 1.22733 0)
(5.23701 -1.31205 0)
(5.44452 1.71258 0)
(5.19589 -1.77529 0)
(5.49001 1.77325 0)
(5.33492 -1.4382 0)
(5.27287 1.518 0)
(5.45376 -1.61281 0)
(5.33795 2.03399 0)
(5.49516 -1.98913 0)
(5.19454 1.94057 0)
(5.71068 -1.69866 0)
(5.18076 2.10575 0)
(5.7277 -2.22864 0)
(5.17196 2.35481 0)
(5.94599 -1.89665 0)
(5.08327 2.35832 0)
(6.04548 -2.3263 0)
(5.17085 2.74356 0)
(6.31534 -1.9639 0)
(5.17018 2.84192 0)
(6.35126 -2.38319 0)
(5.44207 3.18548 0)
(6.62738 -1.91609 0)
(5.76161 3.78954 0)
(6.62839 -2.22625 0)
(6.30709 4.08075 0)
(7.0846 -1.64206 0)
(6.97179 4.94633 0)
(7.55471 -0.670747 0)
(7.68822 5.20068 0)
(8.26238 0.853608 0)
(10.0601 4.96047 0)
(13.1467 -0.529055 0)
(12.8424 -0.350706 0)
(12.8876 -0.449151 0)
(13.1589 -0.781244 0)
(13.0746 -0.732114 0)
(12.9314 -0.643885 0)
(12.6865 -0.648623 0)
(12.3263 -0.474867 0)
(12.1331 -0.107554 0)
(12.1382 0.101954 0)
(12.6433 -0.0423541 0)
(13.05 -0.186303 0)
(12.9617 -0.141008 0)
(13.1245 -0.370923 0)
(13.4399 -1.07417 0)
(13.5513 -1.80323 0)
(13.2315 -2.34299 0)
(12.8854 -2.82573 0)
(12.4168 -3.2828 0)
(11.6206 -3.50647 0)
(10.4422 -3.437 0)
(8.75144 -2.9712 0)
(6.49085 -1.92615 0)
(3.9754 -0.99486 0)
(2.39561 -1.31036 0)
(1.61034 -2.59103 0)
(0.906563 -3.86913 0)
(0.282004 -4.61913 0)
(-0.508864 -4.86648 0)
(-0.951703 -4.36522 0)
(-1.19086 -3.27397 0)
(-1.10002 -1.92938 0)
(-1.05263 -0.586003 0)
(-0.863328 0.611985 0)
(-0.697029 1.72691 0)
(-0.540732 2.8956 0)
(-0.215951 3.9556 0)
(0.389834 4.48628 0)
(1.15844 4.45277 0)
(1.84171 4.08103 0)
(2.56382 3.47913 0)
(3.16149 2.76651 0)
(3.7482 2.16332 0)
(3.87481 1.63065 0)
(4.30574 1.37139 0)
(4.13359 0.975454 0)
(4.79021 0.92611 0)
(4.36088 0.586363 0)
(5.30807 0.529852 0)
(4.53322 0.498959 0)
(5.69625 -0.0356216 0)
(4.658 0.826722 0)
(5.81369 -0.857197 0)
(4.83475 1.47098 0)
(5.67603 -1.58206 0)
(5.16781 1.82606 0)
(5.38777 -1.51256 0)
(5.5984 1.28271 0)
(5.06938 -0.734555 0)
(5.7579 0.546357 0)
(5.11284 -0.439199 0)
(5.52065 0.799065 0)
(5.37362 -1.16702 0)
(5.42591 1.63767 0)
(5.21577 -1.59449 0)
(5.74367 1.52269 0)
(5.01225 -1.12119 0)
(5.64548 1.18614 0)
(5.23327 -1.22844 0)
(5.41935 1.6845 0)
(5.30553 -1.69574 0)
(5.45136 1.7683 0)
(5.25736 -1.41172 0)
(5.36347 1.52664 0)
(5.28572 -1.59135 0)
(5.34839 2.03175 0)
(5.31361 -1.90341 0)
(5.26281 1.96721 0)
(5.37975 -1.68406 0)
(5.23656 2.15413 0)
(5.47329 -2.1743 0)
(5.18149 2.40544 0)
(5.62983 -1.95356 0)
(5.19299 2.40401 0)
(5.79637 -2.39445 0)
(5.19501 2.82553 0)
(5.9975 -2.2246 0)
(5.26318 2.98604 0)
(6.17459 -2.57437 0)
(5.48035 3.37582 0)
(6.46901 -2.21863 0)
(5.93575 3.82347 0)
(6.73273 -2.39548 0)
(6.45491 4.06671 0)
(7.07953 -1.66081 0)
(7.14023 4.70138 0)
(7.62557 -0.622162 0)
(8.02512 4.57464 0)
(8.36792 0.901621 0)
(9.57371 3.98105 0)
(12.9538 -0.416836 0)
(12.9442 -0.331703 0)
(13.1864 -0.538696 0)
(13.1299 -0.720169 0)
(12.9032 -0.587631 0)
(12.6375 -0.507624 0)
(12.391 -0.503669 0)
(12.31 -0.37558 0)
(12.4509 -0.255328 0)
(12.6282 -0.240317 0)
(12.7803 -0.180764 0)
(12.5175 0.0109244 0)
(12.5546 -0.0420891 0)
(13.015 -0.545087 0)
(13.2353 -1.1583 0)
(13.0948 -1.739 0)
(12.6509 -2.22544 0)
(12.276 -2.60609 0)
(11.5927 -2.94351 0)
(10.4223 -3.07147 0)
(8.97566 -2.82263 0)
(7.18479 -2.09809 0)
(4.90347 -0.95045 0)
(2.73957 -0.264976 0)
(1.61852 -0.90795 0)
(0.870246 -2.28373 0)
(0.0583522 -3.56605 0)
(-0.674081 -4.33044 0)
(-1.52858 -4.58594 0)
(-2.15383 -4.16931 0)
(-2.45514 -3.20412 0)
(-2.46411 -1.92251 0)
(-2.47833 -0.631543 0)
(-2.30818 0.559516 0)
(-2.10778 1.68783 0)
(-1.82861 2.78436 0)
(-1.28258 3.69735 0)
(-0.484874 4.1284 0)
(0.35685 4.11236 0)
(1.17632 3.75803 0)
(2.09015 3.15992 0)
(2.78195 2.49231 0)
(3.35399 1.99874 0)
(3.55091 1.51598 0)
(3.98954 1.31622 0)
(4.05386 0.873706 0)
(4.59531 0.87559 0)
(4.54156 0.456169 0)
(5.09606 0.499896 0)
(4.88729 0.362487 0)
(5.37533 -0.00841874 0)
(5.03489 0.698172 0)
(5.4918 -0.764413 0)
(5.00133 1.35693 0)
(5.57762 -1.4832 0)
(5.02181 1.75087 0)
(5.5349 -1.46378 0)
(5.35276 1.25397 0)
(5.18931 -0.696503 0)
(5.72525 0.471973 0)
(4.9741 -0.330807 0)
(5.70776 0.655511 0)
(5.20377 -1.0473 0)
(5.44039 1.55081 0)
(5.24662 -1.52168 0)
(5.68082 1.45542 0)
(4.87704 -0.990998 0)
(5.78771 1.03966 0)
(4.91736 -1.11111 0)
(5.53138 1.61111 0)
(5.05387 -1.65733 0)
(5.50697 1.72779 0)
(4.98564 -1.3044 0)
(5.48442 1.43234 0)
(5.04252 -1.50211 0)
(5.36332 1.99218 0)
(5.21038 -1.82573 0)
(5.32959 1.90481 0)
(5.27071 -1.61592 0)
(5.2232 2.11689 0)
(5.47624 -2.11076 0)
(5.2113 2.39237 0)
(5.56709 -1.86732 0)
(5.21603 2.44478 0)
(5.70033 -2.36155 0)
(5.19393 2.92383 0)
(5.88953 -2.11156 0)
(5.42086 3.04788 0)
(6.07874 -2.62895 0)
(5.58669 3.3525 0)
(6.25511 -2.21117 0)
(6.01857 3.93518 0)
(6.59283 -2.24401 0)
(6.5282 3.99177 0)
(7.02247 -1.55326 0)
(7.19232 4.25167 0)
(7.81088 -0.41784 0)