/*--------------------------------*- C++ -*----------------------------------*\
| =========                 |                                                 |
| \\      /  F ield         | OpenFOAM: The Open Source CFD Toolbox           |
|  \\    /   O peration     | Version:  2.4.0                                 |
|   \\  /    A nd           | Web:      www.OpenFOAM.org                      |
|    \\/     M anipulation  |                                                 |
\*---------------------------------------------------------------------------*/
FoamFile
{
    version     2.0;
    format      ascii;
    class       volScalarField;
    location    "0.085";
    object      k;
}
// * * * * * * * * * * * * * * * * * * * * * * * * * * * * * * * * * * * * * //

dimensions      [0 2 -2 0 0 0 0];

internalField   nonuniform List<scalar> 
17600
(
0.776909
4.42228
7.45627
8.34902
8.12491
7.44235
6.53195
5.73264
5.11788
4.61883
4.26278
3.96304
3.74615
3.54715
3.40803
3.25499
3.16008
3.03887
2.96855
2.86732
2.81806
2.72931
2.69298
2.61767
2.59008
2.52452
2.5044
2.44701
2.43309
2.38299
2.37448
2.3311
2.32819
2.28881
2.2933
2.24678
2.26404
2.18753
2.22186
2.07139
0.0131836
0.289941
1.04196
2.01753
2.68829
3.05239
3.20164
3.19587
3.16778
3.10155
3.04453
2.96473
2.91585
2.83209
2.78852
2.7129
2.67344
2.60505
2.57343
2.51026
2.48243
2.42705
2.40225
2.35247
2.33117
2.2865
2.26759
2.22772
2.21078
2.17441
2.15996
2.12654
2.11501
2.08435
2.07672
2.05075
2.04547
2.02987
2.00593
1.98056
9.5688e-05
0.00724236
0.0468915
0.144691
0.336569
0.520738
0.686988
0.802268
0.884808
0.938108
0.983567
1.00179
1.03509
1.05534
1.07311
1.09685
1.11418
1.12736
1.14482
1.16278
1.17083
1.18752
1.19582
1.20888
1.21438
1.22656
1.23021
1.23929
1.24215
1.24914
1.25015
1.25419
1.25433
1.25705
1.25695
1.26173
1.26212
1.27287
1.27084
1.26402
2.07283e-05
0.00014502
0.00136464
0.00615121
0.0185347
0.0447866
0.0729558
0.110714
0.139495
0.167154
0.192351
0.210034
0.225913
0.245351
0.253569
0.269998
0.279369
0.291504
0.300395
0.314309
0.320451
0.333033
0.340836
0.353109
0.359511
0.372715
0.378937
0.390552
0.398708
0.409985
0.417046
0.428942
0.434673
0.445814
0.451477
0.463704
0.468959
0.480557
0.479829
0.481176
2.02513e-05
2.27387e-05
5.16924e-05
0.000207087
0.000718146
0.0022139
0.0040975
0.00845691
0.0112496
0.0169099
0.0207315
0.024784
0.0282345
0.034143
0.0365166
0.0413892
0.043716
0.0485437
0.0513133
0.0559504
0.0578103
0.0616189
0.0641211
0.0682647
0.0702105
0.0739802
0.0763516
0.0781151
0.0821695
0.0842016
0.0871384
0.0898789
0.0923831
0.0949129
0.09666
0.099681
0.101322
0.104488
0.105881
0.107024
2.01407e-05
2.08071e-05
2.26158e-05
2.83852e-05
4.583e-05
0.000103965
0.000187254
0.000436049
0.000607147
0.00105614
0.00129123
0.00179188
0.00203707
0.0026803
0.00295088
0.00366063
0.00395453
0.00468922
0.0050151
0.00586029
0.00613662
0.00689975
0.00722284
0.00808572
0.00839598
0.00929627
0.00955491
0.0102608
0.0105264
0.0113168
0.0115664
0.0124158
0.0126218
0.013325
0.0134257
0.0140405
0.0141429
0.0151036
0.0154594
0.0169551
2.00789e-05
2.07687e-05
2.16629e-05
2.44243e-05
2.65819e-05
3.26825e-05
3.69035e-05
5.0041e-05
5.84105e-05
8.20086e-05
9.36944e-05
0.000122178
0.000135629
0.000172791
0.000188741
0.000235743
0.00025651
0.000309939
0.000333159
0.000398523
0.000419615
0.000482473
0.000510339
0.000586636
0.00061411
0.000702316
0.000727866
0.000796696
0.000819397
0.000891292
0.000911847
0.000993334
0.00101621
0.00108956
0.00110094
0.00113509
0.00113732
0.00116455
0.00119018
0.00133982
2.00602e-05
2.03745e-05
2.1372e-05
2.27196e-05
2.48521e-05
2.88051e-05
3.05955e-05
3.39926e-05
3.68288e-05
3.87023e-05
4.01105e-05
4.25066e-05
4.34322e-05
4.53989e-05
4.63676e-05
4.82999e-05
4.96972e-05
5.26683e-05
5.41127e-05
5.71284e-05
5.86129e-05
5.99213e-05
6.31931e-05
6.60685e-05
6.77742e-05
7.21461e-05
7.60418e-05
7.72344e-05
7.96216e-05
8.06924e-05
8.17195e-05
8.44032e-05
8.91076e-05
9.16002e-05
9.30382e-05
9.31298e-05
9.34563e-05
9.32116e-05
9.41682e-05
0.000107215
2.00132e-05
2.05707e-05
2.10902e-05
2.32656e-05
2.45312e-05
2.86239e-05
2.99774e-05
3.3703e-05
3.47071e-05
3.70362e-05
3.74972e-05
3.89671e-05
3.91586e-05
3.99738e-05
4.01713e-05
4.07947e-05
4.09393e-05
4.17225e-05
4.1833e-05
4.23461e-05
4.2501e-05
4.29263e-05
4.2961e-05
4.33979e-05
4.35147e-05
4.40357e-05
4.42518e-05
4.48327e-05
4.48902e-05
4.51293e-05
4.51445e-05
4.55149e-05
4.56918e-05
4.64352e-05
4.66506e-05
4.75068e-05
4.76089e-05
4.80682e-05
4.8984e-05
5.95002e-05
2.00074e-05
2.0273e-05
2.08451e-05
2.24195e-05
2.38143e-05
2.70855e-05
2.87807e-05
3.1641e-05
3.30342e-05
3.39836e-05
3.54342e-05
3.65281e-05
3.66726e-05
3.67257e-05
3.69912e-05
3.72404e-05
3.78862e-05
3.83277e-05
3.83593e-05
3.83399e-05
3.84487e-05
3.84551e-05
3.85434e-05
3.88633e-05
3.91441e-05
3.91786e-05
3.93538e-05
3.94286e-05
3.96166e-05
3.96638e-05
3.98183e-05
3.98969e-05
4.01746e-05
4.03425e-05
4.08867e-05
4.1197e-05
4.20251e-05
4.25097e-05
4.40181e-05
5.50018e-05
2.0004e-05
2.08168e-05
2.12035e-05
2.35742e-05
2.47363e-05
2.89034e-05
3.00792e-05
3.40727e-05
3.47505e-05
3.71832e-05
3.75727e-05
3.91074e-05
3.92322e-05
4.03025e-05
4.03634e-05
4.12127e-05
4.13157e-05
4.22077e-05
4.22523e-05
4.3028e-05
4.3082e-05
4.36573e-05
4.36415e-05
4.42999e-05
4.43369e-05
4.50727e-05
4.52023e-05
4.60267e-05
4.60835e-05
4.68072e-05
4.68549e-05
4.76303e-05
4.77262e-05
4.87141e-05
4.88703e-05
5.03428e-05
5.05791e-05
5.32021e-05
5.51822e-05
7.65425e-05
2.00336e-05
2.03995e-05
2.09627e-05
2.33149e-05
2.47327e-05
2.85875e-05
3.01062e-05
3.40501e-05
3.48921e-05
3.76423e-05
3.81804e-05
3.96903e-05
3.99842e-05
4.12155e-05
4.13071e-05
4.24066e-05
4.25884e-05
4.3409e-05
4.35368e-05
4.46029e-05
4.46444e-05
4.54902e-05
4.56242e-05
4.65463e-05
4.66468e-05
4.79409e-05
4.81239e-05
4.94079e-05
4.95929e-05
5.11393e-05
5.12696e-05
5.30274e-05
5.33066e-05
5.55198e-05
5.61903e-05
6.02325e-05
6.23936e-05
7.27256e-05
7.96231e-05
0.000106808
2.03671e-05
2.05581e-05
2.27366e-05
2.35808e-05
2.78725e-05
2.9081e-05
3.48311e-05
3.60011e-05
4.06648e-05
4.19048e-05
4.55694e-05
4.64547e-05
4.97631e-05
5.07355e-05
5.31749e-05
5.52956e-05
5.72443e-05
5.93762e-05
6.26542e-05
6.68081e-05
6.8613e-05
7.29029e-05
7.52801e-05
8.02292e-05
8.2898e-05
8.99979e-05
9.32557e-05
0.000101656
0.000106476
0.000117902
0.0001233
0.000138738
0.000146634
0.000167467
0.00018282
0.000223856
0.000254005
0.000335307
0.00039143
0.000516822
2.02077e-05
2.05339e-05
2.21667e-05
2.36572e-05
2.7546e-05
3.08485e-05
3.99349e-05
4.6541e-05
6.47136e-05
7.53856e-05
0.000100704
0.000113738
0.000146338
0.000162734
0.00020032
0.000221838
0.000271932
0.000295549
0.000356337
0.000386588
0.000452104
0.000484899
0.000562426
0.000595221
0.000678362
0.000725455
0.000832939
0.000888653
0.00102731
0.00109523
0.00124091
0.00136227
0.00148797
0.00170344
0.00191258
0.00225091
0.00251656
0.00308908
0.0034806
0.00432957
2.06373e-05
2.13345e-05
2.33335e-05
2.92285e-05
4.82053e-05
9.48942e-05
0.000235767
0.00037951
0.000730278
0.000940172
0.00142487
0.00167004
0.00223149
0.0025206
0.00313958
0.00346657
0.00420004
0.00454518
0.00532581
0.0057136
0.00651674
0.00689308
0.00774674
0.00813066
0.00899963
0.00947002
0.0105013
0.011008
0.0121833
0.012759
0.0140258
0.0147284
0.0161309
0.0173327
0.0187956
0.0204648
0.0222203
0.024893
0.0266561
0.0304343
2.0422e-05
2.29924e-05
5.19881e-05
0.000207682
0.000763399
0.00195454
0.00501109
0.00751054
0.0129156
0.0156531
0.0216336
0.0242293
0.0299071
0.0324713
0.0378783
0.0402952
0.0457798
0.0479763
0.0530374
0.0552063
0.0600087
0.0619155
0.066746
0.0686028
0.0733316
0.0754503
0.080716
0.0828406
0.0886004
0.090959
0.0971515
0.100002
0.107385
0.110753
0.119554
0.123388
0.132002
0.138384
0.144254
0.158129
2.05996e-05
0.000142933
0.00136101
0.00623934
0.0200687
0.04169
0.0768135
0.108314
0.143023
0.1643
0.195068
0.206964
0.230237
0.240281
0.258641
0.266672
0.283878
0.290542
0.305496
0.312104
0.326567
0.3326
0.347929
0.354029
0.369419
0.376339
0.393268
0.400002
0.418181
0.425487
0.444763
0.453127
0.474944
0.483888
0.507608
0.516194
0.538444
0.545608
0.555529
0.583977
9.60766e-05
0.00723003
0.0467024
0.149914
0.328274
0.527665
0.680497
0.809754
0.87824
0.945901
0.976384
1.01121
1.02788
1.06078
1.07306
1.09994
1.11224
1.13479
1.14494
1.1668
1.17503
1.19223
1.20231
1.21727
1.22471
1.24066
1.24679
1.25853
1.26597
1.27703
1.28292
1.29517
1.30056
1.3115
1.31526
1.32312
1.32276
1.32361
1.32439
1.35004
0.0132211
0.290475
1.03716
2.02141
2.67996
3.06224
3.19733
3.1971
3.15927
3.11794
3.02593
2.98459
2.89291
2.85456
2.76618
2.73316
2.65329
2.62414
2.55275
2.5281
2.46324
2.44307
2.38489
2.36685
2.31439
2.29839
2.24908
2.23536
2.18966
2.17637
2.13361
2.12017
2.07783
2.06346
2.02038
2.0042
1.96128
1.95027
1.92494
1.91688
0.776271
4.43231
7.44595
8.35343
8.12391
7.45276
6.51419
5.75015
5.09204
4.64243
4.23285
3.98739
3.71455
3.57298
3.37068
3.28368
3.11886
3.06108
2.92817
2.88475
2.77328
2.7408
2.642
2.61681
2.52877
2.50613
2.42539
2.40406
2.3275
2.30453
2.2318
2.20326
2.13363
2.09527
2.03468
1.98003
1.94425
1.87225
1.84323
1.72436
1.55693
1.23722
1.06419
0.945141
0.830091
0.709924
0.598975
0.501796
0.427911
0.374571
0.336706
0.304635
0.279668
0.257943
0.24089
0.223824
0.212857
0.205065
0.201964
0.202221
0.203284
0.205772
0.208882
0.213859
0.21895
0.225158
0.233993
0.241407
0.24975
0.258049
0.263206
0.270958
0.276192
0.283318
0.288467
0.293068
0.295278
0.299769
0.303207
0.30771
0.309033
0.311677
0.312351
0.313002
0.313844
0.314619
0.316104
0.317197
0.317348
0.317601
0.318029
0.317979
0.318298
0.318084
0.318211
0.317566
0.317032
0.315537
0.314489
0.311991
0.310797
0.308103
0.306953
0.30459
0.303275
0.301293
0.298895
0.29761
0.294678
0.29192
0.289376
0.285783
0.282456
0.279262
0.275331
0.271575
0.267823
0.262753
0.259073
0.252499
0.248124
0.241435
0.235074
0.228195
0.220084
0.210843
0.199785
0.188285
0.175455
0.160559
0.146022
0.129952
0.112567
0.0964154
0.0795503
0.0620567
0.0477404
0.0362951
0.0278657
0.0212502
0.0164583
0.0129973
0.0103471
0.00849106
0.00693445
0.00579186
0.00488987
0.0038486
0.00305296
0.00242216
0.00200068
0.00176303
0.00161716
0.00156332
0.00152715
0.00150258
0.00150298
0.00153358
0.00162922
0.00176718
0.00184924
0.00202231
0.00215567
0.00246351
0.00267502
0.00285763
0.00304638
0.00326053
0.00338834
0.00348917
0.00367757
0.00382303
0.00412823
0.00458504
0.00521712
0.00588315
0.00645246
0.00768248
0.00938278
0.0116865
0.0157573
0.0238273
0.0431143
0.079341
0.111599
0.129508
0.139331
0.145242
0.146294
0.145479
0.142061
0.132685
0.11574
0.101336
0.0922305
0.0857873
0.0801263
0.0764348
0.0734209
0.0715362
0.0694645
0.0675909
0.065677
0.0631851
0.0610933
0.0579212
0.0553023
0.0526933
0.0505831
0.0488392
0.0476598
0.0467588
0.0463481
0.046245
0.0463156
0.0464826
0.0468118
0.0473461
0.0479403
0.0492162
0.0505746
0.0524021
0.0552472
0.058777
0.0613843
0.0631397
0.0632633
0.0629568
0.0622748
0.0608837
0.0597546
0.0572499
0.0553495
0.0515092
0.0481368
0.0430965
0.0383539
0.0333808
0.0302154
0.0285056
0.0272888
0.0266648
0.025832
0.0254672
0.0250076
0.024632
0.0243512
0.024153
0.0240454
0.0240403
0.0242072
0.0246191
0.0257789
0.0284231
0.0335584
0.0371061
0.0413962
0.044221
0.0470695
0.0484211
0.0503065
0.0515474
0.0529837
0.0536815
0.0548252
0.055437
0.0557628
0.055758
0.0560009
0.0565253
0.0566041
0.0523748
0.0462944
0.0438294
0.0444278
0.0470309
0.0481602
0.04312
0.0317002
0.0222273
0.0180392
0.0148483
0.0135933
0.0132737
0.013644
0.0138522
0.0140117
0.0138915
0.0134446
0.0130019
0.012293
0.0118681
0.011402
0.011406
0.0114145
0.0118974
0.0120463
0.0124286
0.0124292
0.0125392
0.0124833
0.0125265
0.0123705
0.0123174
0.0121729
0.0121721
0.0119745
0.0116466
0.0112484
0.0105204
0.00994815
0.00894954
0.00810741
0.00694521
0.0061453
0.00538507
0.00499197
0.00479033
0.00475544
0.00488826
0.00498838
0.00512553
0.00507103
0.0048502
0.00449724
0.00427316
0.00420476
0.00420909
0.00441355
0.00453563
0.00461818
0.00461749
0.00457943
0.0044748
0.00433592
0.00425587
0.00416088
0.00411148
0.00408252
0.00408074
0.00408689
0.00413031
0.00413259
0.00413767
0.00410401
0.00406721
0.00396064
0.00386257
0.00365254
0.00350784
0.00330121
0.00310622
0.00288681
0.00266056
0.0024518
0.00222296
0.00204591
0.00182964
0.00169336
0.00149201
0.0013907
0.00121029
0.00113312
0.000977533
0.000916725
0.000788803
0.000743459
0.000643215
0.000612676
0.000539051
0.00052112
0.000470025
0.00046345
0.000440833
0.000448605
0.000438598
0.000454705
0.000451104
0.000471547
0.000470981
0.00049368
0.000496096
0.000522586
0.000524306
0.000542862
0.000538983
0.000545401
0.000533854
0.000531088
0.000511493
0.000504003
0.000475087
0.000463897
0.000438523
0.000428703
0.000426148
0.000426862
0.00044368
0.000449441
0.000489248
0.000501162
0.000567614
0.000584855
0.000672355
0.000692223
0.000791263
0.000813337
0.000906897
0.000910133
0.00094314
0.00090987
0.000896092
0.000824368
0.000798063
0.000740032
0.000735571
0.000753497
0.000767567
0.000853975
0.000883136
0.00103108
0.00106457
0.00126638
0.00128548
0.00139763
0.00134515
0.00131822
0.00129551
0.00132523
0.00162516
0.00175066
0.00284222
0.00318335
0.00562039
0.00666854
0.00990034
0.0181205
0.0371322
0.194501
1.12421
1.79247
1.59363
1.42519
1.30274
1.2128
1.14314
1.07832
1.01579
0.950084
0.882821
0.818234
0.762485
0.711095
0.666804
0.626065
0.592086
0.55959
0.531296
0.505889
0.482559
0.463844
0.44545
0.430536
0.417369
0.40758
0.397207
0.390817
0.386299
0.379331
0.375614
0.37282
0.366531
0.36378
0.359619
0.353636
0.350953
0.345104
0.34163
0.337813
0.331996
0.328223
0.321444
0.31474
0.31091
0.300251
0.295183
0.285659
0.27887
0.269438
0.260247
0.25465
0.244734
0.237029
0.232949
0.224551
0.221181
0.215361
0.21154
0.206662
0.200607
0.198022
0.190887
0.187764
0.183115
0.179628
0.176204
0.17251
0.170997
0.167276
0.165209
0.161594
0.158639
0.154658
0.150533
0.145922
0.140512
0.13567
0.129565
0.123968
0.117765
0.11111
0.104776
0.0974328
0.0900917
0.0821283
0.0743984
0.0667144
0.059129
0.0518814
0.0448749
0.0383366
0.0322483
0.0266758
0.0218997
0.0176777
0.014242
0.0115352
0.00944974
0.00793011
0.00672472
0.00572513
0.00498748
0.00420432
0.00369942
0.00314233
0.00265456
0.00219455
0.00179712
0.00154528
0.00138321
0.00137357
0.00141448
0.00146654
0.00151214
0.00154018
0.00159253
0.00169785
0.00200873
0.00234068
0.00256444
0.00271006
0.00279324
0.00299761
0.00335505
0.00364807
0.00394067
0.0040667
0.00414682
0.00422002
0.00433716
0.00468943
0.00508559
0.0055921
0.00647337
0.00739582
0.00827152
0.00939621
0.0115305
0.0143395
0.0187536
0.0288333
0.0528824
0.106934
0.133982
0.144426
0.148498
0.152069
0.151901
0.149448
0.142323
0.123922
0.108874
0.0983121
0.0912366
0.08571
0.080864
0.0764253
0.0735477
0.0710444
0.0688837
0.0660145
0.0633314
0.0597941
0.0560675
0.0517569
0.0485912
0.0462335
0.0445535
0.0432133
0.0420909
0.0412221
0.0404624
0.0396855
0.0391857
0.0390998
0.03918
0.0394052
0.0399816
0.0404992
0.0417841
0.0430095
0.0445596
0.0468303
0.0493637
0.0526462
0.0563042
0.059616
0.061061
0.0613865
0.0610803
0.0604591
0.0595587
0.0578023
0.0561677
0.0527168
0.0502481
0.0455378
0.0419374
0.0374736
0.0336626
0.030564
0.0286719
0.0272171
0.0262136
0.0255982
0.0249848
0.024735
0.0242917
0.0242467
0.0242055
0.0242913
0.024474
0.0249074
0.0257482
0.0268994
0.0300726
0.0339619
0.0369583
0.0383937
0.0416047
0.0451396
0.0489889
0.0508047
0.0523966
0.0526874
0.0533545
0.0530593
0.0525004
0.0514115
0.051605
0.0507962
0.0457806
0.0411182
0.0405951
0.0417257
0.0434131
0.0430972
0.0369771
0.0250057
0.016702
0.0123976
0.0109447
0.0107079
0.0111946
0.0125283
0.0136
0.0142194
0.0144592
0.0145207
0.0144654
0.0142711
0.0140571
0.0138463
0.0137199
0.013604
0.0136265
0.0136391
0.0137835
0.0137664
0.0138089
0.013757
0.0137721
0.013726
0.013614
0.0132679
0.012533
0.0116677
0.0106288
0.00968116
0.00895629
0.00818891
0.00737076
0.00637496
0.0054982
0.0048117
0.0043985
0.00424323
0.00420704
0.00433681
0.00447783
0.00471086
0.00473993
0.00475819
0.00455299
0.00433884
0.00416571
0.00412692
0.00414319
0.00422246
0.00443
0.00449118
0.00462002
0.00463893
0.00479334
0.00480023
0.00488522
0.00484903
0.00489526
0.00483849
0.00475717
0.00452009
0.0043857
0.00427817
0.00420898
0.00419026
0.00417188
0.00417467
0.00415984
0.00407899
0.00398239
0.00376056
0.00364995
0.00341843
0.00331579
0.00310291
0.00298495
0.00281674
0.00266624
0.00253761
0.00235279
0.00223332
0.00201536
0.00189832
0.00166308
0.00154967
0.00132669
0.0012238
0.00103528
0.000941168
0.000798748
0.000715502
0.000622197
0.000554104
0.000503804
0.000453461
0.000435136
0.000401031
0.000395235
0.000380555
0.000387976
0.000386346
0.000405187
0.000408809
0.00044405
0.000452828
0.000503291
0.000515755
0.000578226
0.000593865
0.000665996
0.000684018
0.000760624
0.000776815
0.0008429
0.000845936
0.000878365
0.000864194
0.000871643
0.000838641
0.000828277
0.000771252
0.000754873
0.000712335
0.000705544
0.00071526
0.000720763
0.0007769
0.000793068
0.000908685
0.000931252
0.00109254
0.00111894
0.00131845
0.00134338
0.00149288
0.00146452
0.00150328
0.00141529
0.00137724
0.00123931
0.00118356
0.0011906
0.00120424
0.00137037
0.00141291
0.00181531
0.00187154
0.00242991
0.00235855
0.00269977
0.00243776
0.00264268
0.00325218
0.00393934
0.00823323
0.0096154
0.0243927
0.029873
0.0669773
0.284824
1.19179
1.11109
1.02995
0.962714
0.907101
0.863644
0.825495
0.795634
0.767695
0.737599
0.709708
0.677511
0.64976
0.624876
0.597284
0.579002
0.555924
0.534142
0.51648
0.491058
0.473966
0.453658
0.432836
0.420108
0.399644
0.386841
0.372184
0.353821
0.34502
0.328771
0.318927
0.309165
0.295804
0.288951
0.274165
0.261338
0.250597
0.231872
0.222485
0.20675
0.195437
0.185847
0.173891
0.16852
0.157535
0.150152
0.141086
0.128647
0.120549
0.106923
0.0979219
0.0883632
0.0799057
0.0750024
0.0685697
0.0660263
0.0625344
0.0607554
0.0588039
0.056444
0.0555641
0.0527062
0.0511994
0.0487056
0.0462737
0.0445712
0.0421724
0.0412283
0.0395284
0.0385032
0.0375723
0.0366096
0.0360642
0.0347339
0.033833
0.0322395
0.0307985
0.0291035
0.0272312
0.0255297
0.0235183
0.0218935
0.0200548
0.0185266
0.0169929
0.0155508
0.0142402
0.0128579
0.011596
0.0102973
0.00898803
0.0077944
0.0065774
0.00559031
0.00466635
0.00397179
0.00344226
0.00303016
0.00270744
0.00242029
0.00214793
0.00194187
0.00173079
0.00165222
0.00152688
0.00144277
0.00134088
0.00124717
0.00121263
0.00120798
0.00127072
0.00148556
0.00168439
0.00185778
0.00196546
0.00216327
0.00267503
0.0031581
0.0034713
0.00356233
0.0035686
0.00361016
0.0039438
0.00439404
0.00486978
0.00512482
0.00526764
0.00544661
0.00567808
0.00616505
0.00707766
0.00767923
0.00820778
0.00935742
0.0103671
0.0117602
0.0149248
0.0184426
0.0232226
0.0344367
0.0622906
0.121561
0.148681
0.155735
0.157097
0.159164
0.158108
0.153372
0.141499
0.125915
0.111584
0.101014
0.0931761
0.0878058
0.0822378
0.0757999
0.0715442
0.0689184
0.0664265
0.063505
0.0603879
0.0563851
0.0523894
0.0488442
0.0462612
0.044416
0.0430329
0.0419839
0.0412704
0.0404886
0.0398153
0.0391993
0.0383322
0.0376522
0.0372365
0.0367168
0.0365574
0.0365906
0.0367457
0.0371231
0.0381154
0.0389778
0.0409941
0.042543
0.045779
0.0486659
0.0525818
0.0565058
0.0589791
0.0603202
0.0602827
0.0602239
0.0595076
0.0587727
0.0570393
0.0549614
0.0520672
0.0485384
0.0458765
0.0417221
0.038888
0.0345997
0.0315309
0.0287235
0.0273934
0.02614
0.0253854
0.0249725
0.0246872
0.0246691
0.0246381
0.024868
0.0251619
0.0261166
0.0269646
0.0296969
0.0320112
0.035044
0.0364524
0.0378798
0.0416035
0.0468628
0.0492064
0.0492223
0.0490526
0.0491861
0.0491337
0.0481958
0.0460865
0.0450622
0.0440654
0.0411802
0.039177
0.0389108
0.0397126
0.0398569
0.0346361
0.0230247
0.0154077
0.0116009
0.0103108
0.0101279
0.010191
0.0109135
0.0117647
0.0124219
0.0129249
0.0132596
0.013376
0.0134399
0.0136489
0.0137274
0.0139059
0.0138449
0.0140217
0.0139228
0.0141565
0.0140202
0.0142199
0.013969
0.0140417
0.0136646
0.0134857
0.0126504
0.0117279
0.0102494
0.00883631
0.00773203
0.00687798
0.00639005
0.00583052
0.00544605
0.00498469
0.00467029
0.00437114
0.00416029
0.00402176
0.00393993
0.00393357
0.00394149
0.00413035
0.00430502
0.00447216
0.00447734
0.00446378
0.00433363
0.00418676
0.00404111
0.00395649
0.00394118
0.00396583
0.00410679
0.00419178
0.00422256
0.00418332
0.00404447
0.00390078
0.00384596
0.0038203
0.00383863
0.00386544
0.00392543
0.00392954
0.0039445
0.00392126
0.00392416
0.00386433
0.00385106
0.00375844
0.00372784
0.0035951
0.00354507
0.00339705
0.00334319
0.00320982
0.00316476
0.00306066
0.00301756
0.00290947
0.00285285
0.00270672
0.00262137
0.00241179
0.00230143
0.00205751
0.00194546
0.00172513
0.00162014
0.00145464
0.0013721
0.00125163
0.00118199
0.00109129
0.00104403
0.000977621
0.000946247
0.000894714
0.000872292
0.000824112
0.000804073
0.000755294
0.000736449
0.000686132
0.00066767
0.000622391
0.000611283
0.000588155
0.000579753
0.000582533
0.00058468
0.000606166
0.00061519
0.000663781
0.00068044
0.000760179
0.000784775
0.000893265
0.000922857
0.00105536
0.00109592
0.00125127
0.00128961
0.00141938
0.00143025
0.0014925
0.00146501
0.00146885
0.00139848
0.00136821
0.0012514
0.00124031
0.00121452
0.00122117
0.00128748
0.00131962
0.00150827
0.0015599
0.0018543
0.0019186
0.00233376
0.00236847
0.00264895
0.00252892
0.00258518
0.00224839
0.00222881
0.00218145
0.00222419
0.002726
0.00286847
0.00450969
0.00426686
0.00773022
0.00709138
0.0125097
0.0119752
0.0155278
0.0232345
0.0299303
0.076486
0.469723
0.457611
0.436026
0.41931
0.395727
0.377576
0.363807
0.350345
0.345506
0.337486
0.330491
0.323154
0.308905
0.298746
0.28235
0.268627
0.256504
0.242027
0.234588
0.223985
0.21573
0.20771
0.194863
0.184613
0.168562
0.153833
0.139853
0.125479
0.115563
0.106138
0.0998009
0.0959423
0.0912156
0.0887352
0.0843125
0.0795942
0.0746551
0.0677496
0.0620501
0.0554864
0.0498147
0.045572
0.0412823
0.039045
0.0366183
0.0349282
0.0336113
0.0313287
0.0298864
0.0270955
0.0249138
0.0223603
0.0198734
0.0180526
0.0160707
0.0150377
0.0140191
0.013359
0.0130399
0.0125509
0.012376
0.011822
0.01141
0.0106985
0.00998348
0.0093935
0.00866637
0.00822808
0.00778961
0.0074442
0.00730601
0.00712739
0.00705193
0.00690643
0.00678436
0.0064967
0.00615389
0.00577548
0.00529114
0.00487632
0.00441861
0.00402939
0.00372227
0.0034278
0.00329106
0.00307972
0.00298301
0.0027918
0.00264386
0.00240232
0.00215858
0.00191226
0.00166509
0.00146834
0.00129821
0.00117692
0.00110741
0.00102731
0.000950533
0.000878017
0.00086534
0.00088193
0.000935319
0.001074
0.00115266
0.00121044
0.0012261
0.00121388
0.00122331
0.00133362
0.00177556
0.00227333
0.00254317
0.00271793
0.00289345
0.00341752
0.00396362
0.00429482
0.00446961
0.004536
0.00461951
0.00504905
0.00544963
0.00589773
0.00624501
0.00649145
0.00688367
0.00735929
0.00803272
0.00940642
0.0105476
0.011089
0.0122087
0.0136852
0.0152031
0.0195486
0.0252672
0.0307835
0.0431099
0.0777756
0.135084
0.158901
0.162581
0.164518
0.165801
0.164908
0.160646
0.150569
0.137478
0.120318
0.106852
0.0962011
0.0881504
0.0811717
0.0752549
0.0708252
0.0684353
0.0668023
0.0643369
0.0611932
0.0569859
0.0523041
0.0485691
0.0457258
0.0439609
0.0427029
0.0418769
0.0410423
0.0405986
0.0399349
0.0391972
0.0384125
0.0379665
0.0372349
0.0368674
0.0363645
0.0358865
0.035498
0.0354731
0.0355239
0.0357733
0.0362793
0.0371127
0.0387263
0.0403568
0.0439356
0.0467339
0.0511902
0.0546522
0.0583067
0.0597321
0.0602927
0.0602059
0.0597483
0.0592012
0.0572421
0.0558036
0.0525296
0.0506014
0.0475623
0.0446801
0.0415343
0.0382962
0.0349004
0.0310798
0.0293636
0.0270372
0.0263069
0.025445
0.0255535
0.0255121
0.0255901
0.0257332
0.0261838
0.0273683
0.0285224
0.0315846
0.0337259
0.0354989
0.0363452
0.0399101
0.0426957
0.0445695
0.0441796
0.0436071
0.0424826
0.0427105
0.042552
0.0418999
0.0383999
0.0375714
0.0375339
0.0387634
0.0388402
0.038113
0.0302623
0.0212203
0.0145308
0.0109963
0.00941363
0.00928621
0.0095402
0.00981279
0.00954509
0.00893251
0.00868481
0.00875782
0.00949367
0.01001
0.0101998
0.00987952
0.00945962
0.00896498
0.0089979
0.00887856
0.00901935
0.00898321
0.00927187
0.00933225
0.009676
0.00963674
0.00967166
0.00900307
0.00833077
0.0073593
0.00663657
0.00605406
0.00558714
0.00541259
0.00519173
0.00514317
0.00495157
0.0048707
0.00465262
0.00460864
0.00448196
0.00449149
0.00446946
0.0045876
0.00470942
0.00482456
0.00490894
0.00491343
0.00494888
0.00491579
0.00490799
0.00467876
0.0045046
0.00424645
0.00420853
0.00417274
0.00419387
0.00437566
0.00472645
0.00506458
0.0052303
0.00531299
0.00528661
0.00511135
0.00494732
0.00482181
0.00480172
0.00477502
0.00479883
0.00476802
0.0047808
0.00470787
0.00464418
0.00438978
0.00424605
0.00390593
0.00378096
0.00354375
0.00346275
0.0033099
0.00323819
0.0031313
0.00306772
0.00299639
0.00286088
0.00274645
0.00251655
0.00236892
0.00208866
0.00194346
0.00166558
0.00155214
0.00132109
0.00124051
0.00106976
0.00102169
0.000906671
0.000887182
0.000830466
0.000847271
0.000828146
0.000866265
0.000861221
0.000914416
0.000915461
0.000985736
0.00100011
0.00109539
0.00111612
0.00121548
0.00123053
0.00131381
0.0013176
0.00137182
0.0013646
0.00139579
0.00136503
0.00137281
0.00131882
0.0013061
0.0012228
0.0012038
0.00114563
0.0011286
0.00113308
0.0011394
0.0011987
0.00121663
0.00135118
0.00138577
0.00160057
0.00164316
0.00193021
0.00199756
0.00235751
0.00241545
0.00271963
0.00272362
0.00286597
0.00275451
0.00276066
0.00252243
0.002478
0.00231726
0.0023193
0.00240549
0.00246942
0.00291992
0.00303055
0.00402724
0.00397393
0.00549389
0.00522543
0.00742552
0.00681026
0.00921906
0.00848737
0.00987201
0.00964568
0.0102667
0.0128766
0.0135144
0.0193312
0.0211668
0.0303848
0.105017
0.102713
0.0976873
0.0948038
0.0904365
0.087266
0.0848691
0.0826882
0.0820125
0.081529
0.0811021
0.0805221
0.0782593
0.0756588
0.0714066
0.0673102
0.0633309
0.059285
0.0564196
0.0536635
0.0521171
0.0507887
0.0489678
0.0468365
0.043501
0.0402252
0.0362978
0.03242
0.0290225
0.0259499
0.0239329
0.0223696
0.021465
0.0208145
0.0201597
0.0193228
0.0181924
0.0167131
0.0150716
0.0133571
0.0116902
0.0103766
0.00923128
0.00853498
0.00803287
0.00767705
0.00747312
0.00707566
0.00674485
0.00616745
0.00558383
0.00496458
0.00430395
0.00383001
0.00334229
0.00308099
0.00286812
0.00275359
0.00270042
0.00262609
0.00258656
0.00244376
0.00232099
0.00213639
0.00194723
0.00178161
0.00161872
0.00152128
0.00143875
0.00140247
0.00139213
0.00139102
0.00139251
0.00138447
0.00134709
0.00129056
0.00119451
0.00111038
0.00099937
0.000911164
0.000831752
0.000764676
0.000725676
0.000688959
0.000676523
0.000660844
0.000651926
0.000634222
0.000610586
0.000586557
0.000553792
0.000546959
0.000547513
0.000558532
0.000578294
0.000595524
0.00060818
0.00060591
0.000601309
0.000601561
0.000617983
0.00074088
0.000858264
0.00105792
0.00126514
0.00145265
0.00159315
0.00162252
0.0018167
0.00225047
0.002788
0.0033297
0.00357097
0.00398664
0.00461769
0.00511163
0.00548061
0.00567284
0.00586948
0.00605205
0.00656372
0.00698093
0.00736652
0.00831445
0.00884949
0.00961619
0.0107113
0.0113682
0.0118281
0.0127049
0.0133274
0.0142429
0.017136
0.0197667
0.0233664
0.0331958
0.0395166
0.048898
0.0880735
0.153638
0.168953
0.166532
0.166892
0.168284
0.168288
0.166768
0.161886
0.151629
0.132357
0.114323
0.100627
0.0907591
0.0832075
0.0776059
0.0725385
0.0689714
0.067375
0.0653551
0.0619427
0.0570004
0.0525381
0.0485968
0.0456889
0.0437556
0.0423935
0.0415943
0.0411156
0.0405397
0.0397931
0.038834
0.0382131
0.0377552
0.0371095
0.036645
0.0364197
0.0360862
0.0356798
0.0354456
0.035397
0.0354659
0.03557
0.0359872
0.0364109
0.037611
0.0386209
0.0409043
0.0435987
0.0470307
0.0513453
0.0546304
0.0584858
0.0597957
0.06133
0.0612755
0.0610795
0.0603488
0.0584636
0.0568131
0.053391
0.0520006
0.0486545
0.0470511
0.0433172
0.0413215
0.037373
0.0331861
0.0299065
0.0275263
0.0266052
0.0256561
0.0256272
0.0255539
0.0259873
0.0262867
0.0274445
0.0281982
0.030429
0.0313814
0.0320684
0.0326282
0.0346584
0.0373582
0.0384018
0.0385366
0.0379195
0.0371025
0.0362069
0.0362057
0.0359986
0.0348719
0.0330666
0.033034
0.0346019
0.0351477
0.030966
0.0222684
0.0153796
0.0110966
0.00864892
0.00770765
0.00749268
0.00754506
0.00757759
0.00753299
0.0072427
0.00699723
0.0069854
0.00762721
0.00875163
0.00922803
0.00916104
0.00805349
0.00689834
0.00601107
0.00555747
0.00520407
0.005018
0.00478413
0.00463594
0.00445308
0.00436823
0.004225
0.00413229
0.00400979
0.00395572
0.00391204
0.00391059
0.00390492
0.00391053
0.00390117
0.00389767
0.00385773
0.00382425
0.00379466
0.00377634
0.00376878
0.00373581
0.0037031
0.003706
0.00389321
0.00465007
0.00529671
0.0059093
0.00624704
0.00644428
0.00648464
0.00647251
0.0063942
0.00592121
0.00541206
0.00497192
0.00482107
0.00477782
0.00481991
0.00500835
0.00521219
0.00529336
0.00528066
0.00524612
0.00516396
0.0052007
0.00517443
0.00528037
0.00525355
0.00540871
0.0053628
0.00551696
0.0054346
0.00552197
0.00542781
0.00534259
0.00503688
0.00482682
0.00471639
0.00461278
0.00462144
0.00458056
0.00460925
0.00456479
0.00456466
0.00441261
0.00427737
0.00386275
0.00364705
0.00317676
0.00296513
0.00262588
0.00241235
0.00220157
0.00200038
0.00187806
0.00168093
0.00159846
0.00142958
0.00136929
0.00123999
0.00119917
0.00110921
0.00108249
0.00103948
0.00100466
0.000995055
0.000978135
0.000991671
0.000994894
0.00103763
0.0010514
0.00113286
0.00115804
0.00128019
0.00131852
0.0014832
0.00152852
0.00172621
0.00178414
0.00202969
0.00210394
0.00235253
0.0024053
0.00259942
0.0026231
0.00274883
0.00272541
0.00276374
0.00265274
0.00263495
0.0024484
0.00241978
0.00231711
0.00231767
0.00235102
0.00238651
0.00259714
0.00268426
0.00313696
0.00325302
0.0040211
0.00407415
0.00500962
0.00481715
0.00603303
0.00571692
0.00721152
0.00673134
0.00830102
0.0078336
0.00884448
0.00828506
0.0086782
0.00834724
0.00848805
0.00896868
0.00920672
0.0106614
0.0108005
0.0128447
0.0131485
0.0157555
0.0168962
0.0194324
0.0168443
0.0166299
0.0161403
0.0155491
0.0148397
0.0143314
0.0139046
0.0136339
0.0135662
0.0135581
0.0135903
0.0136078
0.0134393
0.0130245
0.0122715
0.0115272
0.0107256
0.0100151
0.00947802
0.00901333
0.00873061
0.00857806
0.0084627
0.00827017
0.00773432
0.00722073
0.00649726
0.00579035
0.00512688
0.00451601
0.00411693
0.00381532
0.00366568
0.00360595
0.00353834
0.00347025
0.00325465
0.00302955
0.00270255
0.00237925
0.00206513
0.00179035