/*--------------------------------*- C++ -*----------------------------------*\
| =========                 |                                                 |
| \\      /  F ield         | OpenFOAM: The Open Source CFD Toolbox           |
|  \\    /   O peration     | Version:  2.4.0                                 |
|   \\  /    A nd           | Web:      www.OpenFOAM.org                      |
|    \\/     M anipulation  |                                                 |
\*---------------------------------------------------------------------------*/
FoamFile
{
    version     2.0;
    format      ascii;
    class       surfaceScalarField;
    location    "0.085";
    object      phi_0;
}
// * * * * * * * * * * * * * * * * * * * * * * * * * * * * * * * * * * * * * //

dimensions      [0 3 -1 0 0 0 0];

internalField   nonuniform List<scalar> 
34680
(
2.40727e-05
9.27266e-07
2.16935e-05
2.37924e-06
1.88217e-05
2.87176e-06
1.60433e-05
2.7784e-06
1.36225e-05
2.4208e-06
1.16562e-05
1.96635e-06
1.01549e-05
1.50131e-06
9.05384e-06
1.10104e-06
8.27786e-06
7.75981e-07
7.73715e-06
5.40705e-07
7.36276e-06
3.74393e-07
7.10625e-06
2.56511e-07
6.91458e-06
1.91668e-07
6.76486e-06
1.49723e-07
6.65509e-06
1.09764e-07
6.55207e-06
1.03021e-07
6.46047e-06
9.15991e-08
6.38883e-06
7.16398e-08
6.3169e-06
7.19341e-08
6.24667e-06
7.02279e-08
6.18986e-06
5.68152e-08
6.13537e-06
5.44851e-08
6.07702e-06
5.83533e-08
6.03007e-06
4.69462e-08
5.98726e-06
4.28161e-08
5.94165e-06
4.561e-08
5.90167e-06
3.99715e-08
5.87206e-06
2.96164e-08
5.83678e-06
3.52774e-08
5.81193e-06
2.48547e-08
5.78835e-06
2.35742e-08
5.77239e-06
1.59646e-08
5.74905e-06
2.33359e-08
5.74315e-06
5.90478e-09
5.71262e-06
3.0522e-08
5.70088e-06
1.17415e-08
5.63329e-06
6.75901e-08
5.57465e-06
5.86472e-08
5.44001e-06
1.3464e-07
-1.07713e-07
5.54772e-06
2.52154e-05
7.11821e-07
2.55476e-05
2.0471e-06
2.55701e-05
2.84927e-06
2.52349e-05
3.11356e-06
2.46318e-05
3.02391e-06
2.38785e-05
2.71969e-06
2.30668e-05
2.31293e-06
2.22773e-05
1.89062e-06
2.15473e-05
1.50597e-06
2.08699e-05
1.21809e-06
2.02722e-05
9.72055e-07
1.97352e-05
7.93524e-07
1.92417e-05
6.85147e-07
1.88086e-05
5.82797e-07
1.84227e-05
4.95701e-07
1.80599e-05
4.65823e-07
1.7745e-05
4.06469e-07
1.74634e-05
3.53278e-07
1.71991e-05
3.36207e-07
1.6964e-05
3.05402e-07
1.6757e-05
2.63782e-07
1.65603e-05
2.51139e-07
1.63829e-05
2.35765e-07
1.62231e-05
2.06785e-07
1.6078e-05
1.87878e-07
1.59373e-05
1.86316e-07
1.5817e-05
1.60256e-07
1.57025e-05
1.44179e-07
1.56017e-05
1.36095e-07
1.55027e-05
1.23825e-07
1.54279e-05
9.83579e-08
1.53437e-05
1.00213e-07
1.52868e-05
8.01728e-08
1.52155e-05
7.7179e-08
1.51681e-05
7.79844e-08
1.5074e-05
1.05812e-07
1.50551e-05
8.64836e-08
1.49624e-05
1.51389e-07
1.50712e-05
2.57714e-08
7.03334e-08
1.48932e-05
2.5166e-05
5.45786e-07
2.56227e-05
1.59044e-06
2.61403e-05
2.33164e-06
2.65667e-05
2.68717e-06
2.68777e-05
2.71294e-06
2.70578e-05
2.53962e-06
2.71235e-05
2.24719e-06
2.70951e-05
1.91905e-06
2.70131e-05
1.58792e-06
2.68702e-05
1.36106e-06
2.67042e-05
1.13805e-06
2.6527e-05
9.70658e-07
2.63153e-05
8.96851e-07
2.6108e-05
7.9007e-07
2.59054e-05
6.98327e-07
2.56827e-05
6.88522e-07
2.54733e-05
6.1588e-07
2.52807e-05
5.45886e-07
2.50695e-05
5.47444e-07
2.48796e-05
4.9524e-07
2.46953e-05
4.48099e-07
2.45181e-05
4.28352e-07
2.43301e-05
4.23761e-07
2.41833e-05
3.53598e-07
2.4007e-05
3.6413e-07
2.38672e-05
3.26138e-07
2.37065e-05
3.20964e-07
2.35926e-05
2.58089e-07
2.34318e-05
2.96853e-07
2.3344e-05
2.1163e-07
2.31975e-05
2.44936e-07
2.31269e-05
1.70772e-07
2.29917e-05
2.15381e-07
2.29482e-05
1.20658e-07
2.28383e-05
1.87876e-07
2.28254e-05
1.18692e-07
2.26852e-05
2.26738e-07
2.26946e-05
1.42009e-07
2.26667e-05
5.36765e-08
-2.29076e-07
2.29661e-05
2.51293e-05
4.16448e-07
2.55049e-05
1.21483e-06
2.59705e-05
1.86608e-06
2.64307e-05
2.22702e-06
2.68816e-05
2.26203e-06
2.72468e-05
2.17436e-06
2.75702e-05
1.92385e-06
2.78071e-05
1.68213e-06
2.80078e-05
1.38726e-06
2.81514e-05
1.21741e-06
2.82765e-05
1.01299e-06
2.83513e-05
8.95848e-07
2.8422e-05
8.26083e-07
2.84522e-05
7.59957e-07
2.84909e-05
6.59574e-07
2.84921e-05
6.87317e-07
2.85015e-05
6.06487e-07
2.84941e-05
5.53306e-07
2.84894e-05
5.5211e-07
2.84685e-05
5.16161e-07
2.84635e-05
4.53117e-07
2.84345e-05
4.57361e-07
2.84117e-05
4.46551e-07
2.83815e-05
3.83773e-07
2.83548e-05
3.90869e-07
2.83121e-05
3.68782e-07
2.82855e-05
3.47561e-07
2.82534e-05
2.9021e-07
2.82113e-05
3.3898e-07
2.81863e-05
2.36593e-07
2.81459e-05
2.85311e-07
2.81197e-05
1.96982e-07
2.80842e-05
2.50938e-07
2.80561e-05
1.48744e-07
2.79971e-05
2.46851e-07
2.80305e-05
8.52626e-08
2.81154e-05
1.41886e-07
2.84263e-05
-1.68892e-07
2.88595e-05
-3.79517e-07
-6.56134e-07
2.92866e-05
2.512e-05
2.9646e-07
2.53438e-05
9.91031e-07
2.58183e-05
1.39158e-06
2.62182e-05
1.82705e-06
2.66882e-05
1.79212e-06
2.70133e-05
1.84921e-06
2.7405e-05
1.53214e-06
2.76051e-05
1.48202e-06
2.79044e-05
1.08801e-06
2.80505e-05
1.07125e-06
2.82819e-05
7.81584e-07
2.83696e-05
8.08177e-07
2.85754e-05
6.20335e-07
2.86225e-05
7.12797e-07
2.88072e-05
4.74921e-07
2.88206e-05
6.73915e-07
2.89902e-05
4.36833e-07
2.89795e-05
5.64009e-07
2.91454e-05
3.86203e-07
2.91249e-05
5.36642e-07
2.92913e-05
2.86804e-07
2.92639e-05
4.847e-07
2.94279e-05
2.82532e-07
2.93856e-05
4.2613e-07
2.95536e-05
2.22871e-07
2.9489e-05
4.33409e-07
2.96602e-05
1.76311e-07
2.95935e-05
3.56882e-07
2.97702e-05
1.62294e-07
2.96929e-05
3.13875e-07
2.98871e-05
9.1166e-08
2.97886e-05
2.95422e-07
3.00059e-05
3.37143e-08
2.99182e-05
2.36431e-07
3.01955e-05
-3.04764e-08
3.00208e-05
2.59992e-07
3.01657e-05
-3.0169e-09
2.9487e-05
5.09776e-07
2.88938e-05
2.13682e-07
3.96445e-07
2.78412e-05
2.50851e-05
2.11382e-07
2.5299e-05
7.77101e-07
2.56668e-05
1.02384e-06
2.60707e-05
1.42315e-06
2.64807e-05
1.38204e-06
2.68485e-05
1.48147e-06
2.71707e-05
1.20993e-06
2.74526e-05
1.20013e-06
2.76693e-05
8.71279e-07
2.78694e-05
8.71132e-07
2.80366e-05
6.14432e-07
2.82014e-05
6.43364e-07
2.83304e-05
4.91378e-07
2.84726e-05
5.70569e-07
2.85725e-05
3.75032e-07
2.87057e-05
5.40733e-07
2.87902e-05
3.52295e-07
2.89054e-05
4.4875e-07
2.8982e-05
3.09695e-07
2.9088e-05
4.30561e-07
2.91547e-05
2.20139e-07
2.92612e-05
3.7816e-07
2.93186e-05
2.25125e-07
2.94178e-05
3.2697e-07
2.94754e-05
1.65253e-07
2.95696e-05
3.39201e-07
2.96154e-05
1.30546e-07
2.97125e-05
2.59823e-07
2.97598e-05
1.14965e-07
2.98619e-05
2.11775e-07
2.99179e-05
3.52003e-08
3.00368e-05
1.76435e-07
3.00838e-05
-1.32247e-08
3.0187e-05
1.3323e-07
3.02283e-05
-7.17834e-08
3.04263e-05
6.20184e-08
3.05804e-05
-1.57195e-07
3.1069e-05
2.12602e-08
3.15747e-05
-2.92095e-07
-2.34974e-07
3.22062e-05
2.50511e-05
1.60328e-07
2.52894e-05
5.3876e-07
2.55528e-05
7.60394e-07
2.59607e-05
1.01526e-06
2.63136e-05
1.02912e-06
2.6709e-05
1.08616e-06
2.69901e-05
9.28763e-07
2.73068e-05
8.83431e-07
2.74908e-05
6.87313e-07
2.77387e-05
6.23178e-07
2.78611e-05
4.9204e-07
2.8056e-05
4.48455e-07
2.81513e-05
3.96125e-07
2.83257e-05
3.96167e-07
2.83937e-05
3.07073e-07
2.85703e-05
3.64086e-07
2.86096e-05
3.12981e-07
2.87722e-05
2.86206e-07
2.8806e-05
2.75883e-07
2.89589e-05
2.77666e-07
2.89778e-05
2.01218e-07
2.91332e-05
2.22781e-07
2.91388e-05
2.19528e-07
2.92919e-05
1.73879e-07
2.92971e-05
1.60028e-07
2.94515e-05
1.84729e-07
2.94417e-05
1.40399e-07
2.95961e-05
1.05432e-07
2.95877e-05
1.23352e-07
2.97392e-05
6.02574e-08
2.97373e-05
3.70874e-08
2.99127e-05
1.01995e-09
2.99131e-05
-1.35994e-08
3.01091e-05
-6.27853e-08
3.01535e-05
-1.16189e-07
3.04092e-05
-1.93675e-07
3.04975e-05
-2.45432e-07
3.08356e-05
-3.16872e-07
3.09223e-05
-3.78767e-07
-6.28473e-07
3.13158e-05
2.50448e-05
1.15527e-07
2.52318e-05
3.51748e-07
2.55114e-05
4.80775e-07
2.58704e-05
6.56285e-07
2.62219e-05
6.77655e-07
2.65895e-05
7.18526e-07
2.6893e-05
6.2527e-07
2.71846e-05
5.91853e-07
2.74236e-05
4.48303e-07
2.76083e-05
4.38482e-07
2.77768e-05
3.23547e-07
2.79257e-05
2.9954e-07
2.80622e-05
2.59626e-07
2.81868e-05
2.71612e-07
2.83065e-05
1.87347e-07
2.8417e-05
2.53599e-07
2.85298e-05
2.00185e-07
2.86261e-05
1.8985e-07
2.87421e-05
1.59928e-07
2.88177e-05
2.02032e-07
2.89188e-05
1.0017e-07
2.89882e-05
1.53312e-07
2.90773e-05
1.30436e-07
2.91353e-05
1.15911e-07
2.92264e-05
6.88733e-08
2.92825e-05
1.28686e-07
2.93701e-05
5.28092e-08
2.94255e-05
4.99528e-08
2.95214e-05
2.75183e-08
2.95629e-05
1.86903e-08
2.96748e-05
-7.47799e-08
2.9737e-05
-6.11984e-08
2.98675e-05
-1.44071e-07
2.9955e-05
-1.50322e-07
3.01067e-05
-2.67869e-07
3.02343e-05
-3.21217e-07
3.04312e-05
-4.42361e-07
3.06342e-05
-5.19854e-07
3.08789e-05
-6.23526e-07
-8.49422e-07
3.10999e-05
2.50151e-05
1.00404e-07
2.52571e-05
1.09775e-07
2.5456e-05
2.81859e-07
2.58285e-05
2.8381e-07
2.61273e-05
3.78868e-07
2.65254e-05
3.20368e-07
2.67917e-05
3.59032e-07
2.71278e-05
2.55744e-07
2.73107e-05
2.65426e-07
2.7577e-05
1.72142e-07
2.7685e-05
2.15517e-07
2.78851e-05
9.94844e-08
2.79621e-05
1.82643e-07
2.81422e-05
9.1484e-08
2.82066e-05
1.22955e-07
2.83771e-05
8.30569e-08
2.84265e-05
1.50803e-07
2.85936e-05
2.2777e-08
2.86266e-05
1.26862e-07
2.87748e-05
5.38962e-08
2.88069e-05
6.80112e-08
2.89472e-05
1.30696e-08
2.89681e-05
1.09476e-07
2.90987e-05
-1.46244e-08
2.91175e-05
5.00379e-08
2.92447e-05
1.53255e-09
2.92632e-05
3.43169e-08
2.93889e-05
-7.58021e-08
2.94122e-05
4.18695e-09
2.95293e-05
-9.83499e-08
2.95531e-05
-9.85913e-08
2.96901e-05
-1.98176e-07
2.9734e-05
-1.88013e-07
2.98916e-05
-3.07893e-07
2.9981e-05
-3.57327e-07
3.01741e-05
-5.1429e-07
3.03304e-05
-5.9863e-07
3.05459e-05
-7.35334e-07
3.07971e-05
-8.74749e-07
-1.0475e-06
3.09952e-05
2.502e-05
8.03675e-08
2.52337e-05
-1.0388e-07
2.54622e-05
5.33861e-08
2.57998e-05
-5.38558e-08
2.61076e-05
7.10528e-08
2.64852e-05
-5.72293e-08
2.67733e-05
7.09946e-08
2.70898e-05
-6.07843e-08
2.73112e-05
4.40604e-08
2.75161e-05
-3.27559e-08
2.76745e-05
5.71307e-08
2.78308e-05
-5.68317e-08
2.79477e-05
6.5724e-08
2.80855e-05
-4.63136e-08
2.81941e-05
1.43342e-08
2.83066e-05
-2.94129e-08
2.84256e-05
3.17473e-08
2.85314e-05
-8.30015e-08
2.86323e-05
2.59643e-08
2.87223e-05
-3.60835e-08
2.88176e-05
-2.73446e-08
2.88858e-05
-5.51004e-08
2.89717e-05
2.36166e-08
2.90337e-05
-7.66845e-08
2.91159e-05
-3.21691e-08
2.91722e-05
-5.47317e-08
2.92613e-05
-5.4763e-08
2.93158e-05
-1.3033e-07
2.94113e-05
-9.13011e-08
2.94579e-05
-1.44943e-07
2.95429e-05
-1.83629e-07
2.96055e-05
-2.6072e-07
2.9713e-05
-2.95514e-07
2.97961e-05
-3.9098e-07
2.99458e-05
-5.07093e-07
3.00974e-05
-6.65827e-07
3.029e-05
-7.91254e-07
3.04997e-05
-9.45047e-07
3.07439e-05
-1.11896e-06
-1.17873e-06
3.08751e-05
2.50072e-05
7.31998e-08
2.52823e-05
-3.79022e-07
2.5426e-05
-9.03138e-08
2.58178e-05
-4.45611e-07
2.60619e-05
-1.73072e-07
2.65094e-05
-5.04703e-07
2.67215e-05
-1.41139e-07
2.71228e-05
-4.62101e-07
2.72425e-05
-7.55868e-08
2.75715e-05
-3.61822e-07
2.76408e-05
-1.21321e-08
2.78953e-05
-3.11307e-07
2.79152e-05
4.58105e-08
2.81664e-05
-2.97494e-07
2.8152e-05
2.86739e-08
2.83856e-05
-2.63012e-07
2.83807e-05
3.66421e-08
2.85943e-05
-2.96595e-07
2.85555e-05
6.48114e-08
2.87852e-05
-2.65837e-07
2.87347e-05
2.32202e-08
2.89408e-05
-2.61233e-07
2.88967e-05
6.76674e-08
2.91112e-05
-2.91177e-07
2.90378e-05
4.12508e-08
2.92572e-05
-2.74072e-07
2.91929e-05
9.479e-09
2.93967e-05
-3.34072e-07
2.93292e-05
-2.3801e-08
2.95454e-05
-3.61178e-07
2.94571e-05
-9.53101e-08
2.96771e-05
-4.80753e-07
2.95891e-05
-2.07501e-07
2.98189e-05
-6.20806e-07
2.9761e-05
-4.49224e-07
3.00772e-05
-9.82016e-07
3.01724e-05
-8.86427e-07
3.0572e-05
-1.34465e-06
3.07117e-05
-1.25868e-06
-1.45479e-06
3.09878e-05
2.50511e-05
2.20639e-08
2.52663e-05
-5.94181e-07
2.54629e-05
-2.86871e-07
2.58271e-05
-8.09837e-07
2.61486e-05
-4.94572e-07
2.65326e-05
-8.88731e-07
2.68154e-05
-4.23965e-07
2.71576e-05
-8.04252e-07
2.73164e-05
-2.34383e-07
2.75923e-05
-6.3775e-07
2.7692e-05
-1.11869e-07
2.79052e-05
-5.24419e-07
2.7972e-05
-2.10274e-08
2.81915e-05
-5.17041e-07
2.81985e-05
2.17341e-08
2.8426e-05
-4.90487e-07
2.84391e-05
2.35458e-08
2.8621e-05
-4.78536e-07
2.86179e-05
6.78733e-08
2.88293e-05
-4.77223e-07
2.87815e-05
7.10398e-08
2.89758e-05
-4.55577e-07
2.89587e-05
8.4789e-08
2.91397e-05
-4.72187e-07
2.90857e-05
9.5283e-08
2.93031e-05
-4.91478e-07
2.92395e-05
7.30617e-08
2.94307e-05
-5.25228e-07
2.93745e-05
3.23566e-08
2.95868e-05
-5.73487e-07
2.94971e-05
-5.55219e-09
2.97093e-05
-6.92958e-07
2.96298e-05
-1.28014e-07
2.98312e-05
-8.2221e-07
2.97369e-05
-3.549e-07
2.9962e-05
-1.20713e-06
2.99022e-05
-8.2662e-07
3.05733e-05
-2.01579e-06
3.11876e-05
-1.87294e-06
-2.17075e-06
3.19035e-05
2.5144e-05
-1.21949e-07
2.5106e-05
-5.56212e-07
2.55682e-05
-7.49031e-07
2.57978e-05
-1.03942e-06
2.63174e-05
-1.01423e-06
2.65332e-05
-1.10448e-06
2.70036e-05
-8.94349e-07
2.71149e-05
-9.1558e-07
2.75267e-05
-6.46212e-07
2.75794e-05
-6.90389e-07
2.79255e-05
-4.57956e-07
2.78984e-05
-4.97316e-07
2.8234e-05
-3.56709e-07
2.81666e-05
-4.49602e-07
2.84549e-05
-2.66585e-07
2.83919e-05
-4.27455e-07
2.86746e-05
-2.59132e-07
2.85614e-05
-3.65405e-07
2.88619e-05
-2.32598e-07
2.87591e-05
-3.74406e-07
2.90156e-05
-1.85515e-07
2.89149e-05
-3.5479e-07
2.92021e-05
-2.02451e-07
2.90578e-05
-3.27886e-07
2.93416e-05
-1.88524e-07
2.92229e-05
-3.72749e-07
2.94884e-05
-1.92422e-07
2.93442e-05
-3.81091e-07
2.96346e-05
-2.58024e-07
2.94825e-05
-4.21395e-07
2.97612e-05
-2.84299e-07
2.96071e-05
-5.38774e-07
2.98765e-05
-3.97478e-07
2.97137e-05
-6.59365e-07
3.0003e-05
-6.44229e-07
2.97972e-05
-1.00134e-06
3.00028e-05
-1.03219e-06
2.9378e-05
-1.391e-06
2.88488e-05
-1.34378e-06
-1.62716e-06
2.83053e-05
2.5115e-05
-2.36935e-07
2.52144e-05
-6.55655e-07
2.55931e-05
-1.12771e-06
2.59183e-05
-1.36459e-06
2.6378e-05
-1.47396e-06
2.66709e-05
-1.39738e-06
2.7075e-05
-1.29846e-06
2.72622e-05
-1.10279e-06
2.75927e-05
-9.76679e-07
2.76919e-05
-7.89613e-07
2.79414e-05
-7.07454e-07
2.80107e-05
-5.66549e-07
2.82496e-05
-5.95637e-07
2.8279e-05
-4.78998e-07
2.84979e-05
-4.8546e-07
2.85124e-05
-4.41985e-07
2.87131e-05
-4.59815e-07
2.8698e-05
-3.50296e-07
2.89057e-05
-4.40358e-07
2.88818e-05
-3.5044e-07
2.90703e-05
-3.74093e-07
2.90454e-05
-3.29865e-07
2.92387e-05
-3.95766e-07
2.91932e-05
-2.82344e-07
2.93892e-05
-3.8452e-07
2.93429e-05
-3.26514e-07
2.95345e-05
-3.83954e-07
2.94797e-05
-3.26302e-07
2.96717e-05
-4.49998e-07
2.96098e-05
-3.59519e-07
2.98087e-05
-4.83255e-07
2.97329e-05
-4.62889e-07
2.99133e-05
-5.7789e-07
2.9835e-05
-5.81065e-07
2.998e-05
-7.89264e-07
2.97667e-05
-7.88031e-07
2.97284e-05
-9.93897e-07
2.93975e-05
-1.06009e-06
2.92694e-05
-1.21568e-06
-1.22774e-06
2.887e-05
2.51018e-05
-3.38756e-07
2.53309e-05
-8.8474e-07
2.5675e-05
-1.47179e-06
2.60617e-05
-1.75134e-06
2.64858e-05
-1.89807e-06
2.68505e-05
-1.76199e-06
2.71833e-05
-1.63126e-06
2.74631e-05
-1.38261e-06
2.76798e-05
-1.19337e-06
2.78585e-05
-9.68379e-07
2.80489e-05
-8.97808e-07
2.81939e-05
-7.11528e-07
2.83339e-05
-7.35687e-07
2.84633e-05
-6.08411e-07
2.8585e-05
-6.07098e-07
2.86856e-05
-5.42665e-07
2.87959e-05
-5.70075e-07
2.89033e-05
-4.5767e-07
2.89834e-05
-5.20451e-07
2.90811e-05
-4.48195e-07
2.91634e-05
-4.56353e-07
2.92366e-05
-4.03073e-07
2.9309e-05
-4.68129e-07
2.93968e-05
-3.70141e-07
2.94546e-05
-4.42347e-07
2.95342e-05
-4.0609e-07
2.95999e-05
-4.49659e-07
2.96747e-05
-4.01142e-07
2.97261e-05
-5.01413e-07
2.98074e-05
-4.40782e-07
2.98558e-05
-5.31703e-07
2.99176e-05
-5.24638e-07
2.99524e-05
-6.12752e-07
2.99854e-05
-6.1402e-07
2.99158e-05
-7.19652e-07
2.9854e-05
-7.26283e-07
2.97145e-05
-8.54341e-07
2.95161e-05
-8.61694e-07
2.92944e-05
-9.94028e-07
-9.55063e-07
2.90217e-05
2.51113e-05
-4.50093e-07
2.53933e-05
-1.16672e-06
2.58043e-05
-1.88282e-06
2.62358e-05
-2.18277e-06
2.66644e-05
-2.32674e-06
2.70388e-05
-2.13636e-06
2.73818e-05
-1.97425e-06
2.76382e-05
-1.63902e-06
2.78771e-05
-1.43225e-06
2.80639e-05
-1.15521e-06
2.8252e-05
-1.08585e-06
2.83872e-05
-8.46764e-07
2.85294e-05
-8.77901e-07
2.86363e-05
-7.15258e-07
2.87616e-05
-7.32409e-07
2.88311e-05
-6.12144e-07
2.89523e-05
-6.91345e-07
2.90056e-05
-5.10923e-07
2.91049e-05
-6.19801e-07
2.91474e-05
-4.90611e-07
2.92473e-05
-5.56258e-07
2.92673e-05
-4.23092e-07
2.93663e-05
-5.67139e-07
2.93852e-05
-3.89031e-07
2.94738e-05
-5.3094e-07
2.94796e-05
-4.1189e-07
2.9568e-05
-5.38122e-07
2.95545e-05
-3.87564e-07
2.96373e-05
-5.84287e-07
2.96102e-05
-4.13611e-07
2.96858e-05
-6.07363e-07
2.96341e-05
-4.72873e-07
2.97028e-05
-6.81468e-07
2.96054e-05
-5.16618e-07
2.96346e-05
-7.4889e-07
2.94514e-05
-5.4309e-07
2.93457e-05
-7.48637e-07
2.9006e-05
-5.21971e-07
2.87719e-05
-7.59972e-07
-6.25639e-07
2.84425e-05
2.51181e-05
-5.68162e-07
2.55108e-05
-1.55943e-06
2.59699e-05
-2.34193e-06
2.64502e-05
-2.66304e-06
2.68683e-05
-2.74484e-06
2.72603e-05
-2.52844e-06
2.75513e-05
-2.26518e-06
2.78169e-05
-1.90462e-06
2.79988e-05
-1.61417e-06
2.8166e-05
-1.32247e-06
2.82621e-05
-1.18195e-06
2.83621e-05
-9.46761e-07
2.84029e-05
-9.18635e-07
2.84609e-05
-7.73329e-07
2.84705e-05
-7.42007e-07
2.85012e-05
-6.42842e-07
2.84847e-05
-6.7482e-07
2.84985e-05
-5.24741e-07
2.84676e-05
-5.88853e-07
2.84614e-05
-4.84392e-07
2.84258e-05
-5.20689e-07
2.84117e-05
-4.09001e-07
2.8362e-05
-5.17473e-07
2.83382e-05
-3.65203e-07
2.82844e-05
-4.77142e-07
2.82376e-05
-3.65062e-07
2.81737e-05
-4.74202e-07
2.81184e-05
-3.32353e-07
2.80367e-05
-5.02555e-07
2.79626e-05
-3.39538e-07
2.78737e-05
-5.18438e-07
2.77675e-05
-3.66611e-07
2.76574e-05
-5.71367e-07
2.75184e-05
-3.77677e-07
2.73889e-05
-6.1936e-07
2.72004e-05
-3.54599e-07
2.70139e-05
-5.62161e-07
2.66516e-05
-1.59685e-07
2.62348e-05
-3.43121e-07
-8.11823e-08
2.56903e-05
2.5154e-05
-7.22121e-07
2.56295e-05
-2.03495e-06
2.61431e-05
-2.85552e-06
2.65771e-05
-3.09712e-06
2.68706e-05
-3.03828e-06
2.70607e-05
-2.71859e-06
2.71142e-05
-2.31865e-06
2.70978e-05
-1.88817e-06
2.70023e-05
-1.51874e-06
2.68793e-05
-1.19948e-06
2.66916e-05
-9.94181e-07
2.6527e-05
-7.8216e-07
2.63038e-05
-6.95437e-07
2.61083e-05
-5.77856e-07
2.58841e-05
-5.17767e-07
2.56858e-05
-4.44603e-07
2.5448e-05
-4.37029e-07
2.52677e-05
-3.44426e-07
2.50398e-05
-3.60922e-07
2.48552e-05
-2.99804e-07
2.46448e-05
-3.10269e-07
2.44797e-05
-2.43905e-07
2.42567e-05
-2.94522e-07
2.4108e-05
-2.16487e-07
2.38964e-05
-2.6556e-07
2.37384e-05
-2.0706e-07
2.35305e-05
-2.66237e-07
2.33863e-05
-1.88178e-07
2.31605e-05
-2.76776e-07
2.30187e-05
-1.97694e-07
2.27867e-05
-2.86427e-07
2.26318e-05
-2.11752e-07
2.23763e-05
-3.15919e-07
2.22183e-05
-2.19593e-07
2.19225e-05
-3.23614e-07
2.1776e-05
-2.08052e-07
2.15371e-05
-3.23324e-07
2.16143e-05
-2.36882e-07
2.1708e-05
-4.36771e-07
-4.16024e-07
2.20428e-05
2.52103e-05
-9.32443e-07
2.55512e-05
-2.37586e-06
2.55684e-05
-2.87265e-06
2.52417e-05
-2.77047e-06
2.46303e-05
-2.42684e-06
2.38774e-05
-1.96573e-06
2.30646e-05
-1.50589e-06
2.22754e-05
-1.09896e-06
2.15381e-05
-7.81417e-07
2.08728e-05
-5.34196e-07
2.02595e-05
-3.80881e-07
1.97307e-05
-2.53286e-07
1.92319e-05
-1.96655e-07
1.87994e-05
-1.45331e-07
1.84022e-05
-1.20585e-07
1.80528e-05
-9.52629e-08
1.7717e-05
-1.01145e-07
1.74435e-05
-7.10099e-08
1.71641e-05
-8.15174e-08
1.69319e-05
-6.76123e-08
1.6699e-05
-7.72994e-08
1.65083e-05
-5.32304e-08
1.62942e-05
-8.03895e-08
1.61327e-05
-5.49927e-08
1.59403e-05
-7.31557e-08
1.57899e-05
-5.67365e-08
1.56059e-05
-8.21993e-08
1.54705e-05
-5.27266e-08
1.52816e-05
-8.78902e-08
1.51482e-05
-6.43215e-08
1.49535e-05
-9.17014e-08
1.4814e-05
-7.22484e-08
1.46016e-05
-1.03513e-07
1.44599e-05
-7.79772e-08
1.42383e-05
-1.01993e-07
1.41149e-05
-8.46096e-08
1.38859e-05
-9.43725e-08
1.37588e-05
-1.09712e-07
1.35251e-05
-2.03133e-07
-3.91016e-07
1.35001e-05
2.40676e-05
2.16917e-05
1.8819e-05
1.60486e-05
1.36217e-05
1.1656e-05
1.01501e-05
9.05116e-06
8.26974e-06
7.73555e-06
7.35467e-06
7.10138e-06
6.90473e-06
6.75939e-06
6.63881e-06
6.54355e-06
6.4424e-06
6.37139e-06
6.28987e-06
6.22226e-06
6.14496e-06
6.09173e-06
6.01134e-06
5.95635e-06
5.88319e-06
5.82646e-06
5.74426e-06
5.69153e-06
5.60364e-06
5.53932e-06
5.44762e-06
5.37537e-06
5.27186e-06
5.19388e-06
5.09189e-06
5.00728e-06
4.9129e-06
4.80319e-06
4.60006e-06
4.20904e-06
5.75778e-06
-2.90615e-07
8.05487e-08
5.85693e-06
-3.92915e-07
2.93772e-07
5.88156e-06
-4.04183e-07
3.7955e-07
5.9951e-06
-2.92784e-07
1.79249e-07
6.25744e-06
-1.37646e-07
-1.24696e-07
6.6542e-06
2.93952e-08
-4.26161e-07
7.19967e-06
2.02332e-07
-7.47795e-07
7.92168e-06
3.38847e-07
-1.06086e-06
8.73494e-06
4.52866e-07
-1.26612e-06
9.60373e-06
5.16688e-07
-1.38548e-06
1.04755e-05
5.3173e-07
-1.40346e-06
1.13127e-05
5.00774e-07
-1.33805e-06
1.20848e-05
4.27343e-07
-1.19938e-06
1.27709e-05
3.1773e-07
-1.00389e-06
1.3372e-05
1.69617e-07
-7.70725e-07
1.38861e-05
-9.35487e-09
-5.04719e-07
1.42299e-05
-1.56409e-07
-1.87372e-07
1.44465e-05
-3.37632e-07
1.21003e-07
1.45792e-05
-5.16208e-07
3.8355e-07
1.46157e-05
-7.01002e-07
6.64445e-07
1.45741e-05
-8.73274e-07
9.14922e-07
1.44716e-05
-1.0244e-06
1.12687e-06
1.43201e-05
-1.15434e-06
1.30584e-06
1.41543e-05
-1.25626e-06
1.42211e-06
1.3994e-05
-1.32703e-06
1.48725e-06
1.38556e-05
-1.37323e-06
1.51164e-06
1.37685e-05
-1.42033e-06
1.50744e-06
1.3714e-05
-1.41708e-06
1.47158e-06
1.37228e-05
-1.4181e-06
1.40938e-06
1.38099e-05
-1.41399e-06
1.3268e-06
1.3927e-05
-1.34504e-06
1.22798e-06
1.4108e-05
-1.3331e-06
1.15215e-06
1.43251e-05
-1.2792e-06
1.06209e-06
1.45549e-05
-1.2138e-06
9.83979e-07
1.48224e-05
-1.21059e-06
9.43102e-07
1.50801e-05
-1.1468e-06
8.89074e-07
1.53682e-05
-1.12485e-06
8.368e-07
1.57055e-05
-1.13156e-06
7.94199e-07
1.60452e-05
-1.09332e-06
7.53684e-07
1.64363e-05
-1.15053e-06
7.59412e-07
1.67823e-05
-1.1426e-06
7.96549e-07
1.71243e-05
-1.17841e-06
8.36428e-07
1.74627e-05
-1.21956e-06
8.81182e-07
1.77649e-05
-1.22363e-06
9.21409e-07
1.80919e-05
-1.28682e-06
9.59808e-07
1.84007e-05
-1.28432e-06
9.75513e-07
1.87011e-05
-1.32818e-06
1.02777e-06
1.90036e-05
-1.33847e-06
1.03597e-06
1.92775e-05
-1.33525e-06
1.06135e-06
1.95767e-05
-1.35278e-06
1.05357e-06
1.98576e-05
-1.31204e-06
1.03119e-06
2.0148e-05
-1.30511e-06
1.01468e-06
2.04518e-05
-1.26931e-06
9.65543e-07
2.07383e-05
-1.20669e-06
9.20153e-07
2.10603e-05
-1.18843e-06
8.66431e-07
2.13463e-05
-1.08198e-06
7.96024e-07
2.16717e-05
-1.06951e-06
7.44025e-07
2.19711e-05
-9.75713e-07
6.7638e-07
2.22865e-05
-9.26304e-07
6.10912e-07
2.26004e-05
-8.8086e-07
5.66916e-07
2.29015e-05
-8.00092e-07
4.99038e-07
2.32159e-05
-7.86609e-07
4.72199e-07
2.35221e-05
-7.14339e-07
4.08114e-07
2.38297e-05
-6.84161e-07
3.76568e-07
2.41519e-05
-6.49191e-07
3.27028e-07
2.44575e-05
-5.97421e-07
2.91739e-07
2.47877e-05
-5.94827e-07
2.64698e-07
2.51029e-05
-5.45505e-07
2.30293e-07
2.54382e-05
-5.49901e-07
2.14598e-07
2.57673e-05
-5.23882e-07
1.94746e-07
2.61214e-05
-5.34691e-07
1.80613e-07
2.64578e-05
-5.22432e-07
1.86053e-07
2.68291e-05
-5.46719e-07
1.7537e-07
2.71755e-05
-5.43595e-07
1.97197e-07
2.75596e-05
-5.92015e-07
2.07913e-07
2.79343e-05
-6.16469e-07
2.41768e-07
2.83382e-05
-6.71771e-07
2.67943e-07
2.87333e-05
-7.26291e-07
3.31126e-07
2.91542e-05
-7.90522e-07
3.69607e-07
2.95551e-05
-8.76817e-07
4.75946e-07
2.99946e-05
-9.75361e-07
5.35826e-07
3.04083e-05
-1.08221e-06
6.68566e-07
3.08589e-05
-1.22735e-06
7.76757e-07
3.12835e-05
-1.36257e-06
9.37983e-07
3.173e-05
-1.54962e-06
1.10308e-06
3.2148e-05
-1.72662e-06
1.30859e-06
3.25634e-05
-1.9394e-06
1.52403e-06
3.29556e-05
-2.17523e-06
1.78299e-06
3.33281e-05
-2.41716e-06
2.0447e-06
3.36868e-05
-2.71769e-06
2.35898e-06
3.40024e-05
-2.98697e-06
2.67135e-06
3.42802e-05
-3.30954e-06
3.03181e-06
3.44757e-05
-3.59547e-06
3.39992e-06
3.45966e-05
-3.91919e-06
3.79826e-06
3.46137e-05
-4.21931e-06
4.20228e-06
3.45412e-05
-4.53469e-06
4.6071e-06
3.4355e-05
-4.81532e-06
5.00153e-06
3.40601e-05
-5.08961e-06
5.38457e-06
3.3616e-05
-5.29307e-06
5.73712e-06
3.30321e-05
-5.48974e-06
6.07368e-06
3.22754e-05
-5.59184e-06
6.34851e-06
3.14279e-05
-5.72323e-06
6.57074e-06
3.04659e-05
-5.77309e-06
6.73515e-06
2.94922e-05
-5.81851e-06
6.79221e-06
2.84494e-05
-5.79222e-06
6.83498e-06
2.74449e-05
-5.72199e-06
6.72648e-06
2.64595e-05
-5.65748e-06
6.64289e-06
2.55944e-05
-5.58585e-06
6.45093e-06
2.48345e-05
-5.54487e-06
6.30476e-06
2.42261e-05
-5.52279e-06
6.13125e-06
2.37523e-05
-5.5185e-06
5.99223e-06
2.338e-05
-5.53399e-06
5.90633e-06
2.31001e-05
-5.56906e-06
5.8489e-06
2.28251e-05
-5.56925e-06
5.84428e-06
2.2578e-05
-5.59221e-06
5.83927e-06
2.23149e-05
-5.55949e-06
5.82261e-06
2.20838e-05
-5.5769e-06
5.80802e-06
2.18159e-05
-5.52953e-06
5.79747e-06
2.15655e-05
-5.49732e-06
5.74766e-06
2.12359e-05
-5.4268e-06
5.75642e-06
2.09004e-05
-5.33195e-06
5.66742e-06
2.05236e-05
-5.23712e-06
5.61395e-06
2.018e-05
-5.1826e-06
5.52619e-06
1.9824e-05
-5.09217e-06
5.44819e-06
1.9505e-05
-5.01343e-06
5.33239e-06
1.91894e-05
-4.95888e-06
5.27448e-06
1.88552e-05
-4.84645e-06
5.18067e-06
1.85495e-05
-4.79483e-06
5.10051e-06
1.82522e-05
-4.76374e-06
5.06108e-06
1.8012e-05
-4.76144e-06
5.00165e-06
1.7794e-05
-4.77273e-06
4.99075e-06
1.76087e-05
-4.81031e-06
4.99557e-06
1.74055e-05
-4.85244e-06
5.05566e-06
1.72521e-05
-4.95737e-06
5.11078e-06
1.70893e-05
-5.04274e-06
5.2055e-06
1.69756e-05
-5.14566e-06
5.25934e-06
1.68604e-05
-5.30012e-06
5.41529e-06
1.68116e-05
-5.48619e-06
5.53501e-06
1.67578e-05
-5.65595e-06
5.7098e-06
1.67089e-05
-5.81496e-06
5.86381e-06
1.66964e-05
-6.07712e-06
6.08965e-06
1.67101e-05
-6.37513e-06
6.36143e-06
1.66648e-05
-6.59652e-06
6.64179e-06
1.64135e-05
-6.57965e-06
6.83095e-06
1.59679e-05
-6.43078e-06
6.87636e-06
1.54632e-05
-6.32292e-06
6.82766e-06
1.52071e-05
-6.45573e-06
6.71182e-06
1.53559e-05
-6.86924e-06
6.72042e-06
1.59727e-05
-7.47845e-06
6.86168e-06
1.68396e-05
-8.10546e-06
7.23851e-06
1.78331e-05
-8.64911e-06
7.65564e-06
1.88047e-05
-9.10703e-06
8.13542e-06
1.96547e-05
-9.37888e-06
8.52889e-06
2.0433e-05
-9.60344e-06
8.82517e-06
2.111e-05
-9.69213e-06
9.01512e-06
2.17772e-05
-9.75346e-06
9.08628e-06
2.23957e-05
-9.70908e-06
9.09052e-06
2.30373e-05
-9.59762e-06
8.95604e-06
2.36702e-05
-9.44314e-06
8.81025e-06
2.4332e-05
-9.18173e-06
8.51998e-06
2.4977e-05
-8.88543e-06
8.24036e-06
2.56307e-05
-8.47572e-06
7.82199e-06
2.62983e-05
-8.04334e-06
7.37576e-06
2.6927e-05
-7.46514e-06
6.83651e-06
2.75829e-05
-6.88563e-06
6.22971e-06
2.815e-05
-6.13212e-06
5.56495e-06
2.8709e-05
-5.39492e-06
4.83594e-06
2.91643e-05
-4.53172e-06
4.07642e-06
2.95881e-05
-3.68171e-06
3.25795e-06
2.98956e-05
-2.7604e-06
2.45286e-06
3.01762e-05
-1.83792e-06
1.55729e-06
3.04043e-05
-9.01594e-07
6.73576e-07
3.06452e-05
3.73947e-08
-2.78371e-07
3.07444e-05
1.10088e-06
-1.20007e-06
3.08288e-05
2.05584e-06
-2.14026e-06
3.07938e-05
3.0226e-06
-2.98753e-06
3.07659e-05
3.87299e-06
-3.8451e-06
3.06117e-05
4.77984e-06
-4.62566e-06
3.04424e-05
5.54431e-06
-5.375e-06
3.01747e-05
6.3258e-06
-6.05811e-06
2.99172e-05
6.94577e-06
-6.6883e-06
2.96078e-05
7.59542e-06
-7.28596e-06
2.93132e-05
8.10112e-06
-7.80653e-06
2.89808e-05
8.63304e-06
-8.30068e-06
2.86452e-05
9.0089e-06
-8.67326e-06
2.83016e-05
9.39497e-06
-9.05139e-06
2.79176e-05
9.6405e-06
-9.25651e-06
2.75829e-05
9.84682e-06
-9.51211e-06
2.72078e-05
9.99621e-06
-9.62105e-06
2.69649e-05
1.00673e-05
-9.8244e-06
2.67253e-05
1.01597e-05
-9.92005e-06
2.66147e-05
1.01614e-05
-1.00509e-05
2.64684e-05
1.02473e-05
-1.01009e-05
2.63906e-05
1.02113e-05
-1.01335e-05
2.62595e-05
1.02452e-05
-1.0114e-05
2.61223e-05
1.01385e-05
-1.00013e-05
2.59693e-05
1.00442e-05
-9.89111e-06
2.57562e-05
9.87538e-06
-9.66234e-06
2.55958e-05
9.6513e-06
-9.49083e-06
2.53611e-05
9.43045e-06
-9.19581e-06
2.52428e-05
9.09936e-06
-8.98098e-06
2.50795e-05
8.84015e-06
-8.67694e-06
2.50394e-05
8.48074e-06
-8.44056e-06
2.49618e-05
8.27428e-06
-8.19676e-06
2.49543e-05
7.9649e-06
-7.95735e-06
2.49255e-05
7.79361e-06
-7.76486e-06
2.49216e-05
7.52077e-06
-7.5168e-06
2.49068e-05
7.32749e-06
-7.31277e-06
2.48613e-05
7.07236e-06
-7.02682e-06
2.4883e-05
6.83729e-06
-6.859e-06
2.4894e-05
6.55952e-06
-6.57049e-06
2.50151e-05
6.2904e-06
-6.41151e-06
2.50536e-05
6.04796e-06
-6.08641e-06
2.51633e-05
5.7016e-06
-5.81138e-06
2.51512e-05
5.39286e-06
-5.38076e-06
2.51975e-05
4.95784e-06
-5.00409e-06
2.51408e-05
4.56032e-06
-4.50364e-06
2.51707e-05
4.00195e-06
-4.03183e-06
2.50451e-05
3.56014e-06
-3.43456e-06
2.49481e-05
2.9696e-06
-2.87258e-06
2.47668e-05
2.41043e-06
-2.22914e-06
2.46123e-05
1.69501e-06
-1.54055e-06
2.42984e-05
1.18685e-06
-8.72928e-07
2.40277e-05
5.19005e-07
-2.48319e-07
2.36005e-05
9.02938e-09
4.18178e-07
2.3097e-05
-5.69255e-07
1.07276e-06
2.24474e-05
-9.17461e-07
1.56709e-06
2.18631e-05
-1.39404e-06
1.97834e-06
2.11256e-05
-1.73509e-06
2.47258e-06
2.03704e-05
-2.13923e-06
2.89446e-06
1.95676e-05
-2.28628e-06
3.08908e-06
1.89776e-05
-2.55726e-06
3.14721e-06
1.83035e-05
-2.66638e-06
3.34052e-06
1.76665e-05
-2.89304e-06
3.52998e-06
1.68333e-05
-2.85655e-06
3.68975e-06
1.6088e-05
-2.96607e-06
3.71136e-06
1.52445e-05
-2.97208e-06
3.81562e-06
1.46035e-05
-3.13861e-06
3.77959e-06
1.38594e-05
-3.0094e-06
3.7535e-06
1.32659e-05
-2.9648e-06
3.55838e-06
1.24949e-05
-2.79237e-06
3.56329e-06
1.19069e-05
-2.90172e-06
3.48971e-06
1.12122e-05
-2.9557e-06
3.65046e-06
1.07444e-05
-3.19902e-06
3.6668e-06
1.01586e-05
-3.25682e-06
3.84264e-06
9.79676e-06
-3.37133e-06
3.73315e-06
9.33883e-06
-3.2775e-06
3.73543e-06
9.10553e-06
-3.18887e-06
3.42217e-06
8.78046e-06
-2.94389e-06
3.26896e-06
8.64501e-06
-2.73003e-06
2.86548e-06
8.40836e-06
-2.42652e-06
2.66317e-06
8.35429e-06
-2.15856e-06
2.21263e-06
8.22684e-06
-1.83469e-06
1.96214e-06
8.28496e-06
-1.52726e-06
1.46914e-06
8.2915e-06
-1.17791e-06
1.17136e-06
8.47178e-06
-8.38916e-07
6.58639e-07
8.57992e-06
-4.80423e-07
3.72285e-07
8.84074e-06
-1.43074e-07
-1.17746e-07
9.00989e-06
1.81873e-07
-3.51026e-07
9.33277e-06
4.74358e-07
-7.97241e-07
9.50584e-06
8.14679e-07
-9.87746e-07
9.85744e-06
1.04891e-06
-1.40051e-06
1.00533e-05
1.32826e-06
-1.52416e-06
1.04755e-05
1.44943e-06
-1.87161e-06
1.07284e-05
1.62028e-06
-1.87318e-06
1.12201e-05
1.57656e-06
-2.06825e-06
1.14798e-05
1.62077e-06
-1.88051e-06
1.19524e-05
1.43257e-06
-1.90507e-06
1.21108e-05
1.39568e-06
-1.55415e-06
1.24609e-05
1.13491e-06
-1.48504e-06
1.24564e-05
1.09599e-06
-1.09142e-06
1.26552e-05
8.27819e-07
-1.02662e-06
1.24939e-05
8.26753e-07
-6.65478e-07
1.25796e-05
5.7509e-07
-6.60825e-07
1.23344e-05
6.03147e-07
-3.57917e-07
1.23946e-05
3.70156e-07
-4.30356e-07
1.21652e-05
4.46256e-07