/*--------------------------------*- C++ -*----------------------------------*\
| =========                 |                                                 |
| \\      /  F ield         | OpenFOAM: The Open Source CFD Toolbox           |
|  \\    /   O peration     | Version:  2.4.0                                 |
|   \\  /    A nd           | Web:      www.OpenFOAM.org                      |
|    \\/     M anipulation  |                                                 |
\*---------------------------------------------------------------------------*/
FoamFile
{
    version     2.0;
    format      ascii;
    class       volVectorField;
    location    "0.085";
    object      U;
}
// * * * * * * * * * * * * * * * * * * * * * * * * * * * * * * * * * * * * * //

dimensions      [0 1 -1 0 0 0 0];

internalField   nonuniform List<vector> 
17600
(
(5.3281 0.309418 0)
(2.98572 0.0606055 0)
(2.19621 -0.00148313 0)
(1.84686 -0.00363085 0)
(1.70764 -0.00137536 0)
(1.60941 1.33028e-05 0)
(1.53727 9.64094e-05 0)
(1.48437 -0.000613847 0)
(1.42714 0.000834348 0)
(1.40849 -0.000761343 0)
(1.36456 1.93791e-05 0)
(1.36038 0.000498073 0)
(1.31431 -0.000360132 0)
(1.31832 0.000415679 0)
(1.28776 -0.000792704 0)
(1.26539 0.00174053 0)
(1.26588 -0.00178251 0)
(1.24933 0.000370957 0)
(1.22301 0.000206437 0)
(1.32099 -0.0151189 0)
(8.60023 0.871907 0)
(6.94869 0.383419 0)
(5.81242 0.122207 0)
(5.05445 0.0506262 0)
(4.65503 0.0280493 0)
(4.37358 0.0212952 0)
(4.17839 0.0157459 0)
(4.03051 0.0116864 0)
(3.8687 0.0117934 0)
(3.82609 0.00571154 0)
(3.68259 0.00630732 0)
(3.68473 0.0072391 0)
(3.55199 0.00384626 0)
(3.56653 0.00506569 0)
(3.476 0.00344594 0)
(3.42161 0.00767402 0)
(3.43114 -0.00305116 0)
(3.36012 0.00899613 0)
(3.28773 -0.0106731 0)
(3.49944 -0.00178522 0)
(9.8601 1.02195 0)
(9.34168 0.577185 0)
(8.47766 0.24218 0)
(7.63979 0.129612 0)
(7.09615 0.0814686 0)
(6.68998 0.0592755 0)
(6.40268 0.042794 0)
(6.19066 0.0344688 0)
(5.9372 0.0298071 0)
(5.88851 0.018751 0)
(5.64821 0.0179054 0)
(5.66768 0.0180401 0)
(5.45783 0.0122927 0)
(5.47989 0.0122795 0)
(5.34773 0.012283 0)
(5.25585 0.0153083 0)
(5.29105 -0.00243039 0)
(5.14297 0.0228275 0)
(5.10282 -0.0187542 0)
(5.20644 -0.0149043 0)
(10.1672 0.94763 0)
(10.5621 0.668462 0)
(10.2626 0.331611 0)
(9.64235 0.20948 0)
(9.12419 0.146979 0)
(8.68823 0.110033 0)
(8.34906 0.0789156 0)
(8.11757 0.0662765 0)
(7.78503 0.0535635 0)
(7.75408 0.0376206 0)
(7.42531 0.0345047 0)
(7.46685 0.0321539 0)
(7.19766 0.0250295 0)
(7.21774 0.0213046 0)
(7.06816 0.0257715 0)
(6.92724 0.0237692 0)
(7.00851 0.00159989 0)
(6.76095 0.0384689 0)
(6.80909 -0.0212393 0)
(6.72536 -0.0423934 0)
(10.0876 0.805321 0)
(10.9118 0.670039 0)
(11.1337 0.358327 0)
(10.8961 0.255557 0)
(10.5827 0.201878 0)
(10.251 0.161778 0)
(9.92675 0.117298 0)
(9.74542 0.102959 0)
(9.36011 0.0807668 0)
(9.37477 0.0595787 0)
(8.98793 0.0550793 0)
(9.05018 0.0479229 0)
(8.75326 0.0412354 0)
(8.76053 0.0311277 0)
(8.62239 0.0428875 0)
(8.4272 0.0323797 0)
(8.56064 0.00871221 0)
(8.23571 0.0539524 0)
(8.33707 -0.0165004 0)
(8.15785 -0.0830313 0)
(10.0092 0.690311 0)
(10.8479 0.637503 0)
(11.3074 0.335296 0)
(11.3739 0.251381 0)
(11.3263 0.221716 0)
(11.2193 0.196149 0)
(10.9937 0.145889 0)
(10.9528 0.135949 0)
(10.575 0.107334 0)
(10.6593 0.0805808 0)
(10.2725 0.0776346 0)
(10.3547 0.0633597 0)
(10.0738 0.0593637 0)
(10.0607 0.0408032 0)
(9.96472 0.0616052 0)
(9.72698 0.0416587 0)
(9.89537 0.0151672 0)
(9.5497 0.072372 0)
(9.66705 -0.00916355 0)
(9.42035 -0.120647 0)
(10.0017 0.599423 0)
(10.7274 0.606149 0)
(11.2165 0.304708 0)
(11.3923 0.2211 0)
(11.4731 0.205388 0)
(11.5786 0.202796 0)
(11.4535 0.151797 0)
(11.6092 0.152012 0)
(11.3214 0.12442 0)
(11.4909 0.0927333 0)
(11.1872 0.0969933 0)
(11.2956 0.0750114 0)
(11.0868 0.0764643 0)
(11.0554 0.0487494 0)
(11.0317 0.0790494 0)
(10.7831 0.051672 0)
(10.9662 0.0201735 0)
(10.6385 0.0882517 0)
(10.7825 0.000983931 0)
(10.5331 -0.0960491 0)
(10.0104 0.517678 0)
(10.646 0.573092 0)
(11.1082 0.286277 0)
(11.3114 0.194897 0)
(11.3847 0.178088 0)
(11.6055 0.194527 0)
(11.4944 0.142195 0)
(11.7562 0.148262 0)
(11.6073 0.128009 0)
(11.8031 0.0895823 0)
(11.6507 0.105919 0)
(11.7845 0.0763593 0)
(11.7033 0.0876137 0)
(11.6671 0.0512254 0)
(11.7381 0.0898827 0)
(11.5328 0.0611645 0)
(11.717 0.021247 0)
(11.4436 0.102871 0)
(11.6161 0.00402132 0)
(11.3963 0.0110916 0)
(10.0144 0.443414 0)
(10.5843 0.53045 0)
(11.0434 0.274076 0)
(11.2378 0.176106 0)
(11.2826 0.14921 0)
(11.5416 0.183023 0)
(11.4551 0.131839 0)
(11.6535 0.134311 0)
(11.6675 0.123785 0)
(11.7866 0.0785761 0)
(11.7587 0.103883 0)
(11.8773 0.0680191 0)
(11.922 0.0878673 0)
(11.892 0.0494371 0)
(12.0182 0.086127 0)
(11.9256 0.0684011 0)
(12.0783 0.0141986 0)
(11.9226 0.111509 0)
(12.0992 -0.000864818 0)
(11.8815 0.0484119 0)
(10.0055 0.377525 0)
(10.4974 0.48123 0)
(11.0077 0.263763 0)
(11.1843 0.162205 0)
(11.2209 0.123944 0)
(11.4641 0.164413 0)
(11.4532 0.127672 0)
(11.5216 0.116059 0)
(11.6463 0.116904 0)
(11.718 0.0670917 0)
(11.727 0.101528 0)
(11.8152 0.0522194 0)
(11.9191 0.0857313 0)
(11.9249 0.0420943 0)
(11.9958 0.0789866 0)
(12.0356 0.0625882 0)
(12.1251 0.0114575 0)
(12.0987 0.0926316 0)
(12.2042 0.00911828 0)
(12.0088 -0.00997982 0)
(9.97172 0.321807 0)
(10.4279 0.427442 0)
(10.9653 0.249759 0)
(11.14 0.152241 0)
(11.2109 0.100775 0)
(11.3941 0.145775 0)
(11.423 0.122156 0)
(11.4345 0.104825 0)
(11.5761 0.104134 0)
(11.6662 0.0585392 0)
(11.6724 0.097283 0)
(11.7686 0.0414974 0)
(11.8722 0.0721767 0)
(11.9066 0.0449239 0)
(11.9254 0.0634984 0)
(12.0213 0.0596827 0)
(12.0825 -0.00067622 0)
(12.0787 0.0842173 0)
(12.1379 0.00412108 0)
(12.0457 -0.0604517 0)
(9.95952 0.274527 0)
(10.4134 0.369981 0)
(10.8726 0.235023 0)
(11.085 0.139403 0)
(11.2109 0.0815951 0)
(11.3047 0.129182 0)
(11.3613 0.118924 0)
(11.3941 0.0911677 0)
(11.5347 0.0933116 0)
(11.5998 0.0464111 0)
(11.6386 0.0935151 0)
(11.7646 0.0272708 0)
(11.8023 0.0664034 0)
(11.8441 0.04228 0)
(11.8974 0.0538157 0)
(11.9831 0.0510782 0)
(12.0061 -0.0043504 0)
(12.0168 0.0674138 0)
(12.0918 0.000927444 0)
(12.0743 -0.110832 0)
(9.98547 0.229075 0)
(10.3955 0.318121 0)
(10.7463 0.221375 0)
(11.0261 0.122069 0)
(11.186 0.067688 0)
(11.2211 0.11545 0)
(11.3313 0.108444 0)
(11.4017 0.0749066 0)
(11.4973 0.084608 0)
(11.5381 0.0362568 0)
(11.628 0.0826556 0)
(11.717 0.0213456 0)
(11.716 0.0605484 0)
(11.7922 0.0391027 0)
(11.869 0.0389197 0)
(11.9307 0.0490622 0)
(11.9355 -0.00938184 0)
(11.9771 0.0469507 0)
(12.0741 -0.012911 0)
(12.0731 -0.140694 0)
(10.0115 0.186879 0)
(10.3271 0.275243 0)
(10.6649 0.200301 0)
(10.9918 0.10478 0)
(11.1463 0.0566033 0)
(11.1897 0.0993507 0)
(11.3372 0.0924273 0)
(11.3879 0.0617276 0)
(11.4272 0.0801232 0)
(11.5092 0.0244899 0)
(11.5895 0.0737112 0)
(11.6319 0.0193723 0)
(11.6749 0.0525608 0)
(11.7732 0.0317197 0)
(11.8259 0.0270101 0)
(11.8759 0.0452783 0)
(11.914 -0.0144828 0)
(11.9477 0.0251643 0)
(12.056 -0.0288959 0)
(11.9842 -0.139399 0)
(10.015 0.150746 0)
(10.2633 0.23426 0)
(10.6515 0.169239 0)
(10.9734 0.0889971 0)
(11.1012 0.047913 0)
(11.1881 0.0801495 0)
(11.3238 0.0793088 0)
(11.3141 0.0536693 0)
(11.376 0.0729649 0)
(11.5042 0.0120861 0)
(11.5274 0.0690955 0)
(11.5901 0.0152566 0)
(11.6788 0.0380439 0)
(11.7539 0.0273213 0)
(11.7858 0.0187867 0)
(11.8392 0.0375212 0)
(11.8996 -0.0203021 0)
(11.9338 0.00482712 0)
(12.0083 -0.0356705 0)
(11.835 -0.125554 0)
(9.99864 0.120073 0)
(10.2631 0.189159 0)
(10.6539 0.134874 0)
(10.9172 0.0780162 0)
(11.0709 0.0392592 0)
(11.1847 0.0599251 0)
(11.2619 0.0714369 0)
(11.265 0.0444052 0)
(11.3864 0.0579281 0)
(11.4818 0.0044385 0)
(11.4877 0.0620453 0)
(11.597 0.00839172 0)
(11.6697 0.0239578 0)
(11.7089 0.0276954 0)
(11.7572 0.00749194 0)
(11.8208 0.0291615 0)
(11.8693 -0.0270416 0)
(11.9155 -0.011124 0)
(11.9441 -0.0351348 0)
(11.7667 -0.133056 0)
(9.99428 0.0900248 0)
(10.2844 0.140988 0)
(10.6071 0.107995 0)
(10.853 0.0675839 0)
(11.0814 0.02703 0)
(11.1607 0.0449315 0)
(11.2115 0.0627073 0)
(11.29 0.0271426 0)
(11.3913 0.0452144 0)
(11.4332 0.000730592 0)
(11.4816 0.0522195 0)
(11.5909 0.000762595 0)
(11.6254 0.0174229 0)
(11.6728 0.0219046 0)
(11.7424 0.000967958 0)
(11.802 0.0162764 0)
(11.8446 -0.0327903 0)
(11.8828 -0.0255154 0)
(11.8974 -0.0389039 0)
(11.8008 -0.151106 0)
(10.0188 0.0602678 0)
(10.2577 0.0980662 0)
(10.5387 0.083916 0)
(10.8598 0.0493688 0)
(11.0908 0.0159538 0)
(11.1211 0.0336492 0)
(11.2175 0.0468355 0)
(11.3079 0.0122946 0)
(11.3372 0.0377287 0)
(11.4036 -0.0031862 0)
(11.4828 0.0385368 0)
(11.556 0.00103278 0)
(11.5978 0.00446214 0)
(11.6676 0.0217479 0)
(11.735 -0.0167092 0)
(11.78 0.0171613 0)
(11.8225 -0.0418868 0)
(11.8741 -0.0358303 0)
(11.8691 -0.0417546 0)
(11.8254 -0.148611 0)
(10.028 0.0328354 0)
(10.2085 0.0595759 0)
(10.5433 0.0520232 0)
(10.8936 0.0271519 0)
(11.055 0.0126034 0)
(11.1046 0.018809 0)
(11.23 0.0314263 0)
(11.2709 0.00184396 0)
(11.2974 0.030706 0)
(11.414 -0.013174 0)
(11.4753 0.030225 0)
(11.5368 -0.00447851 0)
(11.6019 -0.00156197 0)
(11.665 0.00647779 0)
(11.7273 -0.0121122 0)
(11.7609 -0.00870037 0)
(11.8048 -0.0317046 0)
(11.881 -0.0623337 0)
(11.851 -0.0477719 0)
(11.8191 -0.136871 0)
(10.0052 0.00960476 0)
(10.2119 0.0153933 0)
(10.5912 0.0163602 0)
(10.8659 0.0127986 0)
(11.0195 0.00895799 0)
(11.1189 0.00381456 0)
(11.2155 0.015715 0)
(11.2469 -0.00480901 0)
(11.3163 0.0141038 0)
(11.4276 -0.017473 0)
(11.4653 0.0161119 0)
(11.5375 -0.00237807 0)
(11.5994 -0.0200069 0)
(11.6591 0.0125999 0)
(11.7165 -0.0372612 0)
(11.7351 0.00649894 0)
(11.821 -0.0745716 0)
(11.8818 -0.039637 0)
(11.8113 -0.0777036 0)
(11.8203 -0.169469 0)
(9.99847 -0.0148172 0)
(10.2476 -0.0325715 0)
(10.5819 -0.0116272 0)
(10.8208 0.00019447 0)
(11.0314 0.00169831 0)
(11.1346 -0.0134201 0)
(11.2025 0.00465876 0)
(11.2622 -0.0195158 0)
(11.337 0.00258641 0)
(11.4169 -0.0250975 0)
(11.4582 0.0112314 0)
(11.5342 -0.0118875 0)
(11.5938 -0.0218935 0)
(11.6622 -0.00585669 0)
(11.7052 -0.0208852 0)
(11.7257 -0.0305009 0)
(11.8605 -0.0454118 0)
(11.8499 -0.0889309 0)
(11.7806 -0.0301115 0)
(11.8552 -0.244559 0)
(10.0152 -0.0415992 0)
(10.2472 -0.0761497 0)
(10.5489 -0.0369813 0)
(10.8382 -0.0169158 0)
(11.0595 -0.00958746 0)
(11.138 -0.0256574 0)
(11.2018 -0.0105417 0)
(11.2739 -0.0305672 0)
(11.334 -0.00989917 0)
(11.4028 -0.0269607 0)
(11.462 -0.000982497 0)
(11.5416 -0.0127989 0)
(11.5999 -0.0367837 0)
(11.6806 -0.00581483 0)
(11.683 -0.0367056 0)
(11.7565 -0.0312257 0)
(11.8856 -0.0757739 0)
(11.7783 -0.057141 0)
(11.8162 -0.0911524 0)
(11.8782 -0.155675 0)
(10.0158 -0.0684078 0)
(10.2369 -0.117582 0)
(10.5653 -0.0673379 0)
(10.8816 -0.0354025 0)
(11.0668 -0.0177238 0)
(11.1307 -0.037561 0)
(11.2091 -0.0247467 0)
(11.2822 -0.0419873 0)
(11.3354 -0.0212279 0)
(11.4116 -0.031744 0)
(11.488 -0.0128617 0)
(11.5507 -0.0169898 0)
(11.6169 -0.0469617 0)
(11.6888 -0.00962824 0)
(11.6744 -0.0469364 0)
(11.7983 -0.0396482 0)
(11.8692 -0.0893394 0)
(11.7541 -0.0414212 0)
(11.8818 -0.136803 0)
(11.8762 -0.0718318 0)
(10.0046 -0.0959339 0)
(10.26 -0.161762 0)
(10.599 -0.0989574 0)
(10.8986 -0.0495362 0)
(11.0623 -0.0239645 0)
(11.1341 -0.0521135 0)
(11.2348 -0.0390604 0)
(11.3012 -0.0553722 0)
(11.3488 -0.029644 0)
(11.4383 -0.0425903 0)
(11.5112 -0.018514 0)
(11.5478 -0.0278822 0)
(11.6427 -0.0477308 0)
(11.6876 -0.0245548 0)
(11.6837 -0.0337484 0)
(11.8504 -0.0827962 0)
(11.8208 -0.0482751 0)
(11.7949 -0.09826 0)
(11.9446 -0.0953372 0)
(11.8408 -0.157001 0)
(10.0033 -0.12604 0)
(10.2889 -0.20676 0)
(10.6171 -0.12804 0)
(10.9082 -0.0608264 0)
(11.0764 -0.0345447 0)
(11.1652 -0.0666282 0)
(11.2644 -0.0573404 0)
(11.3168 -0.0619107 0)
(11.3699 -0.0448181 0)
(11.4623 -0.0460429 0)
(11.5176 -0.0301777 0)
(11.559 -0.0279169 0)
(11.6792 -0.0648227 0)
(11.6771 -0.0154166 0)
(11.7393 -0.0683716 0)
(11.8685 -0.0597788 0)
(11.7928 -0.0888142 0)
(11.8805 -0.0717919 0)
(11.9344 -0.142504 0)
(11.8463 -0.177914 0)
(10.0032 -0.159789 0)
(10.3111 -0.250296 0)
(10.6388 -0.155786 0)
(10.938 -0.0746888 0)
(11.1141 -0.0459149 0)
(11.1978 -0.0840751 0)
(11.2767 -0.0683504 0)
(11.3385 -0.0743681 0)
(11.3996 -0.0535799 0)
(11.4803 -0.0557847 0)
(11.5337 -0.0337267 0)
(11.605 -0.0432395 0)
(11.6991 -0.0614882 0)
(11.6885 -0.0345233 0)
(11.8088 -0.0618267 0)
(11.844 -0.0867745 0)
(11.8248 -0.0684462 0)
(11.9334 -0.109652 0)
(11.923 -0.145116 0)
(11.8981 -0.166657 0)
(10.0019 -0.197214 0)
(10.3373 -0.292553 0)
(10.6767 -0.184184 0)
(10.9867 -0.0879146 0)
(11.1488 -0.0607418 0)
(11.2141 -0.0954107 0)
(11.2959 -0.0834981 0)
(11.3802 -0.0844004 0)
(11.4312 -0.0646605 0)
(11.5057 -0.0624939 0)
(11.5774 -0.0439642 0)
(11.6482 -0.0505417 0)
(11.704 -0.0661125 0)
(11.7392 -0.0406715 0)
(11.844 -0.0754835 0)
(11.8271 -0.0808047 0)
(11.8969 -0.088088 0)
(11.9514 -0.117106 0)
(11.9602 -0.153683 0)
(11.9207 -0.168567 0)
(10.0061 -0.237784 0)
(10.3669 -0.337636 0)
(10.7321 -0.207044 0)
(11.0344 -0.103825 0)
(11.1743 -0.0736045 0)
(11.241 -0.109477 0)
(11.3414 -0.0990546 0)
(11.4243 -0.0941835 0)
(11.4631 -0.0741447 0)
(11.548 -0.0716186 0)
(11.6254 -0.0522293 0)
(11.6693 -0.0587251 0)
(11.7325 -0.067535 0)
(11.8037 -0.0560457 0)
(11.8482 -0.0730597 0)
(11.8644 -0.0925761 0)
(11.9607 -0.0963889 0)
(11.9751 -0.127865 0)
(12.0081 -0.165465 0)
(11.9114 -0.175379 0)
(10.022 -0.283536 0)
(10.398 -0.384048 0)
(10.7981 -0.223257 0)
(11.069 -0.121152 0)
(11.2154 -0.0899369 0)
(11.2822 -0.125329 0)
(11.3951 -0.113894 0)
(11.4577 -0.103247 0)
(11.5053 -0.0830029 0)
(11.5966 -0.0828466 0)
(11.6668 -0.0591315 0)
(11.6939 -0.065912 0)
(11.7918 -0.0744747 0)
(11.8466 -0.065404 0)
(11.8686 -0.0737832 0)
(11.9322 -0.106186 0)
(11.9988 -0.0999669 0)
(12.0139 -0.142071 0)
(12.0323 -0.169599 0)
(11.9509 -0.19502 0)
(10.053 -0.336372 0)
(10.4176 -0.429179 0)
(10.8738 -0.236392 0)
(11.1013 -0.139628 0)
(11.2784 -0.110691 0)
(11.3114 -0.138642 0)
(11.4594 -0.129232 0)
(11.4841 -0.109523 0)
(11.5682 -0.0948393 0)
(11.6386 -0.0913767 0)
(11.7189 -0.0661329 0)
(11.7305 -0.0745155 0)
(11.8588 -0.0811495 0)
(11.8719 -0.0712047 0)
(11.9275 -0.0796801 0)
(11.9826 -0.115051 0)
(12.0388 -0.104685 0)
(12.0483 -0.152039 0)
(12.065 -0.177091 0)
(12.0186 -0.224341 0)
(10.0759 -0.394565 0)
(10.4324 -0.474404 0)
(10.9676 -0.249018 0)
(11.1384 -0.16091 0)
(11.3463 -0.130623 0)
(11.3383 -0.153272 0)
(11.5439 -0.143084 0)
(11.5058 -0.116127 0)
(11.6551 -0.106908 0)
(11.6699 -0.0995268 0)
(11.7887 -0.0738379 0)
(11.7671 -0.0830132 0)
(11.9311 -0.0879974 0)
(11.8921 -0.0776374 0)
(12.0023 -0.0864042 0)
(11.9953 -0.122108 0)
(12.079 -0.109371 0)
(12.0358 -0.159803 0)
(12.0651 -0.183453 0)
(11.9723 -0.249792 0)
(10.0666 -0.458344 0)
(10.4755 -0.519103 0)
(11.0675 -0.264798 0)
(11.1892 -0.181436 0)
(11.4113 -0.152464 0)
(11.3977 -0.168998 0)
(11.62 -0.155825 0)
(11.5433 -0.123109 0)
(11.7457 -0.119383 0)
(11.6942 -0.107121 0)
(11.8517 -0.0820901 0)
(11.7895 -0.0916164 0)
(11.959 -0.0945982 0)
(11.8616 -0.0833271 0)
(11.9937 -0.0913024 0)
(11.8917 -0.126401 0)
(11.9813 -0.108572 0)
(11.8423 -0.165711 0)
(11.8543 -0.173444 0)
(11.6472 -0.276566 0)
(10.0357 -0.527359 0)
(10.5581 -0.563141 0)
(11.1668 -0.281527 0)
(11.2607 -0.202979 0)
(11.4829 -0.176443 0)
(11.4792 -0.18425 0)
(11.6641 -0.165944 0)
(11.5863 -0.132214 0)
(11.765 -0.129219 0)
(11.6456 -0.111949 0)
(11.787 -0.089456 0)
(11.6563 -0.0951036 0)
(11.7652 -0.0960838 0)
(11.6028 -0.0830368 0)
(11.6936 -0.0919358 0)
(11.4925 -0.118287 0)
(11.547 -0.106286 0)
(11.3211 -0.151324 0)
(11.2808 -0.169226 0)
(10.9924 -0.251128 0)
(10.0057 -0.605617 0)
(10.676 -0.600059 0)
(11.2697 -0.301794 0)
(11.3473 -0.228063 0)
(11.5373 -0.201868 0)
(11.4941 -0.195937 0)
(11.5779 -0.170991 0)
(11.4469 -0.136927 0)
(11.5023 -0.128543 0)
(11.2937 -0.108276 0)
(11.3517 -0.0867593 0)
(11.1368 -0.0881238 0)
(11.1651 -0.0867966 0)
(10.9495 -0.0754238 0)
(10.9848 -0.0814952 0)
(10.7206 -0.103583 0)
(10.7438 -0.0936409 0)
(10.4596 -0.132412 0)
(10.3893 -0.149234 0)
(10.0386 -0.21416 0)
(10.0086 -0.694005 0)
(10.8186 -0.634253 0)
(11.3426 -0.332302 0)
(11.3363 -0.256884 0)
(11.3678 -0.218288 0)
(11.1687 -0.192191 0)
(11.072 -0.159744 0)
(10.8255 -0.124692 0)
(10.7387 -0.111222 0)
(10.4601 -0.0914117 0)
(10.4415 -0.072411 0)
(10.1816 -0.0714092 0)
(10.1592 -0.0705276 0)
(9.9252 -0.0615162 0)
(9.92223 -0.0657016 0)
(9.64002 -0.0843435 0)
(9.63688 -0.0773889 0)
(9.33384 -0.108204 0)
(9.23836 -0.123229 0)
(8.86259 -0.171764 0)
(10.0861 -0.80764 0)
(10.8943 -0.668539 0)
(11.1576 -0.355706 0)
(10.8673 -0.259713 0)
(10.6111 -0.199377 0)
(10.221 -0.159389 0)
(9.97186 -0.126583 0)
(9.65511 -0.0959861 0)
(9.48809 -0.0826696 0)
(9.19934 -0.0677572 0)
(9.13959 -0.0529422 0)
(8.88137 -0.0517923 0)
(8.83566 -0.0523312 0)
(8.61129 -0.0457901 0)
(8.58502 -0.0484081 0)
(8.31529 -0.0639462 0)
(8.29124 -0.059442 0)
(7.99739 -0.0810063 0)
(7.88235 -0.0984486 0)
(7.52082 -0.110762 0)
(10.1662 -0.949004 0)
(10.5504 -0.667865 0)
(10.2784 -0.32945 0)
(9.62188 -0.212463 0)
(9.14257 -0.145347 0)
(8.67219 -0.108533 0)
(8.3721 -0.0846173 0)
(8.05773 -0.0630299 0)
(7.87411 -0.053127 0)
(7.61767 -0.0443139 0)
(7.54326 -0.0337269 0)
(7.31956 -0.0331676 0)
(7.26678 -0.0349312 0)
(7.07027 -0.0304116 0)
(7.03367 -0.0316561 0)
(6.79687 -0.0441614 0)
(6.75886 -0.0408001 0)
(6.49233 -0.0556385 0)
(6.37696 -0.0681023 0)
(6.02849 -0.0721675 0)
(9.85951 -1.02269 0)
(9.33328 -0.577019 0)
(8.48776 -0.240572 0)
(7.62711 -0.131638 0)
(7.1067 -0.0805224 0)
(6.68233 -0.0582669 0)
(6.41333 -0.045994 0)
(6.15135 -0.033561 0)
(5.99498 -0.0278953 0)
(5.79341 -0.0241579 0)
(5.7257 -0.017407 0)
(5.55514 -0.0175752 0)
(5.50585 -0.0198039 0)
(5.34979 -0.0169012 0)
(5.31379 -0.0171366 0)
(5.12422 -0.0262464 0)
(5.07866 -0.0236412 0)
(4.85865 -0.0323533 0)
(4.75362 -0.0403601 0)
(4.43751 -0.0428363 0)
(8.59977 -0.872167 0)
(6.94279 -0.383437 0)
(5.81833 -0.121246 0)
(5.04836 -0.0517614 0)
(4.65985 -0.0276975 0)
(4.36986 -0.0206032 0)
(4.18363 -0.0171682 0)
(4.00577 -0.0119388 0)
(3.90152 -0.00974707 0)
(3.76963 -0.00921119 0)
(3.72177 -0.00585571 0)
(3.61438 -0.00636475 0)
(3.57605 -0.00821723 0)
(3.47054 -0.00663149 0)
(3.44305 -0.00628798 0)
(3.3132 -0.011677 0)
(3.26869 -0.00986957 0)
(3.11481 -0.0137218 0)
(3.02876 -0.0175316 0)
(2.78731 -0.0189388 0)
(5.32805 -0.30945 0)
(2.98288 -0.0606596 0)
(2.19848 0.0017309 0)
(1.84576 0.00331922 0)
(1.70799 0.0014362 0)
(1.60857 0.000239902 0)
(1.53955 -0.000338896 0)
(1.47365 0.000237378 0)
(1.43789 0.000191979 0)
(1.39028 -0.00039681 0)
(1.37158 0.000295336 0)
(1.33601 1.0778e-05 0)
(1.31841 -0.000679283 0)
(1.27609 -0.000230047 0)
(1.2649 0.000178622 0)
(1.21312 -0.00130666 0)
(1.1857 -0.000496916 0)
(1.12255 -0.000960052 0)
(1.07739 -0.00143347 0)
(0.971784 0.00414005 0)
(1.32778 -0.0283554 0)
(1.7889 -0.291166 0)
(2.00415 -0.502705 0)
(1.75165 -0.464259 0)
(1.69752 -0.370642 0)
(1.15111 -0.0479055 0)
(1.57631 0.467052 0)
(2.44862 1.10358 0)
(3.8016 1.53608 0)
(5.16426 1.91214 0)
(5.98432 2.04137 0)
(6.77616 1.9023 0)
(8.01543 1.50653 0)
(8.47685 0.699233 0)
(8.89409 0.212703 0)
(9.43417 -0.131829 0)
(9.4876 -0.721331 0)
(9.62813 -0.857876 0)
(9.95714 -1.12283 0)
(10.3434 -1.50686 0)
(10.6542 -1.90986 0)
(10.8476 -2.51406 0)
(11.1033 -2.98031 0)
(11.4328 -3.50007 0)
(12.4561 -4.28578 0)
(13.1953 -5.12612 0)
(13.7729 -5.8538 0)
(13.7573 -6.34115 0)
(13.581 -6.47927 0)
(13.1049 -6.44845 0)
(12.7895 -6.34112 0)
(12.4584 -6.14801 0)
(12.1635 -5.87353 0)
(12.1238 -5.81742 0)
(11.9037 -5.59721 0)
(11.9013 -5.34916 0)
(11.5483 -5.08669 0)
(11.4862 -4.61643 0)
(11.1444 -4.2963 0)
(10.9977 -3.64867 0)
(10.6507 -3.16731 0)
(10.4264 -2.78129 0)
(10.034 -2.1228 0)
(9.6185 -2.03353 0)
(9.30245 -2.05263 0)
(8.70871 -1.52054 0)
(8.47102 -1.65366 0)
(8.42143 -2.20405 0)
(7.94798 -1.84537 0)
(7.41406 -1.43571 0)
(7.85586 -2.50949 0)
(8.52368 -3.76062 0)
(8.61151 -4.00915 0)
(8.4019 -3.3983 0)
(8.05486 -2.78206 0)
(7.9562 -2.28372 0)
(8.23859 -1.41835 0)
(8.44695 -0.133319 0)
(8.96229 1.80877 0)
(8.53611 4.12165 0)
(8.19754 6.00449 0)
(7.83443 7.54004 0)
(7.15932 9.19137 0)
(6.90069 10.0618 0)
(6.40495 11.1335 0)
(6.12192 11.469 0)
(6.07038 10.2559 0)
(5.81573 8.89203 0)
(5.63146 7.69253 0)
(5.39407 6.56336 0)
(5.45481 5.0282 0)
(5.469 3.05323 0)
(5.80005 0.744776 0)
(6.00498 -1.35366 0)
(6.44285 -3.39847 0)
(6.72767 -5.28161 0)
(6.70798 -6.32809 0)
(6.98289 -6.70016 0)
(7.07027 -7.08959 0)
(7.13862 -7.25669 0)
(7.03476 -7.18778 0)
(6.91947 -6.6052 0)
(6.36455 -5.69451 0)
(5.79826 -4.7927 0)
(5.71721 -3.8833 0)
(5.38289 -3.77827 0)
(5.59204 -3.94074 0)
(5.28889 -4.36573 0)
(5.31253 -4.78976 0)
(5.22722 -5.01675 0)
(5.20088 -5.4577 0)
(5.4461 -5.93748 0)
(5.29589 -6.36943 0)
(5.40484 -6.57856 0)
(5.42733 -6.52329 0)
(5.60809 -6.2743 0)
(5.69766 -6.3536 0)
(5.65719 -6.62867 0)
(5.94345 -6.23514 0)
(6.12875 -5.41837 0)
(6.2073 -4.55941 0)
(6.49328 -3.38591 0)
(6.64863 -1.99145 0)
(6.68164 -0.55142 0)
(6.75222 0.89446 0)
(7.08305 2.19554 0)
(7.30377 3.38633 0)
(7.49132 4.644 0)
(7.49833 5.85155 0)
(7.60382 6.64206 0)
(7.57345 6.90813 0)
(7.6552 6.82648 0)
(7.56909 6.58044 0)
(7.47824 6.23159 0)
(7.26106 5.66672 0)
(7.18923 4.82435 0)
(7.19347 3.91495 0)
(7.28525 3.25543 0)
(7.18687 3.10866 0)
(7.07288 3.35607 0)
(6.88131 3.75966 0)
(6.71269 3.90014 0)
(6.69142 3.77643 0)
(6.62012 3.32353 0)
(6.5253 2.84203 0)
(6.50782 2.37191 0)
(6.26837 1.9277 0)
(6.39018 1.6045 0)
(6.07713 1.22822 0)
(6.31778 1.00481 0)
(5.90826 0.768563 0)
(6.17594 0.632878 0)
(5.75949 0.513674 0)
(5.98126 0.484657 0)
(5.6025 0.410227 0)
(5.79422 0.448361 0)
(5.43247 0.420515 0)
(5.62578 0.442041 0)
(5.33046 0.43804 0)
(5.49189 0.44489 0)
(5.31762 0.414346 0)
(5.43664 0.412322 0)
(5.34478 0.381571 0)
(5.41858 0.347072 0)
(5.41743 0.332319 0)
(5.38433 0.296488 0)
(5.47647 0.287374 0)
(5.36156 0.244289 0)
(5.5202 0.268096 0)
(5.30643 0.217223 0)
(5.55727 0.250684 0)
(5.26749 0.203167 0)
(5.57397 0.257029 0)
(5.21785 0.201542 0)
(5.60583 0.264461 0)
(5.18589 0.210295 0)
(5.62937 0.284921 0)
(5.15412 0.23675 0)
(5.65844 0.305514 0)
(5.15787 0.264006 0)
(5.66919 0.336575 0)
(5.16505 0.320178 0)
(5.66672 0.363399 0)
(5.22776 0.367875 0)
(5.64406 0.397712 0)
(5.28696 0.454286 0)
(5.58504 0.437616 0)
(5.43203 0.515651 0)
(5.5055 0.480296 0)
(5.5557 0.624289 0)
(5.39581 0.551979 0)
(5.74469 0.694717 0)
(5.31698 0.620637 0)
(5.87126 0.809144 0)
(5.26362 0.735159 0)
(5.95831 0.90725 0)
(5.32573 0.86128 0)
(5.97358 0.994935 0)
(5.45376 1.05681 0)
(5.89665 1.11175 0)
(5.68556 1.23999 0)
(5.76506 1.24193 0)
(5.90603 1.48161 0)
(5.65374 1.45122 0)
(6.08434 1.68248 0)
(5.66108 1.73693 0)
(6.07784 1.87825 0)
(5.82138 2.11454 0)
(5.8309 2.198 0)
(6.03814 2.49177 0)
(5.72329 2.65706 0)
(6.06202 2.88335 0)
(5.78261 3.28312 0)
(5.66389 3.5167 0)
(5.96421 3.95927 0)
(5.74112 4.485 0)
(5.62219 4.92882 0)
(5.66184 5.99639 0)
(6.13113 6.97123 0)
(3.38145 9.90108 0)
(3.35423 -0.0491185 0)
(3.46632 -0.288259 0)
(3.67684 -0.46851 0)
(3.48593 -0.417372 0)
(3.48448 -0.315693 0)
(3.0259 0.0581489 0)
(3.03759 0.375789 0)
(3.34774 0.695034 0)
(3.93491 0.982338 0)
(5.09419 1.43741 0)
(5.93317 1.57473 0)
(6.6135 1.32469 0)
(7.87996 1.06053 0)
(8.46964 0.492392 0)
(8.75378 0.00118415 0)
(9.39731 -0.308928 0)
(9.45941 -0.765446 0)
(9.8002 -1.01677 0)
(10.2022 -1.32587 0)
(10.524 -1.71028 0)
(10.7842 -2.05053 0)
(11.086 -2.60976 0)
(11.7364 -3.13923 0)
(12.4192 -3.77107 0)
(13.375 -4.57502 0)
(13.8051 -5.3544 0)
(14.0624 -5.94203 0)
(13.8235 -6.26534 0)
(13.5285 -6.33789 0)
(13.0137 -6.28249 0)
(12.749 -6.20379 0)
(12.543 -6.06245 0)
(12.2875 -5.83376 0)
(12.2645 -5.75652 0)
(12.0485 -5.56914 0)
(12.0462 -5.28282 0)
(11.6867 -4.99888 0)
(11.68 -4.5421 0)
(11.3301 -4.18727 0)
(11.2099 -3.54606 0)
(10.8269 -3.06334 0)
(10.5873 -2.65864 0)
(10.2104 -1.94221 0)
(9.70284 -1.84384 0)
(9.38076 -1.84467 0)
(8.74071 -1.37141 0)
(8.46124 -1.56675 0)
(8.4382 -2.0678 0)
(7.88749 -1.65484 0)
(7.35591 -1.46761 0)
(7.77022 -2.72187 0)
(8.3757 -3.86851 0)
(8.25331 -3.92523 0)
(7.8109 -3.30012 0)
(7.40922 -2.74462 0)
(7.45361 -2.28701 0)
(7.73652 -1.51052 0)
(7.91945 -0.238169 0)
(8.38311 1.84771 0)
(7.90035 4.22671 0)
(7.80799 6.12254 0)
(7.43291 7.72361 0)
(6.88096 9.34654 0)
(6.67571 10.206 0)
(6.20399 11.3226 0)
(6.00779 11.5277 0)
(5.97996 10.3068 0)
(5.77163 8.98233 0)
(5.57253 7.78768 0)
(5.36182 6.59819 0)
(5.52267 5.0028 0)
(5.63277 2.97234 0)
(6.01827 0.634282 0)
(6.25585 -1.49381 0)
(6.7214 -3.52185 0)
(6.97547 -5.35925 0)
(6.98203 -6.40034 0)
(7.23593 -6.76046 0)
(7.25952 -7.11768 0)
(7.31605 -7.26684 0)
(7.18239 -7.12256 0)
(6.92126 -6.44783 0)
(6.34863 -5.47319 0)
(5.75702 -4.60702 0)
(5.70278 -3.81852 0)
(5.33804 -3.73714 0)
(5.44391 -3.87618 0)
(5.15614 -4.33722 0)
(5.1276 -4.7394 0)
(5.03376 -5.00177 0)
(5.00573 -5.50963 0)
(5.27819 -5.94626 0)
(4.97001 -6.34899 0)
(5.0486 -6.57904 0)
(5.03191 -6.55016 0)
(5.21139 -6.33268 0)
(5.29419 -6.37062 0)
(5.13954 -6.62862 0)
(5.33983 -6.31063 0)
(5.55484 -5.47252 0)
(5.58008 -4.61188 0)
(5.76076 -3.45232 0)
(5.98482 -2.02427 0)
(5.9867 -0.57382 0)
(6.07001 0.813009 0)
(6.38264 2.08481 0)
(6.62148 3.30935 0)
(6.82595 4.60372 0)
(6.84277 5.79777 0)
(6.96672 6.60393 0)
(7.01795 6.87745 0)
(7.12737 6.82268 0)
(7.10178 6.60463 0)
(7.04523 6.27949 0)
(6.9118 5.69622 0)
(6.89426 4.8258 0)
(6.92495 3.88896 0)
(7.01152 3.27193 0)
(6.90189 3.16137 0)
(6.75827 3.42297 0)
(6.5159 3.8171 0)
(6.47842 3.93391 0)
(6.30699 3.78212 0)
(6.44993 3.3486 0)
(6.2682 2.87558 0)
(6.303 2.40032 0)
(6.20507 1.97279 0)
(6.13794 1.61066 0)
(6.15995 1.26934 0)
(6.02316 1.01062 0)
(6.06346 0.823853 0)
(5.86742 0.633953 0)
(5.95767 0.581816 0)
(5.65515 0.487011 0)
(5.82241 0.480233 0)
(5.46056 0.452947 0)
(5.65457 0.48217 0)
(5.32594 0.434716 0)
(5.55562 0.48424 0)
(5.2412 0.422021 0)
(5.53359 0.440882 0)
(5.25213 0.388825 0)
(5.51176 0.393009 0)
(5.30598 0.328107 0)
(5.53034 0.337052 0)
(5.34512 0.292704 0)
(5.5156 0.278773 0)
(5.41241 0.254426 0)
(5.47646 0.255272 0)
(5.43572 0.241139 0)
(5.42764 0.221541 0)
(5.4833 0.243061 0)
(5.34453 0.221199 0)
(5.51815 0.246752 0)
(5.29166 0.213754 0)
(5.56632 0.268344 0)
(5.22937 0.228549 0)
(5.61129 0.293282 0)
(5.19683 0.240936 0)
(5.6656 0.326844 0)
(5.16663 0.274739 0)
(5.69657 0.371744 0)
(5.16904 0.30615 0)
(5.73771 0.408919 0)
(5.18514 0.36562 0)
(5.73779 0.46159 0)
(5.23551 0.428556 0)
(5.74506 0.497737 0)
(5.30968 0.519125 0)
(5.71557 0.549017 0)
(5.42856 0.619328 0)
(5.64477 0.596947 0)
(5.57456 0.743313 0)
(5.57865 0.658771 0)
(5.76872 0.849537 0)
(5.45117 0.765531 0)
(5.93688 0.9865 0)
(5.3935 0.902761 0)
(6.07816 1.07419 0)
(5.43424 1.08742 0)
(6.06926 1.19085 0)
(5.56928 1.36213 0)
(5.93978 1.32296 0)
(5.87031 1.56829 0)
(5.80662 1.51959 0)
(6.07944 1.84355 0)
(5.76696 1.85083 0)
(6.14135 2.03601 0)
(5.96705 2.25781 0)
(5.97278 2.3655 0)
(6.19368 2.64819 0)
(5.92666 2.92402 0)
(6.30412 3.09332 0)
(6.0949 3.56494 0)
(5.99014 3.98731 0)
(6.16003 4.41758 0)
(5.99132 5.0447 0)
(5.63534 6.31 0)
(7.36791 6.71299 0)
(4.82789 10.7088 0)
(5.28692 -0.0824733 0)
(5.19772 -0.290105 0)
(5.37177 -0.437434 0)
(5.26173 -0.37224 0)
(5.24089 -0.274579 0)
(4.9959 0.117157 0)
(4.94393 0.403547 0)
(5.01049 0.594446 0)
(5.05574 0.777561 0)
(5.51272 1.09521 0)
(6.49531 1.24707 0)
(6.89186 0.95759 0)
(7.76369 0.656547 0)
(8.45315 0.259389 0)
(8.56072 -0.209377 0)
(9.34908 -0.628941 0)
(9.44358 -0.949172 0)
(9.88495 -1.22739 0)
(10.4295 -1.53604 0)
(10.7893 -1.85524 0)
(11.2939 -2.14223 0)
(11.8921 -2.7327 0)
(12.7578 -3.36539 0)
(13.3609 -4.06272 0)
(13.9924 -4.80876 0)
(14.1342 -5.47376 0)
(14.1492 -5.91147 0)
(13.7306 -6.11324 0)
(13.3741 -6.1806 0)
(12.9539 -6.17196 0)
(12.7872 -6.11899 0)
(12.6575 -5.98911 0)
(12.3962 -5.79312 0)
(12.3836 -5.68327 0)
(12.2078 -5.51602 0)
(12.2601 -5.21206 0)
(11.9279 -4.90064 0)
(11.942 -4.43992 0)
(11.6092 -4.08408 0)
(11.4935 -3.42746 0)
(11.0747 -2.89667 0)
(10.7979 -2.50762 0)
(10.4325 -1.76656 0)
(9.84899 -1.66134 0)
(9.46417 -1.61369 0)
(8.76256 -1.17016 0)
(8.38688 -1.46547 0)
(8.39985 -1.92394 0)
(7.7609 -1.48361 0)
(7.25529 -1.53131 0)
(7.63908 -2.90336 0)
(8.14204 -3.88833 0)
(7.81645 -3.74681 0)
(7.23365 -3.12275 0)
(6.81618 -2.68717 0)
(6.97368 -2.32092 0)
(7.21928 -1.62929 0)
(7.37255 -0.30856 0)
(7.73344 1.89852 0)
(7.23245 4.28999 0)
(7.37542 6.19855 0)
(6.99969 7.88433 0)
(6.57461 9.46254 0)
(6.42685 10.3368 0)
(5.98364 11.4728 0)
(5.89081 11.564 0)
(5.90367 10.3544 0)
(5.72009 9.06098 0)
(5.50258 7.87762 0)
(5.36286 6.6088 0)
(5.5952 4.93487 0)
(5.82633 2.86378 0)
(6.24459 0.496646 0)
(6.53148 -1.64134 0)
(6.99358 -3.65133 0)
(7.2371 -5.43377 0)
(7.26863 -6.46061 0)
(7.47681 -6.81214 0)
(7.47047 -7.1267 0)
(7.49718 -7.23977 0)
(7.28159 -7.02831 0)
(6.95182 -6.26361 0)
(6.30915 -5.22735 0)
(5.71906 -4.42642 0)
(5.68979 -3.74837 0)
(5.23742 -3.6648 0)
(5.31172 -3.81164 0)
(4.99795 -4.2895 0)
(4.93444 -4.67834 0)
(4.8452 -4.99629 0)
(4.79378 -5.5598 0)
(5.07473 -5.91743 0)
(4.58705 -6.29199 0)
(4.70105 -6.57145 0)
(4.64084 -6.57997 0)
(4.81472 -6.39078 0)
(4.85384 -6.35436 0)
(4.62097 -6.60178 0)
(4.74162 -6.35778 0)
(4.96897 -5.51277 0)
(4.92915 -4.62951 0)
(5.05685 -3.52029 0)
(5.28424 -2.07137 0)
(5.35266 -0.613634 0)
(5.42664 0.72429 0)
(5.7189 1.98169 0)
(5.94544 3.22584 0)
(6.14485 4.56049 0)
(6.17267 5.74897 0)
(6.33278 6.53349 0)
(6.45152 6.81812 0)
(6.62598 6.79862 0)
(6.65735 6.6052 0)
(6.61664 6.29927 0)
(6.54081 5.70992 0)
(6.59248 4.82232 0)
(6.69768 3.87304 0)
(6.74267 3.29016 0)
(6.63162 3.23112 0)
(6.44529 3.52276 0)
(6.19532 3.87686 0)
(6.15392 3.96861 0)
(6.10308 3.78556 0)
(6.11817 3.34084 0)
(6.13697 2.90408 0)
(6.05953 2.40604 0)
(6.09665 1.99678 0)
(6.03895 1.62749 0)
(6.00691 1.27555 0)
(6.04249 1.04954 0)
(5.85402 0.830303 0)
(5.9762 0.681823 0)
(5.68638 0.599012 0)
(5.83245 0.543852 0)
(5.50765 0.48772 0)
(5.68649 0.524568 0)
(5.32299 0.469109 0)
(5.61081 0.490885 0)
(5.20659 0.465994 0)
(5.57272 0.46213 0)
(5.20412 0.400868 0)
(5.58468 0.432162 0)
(5.21167 0.348565 0)
(5.64542 0.352488 0)
(5.25755 0.302652 0)
(5.64504 0.320396 0)
(5.29641 0.242385 0)
(5.64995 0.279297 0)
(5.29319 0.241874 0)
(5.59595 0.255105 0)
(5.31332 0.215618 0)
(5.54141 0.2518 0)
(5.3148 0.231653 0)
(5.4809 0.232359 0)