/*--------------------------------*- C++ -*----------------------------------*\
| =========                 |                                                 |
| \\      /  F ield         | OpenFOAM: The Open Source CFD Toolbox           |
|  \\    /   O peration     | Version:  2.4.0                                 |
|   \\  /    A nd           | Web:      www.OpenFOAM.org                      |
|    \\/     M anipulation  |                                                 |
\*---------------------------------------------------------------------------*/
FoamFile
{
    version     2.0;
    format      ascii;
    class       surfaceScalarField;
    location    "0.031";
    object      phi;
}
// * * * * * * * * * * * * * * * * * * * * * * * * * * * * * * * * * * * * * //

dimensions      [0 3 -1 0 0 0 0];

internalField   nonuniform List<scalar> 
34880
(
5.48943e-06
7.01057e-06
3.12471e-06
2.36472e-06
2.47009e-06
6.54614e-07
2.22126e-06
2.48829e-07
2.07076e-06
1.50506e-07
1.96749e-06
1.03264e-07
1.88759e-06
7.99006e-08
1.81316e-06
7.4436e-08
1.76523e-06
4.79295e-08
1.73882e-06
2.64053e-08
1.70264e-06
3.618e-08
1.66759e-06
3.50549e-08
1.63923e-06
2.83605e-08
1.60919e-06
3.0038e-08
1.57942e-06
2.97712e-08
1.54767e-06
3.17442e-08
1.50023e-06
4.74446e-08
1.47004e-06
3.01866e-08
1.37188e-06
9.8166e-08
-4.00965e-07
1.77284e-06
1.01132e-05
9.39733e-06
7.82992e-06
4.64804e-06
6.7065e-06
1.77803e-06
6.0654e-06
8.89922e-07
5.63882e-06
5.77092e-07
5.35008e-06
3.92007e-07
5.12212e-06
3.07857e-07
4.92706e-06
2.69496e-07
4.79846e-06
1.76527e-07
4.69986e-06
1.25003e-07
4.60004e-06
1.36002e-07
4.51515e-06
1.19944e-07
4.44073e-06
1.02788e-07
4.36948e-06
1.01286e-07
4.28932e-06
1.09927e-07
4.19886e-06
1.22211e-07
4.11537e-06
1.30926e-07
4.03181e-06
1.13747e-07
3.96042e-06
1.69564e-07
-2.86732e-07
3.84618e-06
1.24279e-05
9.46941e-06
1.10045e-05
6.07146e-06
9.97698e-06
2.80555e-06
9.20254e-06
1.66437e-06
8.61089e-06
1.16874e-06
8.19133e-06
8.11563e-07
7.85676e-06
6.42422e-07
7.57061e-06
5.55655e-07
7.37756e-06
3.69577e-07
7.21705e-06
2.85504e-07
7.06512e-06
2.87941e-07
6.94162e-06
2.43436e-07
6.8291e-06
2.15308e-07
6.72738e-06
2.03006e-07
6.6132e-06
2.24113e-07
6.4734e-06
2.62004e-07
6.37872e-06
2.2561e-07
6.24551e-06
2.46952e-07
6.16027e-06
2.54808e-07
-2.77502e-07
6.15104e-06
1.34145e-05
8.55487e-06
1.28902e-05
6.59584e-06
1.23246e-05
3.37113e-06
1.1715e-05
2.27401e-06
1.1124e-05
1.75966e-06
1.06589e-05
1.27667e-06
1.02745e-05
1.02686e-06
9.9318e-06
8.98338e-07
9.69596e-06
6.05417e-07
9.49338e-06
4.88088e-07
9.29993e-06
4.81389e-07
9.14938e-06
3.93988e-07
9.0058e-06
3.58885e-07
8.88032e-06
3.28494e-07
8.74849e-06
3.55942e-07
8.56957e-06
4.40917e-07
8.46548e-06
3.29704e-07
8.31862e-06
3.93809e-07
8.17426e-06
3.99173e-07
-2.75837e-07
8.17259e-06
1.35912e-05
7.46367e-06
1.36613e-05
6.52574e-06
1.36269e-05
3.40552e-06
1.33985e-05
2.50238e-06
1.30074e-05
2.15076e-06
1.26223e-05
1.66178e-06
1.22758e-05
1.37333e-06
1.19357e-05
1.23847e-06
1.16935e-05
8.47596e-07
1.14827e-05
6.98909e-07
1.12682e-05
6.95873e-07
1.11081e-05
5.54072e-07
1.0947e-05
5.20021e-07
1.08056e-05
4.69947e-07
1.06712e-05
4.90315e-07
1.04764e-05
6.35692e-07
1.03536e-05
4.52466e-07
1.02221e-05
5.2536e-07
1.00417e-05
5.79606e-07
-1.77675e-08
9.78359e-06
1.34798e-05
6.48391e-06
1.37529e-05
6.25265e-06
1.40102e-05
3.14821e-06
1.41394e-05
2.37319e-06
1.40701e-05
2.22003e-06
1.3892e-05
1.83986e-06
1.36954e-05
1.5699e-06
1.3449e-05
1.48489e-06
1.32588e-05
1.03781e-06
1.309e-05
8.67678e-07
1.28908e-05
8.95115e-07
1.27479e-05
6.96981e-07
1.2592e-05
6.75885e-07
1.24493e-05
6.12664e-07
1.23235e-05
6.1616e-07
1.21463e-05
8.12865e-07
1.20062e-05
5.92555e-07
1.18987e-05
6.32861e-07
1.17228e-05
7.55466e-07
5.51632e-07
1.11534e-05
1.33495e-05
5.63439e-06
1.36796e-05
5.92256e-06
1.39586e-05
2.86917e-06
1.42207e-05
2.11115e-06
1.43774e-05
2.06327e-06
1.43932e-05
1.82407e-06
1.439e-05
1.57313e-06
1.43169e-05
1.55797e-06
1.42473e-05
1.10739e-06
1.41849e-05
9.30095e-07
1.40584e-05
1.02164e-06
1.39726e-05
7.82794e-07
1.38566e-05
7.91908e-07
1.37405e-05
7.28741e-07
1.36381e-05
7.18575e-07
1.35064e-05
9.44557e-07
1.33754e-05
7.23497e-07
1.32907e-05
7.17645e-07
1.31801e-05
8.66068e-07
7.25122e-07
1.30066e-05
1.32664e-05
4.86803e-06
1.36523e-05
5.53662e-06
1.38325e-05
2.68903e-06
1.41015e-05
1.84209e-06
1.43336e-05
1.83114e-06
1.44205e-05
1.73724e-06
1.4503e-05
1.49065e-06
1.45657e-05
1.49519e-06
1.46166e-05
1.0565e-06
1.46791e-05
8.67648e-07
1.46664e-05
1.03429e-06
1.46726e-05
7.76651e-07
1.46355e-05
8.29019e-07
1.45821e-05
7.82128e-07
1.45341e-05
7.66576e-07
1.44688e-05
1.00982e-06
1.43893e-05
8.03032e-07
1.43461e-05
7.60848e-07
1.42958e-05
9.16309e-07
7.72109e-07
1.42488e-05
1.32008e-05
4.16727e-06
1.35803e-05
5.15711e-06
1.37225e-05
2.54682e-06
1.39803e-05
1.58422e-06
1.42287e-05
1.58275e-06
1.43537e-05
1.61225e-06
1.4433e-05
1.41139e-06
1.45266e-05
1.40157e-06
1.46236e-05
9.59465e-07
1.47429e-05
7.48411e-07
1.48046e-05
9.72601e-07
1.48756e-05
7.05567e-07
1.49125e-05
7.92148e-07
1.49306e-05
7.64018e-07
1.49482e-05
7.48981e-07
1.49623e-05
9.95711e-07
1.49565e-05
8.08865e-07
1.49894e-05
7.27957e-07
1.50122e-05
8.93505e-07
7.1255e-07
1.50718e-05
1.31318e-05
3.5355e-06
1.35394e-05
4.74947e-06
1.36452e-05
2.44102e-06
1.38888e-05
1.34067e-06
1.41342e-05
1.33735e-06
1.42748e-05
1.47158e-06
1.4363e-05
1.3232e-06
1.44666e-05
1.29797e-06
1.45556e-05
8.70445e-07
1.4663e-05
6.41081e-07
1.4756e-05
8.79594e-07
1.48342e-05
6.2732e-07
1.49012e-05
7.25167e-07
1.49557e-05
7.09506e-07
1.50167e-05
6.87979e-07
1.50732e-05
9.39203e-07
1.51202e-05
7.61859e-07
1.52175e-05
6.30677e-07
1.52917e-05
8.19303e-07
5.9807e-07
1.54062e-05
1.30625e-05
2.97303e-06
1.34969e-05
4.31504e-06
1.36086e-05
2.32928e-06
1.38303e-05
1.11903e-06
1.40401e-05
1.12757e-06
1.41954e-05
1.31628e-06
1.43066e-05
1.21193e-06
1.44185e-05
1.18615e-06
1.44979e-05
7.90974e-07
1.459e-05
5.49001e-07
1.46765e-05
7.93109e-07
1.47508e-05
5.52986e-07
1.48243e-05
6.51654e-07
1.48976e-05
6.36212e-07
1.49613e-05
6.24289e-07
1.50379e-05
8.62647e-07
1.51087e-05
6.91013e-07
1.5213e-05
5.26368e-07
1.52984e-05
7.33939e-07
4.11993e-07
1.54845e-05
1.29915e-05
2.48152e-06
1.3447e-05
3.85959e-06
1.35953e-05
2.18092e-06
1.37803e-05
9.34033e-07
1.39651e-05
9.42738e-07
1.41313e-05
1.15014e-06
1.42482e-05
1.09496e-06
1.43712e-05
1.06318e-06
1.44516e-05
7.1063e-07
1.45278e-05
4.72772e-07
1.46068e-05
7.14093e-07
1.46796e-05
4.80159e-07
1.47601e-05
5.71184e-07
1.48251e-05
5.71189e-07
1.48981e-05
5.51261e-07
1.49895e-05
7.7125e-07
1.50607e-05
6.19904e-07
1.51548e-05
4.32176e-07
1.52667e-05
6.22081e-07
1.87316e-07
1.54914e-05
1.29369e-05
2.04466e-06
1.33992e-05
3.39727e-06
1.35978e-05
1.98233e-06
1.37432e-05
7.88586e-07
1.39088e-05
7.77183e-07
1.40666e-05
9.92314e-07
1.41952e-05
9.66408e-07
1.43307e-05
9.2764e-07
1.43977e-05
6.43634e-07
1.44742e-05
3.96215e-07
1.45585e-05
6.29811e-07
1.46203e-05
4.18422e-07
1.46992e-05
4.92284e-07
1.47696e-05
5.00722e-07
1.48494e-05
4.71475e-07
1.4936e-05
6.84653e-07
1.50124e-05
5.43494e-07
1.5109e-05
3.35648e-07
1.5238e-05
4.93029e-07
8.29076e-08
1.53424e-05
1.28918e-05
1.65283e-06
1.33531e-05
2.93595e-06
1.36122e-05
1.72332e-06
1.37117e-05
6.89067e-07
1.38561e-05
6.32728e-07
1.40179e-05
8.30507e-07
1.41458e-05
8.38576e-07
1.42844e-05
7.88983e-07
1.43568e-05
5.71231e-07
1.44304e-05
3.22656e-07
1.45101e-05
5.50127e-07
1.45727e-05
3.55778e-07
1.46561e-05
4.08892e-07
1.472e-05
4.36797e-07
1.48007e-05
3.90774e-07
1.48945e-05
5.90849e-07
1.49767e-05
4.61325e-07
1.5068e-05
2.44316e-07
1.51663e-05
3.94778e-07
1.24642e-07
1.51246e-05
1.28538e-05
1.29902e-06
1.33101e-05
2.47966e-06
1.35937e-05
1.4397e-06
1.36873e-05
5.95504e-07
1.38163e-05
5.03733e-07
1.39778e-05
6.69e-07
1.41019e-05
7.14475e-07
1.42486e-05
6.42228e-07
1.43205e-05
4.99372e-07
1.4389e-05
2.5416e-07
1.44756e-05
4.63527e-07
1.45342e-05
2.97136e-07
1.46154e-05
3.27743e-07
1.46792e-05
3.73019e-07
1.47631e-05
3.06824e-07
1.48613e-05
4.92694e-07
1.49425e-05
3.80115e-07
1.50215e-05
1.65286e-07
1.50882e-05
3.28077e-07
9.96141e-08
1.51132e-05
1.28222e-05
9.76785e-07
1.32745e-05
2.02741e-06
1.35732e-05
1.14103e-06
1.36693e-05
4.99401e-07
1.37844e-05
3.88655e-07
1.39444e-05
5.08983e-07
1.40666e-05
5.92242e-07
1.42171e-05
4.91757e-07
1.42906e-05
4.25881e-07
1.43575e-05
1.87236e-07
1.44457e-05
3.75344e-07
1.45023e-05
2.40551e-07
1.4585e-05
2.44988e-07
1.46468e-05
3.11203e-07
1.47313e-05
2.22335e-07
1.48314e-05
3.92574e-07
1.49142e-05
2.97398e-07
1.49812e-05
9.82068e-08
1.50717e-05
2.37583e-07
-4.70785e-08
1.52184e-05
1.27977e-05
6.79071e-07
1.32455e-05
1.57967e-06
1.35535e-05
8.32985e-07
1.36567e-05
3.96214e-07
1.37599e-05
2.85453e-07
1.39171e-05
3.51762e-07
1.40386e-05
4.70714e-07
1.41931e-05
3.37287e-07
1.42671e-05
3.51853e-07
1.43318e-05
1.22597e-07
1.44238e-05
2.83325e-07
1.44781e-05
1.86227e-07
1.45587e-05
1.6439e-07
1.46225e-05
2.47417e-07
1.4706e-05
1.38821e-07
1.4809e-05
2.89612e-07
1.48901e-05
2.16313e-07
1.4961e-05
2.72846e-08
1.50663e-05
1.3225e-07
-1.32089e-08
1.50324e-05
1.27786e-05
4.00483e-07
1.32235e-05
1.13472e-06
1.35388e-05
5.17696e-07
1.36484e-05
2.86626e-07
1.37418e-05
1.92032e-07
1.38975e-05
1.96131e-07
1.40178e-05
3.50336e-07
1.4174e-05
1.81173e-07
1.42509e-05
2.74933e-07
1.4313e-05
6.04569e-08
1.44067e-05
1.89675e-07
1.44601e-05
1.32763e-07
1.45405e-05
8.40408e-08
1.46047e-05
1.83158e-07
1.46861e-05
5.74099e-08
1.47916e-05
1.84108e-07
1.4876e-05
1.31962e-07
1.49433e-05
-4.00504e-08
1.50042e-05
7.1425e-08
4.27955e-08
1.49482e-05
1.27662e-05
1.34265e-07
1.32091e-05
6.91891e-07
1.35279e-05
1.98884e-07
1.36439e-05
1.70581e-07
1.37304e-05
1.05552e-07
1.38836e-05
4.29214e-08
1.40041e-05
2.29826e-07
1.41617e-05
2.35856e-08
1.42405e-05
1.96164e-07
1.43002e-05
7.47293e-10
1.43959e-05
9.39249e-08
1.44498e-05
7.89337e-08
1.45263e-05
7.45723e-09
1.45939e-05
1.1564e-07
1.46735e-05
-2.22491e-08
1.47807e-05
7.69457e-08
1.48656e-05
4.70433e-08
1.49211e-05
-9.55913e-08
1.49868e-05
5.76193e-09
-8.874e-08
1.51183e-05
1.27596e-05
-1.25346e-07
1.32014e-05
2.50089e-07
1.35226e-05
-1.22258e-07
1.36421e-05
5.10132e-08
1.37245e-05
2.31355e-08
1.38768e-05
-1.09347e-07
1.39977e-05
1.08902e-07
1.41546e-05
-1.33268e-07
1.42365e-05
1.14227e-07
1.42936e-05
-5.63038e-08
1.4391e-05
-3.53847e-09
1.44448e-05
2.51459e-08
1.4519e-05
-6.66944e-08
1.45901e-05
4.44746e-08
1.46662e-05
-9.83221e-08
1.47751e-05
-3.19382e-08
1.4859e-05
-3.68411e-08
1.49147e-05
-1.51271e-07
1.50096e-05
-8.91957e-08
-1.47018e-07
1.50679e-05
1.27592e-05
-3.84545e-07
1.32011e-05
-1.91807e-07
1.35224e-05
-4.43561e-07
1.36422e-05
-6.87695e-08
1.37246e-05
-5.92654e-08
1.38763e-05
-2.61107e-07
1.39982e-05
-1.29213e-08
1.41536e-05
-2.88747e-07
1.42382e-05
2.96934e-08
1.42933e-05
-1.11424e-07
1.43917e-05
-1.01984e-07
1.44464e-05
-2.94985e-08
1.45175e-05
-1.37769e-07
1.45928e-05
-3.08649e-08
1.46649e-05
-1.70439e-07
1.47752e-05
-1.42255e-07
1.48594e-05
-1.20999e-07
1.49201e-05
-2.12018e-07
1.5006e-05
-1.75054e-07
-1.21861e-07
1.49808e-05
1.27647e-05
-6.49274e-07
1.32077e-05
-6.34778e-07
1.35279e-05
-7.63793e-07
1.36441e-05
-1.84923e-07
1.37302e-05
-1.454e-07
1.38826e-05
-4.13498e-07
1.40058e-05
-1.36111e-07
1.4158e-05
-4.4096e-07
1.42461e-05
-5.8398e-08
1.4299e-05
-1.64351e-07
1.43981e-05
-2.01021e-07
1.44541e-05
-8.54906e-08
1.45223e-05
-2.05989e-07
1.46017e-05
-1.10262e-07
1.46698e-05
-2.38594e-07
1.47815e-05
-2.53887e-07
1.48661e-05
-2.05637e-07
1.49277e-05
-2.73566e-07
1.49981e-05
-2.45526e-07
-1.13909e-07
1.49902e-05
1.27762e-05
-9.25524e-07
1.32217e-05
-1.08021e-06
1.35386e-05
-1.08076e-06
1.36486e-05
-2.94846e-07
1.37419e-05
-2.38723e-07
1.38955e-05
-5.67075e-07
1.40202e-05
-2.60813e-07
1.41683e-05
-5.89062e-07
1.426e-05
-1.50093e-07
1.43107e-05
-2.15106e-07
1.44104e-05
-3.00645e-07
1.44679e-05
-1.43e-07
1.45334e-05
-2.71573e-07
1.46169e-05
-1.93753e-07
1.46811e-05
-3.02718e-07
1.47937e-05
-3.6652e-07
1.48776e-05
-2.8951e-07
1.49383e-05
-3.34262e-07
1.50072e-05
-3.14461e-07
-1.63718e-07
1.5057e-05
1.27938e-05
-1.21934e-06
1.32429e-05
-1.5293e-06
1.35542e-05
-1.39205e-06
1.36568e-05
-3.97453e-07
1.37598e-05
-3.4177e-07
1.3915e-05
-7.22183e-07
1.40415e-05
-3.8736e-07
1.41844e-05
-7.31944e-07
1.42798e-05
-2.45483e-07
1.43286e-05
-2.63974e-07
1.44286e-05
-4.00641e-07
1.44875e-05
-2.01865e-07
1.45515e-05
-3.35579e-07
1.46387e-05
-2.80904e-07
1.46986e-05
-3.62686e-07
1.48119e-05
-4.79747e-07
1.48935e-05
-3.71158e-07
1.49572e-05
-3.97938e-07
1.50415e-05
-3.98801e-07
-2.56729e-07
1.51345e-05
1.28173e-05
-1.53669e-06
1.32716e-05
-1.98356e-06
1.35738e-05
-1.69424e-06
1.36695e-05
-4.93202e-07
1.37846e-05
-4.56857e-07
1.39413e-05
-8.78827e-07
1.40696e-05
-5.15698e-07
1.42064e-05
-8.68748e-07
1.43057e-05
-3.44774e-07
1.43528e-05
-3.11074e-07
1.44531e-05
-5.00899e-07
1.45133e-05
-2.62106e-07
1.45767e-05
-3.98961e-07
1.46667e-05
-3.70882e-07
1.4723e-05
-4.18995e-07
1.48358e-05
-5.92614e-07
1.49151e-05
-4.5042e-07
1.49879e-05
-4.70768e-07
1.50816e-05
-4.92443e-07
-2.93577e-07
1.51184e-05
1.28469e-05
-1.88356e-06
1.33076e-05
-2.44424e-06
1.35959e-05
-1.98256e-06
1.36875e-05
-5.84848e-07
1.38169e-05
-5.86188e-07
1.39747e-05
-1.03671e-06
1.41046e-05
-6.45545e-07
1.42346e-05
-9.98815e-07
1.43377e-05
-4.47842e-07
1.43835e-05
-3.56834e-07
1.44839e-05
-6.0136e-07
1.45454e-05
-3.23581e-07
1.46096e-05
-4.63144e-07
1.4701e-05
-4.62277e-07
1.47546e-05
-4.72574e-07
1.48661e-05
-7.04109e-07
1.49433e-05
-5.27664e-07
1.50254e-05
-5.52882e-07
1.51042e-05
-5.71222e-07
-2.95019e-07
1.51056e-05
1.28825e-05
-2.26606e-06
1.33502e-05
-2.91193e-06
1.36158e-05
-2.2482e-06
1.37116e-05
-6.80575e-07
1.38575e-05
-7.32153e-07
1.40161e-05
-1.19524e-06
1.41465e-05
-7.75954e-07
1.42693e-05
-1.12163e-06
1.43759e-05
-5.54498e-07
1.4421e-05
-4.01891e-07
1.45216e-05
-7.01935e-07
1.45842e-05
-3.86205e-07
1.4651e-05
-5.29964e-07
1.47418e-05
-5.53072e-07
1.47941e-05
-5.249e-07
1.49028e-05
-8.12752e-07
1.4977e-05
-6.01902e-07
1.50635e-05
-6.39328e-07
1.5137e-05
-6.44721e-07
-4.2547e-07
1.52674e-05
1.2925e-05
-2.69104e-06
1.33981e-05
-3.385e-06
1.3605e-05
-2.45516e-06
1.37432e-05
-8.18718e-07
1.39089e-05
-8.97856e-07
1.4067e-05
-1.3534e-06
1.41958e-05
-9.04717e-07
1.43103e-05
-1.23615e-06
1.44203e-05
-6.64463e-07
1.4466e-05
-4.47591e-07
1.45669e-05
-8.02823e-07
1.46306e-05
-4.49958e-07
1.47018e-05
-6.01153e-07
1.47894e-05
-6.40654e-07
1.48425e-05
-5.78026e-07
1.49456e-05
-9.15807e-07
1.5015e-05
-6.71355e-07
1.51108e-05
-7.35154e-07
1.5213e-05
-7.46871e-07
-5.88321e-07
1.53758e-05
1.29753e-05
-3.16638e-06
1.34493e-05
-3.85893e-06
1.36009e-05
-2.60679e-06
1.37836e-05
-1.00139e-06
1.39726e-05
-1.08693e-06
1.41293e-05
-1.51005e-06
1.42516e-05
-1.02701e-06
1.43555e-05
-1.34009e-06
1.44686e-05
-7.77586e-07
1.45183e-05
-4.9722e-07
1.46203e-05
-9.04843e-07
1.46861e-05
-5.15716e-07
1.47622e-05
-6.77322e-07
1.48438e-05
-7.22242e-07
1.48993e-05
-6.33498e-07
1.49932e-05
-1.00971e-06
1.5059e-05
-7.37185e-07
1.51668e-05
-8.42899e-07
1.52597e-05
-8.39807e-07
-6.94732e-07
1.53661e-05
1.30326e-05
-3.69899e-06
1.3503e-05
-4.3293e-06
1.36245e-05
-2.72833e-06
1.38347e-05
-1.2116e-06
1.40525e-05
-1.30472e-06
1.42043e-05
-1.6618e-06
1.4312e-05
-1.13474e-06
1.4403e-05
-1.43108e-06
1.45194e-05
-8.94029e-07
1.45811e-05
-5.58899e-07
1.46846e-05
-1.0083e-06
1.47546e-05
-5.85755e-07
1.48333e-05
-7.56047e-07
1.49052e-05
-7.94087e-07
1.49634e-05
-6.9172e-07
1.50433e-05
-1.08964e-06
1.51041e-05
-7.98e-07
1.52117e-05
-9.50508e-07
1.52992e-05
-9.27244e-07
-9.15883e-07
1.55203e-05
1.30926e-05
-4.29157e-06
1.35616e-05
-4.79835e-06
1.36633e-05
-2.82995e-06
1.39034e-05
-1.45178e-06
1.41508e-05
-1.55205e-06
1.42861e-05
-1.79711e-06
1.43756e-05
-1.22426e-06
1.44559e-05
-1.51138e-06
1.45756e-05
-1.01375e-06
1.46603e-05
-6.43622e-07
1.47597e-05
-1.10765e-06
1.48357e-05
-6.61808e-07
1.49074e-05
-8.27677e-07
1.49603e-05
-8.47015e-07
1.50159e-05
-7.47336e-07
1.50683e-05
-1.14206e-06
1.51164e-05
-8.46057e-07
1.51997e-05
-1.03381e-06
1.52661e-05
-9.93633e-07
-1.12998e-06
1.54802e-05
1.31545e-05
-4.94606e-06
1.36297e-05
-5.2736e-06
1.37283e-05
-2.92853e-06
1.40005e-05
-1.72393e-06
1.42572e-05
-1.80883e-06
1.43596e-05
-1.89951e-06
1.44505e-05
-1.31516e-06
1.45253e-05
-1.58614e-06
1.46389e-05
-1.12738e-06
1.47389e-05
-7.43582e-07
1.48081e-05
-1.17692e-06
1.4876e-05
-7.29681e-07
1.49124e-05
-8.64049e-07
1.49216e-05
-8.56249e-07
1.49491e-05
-7.7485e-07
1.49392e-05
-1.13216e-06
1.49441e-05
-8.50887e-07
1.49523e-05
-1.04205e-06
1.49456e-05
-9.86958e-07
-1.26655e-06
1.50822e-05
1.32304e-05
-5.67644e-06
1.37027e-05
-5.74588e-06
1.38264e-05
-3.05226e-06
1.41249e-05
-2.02239e-06
1.43533e-05
-2.0373e-06
1.44207e-05
-1.96686e-06
1.45282e-05
-1.42266e-06
1.45644e-05
-1.62231e-06
1.46238e-05
-1.18684e-06
1.46825e-05
-8.02279e-07
1.46621e-05
-1.15651e-06
1.46713e-05
-7.38862e-07
1.46294e-05
-8.22188e-07
1.45664e-05
-7.93228e-07
1.45292e-05
-7.37617e-07
1.44309e-05
-1.03387e-06
1.43677e-05
-7.87662e-07
1.42837e-05
-9.58046e-07
1.41981e-05
-9.01389e-07
-1.28375e-06
1.42153e-05
1.33351e-05
-6.51152e-06
1.37264e-05
-6.13721e-06
1.39442e-05
-3.27001e-06
1.4241e-05
-2.31922e-06
1.43884e-05
-2.18468e-06
1.43818e-05
-1.96033e-06
1.44114e-05
-1.45226e-06
1.43142e-05
-1.52507e-06
1.42443e-05
-1.117e-06
1.41935e-05
-7.51462e-07
1.40484e-05
-1.01136e-06
1.39696e-05
-6.60062e-07
1.38471e-05
-6.99706e-07
1.37228e-05
-6.68943e-07
1.36243e-05
-6.39056e-07
1.34616e-05
-8.71184e-07
1.33469e-05
-6.72957e-07
1.32027e-05
-8.13908e-07
1.30702e-05
-7.68917e-07
-1.17037e-06
1.29569e-05
1.34696e-05
-7.48111e-06
1.37844e-05
-6.45205e-06
1.39949e-05
-3.48045e-06
1.41551e-05
-2.47943e-06
1.40805e-05
-2.11012e-06
1.38786e-05
-1.75836e-06
1.37121e-05
-1.28579e-06
1.34482e-05
-1.26122e-06
1.32492e-05
-9.17992e-07
1.31007e-05
-6.02935e-07
1.28772e-05
-7.87816e-07
1.2744e-05
-5.2694e-07
1.25808e-05
-5.36471e-07
1.24309e-05
-5.19032e-07
1.2298e-05
-5.06179e-07
1.21059e-05
-6.79038e-07
1.19649e-05
-5.31979e-07
1.17917e-05
-6.40741e-07
1.16361e-05
-6.13244e-07
-9.18016e-07
1.13837e-05
1.35851e-05
-8.56626e-06
1.36828e-05
-6.5497e-06
1.36161e-05
-3.41374e-06
1.34078e-05
-2.27116e-06
1.30167e-05
-1.71901e-06
1.26097e-05
-1.35136e-06
1.22887e-05
-9.64816e-07
1.19364e-05
-9.08863e-07
1.16812e-05
-6.62852e-07
1.14939e-05
-4.15624e-07
1.12527e-05
-5.46589e-07
1.11041e-05
-3.78337e-07
1.09351e-05
-3.67474e-07
1.07854e-05
-3.69304e-07
1.06397e-05
-3.60517e-07
1.04432e-05
-4.82493e-07
1.02954e-05
-3.84266e-07
1.01167e-05
-4.61953e-07
9.95705e-06
-4.53638e-07
-5.46314e-07
9.58535e-06
1.34111e-05
-9.47734e-06
1.29045e-05
-6.04314e-06
1.23186e-05
-2.82785e-06
1.17195e-05
-1.67207e-06
1.11325e-05
-1.132e-06
1.06474e-05
-8.66241e-07
1.02843e-05
-6.01691e-07
9.93312e-06
-5.5771e-07
9.6832e-06
-4.12925e-07
9.50354e-06
-2.35965e-07
9.2847e-06
-3.27747e-07
9.14475e-06
-2.38388e-07
8.99395e-06
-2.16677e-07
8.85899e-06
-2.34337e-07
8.71832e-06
-2.1985e-07
8.5377e-06
-3.01879e-07
8.39797e-06
-2.44528e-07
8.23221e-06
-2.96202e-07
8.08193e-06
-3.03356e-07
-2.94543e-07
7.83016e-06
1.24256e-05
-9.4029e-06
1.1014e-05
-4.63162e-06
9.97418e-06
-1.78798e-06
9.20273e-06
-9.00619e-07
8.61958e-06
-5.48853e-07
8.18075e-06
-4.27415e-07
7.86387e-06
-2.84804e-07
7.57313e-06
-2.66973e-07
7.36522e-06
-2.05014e-07
7.22511e-06
-9.58549e-08
7.05274e-06
-1.55379e-07
6.93601e-06
-1.21658e-07
6.81861e-06
-9.92772e-08
6.70632e-06
-1.22049e-07
6.58838e-06
-1.01909e-07
6.4393e-06
-1.52797e-07
6.31952e-06
-1.24753e-07
6.18006e-06
-1.56737e-07
6.04135e-06
-1.64647e-07
-1.27864e-07
5.87467e-06
1.01103e-05
-7.01321e-06
7.83694e-06
-2.35825e-06
6.70609e-06
-6.57127e-07
6.06148e-06
-2.56009e-07
5.64876e-06
-1.36135e-07
5.33998e-06
-1.18636e-07
5.12715e-06
-7.19729e-08
4.93074e-06
-7.05593e-08
4.78689e-06
-6.11656e-08
4.70599e-06
-1.49545e-08
4.59193e-06
-4.13229e-08
4.50876e-06
-3.84853e-08
4.43389e-06
-2.44052e-08
4.35083e-06
-3.89887e-08
4.27308e-06
-2.41568e-08
4.16613e-06
-4.5855e-08
4.07943e-06
-3.80501e-08
3.97441e-06
-5.17189e-08
3.86297e-06
-5.32013e-08
-3.3738e-08
3.76884e-06
5.48679e-06
3.12854e-06
2.47141e-06
2.2154e-06
2.07927e-06
1.96063e-06
1.88866e-06
1.8181e-06
1.75693e-06
1.74198e-06
1.70066e-06
1.66217e-06
1.63777e-06
1.59878e-06
1.57462e-06
1.52877e-06
1.49072e-06
1.439e-06
1.3858e-06
1.35206e-06
2.11319e-06
-2.98038e-07
-4.23094e-08
1.99417e-06
-2.49073e-07
3.68093e-07
2.04527e-06
5.23333e-08
-1.0344e-07
2.58261e-06
1.56634e-07
-6.93972e-07
2.65633e-06
3.05311e-07
-3.79023e-07
2.58011e-06
3.47645e-07
-2.71426e-07
2.9157e-06
7.50671e-07
-1.08626e-06
3.47873e-06
1.72165e-06
-2.28469e-06
4.37391e-06
1.92443e-06
-2.81961e-06
5.39234e-06
1.12655e-06
-2.14497e-06
5.94743e-06
2.00682e-06
-2.56191e-06
6.71199e-06
4.11936e-06
-4.88392e-06
8.21955e-06
3.67638e-06
-5.18394e-06
9.11035e-06
2.95097e-06
-3.84176e-06
9.67634e-06
4.34603e-06
-4.91202e-06
1.04782e-05
4.09365e-06
-4.8955e-06
1.14499e-05
1.92793e-06
-2.89964e-06
1.27458e-05
8.93911e-07
-2.18985e-06
1.33639e-05
1.48009e-06
-2.09818e-06
1.30457e-05
1.95668e-06
-1.63844e-06
1.26857e-05
-3.49792e-07
7.09747e-07
1.25007e-05
-5.5077e-06
5.69272e-06
1.22134e-05
-9.6044e-06
9.89172e-06
1.19057e-05
-9.46341e-06
9.77107e-06
1.18853e-05
-7.01927e-06
7.03969e-06
1.23208e-05
-6.59759e-06
6.16205e-06
1.31061e-05
-9.15033e-06
8.36503e-06
1.38265e-05
-1.26604e-05
1.19401e-05
1.41893e-05
-1.52417e-05
1.4879e-05
1.41212e-05
-1.60925e-05
1.61605e-05
1.36066e-05
-1.58705e-05
1.63851e-05
1.29162e-05
-1.53104e-05
1.60009e-05
1.22633e-05
-1.45798e-05
1.52326e-05
1.17061e-05
-1.40101e-05
1.45672e-05
1.11965e-05
-1.32899e-05
1.37996e-05
1.06344e-05
-1.22189e-05
1.2781e-05
1.01057e-05
-1.10562e-05
1.15849e-05
9.66838e-06
-1.00441e-05
1.04814e-05
9.27947e-06
-9.32343e-06
9.71234e-06
8.91091e-06
-8.5615e-06
8.93006e-06
8.54948e-06
-7.5697e-06
7.93114e-06
8.24686e-06
-6.64907e-06
6.95169e-06
8.0692e-06
-5.97744e-06
6.1551e-06
7.97512e-06
-5.46079e-06
5.55486e-06
7.8571e-06
-5.01066e-06
5.12868e-06
7.67985e-06
-4.59929e-06
4.77655e-06
7.4985e-06
-4.16507e-06
4.34641e-06
7.35107e-06
-3.65693e-06
3.80436e-06
7.20912e-06
-3.13628e-06
3.27823e-06
7.0431e-06
-2.71319e-06
2.87921e-06
6.87589e-06
-2.41468e-06
2.58189e-06
6.75537e-06
-2.18245e-06
2.30298e-06
6.70369e-06
-1.96091e-06
2.0126e-06
6.70507e-06
-1.74281e-06
1.74143e-06
6.72754e-06
-1.54776e-06
1.5253e-06
6.74564e-06
-1.38872e-06
1.37062e-06
6.7487e-06
-1.26186e-06
1.2588e-06
6.73771e-06
-1.15443e-06
1.16542e-06
6.71862e-06
-1.05463e-06
1.07371e-06
6.69725e-06
-9.56428e-07
9.77799e-07
6.67711e-06
-8.5931e-07
8.79451e-07
6.65953e-06
-7.65736e-07
7.83316e-07
6.64459e-06
-6.78591e-07
6.93533e-07
6.63191e-06
-5.99752e-07
6.12424e-07
6.62112e-06
-5.29794e-07
5.40589e-07
6.61191e-06
-4.68325e-07
4.77538e-07
6.60406e-06
-4.14453e-07
4.22296e-07
6.59742e-06
-3.67161e-07
3.73802e-07
6.59184e-06
-3.25511e-07
3.31097e-07
6.58716e-06
-2.88708e-07
2.93382e-07
6.58327e-06
-2.56101e-07
2.59997e-07
6.58003e-06
-2.2716e-07
2.30397e-07
6.57734e-06
-2.01443e-07
2.04128e-07
6.57512e-06
-1.78578e-07
1.80803e-07
6.57328e-06
-1.58243e-07
1.60087e-07
6.57175e-06
-1.40155e-07
1.41682e-07
6.57048e-06
-1.24063e-07
1.25328e-07
6.56944e-06
-1.09749e-07
1.10797e-07
6.56857e-06
-9.70146e-08
9.78844e-08
6.56784e-06
-8.56858e-08
8.64074e-08
6.56725e-06
-7.56062e-08
7.62048e-08
6.56675e-06
-6.66373e-08
6.71344e-08
6.56634e-06
-5.86552e-08
5.90685e-08
6.56599e-06
-5.15492e-08
5.18928e-08
6.56571e-06
-4.52203e-08
4.55057e-08
6.56547e-06
-3.95805e-08
3.9818e-08
6.56527e-06
-3.45509e-08
3.47489e-08
6.56511e-06
-3.00611e-08
3.0226e-08
6.56497e-06
-2.60477e-08
2.61847e-08
6.56486e-06
-2.24543e-08
2.25684e-08
6.56476e-06
-1.92299e-08
1.93252e-08
6.56468e-06
-1.63292e-08
1.64084e-08
6.56462e-06
-1.37109e-08
1.37764e-08
6.56456e-06
-1.13384e-08
1.13928e-08
6.56452e-06
-9.17849e-09
9.22371e-09
6.56448e-06
-7.20095e-09
7.23824e-09
6.56445e-06
-5.37837e-09
5.40843e-09
6.56442e-06
-3.68595e-09
3.7104e-09
6.5644e-06
-2.101e-09
2.12059e-09
6.56439e-06
-6.03094e-10
6.18627e-10
6.56438e-06
8.22566e-10
-8.11843e-10
6.56437e-06
2.20608e-09
-2.19848e-09
6.56437e-06
3.55935e-09
-3.55377e-09
6.56436e-06
4.89772e-09
-4.89639e-09
6.56437e-06
6.23576e-09
-6.23685e-09
6.56437e-06
7.58881e-09
-7.59248e-09
6.56437e-06
8.97161e-09
-8.97782e-09
6.56438e-06
1.03995e-08
-1.04085e-08
6.5644e-06
1.18873e-08
-1.18995e-08
6.56441e-06
1.34507e-08
-1.34657e-08
6.56443e-06
1.5105e-08
-1.51231e-08
6.56445e-06
1.68671e-08
-1.68887e-08
6.56448e-06
1.87534e-08
-1.87794e-08
6.56451e-06
2.0784e-08
-2.08141e-08
6.56454e-06
2.29756e-08
-2.30107e-08
6.56458e-06
2.53552e-08
-2.53954e-08
6.56463e-06
2.7936e-08
-2.79834e-08
6.56468e-06
3.07643e-08
-3.08172e-08
6.56475e-06
3.38308e-08
-3.38937e-08
6.56481e-06
3.72411e-08
-3.73072e-08
6.5649e-06
4.08963e-08
-4.09814e-08
6.56497e-06
4.50915e-08
-4.51675e-08
6.56509e-06
4.94174e-08
-4.95367e-08
6.56516e-06
5.47579e-08
-5.4822e-08
6.56534e-06
5.972e-08
-5.99056e-08
6.56532e-06
6.69374e-08
-6.69178e-08
6.56566e-06
7.21348e-08
-7.24715e-08
6.56534e-06
8.28119e-08
-8.24971e-08
6.56605e-06
8.69126e-08
-8.76203e-08
6.56489e-06
1.0442e-07
-1.0326e-07
6.56647e-06
1.04137e-07
-1.05715e-07
6.56318e-06
1.35039e-07
-1.31749e-07
6.56657e-06
1.23814e-07
-1.27204e-07
6.55855e-06
1.78843e-07
-1.70829e-07
6.56509e-06
1.46355e-07
-1.52891e-07
6.5482e-06
2.37928e-07
-2.21039e-07
6.55901e-06
1.72934e-07
-1.83746e-07
6.52906e-06
3.05041e-07
-2.75084e-07
6.54421e-06
2.03392e-07
-2.18541e-07
6.50097e-06
3.57691e-07
-3.14452e-07
6.52003e-06
2.30173e-07
-2.49239e-07
6.46985e-06
3.68932e-07
-3.18746e-07
6.49411e-06
2.38404e-07
-2.62669e-07
6.44819e-06
3.27465e-07
-2.81544e-07
6.47502e-06
2.35206e-07
-2.62031e-07
6.45496e-06
2.3037e-07
-2.10314e-07
6.45731e-06
2.79557e-07
-2.81911e-07
6.50068e-06
9.53884e-08
-1.38758e-07
6.43567e-06
3.86176e-07
-3.21161e-07
6.54818e-06
4.70892e-08
-1.59602e-07
6.43551e-06
4.07982e-07
-2.95311e-07
6.53735e-06
2.04959e-07
-3.06796e-07
6.47859e-06
2.9869e-07
-2.39938e-07
6.47417e-06
4.25184e-07
-4.2076e-07
6.53547e-06
2.39921e-07
-3.0122e-07
6.43361e-06
5.19822e-07
-4.17966e-07
6.54692e-06
3.16007e-07
-4.29309e-07
6.44966e-06
5.38343e-07
-4.41084e-07
6.5208e-06
4.42826e-07
-5.13972e-07
6.46708e-06
5.65615e-07
-5.11894e-07
6.51307e-06
5.74325e-07
-6.20317e-07
6.46733e-06
6.09396e-07
-5.63649e-07
6.50218e-06
7.04007e-07
-7.38863e-07
6.49239e-06
7.01084e-07
-6.91294e-07
6.47335e-06
8.13959e-07
-7.94919e-07
6.5253e-06
8.40552e-07
-8.92497e-07
6.45705e-06
9.51452e-07
-8.83207e-07
6.53295e-06
9.93317e-07
-1.06921e-06
6.48256e-06
1.11836e-06
-1.06798e-06
6.51742e-06
1.17974e-06
-1.2146e-06
6.49182e-06
1.34044e-06
-1.31484e-06
6.53492e-06
1.38328e-06
-1.42638e-06
6.50435e-06
1.58487e-06
-1.5543e-06
6.52852e-06
1.67334e-06
-1.69751e-06
6.51892e-06
1.86455e-06
-1.85495e-06
6.53507e-06
2.0087e-06
-2.02485e-06
6.55864e-06
2.20258e-06
-2.22615e-06
6.53075e-06
2.39786e-06
-2.36996e-06
6.57327e-06
2.64487e-06
-2.6874e-06
6.53175e-06
2.90166e-06
-2.86014e-06
6.59101e-06
3.12016e-06
-3.17942e-06
6.52664e-06
3.50924e-06
-3.44487e-06
6.64018e-06
3.75314e-06
-3.86669e-06
6.52138e-06
4.21076e-06
-4.09195e-06
6.57918e-06
4.55905e-06
-4.61685e-06
6.51705e-06
5.08665e-06
-5.02452e-06
6.52129e-06
5.58216e-06
-5.5864e-06
6.5729e-06
6.12366e-06
-6.17528e-06
6.41746e-06
6.77271e-06
-6.61726e-06
6.53333e-06
7.47055e-06
-7.58642e-06
6.41185e-06
8.41677e-06
-8.29529e-06
6.29239e-06
9.29514e-06
-9.17568e-06
6.17488e-06
1.04453e-05
-1.03278e-05
6.06693e-06
1.14599e-05
-1.13519e-05
6.13798e-06
1.29724e-05
-1.30435e-05
6.19437e-06
1.46987e-05
-1.47551e-05
6.12697e-06
1.7302e-05
-1.72346e-05
5.44056e-06
2.07861e-05
-2.00997e-05
5.60321e-06
2.34107e-05
-2.35734e-05
3.4332e-05
-3.40399e-05
5.31107e-06
3.85043e-06
-3.02287e-07
3.93423e-06
-3.32876e-07
3.96368e-06
2.28931e-08
4.16105e-06
-4.07372e-08
4.41747e-06
4.88847e-08
4.32299e-06
4.42132e-07
4.28638e-06
7.87271e-07
4.63668e-06
1.37136e-06
5.07048e-06
1.49064e-06
5.27613e-06
9.209e-07
5.64219e-06
1.64076e-06
6.85734e-06
2.90421e-06
8.19467e-06
2.33905e-06
8.76576e-06
2.37988e-06
9.32212e-06
3.78968e-06
1.03103e-05
3.10549e-06
1.17136e-05
5.24601e-07
1.29926e-05
-3.85133e-07
1.3274e-05
1.19874e-06
1.29976e-05
2.23305e-06
1.27708e-05
-1.22911e-07
1.23677e-05
-5.10462e-06
1.16333e-05
-8.87e-06
1.12107e-05
-9.04082e-06
1.16032e-05
-7.41174e-06
1.26666e-05
-7.66098e-06
1.39136e-05
-1.03974e-05
1.47342e-05
-1.3481e-05
1.48379e-05
-1.53454e-05
1.44523e-05
-1.57069e-05
1.38163e-05
-1.52345e-05
1.3139e-05
-1.46331e-05
1.25166e-05
-1.39574e-05
1.19008e-05
-1.33943e-05
1.13005e-05
-1.26896e-05
1.06909e-05
-1.16093e-05
1.01582e-05
-1.05236e-05
9.7591e-06
-9.64496e-06
9.4092e-06
-8.97353e-06
9.06871e-06
-8.22102e-06
8.73546e-06
-7.23645e-06
8.44516e-06
-6.35876e-06
8.25923e-06
-5.79151e-06
8.15428e-06
-5.35584e-06
8.02527e-06
-4.88165e-06
7.81254e-06
-4.38656e-06
7.56497e-06
-3.9175e-06
7.36083e-06
-3.45279e-06
7.2112e-06
-2.98665e-06
7.0736e-06
-2.57559e-06
6.92545e-06
-2.26653e-06
6.78882e-06
-2.04582e-06
6.69745e-06
-1.86955e-06
6.66269e-06
-1.70805e-06
6.66984e-06
-1.55491e-06
6.69406e-06
-1.41294e-06
6.7153e-06
-1.2831e-06
6.72416e-06
-1.16328e-06
6.72026e-06
-1.05073e-06
6.70774e-06
-9.43908e-07
6.69129e-06
-8.42859e-07
6.67425e-06
-7.48695e-07
6.65835e-06
-6.62699e-07
6.64424e-06
-5.85643e-07
6.63199e-06
-5.17544e-07
6.62147e-06
-4.57799e-07
6.61248e-06
-4.05466e-07
6.60485e-06
-3.5953e-07
6.5984e-06
-3.19062e-07
6.59297e-06
-2.83278e-07
6.58841e-06
-2.51543e-07
6.58459e-06
-2.23339e-07
6.58139e-06
-1.98244e-07
6.57871e-06
-1.75899e-07
6.57647e-06
-1.55997e-07
6.57458e-06
-1.38271e-07
6.573e-06
-1.22482e-07
6.57167e-06
-1.0842e-07
6.57056e-06
-9.58961e-08
6.56961e-06
-8.47438e-08
6.56882e-06
-7.4812e-08
6.56815e-06
-6.59665e-08
6.56758e-06
-5.80878e-08
6.5671e-06
-5.10691e-08
6.5667e-06
-4.48139e-08
6.56635e-06
-3.92358e-08
6.56606e-06
-3.42581e-08
6.56581e-06
-2.98127e-08
6.5656e-06
-2.58371e-08
6.56542e-06
-2.22754e-08
6.56527e-06
-1.90779e-08
6.56514e-06
-1.62004e-08
6.56503e-06
-1.36023e-08
6.56494e-06
-1.12467e-08
6.56486e-06
-9.10118e-09
6.5648e-06
-7.13653e-09
6.56474e-06
-5.32551e-09
6.5647e-06
-3.64263e-09
6.56467e-06
-2.06611e-09
6.56464e-06
-5.75704e-10
6.56462e-06
8.41192e-10
6.56461e-06
2.22007e-09
6.5646e-06
3.56779e-09
6.5646e-06
4.89896e-09
6.5646e-06
6.23203e-09