/*--------------------------------*- C++ -*----------------------------------*\
| =========                 |                                                 |
| \\      /  F ield         | OpenFOAM: The Open Source CFD Toolbox           |
|  \\    /   O peration     | Version:  2.4.0                                 |
|   \\  /    A nd           | Web:      www.OpenFOAM.org                      |
|    \\/     M anipulation  |                                                 |
\*---------------------------------------------------------------------------*/
FoamFile
{
    version     2.0;
    format      ascii;
    class       volVectorField;
    location    "0.031";
    object      U_0;
}
// * * * * * * * * * * * * * * * * * * * * * * * * * * * * * * * * * * * * * //

dimensions      [0 1 -1 0 0 0 0];

internalField   nonuniform List<vector> 
17600
(
(5.32911 0.309335 0)
(2.98541 0.0607405 0)
(2.1953 -0.00155398 0)
(1.84771 -0.00381626 0)
(1.70715 -0.000924026 0)
(1.60644 -0.000284709 0)
(1.54408 -0.00020297 0)
(1.47136 0.000320726 0)
(1.43262 1.86616e-05 0)
(1.3996 -0.00070131 0)
(1.37539 0.00026871 0)
(1.34734 0.000282459 0)
(1.32243 0.000184825 0)
(1.29951 0.00029337 0)
(1.27826 -6.14063e-05 0)
(1.24866 8.12965e-05 0)
(1.21647 0.00123378 0)
(1.19482 0.000180105 0)
(1.14546 0.0022813 0)
(1.01727 -0.0403453 0)
(8.60252 0.871671 0)
(6.94714 0.384013 0)
(5.81282 0.121899 0)
(5.05326 0.0500851 0)
(4.65461 0.0295572 0)
(4.36849 0.0198366 0)
(4.19397 0.0159859 0)
(3.99564 0.0142834 0)
(3.89277 0.00900727 0)
(3.79424 0.00579273 0)
(3.71505 0.00727587 0)
(3.6444 0.00660674 0)
(3.58161 0.00559707 0)
(3.52304 0.00588911 0)
(3.47201 0.00608171 0)
(3.3891 0.0066118 0)
(3.31551 0.00864022 0)
(3.28532 0.00536405 0)
(3.1472 0.0164012 0)
(3.14763 -0.0385421 0)
(9.86355 1.02152 0)
(9.3384 0.578335 0)
(8.48202 0.241701 0)
(7.63379 0.128796 0)
(7.09757 0.0839788 0)
(6.68158 0.0561405 0)
(6.42734 0.0445543 0)
(6.13734 0.0383013 0)
(5.98116 0.0250212 0)
(5.83275 0.0189532 0)
(5.70341 0.0197282 0)
(5.60011 0.016943 0)
(5.50842 0.014799 0)
(5.41779 0.0146238 0)
(5.35058 0.0162844 0)
(5.22783 0.0178138 0)
(5.11648 0.0176448 0)
(5.10472 0.0167583 0)
(4.87107 0.0187507 0)
(4.94886 -0.0211624 0)
(10.1716 0.946898 0)
(10.5557 0.669896 0)
(10.2743 0.330912 0)
(9.62941 0.208489 0)
(9.13127 0.150762 0)
(8.67024 0.104567 0)
(8.38684 0.0829085 0)
(8.04643 0.0709451 0)
(7.85091 0.0470236 0)
(7.67287 0.0378313 0)
(7.50417 0.0372297 0)
(7.37541 0.0308425 0)
(7.26548 0.027684 0)
(7.14314 0.0259516 0)
(7.07088 0.0292791 0)
(6.92302 0.0339588 0)
(6.77515 0.0271144 0)
(6.78376 0.0320836 0)
(6.51112 0.0306133 0)
(6.5236 -0.0324641 0)
(10.0924 0.804512 0)
(10.8983 0.672197 0)
(11.1568 0.357627 0)
(10.8748 0.25451 0)
(10.5999 0.206957 0)
(10.2172 0.153303 0)
(9.98037 0.124018 0)
(9.65644 0.108027 0)
(9.44857 0.0725526 0)
(9.27159 0.0600244 0)
(9.08706 0.0585076 0)
(8.94235 0.0468691 0)
(8.83221 0.0433472 0)
(8.68151 0.0392638 0)
(8.61392 0.0430813 0)
(8.45579 0.053363 0)
(8.29318 0.0381512 0)
(8.28338 0.045382 0)
(8.06254 0.0512847 0)
(7.94313 -0.0273644 0)
(10.0175 0.689797 0)
(10.8198 0.637825 0)
(11.3472 0.333952 0)
(11.3426 0.251401 0)
(11.3573 0.229302 0)
(11.1644 0.184351 0)
(11.0628 0.155378 0)
(10.8485 0.141531 0)
(10.68 0.0971083 0)
(10.5444 0.0816016 0)
(10.3848 0.081158 0)
(10.2415 0.0632542 0)
(10.1557 0.0602081 0)
(9.98903 0.0538198 0)
(9.93708 0.0564761 0)
(9.77636 0.0730676 0)
(9.64429 0.0510924 0)
(9.57135 0.0579158 0)
(9.45813 0.0661589 0)
(9.21988 0.0241026 0)
(10.0209 0.600372 0)
(10.66 0.6077 0)
(11.2752 0.303122 0)
(11.3569 0.219638 0)
(11.5308 0.215287 0)
(11.494 0.187237 0)
(11.5336 0.163304 0)
(11.4943 0.158234 0)
(11.4265 0.111918 0)
(11.3787 0.0954408 0)
(11.3016 0.0996825 0)
(11.1936 0.0765922 0)
(11.1608 0.0754083 0)
(11.0066 0.0679415 0)
(10.9858 0.0683473 0)
(10.8317 0.0903392 0)
(10.7639 0.0646559 0)
(10.6385 0.068988 0)
(10.6065 0.0763995 0)
(10.3508 0.0746127 0)
(10.0604 0.522678 0)
(10.5501 0.567762 0)
(11.1513 0.281074 0)
(11.2712 0.198054 0)
(11.4785 0.193664 0)
(11.5062 0.177435 0)
(11.5675 0.155799 0)
(11.6478 0.155288 0)
(11.6759 0.109277 0)
(11.718 0.0938921 0)
(11.7527 0.107043 0)
(11.7139 0.0802679 0)
(11.7575 0.0834957 0)
(11.6573 0.0768445 0)
(11.6833 0.0770963 0)
(11.5686 0.100401 0)
(11.5637 0.077539 0)
(11.455 0.0740895 0)
(11.4477 0.0888105 0)
(11.2504 0.0811674 0)
(10.0825 0.45013 0)
(10.4862 0.535142 0)
(11.0175 0.260641 0)
(11.1977 0.167394 0)
(11.3877 0.169756 0)
(11.4695 0.167261 0)
(11.5104 0.143983 0)
(11.5992 0.146471 0)
(11.6616 0.10217 0)
(11.7381 0.0822276 0)
(11.832 0.102453 0)
(11.8519 0.0755436 0)
(11.9439 0.0822576 0)
(11.9205 0.0774002 0)
(11.9802 0.0771678 0)
(11.9362 0.103614 0)
(11.9768 0.080679 0)
(11.9387 0.0754408 0)
(11.9514 0.0918737 0)
(11.8184 0.0776799 0)
(10.0468 0.386167 0)
(10.4745 0.48675 0)
(10.9188 0.250099 0)
(11.1264 0.150449 0)
(11.3212 0.143205 0)
(11.4154 0.15311 0)
(11.4571 0.139491 0)
(11.5477 0.13315 0)
(11.6093 0.0877799 0)
(11.6702 0.0711337 0)
(11.7698 0.0942276 0)
(11.8314 0.0638241 0)
(11.907 0.0760727 0)
(11.9448 0.0742572 0)
(12.0076 0.0733014 0)
(12.0145 0.0969607 0)
(12.0661 0.0781155 0)
(12.0907 0.0679253 0)
(12.1196 0.0879055 0)
(12.0216 0.0673058 0)
(10.0145 0.324554 0)
(10.4534 0.452459 0)
(10.8476 0.236789 0)
(11.0859 0.119713 0)
(11.2616 0.123295 0)
(11.3452 0.138833 0)
(11.4186 0.123315 0)
(11.5044 0.126998 0)
(11.5627 0.084303 0)
(11.6178 0.0584963 0)
(11.7011 0.0837375 0)
(11.774 0.060265 0)
(11.8368 0.0684835 0)
(11.9025 0.0651634 0)
(11.9562 0.0669508 0)
(11.9779 0.0920854 0)
(12.0337 0.0703571 0)
(12.0772 0.0560106 0)
(12.0941 0.0801287 0)
(12.0158 0.0527332 0)
(9.99854 0.273674 0)
(10.4067 0.399292 0)
(10.804 0.22792 0)
(11.0453 0.108617 0)
(11.2073 0.0996465 0)
(11.298 0.122564 0)
(11.3774 0.118158 0)
(11.4583 0.110731 0)
(11.5231 0.0718602 0)
(11.5773 0.0540542 0)
(11.6411 0.0755903 0)
(11.7195 0.0482256 0)
(11.7875 0.0620675 0)
(11.849 0.0618295 0)
(11.9 0.0587267 0)
(11.9303 0.0807433 0)
(11.9896 0.0644739 0)
(12.0289 0.0491222 0)
(12.0387 0.0699913 0)
(12.0065 0.0220611 0)
(9.9907 0.226164 0)
(10.3715 0.360936 0)
(10.759 0.208786 0)
(10.9969 0.084096 0)
(11.1774 0.086753 0)
(11.2526 0.10529 0)
(11.3308 0.0992931 0)
(11.4281 0.102104 0)
(11.4775 0.0692936 0)
(11.5327 0.0410835 0)
(11.6029 0.0681772 0)
(11.6773 0.0466815 0)
(11.738 0.0530128 0)
(11.8025 0.0510463 0)
(11.8605 0.0530701 0)
(11.8875 0.0738884 0)
(11.9423 0.0567375 0)
(11.9877 0.0369226 0)
(12.0081 0.054969 0)
(11.9804 0.00441849 0)
(9.98888 0.186734 0)
(10.339 0.30805 0)
(10.719 0.186925 0)
(10.9586 0.0797464 0)
(11.1415 0.0669552 0)
(11.2176 0.090164 0)
(11.2985 0.0928589 0)
(11.3864 0.0846542 0)
(11.4372 0.0578433 0)
(11.504 0.0385389 0)
(11.5629 0.0595959 0)
(11.6371 0.0354983 0)
(11.7063 0.0459013 0)
(11.7649 0.0486357 0)
(11.8192 0.0420666 0)
(11.8505 0.0637397 0)
(11.9082 0.0490464 0)
(11.9576 0.0302229 0)
(11.9727 0.0419053 0)
(11.8898 0.00675327 0)
(9.98945 0.147253 0)
(10.3094 0.270057 0)
(10.6836 0.15835 0)
(10.9243 0.0624557 0)
(11.1129 0.0580801 0)
(11.1928 0.0748158 0)
(11.2679 0.0742612 0)
(11.3526 0.0731652 0)
(11.4064 0.0552626 0)
(11.4728 0.0270818 0)
(11.531 0.0510324 0)
(11.6096 0.0346878 0)
(11.6761 0.0368112 0)
(11.7293 0.0381259 0)
(11.7898 0.0362265 0)
(11.8219 0.0558715 0)
(11.8764 0.0407947 0)
(11.9283 0.0176692 0)
(11.9283 0.0366638 0)
(11.8215 0.0155777 0)
(9.98969 0.115172 0)
(10.2856 0.22119 0)
(10.6545 0.12694 0)
(10.8958 0.0585903 0)
(11.0897 0.0436831 0)
(11.1718 0.0575569 0)
(11.2432 0.0675511 0)
(11.3253 0.0565602 0)
(11.3779 0.0441437 0)
(11.4491 0.023509 0)
(11.5069 0.0434062 0)
(11.5833 0.0241678 0)
(11.6526 0.0284842 0)
(11.7042 0.0358059 0)
(11.7637 0.026564 0)
(11.7965 0.0432411 0)
(11.8517 0.0328495 0)
(11.902 0.0139823 0)
(11.8964 0.0293808 0)
(11.847 -0.00459946 0)
(9.99091 0.0827277 0)
(10.2671 0.180101 0)
(10.6301 0.097658 0)
(10.8726 0.0441099 0)
(11.0715 0.033843 0)
(11.1553 0.0436429 0)
(11.2229 0.0509751 0)
(11.3048 0.0417022 0)
(11.3558 0.0403053 0)
(11.4298 0.0144494 0)
(11.4879 0.0323834 0)
(11.5643 0.0225145 0)
(11.6342 0.0209644 0)
(11.6824 0.0267318 0)
(11.7441 0.0178794 0)
(11.7784 0.0357953 0)
(11.83 0.0246909 0)
(11.882 0.00550015 0)
(11.889 0.0156837 0)
(11.8328 -0.0120922 0)
(9.99242 0.0552079 0)
(10.2519 0.133671 0)
(10.6128 0.064695 0)
(10.8561 0.0364921 0)
(11.0564 0.0237431 0)
(11.144 0.026345 0)
(11.2082 0.0418821 0)
(11.2887 0.0263612 0)
(11.3389 0.0302727 0)
(11.4166 0.00928099 0)
(11.4735 0.0251268 0)
(11.5489 0.0146378 0)
(11.6214 0.0119021 0)
(11.6673 0.0222988 0)
(11.7287 0.0103436 0)
(11.7639 0.0230703 0)
(11.8149 0.0163467 0)
(11.871 -0.00132255 0)
(11.8704 0.010293 0)
(11.7514 0.00940651 0)
(9.99406 0.0269232 0)
(10.2421 0.0911251 0)
(10.6008 0.0349289 0)
(10.8448 0.0233769 0)
(11.0463 0.0143543 0)
(11.1367 0.0124846 0)
(11.1975 0.028005 0)
(11.2787 0.00986613 0)
(11.3283 0.0245686 0)
(11.4069 0.00249838 0)
(11.4643 0.0139866 0)
(11.5397 0.0108267 0)
(11.6126 0.00492907 0)
(11.6563 0.0145194 0)
(11.7191 0.00124662 0)
(11.7554 0.0138949 0)
(11.8046 0.00844436 0)
(11.8602 -0.00740477 0)
(11.8484 0.00511157 0)
(11.7656 -0.00711203 0)
(9.9958 0.00135688 0)
(10.236 0.04654 0)
(10.5949 0.0022356 0)
(10.8403 0.0123713 0)
(11.0399 0.0058915 0)
(11.1339 -0.00349853 0)
(11.1923 0.0172973 0)
(11.2734 -0.0051652 0)
(11.3232 0.0155533 0)
(11.402 -0.00324631 0)
(11.4603 0.0053847 0)
(11.5345 0.00473506 0)
(11.6085 -0.00342977 0)
(11.6514 0.0084716 0)
(11.7142 -0.00593459 0)
(11.7509 0.00233993 0)
(11.7987 -0.000343326 0)
(11.8535 -0.0120455 0)
(11.8486 -0.00485071 0)
(11.7969 -0.0177279 0)
(9.99746 -0.0251245 0)
(10.2344 0.00325145 0)
(10.5948 -0.0285879 0)
(10.8413 -0.000470948 0)
(11.038 -0.00274186 0)
(11.1354 -0.0178136 0)
(11.1913 0.00468369 0)
(11.2733 -0.0215704 0)
(11.3238 0.00808629 0)
(11.4014 -0.00907322 0)
(11.4613 -0.0053493 0)
(11.5342 -5.7211e-05 0)
(11.6091 -0.0102229 0)
(11.6515 0.000631345 0)
(11.7138 -0.014125 0)
(11.7513 -0.00842161 0)
(11.7978 -0.00786213 0)
(11.8542 -0.0185659 0)
(11.856 -0.0140452 0)
(11.7754 -0.0127408 0)
(9.99917 -0.0510927 0)
(10.2368 -0.040422 0)
(10.6005 -0.0611137 0)
(10.849 -0.0120201 0)
(11.04 -0.0112626 0)
(11.1411 -0.0332044 0)
(11.1953 -0.0072923 0)
(11.2781 -0.0365501 0)
(11.3299 -0.000717882 0)
(11.4056 -0.0147552 0)
(11.4668 -0.0146321 0)
(11.5385 -0.00573296 0)
(11.6146 -0.0177167 0)
(11.6566 -0.00674729 0)
(11.718 -0.02073 0)
(11.7567 -0.0198115 0)
(11.8022 -0.016506 0)
(11.86 -0.0248158 0)
(11.8597 -0.0211556 0)
(11.7589 -0.0117718 0)
(10.0007 -0.0782818 0)
(10.2435 -0.0845974 0)
(10.6124 -0.0918965 0)
(10.8624 -0.0236796 0)
(11.0465 -0.0207079 0)
(11.1512 -0.0480827 0)
(11.2038 -0.0196651 0)
(11.2879 -0.0520302 0)
(11.3417 -0.00938657 0)
(11.4143 -0.0196841 0)
(11.4769 -0.024937 0)
(11.548 -0.0113944 0)
(11.6247 -0.0242177 0)
(11.6667 -0.0148427 0)
(11.7272 -0.0277388 0)
(11.7668 -0.0308379 0)
(11.8118 -0.024992 0)
(11.8691 -0.0302977 0)
(11.8653 -0.0274702 0)
(11.7719 -0.0123342 0)
(10.0023 -0.10675 0)
(10.2546 -0.128649 0)
(10.6306 -0.12362 0)
(10.8821 -0.0343913 0)
(11.0572 -0.0305992 0)
(11.1657 -0.0635084 0)
(11.2172 -0.0319901 0)
(11.3027 -0.0666003 0)
(11.3591 -0.0186777 0)
(11.4275 -0.0250178 0)
(11.492 -0.0347074 0)
(11.5623 -0.0168574 0)
(11.6394 -0.0308768 0)
(11.6824 -0.0235883 0)
(11.7413 -0.0341258 0)
(11.7817 -0.042021 0)
(11.8263 -0.0329656 0)
(11.8818 -0.0368578 0)
(11.8812 -0.0350587 0)
(11.8136 -0.0220107 0)
(10.0037 -0.137209 0)
(10.2702 -0.173477 0)
(10.6554 -0.154768 0)
(10.9078 -0.0442349 0)
(11.0723 -0.0416327 0)
(11.1848 -0.0788914 0)
(11.2355 -0.0446393 0)
(11.3226 -0.0807296 0)
(11.3822 -0.0282921 0)
(11.4458 -0.0302106 0)
(11.5119 -0.0449515 0)
(11.5819 -0.0226688 0)
(11.6589 -0.0370129 0)
(11.7035 -0.0319644 0)
(11.7605 -0.0402108 0)
(11.8018 -0.0536058 0)
(11.8456 -0.0409429 0)
(11.9007 -0.0435251 0)
(11.9086 -0.0445266 0)
(11.8423 -0.0299884 0)
(10.005 -0.170449 0)
(10.2905 -0.218063 0)
(10.6868 -0.185696 0)
(10.9394 -0.0539625 0)
(11.0921 -0.0531467 0)
(11.2087 -0.0944989 0)
(11.2591 -0.0577281 0)
(11.3477 -0.0941531 0)
(11.411 -0.0381511 0)
(11.469 -0.0347436 0)
(11.5367 -0.0553027 0)
(11.6069 -0.0290237 0)
(11.6834 -0.0435036 0)
(11.7304 -0.0410058 0)
(11.785 -0.045127 0)
(11.8269 -0.0650984 0)
(11.8705 -0.0489183 0)
(11.9261 -0.0507554 0)
(11.9369 -0.0546508 0)
(11.8422 -0.0259311 0)
(10.0062 -0.207142 0)
(10.3155 -0.262846 0)
(10.7247 -0.214938 0)
(10.977 -0.0636309 0)
(11.117 -0.066045 0)
(11.238 -0.109761 0)
(11.2882 -0.0705128 0)
(11.3781 -0.107058 0)
(11.4456 -0.0484952 0)
(11.4974 -0.0389186 0)
(11.5667 -0.065295 0)
(11.6378 -0.0351696 0)
(11.7132 -0.0500898 0)
(11.7637 -0.0504302 0)
(11.8153 -0.0507369 0)
(11.8577 -0.0754905 0)
(11.9012 -0.0562664 0)
(11.9554 -0.0602186 0)
(11.9623 -0.059945 0)
(11.8776 -0.0302192 0)
(10.0074 -0.247565 0)
(10.3459 -0.308936 0)
(10.7683 -0.238748 0)
(11.02 -0.0753157 0)
(11.1487 -0.0810467 0)
(11.2746 -0.125287 0)
(11.3239 -0.0833658 0)
(11.4137 -0.118963 0)
(11.4858 -0.0591959 0)
(11.5314 -0.0436306 0)
(11.6027 -0.074968 0)
(11.6754 -0.0413271 0)
(11.749 -0.0566385 0)
(11.8038 -0.0596574 0)
(11.8519 -0.0557708 0)
(11.8948 -0.0862998 0)
(11.937 -0.0634873 0)
(11.9889 -0.0684672 0)
(12.0032 -0.0699507 0)
(11.961 -0.0542786 0)
(10.0091 -0.292106 0)
(10.3818 -0.356885 0)
(10.8166 -0.255477 0)
(11.0651 -0.090953 0)
(11.189 -0.0988664 0)
(11.3201 -0.141418 0)
(11.3669 -0.0962052 0)
(11.4523 -0.130047 0)
(11.5297 -0.0705035 0)
(11.5701 -0.0485313 0)
(11.6457 -0.0850488 0)
(11.7199 -0.0476091 0)
(11.7918 -0.0640762 0)
(11.8507 -0.0679107 0)
(11.895 -0.0613263 0)
(11.9376 -0.0965666 0)
(11.9787 -0.0694632 0)
(12.0298 -0.0783848 0)
(12.0517 -0.0826499 0)
(11.9891 -0.0572333 0)
(10.0111 -0.342469 0)
(10.4214 -0.404614 0)
(10.8729 -0.267891 0)
(11.1072 -0.10987 0)
(11.2439 -0.119594 0)
(11.3753 -0.156787 0)
(11.4177 -0.108142 0)
(11.4899 -0.139806 0)
(11.5775 -0.0818805 0)
(11.6123 -0.0540038 0)
(11.7021 -0.0960999 0)
(11.7703 -0.0535043 0)
(11.8473 -0.0717991 0)
(11.9014 -0.0755814 0)
(11.9473 -0.0674457 0)
(11.9837 -0.10517 0)
(12.0276 -0.0766105 0)
(12.0703 -0.0879537 0)
(12.0966 -0.0905342 0)
(12.0458 -0.0751555 0)
(10.0097 -0.398779 0)
(10.4625 -0.451994 0)
(10.9477 -0.279034 0)
(11.1448 -0.131508 0)
(11.3236 -0.142891 0)
(11.4308 -0.171389 0)
(11.4757 -0.117655 0)
(11.5255 -0.14841 0)
(11.6354 -0.093483 0)
(11.6587 -0.0611714 0)
(11.7809 -0.1074 0)
(11.8186 -0.0608934 0)
(11.9214 -0.0792251 0)
(11.938 -0.0824529 0)
(12.0049 -0.0724894 0)
(12.0083 -0.113578 0)
(12.0654 -0.0819182 0)
(12.0734 -0.0986003 0)
(12.1091 -0.0981961 0)
(12.0382 -0.110593 0)
(9.99626 -0.459873 0)
(10.5137 -0.500898 0)
(11.0474 -0.290215 0)
(11.1918 -0.156238 0)
(11.4256 -0.168322 0)
(11.4665 -0.183857 0)
(11.54 -0.126324 0)
(11.5732 -0.156516 0)
(11.7036 -0.106426 0)
(11.7101 -0.070919 0)
(11.8532 -0.117208 0)
(11.8336 -0.0698471 0)
(11.9647 -0.0854384 0)
(11.8946 -0.0865164 0)
(11.9921 -0.0772084 0)
(11.9128 -0.117162 0)
(11.9775 -0.0849909 0)
(11.9036 -0.105407 0)
(11.9324 -0.0988967 0)
(11.7809 -0.126353 0)
(9.96729 -0.526977 0)
(10.5997 -0.549533 0)
(11.155 -0.302665 0)
(11.2704 -0.183523 0)
(11.5174 -0.192165 0)
(11.4851 -0.192858 0)
(11.6122 -0.138184 0)
(11.6182 -0.163996 0)
(11.7157 -0.117845 0)
(11.6897 -0.0809571 0)
(11.7794 -0.121183 0)
(11.6822 -0.075633 0)
(11.7892 -0.0867844 0)
(11.6105 -0.0839968 0)
(11.7115 -0.0780981 0)
(11.5191 -0.111432 0)
(11.571 -0.0827713 0)
(11.3982 -0.101092 0)
(11.4135 -0.0936085 0)
(11.1809 -0.137743 0)
(9.94337 -0.603427 0)
(10.7277 -0.591878 0)
(11.2547 -0.318716 0)
(11.364 -0.213797 0)
(11.5588 -0.212982 0)
(11.4639 -0.199994 0)
(11.5741 -0.149971 0)
(11.4659 -0.163829 0)
(11.4551 -0.119165 0)
(11.3539 -0.0828614 0)
(11.3295 -0.112613 0)
(11.1521 -0.0721788 0)
(11.2014 -0.0780693 0)
(10.9431 -0.0739781 0)
(11.0307 -0.070967 0)
(10.7503 -0.0970131 0)
(10.7926 -0.0730889 0)
(10.5484 -0.0890293 0)
(10.5644 -0.0819137 0)
(10.2754 -0.128528 0)
(9.96114 -0.69169 0)
(10.8718 -0.629876 0)
(11.3168 -0.34382 0)
(11.356 -0.24679 0)
(11.3761 -0.22524 0)
(11.1374 -0.194897 0)
(11.0957 -0.145082 0)
(10.827 -0.144977 0)
(10.6975 -0.104271 0)
(10.5247 -0.0711336 0)
(10.4106 -0.0918332 0)
(10.1952 -0.0597453 0)
(10.2017 -0.0623133 0)
(9.91574 -0.0592855 0)
(9.99106 -0.0584477 0)
(9.66759 -0.0780504 0)
(9.70664 -0.0596946 0)
(9.42558 -0.0728192 0)
(9.44661 -0.0675945 0)
(9.12956 -0.10761 0)
(10.0538 -0.805666 0)
(10.938 -0.665987 0)
(11.1297 -0.363186 0)
(10.8888 -0.253324 0)
(10.612 -0.20339 0)
(10.1954 -0.161668 0)
(10.0044 -0.116455 0)
(9.64405 -0.110086 0)
(9.45501 -0.0785762 0)
(9.2596 -0.0517032 0)
(9.10705 -0.0665232 0)
(8.8973 -0.0444728 0)
(8.87786 -0.0448318 0)
(8.60681 -0.0438926 0)
(8.66641 -0.0439277 0)
(8.33938 -0.0578466 0)
(8.37411 -0.0452284 0)
(8.08861 -0.0545505 0)
(8.11036 -0.0540853 0)
(7.79683 -0.0699756 0)
(10.1472 -0.947722 0)
(10.5838 -0.66647 0)
(10.254 -0.334197 0)
(9.64136 -0.208656 0)
(9.13918 -0.147096 0)
(8.65434 -0.110811 0)
(8.40223 -0.0776543 0)
(8.04151 -0.0719796 0)
(7.84941 -0.0516835 0)
(7.66762 -0.0318649 0)
(7.51703 -0.0426014 0)
(7.33706 -0.0295947 0)
(7.30385 -0.0284401 0)
(7.07581 -0.0295785 0)
(7.11404 -0.0291007 0)
(6.81842 -0.0385505 0)
(6.84584 -0.0307355 0)
(6.58234 -0.0371716 0)
(6.60276 -0.0389532 0)
(6.30734 -0.037715 0)
(9.84983 -1.02224 0)
(9.35603 -0.576211 0)
(8.46935 -0.243258 0)
(7.64141 -0.129579 0)
(7.1024 -0.0809124 0)
(6.67171 -0.0605469 0)
(6.43537 -0.0412544 0)
(6.13729 -0.0385486 0)
(5.97651 -0.0283532 0)
(5.8304 -0.0151489 0)
(5.71105 -0.0227054 0)
(5.57118 -0.0166984 0)
(5.5356 -0.0148449 0)
(5.36423 -0.0171605 0)
(5.38014 -0.0156238 0)
(5.14557 -0.0217566 0)
(5.16091 -0.0176681 0)
(4.94256 -0.0219745 0)
(4.95763 -0.0233577 0)
(4.68872 -0.0189682 0)
(8.59515 -0.871994 0)
(6.95603 -0.382933 0)
(5.808 -0.12253 0)
(5.05603 -0.0508886 0)
(4.65717 -0.0274629 0)
(4.36408 -0.0223948 0)
(4.19639 -0.0143391 0)
(3.99818 -0.0141456 0)
(3.88771 -0.0109695 0)
(3.79287 -0.00384511 0)
(3.71917 -0.00847156 0)
(3.62585 -0.00689364 0)
(3.5969 -0.00521153 0)
(3.4875 -0.00733357 0)
(3.48742 -0.00541719 0)
(3.33453 -0.00895555 0)
(3.33512 -0.00743357 0)
(3.18401 -0.00982016 0)
(3.18498 -0.0101362 0)
(2.9771 -0.0088474 0)
(5.32703 -0.309504 0)
(2.98727 -0.0605637 0)
(2.196 0.00149334 0)
(1.84709 0.00344675 0)
(1.7081 0.00166993 0)
(1.60595 -0.000524094 0)
(1.5429 0.000648542 0)
(1.47388 -0.000201108 0)
(1.43008 -0.000589847 0)
(1.39818 0.00118674 0)
(1.37736 -0.000415785 0)
(1.34027 -0.000518681 0)
(1.32647 0.000172325 0)
(1.2863 -0.000712601 0)
(1.28187 0.000466275 0)
(1.22771 -0.000711389 0)
(1.22022 -0.000432843 0)
(1.15904 -0.00104994 0)
(1.14757 -0.000787267 0)
(1.05947 0.00563602 0)
(1.50309 -0.101557 0)
(1.98194 -0.0783608 0)
(1.33444 -0.0234245 0)
(1.79995 0.120672 0)
(2.40334 0.142926 0)
(1.94898 0.0685201 0)
(2.16511 0.267814 0)
(2.5137 0.650029 0)
(3.1294 0.691447 0)
(4.02162 0.439243 0)
(4.64608 0.837197 0)
(4.75041 1.64912 0)
(6.01002 1.4271 0)
(7.16785 1.11734 0)
(7.25918 1.59462 0)
(8.01244 1.4386 0)
(8.67613 0.810435 0)
(9.72569 0.622443 0)
(10.6121 0.745052 0)
(10.4726 0.616023 0)
(10.1924 -0.478805 0)
(10.1507 -2.27547 0)
(10.0877 -3.35541 0)
(9.85447 -2.91005 0)
(9.63692 -1.99763 0)
(9.83664 -2.07404 0)
(10.3832 -3.08056 0)
(10.9626 -4.26192 0)
(11.2992 -5.08911 0)
(11.3656 -5.35298 0)
(11.1065 -5.34315 0)
(10.5525 -5.19617 0)
(9.92853 -4.94326 0)
(9.4948 -4.73472 0)
(9.1321 -4.47438 0)
(8.6666 -4.12489 0)
(8.23998 -3.73368 0)
(7.862 -3.39604 0)
(7.52184 -3.15666 0)
(7.22527 -2.88857 0)
(6.92032 -2.55935 0)
(6.64384 -2.25454 0)
(6.47137 -2.01101 0)
(6.39455 -1.82469 0)
(6.32262 -1.68649 0)
(6.19093 -1.56525 0)
(6.03714 -1.41667 0)
(5.917 -1.23334 0)
(5.81329 -1.05715 0)
(5.68519 -0.925098 0)
(5.54077 -0.83096 0)
(5.425 -0.747295 0)
(5.36759 -0.660828 0)
(5.36159 -0.577914 0)
(5.37989 -0.509006 0)
(5.39789 -0.45718 0)
(5.40366 -0.41811 0)
(5.39656 -0.385167 0)
(5.38145 -0.353468 0)
(5.36366 -0.321124 0)
(5.34662 -0.288505 0)
(5.3317 -0.256904 0)
(5.31907 -0.22752 0)
(5.30839 -0.201025 0)
(5.29929 -0.177574 0)
(5.29152 -0.156989 0)
(5.2849 -0.138946 0)
(5.27928 -0.123094 0)
(5.27454 -0.109122 0)
(5.27057 -0.09677 0)
(5.26726 -0.0858246 0)
(5.26451 -0.0761102 0)
(5.26222 -0.0674806 0)
(5.26032 -0.059811 0)
(5.25876 -0.0529928 0)
(5.25746 -0.0469301 0)
(5.25638 -0.0415389 0)
(5.25548 -0.0367447 0)
(5.25475 -0.0324814 0)
(5.25413 -0.0286895 0)
(5.25362 -0.0253164 0)
(5.25319 -0.0223158 0)
(5.25284 -0.019646 0)
(5.25255 -0.0172695 0)
(5.25231 -0.0151531 0)
(5.2521 -0.0132674 0)
(5.25194 -0.011586 0)
(5.2518 -0.0100852 0)
(5.25168 -0.00874358 0)
(5.25158 -0.00754253 0)
(5.2515 -0.00646503 0)
(5.25143 -0.00549569 0)
(5.25137 -0.00462072 0)
(5.25132 -0.0038281 0)
(5.25129 -0.00310672 0)
(5.25126 -0.00244633 0)
(5.25123 -0.00183769 0)
(5.25121 -0.00127285 0)
(5.25119 -0.000744009 0)
(5.25118 -0.000244168 0)
(5.25117 0.00023284 0)
(5.25116 0.000693815 0)
(5.25116 0.00114378 0)
(5.25116 0.00158828 0)
(5.25115 0.00203238 0)
(5.25115 0.00248119 0)
(5.25116 0.00293984 0)
(5.25117 0.00341339 0)
(5.25117 0.00390665 0)
(5.25118 0.0044246 0)
(5.2512 0.00497238 0)
(5.25122 0.00555568 0)
(5.25123 0.00617996 0)
(5.25125 0.00685159 0)
(5.25128 0.00757631 0)
(5.25131 0.00836281 0)
(5.25135 0.00921606 0)
(5.25138 0.01015 0)
(5.25143 0.0111636 0)
(5.25148 0.0122876 0)
(5.25155 0.0134976 0)
(5.25159 0.0148749 0)
(5.25171 0.0163126 0)
(5.25171 0.0180509 0)
(5.25193 0.0197209 0)
(5.2518 0.0220302 0)
(5.25223 0.0238438 0)
(5.25178 0.0271642 0)
(5.25261 0.0287951 0)
(5.25147 0.0340426 0)
(5.25297 0.0346645 0)
(5.25056 0.0435891 0)
(5.25276 0.0415518 0)
(5.2485 0.0569501 0)
(5.25051 0.049704 0)
(5.24435 0.0746433 0)
(5.24324 0.0596029 0)
(5.23663 0.0944735 0)
(5.22747 0.0713724 0)
(5.22398 0.109614 0)
(5.20291 0.0832061 0)
(5.20729 0.111077 0)
(5.1755 0.0915085 0)
(5.19243 0.0938383 0)
(5.15574 0.0983805 0)
(5.18409 0.0577227 0)
(5.16229 0.117492 0)
(5.16149 0.0140408 0)
(5.23137 0.145124 0)
(5.07731 0.00958534 0)
(5.37318 0.12636 0)
(4.94234 0.0939466 0)
(5.49897 0.0497197 0)
(4.87368 0.201633 0)
(5.48619 0.0154381 0)
(4.96077 0.219549 0)
(5.34829 0.0855463 0)
(5.10465 0.160001 0)
(5.23932 0.192703 0)
(5.16648 0.123684 0)
(5.20331 0.249709 0)
(5.20606 0.159558 0)
(5.13689 0.249307 0)
(5.28696 0.2402 0)
(5.06992 0.250629 0)
(5.31795 0.294315 0)
(5.09756 0.317981 0)
(5.24589 0.310616 0)
(5.20631 0.401222 0)
(5.15599 0.364024 0)
(5.2837 0.46961 0)
(5.0924 0.436926 0)
(5.37315 0.558173 0)
(5.02702 0.520692 0)
(5.42602 0.652009 0)
(4.98829 0.645047 0)
(5.50239 0.761976 0)
(4.95571 0.770694 0)
(5.52362 0.891074 0)
(4.97262 0.97097 0)
(5.49983 1.03545 0)
(5.04386 1.19205 0)
(5.41518 1.19303 0)
(5.22811 1.45933 0)
(5.1853 1.46217 0)
(5.38814 1.77049 0)
(5.01605 1.79287 0)
(5.47226 2.05276 0)
(5.08284 2.28 0)
(5.21488 2.44817 0)
(5.32085 2.83854 0)
(5.01024 3.09704 0)
(5.14576 3.44195 0)
(4.88672 3.94236 0)
(4.8601 4.34145 0)
(5.20224 4.75612 0)
(4.921 5.65578 0)
(4.74171 6.74242 0)
(5.24307 7.76175 0)
(2.9401 11.0185 0)
(2.9704 -0.136364 0)
(3.32607 -0.112112 0)
(3.13178 0.0446301 0)
(3.03588 -0.00899544 0)
(3.66525 0.0664181 0)
(3.57042 0.175838 0)
(3.31353 0.237557 0)
(3.52921 0.463999 0)
(3.96508 0.492104 0)
(4.19262 0.28521 0)
(4.23464 0.660374 0)
(4.81237 1.13889 0)
(6.24057 0.880077 0)
(6.78897 0.943001 0)
(7.01467 1.44255 0)
(7.76689 1.12446 0)
(8.83533 0.336407 0)
(10.1209 0.15773 0)
(10.5327 0.646698 0)
(10.3128 0.738458 0)
(10.2682 -0.42858 0)
(10.1085 -2.21039 0)
(9.59095 -3.17492 0)
(9.11793 -2.78445 0)
(9.16068 -2.11988 0)
(9.90941 -2.39169 0)
(10.97 -3.43339 0)
(11.7754 -4.4938 0)
(11.9608 -5.16107 0)
(11.712 -5.31371 0)
(11.2769 -5.17236 0)
(10.7209 -4.97858 0)
(10.1595 -4.74871 0)
(9.67202 -4.56329 0)
(9.22492 -4.30809 0)
(8.71441 -3.93637 0)
(8.25667 -3.56495 0)
(7.91035 -3.2594 0)
(7.61225 -3.03276 0)
(7.33803 -2.76551 0)
(7.05857 -2.43041 0)
(6.80018 -2.15197 0)
(6.62725 -1.96197 0)
(6.54146 -1.79947 0)
(6.46421 -1.64027 0)
(6.3154 -1.49275 0)
(6.11083 -1.34471 0)
(5.93108 -1.17823 0)
(5.80666 -1.00896 0)
(5.70059 -0.87068 0)
(5.58095 -0.774347 0)
(5.46018 -0.70362 0)
(5.37123 -0.639556 0)
(5.33112 -0.576243 0)
(5.33147 -0.517112 0)
(5.3512 -0.465783 0)
(5.37127 -0.422257 0)
(5.38156 -0.384112 0)
(5.3805 -0.348775 0)
(5.37127 -0.314802 0)
(5.35804 -0.28201 0)
(5.34393 -0.25096 0)
(5.33063 -0.22234 0)
(5.31877 -0.196584 0)
(5.30845 -0.17378 0)
(5.29957 -0.153751 0)
(5.29198 -0.13619 0)
(5.28553 -0.120759 0)
(5.28006 -0.107155 0)
(5.27545 -0.095119 0)
(5.27159 -0.0844434 0)
(5.26834 -0.0749572 0)
(5.26562 -0.0665191 0)
(5.26334 -0.0590094 0)
(5.26144 -0.0523242 0)
(5.25984 -0.0463723 0)
(5.2585 -0.0410732 0)
(5.25736 -0.0363557 0)
(5.25642 -0.032156 0)
(5.25562 -0.0284171 0)
(5.25494 -0.0250884 0)
(5.25437 -0.0221246 0)
(5.25389 -0.0194854 0)
(5.25349 -0.0171345 0)
(5.25314 -0.0150396 0)
(5.25284 -0.0131719 0)
(5.2526 -0.0115054 0)
(5.25239 -0.0100172 0)
(5.2522 -0.00868632 0)
(5.25205 -0.00749426 0)
(5.25193 -0.00642423 0)
(5.25182 -0.00546125 0)
(5.25172 -0.00459186 0)
(5.25164 -0.00380389 0)
(5.25158 -0.00308639 0)
(5.25152 -0.00242932 0)
(5.25147 -0.00182383 0)
(5.25143 -0.00126146 0)
(5.25141 -0.000734898 0)
(5.25139 -0.000237009 0)
(5.25136 0.000238859 0)
(5.25135 0.00069788 0)
(5.25134 0.00114621 0)
(5.25134 0.00158895 0)
(5.25134 0.00203155 0)
(5.25134 0.00247921 0)
(5.25135 0.00293669 0)
(5.25137 0.00340888 0)
(5.25138 0.00390061 0)
(5.2514 0.00441712 0)
(5.25143 0.00496341 0)
(5.25147 0.00554502 0)
(5.2515 0.00616734 0)
(5.25154 0.006837 0)
(5.2516 0.00755953 0)
(5.25165 0.00834368 0)
(5.25172 0.00919384 0)
(5.25179 0.0101251 0)
(5.25188 0.0111346 0)
(5.25196 0.0122564 0)
(5.25209 0.0134591 0)
(5.25217 0.0148375 0)
(5.25237 0.0162599 0)
(5.25242 0.0180134 0)
(5.25276 0.0196422 0)
(5.25265 0.0220141 0)
(5.25331 0.0237084 0)
(5.25279 0.0272364 0)
(5.25408 0.028523 0)
(5.25264 0.0343836 0)
(5.25506 0.0340686 0)
(5.25188 0.044637 0)
(5.25582 0.0402568 0)
(5.24989 0.0596367 0)
(5.25486 0.047106 0)
(5.24569 0.0806139 0)
(5.24877 0.0549565 0)
(5.23769 0.105871 0)
(5.23281 0.0638145 0)
(5.22487 0.128159 0)
(5.20439 0.0708537 0)
(5.21101 0.137897 0)
(5.1648 0.0691792 0)
(5.21214 0.1314 0)
(5.11266 0.0583312 0)
(5.25393 0.107512 0)
(5.04308 0.0612564 0)
(5.34346 0.0641232 0)
(4.96012 0.100537 0)
(5.44804 0.0287421 0)
(4.8797 0.139354 0)
(5.52353 0.0417244 0)
(4.84745 0.145875 0)
(5.49618 0.0825857 0)
(4.95213 0.140896 0)
(5.31862 0.126603 0)
(5.16083 0.130816 0)
(5.12819 0.184104 0)
(5.29331 0.119288 0)
(5.05957 0.232315 0)
(5.32045 0.153534 0)
(5.03386 0.224908 0)
(5.37202 0.239239 0)
(4.9625 0.210919 0)
(5.45077 0.300896 0)
(4.93351 0.262421 0)
(5.42758 0.318022 0)
(5.01422 0.344203 0)
(5.36336 0.354913 0)
(5.06755 0.412302 0)
(5.32645 0.424726 0)
(5.15552 0.487395 0)
(5.24574 0.495403 0)
(5.24237 0.593563 0)
(5.18297 0.583183 0)
(5.35661 0.712799 0)
(5.09691 0.680012 0)
(5.46265 0.84451 0)
(5.02221 0.858204 0)
(5.55267 0.986893 0)
(5.01166 1.00706 0)
(5.62369 1.16485 0)
(5.03707 1.30359 0)
(5.51136 1.33916 0)
(5.22284 1.59694 0)
(5.33826 1.57796 0)
(5.45143 1.97447 0)
(5.11226 1.97158 0)
(5.62634 2.26681 0)
(5.17525 2.57949 0)
(5.29459 2.68658 0)
(5.5464 3.08056 0)
(5.34656 3.45324 0)
(5.67148 3.70502 0)
(5.27945 4.47045 0)
(5.07784 5.15631 0)
(5.03539 5.64928 0)
(4.98095 6.88625 0)
(6.29208 7.7636 0)
(4.12766 11.8776 0)
(4.8222 -0.0658353 0)
(4.85017 -0.143561 0)
(4.82879 -0.0383639 0)
(4.70428 -0.0164359 0)
(5.02842 -0.0205913 0)
(5.15096 0.147044 0)
(4.89055 0.294437 0)
(4.95357 0.399344 0)
(5.29554 0.423156 0)
(5.26539 0.330595 0)
(5.0617 0.506076 0)
(5.61134 0.716141 0)
(6.30758 0.590037 0)
(6.45573 0.784415 0)
(6.91238 1.11709 0)
(7.74763 0.636646 0)
(8.85776 -0.187849 0)
(9.73881 -0.130567 0)
(10.0157 0.616193 0)
(10.2072 0.762084 0)
(10.5331 -0.361185 0)
(10.4735 -1.95295 0)
(9.83001 -2.83153 0)
(9.30955 -2.70573 0)
(9.65441 -2.41528 0)
(10.8027 -2.81964 0)
(11.9446 -3.79218 0)
(12.5028 -4.66791 0)
(12.3237 -5.11006 0)
(11.7734 -5.14599 0)
(11.28 -4.95929 0)
(10.7862 -4.74747 0)
(10.2845 -4.5333 0)
(9.77062 -4.34678 0)
(9.26662 -4.10262 0)
(8.78053 -3.74057 0)
(8.35421 -3.40229 0)
(8.0449 -3.14212 0)
(7.77393 -2.92544 0)
(7.49608 -2.6615 0)
(7.22427 -2.32569 0)
(6.97715 -2.05003 0)
(6.79204 -1.89271 0)
(6.67763 -1.76306 0)
(6.57634 -1.59429 0)
(6.41091 -1.41177 0)
(6.17713 -1.25013 0)
(5.95282 -1.10364 0)
(5.80287 -0.960371 0)
(5.71607 -0.830456 0)
(5.64127 -0.729413 0)
(5.55017 -0.658071 0)
(5.45462 -0.605312 0)
(5.38135 -0.559969 0)
(5.34471 -0.516373 0)
(5.34002 -0.473071 0)
(5.35218 -0.4303 0)
(5.3664 -0.388723 0)
(5.374 -0.349005 0)
(5.3729 -0.311651 0)
(5.36501 -0.27703 0)
(5.35342 -0.245415 0)
(5.34068 -0.216978 0)
(5.32835 -0.191737 0)
(5.31716 -0.169537 0)
(5.30732 -0.150095 0)
(5.29884 -0.133066 0)
(5.29159 -0.118105 0)
(5.28543 -0.104909 0)
(5.28021 -0.0932239 0)
(5.27581 -0.0828476 0)
(5.27209 -0.073615 0)
(5.26895 -0.0653905 0)
(5.2663 -0.0580599 0)
(5.26407 -0.0515245 0)
(5.26218 -0.0456981 0)
(5.26058 -0.0405043 0)
(5.25922 -0.0358748 0)
(5.25807 -0.0317488 0)
(5.25709 -0.028072 0)
(5.25625 -0.0247957 0)
(5.25553 -0.0218758 0)
(5.25493 -0.0192736 0)
(5.25441 -0.0169541 0)
(5.25396 -0.014886 0)
(5.25357 -0.0130409 0)
(5.25325 -0.0113934 0)
(5.25297 -0.00992157 0)
(5.25273 -0.00860483 0)
(5.25252 -0.00742465 0)
(5.25235 -0.00636476 0)
(5.2522 -0.00541062 0)
(5.25206 -0.004549 0)
(5.25195 -0.0037676 0)
(5.25186 -0.00305566 0)
(5.25179 -0.00240371 0)
(5.25172 -0.00180279 0)
(5.25166 -0.00124428 0)
(5.25162 -0.000721094 0)
(5.25159 -0.00022649 0)
(5.25156 0.000246423 0)
(5.25154 0.000702616 0)
(5.25153 0.00114844 0)
(5.25153 0.00158882 0)
(5.25152 0.00202932 0)
(5.25153 0.00247513 0)
(5.25155 0.00293072 0)
(5.25157 0.00340066 0)
(5.25159 0.00389008 0)
(5.25163 0.00440439 0)
(5.25167 0.00494843 0)
(5.25172 0.00552736 0)
(5.25177 0.00614676 0)
(5.25183 0.0068134 0)
(5.25191 0.00753261 0)
(5.25199 0.00831295 0)
(5.25209 0.00915858 0)
(5.25219 0.0100855 0)
(5.25232 0.0110891 0)
(5.25245 0.0122064 0)
(5.25263 0.0133993 0)
(5.25275 0.0147765 0)
(5.25304 0.0161795 0)
(5.25312 0.0179461 0)
(5.2536 0.0195247 0)
(5.25349 0.0219625 0)