/*--------------------------------*- C++ -*----------------------------------*\
| =========                 |                                                 |
| \\      /  F ield         | OpenFOAM: The Open Source CFD Toolbox           |
|  \\    /   O peration     | Version:  2.4.0                                 |
|   \\  /    A nd           | Web:      www.OpenFOAM.org                      |
|    \\/     M anipulation  |                                                 |
\*---------------------------------------------------------------------------*/
FoamFile
{
    version     2.0;
    format      ascii;
    class       volSymmTensorField;
    location    "0.055";
    object      UPrime2Mean;
}
// * * * * * * * * * * * * * * * * * * * * * * * * * * * * * * * * * * * * * //

dimensions      [0 2 -2 0 0 0 0];

internalField   nonuniform List<symmTensor> 
17600
(
(0.0701287 -0.0075974 0 0.00115173 0 0)
(0.721936 -0.00299923 0 6.74635e-05 0 0)
(0.935215 -7.56245e-05 0 4.61074e-06 0 0)
(1.03545 -0.000770594 0 2.92124e-06 0 0)
(1.10559 -0.000578388 0 1.40244e-06 0 0)
(1.15496 -0.000227896 0 8.03507e-07 0 0)
(1.18797 -5.69311e-05 0 5.28328e-07 0 0)
(1.21304 1.32089e-05 0 3.14697e-07 0 0)
(1.22858 2.58964e-05 0 3.09779e-07 0 0)
(1.24348 -3.5022e-06 0 2.57911e-07 0 0)
(1.25232 -2.42262e-05 0 1.69853e-07 0 0)
(1.26704 -8.92683e-05 0 2.89419e-07 0 0)
(1.27635 -0.000105979 0 2.61932e-07 0 0)
(1.29651 -0.000221255 0 5.29475e-07 0 0)
(1.31144 -0.000282892 0 6.06982e-07 0 0)
(1.35157 -0.000734713 0 3.67666e-06 0 0)
(1.39131 -0.00121722 0 3.68892e-06 0 0)
(1.55723 0.000843421 0 3.77181e-05 0 0)
(1.81602 -0.0522392 0 0.00220198 0 0)
(3.30956 0.263012 0 0.0328877 0 0)
(0.0343423 0.0152781 0 0.0119467 0 0)
(0.291156 -0.0278517 0 0.00281829 0 0)
(0.584519 -0.0155532 0 0.000421046 0 0)
(0.779504 -0.0108899 0 0.000167232 0 0)
(0.947738 -0.0087799 0 0.000129183 0 0)
(1.10412 -0.00700051 0 0.00011476 0 0)
(1.2291 -0.00530328 0 8.8127e-05 0 0)
(1.33433 -0.00380723 0 5.29022e-05 0 0)
(1.40367 -0.00282198 0 2.77916e-05 0 0)
(1.47214 -0.00232422 0 1.57546e-05 0 0)
(1.50935 -0.00219632 0 8.15009e-06 0 0)
(1.57362 -0.0023593 0 7.58957e-06 0 0)
(1.60331 -0.00272406 0 1.28053e-05 0 0)
(1.68428 -0.0028111 0 1.15055e-05 0 0)
(1.71425 -0.00458898 0 2.46959e-05 0 0)
(1.8602 -0.00416604 0 2.25418e-05 0 0)
(1.86675 -0.0129904 0 0.000133185 0 0)
(2.48541 -0.0185128 0 0.000188424 0 0)
(2.17958 -0.059523 0 0.00232966 0 0)
(6.82199 -0.807116 0 0.134376 0 0)
(0.119818 0.0453897 0 0.0187673 0 0)
(0.04769 -0.0175728 0 0.007991 0 0)
(0.201932 -0.0194656 0 0.00204448 0 0)
(0.344849 -0.0183586 0 0.00099751 0 0)
(0.504051 -0.0179381 0 0.00075041 0 0)
(0.687886 -0.0166106 0 0.000657156 0 0)
(0.855918 -0.0140351 0 0.000528056 0 0)
(1.01288 -0.0109406 0 0.000338304 0 0)
(1.1216 -0.00851663 0 0.000194587 0 0)
(1.23547 -0.00703902 0 0.000107664 0 0)
(1.29422 -0.00644841 0 5.5047e-05 0 0)
(1.40385 -0.00682848 0 5.70412e-05 0 0)
(1.4436 -0.00732119 0 6.43956e-05 0 0)
(1.58035 -0.00824115 0 8.59405e-05 0 0)
(1.61084 -0.0110801 0 0.000111686 0 0)
(1.83308 -0.012268 0 0.000131132 0 0)
(1.83814 -0.029679 0 0.000522841 0 0)
(2.4987 -0.0361523 0 0.000971842 0 0)
(2.47932 -0.149814 0 0.0131859 0 0)
(5.66003 -1.00601 0 0.294253 0 0)
(0.158229 0.0502053 0 0.0169007 0 0)
(0.00388609 0.00337195 0 0.0124078 0 0)
(0.0268265 -0.00719997 0 0.00445854 0 0)
(0.0613258 -0.0113424 0 0.00263457 0 0)
(0.120752 -0.0155966 0 0.00211657 0 0)
(0.226953 -0.0185448 0 0.00187572 0 0)
(0.350203 -0.0183663 0 0.00157475 0 0)
(0.489819 -0.0160061 0 0.0010567 0 0)
(0.593083 -0.0131711 0 0.0006558 0 0)
(0.713859 -0.0112284 0 0.000360218 0 0)
(0.772168 -0.010631 0 0.000209213 0 0)
(0.897345 -0.0102128 0 0.000166369 0 0)
(0.93197 -0.0127191 0 0.000233598 0 0)
(1.08891 -0.00998565 0 0.000227234 0 0)
(1.11258 -0.0206357 0 0.000506597 0 0)
(1.3322 -0.00842111 0 0.000348979 0 0)
(1.39104 -0.0532054 0 0.0025501 0 0)
(1.73564 -0.0205848 0 0.00122193 0 0)
(2.31789 -0.262613 0 0.0466675 0 0)
(2.96319 -0.424618 0 0.179913 0 0)
(0.14764 0.04058 0 0.0118491 0 0)
(0.0140206 0.0127573 0 0.0129267 0 0)
(0.0188146 0.00667477 0 0.00552019 0 0)
(0.0203014 0.00445996 0 0.00401891 0 0)
(0.0120257 0.000121749 0 0.0037851 0 0)
(0.0189829 -0.00644006 0 0.0035697 0 0)
(0.0500635 -0.0105998 0 0.00315092 0 0)
(0.111452 -0.0125219 0 0.00224797 0 0)
(0.165236 -0.0114937 0 0.00145732 0 0)
(0.244044 -0.0111676 0 0.000853629 0 0)
(0.279606 -0.0102051 0 0.000462088 0 0)
(0.372471 -0.0117515 0 0.000477414 0 0)
(0.400635 -0.0115832 0 0.000387728 0 0)
(0.508063 -0.0150921 0 0.000653267 0 0)
(0.557711 -0.0134676 0 0.000570161 0 0)
(0.669719 -0.0261242 0 0.00126294 0 0)
(0.783003 -0.0174026 0 0.00140454 0 0)
(0.960795 -0.0861881 0 0.0132234 0 0)
(1.26473 -0.0909896 0 0.0200138 0 0)
(1.83815 -0.591661 0 0.513785 0 0)
(0.137601 0.0330701 0 0.00847389 0 0)
(0.012431 0.0112987 0 0.0115218 0 0)
(0.0278632 0.00965521 0 0.00472059 0 0)
(0.0522447 0.0123024 0 0.00383171 0 0)
(0.0615053 0.01427 0 0.00443738 0 0)
(0.0454898 0.0107266 0 0.00478396 0 0)
(0.0316275 0.00627542 0 0.00461217 0 0)
(0.0211772 0.000189775 0 0.00348305 0 0)
(0.02312 -0.00178517 0 0.00254953 0 0)
(0.0381417 -0.00419962 0 0.0014767 0 0)
(0.0419806 -0.00455441 0 0.000954786 0 0)
(0.0775278 -0.00584965 0 0.000775026 0 0)
(0.0819113 -0.00821818 0 0.000996575 0 0)
(0.134178 -0.00731021 0 0.000927983 0 0)
(0.152791 -0.0142019 0 0.0020416 0 0)
(0.216234 -0.00856569 0 0.00140843 0 0)
(0.254424 -0.0309644 0 0.00744584 0 0)
(0.37405 -0.0195615 0 0.00420012 0 0)
(0.472826 -0.130424 0 0.0761622 0 0)
(0.821553 -0.268456 0 0.250086 0 0)
(0.136537 0.0284673 0 0.00632336 0 0)
(0.00849616 0.00843129 0 0.0102329 0 0)
(0.0237076 0.00784219 0 0.00377399 0 0)
(0.0545172 0.0110453 0 0.00279607 0 0)
(0.087243 0.0166354 0 0.00376248 0 0)
(0.0935617 0.0178532 0 0.00463293 0 0)
(0.102397 0.0178244 0 0.00501575 0 0)
(0.0843731 0.0122762 0 0.00415788 0 0)
(0.0849682 0.00986408 0 0.00306294 0 0)
(0.0647388 0.00557764 0 0.00211774 0 0)
(0.0651525 0.00546339 0 0.00120034 0 0)
(0.0477193 0.00265467 0 0.00140729 0 0)
(0.048459 0.00257063 0 0.000946196 0 0)
(0.0360569 5.19017e-05 0 0.00177448 0 0)
(0.0433395 -2.73096e-05 0 0.00149526 0 0)
(0.0381974 -0.0024646 0 0.00348171 0 0)
(0.0453713 -0.00254483 0 0.00326251 0 0)
(0.0649432 -0.0119565 0 0.021642 0 0)
(0.0939065 -0.0307152 0 0.0342041 0 0)
(0.21815 -0.115827 0 0.346203 0 0)
(0.139031 0.0247123 0 0.00469413 0 0)
(0.00610168 0.00626841 0 0.00899885 0 0)
(0.0189903 0.00619382 0 0.0033046 0 0)
(0.0465848 0.00855541 0 0.00204995 0 0)
(0.0805265 0.0139222 0 0.00285647 0 0)
(0.0928515 0.0164994 0 0.00385069 0 0)
(0.118363 0.0188403 0 0.00443967 0 0)
(0.116404 0.015454 0 0.00366557 0 0)
(0.139061 0.0141629 0 0.00323572 0 0)
(0.133123 0.0106684 0 0.00211405 0 0)
(0.149673 0.0120241 0 0.00148356 0 0)
(0.139229 0.00932076 0 0.00134924 0 0)
(0.144422 0.0118038 0 0.00170345 0 0)
(0.125473 0.0083575 0 0.0016632 0 0)
(0.123515 0.0121233 0 0.00302201 0 0)
(0.0964205 0.00788144 0 0.00270686 0 0)
(0.0821773 0.0164651 0 0.00692724 0 0)
(0.0494539 0.0170638 0 0.0117906 0 0)
(0.0323483 0.0208089 0 0.0591455 0 0)
(0.0461935 0.0374954 0 0.366985 0 0)
(0.140867 0.021336 0 0.0034547 0 0)
(0.00486703 0.00475066 0 0.00749998 0 0)
(0.0153931 0.00490635 0 0.00302966 0 0)
(0.0400046 0.00672609 0 0.00148881 0 0)
(0.0697257 0.011271 0 0.00212647 0 0)
(0.0819045 0.0138309 0 0.00299771 0 0)
(0.104631 0.0162831 0 0.00375978 0 0)
(0.109116 0.0136622 0 0.00338149 0 0)
(0.135202 0.0130805 0 0.00242592 0 0)
(0.141573 0.0110114 0 0.00190835 0 0)
(0.170317 0.0115506 0 0.00111257 0 0)
(0.173709 0.0123102 0 0.00153217 0 0)
(0.198985 0.0125567 0 0.00116012 0 0)
(0.191855 0.0157583 0 0.00200644 0 0)
(0.208705 0.014924 0 0.00223134 0 0)
(0.185946 0.0216898 0 0.00375827 0 0)
(0.183614 0.026039 0 0.00505649 0 0)
(0.140872 0.0414704 0 0.0184893 0 0)
(0.118887 0.0677265 0 0.0603551 0 0)
(0.102549 0.114444 0 0.263672 0 0)
(0.141481 0.0181921 0 0.00252507 0 0)
(0.00357306 0.00357936 0 0.00612786 0 0)
(0.0122865 0.00384336 0 0.00280881 0 0)
(0.0349776 0.00533054 0 0.00109573 0 0)
(0.0612602 0.00894421 0 0.00155774 0 0)
(0.0733379 0.0116528 0 0.00237379 0 0)
(0.0908296 0.0137766 0 0.00303807 0 0)
(0.0976101 0.011959 0 0.00246437 0 0)
(0.117675 0.0109964 0 0.00226208 0 0)
(0.130604 0.00898343 0 0.00164191 0 0)
(0.152173 0.010407 0 0.00102894 0 0)
(0.168647 0.0102618 0 0.00112276 0 0)
(0.187389 0.0122498 0 0.00124667 0 0)
(0.200489 0.0139139 0 0.00165946 0 0)
(0.211997 0.0161917 0 0.00231107 0 0)
(0.216991 0.0222755 0 0.00359087 0 0)
(0.21081 0.0289905 0 0.00559618 0 0)
(0.200273 0.0568896 0 0.0219573 0 0)
(0.176182 0.0770319 0 0.0554006 0 0)
(0.188193 0.180438 0 0.310572 0 0)
(0.141596 0.0153869 0 0.00180906 0 0)
(0.0028963 0.00275992 0 0.00489042 0 0)
(0.0102156 0.00298727 0 0.00263765 0 0)
(0.0311319 0.00431775 0 0.000799309 0 0)
(0.0540334 0.00716337 0 0.00112343 0 0)
(0.0669294 0.00989219 0 0.00182432 0 0)
(0.0796808 0.0117184 0 0.00252732 0 0)
(0.0887008 0.0104131 0 0.00236683 0 0)
(0.103617 0.00882093 0 0.00161662 0 0)
(0.11912 0.0081562 0 0.00127018 0 0)
(0.135271 0.00800349 0 0.000730426 0 0)
(0.154946 0.00974664 0 0.00109097 0 0)
(0.168223 0.00972491 0 0.000912724 0 0)
(0.186254 0.0135661 0 0.00139041 0 0)
(0.193485 0.0143401 0 0.00191726 0 0)
(0.206351 0.0212306 0 0.00300937 0 0)
(0.20013 0.0307249 0 0.00575964 0 0)
(0.201129 0.0523028 0 0.0184682 0 0)
(0.183262 0.088265 0 0.062499 0 0)
(0.210814 0.187524 0 0.25878 0 0)
(0.141669 0.012874 0 0.00128761 0 0)
(0.00245452 0.00203505 0 0.00382178 0 0)
(0.0087205 0.00215514 0 0.0024343 0 0)
(0.0278059 0.00334732 0 0.000548645 0 0)
(0.0485343 0.0056153 0 0.00079279 0 0)
(0.0613029 0.00823253 0 0.0013965 0 0)
(0.0713269 0.00993211 0 0.00200231 0 0)
(0.0806715 0.00883064 0 0.00164886 0 0)
(0.092963 0.00766683 0 0.00139643 0 0)
(0.108623 0.00647004 0 0.00117059 0 0)
(0.122679 0.00710712 0 0.000643216 0 0)
(0.141711 0.0079618 0 0.000812818 0 0)
(0.153791 0.00861821 0 0.000810826 0 0)
(0.170887 0.0119517 0 0.00127699 0 0)
(0.177836 0.0126592 0 0.00161518 0 0)
(0.190494 0.0220059 0 0.00354068 0 0)
(0.186668 0.0276 0 0.00527449 0 0)
(0.191224 0.0565071 0 0.0217427 0 0)
(0.18037 0.0888681 0 0.0600368 0 0)
(0.216826 0.187152 0 0.241801 0 0)
(0.142064 0.0107173 0 0.000905425 0 0)
(0.00219007 0.00148104 0 0.00291415 0 0)
(0.00780122 0.0015722 0 0.00219508 0 0)
(0.0249469 0.0026686 0 0.000414318 0 0)
(0.044376 0.00443222 0 0.000563723 0 0)
(0.0561902 0.00678462 0 0.00103046 0 0)
(0.0650016 0.00838772 0 0.00158559 0 0)
(0.0733848 0.00748428 0 0.00147675 0 0)
(0.0848297 0.00623838 0 0.0010292 0 0)
(0.0993685 0.00554671 0 0.000823845 0 0)
(0.113069 0.00569544 0 0.000467095 0 0)
(0.130742 0.00708826 0 0.000726441 0 0)
(0.14237 0.00737326 0 0.000674687 0 0)
(0.158566 0.0103609 0 0.00095599 0 0)
(0.165212 0.011947 0 0.00141914 0 0)
(0.178161 0.019103 0 0.00275163 0 0)
(0.17655 0.0280884 0 0.00547463 0 0)
(0.183847 0.0547791 0 0.0207746 0 0)
(0.17955 0.0893199 0 0.0585878 0 0)
(0.226217 0.191575 0 0.225818 0 0)
(0.142434 0.00879231 0 0.000620428 0 0)
(0.0020441 0.00104788 0 0.00214498 0 0)
(0.00718842 0.00102191 0 0.00176581 0 0)
(0.0226065 0.0020958 0 0.00028877 0 0)
(0.0409498 0.00346636 0 0.000384819 0 0)
(0.0520795 0.00551441 0 0.00074663 0 0)
(0.0597578 0.00697705 0 0.00118645 0 0)
(0.0675027 0.00617119 0 0.00100637 0 0)
(0.0780419 0.00524893 0 0.000765442 0 0)
(0.0919104 0.00442376 0 0.000735806 0 0)
(0.10511 0.00476936 0 0.000385618 0 0)
(0.121675 0.00596223 0 0.000549585 0 0)
(0.133333 0.006182 0 0.000531382 0 0)
(0.148241 0.00947416 0 0.000896681 0 0)
(0.155577 0.0104812 0 0.00116295 0 0)
(0.167932 0.01899 0 0.0028781 0 0)
(0.169569 0.0270058 0 0.00526699 0 0)
(0.178028 0.0540795 0 0.0204875 0 0)
(0.183226 0.0906011 0 0.0577296 0 0)
(0.230265 0.19226 0 0.206905 0 0)
(0.142738 0.00706542 0 0.000416956 0 0)
(0.00197216 0.000730834 0 0.0015462 0 0)
(0.00680911 0.000634782 0 0.00132598 0 0)
(0.0207685 0.00167858 0 0.00024154 0 0)
(0.0382612 0.00270132 0 0.000286393 0 0)
(0.0487922 0.00440272 0 0.000530019 0 0)
(0.0556728 0.00571931 0 0.000880977 0 0)
(0.062746 0.00503489 0 0.000808359 0 0)
(0.0727226 0.00420474 0 0.000568997 0 0)
(0.085886 0.00357367 0 0.000507379 0 0)
(0.0988019 0.00388283 0 0.000286532 0 0)
(0.114438 0.0050008 0 0.000457579 0 0)
(0.125985 0.00531208 0 0.000460161 0 0)
(0.140175 0.00800465 0 0.000689252 0 0)
(0.147856 0.00970784 0 0.00100216 0 0)
(0.160459 0.0176222 0 0.00257574 0 0)
(0.163987 0.0262695 0 0.00518928 0 0)
(0.175816 0.0533886 0 0.0201755 0 0)
(0.187666 0.0911171 0 0.0559077 0 0)
(0.237065 0.191367 0 0.188424 0 0)
(0.142974 0.00554314 0 0.000265958 0 0)
(0.00193556 0.000497076 0 0.00102955 0 0)
(0.00659023 0.000349348 0 0.000891954 0 0)
(0.0193485 0.00130595 0 0.000165815 0 0)
(0.0361313 0.00206639 0 0.000185682 0 0)
(0.0462184 0.00341507 0 0.000347038 0 0)
(0.052484 0.00456041 0 0.00059902 0 0)
(0.0590026 0.00397641 0 0.000518475 0 0)
(0.0685366 0.00336958 0 0.000362189 0 0)
(0.0811141 0.00280964 0 0.000398966 0 0)
(0.0938891 0.00305127 0 0.000222958 0 0)
(0.108734 0.00417881 0 0.00033844 0 0)
(0.120245 0.00439895 0 0.000335099 0 0)
(0.133908 0.00706054 0 0.0005687 0 0)
(0.14205 0.00875194 0 0.00082167 0 0)
(0.154852 0.0165796 0 0.00234213 0 0)
(0.160451 0.0255905 0 0.00498479 0 0)
(0.176263 0.0525394 0 0.0194737 0 0)
(0.191603 0.0915932 0 0.0531098 0 0)
(0.249866 0.190213 0 0.171287 0 0)
(0.143131 0.00416954 0 0.000165536 0 0)
(0.00193035 0.000321099 0 0.000644328 0 0)
(0.00648301 0.000171216 0 0.000572894 0 0)
(0.0182966 0.000982845 0 0.000133582 0 0)
(0.0344785 0.00151264 0 0.000142212 0 0)
(0.0442855 0.00251543 0 0.000227696 0 0)
(0.0500394 0.00347188 0 0.000393214 0 0)
(0.0561777 0.00300437 0 0.000356177 0 0)
(0.0653411 0.00252852 0 0.000249009 0 0)
(0.0775237 0.00209892 0 0.000275843 0 0)
(0.0901351 0.00233705 0 0.000162843 0 0)
(0.104398 0.00335132 0 0.000263138 0 0)
(0.115914 0.00354756 0 0.000282877 0 0)
(0.129239 0.00603915 0 0.000473995 0 0)
(0.137883 0.0078338 0 0.00067879 0 0)
(0.150825 0.0156637 0 0.00214 0 0)
(0.159127 0.0248248 0 0.00478272 0 0)
(0.177873 0.0515343 0 0.0185633 0 0)
(0.196393 0.0917192 0 0.050132 0 0)
(0.264803 0.186716 0 0.155745 0 0)
(0.143239 0.00291596 0 9.25132e-05 0 0)
(0.00193556 0.000191323 0 0.000344479 0 0)
(0.0064365 5.94929e-05 0 0.000313007 0 0)
(0.0175503 0.000674926 0 8.52458e-05 0 0)
(0.0332786 0.00104088 0 9.24812e-05 0 0)
(0.0428925 0.0017039 0 0.000129601 0 0)
(0.0482884 0.00246809 0 0.000225877 0 0)
(0.0541252 0.00208816 0 0.000199599 0 0)
(0.0630427 0.00180015 0 0.000137273 0 0)
(0.0749057 0.00147226 0 0.000180637 0 0)
(0.0874612 0.00165721 0 0.00012114 0 0)
(0.101244 0.00259703 0 0.000184157 0 0)
(0.112857 0.00282889 0 0.000198518 0 0)
(0.125994 0.00506026 0 0.000361853 0 0)
(0.135075 0.00706775 0 0.00055804 0 0)
(0.148467 0.0146461 0 0.00189915 0 0)
(0.159645 0.02402 0 0.00455607 0 0)
(0.179387 0.0505156 0 0.0174223 0 0)
(0.204826 0.0911094 0 0.046971 0 0)
(0.281192 0.181907 0 0.139762 0 0)
(0.143301 0.00174441 0 5.09235e-05 0 0)
(0.0019424 9.41254e-05 0 0.000161057 0 0)
(0.00642013 8.09019e-06 0 0.000151165 0 0)
(0.0170728 0.000388598 0 6.48645e-05 0 0)
(0.032487 0.000623067 0 7.81002e-05 0 0)
(0.0419931 0.000946787 0 8.26425e-05 0 0)
(0.0471499 0.00150695 0 0.00012469 0 0)
(0.0527932 0.001215 0 0.000115631 0 0)
(0.0615463 0.00109042 0 9.00831e-05 0 0)
(0.0732156 0.000855059 0 0.000122786 0 0)
(0.0857575 0.0010222 0 9.56563e-05 0 0)
(0.0991953 0.00186622 0 0.000135689 0 0)
(0.111013 0.00206758 0 0.000155069 0 0)
(0.123994 0.00416439 0 0.000287915 0 0)
(0.133541 0.00624127 0 0.000450808 0 0)
(0.147892 0.0136449 0 0.00168534 0 0)
(0.161099 0.0231482 0 0.00424146 0 0)
(0.182155 0.0495186 0 0.0161879 0 0)
(0.216242 0.0895341 0 0.0434586 0 0)
(0.295613 0.17798 0 0.125326 0 0)
(0.143318 0.000622322 0 2.82774e-05 0 0)
(0.00194633 1.46411e-05 0 6.63534e-05 0 0)
(0.00641443 -1.57525e-05 0 5.82941e-05 0 0)
(0.016841 0.000105579 0 4.72966e-05 0 0)
(0.0320909 0.000238041 0 6.23566e-05 0 0)
(0.0415631 0.000230635 0 5.71099e-05 0 0)
(0.0465893 0.000572186 0 6.62114e-05 0 0)
(0.0521384 0.000367931 0 6.81502e-05 0 0)
(0.0608086 0.000408401 0 6.54081e-05 0 0)
(0.0724053 0.00028538 0 8.0499e-05 0 0)
(0.0849443 0.000414766 0 7.88054e-05 0 0)
(0.098237 0.00114514 0 9.78864e-05 0 0)
(0.11029 0.00134961 0 0.00011175 0 0)
(0.123133 0.00329922 0 0.000220533 0 0)
(0.133409 0.00541611 0 0.000368854 0 0)
(0.148865 0.0126105 0 0.00147469 0 0)
(0.162885 0.0223617 0 0.00389624 0 0)
(0.18804 0.0481244 0 0.0148791 0 0)
(0.228387 0.0874942 0 0.0398603 0 0)
(0.307827 0.173837 0 0.111443 0 0)
(0.143296 -0.000481153 0 2.86548e-05 0 0)
(0.00194355 -5.79539e-05 0 7.47442e-05 0 0)
(0.00640988 -2.41545e-05 0 5.36056e-05 0 0)
(0.0168412 -0.000172315 0 5.50341e-05 0 0)
(0.0320804 -0.000130872 0 6.88059e-05 0 0)
(0.0415769 -0.000480749 0 6.77647e-05 0 0)
(0.0465874 -0.000350598 0 6.63441e-05 0 0)
(0.0521304 -0.000485923 0 7.72033e-05 0 0)
(0.0608187 -0.000261728 0 8.39677e-05 0 0)
(0.0724202 -0.000302364 0 7.08716e-05 0 0)
(0.0850139 -0.000181094 0 8.04129e-05 0 0)
(0.0983552 0.000405006 0 8.31378e-05 0 0)
(0.110584 0.000648355 0 9.0817e-05 0 0)
(0.12343 0.0024081 0 0.000175133 0 0)
(0.134744 0.00455113 0 0.000321981 0 0)
(0.150774 0.0115392 0 0.00127617 0 0)
(0.16621 0.0214762 0 0.00354088 0 0)
(0.196265 0.0462372 0 0.013516 0 0)
(0.239325 0.085541 0 0.0360193 0 0)
(0.322991 0.168738 0 0.0980746 0 0)
(0.143231 -0.00160604 0 4.84928e-05 0 0)
(0.00193413 -0.000137991 0 0.000176778 0 0)
(0.00640567 -4.47412e-05 0 0.000127838 0 0)
(0.0170743 -0.000455531 0 7.84768e-05 0 0)
(0.0324529 -0.000519573 0 8.48453e-05 0 0)
(0.0420461 -0.00119816 0 0.000106472 0 0)
(0.0471355 -0.00128295 0 0.000116392 0 0)
(0.0527771 -0.00133882 0 0.000134656 0 0)
(0.0615683 -0.000942431 0 0.000134726 0 0)
(0.0732564 -0.000890577 0 8.76115e-05 0 0)
(0.0859933 -0.000771051 0 9.18263e-05 0 0)
(0.0995242 -0.000342901 0 8.50346e-05 0 0)
(0.111848 -5.2481e-05 0 7.91417e-05 0 0)
(0.125067 0.00149344 0 0.000146883 0 0)
(0.137352 0.00366545 0 0.00029189 0 0)
(0.153489 0.010477 0 0.00108526 0 0)
(0.172018 0.0203226 0 0.00319238 0 0)
(0.205073 0.0441979 0 0.0121225 0 0)
(0.250763 0.0833772 0 0.0321067 0 0)
(0.34121 0.162293 0 0.0860633 0 0)
(0.143124 -0.00278056 0 9.10627e-05 0 0)
(0.00192211 -0.00023667 0 0.000377385 0 0)
(0.0064131 -9.29208e-05 0 0.000283088 0 0)
(0.017554 -0.00074531 0 0.000115526 0 0)
(0.0332185 -0.000941472 0 0.000114467 0 0)
(0.0429846 -0.00195211 0 0.00017705 0 0)
(0.0482529 -0.00224232 0 0.000219155 0 0)
(0.0541067 -0.00222042 0 0.000243096 0 0)
(0.063082 -0.00164267 0 0.000220361 0 0)
(0.0749354 -0.00150528 0 0.000134438 0 0)
(0.08794 -0.00138557 0 0.000118519 0 0)
(0.101689 -0.00111595 0 0.000108805 0 0)
(0.114222 -0.000772326 0 8.25944e-05 0 0)
(0.128102 0.000518195 0 0.000143411 0 0)
(0.140924 0.00279383 0 0.000279302 0 0)
(0.157939 0.00928989 0 0.000927529 0 0)
(0.179647 0.0189754 0 0.00285439 0 0)
(0.213762 0.042199 0 0.0106627 0 0)
(0.265361 0.0803465 0 0.0283001 0 0)
(0.360532 0.15508 0 0.0747053 0 0)
(0.14297 -0.00404127 0 0.000160604 0 0)
(0.00191301 -0.000369422 0 0.000680444 0 0)
(0.00645013 -0.000193707 0 0.000522422 0 0)
(0.0183041 -0.00105138 0 0.000161644 0 0)
(0.0343955 -0.00142191 0 0.000159467 0 0)
(0.0444244 -0.00276687 0 0.000283948 0 0)
(0.0499855 -0.00324974 0 0.000376692 0 0)
(0.0561641 -0.00315001 0 0.000402096 0 0)
(0.0654005 -0.00238517 0 0.000340104 0 0)
(0.0775313 -0.00217001 0 0.000211575 0 0)
(0.0908918 -0.0020292 0 0.000159284 0 0)
(0.104881 -0.00193468 0 0.000154835 0 0)
(0.117914 -0.00152939 0 0.000100966 0 0)
(0.132396 -0.000537546 0 0.00016657 0 0)
(0.145644 0.00193443 0 0.000283568 0 0)
(0.164548 0.0078776 0 0.000811932 0 0)
(0.187995 0.017618 0 0.00251737 0 0)
(0.224327 0.0398791 0 0.0092013 0 0)
(0.282484 0.0765787 0 0.024654 0 0)
(0.381048 0.147693 0 0.0639873 0 0)
(0.142757 -0.00541957 0 0.000263182 0 0)
(0.00191731 -0.00054918 0 0.00108683 0 0)
(0.00654837 -0.000366418 0 0.000846995 0 0)
(0.0193641 -0.00138237 0 0.00021461 0 0)
(0.0360143 -0.00197619 0 0.000222558 0 0)
(0.0464173 -0.0036607 0 0.000428096 0 0)
(0.0523917 -0.00432906 0 0.000588162 0 0)
(0.0590227 -0.00414273 0 0.000609426 0 0)
(0.0685948 -0.003189 0 0.000491444 0 0)
(0.081156 -0.00289405 0 0.000315995 0 0)
(0.094872 -0.00272485 0 0.000213404 0 0)
(0.109293 -0.00281134 0 0.000221539 0 0)
(0.122995 -0.00234882 0 0.000132863 0 0)
(0.137842 -0.0016433 0 0.000211239 0 0)
(0.152188 0.000977633 0 0.000309769 0 0)
(0.172761 0.00631888 0 0.00073184 0 0)
(0.197283 0.0162475 0 0.00218102 0 0)
(0.237871 0.0369954 0 0.00782432 0 0)
(0.300783 0.0724133 0 0.0211222 0 0)
(0.403768 0.139608 0 0.0541611 0 0)
(0.142476 -0.00695332 0 0.000409759 0 0)
(0.00194937 -0.000792897 0 0.00159955 0 0)
(0.00675032 -0.000635395 0 0.0012565 0 0)
(0.0207864 -0.00175281 0 0.000275286 0 0)
(0.0381149 -0.00262716 0 0.000310089 0 0)
(0.0490399 -0.00464872 0 0.000615299 0 0)
(0.0555491 -0.00550195 0 0.000857411 0 0)
(0.0627932 -0.00520468 0 0.00086252 0 0)
(0.0727701 -0.00408178 0 0.000682134 0 0)
(0.0859331 -0.00369534 0 0.000452369 0 0)
(0.0999749 -0.00349789 0 0.000285182 0 0)
(0.115174 -0.00376396 0 0.000312038 0 0)
(0.129383 -0.00323887 0 0.000177943 0 0)
(0.144839 -0.00285439 0 0.000287746 0 0)
(0.160718 -9.67087e-05 0 0.000354075 0 0)
(0.18218 0.00466865 0 0.000686182 0 0)
(0.209008 0.0146585 0 0.00187601 0 0)
(0.253507 0.0336187 0 0.00654433 0 0)
(0.320744 0.0677713 0 0.017762 0 0)
(0.428934 0.1307 0 0.0451497 0 0)
(0.142124 -0.00868756 0 0.000616057 0 0)
(0.00202994 -0.00112002 0 0.00222141 0 0)
(0.00711164 -0.00102071 0 0.00172316 0 0)
(0.022639 -0.00218408 0 0.000349256 0 0)
(0.0407663 -0.00340143 0 0.000428358 0 0)
(0.0524013 -0.00574863 0 0.000848196 0 0)
(0.0595788 -0.00677633 0 0.00118207 0 0)
(0.0676251 -0.00635393 0 0.00115789 0 0)
(0.0780897 -0.00508027 0 0.000910753 0 0)
(0.0920097 -0.00458555 0 0.000612717 0 0)
(0.106433 -0.00436239 0 0.000369852 0 0)
(0.122663 -0.00480698 0 0.000423814 0 0)
(0.137175 -0.00418429 0 0.000234661 0 0)
(0.153992 -0.0042439 0 0.000405011 0 0)
(0.170958 -0.00119472 0 0.000403218 0 0)
(0.193625 0.00281559 0 0.000683762 0 0)
(0.223476 0.012836 0 0.00162604 0 0)
(0.270885 0.0298427 0 0.00534117 0 0)
(0.343364 0.0625262 0 0.0146867 0 0)
(0.456671 0.120909 0 0.0368351 0 0)
(0.141777 -0.0106299 0 0.000898763 0 0)
(0.00218268 -0.00156468 0 0.00298378 0 0)
(0.00770354 -0.00153394 0 0.00214196 0 0)
(0.0250001 -0.00273031 0 0.000454711 0 0)
(0.0441222 -0.00436646 0 0.000595735 0 0)
(0.0566372 -0.00700843 0 0.00113888 0 0)
(0.0647081 -0.00818563 0 0.00156504 0 0)
(0.0736775 -0.0076265 0 0.00149856 0 0)
(0.0848002 -0.00621108 0 0.0011753 0 0)
(0.0995443 -0.00559334 0 0.000795222 0 0)
(0.114571 -0.00535623 0 0.000471767 0 0)
(0.131805 -0.00593925 0 0.000553652 0 0)
(0.14692 -0.00525091 0 0.000307342 0 0)
(0.165392 -0.00579166 0 0.000557381 0 0)
(0.183079 -0.00234724 0 0.00045761 0 0)
(0.208058 0.000638255 0 0.000744587 0 0)
(0.240239 0.0108858 0 0.00141852 0 0)
(0.290827 0.0255688 0 0.00426689 0 0)
(0.369079 0.0566482 0 0.0119021 0 0)
(0.48817 0.109816 0 0.0292814 0 0)
(0.141697 -0.0128338 0 0.00128322 0 0)
(0.00242524 -0.00214529 0 0.00390917 0 0)
(0.00864037 -0.00218304 0 0.00242522 0 0)
(0.0278136 -0.00344403 0 0.000613913 0 0)
(0.0483673 -0.0056088 0 0.000837932 0 0)
(0.0616266 -0.00844736 0 0.00149908 0 0)
(0.0711665 -0.00979163 0 0.00201922 0 0)
(0.0808078 -0.00899844 0 0.00187286 0 0)
(0.0931106 -0.00756294 0 0.0014946 0 0)
(0.108445 -0.00668751 0 0.000994393 0 0)
(0.124631 -0.0065802 0 0.000610034 0 0)
(0.14258 -0.00711423 0 0.000691635 0 0)
(0.159148 -0.00659465 0 0.000412929 0 0)
(0.178717 -0.00736999 0 0.000731787 0 0)
(0.198059 -0.00378919 0 0.000539968 0 0)
(0.22529 -0.00171627 0 0.000871409 0 0)
(0.259657 0.00871101 0 0.00122365 0 0)
(0.314017 0.0208099 0 0.00340822 0 0)
(0.398219 0.0500553 0 0.00935164 0 0)
(0.523891 0.0969547 0 0.0225982 0 0)
(0.142281 -0.0154088 0 0.00181351 0 0)
(0.00284073 -0.00284109 0 0.00498592 0 0)
(0.0101809 -0.00301307 0 0.00262697 0 0)
(0.030928 -0.00431426 0 0.000840823 0 0)
(0.0540201 -0.00716625 0 0.00117121 0 0)
(0.0669799 -0.0100305 0 0.0019345 0 0)
(0.0797352 -0.0116269 0 0.00253215 0 0)
(0.0885123 -0.0104055 0 0.00227933 0 0)
(0.103989 -0.00917552 0 0.00186224 0 0)
(0.118243 -0.00784143 0 0.00121752 0 0)
(0.137844 -0.00804328 0 0.000777875 0 0)
(0.154805 -0.00837334 0 0.000844836 0 0)
(0.175302 -0.0081996 0 0.000548258 0 0)
(0.193735 -0.00904233 0 0.000939499 0 0)
(0.217744 -0.00547942 0 0.000636921 0 0)
(0.244181 -0.00424135 0 0.0010673 0 0)
(0.28332 0.00645323 0 0.00104503 0 0)
(0.338684 0.0153916 0 0.00276459 0 0)
(0.429216 0.0432414 0 0.0071728 0 0)
(0.558847 0.0810153 0 0.0164591 0 0)
(0.143163 -0.0183547 0 0.00253037 0 0)
(0.00375918 -0.00367803 0 0.00621923 0 0)
(0.0127359 -0.00407558 0 0.00283309 0 0)
(0.034513 -0.00534198 0 0.00114401 0 0)
(0.0618455 -0.009118 0 0.00160988 0 0)
(0.0726922 -0.011749 0 0.00245791 0 0)
(0.0917813 -0.0138508 0 0.00311227 0 0)
(0.0965236 -0.0118003 0 0.0027331 0 0)
(0.119529 -0.0112468 0 0.00229005 0 0)
(0.12831 -0.00901777 0 0.00146916 0 0)
(0.156865 -0.00994393 0 0.000990773 0 0)
(0.166992 -0.00967734 0 0.0010211 0 0)
(0.197549 -0.0102274 0 0.00072749 0 0)
(0.206957 -0.0106316 0 0.0011749 0 0)
(0.241311 -0.00743015 0 0.000761774 0 0)
(0.256198 -0.00655813 0 0.00129415 0 0)
(0.304412 0.00417471 0 0.000926454 0 0)
(0.345942 0.00984529 0 0.00227245 0 0)
(0.440764 0.0364374 0 0.00547383 0 0)
(0.555023 0.0617939 0 0.0109375 0 0)
(0.142481 -0.0215075 0 0.00346782 0 0)
(0.00525059 -0.00481483 0 0.00761413 0 0)
(0.0161328 -0.00526995 0 0.00306801 0 0)
(0.039252 -0.00667222 0 0.0015451 0 0)
(0.0714766 -0.0114819 0 0.00217856 0 0)
(0.0804943 -0.0138066 0 0.00310409 0 0)
(0.107176 -0.0165369 0 0.00379183 0 0)
(0.106542 -0.0134147 0 0.00327078 0 0)
(0.138881 -0.0137559 0 0.00278802 0 0)
(0.13783 -0.0102258 0 0.00175144 0 0)
(0.176585 -0.0121214 0 0.00126123 0 0)
(0.171268 -0.0106049 0 0.00120989 0 0)
(0.211015 -0.0121211 0 0.000947884 0 0)
(0.198127 -0.0109058 0 0.00137854 0 0)
(0.238318 -0.00864194 0 0.000898126 0 0)
(0.225114 -0.00679548 0 0.00144356 0 0)
(0.273901 0.0026447 0 0.000839754 0 0)
(0.281259 0.00628826 0 0.00189682 0 0)
(0.365879 0.0295712 0 0.00415396 0 0)
(0.439904 0.0413905 0 0.00676118 0 0)
(0.139696 -0.0248084 0 0.00469187 0 0)
(0.00690407 -0.00639435 0 0.00905416 0 0)
(0.0198342 -0.0064835 0 0.00334372 0 0)
(0.0458647 -0.00854038 0 0.00208545 0 0)
(0.0817835 -0.0141703 0 0.00290174 0 0)
(0.0917247 -0.0164085 0 0.00389315 0 0)
(0.120594 -0.0190773 0 0.00452708 0 0)
(0.113912 -0.014901 0 0.00386061 0 0)
(0.14337 -0.0150573 0 0.00323616 0 0)
(0.128098 -0.0101853 0 0.00198735 0 0)
(0.157696 -0.0120658 0 0.00146641 0 0)
(0.132653 -0.00887596 0 0.00130217 0 0)
(0.158102 -0.0104813 0 0.00107706 0 0)
(0.125262 -0.0068476 0 0.00139242 0 0)
(0.148937 -0.00612966 0 0.000901685 0 0)
(0.120303 -0.00230271 0 0.00138426 0 0)
(0.150196 0.00275552 0 0.000683986 0 0)
(0.142771 0.00676657 0 0.00157974 0 0)
(0.201148 0.0209782 0 0.00300551 0 0)
(0.250493 0.0251504 0 0.00426577 0 0)
(0.136964 -0.0284867 0 0.00631202 0 0)
(0.00907136 -0.00848832 0 0.0102865 0 0)
(0.0244047 -0.00801783 0 0.00380106 0 0)
(0.0542212 -0.0110476 0 0.00284662 0 0)
(0.0883439 -0.0167295 0 0.00379138 0 0)
(0.0929175 -0.017753 0 0.00467822 0 0)
(0.104097 -0.0179139 0 0.00504014 0 0)
(0.0831368 -0.0119172 0 0.00415184 0 0)
(0.0869634 -0.0103039 0 0.00326543 0 0)
(0.0639562 -0.00497705 0 0.00191523 0 0)
(0.0664918 -0.00578095 0 0.00135505 0 0)
(0.0492993 -0.00194284 0 0.00112853 0 0)
(0.0494082 -0.00287051 0 0.000931606 0 0)
(0.0434144 0.00145147 0 0.00113394 0 0)
(0.0444341 6.0307e-05 0 0.000707065 0 0)
(0.05339 0.00448187 0 0.00109128 0 0)
(0.057636 0.00302827 0 0.000502462 0 0)
(0.0826297 0.00832364 0 0.00120442 0 0)
(0.105271 0.00940336 0 0.00218697 0 0)
(0.157035 0.0149686 0 0.00274341 0 0)
(0.137824 -0.033079 0 0.00846173 0 0)
(0.0127383 -0.0113169 0 0.0115398 0 0)
(0.0283081 -0.0097353 0 0.00473688 0 0)
(0.0521785 -0.0122605 0 0.00385146 0 0)
(0.062229 -0.01434 0 0.00444873 0 0)
(0.0453101 -0.0106001 0 0.00478827 0 0)
(0.0324015 -0.00634235 0 0.00463167 0 0)
(0.0211043 5.97165e-05 0 0.00354995 0 0)
(0.0230747 0.00161752 0 0.00255 0 0)
(0.0383196 0.00456976 0 0.00140219 0 0)
(0.0399953 0.0039246 0 0.00093408 0 0)
(0.0795143 0.006411 0 0.000747966 0 0)
(0.0725375 0.00569573 0 0.000622803 0 0)
(0.138522 0.00846817 0 0.00074092 0 0)
(0.122015 0.00531344 0 0.000451846 0 0)
(0.202909 0.00849884 0 0.000715642 0 0)
(0.177594 0.00128342 0 0.000352431 0 0)
(0.250741 0.00758216 0 0.000778499 0 0)
(0.231345 -0.00358228 0 0.00161784 0 0)
(0.273686 0.00651738 0 0.00168304 0 0)
(0.147756 -0.040564 0 0.0118303 0 0)
(0.0142136 -0.0127738 0 0.0129421 0 0)
(0.0190298 -0.00672234 0 0.00552788 0 0)
(0.0204009 -0.00441932 0 0.0040327 0 0)
(0.0122082 -0.000156358 0 0.00378888 0 0)
(0.0193905 0.00651048 0 0.00357187 0 0)
(0.0497759 0.0105554 0 0.00315676 0 0)
(0.112652 0.0127033 0 0.00225346 0 0)
(0.163072 0.0114625 0 0.00149946 0 0)
(0.245946 0.0109909 0 0.00078654 0 0)
(0.272968 0.00991782 0 0.00049439 0 0)
(0.376122 0.0106822 0 0.000397703 0 0)
(0.376605 0.00992474 0 0.000336186 0 0)
(0.509275 0.0107632 0 0.000401968 0 0)
(0.479769 0.0070339 0 0.000239306 0 0)
(0.622021 0.00804075 0 0.00039889 0 0)
(0.56279 -0.00161189 0 0.00021541 0 0)
(0.664725 0.0041843 0 0.000462702 0 0)
(0.602504 -0.0141691 0 0.00109777 0 0)
(0.59347 -0.000261624 0 0.00139591 0 0)
(0.158299 -0.0501936 0 0.0168845 0 0)
(0.00398924 -0.00339218 0 0.0124197 0 0)
(0.0267847 0.00717897 0 0.00446246 0 0)
(0.0615547 0.0113784 0 0.00264142 0 0)
(0.120576 0.0155904 0 0.002118 0 0)
(0.227582 0.0185666 0 0.00187398 0 0)
(0.349373 0.0183405 0 0.00157344 0 0)
(0.491383 0.0161146 0 0.00106564 0 0)
(0.59043 0.0130827 0 0.000666528 0 0)
(0.715296 0.0110576 0 0.000338618 0 0)
(0.764762 0.00992191 0 0.00019879 0 0)
(0.895645 0.00984476 0 0.000167506 0 0)
(0.907046 0.00907365 0 0.000142293 0 0)
(1.06223 0.00883785 0 0.000174349 0 0)
(1.0286 0.00546644 0 0.000100959 0 0)
(1.18706 0.00487449 0 0.00017886 0 0)
(1.10035 -0.00382977 0 0.000113685 0 0)