/*--------------------------------*- C++ -*----------------------------------*\
| =========                 |                                                 |
| \\      /  F ield         | OpenFOAM: The Open Source CFD Toolbox           |
|  \\    /   O peration     | Version:  2.4.0                                 |
|   \\  /    A nd           | Web:      www.OpenFOAM.org                      |
|    \\/     M anipulation  |                                                 |
\*---------------------------------------------------------------------------*/
FoamFile
{
    version     2.0;
    format      ascii;
    class       volScalarField;
    location    "0.024";
    object      p;
}
// * * * * * * * * * * * * * * * * * * * * * * * * * * * * * * * * * * * * * //

dimensions      [0 2 -2 0 0 0 0];

internalField   nonuniform List<scalar> 
17600
(
77.1948
61.6052
57.1736
56.0008
55.0548
54.0804
53.3011
52.4727
51.6871
51.0173
50.334
49.6092
48.7996
48.1711
47.632
47.2474
46.9337
46.5853
46.427
46.2442
75.287
61.6553
57.2148
56.0102
55.0581
54.0808
53.3012
52.4743
51.6863
51.0167
50.3344
49.6097
48.8002
48.1704
47.6317
47.2465
46.9337
46.5848
46.4322
46.2328
73.8733
61.9121
57.359
56.0477
55.072
54.0848
53.3038
52.4774
51.6866
51.017
50.3352
49.6094
48.7997
48.1693
47.6306
47.2451
46.9323
46.5809
46.4433
46.2552
72.8973
62.2545
57.5793
56.1119
55.1009
54.0993
53.3132
52.4849
51.6903
51.0213
50.3367
49.6076
48.7976
48.1684
47.6305
47.2429
46.9285
46.5721
46.4563
46.3053
72.0747
62.5906
57.8441
56.193
55.1421
54.1272
53.3334
52.5003
51.7011
51.0328
50.3402
49.6047
48.7945
48.1691
47.6344
47.2396
46.9218
46.5577
46.4675
46.348
71.3011
62.8844
58.1215
56.2749
55.1827
54.1623
53.3626
52.5241
51.7202
51.053
50.3465
49.6012
48.7914
48.1723
47.645
47.2359
46.9107
46.5404
46.4598
46.4318
70.5718
63.1322
58.3987
56.352
55.2137
54.1949
53.395
52.5526
51.7455
51.0808
50.3549
49.597
48.789
48.1782
47.6635
47.2342
46.8938
46.525
46.419
46.5296
69.9006
63.3363
58.6652
56.427
55.2343
54.2185
53.4279
52.5835
51.7724
51.1129
50.3644
49.5904
48.7867
48.1859
47.6889
47.2344
46.8727
46.5102
46.3758
46.6672
69.2897
63.5008
58.9174
56.5013
55.248
54.2351
53.4552
52.6155
51.8005
51.1442
50.3731
49.5831
48.7837
48.1927
47.719
47.235
46.8489
46.495
46.3522
46.7871
68.7433
63.6273
59.1499
56.5822
55.2546
54.2422
53.4808
52.6462
51.8256
51.1768
50.3803
49.5723
48.7818
48.1996
47.7477
47.2374
46.8257
46.4844
46.3434
46.8825
68.2581
63.7186
59.364
56.6662
55.2578
54.2432
53.4995
52.6774
51.8505
51.2047
50.3869
49.5632
48.779
48.2038
47.7763
47.2376
46.8028
46.4787
46.3438
46.9521
67.8312
63.7796
59.5584
56.7562
55.2575
54.2368
53.5155
52.7075
51.8718
51.2315
50.3923
49.552
48.7781
48.2082
47.8009
47.24
46.783
46.4756
46.3485
47.005
67.4615
63.8136
59.7331
56.8493
55.2536
54.2262
53.5284
52.7353
51.8913
51.255
50.3976
49.542
48.7778
48.2103
47.8234
47.2431
46.7642
46.4737
46.3584
47.0351
67.144
63.8298
59.8884
56.9406
55.2495
54.2127
53.5372
52.7615
51.909
51.2748
50.4034
49.5326
48.7775
48.2121
47.8434
47.247
46.7474
46.4739
46.3678
47.0581
66.8778
63.8341
60.0212
57.0243
55.2455
54.1977
53.5447
52.7847
51.9238
51.293
50.4081
49.5228
48.7786
48.2141
47.8593
47.2558
46.734
46.4742
46.3777
47.0732
66.6586
63.8327
60.1325
57.095
55.2432
54.1847
53.5488
52.8049
51.9377
51.3064
50.4133
49.5152
48.7792
48.2151
47.8733
47.2634
46.7217
46.4747
46.389
47.0804
66.4866
63.8285
60.2195
57.1541
55.2424
54.1723
53.5519
52.8218
51.948
51.3176
50.4184
49.5072
48.7807
48.2173
47.8832
47.2715
46.7132
46.4753
46.3996
47.0882
66.3591
63.8227
60.2846
57.1989
55.2422
54.1634
53.5526
52.8348
51.9573
51.3247
50.4231
49.5014
48.7819
48.2191
47.8905
47.2806
46.7061
46.475
46.4106
47.0926
66.2758
63.8173
60.3271
57.2303
55.242
54.1571
53.5525
52.8442
51.9636
51.3287
50.4279
49.4958
48.7834
48.2223
47.8944
47.2891
46.7027
46.4754
46.4205
47.096
66.2354
63.8127
60.3485
57.2463
55.2411
54.1551
53.5509
52.8494
51.9683
51.3292
50.4321
49.4923
48.785
48.2249
47.8952
47.2983
46.7017
46.4752
46.4278
47.1003
66.2375
63.81
60.3485
57.2475
55.2397
54.1569
53.5485
52.8506
51.9702
51.3264
50.4366
49.4896
48.7864
48.2287
47.8928
47.3068
46.7035
46.475
46.4345
47.1061
66.2823
63.8087
60.3278
57.2338
55.2371
54.1633
53.5451
52.8474
51.9701
51.3201
50.4405
49.4883
48.7882
48.2325
47.8876
47.3152
46.7082
46.475
46.4393
47.1099
66.37
63.8087
60.2856
57.2055
55.234
54.1733
53.5405
52.8402
51.9678
51.3104
50.4441
49.4886
48.7898
48.2366
47.8803
47.3228
46.7153
46.4759
46.4432
47.1113
66.5015
63.8087
60.2211
57.1634
55.231
54.1865
53.5348
52.829
51.9632
51.2975
50.4472
49.4904
48.7916
48.2407
47.8706
47.3294
46.7252
46.4782
46.4432
47.1112
66.6779
63.8076
60.1337
57.1078
55.2291
54.2021
53.5276
52.8139
51.9562
51.2814
50.4499
49.4935
48.7935
48.2449
47.8587
47.3353
46.738
46.4813
46.4432
47.1149
66.9006
63.8037
60.0228
57.0394
55.2285
54.2196
53.5187
52.7951
51.9468
51.2624
50.4519
49.4985
48.7955
48.2483
47.8453
47.3402
46.7535
46.4864
46.4399
47.1029
67.171
63.7943
59.8888
56.9594
55.2296
54.2378
53.508
52.7731
51.935
51.2404
50.453
49.5051
48.7977
48.2513
47.8305
47.3432
46.7719
46.4936
46.4351
47.0977
67.4916
63.7742
59.7327
56.8701
55.232
54.2552
53.4949
52.7483
51.9211
51.216
50.4532
49.5131
48.7999
48.2532
47.8149
47.3446
46.7935
46.5044
46.4282
47.0735
67.8652
63.7362
59.5557
56.7783
55.2338
54.27
53.4791
52.7205
51.9046
51.1895
50.4528
49.523
48.802
48.2533
47.7982
47.3445
46.818
46.5185
46.4209
47.0454
68.2949
63.6732
59.3587
56.6893
55.233
54.2804
53.4609
52.6905
51.8851
51.1602
50.4515
49.5351
48.8041
48.252
47.7804
47.3425
46.846
46.5365
46.4149
46.9953
68.7832
63.5795
59.1421
56.6052
55.2282
54.2844
53.4397
52.6595
51.8632
51.1284
50.4482
49.5486
48.8061
48.2492
47.7616
47.338
46.8778
46.558
46.4155
46.9309
69.3331
63.4516
58.9062
56.5262
55.2188
54.2807
53.4151
52.6275
51.8396
51.0948
50.4426
49.5628
48.8077
48.2447
47.7428
47.3306
46.9131
46.5824
46.4302
46.8354
69.9459
63.2871
58.6517
56.4515
55.2033
54.2685
53.3872
52.5947
51.8146
51.0607
50.4349
49.5768
48.8087
48.2387
47.7248
47.3219
46.9491
46.6076
46.4583
46.726
70.6197
63.084
58.3819
56.3785
55.1797
54.2468
53.3569
52.5621
51.7891
51.0286
50.4258
49.5889
48.8094
48.2322
47.7094
47.315
46.9813
46.6323
46.4941
46.6191
71.3486
62.8379
58.1046
56.3025
55.1462
54.2162
53.3259
52.5317
51.7652
51.0015
50.4166
49.5979
48.8107
48.2268
47.6989
47.3112
47.0077
46.6541
46.527
46.5379
72.1227
62.5462
57.8257
56.2215
55.1037
54.1819
53.298
52.5069
51.7464
50.9825
50.4096
49.6047
48.8135
48.2235
47.6937
47.3107
47.0267
46.6713
46.5518
46.4851
72.9445
62.212
57.5605
56.1408
55.0616
54.1541
53.2789
52.4914
51.735
50.9727
50.4053
49.6093
48.817
48.2224
47.6925
47.3122
47.0382
46.6835
46.5645
46.4569
73.9198
61.8711
57.3399
56.0763
55.0327
54.1393
53.27
52.4843
51.7301
50.97
50.4031
49.6116
48.8201
48.2224
47.6934
47.3143
47.0434
46.6905
46.5687
46.4512
75.3328
61.6152
57.1959
56.038
55.0194
54.135
53.2674
52.4819
51.7285
50.9709
50.4021
49.6115
48.8218
48.2225
47.6944
47.3161
47.0445
46.6931
46.5692
46.4667
77.2407
61.5653
57.155
56.0281
55.0163
54.1348
53.2666
52.4814
51.728
50.972
50.4021
49.6099
48.8223
48.2225
47.6947
47.317
47.0441
46.6929
46.5688
46.5135
47.5012
47.7869
47.55
47.7073
46.1392
44.0103
43.5001
41.7393
39.2178
38.0413
35.926
30.8222
24.2974
18.4639
14.7619
11.3616
8.53908
6.55468
6.30677
8.48396
12.5629
16.8657
20.7435
24.2659
28.512
34.1052
40.2654
46.5251
51.8432
55.8474
59.3638
62.4205
64.7541
66.6215
68.1745
69.4285
70.4676
71.3354
72.0368
72.5967
73.0457
73.4067
73.698
73.9356
74.1308
74.2911
74.4218
74.5276
74.6125
74.6799
74.733
74.7744
74.8062
74.8303
74.8481
74.8608
74.8692
74.8742
74.8763
74.8761
74.874
74.8702
74.8651
74.859
74.8519
74.844
74.8355
74.8264
74.817
74.8071
74.7969
74.7865
74.7758
74.765
74.754
74.7428
74.7315
74.7202
74.7088
74.6972
74.6857
74.6741
74.6624
74.6507
74.639
74.6273
74.6155
74.6037
74.5919
74.58
74.5682
74.5563
74.5444
74.5326
74.5207
74.5088
74.4969
74.485
74.4731
74.4611
74.4492
74.4373
74.4254
74.4134
74.4015
74.3896
74.3776
74.3657
74.3537
74.3418
74.3298
74.3178
74.3058
74.2939
74.2819
74.2698
74.2578
74.2458
74.2338
74.2217
74.2096
74.1975
74.1854
74.1732
74.161
74.1488
74.1365
74.1242
74.1118
74.0993
74.0868
74.0741
74.0614
74.0485
74.0356
74.0225
74.0094
73.996
73.9828
73.9694
73.9567
73.9437
73.9329
73.9218
73.9164
73.9114
73.9193
73.93
73.9655
74.0082
74.0864
74.1746
74.2937
74.4139
74.536
74.6365
74.6977
74.7264
74.6853
74.6487
74.5549
74.4877
74.4398
74.3602
74.3679
74.2944
74.3013
74.2565
74.2277
74.2255
74.1526
74.1727
74.0978
74.058
74.0316
73.9228
73.87
73.7724
73.6557
73.5326
73.3848
73.2302
73.0501
72.8219
72.5804
72.3394
71.9989
71.6087
71.1549
70.6267
69.9838
69.1374
68.0386
66.6196
64.7236
62.249
58.5562
52.9955
45.7109
17.8697
47.4553
47.8116
47.6042
47.8277
46.1468
43.5362
43.2534
41.6067
38.5493
37.6047
36.4602
31.8084
25.0678
18.805
14.736
12.6181
10.495
8.36383
7.91659
10.5324
14.9752
18.7997
22.2143
25.5583
29.7287
35.3272
41.3357
47.1869
52.1841
55.9739
59.3425
62.3159
64.5805
66.4219
67.9852
69.2338
70.2545
71.1178
71.8251
72.3921
72.8519
73.2291
73.5393
73.7944
74.0046
74.1775
74.319
74.4341
74.5273
74.6023
74.6624
74.7101
74.7478
74.7772
74.7999
74.817
74.8295
74.8382
74.8436
74.8465
74.8471
74.8459
74.8431
74.839
74.8338
74.8276
74.8207
74.813
74.8048
74.7961
74.787
74.7774
74.7676
74.7576
74.7472
74.7367
74.726
74.7152
74.7042
74.6931
74.682
74.6707
74.6594
74.6479
74.6365
74.6249
74.6134
74.6017
74.5901
74.5784
74.5667
74.5549
74.5432
74.5314
74.5196
74.5077
74.4959
74.4841
74.4722
74.4603
74.4484
74.4365
74.4246
74.4126
74.4007
74.3887
74.3768
74.3648
74.3528
74.3408
74.3287
74.3167
74.3047
74.2926
74.2805
74.2684
74.2562
74.2441
74.2319
74.2196
74.2074
74.1951
74.1827
74.1703
74.1579
74.1453
74.1327
74.12
74.1072
74.0943
74.0812
74.068
74.0547
74.0411
74.0274
74.0134
73.9993
73.9847
73.9702
73.9552
73.9408
73.9254
73.9123
73.8978
73.8896
73.8795
73.8848
73.8892
73.9246
73.9625
74.0481
74.1381
74.2752
74.4054
74.5499
74.6599
74.7321
74.7607
74.6984
74.6654
74.52
74.478
74.3759
74.3265
74.3037
74.2404
74.2511
74.1756
74.1819
74.1241
74.0962
74.074
74.0027
73.9762
73.9004
73.8039
73.7446
73.6174
73.4721
73.3624
73.1765
72.9813
72.7777
72.5373
72.2669
71.9516
71.5803
71.1478
70.6604
70.0631
69.2962
68.3283
67.1201
65.6313
63.4892
60.7363
56.76
49.8278
42.5417
11.213
47.3607
47.7687
47.5489
47.6954
46.0221
43.0265
42.8413
41.6085
38.0347
36.864
36.7344
32.8706
25.7389
18.9787
15.1792
14.015
12.4565
10.1754
9.53482
12.6233
17.4283
20.8121
23.6579
26.8699
31.1202
36.6241
42.3785
47.7925
52.4873
56.1174
59.3207
62.2211
64.4287
66.1991
67.763
69.0481
70.0731
70.9193
71.618
72.189
72.6595
73.0514
73.3784
73.6506
73.8764
74.0629
74.216
74.3411
74.4429
74.5256
74.5925
74.6465
74.6899
74.7246
74.7521
74.7736
74.7901
74.8024
74.8112
74.8171
74.8205
74.8217
74.8212
74.8191
74.8158
74.8113
74.8059
74.7996
74.7927
74.7851
74.777
74.7685
74.7595
74.7502
74.7406
74.7307
74.7206
74.7102
74.6997
74.6891
74.6783
74.6674
74.6563
74.6452
74.6339
74.6226
74.6113
74.5998
74.5883
74.5768
74.5652
74.5536
74.5419
74.5302
74.5185
74.5067
74.4949
74.4831
74.4713
74.4594
74.4476
74.4357
74.4237
74.4118
74.3998
74.3879
74.3759
74.3639
74.3518
74.3398
74.3277
74.3156
74.3035
74.2913
74.2791
74.2669
74.2546
74.2423
74.23
74.2176
74.2052
74.1927
74.1801
74.1674
74.1547
74.1419
74.1289
74.1159
74.1027
74.0893
74.0757
74.062
74.048
74.0338
74.0192
74.0043
73.9892
73.9735
73.9577
73.941
73.9248
73.907
73.8916
73.8733
73.8622
73.8463
73.8488
73.845
73.8806
73.9107
74.006
74.0948
74.256
74.3935
74.5714
74.6851
74.7834
74.7953
74.7308
74.6661
74.501
74.4331
74.3287
74.2752
74.24
74.2029
74.1738
74.13
74.0993
74.0534
74.0143
73.9905
73.9095
73.8795
73.783
73.6915
73.6096
73.4518
73.3279
73.1667
72.9538
72.749
72.5302
72.232
71.9276
71.5847
71.1703
70.7096
70.1393
69.4608
68.5973
67.5554
66.2661
64.5822
62.1781
59.1243
55.2678
46.6302
39.6162
9.93201
47.2145
47.631
47.4818
47.488
45.8047
42.5338
42.2709
41.6319
37.9159
36.4608
37.1344
33.8903
26.499
19.5633
16.3344
15.7145
14.2949
12.1468
11.661
14.8204
19.4794
22.6346
25.1852
28.3057
32.6211
37.9565
43.337
48.3338
52.7286
56.2468
59.3162
62.0992
64.2784
66.007
67.5289
68.8257
69.8852
70.7445
71.4367
72.0031
72.4788
72.8821
73.2229
73.5095
73.7493
73.9488
74.1134
74.2486
74.3592
74.4496
74.5234
74.5836
74.6327
74.6726
74.7048
74.7306
74.751
74.767
74.7791
74.7879
74.794
74.7978
74.7995
74.7995
74.798
74.7952
74.7913
74.7864
74.7807
74.7742
74.7672
74.7595
74.7514
74.7429
74.7339
74.7247
74.7151
74.7053
74.6953
74.685
74.6746
74.664
74.6533
74.6424
74.6314
74.6204
74.6092
74.5979
74.5866
74.5752
74.5637
74.5522
74.5407
74.5291
74.5174
74.5057
74.494
74.4822
74.4704
74.4586
74.4467
74.4348
74.4229
74.411
74.399
74.387
74.375
74.363
74.3509
74.3388
74.3267
74.3145
74.3023
74.29
74.2778
74.2654
74.253
74.2406
74.2281
74.2156
74.203
74.1903
74.1775
74.1646
74.1516
74.1384
74.1252
74.1117
74.0981
74.0843
74.0703
74.056
74.0414
74.0264
74.0111
73.9954
73.9792
73.9623
73.9452
73.9268
73.9089
73.8886
73.8709
73.8485
73.8345
73.8118
73.8113
73.7972
73.8332
73.8518
73.959
74.0423
74.2348
74.3766
74.599
74.7137
74.847
74.8432
74.7658
74.6881
74.4655
74.4056
74.2656
74.2174
74.1929
74.1357
74.1375
74.0459
74.044
73.9643
73.9409
73.8987
73.8239
73.7792
73.6729
73.5735
73.4708
73.3124
73.1591
72.9722
72.7486
72.5249
72.2476
71.9406
71.5993
71.2164
70.762
70.2221
69.5985
68.8487
67.9421
66.8516
65.4311
63.5798
61.1481
57.3448
54.0948
43.6392
36.8376
11.4056
47.1445
47.4875
47.2861
47.1805
45.5392
42.2154
41.734
41.5173
38.1212
36.4763
37.4507
34.5666
27.3006
20.6541
17.9493
17.4207
15.9616
14.3074
14.3349
17.2231
21.1653
24.0885
26.775
29.9778
34.1309
39.1836
44.147
48.7644
52.9266
56.321
59.3091
61.9869
64.1043
65.8294
67.3416
68.6129
69.6725
70.5583
71.2716
71.8441
72.322
72.7307
73.08
73.377
73.6278
73.838
74.013
74.1576
74.2767
74.3747
74.4553
74.5216
74.5763
74.6212
74.6581
74.6881
74.7125
74.732
74.7473
74.7591
74.7679
74.774
74.778
74.7799
74.7803
74.7791
74.7767
74.7732
74.7688
74.7635
74.7574
74.7507
74.7434
74.7356
74.7273
74.7187
74.7097
74.7004
74.6908
74.681
74.6709
74.6607
74.6503
74.6397
74.6289
74.6181
74.6071
74.596
74.5849
74.5736
74.5623
74.5509
74.5394
74.5279
74.5163
74.5047
74.493
74.4813
74.4695
74.4577
74.4459
74.434
74.4221
74.4102
74.3982
74.3862
74.3741
74.3621
74.35
74.3378
74.3256
74.3134
74.3011
74.2888
74.2764
74.264
74.2515
74.2389
74.2263
74.2136
74.2008
74.1879
74.1748
74.1617
74.1484
74.135
74.1214
74.1076
74.0936
74.0794
74.0649
74.05
74.0348
74.0192
74.0031
73.9864
73.9693
73.9512
73.9328
73.9127
73.8931
73.8702
73.8502
73.8234
73.8064
73.776
73.7725
73.7456
73.7821
73.7842
73.9061
73.9774
74.2106
74.3498
74.6346
74.737
74.9327
74.8844
74.8279
74.6951
74.4469
74.3556
74.1974
74.172
74.1104
74.1203
74.0459
74.0016
73.9686
73.87
73.8779
73.8063
73.7347
73.6898
73.5574
73.4589
73.3386
73.1674
72.9951
72.7839
72.5432
72.2872
71.9826
71.642
71.2811
70.8378
70.3268
69.7604
69.1023
68.3435
67.2936
66.0548
64.5739
62.4026
60.3143
55.507
53.1498
40.9733
34.0847
13.2854
47.185
47.2673
46.9752
46.8124
45.179
42.0186
41.3813
41.2738
38.3488
36.7074
37.2526
34.7981
28.0673
21.9255
19.6301
19.0514
17.8375
16.696
16.9658
19.4965
22.8317
25.4752
28.2842
31.6749
35.5636
40.1953
44.8144
49.1069
53.1082
56.3786
59.2389
61.8638
63.9404
65.6361
67.1635
68.4427
69.4836
70.3657
71.0987
71.6932
72.1845
72.6
72.9542
73.257
73.5151
73.7334
73.9166
74.0692
74.1959
74.301
74.3882
74.4606
74.5207
74.5706
74.6121
74.6463
74.6744
74.6974
74.7159
74.7306
74.742
74.7506
74.7567
74.7607
74.7628
74.7633
74.7624
74.7602
74.757
74.7528
74.7477
74.7419
74.7354
74.7284
74.7208
74.7128
74.7043
74.6955
74.6864
74.677
74.6673
74.6574
74.6473
74.6369
74.6265
74.6158
74.6051
74.5941
74.5831
74.572
74.5608
74.5495
74.5382
74.5267
74.5152
74.5037
74.492
74.4804
74.4686
74.4569
74.4451
74.4332
74.4213
74.4094
74.3974
74.3854
74.3733
74.3612
74.349
74.3368
74.3246
74.3123
74.2999
74.2875
74.2751
74.2625
74.2499
74.2372
74.2244
74.2115
74.1986
74.1855
74.1723
74.1589
74.1454
74.1316
74.1177
74.1036
74.0892
74.0745
74.0595
74.0441
74.0283
74.012
73.9952
73.9776
73.9595
73.9403
73.9206
73.8988
73.8775
73.8519
73.8296
73.7983
73.7783
73.7392
73.7326
73.6899
73.7272
73.7062
73.8459
73.8952
74.1819
74.3073
74.6774
74.7538
75.0347
74.9313
74.8941
74.7105
74.422
74.2961
74.1478
74.0882
74.0739
74.0686
73.9909
73.9593
73.8662
73.8117
73.7925
73.7132
73.6695
73.5835
73.4508
73.3471
73.2094
73.0257
72.8294
72.6027
72.3376
72.0447
71.7159
71.359
70.9236
70.4618
69.9064
69.3173
68.5897
67.7188
66.6503
65.2238
63.911
61.1762
59.655
53.5156
52.0794
38.8666
31.0991
14.1305
47.5615
47.4041
46.6052
46.2036
44.6989
41.883
41.1745
40.9827
38.5152
37.0311
37.1324
34.7641
28.891
23.6686
21.5594
20.8614
19.8739
19.1052
19.3542
21.3762
24.3998
27.0184
29.7536
33.1352
36.8507
41.0403
45.35
49.4207
53.2687
56.4529
59.1543
61.6837
63.7665
65.451
66.9609
68.255
69.3126
70.1981
70.934
71.5392
72.0463
72.4758
72.8394
73.1483
73.4119
73.6361
73.8253
73.9844
74.1177
74.2292
74.3225
74.4006
74.466
74.5209
74.5668
74.6051
74.637
74.6633
74.685
74.7025
74.7165
74.7275
74.7357
74.7416
74.7455
74.7477
74.7482
74.7474
74.7453
74.7422
74.7381
74.7332
74.7276
74.7213
74.7144
74.7069
74.699
74.6907
74.6821
74.673
74.6637
74.6541
74.6443
74.6343
74.624
74.6136
74.603
74.5923
74.5814
74.5705
74.5594
74.5482
74.5369
74.5256
74.5142
74.5027
74.4911
74.4795
74.4678
74.456
74.4442
74.4324
74.4205
74.4086
74.3966
74.3845
74.3724
74.3603
74.3481
74.3359
74.3236
74.3112
74.2988
74.2863
74.2737
74.2611
74.2483
74.2355
74.2226
74.2096
74.1964
74.1831
74.1697
74.1561
74.1423
74.1283
74.1141
74.0996
74.0848
74.0697
74.0542
74.0383
74.0219
74.0049
73.9874
73.9689
73.9499
73.9294
73.9085
73.8851
73.8621
73.8339
73.8094
73.7732
73.7504
73.7018
73.6918
73.6304
73.6677
73.6161
73.7751
73.7904
74.1406
74.2379
74.7156
74.7425
75.139
74.9505
74.991
74.7091
74.3999
74.2069
74.095
73.9873
74.0287
74.0242
73.9453
73.8908
73.8
73.7257
73.7033
73.6536
73.5788
73.4883
73.3575
73.2297
73.0792
72.8967
72.6729
72.4153
72.1296
71.8204
71.4527
71.0479
70.5921
70.0861
69.5143
68.8079
68.1135
67.0525
66.0441
64.277
63.4016
59.6125
59.1044
51.5777
50.5499
37.2448
27.7696
13.8987
47.872
47.5702
46.3381
45.6033
44.1822
41.8144
41.0698
40.6885
38.6477
37.3994
37.0803
34.7241
29.8567
25.6141
23.6535
22.7289
21.785
21.3435
21.7193
23.2033
25.7138
28.3787
31.1703
34.3804
37.9312
41.8319
45.8103
49.6978
53.3907
56.4617
59.0794
61.5215
63.574
65.2702
66.7725
68.044
69.1057
70.0221
70.7834
71.3969
71.9077
72.346
72.7214
73.0411
73.3132
73.5439
73.7388
73.9032
74.0421
74.1594
74.2584
74.3419
74.4125
74.472
74.5223
74.5646
74.6001
74.6299
74.6545
74.6749
74.6914
74.7047
74.715
74.7229
74.7285
74.7322
74.7342
74.7347
74.7338
74.7318
74.7287
74.7247
74.7198
74.7142
74.708
74.7012
74.6938
74.686
74.6778
74.6691
74.6602
74.6509
74.6414
74.6316
74.6216
74.6114
74.601
74.5905
74.5798
74.5689
74.558
74.5469
74.5357
74.5245
74.5131
74.5017
74.4902
74.4786
74.4669
74.4552
74.4434
74.4316
74.4197
74.4078
74.3958
74.3837
74.3716
74.3594
74.3472
74.3349
74.3225
74.3101
74.2976
74.2851
74.2724
74.2596
74.2468
74.2339
74.2208
74.2076
74.1943
74.1808
74.1671
74.1533
74.1393
74.125
74.1104
74.0956
74.0805
74.0649
74.049
74.0325
74.0156
73.998
73.9797
73.9604
73.9404
73.9188
73.8967
73.8716
73.847
73.8162
73.7896
73.7485
73.7229
73.664
73.6506
73.5673
73.6039
73.5121
73.691
73.6551
74.0816
74.1274
74.7399
74.685
75.2264
74.9288
75.0425
74.721
74.3463
74.1237
74.0319
73.8472
73.9931
73.9374
73.9171
73.819
73.7212
73.6212
73.6462
73.5578
73.5035
73.4027
73.2575
73.089
72.9831
72.7589
72.5056
72.2302
71.9427
71.5607
71.2054
70.7337
70.2707
69.6515
69.126
68.2542
67.7044
66.2469
65.7219
63.1351
63.0466
57.9215
58.2411
49.7208
48.4783
35.8332
24.1496
13.3406
48.1001
47.7062
46.1991
45.0907
43.6988
41.8134
41.0665
40.4385
38.7284
37.7543
37.2549
34.8438
30.872
27.5007
25.6687
24.4735
23.5375
23.3358
23.8598
25.12
27.1298
29.5553
32.4294
35.5502
38.8204
42.5184
46.2712
49.9543
53.5178
56.4319
58.9528
61.401
63.4407
65.1025
66.6068
67.8713
68.9016
69.8139
70.6057
71.2487
71.7728
72.2165
72.598
72.927
73.21
73.4506
73.6534
73.8242
73.9688
74.0916
74.1959
74.2846
74.3601
74.4242
74.4787
74.5249
74.564
74.597
74.6247
74.6477
74.6668
74.6823
74.6947
74.7045
74.7118
74.7171
74.7205
74.7222
74.7225
74.7215
74.7194
74.7162
74.7122
74.7073
74.7017
74.6955
74.6887
74.6813
74.6735
74.6653
74.6567
74.6478
74.6385
74.629
74.6192
74.6092
74.599
74.5886
74.5781
74.5674
74.5566
74.5456
74.5345
74.5234
74.5121
74.5007
74.4892
74.4777
74.4661
74.4544
74.4426
74.4308
74.4189
74.407
74.395
74.3829
74.3708
74.3586
74.3463
74.334
74.3215
74.3091
74.2965
74.2838
74.2711
74.2582
74.2453
74.2322
74.219
74.2057
74.1922
74.1785
74.1646
74.1506
74.1363
74.1217
74.1069
74.0917
74.0762
74.0602
74.0438
74.0269
74.0094
73.9911
73.9721
73.952
73.9311
73.9084
73.8851
73.8584
73.8323
73.7988
73.7703
73.7243
73.6961
73.6264
73.6095
73.5016
73.5354
73.3942
73.5895
73.4831
73.9904
73.9662
74.7278
74.5731
75.26
74.8502
75.0333
74.7037
74.3791
73.9966
74.0029
73.673
73.9558
73.8274
73.8918
73.711
73.671
73.4881
73.5833
73.4579
73.4691
73.2796
73.165
72.9592
72.8994
72.5817
72.3842
72.0053
71.7589
71.2765
70.9899
70.3533
70.0028
69.1475
68.8333
67.5355
67.3845
65.1999
65.2536
61.858
62.3331
56.1888
57.0922
48.1131
45.1063
34.4018
21.8878
13.5068
48.2505
47.8025
46.1478
44.7342
43.3093
41.8122
41.0843
40.2776
38.8183
38.08
37.5
35.1425
31.8131
29.1621
27.4752
26.0997
25.2372
25.1734
25.6107
26.7253
28.6219
30.8182
33.5371
36.6586
39.7058
43.0818
46.6668
50.1822
53.6149
56.4361
58.8264
61.2469
63.3333
64.9703
66.4413
67.72
68.7524
69.6418
70.4194
71.0699
71.6146
72.0778
72.4716
72.8091
73.1013
73.3523
73.5651
73.7445
73.8962
74.0251
74.1349
74.2287
74.3089
74.3774
74.436
74.486
74.5286
74.5648
74.5954
74.6211
74.6426
74.6603
74.6748
74.6864
74.6954
74.7022
74.707
74.71
74.7114
74.7115
74.7103
74.708
74.7047
74.7005
74.6956
74.6899
74.6836
74.6767
74.6693
74.6615
74.6533
74.6446
74.6357
74.6264
74.6169
74.6071
74.5971
74.5869
74.5765
74.5659
74.5552
74.5443
74.5334
74.5223
74.511
74.4997
74.4883
74.4768
74.4652
74.4536
74.4418
74.43
74.4182
74.4062
74.3942
74.3821
74.3699
74.3577
74.3454
74.333
74.3206
74.308
74.2954
74.2826
74.2698
74.2568
74.2438
74.2306
74.2172
74.2037
74.1901
74.1762
74.1622
74.1479
74.1333
74.1185
74.1034
74.0879
74.072
74.0556
74.0388
74.0213
74.0033
73.9844
73.9647
73.9438
73.9221
73.8983
73.8739
73.8456
73.8181
73.7821
73.7517
73.7009
73.6703
73.5899
73.5691
73.4348
73.4627
73.2632
73.4677
73.2682
73.8598
73.7441
74.6804
74.4221
75.2431
74.7498
74.9285
74.5988
74.1684
73.7745
73.8612
73.4459
73.9025
73.635
73.8481
73.5317
73.6055
73.2769
73.5721
73.2915
73.4167
73.1381
73.1284
72.7404
72.8445
72.3777
72.2774
71.723
71.6066
70.901
70.7963
69.8923
69.7167
68.5065
68.5622
66.7492
67.0053
64.1691
64.5717
60.4845
61.389
54.52
54.9666
46.9324
40.7252
32.8205
21.1541
14.5139
48.3465
47.8709
46.1487
44.5072
42.9749
41.7387
41.1114
40.232
38.902
38.3323
37.7871
35.5678
32.6648
30.5991
29.1101
27.654
26.8022
26.853
27.2752
28.1336
29.8617
32.0373
34.5939
37.5783
40.527
43.6162
46.9624
50.3594
53.6495
56.3827
58.7173
61.0803
63.1616
64.8047
66.2608
67.5414
68.5967
69.507
70.2828
70.9132
71.4482
71.922
72.3338
72.6866
72.9907
73.2524
73.4751
73.6637
73.8234
73.9592
74.075
74.174
74.2589
74.3318
74.3944
74.4481
74.494
74.5333
74.5668
74.5951
74.619
74.6389
74.6553
74.6687
74.6793
74.6876
74.6937
74.698
74.7005
74.7016
74.7013
74.6999
74.6973
74.6938
74.6895
74.6844
74.6786
74.6722
74.6653
74.6578
74.6499
74.6416
74.6329
74.6239
74.6146
74.605
74.5952
74.5851
74.5749
74.5644
74.5538
74.5431
74.5322
74.5212
74.51
74.4988
74.4874
74.476
74.4644
74.4528
74.4411
74.4293
74.4174
74.4054
74.3934
74.3813
74.3691
74.3569
74.3445
74.3321
74.3196
74.307
74.2943
74.2815
74.2685
74.2555
74.2423
74.229
74.2155
74.2019
74.188
74.174
74.1597
74.1452
74.1304
74.1153
74.0999
74.0841
74.0678
74.0511
74.0338
74.0159
73.9973
73.9778
73.9575
73.9358
73.9132
73.8885
73.863
73.8333
73.8043
73.766
73.7339
73.6785
73.6457
73.5551
73.5305
73.3697
73.3887
73.1254
73.3242
73.0197
73.6763
73.4922
74.5901
74.3538
75.2248
74.7808
74.8053
74.3367
73.9084
73.4009
73.5989
73.1653
73.7546
73.3375
73.7546
73.2174
73.4392
72.9864
73.4763
72.9711
73.3726
72.8655
73.0354
72.4758
72.8031
72.0776
72.1698
71.384
71.4694
70.5013
70.5437
69.3048
69.35
67.7941
68.0616
65.7358
66.323
62.7618
63.7272
59.1774
59.995
53.7672
51.502
45.462
37.8264
31.9774
21.7751
15.8502
48.4038
47.9
46.1405
44.4017
42.7828
41.6323
41.1023
40.2578
39.0062
38.5495
38.1256
36.053
33.4592
31.8249
30.6043
29.2038
28.1888
28.1495
28.8043
29.7313
31.1044
33.0397
35.5704
38.4039
41.1506
44.0799
47.2258
50.4731
53.6854
56.3075
58.5587
60.9225
62.9913
64.5899
66.0427
67.3495
68.4145
69.3385
70.1442
70.7906
71.3204
71.7887
72.2039
72.5659
72.881
73.154
73.3871
73.5847
73.7521
73.8946
74.0163
74.1205
74.2102
74.2873
74.3538
74.4111
74.4603
74.5026
74.5388
74.5697
74.5959
74.6179
74.6362
74.6514
74.6636
74.6733
74.6808
74.6862
74.6899
74.6919
74.6926
74.6919
74.6901
74.6873
74.6836
74.679
74.6737
74.6678
74.6612
74.6542
74.6466
74.6386
74.6302
74.6214
74.6123
74.6029
74.5933
74.5834
74.5733
74.563
74.5525
74.5419
74.5311
74.5201
74.5091
74.4979
74.4865
74.4751
74.4636
74.452
74.4403
74.4285
74.4167
74.4047
74.3927
74.3805
74.3683
74.356
74.3437
74.3312
74.3186
74.306
74.2932
74.2803
74.2673
74.2541
74.2408
74.2274
74.2138
74.2
74.186
74.1718
74.1573
74.1426
74.1276
74.1122
74.0965
74.0804
74.0638
74.0467
74.029
74.0106
73.9915
73.9714
73.9504
73.9281
73.9047
73.879
73.8524
73.8213
73.7911
73.7506
73.7169
73.6575
73.6228
73.5231
73.4946
73.3097
73.3167
72.9905
73.167
72.7568
73.4509
73.248
74.5014
74.4215
75.2377
74.8462
74.4714
73.8551
73.3867
72.8367
73.2997
72.8616
73.4992
72.9537
73.5582
72.808
73.1676
72.5918
73.2611
72.5629
73.1398
72.3468
72.8619
72.0833
72.6785
71.5305
71.9282
70.8351
71.3096
69.869
70.2222
68.6003
68.8893
66.967
67.3992
64.7507
65.4496
61.8135
62.5164
58.5277
57.3759
52.8305
48.2609
43.6844
36.3026
32.0705
23.2279
17.2558
48.4243
47.9345
46.1435
44.3511
42.6899
41.5369
41.0941
40.3485
39.1609
38.7403
38.4289
36.6148
34.2709
32.819
31.7961
30.589
29.5973
29.4449
30.0841
31.1113
32.3866
33.9959
36.3698
39.2057
41.7569
44.4476
47.4694
50.5431
53.6706
56.2933
58.4293
60.7198
62.8344
64.4235
65.8316
67.1552
68.2495
69.1729
69.9808
70.6465
71.1981
71.6822
72.1058
72.4707
72.7879
73.0651
73.3048
73.5095
73.6838
73.8325
73.9596
74.0688
74.1628
74.2441
74.3143
74.3751
74.4275
74.4728
74.5116
74.545
74.5734
74.5974
74.6177
74.6345
74.6483
74.6594
74.6682
74.6748
74.6795
74.6825
74.684
74.6842
74.6831
74.6809
74.6778
74.6738
74.669
74.6635
74.6573
74.6506
74.6434
74.6356
74.6275
74.619
74.6101
74.6009
74.5915
74.5817
74.5718
74.5616
74.5512
74.5407
74.53
74.5191
74.5081
74.4969
74.4857
74.4743
74.4628
74.4512
74.4396
74.4278
74.4159
74.404
74.3919
74.3798
74.3676
74.3552
74.3428
74.3303
74.3177
74.305
74.2921
74.2792
74.2661
74.2528
74.2394
74.2259
74.2121
74.1982
74.184
74.1696
74.155
74.1401
74.1248
74.1092
74.0932
74.0768
74.0598
74.0424
74.0242
74.0054
73.9858
73.9652
73.9436
73.9206
73.8964
73.8698
73.8423
73.8099
73.7785
73.736
73.7009
73.6381
73.6015
73.4946
73.4627
73.2586
73.2517
72.873
73.0092
72.5151
73.1968
73.0449
74.3876
74.5234
75.1394
74.607
73.729
72.7944
72.554
72.2317
72.9604
72.5805
73.2927
72.6
73.244
72.4259
72.8316
72.1595
72.8245
72.0608
72.7448
71.7215
72.4235
71.6191
72.2416
70.7099
71.3423
69.9799
70.7747
69.0916
69.5212
67.4649
68.1661
66.1156
66.4965
63.8982
64.3579
61.4542
60.734
57.6961
54.8971
51.1452
46.1982
42.7782
35.9981
32.9228
24.9435
18.5972
48.453
47.9525
46.1389
44.3221
42.6642
41.5001
41.0752
40.4567
39.3416
38.9142
38.7382
37.1764
35.0142
33.7357
32.927
31.8213
30.8859
30.7927
31.3337
32.178
33.4332
35.0189
37.1414
39.8457
42.3704
44.809
47.6182
50.5914
53.6018
56.2322
58.3707
60.5435
62.6189
64.2578
65.6824
66.9941
68.0925
69.0322
69.8497
70.5156
71.0679
71.5634
72.0069
72.3883
72.7137
72.9938
73.2351
73.4422
73.6201
73.7732
73.9051
74.0188
74.1171
74.2022
74.2761
74.3402
74.3957
74.4437
74.4852
74.5209
74.5515
74.5775
74.5996
74.6181
74.6334
74.6459
74.6559
74.6636
74.6694
74.6733
74.6757
74.6766
74.6762
74.6747
74.6722
74.6687
74.6643
74.6593
74.6535
74.6471
74.6402
74.6328
74.6249
74.6166
74.608
74.599
74.5897
74.5801
74.5703
74.5602
74.55
74.5395
74.5289
74.5181
74.5071
74.4961
74.4848
74.4735
74.4621
74.4505
74.4388
74.4271
74.4152
74.4033
74.3912
74.379
74.3668
74.3544
74.342
74.3294
74.3168
74.304
74.2911
74.278
74.2649
74.2515
74.238
74.2244
74.2105
74.1964
74.1821
74.1675
74.1527
74.1376
74.1221
74.1062
74.09
74.0732
74.056
74.0381
74.0196
74.0004
73.9803
73.9592
73.937
73.9133
73.8884
73.8609
73.8326
73.7991
73.7665
73.7224
73.6858
73.6204
73.5822
73.4704
73.4357
73.2197
73.1993
72.7862
72.8683
72.3144
72.9238
72.8166
74.1878
74.4356
74.7474
73.8726
72.5599
71.5418
71.7536
71.712
72.7636
72.4641
73.1012
72.3829
72.6799
71.9353
72.3745
71.6841
72.2503
71.5466
72.3526
71.2386
71.9092
71.1876
71.5403
69.9394
70.7016
69.2519
69.9244
68.2942
68.5043
66.2093
67.0801
65.1548
65.1529
62.549
62.7209
60.0756
58.5093
55.5933
52.6071
49.2676
45.0739
42.731
36.7783
34.2658
26.6533
19.8596
48.4696
47.9772
46.1417
44.313
42.699
41.4986
41.0513
40.5949
39.5682
39.1026
39.0279
37.7279
35.7745
34.6062
33.9624
33.0612
32.0791
31.8092
32.4345
33.3742
34.4483
35.8983
37.9075
40.3673
42.7979
45.1723
47.7511
50.5773
53.5466
56.1089
58.2149
60.3909
62.4345
64.0418
65.5006
66.8611
67.956
68.8795
69.7157
70.4111
70.9729
71.4632
71.9045
72.2926
72.6298
72.9211
73.1699
73.3815
73.5624
73.7184
73.8535
73.9709
74.073
74.1618
74.2391
74.3064
74.3649
74.4156
74.4596
74.4976
74.5303
74.5583
74.5821
74.6021
74.6189
74.6327
74.6439
74.6528
74.6595
74.6644
74.6676
74.6693
74.6696
74.6687
74.6667
74.6637
74.6598
74.6552
74.6498
74.6438
74.6371
74.63
74.6224
74.6143
74.6059
74.5971
74.5879
74.5785
74.5688
74.5589
74.5487
74.5384
74.5278
74.5171
74.5062