/*--------------------------------*- C++ -*----------------------------------*\
| =========                 |                                                 |
| \\      /  F ield         | OpenFOAM: The Open Source CFD Toolbox           |
|  \\    /   O peration     | Version:  2.4.0                                 |
|   \\  /    A nd           | Web:      www.OpenFOAM.org                      |
|    \\/     M anipulation  |                                                 |
\*---------------------------------------------------------------------------*/
FoamFile
{
    version     2.0;
    format      ascii;
    class       volScalarField;
    location    "0.189";
    object      k_0;
}
// * * * * * * * * * * * * * * * * * * * * * * * * * * * * * * * * * * * * * //

dimensions      [0 2 -2 0 0 0 0];

internalField   nonuniform List<scalar> 
17600
(
9.28586
7.41467
5.11415
3.9384
3.34109
2.94707
2.70084
2.46476
2.34895
2.18071
2.14468
2.02627
1.99102
1.94855
1.90146
1.89635
1.96138
1.97548
2.39255
2.28096
4.5029
6.21446
5.83381
5.04861
4.42051
3.91768
3.61821
3.29027
3.14624
2.91059
2.84929
2.69066
2.62896
2.57374
2.4725
2.43851
2.46225
2.36779
2.51846
2.57876
1.31615
3.29758
3.98572
3.9541
3.7763
3.44323
3.25148
2.98143
2.8802
2.67407
2.61457
2.48596
2.41005
2.3731
2.27415
2.2224
2.2246
2.12912
2.07894
2.0817
0.206537
1.2068
1.91556
2.31297
2.52284
2.50401
2.48318
2.37526
2.33415
2.21605
2.17101
2.10067
2.02303
2.00736
1.94552
1.88795
1.88035
1.82543
1.69844
1.62914
0.0259087
0.282219
0.640902
0.941282
1.26181
1.40684
1.56161
1.58124
1.63414
1.61752
1.60469
1.60349
1.56245
1.56124
1.54123
1.50074
1.49017
1.45873
1.3575
1.24399
0.00273234
0.0465605
0.153645
0.243807
0.432895
0.551232
0.718617
0.794909
0.913521
0.967755
0.987659
1.05367
1.05215
1.0698
1.08069
1.07567
1.06988
1.05212
0.997577
0.87058
0.000276425
0.00669682
0.0263615
0.0457725
0.0979315
0.140193
0.223527
0.274373
0.357959
0.42975
0.455171
0.530939
0.556829
0.590864
0.628798
0.648598
0.653413
0.647681
0.621543
0.51483
4.75622e-05
0.000948999
0.00380944
0.00665796
0.0145804
0.0253418
0.0430631
0.0634935
0.0914492
0.131323
0.14512
0.182781
0.213229
0.228052
0.269874
0.289807
0.298409
0.310679
0.294272
0.224177
2.79632e-05
0.000174828
0.000663971
0.000953553
0.00167907
0.00343874
0.00560608
0.0103906
0.014948
0.0262053
0.0306383
0.041434
0.0552368
0.059406
0.0787637
0.0853537
0.0931615
0.103034
0.0949749
0.0698226
2.5082e-05
5.96087e-05
0.000214125
0.000230777
0.000284601
0.000420862
0.000671446
0.00135185
0.00200865
0.00387114
0.00455048
0.00662721
0.00915653
0.0101132
0.0152382
0.0165866
0.0201065
0.02254
0.0204201
0.0150299
2.32942e-05
3.73178e-05
0.000112245
0.000116932
0.00012892
0.000130621
0.000147604
0.000207504
0.000322474
0.000678926
0.000772888
0.000961681
0.00126031
0.00128213
0.00169294
0.00238178
0.00291107
0.00320466
0.00306031
0.00264821
2.26731e-05
3.19284e-05
7.32515e-05
9.05047e-05
9.06216e-05
8.04019e-05
8.03522e-05
8.58159e-05
0.000104167
0.000207398
0.000236968
0.000243576
0.000313076
0.000289788
0.00034775
0.000426894
0.000438081
0.000557903
0.000686251
0.000634922
2.2405e-05
2.92495e-05
5.11316e-05
6.89463e-05
6.89935e-05
6.81009e-05
7.11248e-05
6.92758e-05
7.00238e-05
9.00673e-05
9.89126e-05
0.000148379
0.000168873
0.000153664
0.000184019
0.000162014
0.000153868
0.000250313
0.000293338
0.000270463
2.16731e-05
2.76733e-05
3.64528e-05
5.41034e-05
6.27025e-05
6.48043e-05
6.46543e-05
5.69883e-05
5.75172e-05
6.17783e-05
6.81314e-05
0.000126505
0.000128422
0.000141941
0.000141519
0.000116142
0.0001156
0.000149913
0.000157914
0.000174504
2.11664e-05
2.67255e-05
3.33106e-05
4.99423e-05
5.54794e-05
5.64343e-05
5.32118e-05
4.89155e-05
5.10009e-05
5.32587e-05
6.71163e-05
7.54879e-05
7.7675e-05
9.23286e-05
8.8529e-05
8.51122e-05
9.90718e-05
9.5179e-05
9.68217e-05
0.000155846
2.09623e-05
2.5704e-05
3.65288e-05
4.23337e-05
4.2825e-05
4.74567e-05
4.80946e-05
4.99582e-05
4.94715e-05
4.94188e-05
5.52759e-05
5.78606e-05
7.25086e-05
7.56599e-05
7.71823e-05
8.78759e-05
8.65144e-05
7.92138e-05
8.56317e-05
0.000151599
2.09158e-05
2.49848e-05
3.54603e-05
3.68372e-05
3.90506e-05
4.68072e-05
4.74257e-05
4.73862e-05
4.63405e-05
4.9606e-05
4.95891e-05
5.03643e-05
6.21711e-05
6.27985e-05
6.56824e-05
7.71352e-05
7.21044e-05
7.28542e-05
9.08647e-05
0.000110557
2.07431e-05
2.44898e-05
3.2775e-05
3.60747e-05
4.07125e-05
4.27525e-05
4.35874e-05
4.34927e-05
4.34492e-05
5.02823e-05
5.06494e-05
5.35997e-05
5.41042e-05
5.5327e-05
6.56735e-05
6.50988e-05
6.3489e-05
7.23402e-05
7.57951e-05
7.561e-05
2.06734e-05
2.42929e-05
3.23924e-05
3.56343e-05
3.68794e-05
4.0853e-05
4.28615e-05
4.23966e-05
4.41405e-05
4.41626e-05
4.48563e-05
4.60096e-05
4.84453e-05
5.50765e-05
5.84851e-05
5.8133e-05
6.14732e-05
6.24848e-05
6.15276e-05
6.43377e-05
2.06376e-05
2.45142e-05
3.05606e-05
3.43757e-05
3.8237e-05
4.08163e-05
4.16605e-05
4.142e-05
4.05723e-05
4.25379e-05
4.44859e-05
4.65181e-05
4.90193e-05
5.10808e-05
5.25411e-05
5.64558e-05
5.85848e-05
5.61142e-05
5.62001e-05
5.9881e-05
2.06305e-05
2.42318e-05
3.13552e-05
3.67633e-05
3.80825e-05
3.82776e-05
3.82433e-05
3.85254e-05
4.11079e-05
4.34894e-05
4.36571e-05
4.33846e-05
4.45064e-05
4.58677e-05
4.81468e-05
5.40045e-05
5.35171e-05
5.15883e-05
5.25022e-05
5.99087e-05
2.06949e-05
2.47057e-05
3.36322e-05
3.56314e-05
3.53049e-05
3.6054e-05
4.0624e-05
4.31846e-05
4.28751e-05
4.19861e-05
4.15705e-05
4.12244e-05
4.20883e-05
4.6699e-05
4.98773e-05
5.00443e-05
4.99944e-05
5.00873e-05
5.12022e-05
7.09208e-05
2.07059e-05
2.6226e-05
3.13952e-05
3.42672e-05
3.63821e-05
4.17078e-05
4.44565e-05
4.50521e-05
4.29293e-05
4.40312e-05
4.37767e-05
4.41197e-05
4.91015e-05
4.9728e-05
4.92831e-05
4.95464e-05
5.00338e-05
5.13649e-05
5.26961e-05
5.76681e-05
2.08656e-05
2.50832e-05
3.24185e-05
3.79905e-05
4.19715e-05
4.43557e-05
4.53926e-05
4.45248e-05
4.41898e-05
4.78128e-05
4.8044e-05
4.90308e-05
5.07126e-05
4.96289e-05
4.95453e-05
5.11607e-05
5.40565e-05
5.56808e-05
5.79554e-05
6.4546e-05
2.0997e-05
2.56036e-05
3.59045e-05
4.22316e-05
4.28839e-05
4.45934e-05
4.60102e-05
4.77024e-05
5.26692e-05
5.35222e-05
5.20705e-05
5.22342e-05
5.13919e-05
5.1251e-05
5.40042e-05
6.22737e-05
6.48557e-05
6.6014e-05
6.80031e-05
7.38897e-05
2.1357e-05
2.69049e-05
3.9875e-05
4.17451e-05
4.30577e-05
4.89674e-05
5.36499e-05
5.91809e-05
5.91938e-05
5.71065e-05
5.64602e-05
5.60704e-05
5.58014e-05
5.94423e-05
7.34108e-05
7.87291e-05
7.94737e-05
8.03822e-05
8.25741e-05
9.54591e-05
2.15997e-05
2.98156e-05
3.95418e-05
4.13352e-05
4.83155e-05
5.74718e-05
6.55096e-05
6.89963e-05
6.58548e-05
6.44195e-05
6.46426e-05
6.4261e-05
6.70835e-05
8.39683e-05
9.92811e-05
0.000101867
0.000104804
0.000111044
0.000127304
0.000193621
2.1861e-05
3.17738e-05
3.74862e-05
4.40542e-05
6.24905e-05
7.51222e-05
8.24795e-05
8.22864e-05
7.49804e-05
7.48495e-05
7.57439e-05
8.0573e-05
0.000103943
0.000140882
0.00015048
0.000162899
0.000189849
0.000255865
0.000399307
0.000834961
2.39328e-05
3.0688e-05
4.10231e-05
5.95608e-05
9.67316e-05
0.000101319
0.000107
0.000101781
9.89196e-05
0.000109764
0.000128383
0.000173618
0.000263452
0.000366154
0.000422384
0.000548931
0.000820093
0.00148938
0.00244941
0.00535606
2.40426e-05
3.29632e-05
5.79486e-05
0.000113677
0.000158067
0.000160742
0.000192189
0.000218211
0.000252813
0.000438046
0.000593828
0.000911588
0.00131592
0.00210384
0.00260176
0.00386119
0.00568115
0.0101357
0.0146411
0.0283581
2.46343e-05
4.81453e-05
0.00013625
0.00029502
0.000363182
0.000457714
0.000879615
0.00138087
0.00178555
0.00347577
0.00472179
0.00676694
0.00946602
0.0147437
0.0176934
0.0251066
0.0330348
0.0516876
0.066303
0.111196
2.87939e-05
0.000145959
0.000521858
0.00127513
0.00187287
0.00298362
0.00690115
0.0113869
0.0144492
0.024824
0.0331577
0.0413985
0.0561076
0.0773186
0.0876826
0.112316
0.134878
0.183387
0.214799
0.303583
5.09662e-05
0.000874268
0.00306465
0.00842409
0.0139177
0.0226968
0.0486875
0.0697981
0.0846857
0.126845
0.156105
0.177654
0.223333
0.268565
0.290245
0.337718
0.381835
0.452596
0.494658
0.595929
0.000282558
0.00622077
0.022567
0.0547752
0.0900916
0.13468
0.235575
0.285012
0.336055
0.433313
0.479921
0.516356
0.587237
0.634379
0.659245
0.710614
0.758604
0.817108
0.853847
0.931938
0.00273303
0.0426255
0.14707
0.269428
0.412975
0.554002
0.728474
0.802525
0.894495
0.978309
1.0162
1.03718
1.08693
1.10199
1.11714
1.13945
1.17242
1.19638
1.22444
1.25424
0.0258818
0.257716
0.655686
0.963089
1.24349
1.41917
1.56189
1.5863
1.62968
1.62681
1.6211
1.59704
1.59559
1.57412
1.56907
1.55343
1.55814
1.55145
1.5511
1.53986
0.206567
1.19018
1.93963
2.31988
2.51818
2.51138
2.48016
2.38554
2.33165
2.21814
2.17595
2.09009
2.0566
1.98618
1.96575
1.90873
1.89106
1.84436
1.81251
1.76208
1.31656
3.28611
4.00682
3.9577
3.77487
3.45401
3.22775
3.00246
2.86929
2.67622
2.60985
2.47781
2.41753
2.31282
2.27615
2.17594
2.131
2.0293
1.96251
1.85569
4.50121
6.21274
5.8513
5.03406
4.43344
3.92483
3.59394
3.30481
3.13452
2.905
2.82791
2.67525
2.59841
2.46702
2.41554
2.27603
2.19796
2.0375
1.9326
1.7464
9.28499
7.41603
5.13144
3.91805
3.34906
2.94985
2.68945
2.45983
2.33957
2.17032
2.10479
1.99264
1.9303
1.8083
1.75273
1.61815
1.51709
1.33635
1.20398
0.992952
1.9223
1.5136
1.14984
0.889288
0.718341
0.610352
0.479616
0.475759
0.475533
0.765334
0.628899
0.39457
0.347181
0.360713
0.221632
0.128527
0.110724
0.101582
0.102404
0.100146
0.102208
0.119794
0.144271
0.186804
0.195789
0.188318
0.188282
0.197218
0.197218
0.176738
0.103456
0.0488766
0.0222783
0.0102377
0.00530892
0.00306997
0.00211017
0.00176047
0.00157431
0.00157359
0.0017297
0.00223354
0.00357601
0.00767679
0.020499
0.0628032
0.107447
0.122824
0.12343
0.117344
0.102705
0.0912524
0.079277
0.0657805
0.0554111
0.0486781
0.0451536
0.044723
0.0455091
0.048272
0.0595788
0.0754287
0.0794161
0.0782593
0.0698708
0.058693
0.0485886
0.035555
0.0233336
0.0173104
0.0139775
0.0117082
0.0111352
0.012378
0.0141693
0.0145112
0.014623
0.0146134
0.0158938
0.0224153
0.0263082
0.02985
0.0421047
0.0506034
0.0508256
0.0506192
0.0512299
0.0531755
0.0543318
0.0562483
0.0578024
0.0577815
0.0560448
0.0507287
0.0418176
0.0370597
0.0358564
0.0343027
0.0322188
0.0319753
0.0336659
0.0426741
0.0475161
0.0485786
0.0492528
0.0513345
0.0679016
0.0895866
0.0967679
0.0969907
0.0902042
0.0658703
0.0467825
0.0357184
0.0302112
0.0273098
0.0250883
0.0219393
0.0189839
0.0177281
0.0177974
0.021029
0.0263619
0.0271032
0.0270909
0.0298637
0.0473214
0.0576986
0.0561838
0.046532
0.0446517
0.0491708
0.0713989
0.115201
0.132986
0.127921
0.0922361
0.0581195
0.0383024
0.0264523
0.0223564
0.0220779
0.0229457
0.0286501
0.0354807
0.0361027
0.0303952
0.0255222
0.0245417
0.0264034
0.0283305
0.0282067
0.0268638
0.0260797
0.0267208
0.0316352
0.0347064
0.0362624
0.0422731
0.0464641
0.0549849
0.0580735
0.0582791
0.0560769
0.0442536
0.0357659
0.026235
0.0221832
0.0181409
0.0148887
0.0127673
0.0114923
0.0114843
0.012342
0.0154472
0.0235627
0.0384766
0.0483913
0.0525632
0.0533759
0.0535587
0.055524
0.0568678
0.0568256
0.0560762
0.0541767
0.0501881
0.048792
0.0491111
0.0559066
0.0651474
0.0679988
0.0675897
0.0637708
0.0638346
0.067118
0.0760093
0.11248
0.210212
1.77476
2.10733
1.58105
1.15848
0.890932
0.687778
0.594534
0.419075
0.410865
0.401663
0.620074
0.72557
0.454342
0.384779
0.396036
0.228982
0.139713
0.123565
0.115466
0.115674
0.115407
0.12039
0.136697
0.1834
0.207312
0.198561
0.188373
0.195788
0.199409
0.190492
0.142332
0.0693946
0.0313503
0.0133512
0.00644643
0.0037097
0.00235126
0.00180125
0.00159711
0.00151218
0.00156339
0.00188651
0.0028191
0.00526889
0.0124824
0.0354892
0.0934546
0.12553
0.131723
0.127136
0.109629
0.0972763
0.0896666
0.0781076
0.0644647
0.0531745
0.0462434
0.0429954
0.0425167
0.0429683
0.0449587
0.0526152
0.0703635
0.0773583
0.0774414
0.0725053
0.0616292
0.0516772
0.0381585
0.0248838
0.0188044
0.0148906
0.0118946
0.0111101
0.0123728
0.0142847
0.0147243
0.0147863
0.0146122
0.0156482
0.0216491
0.0255801
0.0294065
0.0425313
0.0509492
0.0509287
0.0498349
0.0500507
0.0512278
0.0519444
0.0536717
0.0561166
0.0569935
0.0564067
0.0519925
0.0425364
0.0388453
0.0375937
0.0348243
0.032661
0.032619
0.0355722
0.0454296
0.0490296
0.0496923
0.0504583
0.0535919
0.074641
0.0950314
0.100436
0.0997429
0.0889252
0.0627987
0.0440959
0.033967
0.029492
0.0265462
0.024089
0.02101
0.0181139
0.0167592
0.016726
0.0190202
0.025159
0.0267185
0.0270458
0.0291756
0.0445858
0.0560417
0.0551493
0.0469618
0.0450439
0.0489722
0.0679091
0.110107
0.129653
0.127015
0.09706
0.0632166
0.0418179
0.0289196
0.024344
0.0242268
0.0250836
0.0301567
0.0330999
0.0314034
0.0264665
0.0236284
0.0234518
0.0258855
0.0278453
0.0279832
0.0270083
0.0264222
0.0277396
0.0331921
0.0354484
0.0367711
0.0420428
0.0458437
0.0556999
0.0581214
0.058811
0.0570603
0.0467387
0.0360297
0.0263135
0.0217676
0.0178144
0.0149827
0.0126911
0.0116843
0.0118277
0.0136599
0.0213932
0.0332544
0.0453426
0.0530376
0.0554552
0.0556324
0.0556863
0.0582584
0.0598906
0.059743
0.0586176
0.0567096
0.0517026
0.0470803
0.0465957
0.0496089
0.0606126
0.0668139
0.0674306
0.0659885
0.0657134
0.0677236
0.075015
0.103437
0.20841
1.3495
1.74398
1.37805
1.00215
0.798035
0.579141
0.51076
0.350879
0.310803
0.309052
0.418233
0.724243
0.570049
0.51463
0.473858
0.228245
0.152005
0.135294
0.123527
0.120542
0.120676
0.125985
0.171695
0.213431
0.211651
0.189089
0.189014
0.200467
0.198453
0.175938
0.0992762
0.0448006
0.0194682
0.00874177
0.00466625
0.00291578
0.00192176
0.00152533
0.00145384
0.00147839
0.00164148
0.00230227
0.00405908
0.00844177
0.0209525
0.065734
0.119065
0.139645
0.140814
0.128204
0.10331
0.0939688
0.0889358
0.0777616
0.0630105
0.0514655
0.0445222
0.0414309
0.0408842
0.0411564
0.0426855
0.0480253
0.0651381
0.0743802
0.0761685
0.0739697
0.0647696
0.0550554
0.0406412
0.0262707
0.0200763
0.0155158
0.0120019
0.0110756
0.0122818
0.0147103
0.0151638
0.0149557
0.0145687
0.0154946
0.0210522
0.0247735
0.0295726
0.0440014
0.0513128
0.0510728
0.049068
0.048962
0.0495499
0.0500044
0.0515609
0.0546834
0.0564051
0.0563871
0.0528598
0.0435458
0.040529
0.0386936
0.0351605
0.0333082
0.0335129
0.0383182
0.0477451
0.0503026
0.0507984
0.0517273
0.0566362
0.0822242
0.100271
0.104288
0.102405
0.0871728
0.0596181
0.0414655
0.0323588
0.0290216
0.0261975
0.0232308
0.0200943
0.0172971
0.0162068
0.0161968
0.0177872
0.0237416
0.0261152
0.0268696
0.0287246
0.0419716
0.0542253
0.0539314
0.0471205
0.0453254
0.0487656
0.0651007
0.105203
0.126248
0.125625
0.101382
0.0691084
0.0464914
0.0321401
0.0264697
0.0259174
0.0264137
0.0296337
0.0298866
0.0284666
0.0250465
0.02302
0.0231014
0.0257854
0.0277349
0.0284287
0.0280421
0.0277351
0.0299683
0.0338665
0.0358421
0.0372189
0.0416275
0.0456899
0.0568925
0.0585006
0.0597332
0.0580358
0.0497096
0.0366534
0.0268779
0.021732
0.0175448
0.0149121
0.0128532
0.0120522
0.0124122
0.0166148
0.0300822
0.0405356
0.0508434
0.0570154
0.0584583
0.0581232
0.0581001
0.0599056
0.0607741
0.0606476
0.0600729
0.0589991
0.0547816
0.0457144
0.043156
0.0447719
0.0533938
0.0636729
0.0666195
0.0664675
0.0668487
0.068952
0.0749516
0.0955354
0.199907
1.04594
1.34685
1.10733
0.809436
0.652001
0.477866
0.406395
0.289515
0.210016
0.205364
0.238044
0.606042
0.622998
0.6156
0.503057
0.241136
0.173412
0.150309
0.134662
0.131134
0.132998
0.156888
0.209759
0.21736
0.194054
0.185123
0.195181
0.202775
0.193716
0.139166
0.0677975
0.0307804
0.013111
0.00592397
0.0033886
0.00213818
0.00151001
0.00138736
0.00140158
0.00147896
0.00188979
0.00322385
0.00647701
0.0141209
0.0367772
0.100968
0.143019
0.151801
0.146788
0.121162
0.100404
0.0933947
0.0887456
0.0781265
0.0617443
0.0495756
0.0430488
0.0402973
0.0397332
0.0398563
0.0409823
0.0448739
0.0602529
0.071441
0.0744314
0.0737315
0.0671672
0.0577039
0.0422677
0.0273398
0.0214981
0.0164862
0.0121989
0.0110887
0.0121049
0.0151579
0.0157071
0.0151286
0.0145821
0.0153717
0.0204733
0.0245392
0.0326634
0.0466296
0.0521163
0.0514658
0.0482787
0.0474737
0.0477345
0.048096
0.0498045
0.0534679
0.0560728
0.0564971
0.0535219
0.0447534
0.0422011
0.0397516
0.0356614
0.0341568
0.0346608
0.0415888
0.0499305
0.0514998
0.0518535
0.0531913
0.0608881
0.0906106
0.105947
0.108593
0.105639
0.0859187
0.0574125
0.0396841
0.0314567
0.0286733
0.0261891
0.0224044
0.0190251
0.0163268
0.0154304
0.0155479
0.0168945
0.0222302
0.0250592
0.0263966
0.0282924
0.0398903
0.0525242
0.0525618
0.0470091
0.0453956
0.0485839
0.0631049
0.100533
0.122938
0.123757
0.104661
0.0746993
0.0520884
0.0361555
0.0292189
0.027181
0.0273233
0.0281579
0.0276523
0.0270225
0.0248032
0.0231672
0.0234971
0.0264326
0.0284134
0.0301171
0.0300508
0.0299744
0.0319371
0.0339392
0.0361539
0.0376432
0.0413692
0.0461647
0.0576491
0.0589888
0.0609558
0.0593928
0.0528695
0.0378472
0.0283302
0.0221533
0.0175001
0.01476
0.0135904
0.0127279
0.0136894
0.0219474
0.039017
0.047761
0.0563316
0.061237
0.0617814
0.0612124
0.0608632
0.0607373
0.0602983
0.0599806
0.0594541
0.058592
0.0554381
0.0450877
0.0398356
0.0404926
0.045944
0.0573911
0.0646403
0.0661046
0.0668781
0.0691012
0.0751439
0.0896403
0.181676
0.806836
0.975047
0.811096
0.615925
0.468416
0.361884
0.292859
0.235509
0.140214
0.128909
0.13345
0.380543
0.58538
0.609583
0.506229
0.300234
0.206025
0.165252
0.149294
0.148847
0.156829
0.194489
0.214959
0.201686
0.182388
0.184243
0.205939
0.205746
0.181139
0.0963175
0.0435723
0.0173493
0.00722383
0.00382598
0.00245558
0.00168261
0.00134382
0.00133062
0.00138433
0.00162235
0.00257004
0.00523501
0.0110782
0.0241503
0.066295
0.136922
0.16174
0.163033
0.150402
0.113153
0.0989531
0.0938689
0.0897186
0.0782799
0.0603248
0.0474788
0.0412564
0.0392616
0.0388732
0.0389207
0.0397553
0.0427892
0.0562592
0.0689211
0.073377
0.0733866
0.0693785
0.0600812
0.0437001
0.0290747
0.0232665
0.0173283
0.0124302
0.0111349
0.0120665
0.0154981
0.01616
0.0153316
0.0146983
0.0154327
0.0203226
0.0268499
0.0362015
0.0479738
0.0525968
0.0517854
0.0482366
0.0463953
0.0463151
0.0464746
0.0482654
0.0523601
0.0558228
0.0566963
0.0541422
0.0462471
0.044058
0.0405925
0.0362848
0.0354133
0.0364261
0.0454056
0.0517996
0.0525511
0.0528923
0.0550106
0.0669422
0.0989274
0.111818
0.113323
0.108128
0.0836455
0.0543208
0.0374869
0.0308075
0.028551
0.0262765
0.0219276
0.0181555
0.0155573
0.0146553
0.0147949
0.0161725
0.0209681
0.0239592
0.0256528
0.0277112
0.0378942
0.0504806
0.0507639
0.0466675
0.0453398
0.0482595
0.0618295
0.0963038
0.119714
0.122164
0.107165
0.0793098
0.0580864
0.0413138
0.0326534
0.0290731
0.0281999
0.0273595
0.0267908
0.0267236
0.0249401
0.0237709
0.02412
0.0269427
0.0294293
0.0322945
0.0325121
0.0325389
0.0328435
0.033676
0.0364018
0.0379518
0.0410951
0.0479422
0.0579777
0.0598672
0.0621664
0.0606959
0.0558143
0.0396268
0.0300307
0.0226545
0.0176836
0.0150998
0.0146065
0.0138608
0.0159969
0.0290415
0.0475893
0.0542345
0.0624551
0.0658993
0.0658442
0.0645795
0.0635069
0.0610636
0.0578263
0.0562429
0.0562707
0.0560849
0.0541905
0.0450912
0.0368422
0.0366916
0.0395743
0.0500452
0.0607443
0.0650502
0.0665889
0.0689063
0.0754869
0.0854804
0.156236
0.611466
0.637758
0.518429
0.391292
0.282397
0.220644
0.147524
0.11936
0.0675813
0.063526
0.0659667
0.138312
0.482745
0.575587
0.532672
0.359189
0.242823
0.181155
0.163846
0.16348
0.174658
0.202643
0.203448
0.181583
0.177791
0.200839
0.215341
0.205591
0.138668
0.0632641
0.0243283
0.00987609
0.00476076
0.00296416
0.0020006
0.00139805
0.0012716
0.00130805
0.00146327
0.00204299
0.00410353
0.00932985
0.0193573
0.0407176
0.107925
0.166804
0.177307
0.174516
0.143652
0.108778
0.0987707
0.0965765
0.0921954
0.0765318
0.0577595
0.0453493
0.0395935
0.0382866
0.0382343
0.0382283
0.038831
0.0412936
0.0525384
0.0659031
0.0719272
0.072925
0.0705247
0.0630707
0.04523
0.0306865
0.0246489
0.0180538
0.0126731
0.0112192
0.0121207
0.0158022
0.0164165
0.0154478
0.0148934
0.0155719
0.0217108
0.0313475
0.0389957
0.0481668
0.0523943
0.0516748
0.0483082
0.0463951
0.0455771
0.0455032
0.0470519
0.051445
0.0556278
0.0568244
0.0545303
0.0480281
0.0459874
0.0414501
0.0374781
0.0370458
0.0388945
0.0492314
0.0533828
0.0535973
0.0540417
0.0573252
0.075338
0.107067
0.118129
0.118547
0.110021
0.0804536
0.0511734
0.0354644
0.0302592
0.0285282
0.026458
0.0214306
0.0175284
0.0151531
0.0142733
0.0143675
0.0155581
0.019746
0.0227782
0.024756
0.0270152
0.0363694
0.0488454
0.0491844
0.0460641
0.0450389
0.0480944
0.0607408
0.0921696
0.11673
0.120742
0.109957
0.0827947
0.063462
0.0470935
0.0367589
0.0320002
0.0293422
0.0274189
0.0267171
0.0266443
0.0253906
0.0245249
0.0248611
0.0275935
0.0304457
0.0338005
0.0340065
0.0337167
0.032987
0.033414
0.036736
0.0385648
0.0415247
0.0495363
0.0583211
0.0613124
0.0641511
0.0624473
0.0575125
0.0415686
0.0318539
0.0233525
0.018282
0.0157974
0.015183
0.0148229
0.0193203
0.0362487
0.0555374
0.0609577
0.0694395
0.0713194
0.0708024
0.067678
0.0654347
0.0614964
0.0577316
0.0543039
0.0524988
0.0521211
0.0510882
0.044091
0.0347643
0.0334091
0.0348265
0.0418229
0.0548531
0.0624591
0.0655373
0.0680862
0.0769335
0.0830016
0.133221
0.439273
0.330843
0.259297
0.180598
0.117171
0.0922808
0.0637127
0.0481135
0.0276609
0.0270736
0.0294119
0.0512978
0.258927
0.50353
0.544063
0.479536
0.30639
0.212073
0.181284
0.176541
0.185192
0.194107
0.183097
0.175598
0.194203
0.226876
0.223844
0.181614
0.0883647
0.0352784
0.0136057
0.00612783
0.00351342
0.00227571
0.00152254
0.00125462
0.00125087
0.00135061
0.00174114
0.00304901
0.00756227
0.0176057
0.0329602
0.067976
0.155424
0.192066
0.19282
0.18038
0.134828
0.106896
0.101837
0.100624
0.0939669
0.0726053
0.0543728
0.0433211
0.0382239
0.0374053
0.0375773
0.0377419
0.0383354
0.0404292
0.0504089
0.0630862
0.0704311
0.0721498
0.070808
0.0651519
0.0462413
0.0322362
0.0259687
0.0187183
0.0129622
0.0113432
0.012349
0.0164176
0.0168823
0.0157077
0.0151529
0.0158854
0.0241992
0.0359064
0.0408248
0.0476912
0.0513574
0.0508725
0.04858
0.0467435
0.0455968
0.0451193
0.0463774
0.0509404
0.0554184
0.0570197
0.0547894
0.0499144
0.0477948
0.0424896
0.039063
0.0390003
0.0426264
0.0525768
0.0548119
0.0546577
0.0554172
0.0604471
0.0846961
0.115677
0.124698
0.123994
0.111047
0.0774924
0.0482638
0.0337787
0.0298184
0.0287017
0.0266818
0.0209667
0.0169811
0.0147976
0.0141235
0.0142332
0.0152089
0.0187112
0.0217052
0.023853
0.0262117
0.0350009
0.0471252
0.0474532
0.0453611
0.0448235
0.0478987
0.0608438
0.0879917
0.113477
0.119589
0.112476
0.0859592
0.0677019
0.0532189
0.0418555
0.0352111
0.0315273
0.02797
0.0269024
0.0264681
0.0258047
0.0253928
0.0258091
0.0283869
0.0317604
0.0342347
0.0343381
0.0337592
0.0327732
0.0333193
0.0372671
0.0394051
0.0432047
0.0510085
0.0593259
0.0636286
0.0660134
0.0646704
0.0594216
0.0438706
0.0336052
0.0243782
0.0191443
0.016155
0.0155667
0.0154033
0.0233541
0.0428938
0.0617913
0.0652907
0.0741257
0.0765151
0.0752421
0.0701995
0.0671089
0.0635175
0.05972
0.0563403
0.0518577
0.0463562
0.043986
0.0397548
0.0321247
0.030185
0.0311378
0.0349272
0.047776
0.0593362
0.0643666
0.0665226
0.077747
0.0810828
0.115263
0.321088
0.118182
0.0847611
0.06037
0.0420653
0.0369079
0.0252639
0.019042
0.0112504
0.0115557
0.0129635
0.0214536
0.07852
0.3346
0.532424
0.533309
0.445592
0.291554
0.221321
0.202936
0.201647
0.192235
0.185619
0.197849
0.239954
0.241294
0.219654
0.119573
0.049681
0.0186547
0.00789769
0.00427095
0.00271734
0.00175171
0.00130742
0.00121451
0.00126145
0.00154123
0.00245843
0.00527937
0.0155066
0.0310757
0.0535857
0.116085
0.194304
0.212229
0.20909
0.180985
0.126644
0.107038
0.105499
0.104074
0.0932972
0.067005
0.0507714
0.0418455
0.0374636
0.0366936
0.0369292
0.037211
0.0378494
0.0398704
0.0486518
0.0609272
0.0693084
0.0716034
0.0709033
0.0663175
0.0478449
0.0339144
0.027002
0.0191444
0.0131686
0.0115595
0.0130853
0.0172676
0.0173679
0.015855
0.0152599
0.015999
0.026187
0.0389238
0.0412422
0.0450871
0.0490227
0.0491847
0.0488032
0.0481587
0.0460228
0.0452063
0.0463261
0.0508792
0.0553386
0.0570384
0.055151
0.052039
0.0493418
0.0438922
0.0412106
0.0414554
0.0471562
0.0552947
0.0560656
0.0556489
0.0570512
0.0646926
0.095136
0.124638
0.131709
0.12946
0.110865
0.0741797
0.0452032
0.0318547
0.0293613
0.0288974
0.0268602
0.0201751
0.0163052
0.014629
0.0141
0.0142215
0.014998
0.0181112
0.0209278
0.0230546
0.0253866
0.0336736
0.0454363
0.045729
0.0444974
0.0444094
0.0479383
0.0599675
0.0843554
0.110575
0.119007
0.114594
0.0910212
0.0708871
0.0578567
0.0468783
0.0386629
0.0341922
0.0296005
0.0274999
0.0266139
0.0264453
0.0263396
0.0268713
0.0295106
0.0326589
0.0344421
0.034405
0.0333181
0.0327397
0.0339749
0.0384043
0.0406356
0.0451235
0.0529804
0.0616699
0.066721
0.0679194
0.0668906
0.060968
0.0465759
0.0350734
0.025569
0.0202363
0.0166117
0.0162687
0.0162429
0.0287594
0.0497835
0.0657475
0.0671624
0.0748961
0.0783376
0.0771259
0.0726859
0.0717736
0.0693117
0.0652671
0.0618266
0.0547439
0.0432206
0.0376638
0.0343161
0.0284983
0.0271595
0.0279753
0.0303717
0.0406713
0.0532881
0.0621911
0.0648644
0.0796714
0.0805775
0.101896
0.239178
0.0342288
0.0238844
0.0181758
0.0139179
0.012648
0.00859856
0.00640424
0.00417714
0.00470821
0.00560881
0.00818321
0.0281071
0.10894
0.432277
0.527035
0.508083
0.438936
0.345816
0.290255
0.24331
0.226562
0.232171
0.259968
0.261332
0.247728
0.15558
0.066591
0.0253117
0.0101046
0.00515028
0.00331826
0.00209965
0.00141484
0.00120622
0.00120785
0.00138165
0.00206447
0.00410156
0.0101169
0.0302044
0.0511114
0.0846699
0.171753
0.230215
0.232645
0.219101
0.168377
0.122246
0.110352
0.109749
0.105744
0.0861929
0.0604481
0.0474295
0.0406353
0.0371455
0.036447
0.0366883
0.0368861
0.0374566
0.0393723
0.0472503
0.0591243
0.0682952
0.0711992
0.0708809
0.06725
0.0491325
0.0353295
0.0278537
0.0195346
0.0133267
0.0117656
0.0138388
0.0178997
0.0176757
0.0159411
0.0153771
0.0162365
0.0272956
0.0393919
0.0406875
0.0418594
0.0445294
0.0467667
0.0489911
0.0493559
0.0473801
0.0457337
0.0465897
0.0509759
0.0552897
0.0570019
0.0556792
0.0538101
0.0504874
0.0455255
0.0435875
0.0442045
0.0519097
0.0575649
0.0571824
0.056831
0.0594091
0.0705518
0.10581
0.133325
0.138745
0.134231
0.108959
0.0713324
0.0427016
0.0304625
0.02893
0.0291016
0.0269496
0.0193743
0.0159857
0.0146257
0.014266
0.0142926
0.014805
0.0174536
0.0203467
0.0224166
0.0247311
0.0329042
0.0441676
0.0442145
0.0434765
0.0437098
0.0481868
0.0601156
0.0802747
0.10706
0.118605
0.116326
0.0971402
0.0737576
0.0611427
0.0512395
0.0420035
0.0367233
0.0314161
0.0282623
0.0272442
0.0273464
0.0274575
0.028082
0.0309391
0.033711
0.0348406
0.0343541
0.0332296
0.0332923
0.0358715
0.0395793
0.0418553
0.0467955
0.0561857
0.0663022
0.0703014
0.07082
0.0697219
0.0626314
0.0488006
0.0367926
0.0270616
0.0216655
0.0183523
0.0177654
0.0183094
0.0380268
0.0566803
0.0672244
0.0673591
0.0742282
0.0782268
0.0789767
0.0777401
0.0786205
0.0787255
0.0753795
0.0693609
0.0589294
0.0449365
0.0356498
0.0310246
0.025683
0.0246448
0.0252219
0.0270359
0.0344903
0.0475021
0.0589694
0.0620632
0.0796378
0.0796472
0.0931456
0.184534
0.00768155
0.00566798
0.00497313
0.00412394
0.00364619
0.00233422
0.00186412
0.00160766
0.00188873
0.00265503
0.00340651
0.0100292
0.037619
0.199914
0.470984
0.492063
0.469674
0.42058
0.360895
0.30805
0.291122
0.290658
0.28679
0.271806
0.184255
0.0816702
0.0323216
0.012727
0.00602967
0.00382756
0.00248889
0.00156902
0.00121971
0.00117671
0.00126319
0.00175738
0.00334206
0.00771071
0.0207567
0.054612
0.0808914
0.13061
0.229999
0.258671
0.251293
0.222791
0.156082
0.12041
0.113801
0.111841
0.105313
0.0773777
0.0543097
0.0450038
0.0398857
0.0370866
0.036414
0.0365405
0.036718
0.0372555
0.0391357
0.0465804
0.0574902
0.067732
0.0708512
0.0709573
0.0676943
0.050752
0.0371175
0.0284581
0.0197935
0.013576
0.0122313
0.0149683
0.018845
0.0182018
0.0162882
0.0157463
0.0168903
0.0278004
0.0385738
0.0403553
0.0408737
0.04197
0.0448011
0.0495051
0.0506815
0.048584
0.0465317
0.0472618
0.0512568
0.055259
0.0569015
0.0563467
0.0550325
0.0515302
0.0474335
0.0462568
0.0475145
0.0565015
0.0594517
0.0582648
0.0582395
0.062924
0.0785135
0.115717
0.141801
0.145906
0.137353
0.106238
0.0683936
0.0402853
0.0289962
0.028334
0.0292109
0.0269981
0.0190444
0.0158691
0.0149801
0.014434
0.014287
0.0147335
0.0173254
0.0199074
0.0218969
0.0240318
0.0320354
0.0426729
0.0425742
0.042246
0.0429188
0.0495185
0.0607393
0.0761723
0.103633
0.118675
0.118392
0.10534
0.0784376
0.0638858
0.0541722
0.0447359
0.0388965
0.033065
0.0293068
0.0283302
0.0284373
0.0288359
0.0296346
0.0324744
0.0350529
0.035649
0.0346871
0.0340809
0.0347188
0.0382913
0.0406644
0.0431531
0.049397
0.0621353
0.0729373
0.0747379
0.0748846
0.0732364
0.0656787
0.0505856
0.0386519
0.028476
0.0232258
0.0204252
0.0194491
0.021767
0.0470299
0.062044
0.0660136
0.0660558
0.072169
0.0764145
0.0798612
0.0800547
0.0809337
0.081173
0.0793539
0.0740791
0.0631106
0.0482878
0.0362601
0.0280592
0.0226371
0.0216623
0.0222246
0.0239164
0.0298101
0.0413484
0.0562023
0.060022
0.0793296
0.0787158
0.0865382
0.147658
0.00190948
0.00150877
0.00141128
0.00117654
0.000945229
0.000692257
0.000682384
0.000759928
0.00106287
0.00173612
0.00198528
0.00395824
0.0120977
0.0554015
0.266138
0.416836
0.435427
0.418454
0.37563
0.334834
0.317608
0.301925
0.284092
0.197212
0.0920621
0.0388603
0.0154925
0.00697935
0.00416931
0.0029194
0.00186777
0.00127126
0.00115111
0.00118546
0.00151676
0.00276779
0.00630389
0.0154586
0.0447509
0.0886605
0.119786
0.194983
0.277436
0.283925
0.259169
0.209384
0.14902
0.121023
0.11591
0.11243
0.100041
0.0663908
0.0494775
0.0433584
0.0393861
0.0370308
0.0365401
0.0366357
0.0366281
0.0369725
0.0388284
0.046101
0.056687
0.0672022
0.070841
0.0711259
0.067687
0.0522012
0.0387436
0.0289035
0.0199684
0.0139573
0.0129161
0.0164446
0.0200362
0.0189596
0.0168906
0.0165404
0.0178631
0.027764
0.0382455
0.0411452
0.0414245
0.0417923
0.044693
0.0512257
0.0528527
0.0502724
0.0477278
0.0481505
0.0516018
0.055018
0.056597
0.0565793
0.0559124
0.05268
0.0496237
0.0490179
0.0516119
0.0601959
0.0610533
0.0593183
0.0600021
0.0681939
0.0873926
0.124023
0.150233
0.152457
0.139417
0.104533
0.0660791
0.0381433
0.0277163
0.0275038
0.0295885
0.0271813
0.0189095
0.0158456
0.0151942
0.014401
0.0141382
0.0147729
0.0174591
0.0198163
0.0214768
0.0234091
0.0320262
0.0415917
0.0411011
0.0408417
0.0419657
0.0512385
0.0626462
0.0735187
0.0982246
0.118223
0.120537
0.113038