/*--------------------------------*- C++ -*----------------------------------*\
| =========                 |                                                 |
| \\      /  F ield         | OpenFOAM: The Open Source CFD Toolbox           |
|  \\    /   O peration     | Version:  2.4.0                                 |
|   \\  /    A nd           | Web:      www.OpenFOAM.org                      |
|    \\/     M anipulation  |                                                 |
\*---------------------------------------------------------------------------*/
FoamFile
{
    version     2.0;
    format      ascii;
    class       volScalarField;
    location    "0.19";
    object      k;
}
// * * * * * * * * * * * * * * * * * * * * * * * * * * * * * * * * * * * * * //

dimensions      [0 2 -2 0 0 0 0];

internalField   nonuniform List<scalar> 
4400
(
9.53626
8.48369
6.52041
5.29695
4.63679
4.229
4.02803
3.81316
3.84777
3.33872
4.41369
6.75335
6.73932
6.30126
5.70367
5.22639
4.9816
4.68324
4.6706
4.34717
1.18048
3.14971
4.21832
4.53462
4.47654
4.27135
4.14516
3.92475
3.89852
3.70527
0.165483
0.93956
1.70648
2.31478
2.67993
2.78489
2.86229
2.84424
2.82711
2.76154
0.0174596
0.15475
0.402899
0.747576
1.09559
1.3114
1.5199
1.65182
1.69607
1.75096
0.00149025
0.0172756
0.0513792
0.126708
0.264099
0.364889
0.529393
0.63825
0.752551
0.828751
0.000139512
0.00154534
0.0042907
0.011572
0.0320863
0.0513399
0.0900601
0.137648
0.208587
0.235844
4.0084e-05
0.000261641
0.000418057
0.000831273
0.00218184
0.00369411
0.00661193
0.0147176
0.0264475
0.0314676
3.35787e-05
0.000140938
0.000183593
0.000238764
0.00032229
0.000367959
0.000460201
0.000891895
0.00134547
0.00167314
3.36864e-05
0.000125956
0.000144836
0.000188001
0.000227222
0.000232359
0.000230442
0.000230849
0.000237075
0.000252909
3.32145e-05
0.000125597
0.000173502
0.000196754
0.000202749
0.000207727
0.000217358
0.000239123
0.000285127
0.00056084
3.35309e-05
0.000139177
0.000183439
0.000198077
0.000240178
0.000391989
0.000571019
0.000974047
0.00186129
0.00648414
3.99999e-05
0.000231615
0.000409918
0.000797114
0.00179493
0.00493618
0.00824053
0.0162427
0.0274758
0.071386
0.000136938
0.00148387
0.00459895
0.0114407
0.0270074
0.0655471
0.0936262
0.15735
0.20953
0.375646
0.00146796
0.0167691
0.0565555
0.12125
0.250913
0.412017
0.513341
0.685494
0.792326
1.05453
0.0171948
0.149237
0.423016
0.728593
1.10332
1.3449
1.52693
1.68278
1.78571
1.98155
0.163056
0.935507
1.72113
2.29993
2.6979
2.79759
2.87866
2.87175
2.88875
2.92842
1.1658
3.15993
4.22508
4.52824
4.48625
4.2666
4.15409
3.93103
3.87767
3.7626
4.40172
6.76826
6.73932
6.29184
5.71923
5.18589
4.97699
4.61691
4.50779
4.19753
9.52556
8.49744
6.51038
5.29121
4.64143
4.1776
3.99333
3.67661
3.54273
3.09565
2.10582
1.68487
1.32656
1.33526
1.18558
1.25399
1.08672
0.870658
0.833705
0.70608
0.483595
0.466141
0.449087
0.398255
0.409885
0.439076
0.513124
0.560893
0.560755
0.551133
0.512996
0.411563
0.288817
0.136967
0.0712568
0.0576848
0.0580504
0.0728225
0.154547
0.42965
0.485481
0.447331
0.381897
0.353942
0.326599
0.299042
0.24257
0.154334
0.0951334
0.0915213
0.157164
0.296987
0.554459
0.849761
0.894917
0.42979
0.192935
0.136272
0.139171
0.155718
0.18855
0.185143
0.150387
0.124698
0.12319
0.140442
0.152994
0.158195
0.18269
0.266963
0.309954
0.312333
0.301614
0.276261
0.208468
0.156614
0.114134
0.121362
0.121856
0.161417
0.183047
0.173223
0.157271
0.145622
0.128458
0.116543
0.102548
0.0996971
0.0990873
0.0850274
0.068997
0.0615587
0.0608571
0.0626921
0.0813904
0.0910225
0.100591
0.176025
0.22748
0.233813
0.229072
0.221083
0.206069
0.18345
0.1812
0.176793
0.184414
0.21255
0.27212
0.797525
3.25837
2.60045
1.93397
1.81256
1.47563
1.43986
1.35979
1.17122
1.11994
1.08693
0.943524
0.892918
0.85849
0.791245
0.73298
0.681771
0.657949
0.614478
0.572103
0.521316
0.412962
0.226006
0.122051
0.0604163
0.0389028
0.0386426
0.0404045
0.0467048
0.0746357
0.203567
0.38595
0.410355
0.3911
0.360693
0.336835
0.276237
0.189985
0.115389
0.077232
0.079938
0.157987
0.308783
0.558684
0.848707
0.962973
0.558718
0.200659
0.128764
0.137836
0.15325
0.182316
0.186364
0.168201
0.131676
0.125272
0.138402
0.153678
0.15694
0.169399
0.228269
0.280407
0.287242
0.278953
0.264606
0.215735
0.160276
0.110829
0.103566
0.105635
0.122973
0.159112
0.16168
0.153985
0.141554
0.129771
0.120537
0.103861
0.0981201
0.094997
0.0792789
0.0647851
0.0587539
0.0589753
0.0629186
0.0814232
0.0936515
0.117074
0.212984
0.245322
0.245113
0.231982
0.212791
0.193062
0.172035
0.172834
0.175266
0.182371
0.202668
0.26898
0.62771
2.99996
2.58193
2.01741
1.86731
1.57562
1.44688
1.38325
1.22596
1.0862
1.06143
0.997386
0.906971
0.864117
0.829773
0.756406
0.687009
0.639283
0.540837
0.456429
0.343388
0.176426
0.0864565
0.0480024
0.0292752
0.0268944
0.0304781
0.0332525
0.0380181
0.0484245
0.0864704
0.2071
0.321395
0.337228
0.324979
0.291087
0.205486
0.133694
0.0820508
0.0621118
0.0712921
0.16462
0.316909
0.553358
0.826154
0.993313
0.720024
0.208694
0.12591
0.134567
0.155763
0.16441
0.172744
0.169508
0.142937
0.130133
0.138624
0.155459
0.157462
0.162816
0.198359
0.253684
0.262565
0.2555
0.242137
0.208564
0.157898
0.112186
0.0906181
0.0913373
0.0967574
0.124334
0.137734
0.133292
0.130543
0.122968
0.118048
0.100917
0.0918963
0.0850897
0.0691311
0.0591525
0.0571555
0.0584214
0.0680063
0.087941
0.0955073
0.134198
0.239963
0.261135
0.257662
0.231051
0.20441
0.188218
0.166835
0.163597
0.16876
0.179326
0.193539
0.261885
0.499994
2.3793
2.07
1.72909
1.50789
1.37999
1.23448
1.17893
1.12392
0.97553
0.88732
0.842891
0.740624
0.662935
0.620762
0.525593
0.462933
0.393396
0.29834
0.188905
0.110395
0.0587962
0.0321983
0.0217905
0.0201672
0.0226479
0.0306528
0.032399
0.0367535
0.0404264
0.0510141
0.0865134
0.184454
0.207988
0.202073
0.175899
0.124945
0.0889867
0.0611241
0.0530985
0.0671495
0.174019
0.319743
0.53352
0.772787
0.994838
0.884394
0.236317
0.130743
0.119818
0.149137
0.158798
0.16365
0.163206
0.149922
0.135959
0.139993
0.155048
0.158256
0.161904
0.180787
0.231005
0.241128
0.235893
0.223075
0.197557
0.154625
0.111827
0.0845572
0.0788485
0.0808005
0.0949426
0.112185
0.10986
0.111456
0.109866
0.105922
0.0869039
0.0773162
0.0719218
0.060739
0.0550478
0.055664
0.0598394
0.0809308
0.102456
0.105478
0.1569
0.263217
0.278183
0.265879
0.224433
0.201685
0.185867
0.163556
0.160386
0.163728
0.1742
0.182629
0.238265
0.391679
1.57357
1.37674
1.22378
1.01426
0.940158
0.86071
0.817408
0.809002
0.756413
0.665023
0.626107
0.538682
0.445529
0.397255
0.301073
0.220398
0.152876
0.0963226
0.0586196
0.03324
0.020707
0.0154922
0.0161278
0.0185411
0.0263229
0.0429127
0.045897
0.0451621
0.0438698
0.0446416
0.0512733
0.0819022
0.105116
0.105609
0.0990185
0.0819749
0.0627095
0.0489213
0.0480755
0.066751
0.183682
0.314563
0.513145
0.703258
0.985564
1.04742
0.313417
0.14294
0.112572
0.13074
0.157543
0.164717
0.163794
0.1561
0.141881
0.142836
0.1555
0.160142
0.16287
0.172265
0.213716
0.224233
0.219619
0.204298
0.188434
0.15151
0.111594
0.0830266
0.0699682
0.0702182
0.0750324
0.0912831
0.0919498
0.092976
0.0919094
0.087299
0.0703879
0.0645566
0.06048
0.0534758
0.0515819
0.054343
0.0632062
0.098287
0.120127
0.119473
0.184938
0.288092
0.289291
0.266656
0.213777
0.184699
0.166307
0.153026
0.152743
0.155554
0.175826
0.177774
0.214977
0.328629
0.745974
0.639678
0.592052
0.480725
0.457356
0.427065
0.419442
0.434345
0.423603
0.383115
0.359745
0.296447
0.217362
0.158672
0.103784
0.0664508
0.043366
0.0270156
0.0173187
0.011892
0.0113453
0.0124396
0.0172835
0.0283778
0.0552546
0.077614
0.0777655
0.0728808
0.0600388
0.0481463
0.0443762
0.0475609
0.0551724
0.0633764
0.062137
0.0567507
0.0487744
0.0441352
0.0459215
0.0714201
0.198729
0.305574
0.484766
0.632824
0.94559
1.18994
0.456248
0.157512
0.11174
0.121304
0.157414
0.175288
0.173331
0.163537
0.150402
0.148594
0.156788
0.161975
0.166438
0.172577
0.201942
0.211687
0.210644
0.191324
0.177245
0.148947
0.112268
0.0814732
0.0669455
0.063332
0.0644881
0.073133
0.0769947
0.0763954
0.0746202
0.0678041
0.0561921
0.0539797
0.0525883
0.0490924
0.0486391
0.0538356
0.0685795
0.118871
0.138965
0.135131
0.20908
0.302886
0.293535
0.256344
0.18748
0.160266
0.150508
0.143968
0.149042
0.152434
0.176133
0.17575
0.199174
0.291133
0.209591
0.175171
0.164779
0.13693
0.13596
0.13525
0.135617
0.153349
0.151517
0.13758
0.12672
0.0940869
0.0614291
0.04007
0.025751
0.0161227
0.0112079
0.00842735
0.00791942
0.00840231
0.010404
0.0173512
0.0393953
0.0718313
0.124286
0.140044
0.134979
0.120183
0.0927732
0.0614675
0.0466898
0.0434822
0.0460936
0.0483829
0.0463993
0.0454386
0.0438829
0.0430456
0.0475843
0.0826878
0.210802
0.296917
0.438005
0.561493
0.847533
1.21625
0.662595
0.169488
0.112764
0.119786
0.155631
0.177459
0.178775
0.172272
0.157395
0.154776
0.161505
0.165572
0.172752
0.1747
0.199864
0.204079
0.20682
0.188223
0.174022
0.149152
0.11349
0.079193
0.0657463
0.0599211
0.0594136
0.0622629
0.0649024
0.0640365
0.0609171
0.0511575
0.0457078
0.04517
0.0450091
0.0442211
0.0454296
0.0561837
0.0822116
0.143634
0.152045
0.148707
0.243624
0.326825
0.288862
0.226949
0.149009
0.135783
0.139807
0.139064
0.145897
0.148782
0.171386
0.17085
0.187273
0.260007
0.028775
0.0250712
0.0233731
0.0214731
0.0221548
0.022993
0.0239252
0.0301067
0.0299407
0.0272906
0.0228022
0.016336
0.0105688
0.00731803
0.00581361
0.0053786
0.00549821
0.00599374
0.00747426
0.0116311
0.0220986
0.0474046
0.105912
0.175938
0.238411
0.240413
0.226967
0.190532
0.145551
0.0924215
0.0579958
0.0476253
0.0470973
0.0434066
0.0417375
0.0434604
0.0447934
0.0471074
0.0567052
0.109436
0.224489
0.286687
0.390168
0.478634
0.68422
1.19296
0.898037
0.194011
0.117432
0.119981
0.152925
0.173204
0.183815
0.180534
0.168763
0.164939
0.168107
0.168851
0.181282
0.180196
0.201926
0.202536
0.20591
0.191022
0.173374
0.14541
0.110717
0.078151
0.0635805
0.0593988
0.0552886
0.0551997
0.0546981
0.0533425
0.0489391
0.0436162
0.0423781
0.0412602
0.040922
0.0412195
0.0440628
0.0614692
0.112102
0.165522
0.164444
0.167336
0.296256
0.35315
0.286041
0.188751
0.122854
0.111062
0.11549
0.127337
0.13992
0.144459
0.173431
0.167803
0.177663
0.23806
0.001593
0.00146759
0.00147941
0.00151317
0.00161715
0.00173844
0.0019745
0.00249057
0.00248943
0.00225127
0.00211241
0.00219074
0.00238082
0.00307147
0.00379497
0.00508421
0.00808488
0.0120194
0.019472
0.0346679
0.0662911
0.136928
0.247387
0.348932
0.404279
0.400066
0.371557
0.302444
0.221102
0.146486
0.0890948
0.0645763
0.0513825
0.0457467
0.0468401
0.0537727
0.0567816
0.0613585
0.0760063
0.145018
0.235008
0.278061
0.34887
0.392032
0.500081
1.1188
1.13489
0.252313
0.12732
0.123129
0.143748
0.168018
0.191147
0.18486
0.179926
0.177642
0.180754
0.176012
0.19272
0.191571
0.209001
0.205268
0.203812
0.195199
0.173523
0.142444
0.105966
0.078335
0.0661135
0.0613127
0.0538467
0.0513959
0.050244
0.0478763
0.0450839
0.0424198
0.042062
0.0405177
0.0399723
0.0407188
0.0460037
0.0796458
0.149931
0.18585
0.180712
0.206213
0.343446
0.371744
0.285384
0.176866
0.120486
0.0958878
0.0958139
0.109543
0.133473
0.141714
0.179369
0.167067
0.170097
0.204965
0.000279941
0.000319161
0.000326894
0.000344066
0.000355088
0.00036508
0.000411883
0.000473156
0.000569648
0.000784917
0.00132594
0.00219559
0.00381033
0.00823819
0.0120504
0.0186996
0.0299745
0.0415301
0.0602327
0.0984741
0.179128
0.318901
0.481311
0.584869
0.61697
0.601899
0.551205
0.44651
0.317791
0.202837
0.131543
0.0906024
0.0648231
0.0617124
0.0722982
0.0789817
0.0796404
0.0835897
0.107412
0.184169
0.242048
0.268226
0.315737
0.319282
0.354053
0.987836
1.37233
0.357626
0.140755
0.127189
0.13735
0.166939
0.187945
0.194736
0.187021
0.186146
0.19377
0.181473
0.204827
0.203653
0.225713
0.21631
0.196607
0.1921
0.174839
0.142916
0.106043
0.08268
0.0733619
0.0632331
0.0553145
0.0505082
0.0502075
0.0489726
0.0484648
0.0467333
0.0441776
0.0411907
0.0408205
0.0428697
0.0544433
0.112226
0.198354
0.213454
0.192856
0.23607
0.361968
0.397407
0.286852
0.176753
0.130108
0.0900192
0.084687
0.0941335
0.116234
0.133346
0.187748
0.1681
0.172142
0.190069
0.00108686
0.00146022
0.00146802
0.00150314
0.00153515
0.00155831
0.00172041
0.00214317
0.00293989
0.00438549
0.00766868
0.0136769
0.0215673
0.0363067
0.0477725
0.064196
0.0869187
0.110421
0.150233
0.240951
0.395527
0.621567
0.749582
0.771282
0.751019
0.69739
0.611866
0.526745
0.401658
0.277503
0.190168
0.129256
0.106012
0.112863
0.117522
0.105056
0.102655
0.113666
0.170083
0.216744
0.242802
0.257908
0.279743
0.262154
0.266428
0.812746
1.55215
0.545526
0.165797
0.132036
0.136354
0.164337
0.184321
0.201342
0.191326
0.187701
0.216795
0.194914
0.215306
0.216791
0.242624
0.239695
0.205535
0.193546
0.180182
0.148379
0.109437
0.0855546
0.0741291
0.0589439
0.055782
0.0515487
0.051744
0.0533487
0.0534623
0.0522137
0.0475472
0.0446719
0.0448601
0.0503559
0.0785428
0.177133
0.247296
0.250734
0.216223
0.248424
0.389639
0.443215
0.280666
0.18084
0.133076
0.0918844
0.0804427
0.0877502
0.115492
0.127561
0.225003
0.175104
0.177976
0.186194
0.012795
0.0141712
0.0138056
0.0139428
0.0141046
0.0141758
0.0151877
0.0183673
0.0227558
0.0292995
0.046996
0.0692307
0.0873885
0.116606
0.143076
0.163884
0.197668
0.239273
0.321261
0.50573
0.751014
0.856562
0.864126
0.836972
0.777361
0.68512
0.612816
0.573766
0.503097
0.363388
0.264702
0.213509
0.190987
0.176885
0.14717
0.135795
0.141284
0.188039
0.23608
0.238677
0.238535
0.24276
0.247409
0.220606
0.21567
0.620208
1.58454
0.859252
0.220609
0.137957
0.136979
0.161403
0.184419
0.199933
0.199999
0.193157
0.236308
0.21427
0.234676
0.230658
0.250203
0.274314
0.228471
0.193106
0.18005
0.14975
0.107005
0.0839677
0.0706462
0.0558039
0.0530363
0.0533924
0.0547559
0.0586896
0.0579095
0.0559849
0.0514266
0.0502797
0.0522689
0.0688452
0.145261
0.266181
0.310339
0.292902
0.228305
0.234732
0.426889
0.456471
0.225276
0.161201
0.118304
0.0897949
0.0860237
0.0904962
0.139301
0.129159
0.398187
0.204746
0.186036
0.189502
0.0932052
0.0952256
0.0920493
0.0920358
0.0918495
0.0916673
0.0947171
0.105883
0.117573
0.136793
0.183947
0.216558
0.244706
0.284112
0.306349
0.328444
0.378833
0.458312
0.631368
0.833243
0.925381
0.924183
0.892507
0.811508
0.714234
0.648612
0.622325
0.591412
0.513691
0.424153
0.3638
0.297482
0.249727
0.209655
0.184811
0.185554
0.222927
0.277614
0.278353
0.252149
0.227432
0.226519
0.224997
0.191561
0.182491
0.444972
1.5433
1.28444
0.332367
0.152034
0.140525
0.155563
0.185286
0.198615
0.20423
0.202566
0.24094
0.224485
0.278901
0.253722
0.260616
0.280463
0.239493
0.178941
0.165082
0.143928
0.100575
0.0826948
0.0709544
0.0558203
0.0510786
0.0539259
0.0560854
0.060975
0.0604898
0.0594346
0.0561538
0.0566655
0.0668331
0.118394
0.282462
0.379108
0.381264
0.314636
0.227709
0.228154
0.442693
0.438645
0.207991
0.138159
0.115653
0.077755
0.0950781
0.0983737
0.204657
0.13585
0.469105
0.274351
0.211934
0.201546
0.381706
0.377743
0.356775
0.347728
0.335015
0.328224
0.331848
0.344865
0.359265
0.394377
0.444188
0.465029
0.482609
0.499942
0.514351
0.546038
0.62727
0.773017
0.896012
0.966321
0.967198
0.927468
0.809311
0.693786
0.645074
0.60866
0.584307
0.549513
0.507797
0.478384
0.413587
0.33945
0.295728
0.256665
0.249746
0.271544
0.333423
0.335407
0.30397
0.233435
0.206015
0.205625
0.200225
0.168273
0.166874
0.320907
1.39739
1.72828
0.554173
0.192898
0.150269
0.15336
0.183833
0.198775
0.213419
0.21847
0.248324
0.235592
0.307222
0.294158
0.275709
0.274569
0.232376
0.159547
0.14001
0.121004
0.0966193
0.0871466
0.0781457
0.0592503
0.0526951
0.0541206
0.0583956
0.0620925
0.0633857
0.0624871
0.0625038
0.0699251
0.115153
0.279456
0.467139
0.485441
0.436096
0.293616
0.212561
0.220861
0.434482
0.428289
0.245336
0.156105
0.141186
0.0767072
0.0999373
0.107972
0.297322
0.153524
0.211203
0.29698
0.277031
0.226619
1.00806
0.951546
0.843882
0.800766
0.747995
0.703167
0.700971
0.704951
0.708621
0.721045
0.728226
0.720736
0.712914
0.716859
0.733739
0.788051
0.887901
0.945711
0.984749
0.98636
0.928958
0.761004
0.641126
0.608029
0.59031
0.564359
0.542509
0.530266
0.524097
0.501496
0.443063
0.397905
0.341178
0.315809
0.332035
0.395693
0.397912
0.349964
0.253831
0.189643
0.179914
0.181781
0.171611
0.156095
0.164789
0.274794
1.16872
1.92687
0.998928
0.305662
0.16966
0.153245
0.17072
0.200122
0.220873
0.241072
0.268721
0.253694
0.310784
0.328193
0.27835
0.260597
0.199924
0.154201
0.123715
0.104392
0.0972247
0.0930981
0.0889477
0.0726451
0.0620731
0.0593375
0.0631312
0.0666639
0.0735124
0.0745722
0.08101
0.123512
0.302095
0.557974
0.596919
0.545286
0.39054
0.246428
0.182253
0.206161
0.383613
0.493495
0.383723
0.244681
0.168951
0.087795
0.0984278
0.123732
0.316713
0.166341
0.1676
0.345456
0.3256
0.258129
1.81103
1.60973
1.3986
1.28397
1.17749
1.09557
1.06872
1.02879
0.981093
0.962931
0.930108
0.897508
0.8969
0.907102
0.938111
0.973683
0.992041
0.998161
0.979818
0.88609
0.665273
0.559479
0.553002
0.562325
0.561265
0.548557
0.538886
0.53034
0.523902
0.497306
0.461019
0.423641
0.400838
0.420704
0.468393
0.456549
0.361812
0.239558
0.172081
0.151537
0.154622
0.16328
0.158067
0.162159
0.209846
0.292629
0.902151
1.95416
1.75263
0.596408
0.239561
0.169793
0.162754
0.185682
0.214799
0.250788
0.284032
0.278353
0.297167
0.326276
0.254023
0.226506
0.158167
0.139529
0.114402
0.104423
0.107477
0.111795
0.110605
0.0912271
0.0767147
0.0745112
0.0791014
0.0901438
0.0985379
0.108594
0.152904
0.337079
0.668753
0.691893
0.648369
0.467998
0.297903
0.200895
0.163446
0.192203
0.316027
0.57975
0.537272
0.324831
0.173958
0.107557
0.108681
0.170536
0.317748
0.164509
0.177141
0.550085
0.459579
0.335253
2.56662
2.15705
1.84513
1.63651
1.46639
1.35189
1.27072
1.19028
1.13587
1.10764
1.07092
1.05028
1.04749
1.04413
1.03535
1.02457
1.00083
0.934443
0.7674
0.542016
0.452496
0.454033
0.478881
0.504076
0.522634
0.531665
0.532791
0.531119
0.534876
0.524212
0.518122
0.504871
0.511703
0.508899
0.468494
0.337187
0.191126
0.131813
0.115657
0.116022
0.129274
0.162713
0.170906
0.22418
0.448142
0.43288
0.658957
1.771
2.26143
1.29807
0.503519
0.24183
0.183317
0.173508
0.189281
0.219692
0.260372
0.269624
0.242901
0.274617
0.180476
0.16826
0.136299
0.127067
0.122296
0.124013
0.141282
0.146057
0.134488
0.103768
0.0957606
0.0980068
0.110278
0.124937
0.151817
0.224992
0.46584
0.821317
0.831246
0.731749
0.437509
0.273375
0.190103
0.157841
0.147127
0.164245
0.255487
0.586208
0.636312
0.358753
0.229586
0.157467
0.152401
0.248005
0.420978
0.165545
0.251764
0.720414
0.504784
0.41141
3.05934
2.40039
2.01704
1.74595
1.5595
1.4399
1.3493
1.28405
1.23961
1.20012
1.15643
1.12706
1.10116
1.06772
1.0156
0.929852
0.781951
0.58211
0.408139
0.326029
0.334604
0.386927
0.42596
0.445156
0.458095
0.482018
0.504645
0.519704
0.528888
0.529184
0.516717
0.499499
0.475894
0.397796
0.263621
0.15782
0.11208
0.102698
0.104218
0.11428
0.134891
0.173676
0.246484
0.57647
1.08615
0.86446
0.74784
1.22604
2.33269
2.30774
1.34755
0.603583
0.348957
0.241965
0.19759
0.195067
0.218063
0.237016
0.211328
0.20725
0.158845
0.159716
0.144103
0.144254
0.150822
0.171297
0.176825
0.190491
0.172377
0.165462
0.167932
0.202113
0.241407
0.318434
0.471631
0.870713
1.07151
1.02717
0.803226
0.471629
0.25751
0.180186
0.164381
0.153566
0.151429
0.16203
0.231
0.537754
0.717105
0.612258
0.422376
0.233199
0.213617
0.328667
0.756882
0.216603
0.398626
0.576753
0.485349
0.460911
3.05875
2.32217
1.93207
1.69741
1.56691
1.47593
1.39777
1.33038
1.26661
1.20417
1.13908
1.0699
0.983875
0.869999
0.725394
0.555108
0.378734
0.245671
0.197199
0.219093
0.286644
0.374553
0.448901
0.48231
0.46222
0.416515
0.386145
0.385174
0.404215
0.415232
0.388539
0.338407
0.287569
0.252925
0.216199
0.203134
0.206156
0.211945
0.230296
0.288865
0.368814
0.534688
1.20796
2.148
2.02243
1.53165
1.0041
0.988434
1.65498
2.56642
2.29774
1.96393
1.40433
1.01986
0.524859
0.31189
0.277075
0.246035
0.238122
0.246693
0.195754
0.21331
0.207672
0.240005
0.26721
0.351493
0.41322
0.565438
0.56678
0.646253
0.706538
0.921077
1.04085
1.36721
1.43947
1.45833
1.27973
0.789194
0.494788
0.318509
0.223
0.223581
0.250428
0.250948
0.260861
0.285492
0.350268
0.510686
0.707571
0.84366
0.900227
0.587696
0.502641
0.552923
1.65922
0.727894
0.772096
0.561693
0.615134
0.736114
1.98274
1.59627
1.42775
1.33454
1.26179
1.17959
1.0825
0.975544
0.870592
0.769023
0.666438
0.562578
0.452833
0.337713
0.230938
0.151093
0.107466
0.0991749
0.118219
0.172796
0.27832
0.466667
0.747758
1.06417
1.25598
1.31348
1.14587
0.850083
0.589777
0.382842
0.266021
0.217835
0.237251
0.3292
0.452166
0.588922
0.713578
0.830175
1.08009
1.49526
2.12426
3.08716
3.65286
3.11728
1.62506
1.4362
1.71656
2.15299
2.03805
1.2904
1.83961
3.07858
3.83668
4.16242
3.7743
2.62437
1.88271
0.925924
0.742317
0.249444
0.208718
0.315081
0.446856
0.828799
1.08129
1.54719
1.62416
1.74537
1.69033
1.9061
1.92245
2.11879
2.01486
2.04474
1.60722
1.26166
0.724068
0.520266
0.32736
0.306186
0.288515
0.35896
0.471943
0.594024
0.750992
1.18442
1.28865
1.1096
0.748807
0.763458
1.24777
1.63275
2.19364
1.1739
3.71323
2.01188
1.63198
1.12468
2.04308
4.15541
0.0289328
0.0313251
0.0665054
0.244099
0.187215
0.0834061
0.0865279
0.0979861
0.124411
0.198997
0.203425
0.259805
0.1828
0.361297
1.3155
1.76905
1.70629
1.20852
1.14359
0.663714
0.440567
0.383143
0.381362
0.57669
1.01303
0.862393
0.540085
0.620281
0.874026
1.10035
0.966284
0.989087
2.92221
4.75726
5.49391
5.2362
3.38931
1.9241
1.19628
0.790221
0.63547
0.855882
1.47854
2.75585
4.35313
5.98317
7.14429
7.33011
6.83904
5.21018
3.24214
1.71836
0.758641
0.281798
0.129736
0.101049
0.102076
0.104562
0.120252
0.142848
0.144114
0.126051
0.123064
0.171802
0.301193
0.502517
0.636021
0.568811
0.296891
0.219254
0.291934
0.596304
1.16259
1.59413
1.6747
1.81994
1.55366
1.36201
1.17227
0.654032
0.491127
0.345721
0.284185
0.260804
0.29252
0.3803
0.533448
0.745651
0.930872
0.947097
0.767671
0.53033
0.387129
0.332974
0.328783
0.348678
0.336167
0.2199
0.106053
0.02896
0.0445734
0.0461938
0.0919139
0.0987123
0.148311
0.129189
0.0978634
0.0792933
0.0834761
0.0908416
0.102959
0.128029
0.158651
0.375536
0.737852
0.599568
0.481433
0.451712
0.497149
0.505071
0.430491
0.442748
0.501758
0.488972
0.438602
0.533747
0.536319
0.48268
0.424368
0.526984
1.39567
2.52441
2.81551
2.31623
1.62324
0.877471
0.540709
0.492259
0.527496
0.564683
0.565269
0.542659
0.560803
0.634966
0.807825
1.08422
1.59282
2.43795
3.68402
4.06256
3.85663
3.15118
1.86297
0.810268
0.292685
0.148268
0.114138
0.0876879
0.0732872
0.0694134
0.0647318
0.069546
0.0843882
0.10072
0.125236
0.142965
0.192937
0.266803
0.248282
0.296022
0.479929
0.703685
0.818026
0.648615
0.434661
0.481311
0.238233
0.27224
0.186139
0.177088
0.18108
0.175286
0.190523
0.203983
0.222164
0.242292
0.277593
0.335623
0.472363
0.779353
0.907811
0.866707
0.651766
0.458087
0.327118
0.259511
0.245466
0.199065
0.0986673
0.0366838
0.0506998
0.0584022
0.0850517
0.0757461
0.109087
0.135198
0.0820909
0.067345
0.0837839
0.110954
0.135334
0.180588
0.182831
0.330115
0.508839
0.416129
0.414676
0.494189
0.518971
0.581638
0.522863
0.510856
0.519782
0.558767
0.396745
0.299722
0.299468
0.248864
0.2981
0.797316
1.84001
2.2113
1.43014
0.731496
0.464012
0.339595
0.298129
0.286259
0.324079
0.307866
0.306704
0.310418
0.314261
0.313791
0.315129
0.322665
0.348564
0.438951
0.705582
1.2598
2.35111
2.5473
2.29109
1.55684
0.73507
0.306071
0.164866
0.109737
0.0753219
0.0604211
0.0555717
0.0618077
0.074944
0.0899723
0.107022
0.124773
0.124139
0.147285
0.217891
0.312178
0.424531
0.479068
0.319355
0.224668
0.159764
0.17992
0.137063
0.149202
0.158188
0.149786
0.168499
0.153522
0.161693
0.160334
0.161771
0.163191
0.165946
0.173638
0.192899
0.242934
0.437349
0.661004
0.638748
0.475685
0.24508
0.134363
0.120037
0.12361
0.0883691
0.0381487
0.054688
0.0782941
0.0788478
0.0685948
0.0883388
0.135639
0.0790595
0.0758377
0.113594
0.152299
0.230289
0.28191
0.252247
0.306827
0.447728
0.436851
0.403153
0.390538
0.384136
0.459643
0.483569
0.468167
0.467643
0.502013
0.533877
0.327421
0.206178
0.18848
0.354521
1.11107
1.75168
1.3519
0.622382
0.375449
0.303767
0.273619
0.228619
0.203218
0.23649
0.208876
0.206935
0.213002
0.225273
0.225899
0.223374
0.219716
0.220378
0.2243
0.251756
0.355177
0.644314
1.3432
1.81952
1.68499
1.21159
0.621671
0.303721
0.176089
0.104326
0.0726934
0.0621529
0.0716243
0.0826578
0.0933441
0.0986026
0.117068
0.12508
0.13413
0.195974
0.289126
0.302154
0.27494
0.171852
0.134278
0.120266
0.131559
0.13072
0.141369
0.157999
0.145027
0.163103
0.150992
0.156306
0.153574
0.143466
0.14061
0.137107
0.136534
0.140586
0.151649
0.185468
0.312564
0.483775
0.453959
0.293811
0.146638
0.104513
0.099954
0.0690441
0.0364229
0.0589204
0.088391
0.0791153
0.0657366
0.0795199
0.133499
0.0809195
0.0969086
0.151513
0.21337
0.291706
0.315865
0.274585
0.294433
0.414696
0.419052
0.295537
0.264253
0.277963
0.324693
0.349461
0.382912
0.425055
0.474173
0.58621
0.438054
0.230206
0.215197
0.491831
1.20389
1.4711
0.738168
0.37267
0.288806
0.270415
0.231353
0.199219
0.159962
0.176546
0.161782
0.159543
0.169478
0.186104
0.189121
0.189389
0.190455
0.191005
0.190742
0.191333
0.203177
0.262227
0.465016
1.04404
1.42519
1.31871
0.926987
0.519114
0.308076
0.186922
0.119926
0.0906316
0.0937664
0.0969967
0.0967807
0.0959135
0.101812
0.118632
0.126378
0.182104
0.255126
0.224371
0.184075
0.129009
0.109726
0.107569
0.111829
0.133895
0.14197
0.173718
0.145052
0.154491
0.150901
0.154733
0.152355
0.133783
0.114415
0.108904
0.112
0.123931
0.127617
0.137443
0.16941
0.293635
0.380458
0.345084
0.201375
0.122733
0.092796
0.0514162
0.0341796
0.065072
0.0939978
0.0799727
0.0641276
0.0737417
0.133217
0.0863657
0.125089
0.197686
0.275571
0.347336
0.353989
0.304645
0.301807
0.379855
0.363733
0.243562
0.240414
0.267835
0.300609
0.29746
0.335187
0.397126
0.462648
0.555988
0.504155
0.261122
0.24986
0.611281
1.1911
1.04468
0.467759
0.285962
0.255725
0.251241
0.190186
0.160078
0.137724
0.139794
0.134891
0.139305
0.152661
0.168684
0.175589
0.177798
0.184804
0.185835
0.18502
0.179015
0.17631
0.184341
0.23565
0.434536
0.992441
1.18638
1.06667
0.710721
0.446656
0.298395
0.198978
0.138177
0.119871
0.115102
0.106839
0.0997464
0.102655
0.109966
0.119912
0.166516
0.236634
0.192014
0.139847
0.107854
0.100356
0.112048
0.113489
0.146633
0.150248
0.193247
0.159809
0.157071
0.152172
0.154831
0.150956
0.133376
0.0997884
0.0858836
0.0856224
0.0995393
0.118889
0.123339
0.135116
0.175048
0.299845
0.321175
0.283169
0.164222
0.100249
0.0484243
0.0328998
0.0707801
0.0992222
0.0828767
0.0634776
0.0709683
0.137052
0.0956867
0.161671
0.24327
0.327553
0.370709
0.371452
0.327314
0.315465
0.346267
0.311055
0.227586
0.234007
0.247118
0.294568
0.289831
0.31519
0.392552
0.43709
0.527957
0.562314
0.304441
0.28829
0.676439
1.12773
0.718027
0.340419
0.248217
0.238546
0.244115
0.174953
0.134555
0.125937
0.125692
0.124574
0.131206
0.147155
0.159719
0.172544
0.176371
0.186384
0.188417
0.186241
0.180964
0.167506
0.165462
0.17524
0.239679
0.53351
0.956162
0.998085
0.844692
0.552075
0.382541
0.273655
0.191616
0.154416
0.141314
0.123979
0.106227
0.106566
0.115039
0.116677
0.150525
0.200854
0.155629
0.115271
0.0979085
0.0983499
0.113838
0.112049
0.157174
0.173214
0.175661
0.175693
0.163967
0.152061
0.14581
0.142199
0.126523
0.0944821
0.077882
0.0761072
0.0865227
0.112131
0.120833
0.124682
0.138869
0.21266
0.293247
0.284353
0.209396
0.11834
0.0536005
0.0396773
0.0772814
0.103342
0.0860213
0.0642312
0.0711562
0.137693
0.113756
0.18826
0.259406
0.331279
0.365005
0.366349
0.328226
0.310058
0.297776
0.252249
0.204531
0.211543
0.237249
0.268285
0.263424
0.285906
0.379647
0.410593
0.529851
0.631289
0.388368
0.349405
0.71469
0.967909
0.517071
0.276199
0.227273
0.215325
0.195815
0.16283
0.123685
0.122983
0.121487
0.121736
0.128569
0.145992
0.155571
0.177037
0.188774
0.200366
0.201499
0.196791
0.182792
0.167295
0.157781
0.158539
0.176134
0.281324
0.662736
0.884386
0.842727
0.641294
0.436801
0.315718
0.22932
0.177995
0.160815
0.14619
0.120904
0.108924
0.119533
0.118668
0.135932
0.17983
0.127283
0.0967701
0.0930205
0.0919218
0.104023
0.108059
0.160388
0.181892
0.147312
0.164997
0.157901
0.146494
0.121203
0.119993
0.112921
0.0916752
0.0756402
0.0730128
0.0800045
0.107921
0.123033
0.124267
0.128218
0.155847
0.262138
0.281875
0.234883
0.130902
0.0628288
0.0430935
0.0841629
0.106757
0.0914434
0.0672964
0.0705718
0.136001
0.124976
0.203179
0.257541
0.30586
0.322925
0.321456
0.30779
0.301844
0.276033
0.224423
0.208244
0.231761
0.279208
0.261522
0.23916
0.238355
0.316427
0.375875
0.51315
0.637455
0.516024
0.423822
0.745625
0.785047
0.416418
0.254823
0.226155
0.208313
0.15929
0.142615
0.120876
0.122706
0.121185
0.121826
0.128321
0.146476
0.155268
0.197267
0.226497
0.236557
0.235545
0.225488
0.194371
0.167269
0.154091
0.152675
0.156938
0.193293
0.397063
0.736717
0.797791
0.710019
0.483388
0.339434
0.244813
0.186671
0.167899
0.156708
0.144591
0.119496
0.120247
0.124777
0.130493
0.166533
0.126002
0.0909604
0.0961346
0.0898102
0.0989787
0.113086
0.138823
0.169909
0.137489
0.125004
0.122141
0.117722
0.0903694
0.0869789
0.090776
0.0854332
0.0743989
0.0717919
0.0755557
0.105367
0.125445
0.130917
0.129094
0.137526
0.211572
0.282711
0.253318
0.159451
0.0803881
0.0641955
0.0900689
0.112351
0.099858
0.0731253
0.0717695
0.1329
0.127007
0.208474
0.247821
0.269231
0.275944
0.282716
0.29948
0.304979
0.2836
0.233737
0.231164
0.256051
0.304674
0.266852
0.229764
0.210648
0.289219
0.326491
0.452752
0.633171
0.65672
0.502532
0.767007
0.634821
0.372904
0.251099
0.226894
0.195903
0.144701
0.133709
0.121615
0.124769
0.125936
0.126029
0.132222
0.149543
0.164258
0.23371
0.293401
0.296616
0.291963
0.274511
0.22767
0.174405
0.151988
0.148755
0.150798
0.163452
0.244866
0.547125
0.709243
0.688735
0.533319
0.363426
0.251602
0.184087
0.165694
0.159178
0.154281
0.140245
0.126632
0.128121
0.131112
0.14428
0.129732
0.0925172
0.120766
0.0858546
0.0998149
0.143891
0.122288
0.171851
0.117079
0.0948891
0.0959522
0.0893338
0.0695432
0.0661017
0.0706753
0.07278
0.068136
0.0667306
0.0706582
0.100982
0.134231
0.143143
0.137308
0.135117
0.171111
0.274113
0.270425
0.180191
0.118901
0.0933402
0.0966672
0.119234
0.110602
0.0804158
0.0747185
0.12576
0.123887
0.209606
0.249751
0.267944
0.277059
0.297477
0.328298
0.336742
0.329724
0.279858
0.27921
0.274638
0.264286
0.22548
0.196984
0.182322
0.268064