/*--------------------------------*- C++ -*----------------------------------*\
| =========                 |                                                 |
| \\      /  F ield         | OpenFOAM: The Open Source CFD Toolbox           |
|  \\    /   O peration     | Version:  2.4.0                                 |
|   \\  /    A nd           | Web:      www.OpenFOAM.org                      |
|    \\/     M anipulation  |                                                 |
\*---------------------------------------------------------------------------*/
FoamFile
{
    version     2.0;
    format      ascii;
    class       volVectorField;
    location    "0.19";
    object      U_0;
}
// * * * * * * * * * * * * * * * * * * * * * * * * * * * * * * * * * * * * * //

dimensions      [0 1 -1 0 0 0 0];

internalField   nonuniform List<vector> 
4400
(
(5.40485 0.316766 0)
(3.31412 0.0607045 0)
(2.58463 0.00146478 0)
(2.2349 -0.00224903 0)
(2.0824 -0.00130357 0)
(1.99942 -0.000844743 0)
(1.95879 -0.000304838 0)
(1.91313 5.26236e-05 0)
(1.95642 -7.95585e-05 0)
(1.62121 -0.0591408 0)
(8.68939 0.857381 0)
(7.53453 0.344606 0)
(6.633 0.116094 0)
(5.91429 0.0546489 0)
(5.52093 0.0272517 0)
(5.27771 0.0142566 0)
(5.15733 0.0106817 0)
(5.01623 0.00293779 0)
(5.11945 0.0189591 0)
(4.49874 -0.0887038 0)
(9.89968 0.937358 0)
(9.9795 0.477221 0)
(9.49802 0.212408 0)
(8.75823 0.129353 0)
(8.26867 0.0760733 0)
(7.91891 0.0424238 0)
(7.75113 0.0315282 0)
(7.52697 0.00838402 0)
(7.68857 0.0412017 0)
(6.84157 -0.102339 0)
(10.1395 0.807652 0)
(11.098 0.49844 0)
(11.2765 0.264174 0)
(10.8347 0.196623 0)
(10.4452 0.132409 0)
(10.085 0.0788526 0)
(9.92708 0.0601084 0)
(9.6626 0.0163639 0)
(9.8464 0.0691369 0)
(8.93786 -0.102552 0)
(10.0796 0.647582 0)
(11.3027 0.437643 0)
(11.9826 0.242907 0)
(11.9748 0.217169 0)
(11.8734 0.168701 0)
(11.644 0.110161 0)
(11.5781 0.0870063 0)
(11.375 0.0270921 0)
(11.5102 0.0968666 0)
(10.7527 -0.0923958 0)
(10.0626 0.515659 0)
(11.2248 0.363723 0)
(12.0367 0.181259 0)
(12.2773 0.184818 0)
(12.4507 0.162279 0)
(12.4342 0.114449 0)
(12.5413 0.0959835 0)
(12.5289 0.0318413 0)
(12.5661 0.117988 0)
(12.1754 -0.0788613 0)
(10.0727 0.394812 0)
(11.1636 0.297832 0)
(11.957 0.12731 0)
(12.2793 0.139481 0)
(12.5206 0.13058 0)
(12.5905 0.0940227 0)
(12.8599 0.0705751 0)
(12.9735 0.0325926 0)
(12.9772 0.1015 0)
(13.071 -0.0543034 0)
(10.0637 0.271793 0)
(11.1084 0.231628 0)
(11.8991 0.0759637 0)
(12.2654 0.0989883 0)
(12.4752 0.0955219 0)
(12.5985 0.0697211 0)
(12.8714 0.0365166 0)
(12.9098 0.0343684 0)
(13.1048 0.0516966 0)
(13.3838 -0.0822673 0)
(10.0064 0.165067 0)
(11.1085 0.14389 0)
(11.9043 0.0356213 0)
(12.1975 0.0555487 0)
(12.4009 0.0654442 0)
(12.6236 0.035058 0)
(12.7873 0.0279633 0)
(12.9306 0.00125129 0)
(13.1873 0.0119485 0)
(13.2834 -0.133632 0)
(9.98411 0.0507686 0)
(11.1479 0.055729 0)
(11.8609 0.000290463 0)
(12.1547 0.0259384 0)
(12.3809 0.0209668 0)
(12.6278 0.0090731 0)
(12.7817 -0.00513178 0)
(12.9633 -0.0184164 0)
(13.101 -0.0144539 0)
(13.2419 -0.16637 0)
(9.99777 -0.0596595 0)
(11.118 -0.0319459 0)
(11.8537 -0.0264359 0)
(12.1832 -0.017598 0)
(12.4006 -0.0182007 0)
(12.6112 -0.0256244 0)
(12.772 -0.0207711 0)
(12.9209 -0.0400105 0)
(13.1203 -0.0560622 0)
(13.2653 -0.18409 0)
(10.0006 -0.170553 0)
(11.1128 -0.119416 0)
(11.9042 -0.0664459 0)
(12.2005 -0.0540326 0)
(12.3932 -0.0533763 0)
(12.6072 -0.0535191 0)
(12.7883 -0.0448807 0)
(12.9647 -0.0698819 0)
(13.1411 -0.0793247 0)
(13.2451 -0.205106 0)
(10.0255 -0.281491 0)
(11.1337 -0.208695 0)
(11.9411 -0.101391 0)
(12.181 -0.0885887 0)
(12.4498 -0.0919773 0)
(12.6407 -0.0868552 0)
(12.8498 -0.0710982 0)
(12.9687 -0.0874605 0)
(13.149 -0.110266 0)
(13.2363 -0.228119 0)
(10.0437 -0.39887 0)
(11.1493 -0.284524 0)
(11.9937 -0.143033 0)
(12.2043 -0.130066 0)
(12.55 -0.132385 0)
(12.6255 -0.114762 0)
(12.864 -0.092871 0)
(12.8762 -0.107504 0)
(13.0566 -0.133221 0)
(12.9932 -0.246805 0)
(10.023 -0.517788 0)
(11.2267 -0.355223 0)
(12.0555 -0.194266 0)
(12.2404 -0.177156 0)
(12.499 -0.167355 0)
(12.4144 -0.133912 0)
(12.5606 -0.106995 0)
(12.3951 -0.113902 0)
(12.4685 -0.134554 0)
(12.1835 -0.236821 0)
(10.0465 -0.647618 0)
(11.3242 -0.433628 0)
(11.9859 -0.251207 0)
(11.9554 -0.211667 0)
(11.9073 -0.1741 0)
(11.6036 -0.12523 0)
(11.5693 -0.0970554 0)
(11.2671 -0.0937204 0)
(11.2331 -0.123048 0)
(10.8174 -0.176299 0)
(10.1194 -0.807562 0)
(11.1184 -0.496606 0)
(11.2704 -0.269063 0)
(10.8224 -0.193535 0)
(10.468 -0.136601 0)
(10.0363 -0.0900381 0)
(9.90353 -0.0680896 0)
(9.56203 -0.065766 0)
(9.48676 -0.0948971 0)
(8.99777 -0.108354 0)
(9.88914 -0.937461 0)
(9.99399 -0.476374 0)
(9.48934 -0.214957 0)
(8.75096 -0.128016 0)
(8.28131 -0.0786366 0)
(7.87151 -0.0495243 0)
(7.72289 -0.0376372 0)
(7.41962 -0.0390314 0)
(7.33735 -0.0588214 0)
(6.83104 -0.0646827 0)
(8.68423 -0.857426 0)
(7.54241 -0.344222 0)
(6.62672 -0.117087 0)
(5.90979 -0.0544212 0)
(5.52502 -0.0281664 0)
(5.24071 -0.0178984 0)
(5.12756 -0.0141541 0)
(4.91461 -0.0169353 0)
(4.83532 -0.0270491 0)
(4.42004 -0.0286117 0)
(5.40371 -0.31684 0)
(3.31603 -0.0606533 0)
(2.58294 -0.00158055 0)
(2.23195 0.00215685 0)
(2.08188 0.00146077 0)
(1.9817 0.000134441 0)
(1.93695 2.9456e-05 0)
(1.85404 -0.00123851 0)
(1.80149 -0.00232623 0)
(1.61002 0.00782006 0)
(2.69871 0.0755002 0)
(2.55441 -0.162703 0)
(3.70626 -0.254267 0)
(3.16417 -0.464623 0)
(4.13302 -0.43917 0)
(3.10293 0.161538 0)
(3.79194 -0.0493959 0)
(3.76117 0.364738 0)
(4.48965 0.269656 0)
(4.47335 0.280537 0)
(5.13516 0.628229 0)
(6.17803 0.232774 0)
(6.30144 -0.11803 0)
(7.0614 -0.207476 0)
(8.27004 -0.599382 0)
(8.34865 -0.931838 0)
(8.57417 -1.26736 0)
(9.60101 -1.79588 0)
(10.037 -2.05999 0)
(10.4639 -2.23857 0)
(11.6913 -3.093 0)
(12.2269 -3.68404 0)
(11.9734 -3.29402 0)
(12.3651 -3.69236 0)
(12.1693 -3.7981 0)
(10.858 -2.90102 0)
(10.591 -1.63371 0)
(9.91809 -0.276316 0)
(8.77849 1.51723 0)
(9.60901 2.82035 0)
(10.3489 3.30921 0)
(10.6761 3.16076 0)
(11.2284 2.1168 0)
(11.3974 0.921883 0)
(11.4835 -0.497843 0)
(11.3553 -2.17421 0)
(10.7444 -3.1494 0)
(9.84797 -3.41126 0)
(8.91348 -3.78514 0)
(7.90707 -4.04486 0)
(6.58735 -3.08328 0)
(4.91503 -1.71027 0)
(3.53097 -1.97385 0)
(2.51792 -4.54019 0)
(1.5548 -8.39715 0)
(-0.0459487 -10.4011 0)
(2.13673 -8.31802 0)
(2.58082 -6.07685 0)
(3.21269 -4.51446 0)
(3.87446 -2.97952 0)
(5.21521 -1.39815 0)
(6.78558 0.137648 0)
(7.91328 1.58769 0)
(8.61736 2.40606 0)
(8.7448 3.03527 0)
(9.60988 4.62923 0)
(10.7761 6.95177 0)
(11.6008 8.71413 0)
(11.6623 9.16049 0)
(10.787 8.4942 0)
(10.4456 6.98821 0)
(9.49427 5.60932 0)
(9.06089 3.69793 0)
(8.26528 2.64631 0)
(7.34164 0.55017 0)
(7.32932 0.71069 0)
(6.88801 0.0199212 0)
(7.56024 1.14742 0)
(6.09748 0.650785 0)
(7.80182 2.11238 0)
(7.02525 2.20659 0)
(8.32419 3.00269 0)
(8.6168 1.29756 0)
(9.22649 1.81577 0)
(9.55197 0.200293 0)
(10.2497 -0.980982 0)
(9.37095 -2.48158 0)
(10.0667 -2.25059 0)
(8.0904 -2.88228 0)
(8.77921 -2.36586 0)
(8.05347 -3.12056 0)
(7.81042 -4.18348 0)
(8.17045 -3.30608 0)
(8.28886 -4.17953 0)
(7.97131 -4.68396 0)
(7.45074 -1.97279 0)
(6.59638 -1.71761 0)
(7.77373 -3.13384 0)
(8.25732 -3.89732 0)
(8.64735 -3.0009 0)
(8.76471 -2.49807 0)
(9.05614 -0.876597 0)
(9.23953 1.61856 0)
(9.00286 3.03004 0)
(8.4624 4.17119 0)
(8.5038 6.22027 0)
(8.37038 8.20598 0)
(7.29442 9.25873 0)
(7.42896 9.88768 0)
(3.99528 13.5191 0)
(5.42121 0.0613622 0)
(5.12667 -0.197803 0)
(5.78884 -0.362609 0)
(5.67174 -0.440412 0)
(5.9623 -0.485003 0)
(5.75418 0.11386 0)
(5.93682 -0.0445476 0)
(5.75085 0.24352 0)
(6.6715 0.230012 0)
(6.39587 0.100422 0)
(6.6737 0.325042 0)
(7.92279 0.0729928 0)
(7.98503 -0.257008 0)
(8.35436 -0.481361 0)
(9.52061 -0.923646 0)
(9.73512 -1.13407 0)
(10.1452 -1.43351 0)
(11.2034 -2.0233 0)
(11.5101 -2.33018 0)
(11.94 -2.57534 0)
(12.8736 -3.31042 0)
(13.1651 -3.8415 0)
(12.6143 -3.30825 0)
(12.8523 -3.55537 0)
(12.6962 -3.64516 0)
(11.3417 -2.5333 0)
(10.896 -1.36125 0)
(10.3497 -0.0966908 0)
(9.47257 1.53785 0)
(10.1355 2.62158 0)
(10.8239 3.11381 0)
(11.1913 2.97174 0)
(11.6953 1.94348 0)
(11.8714 0.859545 0)
(11.8264 -0.423732 0)
(11.658 -2.0195 0)
(10.9158 -2.85015 0)
(9.97007 -2.9878 0)
(8.90293 -3.36171 0)
(7.96957 -3.57956 0)
(6.67402 -2.51393 0)
(5.04279 -1.05786 0)
(3.56233 -1.41756 0)
(2.46569 -4.12839 0)
(1.26748 -7.86332 0)
(-0.280023 -10.524 0)
(1.66253 -8.74679 0)
(1.81774 -6.26258 0)
(2.58454 -4.80909 0)
(3.41665 -3.42162 0)
(4.60068 -2.00514 0)
(6.14712 -0.397961 0)
(7.31989 1.23704 0)
(8.10097 2.21895 0)
(8.2053 2.82955 0)
(8.97707 4.22304 0)
(9.99592 6.49815 0)
(10.8851 8.50837 0)
(11.284 9.22778 0)
(10.73 8.68041 0)
(10.4393 7.16895 0)
(9.86379 5.94519 0)
(9.36443 3.91502 0)
(9.01238 3.05027 0)
(7.80788 0.715732 0)
(8.00531 0.811804 0)
(7.12784 0.00250064 0)
(8.31691 1.18951 0)
(6.81778 0.721532 0)
(8.16003 1.71848 0)
(7.92539 2.16686 0)
(8.85301 2.76495 0)
(8.86955 1.07472 0)
(9.76422 1.57127 0)
(9.92124 0.159409 0)
(10.3864 -1.02274 0)
(9.67281 -2.46764 0)
(10.053 -2.01247 0)
(8.70036 -2.53718 0)
(8.69778 -2.34538 0)
(8.57815 -2.92207 0)
(8.14445 -4.24328 0)
(8.44526 -3.35477 0)
(8.47824 -4.04554 0)
(8.01725 -4.47845 0)
(7.71595 -1.70208 0)
(6.40475 -1.877 0)
(7.71121 -3.31621 0)
(8.28638 -4.09461 0)
(8.58736 -3.09811 0)
(8.50862 -2.55922 0)
(8.83664 -0.991001 0)
(8.99845 1.65692 0)
(8.74263 3.0964 0)
(8.5806 4.19438 0)
(8.576 6.17579 0)
(8.5864 8.3233 0)
(7.65347 9.74729 0)
(8.50575 9.93458 0)
(5.53957 14.5523 0)
(7.80447 -0.0994843 0)
(7.7515 -0.240212 0)
(7.90445 -0.438732 0)
(8.20871 -0.444295 0)
(7.9355 -0.482516 0)
(8.07161 -0.0187804 0)
(8.27246 -0.00388609 0)
(7.75854 0.157771 0)
(8.69693 0.10764 0)
(8.67786 0.035009 0)
(8.51428 0.116362 0)
(9.7201 -0.211071 0)
(9.86752 -0.424005 0)
(10.0967 -0.647681 0)
(11.2336 -1.14743 0)
(11.3983 -1.32374 0)
(11.6417 -1.65916 0)
(12.6183 -2.25174 0)
(12.8706 -2.5307 0)
(13.1806 -2.79115 0)
(13.7617 -3.31744 0)
(13.7577 -3.75317 0)
(13.0925 -3.25748 0)
(13.1486 -3.35972 0)
(12.9312 -3.42412 0)
(11.653 -2.16112 0)
(11.2756 -1.03043 0)
(10.6473 0.0638846 0)
(9.88524 1.54288 0)
(10.466 2.46087 0)
(11.1469 2.92599 0)
(11.508 2.8026 0)
(12.0095 1.82661 0)
(12.1175 0.858591 0)
(12.0281 -0.354599 0)
(11.8534 -1.80786 0)
(10.8941 -2.47654 0)
(9.85865 -2.58573 0)
(8.86983 -2.9678 0)
(8.04707 -3.13079 0)
(6.70594 -1.98784 0)
(5.16988 -0.431346 0)
(3.66438 -0.871875 0)
(2.52455 -3.64016 0)
(1.4126 -7.41025 0)
(-0.167559 -10.5722 0)
(1.16048 -9.07216 0)
(1.24281 -6.40053 0)
(2.1528 -5.2206 0)
(3.13441 -3.88797 0)
(4.24644 -2.55541 0)
(5.45994 -0.899703 0)
(6.67708 0.830056 0)
(7.56983 1.95191 0)
(7.61135 2.69689 0)
(8.12895 4.00982 0)
(9.22644 6.1021 0)
(10.1782 8.13032 0)
(10.7516 9.12331 0)
(10.4216 8.8391 0)
(10.1505 7.26797 0)
(10.0792 6.18068 0)
(9.57843 4.05855 0)
(9.67268 3.41028 0)
(8.27158 0.999508 0)
(8.52295 0.921042 0)
(7.50601 0.036567 0)
(8.60217 1.12098 0)
(7.76734 0.928723 0)
(8.34334 1.34859 0)
(8.33706 1.94186 0)
(9.61308 2.67569 0)
(8.88303 1.01274 0)
(10.0973 1.17755 0)
(10.1404 0.169711 0)
(10.4106 -0.931212 0)
(9.86856 -2.36426 0)
(9.82473 -1.90564 0)
(9.18535 -2.27192 0)
(8.677 -2.29346 0)
(9.11944 -2.76341 0)
(8.32545 -4.14195 0)
(8.54448 -3.52938 0)
(8.60264 -3.99579 0)
(7.84245 -4.23909 0)
(7.85197 -1.42124 0)
(6.24382 -2.01033 0)
(7.65095 -3.56912 0)
(8.19143 -4.33078 0)
(8.35877 -3.14087 0)
(8.07785 -2.49752 0)
(8.293 -0.94967 0)
(8.47254 1.72757 0)
(8.47914 3.2167 0)
(8.40126 4.27505 0)
(8.63886 6.18854 0)
(9.01634 8.16485 0)
(7.93209 10.1985 0)
(9.99452 9.707 0)
(6.95042 14.7851 0)
(9.76587 -0.262183 0)
(9.96124 -0.285334 0)
(9.79651 -0.428187 0)
(10.3195 -0.478203 0)
(9.92865 -0.378773 0)
(9.99264 -0.152716 0)
(10.3552 -0.00298427 0)
(9.69702 0.204782 0)
(10.4221 -0.0358395 0)
(10.5825 -0.061574 0)
(10.2695 0.00280699 0)
(11.2789 -0.470652 0)
(11.4993 -0.594552 0)
(11.6392 -0.781943 0)
(12.5278 -1.37263 0)
(12.7725 -1.51921 0)
(12.998 -1.78708 0)
(13.6244 -2.34615 0)
(13.7719 -2.66311 0)
(13.8886 -3.00361 0)
(14.0477 -3.35583 0)
(13.7867 -3.60288 0)
(13.2013 -3.22623 0)
(13.356 -3.18457 0)
(13.0991 -3.10611 0)
(11.6662 -1.82512 0)
(11.4062 -0.76868 0)
(11.0581 0.222646 0)
(10.2807 1.53205 0)
(10.7604 2.27978 0)
(11.3742 2.75378 0)
(11.6347 2.63686 0)
(12.1455 1.69765 0)
(12.1883 0.867373 0)
(12.1097 -0.268665 0)
(11.7746 -1.57715 0)
(10.6633 -2.07501 0)
(9.70183 -2.17587 0)
(8.83744 -2.62577 0)
(8.16356 -2.7063 0)
(6.83899 -1.43417 0)
(5.29673 0.165089 0)
(3.93264 -0.32197 0)
(2.75067 -3.13076 0)
(1.8455 -6.9521 0)
(0.0575032 -10.408 0)
(0.244552 -9.38457 0)
(1.06668 -6.63395 0)
(1.80055 -5.75928 0)
(2.62185 -4.46689 0)
(3.7924 -3.04753 0)
(4.7815 -1.33784 0)
(5.91213 0.451864 0)
(6.78089 1.71183 0)
(6.96084 2.53413 0)
(7.53686 3.6973 0)
(8.35577 5.7176 0)
(9.18749 7.87013 0)
(10.0875 8.93358 0)
(10.1685 8.85005 0)
(9.83071 7.27016 0)
(10.1219 6.32372 0)
(9.53254 4.08486 0)
(10.1333 3.62425 0)
(8.63325 1.30937 0)
(8.9131 0.976009 0)
(7.99265 0.177712 0)
(8.59922 0.889608 0)
(8.45153 1.01236 0)
(8.85076 1.20856 0)
(8.43223 1.66095 0)
(10.2381 2.47496 0)
(8.92967 1.0597 0)
(10.1801 0.876427 0)
(10.0811 0.141436 0)
(10.2771 -0.920746 0)
(10.0129 -2.21812 0)
(9.66834 -1.76689 0)
(9.53097 -2.02395 0)
(8.56168 -2.30732 0)
(9.49643 -2.73229 0)
(8.49036 -3.99289 0)
(8.69236 -3.51851 0)
(8.70365 -3.88004 0)
(7.47891 -3.90226 0)
(7.77384 -1.20102 0)
(6.08113 -2.2012 0)
(7.58287 -3.81056 0)
(7.97126 -4.51675 0)
(8.04609 -3.04867 0)
(7.69766 -2.39871 0)
(7.82518 -0.879493 0)
(8.35355 1.5174 0)
(8.40293 3.14878 0)
(8.31563 4.21378 0)
(8.45688 6.3338 0)
(9.22145 8.00764 0)
(7.91679 10.5247 0)
(11.0679 9.25794 0)
(8.21235 14.658 0)
(11.4201 -0.403764 0)
(11.6714 -0.384291 0)
(11.3905 -0.393923 0)
(11.872 -0.527426 0)
(11.5137 -0.287343 0)
(11.5157 -0.204551 0)
(11.9419 -0.0724949 0)
(11.3075 0.270916 0)
(11.8971 -0.117762 0)
(12.0442 -0.165371 0)
(11.7737 -0.0632049 0)
(12.584 -0.63052 0)
(12.7021 -0.790728 0)
(12.8243 -0.917145 0)
(13.4962 -1.46932 0)
(13.6411 -1.68922 0)
(13.79 -1.94114 0)
(14.0785 -2.43449 0)
(14.1502 -2.72392 0)
(14.1899 -3.019 0)
(13.9467 -3.23289 0)
(13.6333 -3.37347 0)
(13.2862 -3.18486 0)
(13.3495 -3.11294 0)
(13.087 -2.82452 0)
(11.8993 -1.51673 0)
(11.7275 -0.568538 0)
(11.4254 0.34976 0)
(10.6399 1.54485 0)
(11.0808 2.17509 0)
(11.4201 2.62905 0)
(11.6638 2.4504 0)
(12.1407 1.59247 0)
(12.0216 0.898277 0)
(11.9285 -0.183018 0)
(11.4263 -1.29972 0)
(10.2862 -1.68053 0)
(9.5847 -1.82724 0)
(8.92051 -2.30552 0)
(8.20369 -2.3358 0)
(6.96052 -0.936479 0)
(5.42909 0.714255 0)
(4.2812 0.248126 0)
(3.1418 -2.66853 0)
(2.2476 -6.40853 0)
(0.237922 -9.86166 0)
(-0.946293 -9.63883 0)
(1.0426 -6.9888 0)
(1.27895 -6.09205 0)
(1.75342 -4.91412 0)
(3.04746 -3.48116 0)
(3.92263 -1.69953 0)
(5.02053 0.0809702 0)
(5.90411 1.4153 0)
(6.23538 2.39651 0)
(6.58968 3.58391 0)
(7.41573 5.40875 0)
(8.42717 7.38556 0)
(9.25307 8.58309 0)
(9.67156 8.84045 0)
(9.31481 7.23841 0)
(10.0369 6.38216 0)
(9.39793 4.08636 0)
(10.4913 3.74699 0)
(8.82876 1.66147 0)
(9.21481 0.982594 0)
(8.31774 0.384127 0)
(8.6232 0.689478 0)
(8.64552 0.946557 0)
(9.4506 1.15609 0)
(8.58228 1.45976 0)
(10.6034 2.32432 0)
(9.23351 1.16832 0)
(10.0786 0.578464 0)
(10.0051 0.141484 0)
(10.1638 -0.851597 0)
(10.1165 -2.15742 0)
(9.57116 -1.74113 0)
(9.6611 -1.79812 0)
(8.82263 -2.30306 0)
(9.73133 -2.68273 0)
(8.62264 -3.7706 0)
(8.92978 -3.61198 0)
(8.79633 -3.65546 0)
(7.13344 -3.50509 0)
(7.66956 -0.888861 0)
(5.87403 -2.19694 0)
(7.41993 -3.99712 0)
(7.44959 -4.67412 0)
(7.64886 -3.0116 0)
(7.44994 -2.55377 0)
(7.77716 -0.991784 0)
(8.01619 1.30652 0)
(8.09441 3.16525 0)
(8.12456 4.00698 0)
(8.34338 6.21936 0)
(9.45828 7.65097 0)
(7.79212 10.7989 0)
(11.666 8.46962 0)
(9.13867 14.4456 0)
(12.7143 -0.496142 0)
(12.8385 -0.503507 0)
(12.5771 -0.388522 0)
(12.92 -0.550388 0)
(12.5322 -0.237363 0)
(12.5688 -0.21069 0)
(12.9178 -0.143147 0)
(12.3877 0.283158 0)
(12.9143 -0.145209 0)
(13.0332 -0.23623 0)
(12.8527 -0.153051 0)
(13.4542 -0.713583 0)
(13.5998 -0.89611 0)
(13.6442 -1.01614 0)
(14.04 -1.50884 0)
(14.1257 -1.80792 0)
(14.1138 -2.00425 0)
(14.1577 -2.39174 0)
(14.0575 -2.75899 0)
(13.9373 -3.03257 0)
(13.6105 -3.10473 0)
(13.437 -3.28509 0)
(13.4549 -3.23813 0)
(13.4722 -2.96437 0)
(13.0237 -2.54264 0)
(12.2367 -1.4177 0)
(12.2329 -0.478796 0)
(11.8561 0.549656 0)
(11.1537 1.60237 0)
(11.3894 2.13282 0)
(11.3382 2.58282 0)
(11.6431 2.25091 0)
(11.9231 1.50817 0)
(11.6051 0.970414 0)
(11.4748 -0.0682628 0)
(10.966 -0.980648 0)
(10.017 -1.27799 0)
(9.5268 -1.57156 0)
(8.99656 -2.05395 0)
(8.26744 -1.94441 0)
(7.07779 -0.434416 0)
(5.57978 1.22564 0)
(4.57488 0.734741 0)
(3.65734 -2.18424 0)
(2.54352 -5.78506 0)
(0.405352 -9.04679 0)
(-1.58316 -9.74532 0)
(0.97312 -7.42627 0)
(0.719867 -6.13922 0)
(1.00548 -5.20207 0)
(2.16504 -3.88256 0)
(2.96171 -2.04482 0)
(4.04258 -0.285272 0)
(4.85067 1.13447 0)
(5.20151 2.26091 0)
(5.75861 3.37234 0)
(6.49378 5.08862 0)
(7.22954 7.10213 0)
(8.22489 8.25722 0)
(9.23087 8.68923 0)
(8.65826 7.11957 0)
(9.81818 6.34597 0)
(9.0437 3.97546 0)
(10.6898 3.79712 0)
(8.91681 2.02684 0)
(9.2837 0.981917 0)
(8.5763 0.594611 0)
(8.76505 0.570144 0)
(8.43397 0.686636 0)
(9.93658 1.13503 0)
(8.87635 1.30266 0)
(10.7082 2.1064 0)
(9.74908 1.37502 0)
(10.0457 0.567795 0)
(9.91662 0.065409 0)
(10.1557 -0.896225 0)
(10.2422 -1.96192 0)
(9.71667 -1.64847 0)
(9.73191 -1.67831 0)
(9.13882 -2.33229 0)
(9.78589 -2.75165 0)
(8.97516 -3.55841 0)
(9.10493 -3.58663 0)
(8.99199 -3.37288 0)
(6.67321 -3.02946 0)
(7.52384 -0.775861 0)
(5.60959 -2.32072 0)
(7.22325 -4.12253 0)
(6.77393 -4.77594 0)
(7.23388 -2.92092 0)
(7.0068 -2.71511 0)
(7.19511 -0.765134 0)
(7.3266 1.30806 0)
(7.25803 3.45954 0)
(7.94794 3.89466 0)
(7.58258 6.35979 0)
(10.0346 7.15196 0)
(7.70743 10.9247 0)
(12.0885 7.56836 0)
(9.83642 13.9914 0)
(13.4394 -0.50364 0)
(13.3189 -0.571235 0)
(13.1539 -0.410406 0)
(13.3489 -0.533815 0)
(12.945 -0.20224 0)
(13.1073 -0.203558 0)
(13.2518 -0.190201 0)
(12.9248 0.216497 0)
(13.3588 -0.164609 0)
(13.4636 -0.313863 0)
(13.5136 -0.283826 0)
(13.8585 -0.738668 0)
(14.0068 -0.993533 0)
(14.0189 -1.13682 0)
(14.1309 -1.48169 0)
(14.1362 -1.83312 0)
(13.9747 -2.05438 0)
(13.8482 -2.35496 0)
(13.7454 -2.70361 0)
(13.6092 -2.98566 0)
(13.411 -3.05758 0)
(13.5095 -3.19942 0)
(13.5424 -3.27338 0)
(13.3726 -2.92286 0)
(13.0169 -2.37932 0)
(12.631 -1.37984 0)
(12.4735 -0.350446 0)
(12.0705 0.696511 0)
(11.7267 1.61856 0)
(11.6111 2.2165 0)
(11.2712 2.57176 0)
(11.5755 2.13809 0)
(11.4562 1.59078 0)
(11.0414 1.0618 0)
(11.0279 0.0507786 0)
(10.5699 -0.696056 0)
(9.82236 -1.00866 0)
(9.54883 -1.38548 0)
(9.03183 -1.79187 0)
(8.28239 -1.57622 0)
(7.13701 0.0175644 0)
(5.79065 1.68322 0)
(4.90007 1.16265 0)
(4.20754 -1.67193 0)
(2.89606 -5.13298 0)
(0.822866 -8.26843 0)
(-1.18631 -9.83374 0)
(0.687863 -7.81607 0)
(0.287889 -6.14327 0)
(0.510232 -5.50087 0)
(1.28749 -4.2589 0)
(1.87009 -2.42541 0)
(2.95314 -0.6224 0)
(3.68599 0.860071 0)
(4.17756 2.08987 0)
(4.70326 3.20149 0)
(5.25409 4.82767 0)
(6.40204 6.61989 0)
(7.16109 7.71648 0)
(8.46834 8.49266 0)
(8.02646 6.95256 0)
(9.52204 6.24978 0)
(8.34779 3.78408 0)
(10.6964 3.68952 0)
(9.22427 2.38172 0)
(9.17008 1.0028 0)
(8.67408 0.726466 0)
(9.00419 0.688602 0)
(8.02475 0.40423 0)
(10.0105 0.944406 0)
(9.28301 1.30522 0)
(10.5961 1.87607 0)
(10.2162 1.4648 0)
(10.1654 0.599253 0)
(10.0054 -0.0206333 0)
(10.3791 -0.934715 0)
(10.3034 -1.91757 0)
(9.7846 -1.58841 0)
(9.82722 -1.58459 0)
(9.62515 -2.24626 0)
(9.8248 -2.62246 0)
(9.27059 -3.42678 0)
(9.00884 -3.59958 0)
(9.04507 -2.99323 0)
(6.27571 -2.48784 0)
(7.51527 -0.637256 0)
(5.4368 -2.28661 0)
(6.967 -4.17808 0)
(5.92814 -4.8453 0)
(6.70653 -2.8565 0)
(6.33575 -2.9207 0)
(6.55815 -0.575031 0)
(6.94337 0.93172 0)
(6.87788 3.42622 0)
(7.9488 3.21921 0)
(7.01335 6.44241 0)
(10.024 6.4987 0)
(7.7398 11.1313 0)
(11.9538 6.7197 0)
(10.3257 13.4957 0)
(13.4799 -0.428947 0)
(13.2077 -0.526634 0)
(13.2195 -0.401172 0)
(13.2477 -0.428395 0)
(12.9665 -0.204045 0)
(13.2261 -0.204491 0)
(13.1787 -0.173024 0)
(13.0818 0.0897118 0)
(13.3923 -0.187203 0)
(13.5852 -0.372682 0)
(13.7739 -0.435432 0)
(13.9045 -0.739469 0)
(14.0679 -1.02259 0)
(13.9559 -1.18847 0)
(13.8401 -1.41866 0)
(13.826 -1.79516 0)
(13.6499 -2.05007 0)
(13.5274 -2.31393 0)
(13.5199 -2.66195 0)
(13.5232 -2.91663 0)
(13.3873 -3.08631 0)
(13.4702 -3.26651 0)
(13.5038 -3.24675 0)
(13.1608 -2.79049 0)
(12.8006 -2.24798 0)
(12.6083 -1.34884 0)
(12.3846 -0.20309 0)
(12.114 0.80466 0)
(11.8636 1.68038 0)
(11.4545 2.3976 0)
(11.1717 2.62623 0)
(11.2738 2.15414 0)
(10.8193 1.74038 0)
(10.6414 1.14901 0)
(10.7846 0.141571 0)
(10.3294 -0.471545 0)
(9.71841 -0.809605 0)
(9.57557 -1.23784 0)
(9.03836 -1.52348 0)
(8.25063 -1.19148 0)
(7.08749 0.442783 0)
(5.93633 2.08381 0)
(5.21611 1.50727 0)
(4.68959 -1.20966 0)
(3.45528 -4.44914 0)
(1.61116 -7.51991 0)
(-0.564585 -9.73217 0)
(-0.0345793 -7.96977 0)
(-0.0704106 -6.14039 0)
(-0.026781 -5.62413 0)
(0.20128 -4.46339 0)
(0.698302 -2.75917 0)
(1.81698 -0.932399 0)
(2.36829 0.58748 0)
(2.99558 1.88498 0)
(3.59353 2.94865 0)
(4.15672 4.49393 0)
(5.34896 6.34037 0)
(5.75625 7.29052 0)
(7.87896 8.11606 0)
(7.15601 6.72939 0)
(9.20178 6.18539 0)
(7.72463 3.54017 0)
(10.3248 3.43511 0)
(9.33834 2.70683 0)
(8.98078 1.14976 0)
(8.60697 0.673918 0)
(9.09759 0.891359 0)
(8.04115 0.22524 0)
(9.73269 0.578583 0)
(9.5761 1.24938 0)
(10.4777 1.68291 0)
(10.5892 1.52178 0)
(10.5463 0.776004 0)
(10.2825 -0.103408 0)
(10.6586 -0.962688 0)
(10.4175 -1.7266 0)
(9.87981 -1.43104 0)
(9.80636 -1.57694 0)
(9.85296 -2.26813 0)
(9.70517 -2.69374 0)
(9.61447 -3.23032 0)
(9.11405 -3.32072 0)
(8.75871 -2.54842 0)
(5.84602 -2.02911 0)
(7.25606 -0.623734 0)
(5.17062 -2.24833 0)
(6.37795 -4.15654 0)
(5.09748 -4.68766 0)
(6.14528 -2.88772 0)
(5.61383 -3.16909 0)
(5.93211 -0.455442 0)
(6.61482 0.640106 0)
(6.34872 3.40083 0)
(7.7202 2.87862 0)
(6.54369 6.57241 0)
(9.75227 5.63425 0)
(7.6723 11.363 0)
(11.5947 5.81258 0)
(10.458 12.8317 0)
(13.2421 -0.366906 0)
(13.1094 -0.457116 0)
(13.1947 -0.35254 0)
(13.1369 -0.346954 0)
(13.0802 -0.242361 0)
(13.1725 -0.185519 0)
(13.084 -0.178666 0)
(13.1718 -0.054193 0)
(13.3806 -0.213474 0)
(13.7319 -0.471163 0)
(13.8264 -0.586978 0)
(13.7479 -0.724232 0)
(13.9374 -1.00604 0)
(13.6834 -1.18398 0)
(13.5035 -1.33196 0)
(13.636 -1.74808 0)
(13.5836 -2.06555 0)
(13.5399 -2.24831 0)
(13.5025 -2.60399 0)
(13.4256 -2.93971 0)
(13.3271 -3.09339 0)
(13.2317 -3.21595 0)
(12.9944 -3.18432 0)
(12.5972 -2.70128 0)
(12.3118 -2.0999 0)
(12.0795 -1.24659 0)
(11.7235 -0.10918 0)
(11.578 0.90518 0)
(11.3793 1.82682 0)
(10.9937 2.54638 0)
(10.8488 2.67094 0)
(10.7745 2.29567 0)
(10.3603 1.90457 0)
(10.5073 1.12909 0)
(10.621 0.189324 0)
(10.0966 -0.253851 0)
(9.59029 -0.649072 0)
(9.47582 -1.09906 0)
(8.92037 -1.24464 0)
(8.12035 -0.789783 0)
(6.96783 0.851643 0)
(5.97306 2.41716 0)
(5.45005 1.79097 0)
(5.15341 -0.789498 0)
(4.1345 -3.77445 0)
(2.42219 -6.69468 0)
(-0.381045 -9.15977 0)
(-0.997067 -8.02578 0)
(-0.345257 -6.13926 0)
(-0.645925 -5.55476 0)
(-0.841924 -4.50526 0)
(-0.418743 -2.97207 0)
(0.517545 -1.20314 0)
(0.990486 0.310913 0)
(1.71862 1.66233 0)
(2.30592 2.68823 0)
(2.85203 4.21439 0)
(4.25965 5.98117 0)
(4.62385 6.65989 0)
(6.83986 7.73218 0)
(6.24072 6.4321 0)
(8.95363 5.9828 0)
(7.07761 3.29671 0)
(9.62186 3.11907 0)
(9.28588 2.8909 0)
(9.04655 1.36867 0)
(8.62378 0.626405 0)
(8.75544 1.00904 0)
(8.30452 0.118506 0)
(9.45075 0.268364 0)
(9.59999 1.14705 0)
(10.3492 1.49354 0)
(10.596 1.44754 0)
(10.8619 0.884072 0)
(10.5402 -0.108099 0)
(10.8887 -0.962015 0)
(10.4763 -1.53086 0)
(9.89012 -1.36372 0)
(9.82845 -1.60093 0)
(10.0341 -2.1609 0)
(9.76368 -2.56361 0)
(9.64797 -3.128 0)
(8.86877 -3.15199 0)
(8.31362 -2.15509 0)
(5.89957 -1.45163 0)
(6.68689 -0.484437 0)
(4.7928 -2.1642 0)
(5.61758 -4.15978 0)
(4.47456 -4.4638 0)
(5.74987 -2.88163 0)
(4.80121 -3.36628 0)
(5.3579 -0.316901 0)
(5.90428 0.134492 0)
(5.40977 3.78611 0)
(7.28073 2.20171 0)
(5.90001 6.87767 0)
(9.80343 4.57843 0)
(7.7959 11.3831 0)
(11.4189 5.32101 0)
(10.6087 12.0517 0)
(13.2452 -0.337135 0)
(13.1805 -0.39728 0)
(13.2278 -0.271749 0)
(13.1987 -0.277628 0)
(13.0856 -0.231813 0)
(13.1008 -0.134849 0)
(13.2019 -0.199683 0)
(13.2865 -0.207655 0)
(13.4495 -0.310511 0)
(13.7345 -0.520273 0)
(13.5546 -0.613628 0)
(13.4224 -0.689127 0)
(13.6556 -0.942052 0)
(13.4729 -1.16466 0)
(13.5225 -1.31536 0)
(13.7425 -1.68605 0)
(13.605 -2.05389 0)
(13.4139 -2.24253 0)
(13.2832 -2.5028 0)
(13.1053 -2.85359 0)
(12.856 -3.09378 0)
(12.6264 -3.14253 0)
(12.1923 -2.98301 0)
(11.6539 -2.52881 0)
(11.3255 -1.94648 0)
(10.9852 -1.07983 0)
(10.5784 0.0193434 0)
(10.5503 0.984919 0)
(10.5193 1.89935 0)
(10.3621 2.6188 0)
(10.3117 2.72773 0)
(10.2697 2.38559 0)
(10.179 1.925 0)
(10.4374 1.08735 0)
(10.2356 0.307522 0)
(9.65559 -0.0532376 0)
(9.34576 -0.520843 0)
(9.24724 -0.934571 0)
(8.64394 -0.957833 0)
(7.85171 -0.399602 0)
(6.78197 1.21799 0)
(5.93732 2.66847 0)
(5.59656 1.9733 0)
(5.57572 -0.486777 0)
(4.82761 -3.15434 0)
(3.07858 -5.75286 0)
(-0.235257 -8.16927 0)
(-1.85606 -8.0381 0)
(-0.584872 -6.2555 0)
(-1.23173 -5.42007 0)
(-1.65046 -4.52155 0)
(-1.42373 -3.16238 0)
(-0.780123 -1.4725 0)
(-0.303861 0.0235479 0)
(0.4397 1.37439 0)
(1.06463 2.38082 0)
(1.47761 3.90195 0)
(3.3441 5.64822 0)
(3.09451 6.16178 0)
(6.00006 7.18141 0)
(5.2569 5.89322 0)
(8.44113 5.81887 0)
(6.78757 3.15294 0)
(8.80626 2.75376 0)
(8.95734 2.88107 0)
(9.07522 1.5275 0)
(8.56021 0.71861 0)
(8.26059 1.09311 0)
(8.44606 -0.0363391 0)
(9.31399 -0.0529816 0)
(9.33857 0.983994 0)
(10.2815 1.23971 0)
(10.2196 1.28507 0)
(10.8977 0.848308 0)
(10.5388 -0.116635 0)
(10.8535 -0.931525 0)
(10.4168 -1.28125 0)
(9.88843 -1.2154 0)
(9.87579 -1.59309 0)
(9.88005 -2.225 0)
(9.77076 -2.58099 0)
(9.67886 -2.85693 0)
(8.8014 -2.64964 0)
(7.59909 -1.64688 0)
(5.95659 -0.964005 0)
(5.89638 -0.265357 0)
(4.42727 -2.05584 0)
(4.88673 -4.15724 0)
(3.94966 -4.37177 0)
(5.4727 -3.02849 0)
(3.845 -3.35554 0)
(4.79009 -0.308976 0)
(4.87988 -0.0713206 0)
(4.66453 3.81329 0)
(6.44034 1.46154 0)
(5.25497 7.05643 0)
(9.13969 3.46454 0)
(7.6415 11.3967 0)
(10.5361 4.97411 0)
(10.5953 11.2491 0)
(13.2279 -0.295516 0)
(13.1035 -0.307357 0)
(13.189 -0.222053 0)
(13.2357 -0.250795 0)
(13.122 -0.216496 0)
(13.2373 -0.190521 0)
(13.3442 -0.294958 0)
(13.2767 -0.304121 0)
(13.2941 -0.336941 0)
(13.4003 -0.471684 0)
(13.312 -0.59923 0)
(13.3479 -0.698807 0)
(13.599 -0.909165 0)
(13.6059 -1.19492 0)
(13.6335 -1.37707 0)
(13.5841 -1.63265 0)
(13.2826 -1.94994 0)
(12.9167 -2.14157 0)
(12.7289 -2.4199 0)
(12.5773 -2.78249 0)
(12.1328 -2.95275 0)
(11.5374 -2.92742 0)
(10.9013 -2.73332 0)
(10.2698 -2.29518 0)
(9.79352 -1.70619 0)
(9.35507 -0.878803 0)
(9.10629 0.086508 0)
(9.31111 0.954251 0)
(9.50908 1.87892 0)
(9.54108 2.61007 0)
(9.63983 2.68669 0)
(9.72891 2.37591 0)
(9.80089 1.87045 0)
(9.92444 1.09445 0)
(9.5603 0.492958 0)
(9.18809 0.114504 0)
(9.04901 -0.429291 0)
(8.92306 -0.775482 0)
(8.23352 -0.669046 0)
(7.42758 -0.0494831 0)
(6.51034 1.53922 0)
(5.87181 2.84832 0)
(5.74738 2.07296 0)
(5.92016 -0.275394 0)
(5.48114 -2.58732 0)
(3.66182 -4.72224 0)
(0.21896 -7.04485 0)
(-2.17189 -7.8353 0)
(-0.995411 -6.37585 0)
(-1.80491 -5.20482 0)
(-2.32291 -4.46366 0)
(-2.34693 -3.24662 0)
(-1.86791 -1.65266 0)
(-1.60889 -0.252251 0)
(-0.807648 1.14699 0)
(-0.215904 2.14055 0)
(0.10197 3.54474 0)
(2.21971 5.32405 0)
(1.94828 5.54018 0)
(5.13391 6.61359 0)
(4.01586 5.41095 0)
(7.79243 5.43745 0)
(6.70545 3.02661 0)
(7.95774 2.51196 0)
(8.43828 2.64503 0)
(9.06651 1.5615 0)
(8.15976 0.917414 0)
(7.85868 1.0442 0)
(8.50775 -0.22204 0)
(9.16027 -0.235109 0)
(8.80443 0.772888 0)
(10.1244 1.04705 0)
(9.72047 1.17835 0)
(10.6016 0.765565 0)
(10.3053 -0.14677 0)
(10.6388 -0.86067 0)
(10.1323 -1.11909 0)
(9.67452 -1.19362 0)
(9.88686 -1.60236 0)
(9.87849 -2.10364 0)
(9.69822 -2.52124 0)
(9.32655 -2.69767 0)
(8.56769 -2.19568 0)
(6.94599 -1.14524 0)
(5.72382 -0.484142 0)
(5.0596 0.0276835 0)
(4.2646 -2.05147 0)
(4.00166 -4.09837 0)
(3.03102 -4.33198 0)
(4.56889 -3.26625 0)
(2.46205 -3.21571 0)
(3.8993 -0.234092 0)
(3.85429 -0.456604 0)
(4.13241 3.74354 0)
(5.66777 0.800505 0)
(4.78298 7.29164 0)
(8.11181 2.11639 0)
(7.91006 11.3036 0)
(9.4005 4.70892 0)
(10.3599 10.4726 0)
(13.2093 -0.283181 0)
(13.175 -0.272358 0)
(13.2791 -0.190685 0)
(13.2726 -0.241397 0)
(13.1819 -0.231379 0)
(13.2386 -0.188922 0)
(13.1903 -0.272469 0)
(13.1099 -0.305788 0)
(13.1198 -0.31349 0)
(13.2567 -0.464387 0)
(13.3658 -0.675924 0)
(13.4247 -0.763084 0)
(13.5624 -0.926074 0)
(13.495 -1.20476 0)
(13.2582 -1.29997 0)
(12.9719 -1.4576 0)
(12.6756 -1.78687 0)
(12.3948 -2.0402 0)
(12.1223 -2.31831 0)
(11.5979 -2.59967 0)
(10.8039 -2.68369 0)
(9.93957 -2.60524 0)
(9.12106 -2.40091 0)
(8.44983 -1.99985 0)
(7.95906 -1.43148 0)
(7.61497 -0.734956 0)
(7.63539 0.0314708 0)
(7.89299 0.868669 0)
(8.07071 1.85337 0)
(8.33257 2.51956 0)
(8.68015 2.57818 0)
(8.8365 2.32317 0)
(9.03515 1.82313 0)
(9.06316 1.18552 0)
(8.79395 0.635575 0)
(8.67584 0.158982 0)
(8.59794 -0.371236 0)
(8.33928 -0.566253 0)
(7.56936 -0.345106 0)
(6.82062 0.278435 0)
(6.14878 1.79274 0)
(5.76337 2.93841 0)
(5.89517 2.09724 0)
(6.13993 -0.180731 0)
(6.02927 -2.11011 0)
(4.31041 -3.71294 0)
(1.0183 -5.89219 0)
(-1.83497 -7.40694 0)
(-1.69187 -6.36681 0)
(-2.30939 -4.99348 0)
(-2.91272 -4.31502 0)
(-3.28445 -3.22117 0)
(-2.84643 -1.76564 0)
(-2.92809 -0.491005 0)
(-2.00218 0.936849 0)
(-1.37438 1.91105 0)
(-1.31294 3.06955 0)
(1.17109 4.81136 0)
(0.846114 4.93836 0)
(4.03709 6.11874 0)
(3.23421 4.76729 0)
(6.76661 4.82201 0)
(6.61137 2.85393 0)
(7.11264 2.2754 0)
(7.54328 2.29746 0)
(8.75084 1.54082 0)
(7.59093 1.18435 0)
(7.84067 0.865084 0)
(8.56622 -0.468313 0)
(8.87507 -0.24493 0)
(8.2665 0.554268 0)
(9.73588 0.85904 0)
(9.20332 1.07067 0)
(10.1354 0.646062 0)
(10.0696 -0.235072 0)
(10.2375 -0.791003 0)
(9.8504 -0.918262 0)
(9.39616 -1.15196 0)
(9.75245 -1.69616 0)
(9.67617 -2.12976 0)
(9.52391 -2.41313 0)
(9.0184 -2.34871 0)
(8.11848 -1.59301 0)
(6.2838 -0.58844 0)
(5.10996 -0.0406659 0)
(4.56133 0.276846 0)
(4.03291 -1.76841 0)
(2.93056 -3.80382 0)
(1.72923 -4.13663 0)