/*--------------------------------*- C++ -*----------------------------------*\
| =========                 |                                                 |
| \\      /  F ield         | OpenFOAM: The Open Source CFD Toolbox           |
|  \\    /   O peration     | Version:  2.4.0                                 |
|   \\  /    A nd           | Web:      www.OpenFOAM.org                      |
|    \\/     M anipulation  |                                                 |
\*---------------------------------------------------------------------------*/
FoamFile
{
    version     2.0;
    format      ascii;
    class       volScalarField;
    location    "0.117051";
    object      epsilon;
}
// * * * * * * * * * * * * * * * * * * * * * * * * * * * * * * * * * * * * * //

dimensions      [0 2 -3 0 0 0 0];

internalField   nonuniform List<scalar> 
17600
(
265.083
385.347
484.507
552.111
589.315
603.054
601.301
590.759
576.219
560.723
545.991
532.85
521.566
512.085
504.181
497.564
491.912
487
482.238
479.224
36.7992
56.6249
73.1793
86.8293
97.8115
106.59
113.917
120.472
126.714
132.873
139.004
145.036
150.832
156.236
161.105
165.343
168.906
171.84
174.432
178.141
17.5417
21.1451
24.3398
26.9215
28.858
30.2254
31.2068
32.0153
32.8392
33.8207
35.0543
36.5913
38.447
40.6085
43.0411
45.696
48.5157
51.46
54.525
57.986
14.61
14.9314
15.4005
15.8271
16.1246
16.2631
16.2591
16.1547
16.0006
15.8454
15.7317
15.6939
15.7584
15.9446
16.2652
16.7285
17.3372
18.1032
19.024
20.2829
14.0149
13.4584
13.0866
12.8094
12.5645
12.3134
12.0401
11.7435
11.4312
11.115
10.8074
10.5205
10.2648
10.0492
9.88084
9.76554
9.70769
9.71476
9.78972
9.98831
13.8829
13.0682
12.3956
11.8314
11.3432
10.9041
10.4953
10.1063
9.73196
9.37118
9.02499
8.69564
8.38578
8.09806
7.83488
7.59834
7.39011
7.21288
7.06792
6.97049
13.8529
12.9632
12.1837
11.5005
10.8976
10.3589
9.87044
9.42167
9.00487
8.6149
8.24849
7.90371
7.57954
7.27549
6.99138
6.72721
6.48303
6.25935
6.05626
5.87834
13.8461
12.9351
12.1197
11.3899
10.7357
10.1468
9.61354
9.12722
8.68074
8.26838
7.88565
7.52911
7.19614
6.88477
6.59348
6.32109
6.06666
5.82962
5.60935
5.40721
13.8445
12.9277
12.1007
11.3539
10.6786
10.0665
9.51012
9.00244
8.53732
8.10947
7.71437
7.34825
7.00799
6.69099
6.39512
6.11861
5.85998
5.61808
5.39184
5.18147
13.8441
12.9257
12.0952
11.3425
10.659
10.0371
9.46986
8.95122
8.47567
8.03837
7.63506
7.26208
6.91621
6.59472
6.29525
6.01578
5.75456
5.51015
5.28125
5.06757
13.844
12.9251
12.0935
11.3388
10.6524
10.0265
9.45465
8.93088
8.45005
8.00759
7.59948
7.22217
6.87254
6.54785
6.24572
5.96403
5.70095
5.45489
5.22446
5.00914
13.844
12.9249
12.0929
11.3376
10.6501
10.0227
9.44897
8.92298
8.43969
7.99468
7.58402
7.20428
6.8524
6.5257
6.2218
5.93859
5.67422
5.42705
5.19563
4.97937
13.844
12.9248
12.0927
11.3371
10.6492
10.0213
9.44679
8.91987
8.43552
7.98933
7.57745
7.19646
6.84337
6.51554
6.21059
5.92645
5.66126
5.41337
5.18134
4.96449
13.8439
12.9247
12.0925
11.3368
10.6487
10.0206
9.44585
8.91857
8.43378
7.98708
7.57464
7.19306
6.83938
6.51096
6.20546
5.9208
5.65514
5.40684
5.17444
4.95726
13.8439
12.9247
12.0924
11.3366
10.6485
10.0203
9.44537
8.91794
8.43297
7.98606
7.57337
7.19154
6.83759
6.50889
6.20311
5.9182
5.6523
5.40378
5.17119
4.95383
13.8439
12.9246
12.0923
11.3365
10.6483
10.02
9.44507
8.91757
8.43252
7.98553
7.57274
7.1908
6.83673
6.50791
6.20201
5.91698
5.65097
5.40235
5.16967
4.95222
13.8439
12.9246
12.0922
11.3364
10.6481
10.0199
9.44486
8.91733
8.43224
7.98521
7.57238
7.19039
6.83627
6.5074
6.20146
5.91638
5.65033
5.40167
5.16894
4.95145
13.8439
12.9246
12.0922
11.3363
10.648
10.0197
9.44471
8.91717
8.43206
7.985
7.57216
7.19015
6.83601
6.50712
6.20116
5.91606
5.64999
5.40132
5.16858
4.95107
13.8439
12.9246
12.0921
11.3362
10.648
10.0197
9.44462
8.91706
8.43194
7.98488
7.57202
7.19001
6.83586
6.50696
6.20099
5.91589
5.64982
5.40114
5.1684
4.95088
13.8439
12.9246
12.0921
11.3362
10.6479
10.0196
9.44457
8.91701
8.43188
7.98482
7.57196
7.18994
6.83579
6.50689
6.20092
5.91581
5.64974
5.40106
5.16832
4.95078
13.8439
12.9246
12.0921
11.3362
10.6479
10.0196
9.44457
8.91701
8.43188
7.98482
7.57196
7.18994
6.83579
6.50689
6.20092
5.91581
5.64974
5.40106
5.16831
4.95076
13.8439
12.9246
12.0921
11.3362
10.648
10.0197
9.44462
8.91706
8.43194
7.98488
7.57202
7.19001
6.83586
6.50696
6.20099
5.91589
5.64982
5.40113
5.16837
4.95082
13.8439
12.9246
12.0922
11.3363
10.648
10.0197
9.44471
8.91717
8.43206
7.985
7.57216
7.19015
6.83601
6.50712
6.20116
5.91606
5.64999
5.4013
5.16854
4.95097
13.8439
12.9246
12.0922
11.3364
10.6481
10.0199
9.44486
8.91733
8.43224
7.98521
7.57238
7.19039
6.83627
6.5074
6.20146
5.91638
5.65032
5.40165
5.16889
4.95131
13.8439
12.9246
12.0923
11.3365
10.6483
10.02
9.44507
8.91757
8.43252
7.98553
7.57274
7.1908
6.83673
6.50791
6.20201
5.91698
5.65096
5.40233
5.16959
4.95203
13.8439
12.9247
12.0924
11.3366
10.6485
10.0203
9.44537
8.91794
8.43297
7.98606
7.57337
7.19154
6.83759
6.50889
6.20311
5.9182
5.65229
5.40375
5.1711
4.95361
13.8439
12.9247
12.0925
11.3368
10.6487
10.0206
9.44585
8.91857
8.43378
7.98708
7.57464
7.19306
6.83938
6.51096
6.20546
5.9208
5.65513
5.40681
5.17434
4.95701
13.844
12.9248
12.0927
11.3371
10.6492
10.0213
9.44679
8.91987
8.43552
7.98933
7.57745
7.19646
6.84337
6.51554
6.21059
5.92645
5.66125
5.41334
5.18124
4.96421
13.844
12.9249
12.0929
11.3376
10.6501
10.0227
9.44897
8.92298
8.43969
7.99468
7.58402
7.20428
6.8524
6.5257
6.2218
5.93859
5.67421
5.42701
5.19553
4.97905
13.844
12.9251
12.0935
11.3388
10.6524
10.0265
9.45465
8.93088
8.45005
8.00759
7.59948
7.22217
6.87254
6.54785
6.24571
5.96402
5.70094
5.45485
5.22435
5.00876
13.8441
12.9257
12.0952
11.3425
10.659
10.0371
9.46986
8.95122
8.47567
8.03837
7.63506
7.26208
6.91621
6.59472
6.29525
6.01577
5.75455
5.51009
5.28111
5.06703
13.8445
12.9277
12.1007
11.3539
10.6786
10.0665
9.51012
9.00244
8.53732
8.10947
7.71437
7.34825
7.00799
6.69099
6.39512
6.11861
5.85998
5.61799
5.39161
5.1805
13.8461
12.9351
12.1197
11.3899
10.7357
10.1468
9.61354
9.12722
8.68074
8.26838
7.88565
7.52911
7.19615
6.88478
6.59348
6.32109
6.06665
5.82944
5.60886
5.40494
13.8529
12.9632
12.1837
11.5005
10.8976
10.3589
9.87044
9.42167
9.00487
8.6149
8.24849
7.90371
7.57954
7.27549
6.99139
6.72721
6.48302
6.2589
6.05501
5.872
13.8829
13.0682
12.3956
11.8314
11.3432
10.9041
10.4953
10.1063
9.73196
9.37118
9.02499
8.69564
8.38579
8.09807
7.8349
7.59833
7.39007
7.21161
7.06433
6.95013
14.0149
13.4584
13.0866
12.8094
12.5645
12.3134
12.0401
11.7435
11.4312
11.115
10.8074
10.5205
10.2648
10.0492
9.88089
9.76548
9.7075
9.71071
9.7784
9.91494
14.61
14.9314
15.4005
15.8271
16.1246
16.2631
16.2591
16.1547
16.0006
15.8454
15.7317
15.6939
15.7584
15.9446
16.2653
16.7282
17.3364
18.0899
18.9856
20.022
17.5417
21.1451
24.3398
26.9215
28.858
30.2254
31.2068
32.0154
32.8392
33.8207
35.0543
36.5912
38.447
40.6084
43.0408
45.6945
48.5108
51.4283
54.3884
57.338
36.7992
56.6249
73.1793
86.8293
97.8115
106.59
113.917
120.472
126.714
132.873
139.004
145.036
150.832
156.234
161.103
165.337
168.886
171.752
173.985
175.662
265.083
385.347
484.507
552.111
589.315
603.054
601.301
590.759
576.219
560.723
545.991
532.85
521.566
512.085
504.181
497.56
491.925
487
482.555
478.395
696.284
876.727
1020.57
1122.26
1181.68
1205.18
1202.3
1182.1
1151.38
1114.65
1074.66
1033.01
990.743
948.641
907.425
867.734
830.068
794.781
762.068
731.985
704.494
679.493
656.846
636.391
617.954
601.352
586.4
572.918
560.733
549.686
539.628
530.428
521.965
514.132
506.834
499.988
493.519
487.363
481.462
475.765
470.225
464.799
459.446
454.129
448.811
443.459
438.038
432.516
426.862
421.046
415.04
408.816
402.347
395.609
388.578
381.233
373.554
365.522
357.12
348.334
339.151
329.558
319.547
309.109
298.241
286.94
275.207
263.046
250.466
237.482
224.117
210.4
196.372
182.087
167.613
153.035
138.458
124.007
109.831
96.0963
82.9839
70.6799
59.3598
49.1708
40.2142
32.5346
26.1212
20.9198
16.8522
13.8367
11.8072
10.7281
10.5998
11.4455
13.2824
16.0955
19.8304
24.3969
29.6608
35.4222
41.4059
47.2875
52.7474
57.5249
61.4476
64.433
66.4701
67.5952
67.8701
67.3653
66.1504
64.2882
61.8323
58.8263
55.3457
51.4877
47.3766
43.1725
39.0728
35.2998
32.068
29.5379
27.7729
26.7233
26.2426
26.1288
26.1715
26.1903
26.0554
25.6921
25.074
24.2119
23.1405
21.9072
20.5638
19.1601
17.7403
16.3409
14.9902
13.7088
12.5103
11.4022
10.3875
9.46562
8.63321
7.88534
7.21597
6.61853
6.0863
5.61269
5.19142
4.81664
4.48302
4.18569
3.92034
3.68312
3.47066
3.27999
3.10852
2.95403
2.81455
2.68843
2.57422
2.47069
2.37679
2.29162
2.21445
2.14465
2.08172
2.02527
1.975
1.93072
1.89233
1.85983
1.83335
1.81311
1.7995
1.79305
1.79452
1.80489
1.82551
1.85815
1.90518
1.96979
2.05637
2.17103
2.32249
2.52357
2.79362
3.16288
3.68036
4.42811
5.55103
7.31021
10.2545
15.5006
27.025
53.8307
164.514
226.892
190.346
213.041
249.185
298.975
360.933
431.557
505.882
578.335
643.523
697.099
736.52
761.337
772.881
773.554
766.069
752.886
735.959
716.756
696.356
675.558
654.954
634.977
615.919
597.963
581.196
565.643
551.283
538.068
525.931
514.798
504.585
495.21
486.588
478.639
471.285
464.453
458.078
452.095
446.447
441.078
435.933
430.963
426.119
421.351
416.615
411.867
407.062
402.159
397.119
391.904
386.478
380.808
374.863
368.614
362.036
355.103
347.796
340.095
331.984
323.45
314.48
305.067
295.204
284.887
274.118
262.9
251.239
239.15
226.651
213.767
200.532
186.992
173.202
159.233
145.175
131.131
117.229
103.615
90.4532
77.9194
66.1925
55.4386
45.793
37.3447
30.1263
24.1166
19.2537
15.4546
12.6348
10.7272
9.69797
9.55723
10.3532
12.1465
14.9774
18.8467
23.7115
29.4716
35.9373
42.8076
49.6955
56.1987
61.9791
66.811
70.5872
73.2957
74.9867
75.742
75.653
74.8079
73.2843
71.1461
68.4401
65.1935
61.4676
57.3402
52.9119
48.3172
43.7306
39.3628
35.4387
32.1551
29.632
27.8801
26.8008
26.2175
25.9222
25.7197
25.457
25.0348
24.4053
23.5622
22.5277
21.3409
20.0478
18.6949
17.324
15.9706
14.6625
13.4201
12.2567
11.1802
10.1938
9.29699
8.48678
7.75847
7.10624
6.52377
6.00456
5.54221
5.13066
4.76423
4.43773
4.14648
3.88627
3.6534
3.44458
3.25696
3.08803
2.93563
2.79787
2.67314
2.56006
2.45741
2.3642
2.27956
2.20276
2.13321
2.07043
2.01402
1.96371
1.9193
1.88072
1.84796
1.82115
1.80053
1.78646
1.7795
1.78039
1.79015
1.81012
1.84209
1.88848
1.95255
2.03879
2.15349
2.3057
2.50874
2.78294
3.1603
3.69319
4.47043
5.65045
7.52265
10.6938
16.4112
28.9386
58.2042
173.121
223.848
59.3675
61.3996
64.4254
69.4887
77.6789
90.126
108.03
132.471
164.101
202.771
247.224
295.048
343.008
387.685
426.24
456.947
479.317
493.913
501.922
504.743
503.695
499.88
494.157
487.178
479.434
471.298
463.054
454.91
447.019
439.48
432.354
425.672
419.442
413.657
408.299
403.343
398.755
394.5
390.537
386.821
383.308
379.947
376.69
373.487
370.287
367.039
363.694
360.206
356.526
352.614
348.428
343.93
339.088
333.871
328.251
322.205
315.714
308.76
301.331
293.415
285.006
276.101
266.699
256.805
246.425
235.572
224.264
212.524
200.383
187.88
175.064
161.997
148.754
135.426
122.121
108.966
96.1058
83.7015
71.9231
60.9398
50.9056
41.9418
34.1228
27.4684
21.9477
17.4928
14.0175
11.4368
9.68309
8.72345
8.57283
9.29632
10.9907
13.7508
17.6402
22.6762
28.8097
35.8819
43.5831
51.4682
59.042
65.8706
71.657
76.2587
79.6591
81.923
83.1548
83.4701
82.9785
81.7758
79.9408
77.5345
74.5967
71.1424
67.2197
62.8889
58.2293
53.3503
48.4012
43.5728
39.0852
35.1541
31.9421
29.5157
27.8288
26.7407
26.0577
25.5799
25.1377
24.6106
23.9302
23.0729
22.0479
20.8849
19.6235
18.3059
16.9713
15.6536
14.3796
13.1689
12.0349
10.9852
10.023
9.14792
8.35708
7.64592
7.0088
6.43956
5.93186
5.4795
5.07654
4.71749
4.39728
4.11137
3.85569
3.62661
3.42097
3.23599
3.06925
2.91863
2.78233
2.65878
2.54663
2.44472
2.35206
2.26783
2.19133
2.12196
2.05925
2.00285
1.95246
1.90792
1.86913
1.8361
1.80896
1.78794
1.77342
1.76594
1.76625
1.77537
1.79464
1.82588
1.87152
1.93486
2.02049
2.13483
2.28716
2.49125
2.76816
3.15134
3.69603
4.49682
5.72396
7.69288
11.0566
17.1959
30.3563
61.6041
169.526
218.255
20.6788
21.0691
21.4482
21.8557
22.51
23.5575
25.2228
27.823
31.7941
37.7046
46.205
57.985
73.6196
93.3752
117.041
143.692
171.947
200.193
226.863
250.707
270.955
287.334
299.979
309.297
315.821
320.103
322.65
323.891
324.176
323.784
322.935
321.8
320.514
319.179
317.869
316.638
315.516
314.517
313.64
312.871
312.186
311.553
310.932
310.279
309.546
308.681
307.634
306.352
304.787
302.891
300.62
297.935
294.8
291.185
287.063
282.412
277.215
271.461
265.139
258.247
250.783
242.754
234.165
225.032
215.372
205.209
194.573
183.5
172.038
160.241
148.177
135.927
123.585
111.263
99.0883
87.2055
75.7708
64.9465
54.8906
45.7423
37.6067
30.5424
24.5565
19.61
15.6315
12.5346
10.2358
8.6695
7.80374
7.6553
8.29826
9.85524
12.469
16.2674
21.3376
27.6985
35.2456
43.6862
52.5322
61.1911
69.1132
75.908
81.3814
85.5057
88.3599
90.0741
90.7908
90.6431
89.7458
88.1933
86.0601
83.4017
80.2512
76.6153
72.5313
68.0452
63.2179
58.1371
52.9276
47.7572
42.8316
38.3699
34.5616
31.5189
29.2465
27.6456
26.5465
25.7544
25.0906
24.4181
23.6504
22.7473
21.7049
20.5431
19.2945
17.9965
16.6852
15.3924
14.1434
12.9572
11.8464
10.8184
9.87617
9.01924
8.24477
7.54823
6.92406
6.36621
5.86846
5.42471
5.02919
4.67651
4.36173
4.08041
3.82859
3.60275
3.39981
3.21705
3.05213
2.903
2.7679
2.6453
2.53389
2.43255
2.34033
2.2564
2.18009
2.11083
2.04816
1.99171
1.94122
1.89651
1.8575
1.8242
1.79672
1.7753
1.76033
1.75233
1.75205
1.76051
1.77905
1.80949
1.85428
1.91676
2.00153
2.11513
2.267
2.47119
2.74936
3.13602
3.68855
4.50616
5.76822
7.81177
11.3196
17.7851
31.1906
63.3648
161.451
210.734
10.0529
10.1105
10.153
10.1791
10.2154
10.2833
10.4038
10.6073
10.9379
11.4593
12.2865
13.5607
15.4535
18.1687
21.9281
27.1198
34.0303
42.8372
53.5557
65.9976
79.7774
94.3615
109.15
123.568
137.136
149.52
160.538
170.148
178.416
185.477
191.505
196.683
201.186
205.17
208.77
212.091
215.219
218.213
221.115
223.948
226.716
229.41
232.008
234.477
236.773
238.848
240.65
242.123
243.213
243.869
244.04
243.684
242.762
241.239
239.09
236.295
232.838
228.71
223.91
218.44
212.308
205.527
198.116
190.101
181.511
172.385
162.767
152.711
142.28
131.548
120.603
109.544
98.4859
87.5584
76.9033
66.6718
57.0167
48.0822
39.9907
32.8296
26.6417
21.4229
17.1287
13.6878
11.0171
9.03783
7.68893
6.94113
6.81198
7.37838
8.77749
11.1881
14.7971
19.7654
26.1924
34.0522
43.1016
52.8371
62.5749
71.632
79.4964
85.9
90.7926
94.2663
96.4799
97.6064
97.805
97.2103
95.9311
94.054
91.6457
88.7546
85.4085
81.6099
77.3873
72.7764
67.8239
62.5996
57.207
51.791
46.5381
41.6597
37.3574
33.7761
30.9649
28.8678
27.3453
26.216
25.2999
24.4491
23.5622
22.5844
21.4992
20.3166
19.0622
17.7682
16.4672
15.1883
13.9553
12.7859
11.692
10.6805
9.75376
8.91132
8.15013
7.46559
6.85215
6.3038
5.81437
5.37787
4.98859
4.64125
4.33101
4.05353
3.80492
3.58175
3.38101
3.20006
3.0366
2.88865
2.75448
2.63262
2.52177
2.42085
2.32893
2.2452
2.169
2.09977
2.03707
1.98054
1.92991
1.88502
1.84577
1.81218
1.78436
1.76256
1.74713
1.73861
1.73774
1.74553
1.76332
1.79292
1.83678
1.89823
1.98193
2.09444
2.24529
2.44871
2.7267
3.11445
3.67076
4.49792
5.78136
7.87333
11.4694
18.1326
31.4889
63.2759
151.935
202.844
6.94304
6.91479
6.88324
6.84737
6.81054
6.77765
6.75134
6.73508
6.73368
6.75436
6.81108
6.91927
7.09889
7.37469
7.77573
8.34153
9.15218
10.2917
11.8569
13.9533
16.6848
20.1378
24.3645
29.3683
35.0981
41.4512
48.2854
55.4376
62.743
70.0536
77.2501
84.2492
91.0037
97.4989
103.746
109.772
115.615
121.313
126.901
132.403
137.833
143.188
148.452
153.594
158.571
163.331
167.813
171.953
175.686
178.944
181.667
183.797
185.285
186.087
186.17
185.509
184.085
181.891
178.926
175.197
170.718
165.513
159.609
153.043
145.859
138.11
129.856
121.168
112.128
102.829
93.3758
83.8863
74.4904
65.327
56.5399
48.2702
40.6465
33.773
27.7191
22.5131
18.1431
14.5631
11.7058
9.49571
7.86236
6.75239
6.14167
6.04906
6.55047
7.78733
9.96
13.3021
18.0443
24.3731
32.3604
41.8486
52.3591
63.1386
73.3604
82.3598
89.7638
95.4819
99.6148
102.354
103.908
104.466
104.184
103.185
101.564
99.3968
96.7396
93.6352
90.1073
86.1569
81.8074
77.0874
72.0338
66.7029
61.1807
55.5919
50.1022
44.909
40.214
36.1811
32.8944
30.3372
28.4028
26.9295
25.7425
24.689
23.6569
22.5792
21.428
20.2042
18.9262
17.6209
16.3172
15.0413
13.8152
12.6551
11.5718
10.5713
9.6558
8.82412
8.07307
7.39789
6.79295
6.25218
5.76946
5.3388
4.95458
4.61156
4.30498
4.03057
3.78452
3.56347
3.36445
3.18489
3.02255
2.87548
2.742
2.62065
2.51019
2.40953
2.31778
2.23414
2.15797
2.08871
2.02593
1.96927
1.91848
1.87337
1.83387
1.79999
1.77183
1.74963
1.73375
1.72472
1.72326
1.73037
1.74739
1.77611
1.81897
1.87929
1.96171
2.07281
2.22212
2.42394
2.70037
3.08689
3.64289
4.47219
5.76291
7.875
11.5019
18.2196
31.3125
61.5363
141.223
195.136
5.82593
5.77446
5.72281
5.6706
5.61824
5.5673
5.51822
5.47161
5.4282
5.38904
5.35625
5.33172
5.31797
5.31811
5.33578
5.37547
5.44787
5.56427
5.73895
5.98961
6.33759
6.80792
7.42889
8.23131
9.24719
10.5079
12.0417
13.8717
16.0134
18.4739
21.2522
24.3403
27.7255
31.393
35.3281
39.5183
43.9534
48.6255
53.5278
58.6516
63.9843
69.5063
75.1882
80.9893
86.8567
92.7255
98.5199
104.156
109.544
114.592
119.211
123.316
126.829
129.684
131.824
133.204
133.793
133.571
132.529
130.673
128.015
124.581
120.406
115.535
110.021
103.931
97.3386
90.3304
83.0033
75.4655
67.8355
60.2409
52.8148
45.691
38.9963
32.8417
27.3132
22.4639
18.3116
14.8403
12.0078
9.75553
8.01952
6.74144
5.87878
5.41516
5.37205
5.82264
6.90493
8.82621
11.8499
16.2647
22.3413
30.2609
39.9839
51.107
62.8479
74.2412
84.4394
92.9242
99.5371
104.379
107.675
109.68
110.618
110.668
109.968
108.621
106.705
104.283
101.402
98.1008
94.4001
90.3023
85.8284
81.0035
75.8586
70.4407
64.8224
59.1117
53.455
48.0324
43.0371
38.6406
34.9504
31.9832
29.664
27.8541
26.3896
25.1181
23.9212
22.7228
21.4855
20.2019
18.8837
17.5527
16.2338
14.9506
13.7225
12.5641
11.4851
10.4906
9.58179
8.75721
8.0132
7.34477
6.7461
6.21104
5.73341
5.30724
4.92689
4.58719
4.28341
4.01134
3.76721
3.54772
3.34997
3.17141
3.00985
2.86337
2.73033
2.60929
2.49903
2.3985
2.30679
2.22315
2.14692
2.07757
2.01466
1.95784
1.90684
1.86151
1.82175
1.78756
1.75906
1.73647
1.72014
1.71059
1.70855
1.71498
1.73121
1.75902
1.80082
1.8599
1.94088
2.05027
2.19758
2.39702
2.67059
3.05367
3.60544
4.42963
5.71374
7.81748
11.4199
18.0517
30.7048
58.5682
129.218
186.552
5.34725
5.28878
5.23097
5.17367
5.11691
5.06118
5.00663
4.95343
4.90172
4.85168
4.80376
4.75818
4.71525
4.67534
4.63879
4.60674
4.58062
4.56221
4.55383
4.5584
4.5795
4.62141
4.68914
4.78849
4.92606
5.10931
5.34657
5.64713
6.02124
6.48019
7.03652
7.70414
8.49868
9.43773
10.5412
11.8317
13.3344
15.077
17.0893
19.4015
22.0422
25.0357
28.3979
32.1322
36.2261
40.6474
45.3433
50.2407
55.2488
60.2633
65.1717
69.8586
74.2113
78.1246
81.5041
84.2695
86.3561
87.7159
88.3174
88.1458
87.2022
85.5027
83.0779
79.9723
76.2433
71.9611
67.208
62.0778
56.6749
51.1128
45.5113
39.9927
34.6764
29.6723
25.0732
20.948
17.3375
14.2534
11.6816
9.58816
7.92753
6.65106
5.71565
5.09211
4.77367
4.78565
5.19801
6.14038
7.81483
10.4962
14.5126
20.2071
27.8699
37.6021
49.1279
61.6961
74.2305
85.6797
95.3328
102.923
108.531
112.422
114.901
116.239
116.644
116.27
115.226
113.59
111.424
108.779
105.696
102.209
98.34
94.0937
89.4913
84.5575
79.321
73.8229
68.1269
62.3274
56.5545
50.9702
45.7548
41.0774
37.0585
33.7395
31.074
28.9469
27.2091
25.713
24.3385
23.0034
21.6632
20.3035
18.9302
17.5602
16.2146
14.9139
13.6753
12.5116
11.4309
10.4372
9.53089
8.70982
7.96985
7.30562
6.71107
6.17989
5.7058
5.28277
4.90517
4.56781
4.266
3.99555
3.75274
3.5343
3.33736
3.15943
2.99832
2.85216
2.71932
2.5984
2.48819
2.38764
2.29588
2.21214
2.13578
2.06627
2.00318
1.94616
1.89494
1.84936
1.80932
1.77482
1.74598
1.72299
1.70622
1.69616
1.69353
1.69928
1.71472
1.74159
1.78228
1.84004
1.91941
2.02685
2.17172
2.36808
2.63761
3.01519
3.55909
4.37134
5.63582
7.70433
11.2313
17.654
29.7084
54.8293
116.258
175.694
5.11895
5.05811
4.99822
4.93918
4.88097
4.82375
4.76758
4.7125
4.65856
4.6058
4.55429
4.50412
4.45525
4.40766
4.36145
4.31679
4.27387
4.233
4.19458
4.15917
4.12745
4.1003
4.07875
4.06404
4.05756
4.06092
4.07593
4.1046
4.1492
4.21233
4.29694
4.40652
4.54526
4.71824
4.93178
5.19379
5.51427
5.90583
6.38435
6.96957
7.68567
8.56137
9.62961
10.9261
12.4868
14.3438
16.5202
19.0242
21.8437
24.9431
28.2618
31.7172
35.209
38.6267
41.8571
44.7909
47.3292
49.388
50.9006
51.82
52.1189
51.79
50.845
49.3138
47.2433
44.6958
41.7472
38.4855
35.0073
31.415
27.8123
24.2988
20.9642
17.883
15.1099
12.6774
10.5964
8.85877
7.44285
6.31886
5.45549
4.82632
4.41633
4.22871
4.29287
4.67534
5.49482
6.93967
9.27954
12.8604
18.0778
25.318
34.8306
46.511
59.7124
73.3043
86.0314
96.9414
105.603
112.049
116.574
119.549
121.301
122.081
122.059
121.351
120.033
118.162
115.785
112.942
109.672
106.008
101.971
97.5713
92.8324
87.7809
82.446
76.8665
71.1002
65.2319
59.3781
53.6844
48.3153
43.4311
39.1559
35.5469
32.5809
30.1653
28.1673
26.4482
24.8896
23.4067
21.9505
20.5012
19.0597
17.6387
16.2558
14.9284
13.6714
12.4955
11.4074
10.4097
9.50189
8.68093
7.94211
7.27965
6.68716
6.15811
5.68606
5.26492
4.88897
4.55303
4.25239
3.98289
3.74083
3.52295
3.32641
3.14873
2.98778
2.84169
2.70884
2.58786
2.47754
2.37686
2.28493
2.20101
2.12445
2.05473
1.99142
1.93416
1.88269
1.83684
1.79651
1.7617
1.73251
1.70914
1.69192
1.68136
1.67814
1.68321
1.69784
1.72375
1.76328
1.81964
1.89727
2.00253
2.1446
2.33724
2.60167
2.97191
3.50464
4.29882
5.53197
7.5413
10.9481
17.0637
28.3799
50.6964
103.007
161.986
5.00401
4.94224
4.88154
4.82183
4.76309
4.70535
4.64863
4.59293
4.53829
4.4847
4.43216
4.38069
4.33028
4.2809
4.23254
4.18521
4.1389
4.09365
4.04951
4.00658
3.96498
3.92489
3.88652
3.85015
3.81611
3.7848
3.75665
3.73218
3.71197
3.69667
3.68701
3.68386
3.68819
3.70121
3.72435
3.75941
3.80866
3.87504
3.96232
4.07544
4.22084
4.40688
4.64435
4.9469
5.3315
5.81846
6.43105
7.19415
8.13178
9.26336
10.5991
12.135
13.8495
15.7013
17.6309
19.564
21.4183
23.1095
24.5587
25.6983
26.4755
26.8559
26.8242
26.3845
25.5593
24.388
22.9241
21.232
19.3838
17.4539
15.5154
13.6345
11.8669
10.2545
8.82428
7.58879
6.54815
5.69343
5.0106
4.48484
4.10504
3.86871
3.7874
3.89346
4.24952
4.96235
6.20186
8.22025
11.3608
16.0464
22.7368
31.8195
43.3869
56.9701
71.4688
85.4566
97.7029
107.544
114.91
120.115
123.602
125.776
126.938
127.289
126.948
125.989
124.46
122.398
119.838
116.817
113.37
109.53
105.323
100.763
95.8779
90.6981
85.2553
79.5888
73.7533
67.8273
61.9167
56.1528
50.6836
45.6567
41.1922
37.3548
34.1381
31.4688
29.231
27.2972
25.5539
23.917
22.3352
20.7855
19.2648
17.7825
16.3527
14.9903
13.7076
12.5134
11.4126
10.4065
9.4933
8.66924
7.92889
7.2659
6.67353
6.14496
5.67357
5.2531
4.8778
4.5424
4.24221
3.97302
3.73116
3.51338
3.31685
3.13911
2.97804
2.83178
2.69873
2.57752
2.46696
2.36603
2.27384
2.18966
2.11284
2.04287
1.97929
1.92176
1.87002
1.82389
1.78326
1.74813
1.71859
1.69482
1.67717
1.6661
1.6623
1.66668
1.6805
1.70543
1.74377
1.79865
1.87444
1.97731
2.11624
2.30461
2.56301
2.92429
3.44299
4.21378
5.40556
7.33567
10.5849
16.3231
26.7901
46.4295
90.1613
145.868
4.94507
4.88286
4.82176
4.76174
4.70275
4.64478
4.58784
4.53192
4.47702
4.42314
4.37027
4.31841
4.26753
4.21763
4.16869
4.12067
4.07356
4.02735
3.98202
3.93757
3.89401
3.85136
3.80965
3.76894
3.72928
3.69078
3.65353
3.61766
3.58333
3.55069
3.51995
3.49134
3.46512
3.4416
3.42116
3.40425
3.39142
3.38337
3.38101
3.38548
3.39828
3.42137
3.4573
3.50939
3.58193
3.68041
3.81174
3.98435
4.2082
4.49442
4.85447
5.29877
5.8346
6.46364
7.17944
7.96557
8.79501
9.63126
10.4312
11.1491
11.7415
12.1711
12.4112
12.4473
12.2785
11.9171
11.3869
10.7208
9.95742
9.13777
8.30144
7.48366
6.71301
6.01025
5.38825
4.85296
4.40506
4.04227
3.76187
3.56373
3.45389
3.44908
3.58247
3.91186
4.53205
5.59294
7.32211
10.0439
14.1837
20.245
28.727
39.9202
53.591
68.771
83.9379
97.5733
108.707
117.097
123.039
127.052
129.64
131.178
131.906
131.955
131.392
130.252
128.559
126.337
123.614
120.425
116.805
112.791
108.411
103.683
98.6422
93.3237
87.7638
82.0034
76.0972
70.1197
64.1691
58.3644
52.8384
47.7231
43.1293
39.1222
35.7052
32.8207
30.3688
28.2339
26.3104
24.5175
22.8042
21.1458
19.5372
17.9848
16.5001
15.0952
13.7804
12.5623
11.444
10.4253
9.5034
8.67332
7.92893
7.26332
6.66928
6.13966
5.66761
5.24672
4.87111
4.53546
4.23501
3.96557
3.72341
3.50531
3.30843
3.13034
2.96889
2.82224
2.68882
2.56724
2.45631
2.35502
2.2625
2.17799
2.10086
2.03058
1.96671
1.90889
1.85686
1.81043
1.76949
1.73404
1.70414
1.67998
1.66189
1.65032
1.64593
1.64962
1.66262
1.68655
1.72367
1.77701
1.85084
1.95116
2.08667
2.2703
2.52185
2.87282
3.37507
4.11809
5.26033
7.0955
10.1582
15.4741
25.0184
42.1894
78.2482
128.443
4.915
4.85252
4.7912
4.73099
4.67185
4.61376
4.55671
4.50069
4.44568
4.39168
4.33868
4.28667
4.23563
4.18555
4.13641
4.08819
4.04086
3.9944
3.94879
3.90402
3.86006
3.8169
3.77454
3.73298
3.69221
3.65224
3.61309
3.57479
3.53735
3.50081
3.46522
3.43063
3.3971
3.36472
3.33357
3.30376
3.27544
3.24879
3.22402
3.20144
3.1814
3.16439
3.15106
3.14221
3.13891
3.14253
3.15482
3.17796
3.21462
3.268
3.34171
3.43967
3.56573
3.72311
3.91369
4.13703
4.38955
4.66382
4.94838
5.22825
5.48618
5.70445
5.867
5.96144
5.98056
5.92321
5.79422
5.60358
5.36507
5.09447
4.80779
4.51978
4.24283
3.98644
3.7573
3.5598
3.39701
3.2721
3.19031
3.16155
3.20415
3.34982
3.65072
4.19008
5.09845
6.57633
8.91894
12.5336
17.9366
25.7018
36.2937
49.7424
65.3099
81.4912
96.5185
109.057
118.594
125.347
129.903
132.885
134.772
135.86
136.303
136.161
135.453
134.184
132.359
129.996
127.121
123.77
119.979
115.789
111.232
106.331
101.127
95.6626
89.9782
84.119
78.1406
72.1162
66.1383
60.3162
54.7682
49.6103
44.94
40.8172
37.2491
34.1894
31.5518
29.2336
27.1384
25.1912
23.3436
21.5713
19.868
18.2384
16.6919
15.2385
13.8859
12.639
11.499
10.4642
9.53032
8.69157
7.9409
7.27074
6.67339
6.14133
5.66744
5.24512
4.86834
4.5317
4.23038
3.96014
3.71724
3.49844
3.3009
3.12217
2.96012
2.81291
2.67895
2.55686
2.44547
2.34374
2.25081
2.16591
2.08843
2.01781
1.95361
1.89548
1.84314
1.7964
1.75514
1.71935
1.6891
1.66455
1.64601
1.63394
1.62896
1.63196
1.64412
1.66705
1.7029
1.75466
1.82643
1.92405
2.05589
2.23437
2.47843
2.81794
3.30182
4.01362
5.10011
6.82902
9.68481
14.5551
23.1443
38.0737
67.553
110.998
4.89994
4.8373
4.77583
4.7155
4.65627
4.5981
4.54099
4.48491
4.42985
4.37579
4.32273
4.27066
4.21955
4.1694
4.12018
4.07187
4.02445
3.97791
3.93222
3.88736
3.84331
3.80005
3.75757
3.71584
3.67487
3.63463
3.59511
3.55632
3.51824
3.48086
3.4442
3.40825
3.37301
3.3385
3.30472
3.27169
3.23945
3.20802
3.17745
3.14781
3.11919
3.09172
3.06555
3.04089
3.01804
2.99734
2.97927
2.96441
2.95351
2.94744
2.94724
2.95409
2.96922
2.99383
3.02893
3.07509
3.13223
3.19931
3.27415
3.35335
3.4324
3.50599
3.56862
3.6152
3.64177
3.64602
3.62758
3.58799
3.53046
3.45932
3.37953
3.29605
3.21352
3.13602
3.06718
3.01059
2.97054
2.95335
2.96934
3.03587
3.18159
3.45261
3.9215
4.70132
5.9664
7.97877
11.1138
15.874
22.8675
32.6894
45.6252
61.2399
78.1804
94.5247
108.552
119.378
127.046
132.176
135.525
137.709
139.115
139.93
140.217
139.971
139.172
137.804
135.865
133.37
130.347
126.835
122.874
118.507
113.772
108.695
103.324
97.7098
91.8979
85.938
79.8885
73.8226
67.8292
62.0095
56.4689
51.3071
46.6064
42.4166
38.7438
35.5482
32.7549
30.2736
28.0183
25.9216
23.9396
22.0503
20.2477
18.5356
16.922
15.4148
14.0199
12.74
11.5746
10.5205
9.57205
8.72232
7.96338
7.28696
6.68485
6.1491
5.67231
5.24763
4.86891
4.53062
4.22787
3.95635
3.71231
3.49248
3.29399
3.11439
2.95154
2.8036
2.66897
2.54627
2.43431
2.33207
2.23866
2.15334
2.07545
2.00446
1.93992
1.88145
1.82879
1.78173
1.74015
1.70402
1.6734
1.64846
1.62948
1.6169
1.61133
1.61363
1.62495
1.64683
1.68139
1.73151
1.80115
1.89593
2.0239
2.1969
2.43292
2.76009
3.22412
3.9022
4.92861
6.54413
9.18101
13.5998
21.24
34.147
58.1509
94.599
4.89259
4.82985
4.7683
4.70789
4.6486
4.59038
4.53323
4.47712
4.42203
4.36795
4.31486
4.26276
4.21162
4.16142
4.11216
4.06381
4.01635
3.96976
3.92402
3.87912
3.83503
3.79174
3.74922
3.70745
3.66644
3.62614
3.58656
3.54767
3.50947
3.47193
3.43505
3.39881
3.36319
3.3282
3.2938
3.26001
3.2268
3.19417
3.16213
3.13068
3.09984
3.06962
3.04007
3.01125
2.98323
2.95611
2.93004
2.9052
2.88181
2.86015
2.84055
2.8234
2.80913
2.79817
2.79096
2.78784
2.78903
2.79453
2.80404
2.81694
2.83225
2.84866
2.86468
2.87876
2.88947
2.89572
2.89687
2.89281
2.88398
2.87125
2.85584
2.83924
2.82311
2.80937
2.80049
2.79997
2.81335
2.84978
2.92448
3.06248
3.30393
3.71195
4.38451
5.47264
7.20575
9.92082
14.0876
20.3122
29.2675
41.4529
56.7657
74.1302
91.6159
107.161
119.422
128.144
133.905
137.596
140.007
141.654
142.789
143.482
143.71
143.418
142.558
141.105
139.057
136.431
133.26
129.586
125.456
120.915
116.003
110.751
105.215
99.4526
93.5154
87.4581
81.3426
75.2435
69.2473
63.4488
57.9414
52.8094
48.1182
43.9048
40.1697
36.8758
33.9568
31.3337
28.9318
26.6927
24.5787
22.5715
20.6669
18.8687
17.1839
15.6189
14.1779
12.8616
11.6679
10.5918
9.62653
8.76382
7.9949
7.31075
6.7026
6.16207
5.68143
5.25361
4.87226
4.53174
4.22706
3.95385
3.70832
3.48715
3.28747
3.10679
2.94298
2.79416
2.65874
2.53533
2.42274
2.31992
2.226
2.1402
2.06188
1.9905
1.92558
1.86677
1.81378
1.76639
1.72448
1.688
1.65701
1.63167
1.61224
1.59914
1.59298
1.59456
1.60502
1.62584
1.65908
1.7075
1.77494
1.86677
1.99069
2.15794
2.3855
2.69968
3.14282
3.78554
4.74931
6.24804
8.66167
12.6363
19.365
30.4571
49.984
79.8964
4.8891
4.8263
4.76469
4.70424
4.64491
4.58667
4.5295
4.47337
4.41827
4.36418
4.31108
4.25896
4.2078
4.15759
4.1083
4.05992
4.01243
3.9658
3.92003
3.87509
3.83097
3.78764
3.74509
3.7033
3.66225
3.62193
3.58232
3.54341
3.50517
3.46759
3.43066
3.39436
3.35866
3.32356
3.28903
3.25507
3.22164
3.18874
3.15635
3.12447
3.09308
3.06218
3.03179
3.0019
2.97256
2.94379
2.91565
2.8882
2.86155
2.8358
2.81109
2.7876
2.7655
2.74502
2.72636
2.70974
2.69537
2.68337
2.67385
2.66677
2.66203
2.6594
2.65856
2.65912
2.66066
2.66279
2.6652
2.66768
2.67015
2.67272
2.67566
2.67951
2.68515
2.6941
2.70895
2.73417
2.77742
2.85167
2.97843
3.19251
3.54884
4.13275
5.07558
6.57748
8.93661
12.5799
18.0846
26.1499
37.4268
52.1242
69.5296