/*--------------------------------*- C++ -*----------------------------------*\
| =========                 |                                                 |
| \\      /  F ield         | OpenFOAM: The Open Source CFD Toolbox           |
|  \\    /   O peration     | Version:  2.4.0                                 |
|   \\  /    A nd           | Web:      www.OpenFOAM.org                      |
|    \\/     M anipulation  |                                                 |
\*---------------------------------------------------------------------------*/
FoamFile
{
    version     2.0;
    format      ascii;
    class       volScalarField;
    location    "0.117051";
    object      k;
}
// * * * * * * * * * * * * * * * * * * * * * * * * * * * * * * * * * * * * * //

dimensions      [0 2 -2 0 0 0 0];

internalField   nonuniform List<scalar> 
17600
(
0.554936
0.712125
0.829573
0.90505
0.945264
0.959899
0.958038
0.946807
0.931208
0.914437
0.898349
0.883876
0.871354
0.860762
0.851882
0.844412
0.838006
0.832418
0.826984
0.823534
0.373666
0.373109
0.374223
0.378088
0.384646
0.393783
0.405613
0.420179
0.437306
0.456574
0.477367
0.498939
0.520508
0.541344
0.560847
0.578591
0.594352
0.608093
0.620528
0.629712
0.362709
0.350061
0.335598
0.320453
0.305587
0.291799
0.27981
0.270193
0.263324
0.2594
0.25846
0.260424
0.265114
0.272277
0.281599
0.292727
0.305297
0.318926
0.333639
0.348017
0.361231
0.347637
0.333747
0.31958
0.305392
0.291461
0.278071
0.265485
0.253926
0.243574
0.234561
0.226985
0.220909
0.216369
0.213377
0.211925
0.211986
0.213534
0.216587
0.221274
0.361178
0.347823
0.334764
0.321864
0.309133
0.296647
0.284506
0.272814
0.261667
0.251146
0.241319
0.232237
0.223938
0.216451
0.209795
0.203982
0.199023
0.194927
0.191728
0.189492
0.361235
0.348124
0.335584
0.323466
0.311701
0.300269
0.289183
0.278472
0.268167
0.258301
0.248904
0.239997
0.2316
0.223724
0.216379
0.209569
0.203298
0.197563
0.192376
0.187739
0.361267
0.348283
0.336018
0.324337
0.313145
0.302384
0.292017
0.28203
0.272418
0.263184
0.254332
0.245866
0.23779
0.230108
0.222819
0.215924
0.20942
0.203304
0.197576
0.192233
0.36128
0.34835
0.336213
0.324754
0.31388
0.303515
0.293603
0.284104
0.274991
0.266245
0.257853
0.249806
0.242098
0.234721
0.227671
0.220942
0.21453
0.208427
0.202631
0.197145
0.361284
0.348374
0.336291
0.324936
0.314223
0.304077
0.294434
0.285242
0.276461
0.26806
0.260012
0.2523
0.244906
0.237819
0.231026
0.224518
0.218287
0.212324
0.206621
0.201189
0.361284
0.348381
0.336319
0.325009
0.314373
0.304338
0.294843
0.285831
0.277256
0.26908
0.261271
0.253801
0.246649
0.239795
0.233225
0.226923
0.220879
0.21508
0.209518
0.204205
0.361284
0.348382
0.336327
0.325035
0.314432
0.304451
0.295031
0.286118
0.277663
0.269625
0.261968
0.254662
0.247681
0.241
0.234601
0.228467
0.222582
0.216934
0.211512
0.206325
0.361284
0.348382
0.336328
0.325042
0.314453
0.304496
0.295112
0.286249
0.277859
0.2699
0.262336
0.255133
0.248264
0.241702
0.235426
0.229416
0.223655
0.218129
0.212824
0.20775
0.361284
0.348381
0.336327
0.325043
0.314458
0.304511
0.295144
0.286305
0.277948
0.270032
0.26252
0.255378
0.248578
0.242092
0.235898
0.229975
0.224304
0.218868
0.213654
0.208669
0.361284
0.34838
0.336325
0.325041
0.314458
0.304514
0.295154
0.286326
0.277985
0.270091
0.262607
0.255499
0.248739
0.2423
0.236158
0.230291
0.224679
0.219307
0.214158
0.209239
0.361283
0.348379
0.336323
0.325039
0.314456
0.304513
0.295155
0.286332
0.277998
0.270115
0.262645
0.255556
0.248818
0.242406
0.236294
0.230462
0.224889
0.219558
0.214453
0.20958
0.361283
0.348378
0.336322
0.325037
0.314453
0.304511
0.295153
0.286332
0.278001
0.270122
0.262659
0.255579
0.248854
0.242456
0.236362
0.23055
0.225
0.219695
0.214619
0.209776
0.361283
0.348378
0.336321
0.325035
0.314451
0.304508
0.295151
0.28633
0.278
0.270124
0.262664
0.255588
0.248869
0.242479
0.236394
0.230594
0.225057
0.219768
0.214709
0.209884
0.361283
0.348377
0.33632
0.325034
0.31445
0.304506
0.295149
0.286328
0.277999
0.270123
0.262664
0.255591
0.248874
0.242488
0.236408
0.230614
0.225085
0.219804
0.214755
0.209941
0.361283
0.348377
0.33632
0.325033
0.314448
0.304505
0.295147
0.286326
0.277997
0.270121
0.262663
0.255591
0.248875
0.242491
0.236414
0.230622
0.225097
0.219821
0.214777
0.209969
0.361283
0.348377
0.336319
0.325033
0.314448
0.304504
0.295146
0.286325
0.277996
0.27012
0.262662
0.25559
0.248875
0.242492
0.236415
0.230625
0.225102
0.219828
0.214786
0.20998
0.361283
0.348377
0.336319
0.325033
0.314448
0.304504
0.295146
0.286325
0.277996
0.27012
0.262662
0.25559
0.248875
0.242492
0.236415
0.230625
0.225102
0.219828
0.214786
0.209979
0.361283
0.348377
0.33632
0.325033
0.314448
0.304505
0.295147
0.286326
0.277997
0.270121
0.262663
0.255591
0.248875
0.242491
0.236414
0.230622
0.225097
0.219821
0.214776
0.209967
0.361283
0.348377
0.33632
0.325034
0.31445
0.304506
0.295149
0.286328
0.277999
0.270123
0.262664
0.255591
0.248874
0.242488
0.236408
0.230614
0.225085
0.219804
0.214754
0.209938
0.361283
0.348378
0.336321
0.325035
0.314451
0.304508
0.295151
0.28633
0.278
0.270124
0.262664
0.255588
0.248869
0.242479
0.236394
0.230594
0.225057
0.219767
0.214707
0.209879
0.361283
0.348378
0.336322
0.325037
0.314453
0.304511
0.295153
0.286332
0.278001
0.270122
0.262659
0.255579
0.248854
0.242456
0.236362
0.23055
0.225
0.219695
0.214617
0.20977
0.361283
0.348379
0.336323
0.325039
0.314456
0.304513
0.295155
0.286332
0.277998
0.270115
0.262645
0.255556
0.248818
0.242406
0.236294
0.230462
0.224888
0.219557
0.21445
0.209572
0.361284
0.34838
0.336325
0.325041
0.314458
0.304514
0.295154
0.286326
0.277985
0.270091
0.262607
0.255499
0.248739
0.2423
0.236158
0.230291
0.224679
0.219306
0.214155
0.20923
0.361284
0.348381
0.336327
0.325043
0.314458
0.304511
0.295144
0.286305
0.277948
0.270032
0.26252
0.255378
0.248578
0.242092
0.235898
0.229975
0.224303
0.218867
0.213651
0.208659
0.361284
0.348382
0.336328
0.325042
0.314453
0.304496
0.295112
0.286249
0.277859
0.2699
0.262336
0.255133
0.248264
0.241702
0.235425
0.229416
0.223655
0.218128
0.212821
0.207739
0.361284
0.348382
0.336327
0.325035
0.314432
0.304451
0.295031
0.286118
0.277663
0.269625
0.261968
0.254662
0.24768
0.241
0.234601
0.228467
0.222582
0.216933
0.211509
0.206315
0.361284
0.348381
0.336319
0.325009
0.314373
0.304338
0.294843
0.285831
0.277256
0.26908
0.261271
0.253801
0.246649
0.239795
0.233225
0.226923
0.220878
0.215079
0.209516
0.204197
0.361284
0.348374
0.336291
0.324936
0.314223
0.304077
0.294434
0.285242
0.276461
0.26806
0.260012
0.2523
0.244906
0.237819
0.231026
0.224518
0.218287
0.212324
0.20662
0.201185
0.36128
0.34835
0.336213
0.324754
0.31388
0.303515
0.293603
0.284104
0.274991
0.266245
0.257853
0.249806
0.242098
0.234721
0.227671
0.220942
0.21453
0.208428
0.202631
0.197146
0.361267
0.348283
0.336018
0.324337
0.313145
0.302384
0.292017
0.28203
0.272418
0.263184
0.254332
0.245866
0.23779
0.230107
0.222819
0.215924
0.20942
0.203305
0.197574
0.192236
0.361235
0.348124
0.335584
0.323466
0.311701
0.300269
0.289183
0.278472
0.268167
0.258301
0.248904
0.239997
0.2316
0.223724
0.216379
0.209569
0.203297
0.197562
0.192364
0.187712
0.361178
0.347823
0.334764
0.321864
0.309133
0.296647
0.284506
0.272814
0.261667
0.251146
0.241319
0.232237
0.223938
0.216451
0.209795
0.203982
0.199021
0.194918
0.191678
0.189313
0.361231
0.347637
0.333747
0.31958
0.305392
0.291461
0.278071
0.265485
0.253926
0.243574
0.234561
0.226985
0.220909
0.216369
0.213377
0.211924
0.211981
0.2135
0.216422
0.220673
0.362709
0.350061
0.335598
0.320453
0.305587
0.291799
0.27981
0.270193
0.263324
0.2594
0.25846
0.260424
0.265114
0.272276
0.281597
0.292722
0.305275
0.318877
0.333173
0.347799
0.373666
0.373109
0.374223
0.378088
0.384646
0.393783
0.405613
0.420179
0.437306
0.456574
0.477367
0.498938
0.520505
0.541339
0.560837
0.578572
0.594304
0.60797
0.619666
0.629547
0.554936
0.712125
0.829573
0.90505
0.945264
0.959899
0.958038
0.946807
0.931208
0.914437
0.898349
0.883876
0.871353
0.860761
0.851881
0.844407
0.838018
0.832415
0.827341
0.822577
1.16925
1.56379
1.9713
2.34871
2.67005
2.93025
3.13728
3.30271
3.43618
3.54406
3.63015
3.69695
3.74664
3.78171
3.80502
3.81955
3.82814
3.83331
3.83717
3.84144
3.84746
3.85628
3.86863
3.88503
3.90578
3.93097
3.96054
3.99434
4.03212
4.07357
4.11836
4.16616
4.21664
4.26947
4.32434
4.38097
4.43909
4.49842
4.55867
4.61957
4.6808
4.74199
4.80275
4.86265
4.92119
4.97782
5.03197
5.083
5.13026
5.17304
5.21066
5.24238
5.26752
5.28536
5.29524
5.29652
5.2886
5.2709
5.24293
5.20421
5.15434
5.09297
5.0198
4.93459
4.83715
4.72736
4.60517
4.47059
4.3237
4.16467
3.9938
3.81147
3.61825
3.41487
3.20229
2.98173
2.75473
2.52321
2.28948
2.05631
1.82687
1.60465
1.3933
1.19631
1.01669
0.856686
0.717556
0.59962
0.50243
0.425054
0.366434
0.325765
0.302743
0.297488
0.310147
0.340514
0.387883
0.451024
0.528013
0.615938
0.710796
0.807817
0.902133
0.989448
1.06646
1.13097
1.18172
1.21822
1.24047
1.24878
1.24365
1.22568
1.19555
1.15401
1.10235
1.04232
0.976288
0.9074
0.839603
0.777423
0.725337
0.686837
0.663523
0.654662
0.657428
0.667688
0.680983
0.693342
0.701772
0.704405
0.700419
0.689821
0.673208
0.651537
0.625932
0.597548
0.567473
0.536667
0.505935
0.475918
0.447096
0.419811
0.394277
0.37061
0.348845
0.328956
0.310874
0.294499
0.279713
0.266389
0.254396
0.243607
0.2339
0.225159
0.217281
0.210169
0.203738
0.197912
0.192624
0.187815
0.183435
0.17944
0.175794
0.172466
0.16943
0.166666
0.164157
0.161892
0.159864
0.158068
0.156504
0.155177
0.154096
0.153274
0.15273
0.152488
0.15258
0.153047
0.15394
0.155322
0.157274
0.159897
0.163322
0.167714
0.173293
0.180346
0.189262
0.200574
0.215019
0.233629
0.257843
0.289622
0.331602
0.386898
0.46023
0.556022
0.703852
0.930303
1.58295
1.04815
0.656778
0.71187
0.804741
0.940976
1.12115
1.33941
1.58455
1.8423
2.09749
2.33661
2.55
2.73289
2.88491
3.00863
3.10797
3.18703
3.24953
3.29883
3.33792
3.36952
3.39602
3.41945
3.4415
3.4635
3.48645
3.51111
3.53802
3.56755
3.59994
3.6353
3.67365
3.71495
3.7591
3.80597
3.8554
3.90721
3.9612
4.01715
4.07481
4.13389
4.19408
4.25499
4.3162
4.37723
4.43753
4.4965
4.55351
4.60784
4.65877
4.70555
4.74738
4.78349
4.8131
4.83544
4.84978
4.85542
4.85171
4.83803
4.81383
4.77862
4.73197
4.67351
4.60293
4.52001
4.42458
4.31655
4.19592
4.06275
3.91722
3.75963
3.59037
3.41002
3.21935
3.01931
2.81117
2.59647
2.37714
2.1555
1.93431
1.71671
1.50614
1.30616
1.12015
0.950971
0.800685
0.670381
0.560211
0.469585
0.397457
0.342673
0.304369
0.282302
0.276891
0.288874
0.318829
0.366878
0.432567
0.514612
0.610474
0.716091
0.826173
0.935023
1.03747
1.1295
1.20843
1.27278
1.32198
1.35603
1.37534
1.38046
1.37206
1.3508
1.3173
1.27213
1.21638
1.15154
1.07961
1.00327
0.926047
0.852193
0.78631
0.732534
0.693559
0.669917
0.659866
0.659926
0.665802
0.673299
0.678982
0.680479
0.676498
0.666662
0.651277
0.631089
0.607082
0.580319
0.551829
0.522538
0.493233
0.464545
0.436952
0.410794
0.386291
0.363561
0.342644
0.323519
0.306121
0.290356
0.276111
0.263264
0.25169
0.241267
0.231876
0.223409
0.215764
0.208851
0.202587
0.196901
0.191728
0.187014
0.18271
0.178776
0.175177
0.171884
0.168873
0.166125
0.163625
0.161363
0.159332
0.157529
0.155954
0.154612
0.153513
0.15267
0.152103
0.151835
0.151901
0.15234
0.153204
0.154559
0.156486
0.15909
0.162504
0.166902
0.172509
0.179628
0.18867
0.200204
0.215026
0.234274
0.259574
0.29322
0.338411
0.399193
0.481581
0.59165
0.759182
1.00965
1.66581
1.19862
0.353389
0.360943
0.372393
0.391434
0.422126
0.469176
0.537811
0.633045
0.758442
0.914601
1.09794
1.30048
1.51109
1.71779
1.91044
2.08245
2.23115
2.35711
2.46287
2.55169
2.62678
2.691
2.74677
2.79615
2.8409
2.88255
2.92239
2.96151
3.00077
3.04087
3.08234
3.12555
3.1708
3.21828
3.26809
3.32029
3.37486
3.43172
3.49073
3.55168
3.61428
3.67818
3.74296
3.80812
3.87309
3.93724
3.99985
4.06018
4.11743
4.17076
4.21932
4.26227
4.29875
4.32793
4.34901
4.36124
4.36391
4.35637
4.33802
4.30836
4.26693
4.21336
4.14736
4.06871
3.97729
3.87305
3.75606
3.62648
3.4846
3.33085
3.16581
2.99025
2.8052
2.61191
2.41196
2.2073
2.00025
1.79354
1.59029
1.39385
1.20765
1.0349
0.878261
0.739585
0.619754
0.518751
0.435851
0.369915
0.319713
0.284317
0.263481
0.257807
0.268505
0.296901
0.344005
0.410265
0.49524
0.59702
0.71174
0.833735
0.956475
1.0738
1.18084
1.27432
1.35246
1.41454
1.46062
1.49112
1.50672
1.50816
1.49619
1.4715
1.43468
1.38615
1.32684
1.25804
1.18141
1.09925
1.01464
0.931449
0.85415
0.787172
0.733981
0.696202
0.673197
0.662319
0.659679
0.661083
0.662811
0.662075
0.65715
0.647276
0.632456
0.613208
0.590356
0.564852
0.537652
0.509637
0.481562
0.454042
0.427545
0.402405
0.37884
0.356969
0.336833
0.318414
0.30165
0.28645
0.272708
0.260303
0.249117
0.239031
0.229933
0.221716
0.214286
0.207553
0.201442
0.195882
0.190813
0.186184
0.181948
0.178067
0.174509
0.171246
0.168257
0.165523
0.163031
0.16077
0.158736
0.156926
0.15534
0.153985
0.152869
0.152007
0.151418
0.151127
0.151167
0.15158
0.152416
0.153743
0.155643
0.158223
0.16162
0.16601
0.171629
0.178789
0.187919
0.199617
0.214732
0.234489
0.260676
0.295881
0.343817
0.409435
0.499851
0.623354
0.805783
1.08079
1.68299
1.33489
0.222862
0.224472
0.22617
0.228206
0.231483
0.236745
0.245123
0.258239
0.278349
0.308427
0.351939
0.412587
0.493514
0.596309
0.720179
0.860896
1.01214
1.16663
1.31746
1.45924
1.5887
1.7046
1.80732
1.89822
1.97911
2.05187
2.11827
2.17984
2.23793
2.29368
2.34808
2.40198
2.45611
2.51106
2.56733
2.62528
2.68518
2.74718
2.81133
2.87756
2.94573
3.01555
3.08667
3.15861
3.23081
3.30262
3.3733
3.44204
3.508
3.57027
3.62793
3.68006
3.72573
3.76406
3.79416
3.81524
3.82653
3.82733
3.81704
3.7951
3.76107
3.71457
3.65533
3.58317
3.49802
3.3999
3.28898
3.16554
3.03
2.88298
2.72526
2.5579
2.38218
2.19971
2.01245
1.82273
1.63326
1.44707
1.2674
1.09752
0.94041
0.798473
0.673306
0.565578
0.475105
0.401051
0.342213
0.297321
0.26541
0.246204
0.240378
0.249466
0.27543
0.320149
0.385049
0.470693
0.576068
0.69783
0.83019
0.965863
1.09761
1.21953
1.32764
1.41972
1.49491
1.55323
1.59516
1.62145
1.63293
1.63044
1.61477
1.58661
1.54651
1.49479
1.4323
1.36011
1.27966
1.19291
1.10252
1.01199
0.925478
0.847458
0.78185
0.731124
0.695655
0.673694
0.661928
0.656361
0.653162
0.649239
0.642498
0.631825
0.61692
0.598066
0.575915
0.551294
0.525075
0.498079
0.471023
0.444496
0.418949
0.394705
0.371976
0.350877
0.331447
0.313669
0.297482
0.282799
0.269515
0.257514
0.246681
0.236902
0.228069
0.220079
0.212841
0.206271
0.200295
0.194847
0.18987
0.185315
0.181138
0.177304
0.173781
0.170544
0.167573
0.16485
0.162363
0.160104
0.158067
0.15625
0.154654
0.153287
0.152156
0.151277
0.150668
0.150356
0.150372
0.150759
0.151568
0.152867
0.154739
0.157293
0.160666
0.16504
0.170654
0.17783
0.187013
0.198821
0.214144
0.234278
0.261143
0.297575
0.347718
0.41734
0.51437
0.64944
0.841916
1.1354
1.6809
1.45183
0.188909
0.188345
0.187776
0.187218
0.186805
0.186654
0.186888
0.187688
0.189328
0.192219
0.197067
0.204784
0.216527
0.233725
0.257998
0.291806
0.337047
0.394931
0.46562
0.548012
0.639823
0.737949
0.838994
0.939798
1.03784
1.13143
1.21973
1.30262
1.38051
1.45414
1.52439
1.59221
1.6585
1.7241
1.78974
1.85603
1.92349
1.99252
2.06338
2.13624
2.21111
2.28787
2.36626
2.4459
2.52626
2.60672
2.68653
2.76486
2.84079
2.91338
2.98162
3.04452
3.10107
3.1503
3.19126
3.22308
3.24494
3.2561
3.25591
3.24381
3.21933
3.18212
3.13194
3.06864
2.99223
2.90284
2.80072
2.68633
2.56026
2.42334
2.27664
2.12147
1.95946
1.79259
1.62318
1.45388
1.28763
1.12751
0.976548
0.837448
0.712315
0.602464
0.508343
0.429624
0.365395
0.31443
0.275474
0.247569
0.230421
0.224705
0.232123
0.2551
0.296282
0.35807
0.442128
0.548576
0.674951
0.815702
0.962979
1.10843
1.24496
1.36768
1.47383
1.56234
1.63315
1.6868
1.72408
1.74587
1.75309
1.7466
1.72719
1.69556
1.65222
1.59743
1.53196
1.45677
1.37308
1.28262
1.18769
1.0914
0.997587
0.910568
0.834454
0.772296
0.725311
0.692619
0.671574
0.658532
0.649705
0.641827
0.632517
0.620351
0.604747
0.585759
0.563858
0.539742
0.514186
0.487945
0.461688
0.43597
0.411218
0.387741
0.365737
0.345315
0.326511
0.309303
0.293633
0.279413
0.266539
0.2549
0.244384
0.234879
0.226281
0.218492
0.211424
0.204996
0.199139
0.193788
0.188891
0.184399
0.180272
0.176477
0.172983
0.169768
0.166811
0.164097
0.161614
0.159355
0.157314
0.155491
0.153887
0.152508
0.151364
0.15047
0.149844
0.149512
0.149507
0.14987
0.150654
0.151925
0.153769
0.156293
0.159637
0.163986
0.169582
0.176753
0.185954
0.19782
0.213269
0.233651
0.260984
0.298295
0.350064
0.422732
0.524772
0.668785
0.867987
1.16975
1.6747
1.55457
0.186384
0.185075
0.183798
0.182555
0.181364
0.180247
0.179218
0.178296
0.177512
0.176919
0.176611
0.176712
0.177385
0.178845
0.181356
0.185282
0.191255
0.199972
0.212243
0.228953
0.250976
0.279051
0.313644
0.354843
0.402319
0.455359
0.512977
0.57406
0.637523
0.702433
0.768093
0.834082
0.900243
0.966647
1.03354
1.10126
1.17023
1.24084
1.31344
1.3883
1.46556
1.54525
1.62722
1.71119
1.7967
1.88317
1.96985
2.0559
2.14037
2.22222
2.30037
2.37372
2.44116
2.50162
2.55404
2.59746
2.63097
2.65378
2.66518
2.66457
2.65147
2.62555
2.58658
2.53449
2.46936
2.39141
2.30108
2.19896
2.08589
1.96292
1.83142
1.69301
1.54966
1.40365
1.25755
1.11415
0.976323
0.846791
0.727922
0.621484
0.528502
0.449221
0.383203
0.32951
0.286956
0.254363
0.230844
0.216121
0.210839
0.21673
0.236485
0.273338
0.330567
0.410946
0.515888
0.64416
0.790902
0.948029
1.10614
1.2568
1.39399
1.51428
1.61626
1.69982
1.76549
1.81409
1.84656
1.86384
1.86682
1.85636
1.83326
1.79817
1.75161
1.69381
1.62547
1.54748
1.46094
1.36735
1.26877
1.16795
1.06842
0.974207
0.889439
0.817496
0.760237
0.717547
0.687464
0.666793
0.65192
0.639527
0.627038
0.61278
0.595924
0.576307
0.554226
0.530245
0.505038
0.479286
0.453603
0.428504
0.404389
0.381542
0.360148
0.340304
0.322039
0.305329
0.29011
0.276295
0.263782
0.252461
0.242221
0.232956
0.224563
0.216949
0.210027
0.203722
0.197965
0.192697
0.187865
0.183426
0.179341
0.175576
0.172106
0.168907
0.165961
0.163253
0.160774
0.158514
0.15647
0.154641
0.153029
0.151641
0.150485
0.149577
0.148936
0.148587
0.148563
0.148904
0.149664
0.150909
0.152724
0.155217
0.158529
0.162845
0.16841
0.175557
0.184744
0.196618
0.212116
0.23262
0.260212
0.298054
0.350854
0.425548
0.530951
0.68088
0.884529
1.18439
1.66079
1.64545
0.190648
0.189113
0.187614
0.18615
0.184724
0.183337
0.181991
0.180687
0.179429
0.178222
0.177081
0.176027
0.175086
0.174296
0.173701
0.173362
0.173377
0.173861
0.174961
0.176858
0.179769
0.183952
0.189699
0.197332
0.207192
0.219616
0.234921
0.253375
0.275184
0.300479
0.329321
0.361718
0.397642
0.437062
0.479963
0.526366
0.576331
0.629958
0.687366
0.748672
0.813957
0.883235
0.956414
1.03327
1.11343
1.19635
1.28132
1.36745
1.45375
1.53908
1.62224
1.70197
1.77701
1.84612
1.90809
1.9618
2.00621
2.04039
2.06354
2.075
2.07425
2.06092
2.03483
1.99593
1.94439
1.88056
1.80501
1.71854
1.6222
1.51732
1.40551
1.28868
1.16903
1.04899
0.931128
0.818019
0.712042
0.615182
0.528854
0.453805
0.390114
0.337288
0.294433
0.260474
0.23438
0.215403
0.203333
0.198781
0.203414
0.21999
0.252103
0.303726
0.378651
0.479627
0.60693
0.756882
0.921641
1.09097
1.25501
1.40636
1.54071
1.65625
1.75273
1.83068
1.89097
1.93453
1.9623
1.97518
1.97405
1.95972
1.93297
1.89446
1.84467
1.78386
1.71268
1.63199
1.54281
1.44648
1.34488
1.24047
1.13645
1.03659
0.944855
0.864773
0.798628
0.746932
0.708362
0.680215
0.659146
0.641889
0.62577
0.608934
0.590347
0.569657
0.546997
0.5228
0.497639
0.472115
0.446785
0.422117
0.398475
0.376121
0.355219
0.335852
0.318039
0.301748
0.286913
0.273445
0.26124
0.250191
0.240188
0.231127
0.222908
0.21544
0.208641
0.202437
0.196763
0.191562
0.186784
0.182386
0.178333
0.174593
0.17114
0.167953
0.165014
0.162311
0.159832
0.157571
0.155524
0.15369
0.152071
0.150675
0.14951
0.148591
0.147937
0.147573
0.147531
0.147853
0.148591
0.14981
0.151597
0.154058
0.157334
0.161612
0.167136
0.174239
0.183384
0.195221
0.210694
0.231201
0.258854
0.296886
0.350135
0.425833
0.532989
0.685761
0.89172
1.18234
1.63328
1.71785
0.195507
0.193918
0.19236
0.190833
0.189336
0.187867
0.186426
0.185012
0.183624
0.182264
0.180932
0.179633
0.178373
0.177161
0.176009
0.17493
0.173942
0.173071
0.172347
0.171807
0.171497
0.171469
0.171786
0.172519
0.173749
0.175569
0.178084
0.181413
0.185691
0.191067
0.197712
0.205816
0.215598
0.227305
0.241222
0.257671
0.277014
0.299654
0.326024
0.356575
0.391747
0.431935
0.477447
0.528457
0.584958
0.646727
0.713301
0.783979
0.857829
0.933726
1.01038
1.0864
1.16031
1.23065
1.29597
1.35489
1.40615
1.44861
1.48129
1.50337
1.51423
1.51341
1.5007
1.47608
1.43976
1.39217
1.33404
1.2663
1.19021
1.10728
1.0193
0.928288
0.836443
0.746036
0.659273
0.57813
0.504192
0.438537
0.381676
0.333582
0.293783
0.261507
0.235868
0.216053
0.201504
0.192123
0.1885
0.19218
0.205826
0.233147
0.278566
0.346701
0.441558
0.565061
0.715167
0.884881
1.06353
1.23985
1.40484
1.55304
1.68205
1.79149
1.88189
1.95416
2.00921
2.04795
2.07124
2.07993
2.07482
2.05673
2.02639
1.98446
1.93144
1.86758
1.79355
1.71018
1.61847
1.51966
1.41546
1.30813
1.20061
1.09636
0.999154
0.912483
0.83888
0.779321
0.733037
0.697816
0.670635
0.648369
0.628328
0.608547
0.587839
0.565692
0.542096
0.517361
0.49196
0.466417
0.441224
0.416802
0.393477
0.371478
0.35095
0.331957
0.314506
0.298557
0.284038
0.270856
0.258908
0.248084
0.238277
0.229383
0.221306
0.213957
0.207257
0.201133
0.195524
0.190374
0.185637
0.18127
0.17724
0.173516
0.170075
0.166896
0.163962
0.16126
0.158781
0.156518
0.154468
0.152629
0.151005
0.149602
0.148429
0.147501
0.146836
0.14646
0.146403
0.146708
0.147425
0.148621
0.150379
0.152807
0.156046
0.160279
0.165752
0.172797
0.181873
0.19363
0.20901
0.229409
0.256938
0.294842
0.347992
0.423718
0.531109
0.683895
0.889757
1.16726
1.59026
1.76153
0.199562
0.197981
0.196426
0.194897
0.193393
0.191911
0.190451
0.189013
0.187595
0.186199
0.184823
0.183469
0.182139
0.180837
0.179564
0.178326
0.177126
0.175971
0.17487
0.173831
0.172867
0.171991
0.171219
0.17057
0.170064
0.169725
0.169579
0.169656
0.169988
0.170616
0.171583
0.172944
0.174764
0.177124
0.180125
0.183894
0.188592
0.194423
0.201644
0.210573
0.221598
0.235182
0.251849
0.272172
0.296725
0.326028
0.36047
0.400228
0.445201
0.494959
0.54874
0.605473
0.663841
0.722356
0.779441
0.83351
0.883035
0.926602
0.962956
0.991036
1.01
1.01924
1.0184
1.00739
0.986388
0.955859
0.916537
0.869444
0.815867
0.757338
0.695584
0.632454
0.569821
0.509458
0.452909
0.401374
0.35564
0.316053
0.282561
0.254792
0.232175
0.214076
0.199939
0.189424
0.182559
0.17993
0.18293
0.194012
0.216784
0.255844
0.316372
0.403423
0.520547
0.667658
0.839252
1.02483
1.21192
1.38975
1.55137
1.69362
1.81588
1.91872
2.0031
2.06995
2.1201
2.15435
2.17343
2.17812
2.16919
2.14741
2.11353
2.06819
2.01191
1.94496
1.86803
1.78198
1.68778
1.58664
1.48014
1.37042
1.26015
1.15255
1.05115
0.959296
0.879621
0.813407
0.760326
0.718615
0.685602
0.65836
0.634258
0.611286
0.588158
0.564239
0.539399
0.513838
0.487939
0.462146
0.436888
0.412536
0.389373
0.367598
0.347327
0.328608
0.311431
0.295746
0.281474
0.268519
0.256773
0.246127
0.236475
0.227713
0.219746
0.212489
0.205863
0.199799
0.194237
0.189124
0.184413
0.180067
0.176051
0.172338
0.168903
0.165727
0.162794
0.160092
0.157612
0.155346
0.153293
0.151451
0.149822
0.148414
0.147235
0.1463
0.145626
0.145239
0.14517
0.14546
0.146158
0.147331
0.149062
0.151457
0.154656
0.15884
0.164253
0.171224
0.180208
0.191849
0.207074
0.227264
0.2545
0.291987
0.344539
0.419404
0.525639
0.676032
0.879152
1.1423
1.53361
1.77008
0.20261
0.201058
0.199529
0.198022
0.196536
0.195069
0.193622
0.192193
0.190783
0.189391
0.188017
0.186663
0.185328
0.184015
0.182723
0.181455
0.180213
0.178997
0.177812
0.176659
0.175542
0.174465
0.173432
0.172449
0.171522
0.170659
0.169865
0.169151
0.168526
0.168001
0.167589
0.167304
0.167163
0.167187
0.167403
0.167844
0.168551
0.16958
0.171
0.172906
0.175418
0.178694
0.182936
0.1884
0.195402
0.204318
0.215576
0.229635
0.246934
0.26783
0.292524
0.320976
0.352853
0.387503
0.423974
0.461078
0.497475
0.531769
0.562604
0.588742
0.60913
0.622944
0.629626
0.628904
0.620799
0.60563
0.584004
0.556791
0.525091
0.490175
0.453414
0.41619
0.379799
0.345353
0.313711
0.285437
0.260792
0.239773
0.222173
0.207659
0.195862
0.186479
0.179371
0.174678
0.172974
0.175495
0.184416
0.203083
0.236013
0.288647
0.366787
0.475414
0.61652
0.786662
0.976285
1.17217
1.3617
1.53612
1.69118
1.8259
1.94094
2.03736
2.11613
2.17803
2.2237
2.25377
2.26889
2.26975
2.2571
2.2317
2.1943
2.14556
2.086
2.01591
1.93605
1.84729
1.75063
1.64726
1.53871
1.42697
1.31456
1.20447
1.09994
1.00417
0.919724
0.848058
0.789171
0.741686
0.703271
0.671237
0.643069
0.616774
0.591016
0.565081
0.538742
0.51211
0.485482
0.459231
0.433723
0.409275
0.386131
0.364452
0.344328
0.325784
0.308794
0.293298
0.279207
0.266419
0.254823
0.24431
0.23477
0.226104
0.218217
0.211023
0.204448
0.198424
0.192891
0.1878
0.183105
0.178768
0.174759
0.171048
0.167614
0.164438
0.161503
0.158799
0.156316
0.154048
0.151992
0.150146
0.148515
0.147102
0.145919
0.144978
0.144298
0.143903
0.143823
0.144099
0.144781
0.145933
0.147637
0.149999
0.153155
0.157286
0.162632
0.169516
0.178387
0.189876
0.204893
0.224784
0.251577
0.28839
0.339906
0.413142
0.51699
0.66306
0.860793
1.10968
1.46709
1.74352
0.204767
0.203249
0.201751
0.200273
0.198814
0.197373
0.195949
0.194542
0.193153
0.19178
0.190425
0.189087
0.187767
0.186467
0.185185
0.183923
0.182682
0.181463
0.180265
0.179091
0.177941
0.176817
0.17572
0.174652
0.173614
0.172609
0.171638
0.170705
0.169812
0.168962
0.16816
0.167409
0.166715
0.166084
0.165523
0.16504
0.164649
0.164362
0.164201
0.164189
0.16436
0.164757
0.165435
0.166469
0.167953
0.170007
0.172781
0.17646
0.181256
0.18741
0.195166
0.204749
0.216318
0.229922
0.245448
0.262587
0.280823
0.299455
0.317644
0.334487
0.349096
0.360678
0.368598
0.372433
0.372
0.367364
0.358831
0.346921
0.332321
0.315824
0.298266
0.28045
0.263084
0.246736
0.231801
0.218506
0.206922
0.197
0.188611
0.181605
0.175869
0.171408
0.168433
0.167489
0.169649
0.176796
0.19191
0.219228
0.264156
0.332902
0.43154
0.564024
0.729352
0.919722
1.12191
1.32163
1.50799
1.67524
1.82187
1.94858
2.05668
2.14724
2.221
2.27846
2.32003
2.3462
2.35752
2.35467
2.33837
2.3094
2.2685
2.21635
2.1535
2.08026
1.99744
1.90597
1.80689
1.70139
1.59097
1.47755
1.3635
1.25162
1.1449
1.04631
0.958289
0.882334
0.818654
0.766181
0.722902
0.686379
0.654254
0.624606
0.596097
0.567969
0.539933
0.512026
0.484473
0.45758
0.431655
0.406963
0.383703
0.362002
0.341919
0.323458
0.306574
0.291193
0.277217
0.264538
0.253041
0.242615
0.233149
0.224544
0.216705
0.209549
0.203002
0.196997
0.191477
0.186393
0.181701
0.177365
0.173353
0.16964
0.166202
0.163021
0.160082
0.157374
0.154887
0.152616
0.150557
0.148709
0.147075
0.14566
0.144474
0.14353
0.142845
0.142443
0.142355
0.142619
0.143286
0.144417
0.146095
0.148423
0.151535
0.155609
0.16088
0.167667
0.176406
0.187713
0.202472
0.221986
0.248208
0.284129
0.334238
0.405204
0.505624
0.645895
0.835868
1.07089
1.39464
1.68727
0.206224
0.204737
0.203269
0.20182
0.200388
0.198973
0.197575
0.196192
0.194826
0.193477
0.192144
0.190827
0.189528
0.188247
0.186983
0.185737
0.184509
0.183301
0.182111
0.180941
0.179791
0.178661
0.177553
0.176465
0.175399
0.174356
0.173335
0.172338
0.171366
0.170418
0.169497
0.168603
0.167737
0.166902
0.166098
0.165329
0.164597
0.163907
0.163265
0.162676
0.16215
0.161701
0.161344
0.1611
0.160998
0.161073
0.16137
0.161946
0.162869
0.16422
0.166092
0.168584
0.171792
0.1758
0.180659
0.186366
0.192844
0.19993
0.207364
0.214804
0.221847
0.228073
0.233087
0.236563
0.238284
0.238162
0.236245
0.232709
0.227831
0.221954
0.215446
0.208666
0.201925
0.195472
0.189478
0.184039
0.179189
0.174914
0.171185
0.167993
0.165414
0.16368
0.163284
0.165143
0.170852
0.182991
0.205384
0.243172
0.302622
0.390489
0.512361
0.669764
0.857352
1.06283
1.27076
1.46794
1.64662
1.8044
1.94201
2.06108
2.16296
2.24841
2.31778
2.37124
2.40901
2.43145
2.43909
2.43259
2.41269
2.38017
2.33579
2.28026
2.21412
2.13773
2.05197
1.95783
1.85639
1.74888
1.63679
1.52199
1.40675
1.29369
1.18559
1.08514
0.994627
0.915473
0.847996
0.791357
0.743818
0.703195
0.667317
0.634371
0.603066
0.572637
0.542758
0.513415
0.484775
0.457084
0.430597
0.405528
0.382032
0.360201
0.340063
0.321596
0.30474
0.289404
0.275482
0.262857
0.25141
0.241027
0.231597
0.223018
0.215198
0.208054
0.201512
0.195508
0.189985
0.184895
0.180195
0.17585
0.171828
0.168105
0.164658
0.16147
0.158524
0.15581
0.153319
0.151044
0.148983
0.147133
0.145498
0.144082
0.142894
0.141947
0.141259
0.140852
0.140757
0.141011
0.141663
0.142775
0.144427
0.14672
0.149787
0.1538
0.158991
0.165668
0.174259
0.185357
0.199817
0.218887
0.24443
0.279279
0.32768
0.395872
0.492026
0.625416
0.80573
1.02703
1.31932
1.60974
0.207169
0.205708
0.204265
0.202839
0.201431
0.200039
0.198663
0.197303
0.195959
0.194631
0.193319
0.192024
0.190744
0.189482
0.188236
0.187007
0.185795
0.184601
0.183424
0.182264
0.181122
0.179998
0.178892
0.177804
0.176735
0.175683
0.17465
0.173636
0.17264
0.171662
0.170704
0.169763
0.168842
0.16794
0.167056
0.166193
0.165349
0.164527
0.163726
0.16295
0.162201
0.161482
0.160798
0.160156
0.159564
0.159034
0.158581
0.158222
0.157981
0.157884
0.157964
0.158255
0.158796
0.159623
0.160767
0.162248
0.164067
0.166199
0.168588
0.171145
0.173748
0.176254
0.178509
0.180367
0.181708
0.182452
0.182568
0.182078
0.181046
0.179572
0.177775
0.175775
0.173682
0.171587
0.169549
0.167605
0.165768
0.164045
0.16246
0.161103
0.160185
0.160133
0.161715
0.166265
0.175975
0.194203
0.225657
0.276385
0.353397
0.46344
0.610352
0.791669
0.997017
1.21066
1.4172
1.60642
1.7745
1.92199
2.05098
2.16329
2.25989
2.34099
2.40648
2.45627
2.49041
2.50921
2.51321
2.50307
2.47958
2.44354
2.39573
2.33685
2.26747
2.18798
2.09934
2.00262
1.89894
1.78958
1.67604
1.56017
1.44417
1.33048
1.22171
1.12028
1.02824
0.946888
0.876565
0.816578
0.765419
0.721142
0.681782
0.645668
0.611588
0.578806
0.54699
0.516093
0.486239
0.457624
0.430452
0.404891
0.381053
0.358994
0.338713
0.320161
0.30326
0.287905
0.273977
0.261354
0.249911
0.239529
0.230098
0.221514
0.213685
0.206528
0.19997
0.193949
0.188407
0.183298
0.178579
0.174216
0.170178
0.16644
0.16298
0.15978
0.156825
0.154104
0.151607
0.149329
0.147264