/*--------------------------------*- C++ -*----------------------------------*\
| =========                 |                                                 |
| \\      /  F ield         | OpenFOAM: The Open Source CFD Toolbox           |
|  \\    /   O peration     | Version:  2.4.0                                 |
|   \\  /    A nd           | Web:      www.OpenFOAM.org                      |
|    \\/     M anipulation  |                                                 |
\*---------------------------------------------------------------------------*/
FoamFile
{
    version     2.0;
    format      ascii;
    class       volSymmTensorField;
    location    "0.065";
    object      UPrime2Mean;
}
// * * * * * * * * * * * * * * * * * * * * * * * * * * * * * * * * * * * * * //

dimensions      [0 2 -2 0 0 0 0];

internalField   nonuniform List<symmTensor> 
17600
(
(0.0596298 -0.00646097 0 0.000978161 0 0)
(0.613822 -0.00253207 0 5.70957e-05 0 0)
(0.795712 -5.24337e-05 0 3.93196e-06 0 0)
(0.88145 -0.000650041 0 2.47281e-06 0 0)
(0.941494 -0.000490712 0 1.18709e-06 0 0)
(0.984353 -0.000196673 0 6.82094e-07 0 0)
(1.01315 -4.95166e-05 0 4.47609e-07 0 0)
(1.03563 1.11031e-05 0 2.66897e-07 0 0)
(1.04952 2.38267e-05 0 2.64769e-07 0 0)
(1.06324 -1.37333e-06 0 2.24755e-07 0 0)
(1.07081 -9.8567e-06 0 1.59848e-07 0 0)
(1.08428 -7.84579e-05 0 2.51446e-07 0 0)
(1.09156 -7.60526e-05 0 2.49469e-07 0 0)
(1.10975 -0.000194343 0 4.5963e-07 0 0)
(1.12107 -0.000222199 0 5.66275e-07 0 0)
(1.15634 -0.000640025 0 3.21507e-06 0 0)
(1.18784 -0.00100397 0 3.23691e-06 0 0)
(1.3293 0.000723508 0 3.22637e-05 0 0)
(1.54922 -0.0445187 0 0.00187168 0 0)
(2.81546 0.224099 0 0.0281021 0 0)
(0.029095 0.0129706 0 0.01016 0 0)
(0.248376 -0.0237625 0 0.00240373 0 0)
(0.499628 -0.0133131 0 0.000360907 0 0)
(0.667309 -0.00933497 0 0.000143387 0 0)
(0.811706 -0.00756295 0 0.000111145 0 0)
(0.947583 -0.0060941 0 9.92886e-05 0 0)
(1.05617 -0.00466854 0 7.66004e-05 0 0)
(1.15003 -0.00341143 0 4.64831e-05 0 0)
(1.21168 -0.00255932 0 2.47459e-05 0 0)
(1.27466 -0.00210299 0 1.39989e-05 0 0)
(1.30689 -0.00194291 0 7.18153e-06 0 0)
(1.3668 -0.00207661 0 6.64116e-06 0 0)
(1.38922 -0.00231645 0 1.09348e-05 0 0)
(1.46437 -0.00239641 0 9.79388e-06 0 0)
(1.48362 -0.00383256 0 2.11355e-05 0 0)
(1.61505 -0.0034462 0 2.05257e-05 0 0)
(1.6103 -0.0108155 0 0.000114034 0 0)
(2.14139 -0.015472 0 0.000169507 0 0)
(1.87237 -0.0505453 0 0.00197743 0 0)
(5.82555 -0.68916 0 0.114909 0 0)
(0.10192 0.0386362 0 0.0159783 0 0)
(0.040759 -0.0150353 0 0.00682978 0 0)
(0.173163 -0.0167211 0 0.00175724 0 0)
(0.296673 -0.0157888 0 0.000857369 0 0)
(0.433422 -0.0154694 0 0.000647231 0 0)
(0.593257 -0.0144425 0 0.000569468 0 0)
(0.738761 -0.0123147 0 0.000460084 0 0)
(0.878287 -0.00976051 0 0.000298189 0 0)
(0.974373 -0.00769553 0 0.000174107 0 0)
(1.0789 -0.00637285 0 9.63268e-05 0 0)
(1.12957 -0.00578226 0 4.9767e-05 0 0)
(1.23255 -0.00607152 0 5.02783e-05 0 0)
(1.26123 -0.00632705 0 5.51378e-05 0 0)
(1.38966 -0.00714714 0 7.33896e-05 0 0)
(1.40493 -0.00930737 0 9.4925e-05 0 0)
(1.60739 -0.0104134 0 0.000115226 0 0)
(1.59663 -0.0246102 0 0.000449507 0 0)
(2.16333 -0.0302877 0 0.000856069 0 0)
(2.14131 -0.127072 0 0.0111831 0 0)
(4.83446 -0.859031 0 0.251166 0 0)
(0.134735 0.0427706 0 0.0143992 0 0)
(0.00329574 0.00287928 0 0.0106212 0 0)
(0.0229068 -0.00621085 0 0.00384133 0 0)
(0.0530486 -0.0098086 0 0.00226792 0 0)
(0.1041 -0.0134625 0 0.00182764 0 0)
(0.196748 -0.0161197 0 0.00162612 0 0)
(0.303005 -0.0160597 0 0.00137286 0 0)
(0.426842 -0.0142288 0 0.00093217 0 0)
(0.517397 -0.0118566 0 0.000587628 0 0)
(0.628197 -0.0101519 0 0.000322428 0 0)
(0.677724 -0.00958703 0 0.00019155 0 0)
(0.795964 -0.0091058 0 0.000146833 0 0)
(0.818986 -0.0111066 0 0.000201885 0 0)
(0.967384 -0.0086604 0 0.000193359 0 0)
(0.975509 -0.0175666 0 0.000429449 0 0)
(1.17762 -0.00695097 0 0.000304887 0 0)
(1.21395 -0.0445733 0 0.00216611 0 0)
(1.50734 -0.0166148 0 0.0011179 0 0)
(2.00759 -0.223817 0 0.0396249 0 0)
(2.53815 -0.362547 0 0.153559 0 0)
(0.125644 0.0345504 0 0.0100898 0 0)
(0.0119734 0.010913 0 0.0110691 0 0)
(0.0160378 0.00575202 0 0.00476531 0 0)
(0.0171796 0.00377527 0 0.00346442 0 0)
(0.0101785 0.000112902 0 0.00327141 0 0)
(0.0164886 -0.00562633 0 0.00309547 0 0)
(0.0430664 -0.00920623 0 0.00274706 0 0)
(0.09751 -0.0110999 0 0.00198249 0 0)
(0.144043 -0.0102795 0 0.00130727 0 0)
(0.216642 -0.0100956 0 0.000763857 0 0)
(0.2458 -0.00920222 0 0.000426105 0 0)
(0.334333 -0.0105395 0 0.000422941 0 0)
(0.352721 -0.0101285 0 0.000336471 0 0)
(0.456262 -0.0132562 0 0.000561896 0 0)
(0.489218 -0.0113124 0 0.000483854 0 0)
(0.596883 -0.0226046 0 0.00109048 0 0)
(0.682187 -0.0133906 0 0.00128709 0 0)
(0.836547 -0.0737805 0 0.0113221 0 0)
(1.09223 -0.0754744 0 0.0173063 0 0)
(1.58326 -0.506442 0 0.437539 0 0)
(0.117086 0.0281503 0 0.00721333 0 0)
(0.0105736 0.00963317 0 0.00985896 0 0)
(0.0239308 0.00834229 0 0.00407899 0 0)
(0.0444501 0.0105304 0 0.00330226 0 0)
(0.0530639 0.0123645 0 0.00383725 0 0)
(0.0388196 0.00925567 0 0.00414761 0 0)
(0.0273963 0.00558262 0 0.00402103 0 0)
(0.0179439 0.000153242 0 0.00306947 0 0)
(0.0196333 -0.00148119 0 0.00228741 0 0)
(0.0335847 -0.00384419 0 0.00131819 0 0)
(0.0360575 -0.00404209 0 0.000880792 0 0)
(0.0702121 -0.00532167 0 0.000686913 0 0)
(0.0709826 -0.00716096 0 0.000869576 0 0)
(0.121512 -0.00644546 0 0.000794143 0 0)
(0.132144 -0.0121434 0 0.00173496 0 0)
(0.193715 -0.00728068 0 0.00121177 0 0)
(0.218645 -0.0259846 0 0.00633466 0 0)
(0.324917 -0.0161711 0 0.00374826 0 0)
(0.405693 -0.110536 0 0.0648946 0 0)
(0.713742 -0.228874 0 0.213448 0 0)
(0.116309 0.0242461 0 0.00538281 0 0)
(0.00720172 0.00714413 0 0.00875255 0 0)
(0.0204612 0.00679988 0 0.00326157 0 0)
(0.0463401 0.00943748 0 0.00240594 0 0)
(0.0755431 0.0144114 0 0.00324915 0 0)
(0.0802572 0.015427 0 0.00401493 0 0)
(0.0895189 0.0156776 0 0.00436769 0 0)
(0.0726306 0.0108037 0 0.00366045 0 0)
(0.0747379 0.00901665 0 0.00275301 0 0)
(0.0552931 0.00491955 0 0.00188922 0 0)
(0.0571566 0.00502871 0 0.00110953 0 0)
(0.0404545 0.00227116 0 0.0012526 0 0)
(0.0421477 0.00231155 0 0.000824546 0 0)
(0.0306348 1.6349e-06 0 0.00153801 0 0)
(0.0374937 -5.03052e-05 0 0.0012725 0 0)
(0.033023 -0.00225158 0 0.00300482 0 0)
(0.0393815 -0.00251141 0 0.00296865 0 0)
(0.0560977 -0.0103687 0 0.0186061 0 0)
(0.0841026 -0.0264349 0 0.0297134 0 0)
(0.202212 -0.097493 0 0.29618 0 0)
(0.118711 0.021078 0 0.00399829 0 0)
(0.00521319 0.00525713 0 0.0076909 0 0)
(0.0164907 0.00539997 0 0.00285872 0 0)
(0.0394951 0.00728171 0 0.00176005 0 0)
(0.0698484 0.01207 0 0.00246621 0 0)
(0.0795361 0.0142216 0 0.00332881 0 0)
(0.103823 0.0165866 0 0.00387028 0 0)
(0.100376 0.0135503 0 0.00322263 0 0)
(0.123144 0.0129493 0 0.00291018 0 0)
(0.114971 0.00946618 0 0.00187822 0 0)
(0.133203 0.010992 0 0.00136795 0 0)
(0.12058 0.00826857 0 0.00120355 0 0)
(0.129154 0.0104607 0 0.00148326 0 0)
(0.109526 0.00734065 0 0.00143512 0 0)
(0.112627 0.0104417 0 0.00257888 0 0)
(0.0853548 0.00667323 0 0.00234182 0 0)
(0.0796182 0.0129672 0 0.00603201 0 0)
(0.0485963 0.0140527 0 0.0103556 0 0)
(0.0420352 0.0162228 0 0.0509261 0 0)
(0.065443 0.0338092 0 0.314907 0 0)
(0.120798 0.0182375 0 0.00294442 0 0)
(0.00426347 0.00394153 0 0.00640819 0 0)
(0.0134104 0.00429362 0 0.00261814 0 0)
(0.0338704 0.00570761 0 0.00127798 0 0)
(0.0604824 0.00975312 0 0.00183092 0 0)
(0.0700046 0.0118978 0 0.00259097 0 0)
(0.0918287 0.0143212 0 0.00327144 0 0)
(0.0940334 0.0119841 0 0.00296818 0 0)
(0.119634 0.0119047 0 0.00218903 0 0)
(0.122792 0.00981727 0 0.00170548 0 0)
(0.151147 0.0104696 0 0.00102349 0 0)
(0.152394 0.0110213 0 0.00137701 0 0)
(0.177176 0.0109053 0 0.00100721 0 0)
(0.17111 0.0138795 0 0.0017496 0 0)
(0.188918 0.0125343 0 0.0019279 0 0)
(0.168832 0.0185939 0 0.00327369 0 0)
(0.172731 0.020211 0 0.00459577 0 0)
(0.136418 0.0344997 0 0.0161795 0 0)
(0.124179 0.0554575 0 0.0521374 0 0)
(0.125308 0.0965656 0 0.227306 0 0)
(0.121397 0.0155541 0 0.00215205 0 0)
(0.00310351 0.00298534 0 0.00523516 0 0)
(0.0105782 0.00334657 0 0.00242735 0 0)
(0.0296505 0.00453573 0 0.000939682 0 0)
(0.0528137 0.00771188 0 0.00133936 0 0)
(0.0628695 0.0100335 0 0.00204613 0 0)
(0.079101 0.0120611 0 0.00264468 0 0)
(0.0845145 0.0105156 0 0.00216946 0 0)
(0.103278 0.00994194 0 0.00202857 0 0)
(0.113904 0.0080675 0 0.00146641 0 0)
(0.134164 0.00930111 0 0.000937046 0 0)
(0.148885 0.0092568 0 0.00102622 0 0)
(0.165903 0.010453 0 0.00108267 0 0)
(0.180453 0.0121686 0 0.00145871 0 0)
(0.190089 0.0134126 0 0.00202781 0 0)
(0.198656 0.0188575 0 0.00315147 0 0)
(0.195646 0.0223487 0 0.00515237 0 0)
(0.190198 0.0475208 0 0.0192026 0 0)
(0.173688 0.0621172 0 0.0481342 0 0)
(0.200183 0.151472 0 0.266828 0 0)
(0.121011 0.0131213 0 0.00153941 0 0)
(0.002465 0.00233939 0 0.00418049 0 0)
(0.00869435 0.00257625 0 0.00228054 0 0)
(0.0264938 0.00368939 0 0.000685446 0 0)
(0.0463626 0.00615149 0 0.000963723 0 0)
(0.0577036 0.00854195 0 0.00157307 0 0)
(0.0690312 0.0102193 0 0.00219795 0 0)
(0.0771634 0.00918258 0 0.00207185 0 0)
(0.0904822 0.00793074 0 0.00145421 0 0)
(0.104094 0.00730094 0 0.00114432 0 0)
(0.119382 0.00707161 0 0.000668782 0 0)
(0.136207 0.00869826 0 0.00100514 0 0)
(0.149766 0.00811648 0 0.000804256 0 0)
(0.166596 0.011722 0 0.00123723 0 0)
(0.174087 0.0115873 0 0.00171515 0 0)
(0.188579 0.0177197 0 0.0026556 0 0)
(0.185331 0.0238238 0 0.00530655 0 0)
(0.18827 0.043303 0 0.0162002 0 0)
(0.179955 0.0713456 0 0.0541847 0 0)
(0.213434 0.156293 0 0.222363 0 0)
(0.120686 0.0109543 0 0.00109414 0 0)
(0.00209356 0.00174391 0 0.00326681 0 0)
(0.00739382 0.0018481 0 0.0021086 0 0)
(0.0237002 0.00286521 0 0.000470816 0 0)
(0.041588 0.00481154 0 0.000678299 0 0)
(0.0530335 0.00711676 0 0.00120324 0 0)
(0.0616968 0.00864566 0 0.0017406 0 0)
(0.0704714 0.00780968 0 0.00145089 0 0)
(0.0808404 0.00685692 0 0.00125003 0 0)
(0.0952225 0.0058175 0 0.0010419 0 0)
(0.108108 0.00619405 0 0.000579412 0 0)
(0.124543 0.00707127 0 0.000756808 0 0)
(0.13785 0.00705206 0 0.000713277 0 0)
(0.151764 0.0103497 0 0.00112477 0 0)
(0.16122 0.0100169 0 0.00145225 0 0)
(0.173296 0.0185117 0 0.00306555 0 0)
(0.173077 0.0212728 0 0.00486557 0 0)
(0.177781 0.0472564 0 0.0188293 0 0)
(0.178209 0.0716382 0 0.0520883 0 0)
(0.212727 0.155954 0 0.207265 0 0)
(0.120868 0.00911176 0 0.00076903 0 0)
(0.00187141 0.00127368 0 0.00248952 0 0)
(0.0066059 0.00134217 0 0.00190439 0 0)
(0.0212353 0.00228021 0 0.000354596 0 0)
(0.03802 0.00379068 0 0.0004807 0 0)
(0.0486216 0.00586225 0 0.000886971 0 0)
(0.0562449 0.00730121 0 0.0013778 0 0)
(0.0642737 0.00662118 0 0.00129142 0 0)
(0.0735313 0.00557303 0 0.000923314 0 0)
(0.0876244 0.00499585 0 0.000727119 0 0)
(0.0986432 0.00499061 0 0.000417353 0 0)
(0.115754 0.00630776 0 0.000652063 0 0)
(0.126482 0.00610226 0 0.000584745 0 0)
(0.141393 0.00894032 0 0.000821479 0 0)
(0.148947 0.00961212 0 0.00125537 0 0)
(0.162163 0.0158049 0 0.00237728 0 0)
(0.162003 0.0223002 0 0.00490647 0 0)
(0.171527 0.0453145 0 0.0179864 0 0)
(0.174657 0.0726352 0 0.0506104 0 0)
(0.218519 0.159427 0 0.193619 0 0)
(0.12116 0.00747313 0 0.000526802 0 0)
(0.00174335 0.000901553 0 0.00183214 0 0)
(0.00608505 0.000870292 0 0.00153121 0 0)
(0.0192039 0.00178965 0 0.000247911 0 0)
(0.0351085 0.0029602 0 0.000327248 0 0)
(0.0449479 0.00476043 0 0.0006422 0 0)
(0.0518435 0.00607444 0 0.00102731 0 0)
(0.0588859 0.0054677 0 0.00088715 0 0)
(0.0678164 0.00467962 0 0.000680566 0 0)
(0.0809123 0.00401649 0 0.000648653 0 0)
(0.0915309 0.00415269 0 0.000338077 0 0)
(0.10833 0.00536427 0 0.00048913 0 0)
(0.117164 0.00508788 0 0.000464638 0 0)
(0.133196 0.00817515 0 0.000763339 0 0)
(0.138999 0.00835508 0 0.00104477 0 0)
(0.153341 0.015637 0 0.00248418 0 0)
(0.153776 0.0214435 0 0.00473939 0 0)
(0.167289 0.0441708 0 0.0177649 0 0)
(0.172966 0.0742144 0 0.0498328 0 0)
(0.22391 0.158659 0 0.177681 0 0)
(0.121422 0.00600358 0 0.000353936 0 0)
(0.0016796 0.000629946 0 0.0013212 0 0)
(0.00576315 0.000537918 0 0.00114829 0 0)
(0.0176259 0.00143192 0 0.000207114 0 0)
(0.0328046 0.00230708 0 0.000243557 0 0)
(0.0420513 0.00379341 0 0.000454814 0 0)
(0.0484242 0.00499327 0 0.000763861 0 0)
(0.0544774 0.00444321 0 0.000709672 0 0)
(0.0635521 0.00375678 0 0.000504127 0 0)
(0.0748366 0.00320039 0 0.000451063 0 0)
(0.0866979 0.00332683 0 0.000254321 0 0)
(0.100994 0.0044375 0 0.000407979 0 0)
(0.111117 0.00427333 0 0.000414069 0 0)
(0.125716 0.00673482 0 0.000592631 0 0)
(0.132147 0.00758968 0 0.000928048 0 0)
(0.145781 0.0142438 0 0.00226639 0 0)
(0.149113 0.0204747 0 0.00475472 0 0)
(0.164032 0.0433202 0 0.0175463 0 0)
(0.174341 0.0744515 0 0.0483816 0 0)
(0.23066 0.156477 0 0.162152 0 0)
(0.121622 0.00470907 0 0.000225773 0 0)
(0.00164718 0.000429678 0 0.000880164 0 0)
(0.00557763 0.000292768 0 0.000771171 0 0)
(0.0164163 0.00111479 0 0.000142729 0 0)
(0.0309439 0.00176376 0 0.000157944 0 0)
(0.0398617 0.00293602 0 0.000296845 0 0)
(0.0455881 0.00397968 0 0.000519768 0 0)
(0.0512733 0.0035026 0 0.0004545 0 0)
(0.0599562 0.00300235 0 0.000322047 0 0)
(0.0704663 0.00247188 0 0.000354464 0 0)
(0.0830529 0.00252161 0 0.000203401 0 0)
(0.0948093 0.00362695 0 0.000307289 0 0)
(0.10724 0.00339044 0 0.000315461 0 0)
(0.11892 0.00580531 0 0.0004998 0 0)
(0.127854 0.00663428 0 0.000797089 0 0)
(0.139328 0.0131953 0 0.00210883 0 0)
(0.147515 0.0195171 0 0.00464608 0 0)
(0.160834 0.0426869 0 0.0169898 0 0)
(0.179462 0.0738756 0 0.0462323 0 0)
(0.238274 0.155251 0 0.147719 0 0)
(0.121761 0.0035407 0 0.00014056 0 0)
(0.00164145 0.000278296 0 0.000551252 0 0)
(0.00548786 0.000140894 0 0.000494782 0 0)
(0.0155201 0.00083873 0 0.00011494 0 0)
(0.0295019 0.0012894 0 0.000121174 0 0)
(0.0382389 0.00215783 0 0.000194526 0 0)
(0.0433474 0.00302921 0 0.000341408 0 0)
(0.0490403 0.00264802 0 0.000309717 0 0)
(0.0567437 0.00224765 0 0.000220636 0 0)
(0.0677385 0.00183626 0 0.000241354 0 0)
(0.0792189 0.00190235 0 0.000150231 0 0)
(0.0912603 0.00285457 0 0.000237356 0 0)
(0.103554 0.00264927 0 0.000269713 0 0)
(0.114379 0.00488885 0 0.00042038 0 0)
(0.124077 0.00584347 0 0.000680989 0 0)
(0.135856 0.0122645 0 0.00196741 0 0)
(0.145793 0.0189345 0 0.00446758 0 0)
(0.160527 0.0418102 0 0.0162694 0 0)
(0.185184 0.0732254 0 0.0438565 0 0)
(0.24654 0.15286 0 0.134444 0 0)
(0.121863 0.00247628 0 7.86791e-05 0 0)
(0.00164404 0.000166009 0 0.00029488 0 0)
(0.00544887 4.7224e-05 0 0.000270402 0 0)
(0.0148802 0.000575554 0 7.33842e-05 0 0)
(0.0284771 0.000889027 0 7.89569e-05 0 0)
(0.0370002 0.00145509 0 0.000110319 0 0)
(0.0418596 0.00215268 0 0.00019562 0 0)
(0.04727 0.00184022 0 0.000173677 0 0)
(0.05464 0.00158498 0 0.000121226 0 0)
(0.0658783 0.00128237 0 0.000156561 0 0)
(0.0760456 0.0013538 0 0.00010832 0 0)
(0.0893476 0.00218285 0 0.000160112 0 0)
(0.0998266 0.00210866 0 0.000191961 0 0)
(0.112025 0.00399584 0 0.000325017 0 0)
(0.120683 0.00528248 0 0.0005707 0 0)
(0.134718 0.0112345 0 0.00178616 0 0)
(0.143628 0.0186727 0 0.00422302 0 0)
(0.163535 0.0404355 0 0.0154112 0 0)
(0.190106 0.0729886 0 0.0411876 0 0)
(0.257008 0.148948 0 0.12086 0 0)
(0.121924 0.00148051 0 4.3434e-05 0 0)
(0.00164848 8.20587e-05 0 0.000138272 0 0)
(0.00543497 4.9377e-06 0 0.000130857 0 0)
(0.0144706 0.000330438 0 5.57654e-05 0 0)
(0.027804 0.000535005 0 6.7165e-05 0 0)
(0.0361806 0.00079922 0 7.07695e-05 0 0)
(0.040987 0.00131741 0 0.000108675 0 0)
(0.0458656 0.00105827 0 0.000102299 0 0)
(0.0536309 0.000931639 0 8.02578e-05 0 0)
(0.0640337 0.00072671 0 0.000108111 0 0)
(0.0747301 0.00078495 0 8.7386e-05 0 0)
(0.0876856 0.00151257 0 0.000117812 0 0)
(0.0976667 0.00146726 0 0.000157621 0 0)
(0.110415 0.00315466 0 0.000269572 0 0)
(0.119257 0.00454552 0 0.000486443 0 0)
(0.133619 0.0103691 0 0.00161579 0 0)
(0.143871 0.0180005 0 0.003979 0 0)
(0.167117 0.0391877 0 0.0144466 0 0)
(0.196534 0.0720789 0 0.038252 0 0)
(0.268703 0.145153 0 0.108715 0 0)
(0.12194 0.000528026 0 2.4291e-05 0 0)
(0.0016516 1.32703e-05 0 5.74773e-05 0 0)
(0.00543067 -1.42039e-05 0 5.06648e-05 0 0)
(0.0142759 8.79184e-05 0 4.08836e-05 0 0)
(0.0274458 0.000211638 0 5.38992e-05 0 0)
(0.0358515 0.000176068 0 4.95412e-05 0 0)
(0.0404574 0.000507631 0 5.77674e-05 0 0)
(0.045293 0.000294259 0 6.07999e-05 0 0)
(0.053254 0.000307214 0 5.91597e-05 0 0)
(0.0628532 0.000212903 0 7.23502e-05 0 0)
(0.0745895 0.000201531 0 7.7201e-05 0 0)
(0.0861301 0.000851833 0 8.96701e-05 0 0)
(0.097371 0.00079392 0 0.000128785 0 0)
(0.10923 0.00233994 0 0.000227991 0 0)
(0.119571 0.0037164 0 0.000436921 0 0)
(0.132736 0.00957062 0 0.00145104 0 0)
(0.146856 0.0169108 0 0.00378289 0 0)
(0.170382 0.0381024 0 0.0133647 0 0)
(0.20564 0.0701383 0 0.0353795 0 0)
(0.280237 0.141056 0 0.0970814 0 0)
(0.121915 -0.000409127 0 2.46617e-05 0 0)
(0.00165002 -4.99175e-05 0 6.49782e-05 0 0)
(0.00542694 -2.02117e-05 0 4.62283e-05 0 0)
(0.0142777 -0.000150313 0 4.84081e-05 0 0)
(0.0274244 -9.96639e-05 0 5.98931e-05 0 0)
(0.0359323 -0.000441448 0 5.99865e-05 0 0)
(0.0403081 -0.000284762 0 5.70395e-05 0 0)
(0.0455091 -0.000467509 0 6.94052e-05 0 0)
(0.0529563 -0.000273378 0 7.44825e-05 0 0)
(0.0630415 -0.000320194 0 6.49283e-05 0 0)
(0.074673 -0.000342646 0 8.30732e-05 0 0)
(0.0859754 0.000197158 0 7.98814e-05 0 0)
(0.0977578 0.000158073 0 0.00011721 0 0)
(0.10954 0.00148683 0 0.000209487 0 0)
(0.120256 0.00297185 0 0.000405753 0 0)
(0.134163 0.00855506 0 0.00132773 0 0)
(0.150425 0.0158786 0 0.00355059 0 0)
(0.175508 0.0366255 0 0.0122676 0 0)
(0.216012 0.0679004 0 0.0323147 0 0)
(0.292692 0.136299 0 0.0860397 0 0)
(0.121851 -0.00136438 0 4.15387e-05 0 0)
(0.00164339 -0.000119892 0 0.000152684 0 0)
(0.00542328 -3.65249e-05 0 0.000109639 0 0)
(0.0144742 -0.000393527 0 7.00683e-05 0 0)
(0.0277582 -0.000426802 0 7.37547e-05 0 0)
(0.0362868 -0.00105853 0 9.40776e-05 0 0)
(0.0408008 -0.00109312 0 9.93787e-05 0 0)
(0.0461601 -0.00123041 0 0.000122457 0 0)
(0.0533431 -0.00086337 0 0.000119229 0 0)
(0.0641116 -0.000865187 0 8.19362e-05 0 0)
(0.0750353 -0.000833127 0 9.34905e-05 0 0)
(0.087291 -0.00049381 0 8.61322e-05 0 0)
(0.0985656 -0.000424889 0 0.000107974 0 0)
(0.1112 0.000586744 0 0.000212216 0 0)
(0.121595 0.00232382 0 0.000372176 0 0)
(0.137688 0.00729664 0 0.00125663 0 0)
(0.154132 0.0151242 0 0.00321759 0 0)
(0.183132 0.0344851 0 0.0112895 0 0)
(0.226212 0.0659616 0 0.0289776 0 0)
(0.307249 0.129964 0 0.0765918 0 0)
(0.121753 -0.00236235 0 7.7689e-05 0 0)
(0.00163511 -0.000206056 0 0.000324752 0 0)
(0.00543051 -7.61628e-05 0 0.000242531 0 0)
(0.0148882 -0.000643562 0 0.000103842 0 0)
(0.0284269 -0.000782773 0 9.92689e-05 0 0)
(0.0370319 -0.00171142 0 0.000156479 0 0)
(0.0419082 -0.00193229 0 0.000188302 0 0)
(0.0470808 -0.00200891 0 0.000221796 0 0)
(0.0548559 -0.0015124 0 0.000198919 0 0)
(0.0655198 -0.00142761 0 0.000126929 0 0)
(0.0766788 -0.0013795 0 0.000120337 0 0)
(0.0892372 -0.00119849 0 0.000112754 0 0)
(0.100697 -0.00108193 0 0.00011855 0 0)
(0.113472 -0.000263687 0 0.000220395 0 0)
(0.124922 0.00149991 0 0.000380641 0 0)
(0.141726 0.00617598 0 0.00115555 0 0)
(0.159781 0.0140249 0 0.0029683 0 0)
(0.191517 0.032394 0 0.0101819 0 0)
(0.238011 0.063249 0 0.0258999 0 0)
(0.323601 0.123227 0 0.0674313 0 0)
(0.121616 -0.00343346 0 0.0001367 0 0)
(0.00162935 -0.000321154 0 0.000584385 0 0)
(0.00546342 -0.00016018 0 0.000447852 0 0)
(0.0155413 -0.000909388 0 0.000145438 0 0)
(0.0294089 -0.00118719 0 0.000137463 0 0)
(0.0383262 -0.00242622 0 0.000251337 0 0)
(0.0434142 -0.00280235 0 0.000322984 0 0)
(0.0487992 -0.00284525 0 0.000367931 0 0)
(0.0571209 -0.00219776 0 0.000307709 0 0)
(0.0675324 -0.00201759 0 0.00019724 0 0)
(0.0795014 -0.00196772 0 0.000159718 0 0)
(0.0918781 -0.00193609 0 0.000159851 0 0)
(0.104095 -0.00177834 0 0.00014198 0 0)
(0.116794 -0.00116774 0 0.000250272 0 0)
(0.129882 0.000580769 0 0.000417287 0 0)
(0.146529 0.00506127 0 0.00105972 0 0)
(0.167491 0.0125846 0 0.00279327 0 0)
(0.200575 0.0303699 0 0.00896658 0 0)
(0.252697 0.059448 0 0.0232244 0 0)
(0.340488 0.117161 0 0.0581954 0 0)
(0.121422 -0.00460514 0 0.000223793 0 0)
(0.00163484 -0.000476243 0 0.000932113 0 0)
(0.00554398 -0.000305593 0 0.000727372 0 0)
(0.0164513 -0.00119334 0 0.000191613 0 0)
(0.0307845 -0.00165761 0 0.000190567 0 0)
(0.0401182 -0.00320991 0 0.000378693 0 0)
(0.0453582 -0.0037243 0 0.000502951 0 0)
(0.0514333 -0.00374505 0 0.000557083 0 0)
(0.0597963 -0.00290105 0 0.000441198 0 0)
(0.0707259 -0.00267576 0 0.00029356 0 0)
(0.0829954 -0.00257982 0 0.000209386 0 0)
(0.0958123 -0.00275348 0 0.000230491 0 0)
(0.10836 -0.00246509 0 0.000169383 0 0)
(0.121889 -0.00226448 0 0.000328557 0 0)
(0.135579 -0.000245113 0 0.000438943 0 0)
(0.153339 0.00359343 0 0.0010669 0 0)
(0.176183 0.0112772 0 0.00252581 0 0)
(0.212023 0.0276372 0 0.00798663 0 0)
(0.268626 0.0555875 0 0.0204192 0 0)
(0.359213 0.110164 0 0.050033 0 0)
(0.12116 -0.00590904 0 0.00034834 0 0)
(0.00166715 -0.000687674 0 0.00137085 0 0)
(0.00571291 -0.000533661 0 0.00108115 0 0)
(0.0176631 -0.00150979 0 0.000244195 0 0)
(0.0326112 -0.00221197 0 0.000264424 0 0)
(0.0423434 -0.00406661 0 0.000543095 0 0)
(0.0480929 -0.00473729 0 0.000733517 0 0)
(0.0547701 -0.00470074 0 0.000787816 0 0)
(0.0632967 -0.00368021 0 0.000609448 0 0)
(0.0750169 -0.00341654 0 0.000420505 0 0)
(0.0874313 -0.00326854 0 0.000276441 0 0)
(0.101013 -0.00363057 0 0.000321084 0 0)
(0.11392 -0.00325221 0 0.000213576 0 0)
(0.128427 -0.00344795 0 0.000428749 0 0)
(0.142582 -0.00115783 0 0.0004826 0 0)
(0.16201 0.00197399 0 0.00109564 0 0)
(0.186463 0.00979408 0 0.00231294 0 0)
(0.225593 0.0244655 0 0.00707786 0 0)
(0.285811 0.0513482 0 0.0177497 0 0)
(0.381218 0.101916 0 0.0428578 0 0)
(0.120854 -0.00738512 0 0.000523796 0 0)
(0.00174148 -0.000970475 0 0.00190229 0 0)
(0.00601827 -0.000860494 0 0.0014854 0 0)
(0.019261 -0.00188208 0 0.000308511 0 0)
(0.0349022 -0.0028721 0 0.00036465 0 0)
(0.0452053 -0.00502323 0 0.000748171 0 0)
(0.0516802 -0.00584737 0 0.00101239 0 0)
(0.0588798 -0.00572351 0 0.00105641 0 0)
(0.0680173 -0.00457391 0 0.000812158 0 0)
(0.0803548 -0.00424881 0 0.000573997 0 0)
(0.0931783 -0.00404671 0 0.000354962 0 0)
(0.107541 -0.00459268 0 0.000433117 0 0)
(0.121137 -0.00413548 0 0.000271402 0 0)
(0.136354 -0.00469782 0 0.000546989 0 0)
(0.151587 -0.00218589 0 0.000546508 0 0)
(0.172455 0.000226769 0 0.00113428 0 0)
(0.198959 0.00806816 0 0.00218227 0 0)
(0.240859 0.0209982 0 0.0061717 0 0)
(0.305738 0.0463569 0 0.0154528 0 0)
(0.405804 0.092733 0 0.0363804 0 0)
(0.120622 -0.00903983 0 0.000764204 0 0)
(0.00186741 -0.0013478 0 0.00255401 0 0)
(0.00651924 -0.00130154 0 0.00184752 0 0)
(0.0212977 -0.0023544 0 0.000399891 0 0)
(0.0377826 -0.00369714 0 0.00050618 0 0)
(0.0488913 -0.00612365 0 0.00100365 0 0)
(0.0561576 -0.00707384 0 0.00134181 0 0)
(0.0641014 -0.0068528 0 0.00136182 0 0)
(0.0740033 -0.00560005 0 0.0010492 0 0)
(0.0869612 -0.0051809 0 0.000747146 0 0)
(0.100411 -0.00494159 0 0.000449208 0 0)
(0.115723 -0.00566121 0 0.000566037 0 0)
(0.129997 -0.00510242 0 0.000339185 0 0)
(0.146196 -0.00609013 0 0.000699837 0 0)
(0.162686 -0.00328757 0 0.00061077 0 0)
(0.185074 -0.00178548 0 0.00124343 0 0)
(0.213667 0.00627741 0 0.0020471 0 0)
(0.258701 0.0169388 0 0.00545518 0 0)
(0.328404 0.0409506 0 0.0133027 0 0)
(0.433294 0.0821156 0 0.0309738 0 0)
(0.12077 -0.0109262 0 0.00109157 0 0)
(0.00205901 -0.00182852 0 0.0033458 0 0)
(0.00733026 -0.00187102 0 0.00209054 0 0)
(0.0236738 -0.00296108 0 0.000537563 0 0)
(0.0415137 -0.0047671 0 0.000711831 0 0)
(0.0531257 -0.00736511 0 0.00131828 0 0)
(0.061821 -0.00847711 0 0.00173358 0 0)
(0.07024 -0.00806038 0 0.00169414 0 0)
(0.08144 -0.00682247 0 0.0013341 0 0)
(0.0946911 -0.00618486 0 0.000937105 0 0)
(0.109493 -0.00605274 0 0.000576859 0 0)
(0.125291 -0.0067792 0 0.000712003 0 0)
(0.140902 -0.00627624 0 0.000430109 0 0)
(0.157861 -0.00756671 0 0.000888014 0 0)
(0.176258 -0.00458901 0 0.000682783 0 0)
(0.199782 -0.00396564 0 0.00144006 0 0)
(0.231254 0.0042974 0 0.00187737 0 0)
(0.279022 0.0124153 0 0.0050134 0 0)
(0.353767 0.0351427 0 0.0111849 0 0)
(0.463915 0.0698167 0 0.0267591 0 0)
(0.121748 -0.0131474 0 0.00154401 0 0)
(0.00241414 -0.00238516 0 0.00426773 0 0)
(0.00872808 -0.00260939 0 0.00226079 0 0)
(0.0262428 -0.00368594 0 0.000734228 0 0)
(0.0466242 -0.00611676 0 0.00099603 0 0)
(0.0574542 -0.00870181 0 0.00169747 0 0)
(0.0696051 -0.0101049 0 0.00217769 0 0)
(0.0766153 -0.00926612 0 0.00205411 0 0)
(0.0914284 -0.00830186 0 0.00166203 0 0)
(0.102941 -0.00722089 0 0.00115043 0 0)
(0.121743 -0.00741594 0 0.000733687 0 0)
(0.135562 -0.00790722 0 0.000865431 0 0)
(0.155625 -0.00773021 0 0.000552492 0 0)
(0.170593 -0.0090511 0 0.00109112 0 0)
(0.19404 -0.00616215 0 0.000780948 0 0)
(0.215753 -0.00618791 0 0.00165677 0 0)
(0.252784 0.00208511 0 0.00178081 0 0)
(0.299565 0.0077298 0 0.00459591 0 0)
(0.380133 0.0290942 0 0.00952833 0 0)
(0.491488 0.0562914 0 0.0223808 0 0)
(0.123088 -0.0157045 0 0.00215718 0 0)
(0.00329156 -0.00303943 0 0.00532067 0 0)
(0.0111139 -0.00356233 0 0.00243838 0 0)
(0.0292183 -0.00452958 0 0.00099471 0 0)
(0.0537434 -0.0078256 0 0.00137252 0 0)
(0.0620511 -0.010133 0 0.00214928 0 0)
(0.0807058 -0.0121139 0 0.00268606 0 0)
(0.0830988 -0.0104257 0 0.00244953 0 0)
(0.105878 -0.0102434 0 0.00205079 0 0)
(0.111153 -0.00822713 0 0.0013823 0 0)
(0.139385 -0.00920758 0 0.000935879 0 0)
(0.145317 -0.00900428 0 0.00103213 0 0)
(0.176175 -0.00961853 0 0.00072108 0 0)
(0.181065 -0.0103567 0 0.0013078 0 0)
(0.215727 -0.0080353 0 0.000913925 0 0)
(0.224934 -0.00806049 0 0.00188383 0 0)
(0.271389 -3.67504e-05 0 0.00172705 0 0)
(0.302596 0.00366547 0 0.00421359 0 0)
(0.386503 0.0240249 0 0.00819124 0 0)
(0.47908 0.043523 0 0.0178914 0 0)
(0.122582 -0.0184083 0 0.0029565 0 0)
(0.00466288 -0.00396281 0 0.00651282 0 0)
(0.0142435 -0.00462563 0 0.00264339 0 0)
(0.03322 -0.00564087 0 0.00133938 0 0)
(0.0623665 -0.00990515 0 0.00186388 0 0)
(0.0685998 -0.0118807 0 0.00270808 0 0)
(0.0945446 -0.0145274 0 0.00328423 0 0)
(0.0915268 -0.011804 0 0.00291762 0 0)
(0.123323 -0.0125528 0 0.00250371 0 0)
(0.119035 -0.00926455 0 0.00163862 0 0)
(0.157048 -0.0112065 0 0.00118847 0 0)
(0.148402 -0.00976887 0 0.00120749 0 0)
(0.188089 -0.0113459 0 0.000928274 0 0)
(0.172238 -0.0104453 0 0.00149277 0 0)
(0.212231 -0.00905576 0 0.00105112 0 0)
(0.195315 -0.00768588 0 0.00201321 0 0)
(0.24083 -0.000620385 0 0.00162981 0 0)
(0.240943 0.00283758 0 0.00382134 0 0)
(0.313276 0.0216769 0 0.00680041 0 0)
(0.372579 0.0347806 0 0.0140524 0 0)
(0.119786 -0.0211989 0 0.0039975 0 0)
(0.00600283 -0.00530887 0 0.00774601 0 0)
(0.0174815 -0.00568005 0 0.00288341 0 0)
(0.0388145 -0.00723744 0 0.00180345 0 0)
(0.0714163 -0.012271 0 0.00249209 0 0)
(0.0782425 -0.0141297 0 0.00339065 0 0)
(0.106227 -0.0167869 0 0.00393137 0 0)
(0.0978881 -0.0131041 0 0.00343211 0 0)
(0.126927 -0.0137163 0 0.00290862 0 0)
(0.110326 -0.00919024 0 0.00185177 0 0)
(0.139495 -0.0111113 0 0.00137767 0 0)
(0.114086 -0.00809336 0 0.00128885 0 0)
(0.139404 -0.00973844 0 0.00104689 0 0)
(0.107283 -0.00642135 0 0.00148895 0 0)
(0.129814 -0.00620756 0 0.00104179 0 0)
(0.102057 -0.00235308 0 0.00188709 0 0)
(0.127886 0.00155798 0 0.00138231 0 0)
(0.121803 0.00709189 0 0.00326159 0 0)
(0.172182 0.0200434 0 0.00526876 0 0)
(0.227856 0.0318209 0 0.0106642 0 0)
(0.117042 -0.024304 0 0.00537601 0 0)
(0.00773012 -0.00713189 0 0.00880022 0 0)
(0.0213251 -0.00698584 0 0.00327743 0 0)
(0.0459348 -0.00940005 0 0.00245877 0 0)
(0.0770273 -0.0145182 0 0.00326683 0 0)
(0.0793172 -0.0152975 0 0.00406976 0 0)
(0.0914696 -0.0157965 0 0.00438658 0 0)
(0.0712168 -0.0104684 0 0.00368549 0 0)
(0.0764138 -0.00941799 0 0.00293662 0 0)
(0.0543967 -0.00442157 0 0.00178229 0 0)
(0.0576601 -0.00530721 0 0.00127308 0 0)
(0.041734 -0.0015936 0 0.0011146 0 0)
(0.0420448 -0.0025948 0 0.000905209 0 0)
(0.0375858 0.00169037 0 0.00121102 0 0)
(0.0378979 0.000308628 0 0.000822679 0 0)
(0.0497873 0.00540724 0 0.00148968 0 0)
(0.0538743 0.00433157 0 0.00103956 0 0)
(0.088251 0.0122653 0 0.00250961 0 0)
(0.116515 0.0154098 0 0.00387741 0 0)
(0.200176 0.0313827 0 0.00753178 0 0)
(0.117524 -0.0281913 0 0.00720503 0 0)
(0.0107966 -0.00959306 0 0.00987583 0 0)
(0.0245304 -0.00844685 0 0.0040859 0 0)
(0.0442449 -0.010453 0 0.00332872 0 0)
(0.0540668 -0.0124628 0 0.00384181 0 0)
(0.0384786 -0.00909 0 0.00416369 0 0)
(0.028288 -0.00568563 0 0.00403818 0 0)
(0.0179085 0.000134642 0 0.00315012 0 0)
(0.019534 0.00134112 0 0.00229578 0 0)
(0.0340528 0.004308 0 0.00130655 0 0)
(0.0347961 0.00361269 0 0.000880187 0 0)
(0.0729485 0.00621001 0 0.000742131 0 0)
(0.065652 0.00540542 0 0.000607541 0 0)
(0.129477 0.00861433 0 0.000798433 0 0)
(0.115144 0.00584709 0 0.00053631 0 0)
(0.196824 0.0103215 0 0.000996425 0 0)
(0.181119 0.0046532 0 0.000712531 0 0)
(0.267802 0.0139524 0 0.00168425 0 0)
(0.276392 0.00737605 0 0.00271799 0 0)
(0.370778 0.0270657 0 0.00476599 0 0)
(0.125906 -0.0345644 0 0.0100763 0 0)
(0.0120735 -0.0108808 0 0.0110829 0 0)
(0.0163276 -0.00582733 0 0.00476701 0 0)
(0.0172897 -0.00369867 0 0.00348322 0 0)
(0.0103674 -0.00017901 0 0.00327215 0 0)
(0.0171169 0.00574882 0 0.00310409 0 0)
(0.0426288 0.00913781 0 0.00275487 0 0)
(0.0993066 0.0113575 0 0.00199987 0 0)
(0.142137 0.0102851 0 0.00135179 0 0)
(0.219671 0.0101945 0 0.000734856 0 0)
(0.242074 0.00913288 0 0.000468099 0 0)
(0.340205 0.0101934 0 0.000397548 0 0)
(0.339449 0.00936806 0 0.000329885 0 0)
(0.465871 0.010964 0 0.000439087 0 0)
(0.442633 0.0077644 0 0.000292595 0 0)
(0.582634 0.010414 0 0.000569939 0 0)
(0.545257 0.00269938 0 0.000422908 0 0)
(0.662434 0.0113906 0 0.00101175 0 0)
(0.652251 -0.00162148 0 0.00168911 0 0)
(0.706954 0.0195227 0 0.00309083 0 0)
(0.134892 -0.0427793 0 0.014387 0 0)
(0.00337902 -0.0028647 0 0.0106319 0 0)
(0.0227958 0.00616617 0 0.00384181 0 0)
(0.0535188 0.00987479 0 0.00227763 0 0)
(0.103664 0.013433 0 0.00182769 0 0)
(0.197993 0.0161899 0 0.00162812 0 0)
(0.301818 0.0160297 0 0.00137354 0 0)
(0.429618 0.0144168 0 0.000945904 0 0)
(0.515124 0.0118331 0 0.000601568 0 0)
(0.631904 0.0102624 0 0.000317377 0 0)
(0.674448 0.00914923 0 0.000189166 0 0)
(0.798848 0.0093786 0 0.00016869 0 0)
(0.808331 0.00858278 0 0.000140527 0 0)
(0.956148 0.00910255 0 0.000193748 0 0)