/*--------------------------------*- C++ -*----------------------------------*\
| =========                 |                                                 |
| \\      /  F ield         | OpenFOAM: The Open Source CFD Toolbox           |
|  \\    /   O peration     | Version:  2.4.0                                 |
|   \\  /    A nd           | Web:      www.OpenFOAM.org                      |
|    \\/     M anipulation  |                                                 |
\*---------------------------------------------------------------------------*/
FoamFile
{
    version     2.0;
    format      ascii;
    class       volScalarField;
    location    "0.207";
    object      nuSgs;
}
// * * * * * * * * * * * * * * * * * * * * * * * * * * * * * * * * * * * * * //

dimensions      [0 2 -1 0 0 0 0];

internalField   nonuniform List<scalar> 
17600
(
0.00101267
0.000904779
0.000751257
0.000660386
0.000605717
0.000573332
0.000543346
0.000524107
0.000508721
0.000490284
0.00048914
0.000468658
0.000476757
0.000452355
0.000468153
0.000445973
0.000459148
0.000442931
0.000474528
0.000389468
0.000705276
0.000828244
0.000802433
0.000747615
0.00069643
0.000661621
0.00062805
0.000606146
0.000589149
0.000565358
0.000564128
0.000541032
0.000547025
0.000523962
0.000534777
0.00051558
0.000523239
0.000511224
0.000529082
0.000506963
0.000381638
0.000603206
0.000663235
0.000661428
0.000643585
0.000620526
0.000595434
0.00057656
0.000564555
0.000540674
0.000540016
0.000520057
0.000523076
0.00050542
0.000509557
0.000497378
0.000497821
0.000492619
0.000493243
0.000510879
0.000151228
0.000365017
0.000459151
0.000507457
0.000525359
0.000527372
0.000523279
0.000512395
0.000508701
0.000491714
0.000491657
0.000477755
0.000478488
0.000467566
0.000466485
0.000461681
0.000455674
0.000456427
0.000447267
0.000469381
5.35486e-05
0.000176615
0.000263506
0.000326944
0.000369252
0.000396541
0.000414503
0.000416971
0.000425956
0.000420617
0.000423421
0.000417772
0.000418077
0.000415494
0.000410707
0.000411131
0.000405633
0.000407352
0.000399081
0.000408173
1.73896e-05
7.15743e-05
0.0001227
0.000172267
0.000214484
0.000247716
0.000283238
0.000294311
0.000318547
0.000324025
0.000333437
0.000338703
0.000340443
0.000345833
0.000343078
0.000347241
0.000344704
0.000345466
0.000342532
0.000346655
5.53857e-06
2.70255e-05
4.74671e-05
7.31172e-05
0.000102618
0.000122051
0.000160047
0.000173441
0.000198088
0.000215879
0.000224183
0.00024192
0.000246881
0.000260592
0.000260621
0.000268388
0.00027057
0.000271163
0.000272623
0.000281308
2.30254e-06
9.95675e-06
1.73432e-05
2.61712e-05
4.03256e-05
4.97376e-05
7.23623e-05
8.2776e-05
9.91838e-05
0.000119223
0.000126068
0.00014295
0.000149649
0.000167066
0.000169278
0.000180293
0.000185255
0.00018713
0.000192157
0.000206007
1.77796e-06
4.09173e-06
7.23541e-06
9.73134e-06
1.44181e-05
1.75363e-05
2.72741e-05
3.22662e-05
3.99584e-05
5.3183e-05
5.7724e-05
6.85196e-05
7.38518e-05
8.78083e-05
9.03353e-05
0.000100257
0.000103656
0.000108094
0.00011333
0.000124505
1.69836e-06
2.57683e-06
3.33185e-06
5.11389e-06
6.53711e-06
6.97462e-06
1.00501e-05
1.14862e-05
1.40196e-05
1.94952e-05
2.16403e-05
2.67195e-05
2.94869e-05
3.74943e-05
3.89643e-05
4.45951e-05
4.6657e-05
5.05175e-05
5.36209e-05
5.75769e-05
1.58808e-06
2.12055e-06
2.23334e-06
3.76229e-06
4.59991e-06
4.75991e-06
5.68214e-06
5.81679e-06
6.1458e-06
7.57386e-06
8.17801e-06
9.68075e-06
1.06495e-05
1.40766e-05
1.43747e-05
1.60084e-05
1.77053e-05
1.89533e-05
1.9893e-05
2.04056e-05
1.55432e-06
2.07412e-06
2.15414e-06
2.85988e-06
3.29666e-06
4.11494e-06
4.3744e-06
4.31582e-06
4.35509e-06
4.65118e-06
4.62957e-06
4.83901e-06
5.11651e-06
5.96461e-06
5.88723e-06
6.17384e-06
6.58365e-06
6.65738e-06
6.85146e-06
7.29578e-06
1.58778e-06
1.99392e-06
2.78757e-06
2.75932e-06
2.83483e-06
3.20097e-06
3.28369e-06
3.42581e-06
3.72558e-06
3.73862e-06
3.71201e-06
4.00572e-06
4.11564e-06
4.15654e-06
4.15971e-06
4.16401e-06
4.06476e-06
4.00128e-06
4.10896e-06
4.73319e-06
1.59165e-06
2.05395e-06
2.54227e-06
2.35892e-06
2.48573e-06
2.62803e-06
2.85269e-06
3.25015e-06
3.32242e-06
3.35233e-06
3.37925e-06
3.53841e-06
3.54352e-06
3.55489e-06
3.60002e-06
3.64409e-06
3.59678e-06
3.55885e-06
3.61033e-06
4.00813e-06
1.53318e-06
1.96541e-06
2.02054e-06
2.08798e-06
2.38634e-06
2.54079e-06
2.8436e-06
3.10839e-06
3.09288e-06
3.16707e-06
3.16784e-06
3.07427e-06
3.0223e-06
3.09219e-06
3.14446e-06
3.23559e-06
3.31881e-06
3.32635e-06
3.26116e-06
3.4152e-06
1.50975e-06
1.76794e-06
1.90301e-06
2.21854e-06
2.3192e-06
2.35579e-06
2.5718e-06
2.61197e-06
2.60554e-06
2.66515e-06
2.65546e-06
2.64907e-06
2.64963e-06
2.71263e-06
2.75597e-06
2.82617e-06
2.96473e-06
2.95079e-06
2.90174e-06
2.9352e-06
1.51246e-06
1.70606e-06
2.21913e-06
2.23359e-06
2.23304e-06
2.29025e-06
2.30661e-06
2.32045e-06
2.39485e-06
2.49741e-06
2.54618e-06
2.60668e-06
2.61678e-06
2.62871e-06
2.65043e-06
2.72271e-06
2.78368e-06
2.74962e-06
2.7681e-06
2.85086e-06
1.51598e-06
1.65406e-06
2.04923e-06
2.09146e-06
2.12673e-06
2.13854e-06
2.22177e-06
2.29955e-06
2.32999e-06
2.40832e-06
2.49164e-06
2.50373e-06
2.4925e-06
2.49723e-06
2.54427e-06
2.58483e-06
2.57448e-06
2.54979e-06
2.55419e-06
2.63777e-06
1.50718e-06
1.66443e-06
2.03083e-06
2.0699e-06
2.05876e-06
2.06128e-06
2.15285e-06
2.23991e-06
2.24521e-06
2.28103e-06
2.28435e-06
2.29236e-06
2.30305e-06
2.35645e-06
2.3814e-06
2.39185e-06
2.4004e-06
2.41762e-06
2.43244e-06
2.63051e-06
1.50368e-06
1.69385e-06
2.02463e-06
2.04077e-06
2.01596e-06
2.01646e-06
2.11803e-06
2.18985e-06
2.19444e-06
2.20281e-06
2.20361e-06
2.22337e-06
2.24041e-06
2.2598e-06
2.26282e-06
2.28263e-06
2.33595e-06
2.3855e-06
2.35832e-06
2.42227e-06
1.50688e-06
1.68363e-06
1.84948e-06
2.02108e-06
2.07968e-06
2.07756e-06
2.10724e-06
2.16752e-06
2.16511e-06
2.16651e-06
2.18021e-06
2.18069e-06
2.17925e-06
2.18834e-06
2.20583e-06
2.22204e-06
2.2874e-06
2.30073e-06
2.301e-06
2.36904e-06
1.50912e-06
1.63516e-06
1.93906e-06
2.12125e-06
2.09281e-06
2.03839e-06
2.07552e-06
2.12549e-06
2.1336e-06
2.16459e-06
2.19155e-06
2.18922e-06
2.18405e-06
2.19371e-06
2.19796e-06
2.20462e-06
2.25416e-06
2.27611e-06
2.32143e-06
2.62168e-06
1.50983e-06
1.65252e-06
2.06505e-06
2.08662e-06
2.02214e-06
2.01765e-06
2.11814e-06
2.17086e-06
2.21491e-06
2.27624e-06
2.27298e-06
2.2587e-06
2.23708e-06
2.24747e-06
2.24843e-06
2.26139e-06
2.34632e-06
2.39069e-06
2.39569e-06
2.43747e-06
1.51682e-06
1.71024e-06
2.01192e-06
1.99513e-06
2.00358e-06
2.18263e-06
2.27051e-06
2.28318e-06
2.32392e-06
2.33312e-06
2.30278e-06
2.29713e-06
2.29669e-06
2.33123e-06
2.3535e-06
2.42118e-06
2.46151e-06
2.48466e-06
2.48928e-06
2.66708e-06
1.5198e-06
1.67647e-06
1.97212e-06
2.09999e-06
2.26098e-06
2.3176e-06
2.31523e-06
2.32164e-06
2.36052e-06
2.35699e-06
2.35693e-06
2.4207e-06
2.47619e-06
2.48815e-06
2.49359e-06
2.53076e-06
2.55318e-06
2.61125e-06
2.65111e-06
2.94567e-06
1.5295e-06
1.70017e-06
2.11009e-06
2.31361e-06
2.34121e-06
2.31308e-06
2.31277e-06
2.35093e-06
2.47226e-06
2.52991e-06
2.61355e-06
2.70032e-06
2.67458e-06
2.61663e-06
2.63213e-06
2.6736e-06
2.78745e-06
2.94954e-06
3.0674e-06
3.2734e-06
1.53853e-06
1.72981e-06
2.29055e-06
2.38008e-06
2.3574e-06
2.34733e-06
2.44893e-06
2.61635e-06
2.81851e-06
2.85811e-06
2.87506e-06
2.87642e-06
2.77551e-06
2.76265e-06
2.85754e-06
3.06486e-06
3.42359e-06
3.61561e-06
3.96839e-06
4.7608e-06
1.54347e-06
1.76242e-06
2.44202e-06
2.44358e-06
2.47085e-06
2.54829e-06
2.87992e-06
2.9825e-06
3.19181e-06
3.14377e-06
3.13667e-06
3.0892e-06
3.04845e-06
3.21926e-06
3.71253e-06
4.27741e-06
4.82091e-06
5.56469e-06
6.97221e-06
9.81554e-06
1.56426e-06
1.82963e-06
2.65509e-06
2.64352e-06
2.87232e-06
3.03899e-06
3.46217e-06
3.59169e-06
3.88471e-06
3.7825e-06
3.95331e-06
4.16559e-06
4.42563e-06
5.76699e-06
6.92693e-06
8.42688e-06
1.00513e-05
1.26938e-05
1.68319e-05
2.48154e-05
1.5926e-06
1.9775e-06
2.93764e-06
3.01176e-06
3.59778e-06
4.29876e-06
4.70649e-06
5.61847e-06
6.31903e-06
6.52988e-06
7.98084e-06
9.8453e-06
1.09411e-05
1.49929e-05
1.75261e-05
2.18337e-05
2.57961e-05
3.28906e-05
4.10588e-05
5.9105e-05
1.66462e-06
2.47008e-06
3.94449e-06
4.51285e-06
6.2505e-06
8.26861e-06
9.50143e-06
1.30806e-05
1.5919e-05
1.7538e-05
2.26375e-05
2.83957e-05
3.11214e-05
3.98659e-05
4.50133e-05
5.43231e-05
6.14589e-05
7.52958e-05
8.76951e-05
0.000119825
1.79035e-06
4.18833e-06
7.8821e-06
1.03046e-05
1.54435e-05
2.11081e-05
2.51779e-05
3.55979e-05
4.39879e-05
4.84306e-05
5.98479e-05
7.12852e-05
7.63829e-05
9.11136e-05
9.95435e-05
0.000113532
0.000123287
0.000142437
0.000157544
0.000198648
2.34978e-06
9.97188e-06
2.02675e-05
2.76871e-05
4.2462e-05
5.59524e-05
6.61515e-05
8.87133e-05
0.000103721
0.000111253
0.00013063
0.000145401
0.000152587
0.000171227
0.000181759
0.000194779
0.000205287
0.000224622
0.000238349
0.000272543
5.53306e-06
2.65737e-05
5.40041e-05
7.20552e-05
0.0001067
0.000128547
0.00014881
0.000182776
0.000198822
0.000208259
0.000232022
0.000242903
0.000249752
0.000265538
0.000272635
0.000280544
0.000289254
0.00030182
0.000311212
0.000333427
1.72973e-05
6.97967e-05
0.000130579
0.000165332
0.000221721
0.000247488
0.000277421
0.000302765
0.000315046
0.000322403
0.000337575
0.000340092
0.00034406
0.000349796
0.000352533
0.00035474
0.000359466
0.000364368
0.000369596
0.000380037
5.33434e-05
0.00017173
0.000268397
0.000323738
0.000375076
0.000394224
0.000413892
0.000420616
0.000423233
0.000422441
0.000423497
0.000419965
0.000419647
0.000417193
0.00041631
0.000413846
0.000413937
0.000412936
0.000413727
0.000413082
0.000150842
0.000363754
0.000461796
0.000506364
0.00052844
0.000525773
0.000523453
0.000513163
0.00050654
0.000495776
0.000489926
0.000479506
0.000476855
0.000467757
0.000464874
0.00045825
0.000454951
0.000447702
0.00044341
0.000434491
0.000381043
0.000603276
0.000664701
0.000661564
0.000645831
0.000616296
0.000599467
0.000573242
0.0005627
0.000545624
0.000535081
0.000522116
0.00051758
0.000503499
0.000499325
0.000488809
0.000482069
0.000468324
0.000457642
0.000440393
0.000705135
0.000828984
0.000803491
0.000746906
0.000698364
0.000657449
0.000632783
0.000600711
0.000588593
0.000568691
0.000556549
0.000542242
0.000536966
0.000519896
0.000514468
0.000500226
0.000490632
0.000470954
0.000453612
0.000426629
0.00101284
0.000905692
0.000751964
0.000659202
0.000606867
0.000570012
0.000547075
0.000519065
0.000507938
0.000491227
0.00048155
0.000467521
0.000463266
0.000447643
0.000440868
0.000425186
0.000415054
0.000392333
0.000370437
0.000338106
0.000197742
0.000171967
0.000158159
0.000132463
0.000118422
0.000101296
9.05968e-05
8.78836e-05
8.31907e-05
8.38683e-05
8.64259e-05
9.27548e-05
9.64465e-05
0.000101973
0.000106381
0.000104952
9.33106e-05
6.51911e-05
4.28603e-05
2.76744e-05
1.92488e-05
1.58741e-05
1.71195e-05
1.71552e-05
1.62123e-05
1.60114e-05
2.56122e-05
4.04212e-05
7.17046e-05
9.42331e-05
0.000110215
0.000126253
0.000130139
0.00012101
8.80744e-05
6.70239e-05
5.21288e-05
4.63637e-05
4.83234e-05
4.91375e-05
5.19614e-05
5.4068e-05
5.45832e-05
5.59415e-05
6.20503e-05
6.47523e-05
6.35723e-05
5.49154e-05
4.29627e-05
3.48354e-05
3.03515e-05
2.53557e-05
1.9365e-05
1.61768e-05
1.47902e-05
1.32276e-05
1.25488e-05
1.32219e-05
1.77836e-05
2.80503e-05
5.7733e-05
8.33511e-05
8.78705e-05
8.11877e-05
5.68495e-05
4.20893e-05
3.50888e-05
3.17418e-05
3.09861e-05
3.0896e-05
3.06297e-05
2.8969e-05
2.70836e-05
2.60318e-05
2.55066e-05
2.53357e-05
2.54715e-05
2.61559e-05
2.63499e-05
2.65247e-05
2.69192e-05
2.80453e-05
3.46985e-05
3.91605e-05
3.96194e-05
3.90328e-05
3.85815e-05
3.87531e-05
3.97094e-05
4.05874e-05
4.12436e-05
4.12419e-05
3.89299e-05
3.53846e-05
3.28156e-05
3.0776e-05
2.92448e-05
2.83151e-05
2.78949e-05
2.77921e-05
2.74286e-05
2.6225e-05
2.40504e-05
2.16503e-05
1.99298e-05
1.96055e-05
1.97089e-05
2.11711e-05
2.55295e-05
2.69131e-05
2.85674e-05
3.21078e-05
3.83161e-05
4.52166e-05
4.83305e-05
4.90853e-05
4.89914e-05
4.82292e-05
4.5817e-05
4.4213e-05
4.29268e-05
4.21512e-05
4.17912e-05
4.17583e-05
4.21305e-05
4.35526e-05
4.40119e-05
4.37577e-05
4.20078e-05
4.15694e-05
4.24188e-05
4.30097e-05
4.37829e-05
4.80325e-05
5.23991e-05
5.35902e-05
5.3069e-05
4.78107e-05
3.96823e-05
3.33642e-05
2.85387e-05
2.48417e-05
2.18486e-05
1.98451e-05
1.93789e-05
1.91991e-05
1.86574e-05
1.84799e-05
1.86795e-05
1.92449e-05
1.98763e-05
2.13355e-05
2.24311e-05
2.33443e-05
2.47311e-05
2.92684e-05
3.46494e-05
3.7265e-05
4.01082e-05
4.66678e-05
6.1945e-05
6.76698e-05
6.76183e-05
6.42283e-05
5.37254e-05
4.55229e-05
4.17927e-05
4.09396e-05
3.98659e-05
3.67772e-05
3.26292e-05
2.9556e-05
2.82844e-05
2.75318e-05
2.74916e-05
2.75151e-05
2.84793e-05
2.89713e-05
2.97567e-05
2.94032e-05
2.90985e-05
2.81408e-05
3.02582e-05
3.07416e-05
3.32493e-05
3.2383e-05
3.43139e-05
3.48389e-05
3.8269e-05
3.83371e-05
4.19518e-05
4.36629e-05
5.36287e-05
5.90714e-05
6.91237e-05
6.77045e-05
7.7554e-05
7.661e-05
9.24493e-05
0.000138424
0.000242829
0.000207305
0.000165595
0.000145478
0.000139586
0.000130754
0.000123129
0.000119375
0.000116559
0.000115641
0.000112153
0.000110117
0.000109134
0.000109961
0.000109934
0.000104985
8.15529e-05
5.34391e-05
3.37166e-05
2.22572e-05
1.66673e-05
1.48007e-05
1.65397e-05
1.74199e-05
1.71769e-05
1.64577e-05
2.14339e-05
3.70497e-05
6.2952e-05
9.36522e-05
0.000112046
0.000126842
0.000128638
0.000117578
8.45699e-05
6.65298e-05
5.23347e-05
4.76124e-05
4.87567e-05
4.97616e-05
5.26549e-05
5.37533e-05
5.4767e-05
5.9097e-05
6.55672e-05
6.65439e-05
6.37414e-05
5.14572e-05
4.05368e-05
3.28175e-05
2.75474e-05
2.106e-05
1.52513e-05
1.36784e-05
1.32602e-05
1.20817e-05
1.16896e-05
1.26146e-05
1.76507e-05
2.80296e-05
5.83055e-05
8.46131e-05
8.89979e-05
8.10611e-05
5.57104e-05
4.11144e-05
3.42452e-05
3.16093e-05
3.11341e-05
3.12083e-05
3.11922e-05
3.004e-05
2.79747e-05
2.63578e-05
2.55361e-05
2.54468e-05
2.57979e-05
2.63423e-05
2.62795e-05
2.62989e-05
2.66085e-05
2.80057e-05
3.48452e-05
3.89334e-05
3.92678e-05
3.86826e-05
3.83507e-05
3.86227e-05
3.97489e-05
4.06442e-05
4.1391e-05
4.14365e-05
3.92228e-05
3.5234e-05
3.24666e-05
3.05696e-05
2.89482e-05
2.75981e-05
2.71973e-05
2.72683e-05
2.70265e-05
2.5675e-05
2.33151e-05
2.09215e-05
1.91512e-05
1.86958e-05
1.87912e-05
1.95056e-05
2.3819e-05
2.57986e-05
2.65866e-05
2.81929e-05
3.03437e-05
3.75236e-05
4.49518e-05
4.81881e-05
4.86917e-05
4.84013e-05
4.66945e-05
4.49529e-05
4.34087e-05
4.24279e-05
4.19358e-05
4.19041e-05
4.28347e-05
4.42386e-05
4.4421e-05
4.36789e-05
4.15904e-05
4.12958e-05
4.23916e-05
4.30337e-05
4.40891e-05
4.91923e-05
5.26337e-05
5.32849e-05
5.2601e-05
4.74946e-05
3.92841e-05
3.32214e-05
2.87188e-05
2.49135e-05
2.20021e-05
1.98843e-05
1.91497e-05
1.90955e-05
1.87289e-05
1.82907e-05
1.83166e-05
1.85341e-05
1.90565e-05
2.07826e-05
2.20901e-05
2.30142e-05
2.43659e-05
2.85408e-05
3.40678e-05
3.67726e-05
3.93763e-05
4.47732e-05
5.91267e-05
6.57082e-05
6.59556e-05
6.3751e-05
5.49141e-05
4.60969e-05
4.14033e-05
3.99175e-05
3.93259e-05
3.72447e-05
3.32974e-05
2.97188e-05
2.83908e-05
2.75071e-05
2.75791e-05
2.74594e-05
2.77589e-05
2.79056e-05
2.82423e-05
2.80817e-05
2.80304e-05
2.76285e-05
2.86891e-05
2.93724e-05
3.30884e-05
3.27384e-05
3.40685e-05
3.45614e-05
3.74964e-05
3.76051e-05
4.19886e-05
4.42351e-05
5.68869e-05
5.92704e-05
7.74968e-05
7.31413e-05
8.56193e-05
7.9933e-05
0.000100022
0.000130804
0.000250044
0.000228168
0.000195567
0.00017402
0.000158345
0.000145538
0.000136992
0.000133797
0.000133027
0.000129002
0.000121589
0.000115411
0.000115069
0.000114762
0.000111655
9.6216e-05
6.49689e-05
3.99178e-05
2.41888e-05
1.66103e-05
1.36571e-05
1.33593e-05
1.49944e-05
1.72906e-05
1.73785e-05
1.74763e-05
1.93109e-05
3.13639e-05
4.99493e-05
9.01004e-05
0.000111665
0.000123628
0.000123612
0.000112244
8.1838e-05
6.63294e-05
5.29999e-05
4.96867e-05
4.99848e-05
5.07721e-05
5.23593e-05
5.34592e-05
5.56478e-05
6.37338e-05
6.79313e-05
6.7813e-05
6.18797e-05
4.88503e-05
3.8498e-05
3.01835e-05
2.30372e-05
1.6708e-05
1.31526e-05
1.25783e-05
1.26165e-05
1.17831e-05
1.14456e-05
1.24386e-05
1.76624e-05
2.80765e-05
5.87645e-05
8.57593e-05
9.00505e-05
8.07867e-05
5.47142e-05
4.02231e-05
3.37744e-05
3.15851e-05
3.14184e-05
3.16292e-05
3.16791e-05
3.10512e-05
2.92442e-05
2.71172e-05
2.56981e-05
2.56562e-05
2.65989e-05
2.68151e-05
2.64234e-05
2.62382e-05
2.64318e-05
2.80911e-05
3.5142e-05
3.87107e-05
3.88702e-05
3.82662e-05
3.80359e-05
3.85169e-05
3.98532e-05
4.07421e-05
4.15157e-05
4.15754e-05
3.93546e-05
3.50833e-05
3.21237e-05
3.03796e-05
2.8661e-05
2.70447e-05
2.66717e-05
2.67951e-05
2.66362e-05
2.51877e-05
2.2501e-05
2.00826e-05
1.84251e-05
1.79566e-05
1.80655e-05
1.84131e-05
2.17488e-05
2.44664e-05
2.51372e-05
2.58873e-05
2.67177e-05
2.82655e-05
3.66495e-05
4.49563e-05
4.76615e-05
4.77534e-05
4.7078e-05
4.54649e-05
4.36335e-05
4.25178e-05
4.22128e-05
4.23121e-05
4.38958e-05
4.48515e-05
4.4742e-05
4.31742e-05
4.10374e-05
4.0942e-05
4.23829e-05
4.30303e-05
4.4449e-05
5.02537e-05
5.28468e-05
5.30549e-05
5.21392e-05
4.7261e-05
3.88639e-05
3.30423e-05
2.90332e-05
2.5222e-05
2.22788e-05
2.0086e-05
1.91348e-05
1.89852e-05
1.87528e-05
1.82507e-05
1.81109e-05
1.81473e-05
1.84907e-05
2.02018e-05
2.17496e-05
2.27298e-05
2.40573e-05
2.79282e-05
3.36026e-05
3.63397e-05
3.87289e-05
4.32692e-05
5.63527e-05
6.36502e-05
6.41251e-05
6.26227e-05
5.58422e-05
4.68915e-05
4.15225e-05
3.91832e-05
3.86318e-05
3.7152e-05
3.4033e-05
3.00469e-05
2.89217e-05
2.76566e-05
2.77791e-05
2.73141e-05
2.64957e-05
2.64897e-05
2.70216e-05
2.70094e-05
2.74743e-05
2.76221e-05
2.8556e-05
2.84852e-05
3.03116e-05
3.14847e-05
3.22508e-05
3.3906e-05
3.51273e-05
3.63506e-05
3.8947e-05
4.22865e-05
5.66116e-05
5.92582e-05
8.41146e-05
7.98357e-05
9.95545e-05
8.60516e-05
0.000107973
0.000122693
0.000238283
0.00022337
0.000208802
0.000196254
0.000181519
0.000167637
0.000155889
0.000147839
0.000141846
0.000132254
0.000124123
0.000121508
0.000119537
0.00011648
0.000106147
7.28374e-05
4.45562e-05
2.67375e-05
1.78442e-05
1.3537e-05
1.21728e-05
1.23232e-05
1.31465e-05
1.61848e-05
1.69086e-05
1.87307e-05
1.94281e-05
2.66558e-05
3.96145e-05
8.15765e-05
0.000108203
0.000119421
0.000119122
0.000108009
8.07388e-05
6.64332e-05
5.42935e-05
5.12947e-05
5.12695e-05
5.14247e-05
5.18723e-05
5.34007e-05
5.90909e-05
6.74398e-05
6.96607e-05
6.86716e-05
5.91593e-05
4.62295e-05
3.58043e-05
2.64585e-05
1.93798e-05
1.4665e-05
1.21654e-05
1.19964e-05
1.21185e-05
1.15696e-05
1.12627e-05
1.23005e-05
1.77204e-05
2.83254e-05
5.94877e-05
8.69266e-05
9.11521e-05
8.05351e-05
5.36832e-05
3.92264e-05
3.36864e-05
3.17431e-05
3.16765e-05
3.20909e-05
3.2172e-05
3.18512e-05
3.06021e-05
2.8355e-05
2.60351e-05
2.58015e-05
2.7049e-05
2.74295e-05
2.67466e-05
2.62687e-05
2.64032e-05
2.85528e-05
3.56139e-05
3.84245e-05
3.83727e-05
3.77736e-05
3.76863e-05
3.84785e-05
3.99639e-05
4.09935e-05
4.17339e-05
4.1763e-05
3.94803e-05
3.49802e-05
3.1888e-05
3.00789e-05
2.82494e-05
2.66227e-05
2.62602e-05
2.63984e-05
2.6355e-05
2.47764e-05
2.17166e-05
1.93246e-05
1.78353e-05
1.74592e-05
1.76006e-05
1.77712e-05
2.00867e-05
2.31083e-05
2.40156e-05
2.45762e-05
2.49886e-05
2.55788e-05
2.94069e-05
4.07843e-05
4.58486e-05
4.6725e-05
4.6684e-05
4.59877e-05
4.3886e-05
4.2951e-05
4.28847e-05
4.33378e-05
4.51035e-05
4.5382e-05
4.49337e-05
4.23893e-05
4.05035e-05
4.05393e-05
4.21671e-05
4.29362e-05
4.49204e-05
5.11681e-05
5.30523e-05
5.29376e-05
5.1619e-05
4.70509e-05
3.83293e-05
3.27898e-05
2.92682e-05
2.57219e-05
2.27369e-05
2.04513e-05
1.92975e-05
1.89787e-05
1.87047e-05
1.82563e-05
1.79876e-05
1.79526e-05
1.82096e-05
1.98614e-05
2.14828e-05
2.24808e-05
2.37871e-05
2.74031e-05
3.32124e-05
3.60883e-05
3.82676e-05
4.21424e-05
5.37688e-05
6.16874e-05
6.25059e-05
6.12828e-05
5.59868e-05
4.76434e-05
4.18317e-05
3.88215e-05
3.81632e-05
3.68064e-05
3.44756e-05
3.02948e-05
2.93337e-05
2.77784e-05
2.76173e-05
2.64229e-05
2.546e-05
2.53255e-05
2.61449e-05
2.63371e-05
2.72522e-05
2.75503e-05
2.97723e-05
2.93475e-05
2.95338e-05
3.00135e-05
3.06387e-05
3.33803e-05
3.41996e-05
3.63992e-05
3.77124e-05
4.00082e-05
4.9013e-05
5.59028e-05
8.41337e-05
8.46449e-05
0.000110607
9.61985e-05
0.000113778
0.000120441
0.000212284
0.000204751
0.000202005
0.000195862
0.000183391
0.000172876
0.000163884
0.000155642
0.000146422
0.000135214
0.000127558
0.000123738
0.000119389
0.000109684
7.70456e-05
4.88922e-05
2.99822e-05
1.85245e-05
1.3986e-05
1.16494e-05
1.02604e-05
1.0582e-05
1.12641e-05
1.36332e-05
1.51521e-05
1.9696e-05
2.0104e-05
2.45545e-05
3.45336e-05
6.87061e-05
0.000103559
0.00011576
0.00011589
0.000105891
8.17074e-05
6.75775e-05
5.5776e-05
5.19525e-05
5.19291e-05
5.1677e-05
5.18833e-05
5.42972e-05
6.38911e-05
7.01621e-05
7.1279e-05
6.86311e-05
5.60641e-05
4.34863e-05
3.24231e-05
2.32035e-05
1.7356e-05
1.34863e-05
1.1673e-05
1.15668e-05
1.16235e-05
1.11927e-05
1.09812e-05
1.21485e-05
1.78786e-05
2.87909e-05
6.00504e-05
8.80233e-05
9.22071e-05
8.02964e-05
5.2811e-05
3.86833e-05
3.375e-05
3.21167e-05
3.18641e-05
3.24436e-05
3.26765e-05
3.24899e-05
3.17454e-05
3.0081e-05
2.69579e-05
2.59947e-05
2.69957e-05
2.74797e-05
2.68423e-05
2.63221e-05
2.64539e-05
2.94599e-05
3.61935e-05
3.80061e-05
3.77893e-05
3.73067e-05
3.73398e-05
3.84448e-05
4.01855e-05
4.13343e-05
4.20476e-05
4.2055e-05
3.97531e-05
3.49687e-05
3.1854e-05
2.97344e-05
2.78078e-05
2.63466e-05
2.6059e-05
2.63136e-05
2.63234e-05
2.43929e-05
2.11465e-05
1.8827e-05
1.74334e-05
1.71496e-05
1.72208e-05
1.73117e-05
1.87484e-05
2.19146e-05
2.3239e-05
2.37835e-05
2.4137e-05
2.4736e-05
2.79873e-05
3.92902e-05
4.48468e-05
4.6311e-05
4.66118e-05
4.63024e-05
4.45007e-05
4.40421e-05
4.41391e-05
4.49717e-05
4.57657e-05
4.56754e-05
4.4725e-05
4.15991e-05
3.99631e-05
4.02081e-05
4.20465e-05
4.28973e-05
4.57107e-05
5.19482e-05
5.34183e-05
5.30267e-05
5.1416e-05
4.67907e-05
3.77524e-05
3.24669e-05
2.94751e-05
2.63899e-05
2.33645e-05
2.09391e-05
1.97281e-05
1.91272e-05
1.87375e-05
1.83125e-05
1.797e-05
1.79165e-05
1.81223e-05
1.96555e-05
2.13153e-05
2.22711e-05
2.35549e-05
2.69869e-05
3.29146e-05
3.59e-05
3.79251e-05
4.12743e-05
5.15613e-05
5.95481e-05
6.0796e-05
5.98699e-05
5.57841e-05
4.80372e-05
4.23917e-05
3.88197e-05
3.81804e-05
3.67e-05
3.49306e-05
3.06407e-05
2.96025e-05
2.7522e-05
2.72408e-05
2.59159e-05
2.52283e-05
2.5061e-05
2.58247e-05
2.61691e-05
2.71838e-05
2.75866e-05
3.00167e-05
3.00255e-05
3.00071e-05
3.02643e-05
3.06529e-05
3.23331e-05
3.38837e-05
3.74456e-05
3.79881e-05
4.00084e-05
4.1289e-05
4.84584e-05
6.72547e-05
7.88486e-05
0.000104838
0.000103327
0.000109252
0.000118652
0.000183483
0.000175439
0.000176066
0.00017599
0.000170638
0.000162828
0.000154639
0.000145028
0.000134434
0.000124593
0.000119225
0.000113564
0.000103292
7.35817e-05
4.83198e-05
3.12446e-05
1.9396e-05
1.32036e-05
1.1667e-05
1.04105e-05
9.32309e-06
9.70835e-06
1.0538e-05
1.08389e-05
1.17893e-05
1.88935e-05
2.04853e-05
2.23202e-05
2.9616e-05
5.7935e-05
0.000100454
0.000112003
0.000112913
0.000104846
8.28509e-05
6.88481e-05
5.7961e-05
5.32129e-05
5.27878e-05
5.18252e-05
5.19757e-05
5.75447e-05
6.78697e-05
7.24298e-05
7.25223e-05
6.70272e-05
5.30716e-05
4.00076e-05
2.89373e-05
2.11795e-05
1.60727e-05
1.27762e-05
1.14449e-05
1.12705e-05
1.11719e-05
1.05517e-05
1.04526e-05
1.20173e-05
1.83099e-05
2.95725e-05
6.09154e-05
8.92608e-05
9.33369e-05
8.00752e-05
5.18844e-05
3.83151e-05
3.42147e-05
3.25706e-05
3.19932e-05
3.28191e-05
3.33253e-05
3.3125e-05
3.26449e-05
3.15682e-05
2.87371e-05
2.65865e-05
2.67237e-05
2.71057e-05
2.67223e-05
2.6315e-05
2.66606e-05
3.07691e-05
3.66696e-05
3.76625e-05
3.72024e-05
3.68196e-05
3.70067e-05
3.84815e-05
4.03164e-05
4.17594e-05
4.24801e-05
4.24702e-05
3.99744e-05
3.49726e-05
3.18635e-05
2.94575e-05
2.75617e-05
2.62343e-05
2.60315e-05
2.64338e-05
2.63611e-05
2.38661e-05
2.07547e-05
1.84652e-05
1.71298e-05
1.67983e-05
1.67121e-05
1.6809e-05
1.78022e-05
2.10648e-05
2.25296e-05
2.29305e-05
2.3371e-05
2.42631e-05
2.85388e-05
3.91996e-05
4.38084e-05
4.57373e-05
4.64405e-05
4.62623e-05
4.53182e-05
4.53185e-05
4.55285e-05
4.58453e-05
4.60569e-05
4.57986e-05
4.40567e-05
4.05258e-05
3.91169e-05
3.9746e-05
4.18216e-05
4.28331e-05
4.65564e-05
5.2569e-05
5.38968e-05
5.32185e-05
5.13916e-05
4.65486e-05
3.72107e-05
3.21625e-05
2.9657e-05
2.71682e-05
2.41096e-05
2.13737e-05
2.03552e-05
1.96618e-05
1.90349e-05
1.85201e-05
1.80767e-05
1.79751e-05
1.81355e-05
1.9596e-05
2.11918e-05
2.21236e-05
2.33579e-05
2.66262e-05
3.25283e-05
3.57385e-05
3.76661e-05
4.05822e-05
4.94335e-05
5.78057e-05
5.90875e-05
5.83345e-05
5.5276e-05
4.80546e-05
4.30588e-05
3.89411e-05
3.82632e-05
3.67794e-05
3.53271e-05
3.0975e-05
2.99645e-05
2.76309e-05
2.69928e-05
2.57433e-05
2.51946e-05
2.48932e-05
2.51767e-05
2.61406e-05
2.72e-05
2.7804e-05
2.94908e-05
3.01075e-05
3.06724e-05
3.08735e-05
3.15065e-05
3.26015e-05
3.52076e-05
3.74123e-05
3.6896e-05
3.80576e-05
4.0974e-05
4.47843e-05
6.08185e-05
7.02112e-05
7.70585e-05
9.99594e-05
0.000100977
0.000113206
0.000150085
0.000142915
0.000142105
0.000141992
0.000140191
0.000136067
0.000129942
0.000122372
0.00011283
0.000102965
9.56769e-05
8.42452e-05
6.33902e-05
4.40249e-05
2.97346e-05
1.93665e-05
1.26347e-05
1.02909e-05
9.99357e-06
9.35803e-06
8.72786e-06
9.3133e-06
1.03593e-05
1.02681e-05
1.03707e-05
1.55825e-05
2.03487e-05
2.11223e-05
2.68519e-05
4.83374e-05
9.74542e-05
0.000109868
0.000112036
0.000104127
8.27227e-05
7.17422e-05
6.2059e-05
5.55837e-05
5.35643e-05
5.21933e-05
5.31486e-05
6.15107e-05
7.1268e-05
7.43896e-05
7.34633e-05
6.41167e-05
4.92288e-05
3.59677e-05
2.6429e-05
1.96099e-05
1.50359e-05
1.22374e-05
1.1258e-05
1.10492e-05
1.08092e-05
1.00317e-05
1.009e-05
1.20979e-05
1.90498e-05
3.06271e-05
6.16481e-05
9.06364e-05
9.45062e-05
8.0036e-05
5.12115e-05
3.80544e-05
3.49863e-05
3.3279e-05
3.22642e-05
3.33128e-05
3.41359e-05
3.38227e-05
3.32007e-05
3.17923e-05
3.01292e-05
2.7985e-05
2.69629e-05
2.6841e-05
2.64967e-05
2.62724e-05
2.74817e-05
3.28202e-05
3.70042e-05
3.72546e-05
3.65449e-05
3.62546e-05
3.67023e-05
3.85648e-05
4.04234e-05
4.22758e-05
4.29264e-05
4.2933e-05
4.00645e-05
3.49689e-05
3.17535e-05
2.93215e-05
2.75692e-05
2.62612e-05
2.61466e-05
2.65625e-05
2.61103e-05
2.30003e-05
2.02471e-05
1.81598e-05
1.69379e-05
1.6436e-05
1.62829e-05
1.64271e-05
1.74702e-05
2.03037e-05
2.12926e-05
2.16077e-05
2.24867e-05
2.41223e-05
2.9827e-05
3.75734e-05
4.13233e-05
4.41498e-05
4.57953e-05
4.59362e-05
4.57951e-05
4.60517e-05
4.61395e-05
4.61317e-05
4.6194e-05
4.57391e-05
4.29283e-05
3.95077e-05
3.8482e-05
3.95625e-05
4.17579e-05
4.28927e-05
4.73892e-05
5.32372e-05
5.43835e-05
5.32875e-05
5.13513e-05
4.65037e-05
3.7027e-05
3.1827e-05
2.98273e-05
2.79904e-05
2.49605e-05
2.16981e-05
2.06837e-05
2.03256e-05
1.96716e-05
1.88796e-05
1.82373e-05
1.8024e-05
1.81661e-05
1.96596e-05
2.12252e-05
2.20231e-05
2.3201e-05
2.63983e-05
3.23386e-05
3.57286e-05
3.76236e-05
4.01546e-05
4.77961e-05
5.57152e-05
5.74382e-05
5.67703e-05
5.4428e-05
4.80545e-05
4.33984e-05
3.90987e-05
3.8565e-05
3.72765e-05
3.6437e-05
3.20038e-05
3.09795e-05
2.8111e-05
2.70562e-05
2.54674e-05
2.53025e-05
2.4974e-05
2.49675e-05
2.59707e-05
2.812e-05
2.8484e-05
2.94917e-05
2.99356e-05
3.10491e-05
3.12478e-05
3.25659e-05
3.48061e-05
3.5493e-05
3.72741e-05
3.64393e-05
3.89232e-05
4.09715e-05
4.73241e-05
5.77024e-05
6.62757e-05
7.69874e-05
9.35773e-05
9.34756e-05
0.000105292
0.000109782
0.00010308
0.000102278
0.000102581
0.000102398
0.00010144
9.84872e-05
9.42592e-05
8.54164e-05
7.65706e-05
6.40607e-05
5.00459e-05
3.6257e-05
2.55363e-05
1.76325e-05
1.18158e-05
9.05686e-06
8.8122e-06
8.86457e-06
8.24984e-06
7.98119e-06
9.18174e-06
1.00933e-05
9.90133e-06
1.01582e-05
1.20008e-05
1.93781e-05
2.0143e-05
2.46649e-05
4.23749e-05
9.14325e-05
0.000107653
0.000110901
0.000101489
8.52099e-05
7.90767e-05
6.67867e-05
5.85502e-05
5.49954e-05
5.45303e-05
5.5654e-05
6.57938e-05
7.44878e-05
7.61212e-05
7.31433e-05
5.9637e-05
4.42205e-05
3.2222e-05
2.39698e-05
1.80704e-05
1.40401e-05
1.17137e-05
1.09833e-05
1.0879e-05
1.05645e-05
9.85575e-06
1.00036e-05
1.25624e-05
2.02388e-05
3.21799e-05
6.26163e-05
9.20175e-05
9.58801e-05
8.00755e-05
5.03656e-05
3.79336e-05
3.58072e-05
3.39868e-05
3.26441e-05
3.38959e-05
3.5035e-05
3.45377e-05
3.3325e-05
3.16214e-05
3.02594e-05
2.91027e-05
2.80283e-05
2.73941e-05
2.67144e-05
2.67616e-05
3.02799e-05
3.4857e-05
3.70829e-05
3.67663e-05
3.58259e-05
3.56706e-05
3.65896e-05
3.87356e-05
4.06964e-05
4.27457e-05
4.33854e-05
4.34412e-05
3.99642e-05
3.47798e-05
3.12406e-05
2.93599e-05
2.82019e-05
2.65527e-05
2.61864e-05
2.63861e-05
2.49981e-05
2.19292e-05
1.97623e-05
1.80503e-05
1.69354e-05
1.63502e-05
1.61462e-05
1.62546e-05
1.73516e-05
2.04145e-05
2.11794e-05
2.12997e-05
2.20438e-05
2.40423e-05
2.91894e-05
3.28886e-05
3.6503e-05
4.13376e-05
4.44521e-05
4.52229e-05
4.55258e-05
4.62674e-05
4.66055e-05
4.66193e-05
4.64552e-05
4.53786e-05
4.11632e-05
3.82404e-05
3.76577e-05
3.94394e-05
4.17286e-05
4.30946e-05
4.83482e-05
5.41013e-05
5.49307e-05
5.33103e-05
5.12722e-05
4.64828e-05
3.69883e-05
3.15991e-05
2.99445e-05
2.87834e-05
2.60109e-05
2.21109e-05
2.07472e-05
2.06898e-05
2.02937e-05
1.92131e-05
1.83921e-05
1.80609e-05
1.8239e-05
1.98446e-05
2.13442e-05
2.20382e-05
2.31519e-05
2.62974e-05
3.23473e-05
3.57933e-05
3.76799e-05
3.9844e-05
4.66324e-05
5.40752e-05
5.57099e-05
5.55361e-05
5.36524e-05
4.79417e-05
4.41438e-05
3.93406e-05
3.8561e-05
3.74952e-05
3.70545e-05
3.38025e-05
3.23539e-05
2.88659e-05
2.71465e-05
2.53932e-05
2.51077e-05
2.51902e-05
2.53009e-05
2.59333e-05
2.83597e-05
2.8699e-05
2.95678e-05
3.03642e-05
3.25139e-05
3.27647e-05
3.34317e-05
3.45887e-05
3.42151e-05
3.63435e-05
3.59762e-05
4.17711e-05
4.14638e-05
5.10718e-05
5.40059e-05
6.31041e-05
6.78849e-05
8.80131e-05
8.84409e-05
9.96859e-05
6.61779e-05
6.18722e-05
6.17132e-05
6.28242e-05
6.44511e-05
6.42252e-05
6.27567e-05
5.94875e-05
5.19289e-05
4.35085e-05
3.44776e-05
2.59138e-05
1.93987e-05
1.45403e-05
1.04744e-05
8.04e-06
7.65933e-06
7.92792e-06
7.77773e-06
7.05005e-06
7.28616e-06
9.4226e-06
9.86949e-06
9.73814e-06
1.01362e-05
1.13371e-05
1.70494e-05
1.86969e-05
2.22152e-05
3.89858e-05
8.52564e-05
0.000106522
0.000107958
9.86226e-05
9.07855e-05
8.45387e-05
7.12067e-05
6.22114e-05
5.79074e-05
5.66408e-05
5.84633e-05
7.11126e-05
7.75218e-05
7.77081e-05
7.00867e-05
5.40259e-05
3.92143e-05
2.85701e-05
2.16315e-05
1.64542e-05