/*--------------------------------*- C++ -*----------------------------------*\
| =========                 |                                                 |
| \\      /  F ield         | OpenFOAM: The Open Source CFD Toolbox           |
|  \\    /   O peration     | Version:  2.4.0                                 |
|   \\  /    A nd           | Web:      www.OpenFOAM.org                      |
|    \\/     M anipulation  |                                                 |
\*---------------------------------------------------------------------------*/
FoamFile
{
    version     2.0;
    format      ascii;
    class       volVectorField;
    location    "0.286";
    object      U;
}
// * * * * * * * * * * * * * * * * * * * * * * * * * * * * * * * * * * * * * //

dimensions      [0 1 -1 0 0 0 0];

internalField   nonuniform List<vector> 
17600
(
(5.32801 0.309449 0)
(2.98367 0.0606759 0)
(2.19683 -0.00171013 0)
(1.85091 -0.00348448 0)
(1.70275 -0.00112582 0)
(1.6153 -0.000455218 0)
(1.53727 8.96512e-05 0)
(1.47808 0.000351455 0)
(1.43949 -0.000839981 0)
(1.39973 0.00034059 0)
(1.38264 -0.000180215 0)
(1.35349 -0.000500249 0)
(1.34799 8.43528e-05 0)
(1.33302 -0.000860769 0)
(1.33227 -0.000445744 0)
(1.36806 -0.00290163 0)
(1.37027 -0.000472671 0)
(1.51644 -0.00832786 0)
(1.77188 -0.0040432 0)
(1.52462 -0.0725906 0)
(8.59869 0.872088 0)
(6.94584 0.383546 0)
(5.81206 0.120999 0)
(5.06213 0.0515095 0)
(4.64359 0.0284379 0)
(4.39084 0.0197576 0)
(4.17248 0.0168555 0)
(4.01503 0.0130818 0)
(3.90721 0.00770397 0)
(3.78207 0.00847309 0)
(3.74035 0.00559624 0)
(3.64567 0.00364455 0)
(3.62341 0.00413148 0)
(3.57104 0.00106095 0)
(3.54004 -0.000911305 0)
(3.59761 -0.00806265 0)
(3.53837 -0.00724828 0)
(3.80532 -0.0518076 0)
(4.12064 -0.0170426 0)
(4.31394 -0.292515 0)
(9.85676 1.02254 0)
(9.34025 0.577513 0)
(8.47446 0.239691 0)
(7.65089 0.131576 0)
(7.07932 0.0816211 0)
(6.71475 0.056492 0)
(6.39577 0.0462409 0)
(6.16086 0.0346018 0)
(6.00666 0.0245842 0)
(5.8023 0.0228896 0)
(5.74829 0.0162185 0)
(5.59324 0.0126804 0)
(5.5537 0.0113826 0)
(5.47564 0.00722749 0)
(5.40096 0.000234845 0)
(5.48068 -0.00927982 0)
(5.33872 -0.0124578 0)
(5.68546 -0.0917127 0)
(5.86001 -0.0805993 0)
(6.5914 -0.355353 0)
(10.1589 0.948508 0)
(10.5643 0.668985 0)
(10.2553 0.327712 0)
(9.65778 0.212778 0)
(9.10309 0.146779 0)
(8.7144 0.105344 0)
(8.35206 0.0863494 0)
(8.06253 0.0632448 0)
(7.89397 0.0486588 0)
(7.61968 0.0428235 0)
(7.56751 0.0309305 0)
(7.36369 0.0265798 0)
(7.30301 0.0210327 0)
(7.21733 0.0177511 0)
(7.09257 0.00259746 0)
(7.19487 -0.0069618 0)
(6.98022 -0.0167218 0)
(7.37498 -0.12788 0)
(7.34415 -0.152882 0)
(8.47437 -0.440218 0)
(10.0699 0.806616 0)
(10.9185 0.670552 0)
(11.12 0.352834 0)
(10.9167 0.260166 0)
(10.5616 0.201734 0)
(10.2674 0.153847 0)
(9.95628 0.130706 0)
(9.65065 0.0950186 0)
(9.5168 0.0768762 0)
(9.19501 0.0668053 0)
(9.16017 0.0475891 0)
(8.93536 0.0446138 0)
(8.84935 0.0319838 0)
(8.77757 0.0312715 0)
(8.6146 0.00734441 0)
(8.71856 -0.00273761 0)
(8.48063 -0.0188219 0)
(8.87647 -0.153183 0)
(8.66869 -0.232791 0)
(9.89684 -0.545889 0)
(9.97854 0.692688 0)
(10.8591 0.637982 0)
(11.2839 0.328209 0)
(11.3989 0.257045 0)
(11.3146 0.222497 0)
(11.2085 0.182981 0)
(11.0682 0.167093 0)
(10.81 0.122542 0)
(10.7729 0.103462 0)
(10.4542 0.0922045 0)
(10.4507 0.063344 0)
(10.2508 0.0649995 0)
(10.143 0.0435212 0)
(10.0991 0.0449063 0)
(9.94059 0.0149455 0)
(10.008 0.00199818 0)
(9.79944 -0.020517 0)
(10.1748 -0.169493 0)
(9.87158 -0.293078 0)
(10.8006 -0.705626 0)
(9.95417 0.60277 0)
(10.742 0.605666 0)
(11.1837 0.297145 0)
(11.4152 0.2267 0)
(11.4959 0.209825 0)
(11.5122 0.181674 0)
(11.5952 0.182021 0)
(11.4234 0.13446 0)
(11.5331 0.117626 0)
(11.2929 0.112329 0)
(11.3415 0.0726927 0)
(11.2262 0.0835554 0)
(11.1199 0.0544258 0)
(11.106 0.0546494 0)
(11.016 0.0247339 0)
(11.0259 0.0070041 0)
(10.8651 -0.0242539 0)
(11.2323 -0.180718 0)
(10.9059 -0.333596 0)
(11.4257 -0.828546 0)
(9.95377 0.525082 0)
(10.6526 0.568686 0)
(11.0721 0.278786 0)
(11.3024 0.19621 0)
(11.4805 0.190446 0)
(11.4682 0.164079 0)
(11.6985 0.179698 0)
(11.5681 0.130898 0)
(11.7848 0.114461 0)
(11.6549 0.120215 0)
(11.7487 0.0698855 0)
(11.7726 0.0919482 0)
(11.7016 0.062331 0)
(11.7132 0.0543615 0)
(11.7564 0.0322065 0)
(11.7249 0.0118345 0)
(11.6106 -0.0325399 0)
(11.9654 -0.193158 0)
(11.7651 -0.345422 0)
(11.6818 -0.906164 0)
(9.9597 0.453409 0)
(10.5705 0.52561 0)
(11.0086 0.267681 0)
(11.1786 0.1673 0)
(11.4371 0.170038 0)
(11.3789 0.146691 0)
(11.6518 0.169477 0)
(11.5359 0.124077 0)
(11.7729 0.101496 0)
(11.7009 0.121241 0)
(11.7809 0.0534972 0)
(11.9371 0.0911877 0)
(11.8894 0.062569 0)
(11.9094 0.0452451 0)
(12.1067 0.0276795 0)
(12.0525 0.0178796 0)
(12.0003 -0.0472745 0)
(12.3198 -0.216613 0)
(12.2795 -0.343308 0)
(11.798 -0.904855 0)
(9.97325 0.394281 0)
(10.4964 0.472518 0)
(10.956 0.261716 0)
(11.1083 0.140238 0)
(11.3399 0.15059 0)
(11.362 0.126784 0)
(11.5471 0.158884 0)
(11.4898 0.114891 0)
(11.7308 0.0883294 0)
(11.635 0.122124 0)
(11.715 0.0361984 0)
(11.9452 0.0777854 0)
(11.8208 0.0695596 0)
(11.9147 0.0203549 0)
(12.1449 0.0212893 0)
(12.0826 0.0141651 0)
(12.1307 -0.0583183 0)
(12.3601 -0.251723 0)
(12.3708 -0.341563 0)
(11.9519 -0.876999 0)
(9.99381 0.335896 0)
(10.4312 0.425614 0)
(10.8923 0.250104 0)
(11.0837 0.123835 0)
(11.2257 0.124134 0)
(11.3925 0.112054 0)
(11.3902 0.149916 0)
(11.5136 0.100647 0)
(11.6395 0.0793367 0)
(11.5346 0.123709 0)
(11.7449 0.0120283 0)
(11.8328 0.0783944 0)
(11.7374 0.0678217 0)
(11.9427 -0.00081395 0)
(11.9849 0.0137876 0)
(11.9983 0.00522787 0)
(12.1854 -0.0771822 0)
(12.2626 -0.277838 0)
(12.2421 -0.334094 0)
(12.0328 -0.87784 0)
(10.008 0.288528 0)
(10.3681 0.373951 0)
(10.8481 0.239014 0)
(11.0498 0.108042 0)
(11.163 0.100932 0)
(11.3393 0.0963422 0)
(11.325 0.140122 0)
(11.5486 0.0835874 0)
(11.4689 0.0805759 0)
(11.5481 0.111272 0)
(11.7087 -0.00141657 0)
(11.6478 0.0797734 0)
(11.8434 0.0591509 0)
(11.883 -0.0139487 0)
(11.8149 0.0214878 0)
(11.9657 -0.0221619 0)
(12.1544 -0.0936664 0)
(12.0991 -0.286681 0)
(12.1329 -0.351885 0)
(12.0035 -0.85614 0)
(9.99943 0.243023 0)
(10.3432 0.325999 0)
(10.7941 0.219114 0)
(10.9962 0.10028 0)
(11.171 0.078066 0)
(11.2187 0.0850949 0)
(11.3605 0.113886 0)
(11.4654 0.0847564 0)
(11.3977 0.0707746 0)
(11.5904 0.0983737 0)
(11.571 -0.00202933 0)
(11.6064 0.0627373 0)
(11.8922 0.0436571 0)
(11.7911 -0.00108978 0)
(11.7876 0.00947409 0)
(11.9349 -0.0484486 0)
(12.0392 -0.0969281 0)
(11.9931 -0.296362 0)
(12.1245 -0.394494 0)
(11.8341 -0.815804 0)
(9.99093 0.205419 0)
(10.3343 0.274711 0)
(10.7073 0.200861 0)
(10.9786 0.0834942 0)
(11.1688 0.0699623 0)
(11.1489 0.0644425 0)
(11.3538 0.100346 0)
(11.3454 0.0768519 0)
(11.4474 0.0610338 0)
(11.5328 0.0883049 0)
(11.5142 -0.00105703 0)
(11.622 0.0358642 0)
(11.789 0.042446 0)
(11.7906 -0.0082591 0)
(11.815 0.0115525 0)
(11.8674 -0.0703038 0)
(11.9355 -0.108653 0)
(11.9777 -0.306488 0)
(12.0295 -0.402991 0)
(11.6936 -0.799004 0)
(9.99509 0.166456 0)
(10.3109 0.234303 0)
(10.6357 0.168044 0)
(10.9993 0.0725888 0)
(11.0919 0.0583655 0)
(11.16 0.0557907 0)
(11.2759 0.0780376 0)
(11.3192 0.0730382 0)
(11.4637 0.0405962 0)
(11.4597 0.0926313 0)
(11.527 -0.0123325 0)
(11.5823 0.0268685 0)
(11.6899 0.0279889 0)
(11.8103 -0.00818121 0)
(11.8187 -0.00248499 0)
(11.8029 -0.0634104 0)
(11.8872 -0.128654 0)
(11.9419 -0.323546 0)
(11.8741 -0.384772 0)
(11.7113 -0.803544 0)
(10.0029 0.133713 0)
(10.289 0.191206 0)
(10.6029 0.133819 0)
(10.969 0.0617136 0)
(11.037 0.0525428 0)
(11.1815 0.0387764 0)
(11.2068 0.0635544 0)
(11.3478 0.0563222 0)
(11.3887 0.034057 0)
(11.4513 0.0834743 0)
(11.5476 -0.012677 0)
(11.5014 0.0146334 0)
(11.6706 0.0188208 0)
(11.7993 -0.0290123 0)
(11.7572 0.0149819 0)
(11.7894 -0.094167 0)
(11.8786 -0.126114 0)
(11.8669 -0.331674 0)
(11.8135 -0.408453 0)
(11.6922 -0.778411 0)
(10.0156 0.10326 0)
(10.2517 0.147575 0)
(10.5978 0.102878 0)
(10.904 0.0501534 0)
(11.0474 0.0430733 0)
(11.1649 0.0256141 0)
(11.2085 0.0461688 0)
(11.31 0.0449437 0)
(11.3364 0.0255849 0)
(11.4718 0.0700728 0)
(11.5329 -0.00926854 0)
(11.4556 0.00284156 0)
(11.6963 0.00171824 0)
(11.7287 -0.0292895 0)
(11.7014 0.00726718 0)
(11.8243 -0.0883427 0)
(11.8683 -0.15411 0)
(11.7905 -0.314447 0)
(11.7949 -0.413336 0)
(11.563 -0.727115 0)
(10.0198 0.073083 0)
(10.215 0.108375 0)
(10.6065 0.0659278 0)
(10.8641 0.0433767 0)
(11.0439 0.0274913 0)
(11.1539 0.0175246 0)
(11.2307 0.0253119 0)
(11.2356 0.0426406 0)
(11.3524 0.00391273 0)
(11.4658 0.0642944 0)
(11.479 -0.00972909 0)
(11.5036 -0.00516463 0)
(11.6761 -0.0164144 0)
(11.6357 -0.0223946 0)
(11.7328 -0.0129546 0)
(11.8222 -0.0952045 0)
(11.8281 -0.155643 0)
(11.7647 -0.312431 0)
(11.7477 -0.437056 0)
(11.5018 -0.630264 0)
(10.0014 0.0513259 0)
(10.2214 0.0585723 0)
(10.6056 0.0385441 0)
(10.8384 0.0274007 0)
(11.0283 0.0219592 0)
(11.1856 -0.00425978 0)
(11.1913 0.0215537 0)
(11.2322 0.0241472 0)
(11.3577 -0.00558313 0)
(11.4247 0.049425 0)
(11.4626 -0.00218169 0)
(11.5724 -0.0292668 0)
(11.5817 -0.0043487 0)
(11.6306 -0.048148 0)
(11.7394 -0.0103545 0)
(11.791 -0.121558 0)
(11.8028 -0.14728 0)
(11.7522 -0.311987 0)
(11.7297 -0.432143 0)
(11.4896 -0.635409 0)
(9.9861 0.0225512 0)
(10.2458 0.0177665 0)
(10.5895 0.00362683 0)
(10.8155 0.0228427 0)
(11.0581 -0.000526907 0)
(11.1862 -0.00660645 0)
(11.1412 0.00352019 0)
(11.2738 0.0174292 0)
(11.3309 -0.024078 0)
(11.3826 0.0500349 0)
(11.5116 -0.0197517 0)
(11.5502 -0.0248961 0)
(11.534 -0.0205305 0)
(11.6655 -0.0388341 0)
(11.6968 -0.0485903 0)
(11.7849 -0.089649 0)
(11.7795 -0.178659 0)
(11.7619 -0.3138 0)
(11.7035 -0.388931 0)
(11.4203 -0.663296 0)
(9.99269 0.000327199 0)
(10.2549 -0.0320813 0)
(10.5665 -0.0186712 0)
(10.8283 0.000595598 0)
(11.0923 -0.00796445 0)
(11.1273 -0.0180638 0)
(11.1608 -0.0064639 0)
(11.2856 -0.00303231 0)
(11.3167 -0.0242898 0)
(11.3796 0.0287676 0)
(11.5345 -0.0162963 0)
(11.4932 -0.0357347 0)
(11.5781 -0.0154579 0)
(11.6454 -0.0678982 0)
(11.7017 -0.0306098 0)
(11.7647 -0.132706 0)
(11.7848 -0.151333 0)
(11.7507 -0.321855 0)
(11.6551 -0.399589 0)
(11.4107 -0.619597 0)
(10.0076 -0.0292302 0)
(10.2526 -0.0707409 0)
(10.5553 -0.0525223 0)
(10.8657 -0.0136031 0)
(11.0718 -0.018648 0)
(11.1086 -0.0220506 0)
(11.2086 -0.0295086 0)
(11.2833 -0.0112235 0)
(11.3085 -0.0335892 0)
(11.4059 0.0138323 0)
(11.497 -0.018728 0)
(11.518 -0.0410931 0)
(11.5949 -0.0282677 0)
(11.646 -0.0634404 0)
(11.7097 -0.0608074 0)
(11.7462 -0.111684 0)
(11.8064 -0.18308 0)
(11.719 -0.299103 0)
(11.6407 -0.388878 0)
(11.4313 -0.567255 0)
(10.0168 -0.0561644 0)
(10.2412 -0.113578 0)
(10.5745 -0.0828098 0)
(10.8835 -0.0302413 0)
(11.0517 -0.0241282 0)
(11.1532 -0.0375456 0)
(11.2247 -0.0460988 0)
(11.2803 -0.0188713 0)
(11.3157 -0.0458733 0)
(11.4106 0.00816201 0)
(11.4894 -0.0288771 0)
(11.5698 -0.043469 0)
(11.5799 -0.0410098 0)
(11.6749 -0.0645603 0)
(11.695 -0.0728909 0)
(11.763 -0.116835 0)
(11.7874 -0.186559 0)
(11.7344 -0.292538 0)
(11.6552 -0.397645 0)
(11.4253 -0.484185 0)
(10.0097 -0.0835197 0)
(10.2444 -0.156822 0)
(10.6101 -0.114413 0)
(10.8905 -0.0445005 0)
(11.0766 -0.0335419 0)
(11.1848 -0.0544104 0)
(11.2168 -0.0539284 0)
(11.2828 -0.0357837 0)
(11.3451 -0.0449727 0)
(11.4125 -0.0165601 0)
(11.5246 -0.0203739 0)
(11.5756 -0.0664015 0)
(11.5984 -0.027626 0)
(11.6771 -0.0898206 0)
(11.7105 -0.0619664 0)
(11.7661 -0.144476 0)
(11.793 -0.170958 0)
(11.7516 -0.295654 0)
(11.6551 -0.392484 0)
(11.4303 -0.467132 0)
(9.9926 -0.11621 0)
(10.2792 -0.197461 0)
(10.6407 -0.149939 0)
(10.9119 -0.0522303 0)
(11.0989 -0.0513862 0)
(11.1891 -0.0588991 0)
(11.222 -0.0731363 0)
(11.3133 -0.0394639 0)
(11.3704 -0.0651642 0)
(11.4408 -0.0153921 0)
(11.5451 -0.0446918 0)
(11.5749 -0.0518414 0)
(11.624 -0.0572238 0)
(11.6986 -0.0687372 0)
(11.7302 -0.10378 0)
(11.7652 -0.110875 0)
(11.8304 -0.209609 0)
(11.7496 -0.284525 0)
(11.656 -0.344984 0)
(11.4553 -0.521665 0)
(9.98912 -0.144958 0)
(10.3134 -0.248337 0)
(10.6723 -0.173563 0)
(10.9415 -0.0704197 0)
(11.1025 -0.0557256 0)
(11.2034 -0.0804628 0)
(11.265 -0.0770479 0)
(11.3431 -0.0648267 0)
(11.398 -0.0584818 0)
(11.4722 -0.0445854 0)
(11.5511 -0.028822 0)
(11.5966 -0.0804232 0)
(11.653 -0.0419367 0)
(11.7377 -0.101163 0)
(11.738 -0.0769467 0)
(11.8026 -0.159625 0)
(11.8393 -0.17247 0)
(11.7552 -0.298829 0)
(11.6886 -0.346346 0)
(11.463 -0.488129 0)
(9.99354 -0.187008 0)
(10.3365 -0.287345 0)
(10.713 -0.206586 0)
(10.9715 -0.0752026 0)
(11.1215 -0.0751414 0)
(11.2487 -0.0904729 0)
(11.3065 -0.0973774 0)
(11.3651 -0.0675077 0)
(11.432 -0.076127 0)
(11.4968 -0.0438723 0)
(11.5732 -0.0466249 0)
(11.6323 -0.0753905 0)
(11.6958 -0.0639715 0)
(11.7652 -0.0883346 0)
(11.7685 -0.105149 0)
(11.8334 -0.140344 0)
(11.8423 -0.198931 0)
(11.7912 -0.274732 0)
(11.7025 -0.350781 0)
(11.4678 -0.412611 0)
(9.99392 -0.224539 0)
(10.3653 -0.336444 0)
(10.7619 -0.227362 0)
(11.0121 -0.0898589 0)
(11.1683 -0.0900719 0)
(11.2947 -0.108793 0)
(11.3327 -0.104693 0)
(11.3991 -0.0820358 0)
(11.4652 -0.0805689 0)
(11.5291 -0.0584655 0)
(11.6128 -0.0504847 0)
(11.681 -0.0858747 0)
(11.733 -0.0716342 0)
(11.8027 -0.09034 0)
(11.8079 -0.113866 0)
(11.8531 -0.142524 0)
(11.8589 -0.204746 0)
(11.8357 -0.265548 0)
(11.721 -0.349007 0)
(11.5365 -0.353717 0)
(10.0035 -0.270894 0)
(10.3973 -0.384091 0)
(10.8216 -0.242821 0)
(11.0625 -0.107936 0)
(11.2244 -0.10716 0)
(11.3231 -0.125511 0)
(11.3689 -0.110313 0)
(11.4343 -0.0967102 0)
(11.4996 -0.0842793 0)
(11.5742 -0.0745952 0)
(11.6636 -0.052695 0)
(11.7291 -0.101988 0)
(11.7754 -0.0662261 0)
(11.8462 -0.111138 0)
(11.8369 -0.0974667 0)
(11.8827 -0.171221 0)
(11.8966 -0.179767 0)
(11.8661 -0.287951 0)
(11.7724 -0.327311 0)
(11.6307 -0.358905 0)
(10.0248 -0.323195 0)
(10.4235 -0.429744 0)
(10.9039 -0.258616 0)
(11.1128 -0.124473 0)
(11.2806 -0.130725 0)
(11.3391 -0.134686 0)
(11.4149 -0.125281 0)
(11.4579 -0.100659 0)
(11.5552 -0.100408 0)
(11.6269 -0.0796698 0)
(11.7282 -0.0712401 0)
(11.7751 -0.0971771 0)
(11.8298 -0.0875899 0)
(11.8771 -0.0956466 0)
(11.8783 -0.122096 0)
(11.9214 -0.152758 0)
(11.9441 -0.202421 0)
(11.9035 -0.273322 0)
(11.8288 -0.32007 0)
(11.6681 -0.393851 0)
(10.034 -0.378996 0)
(10.4635 -0.481041 0)
(11.0087 -0.269367 0)
(11.1466 -0.147647 0)
(11.3347 -0.14621 0)
(11.3452 -0.150366 0)
(11.4773 -0.131575 0)
(11.4911 -0.114667 0)
(11.6454 -0.109142 0)
(11.6845 -0.095374 0)
(11.8049 -0.0754902 0)
(11.8093 -0.108411 0)
(11.8948 -0.0861483 0)
(11.8921 -0.106976 0)
(11.9435 -0.116531 0)
(11.9402 -0.166992 0)
(11.9805 -0.196599 0)
(11.888 -0.268752 0)
(11.8162 -0.318975 0)
(11.5595 -0.413415 0)
(10.0233 -0.444672 0)
(10.5425 -0.529111 0)
(11.0916 -0.282272 0)
(11.177 -0.164363 0)
(11.3816 -0.16627 0)
(11.3824 -0.163012 0)
(11.567 -0.144738 0)
(11.5534 -0.125762 0)
(11.7473 -0.124044 0)
(11.7262 -0.104112 0)
(11.8595 -0.0850698 0)
(11.8139 -0.111297 0)
(11.9223 -0.0938565 0)
(11.854 -0.108156 0)
(11.936 -0.119549 0)
(11.8367 -0.171507 0)
(11.8686 -0.180148 0)
(11.6747 -0.277879 0)
(11.5666 -0.281407 0)
(11.2113 -0.399023 0)
(10.0125 -0.516174 0)
(10.6336 -0.575388 0)
(11.1453 -0.291031 0)
(11.2391 -0.185652 0)
(11.452 -0.188787 0)
(11.4703 -0.180293 0)
(11.6432 -0.157203 0)
(11.608 -0.137052 0)
(11.7655 -0.134705 0)
(11.6732 -0.108882 0)
(11.7804 -0.0917546 0)
(11.6657 -0.110482 0)
(11.7325 -0.0974423 0)
(11.5907 -0.102601 0)
(11.6333 -0.12177 0)
(11.4326 -0.152679 0)
(11.4165 -0.181636 0)
(11.1252 -0.235285 0)
(10.9687 -0.274623 0)
(10.5469 -0.338179 0)
(10.0026 -0.59868 0)
(10.7263 -0.609441 0)
(11.2232 -0.305594 0)
(11.3474 -0.214285 0)
(11.5179 -0.212819 0)
(11.4959 -0.19423 0)
(11.5745 -0.163675 0)
(11.4625 -0.141651 0)
(11.4971 -0.133506 0)
(11.3115 -0.105626 0)
(11.3399 -0.0877733 0)
(11.1384 -0.101698 0)
(11.1354 -0.0878131 0)
(10.9332 -0.0934149 0)
(10.9207 -0.106362 0)
(10.6542 -0.137161 0)
(10.5962 -0.155604 0)
(10.2445 -0.207464 0)
(10.0605 -0.238398 0)
(9.5957 -0.272286 0)
(10.0114 -0.689431 0)
(10.847 -0.640137 0)
(11.3037 -0.334658 0)
(11.3566 -0.247327 0)
(11.3522 -0.226635 0)
(11.1728 -0.191631 0)
(11.0734 -0.153784 0)
(10.8354 -0.128426 0)
(10.7305 -0.11592 0)
(10.471 -0.0889385 0)
(10.4295 -0.0730902 0)
(10.1789 -0.0826469 0)
(10.1313 -0.0719724 0)
(9.90489 -0.0765741 0)
(9.85536 -0.0874796 0)
(9.56611 -0.113285 0)
(9.47737 -0.128636 0)
(9.10367 -0.174001 0)
(8.90178 -0.189156 0)
(8.39824 -0.235899 0)
(10.09 -0.8048 0)
(10.911 -0.67205 0)
(11.1294 -0.357495 0)
(10.8918 -0.253034 0)
(10.5961 -0.205075 0)
(10.2254 -0.159708 0)
(9.9745 -0.121902 0)
(9.6625 -0.0987262 0)
(9.47889 -0.0867678 0)
(9.20481 -0.0656305 0)
(9.12966 -0.0533751 0)
(8.87564 -0.0608752 0)
(8.8089 -0.0538958 0)
(8.58698 -0.0579302 0)
(8.5162 -0.0667017 0)
(8.23316 -0.0871407 0)
(8.12344 -0.101936 0)
(7.75476 -0.131469 0)
(7.53515 -0.156182 0)
(7.04979 -0.1655 0)
(10.1696 -0.947308 0)
(10.5609 -0.669728 0)
(10.2586 -0.330878 0)
(9.64381 -0.207957 0)
(9.12979 -0.148953 0)
(8.6755 -0.109385 0)
(8.37399 -0.0810772 0)
(8.06412 -0.0648187 0)
(7.86471 -0.0564306 0)
(7.61908 -0.0426496 0)
(7.53605 -0.0340296 0)
(7.31079 -0.0401063 0)
(7.24084 -0.0363313 0)
(7.04217 -0.0396896 0)
(6.963 -0.0458306 0)
(6.7065 -0.0619724 0)
(6.58478 -0.0726553 0)
(6.23853 -0.0947346 0)
(6.01961 -0.111568 0)
(5.54335 -0.115853 0)
(9.86192 -1.02177 0)
(9.34034 -0.577902 0)
(8.47442 -0.241735 0)
(7.64305 -0.128766 0)
(7.09796 -0.0825588 0)
(6.68411 -0.0592971 0)
(6.41387 -0.0435233 0)
(6.15729 -0.0345755 0)
(5.98606 -0.0302487 0)
(5.79205 -0.0230707 0)
(5.7203 -0.0175975 0)
(5.54391 -0.0223393 0)
(5.4805 -0.020888 0)
(5.31814 -0.0232195 0)
(5.2423 -0.0269737 0)
(5.02698 -0.038318 0)
(4.90236 -0.0451276 0)
(4.59758 -0.0592906 0)
(4.39013 -0.0698122 0)
(3.94217 -0.0802372 0)
(8.60136 -0.871818 0)
(6.94777 -0.383733 0)
(5.81012 -0.122048 0)
(5.05728 -0.0502061 0)
(4.65574 -0.0285468 0)
(4.37029 -0.0214894 0)
(4.18266 -0.0157658 0)
(4.0109 -0.0123468 0)
(3.89416 -0.0110985 0)
(3.76637 -0.00869652 0)
(3.71735 -0.00592783 0)
(3.60223 -0.00904388 0)
(3.55222 -0.00889077 0)
(3.43779 -0.0100802 0)
(3.37556 -0.0118176 0)
(3.21645 -0.0182134 0)
(3.10305 -0.0214825 0)
(2.8655 -0.028887 0)
(2.68163 -0.0339953 0)
(2.31679 -0.0438469 0)
(5.32853 -0.309383 0)
(2.98554 -0.0606519 0)
(2.19499 0.00147237 0)
(1.84805 0.00373155 0)
(1.70812 0.0012974 0)
(1.60782 -0.000107525 0)
(1.53786 5.25306e-05 0)
(1.47649 0.000194296 0)
(1.43422 -0.000146654 0)
(1.38654 -0.000313009 0)
(1.36844 0.000353433 0)
(1.32693 -0.000666548 0)
(1.30142 -0.000732145 0)
(1.2517 -0.000927565 0)
(1.21855 -0.00101634 0)
(1.14328 -0.00247089 0)
(1.07344 -0.00281434 0)
(0.949981 -0.00434797 0)
(0.834123 -0.00514447 0)
(0.643704 -0.00588345 0)
(3.62865 -1.05481 0)
(5.74671 -2.0288 0)
(5.58145 -2.86482 0)
(6.2283 -3.51797 0)
(5.41052 -3.87609 0)
(5.46509 -4.01961 0)
(4.30202 -3.81913 0)
(3.83626 -3.32041 0)
(2.73721 -2.73869 0)
(1.32571 -2.43609 0)
(1.42403 -0.875447 0)
(2.48281 0.614045 0)
(3.20086 2.65591 0)
(4.23508 4.64487 0)
(4.31398 7.49357 0)
(4.75973 6.48251 0)
(6.09553 5.20483 0)
(5.56264 6.10218 0)
(7.21845 5.53823 0)
(7.61036 4.99259 0)
(7.83515 3.94377 0)
(8.90826 2.37765 0)
(8.47917 1.55133 0)
(9.04432 0.178162 0)
(9.37609 -1.52651 0)
(9.02064 -2.4617 0)
(9.4039 -3.25465 0)
(10.2783 -4.19082 0)
(10.9127 -4.8435 0)
(11.8527 -5.64904 0)
(12.8016 -6.64046 0)
(13.4358 -7.51514 0)
(13.7489 -8.19803 0)
(13.3803 -8.43522 0)
(12.9241 -8.37479 0)
(12.4846 -8.31074 0)
(11.8864 -8.084 0)
(11.5285 -7.82179 0)
(11.3388 -7.68561 0)
(10.954 -7.35426 0)
(10.6962 -7.06566 0)
(10.748 -6.97001 0)
(10.4808 -6.76856 0)
(10.2032 -6.39191 0)
(10.162 -6.26716 0)
(10.2473 -6.38002 0)
(10.1998 -6.33089 0)
(9.81041 -6.02185 0)
(9.29299 -5.62173 0)
(8.87092 -5.31468 0)
(8.81432 -5.23313 0)
(9.10893 -5.28587 0)
(9.46732 -5.34689 0)
(10.1095 -5.0587 0)
(10.2928 -4.34955 0)
(10.532 -3.62164 0)
(10.8089 -2.83246 0)
(11.0261 -1.77355 0)
(11.0038 -0.607595 0)
(11.0173 0.31204 0)
(11.1231 1.383 0)
(10.9909 2.57347 0)
(10.8295 3.35373 0)
(10.6462 4.06796 0)
(10.2911 4.9266 0)
(9.59961 5.20909 0)
(9.10441 5.06547 0)
(8.61094 5.234 0)
(8.21208 5.45244 0)
(7.93688 5.40724 0)
(7.57491 5.15095 0)
(7.19546 4.85853 0)
(6.94541 4.63169 0)
(6.60807 4.1302 0)
(6.44022 3.60296 0)
(6.40455 3.44119 0)
(6.32378 3.18536 0)
(6.24528 3.35353 0)
(6.35116 3.52958 0)
(6.19457 2.97876 0)
(5.94407 2.26426 0)
(6.04035 2.11719 0)
(6.25422 2.42708 0)
(6.38611 2.54059 0)
(6.31955 2.81904 0)
(6.44549 3.41141 0)
(6.43154 3.23898 0)
(6.34074 3.68896 0)
(6.14279 4.93613 0)
(6.7102 5.66449 0)
(6.95532 6.48735 0)
(6.74176 7.79036 0)
(7.04944 8.30067 0)
(7.10567 8.26471 0)
(7.68041 7.64752 0)
(7.94125 6.48768 0)
(8.17588 5.14255 0)
(8.61415 3.60984 0)
(8.83556 1.95764 0)
(9.05025 0.348369 0)
(9.53072 -1.32067 0)
(9.74118 -2.97699 0)
(9.59617 -4.38853 0)
(9.28855 -4.98295 0)
(9.25785 -5.66013 0)
(9.62643 -7.1121 0)
(9.59393 -8.18892 0)
(9.40029 -8.29458 0)
(8.99046 -8.05607 0)
(8.90416 -8.04901 0)
(8.27007 -8.27254 0)
(8.51108 -8.06582 0)
(7.93831 -7.56905 0)
(7.64359 -7.04287 0)
(7.80981 -6.83858 0)
(8.01999 -7.10142 0)
(8.41358 -7.4143 0)
(8.68825 -7.34113 0)
(8.83727 -6.92201 0)
(9.15022 -6.5309 0)
(9.60983 -6.27086 0)
(9.82258 -5.58842 0)
(9.70124 -4.37157 0)
(9.36448 -3.43201 0)
(9.20519 -3.03145 0)
(9.34071 -2.58921 0)
(9.44873 -1.85895 0)
(9.19664 -0.679316 0)
(8.67934 0.69868 0)
(8.13949 1.81902 0)
(7.526 2.94183 0)
(7.0381 4.3887 0)
(6.59884 5.85731 0)
(6.28623 7.07994 0)
(5.95749 7.59588 0)
(5.89539 8.1211 0)
(5.4805 8.86643 0)
(5.27913 8.7075 0)
(5.03142 7.25825 0)
(5.20672 5.49538 0)
(5.27997 4.80682 0)
(5.10786 5.74387 0)
(5.41741 6.61004 0)
(5.11298 7.95728 0)
(5.44013 7.75946 0)
(4.85167 7.95816 0)
(5.20561 7.07624 0)
(4.61382 6.76623 0)
(4.95961 5.98459 0)
(4.91653 5.92454 0)
(5.68394 5.11724 0)
(5.91343 4.67649 0)
(6.20013 4.1241 0)
(6.66521 3.63767 0)
(7.02665 3.11861 0)
(7.39413 2.70551 0)
(7.76595 1.86012 0)
(8.39515 0.826077 0)
(8.92377 0.116537 0)
(9.25724 -0.66519 0)
(9.55675 -1.7883 0)
(9.5006 -2.63417 0)
(9.7623 -2.95133 0)
(9.79734 -3.6365 0)
(9.76667 -4.16356 0)
(9.54845 -4.83633 0)
(9.63984 -5.83702 0)
(9.42417 -6.31061 0)
(8.88842 -7.17697 0)
(9.27909 -7.864 0)
(8.38299 -8.56112 0)
(8.13752 -8.55734 0)
(7.48555 -7.26458 0)
(6.37567 -5.97933 0)
(5.88429 -5.19058 0)
(5.5265 -4.27788 0)
(5.3029 -3.49433 0)
(5.14653 -3.12881 0)
(5.28713 -2.45426 0)
(5.26405 -1.28543 0)
(4.9353 -0.367252 0)
(5.17152 0.241278 0)
(6.38122 1.03503 0)
(7.44362 1.41355 0)
(7.83292 1.26119 0)
(8.17391 1.59884 0)
(8.51055 2.41234 0)
(9.15178 3.45593 0)
(9.43054 4.38296 0)
(9.53245 4.77599 0)
(9.40768 4.95611 0)
(9.19417 4.90209 0)
(9.00171 5.24779 0)
(8.72541 5.80644 0)
(8.21572 6.27255 0)
(7.70926 6.91767 0)
(7.29703 8.19989 0)
(6.96721 10.1593 0)
(6.80411 12.1661 0)
(3.49754 15.5433 0)
(5.15069 -1.34303 0)
(6.709 -2.17885 0)
(6.46044 -2.90303 0)
(7.10107 -3.48442 0)
(6.37277 -3.74995 0)
(6.35503 -3.83701 0)
(5.57467 -3.5313 0)
(4.82737 -3.04399 0)
(4.13822 -2.22408 0)
(2.66313 -1.98846 0)
(1.91982 -1.14292 0)
(2.80913 0.459519 0)
(3.31728 2.32989 0)
(4.5922 4.15793 0)
(4.62392 7.40191 0)
(5.71755 6.32916 0)
(6.69201 5.00475 0)
(6.26252 5.72785 0)
(7.83572 5.2993 0)
(7.91818 4.86634 0)
(8.5526 3.61476 0)
(8.77976 2.27742 0)
(8.47992 1.3948 0)
(8.90657 -0.0183512 0)
(9.17673 -1.57609 0)
(9.56702 -2.61258 0)
(10.5088 -3.57342 0)
(11.3198 -4.44723 0)
(11.8236 -5.08236 0)
(12.7556 -6.00682 0)
(13.5504 -6.96363 0)
(13.9452 -7.65675 0)
(13.9608 -8.14255 0)
(13.4419 -8.26266 0)
(12.9652 -8.19997 0)
(12.4981 -8.12692 0)
(11.9414 -7.8823 0)
(11.6592 -7.70497 0)
(11.4717 -7.58809 0)
(11.053 -7.21912 0)
(10.8248 -6.99069 0)
(10.8758 -6.93815 0)
(10.5308 -6.66515 0)
(10.2677 -6.31454 0)
(10.2667 -6.29173 0)
(10.2488 -6.37146 0)
(9.97982 -6.19245 0)
(9.40419 -5.78636 0)
(8.80251 -5.4131 0)
(8.42666 -5.23162 0)
(8.49142 -5.29536 0)
(8.79905 -5.45195 0)
(9.18722 -5.52143 0)
(9.75671 -5.18506 0)
(9.83392 -4.43258 0)
(10.075 -3.69125 0)
(10.3144 -2.86577 0)
(10.4643 -1.77941 0)
(10.4421 -0.609558 0)
(10.4583 0.310354 0)
(10.5807 1.40112 0)
(10.4265 2.613 0)
(10.3294 3.41646 0)
(10.2329 4.1633 0)
(9.95769 5.08847 0)
(9.3195 5.39336 0)
(8.83957 5.28491 0)
(8.33201 5.4051 0)
(7.94083 5.56567 0)
(7.68536 5.531 0)
(7.36312 5.29456 0)
(7.03703 4.99344 0)
(6.79146 4.73735 0)
(6.48437 4.24102 0)
(6.29862 3.64789 0)
(6.27671 3.45429 0)
(6.21239 3.21541 0)
(6.15712 3.35317 0)
(6.26345 3.54123 0)
(6.18297 3.04806 0)
(5.96717 2.29836 0)
(6.00089 2.05129 0)
(6.26887 2.35058 0)
(6.42386 2.52479 0)
(6.38089 2.79609 0)
(6.52241 3.38758 0)
(6.50562 3.28219 0)
(6.32954 3.72964 0)
(6.23389 4.82826 0)
(6.86707 5.48722 0)
(7.0354 6.45001 0)
(6.89611 7.76617 0)
(7.23624 8.19753 0)
(7.30604 8.14847 0)
(7.91198 7.52792 0)
(8.27441 6.34282 0)
(8.50244 5.0285 0)
(9.00065 3.52554 0)
(9.25115 1.86068 0)
(9.53117 0.205044 0)
(9.95596 -1.43425 0)
(9.99621 -2.97421 0)
(9.79918 -4.30899 0)
(9.46925 -4.92072 0)
(9.622 -5.73934 0)
(9.96816 -7.18844 0)
(9.91154 -8.15919 0)
(9.59133 -8.16781 0)
(9.13004 -7.88336 0)
(8.95423 -7.91282 0)
(8.34811 -8.16401 0)
(8.5652 -7.92827 0)
(7.84998 -7.42787 0)
(7.59007 -6.99656 0)
(7.80264 -6.93163 0)
(7.97418 -7.24951 0)
(8.33737 -7.52279 0)
(8.55491 -7.42109 0)
(8.66248 -7.0523 0)
(8.9969 -6.70713 0)
(9.41262 -6.3772 0)
(9.52458 -5.58308 0)
(9.29025 -4.28452 0)
(8.93382 -3.3464 0)
(8.82952 -3.03128 0)
(8.98075 -2.6354 0)
(9.0974 -1.80941 0)
(8.83283 -0.513405 0)
(8.32809 0.902207 0)
(7.80053 2.06059 0)
(7.2088 3.17725 0)
(6.74277 4.56506 0)
(6.29804 6.00214 0)
(5.99618 7.19443 0)
(5.68589 7.66486 0)
(5.64428 8.22438 0)
(5.23914 8.95886 0)
(5.06977 8.76302 0)
(4.8962 7.2766 0)
(5.09698 5.47472 0)
(5.27584 4.74854 0)
(5.07267 5.78552 0)
(5.52696 6.54092 0)
(5.21388 7.9233 0)
(5.63643 7.82732 0)
(5.03451 8.01814 0)
(5.54354 7.12996 0)
(5.09085 6.79958 0)
(5.38935 6.01671 0)
(5.29886 5.77002 0)
(5.91838 4.97481 0)
(6.36804 4.45433 0)
(6.69893 3.94901 0)
(6.99266 3.47338 0)
(7.51765 2.86125 0)
(7.90444 2.45309 0)
(8.37779 1.67153 0)
(8.82867 0.618577 0)
(9.53013 -0.112969 0)
(9.81876 -0.755628 0)
(10.1366 -1.82921 0)
(10.0654 -2.69772 0)
(10.2561 -2.99992 0)
(10.2806 -3.62056 0)
(10.1354 -4.11195 0)
(10.0297 -4.79419 0)
(10.0233 -5.76975 0)
(9.77703 -6.23792 0)
(9.19781 -7.04199 0)
(9.46927 -7.71167 0)
(8.48041 -8.34742 0)
(8.09929 -8.26523 0)
(7.33259 -6.90064 0)
(6.1725 -5.67329 0)
(5.77065 -4.95773 0)
(5.33124 -4.16534 0)
(5.0473 -3.4251 0)
(4.77485 -3.04985 0)
(4.79268 -2.41051 0)
(4.76441 -1.22224 0)
(4.61641 -0.374717 0)
(4.92775 -0.0565273 0)
(6.05639 0.49627 0)
(7.27663 1.05905 0)
(7.95388 1.0653 0)
(8.32571 1.45359 0)
(8.62883 2.25056 0)
(9.02982 3.2772 0)
(9.49718 4.30957 0)
(9.59158 4.70573 0)
(9.53048 5.03767 0)
(9.46467 5.03187 0)
(9.15834 5.28486 0)
(9.10078 5.9466 0)
(8.71031 6.54517 0)
(8.02487 7.18388 0)
(7.63806 8.36409 0)
(7.55325 10.2508 0)
(8.3596 11.9943 0)
(5.10174 16.5134 0)
(6.63281 -1.55862 0)
(7.75914 -2.41387 0)
(7.51926 -3.01375 0)
(7.84375 -3.4829 0)
(7.38104 -3.65379 0)
(7.03818 -3.67668 0)
(6.6157 -3.24577 0)
(5.82898 -2.79574 0)
(5.32971 -1.87075 0)
(4.09221 -1.43955 0)
(2.8652 -1.02707 0)
(2.90413 0.257127 0)
(3.74593 1.95842 0)
(4.98755 3.70589 0)
(4.68201 7.11628 0)
(6.65123 6.15181 0)
(6.96945 4.77213 0)
(6.86647 5.21949 0)
(8.08112 4.97466 0)
(8.02234 4.49533 0)
(8.53146 3.35994 0)
(8.37488 2.27898 0)
(8.66303 1.2287 0)
(8.98135 -0.0985546 0)
(9.73942 -1.63272 0)
(10.7365 -2.89828 0)
(11.6183 -3.90093 0)
(12.0565 -4.65166 0)
(12.5311 -5.35476 0)
(13.5494 -6.36489 0)
(14.186 -7.19957 0)
(14.2824 -7.70972 0)
(14.0486 -8.00818 0)
(13.4156 -8.02852 0)
(12.9786 -7.99679 0)
(12.5402 -7.92971 0)
(11.998 -7.7052 0)
(11.7831 -7.59671 0)
(11.5623 -7.48156 0)
(11.1188 -7.10306 0)
(10.9606 -6.93066 0)
(10.9961 -6.87607 0)
(10.5892 -6.5514 0)
(10.3659 -6.24529 0)
(10.3468 -6.27514 0)
(10.1565 -6.28117 0)
(9.66271 -5.96653 0)
(8.92799 -5.51856 0)
(8.30296 -5.22484 0)
(8.01966 -5.20053 0)
(8.16126 -5.38774 0)
(8.44954 -5.61435 0)
(8.84195 -5.6763 0)
(9.30529 -5.28164 0)
(9.31521 -4.52708 0)
(9.55795 -3.77388 0)
(9.75925 -2.9158 0)
(9.85997 -1.78872 0)
(9.86496 -0.631042 0)
(9.91152 0.300787 0)
(10.0288 1.42829 0)
(9.851 2.64215 0)
(9.76354 3.46351 0)
(9.71128 4.26013 0)
(9.52018 5.25175 0)
(8.95879 5.58975 0)
(8.5509 5.52238 0)
(8.03375 5.59607 0)
(7.64751 5.70684 0)
(7.43695 5.64631 0)
(7.11492 5.41518 0)
(6.80882 5.12167 0)
(6.60199 4.83437 0)
(6.3785 4.3637 0)
(6.18302 3.71265 0)
(6.19118 3.47309 0)
(6.15454 3.24843 0)
(6.08806 3.3288 0)
(6.18412 3.52686 0)
(6.1799 3.10683 0)
(6.00236 2.32944 0)
(5.9733 1.98003 0)
(6.26667 2.25353 0)
(6.46341 2.49511 0)
(6.44902 2.76665 0)
(6.59186 3.34651 0)
(6.59907 3.33643 0)
(6.33472 3.77405 0)
(6.32497 4.70817 0)
(6.93455 5.34196 0)
(7.06156 6.43025 0)
(7.01863 7.72683 0)
(7.38275 8.08508 0)
(7.50968 8.00359 0)
(8.10559 7.38881 0)
(8.5802 6.1809 0)
(8.80897 4.88813 0)
(9.34118 3.41627 0)
(9.65836 1.74513 0)
(9.99926 0.0627162 0)
(10.2845 -1.50701 0)
(10.1857 -2.9244 0)
(9.98114 -4.23422 0)
(9.72007 -4.90941 0)
(10.024 -5.83421 0)
(10.3262 -7.24976 0)
(10.2099 -8.08774 0)
(9.7653 -8.0154 0)
(9.25778 -7.72658 0)
(8.98601 -7.80963 0)
(8.40978 -8.07879 0)
(8.55683 -7.78964 0)
(7.71943 -7.28425 0)
(7.529 -6.96134 0)
(7.75369 -7.01604 0)
(7.87409 -7.37653 0)
(8.22303 -7.6092 0)
(8.39403 -7.47617 0)
(8.46831 -7.16415 0)
(8.81268 -6.84542 0)
(9.16545 -6.42936 0)
(9.16609 -5.51055 0)
(8.83634 -4.17078 0)
(8.50434 -3.26427 0)
(8.44505 -3.02644 0)
(8.60463 -2.67529 0)
(8.70055 -1.75246 0)
(8.42445 -0.342297 0)
(7.93794 1.09525 0)
(7.42391 2.2705 0)
(6.8525 3.4198 0)
(6.40948 4.79917 0)
(5.96935 6.17261 0)
(5.67684 7.28897 0)
(5.40613 7.73154 0)
(5.37646 8.32222 0)
(5.00317 9.05332 0)
(4.81495 8.80106 0)
(4.78104 7.24751 0)
(4.97125 5.45271 0)
(5.28109 4.67133 0)
(5.06117 5.78759 0)
(5.60235 6.49076 0)
(5.33284 7.86427 0)
(5.82412 7.86682 0)
(5.2466 8.04046 0)
(5.78435 7.14041 0)
(5.4829 6.72945 0)
(5.86429 5.99506 0)
(5.89409 5.63436 0)
(6.27239 4.85389 0)
(6.69583 4.24355 0)
(7.12407 3.74326 0)
(7.25251 3.35402 0)
(7.8799 2.68723 0)
(8.28319 2.21013 0)
(8.9093 1.49843 0)
(9.27948 0.425525 0)
(10.1134 -0.388006 0)
(10.3884 -0.903385 0)
(10.7163 -1.85289 0)