/*--------------------------------*- C++ -*----------------------------------*\
| =========                 |                                                 |
| \\      /  F ield         | OpenFOAM: The Open Source CFD Toolbox           |
|  \\    /   O peration     | Version:  2.4.0                                 |
|   \\  /    A nd           | Web:      www.OpenFOAM.org                      |
|    \\/     M anipulation  |                                                 |
\*---------------------------------------------------------------------------*/
FoamFile
{
    version     2.0;
    format      ascii;
    class       volScalarField;
    location    "0.144";
    object      pPrime2Mean;
}
// * * * * * * * * * * * * * * * * * * * * * * * * * * * * * * * * * * * * * //

dimensions      [0 4 -4 0 0 0 0];

internalField   nonuniform List<scalar> 
4400
(
4.42395e+06
4.19638e+06
3.95928e+06
3.72839e+06
3.50439e+06
3.28725e+06
3.07683e+06
2.87262e+06
2.67297e+06
2.47013e+06
4.42405e+06
4.19637e+06
3.95928e+06
3.72839e+06
3.50439e+06
3.28725e+06
3.07684e+06
2.87266e+06
2.67311e+06
2.47089e+06
4.42411e+06
4.19636e+06
3.95928e+06
3.72839e+06
3.50439e+06
3.28726e+06
3.07686e+06
2.87275e+06
2.6734e+06
2.47258e+06
4.42414e+06
4.19634e+06
3.95927e+06
3.72839e+06
3.50439e+06
3.28727e+06
3.0769e+06
2.87287e+06
2.67382e+06
2.47478e+06
4.42417e+06
4.19632e+06
3.95926e+06
3.72839e+06
3.50439e+06
3.28728e+06
3.07694e+06
2.87302e+06
2.67435e+06
2.47726e+06
4.4242e+06
4.1963e+06
3.95925e+06
3.72839e+06
3.5044e+06
3.2873e+06
3.077e+06
2.8732e+06
2.67497e+06
2.47986e+06
4.42422e+06
4.19629e+06
3.95925e+06
3.72839e+06
3.5044e+06
3.28732e+06
3.07706e+06
2.8734e+06
2.67566e+06
2.48247e+06
4.42423e+06
4.19628e+06
3.95924e+06
3.72839e+06
3.50441e+06
3.28734e+06
3.07713e+06
2.87362e+06
2.67638e+06
2.48501e+06
4.42424e+06
4.19628e+06
3.95924e+06
3.72839e+06
3.50441e+06
3.28736e+06
3.0772e+06
2.87385e+06
2.67713e+06
2.48745e+06
4.42425e+06
4.19627e+06
3.95924e+06
3.72839e+06
3.50442e+06
3.28738e+06
3.07727e+06
2.87408e+06
2.67787e+06
2.48974e+06
4.42425e+06
4.19627e+06
3.95924e+06
3.7284e+06
3.50443e+06
3.28741e+06
3.07735e+06
2.87432e+06
2.67859e+06
2.49186e+06
4.42425e+06
4.19628e+06
3.95924e+06
3.7284e+06
3.50444e+06
3.28743e+06
3.07742e+06
2.87454e+06
2.67928e+06
2.4938e+06
4.42423e+06
4.19628e+06
3.95924e+06
3.7284e+06
3.50445e+06
3.28745e+06
3.07749e+06
2.87476e+06
2.67992e+06
2.49553e+06
4.42422e+06
4.19629e+06
3.95925e+06
3.7284e+06
3.50445e+06
3.28748e+06
3.07756e+06
2.87496e+06
2.68051e+06
2.49706e+06
4.4242e+06
4.1963e+06
3.95926e+06
3.72841e+06
3.50446e+06
3.2875e+06
3.07762e+06
2.87514e+06
2.68103e+06
2.49838e+06
4.42417e+06
4.19632e+06
3.95927e+06
3.72841e+06
3.50447e+06
3.28752e+06
3.07767e+06
2.87529e+06
2.68147e+06
2.49948e+06
4.42414e+06
4.19634e+06
3.95928e+06
3.72841e+06
3.50448e+06
3.28753e+06
3.07772e+06
2.87542e+06
2.68183e+06
2.50037e+06
4.42411e+06
4.19636e+06
3.95929e+06
3.72842e+06
3.50448e+06
3.28755e+06
3.07775e+06
2.87552e+06
2.6821e+06
2.50103e+06
4.42405e+06
4.19637e+06
3.95929e+06
3.72842e+06
3.50449e+06
3.28755e+06
3.07777e+06
2.87558e+06
2.68229e+06
2.50147e+06
4.42395e+06
4.19638e+06
3.95929e+06
3.72842e+06
3.50449e+06
3.28756e+06
3.07778e+06
2.87562e+06
2.68238e+06
2.50169e+06
2.29647e+06
2.25624e+06
2.22408e+06
2.19458e+06
2.16641e+06
2.1391e+06
2.1124e+06
2.08614e+06
2.06024e+06
2.03461e+06
2.00922e+06
1.98405e+06
1.95909e+06
1.93431e+06
1.9097e+06
1.88527e+06
1.86101e+06
1.8369e+06
1.81295e+06
1.78915e+06
1.76551e+06
1.74202e+06
1.71868e+06
1.6955e+06
1.67249e+06
1.64965e+06
1.62697e+06
1.60446e+06
1.58212e+06
1.55994e+06
1.53794e+06
1.51609e+06
1.4944e+06
1.47287e+06
1.4515e+06
1.43029e+06
1.40924e+06
1.38835e+06
1.36763e+06
1.34707e+06
1.32666e+06
1.3064e+06
1.28628e+06
1.26631e+06
1.24647e+06
1.22679e+06
1.20726e+06
1.18789e+06
1.16868e+06
1.14964e+06
1.13075e+06
1.11201e+06
1.09344e+06
1.07501e+06
1.05674e+06
1.03861e+06
1.02064e+06
1.00281e+06
985139
967623
950258
933057
916017
899146
882440
865908
849532
833327
817270
801379
785629
770039
754587
739297
724147
709161
694319
679643
665112
650752
636537
622490
608586
594848
581246
567811
554503
541356
528327
515454
502687
490058
477508
465058
452626
440209
427650
414862
401356
386056
2.31506e+06
2.26969e+06
2.23385e+06
2.20204e+06
2.17229e+06
2.1438e+06
2.11618e+06
2.0892e+06
2.06272e+06
2.03662e+06
2.01086e+06
1.98538e+06
1.96016e+06
1.93517e+06
1.91039e+06
1.88581e+06
1.86144e+06
1.83724e+06
1.81321e+06
1.78935e+06
1.76566e+06
1.74214e+06
1.71877e+06
1.69558e+06
1.67256e+06
1.64971e+06
1.62703e+06
1.60451e+06
1.58217e+06
1.55999e+06
1.53798e+06
1.51613e+06
1.49444e+06
1.47291e+06
1.45154e+06
1.43033e+06
1.40928e+06
1.3884e+06
1.36767e+06
1.34713e+06
1.32672e+06
1.30646e+06
1.28634e+06
1.26636e+06
1.24651e+06
1.22682e+06
1.20728e+06
1.18791e+06
1.16869e+06
1.14965e+06
1.13075e+06
1.11202e+06
1.09344e+06
1.07501e+06
1.05673e+06
1.03861e+06
1.02062e+06
1.0028e+06
985125
967610
950242
933041
915998
899125
882418
865883
849507
833299
817241
801347
785594
770001
754547
739254
724100
709108
694252
679565
665012
650631
636384
622304
608356
594570
580907
567404
554011
540767
527618
514607
501670
488841
476044
463298
450491
437608
424425
410781
395968
378265
2.32921e+06
2.2815e+06
2.24301e+06
2.20922e+06
2.17799e+06
2.14839e+06
2.11989e+06
2.09221e+06
2.06516e+06
2.03861e+06
2.01247e+06
1.98668e+06
1.96122e+06
1.93602e+06
1.91107e+06
1.88635e+06
1.86186e+06
1.83757e+06
1.81347e+06
1.78955e+06
1.76582e+06
1.74225e+06
1.71887e+06
1.69566e+06
1.67263e+06
1.64977e+06
1.62709e+06
1.60457e+06
1.58222e+06
1.56004e+06
1.53803e+06
1.51617e+06
1.49448e+06
1.47295e+06
1.45158e+06
1.43037e+06
1.40932e+06
1.38843e+06
1.36771e+06
1.34717e+06
1.32677e+06
1.30651e+06
1.28638e+06
1.26639e+06
1.24653e+06
1.22683e+06
1.20729e+06
1.18791e+06
1.16869e+06
1.14964e+06
1.13074e+06
1.11201e+06
1.09342e+06
1.075e+06
1.05671e+06
1.03859e+06
1.0206e+06
1.00278e+06
985103
967590
950221
933020
915976
899101
882393
865857
849481
833271
817211
801314
785558
769964
754507
739211
724050
709053
694183
679486
664910
650511
636231
622119
608128
594294
580571
567000
553524
540184
526919
513771
500669
487644
474608
461579
448418
435099
421352
406973
391184
372393
2.34045e+06
2.29181e+06
2.25146e+06
2.21601e+06
2.18347e+06
2.15282e+06
2.12349e+06
2.09514e+06
2.06755e+06
2.04055e+06
2.01404e+06
1.98796e+06
1.96224e+06
1.93684e+06
1.91173e+06
1.88687e+06
1.86227e+06
1.83789e+06
1.81372e+06
1.78974e+06
1.76596e+06
1.74237e+06
1.71897e+06
1.69574e+06
1.6727e+06
1.64984e+06
1.62715e+06
1.60464e+06
1.58229e+06
1.5601e+06
1.53808e+06
1.51622e+06
1.49453e+06
1.47299e+06
1.45162e+06
1.4304e+06
1.40935e+06
1.38846e+06
1.36775e+06
1.34721e+06
1.3268e+06
1.30655e+06
1.28642e+06
1.26642e+06
1.24655e+06
1.22683e+06
1.20728e+06
1.1879e+06
1.16868e+06
1.14962e+06
1.13072e+06
1.11199e+06
1.0934e+06
1.07497e+06
1.05669e+06
1.03856e+06
1.02057e+06
1.00275e+06
985072
967564
950194
932995
915949
899075
882366
865829
849453
833241
817179
801281
785522
769925
754464
739167
723997
708997
694111
679407
664807
650392
636077
621937
607901
594020
580239
566602
553045
539611
526232
512953
499689
486478
473211
459912
446420
432701
418464
403476
387021
367850
2.34962e+06
2.30075e+06
2.25915e+06
2.22236e+06
2.18867e+06
2.15707e+06
2.12697e+06
2.09798e+06
2.06985e+06
2.04242e+06
2.01557e+06
1.98919e+06
1.96324e+06
1.93764e+06
1.91237e+06
1.88738e+06
1.86267e+06
1.8382e+06
1.81396e+06
1.78994e+06
1.76612e+06
1.74249e+06
1.71907e+06
1.69583e+06
1.67278e+06
1.64992e+06
1.62723e+06
1.60471e+06
1.58236e+06
1.56017e+06
1.53814e+06
1.51628e+06
1.49457e+06
1.47303e+06
1.45165e+06
1.43043e+06
1.40937e+06
1.38848e+06
1.36777e+06
1.34724e+06
1.32684e+06
1.30658e+06
1.28644e+06
1.26643e+06
1.24654e+06
1.22682e+06
1.20726e+06
1.18788e+06
1.16865e+06
1.14959e+06
1.13069e+06
1.11196e+06
1.09337e+06
1.07494e+06
1.05665e+06
1.03852e+06
1.02054e+06
1.00272e+06
985036
967533
950160
932966
915918
899046
882337
865801
849423
833212
817147
801247
785484
769888
754419
739123
723942
708940
694037
679327
664700
650275
635922
621760
607676
593752
579914
566212
552577
539052
525565
512160
498740
485351
471864
458312
444512
430431
415775
400300
383427
364212
2.35727e+06
2.30853e+06
2.26609e+06
2.22824e+06
2.19357e+06
2.16111e+06
2.13028e+06
2.10069e+06
2.07207e+06
2.04424e+06
2.01704e+06
1.99039e+06
1.9642e+06
1.93842e+06
1.91299e+06
1.88788e+06
1.86306e+06
1.83851e+06
1.8142e+06
1.79013e+06
1.76627e+06
1.74262e+06
1.71918e+06
1.69593e+06
1.67287e+06
1.65e+06
1.62731e+06
1.60479e+06
1.58243e+06
1.56024e+06
1.5382e+06
1.51633e+06
1.49462e+06
1.47306e+06
1.45167e+06
1.43044e+06
1.40938e+06
1.38849e+06
1.36779e+06
1.34726e+06
1.32686e+06
1.30661e+06
1.28645e+06
1.26643e+06
1.24653e+06
1.22679e+06
1.20723e+06
1.18784e+06
1.16861e+06
1.14955e+06
1.13064e+06
1.11191e+06
1.09332e+06
1.07489e+06
1.0566e+06
1.03848e+06
1.02049e+06
1.00268e+06
984993
967499
950122
932935
915883
899016
882305
865772
849392
833183
817114
801216
785447
769851
754374
739079
723886
708883
693961
679246
664592
650159
635767
621588
607454
593493
579596
565834
552122
538510
524919
511392
497826
484268
470576
456792
442710
428311
413297
397443
380307
361202
2.36375e+06
2.31529e+06
2.27233e+06
2.23365e+06
2.19813e+06
2.16492e+06
2.13343e+06
2.10328e+06
2.0742e+06
2.04597e+06
2.01846e+06
1.99154e+06
1.96513e+06
1.93917e+06
1.91359e+06
1.88836e+06
1.86344e+06
1.83881e+06
1.81445e+06
1.79032e+06
1.76643e+06
1.74275e+06
1.71929e+06
1.69603e+06
1.67297e+06
1.65009e+06
1.62739e+06
1.60487e+06
1.5825e+06
1.5603e+06
1.53826e+06
1.51637e+06
1.49465e+06
1.47309e+06
1.45169e+06
1.43045e+06
1.40938e+06
1.38849e+06
1.3678e+06
1.34726e+06
1.32687e+06
1.30661e+06
1.28644e+06
1.26642e+06
1.2465e+06
1.22676e+06
1.20718e+06
1.1878e+06
1.16855e+06
1.14949e+06
1.13058e+06
1.11185e+06
1.09326e+06
1.07484e+06
1.05655e+06
1.03843e+06
1.02044e+06
1.00263e+06
984947
967461
950080
932903
915845
898986
882270
865743
849360
833154
817081
801185
785409
769816
754329
739036
723830
708825
693886
679165
664485
650042
635614
621421
607236
593244
579288
565471
551684
537989
524298
510654
496952
483232
469353
455353
441023
426345
411035
394897
377591
358667
2.36929e+06
2.32119e+06
2.2779e+06
2.23859e+06
2.20236e+06
2.16847e+06
2.13639e+06
2.10574e+06
2.07622e+06
2.04763e+06
2.01981e+06
1.99265e+06
1.96603e+06
1.9399e+06
1.91418e+06
1.88883e+06
1.86382e+06
1.83911e+06
1.81469e+06
1.79052e+06
1.76659e+06
1.74289e+06
1.71941e+06
1.69613e+06
1.67306e+06
1.65018e+06
1.62747e+06
1.60494e+06
1.58257e+06
1.56036e+06
1.5383e+06
1.51641e+06
1.49467e+06
1.4731e+06
1.45169e+06
1.43045e+06
1.40938e+06
1.38849e+06
1.3678e+06
1.34726e+06
1.32687e+06
1.3066e+06
1.28643e+06
1.2664e+06
1.24646e+06
1.22671e+06
1.20713e+06
1.18774e+06
1.16849e+06
1.14943e+06
1.13051e+06
1.11179e+06
1.09319e+06
1.07478e+06
1.05649e+06
1.03837e+06
1.02039e+06
1.00258e+06
984897
967422
950035
932870
915804
898954
882234
865713
849325
833124
817045
801153
785370
769780
754284
738992
723775
708765
693812
679083
664381
649925
635467
621254
607026
593004
578993
565126
551266
537493
523709
509952
496123
482250
468201
453998
439453
424523
408977
392623
375223
356507
2.37408e+06
2.32633e+06
2.28285e+06
2.24305e+06
2.20624e+06
2.17177e+06
2.13916e+06
2.10804e+06
2.07812e+06
2.0492e+06
2.0211e+06
1.9937e+06
1.96689e+06
1.94059e+06
1.91474e+06
1.88929e+06
1.86419e+06
1.83941e+06
1.81493e+06
1.79071e+06
1.76675e+06
1.74303e+06
1.71953e+06
1.69624e+06
1.67315e+06
1.65026e+06
1.62754e+06
1.605e+06
1.58262e+06
1.5604e+06
1.53834e+06
1.51643e+06
1.49469e+06
1.4731e+06
1.45169e+06
1.43044e+06
1.40936e+06
1.38847e+06
1.36779e+06
1.34724e+06
1.32686e+06
1.30658e+06
1.2864e+06
1.26636e+06
1.24641e+06
1.22666e+06
1.20707e+06
1.18767e+06
1.16841e+06
1.14935e+06
1.13043e+06
1.11171e+06
1.09312e+06
1.07471e+06
1.05642e+06
1.03831e+06
1.02033e+06
1.00253e+06
984844
967380
949987
932837
915761
898923
882197
865682
849290
833092
817009
801119
785331
769742
754239
738946
723719
708705
693740
679001
664282
649808
635328
621086
606828
592770
578715
564798
550871
537025
523152
509292
495345
481329
467127
452737
438004
422845
407109
390588
373157
354642
2.37825e+06
2.33083e+06
2.28724e+06
2.24706e+06
2.20976e+06
2.17479e+06
2.14172e+06
2.11018e+06
2.0799e+06
2.05067e+06
2.02231e+06
1.99469e+06
1.9677e+06
1.94125e+06
1.91528e+06
1.88972e+06
1.86454e+06
1.8397e+06
1.81516e+06
1.79091e+06
1.76691e+06
1.74316e+06
1.71964e+06
1.69633e+06
1.67324e+06
1.65033e+06
1.6276e+06
1.60505e+06
1.58266e+06
1.56043e+06
1.53836e+06
1.51644e+06
1.49469e+06
1.4731e+06
1.45167e+06
1.43042e+06
1.40934e+06
1.38845e+06
1.36777e+06
1.34722e+06
1.32683e+06
1.30654e+06
1.28636e+06
1.26631e+06
1.24636e+06
1.2266e+06
1.20701e+06
1.18761e+06
1.16834e+06
1.14927e+06
1.13036e+06
1.11163e+06
1.09304e+06
1.07463e+06
1.05635e+06
1.03824e+06
1.02027e+06
1.00247e+06
984790
967333
949939
932802
915718
898891
882159
865651
849254
833059
816971
801083
785290
769701
754194
738895
723664
708641
693669
678916
664187
649691
635194
620920
606641
592545
578457
564490
550500
536583
522632
508675
494621
480471
466134
451574
436670
421317
405422
388778
371354
353016
2.38187e+06
2.33475e+06
2.2911e+06
2.25064e+06
2.21294e+06
2.17754e+06
2.14405e+06
2.11214e+06
2.08154e+06
2.05202e+06
2.02343e+06
1.99561e+06
1.96845e+06
1.94186e+06
1.91578e+06
1.89013e+06
1.86487e+06
1.83997e+06
1.81538e+06
1.79109e+06
1.76707e+06
1.74329e+06
1.71974e+06
1.69642e+06
1.67331e+06
1.65039e+06
1.62765e+06
1.60509e+06
1.58269e+06
1.56045e+06
1.53837e+06
1.51644e+06
1.49468e+06
1.47308e+06
1.45165e+06
1.4304e+06
1.40932e+06
1.38842e+06
1.36773e+06
1.34718e+06
1.32678e+06
1.30648e+06
1.28631e+06
1.26625e+06
1.2463e+06
1.22654e+06
1.20695e+06
1.18753e+06
1.16827e+06
1.14919e+06
1.13028e+06
1.11155e+06
1.09296e+06
1.07455e+06
1.05628e+06
1.03817e+06
1.0202e+06
1.00241e+06
984734
967282
949892
932763
915676
898858
882122
865617
849217
833023
816932
801044
785249
769655
754148
738840
723609
708571
693599
678826
664094
649571
635066
620758
606465
592329
578217
564201
550154
536170
522148
508100
493952
479678
465221
450511
435451
419936
403912
387183
369780
351596
2.38501e+06
2.33815e+06
2.29447e+06
2.25379e+06
2.21577e+06
2.18001e+06
2.14616e+06
2.11392e+06
2.08303e+06
2.05327e+06
2.02445e+06
1.99645e+06
1.96914e+06
1.94243e+06
1.91624e+06
1.89051e+06
1.86518e+06
1.84022e+06
1.81559e+06
1.79126e+06
1.76721e+06
1.7434e+06
1.71983e+06
1.6965e+06
1.67337e+06
1.65043e+06
1.62768e+06
1.60511e+06
1.5827e+06
1.56045e+06
1.53836e+06
1.51642e+06
1.49465e+06
1.47305e+06
1.45162e+06
1.43037e+06
1.40929e+06
1.38839e+06
1.36768e+06
1.34712e+06
1.32673e+06
1.30642e+06
1.28625e+06
1.26618e+06
1.24624e+06
1.22647e+06
1.20689e+06
1.18746e+06
1.16819e+06
1.14911e+06
1.1302e+06
1.11147e+06
1.09289e+06
1.07448e+06
1.0562e+06
1.03811e+06
1.02014e+06
1.00234e+06
984680
967224
949845
932716
915636
898819
882086
865581
849181
832984
816893
800999
785206
769603
754100
738777
723552
708495
693529
678730
664002
649448
634940
620601
606296
592126
577995
563931
549832
535786
521701
507571
493338
478951
464385
449540
434349
418700
402574
385792
368412
350365
2.38772e+06
2.34108e+06
2.2974e+06
2.25655e+06
2.21825e+06
2.18219e+06
2.14805e+06
2.11552e+06
2.08437e+06
2.05438e+06
2.02538e+06
1.99721e+06
1.96977e+06
1.94294e+06
1.91666e+06
1.89085e+06
1.86547e+06
1.84046e+06
1.81578e+06
1.79142e+06
1.76733e+06
1.7435e+06
1.71991e+06
1.69656e+06
1.67342e+06
1.65046e+06
1.6277e+06
1.60511e+06
1.58269e+06
1.56043e+06
1.53833e+06
1.51639e+06
1.49462e+06
1.47301e+06
1.45159e+06
1.43033e+06
1.40925e+06
1.38834e+06
1.36763e+06
1.34706e+06
1.32666e+06
1.30634e+06
1.28618e+06
1.2661e+06
1.24617e+06
1.2264e+06
1.20682e+06
1.18739e+06
1.16812e+06
1.14904e+06
1.13014e+06
1.11139e+06
1.09282e+06
1.0744e+06
1.05614e+06
1.03803e+06
1.02007e+06
1.00228e+06
984625
967158
949798
932660
915597
898774
882051
865541
849144
832940
816852
800949
785161
769544
754049
738707
723493
708413
693459
678631
663911
649327
634819
620451
606139
591933
577791
563679
549535
535431
521293
507086
492779
478292
463631
448663
433367
417608
401404
384590
367235
349309
2.39004e+06
2.34358e+06
2.2999e+06
2.25892e+06
2.22041e+06
2.1841e+06
2.14969e+06
2.11693e+06
2.08555e+06
2.05537e+06
2.0262e+06
1.99789e+06
1.97033e+06
1.9434e+06
1.91704e+06
1.89116e+06
1.86572e+06
1.84066e+06
1.81595e+06
1.79155e+06
1.76744e+06
1.74358e+06
1.71997e+06
1.6966e+06
1.67345e+06
1.65048e+06
1.6277e+06
1.6051e+06
1.58267e+06
1.5604e+06
1.5383e+06
1.51635e+06
1.49458e+06
1.47297e+06
1.45155e+06
1.43029e+06
1.40921e+06
1.38829e+06
1.36756e+06
1.34699e+06
1.32658e+06
1.30626e+06
1.2861e+06
1.26602e+06
1.2461e+06
1.22632e+06
1.20676e+06
1.18731e+06
1.16806e+06
1.14897e+06
1.13007e+06
1.11132e+06
1.09276e+06
1.07433e+06
1.05607e+06
1.03797e+06
1.02001e+06
1.00221e+06
984569
967088
949752
932595
915560
898723
882019
865497
849108
832893
816811
800895
785115
769484
753997
738637
723434
708331
693390
678535
663826
649212
634710
620311
605998
591753
577597
563437
549271
535109
520929
506648
492282
477708
462962
447888
432506
416663
400397
383564
366235
348409
2.39199e+06
2.34568e+06
2.30201e+06
2.26092e+06
2.22224e+06
2.18573e+06
2.15111e+06
2.11814e+06
2.08658e+06
2.05623e+06
2.02691e+06
1.99848e+06
1.97081e+06
1.9438e+06
1.91737e+06
1.89144e+06
1.86594e+06
1.84085e+06
1.8161e+06
1.79167e+06
1.76753e+06
1.74365e+06
1.72002e+06
1.69664e+06
1.67346e+06
1.65048e+06
1.62769e+06
1.60508e+06
1.58264e+06
1.56036e+06
1.53825e+06
1.5163e+06
1.49453e+06
1.47292e+06
1.4515e+06
1.43025e+06
1.40916e+06
1.38824e+06
1.36749e+06
1.34691e+06
1.32649e+06
1.30618e+06
1.28602e+06
1.26594e+06
1.24603e+06
1.22625e+06
1.20669e+06
1.18723e+06
1.168e+06
1.1489e+06
1.13001e+06
1.11125e+06
1.09269e+06
1.07426e+06
1.05601e+06
1.0379e+06
1.01996e+06
1.00215e+06
984521
967024
949709
932529
915523
898671
881987
865453
849075
832847
816772
800844
785070
769426
753945
738571
723375
708256
693324
678450
663749
649112
634616
620187
605871
591589
577417
563206
549036
534821
520611
506264
491849
477203
462382
447222
431771
415863
399548
382705
365399
347655
2.39358e+06
2.3474e+06
2.30373e+06
2.26257e+06
2.22376e+06
2.18708e+06
2.15229e+06
2.11915e+06
2.08744e+06
2.05695e+06
2.02751e+06
1.99898e+06
1.97123e+06
1.94415e+06
1.91765e+06
1.89167e+06
1.86613e+06
1.841e+06
1.81622e+06
1.79177e+06
1.76761e+06
1.74371e+06
1.72006e+06
1.69666e+06
1.67347e+06
1.65048e+06
1.62768e+06
1.60505e+06
1.5826e+06
1.56032e+06
1.5382e+06
1.51625e+06
1.49447e+06
1.47287e+06
1.45145e+06
1.4302e+06
1.40911e+06
1.38818e+06
1.36742e+06
1.34683e+06
1.3264e+06
1.30609e+06
1.28593e+06
1.26586e+06
1.24597e+06
1.22618e+06
1.20663e+06
1.18716e+06
1.16794e+06
1.14884e+06
1.12996e+06
1.1112e+06
1.09264e+06
1.0742e+06
1.05597e+06
1.03785e+06
1.01992e+06
1.0021e+06
984485
966973
949675
932476
915490
898627
881959
865415
849046
832807
816740
800799
785030
769375
753898
738514
723320
708192
693262
678378
663680
649026
634534
620077
605762
591441
577257
563002
548832
534571
520338
505933
491486
476776
461895
446668
431161
415206
398851
382003
364717
347036
2.39484e+06
2.34875e+06
2.3051e+06
2.26388e+06
2.22496e+06
2.18816e+06
2.15324e+06
2.11996e+06
2.08813e+06
2.05753e+06
2.028e+06
1.99939e+06
1.97156e+06
1.94442e+06
1.91788e+06
1.89185e+06
1.86628e+06
1.84112e+06
1.81632e+06
1.79184e+06
1.76766e+06
1.74375e+06
1.72009e+06
1.69667e+06
1.67347e+06
1.65046e+06
1.62765e+06
1.60502e+06
1.58256e+06
1.56027e+06
1.53815e+06
1.5162e+06
1.49442e+06
1.47282e+06
1.4514e+06
1.43015e+06
1.40906e+06
1.38812e+06
1.36735e+06
1.34675e+06
1.32632e+06
1.30602e+06
1.28585e+06
1.26578e+06
1.2459e+06
1.22612e+06
1.20658e+06
1.1871e+06
1.1679e+06
1.14879e+06
1.12993e+06
1.11115e+06
1.09261e+06
1.07416e+06
1.05594e+06
1.0378e+06
1.01989e+06
1.00206e+06
984456
966933
949646
932441
915464
898596
881937
865385
849023
832775
816712
800763
784997
769335
753859
738469
723274
708140
693210
678316
663623
648951
634466
619981
605672
591316
577127
562837
548666
534366
520119
505659
491195
476425
461501
446227
430676
414686
398300
381448
364180
346547
2.39577e+06
2.34975e+06
2.30611e+06
2.26485e+06
2.22587e+06
2.18897e+06
2.15395e+06
2.12058e+06
2.08865e+06
2.05797e+06
2.02837e+06
1.99969e+06
1.97182e+06
1.94463e+06
1.91805e+06
1.892e+06
1.8664e+06
1.84121e+06
1.81639e+06
1.7919e+06
1.7677e+06
1.74377e+06
1.7201e+06
1.69667e+06
1.67346e+06
1.65044e+06
1.62762e+06
1.60498e+06
1.58251e+06
1.56022e+06
1.5381e+06
1.51615e+06
1.49437e+06
1.47278e+06
1.45136e+06
1.43011e+06
1.40901e+06
1.38807e+06
1.3673e+06
1.34669e+06
1.32625e+06
1.30595e+06
1.28578e+06
1.26572e+06
1.24585e+06
1.22607e+06
1.20653e+06
1.18706e+06
1.16787e+06
1.14874e+06
1.12989e+06
1.11111e+06
1.09258e+06
1.07412e+06
1.05591e+06
1.03777e+06
1.01986e+06
1.00202e+06
984431
966904
949621
932418
915446
898578
881921
865367
849007
832755
816693
800739
784975
769307
753832
738436
723243
708100
693174
678268
663581
648891
634414
619905
605600
591219
577029
562711
548541
534209
519950
505454
490967
476149
461203
445897
430313
414298
397889
381036
363782
346183
2.39638e+06
2.35041e+06
2.30678e+06
2.2655e+06
2.22647e+06
2.18951e+06
2.15442e+06
2.12099e+06
2.089e+06
2.05827e+06
2.02862e+06
1.9999e+06
1.97199e+06
1.94478e+06
1.91817e+06
1.89209e+06
1.86648e+06
1.84128e+06
1.81644e+06
1.79193e+06
1.76773e+06
1.74379e+06
1.72011e+06
1.69667e+06
1.67345e+06
1.65042e+06
1.6276e+06
1.60495e+06
1.58248e+06
1.56018e+06
1.53806e+06
1.51611e+06
1.49433e+06
1.47274e+06
1.45133e+06
1.43008e+06
1.40898e+06
1.38804e+06
1.36726e+06
1.34665e+06
1.3262e+06
1.30589e+06
1.28572e+06
1.26568e+06
1.24581e+06
1.22603e+06
1.2065e+06
1.18703e+06
1.16785e+06
1.14871e+06
1.12987e+06
1.11108e+06
1.09255e+06
1.07409e+06
1.05588e+06
1.03774e+06
1.01984e+06
1.002e+06
984413
966889
949607
932406
915436
898569
881912
865359
848998
832745
816683
800727
784963
769292
753818
738416
723224
708075
693150
678237
663552
648852
634376
619854
605548
591153
576962
562629
548456
534103
519832
505318
490817
475963
461004
445680
430070
414041
397616
380763
363518
345942
2.39668e+06
2.35074e+06
2.30712e+06
2.26583e+06
2.22677e+06
2.18978e+06
2.15466e+06
2.1212e+06
2.08918e+06
2.05842e+06
2.02874e+06
2.00001e+06
1.97208e+06
1.94485e+06
1.91823e+06
1.89214e+06
1.86652e+06
1.84131e+06
1.81646e+06
1.79195e+06
1.76774e+06
1.7438e+06
1.72011e+06
1.69667e+06
1.67344e+06
1.65041e+06
1.62758e+06
1.60494e+06
1.58246e+06
1.56017e+06
1.53804e+06
1.51609e+06
1.49432e+06
1.47273e+06
1.45131e+06
1.43006e+06
1.40896e+06
1.38802e+06
1.36725e+06
1.34663e+06
1.32618e+06
1.30587e+06
1.2857e+06
1.26566e+06
1.24579e+06
1.22601e+06
1.20649e+06
1.18702e+06
1.16783e+06
1.1487e+06
1.12986e+06
1.11107e+06
1.09254e+06
1.07408e+06
1.05587e+06
1.03773e+06
1.01983e+06
1.00199e+06
984404
966882
949600
932402
915431
898566
881908
865356
848994
832742
816679
800723
784958
769286
753812
738408
723216
708065
693140
678224
663539
648835
634358
619830
605524
591122
576929
562589
548413
534051
519774
505253
490740
475875
460907
445572
429950
413913
397481
380627
363388
345826
2.12043e+06
2.11728e+06
2.11111e+06
2.10216e+06
2.09067e+06
2.07697e+06
2.06138e+06
2.0442e+06
2.02573e+06
2.0062e+06
1.98581e+06
1.96473e+06
1.94312e+06
1.9211e+06
1.89876e+06
1.87619e+06
1.85344e+06
1.8306e+06
1.80769e+06
1.78476e+06
1.76183e+06
1.73892e+06
1.71605e+06
1.69325e+06
1.67055e+06
1.64796e+06
1.6255e+06
1.60318e+06
1.58099e+06
1.55892e+06
1.53697e+06
1.51514e+06
1.49344e+06
1.47188e+06
1.45045e+06
1.42919e+06
1.40808e+06
1.38716e+06
1.3664e+06
1.34582e+06
1.32539e+06
1.30513e+06
1.28502e+06
1.26508e+06
1.2453e+06
1.22567e+06
1.20619e+06
1.18687e+06
1.1677e+06
1.14869e+06
1.12983e+06
1.11114e+06
1.09258e+06
1.0742e+06
1.05596e+06
1.03788e+06
1.01995e+06
1.00219e+06
984581
967132
949838
932701
915718
898895
882230
865730
849391
833218
817204
801360
785675
770163
754803
739625
724603
709789
695152
680720
666485
652458
638646
625060
611715
598628
585819
573311
561132
549317
537906
526947
516499
506629
497418
488961
481364
474747
469238
464961
462015
460504
2.12099e+06
2.11782e+06
2.11162e+06
2.10261e+06
2.09107e+06
2.07731e+06
2.06167e+06
2.04445e+06
2.02594e+06
2.00638e+06
1.98596e+06
1.96486e+06
1.94322e+06
1.92119e+06
1.89884e+06
1.87626e+06
1.8535e+06
1.83065e+06
1.80774e+06
1.78481e+06
1.76187e+06
1.73896e+06
1.71609e+06
1.69329e+06
1.67058e+06
1.64799e+06
1.62552e+06
1.6032e+06
1.58101e+06
1.55895e+06
1.53699e+06
1.51517e+06
1.49347e+06
1.47191e+06
1.45047e+06
1.42922e+06
1.4081e+06
1.38718e+06
1.36641e+06
1.34583e+06
1.3254e+06
1.30514e+06
1.28503e+06
1.26509e+06
1.2453e+06
1.22568e+06
1.20619e+06
1.18688e+06
1.1677e+06
1.1487e+06
1.12983e+06
1.11114e+06
1.09259e+06
1.0742e+06
1.05596e+06
1.03788e+06
1.01996e+06
1.00219e+06
984584
967136
949841
932706
915722
898900
882234
865735
849395
833222
817208
801364
785679
770166
754805
739626
724603
709785
695148
680713
666477
652447
638632
625043
611695
598604
585790
573277
561092
549269
537848
526878
516416
506531
497302
488824
481205
474563
469033
464736
461773
460253
2.12211e+06
2.1189e+06
2.11262e+06
2.10352e+06
2.09187e+06
2.07801e+06
2.06226e+06
2.04495e+06
2.02637e+06
2.00674e+06
1.98626e+06
1.96511e+06
1.94344e+06
1.92137e+06
1.899e+06
1.8764e+06
1.85363e+06
1.83076e+06
1.80785e+06
1.78491e+06
1.76196e+06
1.73904e+06
1.71616e+06
1.69337e+06
1.67066e+06
1.64806e+06
1.62558e+06
1.60326e+06
1.58107e+06
1.559e+06
1.53705e+06
1.51523e+06
1.49352e+06
1.47196e+06
1.45052e+06
1.42926e+06
1.40815e+06
1.38721e+06
1.36644e+06
1.34586e+06
1.32542e+06
1.30516e+06
1.28505e+06
1.2651e+06
1.24532e+06
1.22569e+06
1.20621e+06
1.18689e+06
1.16771e+06
1.14871e+06
1.12984e+06
1.11115e+06
1.09259e+06
1.07421e+06
1.05597e+06
1.03789e+06
1.01997e+06
1.0022e+06
984593
967145
949850
932715
915731
898910
882244
865746
849407
833234
817218
801373
785687
770174
754811
739627
724605
709779
695141
680700
666460
652425
638605
625011
611656
598557
585734
573210
561011
549172
537732
526740
516252
506335
497070
488550
480885
474195
468620
464282
461287
459747
2.12379e+06
2.12052e+06
2.11413e+06
2.10488e+06
2.09306e+06
2.07904e+06
2.06314e+06
2.0457e+06
2.027e+06
2.00727e+06
1.98671e+06
1.96549e+06
1.94376e+06
1.92165e+06
1.89925e+06
1.87662e+06
1.85382e+06
1.83094e+06
1.80801e+06
1.78505e+06
1.76209e+06
1.73916e+06
1.71628e+06
1.69347e+06
1.67076e+06
1.64815e+06
1.62567e+06
1.60334e+06
1.58114e+06
1.55908e+06
1.53712e+06
1.5153e+06
1.4936e+06
1.47203e+06
1.45058e+06
1.42931e+06
1.4082e+06
1.38726e+06
1.36649e+06
1.3459e+06
1.32546e+06
1.30518e+06
1.28507e+06
1.26513e+06
1.24534e+06
1.22571e+06
1.20623e+06
1.18691e+06
1.16773e+06
1.14873e+06
1.12986e+06
1.11116e+06
1.09261e+06
1.07422e+06
1.05598e+06
1.03791e+06
1.01998e+06
1.00222e+06
984608
967161
949865
932731
915747
898926
882261
865764
849425
833251
817234
801386
785698
770184
754819
739631
724607
709771
695130
680682
666436
652394
638566
624963
611599
598488
585651
573109
560891
549028
537560
526534
516006
506042
496723
488141
480406
473643
467999
463596
460550
458981
2.12606e+06
2.1227e+06
2.11615e+06
2.10669e+06
2.09465e+06
2.08041e+06
2.06431e+06
2.04668e+06
2.02784e+06
2.00798e+06
1.98731e+06
1.96599e+06
1.94419e+06
1.92202e+06
1.89957e+06
1.8769e+06
1.85407e+06
1.83116e+06
1.80821e+06
1.78523e+06
1.76226e+06
1.73931e+06
1.71641e+06
1.6936e+06
1.67088e+06
1.64826e+06
1.62577e+06
1.60342e+06
1.58122e+06
1.55916e+06
1.5372e+06
1.51539e+06
1.49368e+06
1.4721e+06
1.45065e+06
1.42937e+06
1.40826e+06
1.38732e+06
1.36654e+06
1.34594e+06
1.3255e+06
1.30522e+06
1.28511e+06
1.26516e+06
1.24537e+06
1.22574e+06
1.20626e+06
1.18694e+06
1.16776e+06
1.14875e+06
1.12988e+06
1.11119e+06
1.09263e+06
1.07424e+06
1.05601e+06
1.03793e+06
1.02001e+06
1.00224e+06
984630
967183
949887
932754
915769
898949
882284
865788
849449
833274
817256
801404
785713
770195
754828
739634
724607
709762
695115
680658
666404
652353
638515
624901
611523
598397
585541
572978
560733
548838
537332
526261
515680
505655
496263
487597
479769
472908
467167
462675
459558
457948
2.12892e+06
2.12544e+06
2.11868e+06
2.10895e+06
2.09662e+06
2.0821e+06
2.06575e+06
2.04791e+06
2.02888e+06
2.00886e+06
1.98807e+06
1.96663e+06
1.94473e+06
1.92248e+06
1.89997e+06
1.87725e+06
1.85437e+06
1.83142e+06
1.80844e+06
1.78544e+06
1.76244e+06
1.73948e+06
1.71656e+06
1.69375e+06
1.67102e+06
1.64839e+06
1.62587e+06
1.60352e+06
1.58131e+06
1.55924e+06
1.53728e+06
1.51547e+06
1.49376e+06
1.47218e+06
1.45072e+06
1.42944e+06
1.40833e+06
1.38738e+06
1.36661e+06
1.346e+06
1.32555e+06
1.30526e+06
1.28515e+06
1.2652e+06
1.24541e+06
1.22578e+06
1.20629e+06
1.18697e+06
1.16779e+06
1.14879e+06
1.12991e+06
1.11122e+06
1.09266e+06
1.07427e+06
1.05604e+06
1.03796e+06
1.02003e+06
1.00227e+06
984658
967212
949915
932782
915797
898977
882313
865817
849478
833302
817281
801425
785730
770207
754838
739638
724606
709752
695097
680629
666365
652302
638452
624823
611429
598285
585406
572815
560537
548604
537051
525924
515277
505174
495691
486922
478977
471990
466123
461513
458302
456639
2.1324e+06
2.12877e+06
2.12174e+06
2.11167e+06
2.09898e+06
2.08412e+06
2.06747e+06
2.04937e+06
2.03012e+06
2.00991e+06
1.98896e+06
1.96739e+06
1.94537e+06
1.92303e+06
1.90043e+06
1.87765e+06
1.85472e+06
1.83172e+06
1.80869e+06
1.78567e+06
1.76264e+06
1.73965e+06
1.71672e+06
1.6939e+06
1.67116e+06
1.64851e+06
1.62599e+06
1.60361e+06
1.58139e+06
1.55933e+06
1.53736e+06
1.51555e+06
1.49384e+06
1.47226e+06
1.4508e+06
1.42951e+06
1.4084e+06
1.38745e+06
1.36668e+06
1.34606e+06
1.32561e+06
1.30532e+06
1.2852e+06
1.26525e+06
1.24545e+06
1.22582e+06
1.20634e+06
1.18701e+06
1.16783e+06
1.14883e+06
1.12995e+06
1.11126e+06
1.0927e+06
1.07431e+06
1.05607e+06
1.03799e+06
1.02007e+06
1.0023e+06
984691
967245
949947
932814
915829
899008
882344
865848
849510
833331
817309
801449
785749
770220
754848
739640
724603
709740
695075
680595
666318
652242
638377
624732
611319
598152
585246
572623
560306
548326
536718
525525
514799
504603
495012
486117
478031
470891
464864
460106
456775
455047
2.13653e+06
2.1327e+06
2.12533e+06
2.11485e+06
2.10173e+06
2.08647e+06
2.06946e+06
2.05106e+06
2.03154e+06
2.01112e+06
1.98998e+06
1.96825e+06
1.94609e+06
1.92364e+06
1.90096e+06
1.87809e+06
1.8551e+06