/*--------------------------------*- C++ -*----------------------------------*\
| =========                 |                                                 |
| \\      /  F ield         | OpenFOAM: The Open Source CFD Toolbox           |
|  \\    /   O peration     | Version:  2.4.0                                 |
|   \\  /    A nd           | Web:      www.OpenFOAM.org                      |
|    \\/     M anipulation  |                                                 |
\*---------------------------------------------------------------------------*/
FoamFile
{
    version     2.0;
    format      ascii;
    class       volScalarField;
    location    "0.021";
    object      pMean;
}
// * * * * * * * * * * * * * * * * * * * * * * * * * * * * * * * * * * * * * //

dimensions      [0 2 -2 0 0 0 0];

internalField   nonuniform List<scalar> 
17600
(
267.474
248.538
241.349
237.959
234.763
231.481
228.147
224.814
221.453
218.086
214.747
211.42
208.142
204.812
201.473
197.992
194.387
190.41
185.461
176.034
265.646
248.582
241.387
237.968
234.766
231.481
228.147
224.814
221.452
218.085
214.747
211.421
208.142
204.815
201.474
198.001
194.391
190.436
185.502
178.112
264.294
248.818
241.519
238.002
234.779
231.485
228.148
224.813
221.452
218.084
214.747
211.42
208.143
204.812
201.476
197.992
194.403
190.431
185.778
179.218
263.353
249.129
241.717
238.058
234.806
231.501
228.156
224.817
221.452
218.083
214.745
211.424
208.143
204.825
201.474
198.028
194.396
190.536
185.952
180.284
262.558
249.428
241.949
238.126
234.845
231.531
228.175
224.826
221.456
218.082
214.745
211.42
208.148
204.817
201.485
198.01
194.446
190.567
186.24
181.202
261.813
249.686
242.191
238.194
234.884
231.57
228.205
224.845
221.463
218.083
214.741
211.429
208.148
204.839
201.48
198.049
194.455
190.655
186.513
181.97
261.116
249.901
242.43
238.256
234.914
231.608
228.241
224.87
221.477
218.085
214.742
211.427
208.157
204.84
201.488
198.059
194.472
190.769
186.702
182.723
260.474
250.077
242.66
238.315
234.936
231.641
228.277
224.898
221.491
218.088
214.74
211.433
208.163
204.851
201.504
198.071
194.542
190.837
186.997
183.347
259.892
250.218
242.876
238.373
234.95
231.668
228.312
224.926
221.507
218.091
214.739
211.439
208.167
204.866
201.499
198.102
194.559
190.959
187.244
183.909
259.37
250.327
243.077
238.434
234.959
231.688
228.344
224.953
221.523
218.092
214.738
211.44
208.18
204.875
201.523
198.115
194.626
191.069
187.491
184.449
258.905
250.406
243.26
238.497
234.963
231.702
228.373
224.979
221.536
218.094
214.736
211.446
208.183
204.889
201.526
198.144
194.684
191.181
187.758
184.926
258.496
250.461
243.426
238.561
234.964
231.711
228.399
225.002
221.55
218.095
214.735
211.449
208.194
204.9
201.545
198.17
194.739
191.309
188.001
185.36
258.14
250.496
243.575
238.625
234.963
231.717
228.421
225.025
221.562
218.096
214.734
211.452
208.199
204.913
201.561
198.199
194.811
191.433
188.239
185.775
257.835
250.517
243.705
238.686
234.96
231.719
228.441
225.043
221.574
218.098
214.733
211.457
208.207
204.925
201.577
198.231
194.879
191.558
188.471
186.159
257.578
250.527
243.817
238.742
234.958
231.719
228.457
225.061
221.583
218.098
214.732
211.459
208.215
204.938
201.596
198.267
194.947
191.683
188.695
186.515
257.367
250.531
243.91
238.79
234.956
231.718
228.471
225.075
221.592
218.099
214.731
211.464
208.222
204.95
201.616
198.302
195.019
191.809
188.909
186.846
257.2
250.531
243.984
238.829
234.954
231.716
228.482
225.087
221.599
218.1
214.731
211.467
208.228
204.963
201.637
198.34
195.091
191.933
189.113
187.154
257.076
250.529
244.039
238.86
234.954
231.714
228.49
225.096
221.605
218.101
214.732
211.471
208.236
204.975
201.659
198.379
195.162
192.054
189.308
187.441
256.994
250.527
244.076
238.88
234.953
231.713
228.495
225.102
221.609
218.102
214.732
211.475
208.242
204.988
201.681
198.418
195.233
192.173
189.493
187.707
256.954
250.526
244.094
238.89
234.953
231.711
228.498
225.105
221.611
218.103
214.733
211.478
208.249
205
201.704
198.458
195.304
192.288
189.669
187.952
256.954
250.525
244.095
238.89
234.954
231.711
228.499
225.105
221.611
218.104
214.735
211.482
208.255
205.012
201.728
198.498
195.372
192.399
189.835
188.179
256.995
250.526
244.077
238.879
234.954
231.711
228.496
225.102
221.61
218.106
214.737
211.485
208.261
205.024
201.752
198.538
195.44
192.507
189.991
188.387
257.077
250.528
244.041
238.858
234.955
231.712
228.492
225.097
221.607
218.107
214.739
211.489
208.268
205.035
201.776
198.578
195.505
192.61
190.137
188.578
257.201
250.529
243.986
238.828
234.957
231.714
228.484
225.088
221.603
218.108
214.741
211.492
208.273
205.046
201.8
198.617
195.569
192.708
190.274
188.752
257.368
250.529
243.912
238.788
234.959
231.715
228.474
225.077
221.597
218.11
214.744
211.495
208.279
205.056
201.824
198.656
195.63
192.801
190.402
188.909
257.579
250.524
243.82
238.739
234.961
231.715
228.461
225.063
221.589
218.111
214.748
211.498
208.284
205.065
201.847
198.694
195.689
192.89
190.52
189.051
257.837
250.514
243.708
238.683
234.965
231.715
228.445
225.047
221.58
218.113
214.751
211.501
208.289
205.074
201.87
198.731
195.746
192.973
190.629
189.176
258.142
250.493
243.578
238.621
234.968
231.712
228.426
225.028
221.569
218.114
214.755
211.503
208.293
205.083
201.892
198.767
195.801
193.051
190.729
189.286
258.498
250.458
243.43
238.557
234.97
231.707
228.404
225.007
221.558
218.115
214.759
211.506
208.297
205.09
201.914
198.801
195.853
193.124
190.82
189.379
258.908
250.403
243.264
238.492
234.969
231.697
228.379
224.984
221.545
218.117
214.763
211.508
208.3
205.098
201.934
198.834
195.903
193.192
190.902
189.452
259.372
250.323
243.081
238.429
234.965
231.683
228.35
224.959
221.531
218.117
214.767
211.511
208.302
205.105
201.953
198.866
195.951
193.256
190.978
189.503
259.895
250.214
242.88
238.368
234.957
231.664
228.318
224.932
221.517
218.118
214.771
211.513
208.303
205.111
201.971
198.897
195.996
193.314
191.048
189.531
260.477
250.073
242.663
238.309
234.943
231.638
228.284
224.905
221.501
218.117
214.774
211.516
208.304
205.117
201.987
198.926
196.038
193.369
191.115
189.537
261.119
249.898
242.433
238.251
234.921
231.606
228.247
224.878
221.487
218.117
214.778
211.518
208.305
205.123
202.001
198.953
196.075
193.42
191.174
189.525
261.816
249.683
242.195
238.188
234.89
231.568
228.211
224.853
221.474
218.117
214.781
211.52
208.306
205.129
202.013
198.977
196.107
193.465
191.225
189.502
262.561
249.425
241.953
238.121
234.851
231.529
228.181
224.835
221.467
218.118
214.784
211.523
208.307
205.135
202.023
198.998
196.133
193.503
191.265
189.471
263.357
249.126
241.721
238.053
234.812
231.499
228.162
224.826
221.464
218.12
214.787
211.525
208.308
205.14
202.031
199.013
196.151
193.533
191.291
189.441
264.297
248.815
241.523
237.997
234.785
231.484
228.154
224.823
221.464
218.122
214.79
211.527
208.31
205.143
202.036
199.023
196.162
193.553
191.303
189.418
265.649
248.579
241.391
237.962
234.772
231.48
228.154
224.823
221.465
218.123
214.791
211.528
208.311
205.145
202.038
199.027
196.168
193.563
191.306
189.42
267.477
248.535
241.353
237.954
234.769
231.48
228.154
224.823
221.465
218.123
214.791
211.528
208.311
205.146
202.039
199.029
196.169
193.566
191.304
189.488
167.517
168.733
168.271
166.865
165.893
165.325
164.931
164.831
164.974
165.196
165.694
166.625
167.964
169.675
171.74
174.107
176.665
179.263
181.754
184.029
186.053
187.809
189.283
190.483
191.412
192.079
192.553
192.878
193.062
193.133
193.117
193.029
192.882
192.691
192.464
192.207
191.925
191.624
191.307
190.978
190.637
190.288
189.932
189.57
189.203
188.833
188.459
188.083
187.705
187.326
186.945
186.562
186.179
185.795
185.411
185.026
184.64
184.255
183.868
183.482
183.096
182.709
182.322
181.935
181.548
181.161
180.774
180.386
179.999
179.612
179.224
178.837
178.45
178.062
177.675
177.287
176.9
176.512
176.124
175.737
175.349
174.962
174.574
174.187
173.799
173.411
173.024
172.636
172.249
171.861
171.473
171.086
170.698
170.311
169.923
169.535
169.148
168.76
168.372
167.985
167.597
167.21
166.822
166.434
166.047
165.659
165.271
164.884
164.496
164.109
163.721
163.333
162.946
162.558
162.17
161.783
161.395
161.007
160.62
160.232
159.844
159.457
159.069
158.681
158.294
157.906
157.518
157.13
156.743
156.355
155.967
155.579
155.192
154.804
154.416
154.028
153.64
153.252
152.864
152.476
152.088
151.7
151.311
150.923
150.534
150.146
149.757
149.368
148.979
148.59
148.202
147.813
147.425
147.037
146.65
146.265
145.883
145.503
145.127
144.754
144.386
144.019
143.654
143.29
142.924
142.558
142.186
141.814
141.439
141.059
140.681
140.293
139.909
139.512
139.118
138.712
138.299
137.879
137.446
136.998
136.537
136.052
135.544
135.007
134.432
133.816
133.143
132.404
131.581
130.648
129.578
128.319
126.813
124.98
122.599
119.626
115.331
108.96
101.235
70.3314
170.929
170.332
169.852
168.776
167.864
167.256
166.75
166.526
166.623
166.838
167.263
168.093
169.314
170.899
172.835
175.07
177.488
179.939
182.288
184.444
186.361
188.019
189.406
190.533
191.407
192.044
192.499
192.813
192.992
193.06
193.044
192.96
192.818
192.631
192.408
192.154
191.877
191.58
191.266
190.94
190.603
190.256
189.903
189.543
189.179
188.811
188.439
188.065
187.688
187.31
186.931
186.55
186.168
185.785
185.401
185.017
184.632
184.247
183.862
183.476
183.09
182.704
182.318
181.931
181.544
181.158
180.771
180.384
179.997
179.609
179.222
178.835
178.448
178.06
177.673
177.286
176.898
176.511
176.123
175.736
175.348
174.961
174.573
174.186
173.798
173.411
173.023
172.636
172.248
171.861
171.473
171.085
170.698
170.31
169.923
169.535
169.147
168.76
168.372
167.985
167.597
167.209
166.822
166.434
166.046
165.659
165.271
164.883
164.496
164.108
163.72
163.333
162.945
162.557
162.17
161.782
161.394
161.007
160.619
160.231
159.843
159.456
159.068
158.68
158.292
157.904
157.516
157.128
156.74
156.353
155.964
155.576
155.188
154.8
154.412
154.024
153.635
153.247
152.858
152.47
152.081
151.692
151.303
150.914
150.524
150.134
149.745
149.354
148.964
148.573
148.183
147.792
147.401
147.011
146.622
146.233
145.849
145.465
145.087
144.711
144.341
143.972
143.605
143.238
142.868
142.499
142.12
141.746
141.359
140.977
140.585
140.193
139.795
139.392
138.982
138.564
138.137
137.701
137.247
136.782
136.295
135.785
135.248
134.679
134.067
133.406
132.688
131.891
131.004
129.997
128.829
127.472
125.815
123.815
121.196
117.876
113.384
105.355
97.6979
63.1043
174.018
172.616
171.528
170.474
169.604
168.96
168.374
168.045
168.084
168.289
168.696
169.473
170.622
172.105
173.923
176.035
178.321
180.633
182.843
184.871
186.674
188.226
189.522
190.578
191.403
192.01
192.447
192.749
192.923
192.989
192.974
192.892
192.755
192.572
192.353
192.103
191.829
191.536
191.226
190.903
190.568
190.225
189.874
189.517
189.155
188.789
188.419
188.047
187.672
187.295
186.917
186.537
186.156
185.774
185.392
185.008
184.624
184.24
183.855
183.47
183.085
182.699
182.313
181.927
181.541
181.154
180.768
180.381
179.994
179.607
179.22
178.833
178.446
178.059
177.672
177.284
176.897
176.51
176.122
175.735
175.348
174.96
174.573
174.185
173.798
173.41
173.023
172.635
172.248
171.86
171.473
171.085
170.697
170.31
169.922
169.535
169.147
168.759
168.372
167.984
167.597
167.209
166.821
166.434
166.046
165.658
165.271
164.883
164.495
164.108
163.72
163.332
162.945
162.557
162.169
161.781
161.393
161.006
160.618
160.23
159.842
159.454
159.066
158.678
158.291
157.903
157.514
157.126
156.738
156.35
155.962
155.573
155.185
154.797
154.408
154.019
153.631
153.242
152.853
152.463
152.074
151.684
151.294
150.904
150.514
150.123
149.732
149.341
148.949
148.557
148.164
147.771
147.378
146.985
146.593
146.201
145.814
145.427
145.047
144.667
144.296
143.923
143.557
143.186
142.814
142.439
142.057
141.674
141.283
140.891
140.494
140.09
139.685
139.268
138.848
138.416
137.975
137.521
137.051
136.564
136.055
135.518
134.954
134.349
133.7
132.999
132.229
131.381
130.422
129.345
128.086
126.624
124.831
122.664
119.85
116.025
111.78
101.72
94.3528
61.752
176.308
174.739
173.311
172.054
171.147
170.507
169.958
169.597
169.584
169.783
170.186
170.914
171.97
173.34
175.034
177.014
179.165
181.338
183.407
185.298
186.975
188.422
189.63
190.617
191.399
191.979
192.397
192.688
192.856
192.92
192.906
192.828
192.694
192.514
192.299
192.053
191.782
191.492
191.186
190.866
190.534
190.194
189.845
189.491
189.131
188.767
188.399
188.028
187.655
187.28
186.903
186.524
186.145
185.764
185.382
185
184.617
184.233
183.849
183.464
183.079
182.694
182.309
181.923
181.537
181.151
180.764
180.378
179.992
179.605
179.218
178.831
178.444
178.057
177.67
177.283
176.896
176.509
176.121
175.734
175.347
174.959
174.572
174.185
173.797
173.41
173.022
172.635
172.247
171.86
171.472
171.085
170.697
170.31
169.922
169.534
169.147
168.759
168.372
167.984
167.596
167.209
166.821
166.433
166.046
165.658
165.27
164.883
164.495
164.107
163.719
163.332
162.944
162.556
162.168
161.781
161.393
161.005
160.617
160.229
159.841
159.453
159.065
158.677
158.289
157.901
157.513
157.124
156.736
156.348
155.959
155.57
155.182
154.793
154.404
154.015
153.626
153.236
152.847
152.457
152.067
151.677
151.286
150.895
150.504
150.112
149.72
149.327
148.934
148.54
148.145
147.75
147.355
146.959
146.565
146.169
145.779
145.387
145.006
144.622
144.251
143.874
143.509
143.133
142.761
142.38
141.992
141.605
141.203
140.809
140.399
139.99
139.572
139.146
138.714
138.268
137.813
137.343
136.854
136.349
135.815
135.255
134.658
134.023
133.334
132.593
131.773
130.869
129.848
128.693
127.338
125.777
123.847
121.447
118.702
114.008
110.463
98.4019
91.1524
63.3288
177.97
176.473
174.878
173.475
172.558
171.968
171.488
171.165
171.137
171.329
171.709
172.37
173.33
174.587
176.157
178.001
180.009
182.036
183.959
185.709
187.257
188.598
189.728
190.654
191.395
191.95
192.35
192.628
192.79
192.852
192.84
192.765
192.634
192.457
192.245
192.002
191.735
191.449
191.146
190.829
190.501
190.163
189.817
189.465
189.107
188.745
188.379
188.01
187.639
187.265
186.889
186.512
186.133
185.753
185.373
184.991
184.609
184.226
183.842
183.458
183.074
182.689
182.304
181.919
181.533
181.147
180.761
180.375
179.989
179.603
179.216
178.829
178.443
178.056
177.669
177.282
176.895
176.508
176.12
175.733
175.346
174.959
174.571
174.184
173.797
173.409
173.022
172.634
172.247
171.859
171.472
171.084
170.697
170.309
169.922
169.534
169.147
168.759
168.371
167.984
167.596
167.208
166.821
166.433
166.045
165.658
165.27
164.882
164.495
164.107
163.719
163.331
162.943
162.556
162.168
161.78
161.392
161.004
160.616
160.228
159.84
159.452
159.064
158.676
158.287
157.899
157.511
157.122
156.734
156.345
155.956
155.568
155.179
154.789
154.4
154.011
153.621
153.231
152.841
152.451
152.06
151.669
151.278
150.886
150.494
150.101
149.707
149.313
148.919
148.523
148.127
147.729
147.332
146.932
146.536
146.135
145.743
145.346
144.964
144.574
144.206
143.823
143.462
143.077
142.711
142.318
141.932
141.532
141.129
140.723
140.306
139.891
139.459
139.026
138.579
138.121
137.651
137.166
136.658
136.134
135.576
134.992
134.366
133.697
132.971
132.185
131.317
130.359
129.269
128.045
126.618
124.892
122.984
120.106
117.756
111.834
109.271
95.5649
87.7904
65.0174
179.471
178.004
176.158
174.715
173.848
173.324
172.909
172.66
172.658
172.831
173.167
173.768
174.662
175.827
177.275
178.979
180.837
182.706
184.475
186.087
187.513
188.756
189.815
190.691
191.394
191.924
192.305
192.571
192.728
192.788
192.775
192.702
192.574
192.4
192.191
191.952
191.689
191.406
191.106
190.792
190.467
190.132
189.789
189.439
189.084
188.724
188.36
187.992
187.622
187.25
186.875
186.499
186.122
185.743
185.363
184.982
184.601
184.219
183.836
183.452
183.069
182.684
182.3
181.915
181.53
181.144
180.758
180.373
179.986
179.6
179.214
178.827
178.441
178.054
177.667
177.28
176.894
176.507
176.119
175.732
175.345
174.958
174.571
174.183
173.796
173.409
173.021
172.634
172.246
171.859
171.472
171.084
170.696
170.309
169.921
169.534
169.146
168.759
168.371
167.983
167.596
167.208
166.82
166.433
166.045
165.657
165.27
164.882
164.494
164.106
163.719
163.331
162.943
162.555
162.167
161.779
161.391
161.003
160.615
160.227
159.839
159.451
159.063
158.674
158.286
157.897
157.509
157.12
156.732
156.343
155.954
155.565
155.175
154.786
154.396
154.006
153.616
153.226
152.835
152.445
152.053
151.662
151.269
150.877
150.484
150.09
149.695
149.3
148.904
148.506
148.108
147.708
147.309
146.906
146.507
146.102
145.707
145.304
144.922
144.525
144.161
143.768
143.417
143.02
142.662
142.255
141.874
141.457
141.058
140.633
140.219
139.785
139.352
138.903
138.448
137.974
137.494
136.986
136.468
135.917
135.342
134.727
134.078
133.372
132.612
131.777
130.868
129.834
128.718
127.338
125.96
123.898
122.254
118.6
116.976
109.548
107.877
93.2959
84.0621
65.6312
180.76
179.256
177.299
175.861
175.03
174.543
174.204
174.039
174.075
174.233
174.537
175.104
175.947
177.03
178.36
179.915
181.612
183.323
184.946
186.426
187.746
188.905
189.899
190.728
191.396
191.899
192.262
192.516
192.667
192.725
192.713
192.64
192.513
192.343
192.137
191.902
191.642
191.363
191.067
190.756
190.434
190.102
189.761
189.414
189.06
188.702
188.34
187.975
187.606
187.235
186.862
186.487
186.111
185.733
185.354
184.974
184.593
184.212
183.829
183.447
183.063
182.679
182.295
181.911
181.526
181.141
180.755
180.37
179.984
179.598
179.212
178.826
178.439
178.053
177.666
177.279
176.892
176.505
176.118
175.731
175.344
174.957
174.57
174.183
173.795
173.408
173.021
172.633
172.246
171.859
171.471
171.084
170.696
170.309
169.921
169.534
169.146
168.758
168.371
167.983
167.595
167.208
166.82
166.432
166.045
165.657
165.269
164.882
164.494
164.106
163.718
163.33
162.942
162.554
162.167
161.779
161.391
161.002
160.614
160.226
159.838
159.45
159.061
158.673
158.284
157.896
157.507
157.118
156.729
156.34
155.951
155.562
155.172
154.782
154.392
154.002
153.612
153.221
152.83
152.438
152.046
151.654
151.261
150.868
150.474
150.079
149.683
149.286
148.889
148.49
148.09
147.688
147.286
146.88
146.478
146.067
145.671
145.26
144.879
144.472
144.114
143.709
143.371
142.957
142.615
142.184
141.82
141.373
140.991
140.535
140.137
139.672
139.251
138.77
138.323
137.817
137.341
136.8
136.282
135.691
135.115
134.453
133.8
133.029
132.273
131.339
130.453
129.254
128.231
126.56
125.399
122.749
121.627
116.855
116.148
107.357
105.873
91.4148
80.0407
65.3942
181.811
180.418
178.419
176.897
176.05
175.626
175.377
175.279
175.344
175.515
175.819
176.357
177.147
178.153
179.372
180.781
182.316
183.876
185.371
186.739
187.963
189.048
189.982
190.761
191.394
191.874
192.218
192.463
192.61
192.665
192.652
192.58
192.454
192.286
192.083
191.852
191.597
191.321
191.028
190.721
190.401
190.072
189.734
189.389
189.038
188.681
188.321
187.957
187.59
187.221
186.849
186.475
186.1
185.723
185.345
184.966
184.586
184.205
183.823
183.441
183.058
182.675
182.291
181.907
181.522
181.138
180.752
180.367
179.982
179.596
179.21
178.824
178.437
178.051
177.664
177.278
176.891
176.504
176.117
175.731
175.344
174.956
174.569
174.182
173.795
173.408
173.02
172.633
172.246
171.858
171.471
171.083
170.696
170.308
169.921
169.533
169.146
168.758
168.37
167.983
167.595
167.208
166.82
166.432
166.044
165.657
165.269
164.881
164.493
164.106
163.718
163.33
162.942
162.554
162.166
161.778
161.39
161.002
160.613
160.225
159.837
159.449
159.06
158.672
158.283
157.894
157.505
157.116
156.727
156.338
155.948
155.559
155.169
154.779
154.389
153.998
153.607
153.216
152.824
152.432
152.04
151.647
151.253
150.859
150.464
150.068
149.671
149.273
148.874
148.474
148.072
147.667
147.264
146.853
146.449
146.032
145.634
145.213
144.834
144.414
144.067
143.644
143.325
142.885
142.569
142.106
141.765
141.281
140.925
140.425
140.06
139.546
139.158
138.624
138.208
137.646
137.202
136.596
136.113
135.445
134.91
134.147
133.55
132.645
131.964
130.837
130.077
128.58
127.789
125.616
124.901
121.39
120.959
115.067
114.985
105.386
102.967
89.6883
76.4385
65.175
182.733
181.453
179.393
177.8
176.951
176.589
176.416
176.364
176.464
176.678
177
177.508
178.238
179.17
180.289
181.567
182.953
184.376
185.758
187.033
188.171
189.18
190.056
190.791
191.39
191.848
192.177
192.411
192.554
192.607
192.592
192.521
192.398
192.232
192.033
191.805
191.553
191.28
190.991
190.686
190.37
190.043
189.707
189.364
189.015
188.661
188.302
187.94
187.574
187.206
186.836
186.463
186.089
185.713
185.336
184.957
184.578
184.198
183.817
183.435
183.053
182.67
182.287
181.903
181.519
181.134
180.749
180.364
179.979
179.594
179.208
178.822
178.436
178.049
177.663
177.277
176.89
176.503
176.117
175.73
175.343
174.956
174.569
174.182
173.794
173.407
173.02
172.633
172.245
171.858
171.47
171.083
170.695
170.308
169.92
169.533
169.145
168.758
168.37
167.983
167.595
167.207
166.82
166.432
166.044
165.656
165.269
164.881
164.493
164.105
163.717
163.329
162.941
162.553
162.165
161.777
161.389
161.001
160.613
160.224
159.836
159.447
159.059
158.67
158.281
157.892
157.503
157.114
156.725
156.336
155.946
155.556
155.166
154.776
154.385
153.994
153.603
153.211
152.819
152.426
152.033
151.639
151.245
150.85
150.454
150.057
149.659
149.26
148.86
148.458
148.054
147.647
147.241
146.827
146.42
145.997
145.596
145.164
144.788
144.351
144.015
143.568
143.273
142.798
142.513
142.01
141.703
141.168
140.855
140.29
139.979
139.391
139.065
138.445
138.097
137.437
137.07
136.351
135.955
135.152
134.72
133.79
133.321
132.196
131.681
130.253
129.737
127.793
127.369
124.5
124.291
119.926
120.004
113.368
113.277
103.676
98.7238
87.8817
74.472
65.8055
183.49
182.261
180.251
178.674
177.797
177.437
177.315
177.322
177.478
177.741
178.077
178.552
179.219
180.079
181.107
182.27
183.53
184.834
186.113
187.301
188.364
189.302
190.122
190.818
191.388
191.823
192.136
192.36
192.498
192.549
192.533
192.464
192.343
192.18
191.985
191.76
191.511
191.241
190.954
190.653
190.339
190.014
189.681
189.34
188.993
188.64
188.284
187.923
187.559
187.192
186.823
186.451
186.078
185.703
185.327
184.949
184.571
184.191
183.811
183.43
183.048
182.665
182.282
181.899
181.515
181.131
180.747
180.362
179.977
179.591
179.206
178.82
178.434
178.048
177.662
177.275
176.889
176.502
176.116
175.729
175.342
174.955
174.568
174.181
173.794
173.407
173.019
172.632
172.245
171.857
171.47
171.083
170.695
170.308
169.92
169.533
169.145
168.758
168.37
167.982
167.595
167.207
166.819
166.432
166.044
165.656
165.268
164.88
164.493
164.105
163.717
163.329
162.941
162.553
162.165
161.777
161.388
161
160.612
160.223
159.835
159.446
159.058
158.669
158.28
157.891
157.502
157.112
156.723
156.333
155.943
155.553
155.163
154.772
154.381
153.99
153.598
153.206
152.813
152.42
152.027
151.632
151.237
150.841
150.445
150.047
149.648
149.247
148.846
148.442
148.037
147.628
147.22
146.801
146.392
145.961
145.558
145.113
144.738
144.281
143.959
143.48
143.211
142.695
142.443
141.894
141.619
141.031
140.759
140.128
139.876
139.204
138.954
138.228
137.974
137.183
136.929
136.056
135.789
134.8
134.521
133.36
133.072
131.651
131.355
129.542
129.307
126.848
126.792
123.333
123.424
118.521
118.696
111.909
110.5
102.057
94.4622
86.2098
74.1116
67.2834
184.148
183.015
181.067
179.475
178.543
178.173
178.109
178.194
178.402
178.692
179.035
179.484
180.098
180.89
181.837
182.904
184.056
185.254
186.44
187.546
188.538
189.416
190.183
190.84
191.382
191.798
192.096
192.311
192.445
192.493
192.476
192.409
192.291
192.13
191.937
191.717
191.471
191.204
190.919
190.62
190.308
189.986
189.655
189.316
188.971
188.621
188.265
187.906
187.544
187.178
186.81
186.44
186.067
185.694
185.318
184.941
184.563
184.185
183.805
183.424
183.043
182.661
182.278
181.895
181.512
181.128
180.744
180.359
179.974
179.589
179.204
178.818
178.432
178.047
177.66
177.274
176.888
176.501
176.115
175.728
175.341
174.954
174.567
174.18
173.793
173.406
173.019
172.632
172.244
171.857
171.47
171.082
170.695
170.307
169.92
169.532
169.145
168.757
168.37
167.982
167.594
167.207
166.819
166.431
166.044
165.656
165.268
164.88
164.492
164.104
163.716
163.328
162.94
162.552
162.164
161.776
161.388
160.999
160.611
160.222
159.834
159.445
159.056
158.667
158.278
157.889
157.5
157.11
156.721
156.331
155.941
155.55
155.16
154.769
154.378
153.986
153.594
153.201
152.808
152.415
152.02
151.625
151.23
150.833
150.435
150.037
149.637
149.235
148.832
148.426
148.02
147.608
147.198
146.776
146.364
145.925
145.519
145.059
144.685
144.205
143.894
143.388
143.137
142.588
142.354
141.763
141.512
140.867
140.631
139.928
139.729
138.968
138.792
137.952
137.791
136.864
136.729
135.685
135.565
134.366
134.257
132.835
132.746
131.002
130.925
128.738
128.699
125.872
125.943
122.147
122.251
117.314
116.74
110.605
106.739
99.9578
91.7155
85.5039
75.1101
69.1451
184.732
183.683
181.776
180.19
179.25
178.886
178.859
178.988
179.22
179.528
179.886
180.324
180.892
181.616
182.491
183.477
184.533
185.634
186.735
187.771
188.698
189.519
190.241
190.859
191.373
191.773
192.059
192.264
192.395
192.441
192.423
192.356
192.242
192.083
191.892
191.673
191.43
191.166
190.884
190.588
190.279
189.959
189.63
189.293
188.95
188.601
188.248
187.89
187.529
187.165
186.798
186.428
186.057
185.684
185.309
184.933
184.556
184.178
183.799
183.419
183.038
182.656
182.274
181.892
181.508
181.125
180.741
180.357
179.972
179.587
179.202
178.816
178.431
178.045
177.659
177.273
176.887
176.5
176.114
175.727
175.34
174.954
174.567
174.18
173.793
173.406
173.018
172.631
172.244
171.857
171.469
171.082
170.695
170.307
169.92
169.532
169.145
168.757
168.369
167.982
167.594
167.206
166.819
166.431
166.043
165.655
165.268
164.88
164.492
164.104
163.716
163.328
162.94
162.552
162.163
161.775
161.387
160.999
160.61
160.222
159.833
159.444
159.055
158.666
158.277
157.888
157.498
157.109
156.719
156.329
155.938
155.548
155.157
154.766
154.374
153.982
153.589
153.196
152.803
152.409
152.014
151.618
151.222
150.825
150.426
150.026
149.626
149.223
148.819
148.411
148.004
147.59
147.178
146.752
146.337
145.89
145.481
145.005
144.629
144.128
143.826
143.3
143.061
142.491
142.253
141.627
141.373
140.683
140.461
139.699
139.53
138.684
138.562
137.609
137.524
136.456
136.429
135.202
135.219
133.803
133.859
132.189
132.274
130.257
130.331
127.902
127.909
124.962
124.851
121.148
120.669
116.198
113.972
108.753
103.494
97.8618
90.4192
85.9837
76.9377
70.9403
185.256
184.266
182.428
180.884
179.937
179.546
179.521
179.683
179.951
180.286
180.663
181.092
181.615
182.275
183.081
183.993
184.971
185.986
187.005
187.974
188.847
189.614
190.29
190.875
191.363
191.747
192.024
192.22
192.345
192.391
192.372
192.306
192.193
192.037
191.848
191.631
191.39
191.128
190.849
190.556
190.249
189.932
189.605
189.27
188.929
188.582
188.23
187.874
187.514
187.151
186.785
186.417
186.047
185.675
185.301
184.926
184.549
184.172
183.793
183.413
183.033
182.652
182.27
181.888
181.505
181.122
180.738
180.354
179.97
179.585
179.2
178.815
178.429
178.044
177.658
177.272
176.886
176.499
176.113
175.726
175.34
174.953
174.566
174.179
173.792
173.405
173.018
172.631
172.244
171.856
171.469
171.082
170.694
170.307
169.919
169.532
169.144
168.757
168.369
167.982
167.594
167.206
166.818
166.431
166.043
165.655
165.267
164.879
164.491
164.104
163.716
163.327
162.939
162.551
162.163
161.775
161.386
160.998
160.609
160.221
159.832
159.443
159.054
158.665
158.276
157.886
157.497
157.107
156.717
156.326
155.936
155.545
155.154
154.762
154.37
153.978
153.585
153.192
152.798
152.403
152.008
151.612
151.215
150.816
150.417
150.017
149.615
149.211
148.805
148.397
147.988
147.571
147.158
146.729
146.311
145.858
145.443
144.954
144.573
144.057
143.754
143.227
142.978
142.406
142.127
141.481
141.191
140.486
140.243
139.469
139.278
138.404
138.271
137.271
137.181
136.048
136.02
134.703
134.729
133.208
133.28
131.503
131.568
129.467
129.455
127.006
126.797
123.914
123.358
119.903
118.546
114.388
111.097
106.365
101.207
96.7414
90.4309
87.354
79.0114
72.5029
185.728
184.8
183.033
181.514
180.553
180.145
180.133
180.333
180.634
180.985
181.364
181.777
182.266
182.873
183.613
184.459
185.367
186.307
187.251
188.156
188.978
189.701
190.333
190.885
191.354
191.723
191.988
192.175
192.295
192.339
192.32
192.254
192.143
191.988
191.801
191.588
191.351
191.092
190.815
190.524
190.22
189.905
189.581
189.248
188.909
188.563
188.213
187.858
187.5
187.138
186.774
186.406
186.037
185.666
185.293
184.918
184.542
184.165
183.787
183.408
183.028
182.648
182.266
181.884
181.502
181.119
180.736
180.352
179.968
179.583
179.198
178.813
178.428
178.042
177.657
177.271
176.885
176.498
176.112
175.725
175.339
174.952
174.565
174.179
173.792
173.405
173.018
172.63
172.243
171.856
171.469
171.081
170.694
170.307
169.919
169.532
169.144
168.757
168.369
167.981
167.594
167.206
166.818
166.43
166.043
165.655
165.267
164.879
164.491
164.103
163.715
163.327
162.939
162.551
162.162
161.774
161.386
160.997
160.608
160.22
159.831
159.442
159.053
158.664
158.274
157.885
157.495
157.105
156.715
156.324
155.934
155.542
155.151
154.759
154.367
153.974
153.581
153.187
152.793
152.398
152.002
151.605
151.207
150.809
150.409
150.007
149.604
149.199
148.793
148.383
147.972
147.554
147.139
146.707
146.286
145.828
145.408
144.909
144.518
143.994
143.682
143.154
142.88
142.292
141.956
141.287
140.953
140.246
139.975
139.206
138.975
138.11
137.913
136.932
136.763
135.652
135.522
134.236
134.151
132.651
132.584
130.834
130.712
128.63
128.393
125.964
125.445
122.556
121.57
118.101
116.135
112.01
108.514
104.383
100.001
96.7706
91.4096
88.9014
80.8919
73.8672
186.159
185.288
183.58
182.095
181.148
180.741
180.73
180.938
181.249
181.606
181.985
182.396
182.865
183.426
184.105
184.888
185.727
186.594
187.475
188.325
189.096
189.776
190.374
190.895
191.342
191.698
191.952
192.129
192.245
192.289
192.268
192.202
192.093
191.941
191.756
191.546
191.312
191.056
190.783
190.494
190.193
189.88
189.557
189.226
188.889
188.545
188.196
187.843
187.486
187.125
186.762
186.396
186.027
185.657
185.285
184.911
184.536
184.159
183.782
183.403
183.024
182.644
182.263
181.881
181.499
181.116
180.733
180.349
179.965
179.581
179.196
178.811
178.426
178.041
177.655
177.269
176.884
176.497
176.111
175.725
175.338
174.952
174.565
174.178
173.791
173.404
173.017
172.63