/*--------------------------------*- C++ -*----------------------------------*\
| =========                 |                                                 |
| \\      /  F ield         | OpenFOAM: The Open Source CFD Toolbox           |
|  \\    /   O peration     | Version:  2.4.0                                 |
|   \\  /    A nd           | Web:      www.OpenFOAM.org                      |
|    \\/     M anipulation  |                                                 |
\*---------------------------------------------------------------------------*/
FoamFile
{
    version     2.0;
    format      ascii;
    class       volVectorField;
    location    "0.104";
    object      U;
}
// * * * * * * * * * * * * * * * * * * * * * * * * * * * * * * * * * * * * * //

dimensions      [0 1 -1 0 0 0 0];

internalField   nonuniform List<vector> 
17600
(
(5.32855 0.309375 0)
(2.98613 0.0606983 0)
(2.19716 -0.00159674 0)
(1.84634 -0.00350137 0)
(1.70844 -0.00142437 0)
(1.60923 -9.94082e-05 0)
(1.54278 8.09091e-05 0)
(1.47484 -0.000121687 0)
(1.44457 -0.000294755 0)
(1.39231 0.000416453 0)
(1.39676 -0.00134169 0)
(1.33804 0.00162263 0)
(1.36581 -0.00165898 0)
(1.31832 -0.000137798 0)
(1.34111 0.00121927 0)
(1.32632 -0.00273882 0)
(1.39272 -0.00239443 0)
(1.40088 0.00171313 0)
(1.54686 -0.00449297 0)
(1.47715 -0.0436214 0)
(8.60042 0.87173 0)
(6.95004 0.383599 0)
(5.81507 0.121959 0)
(5.05167 0.0510239 0)
(4.65912 0.0278355 0)
(4.37087 0.0206739 0)
(4.19198 0.0164796 0)
(4.0042 0.012042 0)
(3.91739 0.00927178 0)
(3.7692 0.008108 0)
(3.77451 0.00269268 0)
(3.60108 0.00907523 0)
(3.69377 -0.00145375 0)
(3.51255 0.0036981 0)
(3.6008 0.0030087 0)
(3.53312 -0.00882592 0)
(3.63017 -0.0117872 0)
(3.62387 -0.00675426 0)
(3.92578 -0.0290486 0)
(3.90023 -0.061143 0)
(9.85955 1.02165 0)
(9.34363 0.577419 0)
(8.48301 0.241936 0)
(7.63317 0.130249 0)
(7.10514 0.0810444 0)
(6.68226 0.0579268 0)
(6.42654 0.0450417 0)
(6.14493 0.0335497 0)
(6.01896 0.0271153 0)
(5.78513 0.0212296 0)
(5.80212 0.0128584 0)
(5.51306 0.0199234 0)
(5.68329 0.00217093 0)
(5.36268 0.012414 0)
(5.51644 0.00436816 0)
(5.39583 -0.0115586 0)
(5.49765 -0.0188532 0)
(5.43918 -0.016659 0)
(5.84377 -0.0704824 0)
(5.79642 -0.102931 0)
(10.1645 0.947053 0)
(10.5634 0.668495 0)
(10.273 0.331588 0)
(9.62983 0.210271 0)
(9.14178 0.146601 0)
(8.66878 0.107426 0)
(8.39144 0.083609 0)
(8.04414 0.0627332 0)
(7.90809 0.0523197 0)
(7.59467 0.0385907 0)
(7.64752 0.0292053 0)
(7.23551 0.0333354 0)
(7.49816 0.00909642 0)
(7.04762 0.0262605 0)
(7.25004 0.00522165 0)
(7.09311 -0.0117989 0)
(7.19484 -0.0214669 0)
(7.05959 -0.0274424 0)
(7.54212 -0.113576 0)
(7.41858 -0.169701 0)
(10.082 0.804769 0)
(10.9093 0.669404 0)
(11.1524 0.358643 0)
(10.8751 0.256419 0)
(10.6133 0.201766 0)
(10.2121 0.157226 0)
(9.99834 0.125717 0)
(9.63182 0.0951955 0)
(9.53601 0.0824596 0)
(9.15235 0.058025 0)
(9.27957 0.0502057 0)
(8.74724 0.0489888 0)
(9.10651 0.0169087 0)
(8.56646 0.0456568 0)
(8.78103 0.00533711 0)
(8.62198 -0.0111175 0)
(8.71791 -0.0188862 0)
(8.5197 -0.0339582 0)
(9.00947 -0.158948 0)
(8.95214 -0.215979 0)
(10.0025 0.690352 0)
(10.8347 0.635518 0)
(11.3388 0.336336 0)
(11.3406 0.252194 0)
(11.3754 0.222332 0)
(11.1521 0.188651 0)
(11.1063 0.159143 0)
(10.7894 0.123006 0)
(10.8062 0.112679 0)
(10.3775 0.0762122 0)
(10.6237 0.0727502 0)
(10.0008 0.0668329 0)
(10.4403 0.0221922 0)
(9.88631 0.0702964 0)
(10.0659 0.00511253 0)
(9.94575 -0.0114217 0)
(10.0277 -0.0125277 0)
(9.81454 -0.0376554 0)
(10.2081 -0.199956 0)
(10.2924 -0.251491 0)
(9.99886 0.600891 0)
(10.6905 0.601628 0)
(11.2702 0.306926 0)
(11.3413 0.221457 0)
(11.5521 0.208153 0)
(11.4655 0.190882 0)
(11.6225 0.17118 0)
(11.3926 0.133539 0)
(11.5982 0.13309 0)
(11.1666 0.0864374 0)
(11.573 0.089916 0)
(10.9316 0.0853645 0)
(11.4167 0.0210731 0)
(10.9443 0.097398 0)
(11.0562 0.00572614 0)
(11.0052 -0.0156498 0)
(11.0783 -0.00335847 0)
(10.8812 -0.0349558 0)
(11.1917 -0.244061 0)
(11.267 -0.280563 0)
(10.0337 0.522644 0)
(10.568 0.56437 0)
(11.1701 0.288239 0)
(11.241 0.194384 0)
(11.5061 0.185233 0)
(11.4299 0.17672 0)
(11.7147 0.167585 0)
(11.5075 0.125706 0)
(11.8915 0.138593 0)
(11.4815 0.083082 0)
(12.0312 0.0932658 0)
(11.4682 0.100048 0)
(11.9494 0.00875393 0)
(11.6486 0.120693 0)
(11.6919 0.00540497 0)
(11.7374 -0.0236736 0)
(11.8044 0.000526018 0)
(11.6417 -0.0212712 0)
(11.9487 -0.30265 0)
(11.959 -0.277038 0)
(10.0688 0.451695 0)
(10.4912 0.522289 0)
(11.0752 0.272359 0)
(11.1476 0.170567 0)
(11.45 0.163885 0)
(11.3335 0.16054 0)
(11.6569 0.158614 0)
(11.4472 0.111854 0)
(11.8528 0.133008 0)
(11.5367 0.0730448 0)
(12.0675 0.0814527 0)
(11.6628 0.110732 0)
(12.0765 -0.0168401 0)
(11.9505 0.1369 0)
(11.9449 1.15522e-05 0)
(12.1047 -0.0403938 0)
(12.1359 0.00604086 0)
(12.0765 -0.0245539 0)
(12.3322 -0.342171 0)
(12.3076 -0.31565 0)
(10.0666 0.387237 0)
(10.4601 0.475788 0)
(11.007 0.263218 0)
(11.0624 0.145403 0)
(11.3934 0.143887 0)
(11.2898 0.144715 0)
(11.5477 0.149117 0)
(11.4738 0.100954 0)
(11.6162 0.123281 0)
(11.6214 0.0590199 0)
(11.8763 0.0685622 0)
(11.7002 0.111723 0)
(12.0507 -0.0408221 0)
(11.9428 0.142448 0)
(11.9791 -0.00599225 0)
(12.1824 -0.0641589 0)
(12.1517 0.0130482 0)
(12.2111 -0.0498567 0)
(12.3939 -0.349595 0)
(12.3208 -0.392127 0)
(10.0435 0.326511 0)
(10.4113 0.428374 0)
(10.9649 0.256548 0)
(10.9938 0.126394 0)
(11.3589 0.119715 0)
(11.2296 0.135857 0)
(11.4753 0.128957 0)
(11.5545 0.104789 0)
(11.375 0.108383 0)
(11.7387 0.0450386 0)
(11.6391 0.0617971 0)
(11.7091 0.100839 0)
(12.0109 -0.0572745 0)
(11.7873 0.148852 0)
(12.0099 -0.0203342 0)
(12.136 -0.080202 0)
(12.0226 0.0132059 0)
(12.2233 -0.069104 0)
(12.3233 -0.369275 0)
(12.1511 -0.482907 0)
(10.019 0.276777 0)
(10.3492 0.375615 0)
(10.9284 0.249201 0)
(10.9474 0.106577 0)
(11.334 0.101474 0)
(11.1262 0.124655 0)
(11.5112 0.101275 0)
(11.4752 0.114409 0)
(11.3685 0.0940922 0)
(11.7335 0.0310461 0)
(11.4844 0.0637112 0)
(11.7354 0.0761336 0)
(11.9058 -0.0569871 0)
(11.6834 0.141556 0)
(12.0446 -0.0343393 0)
(12.0565 -0.0886772 0)
(11.8733 0.0153297 0)
(12.2252 -0.105634 0)
(12.2332 -0.36703 0)
(11.9966 -0.534436 0)
(9.99406 0.233582 0)
(10.3346 0.322195 0)
(10.85 0.235403 0)
(10.9373 0.0907586 0)
(11.2564 0.088902 0)
(11.1107 0.105366 0)
(11.5058 0.0783293 0)
(11.3179 0.120298 0)
(11.5096 0.0726011 0)
(11.6011 0.0320428 0)
(11.4379 0.0580995 0)
(11.7902 0.0536895 0)
(11.7253 -0.0513408 0)
(11.6938 0.123942 0)
(12.0687 -0.0474255 0)
(11.8687 -0.0832908 0)
(11.8602 0.001583 0)
(12.1952 -0.128012 0)
(12.1381 -0.37123 0)
(11.9251 -0.577027 0)
(9.98488 0.194366 0)
(10.345 0.270232 0)
(10.7237 0.215581 0)
(10.957 0.0787866 0)
(11.158 0.0757818 0)
(11.188 0.0860449 0)
(11.3675 0.0667128 0)
(11.2957 0.111584 0)
(11.544 0.0555712 0)
(11.4511 0.0412159 0)
(11.5139 0.038619 0)
(11.7591 0.0441903 0)
(11.5833 -0.0435949 0)
(11.7847 0.0894395 0)
(11.9789 -0.0385532 0)
(11.7258 -0.0854493 0)
(11.9475 -0.0224997 0)
(12.121 -0.149438 0)
(12.064 -0.371801 0)
(11.9182 -0.59923 0)
(9.99408 0.155498 0)
(10.3136 0.230175 0)
(10.6376 0.186323 0)
(10.9835 0.0668265 0)
(11.0805 0.0620394 0)
(11.2425 0.071993 0)
(11.2089 0.0560297 0)
(11.3808 0.093303 0)
(11.4371 0.0514086 0)
(11.4039 0.0361958 0)
(11.609 0.0203319 0)
(11.616 0.0463855 0)
(11.5924 -0.0487374 0)
(11.823 0.0603295 0)
(11.8039 -0.0209493 0)
(11.7876 -0.104781 0)
(11.9491 -0.0434422 0)
(12.0596 -0.164603 0)
(11.9897 -0.374045 0)
(11.9113 -0.60488 0)
(10.0001 0.121952 0)
(10.2657 0.186615 0)
(10.6389 0.151998 0)
(10.9549 0.0565278 0)
(11.043 0.0505613 0)
(11.217 0.0620715 0)
(11.1744 0.039728 0)
(11.4018 0.0760851 0)
(11.3288 0.0517253 0)
(11.4631 0.0180345 0)
(11.5835 0.0156418 0)
(11.5057 0.0453097 0)
(11.6906 -0.0627127 0)
(11.7356 0.05009 0)
(11.7162 -0.0188273 0)
(11.8871 -0.123121 0)
(11.8679 -0.0602258 0)
(11.9874 -0.16975 0)
(11.9408 -0.382246 0)
(11.9057 -0.612718 0)
(10.0078 0.094066 0)
(10.2456 0.141364 0)
(10.6428 0.117307 0)
(10.8721 0.0502619 0)
(11.0606 0.0388193 0)
(11.1637 0.0471257 0)
(11.2344 0.0225312 0)
(11.3057 0.0659766 0)
(11.3171 0.0421584 0)
(11.5114 0.00434831 0)
(11.456 0.0175762 0)
(11.5456 0.0333698 0)
(11.7253 -0.0709454 0)
(11.5952 0.0464365 0)
(11.7647 -0.0246099 0)
(11.8706 -0.140789 0)
(11.7938 -0.0639397 0)
(11.8987 -0.176833 0)
(11.9735 -0.399523 0)
(11.8796 -0.632193 0)
(10.0181 0.0626976 0)
(10.2298 0.0974444 0)
(10.6041 0.0890002 0)
(10.8415 0.0386847 0)
(11.0806 0.0261514 0)
(11.1459 0.0328618 0)
(11.2402 0.010835 0)
(11.2083 0.0583192 0)
(11.3818 0.0238274 0)
(11.4686 0.00121752 0)
(11.3796 0.0155434 0)
(11.6509 0.00999352 0)
(11.6365 -0.0593849 0)
(11.5331 0.0313326 0)
(11.8283 -0.0370303 0)
(11.7997 -0.140927 0)
(11.7406 -0.0737146 0)
(11.8921 -0.194185 0)
(11.9794 -0.409285 0)
(11.8017 -0.636285 0)
(10.0047 0.0392565 0)
(10.2259 0.0538063 0)
(10.5771 0.0578758 0)
(10.8712 0.0219392 0)
(11.0492 0.0174037 0)
(11.1606 0.0178409 0)
(11.1755 0.00602996 0)
(11.2197 0.037106 0)
(11.4263 0.010259 0)
(11.3706 0.00307423 0)
(11.4323 0.000346338 0)
(11.6525 -0.0016907 0)
(11.5386 -0.0487962 0)
(11.591 0.0100022 0)
(11.8111 -0.0510002 0)
(11.7665 -0.137809 0)
(11.718 -0.0883626 0)
(11.9244 -0.218387 0)
(11.8993 -0.40196 0)
(11.7566 -0.643384 0)
(9.98352 0.0110947 0)
(10.2491 0.011519 0)
(10.5754 0.0228875 0)
(10.8661 0.0108462 0)
(11.024 0.00730439 0)
(11.1695 0.00950757 0)
(11.1388 -0.00798293 0)
(11.2878 0.0174982 0)
(11.3905 0.00252501 0)
(11.3119 0.0029898 0)
(11.5195 -0.0185895 0)
(11.5712 -0.000885068 0)
(11.5403 -0.0498171 0)
(11.652 -0.0102836 0)
(11.7682 -0.052782 0)
(11.7455 -0.142499 0)
(11.7373 -0.10001 0)
(11.8917 -0.232471 0)
(11.8566 -0.403832 0)
(11.7373 -0.635986 0)
(9.98939 -0.0124471 0)
(10.2665 -0.0355847 0)
(10.5636 -0.00390344 0)
(10.8343 -0.00487453 0)
(11.0566 -0.00102891 0)
(11.1419 -0.00504866 0)
(11.164 -0.0188525 0)
(11.3139 -0.00503089 0)
(11.3129 0.00629765 0)
(11.3538 -0.0133725 0)
(11.5424 -0.0262021 0)
(11.5224 -0.0076265 0)
(11.5846 -0.0486969 0)
(11.6493 -0.0319926 0)
(11.7523 -0.0485451 0)
(11.7138 -0.148416 0)
(11.7696 -0.112956 0)
(11.8579 -0.2435 0)
(11.8534 -0.399384 0)
(11.6755 -0.613808 0)
(10.0143 -0.0420132 0)
(10.2595 -0.0760652 0)
(10.5405 -0.032388 0)
(10.8495 -0.0226891 0)
(11.0848 -0.00986438 0)
(11.1031 -0.0141411 0)
(11.2147 -0.0378491 0)
(11.2926 -0.0134967 0)
(11.2787 -0.00321879 0)
(11.4406 -0.0251552 0)
(11.5079 -0.0360912 0)
(11.5161 -0.00633348 0)
(11.6044 -0.061169 0)
(11.6474 -0.039359 0)
(11.7248 -0.0573207 0)
(11.7347 -0.148087 0)
(11.7758 -0.135655 0)
(11.8521 -0.243271 0)
(11.8278 -0.402208 0)
(11.6501 -0.580584 0)
(10.0264 -0.0705478 0)
(10.2412 -0.115795 0)
(10.5433 -0.0626038 0)
(10.9065 -0.0422387 0)
(11.0637 -0.014622 0)
(11.1103 -0.028287 0)
(11.2538 -0.0538764 0)
(11.2577 -0.0216666 0)
(11.3152 -0.0173082 0)
(11.476 -0.0355686 0)
(11.4709 -0.0385532 0)
(11.5319 -0.0126817 0)
(11.627 -0.0697186 0)
(11.6495 -0.0454365 0)
(11.7147 -0.0680008 0)
(11.772 -0.147581 0)
(11.7612 -0.154968 0)
(11.8435 -0.237813 0)
(11.8091 -0.418976 0)
(11.6911 -0.530063 0)
(10.0154 -0.0974536 0)
(10.2366 -0.156662 0)
(10.588 -0.0971508 0)
(10.9504 -0.059242 0)
(11.027 -0.016021 0)
(11.1668 -0.051166 0)
(11.2653 -0.0610922 0)
(11.2316 -0.0353406 0)
(11.3796 -0.0288821 0)
(11.464 -0.0462607 0)
(11.4658 -0.036437 0)
(11.57 -0.0302187 0)
(11.6551 -0.0663996 0)
(11.636 -0.0626332 0)
(11.7416 -0.063802 0)
(11.7698 -0.163057 0)
(11.7721 -0.154685 0)
(11.8339 -0.255568 0)
(11.8264 -0.409037 0)
(11.6914 -0.514876 0)
(9.99504 -0.12954 0)
(10.2651 -0.198866 0)
(10.6539 -0.134798 0)
(10.9372 -0.06515 0)
(11.0383 -0.0269911 0)
(11.2282 -0.06777 0)
(11.2355 -0.0708996 0)
(11.2582 -0.0442506 0)
(11.4241 -0.0500733 0)
(11.4518 -0.0431383 0)
(11.4961 -0.050557 0)
(11.6128 -0.0357912 0)
(11.6521 -0.0727363 0)
(11.653 -0.0666882 0)
(11.7575 -0.0756788 0)
(11.7864 -0.163609 0)
(11.7875 -0.165856 0)
(11.842 -0.267167 0)
(11.8428 -0.39785 0)
(11.686 -0.532282 0)
(9.98937 -0.157545 0)
(10.3137 -0.249306 0)
(10.6849 -0.161757 0)
(10.9186 -0.0752418 0)
(11.1076 -0.0404285 0)
(11.238 -0.086669 0)
(11.2278 -0.0729451 0)
(11.3185 -0.0666104 0)
(11.4418 -0.0591041 0)
(11.4701 -0.0496105 0)
(11.5372 -0.0591428 0)
(11.6296 -0.0445396 0)
(11.6656 -0.0739493 0)
(11.6844 -0.0752626 0)
(11.7768 -0.0850093 0)
(11.8184 -0.165764 0)
(11.8036 -0.175624 0)
(11.8525 -0.275049 0)
(11.8594 -0.397867 0)
(11.702 -0.543754 0)
(9.99543 -0.198964 0)
(10.3508 -0.293232 0)
(10.6898 -0.18546 0)
(10.9674 -0.0896928 0)
(11.1607 -0.0557044 0)
(11.2265 -0.0966416 0)
(11.2747 -0.0842012 0)
(11.3641 -0.0819041 0)
(11.4659 -0.0695633 0)
(11.5025 -0.0563964 0)
(11.5703 -0.0659899 0)
(11.65 -0.0548618 0)
(11.7006 -0.0723348 0)
(11.7145 -0.0899026 0)
(11.8085 -0.0871684 0)
(11.8443 -0.171906 0)
(11.8272 -0.182284 0)
(11.8765 -0.283489 0)
(11.8783 -0.401622 0)
(11.7091 -0.537228 0)
(10.0017 -0.238431 0)
(10.3713 -0.336279 0)
(10.7299 -0.209642 0)
(11.0474 -0.106269 0)
(11.1666 -0.0688677 0)
(11.2563 -0.111354 0)
(11.3282 -0.0963649 0)
(11.4009 -0.0949098 0)
(11.501 -0.0819749 0)
(11.5388 -0.060385 0)
(11.6052 -0.0760229 0)
(11.6903 -0.0632097 0)
(11.7335 -0.0738826 0)
(11.7514 -0.100251 0)
(11.838 -0.0919875 0)
(11.8806 -0.176112 0)
(11.8613 -0.190467 0)
(11.9058 -0.287044 0)
(11.9005 -0.410587 0)
(11.7303 -0.52569 0)
(10.0125 -0.284245 0)
(10.3974 -0.385715 0)
(10.8127 -0.225469 0)
(11.0824 -0.123993 0)
(11.1898 -0.0831026 0)
(11.3015 -0.127679 0)
(11.3725 -0.107342 0)
(11.4427 -0.108237 0)
(11.5474 -0.0907455 0)
(11.5784 -0.0686045 0)
(11.6514 -0.083992 0)
(11.7295 -0.0719188 0)
(11.7697 -0.0758434 0)
(11.7863 -0.108115 0)
(11.8868 -0.100581 0)
(11.9162 -0.178571 0)
(11.9044 -0.194125 0)
(11.9427 -0.298249 0)
(11.9221 -0.410842 0)
(11.7806 -0.529128 0)
(10.0384 -0.336506 0)
(10.4311 -0.431223 0)
(10.8932 -0.238681 0)
(11.0887 -0.140251 0)
(11.2522 -0.102084 0)
(11.3303 -0.145695 0)
(11.4354 -0.118544 0)
(11.4841 -0.118641 0)
(11.6085 -0.104613 0)
(11.6121 -0.0721148 0)
(11.707 -0.0948739 0)
(11.7596 -0.0781239 0)
(11.8225 -0.0790205 0)
(11.83 -0.117668 0)
(11.9514 -0.108332 0)
(11.9443 -0.179227 0)
(11.9668 -0.198877 0)
(11.9606 -0.309146 0)
(11.9426 -0.39775 0)
(11.7982 -0.550567 0)
(10.0668 -0.394953 0)
(10.4589 -0.479526 0)
(10.9641 -0.248226 0)
(11.1096 -0.158449 0)
(11.331 -0.126104 0)
(11.365 -0.159457 0)
(11.5126 -0.131806 0)
(11.5225 -0.127767 0)
(11.679 -0.11438 0)
(11.6339 -0.0783374 0)
(11.787 -0.10369 0)
(11.7846 -0.0865511 0)
(11.9041 -0.0822581 0)
(11.8651 -0.128383 0)
(12.0184 -0.112642 0)
(11.9452 -0.182428 0)
(12.0072 -0.199787 0)
(11.9087 -0.309371 0)
(11.8991 -0.389474 0)
(11.6353 -0.56235 0)
(10.0734 -0.460684 0)
(10.493 -0.522919 0)
(11.038 -0.257831 0)
(11.1671 -0.182433 0)
(11.4135 -0.148933 0)
(11.417 -0.175147 0)
(11.5831 -0.14488 0)
(11.578 -0.136337 0)
(11.7376 -0.124159 0)
(11.6743 -0.0873337 0)
(11.8614 -0.112251 0)
(11.7907 -0.0948945 0)
(11.9471 -0.0879016 0)
(11.836 -0.132788 0)
(11.9868 -0.118341 0)
(11.8228 -0.178249 0)
(11.8844 -0.195697 0)
(11.6617 -0.30224 0)
(11.6027 -0.368883 0)
(11.1735 -0.544845 0)
(10.0553 -0.530995 0)
(10.55 -0.56366 0)
(11.1343 -0.274448 0)
(11.258 -0.206522 0)
(11.4883 -0.17497 0)
(11.4844 -0.186828 0)
(11.6404 -0.157903 0)
(11.6244 -0.144343 0)
(11.7331 -0.132183 0)
(11.6582 -0.0952616 0)
(11.7872 -0.117737 0)
(11.6409 -0.0967058 0)
(11.7659 -0.0913869 0)
(11.5654 -0.127811 0)
(11.6524 -0.118098 0)
(11.4097 -0.162404 0)
(11.4099 -0.18884 0)
(11.0875 -0.272398 0)
(10.9353 -0.345911 0)
(10.4111 -0.475685 0)
(10.0261 -0.608984 0)
(10.6487 -0.598946 0)
(11.2584 -0.295455 0)
(11.351 -0.233239 0)
(11.5391 -0.200332 0)
(11.4961 -0.19702 0)
(11.5696 -0.165876 0)
(11.4735 -0.146898 0)
(11.4662 -0.130092 0)
(11.3234 -0.0964239 0)
(11.335 -0.109464 0)
(11.1132 -0.0902595 0)
(11.1716 -0.0837593 0)
(10.8946 -0.114159 0)
(10.9204 -0.104754 0)
(10.624 -0.143364 0)
(10.5708 -0.165757 0)
(10.1815 -0.238609 0)
(9.97239 -0.303631 0)
(9.38303 -0.396165 0)
(10.0219 -0.69657 0)
(10.7909 -0.632166 0)
(11.3502 -0.328344 0)
(11.3364 -0.261372 0)
(11.3695 -0.217055 0)
(11.1698 -0.192733 0)
(11.0706 -0.156485 0)
(10.8414 -0.132059 0)
(10.7052 -0.112779 0)
(10.4936 -0.0826591 0)
(10.4128 -0.0897172 0)
(10.1566 -0.0745358 0)
(10.1644 -0.0686152 0)
(9.85798 -0.0929001 0)
(9.84479 -0.0868169 0)
(9.5293 -0.118251 0)
(9.43865 -0.137289 0)
(9.02155 -0.199412 0)
(8.77329 -0.247645 0)
(8.14186 -0.330484 0)
(10.0933 -0.809221 0)
(10.8741 -0.666928 0)
(11.1719 -0.353315 0)
(10.8638 -0.262975 0)
(10.6135 -0.19854 0)
(10.2214 -0.159693 0)
(9.97375 -0.124408 0)
(9.66296 -0.101241 0)
(9.45966 -0.0844076 0)
(9.22964 -0.0611524 0)
(9.10512 -0.065455 0)
(8.85802 -0.0558433 0)
(8.8354 -0.0507294 0)
(8.53758 -0.0699113 0)
(8.50045 -0.0668355 0)
(8.19269 -0.0907921 0)
(8.07659 -0.107146 0)
(7.66318 -0.153698 0)
(7.38322 -0.19551 0)
(6.76783 -0.249382 0)
(10.17 -0.949933 0)
(10.5369 -0.666724 0)
(10.2931 -0.32806 0)
(9.61661 -0.214573 0)
(9.14555 -0.144921 0)
(8.67158 -0.108743 0)
(8.37518 -0.083137 0)
(8.0607 -0.0664781 0)
(7.85123 -0.0550497 0)
(7.64055 -0.0392419 0)
(7.51029 -0.0422071 0)
(7.29748 -0.0376307 0)
(7.25838 -0.0331067 0)
(6.99728 -0.0477041 0)
(6.94561 -0.0464996 0)
(6.66592 -0.0637021 0)
(6.53755 -0.0754925 0)
(6.14968 -0.109284 0)
(5.86452 -0.139543 0)
(5.26826 -0.177379 0)
(9.861 -1.02307 0)
(9.32502 -0.576381 0)
(8.49985 -0.239861 0)
(7.62235 -0.132804 0)
(7.10958 -0.080413 0)
(6.68061 -0.0583937 0)
(6.4164 -0.045005 0)
(6.1521 -0.0355794 0)
(5.97653 -0.0297028 0)
(5.80787 -0.0203771 0)
(5.69952 -0.0226133 0)
(5.53292 -0.0216449 0)
(5.49019 -0.0177277 0)
(5.28446 -0.0279487 0)
(5.22579 -0.0276359 0)
(4.9918 -0.0384155 0)
(4.86471 -0.0454615 0)
(4.52718 -0.0671872 0)
(4.25554 -0.0854834 0)
(3.71697 -0.115107 0)
(8.60032 -0.872288 0)
(6.93841 -0.38322 0)
(5.82606 -0.120911 0)
(5.04565 -0.0522525 0)
(4.66178 -0.0277745 0)
(4.36763 -0.0206432 0)
(4.18597 -0.0166086 0)
(4.0059 -0.0128549 0)
(3.88738 -0.0110455 0)
(3.77649 -0.00685335 0)
(3.70491 -0.0084413 0)
(3.59293 -0.00920192 0)
(3.55727 -0.00636739 0)
(3.41973 -0.0121842 0)
(3.36404 -0.0121768 0)
(3.19454 -0.0173283 0)
(3.0859 -0.0203186 0)
(2.82991 -0.0311438 0)
(2.59914 -0.0395487 0)
(2.18431 -0.0594004 0)
(5.32816 -0.309449 0)
(2.98155 -0.0606534 0)
(2.2011 0.00178117 0)
(1.84537 0.00327695 0)
(1.7085 0.00136985 0)
(1.6069 0.000234531 0)
(1.54052 -0.000178748 0)
(1.47409 0.000127558 0)
(1.43023 -0.000299026 0)
(1.39078 0.000410741 0)
(1.36636 -0.000229171 0)
(1.32146 -0.00089747 0)
(1.30399 0.000306241 0)
(1.25109 -0.00122915 0)
(1.21795 -0.000961684 0)
(1.14194 -0.00183686 0)
(1.08268 -0.00178068 0)
(0.961489 -0.00360347 0)
(0.833837 -0.0050886 0)
(0.633368 -0.00811825 0)
(2.22451 0.668536 0)
(3.65359 0.187143 0)
(4.99674 -0.137645 0)
(5.26402 -0.620985 0)
(5.98304 -1.14215 0)
(6.76866 -1.19414 0)
(7.11891 -1.97729 0)
(8.40682 -3.04748 0)
(8.17276 -3.99206 0)
(8.55787 -5.00079 0)
(7.8415 -5.19919 0)
(7.38986 -5.36887 0)
(7.09997 -5.03847 0)
(5.73809 -4.1365 0)
(6.06717 -2.94533 0)
(5.38762 -1.89147 0)
(3.19343 -0.702459 0)
(2.86761 -0.740429 0)
(4.05978 0.168906 0)
(3.3577 4.05286 0)
(4.91844 6.27437 0)
(5.71786 5.7102 0)
(6.03883 5.2613 0)
(6.81842 4.6413 0)
(7.05465 3.92437 0)
(7.42727 3.34065 0)
(7.75892 2.9313 0)
(8.18458 2.37775 0)
(7.90421 2.03123 0)
(8.54115 1.72343 0)
(9.99529 0.753757 0)
(10.7861 -0.386516 0)
(10.7987 -0.939625 0)
(10.8394 -1.48164 0)
(11.2559 -2.54047 0)
(11.9367 -3.87876 0)
(12.7207 -5.51077 0)
(13.2132 -6.82423 0)
(13.1621 -7.47463 0)
(12.7933 -7.62705 0)
(12.2595 -7.51721 0)
(11.8359 -7.31579 0)
(11.3675 -6.94607 0)
(10.887 -6.72052 0)
(10.5804 -6.35755 0)
(10.0828 -5.87645 0)
(9.79541 -5.74241 0)
(9.54408 -5.56451 0)
(8.95916 -5.01951 0)
(8.7421 -4.83827 0)
(8.73013 -5.24323 0)
(8.2008 -5.12961 0)
(7.97976 -4.67427 0)
(7.55362 -4.54568 0)
(7.20026 -4.36528 0)
(7.37373 -4.51042 0)
(7.58613 -5.61766 0)
(7.97818 -6.5766 0)
(8.22059 -6.87535 0)
(8.43766 -6.52273 0)
(8.58364 -6.17539 0)
(8.43518 -6.31972 0)
(8.43051 -6.21254 0)
(8.56414 -5.53936 0)
(8.46199 -4.64638 0)
(8.45459 -3.43014 0)
(8.66064 -1.73833 0)
(8.71966 -0.167619 0)
(8.65097 1.20436 0)
(8.74677 2.93039 0)
(8.66029 4.81442 0)
(8.47182 6.32611 0)
(8.42024 7.52697 0)
(8.16415 8.37571 0)
(7.90287 8.36784 0)
(7.67409 8.11963 0)
(7.49382 7.8728 0)
(7.21372 7.20627 0)
(7.10781 6.58709 0)
(7.06308 6.15065 0)
(6.83836 5.87804 0)
(6.91897 5.57136 0)
(6.86707 5.26479 0)
(6.77255 5.04425 0)
(6.88696 4.95662 0)
(6.94358 5.02027 0)
(7.08441 5.07378 0)
(7.04955 5.02247 0)
(7.23334 4.98713 0)
(7.34024 4.97688 0)
(7.71564 5.02009 0)
(8.04525 5.05272 0)
(8.55394 5.00236 0)
(8.99588 4.94724 0)
(9.6052 4.81139 0)
(9.93664 4.36648 0)
(10.3326 3.7965 0)
(10.3122 3.13126 0)
(10.3049 2.41305 0)
(10.2087 1.70275 0)
(9.93145 0.957948 0)
(9.26806 0.11535 0)
(8.81579 -0.797308 0)
(8.44294 -1.20443 0)
(8.49474 -1.12661 0)
(8.06376 -1.2276 0)
(7.7689 -1.80267 0)
(7.26774 -2.46907 0)
(7.37924 -2.791 0)
(7.24083 -2.74767 0)
(7.10288 -2.89329 0)
(6.43531 -3.12729 0)
(6.17006 -3.46571 0)
(5.80384 -3.40404 0)
(5.93148 -3.22815 0)
(5.80358 -3.00071 0)
(5.90973 -3.15752 0)
(5.46679 -3.57253 0)
(5.33466 -4.46809 0)
(4.54854 -4.95248 0)
(4.61885 -6.00287 0)
(4.35581 -5.63777 0)
(4.95309 -6.1441 0)
(4.99806 -5.73259 0)
(5.27519 -6.50399 0)
(5.59801 -6.37302 0)
(5.73385 -6.86626 0)
(6.11751 -7.30006 0)
(6.43425 -7.50849 0)
(7.03186 -7.02932 0)
(7.49479 -6.15394 0)
(7.69701 -5.19721 0)
(8.10749 -4.12758 0)
(8.69084 -2.71726 0)
(9.08516 -0.847063 0)
(9.15115 0.846112 0)
(9.31588 2.19656 0)
(9.68441 3.8691 0)
(9.99622 5.66597 0)
(9.9559 6.82015 0)
(9.85182 7.42422 0)
(9.83533 7.98113 0)
(9.97411 8.51083 0)
(9.95961 8.88585 0)
(9.94937 8.86237 0)
(9.85771 8.40718 0)
(9.61525 7.91042 0)
(9.60165 7.71083 0)
(10.1225 7.57482 0)
(10.5795 7.20944 0)
(10.6617 6.48098 0)
(11.0282 5.38501 0)
(11.025 3.9767 0)
(11.0552 2.65302 0)
(10.9861 1.35313 0)
(10.8373 -0.178932 0)
(10.5491 -1.53487 0)
(10.0531 -2.49428 0)
(9.54317 -3.13434 0)
(9.15219 -3.82424 0)
(8.64566 -4.37676 0)
(8.43092 -4.6214 0)
(7.62087 -4.35502 0)
(7.53648 -3.68486 0)
(6.72379 -2.89687 0)
(6.79649 -2.1091 0)
(6.18924 -1.56548 0)
(6.36439 -1.06719 0)
(5.88797 -0.82703 0)
(6.13639 -0.482928 0)
(5.65838 -0.377165 0)
(6.04643 -0.0667013 0)
(5.513 -0.0347362 0)
(6.01781 0.28822 0)
(5.39095 0.303219 0)
(6.02757 0.55584 0)
(5.39523 0.587873 0)
(5.99672 0.736617 0)
(5.52813 0.872984 0)
(5.87979 0.901602 0)
(5.73557 1.13193 0)
(5.7536 1.04884 0)
(5.95152 1.36272 0)
(5.66551 1.30838 0)
(6.07077 1.55641 0)
(5.72585 1.64535 0)
(6.05839 1.7467 0)
(5.93256 2.03427 0)
(5.93201 2.07217 0)
(6.11836 2.35892 0)
(5.85345 2.57153 0)
(6.14227 2.70682 0)
(5.95735 3.19309 0)
(5.73745 3.40547 0)
(5.89253 3.76973 0)
(5.77414 4.39962 0)
(5.63495 4.76915 0)
(5.5581 5.75868 0)
(6.09501 6.79279 0)
(3.39111 9.87377 0)
(4.73125 0.387652 0)
(5.23621 -0.153798 0)
(6.35384 -0.406752 0)
(7.0242 -0.622728 0)
(7.24099 -1.27201 0)
(8.18421 -1.4569 0)
(8.42043 -2.12472 0)
(9.52783 -3.25356 0)
(9.14495 -3.95867 0)
(9.34174 -4.90619 0)
(8.63378 -5.02065 0)
(8.07772 -5.14642 0)
(7.70827 -4.8072 0)
(6.35641 -3.87732 0)
(6.49229 -2.87814 0)
(6.24539 -1.58754 0)
(4.07208 -0.121933 0)
(4.21307 -0.75925 0)
(4.56501 -0.0852325 0)
(3.26682 3.81775 0)
(5.47769 5.7635 0)
(5.98775 5.33527 0)
(6.38399 4.94987 0)
(7.12169 4.38863 0)
(7.46657 3.7543 0)
(7.91698 3.17891 0)
(8.41681 2.79772 0)
(8.75419 2.34929 0)
(8.6186 1.87611 0)
(9.46949 1.3256 0)
(10.7466 0.356041 0)
(11.3544 -0.573483 0)
(11.1953 -0.933681 0)
(11.317 -1.5104 0)
(11.9442 -2.76037 0)
(12.7195 -4.23122 0)
(13.3908 -5.77948 0)
(13.6186 -6.85095 0)
(13.3907 -7.35091 0)
(12.9868 -7.44053 0)
(12.395 -7.32617 0)
(11.9815 -7.12254 0)
(11.4893 -6.73363 0)
(10.9848 -6.52468 0)
(10.6744 -6.20514 0)
(10.2122 -5.72847 0)
(9.96483 -5.61572 0)
(9.61469 -5.40609 0)
(9.05284 -4.87236 0)
(8.89416 -4.77314 0)
(8.76495 -5.1124 0)
(8.17067 -4.95511 0)
(7.94319 -4.52321 0)
(7.40554 -4.39344 0)
(7.06241 -4.3177 0)
(7.3678 -4.62457 0)
(7.46937 -5.74689 0)
(7.90057 -6.65563 0)
(8.05403 -6.98167 0)
(8.25263 -6.62182 0)
(8.38494 -6.16647 0)
(8.18189 -6.27866 0)
(8.08553 -6.21955 0)
(8.184 -5.54704 0)
(8.09464 -4.60166 0)
(8.06198 -3.41332 0)
(8.18485 -1.76369 0)
(8.22058 -0.190647 0)
(8.14156 1.2152 0)
(8.2321 2.97462 0)
(8.10262 4.84094 0)
(7.93304 6.36369 0)
(7.93473 7.58638 0)
(7.72241 8.44784 0)
(7.50287 8.43868 0)
(7.34148 8.21387 0)
(7.20032 7.96884 0)
(6.96534 7.25826 0)
(6.90143 6.63425 0)
(6.89089 6.19707 0)
(6.67064 5.89522 0)
(6.75379 5.583 0)
(6.7654 5.2616 0)
(6.66046 5.03528 0)
(6.79612 4.93333 0)
(6.87672 4.97497 0)
(7.05351 5.03936 0)
(7.06454 5.00765 0)
(7.28382 4.92852 0)
(7.3315 4.86831 0)
(7.73389 4.86652 0)
(8.04519 4.8642 0)
(8.56815 4.81171 0)
(8.97452 4.73671 0)
(9.58329 4.59844 0)
(9.95915 4.22053 0)
(10.3446 3.72682 0)
(10.3668 3.12826 0)
(10.4473 2.40931 0)
(10.392 1.76783 0)
(10.2209 1.13451 0)
(9.54435 0.353206 0)
(9.11058 -0.621366 0)
(8.57979 -1.1342 0)
(8.64054 -1.05543 0)
(8.21215 -1.07329 0)
(8.03384 -1.65496 0)
(7.56233 -2.37199 0)
(7.65908 -2.80098 0)
(7.56441 -2.68684 0)
(7.43111 -2.74428 0)
(6.83624 -2.92166 0)
(6.40484 -3.31384 0)
(6.04074 -3.34581 0)
(6.02538 -3.19701 0)
(5.9457 -3.02815 0)
(5.9961 -3.05294 0)
(5.68159 -3.51234 0)
(5.50382 -4.22836 0)
(4.76929 -4.85456 0)
(4.73937 -5.87862 0)
(4.24231 -5.7023 0)
(4.91765 -6.27991 0)
(4.89689 -5.80463 0)
(5.28296 -6.64273 0)
(5.40335 -6.44794 0)
(5.55468 -7.02261 0)
(6.02988 -7.42925 0)
(6.21776 -7.70735 0)
(6.73223 -7.21493 0)
(7.15622 -6.29676 0)
(7.38018 -5.33468 0)
(7.69197 -4.30855 0)
(8.25957 -2.89193 0)
(8.63942 -0.95415 0)
(8.75893 0.764021 0)
(8.88771 2.13117 0)
(9.27563 3.73341 0)
(9.59795 5.55737 0)
(9.67437 6.81684 0)
(9.59615 7.42689 0)
(9.65436 7.92877 0)
(9.78276 8.50705 0)
(9.92321 8.87479 0)
(9.90689 8.83356 0)
(9.73569 8.41697 0)
(9.80404 7.95799 0)
(9.88052 7.63774 0)
(10.0057 7.3591 0)
(10.6396 7.04369 0)
(10.9885 6.42246 0)
(11.082 5.30651 0)
(11.288 3.95975 0)
(11.2903 2.69113 0)
(11.1387 1.37998 0)
(11.145 -0.0630582 0)
(10.6998 -1.41264 0)
(10.341 -2.26534 0)
(9.73943 -2.96006 0)
(9.35626 -3.63642 0)
(9.00388 -4.21255 0)
(8.44609 -4.44746 0)
(8.08933 -4.12503 0)
(7.42071 -3.53223 0)
(7.07591 -2.68557 0)
(6.6805 -2.03486 0)
(6.41538 -1.41745 0)
(6.26112 -1.05497 0)
(6.05985 -0.711149 0)
(6.00814 -0.510169 0)
(5.87702 -0.279473 0)
(5.84879 -0.126424 0)
(5.81478 0.0944891 0)
(5.68968 0.194209 0)
(5.85598 0.408164 0)
(5.56585 0.433318 0)
(5.94952 0.706959 0)
(5.48296 0.656189 0)
(6.08452 0.906155 0)
(5.49801 0.865929 0)
(6.11101 1.06852 0)
(5.64766 1.1712 0)
(5.98941 1.21174 0)
(5.93197 1.45471 0)
(5.83655 1.38137 0)
(6.1797 1.72874 0)
(5.80061 1.72596 0)
(6.20033 1.92726 0)
(6.04427 2.16457 0)
(6.01995 2.22234 0)
(6.30854 2.59803 0)
(5.90289 2.76184 0)
(6.36311 2.9436 0)
(6.28127 3.45081 0)
(6.05139 3.76107 0)
(6.26635 4.25285 0)
(6.08106 4.90158 0)
(5.53109 6.10753 0)
(7.33124 6.50304 0)
(4.82397 10.6739 0)
(6.94998 0.1146 0)
(7.20873 -0.443484 0)
(7.55934 -0.896903 0)
(8.54451 -0.899978 0)
(8.6406 -1.3827 0)
(9.60355 -1.71918 0)
(9.69383 -2.25745 0)
(10.438 -3.36078 0)
(10.0998 -3.93304 0)
(10.0207 -4.73151 0)
(9.36144 -4.82422 0)
(8.57093 -4.85916 0)
(8.20404 -4.62685 0)
(6.86688 -3.54452 0)
(6.82515 -2.83068 0)
(6.8456 -1.38177 0)
(4.97187 0.344605 0)
(5.54368 -0.465699 0)
(4.7087 -0.177043 0)
(3.46075 3.67008 0)
(6.01285 5.38744 0)
(6.39434 5.15367 0)
(6.70115 4.72305 0)
(7.30626 4.1333 0)
(7.9263 3.48787 0)
(8.31282 2.92285 0)
(8.72282 2.61158 0)
(9.09437 2.18801 0)
(9.51211 1.57548 0)
(10.3959 0.958466 0)
(11.4195 0.0705905 0)
(11.7937 -0.687128 0)
(11.5695 -0.959927 0)
(11.8392 -1.62098 0)
(12.6326 -3.0386 0)
(13.4395 -4.5577 0)
(13.9411 -5.94772 0)
(13.9228 -6.80022 0)
(13.5659 -7.17869 0)
(13.1026 -7.25938 0)
(12.5307 -7.15515 0)
(12.0822 -6.90687 0)
(11.5249 -6.54555 0)
(11.1385 -6.37165 0)
(10.8249 -6.02811 0)
(10.3493 -5.55998 0)
(10.1292 -5.49381 0)
(9.74514 -5.23271 0)
(9.18026 -4.70296 0)
(8.99218 -4.68954 0)
(8.76473 -4.98236 0)
(8.17684 -4.7683 0)
(7.86467 -4.33901 0)
(7.2008 -4.22585 0)
(6.92424 -4.28847 0)
(7.29761 -4.75409 0)
(7.2926 -5.86571 0)
(7.74905 -6.71709 0)
(7.83335 -7.06577 0)
(8.03359 -6.67823 0)
(8.14338 -6.12096 0)
(7.88264 -6.19254 0)
(7.71993 -6.20012 0)
(7.75802 -5.52029 0)
(7.71592 -4.57237 0)
(7.65936 -3.3675 0)
(7.72467 -1.7955 0)
(7.71031 -0.207214 0)
(7.625 1.24958 0)
(7.69271 3.03043 0)
(7.54005 4.88407 0)
(7.38656 6.38313 0)
(7.41372 7.61467 0)
(7.23389 8.48689 0)
(7.06916 8.48377 0)
(6.9957 8.28485 0)
(6.8882 8.04364 0)
(6.71131 7.29319 0)
(6.69445 6.66365 0)
(6.70915 6.23965 0)
(6.50634 5.91138 0)
(6.57747 5.58365 0)
(6.65306 5.257 0)
(6.55446 5.02122 0)
(6.70293 4.89342 0)
(6.79033 4.91327 0)
(7.03566 4.97691 0)
(7.05208 4.96752 0)
(7.33549 4.8844 0)
(7.36965 4.78365 0)
(7.71353 4.72051 0)
(8.06469 4.6804 0)
(8.55034 4.61434 0)
(8.92894 4.54618 0)
(9.56503 4.37642 0)
(9.91588 4.06462 0)
(10.3419 3.6551 0)
(10.3709 3.08912 0)
(10.5391 2.38714 0)
(10.4905 1.80506 0)
(10.4092 1.29529 0)
(9.79043 0.579985 0)
(9.36436 -0.407241 0)
(8.70763 -1.03346 0)
(8.71407 -0.975176 0)
(8.32935 -0.960819 0)
(8.26159 -1.53247 0)
(7.83966 -2.31531 0)
(7.95175 -2.7944 0)
(7.82075 -2.65653 0)
(7.78682 -2.58017 0)
(7.143 -2.71337 0)
(6.71362 -3.12725 0)
(6.18666 -3.24404 0)
(6.16696 -3.1634 0)
(6.02247 -3.00688 0)
(6.0905 -3.00765 0)
(5.83811 -3.39919 0)
(5.60859 -4.04475 0)
(5.06091 -4.74192 0)
(4.80475 -5.67421 0)
(4.27737 -5.79929 0)
(4.8713 -6.36536 0)
(4.75572 -5.90575 0)
(5.29206 -6.77118 0)
(5.15847 -6.46354 0)
(5.44886 -7.22316 0)
(5.92185 -7.5421 0)
(5.98582 -7.85235 0)
(6.38807 -7.38059 0)
(6.78461 -6.43655 0)
(7.03293 -5.4527 0)
(7.27774 -4.45932 0)
(7.74519 -3.04392 0)
(8.14222 -1.0744 0)
(8.27475 0.679028 0)
(8.46033 2.02536 0)
(8.8273 3.62577 0)
(9.18806 5.44125 0)
(9.29212 6.80978 0)
(9.29861 7.45003 0)
(9.35417 7.87617 0)
(9.60923 8.40587 0)
(9.74366 8.86173 0)
(9.92308 8.88225 0)
(9.80598 8.43049 0)
(9.60839 7.8817 0)
(9.89676 7.56545 0)
(10.2565 7.23185 0)
(10.5256 6.84437 0)
(10.9894 6.2882 0)
(11.3861 5.27241 0)
(11.2598 3.90306 0)
(11.5699 2.7377 0)
(11.2398 1.40783 0)
(11.3667 0.0350965 0)
(10.8352 -1.2753 0)
(10.5968 -2.04799 0)
(9.80755 -2.79665 0)