/*--------------------------------*- C++ -*----------------------------------*\
| =========                 |                                                 |
| \\      /  F ield         | OpenFOAM: The Open Source CFD Toolbox           |
|  \\    /   O peration     | Version:  2.4.0                                 |
|   \\  /    A nd           | Web:      www.OpenFOAM.org                      |
|    \\/     M anipulation  |                                                 |
\*---------------------------------------------------------------------------*/
FoamFile
{
    version     2.0;
    format      ascii;
    class       volScalarField;
    location    "0.289";
    object      nuSgs;
}
// * * * * * * * * * * * * * * * * * * * * * * * * * * * * * * * * * * * * * //

dimensions      [0 2 -1 0 0 0 0];

internalField   nonuniform List<scalar> 
17600
(
0.00101297
0.000904756
0.000751706
0.000659948
0.000606742
0.000571525
0.000546066
0.000521918
0.000509192
0.000492629
0.000485523
0.000475931
0.00046922
0.000468553
0.00045923
0.000472462
0.000468495
0.000491801
0.000544005
0.000580396
0.000705566
0.000828139
0.000802779
0.000747279
0.000697904
0.000659129
0.000631535
0.000603211
0.000589187
0.000568912
0.000559158
0.000548091
0.000537724
0.000535375
0.000522453
0.000529883
0.000518812
0.000532162
0.000552342
0.000549646
0.000382034
0.000602959
0.000663588
0.000661206
0.000645226
0.000617792
0.000598536
0.000574581
0.000563284
0.000545501
0.000535194
0.000526377
0.000514614
0.000512082
0.000499421
0.000501997
0.000489668
0.000494437
0.000494003
0.000477132
0.000151358
0.000364757
0.000459824
0.00050607
0.000527579
0.000526246
0.000523447
0.000513051
0.000507008
0.000496357
0.000487473
0.000482794
0.00047246
0.000470279
0.000460367
0.000459982
0.000450073
0.000446078
0.000440198
0.000427473
5.35789e-05
0.000176026
0.000265224
0.000323328
0.000373411
0.000394231
0.000414426
0.000419522
0.000423382
0.000423562
0.000420924
0.000420032
0.000416129
0.000414751
0.000409268
0.000407465
0.000403281
0.000391378
0.000381616
0.000376875
1.73882e-05
7.14098e-05
0.000128293
0.000163329
0.000220173
0.000246569
0.000279351
0.000301153
0.000313112
0.000327916
0.000332122
0.000337775
0.00034179
0.00034335
0.000343207
0.00034159
0.000342393
0.00033176
0.000315525
0.0003091
5.53706e-06
2.70021e-05
5.18318e-05
6.95659e-05
0.000104644
0.000125124
0.000152173
0.000182203
0.000193832
0.000215851
0.000227985
0.000236551
0.000250088
0.000255703
0.000262056
0.000261391
0.000268029
0.000259788
0.000244038
0.000223315
2.31545e-06
1.00575e-05
1.89334e-05
2.57812e-05
4.03868e-05
5.26408e-05
6.53664e-05
9.02275e-05
9.94675e-05
0.000116103
0.000129987
0.000137095
0.000152506
0.000161871
0.000171285
0.000171274
0.000181547
0.000176844
0.000163492
0.000138692
1.75809e-06
4.21407e-06
7.49001e-06
9.3308e-06
1.35852e-05
1.88464e-05
2.39485e-05
3.60453e-05
4.15774e-05
5.08926e-05
6.02717e-05
6.49864e-05
7.40496e-05
8.46137e-05
9.14075e-05
9.12568e-05
9.94026e-05
9.75435e-05
8.93617e-05
7.46017e-05
1.64291e-06
2.40889e-06
4.24514e-06
4.47438e-06
5.39778e-06
6.86356e-06
8.38161e-06
1.3084e-05
1.52528e-05
1.83403e-05
2.37383e-05
2.58151e-05
2.84285e-05
3.58076e-05
3.95345e-05
3.91098e-05
4.36031e-05
4.31079e-05
3.93569e-05
3.14793e-05
1.61085e-06
1.96297e-06
3.38256e-06
3.33197e-06
3.62766e-06
3.75757e-06
4.10142e-06
5.82463e-06
6.31395e-06
7.3298e-06
9.28206e-06
9.68604e-06
1.04676e-05
1.34987e-05
1.44188e-05
1.41911e-05
1.63719e-05
1.63797e-05
1.55319e-05
1.27007e-05
1.61153e-06
1.87959e-06
2.64836e-06
2.88412e-06
2.8635e-06
2.7955e-06
3.27744e-06
3.72614e-06
3.80451e-06
4.55512e-06
4.73367e-06
4.79941e-06
5.48933e-06
5.98069e-06
5.93593e-06
5.88759e-06
6.02408e-06
6.85954e-06
7.22536e-06
6.92822e-06
1.55984e-06
1.90143e-06
2.04576e-06
2.8181e-06
2.7943e-06
2.77935e-06
2.83934e-06
2.9147e-06
3.36682e-06
3.54967e-06
3.52837e-06
3.59076e-06
3.67328e-06
3.83042e-06
3.98745e-06
3.84817e-06
3.82353e-06
4.37099e-06
4.60677e-06
4.82785e-06
1.52834e-06
1.74045e-06
2.05473e-06
2.57525e-06
2.56579e-06
2.59499e-06
2.53131e-06
2.63284e-06
3.04664e-06
3.05691e-06
3.16275e-06
3.1132e-06
3.07357e-06
3.27534e-06
3.67171e-06
3.49451e-06
3.60016e-06
3.63596e-06
3.64973e-06
4.09976e-06
1.52529e-06
1.71258e-06
2.24914e-06
2.31767e-06
2.49857e-06
2.47838e-06
2.43757e-06
2.58482e-06
2.6129e-06
2.69042e-06
2.81032e-06
2.74654e-06
2.73279e-06
2.92986e-06
3.10115e-06
3.08703e-06
3.18484e-06
3.11629e-06
3.15952e-06
4.04936e-06
1.52567e-06
1.69741e-06
2.01432e-06
2.10118e-06
2.36003e-06
2.34856e-06
2.35087e-06
2.33899e-06
2.31391e-06
2.51255e-06
2.58605e-06
2.57263e-06
2.61405e-06
2.6165e-06
2.6517e-06
2.98163e-06
2.99202e-06
2.93998e-06
2.9632e-06
3.90298e-06
1.53577e-06
1.82787e-06
1.93575e-06
2.09365e-06
2.16039e-06
2.25175e-06
2.24588e-06
2.2389e-06
2.24917e-06
2.38018e-06
2.44618e-06
2.54395e-06
2.51344e-06
2.49604e-06
2.5607e-06
2.79137e-06
2.79009e-06
2.80056e-06
2.8713e-06
3.38452e-06
1.52059e-06
1.73456e-06
1.93033e-06
2.00283e-06
2.04818e-06
2.14612e-06
2.16872e-06
2.1717e-06
2.21383e-06
2.25333e-06
2.38447e-06
2.47978e-06
2.45511e-06
2.45036e-06
2.56601e-06
2.57873e-06
2.61672e-06
2.65521e-06
2.85637e-06
2.83192e-06
1.50989e-06
1.6362e-06
1.92178e-06
1.98983e-06
2.05822e-06
2.10904e-06
2.15368e-06
2.17437e-06
2.16528e-06
2.18896e-06
2.3547e-06
2.3724e-06
2.38889e-06
2.38778e-06
2.41431e-06
2.40042e-06
2.4187e-06
2.54488e-06
2.6012e-06
2.63498e-06
1.50633e-06
1.63952e-06
1.99338e-06
1.99632e-06
1.99692e-06
2.09281e-06
2.13431e-06
2.17327e-06
2.17708e-06
2.17648e-06
2.22423e-06
2.27995e-06
2.29656e-06
2.29547e-06
2.27962e-06
2.27738e-06
2.32931e-06
2.42318e-06
2.42407e-06
2.64239e-06
1.50568e-06
1.74405e-06
1.92372e-06
1.92672e-06
2.03245e-06
2.14307e-06
2.14865e-06
2.16213e-06
2.15838e-06
2.16072e-06
2.19643e-06
2.25927e-06
2.26e-06
2.26061e-06
2.25885e-06
2.2663e-06
2.33458e-06
2.35769e-06
2.39087e-06
2.8157e-06
1.50931e-06
1.7514e-06
1.82789e-06
1.90552e-06
2.09923e-06
2.12591e-06
2.13495e-06
2.19168e-06
2.18815e-06
2.20282e-06
2.21439e-06
2.21388e-06
2.22585e-06
2.23743e-06
2.29007e-06
2.31641e-06
2.33441e-06
2.35727e-06
2.40981e-06
2.64014e-06
1.50977e-06
1.70699e-06
1.79569e-06
2.03042e-06
2.13493e-06
2.16478e-06
2.22988e-06
2.24983e-06
2.21086e-06
2.19099e-06
2.16576e-06
2.18675e-06
2.23881e-06
2.33314e-06
2.34498e-06
2.34528e-06
2.35333e-06
2.37147e-06
2.41283e-06
2.53426e-06
1.51774e-06
1.66158e-06
1.93471e-06
2.14386e-06
2.21231e-06
2.24729e-06
2.26227e-06
2.22638e-06
2.18372e-06
2.17345e-06
2.22299e-06
2.35589e-06
2.42531e-06
2.41474e-06
2.41716e-06
2.41469e-06
2.42254e-06
2.44965e-06
2.5296e-06
2.75719e-06
1.52278e-06
1.69521e-06
2.0268e-06
2.22845e-06
2.27409e-06
2.27023e-06
2.21317e-06
2.21035e-06
2.22768e-06
2.35824e-06
2.5235e-06
2.56214e-06
2.527e-06
2.48332e-06
2.48534e-06
2.51468e-06
2.61188e-06
2.66664e-06
2.77551e-06
2.97994e-06
1.5309e-06
1.72143e-06
2.06236e-06
2.27983e-06
2.29569e-06
2.2663e-06
2.2697e-06
2.4166e-06
2.53987e-06
2.65815e-06
2.66926e-06
2.64701e-06
2.57964e-06
2.60726e-06
2.66239e-06
2.82317e-06
2.94836e-06
3.01019e-06
3.13966e-06
3.70286e-06
1.54125e-06
1.74509e-06
2.14527e-06
2.32445e-06
2.33247e-06
2.37088e-06
2.60582e-06
2.77457e-06
2.78268e-06
2.76705e-06
2.71701e-06
2.68294e-06
2.71402e-06
2.89729e-06
3.11155e-06
3.31806e-06
3.40338e-06
3.60993e-06
4.22816e-06
6.26398e-06
1.54981e-06
1.79142e-06
2.2806e-06
2.35875e-06
2.45533e-06
2.76422e-06
2.92189e-06
2.95074e-06
2.9006e-06
2.85878e-06
2.8359e-06
2.89495e-06
3.16811e-06
3.71654e-06
3.97554e-06
4.28636e-06
4.79479e-06
6.00798e-06
8.46945e-06
1.41623e-05
1.58052e-06
1.84077e-06
2.43543e-06
2.53726e-06
2.88995e-06
3.08253e-06
3.19507e-06
3.20282e-06
3.21073e-06
3.29724e-06
3.49128e-06
4.11464e-06
4.89421e-06
6.21352e-06
7.03667e-06
8.44588e-06
1.04805e-05
1.45579e-05
2.06667e-05
3.38371e-05
1.59065e-06
1.93445e-06
2.82371e-06
3.06494e-06
3.64637e-06
3.79437e-06
4.06567e-06
4.5974e-06
5.09377e-06
6.44251e-06
7.5092e-06
9.80874e-06
1.17293e-05
1.53223e-05
1.78187e-05
2.23846e-05
2.72165e-05
3.7347e-05
4.77478e-05
7.1796e-05
1.64104e-06
2.34083e-06
4.00378e-06
4.76344e-06
5.69201e-06
6.61589e-06
8.33871e-06
1.17713e-05
1.3966e-05
1.8799e-05
2.17704e-05
2.77944e-05
3.21648e-05
4.05624e-05
4.57978e-05
5.58193e-05
6.40769e-05
8.19334e-05
9.63399e-05
0.000131545
1.7592e-06
4.04044e-06
7.89845e-06
1.01501e-05
1.37992e-05
1.77918e-05
2.43143e-05
3.48554e-05
4.01925e-05
5.16565e-05
5.81404e-05
7.03031e-05
7.7989e-05
9.25691e-05
0.000100588
0.000115942
0.000126969
0.000150429
0.000166816
0.000205413
2.33672e-06
9.84061e-06
1.96889e-05
2.71812e-05
3.95908e-05
5.03374e-05
6.91306e-05
8.72972e-05
9.74093e-05
0.000117189
0.000129098
0.000144222
0.000155966
0.000172723
0.000181844
0.000198379
0.000209733
0.000232379
0.000246793
0.000276296
5.57634e-06
2.64735e-05
5.22226e-05
7.20212e-05
0.000102265
0.000122861
0.000157395
0.000177283
0.000194681
0.000216363
0.000230342
0.000241758
0.000254245
0.000265232
0.000273445
0.000284
0.00029329
0.000308499
0.000318646
0.000335892
1.74255e-05
6.97906e-05
0.000127498
0.000169554
0.000215424
0.000247285
0.000281635
0.000298337
0.000314948
0.00032752
0.000335713
0.000339933
0.00034677
0.000349578
0.000354071
0.000357522
0.000363367
0.00036985
0.000376439
0.000382995
5.36317e-05
0.000171807
0.000267479
0.000325365
0.000371163
0.000395496
0.000414783
0.000418764
0.000424344
0.000423883
0.000423482
0.00042074
0.000420439
0.000417682
0.000417734
0.000416455
0.000417776
0.000417929
0.000419407
0.000418679
0.00015145
0.000363412
0.000461681
0.000506277
0.000527224
0.0005265
0.000523345
0.000513231
0.000507496
0.000495505
0.000490473
0.000480594
0.000477069
0.000468771
0.000466542
0.000460116
0.000458259
0.000452217
0.000448625
0.000440442
0.000382141
0.00060243
0.000664593
0.000661173
0.00064538
0.000617823
0.000597374
0.000575509
0.000563085
0.000544286
0.000536675
0.000522836
0.000517085
0.000504903
0.000500524
0.000489042
0.000483215
0.000468895
0.000460048
0.0004431
0.000705404
0.000828151
0.000803454
0.000746227
0.000699064
0.00065866
0.000630234
0.000603953
0.000588359
0.000566835
0.000558383
0.00054258
0.000535383
0.000520344
0.000513527
0.000496827
0.000486323
0.000462734
0.000446294
0.000416046
0.00101282
0.000904872
0.000752473
0.000658438
0.000607745
0.000570902
0.000544888
0.000521494
0.000507844
0.000489366
0.000481688
0.00046739
0.000459988
0.000444162
0.000434707
0.000414056
0.000397931
0.000365673
0.000339032
0.000295672
0.000260024
0.000251801
0.00022727
0.000196958
0.000160803
0.000127364
0.000102885
7.68979e-05
5.58838e-05
6.00104e-05
7.14364e-05
7.79501e-05
9.95434e-05
9.83829e-05
9.88667e-05
0.000104043
0.000101885
8.20441e-05
6.30278e-05
5.59898e-05
5.34525e-05
5.01695e-05
4.84795e-05
4.60375e-05
4.60523e-05
4.48549e-05
4.48233e-05
4.45128e-05
4.28879e-05
4.12644e-05
4.1189e-05
5.01483e-05
6.11331e-05
6.43359e-05
6.4571e-05
6.33742e-05
5.25261e-05
3.85414e-05
2.64778e-05
1.81251e-05
1.44287e-05
1.39828e-05
1.54312e-05
2.05464e-05
3.17419e-05
4.9527e-05
5.80889e-05
6.42009e-05
7.65078e-05
8.8272e-05
9.03827e-05
8.77538e-05
7.94101e-05
6.81583e-05
6.05841e-05
5.58795e-05
5.19064e-05
4.78385e-05
4.4356e-05
4.17732e-05
4.00897e-05
3.84281e-05
3.6782e-05
3.63452e-05
3.65065e-05
3.73025e-05
4.06712e-05
4.61668e-05
4.83209e-05
4.87658e-05
4.80056e-05
4.34368e-05
3.71934e-05
3.33562e-05
3.06226e-05
2.93151e-05
2.91479e-05
2.87948e-05
2.70317e-05
2.36588e-05
2.09891e-05
2.03537e-05
2.13222e-05
2.26744e-05
2.28958e-05
2.27206e-05
2.21667e-05
2.22828e-05
2.27427e-05
2.36877e-05
2.57544e-05
3.34201e-05
4.1362e-05
4.36074e-05
4.41242e-05
4.60703e-05
5.08973e-05
5.18199e-05
5.11982e-05
4.69182e-05
3.91299e-05
3.28529e-05
2.86035e-05
2.67963e-05
2.67426e-05
2.72538e-05
2.85963e-05
3.15145e-05
3.39102e-05
3.57189e-05
3.86313e-05
4.72811e-05
5.0278e-05
4.99894e-05
4.71422e-05
4.54514e-05
4.55062e-05
4.76277e-05
5.28028e-05
5.46112e-05
5.42907e-05
5.09411e-05
4.09664e-05
3.33432e-05
2.89816e-05
2.67868e-05
2.58825e-05
2.57342e-05
2.57974e-05
2.6318e-05
2.80578e-05
2.92296e-05
3.01483e-05
3.09155e-05
3.14976e-05
3.25459e-05
3.61811e-05
3.87122e-05
3.87551e-05
3.76126e-05
3.71355e-05
3.69967e-05
4.18541e-05
4.95964e-05
5.09692e-05
5.16742e-05
5.52259e-05
5.5617e-05
5.23156e-05
4.24748e-05
3.55533e-05
3.32425e-05
3.28959e-05
3.34318e-05
3.38876e-05
3.31834e-05
3.24574e-05
3.25414e-05
3.31899e-05
3.24827e-05
2.83087e-05
2.6981e-05
2.82399e-05
3.16504e-05
3.48285e-05
3.70697e-05
3.75817e-05
3.71587e-05
3.52873e-05
3.34255e-05
3.22982e-05
3.22915e-05
3.26076e-05
3.3127e-05
3.46439e-05
3.78529e-05
5.59942e-05
6.94652e-05
7.03475e-05
6.22727e-05
5.21025e-05
5.0983e-05
5.33483e-05
5.88274e-05
5.70572e-05
5.11717e-05
4.56067e-05
4.15239e-05
3.91432e-05
3.7752e-05
3.57742e-05
3.48695e-05
3.47094e-05
3.45923e-05
3.48236e-05
3.68422e-05
4.38496e-05
5.06701e-05
6.67095e-05
0.000191058
0.000284585
0.000258318
0.00021407
0.000173009
0.000136982
0.000107309
8.20093e-05
6.67238e-05
4.65742e-05
3.99505e-05
5.13343e-05
6.02957e-05
8.48474e-05
9.47781e-05
9.86314e-05
0.000104801
0.000104084
8.79387e-05
6.5902e-05
5.88595e-05
5.40442e-05
5.25976e-05
4.99036e-05
4.77011e-05
4.62743e-05
4.48967e-05
4.50269e-05
4.48722e-05
4.29282e-05
4.12509e-05
4.1487e-05
5.16359e-05
6.1285e-05
6.40727e-05
6.43151e-05
6.21745e-05
4.97319e-05
3.5545e-05
2.42181e-05
1.70128e-05
1.45904e-05
1.49906e-05
1.8275e-05
2.67595e-05
4.36943e-05
6.04666e-05
6.66588e-05
7.42706e-05
8.83548e-05
9.42741e-05
9.32039e-05
8.77854e-05
7.4282e-05
6.4406e-05
5.79131e-05
5.34168e-05
4.94167e-05
4.5642e-05
4.3022e-05
4.08049e-05
3.90511e-05
3.74959e-05
3.59341e-05
3.5213e-05
3.52258e-05
3.56621e-05
3.75014e-05
4.32476e-05
4.74356e-05
4.87208e-05
4.84338e-05
4.55462e-05
3.95632e-05
3.51069e-05
3.18715e-05
3.06953e-05
3.02782e-05
2.94994e-05
2.75833e-05
2.39747e-05
2.09836e-05
2.01892e-05
2.08419e-05
2.18346e-05
2.19409e-05
2.18245e-05
2.13269e-05
2.13854e-05
2.1816e-05
2.28301e-05
2.48928e-05
3.1186e-05
4.05432e-05
4.37486e-05
4.4325e-05
4.54857e-05
5.00488e-05
5.13955e-05
5.10978e-05
4.84912e-05
4.08468e-05
3.41892e-05
2.99518e-05
2.79248e-05
2.77704e-05
2.80908e-05
2.96914e-05
3.28447e-05
3.50912e-05
3.67634e-05
4.04165e-05
4.90388e-05
5.10659e-05
5.01779e-05
4.65994e-05
4.52839e-05
4.57043e-05
4.92506e-05
5.41297e-05
5.53039e-05
5.4446e-05
4.86099e-05
3.88383e-05
3.19211e-05
2.80478e-05
2.62854e-05
2.56793e-05
2.55569e-05
2.55763e-05
2.60317e-05
2.71926e-05
2.81888e-05
2.93639e-05
3.03335e-05
3.11435e-05
3.31502e-05
3.6899e-05
3.89093e-05
3.86521e-05
3.73353e-05
3.68425e-05
3.67122e-05
4.25903e-05
5.00598e-05
5.07357e-05
5.11956e-05
5.47921e-05
5.50601e-05
5.16587e-05
4.21617e-05
3.592e-05
3.32914e-05
3.28248e-05
3.30075e-05
3.34125e-05
3.31424e-05
3.22321e-05
3.23584e-05
3.2886e-05
3.08249e-05
2.72688e-05
2.69115e-05
2.83165e-05
3.16843e-05
3.56469e-05
3.7519e-05
3.7693e-05
3.67508e-05
3.50068e-05
3.35779e-05
3.31885e-05
3.33079e-05
3.36506e-05
3.40512e-05
3.54732e-05
3.8524e-05
5.72972e-05
7.05889e-05
7.06585e-05
6.24695e-05
5.18523e-05
4.97028e-05
5.16214e-05
5.95527e-05
6.5032e-05
6.2183e-05
5.11621e-05
4.31467e-05
3.9382e-05
3.80803e-05
3.6777e-05
3.51916e-05
3.47612e-05
3.48461e-05
3.49882e-05
3.61543e-05
4.11385e-05
4.80583e-05
6.83427e-05
0.000164273
0.000236912
0.000209323
0.00017371
0.000143814
0.000117315
9.60582e-05
7.138e-05
5.60907e-05
3.92478e-05
2.98688e-05
3.26142e-05
4.22622e-05
6.55515e-05
8.6394e-05
9.77502e-05
0.000101585
0.000103646
9.3639e-05
7.12587e-05
6.25514e-05
5.61193e-05
5.57244e-05
5.09173e-05
4.88705e-05
4.65446e-05
4.57581e-05
4.61783e-05
4.58323e-05
4.33302e-05
4.18158e-05
4.21734e-05
5.30505e-05
6.15207e-05
6.40701e-05
6.43817e-05
6.13042e-05
4.69454e-05
3.27997e-05
2.16984e-05
1.62087e-05
1.52883e-05
1.68503e-05
2.30076e-05
3.60194e-05
5.81262e-05
7.00874e-05
7.53436e-05
8.59644e-05
9.65364e-05
9.77716e-05
9.41621e-05
8.20208e-05
6.90603e-05
6.09906e-05
5.53744e-05
5.13953e-05
4.77224e-05
4.409e-05
4.20795e-05
4.001e-05
3.79859e-05
3.64989e-05
3.50974e-05
3.43556e-05
3.43199e-05
3.45763e-05
3.56881e-05
3.97822e-05
4.59595e-05
4.85245e-05
4.85235e-05
4.70124e-05
4.19578e-05
3.69675e-05
3.31972e-05
3.14759e-05
3.08459e-05
3.02053e-05
2.80746e-05
2.41824e-05
2.09159e-05
1.98867e-05
2.02478e-05
2.10815e-05
2.11526e-05
2.1134e-05
2.0701e-05
2.06535e-05
2.09893e-05
2.1977e-05
2.39599e-05
2.90789e-05
3.92345e-05
4.35943e-05
4.43261e-05
4.5197e-05
4.91599e-05
5.08135e-05
5.08751e-05
4.93586e-05
4.25861e-05
3.59061e-05
3.17239e-05
2.93251e-05
2.88484e-05
2.90799e-05
3.12048e-05
3.43155e-05
3.62307e-05
3.77632e-05
4.25982e-05
5.0504e-05
5.17412e-05
4.9851e-05
4.59406e-05
4.50534e-05
4.60998e-05
5.10912e-05
5.51614e-05
5.56261e-05
5.42353e-05
4.63858e-05
3.69678e-05
3.06335e-05
2.7226e-05
2.59082e-05
2.56051e-05
2.55507e-05
2.56108e-05
2.61851e-05
2.66791e-05
2.72836e-05
2.8334e-05
2.94919e-05
3.102e-05
3.39911e-05
3.75522e-05
3.89873e-05
3.83941e-05
3.6978e-05
3.64653e-05
3.64449e-05
4.35247e-05
5.05455e-05
5.06173e-05
5.09462e-05
5.42997e-05
5.44699e-05
5.07362e-05
4.17393e-05
3.60131e-05
3.36905e-05
3.31154e-05
3.30585e-05
3.34016e-05
3.34046e-05
3.27168e-05
3.24985e-05
3.16057e-05
2.89944e-05
2.72286e-05
2.72826e-05
2.82126e-05
3.1348e-05
3.60184e-05
3.75681e-05
3.74839e-05
3.60739e-05
3.49362e-05
3.46116e-05
3.47051e-05
3.49168e-05
3.51236e-05
3.54207e-05
3.67215e-05
3.97869e-05
5.92527e-05
7.24585e-05
7.13949e-05
6.2252e-05
5.2402e-05
4.85131e-05
4.97072e-05
5.49788e-05
6.62509e-05
6.93418e-05
6.36855e-05
4.92349e-05
4.12725e-05
3.86122e-05
3.78355e-05
3.61283e-05
3.49934e-05
3.50206e-05
3.5356e-05
3.62174e-05
3.98688e-05
4.56025e-05
6.73798e-05
0.000138106
0.000209437
0.000183162
0.000155725
0.000130675
0.000105885
8.16195e-05
5.63119e-05
4.13778e-05
3.03762e-05
2.14204e-05
2.23753e-05
2.78256e-05
4.17206e-05
7.42711e-05
9.1756e-05
9.9752e-05
0.000104711
9.61579e-05
7.61639e-05
6.46222e-05
6.08563e-05
5.6892e-05
5.15315e-05
5.05081e-05
4.86962e-05
4.7586e-05
4.77455e-05
4.68822e-05
4.44312e-05
4.29756e-05
4.38674e-05
5.42527e-05
6.16672e-05
6.43392e-05
6.4566e-05
5.89483e-05
4.29501e-05
2.87179e-05
1.94317e-05
1.59312e-05
1.62602e-05
2.005e-05
3.03492e-05
4.94167e-05
7.14682e-05
7.84869e-05
8.388e-05
9.5175e-05
0.000101121
9.93794e-05
9.2017e-05
7.59515e-05
6.48328e-05
5.861e-05
5.34185e-05
4.94795e-05
4.57183e-05
4.2069e-05
4.03766e-05
3.85842e-05
3.66903e-05
3.56302e-05
3.43779e-05
3.361e-05
3.35772e-05
3.37694e-05
3.45016e-05
3.69968e-05
4.38803e-05
4.79945e-05
4.84729e-05
4.76455e-05
4.42048e-05
3.85139e-05
3.38838e-05
3.20812e-05
3.17666e-05
3.07911e-05
2.82076e-05
2.43892e-05
2.0974e-05
1.96423e-05
1.98043e-05
2.04778e-05
2.05118e-05
2.05613e-05
2.01616e-05
2.00043e-05
2.0269e-05
2.1256e-05
2.29722e-05
2.71016e-05
3.75776e-05
4.30939e-05
4.41989e-05
4.49615e-05
4.83787e-05
5.02023e-05
5.04685e-05
4.96277e-05
4.42685e-05
3.77355e-05
3.35083e-05
3.07563e-05
3.00518e-05
3.03107e-05
3.3082e-05
3.57911e-05
3.73732e-05
3.88191e-05
4.49386e-05
5.17915e-05
5.21334e-05
4.90712e-05
4.52847e-05
4.4872e-05
4.69569e-05
5.297e-05
5.559e-05
5.57106e-05
5.36572e-05
4.46735e-05
3.55809e-05
2.94942e-05
2.65337e-05
2.56511e-05
2.55775e-05
2.56926e-05
2.60122e-05
2.64023e-05
2.65413e-05
2.67643e-05
2.74088e-05
2.88981e-05
3.12301e-05
3.46701e-05
3.79212e-05
3.89531e-05
3.79831e-05
3.66234e-05
3.613e-05
3.63406e-05
4.45283e-05
5.1029e-05
5.06471e-05
5.08469e-05
5.38093e-05
5.39145e-05
4.99363e-05
4.11267e-05
3.59783e-05
3.39319e-05
3.32569e-05
3.32155e-05
3.3476e-05
3.36789e-05
3.36206e-05
3.29103e-05
3.05345e-05
2.86251e-05
2.80858e-05
2.82773e-05
2.88516e-05
3.2252e-05
3.67583e-05
3.74803e-05
3.69637e-05
3.57637e-05
3.60284e-05
3.66887e-05
3.70497e-05
3.72226e-05
3.70856e-05
3.71229e-05
3.80807e-05
4.10819e-05
6.10032e-05
7.39628e-05
7.18471e-05
6.24961e-05
5.41216e-05
4.74843e-05
4.78023e-05
5.01477e-05
5.76018e-05
7.06853e-05
7.16721e-05
6.50329e-05
4.85802e-05
4.1162e-05
3.90808e-05
3.76691e-05
3.57029e-05
3.52449e-05
3.55122e-05
3.61938e-05
3.97846e-05
4.37005e-05
6.46626e-05
0.000116958
0.000186685
0.000162974
0.00013806
0.000110787
7.88936e-05
5.28572e-05
3.55132e-05
2.60272e-05
2.26394e-05
1.66315e-05
1.67605e-05
1.96894e-05
2.70108e-05
5.84255e-05
7.65539e-05
9.96423e-05
0.000107624
0.000101214
8.13055e-05
6.73659e-05
6.32592e-05
5.65611e-05
5.34943e-05
5.32549e-05
5.02802e-05
4.92567e-05
4.96703e-05
4.91654e-05
4.64324e-05
4.43571e-05
4.52855e-05
5.48442e-05
6.20467e-05
6.49862e-05
6.48795e-05
5.61263e-05
3.96753e-05
2.62294e-05
1.81342e-05
1.65428e-05
1.82647e-05
2.5511e-05
4.11403e-05
6.66871e-05
8.09978e-05
8.51844e-05
9.19638e-05
0.000101955
0.000103264
9.95352e-05
8.536e-05
7.01528e-05
6.14049e-05
5.69403e-05
5.14314e-05
4.74375e-05
4.38443e-05
4.04102e-05
3.84341e-05
3.67159e-05
3.50657e-05
3.46949e-05
3.38652e-05
3.29677e-05
3.29061e-05
3.30723e-05
3.36484e-05
3.53817e-05
4.12488e-05
4.71872e-05
4.82797e-05
4.78767e-05
4.57973e-05
3.99746e-05
3.52243e-05
3.35961e-05
3.25599e-05
3.10787e-05
2.86806e-05
2.49401e-05
2.11524e-05
1.95001e-05
1.94753e-05
1.99079e-05
1.994e-05
2.0034e-05
1.96186e-05
1.93805e-05
1.96179e-05
2.05862e-05
2.1919e-05
2.52903e-05
3.58584e-05
4.23568e-05
4.40469e-05
4.49138e-05
4.78065e-05
4.96972e-05
5.00479e-05
4.95069e-05
4.56598e-05
3.9545e-05
3.52149e-05
3.22034e-05
3.14624e-05
3.18939e-05
3.51768e-05
3.72074e-05
3.83959e-05
3.98182e-05
4.73217e-05
5.2746e-05
5.2459e-05
4.78764e-05
4.45608e-05
4.46808e-05
4.85852e-05
5.42189e-05
5.57656e-05
5.57222e-05
5.28669e-05
4.30291e-05
3.43502e-05
2.85746e-05
2.59707e-05
2.54372e-05
2.55446e-05
2.60094e-05
2.63803e-05
2.64921e-05
2.65109e-05
2.6631e-05
2.71514e-05
2.85669e-05
3.15963e-05
3.53512e-05
3.82422e-05
3.88285e-05
3.74896e-05
3.62115e-05
3.56191e-05
3.61696e-05
4.55946e-05
5.14612e-05
5.07074e-05
5.0814e-05
5.32008e-05
5.32215e-05
4.92142e-05
4.05569e-05
3.59255e-05
3.39889e-05
3.33105e-05
3.33234e-05
3.34952e-05
3.37207e-05
3.37691e-05
3.29723e-05
3.01324e-05
2.88996e-05
2.897e-05
2.91821e-05
2.98159e-05
3.52287e-05
3.77494e-05
3.76198e-05
3.66604e-05
3.67379e-05
3.81688e-05
3.99026e-05
4.04251e-05
4.02412e-05
3.94051e-05
3.90293e-05
3.94383e-05
4.25033e-05
6.34943e-05
7.49426e-05
7.20514e-05
6.30331e-05
5.5821e-05
4.75095e-05
4.46326e-05
4.59085e-05
5.03093e-05
6.04441e-05
7.02779e-05
7.06885e-05
6.50751e-05
5.01772e-05
4.31379e-05
4.03334e-05
3.71567e-05
3.56472e-05
3.57926e-05
3.60618e-05
4.00796e-05
4.26772e-05
5.96405e-05
9.96681e-05
0.000151852
0.000128597
0.000100441
7.02128e-05
4.81671e-05
3.34796e-05
2.43413e-05
1.78206e-05
1.74537e-05
1.4552e-05
1.37592e-05
1.51582e-05
1.88564e-05
4.23039e-05
6.11391e-05
9.19773e-05
0.000104673
0.00010349
9.25567e-05
7.38134e-05
6.48256e-05
5.71562e-05
5.62387e-05
5.42539e-05
5.15507e-05
5.20245e-05
5.32868e-05
5.15117e-05
4.74837e-05
4.4859e-05
4.60132e-05
5.54832e-05
6.33412e-05
6.60365e-05
6.47849e-05
5.16264e-05
3.43662e-05
2.22784e-05
1.7432e-05
1.74667e-05
2.17369e-05
3.39228e-05
5.63503e-05
8.00765e-05
8.83131e-05
9.16211e-05
9.87337e-05
0.000104941
0.000103955
9.60212e-05
7.6969e-05
6.46768e-05
5.91108e-05
5.55969e-05
4.9966e-05
4.57854e-05
4.25592e-05
3.91642e-05
3.6829e-05
3.51334e-05
3.39433e-05
3.36795e-05
3.34135e-05
3.25156e-05
3.23629e-05
3.25082e-05
3.29575e-05
3.42124e-05
3.90695e-05
4.58428e-05
4.80124e-05
4.78641e-05
4.65756e-05
4.18595e-05
3.66083e-05
3.47164e-05
3.34989e-05
3.19257e-05
2.91875e-05
2.52475e-05
2.13532e-05
1.93902e-05
1.9166e-05
1.9414e-05
1.9505e-05
1.96287e-05
1.91067e-05
1.8802e-05
1.90622e-05
2.00261e-05
2.10098e-05
2.3852e-05
3.45359e-05
4.17264e-05
4.38643e-05
4.49284e-05
4.73526e-05
4.9268e-05
4.9614e-05
4.92725e-05
4.67899e-05
4.11141e-05
3.65299e-05
3.36389e-05
3.30353e-05
3.39238e-05
3.71422e-05
3.83845e-05
3.92976e-05
4.1017e-05
4.97581e-05
5.34621e-05
5.24156e-05
4.64247e-05
4.38626e-05
4.4608e-05
5.05483e-05
5.49542e-05
5.58124e-05
5.55221e-05
5.19864e-05
4.23316e-05
3.41055e-05
2.83735e-05
2.56286e-05
2.51573e-05
2.5372e-05
2.60894e-05
2.64059e-05
2.64768e-05
2.65159e-05
2.66703e-05
2.71928e-05
2.85931e-05
3.18808e-05
3.57965e-05
3.8401e-05
3.85969e-05
3.68792e-05
3.57596e-05
3.51636e-05
3.63361e-05
4.70754e-05
5.1875e-05
5.07821e-05
5.07685e-05
5.28181e-05
5.2763e-05
4.85898e-05
4.03845e-05
3.54892e-05
3.38285e-05
3.33104e-05
3.3362e-05
3.32057e-05
3.31202e-05
3.29913e-05
3.18214e-05
2.96495e-05
2.9182e-05
2.95596e-05
2.98383e-05
3.323e-05
3.78217e-05
3.82207e-05
3.73814e-05
3.73387e-05
3.83328e-05
4.24165e-05
4.45746e-05
4.47725e-05
4.37777e-05
4.19675e-05
4.11971e-05
4.15182e-05
4.49112e-05
6.63103e-05
7.55341e-05
7.22469e-05
6.36187e-05
5.6241e-05
4.77063e-05
4.33256e-05
4.23195e-05
4.70672e-05
5.20443e-05
6.13207e-05
6.85355e-05
6.85119e-05
6.46519e-05
5.55141e-05
4.63795e-05
4.03051e-05
3.65483e-05
3.63652e-05
3.60472e-05
4.06756e-05
4.18556e-05
5.46159e-05
8.57056e-05
0.000100159
7.80445e-05
5.80619e-05
4.17846e-05
2.97195e-05
2.09663e-05
1.69953e-05
1.30268e-05
1.20711e-05
1.28364e-05
1.20924e-05
1.2828e-05
1.42667e-05
2.49304e-05
4.24389e-05
7.33522e-05
9.57431e-05
0.000102727
9.93624e-05
8.32183e-05
6.71567e-05
5.98988e-05
5.75073e-05
5.43826e-05
5.38532e-05
5.62165e-05
5.65811e-05
5.24881e-05
4.74669e-05
4.5301e-05
4.69235e-05
5.73581e-05
6.54543e-05
6.72945e-05
6.37091e-05
4.60364e-05
3.0548e-05
2.01824e-05
1.76527e-05
1.94363e-05
2.79334e-05
4.62896e-05
7.44829e-05
8.91269e-05
9.29304e-05
9.57686e-05
0.000103541
0.000106167
0.00010335
8.83018e-05
7.08852e-05
6.17938e-05
5.79311e-05
5.47063e-05
4.86498e-05
4.409e-05
4.14379e-05
3.81036e-05
3.56821e-05
3.41113e-05
3.34687e-05
3.33386e-05
3.31509e-05
3.24427e-05
3.20104e-05
3.20809e-05
3.24364e-05
3.34797e-05
3.69897e-05
4.45605e-05
4.76112e-05
4.77507e-05
4.69899e-05
4.28923e-05
3.74685e-05
3.5772e-05
3.43658e-05
3.24573e-05
2.95591e-05
2.5774e-05
2.17185e-05
1.94418e-05
1.89668e-05
1.90669e-05
1.91228e-05
1.92306e-05
1.86706e-05
1.8367e-05
1.8783e-05
1.957e-05
2.02138e-05
2.27751e-05
3.34227e-05
4.10276e-05
4.38296e-05
4.51837e-05
4.73475e-05
4.90833e-05
4.92414e-05
4.89769e-05
4.76455e-05
4.25876e-05
3.79231e-05
3.53384e-05
3.49515e-05
3.63298e-05
3.86946e-05
3.94445e-05
4.0095e-05
4.26815e-05
5.18197e-05
5.39196e-05
5.15614e-05
4.48858e-05
4.31688e-05
4.50427e-05
5.24388e-05
5.53955e-05
5.57399e-05
5.51492e-05
5.14432e-05
4.20783e-05
3.40088e-05
2.83589e-05
2.5327e-05
2.46513e-05
2.49919e-05
2.5878e-05
2.62729e-05
2.64181e-05
2.65896e-05
2.68386e-05
2.73508e-05
2.87785e-05
3.24105e-05
3.62101e-05
3.83819e-05
3.81305e-05
3.61345e-05
3.52863e-05
3.4784e-05
3.69505e-05
4.87072e-05
5.22607e-05
5.08468e-05
5.07219e-05
5.23222e-05
5.22585e-05
4.80102e-05
4.04282e-05
3.54048e-05
3.3418e-05
3.28414e-05
3.26977e-05
3.20641e-05
3.15374e-05
3.08358e-05
3.01677e-05
2.92911e-05
2.91963e-05
2.96005e-05
3.17616e-05
3.70942e-05
3.85957e-05
3.79897e-05
3.75196e-05
3.84415e-05
4.28117e-05
4.93283e-05
5.10048e-05
5.07767e-05
4.82959e-05
4.5555e-05
4.40717e-05
4.42207e-05
4.75715e-05
6.79368e-05
7.58329e-05
7.27641e-05
6.44916e-05
5.63217e-05
4.77435e-05
4.33192e-05
4.11267e-05
4.17467e-05
4.89869e-05
5.57012e-05
6.14249e-05
6.649e-05
6.58876e-05
6.33574e-05
5.83892e-05
4.72039e-05
3.87675e-05
3.79409e-05
3.62837e-05
4.15807e-05
4.18698e-05
4.99982e-05
7.42571e-05
5.43255e-05
4.33123e-05
3.28735e-05
2.44668e-05
1.80833e-05
1.3236e-05
1.20823e-05
1.02514e-05
8.55457e-06
1.13923e-05
1.13209e-05
1.17355e-05
1.27424e-05
1.70212e-05
2.88665e-05
4.93567e-05
8.3217e-05
0.000100921
0.000100386
9.1547e-05
7.28261e-05
6.28109e-05
5.78607e-05
5.58524e-05
5.77922e-05
6.0212e-05
5.79747e-05
5.12997e-05
4.67857e-05
4.58824e-05
4.8742e-05
6.12653e-05
6.80244e-05
6.83113e-05
5.9528e-05
4.08246e-05
2.54412e-05
1.86882e-05
1.84956e-05
2.31042e-05
3.72979e-05
6.33719e-05
8.69212e-05
9.42996e-05
9.6e-05
9.95382e-05
0.000106141
0.00010632
9.95297e-05
7.80743e-05
6.44746e-05
5.87924e-05
5.66131e-05
5.34876e-05
4.74178e-05
4.2674e-05
4.04965e-05
3.72807e-05
3.49303e-05
3.35781e-05
3.32856e-05
3.32566e-05
3.31854e-05
3.25644e-05
3.19481e-05
3.19069e-05
3.21298e-05
3.29506e-05
3.5733e-05
4.35028e-05
4.71003e-05
4.75816e-05
4.70539e-05
4.34087e-05
3.85325e-05
3.68108e-05
3.49949e-05
3.30186e-05
3.01785e-05
2.63413e-05
2.20711e-05
1.95699e-05
1.87778e-05
1.87482e-05
1.88002e-05
1.89452e-05
1.84214e-05
1.82071e-05
1.8818e-05
1.93835e-05
1.9755e-05
2.22212e-05
3.27005e-05
4.02318e-05
4.43683e-05
4.60571e-05
4.75163e-05
4.90609e-05
4.90488e-05
4.87123e-05
4.79912e-05
4.40445e-05
3.95587e-05
3.71716e-05
3.6924e-05
3.85922e-05
4.00024e-05
4.0314e-05
4.07849e-05
4.51033e-05
5.33459e-05
5.41103e-05
5.0037e-05
4.34484e-05
4.24576e-05
4.62055e-05
5.39032e-05
5.5612e-05
5.54943e-05
5.45124e-05
5.11559e-05
4.20176e-05
3.40062e-05
2.84625e-05
2.50311e-05
2.39763e-05
2.42311e-05
2.52868e-05
2.59334e-05
2.62829e-05
2.6671e-05
2.70161e-05
2.75866e-05
2.90785e-05
3.28309e-05
3.64114e-05
3.81246e-05
3.74652e-05
3.53606e-05
3.4838e-05
3.42683e-05
3.77574e-05
5.01456e-05
5.27952e-05
5.09884e-05
5.07565e-05
5.18801e-05
5.17762e-05
4.76389e-05
4.05119e-05
3.55671e-05
3.30927e-05
3.18205e-05
3.11869e-05
3.05552e-05
3.02553e-05
2.97445e-05
2.92486e-05
2.89699e-05
2.89332e-05
3.01371e-05
3.50937e-05
3.7953e-05
3.79269e-05
3.72824e-05
3.78988e-05
4.19498e-05
5.20234e-05
5.81591e-05
5.90378e-05
5.79063e-05
5.31828e-05
4.96182e-05
4.74875e-05
4.752e-05
5.05186e-05
6.93641e-05
7.61395e-05
7.3661e-05
6.51444e-05
5.52415e-05
4.789e-05
4.41325e-05
4.08874e-05
4.07055e-05
4.26392e-05
5.2965e-05
5.77263e-05
6.10888e-05
6.36319e-05
6.31629e-05
6.16614e-05
5.81836e-05
4.47276e-05
4.15354e-05
3.71293e-05
4.31738e-05
4.20821e-05
4.63453e-05
6.51389e-05
3.04609e-05
2.43621e-05
1.88098e-05
1.41565e-05
1.09156e-05
9.04379e-06
8.93749e-06
8.53628e-06
6.7948e-06
9.64844e-06
1.10497e-05
1.09528e-05
1.29525e-05
1.44656e-05
2.08388e-05
3.42156e-05
6.7754e-05
9.63098e-05
9.8892e-05
9.51204e-05
7.8189e-05
6.62066e-05
6.01651e-05
5.97183e-05
6.21989e-05
6.25486e-05
5.63912e-05
4.95721e-05
4.72711e-05
4.78951e-05
5.40819e-05
6.61762e-05
7.03321e-05
6.86786e-05
5.28996e-05
3.36045e-05
2.16581e-05
1.82418e-05
2.01123e-05
2.98865e-05
5.10865e-05
8.11239e-05
9.40072e-05
9.66987e-05
9.78165e-05
0.000102094
0.00010703
0.000105179
9.06902e-05
7.05442e-05