/*--------------------------------*- C++ -*----------------------------------*\
| =========                 |                                                 |
| \\      /  F ield         | OpenFOAM: The Open Source CFD Toolbox           |
|  \\    /   O peration     | Version:  2.4.0                                 |
|   \\  /    A nd           | Web:      www.OpenFOAM.org                      |
|    \\/     M anipulation  |                                                 |
\*---------------------------------------------------------------------------*/
FoamFile
{
    version     2.0;
    format      ascii;
    class       volScalarField;
    location    "0.078";
    object      k_0;
}
// * * * * * * * * * * * * * * * * * * * * * * * * * * * * * * * * * * * * * //

dimensions      [0 2 -2 0 0 0 0];

internalField   nonuniform List<scalar> 
17600
(
9.29274
7.40303
5.1349
3.91964
3.35967
2.9319
2.71329
2.45632
2.34611
2.18566
2.12794
2.02865
1.96002
1.94106
1.82397
1.85892
1.75348
1.78345
1.80659
1.57118
4.5109
6.19859
5.84858
5.03556
4.44606
3.90135
3.62684
3.28906
3.13807
2.92772
2.83012
2.7036
2.60562
2.5758
2.42358
2.45768
2.33391
2.34561
2.33403
2.28264
1.32915
3.27582
4.00295
3.95358
3.78527
3.43501
3.25104
2.99088
2.86619
2.69622
2.59732
2.50009
2.398
2.37576
2.24735
2.2622
2.16568
2.16639
2.10272
2.16641
0.208944
1.19078
1.93569
2.30886
2.52905
2.5066
2.47859
2.38801
2.32388
2.22998
2.1593
2.10893
2.02138
2.01239
1.92804
1.92543
1.86686
1.86143
1.77957
1.83215
0.0262147
0.262205
0.653247
0.943567
1.26148
1.41771
1.5467
1.59753
1.62533
1.62243
1.60835
1.6056
1.56631
1.56699
1.54014
1.5254
1.50738
1.49668
1.44072
1.43596
0.00277195
0.0433613
0.151912
0.245729
0.426379
0.566624
0.698176
0.817214
0.901246
0.962267
0.997851
1.0557
1.05723
1.06978
1.09958
1.08753
1.10575
1.09297
1.08846
1.05931
0.000286515
0.00626992
0.0251007
0.0459611
0.0896364
0.158095
0.203448
0.288028
0.356804
0.413975
0.458525
0.538099
0.564372
0.585421
0.65657
0.659514
0.693864
0.691073
0.715043
0.695854
5.12149e-05
0.000872245
0.00337087
0.00654113
0.0127601
0.0292979
0.0411526
0.0658378
0.0945419
0.121037
0.139991
0.190712
0.215708
0.229986
0.28427
0.298658
0.337055
0.341901
0.374249
0.373306
2.76642e-05
0.000146205
0.000500463
0.000864309
0.00157692
0.00386922
0.00592366
0.0105007
0.0158871
0.0241673
0.0288815
0.0441274
0.0547067
0.0606147
0.0824121
0.091109
0.112227
0.117205
0.136289
0.141979
2.30622e-05
4.59146e-05
0.000139985
0.000184476
0.000259235
0.000517603
0.000773187
0.00126869
0.00206992
0.00346677
0.00411631
0.00683053
0.00914053
0.0105056
0.0158509
0.0180025
0.0241534
0.026025
0.0317885
0.0328983
2.23063e-05
3.3522e-05
0.000102268
0.000107941
0.000113861
0.000154236
0.00018017
0.000219269
0.000345835
0.000505669
0.000556651
0.000899483
0.00124466
0.00139257
0.00216543
0.00247764
0.00353256
0.00379451
0.00450994
0.00479281
2.31856e-05
3.29261e-05
8.67601e-05
8.73168e-05
9.05544e-05
0.000108248
0.000103497
0.000105879
0.000135416
0.000148959
0.00015357
0.000204973
0.000248679
0.000256429
0.000343582
0.000389761
0.000510673
0.000524791
0.000552325
0.00065517
2.42363e-05
4.33995e-05
6.59466e-05
6.63171e-05
7.83486e-05
7.84657e-05
7.77348e-05
8.45203e-05
9.01651e-05
9.2287e-05
9.89462e-05
0.000115768
0.000117529
0.000118733
0.00014114
0.00014851
0.000164463
0.000174175
0.00017451
0.00020656
2.18973e-05
3.75879e-05
4.07565e-05
5.53325e-05
6.2573e-05
6.4975e-05
7.07708e-05
7.69113e-05
7.66357e-05
8.07465e-05
9.05992e-05
9.05865e-05
9.11782e-05
9.99718e-05
0.000105474
0.000104701
0.000112924
0.000120402
0.00012206
0.000150357
2.09326e-05
2.68561e-05
3.4926e-05
5.41629e-05
5.56896e-05
5.81558e-05
6.59636e-05
6.60738e-05
6.64169e-05
7.52442e-05
7.58659e-05
7.57536e-05
8.05595e-05
8.34009e-05
8.34171e-05
8.44861e-05
9.07177e-05
9.17165e-05
9.70444e-05
0.000118209
2.08556e-05
2.67915e-05
4.28601e-05
5.21965e-05
5.27776e-05
5.7493e-05
6.05378e-05
6.00914e-05
6.36187e-05
6.67084e-05
6.55742e-05
6.71023e-05
7.3168e-05
7.15476e-05
7.18308e-05
7.67919e-05
7.74333e-05
7.7837e-05
8.53082e-05
8.66839e-05
2.16448e-05
2.79872e-05
4.44466e-05
4.52008e-05
4.50674e-05
4.92154e-05
5.02838e-05
5.15329e-05
5.63399e-05
5.60918e-05
5.55542e-05
5.94426e-05
6.01922e-05
5.98726e-05
6.27352e-05
6.40596e-05
6.41824e-05
6.67958e-05
6.90749e-05
7.20061e-05
2.09162e-05
2.67073e-05
3.3027e-05
4.05921e-05
4.29841e-05
4.60165e-05
4.70166e-05
5.02456e-05
5.08067e-05
5.11609e-05
5.26378e-05
5.36512e-05
5.39742e-05
5.49725e-05
5.80364e-05
5.7762e-05
5.79878e-05
5.94603e-05
5.95536e-05
6.31796e-05
2.05938e-05
2.46402e-05
3.4456e-05
4.14909e-05
4.2021e-05
4.33547e-05
4.59271e-05
4.67133e-05
4.72642e-05
4.84708e-05
4.90043e-05
4.92981e-05
5.03624e-05
5.14032e-05
5.26115e-05
5.25992e-05
5.30606e-05
5.31421e-05
5.34618e-05
5.67127e-05
2.05308e-05
2.78164e-05
3.28325e-05
3.72175e-05
3.91495e-05
4.20962e-05
4.44909e-05
4.61041e-05
4.62323e-05
4.65755e-05
4.63336e-05
4.65197e-05
4.7697e-05
4.80018e-05
4.88388e-05
4.93483e-05
4.92415e-05
4.94928e-05
4.93466e-05
5.9506e-05
2.06206e-05
2.66049e-05
2.92679e-05
3.57436e-05
4.07379e-05
4.21136e-05
4.31035e-05
4.40385e-05
4.33655e-05
4.28152e-05
4.30088e-05
4.35026e-05
4.44885e-05
4.49596e-05
4.58947e-05
4.59597e-05
4.59965e-05
4.6141e-05
4.64696e-05
5.43603e-05
2.06482e-05
2.44815e-05
3.11135e-05
4.27998e-05
4.2675e-05
4.17294e-05
4.20765e-05
4.14067e-05
4.09829e-05
4.21923e-05
4.39498e-05
4.43527e-05
4.49208e-05
4.50785e-05
4.55049e-05
4.53744e-05
4.59704e-05
4.60431e-05
4.68166e-05
5.24761e-05
2.07018e-05
2.4947e-05
3.86916e-05
4.1168e-05
3.9035e-05
3.88835e-05
3.93238e-05
4.04786e-05
4.39085e-05
4.67486e-05
4.66354e-05
4.61866e-05
4.64213e-05
4.65639e-05
4.65321e-05
4.68671e-05
4.74183e-05
4.86209e-05
4.92004e-05
5.09929e-05
2.08303e-05
2.81942e-05
3.64375e-05
3.57832e-05
3.63689e-05
4.24745e-05
4.48707e-05
4.76685e-05
4.92906e-05
4.94415e-05
4.81979e-05
4.78573e-05
4.87117e-05
4.91476e-05
4.99526e-05
5.15211e-05
5.2305e-05
5.46275e-05
5.50133e-05
5.72591e-05
2.09588e-05
2.84099e-05
3.15189e-05
3.77579e-05
4.75351e-05
5.02061e-05
5.02458e-05
5.11371e-05
5.09423e-05
4.98765e-05
4.98023e-05
5.16561e-05
5.3757e-05
5.61332e-05
5.81291e-05
5.82854e-05
6.01398e-05
6.24146e-05
6.22799e-05
6.52046e-05
2.12154e-05
2.64911e-05
3.54132e-05
5.13365e-05
5.2793e-05
5.15513e-05
5.07801e-05
5.1278e-05
5.10666e-05
5.24939e-05
5.9831e-05
6.34419e-05
6.41846e-05
6.66428e-05
6.64548e-05
6.67885e-05
7.18124e-05
7.26849e-05
7.42245e-05
8.9815e-05
2.1491e-05
2.75297e-05
4.46709e-05
5.30162e-05
5.14409e-05
5.08411e-05
5.25802e-05
5.62849e-05
6.01302e-05
7.12009e-05
7.47676e-05
7.45218e-05
7.52995e-05
7.67248e-05
7.66082e-05
8.2265e-05
9.19942e-05
9.51633e-05
0.000103306
0.000175136
2.17249e-05
2.87215e-05
4.92604e-05
5.16942e-05
5.31522e-05
5.93382e-05
6.85863e-05
7.24718e-05
8.1205e-05
8.72228e-05
8.7636e-05
8.86348e-05
9.43435e-05
0.000100233
0.000107498
0.000137944
0.000161101
0.000195737
0.000273437
0.000581773
2.26116e-05
3.03608e-05
5.63208e-05
5.99574e-05
7.33232e-05
7.79946e-05
8.86125e-05
9.86671e-05
0.000107404
0.000125634
0.000137091
0.000162648
0.000204731
0.000262145
0.000318748
0.000499017
0.000670505
0.0010302
0.00162662
0.00378957
2.33737e-05
3.37053e-05
7.21042e-05
7.93614e-05
0.000104761
0.000119022
0.000164923
0.000225802
0.000278585
0.000434985
0.00055304
0.000829643
0.00114872
0.00170401
0.00218613
0.00364475
0.00488558
0.00770592
0.0109465
0.0227451
2.43358e-05
4.88777e-05
0.000122346
0.00016051
0.000268421
0.000406745
0.000764202
0.00136448
0.00184396
0.003298
0.00433255
0.00676077
0.0089258
0.0130401
0.0159873
0.0243537
0.0301978
0.043457
0.0552765
0.0968575
2.81206e-05
0.000145946
0.000459906
0.000818653
0.00178461
0.00305675
0.00619118
0.0108293
0.0144607
0.0246911
0.0307875
0.0433703
0.0544079
0.0714582
0.0822789
0.111291
0.128278
0.165134
0.192377
0.281162
5.05303e-05
0.000872051
0.00306998
0.00624216
0.015013
0.0239405
0.0455629
0.0664507
0.0853298
0.128472
0.149285
0.182965
0.221061
0.256156
0.280265
0.338739
0.367669
0.425399
0.464829
0.576831
0.000285607
0.00633748
0.022937
0.0450735
0.0984928
0.139027
0.225081
0.28019
0.349582
0.425601
0.471137
0.523386
0.584316
0.618097
0.653252
0.709786
0.736934
0.787791
0.826184
0.917926
0.00277086
0.0440726
0.142918
0.253672
0.430003
0.55229
0.72033
0.803469
0.905644
0.967507
1.01173
1.04207
1.08278
1.09152
1.11313
1.13327
1.15159
1.17131
1.20223
1.2418
0.0262242
0.267534
0.642157
0.954346
1.25607
1.4147
1.55945
1.58603
1.63309
1.62194
1.61862
1.59878
1.59415
1.56703
1.56408
1.54607
1.54469
1.53331
1.53592
1.5298
0.209132
1.19339
1.92709
2.31902
2.52181
2.51092
2.48063
2.38199
2.33284
2.21784
2.17635
2.08785
2.05596
1.98412
1.96322
1.9024
1.88433
1.83401
1.80622
1.76209
1.3302
3.27613
3.99861
3.95801
3.77526
3.45307
3.23605
2.99395
2.87414
2.67623
2.61079
2.47216
2.42156
2.31559
2.27846
2.17624
2.14024
2.04245
1.98011
1.87774
4.51172
6.19745
5.84526
5.0446
4.42749
3.92466
3.60395
3.29743
3.13835
2.90646
2.83232
2.66888
2.60897
2.48022
2.43186
2.29422
2.23961
2.09471
2.00124
1.8225
9.29319
7.4018
5.13185
3.92697
3.34547
2.94726
2.6961
2.46099
2.34014
2.17055
2.11656
1.99335
1.94679
1.83655
1.7969
1.67185
1.61184
1.46873
1.37195
1.17519
0.894893
0.838351
0.75279
0.794857
0.730044
0.544253
0.487826
0.435573
0.331679
0.258338
0.22886
0.190205
0.181129
0.179855
0.152102
0.128539
0.126948
0.130058
0.137808
0.149934
0.169156
0.196284
0.224612
0.23016
0.221997
0.186154
0.0960966
0.0394584
0.0161357
0.00697381
0.00369767
0.00286004
0.00290397
0.00301517
0.00330476
0.00448779
0.00562108
0.00668263
0.00844386
0.014861
0.0693424
0.148568
0.163617
0.173235
0.180471
0.166188
0.108636
0.0703171
0.054456
0.0602929
0.151827
0.224104
0.227676
0.181185
0.111805
0.0906051
0.0818554
0.0834209
0.109634
0.120852
0.108047
0.0848775
0.0777791
0.0744435
0.0700883
0.0588951
0.0392044
0.0270725
0.0192507
0.0136426
0.0120919
0.0134403
0.0290904
0.0824908
0.101294
0.0974852
0.0722878
0.0621685
0.0652427
0.0769401
0.0797193
0.0759929
0.0608166
0.0449095
0.0339511
0.0270609
0.0228257
0.0207851
0.0193768
0.0187654
0.0189308
0.0190564
0.018922
0.0184769
0.0185341
0.0191479
0.0204912
0.0224803
0.0277018
0.0435951
0.0517714
0.0521824
0.0487049
0.0415447
0.0390731
0.0393699
0.0439178
0.0490931
0.0501803
0.0494311
0.0432282
0.0320341
0.0236966
0.0183246
0.0150688
0.0128008
0.0112923
0.00964969
0.0085538
0.00726189
0.00650285
0.00560913
0.00497129
0.00423506
0.00366504
0.00313008
0.00273857
0.00242256
0.00218991
0.00201502
0.00187429
0.00177893
0.00169581
0.0016522
0.00161861
0.00160535
0.0016048
0.00160698
0.00160755
0.00160562
0.00157355
0.00145254
0.00128615
0.00112934
0.000983802
0.000839705
0.000720031
0.000597457
0.000512915
0.00041622
0.000364524
0.00029462
0.00026338
0.000215399
0.000198618
0.000165492
0.000154857
0.000133858
0.000126723
0.000111307
0.000103818
9.0612e-05
7.89161e-05
6.9476e-05
6.11493e-05
6.01912e-05
6.14683e-05
6.91593e-05
7.37891e-05
9.40362e-05
0.000100561
0.000134069
0.000131547
0.000138549
0.000120609
0.000108387
8.26223e-05
7.73839e-05
7.83794e-05
8.42762e-05
0.000117443
0.000113697
0.000129369
0.000100126
8.23535e-05
6.94118e-05
7.37685e-05
0.000102718
9.06767e-05
0.000101963
9.57165e-05
0.000107978
0.00017087
0.000201814
0.000239788
0.000390705
0.000852368
0.002939
0.0346964
0.474445
1.70951
1.31525
1.05788
0.932888
0.867879
0.79441
0.733593
0.574635
0.404676
0.324872
0.283981
0.252302
0.249308
0.251444
0.231038
0.203992
0.19556
0.19648
0.200202
0.209766
0.223676
0.240476
0.242903
0.23498
0.198844
0.108098
0.0446578
0.0185217
0.00799786
0.00391646
0.00251333
0.00230184
0.00241181
0.00253269
0.00283291
0.00441414
0.00558698
0.00668405
0.00855381
0.0151357
0.0718107
0.157366
0.172718
0.172399
0.178427
0.164739
0.103094
0.0559331
0.0430537
0.0565243
0.163617
0.222174
0.220341
0.174575
0.131302
0.108189
0.0971047
0.101013
0.124495
0.124557
0.0992596
0.0832626
0.0782122
0.0752928
0.0693236
0.0524414
0.0342644
0.0240437
0.0171568
0.0126169
0.0117656
0.0142896
0.0397438
0.0923873
0.105254
0.0970631
0.0678878
0.0613825
0.0676515
0.0794262
0.080557
0.074373
0.0577674
0.0432061
0.0331762
0.0263739
0.0223247
0.0204712
0.0190817
0.0185361
0.0185577
0.0188357
0.018858
0.0187863
0.0188386
0.01932
0.0203513
0.0222166
0.0279724
0.0442857
0.05163
0.0517646
0.0478431
0.0410126
0.0386294
0.0388564
0.0435286
0.0487847
0.0498673
0.0491332
0.0430897
0.0317569
0.0236477
0.0181772
0.0149903
0.0127988
0.0110881
0.00962282
0.00816268
0.00718669
0.00611894
0.00547461
0.00461365
0.00408353
0.00342917
0.0030469
0.00263382
0.00239142
0.00214734
0.00198565
0.00183931
0.00174447
0.00166777
0.00162383
0.00159734
0.00158593
0.00158249
0.00157862
0.00157496
0.0015589
0.00149953
0.00133388
0.00119043
0.00101515
0.000880854
0.000738543
0.000621289
0.000513383
0.000430728
0.000355382
0.000292564
0.000252529
0.000216137
0.000192528
0.000169035
0.000160205
0.000150475
0.000150974
0.000147832
0.00015108
0.000148934
0.000152337
0.00014803
0.000144618
0.000133784
0.000125874
0.000110337
9.84078e-05
9.20326e-05
9.49931e-05
0.000109035
0.000121599
0.000160434
0.000171257
0.000223231
0.000215331
0.000207391
0.000157584
0.000128353
0.000104729
0.000111693
0.000139115
0.000140654
0.000177427
0.000140452
0.000108222
8.78365e-05
9.70725e-05
0.000137789
0.000118722
0.000122999
0.000120291
0.000147347
0.000296041
0.000282419
0.00038021
0.000976533
0.00241275
0.0325109
0.327425
1.81176
1.43362
1.17977
0.999772
0.938488
0.810757
0.735152
0.706821
0.635715
0.484521
0.39517
0.332212
0.306076
0.304692
0.27578
0.253616
0.254118
0.257821
0.263698
0.266562
0.261628
0.256439
0.243798
0.204541
0.11009
0.0452303
0.01987
0.00855889
0.00405269
0.00236873
0.00184384
0.00184282
0.002104
0.00225737
0.0024472
0.00407898
0.00551243
0.00683114
0.00900152
0.0156722
0.0726544
0.16472
0.181909
0.174224
0.175994
0.163738
0.100922
0.0471542
0.0347103
0.0591554
0.170882
0.225022
0.221701
0.15942
0.13897
0.123382
0.111507
0.118926
0.130104
0.119675
0.0923767
0.0827822
0.0796044
0.0758184
0.0667923
0.0447739
0.0299399
0.0213231
0.0151227
0.0116008
0.0114125
0.0158743
0.0525369
0.101769
0.108964
0.0933982
0.0645111
0.0609415
0.0707087
0.0813217
0.0811138
0.0715792
0.0559049
0.0425085
0.0328248
0.0259694
0.0219504
0.0201197
0.0189325
0.0183654
0.0182782
0.0184904
0.0186534
0.0188621
0.0190629
0.0195768
0.0204191
0.0222345
0.0287836
0.0457851
0.051867
0.0515175
0.0467652
0.040539
0.0384421
0.0387403
0.0434322
0.0487134
0.0496061
0.0486149
0.0423492
0.0313998
0.0233366
0.0181096
0.0147473
0.0127236
0.0108879
0.00937665
0.00803856
0.00688741
0.00599927
0.0051151
0.00448221
0.00377823
0.00336
0.00289425
0.00264213
0.00233563
0.0021809
0.00197806
0.00187963
0.00175331
0.00171219
0.00165667
0.0016546
0.00164417
0.00164286
0.00163817
0.00163289
0.00160684
0.00151089
0.00133662
0.00117604
0.00101243
0.000863861
0.000717745
0.000598896
0.000480889
0.000394738
0.000306702
0.000254485
0.000195686
0.000165743
0.000129919
0.000116992
0.000100693
0.000100678
0.000100501
0.000109875
0.000114691
0.000135947
0.000143517
0.000173384
0.000178539
0.000205345
0.000206616
0.000220259
0.000207521
0.000193569
0.000165109
0.00014831
0.000142022
0.00014782
0.000171689
0.000197944
0.000271058
0.000283797
0.000336293
0.000301138
0.0002623
0.000175617
0.000161331
0.000166214
0.000176447
0.000247715
0.000196893
0.000177058
0.000125401
0.000137339
0.000194871
0.000155665
0.00018051
0.000168483
0.000230932
0.000423009
0.00043696
0.00116447
0.00217509
0.0290248
0.207026
1.60739
1.33805
1.16371
0.989142
0.931225
0.814425
0.677057
0.664987
0.667669
0.634182
0.591561
0.516381
0.455581
0.436389
0.394467
0.373733
0.342347
0.326636
0.303606
0.285831
0.266236
0.239958
0.188646
0.0896485
0.0399262
0.0177159
0.00859272
0.00390628
0.00218772
0.00156349
0.00149805
0.0015303
0.00174933
0.00189544
0.00216008
0.00384511
0.00537973
0.00699172
0.00947415
0.0161449
0.0728859
0.169273
0.191804
0.177038
0.176934
0.167244
0.10261
0.0452769
0.0336995
0.0812266
0.176101
0.22977
0.225953
0.151735
0.146546
0.134282
0.119837
0.129647
0.131069
0.109148
0.0896662
0.0838506
0.0810366
0.0761391
0.0597572
0.0386174
0.0259018
0.0184281
0.0130273
0.0106533
0.0110696
0.0186722
0.0676503
0.109471
0.11149
0.0883624
0.0618141
0.0605754
0.074002
0.0830608
0.081347
0.068804
0.0550126
0.0422804
0.0327517
0.0258636
0.0217043
0.0197538
0.0188078
0.0182663
0.0179707
0.0180395
0.0182761
0.0188149
0.0192608
0.0196791
0.0205832
0.022339
0.0306645
0.047151
0.0524531
0.051585
0.0456525
0.0397319
0.0382054
0.0386736
0.0435484
0.048065
0.0488115
0.0477938
0.0415952
0.0308226
0.0228158
0.0178023
0.0146717
0.012401
0.0106964
0.00903537
0.0078384
0.00664606
0.0057232
0.00489484
0.0041986
0.00366892
0.00320997
0.00290024
0.00257396
0.00237072
0.0021345
0.0020149
0.00186218
0.00181866
0.00176995
0.00177318
0.00176661
0.00179101
0.00178585
0.00181361
0.00180285
0.00176636
0.0016237
0.00145105
0.00128038
0.00114724
0.000980845
0.000833295
0.000721725
0.00058835
0.000474748
0.000390388
0.000314822
0.000242878
0.000192587
0.000154147
0.000122919
0.000100142
8.55633e-05
7.65111e-05
7.17025e-05
7.32219e-05
7.81388e-05
9.03334e-05
0.000103551
0.000139515
0.000161334
0.000216215
0.000232534
0.00029385
0.000301184
0.000339932
0.000318022
0.000299067
0.000250711
0.000214495
0.000219418
0.000235681
0.000291094
0.000323384
0.000450196
0.000448232
0.000428971
0.000315943
0.000242199
0.000205614
0.000222809
0.000323027
0.000274808
0.000247975
0.00017231
0.000188012
0.000223617
0.000203268
0.000262953
0.000292621
0.000485397
0.000485779
0.00206616
0.00243179
0.0231649
0.130605
1.29296
1.11948
0.987445
0.871564
0.826056
0.770509
0.636953
0.587705
0.596725
0.59193
0.573258
0.546499
0.502636
0.46071
0.439367
0.416298
0.359731
0.332682
0.293963
0.25338
0.204681
0.13742
0.0665795
0.031082
0.0146892
0.00709039
0.00378607
0.00189507
0.00133002
0.0011655
0.00115415
0.00123236
0.00146373
0.00176826
0.00212316
0.00386292
0.00532849
0.00700755
0.00978282
0.0168918
0.072627
0.171141
0.204486
0.180798
0.17751
0.171563
0.118818
0.058074
0.0519133
0.114824
0.195975
0.231926
0.211771
0.157874
0.159221
0.137533
0.1254
0.133563
0.128129
0.100455
0.0896966
0.086023
0.0822734
0.0741557
0.050511
0.0325654
0.0223546
0.015486
0.0109203
0.00957798
0.0107737
0.0235368
0.0836935
0.115747
0.113514
0.0819777
0.0591984
0.060231
0.0776819
0.0841914
0.0806648
0.0667731
0.0545975
0.0424073
0.033171
0.0259686
0.0216854
0.0195873
0.0187337
0.0182328
0.017916
0.0178547
0.0180315
0.0187369
0.019476
0.0198571
0.0208211
0.0227135
0.0331599
0.0485779
0.0525604
0.0515462
0.0448964
0.0390042
0.0376727
0.0384561
0.0436829
0.0478172
0.0484189
0.047489
0.0409964
0.0301158
0.022407
0.0174188
0.0144658
0.0122381
0.0104073
0.0089024
0.00750683
0.0064153
0.00535959
0.00464813
0.00399898
0.00356219
0.00316949
0.00286902
0.00257886
0.00232881
0.002135
0.00196894
0.00188059
0.00183506
0.00184209
0.00184366
0.00190416
0.00191411
0.00194086
0.00192684
0.00188346
0.00175
0.00163392
0.00148981
0.00133858
0.00124179
0.00106334
0.000957967
0.000821855
0.00073583
0.000596525
0.00054259
0.000445501
0.000387928
0.000313472
0.0002851
0.000231161
0.000195495
0.000167419
0.000145916
0.000125658
0.000108297
0.000100365
9.50963e-05
9.64489e-05
0.000102293
0.000110981
0.000141449
0.000165983
0.000219895
0.000277499
0.000325439
0.000424972
0.000448257
0.000501241
0.000465978
0.000422761
0.000339717
0.000312745
0.000332821
0.000373529
0.000550924
0.000576052
0.000709419
0.000591872
0.000401812
0.000280607
0.000305149
0.000422957
0.000356361
0.00034244
0.00024809
0.000259363
0.000287412
0.000296859
0.000306685
0.00083972
0.000697084
0.00482113
0.00327041
0.0176266
0.0822783
0.950954
0.83499
0.743318
0.68145
0.644967
0.617517
0.53677
0.472405
0.463948
0.462728
0.456285
0.448284
0.43304
0.386258
0.36602
0.343982
0.289231
0.254325
0.192834
0.135451
0.0767199
0.0410923
0.0206044
0.010371
0.00542029
0.0029726
0.00174457
0.00106429
0.000921502
0.000936071
0.000947789
0.00110898
0.00135907
0.00174486
0.00215057
0.00378634
0.00521831
0.00691349
0.0101687
0.0180375
0.0692491
0.173107
0.219603
0.189497
0.173796
0.176363
0.145535
0.100164
0.100674
0.152248
0.207757
0.227808
0.183209
0.170742
0.16665
0.133861
0.130834
0.134497
0.121156
0.0977192
0.0917903
0.0881334
0.0829322
0.0672661
0.0418638
0.0275234
0.0182658
0.0119931
0.00884635
0.00845255
0.0110021
0.0321781
0.0991517
0.120966
0.113817
0.0744492
0.0568743
0.0605249
0.0807364
0.0852987
0.0796839
0.0654376
0.0545221
0.0437007
0.0346312
0.0268909
0.0220433
0.0196226
0.0187969
0.0184699
0.0181226
0.0178462
0.0180934
0.0187498
0.0196168
0.0201152
0.0212216
0.0239101
0.0379556
0.0499999
0.0524729
0.0511246
0.043916
0.0385668
0.037462
0.0384258
0.0439449
0.047696
0.0480537
0.0468248
0.0393023
0.0289305
0.0219255
0.0171966
0.0141727
0.0120119
0.010163
0.00857396
0.00716746
0.00600002
0.00508729
0.00442794
0.00393022
0.00349117
0.0031795
0.00281628
0.00255104
0.0022715
0.00211888
0.00197976
0.00194147
0.00194603
0.00197318
0.00202775
0.00203336
0.00202753
0.00198496
0.00190983
0.00185726
0.0017426
0.00169545
0.00158192
0.00153855
0.00141792
0.00136331
0.00118649
0.00113202
0.000970076
0.00092201
0.00078013
0.000764082
0.000670696
0.000665841
0.000611709
0.000628267
0.00057075
0.000585899
0.000535223
0.000539899
0.000485592
0.000470339
0.000415817
0.000385875
0.000327416
0.000259552
0.000248355
0.000218768
0.000229917
0.000242749
0.000272706
0.00033634
0.00042784
0.000516023
0.000620299
0.000728862
0.00072983
0.000667964
0.000537798
0.000441393
0.000467303
0.000571876
0.000642706
0.000947296
0.000876275
0.000730184
0.000440681
0.000459068
0.000480084
0.000498495
0.000495705
0.000396276
0.000323388
0.000641901
0.000481656
0.00179467
0.00111669
0.00783667
0.00472956
0.0130606
0.0535877
0.625859
0.550141
0.492044
0.459235
0.45256
0.440973
0.383342
0.327171
0.304889
0.299158
0.297163
0.297747
0.293553
0.274758
0.261105
0.233959
0.190001
0.135742
0.0808335
0.047408
0.0257583
0.013257
0.00672573
0.00379755
0.00221324
0.00142204
0.000945289
0.000740702
0.00072439
0.000779752
0.000810321
0.00104645
0.00123829
0.00167358
0.0021849
0.00377655
0.00508152
0.00680925
0.010475
0.0190812
0.0618239
0.17366
0.236556
0.204949
0.16833
0.179747
0.170599
0.146802
0.152261
0.185611
0.209976
0.212986
0.176351
0.179953
0.164348
0.129642
0.135145
0.135541
0.114899
0.0982481
0.0939446
0.0893057
0.0814944
0.0568152
0.0343383
0.0223106
0.0138728
0.00891773
0.00713224
0.00741182
0.0122056
0.0468328
0.111609
0.124577
0.11072
0.0684175
0.0550406
0.0615184
0.0836604
0.0860129
0.0778889
0.064836
0.0555116
0.0452305
0.0362841
0.0285518
0.0230839
0.0200635
0.0192669
0.019014
0.0185289
0.018189
0.0185456
0.0189383
0.0198027
0.0206424
0.0217451
0.0268626
0.04382
0.0524352
0.0526995
0.0492808
0.0420328
0.0380745
0.037392
0.0385945
0.044342
0.0474174
0.0474703
0.0457672
0.0374721
0.0276513
0.0210301
0.0167631
0.0137947
0.0117061
0.00980476
0.00821607
0.00679704
0.00572479
0.00488731
0.00436879
0.00388378
0.00347328
0.00312086
0.00275771
0.00246245
0.00225
0.00215554
0.00212291
0.00212124
0.00215804
0.00215874
0.0021518
0.00212222
0.00206211
0.0020435
0.00200025
0.00201546
0.00199051
0.00202217
0.00199591
0.00199412
0.00194883
0.00178555
0.00156101
0.00143957
0.00130713
0.00109331
0.00101373
0.000886887
0.000848325
0.000740067
0.000726332
0.000684084
0.000702568
0.000678932
0.000728397
0.00070424
0.00077077
0.000745459
0.000819015
0.000783372
0.000847157
0.000777276
0.000782252
0.000711616
0.000640729
0.000573857
0.000446841
0.000444698
0.000433751
0.000495864
0.000536097
0.000709846
0.000781929
0.00097357
0.0010394
0.000992382
0.000793452
0.000662929
0.00067057
0.000760599
0.00120222
0.00121713
0.00131691
0.000921035
0.000619022
0.000649726
0.000650626
0.000867343
0.000601941
0.0013387
0.00082035
0.00376687
0.00228354
0.0232145
0.00948743
0.0118146
0.0349404
0.337103
0.286423
0.258305
0.239746
0.243328
0.247895
0.2324
0.187558
0.157627
0.14421
0.137583
0.145976
0.150335
0.145738
0.137104
0.1235
0.0874755
0.0536204
0.0295124
0.0164948
0.00840608
0.00423159
0.00243552
0.00163932
0.00113623
0.000865215
0.000668456
0.000615089
0.000626996
0.00070801
0.000738283
0.000922549
0.00111194
0.00149453
0.00213826
0.0038007
0.00506816
0.00687544
0.010971
0.0199881
0.0536361
0.170353
0.251111
0.22016
0.169841
0.179906
0.185942
0.178601
0.185236
0.203882
0.208942
0.202778
0.183721
0.182868
0.149284
0.131851
0.142391
0.137839
0.109936
0.100359
0.0960339
0.0898899
0.0757505
0.044895
0.0275962
0.0167787
0.00939649
0.0060975
0.00568476
0.00698237
0.0149682
0.0642378
0.121044
0.127872
0.105403
0.063482
0.0531161
0.0629917
0.0854984
0.0867535
0.0766372
0.0646629
0.0566945
0.0469284
0.0381906
0.0307819
0.0248832
0.0211232
0.0196455
0.0191548
0.0191069
0.0190472
0.0190938
0.0195189
0.020424
0.0211771
0.0225276
0.0313909
0.0485747
0.0544403
0.0534879
0.0477251
0.0402256
0.0373081
0.0371191
0.0389212
0.0447853
0.0473938
0.0473058
0.0453497
0.0364704
0.02664
0.0201742
0.0160839
0.0134008
0.0114253
0.00940129
0.00784853
0.00644754
0.00555129
0.00476156
0.0043314
0.00382888
0.00335904
0.00297907
0.00262679
0.00241263
0.00227061
0.00225671
0.00224148
0.00223878
0.00224297
0.00224098
0.00221386
0.00223813
0.00222576
0.00231345
0.00233865
0.00245167
0.00244723
0.0024772
0.00242464
0.00242267
0.00232566
0.00223854
0.00198175
0.00192066
0.00170787
0.00160014
0.00135427
0.00129577
0.00111792
0.00106188
0.000935333
0.000926428
0.000859433
0.000861536
0.000827924
0.000864319
0.00083684
0.000872987
0.000863052
0.000945005
0.000925244
0.00100018
0.000977672
0.00107963
0.001023
0.00107421
0.000985719
0.000952656
0.000831023
0.000713601
0.000644857
0.000656657
0.000768115
0.00084849
0.00113244
0.00126637
0.00159742
0.00146659
0.00111359
0.000921778
0.00100194
0.00127328
0.00140798
0.00225018
0.00149023
0.00153467
0.00112834
0.0019099
0.00116351
0.00329575
0.00210476
0.0236031
0.00951919
0.0270615
0.0216912
0.015997
0.0262394
0.12691
0.104649
0.0942888
0.0872984
0.0910391
0.0958527
0.0924893
0.0752306
0.056775
0.0485726
0.0428929
0.0436632
0.0499986
0.0492725
0.0464403
0.0400886
0.028119
0.0170543
0.00940644
0.00519892
0.00261972
0.00155558
0.00123566
0.000996915
0.000823094
0.000679901
0.000569128
0.000560532
0.000577996
0.000629221
0.000640457
0.000768905
0.00105262
0.00145049
0.0022019
0.00379178
0.00504958
0.00695913
0.0117028
0.0205752
0.0460579
0.162677
0.257054
0.23806
0.179141
0.178581
0.1884
0.18942
0.193845
0.209292
0.208581
0.203167
0.196245
0.173091
0.140826
0.14559
0.152112
0.134369
0.108864
0.10302
0.0969985
0.0885793
0.0632961
0.0355754
0.0205222
0.0107214
0.00591284
0.00484162
0.0051304
0.00749482
0.0201946
0.0830323
0.129816
0.130218
0.0973547
0.0585806
0.0511075
0.0642143
0.0875169
0.0871558
0.0750466
0.0650458
0.0588705
0.0494233
0.0407628
0.0338032
0.0275082
0.0226312
0.0200554
0.0195136
0.0197272
0.0199735
0.0199704
0.020545
0.0210799
0.0219066
0.0244785
0.0378313
0.0514089
0.0549772
0.0536558
0.0469135
0.0393488
0.0368858
0.0369763
0.0395462
0.0452117
0.0473691
0.0471543
0.0443027
0.0341623
0.0253314
0.0195189
0.0158096
0.0128691
0.0112071
0.00885314
0.00756882
0.00614069
0.00543735
0.00466086
0.00422097
0.00368104
0.00315113
0.00286217
0.00256385
0.00241584
0.00232708
0.00232928
0.00231617
0.00231845
0.00231649
0.00236956
0.0023601
0.0024654
0.00248675
0.0026461
0.00264107
0.00276274
0.00273367
0.0028039
0.00274588
0.00282938
0.00274638
0.00275333
0.00261987
0.00262531
0.00239891
0.00229206
0.00198584
0.00196758
0.00175948
0.00174858
0.00160707
0.00162245
0.00146677
0.00149229
0.00136944
0.00138358
0.00126358
0.00126236
0.00120876
0.00122251
0.00120167
0.00117845
0.00120662
0.00122197
0.0012957
0.00128498
0.001314
0.00132874
0.00133165
0.00127538
0.00111568
0.00105182
0.000942533
0.000962215
0.00100233
0.0013457
0.00144552
0.00257505
0.0022319
0.00245659
0.00174723
0.00180786
0.00170568
0.00293663
0.00245084
0.00326632
0.00208886
0.00698861
0.00423819
0.0387615
0.0142163
0.0357648
0.0186362
0.0238541
0.0234043
0.0221275
0.0266945
0.0298473
0.0253051
0.0236983
0.0225373
0.0241153
0.0251634
0.0244382
0.0201556
0.0141215
0.0114982
0.00936312
0.00905839
0.0114916
0.0123229
0.0120168
0.0108151
0.00792578
0.00490177
0.00286354
0.00158986
0.000996762
0.000940723
0.000932037
0.000827189
0.000726098
0.000601304
0.000520674
0.000502282
0.000500184
0.000502292
0.0005693
0.000728509
0.00120225
0.00154226
0.00269644
0.00396171
0.00532673
0.00716283
0.0121556
0.0208365
0.0408285
0.148343
0.258125
0.257546
0.198758
0.180956
0.184423
0.190067
0.191917
0.209292
0.220628
0.217845
0.195702
0.154911
0.145982
0.163182
0.158541
0.124801
0.109945
0.104624
0.0973887
0.0829563
0.0488911
0.0266123
0.0136978
0.0068507
0.00458374
0.00438325
0.00502226
0.00893487
0.0285981
0.102925
0.136367
0.131629
0.0887672
0.054582
0.049358
0.0659878
0.089126
0.087296
0.0738745
0.0657416
0.061393
0.0521131
0.0435076
0.0373225
0.0309631
0.0253234
0.0215697
0.0203525
0.0204693
0.0202009
0.0208532
0.0210907
0.0217467
0.02355
0.0327748
0.0457832
0.0531397
0.0544488
0.0527888
0.0449743
0.0387628
0.036804
0.0371199
0.0408366
0.0454887
0.04686
0.0464238
0.0414918
0.0312444
0.0236732
0.0184682
0.015535
0.0124308
0.0107979
0.00838129
0.00723245
0.00604675
0.00523654
0.00458054
0.0039382
0.00356345
0.00301517
0.00284634
0.0025546
0.0024755
0.00240633
0.00244121
0.0024166
0.00245803
0.00244959
0.00258805
0.00258037
0.00276725
0.00279757
0.00301741
0.00301719
0.00321539
0.00319793
0.00333335
0.00329221
0.00344758
0.00337021
0.00339293
0.00323885
0.00320202
0.00289922
0.00279998
0.00253713
0.00256324
0.00238578
0.00245934
0.00232056
0.00244117
0.00227308
0.00247807
0.00232878
0.00258265
0.0023393
0.0026744
0.00242551
0.00282104
0.00236046
0.00276352
0.00239291
0.00298747
0.00248093
0.00293271
0.00249512
0.00327167
0.00268174
0.00306029
0.00247834
0.00281731
0.00219017
0.0021673
0.00172819
0.00198581
0.00184113
0.00292436
0.00290948
0.00494614
0.00409468
0.00596077
0.00407613
0.00976426
0.00599979
0.038869
0.0178579
0.118536
0.0532704
0.0922022
0.0515263
0.0546282
0.0386471
0.0356292
0.0268859
0.0252181
0.0279795
0.00449525
0.0041333
0.00404857
0.00398182
0.00423225
0.00432848
0.00418427
0.00339739
0.00235945