/*--------------------------------*- C++ -*----------------------------------*\
| =========                 |                                                 |
| \\      /  F ield         | OpenFOAM: The Open Source CFD Toolbox           |
|  \\    /   O peration     | Version:  2.4.0                                 |
|   \\  /    A nd           | Web:      www.OpenFOAM.org                      |
|    \\/     M anipulation  |                                                 |
\*---------------------------------------------------------------------------*/
FoamFile
{
    version     2.0;
    format      ascii;
    class       volVectorField;
    location    "0.078";
    object      U;
}
// * * * * * * * * * * * * * * * * * * * * * * * * * * * * * * * * * * * * * //

dimensions      [0 1 -1 0 0 0 0];

internalField   nonuniform List<vector> 
17600
(
(5.32853 0.309398 0)
(2.98366 0.0606842 0)
(2.19884 -0.00169329 0)
(1.84488 -0.00337522 0)
(1.71077 -0.00150917 0)
(1.60588 -4.00699e-05 0)
(1.54396 0.00015053 0)
(1.47357 -0.000381377 0)
(1.44165 0.0001992 0)
(1.39354 -5.66029e-05 0)
(1.3794 -0.000354689 0)
(1.35276 -1.60239e-06 0)
(1.32182 0.00103969 0)
(1.32498 -0.00170124 0)
(1.2823 0.00156268 0)
(1.29606 -0.000471484 0)
(1.25129 0.000453176 0)
(1.27306 -0.000510207 0)
(1.29377 0.00166684 0)
(1.07851 -0.0229314 0)
(8.6013 0.871984 0)
(6.94334 0.383546 0)
(5.82048 0.121452 0)
(5.0459 0.0514801 0)
(4.66653 0.0276495 0)
(4.36139 0.0209499 0)
(4.19725 0.016472 0)
(4.00094 0.0116683 0)
(3.90987 0.010418 0)
(3.77913 0.00768762 0)
(3.73123 0.0045916 0)
(3.6521 0.00648026 0)
(3.5756 0.00654676 0)
(3.58287 -3.07531e-06 0)
(3.44838 0.00817534 0)
(3.51322 0.000720638 0)
(3.3765 0.00529862 0)
(3.42583 -0.00747554 0)
(3.48144 0.0187505 0)
(3.12261 -0.00208873 0)
(9.86213 1.02226 0)
(9.33253 0.577176 0)
(8.49237 0.241008 0)
(7.62203 0.131 0)
(7.11803 0.0807122 0)
(6.6675 0.0585705 0)
(6.43493 0.0446912 0)
(6.14214 0.0335029 0)
(6.00444 0.0282617 0)
(5.81036 0.0218825 0)
(5.72878 0.0143221 0)
(5.61094 0.0181846 0)
(5.49049 0.0145089 0)
(5.51139 0.00611767 0)
(5.28403 0.01756 0)
(5.4111 0.0031124 0)
(5.18176 0.0148497 0)
(5.26618 -0.0164776 0)
(5.2867 0.0297362 0)
(5.00265 0.0174311 0)
(10.1708 0.948358 0)
(10.5472 0.668064 0)
(10.2862 0.330171 0)
(9.61214 0.21126 0)
(9.16107 0.146075 0)
(8.64906 0.108633 0)
(8.40108 0.0824301 0)
(8.04662 0.0637999 0)
(7.87989 0.0524414 0)
(7.64459 0.0417929 0)
(7.53397 0.0282417 0)
(7.39343 0.0349261 0)
(7.22698 0.0242501 0)
(7.27581 0.0167135 0)
(6.95635 0.0291829 0)
(7.14667 0.00740714 0)
(6.83118 0.0274197 0)
(6.97128 -0.0220142 0)
(6.87296 0.0334734 0)
(6.75373 0.0228144 0)
(10.0938 0.80678 0)
(10.8875 0.668778 0)
(11.1701 0.356827 0)
(10.8499 0.25773 0)
(10.6387 0.200733 0)
(10.1898 0.159535 0)
(10.0036 0.122851 0)
(9.64843 0.0984139 0)
(9.48366 0.0802706 0)
(9.23921 0.0654121 0)
(9.11359 0.0447224 0)
(8.97455 0.0556042 0)
(8.76419 0.0348644 0)
(8.85311 0.030357 0)
(8.46371 0.0429921 0)
(8.69454 0.0126743 0)
(8.32753 0.0407726 0)
(8.51597 -0.0218204 0)
(8.2999 0.0391543 0)
(8.28061 -0.0107547 0)
(10.0212 0.692962 0)
(10.8066 0.6345 0)
(11.3622 0.334147 0)
(11.3063 0.253861 0)
(11.4053 0.220135 0)
(11.1334 0.193108 0)
(11.0974 0.15341 0)
(10.8306 0.129541 0)
(10.7208 0.106879 0)
(10.5116 0.0893853 0)
(10.3988 0.0611964 0)
(10.2934 0.0783699 0)
(10.056 0.0456614 0)
(10.1827 0.0443461 0)
(9.78145 0.0591028 0)
(10.0036 0.0181222 0)
(9.65052 0.0527692 0)
(9.84268 -0.0157381 0)
(9.58198 0.0442936 0)
(9.56489 -0.0324692 0)
(10.0248 0.604333 0)
(10.6577 0.600152 0)
(11.3023 0.304791 0)
(11.294 0.223627 0)
(11.5812 0.203594 0)
(11.4616 0.198992 0)
(11.5853 0.160844 0)
(11.4697 0.144783 0)
(11.4733 0.122484 0)
(11.3504 0.106548 0)
(11.2949 0.0723429 0)
(11.263 0.0988759 0)
(11.0421 0.055615 0)
(11.187 0.0547631 0)
(10.8605 0.076958 0)
(11.0219 0.0227105 0)
(10.7539 0.0621525 0)
(10.8972 -0.00713842 0)
(10.6984 0.0506544 0)
(10.5637 -0.0156933 0)
(10.059 0.526081 0)
(10.5316 0.562713 0)
(11.2259 0.286991 0)
(11.1873 0.197954 0)
(11.5134 0.175404 0)
(11.4708 0.191461 0)
(11.629 0.150748 0)
(11.6236 0.142122 0)
(11.738 0.122705 0)
(11.6939 0.110324 0)
(11.7199 0.071553 0)
(11.7902 0.109548 0)
(11.6452 0.0615438 0)
(11.7794 0.0562606 0)
(11.6154 0.0916913 0)
(11.7039 0.0260456 0)
(11.5608 0.0652658 0)
(11.6389 0.0033873 0)
(11.5574 0.0455934 0)
(11.3428 0.0563242 0)
(10.0962 0.456841 0)
(10.4348 0.516392 0)
(11.1534 0.272856 0)
(11.1322 0.180289 0)
(11.3961 0.1453 0)
(11.4419 0.182088 0)
(11.5412 0.137588 0)
(11.5636 0.130823 0)
(11.7462 0.113562 0)
(11.7157 0.107519 0)
(11.7759 0.0585681 0)
(11.917 0.108821 0)
(11.8759 0.0611607 0)
(11.9499 0.0484692 0)
(11.965 0.095579 0)
(12.0312 0.0265188 0)
(11.99 0.0609237 0)
(12.0303 0.00866213 0)
(12.0512 0.0344775 0)
(11.885 0.0733629 0)
(10.095 0.394221 0)
(10.3669 0.46792 0)
(11.0587 0.25667 0)
(11.1135 0.168136 0)
(11.2861 0.116399 0)
(11.4439 0.169364 0)
(11.4573 0.12961 0)
(11.5014 0.11619 0)
(11.6901 0.101892 0)
(11.6679 0.103747 0)
(11.7119 0.0460478 0)
(11.8637 0.0955476 0)
(11.9063 0.0634903 0)
(11.9067 0.0334417 0)
(11.9954 0.0928105 0)
(12.1099 0.0165852 0)
(12.0914 0.0598419 0)
(12.1212 -0.000630272 0)
(12.1639 0.0350404 0)
(12.1551 -0.0128058 0)
(10.0144 0.340814 0)
(10.3745 0.417673 0)
(10.9417 0.239482 0)
(11.0827 0.157738 0)
(11.261 0.0864961 0)
(11.4051 0.15687 0)
(11.3994 0.122919 0)
(11.4875 0.101756 0)
(11.6052 0.0912251 0)
(11.6216 0.101558 0)
(11.6737 0.0339732 0)
(11.7873 0.0829008 0)
(11.8657 0.0606475 0)
(11.849 0.0281572 0)
(11.9465 0.0781252 0)
(12.0692 0.00968304 0)
(12.0543 0.0516362 0)
(12.1004 -0.00283422 0)
(12.1057 0.00532952 0)
(12.2158 -0.0753221 0)
(9.94715 0.292386 0)
(10.4386 0.365216 0)
(10.8087 0.227451 0)
(11.0689 0.139011 0)
(11.259 0.0624971 0)
(11.2914 0.147052 0)
(11.3761 0.112024 0)
(11.4649 0.0898721 0)
(11.5003 0.084731 0)
(11.5883 0.0925545 0)
(11.6606 0.0261995 0)
(11.7142 0.0715969 0)
(11.7969 0.061065 0)
(11.8251 0.0158731 0)
(11.919 0.0710501 0)
(11.966 0.00107942 0)
(12.0076 0.0421954 0)
(12.0692 -0.00978106 0)
(12.0424 -0.0150815 0)
(12.1957 -0.129619 0)
(9.98013 0.245706 0)
(10.4351 0.316447 0)
(10.6998 0.214337 0)
(11.0649 0.116875 0)
(11.1798 0.0491549 0)
(11.2068 0.13558 0)
(11.3592 0.0938255 0)
(11.4123 0.08268 0)
(11.4265 0.0777703 0)
(11.5773 0.0757765 0)
(11.6306 0.023466 0)
(11.638 0.0628864 0)
(11.7574 0.0544027 0)
(11.8148 0.00490527 0)
(11.8558 0.0673904 0)
(11.8964 -0.00488514 0)
(11.9793 0.0254159 0)
(12.0052 -0.01322 0)
(12.0139 -0.0386684 0)
(12.1557 -0.169563 0)
(10.0326 0.200201 0)
(10.3368 0.277128 0)
(10.6569 0.189921 0)
(11.0212 0.101753 0)
(11.0905 0.0408318 0)
(11.2028 0.116412 0)
(11.3388 0.079046 0)
(11.3492 0.0753124 0)
(11.4158 0.0664743 0)
(11.5597 0.0609136 0)
(11.5681 0.023345 0)
(11.596 0.0538994 0)
(11.7513 0.0438717 0)
(11.7705 -0.000772681 0)
(11.7858 0.0621262 0)
(11.89 -0.0134633 0)
(11.9356 0.0117722 0)
(11.9349 -0.0192068 0)
(12.0111 -0.0599615 0)
(12.0965 -0.196075 0)
(10.0117 0.163319 0)
(10.2645 0.237181 0)
(10.6658 0.157265 0)
(10.9476 0.0929646 0)
(11.0813 0.0284196 0)
(11.2157 0.0960919 0)
(11.3033 0.0683558 0)
(11.3031 0.0645204 0)
(11.4251 0.0547186 0)
(11.5167 0.0510306 0)
(11.5025 0.0236971 0)
(11.5999 0.0391794 0)
(11.7343 0.0361306 0)
(11.7029 -0.00201574 0)
(11.765 0.0520123 0)
(11.8831 -0.0222044 0)
(11.8826 0.00336255 0)
(11.9091 -0.028889 0)
(11.9991 -0.0830096 0)
(11.9608 -0.193515 0)
(9.96868 0.133417 0)
(10.2879 0.189376 0)
(10.6534 0.126717 0)
(10.8947 0.0825018 0)
(11.1049 0.0140781 0)
(11.1924 0.0797677 0)
(11.2376 0.0603111 0)
(11.3016 0.0498152 0)
(11.4069 0.0438293 0)
(11.448 0.0447522 0)
(11.4924 0.0190763 0)
(11.6074 0.0243161 0)
(11.6725 0.033272 0)
(11.6722 -0.00544772 0)
(11.7737 0.0364279 0)
(11.8404 -0.0252092 0)
(11.8469 -0.0084729 0)
(11.91 -0.03886 0)
(11.9582 -0.0917837 0)
(11.8091 -0.187863 0)
(9.98248 0.102216 0)
(10.3194 0.142094 0)
(10.585 0.100182 0)
(10.8812 0.069261 0)
(11.0974 0.00126921 0)
(11.1316 0.0703037 0)
(11.2058 0.0468478 0)
(11.3196 0.0318189 0)
(11.3538 0.0395137 0)
(11.4102 0.0356613 0)
(11.5214 0.00916524 0)
(11.5677 0.0175068 0)
(11.6201 0.027994 0)
(11.6855 -0.0132423 0)
(11.7546 0.0252014 0)
(11.7931 -0.0279723 0)
(11.8421 -0.0213503 0)
(11.894 -0.0502976 0)
(11.8849 -0.0907689 0)
(11.7575 -0.200343 0)
(10.0219 0.0702136 0)
(10.2711 0.101398 0)
(10.5331 0.0738812 0)
(10.8881 0.0507999 0)
(11.0665 -0.00406436 0)
(11.0871 0.0571298 0)
(11.2458 0.0288841 0)
(11.2957 0.0186295 0)
(11.307 0.0362072 0)
(11.4323 0.0197048 0)
(11.511 0.00428062 0)
(11.5151 0.0143276 0)
(11.6231 0.0171928 0)
(11.686 -0.0198697 0)
(11.7107 0.0169912 0)
(11.781 -0.033659 0)
(11.8403 -0.034888 0)
(11.853 -0.0540753 0)
(11.8386 -0.0929393 0)
(11.8314 -0.242408 0)
(10.019 0.0424158 0)
(10.2092 0.06296 0)
(10.5581 0.0402629 0)
(10.8894 0.0335973 0)
(11.0325 -0.00697621 0)
(11.1106 0.0386622 0)
(11.2628 0.0125138 0)
(11.2405 0.0112318 0)
(11.3131 0.0257229 0)
(11.4456 0.00647113 0)
(11.466 0.00407871 0)
(11.5101 0.00571404 0)
(11.6351 0.00514735 0)
(11.6599 -0.0217389 0)
(11.6936 0.0078131 0)
(11.7823 -0.0407541 0)
(11.8222 -0.0459234 0)
(11.8258 -0.0551886 0)
(11.8476 -0.109858 0)
(11.9026 -0.273931 0)
(9.98805 0.0196988 0)
(10.224 0.0173105 0)
(10.6012 0.00572138 0)
(10.8589 0.0205438 0)
(11.0215 -0.0126411 0)
(11.1486 0.0193813 0)
(11.2106 0.00407262 0)
(11.2278 -0.000866907 0)
(11.3421 0.0126882 0)
(11.416 -0.00153529 0)
(11.4541 -0.00050876 0)
(11.5301 -0.00217332 0)
(11.6232 -0.00620095 0)
(11.644 -0.0210245 0)
(11.6996 -0.00759026 0)
(11.7759 -0.0443242 0)
(11.8085 -0.0559814 0)
(11.8184 -0.0624647 0)
(11.8865 -0.126392 0)
(11.8884 -0.284064 0)
(9.98199 -0.00541165 0)
(10.2692 -0.0308038 0)
(10.5868 -0.0223937 0)
(10.8215 0.00884044 0)
(11.0494 -0.0228505 0)
(11.1332 0.00673243 0)
(11.1801 -0.00618704 0)
(11.262 -0.0182754 0)
(11.3436 0.00362208 0)
(11.3935 -0.0092126 0)
(11.4733 -0.00672557 0)
(11.5348 -0.0114403 0)
(11.6097 -0.0118144 0)
(11.6478 -0.0291749 0)
(11.7027 -0.0134737 0)
(11.7709 -0.0584751 0)
(11.8034 -0.0547708 0)
(11.8216 -0.0868822 0)
(11.9203 -0.11718 0)
(11.8092 -0.311566 0)
(9.99915 -0.0329896 0)
(10.2681 -0.0751948 0)
(10.5497 -0.0464638 0)
(10.8392 -0.00948334 0)
(11.0741 -0.0311277 0)
(11.1072 -0.00545616 0)
(11.2108 -0.0207313 0)
(11.2805 -0.0340399 0)
(11.3293 -0.00237253 0)
(11.3999 -0.0191997 0)
(11.4845 -0.0146577 0)
(11.5374 -0.0157144 0)
(11.605 -0.0228178 0)
(11.6571 -0.0306092 0)
(11.7087 -0.0285334 0)
(11.769 -0.057765 0)
(11.8018 -0.0722451 0)
(11.8377 -0.086446 0)
(11.9194 -0.143531 0)
(11.718 -0.227364 0)
(10.0049 -0.0605205 0)
(10.246 -0.116435 0)
(10.567 -0.0763318 0)
(10.888 -0.0287936 0)
(11.0672 -0.0366382 0)
(11.1193 -0.0199448 0)
(11.2374 -0.0357687 0)
(11.276 -0.0456864 0)
(11.3274 -0.0102764 0)
(11.4175 -0.0294444 0)
(11.494 -0.0214431 0)
(11.5422 -0.0215888 0)
(11.6126 -0.0316059 0)
(11.6711 -0.0358531 0)
(11.7175 -0.0388288 0)
(11.7726 -0.0607745 0)
(11.8112 -0.0869534 0)
(11.8456 -0.0900639 0)
(11.9146 -0.160624 0)
(11.7175 -0.154888 0)
(9.99557 -0.0879061 0)
(10.2575 -0.160663 0)
(10.6201 -0.109532 0)
(10.8981 -0.0415205 0)
(11.0641 -0.0434967 0)
(11.1441 -0.0353781 0)
(11.2415 -0.0495286 0)
(11.2848 -0.0560981 0)
(11.3416 -0.020422 0)
(11.4445 -0.0403239 0)
(11.506 -0.0272147 0)
(11.5492 -0.0285771 0)
(11.6355 -0.0380202 0)
(11.6858 -0.0460565 0)
(11.7264 -0.0400908 0)
(11.789 -0.0775831 0)
(11.822 -0.0831173 0)
(11.853 -0.116452 0)
(11.9297 -0.143061 0)
(11.7758 -0.198776 0)
(9.99087 -0.117371 0)
(10.2937 -0.208331 0)
(10.6431 -0.137496 0)
(10.8943 -0.0530047 0)
(11.0881 -0.05231 0)
(11.1655 -0.052493 0)
(11.2543 -0.0611721 0)
(11.3111 -0.069221 0)
(11.3706 -0.0306651 0)
(11.4684 -0.0503904 0)
(11.516 -0.0327052 0)
(11.5711 -0.0341366 0)
(11.6585 -0.0503915 0)
(11.699 -0.0461461 0)
(11.7492 -0.0544189 0)
(11.8056 -0.0774784 0)
(11.8299 -0.0973401 0)
(11.8881 -0.126486 0)
(11.9547 -0.151089 0)
(11.7836 -0.197311 0)
(9.99546 -0.151778 0)
(10.3184 -0.252412 0)
(10.6523 -0.164529 0)
(10.9278 -0.0656278 0)
(11.1244 -0.0649804 0)
(11.1899 -0.0676483 0)
(11.2748 -0.0740751 0)
(11.3478 -0.081784 0)
(11.3959 -0.0396615 0)
(11.4816 -0.0602768 0)
(11.5423 -0.0370087 0)
(11.6027 -0.0448726 0)
(11.673 -0.0544574 0)
(11.7279 -0.0550539 0)
(11.7801 -0.0602944 0)
(11.8129 -0.0841083 0)
(11.8608 -0.107621 0)
(11.9419 -0.139639 0)
(11.932 -0.156113 0)
(11.7683 -0.187295 0)
(9.99846 -0.188974 0)
(10.3358 -0.295645 0)
(10.692 -0.192091 0)
(10.9828 -0.0804636 0)
(11.1542 -0.0773691 0)
(11.2108 -0.0809987 0)
(11.3035 -0.0886579 0)
(11.385 -0.0917634 0)
(11.4118 -0.0488979 0)
(11.5113 -0.0693096 0)
(11.5856 -0.0452606 0)
(11.6296 -0.050705 0)
(11.6979 -0.0620586 0)
(11.7726 -0.0636867 0)
(11.7985 -0.0628242 0)
(11.8334 -0.09387 0)
(11.9233 -0.118221 0)
(11.9617 -0.148128 0)
(11.8883 -0.160222 0)
(11.8459 -0.190017 0)
(10.0044 -0.229798 0)
(10.3624 -0.34115 0)
(10.7552 -0.215672 0)
(11.0262 -0.0954455 0)
(11.1778 -0.0892407 0)
(11.2409 -0.0964806 0)
(11.3451 -0.102352 0)
(11.4161 -0.101379 0)
(11.4466 -0.0575997 0)
(11.5594 -0.0816495 0)
(11.6244 -0.0513238 0)
(11.6601 -0.0578125 0)
(11.7412 -0.0696219 0)
(11.8095 -0.0705192 0)
(11.8164 -0.0659508 0)
(11.8865 -0.105816 0)
(11.9766 -0.126242 0)
(11.9485 -0.152125 0)
(11.9134 -0.168123 0)
(11.9901 -0.216935 0)
(10.0267 -0.275364 0)
(10.389 -0.38873 0)
(10.8257 -0.231556 0)
(11.0531 -0.112001 0)
(11.2217 -0.105395 0)
(11.2818 -0.113237 0)
(11.3887 -0.115356 0)
(11.4517 -0.110839 0)
(11.5023 -0.0677252 0)
(11.5996 -0.0936758 0)
(11.6626 -0.0562843 0)
(11.6992 -0.0666213 0)
(11.7886 -0.0757772 0)
(11.8404 -0.0777176 0)
(11.859 -0.0694373 0)
(11.947 -0.119935 0)
(12.0028 -0.126739 0)
(11.9652 -0.159218 0)
(12.0059 -0.184851 0)
(12.0671 -0.251174 0)
(10.0594 -0.328049 0)
(10.4074 -0.435153 0)
(10.9104 -0.243975 0)
(11.0763 -0.130294 0)
(11.2946 -0.125684 0)
(11.3051 -0.126931 0)
(11.4473 -0.1298 0)
(11.4845 -0.117441 0)
(11.5661 -0.0804479 0)
(11.631 -0.100885 0)
(11.7187 -0.0649799 0)
(11.7354 -0.0730441 0)
(11.8474 -0.0842667 0)
(11.8777 -0.0817728 0)
(11.9253 -0.077545 0)
(11.9895 -0.128529 0)
(12.0382 -0.128309 0)
(12.0165 -0.169503 0)
(12.0735 -0.199137 0)
(12.0532 -0.274525 0)
(10.0777 -0.386479 0)
(10.4365 -0.482083 0)
(11.0048 -0.255387 0)
(11.1038 -0.151158 0)
(11.3702 -0.145191 0)
(11.3182 -0.140845 0)
(11.532 -0.143402 0)
(11.506 -0.124738 0)
(11.6483 -0.0919472 0)
(11.6642 -0.109954 0)
(11.7942 -0.072764 0)
(11.77 -0.0807481 0)
(11.9277 -0.0926947 0)
(11.9046 -0.0875846 0)
(11.9999 -0.0846411 0)
(11.9999 -0.135323 0)
(12.073 -0.130776 0)
(12.0109 -0.177798 0)
(12.052 -0.204059 0)
(11.956 -0.297484 0)
(10.0684 -0.451229 0)
(10.4964 -0.528455 0)
(11.0832 -0.26757 0)
(11.1546 -0.172075 0)
(11.434 -0.166475 0)
(11.3636 -0.155257 0)
(11.6198 -0.157568 0)
(11.5411 -0.131541 0)
(11.7417 -0.105534 0)
(11.6978 -0.117647 0)
(11.8574 -0.0819118 0)
(11.7941 -0.0885536 0)
(11.9621 -0.100441 0)
(11.8662 -0.0919562 0)
(11.9911 -0.0902028 0)
(11.8884 -0.137862 0)
(11.964 -0.129291 0)
(11.8069 -0.179863 0)
(11.8221 -0.198375 0)
(11.6188 -0.31211 0)
(10.0444 -0.522577 0)
(10.5795 -0.571516 0)
(11.1548 -0.280435 0)
(11.2433 -0.196022 0)
(11.4951 -0.188552 0)
(11.447 -0.171523 0)
(11.682 -0.168963 0)
(11.5742 -0.139416 0)
(11.7725 -0.117428 0)
(11.6513 -0.121771 0)
(11.7857 -0.0892047 0)
(11.6635 -0.0922323 0)
(11.7665 -0.101658 0)
(11.5957 -0.0905834 0)
(11.69 -0.0908897 0)
(11.48 -0.128957 0)
(11.5205 -0.123584 0)
(11.2734 -0.166515 0)
(11.2436 -0.190024 0)
(10.9262 -0.289097 0)
(10.0192 -0.602767 0)
(10.6851 -0.605661 0)
(11.2493 -0.299391 0)
(11.3507 -0.223871 0)
(11.5356 -0.211148 0)
(11.4781 -0.185986 0)
(11.6011 -0.174125 0)
(11.4254 -0.142318 0)
(11.5203 -0.119713 0)
(11.293 -0.116173 0)
(11.3456 -0.0864513 0)
(11.1453 -0.0860706 0)
(11.1615 -0.0913623 0)
(10.9362 -0.0817739 0)
(10.9788 -0.081056 0)
(10.7033 -0.112652 0)
(10.7089 -0.108674 0)
(10.4071 -0.146416 0)
(10.3379 -0.167829 0)
(9.94125 -0.245192 0)
(10.0207 -0.692325 0)
(10.8189 -0.637466 0)
(11.3292 -0.330669 0)
(11.3493 -0.254461 0)
(11.3579 -0.224793 0)
(11.1654 -0.185193 0)
(11.0906 -0.161982 0)
(10.8013 -0.128715 0)
(10.7614 -0.105051 0)
(10.453 -0.0970218 0)
(10.4345 -0.0724241 0)
(10.1894 -0.0700835 0)
(10.1521 -0.0737841 0)
(9.91005 -0.0669771 0)
(9.91362 -0.0657661 0)
(9.61981 -0.0916217 0)
(9.59604 -0.0899978 0)
(9.27835 -0.120192 0)
(9.17222 -0.140342 0)
(8.74994 -0.188928 0)
(10.0945 -0.806605 0)
(10.8923 -0.670252 0)
(11.1508 -0.354958 0)
(10.8808 -0.258043 0)
(10.5981 -0.203769 0)
(10.2246 -0.154818 0)
(9.98493 -0.127774 0)
(9.63312 -0.0991487 0)
(9.51096 -0.0785561 0)
(9.18774 -0.0712509 0)
(9.13417 -0.0534461 0)
(8.88706 -0.0509188 0)
(8.82671 -0.0543778 0)
(8.596 -0.0504344 0)
(8.57421 -0.0486754 0)
(8.29296 -0.0693931 0)
(8.24754 -0.0693954 0)
(7.93885 -0.0913254 0)
(7.80661 -0.110115 0)
(7.40069 -0.126969 0)
(10.1716 -0.948355 0)
(10.5486 -0.668731 0)
(10.2752 -0.329286 0)
(9.63295 -0.211178 0)
(9.13009 -0.148247 0)
(8.67836 -0.105836 0)
(8.37981 -0.0848566 0)
(8.04096 -0.0656424 0)
(7.89282 -0.0504306 0)
(7.6051 -0.0461443 0)
(7.5404 -0.034671 0)
(7.32174 -0.0324887 0)
(7.25803 -0.036009 0)
(7.05566 -0.0341659 0)
(7.02093 -0.0319046 0)
(6.77372 -0.0478226 0)
(6.71476 -0.0481614 0)
(6.43243 -0.0633509 0)
(6.29688 -0.0759922 0)
(5.90906 -0.0841279 0)
(9.86255 -1.02227 0)
(9.33256 -0.577423 0)
(8.48632 -0.240742 0)
(7.63484 -0.130613 0)
(7.09716 -0.0823716 0)
(6.68786 -0.0568876 0)
(6.41742 -0.0456127 0)
(6.14041 -0.0356667 0)
(6.00722 -0.0261532 0)
(5.78335 -0.0248732 0)
(5.72422 -0.0185184 0)
(5.55391 -0.0169894 0)
(5.49904 -0.0202276 0)
(5.33644 -0.0196238 0)
(5.29995 -0.017226 0)
(5.10217 -0.0282819 0)
(5.03748 -0.0283807 0)
(4.80097 -0.0373647 0)
(4.67604 -0.0445195 0)
(4.32939 -0.0509921 0)
(8.60146 -0.872 0)
(6.94313 -0.383604 0)
(5.81726 -0.121484 0)
(5.05289 -0.051046 0)
(4.65425 -0.0287085 0)
(4.37291 -0.0200687 0)
(4.18612 -0.0166303 0)
(3.99968 -0.0133406 0)
(3.9075 -0.00875705 0)
(3.7637 -0.00934816 0)
(3.72049 -0.00674044 0)
(3.61126 -0.00592227 0)
(3.57196 -0.00826286 0)
(3.45971 -0.00821121 0)
(3.4302 -0.0062348 0)
(3.29537 -0.0123943 0)
(3.2359 -0.0122173 0)
(3.06661 -0.0161627 0)
(2.96526 -0.0188279 0)
(2.70733 -0.0225906 0)
(5.32851 -0.309401 0)
(2.98366 -0.060668 0)
(2.19751 0.00161755 0)
(1.8474 0.00359767 0)
(1.70655 0.00113087 0)
(1.60865 0.000316612 0)
(1.54101 -6.18562e-05 0)
(1.47185 -0.000254412 0)
(1.43849 0.000526705 0)
(1.38904 -0.000360486 0)
(1.37076 -2.66839e-05 0)
(1.33322 0.000200971 0)
(1.3172 -0.000589306 0)
(1.27085 -0.000616994 0)
(1.25728 0.000304628 0)
(1.2047 -0.00120644 0)
(1.17071 -0.000831429 0)
(1.09792 -0.00129273 0)
(1.04704 -0.00110908 0)
(0.944346 0.00385619 0)
(1.4037 0.282911 0)
(2.17526 -0.244284 0)
(2.45346 -0.388904 0)
(2.47136 -0.246237 0)
(1.96116 0.174055 0)
(2.23846 0.723262 0)
(3.15107 0.834233 0)
(4.73946 0.526271 0)
(6.09121 1.23736 0)
(7.34508 1.82022 0)
(8.84972 1.19325 0)
(9.05587 0.789417 0)
(9.50796 0.381171 0)
(10.1851 -0.241612 0)
(10.0886 -0.299248 0)
(10.6519 -0.416374 0)
(10.9952 -1.01389 0)
(10.9825 -1.5786 0)
(11.1535 -1.89375 0)
(11.1171 -2.37248 0)
(11.5267 -3.07673 0)
(11.0034 -3.38758 0)
(10.8552 -3.53801 0)
(11.3217 -3.97188 0)
(12.1892 -4.82824 0)
(12.7496 -5.41689 0)
(12.6824 -5.84476 0)
(12.2295 -5.91683 0)
(11.7394 -5.85185 0)
(11.0889 -5.91813 0)
(10.5838 -5.62821 0)
(9.99758 -5.52183 0)
(9.4607 -5.35526 0)
(8.79122 -4.81099 0)
(8.48852 -4.5723 0)
(7.64435 -4.59137 0)
(7.33127 -4.06832 0)
(6.7343 -4.08314 0)
(6.30578 -4.24734 0)
(5.94244 -4.21282 0)
(5.20053 -4.66036 0)
(4.65123 -5.04615 0)
(4.04853 -4.78037 0)
(3.82083 -3.54713 0)
(3.61088 -1.36825 0)
(3.83962 1.29792 0)
(3.60046 3.51018 0)
(3.3604 5.01706 0)
(3.05347 5.88004 0)
(3.51697 6.09494 0)
(3.03694 7.67272 0)
(3.14939 9.66052 0)
(2.81712 10.283 0)
(3.57004 10.8942 0)
(4.67379 9.57353 0)
(4.66441 7.35526 0)
(6.28749 5.3971 0)
(6.71547 4.11692 0)
(7.43212 2.15632 0)
(8.20749 0.123197 0)
(8.10591 -1.11127 0)
(8.0903 -2.17831 0)
(8.52104 -3.38462 0)
(9.02125 -4.61599 0)
(9.28476 -5.55681 0)
(9.27572 -5.96395 0)
(9.22659 -6.17502 0)
(9.11792 -6.31731 0)
(8.70146 -6.07565 0)
(8.18818 -5.7299 0)
(8.03505 -5.91726 0)
(8.07809 -6.46504 0)
(7.85067 -6.64062 0)
(7.27153 -6.16722 0)
(6.55366 -5.42062 0)
(5.90531 -4.97472 0)
(5.57401 -4.8914 0)
(5.38274 -5.18479 0)
(5.31001 -5.76948 0)
(5.33976 -6.32071 0)
(5.25671 -6.77428 0)
(5.25721 -7.15649 0)
(5.32266 -7.39336 0)
(5.42224 -7.42701 0)
(5.58989 -7.17551 0)
(5.73788 -6.71653 0)
(5.9476 -6.09045 0)
(6.17818 -5.27371 0)
(6.32563 -4.32025 0)
(6.47566 -3.24276 0)
(6.60125 -2.10574 0)
(6.76528 -0.949621 0)
(6.9206 0.230656 0)
(6.97768 1.4771 0)
(6.98415 2.68873 0)
(7.0859 3.59553 0)
(7.18883 4.26669 0)
(7.19263 4.98119 0)
(7.09788 5.74161 0)
(6.97384 6.05607 0)
(6.93315 5.73473 0)
(6.94884 5.18103 0)
(6.90329 4.93275 0)
(6.7788 5.15212 0)
(6.61575 5.64035 0)
(6.51963 6.04002 0)
(6.44999 6.08483 0)
(6.37865 5.71596 0)
(6.33711 5.03893 0)
(6.32008 4.2496 0)
(6.30882 3.50956 0)
(6.19777 2.92128 0)
(6.19338 2.48202 0)
(6.05418 2.13307 0)
(6.05032 1.84304 0)
(5.95922 1.58886 0)
(5.90023 1.36554 0)
(5.85891 1.19261 0)
(5.73506 1.04355 0)
(5.74824 0.945911 0)
(5.57589 0.86138 0)
(5.64243 0.822777 0)
(5.40514 0.772702 0)
(5.54999 0.757296 0)
(5.2673 0.715274 0)
(5.49803 0.686022 0)
(5.20422 0.639277 0)
(5.50198 0.597813 0)
(5.21639 0.535968 0)
(5.5162 0.515157 0)
(5.27502 0.416038 0)
(5.5279 0.447591 0)
(5.29849 0.323433 0)
(5.56692 0.350095 0)
(5.26833 0.297399 0)
(5.58803 0.247546 0)
(5.25115 0.257684 0)
(5.54898 0.225233 0)
(5.25632 0.176304 0)
(5.51056 0.222053 0)
(5.23034 0.151076 0)
(5.50773 0.1713 0)
(5.21503 0.161528 0)
(5.4681 0.153342 0)
(5.25118 0.137472 0)
(5.42797 0.164291 0)
(5.26562 0.144871 0)
(5.40907 0.143594 0)
(5.304 0.169187 0)
(5.35568 0.153869 0)
(5.35247 0.175306 0)
(5.32678 0.162235 0)
(5.39251 0.207521 0)
(5.27642 0.174376 0)
(5.45908 0.227601 0)
(5.23453 0.196291 0)
(5.51048 0.264972 0)
(5.18664 0.219855 0)
(5.58155 0.298569 0)
(5.1548 0.247596 0)
(5.62373 0.345376 0)
(5.13383 0.294788 0)
(5.66863 0.378654 0)
(5.15142 0.338184 0)
(5.67368 0.436054 0)
(5.18065 0.413398 0)
(5.67876 0.466015 0)
(5.26501 0.486493 0)
(5.62409 0.524693 0)
(5.3829 0.598345 0)
(5.55499 0.563363 0)
(5.54201 0.697094 0)
(5.46218 0.633608 0)
(5.71122 0.832415 0)
(5.36099 0.723532 0)
(5.87533 0.93409 0)
(5.33918 0.848356 0)
(5.9583 1.06011 0)
(5.39946 1.03964 0)
(5.96589 1.13509 0)
(5.56813 1.27866 0)
(5.83843 1.26025 0)
(5.8269 1.54561 0)
(5.69955 1.44444 0)
(6.06956 1.72935 0)
(5.69705 1.73386 0)
(6.04062 1.95565 0)
(5.82506 2.18971 0)
(5.86959 2.18585 0)
(6.10818 2.52073 0)
(5.81309 2.69808 0)
(6.08105 2.84832 0)
(5.90008 3.31176 0)
(5.71569 3.48505 0)
(6.01616 3.84617 0)
(5.90374 4.44395 0)
(5.68621 4.80775 0)
(5.62346 5.80011 0)
(6.14353 6.852 0)
(3.4362 9.94652 0)
(3.29257 0.0675639 0)
(3.86233 -0.281631 0)
(4.05742 -0.357079 0)
(4.20144 -0.229814 0)
(3.64753 0.164878 0)
(3.95935 0.699004 0)
(4.79773 0.629055 0)
(5.09828 0.208511 0)
(5.45692 0.712942 0)
(6.88284 1.1427 0)
(8.16593 0.76838 0)
(8.57135 0.542496 0)
(9.09811 0.175945 0)
(9.58413 -0.447307 0)
(9.67296 -0.496823 0)
(10.2187 -0.585577 0)
(10.7217 -1.13156 0)
(10.6723 -1.63709 0)
(10.959 -2.02941 0)
(10.9814 -2.50617 0)
(11.3979 -3.09733 0)
(11.1538 -3.35933 0)
(11.6349 -3.70277 0)
(12.376 -4.23223 0)
(13.0724 -5.03555 0)
(13.198 -5.49965 0)
(12.8885 -5.70752 0)
(12.2094 -5.7013 0)
(11.8213 -5.62886 0)
(11.1348 -5.64878 0)
(10.6869 -5.3902 0)
(10.0419 -5.27335 0)
(9.46895 -5.10156 0)
(8.7757 -4.61376 0)
(8.53481 -4.40145 0)
(7.69702 -4.36884 0)
(7.31759 -3.87876 0)
(6.76967 -3.87235 0)
(6.28029 -4.08058 0)
(5.91235 -3.9999 0)
(5.07648 -4.37277 0)
(4.4539 -4.77417 0)
(3.73545 -4.59811 0)
(3.45514 -3.44459 0)
(3.33552 -1.3244 0)
(3.5785 1.29701 0)
(3.42362 3.53818 0)
(3.30031 5.08962 0)
(3.05568 5.86551 0)
(3.50016 6.17484 0)
(2.78113 7.78812 0)
(3.16223 9.62338 0)
(2.76849 10.2336 0)
(3.42401 10.3805 0)
(4.50818 9.38304 0)
(5.04541 6.92801 0)
(6.61891 5.03011 0)
(6.62925 3.90251 0)
(7.59014 1.8568 0)
(8.22009 0.0198298 0)
(8.11275 -1.11658 0)
(8.36357 -2.33121 0)
(8.87885 -3.59084 0)
(9.29811 -4.75333 0)
(9.50224 -5.60209 0)
(9.45333 -5.95479 0)
(9.3398 -6.12822 0)
(9.12841 -6.18821 0)
(8.63035 -5.88188 0)
(8.13481 -5.59437 0)
(8.02838 -5.89543 0)
(8.06594 -6.43023 0)
(7.75168 -6.46561 0)
(7.05759 -5.87692 0)
(6.35377 -5.13522 0)
(5.69923 -4.75788 0)
(5.36279 -4.77637 0)
(5.19025 -5.15032 0)
(5.04478 -5.74576 0)
(4.99433 -6.29364 0)
(4.84105 -6.75991 0)
(4.78865 -7.14753 0)
(4.79 -7.4079 0)
(4.85741 -7.46099 0)
(4.9867 -7.2298 0)
(5.08183 -6.78934 0)
(5.26059 -6.14839 0)
(5.43655 -5.32127 0)
(5.56225 -4.34899 0)
(5.69975 -3.27683 0)
(5.77609 -2.15621 0)
(5.92711 -0.992509 0)
(6.03046 0.204161 0)
(6.11632 1.46408 0)
(6.16831 2.63745 0)
(6.3303 3.53699 0)
(6.49643 4.25161 0)
(6.47755 5.01181 0)
(6.40273 5.75274 0)
(6.39045 6.04712 0)
(6.44241 5.72563 0)
(6.49963 5.1823 0)
(6.50624 4.96293 0)
(6.42825 5.21601 0)
(6.31352 5.69215 0)
(6.19367 6.05684 0)
(6.14673 6.08169 0)
(6.1449 5.71455 0)
(6.14173 5.03739 0)
(6.14844 4.25295 0)
(6.14485 3.52392 0)
(6.12277 2.94544 0)
(6.02426 2.50714 0)
(6.01529 2.16676 0)
(5.89749 1.86589 0)
(5.90619 1.61703 0)
(5.78489 1.39055 0)
(5.77296 1.21792 0)
(5.67022 1.07587 0)
(5.62882 0.966592 0)
(5.56422 0.898963 0)
(5.48104 0.840778 0)
(5.46054 0.80899 0)
(5.3536 0.761552 0)
(5.39178 0.744453 0)
(5.28426 0.671376 0)
(5.38361 0.6589 0)
(5.27349 0.568657 0)
(5.43754 0.556868 0)
(5.27402 0.475885 0)
(5.52626 0.441696 0)
(5.27767 0.414096 0)
(5.57585 0.346036 0)
(5.30353 0.324864 0)
(5.56832 0.32573 0)
(5.30899 0.219914 0)
(5.55066 0.296956 0)
(5.26748 0.195215 0)
(5.54384 0.215899 0)
(5.22281 0.197678 0)
(5.50979 0.181838 0)
(5.22858 0.147786 0)
(5.47202 0.194431 0)
(5.21134 0.124045 0)
(5.49216 0.16467 0)
(5.19483 0.146455 0)
(5.46863 0.160605 0)
(5.22714 0.126198 0)
(5.4588 0.184437 0)
(5.2236 0.146248 0)
(5.45329 0.172544 0)
(5.26827 0.166494 0)
(5.41105 0.200634 0)
(5.30397 0.186387 0)
(5.3957 0.199196 0)
(5.35843 0.231373 0)
(5.33738 0.224351 0)
(5.42872 0.260589 0)
(5.29965 0.241106 0)
(5.50444 0.310212 0)
(5.23414 0.275883 0)
(5.59143 0.357124 0)
(5.18825 0.303857 0)
(5.68392 0.408599 0)
(5.14248 0.361015 0)
(5.74049 0.466947 0)
(5.14618 0.413137 0)
(5.79532 0.516073 0)
(5.19058 0.497596 0)
(5.77749 0.578968 0)
(5.27494 0.600867 0)
(5.74561 0.626554 0)
(5.46576 0.709441 0)
(5.62436 0.698234 0)
(5.65577 0.853702 0)
(5.49296 0.794097 0)
(5.89264 0.985526 0)
(5.41707 0.888975 0)
(6.05208 1.12309 0)
(5.36988 1.1027 0)
(6.06947 1.26905 0)
(5.56951 1.31479 0)
(5.97962 1.36402 0)
(5.86478 1.60389 0)
(5.78819 1.57308 0)
(6.13749 1.87587 0)
(5.73127 1.88638 0)
(6.2085 2.08038 0)
(6.00321 2.28747 0)
(5.95991 2.39878 0)
(6.30034 2.70952 0)
(5.92956 2.91392 0)
(6.37722 3.09609 0)
(6.21239 3.57397 0)
(5.97266 3.91936 0)
(6.21009 4.38606 0)
(6.05841 4.96516 0)
(5.54864 6.1813 0)
(7.34255 6.58893 0)
(4.86096 10.7414 0)
(5.12226 -0.112293 0)
(5.50403 -0.374729 0)
(5.58282 -0.406798 0)
(5.88855 -0.236748 0)
(5.52408 0.16527 0)
(5.55507 0.514237 0)
(6.49834 0.452834 0)
(6.58449 0.213531 0)
(6.25748 0.399497 0)
(7.13311 0.666501 0)
(8.08342 0.450819 0)
(8.44364 0.235739 0)
(8.8768 -0.0187627 0)
(9.36177 -0.641254 0)
(9.34644 -0.704692 0)
(9.78786 -0.805353 0)
(10.5268 -1.32995 0)
(10.5983 -1.75311 0)
(11.0646 -2.23678 0)
(11.2967 -2.6538 0)
(11.8043 -3.14245 0)
(12.0481 -3.46258 0)
(12.7772 -3.94469 0)
(13.3398 -4.47448 0)
(13.5859 -5.0712 0)
(13.3811 -5.42554 0)
(12.9028 -5.49619 0)
(12.1802 -5.47025 0)
(11.8616 -5.40855 0)
(11.1246 -5.38611 0)
(10.7231 -5.19561 0)
(10.0198 -5.04283 0)
(9.49873 -4.85372 0)
(8.80215 -4.3885 0)
(8.56661 -4.19751 0)
(7.78142 -4.11122 0)
(7.36519 -3.65614 0)
(6.84393 -3.65125 0)
(6.21666 -3.88569 0)
(5.81822 -3.78532 0)
(4.93395 -4.06712 0)
(4.23618 -4.45853 0)
(3.43002 -4.36368 0)
(3.02209 -3.3309 0)
(3.00491 -1.26847 0)
(3.15141 1.30947 0)
(3.18375 3.54052 0)
(3.05992 5.09462 0)
(3.09061 5.82385 0)
(3.27653 6.20777 0)
(2.75993 7.98498 0)
(2.66782 9.47169 0)
(3.05295 10.187 0)
(3.50788 10.0555 0)
(4.07069 9.04664 0)
(5.68117 6.40324 0)
(6.58593 4.79903 0)
(6.54929 3.67973 0)
(7.77779 1.54441 0)
(8.19038 -0.058298 0)
(8.20544 -1.19201 0)
(8.71486 -2.52956 0)
(9.21155 -3.77746 0)
(9.54158 -4.86879 0)
(9.68806 -5.63107 0)
(9.58238 -5.91686 0)
(9.38469 -6.03456 0)
(9.0721 -6.02326 0)
(8.53853 -5.676 0)
(8.0846 -5.46797 0)
(8.03755 -5.86288 0)
(8.03541 -6.34824 0)
(7.61357 -6.25053 0)
(6.87996 -5.57078 0)
(6.11198 -4.82916 0)
(5.47203 -4.55012 0)
(5.1939 -4.67202 0)
(4.9687 -5.08622 0)
(4.75518 -5.70395 0)
(4.64355 -6.23785 0)
(4.41032 -6.69885 0)
(4.3125 -7.13067 0)
(4.28134 -7.41875 0)
(4.30189 -7.47756 0)
(4.36837 -7.25601 0)
(4.42266 -6.83385 0)
(4.55034 -6.20277 0)
(4.6651 -5.37584 0)
(4.81275 -4.38551 0)
(4.90136 -3.30494 0)
(4.97607 -2.1847 0)
(5.06353 -1.03149 0)
(5.15524 0.185057 0)
(5.23397 1.4373 0)
(5.38053 2.583 0)
(5.56886 3.44621 0)
(5.77696 4.21114 0)
(5.79801 5.01836 0)
(5.72351 5.74488 0)
(5.7676 6.00261 0)
(5.96481 5.68813 0)
(6.08814 5.18855 0)
(6.09825 4.98179 0)
(6.03802 5.24705 0)
(5.95357 5.73123 0)
(5.89278 6.08271 0)
(5.8355 6.08622 0)
(5.84988 5.70648 0)
(5.91461 5.02916 0)
(5.96687 4.24487 0)
(5.99239 3.52453 0)
(5.97512 2.96564 0)
(5.92196 2.53361 0)
(5.85695 2.18234 0)
(5.84906 1.89412 0)
(5.73901 1.6319 0)
(5.75024 1.42424 0)
(5.61913 1.23807 0)
(5.64374 1.10676 0)
(5.50853 0.988542 0)
(5.52461 0.926482 0)
(5.40893 0.863546 0)
(5.39155 0.828153 0)
(5.3433 0.784267 0)
(5.29763 0.744878 0)
(5.33516 0.68897 0)
(5.2621 0.643891 0)
(5.3978 0.576899 0)
(5.27244 0.535281 0)
(5.4669 0.481449 0)
(5.33215 0.413498 0)
(5.50553 0.431272 0)
(5.35189 0.31047 0)
(5.55204 0.35854 0)
(5.29802 0.289226 0)
(5.57385 0.262152 0)
(5.22917 0.267934 0)
(5.56293 0.233914 0)
(5.17724 0.188387 0)
(5.54125 0.243193 0)
(5.13703 0.137331 0)
(5.56036 0.199866 0)
(5.08267 0.152596 0)
(5.58085 0.161585 0)
(5.09093 0.12484 0)
(5.56428 0.194985 0)
(5.08717 0.107901 0)
(5.59537 0.170976 0)
(5.08028 0.146583 0)
(5.57975 0.181046 0)
(5.11239 0.13056 0)
(5.58005 0.205985 0)
(5.11827 0.166958 0)
(5.56763 0.206054 0)
(5.16939 0.180724 0)