/*--------------------------------*- C++ -*----------------------------------*\
| =========                 |                                                 |
| \\      /  F ield         | OpenFOAM: The Open Source CFD Toolbox           |
|  \\    /   O peration     | Version:  2.4.0                                 |
|   \\  /    A nd           | Web:      www.OpenFOAM.org                      |
|    \\/     M anipulation  |                                                 |
\*---------------------------------------------------------------------------*/
FoamFile
{
    version     2.0;
    format      ascii;
    class       volScalarField;
    location    "0.096";
    object      nuSgs;
}
// * * * * * * * * * * * * * * * * * * * * * * * * * * * * * * * * * * * * * //

dimensions      [0 2 -1 0 0 0 0];

internalField   nonuniform List<scalar> 
17600
(
0.00101262
0.00090496
0.000751679
0.000659667
0.000606623
0.000571916
0.000544298
0.000523119
0.000507806
0.000491533
0.000485297
0.000470721
0.00046847
0.000455427
0.000454684
0.000444247
0.00044403
0.000435933
0.000428601
0.000492769
0.000705049
0.000828565
0.000802812
0.000746947
0.000697786
0.000659578
0.000629687
0.000604907
0.000588054
0.000567742
0.000560644
0.000543524
0.00053976
0.000526431
0.000523962
0.000513257
0.000510697
0.000500592
0.000499657
0.000510875
0.000380819
0.000603635
0.000663531
0.000661184
0.000644888
0.000618439
0.000597091
0.000575675
0.000563121
0.000543781
0.000537678
0.000522617
0.000518308
0.000507216
0.000503768
0.000494801
0.000492588
0.000480095
0.000490113
0.000472686
0.000150825
0.000365106
0.000459576
0.000506648
0.000526976
0.000526347
0.000523318
0.000512818
0.000507626
0.000494396
0.000490334
0.000480109
0.000476353
0.000468702
0.000464946
0.000458402
0.000458088
0.000444516
0.00045811
0.000440344
5.34071e-05
0.000176941
0.000264524
0.000325314
0.000371608
0.000394856
0.000415168
0.000417934
0.000424578
0.000422324
0.000422322
0.000420157
0.000418084
0.000416025
0.000413102
0.000409422
0.000411659
0.000401248
0.000408749
0.000401836
1.73473e-05
7.17966e-05
0.000126271
0.000168666
0.000217802
0.000246327
0.000283071
0.000295933
0.000316788
0.000325656
0.000333041
0.000339832
0.000342181
0.000346386
0.000347772
0.00034709
0.000352257
0.000348457
0.000347994
0.000347529
5.51478e-06
2.72252e-05
5.179e-05
7.15877e-05
0.000104609
0.000124142
0.000158892
0.000173959
0.000197193
0.000215768
0.000226054
0.000241637
0.000249407
0.000259199
0.000267221
0.000269317
0.0002774
0.000284402
0.000279519
0.000281942
2.28207e-06
1.02206e-05
1.98271e-05
2.72762e-05
4.11723e-05
5.19133e-05
7.20083e-05
8.44567e-05
9.78613e-05
0.000118297
0.000126963
0.00014317
0.000152156
0.000164384
0.000176383
0.000181457
0.000188261
0.000208075
0.000202747
0.000210077
1.76579e-06
4.35821e-06
8.30953e-06
1.05768e-05
1.47771e-05
1.8875e-05
2.67507e-05
3.42599e-05
3.99303e-05
5.16743e-05
5.76936e-05
6.93568e-05
7.52312e-05
8.56785e-05
9.51332e-05
0.000100389
0.000106442
0.000127114
0.000124563
0.000136785
1.69626e-06
2.59145e-06
4.66902e-06
5.6164e-06
6.68271e-06
7.46087e-06
9.41651e-06
1.22822e-05
1.43106e-05
1.88074e-05
2.16231e-05
2.74117e-05
3.03197e-05
3.63685e-05
4.12228e-05
4.41178e-05
4.96135e-05
6.14857e-05
6.20363e-05
7.08612e-05
1.64571e-06
2.06201e-06
3.35947e-06
4.12225e-06
4.48849e-06
4.36515e-06
4.5112e-06
4.91378e-06
5.50657e-06
7.04879e-06
8.09922e-06
1.0011e-05
1.09275e-05
1.33104e-05
1.44544e-05
1.64495e-05
1.84962e-05
2.35032e-05
2.47987e-05
2.69148e-05
1.63541e-06
1.87902e-06
2.52665e-06
2.90016e-06
3.46804e-06
3.51011e-06
3.47069e-06
3.43502e-06
3.52671e-06
3.99082e-06
4.35869e-06
4.50452e-06
5.16052e-06
5.57361e-06
5.78324e-06
6.77104e-06
7.17567e-06
9.94721e-06
1.00455e-05
1.02483e-05
1.56776e-06
1.89437e-06
2.09177e-06
2.21647e-06
2.8666e-06
3.29555e-06
3.2934e-06
3.16818e-06
3.14187e-06
3.08258e-06
3.10064e-06
3.1603e-06
4.08823e-06
4.22578e-06
4.91359e-06
4.7734e-06
4.64739e-06
5.6738e-06
5.66109e-06
6.12418e-06
1.53662e-06
1.83018e-06
1.94164e-06
2.16064e-06
2.69378e-06
2.90197e-06
2.90681e-06
2.87252e-06
2.69672e-06
2.63016e-06
2.69824e-06
2.9959e-06
3.4671e-06
3.45757e-06
4.00892e-06
3.96174e-06
4.32244e-06
4.26483e-06
4.5125e-06
6.64463e-06
1.524e-06
1.71856e-06
1.98654e-06
2.36182e-06
2.39531e-06
2.40436e-06
2.44285e-06
2.50845e-06
2.49685e-06
2.54301e-06
2.68588e-06
2.78878e-06
2.80359e-06
2.84234e-06
2.89037e-06
2.91391e-06
3.46691e-06
3.66534e-06
3.8609e-06
7.68578e-06
1.52519e-06
1.70337e-06
2.11334e-06
2.13765e-06
2.1105e-06
2.16964e-06
2.37154e-06
2.4436e-06
2.44845e-06
2.51803e-06
2.49745e-06
2.46944e-06
2.4656e-06
2.62615e-06
2.72645e-06
3.18271e-06
3.20718e-06
3.36745e-06
4.2176e-06
5.34133e-06
1.52179e-06
1.72562e-06
1.97721e-06
1.97486e-06
2.03862e-06
2.25227e-06
2.34248e-06
2.35142e-06
2.35026e-06
2.34507e-06
2.30975e-06
2.31242e-06
2.40437e-06
2.52687e-06
2.55664e-06
2.96641e-06
3.06135e-06
3.16565e-06
4.2013e-06
4.18195e-06
1.50871e-06
1.69359e-06
1.89155e-06
1.99561e-06
2.12873e-06
2.17047e-06
2.20951e-06
2.21175e-06
2.22199e-06
2.22366e-06
2.23332e-06
2.28085e-06
2.38392e-06
2.41633e-06
2.50129e-06
2.5224e-06
2.65613e-06
3.1589e-06
3.27368e-06
3.55387e-06
1.50671e-06
1.70134e-06
1.91694e-06
1.95319e-06
2.00319e-06
2.09665e-06
2.18125e-06
2.19071e-06
2.21117e-06
2.20532e-06
2.20665e-06
2.20292e-06
2.22906e-06
2.27636e-06
2.44749e-06
2.54771e-06
2.62477e-06
3.01865e-06
2.94819e-06
2.99832e-06
1.50835e-06
1.68018e-06
1.83509e-06
1.94078e-06
2.08321e-06
2.1122e-06
2.13681e-06
2.13405e-06
2.13588e-06
2.16023e-06
2.1755e-06
2.19639e-06
2.26295e-06
2.2943e-06
2.30931e-06
2.38361e-06
2.53795e-06
2.59985e-06
2.6758e-06
2.8822e-06
1.50733e-06
1.63698e-06
1.88273e-06
2.04523e-06
2.03606e-06
2.03117e-06
2.03602e-06
2.07074e-06
2.1724e-06
2.20941e-06
2.19693e-06
2.19568e-06
2.209e-06
2.26678e-06
2.35724e-06
2.41465e-06
2.49928e-06
2.57311e-06
2.57368e-06
2.62772e-06
1.51009e-06
1.64382e-06
1.95839e-06
1.99958e-06
1.96967e-06
1.97699e-06
2.12048e-06
2.16383e-06
2.22766e-06
2.20536e-06
2.1686e-06
2.20844e-06
2.20256e-06
2.22609e-06
2.43985e-06
2.44986e-06
2.47545e-06
2.50726e-06
2.5309e-06
2.82676e-06
1.51106e-06
1.66505e-06
1.96069e-06
1.96955e-06
1.97411e-06
2.15113e-06
2.1904e-06
2.19821e-06
2.21815e-06
2.20031e-06
2.20509e-06
2.3392e-06
2.3506e-06
2.41338e-06
2.47281e-06
2.46681e-06
2.46259e-06
2.51009e-06
2.52099e-06
2.56315e-06
1.51586e-06
1.66224e-06
2.01523e-06
2.03344e-06
2.09971e-06
2.20521e-06
2.199e-06
2.26279e-06
2.30597e-06
2.31208e-06
2.43967e-06
2.45637e-06
2.42481e-06
2.53103e-06
2.52137e-06
2.51981e-06
2.60037e-06
2.67764e-06
2.68866e-06
2.82062e-06
1.52128e-06
1.69359e-06
2.08876e-06
2.10693e-06
2.19663e-06
2.19952e-06
2.21734e-06
2.46947e-06
2.46859e-06
2.47703e-06
2.57407e-06
2.51541e-06
2.51846e-06
2.62833e-06
2.637e-06
2.70212e-06
2.80586e-06
2.79814e-06
2.79714e-06
2.84081e-06
1.53196e-06
1.78424e-06
2.13975e-06
2.15252e-06
2.22349e-06
2.2488e-06
2.45036e-06
2.60442e-06
2.55075e-06
2.61764e-06
2.61933e-06
2.59233e-06
2.74678e-06
2.78739e-06
2.83541e-06
2.92438e-06
2.91021e-06
2.90916e-06
2.93418e-06
3.12626e-06
1.54286e-06
1.84289e-06
2.1434e-06
2.20704e-06
2.26001e-06
2.42155e-06
2.70826e-06
2.67456e-06
2.66111e-06
2.78108e-06
2.76985e-06
2.81961e-06
2.9677e-06
2.98383e-06
3.04973e-06
3.0728e-06
3.10138e-06
3.21331e-06
3.44937e-06
3.77646e-06
1.55144e-06
1.82283e-06
2.2616e-06
2.31191e-06
2.4104e-06
2.74808e-06
2.83157e-06
2.84753e-06
2.96875e-06
3.07294e-06
3.07749e-06
3.19338e-06
3.23721e-06
3.37953e-06
3.49944e-06
3.68842e-06
3.95865e-06
4.68743e-06
5.36364e-06
6.62677e-06
1.58503e-06
1.85812e-06
2.46101e-06
2.50652e-06
2.73943e-06
2.9827e-06
3.11352e-06
3.41103e-06
3.62586e-06
3.74288e-06
3.85908e-06
4.17879e-06
4.44497e-06
5.17123e-06
5.83726e-06
6.9126e-06
8.03987e-06
1.06704e-05
1.28386e-05
1.70714e-05
1.60923e-06
1.95822e-06
2.71228e-06
2.84676e-06
3.52634e-06
3.83164e-06
4.33319e-06
5.34761e-06
5.78968e-06
6.8741e-06
7.64847e-06
9.43538e-06
1.06503e-05
1.34011e-05
1.55006e-05
1.90212e-05
2.19765e-05
2.87793e-05
3.35115e-05
4.41416e-05
1.64009e-06
2.33293e-06
3.66326e-06
4.30958e-06
6.10997e-06
7.1659e-06
8.95089e-06
1.27722e-05
1.47184e-05
1.90786e-05
2.16715e-05
2.71723e-05
3.04345e-05
3.75106e-05
4.20573e-05
5.01348e-05
5.56701e-05
6.83345e-05
7.59741e-05
9.58701e-05
1.76238e-06
4.0343e-06
7.38834e-06
9.82948e-06
1.51363e-05
1.89436e-05
2.47848e-05
3.60665e-05
4.11243e-05
5.1683e-05
5.77227e-05
6.95158e-05
7.55325e-05
8.82248e-05
9.55755e-05
0.000108478
0.000116283
0.000133552
0.000143114
0.000168514
2.35237e-06
9.8659e-06
1.89964e-05
2.66188e-05
4.2207e-05
5.2205e-05
6.75047e-05
8.98282e-05
9.87354e-05
0.000116298
0.000127846
0.000143727
0.000151856
0.000167987
0.000177298
0.000190449
0.000198553
0.000215486
0.000223994
0.000244108
5.57316e-06
2.65496e-05
5.13468e-05
7.0743e-05
0.000106196
0.000124447
0.000155074
0.000180435
0.000194325
0.000214675
0.00022932
0.000240949
0.000250009
0.00026208
0.000269238
0.000277416
0.000282996
0.000294441
0.000299491
0.000311252
1.7396e-05
6.99565e-05
0.000126985
0.000166004
0.000220615
0.000245732
0.000281198
0.000300267
0.000314567
0.000326046
0.000334943
0.000338919
0.000343906
0.000347443
0.000350631
0.000352507
0.000355041
0.000359505
0.000361622
0.000365709
5.35929e-05
0.000172373
0.000266489
0.000324703
0.000373478
0.000394455
0.000414968
0.000419306
0.000423931
0.000422937
0.000422761
0.000419919
0.000419055
0.000416143
0.000415433
0.000412656
0.000412237
0.000411177
0.000410328
0.000408728
0.000151476
0.000363498
0.000461199
0.000506539
0.000527745
0.000526429
0.000523439
0.000512904
0.000507369
0.000494909
0.000490163
0.000480019
0.000476483
0.000468201
0.000465514
0.000458642
0.000456151
0.000450403
0.000446365
0.000441507
0.000382335
0.000602327
0.000664477
0.000661471
0.000645283
0.000617779
0.000598059
0.000574416
0.000563586
0.000543854
0.000536843
0.000522621
0.000517553
0.000505768
0.000501784
0.000491595
0.00048725
0.000476519
0.000470162
0.000459748
0.000705614
0.000828058
0.000803373
0.000746951
0.000698173
0.000658943
0.00063108
0.000602572
0.000589263
0.000566917
0.000559187
0.000543199
0.000537629
0.000523737
0.000518769
0.000505853
0.000499864
0.000484243
0.000475685
0.00045769
0.00101305
0.000904851
0.000752301
0.000659228
0.000606806
0.000571128
0.000545896
0.000520551
0.000508773
0.000490229
0.000483623
0.000469316
0.000464725
0.000451519
0.000446082
0.000432415
0.000425709
0.000407114
0.000395548
0.000370817
0.000177581
0.000122514
0.000114801
0.000120587
0.000135544
0.000146373
0.000149785
0.0001567
0.000166817
0.000156305
0.000135287
0.000123937
0.000130959
0.0001322
0.000125401
0.000104912
8.0887e-05
7.72818e-05
7.50958e-05
7.33051e-05
7.27021e-05
7.04826e-05
6.52805e-05
6.19842e-05
6.20189e-05
6.49731e-05
7.41878e-05
8.28304e-05
8.38578e-05
8.1773e-05
7.37091e-05
4.85788e-05
3.17407e-05
2.02508e-05
1.34696e-05
1.01654e-05
7.94404e-06
7.10052e-06
7.15829e-06
7.32869e-06
8.1034e-06
1.18055e-05
2.29078e-05
4.74882e-05
6.46421e-05
6.89141e-05
6.8073e-05
6.25087e-05
5.49206e-05
5.11061e-05
4.82047e-05
4.61528e-05
4.54557e-05
4.42827e-05
4.32225e-05
4.30353e-05
4.332e-05
4.67554e-05
5.04692e-05
5.18567e-05
5.19394e-05
5.03151e-05
4.42e-05
3.76119e-05
3.05733e-05
2.4668e-05
2.07808e-05
1.77151e-05
1.57029e-05
1.42309e-05
1.29823e-05
1.21356e-05
1.17073e-05
1.19396e-05
1.28965e-05
1.46693e-05
1.86258e-05
2.22713e-05
2.37759e-05
2.51114e-05
2.84767e-05
3.67006e-05
4.21534e-05
4.40439e-05
4.48371e-05
4.50806e-05
4.486e-05
4.43038e-05
4.23432e-05
4.07382e-05
4.04053e-05
4.0075e-05
4.00148e-05
4.10369e-05
5.25193e-05
5.93719e-05
5.89985e-05
5.91201e-05
5.96917e-05
5.68287e-05
4.66958e-05
4.06842e-05
3.87608e-05
3.64512e-05
3.36591e-05
3.29736e-05
3.28319e-05
3.30204e-05
3.38799e-05
3.50292e-05
3.84901e-05
4.28167e-05
4.38192e-05
4.34961e-05
4.11958e-05
3.59673e-05
3.1355e-05
2.78359e-05
2.53826e-05
2.48303e-05
2.44921e-05
2.40705e-05
2.42014e-05
2.45667e-05
2.51084e-05
2.70205e-05
3.15026e-05
3.35686e-05
3.41527e-05
3.40329e-05
3.40725e-05
3.47903e-05
3.56712e-05
3.66765e-05
3.9729e-05
4.51441e-05
4.89878e-05
5.40703e-05
5.49849e-05
5.49864e-05
5.45191e-05
5.22262e-05
5.15923e-05
5.28953e-05
5.54821e-05
5.60496e-05
5.5808e-05
5.34428e-05
4.7978e-05
4.17567e-05
3.51867e-05
2.92038e-05
2.40098e-05
2.00911e-05
1.69526e-05
1.4818e-05
1.29288e-05
1.16676e-05
1.04129e-05
9.68334e-06
8.93052e-06
8.6241e-06
8.28055e-06
8.1977e-06
8.03787e-06
8.07851e-06
8.01303e-06
8.06951e-06
7.98644e-06
8.00761e-06
7.87417e-06
7.73969e-06
7.29367e-06
6.96565e-06
6.35398e-06
6.07539e-06
5.691e-06
5.37319e-06
5.22824e-06
4.92838e-06
4.86814e-06
4.56168e-06
4.38262e-06
3.72448e-06
3.19892e-06
2.70395e-06
2.5149e-06
2.59026e-06
2.36173e-06
2.40944e-06
2.23641e-06
2.32494e-06
2.97506e-06
2.90042e-06
3.22253e-06
4.10249e-06
6.0621e-06
1.12176e-05
3.55106e-05
0.000123545
0.000240901
0.000194394
0.00017083
0.000163781
0.000158968
0.000155311
0.000154754
0.000151626
0.00016164
0.000159867
0.000160965
0.000141759
0.000129985
0.000122168
0.000110949
9.46095e-05
7.74145e-05
7.55552e-05
7.39158e-05
7.307e-05
7.15071e-05
6.63918e-05
6.40026e-05
6.41823e-05
6.71214e-05
7.82383e-05
8.68427e-05
8.74832e-05
8.56633e-05
7.82744e-05
5.43371e-05
3.5199e-05
2.30864e-05
1.4823e-05
1.06168e-05
8.72384e-06
7.24486e-06
6.89706e-06
7.04538e-06
7.29938e-06
8.68371e-06
1.43519e-05
2.98463e-05
5.67389e-05
6.89243e-05
7.03974e-05
6.81043e-05
5.96485e-05
5.37508e-05
5.07607e-05
4.81443e-05
4.62368e-05
4.54729e-05
4.42726e-05
4.30383e-05
4.25999e-05
4.2651e-05
4.45391e-05
4.88609e-05
5.08845e-05
5.13637e-05
5.07146e-05
4.60939e-05
3.93454e-05
3.26204e-05
2.67461e-05
2.25654e-05
1.88725e-05
1.60343e-05
1.42667e-05
1.29053e-05
1.20589e-05
1.17046e-05
1.19106e-05
1.34675e-05
1.48211e-05
1.75994e-05
2.10225e-05
2.26487e-05
2.34968e-05
2.54488e-05
3.24267e-05
4.01279e-05
4.30572e-05
4.41766e-05
4.46286e-05
4.46486e-05
4.44262e-05
4.32751e-05
4.17295e-05
4.12878e-05
4.07416e-05
4.05596e-05
4.13126e-05
5.20741e-05
5.95309e-05
5.91197e-05
5.90998e-05
5.97333e-05
5.72786e-05
4.7249e-05
4.16162e-05
3.98422e-05
3.73034e-05
3.38164e-05
3.28833e-05
3.27583e-05
3.29642e-05
3.4065e-05
3.54126e-05
3.87075e-05
4.33567e-05
4.42787e-05
4.37317e-05
4.10534e-05
3.56206e-05
3.08599e-05
2.74365e-05
2.51416e-05
2.46807e-05
2.46255e-05
2.42085e-05
2.42357e-05
2.45377e-05
2.48302e-05
2.58419e-05
2.97018e-05
3.27141e-05
3.3759e-05
3.39106e-05
3.39701e-05
3.45896e-05
3.5977e-05
3.68081e-05
3.8283e-05
4.21172e-05
4.58394e-05
4.88863e-05
5.1879e-05
5.18211e-05
5.15353e-05
5.0424e-05
5.09838e-05
5.42764e-05
5.59626e-05
5.61916e-05
5.54565e-05
5.19658e-05
4.66168e-05
4.05331e-05
3.41655e-05
2.83945e-05
2.34899e-05
1.97285e-05
1.68338e-05
1.4686e-05
1.29929e-05
1.15233e-05
1.04139e-05
9.40921e-06
8.75862e-06
8.1671e-06
7.8633e-06
7.66838e-06
7.6895e-06
7.68227e-06
7.80347e-06
7.83917e-06
8.02854e-06
8.00586e-06
8.12441e-06
8.03594e-06
8.05906e-06
7.88477e-06
7.63636e-06
6.91218e-06
6.31539e-06
5.62422e-06
5.32156e-06
4.98549e-06
4.71929e-06
4.62998e-06
4.35101e-06
4.28269e-06
3.86049e-06
3.40892e-06
2.73461e-06
2.60516e-06
2.64596e-06
2.49138e-06
2.54986e-06
2.42078e-06
2.67906e-06
3.47269e-06
3.45978e-06
4.13813e-06
6.51336e-06
1.02851e-05
3.47623e-05
0.000103881
0.000233924
0.000210475
0.000190904
0.000178067
0.000166943
0.000156501
0.000154905
0.000148983
0.000152976
0.000152344
0.000158507
0.000157474
0.000147317
0.000125817
0.000110348
9.76521e-05
8.51377e-05
8.05943e-05
7.72028e-05
7.49968e-05
7.09286e-05
6.8351e-05
6.89289e-05
7.25463e-05
8.4002e-05
9.11053e-05
9.09498e-05
8.89991e-05
8.18783e-05
5.87371e-05
3.86345e-05
2.54294e-05
1.68353e-05
1.12471e-05
8.978e-06
7.92575e-06
6.8609e-06
6.70164e-06
6.89939e-06
7.36574e-06
9.67322e-06
1.79137e-05
3.88944e-05
6.4252e-05
7.15699e-05
7.14839e-05
6.59188e-05
5.75272e-05
5.32427e-05
5.07335e-05
4.84389e-05
4.65994e-05
4.5612e-05
4.42441e-05
4.29862e-05
4.22767e-05
4.21905e-05
4.30797e-05
4.72058e-05
4.99026e-05
5.08069e-05
5.05965e-05
4.74792e-05
4.09649e-05
3.46264e-05
2.88343e-05
2.40829e-05
1.97859e-05
1.66185e-05
1.4478e-05
1.29379e-05
1.20313e-05
1.17273e-05
1.18694e-05
1.34693e-05
1.52671e-05
1.69873e-05
1.95255e-05
2.11977e-05
2.18058e-05
2.2924e-05
2.72732e-05
3.78012e-05
4.23585e-05
4.38805e-05
4.42985e-05
4.42981e-05
4.42503e-05
4.35119e-05
4.22793e-05
4.20609e-05
4.14645e-05
4.11089e-05
4.1639e-05
5.18253e-05
5.9571e-05
5.9191e-05
5.90668e-05
5.98299e-05
5.76918e-05
4.79238e-05
4.251e-05
4.07687e-05
3.80472e-05
3.39891e-05
3.29356e-05
3.27735e-05
3.31198e-05
3.46452e-05
3.59768e-05
3.88773e-05
4.36471e-05
4.45928e-05
4.39505e-05
4.10451e-05
3.55086e-05
3.05467e-05
2.72312e-05
2.50116e-05
2.46262e-05
2.47403e-05
2.45321e-05
2.44781e-05
2.46246e-05
2.47908e-05
2.53502e-05
2.80245e-05
3.16044e-05
3.32678e-05
3.38234e-05
3.39704e-05
3.44289e-05
3.57276e-05
3.75434e-05
3.85281e-05
4.01257e-05
4.38435e-05
4.59211e-05
4.78149e-05
4.94745e-05
4.93235e-05
4.96863e-05
5.21596e-05
5.55922e-05
5.61096e-05
5.60973e-05
5.44671e-05
5.03958e-05
4.50574e-05
3.91398e-05
3.29585e-05
2.7495e-05
2.29088e-05
1.92235e-05
1.67117e-05
1.45105e-05
1.31947e-05
1.16619e-05
1.08107e-05
9.72922e-06
9.13136e-06
8.43535e-06
8.04084e-06
7.74884e-06
7.57108e-06
7.50868e-06
7.44627e-06
7.47851e-06
7.52882e-06
7.70876e-06
7.76723e-06
7.99583e-06
8.01523e-06
8.163e-06
8.0563e-06
8.06611e-06
7.73904e-06
7.3277e-06
6.2844e-06
5.62673e-06
4.95997e-06
4.65162e-06
4.46516e-06
4.24897e-06
4.36867e-06
4.07181e-06
3.66511e-06
2.88688e-06
2.75351e-06
2.81346e-06
2.66756e-06
2.97037e-06
2.83103e-06
3.16727e-06
3.93379e-06
4.26667e-06
7.02002e-06
9.64309e-06
3.26149e-05
8.32215e-05
0.000218239
0.000201858
0.000186141
0.000175234
0.000164215
0.000151967
0.000147631
0.000139159
0.000140106
0.000141464
0.000145666
0.000151864
0.000150028
0.000141597
0.000125722
0.000119591
0.000112235
0.000107389
9.92047e-05
8.7786e-05
8.38088e-05
8.38904e-05
8.73807e-05
9.42431e-05
9.57043e-05
9.47654e-05
9.1654e-05
8.40561e-05
6.08193e-05
4.16101e-05
2.77378e-05
1.84608e-05
1.25107e-05
9.03764e-06
8.06877e-06
7.36326e-06
6.4822e-06
6.45993e-06
6.74664e-06
7.59714e-06
1.12174e-05
2.25505e-05
4.95531e-05
6.9541e-05
7.37247e-05
7.20057e-05
6.3698e-05
5.65793e-05
5.31487e-05
5.13162e-05
4.93812e-05
4.73732e-05
4.5995e-05
4.44356e-05
4.30773e-05
4.22365e-05
4.20608e-05
4.24928e-05
4.57458e-05
4.87831e-05
5.01867e-05
5.03115e-05
4.84667e-05
4.23653e-05
3.63211e-05
3.05785e-05
2.54629e-05
2.07439e-05
1.74254e-05
1.50522e-05
1.31601e-05
1.2251e-05
1.20095e-05
1.20779e-05
1.34076e-05
1.55344e-05
1.68757e-05
1.83268e-05
1.96367e-05
2.0117e-05
2.07058e-05
2.34086e-05
3.36297e-05
4.1062e-05
4.35598e-05
4.41268e-05
4.41087e-05
4.40138e-05
4.34693e-05
4.24743e-05
4.24737e-05
4.21975e-05
4.16094e-05
4.20308e-05
5.15577e-05
5.96203e-05
5.92793e-05
5.90304e-05
5.98191e-05
5.79627e-05
4.88586e-05
4.34337e-05
4.14374e-05
3.86647e-05
3.43371e-05
3.32609e-05
3.29915e-05
3.35357e-05
3.53051e-05
3.6749e-05
3.89751e-05
4.36247e-05
4.48999e-05
4.43405e-05
4.1377e-05
3.55185e-05
3.04037e-05
2.71572e-05
2.49701e-05
2.45756e-05
2.49421e-05
2.48693e-05
2.47789e-05
2.48615e-05
2.48542e-05
2.51717e-05
2.7128e-05
3.04758e-05
3.2607e-05
3.36702e-05
3.40526e-05
3.45108e-05
3.55391e-05
3.76147e-05
3.95801e-05
4.04185e-05
4.20183e-05
4.51097e-05
4.66069e-05
4.83246e-05
4.89519e-05
4.99793e-05
5.45687e-05
5.58816e-05
5.61833e-05
5.55256e-05
5.3138e-05
4.86704e-05
4.33613e-05
3.71899e-05
3.14617e-05
2.60935e-05
2.18179e-05
1.84301e-05
1.5771e-05
1.40759e-05
1.25485e-05
1.17151e-05
1.06415e-05
1.02493e-05
9.5215e-06
9.32604e-06
8.88059e-06
8.79524e-06
8.50296e-06
8.43025e-06
8.12752e-06
8.02593e-06
7.78131e-06
7.76567e-06
7.70093e-06
7.64903e-06
7.65018e-06
7.64034e-06
7.72982e-06
7.76706e-06
7.96056e-06
7.87889e-06
7.95524e-06
7.54567e-06
7.09895e-06
5.78748e-06
5.07179e-06
4.45575e-06
4.33518e-06
4.55166e-06
4.30636e-06
4.04135e-06
3.20914e-06
2.96437e-06
2.84399e-06
2.88664e-06
3.46192e-06
3.55528e-06
4.35111e-06
4.47019e-06
8.6738e-06
9.98115e-06
2.97141e-05
6.72277e-05
0.000205832
0.000191984
0.000178051
0.000165912
0.000155634
0.000143949
0.00013582
0.000127896
0.000124256
0.000124977
0.000127146
0.000134535
0.000139973
0.000138214
0.00013236
0.000127351
0.00012236
0.000121234
0.000119817
0.000114292
0.00010911
0.000106592
0.000104792
0.000101583
9.86952e-05
9.3543e-05
8.31847e-05
6.17851e-05
4.33012e-05
2.99321e-05
1.97579e-05
1.34033e-05
9.57166e-06
7.75655e-06
7.42114e-06
6.70541e-06
6.02085e-06
6.12388e-06
6.65975e-06
8.08006e-06
1.35028e-05
2.88426e-05
5.92374e-05
7.35788e-05
7.52601e-05
7.1425e-05
6.12087e-05
5.61107e-05
5.35838e-05
5.24503e-05
5.07367e-05
4.86093e-05
4.6894e-05
4.52383e-05
4.36978e-05
4.25209e-05
4.22279e-05
4.2561e-05
4.52138e-05
4.81188e-05
4.96873e-05
5.00427e-05
4.89613e-05
4.3576e-05
3.78336e-05
3.23483e-05
2.69426e-05
2.19275e-05
1.82132e-05
1.57636e-05
1.3867e-05
1.28729e-05
1.25512e-05
1.25554e-05
1.32261e-05
1.53534e-05
1.69076e-05
1.76912e-05
1.83596e-05
1.86928e-05
1.90399e-05
2.07429e-05
2.74196e-05
3.87019e-05
4.28279e-05
4.39109e-05
4.39505e-05
4.38629e-05
4.33774e-05
4.26207e-05
4.27743e-05
4.27387e-05
4.20677e-05
4.23975e-05
5.14175e-05
5.97395e-05
5.93525e-05
5.89484e-05
5.97522e-05
5.8205e-05
4.98523e-05
4.40282e-05
4.21081e-05
3.92947e-05
3.54112e-05
3.38382e-05
3.35658e-05
3.39306e-05
3.5731e-05
3.74646e-05
3.89347e-05
4.33571e-05
4.53379e-05
4.50769e-05
4.20345e-05
3.58953e-05
3.03767e-05
2.71607e-05
2.49908e-05
2.45702e-05
2.50941e-05
2.5206e-05
2.49832e-05
2.4903e-05
2.48616e-05
2.51174e-05
2.66797e-05
2.98168e-05
3.19098e-05
3.33979e-05
3.40417e-05
3.4674e-05
3.57201e-05
3.76718e-05
3.98452e-05
4.18902e-05
4.26143e-05
4.41116e-05
4.7124e-05
4.8266e-05
4.9355e-05
5.24385e-05
5.57673e-05
5.62098e-05
5.59057e-05
5.47324e-05
5.18205e-05
4.73299e-05
4.16307e-05
3.57001e-05
2.98062e-05
2.49118e-05
2.07432e-05
1.75392e-05
1.50088e-05
1.30148e-05
1.1669e-05
1.05373e-05
9.99471e-06
9.40467e-06
9.27182e-06
9.00289e-06
9.02949e-06
8.94079e-06
9.09216e-06
9.03079e-06
9.20903e-06
9.16599e-06
9.27997e-06
9.09117e-06
9.06372e-06
8.76474e-06
8.60553e-06
8.12498e-06
7.9547e-06
7.57981e-06
7.42318e-06
7.43413e-06
7.47178e-06
7.69301e-06
7.54829e-06
7.60505e-06
7.06501e-06
6.18764e-06
4.91238e-06
4.62636e-06
4.62149e-06
4.39279e-06
4.71882e-06
3.81311e-06
3.28948e-06
3.15226e-06
3.45536e-06
3.60256e-06
5.31301e-06
5.14335e-06
1.34859e-05
1.1413e-05
2.51185e-05
5.34164e-05
0.000182685
0.000173071
0.00016485
0.000153727
0.000145141
0.000135791
0.00012559
0.000119299
0.000110607
0.000109434
0.000109716
0.000113176
0.000116801
0.00012025
0.000123214
0.000121583
0.000118269
0.00011753
0.000116988
0.000116049
0.000113187
0.000110236
0.000106046
9.92353e-05
9.27467e-05
7.90284e-05
6.05571e-05
4.32258e-05
3.0004e-05
2.03614e-05
1.35319e-05
9.8032e-06
7.73546e-06
7.04933e-06
6.78368e-06
5.94456e-06
5.57896e-06
5.91402e-06
6.71791e-06
9.0008e-06
1.67106e-05
3.70803e-05
6.76876e-05
7.66184e-05
7.63429e-05
6.91601e-05
6.02312e-05
5.60302e-05
5.4053e-05
5.31112e-05
5.19742e-05
5.00723e-05
4.82527e-05
4.6692e-05
4.49011e-05
4.32739e-05
4.28128e-05
4.29666e-05
4.50377e-05
4.77125e-05
4.93533e-05
4.98772e-05
4.92664e-05
4.49749e-05
3.94879e-05
3.387e-05
2.81944e-05
2.30805e-05
1.94834e-05
1.68748e-05
1.46013e-05
1.36579e-05
1.30296e-05
1.29108e-05
1.32109e-05
1.4747e-05
1.67936e-05
1.74672e-05
1.76502e-05
1.78332e-05
1.81708e-05
1.92289e-05
2.29741e-05
3.28282e-05
4.06092e-05
4.32462e-05
4.36436e-05
4.35961e-05
4.32005e-05
4.2697e-05
4.30337e-05
4.3114e-05
4.25283e-05
4.2755e-05
5.14738e-05
5.97598e-05
5.94474e-05
5.88309e-05
5.96662e-05
5.84601e-05
5.07544e-05
4.44229e-05
4.25698e-05
4.03418e-05
3.721e-05
3.50465e-05
3.43694e-05
3.43029e-05
3.61483e-05
3.81645e-05
3.87147e-05
4.27508e-05
4.59515e-05
4.59254e-05
4.26128e-05
3.66971e-05
3.05289e-05
2.73642e-05
2.51967e-05
2.46387e-05
2.51635e-05
2.54369e-05
2.51609e-05
2.47936e-05
2.47367e-05
2.49462e-05
2.61831e-05
2.93897e-05
3.14533e-05
3.30085e-05
3.39997e-05
3.46846e-05
3.57676e-05
3.79225e-05
4.01323e-05
4.2414e-05
4.41045e-05
4.47805e-05
4.73984e-05
4.87119e-05
5.069e-05
5.50391e-05
5.59561e-05
5.60681e-05
5.49716e-05
5.37521e-05
5.05449e-05
4.60154e-05
4.00325e-05
3.43569e-05
2.86234e-05
2.40265e-05
2.01333e-05
1.71086e-05
1.46646e-05
1.27264e-05
1.12433e-05
1.00855e-05
9.23571e-06
8.64993e-06
8.24364e-06
7.98797e-06
7.91646e-06
7.96068e-06
7.99986e-06
8.19321e-06
8.32678e-06
8.69871e-06
8.86656e-06
9.2699e-06
9.34907e-06
9.5954e-06
9.59929e-06
9.57334e-06
9.26222e-06
8.77144e-06
7.95973e-06
7.66205e-06
7.24423e-06
7.14064e-06
7.22444e-06
7.28751e-06
7.79846e-06
7.6095e-06
7.21412e-06
5.79144e-06
5.15399e-06
4.63413e-06
4.83923e-06
4.95994e-06
4.24622e-06
3.53683e-06
4.58397e-06
4.16821e-06
8.99418e-06
6.78347e-06
1.62973e-05
1.31929e-05
2.25406e-05
4.35932e-05
0.00014945
0.000141622
0.000137443
0.000129169
0.000124603
0.000116663
0.000106716
0.000101007
9.30693e-05
9.05573e-05
9.05301e-05
9.2641e-05
9.53469e-05
9.65002e-05
0.000100633
9.98181e-05
9.92627e-05
9.82316e-05
9.84138e-05
9.92604e-05
9.82153e-05
9.58416e-05
9.02033e-05
8.18576e-05
6.90818e-05
5.25015e-05
3.85497e-05
2.71473e-05
1.91311e-05
1.33041e-05
9.39044e-06
7.65711e-06
6.79891e-06
6.53918e-06
6.11822e-06
5.27627e-06
5.28012e-06
5.84467e-06
7.04893e-06
1.04816e-05
2.08496e-05
4.83512e-05
7.33855e-05
7.88591e-05
7.68667e-05
6.70956e-05
5.94651e-05
5.61744e-05
5.41798e-05
5.31433e-05
5.26607e-05
5.13593e-05
4.97558e-05
4.84777e-05
4.63675e-05
4.41804e-05
4.35977e-05
4.35902e-05
4.5115e-05
4.75507e-05
4.91034e-05
4.97309e-05
4.94297e-05
4.65294e-05
4.10462e-05
3.5062e-05
2.90773e-05
2.41069e-05
2.08953e-05
1.84146e-05
1.58452e-05
1.46004e-05
1.39197e-05
1.33632e-05
1.33972e-05
1.39837e-05
1.61773e-05
1.73055e-05
1.74389e-05
1.75116e-05
1.77104e-05
1.81672e-05
1.97949e-05
2.60584e-05
3.65474e-05
4.13137e-05
4.29397e-05
4.31401e-05
4.28658e-05
4.2634e-05
4.31179e-05
4.33789e-05
4.28507e-05
4.30768e-05
5.15384e-05
5.99482e-05
5.95261e-05
5.87124e-05
5.94827e-05
5.87041e-05
5.15543e-05
4.46366e-05
4.29788e-05
4.19024e-05
3.95031e-05
3.67657e-05
3.51354e-05
3.467e-05
3.65528e-05
3.8283e-05
3.86408e-05
4.22022e-05
4.63314e-05
4.65498e-05
4.31909e-05
3.77855e-05
3.09767e-05
2.75368e-05
2.54727e-05
2.47695e-05
2.52485e-05
2.5584e-05
2.52764e-05
2.46948e-05
2.46646e-05
2.49513e-05
2.60085e-05
2.90063e-05
3.12365e-05
3.28707e-05
3.40268e-05
3.47173e-05
3.56343e-05
3.7825e-05
4.05767e-05
4.23588e-05
4.45835e-05
4.69611e-05
4.8191e-05
4.96148e-05
5.29855e-05
5.54283e-05
5.58647e-05
5.52568e-05
5.42451e-05
5.21961e-05
4.87571e-05
4.3759e-05
3.83627e-05
3.25877e-05
2.75011e-05
2.30789e-05
1.95818e-05
1.67703e-05
1.4433e-05
1.27436e-05
1.12809e-05
1.02958e-05
9.41427e-06
8.91013e-06
8.35365e-06
8.05079e-06
7.80225e-06
7.68437e-06
7.55946e-06
7.52814e-06
7.54138e-06
7.58636e-06
7.761e-06
8.02177e-06
8.61831e-06
8.88818e-06
9.45151e-06
9.55293e-06
9.97233e-06
9.90482e-06
9.88365e-06
9.4853e-06
9.05305e-06
7.96962e-06
7.49236e-06
7.13667e-06
7.2604e-06
7.87275e-06
7.87077e-06
8.32091e-06
7.11317e-06
5.60639e-06
5.29909e-06
5.26409e-06
5.78313e-06
4.90035e-06
6.65817e-06
5.32658e-06
1.08841e-05
8.8773e-06
2.64253e-05
1.75199e-05
2.05321e-05
3.56965e-05
0.000111124
0.000103925
0.000100875
9.46049e-05
9.14227e-05
8.61359e-05
7.67914e-05
6.99528e-05
6.37778e-05
6.35667e-05
6.43066e-05
6.8494e-05
7.1258e-05
7.44053e-05
7.71034e-05
7.59695e-05
7.50788e-05
7.26729e-05
7.151e-05
7.09908e-05
6.92855e-05
6.66257e-05
6.02688e-05
5.12762e-05
4.12974e-05
3.15081e-05
2.3589e-05
1.69322e-05
1.22446e-05
8.89061e-06
7.15566e-06
6.65844e-06
6.37805e-06
6.02232e-06
5.26285e-06
4.90826e-06
5.13647e-06
6.0236e-06
7.79164e-06
1.26607e-05
2.63583e-05
5.87138e-05
7.82145e-05
8.07448e-05
7.60883e-05
6.52132e-05
5.91433e-05
5.61989e-05
5.42904e-05
5.33259e-05
5.29905e-05
5.22137e-05
5.04732e-05
4.94698e-05
4.73618e-05
4.4897e-05
4.42822e-05
4.41619e-05
4.53238e-05
4.75154e-05
4.90069e-05
4.97177e-05
4.95557e-05
4.77795e-05
4.26375e-05
3.61066e-05
2.97934e-05
2.49637e-05
2.19833e-05
1.96958e-05
1.72494e-05
1.57294e-05
1.48139e-05
1.40393e-05
1.38546e-05
1.40611e-05
1.53575e-05
1.71127e-05
1.73821e-05
1.72397e-05
1.70084e-05
1.70118e-05
1.74871e-05
2.10118e-05
3.17146e-05
3.85729e-05
4.15789e-05
4.24977e-05
4.24086e-05
4.2396e-05
4.31742e-05
4.35185e-05
4.30527e-05
4.32499e-05
5.174e-05
5.9998e-05
5.95371e-05
5.8479e-05
5.92844e-05
5.88324e-05
5.19955e-05
4.47857e-05
4.36546e-05
4.33602e-05
4.20714e-05
3.86218e-05
3.55402e-05
3.47996e-05
3.65951e-05
3.81627e-05
3.86619e-05
4.21577e-05
4.62435e-05
4.69482e-05
4.40832e-05
3.9117e-05
3.18049e-05
2.78251e-05
2.58818e-05
2.50143e-05
2.53767e-05
2.56643e-05
2.53391e-05
2.47264e-05
2.47238e-05
2.50682e-05
2.61067e-05
2.86549e-05
3.08704e-05
3.2798e-05
3.42033e-05
3.48398e-05
3.56022e-05
3.74371e-05
4.05692e-05
4.23363e-05
4.4866e-05
4.76111e-05
4.8734e-05
5.07297e-05
5.40752e-05
5.52059e-05
5.51588e-05
5.4307e-05
5.24313e-05
5.05871e-05
4.62528e-05
4.17213e-05
3.59489e-05
3.1067e-05
2.5805e-05
2.20788e-05
1.84024e-05
1.59725e-05
1.37194e-05
1.22673e-05
1.10554e-05
1.0137e-05
9.60418e-06
9.00552e-06
8.77155e-06
8.45277e-06
8.37937e-06
8.24103e-06
8.15924e-06
8.0775e-06
7.9621e-06
7.955e-06
7.93005e-06
7.96694e-06
8.01208e-06
8.03251e-06
8.13198e-06
8.32447e-06
8.55123e-06
9.05236e-06
9.32885e-06
9.96305e-06
1.00529e-05
1.02875e-05
9.8775e-06
8.89901e-06
7.95324e-06
7.7545e-06
7.80762e-06
8.1848e-06
9.61785e-06
8.42829e-06
8.70811e-06
7.14292e-06
8.39857e-06
6.76128e-06
9.46241e-06
7.52563e-06
2.2023e-05
1.45895e-05
3.00248e-05
2.59939e-05
2.29862e-05
3.03304e-05
7.15858e-05
6.54436e-05
6.28697e-05
5.79039e-05
5.57482e-05
5.14306e-05
4.54701e-05
4.10248e-05
3.74642e-05
3.72585e-05
3.80409e-05
4.26447e-05
4.52208e-05
4.99174e-05
5.23881e-05
5.16113e-05
5.07581e-05
4.81461e-05
4.535e-05
4.3559e-05
4.04564e-05
3.82524e-05
3.37313e-05
2.9499e-05
2.37986e-05
1.84006e-05
1.41201e-05
1.04422e-05
8.07099e-06
6.72078e-06
6.31102e-06
6.25047e-06
5.92922e-06
5.11178e-06
4.76228e-06
4.71692e-06
5.14047e-06
6.42667e-06
8.89943e-06
1.55785e-05
3.35262e-05
6.84011e-05
8.18956e-05
8.19588e-05
7.40494e-05
6.42905e-05
5.90735e-05
5.6314e-05
5.44014e-05