/*--------------------------------*- C++ -*----------------------------------*\
| =========                 |                                                 |
| \\      /  F ield         | OpenFOAM: The Open Source CFD Toolbox           |
|  \\    /   O peration     | Version:  2.4.0                                 |
|   \\  /    A nd           | Web:      www.OpenFOAM.org                      |
|    \\/     M anipulation  |                                                 |
\*---------------------------------------------------------------------------*/
FoamFile
{
    version     2.0;
    format      ascii;
    class       volScalarField;
    location    "0.096";
    object      pPrime2Mean;
}
// * * * * * * * * * * * * * * * * * * * * * * * * * * * * * * * * * * * * * //

dimensions      [0 4 -4 0 0 0 0];

internalField   nonuniform List<scalar> 
17600
(
6.7307e+06
6.56098e+06
6.37849e+06
6.19763e+06
6.01934e+06
5.84366e+06
5.67057e+06
5.50008e+06
5.33217e+06
5.16685e+06
5.0041e+06
4.84389e+06
4.68619e+06
4.53089e+06
4.37786e+06
4.22677e+06
4.07706e+06
3.92754e+06
3.77552e+06
3.61194e+06
6.73085e+06
6.56098e+06
6.37848e+06
6.19763e+06
6.01934e+06
5.84366e+06
5.67057e+06
5.50008e+06
5.33217e+06
5.16685e+06
5.0041e+06
4.84389e+06
4.68619e+06
4.5309e+06
4.37787e+06
4.22679e+06
4.0771e+06
3.92762e+06
3.77574e+06
3.61236e+06
6.73095e+06
6.56096e+06
6.37847e+06
6.19762e+06
6.01933e+06
5.84366e+06
5.67057e+06
5.50008e+06
5.33217e+06
5.16685e+06
5.0041e+06
4.8439e+06
4.6862e+06
4.53091e+06
4.37789e+06
4.22683e+06
4.07718e+06
3.9278e+06
3.77613e+06
3.61403e+06
6.73102e+06
6.56093e+06
6.37846e+06
6.19762e+06
6.01933e+06
5.84366e+06
5.67057e+06
5.50008e+06
5.33217e+06
5.16685e+06
5.0041e+06
4.8439e+06
4.6862e+06
4.53093e+06
4.37792e+06
4.22689e+06
4.07731e+06
3.92805e+06
3.77673e+06
3.61638e+06
6.73108e+06
6.5609e+06
6.37844e+06
6.19761e+06
6.01933e+06
5.84365e+06
5.67057e+06
5.50008e+06
5.33217e+06
5.16685e+06
5.00411e+06
4.84391e+06
4.68622e+06
4.53095e+06
4.37796e+06
4.22698e+06
4.07746e+06
3.92839e+06
3.77751e+06
3.61918e+06
6.73114e+06
6.56088e+06
6.37842e+06
6.19761e+06
6.01933e+06
5.84365e+06
5.67057e+06
5.50007e+06
5.33217e+06
5.16686e+06
5.00411e+06
4.84392e+06
4.68623e+06
4.53098e+06
4.37801e+06
4.22707e+06
4.07766e+06
3.92879e+06
3.77846e+06
3.62225e+06
6.73119e+06
6.56086e+06
6.3784e+06
6.1976e+06
6.01932e+06
5.84365e+06
5.67057e+06
5.50007e+06
5.33217e+06
5.16686e+06
5.00412e+06
4.84393e+06
4.68625e+06
4.53101e+06
4.37808e+06
4.22719e+06
4.07789e+06
3.92927e+06
3.77956e+06
3.62546e+06
6.73124e+06
6.56084e+06
6.37837e+06
6.19759e+06
6.01932e+06
5.84365e+06
5.67056e+06
5.50007e+06
5.33217e+06
5.16686e+06
5.00412e+06
4.84394e+06
4.68627e+06
4.53105e+06
4.37815e+06
4.22732e+06
4.07815e+06
3.9298e+06
3.78076e+06
3.62874e+06
6.73129e+06
6.56083e+06
6.37836e+06
6.19759e+06
6.01932e+06
5.84365e+06
5.67056e+06
5.50007e+06
5.33217e+06
5.16686e+06
5.00413e+06
4.84395e+06
4.68629e+06
4.53109e+06
4.37822e+06
4.22747e+06
4.07844e+06
3.93039e+06
3.78206e+06
3.63203e+06
6.73133e+06
6.56082e+06
6.37834e+06
6.19758e+06
6.01932e+06
5.84365e+06
5.67056e+06
5.50007e+06
5.33217e+06
5.16687e+06
5.00413e+06
4.84396e+06
4.68632e+06
4.53114e+06
4.37831e+06
4.22764e+06
4.07876e+06
3.93103e+06
3.78344e+06
3.63528e+06
6.73137e+06
6.56081e+06
6.37832e+06
6.19758e+06
6.01932e+06
5.84365e+06
5.67056e+06
5.50007e+06
5.33217e+06
5.16687e+06
5.00414e+06
4.84398e+06
4.68634e+06
4.53119e+06
4.37841e+06
4.22782e+06
4.0791e+06
3.93171e+06
3.78487e+06
3.63848e+06
6.7314e+06
6.56081e+06
6.37831e+06
6.19757e+06
6.01932e+06
5.84365e+06
5.67056e+06
5.50007e+06
5.33218e+06
5.16687e+06
5.00415e+06
4.84399e+06
4.68637e+06
4.53124e+06
4.37851e+06
4.22801e+06
4.07946e+06
3.93242e+06
3.78633e+06
3.6416e+06
6.73143e+06
6.56081e+06
6.37829e+06
6.19756e+06
6.01932e+06
5.84365e+06
5.67056e+06
5.50007e+06
5.33218e+06
5.16688e+06
5.00416e+06
4.84401e+06
4.68641e+06
4.5313e+06
4.37862e+06
4.22821e+06
4.07984e+06
3.93316e+06
3.78782e+06
3.64462e+06
6.73145e+06
6.5608e+06
6.37828e+06
6.19756e+06
6.01932e+06
5.84365e+06
5.67056e+06
5.50007e+06
5.33218e+06
5.16688e+06
5.00417e+06
4.84403e+06
4.68644e+06
4.53136e+06
4.37873e+06
4.22842e+06
4.08024e+06
3.93392e+06
3.78932e+06
3.64755e+06
6.73147e+06
6.5608e+06
6.37827e+06
6.19755e+06
6.01932e+06
5.84365e+06
5.67056e+06
5.50007e+06
5.33218e+06
5.16689e+06
5.00418e+06
4.84405e+06
4.68647e+06
4.53143e+06
4.37885e+06
4.22863e+06
4.08064e+06
3.93469e+06
3.79081e+06
3.65036e+06
6.73149e+06
6.5608e+06
6.37827e+06
6.19755e+06
6.01932e+06
5.84365e+06
5.67056e+06
5.50007e+06
5.33218e+06
5.16689e+06
5.00419e+06
4.84407e+06
4.68651e+06
4.53149e+06
4.37897e+06
4.22886e+06
4.08106e+06
3.93548e+06
3.7923e+06
3.65307e+06
6.7315e+06
6.5608e+06
6.37826e+06
6.19754e+06
6.01933e+06
5.84365e+06
5.67056e+06
5.50007e+06
5.33219e+06
5.1669e+06
5.0042e+06
4.84409e+06
4.68655e+06
4.53156e+06
4.37909e+06
4.22909e+06
4.08148e+06
3.93627e+06
3.79376e+06
3.65565e+06
6.73151e+06
6.5608e+06
6.37825e+06
6.19754e+06
6.01933e+06
5.84365e+06
5.67056e+06
5.50007e+06
5.33219e+06
5.1669e+06
5.00421e+06
4.84411e+06
4.68658e+06
4.53163e+06
4.37922e+06
4.22932e+06
4.08191e+06
3.93706e+06
3.7952e+06
3.65812e+06
6.73151e+06
6.5608e+06
6.37825e+06
6.19754e+06
6.01933e+06
5.84365e+06
5.67056e+06
5.50007e+06
5.33219e+06
5.16691e+06
5.00422e+06
4.84413e+06
4.68662e+06
4.5317e+06
4.37934e+06
4.22955e+06
4.08234e+06
3.93784e+06
3.7966e+06
3.66048e+06
6.73152e+06
6.5608e+06
6.37825e+06
6.19754e+06
6.01933e+06
5.84366e+06
5.67056e+06
5.50008e+06
5.33219e+06
5.16692e+06
5.00423e+06
4.84415e+06
4.68666e+06
4.53177e+06
4.37947e+06
4.22979e+06
4.08277e+06
3.93861e+06
3.79797e+06
3.66271e+06
6.73152e+06
6.5608e+06
6.37825e+06
6.19754e+06
6.01933e+06
5.84366e+06
5.67056e+06
5.50008e+06
5.3322e+06
5.16692e+06
5.00425e+06
4.84417e+06
4.6867e+06
4.53184e+06
4.3796e+06
4.23002e+06
4.08319e+06
3.93937e+06
3.79928e+06
3.66483e+06
6.73151e+06
6.5608e+06
6.37825e+06
6.19754e+06
6.01933e+06
5.84366e+06
5.67057e+06
5.50008e+06
5.3322e+06
5.16693e+06
5.00426e+06
4.84419e+06
4.68674e+06
4.53191e+06
4.37973e+06
4.23025e+06
4.0836e+06
3.94011e+06
3.80055e+06
3.66683e+06
6.73151e+06
6.5608e+06
6.37825e+06
6.19754e+06
6.01933e+06
5.84366e+06
5.67057e+06
5.50008e+06
5.3322e+06
5.16693e+06
5.00427e+06
4.84421e+06
4.68678e+06
4.53198e+06
4.37985e+06
4.23048e+06
4.08401e+06
3.94082e+06
3.80177e+06
3.66872e+06
6.7315e+06
6.5608e+06
6.37826e+06
6.19754e+06
6.01933e+06
5.84366e+06
5.67057e+06
5.50008e+06
5.33221e+06
5.16694e+06
5.00428e+06
4.84423e+06
4.68681e+06
4.53204e+06
4.37998e+06
4.2307e+06
4.08441e+06
3.94152e+06
3.80293e+06
3.6705e+06
6.73149e+06
6.5608e+06
6.37827e+06
6.19755e+06
6.01933e+06
5.84366e+06
5.67057e+06
5.50009e+06
5.33221e+06
5.16695e+06
5.00429e+06
4.84425e+06
4.68685e+06
4.53211e+06
4.3801e+06
4.23091e+06
4.08479e+06
3.94218e+06
3.80403e+06
3.67216e+06
6.73147e+06
6.5608e+06
6.37827e+06
6.19755e+06
6.01933e+06
5.84366e+06
5.67057e+06
5.50009e+06
5.33222e+06
5.16695e+06
5.0043e+06
4.84427e+06
4.68688e+06
4.53217e+06
4.38021e+06
4.23112e+06
4.08516e+06
3.94281e+06
3.80507e+06
3.67371e+06
6.73145e+06
6.5608e+06
6.37828e+06
6.19756e+06
6.01933e+06
5.84366e+06
5.67057e+06
5.50009e+06
5.33222e+06
5.16696e+06
5.00431e+06
4.84429e+06
4.68692e+06
4.53224e+06
4.38032e+06
4.23132e+06
4.08551e+06
3.94341e+06
3.80604e+06
3.67515e+06
6.73143e+06
6.56081e+06
6.3783e+06
6.19757e+06
6.01933e+06
5.84366e+06
5.67057e+06
5.5001e+06
5.33223e+06
5.16697e+06
5.00432e+06
4.84431e+06
4.68695e+06
4.5323e+06
4.38043e+06
4.23151e+06
4.08584e+06
3.94398e+06
3.80696e+06
3.67649e+06
6.7314e+06
6.56081e+06
6.37831e+06
6.19757e+06
6.01933e+06
5.84366e+06
5.67058e+06
5.5001e+06
5.33223e+06
5.16697e+06
5.00433e+06
4.84433e+06
4.68698e+06
4.53235e+06
4.38053e+06
4.23169e+06
4.08615e+06
3.94451e+06
3.8078e+06
3.67772e+06
6.73137e+06
6.56082e+06
6.37832e+06
6.19758e+06
6.01933e+06
5.84366e+06
5.67058e+06
5.5001e+06
5.33223e+06
5.16698e+06
5.00434e+06
4.84434e+06
4.68701e+06
4.5324e+06
4.38062e+06
4.23185e+06
4.08644e+06
3.945e+06
3.80858e+06
3.67884e+06
6.73133e+06
6.56082e+06
6.37834e+06
6.19759e+06
6.01933e+06
5.84366e+06
5.67058e+06
5.50011e+06
5.33224e+06
5.16698e+06
5.00435e+06
4.84436e+06
4.68704e+06
4.53245e+06
4.38071e+06
4.23201e+06
4.08671e+06
3.94545e+06
3.80929e+06
3.67986e+06
6.73129e+06
6.56083e+06
6.37836e+06
6.19759e+06
6.01933e+06
5.84366e+06
5.67058e+06
5.50011e+06
5.33224e+06
5.16699e+06
5.00436e+06
4.84437e+06
4.68706e+06
4.5325e+06
4.38079e+06
4.23215e+06
4.08695e+06
3.94585e+06
3.80993e+06
3.68077e+06
6.73125e+06
6.56085e+06
6.37838e+06
6.1976e+06
6.01933e+06
5.84366e+06
5.67058e+06
5.50011e+06
5.33225e+06
5.16699e+06
5.00437e+06
4.84438e+06
4.68708e+06
4.53254e+06
4.38086e+06
4.23228e+06
4.08717e+06
3.94622e+06
3.8105e+06
3.68158e+06
6.7312e+06
6.56086e+06
6.3784e+06
6.1976e+06
6.01933e+06
5.84366e+06
5.67059e+06
5.50012e+06
5.33225e+06
5.167e+06
5.00437e+06
4.8444e+06
4.6871e+06
4.53257e+06
4.38092e+06
4.23239e+06
4.08737e+06
3.94654e+06
3.811e+06
3.68229e+06
6.73114e+06
6.56088e+06
6.37842e+06
6.19761e+06
6.01933e+06
5.84366e+06
5.67059e+06
5.50012e+06
5.33225e+06
5.167e+06
5.00438e+06
4.8444e+06
4.68712e+06
4.5326e+06
4.38098e+06
4.23249e+06
4.08753e+06
3.94682e+06
3.81143e+06
3.6829e+06
6.73109e+06
6.56091e+06
6.37844e+06
6.19762e+06
6.01934e+06
5.84367e+06
5.67059e+06
5.50012e+06
5.33225e+06
5.16701e+06
5.00438e+06
4.84441e+06
4.68714e+06
4.53263e+06
4.38103e+06
4.23257e+06
4.08767e+06
3.94705e+06
3.81179e+06
3.6834e+06
6.73103e+06
6.56093e+06
6.37846e+06
6.19762e+06
6.01934e+06
5.84367e+06
5.67059e+06
5.50012e+06
5.33226e+06
5.16701e+06
5.00439e+06
4.84442e+06
4.68715e+06
4.53265e+06
4.38106e+06
4.23263e+06
4.08779e+06
3.94724e+06
3.81208e+06
3.6838e+06
6.73095e+06
6.56096e+06
6.37848e+06
6.19763e+06
6.01934e+06
5.84367e+06
5.6706e+06
5.50012e+06
5.33226e+06
5.16701e+06
5.00439e+06
4.84442e+06
4.68716e+06
4.53267e+06
4.38109e+06
4.23268e+06
4.08787e+06
3.94738e+06
3.81229e+06
3.6841e+06
6.73085e+06
6.56098e+06
6.37849e+06
6.19763e+06
6.01934e+06
5.84367e+06
5.6706e+06
5.50012e+06
5.33226e+06
5.16701e+06
5.00439e+06
4.84443e+06
4.68716e+06
4.53268e+06
4.38111e+06
4.23272e+06
4.08793e+06
3.94747e+06
3.81244e+06
3.6843e+06
6.73071e+06
6.56098e+06
6.37849e+06
6.19763e+06
6.01934e+06
5.84367e+06
5.6706e+06
5.50012e+06
5.33226e+06
5.16701e+06
5.00439e+06
4.84443e+06
4.68717e+06
4.53268e+06
4.38112e+06
4.23274e+06
4.08796e+06
3.94752e+06
3.81251e+06
3.6844e+06
3.45702e+06
3.41988e+06
3.39113e+06
3.36591e+06
3.34228e+06
3.31968e+06
3.29782e+06
3.27651e+06
3.25561e+06
3.23506e+06
3.21477e+06
3.19472e+06
3.17487e+06
3.15518e+06
3.13563e+06
3.11621e+06
3.0969e+06
3.07767e+06
3.05854e+06
3.03949e+06
3.02051e+06
3.0016e+06
2.98274e+06
2.96394e+06
2.94518e+06
2.92648e+06
2.90783e+06
2.88924e+06
2.87071e+06
2.85225e+06
2.83385e+06
2.81552e+06
2.79727e+06
2.77908e+06
2.76096e+06
2.74291e+06
2.72493e+06
2.70701e+06
2.68916e+06
2.67137e+06
2.65365e+06
2.636e+06
2.61842e+06
2.6009e+06
2.58344e+06
2.56605e+06
2.54871e+06
2.53143e+06
2.51421e+06
2.49704e+06
2.47994e+06
2.46289e+06
2.4459e+06
2.42896e+06
2.41209e+06
2.39528e+06
2.37852e+06
2.36182e+06
2.34519e+06
2.32862e+06
2.31211e+06
2.29567e+06
2.27929e+06
2.26298e+06
2.24672e+06
2.23053e+06
2.2144e+06
2.19833e+06
2.18232e+06
2.16637e+06
2.15048e+06
2.13465e+06
2.11888e+06
2.10317e+06
2.08752e+06
2.07193e+06
2.05639e+06
2.04092e+06
2.0255e+06
2.01013e+06
1.99483e+06
1.97958e+06
1.96439e+06
1.94925e+06
1.93417e+06
1.91914e+06
1.90416e+06
1.88925e+06
1.87438e+06
1.85958e+06
1.84483e+06
1.83014e+06
1.81551e+06
1.80094e+06
1.78643e+06
1.77198e+06
1.75759e+06
1.74326e+06
1.72899e+06
1.71478e+06
1.70063e+06
1.68653e+06
1.6725e+06
1.65852e+06
1.6446e+06
1.63074e+06
1.61693e+06
1.60319e+06
1.5895e+06
1.57587e+06
1.56229e+06
1.54877e+06
1.53531e+06
1.52191e+06
1.50856e+06
1.49527e+06
1.48203e+06
1.46885e+06
1.45572e+06
1.44264e+06
1.42962e+06
1.41665e+06
1.40375e+06
1.3909e+06
1.37812e+06
1.3654e+06
1.35274e+06
1.34015e+06
1.32762e+06
1.31516e+06
1.30276e+06
1.29042e+06
1.27814e+06
1.26593e+06
1.25377e+06
1.24168e+06
1.22964e+06
1.21766e+06
1.20574e+06
1.19388e+06
1.18208e+06
1.17033e+06
1.15865e+06
1.14702e+06
1.13545e+06
1.12394e+06
1.11249e+06
1.1011e+06
1.08977e+06
1.0785e+06
1.06728e+06
1.05613e+06
1.04503e+06
1.03399e+06
1.02301e+06
1.01209e+06
1.00122e+06
990414
979666
968976
958343
947769
937253
926794
916393
906049
895763
885535
875363
865248
855189
845186
835240
825348
815512
805729
796001
786324
776699
767125
757599
748120
738685
729293
719940
710621
701332
692068
682820
673580
664335
655070
645765
636392
626913
617269
607376
597102
585962
573823
3.47457e+06
3.43414e+06
3.40237e+06
3.3751e+06
3.35008e+06
3.32642e+06
3.30371e+06
3.28169e+06
3.26021e+06
3.23914e+06
3.21842e+06
3.19798e+06
3.17779e+06
3.1578e+06
3.13799e+06
3.11833e+06
3.0988e+06
3.07938e+06
3.06008e+06
3.04087e+06
3.02175e+06
3.00271e+06
2.98373e+06
2.96483e+06
2.94598e+06
2.9272e+06
2.90848e+06
2.88983e+06
2.87124e+06
2.85272e+06
2.83428e+06
2.81591e+06
2.79762e+06
2.7794e+06
2.76125e+06
2.74317e+06
2.72517e+06
2.70722e+06
2.68935e+06
2.67155e+06
2.65381e+06
2.63614e+06
2.61855e+06
2.60102e+06
2.58355e+06
2.56615e+06
2.54881e+06
2.53152e+06
2.51429e+06
2.49712e+06
2.48001e+06
2.46296e+06
2.44596e+06
2.42902e+06
2.41215e+06
2.39533e+06
2.37857e+06
2.36188e+06
2.34525e+06
2.32868e+06
2.31217e+06
2.29573e+06
2.27935e+06
2.26304e+06
2.24679e+06
2.23059e+06
2.21446e+06
2.19839e+06
2.18238e+06
2.16643e+06
2.15054e+06
2.13471e+06
2.11894e+06
2.10323e+06
2.08757e+06
2.07198e+06
2.05644e+06
2.04096e+06
2.02554e+06
2.01018e+06
1.99487e+06
1.97962e+06
1.96442e+06
1.94928e+06
1.93419e+06
1.91916e+06
1.90418e+06
1.88926e+06
1.87439e+06
1.85958e+06
1.84484e+06
1.83014e+06
1.81551e+06
1.80094e+06
1.78643e+06
1.77198e+06
1.7576e+06
1.74327e+06
1.729e+06
1.71479e+06
1.70064e+06
1.68654e+06
1.67251e+06
1.65853e+06
1.64461e+06
1.63075e+06
1.61695e+06
1.6032e+06
1.58951e+06
1.57588e+06
1.56231e+06
1.54879e+06
1.53533e+06
1.52193e+06
1.50858e+06
1.49529e+06
1.48205e+06
1.46886e+06
1.45573e+06
1.44265e+06
1.42963e+06
1.41666e+06
1.40375e+06
1.3909e+06
1.37811e+06
1.36539e+06
1.35273e+06
1.34014e+06
1.32761e+06
1.31515e+06
1.30275e+06
1.29041e+06
1.27813e+06
1.26591e+06
1.25375e+06
1.24166e+06
1.22962e+06
1.21764e+06
1.20572e+06
1.19386e+06
1.18205e+06
1.17031e+06
1.15862e+06
1.14699e+06
1.13542e+06
1.12391e+06
1.11246e+06
1.10107e+06
1.08973e+06
1.07845e+06
1.06723e+06
1.05607e+06
1.04497e+06
1.03392e+06
1.02294e+06
1.01201e+06
1.00114e+06
990321
979564
968864
958221
947636
937107
926635
916219
905859
895556
885308
875115
864976
854893
844863
834886
824962
815089
805268
795496
785773
776096
766465
756878
747331
737822
728347
718903
709485
700085
690698
681312
671917
662497
653033
643497
633852
624049
614003
603589
592604
580405
566028
3.48845e+06
3.44666e+06
3.41293e+06
3.38398e+06
3.35769e+06
3.33303e+06
3.30951e+06
3.28681e+06
3.26475e+06
3.24319e+06
3.22204e+06
3.20123e+06
3.1807e+06
3.16041e+06
3.14034e+06
3.12044e+06
3.10069e+06
3.08109e+06
3.06161e+06
3.04225e+06
3.02298e+06
3.00381e+06
2.98472e+06
2.96571e+06
2.94678e+06
2.92792e+06
2.90913e+06
2.89041e+06
2.87177e+06
2.8532e+06
2.83471e+06
2.8163e+06
2.79797e+06
2.77972e+06
2.76154e+06
2.74344e+06
2.7254e+06
2.70744e+06
2.68955e+06
2.67172e+06
2.65397e+06
2.63629e+06
2.61868e+06
2.60114e+06
2.58367e+06
2.56626e+06
2.54891e+06
2.53162e+06
2.51438e+06
2.49721e+06
2.48009e+06
2.46303e+06
2.44603e+06
2.42908e+06
2.4122e+06
2.39538e+06
2.37863e+06
2.36193e+06
2.3453e+06
2.32873e+06
2.31223e+06
2.29579e+06
2.27941e+06
2.2631e+06
2.24685e+06
2.23066e+06
2.21452e+06
2.19845e+06
2.18244e+06
2.16649e+06
2.1506e+06
2.13476e+06
2.11899e+06
2.10328e+06
2.08762e+06
2.07203e+06
2.05649e+06
2.04101e+06
2.02558e+06
2.01021e+06
1.9949e+06
1.97965e+06
1.96444e+06
1.9493e+06
1.9342e+06
1.91917e+06
1.90419e+06
1.88926e+06
1.8744e+06
1.85959e+06
1.84484e+06
1.83014e+06
1.81551e+06
1.80094e+06
1.78643e+06
1.77199e+06
1.7576e+06
1.74327e+06
1.729e+06
1.71479e+06
1.70064e+06
1.68655e+06
1.67252e+06
1.65854e+06
1.64462e+06
1.63076e+06
1.61696e+06
1.60321e+06
1.58952e+06
1.57589e+06
1.56232e+06
1.5488e+06
1.53534e+06
1.52194e+06
1.50859e+06
1.4953e+06
1.48206e+06
1.46887e+06
1.45574e+06
1.44266e+06
1.42963e+06
1.41666e+06
1.40375e+06
1.3909e+06
1.37811e+06
1.36539e+06
1.35273e+06
1.34013e+06
1.3276e+06
1.31513e+06
1.30273e+06
1.29039e+06
1.27811e+06
1.2659e+06
1.25374e+06
1.24164e+06
1.2296e+06
1.21762e+06
1.2057e+06
1.19383e+06
1.18203e+06
1.17028e+06
1.15859e+06
1.14696e+06
1.13539e+06
1.12388e+06
1.11242e+06
1.10103e+06
1.08969e+06
1.07841e+06
1.06718e+06
1.05602e+06
1.04491e+06
1.03386e+06
1.02287e+06
1.01193e+06
1.00105e+06
990228
979462
968753
958100
947503
936962
926476
916046
905670
895349
885081
874867
864706
854598
844540
834534
824577
814669
804808
794994
785224
775496
765809
756160
746546
736964
727408
717875
708357
698849
689340
679820
670273
660683
651024
641266
631363
621252
610838
599948
588370
575388
559830
3.49983e+06
3.45776e+06
3.42278e+06
3.39247e+06
3.36506e+06
3.33949e+06
3.3152e+06
3.29186e+06
3.26924e+06
3.2472e+06
3.22562e+06
3.20444e+06
3.18358e+06
3.163e+06
3.14266e+06
3.12253e+06
3.10258e+06
3.08278e+06
3.06313e+06
3.04361e+06
3.02421e+06
3.00491e+06
2.98571e+06
2.9666e+06
2.94757e+06
2.92863e+06
2.90977e+06
2.89099e+06
2.87229e+06
2.85368e+06
2.83514e+06
2.81669e+06
2.79833e+06
2.78004e+06
2.76183e+06
2.7437e+06
2.72564e+06
2.70765e+06
2.68974e+06
2.6719e+06
2.65413e+06
2.63644e+06
2.61881e+06
2.60126e+06
2.58378e+06
2.56637e+06
2.54901e+06
2.53171e+06
2.51447e+06
2.49729e+06
2.48017e+06
2.4631e+06
2.44609e+06
2.42915e+06
2.41226e+06
2.39544e+06
2.37868e+06
2.36199e+06
2.34536e+06
2.32879e+06
2.31229e+06
2.29585e+06
2.27947e+06
2.26316e+06
2.24691e+06
2.23072e+06
2.21459e+06
2.19851e+06
2.1825e+06
2.16655e+06
2.15065e+06
2.13482e+06
2.11904e+06
2.10333e+06
2.08767e+06
2.07207e+06
2.05653e+06
2.04105e+06
2.02562e+06
2.01025e+06
1.99493e+06
1.97967e+06
1.96446e+06
1.94931e+06
1.93421e+06
1.91917e+06
1.90419e+06
1.88926e+06
1.87439e+06
1.85958e+06
1.84483e+06
1.83014e+06
1.81551e+06
1.80094e+06
1.78643e+06
1.77198e+06
1.75759e+06
1.74327e+06
1.729e+06
1.71479e+06
1.70064e+06
1.68655e+06
1.67252e+06
1.65854e+06
1.64462e+06
1.63076e+06
1.61696e+06
1.60321e+06
1.58952e+06
1.57589e+06
1.56232e+06
1.5488e+06
1.53535e+06
1.52194e+06
1.5086e+06
1.49531e+06
1.48207e+06
1.46888e+06
1.45575e+06
1.44267e+06
1.42964e+06
1.41667e+06
1.40375e+06
1.3909e+06
1.37811e+06
1.36538e+06
1.35272e+06
1.34012e+06
1.32759e+06
1.31512e+06
1.30272e+06
1.29038e+06
1.2781e+06
1.26588e+06
1.25372e+06
1.24162e+06
1.22958e+06
1.2176e+06
1.20568e+06
1.19381e+06
1.182e+06
1.17026e+06
1.15857e+06
1.14693e+06
1.13536e+06
1.12385e+06
1.11239e+06
1.10099e+06
1.08965e+06
1.07836e+06
1.06713e+06
1.05596e+06
1.04485e+06
1.03379e+06
1.02279e+06
1.01185e+06
1.00097e+06
990135
979361
968642
957979
947370
936817
926318
915873
905481
895142
884856
874621
864437
854304
844219
834183
824194
814250
804351
794494
784678
774900
765158
755448
745768
736112
726477
716855
707241
697625
687998
678346
668652
658896
649051
639080
628933
618531
607790
596475
584427
570892
554931
3.50952e+06
3.46761e+06
3.43187e+06
3.40053e+06
3.37216e+06
3.34576e+06
3.32075e+06
3.29679e+06
3.27364e+06
3.25114e+06
3.22915e+06
3.20761e+06
3.18643e+06
3.16556e+06
3.14496e+06
3.1246e+06
3.10444e+06
3.08445e+06
3.06463e+06
3.04496e+06
3.02542e+06
3.00599e+06
2.98668e+06
2.96747e+06
2.94836e+06
2.92934e+06
2.91041e+06
2.89157e+06
2.87281e+06
2.85415e+06
2.83557e+06
2.81708e+06
2.79868e+06
2.78036e+06
2.76212e+06
2.74396e+06
2.72587e+06
2.70787e+06
2.68993e+06
2.67208e+06
2.6543e+06
2.63659e+06
2.61895e+06
2.60139e+06
2.5839e+06
2.56648e+06
2.54912e+06
2.53181e+06
2.51456e+06
2.49737e+06
2.48024e+06
2.46317e+06
2.44616e+06
2.42921e+06
2.41232e+06
2.39549e+06
2.37873e+06
2.36204e+06
2.34541e+06
2.32885e+06
2.31235e+06
2.29591e+06
2.27953e+06
2.26322e+06
2.24697e+06
2.23078e+06
2.21464e+06
2.19857e+06
2.18256e+06
2.1666e+06
2.1507e+06
2.13487e+06
2.11909e+06
2.10337e+06
2.08771e+06
2.07211e+06
2.05656e+06
2.04108e+06
2.02565e+06
2.01027e+06
1.99495e+06
1.97968e+06
1.96447e+06
1.94932e+06
1.93422e+06
1.91917e+06
1.90418e+06
1.88925e+06
1.87438e+06
1.85957e+06
1.84482e+06
1.83012e+06
1.81549e+06
1.80092e+06
1.78642e+06
1.77197e+06
1.75758e+06
1.74326e+06
1.72899e+06
1.71478e+06
1.70063e+06
1.68654e+06
1.67251e+06
1.65854e+06
1.64462e+06
1.63076e+06
1.61696e+06
1.60321e+06
1.58952e+06
1.57589e+06
1.56232e+06
1.5488e+06
1.53535e+06
1.52194e+06
1.5086e+06
1.49531e+06
1.48207e+06
1.46888e+06
1.45575e+06
1.44267e+06
1.42964e+06
1.41667e+06
1.40375e+06
1.3909e+06
1.3781e+06
1.36537e+06
1.35271e+06
1.34011e+06
1.32758e+06
1.31511e+06
1.30271e+06
1.29037e+06
1.27808e+06
1.26587e+06
1.2537e+06
1.2416e+06
1.22956e+06
1.21758e+06
1.20566e+06
1.19379e+06
1.18198e+06
1.17023e+06
1.15854e+06
1.14691e+06
1.13533e+06
1.12381e+06
1.11235e+06
1.10095e+06
1.0896e+06
1.07832e+06
1.06708e+06
1.05591e+06
1.04479e+06
1.03373e+06
1.02272e+06
1.01177e+06
1.00088e+06
990043
979260
968532
957858
947239
936673
926161
915701
905294
894938
884632
874377
864170
854012
843901
833835
823813
813835
803897
793999
784137
774309
764512
754742
744996
735269
725555
715847
706137
696417
686674
676893
667057
657141
647119
636942
626572
615895
604872
593184
580779
566902
550912
3.51793e+06
3.47643e+06
3.44025e+06
3.40814e+06
3.37896e+06
3.35182e+06
3.32616e+06
3.30162e+06
3.27796e+06
3.25501e+06
3.23263e+06
3.21073e+06
3.18923e+06
3.16808e+06
3.14723e+06
3.12664e+06
3.10627e+06
3.0861e+06
3.06612e+06
3.04629e+06
3.02661e+06
3.00707e+06
2.98764e+06
2.96834e+06
2.94914e+06
2.93004e+06
2.91104e+06
2.89214e+06
2.87333e+06
2.85462e+06
2.836e+06
2.81747e+06
2.79903e+06
2.78067e+06
2.7624e+06
2.74421e+06
2.72611e+06
2.70808e+06
2.69013e+06
2.67226e+06
2.65446e+06
2.63674e+06
2.61909e+06
2.60152e+06
2.58402e+06
2.56659e+06
2.54922e+06
2.53191e+06
2.51466e+06
2.49746e+06
2.48032e+06
2.46324e+06
2.44622e+06
2.42927e+06
2.41237e+06
2.39555e+06
2.37879e+06
2.3621e+06
2.34547e+06
2.32891e+06
2.3124e+06
2.29597e+06
2.27959e+06
2.26328e+06
2.24703e+06
2.23083e+06
2.2147e+06
2.19862e+06
2.18261e+06
2.16665e+06
2.15075e+06
2.13491e+06
2.11913e+06
2.10341e+06
2.08774e+06
2.07214e+06
2.05659e+06
2.0411e+06
2.02567e+06
2.01029e+06
1.99496e+06
1.97969e+06
1.96448e+06
1.94932e+06
1.93421e+06
1.91916e+06
1.90417e+06
1.88924e+06
1.87436e+06
1.85955e+06
1.8448e+06
1.83011e+06
1.81548e+06
1.80091e+06
1.7864e+06
1.77195e+06
1.75757e+06
1.74324e+06
1.72898e+06
1.71477e+06
1.70062e+06
1.68653e+06
1.6725e+06
1.65853e+06
1.64461e+06
1.63075e+06
1.61695e+06
1.6032e+06
1.58952e+06
1.57589e+06
1.56231e+06
1.5488e+06
1.53534e+06
1.52194e+06
1.5086e+06
1.49531e+06
1.48207e+06
1.46888e+06
1.45575e+06
1.44267e+06
1.42964e+06
1.41667e+06
1.40375e+06
1.39089e+06
1.3781e+06
1.36537e+06
1.3527e+06
1.3401e+06
1.32757e+06
1.3151e+06
1.3027e+06
1.29035e+06
1.27807e+06
1.26585e+06
1.25369e+06
1.24159e+06
1.22955e+06
1.21756e+06
1.20564e+06
1.19377e+06
1.18196e+06
1.17021e+06
1.15852e+06
1.14688e+06
1.1353e+06
1.12378e+06
1.11232e+06
1.10091e+06
1.08956e+06
1.07827e+06
1.06703e+06
1.05586e+06
1.04473e+06
1.03367e+06
1.02265e+06
1.0117e+06
1.0008e+06
989951
979159
968422
957739
947108
936531
926005
915531
905108
894734
884410
874134
863905
853722
843584
833490
823436
813423
803448
793507
783600
773723
763872
754044
744233
734436
724644
714851
705049
695226
685370
675464
665492
655421
645233
634857
624289
613352
602090
590090
577416
563363
547503
3.52533e+06
3.48436e+06
3.44798e+06
3.4153e+06
3.38545e+06
3.35766e+06
3.3314e+06
3.30632e+06
3.28218e+06
3.2588e+06
3.23603e+06
3.21379e+06
3.19199e+06
3.17057e+06
3.14947e+06
3.12865e+06
3.10808e+06
3.08773e+06
3.06758e+06
3.04761e+06
3.02779e+06
3.00813e+06
2.9886e+06
2.96919e+06
2.94991e+06
2.93073e+06
2.91167e+06
2.89271e+06
2.87385e+06
2.85508e+06
2.83642e+06
2.81785e+06
2.79937e+06
2.78098e+06
2.76268e+06
2.74447e+06
2.72634e+06
2.70829e+06
2.69033e+06
2.67244e+06
2.65463e+06
2.6369e+06
2.61924e+06
2.60166e+06
2.58415e+06
2.56671e+06
2.54933e+06
2.53201e+06
2.51475e+06
2.49754e+06
2.4804e+06
2.46331e+06
2.44629e+06
2.42933e+06
2.41243e+06
2.39561e+06
2.37884e+06
2.36215e+06
2.34552e+06
2.32896e+06
2.31246e+06
2.29602e+06
2.27965e+06
2.26333e+06
2.24708e+06
2.23089e+06
2.21475e+06
2.19867e+06
2.18265e+06
2.16669e+06
2.15079e+06
2.13494e+06
2.11916e+06
2.10344e+06
2.08777e+06
2.07216e+06
2.05661e+06
2.04112e+06
2.02568e+06
2.0103e+06
1.99497e+06
1.97969e+06
1.96447e+06
1.94931e+06
1.9342e+06
1.91915e+06
1.90415e+06
1.88922e+06
1.87434e+06
1.85953e+06
1.84477e+06
1.83008e+06
1.81545e+06
1.80088e+06
1.78638e+06
1.77193e+06
1.75755e+06
1.74322e+06
1.72896e+06
1.71475e+06
1.7006e+06
1.68652e+06
1.67248e+06
1.65851e+06
1.6446e+06
1.63074e+06
1.61694e+06
1.60319e+06
1.5895e+06
1.57587e+06
1.5623e+06
1.54879e+06
1.53533e+06
1.52193e+06
1.50859e+06
1.4953e+06
1.48206e+06
1.46888e+06
1.45574e+06
1.44266e+06
1.42963e+06
1.41666e+06
1.40374e+06
1.39089e+06
1.37809e+06
1.36536e+06
1.35269e+06
1.3401e+06
1.32756e+06
1.31509e+06
1.30268e+06
1.29034e+06
1.27806e+06
1.26584e+06
1.25368e+06
1.24157e+06
1.22953e+06
1.21755e+06
1.20562e+06
1.19375e+06
1.18194e+06
1.17019e+06
1.15849e+06
1.14685e+06
1.13527e+06
1.12375e+06
1.11228e+06
1.10088e+06
1.08952e+06
1.07823e+06
1.06699e+06
1.0558e+06
1.04467e+06
1.0336e+06
1.02258e+06
1.01162e+06
1.00071e+06
989861
979060
968314
957620
946979
936389
925851
915362
904923
894533
884190
873894
863643
853436
843272
833148
823063
813015
803003
793022
783070
773144
763240
753354
743480
733613
723746
713870
703977
694054
684091
674061
663962
653737
643401
632831
622087
610913
599444
587198
574317
560210
544538
3.53195e+06
3.49154e+06
3.4551e+06
3.42201e+06
3.39162e+06
3.36326e+06
3.33646e+06
3.31089e+06
3.28629e+06
3.2625e+06
3.23937e+06
3.2168e+06
3.1947e+06
3.17301e+06
3.15166e+06
3.13063e+06
3.10986e+06
3.08933e+06
3.06902e+06
3.0489e+06
3.02896e+06
3.00918e+06
2.98954e+06
2.97004e+06
2.95067e+06
2.93142e+06
2.91229e+06
2.89327e+06
2.87436e+06
2.85554e+06
2.83684e+06
2.81823e+06
2.79971e+06
2.78129e+06
2.76297e+06
2.74473e+06
2.72657e+06
2.70851e+06
2.69052e+06
2.67262e+06
2.6548e+06
2.63705e+06
2.61939e+06
2.60179e+06
2.58427e+06
2.56682e+06
2.54943e+06
2.53211e+06
2.51484e+06
2.49763e+06
2.48048e+06
2.46338e+06
2.44635e+06
2.42939e+06
2.41249e+06
2.39566e+06
2.3789e+06
2.36221e+06
2.34558e+06
2.32901e+06
2.31251e+06
2.29607e+06
2.2797e+06
2.26339e+06
2.24713e+06
2.23093e+06
2.2148e+06
2.19871e+06
2.18269e+06
2.16673e+06
2.15082e+06
2.13497e+06
2.11918e+06
2.10346e+06
2.08779e+06
2.07218e+06
2.05662e+06
2.04113e+06
2.02568e+06
2.0103e+06
1.99497e+06
1.97969e+06
1.96446e+06
1.9493e+06
1.93418e+06
1.91913e+06
1.90413e+06
1.88919e+06
1.87431e+06
1.8595e+06
1.84475e+06
1.83005e+06
1.81542e+06
1.80086e+06
1.78635e+06
1.77191e+06
1.75752e+06
1.7432e+06
1.72893e+06
1.71473e+06
1.70058e+06
1.68649e+06
1.67246e+06
1.65849e+06
1.64458e+06
1.63072e+06
1.61692e+06
1.60317e+06
1.58949e+06
1.57586e+06
1.56229e+06
1.54877e+06
1.53532e+06
1.52192e+06
1.50857e+06
1.49528e+06
1.48205e+06
1.46887e+06
1.45573e+06
1.44265e+06
1.42963e+06
1.41665e+06
1.40374e+06
1.39088e+06
1.37808e+06
1.36535e+06
1.35269e+06
1.34009e+06
1.32755e+06
1.31508e+06
1.30267e+06
1.29033e+06
1.27805e+06
1.26583e+06
1.25366e+06
1.24156e+06
1.22951e+06
1.21753e+06
1.2056e+06
1.19373e+06
1.18192e+06
1.17017e+06
1.15847e+06
1.14683e+06
1.13524e+06
1.12372e+06
1.11225e+06
1.10084e+06
1.08948e+06
1.07818e+06
1.06694e+06
1.05575e+06
1.04462e+06
1.03354e+06
1.02251e+06
1.01155e+06
1.00063e+06
989771
978962
968208
957502
946852
936249
925698
915195
904742
894333
883973
873656
863384
853152
842963
832809
822695
812612
802564
792542
782547
772572
762618
752673
742739
732802
722863
712903
702927
692901
682840
672686
662472
652095
641624
630870
619969
608584
596934
584513
571464
557369
541902
3.53794e+06
3.49808e+06
3.46168e+06
3.42831e+06
3.39747e+06
3.36862e+06
3.34134e+06
3.31531e+06
3.29029e+06
3.26612e+06
3.24264e+06
3.21975e+06
3.19736e+06
3.17541e+06
3.15383e+06
3.13258e+06
3.11162e+06
3.09091e+06
3.07044e+06
3.05018e+06
3.03011e+06
3.01021e+06
2.99047e+06
2.97088e+06
2.95143e+06
2.93211e+06
2.91291e+06
2.89383e+06
2.87486e+06
2.856e+06
2.83725e+06
2.8186e+06
2.80005e+06
2.7816e+06
2.76324e+06
2.74498e+06
2.72681e+06
2.70872e+06
2.69072e+06
2.67281e+06
2.65497e+06
2.63721e+06
2.61953e+06
2.60193e+06
2.5844e+06
2.56694e+06
2.54954e+06
2.53221e+06
2.51493e+06
2.49771e+06
2.48055e+06
2.46345e+06
2.44642e+06
2.42945e+06
2.41255e+06
2.39572e+06
2.37896e+06
2.36226e+06
2.34563e+06
2.32906e+06
2.31256e+06
2.29612e+06
2.27975e+06
2.26343e+06
2.24718e+06
2.23098e+06
2.21484e+06
2.19875e+06
2.18272e+06
2.16675e+06
2.15084e+06
2.13499e+06
2.1192e+06
2.10347e+06
2.08779e+06
2.07218e+06
2.05662e+06
2.04112e+06
2.02568e+06
2.01029e+06
1.99496e+06
1.97967e+06
1.96445e+06
1.94927e+06
1.93416e+06
1.9191e+06
1.9041e+06
1.88916e+06
1.87428e+06
1.85947e+06
1.84471e+06
1.83002e+06
1.81539e+06
1.80082e+06
1.78632e+06
1.77188e+06
1.75749e+06
1.74317e+06
1.7289e+06
1.7147e+06
1.70055e+06
1.68647e+06
1.67244e+06
1.65847e+06
1.64455e+06
1.63069e+06
1.61689e+06
1.60315e+06
1.58946e+06
1.57583e+06
1.56226e+06
1.54875e+06
1.5353e+06
1.5219e+06
1.50855e+06
1.49527e+06
1.48203e+06
1.46885e+06
1.45572e+06
1.44264e+06
1.42962e+06
1.41664e+06
1.40373e+06
1.39087e+06
1.37807e+06
1.36534e+06
1.35268e+06
1.34008e+06
1.32754e+06
1.31507e+06
1.30266e+06
1.29032e+06
1.27804e+06
1.26582e+06
1.25365e+06
1.24155e+06
1.2295e+06
1.21751e+06
1.20558e+06
1.19371e+06
1.1819e+06
1.17014e+06
1.15844e+06
1.1468e+06
1.13522e+06
1.12369e+06
1.11222e+06
1.1008e+06
1.08944e+06
1.07814e+06
1.06689e+06
1.0557e+06
1.04456e+06
1.03348e+06
1.02245e+06
1.01147e+06
1.00055e+06
989684
978864
968103
957386
946727
936110
925549
915029
904563
894136
883760
873421
863129
852872
842658
832475
822332
812215
802132
792068
782033
772008
762005
752002
742011
732003
721998
711954
701899
691772
681619
671343
661023
650501
639905
628981
617933
606375
594552
582033
568837
554769
539506
3.54342e+06
3.50407e+06
3.46776e+06
3.4342e+06
3.40302e+06
3.37375e+06
3.34603e+06
3.31958e+06