/*--------------------------------*- C++ -*----------------------------------*\
| =========                 |                                                 |
| \\      /  F ield         | OpenFOAM: The Open Source CFD Toolbox           |
|  \\    /   O peration     | Version:  2.4.0                                 |
|   \\  /    A nd           | Web:      www.OpenFOAM.org                      |
|    \\/     M anipulation  |                                                 |
\*---------------------------------------------------------------------------*/
FoamFile
{
    version     2.0;
    format      ascii;
    class       volVectorField;
    location    "0.066";
    object      UMean;
}
// * * * * * * * * * * * * * * * * * * * * * * * * * * * * * * * * * * * * * //

dimensions      [0 1 -1 0 0 0 0];

internalField   nonuniform List<vector> 
17600
(
(5.36728 0.305048 0)
(3.11052 0.0608723 0)
(2.34922 -0.00116961 0)
(2.01641 -0.00350945 0)
(1.88595 -0.00133414 0)
(1.80452 -0.000240105 0)
(1.74654 -1.09894e-05 0)
(1.69884 -6.05904e-05 0)
(1.66968 -0.000100565 0)
(1.64109 -9.89268e-06 0)
(1.62681 -1.44571e-05 0)
(1.60313 0.000102601 0)
(1.59478 6.57471e-06 0)
(1.57248 5.25625e-05 0)
(1.5712 -0.000135093 0)
(1.55454 -0.000141424 0)
(1.55966 -0.000290414 0)
(1.5674 -0.000170128 0)
(1.60897 -0.00488567 0)
(1.57253 -0.0150775 0)
(8.58516 0.85546 0)
(7.05177 0.373335 0)
(5.97603 0.116834 0)
(5.25927 0.0476346 0)
(4.88311 0.0251592 0)
(4.64192 0.0172058 0)
(4.47936 0.0129439 0)
(4.3456 0.00937109 0)
(4.26245 0.00694297 0)
(4.17896 0.0053748 0)
(4.13882 0.00449859 0)
(4.07161 0.00429261 0)
(4.0515 0.00351789 0)
(3.98851 0.00358875 0)
(3.9861 0.00169801 0)
(3.93503 0.00285221 0)
(3.94268 -0.0016092 0)
(3.94932 -0.00219142 0)
(3.95022 -0.00449561 0)
(4.15951 -0.130927 0)
(9.80422 0.999351 0)
(9.3885 0.558082 0)
(8.5878 0.229446 0)
(7.80178 0.121438 0)
(7.28948 0.0737436 0)
(6.93451 0.0493847 0)
(6.69481 0.0361646 0)
(6.49268 0.0263546 0)
(6.36726 0.0199991 0)
(6.23589 0.0152308 0)
(6.17575 0.012929 0)
(6.06951 0.0111294 0)
(6.04296 0.00995912 0)
(5.94283 0.00857698 0)
(5.94359 0.00600295 0)
(5.85533 0.00561215 0)
(5.87842 -0.000913136 0)
(5.83824 -0.00250105 0)
(5.88718 -0.0207096 0)
(5.99695 -0.163897 0)
(10.0949 0.925131 0)
(10.558 0.642715 0)
(10.2963 0.311699 0)
(9.71876 0.195348 0)
(9.23109 0.133671 0)
(8.83937 0.0929197 0)
(8.56542 0.068208 0)
(8.3178 0.0499296 0)
(8.16758 0.0383388 0)
(7.99743 0.0292203 0)
(7.92555 0.0245778 0)
(7.78498 0.0213651 0)
(7.7572 0.018341 0)
(7.62357 0.0173423 0)
(7.63129 0.0106481 0)
(7.50444 0.014081 0)
(7.55378 -0.00331872 0)
(7.43979 0.00542327 0)
(7.57443 -0.0491911 0)
(7.49485 -0.135784 0)
(10.0166 0.787705 0)
(10.8887 0.642866 0)
(11.113 0.335233 0)
(10.8885 0.237174 0)
(10.5941 0.184045 0)
(10.2761 0.13708 0)
(10.0391 0.103832 0)
(9.78723 0.0770081 0)
(9.64285 0.060291 0)
(9.4514 0.0456986 0)
(9.38306 0.0393905 0)
(9.21744 0.0323179 0)
(9.19728 0.0302793 0)
(9.03558 0.0242204 0)
(9.05759 0.02206 0)
(8.89635 0.0141726 0)
(8.96315 0.0127844 0)
(8.82171 -0.0130426 0)
(8.92667 -0.0174277 0)
(8.86736 -0.199979 0)
(9.93725 0.676616 0)
(10.8277 0.611435 0)
(11.2751 0.313936 0)
(11.3223 0.233117 0)
(11.2814 0.203195 0)
(11.1317 0.165354 0)
(11.0208 0.132322 0)
(10.8293 0.101695 0)
(10.7371 0.0814526 0)
(10.5586 0.0632869 0)
(10.5131 0.0538195 0)
(10.347 0.0460488 0)
(10.3374 0.0397391 0)
(10.1736 0.0370772 0)
(10.198 0.0249157 0)
(10.0367 0.0301868 0)
(10.097 0.000207667 0)
(9.95656 0.0179991 0)
(10.0415 -0.0664746 0)
(9.94814 -0.124629 0)
(9.9233 0.58944 0)
(10.7057 0.57944 0)
(11.1984 0.28711 0)
(11.3293 0.205125 0)
(11.4339 0.191892 0)
(11.418 0.167981 0)
(11.4588 0.142758 0)
(11.3719 0.112969 0)
(11.3812 0.0950038 0)
(11.2592 0.0745814 0)
(11.2712 0.0669561 0)
(11.1329 0.0550921 0)
(11.1562 0.0533476 0)
(11.0059 0.0420306 0)
(11.0504 0.0410511 0)
(10.894 0.0267355 0)
(10.9674 0.0216262 0)
(10.8224 -0.00250759 0)
(10.9164 -0.0475911 0)
(10.7878 -0.133491 0)
(9.93683 0.511781 0)
(10.606 0.544553 0)
(11.1036 0.270143 0)
(11.243 0.17999 0)
(11.3861 0.171879 0)
(11.4046 0.157647 0)
(11.5181 0.138241 0)
(11.5016 0.111332 0)
(11.5917 0.0944989 0)
(11.5451 0.0773594 0)
(11.6175 0.0690251 0)
(11.5491 0.0614175 0)
(11.6051 0.0553476 0)
(11.5186 0.0514018 0)
(11.5699 0.0400124 0)
(11.4729 0.040002 0)
(11.5306 0.0141551 0)
(11.4429 0.00904747 0)
(11.5015 -0.0552283 0)
(11.4064 -0.162517 0)
(9.94807 0.443063 0)
(10.5317 0.501687 0)
(11.0195 0.257942 0)
(11.1746 0.1578 0)
(11.3174 0.152918 0)
(11.3442 0.144033 0)
(11.4578 0.130241 0)
(11.4708 0.103152 0)
(11.5717 0.0887805 0)
(11.5758 0.0708896 0)
(11.6629 0.0661013 0)
(11.6592 0.0571505 0)
(11.7289 0.055972 0)
(11.7131 0.0477624 0)
(11.7722 0.0432995 0)
(11.7454 0.0359578 0)
(11.8 0.0172129 0)
(11.7766 0.00520855 0)
(11.8172 -0.0678431 0)
(11.7604 -0.162181 0)
(9.95088 0.380964 0)
(10.4743 0.456505 0)
(10.9414 0.246068 0)
(11.1228 0.138019 0)
(11.2562 0.133864 0)
(11.2969 0.131367 0)
(11.3917 0.120519 0)
(11.4231 0.095826 0)
(11.5084 0.0801919 0)
(11.5371 0.0648978 0)
(11.6119 0.058773 0)
(11.6395 0.0526855 0)
(11.6994 0.0501226 0)
(11.7241 0.0443158 0)
(11.7757 0.0387053 0)
(11.7955 0.0313526 0)
(11.8456 0.0141313 0)
(11.866 -0.0118512 0)
(11.9006 -0.0670746 0)
(11.8642 -0.201353 0)
(9.94653 0.325052 0)
(10.4288 0.41097 0)
(10.8683 0.23464 0)
(11.0795 0.119262 0)
(11.2011 0.116017 0)
(11.2599 0.11826 0)
(11.3339 0.111235 0)
(11.383 0.0878678 0)
(11.4513 0.0730162 0)
(11.496 0.0579866 0)
(11.5589 0.0525025 0)
(11.5985 0.0472471 0)
(11.6498 0.0444016 0)
(11.6878 0.0392964 0)
(11.7296 0.0327311 0)
(11.7663 0.0274263 0)
(11.8091 0.00450456 0)
(11.842 -0.0150571 0)
(11.8707 -0.0853588 0)
(11.8308 -0.215465 0)
(9.94184 0.275251 0)
(10.3882 0.365362 0)
(10.8052 0.22216 0)
(11.0363 0.101784 0)
(11.156 0.0988682 0)
(11.224 0.105039 0)
(11.2872 0.101414 0)
(11.3447 0.0795501 0)
(11.405 0.0658427 0)
(11.4576 0.0511803 0)
(11.5165 0.047041 0)
(11.558 0.0417302 0)
(11.6107 0.0401004 0)
(11.6466 0.0332572 0)
(11.6893 0.0292934 0)
(11.7263 0.0174714 0)
(11.7686 0.000880747 0)
(11.7969 -0.0311972 0)
(11.8236 -0.0953807 0)
(11.7702 -0.227649 0)
(9.94101 0.231259 0)
(10.3504 0.319769 0)
(10.7528 0.206288 0)
(10.9929 0.0862699 0)
(11.1198 0.082812 0)
(11.1889 0.091723 0)
(11.2492 0.0908101 0)
(11.3082 0.0707759 0)
(11.3659 0.0584373 0)
(11.4241 0.0442469 0)
(11.4782 0.0414755 0)
(11.5254 0.03605 0)
(11.5752 0.034736 0)
(11.612 0.0285279 0)
(11.6549 0.0234861 0)
(11.692 0.0124218 0)
(11.7314 -0.00647645 0)
(11.7587 -0.0418925 0)
(11.779 -0.103466 0)
(11.7159 -0.239049 0)
(9.94139 0.191649 0)
(10.3185 0.275541 0)
(10.7076 0.184716 0)
(10.9538 0.0736449 0)
(11.089 0.0687485 0)
(11.1579 0.0788957 0)
(11.2174 0.079733 0)
(11.2749 0.0620415 0)
(11.3333 0.0507747 0)
(11.394 0.0377929 0)
(11.4449 0.0357618 0)
(11.4991 0.0304594 0)
(11.5416 0.0300038 0)
(11.5853 0.0225208 0)
(11.6233 0.0182069 0)
(11.6642 0.00485271 0)
(11.6971 -0.0139282 0)
(11.7287 -0.0506965 0)
(11.7367 -0.1133 0)
(11.6712 -0.244195 0)
(9.94184 0.155685 0)
(10.2923 0.232472 0)
(10.6694 0.158746 0)
(10.9206 0.0626116 0)
(11.0636 0.0564219 0)
(11.1318 0.0660542 0)
(11.1918 0.0684986 0)
(11.2451 0.0528226 0)
(11.3089 0.0431676 0)
(11.3646 0.0314818 0)
(11.4218 0.0301777 0)
(11.4725 0.024904 0)
(11.5169 0.0251002 0)
(11.5601 0.0170367 0)
(11.5992 0.0130361 0)
(11.6371 -0.00184282 0)
(11.6713 -0.0205 0)
(11.6994 -0.0596574 0)
(11.7026 -0.121559 0)
(11.6283 -0.245956 0)
(9.9421 0.123196 0)
(10.2714 0.1895 0)
(10.6377 0.131043 0)
(10.8935 0.0518834 0)
(11.042 0.0449431 0)
(11.1116 0.0532284 0)
(11.1697 0.0567711 0)
(11.2221 0.0431937 0)
(11.2879 0.0355507 0)
(11.3404 0.0251126 0)
(11.4046 0.0243577 0)
(11.4478 0.0193641 0)
(11.4995 0.0195942 0)
(11.537 0.0112528 0)
(11.5808 0.00723183 0)
(11.6122 -0.00815325 0)
(11.6521 -0.0275731 0)
(11.6709 -0.0676864 0)
(11.6748 -0.128853 0)
(11.5889 -0.245881 0)
(9.94216 0.0933618 0)
(10.2552 0.14663 0)
(10.6124 0.102691 0)
(10.8721 0.0409622 0)
(11.0246 0.0341553 0)
(11.0965 0.0405828 0)
(11.1508 0.0447072 0)
(11.2062 0.0333207 0)
(11.2679 0.0278609 0)
(11.3252 0.0188319 0)
(11.3872 0.0185775 0)
(11.431 0.0140743 0)
(11.4839 0.014217 0)
(11.5203 0.00573536 0)
(11.5634 0.00165882 0)
(11.595 -0.0145911 0)
(11.6337 -0.034487 0)
(11.6486 -0.0747845 0)
(11.6494 -0.134497 0)
(11.5571 -0.244972 0)
(9.94222 0.0655734 0)
(10.2432 0.103949 0)
(10.5939 0.0741183 0)
(10.8557 0.0294736 0)
(11.012 0.024161 0)
(11.0846 0.0282153 0)
(11.1377 0.0324589 0)
(11.1937 0.0233674 0)
(11.2527 0.0202464 0)
(11.3156 0.0124276 0)
(11.3712 0.0131361 0)
(11.4218 0.00840854 0)
(11.4694 0.00862508 0)
(11.5098 0.000156286 0)
(11.5481 -0.00391284 0)
(11.5848 -0.0212018 0)
(11.6157 -0.0405865 0)
(11.6336 -0.0818925 0)
(11.6267 -0.138934 0)
(11.5326 -0.243948 0)
(9.94224 0.0392004 0)
(10.2353 0.0615645 0)
(10.5816 0.0452981 0)
(10.8447 0.0173199 0)
(11.0039 0.0148333 0)
(11.0761 0.0160569 0)
(11.1304 0.0200589 0)
(11.1833 0.0134239 0)
(11.2454 0.0123618 0)
(11.3066 0.00627592 0)
(11.3624 0.00748536 0)
(11.415 0.002727 0)
(11.4603 0.0031367 0)
(11.5015 -0.00525786 0)
(11.5393 -0.00983454 0)
(11.5758 -0.0270783 0)
(11.6034 -0.0471078 0)
(11.622 -0.0876473 0)
(11.609 -0.143701 0)
(11.5131 -0.240595 0)
(9.94213 0.0136785 0)
(10.2316 0.0194077 0)
(10.5754 0.0162278 0)
(10.8396 0.00465588 0)
(10.9993 0.00600573 0)
(11.0726 0.004022 0)
(11.1263 0.0076577 0)
(11.1778 0.00329621 0)
(11.2431 0.00446371 0)
(11.2997 0.000345409 0)
(11.3606 0.00168902 0)
(11.4092 -0.00272888 0)
(11.457 -0.00241526 0)
(11.4955 -0.0106179 0)
(11.5365 -0.0157742 0)
(11.5673 -0.0325311 0)
(11.5982 -0.0537276 0)
(11.6113 -0.0924596 0)
(11.5975 -0.148437 0)
(11.4965 -0.235582 0)
(9.94194 -0.0115342 0)
(10.2319 -0.0226992 0)
(10.5752 -0.0129229 0)
(10.8399 -0.00821202 0)
(10.9987 -0.00264874 0)
(11.0737 -0.00803752 0)
(11.1248 -0.00467219 0)
(11.1793 -0.00712298 0)
(11.2421 -0.00321541 0)
(11.2997 -0.00583756 0)
(11.3611 -0.0040816 0)
(11.4084 -0.00824561 0)
(11.4565 -0.00799394 0)
(11.4952 -0.0161763 0)
(11.535 -0.0214339 0)
(11.5646 -0.0382677 0)
(11.5955 -0.0597821 0)
(11.6049 -0.0975225 0)
(11.5902 -0.151917 0)
(11.4843 -0.231124 0)
(9.94169 -0.0370999 0)
(10.2361 -0.0647899 0)
(10.5813 -0.0420362 0)
(10.8453 -0.0207848 0)
(11.0031 -0.0116266 0)
(11.0776 -0.0199569 0)
(11.1285 -0.017088 0)
(11.1851 -0.0173787 0)
(11.2444 -0.010835 0)
(11.3059 -0.0121259 0)
(11.3634 -0.00958254 0)
(11.4132 -0.0138555 0)
(11.4588 -0.0133365 0)
(11.4999 -0.0218985 0)
(11.5354 -0.0264824 0)
(11.5682 -0.0444721 0)
(11.5939 -0.0645973 0)
(11.6047 -0.103454 0)
(11.5849 -0.153085 0)
(11.4787 -0.228894 0)
(9.94141 -0.0635261 0)
(10.2443 -0.107092 0)
(10.5933 -0.0709163 0)
(10.8563 -0.0328491 0)
(11.0119 -0.0210698 0)
(11.0846 -0.0320477 0)
(11.1382 -0.0295125 0)
(11.1929 -0.0274382 0)
(11.2534 -0.0185701 0)
(11.3145 -0.0183617 0)
(11.371 -0.0151642 0)
(11.421 -0.0193782 0)
(11.4666 -0.0188758 0)
(11.5065 -0.0271524 0)
(11.5418 -0.0320217 0)
(11.5738 -0.0497917 0)
(11.5975 -0.0700795 0)
(11.6076 -0.108082 0)
(11.5842 -0.155188 0)
(11.4784 -0.225099 0)
(9.94107 -0.0914221 0)
(10.2568 -0.149639 0)
(10.6115 -0.0995714 0)
(10.8732 -0.0442367 0)
(11.0241 -0.0311185 0)
(11.0968 -0.0444557 0)
(11.1515 -0.0417132 0)
(11.2053 -0.0374561 0)
(11.2678 -0.0262836 0)
(11.326 -0.0246323 0)
(11.3838 -0.0206996 0)
(11.4322 -0.0249817 0)
(11.4788 -0.0242439 0)
(11.5161 -0.0324064 0)
(11.5533 -0.0374849 0)
(11.5817 -0.0547642 0)
(11.6067 -0.075767 0)
(11.6124 -0.11161 0)
(11.5901 -0.15866 0)
(11.4808 -0.218541 0)
(9.9406 -0.121361 0)
(10.2735 -0.192372 0)
(10.6363 -0.128041 0)
(10.8954 -0.0550096 0)
(11.0403 -0.041979 0)
(11.1138 -0.0570591 0)
(11.1678 -0.0537629 0)
(11.224 -0.047386 0)
(11.2851 -0.0339169 0)
(11.343 -0.0310046 0)
(11.3999 -0.0261724 0)
(11.4486 -0.0307687 0)
(11.4938 -0.0291714 0)
(11.5316 -0.0381242 0)
(11.5674 -0.0420988 0)
(11.5951 -0.0605008 0)
(11.6185 -0.0799774 0)
(11.6227 -0.116429 0)
(11.6 -0.160623 0)
(11.4881 -0.213207 0)
(9.93986 -0.153983 0)
(10.295 -0.23518 0)
(10.6678 -0.155951 0)
(10.9228 -0.0654782 0)
(11.0616 -0.0536992 0)
(11.1345 -0.0696491 0)
(11.1893 -0.0656758 0)
(11.2475 -0.0569792 0)
(11.3065 -0.0415858 0)
(11.3651 -0.0373652 0)
(11.4203 -0.0318075 0)
(11.4693 -0.0363343 0)
(11.5129 -0.0342174 0)
(11.5516 -0.0435664 0)
(11.5852 -0.0468083 0)
(11.613 -0.0657741 0)
(11.6338 -0.0841248 0)
(11.6382 -0.121214 0)
(11.613 -0.162279 0)
(11.5019 -0.209101 0)
(9.93905 -0.190098 0)
(10.3218 -0.27804 0)
(10.7057 -0.182235 0)
(10.956 -0.0761919 0)
(11.0875 -0.0663035 0)
(11.1596 -0.0821892 0)
(11.2165 -0.0772352 0)
(11.2752 -0.0661049 0)
(11.3334 -0.0491892 0)
(11.3917 -0.0437555 0)
(11.4456 -0.0374001 0)
(11.4941 -0.0417917 0)
(11.5374 -0.0391722 0)
(11.5754 -0.0487979 0)
(11.6079 -0.0513939 0)
(11.6348 -0.0706606 0)
(11.6543 -0.0881763 0)
(11.6572 -0.125565 0)
(11.6314 -0.164345 0)
(11.5212 -0.205969 0)
(9.93932 -0.229896 0)
(10.3536 -0.321998 0)
(10.7509 -0.204229 0)
(10.9953 -0.0885331 0)
(11.1185 -0.0804339 0)
(11.1903 -0.0948918 0)
(11.2491 -0.0884573 0)
(11.3079 -0.0747888 0)
(11.3659 -0.0568745 0)
(11.4233 -0.050139 0)
(11.4758 -0.0430462 0)
(11.524 -0.0471785 0)
(11.5666 -0.0439476 0)
(11.6039 -0.0540059 0)
(11.6355 -0.0555274 0)
(11.6615 -0.0756672 0)
(11.6793 -0.0913305 0)
(11.681 -0.130409 0)
(11.655 -0.165975 0)
(11.5463 -0.205441 0)
(9.94301 -0.274142 0)
(10.3892 -0.367226 0)
(10.8054 -0.2206 0)
(11.0371 -0.103605 0)
(11.1562 -0.0967336 0)
(11.2244 -0.107741 0)
(11.2878 -0.0996286 0)
(11.3444 -0.0829646 0)
(11.4043 -0.0649679 0)
(11.4583 -0.05631 0)
(11.5118 -0.0491974 0)
(11.5578 -0.0521945 0)
(11.6011 -0.0490545 0)
(11.6363 -0.0588019 0)
(11.6685 -0.0597119 0)
(11.6921 -0.0802927 0)
(11.7095 -0.0940714 0)
(11.7093 -0.135199 0)
(11.6835 -0.167367 0)
(11.5766 -0.207977 0)
(9.95197 -0.32419 0)
(10.4263 -0.412559 0)
(10.8717 -0.233348 0)
(11.0772 -0.120775 0)
(11.2039 -0.114286 0)
(11.2577 -0.120445 0)
(11.3362 -0.110171 0)
(11.3809 -0.0905994 0)
(11.452 -0.0729569 0)
(11.4939 -0.0623208 0)
(11.5573 -0.0555079 0)
(11.5926 -0.0568562 0)
(11.6448 -0.0543701 0)
(11.6704 -0.0630765 0)
(11.7101 -0.0639819 0)
(11.7244 -0.0841426 0)
(11.7466 -0.0965909 0)
(11.7378 -0.139057 0)
(11.7135 -0.168641 0)
(11.6027 -0.212965 0)
(9.96107 -0.380432 0)
(10.4664 -0.457694 0)
(10.9494 -0.245126 0)
(11.1153 -0.139101 0)
(11.2633 -0.132658 0)
(11.2898 -0.132798 0)
(11.3983 -0.120224 0)
(11.416 -0.097777 0)
(11.5141 -0.0810688 0)
(11.5281 -0.0683066 0)
(11.6173 -0.0621843 0)
(11.6246 -0.0614439 0)
(11.7011 -0.0600408 0)
(11.6983 -0.0670179 0)
(11.7584 -0.068217 0)
(11.7425 -0.087343 0)
(11.778 -0.0980538 0)
(11.7359 -0.141934 0)
(11.7134 -0.167274 0)
(11.5711 -0.220007 0)
(9.95828 -0.442531 0)
(10.5211 -0.502754 0)
(11.0308 -0.257016 0)
(11.163 -0.158833 0)
(11.3285 -0.151819 0)
(11.3325 -0.145303 0)
(11.469 -0.12999 0)
(11.4583 -0.10513 0)
(11.5829 -0.0894561 0)
(11.5604 -0.0745281 0)
(11.674 -0.0691775 0)
(11.6372 -0.065802 0)
(11.7341 -0.0656386 0)
(11.6787 -0.0696387 0)
(11.7528 -0.0716412 0)
(11.6764 -0.0878216 0)
(11.7171 -0.0973313 0)
(11.6075 -0.140586 0)
(11.5765 -0.160524 0)
(11.3687 -0.224052 0)
(9.94239 -0.511451 0)
(10.5993 -0.545107 0)
(11.1123 -0.269714 0)
(11.2344 -0.180482 0)
(11.395 -0.171496 0)
(11.3953 -0.158088 0)
(11.5273 -0.13876 0)
(11.4912 -0.11232 0)
(11.6004 -0.0962812 0)
(11.5314 -0.0794362 0)
(11.6249 -0.0735338 0)
(11.5272 -0.0674854 0)
(11.6045 -0.0674934 0)
(11.479 -0.0679595 0)
(11.5382 -0.0708327 0)
(11.3876 -0.0821935 0)
(11.4182 -0.0927203 0)
(11.232 -0.130166 0)
(11.1891 -0.149547 0)
(10.9126 -0.214637 0)
(9.9277 -0.588979 0)
(10.7011 -0.579956 0)
(11.2051 -0.2867 0)
(11.323 -0.205759 0)
(11.4407 -0.19149 0)
(11.4108 -0.168558 0)
(11.4658 -0.142968 0)
(11.3636 -0.114349 0)
(11.3868 -0.095849 0)
(11.2474 -0.077392 0)
(11.2728 -0.0697841 0)
(11.1128 -0.0623407 0)
(11.1449 -0.0615124 0)
(10.9643 -0.0603413 0)
(11.0001 -0.0631375 0)
(10.797 -0.0716173 0)
(10.8195 -0.0822214 0)
(10.5769 -0.114021 0)
(10.5312 -0.132127 0)
(10.1986 -0.193804 0)
(9.94019 -0.676369 0)
(10.8245 -0.61163 0)
(11.2801 -0.313892 0)
(11.3174 -0.233553 0)
(11.2868 -0.203083 0)
(11.1255 -0.165594 0)
(11.0265 -0.132795 0)
(10.8212 -0.102483 0)
(10.7414 -0.08272 0)
(10.5459 -0.0649988 0)
(10.513 -0.0573853 0)
(10.3234 -0.0506944 0)
(10.323 -0.049915 0)
(10.1224 -0.0487698 0)
(10.1416 -0.0516992 0)
(9.91716 -0.0582321 0)
(9.93328 -0.0689236 0)
(9.66097 -0.0934769 0)
(9.61239 -0.112979 0)
(9.24663 -0.155844 0)
(10.0184 -0.787386 0)
(10.8868 -0.643074 0)
(11.1168 -0.335248 0)
(10.8848 -0.237526 0)
(10.598 -0.18393 0)
(10.271 -0.137291 0)
(10.0432 -0.104146 0)
(9.78013 -0.0777708 0)
(9.6449 -0.0611107 0)
(9.43979 -0.0474771 0)
(9.37906 -0.0416642 0)
(9.19446 -0.0371805 0)
(9.17595 -0.0367608 0)
(8.98268 -0.0364119 0)
(8.98862 -0.038967 0)
(8.76791 -0.0442682 0)
(8.77551 -0.053767 0)
(8.49638 -0.0713669 0)
(8.44565 -0.0916387 0)
(8.06619 -0.108021 0)
(10.0961 -0.924921 0)
(10.5571 -0.642888 0)
(10.2989 -0.311748 0)
(9.71601 -0.195581 0)
(9.23356 -0.133583 0)
(8.83551 -0.0930633 0)
(8.56811 -0.0684707 0)
(8.31168 -0.0504594 0)
(8.168 -0.0390402 0)
(7.98643 -0.0303899 0)
(7.91975 -0.0266448 0)
(7.76138 -0.0243594 0)
(7.73394 -0.0241477 0)
(7.56645 -0.0245793 0)
(7.56075 -0.0263392 0)
(7.36356 -0.0307138 0)
(7.36001 -0.0377432 0)
(7.09586 -0.0499636 0)
(7.04701 -0.0666763 0)
(6.66154 -0.0689037 0)
(9.80501 -0.999209 0)
(9.3882 -0.558209 0)
(8.58946 -0.229481 0)
(7.7998 -0.121584 0)
(7.29083 -0.0736582 0)
(6.93179 -0.0494974 0)
(6.69627 -0.036332 0)
(6.48762 -0.026714 0)
(6.36656 -0.0204236 0)
(6.22602 -0.0160458 0)
(6.1688 -0.0140817 0)
(6.04746 -0.0134407 0)
(6.01855 -0.0132925 0)
(5.88804 -0.0141445 0)
(5.87356 -0.0149974 0)
(5.71524 -0.0183431 0)
(5.69944 -0.0223961 0)
(5.47438 -0.0302283 0)
(5.42631 -0.0415296 0)
(5.0578 -0.0379067 0)
(8.58567 -0.855398 0)
(7.05181 -0.373415 0)
(5.97683 -0.116846 0)
(5.25797 -0.0477025 0)
(4.88376 -0.0251051 0)
(4.6401 -0.0172742 0)
(4.47997 -0.0130203 0)
(4.34187 -0.00955605 0)
(4.26113 -0.0071441 0)
(4.17119 -0.00577302 0)
(4.1321 -0.00510597 0)
(4.05365 -0.00530339 0)
(4.02953 -0.00518283 0)
(3.94314 -0.0059608 0)
(3.92523 -0.00613775 0)
(3.81737 -0.00816826 0)
(3.7935 -0.00964717 0)
(3.63224 -0.0138944 0)
(3.58244 -0.01884 0)
(3.28624 -0.016128 0)
(5.36748 -0.305029 0)
(3.11064 -0.0608954 0)
(2.34936 0.0011773 0)
(2.01583 0.00349902 0)
(1.88613 0.00135502 0)
(1.80383 0.000217433 0)
(1.74653 7.50223e-06 0)
(1.69713 2.73954e-05 0)
(1.6685 8.69199e-05 0)
(1.63724 -4.92534e-05 0)
(1.62264 -3.73903e-05 0)
(1.59381 -0.000273738 0)
(1.58202 -0.000162235 0)
(1.54865 -0.00045273 0)
(1.5368 -0.000272337 0)
(1.49318 -0.000783943 0)
(1.47477 -0.000612698 0)
(1.40566 -0.00152793 0)
(1.36803 -0.00172141 0)
(1.23285 0.0065389 0)
(2.46531 -0.420055 0)
(2.86927 -0.297828 0)
(3.32154 -0.280008 0)
(3.77948 -0.330245 0)
(4.20865 -0.412983 0)
(4.5619 -0.522627 0)
(4.95619 -0.669512 0)
(5.21926 -0.828066 0)
(5.5591 -0.967636 0)
(5.76622 -1.06455 0)
(6.0631 -1.16074 0)
(6.30343 -1.22069 0)
(6.58729 -1.2697 0)
(6.78876 -1.27223 0)
(7.01322 -1.28265 0)
(7.13692 -1.24547 0)
(7.23149 -1.1992 0)
(7.31482 -1.17829 0)
(7.37117 -1.16709 0)
(7.43547 -1.18363 0)
(7.44558 -1.21391 0)
(7.48536 -1.24167 0)
(7.5371 -1.24975 0)
(7.5825 -1.25918 0)
(7.62468 -1.28356 0)
(7.66252 -1.31533 0)
(7.71295 -1.35186 0)
(7.79671 -1.39847 0)
(7.88204 -1.44595 0)
(8.00997 -1.50748 0)
(8.13682 -1.54656 0)
(8.27495 -1.60289 0)
(8.39163 -1.70327 0)
(8.44822 -1.82211 0)
(8.45816 -1.9382 0)
(8.4383 -2.03669 0)
(8.39353 -2.11883 0)
(8.33667 -2.18498 0)
(8.31154 -2.24277 0)
(8.32092 -2.30448 0)
(8.31035 -2.35902 0)
(8.28373 -2.40114 0)
(8.24337 -2.43587 0)
(8.17778 -2.45266 0)
(8.09609 -2.45724 0)
(8.02175 -2.45697 0)
(7.94705 -2.44677 0)
(7.85485 -2.41678 0)
(7.75356 -2.36739 0)
(7.6678 -2.31742 0)
(7.59356 -2.26817 0)
(7.52505 -2.21044 0)
(7.46324 -2.14474 0)
(7.39679 -2.06466 0)
(7.31908 -1.96582 0)
(7.23704 -1.85373 0)
(7.15936 -1.73435 0)
(7.09229 -1.61546 0)
(7.03016 -1.49583 0)
(6.95578 -1.35816 0)
(6.86029 -1.19316 0)
(6.75286 -1.01392 0)
(6.65045 -0.841146 0)
(6.56472 -0.686297 0)
(6.49508 -0.546583 0)
(6.43394 -0.412291 0)
(6.37383 -0.276571 0)
(6.31207 -0.137777 0)
(6.24755 0.00147762 0)
(6.18107 0.136658 0)
(6.11399 0.263525 0)
(6.04709 0.379299 0)
(5.97981 0.482158 0)
(5.91231 0.569826 0)
(5.84574 0.640326 0)
(5.78056 0.693097 0)
(5.71696 0.728558 0)
(5.656 0.74666 0)
(5.59912 0.748305 0)
(5.54642 0.73636 0)
(5.49714 0.711594 0)
(5.45158 0.676056 0)
(5.41118 0.632534 0)
(5.37663 0.587304 0)
(5.34785 0.540799 0)
(5.32431 0.497176 0)
(5.30477 0.452958 0)
(5.28913 0.414174 0)
(5.2756 0.374307 0)
(5.26579 0.342209 0)
(5.25552 0.307669 0)
(5.24969 0.283527 0)
(5.24223 0.254026 0)
(5.23693 0.236053 0)
(5.23436 0.209959 0)
(5.22715 0.196415 0)
(5.23015 0.173417 0)
(5.22155 0.164553 0)
(5.22813 0.144128 0)
(5.22051 0.139465 0)
(5.22788 0.120296 0)
(5.22285 0.118037 0)
(5.22964 0.100028 0)
(5.22664 0.0991202 0)
(5.23249 0.0827428 0)
(5.23028 0.0836929 0)
(5.23403 0.0687877 0)
(5.23279 0.0716089 0)
(5.23301 0.0579749 0)
(5.23372 0.0616674 0)
(5.23006 0.0493305 0)
(5.23334 0.0531814 0)
(5.22629 0.0421481 0)
(5.23242 0.0460912 0)
(5.22235 0.0363306 0)
(5.23178 0.0403901 0)
(5.21854 0.0320107 0)
(5.23169 0.0360703 0)
(5.21492 0.029074 0)
(5.23199 0.0331826 0)
(5.2114 0.027187 0)
(5.23258 0.0315117 0)
(5.20777 0.026222 0)
(5.23343 0.0306392 0)
(5.20399 0.0261073 0)
(5.23448 0.0304804 0)
(5.20007 0.0265545 0)
(5.23579 0.0311031 0)
(5.19585 0.0274845 0)
(5.23746 0.0323407 0)
(5.19142 0.0290639 0)
(5.23934 0.0341741 0)
(5.18685 0.0312116 0)
(5.24147 0.0367771 0)
(5.18206 0.0339293 0)
(5.24388 0.0401059 0)
(5.17716 0.0374045 0)
(5.24643 0.0442609 0)
(5.1722 0.0416396 0)
(5.24923 0.049364 0)
(5.16709 0.0468297 0)
(5.25224 0.055446 0)
(5.16204 0.053064 0)
(5.2553 0.0628999 0)
(5.15708 0.0604254 0)
(5.25864 0.0716644 0)
(5.15198 0.0697534 0)
(5.26239 0.0814849 0)
(5.14708 0.0812615 0)
(5.26563 0.0934734 0)
(5.14374 0.0942053 0)
(5.26756 0.108464 0)
(5.14196 0.109597 0)
(5.26897 0.125395 0)
(5.14151 0.129178 0)
(5.26909 0.144542 0)
(5.14391 0.152618 0)
(5.26691 0.167372 0)
(5.14964 0.180571 0)
(5.26223 0.193821 0)
(5.15988 0.214265 0)
(5.25361 0.224755 0)
(5.17594 0.254383 0)
(5.24056 0.260964 0)
(5.19899 0.301958 0)
(5.22199 0.30378 0)
(5.22998 0.357964 0)
(5.19853 0.354551 0)
(5.2687 0.423154 0)
(5.17159 0.416212 0)
(5.31316 0.498096 0)
(5.14607 0.491552 0)
(5.35856 0.583431 0)
(5.12842 0.585969 0)
(5.3976 0.679332 0)
(5.12972 0.704023 0)
(5.4184 0.787894 0)
(5.1609 0.85124 0)
(5.4097 0.91314 0)
(5.22856 1.03018 0)
(5.36579 1.06471 0)
(5.32621 1.23913 0)
(5.29676 1.26086 0)
(5.42683 1.47126 0)
(5.24075 1.52359 0)
(5.48126 1.72876 0)
(5.25711 1.86774 0)
(5.43995 2.03355 0)
(5.35559 2.28063 0)
(5.30242 2.45954 0)
(5.41405 2.7307 0)
(5.2667 3.06515 0)
(5.23835 3.34967 0)
(5.20393 3.80011 0)
(5.05535 4.30511 0)
(5.25419 4.72673 0)
(5.09374 5.5426 0)
(4.88037 6.64985 0)
(5.32999 7.65312 0)
(3.01515 10.9995 0)
(4.3505 -0.457993 0)
(4.48823 -0.408775 0)
(4.70833 -0.429314 0)
(4.97799 -0.477832 0)
(5.27209 -0.549644 0)
(5.53956 -0.659352 0)
(5.82169 -0.791216 0)
(5.99421 -0.926847 0)
(6.19714 -1.06083 0)
(6.31978 -1.164 0)
(6.52236 -1.27581 0)
(6.72555 -1.34396 0)
(6.93467 -1.38372 0)
(7.10233 -1.37529 0)
(7.27579 -1.36524 0)
(7.40025 -1.31238 0)
(7.50554 -1.2436 0)
(7.57441 -1.20385 0)
(7.61328 -1.18548 0)
(7.68653 -1.19773 0)
(7.70585 -1.2209 0)
(7.713 -1.24749 0)
(7.73313 -1.26697 0)
(7.78437 -1.2815 0)
(7.83033 -1.30586 0)
(7.90065 -1.33977 0)
(7.98095 -1.38717 0)
(8.09637 -1.44316 0)
(8.19087 -1.4944 0)
(8.30948 -1.55853 0)
(8.41355 -1.60329 0)
(8.52302 -1.65231 0)
(8.61656 -1.73399 0)
(8.65919 -1.83402 0)
(8.64654 -1.93372 0)
(8.6099 -2.02146 0)
(8.5522 -2.09828 0)
(8.50295 -2.17038 0)
(8.49084 -2.23632 0)
(8.48474 -2.29643 0)
(8.44417 -2.34572 0)
(8.39124 -2.38375 0)
(8.32838 -2.41043 0)
(8.24561 -2.41947 0)
(8.16181 -2.4251 0)
(8.08748 -2.42591 0)
(8.00043 -2.40899 0)
(7.8976 -2.37226 0)
(7.80063 -2.32749 0)
(7.72371 -2.28765 0)
(7.65177 -2.24286 0)
(7.58106 -2.18487 0)
(7.51232 -2.11665 0)
(7.43425 -2.03241 0)
(7.34645 -1.93131 0)
(7.25866 -1.8204 0)
(7.17754 -1.70488 0)
(7.10484 -1.58885 0)
(7.03049 -1.46594 0)
(6.93836 -1.3197 0)
(6.82579 -1.14769 0)
(6.70713 -0.968208 0)
(6.59995 -0.8013 0)
(6.51211 -0.653322 0)
(6.43941 -0.51802 0)
(6.37356 -0.385268 0)
(6.30844 -0.249333 0)
(6.24239 -0.109804 0)
(6.1751 0.0298478 0)
(6.10771 0.164975 0)
(6.04107 0.291424 0)
(5.97545 0.406915 0)
(5.91005 0.509451 0)
(5.84482 0.596854 0)
(5.78121 0.666769 0)
(5.71936 0.718796 0)
(5.65908 0.753159 0)
(5.60156 0.769798 0)
(5.54854 0.769783 0)
(5.50014 0.756248 0)
(5.45541 0.729868 0)
(5.41426 0.69274 0)
(5.37797 0.647096 0)
(5.34681 0.599936 0)
(5.32116 0.550823 0)
(5.30005 0.505923 0)
(5.28341 0.459351 0)
(5.26953 0.420365 0)
(5.25909 0.378095 0)
(5.24976 0.346885 0)
(5.24369 0.309771 0)
(5.2365 0.287389 0)
(5.23308 0.254763 0)
(5.22756 0.239949 0)
(5.22451 0.209011 0)
(5.2223 0.20082 0)
(5.21758 0.170655 0)
(5.21988 0.169308 0)
(5.21351 0.139906 0)
(5.21958 0.144088 0)
(5.21307 0.115147 0)
(5.22146 0.122267 0)
(5.21587 0.0943197 0)
(5.2247 0.103233 0)
(5.22029 0.0768659 0)
(5.22753 0.0880915 0)
(5.22403 0.0631431 0)
(5.22857 0.0764043 0)
(5.22629 0.0528251 0)
(5.22734 0.0665841 0)
(5.22759 0.0447572 0)
(5.22443 0.0579422 0)
(5.22843 0.0379815 0)
(5.22097 0.0506357 0)
(5.22904 0.0323184 0)
(5.21775 0.0447023 0)
(5.22974 0.0281959 0)
(5.21465 0.0399151 0)
(5.23087 0.0257824 0)
(5.2113 0.0363278 0)
(5.23228 0.0246178 0)
(5.20772 0.0339066 0)
(5.23369 0.0243656 0)
(5.20395 0.0322951 0)
(5.23524 0.0249817 0)
(5.1998 0.0313159 0)
(5.23716 0.0262566 0)
(5.19523 0.031025 0)
(5.23938 0.0280425 0)
(5.19041 0.0313388 0)
(5.2419 0.0304336 0)
(5.18528 0.0322576 0)
(5.24475 0.0334192 0)
(5.17991 0.0338722 0)
(5.24787 0.037073 0)
(5.17427 0.0361492 0)
(5.25145 0.0415097 0)
(5.16817 0.0392919 0)
(5.2555 0.0467005 0)
(5.16185 0.0433768 0)
(5.2599 0.0529678 0)
(5.15516 0.0483902 0)
(5.26497 0.0603223 0)
(5.14803 0.0548501 0)
(5.2705 0.0687547 0)
(5.1409 0.0626718 0)
(5.27624 0.0791065 0)
(5.13404 0.0716327 0)
(5.28212 0.0915833 0)
(5.12727 0.0827181 0)
(5.2889 0.105425 0)
(5.11999 0.0971274 0)
(5.29636 0.121087 0)
(5.11378 0.114032 0)
(5.30301 0.140524 0)
(5.10924 0.133499 0)
(5.30949 0.163066 0)
(5.10653 0.157789 0)
(5.31458 0.188793 0)
(5.10778 0.186845 0)
(5.3171 0.218898 0)
(5.11378 0.222117 0)
(5.31627 0.253284 0)
(5.12678 0.264623 0)
(5.31006 0.293125 0)
(5.14855 0.31581 0)
(5.29713 0.339093 0)
(5.18155 0.37671 0)
(5.27599 0.392813 0)
(5.22689 0.449063 0)
(5.24636 0.456357 0)
(5.28526 0.533396 0)
(5.21089 0.533388 0)
(5.35266 0.630853 0)
(5.17658 0.629417 0)
(5.42084 0.74113 0)
(5.15654 0.751462 0)
(5.47587 0.864668 0)
(5.16754 0.90786 0)
(5.49874 1.00461 0)
(5.22712 1.10403 0)
(5.47362 1.16866 0)
(5.33561 1.34046 0)
(5.39981 1.37786 0)
(5.46234 1.60702 0)
(5.31815 1.66256 0)
(5.5429 1.89809 0)
(5.32414 2.04731 0)
(5.51242 2.23859 0)
(5.46129 2.51914 0)
(5.3743 2.73264 0)
(5.56534 3.01755 0)
(5.46196 3.43033 0)
(5.52358 3.73559 0)
(5.45661 4.30426 0)
(5.33317 4.95708 0)
(5.30378 5.56828 0)
(5.17318 6.76498 0)
(6.57181 7.48005 0)
(4.30337 11.8283 0)
(6.10132 -0.405552 0)
(6.10162 -0.451808 0)
(6.24375 -0.498422 0)
(6.42042 -0.5551 0)
(6.62838 -0.635157 0)
(6.79172 -0.736277 0)
(6.95767 -0.850236 0)
(7.0359 -0.968363 0)
(7.13489 -1.09742 0)
(7.2144 -1.20935 0)
(7.33396 -1.32444 0)
(7.41469 -1.39367 0)
(7.46773 -1.43012 0)
(7.5089 -1.4271 0)
(7.57036 -1.41339 0)
(7.62462 -1.36754 0)
(7.70521 -1.29462 0)
(7.80495 -1.23337 0)
(7.85106 -1.20131 0)
(7.93072 -1.20149 0)
(7.96039 -1.21705 0)
(7.9615 -1.24087 0)
(7.95924 -1.27945 0)
(8.01141 -1.31282 0)
(8.09017 -1.34057 0)
(8.20592 -1.37737 0)
(8.30078 -1.4303 0)
(8.42066 -1.48753 0)
(8.49806 -1.53542 0)
(8.5819 -1.59578 0)
(8.65342 -1.64335 0)
(8.72652 -1.68865 0)
(8.78975 -1.75655 0)
(8.81575 -1.84018 0)
(8.79431 -1.92658 0)
(8.75502 -2.00511 0)
(8.70696 -2.07954 0)
(8.67733 -2.15712 0)
(8.6586 -2.22327 0)
(8.62049 -2.27697 0)
(8.55472 -2.32184 0)
(8.48207 -2.35555 0)
(8.39966 -2.37467 0)
(8.30762 -2.38197 0)
(8.22595 -2.39125 0)
(8.14508 -2.38944 0)
(8.04387 -2.36549 0)
(7.93954 -2.32907 0)
(7.8526 -2.29318 0)
(7.78179 -2.26052 0)
(7.70813 -2.21605 0)
(7.63237 -2.15567 0)
(7.55385 -2.08364 0)
(7.46384 -1.99536 0)
(7.36788 -1.89358 0)
(7.27567 -1.78533 0)
(7.19014 -1.67325 0)
(7.1086 -1.55731 0)
(7.01849 -1.42841 0)
(6.90727 -1.27336 0)
(6.77886 -1.09661 0)
(6.6513 -0.919511 0)
(6.541 -0.759583 0)
(6.45128 -0.618643 0)
(6.3749 -0.487439 0)
(6.30441 -0.356038 0)
(6.23511 -0.220117 0)
(6.16596 -0.0806861 0)
(6.09669 0.0585878 0)
(6.02875 0.193067 0)
(5.9628 0.318817 0)
(5.89885 0.434056 0)
(5.83588 0.535977 0)
(5.7736 0.6228 0)
(5.71363 0.691929 0)
(5.65576 0.743104 0)
(5.59949 0.776371 0)
(5.54598 0.79143 0)
(5.49716 0.789583 0)
(5.45317 0.774395 0)
(5.41322 0.746402 0)
(5.37689 0.707889 0)
(5.34507 0.660276 0)
(5.31797 0.611423 0)
(5.29554 0.559843 0)
(5.27763 0.513713 0)
(5.2633 0.464781 0)
(5.25235 0.425729 0)
(5.24336 0.380823 0)
(5.2373 0.350993 0)
(5.23119 0.310432 0)
(5.22821 0.291377 0)
(5.22324 0.253863 0)
(5.22172 0.244201 0)
(5.21758 0.20699 0)
(5.21641 0.205297 0)
(5.21387 0.167688 0)
(5.21174 0.17383 0)
(5.21233 0.135938 0)
(5.20947 0.148591 0)
(5.21261 0.110001 0)
(5.21092 0.12687 0)
(5.2152 0.088177 0)
(5.21441 0.108188 0)
(5.21903 0.0702887 0)
(5.21816 0.0937441 0)
(5.22143 0.0565254 0)
(5.22157 0.0828808 0)
(5.22161 0.0461355 0)
(5.22419 0.0738956 0)
(5.22059 0.0378074 0)
(5.22594 0.0659034 0)
(5.21919 0.0307559 0)
(5.22741 0.0588962 0)
(5.21751 0.024936 0)
(5.2291 0.0529678 0)
(5.21566 0.020804 0)
(5.23071 0.048169 0)
(5.21385 0.0183559 0)
(5.2319 0.0447282 0)
(5.21176 0.0171012 0)
(5.23296 0.0424494 0)
(5.209 0.016884 0)
(5.23411 0.040778 0)
(5.20586 0.0176718 0)
(5.23518 0.0397009 0)
(5.20253 0.0190448 0)
(5.2364 0.0394609 0)
(5.19873 0.0208439 0)
(5.23808 0.0398434 0)
(5.19458 0.0232953 0)
(5.23996 0.0408258 0)
(5.19028 0.0262241 0)
(5.24218 0.0427004 0)
(5.18548 0.0296028 0)
(5.24501 0.0453469 0)
(5.18031 0.0336824 0)
(5.24817 0.0489556 0)
(5.17489 0.0382959 0)