/*--------------------------------*- C++ -*----------------------------------*\
| =========                 |                                                 |
| \\      /  F ield         | OpenFOAM: The Open Source CFD Toolbox           |
|  \\    /   O peration     | Version:  2.4.0                                 |
|   \\  /    A nd           | Web:      www.OpenFOAM.org                      |
|    \\/     M anipulation  |                                                 |
\*---------------------------------------------------------------------------*/
FoamFile
{
    version     2.0;
    format      ascii;
    class       volScalarField;
    location    "0.095";
    object      pPrime2Mean;
}
// * * * * * * * * * * * * * * * * * * * * * * * * * * * * * * * * * * * * * //

dimensions      [0 4 -4 0 0 0 0];

internalField   nonuniform List<scalar> 
17600
(
6.80154e+06
6.63003e+06
6.44561e+06
6.26285e+06
6.08268e+06
5.90515e+06
5.73025e+06
5.55796e+06
5.38829e+06
5.22122e+06
5.05676e+06
4.89487e+06
4.7355e+06
4.57858e+06
4.42393e+06
4.27125e+06
4.11997e+06
3.96887e+06
3.81525e+06
3.64995e+06
6.80168e+06
6.63002e+06
6.44561e+06
6.26285e+06
6.08268e+06
5.90515e+06
5.73025e+06
5.55796e+06
5.38829e+06
5.22123e+06
5.05676e+06
4.89487e+06
4.7355e+06
4.57858e+06
4.42394e+06
4.27127e+06
4.12001e+06
3.96896e+06
3.81547e+06
3.65038e+06
6.80179e+06
6.63e+06
6.4456e+06
6.26284e+06
6.08268e+06
5.90515e+06
5.73025e+06
5.55796e+06
5.38829e+06
5.22123e+06
5.05676e+06
4.89487e+06
4.73551e+06
4.57859e+06
4.42396e+06
4.27132e+06
4.12009e+06
3.96913e+06
3.81587e+06
3.65206e+06
6.80186e+06
6.62997e+06
6.44558e+06
6.26284e+06
6.08268e+06
5.90515e+06
5.73025e+06
5.55796e+06
5.38829e+06
5.22123e+06
5.05677e+06
4.89488e+06
4.73552e+06
4.57861e+06
4.42399e+06
4.27138e+06
4.12021e+06
3.96939e+06
3.81647e+06
3.65443e+06
6.80192e+06
6.62995e+06
6.44556e+06
6.26283e+06
6.08268e+06
5.90515e+06
5.73024e+06
5.55796e+06
5.38829e+06
5.22123e+06
5.05677e+06
4.89488e+06
4.73553e+06
4.57863e+06
4.42403e+06
4.27146e+06
4.12037e+06
3.96973e+06
3.81727e+06
3.65727e+06
6.80198e+06
6.62993e+06
6.44554e+06
6.26283e+06
6.08267e+06
5.90515e+06
5.73024e+06
5.55796e+06
5.38829e+06
5.22123e+06
5.05677e+06
4.89489e+06
4.73555e+06
4.57866e+06
4.42409e+06
4.27156e+06
4.12057e+06
3.97014e+06
3.81823e+06
3.66037e+06
6.80203e+06
6.62991e+06
6.44552e+06
6.26282e+06
6.08267e+06
5.90515e+06
5.73024e+06
5.55795e+06
5.38829e+06
5.22123e+06
5.05678e+06
4.8949e+06
4.73557e+06
4.57869e+06
4.42415e+06
4.27168e+06
4.1208e+06
3.97062e+06
3.81933e+06
3.66361e+06
6.80208e+06
6.62989e+06
6.4455e+06
6.26282e+06
6.08267e+06
5.90514e+06
5.73024e+06
5.55795e+06
5.38829e+06
5.22123e+06
5.05678e+06
4.89491e+06
4.73559e+06
4.57873e+06
4.42422e+06
4.27181e+06
4.12107e+06
3.97116e+06
3.82055e+06
3.66693e+06
6.80213e+06
6.62988e+06
6.44548e+06
6.26281e+06
6.08267e+06
5.90514e+06
5.73024e+06
5.55795e+06
5.38829e+06
5.22124e+06
5.05679e+06
4.89493e+06
4.73561e+06
4.57878e+06
4.4243e+06
4.27196e+06
4.12136e+06
3.97175e+06
3.82187e+06
3.67025e+06
6.80217e+06
6.62987e+06
6.44546e+06
6.2628e+06
6.08267e+06
5.90514e+06
5.73024e+06
5.55795e+06
5.38829e+06
5.22124e+06
5.0568e+06
4.89494e+06
4.73563e+06
4.57882e+06
4.42439e+06
4.27213e+06
4.12168e+06
3.9724e+06
3.82325e+06
3.67354e+06
6.8022e+06
6.62986e+06
6.44545e+06
6.2628e+06
6.08267e+06
5.90514e+06
5.73023e+06
5.55795e+06
5.38829e+06
5.22124e+06
5.0568e+06
4.89495e+06
4.73566e+06
4.57887e+06
4.42448e+06
4.27231e+06
4.12202e+06
3.97308e+06
3.8247e+06
3.67677e+06
6.80224e+06
6.62985e+06
6.44543e+06
6.26279e+06
6.08267e+06
5.90514e+06
5.73023e+06
5.55795e+06
5.38829e+06
5.22125e+06
5.05681e+06
4.89497e+06
4.73569e+06
4.57893e+06
4.42459e+06
4.2725e+06
4.12239e+06
3.9738e+06
3.82618e+06
3.67992e+06
6.80226e+06
6.62985e+06
6.44542e+06
6.26279e+06
6.08267e+06
5.90514e+06
5.73023e+06
5.55795e+06
5.38829e+06
5.22125e+06
5.05682e+06
4.89499e+06
4.73572e+06
4.57899e+06
4.42469e+06
4.2727e+06
4.12277e+06
3.97455e+06
3.82768e+06
3.68298e+06
6.80229e+06
6.62985e+06
6.44541e+06
6.26278e+06
6.08267e+06
5.90514e+06
5.73023e+06
5.55795e+06
5.38829e+06
5.22126e+06
5.05683e+06
4.89501e+06
4.73576e+06
4.57905e+06
4.42481e+06
4.27291e+06
4.12317e+06
3.97532e+06
3.82919e+06
3.68593e+06
6.80231e+06
6.62985e+06
6.4454e+06
6.26277e+06
6.08267e+06
5.90515e+06
5.73023e+06
5.55795e+06
5.38829e+06
5.22126e+06
5.05684e+06
4.89502e+06
4.73579e+06
4.57911e+06
4.42493e+06
4.27313e+06
4.12359e+06
3.9761e+06
3.83071e+06
3.68878e+06
6.80233e+06
6.62985e+06
6.44539e+06
6.26277e+06
6.08267e+06
5.90515e+06
5.73023e+06
5.55795e+06
5.3883e+06
5.22127e+06
5.05685e+06
4.89504e+06
4.73583e+06
4.57918e+06
4.42505e+06
4.27336e+06
4.12401e+06
3.9769e+06
3.83221e+06
3.69151e+06
6.80234e+06
6.62985e+06
6.44538e+06
6.26276e+06
6.08267e+06
5.90515e+06
5.73024e+06
5.55795e+06
5.3883e+06
5.22127e+06
5.05686e+06
4.89506e+06
4.73587e+06
4.57925e+06
4.42517e+06
4.27359e+06
4.12444e+06
3.97769e+06
3.83369e+06
3.69412e+06
6.80235e+06
6.62985e+06
6.44538e+06
6.26276e+06
6.08267e+06
5.90515e+06
5.73024e+06
5.55795e+06
5.3883e+06
5.22128e+06
5.05687e+06
4.89509e+06
4.7359e+06
4.57932e+06
4.4253e+06
4.27383e+06
4.12487e+06
3.97849e+06
3.83514e+06
3.69662e+06
6.80235e+06
6.62985e+06
6.44537e+06
6.26276e+06
6.08267e+06
5.90515e+06
5.73024e+06
5.55795e+06
5.38831e+06
5.22128e+06
5.05689e+06
4.89511e+06
4.73594e+06
4.57939e+06
4.42543e+06
4.27406e+06
4.1253e+06
3.97928e+06
3.83656e+06
3.699e+06
6.80236e+06
6.62985e+06
6.44537e+06
6.26276e+06
6.08267e+06
5.90515e+06
5.73024e+06
5.55796e+06
5.38831e+06
5.22129e+06
5.0569e+06
4.89513e+06
4.73598e+06
4.57946e+06
4.42556e+06
4.2743e+06
4.12573e+06
3.98006e+06
3.83793e+06
3.70126e+06
6.80236e+06
6.62985e+06
6.44537e+06
6.26276e+06
6.08267e+06
5.90515e+06
5.73024e+06
5.55796e+06
5.38831e+06
5.2213e+06
5.05691e+06
4.89515e+06
4.73602e+06
4.57953e+06
4.42569e+06
4.27454e+06
4.12616e+06
3.98082e+06
3.83926e+06
3.7034e+06
6.80235e+06
6.62985e+06
6.44537e+06
6.26276e+06
6.08267e+06
5.90515e+06
5.73024e+06
5.55796e+06
5.38832e+06
5.2213e+06
5.05692e+06
4.89517e+06
4.73606e+06
4.5796e+06
4.42582e+06
4.27477e+06
4.12658e+06
3.98157e+06
3.84055e+06
3.70542e+06
6.80235e+06
6.62985e+06
6.44538e+06
6.26276e+06
6.08267e+06
5.90515e+06
5.73024e+06
5.55796e+06
5.38832e+06
5.22131e+06
5.05693e+06
4.89519e+06
4.7361e+06
4.57967e+06
4.42594e+06
4.275e+06
4.12699e+06
3.9823e+06
3.84178e+06
3.70733e+06
6.80234e+06
6.62985e+06
6.44538e+06
6.26277e+06
6.08267e+06
5.90515e+06
5.73024e+06
5.55797e+06
5.38832e+06
5.22132e+06
5.05694e+06
4.89521e+06
4.73614e+06
4.57974e+06
4.42607e+06
4.27522e+06
4.12739e+06
3.98299e+06
3.84295e+06
3.70912e+06
6.80233e+06
6.62985e+06
6.44539e+06
6.26277e+06
6.08267e+06
5.90515e+06
5.73024e+06
5.55797e+06
5.38833e+06
5.22132e+06
5.05696e+06
4.89523e+06
4.73617e+06
4.57981e+06
4.42619e+06
4.27544e+06
4.12778e+06
3.98367e+06
3.84406e+06
3.7108e+06
6.80231e+06
6.62985e+06
6.4454e+06
6.26278e+06
6.08267e+06
5.90515e+06
5.73025e+06
5.55797e+06
5.38833e+06
5.22133e+06
5.05697e+06
4.89525e+06
4.73621e+06
4.57987e+06
4.42631e+06
4.27565e+06
4.12815e+06
3.98431e+06
3.84511e+06
3.71237e+06
6.80229e+06
6.62985e+06
6.44541e+06
6.26278e+06
6.08267e+06
5.90515e+06
5.73025e+06
5.55797e+06
5.38834e+06
5.22134e+06
5.05698e+06
4.89527e+06
4.73624e+06
4.57993e+06
4.42642e+06
4.27585e+06
4.1285e+06
3.98491e+06
3.8461e+06
3.71383e+06
6.80227e+06
6.62985e+06
6.44542e+06
6.26279e+06
6.08267e+06
5.90515e+06
5.73025e+06
5.55798e+06
5.38834e+06
5.22134e+06
5.05699e+06
4.89529e+06
4.73627e+06
4.57999e+06
4.42653e+06
4.27604e+06
4.12884e+06
3.98548e+06
3.84702e+06
3.71518e+06
6.80224e+06
6.62985e+06
6.44543e+06
6.2628e+06
6.08267e+06
5.90515e+06
5.73025e+06
5.55798e+06
5.38834e+06
5.22135e+06
5.057e+06
4.89531e+06
4.73631e+06
4.58005e+06
4.42663e+06
4.27622e+06
4.12915e+06
3.98602e+06
3.84788e+06
3.71642e+06
6.80221e+06
6.62986e+06
6.44545e+06
6.2628e+06
6.08267e+06
5.90515e+06
5.73025e+06
5.55798e+06
5.38835e+06
5.22135e+06
5.05701e+06
4.89532e+06
4.73634e+06
4.5801e+06
4.42672e+06
4.27639e+06
4.12945e+06
3.98651e+06
3.84866e+06
3.71755e+06
6.80217e+06
6.62987e+06
6.44546e+06
6.26281e+06
6.08267e+06
5.90515e+06
5.73025e+06
5.55799e+06
5.38835e+06
5.22136e+06
5.05701e+06
4.89534e+06
4.73636e+06
4.58015e+06
4.42681e+06
4.27655e+06
4.12972e+06
3.98697e+06
3.84938e+06
3.71858e+06
6.80213e+06
6.62988e+06
6.44548e+06
6.26281e+06
6.08267e+06
5.90515e+06
5.73026e+06
5.55799e+06
5.38836e+06
5.22136e+06
5.05702e+06
4.89535e+06
4.73639e+06
4.58019e+06
4.42689e+06
4.27669e+06
4.12996e+06
3.98738e+06
3.85003e+06
3.71951e+06
6.80208e+06
6.62989e+06
6.4455e+06
6.26282e+06
6.08268e+06
5.90516e+06
5.73026e+06
5.55799e+06
5.38836e+06
5.22137e+06
5.05703e+06
4.89536e+06
4.73641e+06
4.58024e+06
4.42696e+06
4.27682e+06
4.13018e+06
3.98775e+06
3.8506e+06
3.72033e+06
6.80203e+06
6.62991e+06
6.44552e+06
6.26283e+06
6.08268e+06
5.90516e+06
5.73026e+06
5.558e+06
5.38836e+06
5.22137e+06
5.05704e+06
4.89538e+06
4.73643e+06
4.58027e+06
4.42703e+06
4.27693e+06
4.13038e+06
3.98807e+06
3.85111e+06
3.72104e+06
6.80198e+06
6.62993e+06
6.44554e+06
6.26283e+06
6.08268e+06
5.90516e+06
5.73027e+06
5.558e+06
5.38837e+06
5.22138e+06
5.05704e+06
4.89539e+06
4.73645e+06
4.5803e+06
4.42708e+06
4.27703e+06
4.13055e+06
3.98835e+06
3.85154e+06
3.72166e+06
6.80192e+06
6.62995e+06
6.44556e+06
6.26284e+06
6.08268e+06
5.90516e+06
5.73027e+06
5.558e+06
5.38837e+06
5.22138e+06
5.05705e+06
4.89539e+06
4.73646e+06
4.58033e+06
4.42713e+06
4.27711e+06
4.13069e+06
3.98859e+06
3.8519e+06
3.72216e+06
6.80186e+06
6.62998e+06
6.44558e+06
6.26284e+06
6.08269e+06
5.90517e+06
5.73027e+06
5.558e+06
5.38837e+06
5.22138e+06
5.05705e+06
4.8954e+06
4.73647e+06
4.58035e+06
4.42717e+06
4.27718e+06
4.13081e+06
3.98878e+06
3.85219e+06
3.72257e+06
6.80179e+06
6.63e+06
6.4456e+06
6.26285e+06
6.08269e+06
5.90517e+06
5.73027e+06
5.558e+06
5.38837e+06
5.22138e+06
5.05705e+06
4.89541e+06
4.73648e+06
4.58037e+06
4.4272e+06
4.27723e+06
4.13089e+06
3.98892e+06
3.85241e+06
3.72287e+06
6.80168e+06
6.63002e+06
6.44561e+06
6.26285e+06
6.08269e+06
5.90517e+06
5.73027e+06
5.558e+06
5.38837e+06
5.22139e+06
5.05706e+06
4.89541e+06
4.73649e+06
4.58038e+06
4.42722e+06
4.27726e+06
4.13095e+06
3.98901e+06
3.85256e+06
3.72307e+06
6.80154e+06
6.63003e+06
6.44562e+06
6.26285e+06
6.08269e+06
5.90517e+06
5.73027e+06
5.558e+06
5.38837e+06
5.22139e+06
5.05706e+06
4.89541e+06
4.73649e+06
4.58038e+06
4.42723e+06
4.27728e+06
4.13098e+06
3.98906e+06
3.85263e+06
3.72317e+06
3.4934e+06
3.45587e+06
3.42681e+06
3.40133e+06
3.37746e+06
3.35462e+06
3.33253e+06
3.311e+06
3.28988e+06
3.26911e+06
3.24861e+06
3.22835e+06
3.20829e+06
3.18839e+06
3.16864e+06
3.14901e+06
3.12949e+06
3.11006e+06
3.09073e+06
3.07147e+06
3.05229e+06
3.03317e+06
3.01411e+06
2.9951e+06
2.97615e+06
2.95725e+06
2.93841e+06
2.91962e+06
2.90089e+06
2.88224e+06
2.86365e+06
2.84513e+06
2.82669e+06
2.80831e+06
2.79001e+06
2.77177e+06
2.7536e+06
2.73549e+06
2.71745e+06
2.69948e+06
2.68158e+06
2.66374e+06
2.64597e+06
2.62826e+06
2.61062e+06
2.59304e+06
2.57551e+06
2.55804e+06
2.54063e+06
2.52328e+06
2.50599e+06
2.48875e+06
2.47158e+06
2.45446e+06
2.43742e+06
2.42043e+06
2.4035e+06
2.38664e+06
2.36984e+06
2.3531e+06
2.33643e+06
2.31982e+06
2.30327e+06
2.28678e+06
2.27036e+06
2.254e+06
2.2377e+06
2.22146e+06
2.20528e+06
2.18916e+06
2.1731e+06
2.15711e+06
2.14117e+06
2.1253e+06
2.10948e+06
2.09373e+06
2.07803e+06
2.06239e+06
2.04681e+06
2.03129e+06
2.01582e+06
2.00041e+06
1.98506e+06
1.96976e+06
1.95451e+06
1.93932e+06
1.92419e+06
1.90911e+06
1.89409e+06
1.87913e+06
1.86423e+06
1.84938e+06
1.8346e+06
1.81988e+06
1.80522e+06
1.79062e+06
1.77608e+06
1.7616e+06
1.74718e+06
1.73282e+06
1.71852e+06
1.70428e+06
1.6901e+06
1.67598e+06
1.66191e+06
1.6479e+06
1.63395e+06
1.62006e+06
1.60623e+06
1.59245e+06
1.57873e+06
1.56507e+06
1.55146e+06
1.53791e+06
1.52442e+06
1.51098e+06
1.49759e+06
1.48426e+06
1.47098e+06
1.45776e+06
1.44459e+06
1.43149e+06
1.41845e+06
1.40547e+06
1.39256e+06
1.37971e+06
1.36693e+06
1.35421e+06
1.34156e+06
1.32897e+06
1.31645e+06
1.30398e+06
1.29158e+06
1.27924e+06
1.26695e+06
1.25473e+06
1.24257e+06
1.23046e+06
1.21842e+06
1.20643e+06
1.19451e+06
1.18264e+06
1.17083e+06
1.15909e+06
1.1474e+06
1.13577e+06
1.1242e+06
1.11269e+06
1.10124e+06
1.08985e+06
1.07852e+06
1.06724e+06
1.05603e+06
1.04487e+06
1.03377e+06
1.02274e+06
1.01176e+06
1.00084e+06
989975
979173
968428
957743
947116
936547
926036
915584
905190
894853
884574
874353
864188
854081
844029
834034
824094
814208
804377
794599
784873
775197
765571
755992
746459
736967
727515
718099
708712
699350
690005
680668
671326
661963
652560
643089
633510
623765
613768
603386
592129
579863
3.51114e+06
3.47028e+06
3.43817e+06
3.41062e+06
3.38533e+06
3.36143e+06
3.33848e+06
3.31623e+06
3.29452e+06
3.27324e+06
3.2523e+06
3.23165e+06
3.21124e+06
3.19104e+06
3.17102e+06
3.15115e+06
3.13141e+06
3.11179e+06
3.09228e+06
3.07287e+06
3.05354e+06
3.03429e+06
3.01511e+06
2.99601e+06
2.97696e+06
2.95798e+06
2.93906e+06
2.92021e+06
2.90143e+06
2.88272e+06
2.86409e+06
2.84553e+06
2.82705e+06
2.80864e+06
2.7903e+06
2.77203e+06
2.75384e+06
2.73571e+06
2.71765e+06
2.69966e+06
2.68173e+06
2.66388e+06
2.6461e+06
2.62838e+06
2.61073e+06
2.59314e+06
2.57561e+06
2.55813e+06
2.54071e+06
2.52336e+06
2.50606e+06
2.48882e+06
2.47164e+06
2.45452e+06
2.43747e+06
2.42048e+06
2.40355e+06
2.38669e+06
2.36989e+06
2.35315e+06
2.33648e+06
2.31987e+06
2.30333e+06
2.28685e+06
2.27042e+06
2.25406e+06
2.23776e+06
2.22152e+06
2.20534e+06
2.18922e+06
2.17317e+06
2.15717e+06
2.14123e+06
2.12536e+06
2.10954e+06
2.09378e+06
2.07808e+06
2.06244e+06
2.04686e+06
2.03133e+06
2.01586e+06
2.00045e+06
1.98509e+06
1.96978e+06
1.95454e+06
1.93934e+06
1.92421e+06
1.90913e+06
1.8941e+06
1.87914e+06
1.86424e+06
1.84939e+06
1.83461e+06
1.81989e+06
1.80523e+06
1.79063e+06
1.77609e+06
1.76161e+06
1.74719e+06
1.73284e+06
1.71854e+06
1.70429e+06
1.69011e+06
1.67599e+06
1.66192e+06
1.64791e+06
1.63397e+06
1.62007e+06
1.60624e+06
1.59246e+06
1.57874e+06
1.56508e+06
1.55148e+06
1.53793e+06
1.52444e+06
1.51099e+06
1.4976e+06
1.48427e+06
1.47099e+06
1.45776e+06
1.4446e+06
1.43149e+06
1.41845e+06
1.40547e+06
1.39255e+06
1.3797e+06
1.36692e+06
1.3542e+06
1.34155e+06
1.32896e+06
1.31643e+06
1.30397e+06
1.29156e+06
1.27922e+06
1.26694e+06
1.25471e+06
1.24255e+06
1.23044e+06
1.2184e+06
1.20641e+06
1.19448e+06
1.18262e+06
1.17081e+06
1.15906e+06
1.14737e+06
1.13574e+06
1.12417e+06
1.11265e+06
1.1012e+06
1.0898e+06
1.07846e+06
1.06719e+06
1.05597e+06
1.04481e+06
1.0337e+06
1.02266e+06
1.01167e+06
1.00074e+06
989872
979060
968305
957608
946969
936386
925861
915392
904980
894624
884324
874079
863889
853753
843672
833643
823667
813742
803867
794041
784263
774531
764842
755195
745586
736012
726468
716951
707452
697966
688482
678988
669469
659904
650268
640522
630616
620465
609941
598840
586513
571985
3.52516e+06
3.48293e+06
3.44885e+06
3.41959e+06
3.39302e+06
3.36811e+06
3.34434e+06
3.32141e+06
3.29912e+06
3.27733e+06
3.25595e+06
3.23492e+06
3.21418e+06
3.19368e+06
3.17339e+06
3.15328e+06
3.13333e+06
3.11351e+06
3.09383e+06
3.07426e+06
3.05478e+06
3.03541e+06
3.01612e+06
2.9969e+06
2.97777e+06
2.9587e+06
2.93972e+06
2.9208e+06
2.90196e+06
2.88321e+06
2.86453e+06
2.84593e+06
2.8274e+06
2.80896e+06
2.79059e+06
2.7723e+06
2.75408e+06
2.73593e+06
2.71785e+06
2.69984e+06
2.6819e+06
2.66403e+06
2.64623e+06
2.6285e+06
2.61084e+06
2.59325e+06
2.57571e+06
2.55823e+06
2.5408e+06
2.52343e+06
2.50613e+06
2.48888e+06
2.4717e+06
2.45458e+06
2.43752e+06
2.42053e+06
2.4036e+06
2.38674e+06
2.36994e+06
2.35321e+06
2.33654e+06
2.31993e+06
2.30339e+06
2.28691e+06
2.27049e+06
2.25413e+06
2.23782e+06
2.22158e+06
2.2054e+06
2.18929e+06
2.17323e+06
2.15723e+06
2.14129e+06
2.12541e+06
2.10959e+06
2.09383e+06
2.07813e+06
2.06248e+06
2.0469e+06
2.03137e+06
2.01589e+06
2.00048e+06
1.98511e+06
1.96981e+06
1.95455e+06
1.93936e+06
1.92422e+06
1.90913e+06
1.89411e+06
1.87914e+06
1.86424e+06
1.84939e+06
1.83461e+06
1.81989e+06
1.80523e+06
1.79063e+06
1.77609e+06
1.76162e+06
1.7472e+06
1.73284e+06
1.71854e+06
1.7043e+06
1.69012e+06
1.676e+06
1.66193e+06
1.64792e+06
1.63397e+06
1.62008e+06
1.60625e+06
1.59247e+06
1.57875e+06
1.56509e+06
1.55149e+06
1.53794e+06
1.52445e+06
1.511e+06
1.49762e+06
1.48428e+06
1.471e+06
1.45777e+06
1.4446e+06
1.43149e+06
1.41845e+06
1.40546e+06
1.39255e+06
1.3797e+06
1.36691e+06
1.35419e+06
1.34154e+06
1.32895e+06
1.31642e+06
1.30396e+06
1.29155e+06
1.27921e+06
1.26692e+06
1.2547e+06
1.24253e+06
1.23042e+06
1.21838e+06
1.20639e+06
1.19446e+06
1.18259e+06
1.17078e+06
1.15903e+06
1.14734e+06
1.1357e+06
1.12413e+06
1.11261e+06
1.10115e+06
1.08976e+06
1.07841e+06
1.06713e+06
1.05591e+06
1.04474e+06
1.03363e+06
1.02258e+06
1.01158e+06
1.00065e+06
989769
978947
968182
957474
946822
936226
925685
915201
904771
894395
884074
873806
863591
853428
843316
833254
823242
813277
803359
793487
783657
773868
764118
754402
744719
735063
725429
715811
706203
696594
686973
677326
667635
657875
648014
638007
627790
617266
606262
594562
581444
565723
3.53666e+06
3.49415e+06
3.4588e+06
3.42817e+06
3.40047e+06
3.37463e+06
3.35009e+06
3.3265e+06
3.30365e+06
3.28138e+06
3.25957e+06
3.23817e+06
3.21709e+06
3.1963e+06
3.17574e+06
3.15539e+06
3.13523e+06
3.11522e+06
3.09536e+06
3.07564e+06
3.05602e+06
3.03652e+06
3.01711e+06
2.9978e+06
2.97857e+06
2.95943e+06
2.94037e+06
2.92139e+06
2.9025e+06
2.88369e+06
2.86496e+06
2.84632e+06
2.82776e+06
2.80928e+06
2.79089e+06
2.77256e+06
2.75432e+06
2.73614e+06
2.71804e+06
2.70001e+06
2.68206e+06
2.66418e+06
2.64637e+06
2.62863e+06
2.61096e+06
2.59336e+06
2.57581e+06
2.55832e+06
2.54089e+06
2.52352e+06
2.5062e+06
2.48895e+06
2.47176e+06
2.45463e+06
2.43757e+06
2.42058e+06
2.40365e+06
2.38679e+06
2.37e+06
2.35327e+06
2.3366e+06
2.31999e+06
2.30345e+06
2.28697e+06
2.27055e+06
2.25419e+06
2.23789e+06
2.22165e+06
2.20546e+06
2.18934e+06
2.17328e+06
2.15728e+06
2.14134e+06
2.12546e+06
2.10964e+06
2.09388e+06
2.07817e+06
2.06252e+06
2.04693e+06
2.0314e+06
2.01592e+06
2.0005e+06
1.98513e+06
1.96982e+06
1.95456e+06
1.93936e+06
1.92422e+06
1.90913e+06
1.89411e+06
1.87914e+06
1.86423e+06
1.84939e+06
1.8346e+06
1.81988e+06
1.80522e+06
1.79062e+06
1.77609e+06
1.76161e+06
1.7472e+06
1.73284e+06
1.71854e+06
1.7043e+06
1.69012e+06
1.676e+06
1.66193e+06
1.64792e+06
1.63398e+06
1.62008e+06
1.60625e+06
1.59248e+06
1.57876e+06
1.5651e+06
1.55149e+06
1.53795e+06
1.52445e+06
1.51101e+06
1.49762e+06
1.48428e+06
1.471e+06
1.45777e+06
1.4446e+06
1.43149e+06
1.41844e+06
1.40546e+06
1.39254e+06
1.37969e+06
1.3669e+06
1.35418e+06
1.34153e+06
1.32894e+06
1.31641e+06
1.30394e+06
1.29154e+06
1.27919e+06
1.26691e+06
1.25468e+06
1.24251e+06
1.23041e+06
1.21836e+06
1.20637e+06
1.19444e+06
1.18257e+06
1.17076e+06
1.159e+06
1.14731e+06
1.13567e+06
1.12409e+06
1.11257e+06
1.10111e+06
1.08971e+06
1.07836e+06
1.06708e+06
1.05585e+06
1.04467e+06
1.03356e+06
1.0225e+06
1.0115e+06
1.00055e+06
989667
978835
968060
957340
946676
936066
925511
915010
904562
894168
883825
873534
863294
853103
842961
832867
822819
812815
802855
792935
783054
773210
763398
753615
743858
734121
724399
714683
704966
695237
685484
675688
665830
655881
645805
635551
625040
614186
602752
590577
576900
560772
3.54645e+06
3.5041e+06
3.46799e+06
3.43631e+06
3.40765e+06
3.38097e+06
3.3557e+06
3.33149e+06
3.3081e+06
3.28536e+06
3.26314e+06
3.24137e+06
3.21997e+06
3.19888e+06
3.17806e+06
3.15748e+06
3.13711e+06
3.11691e+06
3.09688e+06
3.077e+06
3.05725e+06
3.03761e+06
3.01809e+06
2.99868e+06
2.97936e+06
2.96014e+06
2.94101e+06
2.92197e+06
2.90303e+06
2.88417e+06
2.8654e+06
2.84671e+06
2.82812e+06
2.80961e+06
2.79118e+06
2.77283e+06
2.75455e+06
2.73636e+06
2.71824e+06
2.7002e+06
2.68223e+06
2.66433e+06
2.64651e+06
2.62876e+06
2.61108e+06
2.59347e+06
2.57592e+06
2.55842e+06
2.54098e+06
2.5236e+06
2.50628e+06
2.48902e+06
2.47182e+06
2.45469e+06
2.43763e+06
2.42063e+06
2.4037e+06
2.38684e+06
2.37005e+06
2.35332e+06
2.33666e+06
2.32005e+06
2.30351e+06
2.28703e+06
2.27061e+06
2.25425e+06
2.23795e+06
2.2217e+06
2.20552e+06
2.1894e+06
2.17333e+06
2.15733e+06
2.14139e+06
2.1255e+06
2.10968e+06
2.09391e+06
2.07821e+06
2.06256e+06
2.04696e+06
2.03142e+06
2.01594e+06
2.00052e+06
1.98514e+06
1.96983e+06
1.95457e+06
1.93936e+06
1.92422e+06
1.90913e+06
1.8941e+06
1.87913e+06
1.86422e+06
1.84938e+06
1.83459e+06
1.81987e+06
1.80521e+06
1.79061e+06
1.77608e+06
1.7616e+06
1.74719e+06
1.73283e+06
1.71853e+06
1.70429e+06
1.69011e+06
1.67599e+06
1.66193e+06
1.64792e+06
1.63397e+06
1.62008e+06
1.60625e+06
1.59247e+06
1.57876e+06
1.5651e+06
1.55149e+06
1.53795e+06
1.52445e+06
1.51101e+06
1.49762e+06
1.48429e+06
1.471e+06
1.45778e+06
1.4446e+06
1.43149e+06
1.41844e+06
1.40545e+06
1.39254e+06
1.37968e+06
1.3669e+06
1.35417e+06
1.34152e+06
1.32893e+06
1.3164e+06
1.30393e+06
1.29152e+06
1.27918e+06
1.26689e+06
1.25466e+06
1.2425e+06
1.23039e+06
1.21834e+06
1.20635e+06
1.19442e+06
1.18255e+06
1.17073e+06
1.15898e+06
1.14728e+06
1.13564e+06
1.12406e+06
1.11254e+06
1.10107e+06
1.08966e+06
1.07831e+06
1.06702e+06
1.05579e+06
1.04461e+06
1.03349e+06
1.02242e+06
1.01141e+06
1.00046e+06
989565
978724
967938
957207
946530
935907
925338
914820
904355
893941
883578
873264
862999
852781
842610
832483
822399
812357
802354
792388
782457
772557
762685
752836
743006
733190
723380
713568
703745
693899
684016
674076
664056
653928
643645
633166
622376
611237
599426
586891
572868
556710
3.55495e+06
3.51301e+06
3.47646e+06
3.444e+06
3.41452e+06
3.38709e+06
3.36116e+06
3.33637e+06
3.31246e+06
3.28927e+06
3.26665e+06
3.24452e+06
3.2228e+06
3.20143e+06
3.18036e+06
3.15955e+06
3.13896e+06
3.11858e+06
3.09838e+06
3.07834e+06
3.05846e+06
3.0387e+06
3.01907e+06
2.99956e+06
2.98015e+06
2.96085e+06
2.94165e+06
2.92255e+06
2.90355e+06
2.88464e+06
2.86583e+06
2.8471e+06
2.82847e+06
2.80993e+06
2.79146e+06
2.77309e+06
2.75479e+06
2.73658e+06
2.71844e+06
2.70038e+06
2.6824e+06
2.66449e+06
2.64665e+06
2.62889e+06
2.61121e+06
2.59358e+06
2.57602e+06
2.55852e+06
2.54107e+06
2.52368e+06
2.50635e+06
2.48909e+06
2.47188e+06
2.45475e+06
2.43768e+06
2.42068e+06
2.40376e+06
2.3869e+06
2.37011e+06
2.35338e+06
2.33671e+06
2.32011e+06
2.30357e+06
2.28709e+06
2.27067e+06
2.2543e+06
2.238e+06
2.22176e+06
2.20557e+06
2.18945e+06
2.17338e+06
2.15737e+06
2.14143e+06
2.12554e+06
2.10971e+06
2.09394e+06
2.07823e+06
2.06258e+06
2.04698e+06
2.03144e+06
2.01596e+06
2.00052e+06
1.98515e+06
1.96983e+06
1.95456e+06
1.93936e+06
1.9242e+06
1.90911e+06
1.89408e+06
1.87911e+06
1.8642e+06
1.84936e+06
1.83458e+06
1.81985e+06
1.8052e+06
1.7906e+06
1.77606e+06
1.76159e+06
1.74717e+06
1.73282e+06
1.71852e+06
1.70428e+06
1.6901e+06
1.67598e+06
1.66192e+06
1.64791e+06
1.63397e+06
1.62008e+06
1.60624e+06
1.59247e+06
1.57875e+06
1.56509e+06
1.55149e+06
1.53794e+06
1.52445e+06
1.51101e+06
1.49762e+06
1.48428e+06
1.471e+06
1.45777e+06
1.4446e+06
1.43149e+06
1.41844e+06
1.40545e+06
1.39253e+06
1.37968e+06
1.36689e+06
1.35417e+06
1.34151e+06
1.32892e+06
1.31639e+06
1.30392e+06
1.29151e+06
1.27916e+06
1.26688e+06
1.25465e+06
1.24248e+06
1.23037e+06
1.21832e+06
1.20633e+06
1.1944e+06
1.18252e+06
1.17071e+06
1.15895e+06
1.14725e+06
1.13561e+06
1.12402e+06
1.1125e+06
1.10103e+06
1.08962e+06
1.07826e+06
1.06697e+06
1.05573e+06
1.04454e+06
1.03342e+06
1.02234e+06
1.01133e+06
1.00037e+06
989464
978614
967817
957075
946386
935750
925165
914632
904150
893717
883333
872997
862706
852462
842261
832102
821983
811902
801858
791846
781865
771910
761979
752065
742164
732269
722374
712468
702542
692582
682572
672495
662318
652023
641538
630858
619807
608426
596300
583493
569292
553265
3.56243e+06
3.52102e+06
3.48426e+06
3.45124e+06
3.42108e+06
3.39299e+06
3.36646e+06
3.34112e+06
3.31673e+06
3.2931e+06
3.2701e+06
3.24762e+06
3.22559e+06
3.20394e+06
3.18261e+06
3.16158e+06
3.14079e+06
3.12022e+06
3.09986e+06
3.07967e+06
3.05965e+06
3.03977e+06
3.02003e+06
3.00042e+06
2.98093e+06
2.96156e+06
2.94229e+06
2.92313e+06
2.90407e+06
2.88511e+06
2.86625e+06
2.84749e+06
2.82882e+06
2.81024e+06
2.79175e+06
2.77335e+06
2.75503e+06
2.73679e+06
2.71864e+06
2.70056e+06
2.68257e+06
2.66465e+06
2.6468e+06
2.62903e+06
2.61133e+06
2.5937e+06
2.57613e+06
2.55862e+06
2.54116e+06
2.52377e+06
2.50643e+06
2.48916e+06
2.47195e+06
2.45481e+06
2.43774e+06
2.42074e+06
2.40381e+06
2.38695e+06
2.37016e+06
2.35343e+06
2.33677e+06
2.32017e+06
2.30362e+06
2.28714e+06
2.27072e+06
2.25436e+06
2.23805e+06
2.22181e+06
2.20562e+06
2.18949e+06
2.17342e+06
2.15741e+06
2.14146e+06
2.12557e+06
2.10974e+06
2.09397e+06
2.07825e+06
2.0626e+06
2.047e+06
2.03145e+06
2.01596e+06
2.00053e+06
1.98515e+06
1.96982e+06
1.95455e+06
1.93934e+06
1.92419e+06
1.90909e+06
1.89406e+06
1.87909e+06
1.86418e+06
1.84934e+06
1.83455e+06
1.81983e+06
1.80517e+06
1.79058e+06
1.77604e+06
1.76157e+06
1.74715e+06
1.7328e+06
1.7185e+06
1.70427e+06
1.69009e+06
1.67597e+06
1.6619e+06
1.6479e+06
1.63395e+06
1.62006e+06
1.60623e+06
1.59246e+06
1.57874e+06
1.56508e+06
1.55148e+06
1.53793e+06
1.52444e+06
1.511e+06
1.49761e+06
1.48428e+06
1.471e+06
1.45777e+06
1.4446e+06
1.43148e+06
1.41843e+06
1.40544e+06
1.39252e+06
1.37967e+06
1.36688e+06
1.35416e+06
1.3415e+06
1.32891e+06
1.31638e+06
1.30391e+06
1.2915e+06
1.27915e+06
1.26686e+06
1.25464e+06
1.24247e+06
1.23036e+06
1.2183e+06
1.20631e+06
1.19438e+06
1.1825e+06
1.17068e+06
1.15892e+06
1.14722e+06
1.13558e+06
1.12399e+06
1.11246e+06
1.10099e+06
1.08957e+06
1.07821e+06
1.06691e+06
1.05567e+06
1.04448e+06
1.03334e+06
1.02227e+06
1.01124e+06
1.00028e+06
989363
978504
967697
956945
946243
935594
924995
914446
903946
893495
883090
872731
862417
852146
841915
831725
821571
811453
801367
791310
781280
771272
761281
751304
741333
731362
721382
711385
701357
691290
681154
670949
660617
650171
639490
628633
617342
605753
593377
580361
566105
550269
3.56912e+06
3.52828e+06
3.49146e+06
3.45802e+06
3.42731e+06
3.39865e+06
3.37157e+06
3.34573e+06
3.32088e+06
3.29684e+06
3.27347e+06
3.25066e+06
3.22833e+06
3.2064e+06
3.18484e+06
3.16358e+06
3.14259e+06
3.12184e+06
3.10131e+06
3.08098e+06
3.06083e+06
3.04083e+06
3.02099e+06
3.00128e+06
2.98171e+06
2.96226e+06
2.94292e+06
2.9237e+06
2.90459e+06
2.88558e+06
2.86668e+06
2.84787e+06
2.82917e+06
2.81056e+06
2.79204e+06
2.77361e+06
2.75526e+06
2.73701e+06
2.71884e+06
2.70075e+06
2.68274e+06
2.66481e+06
2.64695e+06
2.62917e+06
2.61146e+06
2.59381e+06
2.57624e+06
2.55872e+06
2.54125e+06
2.52385e+06
2.50651e+06
2.48923e+06
2.47201e+06
2.45487e+06
2.43779e+06
2.42079e+06
2.40387e+06
2.38701e+06
2.37021e+06
2.35348e+06
2.33682e+06
2.32022e+06
2.30368e+06
2.28719e+06
2.27077e+06
2.25441e+06
2.2381e+06
2.22185e+06
2.20566e+06
2.18952e+06
2.17345e+06
2.15744e+06
2.14148e+06
2.12559e+06
2.10976e+06
2.09398e+06
2.07826e+06
2.0626e+06
2.047e+06
2.03145e+06
2.01596e+06
2.00052e+06
1.98514e+06
1.96981e+06
1.95454e+06
1.93932e+06
1.92416e+06
1.90907e+06
1.89403e+06
1.87906e+06
1.86415e+06
1.84931e+06
1.83452e+06
1.8198e+06
1.80515e+06
1.79055e+06
1.77602e+06
1.76154e+06
1.74713e+06
1.73278e+06
1.71848e+06
1.70424e+06
1.69007e+06
1.67595e+06
1.66188e+06
1.64788e+06
1.63393e+06
1.62004e+06
1.60621e+06
1.59244e+06
1.57872e+06
1.56506e+06
1.55146e+06
1.53792e+06
1.52443e+06
1.51099e+06
1.4976e+06
1.48427e+06
1.47099e+06
1.45776e+06
1.44459e+06
1.43148e+06
1.41842e+06
1.40544e+06
1.39251e+06
1.37966e+06
1.36687e+06
1.35415e+06
1.34149e+06
1.3289e+06
1.31637e+06
1.3039e+06
1.29149e+06
1.27914e+06
1.26685e+06
1.25462e+06
1.24245e+06
1.23034e+06
1.21829e+06
1.20629e+06
1.19436e+06
1.18248e+06
1.17066e+06
1.1589e+06
1.14719e+06
1.13555e+06
1.12395e+06
1.11242e+06
1.10095e+06
1.08953e+06
1.07817e+06
1.06686e+06
1.05561e+06
1.04442e+06
1.03328e+06
1.02219e+06
1.01116e+06
1.00019e+06
989264
978397
967579
956816
946101
935440
924826
914263
903745
893276
882850
872470
862130
851833
841573
831352
821164
811009
800882
790782
780702
770643
760593
750555
740513
730470
720405
710324
700193
690025
679764
669443
658957
648376
637509
626493
614988
603216
590664
577478
563235
547605
3.57517e+06
3.53489e+06
3.49811e+06
3.46439e+06
3.43323e+06
3.40408e+06
3.37651e+06
3.3502e+06
3.32493e+06
3.30049e+06
3.27677e+06
3.25364e+06
3.23101e+06
3.20883e+06
3.18702e+06
3.16554e+06
3.14436e+06
3.12344e+06
3.10275e+06
3.08228e+06
3.06199e+06
3.04188e+06
3.02193e+06
3.00213e+06
2.98247e+06
2.96295e+06
2.94355e+06
2.92427e+06
2.9051e+06
2.88604e+06
2.8671e+06
2.84825e+06
2.82951e+06
2.81087e+06
2.79232e+06
2.77386e+06
2.7555e+06
2.73723e+06
2.71904e+06
2.70094e+06
2.68291e+06
2.66497e+06
2.6471e+06
2.62931e+06
2.61159e+06
2.59393e+06
2.57634e+06
2.55882e+06
2.54134e+06
2.52393e+06
2.50658e+06
2.4893e+06
2.47208e+06
2.45493e+06
2.43785e+06
2.42085e+06
2.40392e+06
2.38706e+06
2.37026e+06
2.35354e+06
2.33687e+06
2.32027e+06
2.30372e+06
2.28724e+06
2.27082e+06
2.25445e+06
2.23814e+06
2.22188e+06
2.20569e+06
2.18955e+06
2.17347e+06
2.15746e+06
2.1415e+06
2.1256e+06
2.10976e+06
2.09399e+06
2.07827e+06
2.0626e+06
2.047e+06
2.03145e+06
2.01595e+06
2.00051e+06
1.98512e+06
1.96979e+06
1.95451e+06
1.93929e+06
1.92413e+06
1.90904e+06
1.894e+06
1.87903e+06
1.86412e+06
1.84928e+06
1.83449e+06
1.81977e+06
1.80512e+06
1.79052e+06
1.77599e+06
1.76151e+06
1.7471e+06
1.73275e+06
1.71845e+06
1.70422e+06
1.69004e+06
1.67592e+06
1.66186e+06
1.64786e+06
1.63391e+06
1.62002e+06
1.60619e+06
1.59242e+06
1.5787e+06
1.56504e+06
1.55144e+06
1.5379e+06
1.52441e+06
1.51097e+06
1.49759e+06
1.48425e+06
1.47097e+06
1.45775e+06
1.44458e+06
1.43147e+06
1.41841e+06
1.40543e+06
1.39251e+06
1.37965e+06
1.36686e+06
1.35414e+06
1.34148e+06
1.32889e+06
1.31636e+06
1.30389e+06
1.29148e+06
1.27913e+06
1.26684e+06
1.25461e+06
1.24244e+06
1.23033e+06
1.21827e+06
1.20628e+06
1.19434e+06
1.18246e+06
1.17063e+06
1.15887e+06
1.14716e+06
1.13552e+06
1.12392e+06
1.11239e+06
1.10091e+06
1.08949e+06
1.07812e+06
1.06681e+06
1.05555e+06
1.04435e+06
1.03321e+06
1.02212e+06
1.01108e+06
1.0001e+06
989166
978291
967462
956690
945961
935289
924659
914082
903545
893060
882612
872212
861847
851526
841236
830986
820762
810573
800403
790262
780132
770024
759915
749819
739706
729596
719445
709285
699051
688791
678407
667979
657346
646639
635600
624435
612756
600809
588158
574824
560607
545184
3.5807e+06
3.54094e+06
3.50426e+06
3.47034e+06
3.43883e+06