/*--------------------------------*- C++ -*----------------------------------*\
| =========                 |                                                 |
| \\      /  F ield         | OpenFOAM: The Open Source CFD Toolbox           |
|  \\    /   O peration     | Version:  2.4.0                                 |
|   \\  /    A nd           | Web:      www.OpenFOAM.org                      |
|    \\/     M anipulation  |                                                 |
\*---------------------------------------------------------------------------*/
FoamFile
{
    version     2.0;
    format      ascii;
    class       volScalarField;
    location    "0.083";
    object      nut;
}
// * * * * * * * * * * * * * * * * * * * * * * * * * * * * * * * * * * * * * //

dimensions      [0 2 -1 0 0 0 0];

internalField   nonuniform List<scalar> 
17600
(
0.00010783
0.00012451
0.000135993
0.000143228
0.000147274
0.000149057
0.000149311
0.000148581
0.000147257
0.000145609
0.000143819
0.000142008
0.000140254
0.000138609
0.000137102
0.00013575
0.000134557
0.000133522
0.000132621
0.000131995
0.000329173
0.000212655
0.000162185
0.00013586
0.000121229
0.000113025
0.000108733
0.000107059
0.000107297
0.000109044
0.000112053
0.000116155
0.000121216
0.000127109
0.000133698
0.000140832
0.000148345
0.000156059
0.000163855
0.000169551
0.000659514
0.000505622
0.000400841
0.000328641
0.000277966
0.000241566
0.000214856
0.000194963
0.000180061
0.000168963
0.00016088
0.000155282
0.000151804
0.00015019
0.000150253
0.00015184
0.00015482
0.000159054
0.000164362
0.000169673
0.000798066
0.000719144
0.00063947
0.000568171
0.000507729
0.000457532
0.000415973
0.000381395
0.000352386
0.000327824
0.000306848
0.000288811
0.000273238
0.00025979
0.000248229
0.000238403
0.00023021
0.000223579
0.000218347
0.000213798
0.000836034
0.000805282
0.000764927
0.000720395
0.00067586
0.000633741
0.000595094
0.00056017
0.000528805
0.000500655
0.000475318
0.0004524
0.000431542
0.000412439
0.000394837
0.000378535
0.000363381
0.000349254
0.000335943
0.000322965
0.000845497
0.000833333
0.000815252
0.00079227
0.0007661
0.00073842
0.000710527
0.000683286
0.000657208
0.000632544
0.000609371
0.000587658
0.000567311
0.000548205
0.000530201
0.000513159
0.000496942
0.000481414
0.00046636
0.000451505
0.000847815
0.000841759
0.000833143
0.000821665
0.000807553
0.000791359
0.000773738
0.000755308
0.000736577
0.00071793
0.000699633
0.000681855
0.000664689
0.000648172
0.000632302
0.000617047
0.000602356
0.000588158
0.000574324
0.000560749
0.000848382
0.000844198
0.000839116
0.000832753
0.00082492
0.000815628
0.000805039
0.000793399
0.000780981
0.000768051
0.000754838
0.000741533
0.000728281
0.000715187
0.000702322
0.000689728
0.000677423
0.000665402
0.000653621
0.00064209
0.00084852
0.000844889
0.000841035
0.000836725
0.000831764
0.000826029
0.000819477
0.000812137
0.00080409
0.00079545
0.00078634
0.000776887
0.000767202
0.000757385
0.000747518
0.000737664
0.000727871
0.00071817
0.000708568
0.000699131
0.000848553
0.000845082
0.000841635
0.000838096
0.000834345
0.000830269
0.000825787
0.000820851
0.000815449
0.000809598
0.000803336
0.000796716
0.000789798
0.000782644
0.000775312
0.000767856
0.000760321
0.000752745
0.000745156
0.000737638
0.00084856
0.000845133
0.000841817
0.000838556
0.000835284
0.000831931
0.000828429
0.000824725
0.000820777
0.000816564
0.000812078
0.000807326
0.000802327
0.000797104
0.000791688
0.000786109
0.000780398
0.000774583
0.000768693
0.000762807
0.00084856
0.000845146
0.000841871
0.000838706
0.000835616
0.000832561
0.000829497
0.000826382
0.000823178
0.000819856
0.000816392
0.000812773
0.000808994
0.000805056
0.000800965
0.000796734
0.000792375
0.000787905
0.000783343
0.000778757
0.00084856
0.000845148
0.000841885
0.000838752
0.000835729
0.000832792
0.000829914
0.000827067
0.000824224
0.000821357
0.000818445
0.000815468
0.000812413
0.00080927
0.000806034
0.000802703
0.000799279
0.000795767
0.000792176
0.000788562
0.000848559
0.000845147
0.000841887
0.000838765
0.000835766
0.000832874
0.000830072
0.000827342
0.000824664
0.000822019
0.00081939
0.000816758
0.000814109
0.00081143
0.000808712
0.000805947
0.000803131
0.000800261
0.000797338
0.00079441
0.000848558
0.000845146
0.000841887
0.000838767
0.000835776
0.000832901
0.000830129
0.000827448
0.000824844
0.000822303
0.000819811
0.000817356
0.000814923
0.000812503
0.000810084
0.000807657
0.000805215
0.000802752
0.000800267
0.000797799
0.000848557
0.000845145
0.000841885
0.000838767
0.000835778
0.000832908
0.000830148
0.000827487
0.000824914
0.00082242
0.000819993
0.000817625
0.000815304
0.00081302
0.000810766
0.000808531
0.00080631
0.000804094
0.000801882
0.000799707
0.000848557
0.000845144
0.000841884
0.000838765
0.000835777
0.00083291
0.000830153
0.0008275
0.00082494
0.000822466
0.00082007
0.000817742
0.000815476
0.000813262
0.000811095
0.000808966
0.000806869
0.000804797
0.000802746
0.00080075
0.000848557
0.000845143
0.000841883
0.000838764
0.000835776
0.000832909
0.000830154
0.000827504
0.000824949
0.000822484
0.0008201
0.000817791
0.000815551
0.000813372
0.000811249
0.000809175
0.000807145
0.000805152
0.000803194
0.000801302
0.000848556
0.000845143
0.000841883
0.000838763
0.000835775
0.000832908
0.000830154
0.000827504
0.000824952
0.000822489
0.000820111
0.000817811
0.000815582
0.00081342
0.000811318
0.000809271
0.000807274
0.000805323
0.000803412
0.000801576
0.000848556
0.000845143
0.000841882
0.000838763
0.000835774
0.000832908
0.000830153
0.000827504
0.000824952
0.000822491
0.000820115
0.000817817
0.000815593
0.000813437
0.000811344
0.000809308
0.000807325
0.00080539
0.0008035
0.000801688
0.000848556
0.000845143
0.000841882
0.000838763
0.000835774
0.000832908
0.000830153
0.000827504
0.000824952
0.000822491
0.000820115
0.000817817
0.000815593
0.000813437
0.000811344
0.000809308
0.000807325
0.00080539
0.0008035
0.000801687
0.000848556
0.000845143
0.000841883
0.000838763
0.000835775
0.000832908
0.000830154
0.000827504
0.000824952
0.000822489
0.000820111
0.000817811
0.000815582
0.00081342
0.000811318
0.000809271
0.000807274
0.000805322
0.000803411
0.000801573
0.000848557
0.000845143
0.000841883
0.000838764
0.000835776
0.000832909
0.000830154
0.000827504
0.000824949
0.000822484
0.0008201
0.000817791
0.000815551
0.000813372
0.000811249
0.000809176
0.000807145
0.000805152
0.000803192
0.000801297
0.000848557
0.000845144
0.000841884
0.000838765
0.000835777
0.00083291
0.000830153
0.0008275
0.00082494
0.000822466
0.00082007
0.000817742
0.000815476
0.000813263
0.000811095
0.000808966
0.000806869
0.000804796
0.000802744
0.000800743
0.000848557
0.000845145
0.000841885
0.000838767
0.000835778
0.000832908
0.000830148
0.000827487
0.000824914
0.00082242
0.000819993
0.000817625
0.000815304
0.00081302
0.000810766
0.000808532
0.00080631
0.000804094
0.000801879
0.000799698
0.000848558
0.000845146
0.000841887
0.000838767
0.000835776
0.000832901
0.000830129
0.000827448
0.000824844
0.000822303
0.000819811
0.000817356
0.000814923
0.000812503
0.000810084
0.000807657
0.000805215
0.000802753
0.000800265
0.00079779
0.000848559
0.000845147
0.000841887
0.000838765
0.000835766
0.000832874
0.000830072
0.000827342
0.000824664
0.000822019
0.00081939
0.000816758
0.000814109
0.00081143
0.000808712
0.000805948
0.000803132
0.000800262
0.000797338
0.000794403
0.00084856
0.000845148
0.000841885
0.000838752
0.000835729
0.000832792
0.000829914
0.000827067
0.000824224
0.000821357
0.000818445
0.000815468
0.000812413
0.00080927
0.000806034
0.000802704
0.000799281
0.00079577
0.000792178
0.000788562
0.00084856
0.000845146
0.000841871
0.000838706
0.000835616
0.000832561
0.000829497
0.000826382
0.000823178
0.000819856
0.000816392
0.000812773
0.000808994
0.000805056
0.000800966
0.000796735
0.000792378
0.000787912
0.000783352
0.000778775
0.00084856
0.000845133
0.000841817
0.000838556
0.000835284
0.000831931
0.000828429
0.000824725
0.000820777
0.000816564
0.000812078
0.000807326
0.000802327
0.000797105
0.000791689
0.000786111
0.000780403
0.000774595
0.000768715
0.000762861
0.000848553
0.000845082
0.000841635
0.000838096
0.000834345
0.000830269
0.000825787
0.000820851
0.000815449
0.000809598
0.000803336
0.000796716
0.000789798
0.000782645
0.000775314
0.00076786
0.00076033
0.000752766
0.000745202
0.000737762
0.00084852
0.000844889
0.000841035
0.000836725
0.000831764
0.000826029
0.000819477
0.000812137
0.00080409
0.000795449
0.000786341
0.000776887
0.000767203
0.000757387
0.000747521
0.00073767
0.000727885
0.000718204
0.000708653
0.000699384
0.000848382
0.000844198
0.000839116
0.000832753
0.00082492
0.000815628
0.000805039
0.000793399
0.000780981
0.00076805
0.000754839
0.000741534
0.000728282
0.000715189
0.000702326
0.000689737
0.000677443
0.000665455
0.000653769
0.000642573
0.000847815
0.000841759
0.000833143
0.000821665
0.000807553
0.000791359
0.000773738
0.000755308
0.000736577
0.00071793
0.000699633
0.000681855
0.00066469
0.000648174
0.000632307
0.000617059
0.000602386
0.000588238
0.000574571
0.000561631
0.000845497
0.000833333
0.000815252
0.00079227
0.0007661
0.00073842
0.000710527
0.000683286
0.000657208
0.000632544
0.000609371
0.000587659
0.000567313
0.000548209
0.000530208
0.000513174
0.000496981
0.000481526
0.00046674
0.00045299
0.000836034
0.000805282
0.000764927
0.000720394
0.00067586
0.000633741
0.000595094
0.000560169
0.000528804
0.000500655
0.000475318
0.0004524
0.000431544
0.000412443
0.000394844
0.000378552
0.000363424
0.000349381
0.000336404
0.000324988
0.000798066
0.000719144
0.00063947
0.00056817
0.000507729
0.000457532
0.000415973
0.000381395
0.000352386
0.000327824
0.000306848
0.000288812
0.00027324
0.000259792
0.000248235
0.000238415
0.00023024
0.000223663
0.000218662
0.000215543
0.000659514
0.000505622
0.000400841
0.000328641
0.000277966
0.000241566
0.000214856
0.000194963
0.000180061
0.000168962
0.00016088
0.000155282
0.000151805
0.000150191
0.000150254
0.000151844
0.000154829
0.000159079
0.000164448
0.000170925
0.000329173
0.000212655
0.000162185
0.00013586
0.000121229
0.000113025
0.000108733
0.000107059
0.000107297
0.000109044
0.000112053
0.000116155
0.000121216
0.000127109
0.000133698
0.000140833
0.000148349
0.000156076
0.000163843
0.000171616
0.00010783
0.00012451
0.000135993
0.000143228
0.000147274
0.000149057
0.000149311
0.000148581
0.000147257
0.000145609
0.000143819
0.000142008
0.000140254
0.000138609
0.000137103
0.000135751
0.00013456
0.000133527
0.000132649
0.000131889
0.000169808
0.000217332
0.000271208
0.000329019
0.000387782
0.000445387
0.000500964
0.000554536
0.000606567
0.000657621
0.000708162
0.000758481
0.000808734
0.000859003
0.000909353
0.000959863
0.00101061
0.00106167
0.00111312
0.00116502
0.00121741
0.00127037
0.00132395
0.00137821
0.00143319
0.00148897
0.00154559
0.00160312
0.00166161
0.00172109
0.00178162
0.00184321
0.0019059
0.0019697
0.00203461
0.00210062
0.00216774
0.00223592
0.00230514
0.00237535
0.00244651
0.00251854
0.00259138
0.00266497
0.00273923
0.00281409
0.00288946
0.00296527
0.00304143
0.00311786
0.00319449
0.00327123
0.00334801
0.00342476
0.00350141
0.00357789
0.00365414
0.00373011
0.00380574
0.00388098
0.00395581
0.00403017
0.00410404
0.0041774
0.00425022
0.00432248
0.00439416
0.00446526
0.00453576
0.00460564
0.00467489
0.00474351
0.00481147
0.00487875
0.00494533
0.00501119
0.0050763
0.00514061
0.00520408
0.00526666
0.00532829
0.00538892
0.00544847
0.00550686
0.00556402
0.00561986
0.00567429
0.0057272
0.00577851
0.00582811
0.00587591
0.00592179
0.00596568
0.00600746
0.00604705
0.00608436
0.00611932
0.00615185
0.00618189
0.00620938
0.00623428
0.00625657
0.0062762
0.00629319
0.00630753
0.00631923
0.00632832
0.00633484
0.00633884
0.00634039
0.00633956
0.00633643
0.00633111
0.0063237
0.00631433
0.00630313
0.00629023
0.00627579
0.00625998
0.00624298
0.00622496
0.00620614
0.00618672
0.00616694
0.00614704
0.00612728
0.00610795
0.00608935
0.00607181
0.00605569
0.00604139
0.00602933
0.00601998
0.00601388
0.00601161
0.00601381
0.00602122
0.00603463
0.00605496
0.00608322
0.00612052
0.00616809
0.00622728
0.00629953
0.00638634
0.00648927
0.00660985
0.0067495
0.00690943
0.00709054
0.00729326
0.00751747
0.00776234
0.00802635
0.00830719
0.0086019
0.00890694
0.00921839
0.00953215
0.00984414
0.0101505
0.0104479
0.0107333
0.0110045
0.0112597
0.011498
0.0117189
0.0119222
0.0121085
0.0122785
0.0124332
0.0125739
0.0127022
0.0128198
0.0129283
0.0130299
0.0131265
0.0132203
0.0133137
0.013409
0.0135092
0.0136174
0.0137372
0.0138725
0.0140282
0.014209
0.0144197
0.014664
0.0149424
0.01525
0.015572
0.015879
0.0161205
0.0162165
0.0160454
0.015424
0.0140743
0.0115852
0.00748675
0.0013387
0.000174583
0.0001837
0.000198279
0.000219538
0.000247835
0.000282847
0.000323635
0.00036887
0.000417083
0.000466923
0.000517345
0.000567695
0.000617681
0.000667287
0.000716652
0.000765958
0.000815356
0.000864942
0.000914756
0.000964808
0.00101511
0.00106568
0.00111656
0.00116782
0.00121952
0.00127172
0.00132449
0.00137788
0.00143194
0.0014867
0.00154222
0.00159853
0.00165567
0.00171367
0.00177255
0.00183233
0.00189302
0.00195461
0.00201711
0.00208049
0.00214472
0.00220979
0.00227564
0.00234224
0.00240953
0.00247748
0.00254601
0.00261508
0.00268462
0.00275457
0.00282487
0.00289545
0.00296626
0.00303724
0.00310832
0.00317945
0.00325058
0.00332165
0.00339263
0.00346346
0.00353411
0.00360455
0.00367475
0.00374467
0.00381429
0.0038836
0.00395258
0.00402121
0.00408946
0.00415734
0.00422482
0.0042919
0.00435854
0.00442472
0.00449044
0.00455565
0.00462032
0.00468442
0.00474789
0.00481069
0.00487277
0.00493405
0.00499447
0.00505394
0.00511239
0.00516973
0.00522586
0.00528069
0.00533411
0.00538601
0.0054363
0.00548486
0.0055316
0.0055764
0.00561918
0.00565982
0.00569825
0.00573439
0.00576814
0.00579947
0.00582829
0.00585458
0.00587829
0.0058994
0.0059179
0.0059338
0.0059471
0.00595783
0.00596603
0.00597175
0.00597505
0.00597601
0.00597471
0.00597124
0.00596572
0.00595827
0.00594901
0.00593809
0.00592566
0.00591189
0.00589694
0.00588101
0.00586429
0.00584701
0.00582938
0.00581165
0.00579409
0.00577698
0.00576062
0.00574535
0.00573153
0.00571956
0.00570987
0.00570295
0.00569934
0.00569962
0.00570449
0.00571467
0.00573103
0.0057545
0.00578616
0.00582717
0.00587884
0.00594261
0.00602002
0.00611268
0.00622226
0.00635038
0.00649855
0.00666805
0.00685978
0.00707414
0.00731089
0.00756904
0.00784681
0.00814164
0.00845024
0.00876878
0.00909306
0.00941877
0.00974168
0.0100579
0.0103639
0.010657
0.0109348
0.011196
0.0114396
0.0116652
0.0118732
0.012064
0.0122385
0.012398
0.0125439
0.012678
0.012802
0.012918
0.0130281
0.0131345
0.0132396
0.0133462
0.0134569
0.0135752
0.0137047
0.0138496
0.0140147
0.0142052
0.0144262
0.0146816
0.0149727
0.0152949
0.015634
0.0159612
0.0162262
0.0163491
0.0162086
0.0156237
0.0143239
0.0119374
0.00803401
0.00223048
0.000171571
0.000173844
0.000176863
0.000181157
0.000187206
0.000195809
0.000207826
0.000224036
0.000245053
0.000271205
0.000302479
0.000338525
0.000378712
0.00042222
0.000468167
0.00051572
0.000564195
0.000613101
0.000662155
0.000711243
0.000760369
0.000809603
0.000859028
0.000908713
0.000958702
0.00100902
0.00105968
0.00111068
0.00116206
0.00121385
0.00126607
0.00131879
0.00137204
0.00142587
0.0014803
0.00153538
0.00159113
0.00164755
0.00170466
0.00176247
0.00182097
0.00188016
0.00194004
0.00200058
0.00206176
0.00212356
0.00218595
0.00224889
0.00231234
0.00237627
0.00244064
0.0025054
0.00257051
0.00263593
0.00270161
0.00276751
0.00283359
0.00289981
0.00296613
0.00303252
0.00309894
0.00316537
0.00323178
0.00329814
0.00336443
0.00343064
0.00349674
0.00356273
0.00362857
0.00369426
0.00375978
0.00382512
0.00389024
0.00395515
0.00401979
0.00408416
0.00414821
0.00421191
0.0042752
0.00433804
0.00440038
0.00446214
0.00452325
0.00458365
0.00464323
0.00470192
0.00475962
0.00481622
0.00487163
0.00492573
0.00497841
0.00502956
0.00507908
0.00512685
0.00517276
0.00521671
0.0052586
0.00529834
0.00533584
0.00537103
0.00540383
0.00543419
0.00546207
0.00548741
0.00551021
0.00553044
0.00554811
0.00556323
0.00557582
0.00558592
0.00559357
0.00559885
0.00560181
0.00560255
0.00560117
0.00559775
0.00559244
0.00558534
0.00557662
0.0055664
0.00555486
0.00554218
0.00552852
0.00551411
0.00549914
0.00548384
0.00546846
0.00545326
0.00543852
0.00542455
0.00541168
0.00540028
0.00539074
0.00538351
0.00537908
0.005378
0.00538087
0.00538839
0.00540134
0.00542059
0.00544712
0.00548206
0.00552664
0.00558225
0.00565042
0.00573277
0.00583105
0.00594703
0.00608246
0.00623892
0.00641777
0.00661993
0.00684575
0.00709488
0.00736616
0.00765757
0.00796625
0.00828861
0.00862051
0.0089575
0.00929503
0.00962874
0.00995465
0.0102693
0.01057
0.0108546
0.0111218
0.0113709
0.0116018
0.0118148
0.0120106
0.0121903
0.0123552
0.0125071
0.0126478
0.0127794
0.012904
0.013024
0.0131419
0.0132603
0.0133823
0.0135112
0.0136508
0.0138056
0.0139803
0.0141804
0.0144113
0.0146773
0.0149801
0.0153158
0.0156708
0.0160166
0.0163036
0.0164528
0.0163444
0.0158024
0.0145702
0.0123189
0.00867681
0.00341749
0.000212804
0.000212015
0.000211421
0.000211038
0.000210836
0.000210849
0.000211175
0.000211943
0.000213529
0.000216459
0.000221366
0.000228946
0.000239884
0.000254774
0.000274045
0.000297918
0.000326383
0.000359203
0.000395946
0.000436036
0.000478822
0.000523647
0.000569917
0.000617148
0.000664985
0.000713205
0.000761694
0.000810423
0.000859405
0.000908679
0.000958282
0.00100824
0.00105858
0.0011093
0.00116042
0.00121195
0.00126391
0.0013163
0.00136916
0.0014225
0.00147635
0.0015307
0.00158558
0.00164099
0.00169693
0.0017534
0.00181038
0.00186788
0.00192586
0.00198432
0.00204325
0.00210261
0.00216238
0.00222255
0.00228308
0.00234394
0.00240513
0.0024666
0.00252833
0.0025903
0.00265249
0.00271487
0.00277742
0.00284014
0.00290299
0.00296596
0.00302904
0.00309221
0.00315546
0.00321878
0.00328214
0.00334553
0.00340894
0.00347234
0.00353571
0.00359901
0.00366221
0.00372528
0.00378817
0.00385083
0.0039132
0.00397522
0.00403682
0.00409792
0.00415843
0.00421827
0.00427733
0.00433553
0.00439274
0.00444886
0.00450377
0.00455736
0.00460952
0.00466012
0.00470905
0.00475621
0.00480147
0.00484475
0.00488594
0.00492496
0.00496172
0.00499615
0.0050282
0.00505782
0.00508496
0.0051096
0.00513172
0.00515133
0.00516843
0.00518305
0.00519522
0.00520498
0.0052124
0.00521755
0.00522051
0.00522138
0.00522025
0.00521725
0.0052125
0.00520614
0.00519832
0.0051892
0.00517894
0.00516775
0.0051558
0.00514331
0.00513052
0.00511764
0.00510496
0.00509275
0.00508131
0.00507099
0.00506213
0.00505515
0.0050505
0.00504866
0.0050502
0.00505574
0.00506599
0.00508175
0.00510392
0.00513354
0.00517178
0.00521994
0.00527949
0.00535204
0.00543935
0.00554327
0.0056657
0.0058085
0.00597338
0.00616173
0.00637451
0.00661202
0.00687378
0.00715843
0.00746368
0.00778637
0.00812257
0.00846784
0.00881743
0.0091666
0.00951086
0.00984619
0.0101692
0.0104772
0.0107683
0.0110414
0.011296
0.0115322
0.0117503
0.0119512
0.0121363
0.0123071
0.0124656
0.0126137
0.0127538
0.0128881
0.0130194
0.0131503
0.0132841
0.013424
0.0135741
0.0137388
0.0139231
0.0141327
0.014373
0.0146489
0.0149625
0.0153103
0.0156795
0.0160424
0.0163501
0.016525
0.0164505
0.0159579
0.01481
0.0127201
0.00939964
0.00480757
0.000319363
0.000316002
0.000312869
0.000309961
0.000307215
0.000304553
0.000301903
0.00029918
0.000296314
0.000293168
0.000289761
0.00028616
0.000282533
0.000279166
0.000276481
0.000275018
0.000275401
0.000278282
0.000284279
0.000293919
0.000307589
0.000325517
0.000347757
0.000374193
0.000404557
0.000438462
0.000475434
0.000514963
0.000556545
0.000599718
0.000644095
0.000689372
0.000735331
0.000781832
0.000828795
0.000876182
0.00092398
0.000972191
0.00102082
0.00106987
0.00111933
0.00116923
0.00121954
0.00127028
0.00132145
0.00137305
0.00142509
0.00147758
0.00153051
0.00158388
0.00163771
0.00169198
0.00174669
0.00180183
0.00185739
0.00191338
0.00196976
0.00202655
0.00208371
0.00214125
0.00219915
0.0022574
0.00231599
0.00237492
0.00243416
0.00249371
0.00255356
0.0026137
0.00267412
0.0027348
0.00279574
0.00285692
0.00291832
0.00297993
0.00304172
0.00310365
0.00316571
0.00322785
0.00329003
0.0033522
0.00341431
0.00347629
0.00353807
0.00359957
0.00366072
0.00372142
0.00378158
0.00384109
0.00389984
0.00395773
0.00401464
0.00407044
0.00412502
0.00417825
0.00423002
0.00428021
0.00432869
0.00437537
0.00442013
0.00446287
0.00450351
0.00454195
0.00457813
0.00461199
0.00464347
0.00467253
0.00469915
0.0047233
0.00474498
0.00476421
0.004781
0.00479538
0.0048074
0.00481713
0.00482462
0.00482995
0.00483323
0.00483455
0.00483402
0.00483178
0.00482795
0.00482268
0.00481614
0.00480848
0.0047999
0.00479058
0.00478073
0.00477058
0.00476037
0.00475035
0.0047408
0.00473202
0.00472436
0.00471817
0.00471386
0.00471187
0.00471272
0.00471695
0.00472521
0.00473823
0.00475682
0.00478193
0.00481464
0.00485615
0.00490786
0.0049713
0.00504821
0.00514044
0.00524999
0.00537889
0.00552912
0.00570251
0.00590053
0.00612413
0.00637355
0.0066482
0.00694646
0.00726576
0.00760259
0.00795268
0.00831125
0.00867329
0.00903384
0.00938833
0.0097327
0.0100636
0.0103786
0.010676
0.010955
0.0112152
0.0114565
0.0116798
0.0118861
0.012077
0.0122542
0.0124199
0.0125763
0.0127259
0.0128713
0.0130155
0.0131615
0.0133129
0.0134738
0.0136486
0.0138426
0.0140614
0.0143108
0.0145959
0.0149192
0.0152779
0.0156598
0.016038
0.016365
0.0165652
0.0165262
0.0160891
0.0150387
0.0131301
0.0101637
0.00627431
0.000447163
0.000443016
0.000439043
0.000435257
0.000431637
0.000428147
0.000424748
0.000421398
0.000418049
0.000414635
0.000411042
0.0004072
0.000403026
0.000398441
0.000393376
0.000387788
0.000381681
0.000375127
0.000368291
0.000361449
0.000354984
0.000349383
0.000345198
0.000343009
0.000343374
0.000346784
0.00035363
0.000364179
0.000378568
0.000396806
0.000418781
0.000444279
0.000473008
0.000504623
0.000538751
0.00057502
0.00061308
0.000652622
0.000693384
0.000735156
0.00077778
0.000821142
0.000865161
0.000909787
0.000954983
0.00100073
0.00104701
0.00109381
0.00114113
0.00118895
0.00123728
0.00128611
0.00133543
0.00138525
0.00143557
0.00148638
0.00153768
0.00158948
0.00164177
0.00169456
0.00174784
0.00180161
0.00185587
0.00191062
0.00196586
0.00202158
0.00207777
0.00213444
0.00219158
0.00224918
0.00230724
0.00236573
0.00242466
0.00248399
0.00254372
0.00260381
0.00266423
0.00272496
0.00278595
0.00284716
0.00290853
0.00297
0.0030315
0.00309296
0.0031543
0.00321544
0.00327626
0.00333668
0.00339658
0.00345585
0.00351437
0.00357203
0.00362869
0.00368424
0.00373854
0.00379147
0.00384291
0.00389274
0.00394085
0.00398712
0.00403145
0.00407375
0.00411393
0.00415192
0.00418766
0.00422107
0.00425214
0.00428081
0.00430709
0.00433095
0.0043524
0.00437147
0.00438819
0.00440259
0.00441474
0.00442469
0.00443254
0.00443836
0.00444226
0.00444435
0.00444475
0.00444359
0.00444102
0.00443719
0.00443227
0.00442644
0.00441989
0.00441282
0.00440545
0.00439802
0.00439078
0.00438401
0.00437801
0.00437311
0.00436968
0.00436812
0.00436887
0.00437245
0.00437942
0.00439043
0.00440622
0.00442764
0.00445566
0.00449139
0.00453612
0.00459129
0.00465855
0.00473972
0.0048368
0.00495191
0.00508724
0.00524493
0.00542691
0.00563472
0.00586933
0.00613091
0.00641867
0.00673077
0.00706429
0.00741536
0.00777932
0.00815105
0.00852528
0.00889687
0.00926115
0.00961413
0.00995263
0.0102744
0.0105781
0.0108629
0.0111284
0.011375
0.0116036
0.0118156
0.0120127
0.0121969
0.0123707
0.0125364
0.0126968
0.0128548
0.0130138
0.0131772
0.0133492
0.0135344
0.0137381
0.013966
0.0142241
0.0145177
0.0148498
0.0152181
0.0156111
0.0160031
0.0163481
0.0165731
0.0165711
0.0161942
0.0152508
0.013536
0.0109299
0.00769421
0.000556708
0.000552819
0.000549045
0.000545398
0.000541871
0.000538452
0.000535127
0.000531882
0.000528701
0.000525568
0.000522439
0.000519282
0.000516061
0.000512738
0.000509265
0.000505584
0.000501633
0.00049734
0.000492634
0.000487445
0.000481714
0.000475405
0.000468518
0.000461101
0.000453272
0.000445221
0.000437223
0.000429628
0.000422847
0.00041733
0.000413533
0.000411884
0.000412761
0.000416466
0.000423212
0.000433124
0.000446233
0.000462491
0.000481783
0.000503934
0.000528735
0.000555951
0.00058534
0.000616665
0.000649703
0.000684254
0.000720142
0.000757223
0.000795375
0.000834505
0.000874538
0.000915419
0.000957103
0.00099956
0.00104276
0.0010867
0.00113135
0.0011767
0.00122275
0.00126949
0.00131692
0.00136503
0.00141382
0.0014633
0.00151345
0.00156429
0.0016158
0.001668
0.00172086
0.0017744
0.00182861
0.00188348
0.00193899
0.00199513
0.00205189
0.00210925
0.00216717
0.00222563
0.00228459
0.002344
0.00240382
0.00246399
0.00252444
0.00258511
0.0026459
0.00270675
0.00276755
0.0028282
0.00288859
0.00294862
0.00300816
0.00306709
0.00312529
0.00318262
0.00323895
0.00329416
0.00334811
0.00340069
0.00345175
0.00350119
0.00354889
0.00359474
0.00363866
0.00368054
0.00372031
0.0037579
0.00379326
0.00382634
0.0038571
0.00388552
0.0039116
0.00393534
0.00395675
0.00397587
0.00399272
0.00400737
0.00401988
0.00403033
0.00403879
0.00404537
0.00405018
0.00405333
0.00405495
0.00405519
0.00405419
0.00405212
0.00404915
0.00404548
0.00404129
0.0040368
0.00403226
0.0040279
0.004024
0.00402086
0.0040188
0.00401819
0.00401943
0.00402296
0.00402929
0.004039
0.00405275
0.00407128
0.00409547
0.00412632
0.00416499
0.0042128
0.0042713
0.00434221
0.00442749
0.00452926
0.00464982
0.00479151
0.00495662
0.00514721
0.00536491
0.00561069
0.00588463
0.00618573
0.00651185
0.00685972
0.00722503
0.00760276
0.00798743
0.00837348
0.00875566
0.00912926
0.00949039
0.00983616
0.0101648
0.0104747
0.0107651
0.0110359
0.0112878
0.0115219
0.0117399
0.0119438
0.0121359
0.0123187
0.0124949
0.0126677
0.0128402
0.0130161
0.0131997
0.0133955
0.013609
0.0138459
0.0141125
0.0144141
0.0147541
0.0151307
0.0155334
0.0159375
0.016299
0.0165483
0.0165843
0.0162711
0.0154403
0.013924
0.0116654
0.00898972
0.00063863
0.000635291
0.000632028
0.000628845
0.000625743
0.000622716
0.000619759
0.000616867
0.000614034
0.000611262
0.000608524
0.000605814
0.000603125
0.000600446
0.000597767
0.000595071
0.00059234
0.000589551
0.000586676
0.000583682
0.000580529
0.000577172
0.000573564
0.00056965
0.000565378
0.000560697
0.000555566
0.000549954
0.000543856
0.000537294
0.000530328
0.000523062
0.00051565
0.000508294
0.000501242
0.000494781
0.000489218
0.000484866
0.00048203
0.000480986
0.000481971
0.000485173
0.000490727
0.000498713
0.000509162
0.000522061
0.000537358
0.00055497
0.000574796
0.000596717
0.00062061
0.000646349
0.000673815
0.000702892
0.000733477
0.000765479
0.000798816
0.00083342
0.000869234
0.000906208
0.000944306
0.000983493
0.00102375
0.00106504
0.00110737
0.00115071
0.00119505
0.00124038
0.00128669
0.00133398
0.00138223
0.00143143
0.00148157
0.00153262
0.00158459
0.00163744
0.00169114
0.00174567
0.00180099
0.00185705
0.00191382
0.00197123
0.00202923
0.00208774
0.00214669
0.00220598
0.00226554
0.00232526
0.00238503
0.00244474
0.00250427
0.00256349
0.00262228
0.00268051
0.00273803
0.00279472
0.00285043
0.00290503
0.00295838
0.00301037
0.00306086
0.00310973
0.00315688
0.00320221
0.00324561
0.003287
0.00332632
0.0033635
0.00339849
0.00343126
0.00346178
0.00349003
0.00351601
0.00353975
0.00356125
0.00358057
0.00359774
0.00361283
0.00362591
0.00363705
0.00364636
0.00365394
0.0036599
0.00366437
0.00366749
0.00366939
0.00367024
0.00367021
0.00366948
0.00366825
0.00366672
0.00366513
0.00366371
0.00366273
0.0036625
0.00366332
0.00366556
0.00366961
0.00367592
0.00368499
0.0036974
0.00371383
0.00373502
0.00376186
0.0037954
0.00383683
0.00388754
0.00394914
0.00402347
0.00411261
0.00421885
0.00434464
0.00449252
0.00466495
0.00486413
0.00509178
0.00534886
0.00563531
0.00594991
0.00629019
0.00665244
0.00703194
0.00742322
0.00782046
0.00821787
0.00861008
0.00899247
0.00936153
0.00971483
0.01005
0.0103658
0.0106616
0.0109376
0.011195
0.011435
0.0116596
0.011871
0.0120719
0.0122648
0.0124531
0.0126398
0.0128289
0.0130245
0.0132314
0.0134548
0.0137008
0.0139754
0.0142845
0.0146316
0.0150154
0.0154263
0.0158412
0.0162179
0.0164907
0.0165651
0.0163174
0.0156012
0.0142812
0.0123452
0.0101282
0.000696286
0.000693538
0.000690834
0.000688179
0.000685574
0.000683017
0.000680506
0.000678038
0.000675614
0.000673233
0.000670882
0.000668561
0.000666267
0.000664001
0.000661759
0.000659541
0.000657344
0.000655162
0.000652993
0.000650827
0.000648658
0.000646474
0.000644262
0.000642004
0.000639681
0.00063727
0.000634746
0.000632077
0.000629234
0.000626182
0.00062289
0.000619324
0.000615458
0.000611274
0.00060676
0.000601923
0.000596785
0.000591392
0.000585812
0.000580139
0.000574495
0.000569023
0.00056389
0.000559276
0.000555372
0.00055237
0.000550456
0.000549805
0.000550574
0.000552899
0.000556891
0.000562638
0.000570203
0.000579627
0.000590933
0.000604124
0.000619191
0.000636114
0.000654865
0.000675409
0.00069771
0.000721729
0.000747427
0.000774766
0.000803712
0.000834231
0.000866292
0.000899866
0.000934927
0.00097145
0.00100941
0.00104879
0.00108957
0.00113171
0.0011752
0.00122
0.00126609
0.00131343
0.00136199
0.00141171
0.00146255
0.00151445
0.00156735
0.00162117
0.00167584
0.00173128
0.00178739
0.00184406
0.00190119
0.00195867
0.00201636
0.00207415
0.00213189
0.00218945
0.00224669
0.00230346
0.00235962
0.00241502
0.00246951
0.00252296
0.00257522
0.00262617
0.00267569
0.00272364
0.00276992
0.00281443
0.00285708
0.00289779
0.0029365
0.00297314
0.00300767
0.00304007
0.0030703
0.00309838
0.0031243
0.00314808
0.00316975
0.00318936
0.00320696
0.00322262
0.00323641
0.00324842
0.00325876
0.00326752
0.00327484
0.00328083
0.00328565
0.00328944
0.00329236
0.0032946
0.00329634
0.00329779
0.00329916
0.00330069
0.00330265
0.00330532
0.00330901
0.00331407
0.0033209
0.00332993
0.00334167
0.00335669
0.00337566
0.00339936
0.00342868
0.00346469
0.00350862
0.00356194
0.00362634
0.00370375
0.00379641
0.00390677
0.00403748
0.00419128
0.00437084
0.00457851
0.00481609
0.0050845
0.00538357
0.00571178
0.00606626
0.00644285
0.00683634
0.00724082
0.00765012
0.00805826
0.0084599
0.008851
0.00922829
0.00958865
0.00993002
0.0102513
0.0105524
0.0108338
0.0110969
0.0113432
0.0115751
0.011795
0.0120056
0.0122102
0.012412
0.0126149
0.0128231
0.0130413
0.013275
0.01353
0.0138127
0.0141287
0.0144821
0.0148722
0.0152901
0.0157141
0.0161048
0.0164001
0.0165128
0.0163309
0.015728