/*--------------------------------*- C++ -*----------------------------------*\
| =========                 |                                                 |
| \\      /  F ield         | OpenFOAM: The Open Source CFD Toolbox           |
|  \\    /   O peration     | Version:  2.4.0                                 |
|   \\  /    A nd           | Web:      www.OpenFOAM.org                      |
|    \\/     M anipulation  |                                                 |
\*---------------------------------------------------------------------------*/
FoamFile
{
    version     2.0;
    format      ascii;
    class       surfaceScalarField;
    location    "0.281";
    object      phi;
}
// * * * * * * * * * * * * * * * * * * * * * * * * * * * * * * * * * * * * * //

dimensions      [0 3 -1 0 0 0 0];

internalField   nonuniform List<scalar> 
34880
(
5.48723e-06
7.01277e-06
3.12714e-06
2.36009e-06
2.47031e-06
6.56832e-07
2.21792e-06
2.52385e-07
2.07797e-06
1.39949e-07
1.963e-06
1.14974e-07
1.88595e-06
7.70521e-08
1.82341e-06
6.25413e-08
1.76307e-06
6.03306e-08
1.73269e-06
3.03848e-08
1.70425e-06
2.84401e-08
1.65853e-06
4.57194e-08
1.64153e-06
1.70032e-08
1.60786e-06
3.36717e-08
1.57942e-06
2.84373e-08
1.5547e-06
2.47195e-08
1.52465e-06
3.00509e-08
1.51323e-06
1.14187e-08
1.47934e-06
3.38956e-08
-1.17425e-06
2.65359e-06
1.01114e-05
9.40136e-06
7.83235e-06
4.63915e-06
6.70595e-06
1.78323e-06
6.06383e-06
8.94502e-07
5.64812e-06
5.55658e-07
5.34163e-06
4.21462e-07
5.12532e-06
2.93363e-07
4.94249e-06
2.4537e-07
4.79233e-06
2.10499e-07
4.69639e-06
1.26317e-07
4.59699e-06
1.2784e-07
4.5039e-06
1.38816e-07
4.43727e-06
8.36262e-08
4.35525e-06
1.15694e-07
4.28413e-06
9.95597e-08
4.20456e-06
1.04293e-07
4.13771e-06
9.68961e-08
4.06348e-06
8.56504e-08
4.06163e-06
3.57509e-08
-1.7431e-06
4.63047e-06
1.24281e-05
9.47325e-06
1.10057e-05
6.0616e-06
9.97545e-06
2.81345e-06
9.20428e-06
1.66567e-06
8.61972e-06
1.14022e-06
8.18133e-06
8.59847e-07
7.86265e-06
6.12042e-07
7.58836e-06
5.19667e-07
7.3684e-06
4.30453e-07
7.21831e-06
2.76405e-07
7.05785e-06
2.88301e-07
6.93253e-06
2.64139e-07
6.82104e-06
1.95117e-07
6.70531e-06
2.31423e-07
6.60371e-06
2.01161e-07
6.47722e-06
2.30779e-07
6.39695e-06
1.77174e-07
6.25328e-06
2.29315e-07
6.29481e-06
-5.77741e-09
-1.92234e-06
6.47406e-06
1.34172e-05
8.55602e-06
1.28917e-05
6.58714e-06
1.23204e-05
3.38478e-06
1.17197e-05
2.26636e-06
1.11333e-05
1.72663e-06
1.06493e-05
1.34378e-06
1.02803e-05
9.8111e-07
9.95155e-06
8.48375e-07
9.68322e-06
6.98788e-07
9.49933e-06
4.60286e-07
9.28978e-06
4.97855e-07
9.14251e-06
4.11407e-07
8.99788e-06
3.39751e-07
8.85385e-06
3.75455e-07
8.73832e-06
3.16693e-07
8.56742e-06
4.01675e-07
8.49013e-06
2.54462e-07
8.29489e-06
4.24553e-07
8.31477e-06
-2.56537e-08
-2.07653e-06
8.46895e-06
1.35979e-05
7.45811e-06
1.36654e-05
6.51969e-06
1.36165e-05
3.43368e-06
1.34055e-05
2.47731e-06
1.30167e-05
2.11546e-06
1.26162e-05
1.74423e-06
1.22803e-05
1.31707e-06
1.19581e-05
1.17058e-06
1.16766e-05
9.80224e-07
1.14917e-05
6.4522e-07
1.12566e-05
7.32942e-07
1.11013e-05
5.667e-07
1.09428e-05
4.98275e-07
1.07767e-05
5.41558e-07
1.06691e-05
4.24285e-07
1.04594e-05
6.11369e-07
1.03838e-05
3.30078e-07
1.02131e-05
5.95246e-07
1.00905e-05
9.6966e-08
-2.1676e-06
1.01816e-05
1.34931e-05
6.46503e-06
1.3763e-05
6.24973e-06
1.39895e-05
3.20721e-06
1.41485e-05
2.31828e-06
1.40768e-05
2.18721e-06
1.38927e-05
1.92834e-06
1.36986e-05
1.5111e-06
1.34749e-05
1.39431e-06
1.32388e-05
1.21634e-06
1.30988e-05
7.85248e-07
1.2879e-05
9.52742e-07
1.27363e-05
7.09408e-07
1.25925e-05
6.42059e-07
1.24167e-05
7.17312e-07
1.23422e-05
4.98786e-07
1.21147e-05
8.38882e-07
1.20131e-05
4.31639e-07
1.19567e-05
6.51684e-07
1.17174e-05
3.3627e-07
-1.61223e-06
1.1162e-05
1.33739e-05
5.59112e-06
1.37127e-05
5.91092e-06
1.39281e-05
2.99185e-06
1.42219e-05
2.02451e-06
1.43755e-05
2.03359e-06
1.44097e-05
1.8941e-06
1.43961e-05
1.5247e-06
1.43501e-05
1.4403e-06
1.42298e-05
1.33667e-06
1.41884e-05
8.26664e-07
1.40468e-05
1.09428e-06
1.39534e-05
8.02842e-07
1.38598e-05
7.35683e-07
1.36988e-05
8.78264e-07
1.36841e-05
5.13488e-07
1.34759e-05
1.04707e-06
1.33324e-05
5.75228e-07
1.33966e-05
5.87395e-07
1.32651e-05
4.67798e-07
-9.09245e-07
1.25621e-05
1.32728e-05
4.81829e-06
1.37196e-05
5.46418e-06
1.38199e-05
2.89156e-06
1.40919e-05
1.75246e-06
1.43098e-05
1.81572e-06
1.44532e-05
1.75072e-06
1.45228e-05
1.45505e-06
1.46175e-05
1.34562e-06
1.46171e-05
1.33701e-06
1.46747e-05
7.69121e-07
1.46522e-05
1.11673e-06
1.46494e-05
8.05713e-07
1.46357e-05
7.49388e-07
1.4525e-05
9.88941e-07
1.46039e-05
4.34613e-07
1.44529e-05
1.19799e-06
1.43002e-05
7.27925e-07
1.44625e-05
4.25128e-07
1.43936e-05
5.36698e-07
6.82166e-07
1.28022e-05
1.31762e-05
4.14214e-06
1.36669e-05
4.97344e-06
1.37568e-05
2.80165e-06
1.39849e-05
1.52442e-06
1.41834e-05
1.61716e-06
1.43626e-05
1.57154e-06
1.44412e-05
1.37641e-06
1.45819e-05
1.20499e-06
1.46569e-05
1.26193e-06
1.47431e-05
6.82942e-07
1.47904e-05
1.06944e-06
1.48733e-05
7.2279e-07
1.49022e-05
7.20553e-07
1.4852e-05
1.03914e-06
1.5032e-05
2.54577e-07
1.49554e-05
1.27465e-06
1.48396e-05
8.43718e-07
1.51021e-05
1.62561e-07
1.52009e-05
4.37911e-07
1.09637e-06
1.47867e-05
1.30952e-05
3.54691e-06
1.35958e-05
4.47283e-06
1.37041e-05
2.69342e-06
1.39085e-05
1.31997e-06
1.40868e-05
1.43891e-06
1.42688e-05
1.38955e-06
1.43519e-05
1.29324e-06
1.44655e-05
1.09146e-06
1.4597e-05
1.13037e-06
1.4667e-05
6.12925e-07
1.47574e-05
9.79025e-07
1.48988e-05
5.81459e-07
1.4885e-05
7.34299e-07
1.48955e-05
1.0287e-06
1.50865e-05
6.35271e-08
1.5016e-05
1.34512e-06
1.50315e-05
8.28212e-07
1.53414e-05
-1.47303e-07
1.53945e-05
3.84827e-07
1.14939e-06
1.53415e-05
1.30295e-05
3.01743e-06
1.35185e-05
3.98377e-06
1.36521e-05
2.55981e-06
1.38486e-05
1.12347e-06
1.40074e-05
1.28014e-06
1.41831e-05
1.21382e-06
1.42923e-05
1.18406e-06
1.43849e-05
9.98881e-07
1.45204e-05
9.94848e-07
1.45505e-05
5.82865e-07
1.47138e-05
8.15722e-07
1.48356e-05
4.59658e-07
1.48256e-05
7.44263e-07
1.49255e-05
9.28853e-07
1.49456e-05
4.34413e-08
1.49389e-05
1.35178e-06
1.51179e-05
6.4917e-07
1.52567e-05
-2.86062e-07
1.52448e-05
3.96731e-07
8.57222e-07
1.5537e-05
1.29658e-05
2.55164e-06
1.34453e-05
3.50423e-06
1.36258e-05
2.37935e-06
1.38073e-05
9.41927e-07
1.39255e-05
1.16202e-06
1.40946e-05
1.04468e-06
1.42533e-05
1.02533e-06
1.43607e-05
8.91549e-07
1.44517e-05
9.03756e-07
1.44815e-05
5.53088e-07
1.46333e-05
6.63924e-07
1.46864e-05
4.06549e-07
1.48275e-05
6.03243e-07
1.49014e-05
8.54914e-07
1.48009e-05
1.43922e-07
1.49896e-05
1.16311e-06
1.50932e-05
5.45534e-07
1.50694e-05
-2.62252e-07
1.51269e-05
3.39274e-07
6.05382e-07
1.53787e-05
1.29167e-05
2.13492e-06
1.33887e-05
3.03222e-06
1.36111e-05
2.15697e-06
1.37593e-05
7.9373e-07
1.38825e-05
1.03887e-06
1.40338e-05
8.93381e-07
1.41971e-05
8.61953e-07
1.43333e-05
7.55352e-07
1.44026e-05
8.34453e-07
1.44596e-05
4.96136e-07
1.45305e-05
5.93054e-07
1.45787e-05
3.58351e-07
1.48166e-05
3.65305e-07
1.48272e-05
8.44331e-07
1.47866e-05
1.8449e-07
1.49936e-05
9.56101e-07
1.4972e-05
5.67149e-07
1.49911e-05
-2.81351e-07
1.51087e-05
2.21641e-07
5.62495e-07
1.51516e-05
1.28819e-05
1.75298e-06
1.33341e-05
2.58008e-06
1.3597e-05
1.89406e-06
1.37257e-05
6.65041e-07
1.38729e-05
8.9164e-07
1.3984e-05
7.82299e-07
1.41328e-05
7.13166e-07
1.42784e-05
6.09765e-07
1.43788e-05
7.33987e-07
1.44444e-05
4.30558e-07
1.44645e-05
5.72959e-07
1.45339e-05
2.88954e-07
1.47254e-05
1.7385e-07
1.47763e-05
7.93338e-07
1.48124e-05
1.4841e-07
1.48902e-05
8.78296e-07
1.48987e-05
5.58638e-07
1.49985e-05
-3.81064e-07
1.51012e-05
1.18854e-07
5.16007e-07
1.51477e-05
1.28385e-05
1.41445e-06
1.32811e-05
2.13754e-06
1.3573e-05
1.60209e-06
1.37202e-05
5.17919e-07
1.38479e-05
7.6387e-07
1.39282e-05
7.01987e-07
1.40929e-05
5.48466e-07
1.42234e-05
4.79308e-07
1.43658e-05
5.91607e-07
1.44206e-05
3.75752e-07
1.44372e-05
5.56312e-07
1.4497e-05
2.29149e-07
1.46106e-05
6.02887e-08
1.47542e-05
6.49736e-07
1.47881e-05
1.14506e-07
1.48291e-05
8.37289e-07
1.48854e-05
5.02322e-07
1.50127e-05
-5.08355e-07
1.50305e-05
1.01095e-07
4.18646e-07
1.51278e-05
1.28014e-05
1.11302e-06
1.32574e-05
1.68155e-06
1.35619e-05
1.2976e-06
1.36978e-05
3.82042e-07
1.38105e-05
6.51171e-07
1.39038e-05
6.0864e-07
1.40703e-05
3.81977e-07
1.41824e-05
3.67205e-07
1.433e-05
4.44064e-07
1.4386e-05
3.1969e-07
1.44379e-05
5.04413e-07
1.44525e-05
2.14598e-07
1.45592e-05
-4.64075e-08
1.47413e-05
4.67622e-07
1.47164e-05
1.3945e-07
1.48125e-05
7.41143e-07
1.49213e-05
3.93526e-07
1.49462e-05
-5.33228e-07
1.49583e-05
8.89919e-08
1.42703e-07
1.52342e-05
1.27879e-05
8.25087e-07
1.32413e-05
1.22817e-06
1.35347e-05
1.00417e-06
1.36716e-05
2.45168e-07
1.37792e-05
5.43587e-07
1.39025e-05
4.853e-07
1.40544e-05
2.30102e-07
1.41412e-05
2.80425e-07
1.42878e-05
2.97447e-07
1.43656e-05
2.41933e-07
1.44371e-05
4.3288e-07
1.44258e-05
2.25875e-07
1.45685e-05
-1.89058e-07
1.46688e-05
3.67305e-07
1.46649e-05
1.43381e-07
1.48139e-05
5.92118e-07
1.4951e-05
2.56382e-07
1.48203e-05
-4.02453e-07
1.47234e-05
1.85843e-07
9.41857e-07
1.39243e-05
1.27755e-05
5.4955e-07
1.32183e-05
7.85387e-07
1.35196e-05
7.02905e-07
1.36643e-05
1.00472e-07
1.37487e-05
4.5919e-07
1.38999e-05
3.34115e-07
1.40425e-05
8.74945e-08
1.41085e-05
2.14426e-07
1.42612e-05
1.44708e-07
1.43586e-05
1.44504e-07
1.4402e-05
3.89534e-07
1.44514e-05
1.76497e-07
1.45405e-05
-2.7824e-07
1.45986e-05
3.09291e-07
1.46495e-05
9.24658e-08
1.4856e-05
3.85587e-07
1.4868e-05
2.44389e-07
1.48367e-05
-3.71152e-07
1.49747e-05
4.78607e-08
4.44261e-07
1.54723e-05
1.27661e-05
2.83408e-07
1.32061e-05
3.45451e-07
1.35205e-05
3.88514e-07
1.36477e-05
-2.67671e-08
1.37284e-05
3.785e-07
1.39022e-05
1.60326e-07
1.40241e-05
-3.4467e-08
1.40899e-05
1.4868e-07
1.42521e-05
-1.75116e-08
1.43182e-05
7.84387e-08
1.43952e-05
3.1252e-07
1.44814e-05
9.02883e-08
1.45011e-05
-2.97913e-07
1.45683e-05
2.42055e-07
1.46825e-05
-2.17496e-08
1.48058e-05
2.62359e-07
1.48308e-05
2.19333e-07
1.48808e-05
-4.21142e-07
1.49716e-05
-4.29287e-08
8.53729e-08
1.53305e-05
1.2767e-05
1.64138e-08
1.32005e-05
-8.8064e-08
1.351e-05
7.90296e-08
1.36264e-05
-1.43191e-07
1.37341e-05
2.7084e-07
1.3903e-05
-8.60439e-09
1.39945e-05
-1.25956e-07
1.40989e-05
4.42357e-08
1.42403e-05
-1.58918e-07
1.42852e-05
3.36157e-08
1.44199e-05
1.77786e-07
1.4487e-05
2.32289e-08
1.44663e-05
-2.77235e-07
1.45929e-05
1.15482e-07
1.4668e-05
-9.68555e-08
1.47501e-05
1.80228e-07
1.48463e-05
1.23163e-07
1.4897e-05
-4.71868e-07
1.49787e-05
-1.24603e-07
-1.85651e-07
1.52497e-05
1.27685e-05
-2.52133e-07
1.31923e-05
-5.11773e-07
1.34978e-05
-2.26502e-07
1.36311e-05
-2.76474e-07
1.37553e-05
1.46603e-07
1.38803e-05
-1.33551e-07
1.3979e-05
-2.24747e-07
1.4126e-05
-1.02705e-07
1.42259e-05
-2.58789e-07
1.42941e-05
-3.46652e-08
1.44317e-05
4.02604e-08
1.44666e-05
-1.17252e-08
1.44708e-05
-2.81442e-07
1.46076e-05
-2.13233e-08
1.46418e-05
-1.31042e-07
1.47611e-05
6.09468e-08
1.4852e-05
3.22946e-08
1.48866e-05
-5.06463e-07
1.50227e-05
-2.60697e-07
-5.03112e-07
1.53401e-05
1.27693e-05
-5.21438e-07
1.31998e-05
-9.42312e-07
1.35074e-05
-5.34071e-07
1.36432e-05
-4.12247e-07
1.37555e-05
3.42757e-08
1.38566e-05
-2.34626e-07
1.4004e-05
-3.72154e-07
1.41491e-05
-2.47845e-07
1.42241e-05
-3.33757e-07
1.4313e-05
-1.23571e-07
1.44273e-05
-7.40582e-08
1.4454e-05
-3.83569e-08
1.45117e-05
-3.39202e-07
1.45895e-05
-9.90876e-08
1.46737e-05
-2.15266e-07
1.47528e-05
-1.81599e-08
1.48859e-05
-1.00757e-07
1.48341e-05
-4.54663e-07
1.48046e-05
-2.31248e-07
5.13116e-07
1.37884e-05
1.27836e-05
-8.05071e-07
1.3226e-05
-1.38466e-06
1.3519e-05
-8.27071e-07
1.36419e-05
-5.35162e-07
1.37441e-05
-6.79354e-08
1.38742e-05
-3.64707e-07
1.40422e-05
-5.40153e-07
1.41633e-05
-3.68991e-07
1.42299e-05
-4.00311e-07
1.4329e-05
-2.22689e-07
1.44151e-05
-1.60185e-07
1.44937e-05
-1.16915e-07
1.45162e-05
-3.61733e-07
1.46178e-05
-2.00683e-07
1.4671e-05
-2.6847e-07
1.47767e-05
-1.2379e-07
1.48563e-05
-1.8036e-07
1.49153e-05
-5.13735e-07
1.50164e-05
-3.32273e-07
2.55397e-07
1.52741e-05
1.28115e-05
-1.11656e-06
1.32451e-05
-1.81824e-06
1.3522e-05
-1.10397e-06
1.36429e-05
-6.56144e-07
1.37625e-05
-1.87454e-07
1.39183e-05
-5.20557e-07
1.40606e-05
-6.82458e-07
1.4169e-05
-4.77367e-07
1.4251e-05
-4.82365e-07
1.43395e-05
-3.11116e-07
1.44352e-05
-2.5588e-07
1.45221e-05
-2.03859e-07
1.45347e-05
-3.74328e-07
1.4634e-05
-2.99982e-07
1.46901e-05
-3.24601e-07
1.4781e-05
-2.14702e-07
1.48775e-05
-2.76798e-07
1.49585e-05
-5.94797e-07
1.5013e-05
-3.86769e-07
3.50067e-08
1.52334e-05
1.28339e-05
-1.45048e-06
1.32602e-05
-2.24453e-06
1.35445e-05
-1.38827e-06
1.36639e-05
-7.75497e-07
1.37979e-05
-3.21436e-07
1.39508e-05
-6.7354e-07
1.40661e-05
-7.97727e-07
1.41932e-05
-6.04446e-07
1.42769e-05
-5.66061e-07
1.43701e-05
-4.04327e-07
1.4463e-05
-3.48833e-07
1.45435e-05
-2.84281e-07
1.45589e-05
-3.89799e-07
1.46666e-05
-4.07686e-07
1.4703e-05
-3.60983e-07
1.48053e-05
-3.17015e-07
1.49096e-05
-3.81105e-07
1.49896e-05
-6.74774e-07
1.50282e-05
-4.25301e-07
-2.46559e-07
1.53097e-05
1.28527e-05
-1.80316e-06
1.32945e-05
-2.68633e-06
1.3589e-05
-1.68281e-06
1.36901e-05
-8.76605e-07
1.38235e-05
-4.54815e-07
1.39709e-05
-8.20928e-07
1.4096e-05
-9.22857e-07
1.42307e-05
-7.39143e-07
1.43106e-05
-6.45973e-07
1.44118e-05
-5.05515e-07
1.44931e-05
-4.30106e-07
1.45629e-05
-3.54095e-07
1.45999e-05
-4.26783e-07
1.46924e-05
-5.00152e-07
1.4736e-05
-4.04625e-07
1.48402e-05
-4.21185e-07
1.49492e-05
-4.90086e-07
1.50042e-05
-7.29866e-07
1.51119e-05
-5.32965e-07
-6.20296e-07
1.54856e-05
1.28854e-05
-2.1886e-06
1.33501e-05
-3.15096e-06
1.36225e-05
-1.95522e-06
1.37075e-05
-9.6159e-07
1.38507e-05
-5.98081e-07
1.40114e-05
-9.81631e-07
1.41481e-05
-1.0595e-06
1.42695e-05
-8.60611e-07
1.43546e-05
-7.30985e-07
1.44505e-05
-6.01451e-07
1.45245e-05
-5.04154e-07
1.45927e-05
-4.22297e-07
1.4649e-05
-4.83057e-07
1.47182e-05
-5.69355e-07
1.4794e-05
-4.80454e-07
1.48793e-05
-5.06423e-07
1.50162e-05
-6.27001e-07
1.50002e-05
-7.13875e-07
1.49776e-05
-5.10324e-07
3.3266e-07
1.40246e-05
1.29369e-05
-2.62553e-06
1.34056e-05
-3.61966e-06
1.36065e-05
-2.15605e-06
1.37308e-05
-1.08595e-06
1.38997e-05
-7.66936e-07
1.40737e-05
-1.15563e-06
1.42013e-05
-1.18712e-06
1.43187e-05
-9.78048e-07
1.43986e-05
-8.10849e-07
1.44898e-05
-6.92671e-07
1.45578e-05
-5.72164e-07
1.46452e-05
-5.09642e-07
1.46843e-05
-5.22184e-07
1.47894e-05
-6.74464e-07
1.48387e-05
-5.29784e-07
1.495e-05
-6.17723e-07
1.50211e-05
-6.98106e-07
1.51025e-05
-7.95235e-07
1.5212e-05
-6.19809e-07
1.37513e-08
1.55309e-05
1.29992e-05
-3.1247e-06
1.34553e-05
-4.07583e-06
1.36e-05
-2.30074e-06
1.37667e-05
-1.25263e-06
1.39659e-05
-9.66158e-07
1.41385e-05
-1.32823e-06
1.42619e-05
-1.31051e-06
1.43697e-05
-1.08581e-06
1.44444e-05
-8.8561e-07
1.45271e-05
-7.75303e-07
1.46118e-05
-6.5685e-07
1.46922e-05
-5.90067e-07
1.47486e-05
-5.78568e-07
1.48566e-05
-7.82475e-07
1.49e-05
-5.7322e-07
1.49966e-05
-7.14336e-07
1.50476e-05
-7.49056e-07
1.51598e-05
-9.07463e-07
1.52086e-05
-6.68614e-07
-3.3236e-07
1.55547e-05
1.30635e-05
-3.68824e-06
1.34985e-05
-4.51079e-06
1.36169e-05
-2.41915e-06
1.38183e-05
-1.45401e-06
1.40466e-05
-1.19443e-06
1.42105e-05
-1.4922e-06
1.43315e-05
-1.43145e-06
1.44179e-05
-1.17221e-06
1.44909e-05
-9.58605e-07
1.45726e-05
-8.57038e-07
1.46756e-05
-7.59864e-07
1.47512e-05
-6.65638e-07
1.48307e-05
-6.58045e-07
1.4916e-05
-8.67851e-07
1.49672e-05
-6.2436e-07
1.50346e-05
-7.81697e-07
1.50929e-05
-8.07405e-07
1.51873e-05
-1.00185e-06
1.52782e-05
-7.59516e-07
-6.80064e-07
1.56259e-05
1.31197e-05
-4.30792e-06
1.35337e-05
-4.92484e-06
1.3657e-05
-2.54238e-06
1.39026e-05
-1.69965e-06
1.41425e-05
-1.4343e-06
1.42931e-05
-1.64286e-06
1.43978e-05
-1.53614e-06
1.44686e-05
-1.24304e-06
1.45495e-05
-1.03952e-06
1.46388e-05
-9.46339e-07
1.47522e-05
-8.73185e-07
1.48249e-05
-7.38385e-07
1.49066e-05
-7.39749e-07
1.497e-05
-9.31258e-07
1.50166e-05
-6.70973e-07
1.50659e-05
-8.30988e-07
1.51077e-05
-8.49146e-07
1.51867e-05
-1.08086e-06
1.52425e-05
-8.15366e-07
-1.01815e-06
1.55806e-05
1.31676e-05
-4.97554e-06
1.35837e-05
-5.34095e-06
1.3747e-05
-2.70564e-06
1.40104e-05
-1.96307e-06
1.42397e-05
-1.66359e-06
1.4376e-05
-1.77916e-06
1.44645e-05
-1.62461e-06
1.45376e-05
-1.3162e-06
1.46261e-05
-1.12795e-06
1.47141e-05
-1.03435e-06
1.48048e-05
-9.63944e-07
1.48565e-05
-7.90092e-07
1.49137e-05
-7.96941e-07
1.49293e-05
-9.46785e-07
1.49528e-05
-6.94532e-07
1.49508e-05
-8.28993e-07
1.49569e-05
-8.55185e-07
1.49332e-05
-1.05724e-06
1.49487e-05
-8.30767e-07
-1.36298e-06
1.52935e-05
1.32304e-05
-5.70598e-06
1.3663e-05
-5.7735e-06
1.38627e-05
-2.90537e-06
1.41139e-05
-2.2142e-06
1.43409e-05
-1.89061e-06
1.44563e-05
-1.89454e-06
1.45206e-05
-1.68898e-06
1.45775e-05
-1.37301e-06
1.46262e-05
-1.17672e-06
1.46552e-05
-1.06334e-06
1.46648e-05
-9.73556e-07
1.46536e-05
-7.78852e-07
1.4635e-05
-7.78353e-07
1.45703e-05
-8.82041e-07
1.45319e-05
-6.56161e-07
1.44595e-05
-7.56582e-07
1.43957e-05
-7.914e-07
1.42741e-05
-9.35623e-07
1.41607e-05
-7.17417e-07
-6.68181e-07
1.34659e-05
1.33284e-05
-6.53439e-06
1.36965e-05
-6.1416e-06
1.39759e-05
-3.1848e-06
1.42152e-05
-2.45348e-06
1.43956e-05
-2.07097e-06
1.44178e-05
-1.91678e-06
1.43824e-05
-1.65361e-06
1.43311e-05
-1.3217e-06
1.42553e-05
-1.10094e-06
1.41644e-05
-9.72457e-07
1.4058e-05
-8.67073e-07
1.39598e-05
-6.80723e-07
1.38548e-05
-6.73358e-07
1.37206e-05
-7.47788e-07
1.36247e-05
-5.60299e-07
1.35034e-05
-6.35259e-07
1.33804e-05
-6.68395e-07
1.32242e-05
-7.79457e-07
1.3137e-05
-6.30241e-07
-7.89761e-07
1.32586e-05
1.34611e-05
-7.49553e-06
1.37713e-05
-6.4518e-06
1.40179e-05
-3.43134e-06
1.41303e-05
-2.56588e-06
1.40937e-05
-2.03435e-06
1.3902e-05
-1.72515e-06
1.36792e-05
-1.43074e-06
1.34691e-05
-1.11165e-06
1.32634e-05
-8.95173e-07
1.30728e-05
-7.81883e-07
1.28896e-05
-6.83865e-07
1.27393e-05
-5.30414e-07
1.25886e-05
-5.22684e-07
1.2422e-05
-5.81228e-07
1.2299e-05
-4.3729e-07
1.21548e-05
-4.91051e-07
1.20086e-05
-5.22131e-07
1.18356e-05
-6.06489e-07
1.16922e-05
-4.86876e-07
-3.95209e-07
1.12977e-05
1.35792e-05
-8.57469e-06
1.36772e-05
-6.54988e-06
1.36302e-05
-3.38427e-06
1.33878e-05
-2.32356e-06
1.30293e-05
-1.67585e-06
1.2624e-05
-1.31982e-06
1.22605e-05
-1.06728e-06
1.19584e-05
-8.09478e-07
1.16964e-05
-6.33194e-07
1.1469e-05
-5.54503e-07
1.1264e-05
-4.78814e-07
1.11022e-05
-3.68679e-07
1.09413e-05
-3.61715e-07
1.07717e-05
-4.11635e-07
1.06437e-05
-3.09314e-07
1.04968e-05
-3.44198e-07
1.03479e-05
-3.7324e-07
1.01734e-05
-4.31909e-07
1.00496e-05
-3.63136e-07
-1.58151e-07
9.81257e-06
1.34064e-05
-9.48112e-06
1.29017e-05
-6.04515e-06
1.23269e-05
-2.80948e-06
1.17054e-05
-1.70207e-06
1.11422e-05
-1.11261e-06
1.06573e-05
-8.34921e-07
1.0263e-05
-6.72985e-07
9.95286e-06
-4.99346e-07
9.69906e-06
-3.79397e-07
9.4818e-06
-3.37247e-07
9.29213e-06
-2.89135e-07
9.14497e-06
-2.21519e-07
8.99785e-06
-2.146e-07
8.84447e-06
-2.5825e-07
8.72655e-06
-1.91395e-07
8.59312e-06
-2.10774e-07
8.45464e-06
-2.34759e-07
8.29887e-06
-2.76135e-07
8.17941e-06
-2.43672e-07
-4.904e-08
8.0703e-06
1.24227e-05
-9.40379e-06
1.10124e-05
-4.63492e-06
9.97965e-06
-1.77669e-06
9.19351e-06
-9.15933e-07
8.62472e-06
-5.4382e-07
8.19021e-06
-4.00413e-07
7.84798e-06
-3.3075e-07
7.5876e-06
-2.38973e-07
7.3826e-06
-1.74392e-07
7.20594e-06
-1.6059e-07
7.05462e-06
-1.37812e-07
6.93779e-06
-1.04692e-07
6.82141e-06
-9.82156e-08
6.69568e-06
-1.32523e-07
6.59881e-06
-9.45271e-08
6.49079e-06
-1.02755e-07
6.37443e-06
-1.18399e-07
6.24649e-06
-1.48192e-07
6.13455e-06
-1.31732e-07
1.49879e-08
6.07053e-06
1.01092e-05
-7.01301e-06
7.83486e-06
-2.36057e-06
6.71036e-06
-6.52183e-07
6.05563e-06
-2.61205e-07
5.64922e-06
-1.37403e-07
5.35178e-06
-1.02972e-07
5.11366e-06
-9.2633e-08
4.93844e-06
-6.37573e-08
4.80633e-06
-4.22791e-08
4.68859e-06
-4.28484e-08
4.58859e-06
-3.78091e-08
4.51188e-06
-2.79902e-08
4.43724e-06
-2.35692e-08
4.34643e-06
-4.17114e-08
4.27978e-06
-2.78801e-08
4.20576e-06
-2.87322e-08
4.1226e-06
-3.52395e-08
4.02615e-06
-5.17389e-08
3.93742e-06
-4.29981e-08
2.53122e-08
3.92709e-06
5.48699e-06
3.12643e-06
2.47424e-06
2.21304e-06
2.07564e-06
1.97266e-06
1.88003e-06
1.81627e-06
1.77399e-06
1.73115e-06
1.69334e-06
1.66535e-06
1.64178e-06
1.60007e-06
1.57219e-06
1.54345e-06
1.50821e-06
1.45648e-06
1.41348e-06
1.43879e-06
2.6807e-06
-2.07638e-06
2.04927e-06
2.34287e-06
-2.58061e-06
2.91844e-06
1.52776e-06
-3.31143e-06
4.12654e-06
5.16566e-07
-3.91866e-06
4.92986e-06
1.57353e-07
-3.65674e-06
4.01595e-06
2.33737e-07
-1.85376e-06
1.77738e-06
2.7475e-07
1.80863e-06
-1.84964e-06
7.40561e-07
4.89421e-06
-5.36002e-06
1.64336e-06
9.86567e-06
-1.07685e-05
3.26015e-06
1.15669e-05
-1.31837e-05
4.90253e-06
1.21161e-05
-1.37585e-05
5.91133e-06
8.87538e-06
-9.88418e-06
6.2866e-06
7.15142e-06
-7.52669e-06
5.92605e-06
5.91423e-06
-5.55369e-06
5.7174e-06
2.83404e-06
-2.62539e-06
7.12703e-06
4.45103e-06
-5.86066e-06
8.94483e-06
6.47067e-06
-8.28847e-06
1.0276e-05
3.64873e-06
-4.97993e-06
1.12847e-05
6.48303e-07
-1.65701e-06
1.23175e-05
-1.99451e-06
9.61734e-07
1.31207e-05
-5.03486e-06
4.23168e-06
1.34382e-05
-6.82261e-06
6.50508e-06
1.3571e-05
-9.52081e-06
9.38804e-06
1.39503e-05
-1.1947e-05
1.15677e-05
1.48061e-05
-1.39532e-05
1.30973e-05
1.56489e-05
-1.70573e-05
1.62145e-05
1.60992e-05
-1.86857e-05
1.82354e-05
1.62701e-05
-1.9389e-05
1.92181e-05
1.60595e-05
-2.02825e-05
2.0493e-05
1.56837e-05
-2.00044e-05
2.03803e-05
1.53693e-05
-1.99743e-05
2.02887e-05
1.48746e-05
-2.00625e-05
2.05572e-05
1.43593e-05
-1.91462e-05
1.96614e-05
1.40958e-05
-1.92809e-05
1.95445e-05
1.37644e-05
-1.96116e-05
1.99429e-05
1.33192e-05
-1.8702e-05
1.91472e-05
1.30901e-05
-1.87223e-05
1.89514e-05
1.28461e-05
-1.93686e-05
1.96126e-05
1.24541e-05
-1.896e-05
1.9352e-05
1.22238e-05
-1.85587e-05
1.8789e-05
1.23725e-05
-1.92801e-05
1.91314e-05
1.26175e-05
-2.04113e-05
2.01663e-05
1.26487e-05
-2.08363e-05
2.08051e-05
1.24901e-05
-2.04353e-05
2.05939e-05
1.23762e-05
-1.95344e-05
1.96483e-05
1.2539e-05
-1.89496e-05
1.87869e-05
1.30458e-05
-1.89203e-05
1.84134e-05
1.37008e-05
-1.87386e-05
1.80837e-05
1.41737e-05
-1.77646e-05
1.72917e-05
1.43587e-05
-1.54056e-05
1.52206e-05
1.4437e-05
-1.21713e-05
1.20931e-05
1.45207e-05
-9.28753e-06
9.20382e-06
1.45303e-05
-6.14666e-06
6.13705e-06
1.4427e-05
-1.99392e-06
2.0973e-06
1.42315e-05
1.44832e-06
-1.25284e-06
1.40148e-05
4.64795e-06
-4.4313e-06
1.35825e-05
8.63625e-06
-8.2039e-06
1.28992e-05
1.11472e-05
-1.0464e-05
1.21821e-05
1.21519e-05
-1.14348e-05
1.15843e-05
1.31093e-05
-1.25115e-05
1.11405e-05
1.47211e-05
-1.42773e-05
1.06439e-05
1.52747e-05
-1.47781e-05
1.0074e-05
1.51564e-05
-1.45865e-05
9.54359e-06
1.50036e-05
-1.44732e-05
9.09329e-06
1.36298e-05
-1.31795e-05
8.70394e-06
1.24595e-05
-1.20701e-05
8.47794e-06
1.11816e-05
-1.09556e-05
8.20326e-06
1.06146e-05
-1.03399e-05
8.01989e-06
1.10108e-05
-1.08274e-05
8.04595e-06
9.86161e-06
-9.88768e-06
8.02714e-06
9.2943e-06
-9.27548e-06
8.26084e-06
8.04322e-06
-8.27692e-06
8.45169e-06
5.74876e-06
-5.93962e-06
8.59983e-06
5.64734e-06
-5.79548e-06
8.73297e-06
7.91345e-06
-8.0466e-06
8.90659e-06
1.13557e-05
-1.15293e-05
8.94463e-06
1.45246e-05
-1.45627e-05
9.02445e-06
1.69187e-05
-1.69985e-05
9.33161e-06
1.93602e-05
-1.96673e-05
9.69111e-06
2.16969e-05
-2.20564e-05
9.9007e-06
2.33345e-05
-2.35441e-05
1.00097e-05
2.42489e-05
-2.43579e-05
1.00926e-05
2.38355e-05
-2.39184e-05
1.00803e-05
2.23799e-05
-2.23675e-05
1.00011e-05
2.01032e-05
-2.0024e-05
9.97686e-06
1.67235e-05
-1.66992e-05
1.02003e-05
1.38197e-05
-1.40432e-05
1.06376e-05
1.31804e-05
-1.36177e-05
1.11538e-05
1.28005e-05
-1.33167e-05
1.15257e-05
1.05143e-05
-1.08862e-05
1.15646e-05
7.1459e-06
-7.18473e-06
1.15312e-05
3.2127e-06
-3.17938e-06
1.15578e-05
-1.1058e-06
1.07921e-06
1.14817e-05
-5.41145e-06
5.4876e-06
1.13693e-05
-9.48161e-06
9.59395e-06
1.12608e-05
-1.2488e-05
1.25966e-05
1.10639e-05
-1.55601e-05
1.57571e-05
1.08464e-05
-1.92774e-05
1.94949e-05
1.05994e-05
-2.21278e-05
2.23748e-05
1.02448e-05
-2.37535e-05
2.4108e-05
9.81379e-06
-2.572e-05
2.6151e-05
9.39603e-06
-2.70712e-05
2.7489e-05
8.98251e-06
-2.59405e-05
2.6354e-05
8.59421e-06
-2.28694e-05
2.32577e-05
8.31215e-06
-2.09431e-05
2.12251e-05
8.1126e-06
-1.96195e-05
1.98191e-05
7.99733e-06
-1.91186e-05
1.92339e-05
7.76432e-06
-1.84654e-05
1.86984e-05
7.64162e-06
-1.85989e-05
1.87216e-05
7.48431e-06
-1.83433e-05
1.85006e-05
7.29009e-06
-2.13423e-05
2.15365e-05
7.27961e-06
-2.42393e-05
2.42498e-05
7.43819e-06
-2.49019e-05
2.47433e-05
7.51354e-06
-2.3967e-05
2.38916e-05
7.41915e-06
-2.21709e-05
2.22653e-05
7.36592e-06
-1.99919e-05
2.00452e-05
7.70423e-06
-1.71322e-05
1.67939e-05
8.22864e-06
-1.2455e-05
1.19306e-05
8.56948e-06
-7.20359e-06
6.86275e-06
8.84677e-06
-2.75191e-06
2.47462e-06
9.07985e-06
2.36107e-06
-2.59416e-06
9.21786e-06
8.18157e-06
-8.31958e-06
9.25281e-06
1.25627e-05
-1.25977e-05
9.12963e-06
1.67906e-05
-1.66674e-05
8.9685e-06
2.16692e-05
-2.15081e-05
8.77406e-06
2.48522e-05
-2.46578e-05
8.47713e-06
2.67733e-05
-2.64763e-05
8.18422e-06
2.79302e-05
-2.76372e-05
7.82507e-06
2.9285e-05
-2.89258e-05
7.38815e-06
2.99452e-05
-2.95083e-05
6.81028e-06
2.68894e-05
-2.63115e-05
6.17409e-06
1.97419e-05
-1.91057e-05
5.8717e-06
1.19692e-05
-1.16668e-05
5.83291e-06
9.18775e-06
-9.14896e-06
6.40959e-06
1.09114e-05
-1.1488e-05
6.83589e-06
1.60297e-05
-1.6456e-05
7.48846e-06
1.8311e-05
-1.89636e-05
7.78568e-06
2.2177e-05
-2.24743e-05
8.14795e-06
2.06386e-05
-2.10009e-05
8.93433e-06
1.92161e-05
-2.00025e-05
9.19081e-06
1.74156e-05
-1.76721e-05
9.60249e-06
1.6579e-05
-1.69907e-05
1.0274e-05
1.64997e-05
-1.71713e-05
1.05617e-05
1.66534e-05
-1.69411e-05
1.04037e-05
1.60438e-05
-1.58859e-05
1.01904e-05
1.47435e-05
-1.45302e-05
1.00606e-05
1.19982e-05
-1.18684e-05
1.01187e-05
8.69338e-06
-8.75141e-06
9.96844e-06
6.17446e-06
-6.02423e-06
9.64439e-06
3.53559e-06
-3.21155e-06
9.26471e-06
2.77631e-07
1.02053e-07
8.83312e-06
-4.32902e-06
4.7606e-06
8.7154e-06
-7.38214e-06
7.49987e-06
8.75442e-06
-9.12751e-06
9.08849e-06
8.73126e-06
-1.15181e-05
1.15413e-05
8.95263e-06
-1.36847e-05
1.34633e-05
8.89684e-06
-1.68723e-05
1.6928e-05
9.28122e-06
-1.88842e-05
1.84998e-05
9.44343e-06
-2.0786e-05
2.06238e-05
9.88131e-06
-2.30655e-05
2.26276e-05
1.0513e-05
-2.50231e-05
2.43914e-05
1.071e-05
-2.49329e-05
2.47359e-05
1.11969e-05
-2.38671e-05
2.33802e-05
1.16232e-05
-2.33855e-05
2.29592e-05
1.17023e-05
-2.07629e-05
2.06838e-05
1.15564e-05
-1.72735e-05
1.74194e-05
1.18023e-05
-1.59072e-05
1.56613e-05
1.16469e-05
-1.41154e-05
1.42707e-05
1.10996e-05
-1.22019e-05
1.27493e-05
1.06266e-05
-8.55993e-06
9.03294e-06
1.04268e-05
-7.38823e-06
7.58796e-06
1.03853e-05
-6.90343e-06
6.94498e-06
1.01499e-05
-4.29566e-06
4.53101e-06
9.98595e-06
-5.23513e-06
5.39912e-06
1.04325e-05
-8.72741e-06
8.28087e-06
1.12958e-05
-8.38816e-06
7.52491e-06
1.21294e-05
-6.11237e-06
5.27868e-06
1.27423e-05
-6.24469e-06
5.63182e-06
1.29828e-05
-7.38411e-06
7.14361e-06
1.27929e-05
-6.22934e-06
6.41929e-06
1.24752e-05
-2.38408e-06
2.70174e-06
1.22425e-05
2.31229e-06
-2.07959e-06
1.19084e-05
5.99963e-06
-5.66549e-06
1.1434e-05
8.35318e-06
-7.87881e-06
1.10744e-05
9.81754e-06
-9.45793e-06
1.07956e-05
1.17138e-05
-1.1435e-05
1.05122e-05
1.43014e-05
-1.4018e-05
1.02035e-05
1.50952e-05
-1.47865e-05
9.77573e-06
1.57241e-05
-1.52963e-05
9.35207e-06
1.71286e-05
-1.6705e-05
9.12939e-06
1.76845e-05
-1.74618e-05
9.06465e-06
1.8734e-05
-1.86693e-05
8.92317e-06
2.18963e-05
-2.17548e-05
8.66635e-06
2.38831e-05
-2.36263e-05
8.37346e-06
2.46121e-05
-2.43192e-05
8.04754e-06
2.73867e-05
-2.70608e-05
7.34135e-06
3.03427e-05
-2.96365e-05
6.33638e-06
3.08767e-05
-2.98717e-05
5.94846e-06
3.499e-05
-3.46021e-05
4.72812e-05
-4.70882e-05
5.75553e-06
4.45217e-06
-1.89809e-06
4.04648e-06
-2.17493e-06
3.46523e-06
-2.73018e-06
2.62252e-06
-3.07595e-06
1.74306e-06
-2.77729e-06
1.44646e-06
-1.55716e-06
1.94728e-06
1.30782e-06
2.52457e-06
4.31691e-06
3.48409e-06
8.90615e-06
4.88606e-06
1.01649e-05
6.14691e-06
1.08553e-05
6.8623e-06
8.15999e-06
7.21435e-06
6.79936e-06
7.23646e-06
5.89213e-06
7.0126e-06
3.0579e-06
7.79303e-06
3.6706e-06
9.4096e-06
4.8541e-06
1.08776e-05
2.18073e-06
1.20952e-05
-5.69258e-07
1.31443e-05
-3.04368e-06
1.36791e-05
-5.56961e-06
1.39016e-05
-7.04515e-06
1.42284e-05
-9.84756e-06
1.5021e-05
-1.27397e-05
1.60479e-05
-1.49801e-05
1.65591e-05
-1.75685e-05
1.66132e-05
-1.87398e-05
1.65609e-05
-1.93366e-05
1.61949e-05
-1.99165e-05
1.57154e-05
-1.9525e-05
1.53312e-05
-1.95901e-05
1.48161e-05
-1.95473e-05
1.43893e-05
-1.87194e-05
1.41475e-05
-1.90392e-05
1.37519e-05
-1.92159e-05
1.3299e-05
-1.82491e-05
1.30802e-05
-1.85035e-05
1.27889e-05
-1.90773e-05
1.23708e-05
-1.85418e-05
1.22241e-05
-1.8412e-05
1.24205e-05
-1.94766e-05
1.25594e-05
-2.05501e-05
1.24407e-05
-2.07176e-05
1.2196e-05
-2.01905e-05
1.21073e-05
-1.94457e-05
1.23732e-05
-1.92155e-05
1.29211e-05
-1.94682e-05
1.35109e-05
-1.93285e-05
1.38606e-05
-1.81143e-05
1.39312e-05
-1.54762e-05
1.39673e-05
-1.22075e-05
1.40503e-05
-9.37053e-06
1.40345e-05
-6.13086e-06
1.38942e-05
-1.85353e-06
1.37037e-05
1.63873e-06
1.35285e-05
4.82321e-06
1.31882e-05
8.97651e-06
1.25986e-05
1.17368e-05
1.19013e-05
1.28493e-05
1.12634e-05
1.37472e-05
1.08091e-05
1.51754e-05
1.03475e-05
1.57362e-05
9.82176e-06
1.56822e-05
9.32042e-06
1.5505e-05
8.89956e-06
1.40507e-05
8.54143e-06
1.28176e-05
8.32545e-06
1.13976e-05
8.01142e-06
1.09286e-05
7.88375e-06
1.11385e-05
7.94255e-06
9.80281e-06
7.93434e-06
9.30251e-06
8.2251e-06
7.75246e-06
8.45418e-06
5.51968e-06
8.59206e-06
5.50946e-06
8.73295e-06
7.77255e-06
8.92261e-06
1.11661e-05
9.00616e-06
1.44411e-05
9.0656e-06
1.68592e-05
9.37323e-06
1.90525e-05
9.89238e-06
2.11778e-05
1.03231e-05
2.29038e-05
1.061e-05
2.39621e-05
1.07816e-05
2.36639e-05
1.07935e-05
2.23679e-05
1.06725e-05
2.02243e-05
1.05637e-05
1.68322e-05
1.07152e-05
1.36682e-05
1.10992e-05
1.27964e-05
1.16517e-05
1.2248e-05
1.21336e-05
1.00324e-05
1.22059e-05
7.07364e-06
1.21361e-05
3.28247e-06
1.21264e-05
-1.09607e-06
1.20187e-05
-5.3038e-06
1.18933e-05
-9.35622e-06
1.18005e-05
-1.23952e-05
1.15971e-05
-1.53568e-05
1.13317e-05
-1.9012e-05
1.10232e-05
-2.18193e-05
1.06126e-05
-2.33428e-05
1.01136e-05
-2.5221e-05
9.63569e-06
-2.65933e-05
9.16611e-06
-2.54709e-05
8.72187e-06
-2.24252e-05
8.38062e-06
-2.06018e-05
8.15943e-06
-1.93983e-05
8.04793e-06