/*--------------------------------*- C++ -*----------------------------------*\
| =========                 |                                                 |
| \\      /  F ield         | OpenFOAM: The Open Source CFD Toolbox           |
|  \\    /   O peration     | Version:  2.4.0                                 |
|   \\  /    A nd           | Web:      www.OpenFOAM.org                      |
|    \\/     M anipulation  |                                                 |
\*---------------------------------------------------------------------------*/
FoamFile
{
    version     2.0;
    format      ascii;
    class       volScalarField;
    location    "0.281";
    object      pPrime2Mean;
}
// * * * * * * * * * * * * * * * * * * * * * * * * * * * * * * * * * * * * * //

dimensions      [0 4 -4 0 0 0 0];

internalField   nonuniform List<scalar> 
17600
(
2.29997e+06
2.24197e+06
2.17962e+06
2.11782e+06
2.0569e+06
1.99687e+06
1.93773e+06
1.87947e+06
1.8221e+06
1.76561e+06
1.71e+06
1.65526e+06
1.60138e+06
1.54831e+06
1.49602e+06
1.4444e+06
1.39325e+06
1.34216e+06
1.29022e+06
1.23432e+06
2.30002e+06
2.24197e+06
2.17961e+06
2.11782e+06
2.0569e+06
1.99687e+06
1.93773e+06
1.87947e+06
1.8221e+06
1.76561e+06
1.71e+06
1.65526e+06
1.60138e+06
1.54832e+06
1.49603e+06
1.44441e+06
1.39326e+06
1.34219e+06
1.29029e+06
1.23447e+06
2.30005e+06
2.24196e+06
2.17961e+06
2.11782e+06
2.0569e+06
1.99687e+06
1.93773e+06
1.87947e+06
1.8221e+06
1.76561e+06
1.71e+06
1.65526e+06
1.60138e+06
1.54832e+06
1.49604e+06
1.44442e+06
1.39329e+06
1.34225e+06
1.29042e+06
1.23504e+06
2.30008e+06
2.24196e+06
2.17961e+06
2.11782e+06
2.0569e+06
1.99687e+06
1.93773e+06
1.87947e+06
1.8221e+06
1.76562e+06
1.71001e+06
1.65527e+06
1.60138e+06
1.54833e+06
1.49605e+06
1.44444e+06
1.39333e+06
1.34233e+06
1.29063e+06
1.23584e+06
2.3001e+06
2.24195e+06
2.1796e+06
2.11781e+06
2.0569e+06
1.99687e+06
1.93773e+06
1.87947e+06
1.8221e+06
1.76562e+06
1.71001e+06
1.65527e+06
1.60139e+06
1.54833e+06
1.49606e+06
1.44447e+06
1.39338e+06
1.34245e+06
1.2909e+06
1.2368e+06
2.30012e+06
2.24194e+06
2.17959e+06
2.11781e+06
2.0569e+06
1.99687e+06
1.93773e+06
1.87947e+06
1.8221e+06
1.76562e+06
1.71001e+06
1.65527e+06
1.60139e+06
1.54834e+06
1.49608e+06
1.4445e+06
1.39345e+06
1.34259e+06
1.29122e+06
1.23785e+06
2.30014e+06
2.24193e+06
2.17958e+06
2.11781e+06
2.0569e+06
1.99687e+06
1.93773e+06
1.87947e+06
1.8221e+06
1.76562e+06
1.71001e+06
1.65527e+06
1.6014e+06
1.54835e+06
1.4961e+06
1.44454e+06
1.39353e+06
1.34275e+06
1.29159e+06
1.23895e+06
2.30016e+06
2.24193e+06
2.17958e+06
2.11781e+06
2.0569e+06
1.99687e+06
1.93773e+06
1.87947e+06
1.8221e+06
1.76562e+06
1.71001e+06
1.65528e+06
1.6014e+06
1.54837e+06
1.49612e+06
1.44459e+06
1.39362e+06
1.34293e+06
1.29201e+06
1.24007e+06
2.30017e+06
2.24192e+06
2.17957e+06
2.11781e+06
2.05689e+06
1.99687e+06
1.93773e+06
1.87947e+06
1.8221e+06
1.76562e+06
1.71001e+06
1.65528e+06
1.60141e+06
1.54838e+06
1.49615e+06
1.44464e+06
1.39372e+06
1.34313e+06
1.29245e+06
1.24119e+06
2.30018e+06
2.24192e+06
2.17956e+06
2.1178e+06
2.05689e+06
1.99687e+06
1.93773e+06
1.87947e+06
1.8221e+06
1.76562e+06
1.71002e+06
1.65529e+06
1.60142e+06
1.5484e+06
1.49618e+06
1.4447e+06
1.39383e+06
1.34335e+06
1.29292e+06
1.2423e+06
2.3002e+06
2.24192e+06
2.17956e+06
2.1178e+06
2.05689e+06
1.99687e+06
1.93773e+06
1.87947e+06
1.8221e+06
1.76562e+06
1.71002e+06
1.65529e+06
1.60143e+06
1.54841e+06
1.49621e+06
1.44476e+06
1.39394e+06
1.34358e+06
1.29341e+06
1.24339e+06
2.30021e+06
2.24191e+06
2.17955e+06
2.1178e+06
2.0569e+06
1.99687e+06
1.93773e+06
1.87947e+06
1.8221e+06
1.76562e+06
1.71002e+06
1.6553e+06
1.60144e+06
1.54843e+06
1.49625e+06
1.44482e+06
1.39406e+06
1.34382e+06
1.29391e+06
1.24446e+06
2.30022e+06
2.24191e+06
2.17955e+06
2.1178e+06
2.0569e+06
1.99687e+06
1.93773e+06
1.87947e+06
1.8221e+06
1.76562e+06
1.71002e+06
1.6553e+06
1.60145e+06
1.54845e+06
1.49628e+06
1.44489e+06
1.39419e+06
1.34408e+06
1.29442e+06
1.24549e+06
2.30023e+06
2.24191e+06
2.17955e+06
2.11779e+06
2.0569e+06
1.99687e+06
1.93773e+06
1.87947e+06
1.82211e+06
1.76562e+06
1.71003e+06
1.65531e+06
1.60146e+06
1.54847e+06
1.49632e+06
1.44496e+06
1.39433e+06
1.34434e+06
1.29493e+06
1.24649e+06
2.30023e+06
2.24191e+06
2.17954e+06
2.11779e+06
2.0569e+06
1.99687e+06
1.93773e+06
1.87947e+06
1.82211e+06
1.76563e+06
1.71003e+06
1.65531e+06
1.60147e+06
1.5485e+06
1.49636e+06
1.44503e+06
1.39447e+06
1.3446e+06
1.29544e+06
1.24745e+06
2.30024e+06
2.24191e+06
2.17954e+06
2.11779e+06
2.0569e+06
1.99687e+06
1.93773e+06
1.87947e+06
1.82211e+06
1.76563e+06
1.71003e+06
1.65532e+06
1.60149e+06
1.54852e+06
1.4964e+06
1.44511e+06
1.39461e+06
1.34487e+06
1.29595e+06
1.24838e+06
2.30024e+06
2.24191e+06
2.17954e+06
2.11779e+06
2.0569e+06
1.99687e+06
1.93773e+06
1.87947e+06
1.82211e+06
1.76563e+06
1.71004e+06
1.65533e+06
1.6015e+06
1.54854e+06
1.49644e+06
1.44519e+06
1.39475e+06
1.34514e+06
1.29644e+06
1.24926e+06
2.30025e+06
2.24191e+06
2.17953e+06
2.11779e+06
2.0569e+06
1.99687e+06
1.93773e+06
1.87947e+06
1.82211e+06
1.76563e+06
1.71004e+06
1.65534e+06
1.60151e+06
1.54856e+06
1.49649e+06
1.44527e+06
1.3949e+06
1.34541e+06
1.29694e+06
1.2501e+06
2.30025e+06
2.24191e+06
2.17953e+06
2.11779e+06
2.0569e+06
1.99687e+06
1.93773e+06
1.87947e+06
1.82211e+06
1.76563e+06
1.71004e+06
1.65534e+06
1.60152e+06
1.54859e+06
1.49653e+06
1.44535e+06
1.39505e+06
1.34567e+06
1.29742e+06
1.25091e+06
2.30025e+06
2.24191e+06
2.17953e+06
2.11779e+06
2.0569e+06
1.99687e+06
1.93773e+06
1.87947e+06
1.82211e+06
1.76564e+06
1.71005e+06
1.65535e+06
1.60154e+06
1.54861e+06
1.49657e+06
1.44543e+06
1.39519e+06
1.34594e+06
1.29788e+06
1.25167e+06
2.30025e+06
2.24191e+06
2.17953e+06
2.11779e+06
2.0569e+06
1.99687e+06
1.93773e+06
1.87947e+06
1.82211e+06
1.76564e+06
1.71005e+06
1.65536e+06
1.60155e+06
1.54864e+06
1.49662e+06
1.44551e+06
1.39534e+06
1.34619e+06
1.29833e+06
1.25239e+06
2.30025e+06
2.24191e+06
2.17953e+06
2.11779e+06
2.0569e+06
1.99687e+06
1.93773e+06
1.87948e+06
1.82211e+06
1.76564e+06
1.71006e+06
1.65536e+06
1.60156e+06
1.54866e+06
1.49666e+06
1.44559e+06
1.39548e+06
1.34645e+06
1.29876e+06
1.25308e+06
2.30025e+06
2.24191e+06
2.17954e+06
2.11779e+06
2.0569e+06
1.99687e+06
1.93773e+06
1.87948e+06
1.82211e+06
1.76564e+06
1.71006e+06
1.65537e+06
1.60158e+06
1.54868e+06
1.4967e+06
1.44566e+06
1.39562e+06
1.34669e+06
1.29918e+06
1.25372e+06
2.30024e+06
2.24191e+06
2.17954e+06
2.11779e+06
2.0569e+06
1.99687e+06
1.93773e+06
1.87948e+06
1.82212e+06
1.76564e+06
1.71006e+06
1.65538e+06
1.60159e+06
1.54871e+06
1.49674e+06
1.44574e+06
1.39575e+06
1.34693e+06
1.29957e+06
1.25433e+06
2.30024e+06
2.24191e+06
2.17954e+06
2.11779e+06
2.0569e+06
1.99687e+06
1.93773e+06
1.87948e+06
1.82212e+06
1.76565e+06
1.71007e+06
1.65538e+06
1.6016e+06
1.54873e+06
1.49679e+06
1.44581e+06
1.39588e+06
1.34715e+06
1.29995e+06
1.25489e+06
2.30023e+06
2.24191e+06
2.17954e+06
2.11779e+06
2.0569e+06
1.99687e+06
1.93773e+06
1.87948e+06
1.82212e+06
1.76565e+06
1.71007e+06
1.65539e+06
1.60161e+06
1.54875e+06
1.49682e+06
1.44588e+06
1.39601e+06
1.34737e+06
1.3003e+06
1.25542e+06
2.30023e+06
2.24191e+06
2.17955e+06
2.1178e+06
2.0569e+06
1.99687e+06
1.93773e+06
1.87948e+06
1.82212e+06
1.76565e+06
1.71008e+06
1.6554e+06
1.60162e+06
1.54877e+06
1.49686e+06
1.44595e+06
1.39613e+06
1.34757e+06
1.30064e+06
1.25592e+06
2.30022e+06
2.24191e+06
2.17955e+06
2.1178e+06
2.0569e+06
1.99687e+06
1.93773e+06
1.87948e+06
1.82212e+06
1.76565e+06
1.71008e+06
1.6554e+06
1.60164e+06
1.54879e+06
1.4969e+06
1.44601e+06
1.39624e+06
1.34777e+06
1.30095e+06
1.25637e+06
2.30021e+06
2.24191e+06
2.17955e+06
2.1178e+06
2.0569e+06
1.99687e+06
1.93773e+06
1.87948e+06
1.82212e+06
1.76565e+06
1.71008e+06
1.65541e+06
1.60165e+06
1.54881e+06
1.49693e+06
1.44607e+06
1.39635e+06
1.34795e+06
1.30124e+06
1.25679e+06
2.3002e+06
2.24192e+06
2.17956e+06
2.1178e+06
2.0569e+06
1.99687e+06
1.93773e+06
1.87948e+06
1.82212e+06
1.76566e+06
1.71009e+06
1.65541e+06
1.60166e+06
1.54883e+06
1.49696e+06
1.44613e+06
1.39644e+06
1.34811e+06
1.3015e+06
1.25717e+06
2.30019e+06
2.24192e+06
2.17957e+06
2.1178e+06
2.0569e+06
1.99687e+06
1.93773e+06
1.87948e+06
1.82213e+06
1.76566e+06
1.71009e+06
1.65542e+06
1.60166e+06
1.54884e+06
1.49699e+06
1.44618e+06
1.39654e+06
1.34827e+06
1.30174e+06
1.25752e+06
2.30017e+06
2.24192e+06
2.17957e+06
2.11781e+06
2.0569e+06
1.99687e+06
1.93773e+06
1.87949e+06
1.82213e+06
1.76566e+06
1.71009e+06
1.65542e+06
1.60167e+06
1.54886e+06
1.49702e+06
1.44623e+06
1.39662e+06
1.34841e+06
1.30196e+06
1.25783e+06
2.30016e+06
2.24193e+06
2.17958e+06
2.11781e+06
2.0569e+06
1.99687e+06
1.93774e+06
1.87949e+06
1.82213e+06
1.76566e+06
1.71009e+06
1.65543e+06
1.60168e+06
1.54887e+06
1.49705e+06
1.44627e+06
1.39669e+06
1.34853e+06
1.30216e+06
1.25811e+06
2.30014e+06
2.24193e+06
2.17958e+06
2.11781e+06
2.0569e+06
1.99687e+06
1.93774e+06
1.87949e+06
1.82213e+06
1.76566e+06
1.7101e+06
1.65543e+06
1.60169e+06
1.54888e+06
1.49707e+06
1.44631e+06
1.39676e+06
1.34864e+06
1.30233e+06
1.25835e+06
2.30012e+06
2.24194e+06
2.17959e+06
2.11781e+06
2.0569e+06
1.99687e+06
1.93774e+06
1.87949e+06
1.82213e+06
1.76567e+06
1.7101e+06
1.65544e+06
1.60169e+06
1.54889e+06
1.49709e+06
1.44635e+06
1.39682e+06
1.34873e+06
1.30247e+06
1.25856e+06
2.3001e+06
2.24195e+06
2.1796e+06
2.11782e+06
2.0569e+06
1.99688e+06
1.93774e+06
1.87949e+06
1.82213e+06
1.76567e+06
1.7101e+06
1.65544e+06
1.6017e+06
1.5489e+06
1.4971e+06
1.44637e+06
1.39686e+06
1.34881e+06
1.3026e+06
1.25873e+06
2.30008e+06
2.24196e+06
2.17961e+06
2.11782e+06
2.0569e+06
1.99688e+06
1.93774e+06
1.87949e+06
1.82213e+06
1.76567e+06
1.7101e+06
1.65544e+06
1.6017e+06
1.54891e+06
1.49711e+06
1.4464e+06
1.3969e+06
1.34888e+06
1.30269e+06
1.25886e+06
2.30006e+06
2.24197e+06
2.17961e+06
2.11782e+06
2.0569e+06
1.99688e+06
1.93774e+06
1.87949e+06
1.82213e+06
1.76567e+06
1.7101e+06
1.65544e+06
1.6017e+06
1.54892e+06
1.49712e+06
1.44641e+06
1.39693e+06
1.34892e+06
1.30277e+06
1.25897e+06
2.30002e+06
2.24197e+06
2.17962e+06
2.11782e+06
2.0569e+06
1.99688e+06
1.93774e+06
1.87949e+06
1.82213e+06
1.76567e+06
1.7101e+06
1.65544e+06
1.60171e+06
1.54892e+06
1.49713e+06
1.44643e+06
1.39695e+06
1.34896e+06
1.30282e+06
1.25903e+06
2.29997e+06
2.24197e+06
2.17962e+06
2.11782e+06
2.0569e+06
1.99688e+06
1.93774e+06
1.87949e+06
1.82213e+06
1.76567e+06
1.7101e+06
1.65544e+06
1.60171e+06
1.54892e+06
1.49713e+06
1.44643e+06
1.39696e+06
1.34897e+06
1.30284e+06
1.25907e+06
1.18137e+06
1.1687e+06
1.1589e+06
1.15031e+06
1.14228e+06
1.13461e+06
1.12721e+06
1.12e+06
1.11296e+06
1.10603e+06
1.0992e+06
1.09245e+06
1.08575e+06
1.07909e+06
1.07247e+06
1.06587e+06
1.05929e+06
1.05273e+06
1.04619e+06
1.03967e+06
1.03316e+06
1.02666e+06
1.02017e+06
1.0137e+06
1.00723e+06
1.00077e+06
994330
987914
981527
975166
968833
962529
956253
950004
943783
937591
931425
925287
919175
913088
907027
900990
894978
888989
883024
877083
871168
865279
859417
853581
847770
841983
836220
830480
824766
819075
813407
807761
802136
796531
790945
785377
779825
774290
768769
763262
757769
752290
746825
741377
735946
730533
725139
719766
714415
709085
703776
698487
693218
687968
682738
677525
672331
667157
662003
656869
651753
646654
641570
636501
631449
626413
621394
616394
611412
606451
601508
596586
591685
586804
581945
577106
572288
567489
562709
557948
553207
548486
543786
539106
534447
529809
525192
520596
516024
511476
506953
502455
497983
493535
489112
484713
480337
475984
471651
467337
463041
458763
454503
450258
446029
441814
437615
433433
429267
425118
420988
416877
412786
408714
404664
400635
396626
392640
388674
384730
380808
376907
373028
369170
365335
361521
357730
353962
350215
346491
342787
339107
335445
331805
328185
324583
321000
317435
313886
310352
306834
303331
299844
296373
292919
289483
286063
282666
279285
275929
272587
269276
265971
262705
259436
256215
252978
249793
246589
243433
240260
237121
233964
230826
227669
224508
221318
218100
214827
211484
208040
204446
200570
196278
1.18738e+06
1.17358e+06
1.16274e+06
1.15345e+06
1.14494e+06
1.1369e+06
1.1292e+06
1.12176e+06
1.1145e+06
1.1074e+06
1.10042e+06
1.09353e+06
1.08671e+06
1.07995e+06
1.07323e+06
1.06654e+06
1.05989e+06
1.05327e+06
1.04666e+06
1.04009e+06
1.03353e+06
1.02699e+06
1.02047e+06
1.01396e+06
1.00746e+06
1.00099e+06
994528
988095
981691
975316
968968
962649
956359
950098
943866
937663
931489
925343
919224
913132
907067
901027
895013
889024
883059
877118
871204
865315
859452
853616
847804
842016
836252
830511
824795
819103
813435
807789
802164
796561
790976
785409
779859
774324
768804
763298
757804
752325
746861
741412
735980
730566
725172
719799
714448
709118
703809
698519
693249
687998
682765
677550
672355
667179
662024
656889
651772
646672
641588
636520
631469
626434
621415
616415
611434
606471
601528
596605
591702
586820
581960
577120
572301
567500
562719
557958
553216
548495
543794
539114
534456
529818
525201
520606
516034
511485
506961
502463
497989
493539
489114
484713
480336
475981
471647
467332
463035
458757
454496
450251
446022
441808
437610
433427
429262
425113
420983
416873
412782
408710
404660
400631
396622
392635
388670
384725
380803
376902
373022
369164
365329
361514
357723
353953
350204
346478
342772
339089
335424
331780
328156
324551
320963
317392
313837
310297
306772
303263
299767
296289
292825
289381
285950
282542
279147
275779
272420
269094
265769
262484
259192
255946
252684
249468
246234
243039
239828
236642
233439
230243
227024
223792
220522
217208
213823
210341
206721
202870
198641
193611
1.19213e+06
1.17786e+06
1.16634e+06
1.15647e+06
1.14753e+06
1.13915e+06
1.13117e+06
1.12349e+06
1.11603e+06
1.10876e+06
1.10163e+06
1.0946e+06
1.08767e+06
1.0808e+06
1.07398e+06
1.06722e+06
1.06049e+06
1.0538e+06
1.04714e+06
1.0405e+06
1.0339e+06
1.02732e+06
1.02076e+06
1.01422e+06
1.0077e+06
1.0012e+06
994723
988273
981853
975462
969101
962768
956466
950193
943951
937738
931556
925403
919278
913182
907112
901070
895054
889064
883099
877159
871244
865356
859492
853654
847840
842051
836285
830543
824825
819132
813462
807816
802192
796589
791005
785439
779890
774356
768836
763329
757836
752356
746891
741441
736008
730594
725199
719826
714474
709144
703834
698543
693272
688020
682785
677568
672371
667193
662037
656901
651783
646682
641599
636533
631482
626448
621431
616431
611449
606487
601543
596619
591715
586832
581971
577130
572309
567508
562726
557963
553222
548500
543800
539120
534461
529824
525208
520613
516041
511493
506968
502468
497994
493542
489115
484713
480334
475977
471642
467326
463028
458749
454487
450242
446013
441799
437601
433419
429254
425106
420976
416865
412775
408704
404654
400624
396616
392628
388662
384718
380795
376894
373015
369157
365321
361506
357714
353943
350192
346464
342755
339069
335400
331754
328126
324517
320924
317348
313787
310241
306709
303192
299690
296204
292731
289277
285835
282417
279009
275628
272253
268911
265567
262262
258948
255677
252391
249143
245880
242647
239400
236167
232919
229666
226388
223086
219740
216335
212844
209232
205455
201387
196893
191491
1.19602e+06
1.18165e+06
1.16971e+06
1.15937e+06
1.15004e+06
1.14134e+06
1.1331e+06
1.12519e+06
1.11755e+06
1.1101e+06
1.10282e+06
1.09566e+06
1.08861e+06
1.08164e+06
1.07473e+06
1.06788e+06
1.06108e+06
1.05432e+06
1.0476e+06
1.04091e+06
1.03426e+06
1.02764e+06
1.02104e+06
1.01447e+06
1.00793e+06
1.00141e+06
994915
988449
982013
975608
969233
962889
956574
950291
944039
937817
931627
925468
919338
913237
907164
901119
895101
889111
883145
877205
871290
865400
859535
853695
847879
842087
836319
830575
824856
819161
813490
807843
802219
796616
791033
785468
779919
774384
768864
763356
757862
752382
746916
741465
736030
730615
725219
719845
714493
709163
703852
698560
693288
688034
682797
677579
672379
667200
662042
656905
651787
646686
641603
636538
631490
626457
621440
616442
611460
606497
601553
596628
591724
586839
581976
577135
572313
567510
562728
557965
553223
548502
543801
539122
534464
529827
525211
520617
516046
511497
506973
502472
497996
493544
489115
484711
480330
475972
471635
467318
463019
458739
454477
450231
446002
441788
437590
433408
429243
425095
420966
416856
412765
408694
404644
400615
396606
392618
388652
384708
380785
376885
373005
369147
365311
361496
357704
353931
350179
346449
342737
339048
335376
331727
328094
324481
320883
317302
313735
310184
306645
303122
299611
296118
292636
289173
285720
282292
278870
275476
272086
268727
265365
262040
258706
255409
252100
248820
245529
242258
238975
235697
232404
229096
225762
222392
218973
215480
211893
208160
204250
200005
195323
189804
1.19934e+06
1.18502e+06
1.17281e+06
1.16212e+06
1.15245e+06
1.14347e+06
1.13498e+06
1.12686e+06
1.11903e+06
1.11142e+06
1.10399e+06
1.09671e+06
1.08954e+06
1.08246e+06
1.07546e+06
1.06853e+06
1.06166e+06
1.05483e+06
1.04806e+06
1.04132e+06
1.03462e+06
1.02795e+06
1.02132e+06
1.01472e+06
1.00815e+06
1.00162e+06
995105
988623
982172
975753
969366
963010
956685
950392
944131
937901
931704
925538
919404
913299
907223
901175
895155
889163
883197
877256
871340
865449
859582
853739
847919
842125
836354
830608
824886
819189
813517
807869
802245
796642
791059
785494
779945
774410
768888
763379
757884
752402
746934
741482
736046
730629
725232
719857
714505
709174
703862
698570
693297
688041
682802
677582
672381
667200
662041
656902
651783
646682
641601
636537
631490
626459
621444
616446
611465
606502
601558
596632
591726
586841
581977
577134
572311
567508
562725
557963
553221
548500
543800
539120
534463
529826
525211
520617
516047
511499
506975
502474
497997
493543
489113
484707
480325
475965
471627
467308
463009
458727
454464
450218
445988
441774
437576
433394
429230
425083
420954
416844
412753
408682
404632
400602
396594
392606
388640
384696
380773
376872
372993
369135
365299
361484
357691
353917
350164
346431
342717
339025
335349
331698
328061
324444
320841
317256
313683
310126
306581
303051
299533
296032
292541
289069
285606
282165
278731
275323
271918
268542
265164
261817
258464
255141
251810
248500
245180
241872
238554
235232
231896
228535
225148
221711
218223
214647
210974
207131
203108
198729
193927
188413
1.20221e+06
1.18803e+06
1.17568e+06
1.16471e+06
1.15477e+06
1.14553e+06
1.13681e+06
1.12849e+06
1.12048e+06
1.11271e+06
1.10514e+06
1.09773e+06
1.09045e+06
1.08327e+06
1.07618e+06
1.06917e+06
1.06223e+06
1.05534e+06
1.0485e+06
1.04172e+06
1.03497e+06
1.02827e+06
1.0216e+06
1.01497e+06
1.00838e+06
1.00182e+06
995292
988796
982331
975898
969499
963132
956798
950496
944226
937990
931786
925615
919476
913368
907289
901239
895216
889222
883255
877313
871394
865501
859631
853784
847961
842163
836389
830640
824916
819217
813543
807894
802269
796666
791083
785517
779968
774431
768908
763398
757901
752417
746947
741492
736054
730636
725238
719862
714509
709177
703865
698572
693297
688040
682799
677577
672374
667192
662031
656892
651773
646672
641592
636530
631485
626455
621441
616444
611464
606502
601557
596630
591724
586837
581972
577128
572304
567501
562718
557956
553215
548495
543794
539115
534458
529821
525207
520614
516044
511497
506973
502472
497994
493540
489109
484701
480317
475956
471616
467296
462996
458713
454450
450202
445972
441758
437560
433378
429214
425067
420939
416829
412739
408668
404617
400587
396579
392591
388625
384681
380758
376857
372978
369120
365284
361468
357675
353900
350147
346412
342695
338999
335321
331666
328025
324404
320798
317209
313631
310069
306516
302980
299455
295946
292446
288965
285491
282039
278592
275170
271751
268358
264963
261596
258224
254875
251521
248181
244834
241490
238138
234772
231394
227981
224545
221044
217494
213838
210089
206148
202029
197556
192686
187232
1.20474e+06
1.19074e+06
1.17831e+06
1.16716e+06
1.15698e+06
1.14751e+06
1.13859e+06
1.13008e+06
1.12189e+06
1.11397e+06
1.10627e+06
1.09873e+06
1.09134e+06
1.08407e+06
1.07689e+06
1.0698e+06
1.06279e+06
1.05584e+06
1.04895e+06
1.04211e+06
1.03532e+06
1.02858e+06
1.02188e+06
1.01523e+06
1.00861e+06
1.00203e+06
995479
988967
982489
976044
969633
963256
956913
950603
944327
938084
931875
925699
919556
913444
907363
901309
895284
889288
883318
877373
871452
865555
859682
853831
848004
842202
836424
830672
824945
819244
813568
807917
802291
796687
791103
785537
779987
774449
768924
763411
757912
752426
746954
741496
736057
730636
725237
719860
714506
709173
703861
698567
693291
688032
682789
677565
672360
667176
662015
656875
651755
646656
641577
636516
631472
626444
621432
616437
611458
606496
601551
596623
591715
586828
581961
577116
572292
567489
562707
557946
553206
548485
543785
539106
534449
529813
525199
520607
516037
511490
506967
502466
497988
493533
489101
484692
480307
475943
471602
467281
462980
458696
454432
450183
445953
441738
437541
433359
429196
425050
420922
416812
412722
408651
404600
400570
396561
392573
388607
384663
380741
376840
372961
369103
365266
361450
357657
353881
350127
346389
342670
338972
335291
331633
327987
324364
320753
317161
313578
310011
306452
302910
299377
295860
292352
288861
285377
281912
278454
275018
271584
268175
264764
261376
257984
254611
251234
247865
244490
241111
237727
234318
230901
227437
223953
220392
216785
213054
209236
205211
201012
196477
191581
186206
1.20701e+06
1.1932e+06
1.18075e+06
1.16945e+06
1.15908e+06
1.14942e+06
1.14031e+06
1.13162e+06
1.12327e+06
1.11521e+06
1.10737e+06
1.09972e+06
1.09222e+06
1.08485e+06
1.07759e+06
1.07042e+06
1.06334e+06
1.05633e+06
1.04939e+06
1.0425e+06
1.03567e+06
1.02889e+06
1.02216e+06
1.01548e+06
1.00883e+06
1.00223e+06
995665
989139
982647
976190
969769
963382
957031
950715
944432
938184
931970
925790
919643
913528
907443
901387
895359
889359
883387
877438
871513
865612
859734
853879
848047
842241
836459
830703
824973
819269
813591
807938
802310
796705
791120
785553
780001
774461
768934
763420
757919
752430
746954
741494
736052
730630
725229
719852
714497
709163
703849
698555
693278
688016
682772
677546
672339
667154
661991
656851
651731
646633
641555
636496
631454
626427
621416
616423
611445
606485
601539
596610
591701
586813
581946
577100
572276
567473
562692
557932
553192
548472
543773
539094
534436
529800
525186
520595
516026
511479
506956
502456
497978
493522
489090
484680
480293
475928
471585
467263
462961
458676
454411
450162
445931
441716
437519
433338
429176
425030
420903
416793
412703
408631
404581
400550
396541
392553
388587
384643
380721
376820
372941
369082
365246
361429
357635
353859
350104
346364
342643
338941
335258
331596
327947
324321
320708
317112
313525
309952
306388
302839
299300
295776
292259
288757
285264
281787
278316
274866
271419
267992
264566
261157
257747
254349
250950
247552
244151
240737
237321
233871
230417
226903
223376
219756
216096
212297
208418
204323
200056
195485
190590
185298
1.20905e+06
1.19543e+06
1.18299e+06
1.1716e+06
1.16108e+06
1.15125e+06
1.14196e+06
1.13311e+06
1.12462e+06
1.11641e+06
1.10845e+06
1.10068e+06
1.09308e+06
1.08562e+06
1.07828e+06
1.07104e+06
1.06389e+06
1.05682e+06
1.04982e+06
1.04289e+06
1.03602e+06
1.0292e+06
1.02244e+06
1.01573e+06
1.00906e+06
1.00243e+06
995852
989310
982806
976338
969906
963511
957153
950830
944543
938290
932072
925888
919736
913618
907531
901472
895440
889436
883459
877505
871575
865669
859787
853927
848091
842279
836493
830733
824999
819292
813610
807955
802325
796719
791132
785564
780010
774469
768939
763423
757919
752427
746949
741486
736041
730617
725215
719836
714481
709146
703832
698536
693258
687995
682749
677520
672311
667124
661961
656820
651701
646604
641528
636470
631429
626403
621394
616402
611427
606467
601520
596591
591682
586793
581925
577079
572255
567453
562673
557914
553175
548455
543756
539077
534419
529783
525170
520578
516010
511464
506941
502441
497963
493507
489075
484663
480276
475909
471566
467242
462940
458654
454388
450138
445907
441692
437495
433315
429153
425008
420881
416771
412681
408609
404558
400527
396519
392530
388565
384621
380699
376798
372919
369060
365223
361406
357611
353833
350077
346335
342613
338908
335221
331556
327904
324277
320662
317063
313471
309893
306323
302769
299224
295691
292166
288654
285151
281662
278180
274715
271255
267811
264370
260940
257512
254089
250669
247242
243817
240368
236922
233431
229943
226381
222811
219137
215429
211569
207633
203484
199161
194571
189694
184479
1.21092e+06
1.19747e+06
1.18507e+06
1.17361e+06
1.16297e+06
1.153e+06
1.14356e+06
1.13456e+06
1.12592e+06
1.11759e+06
1.10951e+06
1.10163e+06
1.09393e+06
1.08638e+06
1.07896e+06
1.07165e+06
1.06443e+06
1.05731e+06
1.05026e+06
1.04328e+06
1.03637e+06
1.02951e+06
1.02272e+06
1.01598e+06
1.00928e+06
1.00264e+06
996039
989482
982965
976486
970046
963643
957278
950950
944658
938401
932179
925991
919837
913715
907624
901561
895525
889516
883533
877575
871639
865728
859840
853974
848133
842316
836525
830761
825023
819311
813627
807969
802336
796728
791140
785570
780014
774470
768939
763420
757914
752419
746937
741472
736025
730598
725194
719815
714459
709124
703809
698512
693232
687967
682719
677488
672277
667089
661925
656784
651666
646570
641494
636438
631398
626374
621366
616376
611402
606442
601496
596566
591657
586768
581901
577055
572232
567430
562650
557892
553153
548434
543735
539056
534398
529762
525149
520558
515989
511444
506922
502422
497945
493488
489055
484643
480255
475888
471543
467218
462915
458629
454362
450111
445880
441665
437469
433289
429129
424983
420857
416747
412657
408584
404534
400503
396494
392505
388541
384596
380675
376773
372894
369035
365198
361380
357584
353805
350047
346302
342579
338871
335181
331513
327859
324230
320615
317012
313416
309833
306258
302699
299147
295606
292074
288552
285040
281538
278045
274566
271092
267631
264175
260724
257281
253833
250392
246936
243487
240004
236529
233000
229476
225872
222260
218538
214782
210873
206881
202691
198329
193729
188876
183730
1.21264e+06
1.19936e+06
1.187e+06
1.1755e+06
1.16476e+06
1.15466e+06
1.14509e+06
1.13595e+06
1.12719e+06
1.11873e+06
1.11054e+06
1.10256e+06
1.09477e+06
1.08713e+06
1.07963e+06
1.07225e+06
1.06497e+06
1.05779e+06
1.05069e+06
1.04366e+06
1.03671e+06
1.02982e+06
1.023e+06
1.01623e+06
1.00951e+06
1.00285e+06
996227
989654
983125
976636
970188
963778
957407
951075
944779
938518
932292
926101
919943
913817
907722
901654
895613
889599
883610
877645
871703
865786
859892
854020
848173
842352
836556
830787
825044
819328
813639
807978
802343
796732
791142
785569
780011
774465
768932
763411
757902
752404
746920
741452
736002
730574
725169
719788
714431
709096
703781
698483
693202
687935
682684
677451
672238
667049
661884
656743
651626
646530
641456
636400
631362
626338
621332
616344
611371
606412
601466
596536
591628
586739
581873
577028
572205
567403
562624
557866
553128
548409
543710
539031
534374
529737
525124
520533
515965
511420
506898
502399
497922
493465
489032
484620
480231
475863
471518
467192
462888
458601
454334
450082
445851
441636
437441
433262
429101
424956
420831
416721
412631
408558
404507
400476
396467
392478
388514
384570
380648
376747
372868
369008
365170
361351
357555
353774
350015
346266
342542
338830
335137
331467
327812
324182
320566
316959
313360
309771
306192
302627
299070
295521
291983
288450
284929
281415
277911
274417
270931
267453
263983
260512
257051
253579
250119
246634
243161
239646
236143
232579
229020
225379
221724
217963
214156
210209
206166
201945
197557
192952
188123
183039
1.21423e+06
1.2011e+06
1.18879e+06
1.17726e+06
1.16645e+06
1.15624e+06
1.14655e+06
1.1373e+06
1.12842e+06
1.11985e+06
1.11154e+06
1.10347e+06
1.09558e+06
1.08786e+06
1.08029e+06
1.07284e+06
1.0655e+06
1.05826e+06
1.05112e+06
1.04405e+06
1.03706e+06
1.03013e+06
1.02328e+06
1.01648e+06
1.00974e+06
1.00305e+06
996415
989828
983286
976788
970332
963916
957541
951204
944904
938640
932410
926215
920053
913923
907822
901750
895703
889682
883687
877715
871766
865842
859942
854065
848212
842385
836584
830809
825062
819340
813647
807982
802344
796731
791138
785563
780001
774453
768918
763396
757884
752383
746896
741426
735974
730544
725137
719756
714399
709064
703749
698450
693167
687898
682645
677410
672195
667004
661839
656698
651581
646486
641413
636358
631321
626298
621293
616306
611334
606376
601431
596502
591595
586708
581842
576998
572175
567374
562595
557837
553099
548380
543681
539002
534345
529708
525095
520505
515938
511392
506871
502372
497895
493439
489005
484593
480204
475835
471489
467163
462858
458571
454303
450052
445821
441606
437411
433232
429072
424928
420803
416693
412603
408529
404479
400447
396438
392450
388485
384541
380620
376718
372839
368978
365140
361321
357523
353740
349979
346228
342502
338786
335090
331418
327763
324133
320515
316904
313300
309708
306125
302554
298991
295435
291890
288348
284818
281292
277778
274269
270771
267275
263792
260301
256824
253329
249849
246339
242841
239299
235765
232172
228576
224903
221204
217410
213556
209576
205492
201246
196838
192231
187426
182398
1.21572e+06
1.20272e+06
1.19046e+06
1.17892e+06
1.16804e+06
1.15774e+06
1.14795e+06
1.13859e+06
1.1296e+06
1.12092e+06
1.11252e+06
1.10435e+06
1.09638e+06
1.08858e+06
1.08094e+06
1.07342e+06
1.06603e+06
1.05873e+06
1.05154e+06
1.04443e+06
1.0374e+06
1.03044e+06
1.02355e+06
1.01673e+06
1.00996e+06
1.00326e+06
996604
990002
983448
976941
970478
964058
957677
951336
945033
938765
932532
926332
920166
914030
907924
901846
895793
889765
883762
877783
871828
865897
859990
854106
848248
842415
836608
830828
825076
819349
813651
807982
802340
796724
791127
785549
779985
774435
768898
763374
757859
752356
746867
741394
735941
730509
725101
719719
714362
709028
703712
698413
693128
687858
682603
677365
672148
666957
661790
656650
651534
646439
641367
636313
631276
626254
621249
616264
611293
606336
601392
596465
591559
586673
581808
576965
572142
567341
562563
557805
553067
548348
543649
538970
534313
529676
525064
520473
515907
511362
506841
502342
497866
493409
488975
484563
480173
475805
471459
467132
462827
458539
454271
450020
445789
441575
437380
433201
429042
424897
420773
416663
412573
408500
404449
400417
396408
392419
388454
384511
380589
376688
372808
368947
365109
361288
357489
353705
349941
346187
342460
338740
335042
331367
327712
324083
320463
316848
313239
309644
306055
302481
298912
295348