/*--------------------------------*- C++ -*----------------------------------*\
| =========                 |                                                 |
| \\      /  F ield         | OpenFOAM: The Open Source CFD Toolbox           |
|  \\    /   O peration     | Version:  2.4.0                                 |
|   \\  /    A nd           | Web:      www.OpenFOAM.org                      |
|    \\/     M anipulation  |                                                 |
\*---------------------------------------------------------------------------*/
FoamFile
{
    version     2.0;
    format      ascii;
    class       volSymmTensorField;
    location    "0.281";
    object      UPrime2Mean;
}
// * * * * * * * * * * * * * * * * * * * * * * * * * * * * * * * * * * * * * //

dimensions      [0 2 -2 0 0 0 0];

internalField   nonuniform List<symmTensor> 
17600
(
(0.0140763 -0.00152615 0 0.000229799 0 0)
(0.144895 -0.000580362 0 1.32229e-05 0 0)
(0.188338 -1.89832e-07 0 9.56782e-07 0 0)
(0.209081 -0.000149502 0 6.08925e-07 0 0)
(0.223696 -0.000115451 0 3.41282e-07 0 0)
(0.234609 -4.9104e-05 0 2.62999e-07 0 0)
(0.242197 -1.34024e-05 0 2.50596e-07 0 0)
(0.24854 4.36758e-07 0 2.59771e-07 0 0)
(0.252606 5.85961e-06 0 3.19846e-07 0 0)
(0.256592 9.92768e-07 0 3.93213e-07 0 0)
(0.258911 -1.85082e-06 0 4.63505e-07 0 0)
(0.262385 -1.87087e-05 0 6.52692e-07 0 0)
(0.264445 -1.8121e-05 0 7.8143e-07 0 0)
(0.268752 -5.29263e-05 0 1.17778e-06 0 0)
(0.271769 -5.67233e-05 0 1.33848e-06 0 0)
(0.280115 -0.000169743 0 2.62898e-06 0 0)
(0.288804 -0.000271184 0 3.07052e-06 0 0)
(0.324122 0.000126302 0 1.06577e-05 0 0)
(0.395361 -0.0108241 0 0.000450455 0 0)
(0.743361 0.0546109 0 0.00740188 0 0)
(0.00677408 0.00304333 0 0.00240043 0 0)
(0.05948 -0.00569174 0 0.000574964 0 0)
(0.120526 -0.00322437 0 8.79115e-05 0 0)
(0.161983 -0.0022859 0 3.55489e-05 0 0)
(0.197566 -0.00188288 0 2.79557e-05 0 0)
(0.23228 -0.00157614 0 2.58473e-05 0 0)
(0.260578 -0.00126018 0 2.07488e-05 0 0)
(0.286669 -0.000983818 0 1.39949e-05 0 0)
(0.304435 -0.000759392 0 8.64598e-06 0 0)
(0.322852 -0.000633453 0 6.48242e-06 0 0)
(0.333274 -0.000570542 0 5.03444e-06 0 0)
(0.349345 -0.000572029 0 6.39056e-06 0 0)
(0.356907 -0.000628708 0 8.00586e-06 0 0)
(0.375351 -0.00062815 0 1.28097e-05 0 0)
(0.382139 -0.00103139 0 1.72622e-05 0 0)
(0.413594 -0.000900085 0 3.79101e-05 0 0)
(0.418362 -0.00312223 0 7.37681e-05 0 0)
(0.548427 -0.00445901 0 0.000238133 0 0)
(0.554305 -0.0143496 0 0.00103447 0 0)
(1.59661 -0.159431 0 0.0351133 0 0)
(0.0241385 0.00916395 0 0.00379257 0 0)
(0.00992326 -0.00364728 0 0.00164789 0 0)
(0.0424993 -0.0041039 0 0.000432228 0 0)
(0.0736335 -0.00391794 0 0.00021363 0 0)
(0.107569 -0.00387082 0 0.000162691 0 0)
(0.148507 -0.00371979 0 0.000146835 0 0)
(0.18618 -0.00328497 0 0.000122011 0 0)
(0.224592 -0.00276329 0 8.47495e-05 0 0)
(0.252017 -0.00225151 0 5.27659e-05 0 0)
(0.282421 -0.00192648 0 3.4385e-05 0 0)
(0.29938 -0.00171482 0 2.18097e-05 0 0)
(0.327251 -0.00175836 0 2.57362e-05 0 0)
(0.338666 -0.00177222 0 2.75752e-05 0 0)
(0.370516 -0.00200525 0 4.99015e-05 0 0)
(0.379006 -0.00257459 0 6.08637e-05 0 0)
(0.426915 -0.00295501 0 0.000158465 0 0)
(0.436265 -0.00724323 0 0.000282384 0 0)
(0.570961 -0.00918398 0 0.00104192 0 0)
(0.658923 -0.0388943 0 0.00450814 0 0)
(1.37706 -0.215078 0 0.0728204 0 0)
(0.0321185 0.0101819 0 0.00342827 0 0)
(0.00100604 0.000687337 0 0.00258044 0 0)
(0.0060391 -0.00154728 0 0.000953104 0 0)
(0.014037 -0.00249049 0 0.000568791 0 0)
(0.0270264 -0.00338981 0 0.000460311 0 0)
(0.0511267 -0.0041393 0 0.000418888 0 0)
(0.0786832 -0.00423586 0 0.000362869 0 0)
(0.112608 -0.00397114 0 0.000261837 0 0)
(0.138467 -0.00343348 0 0.000172165 0 0)
(0.170464 -0.00306238 0 0.000107859 0 0)
(0.187979 -0.0028758 0 7.12329e-05 0 0)
(0.219929 -0.00271337 0 6.55034e-05 0 0)
(0.231577 -0.00320609 0 8.08537e-05 0 0)
(0.268466 -0.00260568 0 0.000119574 0 0)
(0.277364 -0.00501939 0 0.00019002 0 0)
(0.324261 -0.00254324 0 0.00040393 0 0)
(0.349283 -0.0134113 0 0.000924254 0 0)
(0.414657 -0.00790408 0 0.00217901 0 0)
(0.62293 -0.0703474 0 0.0132219 0 0)
(0.819337 -0.116415 0 0.0568118 0 0)
(0.0300994 0.00820899 0 0.00239754 0 0)
(0.00351658 0.00265283 0 0.00269731 0 0)
(0.00496689 0.00142846 0 0.00119112 0 0)
(0.00536626 0.000874731 0 0.000877522 0 0)
(0.00421872 1.91135e-06 0 0.000828242 0 0)
(0.00654762 -0.00144435 0 0.000800216 0 0)
(0.013985 -0.0023745 0 0.000727582 0 0)
(0.0292317 -0.00304009 0 0.000558623 0 0)
(0.0430432 -0.00294907 0 0.000382041 0 0)
(0.0640143 -0.00303292 0 0.000254491 0 0)
(0.0756594 -0.00282509 0 0.00015927 0 0)
(0.0995535 -0.00323981 0 0.000171013 0 0)
(0.109754 -0.00310114 0 0.00015091 0 0)
(0.135547 -0.00418493 0 0.000284812 0 0)
(0.150339 -0.00369734 0 0.000294461 0 0)
(0.174787 -0.00758281 0 0.000851832 0 0)
(0.209125 -0.00633421 0 0.00111844 0 0)
(0.247592 -0.0255222 0 0.00557556 0 0)
(0.373923 -0.0384788 0 0.0106981 0 0)
(0.574592 -0.166112 0 0.131961 0 0)
(0.0286242 0.00669492 0 0.00171355 0 0)
(0.00422977 0.00236522 0 0.00240671 0 0)
(0.00828995 0.00210014 0 0.00102801 0 0)
(0.0132829 0.00258033 0 0.000848357 0 0)
(0.016361 0.00309298 0 0.00098114 0 0)
(0.0134409 0.00238302 0 0.00108171 0 0)
(0.0116309 0.00154064 0 0.00107411 0 0)
(0.0100757 0.000119351 0 0.000877633 0 0)
(0.0114598 -0.00043757 0 0.000675623 0 0)
(0.0162903 -0.00116147 0 0.000451182 0 0)
(0.0189358 -0.00139262 0 0.000334482 0 0)
(0.0287529 -0.00187345 0 0.000301321 0 0)
(0.0315757 -0.00247393 0 0.000363283 0 0)
(0.0452352 -0.00274209 0 0.000459713 0 0)
(0.0502489 -0.00438827 0 0.00075093 0 0)
(0.0669674 -0.00466451 0 0.00125454 0 0)
(0.0786709 -0.0106274 0 0.00276844 0 0)
(0.114674 -0.0139353 0 0.00545972 0 0)
(0.17646 -0.0489042 0 0.0240441 0 0)
(0.34299 -0.111604 0 0.0919497 0 0)
(0.0299846 0.00581052 0 0.00128155 0 0)
(0.00589454 0.00184911 0 0.00215723 0 0)
(0.00991644 0.00177666 0 0.000842871 0 0)
(0.0161309 0.00236129 0 0.000643499 0 0)
(0.024237 0.00363418 0 0.000849957 0 0)
(0.0259692 0.00400865 0 0.0010765 0 0)
(0.0295265 0.00419904 0 0.00118912 0 0)
(0.0260855 0.00310504 0 0.0010832 0 0)
(0.0269018 0.00251155 0 0.000849152 0 0)
(0.0230291 0.00146148 0 0.000682227 0 0)
(0.0233345 0.0011601 0 0.000478527 0 0)
(0.0203783 0.000247279 0 0.000558943 0 0)
(0.0202653 -1.05078e-05 0 0.000472363 0 0)
(0.0193765 -0.00125982 0 0.000831064 0 0)
(0.019318 -0.00144861 0 0.000867037 0 0)
(0.0227472 -0.00413701 0 0.00207882 0 0)
(0.0232492 -0.00479881 0 0.00261178 0 0)
(0.0441288 -0.0142257 0 0.0100477 0 0)
(0.072478 -0.0274054 0 0.0188648 0 0)
(0.19566 -0.0854774 0 0.118213 0 0)
(0.0336447 0.0051573 0 0.000967828 0 0)
(0.00917095 0.00154764 0 0.00193661 0 0)
(0.0110917 0.00153163 0 0.000790722 0 0)
(0.0172395 0.001936 0 0.000518168 0 0)
(0.0243458 0.0031234 0 0.000695117 0 0)
(0.0268975 0.00373152 0 0.000945806 0 0)
(0.033949 0.00451141 0 0.00111777 0 0)
(0.0332012 0.00390803 0 0.00103345 0 0)
(0.0393653 0.00369472 0 0.000964546 0 0)
(0.0378703 0.00280989 0 0.000764756 0 0)
(0.0423945 0.00293931 0 0.000671007 0 0)
(0.0399792 0.00193685 0 0.000679926 0 0)
(0.0418003 0.0023026 0 0.000815778 0 0)
(0.0383984 0.000637443 0 0.00102119 0 0)
(0.0378412 0.00136024 0 0.00146533 0 0)
(0.0354051 -0.00201755 0 0.00238069 0 0)
(0.0328839 -0.000854325 0 0.00400869 0 0)
(0.0403801 -0.00805503 0 0.00938561 0 0)
(0.0516978 -0.0160814 0 0.0274588 0 0)
(0.127125 -0.0433987 0 0.131879 0 0)
(0.0367813 0.0045647 0 0.000742598 0 0)
(0.0100272 0.00137459 0 0.00170377 0 0)
(0.00975565 0.00140629 0 0.000803109 0 0)
(0.0158974 0.00168534 0 0.000464099 0 0)
(0.0207212 0.00258716 0 0.000588503 0 0)
(0.0228636 0.00312588 0 0.000829212 0 0)
(0.0289894 0.0040015 0 0.00103085 0 0)
(0.0289303 0.00355826 0 0.00105229 0 0)
(0.0364174 0.00344039 0 0.0008593 0 0)
(0.0365037 0.00293705 0 0.000834675 0 0)
(0.044923 0.00288033 0 0.000703436 0 0)
(0.0449687 0.00283795 0 0.000893925 0 0)
(0.052962 0.00251886 0 0.000868622 0 0)
(0.0521731 0.00262347 0 0.00136074 0 0)
(0.0581019 0.00200442 0 0.00157404 0 0)
(0.0561888 0.00152067 0 0.00304542 0 0)
(0.0591419 0.00108472 0 0.00421349 0 0)
(0.0605494 -0.00151799 0 0.0118803 0 0)
(0.0674891 -0.00295269 0 0.0302966 0 0)
(0.111322 -0.0124657 0 0.115481 0 0)
(0.0349928 0.00391139 0 0.000599807 0 0)
(0.00659728 0.0012586 0 0.00150439 0 0)
(0.00640694 0.00126663 0 0.000845482 0 0)
(0.0116356 0.00141411 0 0.000443066 0 0)
(0.0161084 0.00205016 0 0.000535008 0 0)
(0.0187285 0.00264279 0 0.000768428 0 0)
(0.0227449 0.0034287 0 0.000976397 0 0)
(0.0244951 0.00304309 0 0.000917648 0 0)
(0.0296487 0.00284129 0 0.000905527 0 0)
(0.032321 0.00236766 0 0.000848591 0 0)
(0.0380491 0.00253804 0 0.000809639 0 0)
(0.0423905 0.00238176 0 0.000921868 0 0)
(0.0483467 0.0024114 0 0.00103423 0 0)
(0.0532536 0.00235409 0 0.00144692 0 0)
(0.0573541 0.00241488 0 0.00178696 0 0)
(0.0632125 0.00193919 0 0.00318058 0 0)
(0.0647758 0.00201642 0 0.00468821 0 0)
(0.07159 0.0036365 0 0.0128927 0 0)
(0.0739236 0.00229414 0 0.0317432 0 0)
(0.109322 0.0132233 0 0.118847 0 0)
(0.0307965 0.00316555 0 0.000492589 0 0)
(0.00324912 0.000947805 0 0.00132702 0 0)
(0.00433595 0.000945641 0 0.00084677 0 0)
(0.00867699 0.00100762 0 0.000436263 0 0)
(0.0133843 0.00140675 0 0.000518709 0 0)
(0.0166861 0.00218602 0 0.000763295 0 0)
(0.020027 0.00272178 0 0.000937336 0 0)
(0.0228418 0.00244243 0 0.000967291 0 0)
(0.0262828 0.00199448 0 0.000841168 0 0)
(0.0300828 0.00201415 0 0.000872989 0 0)
(0.0343361 0.00166878 0 0.000810057 0 0)
(0.0403623 0.0021319 0 0.00100729 0 0)
(0.0446732 0.00145818 0 0.00103366 0 0)
(0.0498865 0.00234688 0 0.00150868 0 0)
(0.0543316 0.00166895 0 0.00173073 0 0)
(0.060825 0.00205172 0 0.00318993 0 0)
(0.062667 0.00230691 0 0.00476476 0 0)
(0.0681617 0.00414233 0 0.0128394 0 0)
(0.0734354 0.00620588 0 0.0332016 0 0)
(0.102061 0.0214225 0 0.109548 0 0)
(0.0295188 0.00255745 0 0.000417362 0 0)
(0.00292937 0.000456817 0 0.00115001 0 0)
(0.00439125 0.000490075 0 0.000840798 0 0)
(0.00838899 0.000666573 0 0.000414777 0 0)
(0.0128724 0.000924915 0 0.000523307 0 0)
(0.0159736 0.00165567 0 0.000758597 0 0)
(0.0189501 0.0021452 0 0.00089362 0 0)
(0.0214281 0.0019287 0 0.000854021 0 0)
(0.024266 0.00159604 0 0.000869334 0 0)
(0.0279508 0.00143297 0 0.000888981 0 0)
(0.0322383 0.00138083 0 0.000808819 0 0)
(0.0372935 0.00155619 0 0.000944693 0 0)
(0.04122 0.00119365 0 0.000999806 0 0)
(0.046129 0.00191892 0 0.0014489 0 0)
(0.0513056 0.00131792 0 0.00153968 0 0)
(0.055829 0.00255291 0 0.00318333 0 0)
(0.0583768 0.00218341 0 0.00448875 0 0)
(0.0635859 0.00623867 0 0.0134094 0 0)
(0.0701443 0.00818508 0 0.0322181 0 0)
(0.0967091 0.0252497 0 0.108016 0 0)
(0.0297582 0.00208662 0 0.000342853 0 0)
(0.00308942 0.000128192 0 0.000983642 0 0)
(0.00376966 0.000138968 0 0.000829384 0 0)
(0.00685572 0.000513666 0 0.000426153 0 0)
(0.0115016 0.000762558 0 0.000499331 0 0)
(0.0145504 0.0013657 0 0.000707675 0 0)
(0.0168993 0.00177518 0 0.000819616 0 0)
(0.0189276 0.00177266 0 0.00081907 0 0)
(0.0218069 0.00140953 0 0.00078372 0 0)
(0.0254052 0.00130672 0 0.000794381 0 0)
(0.029032 0.00114041 0 0.000724256 0 0)
(0.0333625 0.00145218 0 0.000876343 0 0)
(0.0374599 0.00121686 0 0.000863109 0 0)
(0.0425885 0.00175366 0 0.00128503 0 0)
(0.046253 0.00148295 0 0.00135068 0 0)
(0.0504127 0.00224644 0 0.00291064 0 0)
(0.0530912 0.00303688 0 0.00444667 0 0)
(0.0583818 0.0065098 0 0.013013 0 0)
(0.0647006 0.00988969 0 0.032048 0 0)
(0.0921767 0.0295453 0 0.104669 0 0)
(0.0294498 0.00174467 0 0.000279786 0 0)
(0.00222856 0.000126272 0 0.000808241 0 0)
(0.00274761 8.1141e-05 0 0.00075693 0 0)
(0.00560522 0.000467607 0 0.000414355 0 0)
(0.0101012 0.000765756 0 0.000465354 0 0)
(0.013172 0.00125463 0 0.000636179 0 0)
(0.0151215 0.00161112 0 0.000740297 0 0)
(0.0171257 0.00160403 0 0.000709372 0 0)
(0.0195547 0.00145519 0 0.000706926 0 0)
(0.0231183 0.00123276 0 0.000716236 0 0)
(0.0262249 0.00113227 0 0.000647529 0 0)
(0.0307374 0.00130695 0 0.000764909 0 0)
(0.0342749 0.00123738 0 0.00073328 0 0)
(0.0390068 0.00170107 0 0.00117494 0 0)
(0.0417673 0.00139998 0 0.00119554 0 0)
(0.046554 0.00239553 0 0.00280312 0 0)
(0.0489694 0.00301436 0 0.00445992 0 0)
(0.0547512 0.00637903 0 0.0129354 0 0)
(0.0620502 0.0112032 0 0.031597 0 0)
(0.0909 0.0309816 0 0.100408 0 0)
(0.0290819 0.00143516 0 0.000215784 0 0)
(0.00150451 0.000246583 0 0.000632269 0 0)
(0.00232625 0.000223098 0 0.000596536 0 0)
(0.00501156 0.000514598 0 0.000376742 0 0)
(0.0088384 0.000697449 0 0.00043126 0 0)
(0.0116693 0.00116727 0 0.000573512 0 0)
(0.0134519 0.001399 0 0.000657915 0 0)
(0.0153482 0.00140434 0 0.000664778 0 0)
(0.0174963 0.00119695 0 0.000646145 0 0)
(0.0208256 0.00108278 0 0.000639527 0 0)
(0.0241149 0.000857932 0 0.000554735 0 0)
(0.0285651 0.00110139 0 0.000680488 0 0)
(0.0316769 0.00080528 0 0.000632481 0 0)
(0.0360554 0.00133508 0 0.0010979 0 0)
(0.039004 0.000918947 0 0.00108653 0 0)
(0.0439294 0.00218156 0 0.00277555 0 0)
(0.0466167 0.00238133 0 0.0044516 0 0)
(0.0529769 0.00648511 0 0.0132443 0 0)
(0.0610358 0.01177 0 0.0307284 0 0)
(0.0904889 0.0315242 0 0.0935688 0 0)
(0.0290901 0.00112002 0 0.000177793 0 0)
(0.0011723 0.000150174 0 0.000502649 0 0)
(0.00200962 0.000149059 0 0.000483589 0 0)
(0.00451209 0.000380243 0 0.000353169 0 0)
(0.00828398 0.000443818 0 0.000428335 0 0)
(0.0108012 0.000787455 0 0.000545004 0 0)
(0.0126016 0.00105058 0 0.000623366 0 0)
(0.014238 0.000984252 0 0.000609014 0 0)
(0.0165611 0.000803333 0 0.000638431 0 0)
(0.0194008 0.000556977 0 0.000636081 0 0)
(0.0228625 0.000497544 0 0.000546626 0 0)
(0.0267498 0.000594719 0 0.00065337 0 0)
(0.030327 0.0004446 0 0.000604182 0 0)
(0.0342632 0.000733928 0 0.00108212 0 0)
(0.0376621 0.000693808 0 0.00104449 0 0)
(0.0419003 0.00156652 0 0.00277422 0 0)
(0.0456578 0.00238726 0 0.00454625 0 0)
(0.0516753 0.00621348 0 0.0130867 0 0)
(0.0609019 0.0129092 0 0.030724 0 0)
(0.0913931 0.0317837 0 0.0820275 0 0)
(0.0291385 0.000795966 0 0.000153257 0 0)
(0.00104217 -4.59692e-05 0 0.000421212 0 0)
(0.0019279 -9.85324e-05 0 0.000426423 0 0)
(0.00419968 9.21606e-05 0 0.000364153 0 0)
(0.00791957 0.000102645 0 0.000442408 0 0)
(0.0103204 0.000325827 0 0.000542715 0 0)
(0.0120811 0.000541481 0 0.0006027 0 0)
(0.0134221 0.000519731 0 0.000595351 0 0)
(0.0157894 0.000367871 0 0.000610837 0 0)
(0.0184746 0.00019212 0 0.000599485 0 0)
(0.0219013 0.00019423 0 0.000488459 0 0)
(0.0254724 0.00033226 0 0.000580697 0 0)
(0.0292835 0.000151138 0 0.000521286 0 0)
(0.0328695 0.000487417 0 0.000977198 0 0)
(0.0363695 0.000382642 0 0.000991355 0 0)
(0.0403375 0.00145098 0 0.00260564 0 0)
(0.0446685 0.00219032 0 0.00452903 0 0)
(0.0507451 0.00656804 0 0.0129309 0 0)
(0.0610719 0.0131407 0 0.0292748 0 0)
(0.090959 0.0358086 0 0.0798207 0 0)
(0.0291074 0.000535705 0 0.000128912 0 0)
(0.00115842 -7.82067e-05 0 0.000338574 0 0)
(0.00221016 -0.000174468 0 0.000345597 0 0)
(0.00431848 -4.26689e-05 0 0.000334961 0 0)
(0.00775069 -2.09846e-05 0 0.000406875 0 0)
(0.0101537 0.000131527 0 0.000488533 0 0)
(0.0117552 0.000242441 0 0.000541408 0 0)
(0.0131842 0.000230124 0 0.000540077 0 0)
(0.01526 0.000171413 0 0.0005407 0 0)
(0.0180684 0.000134237 0 0.000528336 0 0)
(0.0211936 0.000112133 0 0.00040622 0 0)
(0.0248444 0.00024123 0 0.000514855 0 0)
(0.0283071 3.79846e-05 0 0.000440873 0 0)
(0.031998 0.000316547 0 0.00089918 0 0)
(0.0351763 0.000197614 0 0.000997289 0 0)
(0.039517 0.00132867 0 0.0023922 0 0)
(0.0437189 0.00211409 0 0.00482103 0 0)
(0.0506456 0.00672034 0 0.0121097 0 0)
(0.0619878 0.0135524 0 0.029807 0 0)
(0.0930893 0.0375041 0 0.0752401 0 0)
(0.0290402 0.00033535 0 0.000104046 0 0)
(0.0010947 -3.82991e-05 0 0.00024873 0 0)
(0.00220073 -8.0126e-05 0 0.00024376 0 0)
(0.00433512 9.72615e-06 0 0.000251089 0 0)
(0.007587 2.88788e-05 0 0.000324673 0 0)
(0.00996219 9.62959e-05 0 0.000378889 0 0)
(0.0115016 0.000226122 0 0.000414254 0 0)
(0.0131081 0.000139602 0 0.000409607 0 0)
(0.0150711 0.000189641 0 0.000422538 0 0)
(0.017775 5.80092e-05 0 0.000420181 0 0)
(0.0206141 8.89805e-05 0 0.000334504 0 0)
(0.0242021 3.8078e-05 0 0.000444148 0 0)
(0.0274665 -3.71209e-05 0 0.000389293 0 0)
(0.0314202 1.28902e-05 0 0.000798679 0 0)
(0.0344996 0.000146654 0 0.000974396 0 0)
(0.0390977 0.00101323 0 0.00224058 0 0)
(0.0432833 0.00224921 0 0.00489047 0 0)
(0.0511262 0.00649154 0 0.0115228 0 0)
(0.0630026 0.0141965 0 0.0296144 0 0)
(0.0942455 0.0344921 0 0.0632562 0 0)
(0.0290333 9.24835e-05 0 9.23592e-05 0 0)
(0.000913737 -4.61013e-05 0 0.000212241 0 0)
(0.00193741 -3.47168e-05 0 0.000189171 0 0)
(0.00404678 2.26903e-05 0 0.000203742 0 0)
(0.00734276 -1.43646e-05 0 0.000273912 0 0)
(0.00966707 2.44192e-05 0 0.000316721 0 0)
(0.0111878 8.1339e-05 0 0.000332688 0 0)
(0.0126348 9.89106e-05 0 0.000332698 0 0)
(0.0147147 5.87824e-05 0 0.000347344 0 0)
(0.017304 -2.28309e-05 0 0.000378003 0 0)
(0.0202968 -0.000174014 0 0.000300569 0 0)
(0.0236632 -5.12684e-05 0 0.000417573 0 0)
(0.0271503 -0.000336623 0 0.000330221 0 0)
(0.0309401 1.17038e-05 0 0.000799982 0 0)
(0.0342922 -0.000191148 0 0.000800653 0 0)
(0.0386482 0.00110194 0 0.00251301 0 0)
(0.0433613 0.00192957 0 0.00403113 0 0)
(0.051376 0.00677261 0 0.0129562 0 0)
(0.0644438 0.013895 0 0.0246979 0 0)
(0.096381 0.0329274 0 0.0652538 0 0)
(0.029003 -0.000112739 0 8.33896e-05 0 0)
(0.000718722 -8.46062e-05 0 0.000196204 0 0)
(0.00170427 -7.2339e-05 0 0.000169014 0 0)
(0.00381724 -6.68652e-05 0 0.000183976 0 0)
(0.00719517 -7.43956e-05 0 0.000242505 0 0)
(0.00944594 -0.000181961 0 0.000276965 0 0)
(0.0109429 -0.000114503 0 0.000285419 0 0)
(0.0121686 -0.000191212 0 0.000300565 0 0)
(0.0143179 -9.53313e-05 0 0.000306784 0 0)
(0.0169103 -0.00029375 0 0.000351584 0 0)
(0.0201964 -0.00026295 0 0.000272878 0 0)
(0.0234346 -0.000345645 0 0.000390798 0 0)
(0.0271312 -0.000335283 0 0.000313819 0 0)
(0.0305886 -0.000363551 0 0.000696123 0 0)
(0.0342538 -9.1341e-05 0 0.000935906 0 0)
(0.0384725 0.000526514 0 0.00214834 0 0)
(0.0438933 0.00226638 0 0.00461102 0 0)
(0.0520358 0.00590326 0 0.011472 0 0)
(0.0664632 0.0149462 0 0.0252719 0 0)
(0.0990993 0.0295174 0 0.0578894 0 0)
(0.0289602 -0.000353083 0 8.19269e-05 0 0)
(0.000644294 -0.000125186 0 0.000208003 0 0)
(0.0016105 -0.000114537 0 0.00017598 0 0)
(0.00375119 -0.000159999 0 0.000178501 0 0)
(0.00715409 -0.000181109 0 0.000234465 0 0)
(0.00940815 -0.000350601 0 0.00025907 0 0)
(0.0109123 -0.000391301 0 0.00028422 0 0)
(0.0121231 -0.000446259 0 0.00030688 0 0)
(0.0143002 -0.000384027 0 0.000316761 0 0)
(0.0169154 -0.000445168 0 0.000338482 0 0)
(0.0203206 -0.000493821 0 0.000272113 0 0)
(0.0235648 -0.000439612 0 0.000356946 0 0)
(0.0273193 -0.000631529 0 0.000309845 0 0)
(0.0307275 -0.000455704 0 0.000652301 0 0)
(0.0346387 -0.000566068 0 0.000931588 0 0)
(0.0390584 0.000533262 0 0.00211072 0 0)
(0.0449775 0.00158548 0 0.00445486 0 0)
(0.0537547 0.00627974 0 0.0111749 0 0)
(0.0689016 0.0136238 0 0.0240406 0 0)
(0.101993 0.0323849 0 0.0566201 0 0)
(0.0289023 -0.000585481 0 8.46183e-05 0 0)
(0.000668229 -0.000161467 0 0.000239708 0 0)
(0.0016377 -0.000141816 0 0.000196187 0 0)
(0.00383478 -0.000244791 0 0.000175881 0 0)
(0.00723495 -0.000289593 0 0.000227463 0 0)
(0.0095958 -0.000563317 0 0.000257926 0 0)
(0.0111117 -0.00063552 0 0.000288708 0 0)
(0.012497 -0.00071845 0 0.000323379 0 0)
(0.014615 -0.00059561 0 0.000317449 0 0)
(0.01735 -0.000651128 0 0.000341305 0 0)
(0.0206462 -0.000669306 0 0.000277575 0 0)
(0.024018 -0.000664989 0 0.000348592 0 0)
(0.027646 -0.00084864 0 0.000324554 0 0)
(0.0313379 -0.000736201 0 0.000618802 0 0)
(0.0353076 -0.000847627 0 0.000964078 0 0)
(0.0401304 0.000302766 0 0.00207935 0 0)
(0.0463421 0.00122369 0 0.004367 0 0)
(0.0558386 0.00629803 0 0.0109291 0 0)
(0.0721862 0.0126668 0 0.0233081 0 0)
(0.106443 0.0343242 0 0.0549629 0 0)
(0.0288565 -0.000830983 0 9.20011e-05 0 0)
(0.000677756 -0.000185824 0 0.000291648 0 0)
(0.00167876 -0.000150306 0 0.000228543 0 0)
(0.00403367 -0.000311754 0 0.000173451 0 0)
(0.00749487 -0.000383839 0 0.000221256 0 0)
(0.00992992 -0.000770177 0 0.000265899 0 0)
(0.0114793 -0.000835277 0 0.000292397 0 0)
(0.0130133 -0.000983072 0 0.000350049 0 0)
(0.0151461 -0.000738896 0 0.000310728 0 0)
(0.0179705 -0.000866621 0 0.000349151 0 0)
(0.0212483 -0.00075797 0 0.000274213 0 0)
(0.0247729 -0.000975101 0 0.000371548 0 0)
(0.0284265 -0.000926651 0 0.000335966 0 0)
(0.0323312 -0.0011749 0 0.000634834 0 0)
(0.0364001 -0.000805068 0 0.0010009 0 0)
(0.041547 -0.00032965 0 0.00202086 0 0)
(0.0481102 0.00148367 0 0.00446259 0 0)
(0.058276 0.00519443 0 0.0100442 0 0)
(0.0758889 0.0131451 0 0.023623 0 0)
(0.109474 0.0290334 0 0.0442598 0 0)
(0.0287838 -0.0011169 0 0.000109141 0 0)
(0.000601494 -0.000208995 0 0.000364708 0 0)
(0.00158569 -0.000155633 0 0.00029008 0 0)
(0.00417893 -0.000349805 0 0.00016677 0 0)
(0.0078167 -0.000496886 0 0.000221076 0 0)
(0.0103534 -0.000930319 0 0.000281755 0 0)
(0.011937 -0.00108417 0 0.000331251 0 0)
(0.0135878 -0.00117108 0 0.000383302 0 0)
(0.0158012 -0.000986568 0 0.000344026 0 0)
(0.0187332 -0.000989998 0 0.000357851 0 0)
(0.0221087 -0.00100678 0 0.000303326 0 0)
(0.0258039 -0.00110439 0 0.000383424 0 0)
(0.0295851 -0.00124205 0 0.000352496 0 0)
(0.0336439 -0.00130619 0 0.000697638 0 0)
(0.0378654 -0.00119834 0 0.000888081 0 0)
(0.0433242 -0.000447426 0 0.00234805 0 0)
(0.0502862 0.000918528 0 0.00367571 0 0)
(0.0612808 0.00493819 0 0.0111434 0 0)
(0.0799279 0.0118195 0 0.0196695 0 0)
(0.114148 0.0257792 0 0.0464758 0 0)
(0.0287072 -0.0014021 0 0.000134573 0 0)
(0.00055193 -0.000257937 0 0.000472853 0 0)
(0.00151106 -0.000200239 0 0.000364306 0 0)
(0.00433675 -0.000422122 0 0.000178444 0 0)
(0.00814901 -0.000589849 0 0.000225597 0 0)
(0.0108739 -0.00118061 0 0.0003224 0 0)
(0.012574 -0.00127878 0 0.000365474 0 0)
(0.0143899 -0.00148519 0 0.00045314 0 0)
(0.0166879 -0.00112807 0 0.000361313 0 0)
(0.0198144 -0.00129523 0 0.000403856 0 0)
(0.0232886 -0.00109897 0 0.000313685 0 0)
(0.0271994 -0.00147336 0 0.000405421 0 0)
(0.0310682 -0.00129551 0 0.000378292 0 0)
(0.03535 -0.00180715 0 0.000664615 0 0)
(0.0397536 -0.00122406 0 0.000998562 0 0)
(0.0456357 -0.00116595 0 0.00213758 0 0)
(0.0531187 0.000889395 0 0.00397702 0 0)
(0.0650407 0.0036742 0 0.0102413 0 0)
(0.0846014 0.0113735 0 0.0193817 0 0)
(0.120251 0.0215231 0 0.0447335 0 0)
(0.0286954 -0.00177194 0 0.000175063 0 0)
(0.000585866 -0.000328151 0 0.000593593 0 0)
(0.00160146 -0.000289299 0 0.000474271 0 0)
(0.0046827 -0.000507793 0 0.000184116 0 0)
(0.0086446 -0.000760803 0 0.000241319 0 0)
(0.0115507 -0.00140291 0 0.000365386 0 0)
(0.0134879 -0.00160046 0 0.000440027 0 0)
(0.0154718 -0.00172093 0 0.000514943 0 0)
(0.0179319 -0.00140954 0 0.00041931 0 0)
(0.021219 -0.0014803 0 0.000432614 0 0)
(0.024876 -0.00140171 0 0.000358515 0 0)
(0.0289714 -0.001664 0 0.000427149 0 0)
(0.0330832 -0.00164917 0 0.000417799 0 0)
(0.0375902 -0.00204384 0 0.000685621 0 0)
(0.0423179 -0.00171734 0 0.00102164 0 0)
(0.0485225 -0.00143 0 0.00210724 0 0)
(0.0567119 7.47568e-05 0 0.0039324 0 0)
(0.0693806 0.00318523 0 0.00963697 0 0)
(0.0900977 0.00931648 0 0.0189196 0 0)
(0.126556 0.0216732 0 0.042465 0 0)
(0.0288723 -0.00216245 0 0.000230985 0 0)
(0.000687825 -0.000426154 0 0.000760075 0 0)
(0.00183545 -0.000421342 0 0.000567045 0 0)
(0.0052346 -0.000628017 0 0.000211025 0 0)
(0.00940403 -0.00094721 0 0.000268258 0 0)
(0.0124465 -0.00170864 0 0.000437905 0 0)
(0.0147234 -0.00191657 0 0.000521099 0 0)
(0.0168896 -0.00206213 0 0.000608524 0 0)
(0.0195921 -0.00167088 0 0.000477463 0 0)
(0.0230191 -0.00178114 0 0.000488569 0 0)
(0.026906 -0.00166586 0 0.000393368 0 0)
(0.0312593 -0.00204273 0 0.000475996 0 0)
(0.0356338 -0.00193842 0 0.000453466 0 0)
(0.0405104 -0.00250929 0 0.000746963 0 0)
(0.0455137 -0.00210669 0 0.00103927 0 0)
(0.052143 -0.00199075 0 0.00216878 0 0)
(0.0608267 -0.000577719 0 0.00387568 0 0)
(0.0744473 0.00228339 0 0.00928938 0 0)
(0.0965341 0.00747461 0 0.0187958 0 0)
(0.134078 0.0208934 0 0.0410968 0 0)
(0.0295037 -0.00264775 0 0.000311138 0 0)
(0.000903797 -0.00054793 0 0.000962194 0 0)
(0.00229281 -0.000630329 0 0.00063982 0 0)
(0.00594143 -0.000784974 0 0.000254014 0 0)
(0.0106191 -0.00121845 0 0.000318863 0 0)
(0.0133987 -0.00203842 0 0.000534736 0 0)
(0.0165202 -0.00232702 0 0.000634926 0 0)
(0.0183898 -0.00243751 0 0.000735424 0 0)
(0.0219426 -0.0020188 0 0.000560614 0 0)
(0.0249752 -0.00210203 0 0.000573247 0 0)
(0.0296515 -0.00196253 0 0.000435656 0 0)
(0.0336879 -0.00247284 0 0.000560602 0 0)
(0.0389302 -0.002214 0 0.000480611 0 0)
(0.0436496 -0.0030593 0 0.000845331 0 0)
(0.0495493 -0.00239737 0 0.00102495 0 0)
(0.0562155 -0.00280312 0 0.00223854 0 0)
(0.0657329 -0.000903543 0 0.00375901 0 0)
(0.080173 0.000719566 0 0.00883297 0 0)
(0.103536 0.00668693 0 0.0183829 0 0)
(0.142063 0.0151606 0 0.0359259 0 0)
(0.030351 -0.00323906 0 0.000422144 0 0)
(0.00128121 -0.000699923 0 0.00119106 0 0)
(0.00313226 -0.000934034 0 0.000700595 0 0)
(0.00678746 -0.000975616 0 0.000306581 0 0)
(0.0125271 -0.00161623 0 0.000389437 0 0)
(0.0143015 -0.00233227 0 0.000626126 0 0)
(0.0192279 -0.00287664 0 0.000770132 0 0)
(0.0197483 -0.00273374 0 0.000834879 0 0)
(0.0254724 -0.0025743 0 0.000682471 0 0)
(0.0268284 -0.00230231 0 0.000627526 0 0)
(0.0338101 -0.00246041 0 0.000506936 0 0)
(0.035971 -0.00269422 0 0.000607966 0 0)
(0.0437972 -0.00278832 0 0.00055398 0 0)
(0.0465526 -0.00326274 0 0.000919033 0 0)
(0.0553517 -0.00314871 0 0.00104817 0 0)
(0.0601769 -0.00308142 0 0.00236148 0 0)
(0.0723374 -0.00192816 0 0.00345973 0 0)
(0.0855293 0.000412246 0 0.00901815 0 0)
(0.110792 0.00521428 0 0.0159736 0 0)
(0.149005 0.0149205 0 0.0372882 0 0)
(0.0306618 -0.00388153 0 0.000568431 0 0)
(0.00171089 -0.000921213 0 0.00146062 0 0)
(0.00415469 -0.00131105 0 0.000759777 0 0)
(0.00767543 -0.00126211 0 0.000391438 0 0)
(0.0148207 -0.00213666 0 0.000486243 0 0)
(0.0153164 -0.00270762 0 0.000745484 0 0)
(0.0225241 -0.00349076 0 0.000906562 0 0)
(0.0211335 -0.00309597 0 0.000958144 0 0)
(0.0299207 -0.00323806 0 0.000804811 0 0)
(0.028669 -0.00262156 0 0.000707648 0 0)
(0.0392697 -0.00302527 0 0.000565361 0 0)
(0.0381153 -0.00302335 0 0.000662506 0 0)
(0.0501006 -0.00340273 0 0.000606172 0 0)
(0.0486572 -0.00357147 0 0.000970615 0 0)
(0.061946 -0.00375929 0 0.00108347 0 0)
(0.061734 -0.00334638 0 0.00232184 0 0)
(0.0775356 -0.00237711 0 0.00339021 0 0)
(0.0851772 0.00120168 0 0.00832362 0 0)
(0.111332 0.00683223 0 0.0144408 0 0)
(0.148025 0.0231978 0 0.035615 0 0)
(0.0302032 -0.00451589 0 0.000748618 0 0)
(0.00218799 -0.00118032 0 0.00172984 0 0)
(0.00500173 -0.00161605 0 0.000810929 0 0)
(0.00861714 -0.00160289 0 0.000480146 0 0)
(0.0169113 -0.00273294 0 0.000611256 0 0)
(0.0169489 -0.00316447 0 0.000877877 0 0)
(0.0257311 -0.00411972 0 0.00105525 0 0)
(0.0232118 -0.00348226 0 0.00107312 0 0)
(0.0340503 -0.00387938 0 0.000936941 0 0)
(0.0306673 -0.00295802 0 0.000782786 0 0)
(0.0434516 -0.00354206 0 0.000627319 0 0)
(0.0388077 -0.00321393 0 0.000705579 0 0)
(0.0523266 -0.00377936 0 0.000644711 0 0)
(0.0456891 -0.00351032 0 0.00100018 0 0)
(0.0590074 -0.00360629 0 0.00106186 0 0)
(0.0522849 -0.002628 0 0.00218343 0 0)
(0.0660291 -0.000801064 0 0.00321322 0 0)
(0.0682443 0.00420359 0 0.00704352 0 0)
(0.09297 0.0141896 0 0.0133626 0 0)
(0.140799 0.0364927 0 0.0284584 0 0)
(0.0293119 -0.00513795 0 0.000979006 0 0)
(0.00252535 -0.0014426 0 0.00199072 0 0)
(0.00555441 -0.00176597 0 0.000836477 0 0)
(0.00971689 -0.00194473 0 0.00057509 0 0)
(0.0188679 -0.00329254 0 0.000751706 0 0)
(0.0193297 -0.00367534 0 0.00101838 0 0)
(0.0283058 -0.00459524 0 0.00118507 0 0)
(0.0248908 -0.00371881 0 0.00115496 0 0)
(0.0342228 -0.00404967 0 0.00100805 0 0)
(0.0283706 -0.00283903 0 0.000796661 0 0)
(0.037393 -0.00333636 0 0.000636621 0 0)
(0.0293854 -0.0025258 0 0.000668646 0 0)
(0.0367394 -0.00297545 0 0.000621425 0 0)
(0.0274382 -0.00192783 0 0.000915527 0 0)
(0.0332551 -0.00187979 0 0.00094593 0 0)
(0.0269662 0.000338092 0 0.00190873 0 0)
(0.0345685 0.00254132 0 0.00267395 0 0)
(0.0445527 0.0100452 0 0.00591824 0 0)
(0.0743109 0.0217939 0 0.0105394 0 0)
(0.153172 0.0504939 0 0.0221921 0 0)
(0.0283869 -0.00583004 0 0.0012914 0 0)
(0.00269417 -0.00177074 0 0.00219711 0 0)
(0.00608339 -0.00191152 0 0.000888221 0 0)
(0.0112342 -0.00234268 0 0.000695452 0 0)
(0.0200523 -0.00373735 0 0.000903228 0 0)
(0.0196452 -0.00385634 0 0.00113825 0 0)
(0.0243168 -0.00421548 0 0.00124645 0 0)
(0.018084 -0.0028434 0 0.00115042 0 0)
(0.0202647 -0.00268733 0 0.000953102 0 0)
(0.0135297 -0.0012514 0 0.000705754 0 0)
(0.0145628 -0.00143538 0 0.000536698 0 0)
(0.0101348 -0.000306259 0 0.000540181 0 0)
(0.0101267 -0.000482071 0 0.000491975 0 0)
(0.00999163 0.00106329 0 0.000723065 0 0)
(0.0108774 0.00108443 0 0.000728406 0 0)
(0.0189947 0.00410961 0 0.00148681 0 0)
(0.0271791 0.00604486 0 0.00205392 0 0)
(0.0582574 0.0148313 0 0.00446759 0 0)
(0.104201 0.0265637 0 0.00793661 0 0)
(0.218345 0.0544904 0 0.0154078 0 0)
(0.0282213 -0.00672016 0 0.00171634 0 0)
(0.00310109 -0.00230905 0 0.00242501 0 0)
(0.00651128 -0.00215259 0 0.00105635 0 0)
(0.010786 -0.00252393 0 0.000878666 0 0)
(0.0140132 -0.0031402 0 0.00101103 0 0)
(0.00957154 -0.0022126 0 0.00111776 0 0)
(0.00763519 -0.00150925 0 0.00111155 0 0)
(0.00469131 0.00014754 0 0.000943697 0 0)
(0.00501382 0.00044312 0 0.000722145 0 0)
(0.00947128 0.00149188 0 0.000497613 0 0)
(0.00994551 0.00131848 0 0.000360364 0 0)
(0.0217474 0.00227502 0 0.000353324 0 0)
(0.0213403 0.00213925 0 0.00032541 0 0)
(0.041299 0.0036453 0 0.000484455 0 0)
(0.0429305 0.00342281 0 0.000491973 0 0)
(0.0727821 0.00662293 0 0.00102973 0 0)
(0.0867898 0.00759052 0 0.00141282 0 0)
(0.140184 0.0168574 0 0.00309056 0 0)
(0.205102 0.0254404 0 0.00532964 0 0)
(0.348757 0.0525133 0 0.00990285 0 0)
(0.0300744 -0.00822953 0 0.00239686 0 0)
(0.00318579 -0.0026175 0 0.00270611 0 0)
(0.00420733 -0.0014541 0 0.00120566 0 0)
(0.00428364 -0.000815218 0 0.000894257 0 0)
(0.00279941 -1.43988e-05 0 0.000842909 0 0)
(0.00485927 0.00158196 0 0.000818573 0 0)
(0.0109967 0.00242317 0 0.000748376 0 0)
(0.0269642 0.00327984 0 0.000589947 0 0)
(0.0379063 0.00305004 0 0.000421741 0 0)
(0.0614591 0.0033284 0 0.000278252 0 0)