/*--------------------------------*- C++ -*----------------------------------*\
| =========                 |                                                 |
| \\      /  F ield         | OpenFOAM: The Open Source CFD Toolbox           |
|  \\    /   O peration     | Version:  2.4.0                                 |
|   \\  /    A nd           | Web:      www.OpenFOAM.org                      |
|    \\/     M anipulation  |                                                 |
\*---------------------------------------------------------------------------*/
FoamFile
{
    version     2.0;
    format      ascii;
    class       volScalarField;
    location    "0.195";
    object      k;
}
// * * * * * * * * * * * * * * * * * * * * * * * * * * * * * * * * * * * * * //

dimensions      [0 2 -2 0 0 0 0];

internalField   nonuniform List<scalar> 
17600
(
9.29549
7.40839
5.12847
3.93163
3.34293
2.95294
2.69907
2.47879
2.32767
2.22927
2.11853
2.07334
2.01371
1.98644
1.97414
1.98004
2.14314
2.08952
2.67132
3.00419
4.51219
6.20212
5.84597
5.04879
4.4228
3.93027
3.60215
3.31899
3.10596
2.97662
2.8056
2.73759
2.65707
2.57786
2.5482
2.52803
2.59995
2.52838
2.9733
3.09287
1.32891
3.27809
4.00099
3.96003
3.77258
3.45809
3.226
3.02106
2.83027
2.732
2.57653
2.50377
2.4415
2.3517
2.30322
2.28794
2.2563
2.20266
2.34924
2.39698
0.20871
1.19252
1.93101
2.31875
2.52092
2.51449
2.47015
2.41021
2.29065
2.24513
2.15296
2.08689
2.05399
1.99205
1.92346
1.92255
1.8535
1.82183
1.76391
1.8219
0.0261259
0.264595
0.646826
0.953121
1.25221
1.4323
1.52696
1.61751
1.6117
1.61734
1.61103
1.58032
1.57104
1.55728
1.50278
1.5017
1.44838
1.42827
1.27589
1.29226
0.00275545
0.0437472
0.14673
0.253397
0.419962
0.580671
0.680684
0.833189
0.895032
0.947062
1.01397
1.02351
1.0439
1.0662
1.05705
1.05095
1.02799
1.02139
0.880383
0.813455
0.000285751
0.00634978
0.0240563
0.0461002
0.0878046
0.162856
0.204317
0.291404
0.358756
0.395471
0.479582
0.508285
0.547764
0.585556
0.618766
0.613786
0.613439
0.612691
0.546831
0.437316
5.22268e-05
0.000881365
0.00326918
0.00651973
0.0129378
0.0297412
0.0419009
0.0652705
0.0990917
0.113857
0.151949
0.174661
0.199087
0.226501
0.267491
0.266612
0.274033
0.270637
0.24283
0.164936
2.88809e-05
0.000145961
0.000450137
0.000884489
0.00167449
0.00401847
0.00626108
0.00964893
0.0183694
0.0220523
0.0320225
0.0403761
0.0459951
0.0582486
0.07633
0.0764645
0.0819165
0.0805644
0.0699221
0.044678
2.43119e-05
4.7584e-05
9.08305e-05
0.000169701
0.000260041
0.000615439
0.000878469
0.0014029
0.00274197
0.00317744
0.00492187
0.00613529
0.00711835
0.010529
0.0137399
0.0138914
0.0158997
0.0157617
0.0137261
0.00797163
2.35673e-05
3.36031e-05
5.37649e-05
7.64023e-05
9.08745e-05
0.000145313
0.000185023
0.000304426
0.000453964
0.000511633
0.000720501
0.000779698
0.000891549
0.00134664
0.00154734
0.00197971
0.00240585
0.00235411
0.0020754
0.00163532
2.20991e-05
3.08575e-05
5.03183e-05
6.06357e-05
6.30895e-05
6.74183e-05
9.9716e-05
0.000116359
0.000171851
0.000204095
0.000206015
0.000215315
0.000222626
0.000235838
0.000295177
0.000429903
0.000460833
0.000503324
0.000483374
0.000626956
2.16138e-05
2.94526e-05
4.87669e-05
5.99459e-05
5.63107e-05
5.51961e-05
6.56312e-05
7.19716e-05
0.000116667
0.000119344
0.000119459
0.000144511
0.000137413
0.000131659
0.000161108
0.000161648
0.000171979
0.000232699
0.0002474
0.000299965
2.13234e-05
2.78083e-05
4.4841e-05
5.58857e-05
5.40336e-05
6.48903e-05
6.15479e-05
6.38448e-05
8.61667e-05
8.99688e-05
0.000111117
0.000117121
0.000109544
0.000109333
0.000109659
0.000103532
0.000118286
0.000147909
0.000156066
0.0001744
2.11351e-05
2.67971e-05
4.19069e-05
4.78487e-05
5.20361e-05
5.4147e-05
5.09822e-05
5.41914e-05
5.712e-05
6.27858e-05
8.8462e-05
8.43001e-05
8.00986e-05
8.45167e-05
7.96459e-05
8.0695e-05
8.86997e-05
9.371e-05
0.000105243
0.000139232
2.13089e-05
2.81469e-05
4.02157e-05
4.11835e-05
4.90535e-05
4.94446e-05
5.19029e-05
5.27025e-05
5.3786e-05
6.26011e-05
6.59612e-05
6.65723e-05
7.02087e-05
7.00408e-05
6.90164e-05
7.48916e-05
7.427e-05
7.79288e-05
9.42799e-05
0.000119614
2.13343e-05
3.0755e-05
3.46812e-05
3.87649e-05
4.14836e-05
4.30292e-05
4.97033e-05
4.94515e-05
4.99848e-05
5.65222e-05
5.67449e-05
6.02751e-05
6.37929e-05
6.35978e-05
7.16714e-05
7.04192e-05
7.06881e-05
7.61748e-05
8.46979e-05
8.84313e-05
2.06551e-05
2.77668e-05
3.11588e-05
3.89898e-05
3.98874e-05
4.35419e-05
4.4128e-05
4.52468e-05
5.0823e-05
5.17941e-05
5.32376e-05
5.46524e-05
5.50352e-05
5.55757e-05
6.50744e-05
6.28356e-05
6.49458e-05
6.61486e-05
6.7046e-05
7.43234e-05
2.05259e-05
2.48203e-05
3.46266e-05
3.73713e-05
3.70003e-05
3.76506e-05
4.1136e-05
4.23639e-05
4.35527e-05
4.36213e-05
4.62797e-05
4.82421e-05
4.94263e-05
5.65106e-05
5.51998e-05
5.51851e-05
5.53759e-05
5.74809e-05
5.8134e-05
7.57648e-05
2.05584e-05
2.45029e-05
3.29455e-05
3.6814e-05
3.72513e-05
3.91295e-05
4.05404e-05
4.15741e-05
4.17047e-05
4.255e-05
4.56087e-05
4.73363e-05
5.0194e-05
5.00758e-05
5.00792e-05
5.11321e-05
5.24922e-05
5.43931e-05
5.53255e-05
7.0166e-05
2.0597e-05
2.44275e-05
3.25872e-05
3.75417e-05
3.74933e-05
3.7744e-05
3.84208e-05
3.99598e-05
4.15035e-05
4.21426e-05
4.4369e-05
4.43174e-05
4.53166e-05
4.62679e-05
4.88997e-05
4.99303e-05
5.07383e-05
5.04279e-05
5.2152e-05
5.78111e-05
2.05924e-05
2.43535e-05
3.31116e-05
3.63691e-05
3.65753e-05
3.71109e-05
3.98648e-05
4.19941e-05
4.12649e-05
4.10223e-05
4.13938e-05
4.22451e-05
4.49907e-05
4.76419e-05
4.88875e-05
4.89987e-05
4.84994e-05
4.86e-05
5.15019e-05
5.48913e-05
2.06619e-05
2.60339e-05
3.08896e-05
3.91581e-05
3.95231e-05
4.0716e-05
4.32833e-05
4.22462e-05
4.08252e-05
4.21862e-05
4.32286e-05
4.47516e-05
4.96892e-05
4.98154e-05
4.93336e-05
4.94555e-05
4.96904e-05
5.11102e-05
5.38968e-05
5.53455e-05
2.08122e-05
2.49019e-05
3.47402e-05
4.14405e-05
4.10193e-05
4.2643e-05
4.30357e-05
4.23318e-05
4.40769e-05
4.69977e-05
4.77764e-05
4.93883e-05
5.14052e-05
5.12859e-05
5.1283e-05
5.34113e-05
5.40732e-05
5.59456e-05
5.67543e-05
6.09489e-05
2.09005e-05
2.58241e-05
3.84306e-05
4.15444e-05
4.12645e-05
4.47452e-05
4.58586e-05
4.77179e-05
5.12392e-05
5.09276e-05
5.08273e-05
5.16166e-05
5.4116e-05
5.56614e-05
5.89039e-05
6.11347e-05
6.06166e-05
6.09267e-05
6.31573e-05
8.13851e-05
2.1209e-05
2.86937e-05
3.61128e-05
4.14863e-05
4.61951e-05
5.27939e-05
5.40058e-05
5.61091e-05
5.53505e-05
5.36648e-05
5.47146e-05
5.91906e-05
6.51979e-05
6.94051e-05
7.12921e-05
7.10754e-05
7.03977e-05
7.26747e-05
8.83947e-05
0.000181186
2.1473e-05
2.89572e-05
3.50327e-05
5.0335e-05
5.72904e-05
6.13018e-05
6.33127e-05
6.17097e-05
5.79194e-05
5.82053e-05
6.55208e-05
7.4788e-05
8.53271e-05
8.95183e-05
8.86141e-05
8.95589e-05
9.39246e-05
0.000117486
0.000223132
0.000695552
2.166e-05
2.85101e-05
4.08495e-05
6.39094e-05
6.85487e-05
7.09196e-05
7.01957e-05
6.37242e-05
6.2726e-05
6.95421e-05
9.31905e-05
0.000107986
0.000128005
0.000130456
0.000132948
0.000154118
0.00021362
0.00041328
0.00106789
0.00344336
2.25037e-05
2.97084e-05
5.79865e-05
7.80618e-05
8.12432e-05
7.91573e-05
7.55137e-05
7.53964e-05
8.60879e-05
0.000134269
0.000195274
0.000215751
0.000285979
0.00033322
0.00040662
0.000669212
0.00120115
0.00255779
0.00596524
0.0175633
2.2803e-05
3.35596e-05
9.07806e-05
0.000105119
0.000104978
0.000111252
0.000127543
0.000167223
0.000296026
0.000564394
0.000777357
0.000913454
0.00148772
0.00209474
0.0027611
0.00508203
0.00811648
0.0152397
0.0287418
0.0759157
2.44419e-05
5.02525e-05
0.000175008
0.000206305
0.000238963
0.000431373
0.000705835
0.00111422
0.00211482
0.00391799
0.00524641
0.00645519
0.0106627
0.0152043
0.0188407
0.0308026
0.0427581
0.0709599
0.107238
0.229403
2.80363e-05
0.00014802
0.000605913
0.000923613
0.00143006
0.0036166
0.00632822
0.00927727
0.0162805
0.0266363
0.0337177
0.0406764
0.0612391
0.0786356
0.0911105
0.12938
0.161252
0.229745
0.298918
0.50233
4.96193e-05
0.000863982
0.00368096
0.00691709
0.0117674
0.0281827
0.0453966
0.0602546
0.0957118
0.129704
0.153641
0.178098
0.236672
0.26987
0.298013
0.374529
0.427865
0.526665
0.614479
0.824539
0.000283593
0.0062533
0.0257739
0.049156
0.0803179
0.158997
0.217984
0.268001
0.369643
0.424947
0.478252
0.523036
0.603205
0.637352
0.676775
0.760205
0.812972
0.899197
0.980008
1.14464
0.00276397
0.0435201
0.153503
0.254883
0.398491
0.587382
0.701755
0.799505
0.923233
0.968112
1.01841
1.0454
1.10057
1.1123
1.14023
1.18128
1.22294
1.26689
1.33296
1.41106
0.0261287
0.263471
0.656499
0.945198
1.2406
1.44003
1.54195
1.59393
1.63887
1.62582
1.62321
1.60305
1.60525
1.58366
1.58798
1.58119
1.59283
1.5933
1.61222
1.60114
0.207987
1.19349
1.93521
2.30699
2.52369
2.51525
2.47867
2.3927
2.32721
2.22327
2.17835
2.08749
2.05909
1.98901
1.97059
1.90859
1.89046
1.82819
1.78077
1.68383
1.32307
3.28383
3.99968
3.95182
3.7853
3.44116
3.23874
3.01
2.8518
2.68958
2.60483
2.46693
2.41141
2.29885
2.25452
2.12809
2.06912
1.92673
1.81346
1.62139
4.50409
6.20811
5.84433
5.03352
4.45069
3.89729
3.61398
3.31028
3.10766
2.9189
2.81506
2.65548
2.57564
2.43056
2.36101
2.17402
2.06835
1.83962
1.646
1.35441
9.28461
7.412
5.12746
3.91862
3.36566
2.92512
2.70022
2.46767
2.31679
2.17049
2.09169
1.97366
1.89562
1.76093
1.69109
1.50712
1.37577
1.14273
0.939572
0.663086
1.66258
1.26149
1.05593
1.03527
1.03115
0.953638
0.746445
0.407798
0.194734
0.102226
0.0508597
0.0328017
0.018926
0.0190685
0.0184607
0.0204402
0.0240691
0.0422243
0.148455
0.230175
0.242956
0.231036
0.168762
0.113305
0.0791256
0.0596966
0.0515325
0.0493363
0.049318
0.0533886
0.0588914
0.059934
0.0619629
0.062991
0.0613294
0.0545251
0.0509187
0.0513491
0.0670237
0.0907177
0.091129
0.0676469
0.0504897
0.0538262
0.0990329
0.23012
0.276472
0.271718
0.236569
0.168246
0.12727
0.106888
0.0934251
0.0849723
0.0807055
0.0758694
0.0726597
0.070134
0.0701318
0.0718821
0.0750333
0.0764169
0.0785508
0.0799534
0.0791629
0.0738446
0.0661158
0.0589602
0.0529624
0.0500582
0.0496499
0.0494348
0.0485591
0.0476386
0.0465689
0.0430442
0.0346155
0.0288679
0.0232409
0.0171779
0.0127184
0.0102775
0.00945978
0.0094853
0.0110699
0.0144174
0.0157304
0.0162372
0.0173113
0.0209158
0.0334851
0.0691946
0.086694
0.090538
0.0878266
0.0767788
0.0663418
0.0558116
0.0489655
0.0484674
0.0505569
0.0551482
0.0602555
0.0637238
0.0636993
0.0594081
0.0541543
0.0527642
0.0532544
0.0561733
0.0577425
0.0588806
0.0619209
0.0697227
0.0980951
0.15122
0.16759
0.147483
0.0815304
0.0473271
0.0365556
0.0321772
0.0257928
0.0198263
0.0162129
0.014867
0.0143417
0.0142112
0.0143128
0.0147448
0.0154246
0.0164932
0.0184614
0.0207733
0.022165
0.0244637
0.026666
0.029762
0.0368578
0.0440797
0.0501176
0.0541457
0.0623838
0.0738001
0.0767723
0.0747262
0.0571043
0.0448703
0.0365535
0.0290031
0.0256764
0.025906
0.0313405
0.0341722
0.0358464
0.03804
0.0380444
0.0358359
0.0282226
0.0228884
0.0215067
0.0223935
0.0245156
0.0289853
0.030686
0.0388497
0.0438484
0.0450883
0.0477491
0.0552859
0.0702202
0.081069
0.0846934
0.0849695
0.0849982
0.0859667
0.0850109
0.0834554
0.0733646
0.0513508
0.033761
0.0207278
0.0145743
0.0120191
0.011505
0.0120075
0.0153214
0.0198807
0.0249284
0.0286619
0.0303724
0.0302959
0.0295424
0.0292849
0.0305252
0.0337189
0.0378407
0.0485709
0.126601
0.66091
2.46053
1.97187
1.59485
1.28593
1.11934
0.85375
0.509489
0.281926
0.129461
0.0675525
0.0301381
0.0238935
0.0136866
0.0129494
0.0159732
0.0188673
0.0192178
0.0299578
0.122148
0.216597
0.236538
0.231963
0.185035
0.121263
0.0836689
0.0633682
0.0550837
0.0514276
0.0501169
0.0532793
0.0573418
0.0588697
0.0620085
0.0624627
0.0603148
0.0537729
0.0512843
0.0529296
0.076732
0.0957603
0.0920889
0.0606938
0.0504504
0.0605513
0.139266
0.26168
0.282496
0.269401
0.213236
0.153693
0.111693
0.092027
0.0808437
0.075049
0.0709528
0.0659277
0.0626806
0.0625239
0.0633023
0.0665445
0.0700189
0.0717489
0.0738494
0.0751338
0.0755377
0.073308
0.0676414
0.0620721
0.056504
0.0526964
0.0516957
0.0511778
0.0500824
0.04939
0.0485817
0.0457601
0.0372629
0.0311811
0.0250475
0.0184371
0.0135385
0.0107565
0.00961692
0.00954076
0.0106003
0.0135808
0.0148569
0.0152612
0.0160141
0.0184205
0.0259389
0.0527992
0.0807587
0.0898194
0.091475
0.0883264
0.0815431
0.0647649
0.0581523
0.0583962
0.0603337
0.064648
0.0677749
0.0681638
0.0651134
0.059513
0.0556526
0.0548826
0.0554654
0.0572192
0.0581679
0.0593011
0.0629354
0.071789
0.105484
0.159217
0.172754
0.147602
0.080519
0.04693
0.0365245
0.0324224
0.0253622
0.019464
0.0156526
0.0141606
0.0134644
0.0132259
0.0133215
0.0138446
0.014531
0.0158568
0.0181526
0.0206081
0.0215811
0.0229673
0.0249737
0.0279864
0.0353063
0.0430857
0.0494133
0.0535615
0.0614818
0.0729731
0.0757692
0.0738849
0.0572308
0.0438221
0.0349636
0.0275059
0.0248155
0.0253561
0.0292673
0.0312834
0.033952
0.035709
0.035667
0.0342954
0.0287749
0.0235673
0.022429
0.0238356
0.0261012
0.0282144
0.0300636
0.0393258
0.0433135
0.0451844
0.0490754
0.0602131
0.0757025
0.0847818
0.0878325
0.0878673
0.0872188
0.0869907
0.0853402
0.0831041
0.0743912
0.0513088
0.035003
0.0222463
0.0152097
0.0121446
0.0108729
0.0108849
0.0118029
0.0136481
0.0159414
0.0206501
0.0246986
0.0259732
0.0267986
0.0274946
0.0293048
0.0333627
0.0397248
0.0470419
0.121767
0.502304
2.07263
1.68896
1.36884
1.11042
0.829982
0.577566
0.354756
0.199169
0.0890037
0.0490108
0.0203693
0.0150119
0.0110765
0.00920331
0.0152639
0.0157553
0.0153265
0.0229491
0.0850376
0.187646
0.227046
0.22775
0.207717
0.141027
0.0944913
0.0707141
0.061918
0.0548477
0.0519032
0.054251
0.0572274
0.0595941
0.0624216
0.0626108
0.0594181
0.0533675
0.0519691
0.0562802
0.0888139
0.100816
0.088752
0.0558598
0.0517701
0.0721494
0.183931
0.278969
0.286055
0.261727
0.196652
0.131295
0.0916915
0.0784633
0.0714792
0.0663619
0.0616604
0.0559432
0.0537798
0.0541886
0.0555696
0.0605096
0.0642039
0.0675303
0.0702391
0.0714859
0.0720562
0.071747
0.0678278
0.0638784
0.0591269
0.0547741
0.0533438
0.0525452
0.0512204
0.0506216
0.0500122
0.0479192
0.0401663
0.0337299
0.0268288
0.0196256
0.0142958
0.0112176
0.00983107
0.00962373
0.0103145
0.0129119
0.0141913
0.0144905
0.0149866
0.0166226
0.0214401
0.0374966
0.0686791
0.0862771
0.091373
0.0918147
0.0905017
0.0843285
0.073561
0.0715876
0.0716642
0.0725752
0.072742
0.069856
0.0641207
0.0601584
0.0581549
0.0570553
0.0568489
0.0574556
0.058243
0.0593292
0.0634464
0.0736551
0.113597
0.166091
0.177082
0.14779
0.0804695
0.0468622
0.0367387
0.0326044
0.0248506
0.0191196
0.0153102
0.013526
0.0126829
0.0124373
0.0125493
0.0130318
0.0140912
0.0155947
0.0181178
0.0207046
0.0214141
0.0221453
0.0236891
0.0264134
0.033726
0.0423032
0.0488325
0.0529597
0.0604503
0.0718976
0.0746447
0.0730415
0.0574404
0.0424123
0.0329425
0.026246
0.0242076
0.0250802
0.0281529
0.0297717
0.0329472
0.0339811
0.0338817
0.032988
0.0290145
0.0244356
0.0234483
0.0252377
0.0272188
0.0281954
0.0299209
0.0392225
0.0428338
0.0456169
0.0512369
0.06622
0.0807569
0.0882349
0.089743
0.08906
0.0894878
0.0895163
0.087317
0.0833437
0.0743022
0.0516508
0.0348031
0.0229509
0.0156557
0.0123099
0.0109051
0.0104933
0.0107186
0.0112512
0.0122921
0.0180499
0.023657
0.0252962
0.0263616
0.0271894
0.0290208
0.0324586
0.0442733
0.0476445
0.110895
0.359503
1.61086
1.31594
1.06418
0.841894
0.627471
0.45166
0.269222
0.133758
0.0481617
0.0230737
0.0122752
0.00855261
0.00917715
0.00774382
0.0140285
0.013547
0.0133497
0.0189786
0.0451608
0.128513
0.197069
0.213639
0.207092
0.163123
0.106941
0.0794445
0.071074
0.0602254
0.055476
0.0568427
0.0595692
0.0626867
0.0643623
0.0638544
0.0579657
0.0531885
0.0529478
0.0645657
0.100215
0.104605
0.0807737
0.0526926
0.0534912
0.0928157
0.229165
0.292242
0.287983
0.245478
0.173279
0.110605
0.0789639
0.0707622
0.0642358
0.0592425
0.053827
0.0491337
0.0482949
0.0488652
0.0504346
0.054975
0.0576655
0.0604841
0.0661548
0.068437
0.0690496
0.0692024
0.0673492
0.0643933
0.0605393
0.056084
0.0543246
0.0534223
0.0519992
0.051455
0.0510028
0.0495515
0.0431275
0.0360016
0.0282011
0.0205637
0.0149979
0.0116776
0.0101106
0.00973622
0.0101764
0.0122399
0.0134412
0.01372
0.0141194
0.015317
0.0186184
0.027654
0.0530407
0.0773057
0.0887424
0.0914896
0.0933916
0.0923318
0.087069
0.0829966
0.0794226
0.0774863
0.0746913
0.0686281
0.0631584
0.0611089
0.0610775
0.0590099
0.0571845
0.0572785
0.0577594
0.0589317
0.0638581
0.0755786
0.121279
0.172228
0.178959
0.147788
0.0811186
0.0471997
0.0371115
0.0327936
0.0243771
0.0186718
0.015188
0.0132395
0.0121767
0.0119228
0.0120229
0.0124677
0.0135521
0.0154279
0.0182151
0.0208861
0.0213351
0.0216713
0.0228381
0.0251263
0.0324511
0.0418886
0.0486231
0.0525925
0.0595305
0.07086
0.0735658
0.072184
0.0576754
0.0412795
0.0313791
0.0253237
0.0240181
0.0249163
0.0282408
0.0297864
0.0327228
0.0329951
0.0326693
0.0319546
0.0289316
0.0250611
0.0243838
0.0267416
0.028149
0.0285357
0.0299873
0.0391613
0.0426319
0.046677
0.0546599
0.0724742
0.0852063
0.0912562
0.0915219
0.0896332
0.0903218
0.0913001
0.0898617
0.0846613
0.0736605
0.0525511
0.0346042
0.0230844
0.0156709
0.0124884
0.0110101
0.0103951
0.0105265
0.0105513
0.0116376
0.0191559
0.0259222
0.027074
0.0276112
0.0279764
0.0298784
0.0315648
0.050523
0.050393
0.0963422
0.257147
1.17635
0.999644
0.812909
0.660549
0.478912
0.298166
0.129205
0.0536643
0.0207175
0.0113546
0.00873987
0.00583602
0.00825881
0.00718724
0.0113156
0.0126982
0.0127166
0.0163598
0.0290237
0.0950074
0.183008
0.207762
0.207465
0.182201
0.121596
0.0923749
0.0794905
0.0669874
0.0636806
0.0659589
0.069049
0.0697731
0.0687759
0.063628
0.0564434
0.0536187
0.0548003
0.0792916
0.109292
0.107379
0.0692847
0.0511653
0.0575574
0.126756
0.262298
0.300011
0.287325
0.228178
0.147174
0.0942858
0.0710984
0.0626621
0.0565589
0.0528839
0.0466336
0.0428335
0.0430945
0.0443191
0.0475904
0.0511212
0.0524468
0.0537652
0.057561
0.0634726
0.0659315
0.0664678
0.0661172
0.064305
0.0609703
0.0566694
0.0549944
0.0539924
0.052566
0.0520447
0.0517793
0.0507888
0.0455579
0.03812
0.0295637
0.0214943
0.0157945
0.0122276
0.0104926
0.00994665
0.0102063
0.0117685
0.0128722
0.0131884
0.0135619
0.0144858
0.0167007
0.0223418
0.0390136
0.0642801
0.0806788
0.088645
0.0928869
0.0932944
0.0919466
0.088221
0.0823894
0.0791947
0.0742937
0.0673644
0.063375
0.0626641
0.0626816
0.0597648
0.0563964
0.0559345
0.056068
0.0578888
0.0643777
0.0779061
0.129566
0.175077
0.179329
0.14817
0.0837996
0.0483662
0.0373489
0.0330329
0.0243079
0.0184017
0.0151451
0.0131702
0.0119794
0.011576
0.0116394
0.0120838
0.0131988
0.0153301
0.018595
0.0209506
0.0210336
0.0211286
0.0220306
0.0242042
0.0316843
0.0418034
0.0486296
0.0524898
0.0585187
0.0697751
0.0723554
0.071103
0.0577693
0.0406714
0.0300999
0.0251208
0.0240835
0.0251409
0.0290396
0.0306462
0.0327103
0.0327698
0.0319264
0.0313029
0.0285608
0.0254729
0.0252205
0.0282437
0.0288064
0.0286932
0.030182
0.0389871
0.0431468
0.0482952
0.0598204
0.0784424
0.0899644
0.0940794
0.093642
0.0897751
0.0903445
0.0924402
0.0910939
0.0861618
0.0731791
0.0531294
0.0346559
0.0229352
0.0156188
0.0125668
0.0111404
0.010469
0.010548
0.0104417
0.0133073
0.0250665
0.032454
0.0328046
0.0328781
0.030765
0.0329057
0.0323332
0.052606
0.0522613
0.0824326
0.188973
0.703202
0.594179
0.464804
0.38087
0.216246
0.111106
0.0499858
0.0221018
0.0100945
0.00549361
0.00586312
0.00381043
0.00622409
0.00607904
0.00763096
0.0123248
0.0124228
0.0142925
0.0227249
0.0734556
0.171122
0.208713
0.21859
0.207383
0.148014
0.11217
0.0886578
0.0751108
0.0747133
0.0774791
0.0778891
0.0747223
0.0685849
0.0609637
0.0555553
0.0547902
0.0596913
0.098422
0.117408
0.104939
0.0579865
0.0501602
0.0654827
0.168903
0.28775
0.305319
0.280756
0.201007
0.12901
0.0860618
0.0623187
0.0551302
0.0543525
0.0518978
0.0427941
0.0378792
0.0376031
0.0386746
0.0430698
0.0471921
0.0488213
0.0496545
0.0513232
0.0560066
0.0615971
0.0637951
0.0639539
0.0635009
0.0611421
0.0567782
0.0551271
0.0540927
0.0527983
0.0524763
0.0523413
0.0516931
0.0476244
0.0400761
0.0310441
0.0225249
0.0166454
0.0127602
0.0108252
0.0101806
0.010314
0.011605
0.0127149
0.0131142
0.013388
0.0140419
0.0154917
0.0190856
0.0278757
0.0503803
0.0694705
0.0808592
0.0892868
0.0921527
0.0916711
0.0890552
0.0828265
0.0792519
0.0729806
0.0666662
0.0649436
0.0647251
0.0637233
0.0588196
0.0537132
0.0530895
0.0534331
0.0572188
0.0649405
0.0801862
0.136803
0.176208
0.179269
0.150066
0.0876813
0.0496467
0.0373652
0.0333468
0.0244292
0.0182033
0.0152142
0.0131858
0.0119428
0.0113819
0.0113933
0.011759
0.0130017
0.0153551
0.0190551
0.0207144
0.0204505
0.02046
0.021278
0.0236769
0.0315784
0.0418429
0.0487486
0.0525492
0.057543
0.0686327
0.0711639
0.0701395
0.0577014
0.0405025
0.0290747
0.0256356
0.0246017
0.0255088
0.0291343
0.0307518
0.0322933
0.0323445
0.0315304
0.0310127
0.0282318
0.0259271
0.0261639
0.0294779
0.029341
0.0287615
0.0307801
0.0397021
0.0443443
0.0506851
0.0659951
0.0852259
0.0942217
0.0968582
0.0946228
0.0892556
0.0896816
0.0927616
0.0913335
0.0865666
0.072583
0.0531111
0.0347768
0.0226784
0.0154879
0.0127856
0.0116864
0.0106986
0.0107988
0.0122498
0.025307
0.0315611
0.041287
0.0406922
0.0417867
0.0367419
0.0397319
0.035054
0.0591421
0.0561784
0.0726533
0.142183
0.330795
0.252406
0.178406
0.125942
0.0723196
0.0400912
0.019031
0.00879002
0.00490528
0.00315578
0.00325639
0.00235826
0.00283555
0.0037597
0.00416249
0.00938157
0.0110737
0.0123922
0.017494
0.0483518
0.137599
0.192329
0.213257
0.211421
0.181589
0.135543
0.100191
0.0827931
0.0825118
0.0832692
0.081406
0.073719
0.0658237
0.0589027
0.0564637
0.0573333
0.0735594
0.116968
0.121203
0.0910681
0.0519261
0.0504076
0.0808469
0.216757
0.304805
0.308153
0.264243
0.177077
0.113306
0.0739914
0.0561139
0.0542022
0.0541974
0.0518588
0.0416573
0.0366355
0.0363014
0.0370495
0.0394553
0.0420034
0.0445782
0.0463814
0.0483352
0.0508303
0.0563078
0.0607462
0.0620087
0.0619986
0.0607919
0.0564605
0.0548637
0.0538753
0.0528166
0.0527175
0.0527565
0.052367
0.0490049
0.0419013
0.0325479
0.0235032
0.0175046
0.0133239
0.0111395
0.010376
0.0104274
0.0115581
0.0127645
0.0132041
0.0134198
0.0138488
0.0146864
0.0168138
0.021835
0.0354422
0.0550937
0.0701243
0.0810532
0.0871205
0.0878196
0.0865973
0.0816499
0.0771663
0.0713666
0.0678889
0.067165
0.065946
0.0632974
0.0545797
0.0499794
0.0498619
0.0517023
0.057466
0.0654721
0.0829744
0.142917
0.17647
0.177763
0.151291
0.0921784
0.0515243
0.0374388
0.0338627
0.025162
0.0180488
0.0155263
0.0134582
0.0119837
0.0113248
0.0112564
0.011551
0.0127245
0.0153422
0.0190683
0.0199156
0.0195307
0.0196302
0.0206844
0.0235577
0.0316339
0.0420642
0.0490354
0.0526527
0.0567697
0.0673692
0.0700171
0.0692269
0.0575201
0.0402638
0.0284604
0.0263542
0.0255851
0.025869
0.0278268
0.02978
0.0308249
0.0314445
0.030896
0.0305666
0.0279279
0.0262534
0.0271656
0.0304374
0.0296804
0.0287305
0.0312907
0.0406405
0.0458578
0.0537983
0.0737717
0.0914563
0.0974306
0.0985526
0.0945776
0.0877126
0.0883765
0.0917719
0.0906013
0.0860233
0.0713846
0.053553
0.0353215
0.0226045
0.0155744
0.0133017
0.0123456
0.0112717
0.0142884
0.0215959
0.046753
0.0454838
0.0498461
0.0465985
0.0506601
0.0442483
0.0514445
0.0423815
0.0638581
0.0591109
0.0653043
0.109858
0.109051
0.0843761
0.0563663
0.0390403
0.0231116
0.0138885
0.0065222
0.003178
0.00244998
0.00199119
0.00217425
0.00178918
0.0015796
0.00263619
0.00285989
0.00545761
0.00888847
0.0102664
0.0135008
0.0266016
0.0528006
0.111309
0.177296
0.20159
0.197292
0.179017
0.124115
0.0972805
0.0939947
0.0915249
0.0826827
0.0729783
0.0639891
0.0595302
0.0595764
0.0635629
0.0997905
0.129425
0.125724
0.0728748
0.0475057
0.0527206
0.108141
0.256958
0.315841
0.309661
0.240578
0.15745
0.100063
0.0651807
0.0555456
0.0545669
0.0549794
0.0515104
0.0398762
0.035707
0.0357028
0.0367713
0.0388055
0.0396507
0.040661
0.0435943
0.0475052
0.0492119
0.0516828
0.0571432
0.0602675
0.0605746
0.0599523
0.056195
0.0545479
0.0534329
0.052683
0.0528422
0.0532121
0.0529231
0.050007
0.0438019
0.0336952
0.0242052
0.0186246
0.0142896
0.0116171
0.0105599
0.0105088
0.0114534
0.0130815
0.0136332
0.0136394
0.0137771
0.0140636
0.0151872
0.0181694
0.0249546
0.0406587
0.0574256
0.0703624
0.0793142
0.0822265
0.0815591
0.0778767
0.0748944
0.071148
0.0690376
0.0680656
0.0661328
0.0584557
0.049745
0.0477842
0.0484068
0.0513471
0.057511
0.0657406
0.0864326
0.148194
0.175174
0.175323
0.153172
0.0984525
0.0546624
0.0379381
0.0347884
0.02667
0.0180607
0.0157511
0.0140234
0.0122523
0.0113461
0.0111937
0.0114201
0.0123833
0.0153868
0.0188774
0.0190014
0.0186403
0.018989
0.0203549
0.0235702
0.0317894
0.0428894
0.049662
0.0527786
0.0563734
0.0661193
0.0688555
0.0681643
0.0568751
0.0397675
0.0283515
0.0266849
0.0262433
0.0261053
0.0267634
0.0291874
0.0301496
0.0306873
0.0303332
0.0299168
0.0272859
0.0262605
0.0278625
0.0308165
0.0296107
0.0286859
0.0325605
0.0421501
0.0480555
0.0584978
0.0819479
0.0966221
0.0998656
0.0993681
0.0922594
0.0857649
0.0868642
0.090003
0.0890823
0.0843615
0.0703082
0.0539458
0.0355218
0.0226579
0.0164521
0.0140637
0.013228
0.0126113
0.0217703
0.0293251
0.0772854
0.0610281
0.0742648
0.0599724
0.0726956
0.0562219
0.0693774
0.0512174
0.0764719
0.064977
0.0659343
0.0908316
0.025601
0.0211396
0.0134713
0.0101105
0.00624474
0.0036924
0.00189508
0.00123652
0.00147045
0.00149607
0.00149973
0.00155981
0.00132983
0.00233286
0.00259902
0.00308709
0.0056512
0.00685304
0.0104213
0.0173487
0.0266806
0.0455175
0.122373
0.200071
0.226388
0.222227
0.172724
0.12719
0.112974
0.100413
0.0866666
0.0735804
0.0654075
0.0644207
0.0665591
0.0806741
0.12929
0.137765
0.11594
0.0547697
0.0454373
0.0599906
0.150837
0.284924
0.323304
0.305756
0.210519
0.135901
0.0829556
0.0631991
0.0558521
0.0555031
0.0572894
0.0516024
0.0386999
0.0353802
0.0355568
0.0368505
0.0384348
0.0389892
0.0395618
0.0415002
0.0467036
0.0486421
0.0499096
0.0533931
0.0578111
0.059178
0.0589693
0.05621
0.0545094
0.0532396
0.0526067
0.0530336
0.0537518
0.0534574
0.0511342
0.0451668
0.0344759
0.0248589
0.0197861
0.0154637
0.0122188
0.0107404
0.0105582
0.0113022
0.0133242
0.0140897
0.0140237
0.0137366
0.0136782
0.0141965
0.0161012
0.0203725
0.0299235
0.0459164
0.0581616
0.0694584
0.0755527
0.0753825
0.0727204
0.0710714
0.0692519
0.0685104
0.0671924
0.0627544
0.0529679
0.047721
0.0471615
0.0480898
0.0514782
0.0574534
0.0658889
0.0903771
0.151451
0.172006
0.170971
0.15347
0.105451
0.059031
0.0389517
0.0364103
0.028949
0.0183518
0.0157078
0.0147225
0.012821
0.0115384
0.0112051
0.0113604
0.012298
0.0156341
0.0182585
0.0180869
0.0181135
0.0188271
0.020244
0.0240045
0.0320833
0.0438096
0.0503766
0.0528872
0.056258
0.0650777
0.0679571
0.0670556
0.0557506
0.0390945
0.0286004
0.0269388
0.0265694
0.0263893
0.0266963
0.0294806
0.0302946
0.0299993
0.0294971
0.0288148
0.0263135
0.0258667
0.0282206
0.0306894
0.0290641
0.028558
0.0343199
0.0442398
0.050895
0.0655085
0.0894293
0.100813
0.101888
0.0998246
0.0876686
0.0831758
0.0853813
0.0883757
0.0871683
0.0821565
0.0693786
0.0538398
0.0351842
0.0226384
0.0172155
0.0154063
0.0157877
0.0150606
0.0336564
0.0388366
0.128914
0.0947467
0.164134
0.11056
0.176205
0.10177
0.11978
0.0759564
0.0840736
0.0814108
0.0719703
0.0825206
0.00416889
0.00362355
0.00254867
0.00210576
0.0014213
0.000881205
0.000714938
0.000790587
0.00111451
0.00128859
0.00104277
0.00123677
0.00120036
0.00188149
0.00262211
0.00268672
0.00336679
0.00405915
0.00838765
0.0123062
0.0167381
0.0301893
0.0982962
0.197013
0.225045
0.222876
0.20719
0.178181
0.146819
0.121221
0.0988544
0.0807274
0.0753916
0.0764799
0.08233
0.118581
0.146629
0.143379
0.0903422
0.0448412
0.0442312
0.0757194
0.194592
0.306846
0.326691
0.297928
0.183036
0.114205
0.0751217
0.0627133
0.0572486
0.0571215
0.0608201
0.0518127
0.0384811
0.0352487
0.0356035
0.0370342
0.0383724
0.0387865
0.0392679
0.0408651
0.0450192
0.0470668
0.0482529
0.0513449
0.0553688
0.0577403
0.0582496
0.0563102
0.0546846
0.0533359
0.0525826
0.0532828
0.0543469
0.0539924
0.0520807
0.0461035
0.0348055
0.0254139
0.020563
0.0162019
0.0126445
0.0109279
0.0106095
0.0112905
0.0135245
0.0144544
0.0144385
0.0139374
0.0135112
0.0137357
0.0149308
0.0178812
0.0241268
0.0385621
0.0489027
0.0599973
0.0669382
0.0669688
0.0651667
0.06505
0.065206
0.0651617
0.0639761
0.0584291
0.0509587
0.0472448
0.0471121
0.048191
0.0515315
0.0571232
0.0658014
0.0950112
0.152635
0.168453
0.165906
0.152458
0.112797
0.0647629
0.040536
0.038861
0.0318682
0.0190302
0.0155818
0.015211
0.0137146
0.012029
0.0113535
0.0114192
0.0124916
0.0161481
0.0175138
0.0174003
0.0179585
0.0188312
0.0202053
0.0247271
0.032783
0.0449992
0.0510289
0.0530776
0.0563211
0.0643053
0.0671967
0.0659517
0.0545214
0.0383921
0.0289262
0.0272846
0.0266833
0.0270185
0.0276633
0.0306351
0.0306847
0.0291879
0.0283621
0.0270144
0.0250176
0.0248957
0.0280417
0.0297324
0.0282917
0.0284322
0.0369489
0.0467575
0.0543304
0.0736941
0.0962635
0.104232
0.103654
0.0970943
0.082445
0.0800078
0.0835996
0.0866325
0.0852341
0.0803403
0.0686746
0.0529352
0.0339156
0.0226793
0.0185004
0.0183914
0.0253004
0.0237145
0.0468087
0.0547253
0.139229
0.107245
0.175357
0.135602
0.280409
0.165641
0.175694
0.114035
0.102976
0.0872439
0.0825599
0.0847408
0.000973694
0.000838661
0.000723436
0.00060023
0.00050062
0.000444865
0.000488259
0.000702967
0.000859086
0.000902893
0.000847075
0.000881835
0.00111425
0.00124654
0.00228848
0.0022351
0.0022849
0.00278145
0.00478642
0.00686685
0.00887084
0.0162557
0.062289
0.144629
0.182071
0.200599
0.201239
0.199685
0.192971
0.169735
0.133314
0.106531
0.100059
0.101776
0.117336
0.150189
0.15377
0.134849
0.0587118
0.0372359
0.0475976
0.106547
0.231716
0.321574
0.32848
0.28449
0.151738
0.0920956
0.0720569
0.0636727
0.0592168
0.0591748
0.06474
0.0517166
0.0384155
0.0350254
0.035649
0.0371356
0.0385789
0.0388734
0.0395358
0.0415339
0.0432443
0.044296
0.0457196
0.0484702
0.0525199
0.0557408
0.0572148
0.0560836
0.0549128
0.0534444
0.0525076
0.0537458
0.0549113
0.0545112
0.0529565
0.0469497
0.0354472
0.0258836
0.0208558
0.0163844
0.0127101
0.0110278
0.0107195
0.0114299
0.0141338
0.0152752
0.0152952
0.0145257
0.0135888
0.0136295
0.01444
0.0166094
0.0219502
0.0362412
0.0454193
0.0550835
0.0607405
0.0605096
0.0597922
0.0609083
0.0627514
0.0627737
0.0613107
0.0567064
0.0504968
0.0475496
0.0476057
0.0486514
0.0513444
0.0564933
0.065639
0.100115
0.153318
0.16412
0.159076
0.148099
0.119538
0.0718058
0.0425632
0.0417014
0.0351116
0.0198527
0.0155502
0.0152569
0.0148655
0.0130116
0.0118224
0.0117496
0.0136499