/*--------------------------------*- C++ -*----------------------------------*\
| =========                 |                                                 |
| \\      /  F ield         | OpenFOAM: The Open Source CFD Toolbox           |
|  \\    /   O peration     | Version:  2.4.0                                 |
|   \\  /    A nd           | Web:      www.OpenFOAM.org                      |
|    \\/     M anipulation  |                                                 |
\*---------------------------------------------------------------------------*/
FoamFile
{
    version     2.0;
    format      ascii;
    class       surfaceScalarField;
    location    "0.195";
    object      phi;
}
// * * * * * * * * * * * * * * * * * * * * * * * * * * * * * * * * * * * * * //

dimensions      [0 3 -1 0 0 0 0];

internalField   nonuniform List<scalar> 
34880
(
5.48911e-06
7.01089e-06
3.12553e-06
2.36358e-06
2.47087e-06
6.54653e-07
2.22145e-06
2.49421e-07
2.07279e-06
1.48661e-07
1.97202e-06
1.00767e-07
1.88689e-06
8.51353e-08
1.8273e-06
5.95908e-08
1.77426e-06
5.30407e-08
1.74823e-06
2.60233e-08
1.72423e-06
2.40017e-08
1.69939e-06
2.48396e-08
1.68795e-06
1.14427e-08
1.71271e-06
-2.47618e-08
1.69094e-06
2.17707e-08
1.74786e-06
-5.69227e-08
1.84686e-06
-9.89905e-08
1.93143e-06
-8.45768e-08
2.08881e-06
-1.5738e-07
-2.32167e-07
2.32098e-06
1.01126e-05
9.39826e-06
7.83131e-06
4.64491e-06
6.70911e-06
1.77685e-06
6.06614e-06
8.92397e-07
5.64312e-06
5.7168e-07
5.35546e-06
3.88419e-07
5.12616e-06
3.14438e-07
4.95047e-06
2.35282e-07
4.81363e-06
1.89876e-07
4.72167e-06
1.17983e-07
4.63876e-06
1.06915e-07
4.57828e-06
8.53247e-08
4.53578e-06
5.39402e-08
4.5448e-06
-3.37846e-08
4.50389e-06
6.26794e-08
4.62733e-06
-1.80354e-07
4.73381e-06
-2.05478e-07
4.9554e-06
-3.06163e-07
5.37438e-06
-5.76359e-07
-1.69172e-07
5.31138e-06
1.2427e-05
9.47127e-06
1.10054e-05
6.06649e-06
9.98128e-06
2.80098e-06
9.20389e-06
1.66979e-06
8.617e-06
1.15857e-06
8.19634e-06
8.09079e-07
7.86398e-06
6.46795e-07
7.59675e-06
5.0251e-07
7.39501e-06
3.91615e-07
7.24531e-06
2.67691e-07
7.10952e-06
2.42698e-07
7.01986e-06
1.74988e-07
6.94475e-06
1.29044e-07
6.92491e-06
-1.39367e-08
6.86992e-06
1.17665e-07
7.01374e-06
-3.2417e-07
7.07977e-06
-2.71511e-07
7.3827e-06
-6.09087e-07
7.95632e-06
-1.14998e-06
-1.69698e-07
7.95684e-06
1.34134e-05
8.55784e-06
1.28892e-05
6.59074e-06
1.23296e-05
3.36052e-06
1.17167e-05
2.28271e-06
1.11327e-05
1.74257e-06
1.06638e-05
1.27799e-06
1.02822e-05
1.02836e-06
9.95892e-06
8.25826e-07
9.71223e-06
6.38312e-07
9.52502e-06
4.54899e-07
9.34292e-06
4.24792e-07
9.23077e-06
2.8714e-07
9.13225e-06
2.27571e-07
9.07397e-06
4.43366e-08
9.01327e-06
1.78372e-07
9.14867e-06
-4.59579e-07
9.1712e-06
-2.94037e-07
9.46346e-06
-9.01341e-07
1.01801e-05
-1.8666e-06
-5.43798e-07
1.05542e-05
1.3591e-05
7.46685e-06
1.36571e-05
6.52464e-06
1.36308e-05
3.38677e-06
1.33997e-05
2.51382e-06
1.30197e-05
2.12265e-06
1.26281e-05
1.6695e-06
1.22833e-05
1.37321e-06
1.19631e-05
1.14606e-06
1.17047e-05
8.96698e-07
1.15158e-05
6.4378e-07
1.13054e-05
6.35225e-07
1.11809e-05
4.11578e-07
1.10809e-05
3.276e-07
1.09805e-05
1.44698e-07
1.09245e-05
2.34426e-07
1.10435e-05
-5.78646e-07
1.10406e-05
-2.91115e-07
1.12398e-05
-1.10055e-06
1.19871e-05
-2.61387e-06
-1.86785e-06
1.33112e-05
1.34808e-05
6.48605e-06
1.37427e-05
6.26274e-06
1.40099e-05
3.11956e-06
1.41391e-05
2.38461e-06
1.40884e-05
2.17337e-06
1.39017e-05
1.85618e-06
1.37035e-05
1.5714e-06
1.34784e-05
1.37123e-06
1.32603e-05
1.11473e-06
1.31218e-05
7.8227e-07
1.29194e-05
8.37656e-07
1.27996e-05
5.31342e-07
1.27267e-05
4.00559e-07
1.26015e-05
2.69865e-07
1.25512e-05
2.84736e-07
1.26572e-05
-6.84678e-07
1.26741e-05
-3.0802e-07
1.27471e-05
-1.17348e-06
1.33162e-05
-3.18298e-06
-3.88621e-06
1.53346e-05
1.33593e-05
5.62678e-06
1.36657e-05
5.95631e-06
1.39475e-05
2.83779e-06
1.42064e-05
2.12563e-06
1.44038e-05
1.97602e-06
1.44143e-05
1.84563e-06
1.44039e-05
1.58182e-06
1.43575e-05
1.41769e-06
1.42381e-05
1.23403e-06
1.42114e-05
8.09012e-07
1.40742e-05
9.749e-07
1.39943e-05
6.11198e-07
1.39751e-05
4.19725e-07
1.38691e-05
3.75912e-07
1.3833e-05
3.20856e-07
1.39203e-05
-7.71996e-07
1.39993e-05
-3.86995e-07
1.40287e-05
-1.20286e-06
1.42737e-05
-3.42802e-06
-5.80655e-06
1.6194e-05
1.32745e-05
4.85226e-06
1.36459e-05
5.58489e-06
1.38206e-05
2.6631e-06
1.4051e-05
1.89522e-06
1.43474e-05
1.67964e-06
1.44517e-05
1.74137e-06
1.45298e-05
1.50371e-06
1.46365e-05
1.311e-06
1.46065e-05
1.26407e-06
1.46978e-05
7.1765e-07
1.4662e-05
1.01069e-06
1.4663e-05
6.10275e-07
1.4717e-05
3.65719e-07
1.46792e-05
4.13646e-07
1.46977e-05
3.02394e-07
1.47665e-05
-8.4077e-07
1.48903e-05
-5.10852e-07
1.5029e-05
-1.34153e-06
1.50569e-05
-3.45594e-06
-5.57144e-06
1.48218e-05
1.32148e-05
4.13742e-06
1.35961e-05
5.20358e-06
1.3745e-05
2.51423e-06
1.39009e-05
1.73936e-06
1.41977e-05
1.3828e-06
1.43542e-05
1.58488e-06
1.44369e-05
1.42096e-06
1.46168e-05
1.13112e-06
1.46356e-05
1.24527e-06
1.47619e-05
5.91418e-07
1.47778e-05
9.94705e-07
1.485e-05
5.38157e-07
1.49483e-05
2.67414e-07
1.49807e-05
3.81172e-07
1.50894e-05
1.93687e-07
1.51744e-05
-9.25714e-07
1.52746e-05
-6.11074e-07
1.55486e-05
-1.61555e-06
1.57384e-05
-3.64574e-06
-6.15364e-06
1.63206e-05
1.31517e-05
3.48571e-06
1.35524e-05
4.80293e-06
1.36993e-05
2.36727e-06
1.38323e-05
1.60634e-06
1.40662e-05
1.14895e-06
1.42518e-05
1.39924e-06
1.43272e-05
1.3456e-06
1.44891e-05
9.6923e-07
1.46036e-05
1.13072e-06
1.47047e-05
4.90362e-07
1.47158e-05
9.83579e-07
1.48377e-05
4.16244e-07
1.48902e-05
2.14956e-07
1.49503e-05
3.21081e-07
1.51307e-05
1.33045e-08
1.52318e-05
-1.02687e-06
1.53238e-05
-7.03094e-07
1.55799e-05
-1.87166e-06
1.59432e-05
-4.00902e-06
-6.58944e-06
1.6379e-05
1.30681e-05
2.91758e-06
1.35047e-05
4.36633e-06
1.366e-05
2.21201e-06
1.38183e-05
1.44807e-06
1.39695e-05
9.97732e-07
1.41976e-05
1.17113e-06
1.42477e-05
1.29545e-06
1.43546e-05
8.62367e-07
1.45714e-05
9.13902e-07
1.46093e-05
4.52486e-07
1.46687e-05
9.24159e-07
1.48161e-05
2.68849e-07
1.47579e-05
2.73196e-07
1.48734e-05
2.05549e-07
1.50589e-05
-1.72193e-07
1.51118e-05
-1.07978e-06
1.52553e-05
-8.46582e-07
1.55041e-05
-2.12044e-06
1.5805e-05
-4.30995e-06
-7.03398e-06
1.62495e-05
1.29818e-05
2.43579e-06
1.34565e-05
3.89165e-06
1.36425e-05
2.02595e-06
1.37722e-05
1.31839e-06
1.39352e-05
8.34773e-07
1.41671e-05
9.3923e-07
1.41734e-05
1.28911e-06
1.43224e-05
7.13384e-07
1.44763e-05
7.6004e-07
1.45192e-05
4.09518e-07
1.46722e-05
7.71171e-07
1.4741e-05
2.00016e-07
1.46895e-05
3.24697e-07
1.48763e-05
1.87982e-08
1.4962e-05
-2.57881e-07
1.49864e-05
-1.10421e-06
1.51862e-05
-1.04635e-06
1.54434e-05
-2.37762e-06
1.55985e-05
-4.46504e-06
-7.40849e-06
1.5973e-05
1.29195e-05
2.01634e-06
1.34109e-05
3.40025e-06
1.36268e-05
1.81004e-06
1.3719e-05
1.22612e-06
1.39391e-05
6.14706e-07
1.41084e-05
7.69962e-07
1.41245e-05
1.27295e-06
1.43049e-05
5.33047e-07
1.43623e-05
7.02585e-07
1.45089e-05
2.62911e-07
1.46396e-05
6.40519e-07
1.46362e-05
2.03358e-07
1.47033e-05
2.57643e-07
1.4838e-05
-1.1589e-07
1.48734e-05
-2.93351e-07
1.49578e-05
-1.18858e-06
1.51331e-05
-1.22161e-06
1.53614e-05
-2.60593e-06
1.54699e-05
-4.57349e-06
-7.60905e-06
1.56704e-05
1.28779e-05
1.63846e-06
1.3366e-05
2.91211e-06
1.36005e-05
1.57557e-06
1.37103e-05
1.1163e-06
1.39108e-05
4.1418e-07
1.40276e-05
6.53153e-07
1.41156e-05
1.18495e-06
1.42414e-05
4.07322e-07
1.4313e-05
6.30949e-07
1.45054e-05
7.04903e-08
1.4558e-05
5.87962e-07
1.45631e-05
1.98283e-07
1.46918e-05
1.28911e-07
1.47624e-05
-1.86495e-07
1.48325e-05
-3.63435e-07
1.49555e-05
-1.31164e-06
1.50733e-05
-1.33935e-06
1.52472e-05
-2.77986e-06
1.54136e-05
-4.73987e-06
-7.74054e-06
1.55451e-05
1.28453e-05
1.29311e-06
1.33303e-05
2.42716e-06
1.35638e-05
1.34203e-06
1.37156e-05
9.64503e-07
1.38362e-05
2.93631e-07
1.39706e-05
5.18787e-07
1.41182e-05
1.0373e-06
1.41832e-05
3.42331e-07
1.43081e-05
5.06031e-07
1.44515e-05
-7.2931e-08
1.44692e-05
5.70299e-07
1.4545e-05
1.22425e-07
1.46478e-05
2.61891e-08
1.47067e-05
-2.45475e-07
1.48201e-05
-4.76833e-07
1.4919e-05
-1.41047e-06
1.50028e-05
-1.42323e-06
1.5168e-05
-2.94505e-06
1.53427e-05
-4.91453e-06
-7.83655e-06
1.54387e-05
1.28297e-05
9.63409e-07
1.32927e-05
1.96418e-06
1.35483e-05
1.08639e-06
1.36896e-05
8.23203e-07
1.37764e-05
2.06823e-07
1.39643e-05
3.30884e-07
1.40797e-05
9.21905e-07
1.41586e-05
2.63481e-07
1.43109e-05
3.53711e-07
1.43833e-05
-1.4537e-07
1.44319e-05
5.21702e-07
1.45401e-05
1.42644e-08
1.4594e-05
-2.77222e-08
1.46734e-05
-3.2483e-07
1.48088e-05
-6.12237e-07
1.48543e-05
-1.45601e-06
1.49771e-05
-1.54601e-06
1.51194e-05
-3.08738e-06
1.52271e-05
-5.02222e-06
-8.0213e-06
1.54118e-05
1.28115e-05
6.5192e-07
1.32403e-05
1.53536e-06
1.35286e-05
7.98135e-07
1.3666e-05
6.85739e-07
1.37698e-05
1.03076e-07
1.39419e-05
1.58803e-07
1.40216e-05
8.42209e-07
1.41767e-05
1.08381e-07
1.42938e-05
2.36533e-07
1.43409e-05
-1.92478e-07
1.44451e-05
4.17572e-07
1.44776e-05
-1.82959e-08
1.45682e-05
-1.18308e-07
1.46682e-05
-4.24817e-07
1.47723e-05
-7.1637e-07
1.48159e-05
-1.49954e-06
1.49733e-05
-1.70345e-06
1.50559e-05
-3.16994e-06
1.50715e-05
-5.03786e-06
-6.82218e-06
1.38724e-05
1.27732e-05
3.78715e-07
1.32034e-05
1.10514e-06
1.35165e-05
4.85011e-07
1.36765e-05
5.25772e-07
1.37618e-05
1.78176e-08
1.38748e-05
4.57991e-08
1.40193e-05
6.9768e-07
1.42005e-05
-7.28544e-08
1.42463e-05
1.90745e-07
1.43201e-05
-2.66228e-07
1.44201e-05
3.17529e-07
1.44327e-05
-3.08898e-08
1.45802e-05
-2.65815e-07
1.46617e-05
-5.06286e-07
1.47063e-05
-7.60998e-07
1.48203e-05
-1.6135e-06
1.49213e-05
-1.80449e-06
1.49936e-05
-3.24217e-06
1.50971e-05
-5.14142e-06
-7.24562e-06
1.55206e-05
1.27489e-05
1.29819e-07
1.31986e-05
6.55432e-07
1.35125e-05
1.71093e-07
1.36826e-05
3.55677e-07
1.37261e-05
-2.56313e-08
1.3849e-05
-7.71783e-08
1.40583e-05
4.88439e-07
1.41696e-05
-1.84128e-07
1.4216e-05
1.44293e-07
1.42978e-05
-3.47969e-07
1.43796e-05
2.35657e-07
1.44519e-05
-1.03182e-07
1.45903e-05
-4.04202e-07
1.46074e-05
-5.23417e-07
1.46716e-05
-8.25124e-07
1.48e-05
-1.74191e-06
1.4876e-05
-1.88057e-06
1.4976e-05
-3.34215e-06
1.51017e-05
-5.2671e-06
-7.5067e-06
1.53628e-05
1.27545e-05
-1.24678e-07
1.31993e-05
2.10678e-07
1.35031e-05
-1.32725e-07
1.36756e-05
1.83196e-07
1.37086e-05
-5.86949e-08
1.38809e-05
-2.49504e-07
1.40457e-05
3.23681e-07
1.41324e-05
-2.70842e-07
1.42239e-05
5.28466e-08
1.42839e-05
-4.08042e-07
1.43823e-05
1.3731e-07
1.4482e-05
-2.02914e-07
1.45468e-05
-4.68974e-07
1.45749e-05
-5.51577e-07
1.46772e-05
-9.27364e-07
1.47841e-05
-1.8488e-06
1.48632e-05
-1.95966e-06
1.4963e-05
-3.44199e-06
1.50404e-05
-5.34453e-06
-7.61315e-06
1.51469e-05
1.27598e-05
-3.8451e-07
1.31946e-05
-2.24051e-07
1.34999e-05
-4.38026e-07
1.36689e-05
1.41713e-08
1.37242e-05
-1.14046e-07
1.38868e-05
-4.12049e-07
1.40061e-05
2.04408e-07
1.41473e-05
-4.12103e-07
1.42429e-05
-4.27128e-08
1.42752e-05
-4.40376e-07
1.44201e-05
-7.57459e-09
1.44594e-05
-2.42219e-07
1.45128e-05
-5.22403e-07
1.45974e-05
-6.36166e-07
1.4696e-05
-1.02593e-06
1.47639e-05
-1.91668e-06
1.48573e-05
-2.05307e-06
1.49359e-05
-3.52065e-06
1.49412e-05
-5.3498e-06
-7.88066e-06
1.52087e-05
1.27601e-05
-6.44625e-07
1.32003e-05
-6.64254e-07
1.35052e-05
-7.42946e-07
1.36685e-05
-1.49052e-07
1.37362e-05
-1.81818e-07
1.38649e-05
-5.40751e-07
1.40177e-05
5.16401e-08
1.4173e-05
-5.6738e-07
1.42431e-05
-1.12857e-07
1.42831e-05
-4.80346e-07
1.44254e-05
-1.49833e-07
1.44293e-05
-2.46159e-07
1.45365e-05
-6.29616e-07
1.46224e-05
-7.22088e-07
1.46904e-05
-1.09389e-06
1.47405e-05
-1.96682e-06
1.48549e-05
-2.16746e-06
1.49151e-05
-3.58083e-06
1.48412e-05
-5.2759e-06
-6.78585e-06
1.37464e-05
1.27736e-05
-9.18203e-07
1.32163e-05
-1.107e-06
1.35115e-05
-1.03814e-06
1.36787e-05
-3.16209e-07
1.3735e-05
-2.38104e-07
1.38799e-05
-6.85644e-07
1.40548e-05
-1.23344e-07
1.41741e-05
-6.86609e-07
1.42388e-05
-1.77581e-07
1.43088e-05
-5.50355e-07
1.44041e-05
-2.45159e-07
1.44453e-05
-2.87313e-07
1.45642e-05
-7.48584e-07
1.46449e-05
-8.02757e-07
1.4659e-05
-1.10801e-06
1.47497e-05
-2.05749e-06
1.48566e-05
-2.27439e-06
1.49042e-05
-3.62842e-06
1.49042e-05
-5.27587e-06
-7.13832e-06
1.52567e-05
1.2794e-05
-1.21224e-06
1.32335e-05
-1.54641e-06
1.35288e-05
-1.33346e-06
1.36882e-05
-4.75681e-07
1.37499e-05
-2.99732e-07
1.39202e-05
-8.55939e-07
1.40721e-05
-2.75302e-07
1.41666e-05
-7.81103e-07
1.42705e-05
-2.81463e-07
1.43242e-05
-6.04098e-07
1.44183e-05
-3.39205e-07
1.44677e-05
-3.36744e-07
1.45846e-05
-8.65471e-07
1.46512e-05
-8.69375e-07
1.46608e-05
-1.11757e-06
1.47739e-05
-2.17059e-06
1.48532e-05
-2.35366e-06
1.48985e-05
-3.67371e-06
1.4924e-05
-5.3014e-06
-7.41316e-06
1.51988e-05
1.28134e-05
-1.52561e-06
1.32613e-05
-1.99429e-06
1.35559e-05
-1.62816e-06
1.36947e-05
-6.14384e-07
1.378e-05
-3.85111e-07
1.39528e-05
-1.02872e-06
1.40819e-05
-4.04346e-07
1.41897e-05
-8.88901e-07
1.43077e-05
-3.99505e-07
1.43492e-05
-6.45591e-07
1.44315e-05
-4.21472e-07
1.4499e-05
-4.04303e-07
1.46009e-05
-9.67337e-07
1.46646e-05
-9.33089e-07
1.46937e-05
-1.1467e-06
1.47974e-05
-2.27427e-06
1.48543e-05
-2.41051e-06
1.48928e-05
-3.71223e-06
1.49394e-05
-5.34803e-06
-7.67462e-06
1.52009e-05
1.28433e-05
-1.86889e-06
1.33049e-05
-2.4559e-06
1.35763e-05
-1.89955e-06
1.37039e-05
-7.41959e-07
1.38175e-05
-4.98794e-07
1.39801e-05
-1.19129e-06
1.41144e-05
-5.38593e-07
1.42296e-05
-1.00419e-06
1.43381e-05
-5.07942e-07
1.43696e-05
-6.77102e-07
1.44638e-05
-5.15684e-07
1.45319e-05
-4.72432e-07
1.46275e-05
-1.06295e-06
1.46905e-05
-9.96041e-07
1.47438e-05
-1.20002e-06
1.48028e-05
-2.33329e-06
1.48713e-05
-2.47898e-06
1.48971e-05
-3.738e-06
1.49361e-05
-5.38705e-06
-7.93212e-06
1.51936e-05
1.28835e-05
-2.25241e-06
1.33485e-05
-2.92093e-06
1.35912e-05
-2.14225e-06
1.37259e-05
-8.76571e-07
1.38617e-05
-6.34604e-07
1.4022e-05
-1.35158e-06
1.41681e-05
-6.84778e-07
1.42626e-05
-1.09861e-06
1.43662e-05
-6.1157e-07
1.4401e-05
-7.11946e-07
1.451e-05
-6.24622e-07
1.4569e-05
-5.31442e-07
1.46656e-05
-1.15958e-06
1.47314e-05
-1.0618e-06
1.47851e-05
-1.2537e-06
1.48186e-05
-2.36678e-06
1.48914e-05
-2.55184e-06
1.49193e-05
-3.76588e-06
1.4845e-05
-5.31272e-06
-6.67739e-06
1.35902e-05
1.293e-05
-2.68243e-06
1.33914e-05
-3.38233e-06
1.35794e-05
-2.33022e-06
1.37631e-05
-1.06029e-06
1.39177e-05
-7.89168e-07
1.40825e-05
-1.51642e-06
1.42269e-05
-8.29196e-07
1.4291e-05
-1.16271e-06
1.43933e-05
-7.13841e-07
1.44558e-05
-7.74466e-07
1.45477e-05
-7.16516e-07
1.46296e-05
-6.13296e-07
1.471e-05
-1.24003e-06
1.47943e-05
-1.14609e-06
1.48052e-05
-1.26456e-06
1.48575e-05
-2.41914e-06
1.49014e-05
-2.59565e-06
1.49456e-05
-3.81011e-06
1.49313e-05
-5.29844e-06
-7.00033e-06
1.52542e-05
1.29815e-05
-3.16391e-06
1.34371e-05
-3.83797e-06
1.35902e-05
-2.48329e-06
1.3811e-05
-1.28115e-06
1.39921e-05
-9.70244e-07
1.41465e-05
-1.67076e-06
1.42742e-05
-9.56927e-07
1.4309e-05
-1.19749e-06
1.44384e-05
-8.43297e-07
1.45086e-05
-8.44625e-07
1.46064e-05
-8.14297e-07
1.46975e-05
-7.04415e-07
1.4774e-05
-1.31659e-06
1.48343e-05
-1.20635e-06
1.48405e-05
-1.2708e-06
1.48889e-05
-2.4675e-06
1.49184e-05
-2.62511e-06
1.49715e-05
-3.8632e-06
1.49791e-05
-5.30612e-06
-7.30434e-06
1.52831e-05
1.3034e-05
-3.69787e-06
1.34889e-05
-4.29289e-06
1.36428e-05
-2.63722e-06
1.38774e-05
-1.51576e-06
1.40665e-05
-1.15933e-06
1.41927e-05
-1.79691e-06
1.4309e-05
-1.07329e-06
1.4342e-05
-1.23052e-06
1.44984e-05
-9.99696e-07
1.45811e-05
-9.27266e-07
1.4679e-05
-9.122e-07
1.47681e-05
-7.93514e-07
1.48302e-05
-1.3787e-06
1.48651e-05
-1.24124e-06
1.48909e-05
-1.29658e-06
1.4924e-05
-2.50065e-06
1.495e-05
-2.65112e-06
1.49739e-05
-3.8871e-06
1.49601e-05
-5.29232e-06
-7.39057e-06
1.50464e-05
1.30859e-05
-4.28381e-06
1.35587e-05
-4.76567e-06
1.37224e-05
-2.80087e-06
1.39418e-05
-1.73516e-06
1.41204e-05
-1.338e-06
1.42383e-05
-1.91475e-06
1.4361e-05
-1.19602e-06
1.44102e-05
-1.27969e-06
1.45832e-05
-1.17274e-06
1.46715e-05
-1.01549e-06
1.47456e-05
-9.86334e-07
1.48367e-05
-8.8465e-07
1.48713e-05
-1.41322e-06
1.4898e-05
-1.26797e-06
1.49385e-05
-1.33714e-06
1.49257e-05
-2.48782e-06
1.49194e-05
-2.64478e-06
1.48472e-05
-3.81492e-06
1.46884e-05
-5.13352e-06
-7.2359e-06
1.45337e-05
1.31516e-05
-4.93544e-06
1.36519e-05
-5.26594e-06
1.37984e-05
-2.94741e-06
1.39826e-05
-1.91932e-06
1.41887e-05
-1.5441e-06
1.4317e-05
-2.04303e-06
1.44457e-05
-1.32474e-06
1.45163e-05
-1.35031e-06
1.46727e-05
-1.32914e-06
1.47357e-05
-1.07844e-06
1.47818e-05
-1.0325e-06
1.48566e-05
-9.59383e-07
1.48445e-05
-1.40111e-06
1.48431e-05
-1.26663e-06
1.48503e-05
-1.34431e-06
1.47334e-05
-2.37094e-06
1.46294e-05
-2.54078e-06
1.43881e-05
-3.57361e-06
1.40156e-05
-4.761e-06
-6.88417e-06
1.36638e-05
1.32421e-05
-5.67757e-06
1.37301e-05
-5.75394e-06
1.38521e-05
-3.06936e-06
1.40534e-05
-2.12068e-06
1.43138e-05
-1.8045e-06
1.44131e-05
-2.14227e-06
1.45269e-05
-1.43858e-06
1.45823e-05
-1.40573e-06
1.4648e-05
-1.39483e-06
1.46526e-05
-1.08306e-06
1.46374e-05
-1.01728e-06
1.46357e-05
-9.57641e-07
1.4535e-05
-1.30041e-06
1.44575e-05
-1.18916e-06
1.43691e-05
-1.25587e-06
1.41281e-05
-2.12995e-06
1.38979e-05
-2.31057e-06
1.35005e-05
-3.17627e-06
1.29355e-05
-4.19596e-06
-5.64486e-06
1.16962e-05
1.33466e-05
-6.52418e-06
1.37298e-05
-6.13713e-06
1.39353e-05
-3.27488e-06
1.41815e-05
-2.36687e-06
1.44003e-05
-2.0233e-06
1.43817e-05
-2.12366e-06
1.43999e-05
-1.45677e-06
1.4342e-05
-1.34783e-06
1.42466e-05
-1.29947e-06
1.41459e-05
-9.82304e-07
1.40277e-05
-8.99133e-07
1.39184e-05
-8.48276e-07
1.37279e-05
-1.10997e-06
1.35711e-05
-1.03234e-06
1.33952e-05
-1.07995e-06
1.30709e-05
-1.80568e-06
1.27452e-05
-1.98489e-06
1.22518e-05
-2.68282e-06
1.16012e-05
-3.54541e-06
-4.96713e-06
1.09235e-05
1.34713e-05
-7.49551e-06
1.37803e-05
-6.4461e-06
1.39869e-05
-3.48145e-06
1.41251e-05
-2.50512e-06
1.4107e-05
-2.00522e-06
1.38683e-05
-1.8849e-06
1.36974e-05
-1.28586e-06
1.34774e-05
-1.12787e-06
1.3237e-05
-1.0591e-06
1.30453e-05
-7.90549e-07
1.28547e-05
-7.08519e-07
1.26775e-05
-6.7108e-07
1.2442e-05
-8.74522e-07
1.22409e-05
-8.31184e-07
1.20165e-05
-8.55578e-07
1.16513e-05
-1.4405e-06
1.1269e-05
-1.60257e-06
1.07255e-05
-2.13936e-06
1.00007e-05
-2.82056e-06
-3.8787e-06
8.91226e-06
1.3583e-05
-8.57852e-06
1.36792e-05
-6.54231e-06
1.3611e-05
-3.41325e-06
1.33927e-05
-2.2868e-06
1.30406e-05
-1.6531e-06
1.25936e-05
-1.43792e-06
1.22761e-05
-9.68311e-07
1.19625e-05
-8.14296e-07
1.16619e-05
-7.58503e-07
1.14366e-05
-5.65303e-07
1.12245e-05
-4.96436e-07
1.10267e-05
-4.73259e-07
1.07835e-05
-6.31254e-07
1.0567e-05
-6.14677e-07
1.03255e-05
-6.14087e-07
9.94957e-06
-1.06461e-06
9.54316e-06
-1.19616e-06
8.98095e-06
-1.57715e-06
8.24101e-06
-2.08062e-06
-2.90276e-06
7.26506e-06
1.34067e-05
-9.48518e-06
1.2902e-05
-6.03768e-06
1.23153e-05
-2.82647e-06
1.17122e-05
-1.68379e-06
1.11509e-05
-1.09175e-06
1.06304e-05
-9.17436e-07
1.02743e-05
-6.12148e-07
9.95386e-06
-4.93908e-07
9.66225e-06
-4.66889e-07
9.44671e-06
-3.49762e-07
9.24938e-06
-2.99108e-07
9.06363e-06
-2.87511e-07
8.83654e-06
-4.0416e-07
8.62605e-06
-4.04192e-07
8.3945e-06
-3.82534e-07
8.03331e-06
-7.03415e-07
7.63121e-06
-7.94063e-07
7.08788e-06
-1.03382e-06
6.37058e-06
-1.36332e-06
-2.01413e-06
5.48195e-06
1.24213e-05
-9.4065e-06
1.10129e-05
-4.62931e-06
9.97266e-06
-1.78619e-06
9.19863e-06
-9.09756e-07
8.63254e-06
-5.2566e-07
8.1667e-06
-4.516e-07
7.85412e-06
-2.99561e-07
7.58809e-06
-2.27882e-07
7.34786e-06
-2.26663e-07
7.1698e-06
-1.71702e-07
7.01168e-06
-1.4098e-07
6.86002e-06
-1.35852e-07
6.66659e-06
-2.10738e-07
6.48016e-06
-2.17752e-07
6.2828e-06
-1.85173e-07
5.95997e-06
-3.80586e-07
5.59442e-06
-4.28518e-07
5.10936e-06
-5.48755e-07
4.46835e-06
-7.22304e-07
-1.20033e-06
3.65454e-06
1.01077e-05
-7.0142e-06
7.8362e-06
-2.35781e-06
6.70589e-06
-6.55875e-07
6.05735e-06
-2.6122e-07
5.65815e-06
-1.26456e-07
5.33116e-06
-1.24618e-07
5.11502e-06
-8.3414e-08
4.94133e-06
-5.41927e-08
4.77749e-06
-6.28226e-08
4.65541e-06
-4.96233e-08
4.55171e-06
-3.72861e-08
4.45008e-06
-3.42217e-08
4.30621e-06
-6.6861e-08
4.16223e-06
-7.37775e-08
4.02473e-06
-4.76663e-08
3.7699e-06
-1.25757e-07
3.48343e-06
-1.42054e-07
3.10871e-06
-1.74035e-07
2.61695e-06
-2.3054e-07
-4.899e-07
1.90652e-06
5.4858e-06
3.12799e-06
2.47212e-06
2.21089e-06
2.08444e-06
1.95982e-06
1.87641e-06
1.82221e-06
1.75939e-06
1.70977e-06
1.67248e-06
1.63826e-06
1.5714e-06
1.49762e-06
1.44996e-06
1.3242e-06
1.18215e-06
1.00811e-06
7.7757e-07
2.8767e-07
4.07462e-06
2.28471e-06
-4.03835e-06
6.40357e-06
1.96706e-06
-4.29601e-06
8.09288e-06
-6.96901e-07
-9.92411e-07
9.31605e-06
-2.85303e-06
1.62986e-06
1.05808e-05
-5.51978e-06
4.25501e-06
1.18345e-05
-9.04287e-06
7.78915e-06
1.23302e-05
-1.29786e-05
1.2483e-05
1.21133e-05
-1.59556e-05
1.61726e-05
1.13855e-05
-1.7133e-05
1.78607e-05
1.04268e-05
-1.80741e-05
1.90328e-05
9.5154e-06
-1.62053e-05
1.71167e-05
8.45512e-06
-1.36327e-05
1.4693e-05
8.16843e-06
-1.12545e-05
1.15412e-05
7.57149e-06
-9.24945e-06
9.84639e-06
7.21705e-06
-6.4438e-06
6.79824e-06
7.8971e-06
-3.01789e-06
2.33785e-06
7.9546e-06
-1.81834e-06
1.76083e-06
7.26232e-06
-9.19895e-07
1.61218e-06
7.67606e-06
1.30261e-06
-1.71635e-06
8.89968e-06
5.50214e-06
-6.72577e-06
1.02385e-05
9.04089e-06
-1.03797e-05
1.15337e-05
9.21415e-06
-1.05093e-05
1.2153e-05
9.86875e-06
-1.04881e-05
1.25005e-05
1.14308e-05
-1.17784e-05
1.28147e-05
9.90073e-06
-1.02149e-05
1.30196e-05
8.04382e-06
-8.24865e-06
1.34113e-05
7.17399e-06
-7.56576e-06
1.36386e-05
7.77334e-06
-8.00059e-06
1.34654e-05
9.83941e-06
-9.66621e-06
1.37034e-05
9.11122e-06
-9.34926e-06
1.42061e-05
5.68594e-06
-6.18865e-06
1.44798e-05
4.39172e-06
-4.66544e-06
1.5019e-05
2.54289e-06
-3.08206e-06
1.55375e-05
-2.96562e-06
2.44718e-06
1.56109e-05
-8.74349e-06
8.67001e-06
1.53561e-05
-1.26678e-05
1.29226e-05
1.52667e-05
-1.53447e-05
1.54341e-05
1.56796e-05
-1.97273e-05
1.93144e-05
1.58146e-05
-2.48996e-05
2.47646e-05
1.53408e-05
-2.74725e-05
2.79463e-05
1.48356e-05
-2.89186e-05
2.94238e-05
1.44476e-05
-3.05758e-05
3.09638e-05
1.41132e-05
-3.16832e-05
3.20177e-05
1.37466e-05
-3.26815e-05
3.3048e-05
1.29505e-05
-3.22921e-05
3.30882e-05
1.16197e-05
-2.95661e-05
3.0897e-05
1.02218e-05
-2.63699e-05
2.77678e-05
9.05178e-06
-2.31944e-05
2.43644e-05
8.26171e-06
-2.1307e-05
2.2097e-05
7.81542e-06
-2.00537e-05
2.05e-05
7.60495e-06
-1.90085e-05
1.9219e-05
7.78107e-06
-1.88748e-05
1.86987e-05
8.23948e-06
-1.84834e-05
1.8025e-05
8.9133e-06
-1.76786e-05
1.70048e-05
9.60279e-06
-1.5738e-05
1.50485e-05
1.02091e-05
-1.33676e-05
1.27613e-05
1.08528e-05
-1.06066e-05
9.96282e-06
1.13798e-05
-7.96136e-06
7.43441e-06
1.16831e-05
-5.30969e-06
5.0063e-06
1.20168e-05
-1.51147e-06
1.17776e-06
1.23257e-05
1.06113e-06
-1.37004e-06
1.24972e-05
2.98841e-06
-3.15986e-06
1.25109e-05
6.32667e-06
-6.34037e-06
1.23445e-05
8.58485e-06
-8.41844e-06
1.20795e-05
9.90214e-06
-9.63711e-06
1.17634e-05
1.20566e-05
-1.17405e-05
1.14128e-05
1.3966e-05
-1.36154e-05
1.11015e-05
1.46909e-05
-1.43797e-05
1.08212e-05
1.51896e-05
-1.49093e-05
1.05947e-05
1.57903e-05
-1.55638e-05
1.03849e-05
1.50327e-05
-1.48229e-05
1.0162e-05
1.34907e-05
-1.32678e-05
1.00339e-05
1.38923e-05
-1.37643e-05
9.92837e-06
1.46076e-05
-1.45021e-05
9.78788e-06
1.41501e-05
-1.40096e-05
9.52057e-06
1.4083e-05
-1.38157e-05
9.19435e-06
1.45505e-05
-1.42243e-05
8.97055e-06
1.38056e-05
-1.35818e-05
8.74348e-06
1.22242e-05
-1.19971e-05
8.44412e-06
1.10956e-05
-1.07963e-05
8.26587e-06
1.05458e-05
-1.03676e-05
8.16926e-06
1.01247e-05
-1.00281e-05
8.18018e-06
9.44832e-06
-9.45924e-06
8.30416e-06
9.40099e-06
-9.52497e-06
8.37463e-06
9.84072e-06
-9.91119e-06
8.25578e-06
9.89534e-06
-9.77648e-06
8.12335e-06
9.3503e-06
-9.21788e-06
8.11486e-06
8.79471e-06
-8.78622e-06
8.29476e-06
8.78e-06
-8.9599e-06
8.65033e-06
9.91039e-06
-1.0266e-05
9.08993e-06
1.11431e-05
-1.15827e-05
9.2799e-06
1.27167e-05
-1.29067e-05
9.30658e-06
1.33849e-05
-1.34116e-05
9.30658e-06
1.39092e-05
-1.39092e-05
9.40381e-06
1.42231e-05
-1.43203e-05
9.81334e-06
1.46766e-05
-1.50861e-05
1.0494e-05
1.46259e-05
-1.53066e-05
1.112e-05
1.44537e-05
-1.50797e-05
1.1723e-05
1.28619e-05
-1.34649e-05
1.23885e-05
1.01877e-05
-1.08532e-05
1.29749e-05
8.14974e-06
-8.7361e-06
1.34996e-05
4.92098e-06
-5.44568e-06
1.39955e-05
8.27297e-07
-1.32322e-06
1.4462e-05
-2.31191e-06
1.84544e-06
1.49031e-05
-5.7496e-06
5.30846e-06
1.51941e-05
-9.74536e-06
9.45436e-06
1.51625e-05
-1.21143e-05
1.2146e-05
1.48235e-05
-1.3905e-05
1.4244e-05
1.42233e-05
-1.60212e-05
1.66213e-05
1.33901e-05
-1.66969e-05
1.75302e-05
1.24579e-05
-1.62471e-05
1.71793e-05
1.16449e-05
-1.69953e-05
1.78083e-05
1.09167e-05
-1.91434e-05
1.98715e-05
1.01629e-05
-2.11256e-05
2.18794e-05
9.42088e-06
-2.25365e-05
2.32786e-05
8.78072e-06
-2.38188e-05
2.4459e-05
8.27571e-06
-2.67253e-05
2.72303e-05
7.97391e-06
-3.06753e-05
3.09771e-05
7.94668e-06
-3.12811e-05
3.13083e-05
8.03944e-06
-2.86274e-05
2.85346e-05
8.18614e-06
-2.68303e-05
2.66836e-05
8.42703e-06
-2.57851e-05
2.55442e-05
8.7044e-06
-2.37651e-05
2.34877e-05
8.93861e-06
-2.05743e-05
2.03401e-05
9.13814e-06
-1.78029e-05
1.76033e-05
9.42023e-06
-1.47025e-05
1.44204e-05
9.80281e-06
-1.04833e-05
1.01007e-05
1.00775e-05
-6.00083e-06
5.72613e-06
1.00712e-05
-1.65805e-06
1.6644e-06
1.00778e-05
2.51857e-06
-2.5252e-06
1.01547e-05
5.61666e-06
-5.69359e-06
9.94114e-06
8.54883e-06
-8.33525e-06
9.64342e-06
1.26757e-05
-1.2378e-05
9.72909e-06
1.56741e-05
-1.57598e-05
9.85905e-06
1.67537e-05
-1.68836e-05
9.76692e-06
1.86321e-05
-1.854e-05
9.63028e-06
2.09659e-05
-2.08293e-05
9.49158e-06
2.15949e-05
-2.14562e-05
9.1964e-06
2.19182e-05
-2.1623e-05
8.92492e-06
2.28362e-05
-2.25647e-05
8.67877e-06
2.31115e-05
-2.28654e-05
8.41892e-06
2.15118e-05
-2.1252e-05
8.18171e-06
2.00695e-05
-1.98323e-05
7.8098e-06
1.92771e-05
-1.89052e-05
7.65583e-06
1.78867e-05
-1.77328e-05
7.38095e-06
1.77107e-05
-1.74358e-05
7.43165e-06
1.60718e-05
-1.61225e-05
7.12134e-06
1.68187e-05
-1.65084e-05
6.92858e-06
1.7779e-05
-1.75863e-05
6.68807e-06
2.10619e-05
-2.08214e-05
7.15019e-06
1.97656e-05
-2.02277e-05
7.31864e-06
2.14588e-05
-2.16273e-05
6.9915e-06
2.06846e-05
-2.03575e-05
7.22967e-06
2.14171e-05
-2.16553e-05
7.56102e-06
1.80729e-05
-1.84042e-05
7.72323e-06
1.51398e-05
-1.5302e-05
7.46253e-06
1.19186e-05
-1.16579e-05
7.39509e-06
9.31664e-06
-9.2492e-06
7.41702e-06
5.64059e-06
-5.66252e-06
7.58946e-06
2.76089e-06
-2.93333e-06
7.60997e-06
-2.52677e-07
2.32163e-07
7.6019e-06
-4.61345e-06
4.62152e-06
7.72575e-06
-1.02966e-05
1.01728e-05
8.23527e-06
-1.32044e-05
1.26949e-05
8.59483e-06
-1.58272e-05
1.54677e-05
9.25712e-06
-1.69841e-05
1.63219e-05
1.00977e-05
-1.83831e-05
1.75425e-05
1.0549e-05
-2.02169e-05
1.97657e-05
1.10618e-05
-2.15768e-05
2.1064e-05
1.14834e-05
-2.17878e-05
2.13662e-05
1.16846e-05
-2.08858e-05
2.06847e-05
1.16826e-05
-1.84561e-05
1.84581e-05
1.14486e-05
-1.55052e-05
1.57392e-05
1.12437e-05
-1.27313e-05
1.29362e-05
1.11898e-05
-9.78281e-06
9.83671e-06
1.10677e-05
-5.39244e-06
5.51459e-06
1.06709e-05
-1.06748e-06
1.46428e-06
1.00753e-05
1.77356e-06
-1.17796e-06
9.51182e-06
3.5691e-06
-3.00567e-06
8.91019e-06
4.00356e-06
-3.40193e-06
8.34285e-06
4.70044e-06
-4.13309e-06
8.10697e-06
5.76885e-06
-5.53298e-06
8.07053e-06
6.47677e-06
-6.44033e-06
8.03067e-06
6.84281e-06
-6.80295e-06
8.14675e-06
6.80248e-06
-6.91856e-06
8.28078e-06
7.39911e-06
-7.53314e-06
8.11701e-06
8.31313e-06
-8.14937e-06
8.18989e-06
8.49981e-06
-8.57268e-06
8.48398e-06
9.18185e-06
-9.47594e-06
8.9501e-06
9.24218e-06
-9.70829e-06
9.45403e-06
9.68555e-06
-1.01895e-05
9.76766e-06
1.00043e-05
-1.03179e-05
9.98622e-06
1.0472e-05
-1.06906e-05
1.0034e-05
1.13566e-05
-1.14044e-05
9.71798e-06
1.27504e-05
-1.24344e-05
9.19965e-06
1.43e-05
-1.37816e-05
8.80965e-06
1.63502e-05
-1.59601e-05
7.75461e-06
2.02369e-05
-1.91819e-05
7.20502e-06
2.29596e-05
-2.241e-05
3.5194e-05
-3.45679e-05
6.57895e-06
6.98047e-06
6.15622e-07
8.90531e-06
4.2226e-08
1.01345e-05
-1.92607e-06
1.13354e-05
-4.05399e-06
1.25566e-05
-6.7409e-06
1.32219e-05
-9.70822e-06
1.32125e-05
-1.29692e-05
1.26007e-05
-1.53438e-05
1.18917e-05
-1.6424e-05
1.08089e-05
-1.69913e-05
9.8327e-06
-1.52291e-05
8.79087e-06
-1.25909e-05
8.47161e-06
-1.09352e-05
7.83765e-06
-8.6155e-06
7.25682e-06
-5.86297e-06
8.11001e-06
-3.87108e-06
8.26358e-06
-1.97192e-06
7.39868e-06
-5.49926e-08
7.68584e-06
1.01545e-06
8.82404e-06
4.36394e-06
1.01273e-05
7.73763e-06
1.14313e-05
7.91015e-06
1.21229e-05
9.17714e-06
1.25416e-05
1.10122e-05
1.27817e-05
9.6606e-06
1.29542e-05
7.8713e-06
1.348e-05
6.64815e-06
1.37106e-05
7.54275e-06
1.3644e-05
9.90605e-06
1.40306e-05
8.72463e-06
1.4416e-05
5.30054e-06
1.47397e-05
4.068e-06
1.54685e-05
1.81406e-06
1.60022e-05
-3.49932e-06
1.60207e-05
-8.76201e-06
1.57411e-05
-1.23882e-05
1.57284e-05
-1.53319e-05
1.61242e-05
-2.0123e-05
1.60454e-05
-2.48209e-05
1.54254e-05
-2.68525e-05
1.49097e-05
-2.84029e-05
1.44814e-05
-3.01476e-05
1.40938e-05
-3.12956e-05
1.35702e-05
-3.21579e-05
1.24764e-05
-3.11982e-05
1.09797e-05
-2.80694e-05
9.60448e-06
-2.49947e-05
8.45596e-06
-2.20459e-05
7.62953e-06
-2.04805e-05
7.16245e-06
-1.95866e-05
6.99919e-06
-1.88453e-05
7.2564e-06
-1.9132e-05
7.78834e-06
-1.90153e-05
8.49632e-06
-1.83866e-05
9.18877e-06
-1.64305e-05
9.77645e-06
-1.39553e-05
1.03836e-05
-1.12137e-05
1.08873e-05
-8.46514e-06
1.11726e-05
-5.59494e-06
1.15732e-05
-1.91211e-06
1.19291e-05
7.05252e-07
1.2054e-05
2.86356e-06
1.20884e-05
6.29227e-06
1.20215e-05
8.65172e-06
1.17921e-05
1.01316e-05
1.14842e-05
1.23645e-05
1.11763e-05
1.42739e-05
1.09e-05
1.49671e-05
1.06301e-05
1.54595e-05
1.0425e-05
1.59954e-05
1.02478e-05
1.521e-05
1.00134e-05
1.37251e-05
9.84491e-06
1.40608e-05
9.71119e-06
1.47414e-05
9.55671e-06
1.43046e-05
9.3004e-06
1.43393e-05
8.99925e-06
1.48517e-05
8.79056e-06
1.40143e-05
8.5982e-06
1.24166e-05
8.31625e-06
1.13776e-05
8.13229e-06
1.07298e-05
8.08504e-06
1.01719e-05
8.10541e-06
9.42795e-06
8.20473e-06
9.30167e-06
8.30833e-06
9.73712e-06
8.24089e-06
9.96277e-06
8.13243e-06
9.45876e-06
8.11481e-06
8.81233e-06
8.32077e-06
8.57404e-06
8.70548e-06
9.52568e-06
9.25129e-06
1.05973e-05
9.64661e-06
1.23214e-05
9.84433e-06
1.31872e-05
9.96522e-06
1.37883e-05
1.00677e-05
1.41206e-05
1.04459e-05
1.42984e-05
1.11657e-05
1.39061e-05
1.1814e-05
1.38054e-05
1.23877e-05
1.22882e-05
1.30184e-05
9.55705e-06
1.35743e-05
7.59379e-06
1.40771e-05
4.4182e-06
1.46028e-05
3.0166e-07
1.50708e-05
-2.77994e-06