/*--------------------------------*- C++ -*----------------------------------*\
| =========                 |                                                 |
| \\      /  F ield         | OpenFOAM: The Open Source CFD Toolbox           |
|  \\    /   O peration     | Version:  2.4.0                                 |
|   \\  /    A nd           | Web:      www.OpenFOAM.org                      |
|    \\/     M anipulation  |                                                 |
\*---------------------------------------------------------------------------*/
FoamFile
{
    version     2.0;
    format      ascii;
    class       volVectorField;
    location    "0.169";
    object      UMean;
}
// * * * * * * * * * * * * * * * * * * * * * * * * * * * * * * * * * * * * * //

dimensions      [0 1 -1 0 0 0 0];

internalField   nonuniform List<vector> 
17600
(
(5.34352 0.307708 0)
(3.03367 0.0607439 0)
(2.25663 -0.0014446 0)
(1.91313 -0.00351329 0)
(1.77753 -0.00133831 0)
(1.68504 -0.000160768 0)
(1.62234 -2.46912e-05 0)
(1.56241 4.58899e-06 0)
(1.53086 -0.000191128 0)
(1.49235 2.14474e-05 0)
(1.47875 -0.000130482 0)
(1.4482 0.000130919 0)
(1.44199 -0.000112432 0)
(1.41579 9.75536e-05 0)
(1.41644 -0.000264085 0)
(1.40095 -0.00013621 0)
(1.40951 -0.000498898 0)
(1.42139 -0.000532883 0)
(1.45958 -0.00135973 0)
(1.43504 -0.0289898 0)
(8.59446 0.86552 0)
(6.98721 0.379549 0)
(5.87826 0.119762 0)
(5.13317 0.0497324 0)
(4.74585 0.0269666 0)
(4.47639 0.0192946 0)
(4.30388 0.0148437 0)
(4.13771 0.0113811 0)
(4.0493 0.00821157 0)
(3.93678 0.00676789 0)
(3.89812 0.00505893 0)
(3.80898 0.00507867 0)
(3.79339 0.00357499 0)
(3.71693 0.00389154 0)
(3.71738 0.00132174 0)
(3.66548 0.00189859 0)
(3.67855 -0.0024748 0)
(3.68759 -0.00434767 0)
(3.72178 -0.00531062 0)
(3.86569 -0.0905105 0)
(9.83839 1.01327 0)
(9.3574 0.569793 0)
(8.52417 0.236608 0)
(7.69948 0.126905 0)
(7.1759 0.0784898 0)
(6.78072 0.0545413 0)
(6.53057 0.0411294 0)
(6.28115 0.0314446 0)
(6.15071 0.0237167 0)
(5.97443 0.0190408 0)
(5.91726 0.014861 0)
(5.77592 0.0136914 0)
(5.75518 0.0105097 0)
(5.63352 0.0102932 0)
(5.63553 0.00523235 0)
(5.54635 0.00533643 0)
(5.56675 -0.00311203 0)
(5.54519 -0.00652787 0)
(5.60377 -0.0205204 0)
(5.72832 -0.115349 0)
(10.1389 0.939124 0)
(10.5567 0.658399 0)
(10.2816 0.323035 0)
(9.66517 0.204621 0)
(9.17473 0.141933 0)
(8.73604 0.101669 0)
(8.45795 0.0769696 0)
(8.15264 0.0589018 0)
(8.00139 0.0453582 0)
(7.77436 0.0362388 0)
(7.70803 0.028717 0)
(7.52234 0.0260353 0)
(7.50097 0.0201741 0)
(7.34015 0.0200483 0)
(7.34604 0.01068 0)
(7.22048 0.0123943 0)
(7.25301 -0.00405658 0)
(7.18436 -0.00462836 0)
(7.28195 -0.0407328 0)
(7.31321 -0.11939 0)
(10.0593 0.798971 0)
(10.8967 0.659141 0)
(11.135 0.348368 0)
(10.8814 0.249175 0)
(10.6029 0.195333 0)
(10.2386 0.14921 0)
(10.0112 0.116254 0)
(9.69795 0.0900649 0)
(9.56092 0.0707699 0)
(9.3069 0.0565683 0)
(9.2481 0.0456589 0)
(9.0326 0.0403774 0)
(9.01894 0.0326065 0)
(8.82883 0.0304481 0)
(8.8443 0.0198745 0)
(8.68829 0.0173475 0)
(8.73131 0.00316057 0)
(8.63424 -0.0114038 0)
(8.72128 -0.0365959 0)
(8.73931 -0.161945 0)
(9.98107 0.685991 0)
(10.8286 0.626424 0)
(11.3097 0.326026 0)
(11.335 0.245038 0)
(11.3349 0.215451 0)
(11.1467 0.179416 0)
(11.0659 0.147225 0)
(10.8184 0.117998 0)
(10.7476 0.0951118 0)
(10.508 0.077544 0)
(10.4809 0.0628186 0)
(10.2629 0.0564524 0)
(10.2669 0.0445689 0)
(10.0695 0.0438478 0)
(10.0955 0.0262373 0)
(9.92993 0.0292236 0)
(9.97748 -0.000204023 0)
(9.8681 0.00195993 0)
(9.94452 -0.0598356 0)
(9.93665 -0.15357 0)
(9.97293 0.597393 0)
(10.6976 0.593734 0)
(11.2351 0.297319 0)
(11.3389 0.215298 0)
(11.5015 0.202425 0)
(11.4525 0.18195 0)
(11.5432 0.157551 0)
(11.4121 0.130985 0)
(11.4602 0.109555 0)
(11.2884 0.0918644 0)
(11.3303 0.0766494 0)
(11.1474 0.0691012 0)
(11.1922 0.0571343 0)
(11.011 0.053475 0)
(11.0641 0.0377061 0)
(10.901 0.0329547 0)
(10.9696 0.0103725 0)
(10.8478 -0.00482473 0)
(10.9369 -0.0551166 0)
(10.8886 -0.152462 0)
(9.99266 0.518905 0)
(10.5906 0.557969 0)
(11.1403 0.27963 0)
(11.245 0.188699 0)
(11.4533 0.180345 0)
(11.4369 0.170275 0)
(11.6095 0.151686 0)
(11.555 0.128675 0)
(11.697 0.108647 0)
(11.6116 0.094573 0)
(11.7304 0.0792878 0)
(11.623 0.0752443 0)
(11.7214 0.0609221 0)
(11.5997 0.0616169 0)
(11.685 0.0398908 0)
(11.5644 0.0423433 0)
(11.6508 0.00647422 0)
(11.5515 0.00526446 0)
(11.6471 -0.0714996 0)
(11.5763 -0.118523 0)
(10.0128 0.448854 0)
(10.5104 0.51451 0)
(11.0549 0.266247 0)
(11.1723 0.166192 0)
(11.3811 0.158649 0)
(11.373 0.156336 0)
(11.5437 0.140963 0)
(11.5232 0.120545 0)
(11.6744 0.0999402 0)
(11.6486 0.0884787 0)
(11.7853 0.0733654 0)
(11.7521 0.0719749 0)
(11.8714 0.0579028 0)
(11.8293 0.0601733 0)
(11.9312 0.0386743 0)
(11.8856 0.0414459 0)
(11.9789 0.00434685 0)
(11.9418 0.00355947 0)
(12.0288 -0.0829447 0)
(11.9805 -0.117501 0)
(10.0135 0.3861 0)
(10.4619 0.467872 0)
(10.9643 0.254137 0)
(11.1302 0.145189 0)
(11.3063 0.138031 0)
(11.3358 0.14236 0)
(11.462 0.129702 0)
(11.4855 0.111915 0)
(11.5936 0.0899886 0)
(11.6194 0.0804192 0)
(11.7177 0.0649186 0)
(11.7429 0.0651451 0)
(11.8296 0.0512176 0)
(11.8538 0.0537184 0)
(11.9293 0.0337721 0)
(11.9543 0.033299 0)
(12.0245 0.0017968 0)
(12.0547 -0.0150163 0)
(12.1141 -0.081348 0)
(12.1017 -0.17977 0)
(9.99433 0.328258 0)
(10.4313 0.422153 0)
(10.8771 0.241664 0)
(11.0979 0.126503 0)
(11.2387 0.117666 0)
(11.3083 0.129458 0)
(11.3935 0.117543 0)
(11.4525 0.104412 0)
(11.5252 0.0797973 0)
(11.5837 0.0736066 0)
(11.6517 0.0558421 0)
(11.7061 0.0595736 0)
(11.7674 0.0429904 0)
(11.8181 0.0481986 0)
(11.8743 0.025615 0)
(11.9227 0.027479 0)
(11.9798 -0.0082879 0)
(12.0281 -0.0242003 0)
(12.0753 -0.0995426 0)
(12.0602 -0.213826 0)
(9.97974 0.277706 0)
(10.3948 0.375181 0)
(10.8097 0.229424 0)
(11.0545 0.107852 0)
(11.1901 0.099514 0)
(11.2702 0.114762 0)
(11.3452 0.106574 0)
(11.4088 0.0947748 0)
(11.4777 0.0715923 0)
(11.5387 0.0649582 0)
(11.6059 0.0495373 0)
(11.6602 0.0517367 0)
(11.7224 0.0383062 0)
(11.7704 0.0394314 0)
(11.8291 0.0218118 0)
(11.8732 0.0157961 0)
(11.9337 -0.0125858 0)
(11.974 -0.0420143 0)
(12.0216 -0.112057 0)
(11.9877 -0.237961 0)
(9.97775 0.232699 0)
(10.355 0.328788 0)
(10.7568 0.21271 0)
(11.0068 0.0921798 0)
(11.1525 0.0818958 0)
(11.23 0.100617 0)
(11.3051 0.0942961 0)
(11.3651 0.0851168 0)
(11.4371 0.0624265 0)
(11.4956 0.0568836 0)
(11.5666 0.0423199 0)
(11.618 0.0447114 0)
(11.6827 0.03225 0)
(11.7275 0.0322444 0)
(11.7879 0.0158944 0)
(11.8294 0.00736102 0)
(11.8902 -0.0204425 0)
(11.9262 -0.0556915 0)
(11.9701 -0.125567 0)
(11.9242 -0.254612 0)
(9.97675 0.193028 0)
(10.3247 0.282959 0)
(10.7075 0.190656 0)
(10.9675 0.0787398 0)
(11.1167 0.0678133 0)
(11.1991 0.0859276 0)
(11.2663 0.0831426 0)
(11.3314 0.0739756 0)
(11.3972 0.0546978 0)
(11.4627 0.0477138 0)
(11.5274 0.0366287 0)
(11.586 0.0365586 0)
(11.6431 0.0277132 0)
(11.6955 0.0236771 0)
(11.7475 0.0110122 0)
(11.7971 -0.00251666 0)
(11.8477 -0.028109 0)
(11.8907 -0.0682353 0)
(11.92 -0.138483 0)
(11.8763 -0.266985 0)
(9.97392 0.156047 0)
(10.3014 0.239659 0)
(10.6649 0.162745 0)
(10.9355 0.0682429 0)
(11.0867 0.0543522 0)
(11.1749 0.0728199 0)
(11.2354 0.0703348 0)
(11.304 0.0638123 0)
(11.3654 0.0454969 0)
(11.4355 0.0402853 0)
(11.4965 0.0294132 0)
(11.5597 0.0301621 0)
(11.6128 0.0210084 0)
(11.6693 0.0171992 0)
(11.7169 0.00382937 0)
(11.7699 -0.0103124 0)
(11.815 -0.0370165 0)
(11.86 -0.079661 0)
(11.8793 -0.149022 0)
(11.8355 -0.280721 0)
(9.97534 0.123401 0)
(10.2779 0.195389 0)
(10.6348 0.134093 0)
(10.905 0.0566244 0)
(11.067 0.0430268 0)
(11.1516 0.0581273 0)
(11.2155 0.0585621 0)
(11.2775 0.0514373 0)
(11.3445 0.0379136 0)
(11.4095 0.0308831 0)
(11.4768 0.0243745 0)
(11.5344 0.0213327 0)
(11.5936 0.0168167 0)
(11.6438 0.00766092 0)
(11.6968 -0.000270633 0)
(11.7425 -0.0217798 0)
(11.7926 -0.0420286 0)
(11.8282 -0.0947983 0)
(11.8489 -0.152928 0)
(11.7937 -0.295504 0)
(9.97849 0.0935418 0)
(10.2583 0.151301 0)
(10.6121 0.104628 0)
(10.8797 0.0451748 0)
(11.0517 0.0320216 0)
(11.1326 0.0444484 0)
(11.1993 0.0456424 0)
(11.2559 0.0400108 0)
(11.3272 0.0289218 0)
(11.3886 0.0232894 0)
(11.4598 0.0174859 0)
(11.5136 0.0150452 0)
(11.5763 0.00993098 0)
(11.6224 0.00201905 0)
(11.6782 -0.00854259 0)
(11.7195 -0.0268727 0)
(11.7712 -0.0542379 0)
(11.8006 -0.0990304 0)
(11.8209 -0.168641 0)
(11.7551 -0.279339 0)
(9.97775 0.0649706 0)
(10.2477 0.108097 0)
(10.5912 0.0745818 0)
(10.8634 0.0336649 0)
(11.0364 0.0215352 0)
(11.1212 0.0316199 0)
(11.1828 0.0323401 0)
(11.2426 0.0287706 0)
(11.3099 0.0199515 0)
(11.3754 0.0159286 0)
(11.442 0.0108351 0)
(11.5005 0.00842923 0)
(11.5582 0.00327967 0)
(11.6086 -0.00453673 0)
(11.659 -0.0159632 0)
(11.7043 -0.0335476 0)
(11.7492 -0.0640009 0)
(11.7814 -0.105188 0)
(11.7941 -0.181686 0)
(11.729 -0.26493 0)
(9.97601 0.039324 0)
(10.2415 0.0635749 0)
(10.5762 0.0459498 0)
(10.8538 0.0194818 0)
(11.0256 0.0135128 0)
(11.1146 0.0172722 0)
(11.1714 0.0205609 0)
(11.2347 0.0154854 0)
(11.2978 0.0126559 0)
(11.367 0.00676625 0)
(11.4298 0.00607151 0)
(11.4926 -0.000219245 0)
(11.5459 -0.00120737 0)
(11.6001 -0.013584 0)
(11.6457 -0.0204232 0)
(11.6943 -0.0441108 0)
(11.7333 -0.068439 0)
(11.7681 -0.117819 0)
(11.7732 -0.183633 0)
(11.7085 -0.280465 0)
(9.97704 0.012675 0)
(10.2362 0.0214717 0)
(10.5712 0.0149062 0)
(10.8475 0.00694789 0)
(11.0224 0.00362581 0)
(11.1093 0.00599401 0)
(11.1684 0.00567795 0)
(11.2289 0.00537535 0)
(11.2944 0.00185071 0)
(11.3613 0.00145179 0)
(11.427 -0.00280004 0)
(11.487 -0.00420009 0)
(11.5428 -0.0104844 0)
(11.5938 -0.0171499 0)
(11.6416 -0.0304194 0)
(11.6863 -0.048176 0)
(11.7269 -0.0790813 0)
(11.7566 -0.12349 0)
(11.7612 -0.190168 0)
(11.6913 -0.299072 0)
(9.97844 -0.0116711 0)
(10.2347 -0.022877 0)
(10.573 -0.0140261 0)
(10.8463 -0.00841242 0)
(11.0237 -0.00327305 0)
(11.108 -0.00835226 0)
(11.1702 -0.00590588 0)
(11.2277 -0.00846559 0)
(11.2963 -0.0049094 0)
(11.3604 -0.00845268 0)
(11.4289 -0.00669818 0)
(11.4857 -0.01388 0)
(11.544 -0.0136204 0)
(11.5917 -0.0277012 0)
(11.642 -0.032919 0)
(11.6828 -0.0604587 0)
(11.725 -0.0808952 0)
(11.7495 -0.137967 0)
(11.7534 -0.186726 0)
(11.6796 -0.318914 0)
(9.97833 -0.0379228 0)
(10.2387 -0.0654779 0)
(10.5794 -0.0445698 0)
(10.8517 -0.0214494 0)
(11.0282 -0.0124938 0)
(11.1122 -0.0203628 0)
(11.175 -0.0200212 0)
(11.2323 -0.0193851 0)
(11.3013 -0.0148199 0)
(11.3649 -0.0146592 0)
(11.4332 -0.0146654 0)
(11.4897 -0.0186183 0)
(11.5478 -0.0223767 0)
(11.5951 -0.0314208 0)
(11.6451 -0.0432915 0)
(11.6846 -0.0628848 0)
(11.7254 -0.0940339 0)
(11.7479 -0.137182 0)
(11.7488 -0.202271 0)
(11.6712 -0.287327 0)
(9.97724 -0.0642845 0)
(10.2478 -0.109118 0)
(10.5911 -0.074157 0)
(10.8638 -0.0345684 0)
(11.0365 -0.0216193 0)
(11.1213 -0.0335197 0)
(11.183 -0.0330614 0)
(11.2424 -0.031248 0)
(11.3098 -0.0236534 0)
(11.3745 -0.0220627 0)
(11.441 -0.0213173 0)
(11.4987 -0.0247266 0)
(11.555 -0.0293845 0)
(11.6035 -0.0369469 0)
(11.6513 -0.0514044 0)
(11.691 -0.0674748 0)
(11.7291 -0.104464 0)
(11.7511 -0.138546 0)
(11.7504 -0.215576 0)
(11.6724 -0.255923 0)
(9.97637 -0.0919658 0)
(10.2609 -0.153336 0)
(10.6092 -0.103196 0)
(10.8817 -0.0473176 0)
(11.0492 -0.0310084 0)
(11.1343 -0.047731 0)
(11.1958 -0.0449207 0)
(11.2572 -0.0442178 0)
(11.3233 -0.0308816 0)
(11.3889 -0.0315224 0)
(11.4537 -0.0255884 0)
(11.5123 -0.0340422 0)
(11.567 -0.0324694 0)
(11.6164 -0.0473751 0)
(11.6621 -0.0531344 0)
(11.7021 -0.0798141 0)
(11.7377 -0.104642 0)
(11.7595 -0.153456 0)
(11.7571 -0.210038 0)
(11.6759 -0.273839 0)
(9.97572 -0.122796 0)
(10.278 -0.196308 0)
(10.6345 -0.133622 0)
(10.9052 -0.0576663 0)
(11.0666 -0.0431016 0)
(11.1517 -0.0601282 0)
(11.2139 -0.0590098 0)
(11.2768 -0.0544879 0)
(11.3422 -0.0409788 0)
(11.4081 -0.0378249 0)
(11.4717 -0.033639 0)
(11.5307 -0.0389848 0)
(11.5842 -0.0405175 0)
(11.6339 -0.0518294 0)
(11.6782 -0.0614626 0)
(11.718 -0.0843611 0)
(11.7516 -0.112974 0)
(11.7731 -0.159397 0)
(11.7685 -0.214633 0)
(11.6857 -0.287288 0)
(9.97536 -0.154944 0)
(10.2996 -0.241006 0)
(10.6671 -0.161988 0)
(10.9342 -0.0694858 0)
(11.0889 -0.0541133 0)
(11.1737 -0.0748528 0)
(11.2373 -0.0706316 0)
(11.3014 -0.0668801 0)
(11.3668 -0.0485839 0)
(11.4321 -0.0469414 0)
(11.4952 -0.0389156 0)
(11.5536 -0.0469835 0)
(11.607 -0.0452124 0)
(11.6561 -0.059597 0)
(11.7 -0.0660762 0)
(11.7386 -0.0922354 0)
(11.7712 -0.117796 0)
(11.7912 -0.167954 0)
(11.7854 -0.219421 0)
(11.7021 -0.294717 0)
(9.97555 -0.192007 0)
(10.3261 -0.28431 0)
(10.7067 -0.189969 0)
(10.969 -0.0801427 0)
(11.1163 -0.0673863 0)
(11.2007 -0.0882675 0)
(11.2661 -0.0830139 0)
(11.3315 -0.0775375 0)
(11.3968 -0.0571869 0)
(11.4614 -0.0549808 0)
(11.524 -0.0452729 0)
(11.5819 -0.0539659 0)
(11.6353 -0.0506989 0)
(11.6835 -0.0662767 0)
(11.7273 -0.0715254 0)
(11.7642 -0.098517 0)
(11.7963 -0.124232 0)
(11.8141 -0.17362 0)
(11.8087 -0.229515 0)
(11.7249 -0.291029 0)
(9.97913 -0.23203 0)
(10.3567 -0.329518 0)
(10.755 -0.21267 0)
(11.0094 -0.0930117 0)
(11.1501 -0.082096 0)
(11.233 -0.102285 0)
(11.3012 -0.0949525 0)
(11.3674 -0.0879976 0)
(11.4326 -0.0656886 0)
(11.4968 -0.0633186 0)
(11.5583 -0.0516922 0)
(11.6165 -0.0611494 0)
(11.6686 -0.0558115 0)
(11.717 -0.0733577 0)
(11.7594 -0.075913 0)
(11.796 -0.105805 0)
(11.8261 -0.128307 0)
(11.8432 -0.181704 0)
(11.8374 -0.236473 0)
(11.7552 -0.293299 0)
(9.99183 -0.277075 0)
(10.3864 -0.375958 0)
(10.8168 -0.229187 0)
(11.0482 -0.108786 0)
(11.1946 -0.0993616 0)
(11.2649 -0.116477 0)
(11.3462 -0.107077 0)
(11.4038 -0.0978085 0)
(11.4773 -0.0746279 0)
(11.5334 -0.0715099 0)
(11.601 -0.0586968 0)
(11.6527 -0.0680305 0)
(11.7096 -0.0612536 0)
(11.753 -0.0801478 0)
(11.7985 -0.0801186 0)
(11.831 -0.113152 0)
(11.862 -0.130836 0)
(11.8765 -0.191604 0)
(11.8705 -0.238501 0)
(11.79 -0.310015 0)
(10.0118 -0.328189 0)
(10.4134 -0.422306 0)
(10.8946 -0.241985 0)
(11.0802 -0.126587 0)
(11.2536 -0.118274 0)
(11.2912 -0.130145 0)
(11.4059 -0.119042 0)
(11.435 -0.106515 0)
(11.5366 -0.0838847 0)
(11.5654 -0.0790252 0)
(11.6583 -0.0663447 0)
(11.6852 -0.0740476 0)
(11.7651 -0.0674806 0)
(11.7861 -0.0857385 0)
(11.8513 -0.0852384 0)
(11.8634 -0.118537 0)
(11.9087 -0.134513 0)
(11.9047 -0.198035 0)
(11.9029 -0.241912 0)
(11.808 -0.326909 0)
(10.0238 -0.385486 0)
(10.4479 -0.468552 0)
(10.981 -0.254136 0)
(11.1126 -0.145545 0)
(11.3226 -0.138462 0)
(11.3178 -0.143232 0)
(11.4785 -0.131011 0)
(11.4656 -0.114358 0)
(11.6108 -0.0938661 0)
(11.5962 -0.0859785 0)
(11.7317 -0.075072 0)
(11.7143 -0.0794563 0)
(11.835 -0.074782 0)
(11.8106 -0.0905527 0)
(11.9115 -0.0907785 0)
(11.8746 -0.12288 0)
(11.9452 -0.136794 0)
(11.8837 -0.202525 0)
(11.8842 -0.240675 0)
(11.7222 -0.341383 0)
(10.0146 -0.448359 0)
(10.5068 -0.515132 0)
(11.0627 -0.266363 0)
(11.1641 -0.166247 0)
(11.3898 -0.159351 0)
(11.364 -0.156838 0)
(11.5529 -0.142428 0)
(11.5121 -0.122778 0)
(11.6844 -0.103831 0)
(11.6328 -0.0935569 0)
(11.7923 -0.0836082 0)
(11.7276 -0.0850612 0)
(11.8672 -0.0813862 0)
(11.783 -0.0943286 0)
(11.8937 -0.0944316 0)
(11.783 -0.124283 0)
(11.8498 -0.13468 0)
(11.6947 -0.201608 0)
(11.6686 -0.228005 0)
(11.3927 -0.347383 0)
(9.99254 -0.518253 0)
(10.5913 -0.558751 0)
(11.1423 -0.279588 0)
(11.2428 -0.188757 0)
(11.4562 -0.181028 0)
(11.4338 -0.170656 0)
(11.6121 -0.153121 0)
(11.5503 -0.130731 0)
(11.6979 -0.112496 0)
(11.6016 -0.099023 0)
(11.7261 -0.0894198 0)
(11.5994 -0.086666 0)
(11.7 -0.0841555 0)
(11.5426 -0.0915615 0)
(11.6137 -0.0938662 0)
(11.4244 -0.115606 0)
(11.4495 -0.12974 0)
(11.21 -0.183036 0)
(11.1306 -0.216682 0)
(10.7726 -0.310022 0)
(9.97245 -0.59694 0)
(10.6993 -0.594392 0)
(11.2347 -0.297233 0)
(11.3392 -0.215461 0)
(11.5015 -0.20296 0)
(11.4517 -0.182461 0)
(11.5424 -0.158705 0)
(11.4093 -0.133158 0)
(11.4555 -0.112628 0)
(11.2792 -0.0964104 0)
(11.3164 -0.085145 0)
(11.1193 -0.080211 0)
(11.1549 -0.0767509 0)
(10.9371 -0.0818409 0)
(10.9631 -0.0833423 0)
(10.7185 -0.101719 0)
(10.7105 -0.114032 0)
(10.4119 -0.160271 0)
(10.302 -0.190278 0)
(9.88339 -0.263431 0)
(9.98091 -0.68566 0)
(10.8301 -0.626864 0)
(11.3088 -0.326049 0)
(11.336 -0.245216 0)
(11.3337 -0.215966 0)
(11.1461 -0.17984 0)
(11.0635 -0.148313 0)
(10.815 -0.11976 0)
(10.74 -0.0979343 0)
(10.4968 -0.0812585 0)
(10.4612 -0.0704552 0)
(10.2287 -0.0654414 0)
(10.2194 -0.0625432 0)
(9.97943 -0.0664868 0)
(9.97552 -0.0682546 0)
(9.71093 -0.0833197 0)
(9.67955 -0.0943534 0)
(9.35491 -0.132639 0)
(9.22347 -0.15631 0)
(8.77042 -0.217317 0)
(10.0595 -0.798729 0)
(10.8976 -0.659465 0)
(11.1343 -0.348441 0)
(10.882 -0.249335 0)
(10.6012 -0.195715 0)
(10.2377 -0.149584 0)
(10.0078 -0.117103 0)
(9.69397 -0.0915432 0)
(9.55084 -0.0729785 0)
(9.29469 -0.0597648 0)
(9.22353 -0.05148 0)
(8.99564 -0.048155 0)
(8.96267 -0.0462363 0)
(8.73112 -0.0497648 0)
(8.70808 -0.0515663 0)
(8.45016 -0.0633941 0)
(8.40147 -0.0730884 0)
(8.07809 -0.101081 0)
(7.92971 -0.124045 0)
(7.48189 -0.154199 0)
(10.1391 -0.938974 0)
(10.5573 -0.658608 0)
(10.281 -0.323119 0)
(9.66549 -0.204725 0)
(9.17281 -0.142205 0)
(8.73496 -0.101954 0)
(8.45433 -0.0776242 0)
(8.14806 -0.0599652 0)
(7.99046 -0.0470331 0)
(7.76133 -0.0385358 0)
(7.68164 -0.0330977 0)
(7.48396 -0.0315837 0)
(7.44128 -0.0304511 0)
(7.23898 -0.0335952 0)
(7.20444 -0.03495 0)
(6.97353 -0.0438716 0)
(6.91391 -0.0508799 0)
(6.61272 -0.0707607 0)
(6.46369 -0.0876225 0)
(6.02735 -0.103862 0)
(9.83863 -1.01319 0)
(9.35781 -0.569923 0)
(8.52365 -0.236677 0)
(7.69942 -0.126961 0)
(7.17424 -0.0786558 0)
(6.77953 -0.0547345 0)
(6.52715 -0.0415624 0)
(6.27626 -0.0320992 0)
(6.14058 -0.0248003 0)
(5.96107 -0.0204914 0)
(5.89209 -0.0175494 0)
(5.73886 -0.0173908 0)
(5.69717 -0.0167761 0)
(5.53755 -0.0192765 0)
(5.49874 -0.0199786 0)
(5.31091 -0.0259727 0)
(5.2471 -0.0300346 0)
(4.9908 -0.0425271 0)
(4.85139 -0.0528038 0)
(4.45479 -0.0622487 0)
(8.59464 -0.865487 0)
(6.98748 -0.379611 0)
(5.87782 -0.119803 0)
(5.1329 -0.0497464 0)
(4.74465 -0.0270506 0)
(4.47515 -0.0193969 0)
(4.30104 -0.0150495 0)
(4.13333 -0.0116806 0)
(4.04122 -0.00874841 0)
(3.92505 -0.00743102 0)
(3.87769 -0.00635496 0)
(3.77784 -0.00680516 0)
(3.745 -0.00651503 0)
(3.63795 -0.00805614 0)
(3.60288 -0.00820685 0)
(3.47231 -0.011352 0)
(3.41449 -0.012907 0)
(3.22808 -0.0190656 0)
(3.11028 -0.023282 0)
(2.80682 -0.0286667 0)
(5.3436 -0.3077 0)
(3.03378 -0.060756 0)
(2.25638 0.00143941 0)
(1.91287 0.00351881 0)
(1.77697 0.00132608 0)
(1.68429 0.000147138 0)
(1.62082 1.88714e-06 0)
(1.56 -3.73761e-05 0)
(1.52666 0.000119802 0)
(1.48592 -7.2162e-05 0)
(1.46824 -1.54667e-05 0)
(1.43162 -0.000319912 0)
(1.41645 -0.000174307 0)
(1.37475 -0.00058362 0)
(1.35567 -0.000377269 0)
(1.30172 -0.00100704 0)
(1.26928 -0.000853338 0)
(1.18738 -0.00189941 0)
(1.12225 -0.00213759 0)
(0.98722 0.00230615 0)
(2.12744 -0.187418 0)
(2.62294 -0.102138 0)
(3.15423 -0.100542 0)
(3.6587 -0.126684 0)
(4.14187 -0.179949 0)
(4.62502 -0.253523 0)
(5.10072 -0.318459 0)
(5.60646 -0.445455 0)
(6.11361 -0.566785 0)
(6.53261 -0.694944 0)
(6.92927 -0.835282 0)
(7.19675 -0.982828 0)
(7.45619 -1.10227 0)
(7.6486 -1.17638 0)
(7.84587 -1.22574 0)
(8.00514 -1.26761 0)
(8.17048 -1.3434 0)
(8.29732 -1.45102 0)
(8.39142 -1.56788 0)
(8.50692 -1.68001 0)
(8.57981 -1.77939 0)
(8.66307 -1.86327 0)
(8.78674 -1.94503 0)
(8.87721 -2.02557 0)
(8.98185 -2.11885 0)
(9.04589 -2.20616 0)
(9.08549 -2.26866 0)
(9.11386 -2.31424 0)
(9.116 -2.33852 0)
(9.11628 -2.3606 0)
(9.10233 -2.37491 0)
(9.10688 -2.3903 0)
(9.09648 -2.40293 0)
(9.06121 -2.41884 0)
(9.00704 -2.43589 0)
(8.92599 -2.45748 0)
(8.83595 -2.47377 0)
(8.76298 -2.47715 0)
(8.74031 -2.46778 0)
(8.74863 -2.44819 0)
(8.75558 -2.4329 0)
(8.7475 -2.41146 0)
(8.72884 -2.39346 0)
(8.70484 -2.37691 0)
(8.68884 -2.34187 0)
(8.67579 -2.30587 0)
(8.65564 -2.26715 0)
(8.6348 -2.23293 0)
(8.54849 -2.16848 0)
(8.43637 -2.09306 0)
(8.34262 -2.04039 0)
(8.2438 -1.97196 0)
(8.15021 -1.90569 0)
(8.07569 -1.84564 0)
(8.00613 -1.77639 0)
(7.93544 -1.71223 0)
(7.89035 -1.65546 0)
(7.82394 -1.58127 0)
(7.77055 -1.49776 0)
(7.68749 -1.40948 0)
(7.5966 -1.28436 0)
(7.47926 -1.14319 0)
(7.36696 -1.00623 0)
(7.27447 -0.87642 0)
(7.17449 -0.755834 0)
(7.07909 -0.642764 0)
(6.98463 -0.536591 0)
(6.906 -0.437133 0)
(6.82282 -0.348494 0)
(6.74701 -0.255253 0)
(6.68906 -0.165701 0)
(6.63156 -0.0899144 0)
(6.59789 -0.0237344 0)
(6.56401 0.0383432 0)
(6.53613 0.103181 0)
(6.52568 0.195919 0)
(6.50632 0.292101 0)
(6.49632 0.38675 0)
(6.4712 0.48599 0)
(6.47899 0.581739 0)
(6.46153 0.670726 0)
(6.45202 0.744488 0)
(6.45559 0.812246 0)
(6.44993 0.860935 0)
(6.44987 0.894218 0)
(6.43643 0.920817 0)
(6.40568 0.949119 0)
(6.38329 0.969959 0)
(6.3511 0.968447 0)
(6.34441 0.975894 0)
(6.30392 0.969093 0)
(6.31036 0.954949 0)
(6.30471 0.93159 0)
(6.29987 0.921231 0)
(6.31373 0.883584 0)
(6.3182 0.854868 0)
(6.35132 0.810774 0)
(6.34083 0.782292 0)
(6.40966 0.73037 0)
(6.40211 0.694302 0)
(6.46115 0.63561 0)
(6.43782 0.611907 0)
(6.49016 0.539876 0)
(6.46326 0.513462 0)
(6.51407 0.43767 0)
(6.44757 0.428485 0)
(6.51594 0.347227 0)
(6.43111 0.349892 0)
(6.53994 0.287575 0)
(6.4369 0.30997 0)
(6.553 0.24098 0)
(6.43795 0.250827 0)
(6.5573 0.17969 0)
(6.43591 0.197025 0)
(6.57339 0.112062 0)
(6.41173 0.128072 0)
(6.58503 0.039098 0)
(6.37295 0.055587 0)
(6.55183 -0.0305232 0)
(6.34419 0.00676949 0)
(6.48955 -0.0753954 0)
(6.32004 -0.020375 0)
(6.41465 -0.10578 0)
(6.28523 -0.0157685 0)
(6.35555 -0.109168 0)
(6.23679 0.00160568 0)
(6.31211 -0.117855 0)
(6.17436 0.0111504 0)
(6.25218 -0.11086 0)
(6.13159 0.0389294 0)
(6.19127 -0.0852446 0)
(6.15668 0.0774802 0)
(6.15251 -0.0495009 0)
(6.20475 0.111402 0)
(6.14364 -0.0110594 0)
(6.27454 0.150664 0)
(6.14352 0.0220007 0)
(6.34808 0.176372 0)
(6.14417 0.0606997 0)
(6.40349 0.191714 0)
(6.19151 0.0840723 0)
(6.41354 0.22542 0)
(6.26464 0.113272 0)
(6.43613 0.260108 0)
(6.31273 0.168633 0)
(6.47992 0.298757 0)
(6.35112 0.244471 0)
(6.50363 0.351806 0)
(6.41401 0.322912 0)
(6.52137 0.409136 0)
(6.47096 0.399707 0)
(6.55223 0.470841 0)
(6.51811 0.472966 0)
(6.57545 0.526343 0)
(6.55018 0.527024 0)
(6.58527 0.56444 0)
(6.565 0.563013 0)
(6.58137 0.595398 0)
(6.5613 0.585354 0)
(6.56367 0.615149 0)
(6.54719 0.596472 0)
(6.54187 0.624677 0)
(6.52354 0.591149 0)
(6.48946 0.613547 0)
(6.47406 0.572612 0)
(6.40499 0.591217 0)
(6.40995 0.536613 0)
(6.31345 0.561986 0)
(6.34837 0.508294 0)
(6.2299 0.553755 0)
(6.28099 0.516962 0)
(6.16099 0.590634 0)
(6.22419 0.563394 0)
(6.11316 0.658766 0)
(6.1711 0.63094 0)
(6.07418 0.750319 0)
(6.13814 0.716087 0)
(6.04525 0.860671 0)
(6.12845 0.820859 0)
(6.00578 0.997662 0)
(6.15182 0.96307 0)
(5.96649 1.16963 0)
(6.19009 1.13874 0)
(5.95467 1.37656 0)
(6.20722 1.347 0)
(5.95198 1.62465 0)
(6.19958 1.60418 0)
(5.96812 1.92596 0)
(6.17781 1.92838 0)
(5.96666 2.28559 0)
(6.13106 2.34274 0)
(5.93358 2.74596 0)
(6.0312 2.91324 0)
(5.75914 3.37786 0)
(5.88694 3.6745 0)
(5.69232 4.26575 0)
(5.69538 4.77486 0)
(5.26152 5.87171 0)
(5.81051 6.71935 0)
(3.29484 9.96967 0)
(4.07396 -0.222591 0)
(4.25957 -0.219622 0)
(4.55077 -0.262045 0)
(4.89904 -0.30725 0)
(5.26501 -0.360933 0)
(5.65383 -0.434686 0)
(6.00202 -0.504936 0)
(6.3543 -0.621772 0)
(6.6976 -0.7435 0)
(6.99031 -0.861445 0)
(7.31117 -0.988189 0)
(7.56268 -1.10865 0)
(7.76724 -1.21339 0)
(7.95907 -1.277 0)
(8.15606 -1.31952 0)
(8.34913 -1.35378 0)
(8.52217 -1.40308 0)
(8.65743 -1.49213 0)
(8.75718 -1.60096 0)
(8.85064 -1.71567 0)
(8.91753 -1.81193 0)
(9.01205 -1.89744 0)
(9.12752 -1.9823 0)
(9.22791 -2.0602 0)
(9.30172 -2.14166 0)
(9.34145 -2.22128 0)
(9.35481 -2.28174 0)
(9.37067 -2.3254 0)
(9.38148 -2.34575 0)
(9.387 -2.36018 0)
(9.36589 -2.37032 0)
(9.35746 -2.38302 0)
(9.33241 -2.39054 0)
(9.28845 -2.39951 0)
(9.22646 -2.40338 0)
(9.14054 -2.41571 0)
(9.05075 -2.4357 0)
(8.97412 -2.45454 0)
(8.9416 -2.46099 0)
(8.93856 -2.44846 0)
(8.91867 -2.43094 0)
(8.88741 -2.40206 0)
(8.84859 -2.38009 0)
(8.81254 -2.36337 0)
(8.78582 -2.33189 0)
(8.75105 -2.29712 0)
(8.71694 -2.25293 0)
(8.6656 -2.20329 0)
(8.54586 -2.1223 0)
(8.42352 -2.04725 0)
(8.31915 -1.99582 0)
(8.20758 -1.93156 0)
(8.1089 -1.87409 0)
(8.02583 -1.81358 0)
(7.94767 -1.74492 0)
(7.87493 -1.68613 0)
(7.82324 -1.63119 0)
(7.7455 -1.55322 0)
(7.679 -1.46544 0)
(7.57958 -1.36892 0)
(7.47967 -1.23669 0)
(7.35681 -1.09842 0)
(7.25109 -0.964181 0)
(7.16436 -0.836044 0)
(7.07006 -0.716603 0)
(6.97905 -0.60471 0)
(6.88396 -0.498787 0)
(6.80302 -0.401518 0)
(6.71755 -0.313913 0)
(6.63814 -0.223977 0)
(6.57784 -0.140644 0)
(6.52115 -0.0707642 0)
(6.48762 -0.0107065 0)
(6.45499 0.0498964 0)
(6.42475 0.112833 0)
(6.41002 0.204387 0)
(6.39055 0.302021 0)
(6.37987 0.394007 0)
(6.35033 0.490505 0)
(6.35469 0.585927 0)
(6.33764 0.676527 0)
(6.32175 0.74741 0)
(6.32735 0.811146 0)
(6.32772 0.861486 0)
(6.33019 0.897864 0)
(6.32228 0.929494 0)
(6.28894 0.961206 0)
(6.26902 0.981821 0)
(6.24086 0.977693 0)
(6.2342 0.988374 0)
(6.20056 0.973259 0)
(6.20647 0.956542 0)
(6.20077 0.931123 0)
(6.2009 0.920293 0)
(6.21587 0.87811 0)
(6.22527 0.849663 0)
(6.25941 0.803893 0)
(6.25797 0.772859 0)
(6.32878 0.713642 0)
(6.33544 0.684557 0)
(6.39429 0.626039 0)
(6.38083 0.607402 0)
(6.44221 0.531726 0)
(6.4164 0.510683 0)
(6.48267 0.438444 0)
(6.41175 0.433354 0)
(6.49815 0.347931 0)
(6.39479 0.350698 0)
(6.50848 0.285868 0)
(6.38918 0.311271 0)
(6.51327 0.2364 0)
(6.38993 0.255578 0)
(6.52077 0.177135 0)
(6.38131 0.197861 0)
(6.55059 0.112532 0)
(6.36065 0.132037 0)
(6.5646 0.0453898 0)
(6.32512 0.0640383 0)
(6.52745 -0.0214516 0)
(6.29668 0.0183415 0)
(6.45937 -0.0656448 0)
(6.27236 -0.00894434 0)
(6.39029 -0.091289 0)
(6.22449 -0.00754413 0)
(6.33984 -0.0962964 0)
(6.17346 0.00743709 0)
(6.29967 -0.103846 0)
(6.10747 0.020367 0)
(6.23976 -0.0974633 0)
(6.05197 0.0444268 0)
(6.18385 -0.080023 0)
(6.0643 0.0727712 0)
(6.15696 -0.0462016 0)
(6.1033 0.0999127 0)
(6.16059 -0.0126186 0)
(6.16222 0.139834 0)
(6.17365 0.0184111 0)
(6.2355 0.16976 0)
(6.17232 0.0542179 0)
(6.31056 0.180665 0)
(6.19506 0.0800034 0)
(6.33699 0.20903 0)
(6.26274 0.105389 0)
(6.3487 0.252367 0)
(6.32353 0.157237 0)
(6.38864 0.298661 0)
(6.36736 0.233583 0)
(6.42872 0.344935 0)
(6.43047 0.310438 0)
(6.44501 0.403795 0)
(6.48895 0.387455 0)
(6.47896 0.468561 0)
(6.53242 0.461495 0)
(6.51739 0.526056 0)
(6.5653 0.51629 0)
(6.55523 0.567781 0)
(6.57624 0.553682 0)
(6.58107 0.603825 0)
(6.56531 0.578365 0)
(6.59323 0.626704 0)
(6.55315 0.586668 0)
(6.59461 0.641366 0)
(6.52415 0.585568 0)
(6.5654 0.639319 0)
(6.47909 0.570456 0)
(6.51113 0.621321 0)
(6.42617 0.535492 0)
(6.4442 0.592107 0)
(6.3756 0.506857 0)
(6.36962 0.583441 0)
(6.3186 0.514402 0)
(6.30126 0.612979 0)
(6.29163 0.562567 0)
(6.24465 0.676128 0)
(6.27905 0.632695 0)
(6.1872 0.760145 0)
(6.29552 0.721012 0)
(6.12949 0.866253 0)
(6.33 0.826222 0)
(6.07257 1.0054 0)
(6.36594 0.957732 0)
(6.04848 1.18363 0)
(6.37785 1.11918 0)
(6.06147 1.40071 0)
(6.37707 1.32332 0)
(6.07096 1.65077 0)
(6.36956 1.585 0)
(6.06764 1.94015 0)
(6.38779 1.91366 0)
(6.07222 2.30643 0)
(6.37049 2.32554 0)
(6.07631 2.77428 0)
(6.37151 2.87437 0)
(6.09307 3.41112 0)
(6.21386 3.67433 0)
(5.93754 4.37845 0)
(6.09746 4.81527 0)
(5.53099 6.11259 0)
(7.08399 6.52042 0)
(4.68383 10.744 0)
(5.90745 -0.249449 0)
(5.9957 -0.288456 0)
(6.17166 -0.351864 0)
(6.39771 -0.420366 0)
(6.64469 -0.487716 0)
(6.90266 -0.564192 0)
(7.14429 -0.633588 0)
(7.35783 -0.733879 0)
(7.5805 -0.851408 0)
(7.76269 -0.967212 0)
(7.96439 -1.09077 0)
(8.13546 -1.19485 0)
(8.26074 -1.28762 0)
(8.38767 -1.35468 0)
(8.53108 -1.40443 0)
(8.7048 -1.4401 0)
(8.86231 -1.48134 0)
(9.02728 -1.54587 0)
(9.14915 -1.63893 0)
(9.23122 -1.74385 0)
(9.30563 -1.83903 0)
(9.39109 -1.92587 0)
(9.46939 -2.01599 0)
(9.54659 -2.09469 0)
(9.59174 -2.16599 0)
(9.62818 -2.23352 0)
(9.62662 -2.28847 0)
(9.62798 -2.33071 0)
(9.62429 -2.35173 0)
(9.62532 -2.35745 0)
(9.59434 -2.36259 0)
(9.57074 -2.37217 0)
(9.52737 -2.37406 0)
(9.4735 -2.37768 0)
(9.4113 -2.3724 0)
(9.33418 -2.37761 0)
(9.26312 -2.39931 0)
(9.19219 -2.42859 0)
(9.14347 -2.44687 0)
(9.11395 -2.43931 0)
(9.06725 -2.41793 0)
(9.01276 -2.38352 0)
(8.95383 -2.3603 0)
(8.90718 -2.34355 0)
(8.86805 -2.31494 0)
(8.811 -2.27704 0)
(8.75586 -2.22431 0)
(8.66721 -2.16094 0)
(8.5256 -2.06992 0)
(8.40077 -1.99909 0)
(8.28213 -1.94656 0)
(8.1602 -1.88766 0)
(8.05908 -1.8391 0)
(7.96467 -1.77818 0)
(7.87966 -1.71288 0)
(7.80343 -1.65886 0)
(7.7409 -1.6032 0)
(7.64939 -1.51993 0)
(7.56489 -1.4264 0)
(7.45136 -1.32192 0)
(7.34562 -1.18675 0)
(7.22179 -1.05498 0)
(7.12684 -0.924555 0)
(7.04477 -0.798261 0)
(6.95304 -0.679124 0)
(6.86528 -0.566578 0)
(6.76878 -0.460545 0)
(6.68308 -0.364914 0)
(6.59911 -0.279304 0)
(6.52097 -0.192549 0)
(6.46045 -0.11556 0)
(6.4045 -0.0512035 0)
(6.36795 0.0020324 0)
(6.33824 0.0615828 0)
(6.30577 0.125205 0)
(6.2862 0.214618 0)
(6.26469 0.311962 0)
(6.25376 0.403919 0)
(6.21993 0.498403 0)
(6.22061 0.591615 0)
(6.20508 0.682341 0)
(6.18345 0.750185 0)
(6.18913 0.808391 0)
(6.1947 0.858358 0)
(6.19915 0.898919 0)
(6.19745 0.937105 0)
(6.16583 0.972215 0)
(6.14835 0.992067 0)
(6.12628 0.985355 0)
(6.11885 0.998038 0)
(6.09452 0.975493 0)
(6.10147 0.959415 0)
(6.09263 0.931682 0)
(6.09751 0.918232 0)
(6.11681 0.870736 0)
(6.12307 0.84226 0)
(6.16633 0.793165 0)
(6.16273 0.759952 0)
(6.24431 0.693968 0)
(6.2483 0.671297 0)
(6.32219 0.612821 0)
(6.3047 0.598623 0)
(6.38592 0.521049 0)
(6.34769 0.504829 0)
(6.43776 0.434597 0)
(6.35477 0.435314 0)
(6.4647 0.346032 0)
(6.3511 0.35485 0)
(6.47037 0.284197 0)
(6.34458 0.316535 0)
(6.46713 0.22949 0)
(6.34042 0.260345 0)
(6.47487 0.172186 0)
(6.32575 0.198087 0)
(6.50343 0.107948 0)
(6.31398 0.137027 0)
(6.51219 0.0478776 0)
(6.29077 0.0753233 0)
(6.46304 -0.0157887 0)
(6.2722 0.0341685 0)
(6.39077 -0.0591685 0)
(6.25015 0.00524715 0)
(6.32485 -0.0817257 0)
(6.20543 0.00497187 0)
(6.27193 -0.0904316 0)
(6.16064 0.0207811 0)
(6.22094 -0.0962986 0)
(6.10294 0.0373449 0)
(6.15249 -0.0899576 0)
(6.05039 0.0584109 0)
(6.08305 -0.0818425 0)
(6.06328 0.079445 0)
(6.04293 -0.0553426 0)
(6.11528 0.102967 0)
(6.03329 -0.027667 0)
(6.18741 0.14154 0)
(6.04032 -0.00118276 0)
(6.27311 0.176841 0)
(6.03697 0.0304212 0)
(6.36774 0.189694 0)
(6.03686 0.0602667 0)
(6.41728 0.212871 0)