/*--------------------------------*- C++ -*----------------------------------*\
| =========                 |                                                 |
| \\      /  F ield         | OpenFOAM: The Open Source CFD Toolbox           |
|  \\    /   O peration     | Version:  2.4.0                                 |
|   \\  /    A nd           | Web:      www.OpenFOAM.org                      |
|    \\/     M anipulation  |                                                 |
\*---------------------------------------------------------------------------*/
FoamFile
{
    version     2.0;
    format      ascii;
    class       volScalarField;
    location    "0.124";
    object      k;
}
// * * * * * * * * * * * * * * * * * * * * * * * * * * * * * * * * * * * * * //

dimensions      [0 2 -2 0 0 0 0];

internalField   nonuniform List<scalar> 
17600
(
9.29973
7.3835
5.15431
3.9044
3.37273
2.91959
2.73371
2.42394
2.38442
2.1626
2.14895
2.04279
1.98205
1.96096
1.86536
1.94208
1.83615
1.93633
2.17406
1.64769
4.51867
6.17979
5.85948
5.02132
4.46788
3.88275
3.65085
3.25028
3.17513
2.89768
2.85197
2.72735
2.60867
2.59204
2.46258
2.50514
2.37997
2.46533
2.49049
2.52321
1.33907
3.25887
4.01335
3.94878
3.79044
3.41913
3.27301
2.96018
2.88936
2.67705
2.61149
2.51916
2.39195
2.38028
2.27054
2.28071
2.17172
2.23106
2.1163
2.27447
0.210827
1.1814
1.94712
2.30102
2.53731
2.48967
2.48837
2.37451
2.33367
2.227
2.15878
2.12073
2.01958
2.00914
1.9347
1.93149
1.84824
1.86832
1.74956
1.77755
0.026484
0.251933
0.659979
0.939591
1.27658
1.38949
1.57246
1.58746
1.61823
1.62614
1.60151
1.60171
1.57112
1.56472
1.52931
1.52063
1.48879
1.46311
1.40433
1.3396
0.00281338
0.0418912
0.150368
0.245346
0.441697
0.534778
0.725514
0.816295
0.871446
0.98391
0.998549
1.0349
1.05931
1.07138
1.08007
1.07185
1.08727
1.04016
1.02744
0.952168
0.000296554
0.00615815
0.0241655
0.0458966
0.0995784
0.136731
0.219937
0.298373
0.331072
0.425474
0.463787
0.511259
0.570855
0.591052
0.635455
0.634498
0.674774
0.640307
0.643572
0.592176
5.40021e-05
0.000870003
0.0031906
0.00656456
0.0149018
0.0232121
0.0420523
0.0745941
0.0861982
0.124494
0.145819
0.171882
0.218463
0.235069
0.273446
0.279711
0.319522
0.305114
0.311251
0.285452
2.74437e-05
0.000136006
0.000597218
0.00105645
0.00184586
0.0029879
0.00546006
0.0122834
0.0150085
0.025059
0.0306678
0.0380832
0.0562834
0.0634131
0.0789026
0.0833852
0.103109
0.0997358
0.102821
0.0936697
2.36128e-05
4.46017e-05
0.000275568
0.000327929
0.000418876
0.000510861
0.000737468
0.00155173
0.00188114
0.0035503
0.0044012
0.00574674
0.00965682
0.0114214
0.0153289
0.016496
0.0217051
0.0215147
0.0219549
0.0195804
2.60097e-05
3.08437e-05
9.91689e-05
0.000115
0.000168325
0.000176038
0.000193397
0.000271805
0.000295531
0.000471764
0.000560378
0.000730738
0.00129737
0.00152493
0.00213076
0.00230552
0.00318086
0.00317424
0.00316803
0.00306369
2.3145e-05
3.34225e-05
4.1158e-05
5.14101e-05
9.5348e-05
0.000111559
0.000138903
0.000201792
0.00019398
0.00019998
0.000208231
0.000216449
0.000255547
0.000273971
0.000352747
0.000388297
0.000529764
0.000547245
0.000613236
0.000860542
2.14331e-05
3.12027e-05
3.63904e-05
5.95205e-05
9.78412e-05
0.000110695
0.000149098
0.000204599
0.000183474
0.00017475
0.000164003
0.000152471
0.000151888
0.00015989
0.000192304
0.000205642
0.000224283
0.000239549
0.000343243
0.000362377
2.10659e-05
2.96845e-05
4.10136e-05
9.90576e-05
0.000111552
0.000113457
0.000127597
0.000131672
0.000116443
0.000117072
0.000119266
0.000124957
0.000146342
0.000171301
0.000178626
0.000174518
0.00016713
0.000169863
0.000190996
0.000184512
2.14425e-05
3.0406e-05
5.31213e-05
7.45968e-05
7.10301e-05
7.13306e-05
6.84807e-05
7.06376e-05
8.30632e-05
0.000103687
0.000110108
0.000125376
0.000148452
0.000148536
0.000143819
0.000127098
0.000121673
0.000121992
0.000120379
0.000142054
2.22064e-05
3.5062e-05
4.68985e-05
4.483e-05
4.62273e-05
5.35489e-05
5.9049e-05
6.71324e-05
8.7947e-05
9.44189e-05
9.65793e-05
0.000106945
0.000107557
0.00010105
9.78332e-05
9.49034e-05
9.81577e-05
9.5952e-05
9.6076e-05
0.000115077
2.10579e-05
3.10288e-05
3.35824e-05
3.76636e-05
5.42266e-05
6.06938e-05
6.29283e-05
6.95781e-05
7.37994e-05
7.22597e-05
7.2247e-05
7.33294e-05
7.52086e-05
7.91712e-05
8.45094e-05
8.76458e-05
9.32176e-05
9.10108e-05
9.59347e-05
0.000150513
2.05522e-05
2.86894e-05
3.39038e-05
4.19028e-05
5.33129e-05
5.63337e-05
5.71165e-05
6.01451e-05
5.81306e-05
5.71637e-05
5.79405e-05
5.97211e-05
6.46493e-05
7.0771e-05
7.14311e-05
7.46145e-05
7.19608e-05
7.30781e-05
7.61529e-05
8.27759e-05
2.04887e-05
3.03221e-05
3.21571e-05
3.57953e-05
4.33098e-05
4.88642e-05
5.07257e-05
5.23114e-05
5.25207e-05
5.26532e-05
5.47631e-05
5.57246e-05
5.84872e-05
5.92145e-05
6.05212e-05
6.13409e-05
6.11434e-05
6.56913e-05
6.5473e-05
7.49919e-05
2.07324e-05
2.86113e-05
3.17494e-05
3.47946e-05
4.83325e-05
5.01264e-05
4.95473e-05
4.99818e-05
4.93923e-05
4.96193e-05
5.09691e-05
5.36921e-05
5.52816e-05
5.52268e-05
5.54005e-05
5.52154e-05
5.57859e-05
5.89532e-05
5.76621e-05
6.028e-05
2.06869e-05
2.64561e-05
2.95115e-05
4.32544e-05
4.71192e-05
4.65169e-05
4.46207e-05
4.5396e-05
4.61227e-05
4.81394e-05
5.16417e-05
5.40591e-05
5.36543e-05
5.20599e-05
5.15295e-05
5.19035e-05
5.42555e-05
5.54424e-05
5.57247e-05
5.98359e-05
2.05686e-05
2.49982e-05
3.75973e-05
4.32444e-05
4.09507e-05
3.88646e-05
3.90625e-05
4.53167e-05
5.0109e-05
5.26182e-05
5.34866e-05
5.14016e-05
4.84804e-05
4.75838e-05
4.9047e-05
5.22315e-05
5.63537e-05
5.62918e-05
5.6283e-05
6.45786e-05
2.06564e-05
2.80816e-05
3.93397e-05
3.77156e-05
3.51351e-05
3.56176e-05
4.46378e-05
5.36269e-05
5.38904e-05
5.28344e-05
4.83207e-05
4.56729e-05
4.54507e-05
4.77051e-05
5.51631e-05
5.8124e-05
5.81848e-05
5.68303e-05
5.56703e-05
5.74528e-05
2.07039e-05
3.00476e-05
3.58184e-05
3.40557e-05
3.46303e-05
4.58847e-05
5.55125e-05
5.55361e-05
5.12668e-05
4.74965e-05
4.64952e-05
4.71479e-05
5.28553e-05
6.04851e-05
6.20186e-05
6.16453e-05
5.84313e-05
5.71524e-05
5.71837e-05
6.1316e-05
2.08464e-05
2.94386e-05
3.34433e-05
3.52565e-05
4.65822e-05
5.57363e-05
5.5058e-05
5.02893e-05
4.78198e-05
4.83776e-05
5.37474e-05
6.08266e-05
6.37508e-05
6.39344e-05
6.31858e-05
5.99948e-05
5.97353e-05
6.14069e-05
6.46745e-05
7.50732e-05
2.10422e-05
2.81858e-05
3.53043e-05
4.62171e-05
5.23632e-05
5.27238e-05
4.99572e-05
4.97269e-05
5.24459e-05
6.18676e-05
6.56792e-05
6.53277e-05
6.31618e-05
6.33329e-05
6.40354e-05
6.51949e-05
7.08593e-05
7.99082e-05
8.51117e-05
9.59872e-05
2.13098e-05
2.78595e-05
4.35698e-05
4.96422e-05
5.07114e-05
5.16996e-05
5.2741e-05
6.05107e-05
6.93032e-05
6.99099e-05
6.81569e-05
6.65316e-05
6.74925e-05
7.6226e-05
8.33335e-05
9.16986e-05
9.85531e-05
0.000107748
0.000129303
0.000192846
2.1547e-05
2.89727e-05
5.06584e-05
5.20044e-05
5.67668e-05
6.63926e-05
6.85757e-05
7.49815e-05
7.60578e-05
7.56953e-05
7.69508e-05
8.20757e-05
0.000103052
0.000122435
0.000130859
0.000145395
0.000173915
0.000254389
0.000435202
0.000883278
2.20013e-05
3.11196e-05
6.12803e-05
6.22243e-05
7.72604e-05
8.07668e-05
8.37746e-05
9.65418e-05
0.000103762
0.000117036
0.000152497
0.000187953
0.000224089
0.000300341
0.000378005
0.000524362
0.000785197
0.00153481
0.00272054
0.00541852
2.29766e-05
3.69553e-05
7.84562e-05
8.02275e-05
0.00010739
0.000115124
0.000137601
0.000245939
0.000304788
0.000454565
0.000675819
0.000883885
0.00116646
0.00189439
0.00257246
0.00394603
0.00564287
0.0104488
0.0159396
0.0296664
2.49134e-05
6.18388e-05
0.000134975
0.000154634
0.000268007
0.000381868
0.000629993
0.00160306
0.0020926
0.00329639
0.00512442
0.00661741
0.00873525
0.0141855
0.0179974
0.0257845
0.0330995
0.0530242
0.0706756
0.123514
2.81343e-05
0.000160827
0.00047098
0.000739116
0.00185089
0.00304409
0.00531732
0.0125567
0.015938
0.0229987
0.0349343
0.0418057
0.0524838
0.0756666
0.0887048
0.114853
0.13576
0.187772
0.225605
0.339942
4.89971e-05
0.000900631
0.00314312
0.00580618
0.0155797
0.0244485
0.039484
0.0760811
0.0899419
0.118803
0.159926
0.179888
0.21547
0.264661
0.293807
0.343587
0.381498
0.463098
0.51304
0.640975
0.000280155
0.00656184
0.0240276
0.0431268
0.101893
0.139967
0.21167
0.30327
0.340216
0.416288
0.486997
0.517893
0.579037
0.630265
0.669755
0.715625
0.75923
0.82959
0.872936
0.97557
0.00274986
0.0458675
0.148634
0.24046
0.445555
0.542991
0.710678
0.824199
0.887271
0.970447
1.02202
1.03924
1.0815
1.09967
1.12813
1.1425
1.17332
1.20651
1.23536
1.28823
0.0261292
0.278494
0.638868
0.945933
1.26845
1.40259
1.56002
1.59238
1.62584
1.62555
1.62124
1.59892
1.5953
1.57337
1.57258
1.55541
1.55833
1.55247
1.55518
1.5486
0.208636
1.2033
1.91748
2.32063
2.52127
2.50656
2.48252
2.3781
2.33151
2.22545
2.17092
2.094
2.05673
1.98406
1.96493
1.90561
1.88461
1.8329
1.79934
1.73884
1.32822
3.28707
3.98899
3.9606
3.76653
3.45506
3.24551
2.97638
2.88198
2.68016
2.60005
2.48235
2.41595
2.30885
2.26989
2.16671
2.11761
2.00578
1.92715
1.80169
4.51189
6.20728
5.8349
5.05911
4.40291
3.9321
3.61195
3.27484
3.1542
2.90369
2.81854
2.67609
2.59697
2.46404
2.40596
2.26515
2.18629
2.01469
1.88747
1.68219
9.29499
7.41281
5.11473
3.94338
3.32661
2.95243
2.70048
2.44597
2.34866
2.16769
2.10506
1.98891
1.93163
1.81618
1.75404
1.62368
1.53761
1.35896
1.21628
1.00747
1.31958
1.21002
1.04719
0.97652
0.893048
0.828487
0.678008
0.3969
0.303945
0.275687
0.215652
0.175228
0.166681
0.16571
0.159926
0.160772
0.168561
0.181838
0.191461
0.217437
0.241232
0.239668
0.223178
0.159177
0.0666907
0.027643
0.012197
0.00571754
0.00323631
0.00276516
0.00285371
0.00317863
0.00339979
0.00365917
0.00375658
0.00489911
0.00614563
0.00733252
0.010953
0.0198119
0.0709384
0.161451
0.187635
0.165776
0.144589
0.171077
0.205452
0.197494
0.150889
0.0803164
0.0475967
0.0450471
0.0546904
0.0641035
0.0619021
0.0637555
0.0777593
0.101071
0.100383
0.0899091
0.0826202
0.0698355
0.0389321
0.0297398
0.049755
0.117736
0.123046
0.101436
0.100713
0.112247
0.149742
0.185886
0.19627
0.162891
0.09297
0.0555121
0.0427217
0.0388044
0.0361812
0.0349849
0.0336895
0.032236
0.0314271
0.031313
0.0315159
0.0314146
0.0290798
0.026116
0.0249928
0.0253128
0.0312179
0.0384241
0.0398723
0.0390026
0.0406629
0.0445891
0.0477867
0.0547203
0.0588951
0.0605052
0.0603202
0.0566476
0.0465959
0.0383382
0.0296874
0.0259192
0.0232134
0.0222468
0.0214353
0.0222469
0.0228896
0.0250868
0.029515
0.0484835
0.064929
0.0652857
0.064736
0.0613197
0.0515543
0.0443596
0.0364535
0.0319878
0.0281398
0.0283015
0.0288815
0.0343011
0.0380506
0.0418296
0.0412997
0.0367304
0.0317025
0.0287201
0.0261846
0.0259244
0.0262871
0.0257389
0.0266445
0.0264607
0.0264252
0.0293172
0.0310153
0.0371418
0.0361421
0.035738
0.0327478
0.0250679
0.020207
0.0202228
0.0196131
0.0189532
0.018615
0.0174638
0.016044
0.0150825
0.0141665
0.0132382
0.0126474
0.0125439
0.0125765
0.0126924
0.0130991
0.0147024
0.0191633
0.0363519
0.0729787
0.0968586
0.107618
0.110342
0.110957
0.111106
0.10884
0.105871
0.105847
0.108069
0.109458
0.10883
0.104712
0.0880012
0.065309
0.0521327
0.0496324
0.0572371
0.0716904
0.0727113
0.0607292
0.0552605
0.046958
0.0537129
0.116218
0.0832442
0.135192
0.113274
0.0980866
0.115209
0.114465
0.136531
0.238811
0.279315
0.387331
0.21001
1.9608
1.47033
1.17676
1.03271
0.90877
0.833272
0.806167
0.594891
0.409512
0.340835
0.249625
0.220024
0.222042
0.225245
0.225279
0.226232
0.230353
0.234411
0.23655
0.256928
0.258579
0.243986
0.185733
0.0790006
0.0330284
0.0136469
0.00635324
0.00326457
0.00221325
0.00220198
0.00246115
0.00299366
0.00328668
0.00355817
0.0037907
0.00560064
0.00755201
0.0084348
0.0111478
0.0196781
0.0685654
0.158053
0.181287
0.165745
0.14951
0.176028
0.207794
0.196
0.145354
0.0792035
0.0480397
0.0465272
0.0566143
0.0656374
0.067541
0.0708416
0.0883521
0.103216
0.0992466
0.0879323
0.0794751
0.0608896
0.0327642
0.026339
0.0507235
0.122835
0.126134
0.105536
0.104388
0.117888
0.160558
0.204345
0.213437
0.169363
0.0935722
0.0548128
0.0421115
0.0387015
0.0361852
0.0347199
0.0325969
0.0311798
0.0309512
0.0311837
0.0316731
0.0315741
0.0292965
0.0261198
0.0249531
0.0253182
0.0313223
0.037986
0.0391943
0.0383095
0.0398691
0.0437621
0.0472
0.0546766
0.0589747
0.0601346
0.0600239
0.0565518
0.0466376
0.0380095
0.028619
0.0241038
0.0213703
0.0208962
0.0198892
0.0203391
0.020544
0.0217982
0.0245686
0.0379075
0.0565196
0.0605816
0.0602008
0.0598932
0.0524139
0.0473498
0.0376957
0.033788
0.0286395
0.0283061
0.0283812
0.0319635
0.0360274
0.0409109
0.0411565
0.0383777
0.03304
0.0302236
0.0276355
0.0263855
0.0269527
0.0264523
0.0267366
0.0269251
0.0264322
0.0286801
0.0321341
0.0357067
0.0356332
0.0357841
0.0330313
0.0251261
0.020272
0.0202903
0.0193089
0.0189207
0.0185906
0.017491
0.0159236
0.0149229
0.0141524
0.0132083
0.0126494
0.0125534
0.0126725
0.013081
0.0140353
0.0168148
0.02372
0.0525723
0.085049
0.103481
0.110394
0.111816
0.111482
0.111049
0.108023
0.105161
0.104936
0.107022
0.108563
0.10859
0.105497
0.0891394
0.0669239
0.0546525
0.052065
0.0608072
0.0732447
0.0742886
0.0606211
0.0550421
0.0456546
0.0558747
0.13317
0.107055
0.0853408
0.0914423
0.0715373
0.0870747
0.0922354
0.106889
0.17279
0.218763
0.363768
0.343373
1.88323
1.47077
1.15506
0.99363
0.89645
0.759801
0.778312
0.779282
0.701669
0.496997
0.340191
0.28449
0.276384
0.278105
0.281081
0.274302
0.273407
0.27405
0.285519
0.283241
0.267247
0.215827
0.0926529
0.0382087
0.0159541
0.00680406
0.00348632
0.00208918
0.00175046
0.0018344
0.00212253
0.00268192
0.00312865
0.00346136
0.00377596
0.00569488
0.00880909
0.00964979
0.0117205
0.019732
0.063987
0.159415
0.181983
0.166161
0.154157
0.179979
0.208565
0.194239
0.139217
0.0765049
0.0478346
0.0470783
0.059175
0.0701584
0.0745554
0.0761019
0.0964273
0.104073
0.0968923
0.0860364
0.0750105
0.0513684
0.0276066
0.0234919
0.0521669
0.127343
0.13027
0.108181
0.106256
0.122487
0.170359
0.223084
0.23021
0.179824
0.0969281
0.0547845
0.0419279
0.0386981
0.0363432
0.0346509
0.0320609
0.0300625
0.0300669
0.0308035
0.0315473
0.0313594
0.0290297
0.0260517
0.0249658
0.0254082
0.0316611
0.0378276
0.038476
0.0375423
0.0392112
0.0429968
0.0466963
0.0545182
0.0591007
0.0599719
0.0598903
0.0564409
0.0462655
0.0371525
0.0273755
0.0224465
0.0192025
0.0195026
0.0186493
0.0188212
0.0188383
0.0196486
0.021319
0.030108
0.0468959
0.0554989
0.0558186
0.0568335
0.0518833
0.0488855
0.0393668
0.0340957
0.028916
0.0280694
0.0280698
0.0299649
0.0344331
0.0394703
0.0406596
0.0393599
0.0338079
0.031048
0.0291035
0.0269084
0.0273142
0.0271279
0.0268163
0.027143
0.0266753
0.0281012
0.0342698
0.0350359
0.0355511
0.0359813
0.0320013
0.0250202
0.0201175
0.0196065
0.0187114
0.0187506
0.0184365
0.0177968
0.0159268
0.0149602
0.0142698
0.0133671
0.0128369
0.0128196
0.0131587
0.0141493
0.0160271
0.0203078
0.0317508
0.0686179
0.0980641
0.11184
0.115611
0.115603
0.114274
0.111052
0.104055
0.10222
0.102355
0.104864
0.107499
0.107808
0.105582
0.0905185
0.0678138
0.0559309
0.054733
0.0643056
0.0759452
0.0746937
0.0607859
0.0619159
0.0520576
0.0757339
0.120475
0.106104
0.0699325
0.0733617
0.061276
0.0700204
0.0790771
0.0952849
0.129054
0.202071
0.248673
0.30845
1.53287
1.25993
1.04652
0.861597
0.763554
0.653259
0.642882
0.704368
0.703644
0.652217
0.571054
0.479234
0.421283
0.415697
0.409136
0.374109
0.345761
0.325395
0.314501
0.28948
0.234062
0.104964
0.0424069
0.0175642
0.00762781
0.00357377
0.00209667
0.00152544
0.0013787
0.00153883
0.0017827
0.00230807
0.00287218
0.00326227
0.00374537
0.00562225
0.00972072
0.0106679
0.0124624
0.0204781
0.0611553
0.156959
0.185922
0.170455
0.162134
0.185452
0.206919
0.191626
0.133657
0.0722818
0.0475222
0.0471681
0.064755
0.0763281
0.0786773
0.0799149
0.102225
0.103757
0.093694
0.0838692
0.0687146
0.0428699
0.0237819
0.0210903
0.0527434
0.131062
0.134859
0.110507
0.108164
0.125887
0.179443
0.239552
0.249385
0.198377
0.103432
0.0552898
0.0419055
0.0390066
0.036795
0.0344889
0.0318683
0.0294145
0.0290827
0.02994
0.0308009
0.0305486
0.0284901
0.0259914
0.0250474
0.0256391
0.0324969
0.037668
0.0378098
0.0367059
0.0386264
0.0423692
0.0463627
0.0542852
0.0592535
0.0599835
0.0597768
0.0562337
0.0450051
0.0357954
0.0260482
0.0210079
0.0173087
0.017932
0.0172911
0.0172955
0.017025
0.0175883
0.0184565
0.0237937
0.0379563
0.0499693
0.0513544
0.0540478
0.0517407
0.0496484
0.0401755
0.0337748
0.0288897
0.0274407
0.0273875
0.0285414
0.0330651
0.0380825
0.0395929
0.0391182
0.0352877
0.0321339
0.0302916
0.0276462
0.0276315
0.0277875
0.0269567
0.027139
0.0267558
0.0274554
0.0348615
0.0349097
0.0358329
0.035621
0.0298013
0.024925
0.0198152
0.0190314
0.0185
0.0185544
0.0182681
0.0181108
0.0162475
0.0151232
0.0143366
0.0134558
0.0131204
0.0131947
0.0140712
0.0162595
0.0192677
0.025051
0.0432449
0.0851226
0.113232
0.123566
0.124697
0.123771
0.120718
0.110677
0.0997172
0.0977975
0.0982639
0.101117
0.105928
0.106364
0.104988
0.0914078
0.0688232
0.0567371
0.0569023
0.0666386
0.0758372
0.0715572
0.0609936
0.0645788
0.0914734
0.0880052
0.09274
0.0878835
0.0577663
0.0591692
0.0591244
0.066044
0.0707309
0.085747
0.0859443
0.149738
0.236543
0.282774
1.15134
0.953252
0.831281
0.697871
0.627035
0.54887
0.509274
0.528376
0.57566
0.575051
0.570227
0.549928
0.521683
0.496796
0.464671
0.406243
0.36029
0.329422
0.294124
0.221556
0.103119
0.0443814
0.0181017
0.0079471
0.00381157
0.00207184
0.00141841
0.00119205
0.00118985
0.00139671
0.00161659
0.00206552
0.00274527
0.00315146
0.00379167
0.00560108
0.0103544
0.0116094
0.0134802
0.0223615
0.0638164
0.143787
0.18218
0.178132
0.173722
0.19191
0.203067
0.188118
0.128657
0.0694031
0.0483538
0.0486801
0.072461
0.0812312
0.0796342
0.0841514
0.104814
0.101653
0.0905266
0.0806344
0.0607411
0.0372125
0.020832
0.0190217
0.0529339
0.134145
0.138286
0.111654
0.108873
0.128506
0.18842
0.256005
0.273007
0.223574
0.113075
0.0567232
0.0422095
0.039489
0.0372449
0.0341341
0.0314142
0.0289859
0.0282901
0.0289124
0.0296736
0.0294542
0.0279655
0.0259849
0.0252484
0.0261804
0.0340008
0.037817
0.0372279
0.0360397
0.03818
0.0417796
0.046144
0.0542788
0.0594368
0.0601317
0.0595212
0.0550374
0.0430393
0.0341845
0.0246036
0.020116
0.0158998
0.0159439
0.0154912
0.0154713
0.0149354
0.0153091
0.0156544
0.0186791
0.029222
0.0444926
0.0470179
0.0521954
0.051033
0.0491853
0.040597
0.0337613
0.0286035
0.0266247
0.0265924
0.0271928
0.0307748
0.0356026
0.0380135
0.0380311
0.0363512
0.0334019
0.0314545
0.0284911
0.0277225
0.0279861
0.0272299
0.0269871
0.0268249
0.0268384
0.0345728
0.0350256
0.0360276
0.0351127
0.0288761
0.0256851
0.0202812
0.0192518
0.0187859
0.0184957
0.0181345
0.0182178
0.0168338
0.0151866
0.0143146
0.0133824
0.0131888
0.0134184
0.0156813
0.0192233
0.0231516
0.0304605
0.0585115
0.102322
0.126651
0.133155
0.133197
0.131324
0.12574
0.107998
0.0948752
0.0925142
0.0931688
0.0967128
0.103609
0.105107
0.103576
0.091022
0.0702287
0.0582181
0.0586417
0.0687749
0.0737053
0.0671842
0.0559162
0.0583969
0.0990162
0.0945339
0.0830206
0.0746493
0.0531944
0.0539331
0.0601259
0.0669907
0.0708
0.0769483
0.0900578
0.127051
0.129187
0.224483
0.814022
0.675368
0.60278
0.520713
0.44362
0.403339
0.37993
0.386941
0.406346
0.411866
0.440129
0.448618
0.441187
0.414978
0.373228
0.325606
0.280362
0.239397
0.165653
0.0829758
0.0391117
0.0174503
0.00762453
0.00377842
0.00211704
0.00136866
0.00108101
0.00103737
0.00105429
0.00132062
0.00152842
0.00185973
0.00266878
0.00312229
0.00388225
0.00573136
0.0103947
0.0120375
0.0144926
0.0253506
0.0682348
0.131378
0.175474
0.181891
0.185002
0.200839
0.202706
0.184643
0.123949
0.0686421
0.0502624
0.0526599
0.0790204
0.0832988
0.0787432
0.0896776
0.103946
0.0978823
0.0884641
0.0768345
0.0549102
0.0326755
0.0184401
0.0172074
0.0518356
0.135956
0.140889
0.112812
0.108849
0.130212
0.196129
0.272281
0.299871
0.253707
0.124774
0.0586328
0.0429267
0.0399769
0.037489
0.0334266
0.0305942
0.0283579
0.0274908
0.0281813
0.0287591
0.0285222
0.027494
0.0260239
0.0254933
0.0273662
0.0359457
0.0380693
0.036666
0.0355312
0.0380447
0.0414379
0.0459762
0.0543595
0.0595583
0.0607048
0.0593587
0.0535364
0.0408759
0.0326968
0.023458
0.0196936
0.0151387
0.0145261
0.0134914
0.0134758
0.0129363
0.0131226
0.0132922
0.0150961
0.0210453
0.0391525
0.0429779
0.0498794
0.0495775
0.0481163
0.0409037
0.0339572
0.0286982
0.0262621
0.0261766
0.0263999
0.027948
0.0324836
0.0357249
0.036306
0.0360085
0.0345473
0.0322902
0.0293228
0.0278229
0.0280622
0.0276591
0.0267177
0.0269143
0.026801
0.034294
0.0354732
0.0357573
0.0342882
0.0280713
0.0258001
0.0214724
0.0205399
0.0197111
0.0187469
0.0180009
0.0180642
0.0169669
0.0148419
0.0142204
0.0133757
0.013299
0.0138296
0.0180643
0.0223336
0.0271091
0.0365986
0.0770065
0.116997
0.132708
0.135736
0.135246
0.132611
0.125385
0.102204
0.0885853
0.0866164
0.0875638
0.0919507
0.100041
0.103637
0.102172
0.0899124
0.070073
0.0601734
0.0599011
0.070909
0.0737377
0.0656429
0.050177
0.056641
0.0974474
0.0973612
0.0784001
0.0634554
0.050159
0.0522516
0.0633126
0.0671875
0.0782054
0.0780789
0.0933338
0.125015
0.124895
0.202757
0.501986
0.412086
0.365103
0.320037
0.258526
0.216418
0.211079
0.223501
0.248464
0.258252
0.273676
0.277582
0.272413
0.253275
0.209052
0.169566
0.133028
0.0909289
0.0536336
0.0277012
0.0143379
0.00676166
0.00341122
0.00202218
0.00136589
0.0010353
0.000917447
0.000915578
0.000943118
0.00119011
0.00143751
0.00182559
0.00271687
0.00327099
0.00426628
0.00635346
0.0102668
0.0122349
0.0153035
0.0291888
0.0757041
0.124842
0.179331
0.189433
0.194075
0.207226
0.204373
0.180643
0.119875
0.0698211
0.0522421
0.0585844
0.0827434
0.0825528
0.0782671
0.0943488
0.102248
0.0943808
0.0864225
0.0728534
0.0499507
0.0288286
0.016444
0.0155534
0.0506473
0.136075
0.141729
0.113489
0.108637
0.130164
0.198422
0.284247
0.327006
0.287197
0.14061
0.0613138
0.0435712
0.0404981
0.0377299
0.0325698
0.0299126
0.0279078
0.0272223
0.027898
0.0283648
0.0279594
0.0272057
0.0260664
0.0258848
0.0299601
0.0380507
0.038741
0.036154
0.0352284
0.0380903
0.0411943
0.0459086
0.0545897
0.0595484
0.0612388
0.0594486
0.0520209
0.0391331
0.0319346
0.0231049
0.0194318
0.0149851
0.0138144
0.0122185
0.0120883
0.0115485
0.0116045
0.0117455
0.0128283
0.0162003
0.0319783
0.0395709
0.0461438
0.0469843
0.0462396
0.0417522
0.0345932
0.029051
0.0263687
0.0261334
0.0262037
0.026674
0.0294885
0.0338414
0.0349108
0.0351224
0.034929
0.0331744
0.0302753
0.0280063
0.0281204
0.0279548
0.0266972
0.0269941
0.0269758
0.0339433
0.036849
0.0356393
0.0329368
0.0273361
0.024626
0.02237
0.0221612
0.021425
0.0194531
0.0180428
0.0176921
0.0165481
0.0144506
0.0141594
0.0136356
0.013758
0.0147841
0.0210279
0.0259427
0.0317528
0.045088
0.0972117
0.127636
0.13701
0.137756
0.136685
0.132553
0.119834
0.0947503
0.0816317
0.0800579
0.0813345
0.0870253
0.0961053
0.100823
0.100369
0.0894317
0.0691383
0.0608314
0.0619472
0.0731309
0.0751701
0.0662196
0.0597777
0.0766729
0.097551
0.0983387
0.0722221
0.0538419
0.0484797
0.0514721
0.0649268
0.0697054
0.079409
0.0790624
0.098404
0.136681
0.123802
0.162574
0.235587
0.181713
0.15284
0.129922
0.101841
0.0810523
0.0783925
0.0853261
0.100412
0.119294
0.128298
0.128461
0.124801
0.107525
0.079955
0.0590532
0.0431197
0.0292403
0.0172954
0.00950222
0.00541856
0.00277665
0.00178803
0.00129842
0.0010243
0.000875646
0.000793662
0.000788533
0.000837735
0.00110819
0.0013968
0.00184008
0.00293103
0.0036881
0.00537203
0.00799234
0.0104218
0.0125001
0.0158172
0.0302923
0.0875628
0.119258
0.187469
0.203134
0.201663
0.207799
0.204623
0.175786
0.117362
0.0708848
0.0545779
0.0659658
0.083988
0.080228
0.0792458
0.0980934
0.0999655
0.0916931
0.0848819
0.0692449
0.0454047
0.0257117
0.0148617
0.0142378
0.0489678
0.134877
0.142319
0.114442
0.108541
0.128215
0.197136
0.293894
0.35486
0.326047
0.162957
0.0655398
0.0444047
0.0411058
0.0381849
0.0320627
0.0297467
0.0278804
0.0271904
0.0278168
0.0282838
0.0277721
0.0271368
0.0265459
0.0273979
0.0349621
0.0405815
0.0394544
0.0356949
0.0351537
0.0382507
0.0410669
0.0459181
0.0550526
0.0595438
0.061754
0.0596557
0.0508386
0.0377467
0.0320108
0.0233015
0.0194419
0.0150316
0.0136364
0.0118775
0.0114542
0.0111424
0.0110557
0.0111898
0.0117774
0.013626
0.0244618
0.0359422
0.0425454
0.0446872
0.0444662
0.0425677
0.0362025
0.0299785
0.0269164
0.0263394
0.0263648
0.0265374
0.0277061
0.0326013
0.0343218
0.0346007
0.0348112
0.0336642
0.0310945
0.0283009
0.028214
0.0280632
0.0267454
0.0268872
0.0272419
0.0336862
0.0377304
0.0353859
0.0324999
0.0270755
0.0237568
0.023081
0.0232284
0.0224485
0.0205094
0.0179777
0.0171863
0.0161015
0.0142841
0.0140497
0.0139112
0.0146182
0.0164894
0.0241677
0.0301049
0.0375465
0.0580868
0.116338
0.139541
0.143728
0.14308
0.140039
0.130594
0.107095
0.0853116
0.0744267
0.0735949
0.0750453
0.0818504
0.0928513
0.0978261
0.0980108
0.0887846
0.0687318
0.060816
0.0633836
0.0733603
0.0772242
0.0687166
0.0907174
0.0823309
0.0936414
0.0950506
0.0647054
0.0503338
0.0516785
0.0550958
0.0690692
0.0820888
0.0896495
0.0928786
0.0950924
0.134682
0.124965
0.131563
0.0759352
0.0579897
0.0493476
0.0415935
0.0319359
0.0245754
0.0234384
0.0255856
0.029248
0.0381084
0.0397337
0.0390543
0.0369831
0.0294098
0.0220719
0.0159944
0.0121544
0.00840048
0.00520712
0.00339836
0.00221127
0.00140694
0.00117959
0.000997459
0.000852458
0.000735913
0.000663328
0.000672235
0.000786261
0.00110566
0.00140794
0.00205934
0.00304863
0.00387102
0.00684402
0.0100803
0.0112672
0.012992
0.0160909
0.0303091
0.10094
0.124752
0.180716
0.209019
0.209006
0.208352
0.203744
0.169711
0.116249
0.0709289
0.0569593
0.0725018
0.0839743
0.0783637
0.0830949
0.0988128
0.0976268
0.0900533
0.0842342
0.0652849
0.0411364
0.0230357
0.0135018
0.0132094
0.0473433
0.132931
0.141932
0.115772
0.108773
0.12486
0.192857
0.296471
0.381262
0.369136
0.192875
0.0725474
0.0459327
0.0418295
0.0388672
0.0320334
0.0297237
0.0281509
0.0274909
0.0280319
0.0291656
0.0289476
0.0286474
0.0290241
0.033179
0.0404059
0.0425525
0.039241
0.0352228
0.035168
0.0386387
0.0411174
0.046034
0.0555868
0.0596741
0.0619672
0.0596914
0.0503706
0.0366126
0.0330184
0.0260097
0.0207634
0.0155964
0.0137363
0.0119587
0.0112002
0.0112975
0.0110895
0.0112167
0.0114328
0.012367
0.0178377
0.0322172
0.0397413
0.042804
0.0429786
0.0423474
0.0375362
0.0319931
0.028486
0.0275638
0.0273719
0.0272549
0.0278522
0.0317079
0.034063
0.034314
0.0345976
0.0337496
0.0313707
0.0285667
0.0281899
0.028047
0.0267999
0.0267729
0.0275387
0.0337191
0.0379376
0.0353734
0.0314888
0.0270782
0.0234087
0.0240424
0.0238943
0.0232103
0.0216018
0.0175922
0.0168388
0.0155456
0.0141835
0.0141663
0.0143988
0.0164142
0.0188758
0.0282254
0.0344138
0.0442853
0.0753631
0.137333
0.155292
0.155701
0.153536
0.146377
0.122212
0.0926413
0.0738028
0.0667986
0.066986
0.069034
0.076659
0.0893925
0.0951676
0.0956831
0.0872282
0.0683236
0.0610934
0.064543
0.0722611
0.0766303
0.0681192
0.0960211
0.087487
0.0864867
0.0841221
0.0602489
0.0537469
0.0574535
0.0705355
0.0659246
0.0853296
0.0974329
0.104844
0.107014
0.126062
0.138011
0.143729
0.0160001
0.013713
0.0121348
0.0100039
0.00750956
0.00572882
0.00545454
0.00597771
0.00665485
0.00804422
0.0081216
0.00779907
0.0071321
0.00606544
0.00506494
0.00386936
0.00305371
0.00223766
0.00176179
0.00156222
0.00121951
0.00098092
0.000928873
0.000851301
0.000659756
0.000581142
0.000570719
0.000624539
0.000846235
0.00119886
0.00155882
0.00262951
0.00349588
0.00426183
0.00806937
0.0124264
0.013256
0.0140673
0.0163511
0.0298698
0.106394
0.135503
0.17053
0.20503
0.211973
0.209591
0.201636
0.161798
0.115648
0.0699429
0.060301
0.0781537
0.082294
0.0778156
0.0876857
0.0977188
0.0950747
0.0895549
0.0838856
0.0610272
0.0373944
0.0206449
0.0122555
0.012155
0.0451155
0.130679
0.140963
0.117477
0.1088
0.120764
0.182528
0.291523
0.401938
0.413434
0.230827
0.083781
0.048192
0.0426558
0.0398027
0.0321626
0.0299138
0.0289552
0.0284264
0.0293483
0.0326349
0.0331443
0.0346854
0.0360562
0.0400334
0.0439763
0.0434759
0.037782
0.0347651
0.0356435
0.0390331
0.0412319
0.0464841
0.0566411
0.0599129
0.0619828
0.0587153
0.0511531
0.0364035
0.0334235
0.0297482
0.0236349
0.0171025
0.0140746
0.0123674
0.0112354
0.0118737
0.0113933
0.0113671
0.0113121
0.0116405
0.0142131
0.0263534
0.0368602
0.0408735
0.0417818
0.041668
0.0395545
0.0341965
0.0310654
0.0306085
0.0307696
0.0303143
0.0300848
0.0316846
0.0338518
0.033985
0.0339862
0.033203
0.0311874
0.0287503
0.0281765
0.0278437
0.026799
0.0266766
0.0280813
0.034011
0.0378445
0.0355185
0.0295386
0.0264583
0.023216
0.0250808
0.0255957
0.0252221
0.022586
0.0180101
0.0170611
0.0153272
0.0144453
0.0146211
0.0156256
0.0187841
0.0217238
0.0334029
0.0402876
0.0531417
0.0950774
0.15708
0.170123
0.169949
0.16595
0.15207
0.114446
0.0816805
0.0640877
0.0598548
0.0605786
0.0632864
0.0719699
0.0858515
0.0924902
0.0937878
0.0861544
0.06768
0.0613527
0.065069
0.0712789
0.0718269
0.0645977
0.0846946
0.0880188
0.0806294
0.0743181
0.057834
0.056632
0.0760013
0.0749816
0.0626532
0.076878
0.0914643
0.111912
0.140246
0.199142
0.188124
0.205742
0.00310582
0.00291054
0.00247773
0.00189543
0.00145423
0.00118999
0.00118741
0.00127406
0.00127341
0.0013137
0.00151266
0.0015783
0.00157053
0.0015079
0.00136342
0.00113004
0.000916721
0.000919813
0.00105782
0.00106006
0.000905039
0.00082115
0.000780571
0.000649625
0.00053376
0.000527908
0.000544968
0.000628952
0.000958302
0.00156378
0.00212872
0.00385202
0.0049071
0.00566239
0.00954757
0.0151379
0.0160005
0.0159619
0.0172437
0.0286786
0.105454
0.148583
0.162824
0.196377
0.211644
0.209569
0.196148
0.154392
0.113293
0.0694465
0.0647725
0.0814323
0.0808923
0.0785606
0.0913581
0.0965267
0.0937427
0.0897133
0.0837059
0.0561642
0.0334052
0.0184097
0.0112883
0.0113565
0.042594
0.127216
0.139872
0.120157
0.109109
0.116401
0.16635
0.280254
0.415014
0.459066
0.278316
0.0999065
0.0513066
0.0436884
0.0407999
0.0325905
0.030291
0.0297909
0.0298155
0.0320705
0.0383321
0.040175
0.0423326
0.0422194
0.0444052
0.0452101
0.0425198
0.036098
0.0346461
0.036578
0.039504
0.0413813
0.0473324
0.0578298
0.0598848
0.0618126
0.057018
0.0516524
0.036843
0.0337896
0.0310379
0.0245839
0.0180695
0.0141068
0.0128824
0.0115158
0.0128445
0.0122108
0.0117628
0.0113884
0.0114828
0.0127361
0.0203791
0.0329391
0.0383613
0.0406605
0.0408647
0.0404816
0.0378336
0.0348812
0.034463
0.0348636
0.0336629
0.0322377
0.0323012
0.0329894
0.0329566
0.0325528
0.0320391
0.0306097
0.0290152
0.0283209
0.0273225
0.0267077
0.026576
0.0295078