/*--------------------------------*- C++ -*----------------------------------*\
| =========                 |                                                 |
| \\      /  F ield         | OpenFOAM: The Open Source CFD Toolbox           |
|  \\    /   O peration     | Version:  2.4.0                                 |
|   \\  /    A nd           | Web:      www.OpenFOAM.org                      |
|    \\/     M anipulation  |                                                 |
\*---------------------------------------------------------------------------*/
FoamFile
{
    version     2.0;
    format      ascii;
    class       volScalarField;
    location    "0.088";
    object      nuSgs;
}
// * * * * * * * * * * * * * * * * * * * * * * * * * * * * * * * * * * * * * //

dimensions      [0 2 -1 0 0 0 0];

internalField   nonuniform List<scalar> 
17600
(
0.00101278
0.000904535
0.000752558
0.000659034
0.000606888
0.000572573
0.000542393
0.000526527
0.000503375
0.00049638
0.000479749
0.000476306
0.000464607
0.000458122
0.000455221
0.000443219
0.000443306
0.000437843
0.000437355
0.00043125
0.000705449
0.000827872
0.000803299
0.000746914
0.000697824
0.000661025
0.000626444
0.000609927
0.000581976
0.000573665
0.000554764
0.000549016
0.00053673
0.000527882
0.000525475
0.000510921
0.000511083
0.000504198
0.000502054
0.000491474
0.000382329
0.000602302
0.000664152
0.000661615
0.000644076
0.000620842
0.000592903
0.0005813
0.000556858
0.000549376
0.000533088
0.00052639
0.00051706
0.000506505
0.000505373
0.000492858
0.000492292
0.00048462
0.000484096
0.000474215
0.00015156
0.000363816
0.000460075
0.000508105
0.000525143
0.000528585
0.000520535
0.000516593
0.000503557
0.000498404
0.000487851
0.00048118
0.00047706
0.000466272
0.000466264
0.000457856
0.000456569
0.000450009
0.000448905
0.000443614
5.36657e-05
0.00017434
0.000263387
0.00032934
0.000366793
0.000400868
0.000409727
0.000422096
0.000422535
0.000423438
0.000422504
0.00041872
0.000419168
0.000413735
0.000414176
0.000410499
0.000409109
0.000405917
0.000403087
0.000400245
1.7428e-05
7.0893e-05
0.000117909
0.000179053
0.000207525
0.000255029
0.000277305
0.000299235
0.000315912
0.000325048
0.000335348
0.000337121
0.000344658
0.000344612
0.000346627
0.000349391
0.000349018
0.000349735
0.000348296
0.000345691
5.56313e-06
2.66421e-05
4.6158e-05
7.80537e-05
9.69229e-05
0.000129613
0.00015699
0.000172391
0.000199919
0.000211652
0.000231277
0.00023753
0.000252013
0.00025864
0.000262831
0.000273872
0.000275858
0.000280546
0.000281854
0.000281744
2.30366e-06
9.73892e-06
1.67799e-05
2.85197e-05
3.7554e-05
5.14023e-05
7.32653e-05
8.2753e-05
0.000102728
0.000112505
0.000131805
0.000139398
0.000154003
0.00016605
0.000171039
0.000185542
0.000190373
0.000198578
0.000203499
0.000211184
1.73778e-06
4.03463e-06
6.37491e-06
1.00989e-05
1.29899e-05
1.78734e-05
2.76118e-05
3.26525e-05
4.32299e-05
4.88661e-05
6.09089e-05
6.65513e-05
7.65265e-05
8.75045e-05
9.1584e-05
0.000104034
0.000108979
0.000116464
0.000122594
0.000136945
1.68309e-06
2.66632e-06
3.70188e-06
4.81815e-06
5.21067e-06
6.30569e-06
9.38232e-06
1.12408e-05
1.55304e-05
1.78497e-05
2.33124e-05
2.60117e-05
3.12094e-05
3.72107e-05
3.95043e-05
4.72527e-05
5.05251e-05
5.45646e-05
6.10754e-05
7.06402e-05
1.63573e-06
2.26376e-06
2.63034e-06
3.48858e-06
3.44574e-06
3.49771e-06
3.93118e-06
4.41004e-06
5.87287e-06
6.57586e-06
8.49382e-06
9.43804e-06
1.12736e-05
1.33679e-05
1.41412e-05
1.76994e-05
1.91471e-05
2.06027e-05
2.39601e-05
2.80382e-05
1.56724e-06
1.96772e-06
2.11189e-06
2.97e-06
3.28579e-06
3.2576e-06
3.27997e-06
3.44561e-06
3.62408e-06
3.6354e-06
3.99686e-06
4.54001e-06
4.86759e-06
5.48023e-06
5.78895e-06
7.04364e-06
7.38709e-06
7.68145e-06
8.24172e-06
1.00971e-05
1.53777e-06
1.83156e-06
2.00813e-06
2.814e-06
3.19074e-06
3.1513e-06
3.1627e-06
3.11143e-06
2.88907e-06
2.84828e-06
3.03129e-06
3.28867e-06
3.53677e-06
4.11079e-06
4.24577e-06
4.44988e-06
4.4518e-06
4.40281e-06
4.44595e-06
5.15628e-06
1.53791e-06
1.77918e-06
2.18314e-06
2.65242e-06
2.69281e-06
2.66344e-06
2.68037e-06
2.6175e-06
2.61109e-06
2.80439e-06
2.99063e-06
3.10368e-06
3.38656e-06
3.56198e-06
3.48308e-06
3.48028e-06
3.49044e-06
3.49141e-06
3.60208e-06
3.65887e-06
1.54385e-06
1.7714e-06
2.23882e-06
2.23209e-06
2.22313e-06
2.35878e-06
2.4925e-06
2.53595e-06
2.73066e-06
2.86681e-06
2.85325e-06
2.86675e-06
2.90383e-06
2.89651e-06
2.87349e-06
2.91067e-06
2.98966e-06
3.2092e-06
3.2256e-06
3.3063e-06
1.52714e-06
1.81884e-06
1.96106e-06
1.99392e-06
2.21828e-06
2.40265e-06
2.45181e-06
2.55008e-06
2.63013e-06
2.57273e-06
2.51387e-06
2.52947e-06
2.56621e-06
2.60898e-06
2.72341e-06
2.89204e-06
2.93483e-06
3.05246e-06
3.01928e-06
3.12058e-06
1.50915e-06
1.74909e-06
1.86341e-06
2.07389e-06
2.30295e-06
2.31716e-06
2.32622e-06
2.34873e-06
2.32578e-06
2.30955e-06
2.36029e-06
2.4759e-06
2.52284e-06
2.60747e-06
2.69974e-06
2.71129e-06
2.73274e-06
2.73975e-06
2.74604e-06
3.1375e-06
1.50679e-06
1.71418e-06
1.89597e-06
2.1227e-06
2.16209e-06
2.1706e-06
2.21393e-06
2.23777e-06
2.26073e-06
2.32384e-06
2.38894e-06
2.40725e-06
2.41285e-06
2.43888e-06
2.45265e-06
2.46243e-06
2.51687e-06
2.52682e-06
2.54298e-06
2.91665e-06
1.51243e-06
1.73284e-06
1.8465e-06
1.96339e-06
2.11384e-06
2.17036e-06
2.2202e-06
2.22841e-06
2.24583e-06
2.26239e-06
2.26003e-06
2.26139e-06
2.27398e-06
2.30536e-06
2.33864e-06
2.35284e-06
2.4265e-06
2.42856e-06
2.46202e-06
2.50269e-06
1.50834e-06
1.65495e-06
1.85551e-06
2.10448e-06
2.12449e-06
2.1198e-06
2.12271e-06
2.13252e-06
2.18083e-06
2.21303e-06
2.2452e-06
2.24587e-06
2.24018e-06
2.24465e-06
2.25354e-06
2.27908e-06
2.3415e-06
2.37928e-06
2.3928e-06
2.58672e-06
1.5057e-06
1.66919e-06
2.00164e-06
2.00716e-06
1.98359e-06
1.98792e-06
2.09217e-06
2.16445e-06
2.20557e-06
2.21265e-06
2.1982e-06
2.16857e-06
2.15261e-06
2.16492e-06
2.20918e-06
2.27623e-06
2.31235e-06
2.35767e-06
2.36431e-06
2.4486e-06
1.5078e-06
1.75657e-06
1.89249e-06
1.8908e-06
1.94709e-06
2.1264e-06
2.19962e-06
2.19492e-06
2.19308e-06
2.15185e-06
2.13079e-06
2.12983e-06
2.14504e-06
2.24212e-06
2.30806e-06
2.32746e-06
2.41418e-06
2.41218e-06
2.43503e-06
2.86102e-06
1.51042e-06
1.72451e-06
1.81046e-06
1.97561e-06
2.17244e-06
2.20249e-06
2.17797e-06
2.14172e-06
2.14631e-06
2.14434e-06
2.18785e-06
2.28107e-06
2.29333e-06
2.3861e-06
2.35378e-06
2.34519e-06
2.42884e-06
2.42659e-06
2.43654e-06
2.53172e-06
1.51582e-06
1.68006e-06
1.96177e-06
2.15037e-06
2.16768e-06
2.12828e-06
2.1146e-06
2.15174e-06
2.2904e-06
2.31373e-06
2.39396e-06
2.37151e-06
2.35286e-06
2.39303e-06
2.37832e-06
2.42427e-06
2.52601e-06
2.54817e-06
2.58072e-06
2.82854e-06
1.52273e-06
1.76198e-06
2.07154e-06
2.10464e-06
2.08422e-06
2.10406e-06
2.28574e-06
2.4285e-06
2.43759e-06
2.43124e-06
2.44336e-06
2.38796e-06
2.43742e-06
2.45906e-06
2.47684e-06
2.70937e-06
2.73953e-06
2.73142e-06
2.80553e-06
2.87661e-06
1.53111e-06
1.83386e-06
2.03709e-06
2.0711e-06
2.17955e-06
2.41597e-06
2.51056e-06
2.50711e-06
2.47678e-06
2.49727e-06
2.48365e-06
2.48882e-06
2.70157e-06
2.74319e-06
2.8142e-06
2.91726e-06
2.86603e-06
2.88866e-06
2.90645e-06
2.98819e-06
1.53956e-06
1.85308e-06
2.01069e-06
2.21907e-06
2.48144e-06
2.57296e-06
2.56377e-06
2.55006e-06
2.58587e-06
2.66069e-06
2.69427e-06
2.91507e-06
3.00263e-06
2.97621e-06
3.0788e-06
3.07072e-06
3.07786e-06
3.16177e-06
3.29192e-06
3.68439e-06
1.5494e-06
1.81245e-06
2.18071e-06
2.44594e-06
2.63576e-06
2.64012e-06
2.64951e-06
2.71189e-06
2.95138e-06
3.01402e-06
3.11965e-06
3.33602e-06
3.31724e-06
3.38824e-06
3.50973e-06
3.64465e-06
3.91026e-06
4.52938e-06
5.23307e-06
6.50813e-06
1.5781e-06
1.85748e-06
2.46254e-06
2.53675e-06
2.76044e-06
2.83428e-06
3.00496e-06
3.34316e-06
3.57155e-06
3.66119e-06
4.06431e-06
4.32921e-06
4.56831e-06
5.34531e-06
5.81001e-06
6.87325e-06
8.0239e-06
1.04719e-05
1.27031e-05
1.64438e-05
1.60436e-06
1.95616e-06
2.64932e-06
2.77839e-06
3.33414e-06
3.65558e-06
4.15619e-06
5.15808e-06
5.84848e-06
6.6241e-06
8.26871e-06
9.45787e-06
1.06955e-05
1.37162e-05
1.53658e-05
1.89389e-05
2.19963e-05
2.85543e-05
3.32858e-05
4.37349e-05
1.63345e-06
2.34169e-06
3.26028e-06
3.92912e-06
5.67514e-06
6.96612e-06
8.79089e-06
1.25015e-05
1.48617e-05
1.83603e-05
2.27299e-05
2.69815e-05
3.02864e-05
3.80118e-05
4.19652e-05
5.01899e-05
5.5819e-05
6.80411e-05
7.57131e-05
9.52848e-05
1.75119e-06
3.98383e-06
6.67436e-06
9.13231e-06
1.41373e-05
1.86903e-05
2.46719e-05
3.54591e-05
4.1318e-05
4.95833e-05
6.06837e-05
6.89337e-05
7.49889e-05
8.91526e-05
9.56955e-05
0.000108731
0.000116461
0.000133248
0.000142764
0.000167916
2.35148e-06
9.83427e-06
1.77391e-05
2.56612e-05
4.07606e-05
5.16644e-05
6.82744e-05
8.82334e-05
9.93862e-05
0.000113685
0.000132563
0.000142018
0.000151444
0.000169791
0.000176801
0.000190615
0.000198684
0.000215229
0.000223667
0.00024452
5.60741e-06
2.66172e-05
4.9332e-05
7.01038e-05
0.000104652
0.000124203
0.000156252
0.000177987
0.000197105
0.000213086
0.000231764
0.000239524
0.000250552
0.000262967
0.000268166
0.000277485
0.000283608
0.000294088
0.000299311
0.000312094
1.74871e-05
7.02451e-05
0.000124522
0.000168174
0.000218236
0.000246915
0.000281344
0.000299111
0.000315902
0.00032542
0.000335988
0.000338518
0.000344179
0.00034752
0.000350116
0.000352423
0.000355689
0.000359076
0.000361548
0.000366202
5.38138e-05
0.000173039
0.000265602
0.000325023
0.000372346
0.000395182
0.000414704
0.000419092
0.000424293
0.000422944
0.000422984
0.000419701
0.00041917
0.000416104
0.000415365
0.00041259
0.000412404
0.000410943
0.000410378
0.000408926
0.000151986
0.00036344
0.000460944
0.000506266
0.000527545
0.000526532
0.000523352
0.000513112
0.000507365
0.000495046
0.000490184
0.000479864
0.000476534
0.000467905
0.000465545
0.000458549
0.000456164
0.000450134
0.000446398
0.000441256
0.00038333
0.000601672
0.000664339
0.000661153
0.000645463
0.000617746
0.000597713
0.000575099
0.000563037
0.000544353
0.000536603
0.000522649
0.000517544
0.000505298
0.000501912
0.000491342
0.000487057
0.000476192
0.0004699
0.000459055
0.000706005
0.000827297
0.000803328
0.000746503
0.000698921
0.000658612
0.0006308
0.000603472
0.000588403
0.000567626
0.000558659
0.000543382
0.000537589
0.000523102
0.000519015
0.000505441
0.000499461
0.000483793
0.000475194
0.00045684
0.0010132
0.000904067
0.000752671
0.000658726
0.00060757
0.000570694
0.000545636
0.000521436
0.000507987
0.000490837
0.000482962
0.000469537
0.000464819
0.000450866
0.000446368
0.000432248
0.000425435
0.000406945
0.000396043
0.000371764
0.000180593
0.000168176
0.000162967
0.000162717
0.00016287
0.000166148
0.000146435
0.000108761
9.41803e-05
8.42427e-05
7.46762e-05
6.65919e-05
6.32403e-05
6.27809e-05
6.30793e-05
6.18981e-05
5.78746e-05
5.51909e-05
5.49999e-05
5.57758e-05
5.91178e-05
6.81659e-05
8.71011e-05
9.36461e-05
9.35671e-05
9.0932e-05
8.1123e-05
5.42086e-05
3.61566e-05
2.40375e-05
1.59891e-05
1.0844e-05
8.0393e-06
6.70212e-06
6.09871e-06
5.99132e-06
6.1045e-06
6.47596e-06
7.35355e-06
9.68468e-06
1.29617e-05
1.45811e-05
1.85512e-05
1.92105e-05
1.8708e-05
1.9231e-05
1.99171e-05
1.97953e-05
2.02321e-05
2.0006e-05
1.77076e-05
1.66203e-05
1.68865e-05
1.70277e-05
1.74395e-05
2.00684e-05
3.13494e-05
4.08902e-05
4.50069e-05
4.61535e-05
4.58543e-05
4.51574e-05
4.54834e-05
4.71124e-05
4.9558e-05
5.08388e-05
5.09223e-05
5.09996e-05
5.19714e-05
5.77077e-05
6.04569e-05
6.01962e-05
5.40034e-05
4.45722e-05
4.05999e-05
4.0055e-05
4.26799e-05
5.01236e-05
5.49218e-05
5.62818e-05
5.59969e-05
5.3289e-05
4.94424e-05
4.87417e-05
5.02771e-05
5.61507e-05
5.77276e-05
5.64335e-05
4.92864e-05
4.12917e-05
3.84343e-05
3.79714e-05
3.84556e-05
4.01829e-05
4.12348e-05
4.15511e-05
4.21196e-05
4.1494e-05
3.59915e-05
3.35563e-05
3.46794e-05
3.71379e-05
3.66863e-05
3.2715e-05
2.8732e-05
2.65707e-05
2.50993e-05
2.41022e-05
2.35215e-05
2.33646e-05
2.34011e-05
2.35346e-05
2.37915e-05
2.431e-05
2.5459e-05
2.7753e-05
3.42158e-05
3.96101e-05
4.18904e-05
4.26125e-05
4.31248e-05
4.36284e-05
4.41914e-05
4.44637e-05
4.39028e-05
4.09535e-05
3.88536e-05
3.7917e-05
3.82092e-05
3.95003e-05
4.04644e-05
4.03594e-05
3.84954e-05
3.2731e-05
2.72285e-05
2.32566e-05
1.99487e-05
1.78412e-05
1.60584e-05
1.48219e-05
1.37215e-05
1.27794e-05
1.18247e-05
1.09284e-05
1.01062e-05
9.34386e-06
8.8178e-06
8.28549e-06
8.01988e-06
7.69942e-06
7.57826e-06
7.38886e-06
7.32466e-06
7.23832e-06
7.20475e-06
7.16839e-06
7.12177e-06
7.03434e-06
6.82061e-06
6.6265e-06
6.25349e-06
6.07402e-06
5.67211e-06
5.51735e-06
5.14888e-06
5.01788e-06
4.68407e-06
4.58073e-06
4.27641e-06
4.15388e-06
3.80969e-06
3.60733e-06
3.09205e-06
2.69958e-06
2.29389e-06
2.12935e-06
2.04073e-06
2.04486e-06
2.12882e-06
2.14697e-06
2.34849e-06
2.22235e-06
2.1846e-06
1.80614e-06
1.75179e-06
1.58379e-06
1.61132e-06
1.8508e-06
1.68471e-06
1.78635e-06
1.73066e-06
1.90674e-06
2.71364e-06
2.76025e-06
3.2059e-06
4.24181e-06
6.35349e-06
1.27207e-05
3.87155e-05
0.000124059
0.000234281
0.000203297
0.000182963
0.000175863
0.000167128
0.000167404
0.000166309
0.000154493
0.000117386
9.56389e-05
8.42326e-05
7.47924e-05
7.03723e-05
6.97397e-05
6.92925e-05
6.6074e-05
6.19086e-05
6.05938e-05
6.12265e-05
6.43206e-05
7.27857e-05
9.03216e-05
9.65867e-05
9.61574e-05
9.26328e-05
8.01657e-05
5.37384e-05
3.57221e-05
2.3898e-05
1.59609e-05
1.0719e-05
7.86301e-06
6.56713e-06
5.98177e-06
5.80003e-06
5.86358e-06
6.10853e-06
6.90687e-06
8.62162e-06
1.28635e-05
1.72927e-05
2.00669e-05
2.48622e-05
2.51209e-05
2.40665e-05
2.43624e-05
2.41464e-05
2.36911e-05
2.34333e-05
2.22523e-05
1.91937e-05
1.84553e-05
1.88379e-05
1.8967e-05
1.98113e-05
2.51126e-05
3.77665e-05
4.42251e-05
4.65696e-05
4.71029e-05
4.63016e-05
4.44535e-05
4.44531e-05
4.59019e-05
4.93472e-05
5.10572e-05
5.12196e-05
5.12599e-05
5.18995e-05
5.68082e-05
5.97788e-05
5.98205e-05
5.47349e-05
4.54747e-05
4.14048e-05
4.08159e-05
4.31987e-05
5.04205e-05
5.5474e-05
5.70648e-05
5.6786e-05
5.40114e-05
5.02618e-05
4.96894e-05
5.16099e-05
5.78112e-05
5.90344e-05
5.736e-05
4.90535e-05
4.10966e-05
3.81771e-05
3.77589e-05
3.87281e-05
4.05317e-05
4.14969e-05
4.19993e-05
4.25399e-05
4.16475e-05
3.5733e-05
3.31831e-05
3.45786e-05
3.72468e-05
3.65823e-05
3.20224e-05
2.81254e-05
2.62347e-05
2.48948e-05
2.38587e-05
2.34243e-05
2.33686e-05
2.345e-05
2.35831e-05
2.37315e-05
2.40834e-05
2.51526e-05
2.74015e-05
3.41143e-05
3.99705e-05
4.26699e-05
4.32855e-05
4.36242e-05
4.42105e-05
4.45462e-05
4.44521e-05
4.28705e-05
3.93608e-05
3.75099e-05
3.6931e-05
3.72103e-05
3.93202e-05
3.98517e-05
3.98891e-05
3.72859e-05
3.15923e-05
2.64476e-05
2.24883e-05
1.95359e-05
1.73009e-05
1.57465e-05
1.43614e-05
1.33428e-05
1.22722e-05
1.13611e-05
1.05138e-05
9.82611e-06
9.23686e-06
8.70877e-06
8.4062e-06
8.05975e-06
7.95806e-06
7.76472e-06
7.74223e-06
7.67752e-06
7.67951e-06
7.63163e-06
7.61476e-06
7.55993e-06
7.50446e-06
7.33288e-06
7.10274e-06
6.63026e-06
6.27754e-06
5.84632e-06
5.45029e-06
5.15298e-06
4.77911e-06
4.62277e-06
4.32116e-06
4.2617e-06
4.10406e-06
4.11351e-06
4.0057e-06
4.01637e-06
3.83627e-06
3.65705e-06
3.12951e-06
2.76034e-06
2.34138e-06
2.21351e-06
2.20762e-06
2.24136e-06
2.457e-06
2.38433e-06
2.4219e-06
2.17942e-06
1.90512e-06
1.71173e-06
1.77181e-06
2.04238e-06
1.9197e-06
1.97411e-06
1.97478e-06
2.37144e-06
3.30844e-06
3.38097e-06
4.16384e-06
6.68208e-06
1.12155e-05
3.6608e-05
0.000104495
0.000234852
0.000208295
0.000187102
0.000176475
0.000169757
0.000164986
0.000163941
0.000161844
0.00015526
0.000131712
0.000105175
9.04673e-05
8.35793e-05
8.03457e-05
7.71985e-05
7.15777e-05
6.98947e-05
7.03255e-05
7.36076e-05
8.23121e-05
9.6636e-05
0.000100789
9.95912e-05
9.49388e-05
8.05571e-05
5.46542e-05
3.62523e-05
2.39174e-05
1.60138e-05
1.08022e-05
7.67075e-06
6.38378e-06
5.86797e-06
5.64956e-06
5.66512e-06
5.83303e-06
6.46556e-06
8.12099e-06
1.11793e-05
1.79001e-05
2.35831e-05
2.77713e-05
3.25647e-05
3.26463e-05
3.07787e-05
3.00608e-05
2.94198e-05
2.86128e-05
2.82395e-05
2.5421e-05
2.14164e-05
2.0684e-05
2.0913e-05
2.11601e-05
2.26941e-05
3.21513e-05
4.25772e-05
4.66927e-05
4.79161e-05
4.8013e-05
4.67978e-05
4.40428e-05
4.37441e-05
4.44978e-05
4.84672e-05
5.09568e-05
5.13486e-05
5.14788e-05
5.1959e-05
5.60484e-05
5.91538e-05
5.93323e-05
5.53044e-05
4.6348e-05
4.22179e-05
4.15763e-05
4.37991e-05
5.07485e-05
5.61043e-05
5.78474e-05
5.7588e-05
5.46634e-05
5.09972e-05
5.05877e-05
5.30198e-05
5.94674e-05
6.03023e-05
5.81421e-05
4.87511e-05
4.0821e-05
3.77738e-05
3.75195e-05
3.91426e-05
4.09593e-05
4.19506e-05
4.25009e-05
4.29726e-05
4.17426e-05
3.53116e-05
3.26604e-05
3.43767e-05
3.74204e-05
3.6605e-05
3.15798e-05
2.77266e-05
2.60117e-05
2.47484e-05
2.37036e-05
2.33631e-05
2.33798e-05
2.36313e-05
2.37148e-05
2.37469e-05
2.39607e-05
2.49085e-05
2.72752e-05
3.41748e-05
4.03437e-05
4.31952e-05
4.41532e-05
4.43701e-05
4.46707e-05
4.4851e-05
4.44451e-05
4.13799e-05
3.80257e-05
3.6232e-05
3.58763e-05
3.67023e-05
3.88405e-05
3.95919e-05
3.91871e-05
3.63041e-05
3.01458e-05
2.57729e-05
2.17334e-05
1.91032e-05
1.6985e-05
1.54246e-05
1.40932e-05
1.29168e-05
1.18145e-05
1.07534e-05
9.91058e-06
9.17535e-06
8.67262e-06
8.29438e-06
7.98249e-06
7.81072e-06
7.64138e-06
7.62712e-06
7.59914e-06
7.61906e-06
7.62818e-06
7.71995e-06
7.77318e-06
7.82247e-06
7.8126e-06
7.7856e-06
7.61266e-06
7.40667e-06
6.89466e-06
6.59781e-06
6.00866e-06
5.5724e-06
5.09528e-06
4.7155e-06
4.37527e-06
4.07414e-06
3.88233e-06
3.77352e-06
3.82923e-06
3.84566e-06
3.99155e-06
3.99197e-06
4.10024e-06
3.96995e-06
3.71676e-06
3.03359e-06
2.67421e-06
2.42017e-06
2.44751e-06
2.68025e-06
2.63841e-06
2.93592e-06
2.52666e-06
2.19178e-06
1.92064e-06
2.00933e-06
2.44352e-06
2.21827e-06
2.43186e-06
2.496e-06
2.96036e-06
3.90891e-06
4.28581e-06
6.9995e-06
1.01106e-05
3.3199e-05
8.3665e-05
0.00022497
0.000204927
0.000184254
0.000172843
0.000163859
0.000160461
0.000157091
0.000157174
0.000156323
0.000152788
0.000142505
0.000123989
0.000114922
0.0001075
9.89227e-05
9.28171e-05
9.28253e-05
9.47069e-05
0.000100943
0.000105217
0.000105334
0.000103609
9.78611e-05
8.1719e-05
5.63864e-05
3.76617e-05
2.48013e-05
1.64325e-05
1.10783e-05
7.77024e-06
6.18255e-06
5.74844e-06
5.55404e-06
5.51986e-06
5.61764e-06
6.0654e-06
7.45042e-06
1.05082e-05
1.5418e-05
2.4998e-05
3.18459e-05
3.70043e-05
4.12979e-05
4.12607e-05
3.95279e-05
3.70015e-05
3.45391e-05
3.34689e-05
3.32797e-05
3.01061e-05
2.49486e-05
2.36577e-05
2.34485e-05
2.35203e-05
2.60931e-05
3.81865e-05
4.62601e-05
4.86184e-05
4.89588e-05
4.86486e-05
4.68848e-05
4.35868e-05
4.27929e-05
4.32934e-05
4.67661e-05
5.055e-05
5.12943e-05
5.15456e-05
5.19983e-05
5.54216e-05
5.85055e-05
5.89439e-05
5.57864e-05
4.70899e-05
4.29426e-05
4.23005e-05
4.43019e-05
5.11643e-05
5.67118e-05
5.86267e-05
5.83519e-05
5.52732e-05
5.17862e-05
5.15519e-05
5.45455e-05
6.09367e-05
6.15278e-05
5.8813e-05
4.84489e-05
4.04486e-05
3.73848e-05
3.73584e-05
3.97022e-05
4.15203e-05
4.24867e-05
4.29984e-05
4.3332e-05
4.17713e-05
3.52213e-05
3.24442e-05
3.43303e-05
3.78355e-05
3.67377e-05
3.10717e-05
2.7527e-05
2.58849e-05
2.46488e-05
2.36217e-05
2.33157e-05
2.33701e-05
2.36609e-05
2.37951e-05
2.37735e-05
2.39585e-05
2.48896e-05
2.73239e-05
3.4417e-05
4.06854e-05
4.3436e-05
4.45102e-05
4.49477e-05
4.5076e-05
4.50827e-05
4.40536e-05
3.9891e-05
3.6628e-05
3.52282e-05
3.49459e-05
3.64901e-05
3.85015e-05
3.9038e-05
3.86651e-05
3.4594e-05
2.93996e-05
2.45097e-05
2.1334e-05
1.84534e-05
1.67963e-05
1.51096e-05
1.39443e-05
1.2682e-05
1.15978e-05
1.05304e-05
9.66533e-06
8.96525e-06
8.42769e-06
8.00676e-06
7.67345e-06
7.40807e-06
7.22686e-06
7.11722e-06
7.09939e-06
7.11247e-06
7.15285e-06
7.26634e-06
7.40056e-06
7.53005e-06
7.61827e-06
7.62925e-06
7.60431e-06
7.39543e-06
7.23736e-06
6.8891e-06
6.74927e-06
6.38336e-06
6.1701e-06
5.64496e-06
5.34777e-06
4.73511e-06
4.28491e-06
3.97468e-06
3.67791e-06
3.63636e-06
3.65851e-06
3.87138e-06
3.9958e-06
4.49267e-06
4.53503e-06
4.71074e-06
4.38559e-06
3.92614e-06
3.08054e-06
2.91663e-06
2.85096e-06
2.9086e-06
3.41241e-06
3.0547e-06
2.87012e-06
2.31011e-06
2.41514e-06
2.65179e-06
2.55651e-06
2.99832e-06
3.25461e-06
4.1894e-06
4.42131e-06
8.54898e-06
1.02975e-05
2.95126e-05
6.71512e-05
0.000206693
0.000194255
0.000175334
0.000165952
0.000156209
0.000151129
0.000146755
0.000146655
0.000148398
0.000149213
0.000147721
0.000141848
0.000135394
0.000129411
0.000125732
0.000120003
0.000116612
0.000114902
0.000112211
0.000110043
0.000106578
9.96754e-05
8.17627e-05
5.73077e-05
3.90038e-05
2.58612e-05
1.70516e-05
1.14943e-05
7.96733e-06
6.15868e-06
5.59873e-06
5.48127e-06
5.4214e-06
5.47572e-06
5.75348e-06
6.80871e-06
9.54836e-06
1.47053e-05
2.21138e-05
3.48375e-05
4.22116e-05
4.78995e-05
5.07318e-05
5.03144e-05
4.87617e-05
4.55321e-05
4.04675e-05
3.81974e-05
3.77117e-05
3.47562e-05
2.90777e-05
2.7143e-05
2.62741e-05
2.6222e-05
3.00523e-05
4.28246e-05
4.88564e-05
5.0034e-05
4.98646e-05
4.83175e-05
4.58231e-05
4.28646e-05
4.18953e-05
4.22395e-05
4.45934e-05
4.96453e-05
5.10828e-05
5.14911e-05
5.19539e-05
5.48312e-05
5.79316e-05
5.84909e-05
5.60282e-05
4.77691e-05
4.36343e-05
4.30396e-05
4.49161e-05
5.15999e-05
5.73776e-05
5.93986e-05
5.9107e-05
5.58484e-05
5.25501e-05
5.24486e-05
5.61549e-05
6.24279e-05
6.27327e-05
5.92554e-05
4.81513e-05
3.9931e-05
3.69243e-05
3.72423e-05
4.03792e-05
4.18254e-05
4.2678e-05
4.32885e-05
4.33968e-05
4.17044e-05
3.53342e-05
3.24616e-05
3.43083e-05
3.83044e-05
3.69054e-05
3.06055e-05
2.74607e-05
2.58331e-05
2.45593e-05
2.35928e-05
2.32716e-05
2.33435e-05
2.36478e-05
2.37859e-05
2.37766e-05
2.398e-05
2.493e-05
2.75329e-05
3.49759e-05
4.10314e-05
4.35631e-05
4.47068e-05
4.529e-05
4.54035e-05
4.52042e-05
4.31089e-05
3.86793e-05
3.56054e-05
3.44657e-05
3.4435e-05
3.63923e-05
3.83862e-05
3.86372e-05
3.78463e-05
3.32043e-05
2.79382e-05
2.39332e-05
2.04894e-05
1.8254e-05
1.62996e-05
1.49949e-05
1.35866e-05
1.25289e-05
1.13461e-05
1.04614e-05
9.61529e-06
9.0473e-06
8.53138e-06
8.1613e-06
7.7913e-06
7.55056e-06
7.35193e-06
7.20901e-06
7.1327e-06
7.10072e-06
7.10146e-06
7.11386e-06
7.17122e-06
7.18571e-06
7.20023e-06
7.08754e-06
6.99233e-06
6.76875e-06
6.61849e-06
6.49933e-06
6.40901e-06
6.32444e-06
6.16307e-06
6.10457e-06
5.93917e-06
5.86781e-06
5.62361e-06
5.42706e-06
4.93421e-06
4.4517e-06
3.97144e-06
3.81529e-06
3.81421e-06
3.90371e-06
4.29226e-06
4.48195e-06
5.23161e-06
5.25001e-06
5.296e-06
4.66924e-06
3.90801e-06
3.22315e-06
3.31167e-06
3.74093e-06
3.52506e-06
3.70772e-06
2.97348e-06
2.94476e-06
3.00007e-06
3.1324e-06
3.31621e-06
5.17925e-06
5.01769e-06
1.29788e-05
1.13681e-05
2.49516e-05
5.3094e-05
0.00017997
0.000171084
0.000157301
0.00014792
0.00014312
0.000138342
0.00013485
0.000132043
0.000132591
0.000134907
0.000138696
0.000137802
0.000134014
0.000130422
0.000127116
0.000122727
0.00011973
0.000115907
0.000111004
0.000105299
9.61777e-05
7.88014e-05
5.73029e-05
3.9189e-05
2.64556e-05
1.75022e-05
1.17446e-05
8.28932e-06
6.22158e-06
5.54267e-06
5.43904e-06
5.37687e-06
5.38146e-06
5.5336e-06
6.26694e-06
8.55723e-06
1.33518e-05
2.13899e-05
3.24832e-05
4.74962e-05
5.47562e-05
5.99293e-05
6.08133e-05
5.98375e-05
5.75563e-05
5.45845e-05
4.7433e-05
4.34427e-05
4.21528e-05
3.85236e-05
3.28421e-05
3.05037e-05
2.90567e-05
2.91145e-05
3.49758e-05
4.70167e-05
5.13168e-05
5.17978e-05
5.05467e-05
4.65074e-05
4.40283e-05
4.21008e-05
4.1264e-05
4.14738e-05
4.28893e-05
4.79884e-05
5.06086e-05
5.13282e-05
5.18222e-05
5.43317e-05
5.7308e-05
5.80878e-05
5.62283e-05
4.83957e-05
4.43506e-05
4.37872e-05
4.55238e-05
5.20957e-05
5.80928e-05
6.02284e-05
5.98969e-05
5.63899e-05
5.33275e-05
5.33864e-05
5.79828e-05
6.38077e-05
6.38648e-05
5.95726e-05
4.78433e-05
3.92561e-05
3.66335e-05
3.73211e-05
4.09195e-05
4.19497e-05
4.26706e-05
4.33163e-05
4.3343e-05
4.17055e-05
3.61098e-05
3.26304e-05
3.41581e-05
3.86257e-05
3.70784e-05
3.04134e-05
2.76028e-05
2.58262e-05
2.44877e-05
2.35991e-05
2.32621e-05
2.32905e-05
2.35636e-05
2.37561e-05
2.37882e-05
2.40308e-05
2.50396e-05
2.82073e-05
3.62347e-05
4.17498e-05
4.39298e-05
4.51815e-05
4.56254e-05
4.57071e-05
4.53381e-05
4.21743e-05
3.76177e-05
3.47529e-05
3.37893e-05
3.40144e-05
3.64295e-05
3.79344e-05
3.81301e-05
3.66578e-05
3.17704e-05
2.68587e-05
2.29983e-05
2.00047e-05
1.77451e-05
1.61372e-05
1.45062e-05
1.32739e-05
1.19647e-05
1.10199e-05
1.01112e-05
9.50961e-06
8.91799e-06
8.53314e-06
8.15269e-06
7.94207e-06
7.77046e-06
7.7125e-06
7.65806e-06
7.66804e-06
7.64089e-06
7.65414e-06
7.62411e-06
7.62141e-06
7.56905e-06
7.45088e-06
7.10339e-06
6.87009e-06
6.49475e-06
6.31828e-06
5.97143e-06
5.80628e-06
5.60155e-06
5.52216e-06
5.4474e-06
5.50635e-06
5.5486e-06
5.64487e-06
5.68779e-06
5.79822e-06
5.74906e-06
5.6229e-06
5.32261e-06
4.81295e-06
4.27265e-06
4.21187e-06
4.23535e-06
4.45183e-06
5.17874e-06
5.32457e-06
6.11701e-06
5.76181e-06
5.11265e-06
3.93051e-06
3.91537e-06
3.85968e-06
3.9615e-06
4.13631e-06
3.64826e-06
3.24099e-06
4.30675e-06
3.89561e-06
8.09297e-06
6.26861e-06
1.57395e-05
1.29788e-05
2.24063e-05
4.32213e-05
0.000148249
0.000140594
0.000130093
0.000119957
0.000117575
0.000115768
0.000116693
0.000114911
0.000115026
0.000115629
0.000117776
0.000120002
0.000118539
0.000117037
0.00011349
0.000110083
0.000106858
0.000101419
9.43313e-05
8.55612e-05
7.03404e-05
5.24886e-05
3.66592e-05
2.52212e-05
1.74535e-05
1.16404e-05
8.39679e-06
6.53123e-06
5.55842e-06
5.43806e-06
5.41656e-06
5.35173e-06
5.3936e-06
5.86411e-06
7.55119e-06
1.18035e-05
1.94242e-05
3.14551e-05
4.78769e-05
6.14117e-05
6.77626e-05
7.12647e-05
7.12981e-05
6.94293e-05
6.61681e-05
6.28126e-05
5.46459e-05
4.89665e-05
4.7056e-05
4.25729e-05
3.68113e-05
3.39608e-05
3.2147e-05
3.28554e-05
4.22852e-05
5.17711e-05
5.43508e-05
5.40909e-05
5.02152e-05
4.56914e-05
4.33717e-05
4.19785e-05
4.11889e-05
4.12632e-05
4.20892e-05
4.60009e-05
4.96922e-05
5.09731e-05
5.15435e-05
5.38755e-05
5.67437e-05
5.77203e-05
5.63134e-05
4.90576e-05
4.49989e-05
4.45081e-05
4.60871e-05
5.27043e-05
5.88916e-05
6.1113e-05
6.06878e-05
5.68671e-05
5.40697e-05
5.43129e-05
5.97385e-05
6.50695e-05
6.48724e-05
5.97826e-05
4.74192e-05
3.86066e-05
3.65573e-05
3.7789e-05
4.13194e-05
4.19822e-05
4.25053e-05
4.32841e-05
4.30993e-05
4.19874e-05
3.75209e-05
3.29573e-05
3.38062e-05
3.89107e-05
3.74366e-05
3.04022e-05
2.79893e-05
2.58834e-05
2.44111e-05
2.37158e-05
2.33348e-05
2.33221e-05
2.35131e-05
2.37018e-05
2.38109e-05
2.41671e-05
2.52502e-05
2.92908e-05
3.74307e-05
4.25163e-05
4.46457e-05
4.58459e-05
4.60869e-05
4.60875e-05
4.53668e-05
4.12413e-05
3.6597e-05
3.39687e-05
3.32127e-05
3.38667e-05
3.65057e-05
3.76971e-05
3.76914e-05
3.54977e-05
3.0253e-05
2.58965e-05
2.21258e-05
1.95533e-05
1.73285e-05
1.57191e-05
1.40454e-05
1.2692e-05
1.15571e-05
1.06054e-05
9.86662e-06
9.21409e-06
8.8263e-06
8.35747e-06
8.09807e-06
7.87125e-06
7.86488e-06
7.82922e-06
7.89172e-06
7.91958e-06
8.07805e-06
8.06553e-06
8.10683e-06
8.08378e-06
8.04999e-06
7.94919e-06
7.66093e-06
7.51023e-06
7.1924e-06
7.0567e-06
6.74166e-06
6.38796e-06
6.05656e-06
5.67324e-06
5.53135e-06
5.1752e-06
5.14496e-06
5.07704e-06
5.2749e-06
5.34261e-06
5.74369e-06
5.82189e-06
6.23653e-06
6.38878e-06
6.36465e-06
6.00819e-06
5.32663e-06
4.80452e-06
4.87277e-06
5.05273e-06
5.45512e-06
6.71229e-06
6.65663e-06
6.83676e-06
5.67167e-06
4.58794e-06
4.55589e-06
4.55927e-06
5.2129e-06
4.39561e-06
6.302e-06
5.00258e-06
1.02783e-05
8.39028e-06
2.53701e-05
1.70253e-05
2.01528e-05
3.52365e-05
0.000111515
0.00010504
9.50027e-05
8.47833e-05
8.26443e-05
8.31996e-05
8.72336e-05
8.93363e-05
9.20445e-05
9.28205e-05
9.46219e-05
9.61307e-05
9.5109e-05
9.36749e-05
9.01527e-05
8.71644e-05
8.29432e-05
7.6154e-05
6.83372e-05
5.64389e-05
4.36706e-05
3.19498e-05
2.2298e-05
1.62244e-05
1.14673e-05
8.04073e-06
6.7589e-06
5.81195e-06
5.43102e-06
5.48783e-06
5.38491e-06
5.33907e-06
5.56944e-06
6.68914e-06
1.00054e-05
1.701e-05
2.85723e-05
4.69491e-05
6.44838e-05
7.51325e-05
7.89351e-05
7.94222e-05
7.84296e-05
7.60385e-05
7.36904e-05
7.00077e-05
6.12023e-05
5.51609e-05
5.23498e-05
4.57138e-05
4.01643e-05
3.72571e-05
3.58281e-05
3.82509e-05
5.1376e-05
5.71478e-05
5.80083e-05
5.59509e-05
4.97359e-05
4.56491e-05
4.33605e-05
4.2603e-05
4.17397e-05
4.15016e-05
4.18527e-05
4.43113e-05
4.85503e-05
5.02986e-05
5.1073e-05
5.35347e-05
5.62679e-05
5.74257e-05
5.63087e-05
4.95405e-05
4.55877e-05
4.52058e-05
4.67543e-05
5.32524e-05
5.9803e-05
6.19614e-05
6.14356e-05
5.72894e-05
5.4832e-05
5.52851e-05
6.14879e-05
6.62846e-05
6.58324e-05
5.99237e-05
4.68124e-05
3.82546e-05
3.66411e-05
3.84492e-05
4.14645e-05
4.18291e-05
4.21395e-05
4.3158e-05
4.26854e-05
4.22519e-05
3.933e-05
3.34736e-05
3.35502e-05
3.91442e-05
3.80484e-05
3.08008e-05
2.80476e-05
2.60981e-05
2.43797e-05
2.3932e-05
2.34692e-05
2.34027e-05
2.35434e-05
2.37075e-05
2.38692e-05
2.43637e-05
2.55617e-05
3.06772e-05
3.85793e-05
4.31008e-05
4.51831e-05
4.62396e-05
4.63871e-05
4.63403e-05
4.50589e-05
4.00676e-05
3.57022e-05
3.33916e-05
3.29024e-05
3.41198e-05
3.66109e-05
3.7508e-05
3.72446e-05
3.39882e-05
2.90046e-05
2.47721e-05
2.15287e-05
1.9017e-05
1.69047e-05
1.52081e-05
1.36077e-05
1.2314e-05
1.13657e-05
1.05115e-05
9.84922e-06
9.18872e-06
8.83756e-06
8.38502e-06
8.14484e-06
7.98964e-06
7.9841e-06
7.99111e-06
8.02259e-06
8.1118e-06
8.22299e-06
8.24366e-06
8.33141e-06
8.30824e-06
8.44219e-06
8.34984e-06
8.51503e-06
8.32549e-06
8.43074e-06
8.19897e-06
8.24629e-06
7.91367e-06
7.79072e-06
7.20799e-06
6.97689e-06
6.31888e-06
6.03088e-06
5.51998e-06
5.38969e-06
5.30027e-06
5.28159e-06
5.41666e-06
5.58192e-06
6.28889e-06
6.44557e-06
7.22725e-06
7.33432e-06
7.37006e-06
6.84835e-06
5.97695e-06
5.71284e-06
5.99913e-06
6.59368e-06
7.07741e-06
8.80576e-06
7.36683e-06
7.36625e-06
6.09766e-06
7.69505e-06
6.16304e-06
9.07094e-06
7.27039e-06
2.38463e-05
1.50892e-05
2.95433e-05
2.52807e-05
2.23935e-05
2.9722e-05
7.22283e-05
6.663e-05
5.8392e-05
5.05561e-05
4.91136e-05
4.97572e-05
5.39242e-05
5.76444e-05
6.23248e-05
6.40563e-05
6.59888e-05
6.79387e-05
6.75227e-05
6.59759e-05
6.26857e-05
5.88191e-05
5.36224e-05
4.71891e-05
4.04553e-05
3.31073e-05
2.52938e-05
1.8154e-05
1.3555e-05
1.07348e-05
7.754e-06
6.39822e-06
6.10622e-06
5.54578e-06
5.45169e-06
5.45157e-06
5.27842e-06
5.37041e-06
6.0651e-06
8.33781e-06
1.40987e-05
2.48371e-05
4.22202e-05
6.59339e-05
7.9682e-05
8.32625e-05
8.31221e-05
8.19805e-05
7.95945e-05
7.74543e-05
7.58748e-05
7.40332e-05
6.70585e-05
6.11471e-05
5.67705e-05
4.94634e-05