/*--------------------------------*- C++ -*----------------------------------*\
| =========                 |                                                 |
| \\      /  F ield         | OpenFOAM: The Open Source CFD Toolbox           |
|  \\    /   O peration     | Version:  2.4.0                                 |
|   \\  /    A nd           | Web:      www.OpenFOAM.org                      |
|    \\/     M anipulation  |                                                 |
\*---------------------------------------------------------------------------*/
FoamFile
{
    version     2.0;
    format      ascii;
    class       volScalarField;
    location    "0.088";
    object      p;
}
// * * * * * * * * * * * * * * * * * * * * * * * * * * * * * * * * * * * * * //

dimensions      [0 2 -2 0 0 0 0];

internalField   nonuniform List<scalar> 
17600
(
87.6991
72.0541
67.6291
66.4867
65.512
64.6131
63.6805
62.9193
62.2141
61.418
60.7328
60.013
59.3465
58.5619
58.0149
57.3804
56.659
56.0549
55.8679
55.2595
85.7909
72.1041
67.6701
66.4965
65.515
64.6139
63.6812
62.9188
62.215
61.4183
60.7322
60.0134
59.3467
58.562
58.0133
57.3824
56.6586
56.0517
55.866
55.1885
84.3773
72.3606
67.8139
66.5347
65.5286
64.6187
63.6835
62.9198
62.2172
61.4189
60.7321
60.014
59.347
58.5614
58.0125
57.3849
56.6571
56.0476
55.8688
55.1641
83.4012
72.7024
68.0339
66.5997
65.5579
64.634
63.6924
62.9255
62.2229
61.4216
60.7336
60.0151
59.3474
58.5614
58.0117
57.3886
56.6554
56.0459
55.8773
55.2074
82.5791
73.0378
68.2981
66.6811
65.6007
64.6621
63.7123
62.9394
62.2344
61.4288
60.7386
60.0176
59.3487
58.5638
58.0105
57.3938
56.6549
56.0482
55.8995
55.2989
81.8051
73.3308
68.5756
66.7629
65.6436
64.6972
63.7422
62.962
62.2525
61.442
60.7485
60.0223
59.3515
58.57
58.0088
57.4009
56.6572
56.0556
55.9439
55.4239
81.0762
73.5786
68.8517
66.8401
65.6759
64.7291
63.7762
62.9897
62.2751
61.4605
60.7628
60.0291
59.356
58.5806
58.0067
57.4099
56.6634
56.0685
55.9968
55.5722
80.4021
73.7837
69.121
66.9151
65.6967
64.753
63.81
63.0187
62.2989
61.4812
60.7791
60.0365
59.3614
58.5951
58.0035
57.4207
56.6728
56.0863
56.0324
55.7923
79.7885
73.95
69.3753
66.9934
65.7087
64.7685
63.8408
63.047
62.3229
61.5023
60.795
60.0442
59.3661
58.6123
57.9982
57.4332
56.6831
56.1089
55.9454
56.0134
79.2374
74.0787
69.6109
67.0764
65.7153
64.7759
63.8678
63.0731
62.3471
61.5223
60.8096
60.0522
59.37
58.6296
57.9929
57.4446
56.6983
56.1324
55.9473
56.3037
78.7479
74.1726
69.8259
67.1637
65.7175
64.7758
63.891
63.0973
62.3709
61.5412
60.8221
60.0604
59.3725
58.6464
57.9881
57.4549
56.7186
56.156
56.0106
56.5706
78.3175
74.2362
70.0199
67.2549
65.7161
64.7696
63.9108
63.1195
62.3941
61.5592
60.8321
60.0692
59.3733
58.6623
57.9852
57.4643
56.7422
56.1888
56.0552
56.7637
77.9442
74.2752
70.1935
67.349
65.7128
64.7581
63.9274
63.1391
62.4163
61.5766
60.8399
60.0778
59.3731
58.6774
57.9857
57.4725
56.7699
56.2205
56.1073
56.8862
77.6246
74.2965
70.3465
67.4418
65.7095
64.7433
63.9409
63.1563
62.4369
61.5935
60.8455
60.0864
59.3725
58.6911
57.9889
57.4798
56.8006
56.2545
56.1589
56.9713
77.355
74.3066
70.4779
67.5245
65.708
64.7271
63.9524
63.171
62.4551
61.6095
60.8495
60.0949
59.3719
58.7039
57.995
57.4861
56.8359
56.2921
56.2099
57.0264
77.1333
74.3102
70.5865
67.595
65.7086
64.7109
63.9621
63.1839
62.4696
61.6249
60.8515
60.1034
59.3717
58.7149
58.0046
57.4919
56.8682
56.3331
56.2621
57.06
76.9584
74.3103
70.6724
67.6524
65.7111
64.6957
63.9699
63.1947
62.4812
61.6382
60.8528
60.1105
59.3746
58.7241
58.0174
57.4985
56.8987
56.3723
56.311
57.0965
76.8291
74.3089
70.7354
67.6967
65.7147
64.6827
63.9759
63.2036
62.4889
61.6509
60.8518
60.1179
59.3737
58.7342
58.0306
57.5071
56.9331
56.4109
56.3538
57.1351
76.744
74.3064
70.7771
67.7264
65.7187
64.6724
63.9806
63.2099
62.4927
61.6613
60.8524
60.1237
59.3797
58.7382
58.049
57.5122
56.967
56.4563
56.3918
57.165
76.7021
74.3039
70.7983
67.742
65.7213
64.666
63.9838
63.2145
62.4926
61.67
60.8511
60.1301
59.3847
58.7437
58.062
57.5246
56.9907
56.5031
56.4281
57.1712
76.7032
74.3022
70.7993
67.7414
65.7222
64.6641
63.9859
63.2169
62.4883
61.6777
60.848
60.1384
59.3909
58.7537
58.0796
57.5325
57.0267
56.5341
56.506
57.1351
76.7476
74.3012
70.7802
67.7252
65.722
64.6667
63.9874
63.216
62.4817
61.681
60.8469
60.1337
59.4021
58.7441
58.1034
57.5416
57.0636
56.5649
56.5855
57.184
76.8353
74.3005
70.7399
67.6946
65.7199
64.6737
63.9868
63.2131
62.4697
61.6852
60.8442
60.1436
59.4048
58.7605
58.1131
57.5653
57.0767
56.6126
56.56
57.1951
76.9673
74.299
70.6781
67.6498
65.7188
64.6829
63.9856
63.207
62.4568
61.6841
60.8425
60.1391
59.4196
58.7587
58.132
57.581
57.0972
56.6539
56.557
57.2964
77.1445
74.296
70.5931
67.5918
65.7183
64.6945
63.9822
63.1985
62.4404
61.682
60.8389
60.1412
59.4301
58.7625
58.1486
57.599
57.1254
56.6808
56.5912
57.3407
77.3685
74.2896
70.4845
67.5212
65.7195
64.7078
63.977
63.1869
62.4218
61.6774
60.8358
60.142
59.4388
58.7694
58.1601
57.6236
57.1474
56.7128
56.6183
57.3607
77.6404
74.2775
70.3527
67.4387
65.7231
64.7209
63.9701
63.1723
62.402
61.6694
60.8335
60.1386
59.4514
58.7732
58.1762
57.6471
57.1699
56.7501
56.6367
57.3702
77.9623
74.255
70.1985
67.3473
65.7278
64.7335
63.9606
63.1548
62.3808
61.6597
60.8292
60.1369
59.4611
58.7803
58.1893
57.6712
57.1985
56.7866
56.6526
57.3692
78.3379
74.2141
70.0233
67.2534
65.7322
64.7432
63.9483
63.1342
62.3594
61.6474
60.8251
60.1318
59.472
58.7868
58.2014
57.6982
57.2284
56.8247
56.6711
57.3536
78.7693
74.1479
69.8277
67.1627
65.7339
64.7485
63.9325
63.1111
62.3373
61.6337
60.8195
60.1252
59.4823
58.7925
58.2146
57.7247
57.2604
56.8657
56.6998
57.3153
79.2594
74.0508
69.6122
67.0773
65.7313
64.7485
63.9128
63.0853
62.3151
61.6185
60.8124
60.1178
59.4915
58.7981
58.2274
57.7504
57.2957
56.9089
56.7445
57.2375
79.8109
73.9191
69.3772
66.9973
65.7234
64.742
63.8893
63.0572
62.2924
61.6023
60.8039
60.1089
59.4999
58.8033
58.2397
57.7741
57.3346
56.9495
56.8096
57.1209
80.4249
73.7508
69.1235
66.9225
65.7086
64.7271
63.8623
63.0274
62.2689
61.5854
60.7942
60.0993
59.507
58.8082
58.2507
57.7956
57.3723
56.9886
56.8781
57.0363
81.0996
73.5446
68.8543
66.8504
65.6855
64.7028
63.8324
62.9972
62.2456
61.5683
60.7841
60.0906
59.5117
58.8128
58.26
57.8146
57.4037
57.0269
56.925
56.9736
81.8291
73.2964
68.5778
66.7751
65.6524
64.6699
63.8016
62.969
62.224
61.5521
60.7755
60.0837
59.5148
58.8173
58.2684
57.8295
57.4289
57.0573
56.9597
56.9524
82.6038
73.0032
68.3002
66.6942
65.6098
64.6337
63.774
62.9463
62.2073
61.5397
60.7699
60.0798
59.517
58.8217
58.2756
57.8405
57.447
57.0798
56.98
56.9302
83.4263
72.668
68.0358
66.6132
65.5673
64.6051
63.7553
62.9321
62.1976
61.5322
60.7677
60.0789
59.5182
58.8254
58.2812
57.8474
57.4579
57.0951
56.9864
56.9268
84.4029
72.3266
67.8156
66.5485
65.538
64.5902
63.7465
62.926
62.194
61.5285
60.7674
60.0799
59.5184
58.8278
58.2851
57.8508
57.463
57.1031
56.9889
56.9358
85.817
72.0708
67.6717
66.5102
65.5242
64.5861
63.7439
62.9242
62.1936
61.5269
60.7674
60.0814
59.5177
58.8286
58.2871
57.8514
57.4638
57.1057
56.9892
56.9551
87.7257
72.021
67.6309
66.5002
65.5209
64.5859
63.7432
62.9238
62.194
61.5262
60.7671
60.0824
59.5169
58.8281
58.288
57.8508
57.4629
57.1053
56.9883
56.9927
52.6255
51.2282
52.238
55.1697
58.6744
61.7746
62.849
61.1344
58.0597
52.7669
45.5895
38.0133
32.0088
27.5195
22.4406
17.3622
14.3902
12.7218
10.6526
9.1414
8.75645
8.66901
9.11955
10.0951
11.3419
13.2395
15.9159
18.5309
20.9692
23.4931
26.0094
27.9013
29.5756
31.2553
32.3063
33.3614
34.276
35.0785
36.0434
37.3409
39.066
40.4468
42.5465
45.3701
47.5887
50.7178
53.9673
56.1364
58.9329
61.3681
62.4951
63.63
64.5287
64.3202
63.6501
63.0178
61.5904
59.6605
57.6522
55.5411
53.4415
51.3379
49.4314
48.4453
48.6846
49.6129
51.1745
52.9488
53.9353
54.7709
55.6605
55.6671
54.8471
53.2462
51.243
49.1054
46.8585
44.7809
43.3914
43.6612
45.8828
49.5732
54.2854
59.4972
64.2343
67.7484
70.0107
71.2575
71.8918
72.0006
72.1931
71.8395
70.9385
70.009
68.4386
66.1681
63.306
59.4471
54.3493
48.9446
43.8154
37.3173
29.2359
21.1353
12.9264
4.77894
-1.79796
-6.59359
-10.0148
-11.1489
-9.37175
-5.54539
-0.572787
5.672
13.6831
23.0593
32.6277
41.1877
48.2948
54.0393
58.6917
62.4006
65.2347
67.2697
68.5987
69.5174
70.4536
71.761
73.4198
75.0919
76.461
77.4
77.9616
78.2599
78.3767
78.4003
78.3712
78.319
78.2621
78.1998
78.1411
78.0874
78.0355
77.9899
77.9462
77.9084
77.8723
77.8378
77.8062
77.7714
77.7409
77.705
77.6726
77.6344
77.5984
77.5544
77.5156
77.4647
77.4203
77.3637
77.3075
77.2481
77.1799
77.1099
77.0312
76.947
76.859
76.756
76.6556
76.5293
76.4163
76.2731
76.1287
75.9733
75.7938
75.6252
75.4161
75.216
74.9791
74.7468
74.4899
74.2183
73.9376
73.6321
73.3247
72.9789
72.6173
72.2381
71.8032
71.3326
70.7924
70.1591
69.4154
68.4723
67.1872
65.5583
63.0788
59.0023
53.9696
30.082
52.5721
51.3616
52.404
55.3274
58.7012
61.6328
62.3992
60.7699
57.9667
53.3602
46.7457
39.2705
33.1608
28.687
24.009
19.1621
15.9361
14.2247
12.409
10.8723
10.3092
10.14
10.6117
11.7545
13.2488
15.2037
17.7954
20.4474
22.8618
25.0538
27.1755
28.9393
30.2309
31.5396
32.3189
32.8942
33.4659
33.9242
34.4021
35.3981
36.9241
38.1435
40.0685
42.8462
45.2766
48.6311
52.1137
54.6543
57.8111
60.4985
61.8249
63.1481
64.134
63.8821
63.1962
62.3406
60.6642
58.5558
56.3184
54.0117
51.7765
49.4354
47.2807
46.0568
46.139
47.0858
48.9405
51.0197
52.2387
53.4754
54.8458
55.2801
54.7862
53.4657
51.6437
49.6069
47.4423
45.3929
43.9423
44.1453
46.3468
50.0384
54.7633
60.0357
64.7645
68.2253
70.4067
71.5757
72.1331
72.1803
72.3092
71.892
70.9357
69.9585
68.302
65.9767
63.0907
59.2097
54.0971
48.5511
43.2451
36.6459
28.3757
20.0757
11.7782
3.57168
-3.12019
-7.91491
-11.1839
-12.2078
-10.4415
-6.59917
-1.50437
4.95593
13.221
22.8516
32.6599
41.4165
48.6803
54.5253
59.221
62.9089
65.705
67.6587
68.9036
69.7898
70.7295
72.0539
73.6803
75.2903
76.6077
77.4999
78.0484
78.3368
78.4486
78.4711
78.4368
78.3815
78.3192
78.2511
78.1871
78.1264
78.0701
78.0182
77.9696
77.9271
77.8865
77.8485
77.8111
77.7738
77.7379
77.6995
77.6612
77.6218
77.5789
77.5341
77.4879
77.4377
77.3841
77.3298
77.2628
77.2067
77.1279
77.0599
76.9714
76.8867
76.7916
76.686
76.5778
76.4469
76.3275
76.1777
76.0279
75.8613
75.6761
75.4933
75.2809
75.0614
74.8179
74.5643
74.2932
74.0042
73.7023
73.3764
73.0324
72.6721
72.2689
71.8412
71.3582
70.8165
70.2144
69.4766
68.5992
67.5154
65.9552
63.9299
61.2467
55.5611
50.0535
22.81
52.608
51.6299
52.6938
55.4875
58.5575
61.2229
61.8692
60.2711
57.7408
53.6454
47.4641
40.2449
34.085
29.5794
25.3304
20.8522
17.4124
15.6419
14.026
12.4865
11.8544
11.7668
12.3632
13.6486
15.3905
17.41
19.7605
22.2843
24.6425
26.6209
28.3726
29.9979
30.9551
31.8314
32.3612
32.4445
32.5699
32.767
32.7332
33.2595
34.581
35.6375
37.3523
40.0891
42.7114
46.2873
50.0602
53.0851
56.6692
59.6439
61.2288
62.7362
63.7907
63.5267
62.7798
61.6483
59.7642
57.4744
54.9909
52.5284
50.1395
47.4581
45.0031
43.5279
43.4822
44.5234
46.7456
49.1162
50.5964
52.3042
54.1547
54.996
54.851
53.82
52.176
50.2411
48.1602
46.1414
44.6428
44.789
46.9777
50.6669
55.4017
60.6996
65.4031
68.7987
70.8688
71.9475
72.431
72.4029
72.4621
71.9862
70.9896
69.9635
68.2121
65.8381
62.9246
59.0278
53.9007
48.2508
42.8108
36.1634
27.7618
19.272
10.9111
2.67993
-4.08959
-8.84954
-11.9363
-12.8325
-11.1031
-7.29596
-2.1179
4.54541
13.0346
22.846
32.8023
41.7004
49.0858
54.9896
59.7025
63.3627
66.1043
67.966
69.1478
70.0172
70.9888
72.331
73.931
75.4761
76.736
77.5934
78.1187
78.4035
78.5071
78.5313
78.4926
78.4372
78.3705
78.2976
78.2273
78.1642
78.1012
78.0457
77.9913
77.9455
77.8993
77.8588
77.8172
77.7756
77.7354
77.6936
77.6525
77.6081
77.5614
77.5127
77.4629
77.4087
77.3521
77.2924
77.2237
77.1606
77.0828
77.0051
76.9177
76.8223
76.7305
76.6127
76.5035
76.3633
76.242
76.0834
75.9266
75.7504
75.5568
75.368
75.1393
74.9111
74.6474
74.3878
74.0922
73.7899
73.4654
73.119
72.7486
72.3448
71.9226
71.4408
70.9163
70.3126
69.6173
68.8172
67.7794
66.4991
64.8211
62.1962
59.6391
52.1951
46.3545
20.8663
52.7493
51.935
53.0453
55.6143
58.296
60.6128
61.1862
59.6678
57.2921
53.4796
47.7669
40.851
34.7138
30.3106
26.3689
22.2133
18.8248
16.9488
15.509
14.1262
13.5943
13.688
14.4197
15.7463
17.6012
19.691
21.7838
24.0803
26.3716
28.2225
29.6567
31.0724
31.7498
32.1993
32.4357
32.0867
31.5735
31.4398
30.9944
30.8242
31.8687
32.8174
34.2652
37.0211
39.9429
43.7051
47.7764
51.3812
55.4782
58.8064
60.7035
62.3841
63.5006
63.2967
62.4189
60.948
58.8477
56.3717
53.6619
51.0917
48.5127
45.4164
42.5411
40.8472
40.6847
41.9202
44.5698
47.2515
49.0385
51.2644
53.59
54.8298
55.0454
54.3065
52.8431
51.0054
49.0098
47.0228
45.4783
45.5831
47.7681
51.4662
56.1799
61.4606
66.1455
69.4503
71.3904
72.3655
72.7713
72.6696
72.6515
72.1229
71.0988
70.0117
68.1854
65.7454
62.8161
58.9023
53.7706
48.0408
42.4937
35.8684
27.3974
18.7519
10.3621
2.13769
-4.69642
-9.41246
-12.3042
-13.0822
-11.3919
-7.6399
-2.40446
4.44717
13.1284
23.0676
33.1012
42.0567
49.4879
55.4129
60.1293
63.7635
66.4413
68.1995
69.3408
70.2129
71.2363
72.6034
74.1661
75.6585
76.8546
77.6739
78.1818
78.4547
78.5574
78.5798
78.5415
78.4855
78.4155
78.34
78.2636
78.198
78.1304
78.0723
78.0119
77.9622
77.9127
77.8693
77.8237
77.7775
77.7341
77.6879
77.644
77.5945
77.5444
77.4912
77.4377
77.3806
77.32
77.2565
77.1832
77.1177
77.0357
76.9544
76.8612
76.7638
76.6652
76.5455
76.4276
76.2856
76.1527
75.9936
75.8248
75.6458
75.4369
75.2411
75.001
74.7618
74.4865
74.2012
73.901
73.5693
73.2328
72.8467
72.4614
72.0263
71.5692
71.0535
70.4366
69.7964
69.0289
68.1152
67.0135
65.4249
63.8123
60.3638
58.2456
49.0878
42.8584
21.3849
52.967
52.2623
53.4443
55.7396
57.9691
59.8797
60.3364
58.9452
56.6632
53.1118
47.929
41.3524
35.358
31.1352
27.3675
23.6119
20.3568
18.4072
17.1173
15.9616
15.6056
15.9086
16.7534
18.024
19.8773
22.0245
23.9281
25.9305
28.0857
29.8315
30.9929
32.1777
32.6102
32.6629
32.5088
31.7698
30.5699
29.866
29.0815
28.1404
28.7869
29.6773
30.7545
33.5107
36.8836
40.8753
45.2715
49.522
54.2099
57.963
60.2243
62.1125
63.3172
63.1807
62.1375
60.2988
57.9124
55.2145
52.3659
49.7108
46.8641
43.3509
39.9693
38.095
37.7866
39.2953
42.4252
45.4387
47.6072
50.3766
53.1374
54.7962
55.3904
54.9238
53.6407
51.898
49.9884
48.0435
46.4556
46.5245
48.7134
52.4273
57.0996
62.3375
66.9635
70.1639
71.967
72.8356
73.1439
72.9814
72.8835
72.2954
71.2568
70.0962
68.2249
65.703
62.7634
58.8275
53.7027
47.9422
42.2924
35.7438
27.3014
18.5232
10.1483
1.97111
-4.90959
-9.60822
-12.3373
-12.9974
-11.3434
-7.64551
-2.35123
4.67608
13.5019
23.5156
33.5455
42.4794
49.8955
55.8294
60.5337
64.1138
66.7085
68.3694
69.4926
70.3924
71.4777
72.873
74.3958
75.8333
76.9662
77.7482
78.2314
78.5008
78.595
78.6233
78.5781
78.5291
78.4552
78.3767
78.2957
78.2297
78.1578
78.0964
78.033
77.9786
77.9252
77.8791
77.8314
77.7792
77.7308
77.6834
77.6354
77.5827
77.5254
77.4723
77.412
77.3546
77.2863
77.2234
77.142
77.0764
76.9883
76.9059
76.8049
76.7043
76.6039
76.4789
76.3531
76.2036
76.0696
75.9043
75.726
75.5357
75.3209
75.1178
74.8701
74.6086
74.3214
74.0217
73.7087
73.3543
72.9895
72.5978
72.1679
71.7086
71.2047
70.6517
70.006
69.2711
68.4758
67.3575
66.2808
64.2072
62.9653
58.3844
56.9042
46.4821
39.4485
21.9378
53.1255
52.6218
53.8816
55.8488
57.5673
59.0862
59.3681
58.1167
55.9729
52.6561
48.0251
41.9911
36.1781
32.1416
28.6581
25.138
22.0267
20.1028
18.9747
18.0631
17.8696
18.3366
19.2695
20.435
22.2111
24.3219
26.0564
27.7719
29.7288
31.4156
32.3814
33.3372
33.5404
33.1948
32.5754
31.4241
29.6307
28.1668
26.9757
25.2737
25.4237
26.3176
27.0194
29.7198
33.5205
37.7234
42.5214
47.5334
52.8516
57.0972
59.8005
61.9274
63.2613
63.1791
61.9362
59.738
57.0089
54.0406
51.1378
48.4008
45.1941
41.3174
37.5357
35.3908
34.887
36.7049
40.3443
43.7147
46.325
49.6483
52.8288
54.908
55.8877
55.682
54.5591
52.917
51.0966
49.1914
47.6623
47.6161
49.8028
53.5369
58.1672
63.3184
67.8531
70.9315
72.5821
73.3538
73.5473
73.3252
73.148
72.5021
71.4392
70.2203
68.3069
65.7284
62.7777
58.7979
53.7105
47.9573
42.2134
35.7679
27.4515
18.6016
10.2543
2.18938
-4.72487
-9.42349
-12.0503
-12.6212
-10.9751
-7.31765
-1.95552
5.23786
14.1575
24.1721
34.1293
43.0057
50.355
56.2561
60.9215
64.4279
66.9241
68.5039
69.6262
70.5683
71.7213
73.1372
74.6096
76.0029
77.0609
77.8178
78.2707
78.5367
78.6256
78.654
78.6105
78.5625
78.4918
78.4078
78.3268
78.2533
78.1868
78.117
78.0555
77.9885
77.941
77.8869
77.8413
77.7781
77.7309
77.677
77.6297
77.5684
77.5104
77.4498
77.3899
77.3255
77.2576
77.1877
77.104
77.0327
76.9455
76.8549
76.7514
76.6443
76.5455
76.4094
76.2818
76.1263
75.987
75.8128
75.6282
75.4349
75.2033
74.9929
74.7317
74.4647
74.1563
73.8419
73.5072
73.1397
72.7534
72.3277
71.8828
71.3859
70.8649
70.2179
69.5659
68.7089
67.9791
66.4731
65.7575
62.8328
62.2139
56.4667
55.3147
44.3354
36.0187
21.8874
53.4103
53.0762
54.2547
55.8226
57.0544
58.2151
58.3484
57.2003
55.2967
52.2475
48.0665
42.7517
37.2122
33.3174
30.1887
26.8449
23.8634
22.0402
21.0689
20.3902
20.3183
20.8468
21.8224
22.8845
24.5099
26.4846
28.0666
29.6085
31.3709
33.0244
33.8759
34.5538
34.5414
33.8233
32.6789
31.0421
28.7316
26.3971
24.6569
22.2647
21.8478
22.7128
23.1352
25.8434
29.9917
34.321
39.5748
45.3881
51.371
56.2388
59.4587
61.8025
63.3027
63.329
61.824
59.2168
56.1448
52.9103
49.977
47.1384
43.5301
39.3575
35.3678
32.8223
32.1051
34.2413
38.3675
42.1246
45.2159
49.0598
52.6728
55.1897
56.5242
56.565
55.6023
54.0616
52.316
50.4404
48.8933
48.8442
51.0291
54.7791
59.3479
64.3772
68.7926
71.7263
73.2265
73.9008
73.9755
73.687
73.42
72.7307
71.6394
70.3641
68.4111
65.8193
62.8601
58.8405
53.8331
48.0796
42.2695
35.9325
27.8016
18.9877
10.6761
2.76503
-4.1237
-8.87022
-11.4364
-11.9435
-10.2962
-6.64909
-1.203
6.12676
15.104
25.0657
34.8679
43.6108
50.8432
56.6893
61.2999
64.7173
67.0984
68.6124
69.748
70.7504
71.9644
73.4058
74.8122
76.1686
77.1522
77.8761
78.3071
78.5584
78.6548
78.6738
78.6379
78.5866
78.528
78.4284
78.357
78.2695
78.2182
78.1287
78.0821
77.9915
77.9584
77.8881
77.8578
77.7684
77.7338
77.6628
77.6324
77.5446
77.5008
77.4203
77.3749
77.2897
77.2346
77.1491
77.0713
76.9855
76.9072
76.805
76.7003
76.5812
76.4909
76.347
76.2108
76.0422
75.9079
75.7331
75.5321
75.3249
75.0867
74.8764
74.6065
74.3131
73.9903
73.6575
73.3192
72.9105
72.5158
72.0616
71.6232
71.0478
70.5363
69.7443
69.2199
67.9829
67.5966
65.3835
65.2089
61.391
61.3102
54.6165
53.4191
42.568
32.5
21.4411
53.9729
53.6396
54.5249
55.5973
56.3804
57.2527
57.3254
56.2538
54.6177
51.9349
48.1099
43.5357
38.4363
34.6234
31.8154
28.701
25.8572
24.1578
23.3112
22.8393
22.8369
23.3408
24.3214
25.3172
26.7397
28.5351
30.0444
31.5059
33.1025
34.6583
35.4279
35.8327
35.6186
34.5853
32.8692
30.5727
27.7402
24.5426
22.1236
19.1945
18.2698
18.9778
19.1424
21.9741
26.3967
30.7454
36.5095
43.1307
49.7908
55.3888
59.1543
61.722
63.4506
63.6224
61.784
58.6672
55.2644
51.8499
48.8839
45.8996
41.9193
37.4893
33.4956
30.4393
29.5545
32.0003
36.5611
40.693
44.293
48.6375
52.6894
55.6332
57.3129
57.567
56.7619
55.3272
53.6341
51.7954
50.2493
50.2035
52.3852
56.1353
60.624
65.5047
69.7632
72.5299
73.8859
74.4652
74.4179
74.0657
73.6994
72.9546
71.8662
70.5098
68.5364
65.9448
62.9888
59.0005
54.0904
48.3428
42.4785
36.2362
28.339
19.6564
11.4128
3.6668
-3.12657
-7.91874
-10.486
-10.9489
-9.28252
-5.63054
-0.088708
7.33801
16.3193
26.1625
35.7233
44.2631
51.3584
57.1384
61.6627
64.9651
67.2218
68.6991
69.8599
70.9448
72.2081
73.6733
75.017
76.3253
77.2468
77.923
78.342
78.5713
78.6821
78.6804
78.6615
78.5962
78.5621
78.437
78.3882
78.2679
78.252
78.1279
78.109
77.9762
77.9791
77.8758
77.876
77.7431
77.7435
77.6321
77.639
77.5064
77.4987
77.3758
77.365
77.2411
77.2195
77.0984
77.0456
76.9279
76.879
76.7439
76.658
76.511
76.4481
76.268
76.1471
75.9561
75.8442
75.6269
75.4437
75.2135
74.9927
74.7316
74.485
74.1556
73.8468
73.4495
73.1362
72.6531
72.3006
71.7125
71.3859
70.5878
70.2857
69.1232
68.958
67.1078
67.141
64.2347
64.5285
59.8855
60.2757
52.9945
50.4411
40.9429
29.882
21.2505
54.997
54.4742
54.7883
55.2709
55.6222
56.2689
56.3629
55.3836
53.956
51.7144
48.2414
44.273
39.7547
36.0143
33.4182
30.5998
27.9434
26.3361
25.5725
25.2594
25.2742
25.7351
26.6753
27.6065
28.8541
30.4974
31.991
33.3705
34.8282
36.3016
36.9878
37.1873
36.8018
35.4661
33.1736
30.0593
26.6126
22.7216
19.5675
16.2065
14.8904
15.3938
15.3157
18.2605
22.8423
27.1756
33.4286
40.7746
48.1043
54.5523
58.8922
61.71
63.6984
63.9593
61.7564
58.0777
54.3439
50.8485
47.8661
44.696
40.3771
35.6964
31.6021
28.2728
27.3267
30.0645
34.9845
39.4573
43.5721
48.4166
52.9227
56.2504
58.2424
58.6889
58.0245
56.6874
55.0585
53.2461
51.7218
51.6859
53.8522
57.5949
61.99
66.679
70.7587
73.3427
74.5553
75.037
74.8708
74.4621
73.9985
73.1678
72.095
70.6667
68.6767
66.0854
63.1481
59.2785
54.4752
48.7799
42.8641
36.6748
29.054
20.5732
12.4331
4.88509
-1.77506
-6.57318
-9.1566
-9.60273
-7.91865
-4.24128
1.3898
8.85865
17.7774
27.4299
36.7043
44.9911
51.9198
57.6
61.9957
65.1752
67.3125
68.7835
69.9719
71.1544
72.4517
73.9215
75.2148
76.4571
77.3385
77.9539
78.3736
78.5699
78.708
78.6685
78.6757
78.5876
78.5921
78.4265
78.4099
78.2476
78.2785
78.1061
78.1243
77.9449
77.9897
77.8421
77.8875
77.6966
77.7478
77.5797
77.642
77.4465
77.4939
77.3115
77.3561
77.1689
77.2072
77.0245
77.0265
76.842
76.8605
76.6592
76.6271
76.4067
76.4188
76.1712
76.0984
75.8237
75.7934
75.5091
75.3762
75.0477
74.9015
74.5651
74.4005
73.9498
73.7096
73.1847
73.0033
72.3295
72.1345
71.2894
71.2161
70.0261
69.9754
68.3866
68.5199
66.1149
66.4862
62.9399
63.7267
58.5276
58.4101
51.7403
46.5765
39.2922
28.6448
21.8824
55.8324
55.2064
55.0487
55.0059
54.9613
55.4222
55.5402
54.6609
53.3752
51.5675
48.4753
44.9606
41.0317
37.4685
34.965
32.4309
30.035
28.4767
27.7306
27.509
27.5459
27.9938
28.8378
29.6988
30.8805
32.4121
33.8837
35.2065
36.5527
38.0071
38.6288
38.6519
38.1148
36.4475
33.5729
29.6269
25.4661
21.0279
17.1945
13.4489
11.7723
11.9981
11.8329
14.8939
19.4752
23.7628
30.4443
38.3739
46.3748
53.7458
58.664
61.7466
63.9895
64.3162
61.6864
57.4893
53.4359
49.9223
46.9369
43.5721
38.9279
33.9917
29.7531
26.3615
25.4833
28.4931
33.6697
38.468
43.1074
48.429
53.3502
57.0484
59.3107
59.9051
59.3774
58.1383
56.5713
54.781
53.2911
53.2889
55.4254
59.1277
63.4177
67.9009
71.7636
74.1592
75.2352
75.6116
75.3326
74.871
74.3124
73.3823
72.2941
70.8274
68.8257
66.2549
63.3478
59.609
54.9723
49.3752
43.4374
37.2653
29.9393
21.6987
13.7058
6.40274
-0.0894685
-4.83732
-7.43206
-7.87332
-6.17776
-2.4727
3.2202
10.6842
19.4741
28.8523
37.7963
45.7882
52.5376
58.0907
62.3145
65.3613
67.3875
68.8738
70.0967
71.3816
72.7112
74.1624
75.4193
76.5736
77.4327
77.9656
78.3968
78.5483
78.7246
78.6369
78.6768
78.5608
78.6065
78.3912
78.4133
78.2055
78.2871
78.0663
78.114
77.8868
77.9872
77.7863
77.8729
77.6158
77.7375
77.5018
77.6163
77.35
77.4721
77.216
77.3221
77.0555
77.1807
76.9069
76.989
76.7124
76.8314
76.5224
76.5853
76.2641
76.3891
76.0189
76.0417
75.6648
75.7506
75.328
75.2892
74.8558
74.8359
74.3315
74.2836
73.6888
73.5788
72.8475
72.8416
71.9346
71.9024
70.7705
70.9363
69.3685
69.5806
67.5592
67.9098
64.9688
65.7726
61.9387
62.3694
57.6123
55.4883
50.2089
43.8016
38.2619
28.7728
23.0415
56.5058
55.7793
55.2622
54.8405
54.4689
54.7666
54.8761
54.0865
52.9202
51.449
48.769
45.6155
42.2093
38.944
36.4785
34.149
32.0453
30.5262
29.7443
29.5469
29.649
30.1162
30.8592
31.6699
32.8319
34.3091
35.7505
37.0471
38.3177
39.7596
40.3572
40.2138
39.5214
37.5013
34.0506
29.3312
24.4341
19.4664
14.9828
10.8621
8.88531
8.71547
8.57034
11.8358
16.3865
20.677
27.664
35.9888
44.6714
52.9454
58.4286
61.8307
64.346
64.7222
61.5592
56.908
52.6037
49.0968
46.0948
42.5691
37.6377
32.4292
28.0658
24.7394
24.0484
27.3012
32.6525
37.7745
42.9498
48.7034
53.9714
58.007
60.5172
61.2108
60.8049
59.6866
58.1436
56.3899
54.9564
54.9967
57.0983
60.7242
64.871
69.1387
72.7688
74.9716
75.9076
76.1773
75.7953
75.274
74.6271
73.5974
72.4786
70.9705
68.9784
66.474
63.5837
59.9712
55.5335
50.1035
44.1708
38.0305
30.9888
23.0018
15.2127
8.18222
1.90906
-2.7191
-5.31265
-5.74756
-4.04975
-0.331966
5.36327
12.7721
21.3681
30.3931
38.9726
46.6413
53.209
58.6025
62.6054
65.51
67.4451
68.9722
70.2335
71.622
72.9923
74.3928
75.6403
76.6716
77.5295
77.9602
78.4065
78.5079
78.7239
78.5849
78.6552
78.5161
78.603
78.3282
78.3831
78.1477
78.2723
78.0002
78.0653
77.8022
77.9548
77.6964
77.8178
77.5023
77.6875
77.3934
77.5445
77.2198
77.4015
77.0845
77.2371
76.9037
77.0984
76.7383
76.8934
76.5356
76.7659
76.3219
76.4836
76.0597
76.3236
75.7982
75.952
75.4309
75.6713
75.1082
75.2286
74.5797
74.7086
74.0612
74.2167
73.364
73.3972
72.4173
72.6145
71.4472
71.5176
70.1255
70.4805
68.5225
69.0046
66.6795
67.1281
64.2161
64.6317
61.4231
60.1674
56.4419
52.6665
48.3717
42.2442
38.1786
29.9638
24.3716
56.9555
56.1989
55.4534
54.7956
54.1456
54.2596
54.3383
53.6347
52.5689
51.331
49.0811
46.2372
43.2269
40.3664
37.9594
35.7663
33.8994
32.4142
31.6193
31.4492
31.623
32.0951
32.7739
33.5566
34.6688
36.1354
37.5822
38.8324
40.0823
41.5379
42.1458
41.8733
41.0252
38.6339
34.6263
29.2306
23.5856
18.0628
12.9412
8.39624
6.16606
5.5892
5.45945
8.93796
13.5296
17.9608
25.1378
33.6939
43.056
52.1398
58.1793
61.9999
64.8277
65.158
61.4289
56.332
51.8653
48.3657
45.3385
41.7087
36.5331
31.055
26.5832
23.43
23.0321
26.5006
31.9851
37.4351
43.1153
49.2179
54.8112
59.151
61.8294
62.6013
62.3148
61.3056
59.7701
58.063
56.7096
56.7933
58.8474
62.3715
66.3421
70.3466
73.7294
75.7573
76.5561
76.7131
76.2399
75.6436
74.9183
73.8082
72.6625
71.108
69.1132
66.7156
63.8342
60.3832
56.1225
50.9011
45.0456
38.9542
32.2131
24.4757
16.9217
10.1663
4.19135
-0.275535
-2.82323
-3.23236
-1.54851
2.16055
7.78176
15.0491
23.3985
32.0135
40.2219
47.563
53.8976
59.0941
62.8582
65.6303
67.5008
69.0878
70.3876
71.8561
73.277
74.5771
75.8419
76.73
77.6035
77.9334
78.3916
78.4559
78.6979
78.5082
78.6055
78.455
78.575
78.2329
78.3129
78.0675
78.2259
77.9013
77.9713
77.6837
77.8906
77.578
77.7054
77.35
77.5935
77.2595
77.4146
77.0508
77.279
76.9208
77.0955
76.7136
76.9536
76.5233
76.7319
76.3124
76.5985
76.0468
76.3006
75.8074
76.1348
75.4359
75.7442
75.1486
75.4662
74.6518
75.0095
74.1945
74.4683
73.564
74.011
72.8556
73.0639
71.8643
72.2851
70.8444
71.0037
69.5316
69.9036
67.9534
68.3685
66.2648
66.0958
63.8501
62.9506
60.5026
57.9488
54.8516
50.73
47.4006
41.802
38.8283
31.4936
25.6048
57.3099
56.5506
55.6337
54.8029
53.9124
53.8349
53.8913
53.2717
52.2967
51.2353
49.3722
46.8278
44.154
41.6811
39.3572
37.28
35.5745
34.1675
33.4512
33.2796
33.4392
33.9247
34.6037
35.3601
36.4081
37.8544
39.3615
40.6204
41.8676
43.355
44.0204
43.6726
42.6302
39.8869
35.3461
29.3591
22.959
16.81
11.086
6.11463
3.59882
2.66657
2.56894
6.18728
10.8642
15.5629
22.8685
31.5573
41.5812
51.3531
57.8892
62.2085
65.3716
65.5178
61.3626
55.8215
51.2213
47.7196
44.6733
40.9873
35.6059
29.8974
25.356
22.4662
22.45
26.1249
31.7313
37.5008
43.5983
49.9676
55.8678
60.4703
63.2419
64.0647
63.892
62.9778
61.4408
59.79
58.5297
58.6682
60.6613
64.0363
67.8075
71.5259
74.6242
76.4812
77.1603
77.209
76.6525
75.9686
75.1655
74.0072
72.8486
71.2667
69.2313
66.9287
64.0969
60.8213
56.7377
51.7113
46.0299
40.0082
33.5732
26.1622
18.8078
12.2907
6.70019
2.44968
-0.0013576
-0.385012
1.27958
4.96248
10.4611
17.4576
25.4928
33.6963
41.5247
48.5488
54.5999
59.5549
63.0909
65.7429
67.5749
69.2246
70.5826
72.0742
73.578
74.7231
76.0112
76.7618
77.6412
77.8845
78.3488
78.3914
78.6387
78.3957
78.529
78.3754
78.5083
78.085
78.1986
77.971
78.1448
77.7457
77.821
77.5474
77.7951
77.4116
77.5265
77.1774
77.4575
77.0844
77.2253
76.8555
77.1065
76.7157
76.8968
76.4981
76.7519
76.275
76.5071
76.0709
76.3642
75.7501
76.0426
75.5414
75.8515
75.0511
75.4202
74.8458
75.1291
74.125
74.5575
73.7785
74.0492
72.9654
73.4372
72.2018
72.4543
71.336
71.7273
70.0505
70.2485
68.9587
69.0994
67.1903
67.4169
65.4675
64.7629
62.7943
61.2101
58.9121
56.2475
53.6238
49.7903
47.525
42.3515
39.8052
32.9256
26.6786
57.6297
56.8645
55.775
54.8326
53.7603
53.4994
53.543
52.9838
52.1022
51.1947
49.6361
47.3956
45.0235
42.8497
40.6657
38.7328
37.1355
35.8566
35.2173
35.0143
35.1079
35.6083
36.3696
37.0987
38.0507
39.4856
41.0912
42.43
43.6694
45.1894
45.9607
45.6211
44.3745
41.2901
36.2635
29.7009
22.5503
15.7058
9.40742
4.08735
1.26423
-0.00499969
-0.037207
3.62615
8.30346
13.4462
20.8266
29.6167
40.2859
50.5616
57.4818
62.3823
65.8481
65.6851
61.2879
55.3991
50.65
47.1652
44.1242
40.4026
34.8733
29.002
24.4503
21.9045
22.3307
26.2129
31.9424
37.9778
44.3744
50.9824
57.1581
61.9396
64.7376
65.5943
65.5217
64.689
63.14
61.5531
60.4057
60.6024
62.5228
65.7038
69.2233
72.6489
75.4606
77.1412
77.7031
77.6581
77.0306
76.2501
75.3847
74.1769
73.0471
71.47
69.3896
67.1515
64.3862
61.2564
57.3608
52.5469
47.0521
41.1557
35.0283
27.9707
20.8774
14.5795
9.3258
5.36276
3.0661
2.75521
4.37169
7.97273
13.298
19.9962
27.6005
35.4022
42.8895
49.595
55.3071
59.9747
63.2983
65.853
67.6794
69.3721
70.8143
72.2726
73.8908
74.8494
76.1534
76.7835
77.6469
77.8079
78.281
78.3013
78.5293
78.2393
78.4347
78.264
78.3674
77.8809
78.0502
77.8614
77.9915
77.5192
77.6432
77.4058
77.6467
77.1771
77.2924
76.9969
77.2837
76.8535
76.9738
76.6378
76.8973
76.4645
76.6375
76.2523
76.4998
75.9931
76.2266
75.7954
76.0613
75.4457
75.7341
75.2198
75.4697
74.7092
75.0771
74.4778
74.6612
73.7027
74.1614
73.3934
73.5454
72.46
72.8753
71.6418
71.9002
70.8533
70.9894
69.1683
69.4968
68.2865
68.0704
66.0305
66.0488
64.003
63.0525
61.0461
59.4146
57.2272
55.032
52.9704
49.6594
48.2482
43.3869
40.6463
34.0675
27.6663
57.9131
57.1431
55.8851
54.8837
53.6981
53.2735
53.2874
52.7765
51.986
51.1792
49.8905
47.9406
45.8528
43.9014
41.9134
40.1362
38.6331
37.4584
36.8555
36.6741
36.6967
37.171
38.036
38.7806
39.6276
41.0416
42.7521
44.2141
45.477
47.0474
47.994
47.7526
46.3459
42.9121
37.3939
30.2443
22.353
14.804
7.94943
2.33508
-0.75691
-2.32961
-2.30488
1.30823
6.06358
11.5965
18.9771
27.9076
39.1591
49.7057
56.927
62.4842
66.1789
65.6523
61.0682
54.9689
50.089
46.6876
43.7134
39.9632
34.3756
28.4364
23.9481
21.8065
22.7071
26.7978
32.6307
38.8246
45.435
52.2999
58.6899
63.5587
66.2972
67.1792
67.206
66.4094
64.8508
63.3487
62.3281
62.5851