/*--------------------------------*- C++ -*----------------------------------*\
| =========                 |                                                 |
| \\      /  F ield         | OpenFOAM: The Open Source CFD Toolbox           |
|  \\    /   O peration     | Version:  2.4.0                                 |
|   \\  /    A nd           | Web:      www.OpenFOAM.org                      |
|    \\/     M anipulation  |                                                 |
\*---------------------------------------------------------------------------*/
FoamFile
{
    version     2.0;
    format      ascii;
    class       volScalarField;
    location    "0.094";
    object      k;
}
// * * * * * * * * * * * * * * * * * * * * * * * * * * * * * * * * * * * * * //

dimensions      [0 2 -2 0 0 0 0];

internalField   nonuniform List<scalar> 
4400
(
9.51791
8.517
6.47395
5.34829
4.57309
4.29236
3.95962
3.84564
3.60607
3.97321
4.39143
6.79527
6.71152
6.34647
5.61829
5.31618
4.89713
4.74538
4.55093
4.56511
1.14609
3.20126
4.17471
4.56971
4.43756
4.32737
4.09356
3.94838
3.92853
3.75135
0.159892
0.971851
1.66805
2.34752
2.63788
2.82403
2.85903
2.82852
2.8903
2.80635
0.0168199
0.17626
0.393319
0.756605
1.0791
1.31644
1.55072
1.63045
1.73191
1.82172
0.00142524
0.0201084
0.0548003
0.122833
0.270293
0.35968
0.542667
0.671473
0.726913
0.897793
0.000133759
0.00198193
0.00496384
0.0118123
0.0344929
0.0529528
0.0982431
0.162608
0.184492
0.276578
4.06981e-05
0.000351459
0.00053183
0.000942727
0.00258996
0.00399274
0.00804355
0.0195279
0.0231359
0.0450385
3.489e-05
0.00015759
0.000221389
0.000242008
0.000329559
0.000361217
0.000576029
0.00145527
0.00155538
0.00306834
3.37137e-05
0.000125491
0.000192463
0.000208243
0.000205739
0.000197798
0.000207996
0.000272217
0.000293132
0.000334676
3.36737e-05
0.000113632
0.000160672
0.000199914
0.000208798
0.000215797
0.000235959
0.000254149
0.000288276
0.000368588
3.45404e-05
9.58761e-05
0.00018814
0.000270079
0.000307944
0.000418094
0.000542551
0.000864358
0.00171706
0.00407428
4.01794e-05
0.000226235
0.000434383
0.000924059
0.00178185
0.00462612
0.00788411
0.0160462
0.0270387
0.0602859
0.000139422
0.00148773
0.00438246
0.0126716
0.0262091
0.0617165
0.0911181
0.156981
0.207206
0.352515
0.00150008
0.0167828
0.0524959
0.135062
0.23584
0.398726
0.514414
0.684094
0.784075
1.02146
0.0175053
0.148946
0.42011
0.73675
1.08841
1.33341
1.52834
1.68026
1.77047
1.94583
0.165444
0.930122
1.72596
2.29601
2.68843
2.79021
2.87906
2.86708
2.87524
2.8974
1.17947
3.14291
4.23279
4.51525
4.48292
4.26438
4.15427
3.92982
3.86287
3.75278
4.41107
6.74742
6.74436
6.27327
5.73629
5.18167
4.98115
4.62401
4.51461
4.23984
9.53103
8.47547
6.527
5.27144
4.65751
4.1794
4.00789
3.70641
3.5985
3.22246
1.98726
0.803606
0.667967
0.716524
0.953681
1.05811
1.11297
1.15866
1.10826
1.19199
0.94794
0.619564
0.401605
0.327926
0.317244
0.275051
0.227683
0.218114
0.226102
0.273932
0.361675
0.363585
0.340831
0.256551
0.110803
0.0536477
0.0403894
0.0438291
0.0573427
0.0984234
0.145223
0.146081
0.146479
0.154388
0.181537
0.256119
0.339611
0.355467
0.346291
0.319851
0.285948
0.25146
0.236104
0.210434
0.162742
0.142412
0.110636
0.0909196
0.0924451
0.0872398
0.0857888
0.140595
0.385001
0.460236
0.392686
0.232907
0.172851
0.126205
0.0968244
0.087928
0.088543
0.0928192
0.103423
0.129236
0.223442
0.282115
0.274903
0.199843
0.108413
0.0621485
0.049399
0.041686
0.0393696
0.0369074
0.0393552
0.0390569
0.0414893
0.0418862
0.0443293
0.0467724
0.0558996
0.061534
0.071501
0.0694254
0.0657333
0.0525901
0.0420357
0.0303095
0.0240277
0.0177538
0.0132634
0.0100128
0.0081157
0.00677279
0.0050749
0.00286784
0.00342448
0.00570446
0.0502782
0.496522
3.54084
2.36387
1.78376
1.5112
1.4043
1.36083
1.21354
1.19004
1.09095
1.1489
1.13903
1.04085
0.761752
0.579024
0.518463
0.41857
0.359673
0.350364
0.372949
0.427632
0.416753
0.383272
0.290769
0.12253
0.0551261
0.0354352
0.036945
0.0518487
0.0952251
0.188256
0.218158
0.211922
0.184588
0.163642
0.165588
0.183123
0.240188
0.289295
0.300657
0.294335
0.275948
0.244895
0.225707
0.18957
0.142301
0.12936
0.104221
0.0900078
0.092657
0.0901364
0.0911944
0.174174
0.410518
0.475772
0.372903
0.229018
0.177589
0.125857
0.0963028
0.0813939
0.0810841
0.084801
0.0953574
0.117803
0.20056
0.271216
0.270612
0.215665
0.124518
0.0685918
0.0561909
0.0434706
0.042323
0.0397844
0.0444105
0.0441234
0.0478851
0.0475848
0.0489654
0.049429
0.0556786
0.0609274
0.0723257
0.0696278
0.0672598
0.0521254
0.0439225
0.0323736
0.029831
0.0238515
0.0207264
0.0135538
0.0105
0.00703991
0.00711624
0.00474319
0.0073375
0.00658688
0.039467
0.316425
3.18337
2.64161
2.21197
1.9215
1.59505
1.4743
1.23088
1.1259
1.01586
0.98528
1.01612
1.00777
0.916679
0.810334
0.695983
0.620694
0.576858
0.515736
0.494407
0.473257
0.423809
0.315482
0.136842
0.0595343
0.0324437
0.0310248
0.0423018
0.0913338
0.206349
0.288821
0.3027
0.290906
0.263385
0.196386
0.169841
0.167859
0.179839
0.213082
0.238001
0.238654
0.233083
0.215299
0.194073
0.164206
0.129246
0.119195
0.0991578
0.0897508
0.0928651
0.0945765
0.10001
0.207499
0.423936
0.476986
0.357315
0.239386
0.19829
0.129947
0.100525
0.0781537
0.0751593
0.0779179
0.0878204
0.10822
0.180704
0.259964
0.263132
0.225708
0.145604
0.0783544
0.0669694
0.0475574
0.0488816
0.0465218
0.0533634
0.052947
0.0559456
0.0534629
0.0532352
0.0525485
0.0560109
0.0632346
0.0726023
0.0715209
0.0691332
0.0510864
0.0425653
0.03096
0.0307649
0.0279147
0.0289525
0.0216808
0.0189755
0.0103231
0.0100785
0.00690909
0.0161122
0.00963458
0.0396684
0.196364
2.46144
2.15662
1.8899
1.70874
1.41366
1.24181
1.05905
0.889812
0.794013
0.740934
0.746228
0.763255
0.75743
0.729942
0.640408
0.604869
0.577105
0.529461
0.486416
0.422199
0.296507
0.134508
0.0600656
0.0313857
0.0249696
0.0302628
0.0712446
0.209188
0.32864
0.370123
0.364402
0.338162
0.315426
0.264696
0.193475
0.168097
0.163948
0.170463
0.184066
0.192565
0.190511
0.179821
0.163494
0.147501
0.123351
0.113989
0.09668
0.0900496
0.0923307
0.0982372
0.108862
0.220937
0.431004
0.457088
0.357314
0.288824
0.241404
0.145796
0.113611
0.0793338
0.0708659
0.0722048
0.0807617
0.0998231
0.161877
0.248422
0.255911
0.232015
0.166743
0.0913992
0.0799885
0.0571112
0.0596284
0.056883
0.0645955
0.0637993
0.0659846
0.060268
0.0569816
0.0553248
0.0571791
0.0662676
0.0749497
0.0742617
0.0708186
0.0516566
0.0397784
0.0282253
0.032293
0.0295032
0.0523615
0.0431305
0.104541
0.0544558
0.0853802
0.0313111
0.0350124
0.0177883
0.0332947
0.110551
1.67634
1.51219
1.3401
1.22316
1.0382
0.857044
0.724388
0.58865
0.474139
0.44936
0.458085
0.461555
0.470882
0.462394
0.41733
0.392556
0.359968
0.333598
0.284152
0.189811
0.104993
0.0489856
0.0278203
0.0209847
0.0231396
0.0461823
0.160072
0.362662
0.422562
0.417293
0.386554
0.342508
0.320358
0.301996
0.250663
0.18374
0.163335
0.161056
0.161387
0.165069
0.164955
0.158846
0.150849
0.140545
0.121624
0.1114
0.0965407
0.0931313
0.0948132
0.100944
0.112083
0.216618
0.420512
0.450172
0.399224
0.34408
0.274647
0.161874
0.132993
0.0841288
0.0720302
0.0705009
0.0755222
0.0919676
0.145161
0.238679
0.250296
0.232788
0.192705
0.108038
0.0957665
0.0694259
0.0718942
0.0684355
0.0760645
0.0757673
0.0763338
0.0656357
0.0605152
0.0575738
0.0594111
0.0677831
0.0777551
0.0771284
0.0731732
0.0554039
0.0366874
0.0288894
0.0250717
0.0275091
0.0387901
0.0412618
0.102765
0.0877132
0.251238
0.169847
0.220611
0.0988592
0.06437
0.0868694
0.851721
0.789918
0.724185
0.674776
0.584706
0.453254
0.360835
0.272538
0.192981
0.180519
0.184396
0.189648
0.208402
0.205055
0.187295
0.161397
0.139904
0.120957
0.086385
0.0611123
0.0340682
0.0198465
0.0169654
0.0183391
0.0307797
0.100396
0.34044
0.477176
0.478191
0.439244
0.376819
0.330536
0.307707
0.301991
0.288373
0.228323
0.174562
0.16327
0.159253
0.16065
0.15931
0.152321
0.147638
0.138754
0.122234
0.111085
0.0987754
0.09768
0.0997901
0.104531
0.114488
0.229058
0.372227
0.465192
0.462358
0.359646
0.276034
0.160251
0.147634
0.0919229
0.0767998
0.0709177
0.0733298
0.0859212
0.130311
0.224778
0.242868
0.231042
0.203848
0.130458
0.116869
0.0857469
0.0871801
0.0823479
0.0883311
0.0873194
0.0850032
0.0702576
0.065426
0.0624024
0.0648304
0.0736399
0.0828747
0.0822937
0.0783321
0.0581177
0.0373027
0.0272369
0.0209956
0.0243486
0.0287145
0.0365948
0.0673138
0.0788928
0.14715
0.156413
0.185217
0.157911
0.171644
0.117669
0.266039
0.246049
0.232541
0.219383
0.194619
0.142125
0.108685
0.0776762
0.0537141
0.0512964
0.0517766
0.0534316
0.0609434
0.0602156
0.0555595
0.0435725
0.0382406
0.030413
0.0234282
0.0185125
0.0119382
0.0120715
0.0141039
0.0221257
0.0619784
0.243632
0.516119
0.546981
0.506371
0.414047
0.348718
0.300319
0.281116
0.289788
0.289494
0.271502
0.205686
0.173615
0.163856
0.163275
0.159736
0.156935
0.153427
0.140235
0.126392
0.117896
0.107049
0.105113
0.106086
0.108195
0.118233
0.250275
0.325471
0.518078
0.491615
0.357524
0.262133
0.159366
0.172248
0.107931
0.0898356
0.0725878
0.0735839
0.0825543
0.118613
0.213673
0.235821
0.228605
0.20871
0.148722
0.136442
0.104625
0.103936
0.0971
0.0998132
0.096933
0.0910841
0.0745056
0.0707109
0.0671717
0.0714218
0.0781176
0.0889059
0.0875334
0.0827423
0.0621283
0.0408425
0.0279638
0.0189701
0.0186441
0.0206015
0.0255165
0.0614204
0.0720382
0.235888
0.189486
0.248933
0.207128
0.19203
0.144127
0.0436196
0.0403739
0.0381349
0.0364245
0.0326027
0.0239232
0.0182387
0.0126676
0.00904224
0.00872307
0.00872922
0.00911027
0.0106735
0.0105207
0.00942609
0.00738742
0.00660514
0.0061024
0.00648413
0.00677815
0.00764839
0.0107744
0.01895
0.0440201
0.145949
0.474708
0.608569
0.576577
0.467906
0.380489
0.330268
0.289154
0.264798
0.26913
0.281275
0.27683
0.250292
0.198238
0.177274
0.170361
0.165864
0.165266
0.160915
0.143189
0.135731
0.130008
0.122644
0.117532
0.114612
0.11407
0.122926
0.252311
0.315617
0.530249
0.493533
0.316697
0.262192
0.200088
0.237974
0.128365
0.112556
0.0771206
0.0752059
0.0799821
0.109801
0.201472
0.227877
0.224717
0.211699
0.165423
0.154475
0.124547
0.121702
0.110741
0.109622
0.103621
0.0942355
0.0777753
0.0756964
0.07385
0.081182
0.0872619
0.0992424
0.0963205
0.0890563
0.0637217
0.0421032
0.0284903
0.0193041
0.0165403
0.0158576
0.0199141
0.0194869
0.0507408
0.0527261
0.144899
0.15812
0.19006
0.239744
0.195033
0.00298747
0.0028442
0.00262582
0.00250996
0.00220903
0.00190012
0.00148315
0.00134256
0.00136537
0.00146959
0.00146174
0.00151638
0.00163457
0.0016686
0.00170567
0.00185557
0.00205871
0.00274589
0.00415727
0.00567958
0.0103697
0.0220643
0.0452535
0.103964
0.348792
0.656813
0.661774
0.558862
0.424787
0.366035
0.324067
0.289641
0.269085
0.269395
0.274639
0.27632
0.269412
0.2365
0.206334
0.185504
0.183346
0.181296
0.16488
0.156131
0.156362
0.152866
0.146068
0.13443
0.120114
0.116304
0.125449
0.238684
0.296412
0.529096
0.441448
0.312332
0.312199
0.283373
0.307268
0.150866
0.134001
0.0850647
0.0794879
0.0805892
0.105159
0.189879
0.221838
0.220399
0.212103
0.178429
0.168447
0.14194
0.135653
0.120705
0.117459
0.108299
0.0968876
0.0832098
0.0835369
0.0830431
0.0931722
0.0970918
0.109357
0.105841
0.0974627
0.0682706
0.0450661
0.0294708
0.0207503
0.0165641
0.0146406
0.0170357
0.0155036
0.0343172
0.0286878
0.0900405
0.0834622
0.129959
0.224011
0.217672
0.000345857
0.00034589
0.000347283
0.000354777
0.000383306
0.000457114
0.000661761
0.000952909
0.00177511
0.00244731
0.0024394
0.0024969
0.00249045
0.00253419
0.00281859
0.00359365
0.00444664
0.00649666
0.00948042
0.0155001
0.0335917
0.0629879
0.107272
0.223038
0.59376
0.73881
0.685228
0.49676
0.405111
0.362506
0.327059
0.293637
0.28027
0.275437
0.276475
0.282474
0.28068
0.267318
0.23227
0.212803
0.21139
0.19539
0.180222
0.183267
0.190788
0.186054
0.173753
0.150722
0.127451
0.119632
0.128915
0.206512
0.26834
0.505104
0.401851
0.355814
0.356856
0.358313
0.321438
0.156796
0.156537
0.0948546
0.0891115
0.0822632
0.105715
0.181117
0.218915
0.21809
0.211862
0.186645
0.177644
0.154026
0.143053
0.129301
0.124411
0.11159
0.100447
0.0903557
0.0941308
0.0946638
0.11059
0.113255
0.12481
0.118528
0.106489
0.0707258
0.0476461
0.0296954
0.021817
0.0165506
0.0143581
0.0147879
0.0139532
0.0249496
0.0210806
0.0583051
0.0535234
0.0913857
0.115761
0.18316
0.000481985
0.000613733
0.000767886
0.000977011
0.00135183
0.00207274
0.00428094
0.00630093
0.0106447
0.0142338
0.014522
0.0143879
0.0136988
0.013593
0.0144265
0.0167595
0.0198346
0.0265561
0.0353242
0.0526202
0.098924
0.145637
0.219167
0.461719
0.767954
0.771533
0.62969
0.460875
0.395509
0.369567
0.339442
0.294963
0.282376
0.280009
0.282522
0.28945
0.290175
0.288619
0.264165
0.249286
0.230738
0.212929
0.212781
0.231038
0.236057
0.22426
0.194946
0.159957
0.132576
0.122625
0.136012
0.181767
0.240564
0.445847
0.396361
0.461449
0.394504
0.404933
0.272775
0.16406
0.22149
0.106768
0.105729
0.0861242
0.109726
0.175911
0.213959
0.213746
0.210367
0.193031
0.183845
0.16261
0.148839
0.138678
0.130234
0.113689
0.105406
0.102073
0.111965
0.115072
0.138667
0.13702
0.14637
0.134218
0.118315
0.0743437
0.0521695
0.030102
0.0237416
0.016391
0.0160739
0.0149191
0.014026
0.0186642
0.017861
0.0400985
0.0386693
0.0696422
0.0748442
0.109071
0.00762747
0.0089037
0.00973707
0.0115667
0.0141962
0.0183483
0.0296316
0.0388484
0.0537401
0.0623621
0.0623917
0.0614799
0.0583707
0.0569822
0.0585628
0.0626841
0.0708263
0.0844743
0.103143
0.144878
0.221816
0.281905
0.395737
0.707513
0.827272
0.760424
0.572568
0.447089
0.390415
0.378612
0.358162
0.317128
0.296815
0.289648
0.292442
0.297472
0.308812
0.304663
0.288763
0.268799
0.248617
0.245415
0.265578
0.289334
0.281203
0.24192
0.20208
0.160397
0.132673
0.122658
0.141502
0.16962
0.210891
0.376308
0.426248
0.565547
0.417268
0.347769
0.263685
0.222546
0.362715
0.105427
0.131218
0.0929192
0.124498
0.174384
0.21461
0.211506
0.210388
0.199863
0.188555
0.167988
0.153596
0.147261
0.133605
0.116382
0.11464
0.11606
0.141091
0.147983
0.18121
0.171966
0.179907
0.156199
0.131534
0.0766502
0.0550858
0.0299774
0.0259113
0.0173753
0.0196758
0.0159496
0.0164592
0.0177959
0.0176366
0.0301488
0.0299736
0.0523319
0.05513
0.0731942
0.0776415
0.0803265
0.0826549
0.0890723
0.0967706
0.110302
0.140438
0.161937
0.186599
0.193059
0.190637
0.183963
0.176701
0.169835
0.171405
0.176852
0.188832
0.207039
0.239794
0.320932
0.3983
0.470448
0.651545
0.820361
0.823175
0.659548
0.553649
0.444567
0.388499
0.385206
0.380173
0.358053
0.336194
0.312458
0.310245
0.31111
0.322245
0.315365
0.313129
0.291128
0.28024
0.294596
0.334931
0.33079
0.30068
0.244249
0.203635
0.157034
0.131575
0.122146
0.142082
0.155479
0.177919
0.319561
0.498724
0.584862
0.346327
0.296722
0.317042
0.285232
0.401191
0.114125
0.198113
0.104601
0.162002
0.178739
0.21977
0.212621
0.213561
0.206955
0.194235
0.17236
0.161355
0.153913
0.137088
0.126983
0.13202
0.141664
0.198146
0.20812
0.251622
0.22716
0.232762
0.189622
0.146677
0.079466
0.0593204
0.0304476
0.0311014
0.0215511
0.0261878
0.0192933
0.0217142
0.0194908
0.0198659
0.0268148
0.0268148
0.0398806
0.0421444
0.0552546
0.357774
0.353111
0.349715
0.352997
0.359749
0.375382
0.411592
0.430741
0.436732
0.432711
0.416227
0.392815
0.383195
0.365194
0.360854
0.36531
0.376551
0.39868
0.455321
0.535843
0.603098
0.70034
0.789455
0.831603
0.723891
0.578331
0.55791
0.461641
0.390356
0.387639
0.394998
0.386356
0.371192
0.350551
0.342095
0.332986
0.345242
0.345096
0.342483
0.311961
0.319983
0.363832
0.366441
0.345014
0.296847
0.246208
0.204273
0.150223
0.130321
0.122285
0.135508
0.140064
0.15332
0.276699
0.518799
0.570751
0.334035
0.319308
0.304724
0.358196
0.268001
0.160631
0.407212
0.110132
0.256103
0.196368
0.231294
0.217504
0.22247
0.216507
0.200569
0.180591
0.172235
0.156134
0.144989
0.14522
0.173197
0.19817
0.318212
0.327792
0.379273
0.321637
0.316292
0.226924
0.156204
0.0795407
0.0633312
0.0346103
0.04185
0.0302205
0.0371235
0.0268861
0.0302607
0.0245399
0.0254569
0.028376
0.0281622
0.0341482
0.0353145
0.0421222
0.977477
0.915105
0.855955
0.824246
0.79383
0.791873
0.789735
0.777797
0.751362
0.715924
0.66641
0.633099
0.619211
0.590552
0.577034
0.580072
0.589477
0.613817
0.679517
0.744797
0.802293
0.819572
0.816909
0.76506
0.553008
0.541988
0.619979
0.518885
0.40607
0.38905
0.400997
0.408082
0.394303
0.381744
0.377307
0.370978
0.383582
0.371645
0.351691
0.349844
0.383129
0.388241
0.345046
0.288755
0.261664
0.220839
0.189809
0.140982
0.129572
0.124649
0.133099
0.135554
0.144415
0.251507
0.509088
0.574599
0.391186
0.365759
0.324665
0.29709
0.246993
0.266265
0.437739
0.128932
0.351418
0.242269
0.266196
0.232822
0.239805
0.233054
0.208276
0.196189
0.180569
0.162784
0.165178
0.178145
0.283827
0.351178
0.585535
0.57592
0.62758
0.523302
0.408204
0.229834
0.160203
0.0794774
0.0719114
0.0490871
0.0595352
0.0437926
0.0533298
0.039439
0.0439989
0.035169
0.0378079
0.0352946
0.032962
0.034955
0.0354436
0.0374588
1.78395
1.59217
1.43911
1.32475
1.23216
1.17689
1.112
1.03888
0.982247
0.926402
0.869132
0.84343
0.81549
0.775591
0.764844
0.767449
0.779404
0.814053
0.877419
0.893105
0.883091
0.84759
0.757273
0.547179
0.432866
0.53587
0.738387
0.654933
0.46365
0.396262
0.399752
0.411364
0.41135
0.404846
0.400274
0.401983
0.401274
0.401383
0.384151
0.394757
0.384357
0.314702
0.235781
0.195926
0.195264
0.195557
0.169557
0.141727
0.131883
0.134629
0.143159
0.145496
0.150091
0.242687
0.461475
0.62991
0.529167
0.42623
0.303433
0.279173
0.274641
0.256818
0.277616
0.174191
0.338437
0.300201
0.348655
0.276198
0.276577
0.256857
0.229771
0.207504
0.193232
0.194784
0.227916
0.310641
0.622974
0.814205
1.11703
1.01832
0.893609
0.586265
0.41271
0.223481
0.168743
0.0873735
0.096067
0.0707216
0.0887434
0.0654138
0.0808135
0.0595276
0.0666722
0.0527143
0.0562373
0.0507231
0.0466574
0.0419369
0.039688
0.0394519
2.55332
2.17682
1.88443
1.65382
1.49171
1.37107
1.25978
1.17955
1.1168
1.05499
1.01194
0.983015
0.943454
0.922664
0.924101
0.932422
0.958577
0.975093
0.968869
0.942063
0.868213
0.685589
0.48896
0.357476
0.347531
0.525377
0.889346
0.94813
0.649925
0.447202
0.398882
0.402762
0.412519
0.417294
0.420831
0.427151
0.417621
0.420932
0.393262
0.379458
0.283259
0.183846
0.157156
0.160321
0.175937
0.196641
0.160862
0.149781
0.152375
0.168863
0.174193
0.18123
0.189485
0.250678
0.405236
0.627327
0.666578
0.517296
0.377357
0.324791
0.268775
0.26473
0.357144
0.29816
0.396965
0.326545
0.387972
0.374578
0.344976
0.297644
0.250538
0.245237
0.26336
0.333292
0.545908
0.892398
1.53528
1.53026
1.45239
1.13953
0.83787
0.521118
0.375613
0.205008
0.186298
0.124875
0.154271
0.114778
0.150726
0.109869
0.139954
0.102253
0.11809
0.0918808
0.0994095
0.0858783
0.0808678
0.0660803
0.0611033
0.054056
3.07658
2.44152
2.02659
1.7405
1.56211
1.42317
1.32011
1.25054
1.18412
1.13649
1.10622
1.07689
1.05777
1.05378
1.05605
1.05488
1.04683
1.02022
0.951493
0.77389
0.513279
0.329006
0.253081
0.243805
0.279756
0.489964
0.930675
1.26433
1.17493
0.712069
0.495469
0.410955
0.392533
0.404795
0.414373
0.420038
0.404103
0.395128
0.344208
0.241376
0.151543
0.127335
0.134409
0.158896
0.16535
0.150008
0.15389
0.168363
0.223734
0.245068
0.245127
0.305708
0.356498
0.378153
0.418305
0.584074
0.727752
0.763428
0.57717
0.456561
0.399142
0.318049
0.478934
0.440324
0.402239
0.420974
0.427766
0.447235
0.401126
0.397888
0.417964
0.557695
0.749524
1.20243
1.88173
2.15149
2.06482
1.72564
1.3652
0.856533
0.678607
0.414482
0.380456
0.26336
0.312526
0.234917
0.307874
0.231761
0.31121
0.227952
0.299065
0.221887
0.270142
0.213278
0.243117
0.207472
0.202622
0.176178
0.179196
0.178641
3.12659
2.35752
1.93818
1.69702
1.54646
1.42907
1.34235
1.26987
1.20571
1.16747
1.13991
1.12047
1.114
1.10864
1.09324
1.05321
0.965115
0.806005
0.601333
0.405209
0.271862
0.226043
0.229265
0.254612
0.30606
0.427477
0.835356
1.33977
1.59482
1.70832
1.30434
0.871287
0.546581
0.396897
0.357549
0.339629
0.308152
0.268475
0.206816
0.157999
0.139381
0.136787
0.151908
0.186804
0.171408
0.179569
0.221867
0.273662
0.339051
0.500933
0.593153
0.836084
0.7845
0.629878
0.539708
0.62194
0.741106
0.950358
1.10075
0.905778
1.08832
0.460528
0.861249
0.761054
0.525075
0.72035
0.657385
0.794475
0.895492
1.44644
1.82021
2.84412
2.99105
3.32547
2.89082
2.62438
1.5974
1.40499
0.926708
0.900759
0.716438
0.67637
0.687729
0.665088
0.742469
0.683936
0.802582
0.70487
0.838224
0.705196
0.857199
0.727491
0.874762
0.798511
0.928994
0.897137
0.937642
0.999508
1.15156
1.29335
2.12726
1.70847
1.51869
1.3999
1.29331
1.17853
1.06428
0.963624
0.886711
0.836629
0.80726
0.791605
0.77754
0.753919
0.704967
0.624095
0.520129
0.419413
0.349141
0.32051
0.33063
0.393271
0.540449
0.848631
1.30639
1.59307
1.48937
1.00541
1.19377
2.24689
3.11643
3.46603
3.17083
2.36984
1.47079
0.799056
0.420617
0.232675
0.160127
0.152079
0.162656
0.166519
0.159031
0.183675
0.234403
0.276357
0.349721
0.565538
0.700701
1.17218
1.30559
1.42605
1.09804
1.19453
1.02614
0.831386
0.686614
0.975412
1.68964
1.63813
2.98696
0.826714
2.08949
0.776631
0.615082
1.26271
1.79398
3.63926
4.38388
6.09366
5.66251
5.83249
4.4614
4.06497
2.05179
1.951
0.778927
1.24886
0.515995
1.29268
0.643391
1.5693
0.93202
1.87804
1.23595
2.09518
1.49945
2.21218
1.71773
2.29139
1.99818
2.4553
2.39224
2.87685
2.94416
3.43124
3.60676
4.52095
4.76415
5.68001
0.077269
0.150908
0.311105
1.03035
1.09718
0.618682
0.253815
0.25259
0.342468
0.574431
0.867612
0.94059
0.871982
0.602788
0.388234
0.648046
1.82445
3.22476
4.35429
5.17883
5.45995
4.87915
3.76939
2.21426
1.34569
0.882432
0.696661
0.846255
1.27533
1.42675
1.58008
1.60212
1.55234
1.09199
0.819823
1.25605
1.89243
2.36986
2.82391
2.22562
1.23291
1.05839
0.472775
0.350105
0.321398
0.421482
0.603687
0.802574
0.924256
0.95494
0.955269
0.961937
1.01645
1.16145
1.38468
1.56465
1.57763
1.38282
1.12481
0.901438
0.702797
0.483143
0.303653
0.188534
0.132406
0.0994456
0.0822072
0.0723992
0.0713934
0.0767478
0.084105
0.09462
0.101963
0.105811
0.106547
0.102968
0.0998024
0.0960054
0.091727
0.0860186
0.0780388
0.0675869
0.054942
0.0423856
0.0323213
0.0272643
0.0243986
0.0221743
0.020927
0.0204908
0.0208361
0.0223846
0.0253318
0.0307717
0.0378095
0.0441478
0.134308
0.315395
0.237814
0.114238
0.147899
0.177817
0.170753
0.221241
0.507373
0.502806
0.340156
0.169756
0.130788
0.135577
0.155515
0.197072
0.34887
0.840352
1.2679
1.77558
2.30242
2.51582
2.12591
1.71413
1.14212
0.821822
0.66048
0.613571
0.692716
0.818419
0.880768
0.710723
0.577708
0.608728
0.601823
0.585175
0.675165
1.08723
1.32995
1.37849
1.0859
0.926859
0.798904
0.328457
0.222618
0.22125
0.208722
0.197151
0.222628
0.226899
0.244739
0.305876
0.476355
0.611953
0.652972
0.671073
0.670814
0.665328
0.684304
0.790682
1.08689
1.18249
1.09328
0.702887
0.372426
0.208603
0.134961
0.103387
0.0921253
0.0890272
0.0892151
0.0907847
0.0938471
0.0968053
0.101805
0.10995
0.118012
0.129416
0.139424
0.154357
0.169597
0.1847
0.198748
0.20878
0.213124
0.210864
0.2001
0.182462
0.159411
0.132242
0.100596
0.0680686
0.0429489
0.0294289
0.0257283
0.029666
0.0389691
0.0512174
0.0606774
0.101246
0.189833
0.196742
0.116811
0.13042
0.189733
0.186487
0.132991
0.122089
0.184342
0.284108
0.251061
0.148358
0.111209
0.11105
0.132288
0.264742
0.78363
1.24869
1.35191
1.56283
1.46092
0.873698
0.629212
0.468454
0.37458
0.34695
0.342079
0.34809
0.418009
0.493516
0.570399
0.676681
0.604484
0.434108
0.383493
0.506156
0.951204
1.15519
1.12524
0.773605
0.367155
0.281065
0.227854
0.176634
0.175786
0.174272
0.155736
0.130827
0.158887
0.172047
0.161071
0.140159
0.138213
0.154475
0.181676
0.180742
0.161586
0.148683
0.154349
0.177004
0.239319
0.491768
0.76084
0.750628
0.552069
0.26438
0.144439
0.108981
0.0988574
0.0959045
0.0907251
0.0882956
0.082391
0.0777276
0.0653474
0.0653859
0.0573333
0.0593354
0.0565135
0.0628548
0.0733546
0.0905852
0.116142
0.147376
0.181502
0.207672
0.223251
0.22767
0.225708
0.216246
0.195801
0.169343
0.132836
0.0887597
0.0527166
0.0416485
0.0437103
0.0547833
0.0699567
0.118514
0.165725
0.107197
0.0857107
0.114715
0.199875
0.188465
0.120048
0.0960802
0.112792
0.173068
0.168738
0.130286
0.119603
0.142576
0.257014
0.679679
1.18683
1.2383
1.16926
0.9812
0.58154
0.376477
0.318197
0.295927
0.287398
0.28476
0.282133
0.282306
0.320772
0.375769
0.44711
0.490471
0.499977
0.481295
0.530335
0.784852
0.973532
0.950882
0.619731
0.326681
0.198763
0.184191
0.180882
0.179554
0.195996
0.209644
0.16335
0.115897
0.129916
0.157928
0.159209
0.131749
0.0993531
0.0820037
0.0734919
0.0695882
0.0692251
0.0781054
0.102131
0.118398
0.129084
0.157851
0.277306
0.55938
0.566669
0.426747
0.202328
0.126353
0.100321
0.0910253
0.0753222
0.0649762
0.0497449
0.0423255
0.0334395
0.0321271
0.0295035
0.029297
0.0294604
0.0305464
0.0312471
0.0318852
0.0339027
0.0404016
0.0577928
0.0945631
0.142189
0.182299
0.209146
0.222081
0.22655
0.223772
0.212587
0.186549
0.136446
0.0906102
0.072908
0.0725401
0.0722481
0.109852
0.122255
0.0731324
0.0647918
0.109245
0.197569
0.175223
0.10759
0.0836742
0.0934002
0.130576
0.142551
0.130759
0.142771
0.239459
0.580115
1.08321
1.20973
1.04657
0.718699
0.531136
0.333896
0.285755
0.279374
0.275778
0.277342
0.268802
0.269907
0.263944
0.273422
0.328488
0.417747
0.452403
0.428638
0.459946
0.597004
0.78577
0.821707
0.600985
0.356222
0.205168
0.169876
0.177005
0.177816
0.179151
0.201384
0.233425
0.203848
0.129303
0.124069
0.137208
0.159834
0.145999
0.100496
0.0774253
0.0694359
0.0669383
0.0682849
0.0908176
0.159208
0.189663
0.196126
0.188851
0.195062
0.281696
0.47907
0.467897
0.317989
0.162485
0.10291
0.0758895
0.0571449
0.0456027
0.0360231
0.0319755
0.0300783
0.03025
0.0309926
0.0307464
0.0327067
0.0327424
0.0318974
0.0296571
0.0267375
0.0240989
0.022806
0.0237978
0.031524
0.0598612
0.112079
0.164864
0.197185
0.21595
0.22581
0.226306
0.215345
0.17992
0.138788
0.118035
0.0829469
0.0977389
0.100573
0.0560961
0.0482895
0.105517
0.199953
0.168431
0.0980679
0.0766435
0.0856383
0.121662
0.141477
0.138138
0.187424
0.425553
0.863856
1.09597
1.02528
0.586653
0.421587
0.33826
0.283887
0.273932
0.271438
0.265982
0.271317
0.266812
0.276612
0.262797
0.258854
0.259786
0.405652
0.467562
0.415527
0.431867
0.583421
0.665814
0.536394
0.386074
0.24756
0.17683
0.166053
0.171164
0.164701
0.156839
0.175356
0.20757
0.209612
0.172399
0.144957
0.132848
0.14854
0.148726
0.118477
0.0840886
0.0718778
0.0740101
0.0890763
0.14689
0.221133
0.243194
0.24432
0.240126
0.217346
0.225566
0.338795
0.431725
0.389787
0.220586
0.113984
0.0692651
0.0482467
0.0395335
0.0332651
0.0313284
0.0324313
0.0342684
0.0388823
0.0401545
0.0451601
0.0461674
0.0463625
0.0431853
0.037671
0.0304123
0.0230437
0.017622
0.0154477
0.0165108
0.0249513
0.050818
0.0977852
0.152136
0.193354
0.215232
0.226997
0.224059
0.205581
0.19043
0.132702
0.0981045
0.089692
0.0459998
0.0419856
0.10475
0.204919
0.163114
0.0868392
0.0737044
0.0844765
0.128007
0.138938
0.149511
0.270877
0.600303
0.872389
0.959165
0.54152
0.345358
0.293776
0.270809
0.261502
0.258794
0.260179
0.267362
0.268849
0.269362
0.278091
0.263886
0.2583
0.232478
0.342788
0.477449
0.465104
0.393202
0.49162
0.475162
0.35465
0.269819
0.206104
0.171702
0.167159
0.171223
0.16255
0.150897
0.151218
0.174131
0.179764
0.215563
0.183992
0.146958
0.138393
0.146468
0.129943
0.0930284
0.0813792
0.0796493
0.108806
0.235981
0.292562
0.299265
0.288332
0.279322
0.253224
0.234256
0.259154
0.382785
0.390929
0.300002
0.143866
0.0744202
0.0472487
0.0374322
0.0334521
0.0330217
0.0376521
0.0405181
0.0444205
0.0460945
0.0502166
0.0516486
0.0535369
0.0526918
0.0490224
0.0427361
0.035343
0.0264116
0.0175254
0.0120649
0.0114757
0.0142606
0.0250698
0.0520536
0.0967304
0.153366
0.197173
0.217689
0.22026
0.226792
0.21608
0.116523
0.0853198
0.0407104
0.0410981
0.104691
0.206696
0.157149
0.0826129
0.0738137
0.0906311
0.143502
0.13234
0.172983
0.365881
0.634375
0.79084
0.633783
0.340256
0.276802
0.266882
0.265128
0.252399
0.251535
0.254457
0.26562
0.258873
0.265766
0.265282
0.24681
0.246457
0.226301
0.258055
0.472
0.59064
0.398132
0.423637
0.357742
0.259514
0.213409
0.190399
0.169174
0.165296
0.167542
0.160189
0.15225
0.144053
0.163244
0.166636
0.224842
0.214001
0.163427
0.133943
0.139886
0.136452
0.102616
0.0820444
0.0817135
0.115901
0.273272
0.333773
0.330781
0.312338
0.291578
0.281921
0.246733
0.247757
0.31715
0.376163
0.346868
0.209894
0.0950639
0.0515193
0.0382902
0.035186
0.0372747
0.0422097
0.043875
0.0464651
0.0472793
0.0509462
0.0524239
0.0556568
0.0563269
0.0542568
0.0486363
0.0410079
0.0342695
0.0260497
0.0179334
0.0106799
0.00882341
0.00963571
0.0148331
0.0297458
0.0595293
0.10799
0.17348
0.199741
0.221136
0.248325
0.171694
0.0906006
0.042637
0.0485975
0.109308
0.207637
0.155702
0.0825063
0.0769504
0.108639
0.154175
0.134159
0.210645
0.415658
0.596978
0.641592
0.407163
0.284779
0.275234
0.275309
0.282734
0.253466
0.248588
0.242339
0.244048
0.237942
0.25712
0.26513
0.251072
0.21155
0.223255
0.23211
0.375216
0.632809
0.546162
0.432512
0.315625
0.236068
0.20224
0.190238
0.170888
0.165631
0.170408
0.154642
0.153777
0.137069
0.160967
0.162058
0.226393
0.216815
0.165414
0.139692
0.123862
0.128401
0.111409
0.0905563
0.0926289
0.146451
0.272901
0.337705
0.33383
0.315309
0.283409
0.277387
0.260941
0.248594
0.275696
0.354362
0.352861
0.269173
0.129863
0.062042
0.0412987
0.0392717
0.0416117
0.0445839
0.0446516
0.0459115
0.0468703
0.0498509
0.0515924
0.0557165
0.0575749
0.0586122
0.0556669
0.048876
0.038673
0.031952
0.023092
0.0165881
0.00965958
0.00730814
0.0073856
0.0101119
0.0188245
0.0382869
0.0825923
0.129233
0.183682
0.242975
0.223144
0.115774
0.0513487
0.057383
0.117296
0.206967
0.16281
0.0850883
0.0797284
0.123282
0.159499
0.148349
0.228887
0.41454
0.510835
0.508504
0.323481
0.278046
0.277259
0.292787
0.298456
0.254337
0.242362
0.230321
0.226411
0.238796
0.264167
0.266639
0.25806
0.209054
0.204989
0.216344
0.274302
0.576653
0.721657
0.531614
0.336855
0.246149
0.207999
0.194691
0.176895
0.165264
0.1705
0.162257
0.158583
0.140662
0.146439
0.163858
0.201675
0.201733
0.17376
0.139479
0.120322
0.109196
0.10595
0.0920312
0.103467
0.189604
0.265646
0.317853
0.317073
0.304109
0.274093
0.262828
0.25444
0.244612
0.25392
0.324178
0.346955
0.307896
0.162666
0.0747121
0.0467094
0.0432041
0.0450436
0.0450419
0.0443669
0.0445272
0.0451936
0.0491803
0.050271
0.055557
0.0576112
0.0607822
0.0612812
0.0571519
0.0491638
0.0382102
0.031406
0.0217767
0.0152787
0.00888507
0.00632506
0.0060331