/*--------------------------------*- C++ -*----------------------------------*\
| =========                 |                                                 |
| \\      /  F ield         | OpenFOAM: The Open Source CFD Toolbox           |
|  \\    /   O peration     | Version:  2.4.0                                 |
|   \\  /    A nd           | Web:      www.OpenFOAM.org                      |
|    \\/     M anipulation  |                                                 |
\*---------------------------------------------------------------------------*/
FoamFile
{
    version     2.0;
    format      ascii;
    class       volScalarField;
    location    "0.233";
    object      k;
}
// * * * * * * * * * * * * * * * * * * * * * * * * * * * * * * * * * * * * * //

dimensions      [0 2 -2 0 0 0 0];

internalField   nonuniform List<scalar> 
17600
(
9.27782
7.4171
5.11113
3.94812
3.31598
2.98377
2.65407
2.50785
2.30082
2.21918
2.11092
2.01669
1.98819
1.88101
1.86214
1.79673
1.81014
1.69049
1.87706
1.66988
4.49669
6.21828
5.83006
5.06428
4.38205
3.97617
3.54444
3.35798
3.08612
2.95357
2.83069
2.67315
2.64567
2.50529
2.47219
2.39752
2.37184
2.22218
2.31934
2.287
1.31102
3.30105
3.98089
3.96628
3.74091
3.50419
3.18336
3.04265
2.83511
2.69602
2.62208
2.45616
2.43738
2.33093
2.28557
2.23291
2.19266
2.09444
2.05122
2.1276
0.205731
1.20905
1.90011
2.34882
2.48355
2.53103
2.46277
2.40423
2.31913
2.20853
2.18484
2.07305
2.05543
1.99926
1.94159
1.92349
1.87693
1.84918
1.72063
1.80162
0.0257969
0.287581
0.614979
0.989976
1.21571
1.44296
1.53902
1.59116
1.63217
1.60593
1.62553
1.58538
1.58049
1.57573
1.53576
1.53051
1.51432
1.50609
1.40299
1.40625
0.00272058
0.0522895
0.126815
0.286801
0.399843
0.57045
0.717189
0.791741
0.918366
0.945062
1.01902
1.03649
1.05077
1.09688
1.0917
1.09174
1.11515
1.10959
1.07631
1.02095
0.000273848
0.00769434
0.0206509
0.0548742
0.0893149
0.140409
0.233645
0.274164
0.364393
0.399944
0.473842
0.528944
0.551832
0.616548
0.648434
0.653672
0.707005
0.706737
0.708727
0.661903
4.63913e-05
0.00103211
0.00289121
0.00752369
0.0143615
0.0234895
0.0487618
0.0634059
0.0976814
0.114907
0.145871
0.188982
0.205838
0.247629
0.287014
0.295001
0.340179
0.363855
0.364596
0.337715
2.73736e-05
0.000178403
0.00041998
0.00107788
0.00197703
0.00316433
0.0070764
0.00986043
0.0172869
0.0221845
0.0283806
0.0440904
0.0510176
0.0660244
0.0873454
0.0914011
0.108514
0.138025
0.132977
0.118534
2.69621e-05
9.21515e-05
0.000128962
0.000260939
0.000391127
0.000515084
0.00101009
0.00129692
0.00227847
0.00298913
0.00385596
0.00670254
0.00814551
0.0113612
0.0181466
0.0184687
0.0233526
0.0358669
0.0325953
0.0290258
2.61215e-05
7.53039e-05
8.77756e-05
0.000100494
0.000142941
0.000166366
0.000262462
0.000280058
0.000371976
0.000428807
0.000498886
0.000832996
0.000986239
0.00162551
0.00264898
0.00260804
0.00407184
0.00630097
0.00542557
0.00576124
2.3482e-05
5.09701e-05
5.87549e-05
5.98648e-05
8.71213e-05
0.000103175
0.000128224
0.000132545
0.000139168
0.000138607
0.000145477
0.00016594
0.000193105
0.000312419
0.00038387
0.000475664
0.000785898
0.000944255
0.000925325
0.00106412
2.17752e-05
3.18869e-05
4.51089e-05
5.48426e-05
6.99288e-05
7.25661e-05
7.51695e-05
8.76217e-05
8.97926e-05
9.16346e-05
0.00011007
0.00010593
0.000115818
0.000120219
0.000152064
0.000197917
0.00022462
0.000289453
0.000363912
0.000349649
2.13574e-05
2.76406e-05
4.78101e-05
5.38623e-05
5.29053e-05
5.25493e-05
5.62671e-05
7.26813e-05
7.39959e-05
7.55364e-05
7.82755e-05
7.87715e-05
7.56332e-05
7.70488e-05
0.000137382
0.000136654
0.00014554
0.000234411
0.00020906
0.000201768
2.11849e-05
2.63029e-05
4.50866e-05
4.6876e-05
4.52205e-05
4.60191e-05
5.14879e-05
6.16394e-05
6.18636e-05
6.06758e-05
5.91733e-05
6.74978e-05
6.8587e-05
8.28354e-05
9.39316e-05
9.37464e-05
0.000113657
0.000145285
0.000126675
0.000129669
2.09528e-05
2.5408e-05
3.7404e-05
4.15381e-05
4.26028e-05
4.64803e-05
4.69465e-05
4.94734e-05
5.14657e-05
5.10416e-05
5.19355e-05
5.67641e-05
5.6495e-05
6.86722e-05
6.79725e-05
6.79543e-05
8.83619e-05
8.77062e-05
8.7642e-05
0.000101336
2.08246e-05
2.49267e-05
3.47587e-05
3.94095e-05
4.04534e-05
4.1332e-05
4.20103e-05
4.50341e-05
4.78269e-05
4.68169e-05
4.81622e-05
4.87237e-05
5.27024e-05
5.34821e-05
5.43775e-05
5.91087e-05
6.18964e-05
6.31292e-05
7.04358e-05
9.73921e-05
2.06841e-05
2.45628e-05
3.30997e-05
3.70161e-05
3.72205e-05
3.82273e-05
4.04847e-05
4.33853e-05
4.39555e-05
4.32233e-05
4.24678e-05
4.29495e-05
4.77901e-05
4.93017e-05
5.54212e-05
5.40074e-05
5.5286e-05
6.2436e-05
7.20163e-05
6.92993e-05
2.06406e-05
2.4301e-05
3.23069e-05
3.61825e-05
3.65018e-05
3.66754e-05
3.75238e-05
3.98245e-05
4.24295e-05
4.24856e-05
4.18413e-05
4.25504e-05
4.21709e-05
4.22669e-05
4.52769e-05
4.55977e-05
4.66241e-05
5.59461e-05
5.50015e-05
5.84458e-05
2.06e-05
2.42724e-05
3.15704e-05
3.52376e-05
3.64127e-05
3.73722e-05
3.76494e-05
3.86023e-05
4.16504e-05
4.18295e-05
4.12398e-05
4.12015e-05
4.11041e-05
4.16436e-05
4.33475e-05
4.37213e-05
4.49789e-05
4.67977e-05
4.67396e-05
5.39881e-05
2.0578e-05
2.44306e-05
3.10744e-05
3.54683e-05
3.84628e-05
3.87815e-05
3.78992e-05
3.77281e-05
3.94522e-05
4.17889e-05
4.22169e-05
4.30335e-05
4.28038e-05
4.28705e-05
4.3938e-05
4.46379e-05
4.51816e-05
4.78838e-05
4.91213e-05
5.45088e-05
2.06302e-05
2.44478e-05
3.1967e-05
3.62931e-05
3.95867e-05
3.84866e-05
3.753e-05
3.85138e-05
4.29833e-05
4.38656e-05
4.41724e-05
4.35082e-05
4.33196e-05
4.58898e-05
4.70985e-05
4.75819e-05
4.97115e-05
5.07501e-05
5.1755e-05
7.33152e-05
2.06483e-05
2.48487e-05
3.21034e-05
3.80195e-05
3.94644e-05
3.85429e-05
3.90054e-05
4.37833e-05
4.50477e-05
4.54191e-05
4.54475e-05
4.53258e-05
4.60419e-05
5.04191e-05
4.99685e-05
4.9904e-05
5.23073e-05
5.24864e-05
5.26137e-05
5.48514e-05
2.08253e-05
2.49895e-05
3.38393e-05
4.12869e-05
4.12891e-05
4.04974e-05
4.38218e-05
4.55417e-05
4.61138e-05
4.85522e-05
4.88613e-05
4.93544e-05
5.26966e-05
5.2321e-05
5.17236e-05
5.28304e-05
5.45563e-05
5.4213e-05
5.44189e-05
6.18672e-05
2.09668e-05
2.57107e-05
3.7983e-05
4.39481e-05
4.31183e-05
4.38899e-05
4.73947e-05
4.7864e-05
5.05393e-05
5.47102e-05
5.40927e-05
5.7204e-05
5.72469e-05
5.71975e-05
5.92133e-05
6.08079e-05
6.0333e-05
6.04287e-05
6.12095e-05
7.14247e-05
2.136e-05
2.75261e-05
4.22133e-05
4.32284e-05
4.41594e-05
5.1203e-05
5.23916e-05
5.30201e-05
5.74597e-05
5.77154e-05
5.78415e-05
6.31316e-05
6.46968e-05
7.01624e-05
7.25683e-05
7.08774e-05
6.94044e-05
6.9985e-05
7.1844e-05
8.13823e-05
2.16416e-05
3.02877e-05
3.96257e-05
4.41696e-05
5.56388e-05
5.76504e-05
5.71364e-05
5.84984e-05
6.07539e-05
6.18291e-05
6.97264e-05
8.16152e-05
8.72121e-05
9.03932e-05
8.78172e-05
8.10375e-05
8.17082e-05
8.44797e-05
9.61767e-05
0.000155712
2.17644e-05
2.94278e-05
4.20568e-05
5.61433e-05
6.33673e-05
6.19419e-05
6.19731e-05
6.38624e-05
6.93329e-05
8.9406e-05
0.000109626
0.000118056
0.000118067
0.000114559
0.000104494
0.000108431
0.000123632
0.000162451
0.000235691
0.000415692
2.29135e-05
3.05655e-05
5.52599e-05
6.62495e-05
6.98772e-05
6.97433e-05
7.55187e-05
8.70343e-05
0.000136318
0.000173839
0.000194419
0.000219163
0.000219778
0.000245054
0.000265169
0.000373823
0.000546632
0.000921305
0.00137881
0.0026006
2.31882e-05
3.3726e-05
7.66232e-05
8.37251e-05
9.23072e-05
0.000112558
0.000172322
0.000227867
0.000448851
0.000550853
0.000667189
0.000956268
0.00109692
0.00161696
0.00196032
0.00309484
0.00429076
0.00687979
0.00939661
0.0164449
2.44117e-05
4.95279e-05
0.000141176
0.000176063
0.000247296
0.000494883
0.000882858
0.00127836
0.00261998
0.00342664
0.00443807
0.00712156
0.00859201
0.0127709
0.0151993
0.0220728
0.0276431
0.0396887
0.0491649
0.0782751
2.82772e-05
0.000148742
0.000540122
0.000875387
0.00157873
0.00398838
0.00659785
0.0095823
0.0183795
0.0240629
0.0301989
0.0452715
0.0523869
0.0701332
0.0796636
0.104512
0.121235
0.155215
0.177834
0.239887
5.02399e-05
0.000885181
0.00354449
0.0065518
0.0126553
0.0301064
0.0441759
0.060765
0.102465
0.121412
0.147311
0.190663
0.209258
0.252726
0.275025
0.326781
0.356935
0.409451
0.440908
0.515063
0.000281395
0.00638549
0.0257239
0.0459389
0.0859617
0.163996
0.211281
0.27675
0.37529
0.410043
0.471129
0.531811
0.560155
0.617673
0.643793
0.698379
0.726978
0.769562
0.795917
0.851764
0.00273818
0.0441851
0.153143
0.245034
0.422102
0.580226
0.696668
0.812241
0.922258
0.951659
1.01241
1.04269
1.0645
1.08923
1.10435
1.12635
1.14263
1.1545
1.17294
1.18986
0.0259845
0.267288
0.651437
0.941565
1.25921
1.43137
1.53987
1.60242
1.63157
1.61497
1.61727
1.59439
1.58681
1.56573
1.55893
1.54226
1.53797
1.52214
1.51546
1.50321
0.207472
1.19654
1.93034
2.31015
2.52895
2.51374
2.47709
2.39377
2.31833
2.22109
2.17615
2.07864
2.0531
1.98655
1.96174
1.90619
1.88481
1.83592
1.80301
1.76821
1.32198
3.28674
3.99737
3.95562
3.78419
3.43974
3.24304
3.00319
2.84658
2.69888
2.60514
2.46538
2.42639
2.32014
2.28236
2.19185
2.15378
2.06706
2.01479
1.93813
4.50711
6.20917
5.84195
5.04433
4.43396
3.90445
3.62044
3.29949
3.10904
2.93935
2.82329
2.66681
2.62076
2.48768
2.44307
2.3228
2.26888
2.1464
2.07928
1.9433
9.29105
7.41304
5.12114
3.93063
3.3498
2.93269
2.70784
2.46244
2.32167
2.19301
2.11315
1.99548
1.95614
1.84637
1.80908
1.69847
1.64098
1.52103
1.4492
1.28983
1.22877
0.955274
0.854923
0.721964
0.713097
0.793024
0.759413
0.700008
0.532057
0.555945
0.427973
0.413368
0.298573
0.313767
0.300536
0.277092
0.261646
0.258882
0.237402
0.211389
0.172321
0.147158
0.139326
0.126759
0.11682
0.119173
0.132043
0.171974
0.178495
0.167613
0.120503
0.0549965
0.0237618
0.00994904
0.00495206
0.00324726
0.00210859
0.00172955
0.00173823
0.00178221
0.00202271
0.00315176
0.00723414
0.0215772
0.0676862
0.11037
0.129798
0.131014
0.126122
0.110205
0.0933294
0.0806342
0.0751904
0.0755036
0.0778274
0.0849959
0.0916978
0.0921306
0.0893878
0.0766532
0.0662259
0.0609498
0.0520915
0.0378816
0.026274
0.0203635
0.0185925
0.0186655
0.0202941
0.0274402
0.0452001
0.0621299
0.0784421
0.0814951
0.0802465
0.0806045
0.0840403
0.105195
0.122772
0.123994
0.116121
0.0847165
0.0554749
0.0445669
0.0426014
0.0392555
0.0289675
0.0220721
0.019036
0.0179561
0.0178721
0.0205068
0.0244694
0.0273311
0.0352312
0.0440031
0.0592491
0.113606
0.137628
0.132928
0.131708
0.144128
0.146444
0.132679
0.0851662
0.0481429
0.0312416
0.0242473
0.0219205
0.0215704
0.0221269
0.0248967
0.0275261
0.0290304
0.0306979
0.0320674
0.0315903
0.0270758
0.0250445
0.0247604
0.0233234
0.0203618
0.0195847
0.0197798
0.0225431
0.0371005
0.0519231
0.0572967
0.0555714
0.0541121
0.0556686
0.0649945
0.0894993
0.109318
0.114826
0.109722
0.078479
0.0512826
0.0441457
0.0439315
0.0425409
0.0352472
0.0286386
0.0271474
0.0276271
0.0308975
0.0359293
0.036524
0.0360839
0.0365392
0.0402441
0.0476744
0.0542143
0.0569552
0.0601915
0.0629147
0.0773714
0.0819044
0.0888958
0.0968876
0.0945984
0.0932962
0.0841754
0.0731112
0.0578619
0.044442
0.0350193
0.0298388
0.0295491
0.03336
0.0437595
0.0477492
0.0499208
0.0536368
0.0577998
0.0620103
0.0636873
0.0636518
0.0617597
0.0541284
0.0429543
0.0399481
0.0423288
0.0518813
0.0557015
0.0550081
0.0454676
0.0349229
0.0327538
0.0363967
0.0400787
0.0396392
0.0315804
0.0290923
0.0390433
0.0631576
0.066247
0.0572506
0.075956
0.790885
1.74996
1.28666
1.05404
0.850423
0.759674
0.757035
0.738401
0.850119
0.586737
0.560438
0.52125
0.434125
0.337456
0.329726
0.312943
0.292218
0.303877
0.294632
0.266994
0.22443
0.175269
0.152794
0.141586
0.128611
0.130866
0.144563
0.178637
0.19009
0.182217
0.151046
0.0722086
0.0301438
0.0131088
0.00582615
0.0033675
0.00242161
0.00181462
0.0016891
0.00174153
0.00187683
0.00240723
0.00446145
0.0116775
0.037708
0.0980333
0.128381
0.136631
0.133185
0.118671
0.0927599
0.0759574
0.0651288
0.0617858
0.0623321
0.0648937
0.0717821
0.0855092
0.0896948
0.0886582
0.0809525
0.0706865
0.0656302
0.056794
0.0413812
0.0289097
0.0229183
0.0212587
0.0213456
0.0228029
0.0287492
0.0469392
0.0643037
0.0787992
0.0808804
0.0788757
0.07863
0.0810277
0.103224
0.122653
0.123934
0.113932
0.0786349
0.0526657
0.0441929
0.0425918
0.0384471
0.0286971
0.022129
0.0197746
0.0186928
0.0185894
0.0210684
0.0244926
0.0274563
0.0360655
0.0455812
0.0620023
0.118343
0.140668
0.1359
0.137016
0.152656
0.152279
0.127258
0.0713804
0.0410913
0.0277853
0.0229311
0.0218433
0.0218526
0.0223335
0.023159
0.0241081
0.0250166
0.0268263
0.0289347
0.0287543
0.024838
0.0228599
0.0227041
0.0223035
0.0198411
0.0188291
0.0188954
0.0206793
0.0325737
0.0482682
0.0547807
0.0534407
0.0520423
0.0534359
0.0620492
0.084186
0.104233
0.11141
0.108859
0.0852169
0.0552535
0.0447272
0.0437738
0.0424162
0.0363037
0.0300901
0.0274651
0.0272208
0.029373
0.0364083
0.0377249
0.0375946
0.0382586
0.0424453
0.0504318
0.0562989
0.059206
0.0629825
0.0661109
0.0802424
0.085495
0.0985375
0.10277
0.099766
0.0980816
0.0900314
0.0742115
0.0583771
0.0453916
0.0369783
0.0327514
0.033217
0.0396242
0.0471673
0.0501811
0.0529729
0.0591459
0.0610348
0.0625118
0.0633812
0.0630201
0.0615079
0.05842
0.0497693
0.043016
0.0434283
0.051783
0.056387
0.0568549
0.0566123
0.051613
0.0495209
0.0501102
0.0523671
0.0523638
0.0474088
0.0370236
0.0408
0.0578698
0.0669765
0.0619677
0.0861299
0.57541
1.7755
1.39126
1.12435
0.914686
0.772867
0.765732
0.694915
0.819602
0.756171
0.579772
0.584647
0.507344
0.452697
0.415072
0.371252
0.315906
0.292734
0.266304
0.238806
0.192321
0.164776
0.148987
0.141085
0.146337
0.162762
0.193477
0.199633
0.194064
0.16569
0.0923431
0.0379341
0.0159762
0.00745128
0.00380775
0.00263511
0.00206294
0.00170233
0.00168472
0.00178833
0.00206752
0.00308221
0.00670965
0.0192079
0.0670788
0.120854
0.141984
0.14205
0.131185
0.100962
0.0762363
0.0628472
0.0555885
0.0535578
0.0538818
0.0556261
0.0599285
0.0753763
0.0856828
0.0869594
0.083477
0.0747406
0.0699949
0.0609515
0.0442563
0.031505
0.0255765
0.0238948
0.0238998
0.0250891
0.0302468
0.048139
0.0659022
0.0786763
0.079853
0.0772627
0.0768635
0.0786413
0.0983575
0.12004
0.122265
0.112022
0.0752883
0.0511946
0.0442085
0.0417839
0.0360687
0.0276056
0.0223133
0.0204833
0.0193306
0.0191544
0.0213196
0.0244267
0.0275617
0.037204
0.0473434
0.0654517
0.124239
0.143873
0.139205
0.143664
0.161217
0.157117
0.116856
0.0621056
0.0358961
0.0250841
0.0222566
0.0219734
0.0224197
0.0232154
0.0230739
0.0223389
0.0220171
0.0230245
0.0255702
0.0256408
0.0225313
0.0209664
0.0209604
0.0209529
0.0195054
0.0181869
0.018149
0.0194369
0.0294327
0.0451418
0.0523049
0.0512584
0.0498806
0.0511765
0.0593796
0.0795051
0.0994662
0.108044
0.107426
0.0903946
0.059551
0.0454791
0.0426223
0.0415744
0.0364066
0.03075
0.0275144
0.0265311
0.0282585
0.0365745
0.0387993
0.0387708
0.039322
0.0436107
0.0522532
0.0583223
0.061938
0.065647
0.0690648
0.0848648
0.0927926
0.108849
0.108778
0.106147
0.100971
0.0921286
0.0750695
0.0590587
0.0466373
0.0391684
0.0340211
0.0345926
0.04246
0.0506341
0.0540178
0.0570285
0.0644778
0.0651249
0.0651825
0.0646289
0.063327
0.0605729
0.0580039
0.0552907
0.0477213
0.0457651
0.0507675
0.0586183
0.0582647
0.0594488
0.0616951
0.0632265
0.0635177
0.0638332
0.0636113
0.061117
0.0484641
0.0466904
0.056915
0.067062
0.0634894
0.0893802
0.40033
1.56286
1.30218
1.08318
0.930132
0.753765
0.729166
0.688519
0.695105
0.803501
0.70859
0.673875
0.534686
0.512044
0.476451
0.419594
0.333616
0.265284
0.224613
0.192787
0.171989
0.162016
0.163478
0.173575
0.200696
0.21414
0.211104
0.203148
0.175208
0.101839
0.042967
0.0182755
0.00858398
0.00451398
0.00266761
0.0021346
0.00178804
0.00164959
0.00169504
0.00191037
0.00246657
0.00431499
0.0106516
0.0334264
0.099938
0.142051
0.150281
0.144419
0.116524
0.0842442
0.0670001
0.0566895
0.0511606
0.0497873
0.0499422
0.0507831
0.0533835
0.0644632
0.079847
0.0848109
0.0837699
0.0776749
0.0732687
0.0640934
0.0470781
0.0343195
0.0283277
0.0265458
0.0264516
0.0274558
0.0321316
0.0489721
0.0668167
0.0784078
0.0790829
0.075856
0.0750462
0.0763604
0.0923999
0.115354
0.119576
0.110683
0.0745488
0.0509672
0.0429278
0.0386108
0.0328833
0.0259071
0.0218181
0.0204889
0.019436
0.0192954
0.0216221
0.0245666
0.0279762
0.0387583
0.0494532
0.0693984
0.129333
0.146713
0.142553
0.151801
0.16976
0.161236
0.105665
0.0531194
0.0301863
0.023269
0.0220588
0.0222713
0.0233194
0.0235674
0.0232738
0.0218857
0.0201982
0.0201256
0.022206
0.0225666
0.0204474
0.0192907
0.0194061
0.0197255
0.0191225
0.017703
0.0175132
0.0185383
0.0274494
0.0428447
0.0501847
0.0491411
0.04771
0.0488177
0.0566432
0.0752316
0.0947419
0.104893
0.105379
0.094642
0.0638126
0.0467632
0.0423742
0.0409919
0.0362678
0.0308119
0.0272862
0.0260152
0.0274211
0.0363596
0.0391421
0.0390731
0.0395933
0.0441664
0.05367
0.060858
0.0651406
0.0684031
0.0729922
0.0915405
0.101738
0.115579
0.114345
0.111777
0.103134
0.0935339
0.0750113
0.0607256
0.0474242
0.0408915
0.0347047
0.0362986
0.047803
0.0581294
0.0600022
0.0616031
0.0721418
0.0724927
0.0717561
0.0690282
0.0657855
0.0632994
0.0592339
0.0570243
0.053527
0.048722
0.0504885
0.0590044
0.061797
0.0624494
0.0648392
0.0691309
0.070423
0.070594
0.0714566
0.0704958
0.0642274
0.0526864
0.0575983
0.0677491
0.0639947
0.088575
0.281416
1.24715
1.09098
0.909458
0.803796
0.692541
0.640448
0.634309
0.612256
0.725108
0.721666
0.70668
0.595502
0.536469
0.496701
0.421686
0.339948
0.272786
0.24347
0.222609
0.220234
0.225924
0.24124
0.243869
0.237161
0.226601
0.210707
0.176229
0.100117
0.0435281
0.0200402
0.00946307
0.00512163
0.00296867
0.00203071
0.00179349
0.00164958
0.00163091
0.00174834
0.0021529
0.00320929
0.00645872
0.0172614
0.059506
0.128479
0.156204
0.15679
0.140804
0.0968592
0.0728003
0.0595439
0.05141
0.0474293
0.0472963
0.0476051
0.0482266
0.0498332
0.0565995
0.0745441
0.0824094
0.082796
0.0793206
0.0750985
0.0658885
0.0496428
0.0373722
0.031164
0.0291739
0.0289999
0.0298016
0.0339385
0.049368
0.0673735
0.0772941
0.077741
0.0742899
0.0733231
0.0743139
0.0865432
0.109364
0.115106
0.108198
0.0753897
0.0514166
0.0405718
0.0349562
0.0295964
0.0235584
0.0206519
0.0197895
0.0192391
0.019379
0.0221461
0.0247976
0.0286865
0.040672
0.0517557
0.0738379
0.134961
0.149756
0.146466
0.161188
0.178584
0.163039
0.094373
0.0446251
0.0267216
0.0224051
0.0220277
0.0227749
0.0235755
0.0236148
0.0232192
0.0214517
0.0196467
0.0192937
0.0202174
0.0203836
0.0187175
0.0177142
0.017862
0.0186324
0.018509
0.0173414
0.0170475
0.0180464
0.0263287
0.0411368
0.0483715
0.0472576
0.0455559
0.0464701
0.0536587
0.0709121
0.0902088
0.10148
0.103157
0.0967525
0.0688682
0.0483459
0.0425825
0.0406623
0.0357067
0.0303914
0.0270565
0.025776
0.0268458
0.035537
0.0389692
0.0389866
0.0395709
0.0450082
0.0556368
0.063454
0.0679011
0.0709454
0.0774627
0.0995168
0.111446
0.11865
0.116314
0.114837
0.106326
0.09507
0.0744207
0.0623163
0.0474697
0.042337
0.0364992
0.0413579
0.0578837
0.065396
0.0650641
0.0667905
0.0808421
0.0862207
0.0849448
0.0785677
0.0732941
0.0706072
0.0646474
0.0607703
0.0586862
0.0547438
0.0538523
0.0588767
0.063497
0.0640716
0.0668458
0.0712988
0.0729945
0.0724515
0.0735099
0.0750823
0.0732569
0.0647118
0.0611761
0.0708761
0.0648493
0.0836164
0.200971
0.879332
0.801853
0.676537
0.610993
0.535837
0.502446
0.522167
0.528089
0.577797
0.663012
0.66488
0.628029
0.582998
0.517249
0.427654
0.352829
0.32177
0.319161
0.319529
0.315849
0.299371
0.288201
0.264518
0.237351
0.206694
0.160017
0.0808565
0.0386382
0.019114
0.00998282
0.00533124
0.00328379
0.00217597
0.00171927
0.00164883
0.00159354
0.00162292
0.00188552
0.00263757
0.00452092
0.0100665
0.0281277
0.092992
0.152854
0.167144
0.160093
0.124
0.0862711
0.0663102
0.0553565
0.0490443
0.0456672
0.045265
0.0455331
0.0461957
0.0476689
0.0521129
0.0687302
0.0795043
0.081469
0.0800607
0.0764749
0.0679836
0.052206
0.0405086
0.0340024
0.0314655
0.0311626
0.0318773
0.0355388
0.0495533
0.0676207
0.0762658
0.0766247
0.0727961
0.0716347
0.0722175
0.0803867
0.102366
0.109276
0.104943
0.077037
0.0528731
0.0394974
0.0323673
0.0269589
0.0218819
0.0196649
0.0191967
0.0191888
0.0198271
0.0228622
0.0254337
0.0300539
0.0430105
0.0543418
0.0792117
0.140199
0.152458
0.150455
0.171598
0.187398
0.163247
0.0820475
0.0380246
0.0244115
0.0218764
0.0220476
0.0231084
0.0235696
0.0233659
0.0224887
0.0206929
0.0195275
0.0192673
0.0197963
0.0196393
0.0177299
0.0164431
0.0164811
0.0176239
0.0178089
0.0170963
0.0167811
0.017942
0.0259237
0.039917
0.046867
0.0455725
0.0435667
0.0442752
0.0509645
0.0666569
0.0853954
0.0982609
0.100943
0.0972407
0.0740204
0.0506445
0.0430681
0.0400109
0.0350744
0.0300529
0.0270346
0.0257687
0.0265125
0.0341889
0.0379942
0.0383954
0.039484
0.0461539
0.0575668
0.0662418
0.0704542
0.0740359
0.0832848
0.109088
0.119442
0.12152
0.118886
0.117693
0.109682
0.0954627
0.0749393
0.0628967
0.0465361
0.0440404
0.0392139
0.0510628
0.0650843
0.0703275
0.069712
0.0726488
0.0823916
0.09709
0.100404
0.0959628
0.0902163
0.0886656
0.0841842
0.0736288
0.0690307
0.0650674
0.0590827
0.0606378
0.0636009
0.0659541
0.0674672
0.0716978
0.0737895
0.072645
0.0730689
0.0751643
0.0763247
0.0733848
0.0666844
0.07654
0.0683236
0.0814416
0.150541
0.567871
0.534228
0.466037
0.419642
0.355151
0.33195
0.350546
0.370166
0.442202
0.516165
0.536898
0.572767
0.564735
0.53297
0.466954
0.401818
0.374926
0.357863
0.343798
0.330622
0.300397
0.278186
0.233428
0.180331
0.119606
0.060207
0.0313763
0.0164556
0.00950168
0.00556501
0.00336476
0.0024027
0.00178629
0.00156771
0.00155778
0.00156086
0.00167851
0.00220595
0.00352369
0.00672157
0.0158864
0.0465627
0.131056
0.173612
0.176397
0.158159
0.106071
0.0743161
0.0599034
0.0525911
0.0476419
0.044913
0.0445109
0.044514
0.0447219
0.0458118
0.0493636
0.0634888
0.0760919
0.0797593
0.079589
0.0777733
0.0711791
0.0551831
0.0432747
0.0362858
0.0335039
0.0331296
0.0337247
0.036864
0.0494524
0.0672264
0.0747512
0.0751685
0.0714395
0.0701586
0.0703529
0.0755003
0.0946611
0.102288
0.0997084
0.0770629
0.0539871
0.0395938
0.0313229
0.0256541
0.021196
0.019403
0.0193024
0.0198079
0.0210652
0.0237908
0.0263262
0.0318457
0.045567
0.0571736
0.0852546
0.14485
0.155503
0.154666
0.18292
0.196276
0.15863
0.0712863
0.0336721
0.0230209
0.0214236
0.0219052
0.0231806
0.0231972
0.0223679
0.0208052
0.0202979
0.0196866
0.0196679
0.0199394
0.01957
0.0175495
0.0159563
0.0157655
0.0168539
0.0173271
0.0168881
0.0166847
0.0179819
0.0261335
0.0392073
0.0454877
0.0439987
0.0416316
0.0421127
0.0482629
0.0630824
0.0809875
0.0946317
0.0986475
0.0966686
0.0792272
0.0537918
0.0440667
0.0391132
0.0342614
0.02988
0.0271562
0.025861
0.0261857
0.0325103
0.0364502
0.037472
0.0393882
0.047568
0.0598378
0.0690526
0.0728752
0.0774877
0.0919959
0.119065
0.126036
0.127336
0.124928
0.122732
0.111788
0.0936876
0.0798137
0.0606125
0.0461563
0.0450479
0.0431331
0.0598781
0.068948
0.0743789
0.0736669
0.080672
0.0856263
0.0982005
0.11522
0.119213
0.11722
0.119444
0.118154
0.109897
0.0951223
0.0875445
0.070792
0.0647247
0.0645821
0.065873
0.0694445
0.0720139
0.0745298
0.0731175
0.0723595
0.073186
0.0755708
0.0783702
0.0726356
0.0821712
0.0723822
0.0814388
0.121437
0.292141
0.288545
0.268547
0.244715
0.201995
0.176785
0.185544
0.202064
0.262297
0.338611
0.36576
0.417267
0.466987
0.467408
0.44694
0.395016
0.368328
0.332184
0.299513
0.267881
0.226297
0.181133
0.127295
0.071939
0.0397641
0.0221817
0.0130707
0.00798325
0.00546432
0.00350616
0.00244583
0.0019761
0.00158389
0.00148798
0.00149158
0.00154104
0.00183143
0.00283437
0.00510344
0.0104471
0.0252344
0.0810729
0.162242
0.187404
0.180742
0.140518
0.0953354
0.0687691
0.0565956
0.0511648
0.0468199
0.0444649
0.0439956
0.0436464
0.0435951
0.0442514
0.0471883
0.0595522
0.0730684
0.0784489
0.0795606
0.0792297
0.0741008
0.0578328
0.0459755
0.0384657
0.0352258
0.0347283
0.0350645
0.0376224
0.0489728
0.0660837
0.0731731
0.0734445
0.069787
0.0685039
0.0684684
0.0718941
0.0880199
0.094399
0.0927608
0.0759724
0.0551844
0.0401225
0.0313882
0.0252587
0.0211984
0.0200119
0.0203285
0.0216247
0.0228397
0.0250667
0.0277641
0.0345712
0.0485318
0.0603033
0.0912944
0.149538
0.158042
0.158772
0.19527
0.204803
0.150168
0.0642672
0.0299375
0.0215511
0.0207319
0.0218731
0.0229787
0.022515
0.0204415
0.0198322
0.0200381
0.0198142
0.0199055
0.019978
0.0194109
0.017659
0.0160205
0.015721
0.0166999
0.0171604
0.0167868
0.0166918
0.0183318
0.0267013
0.0389562
0.0444568
0.0427134
0.0398955
0.0401469
0.0459146
0.0596813
0.0768081
0.0915328
0.0966701
0.0960577
0.0847666
0.0578509
0.0455714
0.0391923
0.0338125
0.0298547
0.0272369
0.025869
0.0258327
0.0306566
0.0347355
0.0363581
0.0392684
0.0491236
0.0623925
0.0714009
0.0755211
0.0816013
0.102295
0.127982
0.133684
0.134655
0.130734
0.125711
0.111886
0.092737
0.0830722
0.0579653
0.0498455
0.0472027
0.0473387
0.0637858
0.0711259
0.0781653
0.07511
0.0886816
0.0934409
0.0984258
0.117867
0.146553
0.145295
0.138243
0.134393
0.1301
0.116325
0.108384
0.0971549
0.0739844
0.0669159
0.0662192
0.0696215
0.0727887
0.0743428
0.0748164
0.0730469
0.0731427
0.0733939
0.0798137
0.076254
0.0894829
0.0781841
0.0837754
0.106795
0.108137
0.112294
0.108489
0.0991039
0.0815797
0.0696399
0.0724705
0.0804288
0.113738
0.163487
0.193931
0.247933
0.264073
0.29399
0.298399
0.277964
0.254029
0.212364
0.178381
0.148912
0.110854
0.0764499
0.0461428
0.0254646
0.01486
0.00973183
0.00657689
0.00474107
0.00363073
0.00253378
0.00203534
0.0017569
0.00143688
0.00138789
0.00144679
0.00159805
0.00222601
0.00410558
0.00793357
0.0166501
0.0403864
0.121167
0.188496
0.199105
0.181721
0.123439
0.0837211
0.0632906
0.054424
0.0502402
0.0463744
0.0440787
0.0431949
0.0427112
0.0427626
0.0433803
0.0458204
0.05621
0.0714226
0.077805
0.0803559
0.0806043
0.0751641
0.0592068
0.0477276
0.0401797
0.0364375
0.0356024
0.0356532
0.0379539
0.0487008
0.0646006
0.0716882
0.0718724
0.0681307
0.0665774
0.066298
0.0694744
0.0833756
0.0877018
0.0861304
0.0740756
0.0564069
0.0415273
0.0320615
0.0254105
0.0221669
0.0219242
0.0225381
0.0239354
0.02489
0.0267647
0.0296338
0.0376692
0.0515918
0.0634295
0.0976344
0.154015
0.160469
0.163523
0.208484
0.212923
0.141713
0.0565225
0.0266434
0.0204633
0.0201973
0.0219746
0.0229724
0.02197
0.0199144
0.0196244
0.0199788
0.0198963
0.0199085
0.0193992
0.0182305
0.0179065
0.0167287
0.0159833
0.0168377
0.0169675
0.0166765
0.0167526
0.0191616
0.0274874
0.0388584
0.0432931
0.0413601
0.0382862
0.0383565
0.043961
0.0566411
0.072942
0.0885687
0.0950682
0.0952066
0.089128
0.0647014
0.0484258
0.0397862
0.0338388
0.0299818
0.0273016
0.025811
0.0255786
0.029098
0.0330753
0.0350597
0.039146
0.0506328
0.0648917
0.0739096
0.078516
0.086543
0.114015
0.137266
0.141318
0.140818
0.13254
0.125903
0.110288
0.0921263
0.0834874
0.0569751
0.0547719
0.0499676
0.0553935
0.0676888
0.075736
0.0796553
0.0746555
0.0893146
0.0953094
0.102158
0.113305
0.158849
0.16545
0.15743
0.14307
0.134631
0.120435
0.111197
0.106264
0.0929236
0.0721452
0.0667471
0.0684856
0.0728689
0.0739536
0.0758266
0.0759574
0.0744471
0.0732495
0.0806765
0.0782587
0.0926959
0.0826089
0.0845502
0.0992007
0.030043
0.0361623
0.0357552
0.0327329
0.026833
0.0225209
0.0233401
0.0261006
0.0399885
0.0602849
0.076407
0.112004
0.118267
0.130561
0.132076
0.123565
0.109961
0.088938
0.0756435
0.0615952
0.0436601
0.0285083
0.0159417
0.00919087
0.00670891
0.00547395
0.00417678
0.00336103
0.00273636
0.00210072
0.00185059
0.00152805
0.00130637
0.00133497
0.0014579
0.00181216
0.00314072
0.00681619
0.0128042
0.0261466
0.0636485
0.163319
0.20889
0.208092
0.16636
0.111186
0.0779299
0.0602596
0.0529582
0.0493333
0.0458508
0.0433814
0.0427901
0.0418828
0.0418759
0.0425596
0.0449466
0.0557959
0.070894
0.0777932
0.0811952
0.0810857
0.0751601
0.0602766
0.0484911
0.0413675
0.0375983
0.0362283
0.0360124
0.0381386
0.0483407
0.0627975
0.069913
0.0700942
0.0666049
0.0645119
0.0642539
0.0684584
0.0804437
0.0830452
0.081901
0.0734581
0.0573872
0.0433908
0.0332794
0.0272289
0.0252505
0.0250701
0.0255159
0.0266051
0.0274616
0.0290835
0.0320061
0.0410718
0.0548468
0.0667318
0.104435
0.1578
0.162773
0.168397
0.221162
0.22112
0.132593
0.0512029
0.0252047
0.0202384
0.0201881
0.0225789
0.0234011
0.0219349
0.0198577
0.0196095
0.0201301
0.0203445
0.0201379
0.0186769
0.0179042
0.0178587
0.0173269
0.0169089
0.0172743
0.0170628
0.0166387
0.0168603
0.0203429
0.0283695
0.0388242
0.0422839
0.0401558
0.0367171
0.036624
0.042074
0.0549003
0.0688652
0.0851557
0.0939522
0.0950632
0.0916701
0.0740359
0.0543478
0.041708
0.034277
0.0303483
0.0275087
0.0259048
0.0255416
0.027819
0.0314122
0.0337442
0.0390954
0.0521697
0.0674508
0.0765216
0.0817485
0.0926848
0.126826
0.14762
0.148646
0.145905
0.132685
0.125286
0.107341
0.0926139
0.0811678
0.0543362
0.054786
0.0500526
0.0646349
0.0689076
0.0806165
0.0748813
0.071091
0.081663
0.0959544
0.106059
0.112921
0.153344
0.168099
0.164218
0.147356
0.132941
0.119707
0.109799
0.106418
0.101498
0.082079
0.0682431
0.0680018
0.0712348
0.0726532
0.0752119
0.0771676
0.0770547
0.0740891
0.0819244
0.0796447
0.094643
0.0850718
0.0838164
0.0934108
0.00724885
0.00943865
0.00925468
0.0083592
0.00675568
0.00568484
0.0060161
0.00722454
0.0115507
0.0161592
0.020287
0.033387
0.0371061
0.0407367
0.0472272
0.0458804
0.0423565
0.0356006
0.0307162
0.0229757
0.0149151
0.00898827
0.00547921
0.00458174
0.00444318
0.0040409
0.00319118
0.00270408
0.00230848
0.00191018
0.00162449
0.00132291
0.00124043
0.00131833
0.00158036
0.00237116
0.00522741
0.0116613
0.0201868
0.0392799
0.10354
0.19733
0.226088
0.212209
0.150779
0.098984
0.0718285
0.0580331
0.0520771
0.0485988
0.0449721
0.0430012
0.0422102
0.0417942
0.0418216
0.0422578
0.0446097
0.0560649
0.0697159
0.0782492
0.0813327
0.0809749
0.0757596
0.0620857
0.0500799
0.0430892
0.0387036
0.0366466
0.0362337
0.0380823
0.047745
0.0612981
0.0684903
0.0688071
0.0656133
0.0625426
0.0623539
0.0680337
0.0789401
0.0805221
0.0797836
0.0749277
0.0633379
0.049948
0.0390902
0.0338288
0.0314467
0.0297449
0.0296006
0.0299099
0.0304014
0.0316537
0.0345492
0.0451489
0.0584977
0.0702355
0.110949
0.161076
0.16467
0.173597
0.234082
0.228968
0.12416
0.0470989
0.0247169
0.0204434
0.0206208
0.0238036
0.0241631
0.0220269
0.0198655
0.0196458
0.0205851
0.0215465
0.0209858
0.0182584
0.0174876
0.0174884
0.0172409
0.0172821
0.0174411
0.0170039
0.0165818
0.017194
0.0222405
0.0295017
0.0386723
0.0413179
0.0389897
0.0354285
0.0351704
0.0406238
0.0529008
0.0663728
0.0816659
0.0929593
0.0954507
0.0935416
0.08285
0.0632431
0.0460359
0.0356281
0.031036
0.0281239
0.0263207
0.0258894