/*--------------------------------*- C++ -*----------------------------------*\
| =========                 |                                                 |
| \\      /  F ield         | OpenFOAM: The Open Source CFD Toolbox           |
|  \\    /   O peration     | Version:  2.4.0                                 |
|   \\  /    A nd           | Web:      www.OpenFOAM.org                      |
|    \\/     M anipulation  |                                                 |
\*---------------------------------------------------------------------------*/
FoamFile
{
    version     2.0;
    format      ascii;
    class       volScalarField;
    location    "0.233";
    object      k_0;
}
// * * * * * * * * * * * * * * * * * * * * * * * * * * * * * * * * * * * * * //

dimensions      [0 2 -2 0 0 0 0];

internalField   nonuniform List<scalar> 
17600
(
9.27782
7.41741
5.11092
3.94806
3.31609
2.98373
2.6537
2.50851
2.30007
2.21998
2.10985
2.01734
1.98822
1.87942
1.86208
1.79571
1.80723
1.68405
1.87365
1.66392
4.49667
6.21851
5.82996
5.06423
4.38216
3.97616
3.54381
3.35918
3.0847
2.95507
2.82939
2.67386
2.64623
2.50339
2.47295
2.3975
2.37016
2.2201
2.32287
2.28373
1.31103
3.30118
3.98095
3.96621
3.74086
3.50443
3.18248
3.04392
2.83355
2.69764
2.6215
2.45602
2.43813
2.32935
2.28663
2.23328
2.19205
2.09286
2.05633
2.13206
0.205734
1.20906
1.90041
2.34863
2.48332
2.53142
2.46191
2.40513
2.3179
2.20972
2.18526
2.07226
2.05596
1.99825
1.94237
1.92434
1.87685
1.84814
1.72451
1.81084
0.0257975
0.287444
0.61546
0.989882
1.21506
1.44402
1.53783
1.59182
1.63167
1.60622
1.6259
1.58475
1.58129
1.5759
1.53516
1.53124
1.5151
1.50551
1.40549
1.41441
0.00272055
0.0522245
0.126859
0.287063
0.398892
0.571684
0.716266
0.791912
0.918139
0.944987
1.01972
1.03586
1.05125
1.09745
1.09105
1.09217
1.11625
1.10953
1.07751
1.02578
0.000273864
0.00767637
0.0206481
0.0550163
0.088772
0.141204
0.233441
0.273865
0.36412
0.399743
0.474737
0.528263
0.551648
0.618
0.647284
0.653737
0.708295
0.706947
0.710385
0.666318
4.64137e-05
0.00103101
0.00289524
0.00756775
0.0142535
0.0234839
0.0488207
0.0633827
0.0975555
0.114642
0.146415
0.188771
0.205704
0.248656
0.2861
0.294734
0.341753
0.363638
0.365028
0.34166
2.73979e-05
0.000177639
0.000422053
0.00109361
0.00196261
0.00315385
0.00707458
0.00984407
0.0172736
0.0220295
0.028429
0.0442148
0.0510411
0.0665408
0.0869002
0.0911153
0.109812
0.137923
0.132112
0.121662
2.70012e-05
9.22226e-05
0.000129891
0.000266155
0.000389581
0.000513557
0.00100264
0.00128592
0.00227367
0.00295753
0.00385382
0.00673119
0.008166
0.0115869
0.0179519
0.0183095
0.0239989
0.0357472
0.0322087
0.0301745
2.60938e-05
7.52283e-05
8.68433e-05
0.000100391
0.000144221
0.000167662
0.000260524
0.00027669
0.000368676
0.000422243
0.00049604
0.000834722
0.000991646
0.00167143
0.00259768
0.00258282
0.00421791
0.00621965
0.00537847
0.00604366
2.34059e-05
5.05459e-05
5.74228e-05
5.9536e-05
8.94008e-05
0.000104613
0.000127842
0.000131451
0.000137192
0.000136906
0.000144128
0.000165797
0.000195463
0.000315666
0.000378129
0.000474228
0.000800174
0.000926014
0.000922591
0.00108664
2.17588e-05
3.17165e-05
4.50678e-05
5.56551e-05
7.01505e-05
7.23739e-05
7.49721e-05
8.76068e-05
8.94676e-05
9.17121e-05
0.000109409
0.00010507
0.000114517
0.000119644
0.000156468
0.000196647
0.000225619
0.00029484
0.000354578
0.000345852
2.13715e-05
2.77038e-05
4.82242e-05
5.35201e-05
5.24931e-05
5.22921e-05
5.69945e-05
7.31464e-05
7.38536e-05
7.54381e-05
7.79681e-05
7.82078e-05
7.50269e-05
7.64632e-05
0.000136711
0.000136804
0.00014668
0.000234291
0.000204667
0.000200531
2.11955e-05
2.63381e-05
4.51648e-05
4.64559e-05
4.48889e-05
4.60528e-05
5.23766e-05
6.16755e-05
6.16081e-05
6.01752e-05
5.89892e-05
6.6954e-05
6.82821e-05
8.4232e-05
9.2342e-05
9.28088e-05
0.000116916
0.000142207
0.000125278
0.000128881
2.09523e-05
2.54149e-05
3.74586e-05
4.14092e-05
4.2703e-05
4.65061e-05
4.69159e-05
4.95628e-05
5.13038e-05
5.09258e-05
5.20914e-05
5.66713e-05
5.62814e-05
6.78154e-05
6.74573e-05
6.81677e-05
8.85284e-05
8.74647e-05
8.79614e-05
0.000101414
2.08242e-05
2.4925e-05
3.48659e-05
3.93507e-05
4.04336e-05
4.12826e-05
4.20049e-05
4.52903e-05
4.76809e-05
4.66729e-05
4.80359e-05
4.86199e-05
5.28273e-05
5.34283e-05
5.42368e-05
5.90579e-05
6.19091e-05
6.31904e-05
7.09228e-05
9.63303e-05
2.06836e-05
2.45513e-05
3.31621e-05
3.69124e-05
3.71625e-05
3.8355e-05
4.06964e-05
4.33958e-05
4.3841e-05
4.30584e-05
4.24001e-05
4.29217e-05
4.77199e-05
4.92536e-05
5.53699e-05
5.3804e-05
5.51267e-05
6.33933e-05
7.14952e-05
6.89769e-05
2.06395e-05
2.42924e-05
3.23763e-05
3.61208e-05
3.64218e-05
3.66365e-05
3.76532e-05
4.00594e-05
4.24137e-05
4.23796e-05
4.17024e-05
4.24828e-05
4.21022e-05
4.22539e-05
4.51879e-05
4.56436e-05
4.66443e-05
5.61674e-05
5.47252e-05
5.81804e-05
2.06002e-05
2.42636e-05
3.15701e-05
3.52385e-05
3.64089e-05
3.73138e-05
3.76455e-05
3.87997e-05
4.17325e-05
4.1781e-05
4.1152e-05
4.1122e-05
4.10194e-05
4.16228e-05
4.34004e-05
4.37498e-05
4.51022e-05
4.66081e-05
4.67313e-05
5.3647e-05
2.05791e-05
2.43943e-05
3.10839e-05
3.56314e-05
3.8508e-05
3.86368e-05
3.77422e-05
3.7691e-05
3.96988e-05
4.18867e-05
4.22626e-05
4.28824e-05
4.26976e-05
4.28593e-05
4.38681e-05
4.46291e-05
4.51557e-05
4.81173e-05
4.92391e-05
5.5341e-05
2.06324e-05
2.44389e-05
3.19923e-05
3.64763e-05
3.9454e-05
3.82685e-05
3.74302e-05
3.8719e-05
4.32137e-05
4.39095e-05
4.41327e-05
4.33519e-05
4.31541e-05
4.5921e-05
4.70531e-05
4.74861e-05
4.98064e-05
5.0745e-05
5.17904e-05
7.42428e-05
2.06507e-05
2.48023e-05
3.22243e-05
3.81128e-05
3.92644e-05
3.83617e-05
3.90778e-05
4.40791e-05
4.50719e-05
4.53763e-05
4.53603e-05
4.52512e-05
4.62139e-05
5.03552e-05
4.98708e-05
4.98578e-05
5.23158e-05
5.24242e-05
5.25495e-05
5.49653e-05
2.08264e-05
2.49769e-05
3.40611e-05
4.12073e-05
4.11026e-05
4.03854e-05
4.396e-05
4.55633e-05
4.61592e-05
4.85936e-05
4.88538e-05
4.94101e-05
5.27245e-05
5.21753e-05
5.16488e-05
5.29451e-05
5.44634e-05
5.41422e-05
5.43925e-05
6.2295e-05
2.09679e-05
2.57268e-05
3.81725e-05
4.37211e-05
4.2915e-05
4.39058e-05
4.73982e-05
4.78772e-05
5.08604e-05
5.46078e-05
5.40016e-05
5.71998e-05
5.71241e-05
5.711e-05
5.93501e-05
6.07005e-05
6.01953e-05
6.03508e-05
6.12647e-05
7.20181e-05
2.13628e-05
2.76352e-05
4.2028e-05
4.29246e-05
4.41852e-05
5.14856e-05
5.23428e-05
5.29992e-05
5.74663e-05
5.758e-05
5.77951e-05
6.33148e-05
6.48828e-05
7.03767e-05
7.22954e-05
7.04562e-05
6.91734e-05
6.98816e-05
7.19815e-05
8.20474e-05
2.16407e-05
3.03015e-05
3.92427e-05
4.4594e-05
5.59001e-05
5.74311e-05
5.69231e-05
5.84291e-05
6.0579e-05
6.18875e-05
7.07331e-05
8.213e-05
8.73376e-05
8.98885e-05
8.67344e-05
8.0434e-05
8.12937e-05
8.45363e-05
9.71448e-05
0.000156777
2.17669e-05
2.93475e-05
4.22266e-05
5.65609e-05
6.30679e-05
6.15358e-05
6.16689e-05
6.37862e-05
6.98853e-05
9.14524e-05
0.000110235
0.000117381
0.000117049
0.000112427
0.000103284
0.000107788
0.000123785
0.000164499
0.000238106
0.000414907
2.29194e-05
3.05694e-05
5.55793e-05
6.61028e-05
6.92403e-05
6.93548e-05
7.56999e-05
8.81119e-05
0.000139959
0.000174485
0.000193588
0.00021566
0.000215996
0.000240676
0.000261924
0.000377034
0.000549662
0.000925876
0.0013787
0.00257931
2.31895e-05
3.37551e-05
7.65943e-05
8.32252e-05
9.19818e-05
0.000113191
0.000173735
0.000230615
0.000454522
0.00054863
0.000663138
0.000945473
0.00108646
0.00160263
0.00194958
0.00311079
0.0042977
0.00688036
0.00937928
0.0163454
2.44165e-05
4.9583e-05
0.000140406
0.000175229
0.000247747
0.00050406
0.000879365
0.00128193
0.0026332
0.00340373
0.0044233
0.00710048
0.00857037
0.0127224
0.0151562
0.022115
0.0276415
0.0396568
0.0490939
0.0779219
2.82832e-05
0.000148842
0.000537122
0.000873134
0.00158535
0.00402883
0.00654393
0.00958842
0.018469
0.0239247
0.0301571
0.0452555
0.0523164
0.0699814
0.0795639
0.104659
0.121221
0.155059
0.177615
0.23926
5.02371e-05
0.000885428
0.00353249
0.00654226
0.0127134
0.0302553
0.0438202
0.0609079
0.102811
0.120959
0.147485
0.190337
0.208986
0.252548
0.27498
0.327138
0.356678
0.409146
0.440494
0.514246
0.000281353
0.00638777
0.025681
0.045884
0.0866708
0.163991
0.210189
0.277887
0.375131
0.409308
0.471316
0.53129
0.559961
0.617569
0.643897
0.698731
0.726406
0.769122
0.795431
0.851004
0.00273795
0.044209
0.15301
0.24474
0.423268
0.579769
0.695991
0.813407
0.921708
0.951019
1.01256
1.0423
1.06446
1.0892
1.1045
1.12645
1.14205
1.15404
1.17258
1.18914
0.0259831
0.267482
0.651007
0.941548
1.26021
1.43067
1.53977
1.60295
1.63109
1.61477
1.6172
1.59419
1.5868
1.56576
1.55897
1.54223
1.53767
1.52171
1.51509
1.50276
0.207467
1.19663
1.92995
2.31047
2.52919
2.51347
2.47706
2.39368
2.31813
2.22141
2.1759
2.07856
2.05325
1.9865
1.9617
1.90611
1.88464
1.8357
1.80275
1.76799
1.32196
3.28675
3.9972
3.95585
3.7841
3.4395
3.24374
3.00213
2.84691
2.69934
2.60438
2.46577
2.42667
2.31999
2.2823
2.19182
2.1539
2.06724
2.0149
1.93861
4.50712
6.20909
5.84186
5.04487
4.43321
3.90457
3.62122
3.29802
3.10979
2.9398
2.82244
2.66739
2.62106
2.48767
2.44322
2.32298
2.26964
2.14745
2.08038
1.94499
9.29105
7.41292
5.12108
3.93111
3.34912
2.9328
2.70845
2.46148
2.32211
2.19339
2.11279
1.99585
1.95643
1.84689
1.80982
1.69927
1.6429
1.52393
1.45269
1.2942
1.19369
0.934512
0.840332
0.71743
0.719297
0.796531
0.757594
0.670593
0.523414
0.547862
0.432129
0.397288
0.296446
0.314406
0.302396
0.27429
0.26001
0.255219
0.230838
0.202409
0.163956
0.143264
0.136439
0.123505
0.114112
0.116678
0.131406
0.173684
0.177465
0.164815
0.11327
0.0509593
0.0217819
0.00913504
0.00472082
0.00315075
0.00203356
0.00169611
0.00170677
0.00174868
0.00202202
0.00326046
0.00774769
0.0238271
0.0716143
0.113249
0.130714
0.131014
0.125686
0.109069
0.0932813
0.0812408
0.0766734
0.0772028
0.0797588
0.0873302
0.0925614
0.0923012
0.0881443
0.0744817
0.0656073
0.0602917
0.0500893
0.0355111
0.0247888
0.0199086
0.0187371
0.0190293
0.0213354
0.031157
0.0496872
0.0663482
0.0803768
0.0818064
0.0803556
0.0808673
0.0850531
0.110914
0.12588
0.125546
0.110404
0.0745106
0.0498359
0.042585
0.0412055
0.0362952
0.0264856
0.0207811
0.0184981
0.0177792
0.0178664
0.0216086
0.0252675
0.028677
0.0372654
0.0461003
0.0649009
0.12085
0.138081
0.131695
0.131342
0.143731
0.144801
0.129948
0.0828799
0.0474263
0.0305865
0.0238228
0.0218209
0.021679
0.0230445
0.0267073
0.0289717
0.0301825
0.0315115
0.03229
0.0305742
0.0258547
0.0244641
0.0241746
0.0222041
0.0197191
0.0193029
0.0196294
0.0241308
0.0403153
0.0529981
0.056449
0.054094
0.0531299
0.0555214
0.0683245
0.0931298
0.111451
0.115576
0.108913
0.0746575
0.0499499
0.0439174
0.0438999
0.0420445
0.0342022
0.0285817
0.0273012
0.0278509
0.0319361
0.0365037
0.0366793
0.0361865
0.0368024
0.0412568
0.0483673
0.0542834
0.0566299
0.0591894
0.061843
0.0780752
0.0827839
0.0876799
0.0948839
0.0929391
0.0908344
0.0809538
0.0701222
0.054861
0.0420387
0.0334769
0.0292756
0.0293162
0.0348181
0.0449995
0.0486058
0.0506688
0.0545583
0.0590807
0.0629896
0.0641626
0.0638613
0.0608572
0.05188
0.0419478
0.040219
0.0442609
0.0537012
0.0562936
0.0549135
0.0476975
0.0406808
0.0398773
0.0437713
0.0467278
0.0461778
0.0369544
0.0326788
0.0420344
0.0636094
0.0666197
0.0577917
0.0761849
0.779884
1.73681
1.27616
1.04496
0.841348
0.766064
0.757791
0.745812
0.841242
0.571918
0.554176
0.527523
0.424253
0.350357
0.338653
0.315957
0.294614
0.30171
0.287736
0.255987
0.210807
0.167047
0.149428
0.137751
0.125692
0.128218
0.142532
0.179105
0.190027
0.18129
0.146015
0.0669613
0.0283164
0.0123557
0.00548229
0.00326313
0.00232184
0.00175187
0.00165851
0.00171852
0.00186096
0.00244586
0.00468699
0.0126385
0.0424928
0.101176
0.129486
0.136824
0.132936
0.117016
0.0920755
0.0761913
0.0658571
0.0631191
0.0638175
0.0666068
0.0749816
0.0873008
0.090089
0.0885079
0.0791491
0.0702879
0.0651264
0.0545104
0.0386695
0.0273344
0.0224971
0.0214231
0.0217009
0.0237166
0.0320445
0.0515894
0.0682046
0.080351
0.0810359
0.0787958
0.0787762
0.0819171
0.107318
0.124487
0.12436
0.107516
0.0698413
0.0482453
0.0425654
0.0409658
0.0349352
0.0261718
0.0209093
0.0192195
0.0184582
0.018547
0.0220458
0.0252676
0.0288997
0.0382437
0.047775
0.0681786
0.125355
0.14101
0.134867
0.137079
0.151937
0.150399
0.123344
0.0700298
0.0401362
0.0275054
0.0228727
0.0217715
0.0217769
0.0225099
0.0237717
0.0250951
0.0260801
0.0278131
0.0292243
0.0279956
0.0236951
0.022346
0.0222747
0.0215919
0.0191498
0.0185619
0.0187247
0.0218317
0.0360938
0.0497549
0.0540211
0.0520029
0.0509979
0.0531796
0.0650773
0.0877037
0.106656
0.112345
0.108657
0.0813676
0.0534299
0.0440539
0.0431832
0.0417439
0.0350112
0.0296777
0.0273607
0.0272311
0.0306479
0.0372573
0.0379285
0.0377575
0.0386398
0.0437375
0.0512795
0.0564831
0.058801
0.0620485
0.0653846
0.0807201
0.0852225
0.0956231
0.0998255
0.0970954
0.0953235
0.086132
0.0706873
0.0553049
0.0432134
0.0356502
0.0324064
0.0333208
0.041062
0.0479704
0.0507241
0.053781
0.059613
0.0615026
0.0630998
0.0637807
0.063206
0.0613162
0.0574968
0.048341
0.0429555
0.0443849
0.0543364
0.0573289
0.0572276
0.0582768
0.0561874
0.0563053
0.0571275
0.0585896
0.0581894
0.0529842
0.0408745
0.044057
0.0594813
0.0668403
0.0614095
0.0851993
0.566994
1.77553
1.38789
1.11952
0.904876
0.779021
0.766908
0.696647
0.822408
0.73451
0.577708
0.585757
0.50625
0.46464
0.430691
0.374912
0.310668
0.284751
0.258997
0.228136
0.183205
0.160448
0.145343
0.138416
0.143902
0.160909
0.193481
0.200426
0.194176
0.164507
0.0877862
0.0353566
0.0149803
0.00696183
0.00359084
0.00253316
0.00198143
0.00166013
0.00165588
0.00176956
0.00206859
0.00317022
0.00715177
0.0209017
0.0719127
0.123875
0.142448
0.141463
0.129514
0.0985907
0.0749268
0.0625089
0.0559426
0.0544248
0.0548837
0.0569043
0.0621378
0.078589
0.086671
0.0870599
0.0822159
0.0744201
0.0694798
0.0583211
0.0414365
0.0299941
0.0251815
0.024035
0.0241965
0.0258849
0.0332085
0.0527806
0.0695115
0.0798435
0.0799153
0.0770964
0.0769601
0.0793736
0.101401
0.120458
0.121558
0.105875
0.0680793
0.047659
0.042218
0.0388497
0.0327117
0.0252795
0.0212699
0.0199158
0.0190777
0.0191123
0.022229
0.025202
0.0291463
0.03954
0.0496589
0.0723633
0.130916
0.144107
0.13836
0.144405
0.159988
0.154554
0.112857
0.0601499
0.0354117
0.0250059
0.0222073
0.0219154
0.0223094
0.0230809
0.023051
0.0225048
0.0225607
0.0240782
0.025888
0.025157
0.0215909
0.0205769
0.0206461
0.0205427
0.018865
0.0179311
0.0179784
0.0203859
0.0330854
0.0469586
0.0516785
0.0498788
0.0488068
0.0507939
0.0620957
0.0828816
0.102053
0.109183
0.10752
0.0868357
0.0572033
0.0445348
0.0420109
0.0407524
0.0350133
0.0300283
0.0271716
0.0264912
0.0295948
0.0378389
0.0391232
0.0390668
0.0399037
0.045335
0.0534742
0.058539
0.0613521
0.0647549
0.0684784
0.0851863
0.0917388
0.105666
0.105566
0.102769
0.0976885
0.0891007
0.0714684
0.0560507
0.0446488
0.037783
0.0336535
0.0349189
0.0440891
0.0511823
0.0541468
0.0579167
0.0645138
0.0649276
0.0649957
0.0645245
0.0631863
0.0602724
0.057952
0.0548201
0.0472678
0.0464989
0.0529941
0.0600205
0.0591145
0.0605199
0.0646606
0.067431
0.0680638
0.0681182
0.0681917
0.0656663
0.0530575
0.0499589
0.0592736
0.0668918
0.0622378
0.087434
0.394298
1.5701
1.30616
1.08644
0.924039
0.754984
0.733846
0.690603
0.69918
0.796321
0.712578
0.661837
0.527992
0.5098
0.474581
0.408186
0.316653
0.251088
0.215216
0.185248
0.167511
0.158773
0.160477
0.171371
0.198357
0.214128
0.211916
0.204371
0.175277
0.0989654
0.0411933
0.0173404
0.00820757
0.00430572
0.0025985
0.00211435
0.00175217
0.00162152
0.00167659
0.00189842
0.00248436
0.00447519
0.0114581
0.0362491
0.105673
0.143511
0.150272
0.14331
0.113604
0.0826701
0.0659358
0.0562574
0.0514106
0.0503952
0.0506111
0.0516256
0.0546757
0.0679715
0.0817661
0.0853562
0.0832919
0.0771859
0.0725572
0.0612235
0.0443289
0.0329016
0.0279299
0.0266501
0.0267045
0.0281952
0.0347492
0.053407
0.0701756
0.0792699
0.0790604
0.0755667
0.0750419
0.0768617
0.0945797
0.115176
0.117907
0.104801
0.0680252
0.0475295
0.0397199
0.0353355
0.0298274
0.0239218
0.020907
0.0199875
0.019244
0.0193369
0.0225243
0.0253427
0.029678
0.0412215
0.0518679
0.0770308
0.135623
0.146817
0.14193
0.152964
0.168151
0.157404
0.100693
0.0517068
0.0301298
0.0232553
0.0220245
0.0222214
0.0232688
0.0234839
0.0231447
0.0215457
0.020278
0.0205457
0.0226044
0.0223738
0.0197273
0.0189732
0.0192077
0.0194356
0.0186251
0.0174664
0.0173829
0.0194304
0.0311207
0.0448569
0.0496736
0.0477995
0.0466221
0.0482962
0.0589762
0.0782839
0.0974248
0.106175
0.105994
0.0915908
0.0610474
0.0454092
0.0418548
0.0401924
0.0347717
0.0298822
0.0268419
0.0260035
0.0287831
0.0379449
0.0395476
0.0394715
0.0403141
0.0462505
0.0551869
0.0611607
0.0645308
0.0677415
0.0724686
0.0918463
0.100082
0.113349
0.112073
0.108895
0.0993826
0.0901809
0.0715138
0.0578755
0.045444
0.0393203
0.0342907
0.0369528
0.0495238
0.0583034
0.0598285
0.0622398
0.0716547
0.0713375
0.0703433
0.0680026
0.0652316
0.0626227
0.0591308
0.0571589
0.053466
0.0492062
0.0520782
0.0607333
0.0633596
0.0634534
0.0667507
0.0712022
0.0723407
0.0724028
0.0737525
0.0734376
0.0677726
0.0559882
0.0601403
0.0683316
0.0627583
0.0862939
0.275822
1.2564
1.101
0.91561
0.808485
0.695802
0.647956
0.636015
0.614145
0.722115
0.720415
0.699698
0.584849
0.529782
0.486011
0.402703
0.32363
0.260885
0.237429
0.217126
0.215729
0.22176
0.2379
0.241518
0.236183
0.226999
0.212015
0.17815
0.0996479
0.0429267
0.0194769
0.00910689
0.00490204
0.00281904
0.00196732
0.00175686
0.00161473
0.00160811
0.00173891
0.0021553
0.00327089
0.00676458
0.0186369
0.0653793
0.132148
0.156838
0.155892
0.136753
0.0937269
0.071347
0.0587217
0.0511116
0.0479251
0.0479256
0.0482228
0.0488387
0.0507088
0.059886
0.0769025
0.0830557
0.0826444
0.0788078
0.0743016
0.0631878
0.0471259
0.0360463
0.0307312
0.0292175
0.0292069
0.0304559
0.0362126
0.053534
0.0704304
0.0779238
0.0776509
0.0739407
0.0732817
0.0746151
0.0879522
0.108513
0.112412
0.102683
0.0694001
0.0479896
0.0373177
0.0319723
0.0269951
0.0219917
0.020012
0.0194743
0.0191719
0.0196343
0.0230171
0.0255844
0.0305438
0.0432191
0.054261
0.082354
0.1405
0.149734
0.146099
0.162638
0.176771
0.15891
0.0891569
0.0435893
0.0265607
0.0224276
0.0220368
0.0227744
0.0236184
0.023617
0.0231158
0.0210493
0.0194752
0.0193331
0.0203455
0.0202657
0.0181378
0.0174383
0.0177352
0.018436
0.0181764
0.0171135
0.0169947
0.0190755
0.0298831
0.0431727
0.0479032
0.0459512
0.0444737
0.0459063
0.0556934
0.0736052
0.092875
0.102998
0.103872
0.0949657
0.0652489
0.0466721
0.0419232
0.0395788
0.0341706
0.0293595
0.0266536
0.0258233
0.0281224
0.037327
0.0394506
0.0394445
0.0403974
0.0474976
0.0573609
0.0638521
0.0674502
0.0705466
0.0774256
0.0997295
0.109409
0.117361
0.11516
0.112953
0.102349
0.0914348
0.0709001
0.0595773
0.0454364
0.0407504
0.0361094
0.0429666
0.0592523
0.0653961
0.0649351
0.0673717
0.0826642
0.0845302
0.0821668
0.0760228
0.0719945
0.0693113
0.0640093
0.0610905
0.0594383
0.0557323
0.0553704
0.0605448
0.0645901
0.0654782
0.0682687
0.0723663
0.0736182
0.0727192
0.074174
0.0762777
0.0751826
0.0677292
0.0636041
0.0727922
0.0644372
0.0813999
0.196025
0.890305
0.81254
0.682499
0.618209
0.542857
0.512821
0.531085
0.53282
0.579088
0.658124
0.657181
0.620964
0.576383
0.504234
0.409574
0.345777
0.323592
0.32313
0.322154
0.314496
0.298679
0.286536
0.261402
0.23718
0.208875
0.163377
0.0826024
0.0389548
0.0190405
0.00972011
0.0051335
0.00315168
0.00208391
0.00168626
0.00162035
0.00156551
0.00160626
0.00189348
0.00266988
0.00466085
0.0106119
0.030751
0.0992793
0.155215
0.166984
0.158496
0.119874
0.083664
0.0648384
0.0544061
0.0485727
0.0457998
0.0456716
0.0460664
0.0467848
0.0484171
0.0542905
0.0715442
0.0803935
0.0815087
0.0798117
0.0759187
0.0657719
0.0499557
0.0391881
0.0334366
0.0314213
0.0313251
0.0324729
0.037439
0.0535237
0.0704138
0.0768064
0.0765096
0.0724348
0.0715625
0.0723308
0.0812213
0.101154
0.10585
0.0995579
0.0704947
0.0490239
0.0363841
0.029852
0.0249204
0.0207627
0.0193054
0.0191176
0.019283
0.0203618
0.0236194
0.0261709
0.0322554
0.045508
0.0569491
0.0881208
0.145424
0.152292
0.150426
0.173395
0.185386
0.157169
0.0776482
0.0368433
0.0242465
0.0219779
0.0221703
0.0232303
0.0236501
0.0234612
0.0224438
0.0204412
0.0193495
0.0192169
0.0197281
0.0194129
0.017177
0.0162149
0.0163602
0.0175893
0.0176228
0.016925
0.0168065
0.0190988
0.0292893
0.0419093
0.0463847
0.04423
0.0424915
0.0436457
0.0528316
0.0691253
0.0880657
0.0999575
0.101738
0.0964936
0.0701318
0.0487608
0.0422614
0.0385747
0.0335919
0.029135
0.0266643
0.0258354
0.0275781
0.0360943
0.0386337
0.0389907
0.0405694
0.0490186
0.0595473
0.0667162
0.0701914
0.0737268
0.0836845
0.108691
0.117603
0.11972
0.117163
0.115659
0.105812
0.0920162
0.0713728
0.0600951
0.0446176
0.0426432
0.0389553
0.0532278
0.0663711
0.0705015
0.0697319
0.0732255
0.0854359
0.0977354
0.0982339
0.0922651
0.0880711
0.0870604
0.0821598
0.0735582
0.0698973
0.066242
0.0602984
0.0620712
0.0643629
0.0673997
0.0689093
0.0727315
0.0740129
0.0725537
0.0727618
0.0755135
0.0770347
0.0749576
0.068871
0.0780223
0.0689346
0.0809051
0.147231
0.578242
0.544262
0.469915
0.421477
0.357854
0.341394
0.361084
0.380405
0.449534
0.507778
0.528041
0.566164
0.557865
0.525233
0.458186
0.397173
0.375282
0.359387
0.346304
0.330794
0.300609
0.278006
0.231654
0.18273
0.123222
0.0622258
0.0323035
0.0167129
0.00948071
0.00541208
0.00325447
0.00230603
0.00171818
0.0015389
0.00153353
0.00154292
0.00167785
0.00223731
0.00360264
0.00696427
0.0168635
0.0510369
0.136576
0.174325
0.175086
0.153404
0.101397
0.0725795
0.0592648
0.0519241
0.0472773
0.0450126
0.0447981
0.0448283
0.0451126
0.0464457
0.0508876
0.0663201
0.0772279
0.0799992
0.0796515
0.0777754
0.0691891
0.0529631
0.0418611
0.0356151
0.0333983
0.03325
0.0342462
0.0384186
0.0531573
0.0696406
0.0752178
0.074998
0.0710291
0.0700591
0.0703713
0.0761219
0.0935635
0.0983455
0.0940014
0.0704803
0.0498296
0.0364839
0.0291311
0.0240266
0.0203959
0.0192766
0.0194192
0.0201511
0.0216379
0.024384
0.0270461
0.0343142
0.0480154
0.0598572
0.0946036
0.149845
0.155313
0.154943
0.18505
0.194067
0.151086
0.0674238
0.0325654
0.0229844
0.0216504
0.0221377
0.0233308
0.0233751
0.0226046
0.0209629
0.0201472
0.0195265
0.0195394
0.0197706
0.0192447
0.0170295
0.0157696
0.0157048
0.0169295
0.0172344
0.0168042
0.0167616
0.0193923
0.02936
0.0410789
0.0449969
0.0426331
0.0405654
0.0414561
0.0500205
0.0653916
0.0836299
0.096523
0.0996299
0.0968055
0.0759556
0.0517866
0.042987
0.0376165
0.0329037
0.0290991
0.0267977
0.0258928
0.0269357
0.0344272
0.0372794
0.0382725
0.0409306
0.0507713
0.0620246
0.0696806
0.0728034
0.0774166
0.0929987
0.118168
0.123999
0.124571
0.122057
0.119536
0.10811
0.0905604
0.0760994
0.0576484
0.0445994
0.0441334
0.0431811
0.0625445
0.0703061
0.0745598
0.0740414
0.080752
0.0869894
0.101695
0.114973
0.116049
0.114703
0.118864
0.117497
0.108299
0.0948962
0.0875423
0.0712465
0.0653982
0.0651817
0.0671636
0.0712864
0.0732327
0.0749883
0.0732564
0.0722575
0.0731238
0.0758487
0.0792857
0.074035
0.0833498
0.073176
0.0817013
0.120181
0.30439
0.299585
0.272819
0.244891
0.200212
0.181074
0.192035
0.209951
0.273344
0.334672
0.360441
0.408797
0.456086
0.458035
0.438204
0.387533
0.364159
0.327988
0.298088
0.266627
0.225741
0.180672
0.127901
0.0730073
0.0408113
0.0229686
0.013417
0.00808027
0.00540545
0.00338538
0.00235932
0.00189176
0.00153203
0.00146479
0.00147243
0.00152985
0.00185731
0.00290059
0.00524081
0.0108314
0.0267982
0.0875059
0.165822
0.187567
0.179087
0.136088
0.091784
0.0666512
0.0557812
0.0505684
0.0464507
0.0445524
0.0441914
0.0438586
0.0438618
0.0447587
0.0483734
0.062315
0.074603
0.0790835
0.0800524
0.0795923
0.0719479
0.0553936
0.0444379
0.0376713
0.0350277
0.0347678
0.0354437
0.0390093
0.0523779
0.0682696
0.0736583
0.0732741
0.0693225
0.0682781
0.0683464
0.0727785
0.0872889
0.0906421
0.0872524
0.0694868
0.0510269
0.0370801
0.0292549
0.0238106
0.0207003
0.0201704
0.0207945
0.0220085
0.0233104
0.0255966
0.0284933
0.0371914
0.0509887
0.0631016
0.101143
0.154038
0.157921
0.15947
0.197444
0.202371
0.141745
0.0603557
0.0291525
0.0217197
0.0211041
0.022114
0.0231139
0.022686
0.0206163
0.0198513
0.0199645
0.019657
0.0197667
0.0197827
0.0189996
0.0172387
0.0158517
0.0156976
0.0167709
0.0170883
0.0167431
0.0167983
0.0200534
0.0297304
0.0405895
0.0438837
0.0412596
0.0388478
0.0395142
0.0476958
0.0617447
0.0794053
0.0937361
0.0979031
0.0965826
0.0823713
0.0561737
0.0443843
0.0376712
0.0326076
0.029153
0.0268496
0.0258265
0.0263189
0.0325173
0.0357439
0.03738
0.0414835
0.0526394
0.0647997
0.0721721
0.0756291
0.0818276
0.103726
0.127314
0.131296
0.131838
0.128398
0.122933
0.108478
0.0898718
0.0797012
0.0548085
0.0486289
0.0467062
0.0476206
0.0665121
0.0724226
0.0781489
0.0757241
0.0899585
0.0939568
0.101186
0.124075
0.143935
0.141627
0.136613
0.133906
0.129655
0.115008
0.107545
0.0964188
0.0736234
0.0669038
0.0666542
0.0711824
0.0736783
0.0748918
0.075822
0.073704
0.0732485
0.0737266
0.080514
0.0771168
0.0900173
0.0788013
0.0840247
0.10613
0.115158
0.118195
0.111116
0.099217
0.0802203
0.0709242
0.0745695
0.0839337
0.121748
0.16224
0.19316
0.239629
0.252895
0.282595
0.286175
0.267086
0.245948
0.205743
0.17638
0.147267
0.110356
0.0761182
0.0456151
0.0255894
0.0153056
0.010011
0.00664103
0.00473774
0.00354874
0.00243042
0.00196046
0.00168215
0.00139916
0.00137456
0.00143468
0.00160099
0.00228284
0.00418619
0.0081186
0.0172379
0.0432727
0.128527
0.19089
0.198354
0.177515
0.117297
0.0809683
0.0619662
0.053876
0.0497965
0.0460483
0.0441159
0.0433364
0.0429178
0.04301
0.0438209
0.0467605
0.0591734
0.0733421
0.0787776
0.0810168
0.0807859
0.0725919
0.0568595
0.0460801
0.0392645
0.0361489
0.0355881
0.0359157
0.0393311
0.0517656
0.06655
0.0721856
0.0716926
0.0676055
0.0662225
0.0661301
0.0709795
0.0829763
0.0848849
0.0818711
0.0690373
0.0523467
0.0385858
0.0299122
0.0242645
0.0223143
0.0223632
0.0231161
0.0242807
0.0252243
0.027236
0.0303817
0.0405081
0.0540459
0.0663484
0.107853
0.158124
0.160482
0.164761
0.210471
0.210213
0.131849
0.0529424
0.0260354
0.0206273
0.0204147
0.0221252
0.0229143
0.0217789
0.0197451
0.0195188
0.0198522
0.0197154
0.0196799
0.0190503
0.0179517
0.0176569
0.0165841
0.01598
0.0168439
0.0169008
0.0166603
0.0169528
0.0212301
0.0300656
0.040153
0.0426055
0.0398248
0.0372267
0.037724
0.045748
0.058737
0.0753539
0.0908467
0.0965796
0.0963084
0.0884496
0.0630612
0.0472888
0.0382898
0.0326638
0.0293377
0.0269032
0.0257569
0.025922
0.0308299
0.0341777
0.036294
0.0421175
0.0544692
0.0675472
0.074726
0.0788232
0.0874111
0.115879
0.135974
0.13887
0.138231
0.130393
0.123294
0.107407
0.0894004
0.0803167
0.0540162
0.0536608
0.04964
0.0569013
0.0698101
0.0760118
0.0796725
0.0754721
0.0913725
0.0971695
0.104269
0.1204
0.163381
0.165394
0.153656
0.14086
0.133151
0.119178
0.110651
0.105574
0.0915409
0.0713198
0.0668834
0.0693601
0.0733474
0.074528
0.0766875
0.077043
0.0749366
0.0738146
0.0812847
0.0788071
0.0924118
0.0824291
0.0841714
0.0984337
0.03268
0.0383365
0.0363891
0.0324185
0.0260519
0.0227467
0.0238716
0.0271007
0.0433588
0.0594472
0.0764137
0.105529
0.109964
0.121675
0.123971
0.116716
0.105288
0.0866664
0.0754951
0.0612644
0.0433187
0.0280311
0.0156089
0.00923078
0.006891
0.00547382
0.00411232
0.00331508
0.00264929
0.00200679
0.00178013
0.00147031
0.00128735
0.00132756
0.00145773
0.00183421
0.00327958
0.00687721
0.0130643
0.027219
0.068953
0.169689
0.209288
0.205556
0.160056
0.107233
0.0751205
0.0588386
0.0524398
0.0489929
0.0456273
0.0434681
0.0429155
0.0420682
0.0421152
0.0429819
0.0459001
0.0589222
0.072632
0.0789207
0.0815999
0.0809504
0.072774
0.058195
0.0469622
0.0405232
0.0372604
0.0361831
0.0362308
0.03948
0.0510389
0.0645702
0.0704381
0.0700654
0.0661335
0.0641604
0.0641477
0.0704359
0.0802992
0.0813507
0.0794063
0.0695574
0.0540209
0.0409323
0.0316902
0.0274459
0.0259611
0.0256362
0.0260237
0.0268849
0.0277079
0.0294743
0.0327612
0.0439999
0.0571893
0.0697549
0.115049
0.161517
0.162678
0.170616
0.223408
0.216915
0.122151
0.047669
0.0241214
0.0200248
0.0201722
0.022439
0.0231267
0.0215813
0.0196376
0.0194668
0.0199363
0.0200278
0.0197668
0.0182855
0.0176554
0.0176486
0.01715
0.0168698
0.0171607
0.0169399
0.016618
0.0171696
0.0225953
0.0306917
0.0397594
0.041538
0.0385454
0.0356816
0.0360241
0.0440014
0.0568052
0.07124
0.0875398
0.0958057
0.0963614
0.0920302
0.073145
0.0536058
0.0402867
0.0331672
0.0297293
0.0271269
0.0258411
0.0258366
0.0292978
0.0325493
0.0352184
0.0427075
0.0564647
0.0703098
0.0774659
0.0823186
0.0946226
0.12841
0.145716
0.145888
0.142702
0.130498
0.123111
0.104401
0.0901431
0.077488
0.0521835
0.0536747
0.04983
0.0665093
0.0707383
0.0804006
0.0750674
0.0717902
0.0848239
0.0982707
0.107511
0.11731
0.162489
0.170524
0.164284
0.144207
0.130959
0.118322
0.109353
0.106439
0.100614
0.079574
0.0680732
0.0685944
0.0715991
0.0731094
0.0760906
0.0779019
0.0775798
0.0747827
0.0829974
0.0805536
0.094516
0.0848497
0.083097
0.0924909
0.00820547
0.00978368
0.00926622
0.00808669
0.0064806
0.0056947
0.0061642
0.00751548
0.0117826
0.0152444
0.0192689
0.0312348
0.0339737
0.03801
0.0448015
0.0437411
0.0407237
0.0350272
0.0304222
0.0224534
0.0144399
0.00869284
0.00542138
0.00460073
0.00443174
0.00390324
0.00308519
0.00264571
0.00222067
0.00182088
0.00156662
0.00128813
0.00122964
0.00131512
0.00159148
0.00242657
0.00559583
0.0116729
0.0205571
0.0409409
0.110389
0.20114
0.225309
0.209021
0.143391
0.0953753
0.0699233
0.0570053
0.051706
0.0483245
0.0448733
0.0430876
0.0424013
0.0420119
0.0420542
0.0426216
0.0455851
0.0586381
0.0713099
0.0792568
0.0815564
0.0807475
0.0740641
0.0603646
0.0487932
0.0422255
0.038228
0.0365314
0.0364393
0.039187
0.0501954
0.0630096
0.0690535
0.0690083
0.0652515
0.0622041
0.0622575
0.0700562
0.0789409
0.0794769
0.0783216
0.0735497
0.0638443
0.0505732
0.0400259
0.0348629
0.0321429
0.030151
0.0297962
0.0300221
0.0304542
0.0319398
0.0353729
0.0482073
0.0607351
0.0734432
0.121865
0.164314
0.16458
0.177152
0.23627
0.223238
0.112992
0.0433543
0.0235265
0.0200525
0.0203715
0.0233941
0.0237088
0.0215836
0.0196235
0.0194977
0.0204666
0.0210582
0.0204067
0.0178362
0.0172536
0.017304
0.0170813
0.0171224
0.0172174
0.016746
0.0165096
0.0178783
0.0244323
0.0315257
0.0392908
0.0405286
0.0373419
0.034437
0.0346067
0.0426191
0.054834
0.0685638
0.0840683
0.0951437
0.0970084
0.0945386
0.0825968
0.062675
0.0449328
0.0347207
0.0306764
0.0279179
0.0263461
0.0262503
0.0285129