/*--------------------------------*- C++ -*----------------------------------*\
| =========                 |                                                 |
| \\      /  F ield         | OpenFOAM: The Open Source CFD Toolbox           |
|  \\    /   O peration     | Version:  2.4.0                                 |
|   \\  /    A nd           | Web:      www.OpenFOAM.org                      |
|    \\/     M anipulation  |                                                 |
\*---------------------------------------------------------------------------*/
FoamFile
{
    version     2.0;
    format      ascii;
    class       volVectorField;
    location    "0.233";
    object      UMean;
}
// * * * * * * * * * * * * * * * * * * * * * * * * * * * * * * * * * * * * * //

dimensions      [0 1 -1 0 0 0 0];

internalField   nonuniform List<vector> 
17600
(
(5.33925 0.308185 0)
(3.02021 0.0607111 0)
(2.24008 -0.00148175 0)
(1.8954 -0.00353065 0)
(1.75795 -0.00131535 0)
(1.66472 -0.000167883 0)
(1.59953 -1.77981e-07 0)
(1.53958 -2.57146e-05 0)
(1.50509 -0.000151447 0)
(1.46774 -3.225e-05 0)
(1.4512 -9.63357e-05 0)
(1.42258 9.40186e-05 0)
(1.41385 -9.08244e-05 0)
(1.38931 6.83867e-05 0)
(1.38905 -0.000235672 0)
(1.37289 -0.000141398 0)
(1.38571 -0.000542858 0)
(1.38945 -0.000432505 0)
(1.44323 -0.000739799 0)
(1.38252 -0.032965 0)
(8.59579 0.867308 0)
(6.97622 0.380617 0)
(5.86007 0.120294 0)
(5.11232 0.0500486 0)
(4.72012 0.0273445 0)
(4.44941 0.0196273 0)
(4.27027 0.0152311 0)
(4.10452 0.0116322 0)
(4.00781 0.00857452 0)
(3.89884 0.00682978 0)
(3.85116 0.00533556 0)
(3.76767 0.00502031 0)
(3.74445 0.00380413 0)
(3.6722 0.00365378 0)
(3.67034 0.00165375 0)
(3.61536 0.00130045 0)
(3.64133 -0.0020715 0)
(3.62486 -0.00526078 0)
(3.7119 -0.00381125 0)
(3.75548 -0.0861975 0)
(9.84386 1.01575 0)
(9.35281 0.571837 0)
(8.51105 0.237869 0)
(7.68389 0.127788 0)
(7.15309 0.0794118 0)
(6.75724 0.0554142 0)
(6.49719 0.0420534 0)
(6.2495 0.0322096 0)
(6.10602 0.0245691 0)
(5.93606 0.0194019 0)
(5.86417 0.0155313 0)
(5.73204 0.0137006 0)
(5.69902 0.0111176 0)
(5.5836 0.00985402 0)
(5.582 0.00607269 0)
(5.48798 0.00406564 0)
(5.52589 -0.00195955 0)
(5.47132 -0.00897295 0)
(5.5936 -0.0173055 0)
(5.62044 -0.109959 0)
(10.1456 0.941613 0)
(10.5582 0.661172 0)
(10.2759 0.325007 0)
(9.6595 0.20616 0)
(9.1603 0.143465 0)
(8.72338 0.103212 0)
(8.43233 0.0785291 0)
(8.13162 0.0603538 0)
(7.96277 0.0468199 0)
(7.74571 0.0370434 0)
(7.65928 0.0299588 0)
(7.48642 0.0260893 0)
(7.44853 0.0214012 0)
(7.29612 0.0191856 0)
(7.29604 0.012372 0)
(7.16714 0.00990889 0)
(7.214 -0.00159425 0)
(7.11988 -0.00929213 0)
(7.26423 -0.0351276 0)
(7.24165 -0.120083 0)
(10.065 0.800954 0)
(10.9011 0.662082 0)
(11.1343 0.350627 0)
(10.8856 0.251177 0)
(10.5978 0.197388 0)
(10.2398 0.151395 0)
(9.99697 0.118395 0)
(9.69309 0.0922744 0)
(9.53412 0.0728624 0)
(9.29495 0.0579008 0)
(9.21125 0.0475184 0)
(9.01257 0.0406228 0)
(8.97826 0.0343834 0)
(8.80022 0.0295683 0)
(8.80454 0.0218523 0)
(8.65191 0.0148775 0)
(8.69913 0.0047878 0)
(8.59068 -0.0146478 0)
(8.70519 -0.0360136 0)
(8.69926 -0.156864 0)
(9.98562 0.687575 0)
(10.8337 0.629268 0)
(11.309 0.328074 0)
(11.3449 0.247025 0)
(11.3352 0.217664 0)
(11.1597 0.181972 0)
(11.0617 0.149753 0)
(10.8302 0.120785 0)
(10.7344 0.0978341 0)
(10.5149 0.0792576 0)
(10.4601 0.0654708 0)
(10.2624 0.0566683 0)
(10.243 0.0472335 0)
(10.0616 0.0425274 0)
(10.0712 0.0293097 0)
(9.91665 0.0255205 0)
(9.95757 0.0032485 0)
(9.85123 -0.00415676 0)
(9.93548 -0.056377 0)
(9.92972 -0.156905 0)
(9.9765 0.598608 0)
(10.704 0.596571 0)
(11.2314 0.299028 0)
(11.3512 0.217013 0)
(11.501 0.204329 0)
(11.4721 0.184503 0)
(11.5428 0.16005 0)
(11.4353 0.134015 0)
(11.457 0.112607 0)
(11.3106 0.093799 0)
(11.3244 0.0797972 0)
(11.1652 0.0695175 0)
(11.1853 0.0599884 0)
(11.0246 0.052588 0)
(11.0564 0.0402681 0)
(10.9122 0.0301589 0)
(10.9646 0.0121226 0)
(10.8576 -0.00875424 0)
(10.9396 -0.0537332 0)
(10.909 -0.158674 0)
(9.99413 0.519845 0)
(10.5999 0.560746 0)
(11.1335 0.281267 0)
(11.2592 0.190161 0)
(11.4498 0.181919 0)
(11.4585 0.172491 0)
(11.6086 0.154052 0)
(11.5811 0.131356 0)
(11.6987 0.11196 0)
(11.6394 0.0960597 0)
(11.735 0.0829786 0)
(11.6506 0.0751993 0)
(11.7285 0.0644273 0)
(11.6269 0.0601993 0)
(11.6938 0.0432655 0)
(11.5918 0.03859 0)
(11.6633 0.00903574 0)
(11.5787 0.000717735 0)
(11.6666 -0.0712739 0)
(11.6119 -0.115666 0)
(10.0117 0.449284 0)
(10.5218 0.517253 0)
(11.0478 0.267813 0)
(11.1863 0.167584 0)
(11.3777 0.159904 0)
(11.3928 0.158251 0)
(11.5445 0.143174 0)
(11.5456 0.1228 0)
(11.6803 0.103207 0)
(11.673 0.0895314 0)
(11.7959 0.0769501 0)
(11.7792 0.0717488 0)
(11.8867 0.0609646 0)
(11.8593 0.0590702 0)
(11.9501 0.0411441 0)
(11.9193 0.038505 0)
(12.0025 0.00535936 0)
(11.977 0.000232902 0)
(12.0598 -0.0844 0)
(12.0229 -0.111376 0)
(10.0115 0.386473 0)
(10.471 0.470049 0)
(10.9604 0.255994 0)
(11.1403 0.146195 0)
(11.3071 0.139381 0)
(11.3504 0.143584 0)
(11.468 0.132211 0)
(11.5017 0.113334 0)
(11.6043 0.0936579 0)
(11.6379 0.0805858 0)
(11.7323 0.0688087 0)
(11.7651 0.0641157 0)
(11.8493 0.0544272 0)
(11.8801 0.052028 0)
(11.9525 0.0361727 0)
(11.9861 0.0298755 0)
(12.0515 0.00268881 0)
(12.0899 -0.0183547 0)
(12.148 -0.0831735 0)
(12.1425 -0.176636 0)
(9.99631 0.328471 0)
(10.4341 0.42397 0)
(10.878 0.243451 0)
(11.1017 0.127469 0)
(11.2446 0.118747 0)
(11.3161 0.130469 0)
(11.4036 0.119862 0)
(11.4628 0.105605 0)
(11.539 0.0832191 0)
(11.5973 0.0736132 0)
(11.6688 0.0592876 0)
(11.7237 0.0585639 0)
(11.7896 0.0455114 0)
(11.8395 0.0469808 0)
(11.8999 0.0269089 0)
(11.9499 0.0245733 0)
(12.0081 -0.00837851 0)
(12.0603 -0.0278193 0)
(12.1094 -0.102051 0)
(12.0967 -0.212151 0)
(9.98584 0.278164 0)
(10.3944 0.376329 0)
(10.8117 0.23149 0)
(11.0558 0.108394 0)
(11.1971 0.100708 0)
(11.2761 0.115243 0)
(11.3552 0.109054 0)
(11.4182 0.0952528 0)
(11.4905 0.0752231 0)
(11.5517 0.0641833 0)
(11.6217 0.05308 0)
(11.6772 0.0500956 0)
(11.7428 0.040784 0)
(11.7911 0.0379344 0)
(11.8538 0.0227372 0)
(11.8984 0.0129418 0)
(11.9614 -0.0131702 0)
(12.0056 -0.0460447 0)
(12.054 -0.114437 0)
(12.0229 -0.238341 0)
(9.98474 0.232964 0)
(10.3547 0.329754 0)
(10.7574 0.214689 0)
(11.0087 0.0926466 0)
(11.1585 0.082838 0)
(11.237 0.100987 0)
(11.3146 0.0964841 0)
(11.3754 0.0854086 0)
(11.4488 0.0656938 0)
(11.509 0.0560497 0)
(11.5804 0.0453032 0)
(11.6354 0.0432648 0)
(11.7007 0.0339741 0)
(11.7492 0.0310748 0)
(11.8106 0.0159819 0)
(11.8544 0.00472194 0)
(11.9168 -0.0219443 0)
(11.9573 -0.0598054 0)
(12.0008 -0.128725 0)
(11.9598 -0.256079 0)
(9.98413 0.193482 0)
(10.3238 0.283481 0)
(10.7084 0.192763 0)
(10.9689 0.0788087 0)
(11.1227 0.0688913 0)
(11.2058 0.0857875 0)
(11.2763 0.0854473 0)
(11.3407 0.073723 0)
(11.4091 0.0580532 0)
(11.4746 0.0464555 0)
(11.5411 0.0395444 0)
(11.6021 0.0347836 0)
(11.6611 0.0291699 0)
(11.7163 0.0222958 0)
(11.7691 0.0109434 0)
(11.8213 -0.00535624 0)
(11.8733 -0.0298337 0)
(11.9198 -0.0726737 0)
(11.9503 -0.142415 0)
(11.9113 -0.268865 0)
(9.9823 0.156257 0)
(10.2994 0.240287 0)
(10.6668 0.164316 0)
(10.9356 0.0685026 0)
(11.0933 0.0550801 0)
(11.1804 0.0728093 0)
(11.2454 0.0721855 0)
(11.3117 0.0637349 0)
(11.3773 0.0481879 0)
(11.446 0.0393872 0)
(11.5106 0.0314107 0)
(11.5738 0.0289648 0)
(11.6312 0.0213398 0)
(11.6872 0.0165844 0)
(11.7384 0.00268436 0)
(11.7922 -0.0125872 0)
(11.8395 -0.0396571 0)
(11.8868 -0.083617 0)
(11.9095 -0.154342 0)
(11.8692 -0.284892 0)
(9.98382 0.123805 0)
(10.2764 0.195553 0)
(10.636 0.135706 0)
(10.9051 0.0564705 0)
(11.0729 0.0440789 0)
(11.157 0.057575 0)
(11.2247 0.0607158 0)
(11.2854 0.0506721 0)
(11.3558 0.0407618 0)
(11.42 0.0293622 0)
(11.4901 0.026576 0)
(11.5479 0.0195311 0)
(11.6112 0.0175036 0)
(11.66 0.00619695 0)
(11.7183 -0.000766209 0)
(11.7634 -0.0256056 0)
(11.8163 -0.0431252 0)
(11.8541 -0.101427 0)
(11.8785 -0.155068 0)
(11.8281 -0.308884 0)
(9.9861 0.0937963 0)
(10.2579 0.151436 0)
(10.6119 0.105893 0)
(10.8807 0.04508 0)
(11.0566 0.0328364 0)
(11.1388 0.0439785 0)
(11.2077 0.0473387 0)
(11.2648 0.0393072 0)
(11.3376 0.0310574 0)
(11.3998 0.0221332 0)
(11.4721 0.0187894 0)
(11.5281 0.0138526 0)
(11.5926 0.00949521 0)
(11.6392 0.00133779 0)
(11.699 -0.0104427 0)
(11.7402 -0.029515 0)
(11.7948 -0.0572116 0)
(11.827 -0.103747 0)
(11.8493 -0.172853 0)
(11.7899 -0.281342 0)
(9.98496 0.0651925 0)
(10.2471 0.108119 0)
(10.591 0.0756252 0)
(10.8649 0.0334013 0)
(11.0408 0.0223694 0)
(11.1275 0.0310239 0)
(11.1911 0.033775 0)
(11.2512 0.0279527 0)
(11.3199 0.0216073 0)
(11.3863 0.0149288 0)
(11.4543 0.0114617 0)
(11.5148 0.00765561 0)
(11.5739 0.00205806 0)
(11.6258 -0.00474811 0)
(11.679 -0.0187674 0)
(11.7253 -0.0354971 0)
(11.7725 -0.0684178 0)
(11.8075 -0.108403 0)
(11.8228 -0.187811 0)
(11.7653 -0.256536 0)
(9.98333 0.0396763 0)
(10.2407 0.0632594 0)
(10.5768 0.0468879 0)
(10.8546 0.0189244 0)
(11.03 0.0145689 0)
(11.1203 0.0163376 0)
(11.1799 0.0220066 0)
(11.2424 0.0142605 0)
(11.308 0.014224 0)
(11.3772 0.00538593 0)
(11.4427 0.00675465 0)
(11.5056 -0.0014376 0)
(11.5621 -0.00203963 0)
(11.6163 -0.0148901 0)
(11.6656 -0.0222605 0)
(11.7148 -0.0478242 0)
(11.7562 -0.0712483 0)
(11.7932 -0.123423 0)
(11.8021 -0.18756 0)
(11.7443 -0.281369 0)
(9.98423 0.0128674 0)
(10.2358 0.0211371 0)
(10.5716 0.0154791 0)
(10.8479 0.00651874 0)
(11.0267 0.0044474 0)
(11.1154 0.00521705 0)
(11.1767 0.00657694 0)
(11.2369 0.00434744 0)
(11.3046 0.00259209 0)
(11.3716 0.000501602 0)
(11.4396 -0.00299914 0)
(11.4998 -0.00477523 0)
(11.5591 -0.012294 0)
(11.6094 -0.0178639 0)
(11.6617 -0.0332207 0)
(11.7063 -0.0511567 0)
(11.7498 -0.0829906 0)
(11.7813 -0.128234 0)
(11.7911 -0.196015 0)
(11.7272 -0.304316 0)
(9.98529 -0.0113117 0)
(10.2349 -0.0236457 0)
(10.5727 -0.0133293 0)
(10.847 -0.00932033 0)
(11.0281 -0.00215467 0)
(11.1146 -0.00962976 0)
(11.178 -0.00482663 0)
(11.2363 -0.0101499 0)
(11.3059 -0.00407876 0)
(11.3713 -0.0100327 0)
(11.4408 -0.00657046 0)
(11.4991 -0.0152922 0)
(11.5597 -0.0148112 0)
(11.608 -0.0297474 0)
(11.6617 -0.0346761 0)
(11.7031 -0.0652156 0)
(11.7475 -0.0832485 0)
(11.7749 -0.145397 0)
(11.7831 -0.190553 0)
(11.7159 -0.331336 0)
(9.98517 -0.0377579 0)
(10.2389 -0.0661943 0)
(10.5791 -0.0442564 0)
(10.8526 -0.0222752 0)
(11.0329 -0.01165 0)
(11.1185 -0.021308 0)
(11.1827 -0.0195117 0)
(11.2409 -0.0207635 0)
(11.3108 -0.0147976 0)
(11.3756 -0.0156894 0)
(11.4453 -0.015457 0)
(11.5031 -0.0192128 0)
(11.5634 -0.0246402 0)
(11.6118 -0.0326201 0)
(11.6641 -0.0463503 0)
(11.7051 -0.0663987 0)
(11.7478 -0.0982997 0)
(11.7738 -0.142771 0)
(11.7775 -0.208816 0)
(11.7077 -0.292652 0)
(9.98389 -0.0640443 0)
(10.2482 -0.110143 0)
(10.5907 -0.0738959 0)
(10.865 -0.0357136 0)
(11.041 -0.0206051 0)
(11.1274 -0.0347364 0)
(11.191 -0.0326603 0)
(11.2511 -0.0330133 0)
(11.3196 -0.0238009 0)
(11.3853 -0.0234722 0)
(11.4535 -0.0221192 0)
(11.512 -0.0257593 0)
(11.5712 -0.0315078 0)
(11.6201 -0.0386763 0)
(11.6705 -0.0543972 0)
(11.7117 -0.071307 0)
(11.7521 -0.109254 0)
(11.7768 -0.143791 0)
(11.78 -0.22373 0)
(11.7104 -0.255695 0)
(9.98291 -0.091719 0)
(10.2613 -0.15457 0)
(10.609 -0.103056 0)
(10.8832 -0.0486772 0)
(11.0537 -0.0298825 0)
(11.1407 -0.0492027 0)
(11.2042 -0.0446225 0)
(11.2661 -0.0463345 0)
(11.3334 -0.0311421 0)
(11.4 -0.0333378 0)
(11.4666 -0.0263305 0)
(11.5259 -0.0356 0)
(11.5839 -0.0343667 0)
(11.6331 -0.0498462 0)
(11.6819 -0.0556299 0)
(11.7231 -0.0847902 0)
(11.7615 -0.108545 0)
(11.7851 -0.160529 0)
(11.7881 -0.21705 0)
(11.714 -0.281292 0)
(9.98244 -0.122864 0)
(10.2783 -0.19737 0)
(10.6347 -0.134089 0)
(10.9066 -0.0586019 0)
(11.0715 -0.0425423 0)
(11.1582 -0.0611383 0)
(11.2227 -0.0595268 0)
(11.2857 -0.0560209 0)
(11.353 -0.04228 0)
(11.4194 -0.0389484 0)
(11.4852 -0.0354692 0)
(11.5446 -0.0397971 0)
(11.6017 -0.0434935 0)
(11.6508 -0.0535198 0)
(11.6989 -0.0651105 0)
(11.7393 -0.0884829 0)
(11.7761 -0.118026 0)
(11.7989 -0.165852 0)
(11.8005 -0.222634 0)
(11.7245 -0.30276 0)
(9.98193 -0.154565 0)
(10.3002 -0.242926 0)
(10.6673 -0.161926 0)
(10.9358 -0.071349 0)
(11.094 -0.0527328 0)
(11.1805 -0.0771145 0)
(11.2463 -0.0701773 0)
(11.3108 -0.0699037 0)
(11.3779 -0.048687 0)
(11.4438 -0.0499068 0)
(11.5089 -0.0391074 0)
(11.5683 -0.0501939 0)
(11.6246 -0.0459114 0)
(11.6738 -0.0642292 0)
(11.7209 -0.0669837 0)
(11.7605 -0.0998355 0)
(11.796 -0.119592 0)
(11.8179 -0.178641 0)
(11.8175 -0.222945 0)
(11.7428 -0.319944 0)
(9.98228 -0.19234 0)
(10.327 -0.285552 0)
(10.7071 -0.190982 0)
(10.9712 -0.0810959 0)
(11.1217 -0.0672899 0)
(11.2079 -0.0894947 0)
(11.2753 -0.0842353 0)
(11.3415 -0.0792673 0)
(11.4082 -0.0591761 0)
(11.4738 -0.0563217 0)
(11.5383 -0.0476831 0)
(11.5973 -0.0551332 0)
(11.6533 -0.0540371 0)
(11.7021 -0.0682867 0)
(11.7485 -0.0757782 0)
(11.7871 -0.102753 0)
(11.8218 -0.130276 0)
(11.842 -0.179907 0)
(11.841 -0.238154 0)
(11.7662 -0.301469 0)
(9.98716 -0.232017 0)
(10.3571 -0.331451 0)
(10.7561 -0.213437 0)
(11.0117 -0.0945029 0)
(11.1563 -0.0816237 0)
(11.2403 -0.10424 0)
(11.3112 -0.0959068 0)
(11.3778 -0.0904427 0)
(11.4448 -0.0674359 0)
(11.51 -0.0653765 0)
(11.5735 -0.0538873 0)
(11.6325 -0.0629496 0)
(11.6875 -0.0590811 0)
(11.7365 -0.0756498 0)
(11.7813 -0.0806943 0)
(11.82 -0.109502 0)
(11.8525 -0.136247 0)
(11.8725 -0.185699 0)
(11.8713 -0.249278 0)
(11.7989 -0.289148 0)
(10.0023 -0.277474 0)
(10.3849 -0.377879 0)
(10.8196 -0.230029 0)
(11.0496 -0.110401 0)
(11.2024 -0.0988411 0)
(11.2713 -0.118778 0)
(11.3577 -0.107845 0)
(11.4136 -0.100854 0)
(11.491 -0.0759977 0)
(11.5465 -0.0745822 0)
(11.6174 -0.0600384 0)
(11.6687 -0.0713781 0)
(11.7297 -0.0629761 0)
(11.7728 -0.0847226 0)
(11.8217 -0.0825902 0)
(11.8558 -0.120103 0)
(11.8898 -0.135503 0)
(11.9068 -0.20015 0)
(11.9061 -0.24689 0)
(11.8339 -0.314538 0)
(10.0236 -0.328958 0)
(10.4098 -0.424012 0)
(10.8996 -0.243393 0)
(11.0799 -0.127764 0)
(11.2633 -0.118771 0)
(11.296 -0.131754 0)
(11.4196 -0.121111 0)
(11.4435 -0.108631 0)
(11.5527 -0.0868238 0)
(11.5774 -0.081004 0)
(11.6769 -0.0693695 0)
(11.7004 -0.0760764 0)
(11.7873 -0.0710408 0)
(11.8055 -0.0887999 0)
(11.8769 -0.0897022 0)
(11.8883 -0.124079 0)
(11.9388 -0.140703 0)
(11.9349 -0.20611 0)
(11.9396 -0.250674 0)
(11.8494 -0.3389 0)
(10.0338 -0.386045 0)
(10.4452 -0.470996 0)
(10.9862 -0.255108 0)
(11.1128 -0.147451 0)
(11.3326 -0.138667 0)
(11.3231 -0.145673 0)
(11.4932 -0.132728 0)
(11.4742 -0.117293 0)
(11.6283 -0.0964274 0)
(11.6082 -0.0888809 0)
(11.7517 -0.077549 0)
(11.7299 -0.0825081 0)
(11.859 -0.0777791 0)
(11.8302 -0.0944981 0)
(11.939 -0.0949372 0)
(11.8989 -0.128952 0)
(11.9757 -0.142876 0)
(11.911 -0.210799 0)
(11.9173 -0.249722 0)
(11.7538 -0.358195 0)
(10.0227 -0.449432 0)
(10.5063 -0.517388 0)
(11.0665 -0.267744 0)
(11.1664 -0.167897 0)
(11.3986 -0.160216 0)
(11.3717 -0.159133 0)
(11.5664 -0.144691 0)
(11.5229 -0.125576 0)
(11.7011 -0.106911 0)
(11.6465 -0.0964201 0)
(11.8118 -0.0864941 0)
(11.7445 -0.0882242 0)
(11.8899 -0.0846405 0)
(11.8021 -0.0984091 0)
(11.9181 -0.098658 0)
(11.8028 -0.130466 0)
(11.873 -0.140383 0)
(11.7116 -0.210083 0)
(11.6869 -0.236258 0)
(11.403 -0.365335 0)
(10.0002 -0.519281 0)
(10.5915 -0.561352 0)
(11.1458 -0.281004 0)
(11.2464 -0.190651 0)
(11.4648 -0.182214 0)
(11.443 -0.173192 0)
(11.6247 -0.155603 0)
(11.5627 -0.133787 0)
(11.713 -0.115762 0)
(11.6156 -0.102124 0)
(11.7419 -0.0924468 0)
(11.6138 -0.0899593 0)
(11.7151 -0.0874584 0)
(11.5551 -0.0955076 0)
(11.6256 -0.0981292 0)
(11.4318 -0.121126 0)
(11.4538 -0.135589 0)
(11.208 -0.189861 0)
(11.1218 -0.225974 0)
(10.7557 -0.320072 0)
(9.97974 -0.598335 0)
(10.6997 -0.596999 0)
(11.2387 -0.298893 0)
(11.3436 -0.2175 0)
(11.5104 -0.204612 0)
(11.461 -0.185133 0)
(11.5536 -0.161433 0)
(11.4197 -0.136328 0)
(11.4653 -0.115919 0)
(11.2867 -0.0994935 0)
(11.3221 -0.0880317 0)
(11.1222 -0.0833295 0)
(11.1546 -0.0797167 0)
(10.9337 -0.0854874 0)
(10.9546 -0.0870171 0)
(10.7055 -0.10672 0)
(10.6897 -0.118905 0)
(10.3848 -0.16632 0)
(10.2636 -0.197892 0)
(9.83669 -0.268991 0)
(9.98774 -0.687245 0)
(10.8314 -0.629552 0)
(11.3134 -0.328069 0)
(11.3402 -0.24753 0)
(11.3407 -0.217962 0)
(11.1515 -0.182509 0)
(11.068 -0.151013 0)
(10.8163 -0.122707 0)
(10.7374 -0.100869 0)
(10.4902 -0.0839314 0)
(10.45 -0.0728939 0)
(10.2137 -0.0680309 0)
(10.1991 -0.0649916 0)
(9.95557 -0.0694987 0)
(9.94411 -0.0712309 0)
(9.67524 -0.0874652 0)
(9.63331 -0.0981245 0)
(9.30309 -0.137816 0)
(9.15759 -0.161132 0)
(8.69594 -0.223949 0)
(10.0665 -0.800691 0)
(10.8997 -0.662357 0)
(11.1373 -0.350709 0)
(10.8821 -0.251603 0)
(10.601 -0.197598 0)
(10.2332 -0.151853 0)
(9.9999 -0.119368 0)
(9.68092 -0.0938981 0)
(9.53214 -0.0752547 0)
(9.27105 -0.0617969 0)
(9.19428 -0.0533026 0)
(8.96221 -0.0500878 0)
(8.92302 -0.0480762 0)
(8.68798 -0.0520249 0)
(8.65648 -0.0538001 0)
(8.39476 -0.0665043 0)
(8.33421 -0.0759016 0)
(8.00677 -0.104763 0)
(7.84218 -0.127653 0)
(7.38928 -0.158575 0)
(10.1466 -0.941419 0)
(10.5575 -0.661379 0)
(10.2779 -0.325091 0)
(9.65681 -0.206458 0)
(9.16169 -0.143596 0)
(8.71817 -0.103574 0)
(8.43308 -0.0792387 0)
(8.12092 -0.0615801 0)
(7.95748 -0.0485742 0)
(7.72324 -0.0398813 0)
(7.63815 -0.0342933 0)
(7.4364 -0.0328564 0)
(7.38789 -0.031681 0)
(7.18225 -0.0351019 0)
(7.13974 -0.03644 0)
(6.90543 -0.045974 0)
(6.83436 -0.0526969 0)
(6.53043 -0.0732226 0)
(6.3652 -0.0896863 0)
(5.92691 -0.107363 0)
(9.84454 -1.01563 0)
(9.35256 -0.57199 0)
(8.51222 -0.23793 0)
(7.68179 -0.12798 0)
(7.15348 -0.0794638 0)
(6.75328 -0.0556762 0)
(6.49658 -0.0424999 0)
(6.24024 -0.0329998 0)
(6.09954 -0.0256596 0)
(5.91553 -0.0212183 0)
(5.84219 -0.0181928 0)
(5.68548 -0.0180822 0)
(5.63913 -0.0174602 0)
(5.47652 -0.0201082 0)
(5.43129 -0.0208085 0)
(5.24039 -0.0271539 0)
(5.16712 -0.0310167 0)
(4.90896 -0.0438658 0)
(4.75539 -0.053731 0)
(4.36058 -0.0646154 0)
(8.59623 -0.867256 0)
(6.97622 -0.380706 0)
(5.86052 -0.120317 0)
(5.11085 -0.0501399 0)
(4.72002 -0.0273604 0)
(4.44646 -0.019772 0)
(4.26905 -0.0154282 0)
(4.09734 -0.0120228 0)
(4.00172 -0.00908146 0)
(3.88239 -0.00769535 0)
(3.83217 -0.0065885 0)
(3.72991 -0.00705949 0)
(3.69398 -0.00677784 0)
(3.58468 -0.00836934 0)
(3.54538 -0.00852375 0)
(3.41234 -0.0118136 0)
(3.34822 -0.0132707 0)
(3.16051 -0.0195271 0)
(3.03298 -0.0235084 0)
(2.73375 -0.0298318 0)
(5.33942 -0.308169 0)
(3.02028 -0.0607348 0)
(2.24007 0.00148869 0)
(1.89472 0.00351586 0)
(1.75769 0.00132623 0)
(1.66339 0.000137567 0)
(1.59853 -1.07918e-05 0)
(1.53611 -3.61507e-05 0)
(1.50144 0.000109667 0)
(1.4595 -6.95493e-05 0)
(1.44084 -1.36018e-05 0)
(1.40333 -0.000320213 0)
(1.38703 -0.000179242 0)
(1.34438 -0.000586309 0)
(1.32379 -0.00037808 0)
(1.26875 -0.00102513 0)
(1.23406 -0.000855474 0)
(1.1517 -0.00187834 0)
(1.08349 -0.00211382 0)
(0.951485 0.00180939 0)
(2.09453 -0.155147 0)
(2.57797 -0.0642078 0)
(3.21016 -0.092616 0)
(3.64451 -0.114923 0)
(4.15137 -0.172129 0)
(4.58615 -0.229641 0)
(5.08686 -0.284879 0)
(5.58908 -0.359407 0)
(6.09278 -0.433861 0)
(6.53585 -0.521709 0)
(6.95736 -0.622915 0)
(7.28628 -0.744351 0)
(7.58111 -0.857251 0)
(7.83119 -0.966825 0)
(8.05801 -1.07079 0)
(8.2245 -1.16468 0)
(8.40241 -1.28877 0)
(8.55238 -1.43253 0)
(8.68882 -1.58748 0)
(8.83939 -1.74419 0)
(8.96686 -1.89366 0)
(9.08773 -2.02902 0)
(9.23648 -2.16655 0)
(9.35515 -2.28971 0)
(9.47763 -2.41374 0)
(9.54991 -2.53761 0)
(9.58724 -2.62962 0)
(9.60461 -2.69633 0)
(9.57706 -2.73455 0)
(9.54688 -2.76447 0)
(9.50397 -2.77908 0)
(9.4698 -2.77724 0)
(9.43469 -2.76441 0)
(9.39516 -2.75235 0)
(9.34391 -2.74017 0)
(9.27351 -2.73163 0)
(9.20125 -2.72127 0)
(9.15259 -2.70318 0)
(9.14316 -2.67941 0)
(9.14925 -2.64564 0)
(9.14347 -2.608 0)
(9.1254 -2.564 0)
(9.09014 -2.51515 0)
(9.04425 -2.46782 0)
(8.99119 -2.40141 0)
(8.93935 -2.31827 0)
(8.87057 -2.22136 0)
(8.79459 -2.11523 0)
(8.66472 -1.97914 0)
(8.51341 -1.83759 0)
(8.39316 -1.71693 0)
(8.26131 -1.59424 0)
(8.14567 -1.47868 0)
(8.04889 -1.36877 0)
(7.95182 -1.25879 0)
(7.87188 -1.16372 0)
(7.81181 -1.08614 0)
(7.74133 -1.00155 0)
(7.67732 -0.918435 0)
(7.59285 -0.839209 0)
(7.50927 -0.739531 0)
(7.40451 -0.636482 0)
(7.30391 -0.537139 0)
(7.21333 -0.43887 0)
(7.11926 -0.343474 0)
(7.02959 -0.254538 0)
(6.94103 -0.172076 0)
(6.86446 -0.100149 0)
(6.78936 -0.038889 0)
(6.72117 0.0217767 0)
(6.67362 0.0821421 0)
(6.63329 0.135742 0)
(6.60835 0.172411 0)
(6.57556 0.193572 0)
(6.55219 0.208783 0)
(6.54381 0.240434 0)
(6.54072 0.273929 0)
(6.541 0.303617 0)
(6.53746 0.334746 0)
(6.55728 0.360951 0)
(6.56232 0.375691 0)
(6.57672 0.380909 0)
(6.60006 0.385217 0)
(6.6136 0.37876 0)
(6.63307 0.363957 0)
(6.64155 0.354623 0)
(6.62928 0.361267 0)
(6.62957 0.375276 0)
(6.614 0.380964 0)
(6.62944 0.400638 0)
(6.60371 0.41161 0)
(6.63763 0.425683 0)
(6.64317 0.425155 0)
(6.66238 0.444807 0)
(6.68775 0.44316 0)
(6.71976 0.450929 0)
(6.77372 0.459447 0)
(6.80082 0.488454 0)
(6.88305 0.497246 0)
(6.90034 0.515752 0)
(6.97153 0.517947 0)
(6.97456 0.54859 0)
(7.03987 0.545628 0)
(7.04427 0.582411 0)
(7.09848 0.572717 0)
(7.06344 0.605294 0)
(7.10894 0.574302 0)
(7.04664 0.595363 0)
(7.10724 0.562904 0)
(7.00885 0.583455 0)
(7.06402 0.529863 0)
(6.9523 0.528242 0)
(7.00782 0.468364 0)
(6.88332 0.474099 0)
(6.95621 0.411358 0)
(6.81574 0.432089 0)
(6.9202 0.384088 0)
(6.74909 0.407433 0)
(6.86749 0.345554 0)
(6.70581 0.36955 0)
(6.81117 0.304677 0)
(6.6851 0.339854 0)
(6.75538 0.26901 0)
(6.65621 0.317688 0)
(6.70676 0.223475 0)
(6.61227 0.276846 0)
(6.65661 0.155945 0)
(6.54231 0.212012 0)
(6.58089 0.0821696 0)
(6.4768 0.148864 0)
(6.49666 0.0201934 0)
(6.44867 0.0989954 0)
(6.42473 -0.0271159 0)
(6.43857 0.0571326 0)
(6.37028 -0.0613679 0)
(6.44366 0.0163209 0)
(6.32363 -0.111879 0)
(6.45495 -0.0433012 0)
(6.27748 -0.15846 0)
(6.45942 -0.0848088 0)
(6.28251 -0.186035 0)
(6.43628 -0.0954969 0)
(6.31443 -0.199024 0)
(6.43552 -0.100331 0)
(6.33823 -0.191848 0)
(6.46599 -0.102751 0)
(6.37725 -0.166258 0)
(6.50287 -0.0810361 0)
(6.45053 -0.122606 0)
(6.5542 -0.0423625 0)
(6.51556 -0.0788701 0)
(6.62381 0.00450805 0)
(6.56597 -0.0254256 0)
(6.69972 0.066149 0)
(6.5873 0.0476904 0)
(6.7503 0.139405 0)
(6.62958 0.112019 0)
(6.77511 0.2219 0)
(6.64655 0.193121 0)
(6.79482 0.296647 0)
(6.67684 0.256609 0)
(6.80338 0.353376 0)
(6.70927 0.313132 0)
(6.774 0.399561 0)
(6.72369 0.36636 0)
(6.74058 0.442462 0)
(6.73938 0.410064 0)
(6.69989 0.486772 0)
(6.73781 0.463918 0)
(6.67222 0.561291 0)
(6.73571 0.560888 0)
(6.66163 0.687998 0)
(6.73625 0.688564 0)
(6.67838 0.837676 0)
(6.74029 0.838092 0)
(6.68472 1.00667 0)
(6.74462 1.00414 0)
(6.6758 1.19262 0)
(6.75791 1.1796 0)
(6.6347 1.39671 0)
(6.79513 1.37362 0)
(6.55615 1.61554 0)
(6.83723 1.57114 0)
(6.45366 1.84633 0)
(6.82582 1.76905 0)
(6.38321 2.0968 0)
(6.73566 1.99734 0)
(6.30334 2.35873 0)
(6.61269 2.27621 0)
(6.22355 2.67709 0)
(6.49377 2.64266 0)
(6.13269 3.08376 0)
(6.32059 3.1373 0)
(5.93159 3.62194 0)
(6.11015 3.79233 0)
(5.7632 4.38282 0)
(5.78725 4.74356 0)
(5.2333 5.79907 0)
(5.73267 6.4884 0)
(3.23848 9.57884 0)
(4.05583 -0.192634 0)
(4.19689 -0.194167 0)
(4.56697 -0.263132 0)
(4.88614 -0.297563 0)
(5.26775 -0.353548 0)
(5.62562 -0.406599 0)
(5.97633 -0.466256 0)
(6.32232 -0.539698 0)
(6.67993 -0.615988 0)
(7.01812 -0.694447 0)
(7.36521 -0.784243 0)
(7.66203 -0.883405 0)
(7.91937 -0.981824 0)
(8.16325 -1.07601 0)
(8.39244 -1.16637 0)
(8.59235 -1.25098 0)
(8.78514 -1.35547 0)
(8.95217 -1.48688 0)
(9.09475 -1.63486 0)
(9.23026 -1.79282 0)
(9.35346 -1.94072 0)
(9.47578 -2.07618 0)
(9.60771 -2.21352 0)
(9.72026 -2.33606 0)
(9.80569 -2.4466 0)
(9.85607 -2.55519 0)
(9.85235 -2.63872 0)
(9.85418 -2.69726 0)
(9.83082 -2.72846 0)
(9.79644 -2.74811 0)
(9.74232 -2.76013 0)
(9.69825 -2.76099 0)
(9.65508 -2.74858 0)
(9.60685 -2.7324 0)
(9.54737 -2.70979 0)
(9.47464 -2.69642 0)
(9.40847 -2.69473 0)
(9.35713 -2.69091 0)
(9.33533 -2.67508 0)
(9.32475 -2.64176 0)
(9.29765 -2.60131 0)
(9.25441 -2.55037 0)
(9.20019 -2.49331 0)
(9.13831 -2.44312 0)
(9.07256 -2.37657 0)
(8.99908 -2.29113 0)
(8.91408 -2.18535 0)
(8.81281 -2.06508 0)
(8.65681 -1.91726 0)
(8.50164 -1.77921 0)
(8.37741 -1.662 0)
(8.23777 -1.5445 0)
(8.11913 -1.43586 0)
(8.01203 -1.32716 0)
(7.90788 -1.2201 0)
(7.82586 -1.13221 0)
(7.76122 -1.05774 0)
(7.68205 -0.971129 0)
(7.61023 -0.885597 0)
(7.51732 -0.80154 0)
(7.42938 -0.697243 0)
(7.32077 -0.595397 0)
(7.22592 -0.496784 0)
(7.1397 -0.399678 0)
(7.05092 -0.304934 0)
(6.96436 -0.217437 0)
(6.87596 -0.135976 0)
(6.79792 -0.0665312 0)
(6.72071 -0.00745241 0)
(6.64869 0.0488039 0)
(6.59797 0.101766 0)
(6.55849 0.150281 0)
(6.53701 0.184521 0)
(6.50639 0.206202 0)
(6.48185 0.218819 0)
(6.46858 0.246776 0)
(6.46256 0.279639 0)
(6.46267 0.306357 0)
(6.45534 0.334362 0)
(6.47168 0.358473 0)
(6.47507 0.373043 0)
(6.48124 0.37647 0)
(6.50186 0.377511 0)
(6.5149 0.373001 0)
(6.52865 0.360836 0)
(6.53543 0.356472 0)
(6.51749 0.367375 0)
(6.51645 0.379524 0)
(6.50123 0.382352 0)
(6.51794 0.404165 0)
(6.49857 0.40786 0)
(6.5343 0.417428 0)
(6.54352 0.415525 0)
(6.57093 0.436581 0)
(6.59879 0.428686 0)
(6.63041 0.434673 0)
(6.6846 0.441255 0)
(6.71411 0.468713 0)
(6.79651 0.472689 0)
(6.82093 0.497753 0)
(6.89036 0.501392 0)
(6.90015 0.535259 0)
(6.97179 0.528522 0)
(6.97781 0.57053 0)
(7.0454 0.568401 0)
(7.01215 0.607341 0)
(7.07407 0.576681 0)
(7.00085 0.601547 0)
(7.06832 0.570793 0)
(6.96109 0.596324 0)
(7.02482 0.539434 0)
(6.90584 0.545895 0)
(6.97045 0.481096 0)
(6.83126 0.488003 0)
(6.92417 0.423222 0)
(6.76117 0.4436 0)
(6.88629 0.396348 0)
(6.69291 0.420124 0)
(6.82671 0.357108 0)
(6.64803 0.380718 0)
(6.76586 0.311811 0)
(6.6253 0.347625 0)
(6.71319 0.279508 0)
(6.58982 0.325075 0)
(6.6743 0.235384 0)
(6.5487 0.283821 0)
(6.63107 0.170537 0)
(6.48043 0.225423 0)
(6.55976 0.0999776 0)
(6.40909 0.160797 0)
(6.48329 0.0318031 0)
(6.37855 0.104722 0)
(6.42718 -0.0150884 0)
(6.3696 0.0581923 0)
(6.39224 -0.0528284 0)
(6.37537 0.0184608 0)
(6.36272 -0.104533 0)
(6.38875 -0.0378399 0)
(6.31172 -0.154334 0)
(6.40223 -0.0858216 0)
(6.29077 -0.180774 0)
(6.38763 -0.102476 0)
(6.31481 -0.20111 0)
(6.37735 -0.10386 0)
(6.35374 -0.200977 0)
(6.40627 -0.104883 0)
(6.39418 -0.177089 0)
(6.45258 -0.093042 0)
(6.4619 -0.135787 0)
(6.49735 -0.0536693 0)
(6.5267 -0.0929795 0)
(6.5624 -0.00455893 0)
(6.57879 -0.0401088 0)
(6.64199 0.06168 0)
(6.59702 0.034864 0)
(6.73155 0.129856 0)
(6.62266 0.104412 0)
(6.76863 0.224705 0)
(6.63652 0.181723 0)
(6.81398 0.298898 0)
(6.66671 0.24006 0)
(6.84469 0.361001 0)
(6.68778 0.301694 0)
(6.83009 0.41487 0)
(6.71489 0.351503 0)
(6.81759 0.457877 0)
(6.73593 0.39761 0)
(6.78623 0.505569 0)
(6.73869 0.4538 0)
(6.7593 0.581294 0)
(6.74493 0.545918 0)
(6.75195 0.697089 0)
(6.77457 0.670523 0)
(6.76268 0.841598 0)
(6.80228 0.82864 0)
(6.74852 1.01183 0)
(6.8437 0.99515 0)
(6.72179 1.1988 0)
(6.90549 1.17352 0)
(6.66868 1.41059 0)
(6.97861 1.36179 0)
(6.60783 1.63865 0)
(7.02166 1.55677 0)
(6.55522 1.89058 0)
(6.98279 1.75859 0)
(6.50698 2.14297 0)
(6.90196 1.99468 0)
(6.42341 2.39848 0)
(6.81496 2.27514 0)
(6.35312 2.71496 0)
(6.72319 2.64234 0)
(6.28507 3.12176 0)
(6.64189 3.12399 0)
(6.21309 3.67137 0)
(6.41971 3.81579 0)
(6.01163 4.51074 0)
(6.2072 4.79627 0)
(5.54555 6.03923 0)
(6.94404 6.33805 0)
(4.61576 10.3114 0)
(5.89508 -0.236901 0)
(5.95686 -0.265548 0)
(6.16496 -0.35326 0)
(6.37333 -0.415713 0)
(6.62659 -0.480766 0)
(6.86421 -0.536821 0)
(7.10529 -0.593487 0)
(7.31412 -0.661951 0)
(7.53936 -0.741471 0)
(7.76574 -0.821023 0)
(8.00604 -0.906524 0)
(8.22803 -0.993461 0)
(8.42563 -1.07982 0)
(8.60717 -1.16842 0)
(8.80477 -1.25723 0)
(8.99445 -1.34037 0)
(9.18275 -1.43628 0)
(9.37244 -1.55232 0)
(9.52546 -1.69007 0)
(9.64509 -1.84098 0)
(9.76241 -1.98777 0)
(9.86921 -2.12006 0)
(9.96494 -2.25484 0)
(10.055 -2.37154 0)
(10.0926 -2.47192 0)
(10.1307 -2.5634 0)
(10.101 -2.6368 0)
(10.0818 -2.69178 0)
(10.0503 -2.72001 0)
(10.0104 -2.72869 0)
(9.94934 -2.73798 0)
(9.89727 -2.74233 0)
(9.84169 -2.7292 0)
(9.78158 -2.71019 0)
(9.72073 -2.67986 0)
(9.65751 -2.66537 0)
(9.60945 -2.67021 0)
(9.55855 -2.6751 0)
(9.51786 -2.66262 0)
(9.48019 -2.62779 0)
(9.43249 -2.58389 0)
(9.36344 -2.52701 0)
(9.28925 -2.46476 0)
(9.21385 -2.41178 0)
(9.13508 -2.34476 0)
(9.03817 -2.25294 0)
(8.92998 -2.13674 0)
(8.8001 -2.00464 0)
(8.62953 -1.85219 0)
(8.47748 -1.72045 0)
(8.34534 -1.60466 0)
(8.20005 -1.49161 0)
(8.08038 -1.38897 0)
(7.962 -1.28251 0)
(7.85271 -1.18129 0)
(7.76701 -1.10023 0)
(7.69376 -1.02787 0)
(7.60401 -0.938093 0)
(7.52098 -0.848684 0)
(7.42086 -0.759763 0)
(7.3309 -0.653827 0)
(7.22253 -0.555577 0)
(7.13649 -0.458273 0)
(7.05423 -0.362281 0)
(6.96875 -0.268015 0)
(6.88459 -0.181028 0)
(6.79627 -0.100039 0)
(6.71614 -0.0321433 0)
(6.64013 0.0239331 0)
(6.56828 0.0762481 0)
(6.51605 0.122213 0)
(6.47637 0.1651 0)
(6.45543 0.195887 0)
(6.42841 0.218179 0)
(6.40371 0.23085 0)
(6.38623 0.254899 0)
(6.37535 0.285277 0)
(6.37499 0.310525 0)
(6.36407 0.336192 0)
(6.37779 0.357685 0)
(6.38117 0.37154 0)
(6.37796 0.373369 0)
(6.39333 0.371097 0)
(6.40648 0.367646 0)
(6.41376 0.358807 0)
(6.41765 0.359175 0)
(6.39706 0.373601 0)
(6.39551 0.384531 0)
(6.3811 0.384288 0)
(6.39656 0.40581 0)
(6.38564 0.401742 0)
(6.42366 0.408709 0)
(6.43374 0.405102 0)
(6.46909 0.426225 0)
(6.50359 0.412858 0)
(6.52892 0.418473 0)
(6.5889 0.422865 0)
(6.61217 0.448609 0)
(6.70024 0.447837 0)
(6.72073 0.479023 0)
(6.79922 0.483231 0)
(6.80429 0.520884 0)
(6.88921 0.513229 0)
(6.88661 0.5577 0)
(6.97366 0.558885 0)
(6.93632 0.604234 0)
(7.01976 0.574285 0)
(6.94138 0.608224 0)
(7.01614 0.576887 0)
(6.90818 0.610267 0)
(6.97385 0.546854 0)
(6.85275 0.562978 0)
(6.92094 0.491689 0)
(6.77455 0.502209 0)
(6.87084 0.43267 0)
(6.70676 0.457319 0)
(6.82723 0.407096 0)
(6.64647 0.435899 0)
(6.75825 0.367143 0)
(6.60846 0.396053 0)
(6.69302 0.318253 0)
(6.58463 0.358364 0)
(6.64182 0.286329 0)
(6.55426 0.335094 0)
(6.6035 0.242399 0)
(6.52067 0.295985 0)
(6.55617 0.179466 0)
(6.46163 0.24261 0)
(6.48254 0.11215 0)
(6.39674 0.178464 0)
(6.40181 0.0379142 0)
(6.37545 0.117518 0)
(6.3441 -0.0136728 0)
(6.38305 0.0676568 0)
(6.30811 -0.0571949 0)
(6.40426 0.0272287 0)
(6.27912 -0.109735 0)
(6.42948 -0.0220104 0)
(6.22401 -0.161227 0)
(6.45283 -0.0714273 0)
(6.1784 -0.1851 0)