/*--------------------------------*- C++ -*----------------------------------*\
| =========                 |                                                 |
| \\      /  F ield         | OpenFOAM: The Open Source CFD Toolbox           |
|  \\    /   O peration     | Version:  2.4.0                                 |
|   \\  /    A nd           | Web:      www.OpenFOAM.org                      |
|    \\/     M anipulation  |                                                 |
\*---------------------------------------------------------------------------*/
FoamFile
{
    version     2.0;
    format      ascii;
    class       surfaceScalarField;
    location    "0.16";
    object      phi;
}
// * * * * * * * * * * * * * * * * * * * * * * * * * * * * * * * * * * * * * //

dimensions      [0 3 -1 0 0 0 0];

internalField   nonuniform List<scalar> 
8640
(
1.14652e-05
1.35348e-05
7.1766e-06
4.28864e-06
5.92022e-06
1.25638e-06
5.36472e-06
5.55502e-07
5.1007e-06
2.64014e-07
4.94262e-06
1.58078e-07
4.82181e-06
1.20819e-07
4.78993e-06
3.18773e-08
4.54805e-06
2.41879e-07
-1.63943e-06
6.18748e-06
2.10464e-05
1.74884e-05
1.74594e-05
7.87554e-06
1.55184e-05
3.19741e-06
1.42441e-05
1.82977e-06
1.35085e-05
9.99664e-07
1.30211e-05
6.45494e-07
1.26818e-05
4.6012e-07
1.25611e-05
1.52543e-07
1.22533e-05
5.49712e-07
-2.10651e-06
1.27204e-05
2.56913e-05
1.67971e-05
2.41161e-05
9.45068e-06
2.26219e-05
4.69167e-06
2.12155e-05
3.23617e-06
2.02641e-05
1.95108e-06
1.95526e-05
1.35691e-06
1.90453e-05
9.67452e-07
1.88775e-05
3.20337e-07
1.86169e-05
8.10365e-07
-1.75657e-06
1.82669e-05
2.74423e-05
1.43548e-05
2.7748e-05
9.14503e-06
2.73953e-05
5.04438e-06
2.64905e-05
4.14089e-06
2.57171e-05
2.72452e-06
2.49827e-05
2.09133e-06
2.43988e-05
1.55132e-06
2.4224e-05
4.95143e-07
2.41696e-05
8.64756e-07
-8.51122e-07
2.32642e-05
2.76221e-05
1.17327e-05
2.89012e-05
7.86596e-06
2.96582e-05
4.28734e-06
2.96324e-05
4.16674e-06
2.94725e-05
2.88441e-06
2.90265e-05
2.53731e-06
2.85487e-05
2.02912e-06
2.84604e-05
5.83426e-07
2.86518e-05
6.7335e-07
9.68133e-08
2.77039e-05
2.74437e-05
9.28903e-06
2.88858e-05
6.42381e-06
3.00746e-05
3.09861e-06
3.06418e-05
3.59949e-06
3.12002e-05
2.32604e-06
3.12748e-05
2.46268e-06
3.11577e-05
2.14623e-06
3.13406e-05
4.00512e-07
3.17069e-05
3.07088e-07
1.3189e-06
3.04848e-05
2.73239e-05
6.96514e-06
2.87911e-05
4.95656e-06
2.99085e-05
1.98123e-06
3.06134e-05
2.89457e-06
3.14738e-05
1.46566e-06
3.18598e-05
2.07669e-06
3.21994e-05
1.80664e-06
3.27149e-05
-1.14962e-07
3.30037e-05
1.82806e-08
3.25715e-06
3.10654e-05
2.72802e-05
4.68496e-06
2.89278e-05
3.30895e-06
2.97281e-05
1.18088e-06
3.05169e-05
2.10576e-06
3.12966e-05
6.8602e-07
3.17741e-05
1.59914e-06
3.24648e-05
1.11595e-06
3.29983e-05
-6.4841e-07
3.29425e-05
7.40683e-08
3.32451e-06
3.28751e-05
2.72434e-05
2.44159e-06
2.89299e-05
1.62239e-06
2.96723e-05
4.38493e-07
3.05104e-05
1.26768e-06
3.11285e-05
6.7903e-08
3.17865e-05
9.41166e-07
3.24826e-05
4.19891e-07
3.26861e-05
-8.51941e-07
3.26948e-05
6.53223e-08
2.05631e-06
3.3963e-05
2.71947e-05
2.46931e-07
2.89299e-05
-1.12893e-07
2.96854e-05
-3.16987e-07
3.0451e-05
5.02073e-07
3.11299e-05
-6.11008e-07
3.18697e-05
2.01437e-07
3.2323e-05
-3.34639e-08
3.25153e-05
-1.04423e-06
3.29992e-05
-4.1857e-07
4.56177e-07
3.45993e-05
2.721e-05
-1.96304e-06
2.89846e-05
-1.88748e-06
2.9648e-05
-9.80412e-07
3.04135e-05
-2.63479e-07
3.12165e-05
-1.41396e-06
3.18439e-05
-4.26002e-07
3.22198e-05
-4.09293e-07
3.26207e-05
-1.44517e-06
3.32244e-05
-1.02228e-06
-7.76346e-07
3.44569e-05
2.72808e-05
-4.24381e-06
2.89784e-05
-3.58515e-06
2.96277e-05
-1.62973e-06
3.05232e-05
-1.15895e-06
3.12663e-05
-2.15703e-06
3.17814e-05
-9.411e-07
3.22731e-05
-9.01012e-07
3.27291e-05
-1.90115e-06
3.32719e-05
-1.56505e-06
-1.64937e-06
3.41449e-05
2.73458e-05
-6.58959e-06
2.89765e-05
-5.21589e-06
2.9744e-05
-2.39723e-06
3.06517e-05
-2.0666e-06
3.12746e-05
-2.77998e-06
3.18275e-05
-1.49395e-06
3.23632e-05
-1.43672e-06
3.27338e-05
-2.27182e-06
3.31938e-05
-2.02505e-06
-2.26463e-06
3.38091e-05
2.74347e-05
-9.02427e-06
2.88999e-05
-6.68109e-06
2.98672e-05
-3.36454e-06
3.07523e-05
-2.95168e-06
3.13298e-05
-3.35748e-06
3.1856e-05
-2.02021e-06
3.22739e-05
-1.8546e-06
3.24403e-05
-2.43817e-06
3.26788e-05
-2.26355e-06
-2.6165e-06
3.30306e-05
2.75499e-05
-1.15742e-05
2.89441e-05
-8.07525e-06
2.99767e-05
-4.39714e-06
3.07657e-05
-3.74069e-06
3.10367e-05
-3.62856e-06
3.12403e-05
-2.22379e-06
3.12854e-05
-1.8997e-06
3.10666e-05
-2.21934e-06
3.09492e-05
-2.14614e-06
-2.56044e-06
3.08932e-05
2.7695e-05
-1.42691e-05
2.89007e-05
-9.28099e-06
2.95914e-05
-5.08787e-06
2.9737e-05
-3.88629e-06
2.93207e-05
-3.21221e-06
2.89976e-05
-1.90072e-06
2.8629e-05
-1.53113e-06
2.81193e-05
-1.70965e-06
2.772e-05
-1.74679e-06
-1.60662e-06
2.67662e-05
2.74858e-05
-1.6755e-05
2.77292e-05
-9.52437e-06
2.73575e-05
-4.71617e-06
2.6562e-05
-3.09081e-06
2.55868e-05
-2.23695e-06
2.49579e-05
-1.2719e-06
2.44087e-05
-9.81894e-07
2.38246e-05
-1.12557e-06
2.33124e-05
-1.23456e-06
-1.01482e-06
2.27206e-05
2.57161e-05
-1.7471e-05
2.40974e-05
-7.90569e-06
2.25981e-05
-3.2169e-06
2.126e-05
-1.7527e-06
2.01639e-05
-1.14087e-06
1.95218e-05
-6.29812e-07
1.90021e-05
-4.62171e-07
1.8478e-05
-6.01452e-07
1.79324e-05
-6.88966e-07
-4.46918e-07
1.73645e-05
2.10597e-05
-1.35307e-05
1.74483e-05
-4.29437e-06
1.54997e-05
-1.26823e-06
1.42732e-05
-5.26211e-07
1.344e-05
-3.0768e-07
1.29803e-05
-1.70067e-07
1.26261e-05
-1.0803e-07
1.22235e-05
-1.98852e-07
1.17641e-05
-2.29576e-07
-7.93696e-08
1.13966e-05
1.14693e-05
7.17494e-06
5.90671e-06
5.3805e-06
5.07282e-06
4.90275e-06
4.79472e-06
4.59587e-06
4.36629e-06
4.28692e-06
7.46986e-06
1.4936e-06
-2.77598e-06
8.09766e-06
2.55677e-06
-3.18457e-06
8.44373e-06
-5.21633e-07
1.75565e-07
8.98675e-06
-3.23624e-06
2.69321e-06
9.27863e-06
-4.53913e-06
4.24725e-06
9.92464e-06
-4.94317e-06
4.29716e-06
9.9905e-06
-2.8576e-06
2.79174e-06
9.96723e-06
-2.36895e-06
2.39222e-06
1.05757e-05
-1.14507e-06
5.36564e-07
1.05354e-05
4.83655e-07
-4.43301e-07
1.13028e-05
-3.2086e-07
-4.46605e-07
1.24946e-05
2.24596e-06
-3.43771e-06
1.36338e-05
2.56209e-06
-3.70128e-06
1.51819e-05
2.44315e-06
-3.99132e-06
1.68958e-05
3.76813e-06
-5.48203e-06
1.89634e-05
1.97941e-06
-4.047e-06
2.03377e-05
1.65789e-08
-1.39088e-06
2.27646e-05
-2.46061e-06
3.37236e-08
2.52779e-05
-6.45864e-06
3.94532e-06
2.72909e-05
-8.20314e-06
6.19016e-06
2.95709e-05
-1.23527e-05
1.00727e-05
3.18727e-05
-1.78391e-05
1.55373e-05
3.37373e-05
-2.07855e-05
1.89209e-05
3.46645e-05
-2.44418e-05
2.35145e-05
3.44722e-05
-2.7466e-05
2.76583e-05
3.35174e-05
-2.69468e-05
2.79016e-05
3.22328e-05
-2.53862e-05
2.66708e-05
3.01085e-05
-2.2851e-05
2.49753e-05
2.80077e-05
-2.10534e-05
2.31541e-05
2.65594e-05
-1.95504e-05
2.09988e-05
2.45519e-05
-1.7399e-05
1.94064e-05
2.27375e-05
-1.68567e-05
1.86711e-05
2.21176e-05
-1.85088e-05
1.91287e-05
2.2072e-05
-2.14163e-05
2.14619e-05
2.14926e-05
-2.48186e-05
2.5398e-05
2.1247e-05
-2.54654e-05
2.5711e-05
2.23891e-05
-2.51238e-05
2.39817e-05
2.37193e-05
-2.93371e-05
2.80069e-05
2.49632e-05
-3.05305e-05
2.92866e-05
2.62596e-05
-2.33926e-05
2.20962e-05
2.65177e-05
-1.51837e-05
1.49256e-05
2.65792e-05
-8.67616e-06
8.6147e-06
2.64246e-05
2.67458e-06
-2.52e-06
2.60756e-05
1.41297e-05
-1.37807e-05
2.52257e-05
2.31795e-05
-2.23296e-05
2.44123e-05
3.12748e-05
-3.04614e-05
2.30794e-05
3.87264e-05
-3.73936e-05
2.18049e-05
3.87785e-05
-3.75039e-05
1.96482e-05
3.69396e-05
-3.4783e-05
1.80694e-05
2.84665e-05
-2.68877e-05
1.76592e-05
3.13354e-05
-3.09251e-05
1.58875e-05
3.82464e-05
-3.64747e-05
1.50631e-05
4.55143e-05
-4.46899e-05
1.55657e-05
4.31957e-05
-4.36983e-05
1.6783e-05
3.12933e-05
-3.25107e-05
1.70252e-05
1.70637e-05
-1.73059e-05
1.71028e-05
1.14825e-06
-1.22585e-06
1.76313e-05
-1.00021e-05
9.47367e-06
1.84427e-05
-1.87086e-05
1.78972e-05
1.83044e-05
-3.2056e-05
3.21942e-05
1.83141e-05
-3.75535e-05
3.75437e-05
1.77823e-05
-4.08688e-05
4.14006e-05
1.68248e-05
-4.06569e-05
4.16145e-05
1.74733e-05
-2.77262e-05
2.70776e-05
2.01564e-05
-2.97048e-05
2.70217e-05
2.25185e-05
-3.67602e-05
3.4398e-05
2.32911e-05
-4.01794e-05
3.94068e-05
2.31059e-05
-3.46819e-05
3.48671e-05
2.32924e-05
-2.68348e-05
2.66483e-05
2.2923e-05
-1.96085e-05
1.9978e-05
2.1877e-05
-8.35812e-06
9.40409e-06
2.09798e-05
5.73837e-06
-4.84115e-06
2.0298e-05
1.3665e-05
-1.29832e-05
1.93258e-05
2.1325e-05
-2.03528e-05
1.83227e-05
3.42866e-05
-3.32835e-05
1.74566e-05
4.35249e-05
-4.26588e-05
1.68077e-05
4.21836e-05
-4.15346e-05
1.52038e-05
3.5795e-05
-3.41912e-05
1.51704e-05
3.3946e-05
-3.39126e-05
1.52308e-05
4.68643e-05
-4.69246e-05
1.66717e-05
4.80883e-05
-4.95292e-05
1.59579e-05
5.31628e-05
-5.2449e-05
1.64324e-05
3.52206e-05
-3.56952e-05
1.62894e-05
3.51811e-05
-3.50381e-05
1.74608e-05
1.03957e-05
-1.15671e-05
1.61398e-05
1.61903e-05
-1.48693e-05
1.65675e-05
-1.43696e-05
1.3942e-05
1.60863e-05
2.9874e-06
-2.50622e-06
1.70803e-05
-2.49363e-05
2.39423e-05
1.6805e-05
-9.16724e-06
9.44248e-06
1.93233e-05
-1.94053e-05
1.6887e-05
1.80643e-05
-4.10812e-06
5.36708e-06
1.8949e-05
-1.5211e-05
1.43263e-05
1.74185e-05
-7.04199e-06
8.57248e-06
1.86602e-05
-9.90157e-06
8.65992e-06
1.60926e-05
1.78077e-06
7.86834e-07
1.66861e-05
2.08405e-06
-2.67753e-06
1.38587e-05
1.98829e-05
-1.70555e-05
1.47161e-05
2.05283e-05
-2.13857e-05
5.09763e-05
-4.94019e-05
1.31416e-05
1.34939e-05
7.20089e-07
1.35787e-05
2.47199e-06
1.36039e-05
-5.46894e-07
1.43082e-05
-3.94057e-06
1.47597e-05
-4.99055e-06
1.51186e-05
-5.30209e-06
1.54913e-05
-3.23029e-06
1.50917e-05
-1.96941e-06
1.50814e-05
-1.13474e-06
1.53532e-05
2.11811e-07
1.54685e-05
-4.36077e-07
1.61306e-05
1.58387e-06
1.74553e-05
1.23732e-06
1.86983e-05
1.20015e-06
2.05057e-05
1.96072e-06
2.2672e-05
-1.86838e-07
2.4015e-05
-1.32638e-06
2.61776e-05
-4.62323e-06
2.85246e-05
-8.80565e-06
3.05819e-05
-1.02605e-05
3.26778e-05
-1.44486e-05
3.45995e-05
-1.97607e-05
3.60993e-05
-2.22853e-05
3.67123e-05
-2.50548e-05
3.5875e-05
-2.66287e-05
3.43078e-05
-2.53796e-05
3.2602e-05
-2.36804e-05
3.02879e-05
-2.05368e-05
2.83274e-05
-1.90929e-05
2.6492e-05
-1.7715e-05
2.40616e-05
-1.49686e-05
2.26511e-05
-1.54462e-05
2.20388e-05
-1.78965e-05
2.12892e-05
-2.06667e-05
2.02998e-05
-2.38292e-05
1.99689e-05
-2.51345e-05
2.09995e-05
-2.61544e-05
2.22135e-05
-3.0551e-05
2.31612e-05
-3.14783e-05
2.40543e-05
-2.42857e-05
2.40806e-05
-1.52101e-05
2.40173e-05
-8.61292e-06
2.39636e-05
2.72834e-06
2.40065e-05
1.40868e-05
2.34279e-05
2.37581e-05
2.29245e-05
3.17782e-05
2.18642e-05
3.97867e-05
2.08418e-05
3.98009e-05
1.92293e-05
3.85521e-05
1.74743e-05
3.02215e-05
1.72574e-05
3.15523e-05
1.59993e-05
3.95045e-05
1.54594e-05
4.60542e-05
1.61563e-05
4.24989e-05
1.74226e-05
3.0027e-05
1.81458e-05
1.63404e-05
1.86826e-05
6.11446e-07
1.90412e-05
-1.03607e-05
1.99458e-05
-1.96132e-05
1.9423e-05
-3.15332e-05
1.93253e-05
-3.74558e-05
1.88018e-05
-4.03453e-05
1.71584e-05
-3.90135e-05
1.7207e-05
-2.77747e-05
1.93993e-05
-3.18971e-05
2.1806e-05
-3.91668e-05
2.25653e-05
-4.09387e-05
2.18422e-05
-3.39589e-05
2.13155e-05
-2.63081e-05
2.04719e-05
-1.87649e-05
1.93735e-05
-7.25978e-06
1.88312e-05
6.28064e-06
1.8483e-05
1.40132e-05
1.74386e-05
2.23694e-05
1.67882e-05
3.4937e-05
1.61644e-05
4.41488e-05
1.62081e-05
4.21399e-05
1.4958e-05
3.70451e-05
1.52055e-05
3.36985e-05
1.54821e-05
4.65877e-05
1.70792e-05
4.64911e-05
1.70461e-05
5.31959e-05
1.77805e-05
3.44862e-05
1.76278e-05
3.53338e-05
1.97649e-05
8.25858e-06
1.86512e-05
1.7304e-05
1.72829e-05
-1.30014e-05
1.74229e-05
2.84745e-06
1.78663e-05
-2.53797e-05
1.74323e-05
-8.73321e-06
2.02462e-05
-2.22192e-05
1.87657e-05
-2.62761e-06
1.95253e-05
-1.59707e-05
1.73859e-05
-4.90258e-06
2.08903e-05
-1.3406e-05
1.8103e-05
4.56811e-06
1.92892e-05
8.97769e-07
1.77583e-05
2.14139e-05
2.01427e-05
1.81439e-05
5.1841e-05
1.9278e-05
1.87778e-05
2.09223e-07
1.92893e-05
1.96045e-06
1.92387e-05
-4.9625e-07
1.94978e-05
-4.19972e-06
2.04366e-05
-5.92934e-06
2.04496e-05
-5.31509e-06
2.0724e-05
-3.5047e-06
2.07931e-05
-2.03849e-06
2.00887e-05
-4.30321e-07
2.03689e-05
-6.83449e-08
2.04395e-05
-5.06699e-07
2.07165e-05
1.30687e-06
2.19732e-05
-1.93814e-08
2.28452e-05
3.281e-07
2.44098e-05
3.96176e-07
2.64676e-05
-2.24469e-06
2.80312e-05
-2.89e-06
2.98821e-05
-6.47413e-06
3.18886e-05
-1.08121e-05
3.39296e-05
-1.23015e-05
3.58298e-05
-1.63488e-05
3.70328e-05
-2.09637e-05
3.76406e-05
-2.28931e-05
3.73315e-05
-2.47457e-05
3.595e-05
-2.52471e-05
3.43792e-05
-2.38088e-05
3.25056e-05
-2.18068e-05
3.03343e-05
-1.83655e-05
2.83904e-05
-1.7149e-05
2.58183e-05
-1.5143e-05
2.35425e-05
-1.26928e-05
2.26899e-05
-1.45936e-05
2.13369e-05
-1.65435e-05
1.98132e-05
-1.91429e-05
1.88378e-05
-2.28539e-05
1.84583e-05
-2.4755e-05
1.91069e-05
-2.68031e-05
1.99618e-05
-3.14059e-05
2.06338e-05
-3.21503e-05
2.12215e-05
-2.48734e-05
2.11192e-05
-1.51077e-05
2.09384e-05
-8.43218e-06
2.09883e-05
2.67845e-06
2.1482e-05
1.35931e-05
2.1262e-05
2.39782e-05
2.10481e-05
3.1992e-05
2.03347e-05
4.05002e-05
1.96548e-05
4.04808e-05
1.87433e-05
3.94636e-05
1.69567e-05
3.20081e-05
1.66529e-05
3.18561e-05
1.61566e-05
4.00008e-05
1.6375e-05
4.58357e-05
1.76102e-05
4.12637e-05
1.86866e-05
2.89506e-05
1.94453e-05
1.55817e-05
2.02382e-05
-1.81442e-07
2.04528e-05
-1.05753e-05
2.11382e-05
-2.02986e-05
2.02822e-05
-3.06771e-05
1.98789e-05
-3.70526e-05
1.90934e-05
-3.95598e-05
1.69883e-05
-3.69083e-05
1.68804e-05
-2.76668e-05
1.8506e-05
-3.35227e-05
2.08963e-05
-4.15571e-05
2.17164e-05
-4.17588e-05
2.05952e-05
-3.28377e-05
1.93413e-05
-2.50542e-05
1.80494e-05
-1.7473e-05
1.69884e-05
-6.19881e-06
1.67224e-05
6.54666e-06
1.65382e-05
1.41974e-05
1.58409e-05
2.30667e-05
1.5476e-05
3.53018e-05
1.47681e-05
4.48567e-05
1.54442e-05
4.14637e-05
1.45286e-05
3.79607e-05
1.51165e-05
3.31106e-05
1.52703e-05
4.64339e-05
1.67528e-05
4.50087e-05
1.751e-05
5.24387e-05
1.91189e-05
3.28773e-05
1.8723e-05
3.57297e-05
2.13633e-05
5.6183e-06
2.06833e-05
1.7984e-05
1.84251e-05
-1.07432e-05
1.86931e-05
2.57941e-06
1.89287e-05
-2.56153e-05
1.80794e-05
-7.88387e-06
2.07989e-05
-2.49388e-05
1.90234e-05
-8.52071e-07
1.96967e-05
-1.6644e-05
1.77918e-05
-2.99769e-06
2.15682e-05
-1.71824e-05
2.1194e-05
4.94237e-06
2.24556e-05
-3.63836e-07
1.95247e-05
2.43448e-05
2.48419e-05
1.28267e-05
5.1356e-05
2.5327e-05
2.29831e-05
4.90306e-07
2.35806e-05
1.36295e-06
2.4212e-05
-1.12768e-06
2.41335e-05
-4.12117e-06
2.52505e-05
-7.04637e-06
2.54633e-05
-5.52785e-06
2.5356e-05
-3.39746e-06
2.5809e-05
-2.49151e-06
2.50326e-05
3.46111e-07
2.51236e-05
-1.59366e-07
2.52404e-05
-6.23439e-07
2.52843e-05
1.26292e-06
2.6307e-05
-1.04206e-06
2.72018e-05
-5.66666e-07
2.84261e-05
-8.28208e-07
3.00261e-05
-3.84469e-06
3.17051e-05
-4.5689e-06
3.33213e-05
-8.09038e-06
3.47654e-05
-1.22562e-05
3.65317e-05
-1.40679e-05
3.79305e-05
-1.77476e-05
3.82351e-05
-2.12683e-05
3.82017e-05
-2.28597e-05
3.74102e-05
-2.39542e-05
3.57299e-05
-2.35668e-05
3.42691e-05
-2.2348e-05
3.26007e-05
-2.01384e-05
3.0709e-05
-1.64738e-05
2.85223e-05
-1.49622e-05
2.56089e-05
-1.22296e-05
2.35191e-05
-1.0603e-05
2.2022e-05
-1.30966e-05
1.99109e-05
-1.44324e-05
1.85992e-05
-1.78312e-05
1.78084e-05
-2.2063e-05
1.69806e-05
-2.39271e-05
1.70445e-05
-2.6867e-05
1.75986e-05
-3.19599e-05
1.80345e-05
-3.25863e-05
1.81863e-05
-2.50252e-05
1.79425e-05
-1.48639e-05
1.76647e-05
-8.15433e-06
1.7766e-05
2.57719e-06
1.86932e-05
1.26659e-05
1.89122e-05
2.37592e-05
1.90819e-05
3.18223e-05
1.88298e-05
4.07523e-05
1.83869e-05
4.09237e-05
1.80601e-05
3.97904e-05
1.6438e-05
3.36302e-05
1.58848e-05
3.24093e-05
1.59654e-05
3.99203e-05
1.70896e-05
4.47115e-05
1.90243e-05
3.93289e-05
2.01192e-05
2.78557e-05
2.0922e-05
1.47789e-05
2.16716e-05
-9.31012e-07
2.18041e-05
-1.07078e-05
2.22192e-05
-2.07136e-05
2.12888e-05
-2.97468e-05
2.06211e-05
-3.63849e-05
1.90482e-05
-3.79869e-05
1.66465e-05
-3.45066e-05
1.65525e-05
-2.75728e-05
1.7372e-05
-3.43422e-05
1.94723e-05
-4.36575e-05
2.0304e-05
-4.25904e-05
1.89313e-05
-3.14649e-05
1.73342e-05
-2.34571e-05
1.56004e-05
-1.57391e-05
1.47377e-05
-5.33608e-06
1.4749e-05
6.53528e-06
1.47258e-05
1.42207e-05
1.41283e-05
2.36642e-05
1.38697e-05
3.55605e-05
1.32249e-05
4.55015e-05
1.45387e-05
4.015e-05
1.39908e-05
3.85085e-05
1.53995e-05
3.17018e-05
1.5465e-05
4.63685e-05
1.68703e-05
4.36033e-05
1.81026e-05
5.12065e-05
2.08228e-05
3.01571e-05
1.97792e-05
3.67733e-05
2.21137e-05
3.2838e-06
2.19155e-05
1.81823e-05
2.01088e-05
-8.93646e-06
1.98584e-05
2.82979e-06
2.00577e-05
-2.58146e-05
1.93193e-05
-7.14547e-06
2.04216e-05
-2.60411e-05
1.87535e-05
8.16093e-07
2.00071e-05
-1.78976e-05
1.9159e-05
-2.14964e-06
2.07983e-05
-1.88217e-05
2.06775e-05
5.06325e-06
2.70055e-05
-6.69184e-06
2.26534e-05
2.86969e-05
2.60261e-05
9.45395e-06
4.87009e-05
2.86812e-05
2.6796e-05
1.39816e-06
2.70118e-05
1.14722e-06
2.80228e-05
-2.13871e-06
2.80306e-05
-4.12902e-06
2.89505e-05
-7.96622e-06
2.94127e-05
-5.99009e-06
2.91908e-05
-3.1755e-06
2.96466e-05
-2.94735e-06
2.90762e-05
9.1657e-07
2.88866e-05
3.02166e-08
2.90519e-05
-7.8881e-07
2.91462e-05
1.16866e-06
2.97493e-05
-1.64516e-06
3.07836e-05
-1.60098e-06
3.18792e-05
-1.92382e-06
3.29405e-05
-4.90595e-06
3.44842e-05
-6.11259e-06
3.57664e-05
-9.37264e-06
3.65483e-05
-1.3038e-05
3.7902e-05
-1.54216e-05
3.86266e-05
-1.84721e-05
3.80977e-05
-2.07394e-05
3.77476e-05
-2.25096e-05
3.70532e-05
-2.32599e-05
3.56572e-05
-2.21708e-05
3.4356e-05
-2.10468e-05
3.28006e-05
-1.8583e-05
3.09263e-05
-1.45996e-05
2.84394e-05
-1.24752e-05
2.56026e-05
-9.39286e-06
2.3621e-05
-8.6214e-06
2.15122e-05
-1.09877e-05
1.92105e-05
-1.21307e-05
1.77154e-05
-1.63362e-05
1.62865e-05
-2.06341e-05
1.50992e-05
-2.27399e-05
1.47974e-05
-2.65652e-05
1.50037e-05
-3.21663e-05
1.52591e-05
-3.28416e-05
1.52061e-05
-2.49722e-05
1.49065e-05
-1.45643e-05
1.44833e-05
-7.73115e-06
1.45757e-05
2.48485e-06
1.5743e-05
1.14986e-05
1.62608e-05
2.32414e-05
1.66292e-05
3.1454e-05
1.68278e-05
4.05536e-05
1.67982e-05
4.09533e-05
1.7171e-05
3.94175e-05
1.60816e-05
3.47197e-05
1.52731e-05
3.32177e-05
1.54523e-05
3.97411e-05
1.72939e-05
4.28699e-05
1.99109e-05
3.6712e-05
2.13249e-05
2.64417e-05
2.24321e-05
1.36718e-05
2.30275e-05
-1.52645e-06
2.3081e-05
-1.07613e-05
2.31314e-05
-2.0764e-05
2.21824e-05
-2.87978e-05
2.12264e-05
-3.54289e-05
1.89206e-05
-3.56811e-05
1.64202e-05
-3.20062e-05
1.61306e-05
-2.72832e-05
1.60938e-05
-3.43054e-05
1.74258e-05
-4.49894e-05
1.78534e-05
-4.3018e-05
1.6642e-05
-3.02536e-05
1.52962e-05
-2.21113e-05
1.36037e-05
-1.40466e-05
1.28166e-05
-4.54902e-06
1.2692e-05
6.65993e-06
1.26373e-05
1.42753e-05
1.22238e-05
2.40777e-05
1.26104e-05
3.51738e-05
1.21387e-05
4.59732e-05
1.39242e-05
3.83644e-05
1.37852e-05
3.86475e-05
1.60534e-05
2.94337e-05
1.61323e-05
4.62895e-05
1.8067e-05
4.16686e-05
1.90594e-05
5.02141e-05
2.25545e-05
2.6662e-05
2.13049e-05
3.80229e-05
2.26774e-05
1.91127e-06
2.25298e-05
1.83299e-05
2.22337e-05
-8.6404e-06
2.16533e-05
3.41022e-06
2.24915e-05
-2.66528e-05
2.19058e-05
-6.55982e-06
2.00608e-05
-2.4196e-05
1.95363e-05
1.34056e-06
2.09587e-05
-1.93201e-05
1.92264e-05
-4.17334e-07
2.08796e-05
-2.04749e-05
1.85121e-05
7.43079e-06
2.46893e-05
-1.2869e-05
2.5671e-05
2.77152e-05
2.86095e-05
6.51539e-06
4.61517e-05
3.11587e-05
2.97797e-05
2.10327e-06
3.0117e-05
8.09914e-07
3.1238e-05
-3.25974e-06
3.14569e-05
-4.34794e-06
3.17632e-05
-8.27249e-06
3.2083e-05
-6.3099e-06
3.18972e-05
-2.98967e-06
3.20318e-05
-3.08202e-06
3.18179e-05
1.13047e-06
3.14004e-05
4.47747e-07
3.14619e-05
-8.50336e-07
3.18611e-05
7.69488e-07
3.20769e-05
-1.86094e-06
3.30038e-05
-2.52792e-06
3.40798e-05
-2.99975e-06
3.47573e-05
-5.58345e-06
3.60175e-05
-7.37278e-06
3.69104e-05
-1.02656e-05
3.72124e-05
-1.334e-05
3.80052e-05
-1.62144e-05
3.8073e-05
-1.854e-05
3.72829e-05
-1.99492e-05
3.70367e-05
-2.22634e-05
3.66638e-05
-2.2887e-05
3.55631e-05
-2.10701e-05
3.43262e-05
-1.98099e-05
3.27281e-05
-1.69849e-05
3.05988e-05
-1.24703e-05
2.77869e-05
-9.66335e-06
2.49498e-05
-6.5557e-06
2.28229e-05
-6.49457e-06
2.04873e-05
-8.65208e-06
1.80943e-05
-9.73769e-06
1.60668e-05
-1.43087e-05
1.42348e-05
-1.88021e-05
1.29388e-05
-2.14439e-05
1.22532e-05
-2.58796e-05
1.19529e-05
-3.1866e-05
1.19138e-05
-3.28024e-05
1.19408e-05
-2.49993e-05
1.20689e-05
-1.46924e-05
1.17128e-05
-7.37502e-06
1.18421e-05
2.35546e-06
1.29702e-05
1.03705e-05
1.36386e-05
2.25729e-05
1.42785e-05
3.08141e-05
1.51481e-05
3.9684e-05
1.55462e-05
4.05551e-05
1.61984e-05
3.87654e-05
1.56629e-05
3.52552e-05
1.47738e-05
3.41068e-05
1.49633e-05
3.95516e-05
1.72161e-05
4.06171e-05
2.02882e-05
3.36398e-05
2.21976e-05
2.45324e-05
2.38325e-05
1.20368e-05
2.42724e-05
-1.96627e-06
2.42648e-05
-1.07538e-05
2.38796e-05
-2.03788e-05
2.28347e-05
-2.77529e-05
2.13488e-05
-3.39429e-05
1.86387e-05
-3.2971e-05
1.61009e-05
-2.94684e-05
1.52698e-05
-2.64522e-05
1.44532e-05
-3.34888e-05
1.46794e-05
-4.52156e-05
1.46352e-05
-4.29738e-05
1.40237e-05
-2.96421e-05
1.31473e-05
-2.12349e-05
1.16303e-05
-1.25297e-05
1.08065e-05
-3.72523e-06
1.04572e-05
7.00928e-06
1.10756e-05
1.36569e-05
1.06589e-05
2.44944e-05
1.10317e-05
3.48011e-05
1.10879e-05
4.5917e-05
1.33001e-05
3.61522e-05
1.31479e-05
3.87997e-05
1.57596e-05
2.6822e-05
1.62314e-05
4.58177e-05
1.93428e-05
3.85571e-05
2.00582e-05
4.94987e-05
2.35364e-05
2.31838e-05
2.27874e-05
3.87719e-05
2.35718e-05
1.12679e-06
2.32898e-05
1.86119e-05
2.36707e-05
-9.02132e-06
2.33795e-05
3.70147e-06
2.43638e-05
-2.76371e-05
2.34123e-05
-5.60836e-06
2.18647e-05
-2.26484e-05
2.14747e-05
1.73056e-06
2.19958e-05
-1.98412e-05
2.11888e-05
3.89622e-07
2.30596e-05
-2.23456e-05
1.98163e-05
1.06741e-05
2.12186e-05
-1.42713e-05
2.43087e-05
2.4625e-05
2.95721e-05
1.25206e-06
4.24276e-05
3.32961e-05
3.14769e-05
1.69175e-06
3.25466e-05
-2.5974e-07
3.36096e-05
-4.32278e-06
3.40368e-05
-4.77511e-06
3.35262e-05
-7.7619e-06
3.33154e-05
-6.09911e-06
3.30771e-05
-2.75136e-06
3.26646e-05
-2.66955e-06
3.27403e-05
1.05479e-06
3.23676e-05
8.20516e-07
3.23482e-05
-8.31029e-07
3.31801e-05
-6.23667e-08
3.34241e-05
-2.10492e-06
3.41854e-05
-3.28927e-06
3.5131e-05
-3.94532e-06
3.54409e-05
-5.89333e-06
3.62579e-05
-8.18978e-06
3.683e-05
-1.08377e-05
3.68619e-05
-1.33719e-05
3.71645e-05
-1.6517e-05
3.70778e-05
-1.84533e-05
3.67665e-05
-1.9638e-05
3.67554e-05
-2.22522e-05
3.6329e-05
-2.24606e-05
3.53014e-05
-2.00426e-05
3.39149e-05
-1.84233e-05
3.19831e-05
-1.50531e-05
2.97814e-05
-1.02687e-05
2.70023e-05
-6.88423e-06
2.40684e-05
-3.62174e-06
2.16568e-05
-4.08304e-06
1.89682e-05
-5.96349e-06
1.61231e-05
-6.89255e-06
1.38868e-05
-1.20725e-05
1.23013e-05
-1.72166e-05
1.09871e-05
-2.01297e-05
9.91635e-06
-2.48088e-05
9.07347e-06
-3.10231e-05
8.62787e-06
-3.23568e-05
8.66843e-06
-2.50399e-05
9.21394e-06
-1.52379e-05
9.09352e-06
-7.2546e-06
9.29888e-06
2.1501e-06
1.02215e-05
9.44792e-06
1.08378e-05
2.19566e-05
1.15702e-05
3.00817e-05
1.28331e-05
3.84211e-05
1.37556e-05
3.96327e-05
1.49327e-05
3.75882e-05
1.52797e-05
3.49082e-05
1.4634e-05
3.47525e-05
1.49473e-05
3.92384e-05
1.75171e-05
3.80472e-05
2.07339e-05
3.0423e-05
2.29157e-05
2.23506e-05
2.49079e-05
1.00447e-05
2.52161e-05
-2.27448e-06
2.50903e-05
-1.0628e-05
2.44343e-05
-1.97228e-05
2.33194e-05
-2.66381e-05
2.12357e-05
-3.18592e-05
1.81831e-05
-2.99184e-05
1.55254e-05
-2.68107e-05
1.38908e-05
-2.48175e-05
1.24608e-05
-3.20588e-05
1.1747e-05
-4.45018e-05
1.15607e-05
-4.27875e-05
1.13454e-05
-2.94268e-05
1.11197e-05
-2.10091e-05
9.91803e-06
-1.13281e-05
9.11026e-06
-2.91746e-06
9.01353e-06
7.106e-06
9.88292e-06
1.27875e-05
8.60433e-06
2.5773e-05
9.12794e-06
3.42775e-05
9.83725e-06
4.52077e-05
1.24374e-05
3.35521e-05
1.23306e-05
3.89065e-05
1.50948e-05
2.40579e-05
1.59995e-05
4.49129e-05
2.00294e-05
3.45273e-05
2.03504e-05
4.91777e-05
2.36194e-05
1.99148e-05
2.3536e-05
3.88553e-05
2.44741e-05
1.88739e-07
2.42133e-05
1.88728e-05
2.46831e-05
-9.49115e-06
2.50481e-05
3.33644e-06
2.50896e-05
-2.76786e-05
2.41375e-05
-4.65633e-06
2.28956e-05
-2.14064e-05
2.23558e-05
2.27027e-06
2.28968e-05
-2.03822e-05
2.30245e-05
2.61924e-07
2.42077e-05
-2.35287e-05
2.34797e-05
1.14021e-05
2.20255e-05
-1.28172e-05
2.2279e-05
2.43715e-05
2.67046e-05
-3.17353e-06
3.59803e-05
3.3152e-05
3.35931e-05
9.73784e-07
3.42883e-05
-9.54949e-07
3.47229e-05
-4.75733e-06
3.49937e-05
-5.04593e-06
3.37706e-05
-6.53879e-06
3.28721e-05
-5.20057e-06
3.24021e-05
-2.28139e-06
3.1615e-05
-1.88246e-06
3.20225e-05
6.4728e-07
3.21716e-05
6.71425e-07
3.23428e-05
-1.0022e-06
3.35338e-05
-1.25335e-06
3.40355e-05
-2.60667e-06
3.45551e-05
-3.8089e-06
3.5198e-05
-4.58814e-06
3.54372e-05
-6.1326e-06
3.59909e-05
-8.74341e-06
3.62668e-05
-1.11136e-05
3.62295e-05
-1.33347e-05
3.63045e-05
-1.65919e-05
3.63775e-05
-1.85263e-05
3.66197e-05
-1.98802e-05
3.65024e-05
-2.2135e-05
3.55636e-05
-2.15217e-05
3.44139e-05
-1.88928e-05
3.27267e-05
-1.67362e-05
3.03009e-05
-1.26273e-05
2.79295e-05
-7.89725e-06
2.51838e-05
-4.13855e-06
2.25427e-05
-9.80705e-07
2.01172e-05
-1.65746e-06
1.70155e-05
-2.86185e-06
1.39378e-05
-3.8148e-06
1.18267e-05
-9.96143e-06
1.04357e-05
-1.58255e-05
8.83672e-06
-1.85308e-05
7.27376e-06
-2.32458e-05
5.89228e-06
-2.96416e-05
5.17018e-06
-3.16347e-05
5.47989e-06
-2.53496e-05
6.36519e-06
-1.61232e-05
6.54667e-06
-7.43607e-06
6.8899e-06
1.80686e-06
7.52971e-06
8.80812e-06
8.08943e-06
2.13969e-05
9.03514e-06
2.9136e-05
1.07913e-05
3.6665e-05
1.26027e-05
3.78213e-05
1.40219e-05
3.6169e-05
1.46884e-05
3.42417e-05
1.44466e-05
3.49943e-05
1.51962e-05
3.84888e-05
1.80917e-05
3.51517e-05
2.13658e-05
2.71489e-05
2.36083e-05
2.0108e-05
2.55962e-05
8.05682e-06
2.58471e-05
-2.52535e-06
2.55742e-05
-1.03552e-05
2.48321e-05
-1.89806e-05
2.36966e-05
-2.55026e-05
2.10934e-05
-2.9256e-05
1.77873e-05
-2.66123e-05
1.48228e-05
-2.38462e-05
1.23355e-05
-2.23302e-05
1.03967e-05
-3.01201e-05
9.38729e-06
-4.34924e-05
9.23123e-06
-4.26314e-05
9.08963e-06
-2.92852e-05
8.8544e-06
-2.07739e-05
7.34878e-06
-9.82243e-06
6.80434e-06
-2.37303e-06
7.09819e-06
6.81215e-06
7.59575e-06
1.229e-05
6.34441e-06
2.70244e-05
7.71779e-06
3.29041e-05
8.46977e-06
4.44557e-05
1.1676e-05
3.03459e-05
1.21854e-05
3.8397e-05
1.53227e-05
2.09206e-05
1.63482e-05
4.38875e-05
2.08985e-05
2.9977e-05
2.04311e-05
4.96451e-05
2.34398e-05
1.69061e-05
2.40196e-05
3.82755e-05
2.5185e-05
-9.76646e-07
2.52364e-05
1.88213e-05
2.60937e-05
-1.03484e-05
2.68921e-05
2.53801e-06
2.59389e-05
-2.67253e-05
2.49422e-05
-3.65966e-06
2.30474e-05
-1.95116e-05
2.37624e-05
1.5553e-06
2.40661e-05
-2.06859e-05
2.48723e-05
-5.4426e-07
2.50533e-05
-2.37097e-05
2.55949e-05
1.08605e-05
2.31645e-05
-1.03868e-05
2.21432e-05
2.53929e-05
2.3379e-05
-4.40933e-06
2.85427e-05
3.08166e-05
3.50426e-05
-1.05798e-07
3.54492e-05
-1.3615e-06
3.49354e-05
-4.24353e-06
3.44671e-05
-4.57764e-06
3.27212e-05
-4.79294e-06
3.15311e-05
-4.01047e-06
3.11048e-05
-1.85505e-06
3.05225e-05
-1.3002e-06
3.13819e-05
-2.12166e-07
3.22958e-05
-2.42468e-07
3.29089e-05
-1.61529e-06
3.39391e-05
-2.28355e-06
3.42666e-05
-2.93419e-06
3.44267e-05
-3.96898e-06
3.4819e-05
-4.98038e-06
3.51812e-05
-6.49487e-06
3.54539e-05
-9.01609e-06
3.55686e-05
-1.12284e-05
3.58384e-05
-1.36045e-05
3.6107e-05
-1.68605e-05
3.6239e-05
-1.86583e-05
3.61101e-05
-1.97514e-05
3.52093e-05
-2.12342e-05
3.37729e-05
-2.00853e-05
3.22884e-05
-1.74083e-05
3.01802e-05
-1.4628e-05
2.76905e-05
-1.01375e-05
2.54961e-05
-5.70289e-06
2.30165e-05
-1.65897e-06
2.06506e-05
1.38526e-06
1.81047e-05
8.88426e-07
1.48825e-05
3.6031e-07
1.18037e-05
-7.36024e-07
9.7576e-06
-7.91529e-06
8.56708e-06
-1.46349e-05
6.94116e-06
-1.69049e-05
5.11788e-06
-2.14226e-05
3.24115e-06
-2.77649e-05
2.05357e-06
-3.04471e-05
2.28658e-06
-2.55826e-05
3.10217e-06
-1.69388e-05
3.44452e-06
-7.77842e-06
4.07747e-06
1.17392e-06
4.65784e-06
8.22775e-06
5.23285e-06
2.08219e-05
6.53135e-06
2.78375e-05
8.52251e-06
3.46738e-05
1.08421e-05
3.55016e-05
1.25212e-05
3.449e-05
1.38432e-05
3.29197e-05
1.4338e-05
3.44994e-05
1.55231e-05
3.73037e-05
1.86332e-05
3.20416e-05
2.18816e-05
2.39005e-05
2.41724e-05
1.78172e-05
2.59667e-05
6.26261e-06
2.62136e-05
-2.77231e-06
2.59205e-05
-1.00621e-05
2.51078e-05
-1.81679e-05
2.3677e-05
-2.40718e-05
2.062e-05
-2.6199e-05
1.72408e-05
-2.32331e-05
1.39119e-05
-2.05172e-05
1.1016e-05
-1.94344e-05
8.80669e-06
-2.79108e-05
7.84744e-06
-4.25331e-05
7.63468e-06
-4.24187e-05
7.13058e-06
-2.87811e-05
6.57298e-06
-2.02163e-05
5.46456e-06
-8.71401e-06
5.48608e-06
-2.39455e-06
5.56425e-06
6.73398e-06
5.77137e-06
1.20829e-05
4.77567e-06
2.80201e-05
6.30375e-06
3.1376e-05
7.49341e-06
4.32661e-05
1.13564e-05
2.64829e-05
1.19379e-05
3.78156e-05
1.54831e-05
1.73753e-05
1.63888e-05
4.29818e-05
2.16375e-05
2.47283e-05
2.09599e-05
5.03227e-05
2.35644e-05
1.43016e-05
2.46076e-05
3.72322e-05
2.58095e-05
-2.17859e-06
2.62509e-05
1.83799e-05
2.71187e-05
-1.12161e-05
2.82457e-05
1.411e-06
2.65709e-05
-2.50506e-05
2.55825e-05
-2.67128e-06
2.35547e-05
-1.74837e-05
2.58981e-05
-7.88101e-07
2.56695e-05
-2.04573e-05
2.67139e-05
-1.58872e-06
2.44381e-05
-2.14339e-05
2.52458e-05
1.00528e-05
2.45688e-05
-9.70979e-06
2.45879e-05
2.53738e-05
2.34344e-05
-3.25585e-06
2.29704e-05
2.90067e-05
3.52118e-05
-7.18218e-07
3.50808e-05
-1.23051e-06
3.41942e-05
-3.35697e-06
3.34286e-05
-3.81203e-06
3.20036e-05
-3.36797e-06
3.12045e-05
-3.21137e-06
3.12216e-05
-1.87214e-06
3.12001e-05
-1.27868e-06
3.21236e-05
-1.13567e-06
3.31382e-05
-1.25709e-06
3.35541e-05
-2.03117e-06
3.39014e-05
-2.63082e-06
3.40512e-05
-3.084e-06
3.40727e-05
-3.99042e-06
3.4237e-05
-5.14476e-06
3.45665e-05
-6.8243e-06
3.47824e-05
-9.23201e-06
3.50217e-05
-1.14677e-05
3.53524e-05
-1.39352e-05
3.53656e-05
-1.68737e-05
3.51604e-05
-1.84531e-05
3.44792e-05
-1.90701e-05
3.28387e-05
-1.95937e-05
3.09631e-05
-1.82098e-05
2.91704e-05
-1.56156e-05
2.68344e-05
-1.22919e-05
2.45709e-05
-7.87413e-06
2.26366e-05
-3.76857e-06
2.04059e-05
5.71702e-07
1.83088e-05
3.48245e-06
1.58413e-05
3.35589e-06
1.26554e-05
3.54619e-06
9.58754e-06
2.33185e-06
7.65378e-06
-5.98153e-06
6.70434e-06
-1.36855e-05
5.39614e-06
-1.55967e-05
3.49869e-06
-1.95251e-05
1.19342e-06
-2.54596e-05
-5.09679e-07
-2.8744e-05
-7.01979e-07
-2.53903e-05
-3.07343e-07
-1.73334e-05
7.87534e-08
-8.16452e-06
9.31527e-07
3.21146e-07
1.53792e-06
7.62136e-06
2.21021e-06
2.01496e-05
3.85502e-06
2.61927e-05
6.29461e-06
3.22342e-05
9.51036e-06
3.22859e-05
1.18156e-05
3.21847e-05