/*--------------------------------*- C++ -*----------------------------------*\
| =========                 |                                                 |
| \\      /  F ield         | OpenFOAM: The Open Source CFD Toolbox           |
|  \\    /   O peration     | Version:  2.4.0                                 |
|   \\  /    A nd           | Web:      www.OpenFOAM.org                      |
|    \\/     M anipulation  |                                                 |
\*---------------------------------------------------------------------------*/
FoamFile
{
    version     2.0;
    format      ascii;
    class       volScalarField;
    location    "0.029";
    object      nuSgs;
}
// * * * * * * * * * * * * * * * * * * * * * * * * * * * * * * * * * * * * * //

dimensions      [0 2 -1 0 0 0 0];

internalField   nonuniform List<scalar> 
17600
(
0.00101318
0.00090427
0.000752388
0.00065841
0.000608388
0.000570087
0.000546218
0.000519674
0.000509241
0.000491167
0.000482632
0.00047323
0.000466439
0.000459113
0.000449324
0.000438329
0.000434927
0.000427325
0.000422332
0.000407215
0.000705858
0.000827597
0.000803274
0.000745708
0.000700026
0.000657493
0.00063182
0.000601982
0.000588936
0.000568218
0.000556765
0.000546866
0.000537909
0.000530434
0.000521314
0.000508656
0.000506264
0.000500847
0.000491072
0.000502826
0.000382663
0.000602165
0.000664443
0.00066046
0.000646123
0.000616515
0.000598852
0.000574482
0.00056234
0.000545892
0.000533685
0.000525358
0.00051629
0.00050965
0.000504216
0.000492524
0.00048951
0.000487158
0.000475421
0.000486754
0.000151653
0.00036354
0.00046207
0.000504432
0.000527958
0.000526139
0.000523543
0.000514074
0.000505606
0.00049727
0.000487243
0.00048158
0.000474571
0.000468727
0.000466682
0.000459541
0.000454953
0.000454045
0.000446279
0.000444304
5.37146e-05
0.000172032
0.000269005
0.000322223
0.000372324
0.000394719
0.000414594
0.000421447
0.000422103
0.00042409
0.000422047
0.000419849
0.000417517
0.000413904
0.000414805
0.000413156
0.000409716
0.000408275
0.000407713
0.000399846
1.74512e-05
7.01341e-05
0.000130553
0.000165505
0.000216081
0.000247241
0.000279574
0.000303545
0.000312496
0.000327706
0.000334637
0.000338028
0.000342743
0.000343773
0.000348283
0.000351795
0.000352291
0.000351433
0.000354869
0.000349694
5.59794e-06
2.67549e-05
5.35487e-05
7.16881e-05
9.96464e-05
0.000125878
0.000152474
0.000183467
0.00019492
0.000215203
0.000230768
0.000238513
0.000250675
0.000255984
0.000265492
0.000275814
0.000280595
0.000282447
0.000288702
0.000287755
2.32231e-06
9.94147e-06
2.0043e-05
2.73441e-05
3.73093e-05
5.27832e-05
6.60879e-05
8.99525e-05
9.98087e-05
0.000115682
0.000132684
0.000139702
0.000153606
0.00016202
0.000172088
0.000188459
0.000195247
0.000202401
0.000210259
0.000213715
1.69532e-06
3.93849e-06
8.05289e-06
1.02805e-05
1.31682e-05
1.84082e-05
2.41226e-05
3.57035e-05
4.15171e-05
5.06249e-05
6.27611e-05
6.71161e-05
7.61106e-05
8.36901e-05
9.09373e-05
0.000106523
0.000112472
0.000121275
0.000129219
0.000135667
1.61124e-06
2.2507e-06
4.16869e-06
4.81315e-06
5.43331e-06
6.55042e-06
8.25337e-06
1.23325e-05
1.48466e-05
1.88494e-05
2.48149e-05
2.66534e-05
3.07829e-05
3.44333e-05
3.88153e-05
4.87421e-05
5.2745e-05
5.77032e-05
6.56019e-05
7.10325e-05
1.59266e-06
1.93026e-06
2.77779e-06
3.33511e-06
3.47427e-06
3.58109e-06
3.82502e-06
4.73217e-06
5.56428e-06
7.10418e-06
9.27328e-06
9.77756e-06
1.1036e-05
1.21682e-05
1.39416e-05
1.81501e-05
2.00217e-05
2.22088e-05
2.74839e-05
3.01662e-05
1.58322e-06
1.85424e-06
2.38955e-06
2.87563e-06
2.94326e-06
2.95194e-06
2.95712e-06
3.04515e-06
3.26658e-06
3.77572e-06
4.45648e-06
4.58337e-06
4.84922e-06
5.03509e-06
5.41033e-06
6.47584e-06
7.0187e-06
7.84131e-06
1.01812e-05
1.09462e-05
1.56488e-06
1.81151e-06
2.22622e-06
2.60191e-06
2.6964e-06
2.70528e-06
2.6863e-06
2.70109e-06
2.75538e-06
2.91605e-06
3.25335e-06
3.33849e-06
3.39965e-06
3.41426e-06
3.44486e-06
3.54784e-06
3.64644e-06
3.87564e-06
4.54577e-06
4.78569e-06
1.5495e-06
1.75946e-06
2.05912e-06
2.43377e-06
2.5122e-06
2.52109e-06
2.52438e-06
2.51986e-06
2.52612e-06
2.6203e-06
2.82247e-06
2.89268e-06
2.94941e-06
2.95119e-06
2.94353e-06
2.95436e-06
2.98719e-06
3.08829e-06
3.28683e-06
3.52816e-06
1.53239e-06
1.72533e-06
1.99055e-06
2.27292e-06
2.35056e-06
2.36461e-06
2.36305e-06
2.36282e-06
2.37337e-06
2.44452e-06
2.58873e-06
2.65621e-06
2.67697e-06
2.67274e-06
2.66866e-06
2.67476e-06
2.69021e-06
2.75612e-06
2.88613e-06
2.92502e-06
1.52498e-06
1.69822e-06
1.92347e-06
2.17992e-06
2.24183e-06
2.24575e-06
2.24786e-06
2.24794e-06
2.2551e-06
2.3189e-06
2.42696e-06
2.45836e-06
2.47139e-06
2.47187e-06
2.46513e-06
2.46597e-06
2.47641e-06
2.53547e-06
2.58486e-06
2.62606e-06
1.51735e-06
1.6789e-06
1.8906e-06
2.10009e-06
2.15225e-06
2.15562e-06
2.1529e-06
2.15329e-06
2.16502e-06
2.22846e-06
2.29556e-06
2.31661e-06
2.32337e-06
2.31973e-06
2.31177e-06
2.31274e-06
2.31912e-06
2.35258e-06
2.38579e-06
2.47457e-06
1.51363e-06
1.66625e-06
1.84993e-06
2.0498e-06
2.09366e-06
2.09105e-06
2.08916e-06
2.09026e-06
2.10034e-06
2.15868e-06
2.20459e-06
2.21379e-06
2.21641e-06
2.21353e-06
2.20404e-06
2.20159e-06
2.20358e-06
2.22564e-06
2.26086e-06
2.31369e-06
1.5101e-06
1.64993e-06
1.84389e-06
2.02042e-06
2.05434e-06
2.05056e-06
2.04393e-06
2.04515e-06
2.05972e-06
2.11564e-06
2.14323e-06
2.14882e-06
2.15022e-06
2.14368e-06
2.13261e-06
2.12913e-06
2.1295e-06
2.14454e-06
2.17199e-06
2.19884e-06
1.50881e-06
1.64636e-06
1.83138e-06
2.00313e-06
2.03637e-06
2.03136e-06
2.02516e-06
2.0284e-06
2.04281e-06
2.09341e-06
2.11589e-06
2.11818e-06
2.11837e-06
2.11173e-06
2.10111e-06
2.09534e-06
2.09435e-06
2.10654e-06
2.12674e-06
2.15095e-06
1.50834e-06
1.64005e-06
1.8425e-06
2.00641e-06
2.03775e-06
2.03375e-06
2.02492e-06
2.02798e-06
2.04326e-06
2.0942e-06
2.11613e-06
2.11835e-06
2.11915e-06
2.11153e-06
2.09912e-06
2.09453e-06
2.09342e-06
2.10696e-06
2.12494e-06
2.16045e-06
1.50952e-06
1.64539e-06
1.85224e-06
2.01876e-06
2.05685e-06
2.0551e-06
2.04617e-06
2.05041e-06
2.06451e-06
2.11662e-06
2.14762e-06
2.15047e-06
2.1515e-06
2.14478e-06
2.13263e-06
2.12928e-06
2.12863e-06
2.14569e-06
2.1665e-06
2.20814e-06
1.51199e-06
1.65198e-06
1.87768e-06
2.05168e-06
2.0976e-06
2.09881e-06
2.08999e-06
2.09406e-06
2.10683e-06
2.16345e-06
2.21089e-06
2.21646e-06
2.22017e-06
2.21538e-06
2.20255e-06
2.20154e-06
2.20249e-06
2.22633e-06
2.25338e-06
2.30196e-06
1.51603e-06
1.66578e-06
1.91351e-06
2.09891e-06
2.1578e-06
2.16394e-06
2.1567e-06
2.1619e-06
2.17481e-06
2.23536e-06
2.30765e-06
2.31968e-06
2.32663e-06
2.32278e-06
2.31176e-06
2.31291e-06
2.31654e-06
2.35156e-06
2.40041e-06
2.45599e-06
1.52218e-06
1.68488e-06
1.95988e-06
2.1651e-06
2.24076e-06
2.25599e-06
2.24979e-06
2.25588e-06
2.26796e-06
2.3286e-06
2.44053e-06
2.46529e-06
2.47732e-06
2.4743e-06
2.46393e-06
2.46742e-06
2.47569e-06
2.53231e-06
2.59398e-06
2.63907e-06
1.53081e-06
1.71279e-06
2.02013e-06
2.25404e-06
2.35091e-06
2.3765e-06
2.37068e-06
2.37804e-06
2.39e-06
2.44769e-06
2.61095e-06
2.65909e-06
2.68074e-06
2.6792e-06
2.66811e-06
2.67412e-06
2.68843e-06
2.76426e-06
2.85045e-06
2.93756e-06
1.54253e-06
1.7539e-06
2.09828e-06
2.38071e-06
2.49945e-06
2.53023e-06
2.52292e-06
2.53214e-06
2.54889e-06
2.61909e-06
2.84187e-06
2.91801e-06
2.95437e-06
2.95561e-06
2.94968e-06
2.96233e-06
2.98756e-06
3.0902e-06
3.29954e-06
3.53084e-06
1.56228e-06
1.81176e-06
2.22691e-06
2.57972e-06
2.6994e-06
2.71416e-06
2.70093e-06
2.72014e-06
2.76907e-06
2.92242e-06
3.25186e-06
3.33263e-06
3.40766e-06
3.42995e-06
3.46304e-06
3.59222e-06
3.70784e-06
3.9883e-06
4.65398e-06
5.44227e-06
1.58896e-06
1.89282e-06
2.47051e-06
2.89343e-06
2.98403e-06
2.96179e-06
2.95099e-06
3.08555e-06
3.29773e-06
3.78664e-06
4.47441e-06
4.58631e-06
4.84553e-06
5.12175e-06
5.52822e-06
6.64983e-06
7.24008e-06
8.62803e-06
1.02599e-05
1.30671e-05
1.60955e-06
2.02666e-06
2.93893e-06
3.38328e-06
3.59973e-06
3.63912e-06
3.80463e-06
4.88356e-06
5.72339e-06
7.20617e-06
9.44278e-06
9.86492e-06
1.09107e-05
1.27533e-05
1.44601e-05
1.84743e-05
2.03159e-05
2.48159e-05
2.78101e-05
3.41654e-05
1.65233e-06
2.42472e-06
4.19466e-06
4.68154e-06
5.732e-06
6.60016e-06
8.1375e-06
1.2822e-05
1.53164e-05
1.89631e-05
2.52921e-05
2.68829e-05
3.02571e-05
3.593e-05
3.99671e-05
4.91276e-05
5.31116e-05
6.23104e-05
6.71628e-05
7.74757e-05
1.74557e-06
4.12082e-06
8.28309e-06
1.00669e-05
1.41664e-05
1.81526e-05
2.36611e-05
3.67029e-05
4.25908e-05
5.03773e-05
6.34765e-05
6.74756e-05
7.53532e-05
8.57463e-05
9.21929e-05
0.000107309
0.000113361
0.000126606
0.000132265
0.00014444
2.30371e-06
1.00039e-05
2.07105e-05
2.70641e-05
4.04014e-05
5.17137e-05
6.49017e-05
9.13597e-05
0.000101117
0.000114519
0.000133761
0.000140265
0.00015246
0.000164517
0.000172221
0.000190371
0.000196217
0.000208475
0.00021274
0.00022234
5.51111e-06
2.68903e-05
5.4454e-05
7.14016e-05
0.000103313
0.000124058
0.000151631
0.000184271
0.000195904
0.000213308
0.000232599
0.000239001
0.000249614
0.000257889
0.000264754
0.000278588
0.000281259
0.00028798
0.000289736
0.000294495
1.7315e-05
7.09688e-05
0.000130977
0.000164775
0.000217279
0.000246706
0.000279995
0.000303208
0.000314108
0.000325853
0.000336471
0.000338105
0.000342338
0.00034419
0.000348283
0.000353537
0.000353373
0.000354793
0.000354477
0.000355294
5.33861e-05
0.000174736
0.000267264
0.00032334
0.000372149
0.000394879
0.000414931
0.000420835
0.000423523
0.000423133
0.00042286
0.000418949
0.000417941
0.000414376
0.00041489
0.000413508
0.000411172
0.000408841
0.000406921
0.000405511
0.000150834
0.000364779
0.000460583
0.000505965
0.000527299
0.000526439
0.00052378
0.000513648
0.000507036
0.000495338
0.000489517
0.000479308
0.000476004
0.000467787
0.000466418
0.000459021
0.000456614
0.000450702
0.000448897
0.000445671
0.000380906
0.000603741
0.000663753
0.000661245
0.000645042
0.000618122
0.000598294
0.000574501
0.000563057
0.000544625
0.00053531
0.000522975
0.000518245
0.000506981
0.000504011
0.000491164
0.000489545
0.000481229
0.000479617
0.000473552
0.000705025
0.000829007
0.000802738
0.000747202
0.000697725
0.000659232
0.000630986
0.000602369
0.000588873
0.00056781
0.000557283
0.000544901
0.000539613
0.00052643
0.00052206
0.000505111
0.000504977
0.000493551
0.000492338
0.00048075
0.00101265
0.000905612
0.000751187
0.000659931
0.000606532
0.000571482
0.000545406
0.000520349
0.000508442
0.000491451
0.000482304
0.000471763
0.000467479
0.000454971
0.000450337
0.000433033
0.000433451
0.000419422
0.000418113
0.000399408
0.000181995
0.000168667
0.000135493
0.000123904
0.000123489
0.00010353
7.92807e-05
5.98889e-05
4.35174e-05
4.07892e-05
4.30339e-05
4.27317e-05
4.54888e-05
4.84877e-05
4.85064e-05
5.35846e-05
6.07744e-05
6.06801e-05
5.62857e-05
5.48337e-05
5.58307e-05
7.00066e-05
8.23637e-05
8.72978e-05
8.87263e-05
8.83315e-05
8.63964e-05
8.03616e-05
6.42273e-05
4.63976e-05
3.11984e-05
2.04708e-05
1.52128e-05
1.27172e-05
1.12174e-05
1.00191e-05
9.64121e-06
1.0509e-05
1.18412e-05
1.21406e-05
1.21584e-05
1.21213e-05
1.18737e-05
1.1382e-05
1.11279e-05
1.12547e-05
1.1835e-05
1.20321e-05
1.19563e-05
1.18262e-05
1.18098e-05
1.19387e-05
1.21129e-05
1.22024e-05
1.22118e-05
1.21027e-05
1.1148e-05
9.44601e-06
7.85951e-06
6.42736e-06
5.17834e-06
4.12571e-06
3.2608e-06
2.5633e-06
2.00917e-06
1.57387e-06
1.23452e-06
9.71051e-07
7.66704e-07
6.07952e-07
4.84187e-07
3.87244e-07
3.1091e-07
2.50486e-07
2.02416e-07
1.63998e-07
1.33169e-07
1.08342e-07
8.82873e-08
7.20436e-08
5.88572e-08
4.81319e-08
3.9394e-08
3.22654e-08
2.64428e-08
2.16823e-08
1.77868e-08
1.4597e-08
1.19835e-08
9.84106e-09
8.08403e-09
6.64255e-09
5.45956e-09
4.48844e-09
3.69105e-09
3.03617e-09
2.49822e-09
2.05623e-09
1.69303e-09
1.39453e-09
1.14917e-09
9.47451e-10
7.81608e-10
6.45244e-10
5.33115e-10
4.40916e-10
3.65108e-10
3.02799e-10
2.51599e-10
2.09544e-10
1.75064e-10
1.4681e-10
1.23706e-10
1.0496e-10
8.97006e-11
7.74717e-11
6.79255e-11
6.02196e-11
5.47697e-11
5.09097e-11
4.8142e-11
4.78514e-11
4.83888e-11
4.99465e-11
5.33409e-11
5.73838e-11
6.65272e-11
7.35517e-11
8.81406e-11
9.88054e-11
1.25814e-10
1.40846e-10
1.89511e-10
2.08357e-10
3.03724e-10
3.28181e-10
5.08564e-10
5.64489e-10
8.29739e-10
1.09005e-09
1.29464e-09
2.43916e-09
2.2688e-09
4.66972e-09
4.07826e-09
7.54925e-09
8.9961e-09
1.24091e-08
2.44966e-08
4.45785e-08
8.7946e-08
1.64628e-07
2.63156e-07
4.38565e-07
5.37777e-07
7.54554e-07
7.71662e-07
8.25867e-07
8.95567e-07
9.43819e-07
1.039e-06
1.0881e-06
1.24009e-06
1.29162e-06
1.43558e-06
1.47304e-06
1.61104e-06
1.61847e-06
1.68578e-06
1.65371e-06
1.68113e-06
1.61943e-06
1.63256e-06
1.57453e-06
1.59322e-06
1.57404e-06
1.63593e-06
1.67339e-06
1.76558e-06
1.97944e-06
2.0915e-06
2.48167e-06
2.43617e-06
2.65598e-06
2.3227e-06
2.30071e-06
2.11211e-06
2.20322e-06
2.55296e-06
2.64621e-06
2.95284e-06
3.11882e-06
3.52559e-06
4.46772e-06
5.46607e-06
7.7686e-06
1.03135e-05
1.50376e-05
3.26811e-05
0.00013942
0.000235458
0.000198344
0.000182738
0.000157749
0.000154628
0.000149817
0.000134707
0.000112461
8.27616e-05
6.52903e-05
5.35853e-05
4.65563e-05
4.56023e-05
4.40721e-05
4.44505e-05
5.3946e-05
6.21675e-05
6.16253e-05
5.6142e-05
5.31677e-05
5.51673e-05
7.50404e-05
8.60756e-05
8.58421e-05
8.35355e-05
8.12082e-05
7.61039e-05
6.1631e-05
4.27004e-05
2.93717e-05
2.08307e-05
1.52252e-05
1.27659e-05
1.16357e-05
1.08061e-05
1.00089e-05
9.60596e-06
9.97071e-06
1.11744e-05
1.15148e-05
1.16029e-05
1.17632e-05
1.18217e-05
1.15842e-05
1.11238e-05
1.10124e-05
1.14446e-05
1.21345e-05
1.23323e-05
1.2283e-05
1.21712e-05
1.21212e-05
1.21064e-05
1.20949e-05
1.20468e-05
1.18613e-05
1.10156e-05
9.43113e-06
7.88872e-06
6.47937e-06
5.24042e-06
4.18347e-06
3.30788e-06
2.60018e-06
2.03776e-06
1.59604e-06
1.25178e-06
9.84535e-07
7.7724e-07
6.16169e-07
4.90573e-07
3.92184e-07
3.14713e-07
2.53398e-07
2.04633e-07
1.65678e-07
1.34436e-07
1.09293e-07
8.89978e-08
7.25727e-08
5.92498e-08
4.84222e-08
3.96082e-08
3.2423e-08
2.65585e-08
2.1767e-08
1.78488e-08
1.46423e-08
1.20165e-08
9.86501e-09
8.1014e-09
6.65512e-09
5.46864e-09
4.49497e-09
3.69573e-09
3.0395e-09
2.50056e-09
2.05787e-09
1.69416e-09
1.39529e-09
1.14966e-09
9.47756e-10
7.81778e-10
6.45322e-10
5.33134e-10
4.40897e-10
3.65068e-10
3.02749e-10
2.51547e-10
2.09497e-10
1.75025e-10
1.4678e-10
1.23686e-10
1.04948e-10
8.96946e-11
7.74688e-11
6.79211e-11
6.02164e-11
5.476e-11
5.08947e-11
4.81188e-11
4.78206e-11
4.83573e-11
4.98909e-11
5.33937e-11
5.73308e-11
6.64319e-11
7.34662e-11
8.84916e-11
9.86813e-11
1.27082e-10
1.40706e-10
1.94896e-10
2.09098e-10
3.23775e-10
3.35697e-10
5.7963e-10
6.09566e-10
1.05445e-09
1.27727e-09
1.73927e-09
3.0199e-09
3.3267e-09
6.73516e-09
6.68372e-09
1.31273e-08
1.38092e-08
2.64779e-08
3.32258e-08
5.38599e-08
8.25805e-08
1.21687e-07
1.93923e-07
2.41546e-07
3.51215e-07
3.80623e-07
4.17674e-07
5.42015e-07
6.15214e-07
7.67943e-07
8.49426e-07
1.05254e-06
1.13532e-06
1.31035e-06
1.37298e-06
1.54961e-06
1.60412e-06
1.75871e-06
1.80195e-06
1.96233e-06
2.02361e-06
2.25846e-06
2.26358e-06
2.37915e-06
2.26203e-06
2.27111e-06
2.08816e-06
2.03489e-06
1.89719e-06
1.98875e-06
2.03764e-06
2.18003e-06
2.52876e-06
2.58523e-06
2.96126e-06
2.6559e-06
2.63548e-06
2.40243e-06
2.58907e-06
3.05912e-06
3.03737e-06
3.24068e-06
3.56438e-06
4.51341e-06
5.91518e-06
8.13875e-06
1.03596e-05
1.40464e-05
3.48494e-05
0.0001181
0.000242784
0.000211276
0.00019612
0.000177595
0.000164557
0.000162561
0.000155723
0.000147299
0.000137953
0.000118683
9.43803e-05
7.23972e-05
5.58579e-05
4.72836e-05
4.66787e-05
5.60694e-05
6.62498e-05
6.71162e-05
5.84301e-05
5.37902e-05
6.61524e-05
8.98547e-05
9.25277e-05
8.52092e-05
7.25369e-05
6.11542e-05
4.70416e-05
3.49704e-05
2.57943e-05
1.91379e-05
1.48417e-05
1.22292e-05
1.13148e-05
1.07361e-05
1.02481e-05
9.94936e-06
9.65907e-06
9.68118e-06
1.03922e-05
1.06945e-05
1.08456e-05
1.13009e-05
1.17443e-05
1.17695e-05
1.13496e-05
1.08969e-05
1.09205e-05
1.1809e-05
1.26715e-05
1.28856e-05
1.28111e-05
1.25897e-05
1.24116e-05
1.22761e-05
1.20905e-05
1.17056e-05
1.06354e-05
9.24982e-06
7.82295e-06
6.46788e-06
5.25371e-06
4.21009e-06
3.33893e-06
2.62872e-06
2.06171e-06
1.61547e-06
1.26726e-06
9.96746e-07
7.86793e-07
6.23585e-07
4.96285e-07
3.96549e-07
3.18026e-07
2.55898e-07
2.06512e-07
1.67084e-07
1.35486e-07
1.10076e-07
8.95804e-08
7.30059e-08
5.95716e-08
4.86613e-08
3.97856e-08
3.25546e-08
2.66561e-08
2.18393e-08
1.79024e-08
1.46819e-08
1.20458e-08
9.88671e-09
8.11743e-09
6.66693e-09
5.47732e-09
4.50132e-09
3.70035e-09
3.04284e-09
2.50296e-09
2.05956e-09
1.69534e-09
1.3961e-09
1.15021e-09
9.48128e-10
7.82024e-10
6.45483e-10
5.33235e-10
4.40955e-10
3.65094e-10
3.02751e-10
2.51531e-10
2.09466e-10
1.7498e-10
1.46724e-10
1.2362e-10
1.04874e-10
8.96135e-11
7.73822e-11
6.783e-11
6.01247e-11
5.46657e-11
5.07981e-11
4.80203e-11
4.77169e-11
4.82534e-11
4.97655e-11
5.33753e-11
5.72504e-11
6.62363e-11
7.32326e-11
8.88267e-11
9.8479e-11
1.28408e-10
1.40347e-10
2.01292e-10
2.0996e-10
3.49285e-10
3.46963e-10
6.75238e-10
6.80684e-10
1.34594e-09
1.61332e-09
2.30001e-09
4.23887e-09
4.53461e-09
9.56528e-09
9.13792e-09
1.5152e-08
1.64394e-08
1.88397e-08
2.72968e-08
3.10958e-08
4.12028e-08
5.72816e-08
6.50121e-08
7.74973e-08
1.35174e-07
1.77226e-07
2.9932e-07
3.74631e-07
5.56685e-07
5.89034e-07
7.20295e-07
7.61861e-07
8.45685e-07
8.9768e-07
1.0119e-06
1.08677e-06
1.25586e-06
1.33391e-06
1.52712e-06
1.6437e-06
1.92237e-06
2.04391e-06
2.36602e-06
2.43905e-06
2.80814e-06
2.83935e-06
3.09617e-06
2.91665e-06
2.91855e-06
2.59032e-06
2.4946e-06
2.29751e-06
2.38696e-06
2.57677e-06
2.75006e-06
3.35053e-06
3.02476e-06
3.15589e-06
2.84824e-06
2.99349e-06
3.62259e-06
3.50958e-06
3.71785e-06
4.31663e-06
5.42804e-06
7.61895e-06
1.17778e-05
1.40234e-05
3.44905e-05
9.61446e-05
0.000228447
0.000210723
0.000195073
0.000182052
0.000169036
0.000166514
0.000160095
0.000152663
0.000150376
0.000145192
0.000138002
0.00012311
9.514e-05
7.23524e-05
6.62753e-05
7.27913e-05
9.19071e-05
9.3084e-05
7.85392e-05
7.57561e-05
9.64873e-05
0.000103781
9.96396e-05
8.10032e-05
5.91398e-05
4.30124e-05
3.14709e-05
2.31846e-05
1.70003e-05
1.28274e-05
1.10847e-05
1.04982e-05
1.04412e-05
9.93237e-06
9.45566e-06
9.56143e-06
9.69717e-06
9.65538e-06
9.83837e-06
1.00296e-05
1.01453e-05
1.07408e-05
1.16025e-05
1.17708e-05
1.15499e-05
1.08815e-05
1.06938e-05
1.10684e-05
1.25689e-05
1.3471e-05
1.36957e-05
1.36004e-05
1.32603e-05
1.29188e-05
1.2422e-05
1.15411e-05
1.03613e-05
9.03634e-06
7.69123e-06
6.40433e-06
5.23176e-06
4.20971e-06
3.34991e-06
2.64556e-06
2.07948e-06
1.63166e-06
1.28113e-06
1.00824e-06
7.96117e-07
6.31033e-07
5.02154e-07
4.01119e-07
3.21545e-07
2.5858e-07
2.08538e-07
1.68604e-07
1.3662e-07
1.10917e-07
9.02033e-08
7.34659e-08
5.99108e-08
4.89111e-08
3.99695e-08
3.26899e-08
2.67556e-08
2.19125e-08
1.79562e-08
1.47214e-08
1.20748e-08
9.908e-09
8.13304e-09
6.67839e-09
5.48572e-09
4.50749e-09
3.70489e-09
3.04618e-09
2.50542e-09
2.06137e-09
1.69667e-09
1.39707e-09
1.15092e-09
9.48628e-10
7.8237e-10
6.45711e-10
5.33374e-10
4.41025e-10
3.65108e-10
3.02724e-10
2.51475e-10
2.09389e-10
1.74887e-10
1.4662e-10
1.23511e-10
1.04763e-10
8.95013e-11
7.72664e-11
6.7716e-11
6.00133e-11
5.4547e-11
5.06781e-11
4.78989e-11
4.75877e-11
4.8122e-11
4.96489e-11
5.30752e-11
5.70582e-11
6.63298e-11
7.28462e-11
8.87977e-11
9.82737e-11
1.29893e-10
1.39593e-10
2.08812e-10
2.11238e-10
3.79512e-10
3.58634e-10
8.1532e-10
7.73873e-10
1.94621e-09
2.24865e-09
3.8376e-09
6.82057e-09
8.53167e-09
1.95822e-08
2.01731e-08
4.00975e-08
4.76118e-08
6.66003e-08
1.05371e-07
1.40145e-07
2.07412e-07
3.02271e-07
3.34923e-07
4.94325e-07
5.14794e-07
6.24436e-07
6.60637e-07
7.64519e-07
7.71304e-07
8.05078e-07
8.03765e-07
7.94982e-07
8.14204e-07
8.22502e-07
8.4596e-07
8.62264e-07
9.19673e-07
9.47532e-07
1.02006e-06
1.0909e-06
1.21618e-06
1.36787e-06
1.57824e-06
2.01681e-06
2.24881e-06
2.73173e-06
2.90325e-06
3.46651e-06
3.50625e-06
3.82726e-06
3.53775e-06
3.39671e-06
2.87074e-06
2.82838e-06
2.83722e-06
3.02137e-06
3.60436e-06
3.39596e-06
3.43191e-06
3.15754e-06
3.41651e-06
4.00106e-06
4.08533e-06
4.6222e-06
6.21346e-06
7.28234e-06
1.28232e-05
1.42285e-05
3.33211e-05
7.79663e-05
0.000204689
0.000191799
0.000181833
0.000171091
0.000161208
0.000159858
0.000157679
0.000150669
0.000148049
0.000145624
0.000143029
0.000139751
0.000133592
0.000120453
0.000110577
0.000110909
0.000115001
0.000117213
0.000116642
0.000116931
0.00011639
0.000112261
9.54311e-05
7.09052e-05
4.92088e-05
3.24366e-05
2.17538e-05
1.55333e-05
1.14073e-05
9.05437e-06
8.8959e-06
9.49865e-06
9.70428e-06
9.26782e-06
8.79435e-06
8.91508e-06
9.64699e-06
9.68113e-06
9.58168e-06
9.6304e-06
9.80096e-06
1.02798e-05
1.13221e-05
1.16526e-05
1.15379e-05
1.0904e-05
1.05875e-05
1.06331e-05
1.17823e-05
1.34163e-05
1.40894e-05
1.42126e-05
1.41602e-05
1.38811e-05
1.29281e-05
1.17001e-05
1.03676e-05
8.98434e-06
7.61976e-06
6.33969e-06
5.18973e-06
4.18986e-06
3.34496e-06
2.64917e-06
2.0879e-06
1.64177e-06
1.29106e-06
1.01713e-06
8.03678e-07
6.37262e-07
5.07174e-07
4.05098e-07
3.24655e-07
2.60985e-07
2.10379e-07
1.70003e-07
1.37675e-07
1.11709e-07
9.0794e-08
7.39053e-08
6.02368e-08
4.91525e-08
4.01479e-08
3.28217e-08
2.68529e-08
2.19843e-08
1.80091e-08
1.47605e-08
1.21037e-08
9.92929e-09
8.14875e-09
6.68998e-09
5.49427e-09
4.51378e-09
3.7095e-09
3.04955e-09
2.50786e-09
2.06313e-09
1.69792e-09
1.39794e-09
1.15149e-09
9.48997e-10
7.82587e-10
6.45818e-10
5.33404e-10
4.41002e-10
3.65051e-10
3.02644e-10
2.51381e-10
2.09284e-10
1.74774e-10
1.46501e-10
1.2339e-10
1.04636e-10
8.93698e-11
7.71327e-11
6.75795e-11
5.98751e-11
5.44012e-11
5.05316e-11
4.77468e-11
4.74237e-11
4.79537e-11
4.94604e-11
5.28719e-11
5.67903e-11
6.61921e-11
7.2651e-11
8.89053e-11
9.78049e-11
1.31373e-10
1.39189e-10
2.16741e-10
2.13153e-10
4.14688e-10
3.74328e-10
9.99351e-10
9.07567e-10
2.82081e-09
3.0676e-09
6.96694e-09
1.02761e-08
1.56798e-08
2.97389e-08
3.72802e-08
7.20317e-08
8.47803e-08
1.40226e-07
1.67039e-07
2.33361e-07
2.62492e-07
3.17493e-07
3.81534e-07
4.55945e-07
6.16371e-07
6.74628e-07
7.9215e-07
8.01249e-07
8.15583e-07
8.72145e-07
9.02914e-07
9.82604e-07
9.90212e-07
1.03402e-06
1.05012e-06
1.12134e-06
1.12354e-06
1.17275e-06
1.17358e-06
1.21666e-06
1.22848e-06
1.29278e-06
1.32304e-06
1.39432e-06
1.49646e-06
1.73276e-06
2.16435e-06
2.54851e-06
3.28408e-06
3.53462e-06
4.28586e-06
4.23768e-06
4.46246e-06
3.85248e-06
3.49668e-06
3.17719e-06
3.34432e-06
3.95696e-06
3.80459e-06
4.46196e-06
3.86957e-06
4.03666e-06
4.31738e-06
4.65484e-06
6.52853e-06
7.28223e-06
1.46527e-05
1.49622e-05
3.12673e-05
6.39916e-05
0.000180551
0.000169815
0.000162231
0.000153584
0.000143705
0.000141815
0.000142936
0.000142464
0.000138552
0.0001374
0.000136842
0.000136035
0.000135006
0.000133621
0.000129633
0.000123007
0.000120376
0.000121507
0.000124744
0.000124128
0.000120275
0.000104545
7.6892e-05
5.2031e-05
3.29698e-05
2.12674e-05
1.43804e-05
1.03284e-05
8.04295e-06
7.11546e-06
7.15817e-06
8.4135e-06
8.76658e-06
8.57957e-06
8.43021e-06
8.59863e-06
9.49801e-06
9.61581e-06
9.39284e-06
9.36302e-06
9.67671e-06
1.01507e-05
1.08598e-05
1.1221e-05
1.12257e-05
1.08694e-05
1.0539e-05
1.04793e-05
1.07079e-05
1.23139e-05
1.37522e-05
1.42424e-05
1.42875e-05
1.41628e-05
1.36514e-05
1.22085e-05
1.06215e-05
9.07995e-06
7.63677e-06
6.32489e-06
5.16498e-06
4.16762e-06
3.3315e-06
2.64428e-06
2.08902e-06
1.64673e-06
1.29783e-06
1.02424e-06
8.10309e-07
6.43025e-07
5.11964e-07
4.08959e-07
3.27702e-07
2.63349e-07
2.12192e-07
1.71379e-07
1.38713e-07
1.12487e-07
9.13749e-08
7.43375e-08
6.05577e-08
4.93902e-08
4.03239e-08
3.29517e-08
2.6949e-08
2.20552e-08
1.80614e-08
1.47991e-08
1.21321e-08
9.95018e-09
8.16409e-09
6.70122e-09
5.50249e-09
4.51978e-09
3.71385e-09
3.05269e-09
2.51012e-09
2.06474e-09
1.69905e-09
1.39873e-09
1.15204e-09
9.49363e-10
7.82817e-10
6.45947e-10
5.33458e-10
4.40998e-10
3.65e-10
3.02559e-10
2.51272e-10
2.09158e-10
1.74632e-10
1.46349e-10
1.23233e-10
1.04476e-10
8.92054e-11
7.69632e-11
6.74106e-11
5.97085e-11
5.42232e-11
5.03533e-11
4.75663e-11
4.72332e-11
4.77563e-11
4.92217e-11
5.29534e-11
5.688e-11
6.57129e-11
7.21242e-11
8.91552e-11
9.74617e-11
1.32596e-10
1.38768e-10
2.24371e-10
2.15818e-10
4.57697e-10
4.02245e-10
1.23267e-09
1.11895e-09
3.88556e-09
4.22509e-09
1.04575e-08
1.49747e-08
2.32691e-08
4.3035e-08
5.35477e-08
9.59509e-08
1.14803e-07
1.55257e-07
2.33261e-07
2.61748e-07
4.08547e-07
4.39294e-07
5.17294e-07
6.00219e-07
5.94332e-07
6.0717e-07
6.74968e-07
7.43693e-07
7.82674e-07
8.67462e-07
9.92699e-07
1.04575e-06
1.15087e-06
1.20079e-06
1.30897e-06
1.37286e-06
1.50988e-06
1.55948e-06
1.69966e-06
1.73143e-06
1.84563e-06
1.79889e-06
1.79287e-06
1.70786e-06
1.71332e-06
1.72729e-06
1.78351e-06
1.87082e-06
2.19264e-06
2.54045e-06
3.14224e-06
4.15041e-06
4.34397e-06
5.20746e-06
4.70706e-06
4.50312e-06
3.77563e-06
3.91273e-06
4.04084e-06
4.35583e-06
4.96655e-06
4.83275e-06
5.20472e-06
5.04027e-06
7.49664e-06
7.81273e-06
1.9585e-05
1.68857e-05
2.96099e-05
5.34825e-05
0.000151382
0.000144148
0.00013908
0.000131198
0.000122239
0.000119003
0.000119789
0.000122324
0.000122414
0.000120801
0.000120476
0.000120537
0.000122422
0.000125323
0.000124666
0.000120527
0.000111875
0.000109921
0.000109854
0.000107879
0.000101001
7.5904e-05
5.10068e-05
3.3435e-05
2.15871e-05
1.40948e-05
9.56626e-06
7.18e-06
6.38002e-06
6.26304e-06
6.28129e-06
7.25467e-06
7.80299e-06
8.0586e-06
8.18274e-06
8.44913e-06
9.16182e-06
9.22273e-06
9.04358e-06
9.08356e-06
9.80392e-06
1.01748e-05
1.02466e-05
1.04106e-05
1.05316e-05
1.05391e-05
1.0422e-05
1.03516e-05
1.03912e-05
1.08421e-05
1.21852e-05
1.326e-05
1.37792e-05
1.38736e-05
1.37213e-05
1.27334e-05
1.10242e-05
9.32881e-06
7.76265e-06
6.37336e-06
5.17447e-06
4.16215e-06
3.3229e-06
2.63817e-06
2.08704e-06
1.64824e-06
1.30161e-06
1.02912e-06
8.15406e-07
6.47789e-07
5.16124e-07
4.1243e-07
3.30506e-07
2.65564e-07
2.13911e-07
1.72697e-07
1.39712e-07
1.1324e-07
9.1939e-08
7.47582e-08
6.08704e-08
4.96221e-08
4.04955e-08
3.30786e-08
2.70426e-08
2.21243e-08
1.81123e-08
1.48366e-08
1.21597e-08
9.97047e-09
8.179e-09
6.71217e-09
5.51053e-09
4.52566e-09
3.71815e-09
3.05582e-09
2.51239e-09
2.06637e-09
1.7002e-09
1.39952e-09
1.15257e-09
9.49693e-10
7.82997e-10
6.46018e-10
5.3345e-10
4.40931e-10
3.64892e-10
3.02423e-10
2.51118e-10
2.0899e-10
1.74454e-10
1.46167e-10
1.23049e-10
1.04286e-10
8.90114e-11
7.67692e-11
6.72159e-11
5.95119e-11
5.40167e-11
5.01517e-11
4.73574e-11
4.70102e-11
4.75274e-11
4.89817e-11
5.27094e-11
5.66143e-11
6.54403e-11
7.176e-11
8.90369e-11
9.70115e-11
1.33904e-10
1.3872e-10
2.32736e-10
2.20224e-10
5.1443e-10
4.50323e-10
1.58692e-09
1.48416e-09
5.78322e-09
6.39458e-09
1.85654e-08
2.51814e-08
4.56029e-08
7.48692e-08
1.09511e-07
1.69419e-07
2.41637e-07
3.03412e-07
5.23184e-07
5.28591e-07
7.96144e-07
7.72863e-07
7.92735e-07
8.69484e-07
8.70626e-07
8.82385e-07
8.99799e-07
1.07829e-06
1.08066e-06
1.22675e-06
1.20733e-06
1.24589e-06
1.2591e-06
1.36152e-06
1.37868e-06
1.45761e-06
1.49263e-06
1.61452e-06
1.68684e-06
1.91657e-06
1.98353e-06
2.28927e-06
2.32879e-06
2.63143e-06
2.55284e-06
2.67506e-06
2.44599e-06
2.47116e-06
2.36792e-06
2.43232e-06
2.53317e-06
2.9451e-06
3.52108e-06
4.29007e-06
5.5528e-06
5.43e-06
5.55731e-06
4.68974e-06
4.56185e-06
4.78939e-06
5.40032e-06
5.16088e-06
5.84655e-06
5.7576e-06
1.20002e-05
9.38903e-06
2.25011e-05
1.86905e-05
2.63406e-05
4.56753e-05
0.000113876
0.000109945
0.000107691
0.000102937
9.44768e-05
9.06576e-05
9.08023e-05
9.41718e-05
9.71086e-05
9.78069e-05
9.83284e-05
9.85282e-05
9.88256e-05
0.000101898
0.00010291
0.00010086
9.18071e-05
8.64373e-05
8.28551e-05
7.83972e-05
6.56589e-05
4.69871e-05
3.20311e-05
2.12553e-05
1.39766e-05
9.35657e-06
6.73138e-06
5.72896e-06
5.78411e-06
5.96687e-06
5.90774e-06
6.36813e-06
7.2099e-06
7.46114e-06
7.75256e-06
8.21617e-06
8.43153e-06
8.40352e-06
8.32904e-06
8.55089e-06
9.81012e-06
1.02306e-05
1.00922e-05
9.68206e-06
9.63585e-06
9.82173e-06
9.99632e-06
1.01414e-05
1.03124e-05
1.07442e-05
1.15563e-05
1.21964e-05
1.2615e-05
1.28488e-05
1.29074e-05
1.26578e-05
1.12133e-05
9.44484e-06
7.83984e-06
6.41922e-06
5.19615e-06
4.16858e-06
3.32263e-06
2.63663e-06
2.08655e-06
1.6495e-06
1.30447e-06
1.03299e-06
8.19641e-07
6.51912e-07
5.19839e-07
4.15604e-07
3.33116e-07
2.6765e-07
2.15545e-07
1.73957e-07
1.40673e-07
1.13966e-07
9.24846e-08
7.51661e-08
6.11743e-08
4.98478e-08
4.06628e-08
3.32024e-08
2.71342e-08
2.21919e-08
1.81622e-08
1.48734e-08
1.21868e-08
9.99044e-09
8.19368e-09
6.72294e-09
5.51841e-09
4.53141e-09
3.72231e-09
3.05882e-09
2.51452e-09
2.06787e-09
1.70122e-09
1.4002e-09
1.153e-09
9.49937e-10
7.83105e-10
6.46028e-10
5.33392e-10
4.40825e-10
3.6475e-10
3.02255e-10
2.50932e-10
2.08792e-10
1.74245e-10
1.4595e-10
1.22828e-10
1.04064e-10
8.87885e-11
7.65422e-11
6.69876e-11
5.92865e-11
5.37826e-11
4.99157e-11
4.71132e-11
4.67564e-11
4.72672e-11
4.87118e-11
5.24122e-11
5.63046e-11
6.51047e-11
7.13811e-11
8.8684e-11
9.65123e-11
1.34377e-10
1.3889e-10
2.40053e-10
2.28382e-10
5.72426e-10
5.24243e-10
1.97631e-09
1.98234e-09
7.95499e-09
9.06307e-09
2.95221e-08
3.78223e-08
8.69102e-08
1.20862e-07
2.12431e-07
2.71719e-07
4.9558e-07
5.07638e-07
1.05024e-06
8.8979e-07
1.8426e-06
1.48592e-06
2.27078e-06
2.02286e-06
2.72797e-06
2.42962e-06
3.52503e-06
3.0324e-06
3.33923e-06
3.28975e-06
3.15711e-06
2.83052e-06
3.00917e-06
2.80383e-06
2.69047e-06
2.53105e-06
2.46213e-06
2.21981e-06
2.2047e-06
2.16909e-06
2.18349e-06
2.23226e-06
2.35532e-06
2.49211e-06
2.75939e-06
2.81573e-06
3.06216e-06
2.95351e-06
3.23861e-06
2.90584e-06
3.10591e-06
3.02453e-06
3.23977e-06
3.49042e-06
4.52173e-06
5.0969e-06
6.6018e-06
6.47282e-06
5.68181e-06
5.17444e-06
7.93651e-06
6.58837e-06
1.05939e-05
8.09586e-06
1.43478e-05
1.16605e-05
3.43521e-05
2.31865e-05
2.51119e-05
3.84153e-05
7.29673e-05
7.16145e-05
7.06831e-05
6.81505e-05
6.06326e-05
5.71267e-05
5.71883e-05
6.041e-05
6.63752e-05
6.99122e-05
7.22467e-05
7.29249e-05
7.25896e-05
7.32207e-05
7.35626e-05
7.17126e-05
6.36807e-05
5.6e-05
5.17005e-05
4.75717e-05
3.82691e-05
2.80832e-05
1.94674e-05
1.31434e-05
9.1273e-06
6.63944e-06
5.38009e-06
5.1645e-06
5.49649e-06
5.79135e-06
5.73311e-06
5.697e-06
6.27815e-06
7.04627e-06
7.6318e-06
8.12376e-06
8.13334e-06
8.05226e-06
8.0386e-06
8.23464e-06
9.65132e-06
1.02129e-05
1.00864e-05
9.50056e-06
9.25269e-06
9.23878e-06
9.41397e-06
9.96619e-06