/*--------------------------------*- C++ -*----------------------------------*\
| =========                 |                                                 |
| \\      /  F ield         | OpenFOAM: The Open Source CFD Toolbox           |
|  \\    /   O peration     | Version:  2.4.0                                 |
|   \\  /    A nd           | Web:      www.OpenFOAM.org                      |
|    \\/     M anipulation  |                                                 |
\*---------------------------------------------------------------------------*/
FoamFile
{
    version     2.0;
    format      ascii;
    class       volScalarField;
    location    "0.171";
    object      nuSgs;
}
// * * * * * * * * * * * * * * * * * * * * * * * * * * * * * * * * * * * * * //

dimensions      [0 2 -1 0 0 0 0];

internalField   nonuniform List<scalar> 
17600
(
0.00101341
0.000904349
0.000752604
0.000658612
0.000608726
0.000568793
0.000548729
0.000520102
0.000509295
0.000493453
0.000484054
0.000477325
0.000466551
0.000467776
0.000454493
0.000463099
0.000455369
0.000461488
0.000474176
0.000479103
0.000706244
0.000827352
0.000803386
0.000746392
0.000700103
0.000656244
0.000634374
0.000601292
0.000588988
0.000571033
0.000556472
0.000550905
0.000536892
0.000535656
0.000522825
0.000527859
0.000518659
0.000521812
0.000529426
0.000531843
0.000383908
0.000601416
0.00066459
0.000660936
0.000646544
0.000615489
0.000600328
0.000573755
0.000562219
0.000548146
0.000532286
0.000528102
0.00051536
0.000512621
0.000501626
0.000502808
0.000494562
0.000495062
0.000495575
0.000493753
0.000152221
0.00036309
0.000461829
0.000505001
0.000528721
0.000525643
0.000523317
0.000513925
0.000505235
0.000498613
0.000485489
0.000482688
0.000473805
0.000470861
0.000462622
0.000461424
0.000454929
0.000452401
0.000450815
0.000445702
5.38871e-05
0.000171701
0.00026777
0.000321838
0.00037468
0.000394937
0.000412399
0.000421778
0.000422023
0.000423576
0.000420658
0.000419838
0.000416451
0.000414625
0.000411481
0.000408387
0.000405966
0.000400701
0.000398271
0.00039376
1.75059e-05
6.97958e-05
0.000128722
0.00016308
0.000219427
0.000250032
0.000274403
0.000304281
0.000313512
0.000325139
0.000333592
0.000337472
0.000341049
0.000342329
0.000345462
0.000342931
0.000344196
0.00034104
0.000336129
0.000332602
5.62789e-06
2.64698e-05
5.17339e-05
6.95186e-05
0.000102019
0.000132055
0.000147814
0.000181509
0.000197911
0.000210466
0.00023026
0.000237891
0.000248659
0.000253236
0.000264606
0.000264058
0.000269279
0.000267886
0.000264664
0.000259497
2.36268e-06
9.7498e-06
1.85713e-05
2.57399e-05
3.80456e-05
5.76826e-05
6.65076e-05
8.74761e-05
0.00010329
0.000111729
0.000130958
0.000139825
0.000152363
0.000158386
0.000173238
0.000174997
0.000184105
0.000184334
0.000183229
0.000179698
1.72286e-06
3.9031e-06
6.81813e-06
8.9434e-06
1.31818e-05
2.15732e-05
2.54951e-05
3.53529e-05
4.40401e-05
4.87864e-05
6.06674e-05
6.72393e-05
7.57989e-05
8.07565e-05
9.26847e-05
9.4884e-05
0.000103435
0.000104941
0.000104178
0.000102522
1.61031e-06
2.32904e-06
3.26693e-06
3.68226e-06
5.0077e-06
8.3802e-06
9.79509e-06
1.36584e-05
1.64501e-05
1.81964e-05
2.33134e-05
2.64222e-05
2.98919e-05
3.28048e-05
4.00235e-05
4.12572e-05
4.60522e-05
4.73306e-05
4.69255e-05
4.58683e-05
1.57245e-06
2.02e-06
2.89247e-06
2.76757e-06
2.84852e-06
3.89854e-06
4.68378e-06
6.24691e-06
6.86202e-06
7.22099e-06
8.62707e-06
9.44138e-06
1.03844e-05
1.16942e-05
1.47821e-05
1.51476e-05
1.68647e-05
1.7288e-05
1.71369e-05
1.67129e-05
1.60724e-06
2.07471e-06
3.29701e-06
3.02969e-06
2.63171e-06
2.69743e-06
2.97259e-06
3.74227e-06
4.84373e-06
5.17024e-06
5.8698e-06
6.02306e-06
6.09919e-06
6.14782e-06
6.28179e-06
6.30325e-06
6.97554e-06
7.22656e-06
7.24695e-06
7.19305e-06
1.6259e-06
2.27458e-06
2.99037e-06
2.78589e-06
2.50592e-06
2.43868e-06
2.50889e-06
3.03813e-06
4.43115e-06
4.87591e-06
5.22202e-06
5.19706e-06
4.87584e-06
4.3306e-06
4.17099e-06
4.22804e-06
4.7906e-06
5.08969e-06
5.24597e-06
5.27541e-06
1.54514e-06
1.97451e-06
2.12295e-06
2.44511e-06
2.68762e-06
2.70243e-06
2.71541e-06
2.90267e-06
3.43648e-06
3.51325e-06
3.54526e-06
3.56376e-06
3.60602e-06
3.61769e-06
3.73871e-06
3.84042e-06
3.94633e-06
4.17218e-06
4.32135e-06
4.33079e-06
1.51783e-06
1.70901e-06
2.05554e-06
2.64545e-06
2.67275e-06
2.67367e-06
2.62067e-06
2.54998e-06
2.55477e-06
2.59873e-06
2.73452e-06
3.0915e-06
3.46852e-06
3.72163e-06
3.72971e-06
3.5432e-06
3.41147e-06
3.43255e-06
3.52462e-06
3.59887e-06
1.52465e-06
1.71113e-06
2.2853e-06
2.48382e-06
2.41434e-06
2.37709e-06
2.30221e-06
2.29919e-06
2.37494e-06
2.55979e-06
2.83248e-06
2.93365e-06
3.16281e-06
3.24585e-06
3.21264e-06
3.01626e-06
2.94143e-06
2.95337e-06
3.03016e-06
3.34095e-06
1.5276e-06
1.6896e-06
2.08631e-06
2.13239e-06
2.20869e-06
2.34188e-06
2.35152e-06
2.36878e-06
2.48369e-06
2.55061e-06
2.57217e-06
2.57744e-06
2.67487e-06
2.73345e-06
2.84971e-06
2.85077e-06
2.8421e-06
2.85172e-06
2.92635e-06
3.37711e-06
1.50719e-06
1.65089e-06
1.97461e-06
2.16642e-06
2.38792e-06
2.40923e-06
2.37617e-06
2.36918e-06
2.44976e-06
2.47834e-06
2.49501e-06
2.51449e-06
2.59858e-06
2.69773e-06
2.76938e-06
2.76361e-06
2.74073e-06
2.78165e-06
2.82422e-06
2.82692e-06
1.50506e-06
1.68761e-06
2.0472e-06
2.23182e-06
2.23253e-06
2.26599e-06
2.27855e-06
2.29792e-06
2.36507e-06
2.43812e-06
2.46927e-06
2.48897e-06
2.50644e-06
2.59157e-06
2.63258e-06
2.63325e-06
2.64125e-06
2.65864e-06
2.60654e-06
2.72523e-06
1.50597e-06
1.74439e-06
1.91066e-06
1.98292e-06
2.17325e-06
2.32434e-06
2.31386e-06
2.2661e-06
2.259e-06
2.26849e-06
2.33346e-06
2.36033e-06
2.41416e-06
2.4838e-06
2.49863e-06
2.49677e-06
2.49773e-06
2.46751e-06
2.46101e-06
2.69203e-06
1.5091e-06
1.67529e-06
1.78685e-06
2.04458e-06
2.21212e-06
2.21242e-06
2.16444e-06
2.13288e-06
2.14003e-06
2.19238e-06
2.28276e-06
2.31365e-06
2.37368e-06
2.37034e-06
2.3698e-06
2.35822e-06
2.36313e-06
2.37001e-06
2.40896e-06
2.5787e-06
1.50908e-06
1.63722e-06
1.89106e-06
2.13398e-06
2.11969e-06
2.08533e-06
2.07035e-06
2.11118e-06
2.192e-06
2.24938e-06
2.26173e-06
2.25184e-06
2.24275e-06
2.22258e-06
2.23284e-06
2.25159e-06
2.34048e-06
2.35364e-06
2.38827e-06
2.50224e-06
1.51213e-06
1.65423e-06
2.02766e-06
2.07668e-06
2.03126e-06
2.04222e-06
2.14715e-06
2.22276e-06
2.23005e-06
2.23553e-06
2.20722e-06
2.19647e-06
2.19818e-06
2.21002e-06
2.26172e-06
2.36981e-06
2.38936e-06
2.38391e-06
2.37e-06
2.40397e-06
1.51672e-06
1.74431e-06
2.00694e-06
1.98669e-06
2.00261e-06
2.20038e-06
2.26334e-06
2.2675e-06
2.25318e-06
2.2331e-06
2.22261e-06
2.24551e-06
2.34571e-06
2.38366e-06
2.42731e-06
2.4435e-06
2.42299e-06
2.42639e-06
2.44192e-06
2.70259e-06
1.52292e-06
1.77889e-06
1.88706e-06
2.01473e-06
2.24739e-06
2.34819e-06
2.35189e-06
2.33462e-06
2.31189e-06
2.31378e-06
2.34046e-06
2.45814e-06
2.49341e-06
2.5038e-06
2.49956e-06
2.52972e-06
2.53256e-06
2.60072e-06
2.70855e-06
3.06766e-06
1.53048e-06
1.75827e-06
1.90248e-06
2.25302e-06
2.37988e-06
2.41481e-06
2.41526e-06
2.39034e-06
2.39009e-06
2.46019e-06
2.58968e-06
2.61434e-06
2.61491e-06
2.61514e-06
2.62947e-06
2.69564e-06
2.79889e-06
2.96165e-06
3.11053e-06
3.39299e-06
1.53837e-06
1.76927e-06
1.95973e-06
2.37011e-06
2.48253e-06
2.54728e-06
2.56663e-06
2.56073e-06
2.58347e-06
2.71953e-06
2.79373e-06
2.78681e-06
2.82338e-06
2.87061e-06
3.01435e-06
3.25069e-06
3.42492e-06
3.64591e-06
4.13826e-06
5.26874e-06
1.56779e-06
1.75433e-06
2.1331e-06
2.62266e-06
2.74626e-06
2.76279e-06
2.81964e-06
2.81768e-06
2.85608e-06
3.01065e-06
3.05892e-06
3.12564e-06
3.41058e-06
3.61424e-06
3.90149e-06
4.52544e-06
4.94037e-06
5.78444e-06
7.51205e-06
1.11018e-05
1.58901e-06
1.78967e-06
2.61197e-06
2.91859e-06
2.99246e-06
3.02059e-06
3.21358e-06
3.25396e-06
3.47767e-06
3.85506e-06
4.02692e-06
4.42279e-06
5.58116e-06
6.02777e-06
6.87327e-06
8.94268e-06
1.04758e-05
1.33322e-05
1.81148e-05
2.89969e-05
1.61668e-06
1.90821e-06
3.08407e-06
3.30815e-06
3.42357e-06
3.75631e-06
4.48285e-06
4.85953e-06
6.04473e-06
7.51754e-06
8.17751e-06
9.80888e-06
1.32747e-05
1.46073e-05
1.71473e-05
2.3123e-05
2.69137e-05
3.40593e-05
4.33161e-05
6.59161e-05
1.65117e-06
2.32517e-06
4.07585e-06
4.8909e-06
5.48877e-06
7.58886e-06
9.97972e-06
1.1702e-05
1.57553e-05
2.04281e-05
2.25183e-05
2.74118e-05
3.52164e-05
3.84843e-05
4.41681e-05
5.70229e-05
6.37226e-05
7.70409e-05
9.05766e-05
0.000126013
1.7721e-06
3.94891e-06
7.6006e-06
1.10135e-05
1.3603e-05
2.05765e-05
2.79265e-05
3.28225e-05
4.34035e-05
5.38676e-05
5.85952e-05
6.92678e-05
8.28137e-05
8.851e-05
9.84963e-05
0.000118075
0.000126646
0.000144299
0.000160478
0.000203083
2.38224e-06
9.58987e-06
1.87883e-05
2.97302e-05
3.77748e-05
5.57024e-05
7.2509e-05
8.24038e-05
0.000103666
0.000118874
0.000126792
0.000144369
0.000160747
0.000167535
0.000181406
0.000200064
0.000208598
0.000226022
0.000240779
0.000274856
5.62758e-06
2.57505e-05
5.09718e-05
7.67489e-05
9.6121e-05
0.000131776
0.000156648
0.000172089
0.000202359
0.000215697
0.000226227
0.000244621
0.000256431
0.000261491
0.000273447
0.000284951
0.000290919
0.000303082
0.000313347
0.000334998
1.74472e-05
6.7646e-05
0.000128112
0.000171073
0.000210383
0.000254168
0.000279223
0.000297132
0.000319384
0.000325916
0.000334052
0.000341998
0.000346867
0.000348139
0.000353579
0.000357175
0.000360435
0.000365462
0.000371848
0.000380644
5.36138e-05
0.000166469
0.000270008
0.000324951
0.00037051
0.00039865
0.000412907
0.000419714
0.000425211
0.000423061
0.000423167
0.000421291
0.000420244
0.000416719
0.000416861
0.000414869
0.000414932
0.000413844
0.000414693
0.000413677
0.000151362
0.000361607
0.000463572
0.000505429
0.000528162
0.000527112
0.000523162
0.000514158
0.000506704
0.000495045
0.000490595
0.000480097
0.000476319
0.000468538
0.00046535
0.000457821
0.000455284
0.000448019
0.000443131
0.000433871
0.0003819
0.000601706
0.000665638
0.000660933
0.000646721
0.000616402
0.000597923
0.000576665
0.000560995
0.000544898
0.00053704
0.000521336
0.000516146
0.000505311
0.000499107
0.000486938
0.000481361
0.000466891
0.000455471
0.000437894
0.000705137
0.00082799
0.000804207
0.000745135
0.000701676
0.000656023
0.000631694
0.000604591
0.000585824
0.000568023
0.000558754
0.000541074
0.000534718
0.000521659
0.000513206
0.000496852
0.000487996
0.000466953
0.000448318
0.000420275
0.00101259
0.000904763
0.00075343
0.000657049
0.000610059
0.000568443
0.000546371
0.000521814
0.000506119
0.000490173
0.000482536
0.00046753
0.000460208
0.000447317
0.000439092
0.000420522
0.000408964
0.000385309
0.00036191
0.000327168
0.000201208
0.000188991
0.000181017
0.000179811
0.000173592
0.000167047
0.000146949
0.000117505
0.000107856
0.000103287
0.000101548
0.000102411
0.000104072
0.000103942
0.000104265
0.000103368
0.000100421
9.75614e-05
9.67014e-05
9.68976e-05
9.78173e-05
9.63986e-05
9.03541e-05
6.98082e-05
4.27047e-05
2.63495e-05
1.66194e-05
1.10943e-05
8.13025e-06
6.77987e-06
6.26956e-06
6.24762e-06
6.36723e-06
6.83151e-06
7.42357e-06
7.90555e-06
1.16844e-05
1.35413e-05
1.38574e-05
1.36374e-05
1.21874e-05
1.17424e-05
1.15542e-05
1.33016e-05
1.89101e-05
2.00796e-05
1.97292e-05
2.05998e-05
2.82387e-05
3.82014e-05
5.99421e-05
8.91114e-05
9.51062e-05
9.38434e-05
8.56072e-05
6.8254e-05
5.63142e-05
4.97321e-05
4.632e-05
4.56083e-05
4.60864e-05
4.63899e-05
4.61707e-05
4.47611e-05
4.3491e-05
4.30674e-05
4.31193e-05
4.39924e-05
4.62864e-05
4.74317e-05
4.6587e-05
4.57153e-05
4.69473e-05
4.72685e-05
4.57842e-05
5.31611e-05
7.16073e-05
7.45127e-05
6.74699e-05
5.20696e-05
4.47884e-05
4.13317e-05
3.70787e-05
3.22968e-05
3.05569e-05
3.04709e-05
3.03409e-05
2.95714e-05
2.69052e-05
2.55806e-05
2.64091e-05
2.65303e-05
2.65214e-05
2.68095e-05
2.70475e-05
2.72884e-05
2.81098e-05
2.98969e-05
3.67986e-05
4.75475e-05
4.93662e-05
4.88272e-05
4.87739e-05
4.91821e-05
5.1228e-05
5.82301e-05
6.88974e-05
7.51786e-05
7.83331e-05
7.86433e-05
7.76245e-05
7.33678e-05
6.89023e-05
6.70004e-05
6.40056e-05
5.78208e-05
4.94677e-05
4.21373e-05
3.72239e-05
3.37374e-05
3.19127e-05
3.16137e-05
3.1803e-05
3.21156e-05
3.29908e-05
3.72713e-05
4.00537e-05
3.97886e-05
3.79865e-05
3.83154e-05
3.83202e-05
3.74515e-05
3.53794e-05
3.11357e-05
2.72664e-05
2.50863e-05
2.48279e-05
2.55226e-05
2.90158e-05
3.17382e-05
3.24543e-05
3.18988e-05
3.10168e-05
3.12078e-05
3.58077e-05
4.86236e-05
5.44391e-05
5.56652e-05
5.52893e-05
5.13852e-05
4.88053e-05
4.87203e-05
4.80872e-05
4.11701e-05
3.07064e-05
2.52447e-05
2.4024e-05
2.45999e-05
2.48013e-05
2.46941e-05
2.40177e-05
2.32181e-05
2.29762e-05
2.29884e-05
2.31654e-05
2.34669e-05
2.53435e-05
2.96162e-05
3.18387e-05
3.33848e-05
3.38679e-05
3.4211e-05
3.48164e-05
3.76475e-05
3.89624e-05
4.27959e-05
4.67005e-05
4.698e-05
4.47273e-05
4.40185e-05
4.46601e-05
4.5212e-05
4.27781e-05
3.43139e-05
2.99427e-05
2.93161e-05
2.77018e-05
2.72125e-05
2.76596e-05
2.64667e-05
2.59963e-05
2.7437e-05
3.00175e-05
3.0948e-05
5.71086e-05
6.38156e-05
6.20064e-05
5.30632e-05
4.36893e-05
8.17431e-05
0.000259246
0.000223704
0.000201638
0.000190908
0.000182317
0.000175543
0.000173826
0.000163974
0.000146174
0.000136864
0.000134874
0.000134847
0.000132715
0.00012832
0.000125958
0.00011944
0.000112901
0.000107767
0.000103917
0.000102434
9.99524e-05
9.28168e-05
7.18924e-05
4.50262e-05
2.78756e-05
1.76321e-05
1.15796e-05
8.4874e-06
6.9179e-06
6.20798e-06
6.08371e-06
6.13625e-06
6.30793e-06
6.8317e-06
7.48968e-06
7.7663e-06
9.7298e-06
1.21726e-05
1.3621e-05
1.44561e-05
1.37562e-05
1.26164e-05
1.21096e-05
1.27531e-05
1.75847e-05
1.93982e-05
1.91563e-05
1.96708e-05
2.50777e-05
3.51163e-05
5.49033e-05
8.79681e-05
9.55255e-05
9.46041e-05
8.72404e-05
6.97377e-05
5.73465e-05
4.99532e-05
4.5899e-05
4.48218e-05
4.52772e-05
4.56893e-05
4.55719e-05
4.45759e-05
4.35165e-05
4.30668e-05
4.30492e-05
4.39204e-05
4.62977e-05
4.76276e-05
4.7017e-05
4.61071e-05
4.72698e-05
4.79556e-05
4.6715e-05
5.31482e-05
7.2039e-05
7.51146e-05
6.77423e-05
5.23174e-05
4.50868e-05
4.1757e-05
3.76002e-05
3.26642e-05
3.07733e-05
3.09056e-05
3.0689e-05
2.96133e-05
2.68121e-05
2.5112e-05
2.60249e-05
2.65824e-05
2.62699e-05
2.62474e-05
2.65238e-05
2.68839e-05
2.7747e-05
2.94018e-05
3.41628e-05
4.58874e-05
4.90261e-05
4.87913e-05
4.88065e-05
4.91457e-05
5.02553e-05
5.39437e-05
6.31344e-05
7.05441e-05
7.51403e-05
7.67828e-05
7.6655e-05
7.42842e-05
6.9091e-05
6.57681e-05
6.32178e-05
5.86591e-05
5.15682e-05
4.48612e-05
3.91644e-05
3.47015e-05
3.22508e-05
3.18143e-05
3.17449e-05
3.15949e-05
3.15137e-05
3.25553e-05
3.47074e-05
3.53426e-05
3.56703e-05
3.65827e-05
3.58886e-05
3.43104e-05
3.30083e-05
2.96225e-05
2.61754e-05
2.46525e-05
2.47405e-05
2.66216e-05
3.12032e-05
3.27236e-05
3.27544e-05
3.19267e-05
3.13011e-05
3.17136e-05
3.69758e-05
4.90155e-05
5.45652e-05
5.59178e-05
5.57042e-05
5.2056e-05
4.96381e-05
4.95512e-05
4.87985e-05
4.13761e-05
3.05561e-05
2.51905e-05
2.40797e-05
2.45973e-05
2.47602e-05
2.4627e-05
2.4007e-05
2.30457e-05
2.27774e-05
2.28701e-05
2.31306e-05
2.3557e-05
2.53687e-05
2.91499e-05
3.17914e-05
3.32481e-05
3.38676e-05
3.40713e-05
3.50138e-05
3.70937e-05
3.88429e-05
4.08682e-05
4.52784e-05
4.49729e-05
4.35674e-05
4.30376e-05
4.38476e-05
4.42342e-05
4.38453e-05
3.58521e-05
3.00452e-05
3.0145e-05
3.00179e-05
2.76164e-05
2.72579e-05
2.89676e-05
2.84725e-05
2.84155e-05
2.90066e-05
3.28652e-05
5.8114e-05
6.3117e-05
5.72251e-05
5.0382e-05
4.42882e-05
6.11196e-05
0.000250398
0.000225883
0.00020279
0.000190652
0.000183558
0.00017299
0.000171635
0.000169252
0.000162419
0.000149236
0.000143431
0.000141992
0.000137404
0.000133569
0.000129871
0.000121561
0.000114135
0.000108364
0.000103695
9.98847e-05
9.15718e-05
6.84324e-05
4.42654e-05
2.80387e-05
1.78768e-05
1.19643e-05
8.55756e-06
6.98387e-06
6.26992e-06
5.88947e-06
5.9284e-06
6.08792e-06
6.28946e-06
6.86381e-06
7.57134e-06
7.96054e-06
9.46139e-06
1.06104e-05
1.23971e-05
1.46845e-05
1.47331e-05
1.39263e-05
1.31841e-05
1.32965e-05
1.60224e-05
1.81086e-05
1.82427e-05
1.8771e-05
2.26992e-05
3.1903e-05
4.8905e-05
8.53953e-05
9.54012e-05
9.51635e-05
8.91837e-05
7.1243e-05
5.81039e-05
5.01016e-05
4.5474e-05
4.41522e-05
4.44878e-05
4.49382e-05
4.4858e-05
4.41387e-05
4.34805e-05
4.29887e-05
4.28973e-05
4.37773e-05
4.6382e-05
4.78277e-05
4.74595e-05
4.65158e-05
4.76487e-05
4.87024e-05
4.75692e-05
5.33493e-05
7.25294e-05
7.57921e-05
6.8035e-05
5.25038e-05
4.53886e-05
4.2138e-05
3.81294e-05
3.31758e-05
3.10162e-05
3.14424e-05
3.1136e-05
2.96346e-05
2.68116e-05
2.46936e-05
2.53542e-05
2.6438e-05
2.61356e-05
2.57789e-05
2.59138e-05
2.64837e-05
2.7579e-05
2.91258e-05
3.25064e-05
4.36228e-05
4.83056e-05
4.86458e-05
4.87879e-05
4.91523e-05
4.98989e-05
5.17872e-05
5.72825e-05
6.56276e-05
7.13287e-05
7.37895e-05
7.40988e-05
7.31884e-05
6.95241e-05
6.47742e-05
6.19433e-05
5.80628e-05
5.24344e-05
4.67769e-05
4.08494e-05
3.57079e-05
3.3286e-05
3.23536e-05
3.19247e-05
3.13137e-05
3.0877e-05
3.1124e-05
3.22344e-05
3.36849e-05
3.44648e-05
3.4297e-05
3.3471e-05
3.30055e-05
3.20954e-05
2.88543e-05
2.53334e-05
2.42639e-05
2.49917e-05
2.91871e-05
3.27902e-05
3.33676e-05
3.29372e-05
3.17006e-05
3.13143e-05
3.18889e-05
3.77327e-05
4.91277e-05
5.47423e-05
5.62084e-05
5.61172e-05
5.29707e-05
5.05517e-05
5.03768e-05
4.95802e-05
4.18423e-05
3.05446e-05
2.51945e-05
2.42506e-05
2.46544e-05
2.47311e-05
2.44831e-05
2.36168e-05
2.28263e-05
2.26335e-05
2.26584e-05
2.30348e-05
2.35362e-05
2.52717e-05
2.88037e-05
3.17655e-05
3.3328e-05
3.39484e-05
3.40736e-05
3.52085e-05
3.71774e-05
3.86408e-05
4.04268e-05
4.37333e-05
4.36612e-05
4.26318e-05
4.23876e-05
4.31771e-05
4.38444e-05
4.31912e-05
3.94435e-05
3.09668e-05
2.95176e-05
3.07062e-05
2.87307e-05
2.73306e-05
2.86849e-05
3.41543e-05
3.05171e-05
3.27706e-05
4.35865e-05
5.79667e-05
5.92257e-05
5.18632e-05
4.74823e-05
4.65247e-05
5.19349e-05
0.00022736
0.000208407
0.000190084
0.000175513
0.000171645
0.000163785
0.00015789
0.000156455
0.000153406
0.000144914
0.000140484
0.000134073
0.000126087
0.000122017
0.000112824
0.000107107
0.000100676
9.40665e-05
8.77919e-05
7.8564e-05
5.76232e-05
3.96428e-05
2.6445e-05
1.73577e-05
1.17385e-05
8.73304e-06
6.99122e-06
6.14888e-06
5.82081e-06
5.48762e-06
5.48914e-06
5.72256e-06
6.00042e-06
6.78888e-06
7.64551e-06
8.36154e-06
1.01167e-05
1.07902e-05
1.14063e-05
1.40288e-05
1.50147e-05
1.5034e-05
1.46434e-05
1.45557e-05
1.52595e-05
1.68331e-05
1.71841e-05
1.78905e-05
2.15781e-05
2.99707e-05
4.29002e-05
8.10156e-05
9.49545e-05
9.54289e-05
9.09526e-05
7.34273e-05
5.90714e-05
5.03597e-05
4.52496e-05
4.36929e-05
4.38643e-05
4.42536e-05
4.41456e-05
4.35782e-05
4.32946e-05
4.28106e-05
4.26329e-05
4.36534e-05
4.64693e-05
4.8084e-05
4.78711e-05
4.70323e-05
4.80561e-05
4.95367e-05
4.86191e-05
5.37891e-05
7.30291e-05
7.64983e-05
6.84315e-05
5.25796e-05
4.56271e-05
4.23549e-05
3.85494e-05
3.37314e-05
3.11695e-05
3.19822e-05
3.17054e-05
2.97778e-05
2.69878e-05
2.44965e-05
2.45973e-05
2.61482e-05
2.60875e-05
2.54364e-05
2.5446e-05
2.60242e-05
2.73268e-05
2.88684e-05
3.14858e-05
4.13396e-05
4.74062e-05
4.82352e-05
4.87e-05
4.90736e-05
4.96123e-05
5.06606e-05
5.35237e-05
6.02596e-05
6.6956e-05
7.04256e-05
7.1208e-05
7.07393e-05
6.89313e-05
6.4129e-05
6.04145e-05
5.68239e-05
5.23818e-05
4.77752e-05
4.20553e-05
3.7299e-05
3.42742e-05
3.28396e-05
3.21594e-05
3.12402e-05
3.06642e-05
3.07575e-05
3.18274e-05
3.26303e-05
3.27667e-05
3.27791e-05
3.27623e-05
3.2515e-05
3.13166e-05
2.71084e-05
2.40658e-05
2.37968e-05
2.58604e-05
3.18982e-05
3.39702e-05
3.36876e-05
3.23945e-05
3.13378e-05
3.11376e-05
3.18527e-05
3.82755e-05
4.9141e-05
5.48464e-05
5.63666e-05
5.64716e-05
5.4022e-05
5.14917e-05
5.11884e-05
5.04561e-05
4.26967e-05
3.07487e-05
2.53162e-05
2.4448e-05
2.46969e-05
2.46813e-05
2.41827e-05
2.34755e-05
2.29431e-05
2.27367e-05
2.26636e-05
2.29412e-05
2.35178e-05
2.53479e-05
2.87547e-05
3.1567e-05
3.34331e-05
3.38989e-05
3.42588e-05
3.51623e-05
3.76524e-05
3.78652e-05
4.00297e-05
4.19793e-05
4.29262e-05
4.15139e-05
4.11838e-05
4.3246e-05
4.35802e-05
4.34964e-05
4.04589e-05
3.35488e-05
3.01249e-05
2.99573e-05
3.06261e-05
2.82829e-05
2.86474e-05
3.40516e-05
3.23225e-05
3.59248e-05
5.03813e-05
5.83097e-05
5.69447e-05
4.70039e-05
4.57182e-05
4.47408e-05
4.58654e-05
0.000202463
0.000186837
0.000171092
0.000158612
0.000152538
0.000146047
0.000141104
0.000138862
0.00013287
0.00012558
0.000122363
0.000114867
0.000108665
0.00010442
9.33303e-05
8.66767e-05
7.61553e-05
6.70012e-05
5.59995e-05
4.45001e-05
3.32782e-05
2.3714e-05
1.61804e-05
1.11439e-05
8.3647e-06
7.06308e-06
6.17783e-06
5.52976e-06
5.18755e-06
4.86259e-06
4.93059e-06
5.42924e-06
5.88303e-06
6.94469e-06
7.82074e-06
9.08215e-06
1.17074e-05
1.19623e-05
1.2029e-05
1.3496e-05
1.49268e-05
1.59909e-05
1.62228e-05
1.61642e-05
1.57068e-05
1.56043e-05
1.60017e-05
1.72297e-05
2.22392e-05
2.94668e-05
3.90244e-05
7.47563e-05
9.39106e-05
9.56219e-05
9.23997e-05
7.59646e-05
6.02429e-05
5.06474e-05
4.52951e-05
4.3417e-05
4.33543e-05
4.36083e-05
4.347e-05
4.31198e-05
4.29177e-05
4.24772e-05
4.22925e-05
4.35987e-05
4.66762e-05
4.83509e-05
4.82976e-05
4.75435e-05
4.85009e-05
5.04928e-05
4.96245e-05
5.42259e-05
7.35924e-05
7.73209e-05
6.89497e-05
5.25731e-05
4.58395e-05
4.24833e-05
3.89434e-05
3.4369e-05
3.14202e-05
3.25163e-05
3.23867e-05
2.98585e-05
2.71714e-05
2.44844e-05
2.41953e-05
2.58486e-05
2.60894e-05
2.54664e-05
2.53069e-05
2.57528e-05
2.70931e-05
2.87486e-05
3.08413e-05
3.93401e-05
4.63723e-05
4.74752e-05
4.84439e-05
4.88922e-05
4.93701e-05
4.99759e-05
5.14098e-05
5.50707e-05
6.25256e-05
6.69963e-05
6.81969e-05
6.79461e-05
6.69621e-05
6.36836e-05
5.93315e-05
5.53246e-05
5.14581e-05
4.76083e-05
4.34542e-05
3.96095e-05
3.59002e-05
3.3537e-05
3.25306e-05
3.13874e-05
3.07192e-05
3.06976e-05
3.0971e-05
3.16186e-05
3.20857e-05
3.25994e-05
3.25582e-05
3.17936e-05
2.90989e-05
2.46816e-05
2.30104e-05
2.34026e-05
2.82591e-05
3.35451e-05
3.45619e-05
3.37422e-05
3.14926e-05
3.07801e-05
3.07328e-05
3.16458e-05
3.8702e-05
4.89951e-05
5.48257e-05
5.64123e-05
5.67856e-05
5.52346e-05
5.24471e-05
5.2048e-05
5.15126e-05
4.41021e-05
3.1327e-05
2.55091e-05
2.47551e-05
2.48696e-05
2.47481e-05
2.39399e-05
2.3542e-05
2.31244e-05
2.27424e-05
2.2626e-05
2.28087e-05
2.34674e-05
2.52197e-05
2.8662e-05
3.15508e-05
3.34743e-05
3.38877e-05
3.4302e-05
3.51943e-05
3.74052e-05
3.72276e-05
3.82303e-05
4.06448e-05
4.12929e-05
4.00399e-05
4.01725e-05
4.25921e-05
4.43416e-05
4.38289e-05
3.96541e-05
3.74539e-05
3.12388e-05
3.00591e-05
3.0667e-05
3.13637e-05
2.99168e-05
3.21752e-05
3.16829e-05
3.60986e-05
5.26988e-05
5.71401e-05
5.27585e-05
4.78607e-05
4.57428e-05
4.35382e-05
4.5135e-05
0.000173661
0.000164166
0.000148136
0.000137164
0.00013003
0.000123383
0.000119508
0.000117961
0.000112519
0.000105238
0.000101238
9.14219e-05
8.45706e-05
7.7486e-05
6.61288e-05
5.76228e-05
4.93949e-05
4.10712e-05
3.34286e-05
2.60264e-05
1.96895e-05
1.42666e-05
1.0048e-05
7.71223e-06
6.67585e-06
6.19775e-06
5.60641e-06
4.82915e-06
4.59333e-06
4.64121e-06
4.82796e-06
5.66363e-06
6.28015e-06
7.58565e-06
8.60936e-06
9.58016e-06
1.31761e-05
1.39989e-05
1.40793e-05
1.42744e-05
1.48918e-05
1.65653e-05
1.74481e-05
1.76812e-05
1.66408e-05
1.58209e-05
1.61771e-05
1.74197e-05
2.40377e-05
3.03245e-05
3.79872e-05
6.76911e-05
9.22416e-05
9.55605e-05
9.34124e-05
7.88045e-05
6.16032e-05
5.10395e-05
4.53755e-05
4.31815e-05
4.28489e-05
4.29837e-05
4.28843e-05
4.25587e-05
4.23223e-05
4.18757e-05
4.18501e-05
4.36136e-05
4.68464e-05
4.86282e-05
4.86854e-05
4.81197e-05
4.89153e-05
5.1527e-05
5.07695e-05
5.4857e-05
7.42129e-05
7.81944e-05
6.95041e-05
5.24836e-05
4.59767e-05
4.25419e-05
3.92591e-05
3.5097e-05
3.17628e-05
3.26866e-05
3.31632e-05
2.99807e-05
2.7377e-05
2.45228e-05
2.3973e-05
2.57569e-05
2.6441e-05
2.5677e-05
2.53511e-05
2.57138e-05
2.68283e-05
2.85891e-05
3.03976e-05
3.76305e-05
4.52136e-05
4.66665e-05
4.77098e-05
4.85704e-05
4.92569e-05
4.96351e-05
5.02047e-05
5.19951e-05
5.74159e-05
6.33314e-05
6.51057e-05
6.50521e-05
6.43907e-05
6.26201e-05
5.86359e-05
5.39764e-05
5.00179e-05
4.6728e-05
4.35181e-05
4.07899e-05
3.73196e-05
3.53232e-05
3.45186e-05
3.35845e-05
3.17567e-05
3.10022e-05
3.10595e-05
3.15996e-05
3.24257e-05
3.25038e-05
3.18109e-05
2.94368e-05
2.56616e-05
2.29949e-05
2.24264e-05
2.34439e-05
3.06133e-05
3.46441e-05
3.48013e-05
3.28671e-05
3.03352e-05
2.9907e-05
3.00071e-05
3.12511e-05
3.89746e-05
4.88069e-05
5.47431e-05
5.64206e-05
5.70523e-05
5.64293e-05
5.35248e-05
5.28388e-05
5.25651e-05
4.57957e-05
3.20595e-05
2.58212e-05
2.51239e-05
2.51435e-05
2.48313e-05
2.35509e-05
2.31361e-05
2.3104e-05
2.28941e-05
2.26492e-05
2.27519e-05
2.33163e-05
2.52741e-05
2.84494e-05
3.16056e-05
3.35888e-05
3.40161e-05
3.43126e-05
3.57409e-05
3.7123e-05
3.72664e-05
3.73391e-05
4.00835e-05
4.03546e-05
3.93927e-05
3.93872e-05
4.18289e-05
4.49243e-05
4.3961e-05
4.08799e-05
3.66071e-05
3.44456e-05
3.0929e-05
3.06662e-05
3.5987e-05
3.28796e-05
3.24518e-05
3.05287e-05
3.99151e-05
5.44615e-05
5.77491e-05
5.25841e-05
4.68683e-05
4.40623e-05
4.49203e-05
5.03008e-05
0.000135731
0.000130256
0.000116498
0.000107508
9.97417e-05
9.30737e-05
9.05551e-05
8.93542e-05
8.49143e-05
7.86192e-05
7.33084e-05
6.29985e-05
5.34104e-05
4.61262e-05
3.74123e-05
3.14439e-05
2.70823e-05
2.26421e-05
1.82405e-05
1.46654e-05
1.14375e-05
8.5532e-06
6.74609e-06
6.05367e-06
5.84533e-06
5.39484e-06
4.54273e-06
4.29053e-06
4.36773e-06
4.58758e-06
5.00894e-06
6.45515e-06
7.40137e-06
9.26766e-06
1.04427e-05
1.09503e-05
1.41471e-05
1.60497e-05
1.69835e-05
1.6964e-05
1.6341e-05
1.66006e-05
1.81425e-05
1.90408e-05
1.79922e-05
1.67075e-05
1.70312e-05
1.81677e-05
2.58227e-05
3.21441e-05
3.88494e-05
6.12137e-05
8.99024e-05
9.53268e-05
9.40264e-05
8.16466e-05
6.32781e-05
5.16861e-05
4.56653e-05
4.30793e-05
4.25068e-05
4.25164e-05
4.24021e-05
4.16942e-05
4.13363e-05
4.12346e-05
4.14101e-05
4.36605e-05
4.70625e-05
4.89569e-05
4.90924e-05
4.8665e-05
4.94408e-05
5.24757e-05
5.19325e-05
5.55565e-05
7.47974e-05
7.92474e-05
7.01791e-05
5.23825e-05
4.60177e-05
4.26213e-05
3.95475e-05
3.59344e-05
3.20635e-05
3.26314e-05
3.40892e-05
3.02707e-05
2.75445e-05
2.44921e-05
2.38973e-05
2.57177e-05
2.69871e-05
2.61308e-05
2.55438e-05
2.581e-05
2.67633e-05
2.85181e-05
3.00875e-05
3.62842e-05
4.42241e-05
4.60933e-05
4.69137e-05
4.77371e-05
4.90359e-05
4.95147e-05
4.95357e-05
5.02672e-05
5.30693e-05
5.9573e-05
6.2015e-05
6.21918e-05
6.1833e-05
6.07887e-05
5.81394e-05
5.31341e-05
4.8424e-05
4.5321e-05
4.26522e-05
4.0233e-05
3.76982e-05
3.59554e-05
3.51076e-05
3.51444e-05
3.44449e-05
3.37839e-05
3.37063e-05
3.35014e-05
3.30311e-05
3.19652e-05
2.9006e-05
2.60452e-05
2.36653e-05
2.21366e-05
2.19446e-05
2.39979e-05
3.26408e-05
3.5322e-05
3.49681e-05
3.11338e-05
2.89148e-05
2.8834e-05
2.91024e-05
3.07254e-05
3.90116e-05
4.84989e-05
5.47793e-05
5.63004e-05
5.71955e-05
5.73247e-05
5.47127e-05
5.36319e-05
5.37084e-05
4.79238e-05
3.30602e-05
2.62154e-05
2.54759e-05
2.53884e-05
2.48135e-05
2.33579e-05
2.29949e-05
2.30597e-05
2.28232e-05
2.26013e-05
2.27048e-05
2.33396e-05
2.53218e-05
2.83894e-05
3.16025e-05
3.35655e-05
3.42704e-05
3.45452e-05
3.64843e-05
3.69689e-05
3.7219e-05
3.72566e-05
3.94789e-05
4.01377e-05
3.91942e-05
3.92791e-05
4.17663e-05
4.37043e-05
4.70674e-05
4.20986e-05
3.72708e-05
3.55055e-05
3.3294e-05
3.14036e-05
3.73306e-05
3.78408e-05
3.66137e-05
3.31988e-05
4.73652e-05
5.69968e-05
5.81629e-05
5.38637e-05
4.54551e-05
4.294e-05
4.27068e-05
4.57562e-05
9.33643e-05
8.86716e-05
7.62976e-05
6.8829e-05
6.25589e-05
5.78217e-05
5.61959e-05
5.39851e-05
5.11918e-05
4.59509e-05
4.13612e-05
3.48114e-05
2.85738e-05
2.45772e-05
1.96503e-05
1.68427e-05
1.47749e-05
1.19645e-05
9.94197e-06
8.45366e-06
6.8256e-06
5.72728e-06
5.34641e-06
5.27026e-06
4.9935e-06
4.41285e-06
4.13962e-06
4.15684e-06
4.29541e-06
4.71785e-06
5.59957e-06
8.09426e-06
9.51363e-06
1.21673e-05
1.36712e-05
1.38164e-05
1.51589e-05
1.7629e-05
1.95089e-05
1.977e-05
1.86488e-05
1.80157e-05
1.88566e-05
2.00242e-05
1.93233e-05
1.80768e-05
1.83838e-05
1.95511e-05
2.77419e-05
3.47303e-05
4.06895e-05
5.56913e-05
8.67676e-05
9.47609e-05
9.43506e-05
8.43672e-05
6.50889e-05
5.26323e-05
4.61084e-05
4.3015e-05
4.21196e-05
4.19464e-05
4.16937e-05
4.07664e-05
4.06184e-05
4.07627e-05
4.11571e-05
4.37488e-05
4.73592e-05
4.93214e-05
4.95136e-05
4.92272e-05
4.999e-05
5.35036e-05
5.31927e-05
5.63848e-05
7.56375e-05
8.02504e-05
7.08362e-05
5.22268e-05
4.60119e-05
4.26819e-05
3.977e-05
3.67291e-05
3.23563e-05
3.2525e-05
3.52395e-05
3.08903e-05
2.7542e-05
2.44156e-05
2.37657e-05
2.55923e-05
2.81293e-05
2.73824e-05
2.59712e-05
2.60405e-05
2.66778e-05
2.84292e-05
2.99069e-05
3.53407e-05
4.31739e-05
4.54686e-05
4.6113e-05
4.66949e-05
4.83789e-05
4.91766e-05
4.90048e-05
4.92076e-05
5.04042e-05
5.5586e-05
5.90743e-05
5.97595e-05
5.96147e-05
5.89667e-05
5.68263e-05
5.23264e-05
4.72823e-05
4.36483e-05
4.06387e-05
3.87782e-05
3.68199e-05
3.47076e-05
3.396e-05
3.45721e-05
3.51126e-05
3.49984e-05
3.45465e-05
3.38641e-05
3.25743e-05
2.86275e-05
2.58983e-05
2.43235e-05
2.25852e-05
2.14876e-05
2.14948e-05
2.4964e-05
3.38771e-05
3.56333e-05
3.45504e-05
3.00046e-05
2.78917e-05
2.77252e-05
2.81667e-05
3.01005e-05
3.8541e-05
4.82038e-05
5.48865e-05
5.61884e-05
5.7059e-05
5.78761e-05
5.61147e-05
5.45293e-05
5.4883e-05
5.02195e-05
3.43647e-05
2.67438e-05
2.5683e-05
2.55847e-05
2.47932e-05
2.33604e-05
2.28073e-05
2.26681e-05
2.2611e-05
2.25566e-05
2.26998e-05
2.33561e-05
2.54002e-05
2.85114e-05
3.17269e-05
3.35125e-05
3.41482e-05
3.45808e-05
3.64965e-05
3.66828e-05
3.64103e-05
3.68382e-05
3.88481e-05
3.92772e-05
3.90471e-05
3.91328e-05
4.16084e-05
4.45728e-05
4.55171e-05
4.46098e-05
3.86904e-05
3.56034e-05
3.62128e-05
3.43256e-05
3.65083e-05
4.11814e-05
3.89141e-05
3.84933e-05
5.16476e-05
5.7934e-05
5.75631e-05
5.31503e-05
4.56353e-05
4.31818e-05
3.90106e-05
3.90779e-05
5.31751e-05
5.01549e-05
4.23554e-05
3.79064e-05
3.44262e-05
3.18099e-05
3.05334e-05
2.85536e-05
2.66642e-05
2.32879e-05
2.05944e-05
1.69812e-05
1.42051e-05
1.23611e-05
1.03098e-05
9.22011e-06
7.6999e-06
6.39464e-06
6.04026e-06
5.46836e-06
4.9281e-06
4.85816e-06
4.87431e-06
4.73429e-06
4.38783e-06
4.13488e-06
4.0649e-06
4.14852e-06
4.54534e-06
5.56696e-06
7.41579e-06
1.13529e-05
1.33757e-05
1.66448e-05
1.85247e-05
1.85239e-05
1.86937e-05
1.96063e-05
2.17847e-05
2.22335e-05
2.09718e-05
1.95226e-05
1.98683e-05
2.08637e-05
2.02617e-05
1.93054e-05
1.97915e-05
2.1306e-05