/*--------------------------------*- C++ -*----------------------------------*\
| =========                 |                                                 |
| \\      /  F ield         | OpenFOAM: The Open Source CFD Toolbox           |
|  \\    /   O peration     | Version:  2.4.0                                 |
|   \\  /    A nd           | Web:      www.OpenFOAM.org                      |
|    \\/     M anipulation  |                                                 |
\*---------------------------------------------------------------------------*/
FoamFile
{
    version     2.0;
    format      ascii;
    class       volVectorField;
    location    "0.173";
    object      U;
}
// * * * * * * * * * * * * * * * * * * * * * * * * * * * * * * * * * * * * * //

dimensions      [0 1 -1 0 0 0 0];

internalField   nonuniform List<vector> 
17600
(
(5.32818 0.30941 0)
(2.98557 0.0606249 0)
(2.1985 -0.00159952 0)
(1.84271 -0.0032992 0)
(1.71229 -0.0017831 0)
(1.60703 2.89835e-05 0)
(1.54039 0.000639672 0)
(1.47917 -0.00123964 0)
(1.4406 0.000706145 0)
(1.40101 0.000124145 0)
(1.37468 -0.000703599 0)
(1.37053 -9.8152e-05 0)
(1.32035 0.00137822 0)
(1.34009 -0.00168587 0)
(1.30168 0.000621649 0)
(1.31319 0.000931068 0)
(1.29736 -0.00141829 0)
(1.31131 0.000904507 0)
(1.3022 0.00205888 0)
(1.5203 0.000532015 0)
(8.60054 0.871887 0)
(6.94822 0.383338 0)
(5.81842 0.122163 0)
(5.04273 0.0513899 0)
(4.67076 0.0267781 0)
(4.36058 0.0215048 0)
(4.19033 0.0173257 0)
(4.01853 0.00917909 0)
(3.89668 0.011701 0)
(3.80412 0.00815371 0)
(3.71567 0.00274066 0)
(3.69416 0.00600911 0)
(3.56571 0.00736873 0)
(3.62568 -0.00210672 0)
(3.48854 0.0052221 0)
(3.54622 0.00225853 0)
(3.49286 -0.00359948 0)
(3.51268 0.00153541 0)
(3.51899 -0.0143038 0)
(3.87389 0.0676447 0)
(9.8607 1.02191 0)
(9.33989 0.576799 0)
(8.48909 0.242586 0)
(7.61837 0.130501 0)
(7.12424 0.0793167 0)
(6.66548 0.0599688 0)
(6.42328 0.0451655 0)
(6.17281 0.0298496 0)
(5.97514 0.0301906 0)
(5.85309 0.0222874 0)
(5.70092 0.0109104 0)
(5.67012 0.0171476 0)
(5.47234 0.0157892 0)
(5.57038 0.000436665 0)
(5.33997 0.0134571 0)
(5.44033 0.00295125 0)
(5.35389 -0.00316166 0)
(5.35463 0.00229694 0)
(5.40937 -0.0310378 0)
(5.67319 0.0884106 0)
(10.1688 0.947652 0)
(10.5568 0.667457 0)
(10.2829 0.332911 0)
(9.60769 0.210208 0)
(9.16739 0.144015 0)
(8.64955 0.111493 0)
(8.37942 0.0816694 0)
(8.09317 0.0594474 0)
(7.83252 0.054968 0)
(7.7045 0.0419118 0)
(7.49371 0.0234557 0)
(7.46306 0.0328978 0)
(7.20509 0.0264133 0)
(7.3361 0.00598108 0)
(7.02933 0.0252232 0)
(7.15676 0.00327678 0)
(7.0511 0.00077229 0)
(7.01793 0.00102298 0)
(7.11897 -0.0416077 0)
(7.24865 0.0642265 0)
(10.0919 0.805616 0)
(10.8999 0.667821 0)
(11.1686 0.361017 0)
(10.8447 0.256162 0)
(10.6411 0.197639 0)
(10.1987 0.1646 0)
(9.96672 0.120155 0)
(9.71181 0.0936435 0)
(9.4184 0.0836193 0)
(9.31363 0.0646026 0)
(9.06484 0.0393338 0)
(9.04437 0.0518343 0)
(8.74692 0.038802 0)
(8.90144 0.013459 0)
(8.5504 0.0401986 0)
(8.68216 0.0031438 0)
(8.57718 0.0067962 0)
(8.51279 0.00189957 0)
(8.63218 -0.0581093 0)
(8.64644 0.0573218 0)
(10.0197 0.691135 0)
(10.8215 0.633189 0)
(11.3664 0.34017 0)
(11.3007 0.252045 0)
(11.3961 0.215434 0)
(11.1575 0.201168 0)
(11.0424 0.148458 0)
(10.9071 0.123964 0)
(10.643 0.111842 0)
(10.5932 0.0866361 0)
(10.3493 0.0563299 0)
(10.3516 0.0720185 0)
(10.0508 0.0520353 0)
(10.2149 0.0212869 0)
(9.86774 0.0576187 0)
(9.982 0.00359802 0)
(9.89243 0.0128623 0)
(9.81904 0.00663598 0)
(9.91994 -0.0643659 0)
(9.91524 0.00652956 0)
(10.0231 0.601534 0)
(10.6751 0.598065 0)
(11.316 0.312632 0)
(11.2966 0.222974 0)
(11.5404 0.195806 0)
(11.5105 0.210687 0)
(11.5107 0.154035 0)
(11.5465 0.137148 0)
(11.3952 0.130245 0)
(11.4314 0.100587 0)
(11.2529 0.0694261 0)
(11.2995 0.0892757 0)
(11.0513 0.0646324 0)
(11.2077 0.0264708 0)
(10.9255 0.0766006 0)
(11.0107 0.00261155 0)
(10.9474 0.0203376 0)
(10.89 0.00727088 0)
(10.9483 -0.0521658 0)
(11.0026 -0.0480525 0)
(10.0569 0.522371 0)
(10.5508 0.55952 0)
(11.2417 0.295414 0)
(11.2244 0.20228 0)
(11.4217 0.163559 0)
(11.5272 0.204939 0)
(11.56 0.144295 0)
(11.6736 0.131053 0)
(11.6698 0.133137 0)
(11.7702 0.100436 0)
(11.6997 0.0719833 0)
(11.7952 0.0967596 0)
(11.668 0.0715978 0)
(11.7987 0.0267272 0)
(11.646 0.0891049 0)
(11.7031 0.00456183 0)
(11.694 0.0154623 0)
(11.6471 0.0237497 0)
(11.7201 -0.0935475 0)
(11.7195 0.0452951 0)
(10.0816 0.451658 0)
(10.4527 0.512188 0)
(11.1591 0.279148 0)
(11.237 0.192955 0)
(11.3012 0.1339 0)
(11.4406 0.191378 0)
(11.5091 0.133558 0)
(11.5655 0.117377 0)
(11.68 0.125273 0)
(11.7835 0.0907554 0)
(11.806 0.0664863 0)
(11.8917 0.0921685 0)
(11.8952 0.0708081 0)
(11.9921 0.0188998 0)
(11.9663 0.093545 0)
(12.0271 0.00117582 0)
(12.0572 0.00962556 0)
(12.0726 0.0250968 0)
(12.1273 -0.103657 0)
(12.0779 0.0133778 0)
(10.0785 0.390397 0)
(10.4006 0.46106 0)
(11.0072 0.255946 0)
(11.2611 0.184468 0)
(11.2746 0.116947 0)
(11.348 0.176295 0)
(11.4819 0.124405 0)
(11.4643 0.104063 0)
(11.6094 0.112237 0)
(11.7061 0.0761143 0)
(11.7916 0.0612495 0)
(11.8211 0.0828875 0)
(11.8978 0.0662865 0)
(11.9814 0.00660837 0)
(12.0113 0.0922202 0)
(12.0862 -0.00617491 0)
(12.1159 -0.000747547 0)
(12.2012 0.0150276 0)
(12.2009 -0.0924893 0)
(12.1929 -0.111802 0)
(10.0627 0.333119 0)
(10.3442 0.417675 0)
(10.8656 0.232102 0)
(11.2162 0.165337 0)
(11.2757 0.104762 0)
(11.3239 0.163271 0)
(11.4822 0.113194 0)
(11.3913 0.0961645 0)
(11.5137 0.101135 0)
(11.6144 0.0599144 0)
(11.7403 0.0549031 0)
(11.7457 0.0769174 0)
(11.8729 0.0560135 0)
(11.9553 -0.00343822 0)
(12.0012 0.0839801 0)
(12.0552 -0.0103148 0)
(12.0794 -0.0160328 0)
(12.1516 0.00905935 0)
(12.1793 -0.114976 0)
(12.1552 -0.175832 0)
(10.0224 0.286833 0)
(10.3118 0.374117 0)
(10.8192 0.206921 0)
(11.1223 0.14341 0)
(11.2272 0.0890143 0)
(11.3297 0.145899 0)
(11.4579 0.10962 0)
(11.3369 0.0932254 0)
(11.4499 0.0919014 0)
(11.5649 0.0384749 0)
(11.6959 0.0492122 0)
(11.699 0.0643558 0)
(11.8487 0.0469696 0)
(11.9001 -0.0163708 0)
(11.9331 0.0830873 0)
(12.0098 -0.0152657 0)
(12.0303 -0.0246261 0)
(12.0633 -0.00941584 0)
(12.1421 -0.119175 0)
(12.066 -0.219099 0)
(9.97787 0.244998 0)
(10.3597 0.323705 0)
(10.7899 0.186076 0)
(11.0114 0.128363 0)
(11.1642 0.0693247 0)
(11.272 0.126522 0)
(11.4059 0.107019 0)
(11.3454 0.0883871 0)
(11.4385 0.0812007 0)
(11.5572 0.0181897 0)
(11.661 0.0436916 0)
(11.6404 0.0565106 0)
(11.7763 0.0359374 0)
(11.7838 -0.0190282 0)
(11.8419 0.0724532 0)
(11.984 -0.0191887 0)
(11.9915 -0.0366589 0)
(12.0195 -0.0181757 0)
(12.082 -0.141866 0)
(11.9768 -0.241115 0)
(9.99194 0.204146 0)
(10.3829 0.272532 0)
(10.6945 0.169556 0)
(10.9368 0.117623 0)
(11.1274 0.0529317 0)
(11.1961 0.106785 0)
(11.3702 0.0964829 0)
(11.3688 0.0780041 0)
(11.4299 0.0739132 0)
(11.5242 0.00161099 0)
(11.5947 0.043759 0)
(11.5897 0.0507763 0)
(11.7005 0.0297374 0)
(11.711 -0.0247285 0)
(11.8141 0.0534073 0)
(11.9694 -0.0282375 0)
(11.9584 -0.0439289 0)
(11.983 -0.0278004 0)
(12.0296 -0.154508 0)
(11.9367 -0.275643 0)
(10.0243 0.161809 0)
(10.3169 0.234122 0)
(10.6256 0.147137 0)
(10.916 0.102629 0)
(11.1134 0.0389105 0)
(11.1677 0.0884803 0)
(11.3462 0.0797977 0)
(11.3499 0.0688633 0)
(11.3928 0.0694986 0)
(11.4629 -0.00955113 0)
(11.5478 0.0390894 0)
(11.5703 0.0468948 0)
(11.6834 0.0201288 0)
(11.7072 -0.0326246 0)
(11.7907 0.0362447 0)
(11.9183 -0.0361662 0)
(11.9161 -0.049145 0)
(11.9409 -0.0424823 0)
(12.0151 -0.153468 0)
(11.9468 -0.320969 0)
(10.0111 0.129246 0)
(10.2643 0.191673 0)
(10.6449 0.118166 0)
(10.902 0.086271 0)
(11.0797 0.0297089 0)
(11.1562 0.0673078 0)
(11.3144 0.0694027 0)
(11.3023 0.0570936 0)
(11.3535 0.0679739 0)
(11.4536 -0.0253024 0)
(11.5456 0.0346886 0)
(11.5561 0.0373787 0)
(11.6928 0.0113249 0)
(11.691 -0.0374973 0)
(11.7303 0.0265872 0)
(11.8535 -0.0496659 0)
(11.8793 -0.0476123 0)
(11.9264 -0.0688028 0)
(11.9911 -0.146542 0)
(11.9218 -0.350761 0)
(9.98505 0.099331 0)
(10.2925 0.143493 0)
(10.6421 0.0883808 0)
(10.8414 0.0788727 0)
(11.052 0.018402 0)
(11.1533 0.0486834 0)
(11.2694 0.0562041 0)
(11.2709 0.049395 0)
(11.3532 0.0557586 0)
(11.471 -0.0370162 0)
(11.5114 0.0277576 0)
(11.5437 0.0351474 0)
(11.6764 -0.00273162 0)
(11.6529 -0.0315833 0)
(11.7031 0.00913151 0)
(11.8198 -0.0507725 0)
(11.8443 -0.069266 0)
(11.9261 -0.0655711 0)
(11.9317 -0.17073 0)
(11.8595 -0.284672 0)
(10.0026 0.0685478 0)
(10.3005 0.0961835 0)
(10.558 0.0692107 0)
(10.805 0.0659794 0)
(11.0811 0.00459604 0)
(11.1545 0.0306704 0)
(11.2226 0.0471158 0)
(11.2697 0.0337065 0)
(11.3658 0.0455081 0)
(11.4324 -0.0445899 0)
(11.4496 0.0232822 0)
(11.5405 0.0278232 0)
(11.6639 -0.0124024 0)
(11.6352 -0.0307647 0)
(11.71 -0.00769523 0)
(11.7904 -0.0549003 0)
(11.8139 -0.0827209 0)
(11.9105 -0.0719894 0)
(11.9031 -0.183595 0)
(11.882 -0.247802 0)
(10.0214 0.0385314 0)
(10.2479 0.0576513 0)
(10.5129 0.0456199 0)
(10.8492 0.0410986 0)
(11.1113 -0.00643635 0)
(11.1162 0.0203856 0)
(11.1866 0.0361933 0)
(11.2812 0.0165366 0)
(11.3521 0.038013 0)
(11.3937 -0.0474379 0)
(11.4435 0.0131236 0)
(11.5464 0.017723 0)
(11.6668 -0.0210026 0)
(11.6304 -0.0331078 0)
(11.6935 -0.0151716 0)
(11.7529 -0.0675441 0)
(11.8121 -0.0877889 0)
(11.8851 -0.0907665 0)
(11.8946 -0.183873 0)
(11.9613 -0.308438 0)
(10.0119 0.0129458 0)
(10.2156 0.0181012 0)
(10.5534 0.0119259 0)
(10.8897 0.0179631 0)
(11.0671 -0.00881871 0)
(11.0731 0.0126905 0)
(11.1905 0.0186688 0)
(11.2922 0.00033706 0)
(11.3375 0.0303098 0)
(11.3994 -0.0527037 0)
(11.4658 0.00081177 0)
(11.5399 0.0102457 0)
(11.6508 -0.0287392 0)
(11.617 -0.0324326 0)
(11.6738 -0.0244477 0)
(11.7531 -0.0780196 0)
(11.8258 -0.0969438 0)
(11.8513 -0.103506 0)
(11.8967 -0.196336 0)
(11.9139 -0.339132 0)
(9.99898 -0.0108921 0)
(10.2297 -0.0285833 0)
(10.5897 -0.0197697 0)
(10.866 0.0016964 0)
(11.0229 -0.00669358 0)
(11.0942 -0.00532431 0)
(11.2171 0.0016835 0)
(11.2924 -0.0153229 0)
(11.3321 0.0238497 0)
(11.4016 -0.0603984 0)
(11.465 -0.00681855 0)
(11.5237 0.00237793 0)
(11.6296 -0.0346401 0)
(11.6208 -0.0357141 0)
(11.685 -0.0326212 0)
(11.7829 -0.0961564 0)
(11.8132 -0.0943977 0)
(11.8232 -0.127134 0)
(11.9058 -0.186021 0)
(11.8295 -0.36193 0)
(9.99538 -0.0367174 0)
(10.2547 -0.0738253 0)
(10.5895 -0.0489683 0)
(10.8368 -0.0108271 0)
(11.0411 -0.0149492 0)
(11.1336 -0.0222069 0)
(11.2106 -0.0134733 0)
(11.2832 -0.0260823 0)
(11.3345 0.0140534 0)
(11.4049 -0.0624086 0)
(11.4742 -0.019472 0)
(11.5241 0.000932856 0)
(11.6274 -0.0492666 0)
(11.6488 -0.0344015 0)
(11.7055 -0.0499081 0)
(11.7885 -0.0968901 0)
(11.7752 -0.107573 0)
(11.8211 -0.124002 0)
(11.9109 -0.21671 0)
(11.8728 -0.318676 0)
(9.99986 -0.063864 0)
(10.2717 -0.12009 0)
(10.5721 -0.0737717 0)
(10.85 -0.0278796 0)
(11.0789 -0.0238581 0)
(11.139 -0.0354831 0)
(11.1902 -0.0257758 0)
(11.2975 -0.0404985 0)
(11.3435 0.00266046 0)
(11.4267 -0.0680307 0)
(11.4929 -0.028759 0)
(11.5323 -0.0057847 0)
(11.633 -0.0560023 0)
(11.6717 -0.0428867 0)
(11.7127 -0.0552687 0)
(11.7752 -0.100443 0)
(11.7635 -0.11744 0)
(11.8554 -0.131294 0)
(11.9145 -0.246703 0)
(11.8892 -0.264654 0)
(10.0045 -0.0937678 0)
(10.2705 -0.162084 0)
(10.5847 -0.101275 0)
(10.8924 -0.0469583 0)
(11.0932 -0.0310168 0)
(11.1402 -0.0489194 0)
(11.1994 -0.0375486 0)
(11.3223 -0.0584629 0)
(11.3487 -0.00427249 0)
(11.454 -0.0778425 0)
(11.5055 -0.032407 0)
(11.5363 -0.0159031 0)
(11.6398 -0.0611165 0)
(11.6893 -0.0523528 0)
(11.7255 -0.0599943 0)
(11.772 -0.107491 0)
(11.788 -0.12346 0)
(11.8925 -0.156157 0)
(11.9139 -0.231121 0)
(11.8413 -0.313813 0)
(9.99786 -0.123185 0)
(10.2827 -0.206976 0)
(10.6325 -0.131766 0)
(10.9197 -0.0614669 0)
(11.097 -0.0393856 0)
(11.1579 -0.0600306 0)
(11.2193 -0.0558807 0)
(11.3435 -0.0668439 0)
(11.3649 -0.0226062 0)
(11.484 -0.0757549 0)
(11.5231 -0.0493963 0)
(11.5499 -0.0100209 0)
(11.6544 -0.0819679 0)
(11.7156 -0.0502593 0)
(11.7485 -0.070054 0)
(11.7746 -0.112943 0)
(11.8341 -0.131435 0)
(11.8999 -0.172459 0)
(11.8871 -0.231493 0)
(11.8628 -0.365813 0)
(9.98991 -0.157028 0)
(10.3158 -0.252574 0)
(10.6711 -0.160017 0)
(10.9345 -0.0745238 0)
(11.1205 -0.0476948 0)
(11.1835 -0.0768241 0)
(11.2455 -0.0659326 0)
(11.3728 -0.0866893 0)
(11.3929 -0.025394 0)
(11.5089 -0.0938835 0)
(11.5427 -0.0389354 0)
(11.5747 -0.037838 0)
(11.6812 -0.0680873 0)
(11.7476 -0.0819496 0)
(11.7622 -0.049381 0)
(11.7979 -0.140864 0)
(11.8684 -0.124717 0)
(11.8937 -0.192561 0)
(11.9087 -0.229241 0)
(11.9269 -0.405653 0)
(9.98715 -0.193068 0)
(10.3501 -0.298794 0)
(10.7102 -0.185504 0)
(10.9684 -0.0880061 0)
(11.1536 -0.0604364 0)
(11.2091 -0.0885159 0)
(11.2806 -0.0846459 0)
(11.408 -0.0920437 0)
(11.4219 -0.0466259 0)
(11.5299 -0.0855046 0)
(11.5764 -0.0621736 0)
(11.6112 -0.0257472 0)
(11.7117 -0.0984183 0)
(11.7774 -0.066653 0)
(11.7774 -0.0754056 0)
(11.8336 -0.126338 0)
(11.8909 -0.154465 0)
(11.9138 -0.178817 0)
(11.9655 -0.268637 0)
(11.9328 -0.348966 0)
(9.99459 -0.234914 0)
(10.3919 -0.346068 0)
(10.76 -0.20618 0)
(10.9997 -0.102848 0)
(11.1884 -0.0732314 0)
(11.2417 -0.103986 0)
(11.3224 -0.096827 0)
(11.447 -0.107414 0)
(11.4634 -0.051353 0)
(11.5537 -0.0986719 0)
(11.6293 -0.0617863 0)
(11.6471 -0.0429825 0)
(11.7407 -0.0964516 0)
(11.8057 -0.0809696 0)
(11.8106 -0.0739047 0)
(11.8706 -0.135367 0)
(11.9167 -0.168619 0)
(11.9651 -0.175182 0)
(12.0104 -0.303698 0)
(11.9339 -0.293252 0)
(10.0285 -0.282011 0)
(10.4218 -0.394101 0)
(10.8081 -0.2175 0)
(11.0255 -0.120535 0)
(11.2485 -0.0914231 0)
(11.2681 -0.118234 0)
(11.3782 -0.111868 0)
(11.4894 -0.118896 0)
(11.5063 -0.0610884 0)
(11.5833 -0.1068 0)
(11.6864 -0.0681373 0)
(11.6725 -0.0542118 0)
(11.7785 -0.0948457 0)
(11.8395 -0.100546 0)
(11.8583 -0.059801 0)
(11.9006 -0.165443 0)
(11.973 -0.149522 0)
(12.02 -0.218184 0)
(12.0352 -0.279017 0)
(11.9776 -0.340933 0)
(10.0698 -0.336309 0)
(10.4303 -0.439633 0)
(10.8724 -0.225458 0)
(11.0608 -0.143156 0)
(11.3249 -0.111614 0)
(11.2767 -0.13056 0)
(11.458 -0.129454 0)
(11.5137 -0.123182 0)
(11.5608 -0.0778419 0)
(11.6146 -0.104774 0)
(11.7557 -0.0870282 0)
(11.6869 -0.0456546 0)
(11.8443 -0.119815 0)
(11.8727 -0.0881528 0)
(11.9195 -0.0854849 0)
(11.94 -0.152124 0)
(12.0527 -0.174727 0)
(12.0497 -0.219755 0)
(12.0635 -0.277881 0)
(12.0064 -0.401392 0)
(10.0884 -0.397289 0)
(10.4503 -0.481973 0)
(10.9426 -0.235809 0)
(11.1199 -0.167634 0)
(11.3856 -0.130212 0)
(11.2946 -0.1454 0)
(11.5501 -0.143948 0)
(11.5317 -0.130927 0)
(11.6311 -0.0848965 0)
(11.6597 -0.121161 0)
(11.8217 -0.0825465 0)
(11.7134 -0.0653816 0)
(11.9327 -0.115238 0)
(11.8934 -0.107478 0)
(12.0004 -0.0807249 0)
(11.9653 -0.16598 0)
(12.0961 -0.179329 0)
(12.0022 -0.21955 0)
(12.0235 -0.283032 0)
(11.86 -0.434107 0)
(10.0883 -0.462122 0)
(10.4853 -0.52432 0)
(11.0201 -0.249529 0)
(11.2055 -0.193272 0)
(11.4149 -0.148595 0)
(11.3611 -0.160366 0)
(11.6314 -0.162478 0)
(11.5625 -0.131177 0)
(11.712 -0.103755 0)
(11.7141 -0.124147 0)
(11.8533 -0.093426 0)
(11.7628 -0.0691856 0)
(11.9654 -0.127617 0)
(11.8582 -0.108696 0)
(11.9858 -0.0871764 0)
(11.8624 -0.168781 0)
(11.9488 -0.17235 0)
(11.7574 -0.220842 0)
(11.7342 -0.268163 0)
(11.4203 -0.433259 0)
(10.0731 -0.533684 0)
(10.5348 -0.563153 0)
(11.129 -0.267693 0)
(11.2849 -0.217049 0)
(11.4579 -0.168587 0)
(11.47 -0.178502 0)
(11.6768 -0.173844 0)
(11.592 -0.137209 0)
(11.7474 -0.116021 0)
(11.6745 -0.129304 0)
(11.7605 -0.0961369 0)
(11.6643 -0.0782785 0)
(11.7576 -0.126148 0)
(11.5816 -0.10572 0)
(11.667 -0.0898069 0)
(11.4486 -0.154431 0)
(11.4531 -0.165965 0)
(11.1917 -0.198975 0)
(11.0795 -0.256354 0)
(10.6827 -0.373182 0)
(10.0411 -0.611314 0)
(10.6268 -0.596303 0)
(11.2635 -0.292108 0)
(11.3613 -0.241316 0)
(11.5137 -0.194376 0)
(11.5104 -0.192599 0)
(11.5801 -0.178117 0)
(11.4467 -0.139541 0)
(11.5027 -0.119925 0)
(11.3101 -0.122113 0)
(11.3139 -0.0918516 0)
(11.1609 -0.075941 0)
(11.1381 -0.111724 0)
(10.911 -0.0957621 0)
(10.9431 -0.0801847 0)
(10.6582 -0.13502 0)
(10.6069 -0.145434 0)
(10.2939 -0.174258 0)
(10.1301 -0.223514 0)
(9.66662 -0.306178 0)
(10.0298 -0.698139 0)
(10.7717 -0.629858 0)
(11.3641 -0.327001 0)
(11.3356 -0.267141 0)
(11.3556 -0.212352 0)
(11.1913 -0.190234 0)
(11.0641 -0.164746 0)
(10.8257 -0.127044 0)
(10.7444 -0.105327 0)
(10.4634 -0.101416 0)
(10.4017 -0.0770433 0)
(10.2085 -0.0625266 0)
(10.1179 -0.0899765 0)
(9.8776 -0.0792786 0)
(9.86918 -0.0653134 0)
(9.56212 -0.109843 0)
(9.4749 -0.119966 0)
(9.14069 -0.144522 0)
(8.94379 -0.178377 0)
(8.43839 -0.256046 0)
(10.0966 -0.810085 0)
(10.8621 -0.665233 0)
(11.1865 -0.352954 0)
(10.8576 -0.266691 0)
(10.6064 -0.195325 0)
(10.2409 -0.15799 0)
(9.96012 -0.129786 0)
(9.65578 -0.0984748 0)
(9.4935 -0.0783116 0)
(9.19396 -0.0744798 0)
(9.10333 -0.0575771 0)
(8.90426 -0.0451234 0)
(8.78742 -0.066444 0)
(8.5599 -0.0608374 0)
(8.52353 -0.0482654 0)
(8.22787 -0.0827687 0)
(8.11735 -0.0929341 0)
(7.78979 -0.109307 0)
(7.56702 -0.137708 0)
(7.08044 -0.185274 0)
(10.1712 -0.950389 0)
(10.5299 -0.665757 0)
(10.3054 -0.328003 0)
(9.60808 -0.216773 0)
(9.14308 -0.143069 0)
(8.68603 -0.107325 0)
(8.36133 -0.0865176 0)
(8.05868 -0.0655547 0)
(7.87668 -0.04969 0)
(7.60877 -0.0484467 0)
(7.51268 -0.0382555 0)
(7.33396 -0.0279801 0)
(7.21981 -0.0442347 0)
(7.01817 -0.0423851 0)
(6.96744 -0.0311058 0)
(6.70806 -0.056539 0)
(6.58657 -0.0649854 0)
(6.28472 -0.0752091 0)
(6.06327 -0.0943166 0)
(5.60552 -0.125545 0)
(9.86127 -1.02325 0)
(9.32137 -0.575886 0)
(8.50878 -0.239852 0)
(7.61462 -0.133987 0)
(7.109 -0.0796126 0)
(6.68971 -0.0571011 0)
(6.40643 -0.0470515 0)
(6.15134 -0.0357838 0)
(5.99418 -0.0251796 0)
(5.78586 -0.0264111 0)
(5.70028 -0.0212994 0)
(5.56046 -0.01359 0)
(5.46752 -0.025084 0)
(5.30032 -0.0253687 0)
(5.24908 -0.0160153 0)
(5.04363 -0.0328396 0)
(4.92423 -0.0387628 0)
(4.66884 -0.0437234 0)
(4.47025 -0.0541474 0)
(4.07577 -0.0749774 0)
(8.60036 -0.872349 0)
(6.93667 -0.383069 0)
(5.83131 -0.12085 0)
(5.04057 -0.0527866 0)
(4.66108 -0.0276027 0)
(4.37298 -0.0196572 0)
(4.18093 -0.017704 0)
(4.00411 -0.0134258 0)
(3.89882 -0.00793116 0)
(3.76606 -0.0101926 0)
(3.70209 -0.00849618 0)
(3.61289 -0.00370448 0)
(3.55151 -0.0103567 0)
(3.42979 -0.0113868 0)
(3.38946 -0.00501403 0)
(3.25273 -0.0137574 0)
(3.15306 -0.0170805 0)
(2.9676 -0.0181716 0)
(2.816 -0.0218333 0)
(2.53461 -0.0330259 0)
(5.32816 -0.309453 0)
(2.98096 -0.0606585 0)
(2.20285 0.00183173 0)
(1.84371 0.00319019 0)
(1.70739 0.0012874 0)
(1.60905 0.00062831 0)
(1.54039 -0.0004873 0)
(1.47133 -0.000221278 0)
(1.43546 0.000830788 0)
(1.39118 -0.000541461 0)
(1.36155 -0.000573323 0)
(1.3317 0.00101156 0)
(1.3116 -0.000783864 0)
(1.25608 -0.0013578 0)
(1.23729 0.0009426 0)
(1.18884 -0.000909971 0)
(1.13834 -0.00152719 0)
(1.05716 -0.000902355 0)
(0.991118 -0.000996061 0)
(0.879138 0.00180253 0)
(0.868711 0.433607 0)
(2.06232 0.109458 0)
(2.3338 -0.0893792 0)
(2.83257 -0.0488983 0)
(2.41549 0.178346 0)
(3.05301 0.270829 0)
(3.6682 0.384371 0)
(3.93245 0.213235 0)
(4.49281 0.00058757 0)
(5.43508 0.544252 0)
(6.56669 1.06939 0)
(7.62949 0.780363 0)
(8.0437 0.38911 0)
(8.52438 0.114525 0)
(8.98747 -0.396607 0)
(9.36197 -0.962841 0)
(9.89034 -1.46356 0)
(10.4555 -2.16932 0)
(11.1881 -2.78172 0)
(11.9253 -3.3385 0)
(12.8398 -4.14197 0)
(13.3373 -4.70223 0)
(13.5096 -5.09614 0)
(13.7379 -5.31197 0)
(13.6699 -5.46796 0)
(13.4941 -5.53196 0)
(13.1747 -5.47214 0)
(13.1273 -5.68926 0)
(12.6919 -5.48201 0)
(12.6329 -5.31144 0)
(12.5259 -5.36045 0)
(12.2142 -4.90058 0)
(12.1508 -4.73893 0)
(11.6956 -4.38025 0)
(11.513 -3.74289 0)
(11.3779 -3.53482 0)
(10.7436 -2.9285 0)
(10.8232 -2.19179 0)
(10.2835 -1.93997 0)
(9.82574 -1.5534 0)
(9.65425 -0.730624 0)
(9.07652 -0.499295 0)
(8.74548 -0.57165 0)
(8.37827 0.138103 0)
(7.84875 0.57271 0)
(7.33914 -0.115102 0)
(7.58867 -0.0518432 0)
(7.36887 1.01057 0)
(7.0766 1.16024 0)
(6.58804 1.09537 0)
(6.67789 1.30004 0)
(6.51288 1.14731 0)
(5.79012 0.662058 0)
(5.8135 0.570272 0)
(6.16688 2.33924 0)
(7.18182 5.18764 0)
(8.23305 7.5556 0)
(8.68569 8.89429 0)
(8.67945 9.27529 0)
(8.43264 9.13407 0)
(8.08513 8.74642 0)
(7.76776 8.15551 0)
(7.45831 7.35045 0)
(7.27612 6.29524 0)
(7.13552 5.0084 0)
(6.97056 3.5489 0)
(6.74957 1.94294 0)
(6.48477 0.121508 0)
(6.2822 -1.69074 0)
(6.30946 -3.03781 0)
(6.37156 -4.12187 0)
(6.12923 -5.49122 0)
(5.85353 -6.87478 0)
(5.96404 -7.65277 0)
(6.12854 -8.31352 0)
(6.14702 -9.12252 0)
(6.14852 -9.05127 0)
(6.43988 -7.6916 0)
(6.75849 -6.23672 0)
(6.6653 -5.9728 0)
(6.56147 -6.76326 0)
(6.43855 -7.46456 0)
(6.19605 -7.93563 0)
(6.06814 -8.30944 0)
(5.94181 -8.67415 0)
(5.71761 -9.13854 0)
(5.72308 -8.97019 0)
(5.9231 -8.11922 0)
(5.64006 -8.01456 0)
(5.78731 -7.72182 0)
(6.21234 -6.0438 0)
(6.18467 -4.59796 0)
(6.07756 -3.21172 0)
(6.49815 -1.66203 0)
(6.84685 -0.558918 0)
(7.5304 1.58122 0)
(7.87903 3.873 0)
(7.6129 4.74723 0)
(7.82756 5.38199 0)
(8.24236 7.2003 0)
(8.34984 8.76153 0)
(7.83715 8.78786 0)
(7.43875 8.43707 0)
(7.66367 8.95001 0)
(8.07897 9.86182 0)
(8.36968 10.2806 0)
(8.25811 10.2472 0)
(8.34785 9.8056 0)
(7.89584 9.14399 0)
(7.48798 8.36082 0)
(7.08946 7.41507 0)
(6.38634 6.38976 0)
(6.02235 5.50998 0)
(5.54672 4.65823 0)
(5.30481 3.85138 0)
(5.11913 2.96721 0)
(5.17524 2.26353 0)
(5.16207 1.70773 0)
(5.78667 1.19948 0)
(5.9427 0.891014 0)
(6.32979 0.427666 0)
(6.7279 -0.112805 0)
(6.98654 -0.541863 0)
(7.2028 -0.718501 0)
(7.44338 -0.823849 0)
(7.32691 -0.971161 0)
(7.48485 -1.61763 0)
(7.65967 -2.18559 0)
(7.63057 -1.9616 0)
(7.45924 -2.02125 0)
(7.6649 -2.15831 0)
(7.39743 -2.04525 0)
(6.9893 -2.07505 0)
(6.71874 -2.13257 0)
(6.91151 -2.45023 0)
(6.90175 -2.82335 0)
(6.97318 -2.74409 0)
(6.89049 -3.01653 0)
(7.06629 -3.42209 0)
(6.77408 -3.64968 0)
(6.51075 -3.67385 0)
(6.11872 -3.63196 0)
(5.94817 -3.60855 0)
(5.81866 -3.1656 0)
(5.66642 -2.54659 0)
(5.3541 -1.82805 0)
(5.32339 -1.47988 0)
(5.17832 -1.97721 0)
(5.52417 -2.9058 0)
(5.57726 -3.57811 0)
(6.0498 -4.5086 0)
(6.0951 -5.55831 0)
(6.18853 -6.47857 0)
(6.34128 -6.76622 0)
(6.46582 -7.10498 0)
(6.40485 -7.8856 0)
(6.47102 -8.17455 0)
(6.41043 -7.79427 0)
(6.48393 -7.05452 0)
(6.52623 -6.3678 0)
(6.78124 -5.53265 0)
(7.13564 -4.42211 0)
(7.32321 -2.9863 0)
(7.68225 -1.42047 0)
(7.8168 0.175708 0)
(7.75176 1.71693 0)
(7.73804 2.70411 0)
(7.78679 3.47885 0)
(7.94143 4.51353 0)
(8.10828 5.44631 0)
(8.17101 6.19388 0)
(8.27916 6.92846 0)
(8.24132 7.77725 0)
(8.50515 8.63189 0)
(8.66552 9.06941 0)
(9.03937 9.10491 0)
(8.87292 8.78171 0)
(9.04403 8.10717 0)
(8.85611 7.19572 0)
(8.94735 6.12155 0)
(8.67186 4.82523 0)
(8.0869 3.5593 0)
(7.50702 2.76447 0)
(7.46089 2.8086 0)
(6.97506 2.95598 0)
(6.31501 3.0314 0)
(6.73839 3.28104 0)
(6.66811 3.11127 0)
(5.98685 3.15026 0)
(5.92159 3.38255 0)
(5.74537 3.70188 0)
(5.17199 3.72238 0)
(5.29471 4.10818 0)
(4.95051 4.60609 0)
(4.72972 4.78638 0)
(4.54703 5.983 0)
(4.47298 4.88571 0)
(3.70538 3.76648 0)
(4.61092 2.32743 0)
(2.57121 4.15026 0)
(3.12097 0.249638 0)
(3.87422 -0.0524837 0)
(4.15824 -0.215912 0)
(4.6272 -0.11374 0)
(4.5508 0.0923096 0)
(4.69606 0.062493 0)
(5.37956 0.22634 0)
(5.78889 0.193404 0)
(5.80352 -0.15313 0)
(5.91342 0.179854 0)
(6.74367 0.610275 0)
(7.96847 0.404171 0)
(8.42139 0.226752 0)
(9.04739 -0.0294666 0)
(9.79671 -0.554314 0)
(10.2512 -1.12604 0)
(11.0382 -1.6106 0)
(11.734 -2.34432 0)
(12.4726 -2.99168 0)
(13.0963 -3.52807 0)
(13.6537 -4.29982 0)
(13.8533 -4.73235 0)
(13.7359 -5.0766 0)
(13.7826 -5.28144 0)
(13.4956 -5.42085 0)
(13.2062 -5.48588 0)
(12.9464 -5.38965 0)
(13.0661 -5.62149 0)
(12.7225 -5.48986 0)
(12.6686 -5.26137 0)
(12.5832 -5.27716 0)
(12.2771 -4.82832 0)
(12.3267 -4.64059 0)
(11.8626 -4.25382 0)
(11.7121 -3.63439 0)
(11.5628 -3.41072 0)
(10.8828 -2.84087 0)
(10.9496 -2.11706 0)
(10.4487 -1.75729 0)
(10.0161 -1.39955 0)
(9.73371 -0.572574 0)
(9.17302 -0.29859 0)
(8.86654 -0.464883 0)
(8.47797 0.311251 0)
(8.02109 0.809414 0)
(7.39118 -0.0725476 0)
(7.62454 -0.04565 0)
(7.45353 1.11993 0)
(7.24992 1.31536 0)
(6.79982 1.13064 0)
(6.91954 1.36157 0)
(6.80431 1.31543 0)
(6.07883 0.845348 0)
(5.87378 0.547359 0)
(6.15983 1.99667 0)
(7.18675 4.73378 0)
(8.32088 7.24451 0)
(8.95536 8.78293 0)
(9.10563 9.30905 0)
(8.95438 9.238 0)
(8.64474 8.87938 0)
(8.35257 8.28887 0)
(8.06721 7.46129 0)
(7.89536 6.37828 0)
(7.76909 5.08715 0)
(7.60892 3.64347 0)
(7.41012 2.06272 0)
(7.1864 0.234794 0)
(6.93565 -1.64776 0)
(6.86697 -3.05243 0)
(6.90404 -4.07579 0)
(6.69 -5.3795 0)
(6.36324 -6.8298 0)
(6.40438 -7.69653 0)
(6.5399 -8.33676 0)
(6.53253 -9.12194 0)
(6.45359 -9.11222 0)
(6.629 -7.78151 0)
(6.85696 -6.23116 0)
(6.69875 -5.91679 0)
(6.54151 -6.70555 0)
(6.3559 -7.36905 0)
(6.09181 -7.83836 0)
(5.90675 -8.26559 0)
(5.74081 -8.59084 0)
(5.50424 -9.07368 0)
(5.40341 -8.9631 0)
(5.62531 -8.13457 0)
(5.31357 -7.95931 0)
(5.31786 -7.76679 0)
(5.78171 -6.1497 0)
(5.82779 -4.55144 0)
(5.68258 -3.32777 0)
(6.0915 -1.88986 0)
(6.53356 -0.709062 0)
(7.14903 1.43881 0)
(7.45968 3.76459 0)
(7.20471 4.70079 0)
(7.45838 5.31796 0)
(7.92776 7.10392 0)
(8.09923 8.77508 0)
(7.65725 8.92408 0)
(7.24225 8.50014 0)
(7.4035 8.8185 0)
(7.87484 9.69638 0)
(8.30803 10.1798 0)
(8.25438 10.2157 0)
(8.48802 9.87159 0)
(8.22814 9.28067 0)
(7.89639 8.54959 0)
(7.67111 7.62787 0)
(7.07235 6.60406 0)
(6.73844 5.64473 0)
(6.33582 4.78791 0)
(6.02858 3.95864 0)
(5.95066 3.00239 0)
(5.76147 2.27685 0)
(5.91161 1.5816 0)
(6.35626 1.09111 0)
(6.34594 0.817686 0)
(6.92746 0.271411 0)
(7.054 -0.210149 0)
(7.19731 -0.647934 0)
(7.44221 -0.774896 0)
(7.47153 -0.802543 0)
(7.37119 -1.00041 0)
(7.61286 -1.67826 0)
(7.60712 -2.17522 0)
(7.56354 -1.93386 0)
(7.54412 -2.05859 0)
(7.64896 -2.14164 0)
(7.26669 -1.88795 0)
(6.96884 -1.97098 0)
(6.94251 -2.15387 0)
(7.28089 -2.50266 0)
(7.24779 -2.82043 0)
(7.22891 -2.74415 0)
(7.08046 -2.97955 0)
(7.19511 -3.38699 0)
(6.84605 -3.54963 0)
(6.45737 -3.49963 0)
(6.03575 -3.52387 0)
(5.79208 -3.52786 0)
(5.66111 -3.10601 0)
(5.52712 -2.45167 0)
(5.25464 -1.76963 0)
(5.30203 -1.46686 0)
(5.15257 -2.01992 0)
(5.47685 -2.97836 0)
(5.51119 -3.7054 0)
(6.04404 -4.61916 0)
(6.1306 -5.57105 0)
(6.17326 -6.50313 0)
(6.18786 -6.82151 0)
(6.35264 -7.10997 0)
(6.13221 -7.89892 0)
(6.23844 -8.13972 0)
(6.08142 -7.8062 0)
(6.13187 -7.06246 0)
(6.18981 -6.41051 0)
(6.31048 -5.6501 0)
(6.68192 -4.54229 0)
(7.16646 -3.24876 0)
(7.1541 -1.62635 0)
(7.13536 0.249584 0)
(7.30322 1.75251 0)
(7.52802 2.54664 0)
(7.56128 3.26931 0)
(7.45673 4.45993 0)
(7.56145 5.682 0)
(7.42899 6.40485 0)
(7.63603 7.01623 0)
(7.55788 7.74614 0)
(8.12468 8.51655 0)
(8.35188 8.9358 0)
(8.80725 9.06259 0)
(8.78408 8.77295 0)
(8.85885 8.08692 0)
(8.78072 7.19165 0)
(8.61356 6.10474 0)
(8.5066 4.99189 0)
(8.47366 3.76969 0)
(7.35668 2.92566 0)
(7.31333 2.89091 0)
(7.36454 3.11064 0)
(6.66324 3.19574 0)
(6.66347 3.16724 0)
(7.03194 3.24003 0)
(6.39223 3.30664 0)
(6.01044 3.44247 0)
(6.19817 3.81844 0)
(5.44915 3.92735 0)
(5.33561 4.07723 0)
(5.05336 4.69215 0)
(5.56628 4.77445 0)
(4.658 6.39983 0)
(5.59957 5.12232 0)
(3.87935 3.8677 0)
(4.5862 2.2162 0)
(3.80603 4.47065 0)
(5.35529 0.132587 0)
(5.79067 -0.115521 0)
(6.083 -0.304354 0)
(6.35486 -0.225582 0)
(6.54219 -0.0205433 0)
(6.56935 -0.0412218 0)
(6.91548 0.0483897 0)
(7.44955 0.0379702 0)
(7.61252 -0.205089 0)
(7.41983 0.116913 0)
(8.05854 0.331996 0)
(9.01381 0.0986462 0)
(9.35286 -0.0355683 0)
(10.1016 -0.40062 0)
(10.9022 -0.825149 0)
(11.3197 -1.40245 0)
(12.2697 -1.96103 0)
(12.7722 -2.5843 0)
(13.2658 -3.18928 0)
(13.801 -3.75874 0)
(14.0138 -4.45785 0)
(14.0358 -4.73961 0)
(13.7255 -5.05303 0)
(13.6942 -5.26624 0)
(13.3474 -5.38561 0)
(13.1123 -5.46672 0)
(12.9422 -5.33137 0)
(13.0674 -5.55498 0)
(12.7768 -5.44588 0)
(12.6878 -5.17891 0)
(12.6568 -5.17838 0)
(12.3882 -4.75146 0)
(12.5585 -4.53789 0)
(12.1371 -4.16368 0)
(12.0338 -3.51667 0)
(11.9213 -3.23483 0)
(11.2465 -2.70254 0)
(11.1832 -1.99238 0)
(10.626 -1.55646 0)
(10.2256 -1.2369 0)
(9.79914 -0.405291 0)
(9.22809 -0.0845735 0)
(8.89877 -0.335296 0)
(8.53681 0.505563 0)
(8.1809 1.044 0)
(7.43473 0.0215276 0)
(7.6138 -0.0482381 0)
(7.49507 1.19736 0)
(7.37148 1.43081 0)
(6.92528 1.14557 0)
(7.11325 1.39018 0)
(7.11208 1.46262 0)
(6.44488 1.05518 0)
(6.05959 0.579958 0)
(6.16795 1.67887 0)
(7.16001 4.2644 0)
(8.36577 6.86702 0)
(9.17325 8.59755 0)
(9.48484 9.30099 0)
(9.43114 9.33257 0)
(9.15391 9.00021 0)
(8.88686 8.41359 0)
(8.63055 7.56735 0)
(8.46399 6.46062 0)
(8.34957 5.16055 0)
(8.20019 3.73416 0)
(8.02465 2.16463 0)
(7.85158 0.341974 0)
(7.58129 -1.57789 0)
(7.41919 -3.04557 0)
(7.40069 -4.01727 0)
(7.20876 -5.25437 0)
(6.8609 -6.76291 0)
(6.84036 -7.71762 0)
(6.95037 -8.35443 0)
(6.91889 -9.10673 0)
(6.76716 -9.14261 0)
(6.82488 -7.83201 0)
(6.9596 -6.19801 0)
(6.72418 -5.83276 0)
(6.51187 -6.61466 0)
(6.27134 -7.26122 0)
(5.96803 -7.72773 0)
(5.73969 -8.19669 0)
(5.53781 -8.51128 0)
(5.27003 -8.97625 0)
(5.09626 -8.96505 0)
(5.28751 -8.11825 0)
(4.96484 -7.88999 0)
(4.88388 -7.77002 0)
(5.32797 -6.24408 0)
(5.45622 -4.55915 0)
(5.29252 -3.4126 0)
(5.66564 -2.08575 0)
(6.22156 -0.8781 0)
(6.75159 1.29626 0)
(7.01227 3.6857 0)
(6.75273 4.66457 0)
(7.06706 5.25321 0)
(7.58998 6.99274 0)
(7.81935 8.75723 0)
(7.4582 9.05779 0)
(7.0229 8.58838 0)
(7.13205 8.69949 0)
(7.61884 9.50488 0)
(8.21731 10.0428 0)
(8.23128 10.1278 0)
(8.58923 9.88739 0)
(8.52804 9.35371 0)
(8.25462 8.67927 0)
(8.22577 7.7985 0)
(7.66349 6.81058 0)
(7.42687 5.78629 0)
(6.96131 4.92226 0)
(6.75398 4.02444 0)
(6.58027 3.07607 0)
(6.3542 2.25842 0)
(6.68461 1.44232 0)
(6.7776 1.05241 0)
(6.95842 0.705132 0)
(7.58577 0.152037 0)
(7.41871 -0.230561 0)
(7.57813 -0.741456 0)
(7.71609 -0.783925 0)
(7.59743 -0.740564 0)
(7.56973 -1.05502 0)
(7.71713 -1.70201 0)
(7.53903 -2.14244 0)
(7.53701 -1.9215 0)
(7.60572 -2.07148 0)
(7.52237 -2.08814 0)
(7.17018 -1.74336 0)
(7.14692 -1.95386 0)
(7.31877 -2.23593 0)
(7.64128 -2.54129 0)
(7.51419 -2.80038 0)
(7.40296 -2.71444 0)
(7.22781 -2.94031 0)
(7.30258 -3.31809 0)
(6.90981 -3.39796 0)
(6.41109 -3.29949 0)
(5.96873 -3.37214 0)
(5.63733 -3.43248 0)
(5.52406 -3.04833 0)
(5.40382 -2.3793 0)
(5.17273 -1.72155 0)
(5.29072 -1.45143 0)
(5.15062 -2.05792 0)
(5.42643 -3.04469 0)
(5.43231 -3.82825 0)
(6.02848 -4.76199 0)
(6.12974 -5.57617 0)
(6.14564 -6.49623 0)
(5.97975 -6.85111 0)
(6.21755 -7.1119 0)
(5.8416 -7.87254 0)