/*--------------------------------*- C++ -*----------------------------------*\
| =========                 |                                                 |
| \\      /  F ield         | OpenFOAM: The Open Source CFD Toolbox           |
|  \\    /   O peration     | Version:  2.4.0                                 |
|   \\  /    A nd           | Web:      www.OpenFOAM.org                      |
|    \\/     M anipulation  |                                                 |
\*---------------------------------------------------------------------------*/
FoamFile
{
    version     2.0;
    format      ascii;
    class       volScalarField;
    location    "0.03";
    object      k;
}
// * * * * * * * * * * * * * * * * * * * * * * * * * * * * * * * * * * * * * //

dimensions      [0 2 -2 0 0 0 0];

internalField   nonuniform List<scalar> 
17600
(
0.776953
4.43056
7.44449
8.34915
8.12002
7.45023
6.51969
5.74749
5.10477
4.63744
4.24077
3.98266
3.71673
3.55897
3.37979
3.25636
3.13732
3.03659
2.95808
2.86672
2.81913
2.73198
2.69698
2.61082
2.58639
2.51151
2.49588
2.4305
2.42396
2.36186
2.35896
2.29293
2.29887
2.24357
2.2484
2.17834
2.17261
2.10228
2.07347
1.93595
0.0130989
0.29148
1.04121
2.00909
2.6879
3.05462
3.19621
3.19897
3.15977
3.116
3.03547
2.97504
2.90384
2.84554
2.77927
2.71369
2.67872
2.5963
2.56757
2.50834
2.47974
2.42097
2.40279
2.35139
2.33057
2.28806
2.26865
2.22292
2.21195
2.17656
2.16303
2.12944
2.11806
2.08796
2.08361
2.06281
2.05675
2.03889
2.03168
2.00098
9.32774e-05
0.007399
0.0470848
0.142611
0.346011
0.51746
0.674621
0.818652
0.871641
0.936184
0.991723
1.0035
1.03282
1.06308
1.07156
1.09371
1.1266
1.12773
1.14465
1.16745
1.16885
1.18033
1.20176
1.20481
1.21461
1.23432
1.23194
1.23891
1.24537
1.24913
1.25285
1.26713
1.26059
1.26528
1.26803
1.28215
1.28252
1.29299
1.30383
1.29969
2.07046e-05
0.000152342
0.00136972
0.00599758
0.0220425
0.042468
0.0689769
0.118766
0.138697
0.1619
0.199216
0.209058
0.226658
0.247978
0.253854
0.267478
0.285885
0.289724
0.29927
0.318142
0.321288
0.329797
0.345267
0.349693
0.35963
0.377792
0.381577
0.39021
0.403195
0.409087
0.417062
0.436945
0.44129
0.450367
0.457882
0.474631
0.480695
0.492138
0.496863
0.503893
2.03066e-05
2.29553e-05
5.10964e-05
0.00019811
0.000828895
0.00207629
0.00390702
0.00930187
0.0126581
0.015313
0.0227038
0.0249653
0.028454
0.0349768
0.0367539
0.0405418
0.0462421
0.0476746
0.0501946
0.057238
0.0586759
0.0612841
0.0663318
0.0674906
0.0700477
0.0756069
0.0769724
0.0797058
0.0842045
0.0853729
0.0873466
0.0926205
0.0945936
0.0962695
0.100443
0.105059
0.107874
0.109891
0.112766
0.113636
2.02254e-05
2.10224e-05
2.27812e-05
2.82339e-05
4.85937e-05
9.65331e-05
0.000179726
0.000499763
0.000734663
0.000945902
0.0015424
0.00176302
0.0019926
0.00285943
0.00308843
0.0036053
0.00418761
0.0044426
0.00476056
0.00615289
0.00644777
0.00701859
0.00769613
0.00795918
0.00825431
0.00954997
0.00988319
0.0107546
0.0111565
0.0117393
0.0119485
0.0128626
0.0130206
0.0138365
0.0143007
0.015601
0.0159608
0.0171355
0.0178294
0.019702
2.01114e-05
2.11742e-05
2.17857e-05
2.32164e-05
2.72622e-05
3.18034e-05
3.56567e-05
5.36231e-05
6.63495e-05
7.81716e-05
0.000108158
0.000119335
0.000129253
0.000183102
0.000200484
0.000232939
0.000273734
0.000288357
0.000310032
0.000420181
0.000451364
0.000500767
0.000567489
0.000581342
0.000603719
0.000717967
0.000757211
0.000868191
0.00091571
0.000958964
0.000973518
0.00106025
0.00107619
0.00117776
0.00123424
0.00138934
0.00142056
0.00151071
0.00155217
0.00177479
2.00598e-05
2.05807e-05
2.13521e-05
2.2322e-05
2.58104e-05
2.83291e-05
2.9996e-05
3.52542e-05
3.7951e-05
3.92514e-05
4.25203e-05
4.28813e-05
4.32557e-05
4.54489e-05
4.68711e-05
4.79002e-05
5.11645e-05
5.16843e-05
5.26923e-05
5.75456e-05
6.01735e-05
6.27663e-05
6.87555e-05
6.87265e-05
6.9646e-05
7.47766e-05
7.69464e-05
8.29383e-05
8.8575e-05
8.88914e-05
8.9782e-05
9.3174e-05
9.47981e-05
9.75847e-05
0.000104673
0.000109163
0.000112252
0.000113107
0.000116096
0.000134995
2.00181e-05
2.06555e-05
2.1091e-05
2.25567e-05
2.41452e-05
2.80632e-05
2.92561e-05
3.38163e-05
3.48236e-05
3.74501e-05
3.77673e-05
3.83375e-05
3.8336e-05
3.93593e-05
3.96713e-05
4.05578e-05
4.06441e-05
4.07843e-05
4.08043e-05
4.14219e-05
4.17171e-05
4.25733e-05
4.29159e-05
4.29964e-05
4.29838e-05
4.35465e-05
4.36508e-05
4.42193e-05
4.48509e-05
4.50799e-05
4.50169e-05
4.52484e-05
4.53943e-05
4.60549e-05
4.62682e-05
4.71225e-05
4.73731e-05
4.77738e-05
4.86308e-05
6.08242e-05
2.00094e-05
2.02829e-05
2.10167e-05
2.18999e-05
2.42815e-05
2.71219e-05
2.82783e-05
3.21554e-05
3.35255e-05
3.58506e-05
3.67167e-05
3.67149e-05
3.67607e-05
3.74239e-05
3.7588e-05
3.78767e-05
3.77745e-05
3.77663e-05
3.79219e-05
3.84237e-05
3.91417e-05
3.9628e-05
3.98352e-05
3.96985e-05
3.96899e-05
3.98652e-05
4.01077e-05
4.02356e-05
4.06306e-05
4.06055e-05
4.05752e-05
4.04987e-05
4.06386e-05
4.08039e-05
4.14295e-05
4.16938e-05
4.239e-05
4.26592e-05
4.3671e-05
5.42854e-05
2.00098e-05
2.02666e-05
2.08936e-05
2.19078e-05
2.44285e-05
2.70409e-05
2.8169e-05
3.21753e-05
3.35721e-05
3.57417e-05
3.6208e-05
3.61949e-05
3.61797e-05
3.73911e-05
3.77463e-05
3.85443e-05
3.82493e-05
3.86099e-05
3.86815e-05
3.93646e-05
3.96016e-05
4.06206e-05
4.05392e-05
4.08534e-05
4.07778e-05
4.13032e-05
4.13405e-05
4.19965e-05
4.21072e-05
4.26477e-05
4.25468e-05
4.29282e-05
4.30631e-05
4.39292e-05
4.39622e-05
4.49195e-05
4.49937e-05
4.65303e-05
4.81443e-05
6.93172e-05
2.00283e-05
2.03061e-05
2.09698e-05
2.24888e-05
2.41841e-05
2.73161e-05
2.88719e-05
3.24137e-05
3.46903e-05
3.69555e-05
3.73907e-05
3.75879e-05
3.77593e-05
3.92345e-05
3.95539e-05
4.02209e-05
3.9825e-05
4.01653e-05
4.0187e-05
4.07723e-05
4.13166e-05
4.28823e-05
4.27554e-05
4.3338e-05
4.32113e-05
4.39754e-05
4.40911e-05
4.53119e-05
4.55635e-05
4.6681e-05
4.65457e-05
4.75283e-05
4.76964e-05
4.93808e-05
4.96774e-05
5.22832e-05
5.30024e-05
5.77669e-05
5.98274e-05
7.80202e-05
2.00617e-05
2.03722e-05
2.1301e-05
2.24154e-05
2.60292e-05
2.76215e-05
3.20117e-05
3.36082e-05
3.80937e-05
3.97052e-05
4.19967e-05
4.24997e-05
4.33859e-05
4.46243e-05
4.87999e-05
5.08181e-05
5.17519e-05
5.3912e-05
5.45756e-05
5.68695e-05
6.37579e-05
6.63614e-05
6.88767e-05
7.23747e-05
7.26164e-05
7.71928e-05
8.09839e-05
9.30392e-05
9.76222e-05
0.00010349
0.00010487
0.000111729
0.000114625
0.0001298
0.000139781
0.000168246
0.000179789
0.000210044
0.000223649
0.000275127
2.01149e-05
2.06056e-05
2.16263e-05
2.36689e-05
2.72989e-05
3.01068e-05
4.02467e-05
4.76418e-05
6.58622e-05
8.21992e-05
9.03006e-05
0.00012318
0.000143219
0.000163439
0.000216648
0.000235392
0.000274397
0.00030612
0.000321573
0.000385245
0.00047634
0.000500364
0.000560523
0.000587967
0.000622046
0.00069565
0.000788291
0.000926366
0.00102927
0.00105464
0.00111922
0.00116535
0.00125573
0.00144399
0.00161138
0.00182782
0.00195312
0.00210668
0.00221564
0.00259311
2.04877e-05
2.10961e-05
2.28435e-05
2.90431e-05
4.696e-05
8.99565e-05
0.000268559
0.000401006
0.000769411
0.00103926
0.00121655
0.00190566
0.00222834
0.00252803
0.00333625
0.00359855
0.00427629
0.00466927
0.00491759
0.00587762
0.00668754
0.00698257
0.00771054
0.00802949
0.00869806
0.00927483
0.0100468
0.0112571
0.0121064
0.0123991
0.0131859
0.0135932
0.0144992
0.0153992
0.0168197
0.0177031
0.0189227
0.0192543
0.0195501
0.0205156
2.03904e-05
2.30038e-05
4.9696e-05
0.000220201
0.000747712
0.00183216
0.00559325
0.0077773
0.0132043
0.016422
0.019088
0.0268955
0.0297746
0.0322733
0.039043
0.0409064
0.0463172
0.0484582
0.0506128
0.0567147
0.0604633
0.061805
0.0660405
0.0678367
0.0730447
0.0749939
0.0792748
0.0819946
0.0871443
0.0887161
0.0940433
0.0959043
0.101137
0.10347
0.10993
0.112072
0.117343
0.117529
0.118775
0.120219
2.06884e-05
0.000144843
0.00131758
0.0065652
0.0198933
0.0383407
0.0846827
0.104986
0.144596
0.16685
0.184383
0.217682
0.22841
0.239889
0.262586
0.267607
0.285299
0.291367
0.300684
0.316939
0.325928
0.330146
0.345199
0.351949
0.369993
0.375525
0.389637
0.396143
0.411617
0.417601
0.436973
0.443039
0.460039
0.465626
0.482565
0.486811
0.49861
0.494806
0.494632
0.497684
9.6759e-05
0.00725881
0.0461757
0.159958
0.327005
0.51331
0.69833
0.787866
0.88939
0.946097
0.967584
1.0197
1.03199
1.06112
1.08185
1.09088
1.1216
1.13508
1.14352
1.16751
1.17322
1.18517
1.19825
1.21297
1.22645
1.23193
1.24131
1.25169
1.25478
1.26222
1.27469
1.27941
1.28083
1.28177
1.28457
1.28446
1.27872
1.27019
1.25082
1.26339
0.0132379
0.29039
1.02932
2.03087
2.67475
3.06371
3.19733
3.19597
3.16168
3.11853
3.02751
2.98696
2.8941
2.85719
2.76358
2.73366
2.65208
2.62102
2.55283
2.52362
2.45998
2.44092
2.38134
2.36717
2.31369
2.29681
2.25145
2.23553
2.19062
2.18121
2.13934
2.12643
2.08695
2.07606
2.04275
2.03054
1.99516
1.99107
1.98328
1.98369
0.777151
4.42127
7.45045
8.35279
8.12096
7.46067
6.50327
5.76987
5.08213
4.65198
4.23532
3.97846
3.72143
3.55879
3.36222
3.28171
3.09781
3.05689
2.9272
2.88374
2.78539
2.75004
2.65399
2.62883
2.53397
2.51873
2.44147
2.42159
2.35935
2.33931
2.27084
2.25032
2.19691
2.17728
2.1417
2.10083
2.0939
2.06385
2.08291
2.00367
1.43909
1.13794
0.988815
0.901501
0.832862
0.764949
0.690497
0.615752
0.53759
0.460175
0.379291
0.300998
0.235867
0.185942
0.146919
0.119494
0.101102
0.089984
0.0840704
0.084582
0.0858098
0.0872924
0.0887841
0.0915281
0.0932618
0.0946048
0.0948046
0.0946631
0.0941516
0.0930723
0.0904324
0.0882353
0.0853193
0.0810164
0.0795314
0.0797472
0.0810107
0.0839588
0.0908433
0.105821
0.128963
0.1509
0.173033
0.192122
0.203474
0.208299
0.208134
0.207396
0.20558
0.200683
0.195753
0.185436
0.173386
0.157826
0.138542
0.114747
0.0919063
0.0706482
0.0502251
0.0360082
0.0261289
0.019083
0.0144861
0.0115796
0.00937994
0.00726488
0.00694244
0.00696795
0.0065438
0.00457956
0.00321894
0.00271553
0.00240325
0.00215897
0.00203746
0.00205052
0.00232383
0.0024506
0.00264249
0.00325918
0.00412691
0.00473757
0.00500224
0.00514053
0.00510718
0.00474691
0.00459902
0.00474037
0.00554966
0.00586756
0.00561027
0.00462138
0.00387516
0.00340684
0.00301941
0.00282464
0.00284069
0.00322786
0.00495741
0.00677767
0.00739399
0.00704425
0.00634252
0.00628864
0.00638125
0.00729848
0.0119848
0.0162766
0.0181271
0.018158
0.0176766
0.0183043
0.0221064
0.025544
0.0272861
0.0276774
0.0268626
0.0246088
0.0224844
0.0205842
0.018707
0.0166314
0.0142932
0.0118026
0.00935383
0.0071285
0.00524243
0.00373536
0.00258843
0.00175019
0.0011583
0.000753021
0.000482871
0.000306884
0.000194397
0.000123538
7.93275e-05
5.18473e-05
3.47131e-05
2.39134e-05
1.69771e-05
1.24049e-05
9.29629e-06
7.11248e-06
5.52963e-06
4.35061e-06
3.45277e-06
2.75736e-06
2.21198e-06
1.7804e-06
1.43669e-06
1.16168e-06
9.40867e-07
7.6311e-07
6.19706e-07
5.03811e-07
4.10002e-07
3.33969e-07
2.72266e-07
2.22136e-07
1.81367e-07
1.4818e-07
1.21139e-07
9.90894e-08
8.10957e-08
6.64017e-08
5.43945e-08
4.4577e-08
3.65453e-08
2.99714e-08
2.4588e-08
2.01777e-08
1.65631e-08
1.35995e-08
1.11689e-08
9.17484e-09
7.53836e-09
6.19501e-09
5.09202e-09
4.18615e-09
3.44202e-09
2.83063e-09
2.3282e-09
1.91523e-09
1.57575e-09
1.29662e-09
1.06708e-09
8.78296e-10
7.23005e-10
5.95249e-10
4.90131e-10
4.03629e-10
3.32438e-10
2.7384e-10
2.25603e-10
1.8589e-10
1.5319e-10
1.26263e-10
1.04086e-10
8.58187e-11
7.07703e-11
5.83722e-11
4.81557e-11
3.97361e-11
3.27961e-11
2.7075e-11
2.23577e-11
1.84676e-11
1.52591e-11
1.26121e-11
1.04281e-11
8.62559e-12
7.1378e-12
5.90924e-12
4.89473e-12
4.0565e-12
3.36395e-12
2.79136e-12
2.31802e-12
1.9264e-12
1.60242e-12
1.33419e-12
1.11215e-12
9.28113e-13
7.75641e-13
6.4916e-13
5.44254e-13
4.57092e-13
3.84752e-13
3.2455e-13
2.74469e-13
2.3281e-13
1.98083e-13
1.69095e-13
1.44953e-13
1.24845e-13
1.07945e-13
9.39304e-14
8.22106e-14
7.24029e-14
6.4251e-14
5.75048e-14
5.18293e-14
4.72443e-14
4.35304e-14
4.03768e-14
3.80149e-14
3.63403e-14
3.48245e-14
3.39435e-14
3.38683e-14
3.40203e-14
3.44801e-14
3.56954e-14
3.68604e-14
3.93751e-14
4.13093e-14
4.54329e-14
4.84229e-14
5.44575e-14
5.97556e-14
6.59547e-14
7.76393e-14
8.49885e-14
9.9888e-14
1.11219e-13
1.35427e-13
1.51109e-13
1.83188e-13
2.06631e-13
2.53185e-13
2.99115e-13
3.37814e-13
4.28509e-13
5.05463e-13
5.70275e-13
7.60734e-13
8.38143e-13
1.1839e-12
1.30136e-12
2.32323e-12
2.68352e-12
7.10004e-12
1.02234e-11
3.54601e-11
6.85059e-11
2.33846e-10
5.48941e-10
1.68152e-09
4.04777e-09
1.13247e-08
2.62673e-08
6.73841e-08
1.52415e-07
3.70627e-07
8.15673e-07
1.80512e-06
3.81502e-06
6.85151e-06
1.37248e-05
1.83875e-05
2.9574e-05
3.27275e-05
3.86972e-05
4.09794e-05
4.1445e-05
4.48087e-05
4.90602e-05
5.00797e-05
5.39943e-05
5.60303e-05
5.98241e-05
6.18865e-05
6.65649e-05
6.88779e-05
7.174e-05
7.67885e-05
8.61703e-05
8.66637e-05
9.1703e-05
9.53057e-05
0.000100248
0.000101483
0.000106218
0.000113067
0.000119347
0.000124033
0.000134475
0.000135382
0.0001391
0.000141042
0.000147292
0.000148961
0.000152742
0.000154372
0.000159783
0.000162986
0.000164493
0.000170254
0.000173592
0.000179529
0.000181901
0.000189109
0.000192372
0.000202194
0.00020688
0.000218945
0.000223446
0.000244299
0.000250438
0.000275384
0.000284251
0.00031449
0.000325018
0.000364176
0.000378719
0.000423827
0.000442478
0.000496646
0.000516957
0.000566324
0.000590185
0.000657071
0.000684186
0.000729848
0.000764103
0.000787041
0.000784682
0.000777479
0.000741149
0.000723006
0.000664392
0.000651883
0.00064922
0.000664024
0.000740825
0.000768066
0.000966328
0.0010049
0.00135216
0.0013703
0.00169544
0.00156345
0.00164463
0.0014467
0.00147504
0.00162349
0.00182416
0.0028013
0.00293773
0.00421496
0.00376649
0.00437861
0.00543305
0.00749537
0.0159275
0.0183781
0.0355425
0.202182
2.40335
1.80312
1.59751
1.42495
1.29461
1.19671
1.1213
1.05999
1.00822
0.963114
0.91885
0.874957
0.83192
0.784569
0.73199
0.676158
0.614741
0.551052
0.487642
0.428088
0.371305
0.322103
0.280208
0.245709
0.217484
0.196164
0.180176
0.168205
0.160545
0.154194
0.150587
0.150406
0.151343
0.154917
0.16419
0.174878
0.188754
0.206309
0.223772
0.237722
0.246911
0.247818
0.246789
0.24257
0.238498
0.230671
0.221383
0.210314
0.198362
0.179757
0.158619
0.132777
0.107374
0.0839782
0.0614318
0.0449237
0.0330835
0.0244191
0.0183124
0.013937
0.0107162
0.00849519
0.00684524
0.0058051
0.00479783
0.00392422
0.00352607
0.00306083
0.00253427
0.00196716
0.00171458
0.00171681
0.0018125
0.00189945
0.0018872
0.00187855
0.00191016
0.00232986
0.00269865
0.00320728
0.00400009
0.00420612
0.00380834
0.00289266
0.0024433
0.00230058
0.00242798
0.0030414
0.00438774
0.00601959
0.00690305
0.00691018
0.00621013
0.00507402
0.00381067
0.0030551
0.00297754
0.00322552
0.00439314
0.00545855
0.00615749
0.00653973
0.00647786
0.00557243
0.00532343
0.00656613
0.00955217
0.0111297
0.0114661
0.0114127
0.0112206
0.0112031
0.0112092
0.0123486
0.017262
0.0217959
0.0243464
0.0251368
0.0248811
0.0230539
0.0208835
0.0187974
0.0166692
0.0144065
0.0120235
0.00964018
0.00742084
0.00550178
0.00395028
0.00276246
0.00189042
0.00127059
0.000841019
0.000549641
0.000355751
0.000228956
0.000147235
9.51479e-05
6.2178e-05
4.13458e-05
2.81246e-05
1.9638e-05
1.40895e-05
1.0372e-05
7.80951e-06
5.98999e-06
4.66133e-06
3.66714e-06
2.90829e-06
2.32013e-06
1.85901e-06
1.49447e-06
1.2045e-06
9.72807e-07
7.87047e-07
6.37711e-07
5.17393e-07
4.20274e-07
3.41752e-07
2.78175e-07
2.26631e-07
1.84791e-07
1.50792e-07
1.23135e-07
1.00616e-07
8.22655e-08
6.72989e-08
5.50835e-08
4.51066e-08
3.69528e-08
3.02852e-08
2.48299e-08
2.03643e-08
1.67072e-08
1.37108e-08
1.1255e-08
9.24137e-09
7.58985e-09
6.23488e-09
5.1229e-09
4.21008e-09
3.46057e-09
2.84501e-09
2.33935e-09
1.92388e-09
1.58245e-09
1.30181e-09
1.0711e-09
8.81404e-10
7.2541e-10
5.97109e-10
4.91571e-10
4.04745e-10
3.33305e-10
2.74515e-10
2.26129e-10
1.863e-10
1.53511e-10
1.26513e-10
1.04281e-10
8.59712e-11
7.08892e-11
5.84642e-11
4.8227e-11
3.97907e-11
3.2838e-11
2.71068e-11
2.2382e-11
1.84859e-11
1.52728e-11
1.26223e-11
1.04355e-11
8.63092e-12
7.14136e-12
5.91163e-12
4.89604e-12
4.05723e-12
3.36409e-12
2.79131e-12
2.31771e-12
1.92609e-12
1.60201e-12
1.33384e-12
1.11173e-12
9.27718e-13
7.75154e-13
6.48678e-13
5.4365e-13
4.5647e-13
3.84046e-13
3.23859e-13
2.73737e-13
2.32098e-13
1.97403e-13
1.68457e-13
1.44369e-13
1.24284e-13
1.0747e-13
9.34783e-14
8.18405e-14
7.20274e-14
6.39498e-14
5.72181e-14
5.15822e-14
4.69771e-14
4.32869e-14
4.0142e-14
3.779e-14
3.60877e-14
3.45783e-14
3.37011e-14
3.36241e-14
3.37719e-14
3.43398e-14
3.51624e-14
3.70198e-14
3.85295e-14
4.17627e-14
4.41684e-14
4.92905e-14
5.28766e-14
6.04394e-14
6.56924e-14
7.68033e-14
8.44241e-14
1.00509e-13
1.1164e-13
1.34957e-13
1.51593e-13
1.82445e-13
2.16998e-13
2.4202e-13
3.17362e-13
3.50021e-13
4.58718e-13
4.88757e-13
7.29951e-13
7.16491e-13
1.24759e-12
1.11224e-12
2.89704e-12
2.57794e-12
1.1025e-11
1.42058e-11
5.98374e-11
1.29551e-10
4.61762e-10
1.29735e-09
4.27305e-09
1.16127e-08
3.22455e-08
7.70039e-08
1.80172e-07
3.41446e-07
7.17028e-07
9.91787e-07
1.66232e-06
1.81414e-06
2.21371e-06
2.25708e-06
2.41137e-06
3.15813e-06
4.11208e-06
7.61386e-06
8.83196e-06
1.41512e-05
1.51431e-05
1.83803e-05
1.88926e-05
2.14543e-05
2.24188e-05
2.5939e-05
2.77443e-05
3.46663e-05
3.7818e-05
4.64713e-05
4.79401e-05
5.41062e-05
5.69389e-05
6.41118e-05
6.67206e-05
7.61371e-05
8.40898e-05
9.99943e-05
0.000103925
0.000117079
0.000122632
0.000136379
0.000141293
0.000159404
0.00016621
0.000177933
0.000183091
0.00020036
0.000208441
0.000228083
0.000235015
0.000255629
0.000264204
0.000283642
0.000289139
0.00031281
0.000317379
0.000335743
0.000336426
0.000344856
0.00034159
0.00035017
0.000342173
0.000345673
0.000339278
0.000346977
0.000339889
0.000347776
0.000348748
0.000354897
0.000354867
0.000368582
0.00037699
0.000385
0.00041199
0.000424563
0.000472612
0.00048677
0.000559652
0.000579154
0.000687664
0.000709233
0.000840863
0.000871199
0.00101879
0.00105686
0.00119714
0.00121063
0.00126283
0.00120878
0.00117375
0.00104445
0.00105635
0.00106161
0.00110244
0.00126853
0.00137542
0.00185877
0.00192367
0.00247911
0.0023118
0.00249655
0.00227222
0.00247875
0.00316347
0.00356181
0.00620385
0.00578929
0.00797302
0.00841271
0.0114398
0.0272657
0.0317643
0.0928497
0.597234
1.22587
1.14175
1.05801
0.988746
0.930307
0.882354
0.842116
0.80694
0.77772
0.753664
0.732261
0.714415
0.697926
0.683232
0.665484
0.648337
0.630968
0.611539
0.593202
0.573187
0.550813
0.530006
0.50839
0.48659
0.465831
0.445467
0.426098
0.409497
0.395574
0.382805
0.373797
0.366845
0.358791
0.350513
0.340906
0.330134
0.319324
0.306965
0.292256
0.278675
0.263095
0.24428
0.221275
0.195815
0.168612
0.140584
0.115164
0.0879038
0.0654318
0.0485848
0.0359377
0.0267204
0.0200043
0.0149941
0.0114185
0.00892756
0.00693218
0.00548475
0.00453168
0.00367541
0.00298435
0.00256669
0.00223956
0.00186803
0.0015376
0.00141143
0.0013523
0.00120767
0.00119531
0.0012905
0.00150276
0.00151459
0.00150178
0.00152099
0.00166621
0.00210566
0.00303425
0.00359989
0.00363557
0.00328342
0.00277778
0.00229537
0.00193883
0.00184462
0.00187281
0.001879
0.00186026
0.0019864
0.00312321
0.00454611
0.00518154
0.00504628
0.00389808
0.00300147
0.00274235
0.0031638
0.00470528
0.00538294
0.00547295
0.00538495
0.00486608
0.00402586
0.00340918
0.00321653
0.00379887
0.00557801
0.00678657
0.00726751
0.00751067
0.00845833
0.00970943
0.0103386
0.0104123
0.0109055
0.0146271
0.0190886
0.0218927
0.0228464
0.0224762
0.020019
0.0172996
0.0148551
0.0125754
0.0103967
0.00834831
0.00650349
0.00492285
0.00362887
0.00261112
0.00183872
0.00127031
0.000862868
0.000577495
0.000381823
0.000250235
0.00016325
0.000106567
7.00169e-05
4.65871e-05
3.15696e-05
2.18819e-05
1.55484e-05
1.13252e-05
8.43873e-06
6.4115e-06
4.94857e-06
3.8664e-06
3.04892e-06
2.4209e-06
1.93218e-06
1.54815e-06
1.24423e-06
1.00241e-06
8.09215e-07
6.54385e-07
5.29978e-07
4.298e-07
3.48981e-07
2.83674e-07
2.30822e-07
1.87991e-07
1.53239e-07
1.2501e-07
1.02055e-07
8.33709e-08
6.81492e-08
5.57383e-08
4.56113e-08
3.73423e-08
3.0586e-08
2.50625e-08
2.05442e-08
1.68464e-08
1.38188e-08
1.13387e-08
9.30634e-09
7.64029e-09
6.27405e-09
5.15332e-09
4.23371e-09
3.47892e-09
2.85925e-09
2.3504e-09
1.93245e-09
1.58909e-09
1.30696e-09
1.0751e-09
8.84505e-10
7.27816e-10
5.98976e-10
4.9302e-10
4.0587e-10
3.34176e-10
2.75189e-10
2.26649e-10
1.86701e-10
1.53819e-10
1.26749e-10
1.04461e-10
8.61079e-11
7.09925e-11
5.8542e-11
4.82852e-11
3.98342e-11
3.28703e-11
2.71305e-11
2.23989e-11
1.84977e-11
1.52807e-11
1.26272e-11
1.04383e-11
8.63211e-12
7.14149e-12
5.91094e-12
4.89488e-12
4.05568e-12
3.36235e-12
2.7894e-12
2.31573e-12
1.92402e-12
1.59993e-12
1.3317e-12
1.10961e-12
9.25638e-13
7.73172e-13
6.46793e-13
5.41917e-13
4.54887e-13
3.82607e-13
3.22564e-13
2.72565e-13
2.31076e-13
1.96459e-13
1.67624e-13
1.43601e-13
1.23604e-13
1.06819e-13
9.28797e-14
8.12396e-14
7.14799e-14
6.34091e-14
5.67036e-14
5.10685e-14
4.65117e-14
4.28235e-14
3.96986e-14
3.73463e-14
3.5666e-14
3.4173e-14
3.3279e-14
3.31915e-14
3.33354e-14
3.37832e-14
3.49843e-14
3.61332e-14
3.86011e-14
4.05151e-14
4.45932e-14
4.75462e-14
5.37354e-14
5.81055e-14
6.71985e-14
7.36434e-14
8.66078e-14
9.71203e-14
1.12215e-13
1.35889e-13
1.49325e-13
1.88144e-13
2.10369e-13
2.69263e-13
2.93021e-13
4.01346e-13
4.27255e-13
6.27293e-13
6.4357e-13
1.09031e-12
1.15748e-12
2.30614e-12
3.17583e-12
7.00627e-12
1.60559e-11
4.17017e-11
1.21254e-10
3.33233e-10
9.83194e-10
2.47685e-09
6.32067e-09
1.34605e-08
3.07305e-08
5.00541e-08
9.80852e-08
1.40848e-07
2.47606e-07
4.31694e-07
9.70576e-07
2.14979e-06
5.17679e-06
1.0774e-05
2.2411e-05
3.47208e-05
5.38974e-05
7.12299e-05
7.45793e-05
9.18302e-05
9.27395e-05
9.31895e-05
9.67079e-05
0.000101355
0.000103322
0.000110787
0.000113389
0.000122974
0.000122225
0.000124383
0.000128822
0.000131918
0.000134134
0.000142756
0.000147349
0.000159082
0.000157571
0.000159911
0.000167711
0.000169703
0.000174086
0.000180032
0.000189562
0.000196506
0.000204977
0.000208548
0.000219676
0.000226404
0.000243138
0.000249982
0.000268426
0.000276871
0.000298699
0.00030966
0.000337669
0.000353152
0.000390511
0.000406356
0.000442199
0.000464114
0.000516151
0.000544733
0.000584405
0.000636365
0.000658614
0.000701932
0.000726353
0.000783638
0.000794532
0.000817269
0.00084345
0.00086632
0.000864015
0.000877708
0.000887615
0.000872009
0.000862938
0.000824452
0.000811968
0.0007565
0.000761648
0.000754592
0.000765604
0.000807382
0.000829339
0.00095256
0.000986099
0.00121986
0.00124499
0.00161225
0.00165302
0.00206556
0.00202015
0.00225881
0.00205244
0.00208179
0.00185524
0.00189848
0.00204431
0.00215834
0.00302458
0.00310507
0.00425159
0.00390238
0.00463691
0.00426035
0.00484632
0.00690965
0.00775842
0.0166769
0.015661
0.0291707
0.0313769
0.0425689
0.156433
0.492026
0.478484
0.459306
0.440453
0.420632
0.403929
0.389375
0.377731
0.368913
0.362128
0.35802
0.355832
0.35608
0.357418
0.361135
0.364832
0.370351
0.375558
0.378782
0.382484
0.383358
0.382877
0.381405
0.378422
0.372151
0.3661
0.358275
0.348242
0.338583
0.32692
0.313189
0.298862
0.282941
0.264913
0.245936
0.225664
0.20355
0.180685
0.157856
0.133369
0.108394
0.0867046
0.0686724
0.0538435
0.0417145
0.0322334
0.0246951
0.018821
0.0143964
0.0109826
0.00844517
0.00655324
0.00507708
0.00403546
0.00324379
0.00259017
0.00212418
0.00179124
0.00148953
0.00124856
0.00111051
0.00101613
0.000892445
0.000831472
0.000841195
0.000896267
0.000897016
0.00090796
0.00097006
0.00125889
0.00132671
0.00132805
0.00141511
0.00159004
0.00229997
0.00274449
0.00273486
0.00238846
0.00203792
0.00185953
0.00182977
0.00180625
0.00174597
0.0017351
0.00178004
0.00185969
0.00187433
0.0018336
0.00171529
0.00166603
0.0017491
0.00207234
0.00219342
0.00209762
0.0019327
0.00245495
0.0046243
0.00549045
0.00534492
0.00441667
0.00361048
0.0030106
0.0027103
0.00267703
0.00324078
0.00416077
0.00449247
0.00449083
0.0045245
0.00679586
0.0125717
0.0163256
0.0178879
0.0180587
0.0174311
0.017253
0.0192267
0.0217385
0.0227449
0.0222993
0.0189076
0.0151116
0.0120051
0.00953981
0.00757481
0.00598245
0.00467567
0.00359872
0.00271654
0.00200612
0.0014475
0.00102038
0.000703465
0.000475314
0.000315759
0.000207114
0.000134852
8.77091e-05
5.73916e-05
3.80539e-05
2.57332e-05
1.78301e-05
1.26849e-05
9.26077e-06
6.91958e-06
5.2714e-06
4.07781e-06
3.19149e-06
2.51962e-06
2.00203e-06
1.59844e-06
1.28092e-06
1.02944e-06
8.29296e-07
6.6939e-07
5.41246e-07
4.38298e-07
3.55414e-07
2.88559e-07
2.34542e-07
1.90833e-07
1.55414e-07
1.26679e-07
1.03338e-07
8.43585e-08
6.8911e-08
5.63267e-08
4.60665e-08
3.76948e-08
3.08592e-08
2.52744e-08
2.07087e-08
1.69742e-08
1.3918e-08
1.14158e-08
9.36623e-09
7.68683e-09
6.31021e-09
5.18142e-09
4.25555e-09
3.4959e-09
2.87246e-09
2.36067e-09
1.94044e-09
1.59531e-09
1.3118e-09
1.07885e-09
8.87421e-10
7.30077e-10
6.00727e-10
4.94373e-10
4.06912e-10
3.34978e-10
2.75804e-10
2.2712e-10
1.8706e-10
1.54092e-10
1.26956e-10
1.04617e-10
8.62247e-11
7.10793e-11
5.86059e-11
4.83317e-11
3.98675e-11
3.28931e-11
2.71454e-11
2.24079e-11
1.85023e-11
1.52821e-11
1.26265e-11
1.04359e-11
8.62869e-12
7.13738e-12
5.90644e-12
4.89018e-12
4.05093e-12
3.35768e-12
2.78485e-12
2.3114e-12
1.91995e-12
1.59616e-12
1.32821e-12
1.10643e-12
9.22718e-13
7.70515e-13
6.44369e-13
5.39715e-13
4.5284e-13
3.80758e-13
3.20841e-13
2.70987e-13
2.29563e-13
1.95072e-13
1.66298e-13
1.42371e-13
1.22422e-13
1.0574e-13
9.18679e-14
8.02989e-14
7.06005e-14
6.25795e-14
5.59281e-14
5.03292e-14
4.57881e-14
4.2146e-14
3.90585e-14
3.66926e-14
3.50292e-14
3.35752e-14
3.26677e-14
3.25716e-14
3.27136e-14
3.31586e-14
3.43421e-14
3.5465e-14
3.78983e-14
3.98003e-14
4.38464e-14
4.67585e-14
5.2874e-14
5.72144e-14
6.62164e-14
7.26111e-14
8.55603e-14
9.56918e-14
1.12065e-13
1.33663e-13
1.47494e-13
1.895e-13
2.10615e-13
2.69362e-13
2.95502e-13
4.14662e-13
4.3547e-13
6.87828e-13
6.80363e-13
1.41099e-12
1.30959e-12
4.64955e-12
4.68001e-12
2.55882e-11
3.67461e-11
1.84234e-10
4.01062e-10
1.47383e-09
4.11821e-09
1.3026e-08
3.51062e-08
9.34456e-08
2.25358e-07
5.14807e-07
1.05231e-06
2.22037e-06
3.64048e-06
6.89098e-06
9.49402e-06
1.52464e-05
1.83035e-05
2.52061e-05
2.72044e-05
3.24446e-05
3.3636e-05
3.72721e-05
3.82351e-05
4.07461e-05
4.25482e-05
4.44019e-05
4.80232e-05
5.07631e-05
5.41227e-05
5.72515e-05
6.17692e-05
6.33414e-05
6.97989e-05
7.23178e-05
7.87472e-05
8.18547e-05
9.03766e-05
9.41193e-05
0.000102707
0.000107081
0.000121271
0.000124277
0.000136054
0.000143496
0.000165795
0.000167807
0.000171737
0.000183228
0.000195565
0.000196595
0.000211125
0.000215271
0.000233182
0.000233599
0.00023755
0.000239011
0.000254967
0.000256643
0.00025966
0.000269933
0.000274024
0.000281618
0.000288942
0.000303657
0.000309558
0.000334446
0.000341975
0.000373052
0.000383343
0.000436722
0.000447618
0.000508712
0.000526128
0.000603296
0.000621112
0.00072367
0.000748346
0.000860738
0.000891458
0.00103057
0.00107756
0.00124336
0.00129952
0.00145503
0.0015008
0.00158754
0.0016209
0.00167224
0.0016482
0.00162669
0.0014862
0.00146422
0.00139221
0.00141663
0.0014862
0.0015612
0.001872
0.00197458
0.00257127
0.00267419
0.00354978
0.00347602
0.00396709
0.00342563
0.00364638
0.00358751
0.00373067
0.00496462
0.00513897
0.00914801
0.00845373
0.0146991
0.0129019
0.0176469
0.0181918
0.0208645
0.0309022
0.0334958
0.056475
0.111892
0.109877
0.106137
0.103096
0.100043
0.0981155
0.0959802
0.0948841
0.0937835
0.0935716
0.0938961
0.0948462
0.096141
0.0975532
0.10031
0.102096
0.10454
0.108454
0.110549
0.113658
0.116507
0.118484
0.119985
0.120626
0.120525
0.119988
0.118617
0.115999
0.112434
0.107529
0.101512
0.094543
0.0863827
0.077589
0.0686475
0.059613
0.0509845
0.0429927
0.0356104
0.0290638
0.0234123
0.0186335
0.0147105
0.0115221
0.00899075
0.00700006
0.00544179
0.00424118
0.00331568
0.00260755
0.00206252
0.00166056
0.00135122
0.00112132
0.000951484
0.000813491
0.000714557
0.000655576
0.0006016
0.000562868
0.00056223
0.000569493
0.000589206
0.000615912
0.000676541
0.000727381
0.000768838
0.000831839
0.000973803
0.00114106
0.00123588
0.00128193
0.00166352
0.00198828
0.00194649
0.0017339
0.00167605
0.00168874
0.00171876
0.00176073
0.00194426
0.00198146
0.00192924
0.00192605
0.00233051
0.00272249
0.00276537
0.00261566
0.00221809
0.00184658
0.00172325
0.00201573
0.00242952
0.00242105
0.00218224
0.00218931
0.00282958
0.00324037
0.00317623
0.00273336
0.00247181
0.00239115
0.00241467
0.00291874
0.00381188
0.00435432
0.00437556
0.00363779
0.00351771
0.00866488
0.0167436
0.0197374
0.0201033
0.0205018
0.0218111
0.0226142
0.0225104
0.0218097
0.0215478
0.0216442
0.0216674
0.0203625
0.01689
0.0137298
0.0111532
0.0090842
0.00736707
0.00589022
0.00460102
0.00349149
0.00256788
0.00183024
0.00126602
0.000852322
0.000560428
0.000361279
0.000229375
0.000144227
9.04199e-05
5.69651e-05
3.63737e-05
2.37347e-05
1.59317e-05
1.10408e-05
7.90024e-06
5.81945e-06
4.39175e-06
3.37761e-06
2.63458e-06
2.07617e-06
1.64822e-06
1.3155e-06
1.05413e-06
8.47266e-07
6.82663e-07
5.51153e-07
4.45749e-07
3.61051e-07
2.92843e-07
2.3781e-07
1.93334e-07
1.57334e-07
1.28155e-07
1.04476e-07
8.52376e-08
6.9591e-08
5.68534e-08
4.64749e-08
3.80118e-08
3.11054e-08
2.54658e-08
2.08576e-08
1.709e-08
1.40082e-08
1.1486e-08
9.42096e-09
7.72949e-09
6.34348e-09
5.20736e-09
4.27578e-09
3.51166e-09
2.88474e-09
2.37024e-09
1.94788e-09
1.6011e-09
1.31629e-09
1.08234e-09
8.90132e-10
7.32177e-10
6.02352e-10
4.95629e-10
4.07882e-10
3.35724e-10
2.76376e-10
2.27558e-10
1.87393e-10
1.54343e-10
1.27144e-10
1.04757e-10
8.63269e-11
7.11534e-11
5.86585e-11
4.83679e-11
3.98913e-11
3.29076e-11
2.7153e-11
2.24106e-11
1.85015e-11
1.52788e-11
1.26216e-11
1.043e-11
8.62217e-12
7.13057e-12
5.89955e-12
4.88336e-12
4.04435e-12
3.35139e-12
2.77885e-12
2.30573e-12
1.91461e-12
1.59115e-12
1.32353e-12
1.10209e-12
9.1871e-13
7.66797e-13
6.40931e-13
5.36539e-13
4.49938e-13
3.78077e-13
3.18374e-13
2.68743e-13
2.27529e-13
1.932e-13
1.64587e-13
1.40808e-13
1.20974e-13
1.04389e-13
9.06012e-14
7.91148e-14
6.94982e-14
6.15389e-14
5.49284e-14
4.9391e-14
4.49058e-14
4.12864e-14
3.82121e-14
3.58847e-14
3.42513e-14
3.28052e-14
3.1897e-14
3.18022e-14
3.19417e-14
3.24833e-14
3.32626e-14
3.50205e-14
3.64764e-14
3.95934e-14
4.18935e-14
4.68351e-14
5.03343e-14
5.77827e-14
6.28333e-14
7.37487e-14
8.13226e-14
9.58226e-14
1.11529e-13
1.27359e-13
1.50359e-13
1.82517e-13
2.15668e-13
2.42875e-13
3.30892e-13
3.62441e-13
5.40752e-13
5.3776e-13
1.07441e-12
9.68426e-13
3.3719e-12
3.26142e-12
1.81396e-11
2.83656e-11