/*--------------------------------*- C++ -*----------------------------------*\
| =========                 |                                                 |
| \\      /  F ield         | OpenFOAM: The Open Source CFD Toolbox           |
|  \\    /   O peration     | Version:  2.4.0                                 |
|   \\  /    A nd           | Web:      www.OpenFOAM.org                      |
|    \\/     M anipulation  |                                                 |
\*---------------------------------------------------------------------------*/
FoamFile
{
    version     2.0;
    format      ascii;
    class       volSymmTensorField;
    location    "0.162";
    object      UPrime2Mean;
}
// * * * * * * * * * * * * * * * * * * * * * * * * * * * * * * * * * * * * * //

dimensions      [0 2 -2 0 0 0 0];

internalField   nonuniform List<symmTensor> 
17600
(
(0.0243018 -0.00263449 0 0.000397187 0 0)
(0.250223 -0.00100944 0 2.2924e-05 0 0)
(0.32499 -4.32602e-06 0 1.63546e-06 0 0)
(0.36078 -0.000260154 0 1.0154e-06 0 0)
(0.385625 -0.000197597 0 5.17715e-07 0 0)
(0.404475 -8.49588e-05 0 3.41164e-07 0 0)
(0.416846 -1.94568e-05 0 2.75727e-07 0 0)
(0.427953 -2.3377e-06 0 2.50984e-07 0 0)
(0.434058 1.65746e-05 0 3.06932e-07 0 0)
(0.441389 -4.56658e-06 0 3.51914e-07 0 0)
(0.444446 4.59619e-06 0 4.23758e-07 0 0)
(0.45117 -3.79827e-05 0 5.77478e-07 0 0)
(0.453788 -2.01043e-05 0 7.40026e-07 0 0)
(0.462024 -9.60093e-05 0 1.08748e-06 0 0)
(0.466294 -7.90358e-05 0 1.30333e-06 0 0)
(0.480789 -0.000281368 0 2.8656e-06 0 0)
(0.493709 -0.000410547 0 3.23416e-06 0 0)
(0.551276 0.000285349 0 1.5551e-05 0 0)
(0.65143 -0.0183865 0 0.000767619 0 0)
(1.19672 0.0928097 0 0.0118078 0 0)
(0.0117363 0.00526668 0 0.00414397 0 0)
(0.102445 -0.00980203 0 0.000990327 0 0)
(0.206886 -0.00553332 0 0.000150691 0 0)
(0.278386 -0.00392154 0 6.06382e-05 0 0)
(0.338406 -0.00320456 0 4.71513e-05 0 0)
(0.398543 -0.00267372 0 4.31682e-05 0 0)
(0.444647 -0.00209985 0 3.38165e-05 0 0)
(0.490461 -0.00165388 0 2.23291e-05 0 0)
(0.517122 -0.00121848 0 1.23267e-05 0 0)
(0.550925 -0.00107818 0 8.66385e-06 0 0)
(0.564178 -0.000897315 0 5.53286e-06 0 0)
(0.595211 -0.000994632 0 6.48755e-06 0 0)
(0.603414 -0.000985061 0 8.90998e-06 0 0)
(0.63889 -0.00110881 0 1.1449e-05 0 0)
(0.645841 -0.00157826 0 1.90691e-05 0 0)
(0.701221 -0.00146155 0 2.79073e-05 0 0)
(0.700698 -0.00459033 0 7.98109e-05 0 0)
(0.91635 -0.00668941 0 0.000178344 0 0)
(0.841571 -0.0207579 0 0.00121801 0 0)
(2.50419 -0.275576 0 0.0534778 0 0)
(0.041692 0.015819 0 0.00654001 0 0)
(0.0170522 -0.00627472 0 0.00283233 0 0)
(0.0723436 -0.00701132 0 0.000739888 0 0)
(0.126187 -0.00670789 0 0.000364515 0 0)
(0.182903 -0.00657537 0 0.00027582 0 0)
(0.254105 -0.00631777 0 0.000247235 0 0)
(0.315234 -0.0054923 0 0.000202852 0 0)
(0.38295 -0.0046448 0 0.000139423 0 0)
(0.423817 -0.00365157 0 8.21416e-05 0 0)
(0.479742 -0.00324396 0 5.22963e-05 0 0)
(0.500564 -0.00272782 0 2.84204e-05 0 0)
(0.554351 -0.00299363 0 3.23949e-05 0 0)
(0.564999 -0.0027939 0 3.39552e-05 0 0)
(0.626364 -0.00344674 0 5.2025e-05 0 0)
(0.632011 -0.0039219 0 7.18303e-05 0 0)
(0.717522 -0.00480157 0 0.000118764 0 0)
(0.718992 -0.0104994 0 0.000309949 0 0)
(0.942371 -0.0135609 0 0.000820673 0 0)
(0.987143 -0.0547401 0 0.00565361 0 0)
(2.09473 -0.353665 0 0.112905 0 0)
(0.0554246 0.0175726 0 0.00590793 0 0)
(0.00151205 0.00114763 0 0.00442718 0 0)
(0.00976195 -0.00259665 0 0.00162839 0 0)
(0.0237089 -0.0042643 0 0.000969028 0 0)
(0.0447231 -0.00572126 0 0.000781319 0 0)
(0.086951 -0.00705322 0 0.000705823 0 0)
(0.130934 -0.00707533 0 0.000606275 0 0)
(0.191173 -0.00670197 0 0.000433129 0 0)
(0.228954 -0.00557673 0 0.000274773 0 0)
(0.288103 -0.00514746 0 0.000169775 0 0)
(0.308319 -0.0045775 0 0.000100671 0 0)
(0.370097 -0.00456629 0 8.77314e-05 0 0)
(0.378807 -0.00506273 0 0.000108233 0 0)
(0.450189 -0.00437638 0 0.00012628 0 0)
(0.453827 -0.00773568 0 0.000250725 0 0)
(0.539221 -0.00369296 0 0.00030456 0 0)
(0.564916 -0.0197168 0 0.00116942 0 0)
(0.670889 -0.00886059 0 0.00155119 0 0)
(0.933962 -0.100034 0 0.0181025 0 0)
(1.14885 -0.160928 0 0.0759072 0 0)
(0.0518726 0.0141896 0 0.00413341 0 0)
(0.00536876 0.00448396 0 0.00462178 0 0)
(0.00770615 0.002517 0 0.0020301 0 0)
(0.00806843 0.00146829 0 0.00149058 0 0)
(0.00571666 0.000106143 0 0.00140321 0 0)
(0.00953666 -0.00252118 0 0.00134582 0 0)
(0.0206383 -0.00390779 0 0.00121546 0 0)
(0.0477547 -0.00520835 0 0.000921693 0 0)
(0.0668931 -0.00474248 0 0.000612218 0 0)
(0.105889 -0.005124 0 0.000402213 0 0)
(0.117762 -0.00443312 0 0.000225652 0 0)
(0.164391 -0.00536851 0 0.000242602 0 0)
(0.171798 -0.00477597 0 0.000194057 0 0)
(0.223002 -0.00677222 0 0.000342579 0 0)
(0.237631 -0.00526713 0 0.000362742 0 0)
(0.283929 -0.01133 0 0.000810571 0 0)
(0.328337 -0.00673585 0 0.00115962 0 0)
(0.385367 -0.0354535 0 0.00629674 0 0)
(0.527579 -0.0395906 0 0.0105462 0 0)
(0.75298 -0.228562 0 0.194198 0 0)
(0.0489811 0.0115889 0 0.00295426 0 0)
(0.00568573 0.00393639 0 0.00411508 0 0)
(0.0124966 0.00366939 0 0.00174175 0 0)
(0.020248 0.00435525 0 0.00143054 0 0)
(0.0260131 0.00540641 0 0.0016524 0 0)
(0.0192268 0.0039263 0 0.00180996 0 0)
(0.0166496 0.0027424 0 0.00178513 0 0)
(0.0124895 7.65163e-06 0 0.00143696 0 0)
(0.0142054 -0.000531651 0 0.00107704 0 0)
(0.0222972 -0.00203617 0 0.000704075 0 0)
(0.0237228 -0.00201157 0 0.000473243 0 0)
(0.0422648 -0.00293806 0 0.000414657 0 0)
(0.0423959 -0.00362839 0 0.000486424 0 0)
(0.0683568 -0.00385831 0 0.000529451 0 0)
(0.0721013 -0.00625542 0 0.00101935 0 0)
(0.100528 -0.0050801 0 0.00110088 0 0)
(0.113595 -0.0136704 0 0.00352454 0 0)
(0.160364 -0.012145 0 0.00418012 0 0)
(0.215424 -0.056939 0 0.030622 0 0)
(0.38335 -0.119404 0 0.107094 0 0)
(0.050334 0.0100525 0 0.00220613 0 0)
(0.00657251 0.00294519 0 0.00366987 0 0)
(0.0133979 0.00307918 0 0.00139878 0 0)
(0.023117 0.00392827 0 0.00105806 0 0)
(0.0382212 0.00631576 0 0.00140639 0 0)
(0.0384218 0.00663457 0 0.0017742 0 0)
(0.0466812 0.00724417 0 0.0019489 0 0)
(0.0370306 0.00493728 0 0.00174459 0 0)
(0.0414338 0.00438448 0 0.00132201 0 0)
(0.030877 0.00231328 0 0.00104234 0 0)
(0.0340333 0.00222263 0 0.00064223 0 0)
(0.0256939 0.000744397 0 0.000771906 0 0)
(0.0277996 0.000482933 0 0.00057272 0 0)
(0.0228124 -0.00091944 0 0.00103188 0 0)
(0.0256546 -0.00141534 0 0.00106828 0 0)
(0.0248999 -0.00324332 0 0.00219485 0 0)
(0.0273105 -0.00416429 0 0.0027355 0 0)
(0.0422336 -0.0109783 0 0.0108691 0 0)
(0.0639504 -0.0215814 0 0.0179534 0 0)
(0.166293 -0.0690569 0 0.142275 0 0)
(0.054512 0.00887227 0 0.00165023 0 0)
(0.00932217 0.0022768 0 0.00325613 0 0)
(0.0137316 0.00256815 0 0.00125584 0 0)
(0.0228818 0.00309489 0 0.000806177 0 0)
(0.0374736 0.00537385 0 0.00110061 0 0)
(0.0392355 0.00615625 0 0.00151301 0 0)
(0.0540618 0.00770116 0 0.00177176 0 0)
(0.0489721 0.00624743 0 0.00160748 0 0)
(0.0636968 0.00627743 0 0.00144801 0 0)
(0.0560784 0.00460723 0 0.00111282 0 0)
(0.0690748 0.00510011 0 0.000861421 0 0)
(0.0589839 0.00369747 0 0.00086367 0 0)
(0.0681504 0.00422277 0 0.00101302 0 0)
(0.0551997 0.00259878 0 0.00116965 0 0)
(0.0612231 0.00302903 0 0.00188065 0 0)
(0.0468406 0.00077908 0 0.00224823 0 0)
(0.0483373 0.00185592 0 0.00452917 0 0)
(0.0403653 -0.000615073 0 0.00824567 0 0)
(0.0478646 -0.00487116 0 0.0288242 0 0)
(0.0991729 -0.00597899 0 0.153901 0 0)
(0.0584761 0.00779449 0 0.00123559 0 0)
(0.0102788 0.00184212 0 0.00278519 0 0)
(0.0118433 0.00216557 0 0.001195 0 0)
(0.0208405 0.00254414 0 0.000656525 0 0)
(0.0323384 0.00440013 0 0.000875411 0 0)
(0.0341371 0.00520023 0 0.00126746 0 0)
(0.0468488 0.00668156 0 0.00155618 0 0)
(0.0441662 0.00565558 0 0.00158126 0 0)
(0.0598256 0.00572393 0 0.0012011 0 0)
(0.0569382 0.00489886 0 0.0011563 0 0)
(0.0750098 0.00485529 0 0.000822278 0 0)
(0.0704002 0.00512444 0 0.00109991 0 0)
(0.0885654 0.00432383 0 0.00098448 0 0)
(0.0810817 0.00584051 0 0.00156546 0 0)
(0.0963395 0.00375006 0 0.00190985 0 0)
(0.0844691 0.00633668 0 0.00301319 0 0)
(0.0940874 0.00449206 0 0.00437309 0 0)
(0.0814958 0.00858091 0 0.01133 0 0)
(0.0886925 0.0132363 0 0.030118 0 0)
(0.119011 0.0265074 0 0.120769 0 0)
(0.0569623 0.00666627 0 0.00094417 0 0)
(0.00687649 0.00161102 0 0.00235853 0 0)
(0.00787612 0.00177844 0 0.00117781 0 0)
(0.0162915 0.00211837 0 0.000573339 0 0)
(0.0258381 0.00347708 0 0.000738427 0 0)
(0.0292055 0.00444149 0 0.00110682 0 0)
(0.0373632 0.00554643 0 0.00137071 0 0)
(0.0387331 0.00499724 0 0.00131441 0 0)
(0.0487056 0.00466058 0 0.00121813 0 0)
(0.0521492 0.00411655 0 0.00112568 0 0)
(0.0632874 0.0041983 0 0.000905485 0 0)
(0.068446 0.00428705 0 0.00103855 0 0)
(0.0797172 0.00402542 0 0.00116714 0 0)
(0.0854955 0.0051674 0 0.00157361 0 0)
(0.0939747 0.00428713 0 0.00211665 0 0)
(0.099664 0.00650052 0 0.0030257 0 0)
(0.103226 0.0057315 0 0.00469541 0 0)
(0.107042 0.0151604 0 0.0125323 0 0)
(0.108024 0.0181993 0 0.0291479 0 0)
(0.144896 0.0524618 0 0.133958 0 0)
(0.0520468 0.00545695 0 0.000722063 0 0)
(0.00335263 0.00128543 0 0.00198626 0 0)
(0.00529794 0.00128232 0 0.00115227 0 0)
(0.0128367 0.00163132 0 0.000536669 0 0)
(0.0211667 0.0024691 0 0.000656836 0 0)
(0.0266103 0.0037089 0 0.00100533 0 0)
(0.0320588 0.00436944 0 0.00124048 0 0)
(0.0362521 0.00424719 0 0.00136137 0 0)
(0.0422825 0.00335284 0 0.00105357 0 0)
(0.049201 0.00360492 0 0.0010953 0 0)
(0.0561419 0.00276315 0 0.000860008 0 0)
(0.0654321 0.00382031 0 0.00111827 0 0)
(0.0718364 0.00263261 0 0.00114604 0 0)
(0.0814502 0.00489962 0 0.00157173 0 0)
(0.0875383 0.00327771 0 0.0019717 0 0)
(0.0973554 0.00599618 0 0.00281982 0 0)
(0.0987004 0.00652332 0 0.0046488 0 0)
(0.105453 0.0141417 0 0.0114461 0 0)
(0.108985 0.0229571 0 0.0317789 0 0)
(0.142248 0.0554146 0 0.116567 0 0)
(0.0504324 0.00443923 0 0.000559023 0 0)
(0.0033345 0.000755448 0 0.00163089 0 0)
(0.00558888 0.000779008 0 0.00110889 0 0)
(0.0125131 0.00118727 0 0.000471398 0 0)
(0.0202905 0.00169427 0 0.00058643 0 0)
(0.0258067 0.00289524 0 0.00090241 0 0)
(0.0300996 0.00349299 0 0.00110438 0 0)
(0.0343697 0.003455 0 0.00113576 0 0)
(0.039376 0.00269685 0 0.00103142 0 0)
(0.0460971 0.0026674 0 0.0010699 0 0)
(0.0525185 0.00217696 0 0.000849522 0 0)
(0.0604586 0.0028722 0 0.0010268 0 0)
(0.0667891 0.00222415 0 0.00111275 0 0)
(0.0754215 0.00413882 0 0.0014743 0 0)
(0.0821708 0.00272243 0 0.00171146 0 0)
(0.0887689 0.00630067 0 0.00286954 0 0)
(0.0917075 0.00612978 0 0.00423622 0 0)
(0.0978488 0.0163173 0 0.0122577 0 0)
(0.104455 0.0238601 0 0.0308459 0 0)
(0.135438 0.0552504 0 0.110811 0 0)
(0.050703 0.00363065 0 0.000429445 0 0)
(0.00377747 0.000340728 0 0.00133124 0 0)
(0.00502987 0.000367928 0 0.00106694 0 0)
(0.0105659 0.000894862 0 0.000451233 0 0)
(0.0183691 0.00131657 0 0.000508378 0 0)
(0.0232668 0.00232644 0 0.00078118 0 0)
(0.0268366 0.00286837 0 0.000966199 0 0)
(0.0304583 0.00299042 0 0.00105729 0 0)
(0.0354263 0.00218637 0 0.000881977 0 0)
(0.0412413 0.00226761 0 0.000897903 0 0)
(0.0472508 0.00171694 0 0.000741082 0 0)
(0.0542132 0.00264433 0 0.000928244 0 0)
(0.0609684 0.00209196 0 0.00095506 0 0)
(0.0688812 0.00362381 0 0.00119028 0 0)
(0.0744116 0.00282352 0 0.00143464 0 0)
(0.0803756 0.00535418 0 0.00240728 0 0)
(0.084261 0.00711668 0 0.00403966 0 0)
(0.0907388 0.0156592 0 0.0117069 0 0)
(0.098856 0.024614 0 0.0303472 0 0)
(0.132106 0.0577754 0 0.105008 0 0)
(0.0503563 0.00298397 0 0.000329306 0 0)
(0.002564 0.000217873 0 0.00105589 0 0)
(0.00349331 0.000135465 0 0.000941595 0 0)
(0.00859706 0.000728523 0 0.000413883 0 0)
(0.0160589 0.00118981 0 0.000429148 0 0)
(0.0208292 0.00204735 0 0.000645871 0 0)
(0.0238999 0.00252692 0 0.000808285 0 0)
(0.0275761 0.00265814 0 0.000833354 0 0)
(0.0316301 0.00211581 0 0.000739165 0 0)
(0.0375294 0.00204331 0 0.000771431 0 0)
(0.042818 0.00173494 0 0.000634734 0 0)
(0.050238 0.00249862 0 0.000769155 0 0)
(0.0558374 0.0020573 0 0.000778623 0 0)
(0.0636701 0.00346714 0 0.00105048 0 0)
(0.0678119 0.00263802 0 0.00118207 0 0)
(0.0751738 0.0055899 0 0.00235632 0 0)
(0.0786323 0.00698098 0 0.00386084 0 0)
(0.0869933 0.0151883 0 0.0116377 0 0)
(0.0959327 0.0253836 0 0.0298375 0 0)
(0.131255 0.0582525 0 0.0986949 0 0)
(0.0497785 0.00242242 0 0.000238764 0 0)
(0.00166268 0.000321633 0 0.000791797 0 0)
(0.00307199 0.000247436 0 0.000712794 0 0)
(0.0079069 0.000777033 0 0.000349847 0 0)
(0.0143883 0.0010635 0 0.000353287 0 0)
(0.0191956 0.00188539 0 0.000515486 0 0)
(0.0217578 0.00222336 0 0.000651599 0 0)
(0.0253166 0.00236778 0 0.00070934 0 0)
(0.0286679 0.00180957 0 0.000616634 0 0)
(0.0346472 0.00182173 0 0.000620194 0 0)
(0.0396274 0.00140879 0 0.000521295 0 0)
(0.0470713 0.00215876 0 0.00065051 0 0)
(0.0517877 0.00158299 0 0.000641624 0 0)
(0.0597096 0.00282571 0 0.000865306 0 0)
(0.0635924 0.00215252 0 0.00102031 0 0)
(0.0717206 0.00505557 0 0.00213624 0 0)
(0.075128 0.00621556 0 0.0039006 0 0)
(0.0852425 0.0148492 0 0.0115191 0 0)
(0.0950504 0.0253796 0 0.0292891 0 0)
(0.132739 0.0575576 0 0.0916122 0 0)
(0.0498512 0.00189854 0 0.000174587 0 0)
(0.00151049 0.000288105 0 0.000567343 0 0)
(0.0030846 0.000266093 0 0.000514455 0 0)
(0.00748638 0.000645051 0 0.000294498 0 0)
(0.0136639 0.000741502 0 0.00031967 0 0)
(0.0180026 0.00138652 0 0.000442032 0 0)
(0.020693 0.00172194 0 0.000569131 0 0)
(0.0236559 0.00171913 0 0.000597493 0 0)
(0.0272047 0.0012583 0 0.00058307 0 0)
(0.032298 0.00113264 0 0.000600843 0 0)
(0.0376557 0.000866412 0 0.000526449 0 0)
(0.0442714 0.00138277 0 0.000625012 0 0)
(0.0498488 0.0010058 0 0.000591838 0 0)
(0.0566485 0.0019284 0 0.000851374 0 0)
(0.061564 0.00174812 0 0.000919567 0 0)
(0.0685215 0.00397779 0 0.00222249 0 0)
(0.0738708 0.0059565 0 0.00379283 0 0)
(0.0833482 0.0138855 0 0.0117115 0 0)
(0.0957389 0.0259814 0 0.0281803 0 0)
(0.13438 0.0559422 0 0.0855208 0 0)
(0.0499734 0.00137969 0 0.000141789 0 0)
(0.00116086 5.24981e-05 0 0.000438977 0 0)
(0.00266588 -1.84604e-05 0 0.000426071 0 0)
(0.00669645 0.000268597 0 0.000310806 0 0)
(0.012971 0.000307286 0 0.000334669 0 0)
(0.0170107 0.000746659 0 0.000428761 0 0)
(0.0197704 0.00102277 0 0.000529079 0 0)
(0.0222864 0.000994186 0 0.000560143 0 0)
(0.0260923 0.000591242 0 0.000560367 0 0)
(0.0305811 0.000517334 0 0.000556737 0 0)
(0.036223 0.000376571 0 0.000477064 0 0)
(0.0422756 0.000850903 0 0.000552934 0 0)
(0.0483978 0.00047889 0 0.000524797 0 0)
(0.0542767 0.00136332 0 0.000766705 0 0)
(0.0597402 0.00118654 0 0.000894416 0 0)
(0.0660688 0.00351354 0 0.00204112 0 0)
(0.0726897 0.0054191 0 0.00386441 0 0)
(0.082025 0.0137098 0 0.0110564 0 0)
(0.096764 0.0253296 0 0.027397 0 0)
(0.13495 0.0570556 0 0.0776919 0 0)
(0.0499705 0.000925756 0 0.000112052 0 0)
(0.00124051 -5.84366e-05 0 0.000329527 0 0)
(0.0029001 -0.000191834 0 0.00033486 0 0)
(0.00673139 6.99111e-05 0 0.000287015 0 0)
(0.0126568 0.000136071 0 0.000300925 0 0)
(0.0166582 0.000426332 0 0.000373777 0 0)
(0.0191632 0.000565536 0 0.000457889 0 0)
(0.0218391 0.000580702 0 0.000479393 0 0)
(0.0252816 0.000284563 0 0.000482279 0 0)
(0.030037 0.000313749 0 0.000468873 0 0)
(0.035221 0.000199089 0 0.000385388 0 0)
(0.0413914 0.000621731 0 0.000459137 0 0)
(0.0467714 0.000272849 0 0.000426413 0 0)
(0.0529794 0.000967858 0 0.000681774 0 0)
(0.0578849 0.000903968 0 0.000872683 0 0)
(0.0650123 0.00317963 0 0.00183488 0 0)
(0.0713676 0.00521434 0 0.00400656 0 0)
(0.0822814 0.0134161 0 0.0102418 0 0)
(0.0981942 0.0247081 0 0.0274411 0 0)
(0.138537 0.0572644 0 0.0699199 0 0)
(0.0498868 0.0005665 0 8.51567e-05 0 0)
(0.00136726 -1.70724e-05 0 0.000216144 0 0)
(0.00317606 -9.12749e-05 0 0.000220273 0 0)
(0.00685048 0.000100149 0 0.000207619 0 0)
(0.012342 0.000150896 0 0.000228336 0 0)
(0.0163829 0.000286997 0 0.000271933 0 0)
(0.0187425 0.000430006 0 0.000338617 0 0)
(0.0215987 0.00037715 0 0.000337047 0 0)
(0.024735 0.000294386 0 0.000354669 0 0)
(0.0296179 0.000210531 0 0.000339066 0 0)
(0.0342784 0.000185428 0 0.000290404 0 0)
(0.0404353 0.000341982 0 0.000368732 0 0)
(0.0453413 0.000165671 0 0.000337753 0 0)
(0.0520762 0.00053914 0 0.000597498 0 0)
(0.0566289 0.000798871 0 0.000760469 0 0)
(0.0643914 0.00271766 0 0.00175599 0 0)
(0.0705832 0.00521454 0 0.00375699 0 0)
(0.0832785 0.012671 0 0.0101067 0 0)
(0.100001 0.0248456 0 0.0256784 0 0)
(0.141938 0.0543012 0 0.0637119 0 0)
(0.0499305 0.00016378 0 6.78387e-05 0 0)
(0.00122966 8.80196e-06 0 0.000155964 0 0)
(0.00294873 4.6855e-06 0 0.000148026 0 0)
(0.00653589 8.37559e-05 0 0.000160636 0 0)
(0.0120531 4.70986e-05 0 0.000190028 0 0)
(0.0159984 0.000141095 0 0.000216671 0 0)
(0.0183804 0.000169791 0 0.000254873 0 0)
(0.0209628 0.00023425 0 0.000255183 0 0)
(0.0242785 0.000101784 0 0.00026871 0 0)
(0.0288884 0.000138355 0 0.000271949 0 0)
(0.0337259 -0.000135049 0 0.000249713 0 0)
(0.0394763 0.000208778 0 0.000316613 0 0)
(0.0448695 -0.000270922 0 0.00029658 0 0)
(0.0512773 0.000485395 0 0.000525011 0 0)
(0.0563998 0.000266612 0 0.000684498 0 0)
(0.0637492 0.00271631 0 0.0017193 0 0)
(0.0710016 0.00452515 0 0.00339339 0 0)
(0.0840846 0.0125921 0 0.0102806 0 0)
(0.102738 0.0242134 0 0.0229195 0 0)
(0.145582 0.0508263 0 0.0619082 0 0)
(0.0499016 -0.000196006 0 6.51815e-05 0 0)
(0.000947353 -5.48243e-05 0 0.000153089 0 0)
(0.00255103 -3.73377e-05 0 0.000142456 0 0)
(0.00617784 -6.78158e-05 0 0.000159671 0 0)
(0.0118442 -7.57902e-05 0 0.000180944 0 0)
(0.0156609 -0.000186995 0 0.000199522 0 0)
(0.0180493 -0.000137426 0 0.000226468 0 0)
(0.0203253 -0.000209571 0 0.000239082 0 0)
(0.0238666 -0.000145988 0 0.000249215 0 0)
(0.0283477 -0.000290303 0 0.000264595 0 0)
(0.0336017 -0.000321351 0 0.00022445 0 0)
(0.0390989 -0.000281489 0 0.000303769 0 0)
(0.0448755 -0.000348163 0 0.000246294 0 0)
(0.0508033 -0.000134137 0 0.000502062 0 0)
(0.0566281 0.000281266 0 0.000677899 0 0)
(0.063758 0.0018147 0 0.00160931 0 0)
(0.0722449 0.00464648 0 0.00349311 0 0)
(0.0855579 0.0112682 0 0.00947679 0 0)
(0.106249 0.0245185 0 0.0224128 0 0)
(0.150072 0.0464263 0 0.056507 0 0)
(0.0498533 -0.00059948 0 6.70146e-05 0 0)
(0.000884331 -0.00011828 0 0.000182819 0 0)
(0.00249681 -0.000112606 0 0.000171457 0 0)
(0.00614067 -0.000228109 0 0.000167629 0 0)
(0.0118251 -0.000251269 0 0.000188444 0 0)
(0.0156644 -0.000485556 0 0.000203474 0 0)
(0.0180325 -0.000584379 0 0.000250133 0 0)
(0.0202753 -0.000639637 0 0.000271638 0 0)
(0.023874 -0.000584532 0 0.000283512 0 0)
(0.0284124 -0.00058363 0 0.000268779 0 0)
(0.0338682 -0.00069375 0 0.000240128 0 0)
(0.0393995 -0.000541982 0 0.000273313 0 0)
(0.0452117 -0.000783455 0 0.000256984 0 0)
(0.0511317 -0.000401498 0 0.000443136 0 0)
(0.0573222 -0.000369659 0 0.000725708 0 0)
(0.0647659 0.00157762 0 0.00148164 0 0)
(0.0741157 0.00365383 0 0.00344917 0 0)
(0.0882665 0.011142 0 0.00894835 0 0)
(0.110575 0.0223401 0 0.0209463 0 0)
(0.154919 0.0484794 0 0.0518708 0 0)
(0.0498079 -0.000999781 0 7.95853e-05 0 0)
(0.000936823 -0.000164958 0 0.000249638 0 0)
(0.00258983 -0.000151562 0 0.000223174 0 0)
(0.00639171 -0.000369061 0 0.000181935 0 0)
(0.0121192 -0.000433623 0 0.000199561 0 0)
(0.0160394 -0.000825632 0 0.000227277 0 0)
(0.0184258 -0.000997093 0 0.000286389 0 0)
(0.0208819 -0.00108802 0 0.000320287 0 0)
(0.0244393 -0.000947395 0 0.000317978 0 0)
(0.0290662 -0.000871122 0 0.000283594 0 0)
(0.0345141 -0.000986721 0 0.000253036 0 0)
(0.0402367 -0.000871742 0 0.000268216 0 0)
(0.0460115 -0.0011699 0 0.000278882 0 0)
(0.0522488 -0.000794927 0 0.000419875 0 0)
(0.0585769 -0.000904208 0 0.000781005 0 0)
(0.0665582 0.00118114 0 0.00141885 0 0)
(0.0764781 0.00283318 0 0.00344483 0 0)
(0.0917832 0.0106761 0 0.0085213 0 0)
(0.115936 0.0203386 0 0.0199632 0 0)
(0.161977 0.0493294 0 0.0478101 0 0)
(0.0497288 -0.0014267 0 9.63644e-05 0 0)
(0.000939179 -0.00021185 0 0.000344109 0 0)
(0.00264379 -0.000165128 0 0.000286058 0 0)
(0.00674475 -0.000483069 0 0.00018346 0 0)
(0.0126036 -0.000591293 0 0.000198199 0 0)
(0.0166295 -0.00116328 0 0.000251012 0 0)
(0.0191229 -0.00132962 0 0.000307969 0 0)
(0.0218325 -0.00151393 0 0.0003703 0 0)
(0.0253825 -0.00116857 0 0.000318952 0 0)
(0.0301256 -0.00120197 0 0.000302074 0 0)
(0.0355577 -0.00111905 0 0.00023661 0 0)
(0.0415441 -0.00135039 0 0.000304012 0 0)
(0.0474178 -0.00130718 0 0.000260726 0 0)
(0.053957 -0.00149583 0 0.000488877 0 0)
(0.0604604 -0.000932442 0 0.000736849 0 0)
(0.0689616 0.000171128 0 0.00148525 0 0)
(0.079432 0.00288681 0 0.00329458 0 0)
(0.0959827 0.00883015 0 0.00800535 0 0)
(0.121932 0.020208 0 0.019314 0 0)
(0.168592 0.0433155 0 0.0395537 0 0)
(0.0496025 -0.00190684 0 0.000130334 0 0)
(0.000834129 -0.000243328 0 0.000477184 0 0)
(0.00252088 -0.000177842 0 0.000398054 0 0)
(0.00701454 -0.0005549 0 0.000188145 0 0)
(0.0131268 -0.000763926 0 0.000210785 0 0)
(0.0173623 -0.00144006 0 0.000291033 0 0)
(0.019986 -0.0017366 0 0.000382898 0 0)
(0.0228884 -0.00183545 0 0.000434133 0 0)
(0.026528 -0.00151557 0 0.000374064 0 0)
(0.0314783 -0.00143126 0 0.000322995 0 0)
(0.037006 -0.00147013 0 0.000271383 0 0)
(0.0433005 -0.00161633 0 0.000314666 0 0)
(0.0493598 -0.00175541 0 0.000294144 0 0)
(0.0562109 -0.00184429 0 0.000519312 0 0)
(0.0629706 -0.00150992 0 0.000725051 0 0)
(0.0719915 -0.000300539 0 0.00160879 0 0)
(0.0831926 0.00200629 0 0.00293606 0 0)
(0.10106 0.00778521 0 0.00823714 0 0)
(0.128794 0.018212 0 0.0170087 0 0)
(0.176447 0.0387424 0 0.0381797 0 0)
(0.049501 -0.00241322 0 0.000174556 0 0)
(0.000771215 -0.000324489 0 0.000654317 0 0)
(0.00244574 -0.000256599 0 0.000527128 0 0)
(0.0073576 -0.000674775 0 0.000196715 0 0)
(0.013777 -0.000944605 0 0.000217493 0 0)
(0.0182622 -0.00183286 0 0.000343898 0 0)
(0.0211105 -0.00212033 0 0.000441452 0 0)
(0.0242071 -0.00231238 0 0.000529398 0 0)
(0.0280909 -0.00183385 0 0.000417227 0 0)
(0.0332651 -0.00185988 0 0.000377937 0 0)
(0.0390455 -0.00175414 0 0.00029083 0 0)
(0.0455866 -0.0021149 0 0.000345219 0 0)
(0.0519278 -0.00206494 0 0.000325446 0 0)
(0.0590471 -0.0024932 0 0.000532427 0 0)
(0.0662694 -0.00192154 0 0.000808635 0 0)
(0.0758028 -0.00116382 0 0.00154015 0 0)
(0.0880351 0.00124762 0 0.00302157 0 0)
(0.107062 0.00625886 0 0.00774216 0 0)
(0.136867 0.0159263 0 0.0159722 0 0)
(0.185745 0.0346964 0 0.0371775 0 0)
(0.0494231 -0.00303716 0 0.000248701 0 0)
(0.000810055 -0.000453271 0 0.000875416 0 0)
(0.00255901 -0.000406361 0 0.000709389 0 0)
(0.00797465 -0.000833834 0 0.000225718 0 0)
(0.0146995 -0.00122886 0 0.000261368 0 0)
(0.0194421 -0.00224577 0 0.000437032 0 0)
(0.0226056 -0.00260252 0 0.000563953 0 0)
(0.0260107 -0.00279452 0 0.000661779 0 0)
(0.0301982 -0.00224996 0 0.000507976 0 0)
(0.0356257 -0.00227349 0 0.000458517 0 0)
(0.0416983 -0.00212299 0 0.000330603 0 0)
(0.048534 -0.00261102 0 0.000419251 0 0)
(0.0552677 -0.00245529 0 0.000344476 0 0)
(0.0627454 -0.003167 0 0.000638008 0 0)
(0.0705772 -0.00239869 0 0.000799993 0 0)
(0.0806188 -0.00210352 0 0.00165082 0 0)
(0.0939652 0.000435296 0 0.00292965 0 0)
(0.11403 0.00448838 0 0.00742815 0 0)
(0.146238 0.0133684 0 0.0152903 0 0)
(0.196421 0.03026 0 0.0354526 0 0)
(0.0494805 -0.0037088 0 0.000343301 0 0)
(0.000876824 -0.000606992 0 0.00114485 0 0)
(0.00278287 -0.000595864 0 0.00085592 0 0)
(0.00881929 -0.00102792 0 0.000258106 0 0)
(0.015947 -0.00156683 0 0.00030746 0 0)
(0.0209696 -0.0027294 0 0.000541347 0 0)
(0.0245397 -0.0031209 0 0.000688013 0 0)
(0.0282987 -0.00333228 0 0.000799294 0 0)
(0.0328712 -0.00271741 0 0.000604123 0 0)
(0.0386512 -0.0027535 0 0.000539975 0 0)
(0.0450155 -0.00254728 0 0.000375414 0 0)
(0.0523088 -0.00318234 0 0.000490919 0 0)
(0.0593562 -0.00289181 0 0.00038259 0 0)
(0.0675257 -0.00393316 0 0.000737566 0 0)
(0.0758373 -0.0029535 0 0.000834488 0 0)
(0.0866948 -0.00318425 0 0.00175743 0 0)
(0.100767 -0.00043809 0 0.00288937 0 0)
(0.122401 0.00240211 0 0.00717283 0 0)
(0.156534 0.0106893 0 0.0147554 0 0)
(0.208781 0.0248145 0 0.0337264 0 0)
(0.050047 -0.00450805 0 0.000479262 0 0)
(0.000984035 -0.000782742 0 0.00148209 0 0)
(0.00318658 -0.000864031 0 0.000960961 0 0)
(0.00975593 -0.0012639 0 0.000322692 0 0)
(0.0177322 -0.00202099 0 0.000395082 0 0)
(0.0225886 -0.00326138 0 0.000690015 0 0)
(0.0272483 -0.0037534 0 0.000863173 0 0)
(0.0307421 -0.00389029 0 0.00097128 0 0)
(0.0364528 -0.00330652 0 0.000739949 0 0)
(0.0419509 -0.00326876 0 0.000653864 0 0)
(0.0494295 -0.00309479 0 0.000445922 0 0)
(0.0564637 -0.00377409 0 0.000583382 0 0)
(0.064614 -0.0034321 0 0.000435547 0 0)
(0.0727614 -0.00469435 0 0.000852179 0 0)
(0.0823654 -0.00361711 0 0.000875735 0 0)
(0.0935075 -0.00430746 0 0.00187784 0 0)
(0.108918 -0.00143544 0 0.00283402 0 0)
(0.1318 0.000177488 0 0.00703411 0 0)
(0.167865 0.00801061 0 0.0140356 0 0)
(0.222614 0.0185315 0 0.0324907 0 0)
(0.051247 -0.00547566 0 0.000665951 0 0)
(0.00129868 -0.00097937 0 0.00186705 0 0)
(0.0040829 -0.00124815 0 0.00103238 0 0)
(0.0107742 -0.00153582 0 0.000403784 0 0)
(0.0204681 -0.00263409 0 0.000511092 0 0)
(0.0240717 -0.00379061 0 0.000854082 0 0)
(0.0313198 -0.00454059 0 0.00105566 0 0)
(0.0329825 -0.00439141 0 0.00113545 0 0)
(0.0416879 -0.00407823 0 0.000894068 0 0)
(0.0450216 -0.00371856 0 0.00076194 0 0)
(0.0558711 -0.00381031 0 0.000525481 0 0)
(0.0604152 -0.00430029 0 0.000681538 0 0)
(0.0722923 -0.00416606 0 0.000498285 0 0)
(0.0777378 -0.00532504 0 0.000986639 0 0)
(0.0915031 -0.00447189 0 0.000902883 0 0)
(0.10009 -0.00530174 0 0.00206943 0 0)
(0.11957 -0.00267043 0 0.00269358 0 0)
(0.1404 -0.00171227 0 0.0071022 0 0)
(0.179437 0.00558827 0 0.0127958 0 0)
(0.23276 0.0140139 0 0.0318519 0 0)
(0.0521138 -0.00657589 0 0.000919015 0 0)
(0.00191371 -0.00125961 0 0.00231028 0 0)
(0.0055366 -0.00175657 0 0.0011149 0 0)
(0.0120326 -0.00188967 0 0.000515618 0 0)
(0.0241475 -0.00345533 0 0.000672085 0 0)
(0.025753 -0.00437796 0 0.00104801 0 0)
(0.0368368 -0.00553018 0 0.0012851 0 0)
(0.0352991 -0.00486609 0 0.00130896 0 0)
(0.0489438 -0.00510443 0 0.00108801 0 0)
(0.0480207 -0.00413938 0 0.000876237 0 0)
(0.0648845 -0.00477171 0 0.000634939 0 0)
(0.0640454 -0.00477716 0 0.000768767 0 0)
(0.0828464 -0.0052004 0 0.000594294 0 0)
(0.0814419 -0.00581367 0 0.00108921 0 0)
(0.102528 -0.00552378 0 0.000978875 0 0)
(0.102714 -0.00587776 0 0.00215233 0 0)
(0.128347 -0.00375488 0 0.00269032 0 0)
(0.138685 -0.00210676 0 0.00672057 0 0)
(0.178973 0.00536171 0 0.0118573 0 0)
(0.22067 0.0164268 0 0.0292024 0 0)
(0.0515459 -0.00767866 0 0.00124127 0 0)
(0.00259361 -0.00168315 0 0.00280629 0 0)
(0.0069644 -0.00224836 0 0.00120407 0 0)
(0.0136654 -0.00238983 0 0.00066176 0 0)
(0.0278296 -0.00439537 0 0.000879015 0 0)
(0.0284968 -0.00514929 0 0.00128689 0 0)
(0.042744 -0.00662135 0 0.00154298 0 0)
(0.0388932 -0.0054855 0 0.00150768 0 0)
(0.0565427 -0.00617757 0 0.00129538 0 0)
(0.0514358 -0.00465965 0 0.00100267 0 0)
(0.072603 -0.00568381 0 0.000745664 0 0)
(0.0652193 -0.0051311 0 0.000856548 0 0)
(0.0875099 -0.00594851 0 0.000681605 0 0)
(0.0766563 -0.00578805 0 0.0011771 0 0)
(0.0987893 -0.00565366 0 0.00100513 0 0)
(0.086916 -0.00509673 0 0.00215277 0 0)
(0.109739 -0.00261273 0 0.00252688 0 0)
(0.106458 0.000584904 0 0.00607991 0 0)
(0.140003 0.0106065 0 0.0104401 0 0)
(0.176473 0.0269382 0 0.024951 0 0)
(0.0500549 -0.00879065 0 0.00165719 0 0)
(0.00315434 -0.00222301 0 0.00329801 0 0)
(0.00816672 -0.00263929 0 0.00128961 0 0)
(0.0159182 -0.00305192 0 0.00084374 0 0)
(0.031413 -0.00538274 0 0.00113221 0 0)
(0.0326445 -0.00608995 0 0.00155678 0 0)
(0.0474942 -0.00758992 0 0.00181093 0 0)
(0.04185 -0.00602527 0 0.00169852 0 0)
(0.0574654 -0.0066453 0 0.00146545 0 0)
(0.0476877 -0.0045792 0 0.00107763 0 0)
(0.0630909 -0.00551344 0 0.000817811 0 0)
(0.04942 -0.00414156 0 0.000855183 0 0)
(0.0622921 -0.00491152 0 0.000715908 0 0)
(0.0460733 -0.00341465 0 0.0011091 0 0)
(0.0564241 -0.00343211 0 0.000956758 0 0)
(0.0432048 -0.00107933 0 0.00188688 0 0)
(0.054389 0.00111127 0 0.00221862 0 0)
(0.0566282 0.00719223 0 0.00494454 0 0)
(0.0866246 0.0178685 0 0.00861766 0 0)
(0.146636 0.0395603 0 0.0183505 0 0)
(0.048588 -0.0100241 0 0.0022124 0 0)
(0.0036966 -0.00292164 0 0.00370703 0 0)
(0.00954119 -0.00308773 0 0.001431 0 0)
(0.0188536 -0.00391353 0 0.00109914 0 0)
(0.0336221 -0.00628572 0 0.00144006 0 0)
(0.0332163 -0.0065388 0 0.00182039 0 0)
(0.0407614 -0.00711399 0 0.00198527 0 0)
(0.0303043 -0.00475195 0 0.00177159 0 0)
(0.0340446 -0.00454019 0 0.00144811 0 0)
(0.0227213 -0.00212116 0 0.00100451 0 0)
(0.0247052 -0.00252167 0 0.000728858 0 0)
(0.0170224 -0.000649189 0 0.000719487 0 0)
(0.0171666 -0.00106811 0 0.000591723 0 0)
(0.0160008 0.00124195 0 0.000893921 0 0)
(0.0166709 0.000865339 0 0.000739838 0 0)
(0.0258104 0.00441493 0 0.00149182 0 0)
(0.0328218 0.0054237 0 0.00168204 0 0)
(0.0634876 0.0136094 0 0.00375744 0 0)
(0.103194 0.0226399 0 0.00650816 0 0)
(0.200864 0.0447438 0 0.0120908 0 0)
(0.0484624 -0.0115838 0 0.00295557 0 0)
(0.0047259 -0.0039234 0 0.00413299 0 0)
(0.0106627 -0.00363469 0 0.00175799 0 0)
(0.0182014 -0.0043298 0 0.00145321 0 0)
(0.0234448 -0.0053687 0 0.00167016 0 0)
(0.0160034 -0.00382261 0 0.00183793 0 0)
(0.0125091 -0.00260756 0 0.00181261 0 0)
(0.00752649 0.000156913 0 0.00149186 0 0)
(0.00813311 0.00061293 0 0.00112335 0 0)
(0.0155452 0.00231006 0 0.000726382 0 0)
(0.0159574 0.00195858 0 0.000500715 0 0)
(0.0355777 0.00349214 0 0.000476949 0 0)
(0.033541 0.00309945 0 0.000395364 0 0)
(0.0660203 0.00529607 0 0.000595654 0 0)
(0.0649764 0.00439063 0 0.000492676 0 0)
(0.109218 0.00817716 0 0.00102375 0 0)
(0.119269 0.00744196 0 0.00113507 0 0)
(0.181656 0.0168808 0 0.0026219 0 0)
(0.237398 0.0211638 0 0.00422851 0 0)
(0.364555 0.0458686 0 0.00816094 0 0)
(0.0517597 -0.0141917 0 0.00413291 0 0)
(0.00512414 -0.00447824 0 0.00463103 0 0)
(0.006941 -0.00248874 0 0.00203651 0 0)
(0.00712108 -0.00144042 0 0.00150404 0 0)
(0.00442565 -7.06582e-05 0 0.00141215 0 0)
(0.00782287 0.00261079 0 0.0013617 0 0)
(0.0182723 0.00402358 0 0.00123239 0 0)
(0.0449422 0.00536494 0 0.000942383 0 0)
(0.0632505 0.00494689 0 0.000661028 0 0)
(0.102399 0.00530797 0 0.000408457 0 0)
(0.113322 0.00472387 0 0.000269101 0 0)
(0.163166 0.00559636 0 0.000258169 0 0)
(0.166353 0.00514075 0 0.00021793 0 0)
(0.229478 0.00674987 0 0.000335082 0 0)
(0.230261 0.00563507 0 0.000282634 0 0)
(0.302914 0.00869164 0 0.000602254 0 0)
(0.315819 0.00694728 0 0.00067906 0 0)
(0.395116 0.0156076 0 0.00158499 0 0)