/*--------------------------------*- C++ -*----------------------------------*\
| =========                 |                                                 |
| \\      /  F ield         | OpenFOAM: The Open Source CFD Toolbox           |
|  \\    /   O peration     | Version:  2.4.0                                 |
|   \\  /    A nd           | Web:      www.OpenFOAM.org                      |
|    \\/     M anipulation  |                                                 |
\*---------------------------------------------------------------------------*/
FoamFile
{
    version     2.0;
    format      ascii;
    class       volScalarField;
    location    "0.092";
    object      p;
}
// * * * * * * * * * * * * * * * * * * * * * * * * * * * * * * * * * * * * * //

dimensions      [0 2 -2 0 0 0 0];

internalField   nonuniform List<scalar> 
17600
(
86.1249
70.4847
66.0237
64.9264
63.9529
62.9785
62.1617
61.3376
60.5963
59.8693
59.1742
58.4126
57.742
57.0971
56.4369
55.7325
55.2469
54.6924
53.9395
53.3982
84.2169
70.5347
66.0646
64.9357
63.9566
62.9789
62.1619
61.3385
60.5959
59.8696
59.1742
58.4128
57.7414
57.0973
56.4379
55.7316
55.2461
54.695
53.9487
53.2545
82.8039
70.7906
66.2083
64.9737
63.9711
62.9829
62.1643
61.3406
60.5967
59.8706
59.1747
58.4128
57.7408
57.0977
56.4391
55.7297
55.2462
54.6975
53.9496
53.0666
81.8286
71.131
66.4288
65.0385
64.0006
62.9978
62.1736
61.347
60.6009
59.8739
59.1763
58.4134
57.7404
57.0986
56.44
55.7277
55.2472
54.6997
53.9391
52.9228
81.0071
71.4643
66.6943
65.1198
64.0425
63.0268
62.1933
61.3611
60.6118
59.8813
59.1804
58.4166
57.7407
57.1006
56.4409
55.7265
55.2484
54.7028
53.9283
52.8639
80.2332
71.7556
66.9735
65.201
64.0836
63.0641
62.222
61.3837
60.6306
59.8943
59.1882
58.4238
57.7422
57.1044
56.4424
55.7272
55.249
54.7062
53.9422
52.8921
79.5038
72.0023
67.2519
65.2768
64.1145
63.0992
62.2536
61.4114
60.655
59.9114
59.1992
58.435
57.7451
57.1102
56.445
55.7309
55.2492
54.7071
53.9818
52.9907
78.8292
72.2073
67.5234
65.3492
64.1352
63.1263
62.2839
61.4409
60.6817
59.9298
59.2116
58.449
57.7483
57.1171
56.4479
55.7384
55.2474
54.7083
53.9973
53.2445
78.215
72.3745
67.78
65.4244
64.1483
63.1445
62.3105
61.4704
60.7086
59.9485
59.2233
58.464
57.7508
57.1247
56.4498
55.7496
55.2407
54.7127
53.9765
53.5188
77.6637
72.5051
68.0175
65.5044
64.1562
63.1536
62.3332
61.499
60.7345
59.9669
59.2338
58.4787
57.7525
57.1317
56.4525
55.76
55.2397
54.7138
53.9961
53.8748
77.1745
72.6008
68.2347
65.5894
64.1598
63.155
62.3522
61.526
60.7591
59.985
59.2422
58.4927
57.7536
57.1377
56.4568
55.7684
55.2433
54.7175
54.0547
54.1686
76.7447
72.665
68.4317
65.6794
64.1602
63.1497
62.3674
61.5515
60.782
60.0028
59.2488
58.5057
57.7544
57.1425
56.4629
55.7752
55.2503
54.7303
54.1202
54.4157
76.3718
72.7021
68.6082
65.7719
64.1586
63.139
62.3794
61.5751
60.8029
60.02
59.2538
58.5176
57.7559
57.1456
56.4713
55.7805
55.2623
54.7484
54.1935
54.6249
76.0522
72.7193
68.7634
65.8626
64.1564
63.1255
62.3886
61.5967
60.8213
60.036
59.258
58.5281
57.7578
57.1479
56.4822
55.7857
55.2771
54.7709
54.2682
54.7917
75.783
72.7251
68.8974
65.9434
64.1557
63.1105
62.3957
61.6163
60.8373
60.0512
59.2611
58.5372
57.7606
57.149
56.4947
55.7924
55.293
54.7999
54.3435
54.9315
75.5618
72.7256
69.0086
66.0126
64.1565
63.0964
62.3999
61.6344
60.85
60.0645
59.264
58.5444
57.7652
57.149
56.508
55.8009
55.3102
54.83
54.4162
55.0612
75.3875
72.7229
69.0966
66.0689
64.1591
63.083
62.4026
61.6498
60.8602
60.0755
59.267
58.5508
57.7707
57.1492
56.5216
55.8111
55.3279
54.8629
54.4858
55.1757
75.2582
72.7186
69.1615
66.1119
64.1619
63.0729
62.4031
61.6634
60.8659
60.0849
59.2686
58.5556
57.774
57.1484
56.5374
55.8235
55.3453
54.8991
54.5524
55.2671
75.1732
72.714
69.2048
66.1406
64.1645
63.0635
62.4023
61.6741
60.87
60.0912
59.2731
58.5577
57.7856
57.1466
56.5537
55.839
55.3634
54.938
54.6121
55.3604
75.1317
72.7101
69.2271
66.1548
64.166
63.0603
62.4004
61.6821
60.8706
60.0956
59.2754
58.56
57.7901
57.1461
56.565
55.8587
55.3764
54.9809
54.6695
55.4201
75.1332
72.7073
69.2283
66.1541
64.166
63.0618
62.3962
61.6889
60.8677
60.0982
59.2779
58.5618
57.8011
57.1456
56.5818
55.8746
55.3988
55.0114
54.7651
55.4083
75.1779
72.7055
69.2092
66.138
64.1651
63.0675
62.3918
61.6894
60.865
60.0927
59.282
58.5566
57.813
57.1467
56.597
55.8917
55.422
55.0358
54.863
55.5145
75.2655
72.7047
69.1684
66.108
64.1609
63.0783
62.3853
61.6915
60.8583
60.0948
59.2838
58.56
57.8176
57.1503
56.6011
55.9191
55.431
55.0822
54.8517
55.5385
75.3977
72.7034
69.1058
66.0634
64.1593
63.091
62.3789
61.6853
60.8503
60.0839
59.2888
58.5563
57.8267
57.1556
56.6119
55.9437
55.4465
55.1151
54.8684
55.6455
75.5749
72.7011
69.0194
66.0066
64.158
63.1064
62.37
61.6772
60.8391
60.0748
59.2908
58.5553
57.8353
57.1613
56.6249
55.9656
55.4679
55.1369
54.9154
55.6947
75.7987
72.6961
68.9094
65.9371
64.1589
63.1225
62.3602
61.665
60.8268
60.0622
59.2919
58.5557
57.8393
57.1706
56.6324
55.9902
55.4882
55.1643
54.9539
55.7222
76.0705
72.6857
68.776
65.8555
64.1621
63.1385
62.3494
61.649
60.8137
60.0453
59.295
58.5541
57.844
57.1804
56.6403
56.0159
55.51
55.1952
54.986
55.7354
76.3921
72.6658
68.6199
65.7649
64.1665
63.1541
62.336
61.6306
60.7983
60.0282
59.2954
58.5525
57.8478
57.1896
56.6509
56.0401
55.5347
55.2292
55.0137
55.7376
76.767
72.628
68.4427
65.6712
64.1712
63.1658
62.3208
61.6079
60.7833
60.0081
59.295
58.5513
57.8487
57.2008
56.6618
56.0629
55.5642
55.2647
55.0425
55.7244
77.1977
72.5652
68.2452
65.5805
64.1731
63.1736
62.3021
61.5828
60.7676
59.9866
59.2936
58.5482
57.8498
57.2116
56.6726
56.0866
55.5959
55.303
55.0768
55.6838
77.6871
72.4713
68.028
65.4944
64.1711
63.1754
62.2803
61.5553
60.7507
59.9645
59.2899
58.545
57.8492
57.2211
56.6852
56.1087
55.6294
55.3457
55.1239
55.6005
78.2382
72.3419
67.7906
65.4135
64.1639
63.17
62.2551
61.5258
60.7331
59.9412
59.2844
58.5415
57.8468
57.2296
56.6996
56.1269
55.6683
55.3825
55.2064
55.4627
78.8521
72.1752
67.5342
65.3375
64.1506
63.1562
62.226
61.4951
60.7147
59.9173
59.277
58.5379
57.8437
57.2367
56.7134
56.1432
55.705
55.419
55.2879
55.3721
79.5266
71.9704
67.2625
65.264
64.1292
63.1333
62.194
61.4641
60.6957
59.8948
59.268
58.5344
57.8404
57.2427
56.7243
56.159
55.7331
55.4602
55.3231
55.3195
80.2557
71.7236
66.9845
65.1869
64.0974
63.1019
62.1615
61.4345
60.6775
59.8754
59.2591
58.5311
57.8385
57.2475
56.7334
56.1718
55.7571
55.4898
55.3538
55.3169
81.0298
71.4319
66.7062
65.1043
64.0556
63.0671
62.1331
61.4101
60.6628
59.862
59.2525
58.5293
57.8386
57.2514
56.7403
56.1819
55.7752
55.5098
55.3753
55.2932
81.8515
71.098
66.4418
65.0219
64.0132
63.0392
62.1146
61.3946
60.6536
59.8554
59.2489
58.5287
57.84
57.2546
56.7445
56.189
55.7869
55.5234
55.382
55.2934
82.827
70.7575
66.2217
64.9566
63.9838
63.0243
62.1069
61.3874
60.6492
59.8539
59.2473
58.5287
57.8418
57.2568
56.7464
56.193
55.7938
55.5302
55.3849
55.3046
84.2401
70.5019
66.0778
64.9184
63.9699
63.0195
62.1055
61.3854
60.6471
59.8545
59.2468
58.5283
57.843
57.2579
56.7464
56.1943
55.7967
55.532
55.3854
55.3252
86.1482
70.4521
66.0369
64.9089
63.9666
63.0186
62.1055
61.3854
60.6459
59.8551
59.247
58.5275
57.8435
57.2582
56.7458
56.1939
55.7975
55.5314
55.3844
55.3643
51.8956
49.4862
48.5263
49.826
52.0146
55.1936
57.5891
57.4152
56.3494
54.7196
52.3086
49.5975
46.9313
43.3613
39.8355
36.2617
30.5253
24.0851
19.298
15.512
11.7205
9.03865
8.11267
8.01457
8.75396
9.95313
11.9302
15.328
18.7992
22.5662
26.5751
29.9663
32.9118
35.4624
37.4066
38.5942
39.588
39.7891
38.5352
37.4086
35.6921
32.1665
29.4712
27.2808
24.6216
22.9766
22.5298
22.9056
24.0781
26.6964
30.3364
34.2755
39.2553
44.2503
48.4331
52.1318
54.7736
56.5468
57.8464
58.6672
59.1588
59.2176
59.2923
59.3893
59.3665
59.4141
59.3227
59.4572
59.1423
58.232
58.0147
58.2694
58.4522
58.6717
58.9757
59.0197
58.308
57.1543
55.7253
54.126
52.3791
50.3657
48.1395
46.0606
44.6545
43.875
43.7762
44.8484
48.1645
53.8569
60.2156
65.3563
68.5561
70.318
71.3559
71.9806
72.1878
72.1256
71.753
70.9688
69.7688
68.3378
66.3115
63.1393
59.6325
55.8761
50.7722
44.5351
38.0101
30.9352
23.0441
15.1917
8.71157
4.45911
1.72918
0.0666433
-0.0053299
2.16157
6.40443
11.7449
17.4352
23.7196
30.6446
37.3683
43.2209
48.2151
52.571
56.3532
59.5832
62.3519
64.7973
66.8649
68.588
70.1408
71.4882
72.5963
73.5765
74.5237
75.4067
76.1719
76.755
77.1515
77.3865
77.4989
77.5555
77.5683
77.5622
77.544
77.5177
77.4787
77.4376
77.3943
77.3536
77.3116
77.2682
77.2267
77.1795
77.1327
77.084
77.025
76.9742
76.9028
76.8449
76.7627
76.6923
76.5991
76.5118
76.4132
76.2997
76.1924
76.0527
75.9291
75.7737
75.6208
75.4411
75.2602
75.0667
74.8459
74.633
74.3729
74.1247
73.8466
73.5525
73.2469
72.9173
72.5824
72.2062
71.8112
71.4006
70.9176
70.396
69.8018
69.0716
68.1791
66.9728
65.3546
62.8939
58.7963
53.6841
29.3263
51.9742
49.8679
48.819
49.9327
52.0916
55.084
57.5537
57.5463
56.429
54.7776
52.4107
49.6569
46.844
43.3598
40.0206
36.7103
31.5943
25.5542
20.717
17.1859
13.9474
11.3583
10.3307
9.98433
10.5463
11.9416
13.8944
17.2583
20.9166
24.5372
28.291
31.5326
34.3234
36.716
38.6019
39.5284
40.2624
40.3632
38.6371
36.8367
34.8439
30.7471
27.2041
24.5648
21.5231
19.4992
18.7964
18.9141
20.1568
22.9527
26.7106
30.8949
36.1729
41.7117
46.6389
50.7827
53.7719
55.7992
57.1731
58.0812
58.6015
58.5917
58.5913
58.6581
58.5847
58.4816
58.2855
58.4395
58.0954
57.1077
56.9113
57.2581
57.5198
57.8057
58.2122
58.4274
57.939
57.0525
55.9577
54.7123
53.2877
51.6071
49.663
47.7916
46.5191
45.766
45.6222
46.5588
49.6379
55.0976
61.1723
66.1828
69.2142
70.8246
71.7639
72.2901
72.4245
72.2881
71.8378
70.9521
69.705
68.2231
66.1102
62.9068
59.276
55.4416
50.2925
43.8981
37.189
29.9271
21.8319
13.7969
7.19031
2.79431
-0.0590465
-1.88202
-1.98023
0.327963
4.76098
10.3322
16.3574
22.997
30.2555
37.3795
43.6582
49.0082
53.6192
57.5506
60.8895
63.782
66.2858
68.334
70.0227
71.4665
72.6349
73.5339
74.3276
75.1075
75.8631
76.5228
77.0322
77.3728
77.5631
77.6477
77.6779
77.6741
77.6494
77.6161
77.5764
77.5272
77.4754
77.4245
77.3748
77.3271
77.2752
77.2296
77.1733
77.1242
77.0662
77.0057
76.9448
76.8722
76.8048
76.7213
76.6405
76.5462
76.4494
76.3483
76.2264
76.1138
75.9672
75.8354
75.6744
75.5089
75.3267
75.1283
74.9288
74.6912
74.4703
74.1919
73.9255
73.6321
73.3145
72.9936
72.6273
72.2707
71.8599
71.4281
70.959
70.4046
69.8095
69.1061
68.2446
67.2116
65.731
63.7167
61.0505
55.3334
49.8042
22.1171
52.0706
50.4227
49.2708
50.1168
52.1477
54.8421
57.2745
57.5709
56.4189
54.6722
52.2709
49.6279
46.7359
43.2101
40.0726
37.0317
32.5163
27.0833
22.2693
18.8232
16.0768
13.6739
12.5208
11.9596
12.3848
14.0479
16.2033
19.44
23.0833
26.5536
30.0545
33.1127
35.8121
38.0618
39.8188
40.5758
40.9968
40.9698
38.9161
36.3522
33.9414
29.4134
25.038
21.8757
18.4627
16.002
15.0385
14.9892
16.3305
19.3748
23.2897
27.6448
33.1215
39.1969
44.8629
49.4655
52.8319
55.1023
56.5771
57.5775
58.0683
57.9904
57.9373
57.9369
57.7673
57.4929
57.1491
57.2728
56.9204
55.9196
55.7787
56.1911
56.5132
56.8929
57.4308
57.8168
57.5436
56.9419
56.2144
55.3361
54.2385
52.8914
51.2438
49.5951
48.4576
47.738
47.5551
48.3682
51.2352
56.4425
62.2186
67.0637
69.9382
71.3874
72.2192
72.6508
72.7014
72.5021
71.9634
70.9681
69.6849
68.1775
65.9714
62.7734
59.0208
55.1152
49.9424
43.4318
36.5514
29.1195
20.8856
12.7131
5.99859
1.45424
-1.54929
-3.49159
-3.59545
-1.1803
3.4105
9.17522
15.4879
22.4492
30.0022
37.4664
44.1258
49.809
54.6229
58.6771
62.0983
65.0412
67.559
69.5775
71.226
72.5767
73.5736
74.3097
74.959
75.6123
76.268
76.843
77.284
77.5756
77.7294
77.783
77.794
77.7739
77.7316
77.6848
77.6318
77.5743
77.511
77.4537
77.3955
77.3418
77.283
77.2313
77.1694
77.1136
77.0521
76.9834
76.92
76.8377
76.7699
76.6765
76.5938
76.4901
76.391
76.2819
76.1576
76.0325
75.8841
75.7418
75.5775
75.3996
75.208
74.9997
74.7888
74.5464
74.2961
74.0173
73.7211
73.4256
73.0723
72.7344
72.347
71.9512
71.5181
71.0221
70.5095
69.9031
69.2198
68.4528
67.4202
66.1861
64.5758
61.9629
59.4307
51.9424
46.1177
20.2336
52.2465
51.0134
49.8505
50.4165
52.1473
54.514
56.8262
57.3427
56.3126
54.5048
52.0234
49.5558
46.6222
43.055
40.1435
37.3224
33.2364
28.3717
23.668
20.361
17.9598
15.7329
14.5751
14.07
14.4933
16.3328
18.7185
21.7976
25.2443
28.5096
31.8196
34.7184
37.3215
39.4857
41.0764
41.7711
41.8823
41.6212
39.3071
36.0236
33.054
28.1549
23.0076
19.2206
15.4289
12.5499
11.2995
11.1327
12.596
15.9302
20.0663
24.5899
30.2274
36.8002
43.1373
48.214
51.9828
54.4863
56.075
57.1281
57.5617
57.4411
57.3337
57.2111
56.9248
56.4675
55.9259
55.966
55.6258
54.6736
54.623
55.0973
55.473
55.9624
56.6516
57.1947
57.131
56.8311
56.4998
55.9946
55.2133
54.2089
52.8622
51.4381
50.4464
49.7614
49.5415
50.2567
52.915
57.8745
63.3495
68.0007
70.7182
72.0046
72.7146
73.0513
73.0043
72.7534
72.1215
71.0288
69.714
68.1668
65.8979
62.715
58.872
54.9027
49.7256
43.1448
36.1216
28.5532
20.2005
11.9508
5.12779
0.441296
-2.69054
-4.71985
-4.80225
-2.3083
2.38145
8.28607
14.8438
22.0909
29.9144
37.6556
44.6242
50.6043
55.5885
59.7324
63.2118
66.165
68.652
70.639
72.2355
73.4818
74.3395
74.9422
75.4866
76.0538
76.6252
77.1349
77.5145
77.7631
77.8807
77.9108
77.9015
77.8662
77.8101
77.7489
77.6857
77.6167
77.5472
77.4812
77.4156
77.3559
77.2914
77.2335
77.1655
77.1041
77.0381
76.9627
76.8935
76.8057
76.7337
76.6348
76.5443
76.4382
76.3303
76.2203
76.0841
75.9579
75.7985
75.6518
75.476
75.2949
75.0898
74.8745
74.6464
74.3961
74.1312
73.8393
73.5258
73.2037
72.8431
72.4665
72.0622
71.629
71.1623
70.6439
70.0405
69.3899
68.6229
67.7423
66.6474
65.1134
63.5636
60.1152
58.0331
48.8016
42.6241
20.8387
52.4789
51.5629
50.486
50.8163
52.1258
54.1535
56.2714
56.8723
56.0831
54.3199
51.7523
49.3983
46.5712
43.1232
40.3396
37.5939
33.7841
29.4048
25.1229
21.9154
19.6863
17.6866
16.7122
16.5029
16.9714
18.7803
21.274
24.2187
27.376
30.4037
33.5566
36.3601
38.8447
40.9619
42.4392
43.144
42.9614
42.3167
39.7949
35.9399
32.2809
26.9887
21.1593
16.6491
12.4461
9.22497
7.72758
7.4412
8.99158
12.6151
17.0445
21.7855
27.5734
34.5909
41.5077
47.0555
51.2101
53.9524
55.6599
56.7142
57.094
56.957
56.7745
56.4835
56.0574
55.403
54.6234
54.5312
54.2039
53.3551
53.4313
53.9807
54.4254
55.0464
55.8969
56.5709
56.7125
56.7419
56.8145
56.6737
56.218
55.5499
54.5023
53.3034
52.449
51.8129
51.5571
52.1912
54.6725
59.3989
64.5526
68.9899
71.5513
72.6713
73.274
73.49
73.3394
73.0335
72.2987
71.1332
69.7965
68.1714
65.8704
62.7076
58.8405
54.8052
49.653
43.025
35.9198
28.2594
19.828
11.5055
4.59852
-0.228274
-3.45781
-5.51451
-5.55358
-3.01701
1.71097
7.69655
14.4488
21.935
29.9866
37.9512
45.1673
51.3868
56.5158
60.7251
64.2218
67.1579
69.5922
71.5253
73.071
74.2093
74.9479
75.4601
75.9292
76.4346
76.9451
77.401
77.7185
77.9389
78.0187
78.0288
77.9996
77.954
77.882
77.8107
77.7357
77.6601
77.5797
77.5099
77.4346
77.3714
77.2978
77.2372
77.1603
77.0959
77.0226
76.944
76.8661
76.7754
76.697
76.5954
76.4957
76.3864
76.2712
76.1603
76.0151
75.883
75.714
75.5624
75.3852
75.1881
74.9737
74.7439
74.5166
74.2486
73.9663
73.6547
73.332
72.9927
72.6025
72.2098
71.7718
71.3229
70.8058
70.2378
69.6038
68.8643
68.0764
66.988
65.9087
63.8998
62.71
58.1174
56.6984
46.1686
39.1898
21.4594
52.6949
52.0677
51.1385
51.2857
52.1291
53.7847
55.655
56.2565
55.715
54.0991
51.5653
49.2339
46.5799
43.3525
40.6639
37.9894
34.4745
30.6058
26.7548
23.6626
21.4913
19.7746
19.1072
19.1874
19.6802
21.3341
23.7932
26.5999
29.4411
32.2542
35.2643
38.003
40.3859
42.4688
43.8895
44.6216
44.2294
43.0945
40.3708
36.138
31.71
25.9025
19.4383
14.2129
9.57206
6.07168
4.40794
4.0215
5.60348
9.45932
14.2427
19.2569
25.2082
32.6021
39.9985
45.9929
50.5027
53.5147
55.325
56.3358
56.6762
56.5268
56.2401
55.7411
55.1386
54.259
53.227
52.9733
52.6451
51.9442
52.1851
52.8261
53.3671
54.1592
55.1701
55.9598
56.31
56.6837
57.166
57.3642
57.2537
56.9123
56.146
55.1696
54.4372
53.8685
53.5859
54.1453
56.4779
60.9539
65.823
70.0167
72.3981
73.3593
73.8742
73.9777
73.7208
73.3464
72.5091
71.273
69.9321
68.1982
65.8785
62.7461
58.9079
54.8229
49.712
43.079
35.9255
28.26
19.8018
11.4261
4.42073
-0.525011
-3.82331
-5.77993
-5.81877
-3.27801
1.416
7.42131
14.3202
21.9955
30.2097
38.3401
45.7649
52.1649
57.3958
61.6539
65.1423
68.0295
70.4076
72.2779
73.7562
74.7909
75.4272
75.8833
76.3005
76.7749
77.2264
77.6412
77.9071
78.0939
78.1484
78.1345
78.0933
78.0322
77.9513
77.8691
77.7844
77.6983
77.6139
77.5355
77.4545
77.3834
77.3074
77.2392
77.1569
77.0861
77.0114
76.9236
76.841
76.7428
76.6654
76.5534
76.4487
76.3333
76.2173
76.0978
75.9468
75.8091
75.6349
75.4736
75.2892
75.083
74.864
74.6203
74.3783
74.0983
73.8024
73.4818
73.1346
72.7722
72.3708
71.9439
71.4906
70.9912
70.4635
69.8145
69.1677
68.3024
67.5688
66.1033
65.3815
62.5264
61.9771
56.1844
55.0886
44.0063
35.7286
21.4429
52.915
52.5242
51.731
51.7095
52.1294
53.3848
55.0008
55.5618
55.2195
53.8054
51.4556
49.1628
46.6775
43.6802
41.0908
38.5306
35.3239
31.8586
28.4801
25.6108
23.4937
22.0576
21.6371
21.9301
22.5024
23.9437
26.1954
28.8193
31.4141
34.0477
36.9304
39.6395
41.9786
44.014
45.4127
46.1287
45.6388
44.0829
41.0639
36.5462
31.3411
24.9106
17.8117
11.9453
6.91868
3.16605
1.37011
0.908838
2.4942
6.51711
11.7028
17.007
23.1357
30.855
38.6657
45.0445
49.8872
53.1871
55.0593
56.0131
56.3238
56.1432
55.7146
54.9861
54.167
53.0186
51.7303
51.3071
50.9627
50.4468
50.8739
51.6252
52.2991
53.2982
54.4688
55.3685
55.9476
56.6703
57.543
58.0758
58.3122
58.2801
57.7876
57.0026
56.4072
55.9091
55.5976
56.1003
58.3066
62.5403
67.1478
71.0764
73.2667
74.0603
74.4832
74.5011
74.1585
73.705
72.7682
71.4556
70.1015
68.2622
65.9215
62.836
59.0369
54.9419
49.8949
43.3176
36.1213
28.5157
20.1169
11.7255
4.62447
-0.449923
-3.79169
-5.66859
-5.62677
-3.10365
1.50432
7.47079
14.453
22.2634
30.5904
38.8362
46.4165
52.9306
58.227
62.508
65.9751
68.8004
71.1136
72.9227
74.3088
75.2457
75.8026
76.2347
76.6142
77.0784
77.486
77.8554
78.077
78.2334
78.2691
78.2287
78.1797
78.1016
78.0195
77.9166
77.8358
77.7285
77.6525
77.5526
77.48
77.3884
77.322
77.2352
77.1588
77.0717
77.005
76.9007
76.8209
76.7075
76.6382
76.5109
76.4064
76.2778
76.1619
76.0387
75.8831
75.7361
75.5475
75.3869
75.2029
74.9861
74.7425
74.4877
74.2548
73.955
73.6418
73.2883
72.9471
72.546
72.1439
71.6619
71.2257
70.6692
70.1474
69.3566
68.8082
67.5775
67.1791
65.0069
64.8393
61.0808
61.0741
54.3226
53.1684
42.2225
32.1946
21.0174
53.3557
53.0332
52.1591
51.9095
52.0636
52.9294
54.2972
54.8472
54.6426
53.4784
51.3893
49.2048
46.8685
44.076
41.6248
39.19
36.2618
33.1046
30.2203
27.6915
25.6581
24.4362
24.1456
24.6131
25.2922
26.4704
28.3813
30.8411
33.3257
35.8186
38.5641
41.2583
43.6057
45.5936
47.0138
47.7266
47.168
45.3021
41.9289
37.1061
31.1608
24.0288
16.3505
9.89789
4.55499
0.591284
-1.36505
-1.876
-0.278212
3.92151
9.46082
15.0463
21.3813
29.3976
37.5429
44.2408
49.4187
52.9811
54.8579
55.7644
56.0457
55.7924
55.165
54.2075
53.1385
51.6759
50.1449
49.5545
49.1837
48.8819
49.5036
50.3804
51.2355
52.4655
53.7892
54.8093
55.6412
56.7181
57.9464
58.8059
59.3961
59.642
59.4117
58.8007
58.3494
57.9159
57.5708
58.0426
60.1448
64.1552
68.5077
72.1557
74.1578
74.7773
75.0949
75.0329
74.6255
74.1074
73.0686
71.6895
70.2877
68.358
66.0105
62.9657
59.2163
55.1372
50.1969
43.7379
36.5324
28.9816
20.7296
12.3721
5.20445
0.00970608
-3.37949
-5.16039
-5.01261
-2.53111
1.94739
7.8547
14.8671
22.7482
31.1384
39.4573
47.123
53.6747
59.0162
63.286
66.7064
69.4717
71.7051
73.4524
74.7394
75.5936
76.0977
76.5291
76.8867
77.35
77.725
78.0432
78.2367
78.3521
78.383
78.3071
78.2648
78.1511
78.0877
77.9516
77.8897
77.741
77.6967
77.5567
77.5089
77.3779
77.3431
77.2202
77.1658
77.0442
77.0078
76.8676
76.8069
76.66
76.6238
76.4602
76.3703
76.2119
76.1236
75.9683
75.8241
75.6528
75.4831
75.2884
75.1183
74.8736
74.6441
74.3525
74.1356
73.7843
73.4928
73.0888
72.7707
72.2825
71.9269
71.3199
70.9875
70.2003
69.8883
68.7449
68.5622
66.7117
66.7278
63.8541
64.1562
59.5733
60.0115
52.6685
50.1835
40.5942
29.5242
20.7988
54.1198
53.7635
52.4694
51.9192
51.95
52.4756
53.6194
54.176
54.048
53.165
51.3389
49.3489
47.1529
44.5459
42.2525
39.9475
37.2514
34.3234
31.9081
29.7524
27.8568
26.7812
26.5396
27.1241
27.865
28.7934
30.3908
32.7201
35.1524
37.5483
40.1638
42.8376
45.2473
47.2329
48.7079
49.4579
48.8589
46.7497
43.0297
37.8147
31.162
23.266
15.0855
8.15147
2.51219
-1.64195
-3.7824
-4.32333
-2.66986
1.7062
7.54424
13.3869
19.9591
28.247
36.6705
43.6348
49.1181
52.8584
54.7111
55.6081
55.8367
55.4358
54.5391
53.3533
52.0281
50.2403
48.4976
47.7402
47.3275
47.2558
48.0831
49.0968
50.1779
51.6574
53.1296
54.3045
55.4044
56.8237
58.388
59.554
60.4962
61.0132
61.012
60.5647
60.2421
59.8618
59.5145
59.9546
61.9646
65.7637
69.8614
73.2128
75.0358
75.5021
75.7087
75.5479
75.0701
74.5079
73.389
71.9652
70.4968
68.4922
66.1405
63.1435
59.4506
55.3981
50.5743
44.3333
37.167
29.6641
21.5762
13.3381
6.13132
0.839577
-2.58588
-4.28314
-4.0469
-1.61344
2.72718
8.55182
15.5471
23.448
31.8592
40.2051
47.8908
54.4128
59.7621
63.9856
67.3341
70.0547
72.2007
73.8757
75.0658
75.8585
76.331
76.779
77.1272
77.5876
77.952
78.2023
78.3866
78.4456
78.4934
78.3604
78.3388
78.1813
78.1507
77.964
77.9372
77.7352
77.7368
77.5403
77.5328
77.3497
77.3636
77.1827
77.1767
76.9945
77.0196
76.8105
76.8034
76.5877
76.6211
76.3855
76.3501
76.1198
76.0922
75.8719
75.7905
75.5443
75.4184
75.1546
75.0688
74.7474
74.5415
74.1625
74.051
73.598
73.357
72.8239
72.628
71.9576
71.7676
70.8902
70.8086
69.6395
69.6129
68.0196
68.1114
65.7087
66.0697
62.5418
63.3426
58.1615
58.1603
51.4041
46.2836
38.9465
28.2276
21.3809
54.7362
54.3097
52.7599
51.9434
51.8588
52.1026
53.0734
53.626
53.5239
52.893
51.313
49.5723
47.5092
45.101
42.9313
40.7919
38.2829
35.5378
33.4888
31.6679
29.9855
28.9954
28.7562
29.369
30.1354
30.9482
32.3015
34.4786
36.8632
39.2205
41.7423
44.394
46.8967
48.9101
50.4997
51.3331
50.7253
48.4274
44.3712
38.6819
31.3286
22.6635
13.9818
6.70403
0.814083
-3.55128
-5.86675
-6.40614
-4.65143
-0.106117
5.95436
12.0276
18.8897
27.4504
36.0781
43.2227
48.9772
52.8014
54.6432
55.5417
55.6615
55.0341
53.8184
52.3934
50.8186
48.747
46.8318
45.8907
45.4131
45.5781
46.6075
47.7667
49.1107
50.858
52.4958
53.8657
55.2496
56.9916
58.8533
60.3364
61.6167
62.392
62.5975
62.2804
62.073
61.7467
61.4214
61.8335
63.7631
67.3461
71.1808
74.2355
75.8733
76.2245
76.3295
76.05
75.4755
74.8593
73.6927
72.2617
70.7326
68.694
66.3121
63.385
59.7572
55.708
51.0034
45.0602
38.0204
30.5725
22.6802
14.5926
7.4133
2.04238
-1.43425
-3.06321
-2.78047
-0.40497
3.80072
9.53071
16.4697
24.3599
32.7484
41.0654
48.7032
55.1543
60.4564
64.6133
67.8872
70.5704
72.6199
74.2128
75.3058
76.0643
76.5221
76.9924
77.3524
77.7905
78.1691
78.3234
78.5214
78.5081
78.5858
78.3898
78.397
78.186
78.1995
77.9517
77.9638
77.7014
77.7625
77.4998
77.5343
77.2887
77.3747
77.1101
77.1684
76.9062
77.0226
76.7135
76.7813
76.4746
76.6101
76.2685
76.3129
75.9811
76.0636
75.7366
75.74
75.3847
75.3739
74.9873
74.9988
74.5586
74.4627
73.9449
73.9549
73.3298
73.2031
72.5066
72.4738
71.5561
71.5502
70.3809
70.5152
68.9684
69.2351
67.2004
67.5061
64.5775
65.3564
61.498
61.9981
57.1972
55.2217
49.8618
43.4685
37.8875
28.279
22.4872
55.1905
54.7467
53.0683
52.0251
51.8049
51.8381
52.6521
53.2082
53.1287
52.6616
51.3311
49.7997
47.9166
45.6927
43.6295
41.6656
39.3186
36.7935
34.9784
33.4094
31.9791
31.0458
30.7927
31.3505
32.1604
32.9823
34.1469
36.1267
38.4735
40.8211
43.2635
45.9111
48.5264
50.6046
52.3809
53.3652
52.7497
50.2789
45.8987
39.713
31.6848
22.305
13.1009
5.53537
-0.551291
-5.12317
-7.60298
-8.09722
-6.20936
-1.52538
4.68825
11.0062
18.2075
27.0043
35.7333
43.0351
48.9921
52.7837
54.6238
55.516
55.5084
54.6023
53.0284
51.3441
49.5278
47.2312
45.1872
44.0388
43.4823
43.8721
45.0695
46.3778
48.0181
50.0513
51.89
53.4989
55.1813
57.2257
59.3529
61.1577
62.7664
63.7747
64.1618
63.9533
63.8414
63.5722
63.2734
63.6837
65.5455
68.912
72.4721
75.2307
76.6672
76.9288
76.9511
76.5626
75.876
75.1651
73.9546
72.5406
70.9811
68.9572
66.55
63.683
60.142
56.0601
51.4806
45.8711
39.0574
31.7267
24.0514
16.1551
9.05314
3.61372
0.081694
-1.54264
-1.25689
1.05057
5.12917
10.7587
17.631
25.4966
33.8211
42.0303
49.5539
55.9106
61.1038
65.1754
68.3761
71.0146
72.9538
74.4653
75.4765
76.2261
76.6954
77.1703
77.5719
77.9483
78.375
78.4094
78.6265
78.5441
78.6548
78.394
78.4233
78.1729
78.2265
77.9083
77.9528
77.6481
77.754
77.4251
77.5022
77.1989
77.3421
76.9885
77.113
76.7856
76.9901
76.5607
76.7091
76.33
76.5479
76.0826
76.2325
75.7987
75.9751
75.5199
75.6871
75.1673
75.2659
74.7496
74.9782
74.3341
74.3422
73.6331
73.8693
73.0327
73.0335
72.0999
72.2454
71.0564
71.192
69.7401
70.0267
68.122
68.6927
66.2822
66.7147
63.8184
64.2074
60.9579
59.7787
56.0122
52.3117
48.0052
41.8662
37.7549
29.4153
23.7896
55.5639
55.1038
53.3808
52.1649
51.7934
51.6725
52.3016
52.8836
52.8414
52.4326
51.3607
49.9986
48.2915
46.2834
44.3521
42.5168
40.3384
38.0735
36.3801
34.9834
33.8
32.969
32.6986
33.1663
34.0207
34.8785
35.9045
37.6857
39.9665
42.3113
44.716
47.3954
50.1368
52.3525
54.3638
55.5358
54.9172
52.274
47.5814
40.9102
32.2503
22.2187
12.5358
4.68295
-1.57948
-6.31684
-8.93777
-9.37015
-7.34066
-2.55581
3.77552
10.3467
17.8814
26.8691
35.6521
43.0914
49.0594
52.7497
54.6435
55.5308
55.3694
54.1399
52.1982
50.2581
48.2209
45.734
43.5645
42.2041
41.5873
42.167
43.479
44.9391
46.899
49.232
51.3126
53.2125
55.1986
57.5293
59.9081
62.0253
63.9441
65.1724
65.6936
65.5872
65.5505
65.3232
65.0705
65.4901
67.2768
70.455
73.7428
76.2082
77.4349
77.6019
77.5517
77.0788
76.2938
75.4706
74.1993
72.7789
71.2113
69.2345
66.851
64.0266
60.5727
56.4848
52.0096
46.7374
40.2195
33.1017
25.6546
17.995
11.0158
5.5329
1.94719
0.277945
0.513986
2.73787
6.69474
12.221
19.0463
26.8538
35.0726
43.1165
50.4522
56.6726
61.6889
65.682
68.8015
71.3781
73.2018
74.6368
75.5984
76.3455
76.863
77.2979
77.7732
78.0615
78.5485
78.4669
78.6967
78.5658
78.6895
78.374
78.4145
78.1339
78.2202
77.8384
77.8983
77.5647
77.698
77.3177
77.4157
77.0722
77.2544
76.8252
77.0056
76.6317
76.8671
76.3535
76.5737
76.1578
76.3917
75.8195
76.0634
75.569
75.7908
75.191
75.498
74.8234
75.0678
74.3993
74.7797
73.8515
74.1251
73.2385
73.6259
72.4713
72.7944
71.5968
71.8337
70.4387
70.7829
69.1447
69.3946
67.5868
68.0523
65.819
65.69
63.4353
62.4938
60.0293
57.5167
54.3963
50.329
46.9772
41.3586
38.3379
30.9157
25.0196
55.8471
55.3761
53.6562
52.3288
51.8206
51.5941
52.0013
52.608
52.6062
52.1912
51.3942
50.2043
48.6404
46.8514
45.066
43.3225
41.3338
39.3249
37.7069
36.4372
35.4984
34.7907
34.4859
34.8667
35.7397
36.612
37.55
39.1715
41.356
43.7038
46.1197
48.8557
51.7398
54.1482
56.4305
57.8388
57.2261
54.3972
49.3725
42.2223
32.963
22.3226
12.2531
4.14035
-2.25951
-7.10482
-9.82126
-10.1979
-8.04934
-3.18773
3.23108
10.0122
17.8831
27.0552
35.8434
43.307
49.1042
52.7433
54.7282
55.5511
55.1819
53.6221
51.3627
49.2001
46.9578
44.2811
41.9388
40.3666
39.7392
40.4759
41.8554
43.4807
45.7759
48.4098
50.7712
53.0188
55.3064
57.9085
60.5235
62.9615
65.1618
66.5831
67.1936
67.1751
67.1922
66.998
66.7939
67.2433
68.9474
71.9452
74.9661
77.158
78.1929
78.2499
78.1091
77.5539
76.6948
75.7954
74.4845
73.0033
71.4201
69.4756
67.1625
64.3987
61.0461
56.9975
52.6441
47.6268
41.4679
34.6377
27.4496
20.0147
13.2419
7.78724
4.14261
2.39755
2.55778
4.69391
8.53422
13.9573
20.721
28.4183
36.4674
44.3073
51.3797
57.4294
62.2225
66.1616
69.1914
71.6691
73.3905
74.7424
75.6923
76.4201
77.0255
77.3792
77.9386
78.1429
78.6752
78.4945
78.7132
78.5665
78.7007
78.3137
78.3545
78.0592
78.1779
77.7256
77.785
77.453
77.6009
77.1679
77.2752
76.915
77.1133
76.6294
76.8398
76.4474
76.6758
76.1152
76.371
75.9454
76.1613
75.5267
75.8158
75.3005
75.5265
74.8362
75.1885
74.4486
74.7503
74.0053
74.3992
73.2583
73.6698
72.8588
73.1909
71.7106
72.1544
71.1087
71.2343
69.7098
70.1471
68.5058
68.5607
66.9862
67.0611
64.9555
64.3767
62.3713
60.7044
58.4378
55.7966
53.1164
49.3545
47.0402
41.8448
39.2751
32.3444
26.0973
56.0705
55.6015
53.8941
52.5063
51.8695
51.5643
51.7715
52.3939
52.4478
52.0161
51.4418
50.4184
48.9735
47.3813
45.7702
44.1074
42.2909
40.5375
39.0062
37.8303
37.0689
36.4699
36.1663
36.4668
37.3118
38.2025
39.0943
40.583
42.6674
44.995
47.4375
50.2796
53.3385
55.9762
58.5647
60.2629
59.656
56.6092
51.2155
43.5769
33.7615
22.5974
12.2112
3.89537
-2.57932
-7.47232
-10.2468
-10.5947
-8.36531
-3.43186
3.033
9.99076
18.2075
27.5304
36.2902
43.6177
49.1682
52.8074
54.8126
55.4952
54.8991
52.9822
50.5099
48.2048
45.7537
42.8762
40.2999
38.5008
37.9068
38.7868
40.2104
42.0328
44.6717
47.6022
50.2954
52.9312
55.5083
58.3686
61.218
63.9762
66.4248
68.0008
68.665
68.7168
68.7665
68.6091
68.4438
68.9343
70.5628
73.3723
76.1213
78.0531
78.9173
78.8712
78.6122
77.9433
77.0232
76.0915
74.7988
73.2625
71.6505
69.6828
67.4331
64.7781
61.5688
57.6062
53.3988
48.5712
42.7805
36.2658
29.2988
22.2579
15.7038
10.34
6.67124
4.84193
4.91474
6.94937
10.6722
15.9806
22.6455
30.1523
38.0218
45.5582
52.338
58.1686
62.7252
66.6125
69.563
71.8838
73.5253
74.7925
75.7646
76.4579
77.1939
77.4323
78.0594
78.2008
78.7508
78.4661
78.6727
78.537
78.6644
78.1824
78.254
77.9623
78.081
77.5547
77.6334
77.3212
77.4491
76.9635
77.0931
76.7314
76.9087
76.3951
76.6279
76.2235
76.4067
75.8456
76.1253
75.6785
75.8462
75.2275
75.5293
74.9892
75.1795
74.5049
74.833
74.1031
74.3733
73.629
73.9053
72.8136
73.2484
72.4932
72.5857
71.0498
71.5829
70.6563
70.5585
68.9454
69.3316
67.6785
67.5828
66.012
65.7311
63.4245
62.744
60.5942
58.8391
56.7425
54.5375
52.412
49.1761
47.7298
42.8634
40.1282
33.5101
27.0948
56.2607
55.7858
54.0918
52.677
51.953
51.5839
51.6305
52.2344
52.3496
51.9183
51.4787
50.6424
49.3154
47.8779
46.4786
44.909
43.2261
41.6927
40.2713
39.1625
38.4936
38.0106
37.7632
37.9946
38.7803
39.6675
40.539
41.9159
43.8949
46.186
48.6748
51.6611
54.9079
57.832
60.7641
62.7427
62.1253
58.8601
53.0975
44.962
34.6364
23.0996
12.4628
3.9755
-2.52601
-7.42163
-10.243
-10.5949
-8.29423
-3.29883
3.16108
10.2735
18.7996
28.2606
36.9854
43.98
49.2734
52.8811
54.8042
55.3231
54.5175
52.4104
49.7992
47.3011
44.6078
41.5099
38.6642
36.6309
36.0856
37.0833
38.5539
40.6208
43.5991
46.8344
49.9226
52.9543
55.8173
58.926
62.0084
65.0748
67.7249
69.4247