/*--------------------------------*- C++ -*----------------------------------*\
| =========                 |                                                 |
| \\      /  F ield         | OpenFOAM: The Open Source CFD Toolbox           |
|  \\    /   O peration     | Version:  2.4.0                                 |
|   \\  /    A nd           | Web:      www.OpenFOAM.org                      |
|    \\/     M anipulation  |                                                 |
\*---------------------------------------------------------------------------*/
FoamFile
{
    version     2.0;
    format      ascii;
    class       volScalarField;
    location    "0.102";
    object      nuSgs;
}
// * * * * * * * * * * * * * * * * * * * * * * * * * * * * * * * * * * * * * //

dimensions      [0 2 -1 0 0 0 0];

internalField   nonuniform List<scalar> 
17600
(
0.00101308
0.000904875
0.000752331
0.000658896
0.000607872
0.000570396
0.000546526
0.000521431
0.000509096
0.000491172
0.000486303
0.00047109
0.00047251
0.000455111
0.000464393
0.000450584
0.000455834
0.000462529
0.000476388
0.000510678
0.00070562
0.000828119
0.000803412
0.000746492
0.000699251
0.000657912
0.000631911
0.000603132
0.000589055
0.000567578
0.000560839
0.000543204
0.000542493
0.000524313
0.000530894
0.000514468
0.000515591
0.000517745
0.000521893
0.000522615
0.00038219
0.00060246
0.000664548
0.000661126
0.000645891
0.00061699
0.000598541
0.00057474
0.000563383
0.000543937
0.000537743
0.000521238
0.0005202
0.000503944
0.000507881
0.000494262
0.000492198
0.000488935
0.000492189
0.000480373
0.0001514
0.000363516
0.000461655
0.000505659
0.000527953
0.000526492
0.00052332
0.000512906
0.000507449
0.000494359
0.000490661
0.000477643
0.000477841
0.000464971
0.000467031
0.000458705
0.000453589
0.00044772
0.000449126
0.000440715
5.35733e-05
0.000172049
0.00026779
0.000323542
0.000372807
0.000395528
0.000414106
0.000418834
0.000424614
0.000421931
0.000423262
0.000417164
0.000419899
0.000412083
0.000412734
0.000411354
0.00040416
0.000399748
0.000397528
0.000391766
1.739e-05
6.99722e-05
0.000129776
0.000165205
0.000217522
0.000248749
0.000280004
0.000298044
0.000317878
0.000323259
0.000336499
0.000336725
0.000343931
0.000343572
0.000343388
0.000348797
0.000344276
0.000341723
0.000337466
0.000331087
5.57369e-06
2.66506e-05
5.32224e-05
7.15315e-05
0.000102422
0.000127386
0.00015495
0.000174904
0.000201343
0.000210826
0.000231664
0.000237571
0.000249819
0.000260265
0.000260133
0.000271484
0.000270886
0.000270323
0.000266793
0.000260878
2.37679e-06
9.98511e-06
1.98594e-05
2.72156e-05
3.83567e-05
5.51265e-05
6.93306e-05
8.19522e-05
0.000104783
0.00011335
0.000131245
0.000140794
0.000149218
0.000168857
0.000169435
0.000183487
0.000186903
0.000186691
0.000184983
0.00018359
1.78645e-06
4.08601e-06
7.95035e-06
1.0161e-05
1.35564e-05
2.01891e-05
2.60255e-05
3.20841e-05
4.43301e-05
4.93193e-05
6.03269e-05
6.86517e-05
7.37052e-05
8.9239e-05
9.02894e-05
0.000103365
0.000107855
0.000106425
0.000106732
0.000108752
1.63374e-06
2.28351e-06
4.02519e-06
4.73452e-06
5.49375e-06
7.30465e-06
9.1572e-06
1.18529e-05
1.66109e-05
1.82613e-05
2.41997e-05
2.70643e-05
3.04847e-05
3.97242e-05
3.95508e-05
4.8427e-05
5.10944e-05
4.95557e-05
5.125e-05
5.27718e-05
1.62359e-06
1.91131e-06
2.76053e-06
3.28392e-06
3.37854e-06
3.59235e-06
3.98564e-06
5.31917e-06
6.63465e-06
7.38557e-06
9.58045e-06
9.99468e-06
1.12391e-05
1.44985e-05
1.41549e-05
1.93017e-05
1.99114e-05
1.93209e-05
2.12785e-05
2.23009e-05
1.60861e-06
1.83667e-06
2.40068e-06
2.68921e-06
2.7716e-06
2.75694e-06
2.81359e-06
3.013e-06
3.45903e-06
5.02737e-06
5.173e-06
5.54554e-06
5.66898e-06
5.95234e-06
6.38834e-06
8.16626e-06
8.16007e-06
8.40473e-06
9.71268e-06
9.9269e-06
1.55924e-06
1.86321e-06
2.12471e-06
2.21935e-06
2.72076e-06
2.73379e-06
2.88307e-06
2.87972e-06
3.23444e-06
3.60962e-06
3.74063e-06
4.75113e-06
4.69108e-06
4.74297e-06
5.27018e-06
5.35504e-06
5.46506e-06
6.42126e-06
6.29352e-06
6.40992e-06
1.53784e-06
1.83604e-06
1.96577e-06
2.15507e-06
2.70125e-06
2.67823e-06
2.77214e-06
2.68642e-06
3.03628e-06
3.11073e-06
3.6506e-06
4.12906e-06
4.0952e-06
4.48358e-06
4.3281e-06
4.40472e-06
5.08205e-06
5.06033e-06
4.98285e-06
5.29233e-06
1.52969e-06
1.74914e-06
1.95703e-06
2.38508e-06
2.45546e-06
2.41141e-06
2.41707e-06
2.37232e-06
2.47913e-06
2.56871e-06
3.16092e-06
3.16668e-06
3.17713e-06
3.56236e-06
3.50911e-06
3.62749e-06
4.30964e-06
4.04429e-06
4.04905e-06
4.7352e-06
1.52946e-06
1.76483e-06
2.0484e-06
2.18208e-06
2.16965e-06
2.25478e-06
2.31406e-06
2.43825e-06
2.42552e-06
2.51535e-06
2.56507e-06
2.60869e-06
2.93149e-06
2.96592e-06
3.01433e-06
3.5173e-06
3.49183e-06
3.39296e-06
3.61814e-06
4.45513e-06
1.52076e-06
1.76685e-06
1.92176e-06
1.98327e-06
2.07012e-06
2.29421e-06
2.30624e-06
2.32948e-06
2.29415e-06
2.4525e-06
2.46419e-06
2.55222e-06
2.9264e-06
2.96828e-06
3.07666e-06
3.32885e-06
3.23607e-06
3.25744e-06
3.62816e-06
3.78965e-06
1.50808e-06
1.6803e-06
1.90109e-06
1.99692e-06
2.12738e-06
2.15993e-06
2.17646e-06
2.1732e-06
2.18288e-06
2.23032e-06
2.2819e-06
2.51469e-06
2.53203e-06
2.59378e-06
2.85421e-06
2.84497e-06
2.84583e-06
3.02041e-06
3.10349e-06
3.07257e-06
1.5073e-06
1.67801e-06
1.93671e-06
1.96072e-06
2.03758e-06
2.10166e-06
2.15895e-06
2.1543e-06
2.21595e-06
2.24761e-06
2.26713e-06
2.36266e-06
2.49983e-06
2.72151e-06
2.74283e-06
2.7542e-06
2.84141e-06
2.84726e-06
2.76475e-06
2.79795e-06
1.5118e-06
1.65573e-06
1.86153e-06
2.00341e-06
2.05867e-06
2.09041e-06
2.10022e-06
2.112e-06
2.11026e-06
2.18439e-06
2.25255e-06
2.29838e-06
2.36445e-06
2.5249e-06
2.49507e-06
2.52171e-06
2.60407e-06
2.60372e-06
2.54393e-06
2.69463e-06
1.51036e-06
1.64936e-06
1.95636e-06
2.0692e-06
2.04583e-06
2.04172e-06
2.05352e-06
2.0984e-06
2.24488e-06
2.25018e-06
2.27643e-06
2.33992e-06
2.35121e-06
2.37062e-06
2.42421e-06
2.4864e-06
2.50297e-06
2.49341e-06
2.47101e-06
2.63498e-06
1.50812e-06
1.64547e-06
2.04464e-06
2.0452e-06
2.00439e-06
2.05779e-06
2.10476e-06
2.14777e-06
2.24427e-06
2.22969e-06
2.22676e-06
2.31155e-06
2.33212e-06
2.37023e-06
2.4429e-06
2.44308e-06
2.46511e-06
2.44833e-06
2.45863e-06
2.58453e-06
1.51347e-06
1.77619e-06
2.04505e-06
1.99206e-06
1.99287e-06
2.13935e-06
2.17338e-06
2.27289e-06
2.26692e-06
2.25558e-06
2.3556e-06
2.38617e-06
2.38771e-06
2.42821e-06
2.44988e-06
2.46573e-06
2.46678e-06
2.48238e-06
2.51151e-06
2.59513e-06
1.52136e-06
1.85443e-06
1.94197e-06
1.94528e-06
2.14773e-06
2.22399e-06
2.24259e-06
2.39742e-06
2.3679e-06
2.36487e-06
2.48258e-06
2.45871e-06
2.45345e-06
2.52103e-06
2.5473e-06
2.57863e-06
2.59885e-06
2.62945e-06
2.64334e-06
2.70776e-06
1.51878e-06
1.7819e-06
1.85319e-06
2.1099e-06
2.32137e-06
2.32912e-06
2.42332e-06
2.49722e-06
2.44467e-06
2.50607e-06
2.52777e-06
2.5152e-06
2.5714e-06
2.67659e-06
2.6894e-06
2.71461e-06
2.71842e-06
2.72269e-06
2.73702e-06
2.82003e-06
1.52755e-06
1.70157e-06
1.96166e-06
2.38894e-06
2.36437e-06
2.36529e-06
2.56526e-06
2.54694e-06
2.53109e-06
2.60073e-06
2.60858e-06
2.63404e-06
2.77173e-06
2.82725e-06
2.83503e-06
2.84846e-06
2.85392e-06
2.88296e-06
2.96067e-06
3.15034e-06
1.5423e-06
1.74901e-06
2.22024e-06
2.35658e-06
2.33462e-06
2.53839e-06
2.65415e-06
2.62694e-06
2.66389e-06
2.69564e-06
2.73437e-06
2.84352e-06
2.93534e-06
3.02855e-06
3.07075e-06
3.1242e-06
3.1725e-06
3.31691e-06
3.64984e-06
4.42279e-06
1.55378e-06
1.8622e-06
2.25558e-06
2.26894e-06
2.45417e-06
2.82646e-06
2.82338e-06
2.84455e-06
2.887e-06
2.91743e-06
3.03408e-06
3.12211e-06
3.25694e-06
3.5913e-06
3.73386e-06
3.97292e-06
4.29524e-06
5.12198e-06
6.56349e-06
9.30779e-06
1.58662e-06
1.83785e-06
2.27712e-06
2.47218e-06
3.02806e-06
3.1176e-06
3.17738e-06
3.26598e-06
3.37209e-06
3.5059e-06
3.96982e-06
4.25818e-06
4.72767e-06
5.82677e-06
6.43548e-06
7.66256e-06
9.12433e-06
1.24424e-05
1.63396e-05
2.34926e-05
1.60155e-06
1.90302e-06
2.7055e-06
3.25401e-06
3.65358e-06
3.87752e-06
4.228e-06
4.99778e-06
5.68246e-06
6.54599e-06
8.68756e-06
9.57065e-06
1.10381e-05
1.4534e-05
1.65755e-05
2.07264e-05
2.44496e-05
3.27542e-05
4.01647e-05
5.61441e-05
1.63295e-06
2.27141e-06
3.95989e-06
5.06821e-06
5.73751e-06
7.41298e-06
9.03812e-06
1.24841e-05
1.4879e-05
1.81424e-05
2.42294e-05
2.65991e-05
3.0484e-05
3.95345e-05
4.39781e-05
5.3006e-05
5.9707e-05
7.466e-05
8.57178e-05
0.000113344
1.76121e-06
3.94992e-06
7.53847e-06
1.11073e-05
1.3738e-05
2.01748e-05
2.53747e-05
3.51765e-05
4.13933e-05
4.96148e-05
6.24633e-05
6.77092e-05
7.54068e-05
9.16914e-05
9.83201e-05
0.000112
0.000121327
0.000141431
0.000154601
0.00018903
2.37156e-06
9.70599e-06
1.84196e-05
2.96533e-05
3.79311e-05
5.5013e-05
6.78042e-05
8.70585e-05
0.000100262
0.000114099
0.000133403
0.000141118
0.00015359
0.0001718
0.000179111
0.000193948
0.000203826
0.00022338
0.000235086
0.000262328
5.61737e-06
2.60493e-05
5.02577e-05
7.6529e-05
9.67954e-05
0.000128974
0.00015538
0.000177079
0.000197758
0.00021362
0.00023217
0.000239468
0.000252388
0.000264723
0.000270055
0.000280384
0.000288407
0.00030077
0.000308624
0.000325838
1.74616e-05
6.8473e-05
0.000127462
0.000170528
0.000212908
0.000250777
0.000279766
0.000299127
0.000316246
0.000325977
0.00033626
0.000338883
0.000345252
0.000348913
0.000351301
0.000354798
0.000359431
0.000364022
0.000368857
0.0003763
5.36642e-05
0.000168594
0.000268717
0.000325016
0.000371013
0.000396919
0.000413786
0.000419646
0.000424336
0.000423404
0.000423241
0.000419952
0.000419732
0.000416987
0.000416335
0.000414229
0.00041486
0.000414282
0.00041509
0.000414664
0.000151471
0.000362225
0.000462677
0.000505633
0.000527922
0.000526733
0.000523298
0.000513624
0.000507013
0.000495554
0.000490137
0.000480091
0.000476797
0.000468263
0.000465937
0.0004592
0.000457119
0.00045134
0.000448106
0.000441828
0.000382106
0.000601803
0.000665149
0.000660954
0.000646474
0.000616612
0.000598208
0.000575626
0.000562277
0.000545034
0.00053614
0.000522953
0.000517453
0.000504892
0.000501356
0.000490392
0.000485433
0.000473182
0.000465368
0.000451341
0.000705256
0.00082783
0.000803902
0.000745545
0.000700853
0.000656883
0.000631768
0.000603639
0.000587609
0.000568082
0.000557874
0.000543572
0.000536718
0.000521455
0.000516829
0.000501767
0.000493582
0.000474413
0.000461263
0.000435852
0.00101264
0.000904556
0.000753218
0.000657652
0.000609303
0.000569262
0.000546472
0.000521175
0.000507441
0.000490763
0.000481827
0.000469253
0.000462758
0.000447375
0.00044153
0.000424272
0.000412677
0.000387252
0.000367021
0.000330837
0.000232069
0.00016425
0.000131027
0.000132653
0.000151692
0.000153249
0.000149144
0.000139636
0.000124312
0.000119186
0.000109716
0.000114429
0.000109985
0.000132994
0.000138782
0.0001155
0.000119432
9.50764e-05
7.63895e-05
6.71675e-05
6.27128e-05
6.11757e-05
5.56966e-05
5.50514e-05
5.3859e-05
5.19991e-05
5.09005e-05
5.43919e-05
6.09093e-05
6.64203e-05
7.74456e-05
8.23023e-05
8.35902e-05
8.30694e-05
7.82578e-05
6.0527e-05
4.15549e-05
2.83229e-05
1.99787e-05
1.44689e-05
1.12914e-05
9.74365e-06
9.13201e-06
9.08283e-06
9.14674e-06
9.46725e-06
1.00957e-05
1.23017e-05
2.08787e-05
4.4976e-05
5.91689e-05
6.15419e-05
5.9369e-05
5.41831e-05
5.06031e-05
4.73045e-05
4.67014e-05
4.66607e-05
4.58279e-05
4.23372e-05
3.95814e-05
3.79055e-05
3.76045e-05
3.78084e-05
3.96231e-05
4.09844e-05
4.14718e-05
4.17757e-05
4.23252e-05
4.41355e-05
4.63469e-05
4.77661e-05
4.76384e-05
4.45713e-05
3.81507e-05
3.219e-05
2.66497e-05
2.31029e-05
2.13125e-05
1.94687e-05
1.82266e-05
1.78434e-05
1.78267e-05
1.81164e-05
1.93258e-05
2.35122e-05
2.95533e-05
3.2975e-05
3.44772e-05
3.48996e-05
3.4813e-05
3.41456e-05
3.39617e-05
3.38238e-05
3.35122e-05
3.29543e-05
3.22433e-05
3.00534e-05
2.72737e-05
2.57607e-05
2.55235e-05
2.58117e-05
2.7295e-05
2.94069e-05
3.13649e-05
3.71149e-05
4.47798e-05
4.69917e-05
4.68874e-05
4.51843e-05
4.21535e-05
4.07982e-05
4.14923e-05
4.34409e-05
4.55761e-05
4.54346e-05
4.25171e-05
3.76671e-05
3.56855e-05
3.56776e-05
3.77288e-05
4.18766e-05
4.62941e-05
4.71772e-05
4.71107e-05
4.39702e-05
3.65579e-05
3.13633e-05
3.00164e-05
2.95591e-05
2.92911e-05
2.90642e-05
2.80585e-05
2.78051e-05
2.81621e-05
3.09192e-05
3.51197e-05
3.70386e-05
3.77346e-05
3.80547e-05
3.85209e-05
4.0324e-05
4.67362e-05
5.17498e-05
5.38194e-05
5.4539e-05
5.44116e-05
5.32424e-05
5.01869e-05
4.72358e-05
4.65349e-05
4.69498e-05
4.87903e-05
5.12703e-05
5.14904e-05
4.99554e-05
4.84661e-05
4.87604e-05
5.14975e-05
5.24223e-05
5.16577e-05
4.63988e-05
3.74202e-05
3.06522e-05
2.46229e-05
2.06931e-05
1.69377e-05
1.49936e-05
1.27682e-05
1.20647e-05
1.0721e-05
1.02956e-05
9.32173e-06
9.00215e-06
8.27912e-06
8.0186e-06
7.73206e-06
7.59183e-06
7.64652e-06
7.58193e-06
7.7185e-06
7.5681e-06
7.40719e-06
6.89296e-06
6.31687e-06
5.86047e-06
5.56027e-06
5.45954e-06
5.06928e-06
4.90274e-06
4.29094e-06
3.98169e-06
4.20619e-06
3.9987e-06
4.06273e-06
4.55081e-06
6.02928e-06
1.00777e-05
3.32398e-05
0.000122093
0.00025481
0.000222984
0.000201449
0.000181071
0.000172809
0.000159644
0.000147862
0.000135019
0.000113803
0.000104892
9.68164e-05
0.000102173
0.000102492
0.000113222
0.000139157
0.000136057
0.000137277
0.000103956
8.19272e-05
6.74958e-05
6.47645e-05
6.4726e-05
6.33192e-05
6.01229e-05
5.55594e-05
5.24837e-05
5.21057e-05
5.84907e-05
6.57186e-05
7.35012e-05
8.06136e-05
8.30019e-05
8.29703e-05
8.05979e-05
6.84703e-05
4.87621e-05
3.38782e-05
2.33594e-05
1.64712e-05
1.18498e-05
9.56699e-06
8.86554e-06
8.65781e-06
8.67493e-06
8.84779e-06
9.39134e-06
1.03294e-05
1.341e-05
2.38596e-05
4.9054e-05
6.09241e-05
6.17067e-05
5.84087e-05
5.57386e-05
5.24326e-05
4.73703e-05
4.65966e-05
4.67527e-05
4.61325e-05
4.2639e-05
3.96515e-05
3.76003e-05
3.70957e-05
3.72394e-05
3.88794e-05
4.03564e-05
4.078e-05
4.10368e-05
4.14981e-05
4.29906e-05
4.557e-05
4.74487e-05
4.75393e-05
4.51988e-05
3.91858e-05
3.31681e-05
2.7283e-05
2.32721e-05
2.11096e-05
1.93657e-05
1.80867e-05
1.76599e-05
1.76222e-05
1.78263e-05
1.8696e-05
2.14182e-05
2.75592e-05
3.19257e-05
3.38915e-05
3.45715e-05
3.45978e-05
3.38436e-05
3.3276e-05
3.28234e-05
3.22184e-05
3.16694e-05
3.0818e-05
2.92113e-05
2.72332e-05
2.56886e-05
2.52748e-05
2.54187e-05
2.68152e-05
2.96047e-05
3.16221e-05
3.58968e-05
4.40485e-05
4.70064e-05
4.705e-05
4.53895e-05
4.20781e-05
4.04589e-05
4.06636e-05
4.25491e-05
4.60929e-05
4.61897e-05
4.4129e-05
3.85526e-05
3.57589e-05
3.55736e-05
3.70634e-05
4.16425e-05
4.62914e-05
4.77173e-05
4.76815e-05
4.40229e-05
3.63361e-05
3.11926e-05
2.94966e-05
2.90437e-05
2.87841e-05
2.87329e-05
2.7877e-05
2.75493e-05
2.77618e-05
2.93415e-05
3.36928e-05
3.59188e-05
3.69085e-05
3.74491e-05
3.79218e-05
3.91575e-05
4.35731e-05
4.97612e-05
5.30419e-05
5.38876e-05
5.39743e-05
5.37516e-05
5.20334e-05
4.93326e-05
4.88722e-05
4.90302e-05
5.0898e-05
5.2023e-05
5.19436e-05
4.95856e-05
4.82596e-05
4.90189e-05
5.1851e-05
5.23929e-05
5.1621e-05
4.4854e-05
3.68733e-05
2.93653e-05
2.4376e-05
1.97826e-05
1.70331e-05
1.41548e-05
1.27773e-05
1.12034e-05
1.06636e-05
9.82718e-06
9.59851e-06
9.07478e-06
8.92576e-06
8.45802e-06
8.20228e-06
7.77133e-06
7.68993e-06
7.58061e-06
7.52462e-06
7.61423e-06
7.46518e-06
7.54008e-06
7.14579e-06
6.78552e-06
5.94306e-06
5.54909e-06
5.43521e-06
5.01738e-06
4.86397e-06
4.23837e-06
4.1736e-06
4.55947e-06
4.36359e-06
4.67641e-06
6.59212e-06
9.4413e-06
3.2655e-05
0.000102009
0.000233233
0.000211995
0.000202241
0.00018516
0.00017006
0.000155439
0.000135724
0.000119805
9.86246e-05
8.64749e-05
8.11205e-05
8.48223e-05
9.15264e-05
9.51459e-05
0.000120614
0.000140088
0.000139426
0.000110451
8.61343e-05
6.90409e-05
6.60601e-05
6.5836e-05
6.48852e-05
6.02407e-05
5.53337e-05
5.29324e-05
5.45673e-05
6.59557e-05
7.18983e-05
7.63265e-05
8.12963e-05
8.22285e-05
8.13169e-05
7.59862e-05
5.6598e-05
3.98637e-05
2.71676e-05
1.85094e-05
1.30027e-05
9.76151e-06
8.67349e-06
8.4632e-06
8.44322e-06
8.47946e-06
8.68817e-06
9.35582e-06
1.07367e-05
1.48355e-05
2.74231e-05
5.34164e-05
6.22784e-05
6.1773e-05
5.81597e-05
5.69552e-05
5.27591e-05
4.68057e-05
4.60068e-05
4.67942e-05
4.65332e-05
4.32357e-05
3.97576e-05
3.75598e-05
3.68014e-05
3.68877e-05
3.81129e-05
3.94537e-05
4.008e-05
4.04174e-05
4.08854e-05
4.20193e-05
4.45854e-05
4.69597e-05
4.72953e-05
4.5512e-05
3.98783e-05
3.40437e-05
2.79708e-05
2.34894e-05
2.10212e-05
1.93107e-05
1.80532e-05
1.75776e-05
1.7523e-05
1.76639e-05
1.82604e-05
2.00204e-05
2.49268e-05
3.03028e-05
3.31614e-05
3.42404e-05
3.43772e-05
3.38012e-05
3.29327e-05
3.21894e-05
3.13505e-05
3.03943e-05
2.94298e-05
2.87229e-05
2.75974e-05
2.60503e-05
2.52998e-05
2.52874e-05
2.66262e-05
3.00696e-05
3.21486e-05
3.50764e-05
4.32086e-05
4.69848e-05
4.72425e-05
4.56128e-05
4.21176e-05
4.01161e-05
3.99365e-05
4.13801e-05
4.61775e-05
4.6765e-05
4.55833e-05
3.97449e-05
3.59908e-05
3.55526e-05
3.64761e-05
4.14766e-05
4.64907e-05
4.84453e-05
4.83245e-05
4.41345e-05
3.61097e-05
3.11449e-05
2.89799e-05
2.79055e-05
2.77134e-05
2.78417e-05
2.74706e-05
2.72715e-05
2.74442e-05
2.83485e-05
3.22416e-05
3.50306e-05
3.61412e-05
3.6757e-05
3.72671e-05
3.82644e-05
4.18803e-05
4.70988e-05
5.1228e-05
5.33093e-05
5.36206e-05
5.358e-05
5.32312e-05
5.10641e-05
5.07939e-05
5.10257e-05
5.23192e-05
5.2616e-05
5.20017e-05
4.8952e-05
4.81051e-05
4.9531e-05
5.18837e-05
5.26817e-05
5.08986e-05
4.38416e-05
3.52006e-05
2.88354e-05
2.32727e-05
1.96528e-05
1.6341e-05
1.43268e-05
1.21862e-05
1.11464e-05
9.92248e-06
9.66476e-06
9.25803e-06
9.30344e-06
9.14636e-06
9.24747e-06
9.06577e-06
8.94978e-06
8.42414e-06
8.15741e-06
7.70419e-06
7.57856e-06
7.51314e-06
7.3919e-06
7.46472e-06
7.17453e-06
6.9068e-06
6.03925e-06
5.55411e-06
5.42972e-06
4.95229e-06
4.95874e-06
4.44493e-06
4.49676e-06
4.96556e-06
4.99653e-06
7.23746e-06
9.23042e-06
3.1135e-05
8.13684e-05
0.000221527
0.000198806
0.000183949
0.000171346
0.000152155
0.000137719
0.000117316
0.000102447
7.95193e-05
6.5461e-05
5.95586e-05
6.34753e-05
7.52964e-05
8.0957e-05
9.29716e-05
0.000126541
0.000134492
0.000122121
9.31195e-05
7.3689e-05
7.04385e-05
6.79278e-05
6.54523e-05
5.95793e-05
5.48231e-05
5.37192e-05
6.32156e-05
7.32451e-05
7.53746e-05
7.71879e-05
8.09168e-05
8.10825e-05
7.90232e-05
6.64748e-05
4.71161e-05
3.17034e-05
2.09624e-05
1.40934e-05
1.04408e-05
8.6046e-06
8.16865e-06
8.1146e-06
8.08605e-06
8.13853e-06
8.52584e-06
9.52745e-06
1.15187e-05
1.66427e-05
3.20089e-05
5.71994e-05
6.33165e-05
6.13144e-05
5.86711e-05
5.70961e-05
5.22493e-05
4.53146e-05
4.48574e-05
4.69636e-05
4.69411e-05
4.39384e-05
3.99605e-05
3.75968e-05
3.67218e-05
3.6729e-05
3.75062e-05
3.856e-05
3.91896e-05
3.96529e-05
4.02334e-05
4.13175e-05
4.40393e-05
4.6749e-05
4.71842e-05
4.5651e-05
4.04695e-05
3.48527e-05
2.85731e-05
2.37742e-05
2.09294e-05
1.92932e-05
1.80665e-05
1.75702e-05
1.7513e-05
1.76247e-05
1.80689e-05
1.92644e-05
2.22531e-05
2.83056e-05
3.20234e-05
3.37435e-05
3.41181e-05
3.38462e-05
3.29208e-05
3.19876e-05
3.1026e-05
2.96213e-05
2.85698e-05
2.82854e-05
2.80315e-05
2.66027e-05
2.56566e-05
2.56115e-05
2.75274e-05
3.08711e-05
3.28044e-05
3.48506e-05
4.21865e-05
4.69071e-05
4.74e-05
4.5972e-05
4.21791e-05
3.98791e-05
3.93654e-05
4.02114e-05
4.56936e-05
4.71924e-05
4.67801e-05
4.12907e-05
3.65712e-05
3.54633e-05
3.61538e-05
4.14525e-05
4.65029e-05
4.87322e-05
4.85772e-05
4.41141e-05
3.59539e-05
3.11089e-05
2.85312e-05
2.69943e-05
2.63187e-05
2.65246e-05
2.67021e-05
2.68327e-05
2.7123e-05
2.77498e-05
3.07709e-05
3.4092e-05
3.54744e-05
3.61016e-05
3.65689e-05
3.73609e-05
3.97422e-05
4.57431e-05
4.92077e-05
5.17681e-05
5.33577e-05
5.33559e-05
5.30677e-05
5.26421e-05
5.20486e-05
5.2731e-05
5.27735e-05
5.29631e-05
5.13049e-05
4.85343e-05
4.78457e-05
4.97029e-05
5.25052e-05
5.26324e-05
5.0216e-05
4.2259e-05
3.41593e-05
2.81388e-05
2.27902e-05
1.94528e-05
1.64451e-05
1.47687e-05
1.29629e-05
1.14996e-05
1.02511e-05
9.39498e-06
8.92093e-06
8.71276e-06
8.8284e-06
8.86407e-06
9.24887e-06
9.26773e-06
9.57248e-06
9.38549e-06
9.11312e-06
8.31811e-06
7.89755e-06
7.57643e-06
7.42759e-06
7.52635e-06
7.22784e-06
7.02731e-06
6.08457e-06
5.65343e-06
5.18441e-06
4.9101e-06
5.1327e-06
4.98656e-06
5.38672e-06
5.2377e-06
9.24951e-06
9.76925e-06
2.82619e-05
6.52123e-05
0.000201769
0.000187528
0.000170577
0.000159341
0.00013908
0.000125215
0.000103593
8.44514e-05
6.01352e-05
4.61083e-05
4.01432e-05
4.16908e-05
5.28534e-05
6.18096e-05
7.35206e-05
9.02313e-05
0.000126737
0.000130199
0.000116207
8.63463e-05
8.08385e-05
7.38722e-05
6.75543e-05
6.12128e-05
5.80239e-05
6.26195e-05
7.40134e-05
7.58736e-05
7.533e-05
7.75357e-05
8.08873e-05
8.0519e-05
7.48732e-05
5.46729e-05
3.66796e-05
2.39568e-05
1.5771e-05
1.12429e-05
9.00635e-06
7.99137e-06
7.81902e-06
7.75136e-06
7.66414e-06
7.83805e-06
8.47445e-06
9.92456e-06
1.27466e-05
1.88925e-05
3.76058e-05
6.05087e-05
6.4181e-05
6.13927e-05
5.90411e-05
5.7053e-05
4.98275e-05
4.30834e-05
4.32489e-05
4.72433e-05
4.7406e-05
4.45723e-05
4.02244e-05
3.78075e-05
3.6781e-05
3.66805e-05
3.68692e-05
3.77267e-05
3.84453e-05
3.89186e-05
3.95114e-05
4.05159e-05
4.32142e-05
4.63449e-05
4.70161e-05
4.56345e-05
4.08167e-05
3.5322e-05
2.89249e-05
2.4002e-05
2.08399e-05
1.93231e-05
1.8145e-05
1.76095e-05
1.75501e-05
1.76378e-05
1.80263e-05
1.8924e-05
2.081e-05
2.57278e-05
3.06316e-05
3.30696e-05
3.38583e-05
3.37919e-05
3.30673e-05
3.20231e-05
3.09975e-05
2.94543e-05
2.83573e-05
2.82316e-05
2.80117e-05
2.68587e-05
2.65527e-05
2.69242e-05
2.96065e-05
3.17253e-05
3.32712e-05
3.47475e-05
4.11795e-05
4.66716e-05
4.74499e-05
4.62534e-05
4.22901e-05
3.9676e-05
3.87004e-05
3.91499e-05
4.45716e-05
4.74691e-05
4.7708e-05
4.30884e-05
3.75382e-05
3.54592e-05
3.6067e-05
4.15657e-05
4.63187e-05
4.87639e-05
4.87048e-05
4.42777e-05
3.59906e-05
3.11147e-05
2.84028e-05
2.66651e-05
2.54872e-05
2.53863e-05
2.57861e-05
2.62448e-05
2.67557e-05
2.73172e-05
2.95501e-05
3.31985e-05
3.50158e-05
3.58213e-05
3.62324e-05
3.67521e-05
3.82243e-05
4.31812e-05
4.80985e-05
5.02755e-05
5.23279e-05
5.33221e-05
5.29361e-05
5.28307e-05
5.28501e-05
5.28669e-05
5.30498e-05
5.27532e-05
5.03112e-05
4.77476e-05
4.76092e-05
5.04675e-05
5.26886e-05
5.25993e-05
4.9367e-05
4.02313e-05
3.3251e-05
2.65433e-05
2.23177e-05
1.81115e-05
1.62856e-05
1.40692e-05
1.34555e-05
1.21118e-05
1.16987e-05
1.06392e-05
1.02579e-05
9.41827e-06
9.07745e-06
8.8563e-06
8.84679e-06
9.07692e-06
9.19388e-06
9.89094e-06
9.86042e-06
1.0129e-05
9.56463e-06
9.06952e-06
7.99587e-06
7.64542e-06
7.64487e-06
7.33524e-06
7.22369e-06
6.41829e-06
5.66303e-06
5.30141e-06
5.25708e-06
5.10249e-06
6.56065e-06
6.03911e-06
1.38496e-05
1.14185e-05
2.44792e-05
5.18505e-05
0.000172219
0.00016438
0.000148667
0.000139878
0.000120433
0.000101329
7.66373e-05
5.38416e-05
3.80013e-05
3.02469e-05
2.87596e-05
2.98777e-05
3.63127e-05
4.18301e-05
5.57896e-05
6.61253e-05
9.70982e-05
0.000129916
0.000127489
0.00011269
9.65008e-05
8.57531e-05
7.62096e-05
7.33897e-05
7.37182e-05
7.82108e-05
7.8511e-05
7.44498e-05
7.41517e-05
7.97302e-05
8.14188e-05
7.94007e-05
6.39888e-05
4.27965e-05
2.73088e-05
1.78247e-05
1.22487e-05
9.48187e-06
8.20656e-06
7.61364e-06
7.38525e-06
7.25279e-06
7.30249e-06
7.72621e-06
8.75971e-06
1.07914e-05
1.45186e-05
2.17702e-05
4.37799e-05
6.32485e-05
6.50639e-05
6.15837e-05
5.9054e-05
5.57703e-05
4.6569e-05
4.09085e-05
4.1689e-05
4.72767e-05
4.7908e-05
4.52615e-05
4.04609e-05
3.81151e-05
3.71382e-05
3.66533e-05
3.65673e-05
3.68234e-05
3.76651e-05
3.83509e-05
3.89859e-05
3.98868e-05
4.24986e-05
4.59868e-05
4.68533e-05
4.5557e-05
4.09267e-05
3.56845e-05
2.92298e-05
2.41883e-05
2.07981e-05
1.92917e-05
1.836e-05
1.76968e-05
1.7563e-05
1.7631e-05
1.7936e-05
1.8602e-05
1.99027e-05
2.29458e-05
2.88303e-05
3.22288e-05
3.35264e-05
3.36752e-05
3.34009e-05
3.24125e-05
3.11979e-05
2.9537e-05
2.84486e-05
2.8137e-05
2.77488e-05
2.75093e-05
2.8385e-05
2.99065e-05
3.1191e-05
3.23256e-05
3.35412e-05
3.47965e-05
4.02368e-05
4.62991e-05
4.7481e-05
4.65025e-05
4.25492e-05
3.95436e-05
3.8222e-05
3.84081e-05
4.28672e-05
4.75778e-05
4.85439e-05
4.50871e-05
3.87565e-05
3.5565e-05
3.6134e-05
4.12847e-05
4.5964e-05
4.89127e-05
4.91772e-05
4.52083e-05
3.65584e-05
3.13529e-05
2.84228e-05
2.64161e-05
2.52379e-05
2.48503e-05
2.50123e-05
2.57526e-05
2.64209e-05
2.7e-05
2.87006e-05
3.2134e-05
3.43506e-05
3.54915e-05
3.60585e-05
3.64347e-05
3.73586e-05
4.03495e-05
4.56364e-05
4.94069e-05
5.10968e-05
5.26787e-05
5.30683e-05
5.27624e-05
5.30393e-05
5.29687e-05
5.28828e-05
5.23249e-05
4.91366e-05
4.7379e-05
4.76474e-05
5.11548e-05
5.25617e-05
5.25489e-05
4.73251e-05
3.89615e-05
3.11083e-05
2.55788e-05
2.07327e-05
1.752e-05
1.44007e-05
1.2945e-05
1.16041e-05
1.1433e-05
1.10341e-05
1.10134e-05
1.07426e-05
1.07649e-05
1.03995e-05
1.01868e-05
9.53809e-06
9.37256e-06
9.16772e-06
9.22797e-06
9.53858e-06
9.70587e-06
1.04663e-05
1.02821e-05
1.00292e-05
8.75656e-06
8.08943e-06
7.68601e-06
7.59091e-06
7.4448e-06
6.64431e-06
5.61715e-06
6.60258e-06
5.82834e-06
9.78969e-06
7.52989e-06
1.69508e-05
1.34112e-05
2.17186e-05
4.22379e-05
0.000136602
0.00013159
0.000117299
0.000108435
8.79345e-05
6.5949e-05
4.67631e-05
3.26705e-05
2.51203e-05
2.11049e-05
2.11586e-05
2.1525e-05
2.66163e-05
2.94174e-05
3.90849e-05
4.66186e-05
6.02481e-05
0.000114484
0.00012427
0.000120956
0.000112411
0.000102594
9.08548e-05
8.62887e-05
8.53583e-05
8.27461e-05
7.62722e-05
7.37342e-05
7.83049e-05
8.27135e-05
8.21352e-05
7.25588e-05
4.96482e-05
3.16138e-05
2.03352e-05
1.37558e-05
1.00585e-05
8.48361e-06
7.70591e-06
7.10916e-06
6.83595e-06
6.87929e-06
7.15195e-06
7.86574e-06
9.44477e-06
1.22475e-05
1.69852e-05
2.53662e-05
4.99708e-05
6.5562e-05
6.60758e-05
6.14064e-05
5.85573e-05
5.33394e-05
4.48277e-05
4.04614e-05
4.07935e-05
4.68687e-05
4.8548e-05
4.61397e-05
4.08053e-05
3.82024e-05
3.76006e-05
3.66266e-05
3.61684e-05
3.6268e-05
3.68214e-05
3.76644e-05
3.84655e-05
3.94298e-05
4.21546e-05
4.57234e-05
4.66543e-05
4.5413e-05
4.0881e-05
3.60188e-05
2.96343e-05
2.44986e-05
2.08179e-05
1.92725e-05
1.85253e-05
1.78859e-05
1.75466e-05
1.74846e-05
1.76142e-05
1.81225e-05
1.91578e-05
2.11479e-05
2.62734e-05
3.08392e-05
3.29629e-05
3.35223e-05
3.34746e-05
3.30993e-05
3.21599e-05
3.01739e-05
2.87702e-05
2.80905e-05
2.78852e-05
2.8294e-05
3.05755e-05
3.16614e-05
3.21338e-05
3.27593e-05
3.38719e-05
3.49246e-05
3.92937e-05
4.60239e-05
4.74642e-05
4.6729e-05
4.28881e-05
3.95345e-05
3.78364e-05
3.7743e-05
4.10506e-05
4.74839e-05
4.93613e-05
4.71314e-05
4.01465e-05
3.58539e-05
3.64127e-05
4.05239e-05
4.56982e-05
4.94005e-05
5.02329e-05
4.68306e-05
3.78105e-05
3.18613e-05
2.86917e-05
2.64024e-05
2.51683e-05
2.471e-05
2.47329e-05
2.52943e-05
2.60753e-05
2.66671e-05
2.80854e-05
3.13583e-05
3.3659e-05
3.49977e-05
3.5665e-05
3.60607e-05
3.6823e-05
3.93322e-05
4.29529e-05
4.72514e-05
5.05078e-05
5.13014e-05
5.25412e-05
5.29155e-05
5.26881e-05
5.30182e-05
5.25513e-05
5.16596e-05
4.76798e-05
4.7123e-05
4.79069e-05
5.16519e-05
5.2624e-05
5.19741e-05
4.58751e-05
3.73542e-05
3.02069e-05
2.45366e-05
2.04379e-05
1.68253e-05
1.44539e-05
1.22029e-05
1.11398e-05
9.93991e-06
9.86291e-06
9.77618e-06
1.01949e-05
1.02437e-05
1.07533e-05
1.0673e-05
1.09592e-05
1.06859e-05
1.05103e-05
9.87315e-06
9.64055e-06
9.63856e-06
9.84729e-06
1.05264e-05
1.0598e-05
1.09474e-05
9.94964e-06
8.45332e-06
8.34981e-06
7.85896e-06
8.33052e-06
7.13573e-06
8.71138e-06
7.06742e-06
1.24165e-05
9.9708e-06
2.79527e-05
1.82771e-05
2.05466e-05
3.45114e-05
9.70854e-05
9.28422e-05
7.99269e-05
6.92173e-05
5.30895e-05
3.89765e-05
2.73425e-05
1.9694e-05
1.73714e-05
1.58065e-05
1.62022e-05
1.61021e-05
1.84432e-05
2.0024e-05
2.45541e-05
3.09903e-05
3.93335e-05
7.38169e-05
0.0001125
0.000116701
0.000114069
0.000109373
0.000102771
9.69088e-05
9.09465e-05
8.29532e-05
7.78824e-05
7.93398e-05
8.44332e-05
8.43892e-05
7.96144e-05
5.60993e-05
3.58084e-05
2.26597e-05
1.51866e-05
1.09201e-05
8.70671e-06
7.83388e-06
6.98977e-06
6.46635e-06
6.48801e-06
6.72029e-06
7.22434e-06
8.35364e-06
1.07657e-05
1.45085e-05
2.0277e-05
2.99284e-05
5.58587e-05
6.74998e-05
6.70271e-05
6.1033e-05
5.70127e-05
4.9751e-05
4.46293e-05
4.06312e-05
4.05092e-05
4.60863e-05
4.92672e-05
4.72636e-05
4.14603e-05
3.83644e-05
3.76323e-05
3.67149e-05
3.58428e-05
3.58699e-05
3.63178e-05
3.70826e-05
3.78439e-05
3.88025e-05
4.17197e-05
4.53961e-05
4.64473e-05
4.52444e-05
4.07896e-05
3.63098e-05
3.00504e-05
2.49542e-05
2.09699e-05
1.92822e-05
1.86094e-05
1.80184e-05
1.76031e-05
1.72765e-05
1.73139e-05
1.76283e-05
1.84182e-05
1.98541e-05
2.37079e-05
2.90263e-05
3.19968e-05
3.32285e-05
3.3385e-05
3.32801e-05
3.29581e-05
3.19668e-05
2.95423e-05
2.86292e-05
2.87264e-05
2.97472e-05
3.17323e-05
3.23859e-05
3.26428e-05
3.32122e-05
3.43635e-05
3.52459e-05
3.83432e-05
4.54619e-05
4.73484e-05
4.68402e-05
4.33739e-05
3.96689e-05
3.7514e-05
3.72401e-05
3.92284e-05
4.70312e-05
5.01198e-05
4.90809e-05
4.18143e-05
3.63884e-05
3.6684e-05
3.92227e-05
4.53814e-05
5.01228e-05
5.14653e-05
4.84683e-05
3.94804e-05
3.2191e-05
2.91542e-05
2.67874e-05
2.53356e-05
2.48473e-05
2.48448e-05
2.53109e-05
2.58578e-05
2.64348e-05
2.76772e-05
3.10708e-05
3.341e-05
3.48019e-05
3.54814e-05
3.57503e-05
3.63096e-05
3.79799e-05
4.18313e-05
4.50847e-05
4.88753e-05
5.08747e-05
5.13286e-05
5.25007e-05
5.24429e-05
5.23829e-05
5.18783e-05
4.94981e-05
4.68322e-05
4.66609e-05
4.85434e-05
5.19724e-05
5.25115e-05
5.14143e-05
4.40389e-05
3.59379e-05
2.93485e-05
2.40976e-05
2.03906e-05
1.70895e-05
1.5015e-05
1.3024e-05
1.17515e-05
1.04029e-05
9.70844e-06
9.15656e-06
8.99284e-06
9.05286e-06
9.2383e-06
9.88087e-06
1.01878e-05
1.12211e-05
1.1272e-05
1.18056e-05
1.1364e-05
1.10021e-05
1.03149e-05
1.03324e-05
1.05567e-05
1.09707e-05
1.22095e-05
1.09425e-05
1.09557e-05
9.68605e-06
1.09317e-05
8.91309e-06
1.21581e-05
9.82709e-06
2.64733e-05
1.72901e-05
3.02607e-05
2.71442e-05
2.35358e-05
2.99912e-05
5.7207e-05
5.44241e-05
4.64736e-05
3.93464e-05
2.95405e-05
2.10701e-05
1.5348e-05
1.28544e-05
1.29377e-05
1.25338e-05
1.21626e-05
1.12058e-05
1.2259e-05
1.32347e-05
1.49367e-05
1.93888e-05
2.46147e-05
4.12672e-05
7.8226e-05
0.000101218
0.000106943
0.000106566
0.000104368
0.000100674
9.33834e-05
8.66895e-05
8.58022e-05
8.6842e-05
8.68734e-05
8.36245e-05
6.26906e-05
3.99231e-05
2.5033e-05
1.65427e-05
1.18969e-05
9.23353e-06
7.90549e-06
6.99743e-06
6.30734e-06
6.17153e-06
6.34136e-06
6.73713e-06
7.60518e-06
9.34733e-06
1.32303e-05
1.78516e-05
2.43818e-05
3.54364e-05
6.13352e-05
6.93668e-05
6.77641e-05
6.01127e-05
5.4596e-05