/*--------------------------------*- C++ -*----------------------------------*\
| =========                 |                                                 |
| \\      /  F ield         | OpenFOAM: The Open Source CFD Toolbox           |
|  \\    /   O peration     | Version:  2.4.0                                 |
|   \\  /    A nd           | Web:      www.OpenFOAM.org                      |
|    \\/     M anipulation  |                                                 |
\*---------------------------------------------------------------------------*/
FoamFile
{
    version     2.0;
    format      ascii;
    class       volVectorField;
    location    "0.102";
    object      U_0;
}
// * * * * * * * * * * * * * * * * * * * * * * * * * * * * * * * * * * * * * //

dimensions      [0 1 -1 0 0 0 0];

internalField   nonuniform List<vector> 
17600
(
(5.32874 0.309362 0)
(2.986 0.0607249 0)
(2.19595 -0.00159639 0)
(1.84757 -0.00356907 0)
(1.70794 -0.00137527 0)
(1.60875 1.12324e-05 0)
(1.5427 -0.00012582 0)
(1.47498 -1.68243e-05 0)
(1.44189 -0.000101524 0)
(1.39556 -0.000143045 0)
(1.38799 -0.000370123 0)
(1.3421 0.000716425 0)
(1.36169 -0.00184002 0)
(1.30128 0.00210215 0)
(1.3406 -0.00215373 0)
(1.31927 -0.00148475 0)
(1.3518 0.000473873 0)
(1.37484 -0.00174641 0)
(1.48629 -0.00495694 0)
(1.71055 -0.06599 0)
(8.60085 0.87169 0)
(6.94984 0.383824 0)
(5.8121 0.121822 0)
(5.05483 0.0507723 0)
(4.65678 0.0281292 0)
(4.37076 0.0208885 0)
(4.1926 0.0159212 0)
(4.00309 0.0125214 0)
(3.91235 0.00962866 0)
(3.77769 0.00690956 0)
(3.75104 0.00536565 0)
(3.62187 0.00655015 0)
(3.6683 -0.000375922 0)
(3.48846 0.0093626 0)
(3.61532 -0.00612524 0)
(3.48503 -0.00091799 0)
(3.55446 -0.00417878 0)
(3.60354 -0.0125263 0)
(3.77794 -0.0372422 0)
(4.10949 -0.160051 0)
(9.86016 1.02156 0)
(9.34392 0.577976 0)
(8.47829 0.241554 0)
(7.63788 0.129805 0)
(7.10136 0.0816785 0)
(6.68224 0.0580897 0)
(6.42808 0.0441907 0)
(6.14312 0.0346032 0)
(6.0112 0.0272421 0)
(5.80108 0.019976 0)
(5.76209 0.0167617 0)
(5.55496 0.0158398 0)
(5.63637 0.00583768 0)
(5.33428 0.0194756 0)
(5.55787 -0.00911054 0)
(5.30572 0.00593817 0)
(5.4064 -0.0107682 0)
(5.43995 -0.0244631 0)
(5.70313 -0.0662622 0)
(5.89907 -0.217168 0)
(10.1648 0.946832 0)
(10.5651 0.669516 0)
(10.2666 0.330953 0)
(9.63543 0.209567 0)
(9.13743 0.147686 0)
(8.66826 0.107421 0)
(8.39343 0.0824094 0)
(8.0438 0.0647063 0)
(7.89456 0.0516251 0)
(7.62311 0.0381444 0)
(7.58621 0.0336199 0)
(7.30092 0.0275655 0)
(7.43742 0.0172044 0)
(7.00272 0.03163 0)
(7.33366 -0.0111403 0)
(6.96629 0.0184789 0)
(7.09129 -0.0162476 0)
(7.07451 -0.041802 0)
(7.44125 -0.0937823 0)
(7.55231 -0.232762 0)
(10.081 0.804351 0)
(10.913 0.670973 0)
(11.1444 0.357722 0)
(10.8803 0.255338 0)
(10.6095 0.203418 0)
(10.2112 0.157069 0)
(9.99859 0.123873 0)
(9.63752 0.0986352 0)
(9.51128 0.0801618 0)
(9.1997 0.05925 0)
(9.19454 0.0548438 0)
(8.83038 0.0402685 0)
(9.05089 0.0327145 0)
(8.48454 0.0459254 0)
(8.9158 -0.0138879 0)
(8.47518 0.0366901 0)
(8.59403 -0.018816 0)
(8.54548 -0.0611414 0)
(8.95001 -0.124812 0)
(9.05415 -0.236629 0)
(9.99847 0.689666 0)
(10.8414 0.637862 0)
(11.3298 0.335339 0)
(11.3437 0.250522 0)
(11.3733 0.224429 0)
(11.1524 0.18855 0)
(11.1003 0.156096 0)
(10.8073 0.128619 0)
(10.7648 0.107883 0)
(10.449 0.0796892 0)
(10.5189 0.078537 0)
(10.0846 0.0521413 0)
(10.4159 0.0498259 0)
(9.75061 0.0633139 0)
(10.2452 -0.020259 0)
(9.80656 0.0594072 0)
(9.87652 -0.0174449 0)
(9.84267 -0.0823688 0)
(10.2161 -0.148176 0)
(10.3127 -0.28623 0)
(9.99165 0.599961 0)
(10.6972 0.604166 0)
(11.2639 0.306353 0)
(11.3386 0.219368 0)
(11.5516 0.210634 0)
(11.4726 0.191322 0)
(11.6046 0.165942 0)
(11.4309 0.142198 0)
(11.5362 0.125077 0)
(11.2621 0.0918216 0)
(11.4614 0.0994053 0)
(10.9919 0.0604689 0)
(11.4443 0.0639767 0)
(10.7538 0.0837837 0)
(11.2623 -0.0316243 0)
(10.8957 0.0828231 0)
(10.9073 -0.0120621 0)
(10.9181 -0.104491 0)
(11.2374 -0.163244 0)
(11.2498 -0.306043 0)
(10.0246 0.521911 0)
(10.5649 0.566797 0)
(11.1756 0.288399 0)
(11.2332 0.191729 0)
(11.4942 0.186709 0)
(11.4533 0.179167 0)
(11.6822 0.159448 0)
(11.5729 0.137874 0)
(11.8198 0.127357 0)
(11.5903 0.089017 0)
(11.9302 0.110267 0)
(11.4884 0.0604666 0)
(12.0317 0.0681664 0)
(11.4188 0.103271 0)
(11.9085 -0.0498901 0)
(11.6516 0.104416 0)
(11.6324 -0.00968254 0)
(11.7293 -0.122217 0)
(11.942 -0.191437 0)
(11.9087 -0.214066 0)
(10.0713 0.452295 0)
(10.4687 0.522987 0)
(11.0768 0.272051 0)
(11.1614 0.170929 0)
(11.4111 0.162923 0)
(11.3543 0.163546 0)
(11.6201 0.147109 0)
(11.5058 0.126929 0)
(11.8202 0.11977 0)
(11.6415 0.0786513 0)
(11.9806 0.109115 0)
(11.6827 0.0546249 0)
(12.157 0.0594251 0)
(11.7195 0.117438 0)
(12.1674 -0.0770896 0)
(12.0075 0.12119 0)
(11.9882 -0.0133419 0)
(12.2064 -0.148983 0)
(12.2938 -0.192004 0)
(12.2969 -0.227672 0)
(10.0851 0.388984 0)
(10.4332 0.478739 0)
(10.9625 0.25808 0)
(11.1123 0.147657 0)
(11.3634 0.145149 0)
(11.2753 0.147048 0)
(11.5438 0.135375 0)
(11.4144 0.113495 0)
(11.7025 0.106538 0)
(11.6899 0.0688075 0)
(11.7783 0.102395 0)
(11.843 0.0436777 0)
(11.9807 0.0538488 0)
(11.8063 0.115893 0)
(12.1937 -0.0962604 0)
(12.012 0.122389 0)
(12.0802 -0.0159891 0)
(12.3381 -0.185213 0)
(12.3475 -0.191319 0)
(12.4199 -0.296683 0)
(10.0466 0.328243 0)
(10.4284 0.437159 0)
(10.8835 0.246096 0)
(11.0515 0.12505 0)
(11.3339 0.127058 0)
(11.234 0.135221 0)
(11.5283 0.12264 0)
(11.3065 0.108837 0)
(11.6068 0.0796213 0)
(11.7087 0.0711065 0)
(11.565 0.0856043 0)
(11.9685 0.0357274 0)
(11.7491 0.0545316 0)
(11.8601 0.101085 0)
(12.1476 -0.107031 0)
(11.8532 0.125334 0)
(12.1173 -0.0326575 0)
(12.2883 -0.215746 0)
(12.2316 -0.20159 0)
(12.3322 -0.333934 0)
(10.0065 0.275431 0)
(10.4238 0.389473 0)
(10.8172 0.238911 0)
(10.9912 0.101488 0)
(11.2955 0.109681 0)
(11.2193 0.117231 0)
(11.5203 0.118282 0)
(11.2184 0.104958 0)
(11.6218 0.0514554 0)
(11.553 0.0760037 0)
(11.5626 0.0661669 0)
(11.9249 0.0268443 0)
(11.6355 0.0599106 0)
(11.9206 0.0737307 0)
(12.03 -0.0967196 0)
(11.7419 0.112931 0)
(12.1365 -0.0500356 0)
(12.2072 -0.232376 0)
(12.0235 -0.210048 0)
(12.1567 -0.366055 0)
(9.99534 0.227536 0)
(10.394 0.343705 0)
(10.7367 0.227745 0)
(10.9756 0.080928 0)
(11.2294 0.0896834 0)
(11.2251 0.0992165 0)
(11.4334 0.115234 0)
(11.2548 0.0940536 0)
(11.6005 0.035392 0)
(11.3831 0.0775369 0)
(11.6808 0.0397027 0)
(11.7497 0.0282948 0)
(11.623 0.0539541 0)
(11.9639 0.0533779 0)
(11.8268 -0.0803521 0)
(11.7643 0.091465 0)
(12.1684 -0.0703447 0)
(12.0334 -0.229592 0)
(11.9236 -0.226201 0)
(12.04 -0.369965 0)
(9.99352 0.184975 0)
(10.3383 0.30013 0)
(10.6873 0.206923 0)
(10.9908 0.0633586 0)
(11.1405 0.0747945 0)
(11.2308 0.0847365 0)
(11.319 0.105312 0)
(11.3519 0.081574 0)
(11.4608 0.0322641 0)
(11.4062 0.0658749 0)
(11.6866 0.0218763 0)
(11.5795 0.0351954 0)
(11.6908 0.0338557 0)
(11.8896 0.0483439 0)
(11.6818 -0.0670894 0)
(11.8913 0.0497231 0)
(12.1041 -0.0680458 0)
(11.8814 -0.228793 0)
(11.9658 -0.248348 0)
(12.0069 -0.399182 0)
(9.98521 0.149459 0)
(10.3052 0.257228 0)
(10.6824 0.172705 0)
(10.9588 0.0556099 0)
(11.0721 0.0609988 0)
(11.2299 0.0706262 0)
(11.247 0.0901247 0)
(11.3997 0.0723191 0)
(11.3236 0.0270611 0)
(11.525 0.0477166 0)
(11.5541 0.0214438 0)
(11.5334 0.0279235 0)
(11.7535 0.0177387 0)
(11.7247 0.0514767 0)
(11.7214 -0.0718137 0)
(11.9503 0.0153582 0)
(11.9326 -0.0546033 0)
(11.898 -0.244476 0)
(11.979 -0.266473 0)
(11.9834 -0.420843 0)
(9.98746 0.11376 0)
(10.2977 0.211247 0)
(10.6578 0.143634 0)
(10.8862 0.0487809 0)
(11.0707 0.0471838 0)
(11.2079 0.0551935 0)
(11.2278 0.0739355 0)
(11.3587 0.0656499 0)
(11.3122 0.0156877 0)
(11.5389 0.0348257 0)
(11.4373 0.0254332 0)
(11.6019 0.00821266 0)
(11.7067 0.0142276 0)
(11.6204 0.0472963 0)
(11.8345 -0.0863571 0)
(11.8573 0.00371395 0)
(11.8203 -0.0543958 0)
(11.9752 -0.25739 0)
(11.9305 -0.290408 0)
(11.8787 -0.405937 0)
(10.0053 0.0855389 0)
(10.2628 0.164631 0)
(10.6163 0.116484 0)
(10.8588 0.0381701 0)
(11.1008 0.0297711 0)
(11.1519 0.0435005 0)
(11.2282 0.059897 0)
(11.2859 0.0542482 0)
(11.3824 0.00386773 0)
(11.4328 0.0306918 0)
(11.4496 0.0180382 0)
(11.6527 -0.00573935 0)
(11.5666 0.0172968 0)
(11.6621 0.0321632 0)
(11.8557 -0.0948234 0)
(11.7092 0.000795196 0)
(11.8482 -0.0643643 0)
(11.9814 -0.272866 0)
(11.8634 -0.29593 0)
(11.7124 -0.387352 0)
(10.004 0.0525144 0)
(10.2299 0.126354 0)
(10.611 0.0827579 0)
(10.866 0.0245285 0)
(11.0815 0.0214195 0)
(11.1088 0.0326515 0)
(11.2157 0.0455582 0)
(11.2808 0.0385283 0)
(11.3971 -0.00403294 0)
(11.3413 0.0264828 0)
(11.5309 0.00207432 0)
(11.5896 -0.0066378 0)
(11.478 0.0176432 0)
(11.7682 0.00432039 0)
(11.7659 -0.0825049 0)
(11.6507 -0.0134384 0)
(11.9142 -0.0852962 0)
(11.9209 -0.270412 0)
(11.7824 -0.29358 0)
(11.6786 -0.416564 0)
(9.98539 0.0316582 0)
(10.2492 0.0757758 0)
(10.6006 0.0526265 0)
(10.8577 0.0116209 0)
(11.0357 0.0155009 0)
(11.1212 0.0179343 0)
(11.1964 0.0288399 0)
(11.3235 0.0199459 0)
(11.3215 -0.00239185 0)
(11.351 0.0112111 0)
(11.5625 -0.0071529 0)
(11.4803 -0.00148662 0)
(11.5417 -0.000460015 0)
(11.7792 -0.0101853 0)
(11.6754 -0.0745482 0)
(11.6984 -0.0318459 0)
(11.8976 -0.103105 0)
(11.8703 -0.264345 0)
(11.7342 -0.295912 0)
(11.7715 -0.470387 0)
(9.9857 0.00034237 0)
(10.2682 0.0351974 0)
(10.5601 0.0207526 0)
(10.8558 0.0026085 0)
(11.0318 0.00438897 0)
(11.1357 0.005524 0)
(11.1942 0.00861249 0)
(11.3195 0.0128652 0)
(11.2571 -0.00873585 0)
(11.4215 -0.00214578 0)
(11.5298 -0.0124065 0)
(11.4393 -0.00115357 0)
(11.6426 -0.0220207 0)
(11.6935 -0.0110938 0)
(11.6605 -0.07388 0)
(11.7388 -0.0523145 0)
(11.8514 -0.107055 0)
(11.8475 -0.270457 0)
(11.7516 -0.29782 0)
(11.7771 -0.492114 0)
(10.0067 -0.0236236 0)
(10.2437 -0.00912236 0)
(10.5462 -0.00730346 0)
(10.8774 -0.016814 0)
(11.0416 -0.000761495 0)
(11.1171 -0.0103514 0)
(11.2177 -0.00398996 0)
(11.2659 0.000191218 0)
(11.2861 -0.0139511 0)
(11.4669 -0.023183 0)
(11.4652 -0.0046931 0)
(11.481 -0.0167799 0)
(11.6536 -0.0267575 0)
(11.634 -0.0218312 0)
(11.687 -0.0679476 0)
(11.7426 -0.0773231 0)
(11.8516 -0.108487 0)
(11.8111 -0.272694 0)
(11.7789 -0.302421 0)
(11.7068 -0.489436 0)
(10.0238 -0.0518753 0)
(10.2075 -0.048197 0)
(10.5791 -0.0437412 0)
(10.8928 -0.0295568 0)
(11.0232 -0.00576978 0)
(11.1239 -0.0259814 0)
(11.2377 -0.0178342 0)
(11.2309 -0.00980408 0)
(11.3593 -0.0319557 0)
(11.4478 -0.0254274 0)
(11.4165 -0.0103657 0)
(11.5492 -0.0232906 0)
(11.6168 -0.0401069 0)
(11.6342 -0.0191038 0)
(11.7104 -0.0846529 0)
(11.7572 -0.0832609 0)
(11.8279 -0.123947 0)
(11.8046 -0.261342 0)
(11.7743 -0.318633 0)
(11.6798 -0.450535 0)
(10.0159 -0.0775119 0)
(10.2073 -0.0913287 0)
(10.6252 -0.0791968 0)
(10.8873 -0.0401717 0)
(11.0109 -0.0120506 0)
(11.1708 -0.0449412 0)
(11.2195 -0.027705 0)
(11.2476 -0.0252541 0)
(11.4002 -0.0447894 0)
(11.4001 -0.0248976 0)
(11.4413 -0.0205619 0)
(11.59 -0.032319 0)
(11.5943 -0.0458207 0)
(11.6509 -0.025687 0)
(11.7299 -0.0947129 0)
(11.7566 -0.0868593 0)
(11.8013 -0.138514 0)
(11.8324 -0.253209 0)
(11.7655 -0.335778 0)
(11.6945 -0.395347 0)
(9.99282 -0.101566 0)
(10.2483 -0.140471 0)
(10.6541 -0.110629 0)
(10.8766 -0.048727 0)
(11.0361 -0.0227168 0)
(11.2104 -0.0640781 0)
(11.1782 -0.0320916 0)
(11.303 -0.0487395 0)
(11.4103 -0.047245 0)
(11.3745 -0.0329208 0)
(11.514 -0.0281832 0)
(11.5903 -0.0448939 0)
(11.5858 -0.0415246 0)
(11.6712 -0.0459439 0)
(11.7508 -0.0876791 0)
(11.7434 -0.108528 0)
(11.8272 -0.133226 0)
(11.8347 -0.268364 0)
(11.7845 -0.326082 0)
(11.6796 -0.397483 0)
(9.98515 -0.136282 0)
(10.2987 -0.18322 0)
(10.6513 -0.142074 0)
(10.8878 -0.0543122 0)
(11.0955 -0.040053 0)
(11.1939 -0.0730753 0)
(11.1819 -0.0463557 0)
(11.371 -0.0653201 0)
(11.3902 -0.0555792 0)
(11.4062 -0.0344171 0)
(11.5607 -0.0477149 0)
(11.5739 -0.0386993 0)
(11.603 -0.0552332 0)
(11.7082 -0.0515626 0)
(11.757 -0.0958031 0)
(11.7657 -0.114558 0)
(11.8443 -0.144601 0)
(11.8457 -0.270159 0)
(11.7935 -0.321679 0)
(11.6651 -0.41687 0)
(10.0018 -0.164549 0)
(10.3172 -0.23419 0)
(10.6527 -0.164497 0)
(10.9412 -0.0725277 0)
(11.132 -0.0495026 0)
(11.1649 -0.085958 0)
(11.2527 -0.0610207 0)
(11.3967 -0.085253 0)
(11.3889 -0.0544483 0)
(11.4596 -0.0492331 0)
(11.5705 -0.0531546 0)
(11.5886 -0.0428586 0)
(11.643 -0.0632121 0)
(11.7345 -0.0619419 0)
(11.777 -0.100032 0)
(11.7911 -0.120358 0)
(11.8537 -0.156376 0)
(11.8715 -0.270076 0)
(11.8023 -0.320995 0)
(11.6705 -0.429777 0)
(10.0127 -0.208362 0)
(10.3241 -0.271205 0)
(10.6933 -0.195686 0)
(11.0049 -0.0863649 0)
(11.1262 -0.0562957 0)
(11.1982 -0.102499 0)
(11.3192 -0.0773091 0)
(11.3949 -0.0956875 0)
(11.4287 -0.0622506 0)
(11.4935 -0.0582287 0)
(11.5934 -0.0604899 0)
(11.6249 -0.0495398 0)
(11.6804 -0.0681544 0)
(11.7582 -0.0756437 0)
(11.8092 -0.0960915 0)
(11.8135 -0.134951 0)
(11.8814 -0.161494 0)
(11.8927 -0.271082 0)
(11.8265 -0.326398 0)
(11.7119 -0.436929 0)
(10.0104 -0.24426 0)
(10.3527 -0.319259 0)
(10.7578 -0.221146 0)
(11.0392 -0.0979418 0)
(11.1376 -0.0702916 0)
(11.2729 -0.120105 0)
(11.3389 -0.0899256 0)
(11.4246 -0.107003 0)
(11.4734 -0.0703071 0)
(11.5288 -0.066188 0)
(11.6316 -0.0712204 0)
(11.662 -0.0527476 0)
(11.7124 -0.075455 0)
(11.797 -0.0862097 0)
(11.8445 -0.0964005 0)
(11.8513 -0.145397 0)
(11.9083 -0.166645 0)
(11.9256 -0.273198 0)
(11.8637 -0.339725 0)
(11.7517 -0.42101 0)
(10.0199 -0.292437 0)
(10.3935 -0.366505 0)
(10.8168 -0.235406 0)
(11.0585 -0.114836 0)
(11.1989 -0.0855931 0)
(11.3161 -0.138621 0)
(11.3712 -0.100643 0)
(11.4731 -0.118381 0)
(11.5154 -0.0785472 0)
(11.5701 -0.0761307 0)
(11.6717 -0.0777888 0)
(11.6975 -0.059703 0)
(11.7562 -0.0811331 0)
(11.8445 -0.0974813 0)
(11.8884 -0.0986302 0)
(11.8881 -0.150582 0)
(11.9518 -0.175287 0)
(11.9571 -0.278413 0)
(11.8968 -0.336732 0)
(11.7793 -0.421127 0)
(10.0516 -0.343244 0)
(10.4146 -0.412721 0)
(10.8789 -0.247968 0)
(11.0911 -0.132976 0)
(11.2778 -0.108317 0)
(11.3363 -0.153922 0)
(11.4412 -0.111916 0)
(11.503 -0.129934 0)
(11.5703 -0.0868139 0)
(11.6024 -0.0825458 0)
(11.7256 -0.089367 0)
(11.7389 -0.06304 0)
(11.8212 -0.0913162 0)
(11.8889 -0.10596 0)
(11.9412 -0.100283 0)
(11.9274 -0.156869 0)
(12.0009 -0.182155 0)
(11.9738 -0.278862 0)
(11.9309 -0.33113 0)
(11.7892 -0.454461 0)
(10.0764 -0.401928 0)
(10.4235 -0.458982 0)
(10.9657 -0.258143 0)
(11.1372 -0.156254 0)
(11.357 -0.129753 0)
(11.3598 -0.166322 0)
(11.5162 -0.126312 0)
(11.5262 -0.134629 0)
(11.6392 -0.0979059 0)
(11.6405 -0.0909749 0)
(11.8064 -0.0988461 0)
(11.7767 -0.0701829 0)
(11.9062 -0.0987474 0)
(11.9111 -0.115268 0)
(12.0027 -0.100105 0)
(11.9372 -0.165001 0)
(12.0312 -0.180744 0)
(11.9362 -0.282653 0)
(11.9024 -0.323224 0)
(11.6775 -0.469285 0)
(10.0678 -0.464455 0)
(10.4579 -0.503579 0)
(11.0726 -0.273606 0)
(11.1957 -0.180363 0)
(11.4245 -0.14981 0)
(11.398 -0.181643 0)
(11.5913 -0.138162 0)
(11.5696 -0.141941 0)
(11.7142 -0.109799 0)
(11.699 -0.101102 0)
(11.8653 -0.106978 0)
(11.7944 -0.0788666 0)
(11.9474 -0.103865 0)
(11.8633 -0.121496 0)
(11.9758 -0.101634 0)
(11.83 -0.164591 0)
(11.9129 -0.178613 0)
(11.7016 -0.275298 0)
(11.6449 -0.302784 0)
(11.2765 -0.466275 0)
(10.0335 -0.532034 0)
(10.5384 -0.54978 0)
(11.1852 -0.291181 0)
(11.26 -0.201975 0)
(11.4916 -0.172669 0)
(11.4656 -0.193538 0)
(11.6553 -0.153003 0)
(11.6091 -0.147574 0)
(11.7317 -0.121481 0)
(11.6793 -0.107788 0)
(11.7736 -0.112282 0)
(11.6608 -0.081587 0)
(11.7601 -0.106994 0)
(11.5809 -0.116217 0)
(11.6574 -0.10196 0)
(11.4315 -0.150786 0)
(11.4452 -0.174304 0)
(11.1444 -0.24361 0)
(11.0182 -0.29129 0)
(10.5602 -0.402998 0)
(9.99843 -0.608619 0)
(10.6622 -0.589572 0)
(11.2925 -0.310153 0)
(11.3348 -0.227398 0)
(11.5519 -0.197603 0)
(11.4778 -0.203757 0)
(11.5857 -0.161785 0)
(11.4574 -0.148559 0)
(11.4764 -0.122814 0)
(11.3322 -0.106138 0)
(11.3183 -0.104149 0)
(11.1438 -0.0782581 0)
(11.1604 -0.0960684 0)
(10.9077 -0.104224 0)
(10.9403 -0.0901582 0)
(10.6543 -0.133638 0)
(10.6141 -0.152126 0)
(10.2546 -0.214335 0)
(10.0834 -0.254648 0)
(9.5658 -0.332394 0)
(9.99729 -0.695511 0)
(10.8148 -0.626922 0)
(11.361 -0.339082 0)
(11.3213 -0.256289 0)
(11.3877 -0.21475 0)
(11.151 -0.198143 0)
(11.0869 -0.1534 0)
(10.826 -0.132976 0)
(10.72 -0.107664 0)
(10.4938 -0.0896261 0)
(10.3996 -0.0857716 0)
(10.191 -0.0648067 0)
(10.1513 -0.0777621 0)
(9.87231 -0.0853082 0)
(9.87325 -0.074286 0)
(9.56516 -0.109789 0)
(9.48988 -0.126025 0)
(9.10595 -0.179012 0)
(8.90362 -0.20627 0)
(8.34785 -0.281487 0)
(10.0749 -0.808239 0)
(10.898 -0.664003 0)
(11.1696 -0.360338 0)
(10.8538 -0.259349 0)
(10.6311 -0.19658 0)
(10.2033 -0.163746 0)
(9.98852 -0.122336 0)
(9.64945 -0.101673 0)
(9.47579 -0.0807655 0)
(9.22476 -0.0659739 0)
(9.09732 -0.0630087 0)
(8.89133 -0.0479496 0)
(8.82305 -0.0571761 0)
(8.55398 -0.0647559 0)
(8.53297 -0.056625 0)
(8.23232 -0.0836537 0)
(8.1333 -0.0987561 0)
(7.75438 -0.13736 0)
(7.52439 -0.164569 0)
(6.98525 -0.205911 0)
(10.1581 -0.949246 0)
(10.5567 -0.665179 0)
(10.2859 -0.332367 0)
(9.61095 -0.212388 0)
(9.15982 -0.143256 0)
(8.65675 -0.111592 0)
(8.38721 -0.0818672 0)
(8.04954 -0.0666715 0)
(7.86632 -0.052463 0)
(7.63422 -0.0423586 0)
(7.50684 -0.0411596 0)
(7.32622 -0.0313565 0)
(7.25008 -0.0373898 0)
(7.01443 -0.0448128 0)
(6.97824 -0.03869 0)
(6.70763 -0.0582107 0)
(6.59668 -0.0698759 0)
(6.24138 -0.0979007 0)
(6.00761 -0.117242 0)
(5.48451 -0.145097 0)
(9.85455 -1.02284 0)
(9.33932 -0.575575 0)
(8.49235 -0.24216 0)
(7.61908 -0.131787 0)
(7.11957 -0.0790199 0)
(6.67061 -0.0602696 0)
(6.42496 -0.0443465 0)
(6.14348 -0.0356452 0)
(5.98918 -0.0279534 0)
(5.80298 -0.022225 0)
(5.69801 -0.0225801 0)
(5.55543 -0.0169976 0)
(5.48806 -0.0203949 0)
(5.29971 -0.0268527 0)
(5.25497 -0.0222846 0)
(5.03343 -0.0347547 0)
(4.9215 -0.0424962 0)
(4.61135 -0.0605288 0)
(4.38911 -0.0716556 0)
(3.91314 -0.0939676 0)
(8.59712 -0.872218 0)
(6.94693 -0.382808 0)
(5.82142 -0.12187 0)
(5.04312 -0.0520168 0)
(4.66778 -0.0267984 0)
(4.36254 -0.0216772 0)
(4.19086 -0.0163612 0)
(4.00001 -0.0128674 0)
(3.89657 -0.0100575 0)
(3.77436 -0.00775133 0)
(3.70361 -0.00887531 0)
(3.60822 -0.00635646 0)
(3.56075 -0.00775067 0)
(3.43048 -0.0122264 0)
(3.38617 -0.00926499 0)
(3.23084 -0.0154219 0)
(3.13279 -0.0193907 0)
(2.89575 -0.0285273 0)
(2.70508 -0.0330391 0)
(2.33647 -0.0481244 0)
(5.32735 -0.309498 0)
(2.98428 -0.0605818 0)
(2.2003 0.00167025 0)
(1.84333 0.00318065 0)
(1.71067 0.00172286 0)
(1.60624 -7.357e-05 0)
(1.5417 -0.000110215 0)
(1.47149 8.05173e-05 0)
(1.43432 -1.26818e-05 0)
(1.39157 0.000223836 0)
(1.36465 -0.000595019 0)
(1.32751 -1.76569e-05 0)
(1.30956 -7.79475e-05 0)
(1.25518 -0.00156352 0)
(1.22719 -0.000372115 0)
(1.16175 -0.00150593 0)
(1.10699 -0.00195293 0)
(0.991213 -0.00369071 0)
(0.881835 -0.00403854 0)
(0.705696 -0.00483371 0)
(2.69303 -0.074994 0)
(2.91497 0.285748 0)
(3.56722 0.265213 0)
(4.96243 -0.117661 0)
(5.92433 -1.13036 0)
(5.98408 -2.17431 0)
(7.25028 -2.8796 0)
(6.74317 -3.72323 0)
(7.50667 -4.22742 0)
(6.40425 -4.28396 0)
(6.43084 -3.95356 0)
(5.31613 -3.5097 0)
(4.39211 -2.75138 0)
(3.83946 -2.20623 0)
(1.63739 -1.30466 0)
(1.36484 0.292837 0)
(2.53015 1.36357 0)
(3.72674 4.24706 0)
(3.15669 5.90124 0)
(6.09596 4.15933 0)
(5.03693 3.71336 0)
(6.18641 3.90118 0)
(6.94981 3.82825 0)
(7.46345 3.55923 0)
(8.25028 2.84282 0)
(8.85388 2.02677 0)
(8.75896 1.50239 0)
(8.69036 0.874811 0)
(9.23565 -0.385017 0)
(9.20057 -1.30103 0)
(9.66355 -2.07137 0)
(10.6983 -3.31081 0)
(11.4871 -4.26393 0)
(12.2711 -4.97832 0)
(12.9863 -5.80088 0)
(13.2169 -6.28022 0)
(13.0831 -6.50789 0)
(12.7561 -6.69532 0)
(12.3079 -6.5689 0)
(11.7359 -6.43359 0)
(11.2948 -6.40854 0)
(10.6698 -6.12751 0)
(10.3101 -5.98897 0)
(9.8699 -5.89151 0)
(9.35201 -5.72307 0)
(9.05696 -5.54031 0)
(8.36848 -5.26656 0)
(8.42759 -5.67987 0)
(7.97705 -5.87821 0)
(7.29279 -5.45515 0)
(6.93257 -5.05378 0)
(6.37396 -4.89852 0)
(6.40111 -5.80128 0)
(6.47519 -7.00647 0)
(6.6008 -7.53847 0)
(6.5722 -7.76637 0)
(6.72533 -7.74675 0)
(6.5876 -7.82963 0)
(6.87526 -7.41782 0)
(6.95209 -6.51225 0)
(7.21984 -5.65243 0)
(7.7289 -4.30346 0)
(7.91262 -2.64844 0)
(8.06238 -1.18493 0)
(8.2912 0.414339 0)
(8.51648 2.23533 0)
(8.67288 3.9689 0)
(8.76929 5.61143 0)
(8.78133 6.66213 0)
(8.69589 7.24257 0)
(8.62388 7.81398 0)
(8.26677 7.85892 0)
(7.87955 7.37535 0)
(7.77642 7.05569 0)
(7.37176 6.81239 0)
(7.14011 6.04435 0)
(6.8277 5.74075 0)
(7.0191 5.70142 0)
(6.58377 5.28801 0)
(6.64471 4.83014 0)
(6.70015 4.78709 0)
(6.65938 4.77405 0)
(6.75328 4.75683 0)
(6.84744 4.84939 0)
(7.08362 4.94566 0)
(7.10943 4.92825 0)
(7.26578 4.80437 0)
(7.32678 4.71953 0)
(7.63397 4.74177 0)
(7.83046 4.8301 0)
(8.32072 4.88156 0)
(8.5876 4.86062 0)
(9.07452 4.65581 0)
(9.32475 4.26101 0)
(9.61878 3.69208 0)
(9.6664 2.98915 0)
(9.51259 2.16671 0)
(9.08438 1.16931 0)
(8.95167 0.269585 0)
(8.7711 -0.0238781 0)
(8.78452 -0.145119 0)
(8.27164 -0.698333 0)
(7.79879 -1.61631 0)
(7.42335 -2.34464 0)
(7.35109 -2.54943 0)
(7.02249 -2.70225 0)
(6.50581 -3.23407 0)
(5.73599 -3.82777 0)
(5.52854 -3.94666 0)
(5.2815 -3.54751 0)
(5.70514 -3.2687 0)
(5.15755 -3.13744 0)
(5.49463 -3.62063 0)
(4.32166 -4.01602 0)
(4.71632 -5.3107 0)
(3.61207 -5.51447 0)
(4.58235 -6.00835 0)
(3.97947 -5.6279 0)
(4.62156 -6.00335 0)
(4.25644 -5.76493 0)
(4.7828 -6.50584 0)
(4.84306 -6.35174 0)
(5.33933 -6.61231 0)
(5.86722 -7.0055 0)
(6.09989 -7.4093 0)
(6.64525 -7.01575 0)
(7.05107 -6.56909 0)
(7.32823 -5.91891 0)
(7.70466 -4.44343 0)
(8.18522 -2.89579 0)
(8.61082 -1.6733 0)
(8.92448 0.0038576 0)
(9.17452 1.77309 0)
(9.39661 3.19028 0)
(9.81802 4.71648 0)
(10.1075 6.23271 0)
(10.0524 7.12081 0)
(9.91552 7.43701 0)
(9.94484 7.74094 0)
(10.1698 8.26891 0)
(10.4098 8.6302 0)
(10.4096 8.52431 0)
(10.1634 8.0711 0)
(10.2215 7.61843 0)
(10.5201 7.28674 0)
(10.6667 7.01022 0)
(11.0747 6.50606 0)
(11.4758 5.5388 0)
(11.4784 4.3357 0)
(11.6601 3.24535 0)
(11.6155 1.91449 0)
(11.6025 0.422058 0)
(11.2345 -0.901435 0)
(10.7428 -1.84294 0)
(10.1759 -2.64458 0)
(9.90538 -3.41339 0)
(9.27136 -4.07506 0)
(9.03055 -4.26355 0)
(8.12053 -3.99044 0)
(7.86916 -3.25711 0)
(7.06704 -2.4958 0)
(6.91618 -1.75754 0)
(6.39261 -1.28494 0)
(6.37999 -0.918548 0)
(6.04378 -0.703182 0)
(6.07449 -0.484475 0)
(5.82586 -0.345912 0)
(5.87978 -0.158092 0)
(5.67114 -0.0387651 0)
(5.79258 0.14193 0)
(5.55124 0.210488 0)
(5.7858 0.414511 0)
(5.42856 0.409786 0)
(5.89308 0.614457 0)
(5.35159 0.551873 0)
(5.98871 0.789889 0)
(5.33982 0.724949 0)
(6.03161 0.908528 0)
(5.44655 0.922144 0)
(5.99427 0.987429 0)
(5.65217 1.19474 0)
(5.83541 1.10694 0)
(5.91179 1.4285 0)
(5.69945 1.30948 0)
(6.08709 1.62805 0)
(5.71856 1.66236 0)
(6.06796 1.79498 0)
(5.93025 2.06855 0)
(5.91715 2.08746 0)
(6.13477 2.41735 0)
(5.80905 2.59994 0)
(6.15136 2.75294 0)
(5.88803 3.23826 0)
(5.72357 3.38858 0)
(5.87708 3.80635 0)
(5.75931 4.43583 0)
(5.63355 4.77203 0)
(5.53955 5.80289 0)
(6.04057 6.84163 0)
(3.34759 9.93439 0)
(4.78178 0.0278718 0)
(4.92775 0.247128 0)
(5.08509 -0.090772 0)
(5.98937 -0.548045 0)
(7.56725 -1.32202 0)
(7.39356 -2.35138 0)
(8.63934 -3.01378 0)
(8.00277 -3.67559 0)
(8.51103 -4.17402 0)
(7.58321 -4.07166 0)
(7.30754 -3.76639 0)
(6.66613 -3.13001 0)
(5.11177 -2.42066 0)
(5.33809 -1.73709 0)
(2.88234 -0.799827 0)
(2.14591 0.166785 0)
(3.95469 0.863013 0)
(4.06617 3.80813 0)
(4.35159 5.60922 0)
(6.51596 3.9717 0)
(5.79433 3.37 0)
(6.66194 3.4804 0)
(7.57558 3.5052 0)
(8.33267 3.12962 0)
(8.94059 2.54139 0)
(9.30629 1.9503 0)
(8.93551 1.52274 0)
(8.91668 0.847295 0)
(9.68101 -0.489463 0)
(9.98475 -1.52661 0)
(10.6535 -2.39883 0)
(11.6035 -3.61476 0)
(12.4103 -4.57021 0)
(13.1066 -5.26941 0)
(13.4612 -5.94373 0)
(13.4171 -6.26517 0)
(13.196 -6.41155 0)
(12.7818 -6.53082 0)
(12.2852 -6.34672 0)
(11.73 -6.22153 0)
(11.2873 -6.20772 0)
(10.7019 -5.92688 0)
(10.4138 -5.79693 0)
(9.89654 -5.69446 0)
(9.46226 -5.55202 0)
(9.08036 -5.34346 0)
(8.46416 -5.13217 0)
(8.47056 -5.58024 0)
(7.8537 -5.67688 0)
(7.29252 -5.23567 0)
(6.78163 -4.80404 0)
(6.19683 -4.80692 0)
(6.38716 -5.8978 0)
(6.34726 -7.0144 0)
(6.33768 -7.54757 0)
(6.30239 -7.82415 0)
(6.40268 -7.74765 0)
(6.20558 -7.8137 0)
(6.37659 -7.48866 0)
(6.49109 -6.6057 0)
(6.74849 -5.74189 0)
(7.16015 -4.42032 0)
(7.29043 -2.79199 0)
(7.51788 -1.24925 0)
(7.80123 0.365878 0)
(7.97058 2.17723 0)
(8.06623 3.92251 0)
(8.198 5.56799 0)
(8.24818 6.62618 0)
(8.19653 7.24986 0)
(8.16752 7.87977 0)
(7.86301 7.96374 0)
(7.55113 7.47775 0)
(7.5251 7.14636 0)
(7.12372 6.93323 0)
(6.94446 6.14563 0)
(6.61434 5.8011 0)
(6.92228 5.73646 0)
(6.50699 5.3202 0)
(6.52259 4.83947 0)
(6.6495 4.77057 0)
(6.57188 4.76198 0)
(6.68648 4.71421 0)
(6.78349 4.77071 0)
(7.02335 4.8724 0)
(7.12641 4.87939 0)
(7.33137 4.75776 0)
(7.37135 4.65795 0)
(7.70121 4.64551 0)
(7.86013 4.68661 0)
(8.34002 4.72228 0)
(8.58574 4.70966 0)
(9.00369 4.52865 0)
(9.30026 4.1352 0)
(9.57693 3.61783 0)
(9.6759 3.02045 0)
(9.60967 2.26091 0)
(9.23002 1.29547 0)
(9.0584 0.326095 0)
(8.85224 0.00352303 0)
(8.93499 -0.0548597 0)
(8.52464 -0.50403 0)
(8.14731 -1.44771 0)
(7.75588 -2.24691 0)
(7.69824 -2.48714 0)
(7.40548 -2.50471 0)
(6.89832 -2.98724 0)
(6.14281 -3.60139 0)
(5.73875 -3.84899 0)
(5.53702 -3.5581 0)
(5.832 -3.22277 0)
(5.39836 -3.1002 0)
(5.65906 -3.42964 0)
(4.64359 -3.9101 0)
(4.93885 -5.10276 0)
(3.66527 -5.48729 0)
(4.67127 -6.06504 0)
(3.93459 -5.63466 0)
(4.76127 -6.05685 0)
(4.33446 -5.80291 0)
(4.74115 -6.5894 0)
(4.71674 -6.47347 0)
(5.19061 -6.85438 0)
(5.68727 -7.12159 0)
(5.74608 -7.56624 0)
(6.30151 -7.2165 0)
(6.64665 -6.69067 0)
(6.908 -6.02281 0)
(7.23404 -4.64042 0)
(7.77518 -3.12046 0)
(8.24492 -1.78655 0)
(8.54676 -0.115026 0)
(8.70908 1.66953 0)
(8.96152 3.04967 0)
(9.35988 4.58096 0)
(9.7236 6.13229 0)
(9.73915 7.11291 0)
(9.70563 7.48431 0)
(9.71287 7.73234 0)
(9.99908 8.15805 0)
(10.2342 8.57553 0)
(10.3984 8.59409 0)
(10.3861 8.15425 0)
(10.1423 7.55686 0)
(10.3652 7.14904 0)
(10.8821 6.90009 0)
(11.0311 6.3631 0)
(11.4109 5.41722 0)
(11.7332 4.31694 0)
(11.5904 3.20662 0)
(11.8415 1.93204 0)
(11.6234 0.496308 0)
(11.4124 -0.720218 0)
(10.7527 -1.64689 0)
(10.4485 -2.45725 0)
(9.90652 -3.27252 0)
(9.66594 -3.86343 0)
(8.95237 -4.06751 0)
(8.42272 -3.70966 0)
(7.81404 -3.05932 0)
(7.17294 -2.25871 0)
(6.94405 -1.63636 0)
(6.38489 -1.1406 0)
(6.46928 -0.872954 0)
(5.98434 -0.607657 0)
(6.18145 -0.469575 0)
(5.7518 -0.268747 0)
(5.97378 -0.170725 0)
(5.63025 0.0314705 0)
(5.82661 0.106939 0)
(5.58192 0.292441 0)
(5.71469 0.336219 0)
(5.62167 0.485031 0)
(5.6545 0.521892 0)
(5.72364 0.664108 0)
(5.59781 0.659192 0)
(5.88886 0.806328 0)
(5.52109 0.798631 0)
(6.03817 1.00002 0)
(5.53162 0.952142 0)
(6.12903 1.1411 0)
(5.67462 1.15658 0)
(6.07231 1.29325 0)
(5.91214 1.48252 0)
(5.87988 1.45664 0)
(6.16996 1.77145 0)
(5.78801 1.74163 0)
(6.24146 2.01233 0)
(5.97016 2.18725 0)
(6.08246 2.24931 0)
(6.28006 2.61339 0)
(5.94573 2.75005 0)
(6.42862 2.99811 0)
(6.27391 3.46183 0)
(6.04091 3.76634 0)
(6.25028 4.29599 0)
(6.01741 4.9333 0)
(5.49455 6.14027 0)
(7.28711 6.54812 0)
(4.77147 10.7422 0)
(6.23093 -0.201071 0)
(6.78065 0.0724601 0)
(7.16151 -0.250827 0)
(7.41222 -0.858327 0)
(9.06551 -1.58212 0)
(8.72458 -2.48162 0)
(9.70949 -3.16013 0)
(9.07459 -3.62173 0)
(9.38131 -4.09394 0)
(8.55388 -3.83939 0)
(8.09942 -3.62598 0)
(7.72472 -2.78197 0)
(5.93428 -2.08279 0)
(6.56061 -1.43978 0)
(4.29763 -0.254653 0)
(3.54722 0.228877 0)
(4.89564 0.350842 0)
(4.19881 3.4371 0)
(5.40766 5.40517 0)
(7.10004 3.95469 0)
(6.34093 3.10504 0)
(6.95539 3.1575 0)
(8.13217 3.17786 0)
(8.92731 2.80078 0)
(9.14706 2.46867 0)
(9.39589 2.01899 0)
(9.18838 1.50625 0)
(9.4887 0.687018 0)
(10.3913 -0.682742 0)
(10.9309 -1.804 0)
(11.6678 -2.7409 0)
(12.5147 -3.91039 0)
(13.2471 -4.82257 0)
(13.6982 -5.44926 0)
(13.7366 -5.98299 0)
(13.5339 -6.19104 0)
(13.2357 -6.27332 0)
(12.762 -6.32196 0)
(12.2219 -6.11222 0)
(11.7105 -6.03646 0)
(11.327 -6.02329 0)
(10.7557 -5.74937 0)
(10.4692 -5.62986 0)
(9.93527 -5.51202 0)
(9.57872 -5.36366 0)
(9.07119 -5.14212 0)
(8.5752 -4.99728 0)
(8.47442 -5.43395 0)
(7.77976 -5.41849 0)
(7.2444 -4.98283 0)
(6.55204 -4.53822 0)
(6.09204 -4.75473 0)
(6.33009 -5.95417 0)
(6.11076 -6.93405 0)
(5.97974 -7.50434 0)
(5.97871 -7.84213 0)
(6.0338 -7.69945 0)
(5.81081 -7.77147 0)
(5.83435 -7.57023 0)
(6.03397 -6.7143 0)
(6.2606 -5.8111 0)
(6.55617 -4.50046 0)
(6.61457 -2.93187 0)
(6.92687 -1.34075 0)
(7.25363 0.338599 0)
(7.41482 2.09396 0)
(7.44462 3.84809 0)
(7.58621 5.55149 0)
(7.70022 6.63525 0)
(7.71827 7.26712 0)
(7.73405 7.9253 0)
(7.4721 8.04038 0)
(7.21054 7.55758 0)
(7.26569 7.22338 0)
(6.87086 7.0384 0)
(6.74202 6.23285 0)
(6.38051 5.83955 0)
(6.80295 5.75619 0)
(6.45524 5.35485 0)
(6.38001 4.83925 0)
(6.57636 4.74545 0)
(6.49481 4.74842 0)
(6.62056 4.67262 0)
(6.71832 4.69559 0)
(6.98952 4.7826 0)
(7.12411 4.80871 0)
(7.39687 4.70352 0)
(7.4463 4.58335 0)
(7.71981 4.55591 0)
(7.92495 4.56291 0)
(8.34108 4.56241 0)
(8.59435 4.58849 0)
(8.97001 4.40062 0)
(9.25849 4.01152 0)
(9.55244 3.54286 0)
(9.65663 3.00985 0)
(9.71443 2.33517 0)
(9.38116 1.41067 0)
(9.1263 0.410191 0)
(8.86557 0.0149374 0)
(8.98315 0.0112465 0)
(8.72025 -0.366045 0)
(8.46126 -1.29241 0)
(8.06651 -2.17828 0)
(8.04751 -2.42029 0)
(7.72569 -2.34036 0)
(7.3149 -2.72165 0)
(6.46607 -3.35183 0)
(6.02788 -3.7205 0)
(5.69804 -3.53685 0)
(5.9691 -3.21151 0)
(5.60403 -3.03207 0)
(5.77497 -3.28769 0)
(5.00005 -3.7591 0)
(5.05799 -4.89201 0)
(3.91444 -5.43653 0)
(4.62052 -6.07162 0)
(3.97382 -5.70464 0)
(4.9047 -6.10365 0)
(4.32704 -5.791 0)
(4.78486 -6.65295 0)
(4.58168 -6.55976 0)
(5.07201 -7.08248 0)
(5.4315 -7.21188 0)
(5.40628 -7.699 0)
(5.90979 -7.38933 0)
(6.21746 -6.82463 0)
(6.46649 -6.1152 0)
(6.77304 -4.833 0)
(7.29314 -3.35892 0)
(7.82167 -1.9121 0)
(8.1231 -0.210322 0)
(8.25187 1.55826 0)
(8.47343 2.93389 0)
(8.91134 4.42554 0)
(9.27994 6.02459 0)
(9.3511 7.06146 0)
(9.36582 7.46571 0)
(9.45358 7.6722 0)
(9.72091 8.04323 0)
(10.0866 8.42287 0)
(10.2504 8.51084 0)
(10.3376 8.18428 0)
(10.4167 7.58729 0)
(10.351 7.018 0)
(10.6752 6.72547 0)
(11.2327 6.24978 0)
(11.36 5.29762 0)
(11.687 4.24278 0)
(11.7891 3.20836 0)
(11.7103 1.90979 0)
(11.8725 0.61054 0)
(11.2544 -0.578066 0)
(11.037 -1.42215 0)
(10.3487 -2.3201 0)
(10.2841 -3.08139 0)
(9.6227 -3.69301 0)
(9.18567 -3.79655 0)
(8.4933 -3.463 0)