/*--------------------------------*- C++ -*----------------------------------*\
| =========                 |                                                 |
| \\      /  F ield         | OpenFOAM: The Open Source CFD Toolbox           |
|  \\    /   O peration     | Version:  2.4.0                                 |
|   \\  /    A nd           | Web:      www.OpenFOAM.org                      |
|    \\/     M anipulation  |                                                 |
\*---------------------------------------------------------------------------*/
FoamFile
{
    version     2.0;
    format      ascii;
    class       volScalarField;
    location    "0.193";
    object      nuSgs;
}
// * * * * * * * * * * * * * * * * * * * * * * * * * * * * * * * * * * * * * //

dimensions      [0 2 -1 0 0 0 0];

internalField   nonuniform List<scalar> 
17600
(
0.00101319
0.000904384
0.000752971
0.000658371
0.000608149
0.000570769
0.000546274
0.000521814
0.000508901
0.000494363
0.00048399
0.000478702
0.000470379
0.000467015
0.000466974
0.000467994
0.000481837
0.00048561
0.000555353
0.000585287
0.000705811
0.000827621
0.000803788
0.000746013
0.000699697
0.000658192
0.000631297
0.000603713
0.000588189
0.000571065
0.000556873
0.000551108
0.000539015
0.000532521
0.000531279
0.00052505
0.000530695
0.00053047
0.00055821
0.000584734
0.000382565
0.000601824
0.000665011
0.000661009
0.000645985
0.000616993
0.000597924
0.000575578
0.000561437
0.000547908
0.000532866
0.000527843
0.000516985
0.000508327
0.000506438
0.000499069
0.000494993
0.000497042
0.000493253
0.000490203
0.000151572
0.000362751
0.000462379
0.0005055
0.000528037
0.000526404
0.000522888
0.000514138
0.000504383
0.000498539
0.00048585
0.000482264
0.000475682
0.000466616
0.000464278
0.000460197
0.000447662
0.000451771
0.000437125
0.000418974
5.3644e-05
0.000170242
0.000268462
0.000323963
0.000373063
0.000395055
0.00041314
0.000421364
0.000421098
0.000423828
0.000420603
0.000418998
0.000417959
0.000412679
0.000409857
0.0004083
0.000396437
0.000396406
0.000384749
0.000363172
1.74286e-05
6.93385e-05
0.000128888
0.000166662
0.000218304
0.000248149
0.00027763
0.000303441
0.000310924
0.000326757
0.000332941
0.00033567
0.000343026
0.00034263
0.000342175
0.000342054
0.000337399
0.00033179
0.00032062
0.000302828
5.60759e-06
2.6536e-05
5.25189e-05
7.20362e-05
0.000104035
0.000127544
0.000150343
0.000183229
0.000193745
0.000213005
0.000229354
0.000235243
0.000249963
0.000255991
0.000259949
0.000262176
0.000262626
0.000256708
0.000243773
0.000226989
2.41133e-06
1.00049e-05
1.96158e-05
2.76818e-05
4.0703e-05
5.48087e-05
6.6049e-05
8.91562e-05
9.97661e-05
0.000111997
0.00013147
0.00013757
0.000151606
0.000162989
0.000168364
0.00017267
0.000177426
0.000172339
0.000157185
0.000139602
1.78614e-06
4.07604e-06
7.59763e-06
1.08336e-05
1.44836e-05
2.04731e-05
2.50466e-05
3.53707e-05
4.20399e-05
4.75692e-05
6.09457e-05
6.536e-05
7.48006e-05
8.50796e-05
8.80972e-05
9.34902e-05
9.78977e-05
9.45574e-05
8.39595e-05
7.42535e-05
1.61862e-06
2.2536e-06
3.70352e-06
5.20117e-06
6.24097e-06
8.23475e-06
9.50695e-06
1.31531e-05
1.52009e-05
1.75413e-05
2.36497e-05
2.54534e-05
3.12866e-05
3.56593e-05
3.70815e-05
4.14936e-05
4.34587e-05
4.1712e-05
3.60896e-05
3.28815e-05
1.60738e-06
1.90023e-06
2.84567e-06
3.22687e-06
3.65681e-06
4.54084e-06
4.94401e-06
5.8912e-06
6.19549e-06
6.63741e-06
7.98393e-06
8.75003e-06
1.16233e-05
1.26933e-05
1.45775e-05
1.61494e-05
1.61347e-05
1.56199e-05
1.33803e-05
1.24156e-05
1.60166e-06
1.82967e-06
2.39525e-06
2.47056e-06
2.60172e-06
3.1729e-06
3.76326e-06
3.82033e-06
4.18877e-06
4.06251e-06
4.24732e-06
4.55196e-06
4.98144e-06
6.32747e-06
7.32531e-06
7.27973e-06
7.37876e-06
7.43736e-06
6.61982e-06
6.24223e-06
1.55716e-06
1.8764e-06
2.23864e-06
2.22393e-06
2.26722e-06
2.81028e-06
2.97034e-06
3.2415e-06
3.33987e-06
3.24077e-06
3.63759e-06
3.54061e-06
3.53707e-06
4.17398e-06
4.37718e-06
4.52882e-06
5.54494e-06
5.54049e-06
5.16756e-06
4.98073e-06
1.54321e-06
1.77692e-06
2.26542e-06
2.26371e-06
2.26894e-06
2.35986e-06
2.44851e-06
3.12424e-06
3.13213e-06
3.24709e-06
3.3735e-06
3.20396e-06
3.27004e-06
3.32231e-06
3.38877e-06
3.78975e-06
4.58982e-06
4.35924e-06
4.4925e-06
4.54288e-06
1.54092e-06
1.73744e-06
2.21231e-06
2.24468e-06
2.23406e-06
2.20819e-06
2.28219e-06
2.66323e-06
2.7131e-06
2.88182e-06
2.81736e-06
2.71655e-06
2.86199e-06
2.83631e-06
2.87105e-06
3.31669e-06
3.32692e-06
3.45562e-06
3.67242e-06
3.89974e-06
1.53348e-06
1.81952e-06
1.96975e-06
2.15364e-06
2.19105e-06
2.20447e-06
2.36132e-06
2.41292e-06
2.60401e-06
2.63292e-06
2.62927e-06
2.71931e-06
2.70329e-06
2.69311e-06
2.77039e-06
2.82572e-06
2.87106e-06
3.30668e-06
3.33247e-06
3.58542e-06
1.51485e-06
1.74091e-06
1.86302e-06
2.15418e-06
2.20143e-06
2.21778e-06
2.21023e-06
2.2155e-06
2.44983e-06
2.45845e-06
2.4911e-06
2.56819e-06
2.56239e-06
2.61673e-06
2.73224e-06
2.69521e-06
2.94495e-06
3.00325e-06
3.059e-06
3.50705e-06
1.50664e-06
1.69211e-06
1.87952e-06
2.09311e-06
2.09398e-06
2.1126e-06
2.12936e-06
2.29012e-06
2.35941e-06
2.37109e-06
2.43377e-06
2.43656e-06
2.4516e-06
2.58554e-06
2.55633e-06
2.53534e-06
2.74147e-06
2.73485e-06
2.95815e-06
3.22291e-06
1.50752e-06
1.69935e-06
1.888e-06
1.96348e-06
2.0371e-06
2.08039e-06
2.0862e-06
2.12586e-06
2.20349e-06
2.26193e-06
2.29626e-06
2.29921e-06
2.3903e-06
2.37655e-06
2.37753e-06
2.48247e-06
2.50607e-06
2.57123e-06
2.78924e-06
2.81974e-06
1.50979e-06
1.67045e-06
1.88901e-06
1.9926e-06
2.02823e-06
2.0362e-06
2.05692e-06
2.09685e-06
2.20207e-06
2.26027e-06
2.27348e-06
2.29937e-06
2.28787e-06
2.31051e-06
2.38274e-06
2.44566e-06
2.43127e-06
2.48832e-06
2.52801e-06
2.64336e-06
1.5073e-06
1.65769e-06
1.93492e-06
1.97197e-06
1.9852e-06
2.03477e-06
2.0549e-06
2.13339e-06
2.17346e-06
2.1749e-06
2.16654e-06
2.1776e-06
2.24676e-06
2.28122e-06
2.37241e-06
2.3403e-06
2.34343e-06
2.38532e-06
2.4361e-06
2.55092e-06
1.50771e-06
1.66669e-06
1.88728e-06
1.96485e-06
2.04255e-06
2.08731e-06
2.09742e-06
2.07565e-06
2.07783e-06
2.12613e-06
2.15998e-06
2.22862e-06
2.27731e-06
2.28854e-06
2.27909e-06
2.26955e-06
2.28583e-06
2.37594e-06
2.41339e-06
2.53714e-06
1.50959e-06
1.67765e-06
1.9034e-06
2.07394e-06
2.08308e-06
2.11788e-06
2.08047e-06
2.07441e-06
2.16512e-06
2.24007e-06
2.26193e-06
2.31895e-06
2.30539e-06
2.29048e-06
2.30174e-06
2.33047e-06
2.35684e-06
2.40134e-06
2.40792e-06
2.53866e-06
1.51522e-06
1.67161e-06
2.00617e-06
2.06315e-06
2.09282e-06
2.12267e-06
2.11284e-06
2.17916e-06
2.30869e-06
2.30666e-06
2.33899e-06
2.35515e-06
2.3544e-06
2.35863e-06
2.40564e-06
2.41739e-06
2.41637e-06
2.41875e-06
2.45833e-06
2.70487e-06
1.5187e-06
1.73291e-06
1.99587e-06
2.06037e-06
2.19125e-06
2.24631e-06
2.24878e-06
2.32682e-06
2.32799e-06
2.33368e-06
2.4018e-06
2.45062e-06
2.49365e-06
2.53226e-06
2.53377e-06
2.50345e-06
2.48837e-06
2.51605e-06
2.65232e-06
3.0478e-06
1.52814e-06
1.73414e-06
1.98686e-06
2.2781e-06
2.36573e-06
2.38254e-06
2.37017e-06
2.36362e-06
2.36138e-06
2.47469e-06
2.64957e-06
2.68143e-06
2.71821e-06
2.71649e-06
2.67457e-06
2.64843e-06
2.66881e-06
2.80927e-06
3.21462e-06
4.25374e-06
1.53951e-06
1.74765e-06
2.16017e-06
2.48302e-06
2.49285e-06
2.48696e-06
2.42284e-06
2.40795e-06
2.51626e-06
2.84143e-06
2.9498e-06
2.98249e-06
2.99819e-06
2.94911e-06
2.91716e-06
2.95662e-06
3.12513e-06
3.69002e-06
4.96983e-06
7.857e-06
1.5467e-06
1.79443e-06
2.41065e-06
2.62062e-06
2.59003e-06
2.52588e-06
2.46707e-06
2.54229e-06
3.02093e-06
3.35581e-06
3.41581e-06
3.44809e-06
3.40621e-06
3.36268e-06
3.47112e-06
3.95474e-06
4.90741e-06
6.93848e-06
1.04837e-05
1.74416e-05
1.56553e-06
1.86074e-06
2.69561e-06
2.70267e-06
2.63892e-06
2.62831e-06
2.70334e-06
3.22235e-06
4.13525e-06
4.32578e-06
4.4291e-06
4.61485e-06
4.89924e-06
5.24706e-06
6.24733e-06
8.80158e-06
1.15328e-05
1.67775e-05
2.45316e-05
4.07893e-05
1.59076e-06
2.02396e-06
2.99439e-06
2.85985e-06
2.89328e-06
3.38669e-06
4.09107e-06
5.53386e-06
7.0279e-06
7.56629e-06
8.29837e-06
1.00321e-05
1.20637e-05
1.36503e-05
1.68788e-05
2.39759e-05
2.95444e-05
4.11185e-05
5.40385e-05
8.35362e-05
1.64229e-06
2.48423e-06
3.70465e-06
3.85895e-06
4.69138e-06
7.61364e-06
9.37747e-06
1.27213e-05
1.70365e-05
1.9154e-05
2.19353e-05
2.83849e-05
3.37145e-05
3.7753e-05
4.475e-05
5.90528e-05
6.79075e-05
8.72942e-05
0.000104948
0.000146958
1.74754e-06
3.98923e-06
7.02487e-06
8.82402e-06
1.26165e-05
2.14135e-05
2.58015e-05
3.39527e-05
4.55131e-05
5.09057e-05
5.75733e-05
7.16784e-05
8.07736e-05
8.8001e-05
0.000100182
0.000120996
0.000132003
0.000156508
0.0001764
0.000221943
2.33126e-06
9.69803e-06
1.85702e-05
2.5311e-05
3.70462e-05
5.83986e-05
6.76524e-05
8.52615e-05
0.000106141
0.000114511
0.000127575
0.000146492
0.000157966
0.000167255
0.000184348
0.000203667
0.000214509
0.000237738
0.000255157
0.000290425
5.58522e-06
2.63706e-05
5.14955e-05
6.89946e-05
9.98772e-05
0.000134327
0.000149663
0.000178492
0.000202622
0.000211851
0.000228937
0.000244195
0.000254584
0.000262245
0.000276606
0.000288418
0.00029632
0.000312559
0.000325084
0.000346663
1.74443e-05
6.99566e-05
0.000128077
0.000162607
0.000218028
0.000252831
0.000275412
0.000301928
0.000318554
0.000324162
0.000335623
0.000341335
0.000346633
0.000349095
0.000356147
0.00036011
0.000365197
0.000372513
0.000380815
0.000389474
5.37125e-05
0.000172699
0.000266444
0.000322404
0.000373836
0.000397131
0.000412243
0.000421298
0.000424734
0.000422933
0.000423331
0.000421109
0.000420593
0.000417888
0.000418739
0.000417391
0.00041867
0.000418815
0.000421021
0.000420208
0.000151719
0.00036342
0.000460913
0.000505589
0.000528599
0.000526871
0.000523317
0.000513916
0.000506865
0.000495681
0.00049022
0.000480217
0.000477012
0.000469058
0.000466543
0.000459592
0.000457671
0.00045052
0.000445926
0.000435665
0.000382765
0.000602036
0.000664211
0.000661263
0.000646367
0.000616584
0.000599203
0.000574938
0.000561849
0.00054565
0.000535815
0.000522049
0.000516842
0.00050485
0.000499291
0.000486681
0.00048073
0.000464433
0.000453195
0.000432732
0.000705648
0.00082786
0.000803151
0.000747084
0.000699344
0.000656852
0.000633096
0.000602436
0.000586861
0.000568688
0.000557207
0.00054147
0.000534688
0.000519803
0.000511188
0.000492805
0.000482122
0.000455731
0.000434804
0.000400092
0.00101296
0.000904736
0.0007522
0.000659372
0.000607988
0.000568882
0.000547441
0.000520492
0.000506158
0.000490464
0.0004812
0.000466351
0.000458386
0.000443315
0.000432457
0.00040934
0.000393125
0.00035868
0.000326799
0.000279169
0.000270031
0.000217456
0.000213216
0.00020554
0.000188157
0.000161936
0.000135154
0.000103172
7.79738e-05
5.64642e-05
4.06282e-05
3.5549e-05
3.43421e-05
4.41912e-05
7.23339e-05
8.66929e-05
9.58043e-05
9.95865e-05
9.08685e-05
7.45966e-05
5.72778e-05
5.14702e-05
4.96906e-05
4.98803e-05
5.02653e-05
4.98166e-05
4.74948e-05
4.48367e-05
4.45762e-05
4.43959e-05
4.36659e-05
4.36196e-05
4.40668e-05
5.29226e-05
6.09824e-05
6.29756e-05
6.26979e-05
5.67021e-05
4.04708e-05
2.69341e-05
2.11583e-05
2.12598e-05
2.59535e-05
3.88598e-05
5.29662e-05
7.05132e-05
8.90951e-05
9.68971e-05
9.66828e-05
9.3864e-05
8.64205e-05
7.97306e-05
7.46687e-05
6.94885e-05
6.39273e-05
6.01577e-05
5.83728e-05
5.61421e-05
5.46478e-05
5.37601e-05
5.2026e-05
5.0734e-05
5.00968e-05
4.86279e-05
4.6518e-05
4.49326e-05
4.39047e-05
4.37905e-05
4.5002e-05
4.58775e-05
4.58535e-05
4.54152e-05
4.18927e-05
3.58069e-05
3.14857e-05
2.7107e-05
2.27687e-05
1.98061e-05
1.87525e-05
1.84844e-05
1.88656e-05
2.08174e-05
2.18537e-05
2.20083e-05
2.20206e-05
2.22644e-05
2.31507e-05
2.53776e-05
3.07387e-05
4.32868e-05
5.20381e-05
5.55442e-05
5.67927e-05
5.68164e-05
5.58251e-05
5.30619e-05
5.17387e-05
5.00913e-05
4.70291e-05
4.5095e-05
4.39927e-05
4.26152e-05
4.18601e-05
4.08966e-05
3.97309e-05
3.96803e-05
3.9993e-05
4.05677e-05
4.34076e-05
4.55978e-05
4.74136e-05
5.22643e-05
6.31521e-05
6.66172e-05
6.52131e-05
5.40769e-05
4.02033e-05
3.33219e-05
3.13922e-05
3.09141e-05
3.02722e-05
2.85381e-05
2.71521e-05
2.54092e-05
2.37163e-05
2.33829e-05
2.36388e-05
2.40718e-05
2.48676e-05
2.58308e-05
2.61711e-05
2.64631e-05
2.73734e-05
2.92865e-05
3.59448e-05
4.02209e-05
4.24929e-05
4.37285e-05
4.42929e-05
4.88757e-05
5.48762e-05
5.56362e-05
5.05169e-05
4.01626e-05
3.45695e-05
3.08295e-05
2.92629e-05
2.96129e-05
3.05761e-05
3.10243e-05
3.15256e-05
3.21051e-05
3.35727e-05
3.4191e-05
3.32382e-05
2.92244e-05
2.71882e-05
2.69122e-05
2.80238e-05
3.04955e-05
3.23124e-05
3.37309e-05
3.42764e-05
3.65164e-05
3.68233e-05
3.74811e-05
3.86531e-05
4.15096e-05
4.73096e-05
5.15315e-05
5.30241e-05
5.34661e-05
5.3491e-05
5.22554e-05
4.43083e-05
3.5618e-05
2.96181e-05
2.47794e-05
2.13212e-05
1.94806e-05
1.89127e-05
1.87118e-05
1.86927e-05
1.87214e-05
2.20196e-05
2.78581e-05
3.17708e-05
3.30731e-05
3.30196e-05
3.25725e-05
3.18369e-05
3.20062e-05
3.254e-05
3.35009e-05
3.57347e-05
3.93584e-05
4.30196e-05
4.97538e-05
7.49243e-05
0.000177686
0.000292084
0.000257867
0.000233685
0.000209332
0.00018234
0.000149648
0.000117709
8.61179e-05
6.18803e-05
4.34316e-05
2.99008e-05
2.88786e-05
2.88938e-05
3.08254e-05
5.89824e-05
7.72437e-05
9.35169e-05
9.90985e-05
9.40936e-05
7.89537e-05
6.02417e-05
5.35467e-05
5.05894e-05
5.07329e-05
5.08604e-05
5.03852e-05
4.67931e-05
4.40637e-05
4.40643e-05
4.41099e-05
4.45343e-05
4.45199e-05
4.55709e-05
5.56098e-05
6.20541e-05
6.33265e-05
6.24435e-05
5.24984e-05
3.63327e-05
2.44201e-05
2.09591e-05
2.28132e-05
3.18075e-05
4.78824e-05
6.50959e-05
8.55803e-05
9.84679e-05
9.98636e-05
9.74964e-05
9.06546e-05
8.13278e-05
7.5025e-05
6.98554e-05
6.48446e-05
6.01996e-05
5.77548e-05
5.70219e-05
5.53786e-05
5.37561e-05
5.30689e-05
5.17444e-05
5.03851e-05
4.96438e-05
4.8246e-05
4.6112e-05
4.42746e-05
4.31241e-05
4.29581e-05
4.40242e-05
4.53655e-05
4.57475e-05
4.55938e-05
4.29688e-05
3.69549e-05
3.26605e-05
2.82865e-05
2.37072e-05
2.04066e-05
1.91395e-05
1.87393e-05
1.89252e-05
2.04375e-05
2.14962e-05
2.16689e-05
2.17111e-05
2.19151e-05
2.25792e-05
2.42025e-05
2.78299e-05
3.72725e-05
4.80115e-05
5.31713e-05
5.52765e-05
5.57728e-05
5.53342e-05
5.31711e-05
5.1648e-05
5.01217e-05
4.74318e-05
4.51792e-05
4.38775e-05
4.26104e-05
4.18604e-05
4.09772e-05
4.01199e-05
4.01498e-05
4.05582e-05
4.13053e-05
4.43139e-05
4.61892e-05
4.82052e-05
5.45233e-05
6.52243e-05
6.79708e-05
6.55904e-05
5.17094e-05
3.83187e-05
3.26587e-05
3.13625e-05
3.10121e-05
3.02346e-05
2.78282e-05
2.62014e-05
2.44974e-05
2.29917e-05
2.27759e-05
2.29847e-05
2.34082e-05
2.43294e-05
2.52786e-05
2.56292e-05
2.62317e-05
2.72388e-05
2.93417e-05
3.60169e-05
4.00023e-05
4.23602e-05
4.35568e-05
4.40759e-05
4.87196e-05
5.43524e-05
5.50154e-05
5.00225e-05
3.95355e-05
3.35216e-05
3.06737e-05
2.92681e-05
3.01039e-05
3.07792e-05
3.11004e-05
3.20277e-05
3.23009e-05
3.30846e-05
3.33665e-05
3.25879e-05
2.91389e-05
2.72941e-05
2.71029e-05
2.80913e-05
3.04738e-05
3.22137e-05
3.37096e-05
3.49082e-05
3.70553e-05
3.72577e-05
3.8039e-05
3.96569e-05
4.43289e-05
4.94024e-05
5.27671e-05
5.3554e-05
5.36313e-05
5.37088e-05
5.27875e-05
4.54851e-05
3.63929e-05
2.98658e-05
2.48653e-05
2.13945e-05
1.95705e-05
1.91135e-05
1.92429e-05
1.91243e-05
1.91636e-05
2.67087e-05
3.28414e-05
3.50466e-05
3.57931e-05
3.54391e-05
3.47851e-05
3.3664e-05
3.34763e-05
3.38039e-05
3.41211e-05
3.53485e-05
3.8368e-05
4.31921e-05
4.87539e-05
7.45947e-05
0.000154389
0.000249768
0.000230237
0.000206688
0.000179356
0.000152823
0.000121958
9.09076e-05
6.36056e-05
4.39419e-05
3.24842e-05
2.43164e-05
2.36687e-05
2.37269e-05
2.46558e-05
4.04427e-05
7.2326e-05
8.94259e-05
9.63223e-05
9.47598e-05
8.55707e-05
6.43661e-05
5.56334e-05
5.10664e-05
5.07869e-05
5.07516e-05
4.99603e-05
4.55115e-05
4.30657e-05
4.35419e-05
4.47191e-05
4.49676e-05
4.47663e-05
4.69363e-05
5.7384e-05
6.28101e-05
6.36939e-05
6.15459e-05
4.74182e-05
3.14342e-05
2.24316e-05
2.1594e-05
2.63508e-05
4.04392e-05
5.88153e-05
7.96716e-05
9.76518e-05
0.000102312
0.000100717
9.5184e-05
8.39303e-05
7.57743e-05
7.02138e-05
6.56649e-05
6.14075e-05
5.77042e-05
5.61027e-05
5.55977e-05
5.41777e-05
5.24151e-05
5.19151e-05
5.12885e-05
4.99853e-05
4.91755e-05
4.80004e-05
4.58443e-05
4.36968e-05
4.24021e-05
4.22202e-05
4.32253e-05
4.48445e-05
4.5527e-05
4.55871e-05
4.38656e-05
3.81297e-05
3.38128e-05
2.93707e-05
2.46e-05
2.10504e-05
1.95523e-05
1.89861e-05
1.90101e-05
2.00942e-05
2.1363e-05
2.15493e-05
2.15552e-05
2.16723e-05
2.2111e-05
2.32236e-05
2.57593e-05
3.19115e-05
4.33206e-05
5.01574e-05
5.32942e-05
5.41572e-05
5.40955e-05
5.29038e-05
5.13166e-05
4.98698e-05
4.75198e-05
4.51547e-05
4.37908e-05
4.25765e-05
4.17365e-05
4.10029e-05
4.04744e-05
4.05941e-05
4.10842e-05
4.20617e-05
4.50289e-05
4.67176e-05
4.90446e-05
5.69532e-05
6.73757e-05
6.93614e-05
6.56988e-05
4.95741e-05
3.7029e-05
3.23291e-05
3.15868e-05
3.13137e-05
3.01738e-05
2.67781e-05
2.5093e-05
2.35982e-05
2.22767e-05
2.2175e-05
2.23762e-05
2.27794e-05
2.37425e-05
2.46715e-05
2.51699e-05
2.61893e-05
2.71893e-05
2.94685e-05
3.61133e-05
3.97937e-05
4.21722e-05
4.3393e-05
4.39217e-05
4.8668e-05
5.39189e-05
5.44042e-05
4.94829e-05
3.89531e-05
3.26359e-05
3.02576e-05
2.90951e-05
3.01768e-05
3.07935e-05
3.1203e-05
3.21066e-05
3.20333e-05
3.22956e-05
3.25528e-05
3.18913e-05
2.89779e-05
2.76731e-05
2.77173e-05
2.88197e-05
3.06496e-05
3.23214e-05
3.41295e-05
3.62253e-05
3.74137e-05
3.77455e-05
3.88802e-05
4.11815e-05
4.70464e-05
5.12314e-05
5.3733e-05
5.40293e-05
5.39856e-05
5.39859e-05
5.31472e-05
4.64104e-05
3.72015e-05
3.02861e-05
2.49815e-05
2.14683e-05
1.98189e-05
1.94125e-05
1.95925e-05
1.99236e-05
2.09772e-05
3.0996e-05
3.66754e-05
3.76194e-05
3.78921e-05
3.72173e-05
3.60541e-05
3.50511e-05
3.4857e-05
3.50012e-05
3.57651e-05
3.60397e-05
3.75076e-05
4.32643e-05
4.74271e-05
7.26497e-05
0.000131099
0.000206733
0.000191303
0.000166849
0.000143381
0.000122195
9.29707e-05
6.46692e-05
4.53912e-05
3.23306e-05
2.46996e-05
2.04997e-05
2.07747e-05
2.0576e-05
2.05032e-05
2.60024e-05
6.14522e-05
8.89596e-05
9.7301e-05
9.87432e-05
9.24234e-05
7.1701e-05
5.94537e-05
5.21975e-05
4.9775e-05
4.95529e-05
4.80529e-05
4.37132e-05
4.23307e-05
4.39392e-05
4.5091e-05
4.50535e-05
4.45063e-05
4.83408e-05
5.93278e-05
6.38449e-05
6.40294e-05
5.89063e-05
4.1262e-05
2.71541e-05
2.16931e-05
2.25959e-05
3.22187e-05
5.10561e-05
7.13998e-05
9.25833e-05
0.000103072
0.000103496
9.97314e-05
8.84434e-05
7.76432e-05
7.11275e-05
6.67782e-05
6.27026e-05
5.85954e-05
5.53944e-05
5.4305e-05
5.37097e-05
5.17415e-05
4.99504e-05
4.97548e-05
4.9861e-05
4.90786e-05
4.83328e-05
4.75335e-05
4.55359e-05
4.3203e-05
4.17116e-05
4.15281e-05
4.24763e-05
4.43197e-05
4.53165e-05
4.55634e-05
4.44204e-05
3.91804e-05
3.49104e-05
3.03074e-05
2.53391e-05
2.1654e-05
1.99681e-05
1.9177e-05
1.90759e-05
1.96476e-05
2.12374e-05
2.15592e-05
2.14932e-05
2.15069e-05
2.17243e-05
2.24733e-05
2.43441e-05
2.84931e-05
3.73119e-05
4.59236e-05
5.06535e-05
5.21162e-05
5.21061e-05
5.17285e-05
5.04689e-05
4.92335e-05
4.72651e-05
4.51862e-05
4.39526e-05
4.2592e-05
4.16255e-05
4.1027e-05
4.07524e-05
4.09429e-05
4.15203e-05
4.28183e-05
4.56398e-05
4.73045e-05
4.99692e-05
5.94635e-05
6.93715e-05
7.0691e-05
6.52575e-05
4.77576e-05
3.58872e-05
3.22059e-05
3.20542e-05
3.1785e-05
2.98824e-05
2.57488e-05
2.39636e-05
2.27981e-05
2.16379e-05
2.1559e-05
2.17668e-05
2.21802e-05
2.31611e-05
2.40998e-05
2.48737e-05
2.61946e-05
2.71575e-05
2.98668e-05
3.63045e-05
3.96659e-05
4.19867e-05
4.3305e-05
4.3836e-05
4.86572e-05
5.34434e-05
5.37778e-05
4.88134e-05
3.84924e-05
3.19319e-05
2.9487e-05
2.85254e-05
2.9777e-05
3.03426e-05
3.11681e-05
3.16591e-05
3.12059e-05
3.14257e-05
3.17746e-05
3.13206e-05
2.90036e-05
2.84083e-05
2.86813e-05
3.00286e-05
3.10004e-05
3.30904e-05
3.49877e-05
3.69081e-05
3.7882e-05
3.84744e-05
3.99538e-05
4.34094e-05
4.96892e-05
5.2665e-05
5.45789e-05
5.46377e-05
5.44984e-05
5.43479e-05
5.33687e-05
4.71616e-05
3.81956e-05
3.09899e-05
2.52325e-05
2.16816e-05
2.02231e-05
1.99641e-05
2.05202e-05
2.2219e-05
2.61899e-05
3.61438e-05
4.03483e-05
4.07085e-05
4.06995e-05
4.01022e-05
3.79967e-05
3.63639e-05
3.58119e-05
3.59009e-05
3.66771e-05
3.77702e-05
3.7981e-05
4.39229e-05
4.69704e-05
6.79293e-05
0.000111745
0.000174532
0.000158422
0.000135396
0.000114854
8.96493e-05
6.1488e-05
4.26649e-05
3.14595e-05
2.37728e-05
1.69775e-05
1.69007e-05
1.74984e-05
1.80743e-05
1.83322e-05
2.03426e-05
4.45803e-05
8.40685e-05
0.000101339
0.000106272
9.84657e-05
8.01196e-05
6.75911e-05
5.55773e-05
5.01979e-05
4.90032e-05
4.55102e-05
4.22033e-05
4.20574e-05
4.43219e-05
4.48062e-05
4.40723e-05
4.3899e-05
5.0665e-05
6.13462e-05
6.4729e-05
6.41534e-05
5.37751e-05
3.62755e-05
2.40738e-05
2.13372e-05
2.53885e-05
4.15573e-05
6.25186e-05
8.44008e-05
0.00010111
0.000105388
0.00010363
9.45109e-05
8.0654e-05
7.30303e-05
6.83373e-05
6.40171e-05
5.96221e-05
5.54994e-05
5.22504e-05
5.1259e-05
5.01777e-05
4.75827e-05
4.63376e-05
4.65449e-05
4.69917e-05
4.65564e-05
4.63314e-05
4.6154e-05
4.49632e-05
4.25297e-05
4.0966e-05
4.07803e-05
4.16645e-05
4.36578e-05
4.5046e-05
4.55478e-05
4.47154e-05
3.99984e-05
3.57823e-05
3.09903e-05
2.58951e-05
2.22542e-05
2.0448e-05
1.9375e-05
1.91019e-05
1.93781e-05
2.09103e-05
2.15349e-05
2.15229e-05
2.13993e-05
2.14393e-05
2.1903e-05
2.37023e-05
2.68998e-05
3.27957e-05
4.1104e-05
4.74159e-05
4.99701e-05
5.0083e-05
4.98796e-05
4.90778e-05
4.80239e-05
4.6715e-05
4.54312e-05
4.41931e-05
4.27255e-05
4.16394e-05
4.11115e-05
4.0945e-05
4.11853e-05
4.18248e-05
4.35817e-05
4.61189e-05
4.78617e-05
5.09193e-05
6.20017e-05
7.12129e-05
7.21255e-05
6.46115e-05
4.6605e-05
3.51097e-05
3.23112e-05
3.2639e-05
3.21974e-05
2.92092e-05
2.52249e-05
2.30787e-05
2.21649e-05
2.10979e-05
2.1023e-05
2.12099e-05
2.16288e-05
2.26588e-05
2.36967e-05
2.47572e-05
2.62746e-05
2.71902e-05
3.04157e-05
3.65446e-05
3.96221e-05
4.17886e-05
4.31767e-05
4.37761e-05
4.8633e-05
5.29016e-05
5.30919e-05
4.80544e-05
3.8177e-05
3.14933e-05
2.87376e-05
2.80119e-05
2.86443e-05
2.95064e-05
3.06814e-05
3.07947e-05
3.03618e-05
3.06031e-05
3.10869e-05
3.09437e-05
2.94408e-05
2.93035e-05
2.98391e-05
3.0889e-05
3.14666e-05
3.38806e-05
3.56627e-05
3.77961e-05
3.865e-05
3.94469e-05
4.11952e-05
4.60248e-05
5.19222e-05
5.41492e-05
5.5467e-05
5.54528e-05
5.52306e-05
5.47882e-05
5.35056e-05
4.738e-05
3.88467e-05
3.16615e-05
2.56705e-05
2.22616e-05
2.11441e-05
2.10867e-05
2.19263e-05
2.56054e-05
3.34272e-05
4.07588e-05
4.32579e-05
4.30957e-05
4.28587e-05
4.26291e-05
4.16382e-05
3.9038e-05
3.75958e-05
3.71222e-05
3.73495e-05
3.93603e-05
3.92476e-05
4.62933e-05
4.7429e-05
6.29228e-05
9.64033e-05
0.000144915
0.000124372
0.000102442
7.57276e-05
5.41384e-05
3.78713e-05
2.77363e-05
2.06569e-05
1.71157e-05
1.26458e-05
1.41586e-05
1.47284e-05
1.50949e-05
1.73291e-05
1.80332e-05
2.91076e-05
6.74906e-05
9.51874e-05
0.000104567
0.000101776
9.02829e-05
7.38227e-05
5.89808e-05
5.18357e-05
4.90877e-05
4.43051e-05
4.18379e-05
4.2364e-05
4.38763e-05
4.38676e-05
4.31358e-05
4.37185e-05
5.39091e-05
6.37528e-05
6.55623e-05
6.31161e-05
4.69576e-05
2.97622e-05
2.19306e-05
2.20001e-05
3.07204e-05
5.40028e-05
7.39168e-05
9.44739e-05
0.00010562
0.000105979
0.000101306
8.58534e-05
7.62395e-05
7.04489e-05
6.51641e-05
6.03976e-05
5.58434e-05
5.16715e-05
4.86859e-05
4.76004e-05
4.63322e-05
4.43267e-05
4.33287e-05
4.35535e-05
4.3933e-05
4.34696e-05
4.35069e-05
4.3823e-05
4.35882e-05
4.18149e-05
4.02549e-05
4.01589e-05
4.10147e-05
4.31389e-05
4.48677e-05
4.55503e-05
4.48649e-05
4.07414e-05
3.66988e-05
3.17444e-05
2.66381e-05
2.29598e-05
2.09115e-05
1.95817e-05
1.91321e-05
1.9301e-05
2.07369e-05
2.1505e-05
2.15605e-05
2.14145e-05
2.1341e-05
2.15958e-05
2.30778e-05
2.69646e-05
3.1217e-05
3.7119e-05
4.36321e-05
4.72854e-05
4.82159e-05
4.81172e-05
4.77254e-05
4.70014e-05
4.64595e-05
4.58283e-05
4.45203e-05
4.29856e-05
4.17187e-05
4.11459e-05
4.09984e-05
4.12563e-05
4.20144e-05
4.42387e-05
4.65174e-05
4.84199e-05
5.20037e-05
6.46237e-05
7.31605e-05
7.34029e-05
6.36294e-05
4.5635e-05
3.45467e-05
3.24927e-05
3.30519e-05
3.23098e-05
2.83068e-05
2.47747e-05
2.25185e-05
2.16885e-05
2.07723e-05
2.05613e-05
2.0698e-05
2.10932e-05
2.21537e-05
2.34496e-05
2.47854e-05
2.64033e-05
2.72113e-05
3.10537e-05
3.67905e-05
3.95788e-05
4.16103e-05
4.30448e-05
4.37292e-05
4.8616e-05
5.23759e-05
5.24158e-05
4.73832e-05
3.80542e-05
3.12585e-05
2.83058e-05
2.76601e-05
2.78657e-05
2.86098e-05
3.01919e-05
3.00814e-05
2.95563e-05
2.98985e-05
3.057e-05
3.06418e-05
3.03e-05
3.04117e-05
3.11994e-05
3.13699e-05
3.18309e-05
3.47675e-05
3.64975e-05
3.86329e-05
3.93395e-05
4.03912e-05
4.27476e-05
4.91428e-05
5.43094e-05
5.56255e-05
5.6399e-05
5.62636e-05
5.60513e-05
5.54126e-05
5.3731e-05
4.73453e-05
3.93387e-05
3.23732e-05
2.6287e-05
2.32353e-05
2.23588e-05
2.23183e-05
2.35835e-05
2.98311e-05
3.77065e-05
4.26014e-05
4.41603e-05
4.38108e-05
4.34247e-05
4.37913e-05
4.34607e-05
4.24932e-05
4.01112e-05
3.90624e-05
3.81854e-05
4.07329e-05
4.02735e-05
4.96615e-05
4.86477e-05
5.87641e-05
8.38767e-05
0.000105147
8.17635e-05
6.11817e-05
4.40023e-05
3.06622e-05
2.25048e-05
1.79621e-05
1.33823e-05
1.26374e-05
1.01131e-05
1.24312e-05
1.39346e-05
1.36792e-05
1.68054e-05
1.72001e-05
2.22431e-05
4.16977e-05
7.24617e-05
9.61535e-05
0.000101748
0.000100408
8.54346e-05
6.49607e-05
5.58204e-05
4.99198e-05
4.43236e-05
4.21264e-05
4.26009e-05
4.32094e-05
4.31457e-05
4.28651e-05
4.5105e-05
5.85549e-05
6.60577e-05
6.63686e-05
5.90868e-05
3.95815e-05
2.54012e-05
2.1318e-05
2.37108e-05
3.98548e-05
6.61997e-05
8.42155e-05
0.000102007
0.000107567
0.00010591
9.62633e-05
7.89079e-05
7.35231e-05
6.68305e-05
6.11034e-05
5.68979e-05
5.25158e-05
4.86482e-05
4.61801e-05
4.55076e-05
4.45334e-05
4.29028e-05
4.20186e-05
4.20751e-05
4.20266e-05
4.10619e-05
4.10381e-05
4.15285e-05
4.16824e-05
4.06396e-05
3.93029e-05
3.93075e-05
4.02525e-05
4.26283e-05
4.48055e-05
4.56018e-05
4.49863e-05
4.13585e-05
3.73777e-05
3.24155e-05
2.7267e-05
2.3504e-05
2.11608e-05
1.9685e-05
1.91908e-05
1.93234e-05
2.07495e-05
2.15429e-05
2.16568e-05
2.15315e-05
2.13983e-05
2.15675e-05
2.27241e-05
2.69914e-05
3.13181e-05
3.57852e-05
4.06241e-05
4.37381e-05
4.55594e-05
4.65597e-05
4.66221e-05
4.64753e-05
4.62585e-05
4.58492e-05
4.49309e-05
4.33011e-05
4.177e-05
4.09946e-05
4.08449e-05
4.11707e-05
4.21526e-05
4.47494e-05
4.68559e-05
4.89517e-05
5.3202e-05
6.71211e-05
7.48818e-05
7.45687e-05
6.27456e-05
4.51876e-05
3.42931e-05
3.25071e-05
3.31157e-05
3.22343e-05
2.7357e-05
2.41933e-05
2.20752e-05
2.13701e-05
2.06357e-05
2.0284e-05
2.03324e-05
2.06786e-05
2.20141e-05
2.33558e-05
2.49901e-05
2.66196e-05
2.73988e-05
3.20842e-05
3.70751e-05
3.95778e-05
4.14234e-05
4.28686e-05
4.36799e-05
4.85024e-05
5.18137e-05
5.17584e-05
4.70101e-05
3.80346e-05
3.11781e-05
2.82522e-05
2.74738e-05
2.74526e-05
2.81444e-05
2.97756e-05
2.95108e-05
2.88629e-05
2.91515e-05
2.98959e-05
3.06906e-05
3.12508e-05
3.14441e-05
3.17797e-05
3.15858e-05
3.21585e-05
3.55774e-05
3.74996e-05
3.94721e-05
4.02422e-05
4.15801e-05
4.51354e-05
5.23284e-05
5.62445e-05
5.68482e-05
5.70291e-05
5.65544e-05
5.63974e-05
5.59589e-05
5.40529e-05
4.70827e-05
3.98494e-05
3.2926e-05
2.67567e-05
2.3994e-05
2.33439e-05
2.36701e-05
2.66273e-05
3.40641e-05
3.86382e-05
4.15604e-05
4.33365e-05
4.33323e-05
4.31017e-05
4.40166e-05
4.44565e-05
4.44477e-05
4.31026e-05
4.28225e-05
4.01702e-05
4.32552e-05
4.17746e-05
5.38702e-05
5.10182e-05
5.71981e-05
7.52146e-05
5.90251e-05
4.48929e-05
3.33421e-05
2.3745e-05
1.67511e-05
1.33574e-05
1.19374e-05
8.88721e-06
9.07039e-06
8.66169e-06
9.44634e-06
1.36909e-05
1.27881e-05
1.60263e-05
1.72654e-05
2.03771e-05
2.9702e-05
4.6887e-05
7.88984e-05
0.000101578
0.000104373
9.68459e-05
7.39766e-05
6.18054e-05
5.21687e-05
4.50839e-05
4.30517e-05
4.3093e-05
4.32271e-05
4.33882e-05
4.39965e-05
4.98677e-05
6.41493e-05
6.82071e-05
6.64939e-05
5.14835e-05
3.23945e-05
2.24415e-05
2.13619e-05
2.79025e-05
5.34532e-05
7.665e-05
9.23692e-05
0.000106664
0.00010813
0.000103866
8.77979e-05
7.53937e-05
7.07765e-05
6.23483e-05
5.765e-05
5.45138e-05
4.99706e-05
4.67006e-05
4.4575e-05
4.40322e-05
4.30926e-05
4.17723e-05
4.12728e-05
4.13091e-05
4.09491e-05
3.94017e-05
3.92715e-05
3.97309e-05
4.00841e-05
3.94468e-05
3.84995e-05
3.862e-05
3.96935e-05
4.23513e-05
4.48395e-05
4.56464e-05
4.50814e-05
4.18763e-05
3.78241e-05
3.30093e-05
2.79437e-05
2.38874e-05
2.12931e-05
1.97241e-05
1.92485e-05
1.94206e-05
2.09328e-05
2.18722e-05
2.21033e-05
2.20497e-05
2.17914e-05
2.17525e-05
2.25158e-05
2.7021e-05
3.17285e-05
3.60023e-05
3.93873e-05
4.10764e-05
4.23295e-05
4.42236e-05
4.53324e-05
4.58127e-05
4.58272e-05
4.55546e-05
4.49158e-05
4.31844e-05
4.13089e-05
4.0355e-05
4.02762e-05
4.08598e-05
4.2262e-05
4.51145e-05
4.71081e-05
4.94649e-05
5.45869e-05
6.96089e-05
7.65913e-05
7.55995e-05
6.19461e-05
4.50437e-05
3.4219e-05
3.24717e-05
3.30917e-05
3.17751e-05
2.64322e-05
2.35642e-05
2.17177e-05
2.09895e-05
2.05273e-05
2.01846e-05
2.01891e-05
2.05665e-05
2.20402e-05
2.3494e-05
2.55324e-05
2.69133e-05
2.76982e-05
3.31868e-05
3.72964e-05
3.95613e-05
4.13472e-05
4.2705e-05
4.35436e-05
4.82154e-05
5.12013e-05
5.11355e-05
4.6902e-05
3.81106e-05
3.11857e-05
2.83798e-05
2.74719e-05
2.73185e-05
2.80176e-05
2.92462e-05
2.87857e-05
2.81926e-05
2.83426e-05
2.93917e-05
3.10609e-05
3.19913e-05
3.19117e-05
3.19708e-05
3.15792e-05
3.26231e-05
3.64186e-05
3.85651e-05
4.03627e-05
4.1248e-05
4.2937e-05
4.82914e-05
5.51093e-05
5.7688e-05
5.774e-05
5.74223e-05
5.65505e-05
5.64469e-05
5.60893e-05
5.40003e-05
4.70239e-05
4.05735e-05
3.29831e-05
2.68492e-05
2.47345e-05
2.46591e-05
2.62945e-05
3.08053e-05
3.69125e-05
3.92108e-05
4.03881e-05
4.24174e-05
4.33982e-05
4.32365e-05
4.43586e-05
4.47359e-05
4.60076e-05
4.48596e-05
4.5686e-05
4.27057e-05
4.78578e-05
4.48488e-05
5.69311e-05
5.3741e-05
5.65267e-05
6.93591e-05
3.12445e-05
2.36906e-05
1.75437e-05
1.25427e-05
9.7575e-06
8.69077e-06
8.11606e-06
6.41432e-06
6.13204e-06
7.23221e-06
7.40567e-06
1.25649e-05
1.16335e-05
1.32177e-05
1.65896e-05
1.88364e-05
2.34003e-05
3.50119e-05
5.6239e-05
9.64524e-05
0.000102475
9.97313e-05
8.99428e-05
7.25055e-05
5.73118e-05
4.78722e-05
4.49264e-05
4.42833e-05
4.43011e-05
4.50228e-05
4.70708e-05
5.83733e-05
6.89574e-05
6.94767e-05
6.30859e-05
4.19387e-05
2.61757e-05
2.08994e-05
2.23357e-05
3.5394e-05
6.82531e-05
8.37703e-05
9.94441e-05
0.000108757
0.000107977
0.000100292
8.06777e-05
7.13408e-05
6.70464e-05