/*--------------------------------*- C++ -*----------------------------------*\
| =========                 |                                                 |
| \\      /  F ield         | OpenFOAM: The Open Source CFD Toolbox           |
|  \\    /   O peration     | Version:  2.4.0                                 |
|   \\  /    A nd           | Web:      www.OpenFOAM.org                      |
|    \\/     M anipulation  |                                                 |
\*---------------------------------------------------------------------------*/
FoamFile
{
    version     2.0;
    format      ascii;
    class       volScalarField;
    location    "0.245";
    object      p;
}
// * * * * * * * * * * * * * * * * * * * * * * * * * * * * * * * * * * * * * //

dimensions      [0 2 -2 0 0 0 0];

internalField   nonuniform List<scalar> 
17600
(
87.9016
72.2649
67.7774
66.6962
65.7217
64.7311
63.905
63.1029
62.245
61.6443
60.7327
59.9893
59.2761
58.2943
57.4485
56.6423
55.3957
54.0384
52.2456
51.1217
85.9941
72.3151
67.8185
66.7053
65.7255
64.7314
63.9052
63.104
62.2444
61.6442
60.7336
59.9865
59.2782
58.2945
57.4458
56.6432
55.3986
54.031
52.2575
50.9246
84.5818
72.5711
67.9622
66.7436
65.7398
64.7353
63.9079
63.1067
62.2446
61.6465
60.7343
59.9856
59.2819
58.2948
57.4457
56.646
55.4057
54.0163
52.3016
50.8296
83.6073
72.9117
68.1824
66.8094
65.7689
64.7505
63.9178
63.1132
62.2496
61.6518
60.7369
59.987
59.2884
58.2972
57.4527
56.6536
55.4227
54.0149
52.3631
50.8305
82.7863
73.2453
68.4474
66.8925
65.81
64.7802
63.9384
63.127
62.2636
61.6613
60.7442
59.9927
59.2987
58.3034
57.4693
56.6694
55.4517
54.0399
52.4432
50.8695
82.0131
73.5362
68.7266
66.9758
65.8499
64.819
63.9683
63.1482
62.2886
61.6759
60.7575
60.0038
59.3137
58.316
57.4967
56.6961
55.4957
54.0937
52.5646
50.9822
81.2851
73.7814
69.0052
67.054
65.8792
64.8565
64.0013
63.1734
62.3224
61.6938
60.7768
60.0205
59.3327
58.3369
57.5349
56.733
55.558
54.1754
52.7412
51.1746
80.6126
73.9841
69.2759
67.1285
65.8979
64.8875
64.0323
63.2001
62.3609
61.7116
60.7997
60.0408
59.3533
58.3658
57.5817
56.7796
55.6349
54.2928
52.93
51.5599
80.001
74.1484
69.5313
67.2041
65.9083
64.9101
64.0588
63.2271
62.4008
61.7278
60.8237
60.0631
59.3734
58.4002
57.6315
56.8349
55.7172
54.4491
53.0939
51.9865
79.4521
74.276
69.7688
67.2837
65.9129
64.9239
64.0809
63.2534
62.4397
61.742
60.8472
60.0854
59.3916
58.4383
57.6812
56.8971
55.8038
54.6243
53.2802
52.4281
78.9639
74.3682
69.9879
67.3683
65.9136
64.9297
64.0992
63.2783
62.4771
61.7547
60.8701
60.1069
59.4082
58.4784
57.7292
56.965
55.8969
54.7964
53.5072
52.8568
78.534
74.4282
70.1874
67.4576
65.911
64.9292
64.1146
63.3021
62.512
61.7685
60.8932
60.1286
59.4242
58.5199
57.7787
57.0295
56.0063
54.9619
53.7593
53.2756
78.1603
74.4639
70.3659
67.5508
65.9063
64.9237
64.1273
63.3242
62.5453
61.7819
60.9156
60.1517
59.4393
58.5623
57.8303
57.0961
56.1215
55.127
54.0349
53.6871
77.8405
74.4827
70.5225
67.6416
65.9022
64.9142
64.1375
63.3445
62.5766
61.7936
60.9362
60.1735
59.4556
58.6041
57.8812
57.1686
56.2365
55.3007
54.307
54.084
77.5713
74.4911
70.657
67.7226
65.8993
64.9041
64.1449
63.3623
62.6056
61.8049
60.9544
60.1945
59.4712
58.6492
57.9349
57.241
56.3551
55.4781
54.5833
54.4586
77.3487
74.4942
70.7688
67.7928
65.8981
64.8941
64.1509
63.3769
62.6324
61.8157
60.9705
60.216
59.4837
58.6946
57.9917
57.3145
56.4785
55.6527
54.8624
54.8143
77.1732
74.4947
70.8576
67.8492
65.8992
64.8845
64.1567
63.39
62.6552
61.826
60.9872
60.235
59.5063
58.7377
58.05
57.3895
56.6054
55.8287
55.1257
55.1765
77.0423
74.4944
70.9231
67.8967
65.9015
64.8774
64.158
63.3994
62.6748
61.8354
61.0021
60.2554
59.5226
58.7856
58.1085
57.4678
56.7304
56.0104
55.3603
55.4155
76.9557
74.4937
70.9666
67.9253
65.9047
64.8726
64.1609
63.4061
62.6898
61.8442
61.015
60.2753
59.5389
58.8362
58.1644
57.5512
56.8548
56.1976
55.571
55.6901
76.9118
74.4936
70.9884
67.9396
65.9074
64.8713
64.1617
63.4106
62.7016
61.8506
61.0293
60.2929
59.5609
58.8795
58.228
57.6283
56.9831
56.3808
55.7999
55.9998
76.9102
74.4948
70.9895
67.9386
65.91
64.8727
64.1628
63.4118
62.7088
61.8566
61.0413
60.3111
59.5827
58.9237
58.2912
57.7073
57.1173
56.5528
56.053
56.307
76.9519
74.4974
70.9709
67.9212
65.9121
64.878
64.1633
63.4107
62.7112
61.8615
61.0515
60.3288
59.6036
58.9718
58.3506
57.7906
57.2508
56.7265
56.3044
56.6147
77.0357
74.5013
70.9309
67.8888
65.9129
64.8875
64.1625
63.4071
62.7095
61.8642
61.0645
60.3453
59.6258
59.0197
58.4107
57.8757
57.3806
56.9069
56.5338
56.8205
77.1644
74.5046
70.8702
67.8409
65.916
64.8979
64.162
63.4008
62.7019
61.8677
61.073
60.3615
59.65
59.0658
58.4711
57.962
57.5109
57.0912
56.7447
57.0726
77.3371
74.5067
70.7868
67.7792
65.9171
64.9116
64.1593
63.3931
62.6913
61.8675
61.0844
60.3744
59.6776
59.1094
58.5343
58.0453
57.646
57.2728
56.9717
57.354
77.5572
74.5047
70.6809
67.7043
65.9234
64.925
64.1549
63.3836
62.6762
61.8661
61.0958
60.3859
59.7055
59.1536
58.5963
58.1289
57.786
57.4463
57.2218
57.6468
77.8252
74.4966
70.5527
67.6172
65.932
64.938
64.1484
63.3721
62.6569
61.8646
61.1049
60.3973
59.7329
59.1987
58.6553
58.2168
57.9249
57.6236
57.4665
57.9488
78.1426
74.4789
70.4025
67.522
65.9406
64.9511
64.138
63.3601
62.6351
61.8595
61.1158
60.4053
59.7614
59.2442
58.712
58.3075
58.0612
57.8103
57.6818
58.1603
78.5143
74.4414
70.2325
67.4219
65.9509
64.9604
64.1248
63.3469
62.6105
61.8529
61.1263
60.4112
59.7905
59.289
58.7679
58.3987
58.1986
58.0004
57.8869
58.3955
78.9409
74.3792
70.0427
67.3251
65.9575
64.9661
64.1065
63.333
62.5849
61.8439
61.1364
60.4142
59.8211
59.3318
58.8242
58.4875
58.3408
58.1865
58.1188
58.6441
79.4267
74.2852
69.8341
67.2332
65.9597
64.9669
64.0824
63.3194
62.5579
61.8324
61.1471
60.4137
59.8519
59.3749
58.8779
58.5737
58.4864
58.3684
58.3804
58.8783
79.9743
74.1553
69.607
67.1463
65.9572
64.9616
64.0528
63.3048
62.5311
61.8186
61.1568
60.412
59.8799
59.4188
58.9279
58.6573
58.6272
58.5462
58.6459
59.0909
80.5849
73.9875
69.361
67.0642
65.9468
64.9504
64.0182
63.2878
62.5061
61.8016
61.1657
60.4099
59.9048
59.461
58.9744
58.7351
58.7552
58.7113
58.8788
59.2873
81.2578
73.7796
69.0986
66.9853
65.9262
64.9318
63.9809
63.2686
62.4831
61.784
61.172
60.4087
59.9258
59.4974
59.0163
58.8022
58.8624
58.8512
59.0639
59.4352
81.9865
73.5286
68.8272
66.9055
65.8935
64.9049
63.9448
63.248
62.4628
61.7681
61.1756
60.4094
59.9427
59.5259
59.0516
58.8556
58.9447
58.9583
59.2015
59.5795
82.7612
73.232
68.5536
66.8227
65.85
64.8734
63.9142
63.2298
62.4474
61.7569
61.1776
60.4123
59.9557
59.5459
59.0789
58.8944
59.0011
59.0314
59.2959
59.691
83.5844
72.8932
68.2922
66.7413
65.8062
64.8471
63.8947
63.2179
62.4385
61.7513
61.1788
60.4165
59.9648
59.5577
59.0975
58.9193
59.0336
59.0742
59.3528
59.7702
84.5621
72.5491
68.0732
66.6771
65.7763
64.8325
63.8868
63.2125
62.435
61.75
61.179
60.4204
59.9702
59.5623
59.1078
58.9324
59.0471
59.0929
59.3801
59.8223
85.9769
72.2919
67.9292
66.6394
65.7626
64.8273
63.8856
63.2108
62.4336
61.7506
61.1782
60.4225
59.9727
59.5619
59.1112
58.9369
59.0481
59.0949
59.386
59.8512
87.8855
72.2418
67.8881
66.6295
65.7603
64.8257
63.8858
63.2108
62.4325
61.7518
61.1772
60.4225
59.974
59.5594
59.1108
58.9371
59.0444
59.0896
59.3808
59.8625
49.3488
46.6968
39.971
31.2589
24.4434
20.8869
18.192
19.7546
25.4518
34.3244
44.695
55.0805
65.1739
72.4044
77.228
80.8871
83.9845
86.818
87.9643
88.0526
88.8963
89.2216
86.2627
80.0938
72.1241
63.6556
56.0552
48.7558
41.1817
36.4465
34.7777
32.9703
30.2261
28.1845
27.0032
25.4829
23.9372
23.4468
23.6119
24.3651
26.3039
29.485
33.7163
38.3402
42.8975
47.4345
51.414
54.3616
56.0248
56.1476
54.9413
52.8808
50.1808
46.8858
43.2406
39.3468
35.2755
30.7245
25.9347
21.1683
16.5935
12.5359
9.16131
6.54233
5.6933
6.48061
7.80177
10.2512
14.4287
19.019
23.8381
29.6841
35.4728
40.2926
45.2634
50.0498
53.7858
57.1196
60.0407
62.5733
64.745
66.2688
67.6013
68.7924
69.518
69.8958
70.1171
70.1767
69.8734
69.2604
68.3997
67.1731
65.3109
62.8197
59.7264
56.4676
53.079
49.3917
45.841
42.5922
39.6288
36.4672
33.9677
32.5197
31.1024
29.9418
29.3823
29.4653
29.7112
30.1608
31.3563
33.0443
34.9596
37.5453
41.0622
44.5865
48.1531
51.032
53.7088
56.5846
58.1532
58.7808
58.6623
58.1628
56.0921
53.5018
50.3838
46.1776
41.5296
36.0736
30.4333
25.1701
20.4634
16.9775
15.0549
14.4004
15.167
18.5013
24.4799
30.829
36.5349
42.6403
49.1102
54.798
59.4718
63.3366
66.6791
68.7511
69.6498
69.9284
69.5583
68.91
67.6735
66.1715
64.3704
61.8943
58.5678
55.0785
50.8417
45.474
39.9316
34.5711
29.9899
26.3964
24.4186
24.6072
26.2918
28.1139
29.9067
31.4363
33.7397
37.9798
43.9788
49.9183
55.8146
61.2221
66.0221
70.3518
74.0344
76.8859
78.6686
79.2031
78.9926
78.2237
77.3805
76.6905
76.2412
75.8961
75.1915
74.9122
74.8026
74.5185
73.9331
73.5159
72.8506
71.8505
69.9314
65.6413
59.8274
28.191
48.6548
46.1769
40.5429
32.517
25.9906
23.1724
21.5506
23.2687
28.9711
37.7361
47.449
56.6237
65.7915
72.4615
76.9235
80.5777
83.6519
86.2495
87.3355
87.3915
87.9407
88.0819
85.5389
80.4106
73.6325
65.7316
58.3723
51.4024
44.1405
39.34
37.4459
35.653
33.0439
30.9982
29.7675
28.4071
27.1132
26.7422
26.9394
27.8116
29.8604
33.0222
37.1428
41.586
45.8977
50.1283
53.8186
56.4334
57.6927
57.5004
56.0957
53.8305
50.9048
47.4248
43.6047
39.5676
35.2507
30.3837
25.226
20.1463
15.2002
10.7005
6.94761
4.1423
3.1831
3.82485
5.15117
7.80039
12.2452
17.0626
22.1405
28.2269
34.1609
39.222
44.4616
49.4463
53.3753
56.8393
59.9147
62.5957
64.853
66.4642
67.7943
69.0116
69.7869
70.0689
70.2606
70.3934
70.0654
69.4281
68.6616
67.5426
65.7643
63.3809
60.4504
57.3907
54.214
50.6172
47.2513
44.4016
41.65
38.4933
36.0701
34.7402
33.3205
32.1196
31.6377
31.8211
32.0951
32.5491
33.7773
35.5011
37.479
39.9463
43.3629
46.766
50.0524
52.8642
55.1597
57.7269
59.0504
59.493
59.3979
58.7708
56.5885
53.7356
50.4439
45.8393
40.8121
35.1615
29.357
23.9796
19.2533
15.8118
13.9431
13.3416
14.3297
18.0634
24.129
30.3736
36.1357
42.447
48.9942
54.4224
59.2888
63.1252
66.4951
68.6184
69.4944
69.8978
69.519
68.8703
67.6765
66.4024
64.5367
62.1402
59.1746
55.8641
51.8628
46.6984
41.4313
36.2792
31.816
28.2559
26.23
26.2451
27.867
29.4786
31.1098
32.7023
35.186
39.534
45.2607
50.9955
56.5154
61.6174
66.2217
70.4309
74.046
76.8725
78.7069
79.3759
79.094
78.2807
77.3457
76.5868
76.0272
75.6019
74.8106
74.4436
74.3299
73.8605
73.1337
72.5576
71.6969
70.2092
68.1272
62.1141
56.3653
20.3454
48.1426
45.6274
40.9586
34.0751
28.1158
25.7163
25.0355
27.0958
32.6525
40.8429
49.8974
57.9635
66.2547
72.4509
76.5606
80.2102
83.2352
85.6998
86.7608
86.7577
87.0903
87.0594
84.8914
80.6699
74.9713
67.6929
60.7279
54.1471
47.3054
42.421
40.2508
38.3785
35.8274
33.8388
32.5702
31.2696
30.2336
30.0399
30.3173
31.2858
33.3866
36.5234
40.535
44.8021
48.8738
52.7905
56.1785
58.4399
59.3309
58.8516
57.2425
54.7702
51.6532
48.0105
44.0326
39.861
35.2919
30.125
24.5756
19.1352
13.7465
8.75629
4.65677
1.72448
0.671625
1.18051
2.47084
5.289
10.0226
15.1259
20.5483
26.8788
32.9321
38.2677
43.775
48.921
53.0273
56.5948
59.8363
62.6624
65.0098
66.6979
68.0202
69.2772
70.0898
70.2784
70.4617
70.6589
70.3114
69.6504
68.9695
67.9283
66.197
63.9386
61.1632
58.3019
55.3149
51.7943
48.6513
46.1536
43.5575
40.4776
38.1894
36.934
35.4961
34.304
33.8753
34.1179
34.4411
34.9274
36.2033
37.9361
39.9744
42.3997
45.7053
49.0254
52.0315
54.7687
56.7704
58.9385
60.0867
60.2807
60.2252
59.4725
57.0612
53.9579
50.5718
45.717
40.2923
34.4298
28.4858
23.0067
18.2799
14.89
13.0818
12.5432
13.7924
17.8981
23.9716
30.1011
35.9977
42.4393
48.9596
54.2078
59.171
63.0498
66.308
68.5527
69.4238
69.8261
69.515
68.8668
67.8795
66.5804
64.7188
62.5435
59.877
56.6861
52.8653
47.9367
42.9482
38.0361
33.6293
30.0862
28.1014
27.958
29.4104
30.8451
32.3386
34.0825
36.7569
41.1778
46.5749
52.037
57.2344
61.9941
66.3955
70.4833
74.0299
76.7235
78.6287
79.4377
79.2132
78.3603
77.3916
76.5127
75.8584
75.2485
74.479
73.8177
73.9071
73.0291
72.3884
71.5285
70.5945
68.4143
66.606
58.378
52.8873
18.8862
47.9049
45.2094
41.3127
35.8665
30.7093
28.5387
28.4882
30.9868
36.2796
43.6586
51.9373
59.0783
66.67
72.393
76.1848
79.7618
82.6768
85.0832
86.1452
86.1157
86.3044
86.2367
84.4494
80.9345
76.0788
69.4382
62.9985
56.8957
50.5668
45.536
43.018
41.1206
38.6908
36.7559
35.3826
34.0841
33.2939
33.3171
33.7011
34.7442
36.8619
39.9801
43.8819
47.9462
51.7646
55.3885
58.4767
60.3839
60.9324
60.174
58.3644
55.701
52.4251
48.6126
44.5076
40.2176
35.4356
29.9499
23.9918
18.1627
12.3217
6.83187
2.3736
-0.687204
-1.81825
-1.41469
-0.174545
2.79387
7.80549
13.1932
18.981
25.5795
31.7995
37.4471
43.1729
48.4614
52.7467
56.4093
59.8155
62.7827
65.2126
66.9668
68.2988
69.5969
70.4162
70.5214
70.7161
70.9623
70.5898
69.9356
69.3192
68.321
66.6243
64.4661
61.8737
59.2179
56.357
52.9549
50.06
47.8207
45.3432
42.3982
40.2897
39.0624
37.6083
36.4853
36.0854
36.3314
36.7181
37.2666
38.5874
40.3083
42.404
44.8516
48.0456
51.3023
54.0459
56.6963
58.5179
60.2394
61.2637
61.1603
61.112
60.2981
57.5592
54.1555
50.6675
45.7196
39.9735
33.8977
27.8411
22.2768
17.5699
14.2333
12.4734
12.0265
13.5717
17.9715
24.0084
30.0022
36.1602
42.5874
49.0615
54.1722
59.2062
63.0522
66.215
68.609
69.3155
69.8093
69.6053
68.9352
68.1187
66.7717
65.0953
63.1163
60.6039
57.5504
53.9058
49.2287
44.4631
39.7702
35.4204
31.9146
29.9727
29.6892
30.9236
32.2247
33.6209
35.5292
38.4141
42.8318
47.9032
53.0476
57.9485
62.4014
66.5938
70.5
74.0403
76.5401
78.4703
79.3675
79.2986
78.4163
77.4895
76.4493
75.7476
74.7792
74.2168
72.7768
73.6918
71.8052
71.7933
70.2385
69.7191
66.3359
65.1968
54.8567
49.1767
20.4551
48.0328
45.1931
41.7247
37.6208
33.339
31.3956
31.751
34.5903
39.4885
46.0814
53.5486
59.944
66.9226
72.2976
75.859
79.2637
81.9373
84.3523
85.405
85.3989
85.5214
85.4683
84.0327
81.038
76.707
70.7639
64.9832
59.4287
53.6676
48.5545
45.8251
43.9658
41.5917
39.6798
38.2205
36.8877
36.2875
36.5128
37.0244
38.1641
40.3147
43.3881
47.1456
50.9916
54.5568
57.8838
60.6454
62.2382
62.4621
61.4494
59.452
56.6238
53.2159
49.2235
45.0023
40.6086
35.6596
29.8767
23.5015
17.2779
11.026
5.05219
0.243307
-2.96666
-4.21379
-3.92015
-2.72325
0.402519
5.62882
11.2608
17.4501
24.3444
30.758
36.7377
42.6599
48.0996
52.5392
56.2782
59.857
62.9635
65.4505
67.2755
68.6401
69.9658
70.7632
70.8105
71.0243
71.2815
70.8935
70.2634
69.6944
68.7227
67.0255
64.9759
62.5949
60.1065
57.3547
54.1157
51.4792
49.4221
46.9971
44.2499
42.3528
41.0937
39.6461
38.6495
38.2639
38.4584
38.9084
39.5399
40.9022
42.6
44.7528
47.2627
50.3349
53.5503
56.0767
58.6094
60.3532
61.6524
62.5841
62.2175
62.0627
61.2545
58.1472
54.3813
50.7267
45.7087
39.8129
33.5661
27.4168
21.8096
17.123
13.8582
12.1391
11.7897
13.6433
18.273
24.2413
30.1486
36.5248
42.8917
49.2419
54.3274
59.3725
63.068
66.2459
68.5932
69.3056
70.0014
69.7459
69.0795
68.3873
67.1019
65.5974
63.7451
61.3321
58.4787
54.9834
50.5759
45.9603
41.4803
37.2002
33.7286
31.8049
31.3876
32.4155
33.623
34.9692
37.0027
40.1168
44.4489
49.2202
54.0447
58.6425
62.8026
66.8657
70.489
74.036
76.3989
78.2795
79.2092
79.2987
78.4129
77.5668
76.3221
75.6343
74.1477
73.9436
71.2224
73.6122
69.8596
71.5984
68.4247
69.0426
63.769
63.7301
51.7423
44.891
21.8639
48.4516
45.6482
42.3266
39.2065
35.7769
34.1225
34.7214
37.6761
42.2281
48.0547
54.8599
60.6652
67.0405
72.0953
75.536
78.8183
81.1653
83.4362
84.5413
84.6173
84.7514
84.6759
83.4841
80.8377
76.8126
71.6468
66.5501
61.6166
56.4825
51.3854
48.6194
46.8714
44.4857
42.5664
41.0557
39.7069
39.2229
39.5794
40.2761
41.568
43.7443
46.7371
50.2919
53.8853
57.2239
60.2594
62.683
63.9851
63.9005
62.6528
60.4991
57.5501
53.9998
49.8603
45.5048
41.0334
35.9414
29.9089
23.1587
16.5328
9.88035
3.46558
-1.66635
-5.01378
-6.42479
-6.27008
-5.13774
-1.82288
3.56828
9.36319
15.9334
23.1384
29.8171
36.1519
42.2428
47.838
52.4064
56.2183
59.9836
63.1962
65.7098
67.6116
69.0324
70.3843
71.1436
71.1605
71.3866
71.6127
71.218
70.6369
70.1121
69.1197
67.4097
65.47
63.2915
60.9644
58.2896
55.2708
52.9205
50.9331
48.5387
46.0656
44.3359
43.0096
41.6056
40.7582
40.3865
40.506
41.0049
41.733
43.1392
44.7944
46.9843
49.5963
52.5505
55.728
58.1082
60.4828
62.2171
63.1558
63.9794
63.4656
63.0918
62.3069
58.8429
54.6788
50.819
45.6576
39.7239
33.4214
27.199
21.6013
16.9488
13.7542
12.0667
11.8459
14.015
18.7792
24.6681
30.5741
37.0461
43.381
49.4664
54.6885
59.6001
63.2375
66.2836
68.621
69.5597
70.1657
69.8831
69.3869
68.6884
67.4782
66.089
64.387
62.0928
59.4512
56.11
51.9821
47.511
43.2302
38.9885
35.5607
33.641
33.0565
33.8876
35.0424
36.3812
38.4937
41.817
46.0113
50.4972
54.9824
59.3308
63.167
67.1307
70.4804
73.9466
76.2509
78.0779
78.9711
79.2024
78.2909
77.5896
76.0511
75.4865
73.3766
73.3286
69.1907
73.3543
67.0092
71.5322
65.7454
68.4797
60.8388
61.8978
49.0237
39.8406
21.875
49.0108
46.5642
43.3414
40.7472
38.108
36.7131
37.4825
40.3558
44.5959
49.7233
55.968
61.3307
67.146
71.8287
75.0742
78.3984
80.5598
82.4788
83.6416
83.8225
83.9635
83.9302
82.9101
80.3978
76.5752
72.1155
67.6496
63.4786
58.9101
53.8596
51.2302
49.7388
47.359
45.4354
43.8915
42.535
42.1024
42.5389
43.4692
44.9492
47.1098
49.9621
53.2687
56.579
59.7083
62.4671
64.572
65.5871
65.2448
63.8004
61.4887
58.4744
54.7767
50.524
46.04
41.4871
36.2889
30.0272
22.9765
15.9602
8.88905
2.05863
-3.36212
-6.79717
-8.32776
-8.41937
-7.3463
-3.83788
1.6373
7.5516
14.492
21.9871
28.9688
35.6571
41.9148
47.6812
52.3439
56.2455
60.1922
63.4695
65.9934
67.9704
69.4786
70.8457
71.5469
71.5644
71.798
71.9644
71.595
71.0912
70.5791
69.524
67.7887
65.9447
63.9678
61.7553
59.1625
56.4345
54.3289
52.3479
50.0217
47.8145
46.1997
44.8017
43.4656
42.775
42.4206
42.466
43.016
43.8345
45.2725
46.8905
49.0922
51.8272
54.6841
57.8106
60.1197
62.3193
64.0674
64.7104
65.3795
64.8362
64.2018
63.4071
59.6216
55.07
51.0308
45.6525
39.6597
33.4373
27.1949
21.6256
17.0391
13.9077
12.2579
12.1872
14.6469
19.4796
25.2976
31.2349
37.7187
43.985
49.856
55.1877
59.9377
63.5308
66.3774
68.9594
69.8049
70.1609
70.1704
69.8036
68.9289
67.847
66.5979
65.0744
62.9016
60.4658
57.281
53.4004
49.1463
45.0422
40.8724
37.4667
35.5133
34.7487
35.3681
36.4942
37.8529
40.0493
43.4902
47.5103
51.7068
55.8582
59.9492
63.5679
67.3049
70.5006
73.8029
76.0327
77.8455
78.6711
79.0113
78.0132
77.5533
75.5783
75.2258
72.6016
71.8221
66.4444
72.0514
63.4377
71.3699
62.3555
67.3693
57.1899
59.2557
46.4538
34.4064
20.9044
49.5955
47.6803
44.6304
42.2592
40.2667
39.1092
39.9856
42.7568
46.6012
51.1935
56.912
61.9131
67.1887
71.5519
74.4882
77.8372
79.9892
81.6491
82.8866
83.0618
83.1725
83.1572
82.259
79.8408
76.2538
72.3207
68.4303
64.9957
60.7131
56.0014
53.8642
52.5185
50.0247
48.1624
46.6732
45.3221
44.903
45.3975
46.5798
48.2383
50.3179
52.9813
56.0323
59.0542
61.9482
64.4879
66.3009
67.0365
66.4639
64.877
62.4351
59.3789
55.5568
51.2032
46.6293
41.9937
36.7057
30.2227
22.9316
15.5799
8.10274
0.89422
-4.79531
-8.30714
-9.98167
-10.3409
-9.28832
-5.59642
-0.125699
5.86641
13.1549
20.9349
28.2584
35.262
41.6678
47.6176
52.3562
56.3672
60.4761
63.7905
66.3124
68.351
69.9625
71.3145
71.9491
72.0072
72.2555
72.3535
72.0345
71.6123
71.0907
69.9359
68.1588
66.4176
64.6041
62.472
60.0003
57.5787
55.6815
53.6933
51.4619
49.4897
47.9156
46.4455
45.2252
44.6629
44.3124
44.3195
44.9392
45.8299
47.2905
48.8963
51.0732
53.9253
56.7255
59.7797
62.0852
64.1204
65.8761
66.3082
66.7575
66.2786
65.4097
64.5383
60.4833
55.554
51.3902
45.8084
39.6538
33.5636
27.3945
21.8759
17.3808
14.3047
12.6856
12.8179
15.5263
20.382
26.125
32.0933
38.5198
44.6835
50.4444
55.7469
60.3726
63.8449
66.782
69.3458
69.8575
70.3665
70.6327
70.147
69.18
68.314
67.1704
65.7511
63.731
61.4802
58.4394
54.8051
50.831
46.9277
42.9002
39.4789
37.4636
36.5258
36.921
38.0245
39.4137
41.69
45.1481
48.9387
52.8392
56.6853
60.4393
64.0085
67.4585
70.5438
73.7334
75.7674
77.5725
78.3025
78.7396
77.547
77.3862
75.0046
74.7077
71.3791
69.5429
62.9003
68.9956
59.8504
69.2478
58.3052
65.9575
53.06
54.8954
43.227
29.6063
20.1228
50.7206
48.907
45.9114
43.6633
42.1263
41.2688
42.1728
44.8457
48.3066
52.4796
57.7543
62.4126
67.1461
71.2769
74.0036
77.1927
79.2702
80.8393
82.2364
82.4204
82.3785
82.2498
81.4623
79.2479
75.9323
72.3744
69.0157
66.1319
61.9382
57.8429
56.3112
54.8568
52.3637
50.6894
49.298
48.0009
47.598
48.1472
49.5548
51.3322
53.2911
55.7343
58.5157
61.294
63.9428
66.2939
67.8653
68.3309
67.5755
65.8666
63.3386
60.2659
56.3527
51.8987
47.2505
42.5572
37.2176
30.5346
22.9845
15.4
7.5745
0.061113
-5.85262
-9.4795
-11.3549
-11.9721
-10.8946
-7.09457
-1.74771
4.32603
11.949
19.9797
27.649
34.9329
41.5215
47.6724
52.4523
56.5819
60.8231
64.1543
66.6424
68.7431
70.4729
71.7775
72.3555
72.4948
72.7513
72.7739
72.5064
72.1556
71.6092
70.3433
68.5324
66.882
65.1888
63.1261
60.809
58.7088
56.9596
54.9826
52.8948
51.0742
49.4631
47.9807
46.8829
46.39
46.0599
46.0601
46.7514
47.7192
49.2028
50.8104
52.9407
55.8873
58.6727
61.6248
63.9634
65.8672
67.6276
67.9558
68.1656
67.7684
66.743
65.7357
61.4279
56.1418
51.852
46.1851
39.7728
33.7494
27.7472
22.3254
17.9413
14.9304
13.3494
13.7001
16.6116
21.4933
27.1515
33.1369
39.4498
45.5488
51.1908
56.4585
60.8013
64.2547
67.2978
69.4111
70.0557
70.922
71.0225
70.4115
69.6046
68.8883
67.7526
66.3643
64.5596
62.449
59.5833
56.2146
52.5313
48.8668
45.0573
41.6564
39.5176
38.424
38.6254
39.6848
41.1032
43.3916
46.7871
50.2834
53.8996
57.4391
60.8643
64.3828
67.6584
70.6198
73.743
75.5251
77.2786
77.8301
78.3702
76.867
77.0523
74.1314
73.855
69.0549
67.0009
59.9074
64.8399
57.4224
65.0299
54.9567
59.9757
47.1966
48.6729
38.7898
27.0602
20.4372
51.5317
49.8912
47.0791
44.9343
43.6745
43.1569
44.0218
46.5931
49.7886
53.5721
58.4602
62.7841
67.0447
70.988
73.6243
76.6145
78.5406
79.9713
81.4863
81.7488
81.5361
81.3335
80.6416
78.6543
75.6133
72.414
69.4372
66.7532
62.7746
59.3892
58.2928
56.6656
54.3998
52.9548
51.6754
50.5135
50.1361
50.7251
52.2905
54.1104
55.9442
58.1806
60.7103
63.2709
65.7261
67.8721
69.2553
69.4706
68.5633
66.767
64.1887
61.103
57.1542
52.6069
47.8852
43.148
37.8067
31.0025
23.1854
15.3816
7.32174
-0.416251
-6.50658
-10.2678
-12.394
-13.2455
-12.1259
-8.3291
-3.18189
3.00737
10.9159
19.161
27.1673
34.6813
41.4886
47.8214
52.6269
56.892
61.2256
64.5455
66.9938
69.1862
71.0209
72.247
72.7913
73.0144
73.2447
73.2024
72.9798
72.6785
72.0979
70.7376
68.9127
67.3435
65.7279
63.7205
61.6121
59.8054
58.1605
56.2747
54.3366
52.5622
50.8928
49.4437
48.4359
47.9786
47.6764
47.6951
48.4702
49.5175
51.011
52.6263
54.7226
57.7342
60.5119
63.3547
65.7452
67.5472
69.3126
69.6275
69.6447
69.3003
68.1989
67.0284
62.4424
56.8158
52.3914
46.7396
40.0617
33.9948
28.1837
22.9178
18.6712
15.7371
14.2212
14.8075
17.897
22.7972
28.3526
34.3054
40.4788
46.5648
52.0572
57.2206
61.2305
64.7991
67.6029
69.4897
70.6053
71.4243
71.2766
70.7868
70.2152
69.4629
68.3213
66.984
65.3927
63.3964
60.7431
57.6201
54.2054
50.8063
47.2859
43.9582
41.6676
40.4889
40.5204
41.4763
42.9218
45.1266
48.3648
51.5398
54.8798
58.1059
61.2982
64.6496
67.8477
70.7257
73.7544
75.3095
77.0157
77.2289
77.8498
75.8245
76.4099
72.63
72.815
65.6528
64.5568
58.0926
60.3871
55.2975
60.3125
51.8668
50.9647
41.8095
40.2988
33.3458
26.6352
21.7579
52.3338
50.7659
48.0972
46.0708
44.9504
44.7108
45.5919
48.0643
51.1001
54.5214
59.0275
63.0374
66.8971
70.6931
73.2126
76.0413
77.9281
79.1384
80.6297
80.9712
80.6453
80.4084
79.7805
78.0701
75.3642
72.4957
69.7741
67.0529
63.5572
60.7088
59.7279
57.9508
56.0405
54.8371
53.7409
52.786
52.4501
53.057
54.7048
56.5211
58.2647
60.3184
62.6194
64.9902
67.296
69.2487
70.4296
70.457
69.4263
67.563
64.9894
61.862
57.9452
53.3285
48.521
43.7357
38.4474
31.5933
23.616
15.5443
7.33976
-0.582699
-6.82674
-10.7396
-13.1015
-14.1359
-12.9801
-9.32641
-4.41044
1.97265
10.1225
18.53
26.8096
34.504
41.5901
48.0624
52.898
57.3037
61.6991
64.9754
67.3965
69.6872
71.5977
72.7412
73.2718
73.546
73.7336
73.6692
73.4794
73.1774
72.5484
71.1237
69.3027
67.7915
66.2256
64.3106
62.4421
60.8616
59.3129
57.5866
55.7816
53.9683
52.2432
50.8673
49.915
49.4518
49.1935
49.2664
50.1094
51.2224
52.7324
54.3622
56.4228
59.472
62.2408
64.9758
67.4232
69.1572
70.9073
71.2802
71.1735
70.8636
69.7594
68.4095
63.5258
57.5423
52.9784
47.3928
40.5321
34.342
28.6432
23.5727
19.4964
16.693
15.2663
16.1094
19.3662
24.2776
29.7308
35.5906
41.6309
47.7604
53.0423
57.9645
61.9079
65.3329
67.8682
69.9966
71.205
71.685
71.6596
71.3595
70.8673
69.9955
68.9361
67.6656
66.2214
64.3367
61.9048
58.9953
55.829
52.6918
49.4614
46.2911
43.9143
42.6681
42.579
43.3801
44.8082
46.8677
49.8383
52.71
55.7652
58.6755
61.7345
64.8599
67.9692
70.807
73.7328
75.0583
76.7871
76.5178
77.1767
74.3269
75.188
70.3957
71.5444
62.8755
61.8636
56.5419
55.3173
51.9674
55.1349
46.9692
44.329
39.7756
32.9274
30.7133
27.8707
23.3086
53.0283
51.5656
49.0387
47.1468
46.0984
46.0482
46.9856
49.3279
52.2255
55.3514
59.4981
63.2299
66.7502
70.4002
72.7745
75.3931
77.3262
78.3816
79.7771
80.0787
79.7712
79.5153
78.9376
77.4327
75.0994
72.6649
70.2616
67.479
64.2697
61.6412
60.1322
58.9415
57.4173
56.4042
55.5402
54.8065
54.5224
55.1664
56.8304
58.5893
60.2553
62.1646
64.2464
66.4598
68.6464
70.4374
71.4077
71.2749
70.1658
68.2521
65.7234
62.5412
58.6948
54.0609
49.1779
44.3088
39.1223
32.3016
24.2536
15.9459
7.6135
-0.467027
-6.85635
-10.9617
-13.5243
-14.6675
-13.5132
-10.0851
-5.35452
1.2472
9.53476
18.0682
26.5753
34.4385
41.8273
48.3732
53.2614
57.8161
62.2389
65.4417
67.8476
70.2605
72.2095
73.2754
73.8023
74.0824
74.2489
74.2144
74.0137
73.6631
72.9714
71.4971
69.6895
68.2156
66.7039
64.9413
63.3111
61.8741
60.4224
58.8924
57.1732
55.2817
53.5457
52.2499
51.3164
50.841
50.6481
50.7938
51.6978
52.8653
54.3671
56.0137
58.0483
61.1027
63.865
66.491
68.9829
70.6932
72.4159
72.8777
72.7263
72.4514
71.3863
69.8692
64.6991
58.3024
53.5837
48.0868
41.1378
34.8063
29.1201
24.2195
20.3645
17.7486
16.6393
17.5921
21.0088
25.8892
31.2398
36.9711
42.8849
49.0864
54.078
58.8006
62.7242
65.7405
68.4754
70.7566
71.6199
71.9698
72.237
71.9629
71.4221
70.5523
69.6371
68.4048
67.0435
65.2432
63.0272
60.3332
57.4042
54.484
51.5135
48.6026
46.2391
44.9078
44.7292
45.3665
46.6743
48.5685
51.1911
53.7618
56.5634
59.1415
62.1335
65.0632
68.0785
70.8289
73.6676
74.758
76.5086
75.7123
76.3423
72.5161
73.3643
67.89
69.7731
61.313
58.4125
53.9504
50.6463
48.6562
47.237
42.1829
40.949
37.2727
30.4394
33.7573
30.3358
24.7706
53.5977
52.2818
49.9249
48.1789
47.2134
47.28
48.2488
50.4185
53.1893
56.0271
59.8318
63.3727
66.6191
70.0916
72.3401
74.7016
76.6581
77.6137
78.8995
79.2353
78.9896
78.7169
78.1994
76.8468
74.8418
72.8753
70.8199
68.0686
64.9306
62.4667
61.1029
60.043
58.7557
57.8365
57.1593
56.6206
56.4192
57.085
58.669
60.3588
61.9492
63.7224
65.6304
67.6901
69.7799
71.4351
72.2096
71.93
70.7651
68.8261
66.3494
63.1419
59.3671
54.7884
49.8704
44.9181
39.8245
33.1549
25.0583
16.6326
8.11796
-0.052123
-6.56349
-10.8958
-13.6567
-14.8881
-13.7654
-10.5636
-5.87907
0.935939
9.21483
17.8126
26.4706
34.5104
42.1858
48.7576
53.7261
58.4223
62.8266
65.9359
68.3736
70.9098
72.8259
73.8453
74.3708
74.6217
74.8046
74.826
74.5681
74.1496
73.3791
71.8557
70.061
68.6133
67.1988
65.6439
64.2081
62.8484
61.4932
60.1276
58.46
56.5136
54.7915
53.568
52.6483
52.1628
52.0583
52.2908
53.2432
54.4448
55.9277
57.5886
59.5987
62.6167
65.3829
67.9046
70.4111
72.1429
73.8442
74.4003
74.2767
74.0683
73.0555
71.3815
65.981
59.1223
54.216
48.742
41.7854
35.3727
29.6428
24.8427
21.2413
18.869
17.9928
19.2103
22.8017
27.6039
32.8561
38.4376
44.2808
50.4378
55.2034
59.7719
63.4186
66.3385
69.4156
71.3411
72.0028
72.4626
72.8089
72.4741
71.9204
71.2033
70.3853
69.1749
67.8448
66.1167
64.0933
61.6136
58.9101
56.1796
53.4561
50.8536
48.5885
47.16
46.8665
47.3768
48.4721
50.1508
52.4404
54.6882
57.2656
59.5389
62.4763
65.2388
68.2728
70.8096
73.5753
74.3867
76.0878
74.6691
75.295
70.5366
71.3802
66.2349
67.3901
60.1233
55.6272
50.9173
48.4528
45.2553
40.6578
41.8409
38.2092
35.3342
32.8775
38.9693
32.9165
26.0483
54.0978
52.9039
50.7601
49.1795
48.335
48.4112
49.3305
51.3419
53.9938
56.6031
60.1093
63.4738
66.4268
69.7171
71.8961
74.0213
75.9762
76.8567
78.02
78.6855
78.3481
78.0143
77.5559
76.4004
74.6301
72.9999
71.2726
68.7323
65.7723
63.5044
62.2486
61.2827
60.1333
59.2394
58.6646
58.2688
58.1608
58.8258
60.2744
61.8752
63.3995
65.0281
66.7859
68.7248
70.6974
72.2254
72.8353
72.4362
71.228
69.2863
66.8536
63.6892
59.9826
55.5249
50.5932
45.594
40.592
34.1498
26.0297
17.5847
8.95095
0.667357
-5.90028
-10.4729
-13.4357
-14.7685
-13.7341
-10.71
-5.95154
0.983186
9.14884
17.7746
26.5257
34.771
42.6596
49.2132
54.2928
59.1143
63.444
66.4609
68.9929
71.5971
73.4405
74.4659
74.9723
75.1792
75.409
75.4828
75.1355
74.6399
73.8027
72.2371
70.4273
68.993
67.7335
66.4039
65.1123
63.8101
62.5229
61.2678
59.6362
57.6614
55.9799
54.8165
53.8995
53.4409
53.4359
53.7465
54.7298
55.9565
57.4198
59.0753
61.0603
64.0194
66.7873
69.2201
71.6954
73.4846
75.1916
75.8476
75.7994
75.7023
74.7533
72.9178
67.3362
60.0317
54.9142
49.3562
42.4001
36.0144
30.2373
25.4875
22.1362
20.0496
19.4557
20.9618
24.7051
29.3887
34.5423
40.0031
45.856
51.754
56.4812
60.736
64.1109
67.3139
70.2594
71.683
72.5693
73.0835
73.3052
72.995
72.4882
71.9076
71.0958
69.9357
68.6288
66.9869
65.0935
62.8036
60.33
57.8001
55.2931
52.9832
50.8579
49.3493
48.9331
49.3171
50.161
51.5817
53.5907
55.5307
57.8568
59.9055
62.7889
65.3612
68.5224
70.7892
73.4686
73.9437
75.4102
73.3321
74.0838
68.8052
68.8923
64.8728
64.4761
58.5576
53.3526
49.3419
47.3236
43.5348
40.6222
41.3938
36.461
38.7161
37.9892
42.2671
34.4279
27.0573
54.5165
53.4212
51.5441
50.1443
49.3669
49.4238
50.2961
52.1857
54.7091
57.0896
60.2938
63.5108
66.1927
69.2817
71.4189
73.3777
75.3477
76.1748
77.2072
78.0363
77.7559
77.3464
77.0016
76.0816
74.4496
72.9764
71.5832
69.4269
66.7671
64.6358
63.427
62.5748
61.5398
60.6184
60.0693
59.7723
59.7566
60.4013
61.7114
63.1947
64.6105
66.1103
67.7528
69.582
71.433
72.8116
73.2794
72.7941
71.5582
69.6396
67.2376
64.1789
60.5436
56.2317
51.3192
46.3135
41.4441
35.277
27.1873
18.7412
10.165
1.71736
-4.89157
-9.66379
-12.8276
-14.2642
-13.3534
-10.4466
-5.59114
1.33211
9.30887
17.9357
26.7691
35.2281
43.2107
49.7399
54.9594
59.8708
64.0646
67.0232