/*--------------------------------*- C++ -*----------------------------------*\
| =========                 |                                                 |
| \\      /  F ield         | OpenFOAM: The Open Source CFD Toolbox           |
|  \\    /   O peration     | Version:  2.4.0                                 |
|   \\  /    A nd           | Web:      www.OpenFOAM.org                      |
|    \\/     M anipulation  |                                                 |
\*---------------------------------------------------------------------------*/
FoamFile
{
    version     2.0;
    format      ascii;
    class       volScalarField;
    location    "0.1";
    object      k_0;
}
// * * * * * * * * * * * * * * * * * * * * * * * * * * * * * * * * * * * * * //

dimensions      [0 2 -2 0 0 0 0];

internalField   nonuniform List<scalar> 
17600
(
9.29145
7.41118
5.12321
3.93343
3.34009
2.95181
2.69911
2.46137
2.34569
2.1828
2.1366
2.01247
1.99701
1.88502
1.92204
1.78995
1.85951
1.90292
1.80364
2.25741
4.50727
6.2085
5.84216
5.0468
4.42058
3.92661
3.60916
3.29279
3.14238
2.91524
2.84426
2.67924
2.64472
2.50475
2.51891
2.35958
2.41954
2.3856
2.23617
2.49779
1.32067
3.28809
3.99559
3.95726
3.77353
3.45099
3.24118
2.98912
2.8743
2.67926
2.61438
2.47192
2.43739
2.31259
2.32059
2.1823
2.22306
2.15391
2.06803
2.03535
0.207195
1.1985
1.92525
2.31654
2.52221
2.50865
2.4801
2.38157
2.33012
2.21584
2.17518
2.07976
2.05955
1.96396
1.97937
1.87205
1.8934
1.84563
1.78432
1.68071
0.0259484
0.271705
0.645369
0.948854
1.26062
1.41074
1.55642
1.58995
1.62813
1.61571
1.61525
1.5862
1.59061
1.54032
1.56435
1.50358
1.49868
1.49532
1.44042
1.35358
0.002734
0.0449034
0.151291
0.245621
0.435002
0.553655
0.712168
0.812017
0.902732
0.955436
1.01429
1.02681
1.07573
1.06588
1.09824
1.09548
1.0741
1.09771
1.07506
1.01352
0.000279301
0.00650263
0.0251916
0.0458607
0.0990816
0.14208
0.216053
0.289823
0.35375
0.409389
0.478928
0.507236
0.577993
0.596039
0.628543
0.681365
0.666963
0.695036
0.692759
0.659398
5.02127e-05
0.000917968
0.00346293
0.00661121
0.0151678
0.0260176
0.0398596
0.070215
0.0927238
0.118178
0.155027
0.173133
0.214464
0.246316
0.261243
0.319853
0.316666
0.345643
0.355784
0.335356
2.86654e-05
0.00015686
0.000543655
0.000911156
0.00185647
0.00364766
0.00566974
0.0112241
0.0155832
0.0232002
0.033086
0.0386236
0.0523293
0.0683152
0.0740987
0.104569
0.102907
0.122992
0.132175
0.119855
2.42159e-05
4.91349e-05
0.000151333
0.000191395
0.000290032
0.000559009
0.000833331
0.00154544
0.0020878
0.00330378
0.00483554
0.00572086
0.00916781
0.0114586
0.0136689
0.0232609
0.0223322
0.0306509
0.0341158
0.0292263
2.34022e-05
3.29382e-05
7.81423e-05
8.19677e-05
9.2755e-05
0.000142257
0.000235014
0.000352536
0.000399151
0.000529872
0.00061364
0.00073975
0.00118712
0.00134687
0.00174682
0.00333762
0.00321769
0.00523541
0.00568381
0.00448847
2.22589e-05
2.95966e-05
5.41447e-05
5.78545e-05
6.08129e-05
6.7991e-05
0.000100679
0.000136963
0.000178384
0.000174674
0.000171743
0.000217498
0.000237557
0.000342261
0.000372673
0.000479803
0.000595134
0.000905441
0.000897581
0.000959094
2.15766e-05
2.82409e-05
4.36362e-05
6.12539e-05
6.23152e-05
5.92808e-05
6.27112e-05
7.08975e-05
0.000121613
0.000124046
0.00015346
0.000151296
0.000142276
0.000188543
0.000188803
0.000217386
0.000346154
0.000362563
0.000383872
0.000734126
2.14463e-05
2.79601e-05
4.49466e-05
5.99901e-05
5.78356e-05
5.01883e-05
5.08979e-05
5.40056e-05
8.4291e-05
9.05191e-05
0.000129241
0.000122617
0.000132196
0.000130546
0.000133076
0.000207873
0.000215285
0.000228867
0.000331569
0.000378466
2.16774e-05
2.78348e-05
4.50707e-05
4.68384e-05
4.47762e-05
4.62838e-05
4.97057e-05
5.2799e-05
6.28602e-05
6.58276e-05
7.09266e-05
7.01708e-05
8.67397e-05
8.59118e-05
9.10222e-05
0.000137272
0.000129937
0.000137155
0.000227869
0.000203766
2.11043e-05
2.86576e-05
3.2997e-05
3.98962e-05
4.53036e-05
4.97253e-05
4.89138e-05
4.95712e-05
4.98845e-05
5.51001e-05
5.67798e-05
6.75538e-05
6.91671e-05
7.07571e-05
8.84012e-05
8.65962e-05
8.98999e-05
0.000131991
0.000151459
0.000143809
2.07278e-05
2.56753e-05
3.16516e-05
4.2646e-05
4.57035e-05
4.541e-05
4.31947e-05
4.34019e-05
4.42235e-05
4.94246e-05
5.14721e-05
6.58e-05
6.65119e-05
6.90966e-05
8.10477e-05
8.33839e-05
9.0427e-05
0.000129837
0.000119383
0.000124185
2.06918e-05
2.50752e-05
3.39052e-05
3.942e-05
4.02354e-05
4.02873e-05
4.03005e-05
4.1075e-05
4.47005e-05
4.60224e-05
4.90062e-05
5.00673e-05
5.25654e-05
6.25706e-05
6.14049e-05
6.37732e-05
8.5071e-05
8.55104e-05
8.2256e-05
8.85329e-05
2.07233e-05
2.4681e-05
3.1283e-05
3.74484e-05
4.00737e-05
4.00163e-05
4.04878e-05
3.99979e-05
4.10096e-05
4.25075e-05
4.73003e-05
5.10249e-05
5.38007e-05
5.8877e-05
6.1404e-05
6.79459e-05
6.95187e-05
6.8841e-05
7.05703e-05
7.66219e-05
2.06364e-05
2.42954e-05
3.2947e-05
3.75183e-05
3.84757e-05
3.81837e-05
3.80791e-05
3.90253e-05
4.20816e-05
4.34876e-05
4.39699e-05
4.61148e-05
4.99928e-05
5.0422e-05
5.3465e-05
6.03223e-05
5.87193e-05
5.88936e-05
6.08908e-05
6.9218e-05
2.05337e-05
2.53148e-05
3.43532e-05
3.44815e-05
3.58612e-05
3.95812e-05
4.01796e-05
4.13711e-05
4.11813e-05
4.2395e-05
4.53673e-05
4.61774e-05
4.82749e-05
5.44378e-05
5.5551e-05
5.5584e-05
5.42436e-05
5.43545e-05
5.58036e-05
7.01319e-05
2.06175e-05
2.67882e-05
3.10863e-05
3.25379e-05
4.02014e-05
4.14982e-05
4.08649e-05
4.12758e-05
4.05334e-05
4.07358e-05
4.73562e-05
4.85023e-05
5.01022e-05
5.26976e-05
5.28898e-05
5.18881e-05
5.27827e-05
5.40862e-05
5.69139e-05
6.91506e-05
2.06519e-05
2.80791e-05
2.98776e-05
3.55366e-05
4.22385e-05
4.18845e-05
4.15661e-05
4.31264e-05
4.29567e-05
4.77685e-05
4.96564e-05
5.03216e-05
5.32828e-05
5.37087e-05
5.34385e-05
5.45568e-05
5.64885e-05
5.77493e-05
5.79794e-05
5.92063e-05
2.08454e-05
2.63085e-05
2.95271e-05
4.2786e-05
4.45733e-05
4.40387e-05
4.70949e-05
4.71504e-05
4.66147e-05
5.23583e-05
5.19747e-05
5.21407e-05
5.88703e-05
5.90815e-05
5.92039e-05
6.1312e-05
6.12572e-05
6.14759e-05
6.18138e-05
6.53358e-05
2.09231e-05
2.52924e-05
3.54508e-05
4.73207e-05
4.63081e-05
4.79092e-05
5.22733e-05
5.0096e-05
5.19892e-05
5.6348e-05
5.61477e-05
6.12668e-05
6.53509e-05
6.41896e-05
6.46712e-05
6.49666e-05
6.49363e-05
6.5424e-05
6.69877e-05
7.45683e-05
2.11631e-05
2.60758e-05
4.28722e-05
4.66062e-05
4.73457e-05
5.53638e-05
5.39443e-05
5.19823e-05
5.913e-05
6.07881e-05
6.38339e-05
7.06101e-05
6.98952e-05
6.95959e-05
7.02359e-05
7.12273e-05
7.31863e-05
7.80098e-05
8.15738e-05
8.94993e-05
2.15802e-05
2.78854e-05
4.30425e-05
4.66868e-05
5.67323e-05
5.92432e-05
5.55641e-05
5.79864e-05
6.54921e-05
6.70818e-05
7.41491e-05
7.75772e-05
7.88111e-05
8.07335e-05
8.17554e-05
8.46353e-05
9.15518e-05
9.81398e-05
0.000110009
0.000143894
2.17883e-05
3.02726e-05
4.00311e-05
5.76578e-05
6.64457e-05
6.45771e-05
6.35313e-05
6.9951e-05
7.29452e-05
8.19051e-05
8.83653e-05
9.59135e-05
0.000107481
0.000111542
0.000115319
0.000129203
0.000150522
0.000197953
0.000295887
0.000556382
2.26097e-05
3.01684e-05
5.3352e-05
7.27264e-05
7.71286e-05
7.61728e-05
8.00043e-05
8.97094e-05
9.92126e-05
0.000126785
0.000153094
0.000179452
0.00023646
0.000266781
0.000313265
0.000469957
0.000658794
0.0011109
0.0018342
0.00369236
2.28126e-05
3.34619e-05
8.52391e-05
9.50253e-05
0.000102394
0.000118744
0.000147743
0.000227115
0.000297863
0.000475223
0.000611931
0.00083392
0.00125797
0.00168248
0.00215136
0.0036025
0.00493288
0.00821769
0.0119786
0.0233507
2.44434e-05
4.98115e-05
0.000163565
0.000194685
0.000258154
0.000481788
0.000732399
0.00145192
0.00201845
0.00346144
0.00450673
0.00655521
0.0093667
0.0129807
0.0159041
0.0243062
0.0304576
0.0452353
0.0583964
0.100269
2.8248e-05
0.00014828
0.000601441
0.000923378
0.00158854
0.00387179
0.00591237
0.011252
0.0152982
0.0248707
0.0310147
0.0420377
0.0561106
0.0714245
0.0820378
0.110922
0.128921
0.16888
0.199046
0.291192
5.01941e-05
0.00086749
0.00377417
0.00674611
0.0126718
0.0295642
0.0416679
0.067909
0.089536
0.126268
0.149392
0.1806
0.223399
0.256129
0.279728
0.338359
0.369578
0.431801
0.474639
0.582898
0.000281686
0.00624652
0.0265238
0.0466598
0.0860273
0.160877
0.209035
0.283743
0.357045
0.420054
0.473662
0.522085
0.58438
0.618915
0.650333
0.712165
0.74078
0.796258
0.83532
0.921464
0.0027415
0.0433603
0.155234
0.247021
0.419748
0.574015
0.700582
0.812001
0.908697
0.963709
1.01333
1.04072
1.08273
1.09181
1.11067
1.13794
1.15547
1.17966
1.21018
1.24838
0.0259717
0.262664
0.657318
0.94258
1.25539
1.42659
1.54677
1.59518
1.63184
1.62187
1.6183
1.59781
1.59388
1.56796
1.56418
1.54982
1.54935
1.54058
1.54374
1.53769
0.207104
1.19417
1.93486
2.30981
2.52716
2.5117
2.47963
2.38595
2.33009
2.22033
2.17509
2.08712
2.05585
1.98501
1.96405
1.90677
1.8894
1.8418
1.81486
1.77252
1.31915
3.28797
3.99985
3.95552
3.78463
3.43821
3.24811
2.9927
2.86598
2.68593
2.60755
2.47414
2.42186
2.31598
2.27956
2.17986
2.1439
2.04733
1.98508
1.88466
4.50224
6.21415
5.84381
5.04139
4.43885
3.90276
3.62401
3.29019
3.13087
2.91775
2.82791
2.6731
2.60708
2.47916
2.43062
2.29219
2.23489
2.08674
1.98926
1.80775
9.28485
7.419
5.12275
3.92708
3.35514
2.93169
2.70979
2.45493
2.33586
2.17644
2.11259
1.99672
1.93969
1.83041
1.78636
1.65332
1.58157
1.4234
1.30522
1.09416
1.36696
0.748295
0.69373
0.714378
0.696572
0.699461
0.634754
0.582934
0.496027
0.488165
0.497469
0.561136
0.884303
0.464297
0.39317
0.335149
0.152793
0.134713
0.129399
0.120877
0.14522
0.163934
0.182948
0.19758
0.1963
0.17232
0.159375
0.161084
0.169426
0.189856
0.212649
0.209651
0.196176
0.156672
0.0684907
0.0277696
0.0116552
0.00535657
0.00353109
0.00288487
0.0023343
0.0022699
0.00229655
0.0023794
0.00319062
0.00850498
0.0376195
0.127196
0.17476
0.172404
0.117829
0.0561779
0.0436141
0.0468956
0.0570867
0.0618386
0.0597746
0.0576897
0.0594814
0.0625632
0.0616123
0.0562149
0.0508596
0.0487723
0.049047
0.0530762
0.0622455
0.0671532
0.0678669
0.0636924
0.0440088
0.0284573
0.0208986
0.0150353
0.0106838
0.00923636
0.00967908
0.00994728
0.00970956
0.00941818
0.00923489
0.00940011
0.0105286
0.0152101
0.0304931
0.040564
0.0428922
0.0421346
0.0363811
0.0292071
0.0258745
0.0239574
0.0228922
0.0219823
0.0212021
0.0207237
0.0208811
0.0233865
0.0306254
0.0353959
0.0394614
0.0544853
0.0751914
0.0787574
0.07797
0.0766704
0.0691246
0.0597363
0.0596262
0.0587784
0.0598065
0.0551518
0.043388
0.0364592
0.0347596
0.0358738
0.0403965
0.0500352
0.0606915
0.0667474
0.0675524
0.0599849
0.0429054
0.0303826
0.0250441
0.0240546
0.0218266
0.021022
0.0210427
0.0207251
0.0207833
0.0225662
0.0294256
0.0346165
0.0367272
0.0372976
0.0381465
0.0397539
0.044058
0.0590429
0.0787164
0.0916566
0.0956018
0.095646
0.0950982
0.0906176
0.0899098
0.0911786
0.0924498
0.0924095
0.0865421
0.0771088
0.0755832
0.0801678
0.0869498
0.0882317
0.0812379
0.0592939
0.0384788
0.0259635
0.0168464
0.0120023
0.00822607
0.0063761
0.00467652
0.0040165
0.0032675
0.00302896
0.00258484
0.00246546
0.00220512
0.00213274
0.00191757
0.00185512
0.00169561
0.0016638
0.00159493
0.00154561
0.00153577
0.00148173
0.00149697
0.00140635
0.00133062
0.00109161
0.000846653
0.000678493
0.000580391
0.000551332
0.000451689
0.000420255
0.000313112
0.000306089
0.000370123
0.00034132
0.000375345
0.000527024
0.00103446
0.00317864
0.0347393
0.448842
2.04564
1.52153
1.17674
1.02405
0.844863
0.77353
0.656862
0.584384
0.501777
0.435653
0.454321
0.457593
0.765364
0.682411
0.576196
0.471088
0.199922
0.14175
0.1483
0.163879
0.181224
0.195686
0.208191
0.212769
0.207395
0.188419
0.190788
0.204028
0.233035
0.240006
0.232289
0.214692
0.17145
0.0772846
0.0322697
0.013603
0.00621683
0.00349091
0.00284754
0.0024532
0.00209312
0.00208899
0.00217527
0.00241267
0.00380311
0.011471
0.0555761
0.145929
0.178606
0.164001
0.0866349
0.0499457
0.0428343
0.0474055
0.0579102
0.0610762
0.0595114
0.0548675
0.0560421
0.0598098
0.0594398
0.0546188
0.0495783
0.0473923
0.0475052
0.0501477
0.0596251
0.0656976
0.0671968
0.0645957
0.0472637
0.0302392
0.0217808
0.015588
0.0109291
0.00920234
0.00945174
0.00976001
0.00942757
0.00916607
0.00884092
0.00886445
0.00954607
0.0124859
0.0246021
0.0380339
0.0423478
0.0423523
0.0399403
0.0320465
0.0270491
0.024319
0.023009
0.0222924
0.0215476
0.0209139
0.0209025
0.0230193
0.0313602
0.0367959
0.0406429
0.0526731
0.0749169
0.0791936
0.0777896
0.0761554
0.0689794
0.0606905
0.0602623
0.0601076
0.0628767
0.0596441
0.0465321
0.0374888
0.0349488
0.0360725
0.0414466
0.050844
0.0616549
0.067934
0.0686313
0.0603756
0.0423354
0.0300031
0.0247513
0.0241802
0.0232805
0.0219168
0.0214442
0.0204845
0.0203291
0.0212327
0.0265706
0.0324844
0.0353655
0.0364743
0.037094
0.0381758
0.0409908
0.0525034
0.0698099
0.0829064
0.0926209
0.0945122
0.0941937
0.0937645
0.0925961
0.0936368
0.0933994
0.0924274
0.0826924
0.0756602
0.0753919
0.0820395
0.0884577
0.0879876
0.0791996
0.054268
0.0366063
0.023711
0.0162148
0.0110151
0.00813467
0.00577928
0.00461329
0.003515
0.00308818
0.00262807
0.00252129
0.0023188
0.00230555
0.00222256
0.00222821
0.0021436
0.00210222
0.00193086
0.00183994
0.00163877
0.00156477
0.00148723
0.00140768
0.00140314
0.00132328
0.00131972
0.00113951
0.000981852
0.000670519
0.000562614
0.00053205
0.000443043
0.000414386
0.000335472
0.000350778
0.000475775
0.000442414
0.000556324
0.00123939
0.00275774
0.0335159
0.31571
1.79903
1.54954
1.23615
1.06867
0.871588
0.767727
0.661253
0.543824
0.49894
0.386081
0.388423
0.393988
0.514202
0.727661
0.700559
0.617969
0.349238
0.194937
0.184285
0.196602
0.196983
0.206459
0.216527
0.217856
0.219001
0.225516
0.2471
0.262784
0.262361
0.253771
0.230747
0.180209
0.0819611
0.0360909
0.0153926
0.00698738
0.00374861
0.0026504
0.00246585
0.00212702
0.00191043
0.00195041
0.00212866
0.00255661
0.00466961
0.0155811
0.0764994
0.161184
0.17985
0.147565
0.0758143
0.0514169
0.047321
0.05361
0.0606735
0.0614474
0.0596087
0.0534132
0.053366
0.0565064
0.0564856
0.052712
0.0482659
0.0461647
0.0462535
0.0479871
0.0566389
0.064146
0.0664414
0.0649109
0.0500246
0.0318512
0.0227379
0.0164582
0.0114336
0.00917774
0.00912911
0.00937183
0.0089563
0.0087895
0.00841126
0.00841105
0.00880421
0.0107113
0.0194497
0.0339053
0.0410704
0.0421995
0.0413348
0.0371677
0.0295236
0.0253806
0.0235546
0.0226617
0.0220459
0.0217095
0.0218277
0.0247492
0.0331399
0.0382993
0.0418826
0.0511741
0.0747661
0.0795959
0.0777514
0.0754597
0.0687013
0.0608413
0.0600325
0.0610343
0.0660806
0.0634174
0.0501782
0.0385934
0.0354096
0.0370224
0.0427203
0.0520071
0.0630705
0.069319
0.0696829
0.06125
0.042122
0.0298657
0.0245652
0.0242021
0.0238665
0.0224986
0.0215917
0.0203705
0.0200114
0.0204767
0.0241509
0.0305854
0.0339131
0.0356652
0.0367386
0.0375307
0.0391807
0.0454913
0.0638955
0.0768458
0.0852455
0.0923602
0.0928041
0.0930336
0.0939422
0.0933272
0.0935464
0.0896077
0.0790199
0.0739528
0.075513
0.0852508
0.0889428
0.0881847
0.0746685
0.0514791
0.034006
0.0225773
0.0151946
0.0107491
0.00777306
0.00587147
0.00445228
0.0035519
0.00285496
0.00245478
0.00215825
0.00209794
0.00206452
0.00214404
0.00215781
0.00231624
0.00231818
0.00243594
0.00236431
0.00229301
0.0019858
0.00178933
0.00151546
0.00142421
0.00134858
0.00124414
0.00123509
0.00109854
0.000972174
0.000673919
0.000563704
0.000540027
0.000450893
0.000494189
0.000402597
0.000439868
0.000588623
0.000629985
0.00149558
0.00258058
0.0302096
0.201884
1.44456
1.30208
1.08866
0.9384
0.805671
0.670793
0.59787
0.481539
0.437822
0.332057
0.316852
0.318475
0.366014
0.576233
0.684743
0.649981
0.509334
0.293769
0.208557
0.200058
0.191675
0.193705
0.205531
0.21715
0.239468
0.269842
0.277843
0.275368
0.265684
0.23709
0.173582
0.0831773
0.037543
0.0168853
0.00749919
0.00401008
0.00265109
0.00225448
0.00210928
0.00183929
0.00176667
0.00186369
0.00212182
0.00282089
0.00595349
0.0214764
0.0992026
0.172846
0.177862
0.12194
0.0733224
0.0599158
0.0565747
0.0621552
0.0647045
0.0629195
0.0594931
0.0531769
0.051714
0.0532184
0.0532711
0.0504282
0.0469941
0.0450947
0.045137
0.0463096
0.0541944
0.0627957
0.0656718
0.0647746
0.0524494
0.0335546
0.0237281
0.0172452
0.011899
0.009256
0.00881792
0.00897477
0.00854916
0.00850153
0.00826677
0.00796615
0.00812472
0.00933055
0.0148891
0.0297602
0.039022
0.0417355
0.0415818
0.0399517
0.0347721
0.0279797
0.024696
0.0235033
0.0235426
0.0252124
0.0266959
0.0296722
0.0353699
0.0396402
0.042787
0.0499837
0.0741503
0.0799387
0.0776523
0.0749999
0.0682712
0.0607782
0.0595546
0.0614656
0.0686169
0.0666266
0.0547124
0.0403793
0.0364294
0.0387691
0.044342
0.0544941
0.0638322
0.0697305
0.0701852
0.0625766
0.0421312
0.0298653
0.024465
0.0241716
0.0239437
0.0224945
0.0212153
0.0200268
0.0197811
0.0200457
0.0222759
0.0286711
0.0323929
0.0343413
0.0359925
0.036969
0.0382309
0.0417932
0.0527389
0.0716605
0.0815774
0.0863933
0.0912825
0.0912627
0.0925405
0.0925902
0.0913476
0.0849649
0.0746048
0.0730702
0.0776307
0.0875512
0.08991
0.0877736
0.0695642
0.0482295
0.0314542
0.0216176
0.0142984
0.0107276
0.00759418
0.00640302
0.00484521
0.00430688
0.00333549
0.00294928
0.0024076
0.00222729
0.00205638
0.00197391
0.00197225
0.00199653
0.00212563
0.00218962
0.0024474
0.00247211
0.00266385
0.00255067
0.00237805
0.00186288
0.00155636
0.00133429
0.00122546
0.00124605
0.00113342
0.00103094
0.000715134
0.000607443
0.000504527
0.000483508
0.000581438
0.000565776
0.000719249
0.000702813
0.00240462
0.00285256
0.0250599
0.130774
1.14999
1.04467
0.882614
0.747678
0.671736
0.533245
0.489085
0.406118
0.365519
0.264971
0.224003
0.217457
0.244662
0.383978
0.547602
0.61623
0.581222
0.405148
0.248713
0.20151
0.182903
0.182203
0.204434
0.245139
0.281113
0.291303
0.285384
0.266617
0.230136
0.154256
0.0794259
0.0374149
0.0172993
0.00804608
0.00404883
0.00273831
0.00215037
0.00190992
0.00177994
0.00166768
0.00167989
0.00181967
0.00218431
0.00321287
0.00767771
0.0300453
0.122435
0.179629
0.174019
0.107641
0.076287
0.071303
0.0632477
0.0665073
0.0672886
0.063844
0.0590153
0.0533942
0.0504146
0.0508046
0.050451
0.0481071
0.0459734
0.0445398
0.0445395
0.0452252
0.0515562
0.0611138
0.0648796
0.0645178
0.0543961
0.0351785
0.0249945
0.0182422
0.0125157
0.00940619
0.00850464
0.00864006
0.00828183
0.00819092
0.00806019
0.00771181
0.00771747
0.00840483
0.0118108
0.0246322
0.0361684
0.0408147
0.0414185
0.0409462
0.0389369
0.0338483
0.0284828
0.0278042
0.0287293
0.031828
0.0334352
0.034619
0.0371827
0.0404129
0.0434262
0.0492349
0.0730139
0.0802474
0.077805
0.0745654
0.0676639
0.0604619
0.0586939
0.0612962
0.0701219
0.0692786
0.0600574
0.0428963
0.03809
0.0408252
0.0457726
0.0575885
0.063928
0.0699443
0.0706305
0.064404
0.0427221
0.0301947
0.0244896
0.0240099
0.0237332
0.02193
0.0204227
0.0194798
0.0194242
0.0196875
0.021131
0.0271919
0.031481
0.0335029
0.0351219
0.0361936
0.0373694
0.0399927
0.0467944
0.0610103
0.0772774
0.082645
0.086202
0.090061
0.0896334
0.0899734
0.0879225
0.0795693
0.0722793
0.0725221
0.0810722
0.0894788
0.0906594
0.0852836
0.0640822
0.0430313
0.0291147
0.0191012
0.0133956
0.00907034
0.00707295
0.00530319
0.00481036
0.00395271
0.00377024
0.00332839
0.0032664
0.00300949
0.00295597
0.0026665
0.00259005
0.00231785
0.00226509
0.00218353
0.0021973
0.00228702
0.00236863
0.00269435
0.0026698
0.00280887
0.00246871
0.00214436
0.00148906
0.00129439
0.00127619
0.00114864
0.00116248
0.000895769
0.000645294
0.00056921
0.000598968
0.000588885
0.00106334
0.000939649
0.00562312
0.00387567
0.018474
0.0828739
0.853105
0.766465
0.649694
0.512609
0.459262
0.361038
0.330634
0.279648
0.250951
0.194394
0.132949
0.120249
0.123226
0.22967
0.318653
0.507886
0.554089
0.498368
0.31749
0.220862
0.200704
0.213138
0.269968
0.306199
0.310662
0.304449
0.267258
0.217338
0.139672
0.0740783
0.0365305
0.0170988
0.00822813
0.00420253
0.00261206
0.00216504
0.00179282
0.00161054
0.0016162
0.00157768
0.00159488
0.00178657
0.00228437
0.00386868
0.0102587
0.0430514
0.143352
0.184275
0.16589
0.0980267
0.0879872
0.0753035
0.0632542
0.0664724
0.0691499
0.0642077
0.0587623
0.0537601
0.0494093
0.0494004
0.0486485
0.0461612
0.0451321
0.0443229
0.0443176
0.0446745
0.0496516
0.060011
0.0644686
0.0643318
0.0556206
0.0369455
0.0267172
0.0196349
0.0133568
0.00968997
0.00844507
0.00842789
0.00801173
0.00759186
0.007675
0.00746467
0.00733369
0.00772437
0.00995877
0.0192143
0.0323349
0.0393038
0.0410119
0.0409352
0.0403555
0.0383323
0.0341873
0.033529
0.0340543
0.0364571
0.0375705
0.0378101
0.0384983
0.0407708
0.0437065
0.0483348
0.0718113
0.0804552
0.0781794
0.0743217
0.0674079
0.0597468
0.0576078
0.0606423
0.0703192
0.0712944
0.0660077
0.0466135
0.040459
0.0424414
0.0464826
0.0586387
0.0633754
0.0704478
0.0721266
0.06697
0.0440291
0.0306287
0.0247302
0.0236637
0.0230177
0.0207312
0.0193163
0.0190351
0.019123
0.0193912
0.0203794
0.0256648
0.0310132
0.0334404
0.0349725
0.0359931
0.0371251
0.0388997
0.0430687
0.0544344
0.0665062
0.0784513
0.0817644
0.0855863
0.0864226
0.0852269
0.0832558
0.0730843
0.0707671
0.0729311
0.0849036
0.0906401
0.0902826
0.0809124
0.0568934
0.0389818
0.0257615
0.0173923
0.0117717
0.00833171
0.00587189
0.00448652
0.00350668
0.0031428
0.00288999
0.00290034
0.00288054
0.00295456
0.00291404
0.00301523
0.00298231
0.00305354
0.00291799
0.00283992
0.00253604
0.00243924
0.00233508
0.00236546
0.00247917
0.00254529
0.00283912
0.00274189
0.0025699
0.00182597
0.00151102
0.00126186
0.00126732
0.00125645
0.000973374
0.000666873
0.000967289
0.00076913
0.00260027
0.00150548
0.00822689
0.0052659
0.0145868
0.0551172
0.551465
0.478071
0.399823
0.291055
0.255646
0.196692
0.179333
0.167633
0.135215
0.108553
0.0625472
0.0567591
0.0547318
0.0971093
0.156586
0.264867
0.48688
0.483719
0.433414
0.352044
0.331037
0.341666
0.35664
0.35454
0.324732
0.270279
0.205421
0.132213
0.0720097
0.0346563
0.0164078
0.00792387
0.00424088
0.00256818
0.00198179
0.00178351
0.00149676
0.00145905
0.00147701
0.00143084
0.00146527
0.00175616
0.00257046
0.00502037
0.0139387
0.0617016
0.16026
0.186422
0.151851
0.0954394
0.0906456
0.0738589
0.0604386
0.0654316
0.0705069
0.0650243
0.0583755
0.0539028
0.0491518
0.0487322
0.0479868
0.0453026
0.0448098
0.0443704
0.044289
0.0444288
0.0483394
0.0588178
0.0637789
0.0638107
0.0559716
0.0383217
0.0278811
0.0205923
0.0139466
0.0100664
0.00852807
0.00832814
0.00773885
0.00701988
0.00719434
0.00716639
0.00703638
0.00724009
0.00867774
0.0142378
0.0272246
0.0364799
0.0400527
0.0407335
0.0406387
0.0401239
0.0381284
0.0371837
0.0373466
0.038515
0.0390788
0.0388694
0.03915
0.0409651
0.0438395
0.0479912
0.0696795
0.0806959
0.0785205
0.0740974
0.0673997
0.0589435
0.0563044
0.0588505
0.0697881
0.0731603
0.0709023
0.0518703
0.0432361
0.0431522
0.0466157
0.0586974
0.0625479
0.0716868
0.0744954
0.0693824
0.0456931
0.0310326
0.0251676
0.0234495
0.0219916
0.0193166
0.0185438
0.0185974
0.0189555
0.0193407
0.0199951
0.0240436
0.030197
0.0334678
0.0352065
0.0360887
0.0372886
0.0385537
0.0410095
0.0493882
0.0602749
0.0688759
0.0781678
0.0805487
0.0815282
0.0809124
0.0754029
0.0696585
0.0688261
0.0776652
0.0873266
0.0913495
0.0893764
0.0746819
0.0514088
0.0358108
0.023736
0.0163568
0.0111737
0.00806467
0.00581991
0.00436192
0.00346909
0.00280792
0.00251284
0.00221599
0.00219451
0.00219363
0.00236805
0.00244563
0.00277863
0.00285573
0.00327096
0.00327813
0.00348608
0.00332897
0.00320321
0.00280877
0.00263272
0.00249837
0.0025625
0.00284591
0.00287304
0.00307562
0.00248755
0.00164841
0.0015197
0.00138086
0.00157013
0.00113835
0.00178584
0.00115971
0.00401635
0.00263212
0.0223556
0.00961538
0.0125876
0.0368418
0.269699
0.210103
0.158895
0.109063
0.0947939
0.0759056
0.0733793
0.0726236
0.0577995
0.0436873
0.0243873
0.0232474
0.022537
0.0319494
0.0651729
0.104769
0.291859
0.433781
0.432977
0.423947
0.413833
0.40243
0.387987
0.34121
0.263479
0.18894
0.111959
0.0604474
0.0301432
0.0143055
0.00713384
0.00393793
0.00255328
0.00186315
0.00163046
0.00148791
0.00135091
0.0013468
0.00132063
0.00127847
0.00140989
0.00190506
0.00317813
0.00688688
0.0191285
0.0834501
0.174577
0.187521
0.137936
0.0985483
0.0888545
0.0651006
0.0558993
0.0650226
0.0727268
0.0674384
0.0580437
0.0542228
0.0493635
0.0485556
0.0482631
0.0458094
0.0447814
0.0443787
0.0443348
0.0442316
0.0472542
0.0580274
0.063363
0.0633206
0.0559944
0.0389765
0.0283302
0.0208279
0.0143165
0.0103149
0.00871351
0.00827229
0.00739766
0.00646327
0.00652435
0.00693059
0.00687263
0.00696266
0.0078372
0.0110245
0.0210377
0.0318322
0.0381093
0.0401219
0.040653
0.0406635
0.0401291
0.0390695
0.0389638
0.0393047
0.0394167
0.0390942
0.0394517
0.041342
0.0440192
0.0474731
0.0677682
0.0805887
0.0789623
0.0735515
0.0674129
0.0583033
0.0547243
0.0564613
0.067638
0.0746742
0.0749449
0.0586514
0.0459692
0.0434241
0.04647
0.0582898
0.0625376
0.073665
0.0765062
0.0706383
0.047173
0.0314113
0.0258739
0.0234299
0.0215975
0.0188845
0.0182447
0.0185511
0.0190218
0.0193769
0.0199528
0.0233157
0.0295614
0.0333953
0.0353759
0.0369547
0.0379216
0.0388698
0.0403665
0.0444405
0.0545331
0.0625639
0.0708408
0.0756155
0.0753871
0.0746001
0.0687774
0.0674053
0.0697816
0.0838385
0.088891
0.0915349
0.0865063
0.0672871
0.0460397
0.0323976
0.021607
0.0149827
0.0106993
0.00776787
0.00608365
0.00460637
0.00399915
0.00319567
0.00292647
0.0024876
0.00236199
0.00219076
0.00217265
0.00210657
0.00212051
0.00217812
0.00233075
0.00275852
0.00298244
0.00361088
0.00375238
0.0042234
0.00397646
0.00352247
0.0029314
0.00279556
0.00285921
0.00305859
0.00387483
0.00304921
0.00305034
0.00221011
0.00288603
0.00188457
0.00350634
0.0022643
0.0179931
0.00743245
0.0270871
0.0212541
0.0162804
0.0272359
0.0901411
0.0632439
0.0473919
0.0346709
0.0320514
0.0294241
0.0292638
0.0282643
0.0200631
0.0149656
0.00847775
0.00819123
0.00835099
0.0109088
0.0218084
0.0361871
0.0875894
0.250082
0.364575
0.396449
0.395287
0.380887
0.326745
0.237974
0.154691
0.0902982
0.048432
0.0251198
0.0120835
0.00595591
0.00344766
0.00237797
0.00185695
0.00153025
0.0013926
0.00135615
0.0012618
0.00119751
0.0011679
0.0012165
0.00147154
0.00231756
0.00431738
0.00972691
0.0265118
0.108339
0.186132
0.187817
0.125742
0.0980897
0.0830842
0.0590893
0.0555456
0.0658097
0.0756162
0.0702138
0.0583745
0.0553011
0.0507629
0.0487675
0.0492418
0.047704
0.0450824
0.0443042
0.044368
0.0442241
0.0469996
0.0579594
0.063259
0.0630671
0.0567845
0.039963
0.0287929
0.0208365
0.014401
0.010575
0.00889784
0.00813989
0.00705912
0.00603205
0.00597041
0.00651584
0.00676065
0.0067985
0.00732447
0.00926217
0.0161961
0.0270432
0.0343101
0.0386471
0.0403936
0.0409585
0.0407496
0.0400696
0.0401049
0.0402488
0.0399007
0.039574
0.0401626
0.0420625
0.0441616
0.0468461
0.0652359
0.08004
0.0793759
0.0730632
0.0672237
0.0577059
0.0533838
0.0541308
0.0641092
0.0759025
0.078233
0.0660506
0.0487157
0.043087
0.0460241
0.0567704
0.0624328
0.0759032
0.0767891
0.0711679
0.0496567
0.0323177
0.0269521
0.0237047
0.0215341
0.0188573
0.0182023
0.0188686
0.0194098
0.0195583
0.020006
0.0226967
0.029418
0.0332972
0.0352225
0.0376368
0.0401176
0.0402596
0.0408269
0.0428335
0.048309
0.0567794
0.0640599
0.0680474
0.0683346
0.0674464
0.0655254
0.0661064
0.0761909
0.0871753
0.0896016
0.0900907
0.0806946
0.060656
0.0411204
0.0289036
0.0192721
0.0137605
0.00959593
0.00736919
0.00537012
0.00458885
0.00376267
0.00343992
0.00304094
0.00286286
0.00280394
0.00266507
0.00262568
0.00249019
0.00256635
0.00246048
0.00251327
0.00258031
0.00265878
0.00286968
0.00334984
0.00362316
0.00489155
0.00463033
0.00557675
0.00419837
0.00418249
0.00359102
0.00430185
0.00390307
0.00493949
0.00342424
0.00632761
0.00428758
0.0300109
0.0120208
0.0363507
0.0170596
0.0234627
0.0230898
0.0220955
0.0273701
0.02016
0.0140546
0.0118868
0.0106261
0.0107719
0.0104693
0.00973981
0.00855916
0.00542463
0.00402969
0.00262711
0.00267492
0.00305427
0.00399149
0.00714566
0.0114792
0.025462
0.0786178
0.182776
0.241399
0.243961
0.223843
0.168483
0.110349
0.06782
0.037997
0.0194566
0.00970205
0.00476926
0.00281483
0.00213853
0.00179968
0.00154125
0.00133268
0.00129773
0.0012746
0.00114081
0.00106196
0.00108762
0.00120746
0.00171306
0.00314445
0.006279
0.0141708
0.037403
0.134461
0.194833
0.186582
0.118679
0.0923402
0.072903
0.0596019
0.0581437
0.0680839
0.0773799
0.0728667
0.0598778
0.0563154
0.0535981
0.0500077
0.0505353
0.0498971
0.0458367
0.0439039
0.0440054
0.0441088
0.0470759
0.0577048
0.0630309
0.0628225
0.0575262
0.0426561
0.0299755
0.0210988
0.0145756
0.0109519
0.00908196
0.00816158
0.00698349
0.00574673
0.00550494
0.00588461
0.00657495
0.00665952
0.00706207
0.00833102
0.0121079
0.0224431
0.030461
0.0358224
0.0396477
0.0413819
0.0413548
0.0411517
0.0418403
0.0424638
0.0417699
0.0413337
0.0422529
0.0430709
0.0441141
0.0460799
0.0624992
0.079572
0.0794575
0.0725384
0.0671591
0.0575112
0.0521583
0.0519769
0.0595974
0.0758407
0.0811212
0.0733635
0.0516665
0.0419314
0.0451772
0.0537929
0.0624377
0.0762662
0.0764581
0.0722904
0.0536743
0.0341167
0.0279187
0.0246765
0.0221997
0.0195932
0.0185828
0.0192221
0.0204033
0.0202304
0.020225
0.0225009
0.0294938
0.0334112
0.0351931
0.0379235
0.0414153
0.0427202
0.0425166
0.0432505
0.0461911
0.0518556
0.0576669
0.062183
0.0631116
0.0646397
0.0641206
0.0713958
0.0815144
0.0896025
0.0891449
0.0883872
0.0751106
0.0554379
0.0390705
0.0264474
0.0198236
0.0136038
0.0118589
0.00836356
0.00792852
0.00674094
0.00757769
0.0063233
0.0069962
0.00562681
0.00684974
0.00542476
0.00601349
0.00470347
0.0053102
0.00442668
0.00488059
0.00409024
0.00411837
0.00390179
0.00424067
0.00412979
0.00516825
0.00507132
0.00761883
0.00655487
0.00832031
0.00636291
0.00927309
0.00645338
0.0279882
0.0143238
0.100001
0.0442763
0.0909303
0.0481812
0.0532728
0.0378713
0.0348539
0.0263452
0.0249194
0.0280569
0.0035777
0.00372423
0.0038564
0.0037405
0.00354037
0.00282651
0.0023956
0.00182184
0.00127186
0.00103061
0.00101212
0.00127607
0.00185229
0.00217413
0.00322968
0.00421098
0.00730595
0.0197327
0.058935
0.0955219
0.0979529
0.0906617
0.0686015
0.0450584
0.0268181
0.014065
0.00709661
0.00366196
0.00225437
0.00186006
0.00174427
0.0015598
0.0013496
0.00124466
0.00123901
0.00119104
0.000968088
0.000964172
0.00105361
0.00133125
0.00232531
0.00487966
0.00966685
0.0205927
0.0529604
0.159544
0.201246
0.182273
0.112582
0.0829086
0.0698517
0.064765
0.0642442
0.0694593
0.0774049
0.0754276
0.0629282
0.0569759
0.0567362
0.0518367
0.0510528
0.0511992
0.0471844
0.0440148
0.0439072
0.0440663
0.047434
0.0578888
0.0622961
0.0622992
0.0574028
0.0446583
0.032737