/*--------------------------------*- C++ -*----------------------------------*\
| =========                 |                                                 |
| \\      /  F ield         | OpenFOAM: The Open Source CFD Toolbox           |
|  \\    /   O peration     | Version:  2.4.0                                 |
|   \\  /    A nd           | Web:      www.OpenFOAM.org                      |
|    \\/     M anipulation  |                                                 |
\*---------------------------------------------------------------------------*/
FoamFile
{
    version     2.0;
    format      ascii;
    class       volScalarField;
    location    "0.054";
    object      pPrime2Mean;
}
// * * * * * * * * * * * * * * * * * * * * * * * * * * * * * * * * * * * * * //

dimensions      [0 4 -4 0 0 0 0];

internalField   nonuniform List<scalar> 
17600
(
1.19637e+07
1.1662e+07
1.13377e+07
1.10162e+07
1.06993e+07
1.0387e+07
1.00793e+07
9.77629e+06
9.47784e+06
9.18399e+06
8.89471e+06
8.60995e+06
8.32963e+06
8.0536e+06
7.78158e+06
7.51304e+06
7.24693e+06
6.98116e+06
6.71097e+06
6.4203e+06
1.19639e+07
1.1662e+07
1.13376e+07
1.10162e+07
1.06993e+07
1.0387e+07
1.00793e+07
9.77629e+06
9.47784e+06
9.18399e+06
8.89471e+06
8.60995e+06
8.32964e+06
8.05361e+06
7.7816e+06
7.51308e+06
7.24701e+06
6.98132e+06
6.71136e+06
6.42102e+06
1.19641e+07
1.1662e+07
1.13376e+07
1.10162e+07
1.06993e+07
1.0387e+07
1.00793e+07
9.77629e+06
9.47785e+06
9.184e+06
8.89471e+06
8.60996e+06
8.32965e+06
8.05364e+06
7.78164e+06
7.51315e+06
7.24715e+06
6.98163e+06
6.71205e+06
6.42396e+06
1.19642e+07
1.16619e+07
1.13376e+07
1.10162e+07
1.06993e+07
1.0387e+07
1.00793e+07
9.77629e+06
9.47785e+06
9.184e+06
8.89472e+06
8.60997e+06
8.32966e+06
8.05367e+06
7.7817e+06
7.51326e+06
7.24737e+06
6.98208e+06
6.71312e+06
6.42811e+06
1.19644e+07
1.16619e+07
1.13376e+07
1.10161e+07
1.06993e+07
1.0387e+07
1.00793e+07
9.77629e+06
9.47785e+06
9.184e+06
8.89473e+06
8.60998e+06
8.32969e+06
8.05371e+06
7.78177e+06
7.5134e+06
7.24765e+06
6.98268e+06
6.71451e+06
6.43308e+06
1.19645e+07
1.16618e+07
1.13375e+07
1.10161e+07
1.06992e+07
1.0387e+07
1.00793e+07
9.77629e+06
9.47785e+06
9.18401e+06
8.89473e+06
8.60999e+06
8.32971e+06
8.05375e+06
7.78186e+06
7.51357e+06
7.24799e+06
6.9834e+06
6.7162e+06
6.43852e+06
1.19645e+07
1.16618e+07
1.13375e+07
1.10161e+07
1.06992e+07
1.0387e+07
1.00793e+07
9.77629e+06
9.47785e+06
9.18401e+06
8.89474e+06
8.61001e+06
8.32974e+06
8.05381e+06
7.78197e+06
7.51378e+06
7.2484e+06
6.98424e+06
6.71813e+06
6.44423e+06
1.19646e+07
1.16618e+07
1.13375e+07
1.10161e+07
1.06992e+07
1.0387e+07
1.00793e+07
9.77628e+06
9.47785e+06
9.18401e+06
8.89475e+06
8.61003e+06
8.32978e+06
8.05388e+06
7.7821e+06
7.51402e+06
7.24887e+06
6.98519e+06
6.72028e+06
6.45005e+06
1.19647e+07
1.16618e+07
1.13374e+07
1.10161e+07
1.06992e+07
1.0387e+07
1.00793e+07
9.77628e+06
9.47785e+06
9.18402e+06
8.89476e+06
8.61005e+06
8.32982e+06
8.05396e+06
7.78224e+06
7.51429e+06
7.24938e+06
6.98623e+06
6.72259e+06
6.45589e+06
1.19648e+07
1.16617e+07
1.13374e+07
1.10161e+07
1.06992e+07
1.0387e+07
1.00793e+07
9.77628e+06
9.47785e+06
9.18402e+06
8.89478e+06
8.61008e+06
8.32987e+06
8.05404e+06
7.7824e+06
7.51458e+06
7.24995e+06
6.98737e+06
6.72503e+06
6.46167e+06
1.19648e+07
1.16617e+07
1.13374e+07
1.10161e+07
1.06992e+07
1.0387e+07
1.00793e+07
9.77628e+06
9.47785e+06
9.18403e+06
8.89479e+06
8.6101e+06
8.32991e+06
8.05413e+06
7.78256e+06
7.51489e+06
7.25055e+06
6.98857e+06
6.72756e+06
6.46735e+06
1.19649e+07
1.16617e+07
1.13373e+07
1.10161e+07
1.06992e+07
1.0387e+07
1.00793e+07
9.77628e+06
9.47785e+06
9.18404e+06
8.8948e+06
8.61013e+06
8.32997e+06
8.05423e+06
7.78274e+06
7.51523e+06
7.2512e+06
6.98983e+06
6.73016e+06
6.47289e+06
1.1965e+07
1.16617e+07
1.13373e+07
1.10161e+07
1.06992e+07
1.0387e+07
1.00793e+07
9.77628e+06
9.47786e+06
9.18404e+06
8.89482e+06
8.61016e+06
8.33002e+06
8.05433e+06
7.78293e+06
7.51559e+06
7.25187e+06
6.99115e+06
6.73281e+06
6.47827e+06
1.1965e+07
1.16617e+07
1.13373e+07
1.10161e+07
1.06992e+07
1.0387e+07
1.00793e+07
9.77628e+06
9.47786e+06
9.18405e+06
8.89484e+06
8.61019e+06
8.33008e+06
8.05444e+06
7.78314e+06
7.51596e+06
7.25258e+06
6.9925e+06
6.73547e+06
6.48347e+06
1.1965e+07
1.16617e+07
1.13373e+07
1.1016e+07
1.06992e+07
1.0387e+07
1.00793e+07
9.77628e+06
9.47786e+06
9.18406e+06
8.89486e+06
8.61023e+06
8.33014e+06
8.05455e+06
7.78334e+06
7.51635e+06
7.2533e+06
6.99388e+06
6.73813e+06
6.48847e+06
1.19651e+07
1.16617e+07
1.13373e+07
1.1016e+07
1.06992e+07
1.0387e+07
1.00793e+07
9.77628e+06
9.47787e+06
9.18407e+06
8.89488e+06
8.61026e+06
8.33021e+06
8.05467e+06
7.78356e+06
7.51675e+06
7.25404e+06
6.99528e+06
6.74077e+06
6.49328e+06
1.19651e+07
1.16617e+07
1.13373e+07
1.1016e+07
1.06992e+07
1.0387e+07
1.00793e+07
9.77628e+06
9.47787e+06
9.18408e+06
8.89489e+06
8.6103e+06
8.33027e+06
8.05479e+06
7.78378e+06
7.51715e+06
7.2548e+06
6.99668e+06
6.74337e+06
6.49787e+06
1.19651e+07
1.16617e+07
1.13373e+07
1.1016e+07
1.06992e+07
1.0387e+07
1.00793e+07
9.77628e+06
9.47788e+06
9.18409e+06
8.89491e+06
8.61033e+06
8.33034e+06
8.05491e+06
7.784e+06
7.51757e+06
7.25556e+06
6.99808e+06
6.74592e+06
6.50226e+06
1.19651e+07
1.16617e+07
1.13372e+07
1.1016e+07
1.06992e+07
1.0387e+07
1.00793e+07
9.77629e+06
9.47788e+06
9.1841e+06
8.89494e+06
8.61037e+06
8.33041e+06
8.05504e+06
7.78423e+06
7.51798e+06
7.25632e+06
6.99947e+06
6.74842e+06
6.50645e+06
1.19651e+07
1.16617e+07
1.13372e+07
1.1016e+07
1.06992e+07
1.0387e+07
1.00793e+07
9.77629e+06
9.47789e+06
9.18411e+06
8.89496e+06
8.61041e+06
8.33048e+06
8.05516e+06
7.78446e+06
7.5184e+06
7.25707e+06
7.00084e+06
6.75084e+06
6.51042e+06
1.19651e+07
1.16617e+07
1.13372e+07
1.1016e+07
1.06992e+07
1.0387e+07
1.00793e+07
9.77629e+06
9.47789e+06
9.18413e+06
8.89498e+06
8.61045e+06
8.33055e+06
8.05529e+06
7.78469e+06
7.51881e+06
7.25783e+06
7.00219e+06
6.75318e+06
6.51419e+06
1.19651e+07
1.16617e+07
1.13372e+07
1.1016e+07
1.06992e+07
1.0387e+07
1.00793e+07
9.7763e+06
9.4779e+06
9.18414e+06
8.895e+06
8.61048e+06
8.33061e+06
8.05541e+06
7.78491e+06
7.51922e+06
7.25857e+06
7.0035e+06
6.75544e+06
6.51775e+06
1.19651e+07
1.16617e+07
1.13373e+07
1.1016e+07
1.06992e+07
1.0387e+07
1.00793e+07
9.7763e+06
9.47791e+06
9.18415e+06
8.89502e+06
8.61052e+06
8.33068e+06
8.05553e+06
7.78514e+06
7.51963e+06
7.25929e+06
7.00477e+06
6.7576e+06
6.52111e+06
1.19651e+07
1.16617e+07
1.13373e+07
1.1016e+07
1.06992e+07
1.0387e+07
1.00793e+07
9.7763e+06
9.47791e+06
9.18416e+06
8.89504e+06
8.61056e+06
8.33075e+06
8.05565e+06
7.78536e+06
7.52002e+06
7.25999e+06
7.006e+06
6.75966e+06
6.52426e+06
1.19651e+07
1.16617e+07
1.13373e+07
1.1016e+07
1.06992e+07
1.0387e+07
1.00793e+07
9.77631e+06
9.47792e+06
9.18417e+06
8.89506e+06
8.61059e+06
8.33081e+06
8.05577e+06
7.78557e+06
7.5204e+06
7.26067e+06
7.00718e+06
6.76162e+06
6.52722e+06
1.1965e+07
1.16617e+07
1.13373e+07
1.10161e+07
1.06992e+07
1.0387e+07
1.00793e+07
9.77631e+06
9.47793e+06
9.18418e+06
8.89508e+06
8.61063e+06
8.33088e+06
8.05589e+06
7.78577e+06
7.52077e+06
7.26133e+06
7.00831e+06
6.76347e+06
6.52998e+06
1.1965e+07
1.16617e+07
1.13373e+07
1.10161e+07
1.06992e+07
1.0387e+07
1.00793e+07
9.77632e+06
9.47794e+06
9.18419e+06
8.89509e+06
8.61066e+06
8.33094e+06
8.05599e+06
7.78597e+06
7.52113e+06
7.26195e+06
7.00938e+06
6.76521e+06
6.53254e+06
1.1965e+07
1.16617e+07
1.13373e+07
1.10161e+07
1.06992e+07
1.0387e+07
1.00793e+07
9.77632e+06
9.47794e+06
9.1842e+06
8.89511e+06
8.61069e+06
8.33099e+06
8.0561e+06
7.78616e+06
7.52146e+06
7.26254e+06
7.01039e+06
6.76683e+06
6.53492e+06
1.19649e+07
1.16617e+07
1.13373e+07
1.10161e+07
1.06992e+07
1.0387e+07
1.00793e+07
9.77633e+06
9.47795e+06
9.18421e+06
8.89513e+06
8.61072e+06
8.33105e+06
8.0562e+06
7.78634e+06
7.52178e+06
7.2631e+06
7.01133e+06
6.76834e+06
6.5371e+06
1.19649e+07
1.16617e+07
1.13374e+07
1.10161e+07
1.06992e+07
1.0387e+07
1.00793e+07
9.77634e+06
9.47796e+06
9.18422e+06
8.89515e+06
8.61075e+06
8.3311e+06
8.05629e+06
7.78651e+06
7.52208e+06
7.26361e+06
7.0122e+06
6.76972e+06
6.5391e+06
1.19648e+07
1.16618e+07
1.13374e+07
1.10161e+07
1.06992e+07
1.0387e+07
1.00794e+07
9.77634e+06
9.47797e+06
9.18423e+06
8.89516e+06
8.61078e+06
8.33115e+06
8.05638e+06
7.78666e+06
7.52235e+06
7.26409e+06
7.013e+06
6.77099e+06
6.54091e+06
1.19647e+07
1.16618e+07
1.13374e+07
1.10161e+07
1.06992e+07
1.0387e+07
1.00794e+07
9.77635e+06
9.47797e+06
9.18424e+06
8.89517e+06
8.6108e+06
8.33119e+06
8.05646e+06
7.7868e+06
7.5226e+06
7.26452e+06
7.01372e+06
6.77213e+06
6.54254e+06
1.19646e+07
1.16618e+07
1.13375e+07
1.10161e+07
1.06993e+07
1.0387e+07
1.00794e+07
9.77635e+06
9.47798e+06
9.18425e+06
8.89519e+06
8.61083e+06
8.33123e+06
8.05653e+06
7.78693e+06
7.52283e+06
7.26491e+06
7.01437e+06
6.77314e+06
6.54398e+06
1.19646e+07
1.16618e+07
1.13375e+07
1.10161e+07
1.06993e+07
1.0387e+07
1.00794e+07
9.77636e+06
9.47798e+06
9.18426e+06
8.8952e+06
8.61085e+06
8.33127e+06
8.05659e+06
7.78704e+06
7.52303e+06
7.26526e+06
7.01495e+06
6.77403e+06
6.54525e+06
1.19645e+07
1.16619e+07
1.13375e+07
1.10161e+07
1.06993e+07
1.0387e+07
1.00794e+07
9.77636e+06
9.47799e+06
9.18427e+06
8.89521e+06
8.61086e+06
8.3313e+06
8.05665e+06
7.78714e+06
7.5232e+06
7.26556e+06
7.01544e+06
6.77479e+06
6.54633e+06
1.19644e+07
1.16619e+07
1.13376e+07
1.10162e+07
1.06993e+07
1.0387e+07
1.00794e+07
9.77637e+06
9.47799e+06
9.18427e+06
8.89522e+06
8.61088e+06
8.33132e+06
8.0567e+06
7.78723e+06
7.52335e+06
7.26581e+06
7.01585e+06
6.77543e+06
6.54722e+06
1.19642e+07
1.16619e+07
1.13376e+07
1.10162e+07
1.06993e+07
1.0387e+07
1.00794e+07
9.77637e+06
9.478e+06
9.18427e+06
8.89522e+06
8.61089e+06
8.33135e+06
8.05673e+06
7.78729e+06
7.52347e+06
7.26601e+06
7.01619e+06
6.77594e+06
6.54794e+06
1.19641e+07
1.1662e+07
1.13376e+07
1.10162e+07
1.06993e+07
1.0387e+07
1.00794e+07
9.77637e+06
9.478e+06
9.18428e+06
8.89523e+06
8.6109e+06
8.33136e+06
8.05676e+06
7.78734e+06
7.52356e+06
7.26616e+06
7.01643e+06
6.77633e+06
6.54847e+06
1.19639e+07
1.1662e+07
1.13377e+07
1.10162e+07
1.06993e+07
1.0387e+07
1.00794e+07
9.77637e+06
9.478e+06
9.18428e+06
8.89523e+06
8.6109e+06
8.33137e+06
8.05678e+06
7.78738e+06
7.52362e+06
7.26626e+06
7.0166e+06
6.77659e+06
6.54882e+06
1.19637e+07
1.1662e+07
1.13377e+07
1.10162e+07
1.06993e+07
1.0387e+07
1.00794e+07
9.77637e+06
9.478e+06
9.18428e+06
8.89523e+06
8.61091e+06
8.33138e+06
8.05679e+06
7.78739e+06
7.52365e+06
7.26631e+06
7.01669e+06
6.77671e+06
6.54899e+06
6.14499e+06
6.07893e+06
6.0278e+06
5.98297e+06
5.94094e+06
5.90068e+06
5.86168e+06
5.82363e+06
5.78631e+06
5.74959e+06
5.71339e+06
5.67762e+06
5.64224e+06
5.60719e+06
5.57243e+06
5.53791e+06
5.5036e+06
5.46949e+06
5.43554e+06
5.40173e+06
5.36804e+06
5.33446e+06
5.30099e+06
5.26762e+06
5.23436e+06
5.20119e+06
5.1681e+06
5.13512e+06
5.10222e+06
5.06942e+06
5.03671e+06
5.0041e+06
4.97159e+06
4.93918e+06
4.90688e+06
4.87469e+06
4.84262e+06
4.81068e+06
4.77886e+06
4.74716e+06
4.71559e+06
4.68414e+06
4.65282e+06
4.62162e+06
4.59054e+06
4.55957e+06
4.52873e+06
4.49799e+06
4.46737e+06
4.43686e+06
4.40646e+06
4.37617e+06
4.34599e+06
4.31591e+06
4.28594e+06
4.25607e+06
4.2263e+06
4.19663e+06
4.16707e+06
4.13761e+06
4.10825e+06
4.079e+06
4.04986e+06
4.02083e+06
3.99191e+06
3.96309e+06
3.93439e+06
3.9058e+06
3.87732e+06
3.84894e+06
3.82067e+06
3.79251e+06
3.76445e+06
3.7365e+06
3.70865e+06
3.6809e+06
3.65327e+06
3.62573e+06
3.5983e+06
3.57098e+06
3.54375e+06
3.51664e+06
3.48962e+06
3.46272e+06
3.43591e+06
3.40921e+06
3.38262e+06
3.35613e+06
3.32974e+06
3.30346e+06
3.27728e+06
3.2512e+06
3.22523e+06
3.19937e+06
3.17361e+06
3.14795e+06
3.12239e+06
3.09694e+06
3.0716e+06
3.04636e+06
3.02122e+06
2.99619e+06
2.97126e+06
2.94643e+06
2.92171e+06
2.8971e+06
2.87258e+06
2.84818e+06
2.82387e+06
2.79967e+06
2.77557e+06
2.75158e+06
2.7277e+06
2.70391e+06
2.68023e+06
2.65666e+06
2.63319e+06
2.60982e+06
2.58656e+06
2.5634e+06
2.54034e+06
2.51739e+06
2.49454e+06
2.4718e+06
2.44916e+06
2.42663e+06
2.4042e+06
2.38187e+06
2.35965e+06
2.33753e+06
2.31552e+06
2.29361e+06
2.2718e+06
2.2501e+06
2.2285e+06
2.20701e+06
2.18562e+06
2.16434e+06
2.14316e+06
2.12208e+06
2.1011e+06
2.08024e+06
2.05947e+06
2.03881e+06
2.01825e+06
1.9978e+06
1.97745e+06
1.9572e+06
1.93706e+06
1.91702e+06
1.89709e+06
1.87726e+06
1.85753e+06
1.83791e+06
1.81839e+06
1.79897e+06
1.77966e+06
1.76045e+06
1.74135e+06
1.72234e+06
1.70344e+06
1.68465e+06
1.66595e+06
1.64736e+06
1.62887e+06
1.61049e+06
1.5922e+06
1.57402e+06
1.55594e+06
1.53796e+06
1.52008e+06
1.50229e+06
1.48461e+06
1.46703e+06
1.44954e+06
1.43215e+06
1.41486e+06
1.39766e+06
1.38055e+06
1.36352e+06
1.34659e+06
1.32974e+06
1.31297e+06
1.29627e+06
1.27964e+06
1.26308e+06
1.24656e+06
1.2301e+06
1.21366e+06
1.19723e+06
1.1808e+06
1.16434e+06
1.1478e+06
1.13115e+06
1.11432e+06
1.09719e+06
1.07963e+06
1.06139e+06
1.04162e+06
1.02008e+06
6.17614e+06
6.10425e+06
6.04775e+06
5.99928e+06
5.95477e+06
5.91263e+06
5.87214e+06
5.83285e+06
5.79449e+06
5.75689e+06
5.71991e+06
5.68347e+06
5.64749e+06
5.61191e+06
5.57667e+06
5.54172e+06
5.50703e+06
5.47257e+06
5.43831e+06
5.40422e+06
5.37028e+06
5.33648e+06
5.3028e+06
5.26925e+06
5.23583e+06
5.20251e+06
5.1693e+06
5.1362e+06
5.1032e+06
5.0703e+06
5.03751e+06
5.00483e+06
4.97225e+06
4.93978e+06
4.90743e+06
4.8752e+06
4.84309e+06
4.81111e+06
4.77925e+06
4.74752e+06
4.71592e+06
4.68445e+06
4.6531e+06
4.62188e+06
4.59078e+06
4.5598e+06
4.52894e+06
4.49819e+06
4.46756e+06
4.43704e+06
4.40663e+06
4.37634e+06
4.34615e+06
4.31606e+06
4.28608e+06
4.25621e+06
4.22643e+06
4.19675e+06
4.16718e+06
4.13771e+06
4.10834e+06
4.07908e+06
4.04992e+06
4.02088e+06
3.99195e+06
3.96314e+06
3.93443e+06
3.90583e+06
3.87735e+06
3.84897e+06
3.8207e+06
3.79253e+06
3.76447e+06
3.73651e+06
3.70866e+06
3.68092e+06
3.65328e+06
3.62574e+06
3.59831e+06
3.57098e+06
3.54376e+06
3.51664e+06
3.48963e+06
3.46272e+06
3.43592e+06
3.40922e+06
3.38262e+06
3.35613e+06
3.32974e+06
3.30346e+06
3.27728e+06
3.25121e+06
3.22524e+06
3.19937e+06
3.17361e+06
3.14795e+06
3.1224e+06
3.09695e+06
3.0716e+06
3.04636e+06
3.02122e+06
2.99619e+06
2.97126e+06
2.94643e+06
2.92171e+06
2.8971e+06
2.87258e+06
2.84817e+06
2.82387e+06
2.79967e+06
2.77557e+06
2.75158e+06
2.72769e+06
2.70391e+06
2.68023e+06
2.65665e+06
2.63318e+06
2.60981e+06
2.58655e+06
2.56339e+06
2.54034e+06
2.51738e+06
2.49454e+06
2.47179e+06
2.44916e+06
2.42662e+06
2.40419e+06
2.38186e+06
2.35964e+06
2.33752e+06
2.3155e+06
2.29359e+06
2.27179e+06
2.25008e+06
2.22848e+06
2.20699e+06
2.1856e+06
2.16431e+06
2.14312e+06
2.12204e+06
2.10107e+06
2.0802e+06
2.05943e+06
2.03876e+06
2.0182e+06
1.99774e+06
1.97739e+06
1.95713e+06
1.93699e+06
1.91694e+06
1.897e+06
1.87716e+06
1.85742e+06
1.83779e+06
1.81826e+06
1.79883e+06
1.77951e+06
1.76028e+06
1.74116e+06
1.72214e+06
1.70323e+06
1.68441e+06
1.66569e+06
1.64708e+06
1.62856e+06
1.61015e+06
1.59183e+06
1.57362e+06
1.5555e+06
1.53747e+06
1.51955e+06
1.50172e+06
1.48398e+06
1.46634e+06
1.44879e+06
1.43133e+06
1.41396e+06
1.39668e+06
1.37947e+06
1.36235e+06
1.34531e+06
1.32834e+06
1.31143e+06
1.29459e+06
1.2778e+06
1.26106e+06
1.24435e+06
1.22766e+06
1.21098e+06
1.19428e+06
1.17754e+06
1.16072e+06
1.14377e+06
1.12664e+06
1.10923e+06
1.09138e+06
1.07289e+06
1.05339e+06
1.03173e+06
1.00622e+06
6.20076e+06
6.12647e+06
6.06651e+06
6.01503e+06
5.96827e+06
5.92437e+06
5.88244e+06
5.84197e+06
5.8026e+06
5.76412e+06
5.72639e+06
5.68929e+06
5.65272e+06
5.61661e+06
5.5809e+06
5.54552e+06
5.51045e+06
5.47565e+06
5.44108e+06
5.40671e+06
5.37252e+06
5.33849e+06
5.30461e+06
5.27089e+06
5.2373e+06
5.20384e+06
5.17049e+06
5.13727e+06
5.10417e+06
5.07118e+06
5.0383e+06
5.00555e+06
4.9729e+06
4.94038e+06
4.90798e+06
4.8757e+06
4.84355e+06
4.81153e+06
4.77964e+06
4.74788e+06
4.71625e+06
4.68476e+06
4.65339e+06
4.62214e+06
4.59102e+06
4.56003e+06
4.52915e+06
4.49839e+06
4.46775e+06
4.43722e+06
4.40681e+06
4.3765e+06
4.34631e+06
4.31622e+06
4.28623e+06
4.25635e+06
4.22656e+06
4.19688e+06
4.16729e+06
4.13781e+06
4.10843e+06
4.07915e+06
4.04999e+06
4.02094e+06
3.992e+06
3.96318e+06
3.93447e+06
3.90587e+06
3.87737e+06
3.84899e+06
3.82072e+06
3.79255e+06
3.76449e+06
3.73653e+06
3.70868e+06
3.68093e+06
3.65329e+06
3.62575e+06
3.59832e+06
3.57099e+06
3.54377e+06
3.51665e+06
3.48964e+06
3.46273e+06
3.43592e+06
3.40922e+06
3.38263e+06
3.35613e+06
3.32975e+06
3.30346e+06
3.27728e+06
3.25121e+06
3.22524e+06
3.19937e+06
3.17361e+06
3.14795e+06
3.1224e+06
3.09695e+06
3.0716e+06
3.04636e+06
3.02122e+06
2.99619e+06
2.97126e+06
2.94643e+06
2.92171e+06
2.89709e+06
2.87258e+06
2.84817e+06
2.82387e+06
2.79967e+06
2.77557e+06
2.75158e+06
2.72769e+06
2.70391e+06
2.68023e+06
2.65665e+06
2.63318e+06
2.60981e+06
2.58655e+06
2.56339e+06
2.54033e+06
2.51738e+06
2.49453e+06
2.47179e+06
2.44915e+06
2.42661e+06
2.40418e+06
2.38185e+06
2.35963e+06
2.33751e+06
2.31549e+06
2.29358e+06
2.27177e+06
2.25006e+06
2.22846e+06
2.20697e+06
2.18557e+06
2.16428e+06
2.14309e+06
2.12201e+06
2.10103e+06
2.08016e+06
2.05938e+06
2.03871e+06
2.01815e+06
1.99768e+06
1.97732e+06
1.95707e+06
1.93691e+06
1.91686e+06
1.89691e+06
1.87706e+06
1.85732e+06
1.83768e+06
1.81813e+06
1.79869e+06
1.77936e+06
1.76012e+06
1.74098e+06
1.72195e+06
1.70301e+06
1.68417e+06
1.66544e+06
1.6468e+06
1.62826e+06
1.60981e+06
1.59146e+06
1.57321e+06
1.55506e+06
1.53699e+06
1.51902e+06
1.50115e+06
1.48336e+06
1.46566e+06
1.44804e+06
1.43051e+06
1.41307e+06
1.3957e+06
1.37841e+06
1.36119e+06
1.34403e+06
1.32694e+06
1.30991e+06
1.29292e+06
1.27597e+06
1.25905e+06
1.24215e+06
1.22525e+06
1.20833e+06
1.19136e+06
1.17431e+06
1.15715e+06
1.13981e+06
1.12222e+06
1.10426e+06
1.08576e+06
1.06642e+06
1.04586e+06
1.0228e+06
995198
6.22096e+06
6.14618e+06
6.08399e+06
6.03011e+06
5.98135e+06
5.93583e+06
5.89255e+06
5.85093e+06
5.81059e+06
5.77127e+06
5.7328e+06
5.69504e+06
5.65789e+06
5.62126e+06
5.58509e+06
5.5493e+06
5.51385e+06
5.47871e+06
5.44383e+06
5.40919e+06
5.37475e+06
5.3405e+06
5.30642e+06
5.27251e+06
5.23876e+06
5.20515e+06
5.17168e+06
5.13834e+06
5.10513e+06
5.07205e+06
5.03909e+06
5.00626e+06
4.97356e+06
4.94098e+06
4.90852e+06
4.8762e+06
4.84401e+06
4.81195e+06
4.78003e+06
4.74824e+06
4.71658e+06
4.68506e+06
4.65367e+06
4.6224e+06
4.59127e+06
4.56025e+06
4.52936e+06
4.49859e+06
4.46794e+06
4.4374e+06
4.40698e+06
4.37667e+06
4.34648e+06
4.31638e+06
4.28639e+06
4.2565e+06
4.2267e+06
4.19701e+06
4.16741e+06
4.13791e+06
4.10852e+06
4.07923e+06
4.05006e+06
4.021e+06
3.99205e+06
3.96322e+06
3.9345e+06
3.9059e+06
3.8774e+06
3.84902e+06
3.82074e+06
3.79257e+06
3.7645e+06
3.73654e+06
3.70869e+06
3.68094e+06
3.6533e+06
3.62576e+06
3.59833e+06
3.571e+06
3.54378e+06
3.51666e+06
3.48964e+06
3.46273e+06
3.43593e+06
3.40923e+06
3.38263e+06
3.35614e+06
3.32975e+06
3.30347e+06
3.27729e+06
3.25121e+06
3.22524e+06
3.19937e+06
3.17361e+06
3.14795e+06
3.1224e+06
3.09695e+06
3.0716e+06
3.04636e+06
3.02122e+06
2.99619e+06
2.97126e+06
2.94643e+06
2.92171e+06
2.89709e+06
2.87258e+06
2.84817e+06
2.82387e+06
2.79967e+06
2.77557e+06
2.75158e+06
2.72769e+06
2.7039e+06
2.68022e+06
2.65665e+06
2.63317e+06
2.60981e+06
2.58654e+06
2.56338e+06
2.54032e+06
2.51737e+06
2.49452e+06
2.47178e+06
2.44914e+06
2.4266e+06
2.40417e+06
2.38184e+06
2.35961e+06
2.33749e+06
2.31547e+06
2.29356e+06
2.27175e+06
2.25004e+06
2.22844e+06
2.20694e+06
2.18555e+06
2.16425e+06
2.14306e+06
2.12198e+06
2.101e+06
2.08012e+06
2.05934e+06
2.03867e+06
2.0181e+06
1.99763e+06
1.97726e+06
1.957e+06
1.93684e+06
1.91678e+06
1.89682e+06
1.87697e+06
1.85721e+06
1.83756e+06
1.81801e+06
1.79856e+06
1.77921e+06
1.75995e+06
1.7408e+06
1.72175e+06
1.70279e+06
1.68394e+06
1.66518e+06
1.64652e+06
1.62795e+06
1.60948e+06
1.5911e+06
1.57281e+06
1.55462e+06
1.53652e+06
1.5185e+06
1.50058e+06
1.48273e+06
1.46498e+06
1.4473e+06
1.4297e+06
1.41218e+06
1.39473e+06
1.37735e+06
1.36003e+06
1.34277e+06
1.32556e+06
1.30839e+06
1.29127e+06
1.27416e+06
1.25707e+06
1.23998e+06
1.22287e+06
1.20571e+06
1.18848e+06
1.17114e+06
1.15364e+06
1.13593e+06
1.1179e+06
1.09942e+06
1.08034e+06
1.06024e+06
1.03885e+06
1.0148e+06
986480
6.23816e+06
6.16366e+06
6.10014e+06
6.04441e+06
5.99395e+06
5.94695e+06
5.90241e+06
5.85971e+06
5.81843e+06
5.7783e+06
5.73911e+06
5.70072e+06
5.663e+06
5.62587e+06
5.58923e+06
5.55303e+06
5.51722e+06
5.48174e+06
5.44656e+06
5.41164e+06
5.37696e+06
5.34249e+06
5.30821e+06
5.27412e+06
5.24021e+06
5.20646e+06
5.17285e+06
5.1394e+06
5.10609e+06
5.07291e+06
5.03988e+06
5.00697e+06
4.9742e+06
4.94157e+06
4.90906e+06
4.8767e+06
4.84446e+06
4.81237e+06
4.78041e+06
4.74859e+06
4.71691e+06
4.68536e+06
4.65395e+06
4.62266e+06
4.59151e+06
4.56048e+06
4.52957e+06
4.49879e+06
4.46813e+06
4.43759e+06
4.40716e+06
4.37685e+06
4.34665e+06
4.31655e+06
4.28655e+06
4.25665e+06
4.22685e+06
4.19714e+06
4.16753e+06
4.13802e+06
4.10862e+06
4.07932e+06
4.05013e+06
4.02106e+06
3.9921e+06
3.96326e+06
3.93454e+06
3.90593e+06
3.87743e+06
3.84904e+06
3.82076e+06
3.79259e+06
3.76452e+06
3.73656e+06
3.7087e+06
3.68095e+06
3.65331e+06
3.62577e+06
3.59834e+06
3.57101e+06
3.54378e+06
3.51666e+06
3.48965e+06
3.46274e+06
3.43593e+06
3.40923e+06
3.38263e+06
3.35614e+06
3.32975e+06
3.30347e+06
3.27729e+06
3.25121e+06
3.22524e+06
3.19937e+06
3.17361e+06
3.14795e+06
3.1224e+06
3.09695e+06
3.0716e+06
3.04636e+06
3.02122e+06
2.99619e+06
2.97126e+06
2.94643e+06
2.92171e+06
2.89709e+06
2.87258e+06
2.84817e+06
2.82386e+06
2.79966e+06
2.77557e+06
2.75157e+06
2.72768e+06
2.7039e+06
2.68022e+06
2.65664e+06
2.63317e+06
2.6098e+06
2.58654e+06
2.56338e+06
2.54032e+06
2.51737e+06
2.49452e+06
2.47177e+06
2.44913e+06
2.42659e+06
2.40416e+06
2.38183e+06
2.3596e+06
2.33748e+06
2.31546e+06
2.29355e+06
2.27173e+06
2.25003e+06
2.22842e+06
2.20692e+06
2.18552e+06
2.16423e+06
2.14303e+06
2.12195e+06
2.10096e+06
2.08008e+06
2.0593e+06
2.03862e+06
2.01804e+06
1.99757e+06
1.9772e+06
1.95693e+06
1.93676e+06
1.9167e+06
1.89673e+06
1.87687e+06
1.85711e+06
1.83744e+06
1.81788e+06
1.79842e+06
1.77906e+06
1.75979e+06
1.74062e+06
1.72155e+06
1.70258e+06
1.6837e+06
1.66492e+06
1.64624e+06
1.62764e+06
1.60914e+06
1.59073e+06
1.57241e+06
1.55418e+06
1.53604e+06
1.51798e+06
1.50001e+06
1.48212e+06
1.4643e+06
1.44656e+06
1.4289e+06
1.4113e+06
1.39377e+06
1.3763e+06
1.35888e+06
1.34151e+06
1.32419e+06
1.3069e+06
1.28963e+06
1.27237e+06
1.25511e+06
1.23783e+06
1.22051e+06
1.20313e+06
1.18564e+06
1.16802e+06
1.15021e+06
1.13213e+06
1.1137e+06
1.09474e+06
1.07515e+06
1.05439e+06
1.03237e+06
1.0077e+06
979323
6.25308e+06
6.17931e+06
6.11502e+06
6.05792e+06
6.00602e+06
5.95771e+06
5.91201e+06
5.86829e+06
5.82613e+06
5.78521e+06
5.74533e+06
5.70632e+06
5.66804e+06
5.63041e+06
5.59333e+06
5.55672e+06
5.52054e+06
5.48473e+06
5.44925e+06
5.41407e+06
5.37915e+06
5.34446e+06
5.30999e+06
5.27572e+06
5.24165e+06
5.20775e+06
5.17402e+06
5.14045e+06
5.10704e+06
5.07377e+06
5.04065e+06
5.00768e+06
4.97484e+06
4.94215e+06
4.9096e+06
4.87718e+06
4.84491e+06
4.81278e+06
4.78079e+06
4.74895e+06
4.71724e+06
4.68567e+06
4.65423e+06
4.62293e+06
4.59175e+06
4.56071e+06
4.52979e+06
4.49899e+06
4.46833e+06
4.43778e+06
4.40735e+06
4.37703e+06
4.34682e+06
4.31672e+06
4.28671e+06
4.25681e+06
4.227e+06
4.19728e+06
4.16766e+06
4.13813e+06
4.10871e+06
4.0794e+06
4.0502e+06
4.02112e+06
3.99215e+06
3.9633e+06
3.93457e+06
3.90596e+06
3.87746e+06
3.84906e+06
3.82078e+06
3.7926e+06
3.76454e+06
3.73657e+06
3.70872e+06
3.68097e+06
3.65332e+06
3.62578e+06
3.59835e+06
3.57102e+06
3.54379e+06
3.51667e+06
3.48966e+06
3.46274e+06
3.43594e+06
3.40923e+06
3.38264e+06
3.35614e+06
3.32976e+06
3.30347e+06
3.27729e+06
3.25121e+06
3.22524e+06
3.19938e+06
3.17361e+06
3.14795e+06
3.1224e+06
3.09695e+06
3.0716e+06
3.04636e+06
3.02122e+06
2.99619e+06
2.97126e+06
2.94643e+06
2.92171e+06
2.89709e+06
2.87258e+06
2.84817e+06
2.82386e+06
2.79966e+06
2.77556e+06
2.75157e+06
2.72768e+06
2.7039e+06
2.68022e+06
2.65664e+06
2.63317e+06
2.6098e+06
2.58653e+06
2.56337e+06
2.54031e+06
2.51736e+06
2.49451e+06
2.47176e+06
2.44912e+06
2.42658e+06
2.40415e+06
2.38182e+06
2.35959e+06
2.33747e+06
2.31545e+06
2.29353e+06
2.27172e+06
2.25001e+06
2.2284e+06
2.2069e+06
2.1855e+06
2.1642e+06
2.143e+06
2.12191e+06
2.10092e+06
2.08004e+06
2.05925e+06
2.03857e+06
2.01799e+06
1.99752e+06
1.97714e+06
1.95686e+06
1.93669e+06
1.91662e+06
1.89665e+06
1.87678e+06
1.857e+06
1.83733e+06
1.81776e+06
1.79828e+06
1.77891e+06
1.75963e+06
1.74044e+06
1.72136e+06
1.70237e+06
1.68347e+06
1.66467e+06
1.64596e+06
1.62734e+06
1.60881e+06
1.59037e+06
1.57202e+06
1.55375e+06
1.53557e+06
1.51747e+06
1.49945e+06
1.4815e+06
1.46363e+06
1.44583e+06
1.4281e+06
1.41043e+06
1.39281e+06
1.37526e+06
1.35774e+06
1.34027e+06
1.32283e+06
1.30541e+06
1.28801e+06
1.2706e+06
1.25318e+06
1.23572e+06
1.2182e+06
1.20059e+06
1.18286e+06
1.16497e+06
1.14686e+06
1.12843e+06
1.10964e+06
1.09022e+06
1.07021e+06
1.04888e+06
1.02639e+06
1.00141e+06
973254
6.26622e+06
6.19339e+06
6.12874e+06
6.07063e+06
6.01754e+06
5.96807e+06
5.92132e+06
5.87666e+06
5.83365e+06
5.79199e+06
5.75143e+06
5.71182e+06
5.67301e+06
5.63489e+06
5.59737e+06
5.56036e+06
5.52382e+06
5.48769e+06
5.45192e+06
5.41647e+06
5.38131e+06
5.3464e+06
5.31174e+06
5.27729e+06
5.24306e+06
5.20902e+06
5.17517e+06
5.14148e+06
5.10797e+06
5.07462e+06
5.04142e+06
5.00837e+06
4.97547e+06
4.94273e+06
4.91012e+06
4.87766e+06
4.84535e+06
4.81319e+06
4.78117e+06
4.7493e+06
4.71756e+06
4.68597e+06
4.65451e+06
4.62318e+06
4.59199e+06
4.56093e+06
4.53e+06
4.4992e+06
4.46852e+06
4.43797e+06
4.40754e+06
4.37722e+06
4.347e+06
4.31689e+06
4.28688e+06
4.25697e+06
4.22715e+06
4.19742e+06
4.16778e+06
4.13825e+06
4.10881e+06
4.07948e+06
4.05027e+06
4.02118e+06
3.9922e+06
3.96334e+06
3.93461e+06
3.90599e+06
3.87748e+06
3.84909e+06
3.8208e+06
3.79262e+06
3.76455e+06
3.73659e+06
3.70873e+06
3.68098e+06
3.65333e+06
3.62579e+06
3.59836e+06
3.57102e+06
3.5438e+06
3.51668e+06
3.48966e+06
3.46275e+06
3.43594e+06
3.40924e+06
3.38264e+06
3.35615e+06
3.32976e+06
3.30347e+06
3.27729e+06
3.25122e+06
3.22524e+06
3.19938e+06
3.17361e+06
3.14796e+06
3.1224e+06
3.09695e+06
3.0716e+06
3.04636e+06
3.02122e+06
2.99619e+06
2.97126e+06
2.94643e+06
2.92171e+06
2.89709e+06
2.87258e+06
2.84817e+06
2.82386e+06
2.79966e+06
2.77556e+06
2.75157e+06
2.72768e+06
2.7039e+06
2.68021e+06
2.65664e+06
2.63316e+06
2.60979e+06
2.58653e+06
2.56337e+06
2.54031e+06
2.51735e+06
2.4945e+06
2.47176e+06
2.44911e+06
2.42658e+06
2.40414e+06
2.38181e+06
2.35958e+06
2.33746e+06
2.31543e+06
2.29352e+06
2.2717e+06
2.24999e+06
2.22838e+06
2.20688e+06
2.18547e+06
2.16417e+06
2.14297e+06
2.12188e+06
2.10089e+06
2.08e+06
2.05921e+06
2.03853e+06
2.01794e+06
1.99746e+06
1.97708e+06
1.9568e+06
1.93662e+06
1.91654e+06
1.89656e+06
1.87668e+06
1.8569e+06
1.83722e+06
1.81763e+06
1.79815e+06
1.77876e+06
1.75947e+06
1.74027e+06
1.72117e+06
1.70216e+06
1.68324e+06
1.66442e+06
1.64568e+06
1.62704e+06
1.60848e+06
1.59001e+06
1.57163e+06
1.55333e+06
1.5351e+06
1.51696e+06
1.49889e+06
1.48089e+06
1.46297e+06
1.4451e+06
1.42731e+06
1.40956e+06
1.39187e+06
1.37423e+06
1.35662e+06
1.33905e+06
1.32149e+06
1.30395e+06
1.28641e+06
1.26886e+06
1.25127e+06
1.23363e+06
1.21592e+06
1.1981e+06
1.18014e+06
1.16198e+06
1.1436e+06
1.12482e+06
1.10573e+06
1.08588e+06
1.06551e+06
1.04374e+06
1.02088e+06
995802
967981
6.27798e+06
6.20615e+06
6.14138e+06
6.08255e+06
6.02849e+06
5.97803e+06
5.93032e+06
5.88479e+06
5.84099e+06
5.79861e+06
5.75742e+06
5.71723e+06
5.67789e+06
5.63929e+06
5.60134e+06
5.56395e+06
5.52706e+06
5.4906e+06
5.45454e+06
5.41883e+06
5.38344e+06
5.34832e+06
5.31346e+06
5.27885e+06
5.24446e+06
5.21028e+06
5.1763e+06
5.14251e+06
5.10889e+06
5.07545e+06
5.04217e+06
5.00906e+06
4.9761e+06
4.94329e+06
4.91064e+06
4.87814e+06
4.84579e+06
4.8136e+06
4.78155e+06
4.74964e+06
4.71788e+06
4.68627e+06
4.65479e+06
4.62344e+06
4.59223e+06
4.56116e+06
4.53022e+06
4.49941e+06
4.46873e+06
4.43817e+06
4.40773e+06
4.3774e+06
4.34719e+06
4.31707e+06
4.28706e+06
4.25714e+06
4.22731e+06
4.19756e+06
4.16791e+06
4.13836e+06
4.10891e+06
4.07957e+06
4.05034e+06
4.02124e+06
3.99225e+06
3.96339e+06
3.93464e+06
3.90602e+06
3.87751e+06
3.84911e+06
3.82082e+06
3.79264e+06
3.76457e+06
3.7366e+06
3.70874e+06
3.68099e+06
3.65334e+06
3.6258e+06
3.59836e+06
3.57103e+06
3.54381e+06
3.51668e+06
3.48967e+06
3.46275e+06
3.43595e+06
3.40924e+06
3.38264e+06
3.35615e+06
3.32976e+06
3.30348e+06
3.2773e+06
3.25122e+06
3.22525e+06
3.19938e+06
3.17362e+06
3.14796e+06
3.1224e+06
3.09695e+06
3.0716e+06
3.04636e+06
3.02122e+06
2.99619e+06
2.97126e+06
2.94643e+06
2.92171e+06
2.89709e+06
2.87258e+06
2.84817e+06
2.82386e+06
2.79966e+06
2.77556e+06
2.75157e+06
2.72768e+06
2.70389e+06
2.68021e+06
2.65663e+06
2.63316e+06
2.60979e+06
2.58652e+06
2.56336e+06
2.5403e+06
2.51735e+06
2.4945e+06
2.47175e+06
2.44911e+06
2.42657e+06
2.40413e+06
2.3818e+06
2.35957e+06
2.33744e+06
2.31542e+06
2.2935e+06
2.27168e+06
2.24997e+06
2.22836e+06
2.20685e+06
2.18545e+06
2.16415e+06
2.14295e+06
2.12185e+06
2.10085e+06
2.07996e+06
2.05917e+06
2.03848e+06
2.01789e+06
1.99741e+06
1.97702e+06
1.95674e+06
1.93655e+06
1.91646e+06
1.89647e+06
1.87659e+06
1.8568e+06
1.83711e+06
1.81751e+06
1.79802e+06
1.77861e+06
1.75931e+06
1.74009e+06
1.72098e+06
1.70195e+06
1.68302e+06
1.66417e+06
1.64541e+06
1.62674e+06
1.60816e+06
1.58966e+06
1.57124e+06
1.5529e+06
1.53464e+06
1.51645e+06
1.49834e+06
1.48029e+06
1.46231e+06
1.44439e+06
1.42653e+06
1.40871e+06
1.39094e+06
1.37321e+06
1.35551e+06
1.33784e+06
1.32018e+06
1.30251e+06
1.28484e+06
1.26714e+06
1.2494e+06
1.23159e+06
1.2137e+06
1.19566e+06
1.17749e+06
1.15906e+06
1.14044e+06
1.12134e+06
1.10197e+06
1.08173e+06
1.06105e+06
1.03895e+06
1.0158e+06
990764
963295
6.28863e+06
6.21777e+06
6.15306e+06
6.09373e+06
6.03889e+06
5.98756e+06
5.939e+06
5.89266e+06
5.84812e+06
5.80507e+06
5.76327e+06
5.72252e+06
5.68268e+06
5.64362e+06
5.60525e+06
5.56748e+06
5.53024e+06
5.49347e+06
5.45713e+06
5.42116e+06
5.38553e+06
5.35021e+06
5.31516e+06
5.28038e+06
5.24583e+06
5.21152e+06
5.17742e+06
5.14351e+06
5.1098e+06
5.07627e+06
5.04292e+06
5.00973e+06
4.97671e+06
4.94386e+06
4.91116e+06
4.87862e+06
4.84623e+06
4.814e+06
4.78192e+06
4.74999e+06
4.71821e+06
4.68656e+06
4.65506e+06
4.6237e+06
4.59248e+06
4.56139e+06
4.53044e+06
4.49962e+06
4.46893e+06
4.43837e+06
4.40792e+06
4.37759e+06
4.34737e+06
4.31726e+06
4.28724e+06
4.25731e+06
4.22746e+06