/*--------------------------------*- C++ -*----------------------------------*\
| =========                 |                                                 |
| \\      /  F ield         | OpenFOAM: The Open Source CFD Toolbox           |
|  \\    /   O peration     | Version:  2.4.0                                 |
|   \\  /    A nd           | Web:      www.OpenFOAM.org                      |
|    \\/     M anipulation  |                                                 |
\*---------------------------------------------------------------------------*/
FoamFile
{
    version     2.0;
    format      ascii;
    class       surfaceScalarField;
    location    "0.019";
    object      phi;
}
// * * * * * * * * * * * * * * * * * * * * * * * * * * * * * * * * * * * * * //

dimensions      [0 3 -1 0 0 0 0];

internalField   nonuniform List<scalar> 
34880
(
5.48714e-06
7.01287e-06
3.12513e-06
2.362e-06
2.47083e-06
6.54306e-07
2.22537e-06
2.4546e-07
2.07056e-06
1.54805e-07
1.96041e-06
1.1015e-07
1.87565e-06
8.4765e-08
1.82473e-06
5.09239e-08
1.77978e-06
4.49462e-08
1.72874e-06
5.10361e-08
1.71939e-06
9.35369e-09
1.68602e-06
3.33664e-08
1.67659e-06
9.4325e-09
1.67774e-06
-1.15033e-09
1.67199e-06
5.75347e-09
1.68611e-06
-1.41206e-08
1.65536e-06
3.07516e-08
1.68243e-06
-2.70716e-08
1.50916e-06
1.73267e-07
-7.68163e-07
2.27732e-06
1.01097e-05
9.4032e-06
7.8276e-06
4.64407e-06
6.71201e-06
1.76989e-06
6.07453e-06
8.82938e-07
5.63306e-06
5.96276e-07
5.33427e-06
4.08941e-07
5.11415e-06
3.0489e-07
4.945e-06
2.20072e-07
4.7942e-06
1.95746e-07
4.70047e-06
1.44764e-07
4.65543e-06
5.43932e-08
4.60622e-06
8.25767e-08
4.57393e-06
4.17198e-08
4.56761e-06
5.17544e-09
4.57359e-06
-2.27182e-10
4.57362e-06
-1.41504e-08
4.5387e-06
6.56642e-08
4.59111e-06
-7.94741e-08
4.44426e-06
3.20112e-07
-7.47547e-07
4.42365e-06
1.24249e-05
9.47826e-06
1.09967e-05
6.07228e-06
9.98493e-06
2.78169e-06
9.2182e-06
1.64967e-06
8.60303e-06
1.21145e-06
8.1702e-06
8.41772e-07
7.85322e-06
6.21872e-07
7.59267e-06
4.80615e-07
7.35293e-06
4.35495e-07
7.22705e-06
2.70638e-07
7.13867e-06
1.4278e-07
7.08457e-06
1.36668e-07
7.03086e-06
9.54346e-08
7.01105e-06
2.49842e-08
7.03324e-06
-2.24153e-08
7.00767e-06
1.14188e-08
6.98579e-06
8.75448e-08
7.02771e-06
-1.21394e-07
6.98142e-06
3.664e-07
-4.21208e-07
6.65508e-06
1.34146e-05
8.56364e-06
1.28759e-05
6.61104e-06
1.2328e-05
3.3296e-06
1.17384e-05
2.23921e-06
1.11201e-05
1.82972e-06
1.06361e-05
1.32584e-06
1.02699e-05
9.88027e-07
9.96235e-06
7.88177e-07
9.65667e-06
7.41171e-07
9.50604e-06
4.21263e-07
9.37577e-06
2.7305e-07
9.30905e-06
2.03394e-07
9.24633e-06
1.58156e-07
9.20208e-06
6.92339e-08
9.2429e-06
-6.32354e-08
9.19013e-06
6.41884e-08
9.18254e-06
9.51315e-08
9.20256e-06
-1.41415e-07
9.18765e-06
3.81315e-07
-1.40333e-07
8.90677e-06
1.35974e-05
7.46623e-06
1.36395e-05
6.56891e-06
1.3614e-05
3.35518e-06
1.34269e-05
2.42625e-06
1.30133e-05
2.2433e-06
1.26058e-05
1.73338e-06
1.22645e-05
1.32936e-06
1.19762e-05
1.07644e-06
1.1652e-05
1.06536e-06
1.14925e-05
5.8081e-07
1.13346e-05
4.3091e-07
1.1246e-05
2.92025e-07
1.11869e-05
2.17209e-07
1.11159e-05
1.40213e-07
1.11702e-05
-1.17535e-07
1.11005e-05
1.33906e-07
1.10955e-05
1.0018e-07
1.11024e-05
-1.48375e-07
1.10538e-05
4.29927e-07
2.74635e-07
1.06389e-05
1.35018e-05
6.46444e-06
1.3731e-05
6.3397e-06
1.39623e-05
3.12392e-06
1.41613e-05
2.22722e-06
1.40882e-05
2.31639e-06
1.3893e-05
1.92855e-06
1.36759e-05
1.54647e-06
1.34948e-05
1.25754e-06
1.32298e-05
1.33044e-06
1.30956e-05
7.15011e-07
1.29428e-05
5.83708e-07
1.28328e-05
4.02004e-07
1.2788e-05
2.61969e-07
1.27018e-05
2.26434e-07
1.27559e-05
-1.71656e-07
1.2691e-05
1.98799e-07
1.26731e-05
1.18123e-07
1.26661e-05
-1.41389e-07
1.25834e-05
5.12596e-07
7.5046e-07
1.21076e-05
1.33897e-05
5.57478e-06
1.37013e-05
6.02802e-06
1.38797e-05
2.94558e-06
1.42044e-05
1.90251e-06
1.4398e-05
2.12274e-06
1.44226e-05
1.90399e-06
1.43718e-05
1.59725e-06
1.43624e-05
1.26696e-06
1.42429e-05
1.44997e-06
1.41899e-05
7.67994e-07
1.40919e-05
6.81724e-07
1.39842e-05
5.0971e-07
1.3971e-05
2.75083e-07
1.38912e-05
3.06263e-07
1.39354e-05
-2.15796e-07
1.38967e-05
2.37429e-07
1.38584e-05
1.56464e-07
1.38358e-05
-1.18773e-07
1.3769e-05
5.79375e-07
4.69603e-07
1.40498e-05
1.32832e-05
4.79161e-06
1.37102e-05
5.60095e-06
1.37869e-05
2.86889e-06
1.40524e-05
1.63702e-06
1.43344e-05
1.8408e-06
1.44624e-05
1.77596e-06
1.45034e-05
1.55624e-06
1.46191e-05
1.15124e-06
1.46353e-05
1.43381e-06
1.46913e-05
7.11993e-07
1.46779e-05
6.95118e-07
1.46056e-05
5.82016e-07
1.46487e-05
2.31911e-07
1.46009e-05
3.54077e-07
1.46384e-05
-2.53224e-07
1.46244e-05
2.51353e-07
1.45949e-05
1.85966e-07
1.45628e-05
-8.66324e-08
1.45658e-05
5.76391e-07
-3.30106e-08
1.50684e-05
1.31861e-05
4.10555e-06
1.36563e-05
5.13073e-06
1.37317e-05
2.79352e-06
1.39633e-05
1.40534e-06
1.42006e-05
1.60353e-06
1.43691e-05
1.60746e-06
1.44497e-05
1.47562e-06
1.45708e-05
1.03014e-06
1.46629e-05
1.34175e-06
1.47553e-05
6.19575e-07
1.47837e-05
6.66757e-07
1.47838e-05
5.8192e-07
1.48415e-05
1.74172e-07
1.48321e-05
3.63481e-07
1.48578e-05
-2.78933e-07
1.48904e-05
2.18768e-07
1.48353e-05
2.41076e-07
1.48302e-05
-8.1591e-08
1.49157e-05
4.90904e-07
-4.90707e-07
1.53734e-05
1.30976e-05
3.50794e-06
1.35842e-05
4.64409e-06
1.3694e-05
2.68372e-06
1.38958e-05
1.20354e-06
1.41018e-05
1.3976e-06
1.4282e-05
1.42722e-06
1.43623e-05
1.39538e-06
1.44992e-05
8.93197e-07
1.45899e-05
1.25106e-06
1.46604e-05
5.49065e-07
1.47511e-05
5.76002e-07
1.47311e-05
6.02014e-07
1.48012e-05
1.03997e-07
1.48194e-05
3.45281e-07
1.48319e-05
-2.91389e-07
1.48378e-05
2.12801e-07
1.4834e-05
2.44905e-07
1.48571e-05
-1.04637e-07
1.4984e-05
3.63974e-07
-7.17942e-07
1.52112e-05
1.30217e-05
2.98625e-06
1.35184e-05
4.14743e-06
1.36499e-05
2.55214e-06
1.38403e-05
1.0132e-06
1.40312e-05
1.20665e-06
1.4197e-05
1.26147e-06
1.43035e-05
1.28888e-06
1.44223e-05
7.74389e-07
1.45111e-05
1.16228e-06
1.4598e-05
4.62157e-07
1.46594e-05
5.14575e-07
1.46708e-05
5.90594e-07
1.47381e-05
3.66748e-08
1.47516e-05
3.31843e-07
1.47409e-05
-2.80686e-07
1.47844e-05
1.69275e-07
1.4786e-05
2.43325e-07
1.48182e-05
-1.36886e-07
1.49752e-05
2.06991e-07
-6.81347e-07
1.49386e-05
1.29628e-05
2.52343e-06
1.34553e-05
3.65491e-06
1.36189e-05
2.38858e-06
1.37926e-05
8.39529e-07
1.39647e-05
1.03449e-06
1.4135e-05
1.09122e-06
1.42426e-05
1.18125e-06
1.4354e-05
6.62976e-07
1.446e-05
1.05637e-06
1.45228e-05
3.99319e-07
1.45939e-05
4.43469e-07
1.46191e-05
5.65425e-07
1.46724e-05
-1.6672e-08
1.46823e-05
3.21977e-07
1.46784e-05
-2.7681e-07
1.47298e-05
1.17905e-07
1.47293e-05
2.43811e-07
1.47838e-05
-1.91374e-07
1.48554e-05
1.3532e-07
-3.84698e-07
1.45588e-05
1.29118e-05
2.11161e-06
1.34007e-05
3.16599e-06
1.36086e-05
2.18074e-06
1.37511e-05
6.97043e-07
1.39114e-05
8.74116e-07
1.40758e-05
9.26845e-07
1.4188e-05
1.0691e-06
1.43025e-05
5.48444e-07
1.4405e-05
9.53902e-07
1.44639e-05
3.40351e-07
1.45489e-05
3.58542e-07
1.45641e-05
5.50142e-07
1.46131e-05
-6.56754e-08
1.4647e-05
2.88127e-07
1.46176e-05
-2.47417e-07
1.46647e-05
7.07985e-08
1.47038e-05
2.04746e-07
1.47237e-05
-2.11285e-07
1.47356e-05
1.23354e-07
-5.16893e-07
1.48678e-05
1.28702e-05
1.74139e-06
1.33506e-05
2.68559e-06
1.36104e-05
1.92095e-06
1.37193e-05
5.88197e-07
1.38632e-05
7.30129e-07
1.40254e-05
7.64706e-07
1.41445e-05
9.49983e-07
1.42501e-05
4.42892e-07
1.43645e-05
8.3946e-07
1.44185e-05
2.86388e-07
1.44944e-05
2.82604e-07
1.45286e-05
5.15954e-07
1.45708e-05
-1.07852e-07
1.4595e-05
2.63866e-07
1.45699e-05
-2.22264e-07
1.46303e-05
1.0368e-08
1.46573e-05
1.77751e-07
1.46667e-05
-2.20655e-07
1.4813e-05
-2.29415e-08
-7.7377e-07
1.50698e-05
1.28347e-05
1.40669e-06
1.33078e-05
2.21252e-06
1.35927e-05
1.63598e-06
1.36938e-05
4.87102e-07
1.38252e-05
5.9874e-07
1.39812e-05
6.08694e-07
1.41062e-05
8.24982e-07
1.42097e-05
3.39465e-07
1.43275e-05
7.21637e-07
1.43767e-05
2.37168e-07
1.44575e-05
2.01772e-07
1.44925e-05
4.80955e-07
1.4527e-05
-1.42288e-07
1.45619e-05
2.28899e-07
1.45318e-05
-1.92113e-07
1.45874e-05
-4.52354e-08
1.46228e-05
1.42347e-07
1.46638e-05
-2.61625e-07
1.47877e-05
-1.46895e-07
-5.52031e-07
1.4566e-05
1.28061e-05
1.1006e-06
1.32714e-05
1.74726e-06
1.35722e-05
1.33518e-06
1.36753e-05
3.8393e-07
1.37932e-05
4.80836e-07
1.39463e-05
4.55657e-07
1.40751e-05
6.96101e-07
1.41752e-05
2.3945e-07
1.42994e-05
5.97376e-07
1.43437e-05
1.92941e-07
1.44235e-05
1.21898e-07
1.4466e-05
4.38473e-07
1.44951e-05
-1.71386e-07
1.45303e-05
1.93748e-07
1.44993e-05
-1.61162e-07
1.45542e-05
-1.00179e-07
1.46009e-05
9.5712e-08
1.46284e-05
-2.89092e-07
1.4719e-05
-2.37554e-07
-7.04045e-07
1.4871e-05
1.27832e-05
8.17409e-07
1.32423e-05
1.28815e-06
1.35534e-05
1.02403e-06
1.36611e-05
2.76262e-07
1.37699e-05
3.72089e-07
1.39172e-05
3.0834e-07
1.40507e-05
5.62558e-07
1.41491e-05
1.41097e-07
1.42754e-05
4.71072e-07
1.43185e-05
1.49796e-07
1.43982e-05
4.2171e-08
1.44435e-05
3.93222e-07
1.44669e-05
-1.94804e-07
1.45091e-05
1.51603e-07
1.4473e-05
-1.25133e-07
1.45278e-05
-1.54986e-07
1.45786e-05
4.49357e-08
1.46167e-05
-3.27189e-07
1.47393e-05
-3.60089e-07
-6.86666e-07
1.47219e-05
1.27664e-05
5.51042e-07
1.32205e-05
8.34062e-07
1.35383e-05
7.0614e-07
1.36519e-05
1.62681e-07
1.37522e-05
2.71863e-07
1.38959e-05
1.64561e-07
1.40329e-05
4.25541e-07
1.41287e-05
4.53317e-08
1.4259e-05
3.40797e-07
1.42995e-05
1.093e-07
1.43785e-05
-3.68339e-08
1.44276e-05
3.44078e-07
1.44481e-05
-2.15234e-07
1.449e-05
1.09636e-07
1.44546e-05
-8.96886e-08
1.45081e-05
-2.08464e-07
1.45658e-05
-1.27569e-08
1.46005e-05
-3.61944e-07
1.46535e-05
-4.13082e-07
-6.2531e-07
1.45921e-05
1.27554e-05
2.9568e-07
1.32058e-05
3.83617e-07
1.35282e-05
3.83706e-07
1.36458e-05
4.51396e-08
1.37412e-05
1.76456e-07
1.38815e-05
2.42577e-08
1.40213e-05
2.85772e-07
1.41159e-05
-4.93421e-08
1.4247e-05
2.09706e-07
1.4288e-05
6.82873e-08
1.4365e-05
-1.13841e-07
1.44181e-05
2.91013e-07
1.44337e-05
-2.30855e-07
1.4479e-05
6.44059e-08
1.44432e-05
-5.3936e-08
1.44935e-05
-2.58716e-07
1.45535e-05
-7.2817e-08
1.45792e-05
-3.8758e-07
1.46596e-05
-4.93474e-07
-9.07975e-07
1.49422e-05
1.27502e-05
4.54855e-08
1.31984e-05
-6.46165e-08
1.35232e-05
5.88934e-08
1.36428e-05
-7.43795e-08
1.37359e-05
8.32732e-08
1.3874e-05
-1.13797e-07
1.40161e-05
1.43687e-07
1.41091e-05
-1.42396e-07
1.42417e-05
7.71669e-08
1.42822e-05
2.77136e-08
1.43582e-05
-1.89805e-07
1.44136e-05
2.35666e-07
1.44273e-05
-2.44592e-07
1.44727e-05
1.89717e-08
1.44383e-05
-1.95303e-08
1.44847e-05
-3.05109e-07
1.45451e-05
-1.33219e-07
1.4586e-05
-4.28474e-07
1.47166e-05
-6.24097e-07
-8.53944e-07
1.46626e-05
1.27508e-05
-2.05344e-07
1.31982e-05
-5.12026e-07
1.35238e-05
-2.66653e-07
1.36422e-05
-1.92744e-07
1.37364e-05
-1.0993e-08
1.38736e-05
-2.50976e-07
1.40168e-05
4.48159e-10
1.41091e-05
-2.34699e-07
1.42413e-05
-5.50073e-08
1.42834e-05
-1.43714e-08
1.43574e-05
-2.6379e-07
1.44148e-05
1.78261e-07
1.44273e-05
-2.57058e-07
1.44722e-05
-2.59342e-08
1.44401e-05
1.25562e-08
1.44826e-05
-3.4762e-07
1.45468e-05
-1.97439e-07
1.45934e-05
-4.75058e-07
1.46392e-05
-6.69954e-07
-6.98834e-07
1.44841e-05
1.27573e-05
-4.62604e-07
1.32053e-05
-9.60069e-07
1.35298e-05
-5.91101e-07
1.36441e-05
-3.07139e-07
1.37426e-05
-1.09495e-07
1.388e-05
-3.88313e-07
1.40239e-05
-1.43487e-07
1.41155e-05
-3.26288e-07
1.42467e-05
-1.86245e-07
1.42908e-05
-5.84255e-08
1.43627e-05
-3.35658e-07
1.44215e-05
1.19398e-07
1.44341e-05
-2.69653e-07
1.4477e-05
-6.88355e-08
1.44489e-05
4.06916e-08
1.44876e-05
-3.86358e-07
1.45499e-05
-2.59716e-07
1.45814e-05
-5.06543e-07
1.46359e-05
-7.24465e-07
-9.51759e-07
1.48888e-05
1.27695e-05
-7.32114e-07
1.32196e-05
-1.41018e-06
1.3541e-05
-9.12446e-07
1.36492e-05
-4.15332e-07
1.37547e-05
-2.15039e-07
1.38934e-05
-5.27034e-07
1.40371e-05
-2.87199e-07
1.41284e-05
-4.17511e-07
1.42579e-05
-3.15832e-07
1.43045e-05
-1.05005e-07
1.43743e-05
-4.05403e-07
1.44338e-05
5.98299e-08
1.44478e-05
-2.8357e-07
1.44877e-05
-1.0877e-07
1.44647e-05
6.36473e-08
1.44978e-05
-4.19403e-07
1.45556e-05
-3.17493e-07
1.45982e-05
-5.49162e-07
1.46953e-05
-8.21553e-07
-9.4075e-07
1.46843e-05
1.27876e-05
-1.01973e-06
1.32412e-05
-1.86382e-06
1.3557e-05
-1.22816e-06
1.36579e-05
-5.16285e-07
1.37729e-05
-3.30018e-07
1.39139e-05
-6.68035e-07
1.40566e-05
-4.29898e-07
1.41478e-05
-5.08762e-07
1.4275e-05
-4.4299e-07
1.43248e-05
-1.54826e-07
1.43922e-05
-4.72799e-07
1.44518e-05
2.65691e-10
1.44683e-05
-3.00108e-07
1.45042e-05
-1.44602e-07
1.44874e-05
8.03834e-08
1.45145e-05
-4.46511e-07
1.45707e-05
-3.73624e-07
1.46161e-05
-5.94574e-07
1.46566e-05
-8.62053e-07
-8.90485e-07
1.46063e-05
1.28116e-05
-1.33135e-06
1.32702e-05
-2.3224e-06
1.35768e-05
-1.53477e-06
1.36713e-05
-6.10762e-07
1.37976e-05
-4.56332e-07
1.39415e-05
-8.11924e-07
1.40825e-05
-5.70865e-07
1.41741e-05
-6.0039e-07
1.42982e-05
-5.67122e-07
1.43519e-05
-2.08476e-07
1.44166e-05
-5.3756e-07
1.44756e-05
-5.87508e-08
1.44957e-05
-3.2013e-07
1.45268e-05
-1.75692e-07
1.45174e-05
8.97381e-08
1.45383e-05
-4.67424e-07
1.45891e-05
-4.24373e-07
1.46274e-05
-6.32943e-07
1.46733e-05
-9.07936e-07
-1.00089e-06
1.47837e-05
1.28416e-05
-1.67299e-06
1.33064e-05
-2.78718e-06
1.35985e-05
-1.82689e-06
1.36902e-05
-7.02384e-07
1.38293e-05
-5.95498e-07
1.39764e-05
-9.58956e-07
1.41149e-05
-7.09374e-07
1.42073e-05
-6.92854e-07
1.43279e-05
-6.87654e-07
1.4386e-05
-2.66578e-07
1.44477e-05
-5.993e-07
1.45055e-05
-1.16585e-07
1.45299e-05
-3.44462e-07
1.45558e-05
-2.01603e-07
1.45547e-05
9.08108e-08
1.45683e-05
-4.80991e-07
1.46125e-05
-4.68615e-07
1.46537e-05
-6.74101e-07
1.471e-05
-9.64249e-07
-1.0103e-06
1.47194e-05
1.28779e-05
-2.05086e-06
1.33496e-05
-3.25894e-06
1.36172e-05
-2.09446e-06
1.37155e-05
-8.00644e-07
1.38687e-05
-7.48698e-07
1.40187e-05
-1.10901e-06
1.41541e-05
-8.44764e-07
1.42479e-05
-7.86609e-07
1.43643e-05
-8.04116e-07
1.44275e-05
-3.2975e-07
1.44855e-05
-6.57346e-07
1.45418e-05
-1.72841e-07
1.45708e-05
-3.73478e-07
1.45915e-05
-2.22245e-07
1.45992e-05
8.30705e-08
1.46051e-05
-4.8686e-07
1.46439e-05
-5.07481e-07
1.46829e-05
-7.13015e-07
1.4706e-05
-9.87385e-07
-1.00553e-06
1.47012e-05
1.29209e-05
-2.47179e-06
1.33993e-05
-3.73731e-06
1.36172e-05
-2.31238e-06
1.37485e-05
-9.31922e-07
1.39162e-05
-9.16367e-07
1.40688e-05
-1.26168e-06
1.42005e-05
-9.76455e-07
1.4296e-05
-8.82112e-07
1.44081e-05
-9.16142e-07
1.44769e-05
-3.98587e-07
1.45304e-05
-7.10842e-07
1.45848e-05
-2.27227e-07
1.46184e-05
-4.07116e-07
1.46343e-05
-2.38088e-07
1.46512e-05
6.61517e-08
1.46489e-05
-4.84594e-07
1.46808e-05
-5.39347e-07
1.47129e-05
-7.45101e-07
1.47455e-05
-1.02004e-06
-1.09165e-06
1.48316e-05
1.2972e-05
-2.94375e-06
1.34547e-05
-4.2201e-06
1.36263e-05
-2.4839e-06
1.379e-05
-1.09571e-06
1.39713e-05
-1.09766e-06
1.41264e-05
-1.41674e-06
1.42538e-05
-1.10388e-06
1.43517e-05
-9.79961e-07
1.44593e-05
-1.02377e-06
1.45348e-05
-4.74078e-07
1.45827e-05
-7.58717e-07
1.4635e-05
-2.79572e-07
1.46728e-05
-4.44911e-07
1.46848e-05
-2.50101e-07
1.4711e-05
3.99192e-08
1.47001e-05
-4.73624e-07
1.47254e-05
-5.64721e-07
1.47545e-05
-7.74135e-07
1.47666e-05
-1.03218e-06
-1.08912e-06
1.47641e-05
1.30328e-05
-3.47657e-06
1.35157e-05
-4.70298e-06
1.36576e-05
-2.62583e-06
1.38398e-05
-1.27791e-06
1.40343e-05
-1.29216e-06
1.4192e-05
-1.57438e-06
1.43139e-05
-1.22581e-06
1.44149e-05
-1.08093e-06
1.4519e-05
-1.12785e-06
1.46029e-05
-5.58033e-07
1.46442e-05
-7.99954e-07
1.46941e-05
-3.29503e-07
1.47348e-05
-4.85594e-07
1.47447e-05
-2.60078e-07
1.47799e-05
4.77469e-09
1.47606e-05
-4.54329e-07
1.47777e-05
-5.81846e-07
1.4795e-05
-7.91379e-07
1.47999e-05
-1.03709e-06
-1.19236e-06
1.49031e-05
1.31062e-05
-4.0828e-06
1.35826e-05
-5.17939e-06
1.36979e-05
-2.74109e-06
1.38959e-05
-1.4759e-06
1.4109e-05
-1.5053e-06
1.42685e-05
-1.73388e-06
1.43816e-05
-1.33884e-06
1.44871e-05
-1.18651e-06
1.459e-05
-1.23076e-06
1.46841e-05
-6.52133e-07
1.47165e-05
-8.32313e-07
1.47622e-05
-3.75166e-07
1.48019e-05
-5.25325e-07
1.48123e-05
-2.70499e-07
1.48545e-05
-3.73865e-08
1.48271e-05
-4.26923e-07
1.48333e-05
-5.88026e-07
1.48341e-05
-7.92268e-07
1.48256e-05
-1.02856e-06
-1.25535e-06
1.48886e-05
1.31941e-05
-4.77685e-06
1.36525e-05
-5.63787e-06
1.37388e-05
-2.82736e-06
1.39592e-05
-1.69625e-06
1.42078e-05
-1.75391e-06
1.43609e-05
-1.88706e-06
1.44571e-05
-1.43504e-06
1.45669e-05
-1.29624e-06
1.46649e-05
-1.32883e-06
1.47607e-05
-7.47862e-07
1.47711e-05
-8.42748e-07
1.48022e-05
-4.06277e-07
1.48255e-05
-5.48626e-07
1.48321e-05
-2.77062e-07
1.48736e-05
-7.88894e-08
1.4836e-05
-3.89327e-07
1.4825e-05
-5.77045e-07
1.47942e-05
-7.61492e-07
1.47644e-05
-9.98717e-07
-1.3644e-06
1.48734e-05
1.32924e-05
-5.56929e-06
1.37058e-05
-6.05125e-06
1.3787e-05
-2.90857e-06
1.40536e-05
-1.96282e-06
1.43375e-05
-2.0378e-06
1.44537e-05
-2.00323e-06
1.45175e-05
-1.4989e-06
1.46012e-05
-1.3799e-06
1.46452e-05
-1.37282e-06
1.46951e-05
-7.97786e-07
1.46465e-05
-7.94116e-07
1.46357e-05
-3.95461e-07
1.46111e-05
-5.24053e-07
1.45933e-05
-2.59263e-07
1.4615e-05
-1.00627e-07
1.45621e-05
-3.36439e-07
1.45236e-05
-5.38471e-07
1.44572e-05
-6.95142e-07
1.43929e-05
-9.34447e-07
-1.35663e-06
1.43852e-05
1.33928e-05
-6.46207e-06
1.36913e-05
-6.34978e-06
1.38834e-05
-3.10064e-06
1.4195e-05
-2.27446e-06
1.44086e-05
-2.25139e-06
1.44095e-05
-2.00413e-06
1.43846e-05
-1.47399e-06
1.43473e-05
-1.3426e-06
1.42486e-05
-1.27418e-06
1.4191e-05
-7.40195e-07
1.40629e-05
-6.66002e-07
1.40014e-05
-3.33967e-07
1.39228e-05
-4.45401e-07
1.3877e-05
-2.13496e-07
1.38732e-05
-9.68202e-08
1.38087e-05
-2.71972e-07
1.37411e-05
-4.708e-07
1.36448e-05
-5.98898e-07
1.35404e-05
-8.29997e-07
-1.31644e-06
1.35002e-05
1.3501e-05
-7.46305e-06
1.37283e-05
-6.57714e-06
1.39665e-05
-3.33875e-06
1.41535e-05
-2.46147e-06
1.40983e-05
-2.19623e-06
1.38806e-05
-1.78645e-06
1.36884e-05
-1.2818e-06
1.34778e-05
-1.13191e-06
1.32378e-05
-1.03419e-06
1.30888e-05
-5.91252e-07
1.29203e-05
-4.97498e-07
1.28394e-05
-2.53065e-07
1.2735e-05
-3.41036e-07
1.26821e-05
-1.605e-07
1.2664e-05
-7.87226e-08
1.25985e-05
-2.06551e-07
1.25133e-05
-3.85599e-07
1.23986e-05
-4.84146e-07
1.22643e-05
-6.95696e-07
-1.15366e-06
1.21015e-05
1.35976e-05
-8.56068e-06
1.36382e-05
-6.61772e-06
1.36168e-05
-3.31734e-06
1.34209e-05
-2.26553e-06
1.30203e-05
-1.79563e-06
1.25965e-05
-1.36269e-06
1.22733e-05
-9.58575e-07
1.19602e-05
-8.18837e-07
1.16601e-05
-7.34048e-07
1.14808e-05
-4.11969e-07
1.13184e-05
-3.35126e-07
1.12421e-05
-1.76705e-07
1.11356e-05
-2.34554e-07
1.10887e-05
-1.13652e-07
1.10644e-05
-5.4358e-08
1.10046e-05
-1.46726e-07
1.09107e-05
-2.9176e-07
1.07885e-05
-3.61967e-07
1.06353e-05
-5.42478e-07
-8.75658e-07
1.03573e-05
1.34151e-05
-9.4758e-06
1.2875e-05
-6.07756e-06
1.23301e-05
-2.77252e-06
1.17337e-05
-1.66906e-06
1.11249e-05
-1.18686e-06
1.06292e-05
-8.67061e-07
1.02751e-05
-6.04475e-07
9.95025e-06
-4.93942e-07
9.66069e-06
-4.44486e-07
9.49517e-06
-2.46451e-07
9.3616e-06
-2.01549e-07
9.29652e-06
-1.11632e-07
9.20198e-06
-1.40009e-07
9.16418e-06
-7.58546e-08
9.13924e-06
-2.94221e-08
9.08771e-06
-9.51876e-08
8.99148e-06
-1.95537e-07
8.87304e-06
-2.43526e-07
8.70792e-06
-3.77356e-07
-5.55481e-07
8.38774e-06
1.24257e-05
-9.40148e-06
1.09959e-05
-4.64781e-06
9.98697e-06
-1.76356e-06
9.21386e-06
-8.95937e-07
8.60697e-06
-5.79971e-07
8.16475e-06
-4.24837e-07
7.85584e-06
-2.9557e-07
7.58504e-06
-2.23141e-07
7.35112e-06
-2.10565e-07
7.22161e-06
-1.16936e-07
7.12213e-06
-1.02073e-07
7.06969e-06
-5.91889e-08
6.99555e-06
-6.58715e-08
6.96446e-06
-4.47679e-08
6.94427e-06
-9.23385e-09
6.90136e-06
-5.22782e-08
6.81139e-06
-1.05567e-07
6.70447e-06
-1.36601e-07
6.53779e-06
-2.10674e-07
-2.83928e-07
6.26623e-06
1.01106e-05
-7.01204e-06
7.8266e-06
-2.36384e-06
6.71431e-06
-6.51276e-07
6.06987e-06
-2.51501e-07
5.63721e-06
-1.47307e-07
5.32925e-06
-1.16876e-07
5.1154e-06
-8.1718e-08
4.9417e-06
-4.94417e-08
4.78686e-06
-5.57286e-08
4.70316e-06
-3.3237e-08
4.63509e-06
-3.40009e-08
4.59626e-06
-2.03615e-08
4.54752e-06
-1.71248e-08
4.52092e-06
-1.81673e-08
4.51086e-06
8.2592e-10
4.4766e-06
-1.8018e-08
4.40559e-06
-3.45623e-08
4.31726e-06
-4.82693e-08
4.17612e-06
-6.9537e-08
-9.8604e-08
3.9908e-06
5.48796e-06
3.12412e-06
2.47284e-06
2.22134e-06
2.07404e-06
1.95716e-06
1.87544e-06
1.826e-06
1.77027e-06
1.73703e-06
1.70303e-06
1.68267e-06
1.66555e-06
1.64738e-06
1.64821e-06
1.63019e-06
1.59562e-06
1.54736e-06
1.47782e-06
1.37921e-06
2.72982e-06
3.25924e-07
-7.78416e-07
2.74118e-06
-2.20818e-07
2.09452e-07
3.01484e-06
-2.44288e-06
2.16922e-06
3.50564e-06
-1.06944e-06
5.78647e-07
3.97071e-06
1.5595e-06
-2.02457e-06
5.80434e-06
1.92549e-06
-3.75913e-06
7.13787e-06
1.33549e-06
-2.66902e-06
7.33547e-06
5.63151e-06
-5.82911e-06
7.73612e-06
9.25168e-06
-9.65233e-06
8.29314e-06
6.32091e-06
-6.87793e-06
8.43816e-06
3.08771e-06
-3.23272e-06
9.37057e-06
1.66992e-06
-2.60233e-06
1.19176e-05
-2.83516e-06
2.88172e-07
1.38332e-05
-7.2262e-06
5.3106e-06
1.40332e-05
-6.29374e-06
6.09374e-06
1.37068e-05
-4.40405e-06
4.73044e-06
1.35544e-05
-6.21772e-06
6.37005e-06
1.3482e-05
-1.02513e-05
1.03238e-05
1.34156e-05
-1.37342e-05
1.38005e-05
1.31962e-05
-1.55813e-05
1.58008e-05
1.27198e-05
-1.62423e-05
1.67187e-05
1.19666e-05
-1.62273e-05
1.69804e-05
1.10285e-05
-1.56337e-05
1.65718e-05
1.01536e-05
-1.47914e-05
1.56663e-05
9.43716e-06
-1.38263e-05
1.45428e-05
8.90488e-06
-1.28683e-05
1.34006e-05
8.62482e-06
-1.2021e-05
1.2301e-05
8.50412e-06
-1.10217e-05
1.11424e-05
8.34131e-06
-9.87836e-06
1.00412e-05
8.06983e-06
-8.85283e-06
9.12431e-06
7.76696e-06
-7.99493e-06
8.2978e-06
7.51509e-06
-7.22787e-06
7.47973e-06
7.33206e-06
-6.53218e-06
6.71521e-06
7.19587e-06
-5.92522e-06
6.06141e-06
7.08632e-06
-5.40377e-06
5.51332e-06
6.996e-06
-4.93939e-06
5.02971e-06
6.92225e-06
-4.5035e-06
4.57725e-06
6.86163e-06
-4.08481e-06
4.14543e-06
6.81054e-06
-3.68722e-06
3.73831e-06
6.76652e-06
-3.31874e-06
3.36275e-06
6.7283e-06
-2.98415e-06
3.02238e-06
6.69515e-06
-2.68379e-06
2.71694e-06
6.66655e-06
-2.41519e-06
2.44379e-06
6.64202e-06
-2.17489e-06
2.19942e-06
6.6211e-06
-1.95946e-06
1.98038e-06
6.60333e-06
-1.76589e-06
1.78365e-06
6.5883e-06
-1.59166e-06
1.6067e-06
6.57559e-06
-1.4347e-06
1.4474e-06
6.56487e-06
-1.29322e-06
1.30395e-06
6.55581e-06
-1.16567e-06
1.17472e-06
6.54817e-06
-1.05066e-06
1.0583e-06
6.54171e-06
-9.46964e-07
9.53424e-07
6.53624e-06
-8.53478e-07
8.58938e-07
6.53163e-06
-7.69189e-07
7.73807e-07
6.52772e-06
-6.93194e-07
6.97101e-07
6.52441e-06
-6.24682e-07
6.27991e-07
6.52161e-06
-5.6292e-07
5.65723e-07
6.51923e-06
-5.07239e-07
5.09614e-07
6.51722e-06
-4.5704e-07
4.59055e-07
6.51551e-06
-4.1179e-07
4.13501e-07
6.51405e-06
-3.71003e-07
3.72457e-07
6.51282e-06
-3.34237e-07
3.35472e-07
6.51177e-06
-3.01095e-07
3.02146e-07
6.51087e-06
-2.71225e-07
2.72121e-07
6.51011e-06
-2.44308e-07
2.45072e-07
6.50946e-06
-2.20047e-07
2.20698e-07
6.5089e-06
-1.9818e-07
1.98737e-07
6.50842e-06
-1.78476e-07
1.78953e-07
6.50801e-06
-1.60723e-07
1.61131e-07
6.50766e-06
-1.44724e-07
1.45073e-07
6.50736e-06
-1.30303e-07
1.30603e-07
6.50711e-06
-1.1731e-07
1.17569e-07
6.50688e-06
-1.05605e-07
1.05828e-07
6.50669e-06
-9.5056e-08
9.52475e-08
6.50653e-06
-8.55467e-08
8.57121e-08
6.50638e-06
-7.69783e-08
7.71218e-08
6.50626e-06
-6.92589e-08
6.93832e-08
6.50615e-06
-6.23001e-08
6.24075e-08
6.50606e-06
-5.60247e-08
5.6118e-08
6.50598e-06
-5.03687e-08
5.04503e-08
6.50591e-06
-4.52714e-08
4.53425e-08
6.50584e-06
-4.06728e-08
4.07344e-08
6.50579e-06
-3.65214e-08
3.65752e-08
6.50574e-06
-3.27764e-08
3.2824e-08
6.5057e-06
-2.9398e-08
2.94396e-08
6.50566e-06
-2.63449e-08
2.63809e-08
6.50563e-06
-2.35822e-08
2.36138e-08
6.50561e-06
-2.10842e-08
2.11124e-08
6.50558e-06
-1.88248e-08
1.88494e-08
6.50556e-06
-1.67751e-08
1.67963e-08
6.50554e-06
-1.49116e-08
1.49302e-08
6.50552e-06
-1.32178e-08
1.32346e-08
6.50551e-06
-1.16767e-08
1.16914e-08
6.5055e-06
-1.02673e-08
1.02797e-08
6.50549e-06
-8.97307e-09
8.98399e-09
6.50548e-06
-7.78415e-09
7.79406e-09
6.50547e-06
-6.68896e-09
6.69744e-09
6.50546e-06
-5.67175e-09
5.67856e-09
6.50545e-06
-4.72039e-09
4.72617e-09
6.50545e-06
-3.82906e-09
3.83428e-09
6.50545e-06
-2.98938e-09
2.99367e-09
6.50544e-06
-2.18844e-09
2.19128e-09
6.50544e-06
-1.41687e-09
1.41915e-09
6.50544e-06
-6.7187e-10
6.73718e-10
6.50544e-06
5.41112e-11
-5.29748e-11
6.50544e-06
7.75031e-10
-7.74962e-10
6.50544e-06
1.49465e-09
-1.49526e-09
6.50544e-06
2.21748e-09
-2.21835e-09
6.50544e-06
2.94938e-09
-2.95104e-09
6.50544e-06
3.70125e-09
-3.70393e-09
6.50545e-06
4.48137e-09
-4.48474e-09
6.50545e-06
5.29302e-09
-5.29672e-09
6.50545e-06
6.14257e-09
-6.14716e-09
6.50546e-06
7.04158e-09
-7.04736e-09
6.50547e-06
7.99936e-09
-8.00599e-09
6.50547e-06
9.02047e-09
-9.02762e-09
6.50548e-06
1.01129e-08
-1.01212e-08
6.50549e-06
1.12902e-08
-1.13001e-08
6.5055e-06
1.2564e-08
-1.25751e-08
6.50552e-06
1.39412e-08
-1.39533e-08
6.50553e-06
1.54328e-08
-1.54467e-08
6.50555e-06
1.70558e-08
-1.70718e-08
6.50556e-06
1.88252e-08
-1.88431e-08
6.50558e-06
2.07526e-08
-2.07722e-08
6.5056e-06
2.28534e-08
-2.28756e-08
6.50563e-06
2.51499e-08
-2.51752e-08
6.50566e-06
2.76629e-08
-2.76914e-08
6.50569e-06
3.04106e-08
-3.04422e-08
6.50573e-06
3.34154e-08
-3.34512e-08
6.50577e-06
3.67075e-08
-3.67483e-08
6.50581e-06
4.03166e-08
-4.03627e-08
6.50586e-06
4.42705e-08
-4.43221e-08
6.50592e-06
4.86028e-08
-4.86614e-08
6.50599e-06
5.33559e-08
-5.34227e-08
6.50607e-06
5.85728e-08
-5.86486e-08
6.50615e-06
6.42967e-08
-6.43822e-08
6.50625e-06
7.0578e-08
-7.06754e-08
6.50636e-06
7.74787e-08
-7.75895e-08
6.50648e-06
8.5063e-08
-8.51891e-08
6.50663e-06
9.34003e-08
-9.35425e-08
6.50679e-06
1.02567e-07
-1.02728e-07
6.50697e-06
1.12662e-07
-1.12844e-07
6.50718e-06
1.23777e-07
-1.23984e-07
6.50741e-06
1.36049e-07
-1.36277e-07
6.50766e-06
1.49557e-07
-1.49815e-07
6.50793e-06
1.64562e-07
-1.64833e-07
6.50825e-06
1.8103e-07
-1.81344e-07
6.50853e-06
1.9957e-07
-1.9985e-07
6.50889e-06
2.19643e-07
-2.20008e-07
6.50906e-06
2.42975e-07
-2.43144e-07
6.50947e-06
2.67292e-07
-2.67695e-07
6.50916e-06
2.97574e-07
-2.97273e-07
6.50956e-06
3.26432e-07
-3.26828e-07
6.50787e-06
3.67356e-07
-3.65667e-07
6.50807e-06
4.00215e-07
-4.00411e-07
6.503e-06
4.57123e-07
-4.52059e-07
6.50229e-06
4.92118e-07
-4.914e-07
6.49059e-06
5.69093e-07
-5.57395e-07
6.48744e-06
6.03263e-07
-6.00114e-07
6.46586e-06
6.94788e-07
-6.73214e-07
6.46e-06
7.2493e-07
-7.19062e-07
6.42724e-06
8.10145e-07
-7.77384e-07
6.42723e-06
8.31877e-07
-8.31869e-07
6.38017e-06
8.92705e-07
-8.45645e-07
6.41049e-06
8.9972e-07
-9.30041e-07
6.33985e-06
9.46198e-07
-8.7556e-07
6.41845e-06
9.59204e-07
-1.03781e-06
6.33555e-06
9.95112e-07
-9.12203e-07
6.41538e-06
1.08522e-06
-1.16506e-06
6.38919e-06
1.10632e-06
-1.08012e-06
6.37157e-06
1.25773e-06
-1.24012e-06
6.45713e-06
1.34485e-06
-1.43041e-06
6.34016e-06
1.46496e-06
-1.34799e-06
6.46786e-06
1.61798e-06
-1.74567e-06
6.34193e-06
1.79698e-06
-1.67105e-06
6.48621e-06
1.85718e-06
-2.00146e-06
6.3456e-06
2.21841e-06
-2.0778e-06
6.44389e-06
2.26138e-06
-2.35967e-06
6.45568e-06
2.56258e-06
-2.57437e-06
6.3634e-06
2.85805e-06
-2.76578e-06
6.48852e-06
3.00858e-06
-3.1337e-06
6.36729e-06
3.48963e-06
-3.3684e-06
6.47711e-06
3.67962e-06
-3.78944e-06
6.38037e-06
4.16775e-06
-4.07101e-06
6.46337e-06
4.50184e-06
-4.58484e-06
6.40008e-06
5.05931e-06
-4.99602e-06
6.41947e-06
5.53154e-06
-5.55093e-06
6.41299e-06
6.20134e-06
-6.19486e-06
6.33833e-06
6.83745e-06
-6.76279e-06
6.51636e-06
7.43897e-06
-7.61701e-06
6.35786e-06
8.5404e-06
-8.3819e-06
6.44519e-06
9.3629e-06
-9.45022e-06
6.50389e-06
1.04097e-05
-1.04684e-05
6.10276e-06
1.19805e-05
-1.15794e-05
5.833e-06
1.36061e-05
-1.33364e-05
5.88995e-06
1.49282e-05
-1.49851e-05
5.88012e-06
1.77059e-05
-1.7696e-05
5.27397e-06
2.10624e-05
-2.04562e-05
5.47654e-06
2.35434e-05
-2.37459e-05
3.4508e-05
-3.43173e-05
5.28587e-06
4.7559e-06
-6.3339e-09
5.08081e-06
-5.45722e-07
4.78385e-06
-2.14592e-06
4.62058e-06
-9.06175e-07
5.21802e-06
9.62059e-07
6.41522e-06
7.28294e-07
6.77394e-06
9.76772e-07
6.89751e-06
5.50795e-06
7.73021e-06
8.41898e-06
8.16422e-06
5.8869e-06
8.15934e-06
3.09258e-06
9.90606e-06
-7.67947e-08
1.26691e-05
-5.59818e-06
1.37828e-05
-8.3399e-06
1.35793e-05
-6.09024e-06
1.35194e-05
-4.34416e-06
1.37978e-05
-6.49613e-06
1.39561e-05
-1.04096e-05
1.38377e-05
-1.36158e-05
1.34315e-05
-1.51751e-05
1.27872e-05
-1.5598e-05
1.20001e-05
-1.54402e-05
1.10804e-05
-1.4714e-05
1.02305e-05
-1.39416e-05
9.6035e-06
-1.31993e-05
9.08838e-06
-1.23532e-05
8.68303e-06
-1.16156e-05
8.44047e-06
-1.07792e-05
8.26542e-06
-9.70331e-06
8.05621e-06
-8.64362e-06
7.81031e-06
-7.74903e-06
7.57693e-06
-6.99449e-06
7.39285e-06
-6.3481e-06
7.25819e-06
-5.79056e-06
7.15434e-06
-5.29992e-06
7.06759e-06
-4.85264e-06
6.99312e-06
-4.42903e-06
6.92904e-06
-4.02073e-06
6.87326e-06
-3.63144e-06
6.82404e-06
-3.26952e-06
6.78046e-06
-2.94057e-06
6.74212e-06
-2.64545e-06
6.70874e-06
-2.38181e-06
6.67991e-06
-2.14606e-06
6.65515e-06
-1.9347e-06
6.63396e-06
-1.74469e-06
6.61585e-06
-1.57356e-06
6.6004e-06
-1.41924e-06
6.5872e-06
-1.28003e-06
6.57593e-06
-1.15439e-06
6.56629e-06
-1.04102e-06
6.55804e-06
-9.38711e-07
6.55097e-06
-8.46403e-07
6.54489e-06
-7.63118e-07
6.53968e-06
-6.87978e-07
6.53519e-06
-6.20194e-07
6.53132e-06
-5.59054e-07
6.52799e-06
-5.03905e-07
6.52511e-06
-4.54161e-07
6.52262e-06
-4.093e-07
6.52046e-06
-3.68847e-07
6.5186e-06
-3.32368e-07
6.51697e-06
-2.99473e-07
6.51556e-06
-2.69815e-07
6.51434e-06
-2.4308e-07
6.51327e-06
-2.18978e-07
6.51233e-06
-1.97247e-07
6.51152e-06
-1.7766e-07
6.5108e-06
-1.60009e-07
6.51018e-06
-1.44098e-07
6.50963e-06
-1.29755e-07
6.50915e-06
-1.16828e-07
6.50872e-06
-1.05181e-07
6.50835e-06
-9.46825e-08
6.50802e-06
-8.52177e-08
6.50773e-06
-7.66873e-08
6.50747e-06
-6.90016e-08
6.50725e-06
-6.2073e-08
6.50704e-06
-5.58239e-08
6.50687e-06
-5.01902e-08
6.50671e-06
-4.51129e-08
6.50657e-06
-4.05327e-08
6.50644e-06
-3.63972e-08
6.50633e-06
-3.26655e-08
6.50623e-06
-2.92992e-08
6.50615e-06
-2.62576e-08
6.50607e-06
-2.35049e-08
6.506e-06
-2.1015e-08
6.50594e-06
-1.87631e-08
6.50588e-06
-1.67209e-08
6.50584e-06
-1.48638e-08
6.50579e-06
-1.3175e-08
6.50576e-06
-1.16386e-08
6.50572e-06
-1.02342e-08
6.50569e-06
-8.94428e-09
6.50567e-06
-7.75848e-09
6.50565e-06
-6.66646e-09
6.50563e-06
-5.65294e-09
6.50561e-06
-4.7046e-09
6.5056e-06
-3.81524e-09
6.50559e-06
-2.97791e-09
6.50558e-06
-2.1798e-09
6.50557e-06
-1.41052e-09
6.50557e-06