/*--------------------------------*- C++ -*----------------------------------*\
| =========                 |                                                 |
| \\      /  F ield         | OpenFOAM: The Open Source CFD Toolbox           |
|  \\    /   O peration     | Version:  2.4.0                                 |
|   \\  /    A nd           | Web:      www.OpenFOAM.org                      |
|    \\/     M anipulation  |                                                 |
\*---------------------------------------------------------------------------*/
FoamFile
{
    version     2.0;
    format      ascii;
    class       volVectorField;
    location    "0.139";
    object      UMean;
}
// * * * * * * * * * * * * * * * * * * * * * * * * * * * * * * * * * * * * * //

dimensions      [0 1 -1 0 0 0 0];

internalField   nonuniform List<vector> 
4400
(
(5.43759 0.313332 0)
(3.41613 0.0614356 0)
(2.69148 0.00155818 0)
(2.35567 -0.00227759 0)
(2.2142 -0.00146832 0)
(2.14776 -0.000765472 0)
(2.10592 -0.000170703 0)
(2.08922 -0.000368636 0)
(2.08845 0.000604499 0)
(1.91949 -0.0506276 0)
(8.67222 0.8435 0)
(7.62928 0.338783 0)
(6.73456 0.113192 0)
(6.05009 0.0514787 0)
(5.67712 0.0236269 0)
(5.47572 0.0129058 0)
(5.34724 0.00799993 0)
(5.29134 0.0029152 0)
(5.22212 0.0139914 0)
(5.22055 -0.126878 0)
(9.84142 0.918563 0)
(10.0367 0.466321 0)
(9.54723 0.206094 0)
(8.84797 0.121848 0)
(8.37917 0.0675891 0)
(8.08382 0.038749 0)
(7.90363 0.0232726 0)
(7.79322 0.013696 0)
(7.71994 0.00978696 0)
(7.67549 -0.124264 0)
(10.0584 0.789122 0)
(11.1235 0.48412 0)
(11.2646 0.255676 0)
(10.849 0.185044 0)
(10.4731 0.118341 0)
(10.1617 0.0733273 0)
(9.99589 0.0450806 0)
(9.82481 0.0274697 0)
(9.80884 0.0145142 0)
(9.63486 -0.121208 0)
(9.98801 0.632983 0)
(11.3205 0.423606 0)
(11.9419 0.236493 0)
(11.922 0.203336 0)
(11.8291 0.151561 0)
(11.6113 0.10148 0)
(11.5635 0.0700532 0)
(11.3661 0.0382585 0)
(11.4185 0.0283396 0)
(11.2217 -0.131988 0)
(9.96234 0.503897 0)
(11.2358 0.349772 0)
(12.0048 0.180544 0)
(12.1938 0.173269 0)
(12.3703 0.144917 0)
(12.345 0.107072 0)
(12.4542 0.0771553 0)
(12.3736 0.0485097 0)
(12.4579 0.0251498 0)
(12.3571 -0.105698 0)
(9.96461 0.388635 0)
(11.1703 0.280251 0)
(11.9409 0.131676 0)
(12.1794 0.129608 0)
(12.4125 0.115008 0)
(12.5206 0.0867099 0)
(12.7104 0.0656134 0)
(12.789 0.0405004 0)
(12.917 0.0115689 0)
(12.9451 -0.0581007 0)
(9.95338 0.27036 0)
(11.1422 0.210702 0)
(11.8781 0.0856385 0)
(12.158 0.0964703 0)
(12.3579 0.076202 0)
(12.5137 0.0676157 0)
(12.696 0.0365268 0)
(12.8426 0.03191 0)
(12.9832 -0.0188089 0)
(13.0714 -0.0574989 0)
(9.93976 0.164095 0)
(11.1237 0.124793 0)
(11.8374 0.052173 0)
(12.1451 0.0546068 0)
(12.3223 0.0482112 0)
(12.4949 0.0357792 0)
(12.6626 0.0222456 0)
(12.8231 0.00393718 0)
(12.9533 -0.0292586 0)
(13.0383 -0.108308 0)
(9.94137 0.0520156 0)
(11.106 0.0452713 0)
(11.825 0.0126556 0)
(12.1309 0.0223748 0)
(12.3128 0.00984089 0)
(12.4782 0.0151001 0)
(12.6517 -0.00464461 0)
(12.8026 -0.00987167 0)
(12.9378 -0.0558662 0)
(13.0032 -0.129706 0)
(9.94107 -0.0535711 0)
(11.1069 -0.0413015 0)
(11.8239 -0.0186618 0)
(12.1323 -0.0178639 0)
(12.3114 -0.0202128 0)
(12.4799 -0.0152771 0)
(12.6488 -0.0225525 0)
(12.8021 -0.0330642 0)
(12.9309 -0.0752039 0)
(12.9899 -0.148669 0)
(9.94672 -0.164543 0)
(11.1185 -0.122446 0)
(11.8419 -0.0560711 0)
(12.1407 -0.0526609 0)
(12.3265 -0.0555769 0)
(12.4899 -0.0398658 0)
(12.6619 -0.0448516 0)
(12.8108 -0.0526294 0)
(12.9371 -0.0951022 0)
(12.9879 -0.166232 0)
(9.96459 -0.273441 0)
(11.1335 -0.20534 0)
(11.8845 -0.0924303 0)
(12.1504 -0.0907319 0)
(12.3639 -0.0879693 0)
(12.5038 -0.066441 0)
(12.6961 -0.065886 0)
(12.8198 -0.071927 0)
(12.9507 -0.11332 0)
(12.9736 -0.185677 0)
(9.97908 -0.388925 0)
(11.1559 -0.278651 0)
(11.9514 -0.134766 0)
(12.1659 -0.127799 0)
(12.423 -0.122086 0)
(12.502 -0.0912135 0)
(12.7142 -0.0871761 0)
(12.7449 -0.0885247 0)
(12.8655 -0.128049 0)
(12.7652 -0.198014 0)
(9.9694 -0.506147 0)
(11.2256 -0.346855 0)
(12.0112 -0.184623 0)
(12.1845 -0.169882 0)
(12.3752 -0.15295 0)
(12.3289 -0.110036 0)
(12.4443 -0.0988309 0)
(12.3162 -0.093656 0)
(12.3555 -0.126619 0)
(12.083 -0.191312 0)
(9.99277 -0.633892 0)
(11.312 -0.421782 0)
(11.948 -0.239385 0)
(11.9114 -0.200828 0)
(11.8342 -0.158649 0)
(11.5888 -0.104308 0)
(11.5458 -0.0885483 0)
(11.2895 -0.0779387 0)
(11.257 -0.11217 0)
(10.8678 -0.150221 0)
(10.0598 -0.789984 0)
(11.1171 -0.483039 0)
(11.2701 -0.257764 0)
(10.8356 -0.183225 0)
(10.4847 -0.124279 0)
(10.1212 -0.0746331 0)
(9.99493 -0.0620713 0)
(9.69916 -0.0544385 0)
(9.64381 -0.0871625 0)
(9.18601 -0.0978826 0)
(9.84091 -0.918893 0)
(10.0334 -0.465685 0)
(9.55033 -0.207277 0)
(8.8374 -0.120979 0)
(8.38804 -0.0711728 0)
(8.04134 -0.0403014 0)
(7.90524 -0.0344422 0)
(7.6408 -0.0323095 0)
(7.58301 -0.0565064 0)
(7.10157 -0.0548975 0)
(8.67157 -0.843657 0)
(7.62777 -0.338554 0)
(6.73556 -0.113719 0)
(6.0434 -0.0512095 0)
(5.68067 -0.0252631 0)
(5.44236 -0.0139572 0)
(5.34121 -0.0131396 0)
(5.15464 -0.0144421 0)
(5.09464 -0.0266974 0)
(4.68225 -0.0232993 0)
(5.43718 -0.313363 0)
(3.41572 -0.0613894 0)
(2.69132 -0.00164472 0)
(2.35301 0.00232693 0)
(2.21362 0.00132027 0)
(2.13229 0.000485979 0)
(2.09366 -0.000217722 0)
(2.01971 -0.00119784 0)
(1.97283 -0.00255976 0)
(1.77384 0.00967654 0)
(3.04679 -0.287458 0)
(3.44358 -0.14791 0)
(3.99632 -0.187043 0)
(4.4306 -0.212478 0)
(4.88963 -0.274513 0)
(5.27785 -0.38287 0)
(5.68829 -0.433784 0)
(5.9829 -0.566771 0)
(6.43704 -0.718691 0)
(6.63033 -0.762005 0)
(7.01725 -0.888177 0)
(7.26499 -0.936312 0)
(7.62406 -1.09436 0)
(7.96573 -1.27804 0)
(8.28968 -1.42606 0)
(8.62173 -1.55964 0)
(8.96155 -1.7508 0)
(9.23313 -1.89119 0)
(9.40674 -2.02512 0)
(9.61946 -2.11327 0)
(9.6655 -2.18824 0)
(9.80867 -2.18573 0)
(9.77027 -2.18572 0)
(9.91143 -2.14789 0)
(9.91972 -2.12161 0)
(9.94675 -2.05368 0)
(9.86241 -1.97756 0)
(9.74203 -1.87201 0)
(9.57283 -1.77398 0)
(9.43911 -1.62789 0)
(9.25531 -1.53533 0)
(9.20271 -1.44062 0)
(9.00059 -1.36414 0)
(8.98123 -1.27116 0)
(8.67567 -1.23318 0)
(8.59033 -1.14157 0)
(8.29148 -1.0759 0)
(8.10381 -0.874641 0)
(7.92194 -0.814254 0)
(7.77614 -0.636279 0)
(7.70198 -0.563749 0)
(7.57586 -0.327309 0)
(7.47007 -0.20454 0)
(7.37561 0.0654513 0)
(7.28009 0.136319 0)
(7.16903 0.403071 0)
(7.14326 0.381699 0)
(6.94932 0.648957 0)
(7.00995 0.528667 0)
(6.83706 0.81836 0)
(6.89444 0.611472 0)
(6.79102 0.960415 0)
(6.79925 0.690541 0)
(6.76588 1.07632 0)
(6.76118 0.696019 0)
(6.77684 1.11674 0)
(6.79613 0.605201 0)
(6.78182 1.08073 0)
(6.83772 0.454432 0)
(6.77793 0.958714 0)
(6.78443 0.237388 0)
(6.74602 0.734759 0)
(6.65948 -0.0587917 0)
(6.66182 0.504391 0)
(6.58084 -0.300808 0)
(6.57789 0.380815 0)
(6.5764 -0.432447 0)
(6.49656 0.298783 0)
(6.56389 -0.555481 0)
(6.35746 0.2233 0)
(6.48494 -0.631898 0)
(6.18859 0.219904 0)
(6.36106 -0.613268 0)
(6.04583 0.305648 0)
(6.28411 -0.549936 0)
(6.06255 0.35907 0)
(6.38847 -0.462851 0)
(6.08356 0.433366 0)
(6.44871 -0.284262 0)
(6.04525 0.57531 0)
(6.43559 -0.0463084 0)
(6.03965 0.717418 0)
(6.39411 0.162363 0)
(6.02072 0.863413 0)
(6.31272 0.38206 0)
(5.99032 1.03001 0)
(6.25364 0.686765 0)
(5.90883 1.27084 0)
(6.22955 0.996168 0)
(5.8649 1.50056 0)
(6.1481 1.25374 0)
(5.80807 1.75265 0)
(6.0818 1.53366 0)
(5.71368 2.16704 0)
(6.00528 1.92856 0)
(5.42956 2.86523 0)
(6.19905 2.63154 0)
(5.23128 4.35268 0)
(6.41983 4.59344 0)
(3.72398 8.62395 0)
(5.50387 -0.301632 0)
(5.61941 -0.243348 0)
(5.89123 -0.299779 0)
(6.06719 -0.36234 0)
(6.38485 -0.435849 0)
(6.619 -0.532114 0)
(6.95526 -0.603196 0)
(7.18361 -0.707781 0)
(7.5333 -0.852403 0)
(7.70694 -0.907153 0)
(7.99099 -1.02147 0)
(8.22013 -1.07988 0)
(8.55751 -1.2254 0)
(8.88694 -1.40968 0)
(9.17752 -1.57012 0)
(9.4541 -1.69764 0)
(9.73315 -1.86033 0)
(9.94722 -1.97723 0)
(10.0651 -2.09302 0)
(10.2063 -2.16165 0)
(10.1963 -2.21025 0)
(10.2852 -2.1993 0)
(10.2623 -2.19358 0)
(10.3263 -2.15799 0)
(10.2793 -2.11125 0)
(10.1914 -2.01933 0)
(10.0475 -1.9226 0)
(9.85846 -1.80142 0)
(9.63658 -1.69847 0)
(9.45203 -1.56355 0)
(9.2524 -1.47722 0)
(9.16856 -1.38972 0)
(8.9392 -1.30033 0)
(8.86859 -1.19174 0)
(8.5195 -1.13949 0)
(8.42639 -1.04694 0)
(8.05769 -0.974214 0)
(7.91195 -0.79218 0)
(7.70333 -0.759167 0)
(7.58656 -0.58054 0)
(7.52027 -0.526613 0)
(7.37569 -0.275217 0)
(7.29028 -0.163467 0)
(7.17745 0.111284 0)
(7.12067 0.167986 0)
(6.9787 0.445426 0)
(6.99346 0.415123 0)
(6.77588 0.685462 0)
(6.87845 0.540811 0)
(6.7182 0.848061 0)
(6.78849 0.620926 0)
(6.66454 0.989155 0)
(6.73452 0.695716 0)
(6.66795 1.10747 0)
(6.68035 0.675836 0)
(6.733 1.13893 0)
(6.69641 0.575553 0)
(6.78842 1.10152 0)
(6.76513 0.422362 0)
(6.7904 1.00106 0)
(6.77062 0.204709 0)
(6.74912 0.804911 0)
(6.68207 -0.088381 0)
(6.65613 0.579108 0)
(6.60449 -0.345488 0)
(6.55892 0.459336 0)
(6.60006 -0.496544 0)
(6.45673 0.382632 0)
(6.58367 -0.613562 0)
(6.31533 0.33586 0)
(6.50391 -0.688857 0)
(6.14687 0.350203 0)
(6.39139 -0.694377 0)
(6.02964 0.424739 0)
(6.37563 -0.670093 0)
(6.05562 0.456185 0)
(6.47624 -0.590138 0)
(6.02937 0.560555 0)
(6.55531 -0.421032 0)
(5.98671 0.716288 0)
(6.62712 -0.20291 0)
(6.02554 0.866671 0)
(6.65301 0.00439362 0)
(6.06972 1.03043 0)
(6.62313 0.220223 0)
(6.10326 1.20831 0)
(6.57317 0.533563 0)
(6.065 1.46338 0)
(6.44279 0.814892 0)
(6.01913 1.70768 0)
(6.37036 1.07901 0)
(5.91962 1.97408 0)
(6.3629 1.32818 0)
(5.88024 2.39785 0)
(6.55563 1.80514 0)
(5.65343 3.22571 0)
(6.49592 2.48471 0)
(4.9617 4.61412 0)
(8.24769 3.93569 0)
(5.88983 9.0676 0)
(7.82911 -0.30661 0)
(7.80507 -0.300724 0)
(7.97358 -0.361112 0)
(8.05645 -0.429644 0)
(8.24536 -0.513159 0)
(8.36696 -0.596492 0)
(8.56558 -0.684665 0)
(8.69168 -0.782422 0)
(8.90328 -0.92162 0)
(9.01926 -0.99586 0)
(9.20192 -1.10727 0)
(9.38724 -1.19257 0)
(9.65529 -1.33726 0)
(9.92041 -1.51375 0)
(10.1428 -1.67039 0)
(10.2962 -1.79192 0)
(10.4722 -1.92949 0)
(10.6048 -2.02754 0)
(10.6632 -2.1254 0)
(10.7071 -2.17345 0)
(10.6571 -2.20213 0)
(10.6752 -2.19805 0)
(10.6336 -2.1859 0)
(10.5995 -2.14227 0)
(10.4752 -2.07059 0)
(10.3064 -1.95954 0)
(10.1038 -1.84427 0)
(9.86628 -1.70845 0)
(9.60274 -1.5998 0)
(9.3852 -1.48009 0)
(9.16117 -1.4035 0)
(9.04394 -1.31588 0)
(8.77405 -1.21356 0)
(8.65646 -1.09741 0)
(8.28569 -1.03165 0)
(8.18411 -0.944252 0)
(7.75931 -0.862741 0)
(7.66332 -0.709802 0)
(7.41011 -0.69841 0)
(7.34724 -0.528181 0)
(7.27299 -0.493137 0)
(7.12422 -0.222215 0)
(7.06196 -0.123145 0)
(6.93215 0.156764 0)
(6.89765 0.20067 0)
(6.75382 0.483559 0)
(6.76469 0.446662 0)
(6.58324 0.712862 0)
(6.67401 0.546923 0)
(6.57556 0.866298 0)
(6.61935 0.636023 0)
(6.51344 0.998849 0)
(6.59051 0.686195 0)
(6.54033 1.11772 0)
(6.57981 0.64643 0)
(6.63116 1.14634 0)
(6.59967 0.539422 0)
(6.75208 1.10883 0)
(6.64953 0.390678 0)
(6.79079 1.01808 0)
(6.69705 0.186728 0)
(6.74649 0.849565 0)
(6.66812 -0.0996947 0)
(6.65533 0.639183 0)
(6.59331 -0.370938 0)
(6.54504 0.504361 0)
(6.57639 -0.5302 0)
(6.44684 0.451784 0)
(6.54461 -0.642147 0)
(6.31432 0.420569 0)
(6.45936 -0.7283 0)
(6.16032 0.446094 0)
(6.35593 -0.75607 0)
(6.07346 0.50579 0)
(6.38766 -0.758374 0)
(6.05788 0.546265 0)
(6.45825 -0.689742 0)
(5.98947 0.670151 0)
(6.56172 -0.549419 0)
(5.94581 0.825209 0)
(6.74648 -0.365738 0)
(5.99856 0.988478 0)
(6.90943 -0.173314 0)
(6.09472 1.1683 0)
(7.04782 0.0339571 0)
(6.1993 1.35447 0)
(7.1837 0.365909 0)
(6.27249 1.63992 0)
(7.16997 0.677685 0)
(6.19426 1.87991 0)
(7.05715 0.947417 0)
(6.03059 2.14364 0)
(6.89898 1.14778 0)
(5.8293 2.48369 0)
(7.27786 1.44442 0)
(5.93933 3.33763 0)
(8.37768 2.28869 0)
(5.28592 4.98524 0)
(9.06168 3.30526 0)
(6.92766 9.07659 0)
(9.79732 -0.329288 0)
(9.72415 -0.355388 0)
(9.81074 -0.413085 0)
(9.87183 -0.473465 0)
(9.9874 -0.552927 0)
(10.054 -0.632604 0)
(10.1531 -0.728209 0)
(10.2123 -0.825023 0)
(10.3092 -0.953632 0)
(10.3822 -1.04515 0)
(10.4945 -1.15888 0)
(10.6162 -1.26491 0)
(10.7791 -1.40929 0)
(10.9206 -1.57747 0)
(11.0426 -1.73059 0)
(11.0754 -1.8399 0)
(11.1217 -1.95784 0)
(11.1535 -2.04314 0)
(11.1383 -2.11968 0)
(11.0913 -2.15342 0)
(11.0069 -2.17587 0)
(10.9595 -2.18146 0)
(10.8601 -2.15753 0)
(10.7347 -2.09353 0)
(10.5347 -1.99563 0)
(10.3071 -1.86755 0)
(10.0447 -1.73875 0)
(9.76374 -1.595 0)
(9.47592 -1.48881 0)
(9.22962 -1.38007 0)
(8.97484 -1.3195 0)
(8.8055 -1.22964 0)
(8.50527 -1.11605 0)
(8.34369 -0.992323 0)
(7.97596 -0.918673 0)
(7.85245 -0.833462 0)
(7.40376 -0.750906 0)
(7.34599 -0.638038 0)
(7.06308 -0.648258 0)
(7.076 -0.488462 0)
(6.97947 -0.465059 0)
(6.8365 -0.168523 0)
(6.80461 -0.086878 0)
(6.64561 0.205608 0)
(6.63747 0.229438 0)
(6.47861 0.522665 0)
(6.49836 0.460958 0)
(6.36955 0.740761 0)
(6.43439 0.541576 0)
(6.37621 0.88017 0)
(6.41614 0.638722 0)
(6.35222 1.02076 0)
(6.40928 0.677025 0)
(6.37682 1.13095 0)
(6.4468 0.620163 0)
(6.46501 1.16442 0)
(6.49514 0.489127 0)
(6.61021 1.13066 0)
(6.54842 0.343742 0)
(6.70872 1.03809 0)
(6.60709 0.155719 0)
(6.70351 0.883762 0)
(6.63683 -0.125682 0)
(6.61122 0.694349 0)
(6.59188 -0.393765 0)
(6.4867 0.572705 0)
(6.54472 -0.559887 0)
(6.38483 0.528165 0)
(6.49327 -0.687171 0)
(6.25994 0.519863 0)
(6.40665 -0.777823 0)
(6.11634 0.557792 0)
(6.3365 -0.829604 0)
(6.03054 0.606842 0)
(6.37597 -0.856615 0)
(5.93675 0.67541 0)
(6.4113 -0.810344 0)
(5.8236 0.8096 0)
(6.53641 -0.705928 0)
(5.77672 0.967408 0)
(6.7929 -0.551667 0)
(5.79187 1.14616 0)
(7.07614 -0.387944 0)
(5.87725 1.33568 0)
(7.38726 -0.21877 0)
(6.03984 1.52395 0)
(7.73789 0.0900379 0)
(6.26225 1.83523 0)
(7.97663 0.428026 0)
(6.45878 2.13617 0)
(8.03263 0.75916 0)
(6.41627 2.48632 0)
(7.77017 1.0282 0)
(5.87222 2.90052 0)
(7.48055 1.11846 0)
(5.26256 3.5276 0)
(8.88568 1.68204 0)
(5.85139 5.05947 0)
(10.765 2.28032 0)
(8.29758 8.43622 0)
(11.3347 -0.294519 0)
(11.2944 -0.334111 0)
(11.3084 -0.414486 0)
(11.3296 -0.488218 0)
(11.3874 -0.570892 0)
(11.4184 -0.651129 0)
(11.4543 -0.748605 0)
(11.47 -0.844508 0)
(11.5019 -0.965263 0)
(11.5402 -1.07325 0)
(11.5974 -1.19153 0)
(11.6437 -1.30339 0)
(11.7032 -1.43997 0)
(11.7257 -1.58806 0)
(11.7407 -1.73661 0)
(11.6853 -1.83943 0)
(11.6131 -1.94466 0)
(11.5434 -2.02719 0)
(11.4492 -2.09352 0)
(11.3486 -2.12708 0)
(11.2422 -2.14494 0)
(11.1356 -2.1431 0)
(10.9622 -2.09612 0)
(10.7519 -2.01064 0)
(10.4751 -1.89252 0)
(10.1874 -1.75386 0)
(9.869 -1.6165 0)
(9.55911 -1.47488 0)
(9.25977 -1.37143 0)
(8.98788 -1.27109 0)
(8.6966 -1.218 0)
(8.47158 -1.125 0)
(8.14431 -1.00478 0)
(7.95662 -0.882668 0)
(7.58685 -0.800858 0)
(7.44075 -0.718347 0)
(6.98687 -0.639503 0)
(6.96747 -0.579573 0)
(6.68804 -0.603881 0)
(6.78042 -0.465184 0)
(6.62886 -0.435063 0)
(6.52229 -0.118202 0)
(6.50348 -0.055222 0)
(6.33631 0.249484 0)
(6.34609 0.258774 0)
(6.16992 0.557909 0)
(6.18801 0.473132 0)
(6.13022 0.752442 0)
(6.16305 0.535003 0)
(6.17199 0.891848 0)
(6.14757 0.629141 0)
(6.18356 1.02479 0)
(6.17226 0.661425 0)
(6.24535 1.11792 0)
(6.22618 0.584944 0)
(6.34231 1.15205 0)
(6.32002 0.449831 0)
(6.47078 1.12992 0)
(6.425 0.301754 0)
(6.59517 1.04321 0)
(6.51019 0.125064 0)
(6.66305 0.894599 0)
(6.55701 -0.132613 0)
(6.59002 0.723497 0)
(6.53532 -0.391945 0)
(6.45985 0.606901 0)
(6.45192 -0.580845 0)
(6.35376 0.571205 0)
(6.38068 -0.708573 0)
(6.24436 0.586384 0)
(6.2961 -0.81255 0)
(6.11396 0.62769 0)
(6.25937 -0.887007 0)
(6.00006 0.683723 0)
(6.26534 -0.930941 0)
(5.85459 0.776597 0)
(6.2886 -0.915396 0)
(5.74559 0.914459 0)
(6.42028 -0.845014 0)
(5.69258 1.07182 0)
(6.67104 -0.720129 0)
(5.66766 1.25557 0)
(7.00542 -0.590383 0)
(5.71229 1.45522 0)
(7.42938 -0.470761 0)
(5.83264 1.65918 0)
(7.94722 -0.238743 0)
(6.08054 1.98174 0)
(8.61826 0.0144124 0)
(6.4305 2.26574 0)
(9.47359 0.337297 0)
(6.77804 2.63498 0)
(10.3071 0.77979 0)
(6.6247 3.12521 0)
(10.6454 1.26374 0)
(5.56641 3.81892 0)
(10.2134 1.48276 0)
(5.40443 5.48937 0)
(9.91272 1.3755 0)
(8.8283 7.79384 0)
(12.4133 -0.298418 0)
(12.3882 -0.38012 0)
(12.3746 -0.458279 0)
(12.375 -0.518975 0)
(12.3939 -0.586054 0)
(12.393 -0.654989 0)
(12.3825 -0.746282 0)
(12.365 -0.843001 0)
(12.3552 -0.961722 0)
(12.3491 -1.0781 0)
(12.3413 -1.19775 0)
(12.3152 -1.30627 0)
(12.2923 -1.43378 0)
(12.2346 -1.5609 0)
(12.164 -1.70021 0)
(12.0533 -1.80383 0)
(11.9128 -1.90113 0)
(11.7784 -1.9811 0)
(11.6365 -2.04703 0)
(11.5101 -2.08513 0)
(11.3717 -2.09705 0)
(11.1884 -2.07465 0)
(10.9413 -2.00247 0)
(10.6458 -1.89482 0)
(10.3045 -1.76317 0)
(9.96351 -1.61469 0)
(9.60874 -1.47379 0)
(9.2774 -1.33968 0)
(8.96213 -1.2439 0)
(8.65595 -1.14893 0)
(8.33155 -1.09699 0)
(8.04438 -0.999952 0)
(7.70265 -0.886119 0)
(7.49015 -0.767535 0)
(7.12937 -0.686619 0)
(6.96272 -0.603961 0)
(6.53281 -0.539935 0)
(6.5599 -0.53863 0)
(6.30685 -0.574919 0)
(6.43426 -0.446427 0)
(6.21741 -0.395677 0)
(6.17159 -0.0772369 0)
(6.14654 -0.037464 0)
(6.00154 0.290906 0)
(6.02012 0.282289 0)
(5.83042 0.593423 0)
(5.86366 0.46369 0)
(5.85205 0.772799 0)
(5.86975 0.503659 0)
(5.90829 0.905907 0)
(5.89846 0.610777 0)
(5.97347 1.04053 0)
(5.93094 0.641291 0)
(6.09291 1.12481 0)
(5.97912 0.558125 0)
(6.20777 1.13432 0)
(6.10976 0.409547 0)
(6.33237 1.11501 0)
(6.28958 0.25412 0)
(6.43825 1.04738 0)
(6.44491 0.0771901 0)
(6.53228 0.917818 0)
(6.49762 -0.146417 0)
(6.47519 0.761616 0)
(6.46953 -0.40045 0)
(6.35399 0.661753 0)
(6.37796 -0.595682 0)
(6.24771 0.637109 0)
(6.29211 -0.743272 0)
(6.13995 0.657506 0)
(6.21628 -0.858562 0)
(6.01313 0.710958 0)
(6.18827 -0.946806 0)
(5.85515 0.786323 0)
(6.19074 -1.01745 0)
(5.69849 0.899763 0)
(6.2412 -1.04125 0)
(5.59972 1.04576 0)
(6.36446 -1.00506 0)
(5.53197 1.20781 0)
(6.59529 -0.903602 0)
(5.48351 1.39516 0)
(6.94968 -0.782165 0)
(5.4668 1.60252 0)
(7.3962 -0.665335 0)
(5.44468 1.84736 0)
(7.88644 -0.457925 0)
(5.45972 2.19643 0)
(8.60637 -0.27411 0)
(5.52618 2.4914 0)
(9.68392 -0.0769104 0)
(5.80061 2.82539 0)
(11.2028 0.252642 0)
(6.33273 3.27179 0)
(12.5922 0.650516 0)
(7.00481 4.06676 0)
(12.7215 0.917878 0)
(7.74527 5.59333 0)
(10.7033 1.2946 0)
(8.90926 7.02274 0)
(12.96 -0.31633 0)
(12.9524 -0.434087 0)
(12.9476 -0.488595 0)
(12.9464 -0.520469 0)
(12.9341 -0.569318 0)
(12.9054 -0.635002 0)
(12.8657 -0.727239 0)
(12.8265 -0.832129 0)
(12.7835 -0.949444 0)
(12.7353 -1.06702 0)
(12.6736 -1.18389 0)
(12.5995 -1.2889 0)
(12.5252 -1.40927 0)
(12.4272 -1.52542 0)
(12.3144 -1.65366 0)
(12.1849 -1.75991 0)
(12.0374 -1.8507 0)
(11.8915 -1.92475 0)
(11.7359 -1.98892 0)
(11.577 -2.02713 0)
(11.3711 -2.02613 0)
(11.1003 -1.97829 0)
(10.7767 -1.87838 0)
(10.4117 -1.75254 0)
(10.0234 -1.60963 0)
(9.65152 -1.45975 0)
(9.26962 -1.32299 0)
(8.92116 -1.2035 0)
(8.57204 -1.11412 0)
(8.23762 -1.02307 0)
(7.88242 -0.964293 0)
(7.55464 -0.868375 0)
(7.20506 -0.763602 0)
(6.96663 -0.650379 0)
(6.62528 -0.570725 0)
(6.43441 -0.489405 0)
(6.05838 -0.459492 0)
(6.12294 -0.51562 0)
(5.88309 -0.544375 0)
(6.01406 -0.418248 0)
(5.74843 -0.349752 0)
(5.79315 -0.0490518 0)
(5.73115 -0.018551 0)
(5.62512 0.327022 0)
(5.66286 0.312986 0)
(5.4694 0.623568 0)
(5.51708 0.448071 0)
(5.54746 0.778199 0)
(5.57104 0.498136 0)
(5.61666 0.908848 0)
(5.59533 0.575247 0)
(5.74316 1.03053 0)
(5.66031 0.603012 0)
(5.9311 1.10575 0)
(5.73983 0.53351 0)
(6.08713 1.10888 0)
(5.86614 0.377683 0)
(6.21817 1.07649 0)
(6.08636 0.213872 0)
(6.32191 1.01561 0)
(6.30646 0.0306117 0)
(6.38865 0.920589 0)
(6.39266 -0.15955 0)
(6.34784 0.788354 0)
(6.35641 -0.391949 0)
(6.24118 0.705635 0)
(6.25588 -0.598637 0)
(6.13204 0.681983 0)
(6.16525 -0.754934 0)
(6.03108 0.718418 0)
(6.08869 -0.875225 0)
(5.91195 0.774061 0)
(6.04524 -0.982686 0)
(5.76494 0.853229 0)
(6.0584 -1.08093 0)
(5.63523 0.973922 0)
(6.10996 -1.13844 0)
(5.54401 1.13053 0)
(6.20801 -1.13586 0)
(5.48978 1.29656 0)
(6.39336 -1.06414 0)
(5.47088 1.46965 0)
(6.72237 -0.96746 0)
(5.4844 1.66146 0)
(7.11939 -0.864511 0)
(5.47494 1.90707 0)
(7.44771 -0.664042 0)
(5.45402 2.24601 0)
(7.75293 -0.503986 0)
(5.4298 2.59452 0)
(8.17432 -0.372781 0)
(5.39551 3.03249 0)
(8.86652 -0.197975 0)
(5.76918 3.60616 0)
(9.89798 0.0371618 0)
(6.91909 4.449 0)
(11.1483 0.363771 0)
(8.61285 5.66717 0)
(11.9732 1.62599 0)
(9.65558 6.2418 0)
(13.0478 -0.295564 0)
(13.0564 -0.425091 0)
(13.0744 -0.48846 0)
(13.072 -0.520806 0)
(13.0433 -0.566249 0)
(13.004 -0.631896 0)
(12.9548 -0.722738 0)
(12.9029 -0.82654 0)
(12.8392 -0.935078 0)
(12.7693 -1.04588 0)
(12.6842 -1.15765 0)
(12.5931 -1.26065 0)
(12.502 -1.37591 0)
(12.403 -1.48889 0)
(12.2922 -1.60718 0)
(12.176 -1.71252 0)
(12.0455 -1.80024 0)
(11.9008 -1.86862 0)
(11.7252 -1.92094 0)
(11.5087 -1.93976 0)
(11.2223 -1.91266 0)
(10.8654 -1.83331 0)
(10.4737 -1.71517 0)
(10.0513 -1.58307 0)
(9.63485 -1.44109 0)
(9.23862 -1.29593 0)
(8.83697 -1.16913 0)
(8.47051 -1.058 0)
(8.09341 -0.969025 0)
(7.73264 -0.875312 0)
(7.35488 -0.809137 0)
(7.00871 -0.721822 0)
(6.66962 -0.636491 0)
(6.41503 -0.535103 0)
(6.10001 -0.458433 0)
(5.87885 -0.380085 0)
(5.58936 -0.406521 0)
(5.6529 -0.48831 0)
(5.41462 -0.510922 0)
(5.54922 -0.394154 0)
(5.2757 -0.31931 0)
(5.40122 -0.0396617 0)
(5.26641 -0.00331543 0)
(5.22629 0.346846 0)
(5.25003 0.32598 0)
(5.1065 0.648387 0)
(5.16519 0.416552 0)
(5.21391 0.777136 0)
(5.23681 0.444255 0)
(5.29153 0.92404 0)
(5.30891 0.533732 0)
(5.46486 1.03053 0)
(5.41019 0.558017 0)
(5.69242 1.09647 0)
(5.513 0.491729 0)
(5.89963 1.09067 0)
(5.6617 0.331949 0)
(6.07201 1.05385 0)
(5.89555 0.163905 0)
(6.2046 1.00094 0)
(6.14298 -0.00697487 0)
(6.23431 0.932031 0)
(6.26612 -0.175862 0)
(6.1893 0.826262 0)
(6.23654 -0.396973 0)
(6.08789 0.754535 0)
(6.14909 -0.605905 0)
(5.97565 0.744112 0)
(6.06391 -0.77241 0)
(5.87114 0.785011 0)
(5.98378 -0.909376 0)
(5.76141 0.844416 0)
(5.94098 -1.03203 0)
(5.65571 0.929864 0)
(5.95832 -1.14882 0)
(5.5462 1.06293 0)
(6.02567 -1.23219 0)
(5.45272 1.23788 0)
(6.13096 -1.26861 0)
(5.38989 1.41446 0)
(6.29741 -1.23976 0)
(5.37661 1.58541 0)
(6.61351 -1.17674 0)
(5.40991 1.77863 0)
(7.0441 -1.08946 0)
(5.43272 2.04431 0)
(7.38745 -0.907404 0)
(5.46282 2.37704 0)
(7.67107 -0.776901 0)
(5.57223 2.68141 0)
(7.9817 -0.672115 0)
(5.78181 3.07267 0)
(8.1613 -0.604984 0)
(6.23115 3.68745 0)
(8.33134 -0.556881 0)
(6.99622 4.65781 0)
(9.2003 -0.178037 0)
(8.19222 5.51644 0)
(11.2658 1.541 0)
(10.297 5.65004 0)
(13.003 -0.287156 0)
(13.0152 -0.382271 0)
(13.0467 -0.441885 0)
(13.0515 -0.484248 0)
(13.0227 -0.534173 0)
(12.9753 -0.600843 0)
(12.9139 -0.689568 0)
(12.8484 -0.791804 0)
(12.7719 -0.896454 0)
(12.6989 -1.0062 0)
(12.6162 -1.11835 0)
(12.5325 -1.2247 0)
(12.4469 -1.33722 0)
(12.3603 -1.4508 0)
(12.2546 -1.56074 0)
(12.1392 -1.66229 0)
(11.992 -1.74399 0)
(11.816 -1.8023 0)
(11.5807 -1.82798 0)
(11.2859 -1.81527 0)
(10.9091 -1.75544 0)
(10.4788 -1.65335 0)
(10.0283 -1.52905 0)
(9.56882 -1.40235 0)
(9.13206 -1.26421 0)
(8.71836 -1.12731 0)
(8.29943 -1.0091 0)
(7.91885 -0.902241 0)
(7.51847 -0.811264 0)
(7.13818 -0.721743 0)
(6.74501 -0.657143 0)
(6.39852 -0.582545 0)
(6.07465 -0.511608 0)
(5.82355 -0.422877 0)
(5.52597 -0.345588 0)
(5.30919 -0.28812 0)
(5.10756 -0.3654 0)
(5.14722 -0.455517 0)
(4.9183 -0.480768 0)
(5.0752 -0.375445 0)
(4.80099 -0.291963 0)
(4.98045 -0.0287904 0)
(4.77145 0.0226051 0)
(4.82461 0.361763 0)
(4.82059 0.337057 0)
(4.74033 0.66207 0)
(4.79638 0.380483 0)
(4.88679 0.779785 0)
(4.90666 0.433867 0)
(4.96646 0.90644 0)
(4.97591 0.48049 0)
(5.17443 0.997245 0)
(5.12007 0.501389 0)
(5.44412 1.06787 0)
(5.28533 0.45585 0)
(5.69012 1.06153 0)
(5.44639 0.286904 0)
(5.91792 1.02105 0)
(5.66146 0.115446 0)
(6.08619 0.969729 0)
(5.90457 -0.0324926 0)
(6.11198 0.91496 0)
(6.05555 -0.175325 0)
(6.0607 0.837561 0)
(6.04234 -0.378161 0)
(5.96792 0.780285 0)
(5.96828 -0.583387 0)
(5.86581 0.769725 0)
(5.88094 -0.760458 0)
(5.77304 0.812656 0)
(5.81162 -0.903312 0)
(5.69475 0.872558 0)
(5.77316 -1.04146 0)
(5.63307 0.956279 0)
(5.78188 -1.17243 0)
(5.55681 1.09528 0)
(5.84499 -1.28052 0)
(5.46527 1.28511 0)
(5.95281 -1.34793 0)
(5.39088 1.47944 0)
(6.10117 -1.3579 0)
(5.38958 1.64151 0)
(6.36426 -1.33638 0)
(5.45046 1.82654 0)
(6.7564 -1.27933 0)
(5.49029 2.14186 0)
(7.041 -1.119 0)
(5.51556 2.51318 0)
(7.30824 -1.02107 0)
(5.60759 2.84653 0)
(7.60483 -0.966036 0)
(5.8716 3.26755 0)
(7.88808 -0.954423 0)
(6.41737 3.83901 0)
(8.19737 -0.84289 0)
(7.26256 4.57646 0)
(8.65889 -0.318046 0)
(8.12985 5.11601 0)
(9.82553 1.19138 0)
(10.3819 5.00769 0)
(12.9594 -0.26273 0)
(12.9687 -0.332254 0)
(13.0044 -0.393375 0)
(13.0065 -0.451725 0)
(12.9739 -0.515632 0)
(12.9118 -0.587562 0)
(12.8414 -0.675008 0)
(12.7707 -0.773583 0)
(12.7023 -0.876332 0)
(12.6368 -0.982755 0)
(12.5683 -1.09262 0)
(12.4914 -1.19717 0)
(12.4074 -1.30447 0)
(12.3057 -1.41096 0)
(12.1789 -1.51205 0)
(12.0205 -1.60011 0)
(11.8189 -1.66724 0)
(11.5664 -1.70209 0)
(11.2439 -1.69834 0)
(10.8523 -1.65374 0)
(10.3937 -1.56799 0)
(9.91047 -1.45122 0)
(9.43087 -1.32986 0)
(8.95803 -1.20888 0)
(8.51538 -1.07569 0)
(8.08795 -0.948431 0)
(7.65693 -0.839635 0)
(7.25891 -0.731229 0)
(6.84084 -0.64045 0)
(6.4571 -0.562217 0)
(6.08177 -0.509065 0)
(5.75427 -0.450797 0)
(5.45378 -0.39548 0)
(5.20705 -0.314528 0)
(4.92582 -0.243178 0)
(4.73934 -0.219744 0)
(4.59823 -0.335315 0)
(4.60684 -0.428424 0)
(4.40658 -0.462529 0)
(4.56275 -0.362392 0)
(4.27877 -0.270374 0)
(4.50543 -0.0225145 0)
(4.2452 0.0336006 0)
(4.41542 0.355045 0)
(4.31673 0.327984 0)
(4.36656 0.657031 0)
(4.38955 0.336281 0)
(4.52194 0.761293 0)
(4.49787 0.364197 0)
(4.65319 0.908666 0)
(4.64749 0.428477 0)
(4.86514 0.977383 0)
(4.83572 0.438597 0)
(5.13872 1.02806 0)
(5.03202 0.382043 0)
(5.4397 1.03447 0)
(5.19497 0.217802 0)
(5.71073 0.995089 0)
(5.40861 0.05648 0)
(5.90815 0.946535 0)
(5.64644 -0.0644267 0)
(5.95246 0.900738 0)
(5.825 -0.182657 0)
(5.92007 0.84745 0)
(5.8531 -0.36333 0)
(5.84587 0.798066 0)
(5.80423 -0.564873 0)
(5.75979 0.795035 0)
(5.74004 -0.740203 0)
(5.67285 0.8413 0)
(5.69445 -0.891518 0)
(5.60622 0.901902 0)
(5.66515 -1.0388 0)
(5.56231 0.990853 0)
(5.6654 -1.17525 0)
(5.51423 1.13152 0)
(5.71023 -1.29668 0)
(5.43511 1.32631 0)
(5.83478 -1.39701 0)
(5.34726 1.5361 0)
(6.01967 -1.46165 0)
(5.32645 1.71059 0)
(6.28202 -1.49228 0)
(5.39795 1.8987 0)
(6.62961 -1.46414 0)
(5.49747 2.25376 0)
(6.9242 -1.31299 0)
(5.57066 2.63251 0)
(7.22508 -1.25319 0)
(5.74834 2.95904 0)
(7.46562 -1.24567 0)
(6.12522 3.37017 0)
(7.66675 -1.22213 0)
(6.74677 3.86485 0)
(7.8516 -0.984339 0)
(7.49737 4.41805 0)
(8.27869 -0.25884 0)
(8.35044 4.63205 0)
(9.02306 1.06061 0)
(10.1145 4.28095 0)
(12.9351 -0.244518 0)
(12.9457 -0.296529 0)
(12.985 -0.356908 0)
(12.9915 -0.42372 0)
(12.9603 -0.495612 0)
(12.9009 -0.572928 0)
(12.8302 -0.65706 0)
(12.7623 -0.749953 0)
(12.6943 -0.846124 0)
(12.6216 -0.946084 0)
(12.5385 -1.04808 0)
(12.4414 -1.14796 0)
(12.3248 -1.24602 0)
(12.181 -1.34344 0)
(11.9999 -1.43046 0)
(11.7708 -1.50045 0)
(11.4838 -1.54401 0)
(11.1307 -1.55308 0)
(10.7024 -1.52206 0)
(10.2194 -1.45492 0)
(9.69941 -1.35536 0)
(9.18718 -1.24043 0)
(8.69746 -1.13352 0)
(8.22501 -1.02243 0)
(7.7907 -0.89321 0)
(7.36081 -0.771946 0)
(6.92258 -0.667478 0)
(6.52085 -0.559812 0)
(6.10445 -0.473228 0)
(5.7434 -0.405184 0)
(5.40083 -0.361744 0)
(5.11017 -0.319757 0)
(4.839 -0.274407 0)
(4.60107 -0.203935 0)
(4.35121 -0.144969 0)
(4.20519 -0.158417 0)
(4.10997 -0.29902 0)
(4.09375 -0.396502 0)
(3.9229 -0.438397 0)
(4.0628 -0.344221 0)
(3.78361 -0.248407 0)
(4.04567 -0.017066 0)
(3.73685 0.0426745 0)
(4.02167 0.346718 0)
(3.80769 0.323999 0)
(4.01659 0.636024 0)
(3.96644 0.288621 0)
(4.21655 0.764436 0)
(4.10866 0.338677 0)
(4.34674 0.870654 0)
(4.2796 0.361028 0)
(4.58569 0.930917 0)
(4.49481 0.366352 0)
(4.88352 0.991967 0)
(4.72048 0.328332 0)
(5.2041 0.997857 0)
(4.9075 0.163355 0)
(5.48846 0.945146 0)
(5.1006 0.00398474 0)
(5.71342 0.901911 0)
(5.34491 -0.0834833 0)
(5.79031 0.858883 0)
(5.54777 -0.170373 0)
(5.77987 0.823567 0)
(5.6213 -0.32892 0)
(5.72296 0.7821 0)
(5.60712 -0.523773 0)
(5.65357 0.780644 0)
(5.56434 -0.699233 0)
(5.57787 0.821036 0)
(5.53719 -0.854335 0)
(5.52867 0.881681 0)
(5.51469 -1.00524 0)
(5.51342 0.97159 0)
(5.49683 -1.14042 0)
(5.50528 1.11394 0)
(5.50407 -1.25758 0)
(5.46842 1.30927 0)
(5.60781 -1.36181 0)
(5.38925 1.53216 0)
(5.79739 -1.45166 0)
(5.34377 1.70606 0)
(6.04929 -1.52303 0)
(5.38416 1.89598 0)
(6.34125 -1.54749 0)
(5.5079 2.29335 0)
(6.63144 -1.43584 0)
(5.60177 2.68893 0)
(6.97363 -1.40032 0)
(5.83417 3.03734 0)
(7.23099 -1.38941 0)
(6.25444 3.4171 0)
(7.47319 -1.34791 0)
(6.93975 3.83429 0)
(7.80913 -0.979515 0)
(7.68681 4.13528 0)
(8.36021 -0.172126 0)
(8.58981 4.0532 0)
(9.21331 1.12501 0)
(9.97159 3.51554 0)
(12.9308 -0.231143 0)
(12.9382 -0.262927 0)
(12.9724 -0.315058 0)
(12.9706 -0.382063 0)
(12.9333 -0.460692 0)
(12.8673 -0.544226 0)
(12.7885 -0.630962 0)
(12.7049 -0.71998 0)
(12.6167 -0.811993 0)
(12.5154 -0.904791 0)
(12.3998 -0.99978 0)
(12.2601 -1.0902 0)
(12.091 -1.17729 0)
(11.8812 -1.25933 0)
(11.6205 -1.32691 0)
(11.297 -1.37159 0)
(10.9074 -1.38723 0)
(10.4448 -1.36625 0)
(9.9248 -1.31142 0)
(9.37433 -1.22966 0)
(8.81275 -1.12804 0)
(8.28438 -1.02567 0)
(7.78425 -0.936396 0)
(7.31402 -0.835686 0)
(6.89684 -0.711221 0)
(6.47479 -0.592945 0)
(6.04606 -0.497137 0)
(5.66877 -0.395063 0)
(5.2878 -0.321965 0)
(4.97017 -0.273443 0)
(4.67164 -0.245923 0)
(4.42048 -0.212324 0)
(4.17732 -0.174621 0)
(3.9636 -0.114227 0)
(3.76058 -0.0722335 0)
(3.66042 -0.119342 0)
(3.59105 -0.272022 0)
(3.55658 -0.369158 0)
(3.41715 -0.416248 0)
(3.52139 -0.327245 0)
(3.28516 -0.233639 0)
(3.54465 -0.0183969 0)
(3.21444 0.0407238 0)
(3.58377 0.337045 0)
(3.27398 0.306223 0)
(3.67115 0.5855 0)
(3.49179 0.245462 0)
(3.88857 0.725414 0)
(3.65713 0.263902 0)
(4.07659 0.856178 0)
(3.89651 0.316182 0)
(4.322 0.893484 0)
(4.144 0.310166 0)
(4.6118 0.92014 0)
(4.3872 0.24328 0)
(4.95857 0.946177 0)
(4.57919 0.0937082 0)
(5.26477 0.909928 0)
(4.78168 -0.0420557 0)
(5.4851 0.854692 0)
(5.0567 -0.108596 0)
(5.5855 0.817588 0)
(5.2795 -0.174399 0)
(5.61228 0.795535 0)
(5.39358 -0.308688 0)
(5.5965 0.764924 0)
(5.42111 -0.486824 0)
(5.54428 0.765434 0)
(5.41512 -0.651839 0)
(5.4859 0.802368 0)
(5.41689 -0.805744 0)
(5.45393 0.862099 0)
(5.41101 -0.961109 0)
(5.44799 0.95289 0)
(5.39503 -1.09859 0)
(5.45123 1.09431 0)
(5.38576 -1.2181 0)
(5.44398 1.2779 0)
(5.45612 -1.32298 0)