/*--------------------------------*- C++ -*----------------------------------*\
| =========                 |                                                 |
| \\      /  F ield         | OpenFOAM: The Open Source CFD Toolbox           |
|  \\    /   O peration     | Version:  2.4.0                                 |
|   \\  /    A nd           | Web:      www.OpenFOAM.org                      |
|    \\/     M anipulation  |                                                 |
\*---------------------------------------------------------------------------*/
FoamFile
{
    version     2.0;
    format      ascii;
    class       volScalarField;
    location    "0.058";
    object      k_0;
}
// * * * * * * * * * * * * * * * * * * * * * * * * * * * * * * * * * * * * * //

dimensions      [0 2 -2 0 0 0 0];

internalField   nonuniform List<scalar> 
17600
(
9.2887
7.41301
5.12133
3.93234
3.34438
2.94796
2.69856
2.47038
2.33519
2.19995
2.12729
2.02504
2.00134
1.90312
1.9208
1.8328
1.90177
1.86648
1.99961
1.97963
4.50591
6.20966
5.84107
5.04545
4.42499
3.92245
3.60634
3.30704
3.12521
2.93705
2.8346
2.68846
2.64901
2.51651
2.51806
2.4045
2.44219
2.37027
2.40446
2.54846
1.32167
3.28776
3.99597
3.95638
3.77486
3.45093
3.23463
3.00318
2.8588
2.69463
2.61045
2.47412
2.4377
2.32255
2.31151
2.21335
2.21594
2.15979
2.11234
2.16962
0.207527
1.19765
1.92875
2.31459
2.52112
2.51063
2.47706
2.388
2.32332
2.21957
2.17584
2.07906
2.05514
1.97616
1.9628
1.89422
1.87984
1.84337
1.77007
1.7413
0.0260154
0.268343
0.650068
0.948684
1.2537
1.42033
1.54775
1.59251
1.62652
1.61469
1.61556
1.58801
1.58315
1.55157
1.54527
1.51301
1.49624
1.4764
1.42453
1.35999
0.00274455
0.044354
0.152813
0.24943
0.424044
0.562805
0.707275
0.806577
0.906389
0.950172
1.01456
1.03011
1.06229
1.07209
1.08586
1.08742
1.08015
1.0784
1.05236
0.994885
0.000281636
0.0064143
0.0259268
0.0466358
0.0938646
0.146492
0.217754
0.278625
0.358578
0.40547
0.474517
0.517973
0.55696
0.604996
0.623922
0.663227
0.664924
0.68156
0.667867
0.636261
5.04035e-05
0.000893444
0.00365316
0.00675631
0.013212
0.0264799
0.044176
0.061525
0.0945512
0.116819
0.149174
0.183023
0.202655
0.244887
0.26225
0.302845
0.310356
0.336171
0.331172
0.310931
2.82795e-05
0.000149099
0.000579752
0.000940347
0.0016614
0.00348667
0.00600668
0.00932732
0.016108
0.0217839
0.0301354
0.0424102
0.0494254
0.0653388
0.0730348
0.0927449
0.0977274
0.113232
0.11274
0.101739
2.42561e-05
4.83804e-05
0.000149389
0.000195551
0.000274135
0.000465273
0.00073804
0.00116171
0.00208616
0.00272189
0.0040697
0.0063238
0.00781778
0.0111088
0.0129883
0.0181318
0.019459
0.0244244
0.0244932
0.021581
2.33575e-05
3.34865e-05
7.26025e-05
8.4075e-05
0.000102654
0.000126074
0.000159754
0.000198746
0.00030913
0.000374646
0.000510255
0.000754426
0.000932492
0.00130847
0.00157175
0.00224134
0.00246862
0.00337929
0.00333059
0.00355743
2.26386e-05
3.06702e-05
5.23138e-05
6.14136e-05
7.02779e-05
7.63588e-05
8.30449e-05
8.85045e-05
0.000105587
0.00011902
0.000136428
0.000163666
0.0001781
0.000208654
0.000241118
0.000262952
0.000361637
0.000400085
0.000432051
0.000812523
2.18253e-05
2.92093e-05
4.33823e-05
5.57772e-05
5.99001e-05
6.15228e-05
6.31568e-05
6.60619e-05
7.34653e-05
8.02547e-05
8.48062e-05
9.6263e-05
9.79965e-05
0.000104388
0.000102711
0.00010467
0.000121501
0.000127907
0.000257303
0.000290103
2.15202e-05
2.81644e-05
3.9445e-05
4.94093e-05
5.27992e-05
5.46805e-05
5.63969e-05
5.76331e-05
6.00617e-05
6.34144e-05
6.83396e-05
7.55542e-05
7.66532e-05
8.0063e-05
7.7569e-05
8.97595e-05
8.64428e-05
9.00794e-05
0.000195726
0.000171072
2.12383e-05
2.69876e-05
3.7111e-05
4.39915e-05
4.76896e-05
5.00228e-05
5.12585e-05
5.16978e-05
5.24944e-05
5.39149e-05
5.82513e-05
6.21355e-05
6.4486e-05
6.43506e-05
6.43695e-05
7.06655e-05
7.1842e-05
0.000117015
0.000120717
0.000125915
2.09836e-05
2.60785e-05
3.51491e-05
4.04869e-05
4.36483e-05
4.58686e-05
4.68654e-05
4.70597e-05
4.74224e-05
4.80293e-05
5.08357e-05
5.38427e-05
5.52147e-05
5.48067e-05
5.96038e-05
5.84437e-05
5.90098e-05
9.61764e-05
8.89829e-05
0.000101067
2.07999e-05
2.52743e-05
3.37292e-05
3.84282e-05
4.05987e-05
4.22571e-05
4.29043e-05
4.31848e-05
4.35702e-05
4.40825e-05
4.59529e-05
4.79793e-05
4.81374e-05
4.86943e-05
5.09018e-05
5.25884e-05
7.08204e-05
6.88705e-05
7.06143e-05
9.96972e-05
2.06723e-05
2.48566e-05
3.27617e-05
3.66235e-05
3.81769e-05
3.97111e-05
4.04462e-05
4.10036e-05
4.11078e-05
4.12319e-05
4.21905e-05
4.32806e-05
4.3556e-05
4.64576e-05
4.64958e-05
4.67812e-05
5.91981e-05
5.98196e-05
6.43788e-05
0.00011468
2.0594e-05
2.45773e-05
3.2048e-05
3.57062e-05
3.69634e-05
3.80657e-05
3.87232e-05
3.92851e-05
3.93808e-05
3.94419e-05
4.00476e-05
4.05414e-05
4.17046e-05
4.24767e-05
4.40253e-05
5.18378e-05
4.98148e-05
5.11364e-05
6.7111e-05
8.78067e-05
2.05544e-05
2.4567e-05
3.19234e-05
3.5177e-05
3.6002e-05
3.7219e-05
3.80178e-05
3.87002e-05
3.87839e-05
3.8722e-05
3.88242e-05
3.91994e-05
4.06024e-05
4.19838e-05
4.23939e-05
4.58882e-05
4.78391e-05
5.35122e-05
5.97878e-05
6.19798e-05
2.05551e-05
2.4562e-05
3.18181e-05
3.5185e-05
3.60803e-05
3.72861e-05
3.79129e-05
3.87227e-05
3.8747e-05
3.86894e-05
3.9061e-05
3.92977e-05
4.00711e-05
4.17317e-05
4.44173e-05
4.49942e-05
4.54026e-05
5.04464e-05
5.01659e-05
5.13733e-05
2.05963e-05
2.46651e-05
3.21895e-05
3.58017e-05
3.65296e-05
3.76964e-05
3.86585e-05
3.97016e-05
3.97067e-05
3.98517e-05
4.00295e-05
4.02136e-05
4.24437e-05
4.2861e-05
4.32941e-05
4.53294e-05
4.80229e-05
4.78549e-05
4.76386e-05
4.94305e-05
2.0677e-05
2.49194e-05
3.27683e-05
3.69903e-05
3.77694e-05
3.90873e-05
4.04214e-05
4.12215e-05
4.13754e-05
4.21488e-05
4.19925e-05
4.25273e-05
4.47595e-05
4.5308e-05
4.78392e-05
4.77929e-05
4.81727e-05
4.80786e-05
4.86836e-05
5.13247e-05
2.08017e-05
2.51739e-05
3.38638e-05
3.90471e-05
3.97408e-05
4.14588e-05
4.27985e-05
4.36265e-05
4.49691e-05
4.52112e-05
4.50861e-05
4.75646e-05
4.80191e-05
4.88103e-05
5.21412e-05
5.17368e-05
5.14073e-05
5.22201e-05
5.3828e-05
5.72223e-05
2.09854e-05
2.58186e-05
3.54398e-05
4.15502e-05
4.24671e-05
4.51236e-05
4.62121e-05
4.78882e-05
4.9316e-05
4.91033e-05
5.02542e-05
5.3112e-05
5.34572e-05
5.80991e-05
5.78356e-05
5.71557e-05
5.83938e-05
5.95512e-05
6.09068e-05
6.47289e-05
2.12396e-05
2.67438e-05
3.76158e-05
4.46298e-05
4.61056e-05
4.98874e-05
5.10966e-05
5.3862e-05
5.43612e-05
5.45552e-05
5.82373e-05
5.97336e-05
6.44081e-05
6.80593e-05
6.62713e-05
6.71317e-05
6.78141e-05
6.87253e-05
7.21351e-05
8.47526e-05
2.15269e-05
2.78755e-05
4.04036e-05
4.86261e-05
5.15865e-05
5.5024e-05
5.76889e-05
6.0786e-05
6.13082e-05
6.36884e-05
6.67603e-05
7.18697e-05
8.20573e-05
8.1058e-05
7.94925e-05
8.04889e-05
8.16444e-05
8.79211e-05
0.000110947
0.000185258
2.18115e-05
2.90714e-05
4.47486e-05
5.39399e-05
5.99106e-05
6.18827e-05
6.71545e-05
6.94041e-05
7.32772e-05
8.0452e-05
8.44049e-05
9.78423e-05
0.0001034
0.000104925
0.000108828
0.000118808
0.000141632
0.000212386
0.000391738
0.000884508
2.24935e-05
3.04123e-05
5.44873e-05
6.04471e-05
7.2648e-05
7.66007e-05
8.61855e-05
9.16388e-05
0.000106899
0.000121741
0.000141598
0.000172341
0.000192577
0.000245764
0.000305339
0.00045665
0.00070271
0.00135084
0.0025351
0.00548699
2.31324e-05
3.31043e-05
7.54347e-05
8.53442e-05
0.000105461
0.000125902
0.000155829
0.000222125
0.000285283
0.000419898
0.000549062
0.000821064
0.0010628
0.00167627
0.00223395
0.00369386
0.00535875
0.00974476
0.0152007
0.0311415
2.40371e-05
4.75414e-05
0.000152151
0.000195084
0.000270074
0.000459766
0.000710968
0.00134294
0.00190858
0.00320553
0.0042956
0.006721
0.00860712
0.0131559
0.0165276
0.0249926
0.0322936
0.0510606
0.0685832
0.123061
2.8028e-05
0.000146921
0.000574284
0.000926798
0.00161475
0.00353036
0.00566854
0.0107635
0.014977
0.0240688
0.0305215
0.044093
0.0526262
0.0722295
0.0843256
0.113263
0.133743
0.183648
0.22125
0.334262
5.05526e-05
0.000885452
0.00361127
0.00668947
0.0129366
0.0272214
0.0413839
0.0670893
0.0905475
0.123092
0.149893
0.18744
0.21112
0.25937
0.285863
0.343257
0.378396
0.456836
0.507915
0.64267
0.000283291
0.00636562
0.0257772
0.046437
0.0921077
0.147941
0.217836
0.281242
0.357546
0.414029
0.47807
0.524608
0.572945
0.624373
0.660363
0.717149
0.753757
0.824815
0.87236
0.98249
0.00275524
0.044031
0.152879
0.248301
0.424488
0.562339
0.710485
0.807171
0.909254
0.957947
1.01941
1.03868
1.07844
1.09447
1.12294
1.14248
1.17274
1.20367
1.24215
1.29456
0.0260935
0.26634
0.651759
0.946427
1.25655
1.41893
1.55328
1.59013
1.63192
1.61886
1.62049
1.59562
1.59402
1.57127
1.57168
1.55657
1.56216
1.55613
1.56523
1.56162
0.208045
1.19552
1.93135
2.31197
2.52496
2.51021
2.47974
2.38317
2.33067
2.21754
2.17762
2.08295
2.05789
1.98527
1.96834
1.90851
1.89363
1.8411
1.81655
1.75943
1.32428
3.2839
3.99824
3.95505
3.78093
3.44213
3.24404
2.99097
2.8694
2.68061
2.61113
2.46567
2.4243
2.31002
2.27784
2.17178
2.13299
2.01722
1.95208
1.82399
4.50741
6.20604
5.84345
5.04114
4.4339
3.91069
3.6159
3.29051
3.13413
2.91176
2.82966
2.66041
2.61033
2.46469
2.41973
2.26965
2.20544
2.02496
1.91324
1.69445
9.28973
7.40968
5.12577
3.92673
3.35012
2.93788
2.70347
2.45507
2.33712
2.17199
2.11203
1.98288
1.94254
1.81418
1.76943
1.6227
1.54879
1.35719
1.22421
0.988279
1.43306
1.0913
0.760035
0.583858
0.571582
0.534185
0.503579
0.522252
0.527592
0.520167
0.491115
0.427804
0.31538
0.20914
0.124644
0.0728303
0.0561317
0.0489921
0.0639868
0.225004
0.313245
0.354023
0.273186
0.152853
0.0822658
0.0525082
0.0465223
0.0474368
0.0492651
0.0556463
0.070647
0.0784198
0.0833058
0.0835441
0.0824687
0.0782238
0.073018
0.0685256
0.0630319
0.0603294
0.0606601
0.0667323
0.0968454
0.105837
0.103066
0.0814367
0.0431643
0.0207187
0.00886453
0.0040631
0.00255901
0.00194167
0.00187533
0.00236266
0.00549065
0.0193369
0.075469
0.139976
0.161026
0.157951
0.143151
0.106774
0.0815478
0.0699043
0.0622526
0.0603252
0.0615683
0.0665291
0.0882351
0.102992
0.105518
0.102146
0.0874201
0.0670035
0.046286
0.0298423
0.0193754
0.0135093
0.0103005
0.00845857
0.00731606
0.00653578
0.00590296
0.00539566
0.00498899
0.00468677
0.00438691
0.00409964
0.00377028
0.00345401
0.00312293
0.00287966
0.00268417
0.00256761
0.00249684
0.00246968
0.00246862
0.00246303
0.00246432
0.00242211
0.00240331
0.00232955
0.00231061
0.00226533
0.00220132
0.00202412
0.00178088
0.00153381
0.00126997
0.00104401
0.000819678
0.000644121
0.00048329
0.000362231
0.000262513
0.000189464
0.000134293
9.47755e-05
6.62427e-05
4.67537e-05
3.27378e-05
2.36594e-05
1.71445e-05
1.28385e-05
9.86274e-06
7.87438e-06
6.44185e-06
5.55468e-06
4.90591e-06
4.4439e-06
4.21862e-06
4.05681e-06
3.99378e-06
3.9823e-06
4.00549e-06
4.06853e-06
4.27868e-06
4.4458e-06
4.85205e-06
5.10563e-06
5.70612e-06
6.06393e-06
6.92592e-06
7.43717e-06
8.6553e-06
9.32557e-06
1.09976e-05
1.19791e-05
1.44209e-05
1.57767e-05
1.91034e-05
2.0949e-05
2.59275e-05
2.8497e-05
3.50749e-05
3.88326e-05
4.81252e-05
5.23285e-05
6.40865e-05
6.88162e-05
8.38991e-05
8.99662e-05
0.000111003
0.000115059
0.000134536
0.000137142
0.000149194
0.000141819
0.000137417
0.000118009
0.00010511
7.68293e-05
6.33335e-05
5.2651e-05
5.40768e-05
5.97499e-05
6.8547e-05
9.97736e-05
0.000106216
0.000137589
0.000122783
0.000115261
9.08808e-05
8.39375e-05
8.56995e-05
9.15346e-05
0.000118417
9.58218e-05
9.81219e-05
0.000105875
0.000108221
0.000157273
0.000144708
0.000186467
0.000294347
0.000536075
0.00131819
0.00387484
0.0301071
0.451829
1.98333
1.46517
1.21199
0.980724
0.863907
0.790915
0.708803
0.659981
0.600198
0.543552
0.484693
0.369034
0.251843
0.149066
0.0862231
0.0446729
0.035667
0.0319936
0.0382498
0.14208
0.26721
0.350404
0.309199
0.163764
0.0855846
0.059511
0.0525438
0.0542185
0.0537731
0.0570922
0.066415
0.0774101
0.0855168
0.0859611
0.0853372
0.0822847
0.0775697
0.0712462
0.0644061
0.0621555
0.0635043
0.0806626
0.106811
0.108096
0.100111
0.0640098
0.0306463
0.0147621
0.00633384
0.0030115
0.00218573
0.00188386
0.00194415
0.00298827
0.00862604
0.0334444
0.110787
0.159688
0.168398
0.159029
0.124073
0.0903641
0.0707236
0.0614473
0.05586
0.0542539
0.0549855
0.0582352
0.0744868
0.0956429
0.10241
0.101461
0.0921674
0.0715557
0.0500328
0.0323993
0.0209373
0.0144164
0.0107902
0.00871811
0.00745939
0.00661611
0.00593647
0.00539772
0.00494368
0.00460514
0.00427008
0.00396181
0.00359313
0.00330006
0.00300861
0.00284812
0.00267355
0.00259199
0.00250707
0.00247586
0.00246792
0.00245382
0.00245363
0.00241226
0.00239945
0.00234341
0.00233066
0.00229104
0.00222411
0.00203065
0.00178448
0.00152251
0.00127268
0.00103275
0.000823399
0.00063774
0.000485068
0.00036022
0.000262603
0.000188819
0.000134344
9.45739e-05
6.60147e-05
4.61812e-05
3.21179e-05
2.26788e-05
1.61477e-05
1.16547e-05
8.67533e-06
6.54814e-06
5.11651e-06
4.14262e-06
3.43286e-06
2.90474e-06
2.63244e-06
2.35775e-06
2.24958e-06
2.11241e-06
2.06525e-06
2.01232e-06
2.0222e-06
2.02238e-06
2.0579e-06
2.08128e-06
2.15594e-06
2.20589e-06
2.33792e-06
2.42099e-06
2.61242e-06
2.7393e-06
3.01557e-06
3.20891e-06
3.52746e-06
4.05161e-06
4.38616e-06
5.048e-06
6.0506e-06
6.78748e-06
8.20223e-06
1.07312e-05
1.26095e-05
1.72289e-05
2.18067e-05
3.09538e-05
3.79375e-05
5.38087e-05
6.26355e-05
8.83463e-05
0.000101253
0.000134164
0.000144524
0.000181855
0.00018951
0.000224098
0.000222686
0.000226342
0.000202816
0.000181005
0.00013072
9.82752e-05
8.60696e-05
9.14283e-05
0.000108059
0.000120205
0.000173075
0.000162608
0.00017924
0.000142998
0.000113657
0.000111043
0.000115052
0.000156482
0.000128167
0.000125761
0.000127997
0.000142809
0.000204934
0.000227815
0.00030347
0.000569617
0.00137136
0.00323839
0.0330773
0.326625
1.83507
1.46244
1.24738
1.06517
0.910705
0.823587
0.73242
0.657959
0.593186
0.493569
0.399882
0.283808
0.173104
0.0916825
0.0532747
0.0266118
0.0229804
0.0216945
0.024733
0.0747288
0.206366
0.310983
0.309021
0.175383
0.0889855
0.0735045
0.0723284
0.0804356
0.0721325
0.0650214
0.0679455
0.073689
0.0851532
0.0859698
0.0857525
0.0830469
0.0789159
0.0710895
0.064202
0.063184
0.0683929
0.0990428
0.112846
0.110077
0.0895601
0.0458421
0.0215992
0.00933372
0.00396674
0.00234712
0.00200928
0.00187552
0.00213664
0.004153
0.0139768
0.0599807
0.141404
0.174133
0.172823
0.148488
0.10291
0.077156
0.0628764
0.0564869
0.0521819
0.0504989
0.0508491
0.0531819
0.0637742
0.0877424
0.0986585
0.100061
0.0949529
0.0756946
0.0532455
0.0347648
0.0224758
0.0153173
0.0113016
0.00902653
0.00765099
0.00673686
0.00598987
0.00540041
0.00490181
0.00456365
0.00421539
0.00392579
0.00354587
0.00328628
0.00299106
0.0028679
0.00268313
0.00262797
0.00249353
0.00246257
0.00238645
0.0023814
0.00236259
0.00236437
0.00236281
0.00235514
0.0023458
0.00232749
0.0022722
0.0020927
0.00180854
0.00156281
0.00129725
0.00106951
0.000855944
0.000664665
0.00051521
0.000384774
0.000285611
0.000208837
0.000151145
0.000107076
7.89404e-05
5.50706e-05
4.16314e-05
3.02355e-05
2.29713e-05
1.76963e-05
1.41932e-05
1.13062e-05
1.00958e-05
8.51399e-06
7.77621e-06
7.20408e-06
6.77292e-06
6.57339e-06
6.5836e-06
6.58396e-06
6.65173e-06
6.7631e-06
6.778e-06
6.9655e-06
7.13322e-06
7.2695e-06
7.43528e-06
7.84386e-06
7.93197e-06
8.11438e-06
8.36871e-06
8.73551e-06
8.76423e-06
9.05691e-06
9.11406e-06
9.29659e-06
9.33519e-06
9.59505e-06
9.5599e-06
9.71503e-06
9.78339e-06
1.03369e-05
1.05225e-05
1.10766e-05
1.17141e-05
1.24409e-05
1.46839e-05
1.65999e-05
1.98831e-05
2.74561e-05
3.31701e-05
4.51814e-05
7.34411e-05
9.41354e-05
0.000147315
0.000173117
0.000238013
0.000251046
0.000312757
0.000312579
0.000326592
0.000283201
0.000242731
0.000167651
0.000134391
0.000138272
0.000153058
0.000208517
0.000207348
0.000230046
0.000185482
0.000149274
0.000142071
0.000150251
0.000231227
0.000171896
0.000162359
0.000173347
0.000194217
0.000261281
0.000329483
0.000504278
0.0019199
0.00308903
0.0313524
0.214178
1.52118
1.28757
1.09616
0.968945
0.843608
0.736618
0.660276
0.559912
0.484671
0.37776
0.284106
0.180235
0.0967106
0.0477635
0.0264919
0.0155791
0.0135757
0.0140118
0.016082
0.0345577
0.15295
0.256794
0.293558
0.176834
0.100752
0.0920334
0.094564
0.10233
0.0912333
0.0805434
0.0720218
0.0732429
0.0822872
0.0826489
0.0825824
0.0799193
0.0752939
0.0668564
0.0634082
0.0646542
0.0850182
0.112741
0.115296
0.106634
0.0685799
0.0305991
0.01327
0.00615813
0.00288579
0.00205324
0.00192518
0.00192236
0.00252695
0.00628338
0.0232896
0.0952652
0.16791
0.184017
0.174962
0.129635
0.0887852
0.0677529
0.0566787
0.0518497
0.0490841
0.0477637
0.0479474
0.0496844
0.0563509
0.079847
0.0945865
0.0979827
0.0956376
0.0797672
0.0563754
0.0371355
0.0240777
0.0162832
0.011835
0.0093114
0.00780529
0.00681202
0.00600992
0.00538602
0.00486403
0.00453867
0.00419536
0.0039322
0.00355108
0.00332187
0.00302624
0.00292315
0.00271611
0.00263402
0.00243818
0.00238368
0.00232332
0.0023228
0.00235506
0.00237404
0.0024472
0.00245592
0.00249819
0.00249552
0.00245506
0.00224293
0.00192363
0.00161807
0.00136596
0.001102
0.000901082
0.000700345
0.000550102
0.000414791
0.000314988
0.00023244
0.000177824
0.000128046
0.000102735
7.29639e-05
6.06377e-05
4.4844e-05
3.90589e-05
3.0907e-05
2.90273e-05
2.49559e-05
2.42349e-05
2.23857e-05
2.21739e-05
2.1287e-05
2.15069e-05
2.11951e-05
2.16785e-05
2.13543e-05
2.17337e-05
2.1779e-05
2.22899e-05
2.26964e-05
2.38362e-05
2.41797e-05
2.51108e-05
2.63588e-05
2.73574e-05
2.85303e-05
3.03536e-05
3.12462e-05
3.19062e-05
3.42215e-05
3.61354e-05
3.67905e-05
3.85471e-05
4.03326e-05
4.08614e-05
4.25915e-05
4.29184e-05
4.34405e-05
4.34563e-05
4.14821e-05
4.05679e-05
3.8586e-05
3.47793e-05
3.4188e-05
3.28915e-05
3.12285e-05
3.14533e-05
3.24942e-05
3.51404e-05
4.05154e-05
5.15056e-05
6.57102e-05
9.70728e-05
0.000171823
0.000216136
0.00031259
0.000336046
0.000429809
0.000423558
0.000417149
0.000354617
0.000251519
0.000201158
0.000207914
0.000262578
0.000259632
0.000314762
0.000250074
0.000195522
0.00017238
0.000198055
0.000281515
0.00021469
0.000213007
0.000279378
0.000289341
0.000593319
0.000575603
0.00239065
0.00323993
0.0285292
0.143428
1.18802
1.02978
0.891706
0.779195
0.694352
0.591765
0.521154
0.428576
0.355166
0.261549
0.174409
0.0920686
0.0437151
0.0232673
0.0136687
0.00916683
0.00774025
0.00895146
0.0106225
0.0184949
0.0964624
0.219221
0.256822
0.168184
0.1138
0.107371
0.110696
0.112359
0.101588
0.0887878
0.0739635
0.0733209
0.0732223
0.0718698
0.072947
0.0714705
0.0669694
0.0635447
0.0636482
0.0720443
0.109743
0.12103
0.117261
0.0918812
0.0463343
0.0202828
0.00908819
0.00404692
0.00215848
0.00187675
0.00189396
0.00202832
0.00331847
0.00999732
0.0395263
0.135238
0.188266
0.192117
0.167821
0.106113
0.0762664
0.0619133
0.0539107
0.0497747
0.0471731
0.0459068
0.0459584
0.0472096
0.0518302
0.0725027
0.0901773
0.0958613
0.095057
0.0832279
0.0592849
0.0392925
0.0254537
0.0170364
0.0122433
0.00957479
0.00797678
0.00690339
0.00601757
0.00537364
0.00483771
0.00452848
0.00416814
0.00395201
0.00360757
0.00346118
0.00318489
0.003064
0.00276166
0.00259832
0.00238281
0.00232821
0.00231221
0.0023288
0.00248024
0.00254074
0.00272588
0.00272927
0.0027817
0.00275367
0.00271713
0.00247696
0.00226504
0.00177649
0.00159002
0.00119479
0.00104235
0.000783286
0.000622367
0.000495459
0.000365957
0.000278039
0.000232877
0.000158517
0.000141639
0.000107728
9.64009e-05
8.29216e-05
6.9941e-05
6.57746e-05
6.50061e-05
5.96602e-05
6.09881e-05
6.00218e-05
5.93844e-05
6.10286e-05
6.07434e-05
6.08337e-05
6.26958e-05
6.36409e-05
6.32409e-05
6.70291e-05
6.56692e-05
6.86473e-05
6.76732e-05
7.1034e-05
6.8986e-05
7.44326e-05
7.15222e-05
7.54226e-05
7.35707e-05
7.90608e-05
7.58772e-05
8.19151e-05
7.90063e-05
8.38588e-05
8.20688e-05
8.90685e-05
8.6526e-05
9.29203e-05
9.19418e-05
9.9141e-05
9.79578e-05
0.000102865
0.000105145
0.000114276
0.000110917
0.000116325
0.000111563
0.000108187
0.000103141
9.80908e-05
8.40352e-05
7.64298e-05
6.79935e-05
6.77947e-05
7.09735e-05
8.00584e-05
9.93436e-05
0.000142336
0.000243288
0.000313071
0.00046073
0.000494994
0.000587722
0.000537037
0.000451624
0.000311495
0.000289391
0.000319532
0.000328141
0.000486187
0.000360776
0.000287241
0.000239068
0.000259887
0.000348489
0.0002849
0.000331539
0.000352455
0.000708643
0.000694114
0.00552849
0.00415098
0.0213778
0.093883
0.86703
0.764578
0.658097
0.578272
0.502526
0.419048
0.35588
0.27485
0.211262
0.127023
0.0691004
0.0337489
0.0186089
0.0114641
0.00670318
0.00605036
0.00458736
0.00638155
0.0076724
0.011849
0.0468376
0.192891
0.231656
0.166405
0.123707
0.116191
0.116338
0.113738
0.106676
0.0950247
0.076873
0.0732402
0.0664773
0.0657415
0.0665491
0.0647856
0.0626198
0.0631253
0.0682458
0.101894
0.124638
0.124136
0.112285
0.0651162
0.0294492
0.0115454
0.00533258
0.00271421
0.00181376
0.00180043
0.00188175
0.00231649
0.00478938
0.0162329
0.070019
0.17036
0.203121
0.195966
0.146474
0.0937803
0.0687625
0.0573189
0.0510978
0.0480109
0.045877
0.0446482
0.0446168
0.0455015
0.0489625
0.0663841
0.0861436
0.0938417
0.0942056
0.0857737
0.0619705
0.0412173
0.0266227
0.0177611
0.0127573
0.00995147
0.00819906
0.0069985
0.00601977
0.00535491
0.00478445
0.00450051
0.00411568
0.00393551
0.00361485
0.00350841
0.00327742
0.0031518
0.0028027
0.00259883
0.002382
0.00231557
0.00231355
0.00233545
0.00255352
0.00262599
0.00288235
0.00284286
0.00302166
0.0029055
0.00299817
0.0027952
0.00272945
0.00228025
0.00212038
0.0016391
0.00149192
0.001135
0.00100119
0.000765211
0.000649378
0.000492282
0.000452939
0.000340748
0.000329369
0.000277634
0.000272612
0.000247275
0.000241753
0.000221359
0.000231104
0.00021515
0.00023226
0.000223899
0.000236777
0.000235007
0.000247893
0.000244115
0.000263542
0.000260073
0.000277987
0.000278797
0.000292809
0.000290261
0.000308953
0.000302772
0.000318145
0.000313495
0.000325155
0.000313204
0.000328037
0.000314493
0.000318866
0.000302728
0.00031155
0.000285018
0.000287824
0.000263975
0.000265426
0.000235764
0.000239621
0.000218445
0.000225339
0.000202182
0.00021909
0.000199377
0.000207937
0.000198034
0.000219274
0.000205003
0.000222997
0.000214853
0.00022629
0.000215583
0.00021048
0.000184315
0.000169121
0.000141862
0.000124196
0.000128188
0.000140164
0.000173492
0.000242085
0.000434585
0.00051644
0.000778175
0.00076972
0.000729092
0.000529033
0.000418099
0.000382294
0.000437312
0.000601497
0.000481374
0.000363443
0.000325255
0.000368409
0.000493559
0.000495904
0.00044227
0.00199782
0.00130487
0.00828589
0.00546854
0.0186319
0.0651429
0.55587
0.500979
0.412294
0.363823
0.299913
0.238348
0.186781
0.124209
0.080456
0.04407
0.0244253
0.0121969
0.00826871
0.00566569
0.003449
0.00356098
0.00304244
0.00382946
0.00571681
0.00838644
0.0192894
0.156972
0.224166
0.174983
0.133874
0.125015
0.123993
0.116658
0.112595
0.106045
0.0846929
0.0751849
0.0667608
0.065333
0.0651194
0.0635878
0.0639758
0.0690241
0.0971756
0.126695
0.130083
0.123771
0.0885806
0.0416587
0.0170946
0.00710972
0.00374694
0.00211217
0.00166483
0.00175645
0.00197448
0.00288765
0.00737908
0.0268341
0.111032
0.199544
0.215414
0.194909
0.12286
0.0812833
0.0633944
0.0550983
0.0496046
0.0464465
0.0445357
0.0436281
0.0436066
0.0442674
0.0470572
0.0618038
0.0824668
0.0919389
0.0933302
0.0871836
0.0640314
0.0425549
0.0276263
0.0185631
0.0133492
0.0103359
0.00838165
0.00704502
0.00598818
0.00531665
0.00471633
0.00441381
0.00398693
0.00385287
0.00356934
0.00348161
0.00326067
0.00314113
0.00279343
0.00257968
0.0023801
0.00230144
0.0022992
0.00231197
0.00247966
0.00254952
0.00282331
0.00280815
0.00303335
0.00293663
0.00297185
0.00289809
0.00279062
0.00250335
0.00228466
0.0017459
0.00159121
0.00122987
0.00112482
0.000876103
0.000778629
0.000598534
0.00054981
0.000435232
0.000421063
0.000358469
0.000358615
0.000325414
0.000320104
0.000299188
0.000302436
0.000287781
0.000303762
0.000293236
0.000310173
0.000303694
0.000317842
0.00031349
0.00033312
0.000329305
0.000350771
0.000348294
0.000365906
0.000363873
0.000385579
0.000382636
0.000403839
0.000401682
0.000421354
0.000416319
0.000442421
0.000438148
0.000455963
0.00045503
0.000482632
0.000477751
0.000499628
0.000505319
0.000518783
0.000513766
0.000524937
0.000527589
0.000509393
0.000494179
0.00048266
0.000486801
0.000430924
0.000429077
0.000387192
0.000385629
0.000344822
0.000359914
0.000333466
0.000352011
0.000333431
0.00034846
0.000331692
0.000324371
0.000296928
0.000246229
0.000209787
0.000192946
0.000199603
0.000231613
0.000309122
0.000447989
0.000853047
0.000866132
0.00109078
0.000875958
0.000611398
0.000536367
0.000597995
0.000865737
0.00069042
0.000448503
0.000478836
0.000574006
0.00143005
0.00093538
0.00341602
0.00207882
0.0161084
0.00836624
0.0137006
0.0457231
0.264472
0.236549
0.184729
0.15554
0.11693
0.0869859
0.0619214
0.0393321
0.0247678
0.0134174
0.00780803
0.00441122
0.00381436
0.00276485
0.00189892
0.00219166
0.00220848
0.00239885
0.00480351
0.00680765
0.0114071
0.10828
0.243436
0.21793
0.156487
0.137952
0.142631
0.150168
0.144997
0.133295
0.10127
0.0832423
0.0720975
0.0688732
0.0689758
0.0714492
0.0794846
0.102404
0.128537
0.136774
0.132494
0.111655
0.0542544
0.0235026
0.00972081
0.00426083
0.0025254
0.00166628
0.00154695
0.0017334
0.00219978
0.00398892
0.0118995
0.0450648
0.157487
0.222971
0.223361
0.175821
0.108105
0.0739027
0.0595198
0.0528203
0.0485202
0.0455167
0.043848
0.0430411
0.042967
0.0434387
0.0457771
0.0584597
0.0795685
0.0901375
0.0923891
0.0876711
0.0657493
0.043863
0.028704
0.0193332
0.0138418
0.0106307
0.00849648
0.00704154
0.00592818
0.00527831
0.0046668
0.00433917
0.00385239
0.00369887
0.00339348
0.00332557
0.00307184
0.00296936
0.00263324
0.00247408
0.00232407
0.00225673
0.00223298
0.00224405
0.00228007
0.00234692
0.00254191
0.00262032
0.00276021
0.00282523
0.00294256
0.00297414
0.00311614
0.00285667
0.00287318
0.0023426
0.00230936
0.00191284
0.00178426
0.00147152
0.00135012
0.00110308
0.00103304
0.00085801
0.000840323
0.000720508
0.000746421
0.00067121
0.000678207
0.000638924
0.000654722
0.000617159
0.000664357
0.000618216
0.000665196
0.0006326
0.000667435
0.000641756
0.000690721
0.000654699
0.000709667
0.000676668
0.000716082
0.000687167
0.000731198
0.000695941
0.00074117
0.000709933
0.000739208
0.000708125
0.000750678
0.000722154
0.000749674
0.000735058
0.000756787
0.000736669
0.000770394
0.000764385
0.000769665
0.000764205
0.000787192
0.000785483
0.000785156
0.000775071
0.000790994
0.000784929
0.000759366
0.000750455
0.000758122
0.000706057
0.000703809
0.000652934
0.000661944
0.000599075
0.000630283
0.000562749
0.000626001
0.000551627
0.000604336
0.000534213
0.000530013
0.000465817
0.00036709
0.000295215
0.000302363
0.000326514
0.00050447
0.00067047
0.000954381
0.00151131
0.00135962
0.000951702
0.000767357
0.000820434
0.00162199
0.00108881
0.00171865
0.00112114
0.00248365
0.00150886
0.00980398
0.00508347
0.0351129
0.0183295
0.0164706
0.0320865
0.0828426
0.0738655
0.0576047
0.0481078
0.0348768
0.0255622
0.0169885
0.0105171
0.00624195
0.00357968
0.00247228
0.00189885
0.00190007
0.00141528
0.00114072
0.00141605
0.00174678
0.00196579
0.00385346
0.0059799
0.00817023
0.053334
0.234103
0.26259
0.226894
0.174212
0.171082
0.183023
0.192768
0.189993
0.158659
0.117871
0.100337
0.0943019
0.0967578
0.104436
0.114242
0.135117
0.143063
0.140554
0.12544
0.0715818
0.0306434
0.0127872
0.00536514
0.00271652
0.00188149
0.00145938
0.00149558
0.00183226
0.00272475
0.00602458
0.0196122
0.0775414
0.201357
0.241208
0.227455
0.154567
0.0944689
0.0683696
0.0574767
0.0516034
0.0475822
0.0449882
0.0435567
0.0428806
0.0427221
0.0430024
0.044945
0.0562576
0.077103
0.0884951
0.0913073
0.087581
0.0670004
0.044918
0.0295395
0.0198647
0.0142077
0.0108553
0.00854324
0.00699659
0.00588006
0.00524898
0.00464559
0.00429858
0.00380674
0.00361335
0.0032012
0.00307355
0.00272029
0.00260476
0.00238995
0.00228897
0.00220657
0.00216627
0.00215014
0.00217061
0.0022481
0.00232328
0.00255859
0.00264
0.00318248
0.00318383
0.00392287
0.0036617
0.00388858
0.00347989
0.00323277
0.00265021
0.00241829
0.00197872
0.00180992
0.00148662
0.00139293
0.00118943
0.00114044
0.00100268
0.000997392
0.000931301
0.000935938
0.0008827
0.000885726
0.000855271
0.000885518
0.000870892
0.000918563
0.000901179
0.000946368
0.00092945
0.000974519
0.000970213
0.00103714
0.00102436
0.00109304
0.00107633
0.00113775
0.00113007
0.00120766
0.00118678
0.00126494
0.00124652
0.00132282
0.00129673
0.00139685
0.0013555
0.00144316
0.00140408
0.00149248
0.00142575
0.00153859
0.00147238
0.00155216
0.00147698
0.0015832
0.00149683
0.00157647
0.00147324
0.0016034
0.00147711
0.00151609
0.00143219
0.00149951
0.00135356
0.00139308
0.00127944
0.00128241
0.00119942
0.00114289
0.00105863
0.00100936
0.00100122
0.000897104
0.000912983
0.000852265
0.000891764
0.000782597
0.000745889
0.000645635
0.000521373
0.000532853
0.000562486
0.000817256
0.0010857
0.0023978
0.00219575
0.00196213
0.00128574
0.0021405
0.001677
0.00276745
0.0018152
0.0124721
0.00617299
0.0500689
0.0172924
0.0301922
0.026746
0.0223619
0.0296552
0.0183863
0.0166516
0.0137566
0.0112679
0.00799255
0.00562561
0.00345195
0.00218873
0.00134588
0.00112473
0.00114394
0.00114194
0.00112196
0.000767483
0.000725148
0.00109393
0.00143423
0.00175083
0.0026804
0.00473333
0.00607808
0.0217656
0.184648
0.267299
0.2614
0.233248
0.201491
0.202296
0.208986
0.211059
0.20401
0.179405
0.157374
0.13861
0.137602
0.139408
0.148272
0.15098
0.148364
0.135039
0.0860035
0.0382362
0.0156948
0.00693306
0.00321526
0.00189665
0.00150115
0.00135648
0.00147771
0.0020981
0.00382562
0.00979531
0.0323324
0.126052
0.236681
0.255629
0.220519
0.131705
0.085545
0.063908
0.055221
0.0506152
0.0470743
0.0448263
0.0435092
0.042961
0.0426887
0.0428082
0.0444492
0.0549144
0.07538
0.0870881
0.0903353
0.0872799
0.067982
0.0456895
0.0299387
0.0201781
0.0145231
0.0110126
0.00854343
0.00695122
0.00585867
0.00524045
0.00464852
0.00429289
0.00382378
0.00354671
0.00312564
0.00288316
0.00259841
0.00242796
0.00231443
0.00216133
0.00213368
0.00210086
0.00211038
0.00215404
0.00246681
0.00254111
0.00325244
0.00325808
0.00408017
0.00397683
0.00421896
0.00403923
0.00350072
0.00330087
0.00270149
0.00249485
0.00241077
0.00207384
0.00190228
0.00165514
0.00149823
0.00134473
0.00125892
0.00109557
0.001068
0.00101256
0.00100032
0.000967501
0.000962874
0.000944806
0.000956048
0.000959881
0.00100179
0.00100247
0.00105406
0.00105968
0.00107009
0.00108808
0.00115351
0.00116836
0.00124558
0.00124961
0.0012755
0.00130152
0.00139852
0.001405
0.00147814
0.00148919
0.00156271