/*--------------------------------*- C++ -*----------------------------------*\
| =========                 |                                                 |
| \\      /  F ield         | OpenFOAM: The Open Source CFD Toolbox           |
|  \\    /   O peration     | Version:  2.4.0                                 |
|   \\  /    A nd           | Web:      www.OpenFOAM.org                      |
|    \\/     M anipulation  |                                                 |
\*---------------------------------------------------------------------------*/
FoamFile
{
    version     2.0;
    format      ascii;
    class       volVectorField;
    location    "0.058";
    object      U_0;
}
// * * * * * * * * * * * * * * * * * * * * * * * * * * * * * * * * * * * * * //

dimensions      [0 1 -1 0 0 0 0];

internalField   nonuniform List<vector> 
17600
(
(5.32802 0.309429 0)
(2.9857 0.0606438 0)
(2.19561 -0.00155364 0)
(1.84807 -0.00359412 0)
(1.70751 -0.00131523 0)
(1.60971 -0.0001075 0)
(1.541 4.26003e-05 0)
(1.47711 -0.000137476 0)
(1.43824 -2.13072e-05 0)
(1.40056 -0.000238045 0)
(1.38127 -0.00012353 0)
(1.35016 0.000158343 0)
(1.34761 -0.000581967 0)
(1.31499 0.000406803 0)
(1.33003 -0.000832137 0)
(1.30251 -0.000122559 0)
(1.34051 -0.000740838 0)
(1.35162 -0.00258837 0)
(1.43443 0.00226369 0)
(1.26609 -0.0697936 0)
(8.59906 0.871905 0)
(6.95006 0.383514 0)
(5.80998 0.121969 0)
(5.0563 0.050577 0)
(4.65572 0.0283316 0)
(4.37327 0.0206665 0)
(4.18715 0.0162502 0)
(4.01085 0.0123132 0)
(3.90151 0.0096372 0)
(3.79258 0.00678454 0)
(3.73368 0.00606003 0)
(3.64339 0.00508024 0)
(3.634 0.00293942 0)
(3.53299 0.00418614 0)
(3.57542 7.49187e-05 0)
(3.47014 0.000132797 0)
(3.56926 -0.00424205 0)
(3.53281 -0.0153445 0)
(3.69634 0.00321714 0)
(3.65931 -0.129854 0)
(9.85736 1.02201 0)
(9.34524 0.577398 0)
(8.47418 0.241895 0)
(7.64027 0.129322 0)
(7.09925 0.0820294 0)
(6.68663 0.0579034 0)
(6.41845 0.044477 0)
(6.15673 0.034446 0)
(5.99309 0.0270278 0)
(5.82508 0.0198992 0)
(5.73488 0.017834 0)
(5.59051 0.0137422 0)
(5.58023 0.010667 0)
(5.41303 0.0106692 0)
(5.4848 0.00392794 0)
(5.30081 0.00250323 0)
(5.44733 -0.00718435 0)
(5.3591 -0.0244462 0)
(5.52124 -0.0156343 0)
(5.64719 -0.155883 0)
(10.1609 0.94757 0)
(10.5681 0.668615 0)
(10.2606 0.331596 0)
(9.63879 0.208718 0)
(9.13308 0.148071 0)
(8.67594 0.107475 0)
(8.37829 0.0824633 0)
(8.06367 0.0647467 0)
(7.86849 0.0510186 0)
(7.65593 0.0382279 0)
(7.54808 0.034745 0)
(7.35466 0.0256506 0)
(7.35218 0.0223585 0)
(7.12336 0.0195306 0)
(7.22436 0.0107279 0)
(6.97171 0.0071707 0)
(7.14799 -0.0100162 0)
(7.02613 -0.028733 0)
(7.14177 -0.0367521 0)
(7.3448 -0.190708 0)
(10.076 0.805344 0)
(10.9184 0.669717 0)
(11.1372 0.35894 0)
(10.8851 0.254135 0)
(10.6016 0.203772 0)
(10.2232 0.157454 0)
(9.97755 0.123595 0)
(9.66324 0.0989696 0)
(9.47665 0.0790541 0)
(9.24163 0.0596939 0)
(9.14153 0.0552663 0)
(8.91042 0.0398396 0)
(8.9267 0.0367942 0)
(8.65138 0.0303857 0)
(8.77855 0.0194381 0)
(8.4782 0.0145921 0)
(8.66814 -0.0128932 0)
(8.53024 -0.0278717 0)
(8.60341 -0.0558831 0)
(8.78671 -0.213587 0)
(9.99178 0.690767 0)
(10.8498 0.635853 0)
(11.323 0.337184 0)
(11.3517 0.248956 0)
(11.3608 0.224788 0)
(11.1689 0.189343 0)
(11.0739 0.155623 0)
(10.8381 0.12927 0)
(10.7202 0.106105 0)
(10.5023 0.0810162 0)
(10.4431 0.0768834 0)
(10.2014 0.0547721 0)
(10.2475 0.0522164 0)
(9.9542 0.0423534 0)
(10.1042 0.0287911 0)
(9.78491 0.0242173 0)
(9.97758 -0.0163629 0)
(9.84271 -0.0227144 0)
(9.87803 -0.0761283 0)
(10.0098 -0.215752 0)
(9.98185 0.601388 0)
(10.7093 0.601299 0)
(11.2581 0.309202 0)
(11.3551 0.217642 0)
(11.5346 0.210839 0)
(11.4939 0.192009 0)
(11.5721 0.165563 0)
(11.4673 0.143418 0)
(11.4765 0.122371 0)
(11.3306 0.0949545 0)
(11.3541 0.0939992 0)
(11.1478 0.0671141 0)
(11.2395 0.0657161 0)
(10.9704 0.0536933 0)
(11.1418 0.0369442 0)
(10.844 0.0351171 0)
(11.0244 -0.0212834 0)
(10.9322 -0.0163764 0)
(10.9051 -0.0871712 0)
(11.0267 -0.252661 0)
(10.0107 0.522915 0)
(10.5814 0.563025 0)
(11.1674 0.291232 0)
(11.26 0.190454 0)
(11.4841 0.188125 0)
(11.4836 0.179861 0)
(11.6436 0.159038 0)
(11.6193 0.139918 0)
(11.7362 0.122884 0)
(11.6726 0.0952956 0)
(11.791 0.0998484 0)
(11.6651 0.0708067 0)
(11.8094 0.0717405 0)
(11.6236 0.0599145 0)
(11.8108 0.0406846 0)
(11.5894 0.0436308 0)
(11.7514 -0.0273472 0)
(11.7358 -0.013622 0)
(11.6154 -0.0929346 0)
(11.8995 -0.310719 0)
(10.0473 0.453975 0)
(10.4885 0.517383 0)
(11.0725 0.276495 0)
(11.1853 0.167756 0)
(11.4046 0.164975 0)
(11.4156 0.164235 0)
(11.5797 0.148473 0)
(11.5812 0.130689 0)
(11.7227 0.114692 0)
(11.7122 0.0868241 0)
(11.8537 0.0942761 0)
(11.8167 0.066546 0)
(11.9578 0.067383 0)
(11.8928 0.0585966 0)
(12.067 0.0354345 0)
(11.9531 0.0468938 0)
(12.1178 -0.040815 0)
(12.1683 -0.0110897 0)
(11.997 -0.106124 0)
(12.4333 -0.386496 0)
(10.0579 0.390943 0)
(10.445 0.471114 0)
(10.9688 0.261892 0)
(11.1378 0.146539 0)
(11.3283 0.143668 0)
(11.3677 0.149141 0)
(11.4963 0.136409 0)
(11.5305 0.1196 0)
(11.6397 0.104515 0)
(11.6825 0.0779737 0)
(11.7812 0.085248 0)
(11.8209 0.0590997 0)
(11.8999 0.0592229 0)
(11.9351 0.0506563 0)
(12.0497 0.0279592 0)
(12.0077 0.0388476 0)
(12.2169 -0.0540602 0)
(12.1931 -0.0170655 0)
(12.1581 -0.133213 0)
(12.6259 -0.434453 0)
(10.0366 0.332245 0)
(10.4249 0.425793 0)
(10.8789 0.250272 0)
(11.1019 0.126168 0)
(11.2602 0.122226 0)
(11.331 0.13409 0)
(11.43 0.126275 0)
(11.4883 0.110061 0)
(11.5629 0.0936985 0)
(11.6395 0.0680434 0)
(11.7056 0.0747982 0)
(11.7906 0.0535239 0)
(11.8279 0.0506895 0)
(11.9196 0.0433124 0)
(11.9623 0.0219105 0)
(11.9805 0.0254755 0)
(12.1881 -0.0653912 0)
(12.0216 -0.0236743 0)
(12.3018 -0.185808 0)
(12.4947 -0.431879 0)
(10.0123 0.280283 0)
(10.3979 0.379394 0)
(10.8102 0.237299 0)
(11.0608 0.107347 0)
(11.2101 0.104218 0)
(11.2933 0.118912 0)
(11.3811 0.113765 0)
(11.4463 0.0989339 0)
(11.511 0.0847571 0)
(11.5875 0.0601787 0)
(11.6514 0.0642755 0)
(11.7431 0.0465769 0)
(11.7776 0.0418619 0)
(11.8899 0.0370023 0)
(11.8774 0.016896 0)
(11.9937 0.00878022 0)
(12.0624 -0.0612688 0)
(11.9494 -0.0509965 0)
(12.4051 -0.227935 0)
(12.1508 -0.391353 0)
(10.0005 0.234556 0)
(10.3634 0.332276 0)
(10.7566 0.2218 0)
(11.0152 0.0909158 0)
(11.1691 0.0855666 0)
(11.2559 0.102592 0)
(11.3435 0.102573 0)
(11.4059 0.0887471 0)
(11.4685 0.0753971 0)
(11.54 0.0494899 0)
(11.615 0.0547019 0)
(11.6896 0.0395655 0)
(11.7427 0.0336632 0)
(11.8362 0.0313812 0)
(11.829 0.00929699 0)
(12.0003 -0.00534796 0)
(11.9005 -0.0560222 0)
(12.0503 -0.0976006 0)
(12.3083 -0.229455 0)
(11.8221 -0.353552 0)
(9.99782 0.194085 0)
(10.3315 0.286423 0)
(10.71 0.197889 0)
(10.9712 0.0783101 0)
(11.1349 0.0712018 0)
(11.2238 0.0875759 0)
(11.3093 0.0890859 0)
(11.3681 0.0771875 0)
(11.432 0.0665854 0)
(11.5022 0.0417558 0)
(11.5833 0.0450213 0)
(11.6407 0.0329522 0)
(11.7189 0.0247187 0)
(11.7659 0.0269177 0)
(11.8352 -0.00419255 0)
(11.9251 -0.00828319 0)
(11.8347 -0.0670046 0)
(12.1559 -0.129111 0)
(12.0462 -0.216318 0)
(11.7058 -0.345637 0)
(9.99849 0.156798 0)
(10.3042 0.242005 0)
(10.6695 0.170368 0)
(10.935 0.0676292 0)
(11.1072 0.0571086 0)
(11.1969 0.0713877 0)
(11.2785 0.0780736 0)
(11.3377 0.0663491 0)
(11.3999 0.0573809 0)
(11.4732 0.0317288 0)
(11.5528 0.0368521 0)
(11.6081 0.0253943 0)
(11.6871 0.0194523 0)
(11.7194 0.0171202 0)
(11.849 -0.0115839 0)
(11.7963 -0.0115701 0)
(11.9125 -0.089584 0)
(12.0979 -0.141521 0)
(11.8243 -0.201971 0)
(11.7965 -0.36875 0)
(9.99966 0.12362 0)
(10.2813 0.197958 0)
(10.6358 0.139588 0)
(10.9063 0.056848 0)
(11.0856 0.0454455 0)
(11.1739 0.057077 0)
(11.2514 0.0641502 0)
(11.3135 0.0534605 0)
(11.3732 0.0484632 0)
(11.4518 0.0237792 0)
(11.5253 0.0283714 0)
(11.5852 0.0183523 0)
(11.6453 0.0133047 0)
(11.7218 0.0052951 0)
(11.7971 -0.0138363 0)
(11.7388 -0.0240971 0)
(12.008 -0.108538 0)
(11.9003 -0.135132 0)
(11.7895 -0.206262 0)
(11.9315 -0.419224 0)
(10.0004 0.0929433 0)
(10.2633 0.153611 0)
(10.6099 0.109504 0)
(10.8834 0.0461155 0)
(11.0684 0.0332359 0)
(11.1547 0.0416916 0)
(11.2312 0.0514621 0)
(11.2942 0.0419791 0)
(11.3512 0.0386144 0)
(11.4351 0.0146896 0)
(11.5056 0.0198264 0)
(11.5592 0.0134012 0)
(11.6226 0.0040592 0)
(11.73 -0.00373493 0)
(11.7005 -0.0141679 0)
(11.8089 -0.0462537 0)
(11.9624 -0.112096 0)
(11.7544 -0.132892 0)
(11.8819 -0.231136 0)
(11.9702 -0.45071 0)
(10.001 0.0647087 0)
(10.25 0.109733 0)
(10.5903 0.0784648 0)
(10.8665 0.0335558 0)
(11.0561 0.0238395 0)
(11.14 0.0279144 0)
(11.2168 0.0376626 0)
(11.2778 0.0285237 0)
(11.3365 0.0289002 0)
(11.424 0.00709755 0)
(11.4886 0.0127162 0)
(11.5332 0.00676871 0)
(11.6333 -0.00661321 0)
(11.686 -0.00633945 0)
(11.6683 -0.023656 0)
(11.8882 -0.0662855 0)
(11.8037 -0.10281 0)
(11.7805 -0.146419 0)
(11.938 -0.254778 0)
(11.9198 -0.461769 0)
(10.0014 0.0378187 0)
(10.241 0.0658169 0)
(10.5776 0.0478861 0)
(10.8557 0.0211085 0)
(11.0467 0.013972 0)
(11.1305 0.0132992 0)
(11.2083 0.0246272 0)
(11.2652 0.0164306 0)
(11.3288 0.0187451 0)
(11.4169 -0.0014695 0)
(11.4695 0.00609178 0)
(11.5296 -0.00151611 0)
(11.638 -0.0135222 0)
(11.6176 -0.0104272 0)
(11.7357 -0.039689 0)
(11.8428 -0.0707366 0)
(11.7154 -0.102932 0)
(11.8787 -0.16688 0)
(11.8991 -0.271273 0)
(11.8426 -0.455698 0)
(10.0017 0.0119204 0)
(10.2367 0.0225194 0)
(10.5709 0.0167166 0)
(10.8507 0.00665505 0)
(11.0414 0.0058329 0)
(11.1271 0.000159578 0)
(11.2027 0.0112361 0)
(11.2578 0.00274135 0)
(11.3285 0.00777619 0)
(11.4101 -0.00732772 0)
(11.4557 -0.00137809 0)
(11.5488 -0.0110065 0)
(11.6017 -0.0163912 0)
(11.611 -0.020613 0)
(11.7929 -0.0530298 0)
(11.7245 -0.0690587 0)
(11.7736 -0.11596 0)
(11.897 -0.180298 0)
(11.8341 -0.280035 0)
(11.7618 -0.43196 0)
(10.0017 -0.0136301 0)
(10.2369 -0.0211126 0)
(10.5706 -0.014268 0)
(10.8513 -0.00711568 0)
(11.0405 -0.0025009 0)
(11.1289 -0.0142695 0)
(11.1999 -0.00170125 0)
(11.2591 -0.0103796 0)
(11.3313 -0.0022165 0)
(11.4019 -0.0139305 0)
(11.463 -0.0113502 0)
(11.5569 -0.0165851 0)
(11.5599 -0.0204081 0)
(11.6727 -0.0360187 0)
(11.7506 -0.0555326 0)
(11.6899 -0.074596 0)
(11.8529 -0.131139 0)
(11.8385 -0.186912 0)
(11.8039 -0.282191 0)
(11.7173 -0.41933 0)
(10.0014 -0.039593 0)
(10.2417 -0.0643795 0)
(10.5762 -0.0453449 0)
(10.8574 -0.0213991 0)
(11.0454 -0.0110783 0)
(11.1339 -0.0272811 0)
(11.2014 -0.0145923 0)
(11.2683 -0.0249611 0)
(11.3331 -0.0118277 0)
(11.4024 -0.0208521 0)
(11.4857 -0.0205921 0)
(11.5351 -0.0198491 0)
(11.5741 -0.0296671 0)
(11.7089 -0.0475208 0)
(11.6781 -0.054221 0)
(11.7588 -0.0916225 0)
(11.8461 -0.136114 0)
(11.8 -0.194397 0)
(11.8032 -0.280482 0)
(11.7109 -0.424062 0)
(10.0007 -0.0664354 0)
(10.251 -0.108169 0)
(10.5881 -0.0761446 0)
(10.8694 -0.0343979 0)
(11.0554 -0.0200966 0)
(11.1414 -0.0413988 0)
(11.2106 -0.0281029 0)
(11.2814 -0.0381023 0)
(11.3352 -0.0209158 0)
(11.4209 -0.0297105 0)
(11.4964 -0.0277968 0)
(11.52 -0.0248078 0)
(11.6293 -0.0404621 0)
(11.6744 -0.0520883 0)
(11.6853 -0.0615365 0)
(11.8136 -0.103954 0)
(11.8006 -0.139343 0)
(11.8079 -0.200556 0)
(11.81 -0.286103 0)
(11.7042 -0.419288 0)
(9.99996 -0.0948254 0)
(10.2643 -0.152102 0)
(10.6066 -0.10669 0)
(10.8874 -0.0470496 0)
(11.0693 -0.0300846 0)
(11.1537 -0.055259 0)
(11.2269 -0.041081 0)
(11.2943 -0.051346 0)
(11.3476 -0.0310649 0)
(11.4476 -0.0384453 0)
(11.4907 -0.0324912 0)
(11.5493 -0.0340515 0)
(11.6532 -0.047414 0)
(11.643 -0.0565934 0)
(11.7519 -0.0735701 0)
(11.802 -0.11 0)
(11.7928 -0.145109 0)
(11.8298 -0.205302 0)
(11.8203 -0.296746 0)
(11.7067 -0.406129 0)
(9.99925 -0.125305 0)
(10.2818 -0.19624 0)
(10.6318 -0.137391 0)
(10.9122 -0.058565 0)
(11.0859 -0.0407971 0)
(11.1731 -0.0698314 0)
(11.2464 -0.0546433 0)
(11.3107 -0.0637335 0)
(11.3747 -0.0415059 0)
(11.463 -0.0458001 0)
(11.5012 -0.0395293 0)
(11.5959 -0.043355 0)
(11.6376 -0.0503706 0)
(11.6779 -0.0671055 0)
(11.7885 -0.0815054 0)
(11.7828 -0.116381 0)
(11.8209 -0.148851 0)
(11.8521 -0.21634 0)
(11.8297 -0.300853 0)
(11.7269 -0.40441 0)
(9.99813 -0.158676 0)
(10.3043 -0.240308 0)
(10.6638 -0.167561 0)
(10.9435 -0.0698198 0)
(11.1057 -0.0527453 0)
(11.1996 -0.0844883 0)
(11.2672 -0.067105 0)
(11.3377 -0.0765597 0)
(11.4059 -0.0519387 0)
(11.4731 -0.0528355 0)
(11.5426 -0.0484168 0)
(11.615 -0.0498446 0)
(11.6454 -0.0547339 0)
(11.7387 -0.0794958 0)
(11.7846 -0.085248 0)
(11.8006 -0.123221 0)
(11.8562 -0.156099 0)
(11.8678 -0.225094 0)
(11.841 -0.303442 0)
(11.7508 -0.405295 0)
(9.99705 -0.19561 0)
(10.3318 -0.284346 0)
(10.7035 -0.196546 0)
(10.9805 -0.0806868 0)
(11.1318 -0.0660152 0)
(11.2296 -0.0987984 0)
(11.2932 -0.0796066 0)
(11.3756 -0.0895649 0)
(11.4325 -0.0600469 0)
(11.5013 -0.0619766 0)
(11.5854 -0.056324 0)
(11.6224 -0.0556919 0)
(11.6994 -0.06252 0)
(11.7724 -0.0876561 0)
(11.7903 -0.0888302 0)
(11.8438 -0.131722 0)
(11.8797 -0.16287 0)
(11.8786 -0.229512 0)
(11.8714 -0.311009 0)
(11.7745 -0.40514 0)
(9.99927 -0.236329 0)
(10.3638 -0.329867 0)
(10.7516 -0.220098 0)
(11.0219 -0.093686 0)
(11.1676 -0.0811625 0)
(11.2613 -0.113326 0)
(11.3306 -0.0925442 0)
(11.4149 -0.100488 0)
(11.4656 -0.069439 0)
(11.5481 -0.0715782 0)
(11.6119 -0.0625942 0)
(11.6599 -0.0639028 0)
(11.7588 -0.0702023 0)
(11.7904 -0.0930827 0)
(11.8304 -0.0941404 0)
(11.8813 -0.139919 0)
(11.8907 -0.1657 0)
(11.9046 -0.238143 0)
(11.9159 -0.316761 0)
(11.801 -0.410331 0)
(10.0115 -0.281773 0)
(10.3966 -0.376766 0)
(10.8092 -0.237043 0)
(11.0639 -0.109849 0)
(11.2137 -0.0992056 0)
(11.2945 -0.127801 0)
(11.3793 -0.106365 0)
(11.4493 -0.110245 0)
(11.5176 -0.080311 0)
(11.5915 -0.0796657 0)
(11.6485 -0.0703514 0)
(11.7192 -0.0737438 0)
(11.798 -0.0757492 0)
(11.8235 -0.0992651 0)
(11.882 -0.0990472 0)
(11.8983 -0.146189 0)
(11.9164 -0.167159 0)
(11.9453 -0.250939 0)
(11.9568 -0.317158 0)
(11.8389 -0.428307 0)
(10.0385 -0.333658 0)
(10.4199 -0.423413 0)
(10.8839 -0.249322 0)
(11.1003 -0.129158 0)
(11.2735 -0.118743 0)
(11.3256 -0.142091 0)
(11.4413 -0.119335 0)
(11.4809 -0.119821 0)
(11.5857 -0.0907814 0)
(11.6242 -0.0877178 0)
(11.7201 -0.079493 0)
(11.7596 -0.0818966 0)
(11.8425 -0.0809373 0)
(11.8603 -0.105702 0)
(11.9251 -0.102023 0)
(11.9171 -0.150816 0)
(11.9718 -0.171327 0)
(11.9809 -0.259876 0)
(11.9877 -0.320245 0)
(11.8632 -0.44373 0)
(10.0651 -0.391962 0)
(10.4342 -0.469147 0)
(10.9834 -0.262087 0)
(11.1305 -0.149449 0)
(11.3499 -0.139862 0)
(11.3507 -0.155576 0)
(11.5224 -0.132242 0)
(11.511 -0.128336 0)
(11.6673 -0.102352 0)
(11.6551 -0.0955339 0)
(11.8087 -0.0892537 0)
(11.7751 -0.0876697 0)
(11.9116 -0.0878068 0)
(11.8695 -0.109871 0)
(11.9819 -0.106586 0)
(11.9299 -0.155173 0)
(12.0238 -0.175621 0)
(11.9537 -0.264057 0)
(11.9557 -0.31938 0)
(11.744 -0.447588 0)
(10.0601 -0.454891 0)
(10.4741 -0.516016 0)
(11.093 -0.276372 0)
(11.1716 -0.170623 0)
(11.4302 -0.162138 0)
(11.3886 -0.169513 0)
(11.6094 -0.145401 0)
(11.5514 -0.1366 0)
(11.7513 -0.114503 0)
(11.6837 -0.103617 0)
(11.8731 -0.0983139 0)
(11.771 -0.0927193 0)
(11.9476 -0.0945317 0)
(11.8249 -0.112858 0)
(11.9742 -0.111666 0)
(11.8269 -0.156187 0)
(11.9227 -0.174532 0)
(11.7218 -0.260249 0)
(11.6876 -0.305281 0)
(11.3279 -0.444708 0)
(10.0251 -0.523806 0)
(10.5665 -0.562006 0)
(11.19 -0.291431 0)
(11.239 -0.192815 0)
(11.5069 -0.185027 0)
(11.4528 -0.18381 0)
(11.6745 -0.157801 0)
(11.585 -0.144669 0)
(11.7658 -0.124231 0)
(11.6403 -0.109692 0)
(11.7976 -0.103367 0)
(11.624 -0.0949065 0)
(11.7705 -0.096751 0)
(11.5556 -0.110472 0)
(11.6744 -0.110214 0)
(11.4179 -0.147516 0)
(11.4735 -0.164897 0)
(11.1478 -0.241554 0)
(11.0623 -0.280286 0)
(10.5786 -0.417974 0)
(9.99489 -0.602364 0)
(10.6947 -0.600468 0)
(11.2766 -0.308855 0)
(11.3323 -0.219275 0)
(11.5566 -0.208889 0)
(11.4655 -0.195358 0)
(11.6007 -0.165215 0)
(11.4335 -0.146761 0)
(11.5034 -0.124562 0)
(11.2923 -0.106922 0)
(11.3517 -0.0978999 0)
(11.1048 -0.0880848 0)
(11.1776 -0.0885026 0)
(10.8934 -0.0987129 0)
(10.9594 -0.0986889 0)
(10.6357 -0.12983 0)
(10.6478 -0.145506 0)
(10.2478 -0.212094 0)
(10.1236 -0.244621 0)
(9.55679 -0.369405 0)
(10.0013 -0.691561 0)
(10.8371 -0.635055 0)
(11.3369 -0.33689 0)
(11.3328 -0.250568 0)
(11.3808 -0.22343 0)
(11.1442 -0.191836 0)
(11.098 -0.155723 0)
(10.8053 -0.131912 0)
(10.7426 -0.108557 0)
(10.4591 -0.0905102 0)
(10.4352 -0.0808462 0)
(10.1526 -0.0721488 0)
(10.1712 -0.072221 0)
(9.864 -0.0806548 0)
(9.88994 -0.0813984 0)
(9.54613 -0.106709 0)
(9.52065 -0.121268 0)
(9.09762 -0.174905 0)
(8.93142 -0.205442 0)
(8.34268 -0.29682 0)
(10.0816 -0.805899 0)
(10.9088 -0.669206 0)
(11.1482 -0.358683 0)
(10.8705 -0.25547 0)
(10.618 -0.202765 0)
(10.2016 -0.159391 0)
(9.99639 -0.123812 0)
(9.63306 -0.100995 0)
(9.49382 -0.0812534 0)
(9.19669 -0.0668866 0)
(9.1298 -0.0590815 0)
(8.85627 -0.053271 0)
(8.84302 -0.0535063 0)
(8.54885 -0.0609046 0)
(8.54662 -0.0619026 0)
(8.21418 -0.0818165 0)
(8.16058 -0.0940906 0)
(7.74567 -0.135041 0)
(7.54747 -0.162063 0)
(6.97818 -0.214862 0)
(10.1639 -0.947891 0)
(10.5615 -0.668321 0)
(10.269 -0.331375 0)
(9.62768 -0.209766 0)
(9.14513 -0.147303 0)
(8.65866 -0.108941 0)
(8.39141 -0.0825953 0)
(8.0379 -0.0663094 0)
(7.87957 -0.0526693 0)
(7.61317 -0.0433215 0)
(7.53304 -0.0380236 0)
(7.2978 -0.0350551 0)
(7.26743 -0.0353215 0)
(7.01146 -0.0416002 0)
(6.98909 -0.0423413 0)
(6.69219 -0.0570553 0)
(6.62003 -0.0660774 0)
(6.23605 -0.0956886 0)
(6.02836 -0.114282 0)
(5.48436 -0.149178 0)
(9.85868 -1.02213 0)
(9.34116 -0.577263 0)
(8.48017 -0.241727 0)
(7.63245 -0.130089 0)
(7.10709 -0.0814301 0)
(6.67387 -0.0589401 0)
(6.42619 -0.044498 0)
(6.13636 -0.0355324 0)
(5.9983 -0.0280021 0)
(5.78807 -0.023108 0)
(5.71709 -0.0202182 0)
(5.53544 -0.0193666 0)
(5.50052 -0.0195031 0)
(5.29862 -0.0243154 0)
(5.2644 -0.024495 0)
(5.02215 -0.0341323 0)
(4.94126 -0.0396338 0)
(4.61265 -0.0583168 0)
(4.41192 -0.0689672 0)
(3.92643 -0.0947997 0)
(8.59964 -0.87195 0)
(6.94786 -0.383499 0)
(5.81348 -0.121846 0)
(5.05149 -0.0510276 0)
(4.66004 -0.0279555 0)
(4.36479 -0.0212403 0)
(4.19079 -0.0162024 0)
(3.99657 -0.0129189 0)
(3.9022 -0.0100288 0)
(3.76474 -0.00837867 0)
(3.71558 -0.00738723 0)
(3.59719 -0.00761548 0)
(3.56728 -0.00759428 0)
(3.43138 -0.0105241 0)
(3.39493 -0.0102626 0)
(3.22528 -0.015191 0)
(3.14939 -0.0175703 0)
(2.9057 -0.0266746 0)
(2.73359 -0.0310666 0)
(2.36503 -0.0473414 0)
(5.32812 -0.309425 0)
(2.98499 -0.0606531 0)
(2.19674 0.00159967 0)
(1.84628 0.00347024 0)
(1.70863 0.00146153 0)
(1.60647 -5.30557e-05 0)
(1.54133 2.68085e-05 0)
(1.47092 -5.91138e-06 0)
(1.43647 5.83523e-05 0)
(1.38758 -3.34081e-05 0)
(1.36902 -8.74021e-05 0)
(1.32539 -0.000357687 0)
(1.31081 -0.000189729 0)
(1.25706 -0.000982249 0)
(1.2341 -0.000538534 0)
(1.1628 -0.0014945 0)
(1.11822 -0.00145171 0)
(1.00648 -0.00297072 0)
(0.911003 -0.00337437 0)
(0.741389 -0.00388557 0)
(2.47356 -0.0257405 0)
(2.90248 0.0720789 0)
(3.20803 0.175441 0)
(3.94144 0.137864 0)
(4.61956 -0.119906 0)
(5.17333 -0.315927 0)
(5.65328 -0.538005 0)
(6.40298 -1.12938 0)
(6.74545 -1.56439 0)
(7.81776 -2.15831 0)
(8.10959 -2.91475 0)
(9.0751 -3.84781 0)
(8.84324 -4.78165 0)
(8.66952 -5.19207 0)
(7.90426 -5.30501 0)
(7.02089 -4.79729 0)
(6.3812 -4.02755 0)
(5.43297 -3.10978 0)
(5.39399 -2.05024 0)
(4.31873 -1.27197 0)
(3.3722 -0.695224 0)
(3.96518 0.222091 0)
(4.45142 2.96008 0)
(4.02292 5.62907 0)
(4.83812 5.42528 0)
(4.64904 4.11884 0)
(4.78987 3.86147 0)
(5.3273 3.41601 0)
(5.64026 3.56332 0)
(6.23019 3.70691 0)
(6.60116 3.91905 0)
(7.17676 4.3832 0)
(8.28814 3.91149 0)
(8.99334 3.61059 0)
(9.82224 2.81774 0)
(10.5709 1.40821 0)
(10.837 0.402625 0)
(11.4509 -1.10624 0)
(11.3744 -2.27474 0)
(11.1112 -2.86625 0)
(11.1692 -3.78197 0)
(10.7659 -4.16157 0)
(11.0685 -4.8926 0)
(11.9579 -6.37688 0)
(12.1606 -7.12765 0)
(12.157 -7.5069 0)
(11.9871 -7.90501 0)
(11.4445 -7.63638 0)
(10.9895 -7.27532 0)
(10.8465 -7.4619 0)
(10.5745 -7.4034 0)
(10.095 -6.98423 0)
(9.94358 -7.01972 0)
(10.1475 -7.44873 0)
(10.3192 -7.57711 0)
(10.263 -7.41674 0)
(10.0419 -7.19123 0)
(10.1584 -7.01345 0)
(10.7753 -7.2699 0)
(11.3611 -7.34458 0)
(11.6992 -6.60187 0)
(11.9147 -5.79215 0)
(12.1402 -4.98196 0)
(12.2959 -3.65149 0)
(12.1466 -2.27903 0)
(11.9199 -1.08297 0)
(11.7921 0.325909 0)
(11.4651 1.7437 0)
(10.8727 2.74298 0)
(10.2403 3.44657 0)
(9.67313 4.13461 0)
(9.1037 4.69562 0)
(8.48616 4.86015 0)
(7.87205 4.63846 0)
(7.32959 4.26257 0)
(6.88234 3.88755 0)
(6.53083 3.52631 0)
(6.26657 3.17428 0)
(6.0675 2.85438 0)
(5.90425 2.59096 0)
(5.76563 2.36695 0)
(5.6488 2.17007 0)
(5.56045 1.97783 0)
(5.49201 1.82204 0)
(5.44511 1.67938 0)
(5.40893 1.59259 0)
(5.39368 1.48014 0)
(5.39118 1.41061 0)
(5.40478 1.25663 0)
(5.41952 1.16706 0)
(5.4212 0.969832 0)
(5.4137 0.900101 0)
(5.37811 0.714981 0)
(5.35193 0.709669 0)
(5.30972 0.565058 0)
(5.28913 0.615005 0)
(5.27078 0.491821 0)
(5.2538 0.555476 0)
(5.26305 0.432843 0)
(5.2363 0.47294 0)
(5.27529 0.36979 0)
(5.22199 0.35693 0)
(5.31379 0.316839 0)
(5.19682 0.24194 0)
(5.37413 0.268352 0)
(5.16712 0.176411 0)
(5.41249 0.20204 0)
(5.1737 0.166554 0)
(5.37877 0.133226 0)
(5.24356 0.160042 0)
(5.28482 0.103264 0)
(5.339 0.116494 0)
(5.20105 0.117227 0)
(5.39008 0.0620526 0)
(5.18135 0.127692 0)
(5.37661 0.0464619 0)
(5.20316 0.0987754 0)
(5.34995 0.0679955 0)
(5.20724 0.0570028 0)
(5.35814 0.0793846 0)
(5.18014 0.0405373 0)
(5.38703 0.0676393 0)
(5.15674 0.0425263 0)
(5.39759 0.0582214 0)
(5.15561 0.0411446 0)
(5.38989 0.0550128 0)
(5.15915 0.0413432 0)
(5.38892 0.0462862 0)
(5.15257 0.045919 0)
(5.39716 0.0440867 0)
(5.14348 0.0411832 0)
(5.40199 0.0548594 0)
(5.13788 0.0334878 0)
(5.40465 0.0582508 0)
(5.13428 0.0398453 0)
(5.40614 0.053676 0)
(5.13346 0.0460565 0)
(5.40927 0.0623185 0)
(5.12492 0.0430366 0)
(5.42201 0.0729114 0)
(5.11378 0.0503687 0)
(5.42898 0.0758282 0)
(5.11073 0.0612154 0)
(5.43561 0.0862075 0)
(5.10082 0.0685768 0)
(5.44725 0.0960442 0)
(5.09776 0.0845006 0)
(5.44641 0.106939 0)
(5.10387 0.0953202 0)
(5.44543 0.129649 0)
(5.10689 0.110091 0)
(5.45202 0.139482 0)
(5.1029 0.145587 0)
(5.45674 0.153066 0)
(5.12522 0.158742 0)
(5.42356 0.204445 0)
(5.16567 0.16776 0)
(5.42854 0.222888 0)
(5.14466 0.249061 0)
(5.46154 0.199392 0)
(5.17019 0.313844 0)
(5.40042 0.264197 0)
(5.26629 0.308885 0)
(5.3491 0.340963 0)
(5.33147 0.373229 0)
(5.30118 0.366214 0)
(5.43328 0.458551 0)
(5.24505 0.409428 0)
(5.51876 0.546961 0)
(5.19459 0.477867 0)
(5.62938 0.616824 0)
(5.16283 0.568508 0)
(5.6913 0.717659 0)
(5.19118 0.676782 0)
(5.73602 0.78043 0)
(5.26981 0.8388 0)
(5.68996 0.888407 0)
(5.42846 1.00364 0)
(5.62172 0.971151 0)
(5.66599 1.20347 0)
(5.45242 1.13276 0)
(5.88959 1.38881 0)
(5.36851 1.33559 0)
(5.98718 1.55648 0)
(5.48955 1.64569 0)
(5.90197 1.70958 0)
(5.78617 1.97153 0)
(5.67468 1.9918 0)
(6.02032 2.2488 0)
(5.62049 2.4623 0)
(5.8114 2.54531 0)
(5.76185 2.97175 0)
(5.44229 3.1717 0)
(5.73232 3.41591 0)
(5.44697 4.03408 0)
(5.47992 4.38103 0)
(5.45252 4.95543 0)
(5.16266 6.17457 0)
(5.51387 7.14875 0)
(3.06605 10.4632 0)
(4.28997 -0.127347 0)
(4.6688 -0.0425249 0)
(4.93365 -0.00795686 0)
(5.39796 -0.0635924 0)
(6.10236 -0.30091 0)
(6.59233 -0.5718 0)
(6.97287 -0.759181 0)
(7.8432 -1.27858 0)
(8.03927 -1.74459 0)
(9.14216 -2.39967 0)
(9.2766 -3.08703 0)
(9.89602 -3.8794 0)
(9.62754 -4.71521 0)
(9.20676 -4.95658 0)
(8.47772 -5.01896 0)
(7.37891 -4.52325 0)
(6.91158 -3.67016 0)
(5.73405 -2.9695 0)
(5.81742 -1.86497 0)
(5.03887 -0.862333 0)
(4.03364 -0.597508 0)
(4.72028 -0.0263221 0)
(4.60618 2.82282 0)
(4.4803 5.61211 0)
(4.9736 5.30217 0)
(4.99086 4.05156 0)
(4.88041 3.69575 0)
(5.63233 3.21577 0)
(5.94493 3.40378 0)
(6.54209 3.50514 0)
(6.93237 3.62777 0)
(7.38079 4.08408 0)
(8.53332 3.52001 0)
(9.30305 3.25049 0)
(10.0922 2.57868 0)
(10.9065 1.19816 0)
(11.229 0.232811 0)
(11.7193 -1.19803 0)
(11.6143 -2.2546 0)
(11.3312 -2.77511 0)
(11.3299 -3.68594 0)
(11.1467 -4.22364 0)
(11.6912 -5.17387 0)
(12.4857 -6.57178 0)
(12.5055 -7.14154 0)
(12.3804 -7.47361 0)
(12.0701 -7.74331 0)
(11.4749 -7.39428 0)
(11.0752 -7.16971 0)
(10.9062 -7.38892 0)
(10.5415 -7.23597 0)
(10.0948 -6.88668 0)
(10.0287 -7.06247 0)
(10.2033 -7.48964 0)
(10.2551 -7.55017 0)
(10.0968 -7.35579 0)
(9.89671 -7.21593 0)
(10.0713 -7.20235 0)
(10.694 -7.50456 0)
(11.2432 -7.51889 0)
(11.4895 -6.71424 0)
(11.6546 -5.85822 0)
(11.8428 -5.02685 0)
(11.9363 -3.64809 0)
(11.7637 -2.19691 0)
(11.5212 -0.98434 0)
(11.378 0.417949 0)
(11.0852 1.90168 0)
(10.5505 2.97652 0)
(9.94327 3.6909 0)
(9.37587 4.36043 0)
(8.81882 4.92346 0)
(8.22775 5.09962 0)
(7.64173 4.87083 0)
(7.12585 4.46743 0)
(6.70191 4.05564 0)
(6.37141 3.65563 0)
(6.12475 3.27061 0)
(5.93905 2.92869 0)
(5.78771 2.65314 0)
(5.66244 2.41916 0)
(5.55687 2.21313 0)
(5.47419 2.00961 0)
(5.40489 1.84709 0)
(5.3575 1.69331 0)
(5.32688 1.60251 0)
(5.3276 1.47479 0)
(5.34844 1.40699 0)
(5.38553 1.2392 0)
(5.42047 1.16788 0)
(5.42691 0.960612 0)
(5.4231 0.922155 0)
(5.36428 0.717071 0)
(5.33784 0.745128 0)
(5.24824 0.562252 0)
(5.25105 0.649809 0)
(5.15974 0.474113 0)
(5.21981 0.588114 0)
(5.1115 0.401519 0)
(5.24235 0.505181 0)
(5.09088 0.33175 0)
(5.29043 0.382847 0)
(5.1058 0.285346 0)
(5.32177 0.252765 0)
(5.16398 0.253886 0)
(5.31143 0.173361 0)
(5.23872 0.201102 0)
(5.27901 0.161012 0)
(5.29158 0.132484 0)
(5.25017 0.163019 0)
(5.32142 0.0938788 0)
(5.22294 0.130387 0)
(5.35327 0.0980185 0)
(5.19077 0.0839769 0)
(5.3829 0.103053 0)
(5.17244 0.0719102 0)
(5.38086 0.0771413 0)
(5.18272 0.0844285 0)
(5.35995 0.0526972 0)
(5.18715 0.0712514 0)
(5.37116 0.0607385 0)
(5.15634 0.0386713 0)
(5.41131 0.0725781 0)
(5.1245 0.032727 0)
(5.42379 0.0574383 0)
(5.12996 0.049505 0)
(5.40371 0.0393104 0)
(5.14613 0.0505299 0)
(5.39784 0.0446095 0)
(5.13906 0.0371505 0)
(5.41141 0.0562446 0)
(5.12585 0.0333292 0)
(5.41498 0.0569049 0)
(5.1269 0.0353117 0)
(5.41188 0.0592403 0)
(5.12499 0.0335912 0)
(5.42236 0.0672046 0)
(5.10994 0.0353417 0)
(5.43852 0.072709 0)
(5.09597 0.0402521 0)
(5.45362 0.0795963 0)
(5.08092 0.0485987 0)
(5.46951 0.0839029 0)
(5.07239 0.0612868 0)
(5.47342 0.0954178 0)
(5.07065 0.0634243 0)
(5.48657 0.115188 0)
(5.05487 0.0774779 0)
(5.50333 0.120699 0)
(5.05162 0.0999432 0)
(5.50922 0.140561 0)
(5.04764 0.106589 0)
(5.52192 0.172559 0)
(5.04913 0.123611 0)
(5.53229 0.189733 0)
(5.03297 0.169271 0)
(5.57057 0.18903 0)
(5.03381 0.211579 0)
(5.53296 0.250273 0)
(5.12012 0.1846 0)
(5.49091 0.329131 0)
(5.13293 0.257271 0)
(5.5353 0.289826 0)
(5.14951 0.366599 0)
(5.48626 0.339725 0)
(5.24317 0.399582 0)
(5.45406 0.394667 0)
(5.31828 0.476953 0)
(5.37567 0.464669 0)
(5.46147 0.556013 0)
(5.3046 0.50976 0)
(5.60664 0.6613 0)
(5.19423 0.612114 0)
(5.75929 0.760967 0)
(5.17547 0.687863 0)
(5.86372 0.872066 0)
(5.16843 0.871554 0)
(5.90005 0.956271 0)
(5.35814 1.04151 0)
(5.8142 1.05193 0)
(5.58949 1.27672 0)
(5.61859 1.22603 0)
(5.87775 1.49158 0)
(5.52423 1.41524 0)
(6.04817 1.67164 0)
(5.54241 1.75595 0)
(5.89746 1.87136 0)
(5.81134 2.14146 0)
(5.67047 2.16147 0)
(6.12964 2.43973 0)
(5.75158 2.68679 0)
(5.9957 2.77449 0)
(6.02879 3.27339 0)
(5.73133 3.54553 0)
(5.81331 3.92365 0)
(5.72885 4.64338 0)
(5.43216 5.25343 0)
(5.26518 6.31782 0)
(6.79988 6.87984 0)
(4.38775 11.3321 0)
(6.0682 -0.266643 0)
(6.28265 -0.217585 0)
(6.68978 -0.224809 0)
(6.96609 -0.297893 0)
(7.55489 -0.495511 0)
(8.16637 -0.798427 0)
(8.31623 -0.995464 0)
(9.2116 -1.48083 0)
(9.31321 -1.91194 0)
(10.2078 -2.6017 0)
(10.2513 -3.21408 0)
(10.489 -3.83616 0)
(10.3073 -4.6084 0)
(9.53601 -4.69265 0)
(8.97189 -4.68747 0)
(7.5936 -4.23021 0)
(7.32476 -3.31118 0)
(5.99714 -2.72172 0)
(6.08428 -1.76081 0)
(5.67614 -0.473216 0)
(4.60915 -0.477692 0)
(5.35515 -0.160059 0)
(4.85566 2.72755 0)
(5.02195 5.66082 0)
(5.15366 5.27473 0)
(5.34602 4.01899 0)
(4.85868 3.53269 0)
(5.92324 2.87739 0)
(6.22547 3.20051 0)
(6.85222 3.30622 0)
(7.4377 3.36524 0)
(7.63148 3.80531 0)
(8.82391 3.15213 0)
(9.60358 2.89418 0)
(10.3478 2.23554 0)
(11.1586 0.924704 0)
(11.4166 0.0807827 0)
(11.8142 -1.26632 0)
(11.7787 -2.20993 0)
(11.4782 -2.67458 0)
(11.529 -3.6448 0)
(11.6391 -4.35787 0)
(12.3426 -5.46499 0)
(12.9441 -6.72054 0)
(12.7318 -7.08524 0)
(12.5344 -7.37029 0)
(12.1317 -7.54507 0)
(11.49 -7.14834 0)
(11.1745 -7.07196 0)
(10.9461 -7.29784 0)
(10.4887 -7.04914 0)
(10.0946 -6.8 0)
(10.0999 -7.11929 0)
(10.2107 -7.51828 0)
(10.1281 -7.49179 0)
(9.89142 -7.2814 0)
(9.72254 -7.25931 0)
(9.95414 -7.40892 0)
(10.5584 -7.71748 0)
(11.0494 -7.65994 0)
(11.2149 -6.80901 0)
(11.3126 -5.90289 0)
(11.4694 -5.03534 0)
(11.5055 -3.61622 0)
(11.2925 -2.10829 0)
(11.0382 -0.878762 0)
(10.8854 0.514693 0)
(10.6286 2.0457 0)
(10.1484 3.1927 0)
(9.57577 3.92838 0)
(9.0303 4.58536 0)
(8.49313 5.14673 0)
(7.92697 5.32653 0)
(7.3767 5.08983 0)
(6.89818 4.66076 0)
(6.50397 4.20972 0)
(6.19662 3.77109 0)
(5.96801 3.35834 0)
(5.79714 2.99797 0)
(5.66014 2.70926 0)
(5.54936 2.46349 0)
(5.45533 2.2498 0)
(5.37842 2.03834 0)
(5.30986 1.8723 0)
(5.2629 1.70605 0)
(5.23776 1.6096 0)
(5.25127 1.46092 0)
(5.28987 1.39622 0)
(5.34549 1.21074 0)
(5.39394 1.16669 0)
(5.40898 0.944805 0)
(5.40413 0.952 0)
(5.34232 0.716343 0)
(5.30274 0.795633 0)
(5.20733 0.555648 0)
(5.18937 0.701534 0)
(5.10803 0.44799 0)
(5.13433 0.634953 0)
(5.07712 0.358417 0)
(5.13869 0.546234 0)
(5.10296 0.283819 0)
(5.16798 0.412032 0)
(5.17693 0.247324 0)
(5.18039 0.267644 0)
(5.27502 0.229166 0)
(5.18077 0.184851 0)
(5.32588 0.179974 0)
(5.22787 0.179783 0)
(5.27732 0.111257 0)
(5.33067 0.181718 0)
(5.18577 0.0805465 0)
(5.40626 0.13641 0)
(5.15822 0.0988109 0)
(5.3909 0.0785313 0)
(5.21288 0.108734 0)
(5.32927 0.0709408 0)
(5.25453 0.072827 0)
(5.31842 0.097243 0)
(5.22104 0.0355398 0)
(5.36448 0.093509 0)
(5.17146 0.0353077 0)
(5.39456 0.0657484 0)
(5.16595 0.0434904 0)
(5.3873 0.0618741 0)
(5.17499 0.0330853 0)
(5.38192 0.0678802 0)
(5.16919 0.0307376 0)
(5.38422 0.0548053 0)
(5.17199 0.0406819 0)
(5.37343 0.0494048 0)
(5.18557 0.0357833 0)
(5.3639 0.0639502 0)
(5.1817 0.0258246 0)
(5.37353 0.0650757 0)
(5.16907 0.0366788 0)
(5.38113 0.0543903 0)
(5.1688 0.0454753 0)
(5.38381 0.0650383 0)
(5.15755 0.0384177 0)
(5.40643 0.0765023 0)
(5.13484 0.0481676 0)
(5.4219 0.0764838 0)
(5.1321 0.0563187 0)
(5.42763 0.095412 0)
(5.11595 0.0554159 0)
(5.45694 0.105004 0)
(5.09566 0.076222 0)
(5.46709 0.114407 0)
(5.09795 0.0804983 0)
(5.47969 0.145267 0)
(5.07801 0.0913585 0)