/*--------------------------------*- C++ -*----------------------------------*\
| =========                 |                                                 |
| \\      /  F ield         | OpenFOAM: The Open Source CFD Toolbox           |
|  \\    /   O peration     | Version:  2.4.0                                 |
|   \\  /    A nd           | Web:      www.OpenFOAM.org                      |
|    \\/     M anipulation  |                                                 |
\*---------------------------------------------------------------------------*/
FoamFile
{
    version     2.0;
    format      ascii;
    class       volSymmTensorField;
    location    "0.047";
    object      UPrime2Mean;
}
// * * * * * * * * * * * * * * * * * * * * * * * * * * * * * * * * * * * * * //

dimensions      [0 2 -2 0 0 0 0];

internalField   nonuniform List<symmTensor> 
4400
(
(0.120944 -0.0119896 0 0.00210608 0 0)
(1.33489 -0.00377517 0 0.000179837 0 0)
(1.50962 -0.00227973 0 8.36026e-06 0 0)
(1.69178 -0.00137053 0 4.13481e-06 0 0)
(1.80981 -2.64842e-05 0 1.71456e-06 0 0)
(1.86171 0.000106041 0 2.44069e-06 0 0)
(1.90633 -0.000160774 0 2.77412e-06 0 0)
(1.97719 0.000342751 0 9.89731e-06 0 0)
(2.23329 -0.0366142 0 0.000808374 0 0)
(3.60338 0.207468 0 0.0262269 0 0)
(0.0873675 0.036644 0 0.02182 0 0)
(0.526343 -0.0417301 0 0.00376943 0 0)
(0.74873 -0.0244268 0 0.000811855 0 0)
(1.04943 -0.0197843 0 0.000477366 0 0)
(1.34562 -0.01174 0 0.000269774 0 0)
(1.54404 -0.00730884 0 9.5458e-05 0 0)
(1.65387 -0.00613969 0 0.00013692 0 0)
(1.98368 -0.0116079 0 0.000192588 0 0)
(1.76533 -0.0374684 0 0.00222494 0 0)
(5.72191 -0.636248 0 0.1504 0 0)
(0.279609 0.0888504 0 0.0298563 0 0)
(0.0886191 -0.0229596 0 0.0090635 0 0)
(0.157914 -0.0200973 0 0.0032774 0 0)
(0.301336 -0.0257608 0 0.00237293 0 0)
(0.527622 -0.0224671 0 0.001517 0 0)
(0.763053 -0.0163163 0 0.000577177 0 0)
(0.855104 -0.0178946 0 0.000924588 0 0)
(1.28988 -0.00612921 0 0.000713491 0 0)
(1.01964 -0.108619 0 0.0180941 0 0)
(3.77094 -0.617309 0 0.253262 0 0)
(0.347107 0.0870588 0 0.0227715 0 0)
(0.0133903 0.00277476 0 0.011459 0 0)
(0.053256 0.00707638 0 0.00558792 0 0)
(0.0482267 -0.00170752 0 0.00544284 0 0)
(0.0646388 -0.0105225 0 0.00421887 0 0)
(0.182367 -0.0132985 0 0.00141949 0 0)
(0.166842 -0.0177553 0 0.00289469 0 0)
(0.480156 -0.000836246 0 0.0014642 0 0)
(0.350422 -0.0712688 0 0.0322681 0 0)
(1.11859 -0.211134 0 0.247998 0 0)
(0.332398 0.0673761 0 0.0143211 0 0)
(0.0185734 0.00810026 0 0.00903814 0 0)
(0.137159 0.0218274 0 0.00494657 0 0)
(0.183424 0.0269193 0 0.00666049 0 0)
(0.168975 0.0189249 0 0.00636885 0 0)
(0.117862 0.00490872 0 0.00320868 0 0)
(0.115923 0.00206075 0 0.00334321 0 0)
(0.10949 -0.00112627 0 0.00392591 0 0)
(0.159465 0.00388893 0 0.0263716 0 0)
(0.22954 0.0619656 0 0.357076 0 0)
(0.335098 0.0534868 0 0.00898976 0 0)
(0.0191132 0.00540065 0 0.00639408 0 0)
(0.152617 0.0177852 0 0.00291866 0 0)
(0.264232 0.0304895 0 0.00540387 0 0)
(0.358729 0.0332583 0 0.0062718 0 0)
(0.324259 0.0217448 0 0.0031673 0 0)
(0.363914 0.0228389 0 0.00534031 0 0)
(0.322998 0.0168246 0 0.00339446 0 0)
(0.317942 0.0836424 0 0.0437071 0 0)
(0.382948 0.234611 0 0.223418 0 0)
(0.33212 0.0408686 0 0.00540809 0 0)
(0.0149757 0.0036889 0 0.00431445 0 0)
(0.133919 0.0116674 0 0.0016058 0 0)
(0.265653 0.0230591 0 0.00300443 0 0)
(0.367412 0.0274481 0 0.00368414 0 0)
(0.414456 0.022997 0 0.00354327 0 0)
(0.4971 0.0228403 0 0.00289176 0 0)
(0.528173 0.0398149 0 0.00757827 0 0)
(0.600197 0.0981961 0 0.022461 0 0)
(0.686161 0.338709 0 0.258432 0 0)
(0.322416 0.0275175 0 0.00261626 0 0)
(0.010512 0.00249539 0 0.00294054 0 0)
(0.122045 0.006615 0 0.000941288 0 0)
(0.255325 0.0170208 0 0.00226598 0 0)
(0.346233 0.0166491 0 0.00269229 0 0)
(0.419654 0.0163677 0 0.00186148 0 0)
(0.485283 0.0214819 0 0.00258095 0 0)
(0.590039 0.0311273 0 0.0037179 0 0)
(0.666702 0.113344 0 0.0278849 0 0)
(0.937779 0.361976 0 0.20566 0 0)
(0.318367 0.0164987 0 0.000985167 0 0)
(0.010907 0.00126588 0 0.00113421 0 0)
(0.11752 0.00359139 0 0.000346917 0 0)
(0.250556 0.00985017 0 0.000836333 0 0)
(0.331375 0.00981218 0 0.00107344 0 0)
(0.406778 0.0117672 0 0.00149703 0 0)
(0.472707 0.0132583 0 0.00160226 0 0)
(0.585636 0.0345487 0 0.00503299 0 0)
(0.683346 0.104798 0 0.0185267 0 0)
(0.998892 0.32792 0 0.144604 0 0)
(0.318498 0.00466093 0 0.000170068 0 0)
(0.010226 0.000287354 0 0.000392269 0 0)
(0.114452 0.000301263 0 0.000222828 0 0)
(0.24583 0.00464092 0 0.000463234 0 0)
(0.324214 0.00139089 0 0.000717049 0 0)
(0.401624 0.00405709 0 0.000872612 0 0)
(0.46827 0.00889881 0 0.00091397 0 0)
(0.586554 0.0285054 0 0.0033036 0 0)
(0.70573 0.0910172 0 0.0157878 0 0)
(1.04295 0.307865 0 0.1303 0 0)
(0.319379 -0.00615493 0 0.000178768 0 0)
(0.0101295 -0.000558242 0 0.000163379 0 0)
(0.11488 -0.00241374 0 0.000215745 0 0)
(0.245575 -0.0020168 0 0.000285901 0 0)
(0.325009 -0.00536929 0 0.000675363 0 0)
(0.402481 -0.00198832 0 0.000915213 0 0)
(0.470708 0.00307711 0 0.000800418 0 0)
(0.596485 0.0219449 0 0.00297389 0 0)
(0.731544 0.0835763 0 0.0116928 0 0)
(1.0993 0.272707 0 0.0901027 0 0)
(0.319411 -0.017848 0 0.00110654 0 0)
(0.010361 -0.00151924 0 0.000766288 0 0)
(0.117149 -0.0056656 0 0.000489921 0 0)
(0.247972 -0.00782618 0 0.000497152 0 0)
(0.330328 -0.0132009 0 0.00112446 0 0)
(0.40931 -0.00953276 0 0.00122534 0 0)
(0.480023 -0.00289776 0 0.000662006 0 0)
(0.612702 0.0163061 0 0.00230077 0 0)
(0.760308 0.0687866 0 0.00807259 0 0)
(1.15245 0.234774 0 0.0639178 0 0)
(0.319479 -0.0291365 0 0.00282114 0 0)
(0.0107999 -0.00255591 0 0.00206794 0 0)
(0.121956 -0.00911726 0 0.0010857 0 0)
(0.252072 -0.0142359 0 0.00133992 0 0)
(0.344512 -0.0208096 0 0.00232137 0 0)
(0.419899 -0.0160564 0 0.00202766 0 0)
(0.50057 -0.00918123 0 0.000986316 0 0)
(0.629128 0.00870686 0 0.00215453 0 0)
(0.795177 0.0543189 0 0.00527276 0 0)
(1.18973 0.192178 0 0.0435252 0 0)
(0.318737 -0.0408957 0 0.00551606 0 0)
(0.0125965 -0.003814 0 0.00378986 0 0)
(0.131087 -0.0133504 0 0.00191592 0 0)
(0.260042 -0.0211703 0 0.00252338 0 0)
(0.367683 -0.0293269 0 0.00380811 0 0)
(0.422456 -0.0228811 0 0.00311804 0 0)
(0.509704 -0.0156141 0 0.00153479 0 0)
(0.591814 0.00153422 0 0.00195836 0 0)
(0.751975 0.0389244 0 0.00336491 0 0)
(1.05563 0.138652 0 0.0250181 0 0)
(0.315506 -0.0525143 0 0.00917255 0 0)
(0.0151193 -0.00583886 0 0.00583675 0 0)
(0.14315 -0.0187261 0 0.00334849 0 0)
(0.265444 -0.028648 0 0.00440439 0 0)
(0.345792 -0.0348129 0 0.00573294 0 0)
(0.334825 -0.0227151 0 0.00413888 0 0)
(0.368938 -0.0152214 0 0.00192926 0 0)
(0.368706 0.000321679 0 0.00189721 0 0)
(0.454602 0.0233775 0 0.00215525 0 0)
(0.625663 0.0814271 0 0.0137006 0 0)
(0.321722 -0.0664797 0 0.0143808 0 0)
(0.0172818 -0.00877882 0 0.00874567 0 0)
(0.130371 -0.0220783 0 0.00539208 0 0)
(0.180968 -0.0258407 0 0.00605956 0 0)
(0.161185 -0.0198551 0 0.00607416 0 0)
(0.109849 -0.00565313 0 0.00370454 0 0)
(0.111836 -0.00247749 0 0.00149077 0 0)
(0.108979 0.00370269 0 0.00130081 0 0)
(0.137582 0.00752855 0 0.00147359 0 0)
(0.220298 0.0281909 0 0.0064269 0 0)
(0.340461 -0.0863552 0 0.02286 0 0)
(0.0124427 -0.00337679 0 0.0112529 0 0)
(0.051777 -0.00685468 0 0.00592335 0 0)
(0.0429972 0.00168385 0 0.00495267 0 0)
(0.061249 0.0109604 0 0.00388465 0 0)
(0.145007 0.0129367 0 0.00202401 0 0)
(0.201371 0.00695946 0 0.000693909 0 0)
(0.267213 0.00274873 0 0.000676868 0 0)
(0.24635 -0.00862956 0 0.000984169 0 0)
(0.221357 -0.00319463 0 0.00280855 0 0)
(0.27648 -0.0883512 0 0.0298964 0 0)
(0.085891 0.0224462 0 0.00897478 0 0)
(0.1603 0.0207162 0 0.00340189 0 0)
(0.299634 0.0248868 0 0.00219643 0 0)
(0.513597 0.0232148 0 0.00146124 0 0)
(0.748402 0.0143927 0 0.000682248 0 0)
(0.838838 0.00620216 0 0.000206854 0 0)
(0.94009 -0.000741028 0 0.000248476 0 0)
(0.848372 -0.0159171 0 0.00053691 0 0)
(0.722249 -0.00267126 0 0.00139899 0 0)
(0.0868974 -0.0364287 0 0.0218353 0 0)
(0.52324 0.0414564 0 0.00374755 0 0)
(0.752207 0.0248453 0 0.000836648 0 0)
(1.0488 0.0191213 0 0.000441811 0 0)
(1.33208 0.0123203 0 0.000255753 0 0)
(1.54375 0.00558416 0 0.000109808 0 0)
(1.60392 0.00173541 0 3.2528e-05 0 0)
(1.6699 -0.00205681 0 5.51308e-05 0 0)
(1.55161 -0.0113359 0 0.000163126 0 0)
(1.37616 0.00601619 0 0.000829491 0 0)
(0.121247 0.0120145 0 0.00210791 0 0)
(1.33385 0.0037436 0 0.000180277 0 0)
(1.51069 0.00234611 0 8.45222e-06 0 0)
(1.6915 0.0012784 0 3.79812e-06 0 0)
(1.80518 6.83402e-05 0 1.36794e-06 0 0)
(1.86073 -0.00025058 0 1.30017e-06 0 0)
(1.86787 -0.000323605 0 1.16913e-06 0 0)
(1.86936 -0.000690875 0 1.85603e-06 0 0)
(1.7979 -0.00251636 0 7.19435e-06 0 0)
(1.63238 0.00433324 0 0.000402008 0 0)
(10.7332 -7.10199 0 5.96371 0 0)
(9.19068 -4.9819 0 6.79402 0 0)
(7.64812 -3.62795 0 6.88567 0 0)
(7.89515 -3.20804 0 6.90763 0 0)
(7.12064 -2.54281 0 6.6554 0 0)
(6.67512 -2.32647 0 6.83644 0 0)
(5.89888 -1.83208 0 6.71517 0 0)
(5.44789 -1.5341 0 6.59533 0 0)
(5.22457 -1.38714 0 6.17171 0 0)
(5.03648 -1.1692 0 5.45051 0 0)
(4.87461 -0.937948 0 4.51922 0 0)
(4.83255 -0.849783 0 3.48445 0 0)
(5.19037 -1.24454 0 2.74738 0 0)
(5.89403 -2.08687 0 2.4479 0 0)
(6.5246 -3.06144 0 2.5316 0 0)
(7.31881 -4.06289 0 2.88605 0 0)
(8.6831 -5.18997 0 3.46336 0 0)
(10.0609 -6.2609 0 4.11992 0 0)
(11.2621 -7.12379 0 4.66727 0 0)
(11.7341 -7.49285 0 4.91901 0 0)
(11.3243 -7.17395 0 4.69779 0 0)
(10.7682 -6.57851 0 4.22921 0 0)
(10.5742 -6.05403 0 3.73474 0 0)
(10.6387 -5.5412 0 3.21053 0 0)
(10.5946 -4.80609 0 2.52698 0 0)
(10.1703 -3.78189 0 1.73719 0 0)
(9.4127 -2.60467 0 1.01087 0 0)
(8.41145 -1.41473 0 0.456448 0 0)
(7.17126 -0.354489 0 0.171374 0 0)
(5.83569 0.455659 0 0.139628 0 0)
(4.52651 0.977064 0 0.268587 0 0)
(3.22261 1.16369 0 0.446549 0 0)
(2.06268 1.03523 0 0.533978 0 0)
(1.24696 0.788349 0 0.50901 0 0)
(0.755808 0.566573 0 0.434193 0 0)
(0.465063 0.389077 0 0.335475 0 0)
(0.29202 0.256221 0 0.235078 0 0)
(0.191033 0.16977 0 0.161055 0 0)
(0.131776 0.11853 0 0.116998 0 0)
(0.0946175 0.0864646 0 0.0895082 0 0)
(0.0691735 0.0632687 0 0.0682631 0 0)
(0.0506497 0.0450044 0 0.0501013 0 0)
(0.0376831 0.0310189 0 0.0349585 0 0)
(0.0287371 0.0208977 0 0.0236094 0 0)
(0.0235519 0.0142155 0 0.0153376 0 0)
(0.0199321 0.00974338 0 0.0101872 0 0)
(0.0186732 0.00709541 0 0.00624308 0 0)
(0.0168105 0.00513208 0 0.00455657 0 0)
(0.0175519 0.00403136 0 0.0022767 0 0)
(0.015385 0.00309685 0 0.00255389 0 0)
(0.0184403 0.00211467 0 0.000504045 0 0)
(0.0142093 0.00202044 0 0.00261598 0 0)
(0.022198 -0.000803013 0 0.000408608 0 0)
(0.0132645 0.000575855 0 0.00580328 0 0)
(0.032251 -0.00859558 0 0.00459989 0 0)
(0.0135872 -0.00372858 0 0.0174088 0 0)
(0.0535023 -0.0271131 0 0.0190633 0 0)
(0.0152858 -0.0121562 0 0.043551 0 0)
(0.0873467 -0.0573755 0 0.0448192 0 0)
(0.0165552 -0.0205075 0 0.0750787 0 0)
(0.133763 -0.0914695 0 0.0700936 0 0)
(0.0170205 -0.0249053 0 0.0945599 0 0)
(0.196647 -0.120422 0 0.0850293 0 0)
(0.0157452 -0.023948 0 0.102688 0 0)
(0.260847 -0.138814 0 0.0914016 0 0)
(0.0120647 -0.0170427 0 0.107804 0 0)
(0.302713 -0.147646 0 0.0938441 0 0)
(0.0119401 -0.00430244 0 0.1142 0 0)
(0.324927 -0.150041 0 0.0948176 0 0)
(0.0176938 0.0120169 0 0.120847 0 0)
(0.333537 -0.145999 0 0.0930106 0 0)
(0.0297568 0.0276356 0 0.122331 0 0)
(0.333553 -0.134657 0 0.0841037 0 0)
(0.04587 0.0390559 0 0.117786 0 0)
(0.328425 -0.115209 0 0.0698295 0 0)
(0.0675089 0.0487146 0 0.111672 0 0)
(0.311602 -0.0905952 0 0.0552738 0 0)
(0.0925728 0.05578 0 0.10418 0 0)
(0.278311 -0.0602751 0 0.0402148 0 0)
(0.113587 0.0546521 0 0.0923462 0 0)
(0.228468 -0.0291106 0 0.0281664 0 0)
(0.113615 0.0475141 0 0.0794263 0 0)
(0.163974 -0.00778226 0 0.0203366 0 0)
(0.0893823 0.0306438 0 0.0619575 0 0)
(0.0910355 0.00623498 0 0.0158475 0 0)
(0.0444513 0.0111523 0 0.0449216 0 0)
(0.0341702 0.0046587 0 0.0112377 0 0)
(0.0145842 -0.00522891 0 0.0295869 0 0)
(0.00844472 0.000655856 0 0.00740026 0 0)
(0.0146025 -0.0106186 0 0.0221196 0 0)
(0.0181078 -2.87148e-05 0 0.00580376 0 0)
(0.0368254 -0.0164046 0 0.0205298 0 0)
(0.0656976 -0.00123343 0 0.00799789 0 0)
(0.115781 -0.00922294 0 0.02282 0 0)
(0.0730547 -0.00542033 0 0.0179388 0 0)
(0.0407814 -0.0260789 0 0.0359465 0 0)
(0.205277 -0.0392919 0 0.0206598 0 0)
(0.078521 -0.0355108 0 0.0294927 0 0)
(0.152451 -0.0201171 0 0.0216249 0 0)
(0.354125 0.0287695 0 0.0996674 0 0)
(8.02861 -5.14153 0 5.04139 0 0)
(6.78676 -4.20863 0 5.79852 0 0)
(5.74353 -2.79968 0 5.61026 0 0)
(5.76861 -2.43355 0 5.55232 0 0)
(5.33361 -2.08715 0 5.36283 0 0)
(5.01391 -1.96697 0 5.4653 0 0)
(5.12927 -1.77742 0 5.35067 0 0)
(5.30669 -1.69593 0 5.20997 0 0)
(5.33684 -1.58174 0 4.90059 0 0)
(5.11638 -1.29395 0 4.32127 0 0)
(5.05289 -1.02276 0 3.54715 0 0)
(5.52998 -1.15076 0 2.82174 0 0)
(6.5381 -1.79236 0 2.40457 0 0)
(7.69718 -2.74393 0 2.31107 0 0)
(8.81177 -3.82201 0 2.51078 0 0)
(10.165 -4.99983 0 2.96176 0 0)
(11.5221 -6.18801 0 3.60005 0 0)
(12.3239 -7.09991 0 4.24161 0 0)
(12.7023 -7.66082 0 4.72759 0 0)
(12.1686 -7.5621 0 4.82997 0 0)
(11.3165 -6.9986 0 4.53762 0 0)
(10.9783 -6.54875 0 4.21476 0 0)
(11.1198 -6.22691 0 3.88881 0 0)
(11.1855 -5.69084 0 3.393 0 0)
(10.8385 -4.762 0 2.63125 0 0)
(10.0525 -3.53674 0 1.75871 0 0)
(9.02024 -2.2538 0 1.01387 0 0)
(7.87569 -1.05281 0 0.486056 0 0)
(6.59266 -0.0191703 0 0.241809 0 0)
(5.30868 0.732033 0 0.261486 0 0)
(4.12368 1.19216 0 0.43761 0 0)
(2.94812 1.33537 0 0.651368 0 0)
(1.87183 1.16352 0 0.748051 0 0)
(1.09393 0.859029 0 0.691616 0 0)
(0.623686 0.584577 0 0.563009 0 0)
(0.357082 0.378261 0 0.416528 0 0)
(0.211446 0.237793 0 0.284218 0 0)
(0.134243 0.152875 0 0.191014 0 0)
(0.0922351 0.104875 0 0.13619 0 0)
(0.0670392 0.0759598 0 0.102916 0 0)
(0.0502233 0.0557108 0 0.0782024 0 0)
(0.0380897 0.0399471 0 0.057441 0 0)
(0.0296717 0.0278651 0 0.0400786 0 0)
(0.0237629 0.0189532 0 0.0269175 0 0)
(0.0204509 0.0130816 0 0.0172931 0 0)
(0.0179437 0.00898138 0 0.0112814 0 0)
(0.0173575 0.00669966 0 0.0067894 0 0)
(0.0158407 0.00475557 0 0.00484728 0 0)
(0.0169626 0.00392682 0 0.00237799 0 0)
(0.0147616 0.00280332 0 0.0026305 0 0)
(0.0185046 0.00209869 0 0.000495142 0 0)
(0.013755 0.00155342 0 0.00266401 0 0)
(0.0239373 -0.00117946 0 0.000479377 0 0)
(0.0135667 -0.000857528 0 0.00597913 0 0)
(0.0397816 -0.0112655 0 0.00541072 0 0)
(0.0174587 -0.00903958 0 0.0185282 0 0)
(0.0779291 -0.0380027 0 0.0229226 0 0)
(0.0281311 -0.0279079 0 0.048869 0 0)
(0.144026 -0.0852098 0 0.0557289 0 0)
(0.040553 -0.0511627 0 0.0894315 0 0)
(0.221992 -0.137553 0 0.0904924 0 0)
(0.0461918 -0.0652692 0 0.119239 0 0)
(0.285302 -0.177254 0 0.115418 0 0)
(0.043772 -0.0660692 0 0.137057 0 0)
(0.321657 -0.199916 0 0.131476 0 0)
(0.0433457 -0.0565174 0 0.151323 0 0)
(0.348784 -0.210962 0 0.14181 0 0)
(0.0445049 -0.041841 0 0.166145 0 0)
(0.37977 -0.216867 0 0.150066 0 0)
(0.0439944 -0.0244031 0 0.180837 0 0)
(0.415367 -0.218911 0 0.155601 0 0)
(0.0439432 -0.00689337 0 0.187661 0 0)
(0.447892 -0.221573 0 0.150969 0 0)
(0.0407826 0.00699777 0 0.186704 0 0)
(0.47657 -0.221087 0 0.138242 0 0)
(0.0447546 0.0227029 0 0.183293 0 0)
(0.502288 -0.207912 0 0.121095 0 0)
(0.0648468 0.0410339 0 0.174947 0 0)
(0.518739 -0.180643 0 0.0966704 0 0)
(0.0940732 0.0539754 0 0.160574 0 0)
(0.521298 -0.136737 0 0.069837 0 0)
(0.130921 0.0629104 0 0.144328 0 0)
(0.492221 -0.0820584 0 0.0479079 0 0)
(0.158262 0.0601078 0 0.12104 0 0)
(0.422707 -0.0232845 0 0.0332959 0 0)
(0.148832 0.0458688 0 0.0942343 0 0)
(0.290339 0.0137465 0 0.0272788 0 0)
(0.0997558 0.0257945 0 0.0672452 0 0)
(0.125927 0.0204501 0 0.0236925 0 0)
(0.0391243 0.0071831 0 0.046121 0 0)
(0.0363375 0.0167417 0 0.0237593 0 0)
(0.0103266 -0.002051 0 0.0353598 0 0)
(0.0381541 0.0121905 0 0.0318592 0 0)
(0.0590339 -0.00796384 0 0.033532 0 0)
(0.152671 -0.00601878 0 0.0154633 0 0)
(0.100361 -0.0407357 0 0.0384238 0 0)
(0.132499 0.0122363 0 0.0480236 0 0)
(0.131397 -0.0796013 0 0.0864313 0 0)
(0.249299 -0.0868826 0 0.0570214 0 0)
(0.356175 -0.141893 0 0.153542 0 0)
(4.35054 -2.24996 0 2.55549 0 0)
(4.386 -2.73319 0 3.87935 0 0)
(3.60422 -1.78267 0 4.48449 0 0)
(4.04223 -1.25418 0 4.67406 0 0)
(4.33242 -0.953975 0 4.54491 0 0)
(4.64319 -0.890244 0 4.46214 0 0)
(5.04094 -0.941595 0 4.36755 0 0)
(5.32998 -0.977485 0 4.23815 0 0)
(5.50213 -0.915097 0 3.95529 0 0)
(5.71713 -0.742785 0 3.42508 0 0)
(6.44189 -0.806726 0 2.79319 0 0)
(7.6837 -1.38249 0 2.31138 0 0)
(9.07067 -2.30617 0 2.11037 0 0)
(10.4141 -3.39764 0 2.17555 0 0)
(11.7084 -4.59293 0 2.48478 0 0)
(12.9033 -5.81817 0 3.01217 0 0)
(13.5194 -6.85598 0 3.66808 0 0)
(13.5006 -7.51274 0 4.27086 0 0)
(13.0542 -7.73026 0 4.66263 0 0)
(12.0004 -7.32888 0 4.65078 0 0)
(11.4018 -6.8817 0 4.45094 0 0)
(11.4903 -6.72012 0 4.37209 0 0)
(11.6497 -6.41335 0 4.11591 0 0)
(11.2688 -5.59902 0 3.50141 0 0)
(10.3687 -4.37597 0 2.62507 0 0)
(9.22011 -3.01969 0 1.72959 0 0)
(8.029 -1.74515 0 1.02207 0 0)
(6.83644 -0.615026 0 0.545701 0 0)
(5.60723 0.30804 0 0.35589 0 0)
(4.44605 0.943098 0 0.42722 0 0)
(3.43769 1.31516 0 0.642028 0 0)
(2.46579 1.41278 0 0.886028 0 0)
(1.55747 1.21473 0 0.991328 0 0)
(0.890721 0.88018 0 0.901357 0 0)
(0.48995 0.580162 0 0.715803 0 0)
(0.265893 0.359436 0 0.515733 0 0)
(0.147597 0.213956 0 0.34169 0 0)
(0.0884951 0.129536 0 0.221123 0 0)
(0.0585783 0.0842726 0 0.15197 0 0)
(0.0422189 0.0590472 0 0.112227 0 0)
(0.0324307 0.0428881 0 0.0845439 0 0)
(0.0259394 0.0309823 0 0.062089 0 0)
(0.0217306 0.0220856 0 0.0434391 0 0)
(0.0187696 0.0154006 0 0.0291866 0 0)
(0.0172878 0.0110453 0 0.0187044 0 0)
(0.0159475 0.00773919 0 0.0120901 0 0)
(0.0160047 0.0060733 0 0.00721962 0 0)
(0.0149041 0.00425394 0 0.00505943 0 0)
(0.0163466 0.0037822 0 0.00247 0 0)
(0.0142018 0.00246434 0 0.00265882 0 0)
(0.0185461 0.00210211 0 0.000495786 0 0)
(0.013462 0.00106469 0 0.00262414 0 0)
(0.0256585 -0.00145019 0 0.000512542 0 0)
(0.0144044 -0.00216856 0 0.00586205 0 0)
(0.0468804 -0.013375 0 0.00591235 0 0)
(0.0225528 -0.0132389 0 0.0185075 0 0)
(0.0980187 -0.046104 0 0.025736 0 0)
(0.0411805 -0.0384152 0 0.0507276 0 0)
(0.178711 -0.102939 0 0.0646768 0 0)
(0.05737 -0.0664928 0 0.0965707 0 0)
(0.24788 -0.158677 0 0.108594 0 0)
(0.0594639 -0.0767327 0 0.133186 0 0)
(0.277805 -0.189168 0 0.144281 0 0)
(0.0642454 -0.0679108 0 0.158559 0 0)
(0.298359 -0.196377 0 0.170249 0 0)
(0.0815342 -0.0509135 0 0.179969 0 0)
(0.32939 -0.198576 0 0.186951 0 0)
(0.0919288 -0.0362576 0 0.201095 0 0)
(0.361788 -0.20672 0 0.200756 0 0)
(0.0918925 -0.0246819 0 0.223059 0 0)
(0.397248 -0.220886 0 0.213273 0 0)
(0.0900533 -0.0124467 0 0.23631 0 0)
(0.441344 -0.237962 0 0.214654 0 0)
(0.0837021 -0.000524903 0 0.240693 0 0)
(0.496165 -0.256881 0 0.209813 0 0)
(0.0749817 0.0160044 0 0.245754 0 0)
(0.554498 -0.271764 0 0.203472 0 0)
(0.0765434 0.0404768 0 0.244104 0 0)
(0.616456 -0.274475 0 0.183613 0 0)
(0.0933197 0.065504 0 0.231207 0 0)
(0.677044 -0.261513 0 0.153211 0 0)
(0.13878 0.0923769 0 0.216703 0 0)
(0.722995 -0.224031 0 0.117618 0 0)
(0.219734 0.113648 0 0.194152 0 0)
(0.734764 -0.157453 0 0.0803454 0 0)
(0.308412 0.120231 0 0.169411 0 0)
(0.66406 -0.0758309 0 0.056274 0 0)
(0.340547 0.0978666 0 0.136398 0 0)
(0.468914 -0.0102327 0 0.0478728 0 0)
(0.240225 0.0412677 0 0.0978963 0 0)
(0.224167 0.0027605 0 0.0445015 0 0)
(0.0829192 -0.0150829 0 0.0693884 0 0)
(0.107978 -0.000450219 0 0.0473167 0 0)
(0.0472271 -0.0281239 0 0.0767858 0 0)
(0.083102 -0.0359941 0 0.0458891 0 0)
(0.154253 -0.0465054 0 0.0708184 0 0)
(0.242133 -0.0109854 0 0.0493889 0 0)
(0.232668 -0.104535 0 0.0974119 0 0)
(0.335684 -0.0937733 0 0.0714575 0 0)
(0.352167 -0.204422 0 0.227072 0 0)
(1.73623 -0.631059 0 2.14458 0 0)
(3.21366 -0.922035 0 3.21705 0 0)
(3.20163 -0.684108 0 3.61535 0 0)
(3.4699 -0.254705 0 3.79547 0 0)
(3.96917 0.111521 0 3.73784 0 0)
(4.59872 0.238667 0 3.62827 0 0)
(5.20466 0.197332 0 3.54181 0 0)
(5.76461 0.160667 0 3.36231 0 0)
(6.49359 0.097918 0 3.04088 0 0)
(7.6459 -0.132047 0 2.59151 0 0)
(9.10263 -0.705127 0 2.15765 0 0)
(10.5551 -1.63577 0 1.88582 0 0)
(11.8375 -2.72726 0 1.84035 0 0)
(13.0043 -3.90999 0 2.02567 0 0)
(13.9783 -5.13206 0 2.41444 0 0)
(14.5442 -6.26202 0 2.9789 0 0)
(14.3756 -7.07901 0 3.60757 0 0)
(13.7821 -7.51125 0 4.14809 0 0)
(12.8492 -7.48072 0 4.45934 0 0)
(11.833 -7.07427 0 4.49316 0 0)
(11.7654 -6.96185 0 4.55405 0 0)
(11.9372 -6.89107 0 4.62423 0 0)
(11.5473 -6.24774 0 4.23069 0 0)
(10.4761 -5.03631 0 3.43695 0 0)
(9.12816 -3.63042 0 2.51832 0 0)
(7.80419 -2.29934 0 1.69507 0 0)
(6.60013 -1.149 0 1.06933 0 0)
(5.47138 -0.182223 0 0.654809 0 0)
(4.37382 0.574937 0 0.516934 0 0)
(3.39461 1.06557 0 0.628378 0 0)
(2.59303 1.33123 0 0.867924 0 0)
(1.85614 1.37857 0 1.13242 0 0)
(1.16247 1.16809 0 1.24439 0 0)
(0.6446 0.82573 0 1.11746 0 0)
(0.332928 0.519085 0 0.869326 0 0)
(0.168165 0.303404 0 0.612584 0 0)
(0.0898838 0.17196 0 0.398551 0 0)
(0.05318 0.0993758 0 0.253886 0 0)
(0.0346707 0.0609887 0 0.171453 0 0)
(0.024859 0.0403467 0 0.124338 0 0)
(0.0197085 0.0282938 0 0.0922611 0 0)
(0.0169278 0.0202966 0 0.0669406 0 0)
(0.0155608 0.0148641 0 0.0463415 0 0)
(0.0147224 0.0107953 0 0.0307609 0 0)
(0.01457 0.00831858 0 0.019477 0 0)
(0.0141909 0.00606807 0 0.0123708 0 0)
(0.0147257 0.00519093 0 0.00732188 0 0)
(0.0140465 0.00358902 0 0.00499722 0 0)
(0.0157276 0.00355604 0 0.00247325 0 0)
(0.0137077 0.00204335 0 0.00251215 0 0)
(0.0186538 0.00214909 0 0.000511654 0 0)
(0.0133753 0.000508382 0 0.00233668 0 0)
(0.0279693 -0.00142672 0 0.000432657 0 0)
(0.016421 -0.00357296 0 0.0050741 0 0)
(0.0566025 -0.0146589 0 0.00548479 0 0)
(0.0327451 -0.018091 0 0.0167443 0 0)
(0.12508 -0.053146 0 0.0261301 0 0)
(0.0672345 -0.0529894 0 0.0512738 0 0)
(0.224221 -0.122548 0 0.0736975 0 0)
(0.092956 -0.0923017 0 0.111728 0 0)
(0.289801 -0.187358 0 0.139383 0 0)
(0.0971381 -0.100446 0 0.171629 0 0)
(0.311006 -0.210931 0 0.200913 0 0)
(0.114461 -0.0810142 0 0.215371 0 0)
(0.33458 -0.210473 0 0.242481 0 0)
(0.138225 -0.0622008 0 0.245472 0 0)
(0.359278 -0.21867 0 0.264869 0 0)
(0.1464 -0.0564452 0 0.270603 0 0)
(0.392096 -0.242059 0 0.282423 0 0)
(0.146452 -0.0591289 0 0.298385 0 0)
(0.438972 -0.27509 0 0.301158 0 0)
(0.145182 -0.0589173 0 0.318469 0 0)
(0.491992 -0.304884 0 0.307068 0 0)
(0.141394 -0.0580165 0 0.328562 0 0)
(0.56308 -0.337786 0 0.306573 0 0)
(0.134139 -0.053305 0 0.343474 0 0)
(0.643986 -0.37426 0 0.309351 0 0)
(0.128791 -0.038188 0 0.350703 0 0)
(0.742373 -0.406506 0 0.296807 0 0)
(0.115767 -0.0196208 0 0.345283 0 0)
(0.874211 -0.434403 0 0.274775 0 0)
(0.109399 0.010609 0 0.333356 0 0)
(1.03535 -0.447577 0 0.242317 0 0)
(0.12953 0.0454292 0 0.306033 0 0)
(1.23187 -0.42328 0 0.191545 0 0)
(0.199226 0.079563 0 0.269864 0 0)
(1.42179 -0.344707 0 0.136368 0 0)
(0.324529 0.103682 0 0.229788 0 0)
(1.47293 -0.192494 0 0.0914374 0 0)
(0.403952 0.0981569 0 0.188811 0 0)
(1.14164 -0.0411435 0 0.0760118 0 0)
(0.259466 0.0356061 0 0.142821 0 0)
(0.407349 -0.025248 0 0.0746152 0 0)
(0.126454 -0.0268124 0 0.113867 0 0)
(0.168832 0.0129904 0 0.161419 0 0)
(0.118611 -0.0547733 0 0.133102 0 0)
(0.380414 -0.15816 0 0.117388 0 0)
(0.496929 -0.249776 0 0.187893 0 0)
(0.507117 -0.190141 0 0.128785 0 0)
(0.238315 -0.191531 0 0.326071 0 0)
(0.660953 0.236432 0 1.09705 0 0)
(1.60968 0.176028 0 1.8262 0 0)
(2.69298 0.21524 0 2.34262 0 0)
(3.39987 0.483469 0 2.71223 0 0)
(4.13027 0.819755 0 2.88998 0 0)
(5.03687 1.02326 0 2.89575 0 0)
(6.04404 1.09406 0 2.76447 0 0)
(7.22585 1.03855 0 2.49769 0 0)
(8.63582 0.720421 0 2.19547 0 0)
(10.1807 0.110533 0 1.89775 0 0)
(11.6518 -0.749762 0 1.64179 0 0)
(12.9191 -1.81882 0 1.52338 0 0)
(13.9704 -2.96518 0 1.59654 0 0)
(14.7982 -4.17282 0 1.86006 0 0)
(15.2906 -5.35642 0 2.28862 0 0)
(15.2275 -6.35927 0 2.86273 0 0)
(14.4719 -7.01234 0 3.47607 0 0)
(13.4943 -7.29518 0 4.0046 0 0)
(12.4358 -7.17531 0 4.32415 0 0)
(11.883 -6.99888 0 4.52917 0 0)
(12.1037 -7.09495 0 4.79074 0 0)
(11.6813 -6.67904 0 4.74743 0 0)
(10.4404 -5.50965 0 4.09292 0 0)
(8.82536 -4.03814 0 3.22762 0 0)
(7.32416 -2.67317 0 2.4033 0 0)
(6.05184 -1.51986 0 1.70421 0 0)
(4.95526 -0.580053 0 1.16597 0 0)
(3.97408 0.173411 0 0.801635 0 0)
(3.07382 0.737502 0 0.705229 0 0)
(2.30916 1.07412 0 0.849313 0 0)
(1.71405 1.22423 0 1.10566 0 0)
(1.2205 1.21443 0 1.36863 0 0)
(0.767426 1.01691 0 1.47418 0 0)
(0.413785 0.704777 0 1.32277 0 0)
(0.200378 0.420178 0 1.01968 0 0)
(0.0937871 0.224204 0 0.700255 0 0)
(0.0457868 0.109302 0 0.440619 0 0)
(0.0250843 0.0501078 0 0.272059 0 0)
(0.0164738 0.0231197 0 0.178951 0 0)
(0.0130664 0.0118524 0 0.127222 0 0)
(0.0119 0.00749753 0 0.0932506 0 0)
(0.0116448 0.00582107 0 0.0672601 0 0)
(0.0118173 0.00539771 0 0.0465206 0 0)
(0.0121063 0.0049328 0 0.0308982 0 0)
(0.0125706 0.0049204 0 0.0196402 0 0)
(0.012829 0.00408684 0 0.0124429 0 0)
(0.0135767 0.00417007 0 0.00743269 0 0)
(0.0133285 0.00289461 0 0.00495699 0 0)
(0.015076 0.00332903 0 0.00255051 0 0)
(0.0133367 0.00166503 0 0.00235967 0 0)
(0.0185499 0.00226299 0 0.000572134 0 0)
(0.0134237 0.000140975 0 0.00197065 0 0)
(0.0292258 -0.000990337 0 0.000295696 0 0)
(0.0180571 -0.00401636 0 0.00400459 0 0)
(0.0612231 -0.0138836 0 0.00454461 0 0)
(0.0389859 -0.0190002 0 0.0139348 0 0)
(0.133866 -0.0532009 0 0.0248831 0 0)
(0.0792237 -0.0563827 0 0.0485593 0 0)
(0.229119 -0.126048 0 0.0799972 0 0)
(0.103775 -0.09658 0 0.120331 0 0)
(0.279312 -0.188191 0 0.165837 0 0)
(0.110328 -0.0941636 0 0.19866 0 0)
(0.297126 -0.199436 0 0.246532 0 0)
(0.137643 -0.0647378 0 0.253929 0 0)
(0.320389 -0.196547 0 0.296878 0 0)
(0.158543 -0.0471497 0 0.288527 0 0)
(0.338877 -0.211449 0 0.325431 0 0)
(0.162992 -0.0452605 0 0.317488 0 0)
(0.363359 -0.238285 0 0.352728 0 0)
(0.165279 -0.0452857 0 0.353328 0 0)
(0.392721 -0.26361 0 0.388546 0 0)
(0.17136 -0.0406465 0 0.382763 0 0)
(0.429954 -0.288411 0 0.406303 0 0)
(0.173698 -0.0420637 0 0.395321 0 0)
(0.474911 -0.322727 0 0.412541 0 0)
(0.171241 -0.0427464 0 0.416255 0 0)
(0.538097 -0.356811 0 0.427453 0 0)
(0.172381 -0.0358256 0 0.431071 0 0)
(0.621499 -0.401056 0 0.420885 0 0)
(0.165407 -0.0340445 0 0.4304 0 0)
(0.733039 -0.456743 0 0.409439 0 0)
(0.159146 -0.018592 0 0.43292 0 0)
(0.89509 -0.516499 0 0.395268 0 0)
(0.152754 0.0081282 0 0.415105 0 0)
(1.14605 -0.580878 0 0.365173 0 0)
(0.163003 0.0520374 0 0.384153 0 0)
(1.53615 -0.639631 0 0.32726 0 0)
(0.2473 0.107337 0 0.335759 0 0)
(2.12231 -0.642036 0 0.259744 0 0)
(0.477865 0.154932 0 0.28487 0 0)
(2.75209 -0.51667 0 0.187884 0 0)
(0.765807 0.156532 0 0.243138 0 0)
(2.73676 -0.278173 0 0.150951 0 0)
(0.565081 0.0542892 0 0.216962 0 0)
(1.51184 -0.253167 0 0.149713 0 0)
(0.243094 -0.161676 0 0.196128 0 0)
(1.36193 -0.353736 0 0.150508 0 0)
(0.665398 -0.249454 0 0.272719 0 0)
(0.496797 -0.215914 0 0.246265 0 0)
(0.18183 -0.164834 0 0.426091 0 0)
(0.760432 0.637175 0 0.838885 0 0)
(1.54633 1.02239 0 1.61392 0 0)
(3.00201 1.3379 0 2.07496 0 0)
(4.42987 1.48735 0 2.28153 0 0)
(5.56765 1.62732 0 2.36602 0 0)
(6.65063 1.74636 0 2.29519 0 0)
(7.83503 1.73715 0 2.09169 0 0)
(9.16504 1.48813 0 1.82267 0 0)
(10.5255 0.926207 0 1.60711 0 0)
(11.8829 0.150123 0 1.43003 0 0)
(13.1683 -0.812511 0 1.28481 0 0)
(14.2519 -1.91514 0 1.25364 0 0)
(15.0526 -3.07229 0 1.39704 0 0)
(15.4646 -4.26173 0 1.70944 0 0)
(15.4553 -5.37066 0 2.17131 0 0)
(14.8259 -6.23528 0 2.76386 0 0)
(13.8044 -6.7495 0 3.37394 0 0)
(12.8508 -6.94878 0 3.8856 0 0)
(12.1488 -6.92464 0 4.26066 0 0)
(12.0106 -6.97984 0 4.63586 0 0)
(11.7497 -6.84963 0 4.87952 0 0)
(10.2746 -5.78844 0 4.5487 0 0)
(8.42306 -4.2579 0 3.73527 0 0)
(6.68287 -2.81468 0 2.98957 0 0)
(5.31294 -1.66927 0 2.34831 0 0)
(4.23715 -0.783124 0 1.78504 0 0)
(3.32599 -0.0940326 0 1.32057 0 0)
(2.54506 0.422883 0 0.988758 0 0)
(1.87258 0.778762 0 0.912726 0 0)
(1.33656 0.95845 0 1.06741 0 0)
(0.926304 0.999841 0 1.33153 0 0)
(0.610749 0.926997 0 1.60289 0 0)
(0.364365 0.739083 0 1.70469 0 0)
(0.18905 0.487416 0 1.52119 0 0)
(0.0888694 0.26737 0 1.16179 0 0)
(0.0420179 0.121197 0 0.788847 0 0)
(0.0237378 0.0420946 0 0.493084 0 0)
(0.0173667 0.00647011 0 0.30168 0 0)
(0.0148165 -0.00761731 0 0.194321 0 0)
(0.0135528 -0.0115607 0 0.134187 0 0)
(0.012801 -0.0103048 0 0.0954507 0 0)
(0.0122455 -0.00697449 0 0.0669065 0 0)
(0.0117897 -0.00313552 0 0.045074 0 0)
(0.0116777 -0.000437891 0 0.0291744 0 0)
(0.0117717 0.00169649 0 0.0181789 0 0)
(0.0121066 0.00212415 0 0.0112509 0 0)
(0.0127289 0.00303096 0 0.00671552 0 0)
(0.0127786 0.00210938 0 0.00433122 0 0)
(0.014476 0.00296084 0 0.00235781 0 0)
(0.0130456 0.00123679 0 0.00195086 0 0)
(0.0185609 0.0023437 0 0.000614431 0 0)
(0.0137213 -0.000198395 0 0.00144984 0 0)
(0.0311976 -0.000328743 0 0.000176766 0 0)
(0.0208793 -0.00429728 0 0.00279263 0 0)
(0.0682869 -0.0124303 0 0.0033433 0 0)
(0.0491431 -0.0198935 0 0.0110083 0 0)
(0.148468 -0.0526143 0 0.0227314 0 0)
(0.100306 -0.0622086 0 0.0468737 0 0)
(0.247108 -0.132048 0 0.0874203 0 0)
(0.13107 -0.110981 0 0.138655 0 0)
(0.294425 -0.198033 0 0.202352 0 0)
(0.142655 -0.105089 0 0.250694 0 0)
(0.316763 -0.202245 0 0.308465 0 0)
(0.178098 -0.0701184 0 0.324209 0 0)
(0.346494 -0.198023 0 0.369114 0 0)
(0.199473 -0.057848 0 0.3642 0 0)
(0.369176 -0.21665 0 0.407226 0 0)
(0.205428 -0.0629198 0 0.401233 0 0)
(0.394645 -0.245 0 0.451632 0 0)
(0.212845 -0.0630937 0 0.4516 0 0)
(0.423416 -0.26699 0 0.507383 0 0)
(0.22394 -0.0598006 0 0.492925 0 0)
(0.459076 -0.294957 0 0.537941 0 0)
(0.228954 -0.0675673 0 0.514393 0 0)
(0.503786 -0.334413 0 0.55759 0 0)
(0.23229 -0.0746095 0 0.547542 0 0)
(0.555324 -0.376191 0 0.587079 0 0)
(0.239604 -0.0788081 0 0.567257 0 0)
(0.625725 -0.424757 0 0.584226 0 0)
(0.240078 -0.0952282 0 0.569163 0 0)
(0.722899 -0.487274 0 0.576156 0 0)
(0.243917 -0.105343 0 0.576337 0 0)
(0.854395 -0.557026 0 0.557664 0 0)
(0.246512 -0.121282 0 0.566977 0 0)
(1.06081 -0.646473 0 0.522287 0 0)
(0.254852 -0.131991 0 0.5518 0 0)
(1.40066 -0.760733 0 0.486874 0 0)
(0.263178 -0.137139 0 0.511121 0 0)
(2.03635 -0.910378 0 0.443083 0 0)
(0.299135 -0.121518 0 0.440299 0 0)
(3.25273 -1.06046 0 0.384622 0 0)
(0.488812 -0.0882582 0 0.362167 0 0)
(5.24488 -1.05192 0 0.303411 0 0)
(1.02597 -0.0890938 0 0.306249 0 0)
(6.67609 -0.764298 0 0.268383 0 0)
(1.06233 -0.140664 0 0.301303 0 0)
(4.51285 -0.473507 0 0.328297 0 0)
(0.229833 -0.179982 0 0.397369 0 0)
(1.19603 -0.0909654 0 0.28449 0 0)