/*--------------------------------*- C++ -*----------------------------------*\
| =========                 |                                                 |
| \\      /  F ield         | OpenFOAM: The Open Source CFD Toolbox           |
|  \\    /   O peration     | Version:  2.4.0                                 |
|   \\  /    A nd           | Web:      www.OpenFOAM.org                      |
|    \\/     M anipulation  |                                                 |
\*---------------------------------------------------------------------------*/
FoamFile
{
    version     2.0;
    format      ascii;
    class       volSymmTensorField;
    location    "0.078";
    object      UPrime2Mean;
}
// * * * * * * * * * * * * * * * * * * * * * * * * * * * * * * * * * * * * * //

dimensions      [0 2 -2 0 0 0 0];

internalField   nonuniform List<symmTensor> 
17600
(
(0.0499101 -0.00540862 0 0.000817875 0 0)
(0.513803 -0.00210611 0 4.75866e-05 0 0)
(0.666401 -3.36388e-05 0 3.30731e-06 0 0)
(0.73865 -0.000542144 0 2.06117e-06 0 0)
(0.789078 -0.000407778 0 9.90745e-07 0 0)
(0.825849 -0.000169853 0 5.76082e-07 0 0)
(0.850178 -3.82967e-05 0 3.76265e-07 0 0)
(0.870362 3.31454e-06 0 2.32271e-07 0 0)
(0.881973 2.4934e-05 0 2.35623e-07 0 0)
(0.894881 -2.41978e-06 0 2.05104e-07 0 0)
(0.900829 -2.8576e-06 0 1.60253e-07 0 0)
(0.91331 -6.88533e-05 0 2.46791e-07 0 0)
(0.919053 -6.09563e-05 0 2.58866e-07 0 0)
(0.934918 -0.000161596 0 5.08163e-07 0 0)
(0.945096 -0.000207464 0 6.6396e-07 0 0)
(0.974158 -0.00051649 0 2.8985e-06 0 0)
(1.00269 -0.000885384 0 3.03597e-06 0 0)
(1.12093 0.000623204 0 2.73833e-05 0 0)
(1.30776 -0.0374636 0 0.00156881 0 0)
(2.40144 0.189686 0 0.0236084 0 0)
(0.0242779 0.0108443 0 0.00850589 0 0)
(0.208595 -0.0199568 0 0.00201795 0 0)
(0.420064 -0.0112036 0 0.000303985 0 0)
(0.562224 -0.00788089 0 0.000121182 0 0)
(0.683578 -0.00639656 0 9.38663e-05 0 0)
(0.800423 -0.00522043 0 8.46209e-05 0 0)
(0.891697 -0.00401474 0 6.51819e-05 0 0)
(0.975723 -0.00301813 0 4.05362e-05 0 0)
(1.02682 -0.00224337 0 2.14094e-05 0 0)
(1.08608 -0.0018932 0 1.26114e-05 0 0)
(1.11129 -0.00168627 0 6.34691e-06 0 0)
(1.16735 -0.00184825 0 6.30315e-06 0 0)
(1.18457 -0.00196853 0 9.52232e-06 0 0)
(1.25075 -0.0020986 0 9.31059e-06 0 0)
(1.26999 -0.00336603 0 1.9854e-05 0 0)
(1.37738 -0.00284541 0 1.94514e-05 0 0)
(1.3837 -0.00955396 0 0.000103319 0 0)
(1.82586 -0.0127576 0 0.00015425 0 0)
(1.60255 -0.044209 0 0.00178765 0 0)
(5.0277 -0.577516 0 0.0966053 0 0)
(0.0853764 0.0323794 0 0.0133906 0 0)
(0.0343409 -0.01267 0 0.00574423 0 0)
(0.145888 -0.01411 0 0.00148392 0 0)
(0.251298 -0.0133712 0 0.000725732 0 0)
(0.366016 -0.0130969 0 0.00054814 0 0)
(0.503842 -0.0123542 0 0.000485308 0 0)
(0.625495 -0.0105714 0 0.000393117 0 0)
(0.750289 -0.00858064 0 0.000259408 0 0)
(0.829263 -0.00673479 0 0.000151195 0 0)
(0.927365 -0.00573123 0 8.67117e-05 0 0)
(0.966705 -0.00503995 0 4.37112e-05 0 0)
(1.06287 -0.00545375 0 4.68941e-05 0 0)
(1.08464 -0.00538565 0 4.70911e-05 0 0)
(1.19732 -0.00638043 0 6.72382e-05 0 0)
(1.21648 -0.00808608 0 8.51454e-05 0 0)
(1.37936 -0.00892862 0 0.000104357 0 0)
(1.39158 -0.0217556 0 0.00040394 0 0)
(1.85258 -0.0249481 0 0.000758933 0 0)
(1.85234 -0.111357 0 0.00982644 0 0)
(4.17731 -0.72163 0 0.210763 0 0)
(0.113009 0.0358785 0 0.0120758 0 0)
(0.00274879 0.00239239 0 0.00894542 0 0)
(0.0191839 -0.00524096 0 0.00325061 0 0)
(0.0453769 -0.00836581 0 0.00192172 0 0)
(0.087864 -0.0113923 0 0.00155028 0 0)
(0.168504 -0.013801 0 0.00138489 0 0)
(0.256404 -0.0137295 0 0.00117485 0 0)
(0.36748 -0.0124829 0 0.000810092 0 0)
(0.44091 -0.0103314 0 0.000510605 0 0)
(0.544713 -0.00913504 0 0.000290293 0 0)
(0.582573 -0.00836271 0 0.000167876 0 0)
(0.692366 -0.00823032 0 0.000137748 0 0)
(0.709683 -0.00948015 0 0.000171253 0 0)
(0.839028 -0.00788636 0 0.000176463 0 0)
(0.854891 -0.0152031 0 0.000371356 0 0)
(1.01369 -0.00613196 0 0.00027052 0 0)
(1.07429 -0.0394522 0 0.00189588 0 0)
(1.29257 -0.0132074 0 0.00103495 0 0)
(1.75679 -0.196525 0 0.0343435 0 0)
(2.19411 -0.302533 0 0.130059 0 0)
(0.105385 0.028977 0 0.00845845 0 0)
(0.0100085 0.00914473 0 0.00932562 0 0)
(0.0135747 0.00490852 0 0.00403874 0 0)
(0.0143735 0.00310114 0 0.00293904 0 0)
(0.00858327 0.000155096 0 0.00277813 0 0)
(0.0145705 -0.00490209 0 0.00263548 0 0)
(0.0360347 -0.00776102 0 0.00235173 0 0)
(0.085258 -0.00977865 0 0.00172238 0 0)
(0.122095 -0.00886968 0 0.00113476 0 0)
(0.190113 -0.00911961 0 0.000688998 0 0)
(0.211632 -0.00800372 0 0.000372655 0 0)
(0.293606 -0.00955217 0 0.000394906 0 0)
(0.307962 -0.0086128 0 0.000284684 0 0)
(0.39799 -0.0119697 0 0.000518301 0 0)
(0.43486 -0.00976025 0 0.000417116 0 0)
(0.514284 -0.0197208 0 0.000965392 0 0)
(0.613898 -0.0125901 0 0.00112699 0 0)
(0.716763 -0.0624236 0 0.00958453 0 0)
(0.971902 -0.0688223 0 0.0151433 0 0)
(1.36307 -0.427142 0 0.368627 0 0)
(0.0982776 0.0236153 0 0.00604616 0 0)
(0.00882901 0.00803227 0 0.00830033 0 0)
(0.0204886 0.00712912 0 0.00345918 0 0)
(0.0370931 0.00880703 0 0.00280068 0 0)
(0.0457235 0.0106048 0 0.00326082 0 0)
(0.0323894 0.00772958 0 0.00353046 0 0)
(0.0241605 0.00498886 0 0.00344079 0 0)
(0.0152487 -3.54952e-05 0 0.00266987 0 0)
(0.0166388 -0.00112209 0 0.00198083 0 0)
(0.0296684 -0.00357997 0 0.00119163 0 0)
(0.0306151 -0.00347024 0 0.000768893 0 0)
(0.062251 -0.00491026 0 0.000646663 0 0)
(0.0623603 -0.00609718 0 0.000737431 0 0)
(0.106573 -0.00594302 0 0.000736721 0 0)
(0.120272 -0.0106158 0 0.00148024 0 0)
(0.166409 -0.00656184 0 0.00107001 0 0)
(0.202338 -0.0237723 0 0.00550837 0 0)
(0.276773 -0.0135935 0 0.00331558 0 0)
(0.369049 -0.0996323 0 0.0560741 0 0)
(0.612536 -0.191199 0 0.181737 0 0)
(0.0978528 0.0203621 0 0.0045126 0 0)
(0.0060897 0.00589865 0 0.00736527 0 0)
(0.0177796 0.00585021 0 0.00276661 0 0)
(0.0386657 0.00786281 0 0.00203726 0 0)
(0.0654732 0.0123573 0 0.00275827 0 0)
(0.0670781 0.0129572 0 0.00341884 0 0)
(0.0784437 0.0136347 0 0.00372844 0 0)
(0.0609075 0.00920217 0 0.00319401 0 0)
(0.0655022 0.0080093 0 0.00237702 0 0)
(0.0464814 0.00424142 0 0.0017173 0 0)
(0.0494458 0.00442563 0 0.000967232 0 0)
(0.034253 0.00196332 0 0.0011785 0 0)
(0.0362792 0.00197909 0 0.000702948 0 0)
(0.0267903 2.14722e-05 0 0.00144596 0 0)
(0.0331294 -0.000237945 0 0.00109951 0 0)
(0.028828 -0.00201342 0 0.00267774 0 0)
(0.0364652 -0.00274871 0 0.00260881 0 0)
(0.0476143 -0.00899755 0 0.0157874 0 0)
(0.0780045 -0.0251888 0 0.0262323 0 0)
(0.176078 -0.0823064 0 0.251026 0 0)
(0.100272 0.0177405 0 0.00335522 0 0)
(0.00460426 0.00427733 0 0.00646524 0 0)
(0.0146125 0.00469551 0 0.00242892 0 0)
(0.0330693 0.00603147 0 0.00148732 0 0)
(0.0608736 0.0103579 0 0.00209238 0 0)
(0.0665031 0.0119374 0 0.00283802 0 0)
(0.0907709 0.0143536 0 0.00329773 0 0)
(0.0846171 0.0116361 0 0.00283388 0 0)
(0.107618 0.0113815 0 0.00250331 0 0)
(0.0975948 0.00836287 0 0.00172215 0 0)
(0.116292 0.0096144 0 0.00119437 0 0)
(0.103064 0.00743587 0 0.00116012 0 0)
(0.112839 0.00893927 0 0.00127128 0 0)
(0.0950578 0.00673893 0 0.00137737 0 0)
(0.0976107 0.00871913 0 0.00223194 0 0)
(0.0757108 0.00587719 0 0.0021346 0 0)
(0.0677786 0.0111712 0 0.00530062 0 0)
(0.0442445 0.0118193 0 0.00894225 0 0)
(0.0361396 0.0140076 0 0.0438804 0 0)
(0.0608339 0.0297933 0 0.269139 0 0)
(0.10251 0.0153858 0 0.00247322 0 0)
(0.0039115 0.0031737 0 0.00538437 0 0)
(0.0120218 0.00375654 0 0.0022249 0 0)
(0.028504 0.00472229 0 0.00108285 0 0)
(0.0525895 0.0083229 0 0.00154963 0 0)
(0.058822 0.0100412 0 0.00223003 0 0)
(0.0797296 0.0122895 0 0.00277619 0 0)
(0.0798116 0.0104234 0 0.0026375 0 0)
(0.103935 0.0103494 0 0.00188235 0 0)
(0.104877 0.00879598 0 0.00160075 0 0)
(0.131637 0.00907242 0 0.000903171 0 0)
(0.131138 0.00997014 0 0.00134782 0 0)
(0.155061 0.00918791 0 0.000891863 0 0)
(0.148517 0.0125958 0 0.00170962 0 0)
(0.165577 0.0104703 0 0.0017247 0 0)
(0.148947 0.0163461 0 0.00300197 0 0)
(0.151015 0.0178694 0 0.0040832 0 0)
(0.122671 0.0295244 0 0.0138654 0 0)
(0.110707 0.0492983 0 0.0450168 0 0)
(0.114639 0.0864548 0 0.196858 0 0)
(0.102523 0.0131029 0 0.00180837 0 0)
(0.00283702 0.0024625 0 0.00439816 0 0)
(0.00933717 0.00289617 0 0.00206705 0 0)
(0.0250108 0.00378322 0 0.000802524 0 0)
(0.0453614 0.00651201 0 0.00113852 0 0)
(0.0535129 0.00858588 0 0.00178645 0 0)
(0.0677927 0.0102465 0 0.00224948 0 0)
(0.0727531 0.00929416 0 0.00197715 0 0)
(0.0888173 0.00855508 0 0.00175353 0 0)
(0.0982777 0.0073656 0 0.00140081 0 0)
(0.115783 0.00793906 0 0.000846555 0 0)
(0.129203 0.00846112 0 0.0010562 0 0)
(0.144324 0.00872421 0 0.000986529 0 0)
(0.156695 0.0110853 0 0.00145773 0 0)
(0.167313 0.0112654 0 0.00185349 0 0)
(0.174721 0.0165075 0 0.00291231 0 0)
(0.172385 0.0198815 0 0.0045785 0 0)
(0.170502 0.0408101 0 0.0164312 0 0)
(0.155974 0.0556754 0 0.041687 0 0)
(0.18167 0.134238 0 0.229312 0 0)
(0.101581 0.0110091 0 0.00129466 0 0)
(0.00232159 0.00197529 0 0.0035158 0 0)
(0.00742007 0.00216499 0 0.00194993 0 0)
(0.0224196 0.00307801 0 0.000598217 0 0)
(0.0394518 0.00509715 0 0.000838083 0 0)
(0.0492757 0.00733093 0 0.00141665 0 0)
(0.0589047 0.00856208 0 0.00188377 0 0)
(0.0665617 0.00812072 0 0.00192101 0 0)
(0.0774668 0.00669024 0 0.00128914 0 0)
(0.0901076 0.00663105 0 0.00115773 0 0)
(0.102406 0.0058668 0 0.000646965 0 0)
(0.118887 0.00787234 0 0.00105692 0 0)
(0.129475 0.00662189 0 0.000784882 0 0)
(0.145355 0.0105481 0 0.00127273 0 0)
(0.153217 0.00968283 0 0.00159519 0 0)
(0.165389 0.0153821 0 0.00247459 0 0)
(0.164002 0.021061 0 0.00469671 0 0)
(0.16846 0.0370931 0 0.0138596 0 0)
(0.161433 0.0634369 0 0.046748 0 0)
(0.194184 0.138174 0 0.191319 0 0)
(0.101247 0.00916326 0 0.000920793 0 0)
(0.00199283 0.00143027 0 0.0027544 0 0)
(0.00631331 0.00151673 0 0.00180621 0 0)
(0.0201941 0.00238168 0 0.000417515 0 0)
(0.0354048 0.00393452 0 0.000601389 0 0)
(0.0452136 0.00606007 0 0.00111347 0 0)
(0.053116 0.00717926 0 0.00150075 0 0)
(0.0604241 0.00684612 0 0.00140535 0 0)
(0.0699881 0.00569802 0 0.0011128 0 0)
(0.0821879 0.005255 0 0.00106311 0 0)
(0.0933599 0.00504317 0 0.000565609 0 0)
(0.10844 0.00641137 0 0.000825964 0 0)
(0.119181 0.00570109 0 0.000699226 0 0)
(0.133177 0.00921437 0 0.00114861 0 0)
(0.141458 0.00835026 0 0.00136854 0 0)
(0.151775 0.0159458 0 0.00280135 0 0)
(0.153652 0.0187409 0 0.00429713 0 0)
(0.158687 0.0404811 0 0.016078 0 0)
(0.159301 0.0632619 0 0.0448393 0 0)
(0.194503 0.137452 0 0.178139 0 0)
(0.101468 0.007626 0 0.000647377 0 0)
(0.00180755 0.00103162 0 0.00209697 0 0)
(0.00572731 0.00109766 0 0.00162966 0 0)
(0.0181311 0.00191681 0 0.000311067 0 0)
(0.032328 0.0031396 0 0.000423007 0 0)
(0.0416389 0.00502847 0 0.000823226 0 0)
(0.0483694 0.00607859 0 0.00118513 0 0)
(0.0551331 0.00586984 0 0.0012357 0 0)
(0.0637282 0.0046673 0 0.00081574 0 0)
(0.0753651 0.00455937 0 0.000755754 0 0)
(0.0855513 0.00409566 0 0.000404232 0 0)
(0.100183 0.00571753 0 0.000684823 0 0)
(0.109842 0.00498381 0 0.000554856 0 0)
(0.123773 0.00790035 0 0.00082845 0 0)
(0.130181 0.00806502 0 0.00117047 0 0)
(0.142359 0.0134943 0 0.00215681 0 0)
(0.143759 0.019488 0 0.00429236 0 0)
(0.152884 0.0388658 0 0.0153281 0 0)
(0.155968 0.0636594 0 0.0433789 0 0)
(0.200772 0.140047 0 0.166135 0 0)
(0.101491 0.00625695 0 0.000442176 0 0)
(0.00169429 0.000775167 0 0.00154221 0 0)
(0.00522136 0.000713423 0 0.00130255 0 0)
(0.0163418 0.00153953 0 0.000219365 0 0)
(0.0296355 0.00248335 0 0.000284843 0 0)
(0.0387359 0.00418355 0 0.000594812 0 0)
(0.0441244 0.00507066 0 0.000878259 0 0)
(0.0508677 0.00497648 0 0.000863718 0 0)
(0.0581866 0.00395523 0 0.000592255 0 0)
(0.0697141 0.00378096 0 0.000646251 0 0)
(0.0788973 0.00345701 0 0.000312983 0 0)
(0.093389 0.00490241 0 0.000502205 0 0)
(0.102078 0.00416634 0 0.000427479 0 0)
(0.115716 0.00724486 0 0.00073616 0 0)
(0.121576 0.00705433 0 0.00096413 0 0)
(0.134618 0.0133347 0 0.00219734 0 0)
(0.136132 0.0187332 0 0.00410716 0 0)
(0.148566 0.0378803 0 0.0151026 0 0)
(0.154835 0.0648119 0 0.0425544 0 0)
(0.204594 0.138954 0 0.152386 0 0)
(0.101537 0.00503036 0 0.000297374 0 0)
(0.00161372 0.000564456 0 0.00111206 0 0)
(0.00490318 0.000437272 0 0.000975023 0 0)
(0.0149432 0.0012263 0 0.000187887 0 0)
(0.0276412 0.00190562 0 0.000220022 0 0)
(0.0361309 0.00334398 0 0.000431299 0 0)
(0.0410973 0.00414175 0 0.00065786 0 0)
(0.0470659 0.00405501 0 0.000694651 0 0)
(0.054321 0.00315023 0 0.000447657 0 0)
(0.0647208 0.00301874 0 0.000461223 0 0)
(0.0743628 0.00275086 0 0.000245988 0 0)
(0.0874373 0.00401823 0 0.000412622 0 0)
(0.0965086 0.00349785 0 0.000380036 0 0)
(0.108861 0.0059723 0 0.000566758 0 0)
(0.116 0.00641345 0 0.000846202 0 0)
(0.127826 0.0121497 0 0.00198405 0 0)
(0.131857 0.0178835 0 0.00408107 0 0)
(0.145383 0.0371264 0 0.01489 0 0)
(0.156502 0.0648961 0 0.0412105 0 0)
(0.209016 0.136794 0 0.138921 0 0)
(0.101889 0.0039387 0 0.000191323 0 0)
(0.00149711 0.000350877 0 0.000744764 0 0)
(0.00472572 0.000226001 0 0.000657232 0 0)
(0.0138327 0.000923712 0 0.000135854 0 0)
(0.0262498 0.00140129 0 0.000155074 0 0)
(0.0338707 0.00252883 0 0.000300386 0 0)
(0.0390632 0.003246 0 0.000460198 0 0)
(0.0439602 0.00312634 0 0.000468936 0 0)
(0.0514989 0.00244093 0 0.000305515 0 0)
(0.0606578 0.0022589 0 0.000373302 0 0)
(0.0711102 0.00202035 0 0.000212624 0 0)
(0.0823194 0.00319446 0 0.000320569 0 0)
(0.0925124 0.00274148 0 0.000304835 0 0)
(0.103264 0.00505055 0 0.000481615 0 0)
(0.111978 0.00554392 0 0.000733345 0 0)
(0.122085 0.0111865 0 0.00183843 0 0)
(0.129793 0.0169307 0 0.00396943 0 0)
(0.143015 0.0365267 0 0.0143995 0 0)
(0.160367 0.064147 0 0.0392869 0 0)
(0.21485 0.135555 0 0.12631 0 0)
(0.102207 0.00295744 0 0.000119721 0 0)
(0.00151475 0.00020318 0 0.00046874 0 0)
(0.0047269 9.50774e-05 0 0.000421878 0 0)
(0.0131098 0.000688348 0 0.000109885 0 0)
(0.0251115 0.00101131 0 0.000122325 0 0)
(0.0324725 0.00183909 0 0.00021088 0 0)
(0.0374377 0.00241771 0 0.000315023 0 0)
(0.041927 0.00233428 0 0.000336587 0 0)
(0.0491076 0.00175967 0 0.000228311 0 0)
(0.0580923 0.00162282 0 0.000275795 0 0)
(0.0682375 0.00145 0 0.000176543 0 0)
(0.0789215 0.00246137 0 0.000258746 0 0)
(0.0892252 0.00207834 0 0.000271591 0 0)
(0.0996621 0.00414277 0 0.000415287 0 0)
(0.108335 0.00477177 0 0.000639167 0 0)
(0.118892 0.0103152 0 0.00172078 0 0)
(0.128132 0.0162197 0 0.0038067 0 0)
(0.142862 0.0357125 0 0.013778 0 0)
(0.164604 0.0632824 0 0.037143 0 0)
(0.221728 0.133277 0 0.114712 0 0)
(0.102111 0.00207379 0 6.67578e-05 0 0)
(0.00150339 0.000138937 0 0.000249818 0 0)
(0.00469126 3.10895e-05 0 0.000228726 0 0)
(0.0125883 0.000493746 0 6.85504e-05 0 0)
(0.0240798 0.000718743 0 7.72773e-05 0 0)
(0.0316576 0.00127535 0 0.000122063 0 0)
(0.036013 0.00170081 0 0.000185797 0 0)
(0.0405308 0.0016493 0 0.000195884 0 0)
(0.0471777 0.00124145 0 0.000134157 0 0)
(0.0564079 0.00114172 0 0.000178803 0 0)
(0.0657771 0.00102687 0 0.000127783 0 0)
(0.0769006 0.00186206 0 0.000175157 0 0)
(0.0864805 0.00164458 0 0.000195243 0 0)
(0.0973674 0.00332536 0 0.000320883 0 0)
(0.105443 0.0043075 0 0.000534807 0 0)
(0.11749 0.00939951 0 0.00155165 0 0)
(0.126756 0.0159045 0 0.00358642 0 0)
(0.144574 0.0344715 0 0.013023 0 0)
(0.169098 0.0628414 0 0.0347937 0 0)
(0.230794 0.129454 0 0.102891 0 0)
(0.102009 0.00124523 0 3.71578e-05 0 0)
(0.00150171 7.96164e-05 0 0.00011728 0 0)
(0.00463319 5.94498e-06 0 0.000110058 0 0)
(0.0122096 0.000295453 0 5.11516e-05 0 0)
(0.0234289 0.000435346 0 6.34691e-05 0 0)
(0.0309829 0.000746229 0 7.58101e-05 0 0)
(0.0349949 0.00103623 0 0.000104808 0 0)
(0.0394929 0.00100034 0 0.000112103 0 0)
(0.0460192 0.000745596 0 8.57484e-05 0 0)
(0.055014 0.000693144 0 0.000114485 0 0)
(0.06434 0.000614157 0 9.36027e-05 0 0)
(0.0753591 0.00130937 0 0.000120009 0 0)
(0.0847737 0.00112884 0 0.000150475 0 0)
(0.095667 0.0026517 0 0.000250759 0 0)
(0.104119 0.00370155 0 0.000442762 0 0)
(0.116586 0.00868636 0 0.00138487 0 0)
(0.126987 0.0152661 0 0.0033569 0 0)
(0.147208 0.0333577 0 0.0121888 0 0)
(0.175243 0.061779 0 0.0322489 0 0)
(0.240711 0.125463 0 0.0923713 0 0)
(0.102138 0.000442139 0 2.21589e-05 0 0)
(0.00145711 -8.13217e-07 0 5.20568e-05 0 0)
(0.00461229 -2.47166e-05 0 4.57022e-05 0 0)
(0.0119792 6.77374e-05 0 3.98511e-05 0 0)
(0.0232052 0.00014396 0 5.49107e-05 0 0)
(0.0304606 0.000190124 0 5.62154e-05 0 0)
(0.0345909 0.000356382 0 6.26073e-05 0 0)
(0.038842 0.000318383 0 6.65784e-05 0 0)
(0.0455187 0.000229153 0 6.50964e-05 0 0)
(0.0540378 0.000211898 0 7.69513e-05 0 0)
(0.0638477 0.000144382 0 8.1657e-05 0 0)
(0.0742011 0.000704834 0 9.31671e-05 0 0)
(0.0842003 0.000559254 0 0.000123865 0 0)
(0.0945794 0.00196996 0 0.000206003 0 0)
(0.104142 0.00293628 0 0.00039773 0 0)
(0.11616 0.00800775 0 0.00123315 0 0)
(0.128983 0.0142256 0 0.0031819 0 0)
(0.15047 0.0323288 0 0.0112622 0 0)
(0.183095 0.0598938 0 0.0297872 0 0)
(0.250357 0.121023 0 0.0822631 0 0)
(0.102174 -0.000346237 0 2.24051e-05 0 0)
(0.00148114 -6.42692e-05 0 5.94555e-05 0 0)
(0.0046338 -3.7524e-05 0 4.32626e-05 0 0)
(0.0119985 -0.000147058 0 4.72247e-05 0 0)
(0.0232342 -0.000130859 0 6.21771e-05 0 0)
(0.0304266 -0.000360414 0 6.70591e-05 0 0)
(0.0346731 -0.000353301 0 6.96215e-05 0 0)
(0.0388408 -0.000381677 0 7.65177e-05 0 0)
(0.0454784 -0.000322258 0 8.80884e-05 0 0)
(0.0540086 -0.000306502 0 7.91613e-05 0 0)
(0.0639432 -0.000355051 0 9.49228e-05 0 0)
(0.0741264 7.45646e-05 0 9.3915e-05 0 0)
(0.0844248 -1.47673e-05 0 0.000120219 0 0)
(0.0947623 0.00118865 0 0.000194467 0 0)
(0.104901 0.00223163 0 0.000380028 0 0)
(0.117255 0.00705865 0 0.00113814 0 0)
(0.131966 0.0133114 0 0.00298537 0 0)
(0.155129 0.0308305 0 0.0103378 0 0)
(0.191744 0.0579775 0 0.0271882 0 0)
(0.261175 0.116107 0 0.072815 0 0)
(0.102005 -0.00113816 0 3.5547e-05 0 0)
(0.0014332 -0.000107952 0 0.000131015 0 0)
(0.00460872 -3.66269e-05 0 9.491e-05 0 0)
(0.0121735 -0.000343243 0 6.3126e-05 0 0)
(0.0233936 -0.000381947 0 7.02117e-05 0 0)
(0.030863 -0.00089082 0 9.11734e-05 0 0)
(0.0349713 -0.00102316 0 0.000104511 0 0)
(0.0393814 -0.00106992 0 0.000120262 0 0)
(0.0458562 -0.000831875 0 0.000127142 0 0)
(0.0547882 -0.000821053 0 9.69834e-05 0 0)
(0.0644728 -0.000776206 0 0.000103868 0 0)
(0.0751287 -0.000563401 0 0.000103297 0 0)
(0.0851426 -0.000512102 0 0.000114278 0 0)
(0.09619 0.00035937 0 0.000200516 0 0)
(0.1062 0.00163175 0 0.000354671 0 0)
(0.119952 0.00598594 0 0.00106572 0 0)
(0.135477 0.0124888 0 0.00271118 0 0)
(0.161417 0.0290733 0 0.00949062 0 0)
(0.200644 0.0557485 0 0.0242808 0 0)
(0.273964 0.111376 0 0.0648227 0 0)
(0.101922 -0.00197096 0 6.54846e-05 0 0)
(0.00139577 -0.000172943 0 0.000274816 0 0)
(0.00456319 -5.69887e-05 0 0.000205472 0 0)
(0.0124934 -0.00054123 0 8.95527e-05 0 0)
(0.0238999 -0.000658017 0 8.75326e-05 0 0)
(0.0315073 -0.00143273 0 0.000138283 0 0)
(0.0357182 -0.00169473 0 0.000174412 0 0)
(0.040312 -0.00174658 0 0.000201514 0 0)
(0.0469659 -0.00135417 0 0.000188928 0 0)
(0.0560635 -0.00131098 0 0.000133961 0 0)
(0.0658748 -0.00122322 0 0.000121622 0 0)
(0.0767372 -0.00116334 0 0.000123839 0 0)
(0.0869494 -0.00107151 0 0.000122358 0 0)
(0.0983326 -0.000400385 0 0.000209202 0 0)
(0.10889 0.000916504 0 0.000365541 0 0)
(0.123568 0.0049759 0 0.000981254 0 0)
(0.14041 0.0114429 0 0.00251357 0 0)
(0.168696 0.027219 0 0.00854964 0 0)
(0.211155 0.0530147 0 0.0216846 0 0)
(0.288142 0.105944 0 0.0570929 0 0)
(0.101871 -0.00287112 0 0.000115266 0 0)
(0.00138824 -0.00027798 0 0.000495489 0 0)
(0.00458224 -0.000135815 0 0.000380131 0 0)
(0.0129877 -0.000762295 0 0.000125118 0 0)
(0.0248144 -0.00099917 0 0.000118961 0 0)
(0.03245 -0.0020369 0 0.000216646 0 0)
(0.0370701 -0.0024345 0 0.000288182 0 0)
(0.0417116 -0.00246648 0 0.000325336 0 0)
(0.0488413 -0.00193704 0 0.00027843 0 0)
(0.0578938 -0.00183399 0 0.00019423 0 0)
(0.0682026 -0.00173277 0 0.000153516 0 0)
(0.0790223 -0.00179321 0 0.000162812 0 0)
(0.0899671 -0.00170792 0 0.000146102 0 0)
(0.101253 -0.00118114 0 0.000234653 0 0)
(0.113101 8.72932e-05 0 0.000403429 0 0)
(0.128 0.00393058 0 0.000916362 0 0)
(0.147 0.0101898 0 0.00236455 0 0)
(0.176907 0.0251551 0 0.00754195 0 0)
(0.223741 0.0498829 0 0.0194258 0 0)
(0.30284 0.0994196 0 0.0490623 0 0)
(0.101676 -0.00385093 0 0.000187998 0 0)
(0.00139484 -0.00041563 0 0.00079026 0 0)
(0.00465079 -0.000261216 0 0.000617096 0 0)
(0.0137648 -0.0010139 0 0.000167843 0 0)
(0.0259916 -0.00139447 0 0.000164632 0 0)
(0.0339337 -0.00272224 0 0.000326435 0 0)
(0.0388325 -0.00321922 0 0.000439393 0 0)
(0.0438609 -0.00327675 0 0.000496953 0 0)
(0.0512122 -0.00253497 0 0.000388567 0 0)
(0.0606063 -0.00245677 0 0.000287567 0 0)
(0.0711772 -0.00223362 0 0.000191111 0 0)
(0.0824583 -0.00255817 0 0.000231671 0 0)
(0.093732 -0.00228981 0 0.000168193 0 0)
(0.105581 -0.00215328 0 0.000304384 0 0)
(0.118175 -0.000672159 0 0.000429277 0 0)
(0.133921 0.00266886 0 0.000917491 0 0)
(0.154714 0.00888099 0 0.00216198 0 0)
(0.186928 0.0227935 0 0.00671591 0 0)
(0.237604 0.0461972 0 0.0170851 0 0)
(0.319717 0.092535 0 0.042156 0 0)
(0.101447 -0.00494114 0 0.000291732 0 0)
(0.0014109 -0.000586606 0 0.00115743 0 0)
(0.00478703 -0.000445449 0 0.000916855 0 0)
(0.014812 -0.0012859 0 0.000213156 0 0)
(0.027479 -0.00185753 0 0.000226578 0 0)
(0.0359011 -0.00346097 0 0.000466972 0 0)
(0.0410782 -0.00407224 0 0.000633621 0 0)
(0.0467358 -0.00412489 0 0.000702565 0 0)
(0.0542204 -0.00321681 0 0.000533117 0 0)
(0.064278 -0.00312996 0 0.000406404 0 0)
(0.0750025 -0.00282817 0 0.000248481 0 0)
(0.0870291 -0.00336541 0 0.000319921 0 0)
(0.0984789 -0.00295073 0 0.000204004 0 0)
(0.111329 -0.00323261 0 0.000398257 0 0)
(0.124285 -0.00145331 0 0.000465943 0 0)
(0.141555 0.00117492 0 0.000956335 0 0)
(0.163818 0.00752927 0 0.00199648 0 0)
(0.198785 0.0199222 0 0.00596922 0 0)
(0.252809 0.0421596 0 0.0148883 0 0)
(0.339962 0.0849117 0 0.036102 0 0)
(0.101241 -0.00617791 0 0.000438349 0 0)
(0.00146248 -0.000818432 0 0.00160391 0 0)
(0.00502735 -0.000720102 0 0.00126001 0 0)
(0.0161465 -0.00159353 0 0.000266676 0 0)
(0.0294007 -0.00240563 0 0.000309239 0 0)
(0.0383503 -0.00428081 0 0.000642282 0 0)
(0.0440641 -0.00500215 0 0.000867474 0 0)
(0.0503269 -0.00502662 0 0.000939556 0 0)
(0.0582439 -0.00399648 0 0.000707338 0 0)
(0.0689557 -0.0038785 0 0.000544935 0 0)
(0.0800161 -0.00352689 0 0.000317822 0 0)
(0.0927445 -0.00421301 0 0.000419048 0 0)
(0.104709 -0.00374733 0 0.000259285 0 0)
(0.118406 -0.00434497 0 0.000505266 0 0)
(0.132092 -0.0023849 0 0.000529861 0 0)
(0.150919 -0.00043275 0 0.00100938 0 0)
(0.174782 0.00595961 0 0.0019038 0 0)
(0.212191 0.0167339 0 0.00524355 0 0)
(0.270356 0.0375292 0 0.0130163 0 0)
(0.362386 0.0764348 0 0.0306424 0 0)
(0.101161 -0.00757113 0 0.000639911 0 0)
(0.00156429 -0.00113358 0 0.00215249 0 0)
(0.00544742 -0.00110188 0 0.00156842 0 0)
(0.0178201 -0.00198448 0 0.000343476 0 0)
(0.0318914 -0.00309885 0 0.000427037 0 0)
(0.0414206 -0.00521943 0 0.000861184 0 0)
(0.0479376 -0.00604254 0 0.00114404 0 0)
(0.054795 -0.00601807 0 0.00121024 0 0)
(0.0634122 -0.00487391 0 0.000906094 0 0)
(0.0746944 -0.00473382 0 0.000708246 0 0)
(0.0863313 -0.00429965 0 0.000396875 0 0)
(0.0998053 -0.00517944 0 0.000543751 0 0)
(0.112486 -0.00458052 0 0.000316969 0 0)
(0.127017 -0.00561591 0 0.00064943 0 0)
(0.141824 -0.00333804 0 0.000584874 0 0)
(0.162143 -0.00231093 0 0.00113061 0 0)
(0.187651 0.0043874 0 0.00179858 0 0)
(0.227749 0.0130003 0 0.00469466 0 0)
(0.290547 0.0325569 0 0.0112872 0 0)
(0.386425 0.0664509 0 0.0262234 0 0)
(0.101626 -0.00916647 0 0.000914183 0 0)
(0.00172825 -0.00151583 0 0.00281956 0 0)
(0.00616965 -0.00160104 0 0.0017722 0 0)
(0.0197678 -0.00248927 0 0.000461807 0 0)
(0.0352138 -0.00400745 0 0.000599793 0 0)
(0.0448559 -0.00626768 0 0.00113223 0 0)
(0.0529871 -0.00725084 0 0.00147489 0 0)
(0.0598666 -0.00705884 0 0.00150595 0 0)
(0.0699537 -0.00592526 0 0.00114582 0 0)
(0.0811907 -0.00564255 0 0.000892686 0 0)
(0.0943009 -0.00524976 0 0.00050371 0 0)
(0.107938 -0.0062077 0 0.000689566 0 0)
(0.122142 -0.00556484 0 0.000390677 0 0)
(0.137037 -0.00698479 0 0.000834113 0 0)
(0.153823 -0.00442441 0 0.000639527 0 0)
(0.175042 -0.00437793 0 0.0013426 0 0)
(0.202968 0.00273593 0 0.0016517 0 0)
(0.245655 0.00875576 0 0.00441429 0 0)
(0.313046 0.0273869 0 0.00956695 0 0)
(0.412389 0.0547657 0 0.0229881 0 0)
(0.103044 -0.0110629 0 0.00129448 0 0)
(0.00211222 -0.00193339 0 0.00359344 0 0)
(0.00751196 -0.00225702 0 0.00191423 0 0)
(0.0218742 -0.00307677 0 0.000628255 0 0)
(0.0399072 -0.00517267 0 0.000839693 0 0)
(0.0482594 -0.00736523 0 0.00145337 0 0)
(0.0600876 -0.00868995 0 0.00185613 0 0)
(0.0649222 -0.00803981 0 0.00181194 0 0)
(0.0790071 -0.0072637 0 0.00143418 0 0)
(0.0878419 -0.00649678 0 0.00107823 0 0)
(0.105324 -0.00650115 0 0.000646415 0 0)
(0.116429 -0.0071639 0 0.000823255 0 0)
(0.13542 -0.00689569 0 0.000504126 0 0)
(0.147696 -0.00824923 0 0.0010093 0 0)
(0.169797 -0.00589097 0 0.000738163 0 0)
(0.188625 -0.00631748 0 0.00154122 0 0)
(0.222057 0.000688633 0 0.00159661 0 0)
(0.263536 0.00456642 0 0.00412557 0 0)
(0.335868 0.0218773 0 0.00827813 0 0)
(0.435043 0.042449 0 0.0196434 0 0)
(0.104546 -0.0132385 0 0.00180984 0 0)
(0.00300418 -0.00243504 0 0.00447864 0 0)
(0.00979943 -0.00309733 0 0.00206417 0 0)
(0.0243761 -0.00375652 0 0.000848978 0 0)
(0.046421 -0.00665593 0 0.00115887 0 0)
(0.0519178 -0.00853819 0 0.00183768 0 0)
(0.0701387 -0.01046 0 0.00229132 0 0)
(0.070044 -0.0089768 0 0.00215154 0 0)
(0.0920856 -0.00900872 0 0.00177347 0 0)
(0.0943847 -0.00732581 0 0.0012862 0 0)
(0.12127 -0.00812215 0 0.00082717 0 0)
(0.124337 -0.0081104 0 0.000979057 0 0)
(0.15398 -0.00859055 0 0.000655049 0 0)
(0.156175 -0.00939071 0 0.00120915 0 0)
(0.189361 -0.00758571 0 0.000860611 0 0)
(0.195737 -0.00795519 0 0.00176256 0 0)
(0.238612 -0.00123602 0 0.00157193 0 0)
(0.264593 0.00105775 0 0.00387514 0 0)
(0.339517 0.0175048 0 0.00723373 0 0)
(0.418763 0.0316767 0 0.0161992 0 0)
(0.103876 -0.0155057 0 0.00248011 0 0)
(0.00413853 -0.00319818 0 0.00548248 0 0)
(0.0125255 -0.00400845 0 0.00223949 0 0)
(0.0277088 -0.00468304 0 0.00114003 0 0)
(0.0538691 -0.00845507 0 0.00157756 0 0)
(0.0573814 -0.0100056 0 0.00230997 0 0)
(0.0821123 -0.0125663 0 0.00280658 0 0)
(0.0770852 -0.010137 0 0.00254852 0 0)
(0.107344 -0.0110696 0 0.00217346 0 0)
(0.100959 -0.00821017 0 0.00151 0 0)
(0.136792 -0.00992386 0 0.00105517 0 0)
(0.126773 -0.00876435 0 0.00113631 0 0)
(0.164217 -0.010124 0 0.000840776 0 0)
(0.148038 -0.00945353 0 0.00137808 0 0)
(0.185642 -0.00844983 0 0.000983795 0 0)
(0.168535 -0.00749596 0 0.00189241 0 0)
(0.209947 -0.00158688 0 0.00149709 0 0)
(0.207342 0.00083419 0 0.00359109 0 0)
(0.270043 0.0163135 0 0.00605847 0 0)
(0.317124 0.0261688 0 0.0132239 0 0)
(0.101119 -0.017827 0 0.00335159 0 0)
(0.0051456 -0.00434161 0 0.00652228 0 0)
(0.0151788 -0.00488982 0 0.00244329 0 0)
(0.0323531 -0.00603481 0 0.00153242 0 0)
(0.0614045 -0.0104757 0 0.00211225 0 0)
(0.0655696 -0.0119239 0 0.00288863 0 0)
(0.0919323 -0.0145189 0 0.00336344 0 0)
(0.0825792 -0.0112669 0 0.00298744 0 0)
(0.110233 -0.0121076 0 0.0025321 0 0)
(0.0934668 -0.00812573 0 0.00169375 0 0)
(0.120975 -0.00984891 0 0.00122712 0 0)
(0.0969165 -0.00722241 0 0.001203 0 0)
(0.120483 -0.00865313 0 0.000945687 0 0)
(0.0911368 -0.0058088 0 0.00137165 0 0)
(0.111536 -0.00572638 0 0.000973406 0 0)
(0.086163 -0.00241156 0 0.0017696 0 0)
(0.108399 0.000836044 0 0.00128484 0 0)
(0.101888 0.00563826 0 0.00306675 0 0)
(0.143894 0.0164328 0 0.00475539 0 0)
(0.190401 0.0270645 0 0.0101044 0 0)
(0.0984835 -0.0204119 0 0.00450672 0 0)
(0.00649316 -0.00590082 0 0.00740785 0 0)
(0.0183158 -0.00597825 0 0.00277707 0 0)
(0.0383237 -0.00787143 0 0.00208709 0 0)
(0.0659762 -0.0123907 0 0.00277229 0 0)
(0.0665822 -0.0129334 0 0.00346662 0 0)
(0.0789713 -0.0136814 0 0.00375711 0 0)
(0.059962 -0.00899747 0 0.0032032 0 0)
(0.0660269 -0.00835456 0 0.00256149 0 0)
(0.0455719 -0.00385726 0 0.00162294 0 0)
(0.0491765 -0.00470533 0 0.00113664 0 0)
(0.0347987 -0.00134727 0 0.00103636 0 0)
(0.0352388 -0.0022621 0 0.000816252 0 0)
(0.0315319 0.00155275 0 0.00111606 0 0)
(0.031698 0.000349759 0 0.000766055 0 0)
(0.0428083 0.00495737 0 0.00139925 0 0)
(0.0464047 0.00398425 0 0.000963407 0 0)
(0.0779082 0.0112959 0 0.00236065 0 0)
(0.103441 0.0141335 0 0.003501 0 0)
(0.179677 0.0292805 0 0.00706661 0 0)
(0.098668 -0.0236509 0 0.00603857 0 0)
(0.0090121 -0.00800199 0 0.00831417 0 0)
(0.0209046 -0.00720304 0 0.00346452 0 0)
(0.0369486 -0.00877153 0 0.00282755 0 0)
(0.046141 -0.0106422 0 0.00326426 0 0)
(0.0321776 -0.00765998 0 0.00354756 0 0)
(0.024306 -0.00499665 0 0.00346175 0 0)
(0.0149908 0.000188314 0 0.00273663 0 0)
(0.0163093 0.00108229 0 0.00200557 0 0)
(0.0295794 0.00393472 0 0.00118826 0 0)
(0.0296687 0.00320019 0 0.000788159 0 0)
(0.0644753 0.00568022 0 0.000689484 0 0)
(0.0579082 0.00486249 0 0.000547952 0 0)
(0.115014 0.00787917 0 0.000735978 0 0)
(0.103758 0.00548788 0 0.000498566 0 0)
(0.176664 0.0097524 0 0.000936987 0 0)
(0.166649 0.00481168 0 0.000653391 0 0)
(0.244861 0.0135676 0 0.00158464 0 0)
(0.260579 0.00830966 0 0.00242844 0 0)
(0.349253 0.026601 0 0.00441864 0 0)
(0.105616 -0.02899 0 0.00844701 0 0)
(0.0100944 -0.00911853 0 0.00933578 0 0)
(0.0137923 -0.0049671 0 0.00404165 0 0)
(0.0144311 -0.00305207 0 0.00295692 0 0)
(0.00867339 -0.000182998 0 0.00277927 0 0)
(0.0148 0.00496458 0 0.00264414 0 0)
(0.0358958 0.00777084 0 0.00236257 0 0)
(0.0858728 0.00993393 0 0.00173759 0 0)
(0.121406 0.00897541 0 0.00118215 0 0)
(0.191777 0.0091923 0 0.00066884 0 0)
(0.209949 0.00810421 0 0.000420475 0 0)
(0.29904 0.00925285 0 0.00036919 0 0)
(0.298324 0.0083878 0 0.000297772 0 0)
(0.41093 0.0100564 0 0.00040419 0 0)
(0.393981 0.0072766 0 0.000271898 0 0)
(0.517759 0.0100565 0 0.00053526 0 0)
(0.493604 0.00329333 0 0.000382828 0 0)
(0.597566 0.0116012 0 0.000946638 0 0)
(0.605591 0.00079682 0 0.00148822 0 0)
(0.658585 0.0198107 0 0.00279096 0 0)
(0.113143 -0.0358856 0 0.0120653 0 0)
(0.00282008 -0.00238137 0 0.00895314 0 0)
(0.0190896 0.00520595 0 0.00325248 0 0)
(0.0456903 0.00841653 0 0.00193039 0 0)
(0.0876636 0.0113831 0 0.00155114 0 0)
(0.169082 0.0138404 0 0.00138667 0 0)
(0.256189 0.0137519 0 0.00117794 0 0)
(0.368633 0.012613 0 0.000822244 0 0)
(0.440752 0.0103927 0 0.000526212 0 0)
(0.546754 0.00925338 0 0.000289355 0 0)