/*--------------------------------*- C++ -*----------------------------------*\
| =========                 |                                                 |
| \\      /  F ield         | OpenFOAM: The Open Source CFD Toolbox           |
|  \\    /   O peration     | Version:  2.4.0                                 |
|   \\  /    A nd           | Web:      www.OpenFOAM.org                      |
|    \\/     M anipulation  |                                                 |
\*---------------------------------------------------------------------------*/
FoamFile
{
    version     2.0;
    format      ascii;
    class       surfaceScalarField;
    location    "0.246";
    object      phi;
}
// * * * * * * * * * * * * * * * * * * * * * * * * * * * * * * * * * * * * * //

dimensions      [0 3 -1 0 0 0 0];

internalField   nonuniform List<scalar> 
34880
(
5.48678e-06
7.01322e-06
3.12856e-06
2.35822e-06
2.47078e-06
6.57779e-07
2.21919e-06
2.51582e-07
2.07869e-06
1.40504e-07
1.96591e-06
1.1278e-07
1.88854e-06
7.73673e-08
1.8333e-06
5.52386e-08
1.76586e-06
6.7446e-08
1.75999e-06
5.86625e-09
1.71847e-06
4.15207e-08
1.69952e-06
1.89547e-08
1.70471e-06
-5.18846e-09
1.69925e-06
5.45505e-09
1.6883e-06
1.09523e-08
1.76986e-06
-8.15664e-08
1.79489e-06
-2.50273e-08
1.93173e-06
-1.36838e-07
1.8683e-06
6.34263e-08
-6.90539e-07
2.55884e-06
1.01104e-05
9.40286e-06
7.83585e-06
4.63274e-06
6.70696e-06
1.78667e-06
6.0661e-06
8.92441e-07
5.65003e-06
5.56574e-07
5.34557e-06
4.17239e-07
5.13286e-06
2.90079e-07
4.95622e-06
2.31876e-07
4.80518e-06
2.18482e-07
4.73859e-06
7.24636e-08
4.63236e-06
1.47751e-07
4.59021e-06
6.10998e-08
4.55158e-06
3.34402e-08
4.54267e-06
1.43701e-08
4.51115e-06
4.2464e-08
4.66077e-06
-2.31186e-07
4.68001e-06
-4.42626e-08
4.94471e-06
-4.01539e-07
5.1655e-06
-1.57363e-07
-1.05589e-06
5.53085e-06
1.24259e-05
9.47697e-06
1.10109e-05
6.0477e-06
9.97699e-06
2.8206e-06
9.20685e-06
1.66258e-06
8.62294e-06
1.14049e-06
8.18468e-06
8.55491e-07
7.87364e-06
6.01119e-07
7.60111e-06
5.04405e-07
7.38863e-06
4.30965e-07
7.26268e-06
1.9841e-07
7.10469e-06
3.05748e-07
7.04123e-06
1.24556e-07
6.95328e-06
1.21388e-07
6.94037e-06
2.72851e-08
6.88215e-06
1.00686e-07
7.04829e-06
-3.97326e-07
7.07785e-06
-7.38323e-08
7.31414e-06
-6.37829e-07
7.87193e-06
-7.15149e-07
-1.34319e-06
8.15923e-06
1.34128e-05
8.56413e-06
1.28979e-05
6.56268e-06
1.23229e-05
3.39561e-06
1.17224e-05
2.26304e-06
1.11381e-05
1.72483e-06
1.06511e-05
1.34248e-06
1.0294e-05
9.58201e-07
9.96083e-06
8.37567e-07
9.70788e-06
6.83915e-07
9.54256e-06
3.63733e-07
9.33679e-06
5.11522e-07
9.26097e-06
2.0037e-07
9.13238e-06
2.49983e-07
9.09989e-06
5.97755e-08
9.0353e-06
1.65268e-07
9.16696e-06
-5.28982e-07
9.23878e-06
-1.45652e-07
9.38208e-06
-7.81124e-07
1.00426e-05
-1.37567e-06
-1.94549e-06
1.06449e-05
1.35906e-05
7.47349e-06
1.36712e-05
6.48213e-06
1.36209e-05
3.4459e-06
1.34089e-05
2.47505e-06
1.30236e-05
2.11015e-06
1.26153e-05
1.75076e-06
1.22973e-05
1.27615e-06
1.1961e-05
1.17386e-06
1.17028e-05
9.42142e-07
1.15337e-05
5.32803e-07
1.12951e-05
7.50149e-07
1.12179e-05
2.77585e-07
1.10751e-05
3.9282e-07
1.10046e-05
1.30226e-07
1.09631e-05
2.06753e-07
1.10372e-05
-6.03038e-07
1.11348e-05
-2.43297e-07
1.12518e-05
-8.98105e-07
1.17478e-05
-1.87163e-06
-3.02407e-06
1.28263e-05
1.34814e-05
6.49205e-06
1.37655e-05
6.19812e-06
1.3997e-05
3.21433e-06
1.41536e-05
2.31843e-06
1.40871e-05
2.17672e-06
1.38887e-05
1.94914e-06
1.37205e-05
1.44432e-06
1.34708e-05
1.42361e-06
1.32613e-05
1.15161e-06
1.31418e-05
6.5236e-07
1.29033e-05
9.8865e-07
1.28383e-05
3.42516e-07
1.27223e-05
5.08813e-07
1.2613e-05
2.39511e-07
1.26006e-05
2.19192e-07
1.26384e-05
-6.40792e-07
1.27302e-05
-3.35112e-07
1.28789e-05
-1.04684e-06
1.32123e-05
-2.20499e-06
-3.96863e-06
1.41568e-05
1.33615e-05
5.63052e-06
1.37027e-05
5.8569e-06
1.39332e-05
2.9839e-06
1.42288e-05
2.02277e-06
1.43894e-05
2.01611e-06
1.44014e-05
1.93719e-06
1.44252e-05
1.4205e-06
1.43417e-05
1.50709e-06
1.42399e-05
1.25339e-06
1.42384e-05
6.53891e-07
1.40543e-05
1.17281e-06
1.40239e-05
3.729e-07
1.39785e-05
5.54217e-07
1.38695e-05
3.48444e-07
1.38711e-05
2.17644e-07
1.38985e-05
-6.68202e-07
1.40055e-05
-4.42098e-07
1.41645e-05
-1.20586e-06
1.44953e-05
-2.53576e-06
-4.59048e-06
1.51171e-05
1.32739e-05
4.85659e-06
1.36942e-05
5.4366e-06
1.38066e-05
2.87151e-06
1.40968e-05
1.73259e-06
1.43222e-05
1.7907e-06
1.44243e-05
1.8351e-06
1.45569e-05
1.28792e-06
1.46134e-05
1.45054e-06
1.45969e-05
1.26989e-06
1.47372e-05
5.13613e-07
1.46538e-05
1.25622e-06
1.46708e-05
3.55916e-07
1.47222e-05
5.02831e-07
1.46855e-05
3.85084e-07
1.47056e-05
1.976e-07
1.47225e-05
-6.85096e-07
1.48855e-05
-6.05116e-07
1.50689e-05
-1.38925e-06
1.54299e-05
-2.89684e-06
-3.35866e-06
1.41981e-05
1.3203e-05
4.15362e-06
1.36653e-05
4.97432e-06
1.37157e-05
2.82102e-06
1.39754e-05
1.4729e-06
1.42045e-05
1.56166e-06
1.42945e-05
1.74508e-06
1.44618e-05
1.12064e-06
1.45904e-05
1.32193e-06
1.45757e-05
1.28454e-06
1.47994e-05
2.89957e-07
1.48079e-05
1.24773e-06
1.4836e-05
3.2783e-07
1.49501e-05
3.88717e-07
1.5013e-05
3.22192e-07
1.50681e-05
1.42465e-07
1.50799e-05
-6.96844e-07
1.5265e-05
-7.90239e-07
1.55248e-05
-1.64907e-06
1.59998e-05
-3.37183e-06
-3.65303e-06
1.62942e-05
1.31162e-05
3.53742e-06
1.36312e-05
4.45931e-06
1.36684e-05
2.78386e-06
1.39209e-05
1.22039e-06
1.41346e-05
1.34799e-06
1.41752e-05
1.70443e-06
1.4353e-05
9.42833e-07
1.45016e-05
1.17334e-06
1.44697e-05
1.31647e-06
1.47093e-05
5.03699e-08
1.47734e-05
1.1836e-06
1.47941e-05
3.0712e-07
1.49182e-05
2.64627e-07
1.5026e-05
2.14414e-07
1.51013e-05
6.71188e-08
1.51372e-05
-7.32739e-07
1.52679e-05
-9.20921e-07
1.5545e-05
-1.92616e-06
1.59896e-05
-3.81647e-06
-4.28089e-06
1.66175e-05
1.30454e-05
2.99205e-06
1.35789e-05
3.92576e-06
1.36246e-05
2.73823e-06
1.39211e-05
9.23879e-07
1.40644e-05
1.20469e-06
1.41297e-05
1.63912e-06
1.42947e-05
7.77833e-07
1.43947e-05
1.07332e-06
1.44355e-05
1.27566e-06
1.46057e-05
-1.19862e-07
1.46691e-05
1.12025e-06
1.47526e-05
2.23605e-07
1.48445e-05
1.72716e-07
1.49339e-05
1.25002e-07
1.50547e-05
-5.36701e-08
1.51102e-05
-7.8826e-07
1.51939e-05
-1.00455e-06
1.54085e-05
-2.14081e-06
1.57322e-05
-4.1402e-06
-5.12139e-06
1.65727e-05
1.30113e-05
2.48077e-06
1.34912e-05
3.44582e-06
1.35767e-05
2.65279e-06
1.38601e-05
6.40397e-07
1.39829e-05
1.08192e-06
1.4122e-05
1.50006e-06
1.4213e-05
6.8681e-07
1.43281e-05
9.58204e-07
1.44627e-05
1.14112e-06
1.44864e-05
-1.43575e-07
1.45753e-05
1.03134e-06
1.47393e-05
5.96018e-08
1.47585e-05
1.53501e-07
1.482e-05
6.34767e-08
1.50044e-05
-2.38097e-07
1.50627e-05
-8.46478e-07
1.51459e-05
-1.08783e-06
1.53373e-05
-2.33215e-06
1.54958e-05
-4.2987e-06
-5.83293e-06
1.62073e-05
1.29529e-05
2.02787e-06
1.33902e-05
3.00855e-06
1.35738e-05
2.46919e-06
1.37405e-05
4.7368e-07
1.39391e-05
8.83318e-07
1.40799e-05
1.35924e-06
1.41073e-05
6.59363e-07
1.43418e-05
7.23739e-07
1.44459e-05
1.03706e-06
1.43975e-05
-9.52613e-08
1.45517e-05
8.77143e-07
1.46853e-05
-7.39176e-08
1.46759e-05
1.6284e-07
1.47774e-05
-3.80409e-08
1.49426e-05
-4.03225e-07
1.4991e-05
-8.94897e-07
1.50986e-05
-1.1954e-06
1.5322e-05
-2.55563e-06
1.54446e-05
-4.42127e-06
-6.18039e-06
1.57921e-05
1.28684e-05
1.65944e-06
1.33445e-05
2.53252e-06
1.36003e-05
2.21338e-06
1.36846e-05
3.89369e-07
1.39119e-05
6.5599e-07
1.40065e-05
1.26464e-06
1.40695e-05
5.96387e-07
1.43353e-05
4.5792e-07
1.43871e-05
9.85251e-07
1.43851e-05
-9.32436e-08
1.45526e-05
7.0966e-07
1.45921e-05
-1.13445e-07
1.46431e-05
1.11829e-07
1.47756e-05
-1.70452e-07
1.48802e-05
-5.07866e-07
1.4943e-05
-9.57721e-07
1.50453e-05
-1.29769e-06
1.52631e-05
-2.77341e-06
1.54694e-05
-4.62759e-06
-6.37649e-06
1.56655e-05
1.28275e-05
1.33198e-06
1.33343e-05
2.02567e-06
1.35768e-05
1.97084e-06
1.37001e-05
2.66128e-07
1.38514e-05
5.04707e-07
1.39547e-05
1.16129e-06
1.40909e-05
4.60202e-07
1.42479e-05
3.00936e-07
1.43416e-05
8.91518e-07
1.44124e-05
-1.64067e-07
1.45045e-05
6.17616e-07
1.45387e-05
-1.47677e-07
1.46375e-05
1.30427e-08
1.47399e-05
-2.72863e-07
1.48219e-05
-5.89843e-07
1.49192e-05
-1.05504e-06
1.50248e-05
-1.4033e-06
1.51774e-05
-2.92599e-06
1.53545e-05
-4.80468e-06
-6.75709e-06
1.57351e-05
1.28204e-05
1.0116e-06
1.32829e-05
1.56311e-06
1.3563e-05
1.6908e-06
1.36997e-05
1.29445e-07
1.37793e-05
4.25084e-07
1.39414e-05
9.99127e-07
1.40759e-05
3.25699e-07
1.41572e-05
2.19719e-07
1.43284e-05
7.20301e-07
1.43942e-05
-2.29896e-07
1.44339e-05
5.77876e-07
1.45239e-05
-2.37629e-07
1.46156e-05
-7.86585e-08
1.46812e-05
-3.38436e-07
1.47837e-05
-6.92361e-07
1.48853e-05
-1.1566e-06
1.50014e-05
-1.51942e-06
1.51157e-05
-3.04034e-06
1.52026e-05
-4.89152e-06
-7.28628e-06
1.57318e-05
1.27904e-05
7.21177e-07
1.3212e-05
1.14152e-06
1.35704e-05
1.33239e-06
1.36668e-05
3.3083e-08
1.37414e-05
3.50494e-07
1.3944e-05
7.96526e-07
1.40243e-05
2.45353e-07
1.41278e-05
1.16249e-07
1.4318e-05
5.30079e-07
1.43239e-05
-2.35826e-07
1.44156e-05
4.86195e-07
1.45021e-05
-3.24061e-07
1.45819e-05
-1.58531e-07
1.46471e-05
-4.03564e-07
1.47561e-05
-8.0144e-07
1.48307e-05
-1.23115e-06
1.49718e-05
-1.66052e-06
1.50801e-05
-3.14865e-06
1.50998e-05
-4.91126e-06
-6.18196e-06
1.39955e-05
1.27506e-05
4.70617e-07
1.31922e-05
6.99933e-07
1.3564e-05
9.6054e-07
1.36552e-05
-5.81244e-08
1.37353e-05
2.70423e-07
1.39297e-05
6.02138e-07
1.39997e-05
1.75282e-07
1.41282e-05
-1.21698e-08
1.42761e-05
3.82155e-07
1.43002e-05
-2.59946e-07
1.44232e-05
3.6319e-07
1.44747e-05
-3.75525e-07
1.45522e-05
-2.36042e-07
1.4646e-05
-4.97398e-07
1.47077e-05
-8.63158e-07
1.48227e-05
-1.34607e-06
1.49481e-05
-1.78599e-06
1.5042e-05
-3.24253e-06
1.51348e-05
-5.0041e-06
-6.66896e-06
1.56218e-05
1.27405e-05
2.30069e-07
1.32029e-05
2.37577e-07
1.35447e-05
6.18706e-07
1.36639e-05
-1.77326e-07
1.37296e-05
2.04811e-07
1.38968e-05
4.34924e-07
1.40143e-05
5.7795e-08
1.41094e-05
-1.07299e-07
1.4248e-05
2.4358e-07
1.43112e-05
-3.23213e-07
1.44154e-05
2.58972e-07
1.44555e-05
-4.15539e-07
1.45508e-05
-3.31425e-07
1.46231e-05
-5.69662e-07
1.4694e-05
-9.34017e-07
1.48219e-05
-1.47402e-06
1.49078e-05
-1.87188e-06
1.50245e-05
-3.35927e-06
1.51366e-05
-5.11614e-06
-7.03149e-06
1.54991e-05
1.27493e-05
-1.9215e-08
1.31941e-05
-2.07207e-07
1.35342e-05
2.78531e-07
1.36601e-05
-3.0323e-07
1.37063e-05
1.587e-07
1.38838e-05
2.5742e-07
1.40246e-05
-8.30843e-08
1.40962e-05
-1.7882e-07
1.42448e-05
9.49065e-08
1.43143e-05
-3.92669e-07
1.43869e-05
1.86325e-07
1.44649e-05
-4.93452e-07
1.45494e-05
-4.15952e-07
1.46016e-05
-6.21918e-07
1.46841e-05
-1.01652e-06
1.47971e-05
-1.58701e-06
1.48813e-05
-1.95607e-06
1.50207e-05
-3.49867e-06
1.51079e-05
-5.20335e-06
-7.19955e-06
1.5276e-05
1.27518e-05
-2.71005e-07
1.31941e-05
-6.49557e-07
1.35296e-05
-5.69074e-08
1.36395e-05
-4.13161e-07
1.36925e-05
1.05721e-07
1.39013e-05
4.86002e-08
1.40176e-05
-1.99384e-07
1.40986e-05
-2.59857e-07
1.42621e-05
-6.85084e-08
1.42891e-05
-4.19747e-07
1.43909e-05
8.45162e-08
1.44856e-05
-5.88144e-07
1.45307e-05
-4.61064e-07
1.45796e-05
-6.70736e-07
1.46856e-05
-1.12253e-06
1.47736e-05
-1.675e-06
1.48722e-05
-2.05475e-06
1.5008e-05
-3.63448e-06
1.50066e-05
-5.20187e-06
-7.4324e-06
1.52394e-05
1.27621e-05
-5.33137e-07
1.32159e-05
-1.10334e-06
1.3515e-05
-3.55974e-07
1.36266e-05
-5.24761e-07
1.37174e-05
1.49061e-08
1.39127e-05
-1.46651e-07
1.40154e-05
-3.02119e-07
1.41186e-05
-3.63029e-07
1.42734e-05
-2.23339e-07
1.42808e-05
-4.27188e-07
1.44178e-05
-5.24055e-08
1.44824e-05
-6.5279e-07
1.45208e-05
-4.99505e-07
1.45784e-05
-7.28282e-07
1.47007e-05
-1.24487e-06
1.47595e-05
-1.73376e-06
1.48756e-05
-2.17087e-06
1.4975e-05
-3.73386e-06
1.48816e-05
-5.10853e-06
-6.37507e-06
1.38243e-05
1.27851e-05
-8.18224e-07
1.32225e-05
-1.54078e-06
1.35049e-05
-6.38344e-07
1.36468e-05
-6.66634e-07
1.37474e-05
-8.56905e-08
1.39078e-05
-3.07129e-07
1.40347e-05
-4.28941e-07
1.41441e-05
-4.72482e-07
1.42667e-05
-3.4597e-07
1.43115e-05
-4.71963e-07
1.44242e-05
-1.6504e-07
1.44866e-05
-7.15209e-07
1.45178e-05
-5.30769e-07
1.46282e-05
-8.38649e-07
1.46901e-05
-1.30674e-06
1.47639e-05
-1.80755e-06
1.48712e-05
-2.27823e-06
1.49454e-05
-3.80807e-06
1.49627e-05
-5.12581e-06
-6.94031e-06
1.5528e-05
1.28016e-05
-1.11982e-06
1.3227e-05
-1.96615e-06
1.35276e-05
-9.38959e-07
1.36776e-05
-8.16674e-07
1.37539e-05
-1.61937e-07
1.39125e-05
-4.65754e-07
1.40658e-05
-5.82211e-07
1.41517e-05
-5.58373e-07
1.4286e-05
-4.80318e-07
1.43321e-05
-5.18089e-07
1.44422e-05
-2.75117e-07
1.44978e-05
-7.7081e-07
1.45489e-05
-5.81892e-07
1.46475e-05
-9.37239e-07
1.46858e-05
-1.345e-06
1.47794e-05
-1.90114e-06
1.48632e-05
-2.3621e-06
1.49259e-05
-3.87077e-06
1.5023e-05
-5.22285e-06
-7.44409e-06
1.55268e-05
1.28158e-05
-1.43564e-06
1.32605e-05
-2.41083e-06
1.35698e-05
-1.2483e-06
1.36876e-05
-9.34475e-07
1.37558e-05
-2.30078e-07
1.39441e-05
-6.54105e-07
1.40895e-05
-7.27613e-07
1.41714e-05
-6.40239e-07
1.43161e-05
-6.25028e-07
1.43609e-05
-5.62908e-07
1.44582e-05
-3.72436e-07
1.45274e-05
-8.39957e-07
1.458e-05
-6.34526e-07
1.46536e-05
-1.01086e-06
1.47064e-05
-1.39771e-06
1.48044e-05
-1.99916e-06
1.48552e-05
-2.41292e-06
1.49297e-05
-3.94531e-06
1.50747e-05
-5.3678e-06
-7.82471e-06
1.54553e-05
1.28491e-05
-1.78473e-06
1.33129e-05
-2.87465e-06
1.35908e-05
-1.52615e-06
1.3681e-05
-1.02471e-06
1.37896e-05
-3.38656e-07
1.39836e-05
-8.48094e-07
1.41221e-05
-8.66195e-07
1.42058e-05
-7.23915e-07
1.43478e-05
-7.67001e-07
1.43888e-05
-6.03896e-07
1.44831e-05
-4.66801e-07
1.4563e-05
-9.19763e-07
1.46083e-05
-6.79841e-07
1.46675e-05
-1.07008e-06
1.47573e-05
-1.48748e-06
1.48152e-05
-2.05712e-06
1.48604e-05
-2.45814e-06
1.49637e-05
-4.04854e-06
1.50778e-05
-5.48191e-06
-8.15211e-06
1.54052e-05
1.28954e-05
-2.18011e-06
1.33554e-05
-3.33463e-06
1.35918e-05
-1.76261e-06
1.37029e-05
-1.13582e-06
1.38471e-05
-4.8286e-07
1.40244e-05
-1.02532e-06
1.41665e-05
-1.00832e-06
1.42389e-05
-7.96308e-07
1.43813e-05
-9.09427e-07
1.44233e-05
-6.45886e-07
1.4522e-05
-5.65486e-07
1.46003e-05
-9.98061e-07
1.46452e-05
-7.24824e-07
1.47035e-05
-1.12834e-06
1.48007e-05
-1.5847e-06
1.48226e-05
-2.07897e-06
1.48963e-05
-2.53184e-06
1.5009e-05
-4.16127e-06
1.49734e-05
-5.44625e-06
-6.93266e-06
1.37539e-05
1.29419e-05
-2.62199e-06
1.33935e-05
-3.78625e-06
1.35794e-05
-1.94853e-06
1.37516e-05
-1.30803e-06
1.39023e-05
-6.33496e-07
1.40708e-05
-1.19382e-06
1.4211e-05
-1.14852e-06
1.42798e-05
-8.65139e-07
1.4421e-05
-1.05062e-06
1.4479e-05
-7.03929e-07
1.45651e-05
-6.51585e-07
1.46552e-05
-1.08814e-06
1.46791e-05
-7.48653e-07
1.47636e-05
-1.21285e-06
1.48238e-05
-1.64493e-06
1.48627e-05
-2.11787e-06
1.494e-05
-2.60914e-06
1.50195e-05
-4.2408e-06
1.50135e-05
-5.44024e-06
-7.28823e-06
1.53691e-05
1.29959e-05
-3.11792e-06
1.34469e-05
-4.23719e-06
1.35964e-05
-2.09809e-06
1.37924e-05
-1.50403e-06
1.39541e-05
-7.95134e-07
1.41226e-05
-1.36233e-06
1.42649e-05
-1.29088e-06
1.43289e-05
-9.29135e-07
1.44817e-05
-1.20334e-06
1.45336e-05
-7.55892e-07
1.46181e-05
-7.36064e-07
1.47028e-05
-1.17285e-06
1.47297e-05
-7.75561e-07
1.48131e-05
-1.2962e-06
1.48705e-05
-1.70242e-06
1.49145e-05
-2.16186e-06
1.49626e-05
-2.65716e-06
1.50094e-05
-4.28766e-06
1.50159e-05
-5.44669e-06
-7.65126e-06
1.53789e-05
1.30636e-05
-3.68148e-06
1.3501e-05
-4.67458e-06
1.36273e-05
-2.22445e-06
1.38278e-05
-1.70453e-06
1.40141e-05
-9.8138e-07
1.41921e-05
-1.54036e-06
1.4329e-05
-1.42774e-06
1.4398e-05
-9.98198e-07
1.45428e-05
-1.34809e-06
1.45834e-05
-7.96552e-07
1.46754e-05
-8.28001e-07
1.47493e-05
-1.24676e-06
1.47934e-05
-8.19712e-07
1.48683e-05
-1.37108e-06
1.49323e-05
-1.76642e-06
1.49521e-05
-2.18164e-06
1.49666e-05
-2.67164e-06
1.49766e-05
-4.29768e-06
1.49748e-05
-5.44489e-06
-7.80507e-06
1.51286e-05
1.31314e-05
-4.31285e-06
1.35395e-05
-5.08273e-06
1.36644e-05
-2.34934e-06
1.38782e-05
-1.91832e-06
1.41002e-05
-1.20342e-06
1.42831e-05
-1.7232e-06
1.43988e-05
-1.54349e-06
1.44803e-05
-1.07965e-06
1.45942e-05
-1.46202e-06
1.4638e-05
-8.40323e-07
1.47417e-05
-9.31704e-07
1.48042e-05
-1.30927e-06
1.486e-05
-8.75535e-07
1.49194e-05
-1.43047e-06
1.496e-05
-1.80704e-06
1.49325e-05
-2.15408e-06
1.49127e-05
-2.65188e-06
1.48293e-05
-4.21425e-06
1.46724e-05
-5.28801e-06
-7.64424e-06
1.45116e-05
1.31887e-05
-5.00158e-06
1.35763e-05
-5.4703e-06
1.37333e-05
-2.50639e-06
1.39601e-05
-2.14508e-06
1.42202e-05
-1.46351e-06
1.43805e-05
-1.88352e-06
1.44699e-05
-1.63283e-06
1.45675e-05
-1.17731e-06
1.46359e-05
-1.53036e-06
1.46972e-05
-9.01655e-07
1.47939e-05
-1.02841e-06
1.48131e-05
-1.32851e-06
1.48583e-05
-9.20686e-07
1.48625e-05
-1.43469e-06
1.48262e-05
-1.77071e-06
1.47284e-05
-2.05627e-06
1.46168e-05
-2.54034e-06
1.43452e-05
-3.94262e-06
1.39533e-05
-4.89612e-06
-7.23675e-06
1.35458e-05
1.32476e-05
-5.74913e-06
1.36321e-05
-5.8548e-06
1.38426e-05
-2.71692e-06
1.40733e-05
-2.37581e-06
1.43524e-05
-1.74263e-06
1.44583e-05
-1.98941e-06
1.45193e-05
-1.69382e-06
1.46095e-05
-1.2675e-06
1.45974e-05
-1.51825e-06
1.46392e-05
-9.43441e-07
1.46557e-05
-1.04499e-06
1.45807e-05
-1.25348e-06
1.45644e-05
-9.04344e-07
1.44628e-05
-1.33317e-06
1.43127e-05
-1.62061e-06
1.4121e-05
-1.86451e-06
1.38767e-05
-2.29607e-06
1.34301e-05
-3.49601e-06
1.28448e-05
-4.31083e-06
-5.9753e-06
1.15834e-05
1.3331e-05
-6.58009e-06
1.36626e-05
-6.18644e-06
1.39736e-05
-3.02796e-06
1.41873e-05
-2.58945e-06
1.44141e-05
-1.96941e-06
1.44114e-05
-1.98679e-06
1.43755e-05
-1.65786e-06
1.43589e-05
-1.25094e-06
1.4208e-05
-1.36736e-06
1.41511e-05
-8.86474e-07
1.40391e-05
-9.33074e-07
1.38609e-05
-1.0752e-06
1.37611e-05
-8.04616e-07
1.3564e-05
-1.13604e-06
1.33252e-05
-1.38181e-06
1.30578e-05
-1.59706e-06
1.27134e-05
-1.95171e-06
1.21618e-05
-2.94442e-06
1.14765e-05
-3.62546e-06
-5.18103e-06
1.06822e-05
1.34541e-05
-7.53421e-06
1.37393e-05
-6.47163e-06
1.40284e-05
-3.3171e-06
1.41066e-05
-2.66763e-06
1.41086e-05
-1.97141e-06
1.38937e-05
-1.77189e-06
1.36716e-05
-1.43571e-06
1.34873e-05
-1.06669e-06
1.32115e-05
-1.09157e-06
1.30567e-05
-7.31678e-07
1.28562e-05
-7.32544e-07
1.26245e-05
-8.43504e-07
1.24715e-05
-6.51567e-07
1.22255e-05
-8.90052e-07
1.19431e-05
-1.09942e-06
1.16312e-05
-1.28513e-06
1.12298e-05
-1.55036e-06
1.06249e-05
-2.33954e-06
9.86399e-06
-2.86453e-06
-4.0239e-06
8.70686e-06
1.35687e-05
-8.60289e-06
1.3654e-05
-6.55691e-06
1.36449e-05
-3.30802e-06
1.33702e-05
-2.39292e-06
1.30396e-05
-1.64084e-06
1.26154e-05
-1.3477e-06
1.22538e-05
-1.07408e-06
1.19668e-05
-7.79669e-07
1.1646e-05
-7.70789e-07
1.14476e-05
-5.33332e-07
1.1219e-05
-5.0392e-07
1.09809e-05
-6.0539e-07
1.08059e-05
-4.76593e-07
1.05479e-05
-6.31971e-07
1.02548e-05
-8.06343e-07
9.92404e-06
-9.5439e-07
9.5023e-06
-1.12863e-06
8.88104e-06
-1.71828e-06
8.10464e-06
-2.08814e-06
-2.96014e-06
7.04088e-06
1.33956e-05
-9.49847e-06
1.28865e-05
-6.04788e-06
1.23407e-05
-2.76218e-06
1.16931e-05
-1.74532e-06
1.11486e-05
-1.0963e-06
1.06489e-05
-8.47984e-07
1.02567e-05
-6.81892e-07
9.95443e-06
-4.77438e-07
9.65257e-06
-4.68929e-07
9.45431e-06
-3.35073e-07
9.24225e-06
-2.91853e-07
9.02417e-06
-3.87314e-07
8.85106e-06
-3.03486e-07
8.61022e-06
-3.91127e-07
8.33019e-06
-5.26316e-07
8.00535e-06
-6.29547e-07
7.59816e-06
-7.21439e-07
7.00111e-06
-1.12122e-06
6.25586e-06
-1.34289e-06
-1.99482e-06
5.29054e-06
1.24132e-05
-9.4117e-06
1.10029e-05
-4.63749e-06
9.99163e-06
-1.75096e-06
9.18531e-06
-9.39008e-07
8.62733e-06
-5.38316e-07
8.18291e-06
-4.03561e-07
7.8412e-06
-3.40188e-07
7.58607e-06
-2.22302e-07
7.34178e-06
-2.24642e-07
7.17383e-06
-1.67126e-07
7.00813e-06
-1.26148e-07
6.82472e-06
-2.03907e-07
6.67454e-06
-1.53308e-07
6.4744e-06
-1.90985e-07
6.22754e-06
-2.79455e-07
5.93528e-06
-3.37292e-07
5.57984e-06
-3.65991e-07
5.04999e-06
-5.91382e-07
4.39916e-06
-6.92051e-07
-1.13395e-06
3.53828e-06
1.01032e-05
-7.01489e-06
7.82824e-06
-2.36254e-06
6.72009e-06
-6.42811e-07
6.05011e-06
-2.69026e-07
5.64894e-06
-1.37151e-07
5.34709e-06
-1.01704e-07
5.10565e-06
-9.87552e-08
4.93798e-06
-5.46243e-08
4.77381e-06
-6.04779e-08
4.65653e-06
-4.98437e-08
4.5554e-06
-2.502e-08
4.41783e-06
-6.63375e-08
4.3107e-06
-4.61761e-08
4.17102e-06
-5.13112e-08
3.98143e-06
-8.98652e-08
3.75483e-06
-1.10691e-07
3.49468e-06
-1.05842e-07
3.08847e-06
-1.85168e-07
2.60698e-06
-2.10555e-07
-4.21303e-07
1.89433e-06
5.48511e-06
3.12257e-06
2.47975e-06
2.21073e-06
2.07358e-06
1.97187e-06
1.87312e-06
1.81849e-06
1.75802e-06
1.70817e-06
1.68315e-06
1.61681e-06
1.57064e-06
1.51933e-06
1.42946e-06
1.31877e-06
1.21293e-06
1.02776e-06
8.17206e-07
3.95903e-07
3.53209e-06
9.93811e-08
-1.07263e-06
5.79695e-06
2.14753e-06
-4.41239e-06
7.30746e-06
2.03677e-06
-3.54728e-06
8.51279e-06
1.18306e-06
-2.3884e-06
1.00329e-05
-1.53785e-07
-1.36635e-06
1.10543e-05
-1.63416e-06
6.12745e-07
1.17662e-05
-5.83448e-06
5.12263e-06
1.29697e-05
-9.8685e-06
8.66498e-06
1.37059e-05
-1.25542e-05
1.1818e-05
1.3906e-05
-1.65821e-05
1.6382e-05
1.31639e-05
-1.81397e-05
1.88818e-05
1.17584e-05
-1.86704e-05
2.00759e-05
1.0613e-05
-1.71781e-05
1.83235e-05
9.25917e-06
-1.58685e-05
1.72224e-05
8.43797e-06
-1.41731e-05
1.49943e-05
7.72469e-06
-1.09604e-05
1.16737e-05
7.36402e-06
-9.87452e-06
1.02352e-05
6.78189e-06
-7.96147e-06
8.5436e-06
6.3977e-06
-6.21195e-06
6.59614e-06
6.60724e-06
-2.26854e-06
2.05901e-06
6.34718e-06
6.92207e-07
-4.3215e-07
5.8326e-06
5.83887e-07
-6.9307e-08
6.66229e-06
3.81589e-06
-4.64558e-06
8.70745e-06
1.06664e-05
-1.27115e-05
1.00548e-05
1.53746e-05
-1.6722e-05
1.0768e-05
1.67579e-05
-1.74711e-05
1.12792e-05
1.5239e-05
-1.57502e-05
1.16683e-05
1.32773e-05
-1.36664e-05
1.21101e-05
1.15387e-05
-1.19805e-05
1.25088e-05
1.13038e-05
-1.17025e-05
1.31868e-05
8.89777e-06
-9.57573e-06
1.38648e-05
3.45484e-06
-4.13283e-06
1.4311e-05
1.41799e-06
-1.86427e-06
1.48481e-05
-4.95486e-07
-4.15499e-08
1.50502e-05
-4.57333e-06
4.37123e-06
1.51487e-05
-7.24898e-06
7.15047e-06
1.53903e-05
-8.17265e-06
7.93103e-06
1.5569e-05
-8.50168e-06
8.323e-06
1.56624e-05
-9.28015e-06
9.18669e-06
1.56989e-05
-1.04705e-05
1.04341e-05
1.56408e-05
-1.15818e-05
1.16399e-05
1.5527e-05
-1.27994e-05
1.29132e-05
1.55155e-05
-1.48886e-05
1.49002e-05
1.5442e-05
-1.79398e-05
1.80132e-05
1.49773e-05
-2.02753e-05
2.074e-05
1.42833e-05
-2.15691e-05
2.22631e-05
1.37029e-05
-2.35109e-05
2.40912e-05
1.30725e-05
-2.62793e-05
2.69097e-05
1.19884e-05
-2.7263e-05
2.83471e-05
1.05503e-05
-2.54885e-05
2.69266e-05
9.04747e-06
-2.2305e-05
2.38078e-05
7.64419e-06
-1.89574e-05
2.03607e-05
6.81248e-06
-1.71989e-05
1.80307e-05
6.72041e-06
-1.78873e-05
1.79794e-05
6.84767e-06
-1.88969e-05
1.87697e-05
6.76763e-06
-1.89493e-05
1.90294e-05
6.75837e-06
-1.9461e-05
1.94702e-05
6.99399e-06
-2.04846e-05
2.0249e-05
7.37245e-06
-2.08499e-05
2.04715e-05
7.89063e-06
-1.96003e-05
1.90821e-05
8.45489e-06
-1.78013e-05
1.72371e-05
9.01477e-06
-1.54692e-05
1.49093e-05
9.67277e-06
-1.14696e-05
1.08116e-05
1.02469e-05
-7.56226e-06
6.98811e-06
1.0648e-05
-4.19144e-06
3.79031e-06
1.0992e-05
3.16399e-07
-6.60355e-07
1.11737e-05
4.68291e-06
-4.86462e-06
1.11955e-05
7.62637e-06
-7.64816e-06
1.1341e-05
1.0321e-05
-1.04664e-05
1.16914e-05
1.31616e-05
-1.3512e-05
1.21743e-05
1.52599e-05
-1.57428e-05
1.25798e-05
1.72347e-05
-1.76402e-05
1.27178e-05
1.90447e-05
-1.91827e-05
1.25365e-05
1.96039e-05
-1.94226e-05
1.22759e-05
1.95329e-05
-1.92722e-05
1.1988e-05
1.95862e-05
-1.92983e-05
1.15349e-05
1.9353e-05
-1.88999e-05
1.1072e-05
1.84026e-05
-1.79397e-05
1.07267e-05
1.75921e-05
-1.72468e-05
1.04478e-05
1.73412e-05
-1.70624e-05
1.00862e-05
1.67143e-05
-1.63527e-05
9.70433e-06
1.51902e-05
-1.48083e-05
9.59933e-06
1.38701e-05
-1.37651e-05
9.64095e-06
1.35057e-05
-1.35473e-05
9.70992e-06
1.32452e-05
-1.33141e-05
9.95598e-06
1.27427e-05
-1.29888e-05
1.02545e-05
1.24669e-05
-1.27655e-05
1.03757e-05
1.2342e-05
-1.24632e-05
1.02934e-05
1.17799e-05
-1.16976e-05
1.01548e-05
1.09484e-05
-1.08098e-05
1.01134e-05
1.04651e-05
-1.04236e-05
1.03611e-05
1.00928e-05
-1.03405e-05
1.08523e-05
1.01863e-05
-1.06775e-05
1.14028e-05
1.04088e-05
-1.09594e-05
1.19399e-05
1.06762e-05
-1.12133e-05
1.24293e-05
1.07828e-05
-1.12722e-05
1.28301e-05
1.08079e-05
-1.12087e-05
1.32271e-05
1.04157e-05
-1.08127e-05
1.37205e-05
1.01287e-05
-1.06221e-05
1.41516e-05
9.91967e-06
-1.03508e-05
1.45824e-05
9.2667e-06
-9.69754e-06
1.49609e-05
8.34331e-06
-8.72174e-06
1.51154e-05
7.34119e-06
-7.4957e-06
1.52012e-05
5.85006e-06
-5.93586e-06
1.53157e-05
4.38552e-06
-4.5e-06
1.5219e-05
2.87993e-06
-2.78327e-06
1.51623e-05
1.03103e-06
-9.74311e-07
1.52015e-05
-2.54097e-07
2.14914e-07
1.51075e-05
-1.77697e-06
1.87095e-06
1.52102e-05
-3.75093e-06
3.64825e-06
1.52975e-05
-4.68798e-06
4.60062e-06
1.52659e-05
-5.95774e-06
5.98934e-06
1.5287e-05
-7.41255e-06
7.39147e-06
1.5159e-05
-8.48606e-06
8.61408e-06
1.50253e-05
-9.35872e-06
9.49242e-06
1.46519e-05
-1.00042e-05
1.03776e-05
1.4101e-05
-1.19348e-05
1.24857e-05
1.35838e-05
-1.33896e-05
1.39068e-05
1.2908e-05
-1.41316e-05
1.48074e-05
1.23209e-05
-1.58811e-05
1.64682e-05
1.17325e-05
-1.73998e-05
1.79882e-05
1.11731e-05
-2.16499e-05
2.22093e-05
1.08329e-05
-2.39338e-05
2.4274e-05
1.05659e-05
-2.03665e-05
2.06335e-05
1.0519e-05
-1.96676e-05
1.97145e-05
1.08609e-05
-2.24509e-05
2.2109e-05
1.12498e-05
-2.41814e-05
2.37926e-05
1.13553e-05
-2.48338e-05
2.47283e-05
1.12755e-05
-2.51523e-05
2.52321e-05
1.10583e-05
-2.47851e-05
2.50023e-05
1.07485e-05
-2.36576e-05
2.39674e-05
1.03976e-05
-2.18506e-05
2.22016e-05
1.00761e-05
-1.90255e-05
1.9347e-05
9.80844e-06
-1.54933e-05
1.57609e-05
9.49436e-06
-1.11167e-05
1.14308e-05
9.30866e-06
-6.417e-06
6.6027e-06
9.22992e-06
-1.90544e-06
1.98417e-06
9.14766e-06
2.30652e-06
-2.22426e-06
8.87062e-06
6.85988e-06
-6.58283e-06
8.65596e-06
1.19646e-05
-1.17499e-05
8.5186e-06
1.65925e-05
-1.64552e-05
8.66862e-06
1.87977e-05
-1.89477e-05
8.82136e-06
2.10106e-05
-2.11633e-05
8.95945e-06
2.26208e-05
-2.27589e-05
9.17606e-06
2.38243e-05
-2.40409e-05
9.07022e-06
2.41667e-05
-2.40609e-05
9.14003e-06
2.36316e-05
-2.37014e-05
9.07419e-06
2.40753e-05
-2.40095e-05
9.02396e-06
2.11959e-05
-2.11456e-05
8.8e-06
1.95032e-05
-1.92793e-05
8.46542e-06
1.72268e-05
-1.68922e-05
8.64379e-06
1.56228e-05
-1.58011e-05
8.31598e-06
1.45458e-05
-1.4218e-05
8.25872e-06
1.41832e-05
-1.4126e-05
8.41234e-06
1.44018e-05
-1.45554e-05
8.36159e-06
1.48323e-05
-1.47815e-05
8.74427e-06
1.57227e-05
-1.61054e-05
9.26127e-06
1.71076e-05
-1.76246e-05
9.67742e-06
1.72993e-05
-1.77155e-05
1.00825e-05
1.73847e-05
-1.77898e-05
1.04806e-05
1.83424e-05
-1.87405e-05
1.08031e-05
1.85065e-05
-1.88289e-05
1.11269e-05
1.63315e-05
-1.66554e-05
1.12951e-05
1.37129e-05
-1.3881e-05
1.1172e-05
9.67188e-06
-9.54885e-06
1.09718e-05
7.18059e-06
-6.98034e-06
1.07162e-05
2.30405e-06
-2.04841e-06
1.04066e-05
-2.42566e-06
2.73521e-06
1.00396e-05
-6.29083e-06
6.65779e-06
9.51337e-06
-6.40788e-06
6.93415e-06
9.65273e-06
-6.93292e-06
6.79356e-06
9.84648e-06
-8.61948e-06
8.42573e-06
1.00109e-05
-1.30966e-05
1.29322e-05
9.75871e-06
-1.40683e-05
1.43205e-05
9.21496e-06
-1.66727e-05
1.72165e-05
8.51597e-06
-1.70536e-05
1.77526e-05
8.11948e-06
-1.72675e-05
1.7664e-05
7.72694e-06
-1.63441e-05
1.67366e-05
7.52876e-06
-1.60099e-05
1.62081e-05
7.09141e-06
-1.46945e-05
1.51318e-05
6.87025e-06
-1.29086e-05
1.31297e-05
6.39534e-06
-1.01331e-05
1.0608e-05
5.96784e-06
-7.83102e-06
8.25852e-06
5.72807e-06
-4.72641e-06
4.96618e-06
5.72056e-06
-2.04533e-06
2.05284e-06
6.00385e-06
1.89422e-06
-2.17752e-06
6.00259e-06
5.41639e-06
-5.41512e-06
6.13992e-06
6.63739e-06
-6.77473e-06
5.89558e-06
8.64482e-06
-8.40048e-06
5.72134e-06
8.93493e-06
-8.76068e-06
5.83551e-06
1.03045e-05
-1.04187e-05
6.1828e-06
1.15481e-05
-1.18954e-05
6.10809e-06
1.23257e-05
-1.2251e-05
6.10811e-06
1.21189e-05
-1.21189e-05
5.99474e-06
1.28289e-05
-1.27155e-05
5.81648e-06
1.3659e-05
-1.34808e-05
6.04634e-06
1.51914e-05
-1.54213e-05
5.54148e-06
1.96178e-05
-1.91129e-05
5.95093e-06
2.26125e-05
-2.30219e-05
3.47293e-05
-3.44125e-05
5.63419e-06
6.13346e-06
-5.03227e-07
7.75555e-06
5.25441e-07
8.86216e-06
9.30156e-07
9.52987e-06
5.15359e-07
1.07e-05
-1.32395e-06
1.24073e-05
-3.34146e-06
1.33672e-05
-6.7943e-06
1.42365e-05
-1.07378e-05
1.45469e-05
-1.28647e-05
1.42913e-05
-1.63264e-05
1.33321e-05
-1.71806e-05
1.18264e-05
-1.71647e-05
1.08222e-05
-1.6174e-05
9.55923e-06
-1.46055e-05
8.81943e-06
-1.34333e-05
8.13867e-06
-1.02796e-05
7.56965e-06
-9.30551e-06
7.14741e-06
-7.53922e-06
6.61099e-06
-5.67553e-06
6.70952e-06
-2.36708e-06
6.74927e-06
6.52462e-07
6.34333e-06
9.8983e-07
6.9265e-06
3.23272e-06
8.88858e-06
8.7043e-06
1.03468e-05
1.39164e-05
1.13134e-05
1.57912e-05
1.19719e-05
1.45805e-05
1.25e-05
1.27492e-05
1.30068e-05
1.1032e-05
1.33335e-05
1.09771e-05
1.40353e-05
8.19597e-06
1.47129e-05
2.7772e-06
1.51525e-05
9.78337e-07
1.55068e-05
-8.49777e-07
1.54942e-05
-4.56065e-06
1.54727e-05
-7.22749e-06
1.55946e-05
-8.29458e-06
1.56975e-05
-8.60462e-06
1.58347e-05
-9.41726e-06
1.59034e-05
-1.05392e-05
1.58324e-05
-1.15108e-05
1.57373e-05
-1.27044e-05
1.57317e-05
-1.4883e-05
1.55591e-05
-1.77672e-05
1.49709e-05
-1.96871e-05
1.42017e-05
-2.07998e-05
1.35816e-05
-2.28908e-05
1.28617e-05
-2.55594e-05
1.16631e-05
-2.60644e-05
1.01547e-05
-2.39801e-05
8.62176e-06
-2.07721e-05
7.27278e-06
-1.76085e-05
6.5989e-06
-1.65251e-05
6.60197e-06
-1.78904e-05
6.71096e-06
-1.90059e-05
6.61208e-06
-1.88505e-05
6.56949e-06
-1.94184e-05
6.81201e-06
-2.07271e-05
7.16959e-06
-2.12075e-05
7.65622e-06
-2.0087e-05
8.17301e-06
-1.83181e-05
8.67819e-06
-1.59744e-05
9.32326e-06
-1.21146e-05
9.96554e-06
-8.20454e-06
1.03273e-05
-4.55316e-06
1.05917e-05
5.19483e-08
1.09053e-05
4.36932e-06
1.10437e-05
7.48797e-06
1.10345e-05
1.03302e-05
1.11138e-05
1.30823e-05
1.14374e-05
1.49363e-05
1.18811e-05
1.6791e-05
1.21552e-05
1.87705e-05
1.21088e-05
1.96504e-05
1.1968e-05
1.96737e-05
1.17792e-05
1.9775e-05
1.14244e-05
1.97079e-05
1.10302e-05
1.87968e-05
1.07007e-05
1.79216e-05
1.04388e-05
1.76031e-05
1.0108e-05
1.70452e-05
9.71924e-06
1.55789e-05
9.55312e-06
1.40363e-05
9.54728e-06
1.35116e-05
9.56704e-06
1.32254e-05
9.75279e-06
1.2557e-05
1.00737e-05
1.21461e-05
1.03112e-05
1.21044e-05
1.03313e-05
1.17599e-05
1.02073e-05
1.10723e-05
1.01261e-05
1.05463e-05
1.02927e-05
9.92619e-06
1.07548e-05
9.72427e-06
1.13608e-05
9.80283e-06
1.19829e-05
1.00541e-05
1.25663e-05
1.01994e-05
1.30392e-05
1.0335e-05
1.34081e-05
1.00468e-05
1.38174e-05
9.71949e-06
1.42088e-05
9.52825e-06
1.46321e-05
8.8434e-06
1.50498e-05