/*--------------------------------*- C++ -*----------------------------------*\
| =========                 |                                                 |
| \\      /  F ield         | OpenFOAM: The Open Source CFD Toolbox           |
|  \\    /   O peration     | Version:  2.4.0                                 |
|   \\  /    A nd           | Web:      www.OpenFOAM.org                      |
|    \\/     M anipulation  |                                                 |
\*---------------------------------------------------------------------------*/
FoamFile
{
    version     2.0;
    format      ascii;
    class       volVectorField;
    location    "0.041";
    object      UMean;
}
// * * * * * * * * * * * * * * * * * * * * * * * * * * * * * * * * * * * * * //

dimensions      [0 1 -1 0 0 0 0];

internalField   nonuniform List<vector> 
17600
(
(5.39122 0.302373 0)
(3.18709 0.0610135 0)
(2.44247 -0.00091378 0)
(2.11882 -0.0034825 0)
(1.99541 -0.00135752 0)
(1.92278 -0.000303 0)
(1.87273 -3.12689e-05 0)
(1.8341 -8.07326e-05 0)
(1.81123 -6.69746e-05 0)
(1.78952 1.49216e-05 0)
(1.77813 6.56276e-05 0)
(1.75947 0.000103095 0)
(1.75131 9.77305e-05 0)
(1.73473 -4.28031e-05 0)
(1.73203 4.41893e-07 0)
(1.72378 -0.000353881 0)
(1.72305 -2.31412e-05 0)
(1.74644 -7.68797e-05 0)
(1.78791 -0.00806082 0)
(1.781 0.00322569 0)
(8.57658 0.845387 0)
(7.11503 0.367148 0)
(6.07625 0.11386 0)
(5.3826 0.0456358 0)
(5.02346 0.023268 0)
(4.80368 0.0151062 0)
(4.66 0.0109071 0)
(4.54953 0.00744458 0)
(4.48274 0.00537708 0)
(4.41896 0.00411251 0)
(4.38778 0.0035935 0)
(4.33649 0.00357455 0)
(4.31769 0.00292239 0)
(4.27253 0.0029393 0)
(4.26554 0.0010611 0)
(4.24073 0.00255125 0)
(4.22964 -0.0023445 0)
(4.28689 -0.00235325 0)
(4.232 -0.00724166 0)
(4.6164 -0.169096 0)
(9.77146 0.985414 0)
(9.41677 0.546345 0)
(8.65603 0.222236 0)
(7.89911 0.116148 0)
(7.4084 0.0688576 0)
(7.08212 0.0441849 0)
(6.86683 0.030959 0)
(6.69745 0.0213412 0)
(6.59451 0.0156697 0)
(6.49302 0.0116411 0)
(6.4459 0.010149 0)
(6.36573 0.00878261 0)
(6.34051 0.00804318 0)
(6.26956 0.0063272 0)
(6.26215 0.00414941 0)
(6.21405 0.00348821 0)
(6.21416 -0.00278985 0)
(6.23153 -0.00358577 0)
(6.2379 -0.0291815 0)
(6.46541 -0.215039 0)
(10.0538 0.911209 0)
(10.5541 0.626934 0)
(10.318 0.300289 0)
(9.76481 0.186338 0)
(9.29557 0.125238 0)
(8.93378 0.084069 0)
(8.68343 0.0591126 0)
(8.47351 0.0410247 0)
(8.3471 0.0303395 0)
(8.21431 0.0225799 0)
(8.15612 0.0189168 0)
(8.05088 0.0172029 0)
(8.0225 0.0140568 0)
(7.92846 0.0140854 0)
(7.92399 0.00597169 0)
(7.84639 0.0121649 0)
(7.87642 -0.00943925 0)
(7.80534 0.00679403 0)
(7.94386 -0.0720426 0)
(7.87229 -0.161536 0)
(9.97922 0.776601 0)
(10.8726 0.62638 0)
(11.1007 0.321967 0)
(10.8854 0.225578 0)
(10.5961 0.172512 0)
(10.302 0.124837 0)
(10.0797 0.0909563 0)
(9.86508 0.0640705 0)
(9.73887 0.0483498 0)
(9.58931 0.0354889 0)
(9.53008 0.0307831 0)
(9.4068 0.0251973 0)
(9.38229 0.0242598 0)
(9.26646 0.0175686 0)
(9.27415 0.017443 0)
(9.16574 0.00619225 0)
(9.21253 0.0127856 0)
(9.12028 -0.0267497 0)
(9.20821 -0.0188105 0)
(9.17735 -0.267333 0)
(9.90275 0.667622 0)
(10.8144 0.596069 0)
(11.2535 0.301568 0)
(11.2964 0.221782 0)
(11.2412 0.190571 0)
(11.1031 0.151298 0)
(10.9894 0.116744 0)
(10.828 0.0857034 0)
(10.7396 0.0657573 0)
(10.6032 0.050111 0)
(10.5552 0.0415616 0)
(10.4363 0.0371225 0)
(10.4121 0.0299205 0)
(10.3018 0.0301236 0)
(10.3004 0.0146562 0)
(10.2027 0.0251337 0)
(10.2288 -0.0112296 0)
(10.1509 0.017496 0)
(10.2014 -0.0923347 0)
(10.1359 -0.167231 0)
(9.88823 0.58192 0)
(10.6974 0.564908 0)
(11.1774 0.276197 0)
(11.304 0.195773 0)
(11.381 0.180666 0)
(11.3687 0.154321 0)
(11.3878 0.126884 0)
(11.3199 0.0956627 0)
(11.3131 0.0777064 0)
(11.2244 0.058912 0)
(11.2197 0.053105 0)
(11.1223 0.0430668 0)
(11.1236 0.0434787 0)
(11.0197 0.0305188 0)
(11.0365 0.0338859 0)
(10.9351 0.0127311 0)
(10.9778 0.0199792 0)
(10.8829 -0.02134 0)
(10.9514 -0.057502 0)
(10.8342 -0.19129 0)
(9.89947 0.505279 0)
(10.6036 0.531269 0)
(11.0826 0.259491 0)
(11.2253 0.172385 0)
(11.3324 0.162219 0)
(11.3587 0.145924 0)
(11.437 0.123113 0)
(11.4381 0.0952359 0)
(11.4933 0.0768346 0)
(11.473 0.0622735 0)
(11.5107 0.0538441 0)
(11.474 0.0499658 0)
(11.4945 0.0428177 0)
(11.445 0.0413488 0)
(11.4589 0.0280704 0)
(11.4075 0.0294117 0)
(11.4303 0.00540015 0)
(11.3831 -0.00519803 0)
(11.416 -0.0694421 0)
(11.3269 -0.225464 0)
(9.90327 0.437315 0)
(10.5376 0.489926 0)
(10.9971 0.247822 0)
(11.1647 0.151245 0)
(11.2643 0.144949 0)
(11.306 0.133696 0)
(11.3785 0.116904 0)
(11.4116 0.0879996 0)
(11.4724 0.0731566 0)
(11.4965 0.0561082 0)
(11.5463 0.0531895 0)
(11.559 0.0451329 0)
(11.5951 0.0463019 0)
(11.5933 0.0358805 0)
(11.6207 0.0348841 0)
(11.6114 0.0216724 0)
(11.641 0.0120771 0)
(11.6309 -0.0106908 0)
(11.6548 -0.0860756 0)
(11.5906 -0.206668 0)
(9.90274 0.375837 0)
(10.4799 0.446383 0)
(10.9246 0.236089 0)
(11.112 0.132675 0)
(11.2106 0.127367 0)
(11.257 0.122655 0)
(11.3233 0.108441 0)
(11.362 0.0822464 0)
(11.422 0.0660315 0)
(11.4545 0.0518058 0)
(11.5076 0.0475097 0)
(11.532 0.0421938 0)
(11.5759 0.0420351 0)
(11.5904 0.034337 0)
(11.6279 0.0317871 0)
(11.6388 0.0181153 0)
(11.6776 0.0107627 0)
(11.6885 -0.0309226 0)
(11.7156 -0.079265 0)
(11.6581 -0.246845 0)
(9.90263 0.320857 0)
(10.4283 0.401971 0)
(10.8594 0.225005 0)
(11.0641 0.114697 0)
(11.1637 0.11094 0)
(11.2158 0.110521 0)
(11.2751 0.100742 0)
(11.32 0.0753798 0)
(11.3752 0.0608192 0)
(11.4153 0.0460619 0)
(11.4631 0.0433325 0)
(11.4955 0.0375235 0)
(11.5341 0.0379761 0)
(11.558 0.0305384 0)
(11.5912 0.0271531 0)
(11.6131 0.0168408 0)
(11.6469 0.000811234 0)
(11.6688 -0.0279331 0)
(11.6869 -0.0987796 0)
(11.6283 -0.251698 0)
(9.90315 0.272054 0)
(10.3837 0.357418 0)
(10.8011 0.212478 0)
(11.0194 0.0979811 0)
(11.1235 0.0952243 0)
(11.1785 0.0982904 0)
(11.2339 0.0922106 0)
(11.2817 0.0682616 0)
(11.336 0.0551226 0)
(11.3799 0.0407032 0)
(11.4267 0.0396834 0)
(11.462 0.0330088 0)
(11.4984 0.0357755 0)
(11.5253 0.0249026 0)
(11.5566 0.0261516 0)
(11.5815 0.00660215 0)
(11.6128 -0.000154205 0)
(11.6341 -0.0446634 0)
(11.6446 -0.106558 0)
(11.5779 -0.256193 0)
(9.90507 0.22854 0)
(10.3447 0.313177 0)
(10.7512 0.19687 0)
(10.9771 0.083165 0)
(11.0899 0.080136 0)
(11.1444 0.0860693 0)
(11.1993 0.0829588 0)
(11.246 0.0607612 0)
(11.303 0.0491621 0)
(11.3475 0.035548 0)
(11.3968 0.0353446 0)
(11.4316 0.0288406 0)
(11.4698 0.030978 0)
(11.4956 0.0221195 0)
(11.5287 0.0207981 0)
(11.5521 0.00542554 0)
(11.5839 -0.00808744 0)
(11.601 -0.0513918 0)
(11.6072 -0.113086 0)
(11.5278 -0.261044 0)
(9.90598 0.189554 0)
(10.3133 0.269856 0)
(10.7072 0.176318 0)
(10.9406 0.0707145 0)
(11.0602 0.0670686 0)
(11.1161 0.0739835 0)
(11.1683 0.0733136 0)
(11.2162 0.0530042 0)
(11.2732 0.0432367 0)
(11.3205 0.0301495 0)
(11.3697 0.0310518 0)
(11.4067 0.0244178 0)
(11.4437 0.0275218 0)
(11.4715 0.0167912 0)
(11.5032 0.0171586 0)
(11.5281 -0.00118405 0)
(11.5571 -0.014383 0)
(11.5734 -0.0576729 0)
(11.5722 -0.120909 0)
(11.4864 -0.261609 0)
(9.90641 0.154024 0)
(10.2875 0.227634 0)
(10.6699 0.151881 0)
(10.9094 0.0599217 0)
(11.0357 0.0550294 0)
(11.0923 0.0620842 0)
(11.1428 0.0632514 0)
(11.1907 0.0449688 0)
(11.2485 0.0370612 0)
(11.2973 0.0251733 0)
(11.3473 0.0267239 0)
(11.385 0.0201951 0)
(11.4223 0.0231544 0)
(11.4504 0.0131794 0)
(11.4821 0.0129259 0)
(11.5066 -0.00589365 0)
(11.5347 -0.0194917 0)
(11.5483 -0.0645029 0)
(11.5419 -0.126714 0)
(11.4491 -0.259484 0)
(9.90668 0.121942 0)
(10.2666 0.185519 0)
(10.6392 0.125624 0)
(10.8835 0.0493893 0)
(11.0156 0.0440344 0)
(11.073 0.0501291 0)
(11.122 0.0526339 0)
(11.1698 0.036666 0)
(11.2282 0.030972 0)
(11.2782 0.0198232 0)
(11.329 0.022207 0)
(11.3673 0.0156268 0)
(11.4047 0.0184774 0)
(11.4331 0.00881214 0)
(11.4647 0.00794996 0)
(11.4889 -0.0102013 0)
(11.5156 -0.0253232 0)
(11.5267 -0.0704329 0)
(11.5155 -0.13202 0)
(11.4165 -0.25576 0)
(9.90663 0.0924501 0)
(10.2505 0.143499 0)
(10.6147 0.0987092 0)
(10.8629 0.0387992 0)
(10.9994 0.0335294 0)
(11.058 0.0382802 0)
(11.1055 0.0417428 0)
(11.1535 0.0281783 0)
(11.212 0.02452 0)
(11.2633 0.014952 0)
(11.3143 0.0174725 0)
(11.3535 0.0114081 0)
(11.3906 0.01413 0)
(11.4195 0.00474074 0)
(11.4504 0.0033376 0)
(11.4745 -0.0147029 0)
(11.4994 -0.0311782 0)
(11.5085 -0.0751058 0)
(11.4926 -0.135547 0)
(11.3888 -0.251092 0)
(9.90655 0.0649082 0)
(10.2388 0.10183 0)
(10.5965 0.0712384 0)
(10.8476 0.02779 0)
(10.9874 0.0237601 0)
(11.047 0.0267128 0)
(11.0932 0.0305393 0)
(11.1413 0.0196332 0)
(11.2 0.0182418 0)
(11.2521 0.00985899 0)
(11.3034 0.0127684 0)
(11.3431 0.00704105 0)
(11.3801 0.00925836 0)
(11.4091 0.000661402 0)
(11.4396 -0.0014705 0)
(11.4632 -0.0192069 0)
(11.4865 -0.0362546 0)
(11.4934 -0.0796626 0)
(11.4734 -0.13812 0)
(11.3649 -0.246334 0)
(9.90642 0.0388206 0)
(10.2312 0.0603111 0)
(10.5845 0.0435418 0)
(10.8374 0.0163374 0)
(10.9794 0.0144942 0)
(11.0397 0.0152042 0)
(11.0851 0.0192743 0)
(11.1332 0.0109821 0)
(11.192 0.0118033 0)
(11.2447 0.00480518 0)
(11.2962 0.00805435 0)
(11.3361 0.00247904 0)
(11.373 0.00457238 0)
(11.4021 -0.00347212 0)
(11.4319 -0.00625813 0)
(11.455 -0.0234483 0)
(11.4767 -0.041272 0)
(11.4815 -0.0833072 0)
(11.4576 -0.140245 0)
(11.3452 -0.240165 0)
(9.90624 0.0135115 0)
(10.2275 0.0190955 0)
(10.5784 0.0154583 0)
(10.8324 0.00453754 0)
(10.9753 0.00557595 0)
(11.0363 0.00398597 0)
(11.081 0.00771488 0)
(11.1293 0.00237062 0)
(11.1879 0.00527542 0)
(11.241 -2.70515e-05 0)
(11.2925 0.00318948 0)
(11.3327 -0.00186043 0)
(11.3692 -0.000106948 0)
(11.3984 -0.00755352 0)
(11.4275 -0.0109499 0)
(11.4499 -0.0274646 0)
(11.47 -0.0459542 0)
(11.4727 -0.0863687 0)
(11.4452 -0.141812 0)
(11.3299 -0.233168 0)
(9.90606 -0.0114561 0)
(10.2277 -0.0221379 0)
(10.5783 -0.0126709 0)
(10.8325 -0.00740937 0)
(10.9753 -0.00319666 0)
(11.0364 -0.00733 0)
(11.0808 -0.0038552 0)
(11.1293 -0.00635706 0)
(11.1878 -0.00130735 0)
(11.241 -0.00500621 0)
(11.2923 -0.00164002 0)
(11.3326 -0.00636899 0)
(11.3688 -0.00486425 0)
(11.3978 -0.0117607 0)
(11.4262 -0.0156075 0)
(11.4478 -0.0315447 0)
(11.4664 -0.0504125 0)
(11.4669 -0.0892645 0)
(11.4365 -0.142718 0)
(11.3183 -0.226088 0)
(9.90586 -0.0367916 0)
(10.2318 -0.0633117 0)
(10.5841 -0.0407625 0)
(10.8378 -0.019155 0)
(10.9792 -0.0122193 0)
(11.0403 -0.0184975 0)
(11.0847 -0.0154543 0)
(11.1335 -0.0148935 0)
(11.1916 -0.00791571 0)
(11.2447 -0.00988507 0)
(11.2957 -0.00641121 0)
(11.3359 -0.0108625 0)
(11.3718 -0.00941271 0)
(11.4005 -0.0159465 0)
(11.4281 -0.020012 0)
(11.4488 -0.0354699 0)
(11.4658 -0.054348 0)
(11.4643 -0.0918249 0)
(11.4312 -0.14284 0)
(11.31 -0.218563 0)
(9.90564 -0.0629358 0)
(10.2398 -0.104716 0)
(10.596 -0.0685826 0)
(10.8483 -0.0305022 0)
(10.987 -0.0216453 0)
(11.0478 -0.0297888 0)
(11.0926 -0.0270076 0)
(11.1418 -0.0233005 0)
(11.1994 -0.0145832 0)
(11.2522 -0.0147471 0)
(11.3026 -0.0112216 0)
(11.3426 -0.0153006 0)
(11.3781 -0.0139738 0)
(11.4064 -0.0200851 0)
(11.4332 -0.0243385 0)
(11.4529 -0.0391945 0)
(11.4683 -0.0581193 0)
(11.4648 -0.094005 0)
(11.4291 -0.14257 0)
(11.306 -0.210894 0)
(9.90539 -0.0905276 0)
(10.2519 -0.146343 0)
(10.614 -0.0961032 0)
(10.864 -0.0413303 0)
(10.9989 -0.0316583 0)
(11.0592 -0.0411692 0)
(11.1046 -0.0384683 0)
(11.1542 -0.0315686 0)
(11.2111 -0.0212682 0)
(11.2634 -0.0195947 0)
(11.3131 -0.016027 0)
(11.3529 -0.0197552 0)
(11.3878 -0.018417 0)
(11.4156 -0.0242365 0)
(11.4416 -0.0284516 0)
(11.4602 -0.0428435 0)
(11.474 -0.0614943 0)
(11.4685 -0.0959832 0)
(11.4307 -0.141962 0)
(11.306 -0.20303 0)
(9.90507 -0.120103 0)
(10.2684 -0.18821 0)
(10.6382 -0.123243 0)
(10.8849 -0.0517438 0)
(11.0148 -0.0423162 0)
(11.0745 -0.0526715 0)
(11.1208 -0.0498066 0)
(11.1708 -0.0396152 0)
(11.2269 -0.0279948 0)
(11.2785 -0.0243982 0)
(11.3273 -0.0208221 0)
(11.3667 -0.0241342 0)
(11.4011 -0.0227725 0)
(11.4283 -0.0283469 0)
(11.4533 -0.0323349 0)
(11.4708 -0.0463161 0)
(11.483 -0.0644831 0)
(11.4756 -0.0978012 0)
(11.4358 -0.140955 0)
(11.3097 -0.19496 0)
(9.90465 -0.152303 0)
(10.2894 -0.230196 0)
(10.6688 -0.149657 0)
(10.911 -0.0620162 0)
(11.0349 -0.0536682 0)
(11.094 -0.0642179 0)
(11.1414 -0.0609013 0)
(11.1918 -0.0473903 0)
(11.2469 -0.0347593 0)
(11.2977 -0.0291435 0)
(11.3454 -0.0256527 0)
(11.3844 -0.0283794 0)
(11.4179 -0.027152 0)
(11.4446 -0.0323294 0)
(11.4684 -0.0361264 0)
(11.4848 -0.0495647 0)
(11.4952 -0.0671578 0)
(11.486 -0.099452 0)
(11.4446 -0.139819 0)
(11.3178 -0.18713 0)
(9.90398 -0.187865 0)
(10.3155 -0.272292 0)
(10.706 -0.17443 0)
(10.9424 -0.0725679 0)
(11.0592 -0.0658418 0)
(11.1179 -0.075694 0)
(11.1666 -0.0716255 0)
(11.2174 -0.0547997 0)
(11.2712 -0.0414938 0)
(11.3211 -0.0338064 0)
(11.3673 -0.0304671 0)
(11.406 -0.032412 0)
(11.4386 -0.0314776 0)
(11.4647 -0.0361887 0)
(11.4872 -0.0397033 0)
(11.5025 -0.0526712 0)
(11.5109 -0.0692907 0)
(11.5001 -0.101173 0)
(11.4573 -0.138393 0)
(11.3302 -0.179587 0)
(9.90303 -0.227092 0)
(10.3473 -0.315316 0)
(10.7499 -0.195359 0)
(10.9793 -0.0845937 0)
(11.0885 -0.0793316 0)
(11.1465 -0.087252 0)
(11.1968 -0.081887 0)
(11.2477 -0.0619506 0)
(11.3002 -0.0481595 0)
(11.3489 -0.0384306 0)
(11.3935 -0.0352478 0)
(11.4318 -0.036277 0)
(11.4633 -0.0356983 0)
(11.489 -0.0399128 0)
(11.5099 -0.0430191 0)
(11.5242 -0.0556024 0)
(11.5302 -0.0709395 0)
(11.5182 -0.102871 0)
(11.474 -0.136865 0)
(11.3473 -0.172699 0)
(9.90211 -0.270611 0)
(10.3852 -0.359481 0)
(10.8008 -0.211328 0)
(11.0204 -0.0990983 0)
(11.1227 -0.0944758 0)
(11.1793 -0.0990179 0)
(11.232 -0.0917559 0)
(11.2822 -0.0688656 0)
(11.3338 -0.0548946 0)
(11.3806 -0.0430047 0)
(11.4242 -0.0402005 0)
(11.4617 -0.0398279 0)
(11.4924 -0.0401482 0)
(11.5174 -0.0431022 0)
(11.5368 -0.0465311 0)
(11.5499 -0.0578651 0)
(11.5536 -0.0726469 0)
(11.5403 -0.103961 0)
(11.495 -0.135848 0)
(11.3699 -0.166769 0)
(9.90192 -0.319651 0)
(10.429 -0.40378 0)
(10.8596 -0.224064 0)
(11.0639 -0.115443 0)
(11.1633 -0.110683 0)
(11.2149 -0.110642 0)
(11.2737 -0.101028 0)
(11.3196 -0.0752844 0)
(11.374 -0.0615818 0)
(11.4155 -0.0474161 0)
(11.4614 -0.0452556 0)
(11.4949 -0.0430805 0)
(11.5282 -0.0446789 0)
(11.5493 -0.0458132 0)
(11.5699 -0.050004 0)
(11.5788 -0.0595737 0)
(11.5821 -0.0740266 0)
(11.5649 -0.104753 0)
(11.5193 -0.134489 0)
(11.3945 -0.164289 0)
(9.90177 -0.374665 0)
(10.4792 -0.448032 0)
(10.9266 -0.235555 0)
(11.1091 -0.133003 0)
(11.2123 -0.127391 0)
(11.2531 -0.12211 0)
(11.3251 -0.109528 0)
(11.3589 -0.081563 0)
(11.4245 -0.067993 0)
(11.4523 -0.0521706 0)
(11.5093 -0.0502673 0)
(11.5289 -0.0465407 0)
(11.5726 -0.0490529 0)
(11.5788 -0.0483868 0)
(11.6071 -0.0530279 0)
(11.5998 -0.0610643 0)
(11.6074 -0.0743478 0)
(11.5733 -0.105494 0)
(11.5281 -0.131096 0)
(11.3923 -0.166468 0)
(9.89818 -0.435816 0)
(10.5395 -0.491962 0)
(10.9991 -0.246829 0)
(11.1613 -0.151908 0)
(11.2685 -0.144647 0)
(11.2995 -0.13363 0)
(11.3857 -0.117486 0)
(11.4031 -0.088062 0)
(11.4821 -0.0744155 0)
(11.4868 -0.0573575 0)
(11.5561 -0.0553733 0)
(11.5462 -0.0499759 0)
(11.5997 -0.0530097 0)
(11.5705 -0.0500581 0)
(11.6059 -0.0552256 0)
(11.5585 -0.0608013 0)
(11.5703 -0.0732451 0)
(11.4939 -0.103634 0)
(11.4478 -0.124746 0)
(11.2783 -0.168392 0)
(9.88963 -0.504043 0)
(10.614 -0.532907 0)
(11.0771 -0.258902 0)
(11.2302 -0.172586 0)
(11.3299 -0.162383 0)
(11.3597 -0.145184 0)
(11.4382 -0.124457 0)
(11.4351 -0.0943025 0)
(11.4982 -0.0795891 0)
(11.4654 -0.0614656 0)
(11.5175 -0.0585 0)
(11.4593 -0.0512496 0)
(11.4982 -0.0540332 0)
(11.4152 -0.0485372 0)
(11.4434 -0.054425 0)
(11.3408 -0.0561427 0)
(11.3532 -0.0700671 0)
(11.2215 -0.0950452 0)
(11.1774 -0.117203 0)
(10.963 -0.160717 0)
(9.88318 -0.580669 0)
(10.7067 -0.566638 0)
(11.1703 -0.275199 0)
(11.3111 -0.196455 0)
(11.3747 -0.180324 0)
(11.3735 -0.154413 0)
(11.3841 -0.127255 0)
(11.3214 -0.0959505 0)
(11.3126 -0.0786791 0)
(11.2206 -0.0598938 0)
(11.2203 -0.0551752 0)
(11.111 -0.0472217 0)
(11.1188 -0.0489366 0)
(10.991 -0.0428176 0)
(11.0094 -0.0484415 0)
(10.8628 -0.0484049 0)
(10.8812 -0.0627619 0)
(10.7012 -0.0827447 0)
(10.6681 -0.105632 0)
(10.4077 -0.14509 0)
(9.90061 -0.666985 0)
(10.8199 -0.597044 0)
(11.2481 -0.301055 0)
(11.3022 -0.222221 0)
(11.2351 -0.190461 0)
(11.1084 -0.151203 0)
(10.9848 -0.117297 0)
(10.8305 -0.085543 0)
(10.7374 -0.0672661 0)
(10.5995 -0.0499816 0)
(10.5549 -0.0450544 0)
(10.4219 -0.0382386 0)
(10.408 -0.0395663 0)
(10.2631 -0.0344304 0)
(10.2754 -0.0396567 0)
(10.1072 -0.0391984 0)
(10.1324 -0.0531232 0)
(9.91806 -0.0681201 0)
(9.8985 -0.091311 0)
(9.59589 -0.120221 0)
(9.97848 -0.776019 0)
(10.8759 -0.627045 0)
(11.0974 -0.321623 0)
(10.8899 -0.225949 0)
(10.5909 -0.172343 0)
(10.3072 -0.124919 0)
(10.0745 -0.0911663 0)
(9.86877 -0.0642646 0)
(9.73412 -0.0491083 0)
(9.58828 -0.0361399 0)
(9.52489 -0.0325122 0)
(9.3955 -0.0279799 0)
(9.37008 -0.029132 0)
(9.22994 -0.0256606 0)
(9.23545 -0.0299413 0)
(9.06653 -0.0297851 0)
(9.09177 -0.0420456 0)
(8.86126 -0.0519976 0)
(8.85292 -0.0757131 0)
(8.51711 -0.0853147 0)
(10.0538 -0.910878 0)
(10.5561 -0.62736 0)
(10.316 -0.300125 0)
(9.76794 -0.186574 0)
(9.2915 -0.125116 0)
(8.938 -0.084124 0)
(8.67859 -0.0592809 0)
(8.47703 -0.0411468 0)
(8.34168 -0.030995 0)
(8.21366 -0.0228918 0)
(8.14935 -0.0207389 0)
(8.03916 -0.018365 0)
(8.00867 -0.0192014 0)
(7.88753 -0.0173578 0)
(7.88467 -0.0202619 0)
(7.73275 -0.0208022 0)
(7.74977 -0.029925 0)
(7.52504 -0.0362979 0)
(7.52402 -0.0572989 0)
(7.16489 -0.0514767 0)
(9.77183 -0.985231 0)
(9.41793 -0.546585 0)
(8.65489 -0.222162 0)
(7.90095 -0.116263 0)
(7.40555 -0.0687862 0)
(7.08512 -0.0442206 0)
(6.86301 -0.0310627 0)
(6.70007 -0.0214615 0)
(6.58963 -0.0160364 0)
(6.49202 -0.0119743 0)
(6.43866 -0.0110012 0)
(6.35481 -0.0102015 0)
(6.32472 -0.0106616 0)
(6.23087 -0.0100257 0)
(6.22033 -0.0115502 0)
(6.09902 -0.012604 0)
(6.10209 -0.0178996 0)
(5.90861 -0.0221536 0)
(5.90602 -0.0369096 0)
(5.54701 -0.024713 0)
(8.57692 -0.84531 0)
(7.11571 -0.367254 0)
(6.07567 -0.113849 0)
(5.38343 -0.0456648 0)
(5.02173 -0.0232381 0)
(4.80555 -0.0151235 0)
(4.6574 -0.0109671 0)
(4.55103 -0.00750759 0)
(4.47906 -0.00554683 0)
(4.41765 -0.00427751 0)
(4.3817 -0.00406435 0)
(4.32744 -0.00408552 0)
(4.30309 -0.00424257 0)
(4.2411 -0.00424516 0)
(4.22711 -0.00475226 0)
(4.14537 -0.00574221 0)
(4.13562 -0.00774715 0)
(3.99794 -0.0104559 0)
(3.98274 -0.017129 0)
(3.68362 -0.00849491 0)
(5.3914 -0.302355 0)
(3.18739 -0.0610368 0)
(2.44224 0.000916024 0)
(2.11894 0.00348959 0)
(1.9949 0.00135829 0)
(1.92341 0.000301738 0)
(1.87173 1.81395e-05 0)
(1.83443 7.12378e-05 0)
(1.80956 5.41043e-05 0)
(1.7885 -4.38092e-05 0)
(1.775 -8.77884e-05 0)
(1.75458 -0.00023081 0)
(1.74286 -0.000190298 0)
(1.71862 -0.00030496 0)
(1.70919 -0.000236875 0)
(1.67631 -0.000567504 0)
(1.66435 -0.000493087 0)
(1.60628 -0.00121173 0)
(1.58297 -0.00153267 0)
(1.44396 0.00984604 0)
(2.80597 -0.671009 0)
(3.30241 -0.561675 0)
(3.69915 -0.576313 0)
(4.11417 -0.644439 0)
(4.419 -0.700731 0)
(4.72055 -0.733055 0)
(5.0675 -0.752397 0)
(5.38042 -0.77715 0)
(5.76526 -0.7635 0)
(6.08763 -0.73021 0)
(6.46861 -0.73977 0)
(6.84813 -0.769263 0)
(7.23392 -0.852196 0)
(7.56266 -0.953832 0)
(7.81867 -1.08304 0)
(8.0149 -1.23942 0)
(8.16483 -1.42357 0)
(8.26043 -1.6206 0)
(8.31787 -1.82668 0)
(8.35423 -2.0429 0)
(8.35893 -2.25168 0)
(8.31639 -2.43093 0)
(8.22058 -2.56941 0)
(8.08914 -2.67247 0)
(7.94998 -2.74852 0)
(7.8211 -2.79783 0)
(7.7239 -2.82222 0)
(7.67421 -2.83233 0)
(7.65844 -2.83369 0)
(7.65137 -2.82044 0)
(7.63481 -2.78685 0)
(7.59702 -2.7316 0)
(7.5319 -2.65428 0)
(7.43835 -2.55595 0)
(7.31574 -2.43803 0)
(7.1645 -2.30282 0)
(6.99512 -2.15547 0)
(6.82531 -2.003 0)
(6.66982 -1.85161 0)
(6.53336 -1.70458 0)
(6.41109 -1.56278 0)
(6.2981 -1.42616 0)
(6.18991 -1.29414 0)
(6.08549 -1.16663 0)
(5.98625 -1.04575 0)
(5.8928 -0.933149 0)
(5.80671 -0.828446 0)
(5.72786 -0.732679 0)
(5.65549 -0.647106 0)
(5.5898 -0.570914 0)
(5.53081 -0.503259 0)
(5.47843 -0.443922 0)
(5.43254 -0.391998 0)
(5.39302 -0.34575 0)
(5.35914 -0.304257 0)
(5.32946 -0.268233 0)
(5.30349 -0.238142 0)
(5.28205 -0.212717 0)
(5.2653 -0.190069 0)
(5.25191 -0.169206 0)
(5.24039 -0.150074 0)
(5.2303 -0.13285 0)
(5.22188 -0.117624 0)
(5.21519 -0.104443 0)
(5.20985 -0.0932451 0)
(5.20548 -0.0837283 0)
(5.20202 -0.0754414 0)
(5.19957 -0.0679971 0)
(5.19822 -0.061189 0)
(5.19781 -0.0549532 0)
(5.19803 -0.0492709 0)
(5.19852 -0.0441048 0)
(5.19898 -0.0393977 0)
(5.19922 -0.0350941 0)
(5.1992 -0.0311569 0)
(5.19894 -0.0275666 0)
(5.19849 -0.0243131 0)
(5.19795 -0.0213868 0)
(5.19738 -0.0187736 0)
(5.19683 -0.0164536 0)
(5.19632 -0.0144025 0)
(5.19587 -0.0125933 0)
(5.19548 -0.0109986 0)
(5.19515 -0.00959226 0)
(5.19488 -0.00835016 0)
(5.19464 -0.00725129 0)
(5.19445 -0.00627651 0)
(5.1943 -0.00541011 0)
(5.19417 -0.00463738 0)
(5.19406 -0.00394652 0)
(5.19397 -0.0033268 0)
(5.1939 -0.00276859 0)
(5.19384 -0.00226337 0)
(5.19379 -0.00180379 0)
(5.19376 -0.00138293 0)
(5.19373 -0.000994798 0)
(5.1937 -0.000633981 0)
(5.19368 -0.00029509 0)
(5.19367 2.61482e-05 0)
(5.19365 0.000334599 0)
(5.19365 0.000633286 0)
(5.19364 0.00092794 0)
(5.19364 0.00121895 0)
(5.19363 0.00151574 0)
(5.19364 0.00181156 0)
(5.19363 0.00212773 0)
(5.19365 0.00243774 0)
(5.19364 0.00279605 0)
(5.19368 0.00312244 0)
(5.19364 0.00355908 0)
(5.19372 0.00388806 0)
(5.19364 0.0044687 0)
(5.19378 0.00475257 0)
(5.19361 0.00559976 0)
(5.19387 0.00572797 0)
(5.19354 0.00705909 0)
(5.19394 0.00682373 0)
(5.1934 0.00897955 0)
(5.19393 0.00806031 0)
(5.19313 0.0114741 0)
(5.19367 0.00948614 0)
(5.19266 0.0145376 0)
(5.19295 0.0111661 0)
(5.19184 0.0179631 0)
(5.19167 0.0131183 0)
(5.19054 0.021388 0)
(5.18994 0.0153017 0)
(5.18878 0.0244032 0)
(5.18805 0.0178494 0)
(5.18658 0.0265332 0)
(5.18672 0.02133 0)
(5.18346 0.0274849 0)
(5.18727 0.0261531 0)
(5.17823 0.0280803 0)
(5.19077 0.0313615 0)
(5.17051 0.0302664 0)
(5.19604 0.0355054 0)
(5.1624 0.0349268 0)
(5.19979 0.0388796 0)
(5.15716 0.0407819 0)
(5.19957 0.0432375 0)
(5.15592 0.046433 0)
(5.19601 0.0495173 0)
(5.15674 0.0522918 0)
(5.1916 0.0570782 0)
(5.15755 0.0595617 0)
(5.18722 0.0653235 0)
(5.15877 0.0687581 0)
(5.18181 0.0746025 0)
(5.16133 0.0799175 0)
(5.17534 0.0856258 0)
(5.16438 0.09291 0)
(5.1691 0.0993073 0)
(5.16686 0.107699 0)
(5.16359 0.116092 0)
(5.16889 0.125344 0)
(5.1583 0.135672 0)
(5.17098 0.146992 0)
(5.15321 0.158817 0)
(5.1725 0.172511 0)
(5.14939 0.187185 0)
(5.17271 0.202291 0)
(5.14714 0.221278 0)
(5.17127 0.238029 0)
(5.14759 0.261876 0)
(5.16681 0.280245 0)
(5.15194 0.311153 0)
(5.15863 0.330105 0)
(5.16158 0.37003 0)
(5.14521 0.38978 0)
(5.17815 0.440559 0)
(5.12616 0.461205 0)
(5.20176 0.524725 0)
(5.10305 0.547677 0)
(5.2308 0.624872 0)
(5.07923 0.654263 0)
(5.26104 0.741772 0)
(5.06233 0.789415 0)
(5.28227 0.877159 0)
(5.06635 0.960226 0)
(5.27445 1.03703 0)
(5.10551 1.17305 0)
(5.22231 1.23193 0)
(5.18266 1.429 0)
(5.13029 1.48497 0)
(5.27109 1.72448 0)
(5.05802 1.83034 0)
(5.29372 2.05423 0)
(5.08852 2.28799 0)
(5.1637 2.47478 0)
(5.22183 2.80648 0)
(5.06372 3.11442 0)
(5.1304 3.44584 0)
(4.97797 3.96093 0)
(4.8914 4.43925 0)
(5.13098 4.90252 0)
(4.93933 5.80055 0)
(4.77829 6.86389 0)
(5.28418 7.87805 0)
(3.00923 11.2497 0)
(4.70874 -0.717161 0)
(4.87691 -0.677523 0)
(5.02736 -0.717189 0)
(5.22844 -0.760492 0)
(5.38837 -0.794292 0)
(5.58348 -0.847526 0)
(5.77174 -0.874079 0)
(5.91249 -0.889952 0)
(6.08817 -0.890611 0)
(6.26265 -0.881895 0)
(6.55172 -0.920572 0)
(6.89732 -0.959381 0)
(7.24809 -1.01922 0)
(7.56082 -1.09631 0)
(7.82171 -1.19953 0)
(8.03679 -1.33051 0)
(8.20679 -1.4876 0)
(8.32335 -1.65981 0)
(8.407 -1.84923 0)
(8.46291 -2.04844 0)
(8.47196 -2.23551 0)
(8.42115 -2.39206 0)
(8.32309 -2.51659 0)
(8.20829 -2.61924 0)
(8.10435 -2.70379 0)
(8.02935 -2.76533 0)
(7.99299 -2.80507 0)
(7.98297 -2.82767 0)
(7.97159 -2.83111 0)
(7.94079 -2.81126 0)
(7.88355 -2.76727 0)
(7.79796 -2.69967 0)
(7.6868 -2.60984 0)
(7.54996 -2.50034 0)
(7.38865 -2.3732 0)
(7.21113 -2.23242 0)
(7.03385 -2.08506 0)
(6.87128 -1.93741 0)
(6.72711 -1.7928 0)
(6.59802 -1.65164 0)
(6.47673 -1.51367 0)
(6.35996 -1.37914 0)
(6.24645 -1.24859 0)
(6.1359 -1.12281 0)
(6.03079 -1.00392 0)
(5.93182 -0.893834 0)
(5.8401 -0.792293 0)
(5.7563 -0.699635 0)
(5.67961 -0.617054 0)
(5.61002 -0.543905 0)
(5.54754 -0.47906 0)
(5.49183 -0.422391 0)
(5.44276 -0.373295 0)
(5.40054 -0.329857 0)
(5.36511 -0.290673 0)
(5.33516 -0.256392 0)
(5.30928 -0.227984 0)
(5.2874 -0.204458 0)
(5.26985 -0.183566 0)
(5.25595 -0.163908 0)
(5.24443 -0.145533 0)
(5.23457 -0.129001 0)
(5.22652 -0.114552 0)
(5.22045 -0.102086 0)
(5.21598 -0.091385 0)
(5.21241 -0.0821778 0)
(5.20923 -0.0741556 0)
(5.20633 -0.0670322 0)
(5.20391 -0.0605953 0)
(5.20216 -0.0547068 0)
(5.20113 -0.0492725 0)
(5.20065 -0.0442247 0)
(5.20049 -0.0395217 0)
(5.20041 -0.0351491 0)
(5.20025 -0.0311144 0)
(5.19994 -0.0274329 0)
(5.19948 -0.0241133 0)
(5.19891 -0.0211509 0)
(5.19829 -0.0185278 0)
(5.19768 -0.0162168 0)
(5.19709 -0.0141857 0)
(5.19657 -0.0124015 0)
(5.1961 -0.0108327 0)
(5.19571 -0.00945104 0)
(5.19537 -0.00823139 0)
(5.19508 -0.00715217 0)
(5.19484 -0.00619386 0)
(5.19464 -0.00534172 0)
(5.19447 -0.00458087 0)
(5.19433 -0.00390007 0)
(5.19422 -0.00328848 0)
(5.19412 -0.00273704 0)
(5.19404 -0.00223746 0)
(5.19398 -0.00178254 0)
(5.19393 -0.00136546 0)
(5.19388 -0.000980679 0)
(5.19385 -0.000622699 0)
(5.19382 -0.000286148 0)
(5.1938 3.31006e-05 0)
(5.19378 0.000339822 0)
(5.19377 0.000636806 0)
(5.19376 0.000930227 0)
(5.19376 0.00121976 0)
(5.19376 0.00151568 0)
(5.19377 0.0018096 0)
(5.19377 0.00212592 0)
(5.19379 0.00243277 0)
(5.19378 0.00279368 0)
(5.19384 0.00311252 0)
(5.1938 0.00355902 0)
(5.19391 0.00386885 0)
(5.19382 0.00447872 0)
(5.19402 0.00471302 0)
(5.19381 0.00563854 0)
(5.19418 0.00564491 0)
(5.19375 0.00716821 0)
(5.19437 0.00665234 0)
(5.19363 0.00924063 0)
(5.1945 0.00772817 0)
(5.19339 0.012024 0)
(5.19437 0.00889408 0)
(5.193 0.0155606 0)
(5.19367 0.0101948 0)
(5.19241 0.0196572 0)
(5.19209 0.0116031 0)
(5.19174 0.0239516 0)
(5.18937 0.0129747 0)
(5.19149 0.0280605 0)
(5.18523 0.0143554 0)
(5.19255 0.0314443 0)
(5.17946 0.0164979 0)
(5.19543 0.0334142 0)
(5.17249 0.0204609 0)
(5.19955 0.0341791 0)
(5.16515 0.0260557 0)
(5.20375 0.0352456 0)
(5.15826 0.0319124 0)
(5.20671 0.0378301 0)
(5.1532 0.037531 0)
(5.20668 0.0416688 0)
(5.15162 0.0434366 0)
(5.20303 0.0466312 0)
(5.15297 0.0496136 0)
(5.19766 0.0534653 0)
(5.15467 0.0559753 0)
(5.19263 0.0620504 0)
(5.15601 0.0636307 0)
(5.18714 0.0712806 0)
(5.1588 0.0737941 0)
(5.17973 0.0811706 0)
(5.16353 0.0863775 0)
(5.17119 0.0929896 0)
(5.16871 0.100881 0)
(5.16303 0.107613 0)
(5.17376 0.117757 0)
(5.15497 0.125166 0)
(5.17955 0.137966 0)
(5.1466 0.146017 0)
(5.18571 0.161994 0)
(5.13895 0.1712 0)
(5.19171 0.190138 0)
(5.1322 0.201621 0)
(5.1975 0.223628 0)
(5.12733 0.237767 0)
(5.20208 0.263418 0)
(5.12526 0.281601 0)
(5.20492 0.309876 0)
(5.12764 0.334708 0)
(5.20384 0.364767 0)
(5.13695 0.3989 0)
(5.1971 0.429145 0)
(5.15511 0.477054 0)
(5.18278 0.505535 0)
(5.18551 0.57056 0)
(5.15784 0.59854 0)
(5.2291 0.6822 0)
(5.12665 0.711997 0)
(5.28067 0.815416 0)
(5.09715 0.854664 0)
(5.32966 0.970449 0)
(5.08762 1.03986 0)
(5.35272 1.14806 0)
(5.12242 1.27897 0)
(5.31652 1.35925 0)
(5.21823 1.57019 0)
(5.21359 1.63542 0)
(5.34501 1.90527 0)
(5.13005 2.02206 0)
(5.3941 2.27775 0)
(5.18234 2.54815 0)
(5.22808 2.76348 0)
(5.36139 3.11413 0)
(5.24782 3.49523 0)
(5.429 3.82396 0)
(5.31625 4.46175 0)
(5.19766 5.09451 0)
(5.26877 5.71043 0)
(5.14199 6.96955 0)
(6.5172 7.7299 0)
(4.29423 12.0598 0)
(6.4537 -0.593145 0)
(6.40476 -0.685398 0)
(6.4912 -0.743357 0)
(6.58975 -0.790935 0)
(6.66951 -0.832797 0)
(6.74188 -0.880746 0)
(6.78922 -0.901244 0)
(6.78776 -0.90973 0)
(6.8237 -0.926511 0)
(6.93341 -0.949574 0)
(7.13647 -1.0095 0)
(7.32288 -1.0597 0)
(7.50322 -1.11979 0)
(7.69377 -1.19902 0)
(7.89211 -1.29688 0)
(8.08983 -1.41036 0)
(8.26218 -1.54608 0)
(8.39702 -1.70253 0)
(8.49952 -1.87776 0)
(8.56012 -2.05447 0)
(8.56471 -2.21732 0)
(8.51923 -2.35951 0)
(8.45141 -2.48263 0)
(8.39267 -2.59203 0)
(8.36017 -2.68484 0)
(8.35019 -2.75389 0)
(8.34485 -2.79835 0)
(8.32184 -2.81829 0)
(8.26812 -2.81248 0)
(8.18459 -2.78185 0)
(8.07517 -2.72714 0)
(7.94369 -2.64895 0)
(7.79165 -2.54945 0)
(7.61918 -2.43205 0)
(7.43332 -2.30026 0)
(7.24838 -2.1595 0)
(7.07805 -2.01664 0)
(6.92748 -1.8753 0)
(6.79144 -1.73639 0)
(6.66369 -1.59898 0)
(6.53892 -1.46294 0)
(6.41591 -1.32979 0)
(6.29634 -1.20059 0)
(6.18046 -1.07662 0)
(6.07044 -0.959948 0)
(5.96699 -0.852461 0)
(5.87036 -0.75415 0)
(5.78185 -0.664918 0)
(5.70133 -0.585553 0)
(5.62885 -0.515548 0)
(5.56446 -0.453719 0)
(5.50728 -0.399824 0)
(5.45658 -0.353492 0)
(5.41254 -0.313028 0)
(5.37581 -0.276708 0)
(5.34577 -0.244659 0)
(5.32054 -0.21793 0)
(5.29888 -0.196012 0)
(5.28072 -0.176754 0)
(5.26601 -0.158449 0)
(5.2541 -0.141015 0)
(5.24425 -0.125247 0)
(5.2363 -0.111617 0)
(5.23041 -0.0999533 0)
(5.22633 -0.0898212 0)
(5.2233 -0.0808582 0)
(5.22047 -0.0728655 0)
(5.21736 -0.0657493 0)
(5.21397 -0.0594289 0)
(5.21067 -0.0537758 0)
(5.20782 -0.0486265 0)
(5.20562 -0.0438279 0)
(5.20403 -0.0392877 0)
(5.20292 -0.0349858 0)
(5.20207 -0.0309535 0)
(5.20135 -0.0272393 0)
(5.20064 -0.0238805 0)
(5.19993 -0.02089 0)
(5.19921 -0.0182565 0)
(5.19851 -0.0159516 0)
(5.19785 -0.0139386 0)
(5.19724 -0.0121792 0)
(5.19671 -0.0106378 0)
(5.19624 -0.00928311 0)
(5.19585 -0.00808861 0)
(5.19551 -0.00703105 0)
(5.19522 -0.00609249 0)
(5.19498 -0.00525646 0)
(5.19477 -0.00450986 0)
(5.1946 -0.00384084 0)
(5.19446 -0.00323911 0)
(5.19434 -0.00269589 0)
(5.19424 -0.00220338 0)
(5.19416 -0.0017543 0)
(5.19409 -0.00134236 0)
(5.19404 -0.000961898 0)
(5.19399 -0.000607563 0)
(5.19396 -0.000274184 0)
(5.19393 4.2253e-05 0)
(5.19391 0.000346469 0)
(5.19389 0.000641143 0)
(5.19388 0.000932594 0)
(5.19388 0.00121998 0)
(5.19388 0.00151445 0)
(5.19389 0.00180595 0)
(5.19389 0.0021218 0)
(5.19393 0.00242468 0)
(5.19392 0.00278779 0)
(5.194 0.00309791 0)
(5.19396 0.00355445 0)
(5.1941 0.0038422 0)
(5.19399 0.00448387 0)
(5.19427 0.00466098 0)
(5.19399 0.00567463 0)
(5.19451 0.00553813 0)
(5.19394 0.00728371 0)
(5.19484 0.00643338 0)
(5.1938 0.00953384 0)
(5.19518 0.00730099 0)
(5.19351 0.0126642 0)