/*--------------------------------*- C++ -*----------------------------------*\
| =========                 |                                                 |
| \\      /  F ield         | OpenFOAM: The Open Source CFD Toolbox           |
|  \\    /   O peration     | Version:  2.4.0                                 |
|   \\  /    A nd           | Web:      www.OpenFOAM.org                      |
|    \\/     M anipulation  |                                                 |
\*---------------------------------------------------------------------------*/
FoamFile
{
    version     2.0;
    format      ascii;
    class       volSymmTensorField;
    location    "0.041";
    object      UPrime2Mean;
}
// * * * * * * * * * * * * * * * * * * * * * * * * * * * * * * * * * * * * * //

dimensions      [0 2 -2 0 0 0 0];

internalField   nonuniform List<symmTensor> 
17600
(
(0.0930603 -0.0100782 0 0.00153233 0 0)
(0.95805 -0.00404201 0 9.04663e-05 0 0)
(1.23911 -0.000144376 0 6.06507e-06 0 0)
(1.37043 -0.00103786 0 3.91563e-06 0 0)
(1.46177 -0.000771231 0 1.87667e-06 0 0)
(1.52457 -0.000292604 0 1.06593e-06 0 0)
(1.56522 -7.17224e-05 0 7.02813e-07 0 0)
(1.59479 2.39716e-05 0 4.15386e-07 0 0)
(1.61226 2.67763e-05 0 4.06887e-07 0 0)
(1.62896 -1.23432e-05 0 3.35011e-07 0 0)
(1.63864 -4.70535e-05 0 2.0909e-07 0 0)
(1.65612 -0.000123577 0 3.68204e-07 0 0)
(1.66735 -0.000156773 0 3.35735e-07 0 0)
(1.69168 -0.000273478 0 6.6875e-07 0 0)
(1.71047 -0.000400098 0 7.8959e-07 0 0)
(1.75933 -0.00092882 0 4.84438e-06 0 0)
(1.81404 -0.00170911 0 4.74773e-06 0 0)
(2.02365 0.00112687 0 5.05594e-05 0 0)
(2.37153 -0.0691619 0 0.0029407 0 0)
(4.34288 0.345841 0 0.0435447 0 0)
(0.0459362 0.0203407 0 0.0158463 0 0)
(0.383481 -0.0366655 0 0.00371221 0 0)
(0.766221 -0.0203378 0 0.000549313 0 0)
(1.01879 -0.014166 0 0.000217014 0 0)
(1.23614 -0.0113058 0 0.000166917 0 0)
(1.43493 -0.00878651 0 0.000145979 0 0)
(1.59037 -0.00645448 0 0.000110716 0 0)
(1.71631 -0.00439765 0 6.40734e-05 0 0)
(1.79581 -0.00316432 0 3.27959e-05 0 0)
(1.87279 -0.00255746 0 1.79792e-05 0 0)
(1.91202 -0.00249655 0 9.02555e-06 0 0)
(1.98645 -0.00279553 0 8.8542e-06 0 0)
(2.01949 -0.00325381 0 1.58822e-05 0 0)
(2.11415 -0.00334311 0 1.34396e-05 0 0)
(2.14967 -0.0055329 0 3.02117e-05 0 0)
(2.31913 -0.00525022 0 2.80645e-05 0 0)
(2.33828 -0.0164843 0 0.00017125 0 0)
(3.09469 -0.0241708 0 0.000243062 0 0)
(2.75327 -0.0779539 0 0.00309533 0 0)
(8.65464 -1.04638 0 0.177535 0 0)
(0.158819 0.0600782 0 0.024832 0 0)
(0.0625631 -0.0229844 0 0.0104728 0 0)
(0.262517 -0.0252406 0 0.00265156 0 0)
(0.445961 -0.0237074 0 0.00128712 0 0)
(0.650711 -0.0230268 0 0.000964275 0 0)
(0.884467 -0.0209195 0 0.000832813 0 0)
(1.09494 -0.0172197 0 0.000659571 0 0)
(1.28468 -0.0128304 0 0.000407554 0 0)
(1.41134 -0.00965843 0 0.000227331 0 0)
(1.54067 -0.00773487 0 0.000119144 0 0)
(1.60226 -0.00721814 0 5.82108e-05 0 0)
(1.72842 -0.00782409 0 6.43137e-05 0 0)
(1.77067 -0.00853048 0 7.61411e-05 0 0)
(1.92861 -0.00946998 0 9.93646e-05 0 0)
(1.96369 -0.0130206 0 0.000131615 0 0)
(2.21584 -0.0145966 0 0.0001546 0 0)
(2.2367 -0.0369719 0 0.000658928 0 0)
(3.01932 -0.0464485 0 0.00125543 0 0)
(3.06247 -0.192919 0 0.0173978 0 0)
(7.02571 -1.29733 0 0.389792 0 0)
(0.20926 0.0663368 0 0.0223298 0 0)
(0.00516867 0.00440315 0 0.0161966 0 0)
(0.0350762 -0.00920779 0 0.00575337 0 0)
(0.078639 -0.0144837 0 0.00338618 0 0)
(0.154302 -0.0199401 0 0.00271337 0 0)
(0.288996 -0.023404 0 0.00237495 0 0)
(0.444377 -0.0226987 0 0.00196351 0 0)
(0.614522 -0.0189898 0 0.00127179 0 0)
(0.736721 -0.015087 0 0.00076563 0 0)
(0.875241 -0.012403 0 0.000396428 0 0)
(0.93675 -0.0118039 0 0.000219063 0 0)
(1.08004 -0.0115747 0 0.000185383 0 0)
(1.11612 -0.0146203 0 0.000268532 0 0)
(1.29465 -0.0112079 0 0.000269492 0 0)
(1.32315 -0.0239773 0 0.000596843 0 0)
(1.56461 -0.00939046 0 0.000433199 0 0)
(1.65162 -0.0647825 0 0.00320388 0 0)
(2.03146 -0.0268028 0 0.00155256 0 0)
(2.8138 -0.331516 0 0.061055 0 0)
(3.56723 -0.545447 0 0.239683 0 0)
(0.195604 0.0537104 0 0.0156792 0 0)
(0.0182723 0.0166093 0 0.0168473 0 0)
(0.025003 0.00869863 0 0.00709892 0 0)
(0.0271928 0.00589022 0 0.00514521 0 0)
(0.0160982 0.000244586 0 0.00484192 0 0)
(0.0244045 -0.00810936 0 0.00451802 0 0)
(0.0638944 -0.0132437 0 0.00392832 0 0)
(0.139111 -0.0150193 0 0.00270703 0 0)
(0.204103 -0.0133279 0 0.00170204 0 0)
(0.294652 -0.0124079 0 0.000939797 0 0)
(0.333265 -0.0112783 0 0.000479569 0 0)
(0.437671 -0.0132264 0 0.000534763 0 0)
(0.470116 -0.0131057 0 0.000431695 0 0)
(0.586389 -0.017082 0 0.000760329 0 0)
(0.652169 -0.0149378 0 0.000659855 0 0)
(0.758356 -0.0303046 0 0.00150487 0 0)
(0.916488 -0.0200885 0 0.00176486 0 0)
(1.08384 -0.105148 0 0.0171109 0 0)
(1.50841 -0.115897 0 0.0262828 0 0)
(2.17172 -0.74335 0 0.680397 0 0)
(0.182557 0.0438316 0 0.0112276 0 0)
(0.0162241 0.0147302 0 0.0150184 0 0)
(0.0366774 0.0125296 0 0.00606815 0 0)
(0.0686995 0.0159328 0 0.00490179 0 0)
(0.0799567 0.0183007 0 0.00566968 0 0)
(0.0593527 0.013619 0 0.00605962 0 0)
(0.0408953 0.00760594 0 0.00574942 0 0)
(0.0283287 0.000150482 0 0.00419828 0 0)
(0.0308046 -0.0022329 0 0.00298416 0 0)
(0.0479548 -0.00461587 0 0.00163762 0 0)
(0.0520685 -0.00502514 0 0.000997863 0 0)
(0.0905648 -0.00636634 0 0.000874983 0 0)
(0.0974832 -0.00936856 0 0.00111544 0 0)
(0.15057 -0.00791232 0 0.00110891 0 0)
(0.180504 -0.0161255 0 0.00238651 0 0)
(0.235277 -0.00925856 0 0.00175689 0 0)
(0.297308 -0.0359356 0 0.00924868 0 0)
(0.407771 -0.0238261 0 0.00539794 0 0)
(0.557238 -0.160815 0 0.0994195 0 0)
(0.96272 -0.335903 0 0.331134 0 0)
(0.181201 0.037757 0 0.00838705 0 0)
(0.0110868 0.0109846 0 0.0133261 0 0)
(0.0312087 0.0101742 0 0.00485743 0 0)
(0.0717064 0.0143383 0 0.0035843 0 0)
(0.112562 0.0213237 0 0.0048213 0 0)
(0.120737 0.0226734 0 0.00587265 0 0)
(0.129004 0.0219614 0 0.00627263 0 0)
(0.107857 0.0147498 0 0.00501762 0 0)
(0.106405 0.0112536 0 0.00357832 0 0)
(0.0842109 0.00637635 0 0.0023551 0 0)
(0.0834312 0.00616805 0 0.00124375 0 0)
(0.063632 0.00329891 0 0.00159824 0 0)
(0.0637636 0.00293159 0 0.00103305 0 0)
(0.047914 0.00043905 0 0.00206028 0 0)
(0.0580626 -3.77735e-05 0 0.00176255 0 0)
(0.0468908 -0.00179304 0 0.004139 0 0)
(0.05826 -0.00250505 0 0.00405535 0 0)
(0.0722203 -0.0117323 0 0.0277384 0 0)
(0.111276 -0.0363735 0 0.0442255 0 0)
(0.258582 -0.139764 0 0.456702 0 0)
(0.184508 0.0327802 0 0.00622734 0 0)
(0.0080506 0.00822383 0 0.0117313 0 0)
(0.0248622 0.00797374 0 0.00423449 0 0)
(0.0616049 0.0111821 0 0.00263662 0 0)
(0.103289 0.0177981 0 0.00366322 0 0)
(0.120277 0.0210856 0 0.00490713 0 0)
(0.147687 0.0231322 0 0.00554095 0 0)
(0.148395 0.0187852 0 0.00442485 0 0)
(0.170129 0.0159998 0 0.00378316 0 0)
(0.168747 0.0122119 0 0.00237932 0 0)
(0.181375 0.0132334 0 0.00154111 0 0)
(0.176583 0.0109135 0 0.00154417 0 0)
(0.17324 0.0131105 0 0.00191422 0 0)
(0.158901 0.00975936 0 0.00196081 0 0)
(0.147087 0.0132569 0 0.00354837 0 0)
(0.122531 0.00930493 0 0.00323872 0 0)
(0.0973482 0.019533 0 0.00851228 0 0)
(0.0626287 0.0220564 0 0.0147403 0 0)
(0.0336944 0.0275054 0 0.0769699 0 0)
(0.0537329 0.0505631 0 0.482698 0 0)
(0.186168 0.0282388 0 0.00458096 0 0)
(0.00648197 0.0064137 0 0.0097985 0 0)
(0.0198316 0.00622919 0 0.00388603 0 0)
(0.0532493 0.00887492 0 0.00191205 0 0)
(0.0886132 0.0143762 0 0.00273265 0 0)
(0.106875 0.0177823 0 0.00381715 0 0)
(0.129426 0.0199736 0 0.00472117 0 0)
(0.139779 0.0166367 0 0.00409863 0 0)
(0.164004 0.0147842 0 0.00280493 0 0)
(0.178618 0.0125798 0 0.0021267 0 0)
(0.203844 0.012633 0 0.0011446 0 0)
(0.215895 0.0143579 0 0.00176756 0 0)
(0.234565 0.014045 0 0.00130315 0 0)
(0.232967 0.0183596 0 0.00233005 0 0)
(0.240986 0.0164957 0 0.00265681 0 0)
(0.219261 0.0252891 0 0.00442121 0 0)
(0.206532 0.0308543 0 0.00615606 0 0)
(0.157942 0.0508696 0 0.0234609 0 0)
(0.120768 0.0848066 0 0.0779611 0 0)
(0.10533 0.14437 0 0.346684 0 0)
(0.186336 0.0240185 0 0.00334316 0 0)
(0.00470858 0.00487889 0 0.00803214 0 0)
(0.0159643 0.00488184 0 0.00359211 0 0)
(0.0466234 0.00703981 0 0.00141272 0 0)
(0.0783729 0.0114682 0 0.00201013 0 0)
(0.0954647 0.01499 0 0.00303826 0 0)
(0.113424 0.0169961 0 0.00381138 0 0)
(0.124236 0.0145162 0 0.00295381 0 0)
(0.144339 0.0125325 0 0.00265779 0 0)
(0.163144 0.0100655 0 0.00186562 0 0)
(0.183842 0.0116101 0 0.00109369 0 0)
(0.206775 0.0117598 0 0.00128306 0 0)
(0.222617 0.0141348 0 0.0014752 0 0)
(0.239011 0.0159421 0 0.00193451 0 0)
(0.245271 0.0185948 0 0.00283222 0 0)
(0.249334 0.0255176 0 0.00421467 0 0)
(0.235754 0.0348179 0 0.00694792 0 0)
(0.218103 0.068777 0 0.0276789 0 0)
(0.182161 0.0968175 0 0.0717391 0 0)
(0.196082 0.226391 0 0.408209 0 0)
(0.186811 0.0203296 0 0.00239497 0 0)
(0.00385568 0.00370212 0 0.00641494 0 0)
(0.0135452 0.00386409 0 0.00337616 0 0)
(0.0413605 0.00566469 0 0.00102852 0 0)
(0.0698955 0.00926822 0 0.00145592 0 0)
(0.0864716 0.0126601 0 0.00233001 0 0)
(0.100643 0.0146212 0 0.00319423 0 0)
(0.111923 0.0125305 0 0.00287577 0 0)
(0.128719 0.0101589 0 0.00187924 0 0)
(0.14785 0.00917983 0 0.00143321 0 0)
(0.165312 0.00893175 0 0.000764601 0 0)
(0.188854 0.0112913 0 0.00128046 0 0)
(0.201602 0.0112024 0 0.00106418 0 0)
(0.220876 0.0157978 0 0.00162455 0 0)
(0.225245 0.0166084 0 0.00234688 0 0)
(0.236201 0.0248104 0 0.00356793 0 0)
(0.22474 0.0370933 0 0.00710128 0 0)
(0.218867 0.0643099 0 0.0234887 0 0)
(0.193016 0.110793 0 0.0809019 0 0)
(0.222741 0.237485 0 0.33983 0 0)
(0.187458 0.0170505 0 0.00170767 0 0)
(0.00325746 0.00267485 0 0.00501187 0 0)
(0.0116576 0.00282202 0 0.00310115 0 0)
(0.0368319 0.00437577 0 0.000706431 0 0)
(0.0631717 0.00732745 0 0.00103812 0 0)
(0.0787707 0.010496 0 0.00178318 0 0)
(0.0905157 0.0124553 0 0.00253787 0 0)
(0.101367 0.0105634 0 0.00196551 0 0)
(0.116141 0.00895432 0 0.00165035 0 0)
(0.134722 0.00719544 0 0.00135858 0 0)
(0.150928 0.00814103 0 0.000706376 0 0)
(0.172842 0.00918663 0 0.000947052 0 0)
(0.185046 0.0101695 0 0.000977835 0 0)
(0.202837 0.0138597 0 0.00149337 0 0)
(0.207688 0.0150452 0 0.00201784 0 0)
(0.218913 0.0258568 0 0.00424219 0 0)
(0.210529 0.0338361 0 0.00656115 0 0)
(0.210092 0.0698473 0 0.0277657 0 0)
(0.193549 0.112145 0 0.077669 0 0)
(0.233364 0.239649 0 0.31773 0 0)
(0.188295 0.0141963 0 0.00119926 0 0)
(0.00287823 0.00192027 0 0.0038294 0 0)
(0.0104493 0.0020822 0 0.0027882 0 0)
(0.0330187 0.00348325 0 0.000532641 0 0)
(0.0579044 0.00580092 0 0.00073698 0 0)
(0.072056 0.00864529 0 0.00131565 0 0)
(0.0825889 0.0105671 0 0.0020223 0 0)
(0.0920139 0.0089215 0 0.00178036 0 0)
(0.106278 0.007308 0 0.00121677 0 0)
(0.123478 0.00624443 0 0.000949256 0 0)
(0.139682 0.0065646 0 0.000515722 0 0)
(0.159771 0.00827788 0 0.000860901 0 0)
(0.171817 0.00869644 0 0.000806967 0 0)
(0.188687 0.0121909 0 0.00111279 0 0)
(0.193429 0.0143257 0 0.0017702 0 0)
(0.205731 0.0228443 0 0.00330782 0 0)
(0.199961 0.0347071 0 0.00683981 0 0)
(0.204555 0.0684797 0 0.0266329 0 0)
(0.195289 0.113433 0 0.0758403 0 0)
(0.249107 0.247348 0 0.296474 0 0)
(0.188862 0.0116592 0 0.000822827 0 0)
(0.00268341 0.00134949 0 0.0028165 0 0)
(0.00963172 0.00136771 0 0.00224452 0 0)
(0.0299821 0.0027348 0 0.000368778 0 0)
(0.0534872 0.00456635 0 0.000507432 0 0)
(0.0668067 0.00701906 0 0.000951962 0 0)
(0.0758378 0.00881247 0 0.00151985 0 0)
(0.084707 0.00732901 0 0.00119036 0 0)
(0.0978556 0.00620324 0 0.000911268 0 0)
(0.114547 0.00495134 0 0.000866795 0 0)
(0.130124 0.00556359 0 0.000440914 0 0)
(0.149173 0.00700843 0 0.000653171 0 0)
(0.161166 0.0073594 0 0.000643467 0 0)
(0.176936 0.0112361 0 0.00106116 0 0)
(0.182482 0.0127276 0 0.00145907 0 0)
(0.194858 0.0230117 0 0.0035163 0 0)
(0.192758 0.0336643 0 0.00658964 0 0)
(0.200539 0.068157 0 0.026363 0 0)
(0.200868 0.115976 0 0.074689 0 0)
(0.261273 0.248506 0 0.271345 0 0)
(0.189278 0.00936956 0 0.000552544 0 0)
(0.00259309 0.000933454 0 0.0020276 0 0)
(0.0091258 0.000859716 0 0.00169417 0 0)
(0.0276026 0.00218744 0 0.000303792 0 0)
(0.0500107 0.00355458 0 0.00037233 0 0)
(0.0625915 0.00560455 0 0.000674187 0 0)
(0.0706081 0.0072492 0 0.00113449 0 0)
(0.0787443 0.00595523 0 0.000962466 0 0)
(0.0912647 0.00497625 0 0.000684378 0 0)
(0.107224 0.00403046 0 0.000601683 0 0)
(0.122568 0.00457271 0 0.000334491 0 0)
(0.140546 0.00593445 0 0.000552495 0 0)
(0.152585 0.00635099 0 0.000560279 0 0)
(0.167624 0.00963124 0 0.000818856 0 0)
(0.173846 0.0119481 0 0.00126021 0 0)
(0.186625 0.0216517 0 0.00316652 0 0)
(0.187547 0.0330398 0 0.00653389 0 0)
(0.199409 0.0678632 0 0.0260374 0 0)
(0.207752 0.117333 0 0.072287 0 0)
(0.276578 0.247085 0 0.246941 0 0)
(0.189591 0.00735458 0 0.000352377 0 0)
(0.00254819 0.000628653 0 0.00134866 0 0)
(0.00883121 0.000483277 0 0.00114433 0 0)
(0.0257614 0.0017003 0 0.000206901 0 0)
(0.0472614 0.00273299 0 0.000243281 0 0)
(0.0592919 0.00434222 0 0.000442103 0 0)
(0.066522 0.00580124 0 0.000776121 0 0)
(0.0740666 0.00467783 0 0.000607304 0 0)
(0.0860774 0.00404339 0 0.000439727 0 0)
(0.101389 0.00314864 0 0.000477736 0 0)
(0.116658 0.00363694 0 0.000269656 0 0)
(0.133737 0.00500598 0 0.000411083 0 0)
(0.145922 0.00529994 0 0.000410201 0 0)
(0.160381 0.00862153 0 0.000682517 0 0)
(0.167391 0.0109022 0 0.00103569 0 0)
(0.180568 0.0206931 0 0.00290595 0 0)
(0.184678 0.0324501 0 0.00629559 0 0)
(0.20022 0.0673631 0 0.0251251 0 0)
(0.216597 0.117955 0 0.0686956 0 0)
(0.294489 0.246151 0 0.224059 0 0)
(0.189788 0.00553371 0 0.000218728 0 0)
(0.00254529 0.000400967 0 0.000841323 0 0)
(0.00868279 0.000243177 0 0.000737854 0 0)
(0.0243927 0.00127754 0 0.000163816 0 0)
(0.0451209 0.00200265 0 0.000182508 0 0)
(0.0568296 0.00319189 0 0.000288082 0 0)
(0.0633867 0.00445529 0 0.000513362 0 0)
(0.0705491 0.00350391 0 0.000416525 0 0)
(0.0821031 0.00306805 0 0.000310142 0 0)
(0.0970335 0.00235265 0 0.000336259 0 0)
(0.112106 0.00283811 0 0.000204151 0 0)
(0.128593 0.00405258 0 0.000322599 0 0)
(0.140887 0.00433854 0 0.000352908 0 0)
(0.155025 0.00751574 0 0.00057334 0 0)
(0.162768 0.00992804 0 0.000855185 0 0)
(0.176525 0.0197991 0 0.00267094 0 0)
(0.183658 0.031787 0 0.00603979 0 0)
(0.202803 0.0666095 0 0.0239651 0 0)
(0.226898 0.118002 0 0.0649383 0 0)
(0.311181 0.242979 0 0.203108 0 0)
(0.189924 0.00386858 0 0.000121553 0 0)
(0.00255538 0.000236619 0 0.000449625 0 0)
(0.00861666 9.16451e-05 0 0.000403575 0 0)
(0.0234202 0.000876696 0 0.000104818 0 0)
(0.0435739 0.00138162 0 0.000119061 0 0)
(0.055048 0.00216229 0 0.000165502 0 0)
(0.0611383 0.00318645 0 0.00029725 0 0)
(0.0679938 0.00241621 0 0.000232704 0 0)
(0.079257 0.00223192 0 0.000174409 0 0)
(0.0938369 0.00164869 0 0.000223234 0 0)
(0.108859 0.00204635 0 0.000155716 0 0)
(0.124895 0.00320212 0 0.000229623 0 0)
(0.137316 0.00351523 0 0.000250857 0 0)
(0.151295 0.00645966 0 0.000438346 0 0)
(0.159809 0.00907726 0 0.000704949 0 0)
(0.174285 0.0188018 0 0.00238371 0 0)
(0.18424 0.0311515 0 0.00574118 0 0)
(0.207093 0.0654684 0 0.0225293 0 0)
(0.238374 0.117552 0 0.0608003 0 0)
(0.329534 0.238041 0 0.181588 0 0)
(0.189995 0.00231638 0 6.59851e-05 0 0)
(0.00256681 0.000113538 0 0.000207889 0 0)
(0.00859142 1.70816e-05 0 0.000194183 0 0)
(0.0227972 0.000504213 0 8.02775e-05 0 0)
(0.0425483 0.000823788 0 9.91029e-05 0 0)
(0.0539069 0.00118996 0 0.00010518 0 0)
(0.0596767 0.00198844 0 0.000163869 0 0)
(0.0663327 0.00137591 0 0.000136604 0 0)
(0.0774056 0.00140761 0 0.000117865 0 0)
(0.0917695 0.000943709 0 0.000155937 0 0)
(0.106799 0.00132861 0 0.000126417 0 0)
(0.122514 0.00234061 0 0.00016957 0 0)
(0.135119 0.00265001 0 0.000197848 0 0)
(0.149076 0.00547122 0 0.000346468 0 0)
(0.1584 0.00815183 0 0.000569715 0 0)
(0.173663 0.0178207 0 0.00210924 0 0)
(0.186423 0.0303145 0 0.00534866 0 0)
(0.21292 0.0642786 0 0.0209615 0 0)
(0.251123 0.116329 0 0.0561353 0 0)
(0.348914 0.233029 0 0.162481 0 0)
(0.190009 0.000826003 0 3.57631e-05 0 0)
(0.00257353 1.47796e-05 0 8.41969e-05 0 0)
(0.00858275 -1.9892e-05 0 7.45452e-05 0 0)
(0.0224954 0.000136957 0 5.98855e-05 0 0)
(0.042034 0.000307645 0 7.92747e-05 0 0)
(0.0533676 0.000279495 0 7.40976e-05 0 0)
(0.0589443 0.00080285 0 8.59327e-05 0 0)
(0.0655195 0.000377319 0 8.42772e-05 0 0)
(0.0765007 0.000613214 0 8.53908e-05 0 0)
(0.0907571 0.000312046 0 0.000103874 0 0)
(0.10584 0.000620244 0 0.000103107 0 0)
(0.121403 0.00150883 0 0.000122058 0 0)
(0.134234 0.00186013 0 0.000143358 0 0)
(0.148273 0.00449226 0 0.000261719 0 0)
(0.158465 0.00725711 0 0.000461218 0 0)
(0.174615 0.0168221 0 0.00183408 0 0)
(0.190135 0.029451 0 0.00492322 0 0)
(0.220191 0.0628414 0 0.0192539 0 0)
(0.265096 0.114483 0 0.0513259 0 0)
(0.368947 0.226616 0 0.144325 0 0)
(0.18997 -0.000636701 0 3.58823e-05 0 0)
(0.0025702 -7.58715e-05 0 9.47737e-05 0 0)
(0.00857705 -3.73421e-05 0 6.82555e-05 0 0)
(0.0224974 -0.000223669 0 6.97316e-05 0 0)
(0.0420162 -0.000191817 0 8.79205e-05 0 0)
(0.0533956 -0.00063067 0 8.84584e-05 0 0)
(0.0589255 -0.000365117 0 8.20949e-05 0 0)
(0.065514 -0.000623951 0 9.75967e-05 0 0)
(0.0765128 -0.000181567 0 0.000105074 0 0)
(0.0907489 -0.000340946 0 8.99854e-05 0 0)
(0.105974 -7.73131e-05 0 0.000102082 0 0)
(0.121503 0.000661267 0 0.000100705 0 0)
(0.134623 0.00105702 0 0.000113868 0 0)
(0.148841 0.0034739 0 0.000200413 0 0)
(0.159973 0.00634632 0 0.000387156 0 0)
(0.177093 0.0156995 0 0.00157366 0 0)
(0.195323 0.0284607 0 0.00447104 0 0)
(0.228942 0.0610271 0 0.0174154 0 0)
(0.280456 0.112054 0 0.0463266 0 0)
(0.390236 0.219275 0 0.126828 0 0)
(0.189876 -0.00212946 0 6.203e-05 0 0)
(0.00255712 -0.000175852 0 0.000228792 0 0)
(0.00857391 -6.99475e-05 0 0.000164864 0 0)
(0.0228042 -0.000591743 0 9.80648e-05 0 0)
(0.0424944 -0.000714904 0 0.000109381 0 0)
(0.054001 -0.00153954 0 0.000138536 0 0)
(0.0596078 -0.00155043 0 0.000143674 0 0)
(0.066327 -0.0016202 0 0.000166902 0 0)
(0.0774297 -0.000989283 0 0.000163846 0 0)
(0.0917608 -0.000989605 0 0.000105203 0 0)
(0.10719 -0.000765666 0 0.000110786 0 0)
(0.122827 -0.000200109 0 9.74374e-05 0 0)
(0.136284 0.000266131 0 9.41661e-05 0 0)
(0.1508 0.00244426 0 0.000155808 0 0)
(0.162924 0.00542576 0 0.000331475 0 0)
(0.181115 0.0145105 0 0.00132286 0 0)
(0.202031 0.0273677 0 0.00400057 0 0)
(0.239255 0.0589541 0 0.0155105 0 0)
(0.297119 0.109017 0 0.0413447 0 0)
(0.411926 0.211224 0 0.110989 0 0)
(0.189727 -0.00368513 0 0.000118082 0 0)
(0.00253921 -0.000300979 0 0.000491937 0 0)
(0.00858736 -0.000139083 0 0.000365279 0 0)
(0.0234332 -0.000969291 0 0.000143004 0 0)
(0.0434818 -0.00128045 0 0.000148835 0 0)
(0.0552018 -0.00249486 0 0.000228587 0 0)
(0.0610247 -0.00277253 0 0.000273023 0 0)
(0.0679849 -0.00263928 0 0.000291512 0 0)
(0.0792887 -0.00183292 0 0.000265814 0 0)
(0.0938212 -0.00166094 0 0.000153191 0 0)
(0.109531 -0.001485 0 0.000137074 0 0)
(0.125399 -0.00108378 0 0.000119859 0 0)
(0.139279 -0.000559819 0 9.15945e-05 0 0)
(0.154173 0.00136739 0 0.00013673 0 0)
(0.167382 0.00446606 0 0.000302384 0 0)
(0.186724 0.0132307 0 0.00110265 0 0)
(0.210353 0.0261037 0 0.00351373 0 0)
(0.251163 0.0565625 0 0.0135919 0 0)
(0.315145 0.105332 0 0.0363989 0 0)
(0.435346 0.202268 0 0.0959859 0 0)
(0.189519 -0.0053552 0 0.000209983 0 0)
(0.00252372 -0.000470777 0 0.000889801 0 0)
(0.0086415 -0.000276684 0 0.000673119 0 0)
(0.0244147 -0.00136926 0 0.00019992 0 0)
(0.0450034 -0.00191948 0 0.00020842 0 0)
(0.0570439 -0.00351918 0 0.000363276 0 0)
(0.0632236 -0.0040588 0 0.000474459 0 0)
(0.0705479 -0.00370946 0 0.000472148 0 0)
(0.0821508 -0.00273322 0 0.000411378 0 0)
(0.0969951 -0.00237506 0 0.000232405 0 0)
(0.113062 -0.00224644 0 0.000180683 0 0)
(0.129299 -0.00202042 0 0.000167449 0 0)
(0.14368 -0.00142485 0 0.000105717 0 0)
(0.159061 0.000204397 0 0.000147711 0 0)
(0.173438 0.00347835 0 0.000298113 0 0)
(0.194038 0.0117934 0 0.000911669 0 0)
(0.220393 0.0247042 0 0.00303819 0 0)
(0.264813 0.0537655 0 0.0116777 0 0)
(0.334898 0.101041 0 0.0315581 0 0)
(0.460627 0.192662 0 0.0820535 0 0)
(0.189243 -0.00717985 0 0.000345332 0 0)
(0.00252395 -0.00070244 0 0.00142333 0 0)
(0.0087778 -0.000508115 0 0.00108745 0 0)
(0.025798 -0.00180198 0 0.000266231 0 0)
(0.0470995 -0.00265293 0 0.000291806 0 0)
(0.0595915 -0.00464062 0 0.00054349 0 0)
(0.066283 -0.00543742 0 0.000746173 0 0)
(0.0741104 -0.00484441 0 0.000703169 0 0)
(0.0861057 -0.00371383 0 0.000597403 0 0)
(0.101392 -0.00314262 0 0.000338437 0 0)
(0.117884 -0.00306741 0 0.000240028 0 0)
(0.134651 -0.00301163 0 0.00023665 0 0)
(0.149601 -0.00235317 0 0.00013341 0 0)
(0.165616 -0.00105009 0 0.000186045 0 0)
(0.181221 0.00244365 0 0.000309372 0 0)
(0.203223 0.0102057 0 0.000755181 0 0)
(0.232319 0.0231446 0 0.00258016 0 0)
(0.280399 0.0505554 0 0.00980992 0 0)
(0.356522 0.0961502 0 0.0269232 0 0)
(0.487327 0.182236 0 0.0692421 0 0)
(0.188887 -0.00920874 0 0.000538795 0 0)
(0.00255789 -0.00101807 0 0.00209824 0 0)
(0.00905221 -0.000864963 0 0.00160521 0 0)
(0.0276463 -0.00228721 0 0.000344015 0 0)
(0.0498299 -0.00350888 0 0.000407378 0 0)
(0.062931 -0.00588121 0 0.000777394 0 0)
(0.0703155 -0.00692742 0 0.00109104 0 0)
(0.0787939 -0.00606353 0 0.000984866 0 0)
(0.0912889 -0.00480256 0 0.000832192 0 0)
(0.107154 -0.00398381 0 0.00047488 0 0)
(0.124143 -0.00398077 0 0.000318986 0 0)
(0.141622 -0.00406554 0 0.000328212 0 0)
(0.157205 -0.00339347 0 0.000178977 0 0)
(0.174051 -0.00240737 0 0.000257951 0 0)
(0.190922 0.00131081 0 0.000336306 0 0)
(0.214519 0.00844951 0 0.000643145 0 0)
(0.246337 0.0214003 0 0.00214907 0 0)
(0.298157 0.0469016 0 0.00802773 0 0)
(0.380359 0.0905648 0 0.0225088 0 0)
(0.516777 0.170949 0 0.0573933 0 0)
(0.188422 -0.0114979 0 0.000810393 0 0)
(0.0026531 -0.00144369 0 0.00291847 0 0)
(0.00953808 -0.00137293 0 0.00218998 0 0)
(0.030042 -0.0028518 0 0.000440014 0 0)
(0.0532812 -0.00452453 0 0.000563202 0 0)
(0.0671863 -0.00726074 0 0.00106808 0 0)
(0.0754735 -0.00854932 0 0.00150797 0 0)
(0.0847771 -0.00738343 0 0.00131451 0 0)
(0.0978781 -0.00601928 0 0.00111564 0 0)
(0.114483 -0.00491641 0 0.000634671 0 0)
(0.132031 -0.00500085 0 0.000414077 0 0)
(0.150457 -0.00518661 0 0.000437725 0 0)
(0.166727 -0.00455708 0 0.000245425 0 0)
(0.184669 -0.00389748 0 0.00036742 0 0)
(0.202807 9.21443e-05 0 0.00037707 0 0)
(0.228276 0.00645289 0 0.000576683 0 0)
(0.262694 0.0195377 0 0.00175878 0 0)
(0.318484 0.0426562 0 0.00634894 0 0)
(0.406908 0.0844014 0 0.0184203 0 0)
(0.549107 0.158668 0 0.0465374 0 0)
(0.187832 -0.0140605 0 0.00118316 0 0)
(0.00284932 -0.00202604 0 0.00392048 0 0)
(0.0103269 -0.00204198 0 0.0027168 0 0)
(0.0330895 -0.00356323 0 0.000576025 0 0)
(0.0576067 -0.00578012 0 0.000782514 0 0)
(0.0725282 -0.00883599 0 0.00142996 0 0)
(0.0819852 -0.0103314 0 0.00199877 0 0)
(0.092276 -0.00884912 0 0.00169739 0 0)
(0.106124 -0.00738956 0 0.00144349 0 0)
(0.123609 -0.00597127 0 0.00081186 0 0)
(0.141821 -0.00615462 0 0.000526847 0 0)
(0.161442 -0.00641116 0 0.00056534 0 0)
(0.1785 -0.0058616 0 0.000331429 0 0)
(0.197846 -0.00554853 0 0.000514218 0 0)
(0.217261 -0.00122838 0 0.000428762 0 0)
(0.244883 0.00418444 0 0.000567891 0 0)
(0.281768 0.0175339 0 0.00141289 0 0)
(0.341903 0.0377997 0 0.00483071 0 0)
(0.43647 0.0775933 0 0.0146815 0 0)
(0.585051 0.145119 0 0.0365934 0 0)
(0.187169 -0.0169407 0 0.00168923 0 0)
(0.00319758 -0.00280984 0 0.00513383 0 0)
(0.011548 -0.00286417 0 0.00308257 0 0)
(0.0367941 -0.00449631 0 0.000782032 0 0)
(0.0629428 -0.00736238 0 0.00109695 0 0)
(0.0789365 -0.0106578 0 0.00188365 0 0)
(0.0900434 -0.0123183 0 0.00257343 0 0)
(0.101272 -0.0104738 0 0.00213463 0 0)
(0.116265 -0.00897751 0 0.00182866 0 0)
(0.134553 -0.00716348 0 0.00101444 0 0)
(0.153833 -0.00752791 0 0.000675632 0 0)
(0.174705 -0.00771916 0 0.000705064 0 0)
(0.192981 -0.00744147 0 0.00045152 0 0)
(0.213849 -0.00725881 0 0.000688154 0 0)
(0.234819 -0.00284344 0 0.000508675 0 0)
(0.264644 0.00178821 0 0.000622476 0 0)
(0.30419 0.015172 0 0.00110344 0 0)
(0.368828 0.0324986 0 0.00354146 0 0)
(0.469674 0.0698809 0 0.0112758 0 0)
(0.625918 0.130011 0 0.0275816 0 0)
(0.186586 -0.0202444 0 0.00238366 0 0)
(0.00375897 -0.00381383 0 0.00654619 0 0)
(0.0134244 -0.00386201 0 0.00334998 0 0)
(0.0411005 -0.00566291 0 0.00107414 0 0)
(0.0696822 -0.00931111 0 0.00152542 0 0)
(0.0862817 -0.0127135 0 0.00243385 0 0)
(0.100331 -0.0145675 0 0.00322383 0 0)
(0.111558 -0.0121975 0 0.00260989 0 0)
(0.129233 -0.01086 0 0.00227374 0 0)
(0.147172 -0.00845982 0 0.00123711 0 0)
(0.169382 -0.00918705 0 0.000861263 0 0)
(0.190169 -0.00910152 0 0.000849423 0 0)
(0.211795 -0.00934353 0 0.000611419 0 0)
(0.232547 -0.00903047 0 0.00088309 0 0)
(0.257105 -0.00474964 0 0.000611538 0 0)
(0.287173 -0.000784703 0 0.000741472 0 0)
(0.331167 0.0125981 0 0.000841547 0 0)
(0.397985 0.0265034 0 0.00248989 0 0)
(0.505843 0.0616845 0 0.00835124 0 0)
(0.667736 0.111392 0 0.0192222 0 0)
(0.186058 -0.0239937 0 0.00332242 0 0)
(0.00469175 -0.00508281 0 0.00817056 0 0)
(0.0162178 -0.00507851 0 0.00361318 0 0)
(0.0461384 -0.00709022 0 0.00146788 0 0)
(0.0785081 -0.0116919 0 0.00208323 0 0)
(0.0947087 -0.0150357 0 0.00310048 0 0)
(0.114215 -0.0172234 0 0.0039534 0 0)
(0.123062 -0.0140501 0 0.00316173 0 0)
(0.147085 -0.0131748 0 0.00277608 0 0)
(0.161147 -0.00992023 0 0.00150662 0 0)
(0.19102 -0.0112489 0 0.00108579 0 0)
(0.206513 -0.010621 0 0.00102676 0 0)
(0.23687 -0.0116115 0 0.000810324 0 0)
(0.249996 -0.0107805 0 0.00111543 0 0)
(0.283286 -0.00684405 0 0.000734062 0 0)
(0.303644 -0.00341276 0 0.000921572 0 0)
(0.355663 0.0100258 0 0.000641282 0 0)
(0.410878 0.0196154 0 0.00168825 0 0)
(0.523877 0.0530986 0 0.00603653 0 0)
(0.673482 0.0869354 0 0.0118292 0 0)
(0.184896 -0.0281149 0 0.00455999 0 0)
(0.00631454 -0.00673077 0 0.0100038 0 0)
(0.0198462 -0.00645025 0 0.00389907 0 0)
(0.0525767 -0.00891645 0 0.00198787 0 0)
(0.0895059 -0.0145581 0 0.00280153 0 0)
(0.105744 -0.0177996 0 0.00392508 0 0)
(0.132075 -0.020388 0 0.00479665 0 0)
(0.137024 -0.0162124 0 0.00383502 0 0)
(0.169295 -0.0159314 0 0.00334741 0 0)
(0.174571 -0.0114617 0 0.00182416 0 0)
(0.213286 -0.0135599 0 0.0013639 0 0)
(0.213737 -0.0117991 0 0.00123058 0 0)
(0.251817 -0.0136233 0 0.00104022 0 0)
(0.242564 -0.011217 0 0.00132839 0 0)
(0.280976 -0.00820943 0 0.000865444 0 0)
(0.273077 -0.00436014 0 0.00106013 0 0)
(0.326251 0.00759287 0 0.000507474 0 0)
(0.346189 0.013298 0 0.00115532 0 0)
(0.450476 0.042664 0 0.00433861 0 0)
(0.55622 0.0575556 0 0.00633261 0 0)
(0.182515 -0.0325764 0 0.00618854 0 0)
(0.00865675 -0.00883766 0 0.011885 0 0)
(0.0243457 -0.0079596 0 0.00424366 0 0)
(0.0614404 -0.0113834 0 0.00268558 0 0)
(0.102113 -0.0178943 0 0.003721 0 0)
(0.120634 -0.0211729 0 0.00492921 0 0)
(0.148053 -0.0233655 0 0.00570026 0 0)
(0.146903 -0.0181335 0 0.00457458 0 0)
(0.174401 -0.017317 0 0.00386019 0 0)
(0.163592 -0.0115377 0 0.00209186 0 0)
(0.191503 -0.0134576 0 0.00157824 0 0)
(0.168875 -0.0100288 0 0.00133313 0 0)
(0.191959 -0.0117708 0 0.00117543 0 0)
(0.159323 -0.00710186 0 0.00134803 0 0)
(0.182501 -0.00596239 0 0.000869105 0 0)
(0.155098 -0.00103203 0 0.00103147 0 0)
(0.190668 0.00546695 0 0.000375501 0 0)
(0.187847 0.00979754 0 0.000848476 0 0)
(0.263676 0.0278967 0 0.00304585 0 0)
(0.328293 0.0306301 0 0.00319945 0 0)
(0.180273 -0.0375658 0 0.00834128 0 0)
(0.011854 -0.011481 0 0.0134914 0 0)
(0.0305526 -0.0100108 0 0.00483685 0 0)
(0.0724238 -0.0146138 0 0.00366474 0 0)
(0.110748 -0.0211073 0 0.00484895 0 0)
(0.122072 -0.0228734 0 0.00592503 0 0)
(0.127855 -0.0217635 0 0.00631615 0 0)
(0.108195 -0.0145883 0 0.00495095 0 0)
(0.106988 -0.0116486 0 0.00387416 0 0)
(0.0843128 -0.00581108 0 0.00202919 0 0)
(0.0842813 -0.00644744 0 0.00145183 0 0)
(0.0660535 -0.00249116 0 0.00115652 0 0)
(0.0648579 -0.00328938 0 0.00101439 0 0)
(0.0574777 0.00138182 0 0.00109703 0 0)
(0.0594589 -2.24749e-05 0 0.000677802 0 0)
(0.0664499 0.00417059 0 0.00080697 0 0)
(0.0732548 0.00281679 0 0.000279717 0 0)
(0.0931357 0.00698199 0 0.000596462 0 0)
(0.121966 0.00959323 0 0.00225058 0 0)
(0.166507 0.0108456 0 0.00159195 0 0)
(0.182198 -0.0437337 0 0.0111943 0 0)
(0.0168344 -0.015032 0 0.0151092 0 0)
(0.0361382 -0.0123279 0 0.00604428 0 0)
(0.0695111 -0.0161352 0 0.00494189 0 0)
(0.0787403 -0.0180768 0 0.00567632 0 0)
(0.0601874 -0.0137776 0 0.00606108 0 0)
(0.0403262 -0.00736323 0 0.00578361 0 0)
(0.0280758 -0.000198374 0 0.00424351 0 0)
(0.0308645 0.00227213 0 0.00301191 0 0)
(0.0466035 0.00476568 0 0.00148646 0 0)
(0.0505743 0.00437791 0 0.000993563 0 0)
(0.0906576 0.00666568 0 0.000762834 0 0)
(0.0854667 0.00628721 0 0.000677979 0 0)
(0.154132 0.00839243 0 0.000713024 0 0)
(0.135984 0.00495859 0 0.000426509 0 0)
(0.217604 0.00660464 0 0.000524359 0 0)
(0.18193 -0.00167509 0 0.000210794 0 0)
(0.245956 0.00303084 0 0.000387756 0 0)
(0.208456 -0.00946803 0 0.00170162 0 0)
(0.22679 -0.00127817 0 0.00109997 0 0)
(0.19548 -0.0536296 0 0.0156413 0 0)
(0.018703 -0.0167933 0 0.0169102 0 0)
(0.0248404 -0.00856401 0 0.00707545 0 0)
(0.0272983 -0.00602173 0 0.0051756 0 0)
(0.0162528 -7.36866e-05 0 0.00484034 0 0)
(0.0236946 0.00795458 0 0.00452381 0 0)
(0.0650136 0.0134419 0 0.00393438 0 0)
(0.13716 0.014912 0 0.00269525 0 0)
(0.204708 0.013535 0 0.00176577 0 0)
(0.29162 0.0118456 0 0.000832104 0 0)
(0.328972 0.0110219 0 0.000520992 0 0)
(0.435387 0.0113889 0 0.000403888 0 0)
(0.441208 0.0110266 0 0.000367112 0 0)
(0.581176 0.0104863 0 0.000383574 0 0)
(0.544605 0.00643545 0 0.000222072 0 0)
(0.692681 0.00499075 0 0.000284848 0 0)
(0.603487 -0.00609131 0 0.000144415 0 0)
(0.698181 -0.00207279 0 0.000240005 0 0)
(0.58533 -0.0236001 0 0.00119932 0 0)
(0.545783 -0.00617941 0 0.00127485 0 0)
(0.209266 -0.0662966 0 0.0223009 0 0)
(0.00529292 -0.00450021 0 0.0162355 0 0)
(0.0353338 0.00925951 0 0.00574131 0 0)
(0.0778636 0.0144479 0 0.00340156 0 0)
(0.155699 0.0200337 0 0.00271261 0 0)
(0.286774 0.0233002 0 0.00237412 0 0)
(0.447086 0.022806 0 0.00196059 0 0)
(0.610707 0.0188805 0 0.00127414 0 0)
(0.738883 0.0151526 0 0.000784273 0 0)
(0.869112 0.0119045 0 0.00035752 0 0)
(0.933539 0.0109965 0 0.000207595 0 0)
(1.06802 0.0105784 0 0.000170515 0 0)
(1.08738 0.0101006 0 0.000156451 0 0)
(1.25054 0.00842346 0 0.000164948 0 0)
(1.20639 0.00471505 0 9.12553e-05 0 0)
(1.37142 0.00164784 0 0.000123233 0 0)
(1.23991 -0.00825598 0 8.75339e-05 0 0)
(1.33213 -0.00591136 0 0.000128809 0 0)
(1.1547 -0.0288729 0 0.000781827 0 0)
(1.04191 0.000352814 0 0.00128605 0 0)